/*--------------------------------*- C++ -*----------------------------------*\
  =========                 |
  \\      /  F ield         | OpenFOAM: The Open Source CFD Toolbox
   \\    /   O peration     | Website:  https://openfoam.org
    \\  /    A nd           | Version:  7
     \\/     M anipulation  |
\*---------------------------------------------------------------------------*/
FoamFile
{
    version     2.0;
    format      ascii;
    class       volVectorField;
    location    "2000";
    object      U;
}
// * * * * * * * * * * * * * * * * * * * * * * * * * * * * * * * * * * * * * //

dimensions      [0 1 -1 0 0 0 0];

internalField   nonuniform List<vector> 
4026
(
(0.119886 1.70646e-07 7.46371e-16)
(0.119886 1.14757e-07 7.71895e-16)
(0.119886 6.46205e-08 7.98677e-16)
(0.119887 3.90538e-08 6.82803e-16)
(0.119887 2.1863e-08 6.35063e-16)
(0.119887 1.40974e-08 6.85464e-16)
(0.119887 1.10516e-08 7.66353e-16)
(0.119887 1.00514e-08 8.24157e-16)
(0.119887 9.82759e-09 9.32617e-16)
(0.119887 9.51133e-09 1.01254e-15)
(0.119887 8.71919e-09 1.07008e-15)
(0.119887 7.29e-09 1.08209e-15)
(0.119887 5.19201e-09 1.09449e-15)
(0.119887 2.4889e-09 1.09521e-15)
(0.119887 -6.98746e-10 8.71938e-16)
(0.119887 -4.23592e-09 1.03763e-15)
(0.119887 -8.01271e-09 1.07996e-15)
(0.119887 -1.19641e-08 1.10525e-15)
(0.119887 -1.60662e-08 1.117e-15)
(0.119887 -2.03202e-08 8.61317e-16)
(0.119887 -2.47359e-08 1.1161e-15)
(0.119887 -2.93222e-08 9.24244e-16)
(0.119887 -3.40842e-08 1.02061e-15)
(0.119887 -3.90238e-08 1.10419e-15)
(0.119887 -4.41406e-08 8.81304e-16)
(0.119887 -4.94313e-08 1.05697e-15)
(0.119887 -5.48917e-08 1.08467e-15)
(0.119887 -6.05174e-08 1.04561e-15)
(0.119887 -6.63163e-08 1.08968e-15)
(0.119887 -7.23037e-08 7.08991e-16)
(0.119886 -7.85235e-08 9.25837e-16)
(0.119886 -8.50122e-08 9.92465e-16)
(0.119886 -9.18356e-08 1.00462e-15)
(0.119886 -9.89897e-08 1.02329e-15)
(0.119886 -1.0648e-07 7.08885e-16)
(0.119886 -1.14149e-07 9.5989e-16)
(0.119886 -1.21705e-07 8.75111e-16)
(0.119886 -1.28818e-07 8.81726e-16)
(0.119886 -1.33875e-07 8.73244e-16)
(0.119886 -1.37499e-07 6.94923e-16)
(0.119886 -1.3134e-07 7.46215e-16)
(0.119886 -1.26094e-07 6.86956e-16)
(0.119886 -7.60363e-08 7.44306e-16)
(0.119886 -5.7944e-08 7.4622e-16)
(0.119886 1.8644e-07 7.51291e-16)
(0.119886 5.80471e-07 6.035e-16)
(0.119886 3.56334e-07 6.19758e-16)
(0.119886 2.27717e-07 5.87907e-16)
(0.119886 1.56711e-07 5.71306e-16)
(0.119886 1.06081e-07 5.7935e-16)
(0.119886 7.11781e-08 5.69825e-16)
(0.119886 4.48627e-08 5.78654e-16)
(0.119886 2.33533e-08 5.78489e-16)
(0.119886 5.73426e-09 6.11935e-16)
(0.119886 -9.59271e-09 6.46089e-16)
(0.119886 -2.10926e-08 6.4156e-16)
(0.119886 -2.76106e-08 6.55123e-16)
(0.119886 -2.77652e-08 6.64239e-16)
(0.119886 -7.53535e-09 6.8987e-16)
(0.119886 1.80853e-08 7.15749e-16)
(0.119886 1.08209e-07 6.89487e-16)
(0.120892 1.51224e-07 9.42563e-16)
(0.120892 1.00976e-07 9.73064e-16)
(0.120892 5.40891e-08 9.89585e-16)
(0.120892 3.14217e-08 8.53934e-16)
(0.120892 1.58851e-08 8.00664e-16)
(0.120892 9.0075e-09 8.38587e-16)
(0.120892 6.62959e-09 9.17201e-16)
(0.120892 6.20518e-09 9.83552e-16)
(0.120892 6.53701e-09 1.0676e-15)
(0.120892 6.77396e-09 1.1398e-15)
(0.120892 6.5311e-09 1.20115e-15)
(0.120892 5.64414e-09 1.22688e-15)
(0.120892 4.07705e-09 1.24205e-15)
(0.120892 1.8886e-09 1.24971e-15)
(0.120892 -8.06287e-10 1.07371e-15)
(0.120892 -3.87771e-09 1.24095e-15)
(0.120892 -7.21904e-09 1.25498e-15)
(0.120892 -1.07664e-08 1.27201e-15)
(0.120892 -1.44957e-08 1.28531e-15)
(0.120892 -1.84072e-08 1.12979e-15)
(0.120892 -2.25097e-08 1.3129e-15)
(0.120892 -2.68109e-08 1.14672e-15)
(0.120892 -3.13153e-08 1.22923e-15)
(0.120892 -3.60237e-08 1.25865e-15)
(0.120892 -4.09355e-08 1.09712e-15)
(0.120892 -4.60469e-08 1.24786e-15)
(0.120892 -5.13545e-08 1.22692e-15)
(0.120892 -5.68551e-08 1.23634e-15)
(0.120892 -6.25581e-08 1.23228e-15)
(0.120892 -6.84803e-08 1.01756e-15)
(0.120892 -7.46672e-08 1.1603e-15)
(0.120892 -8.11561e-08 1.18574e-15)
(0.120892 -8.80156e-08 1.18279e-15)
(0.120892 -9.52421e-08 1.16922e-15)
(0.120892 -1.02849e-07 9.58374e-16)
(0.120892 -1.10676e-07 1.09886e-15)
(0.120892 -1.18455e-07 1.05602e-15)
(0.120892 -1.25836e-07 1.05816e-15)
(0.120892 -1.31297e-07 1.05269e-15)
(0.120891 -1.35325e-07 8.86037e-16)
(0.120891 -1.29965e-07 9.45884e-16)
(0.120891 -1.25231e-07 8.59894e-16)
(0.120891 -7.70784e-08 9.43178e-16)
(0.120892 -5.93755e-08 9.72913e-16)
(0.120891 1.77442e-07 9.6835e-16)
(0.120891 5.71805e-07 8.22178e-16)
(0.120891 3.57622e-07 8.30571e-16)
(0.120891 2.30545e-07 8.19676e-16)
(0.120891 1.5901e-07 7.96013e-16)
(0.120891 1.07907e-07 7.876e-16)
(0.120891 7.2592e-08 7.89024e-16)
(0.120891 4.58978e-08 7.98456e-16)
(0.120891 2.39508e-08 7.99363e-16)
(0.120891 5.87059e-09 8.16607e-16)
(0.120891 -1.00702e-08 8.43242e-16)
(0.120891 -2.21781e-08 8.53578e-16)
(0.120891 -2.98784e-08 8.65752e-16)
(0.120891 -3.0943e-08 8.74204e-16)
(0.120891 -1.39071e-08 8.84571e-16)
(0.120891 9.56815e-09 9.0484e-16)
(0.120891 9.27172e-08 9.00402e-16)
(0.121864 1.30626e-07 1.1524e-15)
(0.121864 8.69093e-08 1.17977e-15)
(0.121865 4.36602e-08 1.18013e-15)
(0.121865 2.35605e-08 9.7566e-16)
(0.121865 9.62542e-09 9.64618e-16)
(0.121865 3.67847e-09 1.01494e-15)
(0.121865 2.01535e-09 1.09368e-15)
(0.121865 2.20318e-09 1.1618e-15)
(0.121865 3.11779e-09 1.23088e-15)
(0.121865 3.92985e-09 1.29203e-15)
(0.121865 4.25596e-09 1.35096e-15)
(0.121865 3.93067e-09 1.37862e-15)
(0.121865 2.91459e-09 1.39571e-15)
(0.121865 1.26169e-09 1.3981e-15)
(0.121865 -9.18897e-10 1.33126e-15)
(0.121865 -3.50245e-09 1.40154e-15)
(0.121865 -6.38545e-09 1.42243e-15)
(0.121865 -9.50509e-09 1.44026e-15)
(0.121865 -1.28369e-08 1.44489e-15)
(0.121865 -1.63803e-08 1.38974e-15)
(0.121865 -2.01433e-08 1.42979e-15)
(0.121865 -2.4133e-08 1.40311e-15)
(0.121865 -2.83531e-08 1.47536e-15)
(0.121865 -3.28042e-08 1.45158e-15)
(0.121865 -3.74851e-08 1.40091e-15)
(0.121865 -4.23922e-08 1.43196e-15)
(0.121865 -4.75229e-08 1.38922e-15)
(0.121865 -5.28751e-08 1.42679e-15)
(0.121865 -5.84599e-08 1.39798e-15)
(0.121865 -6.42956e-08 1.30641e-15)
(0.121865 -7.04293e-08 1.32715e-15)
(0.121864 -7.68993e-08 1.31753e-15)
(0.121864 -8.37767e-08 1.36103e-15)
(0.121864 -9.10588e-08 1.32188e-15)
(0.121864 -9.87667e-08 1.25434e-15)
(0.121864 -1.0674e-07 1.27046e-15)
(0.121864 -1.14737e-07 1.21501e-15)
(0.121864 -1.22383e-07 1.23624e-15)
(0.121864 -1.28263e-07 1.21294e-15)
(0.121864 -1.32714e-07 1.15096e-15)
(0.121864 -1.28245e-07 1.17494e-15)
(0.121864 -1.24067e-07 1.12144e-15)
(0.121864 -7.83912e-08 1.17697e-15)
(0.121864 -6.0862e-08 1.1892e-15)
(0.121864 1.60115e-07 1.18231e-15)
(0.121864 5.53161e-07 1.04299e-15)
(0.121864 3.59077e-07 1.04496e-15)
(0.121864 2.34989e-07 1.04983e-15)
(0.121864 1.62596e-07 1.0262e-15)
(0.121864 1.10626e-07 1.00235e-15)
(0.121864 7.46237e-08 1.01186e-15)
(0.121864 4.73939e-08 1.02329e-15)
(0.121864 2.49165e-08 1.02305e-15)
(0.121864 6.30973e-09 1.02433e-15)
(0.121864 -1.02998e-08 1.0464e-15)
(0.121864 -2.30757e-08 1.06667e-15)
(0.121864 -3.20374e-08 1.07931e-15)
(0.121864 -3.41236e-08 1.08741e-15)
(0.121864 -2.04383e-08 1.08732e-15)
(0.121864 5.60775e-10 1.10182e-15)
(0.121864 7.61507e-08 1.11244e-15)
(0.122806 1.08608e-07 1.37204e-15)
(0.122806 7.34877e-08 1.38899e-15)
(0.122807 3.34378e-08 1.32981e-15)
(0.122807 1.55431e-08 1.24563e-15)
(0.122807 3.14288e-09 1.10248e-15)
(0.122807 -1.85411e-09 1.21703e-15)
(0.122807 -2.7652e-09 1.29428e-15)
(0.122807 -1.93055e-09 1.35842e-15)
(0.122807 -4.05246e-10 1.41594e-15)
(0.122807 1.00555e-09 1.46555e-15)
(0.122807 1.9217e-09 1.51911e-15)
(0.122807 2.17784e-09 1.53792e-15)
(0.122807 1.7321e-09 1.55542e-15)
(0.122807 6.34286e-10 1.54417e-15)
(0.122807 -1.01185e-09 1.58057e-15)
(0.122807 -3.08672e-09 1.59571e-15)
(0.122807 -5.49005e-09 1.59085e-15)
(0.122807 -8.16016e-09 1.60946e-15)
(0.122807 -1.10723e-08 1.59947e-15)
(0.122807 -1.42251e-08 1.64952e-15)
(0.122807 -1.76258e-08 1.56819e-15)
(0.122807 -2.1281e-08 1.65522e-15)
(0.122807 -2.5194e-08 1.71498e-15)
(0.122807 -2.93651e-08 1.62932e-15)
(0.122807 -3.37929e-08 1.69138e-15)
(0.122807 -3.8474e-08 1.62837e-15)
(0.122807 -4.34064e-08 1.53889e-15)
(0.122807 -4.85895e-08 1.70399e-15)
(0.122807 -5.4036e-08 1.54365e-15)
(0.122807 -5.9766e-08 1.59057e-15)
(0.122807 -6.58282e-08 1.50914e-15)
(0.122806 -7.22621e-08 1.45002e-15)
(0.122806 -7.91416e-08 1.53702e-15)
(0.122806 -8.64653e-08 1.46393e-15)
(0.122806 -9.42627e-08 1.54436e-15)
(0.122806 -1.02373e-07 1.45788e-15)
(0.122806 -1.10583e-07 1.36348e-15)
(0.122806 -1.18497e-07 1.4198e-15)
(0.122806 -1.24813e-07 1.35529e-15)
(0.122806 -1.29713e-07 1.4009e-15)
(0.122806 -1.26227e-07 1.41241e-15)
(0.122806 -1.22659e-07 1.38341e-15)
(0.122806 -7.99985e-08 1.41411e-15)
(0.122806 -6.25117e-08 1.40418e-15)
(0.122806 1.3842e-07 1.39222e-15)
(0.122806 5.26875e-07 1.26864e-15)
(0.122806 3.57377e-07 1.26197e-15)
(0.122806 2.38924e-07 1.28188e-15)
(0.122806 1.66593e-07 1.21735e-15)
(0.122806 1.13861e-07 1.22348e-15)
(0.122806 7.70739e-08 1.24155e-15)
(0.122806 4.92201e-08 1.25164e-15)
(0.122806 2.6153e-08 1.24833e-15)
(0.122806 6.9739e-09 1.20995e-15)
(0.122806 -1.03458e-08 1.2542e-15)
(0.122806 -2.38405e-08 1.28595e-15)
(0.122806 -3.41339e-08 1.29524e-15)
(0.122806 -3.73485e-08 1.30284e-15)
(0.122806 -2.7165e-08 1.26206e-15)
(0.122806 -8.85774e-09 1.30686e-15)
(0.122806 5.74996e-08 1.32963e-15)
(0.123719 8.54052e-08 1.60079e-15)
(0.123719 5.97093e-08 1.59615e-15)
(0.123719 2.3142e-08 1.56624e-15)
(0.123719 7.38129e-09 1.4967e-15)
(0.123719 -3.5201e-09 1.42636e-15)
(0.123719 -7.55886e-09 1.4582e-15)
(0.123719 -7.68861e-09 1.51668e-15)
(0.123719 -6.17507e-09 1.57161e-15)
(0.123719 -4.01156e-09 1.61877e-15)
(0.123719 -1.9784e-09 1.6572e-15)
(0.123719 -4.51197e-10 1.70436e-15)
(0.123719 4.05891e-10 1.70219e-15)
(0.123719 5.49332e-10 1.72152e-15)
(0.123719 2.52243e-11 1.68896e-15)
(0.123719 -1.06779e-09 1.88002e-15)
(0.123719 -2.61502e-09 1.801e-15)
(0.123719 -4.51935e-09 1.75374e-15)
(0.123719 -6.72014e-09 1.78014e-15)
(0.123719 -9.19229e-09 1.7487e-15)
(0.123719 -1.19336e-08 1.86469e-15)
(0.123719 -1.49508e-08 1.7979e-15)
(0.123719 -1.82499e-08 1.8971e-15)
(0.123719 -2.18343e-08 1.96039e-15)
(0.123719 -2.57038e-08 1.87953e-15)
(0.123719 -2.98573e-08 1.97907e-15)
(0.123719 -3.42916e-08 1.9027e-15)
(0.123719 -3.90058e-08 1.78463e-15)
(0.123719 -4.40004e-08 1.8191e-15)
(0.123719 -4.92902e-08 1.76733e-15)
(0.123719 -5.48967e-08 1.85069e-15)
(0.123719 -6.08707e-08 1.77548e-15)
(0.123719 -6.72527e-08 1.68423e-15)
(0.123719 -7.41196e-08 1.73898e-15)
(0.123719 -8.14717e-08 1.68693e-15)
(0.123719 -8.93477e-08 1.89529e-15)
(0.123719 -9.75866e-08 1.73003e-15)
(0.123719 -1.06007e-07 1.60641e-15)
(0.123719 -1.14192e-07 1.6211e-15)
(0.123719 -1.20962e-07 1.57971e-15)
(0.123719 -1.26338e-07 1.6629e-15)
(0.123719 -1.23931e-07 1.64776e-15)
(0.123719 -1.2104e-07 1.63901e-15)
(0.123719 -8.18764e-08 1.65489e-15)
(0.123719 -6.4519e-08 1.60882e-15)
(0.123719 1.14865e-07 1.60068e-15)
(0.123718 4.95236e-07 1.50289e-15)
(0.123718 3.51086e-07 1.48009e-15)
(0.123718 2.4074e-07 1.52131e-15)
(0.123718 1.6997e-07 1.50685e-15)
(0.123718 1.17045e-07 1.44796e-15)
(0.123718 7.96167e-08 1.48131e-15)
(0.123718 5.11652e-08 1.48131e-15)
(0.123718 2.75081e-08 1.47294e-15)
(0.123718 7.74541e-09 1.48419e-15)
(0.123718 -1.03031e-08 1.4715e-15)
(0.123718 -2.45525e-08 1.51453e-15)
(0.123718 -3.62343e-08 1.51234e-15)
(0.123718 -4.06762e-08 1.52048e-15)
(0.123718 -3.41322e-08 1.53587e-15)
(0.123718 -1.87129e-08 1.52023e-15)
(0.123718 3.77204e-08 1.55649e-15)
(0.124603 6.12623e-08 1.83718e-15)
(0.124603 4.52079e-08 1.79377e-15)
(0.124603 1.25453e-08 1.75788e-15)
(0.124603 -9.92612e-10 1.72155e-15)
(0.124603 -1.0368e-08 1.70967e-15)
(0.124603 -1.34265e-08 1.72022e-15)
(0.124603 -1.27446e-08 1.75694e-15)
(0.124603 -1.05193e-08 1.79945e-15)
(0.124603 -7.68844e-09 1.83618e-15)
(0.124603 -5.0073e-09 1.86396e-15)
(0.124603 -2.84628e-09 1.9046e-15)
(0.124603 -1.36752e-09 1.86194e-15)
(0.124603 -6.1556e-10 1.89489e-15)
(0.124603 -5.47443e-10 1.83194e-15)
(0.124603 -1.06918e-09 1.93682e-15)
(0.124603 -2.07069e-09 1.98523e-15)
(0.124603 -3.45785e-09 1.8973e-15)
(0.124603 -5.17098e-09 1.95393e-15)
(0.124603 -7.1846e-09 1.88808e-15)
(0.124603 -9.49569e-09 2.02004e-15)
(0.124603 -1.21102e-08 1.98801e-15)
(0.124603 -1.50341e-08 2.08365e-15)
(0.124603 -1.82706e-08 2.16619e-15)
(0.124603 -2.18195e-08 2.1139e-15)
(0.124603 -2.56799e-08 2.18602e-15)
(0.124603 -2.98492e-08 2.13397e-15)
(0.124603 -3.43273e-08 2.01209e-15)
(0.124603 -3.91163e-08 2.02909e-15)
(0.124603 -4.42329e-08 1.98334e-15)
(0.124603 -4.97004e-08 2.04976e-15)
(0.124603 -5.55712e-08 1.99304e-15)
(0.124603 -6.18877e-08 1.90606e-15)
(0.124603 -6.87294e-08 1.94602e-15)
(0.124603 -7.6099e-08 1.90333e-15)
(0.124603 -8.40445e-08 2.01294e-15)
(0.124603 -9.24065e-08 1.95203e-15)
(0.124603 -1.01036e-07 1.83263e-15)
(0.124602 -1.09498e-07 1.83146e-15)
(0.124602 -1.16743e-07 1.7936e-15)
(0.124602 -1.22627e-07 1.84753e-15)
(0.124602 -1.21391e-07 1.86878e-15)
(0.124602 -1.19262e-07 1.89476e-15)
(0.124602 -8.40079e-08 1.88059e-15)
(0.124602 -6.70751e-08 1.7985e-15)
(0.124602 9.06282e-08 1.81097e-15)
(0.124602 4.6014e-07 1.75133e-15)
(0.124602 3.403e-07 1.69575e-15)
(0.124602 2.39559e-07 1.77734e-15)
(0.124602 1.71832e-07 1.75546e-15)
(0.124602 1.19554e-07 1.66872e-15)
(0.124602 8.18496e-08 1.73498e-15)
(0.124602 5.2956e-08 1.70673e-15)
(0.124602 2.87818e-08 1.69895e-15)
(0.124602 8.46867e-09 1.73839e-15)
(0.124602 -1.02978e-08 1.68572e-15)
(0.124602 -2.53175e-08 1.76062e-15)
(0.124602 -3.8427e-08 1.7266e-15)
(0.124602 -4.41838e-08 1.74252e-15)
(0.124602 -4.13945e-08 1.78485e-15)
(0.124602 -2.90695e-08 1.73337e-15)
(0.124602 1.72089e-08 1.79912e-15)
(0.125459 3.63929e-08 2.07965e-15)
(0.125459 2.98781e-08 1.95629e-15)
(0.125459 1.47598e-09 1.93811e-15)
(0.125459 -9.67784e-09 1.96187e-15)
(0.125459 -1.74368e-08 1.99816e-15)
(0.125459 -1.94659e-08 1.99191e-15)
(0.125459 -1.79333e-08 2.00886e-15)
(0.125459 -1.49598e-08 2.03953e-15)
(0.125459 -1.14295e-08 2.06526e-15)
(0.125459 -8.0723e-09 2.08304e-15)
(0.125459 -5.2526e-09 2.11704e-15)
(0.125459 -3.12988e-09 2.02954e-15)
(0.125459 -1.74906e-09 2.0786e-15)
(0.125459 -1.06981e-09 1.98957e-15)
(0.125459 -1.00223e-09 2.07075e-15)
(0.125459 -1.44046e-09 2.18712e-15)
(0.125459 -2.29316e-09 2.02989e-15)
(0.125459 -3.50146e-09 2.13746e-15)
(0.125459 -5.03941e-09 2.01525e-15)
(0.125459 -6.90311e-09 2.15822e-15)
(0.125459 -9.09785e-09 2.17317e-15)
(0.125459 -1.16293e-08 2.25935e-15)
(0.125459 -1.45007e-08 2.38927e-15)
(0.125459 -1.77121e-08 2.33561e-15)
(0.125459 -2.12628e-08 2.39516e-15)
(0.125459 -2.51509e-08 2.33999e-15)
(0.125459 -2.93773e-08 2.21763e-15)
(0.125459 -3.39458e-08 2.25186e-15)
(0.125459 -3.88749e-08 2.19371e-15)
(0.125459 -4.41896e-08 2.22949e-15)
(0.125459 -4.99447e-08 2.19154e-15)
(0.125459 -5.61838e-08 2.10883e-15)
(0.125459 -6.29899e-08 2.16778e-15)
(0.125459 -7.03681e-08 2.11203e-15)
(0.125459 -7.83764e-08 2.19884e-15)
(0.125459 -8.68579e-08 2.15668e-15)
(0.125459 -9.56988e-08 2.03682e-15)
(0.125459 -1.04445e-07 2.04856e-15)
(0.125459 -1.12189e-07 1.99823e-15)
(0.125459 -1.18615e-07 2.05025e-15)
(0.125458 -1.18644e-07 2.09669e-15)
(0.125458 -1.17374e-07 2.05594e-15)
(0.125458 -8.63749e-08 2.08995e-15)
(0.125459 -7.03061e-08 1.96737e-15)
(0.125458 6.62982e-08 2.03882e-15)
(0.125458 4.22973e-07 2.02362e-15)
(0.125458 3.2564e-07 2.00155e-15)
(0.125458 2.35098e-07 2.06978e-15)
(0.125458 1.71574e-07 1.99821e-15)
(0.125458 1.20836e-07 1.9757e-15)
(0.125458 8.33591e-08 2.01028e-15)
(0.125458 5.42907e-08 2.01727e-15)
(0.125458 2.97466e-08 2.03596e-15)
(0.125458 8.96401e-09 2.00096e-15)
(0.125458 -1.04765e-08 1.99398e-15)
(0.125458 -2.62594e-08 2.0391e-15)
(0.125458 -4.08156e-08 2.02965e-15)
(0.125458 -4.79621e-08 2.07821e-15)
(0.125458 -4.90161e-08 2.0475e-15)
(0.125458 -3.99984e-08 2.03498e-15)
(0.125458 -3.86831e-09 2.06903e-15)
(0.126288 1.0964e-08 2.29356e-15)
(0.126288 1.37114e-08 2.17987e-15)
(0.126288 -1.01776e-08 2.08231e-15)
(0.126288 -1.8772e-08 2.20805e-15)
(0.126288 -2.47812e-08 2.30071e-15)
(0.126288 -2.5702e-08 2.26235e-15)
(0.126288 -2.32657e-08 2.26674e-15)
(0.126288 -1.95003e-08 2.29034e-15)
(0.126288 -1.52345e-08 2.30337e-15)
(0.126288 -1.11699e-08 2.31205e-15)
(0.126289 -7.66417e-09 2.33533e-15)
(0.126289 -4.87323e-09 2.26652e-15)
(0.126289 -2.84186e-09 2.2886e-15)
(0.126289 -1.53177e-09 2.21972e-15)
(0.126289 -8.56557e-10 2.26314e-15)
(0.126289 -7.14139e-10 2.39492e-15)
(0.126289 -1.01563e-09 2.2987e-15)
(0.126289 -1.70282e-09 2.36133e-15)
(0.126288 -2.74913e-09 2.29144e-15)
(0.126288 -4.14969e-09 2.36393e-15)
(0.126288 -5.90908e-09 2.36052e-15)
(0.126288 -8.0327e-09 2.46082e-15)
(0.126288 -1.05237e-08 2.65229e-15)
(0.126288 -1.33827e-08 2.53791e-15)
(0.126288 -1.66092e-08 2.59766e-15)
(0.126288 -2.0202e-08 2.52673e-15)
(0.126288 -2.41632e-08 2.40125e-15)
(0.126288 -2.84984e-08 2.47773e-15)
(0.126288 -3.32277e-08 2.39159e-15)
(0.126288 -3.83785e-08 2.43683e-15)
(0.126288 -4.40072e-08 2.37416e-15)
(0.126288 -5.01594e-08 2.29587e-15)
(0.126288 -5.69216e-08 2.39631e-15)
(0.126288 -6.43017e-08 2.3036e-15)
(0.126288 -7.23684e-08 2.44166e-15)
(0.126288 -8.09682e-08 2.34385e-15)
(0.126288 -9.00239e-08 2.22149e-15)
(0.126288 -9.90651e-08 2.27737e-15)
(0.126288 -1.07334e-07 2.18706e-15)
(0.126288 -1.14341e-07 2.24032e-15)
(0.126288 -1.15727e-07 2.37095e-15)
(0.126288 -1.15428e-07 2.20523e-15)
(0.126288 -8.89642e-08 2.28672e-15)
(0.126288 -7.42819e-08 2.20088e-15)
(0.126288 4.21582e-08 2.27466e-15)
(0.126287 3.84679e-07 2.34228e-15)
(0.126287 3.07848e-07 2.30381e-15)
(0.126287 2.27477e-07 2.37601e-15)
(0.126287 1.68902e-07 2.22305e-15)
(0.126287 1.20488e-07 2.35138e-15)
(0.126287 8.37843e-08 2.28898e-15)
(0.126287 5.48785e-08 2.32205e-15)
(0.126287 3.01709e-08 2.3584e-15)
(0.126287 9.04307e-09 2.25655e-15)
(0.126287 -1.0996e-08 2.28793e-15)
(0.126287 -2.7512e-08 2.35047e-15)
(0.126287 -4.35132e-08 2.33179e-15)
(0.126287 -5.21103e-08 2.39503e-15)
(0.126287 -5.70677e-08 2.30082e-15)
(0.126288 -5.15698e-08 2.37402e-15)
(0.126288 -2.54354e-08 2.38212e-15)
(0.127091 -1.49059e-08 2.58146e-15)
(0.127091 -3.26081e-09 2.44278e-15)
(0.127091 -2.24732e-08 2.40431e-15)
(0.127091 -2.83533e-08 2.44577e-15)
(0.127091 -3.24602e-08 2.52752e-15)
(0.127091 -3.21699e-08 2.51652e-15)
(0.127091 -2.87613e-08 2.52848e-15)
(0.127091 -2.41515e-08 2.55356e-15)
(0.127091 -1.91083e-08 2.54821e-15)
(0.127091 -1.43014e-08 2.54911e-15)
(0.127091 -1.00793e-08 2.55747e-15)
(0.127091 -6.59373e-09 2.50071e-15)
(0.127092 -3.88848e-09 2.50548e-15)
(0.127092 -1.92674e-09 2.45901e-15)
(0.127092 -6.2503e-10 2.49011e-15)
(0.127092 1.15498e-10 2.55637e-15)
(0.127092 3.81653e-10 2.53874e-15)
(0.127091 2.31223e-10 2.60346e-15)
(0.127091 -3.08435e-10 2.55363e-15)
(0.127091 -1.23133e-09 2.602e-15)
(0.127091 -2.54123e-09 2.55023e-15)
(0.127091 -4.24323e-09 2.60877e-15)
(0.127091 -6.34056e-09 2.75651e-15)
(0.127091 -8.83404e-09 2.69873e-15)
(0.127091 -1.17238e-08 2.72597e-15)
(0.127091 -1.50093e-08 2.67883e-15)
(0.127091 -1.86941e-08 2.56584e-15)
(0.127091 -2.27852e-08 2.63283e-15)
(0.127091 -2.73049e-08 2.55585e-15)
(0.127091 -3.22824e-08 2.5765e-15)
(0.127091 -3.77764e-08 2.53814e-15)
(0.127091 -4.38345e-08 2.47555e-15)
(0.127091 -5.05467e-08 2.55531e-15)
(0.127091 -5.79244e-08 2.45645e-15)
(0.127091 -6.60474e-08 2.52674e-15)
(0.127091 -7.47669e-08 2.49465e-15)
(0.127091 -8.40438e-08 2.39343e-15)
(0.127091 -9.33939e-08 2.43412e-15)
(0.127091 -1.02215e-07 2.34477e-15)
(0.127091 -1.09846e-07 2.36951e-15)
(0.127091 -1.12676e-07 2.46759e-15)
(0.127091 -1.13472e-07 2.31293e-15)
(0.127091 -9.17692e-08 2.40887e-15)
(0.127091 -7.90302e-08 2.40135e-15)
(0.127091 1.83285e-08 2.45454e-15)
(0.12709 3.45871e-07 2.46467e-15)
(0.12709 2.87618e-07 2.51538e-15)
(0.12709 2.17042e-07 2.50961e-15)
(0.12709 1.63789e-07 2.39276e-15)
(0.12709 1.18292e-07 2.47983e-15)
(0.12709 8.28609e-08 2.45857e-15)
(0.12709 5.4474e-08 2.53369e-15)
(0.12709 2.98434e-08 2.59259e-15)
(0.12709 8.52608e-09 2.47792e-15)
(0.12709 -1.20101e-08 2.51623e-15)
(0.12709 -2.92094e-08 2.48353e-15)
(0.12709 -4.66349e-08 2.5378e-15)
(0.12709 -5.67301e-08 2.62543e-15)
(0.12709 -6.56224e-08 2.5146e-15)
(0.127091 -6.38489e-08 2.54953e-15)
(0.127091 -4.74627e-08 2.50584e-15)
(0.127868 -4.11354e-08 2.85555e-15)
(0.127868 -2.0992e-08 2.75074e-15)
(0.127869 -3.54291e-08 2.69654e-15)
(0.127869 -3.84742e-08 2.69558e-15)
(0.127869 -4.05269e-08 2.76404e-15)
(0.127869 -3.89078e-08 2.76912e-15)
(0.127869 -3.44447e-08 2.79397e-15)
(0.127869 -2.89286e-08 2.82744e-15)
(0.127869 -2.30603e-08 2.79629e-15)
(0.127869 -1.74717e-08 2.79322e-15)
(0.127869 -1.24999e-08 2.76628e-15)
(0.127869 -8.29089e-09 2.71098e-15)
(0.127869 -4.88671e-09 2.70465e-15)
(0.127869 -2.25129e-09 2.68238e-15)
(0.127869 -3.03515e-10 2.68997e-15)
(0.127869 1.05286e-09 2.80053e-15)
(0.127869 1.90296e-09 2.7688e-15)
(0.127869 2.30447e-09 2.80848e-15)
(0.127869 2.28568e-09 2.79482e-15)
(0.127869 1.8539e-09 2.80809e-15)
(0.127869 1.0063e-09 2.83752e-15)
(0.127869 -2.61817e-10 2.8235e-15)
(0.127869 -1.95371e-09 2.91329e-15)
(0.127869 -4.07052e-09 2.94139e-15)
(0.127869 -6.61288e-09 2.92563e-15)
(0.127869 -9.58122e-09 2.88914e-15)
(0.127869 -1.29803e-08 2.8015e-15)
(0.127869 -1.68189e-08 2.79901e-15)
(0.127869 -2.11213e-08 2.76209e-15)
(0.127868 -2.59186e-08 2.77506e-15)
(0.127868 -3.12718e-08 2.75069e-15)
(0.127868 -3.72308e-08 2.74677e-15)
(0.127868 -4.38893e-08 2.72783e-15)
(0.127868 -5.12628e-08 2.66764e-15)
(0.127868 -5.94425e-08 2.80007e-15)
(0.127868 -6.82855e-08 2.75049e-15)
(0.127868 -7.77926e-08 2.62397e-15)
(0.127868 -8.74681e-08 2.61676e-15)
(0.127868 -9.68705e-08 2.56506e-15)
(0.127868 -1.05173e-07 2.60499e-15)
(0.127868 -1.09532e-07 2.62768e-15)
(0.127868 -1.11557e-07 2.49458e-15)
(0.127868 -9.47895e-08 2.55424e-15)
(0.127868 -8.455e-08 2.59342e-15)
(0.127868 -5.15026e-09 2.62889e-15)
(0.127867 3.06945e-07 2.70955e-15)
(0.127867 2.6553e-07 2.74965e-15)
(0.127868 2.04224e-07 2.72721e-15)
(0.127868 1.56385e-07 2.5165e-15)
(0.127868 1.14192e-07 2.706e-15)
(0.127868 8.04398e-08 2.70996e-15)
(0.127868 5.29023e-08 2.7709e-15)
(0.127868 2.85946e-08 2.8173e-15)
(0.127868 7.25805e-09 2.6708e-15)
(0.127868 -1.36577e-08 2.75051e-15)
(0.127868 -3.14763e-08 2.72536e-15)
(0.127868 -5.02895e-08 2.7739e-15)
(0.127868 -6.19186e-08 2.84183e-15)
(0.127868 -7.47508e-08 2.65911e-15)
(0.127868 -7.68922e-08 2.78445e-15)
(0.127868 -6.99451e-08 2.74901e-15)
(0.128621 -6.76673e-08 3.06112e-15)
(0.128621 -3.94325e-08 3.00903e-15)
(0.128621 -4.90381e-08 2.98498e-15)
(0.128621 -4.91621e-08 2.90887e-15)
(0.128621 -4.90209e-08 3.02963e-15)
(0.128621 -4.59504e-08 3.02687e-15)
(0.128621 -4.03415e-08 3.06398e-15)
(0.128621 -3.3849e-08 3.01996e-15)
(0.128621 -2.71016e-08 3.03452e-15)
(0.128621 -2.06879e-08 3.04273e-15)
(0.128621 -1.49302e-08 2.96053e-15)
(0.128621 -9.96675e-09 2.90021e-15)
(0.128621 -5.83689e-09 2.90343e-15)
(0.128621 -2.50462e-09 2.89473e-15)
(0.128621 1.09567e-10 2.90955e-15)
(0.128621 2.09984e-09 2.98103e-15)
(0.128621 3.55015e-09 2.97877e-15)
(0.128621 4.51835e-09 3.03093e-15)
(0.128621 5.03396e-09 3.01585e-15)
(0.128621 5.10575e-09 3.03607e-15)
(0.128621 4.73203e-09 3.0164e-15)
(0.128621 3.90861e-09 3.04791e-15)
(0.128621 2.63228e-09 3.07934e-15)
(0.128621 9.01568e-10 3.09378e-15)
(0.128621 -1.28473e-09 3.1171e-15)
(0.128621 -3.92795e-09 3.0872e-15)
(0.128621 -7.03421e-09 3.00524e-15)
(0.128621 -1.0614e-08 2.9734e-15)
(0.128621 -1.46934e-08 2.9589e-15)
(0.128621 -1.9306e-08 2.98732e-15)
(0.128621 -2.45147e-08 2.9494e-15)
(0.128621 -3.03719e-08 2.91615e-15)
(0.128621 -3.69754e-08 2.89762e-15)
(0.128621 -4.43453e-08 2.86163e-15)
(0.128621 -5.25846e-08 2.9159e-15)
(0.128621 -6.15577e-08 2.89955e-15)
(0.128621 -7.13062e-08 2.83982e-15)
(0.128621 -8.13265e-08 2.80081e-15)
(0.12862 -9.13421e-08 2.7705e-15)
(0.12862 -1.00366e-07 2.77348e-15)
(0.12862 -1.06336e-07 2.79709e-15)
(0.12862 -1.09729e-07 2.72849e-15)
(0.12862 -9.80291e-08 2.74088e-15)
(0.12862 -9.0822e-08 2.78832e-15)
(0.12862 -2.82706e-08 2.81942e-15)
(0.12862 2.68164e-07 2.94368e-15)
(0.12862 2.42043e-07 2.90658e-15)
(0.12862 1.89456e-07 2.93272e-15)
(0.12862 1.46946e-07 2.86272e-15)
(0.12862 1.08266e-07 2.90431e-15)
(0.12862 7.64831e-08 2.94896e-15)
(0.12862 5.00689e-08 2.93289e-15)
(0.12862 2.63098e-08 2.95387e-15)
(0.12862 5.12159e-09 2.9213e-15)
(0.12862 -1.60513e-08 2.93613e-15)
(0.12862 -3.44185e-08 2.96416e-15)
(0.12862 -5.45718e-08 2.93798e-15)
(0.12862 -6.77619e-08 2.97205e-15)
(0.12862 -8.45151e-08 2.94439e-15)
(0.12862 -9.07437e-08 2.96763e-15)
(0.12862 -9.28847e-08 2.98344e-15)
(0.129349 -9.44551e-08 3.27974e-15)
(0.129349 -5.85328e-08 3.24141e-15)
(0.129349 -6.3277e-08 3.21147e-15)
(0.129349 -6.04226e-08 3.21263e-15)
(0.129349 -5.79656e-08 3.20791e-15)
(0.129349 -5.33235e-08 3.2921e-15)
(0.129349 -4.64737e-08 3.25364e-15)
(0.129349 -3.89292e-08 3.19585e-15)
(0.129349 -3.1244e-08 3.26416e-15)
(0.129349 -2.39582e-08 3.25181e-15)
(0.129349 -1.73755e-08 3.11094e-15)
(0.129349 -1.16247e-08 3.07653e-15)
(0.129349 -6.74105e-09 3.08685e-15)
(0.129349 -2.68773e-09 3.10507e-15)
(0.129349 6.13805e-10 3.09457e-15)
(0.129349 3.25629e-09 3.16873e-15)
(0.129349 5.32298e-09 3.1894e-15)
(0.129349 6.87225e-09 3.22027e-15)
(0.129349 7.93509e-09 3.23493e-15)
(0.129349 8.52197e-09 3.22525e-15)
(0.129349 8.63251e-09 3.20496e-15)
(0.129349 8.26322e-09 3.23198e-15)
(0.129349 7.41099e-09 3.25762e-15)
(0.129349 6.07408e-09 3.26355e-15)
(0.129349 4.25072e-09 3.29606e-15)
(0.129349 1.9386e-09 3.25553e-15)
(0.129349 -8.697e-10 3.18719e-15)
(0.129349 -4.18639e-09 3.14865e-15)
(0.129349 -8.03966e-09 3.13e-15)
(0.129349 -1.2465e-08 3.16998e-15)
(0.129349 -1.75277e-08 3.10764e-15)
(0.129349 -2.3283e-08 3.08226e-15)
(0.129349 -2.98327e-08 3.06904e-15)
(0.129349 -3.7202e-08 3.04632e-15)
(0.129349 -4.55063e-08 3.10504e-15)
(0.129349 -5.46185e-08 3.06653e-15)
(0.129349 -6.46225e-08 3.02135e-15)
(0.129348 -7.50098e-08 2.98796e-15)
(0.129348 -8.56719e-08 2.96755e-15)
(0.129348 -9.54705e-08 2.96915e-15)
(0.129348 -1.03128e-07 2.97717e-15)
(0.129348 -1.08034e-07 2.96347e-15)
(0.129348 -1.01495e-07 2.93813e-15)
(0.129348 -9.78158e-08 2.99716e-15)
(0.129348 -5.10358e-08 3.01682e-15)
(0.129347 2.29722e-07 3.18819e-15)
(0.129348 2.17522e-07 3.05656e-15)
(0.129348 1.7313e-07 3.15255e-15)
(0.129348 1.35768e-07 3.15891e-15)
(0.129348 1.00677e-07 3.12067e-15)
(0.129348 7.10459e-08 3.20025e-15)
(0.129348 4.59586e-08 3.08848e-15)
(0.129348 2.29354e-08 3.10107e-15)
(0.129348 2.04481e-09 3.17066e-15)
(0.129348 -1.92694e-08 3.13957e-15)
(0.129348 -3.81158e-08 3.21464e-15)
(0.129348 -5.95564e-08 3.09544e-15)
(0.129348 -7.43289e-08 3.11534e-15)
(0.129348 -9.49641e-08 3.18956e-15)
(0.129348 -1.05432e-07 3.16978e-15)
(0.129348 -1.1628e-07 3.23018e-15)
(0.130053 -1.21454e-07 3.50829e-15)
(0.130053 -7.82419e-08 3.46347e-15)
(0.130053 -7.81113e-08 3.44463e-15)
(0.130053 -7.22428e-08 3.47815e-15)
(0.130053 -6.73673e-08 3.4026e-15)
(0.130053 -6.10412e-08 3.59727e-15)
(0.130053 -5.28559e-08 3.33911e-15)
(0.130053 -4.41815e-08 3.36192e-15)
(0.130053 -3.54967e-08 3.42107e-15)
(0.130053 -2.72892e-08 3.23383e-15)
(0.130053 -1.98408e-08 3.24012e-15)
(0.130053 -1.32684e-08 3.25064e-15)
(0.130053 -7.60185e-09 3.27728e-15)
(0.130053 -2.80265e-09 3.3233e-15)
(0.130053 1.20752e-09 3.28556e-15)
(0.130053 4.5206e-09 3.39233e-15)
(0.130053 7.21962e-09 3.40297e-15)
(0.130053 9.36386e-09 3.42359e-15)
(0.130053 1.0986e-08 3.46232e-15)
(0.130053 1.20985e-08 3.41931e-15)
(0.130053 1.27025e-08 3.41733e-15)
(0.130053 1.27954e-08 3.46424e-15)
(0.130053 1.23742e-08 3.439e-15)
(0.130053 1.14371e-08 3.43759e-15)
(0.130053 9.98176e-09 3.50184e-15)
(0.130053 8.00483e-09 3.42258e-15)
(0.130053 5.4976e-09 3.36297e-15)
(0.130053 2.4461e-09 3.32446e-15)
(0.130053 -1.1798e-09 3.30412e-15)
(0.130053 -5.41773e-09 3.36666e-15)
(0.130053 -1.03354e-08 3.28799e-15)
(0.130053 -1.59908e-08 3.25229e-15)
(0.130053 -2.24903e-08 3.2436e-15)
(0.130053 -2.98645e-08 3.22913e-15)
(0.130053 -3.82419e-08 3.26474e-15)
(0.130053 -4.75049e-08 3.24726e-15)
(0.130053 -5.77809e-08 3.20129e-15)
(0.130053 -6.85598e-08 3.17686e-15)
(0.130052 -7.99033e-08 3.16256e-15)
(0.130052 -9.05332e-08 3.19985e-15)
(0.130052 -9.99504e-08 3.16009e-15)
(0.130052 -1.06514e-07 3.18877e-15)
(0.130052 -1.05197e-07 3.13119e-15)
(0.130052 -1.05494e-07 3.22087e-15)
(0.130052 -7.34502e-08 3.21407e-15)
(0.130051 1.91776e-07 3.36337e-15)
(0.130052 1.92256e-07 3.26062e-15)
(0.130052 1.55591e-07 3.32779e-15)
(0.130052 1.23155e-07 3.42636e-15)
(0.130052 9.16373e-08 3.32529e-15)
(0.130052 6.42515e-08 3.38399e-15)
(0.130052 4.06237e-08 3.29642e-15)
(0.130052 1.84764e-08 3.26951e-15)
(0.130052 -1.9963e-09 3.41679e-15)
(0.130052 -2.33521e-08 3.34013e-15)
(0.130052 -4.26168e-08 3.39593e-15)
(0.130052 -6.52925e-08 3.30306e-15)
(0.130052 -8.1667e-08 3.28068e-15)
(0.130052 -1.06129e-07 3.47458e-15)
(0.130052 -1.20967e-07 3.36917e-15)
(0.130052 -1.40118e-07 3.41155e-15)
(0.130733 -1.48612e-07 3.67518e-15)
(0.130733 -9.85037e-08 3.67196e-15)
(0.130734 -9.34972e-08 3.63151e-15)
(0.130734 -8.45944e-08 3.67513e-15)
(0.130734 -7.72159e-08 3.52867e-15)
(0.130734 -6.91037e-08 3.70789e-15)
(0.130734 -5.9493e-08 3.51783e-15)
(0.130734 -4.96116e-08 3.56291e-15)
(0.130734 -3.98649e-08 3.56474e-15)
(0.130734 -3.06851e-08 3.3912e-15)
(0.130734 -2.23292e-08 3.39338e-15)
(0.130734 -1.49004e-08 3.43277e-15)
(0.130734 -8.42153e-09 3.47519e-15)
(0.130734 -2.85148e-09 3.55698e-15)
(0.130734 1.88856e-09 3.56916e-15)
(0.130734 5.89035e-09 3.5676e-15)
(0.130734 9.23721e-09 3.60833e-15)
(0.130734 1.19896e-08 3.63804e-15)
(0.130734 1.41824e-08 3.70304e-15)
(0.130734 1.58299e-08 3.69665e-15)
(0.130734 1.69353e-08 3.6394e-15)
(0.130734 1.74969e-08 3.62681e-15)
(0.130734 1.75123e-08 3.61653e-15)
(0.130734 1.69793e-08 3.61691e-15)
(0.130734 1.58951e-08 3.63108e-15)
(0.130734 1.42556e-08 3.58095e-15)
(0.130734 1.20505e-08 3.54096e-15)
(0.130734 9.26431e-09 3.5023e-15)
(0.130734 5.86483e-09 3.48738e-15)
(0.130733 1.81225e-09 3.51232e-15)
(0.130733 -2.96355e-09 3.44368e-15)
(0.130733 -8.52358e-09 3.43512e-15)
(0.130733 -1.49787e-08 3.42213e-15)
(0.130733 -2.23659e-08 3.41785e-15)