/*--------------------------------*- C++ -*----------------------------------*\
  =========                 |
  \\      /  F ield         | OpenFOAM: The Open Source CFD Toolbox
   \\    /   O peration     | Website:  https://openfoam.org
    \\  /    A nd           | Version:  7
     \\/     M anipulation  |
\*---------------------------------------------------------------------------*/
FoamFile
{
    version     2.0;
    format      ascii;
    class       volScalarField;
    location    "17500";
    object      nut;
}
// * * * * * * * * * * * * * * * * * * * * * * * * * * * * * * * * * * * * * //

dimensions      [0 2 -1 0 0 0 0];

internalField   nonuniform List<scalar> 
3963
(
0.0012845
0.00128477
0.00128483
0.00128485
0.00128485
0.00128485
0.00128485
0.00128485
0.00128485
0.00128485
0.00128484
0.00128483
0.00128482
0.00128482
0.0012848
0.00128479
0.00128478
0.00128477
0.00128475
0.00128474
0.00128472
0.00128379
0.0012837
0.00128362
0.00128357
0.00128354
0.00128352
0.0012835
0.00128348
0.00128347
0.00128345
0.00128344
0.00128343
0.00128341
0.0012834
0.00128339
0.00128331
0.00122997
0.00123022
0.00123028
0.0012303
0.0012303
0.0012303
0.0012303
0.0012303
0.00123029
0.00123028
0.00123027
0.00123026
0.00123025
0.00123024
0.00123023
0.00123022
0.0012302
0.00123019
0.00123017
0.00123016
0.00123008
0.0012309
0.0012312
0.00123057
0.00123048
0.00123039
0.00123036
0.00122994
0.0012297
0.00122955
0.00122944
0.00122937
0.00122931
0.00122926
0.00122922
0.00122919
0.00122916
0.00122913
0.0012291
0.00122907
0.00122904
0.00122903
0.00122894
0.00117772
0.00117793
0.00117799
0.00117801
0.00117801
0.00117801
0.001178
0.001178
0.00117799
0.00117798
0.00117797
0.00117796
0.00117794
0.00117793
0.00117792
0.0011779
0.00117789
0.00117787
0.00117785
0.00117784
0.00117778
0.00117809
0.00117831
0.00117923
0.00117959
0.00117969
0.00117972
0.00117974
0.00117976
0.00117976
0.00117976
0.00117976
0.00117976
0.00117975
0.00117975
0.00117974
0.00117973
0.00117972
0.0011797
0.00117969
0.00117968
0.00117967
0.00117965
0.00117964
0.00117962
0.00117961
0.00117959
0.00117958
0.00117956
0.00117955
0.00117953
0.00117952
0.0011795
0.00117949
0.00117947
0.00117946
0.00117944
0.00117943
0.00117941
0.0011794
0.00117939
0.00117937
0.00117936
0.00117934
0.00117933
0.00117932
0.0011793
0.00117929
0.00117928
0.00117927
0.00117926
0.00117924
0.00117923
0.00117922
0.00117921
0.0011792
0.00117919
0.00117917
0.00117916
0.00117915
0.00117914
0.00117913
0.00117912
0.00117911
0.0011791
0.00117909
0.00117907
0.00117906
0.00117905
0.00117904
0.00117903
0.00117902
0.00117901
0.001179
0.00117899
0.00117898
0.00117897
0.00117896
0.00117895
0.00117896
0.0011786
0.00117839
0.00117826
0.00117819
0.00117798
0.00117777
0.00117761
0.00117748
0.00117738
0.0011773
0.00117723
0.00117718
0.00117712
0.00117708
0.00117704
0.001177
0.00117696
0.00117693
0.00117691
0.00117681
0.00112768
0.00112786
0.00112791
0.00112792
0.00112792
0.00112792
0.00112791
0.0011279
0.00112789
0.00112788
0.00112787
0.00112786
0.00112784
0.00112783
0.00112782
0.0011278
0.00112778
0.00112777
0.00112775
0.00112774
0.00112769
0.0011278
0.00112792
0.00112836
0.00112872
0.00112892
0.00112903
0.0011291
0.00112915
0.00112918
0.00112921
0.00112923
0.00112924
0.00112925
0.00112925
0.00112926
0.00112926
0.00112926
0.00112926
0.00112925
0.00112925
0.00112924
0.00112923
0.00112922
0.00112922
0.00112921
0.0011292
0.00112919
0.00112918
0.00112916
0.00112915
0.00112914
0.00112913
0.00112912
0.00112911
0.0011291
0.00112909
0.00112907
0.00112906
0.00112905
0.00112904
0.00112903
0.00112902
0.00112901
0.001129
0.00112899
0.00112898
0.00112897
0.00112896
0.00112895
0.00112894
0.00112893
0.00112892
0.00112891
0.0011289
0.00112889
0.00112888
0.00112887
0.00112886
0.00112885
0.00112884
0.00112883
0.00112882
0.00112881
0.0011288
0.00112879
0.00112879
0.00112878
0.00112877
0.00112876
0.00112875
0.00112874
0.00112873
0.00112872
0.00112871
0.0011287
0.00112869
0.00112869
0.00112868
0.00112868
0.00112854
0.00112838
0.00112825
0.00112817
0.00112804
0.00112789
0.00112775
0.00112762
0.00112752
0.00112743
0.00112735
0.00112728
0.00112722
0.00112717
0.00112712
0.00112708
0.00112704
0.00112699
0.00112697
0.00112687
0.00107978
0.00107994
0.00107997
0.00107998
0.00107998
0.00107997
0.00107997
0.00107996
0.00107995
0.00107994
0.00107992
0.00107991
0.0010799
0.00107988
0.00107987
0.00107985
0.00107984
0.00107982
0.0010798
0.00107979
0.00107976
0.00107978
0.00107983
0.00108004
0.00108028
0.00108048
0.00108062
0.00108071
0.00108078
0.00108083
0.00108087
0.0010809
0.00108093
0.00108095
0.00108096
0.00108097
0.00108098
0.00108099
0.00108099
0.001081
0.001081
0.001081
0.00108099
0.00108099
0.00108099
0.00108098
0.00108098
0.00108097
0.00108097
0.00108096
0.00108095
0.00108094
0.00108094
0.00108093
0.00108092
0.00108091
0.0010809
0.00108089
0.00108088
0.00108088
0.00108087
0.00108086
0.00108085
0.00108084
0.00108083
0.00108082
0.00108082
0.00108081
0.0010808
0.00108079
0.00108079
0.00108078
0.00108077
0.00108076
0.00108075
0.00108075
0.00108074
0.00108073
0.00108072
0.00108071
0.00108071
0.0010807
0.00108069
0.00108068
0.00108068
0.00108067
0.00108066
0.00108065
0.00108064
0.00108064
0.00108063
0.00108062
0.00108061
0.00108061
0.0010806
0.00108059
0.00108058
0.00108057
0.00108056
0.00108057
0.00108051
0.00108042
0.00108032
0.00108024
0.00108015
0.00108004
0.00107993
0.00107982
0.00107973
0.00107964
0.00107956
0.00107949
0.00107943
0.00107937
0.00107932
0.00107927
0.00107923
0.00107919
0.00107916
0.00107905
0.00103396
0.00103409
0.00103412
0.00103413
0.00103412
0.00103412
0.00103411
0.0010341
0.00103409
0.00103408
0.00103406
0.00103405
0.00103404
0.00103402
0.00103401
0.00103399
0.00103398
0.00103396
0.00103394
0.00103393
0.0010339
0.0010339
0.00103392
0.001034
0.00103414
0.00103429
0.00103441
0.00103451
0.00103458
0.00103464
0.00103469
0.00103473
0.00103476
0.00103478
0.00103481
0.00103482
0.00103484
0.00103485
0.00103486
0.00103487
0.00103487
0.00103487
0.00103488
0.00103488
0.00103488
0.00103488
0.00103487
0.00103487
0.00103487
0.00103486
0.00103486
0.00103485
0.00103485
0.00103484
0.00103484
0.00103483
0.00103483
0.00103482
0.00103481
0.00103481
0.0010348
0.00103479
0.00103479
0.00103478
0.00103477
0.00103477
0.00103476
0.00103475
0.00103475
0.00103474
0.00103474
0.00103473
0.00103472
0.00103472
0.00103471
0.0010347
0.0010347
0.00103469
0.00103468
0.00103468
0.00103467
0.00103467
0.00103466
0.00103465
0.00103465
0.00103464
0.00103463
0.00103463
0.00103462
0.00103461
0.00103461
0.0010346
0.00103459
0.00103459
0.00103458
0.00103457
0.00103457
0.00103456
0.00103455
0.00103455
0.00103453
0.00103448
0.00103441
0.00103435
0.00103428
0.00103421
0.00103413
0.00103404
0.00103396
0.00103388
0.00103381
0.00103374
0.00103368
0.00103363
0.00103358
0.00103353
0.00103348
0.00103344
0.00103341
0.00103331
0.000990142
0.000990259
0.000990281
0.000990282
0.000990277
0.00099027
0.000990262
0.000990252
0.000990242
0.00099023
0.000990218
0.000990205
0.000990191
0.000990177
0.000990162
0.000990148
0.000990133
0.000990117
0.000990101
0.000990086
0.000990067
0.000990054
0.000990051
0.000990081
0.000990151
0.000990242
0.000990333
0.000990414
0.000990483
0.00099054
0.000990588
0.000990627
0.000990661
0.00099069
0.000990714
0.000990734
0.000990752
0.000990766
0.000990779
0.000990788
0.000990796
0.000990802
0.000990807
0.000990811
0.000990814
0.000990815
0.000990815
0.000990815
0.000990813
0.000990811
0.000990809
0.000990806
0.000990804
0.0009908
0.000990797
0.000990793
0.000990788
0.000990784
0.00099078
0.000990775
0.00099077
0.000990765
0.000990761
0.000990756
0.000990751
0.000990746
0.00099074
0.000990736
0.000990731
0.000990727
0.000990722
0.000990717
0.000990711
0.000990706
0.000990701
0.000990696
0.000990691
0.000990686
0.000990681
0.000990675
0.00099067
0.000990665
0.00099066
0.000990654
0.000990649
0.000990643
0.000990638
0.000990633
0.000990627
0.000990622
0.000990616
0.000990611
0.000990605
0.000990599
0.000990593
0.000990588
0.000990582
0.000990576
0.00099057
0.000990567
0.000990556
0.00099053
0.000990491
0.000990446
0.000990398
0.000990345
0.000990284
0.000990219
0.000990153
0.000990088
0.000990026
0.000989968
0.000989914
0.000989863
0.000989814
0.000989769
0.000989726
0.000989684
0.000989655
0.000989559
0.000948252
0.000948355
0.000948372
0.000948371
0.000948366
0.000948359
0.00094835
0.000948341
0.000948331
0.00094832
0.000948308
0.000948296
0.000948283
0.000948269
0.000948255
0.000948241
0.000948227
0.000948213
0.000948198
0.000948183
0.000948166
0.000948151
0.000948141
0.000948146
0.000948175
0.000948224
0.000948282
0.000948342
0.000948397
0.000948446
0.000948488
0.000948525
0.000948557
0.000948585
0.000948609
0.00094863
0.000948648
0.000948664
0.000948677
0.000948689
0.000948698
0.000948706
0.000948712
0.000948718
0.000948722
0.000948724
0.000948726
0.000948727
0.000948728
0.000948728
0.000948727
0.000948726
0.000948725
0.000948723
0.000948721
0.000948718
0.000948715
0.000948712
0.00094871
0.000948707
0.000948703
0.0009487
0.000948696
0.000948693
0.000948689
0.000948685
0.000948681
0.000948678
0.000948674
0.000948671
0.000948667
0.000948663
0.000948659
0.000948655
0.000948651
0.000948647
0.000948643
0.000948639
0.000948635
0.000948631
0.000948626
0.000948622
0.000948618
0.000948614
0.000948609
0.000948604
0.0009486
0.000948595
0.000948591
0.000948586
0.000948582
0.000948577
0.000948572
0.000948567
0.000948562
0.000948558
0.000948553
0.000948548
0.000948542
0.000948539
0.000948532
0.000948519
0.000948496
0.000948467
0.000948433
0.000948396
0.000948353
0.000948305
0.000948254
0.000948203
0.000948152
0.000948103
0.000948055
0.00094801
0.000947967
0.000947925
0.000947886
0.000947847
0.00094782
0.00094773
0.000908211
0.000908303
0.000908318
0.000908316
0.00090831
0.000908303
0.000908295
0.000908287
0.000908277
0.000908267
0.000908256
0.000908245
0.000908232
0.00090822
0.000908207
0.000908194
0.000908181
0.000908167
0.000908153
0.000908139
0.000908124
0.00090811
0.000908097
0.000908091
0.000908098
0.00090812
0.000908152
0.00090819
0.00090823
0.000908268
0.000908302
0.000908333
0.000908361
0.000908386
0.000908408
0.000908427
0.000908445
0.00090846
0.000908473
0.000908485
0.000908495
0.000908503
0.00090851
0.000908516
0.000908521
0.000908524
0.000908527
0.00090853
0.000908531
0.000908532
0.000908532
0.000908532
0.000908532
0.000908531
0.000908531
0.000908529
0.000908527
0.000908525
0.000908524
0.000908522
0.000908519
0.000908517
0.000908515
0.000908512
0.000908509
0.000908507
0.000908504
0.000908501
0.000908499
0.000908496
0.000908494
0.000908491
0.000908488
0.000908485
0.000908482
0.000908478
0.000908475
0.000908472
0.000908468
0.000908465
0.000908462
0.000908458
0.000908455
0.000908451
0.000908448
0.000908444
0.00090844
0.000908436
0.000908433
0.000908429
0.000908425
0.000908421
0.000908417
0.000908413
0.000908409
0.000908405
0.0009084
0.000908396
0.000908392
0.000908388
0.000908384
0.000908376
0.000908363
0.000908344
0.000908322
0.000908296
0.000908266
0.000908232
0.000908194
0.000908155
0.000908114
0.000908074
0.000908035
0.000907996
0.000907959
0.000907922
0.000907887
0.000907852
0.000907829
0.000907745
0.000869942
0.000870023
0.000870037
0.000870035
0.000870029
0.000870023
0.000870016
0.000870008
0.00087
0.00086999
0.000869981
0.00086997
0.000869959
0.000869948
0.000869936
0.000869924
0.000869912
0.0008699
0.000869887
0.000869874
0.000869861
0.000869847
0.000869834
0.000869824
0.00086982
0.000869826
0.00086984
0.000869861
0.000869886
0.000869913
0.000869938
0.000869962
0.000869985
0.000870005
0.000870024
0.000870041
0.000870056
0.00087007
0.000870082
0.000870093
0.000870102
0.00087011
0.000870117
0.000870123
0.000870128
0.000870132
0.000870135
0.000870138
0.00087014
0.000870141
0.000870143
0.000870143
0.000870143
0.000870144
0.000870143
0.000870143
0.000870142
0.000870141
0.00087014
0.000870139
0.000870137
0.000870136
0.000870134
0.000870132
0.000870131
0.000870129
0.000870127
0.000870125
0.000870123
0.000870121
0.000870119
0.000870117
0.000870115
0.000870113
0.00087011
0.000870108
0.000870105
0.000870103
0.0008701
0.000870098
0.000870095
0.000870092
0.000870089
0.000870086
0.000870083
0.00087008
0.000870077
0.000870074
0.000870071
0.000870068
0.000870065
0.000870061
0.000870058
0.000870054
0.000870051
0.000870048
0.000870044
0.000870041
0.000870037
0.000870033
0.00087003
0.000870025
0.000870017
0.000870006
0.000869991
0.000869973
0.000869952
0.000869928
0.000869901
0.000869872
0.000869841
0.000869809
0.000869777
0.000869746
0.000869714
0.000869683
0.000869653
0.000869622
0.000869602
0.000869525
0.000833365
0.000833437
0.000833449
0.000833448
0.000833443
0.000833438
0.000833432
0.000833425
0.000833418
0.000833409
0.000833401
0.000833392
0.000833382
0.000833372
0.000833361
0.00083335
0.000833339
0.000833328
0.000833317
0.000833305
0.000833293
0.000833281
0.000833269
0.000833257
0.000833249
0.000833246
0.000833249
0.000833258
0.000833272
0.000833288
0.000833305
0.000833322
0.000833338
0.000833354
0.000833369
0.000833382
0.000833395
0.000833407
0.000833417
0.000833426
0.000833434
0.000833441
0.000833448
0.000833453
0.000833458
0.000833462
0.000833465
0.000833468
0.00083347
0.000833472
0.000833474
0.000833475
0.000833475
0.000833476
0.000833476
0.000833476
0.000833476
0.000833475
0.000833475
0.000833474
0.000833473
0.000833472
0.000833471
0.00083347
0.000833469
0.000833468
0.000833467
0.000833465
0.000833464
0.000833463
0.000833462
0.00083346
0.000833458
0.000833457
0.000833455
0.000833453
0.000833451
0.000833449
0.000833447
0.000833445
0.000833443
0.000833441
0.000833438
0.000833436
0.000833434
0.000833431
0.000833429
0.000833426
0.000833424
0.000833421
0.000833419
0.000833416
0.000833413
0.00083341
0.000833407
0.000833404
0.000833401
0.000833398
0.000833395
0.000833392
0.000833389
0.000833386
0.000833381
0.000833373
0.000833364
0.000833352
0.000833338
0.000833321
0.000833302
0.000833281
0.000833257
0.000833233
0.000833208
0.000833183
0.000833157
0.000833131
0.000833106
0.00083308
0.000833063
0.000832994
0.0007984
0.000798465
0.000798476
0.000798475
0.000798472
0.000798468
0.000798463
0.000798457
0.000798451
0.000798444
0.000798436
0.000798428
0.00079842
0.000798411
0.000798401
0.000798392
0.000798382
0.000798372
0.000798362
0.000798352
0.000798341
0.00079833
0.000798319
0.000798308
0.000798298
0.000798291
0.000798288
0.000798289
0.000798294
0.000798302
0.000798312
0.000798323
0.000798334
0.000798345
0.000798355
0.000798365
0.000798375
0.000798384
0.000798393
0.0007984
0.000798407
0.000798413
0.000798418
0.000798423
0.000798427
0.00079843
0.000798434
0.000798436
0.000798438
0.00079844
0.000798442
0.000798443
0.000798444
0.000798444
0.000798445
0.000798445
0.000798445
0.000798445
0.000798445
0.000798445
0.000798444
0.000798444
0.000798443
0.000798443
0.000798442
0.000798441
0.000798441
0.00079844
0.000798439
0.000798438
0.000798437
0.000798436
0.000798435
0.000798434
0.000798433
0.000798431
0.00079843
0.000798428
0.000798427
0.000798425
0.000798424
0.000798422
0.00079842
0.000798418
0.000798416
0.000798414
0.000798412
0.00079841
0.000798408
0.000798406
0.000798404
0.000798402
0.000798399
0.000798397
0.000798394
0.000798392
0.00079839
0.000798387
0.000798385
0.000798382
0.000798379
0.000798377
0.000798373
0.000798368
0.000798362
0.000798354
0.000798345
0.000798333
0.00079832
0.000798304
0.000798287
0.000798269
0.00079825
0.00079823
0.00079821
0.000798189
0.000798168
0.000798146
0.000798133
0.000798071
0.000764969
0.000765027
0.000765038
0.000765038
0.000765036
0.000765033
0.000765029
0.000765025
0.00076502
0.000765014
0.000765008
0.000765001
0.000764993
0.000764985
0.000764977
0.000764969
0.000764961
0.000764952
0.000764943
0.000764934
0.000764924
0.000764914
0.000764904
0.000764894
0.000764884
0.000764876
0.000764869
0.000764866
0.000764866
0.000764868
0.000764872
0.000764878
0.000764885
0.000764891
0.000764898
0.000764905
0.000764912
0.000764919
0.000764925
0.00076493
0.000764935
0.00076494
0.000764944
0.000764948
0.000764951
0.000764954
0.000764957
0.000764959
0.000764961
0.000764963
0.000764964
0.000764965
0.000764966
0.000764967
0.000764968
0.000764968
0.000764968
0.000764968
0.000764969
0.000764969
0.000764968
0.000764968
0.000764968
0.000764968
0.000764967
0.000764967
0.000764967
0.000764966
0.000764966
0.000764965
0.000764965
0.000764964
0.000764963
0.000764962
0.000764961
0.00076496
0.000764959
0.000764958
0.000764957
0.000764956
0.000764955
0.000764953
0.000764952
0.000764951
0.000764949
0.000764948
0.000764946
0.000764944
0.000764943
0.000764941
0.000764939
0.000764937
0.000764935
0.000764933
0.000764931
0.000764929
0.000764927
0.000764925
0.000764923
0.000764921
0.000764919
0.000764916
0.000764914
0.000764911
0.000764906
0.000764901
0.000764895
0.000764887
0.000764877
0.000764866
0.000764854
0.000764841
0.000764826
0.000764811
0.000764795
0.000764778
0.000764762
0.000764744
0.000764733
0.000764678
0.000732997
0.000733048
0.000733058
0.000733059
0.000733058
0.000733056
0.000733053
0.00073305
0.000733046
0.000733042
0.000733037
0.000733031
0.000733025
0.000733018
0.000733011
0.000733004
0.000732996
0.000732989
0.000732981
0.000732973
0.000732965
0.000732956
0.000732947
0.000732938
0.000732929
0.00073292
0.000732913
0.000732907
0.000732903
0.000732902
0.000732902
0.000732904
0.000732907
0.00073291
0.000732914
0.000732918
0.000732922
0.000732927
0.000732931
0.000732934
0.000732938
0.000732941
0.000732944
0.000732947
0.00073295
0.000732952
0.000732954
0.000732956
0.000732957
0.000732959
0.00073296
0.000732961
0.000732962
0.000732962
0.000732963
0.000732963
0.000732964
0.000732964
0.000732964
0.000732964
0.000732965
0.000732964
0.000732964
0.000732964
0.000732964
0.000732964
0.000732964
0.000732964
0.000732964
0.000732963
0.000732963
0.000732963
0.000732962
0.000732962
0.000732961
0.000732961
0.00073296
0.000732959
0.000732958
0.000732957
0.000732956
0.000732955
0.000732954
0.000732953
0.000732952
0.000732951
0.00073295
0.000732948
0.000732947
0.000732946
0.000732944
0.000732943
0.000732941
0.000732939
0.000732938
0.000732936
0.000732934
0.000732933
0.000732931
0.000732929
0.000732927
0.000732925
0.000732923
0.000732921
0.000732918
0.000732914
0.00073291
0.000732905
0.000732898
0.00073289
0.000732882
0.000732872
0.000732861
0.000732849
0.000732837
0.000732824
0.000732811
0.000732796
0.000732789
0.00073274
0.000702406
0.000702451
0.000702461
0.000702463
0.000702463
0.000702462
0.00070246
0.000702458
0.000702455
0.000702452
0.000702447
0.000702443
0.000702438
0.000702432
0.000702426
0.00070242
0.000702414
0.000702407
0.000702401
0.000702394
0.000702386
0.000702379
0.000702371
0.000702363
0.000702354
0.000702346
0.000702339
0.000702332
0.000702327
0.000702323
0.000702321
0.00070232
0.00070232
0.000702321
0.000702322
0.000702324
0.000702326
0.000702328
0.00070233
0.000702333
0.000702335
0.000702337
0.000702339
0.000702341
0.000702342
0.000702344
0.000702346
0.000702347
0.000702348
0.000702349
0.00070235
0.000702351
0.000702351
0.000702352
0.000702352
0.000702353
0.000702353
0.000702354
0.000702354
0.000702354
0.000702354
0.000702355
0.000702355
0.000702355
0.000702355
0.000702355
0.000702355
0.000702355
0.000702355
0.000702355
0.000702355
0.000702355
0.000702354
0.000702354
0.000702354
0.000702353
0.000702353
0.000702352
0.000702352
0.000702351
0.000702351
0.00070235
0.000702349
0.000702348
0.000702347
0.000702346
0.000702345
0.000702344
0.000702343
0.000702342
0.000702341
0.00070234
0.000702339
0.000702337
0.000702336
0.000702334
0.000702333
0.000702332
0.00070233
0.000702329
0.000702327
0.000702326
0.000702324
0.000702322
0.00070232
0.000702318
0.000702315
0.000702311
0.000702306
0.000702301
0.000702294
0.000702287
0.00070228
0.000702271
0.000702262
0.000702252
0.000702242
0.00070223
0.000702224
0.000702182
0.000673125
0.000673164
0.000673174
0.000673176
0.000673177
0.000673177
0.000673176
0.000673175
0.000673173
0.00067317
0.000673167
0.000673163
0.000673159
0.000673154
0.000673149
0.000673144
0.000673139
0.000673134
0.000673128
0.000673122
0.000673116
0.000673109
0.000673102
0.000673095
0.000673088
0.00067308
0.000673073
0.000673066
0.00067306
0.000673056
0.000673052
0.000673049
0.000673047
0.000673046
0.000673046
0.000673046
0.000673046
0.000673047
0.000673047
0.000673048
0.000673049
0.00067305
0.000673051
0.000673052
0.000673053
0.000673054
0.000673055
0.000673056
0.000673057
0.000673058
0.000673058
0.000673059
0.000673059
0.00067306
0.00067306
0.00067306
0.000673061
0.000673061
0.000673062
0.000673062
0.000673062
0.000673062
0.000673063
0.000673063
0.000673063
0.000673063
0.000673063
0.000673063
0.000673064
0.000673064
0.000673064
0.000673064
0.000673064
0.000673064
0.000673063
0.000673063
0.000673063
0.000673063
0.000673062
0.000673062
0.000673062
0.000673061
0.00067306
0.00067306
0.000673059
0.000673058
0.000673058
0.000673057
0.000673056
0.000673055
0.000673054
0.000673053
0.000673052
0.000673051
0.00067305
0.000673049
0.000673048
0.000673047
0.000673046
0.000673044
0.000673043
0.000673042
0.000673041
0.000673039
0.000673038
0.000673036
0.000673034
0.000673031
0.000673028
0.000673024
0.000673019
0.000673014
0.000673009
0.000673002
0.000672995
0.000672988
0.00067298
0.00067297
0.000672967
0.00067293
0.000645082
0.000645116
0.000645125
0.000645128
0.000645129
0.00064513
0.00064513
0.000645129
0.000645128
0.000645126
0.000645124
0.000645121
0.000645118
0.000645114
0.00064511
0.000645105
0.000645101
0.000645096
0.000645092
0.000645087
0.000645081
0.000645075
0.000645069
0.000645063
0.000645057
0.00064505
0.000645044
0.000645037
0.000645032
0.000645026
0.000645022
0.000645018
0.000645015
0.000645013
0.000645011
0.00064501
0.000645009
0.000645008
0.000645008
0.000645007
0.000645007
0.000645008
0.000645008
0.000645008
0.000645009
0.000645009
0.00064501
0.00064501
0.000645011
0.000645011
0.000645011
0.000645011
0.000645012
0.000645012
0.000645013
0.000645013
0.000645013
0.000645014
0.000645014
0.000645014
0.000645015
0.000645015
0.000645015
0.000645015
0.000645016
0.000645016
0.000645016
0.000645016
0.000645017
0.000645017
0.000645017
0.000645017
0.000645017
0.000645017
0.000645017
0.000645017
0.000645017
0.000645017
0.000645017
0.000645017
0.000645016
0.000645016
0.000645015
0.000645015
0.000645015
0.000645014
0.000645014
0.000645013
0.000645013
0.000645012
0.000645011
0.00064501
0.00064501
0.000645009
0.000645008
0.000645007
0.000645006
0.000645005
0.000645005
0.000645003
0.000645002
0.000645001
0.000645
0.000644999
0.000644998
0.000644997
0.000644995
0.000644993
0.000644991
0.000644988
0.000644985
0.000644981
0.000644977
0.000644972
0.000644967
0.000644962
0.000644955
0.000644948
0.000644945
0.000644913
0.000618209
0.000618239
0.000618247
0.000618249
0.000618251
0.000618252
0.000618253
0.000618253
0.000618253
0.000618252
0.00061825
0.000618248
0.000618245
0.000618242
0.000618239
0.000618235
0.000618231
0.000618228
0.000618224
0.000618219
0.000618215
0.00061821
0.000618205
0.0006182
0.000618194
0.000618188
0.000618182
0.000618177
0.000618171
0.000618166
0.000618161
0.000618157
0.000618153
0.00061815
0.000618147
0.000618145
0.000618143
0.000618142
0.000618141
0.00061814
0.000618139
0.000618139
0.000618138
0.000618138
0.000618138
0.000618138
0.000618138
0.000618138
0.000618138
0.000618139
0.000618139
0.000618139
0.000618139
0.000618139
0.00061814
0.00061814
0.00061814
0.00061814
0.000618141
0.000618141
0.000618141
0.000618142
0.000618142
0.000618142
0.000618143
0.000618143
0.000618143
0.000618144
0.000618144
0.000618144
0.000618145
0.000618145
0.000618145
0.000618145
0.000618145
0.000618145
0.000618145
0.000618145
0.000618146
0.000618146
0.000618145
0.000618145
0.000618145
0.000618144
0.000618144
0.000618144
0.000618144
0.000618143
0.000618143
0.000618142
0.000618142
0.000618141
0.000618141
0.00061814
0.000618139
0.000618139
0.000618138
0.000618137
0.000618137
0.000618136
0.000618135
0.000618134
0.000618133
0.000618132
0.000618132
0.00061813
0.000618129
0.000618128
0.000618126
0.000618124
0.000618122
0.000618119
0.000618116
0.000618113
0.000618109
0.000618105
0.0006181
0.000618094
0.000618093
0.000618065
0.000592441
0.000592466
0.000592473
0.000592476
0.000592478
0.000592479
0.00059248
0.000592481
0.000592481
0.00059248
0.000592479
0.000592478
0.000592476
0.000592473
0.00059247
0.000592468
0.000592465
0.000592462
0.000592458
0.000592455
0.000592451
0.000592447
0.000592442
0.000592438
0.000592433
0.000592428
0.000592423
0.000592418
0.000592413
0.000592408
0.000592403
0.000592399
0.000592395
0.000592392
0.000592388
0.000592386
0.000592383
0.000592381
0.000592379
0.000592378
0.000592377
0.000592376
0.000592375
0.000592374
0.000592374
0.000592374
0.000592374
0.000592373
0.000592373
0.000592373
0.000592373
0.000592373
0.000592373
0.000592374
0.000592374
0.000592374
0.000592374
0.000592375
0.000592375
0.000592375
0.000592376
0.000592376
0.000592376
0.000592377
0.000592377
0.000592377
0.000592378
0.000592378
0.000592379
0.000592379
0.000592379
0.00059238
0.00059238
0.00059238
0.000592381
0.000592381
0.000592381
0.000592381
0.000592381
0.000592381
0.000592381
0.000592381
0.000592381
0.000592381
0.000592381
0.000592381
0.00059238
0.00059238
0.00059238
0.000592379
0.000592379
0.000592379
0.000592378
0.000592378
0.000592377
0.000592377
0.000592376
0.000592376
0.000592375
0.000592375
0.000592374
0.000592373
0.000592373
0.000592372
0.000592371
0.000592371
0.00059237
0.000592369
0.000592367
0.000592366
0.000592364
0.000592362
0.00059236
0.000592358
0.000592355
0.000592352
0.000592348
0.000592343
0.000592342
0.000592319
0.000567714
0.000567735
0.000567741
0.000567744
0.000567746
0.000567748
0.000567749
0.00056775
0.00056775
0.00056775
0.00056775
0.000567748
0.000567747
0.000567745
0.000567743
0.00056774
0.000567738
0.000567736
0.000567733
0.00056773
0.000567727
0.000567723
0.00056772
0.000567716
0.000567712
0.000567707
0.000567703
0.000567698
0.000567694
0.00056769
0.000567685
0.000567681
0.000567677
0.000567673
0.00056767
0.000567667
0.000567664
0.000567662
0.00056766
0.000567658
0.000567656
0.000567655
0.000567654
0.000567653
0.000567653
0.000567652
0.000567652
0.000567652
0.000567651
0.000567651
0.000567651
0.000567651
0.000567651
0.000567651
0.000567651
0.000567652
0.000567652
0.000567652
0.000567653
0.000567653
0.000567653
0.000567654
0.000567654
0.000567655
0.000567655
0.000567655
0.000567656
0.000567656
0.000567657
0.000567657
0.000567658
0.000567658
0.000567658
0.000567659
0.000567659
0.000567659
0.00056766
0.00056766
0.00056766
0.00056766
0.00056766
0.00056766
0.00056766
0.00056766
0.00056766
0.00056766
0.00056766
0.00056766
0.00056766
0.00056766
0.000567659
0.000567659
0.000567659
0.000567658
0.000567658
0.000567658
0.000567657
0.000567657
0.000567657
0.000567656
0.000567656
0.000567655
0.000567655
0.000567654
0.000567654
0.000567653
0.000567653
0.000567652
0.000567651
0.00056765
0.000567649
0.000567647
0.000567646
0.000567644
0.000567642
0.000567639
0.000567636
0.000567632
0.000567632
0.000567612
0.000543968
0.000543985
0.000543991
0.000543993
0.000543996
0.000543997
0.000543999
0.000544
0.000544001
0.000544001
0.000544
0.000544
0.000543998
0.000543997
0.000543995
0.000543993
0.000543992
0.00054399
0.000543987
0.000543985
0.000543982
0.00054398
0.000543976
0.000543973
0.00054397
0.000543966
0.000543962
0.000543958
0.000543954
0.00054395
0.000543946
0.000543942
0.000543938
0.000543935
0.000543931
0.000543928
0.000543925
0.000543923
0.000543921
0.000543919
0.000543917
0.000543916
0.000543915
0.000543914
0.000543913
0.000543913
0.000543912
0.000543912
0.000543912
0.000543911
0.000543911
0.000543911
0.000543911
0.000543911
0.000543911
0.000543912
0.000543912
0.000543912
0.000543913
0.000543913
0.000543913
0.000543914
0.000543914
0.000543915
0.000543915
0.000543916
0.000543916
0.000543916
0.000543917
0.000543918
0.000543918
0.000543919
0.000543919
0.000543919
0.00054392
0.00054392
0.000543921
0.000543921
0.000543921
0.000543921
0.000543922
0.000543922
0.000543922
0.000543922
0.000543922
0.000543922
0.000543922
0.000543922
0.000543922
0.000543922
0.000543922
0.000543922
0.000543921
0.000543921
0.000543921
0.000543921
0.000543921
0.00054392
0.00054392
0.00054392
0.000543919
0.000543919
0.000543919
0.000543918
0.000543918
0.000543918
0.000543917
0.000543917
0.000543916
0.000543915
0.000543914
0.000543913
0.000543912
0.000543911
0.000543909
0.000543907
0.000543905
0.000543902
0.000543901
0.000543885
0.000521147
0.000521161
0.000521165
0.000521167
0.000521169
0.000521171
0.000521173
0.000521174
0.000521175
0.000521175
0.000521175
0.000521174
0.000521174
0.000521172
0.000521171
0.00052117
0.000521168
0.000521167
0.000521165
0.000521163
0.000521161
0.000521159
0.000521156
0.000521153
0.00052115
0.000521147
0.000521144
0.000521141
0.000521137
0.000521133
0.000521129
0.000521126
0.000521122
0.000521119
0.000521115
0.000521112
0.00052111
0.000521107
0.000521105
0.000521103
0.000521102
0.000521101
0.000521099
0.000521098
0.000521098
0.000521097
0.000521097
0.000521096
0.000521096
0.000521096
0.000521096
0.000521096
0.000521096
0.000521096
0.000521096
0.000521096
0.000521097
0.000521097
0.000521097
0.000521098
0.000521098
0.000521099
0.000521099
0.0005211
0.0005211
0.000521101
0.000521101
0.000521102
0.000521102
0.000521103
0.000521103
0.000521104
0.000521104
0.000521105
0.000521105
0.000521106
0.000521106
0.000521106
0.000521107
0.000521107
0.000521108
0.000521108
0.000521108
0.000521108
0.000521108
0.000521108
0.000521109
0.000521109
0.000521108
0.000521108
0.000521108
0.000521108
0.000521108
0.000521108
0.000521108
0.000521108
0.000521108
0.000521108
0.000521108
0.000521108
0.000521107
0.000521107
0.000521107
0.000521107
0.000521106
0.000521106
0.000521106
0.000521106
0.000521105
0.000521105
0.000521104
0.000521103
0.000521102
0.000521101
0.0005211
0.000521098
0.000521096
0.000521094
0.000521093
0.000521079
0.000499195
0.000499206
0.000499209
0.000499211
0.000499213
0.000499215
0.000499216
0.000499218
0.000499218
0.000499219
0.000499219
0.000499219
0.000499218
0.000499217
0.000499216
0.000499215
0.000499214
0.000499213
0.000499211
0.00049921
0.000499208
0.000499206
0.000499204
0.000499202
0.000499199
0.000499197
0.000499194
0.000499191
0.000499188
0.000499184
0.000499181