/*--------------------------------*- C++ -*----------------------------------*\
  =========                 |
  \\      /  F ield         | OpenFOAM: The Open Source CFD Toolbox
   \\    /   O peration     | Website:  https://openfoam.org
    \\  /    A nd           | Version:  7
     \\/     M anipulation  |
\*---------------------------------------------------------------------------*/
FoamFile
{
    version     2.0;
    format      ascii;
    class       surfaceScalarField;
    location    "17500";
    object      phi;
}
// * * * * * * * * * * * * * * * * * * * * * * * * * * * * * * * * * * * * * //

dimensions      [0 3 -1 0 0 0 0];

internalField   nonuniform List<scalar> 
7768
(
0.000358118
-4.51633e-10
0.000358118
-6.14294e-10
0.000358118
-5.17895e-10
0.000358118
-3.69697e-10
0.000358119
-2.34533e-10
0.000358119
-1.22027e-10
0.000358119
-2.98553e-11
0.000358119
4.6712e-11
0.000358119
1.12019e-10
0.00035812
1.69167e-10
0.00035812
2.2013e-10
0.00035812
2.66221e-10
0.00035812
3.08373e-10
0.00035812
3.47031e-10
0.00035812
3.82777e-10
0.000358121
4.15948e-10
0.000358121
4.4938e-10
0.000358121
4.82167e-10
0.000358121
5.32304e-10
0.000358121
5.92333e-10
7.4964e-10
0.000358114
-4.78914e-10
0.000358114
-5.3265e-10
0.000358115
-5.41087e-10
0.000358115
-5.28722e-10
0.000358115
-5.06689e-10
0.000358115
-4.75213e-10
0.000358116
-4.33782e-10
0.000358116
-3.80842e-10
0.000358116
-3.14694e-10
0.000358116
-2.30843e-10
0.000358117
-1.2718e-10
0.000358117
6.7655e-12
0.000358117
1.71233e-10
0.000358117
3.86662e-10
0.000358118
7.55462e-10
3.64027e-10
0.000348977
-6.54919e-10
0.000348977
-8.03513e-10
0.000348977
-7.00462e-10
0.000348977
-5.52353e-10
0.000348977
-4.1895e-10
0.000348977
-3.07722e-10
0.000348978
-2.15748e-10
0.000348978
-1.38203e-10
0.000348978
-7.09114e-11
0.000348978
-1.1069e-11
0.000348978
4.31207e-11
0.000348979
9.29418e-11
0.000348979
1.39294e-10
0.000348979
1.82509e-10
0.000348979
2.23056e-10
0.000348979
2.61184e-10
0.000348979
3.00201e-10
0.000348979
3.38716e-10
0.00034898
3.99645e-10
0.00034898
4.7072e-10
0.00034898
6.67385e-10
0.00034898
8.97452e-10
1.06016e-09
0.000348972
-6.16149e-10
0.000348972
-6.37136e-10
0.000348972
-5.98745e-10
0.000348972
-6.93811e-10
0.000348973
-8.46175e-10
0.000348973
-8.62991e-10
0.000348973
-8.39026e-10
0.000348974
-8.04805e-10
0.000348974
-7.65214e-10
0.000348974
-7.19256e-10
0.000348974
-6.6586e-10
0.000348975
-6.03123e-10
0.000348975
-5.2923e-10
0.000348975
-4.39595e-10
0.000348975
-3.32268e-10
0.000348975
-1.96678e-10
0.000348976
-3.31746e-11
0.000348976
1.76035e-10
0.000348976
5.41031e-10
1.51585e-10
0.000340031
-8.43515e-10
0.000340031
-9.87851e-10
0.000340031
-8.80479e-10
0.000340031
-7.30903e-10
0.000340032
-5.97878e-10
0.000340032
-4.87406e-10
0.000340032
-3.95628e-10
0.000340032
-3.17336e-10
0.000340032
-2.48357e-10
0.000340032
-1.86088e-10
0.000340033
-1.2888e-10
0.000340033
-7.55228e-11
0.000340033
-2.52134e-11
0.000340033
2.22889e-11
0.000340033
6.73943e-11
0.000340033
1.1026e-10
0.000340034
1.54389e-10
0.000340034
1.98381e-10
0.000340034
2.64909e-10
0.000340034
3.47171e-10
0.000340034
4.93582e-10
0.000340034
7.2099e-10
0.000340034
1.01846e-09
0.000340034
1.24295e-09
0.000340034
1.26055e-09
0.000340034
1.20135e-09
0.000340033
1.1417e-09
0.000340033
1.09229e-09
0.000340033
1.05132e-09
0.000340033
1.016e-09
0.000340033
9.84557e-10
0.000340033
9.55699e-10
0.000340032
9.28598e-10
0.000340032
9.03025e-10
0.000340032
8.78922e-10
0.000340032
8.55936e-10
0.000340032
8.33729e-10
0.000340032
8.12505e-10
0.000340032
7.92654e-10
0.000340032
7.74128e-10
0.000340031
7.56544e-10
0.000340031
7.39565e-10
0.000340031
7.23065e-10
0.000340031
7.06898e-10
0.000340031
6.90686e-10
0.000340031
6.74059e-10
0.000340031
6.56814e-10
0.000340031
6.38736e-10
0.000340031
6.1952e-10
0.000340031
5.98952e-10
0.00034003
5.77007e-10
0.00034003
5.53481e-10
0.00034003
5.27989e-10
0.00034003
5.00686e-10
0.00034003
4.72202e-10
0.00034003
4.42769e-10
0.00034003
4.12037e-10
0.00034003
3.79843e-10
0.00034003
3.46692e-10
0.00034003
3.13076e-10
0.00034003
2.78918e-10
0.00034003
2.44061e-10
0.000340029
2.08768e-10
0.000340029
1.7341e-10
0.000340029
1.38154e-10
0.000340029
1.03022e-10
0.000340029
6.78695e-11
0.000340029
3.2469e-11
0.000340029
-3.07488e-12
0.000340029
-3.82425e-11
0.000340029
-7.27267e-11
0.000340029
-1.0677e-10
0.000340029
-1.40664e-10
0.000340029
-1.74291e-10
0.000340029
-2.07426e-10
0.000340029
-2.401e-10
0.000340028
-2.72345e-10
0.000340028
-3.04023e-10
0.000340028
-3.35095e-10
0.000340028
-3.65566e-10
0.000340028
-3.95309e-10
0.000340028
-4.24311e-10
0.000340028
-4.52678e-10
0.000340028
-4.80273e-10
0.000340028
-5.06766e-10
0.000340028
-5.31995e-10
0.000340028
-5.55901e-10
0.000340028
-5.78351e-10
0.000340028
-5.99116e-10
0.000340027
-6.17757e-10
0.000340027
-6.33865e-10
0.000340027
-6.47141e-10
0.000340027
-6.57173e-10
0.000340027
-6.63107e-10
0.000340027
-6.64278e-10
0.000340027
-6.58306e-10
0.000340027
-6.44012e-10
0.000340027
-6.16346e-10
0.000340027
-5.62092e-10
0.000340027
-6.47773e-10
0.000340027
-7.88985e-10
0.000340027
-7.97257e-10
0.000340027
-7.52285e-10
0.000340028
-8.47448e-10
0.000340028
-1.01583e-09
0.000340028
-1.05472e-09
0.000340028
-1.04e-09
0.000340028
-1.00745e-09
0.000340029
-9.6556e-10
0.000340029
-9.15645e-10
0.000340029
-8.57778e-10
0.000340029
-7.90773e-10
0.000340029
-7.13346e-10
0.000340029
-6.21246e-10
0.00034003
-5.1299e-10
0.00034003
-3.78208e-10
0.00034003
-2.17882e-10
0.00034003
-1.73005e-11
0.00034003
3.40114e-10
-4.45118e-11
0.000331277
-1.00688e-09
0.000331277
-1.15521e-09
0.000331277
-1.04982e-09
0.000331277
-9.0063e-10
0.000331278
-7.67925e-10
0.000331278
-6.57944e-10
0.000331278
-5.66346e-10
0.000331278
-4.87531e-10
0.000331278
-4.17218e-10
0.000331278
-3.5287e-10
0.000331279
-2.92936e-10
0.000331279
-2.36334e-10
0.000331279
-1.82423e-10
0.000331279
-1.31024e-10
0.000331279
-8.17341e-11
0.000331279
-3.44668e-11
0.000331279
1.4208e-11
0.00033128
6.33114e-11
0.00033128
1.31827e-10
0.00033128
2.22956e-10
0.00033128
3.19133e-10
0.00033128
4.94987e-10
0.000331281
7.77258e-10
0.000331281
1.06648e-09
0.000331281
1.24201e-09
0.000331281
1.28095e-09
0.000331281
1.25856e-09
0.00033128
1.21968e-09
0.00033128
1.18026e-09
0.00033128
1.1437e-09
0.00033128
1.11002e-09
0.00033128
1.07846e-09
0.00033128
1.04858e-09
0.00033128
1.02034e-09
0.00033128
9.93665e-10
0.000331279
9.68122e-10
0.000331279
9.43415e-10
0.000331279
9.1986e-10
0.000331279
8.97765e-10
0.000331279
8.76951e-10
0.000331279
8.57061e-10
0.000331279
8.37827e-10
0.000331279
8.19126e-10
0.000331279
8.00794e-10
0.000331279
7.82473e-10
0.000331278
7.63827e-10
0.000331278
7.44678e-10
0.000331278
7.24847e-10
0.000331278
7.04041e-10
0.000331278
6.82021e-10
0.000331278
6.58734e-10
0.000331278
6.33986e-10
0.000331278
6.07459e-10
0.000331278
5.79309e-10
0.000331278
5.50081e-10
0.000331278
5.19901e-10
0.000331278
4.88424e-10
0.000331277
4.55656e-10
0.000331277
4.22137e-10
0.000331277
3.88191e-10
0.000331277
3.53711e-10
0.000331277
3.18695e-10
0.000331277
2.83352e-10
0.000331277
2.47897e-10
0.000331277
2.12526e-10
0.000331277
1.77316e-10
0.000331277
1.421e-10
0.000331277
1.06719e-10
0.000331277
7.13845e-11
0.000331277
3.64904e-11
0.000331276
2.13447e-12
0.000331276
-3.19283e-11
0.000331276
-6.58374e-11
0.000331276
-9.94057e-11
0.000331276
-1.32485e-10
0.000331276
-1.65128e-10
0.000331276
-1.97277e-10
0.000331276
-2.2883e-10
0.000331276
-2.59848e-10
0.000331276
-2.90289e-10
0.000331276
-3.19944e-10
0.000331276
-3.48818e-10
0.000331276
-3.77067e-10
0.000331276
-4.04593e-10
0.000331275
-4.31096e-10
0.000331275
-4.56356e-10
0.000331275
-4.80265e-10
0.000331275
-5.0279e-10
0.000331275
-5.23726e-10
0.000331275
-5.42547e-10
0.000331275
-5.58871e-10
0.000331275
-5.72468e-10
0.000331275
-5.82922e-10
0.000331275
-5.89446e-10
0.000331275
-5.91465e-10
0.000331275
-5.87345e-10
0.000331275
-5.75582e-10
0.000331274
-5.576e-10
0.000331274
-5.18433e-10
0.000331274
-6.19995e-10
0.000331274
-7.9194e-10
0.000331274
-8.38212e-10
0.000331275
-8.22921e-10
0.000331275
-9.13294e-10
0.000331275
-1.07044e-09
0.000331275
-1.12888e-09
0.000331275
-1.13749e-09
0.000331275
-1.12222e-09
0.000331275
-1.09147e-09
0.000331275
-1.04843e-09
0.000331275
-9.94698e-10
0.000331275
-9.3026e-10
0.000331276
-8.54761e-10
0.000331276
-7.64632e-10
0.000331276
-6.5915e-10
0.000331276
-5.28447e-10
0.000331276
-3.74192e-10
0.000331276
-1.84934e-10
0.000331277
1.61077e-10
-2.16442e-10
0.000322711
-1.13967e-09
0.000322711
-1.29703e-09
0.000322711
-1.20034e-09
0.000322711
-1.05571e-09
0.000322712
-9.25072e-10
0.000322712
-8.16207e-10
0.000322712
-7.25118e-10
0.000322712
-6.46139e-10
0.000322712
-5.74927e-10
0.000322712
-5.08925e-10
0.000322712
-4.46647e-10
0.000322713
-3.87196e-10
0.000322713
-3.30125e-10
0.000322713
-2.75292e-10
0.000322713
-2.2228e-10
0.000322713
-1.71042e-10
0.000322713
-1.18417e-10
0.000322713
-6.4729e-11
0.000322714
3.96199e-12
0.000322714
1.00039e-10
0.000322714
1.643e-10
0.000322714
2.83329e-10
0.000322714
4.99969e-10
0.000322715
7.69914e-10
0.000322715
1.03754e-09
0.000322715
1.18797e-09
0.000322715
1.24164e-09
0.000322715
1.24532e-09
0.000322715
1.22892e-09
0.000322715
1.20558e-09
0.000322715
1.18e-09
0.000322715
1.15354e-09
0.000322715
1.12692e-09
0.000322714
1.10081e-09
0.000322714
1.0755e-09
0.000322714
1.05074e-09
0.000322714
1.02637e-09
0.000322714
1.00289e-09
0.000322714
9.80628e-10
0.000322714
9.59369e-10
0.000322714
9.38789e-10
0.000322714
9.18733e-10
0.000322714
8.99131e-10
0.000322714
8.79813e-10
0.000322714
8.60461e-10
0.000322714
8.40814e-10
0.000322713
8.20724e-10
0.000322713
8.00019e-10
0.000322713
7.78422e-10
0.000322713
7.55703e-10
0.000322713
7.31759e-10
0.000322713
7.06364e-10
0.000322713
6.79309e-10
0.000322713
6.50834e-10
0.000322713
6.21384e-10
0.000322713
5.90928e-10
0.000322713
5.59129e-10
0.000322713
5.26166e-10
0.000322713
4.92626e-10
0.000322713
4.58678e-10
0.000322712
4.2417e-10
0.000322712
3.89263e-10
0.000322712
3.54172e-10
0.000322712
3.18945e-10
0.000322712
2.83735e-10
0.000322712
2.48686e-10
0.000322712
2.13629e-10
0.000322712
1.78428e-10
0.000322712
1.43414e-10
0.000322712
1.08956e-10
0.000322712
7.49559e-11
0.000322712
4.10933e-11
0.000322712
7.33097e-12
0.000322712
-2.60638e-11
0.000322711
-5.89659e-11
0.000322711
-9.1425e-11
0.000322711
-1.23333e-10
0.000322711
-1.54636e-10
0.000322711
-1.85487e-10
0.000322711
-2.15801e-10
0.000322711
-2.45283e-10
0.000322711
-2.73941e-10
0.000322711
-3.01982e-10
0.000322711
-3.29338e-10
0.000322711
-3.55731e-10
0.000322711
-3.8092e-10
0.000322711
-4.04773e-10
0.00032271
-4.27316e-10
0.00032271
-4.4835e-10
0.00032271
-4.67285e-10
0.00032271
-4.83787e-10
0.00032271
-4.97694e-10
0.00032271
-5.08547e-10
0.00032271
-5.15608e-10
0.00032271
-5.18423e-10
0.00032271
-5.16055e-10
0.00032271
-5.06897e-10
0.00032271
-4.96261e-10
0.00032271
-4.71194e-10
0.00032271
-5.63024e-10
0.00032271
-7.25091e-10
0.00032271
-7.96398e-10
0.00032271
-8.16361e-10
0.00032271
-9.10249e-10
0.000322709
-1.05271e-09
0.000322709
-1.12024e-09
0.000322709
-1.1491e-09
0.00032271
-1.15484e-09
0.00032271
-1.14204e-09
0.00032271
-1.11332e-09
0.00032271
-1.07072e-09
0.00032271
-1.01505e-09
0.00032271
-9.46792e-10
0.00032271
-8.6317e-10
0.00032271
-7.64365e-10
0.00032271
-6.41233e-10
0.00032271
-4.9616e-10
0.00032271
-3.20983e-10
0.000322711
9.82047e-12
-3.59826e-10
0.000314329
-1.23991e-09
0.000314329
-1.40881e-09
0.000314329
-1.32617e-09
0.000314329
-1.1909e-09
0.00031433
-1.06534e-09
0.00031433
-9.59195e-10
0.00031433
-8.69496e-10
0.00031433
-7.90988e-10
0.00031433
-7.19451e-10
0.00031433
-6.52323e-10
0.00031433
-5.88191e-10
0.000314331
-5.26385e-10
0.000314331
-4.66657e-10
0.000314331
-4.08888e-10
0.000314331
-3.52665e-10
0.000314331
-2.97949e-10
0.000314331
-2.41969e-10
0.000314331
-1.84346e-10
0.000314331
-1.16143e-10
0.000314332
-1.88967e-11
0.000314332
2.93367e-11
0.000314332
1.04038e-10
0.000314332
2.50615e-10
0.000314332
4.61493e-10
0.000314333
7.47493e-10
0.000314333
9.72724e-10
0.000314333
1.10464e-09
0.000314333
1.16734e-09
0.000314333
1.19066e-09
0.000314333
1.19391e-09
0.000314333
1.18674e-09
0.000314333
1.17351e-09
0.000314333
1.15664e-09
0.000314333
1.13789e-09
0.000314333
1.1183e-09
0.000314333
1.09807e-09
0.000314333
1.07727e-09
0.000314333
1.0566e-09
0.000314333
1.03658e-09
0.000314333
1.01702e-09
0.000314333
9.97659e-10
0.000314333
9.78484e-10
0.000314333
9.59524e-10
0.000314333
9.40631e-10
0.000314332
9.21542e-10
0.000314332
9.02094e-10
0.000314332
8.82187e-10
0.000314332
8.61641e-10
0.000314332
8.40191e-10
0.000314332
8.17647e-10
0.000314332
7.93856e-10
0.000314332
7.68521e-10
0.000314332
7.4156e-10
0.000314332
7.13349e-10
0.000314332
6.8425e-10
0.000314332
6.54078e-10
0.000314332
6.22501e-10
0.000314332
5.89821e-10
0.000314332
5.56658e-10
0.000314332
5.2309e-10
0.000314331
4.88929e-10
0.000314331
4.54451e-10
0.000314331
4.19923e-10
0.000314331
3.85269e-10
0.000314331
3.50553e-10
0.000314331
3.15966e-10
0.000314331
2.81347e-10
0.000314331
2.46537e-10
0.000314331
2.1197e-10
0.000314331
1.78078e-10
0.000314331
1.44647e-10
0.000314331
1.11244e-10
0.000314331
7.78501e-11
0.000314331
4.47837e-11
0.000314331
1.2211e-11
0.00031433
-1.98866e-11
0.00031433
-5.14074e-11
0.00031433
-8.23455e-11
0.00031433
-1.12891e-10
0.00031433
-1.42934e-10
0.00031433
-1.72126e-10
0.00031433
-2.00476e-10
0.00031433
-2.28224e-10
0.00031433
-2.55312e-10
0.00031433
-2.81464e-10
0.00031433
-3.06458e-10
0.00031433
-3.30177e-10
0.00031433
-3.5266e-10
0.000314329
-3.73687e-10
0.000314329
-3.92655e-10
0.000314329
-4.09286e-10
0.000314329
-4.23465e-10
0.000314329
-4.34677e-10
0.000314329
-4.42231e-10
0.000314329
-4.45798e-10
0.000314329
-4.45042e-10
0.000314329
-4.3843e-10
0.000314329
-4.33299e-10
0.000314329
-4.19994e-10
0.000314329
-4.98963e-10
0.000314329
-6.37132e-10
0.000314329
-7.13711e-10
0.000314329
-7.57067e-10
0.000314328
-8.56316e-10
0.000314328
-9.87473e-10
0.000314328
-1.05755e-09
0.000314328
-1.09893e-09
0.000314328
-1.12191e-09
0.000314328
-1.12729e-09
0.000314328
-1.11557e-09
0.000314328
-1.08796e-09
0.000314328
-1.04526e-09
0.000314328
-9.88311e-10
0.000314328
-9.14958e-10
0.000314328
-8.26241e-10
0.000314329
-7.13834e-10
0.000314329
-5.80827e-10
0.000314329
-4.22276e-10
0.000314329
-1.10228e-10
-4.72507e-10
0.000306128
-1.30789e-09
0.000306128
-1.48931e-09
0.000306128
-1.42435e-09
0.000306128
-1.30268e-09
0.000306128
-1.1856e-09
0.000306128
-1.08442e-09
0.000306128
-9.97515e-10
0.000306128
-9.20431e-10
0.000306129
-8.49326e-10
0.000306129
-7.81721e-10
0.000306129
-7.16331e-10
0.000306129
-6.52747e-10
0.000306129
-5.909e-10
0.000306129
-5.30707e-10
0.000306129
-4.71797e-10
0.000306129
-4.14127e-10
0.00030613
-3.55367e-10
0.00030613
-2.94511e-10
0.00030613
-2.26906e-10
0.00030613
-1.31216e-10
0.00030613
-8.92431e-11
0.00030613
-4.34555e-11
0.00030613
4.64775e-11
0.000306131
1.90729e-10
0.000306131
4.47095e-10
0.000306131
6.99433e-10
0.000306131
8.86765e-10
0.000306132
1.00558e-09
0.000306132
1.07453e-09
0.000306132
1.11232e-09
0.000306132
1.1311e-09
0.000306132
1.13767e-09
0.000306132
1.13618e-09
0.000306132
1.12954e-09
0.000306132
1.11974e-09
0.000306132
1.10759e-09
0.000306132
1.09351e-09
0.000306132
1.07841e-09
0.000306132
1.06303e-09
0.000306132
1.04736e-09
0.000306132
1.03122e-09
0.000306132
1.01472e-09
0.000306132
9.98046e-10
0.000306132
9.81096e-10
0.000306132
9.63671e-10
0.000306132
9.45714e-10
0.000306132
9.27191e-10
0.000306132
9.07908e-10
0.000306131
8.8761e-10
0.000306131
8.6617e-10
0.000306131
8.43394e-10
0.000306131
8.18915e-10
0.000306131
7.9276e-10
0.000306131
7.65452e-10
0.000306131
7.37301e-10
0.000306131
7.08016e-10
0.000306131
6.77267e-10
0.000306131
6.45407e-10
0.000306131
6.13066e-10
0.000306131
5.803e-10
0.000306131
5.46913e-10
0.000306131
5.13234e-10
0.000306131
4.79592e-10
0.000306131
4.45847e-10
0.000306131
4.1198e-10
0.000306131
3.78192e-10
0.00030613
3.44315e-10
0.00030613
3.1015e-10
0.00030613
2.76201e-10
0.00030613
2.4301e-10
0.00030613
2.10333e-10
0.00030613
1.77644e-10
0.00030613
1.44869e-10
0.00030613
1.12328e-10
0.00030613
8.0267e-11
0.00030613
4.87168e-11
0.00030613
1.77288e-11
0.00030613
-1.2724e-11
0.00030613
-4.28129e-11
0.00030613
-7.24154e-11
0.00030613
-1.01179e-10
0.000306129
-1.29117e-10
0.000306129
-1.56486e-10
0.000306129
-1.83208e-10
0.000306129
-2.08991e-10
0.000306129
-2.33659e-10
0.000306129
-2.57149e-10
0.000306129
-2.79474e-10
0.000306129
-3.00374e-10
0.000306129
-3.19279e-10
0.000306129
-3.35978e-10
0.000306129
-3.50368e-10
0.000306129
-3.61882e-10
0.000306129
-3.69887e-10
0.000306128
-3.74166e-10
0.000306128
-3.74862e-10
0.000306128
-3.70639e-10
0.000306128
-3.69715e-10
0.000306128
-3.65439e-10
0.000306128
-4.33996e-10
0.000306128
-5.47948e-10
0.000306128
-6.17901e-10
0.000306128
-6.70371e-10
0.000306128
-7.70612e-10
0.000306128
-8.92537e-10
0.000306128
-9.61882e-10
0.000306128
-1.00899e-09
0.000306127
-1.04287e-09
0.000306127
-1.06254e-09
0.000306127
-1.06648e-09
0.000306127
-1.0544e-09
0.000306127
-1.02631e-09
0.000306127
-9.82886e-10
0.000306127
-9.22228e-10
0.000306127
-8.46016e-10
0.000306127
-7.46732e-10
0.000306127
-6.28105e-10
0.000306127
-4.88263e-10
0.000306128
-1.98019e-10
-5.54144e-10
0.000298103
-1.34544e-09
0.000298103
-1.53963e-09
0.000298103
-1.49445e-09
0.000298103
-1.38959e-09
0.000298104
-1.2841e-09
0.000298104
-1.19031e-09
0.000298104
-1.10789e-09
0.000298104
-1.03344e-09
0.000298104
-9.6369e-10
0.000298104
-8.96371e-10
0.000298104
-8.3041e-10
0.000298104
-7.65675e-10
0.000298104
-7.0226e-10
0.000298105
-6.40147e-10
0.000298105
-5.79064e-10
0.000298105
-5.18966e-10
0.000298105
-4.57965e-10
0.000298105
-3.94567e-10
0.000298105
-3.27479e-10
0.000298105
-2.34922e-10
0.000298105
-1.94288e-10
0.000298105
-1.64897e-10
0.000298106
-1.14489e-10
0.000298106
-2.77965e-11
0.000298106
1.77996e-10
0.000298106
4.19983e-10
0.000298107
6.32134e-10
0.000298107
7.91042e-10
0.000298107
9.00645e-10
0.000298107
9.73675e-10
0.000298107
1.0214e-09
0.000298107
1.05147e-09
0.000298107
1.06905e-09
0.000298107
1.078e-09
0.000298107
1.08114e-09
0.000298107
1.07995e-09
0.000298107
1.07522e-09
0.000298107
1.06808e-09
0.000298107
1.05952e-09
0.000298107
1.04974e-09
0.000298107
1.03868e-09
0.000298107
1.0266e-09
0.000298107
1.0138e-09
0.000298107
1.00028e-09
0.000298107
9.85913e-10
0.000298107
9.70737e-10
0.000298107
9.54789e-10
0.000298107
9.37864e-10
0.000298107
9.19723e-10
0.000298107
9.00307e-10
0.000298107
8.79405e-10
0.000298107
8.56601e-10
0.000298107
8.32014e-10
0.000298107
8.06272e-10
0.000298107
7.7967e-10
0.000298107
7.51878e-10
0.000298107
7.22574e-10
0.000298107
6.92092e-10
0.000298107
6.61043e-10
0.000298107
6.29526e-10
0.000298107
5.97364e-10
0.000298107
5.64884e-10
0.000298107
5.32453e-10
0.000298107
4.99943e-10
0.000298107
4.6728e-10
0.000298107
4.34629e-10
0.000298106
4.018e-10
0.000298106
3.68556e-10
0.000298106
3.35441e-10
0.000298106
3.03108e-10
0.000298106
2.71358e-10
0.000298106
2.39615e-10
0.000298106
2.07706e-10
0.000298106
1.75916e-10
0.000298106
1.44571e-10
0.000298106
1.13747e-10
0.000298106
8.34377e-11
0.000298106
5.36082e-11
0.000298106
2.41397e-11
0.000298106
-4.85349e-12
0.000298106
-3.30486e-11
0.000298105
-6.04602e-11
0.000298105
-8.73446e-11
0.000298105
-1.136e-10
0.000298105
-1.38898e-10
0.000298105
-1.63116e-10
0.000298105
-1.8627e-10
0.000298105
-2.08325e-10
0.000298105
-2.28971e-10
0.000298105
-2.47713e-10
0.000298105
-2.64403e-10
0.000298105
-2.78925e-10
0.000298105
-2.90672e-10
0.000298105
-2.99084e-10
0.000298105
-3.04027e-10
0.000298104
-3.06012e-10
0.000298104
-3.03958e-10
0.000298104
-3.06323e-10
0.000298104
-3.08645e-10
0.000298104
-3.69547e-10
0.000298104
-4.63763e-10
0.000298104
-5.23052e-10
0.000298104
-5.74608e-10
0.000298104
-6.69834e-10
0.000298104
-7.82093e-10
0.000298104
-8.48596e-10
0.000298104
-8.96614e-10
0.000298103
-9.35386e-10
0.000298103
-9.63969e-10
0.000298103
-9.79806e-10
0.000298103
-9.81204e-10
0.000298103
-9.67057e-10
0.000298103
-9.37428e-10
0.000298103
-8.90357e-10
0.000298103
-8.27842e-10
0.000298103
-7.43097e-10
0.000298103
-6.4037e-10
0.000298103
-5.20671e-10
0.000298103
-2.54611e-10
-6.06003e-10
0.000290252
-1.35556e-09
0.000290252
-1.56239e-09
0.000290252
-1.53805e-09
0.000290252
-1.45207e-09
0.000290252
-1.36059e-09
0.000290252
-1.27636e-09
0.000290253
-1.20017e-09
0.000290253
-1.12969e-09
0.000290253
-1.06231e-09
0.000290253
-9.96111e-10
0.000290253
-9.30314e-10
0.000290253
-8.65073e-10
0.000290253
-8.0063e-10
0.000290253
-7.37083e-10
0.000290253
-6.74315e-10
0.000290253
-6.12285e-10
0.000290254
-5.49531e-10
0.000290254
-4.84226e-10
0.000290254
-4.17548e-10
0.000290254
-3.28818e-10
0.000290254
-2.87499e-10
0.000290254
-2.66041e-10
0.000290254
-2.40293e-10
0.000290254
-1.96459e-10
0.000290255
-4.36875e-11
0.000290255
1.66434e-10
0.000290255
3.76884e-10
0.000290255
5.55334e-10
0.000290255
6.93532e-10
0.000290256
7.9621e-10
0.000290256
8.71117e-10
0.000290256
9.24931e-10
0.000290256
9.62821e-10
0.000290256
9.89026e-10
0.000290256
1.00693e-09
0.000290256
1.01856e-09
0.000290256
1.025e-09
0.000290256
1.02759e-09
0.000290256
1.02755e-09
0.000290256
1.02528e-09
0.000290256
1.02089e-09
0.000290256
1.01472e-09
0.000290256
1.00721e-09
0.000290256
9.98465e-10
0.000290256
9.88422e-10
0.000290256
9.77218e-10
0.000290256
9.64946e-10
0.000290256
9.51392e-10
0.000290256
9.36346e-10
0.000290256
9.19813e-10
0.000290256
9.01586e-10
0.000290256
8.81249e-10
0.000290256
8.58982e-10
0.000290256
8.3546e-10
0.000290256
8.10989e-10
0.000290256
7.85273e-10
0.000290256
7.58005e-10
0.000290256
7.2944e-10
0.000290256
7.00155e-10
0.000290256
6.70333e-10
0.000290256
6.39844e-10
0.000290256
6.08964e-10
0.000290256
5.78071e-10
0.000290256
5.47109e-10
0.000290256
5.15985e-10
0.000290256
4.84785e-10
0.000290256
4.53287e-10
0.000290256
4.21243e-10
0.000290256
3.89209e-10
0.000290256
3.57924e-10
0.000290255
3.27278e-10
0.000290255
2.96681e-10
0.000290255
2.65866e-10
0.000290255
2.35061e-10
0.000290255
2.0464e-10
0.000290255
1.74709e-10
0.000290255
1.45225e-10
0.000290255
1.16178e-10
0.000290255
8.74968e-11
0.000290255
5.92656e-11
0.000290255
3.17714e-11
0.000290255
5.0103e-12
0.000290255
-2.12677e-11
0.000290255
-4.69446e-11
0.000290255
-7.16555e-11
0.000290255
-9.53225e-11
0.000290254
-1.18029e-10
0.000290254
-1.39685e-10
0.000290254
-1.59954e-10
0.000290254
-1.78436e-10
0.000290254
-1.95031e-10
0.000290254
-2.09589e-10
0.000290254
-2.21491e-10
0.000290254
-2.30258e-10
0.000290254
-2.35807e-10
0.000290254
-2.38921e-10
0.000290254
-2.38787e-10
0.000290254
-2.43759e-10
0.000290254
-2.50781e-10
0.000290254
-3.05964e-10
0.000290254
-3.85437e-10
0.000290253
-4.34551e-10
0.000290253
-4.80288e-10
0.000290253
-5.65969e-10
0.000290253
-6.67006e-10
0.000290253
-7.28794e-10
0.000290253
-7.74514e-10
0.000290253
-8.13533e-10
0.000290253
-8.45896e-10
0.000290253
-8.69034e-10
0.000290252
-8.80394e-10
0.000290252
-8.77841e-10
0.000290252
-8.60694e-10
0.000290252
-8.26688e-10
0.000290252
-7.77856e-10
0.000290252
-7.08048e-10
0.000290252
-6.21875e-10
0.000290252
-5.23013e-10
0.000290252
-2.82766e-10
-6.3071e-10
0.000282571
-1.34206e-09
0.000282571
-1.56123e-09
0.000282571
-1.55804e-09
0.000282571
-1.49205e-09
0.000282571
-1.41619e-09
0.000282571
-1.34323e-09
0.000282571
-1.27483e-09
0.000282571
-1.20958e-09
0.000282572
-1.14558e-09
0.000282572
-1.08133e-09
0.000282572
-1.01643e-09
0.000282572
-9.513e-10
0.000282572
-8.86342e-10
0.000282572
-8.21816e-10
0.000282572
-7.57807e-10
0.000282572
-6.94298e-10
0.000282572
-6.30218e-10
0.000282572
-5.6355e-10
0.000282572
-4.97208e-10
0.000282572
-4.12426e-10
0.000282573
-3.69859e-10
0.000282573
-3.51262e-10
0.000282573
-3.39223e-10
0.000282573
-3.23855e-10
0.000282573
-2.16944e-10
0.000282573
-4.65449e-11
0.000282573
1.4459e-10
0.000282574
3.24037e-10
0.000282574
4.76415e-10
0.000282574
5.99324e-10
0.000282574
6.95945e-10
0.000282574
7.70641e-10
0.000282575
8.27597e-10
0.000282575
8.70815e-10
0.000282575
9.03824e-10
0.000282575
9.28907e-10
0.000282575
9.47381e-10
0.000282575
9.60713e-10
0.000282575
9.70264e-10
0.000282575
9.76624e-10
0.000282575
9.80037e-10
0.000282575
9.80946e-10
0.000282575
9.79866e-10
0.000282575
9.76986e-10
0.000282575
9.72331e-10
0.000282575
9.66108e-10
0.000282575
9.58451e-10
0.000282575
9.49142e-10
0.000282575
9.38011e-10
0.000282575
9.25112e-10
0.000282575
9.10266e-10
0.000282575
8.93112e-10
0.000282575
8.73857e-10
0.000282575
8.53163e-10
0.000282575
8.31365e-10
0.000282575
8.08261e-10
0.000282575
7.83556e-10
0.000282575
7.57398e-10
0.000282575
7.30323e-10
0.000282575
7.02624e-10
0.000282575
6.74228e-10
0.000282575
6.45322e-10
0.000282575
6.16281e-10
0.000282575
5.87163e-10
0.000282575
5.57876e-10
0.000282575
5.28401e-10
0.000282575
4.98487e-10
0.000282575
4.6791e-10
0.000282575
4.37214e-10
0.000282575
4.07191e-10
0.000282575
3.7783e-10
0.000282575
3.48557e-10
0.000282574
3.19037e-10
0.000282574
2.89437e-10
0.000282574
2.60136e-10
0.000282574
2.31253e-10
0.000282574
2.02749e-10
0.000282574
1.74653e-10
0.000282574
1.46915e-10
0.000282574
1.19577e-10
0.000282574
9.29074e-11
0.000282574
6.6923e-11
0.000282574
4.13821e-11
0.000282574
1.6404e-11
0.000282574
-7.62756e-12
0.000282574
-3.06613e-11
0.000282574
-5.28117e-11
0.000282574
-7.39379e-11
0.000282574
-9.37147e-11
0.000282573
-1.11851e-10
0.000282573
-1.28261e-10
0.000282573
-1.42747e-10
0.000282573
-1.54713e-10
0.000282573
-1.63774e-10
0.000282573
-1.69861e-10
0.000282573
-1.7395e-10
0.000282573
-1.7548e-10
0.000282573
-1.82521e-10
0.000282573
-1.92855e-10
0.000282573
-2.43524e-10
0.000282573
-3.12272e-10
0.000282573
-3.53417e-10
0.000282573
-3.92108e-10
0.000282572
-4.66146e-10
0.000282572
-5.54698e-10
0.000282572
-6.10182e-10
0.000282572
-6.51504e-10
0.000282572
-6.8759e-10
0.000282572
-7.19641e-10
0.000282572
-7.45754e-10
0.000282572
-7.63129e-10
0.000282572
-7.68965e-10
0.000282571
-7.61934e-10
0.000282571
-7.39403e-10
0.000282571
-7.0324e-10
0.000282571
-6.47866e-10
0.000282571
-5.78073e-10
0.000282571
-5.00012e-10
0.000282571
-2.86461e-10
-6.31932e-10
0.000275057
-1.30928e-09
0.000275057
-1.54031e-09
0.000275057
-1.55809e-09
0.000275057
-1.51247e-09
0.000275057
-1.45309e-09
0.000275057
-1.39255e-09
0.000275057
-1.33312e-09
0.000275057
-1.27419e-09
0.000275057
-1.21447e-09
0.000275057
-1.15293e-09
0.000275057
-1.08959e-09
0.000275057
-1.02512e-09
0.000275057
-9.60104e-10
0.000275057
-8.95015e-10
0.000275057
-8.30158e-10
0.000275058
-7.65557e-10
0.000275058
-7.00505e-10
0.000275058
-6.32917e-10
0.000275058
-5.66872e-10
0.000275058
-4.8583e-10
0.000275058
-4.42064e-10
0.000275058
-4.23585e-10
0.000275058
-4.17973e-10
0.000275058
-4.19416e-10
0.000275058
-3.47847e-10
0.000275058
-2.16098e-10
0.000275059
-5.29333e-11
0.000275059
1.14187e-10
0.000275059
2.67647e-10
0.000275059
4.00309e-10
0.000275059
5.1114e-10
0.00027506
6.01662e-10
0.00027506
6.74453e-10
0.00027506
7.32755e-10
0.00027506
7.798e-10
0.00027506
8.17823e-10
0.00027506
8.48206e-10
0.00027506
8.72468e-10
0.00027506
8.92022e-10
0.00027506
9.07565e-10
0.000275061
9.19451e-10
0.000275061
9.2818e-10
0.000275061
9.34301e-10
0.000275061
9.38073e-10
0.000275061
9.39593e-10
0.000275061
9.39118e-10
0.000275061
9.36795e-10
0.000275061
9.32423e-10
0.000275061
9.25873e-10
0.000275061
9.17219e-10
0.000275061
9.06336e-10
0.000275061
8.92963e-10
0.000275061
8.77306e-10
0.000275061
8.59965e-10
0.000275061
8.41324e-10
0.000275061
8.21297e-10
0.000275061
7.99598e-10
0.000275061
7.76262e-10
0.000275061
7.51797e-10
0.000275061
7.26611e-10
0.000275061
7.00675e-10
0.000275061
6.74078e-10
0.000275061
6.47175e-10
0.000275061
6.20159e-10
0.00027506
5.92957e-10
0.00027506
5.65436e-10
0.00027506
5.37333e-10
0.00027506
5.08465e-10
0.00027506
4.79356e-10
0.00027506
4.50816e-10
0.00027506
4.22918e-10
0.00027506
3.95127e-10
0.00027506
3.67071e-10
0.00027506
3.38868e-10
0.00027506
3.10864e-10
0.00027506
2.83179e-10
0.00027506
2.55811e-10
0.00027506
2.28827e-10
0.00027506
2.02167e-10
0.00027506
1.75838e-10
0.00027506
1.50107e-10
0.00027506
1.25018e-10
0.00027506
1.0034e-10
0.00027506
7.61841e-11
0.000275059
5.29202e-11
0.000275059
3.05895e-11
0.000275059
9.09636e-12
0.000275059
-1.1378e-11
0.000275059
-3.05664e-11
0.000275059
-4.82816e-11
0.000275059
-6.44127e-11
0.000275059
-7.87113e-11
0.000275059
-9.06444e-11
0.000275059
-9.99243e-11
0.000275059
-1.06475e-10
0.000275059
-1.11394e-10
0.000275059
-1.14333e-10
0.000275059
-1.23005e-10
0.000275059
-1.35669e-10
0.000275059
-1.8258e-10
0.000275058
-2.43436e-10
0.000275058
-2.78965e-10
0.000275058
-3.1134e-10
0.000275058
-3.73704e-10
0.000275058
-4.49478e-10
0.000275058
-4.97629e-10
0.000275058
-5.33282e-10
0.000275058
-5.64486e-10
0.000275058
-5.93376e-10
0.000275058
-6.18978e-10
0.000275057
-6.38733e-10
0.000275057
-6.49599e-10
0.000275057
-6.49848e-10
0.000275057
-6.36569e-10
0.000275057
-6.11379e-10
0.000275057
-5.69247e-10
0.000275057
-5.14974e-10
0.000275057
-4.57035e-10
0.000275057
-2.70392e-10
-6.13998e-10
0.000267706
-1.26177e-09
0.000267706
-1.50402e-09
0.000267706
-1.54226e-09
0.000267706
-1.51684e-09
0.000267706
-1.47418e-09
0.000267706
-1.42665e-09
0.000267706
-1.37698e-09
0.000267706
-1.32515e-09
0.000267706
-1.2704e-09
0.000267706
-1.21221e-09
0.000267706
-1.15097e-09
0.000267706
-1.08762e-09
0.000267706
-1.02294e-09
0.000267706
-9.57641e-10
0.000267706
-8.92264e-10
0.000267706
-8.26889e-10
0.000267706
-7.61142e-10
0.000267707
-6.92968e-10
0.000267707
-6.27195e-10
0.000267707
-5.49522e-10
0.000267707
-5.04778e-10
0.000267707
-4.85075e-10
0.000267707
-4.81416e-10
0.000267707
-4.91239e-10
0.000267707
-4.44649e-10
0.000267707
-3.45902e-10
0.000267707
-2.12557e-10
0.000267707
-6.53052e-11
0.000267708
7.94422e-11
0.000267708
2.12436e-10
0.000267708
3.29613e-10
0.000267708
4.29876e-10
0.000267708
5.14036e-10
0.000267709
5.84274e-10
0.000267709
6.43176e-10
0.000267709
6.92648e-10
0.000267709
7.33968e-10
0.000267709
7.68607e-10
0.000267709
7.97934e-10
0.000267709
8.22659e-10
0.000267709
8.43191e-10
0.000267709
8.60038e-10
0.000267709
8.73744e-10
0.000267709
8.84606e-10
0.000267709
8.9278e-10
0.00026771
8.98542e-10
0.00026771
9.02026e-10
0.00026771
9.03069e-10
0.00026771
9.0158e-10
0.00026771
8.97624e-10
0.00026771
8.91144e-10
0.00026771
8.82006e-10