/*--------------------------------*- C++ -*----------------------------------*\
  =========                 |
  \\      /  F ield         | OpenFOAM: The Open Source CFD Toolbox
   \\    /   O peration     | Website:  https://openfoam.org
    \\  /    A nd           | Version:  7
     \\/     M anipulation  |
\*---------------------------------------------------------------------------*/
FoamFile
{
    version     2.0;
    format      ascii;
    class       volVectorField;
    location    "17500";
    object      U;
}
// * * * * * * * * * * * * * * * * * * * * * * * * * * * * * * * * * * * * * //

dimensions      [0 1 -1 0 0 0 0];

internalField   nonuniform List<vector> 
3963
(
(0.147924 -3.46701e-08 2.92357e-14)
(0.147924 -5.2122e-08 2.92094e-14)
(0.147924 -4.26148e-08 2.91778e-14)
(0.147924 -2.76371e-08 2.91771e-14)
(0.147924 -1.39902e-08 2.91539e-14)
(0.147924 -2.67399e-09 2.91864e-14)
(0.147925 6.54485e-09 2.91911e-14)
(0.147925 1.41433e-08 2.92204e-14)
(0.147925 2.05656e-08 2.9188e-14)
(0.147925 2.61368e-08 2.9189e-14)
(0.147925 3.1064e-08 2.91647e-14)
(0.147925 3.54793e-08 2.90982e-14)
(0.147925 3.94768e-08 2.90778e-14)
(0.147925 4.31075e-08 2.9043e-14)
(0.147925 4.6435e-08 2.90322e-14)
(0.147925 4.94965e-08 2.90603e-14)
(0.147925 5.2546e-08 2.90334e-14)
(0.147925 5.55279e-08 2.90385e-14)
(0.147925 5.98371e-08 2.90106e-14)
(0.147925 6.50928e-08 2.90047e-14)
(0.147926 7.25889e-08 2.9015e-14)
(0.147922 -2.47725e-08 2.91896e-14)
(0.147923 -3.14829e-08 2.93525e-14)
(0.147923 -3.60758e-08 2.92147e-14)
(0.147923 -3.7146e-08 2.91949e-14)
(0.147923 -3.635e-08 2.92927e-14)
(0.147923 -3.42031e-08 2.91742e-14)
(0.147923 -3.08336e-08 2.93217e-14)
(0.147923 -2.61523e-08 2.93882e-14)
(0.147923 -2.00154e-08 2.93416e-14)
(0.147923 -1.199e-08 2.9402e-14)
(0.147924 -1.86383e-09 2.9253e-14)
(0.147924 1.13976e-08 2.9383e-14)
(0.147924 2.78465e-08 2.94157e-14)
(0.147924 4.96438e-08 2.93575e-14)
(0.147924 8.65535e-08 2.94065e-14)
(0.147924 4.7553e-08 2.92592e-14)
(0.14754 -5.53338e-08 2.89418e-14)
(0.14754 -7.08554e-08 2.89365e-14)
(0.14754 -6.08545e-08 2.89377e-14)
(0.14754 -4.60671e-08 2.89287e-14)
(0.14754 -3.2662e-08 2.89464e-14)
(0.147541 -2.1482e-08 2.89451e-14)
(0.147541 -1.22726e-08 2.89212e-14)
(0.147541 -4.56243e-09 2.89233e-14)
(0.147541 2.07208e-09 2.8895e-14)
(0.147541 7.92535e-09 2.88533e-14)
(0.147541 1.31856e-08 2.885e-14)
(0.147541 1.79829e-08 2.87972e-14)
(0.147541 2.24096e-08 2.8799e-14)
(0.147541 2.65045e-08 2.87656e-14)
(0.147541 3.03204e-08 2.87685e-14)
(0.147541 3.38864e-08 2.88118e-14)
(0.147541 3.75145e-08 2.8788e-14)
(0.147541 4.10826e-08 2.8803e-14)
(0.147541 4.67309e-08 2.87704e-14)
(0.147541 5.34842e-08 2.87701e-14)
(0.147542 7.12402e-08 2.88588e-14)
(0.147542 8.92968e-08 2.8925e-14)
(0.147542 9.45391e-08 2.89099e-14)
(0.147538 -4.87445e-08 2.90291e-14)
(0.147538 -5.08191e-08 2.88982e-14)
(0.147538 -4.93504e-08 2.88813e-14)
(0.147538 -5.35452e-08 2.90173e-14)
(0.147538 -6.56239e-08 2.88907e-14)
(0.147539 -7.15751e-08 2.90333e-14)
(0.147539 -7.06464e-08 2.89032e-14)
(0.147539 -6.7846e-08 2.88862e-14)
(0.147539 -6.44702e-08 2.90111e-14)
(0.147539 -6.0417e-08 2.8891e-14)
(0.147539 -5.55526e-08 2.90075e-14)
(0.147539 -4.96802e-08 2.90996e-14)
(0.147539 -4.26115e-08 2.90488e-14)
(0.147539 -3.38843e-08 2.91253e-14)
(0.14754 -2.329e-08 2.89587e-14)
(0.14754 -9.77084e-09 2.906e-14)
(0.14754 6.66909e-09 2.91279e-14)
(0.14754 2.79578e-08 2.906e-14)
(0.14754 6.4755e-08 2.91213e-14)
(0.14754 2.57772e-08 2.89723e-14)
(0.147141 -7.52977e-08 2.86307e-14)
(0.147141 -8.97609e-08 2.86597e-14)
(0.147141 -7.91283e-08 2.86953e-14)
(0.147141 -6.42271e-08 2.86745e-14)
(0.147141 -5.09167e-08 2.87485e-14)
(0.147141 -3.98394e-08 2.86909e-14)
(0.147141 -3.0652e-08 2.85679e-14)
(0.147141 -2.28554e-08 2.86583e-14)
(0.147141 -1.60352e-08 2.85891e-14)
(0.147142 -9.92312e-09 2.85232e-14)
(0.147142 -4.34836e-09 2.85285e-14)
(0.147142 8.14628e-10 2.84757e-14)
(0.147142 5.65244e-09 2.85104e-14)
(0.147142 1.01936e-08 2.84702e-14)
(0.147142 1.44814e-08 2.85013e-14)
(0.147142 1.85353e-08 2.8567e-14)
(0.147142 2.27022e-08 2.85358e-14)
(0.147142 2.68322e-08 2.85576e-14)
(0.147142 3.33016e-08 2.85164e-14)
(0.147142 4.10085e-08 2.85722e-14)
(0.147142 5.99667e-08 2.87293e-14)
(0.147142 8.47215e-08 2.87852e-14)
(0.147142 1.07368e-07 2.87142e-14)
(0.147142 1.21079e-07 2.8896e-14)
(0.147142 1.17412e-07 2.88086e-14)
(0.147142 1.10521e-07 2.89696e-14)
(0.147142 1.04821e-07 2.91195e-14)
(0.147142 1.00348e-07 2.90362e-14)
(0.147142 9.67179e-08 2.91044e-14)
(0.147142 9.36014e-08 2.90623e-14)
(0.147142 9.08217e-08 2.91661e-14)
(0.147142 8.82584e-08 2.92685e-14)
(0.147142 8.58325e-08 2.91442e-14)
(0.147142 8.35244e-08 2.92001e-14)
(0.147141 8.13376e-08 2.90958e-14)
(0.147141 7.92459e-08 2.91972e-14)
(0.147141 7.72171e-08 2.93509e-14)
(0.147141 7.52692e-08 2.92014e-14)
(0.147141 7.34463e-08 2.93032e-14)
(0.147141 7.17509e-08 2.91743e-14)
(0.147141 7.01453e-08 2.91e-14)
(0.147141 6.85944e-08 2.89972e-14)
(0.147141 6.70853e-08 2.89483e-14)
(0.147141 6.56049e-08 2.89551e-14)
(0.147141 6.41153e-08 2.8877e-14)
(0.147141 6.25786e-08 2.88349e-14)
(0.147141 6.09724e-08 2.87735e-14)
(0.147141 5.92735e-08 2.87541e-14)
(0.147141 5.74512e-08 2.87972e-14)
(0.147141 5.5485e-08 2.87449e-14)
(0.147141 5.3373e-08 2.87162e-14)
(0.147141 5.10945e-08 2.86599e-14)
(0.147141 4.86106e-08 2.86476e-14)
(0.147141 4.59369e-08 2.86156e-14)
(0.147141 4.31383e-08 2.84555e-14)
(0.147141 4.02421e-08 2.85261e-14)
(0.147141 3.72142e-08 2.85299e-14)
(0.14714 3.40329e-08 2.8558e-14)
(0.14714 3.07457e-08 2.85501e-14)
(0.14714 2.74079e-08 2.84531e-14)
(0.14714 2.40143e-08 2.8494e-14)
(0.14714 2.05445e-08 2.8501e-14)
(0.14714 1.7026e-08 2.8521e-14)
(0.14714 1.35016e-08 2.85094e-14)
(0.14714 9.98735e-09 2.83663e-14)
(0.14714 6.4831e-09 2.84511e-14)
(0.14714 2.97519e-09 2.84647e-14)
(0.14714 -5.62141e-10 2.84944e-14)
(0.14714 -4.12168e-09 2.84873e-14)
(0.14714 -7.64614e-09 2.83998e-14)
(0.14714 -1.10968e-08 2.84494e-14)
(0.14714 -1.44972e-08 2.84738e-14)
(0.14714 -1.78825e-08 2.85249e-14)
(0.14714 -2.12448e-08 2.85287e-14)
(0.14714 -2.45583e-08 2.8432e-14)
(0.14714 -2.78239e-08 2.84688e-14)
(0.14714 -3.10487e-08 2.84796e-14)
(0.14714 -3.4219e-08 2.85145e-14)
(0.14714 -3.73274e-08 2.85126e-14)
(0.14714 -4.0375e-08 2.84166e-14)
(0.14714 -4.33517e-08 2.85441e-14)
(0.14714 -4.62556e-08 2.84718e-14)
(0.14714 -4.90953e-08 2.84984e-14)
(0.14714 -5.18554e-08 2.86096e-14)
(0.14714 -5.45018e-08 2.85073e-14)
(0.14714 -5.70212e-08 2.86226e-14)
(0.14714 -5.94101e-08 2.85247e-14)
(0.14714 -6.16506e-08 2.85918e-14)
(0.147139 -6.37172e-08 2.8685e-14)
(0.147139 -6.55704e-08 2.85833e-14)
(0.147139 -6.71698e-08 2.86863e-14)
(0.147139 -6.84813e-08 2.85997e-14)
(0.147139 -6.94621e-08 2.8611e-14)
(0.147139 -7.00232e-08 2.87012e-14)
(0.147139 -7.00957e-08 2.85998e-14)
(0.147139 -6.94029e-08 2.86908e-14)
(0.147139 -6.78509e-08 2.85436e-14)
(0.147139 -6.45051e-08 2.85971e-14)
(0.147139 -5.83611e-08 2.86908e-14)
(0.147139 -5.97723e-08 2.85666e-14)
(0.147139 -6.9527e-08 2.86543e-14)
(0.147139 -7.34244e-08 2.85191e-14)
(0.147139 -6.91155e-08 2.85738e-14)
(0.147139 -7.98237e-08 2.86708e-14)
(0.14714 -9.7152e-08 2.85203e-14)
(0.14714 -9.91311e-08 2.86616e-14)
(0.14714 -9.63145e-08 2.85691e-14)
(0.14714 -9.24698e-08 2.85767e-14)
(0.14714 -8.80536e-08 2.86698e-14)
(0.14714 -8.30046e-08 2.85193e-14)
(0.14714 -7.72478e-08 2.86452e-14)
(0.14714 -7.06115e-08 2.87305e-14)
(0.14714 -6.29285e-08 2.87283e-14)
(0.14714 -5.37473e-08 2.8769e-14)
(0.14714 -4.28894e-08 2.86229e-14)
(0.14714 -2.93001e-08 2.86808e-14)
(0.14714 -1.30438e-08 2.87504e-14)
(0.147141 7.51333e-09 2.87319e-14)
(0.147141 4.37387e-08 2.87607e-14)
(0.147141 4.99336e-09 2.86265e-14)
(0.146726 -9.31106e-08 2.83309e-14)
(0.146726 -1.07594e-07 2.83833e-14)
(0.146726 -9.6799e-08 2.84648e-14)
(0.146726 -8.17793e-08 2.84103e-14)
(0.146726 -6.84655e-08 2.84797e-14)
(0.146726 -5.74353e-08 2.84045e-14)
(0.146726 -4.82617e-08 2.82723e-14)
(0.146727 -4.03995e-08 2.8308e-14)
(0.146727 -3.34261e-08 2.82671e-14)
(0.146727 -2.70865e-08 2.81787e-14)
(0.146727 -2.12222e-08 2.82172e-14)
(0.146727 -1.57177e-08 2.8154e-14)
(0.146727 -1.04993e-08 2.82333e-14)
(0.146727 -5.54602e-09 2.81729e-14)
(0.146727 -8.18272e-10 2.82437e-14)
(0.146727 3.69543e-09 2.83379e-14)
(0.146727 8.34715e-09 2.82716e-14)
(0.146727 1.30102e-08 2.83234e-14)
(0.146727 1.98251e-08 2.82386e-14)
(0.146727 2.85524e-08 2.82954e-14)
(0.146727 4.09552e-08 2.86071e-14)
(0.146727 6.19011e-08 2.85535e-14)
(0.146728 9.34976e-08 2.85002e-14)
(0.146728 1.21152e-07 2.87524e-14)
(0.146728 1.30148e-07 2.85889e-14)
(0.146728 1.28015e-07 2.88505e-14)
(0.146728 1.22872e-07 2.90214e-14)
(0.146728 1.17724e-07 2.88572e-14)
(0.146728 1.1323e-07 2.89751e-14)
(0.146728 1.0932e-07 2.88266e-14)
(0.146727 1.05841e-07 2.90902e-14)
(0.146727 1.02655e-07 2.91694e-14)
(0.146727 9.96773e-08 2.89864e-14)
(0.146727 9.68847e-08 2.90865e-14)
(0.146727 9.42628e-08 2.8919e-14)
(0.146727 9.17671e-08 2.91457e-14)
(0.146727 8.93627e-08 2.92324e-14)
(0.146727 8.70732e-08 2.90526e-14)
(0.146727 8.49324e-08 2.91126e-14)
(0.146727 8.2928e-08 2.90039e-14)
(0.146727 8.10215e-08 2.89204e-14)
(0.146727 7.91817e-08 2.88474e-14)
(0.146727 7.73951e-08 2.87858e-14)
(0.146727 7.56462e-08 2.87112e-14)
(0.146727 7.38974e-08 2.86756e-14)
(0.146727 7.2113e-08 2.86457e-14)
(0.146727 7.02738e-08 2.86008e-14)
(0.146727 6.83602e-08 2.85699e-14)
(0.146727 6.63424e-08 2.85415e-14)
(0.146727 6.41977e-08 2.85231e-14)
(0.146727 6.19225e-08 2.85039e-14)
(0.146727 5.9497e-08 2.84663e-14)
(0.146726 5.68848e-08 2.8443e-14)
(0.146726 5.41007e-08 2.8422e-14)
(0.146726 5.12042e-08 2.832e-14)
(0.146726 4.82143e-08 2.83243e-14)
(0.146726 4.50959e-08 2.83369e-14)
(0.146726 4.18398e-08 2.83524e-14)
(0.146726 3.84982e-08 2.83534e-14)
(0.146726 3.51133e-08 2.82661e-14)
(0.146726 3.16753e-08 2.82883e-14)
(0.146726 2.8175e-08 2.83044e-14)
(0.146726 2.46362e-08 2.83144e-14)
(0.146726 2.10891e-08 2.83137e-14)
(0.146726 1.75521e-08 2.82294e-14)
(0.146726 1.40298e-08 2.82454e-14)
(0.146726 1.05071e-08 2.82702e-14)
(0.146726 6.96414e-09 2.82893e-14)
(0.146726 3.41576e-09 2.8293e-14)
(0.146726 -9.20748e-11 2.82234e-14)
(0.146726 -3.53835e-09 2.82404e-14)
(0.146726 -6.94743e-09 2.82754e-14)
(0.146726 -1.03411e-08 2.8313e-14)
(0.146726 -1.37041e-08 2.83261e-14)
(0.146726 -1.70176e-08 2.82421e-14)
(0.146726 -2.02865e-08 2.82576e-14)
(0.146726 -2.35099e-08 2.82782e-14)
(0.146726 -2.66747e-08 2.83022e-14)
(0.146726 -2.97814e-08 2.83108e-14)
(0.146726 -3.28289e-08 2.82332e-14)
(0.146726 -3.58009e-08 2.8285e-14)
(0.146726 -3.86969e-08 2.82436e-14)
(0.146725 -4.153e-08 2.82638e-14)
(0.146725 -4.42886e-08 2.83235e-14)
(0.146725 -4.69408e-08 2.82567e-14)
(0.146725 -4.94673e-08 2.83274e-14)
(0.146725 -5.18596e-08 2.83128e-14)
(0.146725 -5.41094e-08 2.83258e-14)
(0.146725 -5.61955e-08 2.83786e-14)
(0.146725 -5.807e-08 2.83246e-14)
(0.146725 -5.96922e-08 2.83723e-14)
(0.146725 -6.1036e-08 2.83336e-14)
(0.146725 -6.20608e-08 2.83368e-14)
(0.146725 -6.26846e-08 2.83858e-14)
(0.146725 -6.28449e-08 2.83342e-14)
(0.146725 -6.23406e-08 2.83674e-14)
(0.146725 -6.10327e-08 2.83026e-14)
(0.146725 -5.87902e-08 2.83247e-14)
(0.146725 -5.41015e-08 2.83706e-14)
(0.146725 -6.50824e-08 2.82902e-14)
(0.146725 -8.22886e-08 2.83345e-14)
(0.146725 -8.44304e-08 2.82815e-14)
(0.146725 -8.06945e-08 2.82942e-14)
(0.146725 -9.02581e-08 2.83482e-14)
(0.146725 -1.07024e-07 2.82862e-14)
(0.146725 -1.11703e-07 2.83395e-14)
(0.146725 -1.11155e-07 2.82841e-14)
(0.146725 -1.08511e-07 2.82989e-14)
(0.146725 -1.04627e-07 2.83497e-14)
(0.146725 -9.9754e-08 2.82956e-14)
(0.146725 -9.39812e-08 2.83274e-14)
(0.146725 -8.72476e-08 2.83831e-14)
(0.146725 -7.94671e-08 2.83978e-14)
(0.146726 -7.02435e-08 2.84189e-14)
(0.146726 -5.94609e-08 2.83277e-14)
(0.146726 -4.61009e-08 2.8349e-14)
(0.146726 -3.0294e-08 2.83894e-14)
(0.146726 -1.07283e-08 2.83911e-14)
(0.146726 2.4545e-08 2.84064e-14)
(0.146726 -1.35943e-08 2.83345e-14)
(0.146295 -1.08029e-07 2.8019e-14)
(0.146295 -1.23226e-07 2.81236e-14)
(0.146296 -1.12973e-07 2.82238e-14)
(0.146296 -9.81659e-08 2.81213e-14)
(0.146296 -8.49342e-08 2.8211e-14)
(0.146296 -7.39606e-08 2.80485e-14)
(0.146296 -6.48095e-08 2.787e-14)
(0.146296 -5.69071e-08 2.80059e-14)
(0.146296 -4.98187e-08 2.79294e-14)
(0.146296 -4.329e-08 2.77778e-14)
(0.146296 -3.71696e-08 2.79191e-14)
(0.146296 -3.13577e-08 2.79157e-14)
(0.146296 -2.57989e-08 2.79865e-14)
(0.146296 -2.04774e-08 2.79141e-14)
(0.146296 -1.53524e-08 2.80237e-14)
(0.146296 -1.04179e-08 2.81181e-14)
(0.146296 -5.34056e-09 2.80977e-14)
(0.146297 -1.89098e-10 2.81031e-14)
(0.146297 6.70148e-09 2.80495e-14)
(0.146297 1.61418e-08 2.80881e-14)
(0.146297 2.38516e-08 2.83557e-14)
(0.146297 3.85724e-08 2.83141e-14)
(0.146297 6.45843e-08 2.82816e-14)
(0.146297 9.40851e-08 2.83969e-14)
(0.146297 1.174e-07 2.8319e-14)
(0.146297 1.2704e-07 2.86081e-14)
(0.146297 1.28122e-07 2.86948e-14)
(0.146297 1.25778e-07 2.86195e-14)
(0.146297 1.22511e-07 2.86748e-14)
(0.146297 1.19165e-07 2.85215e-14)
(0.146297 1.1594e-07 2.88437e-14)
(0.146297 1.12838e-07 2.8882e-14)
(0.146297 1.09855e-07 2.87582e-14)
(0.146297 1.07011e-07 2.87841e-14)
(0.146297 1.04307e-07 2.86124e-14)
(0.146297 1.01704e-07 2.88417e-14)
(0.146297 9.91747e-08 2.89407e-14)
(0.146297 9.6758e-08 2.8839e-14)
(0.146297 9.44846e-08 2.88725e-14)
(0.146297 9.23318e-08 2.86703e-14)
(0.146297 9.02648e-08 2.87144e-14)
(0.146297 8.82616e-08 2.86696e-14)
(0.146297 8.63115e-08 2.86064e-14)
(0.146297 8.43973e-08 2.84762e-14)
(0.146297 8.24846e-08 2.84656e-14)
(0.146297 8.0543e-08 2.84467e-14)
(0.146297 7.85557e-08 2.84131e-14)
(0.146297 7.65055e-08 2.83776e-14)
(0.146297 7.43641e-08 2.8287e-14)
(0.146296 7.21074e-08 2.83011e-14)
(0.146296 6.97277e-08 2.82884e-14)
(0.146296 6.72046e-08 2.82626e-14)
(0.146296 6.45114e-08 2.8234e-14)
(0.146296 6.16666e-08 2.82189e-14)
(0.146296 5.87193e-08 2.81294e-14)
(0.146296 5.5675e-08 2.81311e-14)
(0.146296 5.24995e-08 2.81488e-14)
(0.146296 4.92022e-08 2.81508e-14)
(0.146296 4.58396e-08 2.81528e-14)
(0.146296 4.24362e-08 2.80772e-14)
(0.146296 3.89785e-08 2.80962e-14)
(0.146296 3.54746e-08 2.81175e-14)
(0.146296 3.19452e-08 2.81149e-14)
(0.146296 2.84031e-08 2.81151e-14)
(0.146296 2.48663e-08 2.80386e-14)
(0.146296 2.13465e-08 2.80542e-14)
(0.146296 1.78266e-08 2.80837e-14)
(0.146296 1.42924e-08 2.80904e-14)
(0.146296 1.07711e-08 2.80956e-14)
(0.146296 7.29962e-09 2.80273e-14)
(0.146296 3.87682e-09 2.80467e-14)
(0.146296 4.7486e-10 2.80858e-14)
(0.146296 -2.91382e-09 2.81087e-14)
(0.146296 -6.26585e-09 2.81224e-14)
(0.146296 -9.56838e-09 2.80493e-14)
(0.146296 -1.28274e-08 2.80609e-14)
(0.146296 -1.60343e-08 2.80871e-14)
(0.146296 -1.91803e-08 2.8098e-14)
(0.146296 -2.22769e-08 2.81081e-14)
(0.146295 -2.53176e-08 2.80433e-14)
(0.146295 -2.82772e-08 2.80496e-14)
(0.146295 -3.11563e-08 2.80327e-14)
(0.146295 -3.39731e-08 2.80377e-14)
(0.146295 -3.67197e-08 2.80529e-14)
(0.146295 -3.93675e-08 2.80217e-14)
(0.146295 -4.18928e-08 2.80543e-14)
(0.146295 -4.42829e-08 2.80583e-14)
(0.146295 -4.65379e-08 2.80678e-14)
(0.146295 -4.86383e-08 2.80855e-14)
(0.146295 -5.05281e-08 2.80587e-14)
(0.146295 -5.21705e-08 2.80808e-14)
(0.146295 -5.35462e-08 2.80689e-14)
(0.146295 -5.46121e-08 2.8071e-14)
(0.146295 -5.52922e-08 2.80819e-14)
(0.146295 -5.55347e-08 2.80514e-14)
(0.146295 -5.52122e-08 2.80648e-14)
(0.146295 -5.41643e-08 2.80481e-14)
(0.146295 -5.27774e-08 2.80551e-14)
(0.146295 -4.95943e-08 2.80629e-14)
(0.146295 -5.99664e-08 2.80183e-14)
(0.146295 -7.74389e-08 2.80318e-14)
(0.146295 -8.33694e-08 2.80143e-14)
(0.146295 -8.35642e-08 2.80197e-14)
(0.146295 -9.26933e-08 2.8039e-14)
(0.146295 -1.07705e-07 2.80108e-14)
(0.146295 -1.14172e-07 2.80336e-14)
(0.146295 -1.16156e-07 2.80191e-14)
(0.146295 -1.15661e-07 2.80248e-14)
(0.146295 -1.13386e-07 2.80421e-14)
(0.146295 -1.09667e-07 2.80131e-14)
(0.146295 -1.04711e-07 2.80275e-14)
(0.146295 -9.85738e-08 2.80507e-14)
(0.146295 -9.12663e-08 2.80662e-14)
(0.146295 -8.24723e-08 2.80697e-14)
(0.146295 -7.21636e-08 2.80253e-14)
(0.146295 -5.93853e-08 2.8029e-14)
(0.146295 -4.43392e-08 2.80421e-14)
(0.146295 -2.60438e-08 2.80474e-14)
(0.146295 7.89686e-09 2.80531e-14)
(0.146295 -2.94623e-08 2.80173e-14)
(0.145849 -1.19724e-07 2.77113e-14)
(0.145849 -1.35992e-07 2.77928e-14)
(0.145849 -1.26912e-07 2.78976e-14)
(0.145849 -1.12799e-07 2.78811e-14)
(0.145849 -9.99042e-08 2.78434e-14)
(0.145849 -8.91016e-08 2.7827e-14)
(0.145849 -8.00314e-08 2.76428e-14)
(0.145849 -7.21363e-08 2.77469e-14)
(0.145849 -6.49821e-08 2.76742e-14)
(0.145849 -5.83112e-08 2.75562e-14)
(0.145849 -5.19782e-08 2.76712e-14)
(0.145849 -4.59035e-08 2.77433e-14)
(0.145849 -4.00521e-08 2.77638e-14)
(0.14585 -3.44111e-08 2.77562e-14)
(0.14585 -2.89385e-08 2.78326e-14)
(0.14585 -2.36301e-08 2.79235e-14)
(0.14585 -1.81873e-08 2.7929e-14)
(0.14585 -1.26074e-08 2.78995e-14)
(0.14585 -5.75199e-09 2.78487e-14)
(0.14585 3.98552e-09 2.79094e-14)
(0.14585 9.33571e-09 2.81227e-14)
(0.14585 1.87286e-08 2.8144e-14)
(0.14585 3.68698e-08 2.80677e-14)
(0.14585 6.15272e-08 2.81488e-14)
(0.14585 9.05804e-08 2.81251e-14)
(0.14585 1.1032e-07 2.82971e-14)
(0.145851 1.19837e-07 2.83985e-14)
(0.145851 1.22986e-07 2.83421e-14)
(0.145851 1.23045e-07 2.84047e-14)
(0.145851 1.21766e-07 2.83789e-14)
(0.145851 1.19898e-07 2.85408e-14)
(0.145851 1.17723e-07 2.85872e-14)
(0.145851 1.15393e-07 2.84875e-14)
(0.145851 1.13021e-07 2.85266e-14)
(0.145851 1.10668e-07 2.84772e-14)
(0.145851 1.08325e-07 2.85939e-14)
(0.145851 1.05985e-07 2.86675e-14)
(0.145851 1.03707e-07 2.85812e-14)
(0.14585 1.01532e-07 2.86164e-14)
(0.14585 9.94358e-08 2.85788e-14)
(0.14585 9.73896e-08 2.85083e-14)
(0.14585 9.53837e-08 2.84692e-14)
(0.14585 9.34156e-08 2.84034e-14)
(0.14585 9.14684e-08 2.8308e-14)
(0.14585 8.95126e-08 2.82764e-14)
(0.14585 8.75266e-08 2.82376e-14)
(0.14585 8.54977e-08 2.82134e-14)
(0.14585 8.34084e-08 2.81711e-14)
(0.14585 8.12317e-08 2.81174e-14)
(0.14585 7.89459e-08 2.80988e-14)
(0.14585 7.65382e-08 2.80688e-14)
(0.14585 7.39828e-08 2.80515e-14)
(0.14585 7.12652e-08 2.80164e-14)
(0.14585 6.84153e-08 2.80082e-14)
(0.14585 6.5473e-08 2.79044e-14)
(0.14585 6.24272e-08 2.79466e-14)
(0.14585 5.92441e-08 2.7967e-14)
(0.14585 5.5949e-08 2.79479e-14)
(0.14585 5.26028e-08 2.79496e-14)
(0.14585 4.92168e-08 2.78557e-14)
(0.14585 4.57733e-08 2.7919e-14)
(0.14585 4.2295e-08 2.79417e-14)
(0.14585 3.88057e-08 2.79162e-14)
(0.14585 3.5303e-08 2.79149e-14)
(0.14585 3.17979e-08 2.7821e-14)
(0.14585 2.8308e-08 2.78743e-14)
(0.14585 2.48166e-08 2.79066e-14)
(0.14585 2.13098e-08 2.78923e-14)
(0.14585 1.78264e-08 2.78966e-14)
(0.14585 1.44051e-08 2.78083e-14)
(0.14585 1.10286e-08 2.78687e-14)
(0.14585 7.65899e-09 2.79069e-14)
(0.145849 4.29504e-09 2.79061e-14)
(0.145849 9.67135e-10 2.79185e-14)
(0.145849 -2.3109e-09 2.78278e-14)
(0.145849 -5.54329e-09 2.78763e-14)
(0.145849 -8.71882e-09 2.79064e-14)
(0.145849 -1.18342e-08 2.78963e-14)
(0.145849 -1.49077e-08 2.79059e-14)
(0.145849 -1.79294e-08 2.78285e-14)
(0.145849 -2.08665e-08 2.7818e-14)
(0.145849 -2.37197e-08 2.78111e-14)
(0.145849 -2.65116e-08 2.78129e-14)
(0.145849 -2.92363e-08 2.77838e-14)
(0.145849 -3.18667e-08 2.77663e-14)
(0.145849 -3.43792e-08 2.77881e-14)
(0.145849 -3.67602e-08 2.78014e-14)
(0.145849 -3.90137e-08 2.78126e-14)
(0.145849 -4.11193e-08 2.77933e-14)
(0.145849 -4.30168e-08 2.77819e-14)
(0.145849 -4.46749e-08 2.77988e-14)
(0.145849 -4.60803e-08 2.78014e-14)
(0.145849 -4.71844e-08 2.78071e-14)
(0.145849 -4.79161e-08 2.77757e-14)
(0.145849 -4.82359e-08 2.77582e-14)
(0.145849 -4.80822e-08 2.77712e-14)
(0.145849 -4.72948e-08 2.77756e-14)
(0.145849 -4.65405e-08 2.77844e-14)
(0.145849 -4.4674e-08 2.77554e-14)
(0.145849 -5.32768e-08 2.77268e-14)
(0.145849 -6.84966e-08 2.77348e-14)
(0.145849 -7.62386e-08 2.7736e-14)
(0.145848 -7.96972e-08 2.77454e-14)
(0.145848 -8.93778e-08 2.77312e-14)
(0.145848 -1.03012e-07 2.77172e-14)
(0.145848 -1.1002e-07 2.7734e-14)
(0.145848 -1.13698e-07 2.77395e-14)
(0.145848 -1.15241e-07 2.77506e-14)
(0.145848 -1.14903e-07 2.77357e-14)
(0.145848 -1.12856e-07 2.77186e-14)
(0.145848 -1.09284e-07 2.7734e-14)
(0.145848 -1.04287e-07 2.77225e-14)
(0.145848 -9.79433e-08 2.77364e-14)
(0.145848 -9.00122e-08 2.77167e-14)
(0.145848 -8.05582e-08 2.76996e-14)
(0.145848 -6.87064e-08 2.77122e-14)
(0.145848 -5.47309e-08 2.77007e-14)
(0.145849 -3.79779e-08 2.77046e-14)
(0.145849 -5.74246e-09 2.76981e-14)
(0.145849 -4.2318e-08 2.76859e-14)
(0.145386 -1.2813e-07 2.74143e-14)
(0.145386 -1.45625e-07 2.74845e-14)
(0.145386 -1.38168e-07 2.7562e-14)
(0.145386 -1.25221e-07 2.76236e-14)
(0.145386 -1.13003e-07 2.74961e-14)
(0.145386 -1.02574e-07 2.75495e-14)
(0.145386 -9.3702e-08 2.74463e-14)
(0.145386 -8.58938e-08 2.75409e-14)
(0.145386 -7.874e-08 2.74993e-14)
(0.145386 -7.19858e-08 2.74048e-14)
(0.145386 -6.54944e-08 2.74764e-14)
(0.145386 -5.92109e-08 2.74859e-14)
(0.145386 -5.31196e-08 2.75616e-14)
(0.145386 -4.72102e-08 2.75549e-14)
(0.145386 -4.14422e-08 2.76731e-14)
(0.145387 -3.58116e-08 2.76398e-14)
(0.145387 -3.00625e-08 2.76572e-14)
(0.145387 -2.41232e-08 2.77045e-14)
(0.145387 -1.73308e-08 2.76551e-14)
(0.145387 -7.6352e-09 2.77606e-14)
(0.145387 -3.27812e-09 2.78283e-14)
(0.145387 2.4432e-09 2.78608e-14)
(0.145387 1.39349e-08 2.78272e-14)
(0.145387 3.17086e-08 2.7829e-14)
(0.145387 5.96404e-08 2.78393e-14)
(0.145387 8.45145e-08 2.79454e-14)
(0.145387 1.01112e-07 2.80023e-14)
(0.145388 1.1041e-07 2.80309e-14)
(0.145388 1.15001e-07 2.8046e-14)
(0.145388 1.16934e-07 2.80796e-14)
(0.145388 1.17372e-07 2.81711e-14)
(0.145388 1.16902e-07 2.81898e-14)
(0.145388 1.1586e-07 2.81788e-14)
(0.145388 1.14482e-07 2.81766e-14)
(0.145388 1.12916e-07 2.8186e-14)
(0.145388 1.11213e-07 2.82541e-14)
(0.145388 1.09393e-07 2.82862e-14)
(0.145388 1.07537e-07 2.82852e-14)
(0.145388 1.05707e-07 2.82653e-14)
(0.145388 1.03891e-07 2.82964e-14)
(0.145388 1.02066e-07 2.82657e-14)
(0.145388 1.00237e-07 2.82544e-14)
(0.145388 9.84136e-08 2.81775e-14)
(0.145388 9.65829e-08 2.81422e-14)
(0.145388 9.47215e-08 2.80813e-14)
(0.145388 9.28182e-08 2.80159e-14)
(0.145388 9.0866e-08 2.80059e-14)
(0.145388 8.88463e-08 2.79477e-14)
(0.145387 8.67332e-08 2.79412e-14)
(0.145387 8.45101e-08 2.78979e-14)
(0.145387 8.21597e-08 2.78413e-14)
(0.145387 7.96484e-08 2.78369e-14)
(0.145387 7.69738e-08 2.77867e-14)
(0.145387 7.41807e-08 2.77923e-14)
(0.145387 7.13027e-08 2.76418e-14)
(0.145387 6.83145e-08 2.7789e-14)
(0.145387 6.51827e-08 2.77887e-14)
(0.145387 6.19413e-08 2.77355e-14)
(0.145387 5.86539e-08 2.77442e-14)
(0.145387 5.5326e-08 2.75991e-14)
(0.145387 5.19374e-08 2.77756e-14)
(0.145387 4.85193e-08 2.7774e-14)
(0.145387 4.5102e-08 2.771e-14)
(0.145387 4.16732e-08 2.77139e-14)
(0.145387 3.8235e-08 2.75695e-14)
(0.145387 3.48074e-08 2.77192e-14)
(0.145387 3.13745e-08 2.77355e-14)
(0.145387 2.79187e-08 2.76868e-14)
(0.145387 2.44874e-08 2.7697e-14)
(0.145387 2.1129e-08 2.75578e-14)
(0.145387 1.78188e-08 2.77252e-14)
(0.145387 1.45081e-08 2.77363e-14)
(0.145387 1.11931e-08 2.7697e-14)
(0.145387 7.90699e-09 2.77146e-14)
(0.145387 4.67025e-09 2.75739e-14)
(0.145387 1.48301e-09 2.7716e-14)
(0.145387 -1.64657e-09 2.77325e-14)
(0.145387 -4.71973e-09 2.76886e-14)
(0.145387 -7.75548e-09 2.77044e-14)
(0.145387 -1.07421e-08 2.75808e-14)
(0.145387 -1.36437e-08 2.75857e-14)
(0.145387 -1.64612e-08 2.75856e-14)
(0.145387 -1.92197e-08 2.75869e-14)
(0.145386 -2.19129e-08 2.74988e-14)
(0.145386 -2.45128e-08 2.75005e-14)
(0.145386 -2.69991e-08 2.75264e-14)
(0.145386 -2.93624e-08 2.75459e-14)
(0.145386 -3.16055e-08 2.75595e-14)
(0.145386 -3.37048e-08 2.74856e-14)
(0.145386 -3.56011e-08 2.74982e-14)
(0.145386 -3.72693e-08 2.75226e-14)
(0.145386 -3.86994e-08 2.75342e-14)
(0.145386 -3.98371e-08 2.75433e-14)
(0.145386 -4.0616e-08 2.745e-14)
(0.145386 -4.10091e-08 2.74581e-14)
(0.145386 -4.10089e-08 2.74834e-14)
(0.145386 -4.04704e-08 2.74998e-14)
(0.145386 -4.01915e-08 2.7513e-14)
(0.145386 -3.93672e-08 2.7434e-14)
(0.145386 -4.66875e-08 2.74267e-14)
(0.145386 -5.92698e-08 2.74425e-14)
(0.145386 -6.68032e-08 2.74559e-14)
(0.145386 -7.18791e-08 2.74708e-14)
(0.145386 -8.19827e-08 2.74139e-14)
(0.145386 -9.46331e-08 2.74161e-14)
(0.145386 -1.0167e-07 2.74393e-14)
(0.145386 -1.06229e-07 2.74575e-14)
(0.145386 -1.09212e-07 2.74753e-14)
(0.145386 -1.10568e-07 2.74219e-14)
(0.145386 -1.10234e-07 2.74178e-14)
(0.145386 -1.0826e-07 2.74444e-14)
(0.145386 -1.04701e-07 2.73831e-14)
(0.145385 -9.96449e-08 2.74092e-14)
(0.145385 -9.28965e-08 2.73562e-14)
(0.145386 -8.45983e-08 2.7366e-14)
(0.145386 -7.3959e-08 2.7399e-14)
(0.145386 -6.13217e-08 2.73579e-14)
(0.145386 -4.63481e-08 2.73655e-14)
(0.145386 -1.61531e-08 2.73383e-14)
(0.145386 -5.20429e-08 2.73492e-14)
(0.144906 -1.33366e-07 2.71399e-14)
(0.144906 -1.52137e-07 2.71899e-14)
(0.144906 -1.46582e-07 2.72462e-14)
(0.144906 -1.35181e-07 2.74171e-14)
(0.144906 -1.23978e-07 2.72857e-14)
(0.144906 -1.14167e-07 2.72824e-14)
(0.144906 -1.05654e-07 2.72404e-14)
(0.144906 -9.80433e-08 2.73577e-14)
(0.144906 -9.09751e-08 2.73083e-14)
(0.144907 -8.42086e-08 2.72247e-14)
(0.144907 -7.76237e-08 2.73638e-14)
(0.144907 -7.11924e-08 2.72756e-14)
(0.144907 -6.49162e-08 2.73787e-14)
(0.144907 -5.87895e-08 2.73443e-14)
(0.144907 -5.27788e-08 2.74429e-14)
(0.144907 -4.68791e-08 2.74402e-14)
(0.144907 -4.08796e-08 2.74044e-14)
(0.144907 -3.4652e-08 2.75029e-14)
(0.144907 -2.79181e-08 2.74516e-14)
(0.144907 -1.84788e-08 2.75382e-14)
(0.144907 -1.44208e-08 2.75456e-14)
(0.144907 -1.08922e-08 2.75753e-14)
(0.144907 -4.22778e-09 2.75659e-14)
(0.144907 7.06617e-09 2.75251e-14)
(0.144907 3.04538e-08 2.75539e-14)
(0.144908 5.58648e-08 2.76279e-14)
(0.144908 7.65221e-08 2.7605e-14)
(0.144908 9.08478e-08 2.77174e-14)
(0.144908 9.99752e-08 2.7667e-14)
(0.144908 1.05564e-07 2.78155e-14)
(0.144908 1.08862e-07 2.78372e-14)
(0.144908 1.10634e-07 2.77817e-14)
(0.144908 1.11368e-07 2.78635e-14)
(0.144908 1.11412e-07 2.78412e-14)
(0.144908 1.11009e-07 2.79247e-14)
(0.144908 1.10278e-07 2.7938e-14)
(0.144908 1.09276e-07 2.78924e-14)
(0.144908 1.08108e-07 2.79807e-14)
(0.144908 1.06859e-07 2.79464e-14)
(0.144908 1.05537e-07 2.79993e-14)
(0.144908 1.04132e-07 2.79956e-14)
(0.144908 1.02661e-07 2.80329e-14)
(0.144908 1.01147e-07 2.79244e-14)
(0.144908 9.95862e-08 2.79686e-14)
(0.144908 9.79616e-08 2.7865e-14)
(0.144908 9.62724e-08 2.77741e-14)
(0.144908 9.45186e-08 2.77969e-14)
(0.144908 9.26804e-08 2.7702e-14)
(0.144908 9.0733e-08 2.77689e-14)
(0.144908 8.86666e-08 2.76822e-14)
(0.144908 8.64609e-08 2.75982e-14)
(0.144908 8.40759e-08 2.76246e-14)
(0.144908 8.1519e-08 2.75386e-14)
(0.144908 7.88488e-08 2.75757e-14)
(0.144908 7.60954e-08 2.74406e-14)
(0.144908 7.32261e-08 2.76016e-14)
(0.144908 7.02077e-08 2.75986e-14)
(0.144908 6.70759e-08 2.75026e-14)
(0.144908 6.38937e-08 2.75398e-14)
(0.144908 6.06678e-08 2.74073e-14)
(0.144908 5.73785e-08 2.7548e-14)
(0.144908 5.40598e-08 2.75948e-14)
(0.144908 5.0747e-08 2.74845e-14)
(0.144908 4.74256e-08 2.75153e-14)
(0.144908 4.409e-08 2.73831e-14)
(0.144908 4.07592e-08 2.75012e-14)
(0.144908 3.74159e-08 2.75535e-14)
(0.144908 3.4038e-08 2.74629e-14)
(0.144908 3.06784e-08 2.74999e-14)
(0.144908 2.73971e-08 2.73732e-14)
(0.144908 2.41709e-08 2.75017e-14)
(0.144908 2.09435e-08 2.75572e-14)
(0.144908 1.77029e-08 2.74696e-14)
(0.144908 1.44803e-08 2.75133e-14)
(0.144907 1.13044e-08 2.73862e-14)
(0.144907 8.18085e-09 2.74985e-14)
(0.144907 5.11179e-09 2.75482e-14)
(0.144907 2.09366e-09 2.74637e-14)
(0.144907 -8.88539e-10 2.75064e-14)
(0.144907 -3.82271e-09 2.73975e-14)
(0.144907 -6.6745e-09 2.73632e-14)
(0.144907 -9.44531e-09 2.73581e-14)
(0.144907 -1.2161e-08 2.73571e-14)
(0.144907 -1.48129e-08 2.71713e-14)
(0.144907 -1.73699e-08 2.72367e-14)
(0.144907 -1.98173e-08 2.72711e-14)
(0.144907 -2.21524e-08 2.7294e-14)
(0.144907 -2.43745e-08 2.73072e-14)
(0.144907 -2.6455e-08 2.71869e-14)
(0.144907 -2.834e-08 2.72176e-14)
(0.144907 -3.00115e-08 2.72526e-14)
(0.144907 -3.14592e-08 2.72693e-14)
(0.144907 -3.2624e-08 2.72783e-14)
(0.144907 -3.3446e-08 2.71398e-14)
(0.144907 -3.3908e-08 2.71628e-14)
(0.144907 -3.40451e-08 2.72027e-14)
(0.144907 -3.37356e-08 2.72261e-14)
(0.144907 -3.38248e-08 2.72409e-14)
(0.144907 -3.37741e-08 2.71148e-14)
(0.144907 -4.02027e-08 2.71305e-14)
(0.144907 -5.05186e-08 2.71574e-14)
(0.144907 -5.70289e-08 2.71785e-14)
(0.144907 -6.2406e-08 2.71955e-14)
(0.144906 -7.23137e-08 2.70406e-14)
(0.144906 -8.4059e-08 2.71199e-14)
(0.144906 -9.09008e-08 2.7151e-14)
(0.144906 -9.57527e-08 2.71771e-14)
(0.144906 -9.95102e-08 2.71978e-14)
(0.144906 -1.02045e-07 2.70448e-14)
(0.144906 -1.0313e-07 2.71217e-14)
(0.144906 -1.02657e-07 2.716e-14)
(0.144906 -1.00576e-07 2.70091e-14)
(0.144906 -9.69289e-08 2.70895e-14)
(0.144906 -9.15307e-08 2.69498e-14)
(0.144906 -8.45722e-08 2.70418e-14)
(0.144906 -7.53402e-08 2.70924e-14)
(0.144906 -6.42367e-08 2.70051e-14)
(0.144906 -5.12222e-08 2.70356e-14)
(0.144906 -2.33427e-08 2.69671e-14)
(0.144906 -5.86878e-08 2.70187e-14)
(0.14441 -1.35682e-07 2.67886e-14)
(0.14441 -1.5573e-07 2.69438e-14)
(0.14441 -1.52226e-07 2.69433e-14)
(0.14441 -1.42634e-07 2.70255e-14)
(0.14441 -1.32728e-07 2.69852e-14)
(0.14441 -1.23773e-07 2.70176e-14)
(0.14441 -1.15797e-07 2.7035e-14)
(0.14441 -1.08515e-07 2.70964e-14)
(0.14441 -1.01632e-07 2.70773e-14)
(0.14441 -9.49342e-08 2.70434e-14)
(0.14441 -8.8328e-08 2.70747e-14)
(0.14441 -8.18135e-08 2.70461e-14)
(0.14441 -7.54076e-08 2.71117e-14)
(0.14441 -6.91136e-08 2.71099e-14)
(0.14441 -6.29104e-08 2.71356e-14)
(0.14441 -5.67933e-08 2.71075e-14)
(0.14441 -5.05952e-08 2.71441e-14)
(0.14441 -4.41467e-08 2.72352e-14)
(0.144411 -3.74591e-08 2.72133e-14)
(0.144411 -2.8384e-08 2.72349e-14)
(0.144411 -2.4314e-08 2.72567e-14)
(0.144411 -2.19211e-08 2.72906e-14)
(0.144411 -1.84009e-08 2.72883e-14)
(0.144411 -1.21984e-08 2.73255e-14)
(0.144411 5.68339e-09 2.72869e-14)
(0.144411 2.86389e-08 2.73267e-14)
(0.144411 5.02999e-08 2.74156e-14)
(0.144411 6.7641e-08 2.74348e-14)
(0.144411 8.03496e-08 2.74873e-14)
(0.144411 8.93111e-08 2.74789e-14)
(0.144412 9.55216e-08 2.75119e-14)
(0.144412 9.97376e-08 2.75828e-14)
(0.144412 1.02502e-07 2.75746e-14)