/*--------------------------------*- C++ -*----------------------------------*\
  =========                 |
  \\      /  F ield         | OpenFOAM: The Open Source CFD Toolbox
   \\    /   O peration     | Website:  https://openfoam.org
    \\  /    A nd           | Version:  7
     \\/     M anipulation  |
\*---------------------------------------------------------------------------*/
FoamFile
{
    version     2.0;
    format      ascii;
    class       surfaceScalarField;
    location    "20000";
    object      phi;
}
// * * * * * * * * * * * * * * * * * * * * * * * * * * * * * * * * * * * * * //

dimensions      [0 3 -1 0 0 0 0];

internalField   nonuniform List<scalar> 
7846
(
0.000740078
-2.45089e-10
0.000740078
-2.92269e-10
0.000740079
-3.20979e-10
0.000740079
-3.43702e-10
0.000740079
-3.64011e-10
0.000740079
-3.82791e-10
0.000740079
-4.00262e-10
0.000740079
-4.16168e-10
0.000740079
-4.30384e-10
0.000740079
-4.43054e-10
0.000740079
-4.54199e-10
0.000740079
-4.63809e-10
0.000740079
-4.72054e-10
0.000740079
-4.78998e-10
0.000740079
-4.84637e-10
0.000740078
-4.89158e-10
0.000740078
-4.92707e-10
0.000740078
-4.95426e-10
0.000740078
-4.97307e-10
0.000740078
-4.98305e-10
0.000740078
-4.98461e-10
0.000740078
-4.97628e-10
0.000740078
-4.95822e-10
0.000740078
-4.92993e-10
0.000740078
-4.88977e-10
0.000740078
-4.83976e-10
0.000740078
-4.78192e-10
0.000740078
-4.7167e-10
0.000740078
-4.64668e-10
0.000740078
-4.5739e-10
0.000740078
-4.49825e-10
0.000740078
-4.42096e-10
0.000740078
-4.34139e-10
0.000740078
-4.25693e-10
0.000740078
-4.16418e-10
0.000740077
-4.05641e-10
0.000740077
-3.92492e-10
0.000740077
-3.75686e-10
0.000740077
-3.53196e-10
0.000740077
-3.22185e-10
0.000740077
-2.78361e-10
0.000740077
-2.15611e-10
0.000740077
-1.22897e-10
0.000740077
1.56271e-11
0.000740077
2.30014e-10
0.000740077
4.53735e-10
0.000740077
6.02906e-10
0.000740077
6.96296e-10
0.000740077
7.54249e-10
0.000740077
7.87387e-10
0.000740077
8.0347e-10
0.000740077
8.07687e-10
0.000740077
8.03386e-10
0.000740077
7.92917e-10
0.000740076
7.78176e-10
0.000740076
7.60372e-10
0.000740076
7.40098e-10
0.000740076
7.18123e-10
0.000740076
6.95154e-10
0.000740076
6.71402e-10
0.000740076
6.47086e-10
0.000740076
6.22304e-10
0.000740076
5.97201e-10
0.000740076
5.71995e-10
0.000740076
5.46657e-10
0.000740076
5.21289e-10
0.000740076
4.96048e-10
0.000740076
4.70926e-10
0.000740076
4.46006e-10
0.000740076
4.21287e-10
0.000740076
3.96875e-10
0.000740076
3.7268e-10
0.000740076
3.48512e-10
0.000740076
3.24314e-10
0.000740076
3.00116e-10
0.000740076
2.75953e-10
0.000740076
2.51547e-10
0.000740076
2.26871e-10
0.000740076
2.01779e-10
0.000740077
1.76176e-10
0.000740077
1.50156e-10
0.000740077
1.23575e-10
0.000740077
9.63187e-11
0.000740077
6.83653e-11
0.000740077
3.96543e-11
0.000740077
1.01138e-11
0.000740077
-2.0296e-11
0.000740077
-5.15111e-11
0.000740077
-8.34903e-11
0.000740077
-1.1618e-10
0.000740077
-1.49431e-10
0.000740077
-1.83159e-10
0.000740077
-2.1697e-10
0.000740077
-2.50352e-10
0.000740077
-2.82804e-10
0.000740077
-3.13372e-10
0.000740078
-3.40603e-10
0.000740078
-3.62532e-10
0.000740078
-3.76502e-10
0.000740078
-3.78214e-10
0.000740078
-3.61345e-10
0.000740078
-3.14913e-10
0.000740078
-2.22699e-10
0.000740078
-5.4402e-11
0.000740078
1.23749e-10
0.000740078
2.28301e-10
0.000740078
2.78427e-10
0.000740078
2.95048e-10
0.000740078
2.89221e-10
0.000740078
2.68999e-10
0.000740078
2.39711e-10
0.000740078
2.05072e-10
0.000740078
1.67652e-10
0.000740078
1.29493e-10
0.000740078
9.21956e-11
0.000740078
5.68571e-11
0.000740078
2.42285e-11
0.000740078
-7.20905e-12
0.000740078
-5.13707e-11
-1.47085e-10
0.000723
-3.00593e-10
0.000723
-3.53807e-10
0.000723
-3.72961e-10
0.000723
-3.82891e-10
0.000723
-3.90717e-10
0.000723
-3.98123e-10
0.000723
-4.05415e-10
0.000723
-4.12378e-10
0.000723
-4.18763e-10
0.000723
-4.2458e-10
0.000723
-4.29686e-10
0.000723
-4.34049e-10
0.000723
-4.3778e-10
0.000723
-4.40769e-10
0.000723
-4.43013e-10
0.000723
-4.44593e-10
0.000723
-4.45524e-10
0.000723
-4.46028e-10
0.000723
-4.46068e-10
0.000723
-4.45507e-10
0.000723
-4.44295e-10
0.000723
-4.42291e-10
0.000723
-4.39531e-10
0.000723
-4.35769e-10
0.000723
-4.30855e-10
0.000723
-4.25061e-10
0.000723
-4.18464e-10
0.000723
-4.11043e-10
0.000723
-4.03144e-10
0.000722999
-3.94972e-10
0.000722999
-3.86496e-10
0.000722999
-3.77812e-10
0.000722999
-3.68777e-10
0.000722999
-3.59144e-10
0.000722999
-3.48589e-10
0.000722999
-3.36341e-10
0.000722999
-3.21409e-10
0.000722999
-3.02563e-10
0.000722999
-2.77897e-10
0.000722999
-2.44527e-10
0.000722999
-1.98356e-10
0.000722999
-1.33892e-10
0.000722999
-4.19501e-11
0.000722998
8.79744e-11
0.000722998
2.73288e-10
0.000722998
4.68823e-10
0.000722998
6.12627e-10
0.000722998
7.0915e-10
0.000722998
7.71332e-10
0.000722998
8.0818e-10
0.000722998
8.27e-10
0.000722998
8.33073e-10
0.000722998
8.29877e-10
0.000722998
8.19801e-10
0.000722998
8.04885e-10
0.000722998
7.86365e-10
0.000722998
7.64924e-10
0.000722998
7.41447e-10
0.000722998
7.1664e-10
0.000722998
6.90787e-10
0.000722998
6.642e-10
0.000722998
6.36935e-10
0.000722998
6.09217e-10
0.000722998
5.8127e-10
0.000722998
5.5306e-10
0.000722998
5.24778e-10
0.000722998
4.96529e-10
0.000722998
4.68317e-10
0.000722998
4.40286e-10
0.000722998
4.12416e-10
0.000722998
3.8479e-10
0.000722998
3.57377e-10
0.000722998
3.30013e-10
0.000722998
3.02597e-10
0.000722998
2.75206e-10
0.000722998
2.47893e-10
0.000722998
2.2037e-10
0.000722998
1.92642e-10
0.000722998
1.64552e-10
0.000722998
1.3602e-10
0.000722998
1.07164e-10
0.000722998
7.7841e-11
0.000722998
4.79578e-11
0.000722998
1.75272e-11
0.000722999
-1.34844e-11
0.000722999
-4.51383e-11
0.000722999
-7.7461e-11
0.000722999
-1.1036e-10
0.000722999
-1.43736e-10
0.000722999
-1.77495e-10
0.000722999
-2.11524e-10
0.000722999
-2.4565e-10
0.000722999
-2.79387e-10
0.000722999
-3.12207e-10
0.000722999
-3.43583e-10
0.000722999
-3.72498e-10
0.000722999
-3.97531e-10
0.000722999
-4.16741e-10
0.000722999
-4.27513e-10
0.000722999
-4.25831e-10
0.000722999
-4.0588e-10
0.000722999
-3.58526e-10
0.000723
-2.72843e-10
0.000723
-1.31187e-10
0.000723
2.16437e-11
0.000723
1.24283e-10
0.000723
1.81649e-10
0.000723
2.07414e-10
0.000723
2.11167e-10
0.000723
2.00631e-10
0.000723
1.81306e-10
0.000723
1.57203e-10
0.000723
1.31215e-10
0.000723
1.05686e-10
0.000723
8.24271e-11
0.000723
6.27346e-11
0.000723
4.73735e-11
0.000723
3.29617e-11
0.000723
-7.47088e-12
-1.50367e-10
0.000706262
-3.54487e-10
0.000706262
-4.12978e-10
0.000706262
-4.21668e-10
0.000706262
-4.17915e-10
0.000706262
-4.12477e-10
0.000706262
-4.07871e-10
0.000706262
-4.04461e-10
0.000706262
-4.0198e-10
0.000706262
-4.00141e-10
0.000706262
-3.98741e-10
0.000706262
-3.9748e-10
0.000706262
-3.96334e-10
0.000706262
-3.95292e-10
0.000706262
-3.94093e-10
0.000706262
-3.9272e-10
0.000706261
-3.91176e-10
0.000706261
-3.89432e-10
0.000706261
-3.87694e-10
0.000706261
-3.85868e-10
0.000706261
-3.83748e-10
0.000706261
-3.81171e-10
0.000706261
-3.78066e-10
0.000706261
-3.74415e-10
0.000706261
-3.69802e-10
0.000706261
-3.64076e-10
0.000706261
-3.57522e-10
0.000706261
-3.50105e-10
0.000706261
-3.41875e-10
0.000706261
-3.33232e-10
0.000706261
-3.24327e-10
0.000706261
-3.15116e-10
0.00070626
-3.05701e-10
0.00070626
-2.95897e-10
0.00070626
-2.85483e-10
0.00070626
-2.74085e-10
0.00070626
-2.60921e-10
0.00070626
-2.44985e-10
0.00070626
-2.2499e-10
0.00070626
-1.99242e-10
0.00070626
-1.64901e-10
0.00070626
-1.18162e-10
0.00070626
-5.43956e-11
0.00070626
3.37251e-11
0.00070626
1.52891e-10
0.000706259
3.12061e-10
0.000706259
4.80767e-10
0.000706259
6.15112e-10
0.000706259
7.12028e-10
0.000706259
7.77757e-10
0.000706259
8.18604e-10
0.000706259
8.40699e-10
0.000706259
8.49181e-10
0.000706259
8.47529e-10
0.000706259
8.38211e-10
0.000706259
8.2345e-10
0.000706259
8.04539e-10
0.000706259
7.82276e-10
0.000706259
7.57631e-10
0.000706259
7.31311e-10
0.000706259
7.03633e-10
0.000706259
6.75052e-10
0.000706259
6.4562e-10
0.000706259
6.15597e-10
0.000706259
5.85232e-10
0.000706259
5.54508e-10
0.000706259
5.23651e-10
0.000706259
4.92679e-10
0.000706259
4.61697e-10
0.000706259
4.30902e-10
0.000706259
4.00201e-10
0.000706259
3.69725e-10
0.000706259
3.39479e-10
0.000706259
3.09247e-10
0.000706259
2.78898e-10
0.000706259
2.48602e-10
0.000706259
2.1846e-10
0.000706259
1.88155e-10
0.000706259
1.57672e-10
0.00070626
1.2683e-10
0.00070626
9.56745e-11
0.00070626
6.42844e-11
0.00070626
3.24649e-11
0.00070626
2.25366e-13
0.00070626
-3.24123e-11
0.00070626
-6.54731e-11
0.00070626
-9.90428e-11
0.00070626
-1.33058e-10
0.00070626
-1.67415e-10
0.00070626
-2.01996e-10
0.00070626
-2.36644e-10
0.00070626
-2.71333e-10
0.00070626
-3.05766e-10
0.00070626
-3.39382e-10
0.00070626
-3.71654e-10
0.00070626
-4.02028e-10
0.00070626
-4.295e-10
0.00070626
-4.52703e-10
0.000706261
-4.69727e-10
0.000706261
-4.78159e-10
0.000706261
-4.74388e-10
0.000706261
-4.53243e-10
0.000706261
-4.07519e-10
0.000706261
-3.30173e-10
0.000706261
-2.11859e-10
0.000706261
-8.25955e-11
0.000706261
1.43032e-11
0.000706261
7.64787e-11
0.000706261
1.11031e-10
0.000706261
1.24893e-10
0.000706261
1.24769e-10
0.000706262
1.16147e-10
0.000706262
1.03216e-10
0.000706262
8.91601e-11
0.000706262
7.66903e-11
0.000706262
6.78934e-11
0.000706262
6.42082e-11
0.000706262
6.6447e-11
0.000706262
6.95296e-11
0.000706262
3.39142e-11
-1.53858e-10
0.00068986
-4.0581e-10
0.00068986
-4.68875e-10
0.00068986
-4.66404e-10
0.00068986
-4.48196e-10
0.00068986
-4.28725e-10
0.00068986
-4.11435e-10
0.00068986
-3.96756e-10
0.00068986
-3.84282e-10
0.00068986
-3.73719e-10
0.00068986
-3.64754e-10
0.00068986
-3.56885e-10
0.00068986
-3.49977e-10
0.00068986
-3.43926e-10
0.00068986
-3.38396e-10
0.00068986
-3.33216e-10
0.00068986
-3.28423e-10
0.00068986
-3.24022e-10
0.000689859
-3.20083e-10
0.000689859
-3.16442e-10
0.000689859
-3.12849e-10
0.000689859
-3.09069e-10
0.000689859
-3.0499e-10
0.000689859
-3.00517e-10
0.000689859
-2.95114e-10
0.000689859
-2.88667e-10
0.000689859
-2.81498e-10
0.000689859
-2.73462e-10
0.000689859
-2.64566e-10
0.000689859
-2.55323e-10
0.000689859
-2.45877e-10
0.000689859
-2.36141e-10
0.000689858
-2.26274e-10
0.000689858
-2.16123e-10
0.000689858
-2.05453e-10
0.000689858
-1.9374e-10
0.000689858
-1.80251e-10
0.000689858
-1.64063e-10
0.000689858
-1.43879e-10
0.000689858
-1.18115e-10
0.000689858
-8.40999e-11
0.000689858
-3.83904e-11
0.000689858
2.2809e-11
0.000689858
1.05154e-10
0.000689858
2.12697e-10
0.000689857
3.49221e-10
0.000689857
4.93678e-10
0.000689857
6.15338e-10
0.000689857
7.08535e-10
0.000689857
7.75144e-10
0.000689857
8.18731e-10
0.000689857
8.43841e-10
0.000689857
8.54881e-10
0.000689857
8.55033e-10
0.000689857
8.46837e-10
0.000689857
8.32555e-10
0.000689857
8.13649e-10
0.000689857
7.90971e-10
0.000689857
7.65463e-10
0.000689857
7.37951e-10
0.000689857
7.0878e-10
0.000689857
6.78566e-10
0.000689857
6.47345e-10
0.000689857
6.1528e-10
0.000689857
5.82811e-10
0.000689857
5.49999e-10
0.000689857
5.16894e-10
0.000689857
4.83506e-10
0.000689857
4.50108e-10
0.000689857
4.16916e-10
0.000689857
3.83754e-10
0.000689857
3.50805e-10
0.000689857
3.18047e-10
0.000689858
2.85228e-10
0.000689858
2.52276e-10
0.000689858
2.19368e-10
0.000689858
1.8672e-10
0.000689858
1.53988e-10
0.000689858
1.21016e-10
0.000689858
8.77158e-11
0.000689858
5.42059e-11
0.000689858
2.05676e-11
0.000689858
-1.34292e-11
0.000689858
-4.76972e-11
0.000689858
-8.22922e-11
0.000689858
-1.1726e-10
0.000689858
-1.52515e-10
0.000689858
-1.8796e-10
0.000689858
-2.23515e-10
0.000689858
-2.59148e-10
0.000689858
-2.94595e-10
0.000689858
-3.29762e-10
0.000689858
-3.64369e-10
0.000689858
-3.97802e-10
0.000689859
-4.29559e-10
0.000689859
-4.59017e-10
0.000689859
-4.85155e-10
0.000689859
-5.06778e-10
0.000689859
-5.22067e-10
0.000689859
-5.28884e-10
0.000689859
-5.24006e-10
0.000689859
-5.02986e-10
0.000689859
-4.60398e-10
0.000689859
-3.91782e-10
0.000689859
-2.92842e-10
0.000689859
-1.84253e-10
0.000689859
-9.59942e-11
0.000689859
-3.27978e-11
0.000689859
8.13855e-12
0.00068986
3.11017e-11
0.00068986
4.13246e-11
0.00068986
4.37676e-11
0.00068986
4.25526e-11
0.00068986
4.1018e-11
0.00068986
4.20695e-11
0.00068986
4.81238e-11
0.00068986
6.08893e-11
0.00068986
8.12629e-11
0.00068986
1.02495e-10
0.00068986
7.32317e-11
-1.56712e-10
0.000673792
-4.53419e-10
0.000673792
-5.20322e-10
0.000673792
-5.06195e-10
0.000673792
-4.72948e-10
0.000673792
-4.38702e-10
0.000673792
-4.08066e-10
0.000673792
-3.81624e-10
0.000673792
-3.58717e-10
0.000673792
-3.38954e-10
0.000673792
-3.22099e-10
0.000673792
-3.07432e-10
0.000673792
-2.94524e-10
0.000673792
-2.8324e-10
0.000673792
-2.73339e-10
0.000673791
-2.64387e-10
0.000673791
-2.5631e-10
0.000673791
-2.49251e-10
0.000673791
-2.43161e-10
0.000673791
-2.37808e-10
0.000673791
-2.3288e-10
0.000673791
-2.28095e-10
0.000673791
-2.23254e-10
0.000673791
-2.18128e-10
0.000673791
-2.12108e-10
0.000673791
-2.05117e-10
0.000673791
-1.97493e-10
0.00067379
-1.89019e-10
0.00067379
-1.79652e-10
0.00067379
-1.6999e-10
0.00067379
-1.603e-10
0.00067379
-1.50376e-10
0.00067379
-1.40392e-10
0.00067379
-1.30349e-10
0.00067379
-1.19921e-10
0.00067379
-1.0852e-10
0.00067379
-9.54434e-11
0.00067379
-7.9784e-11
0.00067379
-6.02912e-11
0.000673789
-3.55503e-11
0.000673789
-3.11449e-12
0.000673789
4.01505e-11
0.000673789
9.73524e-11
0.000673789
1.72662e-10
0.000673789
2.68356e-10
0.000673789
3.85352e-10
0.000673789
5.08473e-10
0.000673789
6.16052e-10
0.000673789
7.02174e-10
0.000673789
7.66404e-10
0.000673789
8.10448e-10
0.000673789
8.37275e-10
0.000673789
8.50214e-10
0.000673789
8.52039e-10
0.000673789
8.45063e-10
0.000673789
8.31446e-10
0.000673789
8.12813e-10
0.000673789
7.89982e-10
0.000673789
7.63874e-10
0.000673789
7.35528e-10
0.000673789
7.05292e-10
0.000673789
6.73795e-10
0.000673789
6.41122e-10
0.000673789
6.07393e-10
0.000673789
5.73166e-10
0.000673789
5.38566e-10
0.000673789
5.0354e-10
0.000673789
4.68177e-10
0.000673789
4.32772e-10
0.000673789
3.9754e-10
0.000673789
3.62243e-10
0.000673789
3.27076e-10
0.000673789
2.92098e-10
0.000673789
2.5704e-10
0.000673789
2.21868e-10
0.000673789
1.86744e-10
0.000673789
1.5196e-10
0.000673789
1.17031e-10
0.000673789
8.18702e-11
0.00067379
4.64795e-11
0.00067379
1.08454e-11
0.00067379
-2.47776e-11
0.00067379
-6.05894e-11
0.00067379
-9.6645e-11
0.00067379
-1.32994e-10
0.00067379
-1.69542e-10
0.00067379
-2.06213e-10
0.00067379
-2.42937e-10
0.00067379
-2.79505e-10
0.00067379
-3.15988e-10
0.00067379
-3.52071e-10
0.00067379
-3.87574e-10
0.00067379
-4.22216e-10
0.00067379
-4.55357e-10
0.00067379
-4.86538e-10
0.00067379
-5.15132e-10
0.00067379
-5.40126e-10
0.00067379
-5.60366e-10
0.000673791
-5.7422e-10
0.000673791
-5.79916e-10
0.000673791
-5.74702e-10
0.000673791
-5.54686e-10
0.000673791
-5.1594e-10
0.000673791
-4.55738e-10
0.000673791
-3.7262e-10
0.000673791
-2.81406e-10
0.000673791
-2.0285e-10
0.000673791
-1.41764e-10
0.000673791
-9.74855e-11
0.000673791
-6.74808e-11
0.000673791
-4.79004e-11
0.000673792
-3.48149e-11
0.000673792
-2.43058e-11
0.000673792
-1.30189e-11
0.000673792
1.94008e-12
0.000673792
2.33143e-11
0.000673792
5.29555e-11
0.000673792
9.18912e-11
0.000673792
1.32081e-10
0.000673792
1.11154e-10
-1.5793e-10
0.000658053
-4.96124e-10
0.000658054
-5.66036e-10
0.000658054
-5.39714e-10
0.000658054
-4.90945e-10
0.000658054
-4.41452e-10
0.000658054
-3.9698e-10
0.000658054
-3.58265e-10
0.000658054
-3.24592e-10
0.000658053
-2.95439e-10
0.000658053
-2.70448e-10
0.000658053
-2.48729e-10
0.000658053
-2.29712e-10
0.000658053
-2.13156e-10
0.000658053
-1.98813e-10
0.000658053
-1.86206e-10
0.000658053
-1.74987e-10
0.000658053
-1.65296e-10
0.000658053
-1.57147e-10
0.000658053
-1.50242e-10
0.000658053
-1.44181e-10
0.000658053
-1.38621e-10
0.000658052
-1.33285e-10
0.000658052
-1.27802e-10
0.000658052
-1.21497e-10
0.000658052
-1.14212e-10
0.000658052
-1.06256e-10
0.000658052
-9.74845e-11
0.000658052
-8.79233e-11
0.000658052
-7.8165e-11
0.000658052
-6.85207e-11
0.000658052
-5.87728e-11
0.000658052
-4.91684e-11
0.000658051
-3.97333e-11
0.000658051
-3.00487e-11
0.000658051
-1.96596e-11
0.000658051
-7.78395e-12
0.000658051
6.49071e-12
0.000658051
2.43594e-11
0.000658051
4.7017e-11
0.000658051
7.68037e-11
0.000658051
1.1651e-10
0.000658051
1.68547e-10
0.000658051
2.35992e-10
0.000658051
3.1994e-10
0.000658051
4.1987e-10
0.000658051
5.24358e-10
0.000658051
6.17711e-10
0.000658051
6.94682e-10
0.000658051
7.53921e-10
0.000658051
7.96059e-10
0.000658051
8.22683e-10
0.000658051
8.363e-10
0.000658051
8.39164e-10
0.000658051
8.32993e-10
0.000658051
8.19956e-10
0.000658051
8.0169e-10
0.000658051
7.78856e-10
0.000658051
7.52387e-10
0.000658051
7.23436e-10
0.000658051
6.92441e-10
0.000658051
6.60036e-10
0.000658051
6.26271e-10
0.000658051
5.9127e-10
0.000658051
5.55599e-10
0.000658051
5.1951e-10
0.000658051
4.8299e-10
0.000658051
4.46069e-10
0.000658051
4.09031e-10
0.000658051
3.72047e-10
0.000658051
3.34938e-10
0.000658051
2.97921e-10
0.000658051
2.61008e-10
0.000658051
2.24046e-10
0.000658051
1.87088e-10
0.000658051
1.50163e-10
0.000658051
1.13461e-10
0.000658051
7.6528e-11
0.000658051
3.95322e-11
0.000658051
2.4235e-12
0.000658051
-3.4949e-11
0.000658051
-7.23136e-11
0.000658051
-1.09743e-10
0.000658051
-1.47249e-10
0.000658051
-1.85076e-10
0.000658052
-2.22956e-10
0.000658052
-2.60766e-10
0.000658052
-2.98573e-10
0.000658052
-3.36047e-10
0.000658052
-3.73175e-10
0.000658052
-4.0965e-10
0.000658052
-4.45246e-10
0.000658052
-4.79779e-10
0.000658052
-5.12667e-10
0.000658052
-5.43184e-10
0.000658052
-5.70783e-10
0.000658052
-5.94708e-10
0.000658052
-6.1378e-10
0.000658052
-6.26515e-10
0.000658052
-6.31473e-10
0.000658052
-6.26344e-10
0.000658052
-6.07834e-10
0.000658052
-5.73208e-10
0.000658053
-5.20805e-10
0.000658053
-4.50679e-10
0.000658053
-3.73786e-10
0.000658053
-3.04656e-10
0.000658053
-2.47437e-10
0.000658053
-2.02274e-10
0.000658053
-1.67419e-10
0.000658053
-1.40148e-10
0.000658053
-1.17433e-10
0.000658053
-9.5674e-11
0.000658053
-7.17052e-11
0.000658053
-4.26892e-11
0.000658054
-5.72028e-12
0.000658054
4.1118e-11
0.000658054
9.90597e-11
0.000658053
1.59067e-10
0.000658053
1.48766e-10
-1.56271e-10
0.000642641
-5.32513e-10
0.000642641
-6.0461e-10
0.000642641
-5.65463e-10
0.000642641
-5.00662e-10
0.000642641
-4.35741e-10
0.000642641
-3.77278e-10
0.000642641
-3.25994e-10
0.000642641
-2.81289e-10
0.000642641
-2.42684e-10
0.000642641
-2.09445e-10
0.000642641
-1.80598e-10
0.00064264
-1.55514e-10
0.00064264
-1.33764e-10
0.00064264
-1.14992e-10
0.00064264
-9.87207e-11
0.00064264
-8.45998e-11
0.00064264
-7.24802e-11
0.00064264
-6.24847e-11
0.00064264
-5.42795e-11
0.00064264
-4.73867e-11
0.00064264
-4.14568e-11
0.00064264
-3.59264e-11
0.000642639
-3.03913e-11
0.000642639
-2.41297e-11
0.000642639
-1.68074e-11
0.000642639
-8.72091e-12
0.000642639
7.31577e-14
0.000642639
9.58356e-12
0.000642639
1.91089e-11
0.000642639
2.83869e-11
0.000642639
3.75365e-11
0.000642639
4.6108e-11
0.000642638
5.43489e-11
0.000642638
6.26661e-11
0.000642638
7.13025e-11
0.000642638
8.11599e-11
0.000642638
9.31696e-11
0.000642638
1.08428e-10
0.000642638
1.28011e-10
0.000642638
1.54192e-10
0.000642638
1.89346e-10
0.000642638
2.35322e-10
0.000642638
2.94389e-10
0.000642638
3.66869e-10
0.000642638
4.51616e-10
0.000642638
5.3969e-10
0.000642638
6.19435e-10
0.000642638
6.8643e-10
0.000642638
7.38907e-10
0.000642638
7.77047e-10
0.000642638
8.0167e-10
0.000642638
8.14529e-10
0.000642638
8.17337e-10
0.000642638
8.11295e-10
0.000642638
7.98549e-10
0.000642638
7.80523e-10
0.000642638
7.5767e-10
0.000642638
7.31008e-10
0.000642638
7.0159e-10
0.000642638
6.70005e-10
0.000642638
6.36994e-10
0.000642638
6.02427e-10
0.000642638
5.66446e-10
0.000642638
5.29739e-10
0.000642638
4.9255e-10
0.000642638
4.54881e-10
0.000642638
4.16709e-10
0.000642638
3.78352e-10
0.000642638
3.39941e-10
0.000642638
3.01383e-10
0.000642638
2.62932e-10
0.000642638
2.24438e-10
0.000642638
1.85925e-10
0.000642638
1.47536e-10
0.000642638
1.09077e-10
0.000642638
7.07003e-11
0.000642638
3.2165e-11
0.000642638
-6.31245e-12
0.000642638
-4.48731e-11
0.000642639
-8.36433e-11
0.000642639
-1.2246e-10
0.000642639
-1.61285e-10
0.000642639
-1.99974e-10
0.000642639
-2.38896e-10
0.000642639
-2.7785e-10
0.000642639
-3.16667e-10
0.000642639
-3.55259e-10
0.000642639
-3.93419e-10
0.000642639
-4.31053e-10
0.000642639
-4.67723e-10
0.000642639
-5.03284e-10
0.000642639
-5.37554e-10
0.000642639
-5.69982e-10
0.000642639
-5.99767e-10
0.000642639
-6.26376e-10
0.000642639
-6.49231e-10
0.000642639
-6.67231e-10
0.00064264
-6.79074e-10
0.00064264
-6.83534e-10
0.00064264
-6.7866e-10
0.00064264
-6.61971e-10
0.00064264
-6.31502e-10
0.00064264
-5.86104e-10
0.00064264
-5.26731e-10
0.00064264
-4.6163e-10
0.00064264
-4.01085e-10
0.00064264
-3.48396e-10
0.00064264
-3.03724e-10
0.00064264
-2.65733e-10
0.00064264
-2.32545e-10
0.000642641
-2.01475e-10
0.000642641
-1.69259e-10
0.000642641
-1.3298e-10
0.000642641
-8.99715e-11
0.000642641
-3.74074e-11
0.000642641
2.68323e-11
0.000642641
1.04218e-10
0.000642641
1.84849e-10
0.000642641
1.87463e-10
-1.50318e-10
0.000627549
-5.60883e-10
0.000627549
-6.34385e-10
0.000627549
-5.81972e-10
0.000627549
-5.00861e-10
0.000627549
-4.20307e-10
0.000627549
-3.4779e-10
0.000627549
-2.83926e-10
0.000627549
-2.28215e-10
0.000627549
-1.80225e-10
0.000627549
-1.38868e-10
0.000627549
-1.0296e-10
0.000627549
-7.19017e-11
0.000627548
-4.52603e-11
0.000627548
-2.2284e-11
0.000627548
-2.48901e-12
0.000627548
1.43666e-11
0.000627548
2.86183e-11
0.000627548
4.01359e-11
0.000627548
4.92968e-11
0.000627548
5.6626e-11
0.000627548
6.24936e-11
0.000627548
6.77846e-11
0.000627547
7.29801e-11
0.000627547
7.891e-11
0.000627547
8.60552e-11
0.000627547
9.39758e-11
0.000627547
1.02559e-10
0.000627547
1.11694e-10
0.000627547
1.20536e-10
0.000627547
1.28949e-10
0.000627547
1.36976e-10
0.000627546
1.44002e-10
0.000627546
1.50334e-10
0.000627546
1.56465e-10
0.000627546
1.62585e-10
0.000627546
1.69547e-10
0.000627546
1.78456e-10
0.000627546
1.90244e-10
0.000627546
2.05843e-10
0.000627546
2.27429e-10
0.000627546
2.57075e-10
0.000627546
2.9628e-10
0.000627546
3.46714e-10
0.000627546
4.08163e-10
0.000627546
4.79134e-10
0.000627546
5.52555e-10
0.000627546
6.19621e-10
0.000627546
6.76511e-10
0.000627546
7.21316e-10
0.000627546
7.54026e-10
0.000627546
7.75244e-10
0.000627546
7.86059e-10
0.000627546
7.87648e-10
0.000627546
7.81067e-10
0.000627546
7.68082e-10
0.000627546
7.49844e-10
0.000627546
7.26791e-10
0.000627546
7.00005e-10
0.000627546
6.70314e-10
0.000627546
6.38321e-10
0.000627546
6.04804e-10
0.000627546
5.69588e-10
0.000627546
5.33032e-10
0.000627546
4.95703e-10
0.000627546
4.57616e-10
0.000627546
4.19016e-10
0.000627546
3.79929e-10
0.000627546
3.40505e-10
0.000627546
3.01103e-10
0.000627546
2.61484e-10
0.000627546
2.21866e-10
0.000627546
1.82242e-10
0.000627546
1.42548e-10
0.000627546
1.02921e-10
0.000627546
6.32015e-11
0.000627547
2.36502e-11
0.000627547
-1.6029e-11
0.000627547
-5.57716e-11
0.000627547
-9.55965e-11
0.000627547
-1.3555e-10
0.000627547
-1.75433e-10
0.000627547
-2.15295e-10
0.000627547
-2.55057e-10
0.000627547
-2.94758e-10
0.000627547
-3.34385e-10
0.000627547
-3.73995e-10
0.000627547
-4.13166e-10
0.000627547
-4.51697e-10
0.000627547
-4.89647e-10
0.000627547
-5.26479e-10
0.000627547
-5.61955e-10
0.000627547
-5.95772e-10
0.000627547
-6.27464e-10
0.000627548
-6.5644e-10
0.000627548
-6.82078e-10
0.000627548
-7.0387e-10
0.000627548
-7.20818e-10
0.000627548
-7.31727e-10
0.000627548
-7.35779e-10
0.000627548
-7.31469e-10
0.000627548
-7.16714e-10
0.000627548
-6.90091e-10
0.000627548
-6.50945e-10
0.000627548
-6.00594e-10
0.000627548
-5.45209e-10
0.000627548
-4.9224e-10
0.000627548
-4.44095e-10
0.000627548
-4.00545e-10
0.000627549
-3.60591e-10
0.000627549
-3.22694e-10
0.000627549
-2.84211e-10
0.000627549
-2.42335e-10
0.000627549
-1.94442e-10
0.000627549
-1.37743e-10
0.000627549
-6.95128e-11
0.000627549
1.23436e-11
0.000627549
1.09418e-10
0.000627549
2.11321e-10
0.000627549
2.28981e-10
-1.38392e-10
0.000612773
-5.79483e-10
0.000612773
-6.53614e-10
0.000612773
-5.8769e-10
0.000612773
-4.90154e-10
0.000612773
-3.93908e-10
0.000612773
-3.07443e-10
0.000612773
-2.31353e-10
0.000612773
-1.6496e-10
0.000612773
-1.07729e-10
0.000612773
-5.8539e-11
0.000612773
-1.58948e-11
0.000612772
2.08081e-11
0.000612772
5.20608e-11
0.000612772
7.88528e-11
0.000612772
1.01695e-10
0.000612772
1.21057e-10
0.000612772
1.37124e-10
0.000612772
1.49765e-10
0.000612772
1.59444e-10
0.000612772
1.667e-10
0.000612772
1.7218e-10
0.000612771
1.76803e-10
0.000612771
1.81142e-10
0.000612771
1.8641e-10
0.000612771
1.92996e-10
0.000612771
2.00355e-10
0.000612771
2.08471e-10
0.000612771
2.16807e-10
0.000612771
2.24588e-10
0.000612771
2.3165e-10
0.00061277
2.37916e-10
0.00061277
2.42769e-10
0.00061277
2.464e-10
0.00061277
2.4945e-10
0.00061277
2.52242e-10
0.00061277
2.555e-10
0.00061277
2.60355e-10
0.00061277
2.67748e-10
0.00061277
2.78517e-10
0.00061277
2.94632e-10
0.00061277
3.18089e-10
0.00061277
3.50009e-10
0.00061277
3.91572e-10
0.000612769
4.42446e-10
0.000612769
5.00817e-10
0.000612769
5.6106e-10
0.000612769
6.16388e-10
0.000612769
6.63398e-10
0.000612769
7.00293e-10
0.00061277
7.27015e-10
0.00061277
7.43838e-10
0.00061277
7.51542e-10
0.00061277
7.51057e-10
0.00061277
7.4321e-10
0.00061277
7.29381e-10
0.00061277
7.10576e-10
0.00061277
6.87117e-10
0.00061277
6.60016e-10
0.00061277
6.30173e-10
0.00061277
5.97908e-10
0.00061277
5.63935e-10
0.00061277
5.28295e-10
0.00061277
4.9137e-10
0.00061277
4.5365e-10
0.00061277
4.14989e-10
0.00061277
3.75772e-10
0.00061277
3.35999e-10
0.00061277
2.95774e-10
0.00061277
2.55703e-10
0.00061277
2.15359e-10
0.00061277
1.74975e-10
0.00061277
1.34594e-10
0.00061277
9.40504e-11
0.000612771
5.34233e-11
0.000612771
1.27233e-11
0.000612771
-2.76381e-11
0.000612771
-6.81984e-11
0.000612771
-1.08917e-10
0.000612771
-1.49634e-10
0.000612771
-1.90481e-10
0.000612771
-2.31203e-10
0.000612771
-2.71821e-10
0.000612771
-3.12295e-10
0.000612771
-3.5261e-10
0.000612771
-3.92734e-10
0.000612771
-4.32698e-10
0.000612771
-4.72161e-10
0.000612771
-5.10979e-10
0.000612771
-5.49056e-10
0.000612771
-5.85813e-10
0.000612771
-6.21005e-10
0.000612772
-6.543e-10
0.000612772
-6.85259e-10
0.000612772
-7.1327e-10
0.000612772
-7.37788e-10
0.000612772
-7.58409e-10
0.000612772
-7.74319e-10
0.000612772
-7.84343e-10
0.000612772
-7.8796e-10
0.000612772
-7.84288e-10
0.000612772
-7.71475e-10
0.000612772
-7.48394e-10
0.000612772
-7.14828e-10
0.000612772
-6.72059e-10
0.000612772
-6.24793e-10
0.000612772
-5.78289e-10
0.000612772
-5.34246e-10
0.000612773
-4.92116e-10
0.000612773
-4.507e-10
0.000612773
-4.08654e-10
0.000612773
-3.6344e-10
0.000612773
-3.12401e-10
0.000612773
-2.5332e-10
0.000612773
-1.83324e-10
0.000612773
-9.95101e-11
0.000612773
7.87868e-15
0.000612773
1.16919e-10
0.000612773
2.40569e-10
0.000612773
2.75482e-10
-1.18443e-10
0.000598308
-5.86329e-10
0.000598308
-6.60658e-10
0.000598308
-5.81134e-10
0.000598308
-4.67304e-10
0.000598308
-3.55624e-10
0.000598308
-2.555e-10
0.000598308
-1.67682e-10
0.000598308
-9.12084e-11
0.000598308
-2.51809e-11
0.000598307
3.15007e-11
0.000598307
8.02043e-11
0.000598307
1.21988e-10
0.000598307
1.57528e-10
0.000598307
1.87674e-10
0.000598307
2.13147e-10
0.000598307
2.3453e-10
0.000598307
2.51934e-10
0.000598307
2.65209e-10
0.000598306
2.74863e-10
0.000598306
2.81587e-10
0.000598306
2.86252e-10
0.000598306
2.89632e-10
0.000598306
2.92606e-10
0.000598306
2.96811e-10
0.000598306
3.02394e-10
0.000598306
3.08885e-10
0.000598306
3.16195e-10
0.000598305
3.23328e-10
0.000598305
3.29655e-10
0.000598305
3.34763e-10
0.000598305
3.38389e-10
0.000598305
3.40253e-10
0.000598305
3.40497e-10
0.000598305
3.39621e-10
0.000598305
3.38126e-10
0.000598305
3.36758e-10
0.000598305
3.36562e-10
0.000598305
3.38676e-10
0.000598304
3.43881e-10
0.000598304
3.53937e-10
0.000598304
3.70738e-10
0.000598304
3.94978e-10
0.000598304
4.27542e-10
0.000598304
4.68239e-10
0.000598304
5.15005e-10
0.000598304
5.63316e-10
0.000598304
6.07992e-10
0.000598304
6.45754e-10
0.000598304
6.74783e-10
0.000598304
6.95365e-10
0.000598304
7.07398e-10
0.000598304
7.11311e-10
0.000598304
7.08165e-10
0.000598304
6.98485e-10
0.000598305
6.83352e-10
0.000598305
6.6367e-10
0.000598305
6.39679e-10
0.000598305
6.12087e-10
0.000598305
5.81946e-10
0.000598305
5.4942e-10
0.000598305
5.15126e-10
0.000598305
4.79356e-10
0.000598305
4.42113e-10
0.000598305
4.04024e-10
0.000598305
3.65218e-10
0.000598305
3.25735e-10
0.000598305
2.855e-10
0.000598305
2.44889e-10
0.000598305
2.04324e-10
0.000598305
1.63507e-10
0.000598305
1.22732e-10
0.000598305
8.18355e-11
0.000598305
4.07373e-11
0.000598305
-4.34298e-13
0.000598306
-4.17916e-11
0.000598306
-8.29192e-11
0.000598306
-1.24163e-10
0.000598306
-1.65428e-10
0.000598306
-2.06665e-10
0.000598306
-2.48103e-10
0.000598306
-2.89389e-10
0.000598306
-3.30559e-10
0.000598306
-3.7143e-10
0.000598306
-4.1213e-10
0.000598306
-4.52608e-10
0.000598306
-4.92666e-10
0.000598306
-5.32201e-10
0.000598306
-5.71115e-10
0.000598306
-6.0902e-10
0.000598306
-6.4544e-10
0.000598306
-6.80236e-10
0.000598307
-7.12943e-10
0.000598307
-7.43026e-10
0.000598307
-7.69896e-10
0.000598307
-7.93277e-10
0.000598307
-8.12726e-10
0.000598307
-8.27439e-10
0.000598307
-8.36513e-10
0.000598307
-8.39718e-10
0.000598307
-8.36645e-10
0.000598307
-8.25636e-10
0.000598307
-8.05852e-10
0.000598307
-7.77153e-10
0.000598307
-7.40756e-10
0.000598307
-7.0044e-10
0.000598307
-6.59498e-10
0.000598307
-6.18887e-10
0.000598308
-5.77894e-10
0.000598308
-5.35019e-10
0.000598308
-4.88864e-10
0.000598308
-4.37128e-10
0.000598308
-3.77211e-10
0.000598308
-3.06982e-10
0.000598308
-2.23845e-10
0.000598308
-1.24717e-10
0.000598308
-7.66858e-12
0.000598308
1.29145e-10
0.000598308
2.74986e-10
0.000598308
3.29165e-10
-8.83622e-11
0.000584148
-5.7946e-10
0.000584148
-6.54067e-10
0.000584148
-5.61144e-10
0.000584148
-4.31295e-10
0.000584148
-3.0478e-10
0.000584148
-1.91663e-10
0.000584148
-9.25739e-11
0.000584148
-6.71863e-12
0.000584148
6.71393e-11
0.000584148
1.30556e-10
0.000584148
1.84751e-10
0.000584147
2.30918e-10
0.000584147
2.70085e-10
0.000584147
3.03093e-10
0.000584147
3.30727e-10
0.000584147
3.53569e-10
0.000584147
3.71682e-10
0.000584147