/*--------------------------------*- C++ -*----------------------------------*\
  =========                 |
  \\      /  F ield         | OpenFOAM: The Open Source CFD Toolbox
   \\    /   O peration     | Website:  https://openfoam.org
    \\  /    A nd           | Version:  7
     \\/     M anipulation  |
\*---------------------------------------------------------------------------*/
FoamFile
{
    version     2.0;
    format      ascii;
    class       volVectorField;
    location    "18000";
    object      C;
}
// * * * * * * * * * * * * * * * * * * * * * * * * * * * * * * * * * * * * * //

dimensions      [0 1 0 0 0 0 0];

internalField   nonuniform List<vector> 
24000
(
(0.025 0.00126537 0)
(0.075 0.00126537 0)
(0.125 0.00126537 0)
(0.175 0.00126537 1.49094e-18)
(0.225 0.00126537 -9.63735e-20)
(0.275 0.00126537 0)
(0.325 0.00126537 -9.63735e-20)
(0.375 0.00126537 0)
(0.425 0.00126537 0)
(0.475 0.00126537 -9.63735e-20)
(0.525 0.00126537 0)
(0.575 0.00126537 0)
(0.625 0.00126537 0)
(0.675 0.00126537 0)
(0.725 0.00126537 0)
(0.775 0.00126537 0)
(0.825 0.00126537 0)
(0.875 0.00126537 0)
(0.925 0.00126537 0)
(0.975 0.00126537 0)
(1.025 0.00126537 0)
(1.075 0.00126537 0)
(1.125 0.00126537 0)
(1.175 0.00126537 0)
(1.225 0.00126537 0)
(1.275 0.00126537 0)
(1.325 0.00126537 0)
(1.375 0.00126537 0)
(1.425 0.00126537 0)
(1.475 0.00126537 0)
(1.525 0.00126537 0)
(1.575 0.00126537 0)
(1.625 0.00126537 0)
(1.675 0.00126537 0)
(1.725 0.00126537 0)
(1.775 0.00126537 0)
(1.825 0.00126537 0)
(1.875 0.00126537 0)
(1.925 0.00126537 0)
(1.975 0.00126537 0)
(2.025 0.00126537 0)
(2.075 0.00126537 1.49094e-18)
(2.125 0.00126537 0)
(2.175 0.00126537 0)
(2.225 0.00126537 0)
(2.275 0.00126537 0)
(2.325 0.00126537 1.49094e-18)
(2.375 0.00126537 0)
(2.425 0.00126537 0)
(2.475 0.00126537 0)
(2.525 0.00126537 0)
(2.575 0.00126537 1.49094e-18)
(2.625 0.00126537 0)
(2.675 0.00126537 1.49094e-18)
(2.725 0.00126537 0)
(2.775 0.00126537 0)
(2.825 0.00126537 1.49094e-18)
(2.875 0.00126537 0)
(2.925 0.00126537 1.49094e-18)
(2.975 0.00126537 0)
(3.025 0.00126537 0)
(3.075 0.00126537 1.49094e-18)
(3.125 0.00126537 0)
(3.175 0.00126537 1.49094e-18)
(3.225 0.00126537 0)
(3.275 0.00126537 0)
(3.325 0.00126537 1.49094e-18)
(3.375 0.00126537 0)
(3.425 0.00126537 1.49094e-18)
(3.475 0.00126537 0)
(3.525 0.00126537 0)
(3.575 0.00126537 1.49094e-18)
(3.625 0.00126537 0)
(3.675 0.00126537 1.49094e-18)
(3.725 0.00126537 0)
(3.775 0.00126537 0)
(3.825 0.00126537 1.49094e-18)
(3.875 0.00126537 0)
(3.925 0.00126537 1.49094e-18)
(3.975 0.00126537 0)
(4.025 0.00126537 -4.37646e-18)
(4.075 0.00126537 0)
(4.125 0.00126537 0)
(4.175 0.00126537 -4.37646e-18)
(4.225 0.00126537 0)
(4.275 0.00126537 -4.37646e-18)
(4.325 0.00126537 0)
(4.375 0.00126537 0)
(4.425 0.00126537 -4.37646e-18)
(4.475 0.00126537 0)
(4.525 0.00126537 -4.37646e-18)
(4.575 0.00126537 0)
(4.625 0.00126537 0)
(4.675 0.00126537 -4.37646e-18)
(4.725 0.00126537 0)
(4.775 0.00126537 -4.37646e-18)
(4.825 0.00126537 0)
(4.875 0.00126537 0)
(4.925 0.00126537 -4.37646e-18)
(4.975 0.00126537 0)
(5.025 0.00126537 -4.37646e-18)
(5.075 0.00126537 0)
(5.125 0.00126537 0)
(5.175 0.00126537 -4.37646e-18)
(5.225 0.00126537 0)
(5.275 0.00126537 -4.37646e-18)
(5.325 0.00126537 0)
(5.375 0.00126537 0)
(5.425 0.00126537 -4.37646e-18)
(5.475 0.00126537 0)
(5.525 0.00126537 -4.37646e-18)
(5.575 0.00126537 -4.37646e-18)
(5.625 0.00126537 0)
(5.675 0.00126537 -4.37646e-18)
(5.725 0.00126537 0)
(5.775 0.00126537 -4.37646e-18)
(5.825 0.00126537 -4.37646e-18)
(5.875 0.00126537 0)
(5.925 0.00126537 -4.37646e-18)
(5.975 0.00126537 0)
(0.025 0.00382603 0)
(0.075 0.00382603 2.91749e-18)
(0.125 0.00382603 0)
(0.175 0.00382603 0)
(0.225 0.00382603 -5.83498e-18)
(0.275 0.00382603 0)
(0.325 0.00382603 -5.83498e-18)
(0.375 0.00382603 0)
(0.425 0.00382603 0)
(0.475 0.00382603 -5.83498e-18)
(0.525 0.00382603 0)
(0.575 0.00382603 0)
(0.625 0.00382603 0)
(0.675 0.00382603 0)
(0.725 0.00382603 0)
(0.775 0.00382603 0)
(0.825 0.00382603 0)
(0.875 0.00382603 0)
(0.925 0.00382603 0)
(0.975 0.00382603 0)
(1.025 0.00382603 0)
(1.075 0.00382603 0)
(1.125 0.00382603 0)
(1.175 0.00382603 0)
(1.225 0.00382603 0)
(1.275 0.00382603 0)
(1.325 0.00382603 0)
(1.375 0.00382603 0)
(1.425 0.00382603 0)
(1.475 0.00382603 0)
(1.525 0.00382603 0)
(1.575 0.00382603 0)
(1.625 0.00382603 0)
(1.675 0.00382603 0)
(1.725 0.00382603 0)
(1.775 0.00382603 0)
(1.825 0.00382603 0)
(1.875 0.00382603 0)
(1.925 0.00382603 0)
(1.975 0.00382603 0)
(2.025 0.00382603 0)
(2.075 0.00382603 0)
(2.125 0.00382603 0)
(2.175 0.00382603 2.91749e-18)
(2.225 0.00382603 0)
(2.275 0.00382603 0)
(2.325 0.00382603 0)
(2.375 0.00382603 0)
(2.425 0.00382603 2.91749e-18)
(2.475 0.00382603 0)
(2.525 0.00382603 0)
(2.575 0.00382603 0)
(2.625 0.00382603 0)
(2.675 0.00382603 0)
(2.725 0.00382603 -3.11024e-18)
(2.775 0.00382603 0)
(2.825 0.00382603 0)
(2.875 0.00382603 0)
(2.925 0.00382603 0)
(2.975 0.00382603 -3.11024e-18)
(3.025 0.00382603 0)
(3.075 0.00382603 0)
(3.125 0.00382603 0)
(3.175 0.00382603 0)
(3.225 0.00382603 -3.11024e-18)
(3.275 0.00382603 0)
(3.325 0.00382603 0)
(3.375 0.00382603 0)
(3.425 0.00382603 0)
(3.475 0.00382603 -3.11024e-18)
(3.525 0.00382603 0)
(3.575 0.00382603 0)
(3.625 0.00382603 0)
(3.675 0.00382603 0)
(3.725 0.00382603 -3.11024e-18)
(3.775 0.00382603 0)
(3.825 0.00382603 0)
(3.875 0.00382603 0)
(3.925 0.00382603 0)
(3.975 0.00382603 -3.11024e-18)
(4.025 0.00382603 0)
(4.075 0.00382603 -3.11024e-18)
(4.125 0.00382603 0)
(4.175 0.00382603 0)
(4.225 0.00382603 -3.11024e-18)
(4.275 0.00382603 0)
(4.325 0.00382603 -3.11024e-18)
(4.375 0.00382603 0)
(4.425 0.00382603 0)
(4.475 0.00382603 -3.11024e-18)
(4.525 0.00382603 0)
(4.575 0.00382603 -3.11024e-18)
(4.625 0.00382603 0)
(4.675 0.00382603 0)
(4.725 0.00382603 -3.11024e-18)
(4.775 0.00382603 0)
(4.825 0.00382603 -3.11024e-18)
(4.875 0.00382603 0)
(4.925 0.00382603 0)
(4.975 0.00382603 -3.11024e-18)
(5.025 0.00382603 0)
(5.075 0.00382603 -3.11024e-18)
(5.125 0.00382603 0)
(5.175 0.00382603 0)
(5.225 0.00382603 -3.11024e-18)
(5.275 0.00382603 0)
(5.325 0.00382603 -3.11024e-18)
(5.375 0.00382603 0)
(5.425 0.00382603 0)
(5.475 0.00382603 -3.11024e-18)
(5.525 0.00382603 0)
(5.575 0.00382603 0)
(5.625 0.00382603 0)
(5.675 0.00382603 0)
(5.725 0.00382603 -3.11024e-18)
(5.775 0.00382603 0)
(5.825 0.00382603 0)
(5.875 0.00382603 0)
(5.925 0.00382603 0)
(5.975 0.00382603 -3.30298e-18)
(0.025 0.0064472 0)
(0.075 0.0064472 0)
(0.125 0.0064472 0)
(0.175 0.0064472 0)
(0.225 0.0064472 0)
(0.275 0.0064472 0)
(0.325 0.0064472 0)
(0.375 0.0064472 0)
(0.425 0.0064472 0)
(0.475 0.0064472 0)
(0.525 0.0064472 0)
(0.575 0.0064472 0)
(0.625 0.0064472 0)
(0.675 0.0064472 0)
(0.725 0.0064472 0)
(0.775 0.0064472 0)
(0.825 0.0064472 0)
(0.875 0.0064472 0)
(0.925 0.0064472 0)
(0.975 0.0064472 0)
(1.025 0.0064472 0)
(1.075 0.0064472 0)
(1.125 0.0064472 0)
(1.175 0.0064472 0)
(1.225 0.0064472 0)
(1.275 0.0064472 0)
(1.325 0.0064472 0)
(1.375 0.0064472 0)
(1.425 0.0064472 0)
(1.475 0.0064472 0)
(1.525 0.0064472 0)
(1.575 0.0064472 0)
(1.625 0.0064472 0)
(1.675 0.0064472 0)
(1.725 0.0064472 0)
(1.775 0.0064472 0)
(1.825 0.0064472 0)
(1.875 0.0064472 0)
(1.925 0.0064472 0)
(1.975 0.0064472 0)
(2.025 0.0064472 0)
(2.075 0.0064472 0)
(2.125 0.0064472 0)
(2.175 0.0064472 0)
(2.225 0.0064472 0)
(2.275 0.0064472 0)
(2.325 0.0064472 0)
(2.375 0.0064472 0)
(2.425 0.0064472 0)
(2.475 0.0064472 0)
(2.525 0.0064472 0)
(2.575 0.0064472 0)
(2.625 0.0064472 0)
(2.675 0.0064472 0)
(2.725 0.0064472 5.70916e-18)
(2.775 0.0064472 0)
(2.825 0.0064472 0)
(2.875 0.0064472 0)
(2.925 0.0064472 0)
(2.975 0.0064472 5.70916e-18)
(3.025 0.0064472 0)
(3.075 0.0064472 0)
(3.125 0.0064472 0)
(3.175 0.0064472 0)
(3.225 0.0064472 5.70916e-18)
(3.275 0.0064472 0)
(3.325 0.0064472 0)
(3.375 0.0064472 0)
(3.425 0.0064472 0)
(3.475 0.0064472 5.70916e-18)
(3.525 0.0064472 0)
(3.575 0.0064472 0)
(3.625 0.0064472 0)
(3.675 0.0064472 0)
(3.725 0.0064472 5.70916e-18)
(3.775 0.0064472 0)
(3.825 0.0064472 0)
(3.875 0.0064472 0)
(3.925 0.0064472 0)
(3.975 0.0064472 5.70916e-18)
(4.025 0.0064472 0)
(4.075 0.0064472 5.70916e-18)
(4.125 0.0064472 0)
(4.175 0.0064472 0)
(4.225 0.0064472 5.70916e-18)
(4.275 0.0064472 0)
(4.325 0.0064472 5.70916e-18)
(4.375 0.0064472 0)
(4.425 0.0064472 0)
(4.475 0.0064472 5.70916e-18)
(4.525 0.0064472 0)
(4.575 0.0064472 5.70916e-18)
(4.625 0.0064472 0)
(4.675 0.0064472 0)
(4.725 0.0064472 5.70916e-18)
(4.775 0.0064472 0)
(4.825 0.0064472 5.70916e-18)
(4.875 0.0064472 0)
(4.925 0.0064472 0)
(4.975 0.0064472 5.70916e-18)
(5.025 0.0064472 0)
(5.075 0.0064472 5.70916e-18)
(5.125 0.0064472 0)
(5.175 0.0064472 0)
(5.225 0.0064472 5.70916e-18)
(5.275 0.0064472 0)
(5.325 0.0064472 5.70916e-18)
(5.375 0.0064472 0)
(5.425 0.0064472 0)
(5.475 0.0064472 5.70916e-18)
(5.525 0.0064472 0)
(5.575 0.0064472 0)
(5.625 0.0064472 0)
(5.675 0.0064472 0)
(5.725 0.0064472 5.70916e-18)
(5.775 0.0064472 0)
(5.825 0.0064472 0)
(5.875 0.0064472 0)
(5.925 0.0064472 0)
(5.975 0.0064472 5.90191e-18)
(0.025 0.00913032 0)
(0.075 0.00913032 0)
(0.125 0.00913032 0)
(0.175 0.00913032 -2.98587e-18)
(0.225 0.00913032 0)
(0.275 0.00913032 0)
(0.325 0.00913032 0)
(0.375 0.00913032 0)
(0.425 0.00913032 0)
(0.475 0.00913032 0)
(0.525 0.00913032 0)
(0.575 0.00913032 -2.79312e-18)
(0.625 0.00913032 0)
(0.675 0.00913032 -2.79312e-18)
(0.725 0.00913032 -5.3935e-18)
(0.775 0.00913032 5.3935e-18)
(0.825 0.00913032 -2.79312e-18)
(0.875 0.00913032 0)
(0.925 0.00913032 -2.79312e-18)
(0.975 0.00913032 -5.3935e-18)
(1.025 0.00913032 5.3935e-18)
(1.075 0.00913032 -5.77899e-18)
(1.125 0.00913032 0)
(1.175 0.00913032 -2.98587e-18)
(1.225 0.00913032 -5.77899e-18)
(1.275 0.00913032 5.3935e-18)
(1.325 0.00913032 -2.98587e-18)
(1.375 0.00913032 0)
(1.425 0.00913032 -2.98587e-18)
(1.475 0.00913032 -5.77899e-18)
(1.525 0.00913032 5.3935e-18)
(1.575 0.00913032 -2.98587e-18)
(1.625 0.00913032 0)
(1.675 0.00913032 -2.98587e-18)
(1.725 0.00913032 -5.77899e-18)
(1.775 0.00913032 5.3935e-18)
(1.825 0.00913032 -2.98587e-18)
(1.875 0.00913032 0)
(1.925 0.00913032 -2.98587e-18)
(1.975 0.00913032 -5.77899e-18)
(2.025 0.00913032 0)
(2.075 0.00913032 5.20075e-18)
(2.125 0.00913032 0)
(2.175 0.00913032 0)
(2.225 0.00913032 0)
(2.275 0.00913032 0)
(2.325 0.00913032 5.20075e-18)
(2.375 0.00913032 0)
(2.425 0.00913032 0)
(2.475 0.00913032 0)
(2.525 0.00913032 0)
(2.575 0.00913032 5.20075e-18)
(2.625 0.00913032 0)
(2.675 0.00913032 5.20075e-18)
(2.725 0.00913032 0)
(2.775 0.00913032 0)
(2.825 0.00913032 5.20075e-18)
(2.875 0.00913032 0)
(2.925 0.00913032 5.20075e-18)
(2.975 0.00913032 0)
(3.025 0.00913032 0)
(3.075 0.00913032 5.20075e-18)
(3.125 0.00913032 0)
(3.175 0.00913032 5.20075e-18)
(3.225 0.00913032 0)
(3.275 0.00913032 0)
(3.325 0.00913032 5.20075e-18)
(3.375 0.00913032 0)
(3.425 0.00913032 5.20075e-18)
(3.475 0.00913032 0)
(3.525 0.00913032 0)
(3.575 0.00913032 5.20075e-18)
(3.625 0.00913032 0)
(3.675 0.00913032 5.20075e-18)
(3.725 0.00913032 0)
(3.775 0.00913032 0)
(3.825 0.00913032 5.20075e-18)
(3.875 0.00913032 0)
(3.925 0.00913032 5.20075e-18)
(3.975 0.00913032 0)
(4.025 0.00913032 -1.92747e-19)
(4.075 0.00913032 0)
(4.125 0.00913032 0)
(4.175 0.00913032 -1.92747e-19)
(4.225 0.00913032 0)
(4.275 0.00913032 -1.92747e-19)
(4.325 0.00913032 0)
(4.375 0.00913032 0)
(4.425 0.00913032 -1.92747e-19)
(4.475 0.00913032 0)
(4.525 0.00913032 -1.92747e-19)
(4.575 0.00913032 0)
(4.625 0.00913032 0)
(4.675 0.00913032 -1.92747e-19)
(4.725 0.00913032 0)
(4.775 0.00913032 -1.92747e-19)
(4.825 0.00913032 0)
(4.875 0.00913032 0)
(4.925 0.00913032 -1.92747e-19)
(4.975 0.00913032 0)
(5.025 0.00913032 -1.92747e-19)
(5.075 0.00913032 0)
(5.125 0.00913032 0)
(5.175 0.00913032 -1.92747e-19)
(5.225 0.00913032 0)
(5.275 0.00913032 -1.92747e-19)
(5.325 0.00913032 0)
(5.375 0.00913032 0)
(5.425 0.00913032 -1.92747e-19)
(5.475 0.00913032 0)
(5.525 0.00913032 -1.92747e-19)
(5.575 0.00913032 -1.92747e-19)
(5.625 0.00913032 0)
(5.675 0.00913032 -1.92747e-19)
(5.725 0.00913032 0)
(5.775 0.00913032 -1.92747e-19)
(5.825 0.00913032 -1.92747e-19)
(5.875 0.00913032 0)
(5.925 0.00913032 -1.92747e-19)
(5.975 0.00913032 0)
(0.025 0.0118769 0)
(0.075 0.0118769 0)
(0.125 0.0118769 0)
(0.175 0.0118769 -5.46617e-18)
(0.225 0.0118769 0)
(0.275 0.0118769 -5.27342e-18)
(0.325 0.0118769 0)
(0.375 0.0118769 0)
(0.425 0.0118769 -5.27342e-18)
(0.475 0.0118769 0)
(0.525 0.0118769 0)
(0.575 0.0118769 -1.92747e-19)
(0.625 0.0118769 0)
(0.675 0.0118769 -1.92747e-19)
(0.725 0.0118769 0)
(0.775 0.0118769 0)
(0.825 0.0118769 -1.92747e-19)
(0.875 0.0118769 0)
(0.925 0.0118769 -1.92747e-19)
(0.975 0.0118769 0)
(1.025 0.0118769 -2.54034e-18)
(1.075 0.0118769 0)
(1.125 0.0118769 0)
(1.175 0.0118769 -2.54034e-18)
(1.225 0.0118769 0)
(1.275 0.0118769 -2.54034e-18)
(1.325 0.0118769 -2.54034e-18)
(1.375 0.0118769 0)
(1.425 0.0118769 -2.54034e-18)
(1.475 0.0118769 0)
(1.525 0.0118769 -2.54034e-18)
(1.575 0.0118769 -2.54034e-18)
(1.625 0.0118769 0)
(1.675 0.0118769 -2.54034e-18)
(1.725 0.0118769 0)
(1.775 0.0118769 -2.54034e-18)
(1.825 0.0118769 -2.54034e-18)
(1.875 0.0118769 0)
(1.925 0.0118769 -2.54034e-18)
(1.975 0.0118769 0)
(2.025 0.0118769 0)
(2.075 0.0118769 0)
(2.125 0.0118769 0)
(2.175 0.0118769 -1.92747e-19)
(2.225 0.0118769 0)
(2.275 0.0118769 0)
(2.325 0.0118769 0)
(2.375 0.0118769 0)
(2.425 0.0118769 -1.92747e-19)
(2.475 0.0118769 0)
(2.525 0.0118769 0)
(2.575 0.0118769 0)
(2.625 0.0118769 0)
(2.675 0.0118769 0)
(2.725 0.0118769 -5.46617e-18)
(2.775 0.0118769 0)
(2.825 0.0118769 0)
(2.875 0.0118769 0)
(2.925 0.0118769 0)
(2.975 0.0118769 -5.46617e-18)
(3.025 0.0118769 0)
(3.075 0.0118769 0)
(3.125 0.0118769 0)
(3.175 0.0118769 0)
(3.225 0.0118769 -5.46617e-18)
(3.275 0.0118769 0)
(3.325 0.0118769 0)
(3.375 0.0118769 0)
(3.425 0.0118769 0)
(3.475 0.0118769 -5.46617e-18)
(3.525 0.0118769 0)
(3.575 0.0118769 0)
(3.625 0.0118769 0)
(3.675 0.0118769 0)
(3.725 0.0118769 -5.46617e-18)
(3.775 0.0118769 0)
(3.825 0.0118769 0)
(3.875 0.0118769 0)
(3.925 0.0118769 0)
(3.975 0.0118769 -5.46617e-18)
(4.025 0.0118769 0)
(4.075 0.0118769 -5.46617e-18)
(4.125 0.0118769 0)
(4.175 0.0118769 0)
(4.225 0.0118769 -5.46617e-18)
(4.275 0.0118769 0)
(4.325 0.0118769 -5.46617e-18)
(4.375 0.0118769 0)
(4.425 0.0118769 0)
(4.475 0.0118769 -5.46617e-18)
(4.525 0.0118769 0)
(4.575 0.0118769 -5.46617e-18)
(4.625 0.0118769 0)
(4.675 0.0118769 0)
(4.725 0.0118769 -5.46617e-18)
(4.775 0.0118769 0)
(4.825 0.0118769 -5.46617e-18)
(4.875 0.0118769 0)
(4.925 0.0118769 0)
(4.975 0.0118769 -5.46617e-18)
(5.025 0.0118769 0)
(5.075 0.0118769 -5.46617e-18)
(5.125 0.0118769 0)
(5.175 0.0118769 0)
(5.225 0.0118769 -5.46617e-18)
(5.275 0.0118769 0)
(5.325 0.0118769 -5.46617e-18)
(5.375 0.0118769 0)
(5.425 0.0118769 0)
(5.475 0.0118769 -5.46617e-18)
(5.525 0.0118769 0)
(5.575 0.0118769 0)
(5.625 0.0118769 0)
(5.675 0.0118769 0)
(5.725 0.0118769 -5.46617e-18)
(5.775 0.0118769 0)
(5.825 0.0118769 0)
(5.875 0.0118769 0)
(5.925 0.0118769 0)
(5.975 0.0118769 -5.65892e-18)
(0.025 0.0146883 0)
(0.075 0.0146883 -2.86718e-18)
(0.125 0.0146883 0)
(0.175 0.0146883 0)
(0.225 0.0146883 0)
(0.275 0.0146883 0)
(0.325 0.0146883 0)
(0.375 0.0146883 1.92747e-19)
(0.425 0.0146883 0)
(0.475 0.0146883 0)
(0.525 0.0146883 1.92747e-19)
(0.575 0.0146883 0)
(0.625 0.0146883 1.92747e-19)
(0.675 0.0146883 0)
(0.725 0.0146883 0)
(0.775 0.0146883 1.92747e-19)
(0.825 0.0146883 0)
(0.875 0.0146883 1.92747e-19)
(0.925 0.0146883 0)
(0.975 0.0146883 0)
(1.025 0.0146883 0)
(1.075 0.0146883 0)
(1.125 0.0146883 0)
(1.175 0.0146883 0)
(1.225 0.0146883 0)
(1.275 0.0146883 0)
(1.325 0.0146883 0)
(1.375 0.0146883 0)
(1.425 0.0146883 0)
(1.475 0.0146883 0)
(1.525 0.0146883 0)
(1.575 0.0146883 0)
(1.625 0.0146883 0)
(1.675 0.0146883 0)
(1.725 0.0146883 0)
(1.775 0.0146883 0)
(1.825 0.0146883 0)
(1.875 0.0146883 0)
(1.925 0.0146883 0)
(1.975 0.0146883 0)
(2.025 0.0146883 0)
(2.075 0.0146883 5.34887e-18)
(2.125 0.0146883 0)
(2.175 0.0146883 5.34887e-18)
(2.225 0.0146883 0)
(2.275 0.0146883 0)
(2.325 0.0146883 5.34887e-18)
(2.375 0.0146883 0)
(2.425 0.0146883 5.34887e-18)
(2.475 0.0146883 0)
(2.525 0.0146883 0)
(2.575 0.0146883 5.34887e-18)
(2.625 0.0146883 0)
(2.675 0.0146883 5.34887e-18)
(2.725 0.0146883 0)
(2.775 0.0146883 0)
(2.825 0.0146883 5.34887e-18)
(2.875 0.0146883 0)
(2.925 0.0146883 5.34887e-18)
(2.975 0.0146883 0)
(3.025 0.0146883 0)
(3.075 0.0146883 5.34887e-18)
(3.125 0.0146883 0)
(3.175 0.0146883 5.34887e-18)
(3.225 0.0146883 0)
(3.275 0.0146883 0)
(3.325 0.0146883 5.34887e-18)
(3.375 0.0146883 0)
(3.425 0.0146883 5.34887e-18)
(3.475 0.0146883 0)
(3.525 0.0146883 0)
(3.575 0.0146883 5.34887e-18)
(3.625 0.0146883 0)
(3.675 0.0146883 5.34887e-18)
(3.725 0.0146883 0)
(3.775 0.0146883 0)
(3.825 0.0146883 5.34887e-18)
(3.875 0.0146883 0)
(3.925 0.0146883 5.34887e-18)
(3.975 0.0146883 0)
(4.025 0.0146883 5.34887e-18)
(4.075 0.0146883 -5.34887e-18)
(4.125 0.0146883 1.92747e-19)
(4.175 0.0146883 0)
(4.225 0.0146883 -5.34887e-18)
(4.275 0.0146883 5.34887e-18)
(4.325 0.0146883 -5.34887e-18)
(4.375 0.0146883 1.92747e-19)
(4.425 0.0146883 0)
(4.475 0.0146883 -5.34887e-18)
(4.525 0.0146883 5.34887e-18)
(4.575 0.0146883 -5.34887e-18)
(4.625 0.0146883 1.92747e-19)
(4.675 0.0146883 0)
(4.725 0.0146883 -5.34887e-18)
(4.775 0.0146883 5.34887e-18)
(4.825 0.0146883 -5.34887e-18)
(4.875 0.0146883 1.92747e-19)
(4.925 0.0146883 0)
(4.975 0.0146883 -5.34887e-18)
(5.025 0.0146883 5.34887e-18)
(5.075 0.0146883 -5.34887e-18)
(5.125 0.0146883 1.92747e-19)
(5.175 0.0146883 0)
(5.225 0.0146883 -5.34887e-18)
(5.275 0.0146883 5.34887e-18)
(5.325 0.0146883 -5.34887e-18)
(5.375 0.0146883 1.92747e-19)
(5.425 0.0146883 0)
(5.475 0.0146883 -5.34887e-18)
(5.525 0.0146883 5.34887e-18)
(5.575 0.0146883 0)
(5.625 0.0146883 1.92747e-19)
(5.675 0.0146883 0)
(5.725 0.0146883 -5.34887e-18)
(5.775 0.0146883 5.34887e-18)
(5.825 0.0146883 0)
(5.875 0.0146883 1.92747e-19)
(5.925 0.0146883 0)
(5.975 0.0146883 -5.54161e-18)
(0.025 0.0175662 0)
(0.075 0.0175662 0)
(0.125 0.0175662 0)
(0.175 0.0175662 0)
(0.225 0.0175662 0)
(0.275 0.0175662 0)
(0.325 0.0175662 0)
(0.375 0.0175662 0)
(0.425 0.0175662 0)
(0.475 0.0175662 0)
(0.525 0.0175662 0)
(0.575 0.0175662 -2.80988e-18)
(0.625 0.0175662 0)
(0.675 0.0175662 -2.80988e-18)
(0.725 0.0175662 0)
(0.775 0.0175662 2.80988e-18)
(0.825 0.0175662 -2.80988e-18)
(0.875 0.0175662 0)
(0.925 0.0175662 -2.80988e-18)
(0.975 0.0175662 0)
(1.025 0.0175662 0)
(1.075 0.0175662 0)
(1.125 0.0175662 0)
(1.175 0.0175662 -2.80988e-18)
(1.225 0.0175662 0)
(1.275 0.0175662 0)
(1.325 0.0175662 -2.80988e-18)
(1.375 0.0175662 0)
(1.425 0.0175662 -2.80988e-18)
(1.475 0.0175662 0)
(1.525 0.0175662 0)
(1.575 0.0175662 -2.80988e-18)
(1.625 0.0175662 0)
(1.675 0.0175662 -2.80988e-18)
(1.725 0.0175662 0)
(1.775 0.0175662 0)
(1.825 0.0175662 -2.80988e-18)
(1.875 0.0175662 0)
(1.925 0.0175662 -2.80988e-18)
(1.975 0.0175662 0)
(2.025 0.0175662 0)
(2.075 0.0175662 1.92747e-19)
(2.125 0.0175662 0)
(2.175 0.0175662 0)
(2.225 0.0175662 0)
(2.275 0.0175662 0)
(2.325 0.0175662 1.92747e-19)
(2.375 0.0175662 0)
(2.425 0.0175662 0)
(2.475 0.0175662 0)
(2.525 0.0175662 0)
(2.575 0.0175662 1.92747e-19)
(2.625 0.0175662 0)
(2.675 0.0175662 1.92747e-19)
(2.725 0.0175662 0)
(2.775 0.0175662 -1.92747e-19)
(2.825 0.0175662 1.92747e-19)
(2.875 0.0175662 0)
(2.925 0.0175662 1.92747e-19)
(2.975 0.0175662 0)
(3.025 0.0175662 -1.92747e-19)
(3.075 0.0175662 1.92747e-19)
(3.125 0.0175662 0)
(3.175 0.0175662 1.92747e-19)
(3.225 0.0175662 0)
(3.275 0.0175662 -1.92747e-19)
(3.325 0.0175662 1.92747e-19)
(3.375 0.0175662 0)
(3.425 0.0175662 1.92747e-19)
(3.475 0.0175662 0)
(3.525 0.0175662 -1.92747e-19)
(3.575 0.0175662 1.92747e-19)
(3.625 0.0175662 0)
(3.675 0.0175662 1.92747e-19)
(3.725 0.0175662 0)
(3.775 0.0175662 -1.92747e-19)
(3.825 0.0175662 1.92747e-19)
(3.875 0.0175662 0)
(3.925 0.0175662 1.92747e-19)
(3.975 0.0175662 0)
(4.025 0.0175662 2.61714e-18)
(4.075 0.0175662 0)
(4.125 0.0175662 0)
(4.175 0.0175662 2.80988e-18)
(4.225 0.0175662 0)
(4.275 0.0175662 2.61714e-18)
(4.325 0.0175662 0)
(4.375 0.0175662 0)
(4.425 0.0175662 2.80988e-18)
(4.475 0.0175662 0)
(4.525 0.0175662 2.61714e-18)
(4.575 0.0175662 0)
(4.625 0.0175662 0)
(4.675 0.0175662 2.80988e-18)
(4.725 0.0175662 0)
(4.775 0.0175662 2.61714e-18)
(4.825 0.0175662 0)
(4.875 0.0175662 0)
(4.925 0.0175662 2.80988e-18)
(4.975 0.0175662 0)
(5.025 0.0175662 2.61714e-18)
(5.075 0.0175662 0)
(5.125 0.0175662 0)
(5.175 0.0175662 2.80988e-18)
(5.225 0.0175662 0)
(5.275 0.0175662 2.61714e-18)
(5.325 0.0175662 0)
(5.375 0.0175662 0)
(5.425 0.0175662 2.80988e-18)
(5.475 0.0175662 0)
(5.525 0.0175662 2.61714e-18)
(5.575 0.0175662 2.80988e-18)
(5.625 0.0175662 0)
(5.675 0.0175662 2.80988e-18)
(5.725 0.0175662 0)
(5.775 0.0175662 2.61714e-18)
(5.825 0.0175662 2.80988e-18)
(5.875 0.0175662 0)
(5.925 0.0175662 2.80988e-18)
(5.975 0.0175662 0)
(0.025 0.0205121 0)
(0.075 0.0205121 -4.92957e-18)
(0.125 0.0205121 0)
(0.175 0.0205121 0)
(0.225 0.0205121 0)
(0.275 0.0205121 0)
(0.325 0.0205121 0)
(0.375 0.0205121 0)
(0.425 0.0205121 0)
(0.475 0.0205121 0)
(0.525 0.0205121 0)
(0.575 0.0205121 -2.56116e-18)
(0.625 0.0205121 0)
(0.675 0.0205121 -2.56116e-18)
(0.725 0.0205121 0)
(0.775 0.0205121 0)
(0.825 0.0205121 -2.56116e-18)
(0.875 0.0205121 0)
(0.925 0.0205121 -2.56116e-18)
(0.975 0.0205121 0)
(1.025 0.0205121 4.73683e-18)
(1.075 0.0205121 1.92747e-19)
(1.125 0.0205121 0)
(1.175 0.0205121 4.92957e-18)
(1.225 0.0205121 1.92747e-19)
(1.275 0.0205121 4.73683e-18)
(1.325 0.0205121 4.92957e-18)
(1.375 0.0205121 0)
(1.425 0.0205121 4.92957e-18)
(1.475 0.0205121 1.92747e-19)
(1.525 0.0205121 4.73683e-18)
(1.575 0.0205121 4.92957e-18)
(1.625 0.0205121 0)
(1.675 0.0205121 4.92957e-18)
(1.725 0.0205121 1.92747e-19)
(1.775 0.0205121 4.73683e-18)
(1.825 0.0205121 4.92957e-18)
(1.875 0.0205121 0)
(1.925 0.0205121 4.92957e-18)
(1.975 0.0205121 1.92747e-19)
(2.025 0.0205121 0)
(2.075 0.0205121 0)
(2.125 0.0205121 0)
(2.175 0.0205121 0)
(2.225 0.0205121 0)
(2.275 0.0205121 0)
(2.325 0.0205121 0)
(2.375 0.0205121 0)
(2.425 0.0205121 0)
(2.475 0.0205121 0)
(2.525 0.0205121 0)
(2.575 0.0205121 0)
(2.625 0.0205121 0)
(2.675 0.0205121 0)
(2.725 0.0205121 0)
(2.775 0.0205121 0)
(2.825 0.0205121 0)
(2.875 0.0205121 0)
(2.925 0.0205121 0)
(2.975 0.0205121 0)
(3.025 0.0205121 0)
(3.075 0.0205121 0)
(3.125 0.0205121 0)
(3.175 0.0205121 0)
(3.225 0.0205121 0)
(3.275 0.0205121 0)
(3.325 0.0205121 0)
(3.375 0.0205121 0)
(3.425 0.0205121 0)
(3.475 0.0205121 0)
(3.525 0.0205121 0)
(3.575 0.0205121 0)
(3.625 0.0205121 0)
(3.675 0.0205121 0)
(3.725 0.0205121 0)
(3.775 0.0205121 0)
(3.825 0.0205121 0)
(3.875 0.0205121 0)
(3.925 0.0205121 0)
(3.975 0.0205121 0)
(4.025 0.0205121 5.12232e-18)
(4.075 0.0205121 0)
(4.125 0.0205121 0)
(4.175 0.0205121 5.12232e-18)
(4.225 0.0205121 0)
(4.275 0.0205121 5.12232e-18)
(4.325 0.0205121 0)
(4.375 0.0205121 0)
(4.425 0.0205121 5.12232e-18)
(4.475 0.0205121 0)
(4.525 0.0205121 5.12232e-18)
(4.575 0.0205121 0)
(4.625 0.0205121 0)
(4.675 0.0205121 5.12232e-18)
(4.725 0.0205121 0)
(4.775 0.0205121 5.12232e-18)
(4.825 0.0205121 0)
(4.875 0.0205121 0)
(4.925 0.0205121 5.12232e-18)
(4.975 0.0205121 0)
(5.025 0.0205121 5.12232e-18)
(5.075 0.0205121 0)
(5.125 0.0205121 0)
(5.175 0.0205121 5.12232e-18)
(5.225 0.0205121 0)
(5.275 0.0205121 5.12232e-18)
(5.325 0.0205121 0)
(5.375 0.0205121 0)
(5.425 0.0205121 5.12232e-18)
(5.475 0.0205121 0)
(5.525 0.0205121 5.12232e-18)
(5.575 0.0205121 5.12232e-18)
(5.625 0.0205121 0)
(5.675 0.0205121 5.12232e-18)
(5.725 0.0205121 0)
(5.775 0.0205121 5.12232e-18)
(5.825 0.0205121 5.12232e-18)
(5.875 0.0205121 0)
(5.925 0.0205121 5.12232e-18)
(5.975 0.0205121 0)
(0.025 0.0235276 0)
(0.075 0.0235276 2.50648e-18)
(0.125 0.0235276 -4.82021e-18)
(0.175 0.0235276 0)
(0.225 0.0235276 -4.82021e-18)
(0.275 0.0235276 0)
(0.325 0.0235276 0)
(0.375 0.0235276 -2.50648e-18)
(0.425 0.0235276 0)
(0.475 0.0235276 0)
(0.525 0.0235276 -2.50648e-18)
(0.575 0.0235276 4.62746e-18)
(0.625 0.0235276 -2.50648e-18)
(0.675 0.0235276 4.62746e-18)
(0.725 0.0235276 0)
(0.775 0.0235276 -2.50648e-18)
(0.825 0.0235276 4.62746e-18)
(0.875 0.0235276 -2.50648e-18)
(0.925 0.0235276 4.62746e-18)
(0.975 0.0235276 0)
(1.025 0.0235276 -2.50648e-18)
(1.075 0.0235276 0)
(1.125 0.0235276 0)
(1.175 0.0235276 -2.50648e-18)
(1.225 0.0235276 0)
(1.275 0.0235276 -2.50648e-18)
(1.325 0.0235276 -2.50648e-18)
(1.375 0.0235276 0)
(1.425 0.0235276 -2.50648e-18)
(1.475 0.0235276 0)
(1.525 0.0235276 -2.50648e-18)
(1.575 0.0235276 -2.50648e-18)
(1.625 0.0235276 0)
(1.675 0.0235276 -2.50648e-18)
(1.725 0.0235276 0)
(1.775 0.0235276 -2.50648e-18)
(1.825 0.0235276 -2.50648e-18)
(1.875 0.0235276 0)
(1.925 0.0235276 -2.50648e-18)
(1.975 0.0235276 0)
(2.025 0.0235276 0)
(2.075 0.0235276 0)
(2.125 0.0235276 0)
(2.175 0.0235276 0)
(2.225 0.0235276 0)
(2.275 0.0235276 0)
(2.325 0.0235276 0)
(2.375 0.0235276 0)
(2.425 0.0235276 0)
(2.475 0.0235276 0)
(2.525 0.0235276 0)
(2.575 0.0235276 0)
(2.625 0.0235276 0)
(2.675 0.0235276 0)
(2.725 0.0235276 0)
(2.775 0.0235276 0)
(2.825 0.0235276 0)
(2.875 0.0235276 0)
(2.925 0.0235276 0)
(2.975 0.0235276 0)
(3.025 0.0235276 0)
(3.075 0.0235276 0)
(3.125 0.0235276 0)
(3.175 0.0235276 0)
(3.225 0.0235276 0)
(3.275 0.0235276 0)
(3.325 0.0235276 0)
(3.375 0.0235276 0)
(3.425 0.0235276 0)
(3.475 0.0235276 0)
(3.525 0.0235276 0)
(3.575 0.0235276 0)
(3.625 0.0235276 0)
(3.675 0.0235276 0)
(3.725 0.0235276 0)
(3.775 0.0235276 0)
(3.825 0.0235276 0)
(3.875 0.0235276 0)
(3.925 0.0235276 0)
(3.975 0.0235276 0)
(4.025 0.0235276 0)
(4.075 0.0235276 0)
(4.125 0.0235276 0)
(4.175 0.0235276 0)
(4.225 0.0235276 0)
(4.275 0.0235276 0)
(4.325 0.0235276 0)
(4.375 0.0235276 0)
(4.425 0.0235276 0)
(4.475 0.0235276 0)
(4.525 0.0235276 0)
(4.575 0.0235276 0)
(4.625 0.0235276 0)
(4.675 0.0235276 0)
(4.725 0.0235276 0)
(4.775 0.0235276 0)
(4.825 0.0235276 0)
(4.875 0.0235276 0)
(4.925 0.0235276 0)
(4.975 0.0235276 0)
(5.025 0.0235276 0)
(5.075 0.0235276 0)
(5.125 0.0235276 0)
(5.175 0.0235276 0)
(5.225 0.0235276 0)
(5.275 0.0235276 0)
(5.325 0.0235276 0)
(5.375 0.0235276 0)
(5.425 0.0235276 0)
(5.475 0.0235276 0)
(5.525 0.0235276 0)
(5.575 0.0235276 0)
(5.625 0.0235276 0)
(5.675 0.0235276 0)
(5.725 0.0235276 0)
(5.775 0.0235276 0)
(5.825 0.0235276 0)
(5.875 0.0235276 0)
(5.925 0.0235276 0)
(5.975 0.0235276 0)
(0.025 0.0266144 0)
(0.075 0.0266144 0)
(0.125 0.0266144 0)
(0.175 0.0266144 1.92747e-19)
(0.225 0.0266144 0)
(0.275 0.0266144 0)
(0.325 0.0266144 0)
(0.375 0.0266144 4.90612e-18)
(0.425 0.0266144 0)
(0.475 0.0266144 0)
(0.525 0.0266144 4.90612e-18)
(0.575 0.0266144 0)
(0.625 0.0266144 4.90612e-18)
(0.675 0.0266144 0)
(0.725 0.0266144 0)
(0.775 0.0266144 4.90612e-18)
(0.825 0.0266144 0)
(0.875 0.0266144 4.90612e-18)
(0.925 0.0266144 0)
(0.975 0.0266144 0)
(1.025 0.0266144 0)
(1.075 0.0266144 0)
(1.125 0.0266144 0)
(1.175 0.0266144 0)
(1.225 0.0266144 0)
(1.275 0.0266144 0)
(1.325 0.0266144 0)
(1.375 0.0266144 0)
(1.425 0.0266144 0)
(1.475 0.0266144 0)
(1.525 0.0266144 0)
(1.575 0.0266144 0)
(1.625 0.0266144 0)
(1.675 0.0266144 0)
(1.725 0.0266144 0)
(1.775 0.0266144 0)
(1.825 0.0266144 0)
(1.875 0.0266144 0)
(1.925 0.0266144 0)
(1.975 0.0266144 0)
(2.025 0.0266144 0)
(2.075 0.0266144 2.64581e-18)
(2.125 0.0266144 0)
(2.175 0.0266144 0)
(2.225 0.0266144 0)
(2.275 0.0266144 0)
(2.325 0.0266144 2.64581e-18)
(2.375 0.0266144 0)
(2.425 0.0266144 0)
(2.475 0.0266144 0)
(2.525 0.0266144 0)
(2.575 0.0266144 2.64581e-18)
(2.625 0.0266144 0)
(2.675 0.0266144 2.64581e-18)
(2.725 0.0266144 0)
(2.775 0.0266144 0)
(2.825 0.0266144 2.64581e-18)
(2.875 0.0266144 0)
(2.925 0.0266144 2.64581e-18)
(2.975 0.0266144 0)
(3.025 0.0266144 0)
(3.075 0.0266144 2.64581e-18)
(3.125 0.0266144 0)
(3.175 0.0266144 2.64581e-18)
(3.225 0.0266144 0)
(3.275 0.0266144 0)
(3.325 0.0266144 2.64581e-18)
(3.375 0.0266144 0)
(3.425 0.0266144 2.64581e-18)
(3.475 0.0266144 0)
(3.525 0.0266144 0)
(3.575 0.0266144 2.64581e-18)
(3.625 0.0266144 0)
(3.675 0.0266144 2.64581e-18)
(3.725 0.0266144 0)
(3.775 0.0266144 0)
(3.825 0.0266144 2.64581e-18)
(3.875 0.0266144 0)
(3.925 0.0266144 2.64581e-18)
(3.975 0.0266144 0)
(4.025 0.0266144 -2.45306e-18)
(4.075 0.0266144 2.45306e-18)
(4.125 0.0266144 0)
(4.175 0.0266144 0)
(4.225 0.0266144 2.45306e-18)
(4.275 0.0266144 -2.45306e-18)
(4.325 0.0266144 2.45306e-18)
(4.375 0.0266144 0)
(4.425 0.0266144 0)
(4.475 0.0266144 2.45306e-18)
(4.525 0.0266144 -2.45306e-18)
(4.575 0.0266144 2.45306e-18)
(4.625 0.0266144 0)
(4.675 0.0266144 0)
(4.725 0.0266144 2.45306e-18)
(4.775 0.0266144 -2.45306e-18)
(4.825 0.0266144 2.45306e-18)
(4.875 0.0266144 0)
(4.925 0.0266144 0)
(4.975 0.0266144 2.45306e-18)
(5.025 0.0266144 -2.45306e-18)
(5.075 0.0266144 2.45306e-18)
(5.125 0.0266144 0)
(5.175 0.0266144 0)
(5.225 0.0266144 2.45306e-18)
(5.275 0.0266144 -2.45306e-18)
(5.325 0.0266144 2.45306e-18)
(5.375 0.0266144 0)
(5.425 0.0266144 0)
(5.475 0.0266144 2.45306e-18)
(5.525 0.0266144 -2.45306e-18)
(5.575 0.0266144 0)
(5.625 0.0266144 0)
(5.675 0.0266144 0)
(5.725 0.0266144 2.45306e-18)
(5.775 0.0266144 -2.45306e-18)
(5.825 0.0266144 0)
(5.875 0.0266144 0)
(5.925 0.0266144 0)
(5.975 0.0266144 2.54943e-18)
(0.025 0.0297742 0)
(0.075 0.0297742 0)
(0.125 0.0297742 0)
(0.175 0.0297742 0)
(0.225 0.0297742 0)
(0.275 0.0297742 0)
(0.325 0.0297742 1.92747e-19)
(0.375 0.0297742 7.00987e-18)
(0.425 0.0297742 1.92747e-19)
(0.475 0.0297742 1.92747e-19)
(0.525 0.0297742 7.00987e-18)
(0.575 0.0297742 0)
(0.625 0.0297742 7.00987e-18)
(0.675 0.0297742 0)
(0.725 0.0297742 0)
(0.775 0.0297742 2.20812e-18)
(0.825 0.0297742 0)
(0.875 0.0297742 7.00987e-18)
(0.925 0.0297742 0)
(0.975 0.0297742 0)
(1.025 0.0297742 2.20812e-18)
(1.075 0.0297742 -4.99449e-18)
(1.125 0.0297742 0)
(1.175 0.0297742 -1.92747e-19)
(1.225 0.0297742 -4.99449e-18)
(1.275 0.0297742 2.20812e-18)
(1.325 0.0297742 -1.92747e-19)
(1.375 0.0297742 0)
(1.425 0.0297742 -1.92747e-19)
(1.475 0.0297742 -4.99449e-18)
(1.525 0.0297742 2.20812e-18)
(1.575 0.0297742 -1.92747e-19)
(1.625 0.0297742 0)
(1.675 0.0297742 -1.92747e-19)
(1.725 0.0297742 -4.99449e-18)
(1.775 0.0297742 2.20812e-18)