/*--------------------------------*- C++ -*----------------------------------*\
  =========                 |
  \\      /  F ield         | OpenFOAM: The Open Source CFD Toolbox
   \\    /   O peration     | Website:  https://openfoam.org
    \\  /    A nd           | Version:  7
     \\/     M anipulation  |
\*---------------------------------------------------------------------------*/
FoamFile
{
    version     2.0;
    format      ascii;
    class       surfaceScalarField;
    location    "18000";
    object      phi;
}
// * * * * * * * * * * * * * * * * * * * * * * * * * * * * * * * * * * * * * //

dimensions      [0 3 -1 0 0 0 0];

internalField   nonuniform List<scalar> 
47680
(
2.01551e-06
-3.48523e-14
2.01552e-06
-6.50817e-12
2.01553e-06
-7.6063e-12
2.01553e-06
-4.58445e-12
2.01553e-06
-5.03237e-13
2.01553e-06
3.01189e-12
2.01552e-06
5.63185e-12
2.01551e-06
7.33768e-12
2.01551e-06
8.27451e-12
2.0155e-06
8.51287e-12
2.01549e-06
8.12266e-12
2.01548e-06
7.45341e-12
2.01548e-06
6.80927e-12
2.01547e-06
6.02098e-12
2.01546e-06
5.25683e-12
2.01546e-06
4.53221e-12
2.01546e-06
3.60636e-12
2.01545e-06
2.85864e-12
2.01545e-06
2.09937e-12
2.01545e-06
1.24122e-12
2.01545e-06
5.29237e-13
2.01545e-06
-1.0024e-13
2.01545e-06
-7.21515e-13
2.01545e-06
-1.39751e-12
2.01545e-06
-1.95634e-12
2.01546e-06
-2.28988e-12
2.01546e-06
-2.71349e-12
2.01546e-06
-3.18484e-12
2.01547e-06
-3.42743e-12
2.01547e-06
-3.64472e-12
2.01547e-06
-4.01488e-12
2.01548e-06
-4.2773e-12
2.01548e-06
-4.37992e-12
2.01549e-06
-4.49105e-12
2.01549e-06
-4.68685e-12
2.0155e-06
-4.80319e-12
2.0155e-06
-4.78455e-12
2.01551e-06
-4.86104e-12
2.01551e-06
-4.85441e-12
2.01552e-06
-4.8983e-12
2.01552e-06
-4.49013e-12
2.01552e-06
-4.00906e-12
2.01553e-06
-3.16327e-12
2.01553e-06
-2.28769e-12
2.01553e-06
-1.22823e-12
2.01553e-06
4.63062e-13
2.01553e-06
1.00297e-12
2.01553e-06
1.06935e-12
2.01553e-06
7.3131e-13
2.01553e-06
1.06766e-13
2.01553e-06
-2.96492e-13
2.01553e-06
-7.12298e-13
2.01553e-06
-1.04857e-12
2.01553e-06
-1.31383e-12
2.01553e-06
-1.50238e-12
2.01553e-06
-1.65768e-12
2.01554e-06
-1.69115e-12
2.01554e-06
-1.59036e-12
2.01554e-06
-1.36456e-12
2.01554e-06
-1.11856e-12
2.01554e-06
-8.18171e-13
2.01554e-06
-4.09652e-13
2.01554e-06
1.34228e-14
2.01554e-06
4.29485e-13
2.01554e-06
7.97556e-13
2.01554e-06
1.09402e-12
2.01554e-06
1.43499e-12
2.01553e-06
1.75504e-12
2.01553e-06
1.90773e-12
2.01553e-06
2.06255e-12
2.01553e-06
2.11923e-12
2.01553e-06
2.19817e-12
2.01552e-06
2.27339e-12
2.01552e-06
2.22253e-12
2.01552e-06
2.27994e-12
2.01552e-06
2.29812e-12
2.01552e-06
2.14503e-12
2.01551e-06
1.93858e-12
2.01551e-06
1.81168e-12
2.01551e-06
1.67896e-12
2.01551e-06
1.50341e-12
2.01551e-06
1.39965e-12
2.01551e-06
1.32857e-12
2.0155e-06
1.15306e-12
2.0155e-06
9.30079e-13
2.0155e-06
7.12323e-13
2.0155e-06
2.65442e-13
2.0155e-06
-8.38599e-14
2.0155e-06
-1.65453e-13
2.0155e-06
-1.61267e-13
2.0155e-06
-2.72847e-14
2.0155e-06
-5.47415e-15
2.0155e-06
-4.36896e-14
2.0155e-06
-1.39596e-13
2.0155e-06
-3.07111e-13
2.0155e-06
-4.11617e-13
2.0155e-06
-5.738e-13
2.01551e-06
-6.98729e-13
2.01551e-06
-8.03568e-13
2.01551e-06
-7.07072e-13
2.01551e-06
-6.95704e-13
2.01551e-06
-2.31107e-13
2.01551e-06
1.32482e-13
2.01551e-06
9.07777e-13
2.0155e-06
2.06967e-12
2.0155e-06
2.16263e-12
2.0155e-06
1.94088e-12
2.0155e-06
1.27981e-12
2.0155e-06
4.3541e-13
2.0155e-06
-3.52646e-13
2.0155e-06
-1.04277e-12
2.0155e-06
-1.53482e-12
2.0155e-06
-1.96452e-12
2.01551e-06
-2.24508e-12
2.01551e-06
-2.44332e-12
2.01551e-06
-2.36975e-12
2.01551e-06
-1.76109e-12
2.01551e-06
-2.02575e-12
2.01551e-06
-3.38248e-13
3.20578e-12
6.2275e-06
-5.02817e-12
6.22752e-06
-2.58738e-11
6.22754e-06
-2.81165e-11
6.22755e-06
-1.57557e-11
6.22755e-06
1.67155e-13
6.22754e-06
1.37726e-11
6.22752e-06
2.37828e-11
6.2275e-06
3.02583e-11
6.22747e-06
3.37393e-11
6.22745e-06
3.44113e-11
6.22742e-06
3.27576e-11
6.2274e-06
3.00947e-11
6.22738e-06
2.73741e-11
6.22736e-06
2.4218e-11
6.22734e-06
2.11126e-11
6.22733e-06
1.80749e-11
6.22732e-06
1.44432e-11
6.22731e-06
1.13453e-11
6.2273e-06
8.26892e-12
6.2273e-06
4.91155e-12
6.2273e-06
2.01559e-12
6.2273e-06
-5.64001e-13
6.2273e-06
-3.09747e-12
6.22731e-06
-5.72411e-12
6.22731e-06
-7.90152e-12
6.22732e-06
-9.33619e-12
6.22733e-06
-1.10061e-11
6.22734e-06
-1.28178e-11
6.22735e-06
-1.38913e-11
6.22736e-06
-1.48082e-11
6.22737e-06
-1.61542e-11
6.22738e-06
-1.7156e-11
6.2274e-06
-1.76173e-11
6.22741e-06
-1.80811e-11
6.22743e-06
-1.8801e-11
6.22744e-06
-1.92574e-11
6.22745e-06
-1.92573e-11
6.22747e-06
-1.95005e-11
6.22748e-06
-1.95634e-11
6.2275e-06
-1.96542e-11
6.22751e-06
-1.82197e-11
6.22752e-06
-1.63396e-11
6.22753e-06
-1.33579e-11
6.22754e-06
-1.01426e-11
6.22755e-06
-6.08554e-12
6.22755e-06
-4.21816e-14
6.22755e-06
2.50486e-12
6.22754e-06
3.05363e-12
6.22754e-06
2.04586e-12
6.22754e-06
-5.94367e-15
6.22754e-06
-1.50349e-12
6.22755e-06
-2.99807e-12
6.22755e-06
-4.25245e-12
6.22755e-06
-5.21822e-12
6.22756e-06
-5.89687e-12
6.22756e-06
-6.40433e-12
6.22757e-06
-6.45377e-12
6.22757e-06
-5.98599e-12
6.22758e-06
-5.07234e-12
6.22758e-06
-4.03882e-12
6.22758e-06
-2.78263e-12
6.22758e-06
-1.154e-12
6.22758e-06
5.36355e-13
6.22758e-06
2.17929e-12
6.22758e-06
3.64429e-12
6.22757e-06
4.86242e-12
6.22757e-06
6.1899e-12
6.22756e-06
7.40461e-12
6.22756e-06
8.05166e-12
6.22755e-06
8.61879e-12
6.22754e-06
8.8686e-12
6.22754e-06
9.16623e-12
6.22753e-06
9.4285e-12
6.22752e-06
9.28366e-12
6.22751e-06
9.42009e-12
6.22751e-06
9.42356e-12
6.2275e-06
8.85433e-12
6.22749e-06
8.0646e-12
6.22749e-06
7.51722e-12
6.22748e-06
7.00156e-12
6.22748e-06
6.35402e-12
6.22747e-06
5.91172e-12
6.22747e-06
5.5826e-12
6.22747e-06
4.89823e-12
6.22746e-06
4.03883e-12
6.22746e-06
3.06288e-12
6.22746e-06
1.38719e-12
6.22746e-06
1.30691e-13
6.22746e-06
-2.39417e-13
6.22746e-06
-2.45301e-13
6.22746e-06
1.72471e-13
6.22746e-06
2.53915e-13
6.22746e-06
9.60419e-14
6.22746e-06
-2.73934e-13
6.22746e-06
-8.85696e-13
6.22746e-06
-1.35978e-12
6.22746e-06
-1.9988e-12
6.22746e-06
-2.56606e-12
6.22747e-06
-3.01377e-12
6.22747e-06
-2.87451e-12
6.22747e-06
-2.87467e-12
6.22747e-06
-1.45039e-12
6.22747e-06
-1.62554e-13
6.22747e-06
2.66298e-12
6.22747e-06
6.75121e-12
6.22746e-06
7.41659e-12
6.22746e-06
6.65031e-12
6.22745e-06
4.35145e-12
6.22745e-06
1.32952e-12
6.22745e-06
-1.56641e-12
6.22746e-06
-4.12044e-12
6.22746e-06
-6.01752e-12
6.22747e-06
-7.62507e-12
6.22747e-06
-8.73782e-12
6.22748e-06
-9.55201e-12
6.22749e-06
-9.32557e-12
6.22749e-06
-7.26712e-12
6.2275e-06
-8.04155e-12
6.2275e-06
-1.28688e-12
8.48515e-12
1.07241e-05
-2.06071e-11
1.07241e-05
-5.89369e-11
1.07242e-05
-5.90764e-11
1.07242e-05
-3.03042e-11
1.07242e-05
4.89845e-12
1.07242e-05
3.46297e-11
1.07241e-05
5.62663e-11
1.07241e-05
7.01524e-11
1.0724e-05
7.74342e-11
1.0724e-05
7.83757e-11
1.0724e-05
7.44219e-11
1.07239e-05
6.8397e-11
1.07239e-05
6.20306e-11
1.07238e-05
5.48683e-11
1.07238e-05
4.77526e-11
1.07238e-05
4.06747e-11
1.07238e-05
3.25384e-11
1.07238e-05
2.53911e-11
1.07238e-05
1.83742e-11
1.07238e-05
1.0898e-11
1.07237e-05
4.30001e-12
1.07238e-05
-1.63849e-12
1.07238e-05
-7.44112e-12
1.07238e-05
-1.32397e-11
1.07238e-05
-1.80511e-11
1.07238e-05
-2.14315e-11
1.07238e-05
-2.51774e-11
1.07238e-05
-2.91594e-11
1.07238e-05
-3.1731e-11
1.07239e-05
-3.38766e-11
1.07239e-05
-3.6706e-11
1.07239e-05
-3.88646e-11
1.07239e-05
-3.99778e-11
1.07239e-05
-4.10626e-11
1.0724e-05
-4.25895e-11
1.0724e-05
-4.36037e-11
1.0724e-05
-4.36971e-11
1.0724e-05
-4.41883e-11
1.07241e-05
-4.44357e-11
1.07241e-05
-4.45517e-11
1.07241e-05
-4.15615e-11
1.07241e-05
-3.74652e-11
1.07241e-05
-3.14161e-11
1.07242e-05
-2.46643e-11
1.07242e-05
-1.59243e-11
1.07242e-05
-3.35657e-12
1.07242e-05
2.84678e-12
1.07242e-05
4.6103e-12
1.07242e-05
2.95884e-12
1.07242e-05
-9.12589e-13
1.07242e-05
-4.00497e-12
1.07242e-05
-7.09406e-12
1.07242e-05
-9.73746e-12
1.07242e-05
-1.174e-11
1.07242e-05
-1.3114e-11
1.07242e-05
-1.40532e-11
1.07242e-05
-1.39888e-11
1.07242e-05
-1.28054e-11
1.07242e-05
-1.07035e-11
1.07242e-05
-8.27974e-12
1.07242e-05
-5.34063e-12
1.07242e-05
-1.65499e-12
1.07242e-05
2.15441e-12
1.07242e-05
5.82219e-12
1.07242e-05
9.11735e-12
1.07242e-05
1.19124e-11
1.07242e-05
1.48491e-11
1.07242e-05
1.74834e-11
1.07242e-05
1.89698e-11
1.07242e-05
2.01755e-11
1.07242e-05
2.07611e-11
1.07242e-05
2.14031e-11
1.07241e-05
2.19414e-11
1.07241e-05
2.16793e-11
1.07241e-05
2.1844e-11
1.07241e-05
2.17214e-11
1.07241e-05
2.04944e-11
1.07241e-05
1.8768e-11
1.07241e-05
1.7478e-11
1.07241e-05
1.63423e-11
1.07241e-05
1.49641e-11
1.0724e-05
1.39266e-11
1.0724e-05
1.31075e-11
1.0724e-05
1.15831e-11
1.0724e-05
9.67659e-12
1.0724e-05
7.31165e-12
1.0724e-05
3.70162e-12
1.0724e-05
1.1282e-12
1.0724e-05
2.59335e-13
1.0724e-05
1.83993e-13
1.0724e-05
9.42159e-13
1.0724e-05
1.0853e-12
1.0724e-05
7.15554e-13
1.0724e-05
-8.97159e-14
1.0724e-05
-1.39119e-12
1.0724e-05
-2.53508e-12
1.0724e-05
-3.99178e-12
1.0724e-05
-5.36996e-12
1.0724e-05
-6.47772e-12
1.0724e-05
-6.53935e-12
1.0724e-05
-6.7198e-12
1.0724e-05
-4.1864e-12
1.0724e-05
-1.63696e-12
1.0724e-05
4.23185e-12
1.0724e-05
1.25948e-11
1.0724e-05
1.43906e-11
1.0724e-05
1.29331e-11
1.0724e-05
8.32639e-12
1.0724e-05
2.14722e-12
1.0724e-05
-3.89187e-12
1.0724e-05
-9.28133e-12
1.0724e-05
-1.33921e-11
1.0724e-05
-1.68286e-11
1.0724e-05
-1.93076e-11
1.07241e-05
-2.11721e-11
1.07241e-05
-2.08014e-11
1.07241e-05
-1.67248e-11
1.07241e-05
-1.80138e-11
1.07241e-05
-2.96561e-12
1.15385e-11
1.5501e-05
-5.3139e-11
1.5501e-05
-1.06431e-10
1.55011e-05
-9.69349e-11
1.55011e-05
-4.38026e-11
1.55011e-05
1.73592e-11
1.5501e-05
6.82433e-11
1.5501e-05
1.04866e-10
1.55009e-05
1.28155e-10
1.55009e-05
1.3998e-10
1.55008e-05
1.40558e-10
1.55007e-05
1.33101e-10
1.55007e-05
1.22347e-10
1.55006e-05
1.10739e-10
1.55006e-05
9.78931e-11
1.55006e-05
8.49827e-11
1.55005e-05
7.20461e-11
1.55005e-05
5.76003e-11
1.55005e-05
4.46811e-11
1.55005e-05
3.20797e-11
1.55005e-05
1.89068e-11
1.55005e-05
7.10074e-12
1.55005e-05
-3.65919e-12
1.55005e-05
-1.41206e-11
1.55005e-05
-2.42183e-11
1.55005e-05
-3.25962e-11
1.55005e-05
-3.88019e-11
1.55005e-05
-4.5458e-11
1.55006e-05
-5.24e-11
1.55006e-05
-5.71722e-11
1.55006e-05
-6.10965e-11
1.55006e-05
-6.58244e-11
1.55007e-05
-6.94725e-11
1.55007e-05
-7.15487e-11
1.55007e-05
-7.36063e-11
1.55008e-05
-7.61864e-11
1.55008e-05
-7.79085e-11
1.55008e-05
-7.81905e-11
1.55009e-05
-7.90494e-11
1.55009e-05
-7.95978e-11
1.55009e-05
-7.97011e-11
1.5501e-05
-7.46439e-11
1.5501e-05
-6.76858e-11
1.5501e-05
-5.8012e-11
1.55011e-05
-4.67923e-11
1.55011e-05
-3.1995e-11
1.55011e-05
-1.11317e-11
1.55011e-05
3.46847e-13
1.55011e-05
4.30545e-12
1.55011e-05
2.38809e-12
1.55011e-05
-3.29335e-12
1.55011e-05
-8.22498e-12
1.55011e-05
-1.32608e-11
1.55011e-05
-1.76225e-11
1.55011e-05
-2.08673e-11
1.55011e-05
-2.30222e-11
1.55011e-05
-2.43384e-11
1.55011e-05
-2.38894e-11
1.55012e-05
-2.1546e-11
1.55012e-05
-1.77141e-11
1.55012e-05
-1.32424e-11
1.55012e-05
-7.82754e-12
1.55012e-05
-1.22499e-12
1.55012e-05
5.5329e-12
1.55012e-05
1.19855e-11
1.55011e-05
1.78242e-11
1.55011e-05
2.28552e-11
1.55011e-05
2.79838e-11
1.55011e-05
3.24974e-11
1.55011e-05
3.51266e-11
1.55011e-05
3.71678e-11
1.55011e-05
3.8224e-11
1.5501e-05
3.93242e-11
1.5501e-05
4.02082e-11
1.5501e-05
3.97974e-11
1.5501e-05
3.98752e-11
1.5501e-05
3.94353e-11
1.55009e-05
3.73112e-11
1.55009e-05
3.43179e-11
1.55009e-05
3.19647e-11
1.55009e-05
3.00058e-11
1.55009e-05
2.76698e-11
1.55009e-05
2.57672e-11
1.55009e-05
2.41885e-11
1.55009e-05
2.14869e-11
1.55009e-05
1.81157e-11
1.55008e-05
1.36574e-11
1.55008e-05
7.51136e-12
1.55008e-05
3.41049e-12
1.55008e-05
1.85377e-12
1.55008e-05
1.5915e-12
1.55008e-05
2.66106e-12
1.55008e-05
2.80356e-12
1.55008e-05
2.10973e-12
1.55008e-05
7.28426e-13
1.55008e-05
-1.49169e-12
1.55008e-05
-3.62754e-12
1.55008e-05
-6.28122e-12
1.55008e-05
-8.87436e-12
1.55008e-05
-1.10521e-11
1.55008e-05
-1.17151e-11
1.55009e-05
-1.24407e-11
1.55009e-05
-8.93689e-12
1.55009e-05
-5.04843e-12
1.55009e-05
4.58445e-12
1.55009e-05
1.81803e-11
1.55008e-05
2.15309e-11
1.55008e-05
1.94227e-11
1.55008e-05
1.2148e-11
1.55008e-05
2.22332e-12
1.55008e-05
-7.64656e-12
1.55008e-05
-1.65966e-11
1.55009e-05
-2.35676e-11
1.55009e-05
-2.93658e-11
1.55009e-05
-3.37059e-11
1.55009e-05
-3.70604e-11
1.55009e-05
-3.66178e-11
1.55009e-05
-3.01519e-11
1.55009e-05
-3.18248e-11
1.55009e-05
-5.32095e-12
7.81505e-12
2.05012e-05
-1.07648e-10
2.05013e-05
-1.66639e-10
2.05013e-05
-1.36175e-10
2.05013e-05
-5.0975e-11
2.05013e-05
4.09028e-11
2.05012e-05
1.16217e-10
2.05012e-05
1.69863e-10
2.05011e-05
2.0369e-10
2.0501e-05
2.20183e-10
2.05009e-05
2.1935e-10
2.05009e-05
2.07268e-10
2.05008e-05
1.90938e-10
2.05007e-05
1.72586e-10
2.05007e-05
1.52168e-10
2.05006e-05
1.31729e-10
2.05006e-05
1.11183e-10
2.05006e-05
8.87655e-11
2.05005e-05
6.84894e-11
2.05005e-05
4.87789e-11
2.05005e-05
2.84895e-11
2.05005e-05
1.00998e-11
2.05005e-05
-6.89356e-12
2.05005e-05
-2.3329e-11
2.05005e-05
-3.86427e-11
2.05006e-05
-5.1372e-11
2.05006e-05
-6.12741e-11
2.05006e-05
-7.16387e-11
2.05006e-05
-8.22531e-11
2.05007e-05
-8.99047e-11
2.05007e-05
-9.6124e-11
2.05007e-05
-1.03052e-10
2.05008e-05
-1.08429e-10
2.05008e-05
-1.11795e-10
2.05009e-05
-1.15221e-10
2.05009e-05
-1.19052e-10
2.05009e-05
-1.21602e-10
2.0501e-05
-1.22532e-10
2.0501e-05
-1.23957e-10
2.05011e-05
-1.24591e-10
2.05011e-05
-1.2458e-10
2.05012e-05
-1.16982e-10
2.05012e-05
-1.06818e-10
2.05012e-05
-9.33576e-11
2.05013e-05
-7.69479e-11
2.05013e-05
-5.50301e-11
2.05013e-05
-2.45129e-11
2.05013e-05
-6.32456e-12
2.05013e-05
8.94023e-13
2.05013e-05
-6.1005e-13
2.05013e-05
-7.71644e-12
2.05013e-05
-1.44768e-11
2.05013e-05
-2.16314e-11
2.05013e-05
-2.78717e-11
2.05014e-05
-3.24018e-11
2.05014e-05
-3.52919e-11
2.05014e-05
-3.6796e-11
2.05014e-05
-3.55527e-11
2.05014e-05
-3.15432e-11
2.05014e-05
-2.54483e-11
2.05014e-05
-1.82643e-11
2.05014e-05
-9.56113e-12
2.05014e-05
7.77994e-13
2.05014e-05
1.12152e-11
2.05014e-05
2.10997e-11
2.05014e-05
3.01234e-11
2.05014e-05
3.79969e-11
2.05014e-05
4.58158e-11
2.05013e-05
5.25577e-11
2.05013e-05
5.65559e-11
2.05013e-05
5.95886e-11
2.05013e-05
6.12455e-11
2.05012e-05
6.29129e-11
2.05012e-05
6.41902e-11
2.05012e-05
6.35733e-11
2.05012e-05
6.33927e-11
2.05012e-05
6.23788e-11
2.05011e-05
5.91355e-11
2.05011e-05
5.45923e-11
2.05011e-05
5.09161e-11
2.05011e-05
4.8005e-11
2.05011e-05
4.45076e-11
2.0501e-05
4.14671e-11
2.0501e-05
3.88424e-11
2.0501e-05
3.46278e-11
2.0501e-05
2.93784e-11
2.0501e-05
2.21256e-11
2.0501e-05
1.30941e-11
2.0501e-05
7.49218e-12
2.0501e-05
5.02106e-12
2.0501e-05
4.37699e-12
2.0501e-05
5.6367e-12
2.0501e-05
5.63483e-12
2.0501e-05
4.48535e-12
2.0501e-05
2.41457e-12
2.0501e-05
-9.44763e-13
2.0501e-05
-4.40911e-12
2.0501e-05
-8.65855e-12
2.0501e-05
-1.28868e-11
2.0501e-05
-1.66067e-11
2.0501e-05
-1.83981e-11
2.0501e-05
-2.01945e-11
2.0501e-05
-1.60809e-11
2.0501e-05
-1.09966e-11
2.0501e-05
2.86962e-12
2.0501e-05
2.21788e-11
2.0501e-05
2.72672e-11
2.0501e-05
2.47651e-11
2.0501e-05
1.48087e-11
2.0501e-05
9.76329e-13
2.0501e-05
-1.30201e-11
2.0501e-05
-2.59709e-11
2.0501e-05
-3.62358e-11
2.0501e-05
-4.47838e-11
2.05011e-05
-5.14389e-11
2.05011e-05
-5.67148e-11
2.05011e-05
-5.62757e-11
2.05011e-05
-4.72006e-11
2.05011e-05
-4.91063e-11
2.05011e-05
-7.98322e-12
-6.91179e-12
2.55807e-05
-1.82432e-10
2.55807e-05
-2.32841e-10
2.55808e-05
-1.70492e-10
2.55808e-05
-4.84649e-11
2.55807e-05
7.639e-11
2.55807e-05
1.76956e-10
2.55806e-05
2.48027e-10
2.55805e-05
2.92645e-10
2.55804e-05
3.13376e-10
2.55803e-05
3.11173e-10
2.55802e-05
2.94056e-10
2.55802e-05
2.70669e-10
2.55801e-05
2.44248e-10
2.558e-05
2.14825e-10
2.558e-05
1.856e-10
2.55799e-05
1.56064e-10
2.55799e-05
1.24454e-10
2.55799e-05
9.56333e-11
2.55799e-05
6.76458e-11
2.55798e-05
3.91926e-11
2.55798e-05
1.31596e-11
2.55798e-05
-1.12581e-11
2.55799e-05
-3.47053e-11
2.55799e-05
-5.5764e-11
2.55799e-05
-7.34288e-11
2.55799e-05
-8.7838e-11
2.55799e-05
-1.02586e-10
2.558e-05
-1.17443e-10
2.558e-05
-1.28551e-10
2.55801e-05
-1.37462e-10
2.55801e-05
-1.46747e-10
2.55802e-05
-1.54024e-10
2.55802e-05
-1.59049e-10
2.55802e-05
-1.64216e-10
2.55803e-05
-1.69416e-10
2.55804e-05
-1.7298e-10
2.55804e-05
-1.75095e-10
2.55805e-05
-1.77265e-10
2.55805e-05
-1.77766e-10
2.55806e-05
-1.7755e-10
2.55806e-05
-1.6821e-10
2.55807e-05
-1.55038e-10
2.55807e-05
-1.36839e-10
2.55807e-05
-1.14567e-10
2.55808e-05
-8.47928e-11
2.55808e-05
-4.36839e-11
2.55808e-05
-1.76952e-11
2.55808e-05
-6.26086e-12
2.55808e-05
-6.45614e-12
2.55808e-05
-1.4331e-11
2.55808e-05
-2.27371e-11
2.55808e-05
-3.20039e-11
2.55809e-05
-4.00946e-11
2.55809e-05
-4.57811e-11
2.55809e-05
-4.92578e-11
2.55809e-05
-5.06598e-11
2.55809e-05
-4.81352e-11
2.55809e-05
-4.20086e-11
2.55809e-05
-3.32413e-11
2.55809e-05
-2.27659e-11
2.55809e-05
-1.00495e-11
2.55809e-05
4.67119e-12
2.55809e-05
1.92755e-11
2.55809e-05
3.30186e-11
2.55809e-05
4.57155e-11
2.55809e-05
5.68991e-11
2.55809e-05
6.77449e-11
2.55808e-05
7.69001e-11
2.55808e-05
8.23907e-11
2.55808e-05
8.65356e-11
2.55807e-05
8.8936e-11
2.55807e-05
9.12911e-11
2.55807e-05
9.29785e-11
2.55807e-05
9.206e-11
2.55806e-05
9.14174e-11
2.55806e-05
8.95655e-11
2.55806e-05
8.50583e-11
2.55806e-05
7.87833e-11
2.55805e-05
7.36721e-11
2.55805e-05
6.98006e-11
2.55805e-05
6.49427e-11
2.55805e-05
6.05031e-11
2.55805e-05
5.65667e-11
2.55804e-05
5.05443e-11
2.55804e-05
4.30479e-11
2.55804e-05
3.3613e-11
2.55804e-05
2.18636e-11
2.55804e-05
1.38371e-11
2.55804e-05
1.00205e-11
2.55804e-05
8.71699e-12
2.55804e-05
9.94919e-12
2.55804e-05
9.58063e-12
2.55804e-05
7.85297e-12
2.55804e-05
5.01311e-12
2.55804e-05
2.87722e-13
2.55804e-05
-4.84029e-12
2.55804e-05
-1.10562e-11
2.55804e-05
-1.73046e-11
2.55804e-05
-2.30425e-11
2.55804e-05
-2.65408e-11
2.55804e-05
-2.99928e-11
2.55804e-05
-2.572e-11
2.55804e-05
-1.96974e-11
2.55804e-05
-2.50594e-12
2.55804e-05
2.23814e-11
2.55804e-05
3.03105e-11
2.55804e-05
2.80284e-11
2.55804e-05
1.57355e-11
2.55804e-05
-1.73404e-12
2.55804e-05
-1.97787e-11
2.55804e-05
-3.68842e-11
2.55805e-05
-5.06302e-11
2.55805e-05
-6.21802e-11
2.55805e-05
-7.15864e-11
2.55805e-05
-7.91819e-11
2.55805e-05
-7.87456e-11
2.55806e-05
-6.69868e-11
2.55806e-05
-6.89905e-11
2.55806e-05
-1.05545e-11
-3.36886e-11
3.05438e-05
-2.65314e-10
3.05439e-05
-2.9635e-10
3.05439e-05
-1.95399e-10
3.05439e-05
-3.57778e-11
3.05439e-05
1.20915e-10
3.05438e-05
2.45323e-10
3.05437e-05
3.33017e-10
3.05436e-05
3.87994e-10
3.05435e-05
4.12204e-10
3.05434e-05
4.08829e-10
3.05433e-05
3.87013e-10
3.05432e-05
3.5568e-10
3.05432e-05
3.20871e-10
3.05431e-05
2.82087e-10
3.0543e-05
2.4331e-10
3.0543e-05
2.04273e-10
3.05429e-05
1.62954e-10
3.05429e-05
1.24709e-10
3.05429e-05
8.78121e-11
3.05429e-05
5.09576e-11
3.05429e-05
1.6653e-11
3.05429e-05
-1.63137e-11
3.05429e-05
-4.73392e-11
3.05429e-05
-7.41499e-11
3.05429e-05
-9.71791e-11
3.0543e-05
-1.16816e-10
3.0543e-05
-1.36397e-10
3.0543e-05
-1.55875e-10
3.05431e-05
-1.70856e-10
3.05431e-05
-1.8266e-10
3.05432e-05
-1.94313e-10
3.05432e-05
-2.03662e-10
3.05433e-05
-2.10798e-10
3.05433e-05
-2.18049e-10
3.05434e-05
-2.24916e-10
3.05434e-05
-2.29785e-10
3.05435e-05
-2.33103e-10
3.05436e-05
-2.3601e-10
3.05436e-05
-2.36769e-10
3.05437e-05
-2.36471e-10
3.05437e-05
-2.25879e-10
3.05438e-05
-2.10349e-10
3.05438e-05
-1.86934e-10
3.05439e-05
-1.58455e-10
3.05439e-05
-1.20403e-10
3.05439e-05
-6.81453e-11
3.0544e-05
-3.39897e-11
3.0544e-05
-1.73579e-11
3.0544e-05
-1.49445e-11
3.0544e-05
-2.31133e-11
3.0544e-05
-3.29471e-11
3.0544e-05
-4.38751e-11
3.0544e-05
-5.35956e-11
3.0544e-05
-6.01596e-11
3.05441e-05
-6.40246e-11
3.05441e-05
-6.49698e-11
3.05441e-05
-6.06804e-11
3.05441e-05
-5.21827e-11
3.05441e-05
-4.05465e-11
3.05441e-05
-2.63359e-11
3.05441e-05
-8.79291e-12
3.05441e-05
1.06423e-11
3.05441e-05
2.92658e-11
3.05441e-05
4.7014e-11
3.05441e-05
6.3681e-11
3.0544e-05
7.84325e-11
3.0544e-05
9.24184e-11
3.0544e-05
1.03982e-10
3.0544e-05
1.10994e-10
3.05439e-05
1.16358e-10
3.05439e-05
1.19954e-10
3.05439e-05
1.2313e-10
3.05438e-05
1.24918e-10
3.05438e-05
1.2356e-10
3.05438e-05
1.22255e-10
3.05437e-05
1.1936e-10
3.05437e-05
1.1359e-10
3.05437e-05
1.05825e-10
3.05437e-05
9.93956e-11
3.05436e-05
9.43998e-11
3.05436e-05
8.79282e-11
3.05436e-05
8.18711e-11
3.05436e-05
7.64203e-11
3.05435e-05
6.86463e-11
3.05435e-05
5.86976e-11
3.05435e-05
4.75051e-11
3.05435e-05
3.33708e-11
3.05435e-05
2.23157e-11
3.05435e-05
1.68239e-11
3.05435e-05
1.45156e-11
3.05435e-05
1.54178e-11
3.05435e-05
1.46835e-11
3.05435e-05
1.23147e-11
3.05435e-05
8.37279e-12
3.05435e-05
2.01336e-12
3.05435e-05
-5.08447e-12
3.05435e-05
-1.35617e-11
3.05435e-05
-2.2133e-11
3.05435e-05
-3.03182e-11
3.05435e-05
-3.60716e-11
3.05435e-05
-4.17033e-11
3.05435e-05
-3.79373e-11
3.05435e-05
-3.12938e-11
3.05435e-05
-1.13588e-11
3.05435e-05
1.85473e-11
3.05435e-05
3.00562e-11
3.05435e-05
2.89094e-11
3.05435e-05
1.49333e-11
3.05435e-05
-5.81309e-12
3.05436e-05
-2.75626e-11
3.05436e-05
-4.81894e-11
3.05436e-05
-6.53589e-11
3.05436e-05
-8.03618e-11
3.05436e-05
-9.29771e-11
3.05436e-05
-1.03193e-10
3.05437e-05
-1.02595e-10
3.05437e-05
-8.82523e-11
3.05437e-05
-9.0209e-11
3.05437e-05
-1.38538e-11
-6.73042e-11
3.52426e-05
-3.38866e-10
3.52426e-05
-3.49288e-10
3.52427e-05
-2.09748e-10
3.52426e-05
-1.48733e-11
3.52426e-05
1.69987e-10
3.52425e-05
3.15378e-10
3.52424e-05
4.18248e-10
3.52423e-05
4.82591e-10
3.52422e-05
5.09247e-10
3.52421e-05
5.04792e-10
3.5242e-05
4.79005e-10
3.5242e-05
4.40404e-10
3.52419e-05
3.97853e-10
3.52418e-05
3.50004e-10
3.52418e-05
3.01662e-10
3.52417e-05
2.53229e-10
3.52417e-05
2.02265e-10
3.52416e-05
1.54793e-10
3.52416e-05
1.09011e-10
3.52416e-05
6.34594e-11
3.52416e-05
2.04676e-11
3.52416e-05
-2.12834e-11
3.52416e-05
-5.97709e-11
3.52416e-05
-9.23439e-11
3.52417e-05
-1.21205e-10
3.52417e-05
-1.46682e-10
3.52417e-05
-1.71246e-10
3.52418e-05
-1.95081e-10
3.52418e-05
-2.14179e-10
3.52419e-05
-2.29331e-10
3.52419e-05
-2.43268e-10
3.5242e-05
-2.54951e-10
3.5242e-05
-2.64749e-10
3.52421e-05
-2.7435e-10
3.52421e-05
-2.83011e-10
3.52422e-05
-2.89514e-10
3.52422e-05
-2.94099e-10
3.52423e-05
-2.98141e-10
3.52424e-05
-2.99596e-10
3.52424e-05
-2.98945e-10
3.52425e-05
-2.86687e-10
3.52426e-05
-2.69297e-10
3.52426e-05
-2.41787e-10
3.52427e-05
-2.07287e-10
3.52427e-05
-1.60778e-10
3.52427e-05
-9.71254e-11
3.52427e-05
-5.48426e-11
3.52428e-05
-3.22046e-11
3.52428e-05
-2.60051e-11
3.52428e-05
-3.4149e-11
3.52428e-05
-4.46213e-11
3.52428e-05
-5.66451e-11
3.52428e-05
-6.77175e-11
3.52428e-05
-7.47421e-11
3.52429e-05
-7.87862e-11
3.52429e-05
-7.88352e-11
3.52429e-05
-7.2336e-11
3.52429e-05
-6.14874e-11
3.52429e-05
-4.64667e-11
3.52429e-05
-2.81162e-11
3.52429e-05
-5.68219e-12
3.52429e-05
1.8301e-11
3.52429e-05
4.05268e-11
3.52429e-05
6.23289e-11
3.52428e-05
8.30948e-11
3.52428e-05
1.01446e-10
3.52428e-05
1.1846e-10
3.52428e-05
1.32261e-10
3.52427e-05
1.40769e-10
3.52427e-05
1.47487e-10
3.52427e-05
1.52706e-10
3.52426e-05
1.56672e-10
3.52426e-05
1.58242e-10
3.52426e-05
1.56386e-10
3.52425e-05
1.54227e-10
3.52425e-05
1.50176e-10
3.52425e-05
1.43339e-10
3.52424e-05
1.34887e-10
3.52424e-05
1.27366e-10
3.52424e-05
1.20711e-10
3.52424e-05
1.1235e-10
3.52423e-05
1.04539e-10
3.52423e-05
9.74642e-11
3.52423e-05
8.80107e-11
3.52423e-05
7.54932e-11
3.52423e-05
6.22434e-11
3.52423e-05
4.6399e-11
3.52422e-05
3.28206e-11
3.52422e-05
2.52101e-11
3.52422e-05
2.15125e-11
3.52422e-05
2.17737e-11
3.52422e-05
2.06066e-11
3.52422e-05
1.74958e-11
3.52422e-05
1.21725e-11
3.52422e-05
3.94554e-12
3.52422e-05
-5.39175e-12
3.52422e-05
-1.63359e-11
3.52422e-05
-2.74538e-11
3.52422e-05
-3.84779e-11
3.52422e-05
-4.69741e-11
3.52422e-05
-5.52074e-11
3.52423e-05
-5.24088e-11
3.52423e-05
-4.53781e-11
3.52423e-05
-2.28e-11
3.52423e-05
1.17902e-11
3.52423e-05
2.65613e-11
3.52423e-05
2.71217e-11
3.52423e-05
1.26431e-11
3.52423e-05
-1.07152e-11
3.52423e-05
-3.55571e-11
3.52423e-05
-5.90391e-11
3.52423e-05
-7.96213e-11
3.52424e-05
-9.84492e-11
3.52424e-05
-1.14647e-10
3.52424e-05
-1.27105e-10
3.52424e-05
-1.25928e-10
3.52425e-05
-1.0983e-10
3.52425e-05
-1.11627e-10
3.52425e-05
-1.95333e-11
-9.93361e-11
3.96275e-05
-3.9043e-10
3.96275e-05
-3.84748e-10
3.96276e-05
-2.13078e-10
3.96275e-05
1.14624e-11
3.96275e-05
2.20039e-10
3.96274e-05
3.83481e-10
3.96273e-05
4.98995e-10
3.96272e-05
5.71025e-10
3.96271e-05
5.99397e-10
3.96271e-05
5.94309e-10
3.9627e-05
5.65385e-10
3.96269e-05
5.21019e-10
3.96268e-05
4.71794e-10
3.96268e-05
4.15433e-10
3.96267e-05
3.58212e-10
3.96266e-05
3.00781e-10
3.96266e-05
2.40603e-10
3.96266e-05
1.84588e-10
3.96266e-05
1.30317e-10
3.96265e-05
7.59436e-11
3.96265e-05
2.47279e-11
3.96265e-05
-2.56059e-11
3.96266e-05
-7.15884e-11
3.96266e-05
-1.09524e-10
3.96266e-05
-1.44095e-10
3.96266e-05
-1.75861e-10
3.96267e-05
-2.05878e-10
3.96267e-05
-2.3385e-10
3.96267e-05
-2.56679e-10
3.96268e-05
-2.75261e-10
3.96268e-05
-2.91889e-10
3.96269e-05
-3.0639e-10
3.96269e-05
-3.19476e-10
3.9627e-05
-3.31525e-10
3.96271e-05
-3.41776e-10
3.96271e-05
-3.49571e-10
3.96272e-05
-3.55664e-10
3.96272e-05
-3.61852e-10
3.96273e-05
-3.64136e-10
3.96274e-05
-3.62852e-10
3.96274e-05
-3.4966e-10
3.96275e-05
-3.30866e-10
3.96276e-05
-2.99445e-10
3.96276e-05
-2.59126e-10
3.96277e-05
-2.0412e-10
3.96277e-05
-1.29804e-10
3.96277e-05
-7.96631e-11
3.96277e-05
-5.03259e-11
3.96277e-05
-3.95935e-11
3.96278e-05
-4.68759e-11
3.96278e-05
-5.77775e-11
3.96278e-05
-7.0606e-11
3.96278e-05
-8.20674e-11
3.96278e-05
-8.8958e-11
3.96278e-05
-9.2293e-11
3.96278e-05
-9.08328e-11
3.96278e-05
-8.24377e-11
3.96279e-05
-6.95278e-11
3.96279e-05
-5.06876e-11
3.96279e-05
-2.79199e-11
3.96279e-05
-8.33908e-13
3.96278e-05
2.7858e-11
3.96278e-05
5.33078e-11
3.96278e-05
7.86259e-11
3.96278e-05
1.03466e-10
3.96278e-05
1.25241e-10
3.96277e-05
1.44982e-10
3.96277e-05
1.60732e-10
3.96277e-05
1.70707e-10
3.96277e-05
1.78976e-10
3.96276e-05
1.8531e-10
3.96276e-05
1.89699e-10
3.96276e-05
1.91617e-10
3.96275e-05
1.89377e-10
3.96275e-05
1.86136e-10
3.96275e-05
1.80933e-10
3.96274e-05
1.7347e-10
3.96274e-05
1.64871e-10
3.96274e-05
1.56234e-10
3.96273e-05
1.47705e-10
3.96273e-05
1.3736e-10
3.96273e-05
1.27762e-10
3.96273e-05
1.19036e-10
3.96273e-05
1.07793e-10
3.96272e-05
9.32429e-11
3.96272e-05
7.8152e-11
3.96272e-05
6.05038e-11
3.96272e-05
4.46523e-11
3.96272e-05
3.4741e-11
3.96272e-05
2.94204e-11
3.96272e-05
2.87988e-11
3.96272e-05
2.69254e-11
3.96272e-05
2.28688e-11
3.96272e-05
1.60823e-11
3.96272e-05
5.82284e-12
3.96272e-05
-6.00029e-12
3.96272e-05
-1.95373e-11
3.96272e-05
-3.3388e-11
3.96272e-05
-4.76608e-11
3.96272e-05
-5.93409e-11
3.96272e-05
-7.05009e-11
3.96272e-05
-6.87412e-11
3.96272e-05
-6.14005e-11
3.96272e-05
-3.70881e-11
3.96273e-05
2.18968e-12
3.96273e-05
2.06699e-11
3.96273e-05
2.25265e-11
3.96273e-05
8.50379e-12
3.96273e-05
-1.59286e-11
3.96273e-05
-4.29856e-11
3.96273e-05
-6.90692e-11
3.96273e-05
-9.33161e-11
3.96273e-05
-1.16092e-10
3.96273e-05
-1.35325e-10
3.96274e-05
-1.49428e-10
3.96274e-05
-1.47906e-10
3.96274e-05
-1.31129e-10
3.96274e-05
-1.31906e-10
3.96274e-05
-2.7774e-11
-1.2414e-10
4.37208e-05
-4.15545e-10
4.37208e-05
-3.98037e-10
4.37208e-05
-2.03957e-10
4.37208e-05
4.25648e-11
4.37207e-05
2.69746e-10
4.37207e-05
4.47766e-10
4.37206e-05
5.73058e-10
4.37205e-05
6.50542e-10
4.37204e-05
6.80225e-10
4.37203e-05
6.74912e-10
4.37203e-05
6.43524e-10
4.37202e-05
5.94596e-10
4.37201e-05
5.39863e-10
4.37201e-05
4.76397e-10
4.372e-05
4.11304e-10
4.372e-05
3.4552e-10
4.37199e-05
2.7682e-10
4.37199e-05
2.12793e-10
4.37199e-05
1.50498e-10
4.37199e-05
8.77084e-11
4.37199e-05
2.88372e-11
4.37199e-05
-2.93703e-11
4.37199e-05
-8.22937e-11
4.37199e-05
-1.25302e-10
4.37199e-05
-1.64996e-10
4.37199e-05
-2.03528e-10
4.372e-05
-2.39766e-10
4.372e-05
-2.70899e-10
4.37201e-05
-2.97408e-10
4.37201e-05
-3.19993e-10
4.37201e-05
-3.39375e-10
4.37202e-05
-3.56406e-10
4.37203e-05
-3.73421e-10
4.37203e-05
-3.88598e-10
4.37204e-05
-4.00132e-10
4.37204e-05
-4.09152e-10
4.37205e-05
-4.17206e-10
4.37206e-05
-4.25127e-10
4.37206e-05
-4.27894e-10
4.37207e-05
-4.26917e-10
4.37207e-05
-4.13792e-10
4.37208e-05
-3.93974e-10
4.37209e-05
-3.58372e-10
4.37209e-05
-3.1242e-10
4.3721e-05
-2.49846e-10
4.3721e-05
-1.65777e-10
4.3721e-05
-1.07313e-10
4.37211e-05
-7.11919e-11
4.37211e-05
-5.54343e-11
4.37211e-05
-6.07371e-11
4.37211e-05
-7.20499e-11
4.37211e-05
-8.52646e-11
4.37211e-05
-9.6216e-11
4.37211e-05
-1.02385e-10
4.37211e-05
-1.04256e-10
4.37212e-05
-1.00708e-10
4.37212e-05
-9.07351e-11
4.37212e-05
-7.60305e-11
4.37212e-05
-5.30591e-11
4.37212e-05
-2.49073e-11
4.37212e-05
6.84846e-12
4.37212e-05
3.91978e-11
4.37211e-05
6.71204e-11
4.37211e-05
9.57888e-11
4.37211e-05
1.24756e-10
4.37211e-05
1.49544e-10
4.37211e-05
1.71555e-10
4.3721e-05
1.88903e-10
4.3721e-05
2.0038e-10
4.3721e-05
2.10399e-10
4.37209e-05
2.1736e-10
4.37209e-05
2.21745e-10
4.37209e-05
2.23611e-10
4.37208e-05
2.2094e-10
4.37208e-05
2.17199e-10
4.37208e-05
2.11045e-10
4.37207e-05
2.03664e-10
4.37207e-05
1.95044e-10
4.37207e-05
1.84852e-10
4.37207e-05
1.7461e-10
4.37206e-05
1.624e-10
4.37206e-05
1.51071e-10
4.37206e-05
1.40715e-10
4.37206e-05
1.27634e-10
4.37205e-05
1.11461e-10
4.37205e-05
9.47765e-11
4.37205e-05
7.50188e-11
4.37205e-05
5.69793e-11
4.37205e-05
4.49724e-11
4.37205e-05
3.79903e-11
4.37205e-05
3.6329e-11
4.37205e-05
3.35107e-11
4.37205e-05
2.82503e-11
4.37205e-05
1.98866e-11
4.37205e-05
7.43057e-12
4.37205e-05
-7.1225e-12
4.37205e-05
-2.32971e-11
4.37205e-05
-4.00902e-11
4.37205e-05
-5.81058e-11
4.37205e-05
-7.33685e-11
4.37205e-05
-8.76773e-11
4.37205e-05
-8.68635e-11
4.37206e-05
-7.92703e-11
4.37206e-05
-5.36762e-11
4.37206e-05
-1.01457e-11
4.37206e-05
1.22628e-11
4.37206e-05
1.58373e-11
4.37206e-05
3.19944e-12
4.37206e-05
-2.11166e-11
4.37206e-05
-4.96261e-11
4.37206e-05
-7.81227e-11
4.37206e-05
-1.06528e-10
4.37207e-05
-1.33203e-10
4.37207e-05
-1.54774e-10
4.37207e-05
-1.70203e-10
4.37207e-05
-1.68575e-10
4.37207e-05
-1.51091e-10
4.37207e-05
-1.50001e-10
4.37208e-05
-3.83346e-11
-1.39975e-10
4.75728e-05
-4.14954e-10
4.75728e-05
-3.87802e-10
4.75728e-05
-1.80538e-10
4.75728e-05
7.91108e-11
4.75727e-05
3.19321e-10
4.75726e-05
5.07796e-10
4.75726e-05
6.39985e-10
4.75725e-05
7.2024e-10
4.75724e-05
7.50959e-10
4.75724e-05
7.45948e-10
4.75723e-05
7.12465e-10
4.75722e-05