/*--------------------------------*- C++ -*----------------------------------*\
  =========                 |
  \\      /  F ield         | OpenFOAM: The Open Source CFD Toolbox
   \\    /   O peration     | Website:  https://openfoam.org
    \\  /    A nd           | Version:  7
     \\/     M anipulation  |
\*---------------------------------------------------------------------------*/
FoamFile
{
    version     2.0;
    format      ascii;
    class       volVectorField;
    location    "18000";
    object      U;
}
// * * * * * * * * * * * * * * * * * * * * * * * * * * * * * * * * * * * * * //

dimensions      [0 1 -1 0 0 0 0];

internalField   nonuniform List<vector> 
24000
(
(0.00398204 5.9294e-11 7.87733e-16)
(0.00398205 -9.07597e-11 7.74886e-16)
(0.00398207 -1.18026e-10 7.75434e-16)
(0.00398208 -8.2417e-11 7.01021e-16)
(0.00398209 -2.79363e-11 4.18402e-16)
(0.00398208 1.8374e-11 6.92355e-16)
(0.00398208 5.47492e-11 4.20577e-16)
(0.00398206 7.85032e-11 7.01603e-16)
(0.00398205 9.2123e-11 7.49486e-16)
(0.00398203 9.80446e-11 4.30698e-16)
(0.00398201 9.39617e-11 7.18678e-16)
(0.003982 8.53297e-11 7.26755e-16)
(0.00398198 8.00162e-11 7.30991e-16)
(0.00398197 6.99831e-11 7.092e-16)
(0.00398196 6.12694e-11 6.73319e-16)
(0.00398195 5.48574e-11 7.19962e-16)
(0.00398194 4.19136e-11 7.07985e-16)
(0.00398194 3.49526e-11 7.09646e-16)
(0.00398193 2.62529e-11 6.86834e-16)
(0.00398193 1.46189e-11 6.55678e-16)
(0.00398193 7.07357e-12 7.1427e-16)
(0.00398192 1.85153e-13 6.70394e-16)
(0.00398193 -6.50762e-12 6.9061e-16)
(0.00398193 -1.57362e-11 6.68437e-16)
(0.00398193 -2.32289e-11 6.18565e-16)
(0.00398194 -2.54317e-11 7.06459e-16)
(0.00398194 -3.10704e-11 6.76765e-16)
(0.00398195 -3.79397e-11 6.89533e-16)
(0.00398195 -3.90897e-11 6.59611e-16)
(0.00398196 -4.10054e-11 6.01061e-16)
(0.00398197 -4.75652e-11 6.85176e-16)
(0.00398198 -5.10717e-11 6.67434e-16)
(0.00398198 -5.14616e-11 6.82593e-16)
(0.00398199 -5.26078e-11 6.57223e-16)
(0.003982 -5.59026e-11 5.96868e-16)
(0.00398201 -5.74226e-11 6.6883e-16)
(0.00398202 -5.57965e-11 6.50928e-16)
(0.00398203 -5.83868e-11 6.76057e-16)
(0.00398204 -5.60376e-11 6.44145e-16)
(0.00398205 -5.87815e-11 5.96976e-16)
(0.00398206 -4.98497e-11 6.36862e-16)
(0.00398207 -4.47417e-11 9.21097e-16)
(0.00398207 -2.87037e-11 6.99445e-16)
(0.00398208 -1.44959e-11 6.96639e-16)
(0.00398208 -1.28558e-12 7.08489e-16)
(0.00398208 3.12751e-11 7.17252e-16)
(0.00398208 2.92007e-11 9.53939e-16)
(0.00398208 2.73851e-11 7.30431e-16)
(0.00398208 1.89471e-11 7.21047e-16)
(0.00398208 5.27703e-12 7.2829e-16)
(0.00398208 1.62809e-13 7.35165e-16)
(0.00398208 -7.35264e-12 8.92814e-16)
(0.00398208 -1.20869e-11 7.42156e-16)
(0.00398208 -1.64856e-11 9.71893e-16)
(0.00398209 -1.94272e-11 6.78581e-16)
(0.00398209 -2.27615e-11 7.63221e-16)
(0.00398209 -2.39411e-11 1.0047e-15)
(0.0039821 -2.34881e-11 7.68228e-16)
(0.0039821 -2.06566e-11 9.4505e-16)
(0.0039821 -1.8339e-11 7.42558e-16)
(0.0039821 -1.54294e-11 7.78465e-16)
(0.0039821 -1.02367e-11 1.03603e-15)
(0.0039821 -5.22181e-12 7.80737e-16)
(0.0039821 5.3608e-14 9.64885e-16)
(0.0039821 4.56408e-12 7.09162e-16)
(0.0039821 7.53994e-12 7.91357e-16)
(0.0039821 1.21257e-11 9.82046e-16)
(0.0039821 1.69787e-11 7.94304e-16)
(0.00398209 1.77821e-11 1.12018e-15)
(0.00398209 2.07104e-11 7.88394e-16)
(0.00398208 2.07498e-11 8.08901e-16)
(0.00398208 2.19809e-11 9.57618e-16)
(0.00398208 2.36042e-11 7.96599e-16)
(0.00398207 2.17158e-11 9.50194e-16)
(0.00398207 2.39676e-11 7.25643e-16)
(0.00398206 2.49718e-11 8.00866e-16)
(0.00398206 2.23207e-11 9.56277e-16)
(0.00398205 1.93057e-11 8.04996e-16)
(0.00398205 1.85461e-11 9.33483e-16)
(0.00398205 1.67277e-11 7.84565e-16)
(0.00398204 1.37867e-11 5.60719e-16)
(0.00398204 1.30474e-11 7.65334e-16)
(0.00398204 1.27726e-11 8.16533e-16)
(0.00398203 1.03822e-11 4.8024e-16)
(0.00398203 6.92647e-12 6.83673e-16)
(0.00398203 6.15918e-12 4.80082e-16)
(0.00398203 -1.05603e-12 6.96673e-16)
(0.00398203 -7.00742e-12 7.79341e-16)
(0.00398203 -6.76633e-12 4.38393e-16)
(0.00398203 -6.83076e-12 6.35329e-16)
(0.00398203 -3.29171e-12 5.39782e-16)
(0.00398203 -3.40348e-12 6.79976e-16)
(0.00398203 -3.77936e-12 7.75119e-16)
(0.00398203 -5.01851e-12 5.62978e-16)
(0.00398203 -8.12453e-12 7.00682e-16)
(0.00398203 -8.19828e-12 5.29952e-16)
(0.00398203 -1.07761e-11 6.94362e-16)
(0.00398203 -1.09098e-11 7.84365e-16)
(0.00398204 -1.2611e-11 5.2364e-16)
(0.00398204 -7.18095e-12 6.63253e-16)
(0.00398204 -8.04964e-12 5.66671e-16)
(0.00398204 4.51184e-12 6.65141e-16)
(0.00398204 1.00327e-11 7.7539e-16)
(0.00398204 2.23629e-11 5.14448e-16)
(0.00398204 4.53054e-11 6.80658e-16)
(0.00398203 3.95195e-11 5.93025e-16)
(0.00398203 3.66393e-11 7.15431e-16)
(0.00398202 2.36164e-11 7.69692e-16)
(0.00398202 9.26195e-12 5.951e-16)
(0.00398202 -2.99097e-12 6.88282e-16)
(0.00398202 -1.38674e-11 5.87424e-16)
(0.00398203 -2.00713e-11 4.97123e-16)
(0.00398203 -2.68162e-11 7.60663e-16)
(0.00398203 -3.00207e-11 5.54009e-16)
(0.00398204 -3.19175e-11 6.88893e-16)
(0.00398204 -3.06716e-11 5.72552e-16)
(0.00398205 -1.74118e-11 5.27039e-16)
(0.00398205 -2.36594e-11 7.65321e-16)
(0.00398206 -9.65272e-12 6.11137e-16)
(0.00398205 9.70365e-11 7.01582e-16)
(0.0120196 -7.17164e-11 2.38264e-15)
(0.0120196 -1.33019e-09 2.34303e-15)
(0.0120197 -1.53008e-09 2.34469e-15)
(0.0120197 -9.05496e-10 2.11044e-15)
(0.0120197 -7.49085e-11 1.35282e-15)
(0.0120197 6.38848e-10 2.10359e-15)
(0.0120197 1.16855e-09 1.69149e-15)
(0.0120196 1.51295e-09 2.13213e-15)
(0.0120196 1.70117e-09 2.26569e-15)
(0.0120195 1.74609e-09 1.58943e-15)
(0.0120195 1.66461e-09 2.18232e-15)
(0.0120194 1.52812e-09 2.19529e-15)
(0.0120194 1.39394e-09 2.20953e-15)
(0.0120194 1.23251e-09 2.14379e-15)
(0.0120193 1.07596e-09 2.0359e-15)
(0.0120193 9.25393e-10 2.17634e-15)
(0.0120193 7.37428e-10 2.14068e-15)
(0.0120192 5.82903e-10 2.14607e-15)
(0.0120192 4.26955e-10 2.07575e-15)
(0.0120192 2.52488e-10 1.99031e-15)
(0.0120192 1.06139e-10 2.15883e-15)
(0.0120192 -2.31853e-11 2.02531e-15)
(0.0120192 -1.51092e-10 2.08855e-15)
(0.0120192 -2.88433e-10 2.0065e-15)
(0.0120192 -4.01699e-10 1.874e-15)
(0.0120193 -4.71388e-10 2.14197e-15)
(0.0120193 -5.57853e-10 2.05294e-15)
(0.0120193 -6.53091e-10 2.08524e-15)
(0.0120193 -7.03968e-10 1.99223e-15)
(0.0120193 -7.49185e-10 1.82284e-15)
(0.0120193 -8.23213e-10 2.07788e-15)
(0.0120194 -8.7629e-10 2.01747e-15)
(0.0120194 -8.97858e-10 2.06391e-15)
(0.0120194 -9.20789e-10 1.98834e-15)
(0.0120194 -9.60065e-10 1.80733e-15)
(0.0120195 -9.83602e-10 2.02818e-15)
(0.0120195 -9.81389e-10 1.96344e-15)
(0.0120195 -9.95644e-10 2.04358e-15)
(0.0120196 -9.95879e-10 1.95016e-15)
(0.0120196 -1.00241e-09 1.80657e-15)
(0.0120196 -9.22038e-10 1.92694e-15)
(0.0120196 -8.22447e-10 2.1256e-15)
(0.0120197 -6.53437e-10 2.10908e-15)
(0.0120197 -4.77283e-10 2.10651e-15)
(0.0120197 -2.59594e-10 2.14212e-15)
(0.0120197 7.54431e-11 2.17016e-15)
(0.0120197 1.91434e-10 2.25098e-15)
(0.0120197 2.06328e-10 2.20125e-15)
(0.0120197 1.39893e-10 2.18104e-15)
(0.0120197 1.73592e-11 2.2027e-15)
(0.0120197 -6.47688e-11 2.22379e-15)
(0.0120197 -1.47693e-10 2.28858e-15)
(0.0120197 -2.15781e-10 2.23933e-15)
(0.0120197 -2.68842e-10 2.31837e-15)
(0.0120197 -3.0676e-10 2.00734e-15)
(0.0120197 -3.37111e-10 2.30754e-15)
(0.0120197 -3.43004e-10 2.40149e-15)
(0.0120197 -3.21381e-10 2.31795e-15)
(0.0120197 -2.7511e-10 2.41495e-15)
(0.0120198 -2.24141e-10 2.07844e-15)
(0.0120198 -1.61852e-10 2.35637e-15)
(0.0120198 -7.83103e-11 2.45784e-15)
(0.0120198 8.33446e-12 2.35579e-15)
(0.0120198 9.32154e-11 2.46168e-15)
(0.0120198 1.68322e-10 2.25318e-15)
(0.0120197 2.29482e-10 2.39661e-15)
(0.0120197 2.98919e-10 2.49118e-15)
(0.0120197 3.63299e-10 2.3941e-15)
(0.0120197 3.95237e-10 2.50135e-15)
(0.0120197 4.25932e-10 2.3656e-15)
(0.0120197 4.37968e-10 2.45117e-15)
(0.0120197 4.53953e-10 2.48822e-15)
(0.0120197 4.68533e-10 2.40419e-15)
(0.0120197 4.59232e-10 2.47769e-15)
(0.0120196 4.69744e-10 2.11943e-15)
(0.0120196 4.72532e-10 2.42338e-15)
(0.0120196 4.41509e-10 2.4878e-15)
(0.0120196 3.99725e-10 2.42739e-15)
(0.0120196 3.73282e-10 2.47106e-15)
(0.0120196 3.46285e-10 2.21304e-15)
(0.0120196 3.11112e-10 2.29756e-15)
(0.0120196 2.8957e-10 2.21909e-15)
(0.0120196 2.74431e-10 2.4716e-15)
(0.0120195 2.38495e-10 2.16974e-15)
(0.0120195 1.93524e-10 2.05436e-15)
(0.0120195 1.47376e-10 2.11813e-15)
(0.0120195 5.72847e-11 1.99806e-15)
(0.0120195 -1.24747e-11 2.35951e-15)
(0.0120195 -2.98399e-11 2.14098e-15)
(0.0120195 -2.86528e-11 2.0633e-15)
(0.0120195 -2.86645e-12 2.07036e-15)
(0.0120195 1.67477e-12 1.95533e-15)
(0.0120195 -6.35276e-12 2.34492e-15)
(0.0120195 -2.6072e-11 2.1155e-15)
(0.0120195 -5.9418e-11 2.02643e-15)
(0.0120195 -8.18599e-11 2.17826e-15)
(0.0120195 -1.14503e-10 2.04775e-15)
(0.0120195 -1.4124e-10 2.36969e-15)
(0.0120195 -1.61997e-10 2.17285e-15)
(0.0120195 -1.45879e-10 2.00079e-15)
(0.0120195 -1.42198e-10 2.12257e-15)
(0.0120196 -5.26417e-11 2.18259e-15)
(0.0120196 2.10216e-11 2.34703e-15)
(0.0120196 1.78126e-10 2.12726e-15)
(0.0120195 4.07386e-10 1.95939e-15)
(0.0120195 4.31008e-10 2.13917e-15)
(0.0120195 3.84939e-10 2.19081e-15)
(0.0120195 2.53193e-10 2.33129e-15)
(0.0120195 8.39114e-11 2.1435e-15)
(0.0120195 -7.48976e-11 1.94006e-15)
(0.0120195 -2.13622e-10 2.13099e-15)
(0.0120195 -3.13854e-10 2.07698e-15)
(0.0120195 -4.00204e-10 2.30507e-15)
(0.0120195 -4.57502e-10 2.12137e-15)
(0.0120196 -4.98237e-10 2.13668e-15)
(0.0120196 -4.82436e-10 2.1298e-15)
(0.0120196 -3.63043e-10 2.04776e-15)
(0.0120196 -4.14595e-10 2.32106e-15)
(0.0120196 -5.72872e-11 2.19057e-15)
(0.0120196 6.07531e-10 2.14797e-15)
(0.0202205 -9.71452e-10 4.03213e-15)
(0.0202206 -3.90799e-09 3.94123e-15)
(0.0202206 -4.13752e-09 3.94823e-15)
(0.0202207 -2.25398e-09 3.49535e-15)
(0.0202207 1.30266e-10 3.29488e-15)
(0.0202207 2.1575e-09 3.60132e-15)
(0.0202206 3.6424e-09 3.33597e-15)
(0.0202205 4.59977e-09 3.65018e-15)
(0.0202205 5.10966e-09 3.80763e-15)
(0.0202204 5.19736e-09 3.42419e-15)
(0.0202203 4.94233e-09 3.73807e-15)
(0.0202202 4.53844e-09 3.68649e-15)
(0.0202202 4.12153e-09 3.72023e-15)
(0.0202201 3.64674e-09 3.6039e-15)
(0.02022 3.17833e-09 3.43441e-15)
(0.02022 2.71567e-09 3.67021e-15)
(0.02022 2.17091e-09 3.60118e-15)
(0.0202199 1.70071e-09 3.61665e-15)
(0.0202199 1.23582e-09 3.48809e-15)
(0.0202199 7.33168e-10 3.37101e-15)
(0.0202199 2.95737e-10 3.64202e-15)
(0.0202199 -9.50244e-11 3.40494e-15)
(0.0202199 -4.78257e-10 3.52628e-15)
(0.0202199 -8.70573e-10 3.3207e-15)
(0.0202199 -1.1956e-09 3.16397e-15)
(0.0202199 -1.41489e-09 3.64705e-15)
(0.02022 -1.66559e-09 3.47055e-15)
(0.02022 -1.93545e-09 3.51834e-15)
(0.02022 -2.10033e-09 3.34889e-15)
(0.02022 -2.24014e-09 3.08363e-15)
(0.0202201 -2.43775e-09 3.54241e-15)
(0.0202201 -2.58616e-09 3.3957e-15)
(0.0202202 -2.65715e-09 3.47963e-15)
(0.0202202 -2.72643e-09 3.34797e-15)
(0.0202203 -2.83237e-09 3.03668e-15)
(0.0202203 -2.90166e-09 3.4459e-15)
(0.0202203 -2.90283e-09 3.28429e-15)
(0.0202204 -2.9372e-09 3.44489e-15)
(0.0202204 -2.95098e-09 3.28697e-15)
(0.0202205 -2.96138e-09 3.04769e-15)
(0.0202205 -2.75213e-09 3.26117e-15)
(0.0202206 -2.47076e-09 3.39245e-15)
(0.0202206 -2.03575e-09 3.55003e-15)
(0.0202206 -1.56249e-09 3.54645e-15)
(0.0202207 -9.5828e-10 3.61055e-15)
(0.0202207 -7.50798e-11 3.66024e-15)
(0.0202207 3.1925e-10 3.61373e-15)
(0.0202207 4.11585e-10 3.69981e-15)
(0.0202207 2.72091e-10 3.67313e-15)
(0.0202207 -2.02201e-11 3.71421e-15)
(0.0202207 -2.40385e-10 3.74928e-15)
(0.0202207 -4.58879e-10 3.69149e-15)
(0.0202207 -6.43777e-10 3.76892e-15)
(0.0202207 -7.85168e-10 3.73653e-15)
(0.0202207 -8.83922e-10 4.10057e-15)
(0.0202207 -9.55564e-10 3.91307e-15)
(0.0202207 -9.59013e-10 3.85267e-15)
(0.0202208 -8.85488e-10 3.89876e-15)
(0.0202208 -7.47036e-10 3.88227e-15)
(0.0202208 -5.89297e-10 4.09854e-15)
(0.0202208 -3.97577e-10 3.982e-15)
(0.0202208 -1.52247e-10 3.93338e-15)
(0.0202208 1.02156e-10 3.96492e-15)
(0.0202208 3.48556e-10 3.95366e-15)
(0.0202208 5.68723e-10 4.10429e-15)
(0.0202208 7.53151e-10 4.0647e-15)
(0.0202208 9.51675e-10 3.98283e-15)
(0.0202207 1.13178e-09 4.02399e-15)
(0.0202207 1.22998e-09 4.01083e-15)
(0.0202207 1.31323e-09 4.28352e-15)
(0.0202207 1.35148e-09 4.14228e-15)
(0.0202206 1.39556e-09 4.02465e-15)
(0.0202206 1.43338e-09 4.04625e-15)
(0.0202206 1.41337e-09 4.01747e-15)
(0.0202206 1.43054e-09 4.15912e-15)
(0.0202206 1.42797e-09 4.10687e-15)
(0.0202205 1.34357e-09 4.01922e-15)
(0.0202205 1.226e-09 4.07955e-15)
(0.0202205 1.14209e-09 4.03943e-15)
(0.0202205 1.06494e-09 4.46167e-15)
(0.0202205 9.69484e-10 4.0293e-15)
(0.0202204 9.02019e-10 4.26415e-15)
(0.0202204 8.50721e-10 4.17991e-15)
(0.0202204 7.48072e-10 3.86721e-15)
(0.0202204 6.19629e-10 4.01727e-15)
(0.0202204 4.69232e-10 3.78513e-15)
(0.0202204 2.20833e-10 4.17138e-15)
(0.0202204 3.68211e-11 3.99379e-15)
(0.0202204 -1.97288e-11 3.75429e-15)
(0.0202204 -2.11369e-11 3.82975e-15)
(0.0202204 3.75471e-11 3.69424e-15)
(0.0202204 4.92035e-11 4.10563e-15)
(0.0202204 2.50642e-11 3.96863e-15)
(0.0202204 -3.03399e-11 3.71437e-15)
(0.0202204 -1.20399e-10 4.15188e-15)
(0.0202204 -1.93748e-10 3.81866e-15)
(0.0202204 -2.89892e-10 4.01472e-15)
(0.0202204 -3.77735e-10 4.00988e-15)
(0.0202204 -4.46373e-10 3.783e-15)
(0.0202204 -4.34345e-10 4.08259e-15)
(0.0202204 -4.36536e-10 3.75795e-15)
(0.0202204 -2.37709e-10 3.95013e-15)
(0.0202204 -5.04196e-11 3.98521e-15)
(0.0202204 3.64574e-10 3.70261e-15)
(0.0202204 9.58785e-10 4.072e-15)
(0.0202204 1.06745e-09 3.73089e-15)
(0.0202204 9.5609e-10 3.98713e-15)
(0.0202204 6.219e-10 3.94734e-15)
(0.0202204 1.80293e-10 3.71049e-15)
(0.0202204 -2.45262e-10 4.08604e-15)
(0.0202204 -6.2119e-10 3.72038e-15)
(0.0202204 -9.03249e-10 3.63387e-15)
(0.0202204 -1.14069e-09 3.90273e-15)
(0.0202204 -1.30732e-09 3.74722e-15)
(0.0202204 -1.43013e-09 3.96697e-15)
(0.0202205 -1.39763e-09 3.75572e-15)
(0.0202205 -1.10133e-09 3.64676e-15)
(0.0202205 -1.2067e-09 3.93222e-15)
(0.0202205 -1.85858e-10 3.79104e-15)
(0.0202205 1.10655e-09 3.99082e-15)
(0.0285526 -3.25573e-09 5.69972e-15)
(0.0285527 -7.93877e-09 5.55956e-15)
(0.0285528 -7.68116e-09 5.57709e-15)
(0.0285528 -3.76576e-09 4.8584e-15)
(0.0285528 9.12723e-10 4.99959e-15)
(0.0285528 4.83971e-09 5.19095e-15)
(0.0285527 7.68226e-09 5.0633e-15)
(0.0285526 9.49791e-09 5.25776e-15)
(0.0285525 1.04374e-08 5.36697e-15)
(0.0285524 1.05242e-08 5.19008e-15)
(0.0285523 9.97849e-09 5.37927e-15)
(0.0285522 9.1642e-09 5.18695e-15)
(0.0285521 8.30229e-09 5.2589e-15)
(0.028552 7.34829e-09 5.06669e-15)
(0.0285519 6.388e-09 4.91866e-15)
(0.0285518 5.43004e-09 5.20274e-15)
(0.0285518 4.34226e-09 5.06799e-15)
(0.0285518 3.37902e-09 5.11855e-15)
(0.0285517 2.43617e-09 4.90086e-15)
(0.0285517 1.43982e-09 4.80338e-15)
(0.0285517 5.54784e-10 5.16988e-15)
(0.0285517 -2.4542e-10 4.63716e-15)
(0.0285517 -1.0258e-09 5.01942e-15)
(0.0285517 -1.7954e-09 4.64376e-15)
(0.0285517 -2.43346e-09 4.48994e-15)
(0.0285518 -2.89111e-09 5.31916e-15)
(0.0285518 -3.39147e-09 4.75644e-15)
(0.0285518 -3.91924e-09 4.99341e-15)
(0.0285519 -4.26896e-09 4.75666e-15)
(0.0285519 -4.55923e-09 4.23563e-15)
(0.028552 -4.92834e-09 5.01732e-15)
(0.028552 -5.21125e-09 4.65858e-15)
(0.0285521 -5.36256e-09 4.93303e-15)
(0.0285522 -5.51195e-09 4.75492e-15)
(0.0285522 -5.71196e-09 4.37554e-15)
(0.0285523 -5.84383e-09 5.08811e-15)
(0.0285523 -5.85093e-09 4.55912e-15)
(0.0285524 -5.91387e-09 4.88522e-15)
(0.0285525 -5.95891e-09 4.51034e-15)
(0.0285525 -5.97142e-09 4.02998e-15)
(0.0285526 -5.57427e-09 4.6639e-15)
(0.0285527 -5.03275e-09 4.70492e-15)
(0.0285527 -4.25834e-09 5.04193e-15)
(0.0285528 -3.3782e-09 5.0024e-15)
(0.0285528 -2.22887e-09 5.1128e-15)
(0.0285528 -5.93444e-10 5.18223e-15)
(0.0285528 2.49967e-10 5.00107e-15)
(0.0285528 5.08212e-10 5.24079e-15)
(0.0285528 3.14599e-10 5.18267e-15)
(0.0285528 -1.69721e-10 5.26209e-15)
(0.0285528 -5.68351e-10 5.30621e-15)
(0.0285528 -9.68231e-10 5.11605e-15)
(0.0285529 -1.31232e-09 5.34048e-15)
(0.0285529 -1.57121e-09 5.19334e-15)
(0.0285529 -1.74672e-09 5.53822e-15)
(0.0285529 -1.86191e-09 5.50998e-15)
(0.0285529 -1.84344e-09 5.3195e-15)
(0.0285529 -1.67772e-09 5.52121e-15)
(0.028553 -1.39322e-09 5.38923e-15)
(0.028553 -1.06389e-09 5.6731e-15)
(0.028553 -6.64831e-10 5.6068e-15)
(0.028553 -1.70226e-10 5.45226e-15)
(0.028553 3.39022e-10 5.622e-15)
(0.028553 8.27946e-10 5.50083e-15)
(0.028553 1.26817e-09 5.75186e-15)
(0.0285529 1.64397e-09 5.73266e-15)
(0.0285529 2.03406e-09 5.515e-15)
(0.0285529 2.38124e-09 5.69412e-15)
(0.0285529 2.57988e-09 5.575e-15)
(0.0285528 2.73764e-09 5.87402e-15)
(0.0285528 2.81643e-09 5.8255e-15)
(0.0285528 2.90082e-09 5.58997e-15)
(0.0285527 2.96997e-09 5.73562e-15)
(0.0285527 2.9368e-09 5.59344e-15)
(0.0285527 2.95233e-09 5.81454e-15)
(0.0285526 2.92924e-09 5.79118e-15)
(0.0285526 2.76663e-09 5.56859e-15)
(0.0285526 2.53802e-09 5.77068e-15)
(0.0285525 2.36309e-09 5.6384e-15)
(0.0285525 2.21213e-09 5.93161e-15)
(0.0285525 2.03133e-09 5.75756e-15)
(0.0285525 1.89095e-09 5.95622e-15)
(0.0285525 1.77781e-09 5.86615e-15)
(0.0285524 1.5744e-09 5.54848e-15)
(0.0285524 1.32007e-09 5.66218e-15)
(0.0285524 9.90737e-10 5.41767e-15)
(0.0285524 5.14321e-10 5.58632e-15)
(0.0285524 1.87828e-10 5.63859e-15)
(0.0285524 7.20997e-11 5.37826e-15)
(0.0285524 5.97653e-11 5.42999e-15)
(0.0285524 1.53584e-10 5.32214e-15)
(0.0285524 1.70295e-10 5.52336e-15)
(0.0285524 1.19847e-10 5.60472e-15)
(0.0285524 1.30936e-11 5.3186e-15)
(0.0285524 -1.57995e-10 5.56045e-15)
(0.0285524 -3.14141e-10 5.46154e-15)
(0.0285524 -5.1047e-10 5.64152e-15)
(0.0285524 -6.9904e-10 5.6413e-15)
(0.0285524 -8.52497e-10 5.3983e-15)
(0.0285524 -8.77087e-10 5.55577e-15)
(0.0285524 -9.11334e-10 5.3739e-15)
(0.0285524 -6.02047e-10 5.61052e-15)
(0.0285524 -2.78507e-10 5.62179e-15)
(0.0285524 4.89253e-10 5.29777e-15)
(0.0285524 1.57045e-09 5.48525e-15)
(0.0285524 1.81245e-09 5.31673e-15)
(0.0285524 1.62856e-09 5.52603e-15)
(0.0285524 1.03674e-09 5.56413e-15)
(0.0285524 2.39013e-10 5.28832e-15)
(0.0285524 -5.44928e-10 5.46254e-15)
(0.0285524 -1.24721e-09 5.30138e-15)
(0.0285524 -1.78755e-09 5.22502e-15)
(0.0285524 -2.23798e-09 5.56823e-15)
(0.0285525 -2.56705e-09 5.36297e-15)
(0.0285525 -2.81661e-09 5.53147e-15)
(0.0285525 -2.77201e-09 5.36411e-15)
(0.0285525 -2.25031e-09 5.26485e-15)
(0.0285526 -2.4022e-09 5.61184e-15)
(0.0285526 -3.92888e-10 5.39848e-15)
(0.0285526 1.15587e-09 5.55892e-15)
(0.0368911 -7.60471e-09 7.37409e-15)
(0.0368912 -1.3404e-08 7.16007e-15)
(0.0368913 -1.16657e-08 7.19217e-15)
(0.0368913 -4.89498e-09 6.48109e-15)
(0.0368913 2.66585e-09 6.7812e-15)
(0.0368912 8.92804e-09 6.85016e-15)
(0.0368911 1.34115e-08 6.79813e-15)
(0.036891 1.62482e-08 6.92127e-15)
(0.0368909 1.76637e-08 6.8579e-15)
(0.0368907 1.76427e-08 6.91773e-15)
(0.0368906 1.66767e-08 7.06875e-15)
(0.0368904 1.5371e-08 6.64763e-15)
(0.0368903 1.39047e-08 6.81445e-15)
(0.0368902 1.22691e-08 6.48049e-15)
(0.0368901 1.06366e-08 6.42572e-15)
(0.0368901 8.99725e-09 6.79794e-15)
(0.03689 7.18673e-09 6.49067e-15)
(0.0368899 5.56041e-09 6.63839e-15)
(0.0368899 3.97582e-09 6.25983e-15)
(0.0368899 2.32955e-09 6.27996e-15)
(0.0368899 8.48121e-10 6.75614e-15)
(0.0368899 -5.07904e-10 6.48905e-15)
(0.0368899 -1.8251e-09 6.57491e-15)
(0.0368899 -3.07865e-09 6.52227e-15)
(0.0368899 -4.1178e-09 6.23728e-15)
(0.03689 -4.9032e-09 6.8231e-15)
(0.03689 -5.73695e-09 6.67516e-15)
(0.0368901 -6.59912e-09 6.5089e-15)
(0.0368901 -7.20463e-09 6.46983e-15)
(0.0368902 -7.70091e-09 6.107e-15)
(0.0368902 -8.27843e-09 6.6678e-15)
(0.0368903 -8.72465e-09 6.53418e-15)
(0.0368904 -8.98825e-09 6.42659e-15)
(0.0368905 -9.25255e-09 6.47837e-15)
(0.0368905 -9.56787e-09 6.06146e-15)
(0.0368906 -9.77775e-09 6.5618e-15)
(0.0368907 -9.83626e-09 6.43645e-15)
(0.0368908 -9.94634e-09 6.38975e-15)
(0.0368909 -9.99984e-09 6.37719e-15)
(0.0368909 -1.00059e-08 6.03762e-15)
(0.036891 -9.3528e-09 6.16456e-15)
(0.0368911 -8.49271e-09 6.3786e-15)
(0.0368912 -7.36233e-09 6.61062e-15)
(0.0368912 -5.99741e-09 6.42884e-15)
(0.0368913 -4.17999e-09 6.63873e-15)
(0.0368913 -1.63515e-09 6.70895e-15)
(0.0368913 -1.82807e-10 6.72604e-15)
(0.0368913 3.47911e-10 6.84876e-15)
(0.0368913 1.53947e-10 6.65938e-15)
(0.0368913 -4.9967e-10 6.83382e-15)
(0.0368913 -1.08801e-09 6.86719e-15)
(0.0368914 -1.6973e-09 6.86495e-15)
(0.0368914 -2.22585e-09 6.96486e-15)
(0.0368914 -2.61548e-09 7.00924e-15)
(0.0368914 -2.86965e-09 7.14604e-15)
(0.0368914 -3.01588e-09 7.08314e-15)
(0.0368915 -2.94118e-09 7.10155e-15)
(0.0368915 -2.63407e-09 7.19481e-15)
(0.0368915 -2.14746e-09 7.23513e-15)
(0.0368915 -1.57834e-09 7.17672e-15)
(0.0368915 -8.91128e-10 7.20901e-15)
(0.0368915 -6.0547e-11 7.33171e-15)
(0.0368915 7.86071e-10 7.33975e-15)
(0.0368915 1.59044e-09 7.41577e-15)
(0.0368915 2.32059e-09 7.33465e-15)
(0.0368914 2.95314e-09 7.36408e-15)
(0.0368914 3.5907e-09 7.39324e-15)
(0.0368914 4.14695e-09 7.41595e-15)
(0.0368913 4.4737e-09 7.51347e-15)
(0.0368913 4.72387e-09 7.6096e-15)
(0.0368913 4.85482e-09 7.46552e-15)
(0.0368912 4.99032e-09 7.50314e-15)
(0.0368912 5.09838e-09 7.4837e-15)
(0.0368911 5.0482e-09 7.52822e-15)
(0.0368911 5.04732e-09 7.41738e-15)
(0.0368911 4.98045e-09 7.446e-15)
(0.036891 4.71587e-09 7.46111e-15)
(0.036891 4.34339e-09 7.51178e-15)
(0.0368909 4.04627e-09 7.60637e-15)
(0.0368909 3.8047e-09 7.61566e-15)
(0.0368909 3.51711e-09 7.83366e-15)
(0.0368908 3.27625e-09 7.43782e-15)
(0.0368908 3.07265e-09 7.53325e-15)
(0.0368908 2.73281e-09 7.52302e-15)
(0.0368908 2.31111e-09 7.3193e-15)
(0.0368908 1.71136e-09 7.36747e-15)
(0.0368907 9.5113e-10 7.26769e-15)
(0.0368907 4.92052e-10 7.26729e-15)
(0.0368907 3.00937e-10 7.32608e-15)
(0.0368907 2.6206e-10 6.95155e-15)
(0.0368907 3.83462e-10 7.31611e-15)
(0.0368907 3.93981e-10 7.03264e-15)
(0.0368907 3.04773e-10 7.23714e-15)
(0.0368907 1.35057e-10 7.24401e-15)
(0.0368907 -1.3922e-10 6.96541e-15)
(0.0368907 -4.11535e-10 7.47854e-15)
(0.0368907 -7.47814e-10 7.15306e-15)
(0.0368907 -1.07946e-09 7.25861e-15)
(0.0368907 -1.36309e-09 7.31631e-15)
(0.0368907 -1.47228e-09 7.14826e-15)
(0.0368907 -1.58471e-09 7.33359e-15)
(0.0368908 -1.19127e-09 7.23149e-15)
(0.0368908 -7.36871e-10 7.25277e-15)
(0.0368908 4.60379e-10 7.21657e-15)
(0.0368908 2.10775e-09 7.0951e-15)
(0.0368908 2.4971e-09 7.23867e-15)
(0.0368908 2.24995e-09 7.16237e-15)
(0.0368907 1.38147e-09 7.17758e-15)
(0.0368907 1.90921e-10 7.18432e-15)
(0.0368907 -1.00161e-09 7.1053e-15)
(0.0368908 -2.09247e-09 7.20189e-15)
(0.0368908 -2.94706e-09 7.19357e-15)
(0.0368908 -3.65591e-09 7.307e-15)
(0.0368908 -4.19477e-09 7.284e-15)
(0.0368909 -4.61523e-09 6.98324e-15)
(0.0368909 -4.56803e-09 7.26619e-15)
(0.0368909 -3.7925e-09 7.24673e-15)
(0.036891 -3.97478e-09 7.36269e-15)
(0.036891 -6.52572e-10 7.31776e-15)
(0.036891 2.45237e-10 7.2193e-15)
(0.0449686 -1.42699e-08 9.03306e-15)
(0.0449687 -1.98814e-08 8.55887e-15)
(0.0449688 -1.54908e-08 8.77478e-15)
(0.0449689 -5.21343e-09 8.60331e-15)
(0.0449688 5.64152e-09 8.53772e-15)
(0.0449687 1.44527e-08 8.52088e-15)
(0.0449686 2.06981e-08 8.49383e-15)
(0.0449685 2.46267e-08 8.57052e-15)
(0.0449683 2.65026e-08 8.60937e-15)
(0.0449681 2.63775e-08 8.60208e-15)
(0.044968 2.49157e-08 8.72467e-15)
(0.0449678 2.29156e-08 8.32238e-15)
(0.0449677 2.06861e-08 8.3749e-15)
(0.0449676 1.82135e-08 8.10429e-15)
(0.0449675 1.57538e-08 7.99514e-15)
(0.0449674 1.32648e-08 8.39646e-15)
(0.0449673 1.0579e-08 8.12491e-15)
(0.0449673 8.14684e-09 8.16147e-15)
(0.0449672 5.78069e-09 7.81677e-15)
(0.0449672 3.35332e-09 7.79859e-15)
(0.0449672 1.14867e-09 8.0416e-15)
(0.0449672 -8.94943e-10 8.05682e-15)
(0.0449672 -2.87201e-09 8.1342e-15)
(0.0449672 -4.6848e-09 7.9849e-15)
(0.0449672 -6.19396e-09 7.90178e-15)
(0.0449673 -7.3928e-09 8.16785e-15)
(0.0449673 -8.63708e-09 7.98866e-15)
(0.0449674 -9.902e-09 7.96016e-15)
(0.0449675 -1.08282e-08 7.79726e-15)
(0.0449675 -1.15765e-08 7.75543e-15)
(0.0449676 -1.23865e-08 8.0073e-15)
(0.0449677 -1.30158e-08 7.82703e-15)
(0.0449678 -1.34261e-08 7.8478e-15)
(0.0449679 -1.38475e-08 7.8401e-15)
(0.0449679 -1.42905e-08 7.73311e-15)
(0.044968 -1.45893e-08 7.926e-15)
(0.0449681 -1.47349e-08 7.81425e-15)
(0.0449682 -1.49114e-08 7.83389e-15)
(0.0449683 -1.49657e-08 7.72698e-15)
(0.0449684 -1.49546e-08 7.66578e-15)
(0.0449685 -1.41281e-08 7.69747e-15)
(0.0449686 -1.29474e-08 8.14188e-15)
(0.0449687 -1.13406e-08 8.16797e-15)
(0.0449687 -9.41297e-09 8.23836e-15)
(0.0449688 -6.83793e-09 8.17649e-15)
(0.0449688 -3.26929e-09 8.19736e-15)
(0.0449689 -1.07172e-09 8.36007e-15)
(0.0449689 -1.65414e-10 8.43577e-15)
(0.0449689 -2.82913e-10 8.35325e-15)
(0.0449689 -1.04501e-09 8.40884e-15)
(0.0449689 -1.81226e-09 8.38714e-15)
(0.0449689 -2.64421e-09 8.53474e-15)
(0.044969 -3.36483e-09 8.56046e-15)
(0.044969 -3.88101e-09 8.6932e-15)
(0.044969 -4.2032e-09 8.77964e-15)
(0.044969 -4.35581e-09 8.59312e-15)
(0.044969 -4.17907e-09 8.93751e-15)
(0.0449691 -3.68008e-09 8.83563e-15)
(0.0449691 -2.94418e-09 8.97778e-15)
(0.0449691 -2.07089e-09 8.99867e-15)
(0.0449691 -1.01832e-09 8.75783e-15)
(0.0449691 2.2418e-10 9.3075e-15)
(0.0449691 1.47756e-09 9.02437e-15)
(0.0449691 2.65399e-09 9.44659e-15)
(0.044969 3.73228e-09 9.17315e-15)
(0.044969 4.67769e-09 8.93899e-15)
(0.044969 5.60656e-09 9.24703e-15)
(0.0449689 6.40008e-09 9.10359e-15)
(0.0449689 6.8732e-09 9.25254e-15)
(0.0449688 7.22996e-09 9.28957e-15)
(0.0449688 7.4215e-09 9.04928e-15)
(0.0449688 7.61843e-09 9.22522e-15)
(0.0449687 7.77396e-09 9.19538e-15)
(0.0449686 7.7004e-09 9.59276e-15)
(0.0449686 7.66398e-09 9.28718e-15)
(0.0449686 7.52592e-09 9.04982e-15)
(0.0449685 7.13972e-09 9.34108e-15)
(0.0449685 6.59189e-09 9.21953e-15)
(0.0449684 6.1509e-09 9.37476e-15)
(0.0449684 5.81817e-09 9.30927e-15)
(0.0449683 5.40529e-09 9.85551e-15)
(0.0449683 5.03653e-09 9.25568e-15)
(0.0449683 4.71382e-09 9.16535e-15)
(0.0449682 4.20044e-09 9.39237e-15)
(0.0449682 3.56864e-09 8.80507e-15)
(0.0449682 2.75802e-09 9.29952e-15)
(0.0449682 1.71106e-09 8.87717e-15)
(0.0449682 1.01228e-09 8.89184e-15)
(0.0449682 7.06794e-10 9.20123e-15)
(0.0449681 6.17623e-10 8.59794e-15)
(0.0449681 7.49463e-10 9.51878e-15)
(0.0449681 7.30446e-10 8.84365e-15)
(0.0449681 5.88074e-10 8.85544e-15)
(0.0449681 3.5052e-10 9.10793e-15)
(0.0449681 -4.80291e-11 8.73709e-15)
(0.0449681 -4.70725e-10 9.62632e-15)
(0.0449681 -9.86771e-10 8.93402e-15)
(0.0449681 -1.50309e-09 8.87566e-15)
(0.0449681 -1.96587e-09 9.13985e-15)
(0.0449681 -2.21712e-09 8.77095e-15)
(0.0449682 -2.46629e-09 9.39197e-15)
(0.0449682 -2.02849e-09 8.71994e-15)
(0.0449682 -1.46349e-09 8.87594e-15)
(0.0449682 7.43302e-11 9.08463e-15)
(0.0449682 2.29754e-09 8.55547e-15)
(0.0449682 2.96292e-09 9.09427e-15)
(0.0449682 2.7015e-09 8.72456e-15)
(0.0449682 1.57059e-09 8.80261e-15)
(0.0449682 -1.60697e-12 8.99988e-15)
(0.0449682 -1.61124e-09 8.7021e-15)
(0.0449682 -3.12977e-09 9.19627e-15)
(0.0449682 -4.3323e-09 9.09591e-15)
(0.0449683 -5.32689e-09 9.02896e-15)
(0.0449683 -6.11876e-09 9.11332e-15)
(0.0449683 -6.7553e-09 8.76554e-15)
(0.0449684 -6.71262e-09 9.11744e-15)
(0.0449684 -5.66659e-09 9.14879e-15)
(0.0449685 -5.8645e-09 9.09079e-15)
(0.0449685 -8.98525e-10 9.14704e-15)
(0.0449685 -1.90982e-09 8.8222e-15)
(0.0524537 -2.24846e-08 1.06281e-14)
(0.0524538 -2.66623e-08 1.03705e-14)
(0.0524539 -1.85417e-08 1.03095e-14)
(0.0524539 -4.42842e-09 1.02326e-14)
(0.0524539 9.71517e-09 1.01682e-14)
(0.0524538 2.1039e-08 1.01112e-14)
(0.0524536 2.90266e-08 1.0087e-14)
(0.0524535 3.40344e-08 1.01308e-14)
(0.0524533 3.63074e-08 1.01672e-14)
(0.0524531 3.60087e-08 1.01657e-14)
(0.052453 3.40435e-08 1.02727e-14)
(0.0524528 3.13133e-08 9.66341e-15)
(0.0524527 2.82512e-08 9.85977e-15)
(0.0524526 2.48366e-08 9.52697e-15)
(0.0524524 2.14307e-08 9.48769e-15)
(0.0524524 1.80074e-08 9.95676e-15)
(0.0524523 1.43604e-08 9.53558e-15)
(0.0524522 1.09948e-08 9.59891e-15)
(0.0524522 7.7502e-09 9.21084e-15)
(0.0524522 4.49912e-09 9.26007e-15)
(0.0524521 1.48834e-09 9.31384e-15)
(0.0524521 -1.3822e-09 9.50046e-15)
(0.0524522 -4.10369e-09 9.59098e-15)
(0.0524522 -6.49633e-09 9.15752e-15)
(0.0524522 -8.52533e-09 9.45439e-15)
(0.0524523 -1.02141e-08 9.50616e-15)
(0.0524523 -1.19241e-08 9.25499e-15)
(0.0524524 -1.3648e-08 9.31876e-15)
(0.0524524 -1.495e-08 9.12059e-15)
(0.0524525 -1.5974e-08 9.32251e-15)
(0.0524526 -1.70203e-08 9.34931e-15)
(0.0524527 -1.78475e-08 8.92134e-15)
(0.0524528 -1.84443e-08 9.17748e-15)
(0.0524529 -1.90591e-08 9.03199e-15)
(0.052453 -1.96663e-08 9.27343e-15)
(0.0524531 -2.00839e-08 9.26348e-15)
(0.0524532 -2.03462e-08 9.07579e-15)
(0.0524533 -2.05861e-08 9.18568e-15)
(0.0524534 -2.06466e-08 9.0154e-15)
(0.0524535 -2.06296e-08 9.21347e-15)
(0.0524536 -1.96096e-08 9.16751e-15)
(0.0524537 -1.81648e-08 9.565e-15)
(0.0524537 -1.6081e-08 9.61776e-15)
(0.0524538 -1.35398e-08 9.59061e-15)
(0.0524539 -1.01501e-08 9.61911e-15)
(0.052454 -5.48136e-09 9.59356e-15)
(0.052454 -2.47882e-09 9.92907e-15)
(0.052454 -1.08678e-09 9.9054e-15)
(0.052454 -9.97815e-10 9.87215e-15)
(0.052454 -1.82083e-09 9.87252e-15)
(0.0524541 -2.75108e-09 9.80691e-15)
(0.0524541 -3.76873e-09 1.01178e-14)
(0.0524541 -4.66906e-09 1.00406e-14)
(0.0524541 -5.29106e-09 1.03282e-14)
(0.0524541 -5.66626e-09 1.02932e-14)
(0.0524542 -5.79302e-09 9.96428e-15)
(0.0524542 -5.46111e-09 1.03948e-14)
(0.0524542 -4.7317e-09 1.03504e-14)
(0.0524542 -3.724e-09 1.0623e-14)
(0.0524542 -2.49799e-09 1.05578e-14)
(0.0524542 -9.7899e-10 1.01752e-14)
(0.0524542 7.27376e-10 1.0672e-14)
(0.0524542 2.39083e-09 1.05373e-14)
(0.0524542 3.96837e-09 1.08334e-14)
(0.0524542 5.43387e-09 1.07472e-14)
(0.0524541 6.72932e-09 1.03549e-14)
(0.0524541 7.97284e-09 1.07665e-14)
(0.0524541 9.01272e-09 1.06389e-14)
(0.052454 9.63901e-09 1.09518e-14)
(0.052454 1.01127e-08 1.08708e-14)
(0.0524539 1.04128e-08 1.04756e-14)
(0.0524538 1.06882e-08 1.08981e-14)
(0.0524538 1.08586e-08 1.0738e-14)
(0.0524537 1.07466e-08 1.10105e-14)
(0.0524537 1.06546e-08 1.09038e-14)
(0.0524536 1.0421e-08 1.04977e-14)
(0.0524536 9.90425e-09 1.08842e-14)
(0.0524535 9.19019e-09 1.07775e-14)
(0.0524535 8.60684e-09 1.11009e-14)
(0.0524534 8.16887e-09 1.0891e-14)
(0.0524534 7.60832e-09 1.11711e-14)
(0.0524534 7.08695e-09 1.09147e-14)
(0.0524533 6.62045e-09 1.07658e-14)
(0.0524533 5.93578e-09 1.1239e-14)
(0.0524533 5.06428e-09 1.07733e-14)
(0.0524532 4.01039e-09 1.10065e-14)