/*--------------------------------*- C++ -*----------------------------------*\
  =========                 |
  \\      /  F ield         | OpenFOAM: The Open Source CFD Toolbox
   \\    /   O peration     | Website:  https://openfoam.org
    \\  /    A nd           | Version:  7
     \\/     M anipulation  |
\*---------------------------------------------------------------------------*/
FoamFile
{
    version     2.0;
    format      ascii;
    class       surfaceScalarField;
    location    "3500";
    object      phi;
}
// * * * * * * * * * * * * * * * * * * * * * * * * * * * * * * * * * * * * * //

dimensions      [0 3 -1 0 0 0 0];

internalField   nonuniform List<scalar> 
7859
(
0.000140112
9.64584e-10
0.000140112
1.2421e-09
0.000140112
1.46085e-09
0.000140112
1.57266e-09
0.000140112
1.59336e-09
0.000140112
1.54544e-09
0.000140112
1.44929e-09
0.000140112
1.32132e-09
0.000140112
1.17332e-09
0.000140112
1.01385e-09
0.000140112
8.49076e-10
0.000140112
6.83327e-10
0.000140112
5.19647e-10
0.000140112
3.60284e-10
0.000140112
2.07055e-10
0.000140112
6.14666e-11
0.000140112
-7.53415e-11
0.000140112
-2.02663e-10
0.000140112
-3.20212e-10
0.000140112
-4.28043e-10
0.000140112
-5.2646e-10
0.000140112
-6.1593e-10
0.000140112
-6.97013e-10
0.000140112
-7.70308e-10
0.000140112
-8.36429e-10
0.000140113
-8.95988e-10
0.000140113
-9.49601e-10
0.000140113
-9.97888e-10
0.000140113
-1.04147e-09
0.000140113
-1.08094e-09
0.000140113
-1.11687e-09
0.000140113
-1.14981e-09
0.000140113
-1.18019e-09
0.000140113
-1.20839e-09
0.000140113
-1.23459e-09
0.000140113
-1.2589e-09
0.000140113
-1.28078e-09
0.000140113
-1.30008e-09
0.000140113
-1.31396e-09
0.000140113
-1.32292e-09
0.000140113
-1.31554e-09
0.000140113
-1.30019e-09
0.000140113
-1.23367e-09
0.000140113
-1.14721e-09
-9.91452e-10
0.000140113
-2.34582e-10
0.000140113
1.59289e-10
0.000140113
3.5175e-10
0.000140112
4.16833e-10
0.000140112
4.04019e-10
0.000140112
3.46706e-10
0.000140112
2.68219e-10
0.000140112
1.84378e-10
0.000140112
1.01777e-10
0.000140112
3.30588e-11
0.000140112
-2.59236e-11
0.000140112
-4.38658e-11
0.000140112
-5.15545e-11
0.000140112
4.89197e-11
0.000140112
1.82472e-10
5.09149e-10
0.000144609
9.78261e-10
0.000144609
1.25168e-09
0.000144609
1.4601e-09
0.000144609
1.56183e-09
0.000144609
1.5753e-09
0.000144609
1.52278e-09
0.000144609
1.42393e-09
0.000144609
1.29454e-09
0.000144609
1.1459e-09
0.000144609
9.86302e-10
0.000144609
8.21725e-10
0.000144609
6.56429e-10
0.000144609
4.93381e-10
0.000144609
3.3476e-10
0.000144609
1.82327e-10
0.000144609
3.75465e-11
0.000144609
-9.84638e-11
0.000144609
-2.25006e-10
0.000144609
-3.41793e-10
0.00014461
-4.48876e-10
0.00014461
-5.46554e-10
0.00014461
-6.35284e-10
0.00014461
-7.15615e-10
0.00014461
-7.88137e-10
0.00014461
-8.53457e-10
0.00014461
-9.12188e-10
0.00014461
-9.6495e-10
0.00014461
-1.01237e-09
0.00014461
-1.05508e-09
0.00014461
-1.09369e-09
0.00014461
-1.12878e-09
0.00014461
-1.1609e-09
0.00014461
-1.1905e-09
0.00014461
-1.21799e-09
0.00014461
-1.24355e-09
0.00014461
-1.26732e-09
0.00014461
-1.28879e-09
0.00014461
-1.3078e-09
0.00014461
-1.32155e-09
0.00014461
-1.33058e-09
0.00014461
-1.32324e-09
0.00014461
-1.30868e-09
0.00014461
-1.23977e-09
0.00014461
-1.15788e-09
-9.74454e-10
0.00014461
-1.31932e-10
0.00014461
2.47731e-10
0.00014461
4.28924e-10
0.00014461
4.85029e-10
0.000144609
4.64774e-10
0.000144609
4.01326e-10
0.000144609
3.17586e-10
0.000144609
2.29019e-10
0.000144609
1.42005e-10
0.000144609
6.89097e-11
0.000144609
5.84798e-12
0.000144609
-1.66135e-11
0.000144609
-2.80148e-11
0.000144609
6.78721e-11
0.000144609
1.92891e-10
5.18451e-10
0.000149206
9.91574e-10
0.000149206
1.25818e-09
0.000149206
1.45671e-09
0.000149206
1.54857e-09
0.000149206
1.55468e-09
0.000149206
1.49738e-09
0.000149206
1.39578e-09
0.000149206
1.26502e-09
0.000149206
1.11588e-09
0.000149206
9.56281e-10
0.000149206
7.92034e-10
0.000149206
6.27311e-10
0.000149206
4.65031e-10
0.000149206
3.07323e-10
0.000149206
1.55893e-10
0.000149206
1.21565e-11
0.000149206
-1.22805e-10
0.000149206
-2.48314e-10
0.000149206
-3.64092e-10
0.000149206
-4.70192e-10
0.000149206
-5.66905e-10
0.000149206
-6.5468e-10
0.000149206
-7.34055e-10
0.000149206
-8.05609e-10
0.000149206
-8.69945e-10
0.000149206
-9.27674e-10
0.000149206
-9.79422e-10
0.000149206
-1.02582e-09
0.000149206
-1.06751e-09
0.000149207
-1.10512e-09
0.000149207
-1.13923e-09
0.000149207
-1.17041e-09
0.000149207
-1.19912e-09
0.000149207
-1.22578e-09
0.000149207
-1.2506e-09
0.000149207
-1.27373e-09
0.000149207
-1.29469e-09
0.000149207
-1.31334e-09
0.000149207
-1.32693e-09
0.000149207
-1.33598e-09
0.000149207
-1.32877e-09
0.000149207
-1.31498e-09
0.000149207
-1.24426e-09
0.000149207
-1.16689e-09
-9.58317e-10
0.000149207
-3.16062e-11
0.000149206
3.34605e-10
0.000149206
5.06644e-10
0.000149206
5.54337e-10
0.000149206
5.26693e-10
0.000149206
4.57113e-10
0.000149206
3.68161e-10
0.000149206
2.74936e-10
0.000149206
1.83586e-10
0.000149206
1.06146e-10
0.000149206
3.89995e-11
0.000149206
1.1855e-11
0.000149206
-3.48459e-12
0.000149206
8.72053e-11
0.000149206
2.02415e-10
5.28225e-10
0.000153905
1.00492e-09
0.000153905
1.26285e-09
0.000153905
1.45073e-09
0.000153905
1.5327e-09
0.000153905
1.53145e-09
0.000153906
1.46931e-09
0.000153906
1.3649e-09
0.000153906
1.23281e-09
0.000153906
1.08327e-09
0.000153906
9.23823e-10
0.000153906
7.60066e-10
0.000153906
5.96074e-10
0.000153906
4.34724e-10
0.000153906
2.78106e-10
0.000153906
1.27878e-10
0.000153906
-1.45938e-11
0.000153906
-1.48271e-10
0.000153906
-2.72505e-10
0.000153906
-3.87033e-10
0.000153906
-4.91912e-10
0.000153906
-5.87433e-10
0.000153906
-6.74034e-10
0.000153906
-7.52242e-10
0.000153906
-8.22631e-10
0.000153906
-8.85795e-10
0.000153906
-9.42349e-10
0.000153906
-9.92921e-10
0.000153906
-1.03815e-09
0.000153906
-1.07868e-09
0.000153906
-1.11515e-09
0.000153906
-1.14816e-09
0.000153906
-1.17827e-09
0.000153906
-1.20597e-09
0.000153906
-1.23169e-09
0.000153906
-1.25566e-09
0.000153906
-1.27806e-09
0.000153906
-1.29844e-09
0.000153906
-1.31667e-09
0.000153906
-1.33005e-09
0.000153906
-1.3391e-09
0.000153906
-1.33212e-09
0.000153906
-1.31911e-09
0.000153906
-1.24723e-09
0.000153906
-1.17454e-09
-9.43909e-10
0.000153906
6.46376e-11
0.000153906
4.18342e-10
0.000153906
5.83189e-10
0.000153906
6.23659e-10
0.000153906
5.89109e-10
0.000153906
5.13578e-10
0.000153906
4.19515e-10
0.000153906
3.21727e-10
0.000153906
2.26149e-10
0.000153906
1.44435e-10
0.000153906
7.32435e-11
0.000153906
4.12939e-11
0.000153905
2.18057e-11
0.000153905
1.06724e-10
0.000153905
2.10788e-10
5.37594e-10
0.000158711
1.01814e-09
0.000158711
1.26647e-09
0.000158711
1.44253e-09
0.000158711
1.51425e-09
0.000158711
1.50557e-09
0.000158711
1.43856e-09
0.000158711
1.33133e-09
0.000158711
1.19793e-09
0.000158711
1.04809e-09
0.000158711
8.88944e-10
0.000158711
7.25861e-10
0.000158711
5.6279e-10
0.000158711
4.02556e-10
0.000158711
2.47216e-10
0.000158711
9.83916e-11
0.000158711
-4.2601e-11
0.000158711
-1.74767e-10
0.000158711
-2.97493e-10
0.000158711
-4.10534e-10
0.000158711
-5.1396e-10
0.000158711
-6.08058e-10
0.000158711
-6.93263e-10
0.000158711
-7.70094e-10
0.000158711
-8.39116e-10
0.000158711
-9.00922e-10
0.000158711
-9.56126e-10
0.000158711
-1.00536e-09
0.000158711
-1.04927e-09
0.000158711
-1.0885e-09
0.000158711
-1.12369e-09
0.000158711
-1.15547e-09
0.000158711
-1.1844e-09
0.000158711
-1.21098e-09
0.000158711
-1.23566e-09
0.000158711
-1.25869e-09
0.000158711
-1.28026e-09
0.000158711
-1.29998e-09
0.000158711
-1.31772e-09
0.000158711
-1.33088e-09
0.000158711
-1.33992e-09
0.000158711
-1.33328e-09
0.000158711
-1.32107e-09
0.000158711
-1.24876e-09
0.000158711
-1.18118e-09
-9.31165e-10
0.000158711
1.56558e-10
0.000158711
4.97894e-10
0.000158711
6.56712e-10
0.000158711
6.91332e-10
0.000158711
6.50812e-10
0.000158711
5.69835e-10
0.000158711
4.70945e-10
0.000158711
3.68789e-10
0.000158711
2.6916e-10
0.000158711
1.83307e-10
0.000158711
1.08164e-10
0.000158711
7.1341e-11
0.000158711
4.75238e-11
0.000158711
1.26133e-10
0.000158711
2.17761e-10
5.45827e-10
0.000163625
1.03083e-09
0.000163625
1.26938e-09
0.000163625
1.4325e-09
0.000163625
1.49338e-09
0.000163625
1.47707e-09
0.000163625
1.40514e-09
0.000163625
1.29508e-09
0.000163625
1.16041e-09
0.000163625
1.01034e-09
0.000163625
8.51657e-10
0.000163625
6.89444e-10
0.000163625
5.27505e-10
0.000163625
3.68597e-10
0.000163625
2.14743e-10
0.000163625
6.75283e-11
0.000163625
-7.17714e-11
0.000163625
-2.02205e-10
0.000163625
-3.23194e-10
0.000163625
-4.34518e-10
0.000163625
-5.36257e-10
0.000163625
-6.28704e-10
0.000163625
-7.12291e-10
0.000163625
-7.87531e-10
0.000163625
-8.54985e-10
0.000163625
-9.15245e-10
0.000163625
-9.68924e-10
0.000163625
-1.01665e-09
0.000163625
-1.05909e-09
0.000163625
-1.09688e-09
0.000163625
-1.13067e-09
0.000163625
-1.16108e-09
0.000163625
-1.18871e-09
0.000163625
-1.21407e-09
0.000163625
-1.2376e-09
0.000163625
-1.2596e-09
0.000163625
-1.28028e-09
0.000163625
-1.29927e-09
0.000163625
-1.31647e-09
0.000163625
-1.32938e-09
0.000163625
-1.3384e-09
0.000163625
-1.33224e-09
0.000163625
-1.3209e-09
0.000163625
-1.24888e-09
0.000163625
-1.18715e-09
-9.19878e-10
0.000163625
2.4448e-10
0.000163625
5.73021e-10
0.000163625
7.25913e-10
0.000163625
7.55715e-10
0.000163625
7.10344e-10
0.000163625
6.24721e-10
0.000163625
5.21514e-10
0.000163625
4.1534e-10
0.000163625
3.11938e-10
0.000163625
2.2216e-10
0.000163625
1.43226e-10
0.000163625
1.01525e-10
0.000163625
7.32404e-11
0.000163625
1.45047e-10
0.000163625
2.23033e-10
5.52315e-10
0.00016865
1.04253e-09
0.00016865
1.27159e-09
0.00016865
1.42088e-09
0.00016865
1.47024e-09
0.00016865
1.44599e-09
0.00016865
1.36907e-09
0.00016865
1.25617e-09
0.00016865
1.12025e-09
0.000168651
9.70049e-10
0.000168651
8.11973e-10
0.000168651
6.50832e-10
0.000168651
4.90251e-10
0.000168651
3.32898e-10
0.000168651
1.80753e-10
0.000168651
3.53665e-11
0.000168651
-1.02023e-10
0.000168651
-2.30503e-10
0.000168651
-3.49529e-10
0.000168651
-4.58906e-10
0.000168651
-5.58729e-10
0.000168651
-6.49299e-10
0.000168651
-7.31046e-10
0.000168651
-8.04483e-10
0.000168651
-8.70169e-10
0.000168651
-9.28694e-10
0.000168651
-9.80672e-10
0.000168651
-1.02674e-09
0.000168651
-1.06754e-09
0.000168651
-1.10374e-09
0.000168651
-1.136e-09
0.000168651
-1.16493e-09
0.000168651
-1.19114e-09
0.000168651
-1.21517e-09
0.000168651
-1.23746e-09
0.000168651
-1.25835e-09
0.000168651
-1.27805e-09
0.000168651
-1.29625e-09
0.000168651
-1.31286e-09
0.000168651
-1.32552e-09
0.000168651
-1.33454e-09
0.000168651
-1.329e-09
0.000168651
-1.31864e-09
0.000168651
-1.24761e-09
0.000168651
-1.19274e-09
-9.099e-10
0.000168651
3.28761e-10
0.000168651
6.43988e-10
0.000168651
7.90189e-10
0.000168651
8.15568e-10
0.000168651
7.66323e-10
0.000168651
6.76985e-10
0.000168651
5.70162e-10
0.000168651
4.60475e-10
0.00016865
3.53694e-10
0.00016865
2.60293e-10
0.00016865
1.778e-10
0.00016865
1.31284e-10
0.00016865
9.84424e-11
0.00016865
1.62998e-10
0.00016865
2.26244e-10
5.56553e-10
0.000173791
1.05275e-09
0.000173791
1.27287e-09
0.000173791
1.40772e-09
0.000173791
1.44496e-09
0.000173791
1.41241e-09
0.000173791
1.33035e-09
0.000173791
1.21461e-09
0.000173791
1.07747e-09
0.000173791
9.27229e-10
0.000173791
7.69909e-10
0.000173791
6.10039e-10
0.000173791
4.51049e-10
0.000173791
2.95495e-10
0.000173791
1.45296e-10
0.000173791
1.9687e-12
0.000173791
-1.33285e-10
0.000173791
-2.59588e-10
0.000173791
-3.76425e-10
0.000173791
-4.83628e-10
0.000173791
-5.81309e-10
0.000173791
-6.69775e-10
0.000173791
-7.49463e-10
0.000173791
-8.20887e-10
0.000173791
-8.84604e-10
0.000173791
-9.41206e-10
0.000173791
-9.91306e-10
0.000173791
-1.03554e-09
0.000173791
-1.07456e-09
0.000173791
-1.10904e-09
0.000173791
-1.13962e-09
0.000173791
-1.16695e-09
0.000173791
-1.19164e-09
0.000173791
-1.21422e-09
0.000173791
-1.23519e-09
0.000173791
-1.25487e-09
0.000173791
-1.27352e-09
0.000173791
-1.29089e-09
0.000173791
-1.30688e-09
0.000173791
-1.31928e-09
0.000173791
-1.32833e-09
0.000173791
-1.32357e-09
0.000173791
-1.31434e-09
0.000173791
-1.24499e-09
0.000173791
-1.19813e-09
-9.01145e-10
0.000173791
4.09591e-10
0.000173791
7.11236e-10
0.000173791
8.49481e-10
0.000173791
8.7018e-10
0.000173791
8.17674e-10
0.000173791
7.25484e-10
0.000173791
6.15829e-10
0.000173791
5.03249e-10
0.000173791
3.93585e-10
0.000173791
2.96947e-10
0.000173791
2.11195e-10
0.000173791
1.5999e-10
0.000173791
1.22554e-10
0.000173791
1.79462e-10
0.000173791
2.26976e-10
5.58104e-10
0.000179048
1.06107e-09
0.000179048
1.27289e-09
0.000179048
1.39292e-09
0.000179048
1.41754e-09
0.000179048
1.37636e-09
0.000179048
1.28902e-09
0.000179048
1.17039e-09
0.000179049
1.03209e-09
0.000179049
8.81901e-10
0.000179049
7.25484e-10
0.000179049
5.67083e-10
0.000179049
4.0992e-10
0.000179049
2.56414e-10
0.000179049
1.08412e-10
0.000179049
-3.26151e-11
0.000179049
-1.65499e-10
0.000179049
-2.89395e-10
0.000179049
-4.03817e-10
0.000179049
-5.0862e-10
0.000179049
-6.03932e-10
0.000179049
-6.90073e-10
0.000179049
-7.67486e-10
0.000179049
-8.36687e-10
0.000179049
-8.98237e-10
0.000179049
-9.52727e-10
0.000179049
-1.00077e-09
0.000179049
-1.04301e-09
0.000179049
-1.0801e-09
0.000179049
-1.1127e-09
0.000179049
-1.14149e-09
0.000179049
-1.16709e-09
0.000179049
-1.19014e-09
0.000179049
-1.21118e-09
0.000179049
-1.23073e-09
0.000179049
-1.24913e-09
0.000179049
-1.26667e-09
0.000179049
-1.28315e-09
0.000179049
-1.29848e-09
0.000179049
-1.31064e-09
0.000179049
-1.31976e-09
0.000179049
-1.31596e-09
0.000179049
-1.30805e-09
0.000179049
-1.24105e-09
0.000179049
-1.20345e-09
-8.93551e-10
0.000179049
4.87e-10
0.000179049
7.75169e-10
0.000179049
9.04042e-10
0.000179049
9.1931e-10
0.000179049
8.63715e-10
0.000179049
7.69322e-10
0.000179049
6.57578e-10
0.000179048
5.42772e-10
0.000179048
4.30784e-10
0.000179048
3.31356e-10
0.000179048
2.42697e-10
0.000179048
1.86987e-10
0.000179048
1.44963e-10
0.000179048
1.93875e-10
0.000179048
2.24776e-10
5.56576e-10
0.000184427
1.06708e-09
0.000184427
1.27128e-09
0.000184427
1.37626e-09
0.000184427
1.38791e-09
0.000184427
1.33782e-09
0.000184427
1.24505e-09
0.000184427
1.12354e-09
0.000184427
9.8413e-10
0.000184427
8.34089e-10
0.000184427
6.78722e-10
0.000184427
5.21986e-10
0.000184427
3.66882e-10
0.000184427
2.15679e-10
0.000184427
7.01314e-11
0.000184427
-6.83449e-11
0.000184427
-1.98618e-10
0.000184427
-3.19873e-10
0.000184427
-4.3165e-10
0.000184427
-5.33826e-10
0.000184427
-6.26545e-10
0.000184427
-7.10141e-10
0.000184427
-7.85064e-10
0.000184427
-8.51836e-10
0.000184427
-9.11021e-10
0.000184427
-9.63213e-10
0.000184427
-1.00903e-09
0.000184427
-1.04911e-09
0.000184427
-1.08411e-09
0.000184427
-1.1147e-09
0.000184427
-1.14155e-09
0.000184427
-1.16531e-09
0.000184427
-1.18661e-09
0.000184427
-1.20602e-09
0.000184427
-1.22405e-09
0.000184427
-1.2411e-09
0.000184427
-1.25747e-09
0.000184427
-1.27301e-09
0.000184427
-1.28768e-09
0.000184427
-1.29961e-09
0.000184427
-1.30885e-09
0.000184427
-1.30619e-09
0.000184427
-1.29982e-09
0.000184427
-1.23586e-09
0.000184427
-1.20879e-09
-8.87054e-10
0.000184427
5.60917e-10
0.000184427
8.36075e-10
0.000184427
9.54252e-10
0.000184427
9.63052e-10
0.000184427
9.04148e-10
0.000184427
8.07911e-10
0.000184427
6.94682e-10
0.000184427
5.78279e-10
0.000184427
4.64539e-10
0.000184427
3.62799e-10
0.000184427
2.71615e-10
0.000184427
2.11623e-10
0.000184427
1.65053e-10
0.000184427
2.05665e-10
0.000184427
2.19174e-10
5.51608e-10
0.000189928
1.07046e-09
0.000189928
1.26766e-09
0.000189928
1.35749e-09
0.000189928
1.35595e-09
0.000189928
1.29672e-09
0.000189928
1.19844e-09
0.000189928
1.07404e-09
0.000189928
9.3359e-10
0.000189928
7.83814e-10
0.000189928
6.2965e-10
0.000189928
4.74773e-10
0.000189929
3.21959e-10
0.000189929
1.73312e-10
0.000189929
3.04804e-11
0.000189929
-1.05187e-10
0.000189929
-2.32601e-10
0.000189929
-3.50975e-10
0.000189929
-4.59874e-10
0.000189929
-5.59196e-10
0.000189929
-6.491e-10
0.000189929
-7.29933e-10
0.000189929
-8.02155e-10
0.000189929
-8.66293e-10
0.000189929
-9.22918e-10
0.000189929
-9.72627e-10
0.000189929
-1.01604e-09
0.000189929
-1.0538e-09
0.000189929
-1.08656e-09
0.000189929
-1.115e-09
0.000189929
-1.13978e-09
0.000189929
-1.16158e-09
0.000189929
-1.18102e-09
0.000189929
-1.1987e-09
0.000189929
-1.21514e-09
0.000189929
-1.23077e-09
0.000189929
-1.2459e-09
0.000189929
-1.26048e-09
0.000189929
-1.27446e-09
0.000189929
-1.2862e-09
0.000189929
-1.29562e-09
0.000189929
-1.29429e-09
0.000189929
-1.28971e-09
0.000189929
-1.22948e-09
0.000189929
-1.21417e-09
-8.81565e-10
0.000189928
6.31254e-10
0.000189928
8.94124e-10
0.000189928
1.00049e-09
0.000189928
1.0017e-09
0.000189928
9.38973e-10
0.000189928
8.40963e-10
0.000189928
7.26661e-10
0.000189928
6.0919e-10
0.000189928
4.94228e-10
0.000189928
3.90644e-10
0.000189928
2.97318e-10
0.000189928
2.33284e-10
0.000189928
1.82232e-10
0.000189928
2.14278e-10
0.000189928
2.09713e-10
5.4287e-10
0.000195556
1.07091e-09
0.000195556
1.26169e-09
0.000195556
1.33634e-09
0.000195556
1.32146e-09
0.000195556
1.25297e-09
0.000195556
1.14912e-09
0.000195556
1.02188e-09
0.000195556
8.80481e-10
0.000195556
7.311e-10
0.000195556
5.78301e-10
0.000195556
4.25478e-10
0.000195556
2.75181e-10
0.000195556
1.29342e-10
0.000195556
-1.05132e-11
0.000195557
-1.43112e-10
0.000195557
-2.67412e-10
0.000195557
-3.82662e-10
0.000195557
-4.88449e-10
0.000195557
-5.84688e-10
0.000195557
-6.71557e-10
0.000195557
-7.49412e-10
0.000195557
-8.18724e-10
0.000195557
-8.80029e-10
0.000195557
-9.33902e-10
0.000195557
-9.80946e-10
0.000195557
-1.02178e-09
0.000195557
-1.05706e-09
0.000195557
-1.08743e-09
0.000195557
-1.11358e-09
0.000195557
-1.13618e-09
0.000195557
-1.15589e-09
0.000195557
-1.17338e-09
0.000195557
-1.18923e-09
0.000195557
-1.204e-09
0.000195557
-1.21813e-09
0.000195557
-1.23198e-09
0.000195557
-1.24556e-09
0.000195557
-1.25884e-09
0.000195557
-1.27042e-09
0.000195557
-1.28011e-09
0.000195557
-1.2803e-09
0.000195557
-1.27779e-09
0.000195557
-1.22196e-09
0.000195557
-1.21963e-09
-8.76971e-10
0.000195556
6.97965e-10
0.000195556
9.49412e-10
0.000195556
1.04309e-09
0.000195556
1.03562e-09
0.000195556
9.68399e-10
0.000195556
8.68447e-10
0.000195556
7.53275e-10
0.000195556
6.35125e-10
0.000195556
5.19388e-10
0.000195556
4.14382e-10
0.000195556
3.19273e-10
0.000195556
2.51434e-10
0.000195556
1.95965e-10
0.000195556
2.19203e-10
0.000195556
1.95973e-10
5.30069e-10
0.000201313
1.06818e-09
0.000201313
1.25307e-09
0.000201313
1.31256e-09
0.000201313
1.28427e-09
0.000201313
1.20647e-09
0.000201313
1.09705e-09
0.000201313
9.67035e-10
0.000201313
8.24806e-10
0.000201313
6.75972e-10
0.000201313
5.24711e-10
0.000201313
3.7414e-10
0.000201314
2.26586e-10
0.000201314
8.38004e-11
0.000201314
-5.28188e-11
0.000201314
-1.82088e-10
0.000201314
-3.0302e-10
0.000201314
-4.149e-10
0.000201314
-5.17338e-10
0.000201314
-6.10269e-10
0.000201314
-6.93882e-10
0.000201314
-7.68548e-10
0.000201314
-8.34745e-10
0.000201314
-8.9302e-10
0.000201314
-9.43954e-10
0.000201314
-9.88155e-10
0.000201314
-1.02625e-09
0.000201314
-1.05888e-09
0.000201314
-1.08672e-09
0.000201314
-1.11044e-09
0.000201314
-1.13073e-09
0.000201314
-1.14825e-09
0.000201314
-1.16367e-09
0.000201314
-1.17761e-09
0.000201314
-1.19063e-09
0.000201314
-1.20321e-09
0.000201314
-1.21573e-09
0.000201314
-1.22828e-09
0.000201314
-1.24087e-09
0.000201314
-1.25232e-09
0.000201314
-1.26236e-09
0.000201314
-1.26427e-09
0.000201314
-1.26414e-09
0.000201314
-1.21337e-09
0.000201314
-1.22515e-09
-8.73134e-10
0.000201313
7.61077e-10
0.000201313
1.002e-09
0.000201313
1.08233e-09
0.000201313
1.0652e-09
0.000201313
9.92751e-10
0.000201313
8.90521e-10
0.000201313
7.74496e-10
0.000201313
6.55904e-10
0.000201313
5.39728e-10
0.000201313
4.33648e-10
0.000201313
3.37061e-10
0.000201313
2.65628e-10
0.000201313
2.05793e-10
0.000201313
2.19996e-10
0.000201313
1.77594e-10
5.12969e-10
0.000207202
1.0621e-09
0.000207202
1.24157e-09
0.000207202
1.28594e-09
0.000207202
1.24423e-09
0.000207202
1.15711e-09
0.000207203
1.04218e-09
0.000207203
9.09484e-10
0.000207203
7.66573e-10
0.000207203
6.18457e-10
0.000207203
4.68922e-10
0.000207203
3.20807e-10
0.000207203
1.76218e-10
0.000207203
3.67293e-11
0.000207203
-9.63994e-11
0.000207203
-2.22081e-10
0.000207203
-3.39392e-10
0.000207203
-4.47656e-10
0.000207203
-5.46511e-10
0.000207203
-6.35907e-10
0.000207203
-7.16049e-10
0.000207203
-7.87317e-10
0.000207203
-8.50201e-10
0.000207203
-9.05254e-10
0.000207203
-9.53066e-10
0.000207203
-9.9425e-10
0.000207203
-1.02944e-09
0.000207203
-1.05928e-09
0.000207203
-1.08444e-09
0.000207203
-1.1056e-09
0.000207203
-1.12346e-09
0.000207203
-1.13868e-09
0.000207203
-1.15194e-09
0.000207203
-1.16388e-09
0.000207203
-1.17507e-09
0.000207203
-1.18604e-09
0.000207203
-1.19719e-09
0.000207203
-1.20869e-09
0.000207203
-1.22059e-09
0.000207203
-1.23196e-09
0.000207203
-1.24244e-09
0.000207203
-1.24627e-09
0.000207203
-1.24883e-09
0.000207203
-1.20381e-09
0.000207203
-1.23073e-09
-8.69896e-10
0.000207203
8.20699e-10
0.000207202
1.05197e-09
0.000207202
1.11844e-09
0.000207202
1.09082e-09
0.000207202
1.01241e-09
0.000207202
9.07467e-10
0.000207202
7.90462e-10
0.000207202
6.71521e-10
0.000207202
5.55122e-10
0.000207202
4.48225e-10
0.000207202
3.50393e-10
0.000207202
2.75533e-10
0.000207202
2.11355e-10
0.000207202
2.16297e-10
0.000207202
1.54297e-10
4.91398e-10
0.000213227
1.05255e-09
0.000213227
1.22701e-09
0.000213227
1.25633e-09
0.000213227
1.20123e-09
0.000213227
1.10482e-09
0.000213227
9.84454e-10
0.000213227
8.49224e-10
0.000213227
7.05803e-10
0.000213227
5.58595e-10
0.000213227
4.10985e-10
0.000213227
2.65534e-10
0.000213227
1.24134e-10
0.000213227
-1.18198e-11
0.000213227
-1.4121e-10
0.000213227
-2.63051e-10
0.000213227
-3.76491e-10
0.000213228
-4.80898e-10
0.000213228
-5.75937e-10
0.000213228
-6.61576e-10
0.000213228
-7.38035e-10
0.000213228
-8.05702e-10
0.000213228
-8.65079e-10
0.000213228
-9.16725e-10
0.000213228
-9.61239e-10
0.000213228
-9.9924e-10
0.000213228
-1.03136e-09
0.000213228
-1.05827e-09
0.000213228
-1.08061e-09
0.000213228
-1.09909e-09
0.000213228
-1.1144e-09
0.000213228
-1.12722e-09
0.000213228
-1.13822e-09
0.000213228
-1.14808e-09
0.000213228
-1.15738e-09
0.000213228
-1.16668e-09
0.000213228
-1.17642e-09
0.000213228
-1.18685e-09
0.000213228
-1.19807e-09
0.000213227
-1.20941e-09
0.000213227
-1.22044e-09
0.000213227
-1.22639e-09
0.000213227
-1.23196e-09
0.000213227
-1.19333e-09
0.000213227
-1.23633e-09
-8.67085e-10
0.000213227
8.77015e-10
0.000213227
1.0994e-09
0.000213227
1.15164e-09
0.000213227
1.11281e-09
0.000213227
1.02777e-09
0.000213227
9.19636e-10
0.000213227
8.01422e-10
0.000213227
6.82107e-10
0.000213227
5.65586e-10
0.000213227
4.58034e-10
0.000213227
3.5911e-10
0.000213227
2.80936e-10
0.000213227
2.12395e-10
0.000213227
2.07844e-10
0.000213227
1.25896e-10
4.65265e-10
0.000219389
1.03948e-09
0.000219389
1.2093e-09
0.000219389
1.22364e-09
0.000219389
1.1552e-09
0.00021939
1.04959e-09
0.00021939
9.23889e-10
0.00021939
7.86276e-10
0.00021939
6.42535e-10
0.00021939
4.96441e-10
0.00021939
3.50966e-10
0.00021939
2.08395e-10
0.00021939
7.04045e-11
0.00021939
-6.17832e-11
0.00021939
-1.87193e-10
0.00021939
-3.0495e-10
0.00021939
-4.14277e-10
0.00021939
-5.14591e-10
0.00021939
-6.05587e-10
0.00021939
-6.87254e-10
0.00021939
-7.59822e-10
0.00021939
-8.23694e-10
0.00021939
-8.79376e-10
0.00021939
-9.27438e-10
0.00021939
-9.68486e-10
0.00021939
-1.00314e-09
0.00021939
-1.03205e-09
0.00021939
-1.05588e-09
0.00021939
-1.07528e-09
0.00021939
-1.09096e-09
0.00021939
-1.1036e-09
0.00021939
-1.11392e-09
0.00021939
-1.12259e-09
0.00021939
-1.13028e-09
0.00021939
-1.13762e-09
0.00021939
-1.1452e-09
0.00021939
-1.1535e-09
0.00021939
-1.16285e-09
0.00021939
-1.1734e-09
0.00021939
-1.18476e-09
0.00021939
-1.19646e-09
0.00021939
-1.20472e-09
0.00021939
-1.21363e-09
0.00021939
-1.18203e-09
0.00021939
-1.24191e-09
-8.64517e-10
0.000219389
9.30268e-10
0.000219389
1.14441e-09
0.000219389
1.18211e-09
0.000219389
1.13149e-09
0.000219389
1.03921e-09
0.000219389
9.27414e-10
0.000219389
8.07704e-10
0.000219389
6.87897e-10
0.000219389
5.71257e-10
0.000219389
4.63118e-10
0.000219389
3.63173e-10
0.000219389
2.81736e-10
0.000219389
2.08766e-10
0.000219389
1.94477e-10
0.000219389
9.23088e-11
4.34568e-10
0.000225693
1.02292e-09
0.000225693
1.1884e-09
0.000225693
1.18786e-09
0.000225693
1.10616e-09
0.000225693
9.91422e-10
0.000225693
8.60525e-10
0.000225693
7.20699e-10
0.000225694
5.76837e-10
0.000225694
4.32072e-10
0.000225694
2.8895e-10
0.000225694
1.49475e-10
0.000225694
1.51138e-11
0.000225694
-1.13083e-10
0.000225694
-2.34282e-10
0.000225694
-3.4772e-10
0.000225694
-4.52701e-10
0.000225694
-5.48695e-10
0.000225694
-6.3543e-10
0.000225694
-7.12916e-10
0.000225694
-7.81397e-10
0.000225694
-8.41285e-10
0.000225694
-8.93095e-10
0.000225694
-9.37405e-10
0.000225694
-9.74826e-10
0.000225694
-1.00599e-09
0.000225694
-1.03155e-09
0.000225694
-1.05216e-09
0.000225694
-1.0685e-09
0.000225694
-1.08126e-09
0.000225694
-1.09114e-09
0.000225694
-1.09886e-09
0.000225694
-1.10511e-09
0.000225694
-1.11057e-09
0.000225694
-1.1159e-09
0.000225694
-1.12172e-09
0.000225694
-1.12854e-09
0.000225694
-1.13681e-09
0.000225694
-1.14671e-09
0.000225694
-1.15814e-09
0.000225694
-1.17061e-09
0.000225694
-1.18138e-09
0.000225694
-1.19394e-09
0.000225694
-1.16998e-09
0.000225694
-1.24743e-09
-8.62001e-10
0.000225693
9.80735e-10
0.000225693
1.18717e-09
0.000225693
1.21007e-09
0.000225693
1.14717e-09
0.000225693
1.04711e-09
0.000225693
9.31193e-10
0.000225693
8.0967e-10
0.000225693
6.89193e-10
0.000225693
5.72359e-10
0.000225693
4.63623e-10
0.000225693
3.62648e-10
0.000225693
2.7794e-10
0.000225693
2.00427e-10
0.000225693
1.76143e-10
0.000225693
5.35618e-11
3.99396e-10
0.000232141
1.00298e-09
0.000232141
1.16436e-09
0.000232141
1.14905e-09
0.000232141
1.05419e-09
0.000232141
9.30427e-10
0.000232141
7.94463e-10
0.000232142
6.52597e-10
0.000232142
5.08817e-10
0.000232142
3.65597e-10
0.000232142
2.25047e-10
0.000232142
8.88835e-11
0.000232142
-4.16343e-11
0.000232142
-1.65623e-10
0.000232142
-2.82391e-10
0.000232142
-3.91289e-10
0.000232142
-4.91704e-10
0.000232142
-5.83163e-10
0.000232142
-6.65432e-10
0.000232142
-7.3854e-10
0.000232142
-8.02747e-10
0.000232142
-8.58474e-10
0.000232142
-9.06245e-10
0.000232142
-9.46645e-10
0.000232142
-9.80292e-10
0.000232142
-1.00782e-09
0.000232142
-1.02989e-09
0.000232142
-1.04717e-09
0.000232142
-1.06033e-09
0.000232142
-1.07007e-09
0.000232142
-1.07711e-09
0.000232142
-1.08214e-09
0.000232142
-1.08589e-09
0.000232142
-1.08907e-09
0.000232142
-1.09233e-09
0.000232142
-1.09634e-09
0.000232142
-1.10167e-09
0.000232142
-1.10884e-09
0.000232142
-1.11812e-09
0.000232142
-1.12968e-09
0.000232142
-1.14303e-09
0.000232142
-1.15649e-09
0.000232142
-1.17303e-09
0.000232142
-1.15727e-09
0.000232142
-1.25282e-09
-8.59341e-10
0.000232141
1.02871e-09
0.000232141
1.22784e-09
0.000232141
1.23572e-09
0.000232141
1.16011e-09
0.000232141
1.05182e-09
0.000232141
9.31359e-10
0.000232141
8.07701e-10
0.000232141
6.86339e-10
0.000232141
5.69177e-10
0.000232141
4.59769e-10
0.000232141
3.57689e-10
0.000232141
2.6965e-10
0.000232141
1.87435e-10
0.000232141
1.52886e-10
0.000232141
9.7863e-12
3.59935e-10
0.000238737
9.79833e-10
0.000238737
1.1373e-09
0.000238737
1.10735e-09
0.000238737
9.99424e-10
0.000238737
8.66761e-10
0.000238737
7.25865e-10
0.000238737
5.82127e-10
0.000238737
4.38625e-10
0.000238737
2.97162e-10
0.000238737
1.59398e-10
0.000238737
2.67551e-11
0.000238737
-9.97142e-11
0.000238737
-2.19291e-10
0.000238737
-3.31423e-10
0.000238737
-4.35573e-10
0.000238738
-5.31217e-10
0.000238738
-6.17943e-10
0.000238738
-6.95552e-10
0.000238738
-7.64099e-10
0.000238738
-8.23858e-10
0.000238738
-8.75261e-10
0.000238738
-9.1884e-10
0.000238738
-9.55186e-10
0.000238738
-9.84923e-10
0.000238738
-1.0087e-09
0.000238738
-1.02716e-09
0.000238738
-1.04099e-09
0.000238738
-1.05087e-09
0.000238738
-1.0575e-09
0.000238738
-1.0616e-09
0.000238738
-1.06388e-09
0.000238738
-1.06507e-09
0.000238738
-1.06589e-09
0.000238738
-1.06704e-09
0.000238738
-1.06922e-09
0.000238737
-1.07303e-09
0.000238737
-1.07912e-09
0.000238737
-1.08779e-09
0.000238737
-1.09954e-09
0.000238737
-1.11389e-09
0.000238737
-1.1302e-09
0.000238737
-1.15101e-09
0.000238737
-1.14399e-09
0.000238737
-1.25803e-09
-8.56337e-10
0.000238737
1.07447e-09
0.000238736
1.2666e-09
0.000238736
1.25926e-09
0.000238736
1.1706e-09
0.000238736
1.05367e-09
0.000238736
9.28284e-10
0.000238736
8.02179e-10
0.000238736
6.797e-10
0.000238736
5.62038e-10
0.000238736
4.51834e-10
0.000238737
3.48519e-10
0.000238737
2.57044e-10
0.000238737
1.69932e-10
0.000238737
1.24844e-10
0.000238737
-3.87841e-11
3.16463e-10
0.000245483
9.5373e-10
0.000245483
1.10742e-09
0.000245483
1.06296e-09
0.000245483
9.421e-10
0.000245483
8.00651e-10
0.000245483
6.54955e-10
0.000245483
5.09502e-10
0.000245483
3.6646e-10
0.000245483
2.26954e-10
0.000245483
9.21782e-11
0.000245483
-3.6747e-11
0.000245483
-1.58976e-10
0.000245483
-2.73952e-10
0.000245483
-3.81258e-10
0.000245483
-4.80472e-10
0.000245483
-5.7116e-10
0.000245484
-6.5297e-10
0.000245484
-7.25745e-10
0.000245484
-7.89565e-10
0.000245484
-8.44719e-10
0.000245484
-8.91651e-10
0.000245484
-9.30899e-10
0.000245484
-9.63061e-10
0.000245484
-9.88766e-10
0.000245484
-1.00867e-09
0.000245484
-1.02342e-09
0.000245484
-1.03371e-09
0.000245484
-1.04022e-09
0.000245484
-1.04366e-09
0.000245484
-1.04474e-09
0.000245484
-1.0442e-09
0.000245484
-1.04278e-09
0.000245484
-1.0412e-09
0.000245483
-1.0402e-09
0.000245483
-1.04052e-09
0.000245483
-1.04281e-09
0.000245483
-1.0478e-09
0.000245483
-1.0559e-09
0.000245483
-1.06789e-09
0.000245483
-1.08335e-09
0.000245483
-1.10268e-09
0.000245483
-1.12805e-09
0.000245483
-1.13023e-09
0.000245483
-1.26296e-09
-8.52788e-10
0.000245482
1.11827e-09
0.000245482
1.30361e-09
0.000245482
1.28089e-09
0.000245482
1.1789e-09
0.000245482
1.05297e-09
0.000245482
9.22326e-10
0.000245482
7.9348e-10
0.000245482
6.69645e-10
0.000245482
5.51288e-10
0.000245482
4.40132e-10
0.000245482
3.35414e-10
0.000245482
2.40365e-10
0.000245482
1.48134e-10
0.000245482
9.22382e-11
0.000245483
-9.18214e-11
2.69342e-10
0.000252382
9.24983e-10
0.000252382
1.07496e-09
0.000252382
1.01615e-09
0.000252382