/*--------------------------------*- C++ -*----------------------------------*\
  =========                 |
  \\      /  F ield         | OpenFOAM: The Open Source CFD Toolbox
   \\    /   O peration     | Website:  https://openfoam.org
    \\  /    A nd           | Version:  7
     \\/     M anipulation  |
\*---------------------------------------------------------------------------*/
FoamFile
{
    version     2.0;
    format      ascii;
    class       surfaceScalarField;
    location    "15500";
    object      phi;
}
// * * * * * * * * * * * * * * * * * * * * * * * * * * * * * * * * * * * * * //

dimensions      [0 3 -1 0 0 0 0];

internalField   nonuniform List<scalar> 
47680
(
2.01554e-06
-4.34212e-14
2.01555e-06
-6.49452e-12
2.01555e-06
-7.58654e-12
2.01556e-06
-4.5701e-12
2.01556e-06
-4.95667e-13
2.01556e-06
3.01382e-12
2.01555e-06
5.63022e-12
2.01554e-06
7.33401e-12
2.01553e-06
8.27e-12
2.01553e-06
8.5084e-12
2.01552e-06
8.11846e-12
2.01551e-06
7.44989e-12
2.0155e-06
6.80624e-12
2.0155e-06
6.01814e-12
2.01549e-06
5.25427e-12
2.01549e-06
4.52974e-12
2.01548e-06
3.60368e-12
2.01548e-06
2.85589e-12
2.01548e-06
2.09641e-12
2.01548e-06
1.23808e-12
2.01548e-06
5.262e-13
2.01548e-06
-1.03339e-13
2.01548e-06
-7.24718e-13
2.01548e-06
-1.40107e-12
2.01548e-06
-1.96004e-12
2.01548e-06
-2.29364e-12
2.01549e-06
-2.71708e-12
2.01549e-06
-3.18814e-12
2.01549e-06
-3.43058e-12
2.0155e-06
-3.64817e-12
2.0155e-06
-4.01883e-12
2.01551e-06
-4.28196e-12
2.01551e-06
-4.38499e-12
2.01551e-06
-4.49647e-12
2.01552e-06
-4.69179e-12
2.01552e-06
-4.80742e-12
2.01553e-06
-4.78753e-12
2.01553e-06
-4.86286e-12
2.01554e-06
-4.8553e-12
2.01554e-06
-4.89849e-12
2.01555e-06
-4.48971e-12
2.01555e-06
-4.00828e-12
2.01556e-06
-3.16215e-12
2.01556e-06
-2.2858e-12
2.01556e-06
-1.226e-12
2.01556e-06
4.65791e-13
2.01556e-06
1.0061e-12
2.01556e-06
1.07242e-12
2.01556e-06
7.34115e-13
2.01556e-06
1.08827e-13
2.01556e-06
-2.94869e-13
2.01556e-06
-7.11266e-13
2.01556e-06
-1.048e-12
2.01556e-06
-1.31381e-12
2.01556e-06
-1.50273e-12
2.01556e-06
-1.65812e-12
2.01556e-06
-1.69159e-12
2.01557e-06
-1.59053e-12
2.01557e-06
-1.36446e-12
2.01557e-06
-1.11835e-12
2.01557e-06
-8.17586e-13
2.01557e-06
-4.08654e-13
2.01557e-06
1.48355e-14
2.01557e-06
4.31118e-13
2.01557e-06
7.9942e-13
2.01557e-06
1.09586e-12
2.01557e-06
1.43687e-12
2.01556e-06
1.75674e-12
2.01556e-06
1.90906e-12
2.01556e-06
2.06387e-12
2.01556e-06
2.12036e-12
2.01556e-06
2.19909e-12
2.01555e-06
2.27412e-12
2.01555e-06
2.22294e-12
2.01555e-06
2.2801e-12
2.01555e-06
2.29805e-12
2.01554e-06
2.14457e-12
2.01554e-06
1.93761e-12
2.01554e-06
1.81035e-12
2.01554e-06
1.67739e-12
2.01554e-06
1.50164e-12
2.01554e-06
1.39772e-12
2.01553e-06
1.32698e-12
2.01553e-06
1.15146e-12
2.01553e-06
9.28798e-13
2.01553e-06
7.11353e-13
2.01553e-06
2.6483e-13
2.01553e-06
-8.40273e-14
2.01553e-06
-1.6512e-13
2.01553e-06
-1.60514e-13
2.01553e-06
-2.57976e-14
2.01553e-06
-3.38196e-15
2.01553e-06
-4.13471e-14
2.01553e-06
-1.3697e-13
2.01553e-06
-3.04376e-13
2.01553e-06
-4.08737e-13
2.01553e-06
-5.70939e-13
2.01553e-06
-6.96e-13
2.01553e-06
-8.00973e-13
2.01554e-06
-7.04742e-13
2.01554e-06
-6.93778e-13
2.01554e-06
-2.29543e-13
2.01554e-06
1.33976e-13
2.01554e-06
9.08837e-13
2.01553e-06
2.07037e-12
2.01553e-06
2.16311e-12
2.01553e-06
1.94108e-12
2.01553e-06
1.27982e-12
2.01553e-06
4.35215e-13
2.01553e-06
-3.52972e-13
2.01553e-06
-1.04314e-12
2.01553e-06
-1.53548e-12
2.01553e-06
-1.96502e-12
2.01553e-06
-2.24521e-12
2.01554e-06
-2.4433e-12
2.01554e-06
-2.3691e-12
2.01554e-06
-1.76003e-12
2.01554e-06
-2.02309e-12
2.01554e-06
-3.29688e-13
3.2006e-12
6.22759e-06
-5.03999e-12
6.22761e-06
-2.58208e-11
6.22763e-06
-2.80455e-11
6.22764e-06
-1.57041e-11
6.22764e-06
1.92952e-13
6.22763e-06
1.37783e-11
6.22761e-06
2.37753e-11
6.22758e-06
3.02434e-11
6.22756e-06
3.37212e-11
6.22753e-06
3.4393e-11
6.22751e-06
3.2741e-11
6.22749e-06
3.00797e-11
6.22747e-06
2.73617e-11
6.22745e-06
2.42068e-11
6.22743e-06
2.11018e-11
6.22742e-06
1.80641e-11
6.22741e-06
1.44319e-11
6.2274e-06
1.13331e-11
6.22739e-06
8.25649e-12
6.22739e-06
4.89882e-12
6.22739e-06
2.00318e-12
6.22739e-06
-5.76382e-13
6.22739e-06
-3.11013e-12
6.22739e-06
-5.73785e-12
6.2274e-06
-7.91621e-12
6.22741e-06
-9.35137e-12
6.22742e-06
-1.10213e-11
6.22743e-06
-1.28332e-11
6.22744e-06
-1.39061e-11
6.22745e-06
-1.48242e-11
6.22746e-06
-1.6172e-11
6.22747e-06
-1.71758e-11
6.22749e-06
-1.76383e-11
6.2275e-06
-1.8102e-11
6.22751e-06
-1.88202e-11
6.22753e-06
-1.92733e-11
6.22754e-06
-1.92692e-11
6.22756e-06
-1.95076e-11
6.22757e-06
-1.9567e-11
6.22759e-06
-1.96545e-11
6.2276e-06
-1.82175e-11
6.22761e-06
-1.63353e-11
6.22762e-06
-1.3352e-11
6.22763e-06
-1.01343e-11
6.22764e-06
-6.07587e-12
6.22764e-06
-3.07524e-14
6.22763e-06
2.51707e-12
6.22763e-06
3.06538e-12
6.22763e-06
2.0562e-12
6.22763e-06
2.22344e-15
6.22763e-06
-1.49764e-12
6.22763e-06
-2.99445e-12
6.22764e-06
-4.25109e-12
6.22764e-06
-5.21819e-12
6.22765e-06
-5.89793e-12
6.22765e-06
-6.40562e-12
6.22766e-06
-6.455e-12
6.22766e-06
-5.98681e-12
6.22766e-06
-5.07205e-12
6.22767e-06
-4.03743e-12
6.22767e-06
-2.77944e-12
6.22767e-06
-1.14932e-12
6.22767e-06
5.42035e-13
6.22767e-06
2.18585e-12
6.22766e-06
3.65165e-12
6.22766e-06
4.87016e-12
6.22766e-06
6.19757e-12
6.22765e-06
7.41202e-12
6.22764e-06
8.05843e-12
6.22764e-06
8.62463e-12
6.22763e-06
8.87307e-12
6.22762e-06
9.1697e-12
6.22762e-06
9.43108e-12
6.22761e-06
9.28461e-12
6.2276e-06
9.4203e-12
6.22759e-06
9.42178e-12
6.22759e-06
8.85149e-12
6.22758e-06
8.06009e-12
6.22758e-06
7.51223e-12
6.22757e-06
6.99496e-12
6.22757e-06
6.3465e-12
6.22756e-06
5.90391e-12
6.22756e-06
5.5757e-12
6.22755e-06
4.89202e-12
6.22755e-06
4.03397e-12
6.22755e-06
3.06023e-12
6.22755e-06
1.38569e-12
6.22755e-06
1.31115e-13
6.22755e-06
-2.37099e-13
6.22755e-06
-2.41388e-13
6.22755e-06
1.79011e-13
6.22755e-06
2.62521e-13
6.22755e-06
1.05714e-13
6.22755e-06
-2.62564e-13
6.22755e-06
-8.73972e-13
6.22755e-06
-1.34798e-12
6.22755e-06
-1.98727e-12
6.22755e-06
-2.5553e-12
6.22755e-06
-3.00405e-12
6.22756e-06
-2.86598e-12
6.22756e-06
-2.8672e-12
6.22756e-06
-1.44376e-12
6.22756e-06
-1.57123e-13
6.22756e-06
2.66645e-12
6.22755e-06
6.75365e-12
6.22755e-06
7.41774e-12
6.22754e-06
6.65107e-12
6.22754e-06
4.35142e-12
6.22754e-06
1.32844e-12
6.22754e-06
-1.56777e-12
6.22754e-06
-4.1225e-12
6.22755e-06
-6.01963e-12
6.22755e-06
-7.62702e-12
6.22756e-06
-8.73905e-12
6.22757e-06
-9.55211e-12
6.22757e-06
-9.32312e-12
6.22758e-06
-7.26377e-12
6.22759e-06
-8.03036e-12
6.22759e-06
-1.26042e-12
8.4768e-12
1.07243e-05
-2.05943e-11
1.07243e-05
-5.88178e-11
1.07243e-05
-5.89304e-11
1.07243e-05
-3.02007e-11
1.07243e-05
4.94898e-12
1.07243e-05
3.46381e-11
1.07243e-05
5.62471e-11
1.07242e-05
7.01181e-11
1.07242e-05
7.73937e-11
1.07241e-05
7.83346e-11
1.07241e-05
7.43844e-11
1.07241e-05
6.83639e-11
1.0724e-05
6.2002e-11
1.0724e-05
5.48417e-11
1.0724e-05
4.77271e-11
1.0724e-05
4.06491e-11
1.07239e-05
3.25118e-11
1.07239e-05
2.53634e-11
1.07239e-05
1.83455e-11
1.07239e-05
1.08686e-11
1.07239e-05
4.27141e-12
1.07239e-05
-1.66686e-12
1.07239e-05
-7.46996e-12
1.07239e-05
-1.32705e-11
1.07239e-05
-1.80835e-11
1.07239e-05
-2.14655e-11
1.07239e-05
-2.52128e-11
1.0724e-05
-2.91964e-11
1.0724e-05
-3.1769e-11
1.0724e-05
-3.39177e-11
1.0724e-05
-3.67505e-11
1.0724e-05
-3.89123e-11
1.07241e-05
-4.00268e-11
1.07241e-05
-4.11101e-11
1.07241e-05
-4.26323e-11
1.07241e-05
-4.36386e-11
1.07242e-05
-4.37224e-11
1.07242e-05
-4.42045e-11
1.07242e-05
-4.44429e-11
1.07242e-05
-4.45513e-11
1.07243e-05
-4.15554e-11
1.07243e-05
-3.74534e-11
1.07243e-05
-3.13995e-11
1.07243e-05
-2.46432e-11
1.07243e-05
-1.59005e-11
1.07243e-05
-3.33001e-12
1.07243e-05
2.87387e-12
1.07243e-05
4.63588e-12
1.07243e-05
2.98053e-12
1.07243e-05
-8.95629e-13
1.07243e-05
-3.99334e-12
1.07243e-05
-7.08677e-12
1.07243e-05
-9.73497e-12
1.07243e-05
-1.17401e-11
1.07244e-05
-1.31167e-11
1.07244e-05
-1.40564e-11
1.07244e-05
-1.39916e-11
1.07244e-05
-1.28071e-11
1.07244e-05
-1.07026e-11
1.07244e-05
-8.27549e-12
1.07244e-05
-5.33297e-12
1.07244e-05
-1.6439e-12
1.07244e-05
2.16748e-12
1.07244e-05
5.83757e-12
1.07244e-05
9.13412e-12
1.07244e-05
1.19301e-11
1.07244e-05
1.48661e-11
1.07243e-05
1.75002e-11
1.07243e-05
1.89849e-11
1.07243e-05
2.01885e-11
1.07243e-05
2.07714e-11
1.07243e-05
2.14107e-11
1.07243e-05
2.19466e-11
1.07243e-05
2.16816e-11
1.07243e-05
2.18429e-11
1.07243e-05
2.17173e-11
1.07242e-05
2.04869e-11
1.07242e-05
1.8757e-11
1.07242e-05
1.74646e-11
1.07242e-05
1.6327e-11
1.07242e-05
1.49472e-11
1.07242e-05
1.39097e-11
1.07242e-05
1.30921e-11
1.07242e-05
1.15702e-11
1.07242e-05
9.66687e-12
1.07242e-05
7.30658e-12
1.07242e-05
3.69988e-12
1.07242e-05
1.13102e-12
1.07242e-05
2.66664e-13
1.07242e-05
1.95716e-13
1.07242e-05
9.59551e-13
1.07242e-05
1.10651e-12
1.07242e-05
7.39308e-13
1.07242e-05
-6.34062e-14
1.07242e-05
-1.36362e-12
1.07242e-05
-2.50788e-12
1.07242e-05
-3.9654e-12
1.07242e-05
-5.34577e-12
1.07242e-05
-6.45581e-12
1.07242e-05
-6.51977e-12
1.07242e-05
-6.7033e-12
1.07242e-05
-4.17287e-12
1.07242e-05
-1.62549e-12
1.07242e-05
4.23982e-12
1.07242e-05
1.25998e-11
1.07242e-05
1.43928e-11
1.07242e-05
1.29339e-11
1.07242e-05
8.32583e-12
1.07242e-05
2.14521e-12
1.07242e-05
-3.89521e-12
1.07242e-05
-9.28564e-12
1.07242e-05
-1.33964e-11
1.07242e-05
-1.68326e-11
1.07242e-05
-1.931e-11
1.07242e-05
-2.11723e-11
1.07242e-05
-2.0796e-11
1.07242e-05
-1.67185e-11
1.07242e-05
-1.79892e-11
1.07242e-05
-2.91595e-12
1.15398e-11
1.55012e-05
-5.30529e-11
1.55012e-05
-1.06213e-10
1.55013e-05
-9.66983e-11
1.55013e-05
-4.36399e-11
1.55013e-05
1.74344e-11
1.55013e-05
6.825e-11
1.55012e-05
1.04828e-10
1.55011e-05
1.28093e-10
1.55011e-05
1.39908e-10
1.5501e-05
1.40486e-10
1.5501e-05
1.33034e-10
1.55009e-05
1.22288e-10
1.55009e-05
1.10686e-10
1.55008e-05
9.78439e-11
1.55008e-05
8.49344e-11
1.55007e-05
7.19981e-11
1.55007e-05
5.75504e-11
1.55007e-05
4.46302e-11
1.55007e-05
3.20275e-11
1.55007e-05
1.88539e-11
1.55007e-05
7.04867e-12
1.55007e-05
-3.71073e-12
1.55007e-05
-1.41719e-11
1.55007e-05
-2.42716e-11
1.55007e-05
-3.26528e-11
1.55007e-05
-3.88627e-11
1.55008e-05
-4.55231e-11
1.55008e-05
-5.24703e-11
1.55008e-05
-5.72475e-11
1.55008e-05
-6.11777e-11
1.55009e-05
-6.59112e-11
1.55009e-05
-6.95621e-11
1.55009e-05
-7.16379e-11
1.5501e-05
-7.36907e-11
1.5501e-05
-7.62608e-11
1.5501e-05
-7.79687e-11
1.55011e-05
-7.82345e-11
1.55011e-05
-7.90774e-11
1.55011e-05
-7.96099e-11
1.55012e-05
-7.96993e-11
1.55012e-05
-7.46304e-11
1.55012e-05
-6.76617e-11
1.55013e-05
-5.7978e-11
1.55013e-05
-4.67507e-11
1.55013e-05
-3.19487e-11
1.55013e-05
-1.10826e-11
1.55013e-05
3.9497e-13
1.55013e-05
4.34923e-12
1.55013e-05
2.42445e-12
1.55013e-05
-3.2659e-12
1.55013e-05
-8.2068e-12
1.55013e-05
-1.325e-11
1.55013e-05
-1.76191e-11
1.55013e-05
-2.08683e-11
1.55013e-05
-2.30265e-11
1.55013e-05
-2.43437e-11
1.55014e-05
-2.38936e-11
1.55014e-05
-2.15474e-11
1.55014e-05
-1.77111e-11
1.55014e-05
-1.32336e-11
1.55014e-05
-7.81242e-12
1.55014e-05
-1.20493e-12
1.55014e-05
5.55755e-12
1.55014e-05
1.20137e-11
1.55014e-05
1.78556e-11
1.55014e-05
2.28871e-11
1.55013e-05
2.80149e-11
1.55013e-05
3.25273e-11
1.55013e-05
3.51535e-11
1.55013e-05
3.71907e-11
1.55013e-05
3.82424e-11
1.55013e-05
3.93378e-11
1.55012e-05
4.02169e-11
1.55012e-05
3.98002e-11
1.55012e-05
3.98719e-11
1.55012e-05
3.94256e-11
1.55012e-05
3.72962e-11
1.55012e-05
3.42967e-11
1.55011e-05
3.19391e-11
1.55011e-05
2.9977e-11
1.55011e-05
2.76385e-11
1.55011e-05
2.57373e-11
1.55011e-05
2.4162e-11
1.55011e-05
2.14658e-11
1.55011e-05
1.81002e-11
1.55011e-05
1.36499e-11
1.55011e-05
7.51126e-12
1.55011e-05
3.41871e-12
1.55011e-05
1.8709e-12
1.55011e-05
1.61585e-12
1.55011e-05
2.69474e-12
1.55011e-05
2.84396e-12
1.5501e-05
2.15429e-12
1.5501e-05
7.77148e-13
1.5501e-05
-1.44122e-12
1.5501e-05
-3.57778e-12
1.55011e-05
-6.23378e-12
1.55011e-05
-8.83119e-12
1.55011e-05
-1.10131e-11
1.55011e-05
-1.16808e-11
1.55011e-05
-1.24121e-11
1.55011e-05
-8.91361e-12
1.55011e-05
-5.02814e-12
1.55011e-05
4.59893e-12
1.55011e-05
1.81891e-11
1.55011e-05
2.15351e-11
1.55011e-05
1.94242e-11
1.55011e-05
1.21471e-11
1.55011e-05
2.21935e-12
1.55011e-05
-7.65259e-12
1.55011e-05
-1.66038e-11
1.55011e-05
-2.35752e-11
1.55011e-05
-2.9373e-11
1.55011e-05
-3.37105e-11
1.55011e-05
-3.70619e-11
1.55011e-05
-3.66099e-11
1.55011e-05
-3.0141e-11
1.55012e-05
-3.17829e-11
1.55012e-05
-5.24712e-12
7.8516e-12
2.05015e-05
-1.07429e-10
2.05015e-05
-1.66293e-10
2.05016e-05
-1.3584e-10
2.05016e-05
-5.07545e-11
2.05016e-05
4.09979e-11
2.05015e-05
1.16215e-10
2.05015e-05
1.69799e-10
2.05014e-05
2.03594e-10
2.05013e-05
2.20074e-10
2.05012e-05
2.1924e-10
2.05011e-05
2.07166e-10
2.05011e-05
1.90846e-10
2.0501e-05
1.72502e-10
2.0501e-05
1.52089e-10
2.05009e-05
1.31651e-10
2.05009e-05
1.11105e-10
2.05008e-05
8.86849e-11
2.05008e-05
6.84068e-11
2.05008e-05
4.86954e-11
2.05008e-05
2.84053e-11
2.05008e-05
1.0017e-11
2.05008e-05
-6.97492e-12
2.05008e-05
-2.34089e-11
2.05008e-05
-3.87249e-11
2.05008e-05
-5.14586e-11
2.05009e-05
-6.13682e-11
2.05009e-05
-7.17426e-11
2.05009e-05
-8.23687e-11
2.05009e-05
-9.00321e-11
2.0501e-05
-9.62624e-11
2.0501e-05
-1.03198e-10
2.05011e-05
-1.08576e-10
2.05011e-05
-1.11937e-10
2.05011e-05
-1.15353e-10
2.05012e-05
-1.19166e-10
2.05012e-05
-1.21693e-10
2.05013e-05
-1.22599e-10
2.05013e-05
-1.23999e-10
2.05014e-05
-1.24609e-10
2.05014e-05
-1.24576e-10
2.05014e-05
-1.16957e-10
2.05015e-05
-1.06776e-10
2.05015e-05
-9.32998e-11
2.05016e-05
-7.68778e-11
2.05016e-05
-5.49537e-11
2.05016e-05
-2.44341e-11
2.05016e-05
-6.24973e-12
2.05016e-05
9.60464e-13
2.05016e-05
-5.56054e-13
2.05016e-05
-7.67743e-12
2.05016e-05
-1.44518e-11
2.05016e-05
-2.1618e-11
2.05016e-05
-2.7868e-11
2.05016e-05
-3.24044e-11
2.05017e-05
-3.52993e-11
2.05017e-05
-3.6804e-11
2.05017e-05
-3.5558e-11
2.05017e-05
-3.15437e-11
2.05017e-05
-2.54414e-11
2.05017e-05
-1.82488e-11
2.05017e-05
-9.53587e-12
2.05017e-05
8.11565e-13
2.05017e-05
1.12554e-11
2.05017e-05
2.11453e-11
2.05017e-05
3.01727e-11
2.05017e-05
3.80471e-11
2.05016e-05
4.58648e-11
2.05016e-05
5.26043e-11
2.05016e-05
5.65978e-11
2.05016e-05
5.96245e-11
2.05016e-05
6.12743e-11
2.05015e-05
6.2934e-11
2.05015e-05
6.42028e-11
2.05015e-05
6.35756e-11
2.05015e-05
6.33856e-11
2.05014e-05
6.23618e-11
2.05014e-05
5.91092e-11
2.05014e-05
5.45567e-11
2.05014e-05
5.08735e-11
2.05014e-05
4.79581e-11
2.05013e-05
4.44587e-11
2.05013e-05
4.14208e-11
2.05013e-05
3.88019e-11
2.05013e-05
3.45962e-11
2.05013e-05
2.9357e-11
2.05013e-05
2.2117e-11
2.05013e-05
1.30978e-11
2.05013e-05
7.50925e-12
2.05013e-05
5.05205e-12
2.05013e-05
4.42019e-12
2.05013e-05
5.69295e-12
2.05013e-05
5.70184e-12
2.05013e-05
4.55856e-12
2.05013e-05
2.49318e-12
2.05013e-05
-8.6436e-13
2.05013e-05
-4.33069e-12
2.05013e-05
-8.58406e-12
2.05013e-05
-1.28189e-11
2.05013e-05
-1.65461e-11
2.05013e-05
-1.83457e-11
2.05013e-05
-2.01503e-11
2.05013e-05
-1.60448e-11
2.05013e-05
-1.09662e-11
2.05013e-05
2.89121e-12
2.05013e-05
2.21923e-11
2.05013e-05
2.72738e-11
2.05013e-05
2.47675e-11
2.05013e-05
1.48066e-11
2.05013e-05
9.70128e-13
2.05013e-05
-1.30294e-11
2.05013e-05
-2.59818e-11
2.05013e-05
-3.62476e-11
2.05013e-05
-4.47949e-11
2.05013e-05
-5.14462e-11
2.05014e-05
-5.67173e-11
2.05014e-05
-5.62642e-11
2.05014e-05
-4.71846e-11
2.05014e-05
-4.90435e-11
2.05014e-05
-7.88663e-12
-6.80923e-12
2.5581e-05
-1.82033e-10
2.55811e-05
-2.32342e-10
2.55811e-05
-1.70054e-10
2.55811e-05
-4.81893e-11
2.55811e-05
7.6502e-11
2.5581e-05
1.76942e-10
2.55809e-05
2.47933e-10
2.55809e-05
2.9251e-10
2.55808e-05
3.13225e-10
2.55807e-05
3.11023e-10
2.55806e-05
2.93915e-10
2.55805e-05
2.7054e-10
2.55804e-05
2.44129e-10
2.55804e-05
2.14711e-10
2.55803e-05
1.85488e-10
2.55803e-05
1.5595e-10
2.55802e-05
1.24338e-10
2.55802e-05
9.55138e-11
2.55802e-05
6.75255e-11
2.55802e-05
3.90712e-11
2.55802e-05
1.30403e-11
2.55802e-05
-1.1375e-11
2.55802e-05
-3.48197e-11
2.55802e-05
-5.58795e-11
2.55802e-05
-7.35496e-11
2.55803e-05
-8.79704e-11
2.55803e-05
-1.02736e-10
2.55803e-05
-1.17613e-10
2.55804e-05
-1.28742e-10
2.55804e-05
-1.37671e-10
2.55805e-05
-1.46965e-10
2.55805e-05
-1.54242e-10
2.55805e-05
-1.59257e-10
2.55806e-05
-1.64403e-10
2.55806e-05
-1.69577e-10
2.55807e-05
-1.73108e-10
2.55807e-05
-1.75189e-10
2.55808e-05
-1.77325e-10
2.55809e-05
-1.77792e-10
2.55809e-05
-1.77543e-10
2.5581e-05
-1.68173e-10
2.5581e-05
-1.54974e-10
2.55811e-05
-1.36752e-10
2.55811e-05
-1.14462e-10
2.55811e-05
-8.46791e-11
2.55811e-05
-4.35699e-11
2.55811e-05
-1.75885e-11
2.55812e-05
-6.16844e-12
2.55812e-05
-6.38241e-12
2.55812e-05
-1.42794e-11
2.55812e-05
-2.27049e-11
2.55812e-05
-3.1988e-11
2.55812e-05
-4.00917e-11
2.55812e-05
-4.57868e-11
2.55812e-05
-4.92689e-11
2.55812e-05
-5.06702e-11
2.55813e-05
-4.81416e-11
2.55813e-05
-4.2007e-11
2.55813e-05
-3.32286e-11
2.55813e-05
-2.27411e-11
2.55813e-05
-1.00119e-11
2.55813e-05
4.7203e-12
2.55813e-05
1.93339e-11
2.55813e-05
3.30847e-11
2.55812e-05
4.57859e-11
2.55812e-05
5.69711e-11
2.55812e-05
6.78151e-11
2.55812e-05
7.69658e-11
2.55811e-05
8.24504e-11
2.55811e-05
8.65865e-11
2.55811e-05
8.89766e-11
2.55811e-05
9.13202e-11
2.5581e-05
9.29947e-11
2.5581e-05
9.20622e-11
2.5581e-05
9.14051e-11
2.55809e-05
8.95384e-11
2.55809e-05
8.50174e-11
2.55809e-05
7.87295e-11
2.55809e-05
7.36093e-11
2.55809e-05
6.97324e-11
2.55808e-05
6.48728e-11
2.55808e-05
6.04375e-11
2.55808e-05
5.65106e-11
2.55808e-05
5.0501e-11
2.55808e-05
4.30202e-11
2.55808e-05
3.36039e-11
2.55807e-05
2.18733e-11
2.55807e-05
1.3866e-11
2.55807e-05
1.00689e-11
2.55807e-05
8.7838e-12
2.55807e-05
1.00343e-11
2.55807e-05
9.67989e-12
2.55807e-05
7.96109e-12
2.55807e-05
5.12729e-12
2.55807e-05
4.03342e-13
2.55807e-05
-4.72771e-12
2.55807e-05
-1.09499e-11
2.55807e-05
-1.72079e-11
2.55807e-05
-2.29569e-11
2.55807e-05
-2.64669e-11
2.55807e-05
-2.99309e-11
2.55808e-05
-2.56699e-11
2.55808e-05
-1.96556e-11
2.55808e-05
-2.47572e-12
2.55808e-05
2.24005e-11
2.55808e-05
3.03202e-11
2.55808e-05
2.80315e-11
2.55808e-05
1.57326e-11
2.55808e-05
-1.74254e-12
2.55808e-05
-1.97912e-11
2.55808e-05
-3.68993e-11
2.55808e-05
-5.06467e-11
2.55808e-05
-6.2195e-11
2.55808e-05
-7.15966e-11
2.55809e-05
-7.9185e-11
2.55809e-05
-7.87309e-11
2.55809e-05
-6.6964e-11
2.55809e-05
-6.8905e-11
2.55809e-05
-1.04379e-11
-3.34947e-11
3.05442e-05
-2.64724e-10
3.05443e-05
-2.9569e-10
3.05443e-05
-1.94854e-10
3.05443e-05
-3.54437e-11
3.05442e-05
1.21047e-10
3.05442e-05
2.45302e-10
3.05441e-05
3.32898e-10
3.0544e-05
3.87823e-10
3.05439e-05
4.12013e-10
3.05438e-05
4.08639e-10
3.05437e-05
3.86833e-10
3.05436e-05
3.55513e-10
3.05435e-05
3.20714e-10
3.05435e-05
2.81936e-10
3.05434e-05
2.43159e-10
3.05434e-05
2.0412e-10
3.05433e-05
1.62797e-10
3.05433e-05
1.24549e-10
3.05433e-05
8.76507e-11
3.05433e-05
5.07952e-11
3.05433e-05
1.64932e-11
3.05433e-05
-1.64699e-11
3.05433e-05
-4.74913e-11
3.05433e-05
-7.43019e-11
3.05433e-05
-9.7337e-11
3.05434e-05
-1.16989e-10
3.05434e-05
-1.36595e-10
3.05434e-05
-1.56104e-10
3.05435e-05
-1.71118e-10
3.05435e-05
-1.82948e-10
3.05436e-05
-1.94613e-10
3.05436e-05
-2.03961e-10
3.05437e-05
-2.11081e-10
3.05437e-05
-2.183e-10
3.05438e-05
-2.25129e-10
3.05438e-05
-2.29955e-10
3.05439e-05
-2.33229e-10
3.0544e-05
-2.36091e-10
3.0544e-05
-2.36807e-10
3.05441e-05
-2.36466e-10
3.05441e-05
-2.25833e-10
3.05442e-05
-2.10265e-10
3.05442e-05
-1.86818e-10
3.05443e-05
-1.58314e-10
3.05443e-05
-1.2025e-10
3.05443e-05
-6.79924e-11
3.05444e-05
-3.38485e-11
3.05444e-05
-1.72369e-11
3.05444e-05
-1.48491e-11
3.05444e-05
-2.30478e-11
3.05444e-05
-3.29075e-11
3.05444e-05
-4.38567e-11
3.05444e-05
-5.35939e-11
3.05444e-05
-6.01685e-11
3.05444e-05
-6.40395e-11
3.05445e-05
-6.49828e-11
3.05445e-05
-6.06875e-11
3.05445e-05
-5.21786e-11
3.05445e-05
-4.05275e-11
3.05445e-05
-2.63007e-11
3.05445e-05
-8.74095e-12
3.05445e-05
1.07089e-11
3.05445e-05
2.93447e-11
3.05445e-05
4.71022e-11
3.05444e-05
6.37747e-11
3.05444e-05
7.85279e-11
3.05444e-05
9.25113e-11
3.05444e-05
1.04069e-10
3.05443e-05
1.11073e-10
3.05443e-05
1.16425e-10
3.05443e-05
1.20008e-10
3.05443e-05
1.23168e-10
3.05442e-05
1.24939e-10
3.05442e-05
1.23562e-10
3.05442e-05
1.22237e-10
3.05441e-05
1.19322e-10
3.05441e-05
1.13533e-10
3.05441e-05
1.05752e-10
3.0544e-05
9.93102e-11
3.0544e-05
9.4308e-11
3.0544e-05
8.78353e-11
3.0544e-05
8.17847e-11
3.0544e-05
7.63466e-11
3.05439e-05
6.85902e-11
3.05439e-05
5.86631e-11
3.05439e-05
4.74953e-11
3.05439e-05
3.33863e-11
3.05439e-05
2.23574e-11
3.05439e-05
1.68913e-11
3.05439e-05
1.46083e-11
3.05439e-05
1.55337e-11
3.05439e-05
1.48181e-11
3.05439e-05
1.24608e-11
3.05439e-05
8.52635e-12
3.05439e-05
2.16807e-12
3.05439e-05
-4.93388e-12
3.05439e-05
-1.34202e-11
3.05439e-05
-2.20046e-11
3.05439e-05
-3.02048e-11
3.05439e-05
-3.59738e-11
3.05439e-05
-4.16217e-11
3.05439e-05
-3.78711e-11
3.05439e-05
-3.12394e-11
3.05439e-05
-1.13185e-11
3.05439e-05
1.85731e-11
3.05439e-05
3.00703e-11
3.05439e-05
2.89146e-11
3.05439e-05
1.49307e-11
3.05439e-05
-5.82273e-12
3.05439e-05
-2.75776e-11
3.0544e-05
-4.82074e-11
3.0544e-05
-6.53787e-11
3.0544e-05
-8.03797e-11
3.0544e-05
-9.29891e-11
3.0544e-05
-1.03197e-10
3.05441e-05
-1.02576e-10
3.05441e-05
-8.82223e-11
3.05441e-05
-9.01008e-11
3.05441e-05
-1.3717e-11
-6.70128e-11
3.5243e-05
-3.38107e-10
3.52431e-05
-3.48475e-10
3.52431e-05
-2.09096e-10
3.52431e-05
-1.44732e-11
3.5243e-05
1.7015e-10
3.52429e-05
3.15361e-10
3.52428e-05
4.18116e-10
3.52428e-05
4.82396e-10
3.52427e-05
5.09025e-10
3.52426e-05
5.04568e-10
3.52425e-05
4.78791e-10
3.52424e-05
4.40204e-10
3.52423e-05
3.97663e-10
3.52422e-05
3.49817e-10
3.52422e-05
3.01474e-10
3.52421e-05
2.53037e-10
3.52421e-05
2.02067e-10
3.52421e-05
1.54591e-10
3.5242e-05
1.08807e-10
3.5242e-05
6.32549e-11
3.5242e-05
2.02658e-11
3.5242e-05
-2.14812e-11
3.5242e-05
-5.99634e-11
3.52421e-05
-9.2535e-11
3.52421e-05
-1.21402e-10
3.52421e-05
-1.46897e-10
3.52422e-05
-1.71493e-10
3.52422e-05
-1.95369e-10
3.52422e-05
-2.14511e-10
3.52423e-05
-2.29698e-10
3.52423e-05
-2.43655e-10
3.52424e-05
-2.55335e-10
3.52424e-05
-2.65111e-10
3.52425e-05
-2.74672e-10
3.52425e-05
-2.83284e-10
3.52426e-05
-2.89732e-10
3.52427e-05
-2.94261e-10
3.52427e-05
-2.98249e-10
3.52428e-05
-2.99651e-10
3.52429e-05
-2.98947e-10
3.52429e-05
-2.86636e-10
3.5243e-05
-2.69197e-10
3.5243e-05
-2.41644e-10
3.52431e-05
-2.07111e-10
3.52431e-05
-1.60585e-10
3.52432e-05
-9.69338e-11
3.52432e-05
-5.46655e-11
3.52432e-05
-3.20533e-11
3.52432e-05
-2.58865e-11
3.52432e-05
-3.40681e-11
3.52432e-05
-4.45735e-11
3.52432e-05
-5.66238e-11
3.52432e-05
-6.77166e-11
3.52433e-05
-7.47538e-11
3.52433e-05
-7.8804e-11
3.52433e-05
-7.88505e-11
3.52433e-05
-7.23427e-11
3.52433e-05
-6.14796e-11
3.52433e-05
-4.64403e-11
3.52433e-05
-2.80695e-11
3.52433e-05
-5.61497e-12
3.52433e-05
1.83859e-11
3.52433e-05
4.06265e-11
3.52433e-05
6.244e-11
3.52433e-05
8.32122e-11
3.52432e-05
1.01565e-10
3.52432e-05
1.18576e-10
3.52432e-05
1.3237e-10
3.52432e-05
1.40867e-10
3.52431e-05
1.47571e-10
3.52431e-05
1.52774e-10
3.52431e-05
1.5672e-10
3.5243e-05
1.58268e-10
3.5243e-05
1.56388e-10
3.5243e-05
1.54203e-10
3.52429e-05
1.50127e-10
3.52429e-05
1.43266e-10
3.52429e-05
1.34794e-10
3.52428e-05
1.27258e-10
3.52428e-05
1.20595e-10
3.52428e-05
1.12233e-10
3.52428e-05
1.04431e-10
3.52427e-05
9.73719e-11
3.52427e-05
8.79408e-11
3.52427e-05
7.54506e-11
3.52427e-05
6.22316e-11
3.52427e-05
4.64195e-11
3.52427e-05
3.28742e-11
3.52427e-05
2.52966e-11
3.52427e-05
2.16305e-11
3.52427e-05
2.19208e-11
3.52426e-05
2.07767e-11
3.52426e-05
1.7681e-11
3.52426e-05
1.23669e-11
3.52426e-05
4.14102e-12
3.52426e-05
-5.20203e-12
3.52426e-05
-1.61577e-11
3.52426e-05
-2.72917e-11
3.52427e-05
-3.83348e-11
3.52427e-05
-4.68509e-11
3.52427e-05
-5.51043e-11
3.52427e-05
-5.23248e-11
3.52427e-05
-4.53092e-11
3.52427e-05
-2.27481e-11
3.52427e-05
1.18246e-11
3.52427e-05
2.65814e-11
3.52427e-05
2.71307e-11
3.52427e-05
1.26424e-11
3.52427e-05
-1.07242e-11
3.52427e-05
-3.55725e-11
3.52428e-05
-5.90584e-11
3.52428e-05
-7.96427e-11
3.52428e-05
-9.84687e-11
3.52428e-05
-1.14659e-10
3.52428e-05
-1.27107e-10
3.52429e-05
-1.25904e-10
3.52429e-05
-1.09791e-10
3.52429e-05
-1.11497e-10
3.52429e-05
-1.93734e-11
-9.89578e-11
3.9628e-05
-3.89543e-10
3.9628e-05
-3.83803e-10
3.9628e-05
-2.1232e-10
3.9628e-05
1.19368e-11
3.96279e-05
2.20246e-10
3.96279e-05
3.83483e-10
3.96278e-05
4.98863e-10
3.96277e-05
5.70816e-10
3.96276e-05
5.99154e-10
3.96275e-05
5.94059e-10
3.96274e-05
5.65143e-10
3.96273e-05
5.20789e-10
3.96273e-05
4.71572e-10
3.96272e-05
4.15213e-10
3.96271e-05
3.57989e-10
3.96271e-05
3.00551e-10
3.96271e-05
2.40365e-10
3.9627e-05
1.84345e-10
3.9627e-05
1.30071e-10
3.9627e-05
7.56968e-11
3.9627e-05
2.44837e-11
3.9627e-05
-2.58458e-11
3.9627e-05
-7.18223e-11
3.9627e-05
-1.09756e-10
3.96271e-05
-1.44332e-10
3.96271e-05
-1.76119e-10
3.96271e-05
-2.06172e-10
3.96272e-05
-2.34195e-10
3.96272e-05
-2.57079e-10
3.96272e-05
-2.75707e-10
3.96273e-05
-2.9236e-10
3.96273e-05
-3.06862e-10
3.96274e-05
-3.19921e-10
3.96275e-05
-3.31922e-10
3.96275e-05
-3.42112e-10
3.96276e-05
-3.49841e-10
3.96276e-05
-3.55869e-10
3.96277e-05
-3.61993e-10
3.96278e-05
-3.64213e-10
3.96278e-05
-3.62866e-10
3.96279e-05
-3.4961e-10
3.9628e-05
-3.30756e-10
3.9628e-05
-2.99283e-10
3.96281e-05
-2.58921e-10
3.96281e-05
-2.03893e-10
3.96281e-05
-1.29576e-10
3.96282e-05
-7.94511e-11
3.96282e-05
-5.01443e-11
3.96282e-05
-3.9451e-11
3.96282e-05
-4.67787e-11
3.96282e-05
-5.77198e-11
3.96282e-05
-7.05805e-11
3.96282e-05
-8.20661e-11
3.96283e-05
-8.89715e-11
3.96283e-05
-9.23133e-11
3.96283e-05
-9.08492e-11
3.96283e-05
-8.24434e-11
3.96283e-05
-6.95157e-11
3.96283e-05
-5.06533e-11
3.96283e-05
-2.78614e-11
3.96283e-05
-7.51167e-13
3.96283e-05
2.79614e-11
3.96283e-05
5.34284e-11
3.96283e-05
7.87592e-11
3.96282e-05
1.03606e-10
3.96282e-05
1.25383e-10
3.96282e-05
1.4512e-10
3.96282e-05
1.60862e-10
3.96281e-05
1.70824e-10
3.96281e-05
1.79076e-10
3.96281e-05
1.85391e-10
3.9628e-05
1.89757e-10
3.9628e-05
1.91648e-10
3.9628e-05
1.89379e-10
3.96279e-05
1.86108e-10
3.96279e-05
1.80874e-10
3.96279e-05
1.73383e-10
3.96279e-05
1.6476e-10
3.96278e-05
1.56105e-10
3.96278e-05
1.47566e-10
3.96278e-05
1.3722e-10
3.96277e-05
1.27632e-10
3.96277e-05
1.18925e-10
3.96277e-05
1.07708e-10
3.96277e-05
9.3191e-11
3.96277e-05
7.81369e-11
3.96277e-05
6.05274e-11
3.96276e-05
4.47158e-11
3.96276e-05
3.48447e-11
3.96276e-05
2.95619e-11
3.96276e-05
2.89755e-11
3.96276e-05
2.713e-11
3.96276e-05
2.30923e-11
3.96276e-05
1.63166e-11
3.96276e-05
6.05894e-12
3.96276e-05
-5.77091e-12
3.96276e-05
-1.93221e-11
3.96276e-05
-3.31919e-11
3.96276e-05
-4.74873e-11
3.96276e-05
-5.91912e-11
3.96277e-05
-7.03748e-11
3.96277e-05
-6.86379e-11
3.96277e-05
-6.13154e-11
3.96277e-05
-3.70228e-11
3.96277e-05
2.23459e-12
3.96277e-05
2.06981e-11
3.96277e-05
2.25414e-11
3.96277e-05
8.50758e-12
3.96277e-05
-1.59347e-11
3.96277e-05
-4.29994e-11
3.96277e-05
-6.90876e-11
3.96278e-05
-9.33369e-11
3.96278e-05
-1.1611e-10
3.96278e-05
-1.35335e-10
3.96278e-05
-1.49427e-10
3.96278e-05
-1.47876e-10
3.96279e-05
-1.31081e-10
3.96279e-05
-1.31755e-10
3.96279e-05
-2.75869e-11
-1.23692e-10
4.37213e-05
-4.1457e-10
4.37213e-05
-3.96988e-10
4.37213e-05
-2.031e-10
4.37212e-05
4.31189e-11
4.37212e-05
2.7001e-10
4.37211e-05
4.47804e-10
4.37211e-05
5.72942e-10
4.3721e-05
6.50336e-10
4.37209e-05
6.79975e-10
4.37208e-05
6.74648e-10
4.37207e-05
6.43263e-10
4.37207e-05
5.94344e-10
4.37206e-05
5.39616e-10
4.37205e-05
4.76148e-10
4.37205e-05
4.11049e-10
4.37204e-05
3.45255e-10
4.37204e-05
2.76545e-10
4.37204e-05
2.12511e-10
4.37204e-05
1.50212e-10
4.37203e-05
8.74206e-11
4.37203e-05
2.85515e-11
4.37203e-05
-2.96521e-11
4.37204e-05
-8.25696e-11
4.37204e-05
-1.25575e-10
4.37204e-05
-1.65274e-10
4.37204e-05
-2.03828e-10
4.37205e-05
-2.40107e-10
4.37205e-05
-2.71298e-10
4.37205e-05
-2.97872e-10
4.37206e-05
-3.20514e-10
4.37206e-05
-3.39928e-10
4.37207e-05
-3.56963e-10
4.37207e-05
-3.7395e-10
4.37208e-05
-3.89073e-10
4.37208e-05
-4.00537e-10
4.37209e-05
-4.09481e-10
4.3721e-05
-4.17458e-10
4.3721e-05
-4.25306e-10
4.37211e-05
-4.27999e-10
4.37212e-05
-4.2695e-10
4.37212e-05
-4.13751e-10
4.37213e-05
-3.93862e-10
4.37213e-05
-3.58196e-10
4.37214e-05
-3.12193e-10
4.37214e-05
-2.49589e-10
4.37215e-05
-1.65516e-10
4.37215e-05
-1.07068e-10
4.37215e-05
-7.09812e-11
4.37215e-05
-5.52681e-11
4.37216e-05
-6.06225e-11
4.37216e-05
-7.19813e-11
4.37216e-05
-8.52339e-11
4.37216e-05
-9.62132e-11
4.37216e-05
-1.024e-10
4.37216e-05
-1.04278e-10
4.37216e-05
-1.00724e-10
4.37216e-05
-9.07385e-11
4.37216e-05
-7.6013e-11
4.37217e-05
-5.30158e-11
4.37216e-05
-2.48359e-11
4.37216e-05
6.94685e-12
4.37216e-05
3.93195e-11
4.37216e-05
6.72617e-11
4.37216e-05
9.59437e-11
4.37216e-05
1.24919e-10
4.37216e-05
1.49708e-10
4.37215e-05
1.71715e-10
4.37215e-05
1.89053e-10
4.37215e-05
2.00515e-10
4.37214e-05
2.10515e-10
4.37214e-05
2.17453e-10
4.37214e-05
2.21812e-10
4.37213e-05
2.23648e-10
4.37213e-05
2.20943e-10
4.37213e-05
2.17168e-10
4.37212e-05
2.10978e-10
4.37212e-05
2.03564e-10
4.37212e-05
1.94915e-10
4.37212e-05
1.84703e-10
4.37211e-05
1.74449e-10
4.37211e-05
1.62238e-10
4.37211e-05
1.5092e-10
4.37211e-05
1.40585e-10
4.3721e-05
1.27535e-10
4.3721e-05
1.11398e-10
4.3721e-05
9.4757e-11
4.3721e-05
7.50437e-11
4.3721e-05
5.70506e-11
4.3721e-05
4.5091e-11
4.3721e-05
3.81529e-11
4.3721e-05
3.65329e-11
4.37209e-05
3.37477e-11
4.37209e-05
2.85104e-11
4.37209e-05
2.01595e-11
4.37209e-05
7.70634e-12
4.37209e-05
-6.85432e-12
4.37209e-05
-2.3045e-11
4.37209e-05
-3.986e-11
4.3721e-05
-5.79016e-11
4.3721e-05
-7.31915e-11
4.3721e-05
-8.75276e-11
4.3721e-05
-8.67399e-11
4.3721e-05
-7.91675e-11
4.3721e-05
-5.35958e-11
4.37211e-05
-1.00882e-11
4.37211e-05
1.23012e-11
4.37211e-05
1.58606e-11
4.37211e-05
3.20996e-12
4.37211e-05
-2.11174e-11
4.37211e-05
-4.96357e-11
4.37211e-05
-7.81379e-11
4.37211e-05
-1.06546e-10
4.37211e-05
-1.33219e-10
4.37211e-05
-1.54781e-10
4.37212e-05
-1.70197e-10
4.37212e-05
-1.68537e-10
4.37212e-05
-1.5103e-10
4.37212e-05
-1.49831e-10
4.37212e-05
-3.81167e-11
-1.39473e-10
4.75733e-05
-4.13926e-10
4.75733e-05
-3.86677e-10
4.75733e-05
-1.79596e-10
4.75733e-05
7.97448e-11
4.75732e-05
3.19649e-10
4.75731e-05
5.07881e-10
4.75731e-05
6.39899e-10
4.7573e-05
7.20048e-10
4.75729e-05
7.50712e-10