/*--------------------------------*- C++ -*----------------------------------*\
  =========                 |
  \\      /  F ield         | OpenFOAM: The Open Source CFD Toolbox
   \\    /   O peration     | Website:  https://openfoam.org
    \\  /    A nd           | Version:  7
     \\/     M anipulation  |
\*---------------------------------------------------------------------------*/
FoamFile
{
    version     2.0;
    format      ascii;
    class       volVectorField;
    location    "15500";
    object      U;
}
// * * * * * * * * * * * * * * * * * * * * * * * * * * * * * * * * * * * * * //

dimensions      [0 1 -1 0 0 0 0];

internalField   nonuniform List<vector> 
24000
(
(0.0039821 5.88745e-11 6.92541e-16)
(0.00398211 -9.05064e-11 6.77589e-16)
(0.00398213 -1.17699e-10 6.7952e-16)
(0.00398214 -8.21793e-11 6.08922e-16)
(0.00398214 -2.78099e-11 3.20102e-16)
(0.00398214 1.8415e-11 5.92013e-16)
(0.00398213 5.474e-11 3.22339e-16)
(0.00398212 7.84604e-11 6.0449e-16)
(0.0039821 9.20668e-11 6.56411e-16)
(0.00398209 9.79935e-11 3.75719e-16)
(0.00398207 9.39097e-11 6.23368e-16)
(0.00398205 8.52889e-11 6.27624e-16)
(0.00398204 7.99877e-11 6.32468e-16)
(0.00398203 6.99549e-11 6.09627e-16)
(0.00398202 6.12485e-11 5.91313e-16)
(0.00398201 5.48382e-11 6.28902e-16)
(0.003982 4.18937e-11 6.11575e-16)
(0.00398199 3.49284e-11 6.1202e-16)
(0.00398199 2.62202e-11 5.84513e-16)
(0.00398198 1.45754e-11 5.58934e-16)
(0.00398198 7.04181e-12 6.36822e-16)
(0.00398198 1.47672e-13 5.81964e-16)
(0.00398198 -6.54616e-12 5.94975e-16)
(0.00398198 -1.57805e-11 5.75105e-16)
(0.00398199 -2.32795e-11 5.15801e-16)
(0.00398199 -2.54831e-11 6.06936e-16)
(0.003982 -3.11071e-11 5.68051e-16)
(0.003982 -3.79521e-11 5.84652e-16)
(0.00398201 -3.9099e-11 5.56653e-16)
(0.00398202 -4.10238e-11 5.09559e-16)
(0.00398202 -4.75877e-11 6.03689e-16)
(0.00398203 -5.11061e-11 5.81957e-16)
(0.00398204 -5.15068e-11 5.93625e-16)
(0.00398205 -5.267e-11 5.51463e-16)
(0.00398206 -5.5969e-11 4.89579e-16)
(0.00398207 -5.74802e-11 5.85726e-16)
(0.00398208 -5.58366e-11 5.69205e-16)
(0.00398209 -5.84031e-11 5.90125e-16)
(0.0039821 -5.60579e-11 5.49238e-16)
(0.00398211 -5.87882e-11 4.95849e-16)
(0.00398212 -4.98477e-11 5.43452e-16)
(0.00398212 -4.47431e-11 7.29135e-16)
(0.00398213 -2.87053e-11 6.01784e-16)
(0.00398214 -1.44768e-11 5.95995e-16)
(0.00398214 -1.27271e-12 6.07062e-16)
(0.00398214 3.13034e-11 6.17638e-16)
(0.00398214 2.924e-11 7.89552e-16)
(0.00398214 2.74339e-11 6.40268e-16)
(0.00398213 1.89919e-11 6.30359e-16)
(0.00398213 5.30633e-12 6.36286e-16)
(0.00398213 1.97096e-13 6.41221e-16)
(0.00398213 -7.325e-12 8.80781e-16)
(0.00398214 -1.20726e-11 6.51144e-16)
(0.00398214 -1.64848e-11 8.34525e-16)
(0.00398214 -1.94349e-11 6.01381e-16)
(0.00398215 -2.27642e-11 6.59724e-16)
(0.00398215 -2.39439e-11 9.0955e-16)
(0.00398215 -2.34927e-11 6.64893e-16)
(0.00398215 -2.06545e-11 8.89785e-16)
(0.00398216 -1.83542e-11 6.44503e-16)
(0.00398216 -1.5423e-11 6.79683e-16)
(0.00398216 -1.02264e-11 9.43974e-16)
(0.00398216 -5.20667e-12 6.88562e-16)
(0.00398216 6.97523e-14 8.32843e-16)
(0.00398216 4.58642e-12 6.24285e-16)
(0.00398216 7.56841e-12 6.88211e-16)
(0.00398215 1.21439e-11 8.5222e-16)
(0.00398215 1.69983e-11 6.90766e-16)
(0.00398215 1.7803e-11 9.33234e-16)
(0.00398214 2.0716e-11 5.821e-16)
(0.00398214 2.07649e-11 6.89307e-16)
(0.00398214 2.1992e-11 9.18434e-16)
(0.00398213 2.36118e-11 6.98406e-16)
(0.00398213 2.17319e-11 8.99197e-16)
(0.00398212 2.39683e-11 6.39391e-16)
(0.00398212 2.49789e-11 7.18049e-16)
(0.00398211 2.23251e-11 8.91471e-16)
(0.00398211 1.93014e-11 7.13945e-16)
(0.00398211 1.85354e-11 8.65109e-16)
(0.0039821 1.67193e-11 6.30346e-16)
(0.0039821 1.37607e-11 4.23148e-16)
(0.0039821 1.30218e-11 6.31111e-16)
(0.00398209 1.27584e-11 7.09942e-16)
(0.00398209 1.0352e-11 3.96476e-16)
(0.00398209 6.89921e-12 5.73936e-16)
(0.00398209 6.13632e-12 4.9078e-16)
(0.00398209 -1.06953e-12 6.14819e-16)
(0.00398209 -7.01695e-12 6.95546e-16)
(0.00398209 -6.77338e-12 4.90793e-16)
(0.00398209 -6.83998e-12 5.79219e-16)
(0.00398209 -3.29484e-12 4.09922e-16)
(0.00398209 -3.38338e-12 5.70033e-16)
(0.00398209 -3.76256e-12 6.78208e-16)
(0.00398209 -4.99331e-12 4.75261e-16)
(0.00398209 -8.10481e-12 5.67007e-16)
(0.00398209 -8.16644e-12 3.90423e-16)
(0.00398209 -1.07478e-11 5.34525e-16)
(0.00398209 -1.08789e-11 6.67469e-16)
(0.00398209 -1.25749e-11 3.83549e-16)
(0.00398209 -7.15457e-12 5.56471e-16)
(0.00398209 -8.03048e-12 3.69204e-16)
(0.0039821 4.53169e-12 5.70518e-16)
(0.0039821 1.00663e-11 6.77584e-16)
(0.0039821 2.23846e-11 5.0888e-16)
(0.00398209 4.53199e-11 5.69365e-16)
(0.00398209 3.95293e-11 4.35843e-16)
(0.00398208 3.6641e-11 5.74765e-16)
(0.00398208 2.36163e-11 6.81774e-16)
(0.00398208 9.25945e-12 5.09917e-16)
(0.00398208 -2.99285e-12 6.03882e-16)
(0.00398208 -1.38641e-11 4.92079e-16)
(0.00398208 -2.00756e-11 3.91069e-16)
(0.00398209 -2.6821e-11 6.62633e-16)
(0.00398209 -3.00287e-11 4.98552e-16)
(0.00398209 -3.19185e-11 6.02769e-16)
(0.0039821 -3.06647e-11 4.70292e-16)
(0.0039821 -1.73748e-11 4.57058e-16)
(0.00398211 -2.36599e-11 6.66154e-16)
(0.00398211 -9.42073e-12 5.0923e-16)
(0.00398211 9.68015e-11 6.24517e-16)
(0.0120198 -7.31844e-11 2.09741e-15)
(0.0120198 -1.32741e-09 2.04862e-15)
(0.0120198 -1.52613e-09 2.05447e-15)
(0.0120199 -9.0262e-10 1.83513e-15)
(0.0120199 -7.34086e-11 1.37281e-15)
(0.0120199 6.39216e-10 1.80216e-15)
(0.0120198 1.1682e-09 1.41221e-15)
(0.0120198 1.5122e-09 1.837e-15)
(0.0120197 1.70023e-09 1.98158e-15)
(0.0120197 1.74515e-09 1.3394e-15)
(0.0120196 1.66378e-09 1.89784e-15)
(0.0120196 1.52737e-09 1.89634e-15)
(0.0120196 1.39333e-09 1.9121e-15)
(0.0120195 1.23195e-09 1.84206e-15)
(0.0120195 1.07544e-09 1.79105e-15)
(0.0120195 9.24876e-10 1.90209e-15)
(0.0120194 7.36873e-10 1.84918e-15)
(0.0120194 5.82316e-10 1.8514e-15)
(0.0120194 4.26335e-10 1.76728e-15)
(0.0120194 2.51861e-10 1.69437e-15)
(0.0120194 1.05515e-10 1.92854e-15)
(0.0120194 -2.38209e-11 1.76034e-15)
(0.0120194 -1.51729e-10 1.80029e-15)
(0.0120194 -2.89153e-10 1.73714e-15)
(0.0120194 -4.02473e-10 1.55214e-15)
(0.0120194 -4.72161e-10 1.85142e-15)
(0.0120194 -5.58593e-10 1.71432e-15)
(0.0120195 -6.53819e-10 1.76815e-15)
(0.0120195 -7.04606e-10 1.68077e-15)
(0.0120195 -7.4992e-10 1.54478e-15)
(0.0120195 -8.24016e-10 1.82487e-15)
(0.0120195 -8.77241e-10 1.75384e-15)
(0.0120196 -8.98912e-10 1.79566e-15)
(0.0120196 -9.21877e-10 1.66465e-15)
(0.0120196 -9.61078e-10 1.469e-15)
(0.0120196 -9.84457e-10 1.77129e-15)
(0.0120197 -9.82014e-10 1.72168e-15)
(0.0120197 -9.96028e-10 1.7839e-15)
(0.0120197 -9.96057e-10 1.66493e-15)
(0.0120198 -1.00243e-09 1.48985e-15)
(0.0120198 -9.21952e-10 1.64168e-15)
(0.0120198 -8.22285e-10 1.81334e-15)
(0.0120198 -6.53198e-10 1.81494e-15)
(0.0120199 -4.76906e-10 1.80401e-15)
(0.0120199 -2.5915e-10 1.83565e-15)
(0.0120199 7.60004e-11 1.86805e-15)
(0.0120199 1.92069e-10 1.96184e-15)
(0.0120199 2.06928e-10 1.92839e-15)
(0.0120199 1.40464e-10 1.90735e-15)
(0.0120199 1.7788e-11 1.92449e-15)
(0.0120199 -6.44512e-11 1.93969e-15)
(0.0120199 -1.47499e-10 2.03143e-15)
(0.0120199 -2.15697e-10 1.96483e-15)
(0.0120199 -2.6885e-10 2.07738e-15)
(0.0120199 -3.0681e-10 1.72261e-15)
(0.0120199 -3.3718e-10 1.99811e-15)
(0.0120199 -3.43073e-10 2.08312e-15)
(0.0120199 -3.21423e-10 2.00338e-15)
(0.0120199 -2.75109e-10 2.08237e-15)
(0.0120199 -2.2408e-10 2.03305e-15)
(0.0120199 -1.61714e-10 2.06415e-15)
(0.0120199 -7.80964e-11 2.17143e-15)
(0.0120199 8.63246e-12 2.07523e-15)
(0.0120199 9.35631e-11 2.13835e-15)
(0.0120199 1.687e-10 1.93632e-15)
(0.0120199 2.29854e-10 2.08649e-15)
(0.0120199 2.99296e-10 2.15397e-15)
(0.0120199 3.63644e-10 2.08323e-15)
(0.0120199 3.95549e-10 2.20017e-15)
(0.0120199 4.26225e-10 1.98112e-15)
(0.0120199 4.38184e-10 2.08706e-15)
(0.0120199 4.54136e-10 2.16457e-15)
(0.0120198 4.68689e-10 2.10559e-15)
(0.0120198 4.59303e-10 2.2231e-15)
(0.0120198 4.6977e-10 1.86987e-15)
(0.0120198 4.7246e-10 2.17157e-15)
(0.0120198 4.41395e-10 2.24921e-15)
(0.0120198 3.99508e-10 2.15187e-15)
(0.0120198 3.73042e-10 2.21132e-15)
(0.0120197 3.45966e-10 2.03454e-15)
(0.0120197 3.10744e-10 1.94779e-15)
(0.0120197 2.89168e-10 1.80492e-15)
(0.0120197 2.74071e-10 2.14519e-15)
(0.0120197 2.38181e-10 1.86644e-15)
(0.0120197 1.93276e-10 1.92187e-15)
(0.0120197 1.4721e-10 1.86657e-15)
(0.0120197 5.71874e-11 1.95339e-15)
(0.0120197 -1.24897e-11 2.10519e-15)
(0.0120197 -2.97703e-11 1.86629e-15)
(0.0120197 -2.84905e-11 1.90691e-15)
(0.0120197 -2.55009e-12 1.84231e-15)
(0.0120197 2.08297e-12 1.66871e-15)
(0.0120197 -5.85683e-12 2.04786e-15)
(0.0120197 -2.55117e-11 1.82855e-15)
(0.0120197 -5.88375e-11 1.84965e-15)
(0.0120197 -8.12685e-11 1.82604e-15)
(0.0120197 -1.13927e-10 1.76805e-15)
(0.0120197 -1.40692e-10 2.01458e-15)
(0.0120197 -1.61473e-10 1.81527e-15)
(0.0120197 -1.45414e-10 1.68335e-15)
(0.0120197 -1.41818e-10 1.80595e-15)
(0.0120197 -5.22909e-11 1.82543e-15)
(0.0120197 2.13152e-11 2.0486e-15)
(0.0120197 1.78317e-10 1.88228e-15)
(0.0120197 4.07517e-10 1.7901e-15)
(0.0120197 4.3108e-10 1.76243e-15)
(0.0120197 3.84995e-10 1.83579e-15)
(0.0120197 2.53199e-10 2.05929e-15)
(0.0120197 8.38572e-11 1.8832e-15)
(0.0120197 -7.49686e-11 1.84951e-15)
(0.0120197 -2.13721e-10 1.84056e-15)
(0.0120197 -3.13975e-10 1.77129e-15)
(0.0120197 -4.00309e-10 2.00942e-15)
(0.0120197 -4.57553e-10 1.86695e-15)
(0.0120197 -4.98232e-10 1.89838e-15)
(0.0120197 -4.82295e-10 1.82826e-15)
(0.0120198 -3.62848e-10 1.77401e-15)
(0.0120198 -4.14003e-10 2.01982e-15)
(0.0120198 -5.56815e-11 1.88407e-15)
(0.0120198 6.06604e-10 1.94777e-15)
(0.0202208 -9.72283e-10 3.556e-15)
(0.0202209 -3.90009e-09 3.44521e-15)
(0.0202209 -4.12717e-09 3.45923e-15)
(0.020221 -2.24653e-09 3.04619e-15)
(0.020221 1.3397e-10 2.79929e-15)
(0.0202209 2.15827e-09 3.08801e-15)
(0.0202209 3.64122e-09 2.84121e-15)
(0.0202208 4.59751e-09 3.15545e-15)
(0.0202207 5.10695e-09 3.32244e-15)
(0.0202207 5.19459e-09 3.01188e-15)
(0.0202206 4.93982e-09 3.25341e-15)
(0.0202205 4.53622e-09 3.18705e-15)
(0.0202204 4.11964e-09 3.22078e-15)
(0.0202204 3.645e-09 3.0949e-15)
(0.0202203 3.17668e-09 3.02434e-15)
(0.0202203 2.71403e-09 3.20839e-15)
(0.0202202 2.16923e-09 3.10926e-15)
(0.0202202 1.69889e-09 3.12097e-15)
(0.0202202 1.23395e-09 2.97092e-15)
(0.0202202 7.31225e-10 2.8653e-15)
(0.0202202 2.9387e-10 3.26994e-15)
(0.0202202 -9.68765e-11 2.95688e-15)
(0.0202202 -4.80195e-10 3.04115e-15)
(0.0202202 -8.72635e-10 2.90711e-15)
(0.0202202 -1.19778e-09 2.58568e-15)
(0.0202202 -1.41714e-09 3.19324e-15)
(0.0202202 -1.6679e-09 2.85025e-15)
(0.0202203 -1.93778e-09 2.98223e-15)
(0.0202203 -2.10266e-09 2.82653e-15)
(0.0202203 -2.24266e-09 2.6134e-15)
(0.0202204 -2.44052e-09 3.10537e-15)
(0.0202204 -2.58922e-09 2.92754e-15)
(0.0202205 -2.66035e-09 3.02803e-15)
(0.0202205 -2.72958e-09 2.78187e-15)
(0.0202205 -2.83524e-09 2.44201e-15)
(0.0202206 -2.90402e-09 3.01336e-15)
(0.0202206 -2.90457e-09 2.90066e-15)
(0.0202207 -2.93825e-09 3.00794e-15)
(0.0202207 -2.95147e-09 2.81048e-15)
(0.0202208 -2.96138e-09 2.48408e-15)
(0.0202208 -2.7518e-09 2.77518e-15)
(0.0202209 -2.47006e-09 2.90137e-15)
(0.0202209 -2.03476e-09 3.05413e-15)
(0.0202209 -1.56117e-09 3.04322e-15)
(0.020221 -9.56758e-10 3.09608e-15)
(0.020221 -7.33527e-11 3.15e-15)
(0.020221 3.21054e-10 3.12624e-15)
(0.020221 4.13329e-10 3.23918e-15)
(0.020221 2.73602e-10 3.21416e-15)
(0.020221 -1.90337e-11 3.24551e-15)
(0.020221 -2.39547e-10 3.27032e-15)
(0.020221 -4.58344e-10 3.24969e-15)
(0.020221 -6.43591e-10 3.30791e-15)
(0.020221 -7.85156e-10 3.31273e-15)
(0.020221 -8.84109e-10 3.80175e-15)
(0.020221 -9.55773e-10 3.38955e-15)
(0.020221 -9.59216e-10 3.30132e-15)
(0.020221 -8.85622e-10 3.36656e-15)
(0.0202211 -7.46999e-10 3.34225e-15)
(0.0202211 -5.89058e-10 3.62067e-15)
(0.0202211 -3.97086e-10 3.50846e-15)
(0.0202211 -1.51525e-10 3.43706e-15)
(0.0202211 1.02993e-10 3.48747e-15)
(0.0202211 3.49546e-10 3.45309e-15)
(0.0202211 5.69823e-10 3.60491e-15)
(0.0202211 7.54341e-10 3.53938e-15)
(0.020221 9.52818e-10 3.45415e-15)
(0.020221 1.13287e-09 3.50473e-15)
(0.020221 1.23098e-09 3.52777e-15)
(0.020221 1.3141e-09 3.74871e-15)
(0.020221 1.35215e-09 3.55743e-15)
(0.0202209 1.39608e-09 3.47217e-15)
(0.0202209 1.43374e-09 3.53836e-15)
(0.0202209 1.41354e-09 3.51826e-15)
(0.0202209 1.43053e-09 3.87373e-15)
(0.0202208 1.42772e-09 3.67809e-15)
(0.0202208 1.34312e-09 3.58559e-15)
(0.0202208 1.22533e-09 3.61455e-15)
(0.0202208 1.14128e-09 3.56697e-15)
(0.0202208 1.06393e-09 3.71577e-15)
(0.0202207 9.68362e-10 3.50514e-15)
(0.0202207 9.00859e-10 3.64547e-15)
(0.0202207 8.49686e-10 3.62139e-15)
(0.0202207 7.4718e-10 3.32648e-15)
(0.0202207 6.1893e-10 3.45799e-15)
(0.0202207 4.6886e-10 3.31538e-15)
(0.0202207 2.20637e-10 3.57427e-15)
(0.0202207 3.69222e-11 3.56457e-15)
(0.0202207 -1.93264e-11 3.27503e-15)
(0.0202207 -2.04932e-11 3.64559e-15)
(0.0202207 3.85858e-11 3.27425e-15)
(0.0202207 5.05585e-11 3.58223e-15)
(0.0202207 2.654e-11 3.46688e-15)
(0.0202207 -2.86227e-11 3.22532e-15)
(0.0202207 -1.18589e-10 3.39064e-15)
(0.0202207 -1.91967e-10 3.27234e-15)
(0.0202207 -2.88127e-10 3.33527e-15)
(0.0202207 -3.76118e-10 3.41614e-15)
(0.0202207 -4.4491e-10 3.22442e-15)
(0.0202207 -4.33042e-10 3.55918e-15)
(0.0202207 -4.35437e-10 3.27111e-15)
(0.0202207 -2.3678e-10 3.58815e-15)
(0.0202207 -4.96301e-11 3.47443e-15)
(0.0202207 3.651e-10 3.26764e-15)
(0.0202207 9.59131e-10 3.40363e-15)
(0.0202207 1.0676e-09 3.16697e-15)
(0.0202207 9.5615e-10 3.43173e-15)
(0.0202207 6.2188e-10 3.48784e-15)
(0.0202207 1.80155e-10 3.26461e-15)
(0.0202207 -2.45474e-10 3.48438e-15)
(0.0202207 -6.21483e-10 3.23113e-15)
(0.0202207 -9.0354e-10 3.12961e-15)
(0.0202207 -1.14097e-09 3.40601e-15)
(0.0202207 -1.3075e-09 3.26331e-15)
(0.0202207 -1.43014e-09 3.49455e-15)
(0.0202207 -1.39727e-09 3.24702e-15)
(0.0202208 -1.10088e-09 3.14063e-15)
(0.0202208 -1.20501e-09 3.42343e-15)
(0.0202208 -1.82121e-10 3.27744e-15)
(0.0202208 1.10573e-09 3.73596e-15)
(0.028553 -3.25199e-09 5.01527e-15)
(0.0285531 -7.92279e-09 4.86297e-15)
(0.0285532 -7.66238e-09 4.88618e-15)
(0.0285532 -3.75256e-09 4.31868e-15)
(0.0285532 9.19039e-10 4.30193e-15)
(0.0285532 4.84056e-09 4.44606e-15)
(0.0285531 7.67956e-09 4.3676e-15)
(0.028553 9.49327e-09 4.55844e-15)
(0.0285529 1.0432e-08 4.66787e-15)
(0.0285528 1.05188e-08 4.53702e-15)
(0.0285527 9.97347e-09 4.69137e-15)
(0.0285526 9.15974e-09 4.48687e-15)
(0.0285525 8.29837e-09 4.55661e-15)
(0.0285524 7.34466e-09 4.34857e-15)
(0.0285523 6.38449e-09 4.2922e-15)
(0.0285522 5.42654e-09 4.54791e-15)
(0.0285522 4.33861e-09 4.37088e-15)
(0.0285522 3.37525e-09 4.41827e-15)
(0.0285521 2.43231e-09 4.17616e-15)
(0.0285521 1.4359e-09 3.9137e-15)
(0.0285521 5.50924e-10 4.72444e-15)
(0.0285521 -2.4926e-10 4.17412e-15)
(0.0285521 -1.02965e-09 4.33185e-15)
(0.0285521 -1.79947e-09 3.83969e-15)
(0.0285521 -2.43777e-09 3.7645e-15)
(0.0285522 -2.8957e-09 4.45769e-15)
(0.0285522 -3.39628e-09 3.99843e-15)
(0.0285522 -3.92433e-09 4.22822e-15)
(0.0285523 -4.27431e-09 4.027e-15)
(0.0285523 -4.56497e-09 3.72442e-15)
(0.0285524 -4.93452e-09 4.39453e-15)
(0.0285524 -5.21775e-09 4.02278e-15)
(0.0285525 -5.36915e-09 4.2915e-15)
(0.0285526 -5.51827e-09 4.00935e-15)
(0.0285526 -5.71761e-09 3.5763e-15)
(0.0285527 -5.84842e-09 4.26198e-15)
(0.0285527 -5.85429e-09 3.96553e-15)
(0.0285528 -5.916e-09 4.26715e-15)
(0.0285529 -5.95986e-09 3.84523e-15)
(0.0285529 -5.97133e-09 3.62608e-15)
(0.028553 -5.57334e-09 3.97135e-15)
(0.0285531 -5.03106e-09 4.01028e-15)
(0.0285531 -4.25597e-09 4.33761e-15)
(0.0285532 -3.37524e-09 4.3097e-15)
(0.0285532 -2.22556e-09 4.39218e-15)
(0.0285532 -5.89843e-10 4.46004e-15)
(0.0285532 2.53594e-10 4.30711e-15)
(0.0285532 5.11565e-10 4.58581e-15)
(0.0285532 3.17413e-10 4.54269e-15)
(0.0285532 -1.67546e-10 4.60033e-15)
(0.0285532 -5.66879e-10 4.62761e-15)
(0.0285532 -9.67326e-10 4.49652e-15)
(0.0285533 -1.31201e-09 4.69214e-15)
(0.0285533 -1.57125e-09 4.59018e-15)
(0.0285533 -1.74706e-09 4.8087e-15)
(0.0285533 -1.86231e-09 4.77451e-15)
(0.0285533 -1.84379e-09 4.53992e-15)
(0.0285534 -1.67788e-09 4.76551e-15)
(0.0285534 -1.39306e-09 4.63083e-15)
(0.0285534 -1.06328e-09 5.04747e-15)
(0.0285534 -6.6376e-10 4.92939e-15)
(0.0285534 -1.68756e-10 4.73407e-15)
(0.0285534 3.40814e-10 4.93752e-15)
(0.0285534 8.30024e-10 4.78559e-15)
(0.0285534 1.27048e-09 5.00588e-15)
(0.0285533 1.64633e-09 4.99792e-15)
(0.0285533 2.03637e-09 4.77847e-15)
(0.0285533 2.38351e-09 4.96584e-15)
(0.0285533 2.58189e-09 4.88873e-15)
(0.0285532 2.73935e-09 5.08467e-15)
(0.0285532 2.81782e-09 5.02022e-15)
(0.0285532 2.90184e-09 4.803e-15)
(0.0285531 2.97065e-09 5.00848e-15)
(0.0285531 2.93706e-09 4.85338e-15)
(0.0285531 2.95213e-09 5.15743e-15)
(0.028553 2.92862e-09 5.17071e-15)
(0.028553 2.76559e-09 4.9368e-15)
(0.028553 2.5365e-09 5.11101e-15)
(0.0285529 2.36124e-09 4.95879e-15)
(0.0285529 2.21005e-09 5.20386e-15)
(0.0285529 2.02902e-09 5.0544e-15)
(0.0285529 1.88871e-09 5.05556e-15)
(0.0285529 1.77579e-09 5.08616e-15)
(0.0285528 1.57274e-09 4.78037e-15)
(0.0285528 1.31883e-09 4.86533e-15)
(0.0285528 9.90102e-10 4.74088e-15)
(0.0285528 5.14174e-10 4.96905e-15)
(0.0285528 1.88303e-10 5.01462e-15)
(0.0285528 7.3228e-11 4.69221e-15)
(0.0285528 6.14436e-11 4.86727e-15)
(0.0285528 1.5599e-10 4.67908e-15)
(0.0285528 1.73209e-10 4.78204e-15)
(0.0285528 1.23093e-10 4.88603e-15)
(0.0285528 1.6651e-11 4.64247e-15)
(0.0285528 -1.54278e-10 4.73832e-15)
(0.0285528 -3.10464e-10 4.68813e-15)
(0.0285528 -5.06922e-10 4.73653e-15)
(0.0285528 -6.95811e-10 4.82633e-15)
(0.0285528 -8.49567e-10 4.62064e-15)
(0.0285528 -8.74492e-10 4.77983e-15)
(0.0285528 -9.09167e-10 4.69388e-15)
(0.0285528 -6.00279e-10 4.76628e-15)
(0.0285528 -2.76982e-10 4.90947e-15)
(0.0285528 4.90328e-10 4.65768e-15)
(0.0285528 1.5711e-09 4.78151e-15)
(0.0285528 1.81277e-09 4.55988e-15)
(0.0285528 1.62869e-09 4.8239e-15)
(0.0285528 1.03666e-09 4.92055e-15)
(0.0285528 2.38717e-10 4.64301e-15)
(0.0285528 -5.45381e-10 4.83649e-15)
(0.0285528 -1.24776e-09 4.60738e-15)
(0.0285528 -1.78814e-09 4.51615e-15)
(0.0285528 -2.23851e-09 4.86812e-15)
(0.0285529 -2.56739e-09 4.67158e-15)
(0.0285529 -2.81669e-09 4.8997e-15)
(0.0285529 -2.77136e-09 4.62746e-15)
(0.0285529 -2.24946e-09 4.53722e-15)
(0.028553 -2.39895e-09 4.89134e-15)
(0.028553 -3.86697e-10 4.68188e-15)
(0.028553 1.15722e-09 4.9776e-15)
(0.0368916 -7.59052e-09 6.48015e-15)
(0.0368917 -1.33766e-08 6.26752e-15)
(0.0368918 -1.16373e-08 6.30528e-15)
(0.0368918 -4.87585e-09 5.61962e-15)
(0.0368918 2.67439e-09 5.87851e-15)
(0.0368917 8.92835e-09 5.77622e-15)
(0.0368916 1.34065e-08 5.88436e-15)
(0.0368915 1.62404e-08 6.02216e-15)
(0.0368914 1.76548e-08 5.96565e-15)
(0.0368912 1.76337e-08 6.04818e-15)
(0.0368911 1.66684e-08 6.17718e-15)
(0.036891 1.53635e-08 5.7485e-15)
(0.0368908 1.3898e-08 5.91216e-15)
(0.0368907 1.22629e-08 5.55769e-15)
(0.0368906 1.06304e-08 5.58977e-15)
(0.0368906 8.9911e-09 5.92609e-15)
(0.0368905 7.18037e-09 5.5858e-15)
(0.0368904 5.55388e-09 5.73242e-15)
(0.0368904 3.96921e-09 5.33735e-15)
(0.0368904 2.32284e-09 5.33696e-15)
(0.0368904 8.41534e-10 5.93882e-15)
(0.0368904 -5.14392e-10 5.64564e-15)
(0.0368904 -1.83153e-09 5.69408e-15)
(0.0368904 -3.08531e-09 5.7078e-15)
(0.0368904 -4.12482e-09 5.27886e-15)
(0.0368905 -4.91084e-09 5.97024e-15)
(0.0368905 -5.74524e-09 5.65822e-15)
(0.0368906 -6.60819e-09 5.55764e-15)
(0.0368906 -7.21447e-09 5.52792e-15)
(0.0368907 -7.71153e-09 5.22727e-15)
(0.0368908 -8.28968e-09 5.84217e-15)
(0.0368908 -8.73615e-09 5.6898e-15)
(0.0368909 -8.99954e-09 5.60141e-15)
(0.036891 -9.26311e-09 5.49992e-15)
(0.036891 -9.57709e-09 5.05439e-15)
(0.0368911 -9.7852e-09 5.71122e-15)
(0.0368912 -9.8417e-09 5.65646e-15)
(0.0368913 -9.94976e-09 5.56877e-15)
(0.0368914 -1.00013e-08 5.5248e-15)
(0.0368914 -1.00056e-08 5.09739e-15)
(0.0368915 -9.35093e-09 5.28997e-15)
(0.0368916 -8.48948e-09 5.46831e-15)
(0.0368917 -7.35787e-09 5.6933e-15)
(0.0368917 -5.99198e-09 5.58136e-15)
(0.0368918 -4.17401e-09 5.72253e-15)
(0.0368918 -1.62893e-09 5.7763e-15)
(0.0368918 -1.76777e-10 5.81946e-15)
(0.0368918 3.53314e-10 5.99224e-15)
(0.0368918 1.58425e-10 5.86483e-15)
(0.0368918 -4.96361e-10 5.98196e-15)
(0.0368919 -1.08586e-09 5.98621e-15)
(0.0368919 -1.69609e-09 6.09389e-15)
(0.0368919 -2.22549e-09 6.13277e-15)
(0.0368919 -2.61564e-09 6.2031e-15)
(0.0368919 -2.87022e-09 6.26944e-15)
(0.0368919 -3.01653e-09 6.13523e-15)
(0.036892 -2.94167e-09 6.09972e-15)
(0.036892 -2.63418e-09 6.21461e-15)
(0.036892 -2.14702e-09 6.27205e-15)
(0.036892 -1.57716e-09 6.27503e-15)
(0.036892 -8.89163e-10 6.32986e-15)
(0.036892 -5.79251e-11 6.37361e-15)
(0.036892 7.89229e-10 6.44017e-15)
(0.036892 1.59403e-09 6.44897e-15)
(0.036892 2.32453e-09 6.53593e-15)
(0.036892 2.95717e-09 6.42844e-15)
(0.0368919 3.59463e-09 6.42784e-15)
(0.0368919 4.1507e-09 6.4791e-15)
(0.0368919 4.47707e-09 6.61034e-15)
(0.0368918 4.72674e-09 6.46909e-15)
(0.0368918 4.85712e-09 6.45664e-15)
(0.0368917 4.99202e-09 6.50304e-15)
(0.0368917 5.09946e-09 6.53406e-15)
(0.0368916 5.04845e-09 6.52106e-15)
(0.0368916 5.04683e-09 6.68346e-15)
(0.0368916 4.97917e-09 6.62121e-15)
(0.0368915 4.71387e-09 6.62045e-15)
(0.0368915 4.34062e-09 6.6534e-15)
(0.0368914 4.04296e-09 6.70012e-15)
(0.0368914 3.801e-09 6.73478e-15)
(0.0368914 3.51318e-09 6.96154e-15)
(0.0368914 3.27253e-09 6.60787e-15)
(0.0368913 3.06935e-09 6.52745e-15)
(0.0368913 2.73021e-09 6.54315e-15)
(0.0368913 2.30927e-09 6.30536e-15)
(0.0368913 1.71054e-09 6.50029e-15)
(0.0368913 9.51258e-10 6.28748e-15)
(0.0368912 4.93232e-10 6.44148e-15)
(0.0368912 3.03251e-10 6.42244e-15)
(0.0368912 2.65348e-10 5.9959e-15)
(0.0368912 3.87832e-10 6.39861e-15)
(0.0368912 3.99224e-10 6.27671e-15)
(0.0368912 3.10506e-10 6.29708e-15)
(0.0368912 1.41275e-10 6.38584e-15)
(0.0368912 -1.32833e-10 6.1961e-15)
(0.0368912 -4.05252e-10 6.4449e-15)
(0.0368912 -7.41865e-10 6.20795e-15)
(0.0368912 -1.07401e-09 6.23704e-15)
(0.0368912 -1.3582e-09 6.32969e-15)
(0.0368912 -1.46801e-09 5.98731e-15)
(0.0368913 -1.58113e-09 6.44867e-15)
(0.0368913 -1.18835e-09 6.26354e-15)
(0.0368913 -7.34377e-10 6.33588e-15)
(0.0368913 4.62148e-10 6.37424e-15)
(0.0368913 2.10883e-09 6.20936e-15)
(0.0368913 2.49761e-09 6.27845e-15)
(0.0368913 2.25014e-09 6.24661e-15)
(0.0368913 1.38131e-09 6.34309e-15)
(0.0368913 1.90412e-10 6.33209e-15)
(0.0368913 -1.00236e-09 6.22368e-15)
(0.0368913 -2.09336e-09 6.28413e-15)
(0.0368913 -2.94801e-09 6.27536e-15)
(0.0368913 -3.65682e-09 6.40443e-15)
(0.0368913 -4.19536e-09 6.39432e-15)
(0.0368914 -4.61541e-09 6.3e-15)
(0.0368914 -4.56706e-09 6.32709e-15)
(0.0368915 -3.79116e-09 6.30777e-15)
(0.0368915 -3.9696e-09 6.43051e-15)
(0.0368915 -6.43998e-10 6.4094e-15)
(0.0368915 2.51775e-10 6.37928e-15)
(0.0449692 -1.42395e-08 7.93191e-15)
(0.0449693 -1.98395e-08 7.60685e-15)
(0.0449694 -1.54523e-08 7.6946e-15)
(0.0449695 -5.18864e-09 7.4989e-15)
(0.0449694 5.65186e-09 7.44695e-15)
(0.0449693 1.44519e-08 7.38715e-15)
(0.0449692 2.06902e-08 7.3931e-15)
(0.0449691 2.4615e-08 7.47955e-15)
(0.0449689 2.64895e-08 7.51729e-15)
(0.0449687 2.63645e-08 7.53473e-15)
(0.0449686 2.49036e-08 7.635e-15)
(0.0449684 2.29046e-08 7.21357e-15)
(0.0449683 2.0676e-08 7.27947e-15)
(0.0449682 1.82039e-08 6.98664e-15)
(0.0449681 1.57443e-08 6.91989e-15)
(0.044968 1.32553e-08 7.30626e-15)
(0.0449679 1.05693e-08 7.01502e-15)
(0.0449679 8.13683e-09 7.05379e-15)
(0.0449678 5.77059e-09 6.71922e-15)
(0.0449678 3.34312e-09 6.65123e-15)
(0.0449678 1.13867e-09 6.94633e-15)
(0.0449678 -9.04755e-10 7.01745e-15)
(0.0449678 -2.88161e-09 7.06587e-15)
(0.0449678 -4.69459e-09 6.91586e-15)
(0.0449679 -6.20425e-09 6.80881e-15)
(0.0449679 -7.40406e-09 7.09413e-15)
(0.0449679 -8.64967e-09 6.84617e-15)
(0.044968 -9.9162e-09 6.82261e-15)
(0.0449681 -1.0844e-08 6.64346e-15)
(0.0449681 -1.15936e-08 6.66252e-15)
(0.0449682 -1.24044e-08 6.98639e-15)
(0.0449683 -1.30338e-08 6.80027e-15)
(0.0449684 -1.34434e-08 6.83814e-15)
(0.0449685 -1.38633e-08 6.69221e-15)
(0.0449685 -1.4304e-08 6.58461e-15)
(0.0449686 -1.46002e-08 6.86453e-15)
(0.0449687 -1.47429e-08 6.79274e-15)
(0.0449688 -1.49164e-08 6.81006e-15)
(0.0449689 -1.49679e-08 6.6997e-15)
(0.044969 -1.4954e-08 6.59854e-15)
(0.0449691 -1.4125e-08 6.64754e-15)
(0.0449692 -1.29421e-08 7.0443e-15)
(0.0449693 -1.13334e-08 7.04622e-15)
(0.0449693 -9.4043e-09 7.16467e-15)
(0.0449694 -6.82853e-09 7.08013e-15)
(0.0449694 -3.25973e-09 7.06364e-15)
(0.0449695 -1.06272e-09 7.25303e-15)
(0.0449695 -1.57547e-10 7.37669e-15)
(0.0449695 -2.76572e-10 7.33722e-15)
(0.0449695 -1.04052e-09 7.37681e-15)
(0.0449695 -1.80942e-09 7.30627e-15)
(0.0449695 -2.64274e-09 7.54232e-15)
(0.0449696 -3.36448e-09 7.55406e-15)
(0.0449696 -3.88142e-09 7.85751e-15)
(0.0449696 -4.20411e-09 7.68228e-15)
(0.0449696 -4.35672e-09 7.47363e-15)
(0.0449697 -4.17967e-09 7.88181e-15)
(0.0449697 -3.68003e-09 7.64164e-15)
(0.0449697 -2.94324e-09 7.94056e-15)
(0.0449697 -2.0689e-09 7.87703e-15)
(0.0449697 -1.01522e-09 7.68082e-15)
(0.0449697 2.28266e-10 8.02389e-15)
(0.0449697 1.48246e-09 7.92048e-15)
(0.0449697 2.65953e-09 8.16593e-15)
(0.0449696 3.73823e-09 8.01661e-15)
(0.0449696 4.68375e-09 7.81695e-15)
(0.0449696 5.61246e-09 8.11152e-15)
(0.0449695 6.40563e-09 7.96374e-15)
(0.0449695 6.87824e-09 8.30794e-15)
(0.0449695 7.23426e-09 8.122e-15)
(0.0449694 7.42494e-09 7.85841e-15)
(0.0449694 7.62092e-09 8.30234e-15)
(0.0449693 7.77539e-09 8.04567e-15)
(0.0449693 7.70063e-09 8.26144e-15)
(0.0449692 7.66304e-09 8.1607e-15)
(0.0449692 7.52373e-09 8.02223e-15)
(0.0449691 7.1364e-09 8.16711e-15)
(0.0449691 6.58748e-09 8.16693e-15)
(0.044969 6.1457e-09 8.44363e-15)
(0.044969 5.81247e-09 8.22412e-15)
(0.0449689 5.39942e-09 8.70306e-15)
(0.0449689 5.03099e-09 8.06485e-15)
(0.0449689 4.70903e-09 7.98471e-15)
(0.0449688 4.19672e-09 8.21612e-15)
(0.0449688 3.56619e-09 7.68749e-15)
(0.0449688 2.75712e-09 8.28516e-15)
(0.0449688 1.71171e-09 7.71603e-15)
(0.0449688 1.01456e-09 7.88216e-15)
(0.0449688 7.10722e-10 8.06176e-15)
(0.0449688 6.23042e-10 7.67888e-15)
(0.0449687 7.56477e-10 8.14707e-15)
(0.0449687 7.38678e-10 7.67283e-15)
(0.0449687 5.97041e-10 7.73079e-15)
(0.0449687 3.60048e-10 8.05869e-15)
(0.0449687 -3.83394e-11 7.58389e-15)
(0.0449687 -4.61274e-10 8.13945e-15)
(0.0449687 -9.77814e-10 7.51211e-15)
(0.0449687 -1.49494e-09 7.66594e-15)
(0.0449687 -1.95866e-09 7.97181e-15)
(0.0449688 -2.21086e-09 7.40832e-15)
(0.0449688 -2.46103e-09 8.13706e-15)
(0.0449688 -2.02423e-09 7.43337e-15)
(0.0449688 -1.45992e-09 7.791e-15)
(0.0449688 7.68851e-11 8.04757e-15)
(0.0449688 2.29914e-09 7.65996e-15)
(0.0449688 2.96371e-09 7.96684e-15)
(0.0449688 2.70175e-09 7.64875e-15)
(0.0449688 1.57032e-09 7.75084e-15)
(0.0449688 -2.35632e-12 7.95133e-15)
(0.0449688 -1.61236e-09 7.64758e-15)
(0.0449688 -3.13108e-09 7.91244e-15)
(0.0449689 -4.33373e-09 7.96716e-15)
(0.0449689 -5.3282e-09 7.92857e-15)
(0.0449689 -6.11965e-09 8.04123e-15)
(0.044969 -6.7556e-09 7.69529e-15)
(0.044969 -6.7113e-09 8.00867e-15)
(0.044969 -5.66466e-09 8.02056e-15)
(0.0449691 -5.85708e-09 7.9549e-15)
(0.0449691 -8.87843e-10 8.08514e-15)
(0.0449691 -1.89516e-09 7.77759e-15)
(0.0524544 -2.24349e-08 9.33683e-15)
(0.0524545 -2.66042e-08 9.09655e-15)
(0.0524546 -1.84925e-08 9.0533e-15)
(0.0524546 -4.39802e-09 8.9798e-15)
(0.0524545 9.72722e-09 8.8871e-15)
(0.0524544 2.1037e-08 8.81854e-15)
(0.0524543 2.90158e-08 8.81044e-15)
(0.0524541 3.40189e-08 8.86967e-15)
(0.052454 3.62902e-08 8.91163e-15)
(0.0524538 3.59915e-08 8.91419e-15)
(0.0524536 3.40274e-08 9.00271e-15)
(0.0524535 3.12985e-08 8.52087e-15)
(0.0524533 2.82374e-08 8.57628e-15)
(0.0524532 2.48234e-08 8.22811e-15)
(0.0524531 2.14175e-08 8.20399e-15)
(0.052453 1.7994e-08 8.79927e-15)
(0.0524529 1.43467e-08 8.10268e-15)
(0.0524529 1.09808e-08 8.30418e-15)
(0.0524528 7.73615e-09 7.65468e-15)
(0.0524528 4.48497e-09 7.92865e-15)
(0.0524528 1.47443e-09 7.99016e-15)
(0.0524528 -1.39581e-09 8.31912e-15)
(0.0524528 -4.11695e-09 8.35576e-15)
(0.0524529 -6.50966e-09 8.05136e-15)
(0.0524529 -8.53924e-09 8.18385e-15)
(0.0524529 -1.02293e-08 8.25021e-15)
(0.052453 -1.19415e-08 7.93269e-15)
(0.0524531 -1.36679e-08 8.00161e-15)
(0.0524531 -1.49726e-08 7.7638e-15)
(0.0524532 -1.59987e-08 8.00947e-15)
(0.0524533 -1.70461e-08 8.13939e-15)
(0.0524534 -1.78732e-08 7.87594e-15)
(0.0524534 -1.84687e-08 7.98534e-15)
(0.0524535 -1.9081e-08 7.82399e-15)
(0.0524536 -1.96848e-08 8.004e-15)
(0.0524537 -2.00987e-08 8.02703e-15)
(0.0524538 -2.03571e-08 7.83867e-15)
(0.0524539 -2.0593e-08 7.96612e-15)
(0.052454 -2.06497e-08 7.67468e-15)
(0.0524541 -2.06289e-08 7.99051e-15)
(0.0524542 -1.96053e-08 7.9456e-15)
(0.0524543 -1.81573e-08 8.28889e-15)
(0.0524544 -1.60708e-08 8.3252e-15)
(0.0524545 -1.35275e-08 8.35939e-15)
(0.0524546 -1.01367e-08 8.32684e-15)
(0.0524546 -5.46802e-09 8.28043e-15)
(0.0524547 -2.46645e-09 8.63301e-15)
(0.0524547 -1.07613e-09 8.66128e-15)
(0.0524547 -9.89406e-10 8.69125e-15)
(0.0524547 -1.81499e-09 8.64236e-15)
(0.0524547 -2.74753e-09 8.54803e-15)
(0.0524547 -3.76704e-09 8.95637e-15)
(0.0524548 -4.66883e-09 8.8344e-15)
(0.0524548 -5.2918e-09 9.13462e-15)
(0.0524548 -5.66757e-09 9.06443e-15)
(0.0524548 -5.7942e-09 8.67499e-15)
(0.0524549 -5.4618e-09 9.01164e-15)
(0.0524549 -4.73144e-09 8.97153e-15)
(0.0524549 -3.72243e-09 9.26851e-15)
(0.0524549 -2.49502e-09 9.24258e-15)
(0.0524549 -9.74537e-10 8.9057e-15)
(0.0524549 7.33141e-10 9.34545e-15)
(0.0524549 2.39768e-09 9.26458e-15)
(0.0524549 3.97607e-09 9.49995e-15)
(0.0524548 5.44206e-09 9.43718e-15)
(0.0524548 6.73768e-09 9.05841e-15)
(0.0524548 7.98098e-09 9.43496e-15)
(0.0524547 9.02037e-09 9.32932e-15)
(0.0524547 9.64594e-09 9.66571e-15)
(0.0524546 1.01185e-08 9.54637e-15)
(0.0524546 1.04176e-08 9.12488e-15)
(0.0524545 1.06915e-08 9.52641e-15)
(0.0524545 1.08604e-08 9.39751e-15)
(0.0524544 1.07468e-08 9.61727e-15)
(0.0524544 1.06531e-08 9.59898e-15)
(0.0524543 1.04177e-08 9.27699e-15)
(0.0524543 9.89936e-09 9.66556e-15)
(0.0524542 9.18383e-09 9.54537e-15)
(0.0524542 8.59943e-09 9.8305e-15)
(0.0524541 8.16087e-09 9.65798e-15)
(0.0524541 7.60021e-09 1.01278e-14)
(0.052454 7.07937e-09 9.64641e-15)
(0.052454 6.61398e-09 9.41981e-15)
(0.052454 5.93081e-09 9.74775e-15)
(0.0524539 5.06121e-09 9.36422e-15)
(0.0524539 4.00948e-09 9.62814e-15)