/*--------------------------------*- C++ -*----------------------------------*\
  =========                 |
  \\      /  F ield         | OpenFOAM: The Open Source CFD Toolbox
   \\    /   O peration     | Website:  https://openfoam.org
    \\  /    A nd           | Version:  7
     \\/     M anipulation  |
\*---------------------------------------------------------------------------*/
FoamFile
{
    version     2.0;
    format      ascii;
    class       volScalarField;
    location    "3500";
    object      k;
}
// * * * * * * * * * * * * * * * * * * * * * * * * * * * * * * * * * * * * * //

dimensions      [0 2 -2 0 0 0 0];

internalField   nonuniform List<scalar> 
3974
(
0.000183856
0.000183856
0.000183856
0.000183857
0.000183857
0.000183857
0.000183857
0.000183857
0.000183857
0.000183857
0.000183857
0.000183857
0.000183857
0.000183857
0.000183857
0.000183857
0.000183857
0.000183857
0.000183857
0.000183857
0.000183856
0.000183856
0.000183856
0.000183856
0.000183856
0.000183856
0.000183856
0.000183855
0.000183855
0.000183855
0.000183855
0.000183854
0.000183854
0.000183854
0.000183854
0.000183853
0.000183853
0.000183853
0.000183352
0.000183352
0.000183354
0.000183355
0.000183355
0.000183356
0.000183356
0.000183356
0.000183356
0.000183357
0.000183357
0.000183357
0.000183357
0.000183357
0.000183357
0.000183357
0.000183357
0.000183357
0.000183357
0.000183357
0.000183357
0.000183357
0.000183357
0.000183357
0.000183357
0.000183356
0.000183356
0.000183356
0.000183356
0.000183356
0.000183356
0.000183355
0.000183355
0.000183355
0.000183354
0.000183354
0.000183354
0.000183354
0.000183353
0.000183353
0.00018335
0.000183349
0.000182754
0.000182754
0.000182755
0.000182756
0.000182757
0.000182758
0.000182758
0.000182759
0.000182759
0.00018276
0.00018276
0.00018276
0.00018276
0.000182761
0.000182761
0.000182761
0.000182761
0.000182761
0.000182761
0.000182761
0.000182761
0.000182761
0.000182761
0.000182761
0.000182761
0.000182761
0.000182761
0.000182761
0.000182761
0.00018276
0.00018276
0.00018276
0.00018276
0.00018276
0.000182759
0.000182759
0.000182759
0.000182758
0.000182758
0.000182758
0.000182757
0.000182757
0.000182756
0.000182755
0.000182752
0.00018275
0.000182749
0.000182749
0.000182748
0.000182748
0.000182747
0.000182747
0.000182747
0.000182746
0.000182746
0.000182746
0.000182746
0.000182745
0.000182745
0.000182067
0.000182066
0.000182067
0.000182068
0.000182069
0.000182069
0.00018207
0.000182071
0.000182071
0.000182072
0.000182072
0.000182072
0.000182073
0.000182073
0.000182073
0.000182073
0.000182073
0.000182074
0.000182074
0.000182074
0.000182074
0.000182074
0.000182074
0.000182074
0.000182074
0.000182074
0.000182074
0.000182073
0.000182073
0.000182073
0.000182073
0.000182073
0.000182073
0.000182072
0.000182072
0.000182072
0.000182071
0.000182071
0.000182071
0.00018207
0.00018207
0.00018207
0.000182069
0.000182068
0.000182066
0.000182064
0.000182063
0.000182063
0.000182062
0.000182061
0.000182061
0.00018206
0.00018206
0.00018206
0.000182059
0.000182059
0.000182059
0.000182058
0.000182059
0.000181292
0.000181291
0.000181292
0.000181292
0.000181293
0.000181294
0.000181295
0.000181295
0.000181296
0.000181296
0.000181297
0.000181297
0.000181297
0.000181298
0.000181298
0.000181298
0.000181298
0.000181299
0.000181299
0.000181299
0.000181299
0.000181299
0.000181299
0.000181299
0.000181299
0.000181299
0.000181299
0.000181299
0.000181298
0.000181298
0.000181298
0.000181298
0.000181298
0.000181298
0.000181297
0.000181297
0.000181297
0.000181296
0.000181296
0.000181296
0.000181295
0.000181295
0.000181294
0.000181294
0.000181292
0.000181291
0.00018129
0.000181289
0.000181288
0.000181287
0.000181287
0.000181286
0.000181286
0.000181285
0.000181285
0.000181285
0.000181284
0.000181284
0.000181284
0.000180433
0.000180433
0.000180433
0.000180433
0.000180434
0.000180435
0.000180435
0.000180436
0.000180436
0.000180437
0.000180437
0.000180438
0.000180438
0.000180439
0.000180439
0.000180439
0.000180439
0.00018044
0.00018044
0.00018044
0.00018044
0.00018044
0.00018044
0.00018044
0.00018044
0.00018044
0.00018044
0.00018044
0.00018044
0.00018044
0.000180439
0.000180439
0.000180439
0.000180439
0.000180438
0.000180438
0.000180438
0.000180438
0.000180437
0.000180437
0.000180436
0.000180436
0.000180436
0.000180435
0.000180434
0.000180433
0.000180432
0.000180431
0.00018043
0.000180429
0.000180429
0.000180428
0.000180428
0.000180427
0.000180427
0.000180426
0.000180426
0.000180425
0.000180425
0.000179493
0.000179493
0.000179493
0.000179493
0.000179494
0.000179494
0.000179495
0.000179496
0.000179496
0.000179497
0.000179497
0.000179498
0.000179498
0.000179499
0.000179499
0.000179499
0.000179499
0.0001795
0.0001795
0.0001795
0.0001795
0.0001795
0.0001795
0.0001795
0.0001795
0.0001795
0.0001795
0.0001795
0.0001795
0.0001795
0.0001795
0.0001795
0.000179499
0.000179499
0.000179499
0.000179499
0.000179498
0.000179498
0.000179498
0.000179497
0.000179497
0.000179496
0.000179496
0.000179495
0.000179495
0.000179494
0.000179493
0.000179492
0.000179491
0.00017949
0.000179489
0.000179489
0.000179488
0.000179488
0.000179487
0.000179487
0.000179486
0.000179486
0.000179486
0.000178475
0.000178475
0.000178475
0.000178475
0.000178476
0.000178476
0.000178477
0.000178477
0.000178478
0.000178478
0.000178479
0.000178479
0.00017848
0.00017848
0.000178481
0.000178481
0.000178481
0.000178482
0.000178482
0.000178482
0.000178482
0.000178482
0.000178482
0.000178482
0.000178482
0.000178482
0.000178482
0.000178482
0.000178482
0.000178482
0.000178482
0.000178482
0.000178481
0.000178481
0.000178481
0.000178481
0.00017848
0.00017848
0.00017848
0.000178479
0.000178479
0.000178478
0.000178478
0.000178478
0.000178477
0.000178476
0.000178475
0.000178474
0.000178473
0.000178473
0.000178472
0.000178471
0.000178471
0.00017847
0.000178469
0.000178469
0.000178468
0.000178468
0.000178468
0.000177381
0.000177381
0.000177381
0.000177381
0.000177382
0.000177382
0.000177383
0.000177383
0.000177384
0.000177385
0.000177385
0.000177386
0.000177386
0.000177387
0.000177387
0.000177387
0.000177388
0.000177388
0.000177388
0.000177389
0.000177389
0.000177389
0.000177389
0.000177389
0.000177389
0.000177389
0.000177389
0.000177389
0.000177389
0.000177389
0.000177388
0.000177388
0.000177388
0.000177388
0.000177388
0.000177387
0.000177387
0.000177387
0.000177386
0.000177386
0.000177385
0.000177385
0.000177385
0.000177384
0.000177384
0.000177383
0.000177382
0.000177381
0.00017738
0.000177379
0.000177379
0.000177378
0.000177377
0.000177377
0.000177376
0.000177375
0.000177375
0.000177374
0.000177374
0.000176214
0.000176214
0.000176214
0.000176215
0.000176215
0.000176215
0.000176216
0.000176216
0.000176217
0.000176218
0.000176218
0.000176219
0.000176219
0.00017622
0.00017622
0.00017622
0.000176221
0.000176221
0.000176221
0.000176222
0.000176222
0.000176222
0.000176222
0.000176222
0.000176222
0.000176222
0.000176222
0.000176222
0.000176222
0.000176222
0.000176222
0.000176222
0.000176221
0.000176221
0.000176221
0.000176221
0.00017622
0.00017622
0.00017622
0.000176219
0.000176219
0.000176218
0.000176218
0.000176217
0.000176217
0.000176216
0.000176215
0.000176215
0.000176214
0.000176213
0.000176212
0.000176212
0.000176211
0.00017621
0.000176209
0.000176209
0.000176208
0.000176207
0.000176207
0.000174976
0.000174976
0.000174976
0.000174976
0.000174977
0.000174977
0.000174978
0.000174978
0.000174979
0.000174979
0.00017498
0.000174981
0.000174981
0.000174982
0.000174982
0.000174982
0.000174983
0.000174983
0.000174984
0.000174984
0.000174984
0.000174984
0.000174984
0.000174984
0.000174984
0.000174984
0.000174984
0.000174984
0.000174984
0.000174984
0.000174984
0.000174984
0.000174984
0.000174983
0.000174983
0.000174983
0.000174983
0.000174982
0.000174982
0.000174982
0.000174981
0.000174981
0.00017498
0.00017498
0.000174979
0.000174979
0.000174978
0.000174977
0.000174976
0.000174975
0.000174975
0.000174974
0.000174973
0.000174972
0.000174972
0.000174971
0.00017497
0.00017497
0.00017497
0.000173669
0.000173669
0.000173669
0.000173669
0.00017367
0.00017367
0.000173671
0.000173671
0.000173672
0.000173672
0.000173673
0.000173673
0.000173674
0.000173675
0.000173675
0.000173675
0.000173676
0.000173676
0.000173677
0.000173677
0.000173677
0.000173677
0.000173677
0.000173678
0.000173678
0.000173678
0.000173678
0.000173678
0.000173678
0.000173677
0.000173677
0.000173677
0.000173677
0.000173677
0.000173676
0.000173676
0.000173676
0.000173676
0.000173675
0.000173675
0.000173674
0.000173674
0.000173673
0.000173673
0.000173672
0.000173672
0.000173671
0.000173671
0.00017367
0.000173669
0.000173668
0.000173667
0.000173667
0.000173666
0.000173665
0.000173664
0.000173664
0.000173663
0.000173663
0.000172295
0.000172295
0.000172295
0.000172296
0.000172296
0.000172296
0.000172297
0.000172297
0.000172298
0.000172298
0.000172299
0.0001723
0.0001723
0.000172301
0.000172301
0.000172302
0.000172302
0.000172302
0.000172303
0.000172303
0.000172303
0.000172304
0.000172304
0.000172304
0.000172304
0.000172304
0.000172304
0.000172304
0.000172304
0.000172304
0.000172304
0.000172304
0.000172303
0.000172303
0.000172303
0.000172303
0.000172302
0.000172302
0.000172302
0.000172301
0.000172301
0.0001723
0.0001723
0.000172299
0.000172299
0.000172298
0.000172298
0.000172297
0.000172296
0.000172296
0.000172295
0.000172294
0.000172293
0.000172292
0.000172292
0.000172291
0.00017229
0.000172289
0.000172289
0.000170856
0.000170856
0.000170856
0.000170857
0.000170857
0.000170858
0.000170858
0.000170859
0.000170859
0.00017086
0.00017086
0.000170861
0.000170861
0.000170862
0.000170863
0.000170863
0.000170863
0.000170864
0.000170864
0.000170865
0.000170865
0.000170865
0.000170865
0.000170865
0.000170866
0.000170866
0.000170866
0.000170866
0.000170865
0.000170865
0.000170865
0.000170865
0.000170865
0.000170865
0.000170864
0.000170864
0.000170864
0.000170864
0.000170863
0.000170863
0.000170863
0.000170862
0.000170862
0.000170861
0.000170861
0.00017086
0.000170859
0.000170859
0.000170858
0.000170857
0.000170857
0.000170856
0.000170855
0.000170854
0.000170853
0.000170853
0.000170852
0.000170851
0.000170851
0.000169355
0.000169355
0.000169355
0.000169355
0.000169356
0.000169356
0.000169357
0.000169357
0.000169358
0.000169358
0.000169359
0.00016936
0.00016936
0.000169361
0.000169361
0.000169362
0.000169362
0.000169363
0.000169363
0.000169363
0.000169364
0.000169364
0.000169364
0.000169364
0.000169364
0.000169364
0.000169364
0.000169364
0.000169364
0.000169364
0.000169364
0.000169364
0.000169364
0.000169364
0.000169363
0.000169363
0.000169363
0.000169363
0.000169362
0.000169362
0.000169361
0.000169361
0.000169361
0.00016936
0.00016936
0.000169359
0.000169358
0.000169358
0.000169357
0.000169356
0.000169356
0.000169355
0.000169354
0.000169353
0.000169353
0.000169352
0.000169351
0.00016935
0.00016935
0.000167793
0.000167793
0.000167793
0.000167793
0.000167794
0.000167795
0.000167795
0.000167795
0.000167796
0.000167797
0.000167797
0.000167798
0.000167798
0.000167799
0.000167799
0.0001678
0.0001678
0.000167801
0.000167801
0.000167801
0.000167802
0.000167802
0.000167802
0.000167802
0.000167803
0.000167803
0.000167803
0.000167803
0.000167803
0.000167802
0.000167802
0.000167802
0.000167802
0.000167802
0.000167802
0.000167801
0.000167801
0.000167801
0.000167801
0.0001678
0.0001678
0.000167799
0.000167799
0.000167798
0.000167798
0.000167797
0.000167797
0.000167796
0.000167796
0.000167795
0.000167794
0.000167793
0.000167793
0.000167792
0.000167791
0.00016779
0.00016779
0.000167789
0.000167788
0.000166173
0.000166172
0.000166173
0.000166173
0.000166174
0.000166174
0.000166175
0.000166175
0.000166176
0.000166176
0.000166177
0.000166177
0.000166178
0.000166178
0.000166179
0.000166179
0.00016618
0.00016618
0.000166181
0.000166181
0.000166181
0.000166182
0.000166182
0.000166182
0.000166182
0.000166182
0.000166183
0.000166183
0.000166182
0.000166182
0.000166182
0.000166182
0.000166182
0.000166182
0.000166182
0.000166181
0.000166181
0.000166181
0.000166181
0.00016618
0.00016618
0.000166179
0.000166179
0.000166179
0.000166178
0.000166178
0.000166177
0.000166176
0.000166176
0.000166175
0.000166174
0.000166174
0.000166173
0.000166172
0.000166171
0.000166171
0.00016617
0.000166169
0.000166169
0.000164496
0.000164496
0.000164496
0.000164497
0.000164497
0.000164498
0.000164499
0.000164499
0.000164499
0.0001645
0.000164501
0.000164501
0.000164502
0.000164502
0.000164503
0.000164503
0.000164504
0.000164504
0.000164505
0.000164505
0.000164505
0.000164506
0.000164506
0.000164506
0.000164506
0.000164506
0.000164506
0.000164506
0.000164506
0.000164506
0.000164506
0.000164506
0.000164506
0.000164506
0.000164506
0.000164505
0.000164505
0.000164505
0.000164505
0.000164504
0.000164504
0.000164503
0.000164503
0.000164503
0.000164502
0.000164502
0.000164501
0.0001645
0.0001645
0.000164499
0.000164499
0.000164498
0.000164497
0.000164496
0.000164496
0.000164495
0.000164494
0.000164493
0.000164493
0.000162766
0.000162766
0.000162766
0.000162767
0.000162768
0.000162768
0.000162769
0.000162769
0.00016277
0.00016277
0.000162771
0.000162771
0.000162772
0.000162772
0.000162773
0.000162773
0.000162774
0.000162774
0.000162775
0.000162775
0.000162775
0.000162776
0.000162776
0.000162776
0.000162776
0.000162777
0.000162777
0.000162777
0.000162777
0.000162777
0.000162777
0.000162776
0.000162776
0.000162776
0.000162776
0.000162776
0.000162775
0.000162775
0.000162775
0.000162775
0.000162774
0.000162774
0.000162774
0.000162773
0.000162773
0.000162772
0.000162772
0.000162771
0.00016277
0.00016277
0.000162769
0.000162768
0.000162768
0.000162767
0.000162766
0.000162765
0.000162765
0.000162764
0.000162764
0.000160985
0.000160985
0.000160985
0.000160986
0.000160987
0.000160987
0.000160988
0.000160988
0.000160989
0.000160989
0.00016099
0.000160991
0.000160991
0.000160992
0.000160992
0.000160993
0.000160993
0.000160994
0.000160994
0.000160994
0.000160995
0.000160995
0.000160995
0.000160996
0.000160996
0.000160996
0.000160996
0.000160996
0.000160996
0.000160996
0.000160996
0.000160996
0.000160996
0.000160995
0.000160995
0.000160995
0.000160995
0.000160995
0.000160994
0.000160994
0.000160994
0.000160993
0.000160993
0.000160993
0.000160992
0.000160992
0.000160991
0.000160991
0.00016099
0.000160989
0.000160989
0.000160988
0.000160987
0.000160987
0.000160986
0.000160985
0.000160984
0.000160984
0.000160983
0.000159156
0.000159156
0.000159156
0.000159157
0.000159158
0.000159158
0.000159159
0.000159159
0.00015916
0.00015916
0.000159161
0.000159161
0.000159162
0.000159163
0.000159163
0.000159164
0.000159164
0.000159164
0.000159165
0.000159165
0.000159166
0.000159166
0.000159166
0.000159166
0.000159167
0.000159167
0.000159167
0.000159167
0.000159167
0.000159167
0.000159167
0.000159167
0.000159167
0.000159167
0.000159166
0.000159166
0.000159166
0.000159166
0.000159166
0.000159165
0.000159165
0.000159165
0.000159164
0.000159164
0.000159163
0.000159163
0.000159162
0.000159162
0.000159161
0.000159161
0.00015916
0.00015916
0.000159159
0.000159158
0.000159157
0.000159157
0.000159156
0.000159155
0.000159155
0.000157282
0.000157281
0.000157282
0.000157282
0.000157283
0.000157284
0.000157284
0.000157285
0.000157285
0.000157286
0.000157286
0.000157287
0.000157288
0.000157288
0.000157289
0.000157289
0.00015729
0.00015729
0.00015729
0.000157291
0.000157291
0.000157291
0.000157292
0.000157292
0.000157292
0.000157292
0.000157293
0.000157293
0.000157293
0.000157293
0.000157293
0.000157292
0.000157292
0.000157292
0.000157292
0.000157292
0.000157292
0.000157291
0.000157291
0.000157291
0.000157291
0.00015729
0.00015729
0.00015729
0.000157289
0.000157289
0.000157288
0.000157288
0.000157287
0.000157287
0.000157286
0.000157285
0.000157285
0.000157284
0.000157283
0.000157283
0.000157282
0.000157281
0.000157281
0.000155365
0.000155364
0.000155365
0.000155365
0.000155366
0.000155367
0.000155367
0.000155368
0.000155368
0.000155369
0.00015537
0.00015537
0.000155371
0.000155371
0.000155372
0.000155372
0.000155373
0.000155373
0.000155373
0.000155374
0.000155374
0.000155375
0.000155375
0.000155375
0.000155375
0.000155376
0.000155376
0.000155376
0.000155376
0.000155376
0.000155376
0.000155376
0.000155376
0.000155375
0.000155375
0.000155375
0.000155375
0.000155375
0.000155375
0.000155374
0.000155374
0.000155374
0.000155373
0.000155373
0.000155373
0.000155372
0.000155372
0.000155371
0.000155371
0.00015537
0.00015537
0.000155369
0.000155368
0.000155368
0.000155367
0.000155366
0.000155366
0.000155365
0.000155365
0.000153409
0.000153408
0.000153408
0.000153409
0.00015341
0.000153411
0.000153411
0.000153412
0.000153412
0.000153413
0.000153413
0.000153414
0.000153414
0.000153415
0.000153415
0.000153416
0.000153416
0.000153417
0.000153417
0.000153418
0.000153418
0.000153418
0.000153419
0.000153419
0.000153419
0.000153419
0.000153419
0.00015342
0.00015342
0.00015342
0.00015342
0.00015342
0.000153419
0.000153419
0.000153419
0.000153419
0.000153419
0.000153419
0.000153419
0.000153418
0.000153418
0.000153418
0.000153417
0.000153417
0.000153417
0.000153416
0.000153416
0.000153416
0.000153415
0.000153415
0.000153414
0.000153413
0.000153413
0.000153412
0.000153412
0.000153411
0.00015341
0.000153409
0.000153409
0.000151416
0.000151416
0.000151416
0.000151417
0.000151418
0.000151418
0.000151419
0.00015142
0.00015142
0.000151421
0.000151421
0.000151422
0.000151422
0.000151423
0.000151423
0.000151424
0.000151424
0.000151425
0.000151425
0.000151425
0.000151426
0.000151426
0.000151426
0.000151427
0.000151427
0.000151427
0.000151427
0.000151427
0.000151428
0.000151428
0.000151428
0.000151427
0.000151427
0.000151427
0.000151427
0.000151427
0.000151427
0.000151427
0.000151427
0.000151426
0.000151426
0.000151426
0.000151426
0.000151425
0.000151425
0.000151425
0.000151424
0.000151424
0.000151423
0.000151423
0.000151422
0.000151422
0.000151421
0.000151421
0.00015142
0.000151419
0.000151419
0.000151418
0.000151418
0.000149392
0.000149391
0.000149391
0.000149392
0.000149393
0.000149394
0.000149394
0.000149395
0.000149395
0.000149396
0.000149396
0.000149397
0.000149397
0.000149398
0.000149399
0.000149399
0.000149399
0.0001494
0.0001494
0.000149401
0.000149401
0.000149401
0.000149402
0.000149402
0.000149402
0.000149402
0.000149403
0.000149403
0.000149403
0.000149403
0.000149403
0.000149403
0.000149403
0.000149403
0.000149403
0.000149402
0.000149402
0.000149402
0.000149402
0.000149402
0.000149402
0.000149401
0.000149401
0.000149401
0.000149401
0.0001494
0.0001494
0.000149399
0.000149399
0.000149399
0.000149398
0.000149397
0.000149397
0.000149396
0.000149396
0.000149395
0.000149395
0.000149394
0.000149394
0.000147338
0.000147337
0.000147338
0.000147338
0.000147339
0.00014734
0.00014734
0.000147341
0.000147342
0.000147342
0.000147343
0.000147343
0.000147344
0.000147344
0.000147345
0.000147345
0.000147346
0.000147346
0.000147347
0.000147347
0.000147347
0.000147348
0.000147348
0.000147348
0.000147349
0.000147349
0.000147349
0.000147349
0.000147349
0.000147349
0.000147349
0.000147349
0.000147349
0.000147349
0.000147349
0.000147349
0.000147349
0.000147349
0.000147348
0.000147348
0.000147348
0.000147348
0.000147348
0.000147347
0.000147347
0.000147347
0.000147346
0.000147346
0.000147346
0.000147345
0.000147345
0.000147344
0.000147344
0.000147343
0.000147343
0.000147342
0.000147341
0.000147341
0.000147341
0.000145259
0.000145258
0.000145259
0.000145259
0.00014526
0.000145261
0.000145261
0.000145262
0.000145262
0.000145263
0.000145263
0.000145264
0.000145265
0.000145265
0.000145266
0.000145266
0.000145267
0.000145267
0.000145267
0.000145268
0.000145268
0.000145269
0.000145269
0.000145269
0.000145269
0.00014527
0.00014527
0.00014527
0.00014527
0.00014527
0.00014527
0.00014527
0.00014527
0.00014527
0.00014527
0.00014527
0.00014527
0.00014527
0.000145269
0.000145269
0.000145269
0.000145269
0.000145269
0.000145269
0.000145268
0.000145268
0.000145268
0.000145267
0.000145267
0.000145267
0.000145266
0.000145266
0.000145265
0.000145265
0.000145264
0.000145264
0.000145263
0.000145262
0.000145262
0.000143158
0.000143157
0.000143158
0.000143158
0.000143159
0.00014316
0.000143161
0.000143161
0.000143162
0.000143162
0.000143163
0.000143163
0.000143164
0.000143164
0.000143165
0.000143165
0.000143166
0.000143166
0.000143167
0.000143167
0.000143167
0.000143168
0.000143168
0.000143168
0.000143169
0.000143169
0.000143169
0.000143169
0.000143169
0.000143169
0.000143169
0.000143169
0.000143169
0.000143169
0.000143169
0.000143169
0.000143169
0.000143169
0.000143169
0.000143169
0.000143169
0.000143168
0.000143168
0.000143168
0.000143168
0.000143168
0.000143167
0.000143167
0.000143167
0.000143166
0.000143166
0.000143165
0.000143165
0.000143164
0.000143164
0.000143163
0.000143163
0.000143162
0.000143162
0.00014104
0.000141039
0.000141039
0.00014104
0.000141041
0.000141041
0.000141042
0.000141042
0.000141043
0.000141044
0.000141044
0.000141045
0.000141045
0.000141046
0.000141046
0.000141047
0.000141047
0.000141048
0.000141048
0.000141048
0.000141049
0.000141049
0.000141049
0.00014105
0.00014105
0.00014105
0.00014105
0.000141051
0.000141051
0.000141051
0.000141051
0.000141051
0.000141051
0.000141051
0.000141051
0.000141051
0.000141051
0.000141051
0.000141051
0.00014105
0.00014105
0.00014105
0.00014105
0.00014105
0.00014105
0.000141049
0.000141049
0.000141049
0.000141048
0.000141048
0.000141048
0.000141047
0.000141047
0.000141046
0.000141046
0.000141046
0.000141045
0.000141044
0.000141044
0.000138907
0.000138906
0.000138907
0.000138907
0.000138908
0.000138909
0.000138909
0.00013891
0.000138911
0.000138911
0.000138912
0.000138912
0.000138913
0.000138913
0.000138914
0.000138914
0.000138915
0.000138915
0.000138916
0.000138916
0.000138916
0.000138917
0.000138917
0.000138917
0.000138918
0.000138918
0.000138918
0.000138918
0.000138918
0.000138918
0.000138919
0.000138919
0.000138919
0.000138919
0.000138918
0.000138918
0.000138918
0.000138918
0.000138918
0.000138918
0.000138918
0.000138918
0.000138918
0.000138918
0.000138917
0.000138917
0.000138917
0.000138917
0.000138916
0.000138916
0.000138916
0.000138915
0.000138915
0.000138915
0.000138914
0.000138914
0.000138913
0.000138913
0.000138913
0.000136765
0.000136764
0.000136764
0.000136765
0.000136766
0.000136766
0.000136767
0.000136768
0.000136768
0.000136769
0.000136769
0.00013677
0.00013677
0.000136771
0.000136771
0.000136772
0.000136772
0.000136773
0.000136773
0.000136773
0.000136774
0.000136774
0.000136775
0.000136775
0.000136775
0.000136775
0.000136776
0.000136776
0.000136776
0.000136776
0.000136776
0.000136776
0.000136776
0.000136776
0.000136776
0.000136776
0.000136776
0.000136776
0.000136776
0.000136776
0.000136776
0.000136776
0.000136776
0.000136775
0.000136775
0.000136775
0.000136775
0.000136775
0.000136774
0.000136774
0.000136774
0.000136773
0.000136773
0.000136773
0.000136772
0.000136772
0.000136771
0.000136771
0.000136771
0.000134617
0.000134615
0.000134616
0.000134616
0.000134617
0.000134618
0.000134618
0.000134619
0.00013462
0.00013462
0.000134621
0.000134621
0.000134622
0.000134622
0.000134623
0.000134623
0.000134624
0.000134624
0.000134625
0.000134625
0.000134625
0.000134626
0.000134626
0.000134626
0.000134627
0.000134627
0.000134627
0.000134627
0.000134628
0.000134628
0.000134628
0.000134628
0.000134628
0.000134628
0.000134628
0.000134628
0.000134628
0.000134628
0.000134628
0.000134628
0.000134628
0.000134628
0.000134627
0.000134627
0.000134627
0.000134627
0.000134627
0.000134627
0.000134626
0.000134626
0.000134626
0.000134626
0.000134625
0.000134625
0.000134624
0.000134624
0.000134624
0.000134623
0.000134623
0.000132466
0.000132465
0.000132465
0.000132466
0.000132467
0.000132467
0.000132468
0.000132469
0.000132469
0.00013247
0.00013247
0.000132471
0.000132471
0.000132472
0.000132472
0.000132473
0.000132473
0.000132474
0.000132474
0.000132474
0.000132475
0.000132475
0.000132476
0.000132476
0.000132476
0.000132476
0.000132477
0.000132477
0.000132477
0.000132477
0.000132477
0.000132477
0.000132477
0.000132477
0.000132477
0.000132477
0.000132477
0.000132477
0.000132477
0.000132477
0.000132477
0.000132477
0.000132477
0.000132477
0.000132477
0.000132477
0.000132477
0.000132477
0.000132476
0.000132476
0.000132476
0.000132476
0.000132475
0.000132475
0.000132475
0.000132474
0.000132474
0.000132473
0.000132473
0.000130318
0.000130316
0.000130317
0.000130317
0.000130318
0.000130319
0.000130319
0.00013032
0.00013032
0.000130321
0.000130321
0.000130322
0.000130323
0.000130323
0.000130324
0.000130324
0.000130324
0.000130325
0.000130325
0.000130326
0.000130326
0.000130327
0.000130327
0.000130327
0.000130328
0.000130328
0.000130328
0.000130328
0.000130329
0.000130329
0.000130329
0.000130329
0.000130329
0.000130329
0.000130329
0.000130329
0.000130329
0.000130329
0.000130329
0.000130329
0.000130329
0.000130329
0.000130329
0.000130329
0.000130329
0.000130329
0.000130329
0.000130328
0.000130328
0.000130328
0.000130328
0.000130328
0.000130327
0.000130327
0.000130327
0.000130326
0.000130326
0.000130325
0.000130326
0.000128175
0.000128174
0.000128174
0.000128175
0.000128175
0.000128176
0.000128177
0.000128177
0.000128178
0.000128178
0.000128179
0.000128179
0.00012818
0.00012818
0.000128181
0.000128181
0.000128182
0.000128182
0.000128183
0.000128183
0.000128183
0.000128184
0.000128184
0.000128184
0.000128185
0.000128185
0.000128185
0.000128186
0.000128186
0.000128186
0.000128186
0.000128186
0.000128186
0.000128186
0.000128186
0.000128186
0.000128186
0.000128186
0.000128187
0.000128187
0.000128186
0.000128186
0.000128186
0.000128186
0.000128186
0.000128186
0.000128186
0.000128186
0.000128186
0.000128186
0.000128185
0.000128185
0.000128185
0.000128185
0.000128184
0.000128184
0.000128184
0.000128183
0.000128184
0.000126042
0.000126041
0.000126041
0.000126041
0.000126042
0.000126043
0.000126043
0.000126044
0.000126045
0.000126045
0.000126046
0.000126046
0.000126047
0.000126047
0.000126048
0.000126048
0.000126049
0.000126049
0.000126049
0.00012605
0.00012605
0.000126051
0.000126051
0.000126051
0.000126052
0.000126052
0.000126052
0.000126053
0.000126053
0.000126053
0.000126053
0.000126053
0.000126053
0.000126053
0.000126054
0.000126054
0.000126054
0.000126054
0.000126054
0.000126054
0.000126054
0.000126054
0.000126054
0.000126054
0.000126054
0.000126054
0.000126053
0.000126053
0.000126053
0.000126053
0.000126053
0.000126053
0.000126053
0.000126052
0.000126052
0.000126052
0.000126051
0.000126051
0.000126051
0.000123923
0.000123921
0.000123921
0.000123922
0.000123923
0.000123923
0.000123924
0.000123924
0.000123925
0.000123926
0.000123926
0.000123927
0.000123927
0.000123928
0.000123928
0.000123929
0.000123929
0.00012393
0.00012393
0.00012393
0.000123931
0.000123931
0.000123932
0.000123932
0.000123932
0.000123933
0.000123933
0.000123933
0.000123933
0.000123934
0.000123934
0.000123934
0.000123934
0.000123934
0.000123934
0.000123934
0.000123934
0.000123934
0.000123934
0.000123934
0.000123934
0.000123934
0.000123934
0.000123934
0.000123934
0.000123934
0.000123934
0.000123934
0.000123934
0.000123934
0.000123934
0.000123934
0.000123934
0.000123933
0.000123933
0.000123933
0.000123933
0.000123932
0.000123932
0.00012182
0.000121819
0.000121819
0.00012182
0.00012182
0.000121821
0.000121822
0.000121822
0.000121823
0.000121823
0.000121824
0.000121824
0.000121825
0.000121825
0.000121826
0.000121826
0.000121827
0.000121827
0.000121828
0.000121828
0.000121829
0.000121829
0.000121829
0.00012183
0.00012183
0.00012183
0.000121831
0.000121831
0.000121831
0.000121831
0.000121832
0.000121832
0.000121832
0.000121832
0.000121832
0.000121832
0.000121832
0.000121832
0.000121832
0.000121832
0.000121833
0.000121833
0.000121833
0.000121833
0.000121833
0.000121833
0.000121833
0.000121832
0.000121832
0.000121832
0.000121832
0.000121832
0.000121832
0.000121832
0.000121832
0.000121831
0.000121831
0.000121831
0.000121831
0.000119739
0.000119738
0.000119738
0.000119739
0.000119739
0.00011974
0.00011974
0.000119741
0.000119742
0.000119742
0.000119743
0.000119743
0.000119744
0.000119744
0.000119745
0.000119745
0.000119746
0.000119746
0.000119747
0.000119747
0.000119747
0.000119748
0.000119748
0.000119748
0.000119749
0.000119749
0.000119749
0.00011975
0.00011975
0.00011975
0.00011975
0.000119751
0.000119751
0.000119751
0.000119751
0.000119751
0.000119751
0.000119751
0.000119751
0.000119752
0.000119752
0.000119752
0.000119752
0.000119752
0.000119752
0.000119752
0.000119752
0.000119752
0.000119752
0.000119752
0.000119751
0.000119751
0.000119751
0.000119751
0.000119751
0.000119751
0.00011975
0.00011975
0.00011975
0.000117683
0.000117681
0.000117681
0.000117682
0.000117683
0.000117683
0.000117684
0.000117684
0.000117685
0.000117685
0.000117686
0.000117687
0.000117687
0.000117688
0.000117688
0.000117689
0.000117689
0.000117689
0.00011769
0.00011769
0.000117691
0.000117691
0.000117692
0.000117692
0.000117692
0.000117693
0.000117693
0.000117693
0.000117694
0.000117694
0.000117694
0.000117694
0.000117694
0.000117694
0.000117695
0.000117695
0.000117695
0.000117695
0.000117695
0.000117695
0.000117695
0.000117695
0.000117695
0.000117695
0.000117695
0.000117695
0.000117695
0.000117695
0.000117695
0.000117695
0.000117695
0.000117695
0.000117695
0.000117695
0.000117695
0.000117695
0.000117695
0.000117694
0.000117694
0.000115654
0.000115653
0.000115653
0.000115653
0.000115654
0.000115655
0.000115655
0.000115656
0.000115656
0.000115657
0.000115657
0.000115658
0.000115659
0.000115659
0.00011566
0.00011566
0.00011566
0.000115661
0.000115661
0.000115662
0.000115662
0.000115663
0.000115663
0.000115663
0.000115664
0.000115664
0.000115664
0.000115665
0.000115665
0.000115665
0.000115666
0.000115666
0.000115666
0.000115666
0.000115666
0.000115666
0.000115667
0.000115667
0.000115667
0.000115667
0.000115667
0.000115667
0.000115667
0.000115667
0.000115667
0.000115667
0.000115667
0.000115667
0.000115667
0.000115667
0.000115667
0.000115667
0.000115667
0.000115667
0.000115667
0.000115667
0.000115667
0.000115666
0.000115666
0.000113657
0.000113656
0.000113656
0.000113656
0.000113657
0.000113658
0.000113658
0.000113659
0.000113659
0.00011366
0.00011366
0.000113661
0.000113662
0.000113662
0.000113663
0.000113663
0.000113664
0.000113664
0.000113664
0.000113665
0.000113665
0.000113666