/*--------------------------------*- C++ -*----------------------------------*\
  =========                 |
  \\      /  F ield         | OpenFOAM: The Open Source CFD Toolbox
   \\    /   O peration     | Website:  https://openfoam.org
    \\  /    A nd           | Version:  7
     \\/     M anipulation  |
\*---------------------------------------------------------------------------*/
FoamFile
{
    version     2.0;
    format      ascii;
    class       volScalarField;
    location    "3500";
    object      omega;
}
// * * * * * * * * * * * * * * * * * * * * * * * * * * * * * * * * * * * * * //

dimensions      [0 0 -1 0 0 0 0];

internalField   nonuniform List<scalar> 
3974
(
0.677072
0.677081
0.677088
0.677094
0.6771
0.677105
0.67711
0.677115
0.677119
0.677123
0.677126
0.67713
0.677133
0.677136
0.677138
0.677141
0.677144
0.677146
0.677148
0.67715
0.677152
0.677154
0.677156
0.677158
0.677159
0.677161
0.677162
0.677164
0.677165
0.677166
0.677167
0.677168
0.677169
0.67717
0.677171
0.677172
0.677172
0.677173
0.640962
0.640965
0.64094
0.640934
0.640935
0.640937
0.640941
0.640944
0.640948
0.640951
0.640954
0.640958
0.64096
0.640963
0.640966
0.640969
0.640971
0.640974
0.640976
0.640978
0.640981
0.640983
0.640985
0.640987
0.640988
0.64099
0.640992
0.640993
0.640995
0.640996
0.640997
0.640998
0.641
0.641001
0.641002
0.641003
0.641004
0.641005
0.641006
0.641003
0.641056
0.641066
0.607209
0.607205
0.607181
0.607172
0.607157
0.607148
0.607144
0.607144
0.607145
0.607147
0.607149
0.607151
0.607154
0.607156
0.607158
0.607161
0.607163
0.607166
0.607168
0.60717
0.607172
0.607175
0.607177
0.607179
0.607181
0.607182
0.607184
0.607186
0.607187
0.607189
0.607191
0.607192
0.607193
0.607195
0.607196
0.607197
0.607198
0.607199
0.6072
0.607201
0.607203
0.6072
0.607225
0.607238
0.607283
0.607289
0.607283
0.607276
0.60727
0.607264
0.607259
0.607254
0.60725
0.607246
0.607242
0.607238
0.607235
0.607233
0.607228
0.575537
0.575535
0.575519
0.575508
0.575497
0.575488
0.575483
0.57548
0.57548
0.57548
0.575481
0.575482
0.575484
0.575485
0.575487
0.575489
0.575491
0.575493
0.575495
0.575497
0.575499
0.575502
0.575504
0.575505
0.575507
0.575509
0.575511
0.575513
0.575514
0.575516
0.575517
0.575519
0.57552
0.575522
0.575523
0.575524
0.575526
0.575527
0.575528
0.575529
0.57553
0.575529
0.575541
0.57555
0.575576
0.57559
0.575592
0.57559
0.575587
0.575583
0.57558
0.575576
0.575573
0.57557
0.575567
0.575564
0.575562
0.57556
0.575555
0.54579
0.545789
0.545778
0.545769
0.54576
0.545752
0.545747
0.545743
0.545741
0.545741
0.545741
0.545741
0.545742
0.545743
0.545744
0.545746
0.545748
0.54575
0.545751
0.545753
0.545755
0.545757
0.545759
0.545761
0.545763
0.545765
0.545767
0.545768
0.54577
0.545772
0.545773
0.545775
0.545776
0.545778
0.545779
0.545781
0.545782
0.545783
0.545784
0.545786
0.545787
0.545787
0.545792
0.545799
0.545813
0.545826
0.545832
0.545834
0.545834
0.545832
0.54583
0.545828
0.545826
0.545824
0.545822
0.54582
0.545818
0.545817
0.545813
0.517793
0.517793
0.517786
0.517778
0.517771
0.517765
0.51776
0.517757
0.517754
0.517753
0.517752
0.517752
0.517752
0.517753
0.517754
0.517755
0.517757
0.517759
0.51776
0.517762
0.517764
0.517766
0.517768
0.51777
0.517772
0.517773
0.517775
0.517777
0.517779
0.51778
0.517782
0.517784
0.517785
0.517787
0.517788
0.51779
0.517791
0.517793
0.517794
0.517795
0.517797
0.517797
0.5178
0.517804
0.517813
0.517822
0.517829
0.517833
0.517835
0.517835
0.517835
0.517834
0.517833
0.517832
0.51783
0.517829
0.517828
0.517827
0.517824
0.491395
0.491394
0.491389
0.491384
0.491379
0.491374
0.49137
0.491367
0.491364
0.491363
0.491362
0.491361
0.491361
0.491362
0.491362
0.491363
0.491365
0.491366
0.491368
0.49137
0.491372
0.491373
0.491375
0.491377
0.491379
0.491381
0.491383
0.491384
0.491386
0.491388
0.49139
0.491391
0.491393
0.491395
0.491396
0.491398
0.4914
0.491401
0.491403
0.491404
0.491405
0.491407
0.491408
0.491411
0.491416
0.491423
0.491429
0.491434
0.491436
0.491438
0.491439
0.491439
0.491439
0.491438
0.491438
0.491437
0.491437
0.491436
0.491435
0.466461
0.466459
0.466456
0.466452
0.466448
0.466444
0.466441
0.466439
0.466437
0.466435
0.466434
0.466433
0.466433
0.466433
0.466434
0.466435
0.466436
0.466438
0.466439
0.466441
0.466443
0.466445
0.466447
0.466448
0.46645
0.466452
0.466454
0.466456
0.466458
0.46646
0.466462
0.466463
0.466465
0.466467
0.466469
0.46647
0.466472
0.466474
0.466475
0.466477
0.466478
0.46648
0.466481
0.466484
0.466487
0.466492
0.466496
0.466501
0.466504
0.466506
0.466508
0.466509
0.466509
0.46651
0.46651
0.46651
0.46651
0.46651
0.46651
0.442873
0.442869
0.442866
0.442864
0.442861
0.442858
0.442856
0.442854
0.442853
0.442852
0.442851
0.44285
0.44285
0.44285
0.442851
0.442852
0.442853
0.442854
0.442856
0.442858
0.442859
0.442861
0.442863
0.442865
0.442867
0.442869
0.442871
0.442873
0.442875
0.442877
0.442879
0.442881
0.442882
0.442884
0.442886
0.442888
0.44289
0.442892
0.442893
0.442895
0.442897
0.442898
0.4429
0.442902
0.442904
0.442908
0.442912
0.442915
0.442919
0.442921
0.442923
0.442925
0.442926
0.442927
0.442928
0.442928
0.442929
0.442929
0.442931
0.420526
0.42052
0.420518
0.420516
0.420514
0.420512
0.420511
0.42051
0.420509
0.420508
0.420507
0.420507
0.420507
0.420507
0.420508
0.420509
0.42051
0.420511
0.420513
0.420515
0.420517
0.420518
0.42052
0.420522
0.420524
0.420526
0.420528
0.420531
0.420533
0.420535
0.420537
0.420539
0.420541
0.420543
0.420545
0.420547
0.420549
0.42055
0.420552
0.420554
0.420556
0.420558
0.42056
0.420561
0.420564
0.420566
0.420569
0.420573
0.420576
0.420578
0.420581
0.420583
0.420584
0.420586
0.420587
0.420588
0.420589
0.420589
0.420593
0.399327
0.399321
0.399318
0.399316
0.399315
0.399314
0.399314
0.399313
0.399313
0.399312
0.399312
0.399312
0.399312
0.399312
0.399313
0.399314
0.399315
0.399317
0.399319
0.39932
0.399322
0.399324
0.399326
0.399328
0.39933
0.399332
0.399335
0.399337
0.399339
0.399341
0.399343
0.399345
0.399348
0.39935
0.399352
0.399354
0.399356
0.399358
0.39936
0.399362
0.399364
0.399366
0.399368
0.39937
0.399372
0.399374
0.399377
0.39938
0.399382
0.399385
0.399388
0.39939
0.399392
0.399393
0.399395
0.399396
0.399398
0.399398
0.399403
0.379196
0.379188
0.379185
0.379184
0.379183
0.379183
0.379183
0.379183
0.379183
0.379183
0.379183
0.379183
0.379183
0.379184
0.379185
0.379186
0.379188
0.379189
0.379191
0.379193
0.379195
0.379197
0.379199
0.379201
0.379203
0.379205
0.379208
0.37921
0.379212
0.379214
0.379217
0.379219
0.379221
0.379223
0.379226
0.379228
0.37923
0.379232
0.379235
0.379237
0.379239
0.379241
0.379243
0.379245
0.379247
0.379249
0.379252
0.379254
0.379257
0.37926
0.379262
0.379264
0.379267
0.379269
0.37927
0.379272
0.379274
0.379274
0.379281
0.36006
0.36005
0.360047
0.360046
0.360046
0.360046
0.360047
0.360047
0.360047
0.360048
0.360048
0.360048
0.360049
0.36005
0.360051
0.360052
0.360054
0.360056
0.360058
0.360059
0.360062
0.360064
0.360066
0.360068
0.36007
0.360073
0.360075
0.360078
0.36008
0.360082
0.360085
0.360087
0.360089
0.360092
0.360094
0.360097
0.360099
0.360101
0.360104
0.360106
0.360108
0.36011
0.360113
0.360115
0.360117
0.360119
0.360122
0.360124
0.360127
0.360129
0.360132
0.360134
0.360137
0.360139
0.360141
0.360143
0.360145
0.360145
0.360153
0.341854
0.341843
0.34184
0.341839
0.341839
0.34184
0.34184
0.341841
0.341842
0.341842
0.341843
0.341844
0.341845
0.341846
0.341847
0.341849
0.34185
0.341852
0.341854
0.341856
0.341859
0.341861
0.341863
0.341866
0.341868
0.34187
0.341873
0.341875
0.341878
0.34188
0.341883
0.341885
0.341888
0.34189
0.341893
0.341895
0.341898
0.3419
0.341903
0.341905
0.341908
0.34191
0.341912
0.341915
0.341917
0.34192
0.341922
0.341924
0.341927
0.34193
0.341932
0.341935
0.341937
0.341939
0.341942
0.341944
0.341946
0.341946
0.341956
0.324521
0.324509
0.324506
0.324505
0.324506
0.324506
0.324507
0.324508
0.324509
0.32451
0.324511
0.324512
0.324513
0.324515
0.324516
0.324518
0.32452
0.324522
0.324524
0.324526
0.324528
0.324531
0.324533
0.324536
0.324538
0.324541
0.324543
0.324546
0.324549
0.324551
0.324554
0.324557
0.324559
0.324562
0.324565
0.324567
0.32457
0.324572
0.324575
0.324578
0.32458
0.324583
0.324585
0.324588
0.32459
0.324593
0.324595
0.324598
0.3246
0.324603
0.324605
0.324608
0.324611
0.324613
0.324615
0.324618
0.32462
0.324621
0.324631
0.308011
0.307997
0.307994
0.307994
0.307994
0.307995
0.307996
0.307997
0.307998
0.308
0.308001
0.308002
0.308004
0.308005
0.308007
0.308009
0.308011
0.308013
0.308015
0.308018
0.30802
0.308023
0.308025
0.308028
0.30803
0.308033
0.308036
0.308039
0.308041
0.308044
0.308047
0.30805
0.308052
0.308055
0.308058
0.308061
0.308063
0.308066
0.308069
0.308072
0.308074
0.308077
0.30808
0.308082
0.308085
0.308088
0.30809
0.308093
0.308095
0.308098
0.308101
0.308103
0.308106
0.308109
0.308111
0.308113
0.308116
0.308117
0.308128
0.292277
0.292262
0.292258
0.292258
0.292259
0.29226
0.292261
0.292263
0.292264
0.292266
0.292267
0.292268
0.29227
0.292272
0.292274
0.292276
0.292278
0.29228
0.292283
0.292285
0.292288
0.292291
0.292293
0.292296
0.292299
0.292302
0.292304
0.292307
0.29231
0.292313
0.292316
0.292319
0.292322
0.292324
0.292327
0.29233
0.292333
0.292336
0.292339
0.292342
0.292344
0.292347
0.29235
0.292353
0.292356
0.292358
0.292361
0.292364
0.292367
0.292369
0.292372
0.292375
0.292378
0.29238
0.292383
0.292385
0.292388
0.292389
0.292401
0.277278
0.277262
0.277258
0.277258
0.277259
0.27726
0.277262
0.277263
0.277265
0.277267
0.277268
0.27727
0.277272
0.277274
0.277276
0.277278
0.27728
0.277283
0.277285
0.277288
0.277291
0.277294
0.277296
0.277299
0.277302
0.277305
0.277308
0.277311
0.277314
0.277317
0.27732
0.277323
0.277326
0.277329
0.277332
0.277335
0.277338
0.277341
0.277344
0.277347
0.27735
0.277353
0.277356
0.277358
0.277361
0.277364
0.277367
0.27737
0.277373
0.277376
0.277378
0.277381
0.277384
0.277387
0.27739
0.277392
0.277395
0.277396
0.277409
0.262977
0.26296
0.262957
0.262957
0.262958
0.262959
0.262961
0.262962
0.262964
0.262966
0.262968
0.26297
0.262972
0.262974
0.262976
0.262978
0.262981
0.262984
0.262986
0.262989
0.262992
0.262995
0.262998
0.263001
0.263004
0.263007
0.26301
0.263013
0.263016
0.263019
0.263022
0.263025
0.263028
0.263031
0.263034
0.263037
0.26304
0.263044
0.263047
0.26305
0.263053
0.263056
0.263059
0.263062
0.263065
0.263068
0.263071
0.263074
0.263077
0.26308
0.263083
0.263086
0.263089
0.263092
0.263094
0.263097
0.2631
0.263101
0.263115
0.249342
0.249324
0.24932
0.24932
0.249322
0.249323
0.249325
0.249327
0.249328
0.24933
0.249332
0.249334
0.249336
0.249339
0.249341
0.249344
0.249346
0.249349
0.249352
0.249355
0.249358
0.249361
0.249364
0.249367
0.24937
0.249373
0.249376
0.249379
0.249382
0.249385
0.249389
0.249392
0.249395
0.249398
0.249401
0.249405
0.249408
0.249411
0.249414
0.249417
0.249421
0.249424
0.249427
0.24943
0.249433
0.249436
0.249439
0.249442
0.249446
0.249449
0.249452
0.249455
0.249458
0.249461
0.249464
0.249467
0.24947
0.249471
0.249485
0.236341
0.236322
0.236318
0.236319
0.23632
0.236322
0.236323
0.236325
0.236327
0.236329
0.236331
0.236334
0.236336
0.236338
0.236341
0.236343
0.236346
0.236349
0.236352
0.236355
0.236358
0.236361
0.236364
0.236367
0.236371
0.236374
0.236377
0.23638
0.236383
0.236387
0.23639
0.236393
0.236396
0.2364
0.236403
0.236406
0.23641
0.236413
0.236416
0.236419
0.236423
0.236426
0.236429
0.236432
0.236436
0.236439
0.236442
0.236445
0.236448
0.236452
0.236455
0.236458
0.236461
0.236464
0.236467
0.23647
0.236474
0.236474
0.236489
0.223947
0.223927
0.223924
0.223924
0.223926
0.223927
0.223929
0.223931
0.223933
0.223935
0.223938
0.22394
0.223942
0.223945
0.223948
0.22395
0.223953
0.223956
0.223959
0.223962
0.223965
0.223968
0.223972
0.223975
0.223978
0.223981
0.223985
0.223988
0.223991
0.223995
0.223998
0.224001
0.224005
0.224008
0.224011
0.224015
0.224018
0.224022
0.224025
0.224028
0.224032
0.224035
0.224038
0.224042
0.224045
0.224048
0.224051
0.224055
0.224058
0.224061
0.224064
0.224068
0.224071
0.224074
0.224077
0.22408
0.224084
0.224085
0.2241
0.212135
0.212114
0.212111
0.212111
0.212113
0.212115
0.212117
0.212119
0.212121
0.212123
0.212126
0.212128
0.212131
0.212133
0.212136
0.212139
0.212142
0.212145
0.212148
0.212151
0.212154
0.212157
0.212161
0.212164
0.212167
0.212171
0.212174
0.212177
0.212181
0.212184
0.212188
0.212191
0.212194
0.212198
0.212201
0.212205
0.212208
0.212212
0.212215
0.212218
0.212222
0.212225
0.212229
0.212232
0.212235
0.212239
0.212242
0.212245
0.212249
0.212252
0.212255
0.212259
0.212262
0.212265
0.212268
0.212272
0.212275
0.212276
0.212291
0.200881
0.20086
0.200857
0.200857
0.200859
0.200861
0.200863
0.200865
0.200867
0.20087
0.200872
0.200874
0.200877
0.20088
0.200883
0.200885
0.200888
0.200892
0.200895
0.200898
0.200901
0.200904
0.200908
0.200911
0.200915
0.200918
0.200921
0.200925
0.200928
0.200932
0.200935
0.200939
0.200942
0.200946
0.200949
0.200953
0.200956
0.20096
0.200963
0.200966
0.20097
0.200973
0.200977
0.20098
0.200984
0.200987
0.200991
0.200994
0.200997
0.201001
0.201004
0.201008
0.201011
0.201014
0.201017
0.201021
0.201024
0.201025
0.201041
0.190164
0.190142
0.190139
0.190139
0.190141
0.190143
0.190145
0.190148
0.19015
0.190152
0.190155
0.190157
0.19016
0.190163
0.190166
0.190169
0.190172
0.190175
0.190178
0.190181
0.190185
0.190188
0.190192
0.190195
0.190198
0.190202
0.190205
0.190209
0.190212
0.190216
0.190219
0.190223
0.190226
0.19023
0.190233
0.190237
0.19024
0.190244
0.190247
0.190251
0.190254
0.190258
0.190261
0.190265
0.190268
0.190272
0.190275
0.190279
0.190282
0.190286
0.190289
0.190293
0.190296
0.190299
0.190303
0.190306
0.19031
0.190311
0.190326
0.179963
0.179941
0.179938
0.179938
0.17994
0.179942
0.179944
0.179947
0.179949
0.179952
0.179954
0.179957
0.17996
0.179962
0.179965
0.179968
0.179972
0.179975
0.179978
0.179981
0.179985
0.179988
0.179991
0.179995
0.179998
0.180002
0.180005
0.180009
0.180012
0.180016
0.180019
0.180023
0.180026
0.18003
0.180034
0.180037
0.180041
0.180044
0.180048
0.180051
0.180055
0.180058
0.180062
0.180066
0.180069
0.180073
0.180076
0.18008
0.180083
0.180086
0.18009
0.180093
0.180097
0.1801
0.180104
0.180107
0.180111
0.180112
0.180127
0.170259
0.170237
0.170234
0.170234
0.170236
0.170238
0.170241
0.170243
0.170246
0.170248
0.170251
0.170253
0.170256
0.170259
0.170262
0.170265
0.170268
0.170272
0.170275
0.170278
0.170282
0.170285
0.170289
0.170292
0.170295
0.170299
0.170302
0.170306
0.17031
0.170313
0.170317
0.17032
0.170324
0.170327
0.170331
0.170334
0.170338
0.170342
0.170345
0.170349
0.170352
0.170356
0.170359
0.170363
0.170367
0.17037
0.170374
0.170377
0.170381
0.170384
0.170388
0.170391
0.170394
0.170398
0.170401
0.170405
0.170408
0.17041
0.170425
0.161034
0.161012
0.161009
0.16101
0.161012
0.161014
0.161016
0.161019
0.161021
0.161024
0.161026
0.161029
0.161032
0.161035
0.161038
0.161041
0.161044
0.161048
0.161051
0.161054
0.161058
0.161061
0.161065
0.161068
0.161072
0.161075
0.161079
0.161082
0.161086
0.161089
0.161093
0.161096
0.1611
0.161104
0.161107
0.161111
0.161114
0.161118
0.161121
0.161125
0.161129
0.161132
0.161136
0.161139
0.161143
0.161146
0.16115
0.161153
0.161157
0.16116
0.161164
0.161167
0.161171
0.161174
0.161178
0.161181
0.161185
0.161186
0.161201
0.152272
0.15225
0.152246
0.152247
0.152249
0.152251
0.152254
0.152256
0.152259
0.152261
0.152264
0.152267
0.15227
0.152273
0.152276
0.152279
0.152282
0.152285
0.152289
0.152292
0.152296
0.152299
0.152302
0.152306
0.152309
0.152313
0.152316
0.15232
0.152323
0.152327
0.152331
0.152334
0.152338
0.152341
0.152345
0.152348
0.152352
0.152356
0.152359
0.152363
0.152366
0.15237
0.152373
0.152377
0.152381
0.152384
0.152388
0.152391
0.152395
0.152398
0.152402
0.152405
0.152409
0.152412
0.152415
0.152419
0.152422
0.152424
0.152438
0.143954
0.143932
0.143929
0.14393
0.143932
0.143934
0.143936
0.143939
0.143941
0.143944
0.143947
0.14395
0.143952
0.143955
0.143959
0.143962
0.143965
0.143968
0.143972
0.143975
0.143978
0.143982
0.143985
0.143989
0.143992
0.143996
0.143999
0.144003
0.144006
0.14401
0.144013
0.144017
0.14402
0.144024
0.144028
0.144031
0.144035
0.144038
0.144042
0.144045
0.144049
0.144052
0.144056
0.14406
0.144063
0.144067
0.14407
0.144074
0.144077
0.144081
0.144084
0.144088
0.144091
0.144094
0.144098
0.144101
0.144105
0.144107
0.14412
0.136066
0.136044
0.13604
0.136041
0.136043
0.136046
0.136048
0.136051
0.136053
0.136056
0.136059
0.136062
0.136064
0.136067
0.136071
0.136074
0.136077
0.13608
0.136084
0.136087
0.13609
0.136094
0.136097
0.136101
0.136104
0.136108
0.136111
0.136115
0.136118
0.136122
0.136125
0.136129
0.136132
0.136136
0.136139
0.136143
0.136146
0.13615
0.136153
0.136157
0.13616
0.136164
0.136167
0.136171
0.136174
0.136178
0.136181
0.136185
0.136188
0.136192
0.136195
0.136199
0.136202
0.136206
0.136209
0.136212
0.136216
0.136218
0.136231
0.128591
0.128569
0.128566
0.128567
0.128569
0.128571
0.128574
0.128576
0.128579
0.128581
0.128584
0.128587
0.12859
0.128593
0.128596
0.128599
0.128602
0.128606
0.128609
0.128612
0.128616
0.128619
0.128623
0.128626
0.128629
0.128633
0.128636
0.12864
0.128643
0.128647
0.12865
0.128654
0.128657
0.128661
0.128664
0.128668
0.128671
0.128675
0.128678
0.128682
0.128685
0.128689
0.128692
0.128696
0.128699
0.128702
0.128706
0.128709
0.128713
0.128716
0.12872
0.128723
0.128726
0.12873
0.128733
0.128736
0.12874
0.128742
0.128754
0.121514
0.121492
0.121489
0.12149
0.121492
0.121495
0.121497
0.1215
0.121502
0.121505
0.121508
0.121511
0.121514
0.121517
0.12152
0.121523
0.121526
0.121529
0.121533
0.121536
0.121539
0.121543
0.121546
0.121549
0.121553
0.121556
0.12156
0.121563
0.121566
0.12157
0.121573
0.121577
0.12158
0.121584
0.121587
0.121591
0.121594
0.121597
0.121601
0.121604
0.121608
0.121611
0.121615
0.121618
0.121621
0.121625
0.121628
0.121632
0.121635
0.121638
0.121642
0.121645
0.121648
0.121652
0.121655
0.121658
0.121662
0.121664
0.121676
0.11482
0.114799
0.114796
0.114797
0.114799
0.114802
0.114804
0.114807
0.114809
0.114812
0.114815
0.114818
0.11482
0.114823
0.114827
0.11483
0.114833
0.114836
0.114839
0.114843
0.114846
0.114849
0.114853
0.114856
0.114859
0.114863
0.114866
0.114869
0.114873
0.114876
0.11488
0.114883
0.114886
0.11489
0.114893
0.114897
0.1149
0.114903
0.114907
0.11491
0.114913
0.114917
0.11492
0.114924
0.114927
0.11493
0.114934
0.114937
0.11494
0.114943
0.114947
0.11495
0.114953
0.114957
0.11496
0.114963
0.114967
0.114968
0.11498
0.108495
0.108475
0.108472
0.108473
0.108475
0.108477
0.10848
0.108482
0.108485
0.108488
0.10849
0.108493
0.108496
0.108499
0.108502
0.108505
0.108508
0.108511
0.108515
0.108518
0.108521
0.108525
0.108528
0.108531
0.108534
0.108538
0.108541
0.108544
0.108548
0.108551
0.108554
0.108558
0.108561
0.108564
0.108568
0.108571
0.108574
0.108578
0.108581
0.108584
0.108587
0.108591
0.108594
0.108597
0.108601
0.108604
0.108607
0.10861
0.108614
0.108617
0.10862
0.108623
0.108627
0.10863
0.108633
0.108636
0.108639
0.108642
0.108652
0.102525
0.102504
0.102501
0.102502
0.102505
0.102507
0.102509
0.102512
0.102515
0.102517
0.10252
0.102523
0.102526
0.102529
0.102532
0.102535
0.102538
0.102541
0.102544
0.102547
0.102551
0.102554
0.102557
0.10256
0.102563
0.102567
0.10257
0.102573
0.102576
0.10258
0.102583
0.102586
0.102589
0.102593
0.102596
0.102599
0.102602
0.102606
0.102609
0.102612
0.102615
0.102619
0.102622
0.102625
0.102628
0.102631
0.102635
0.102638
0.102641
0.102644
0.102647
0.102651
0.102654
0.102657
0.10266
0.102663
0.102666
0.102668
0.102678
0.0968936
0.0968736
0.0968709
0.0968721
0.0968742
0.0968766
0.0968791
0.0968816
0.0968842
0.0968868
0.0968895
0.0968923
0.0968952
0.0968981
0.0969011
0.0969041
0.0969072
0.0969103
0.0969134
0.0969165
0.0969197
0.0969228
0.096926
0.0969292
0.0969323
0.0969355
0.0969387
0.0969419
0.096945
0.0969482
0.0969514
0.0969546
0.0969577
0.0969609
0.0969641
0.0969672
0.0969704
0.0969736
0.0969767
0.0969799
0.096983
0.0969862
0.0969893
0.0969924
0.0969956
0.0969987
0.0970018
0.0970049
0.097008
0.0970111
0.0970142
0.0970172
0.0970203
0.0970233
0.0970264
0.0970294
0.0970325
0.0970346
0.0970436
0.0915884
0.091569
0.0915664
0.0915676
0.0915698
0.0915721
0.0915746
0.0915771
0.0915797
0.0915823
0.091585
0.0915877
0.0915905
0.0915934
0.0915963
0.0915993
0.0916023
0.0916054
0.0916084
0.0916115
0.0916146
0.0916177
0.0916208
0.0916239
0.091627
0.0916301
0.0916332
0.0916363
0.0916394
0.0916425
0.0916456
0.0916486
0.0916517
0.0916548
0.0916579
0.091661
0.0916641
0.0916671
0.0916702
0.0916733
0.0916763
0.0916794
0.0916824
0.0916855
0.0916885
0.0916916
0.0916946
0.0916976
0.0917006
0.0917036
0.0917066
0.0917096
0.0917125
0.0917155
0.0917185
0.0917214
0.0917244
0.0917265
0.0917347
0.0865953
0.0865764
0.086574
0.0865752
0.0865774
0.0865797
0.0865822
0.0865846
0.0865872
0.0865897
0.0865924
0.0865951
0.0865979
0.0866007
0.0866036
0.0866065
0.0866095
0.0866125
0.0866155
0.0866185
0.0866215
0.0866245
0.0866275
0.0866305
0.0866336
0.0866366
0.0866396
0.0866426
0.0866456
0.0866486
0.0866516
0.0866546
0.0866576
0.0866606
0.0866636
0.0866666
0.0866696
0.0866726
0.0866756
0.0866785
0.0866815
0.0866845
0.0866874
0.0866904
0.0866933
0.0866963
0.0866992
0.0867021
0.086705
0.0867079
0.0867108
0.0867137
0.0867166
0.0867195
0.0867223
0.0867251
0.0867281
0.0867302
0.0867376
0.0819005
0.0818823
0.08188
0.0818813
0.0818834
0.0818857
0.0818881
0.0818906
0.0818931
0.0818956
0.0818982
0.0819009
0.0819036
0.0819064
0.0819093
0.0819121
0.081915
0.081918
0.0819209
0.0819238
0.0819268
0.0819297
0.0819326
0.0819356
0.0819385
0.0819414
0.0819444
0.0819473
0.0819502
0.0819531
0.0819561
0.081959
0.0819619
0.0819648
0.0819677
0.0819706
0.0819734
0.0819763
0.0819792
0.0819821
0.081985
0.0819878
0.0819907
0.0819935
0.0819964
0.0819992
0.0820021
0.0820049
0.0820077
0.0820105
0.0820133
0.0820161
0.0820189
0.0820216
0.0820244
0.0820271
0.0820299
0.0820321
0.0820387
0.0774909
0.0774732
0.0774711
0.0774724
0.0774745
0.0774768
0.0774792
0.0774816
0.0774841
0.0774866
0.0774891
0.0774918
0.0774944
0.0774972
0.0775
0.0775028
0.0775056
0.0775085
0.0775113
0.0775142
0.077517
0.0775199
0.0775228
0.0775256
0.0775285
0.0775313
0.0775342
0.077537
0.0775398
0.0775426
0.0775455
0.0775483
0.0775511
0.0775539
0.0775567
0.0775595
0.0775623
0.0775651
0.0775678
0.0775706
0.0775734
0.0775761
0.0775789
0.0775816
0.0775844
0.0775871
0.0775899
0.0775926
0.0775953
0.077598
0.0776007
0.0776034
0.0776061
0.0776087
0.0776114
0.077614
0.0776167
0.0776189
0.0776247
0.0733532
0.0733362
0.0733342
0.0733355
0.0733376
0.0733399
0.0733422
0.0733446
0.073347
0.0733495
0.073352
0.0733546
0.0733572
0.0733599
0.0733626
0.0733654
0.0733681
0.0733709
0.0733737
0.0733765
0.0733793
0.073382
0.0733848
0.0733876
0.0733903
0.0733931
0.0733958
0.0733986
0.0734013
0.0734041
0.0734068
0.0734095
0.0734122
0.0734149
0.0734176
0.0734203
0.073423
0.0734257
0.0734283
0.073431
0.0734337
0.0734363
0.073439
0.0734416
0.0734443
0.0734469
0.0734495
0.0734521
0.0734547
0.0734573
0.0734599
0.0734625
0.0734651
0.0734677
0.0734702
0.0734727
0.0734753
0.0734775
0.0734826
0.0694747
0.0694583
0.0694565
0.0694578
0.0694599
0.0694621
0.0694644
0.0694668
0.0694692
0.0694716
0.0694741
0.0694766
0.0694792
0.0694818
0.0694844
0.0694871
0.0694898
0.0694925
0.0694952
0.0694979
0.0695006
0.0695033
0.069506
0.0695087
0.0695114
0.069514
0.0695167
0.0695193
0.069522
0.0695246
0.0695272
0.0695298
0.0695324
0.069535
0.0695376
0.0695402
0.0695428
0.0695454
0.069548
0.0695505
0.0695531
0.0695556
0.0695582
0.0695607
0.0695633
0.0695658
0.0695683
0.0695708
0.0695733
0.0695758
0.0695783
0.0695808
0.0695832
0.0695857
0.0695881
0.0695906
0.069593
0.0695952
0.0695995
0.0658428
0.0658272
0.0658255
0.0658268
0.0658289
0.0658311
0.0658334
0.0658357
0.065838
0.0658404
0.0658428
0.0658453
0.0658478
0.0658503
0.0658529
0.0658556
0.0658582
0.0658608
0.0658635
0.0658661
0.0658687
0.0658713
0.0658739
0.0658765
0.0658791
0.0658816
0.0658842
0.0658867
0.0658893
0.0658918
0.0658943
0.0658969
0.0658994
0.0659019
0.0659044
0.0659068
0.0659093
0.0659118
0.0659143
0.0659167
0.0659192
0.0659216
0.065924
0.0659265
0.0659289
0.0659313
0.0659337
0.0659361
0.0659385
0.0659409
0.0659433
0.0659456
0.065948
0.0659503
0.0659527
0.065955
0.0659573
0.0659595
0.0659632
0.0624456
0.0624307
0.0624291
0.0624304
0.0624324
0.0624346
0.0624369
0.0624391
0.0624414
0.0624437
0.0624461
0.0624485
0.062451
0.0624535
0.062456
0.0624586
0.0624611
0.0624637
0.0624662
0.0624688
0.0624713
0.0624738
0.0624763
0.0624788
0.0624813
0.0624838
0.0624863
0.0624887
0.0624912
0.0624936
0.062496
0.0624984
0.0625008
0.0625032
0.0625056
0.062508
0.0625104
0.0625127
0.0625151
0.0625175
0.0625198
0.0625221
0.0625245
0.0625268
0.0625291
0.0625314
0.0625337
0.062536
0.0625383
0.0625406
0.0625428
0.0625451
0.0625473
0.0625496
0.0625518
0.062554
0.0625562
0.0625583
0.0625614
0.0592713
0.059257
0.0592555
0.0592569
0.0592589
0.059261
0.0592632
0.0592655
0.0592677
0.05927
0.0592723
0.0592746
0.059277
0.0592795
0.0592819
0.0592844
0.0592869
0.0592894
0.0592919
0.0592943
0.0592968
0.0592992
0.0593016
0.059304
0.0593064
0.0593088
0.0593112
0.0593135
0.0593159
0.0593182
0.0593206
0.0593229
0.0593252
0.0593275
0.0593298
0.059332
0.0593343
0.0593366
0.0593388
0.0593411
0.0593433
0.0593455
0.0593477
0.0593499
0.0593522
0.0593544
0.0593565
0.0593587
0.0593609
0.0593631
0.0593652
0.0593674
0.0593695
0.0593716
0.0593738
0.0593759
0.059378
0.05938
0.0593824
0.0563085
0.0562949
0.0562936
0.0562949
0.0562969
0.056299
0.0563011
0.0563033
0.0563055
0.0563077
0.05631
0.0563123
0.0563146
0.056317
0.0563194
0.0563218
0.0563242
0.0563266
0.056329
0.0563314
0.0563338
0.0563361
0.0563384
0.0563408
0.0563431
0.0563454
0.0563476
0.0563499
0.0563522
0.0563544
0.0563566
0.0563588
0.056361
0.0563632
0.0563654
0.0563676
0.0563698
0.0563719
0.0563741
0.0563762
0.0563783
0.0563804
0.0563826
0.0563847
0.0563868
0.0563889
0.0563909
0.056393
0.0563951
0.0563971
0.0563992
0.0564012
0.0564033
0.0564053
0.0564073
0.0564093
0.0564113
0.0564133
0.0564151
0.0535464
0.0535334
0.0535322
0.0535336
0.0535355
0.0535376
0.0535397
0.0535418
0.053544
0.0535461
0.0535483
0.0535506
0.0535528
0.0535551
0.0535575
0.0535598
0.0535621
0.0535645
0.0535668
0.0535691
0.0535714
0.0535737
0.0535759
0.0535781
0.0535804
0.0535826
0.0535848
0.0535869
0.0535891
0.0535912
0.0535934
0.0535955
0.0535976
0.0535997
0.0536018
0.0536038
0.0536059
0.053608
0.05361
0.053612
0.0536141
0.0536161
0.0536181
0.0536201
0.0536221
0.0536241
0.053626
0.053628
0.05363
0.0536319
0.0536339
0.0536358
0.0536377
0.0536396
0.0536415
0.0536434
0.0536453
0.0536472
0.0536485
0.0509745
0.0509622
0.0509612
0.0509625
0.0509644
0.0509664
0.0509685
0.0509706
0.0509727
0.0509748
0.0509769
0.0509791
0.0509813
0.0509835
0.0509858
0.0509881
0.0509903
0.0509926
0.0509949
0.0509971
0.0509993
0.0510015
0.0510036
0.0510058
0.0510079
0.05101
0.0510121
0.0510142
0.0510163
0.0510183
0.0510204
0.0510224
0.0510244
0.0510264
0.0510284
0.0510304
0.0510323
0.0510343
0.0510362
0.0510382
0.0510401
0.051042
0.0510439
0.0510458
0.0510477
0.0510496
0.0510515
0.0510533
0.0510552
0.051057
0.0510589
0.0510607
0.0510625
0.0510643
0.0510661
0.0510679
0.0510697
0.0510716
0.0510723
0.0485831
0.0485714
0.0485704
0.0485718
0.0485737
0.0485756
0.0485777
0.0485797
0.0485817
0.0485838
0.0485859
0.048588
0.0485901
0.0485923
0.0485945
0.0485967
0.0485989
0.0486011
0.0486033
0.0486054
0.0486075
0.0486096
0.0486117
0.0486138
0.0486159
0.0486179
0.0486199
0.0486219
0.0486239
0.0486258
0.0486278
0.0486297
0.0486316
0.0486335
0.0486354
0.0486373
0.0486392
0.048641
0.0486429
0.0486447
0.0486466
0.0486484
0.0486502
0.048652
0.0486538
0.0486555
0.0486573
0.0486591
0.0486608
0.0486626
0.0486643
0.048666
0.0486678
0.0486695
0.0486712
0.0486729
0.0486745
0.0486763
0.0486766
0.0463626
0.0463515
0.0463507
0.046352
0.0463539
0.0463558
0.0463578
0.0463597
0.0463617
0.0463637
0.0463658
0.0463678
0.0463699
0.046372
0.0463741
0.0463763
0.0463784
0.0463805
0.0463826
0.0463847
0.0463868
0.0463888
0.0463908
0.0463928
0.0463948
0.0463967
0.0463986
0.0464006
0.0464025
0.0464043
0.0464062
0.046408
0.0464099
0.0464117
0.0464135
0.0464153
0.0464171
0.0464188
0.0464206
0.0464223
0.0464241
0.0464258
0.0464275
0.0464292
0.0464309
0.0464326
0.0464342
0.0464359
0.0464376
0.0464392
0.0464408
0.0464425
0.0464441
0.0464457
0.0464473
0.0464489
0.0464505
0.0464522
0.046452
0.0443042
0.0442938
0.044293
0.0442944
0.0442962
0.0442981
0.0443
0.0443019
0.0443039
0.0443058
0.0443078
0.0443098
0.0443118
0.0443138
0.0443159
0.044318
0.04432
0.0443221
0.0443241
0.0443261
0.0443281
0.0443301
0.044332
0.0443339
0.0443358
0.0443377
0.0443396
0.0443414
0.0443432
0.044345
0.0443468
0.0443485
0.0443503
0.044352
0.0443537
0.0443554
0.0443571
0.0443588
0.0443605
0.0443621
0.0443638
0.0443654
0.044367
0.0443686
0.0443702
0.0443718
0.0443734
0.044375
0.0443765
0.0443781
0.0443796
0.0443811
0.0443827
0.0443842
0.0443857
0.0443872
0.0443887
0.0443903
0.0443898
0.0423997
0.0423898
0.0423892
0.0423905
0.0423923
0.0423942
0.042396
0.0423979
0.0423998
0.0424017
0.0424036
0.0424056
0.0424075
0.0424095
0.0424115
0.0424135
0.0424155
0.0424175
0.0424195
0.0424214
0.0424233
0.0424252
0.0424271
0.0424289
0.0424308
0.0424326
0.0424343
0.0424361
0.0424378
0.0424396
0.0424413
0.0424429
0.0424446
0.0424463
0.0424479
0.0424495
0.0424511
0.0424527
0.0424543
0.0424559
0.0424574
0.042459
0.0424605
0.042462
0.0424635
0.042465
0.0424665
0.042468
0.0424695
0.0424709
0.0424724
0.0424738
0.0424752
0.0424767
0.0424781
0.0424795
0.0424809
0.0424824
0.0424815
0.0406414
0.040632
0.0406315
0.0406328
0.0406346
0.0406364
0.0406382
0.04064
0.0406419
0.0406437
0.0406456
0.0406475
0.0406494
0.0406513
0.0406532
0.0406552
0.0406571
0.0406591
0.040661
0.0406628
0.0406647
0.0406665
0.0406683
0.0406701
0.0406719
0.0406736
0.0406753
0.040677
0.0406787
0.0406803
0.040682
0.0406836
0.0406852
0.0406867
0.0406883
0.0406898
0.0406914
0.0406929
0.0406944
0.0406959
0.0406973
0.0406988
0.0407002
0.0407017
0.0407031
0.0407045
0.0407059
0.0407073
0.0407087
0.0407101
0.0407114
0.0407128
0.0407141
0.0407154
0.0407168
0.0407181
0.0407194
0.0407209
0.0407197
0.0390221
0.0390132
0.0390128
0.0390141
0.0390158
0.0390176
0.0390194
0.0390211
0.0390229
0.0390247
0.0390266
0.0390284
0.0390302
0.0390321
0.039034
0.0390359
0.0390378
0.0390396
0.0390415
0.0390433
0.0390451
0.0390469
0.0390487
0.0390504
0.0390521