/*--------------------------------*- C++ -*----------------------------------*\
  =========                 |
  \\      /  F ield         | OpenFOAM: The Open Source CFD Toolbox
   \\    /   O peration     | Website:  https://openfoam.org
    \\  /    A nd           | Version:  7
     \\/     M anipulation  |
\*---------------------------------------------------------------------------*/
FoamFile
{
    version     2.0;
    format      ascii;
    class       volVectorField;
    location    "500";
    object      U;
}
// * * * * * * * * * * * * * * * * * * * * * * * * * * * * * * * * * * * * * //

dimensions      [0 1 -1 0 0 0 0];

internalField   nonuniform List<vector> 
4026
(
(0.133539 -4.31332e-06 -5.2017e-16)
(0.133539 -3.25544e-06 -4.90441e-16)
(0.13354 -2.483e-06 -4.61028e-16)
(0.13354 -1.9815e-06 -5.71079e-16)
(0.13354 -1.56081e-06 -6.04183e-16)
(0.13354 -1.21945e-06 -5.67809e-16)
(0.13354 -9.32091e-07 -5.13704e-16)
(0.13354 -6.88903e-07 -4.72575e-16)
(0.13354 -4.85165e-07 -4.03446e-16)
(0.13354 -3.16809e-07 -3.30574e-16)
(0.13354 -1.81293e-07 -2.60833e-16)
(0.13354 -7.7219e-08 -2.25848e-16)
(0.13354 -4.1141e-09 -2.05467e-16)
(0.13354 3.78602e-08 -1.82366e-16)
(0.13354 4.82997e-08 -4.24075e-16)
(0.13354 2.70087e-08 -2.46649e-16)
(0.13354 -2.55394e-08 -1.95138e-16)
(0.13354 -1.0776e-07 -1.83093e-16)
(0.13354 -2.166e-07 -1.72215e-16)
(0.13354 -3.47327e-07 -3.64637e-16)
(0.133541 -4.93489e-07 -1.54296e-16)
(0.133541 -6.47151e-07 -3.5128e-16)
(0.133541 -7.99333e-07 -3.21464e-16)
(0.133541 -9.40604e-07 -2.69054e-16)
(0.133542 -1.06177e-06 -4.93203e-16)
(0.133542 -1.15461e-06 -3.81803e-16)
(0.133543 -1.21247e-06 -3.04979e-16)
(0.133543 -1.23089e-06 -2.86634e-16)
(0.133544 -1.20783e-06 -3.23945e-16)
(0.133544 -1.14379e-06 -5.56315e-16)
(0.133545 -1.04166e-06 -4.61881e-16)
(0.133545 -9.06267e-07 -4.24456e-16)
(0.133545 -7.43949e-07 -4.29906e-16)
(0.133546 -5.61796e-07 -4.56984e-16)
(0.133546 -3.67518e-07 -6.44333e-16)
(0.133546 -1.68209e-07 -5.25947e-16)
(0.133546 2.83682e-08 -4.13317e-16)
(0.133546 2.17009e-07 -4.68149e-16)
(0.133546 3.88475e-07 -4.80031e-16)
(0.133545 5.41845e-07 -6.72858e-16)
(0.133545 6.60287e-07 -6.10865e-16)
(0.133545 7.5578e-07 -6.25199e-16)
(0.133545 7.95364e-07 -5.74442e-16)
(0.133545 8.05109e-07 -5.4101e-16)
(0.133544 8.86681e-07 -5.27284e-16)
(0.133541 2.73014e-07 -8.15657e-16)
(0.133542 1.61286e-07 -7.9009e-16)
(0.133541 1.43555e-07 -7.8408e-16)
(0.133541 1.93858e-07 -7.62956e-16)
(0.133541 2.27618e-07 -7.3026e-16)
(0.13354 2.24125e-07 -7.24432e-16)
(0.13354 1.8309e-07 -7.10133e-16)
(0.133539 9.98808e-08 -7.03201e-16)
(0.133539 -1.90428e-08 -6.78614e-16)
(0.133539 -1.89821e-07 -6.48363e-16)
(0.133538 -3.84994e-07 -6.41575e-16)
(0.133538 -6.75431e-07 -6.24034e-16)
(0.133538 -9.35968e-07 -6.22066e-16)
(0.133538 -1.48691e-06 -6.05848e-16)
(0.133538 -1.76827e-06 -5.75321e-16)
(0.133538 -3.21059e-06 -5.80403e-16)
(0.134016 -4.36096e-06 -3.94808e-16)
(0.134016 -3.29411e-06 -3.58688e-16)
(0.134016 -2.50289e-06 -3.4435e-16)
(0.134016 -1.98968e-06 -4.87014e-16)
(0.134016 -1.56287e-06 -5.27323e-16)
(0.134016 -1.21986e-06 -4.97053e-16)
(0.134016 -9.32865e-07 -4.47389e-16)
(0.134016 -6.9029e-07 -4.00667e-16)
(0.134016 -4.87004e-07 -3.42733e-16)
(0.134016 -3.18783e-07 -2.81443e-16)
(0.134016 -1.83077e-07 -2.18555e-16)
(0.134016 -7.85785e-08 -1.7937e-16)
(0.134016 -4.95541e-09 -1.57696e-16)
(0.134016 3.74437e-08 -1.30459e-16)
(0.134016 4.79913e-08 -3.06703e-16)
(0.134016 2.62427e-08 -1.36606e-16)
(0.134016 -2.75688e-08 -1.23055e-16)
(0.134016 -1.12057e-07 -1.25761e-16)
(0.134016 -2.24302e-07 -1.17126e-16)
(0.134016 -3.59607e-07 -3.1766e-16)
(0.134016 -5.11442e-07 -1.17615e-16)
(0.134016 -6.71654e-07 -3.07743e-16)
(0.134017 -8.30909e-07 -2.29081e-16)
(0.134017 -9.79302e-07 -1.62174e-16)
(0.134017 -1.10708e-06 -3.80611e-16)
(0.134018 -1.20542e-06 -2.1487e-16)
(0.134018 -1.26715e-06 -1.98454e-16)
(0.134019 -1.28732e-06 -2.06134e-16)
(0.134019 -1.26364e-06 -2.39116e-16)
(0.13402 -1.19652e-06 -4.57771e-16)
(0.13402 -1.08898e-06 -3.12844e-16)
(0.13402 -9.46186e-07 -3.32687e-16)
(0.134021 -7.7497e-07 -3.62937e-16)
(0.134021 -5.83013e-07 -3.77422e-16)
(0.134021 -3.78662e-07 -5.52989e-16)
(0.134021 -1.69623e-07 -3.95205e-16)
(0.134021 3.57648e-08 -3.89994e-16)
(0.134021 2.31911e-07 -3.99774e-16)
(0.134021 4.09086e-07 -3.93344e-16)
(0.134021 5.66426e-07 -5.89713e-16)
(0.13402 6.85776e-07 -4.97102e-16)
(0.13402 7.81421e-07 -5.50454e-16)
(0.13402 8.10257e-07 -4.66578e-16)
(0.13402 8.21181e-07 -3.96877e-16)
(0.13402 8.10326e-07 -3.99902e-16)
(0.134018 1.63618e-07 -6.5379e-16)
(0.134019 1.51479e-07 -6.30568e-16)
(0.134018 1.83406e-07 -6.07001e-16)
(0.134018 2.41063e-07 -5.96464e-16)
(0.134018 2.75686e-07 -5.73466e-16)
(0.134017 2.7155e-07 -5.60124e-16)
(0.134017 2.29101e-07 -5.49121e-16)
(0.134016 1.43813e-07 -5.43647e-16)
(0.134016 2.19181e-08 -5.33102e-16)
(0.134016 -1.52702e-07 -5.13201e-16)
(0.134015 -3.53193e-07 -4.95253e-16)
(0.134015 -6.50271e-07 -4.77481e-16)
(0.134015 -9.20625e-07 -4.71998e-16)
(0.134015 -1.48516e-06 -4.7016e-16)
(0.134015 -1.78916e-06 -4.49948e-16)
(0.134015 -3.25141e-06 -4.43647e-16)
(0.134424 -4.38066e-06 -2.5876e-16)
(0.134423 -3.31263e-06 -2.23832e-16)
(0.134423 -2.50862e-06 -2.45336e-16)
(0.134423 -1.98958e-06 -4.79867e-16)
(0.134423 -1.55997e-06 -4.73102e-16)
(0.134423 -1.21663e-06 -4.12959e-16)
(0.134423 -9.30616e-07 -3.56914e-16)
(0.134423 -6.89081e-07 -3.09111e-16)
(0.134423 -4.86553e-07 -2.59135e-16)
(0.134423 -3.18676e-07 -2.10122e-16)
(0.134423 -1.82906e-07 -1.56807e-16)
(0.134423 -7.80416e-08 -1.25756e-16)
(0.134423 -3.91562e-09 -1.06608e-16)
(0.134423 3.89055e-08 -9.15321e-17)
(0.134423 4.9538e-08 -1.49889e-16)
(0.134423 2.72599e-08 -8.39087e-17)
(0.134423 -2.79579e-08 -6.66089e-17)
(0.134423 -1.1494e-07 -7.11355e-17)
(0.134423 -2.30901e-07 -7.88158e-17)
(0.134423 -3.71164e-07 -1.46563e-16)
(0.134423 -5.29088e-07 -1.13661e-16)
(0.134423 -6.96259e-07 -1.52683e-16)
(0.134424 -8.62936e-07 -1.00145e-16)
(0.134424 -1.01868e-06 -1.05229e-16)
(0.134424 -1.15312e-06 -1.70242e-16)
(0.134425 -1.25682e-06 -1.34375e-16)
(0.134425 -1.32201e-06 -1.48042e-16)
(0.134426 -1.34335e-06 -1.37479e-16)
(0.134426 -1.31829e-06 -1.91195e-16)
(0.134427 -1.24725e-06 -2.7595e-16)
(0.134427 -1.13347e-06 -2.6821e-16)
(0.134427 -9.82532e-07 -3.10648e-16)
(0.134428 -8.01856e-07 -3.02549e-16)
(0.134428 -5.99772e-07 -3.30946e-16)
(0.134428 -3.85301e-07 -3.79544e-16)
(0.134428 -1.66755e-07 -3.47298e-16)
(0.134428 4.69733e-08 -3.64552e-16)
(0.134428 2.49952e-07 -3.39663e-16)
(0.134427 4.32014e-07 -3.57495e-16)
(0.134427 5.92405e-07 -4.01603e-16)
(0.134427 7.11704e-07 -3.51471e-16)
(0.134427 8.06579e-07 -3.6014e-16)
(0.134427 8.2331e-07 -3.14671e-16)
(0.134427 8.35539e-07 -2.80695e-16)
(0.134426 7.13249e-07 -2.8106e-16)
(0.134427 3.39198e-08 -4.9909e-16)
(0.134427 1.46514e-07 -4.76149e-16)
(0.134427 2.29666e-07 -4.40962e-16)
(0.134426 2.93994e-07 -4.55184e-16)
(0.134426 3.28267e-07 -4.26239e-16)
(0.134425 3.22436e-07 -4.04331e-16)
(0.134425 2.77952e-07 -3.94627e-16)
(0.134425 1.90283e-07 -3.91349e-16)
(0.134424 6.52943e-08 -3.86685e-16)
(0.134424 -1.13149e-07 -3.77586e-16)
(0.134424 -3.18888e-07 -3.53286e-16)
(0.134423 -6.22219e-07 -3.34249e-16)
(0.134423 -9.02227e-07 -3.28764e-16)
(0.134423 -1.47801e-06 -3.39182e-16)
(0.134423 -1.80467e-06 -3.27232e-16)
(0.134423 -3.27399e-06 -3.14581e-16)
(0.134772 -4.3757e-06 -1.28436e-16)
(0.134771 -3.30696e-06 -9.42279e-17)
(0.134771 -2.50121e-06 -1.2838e-16)
(0.134771 -1.98157e-06 -2.99459e-16)
(0.134771 -1.55203e-06 -4.4201e-16)
(0.134771 -1.20976e-06 -3.0765e-16)
(0.134771 -9.2542e-07 -2.45558e-16)
(0.134771 -6.85356e-07 -2.00601e-16)
(0.134771 -4.83869e-07 -1.59284e-16)
(0.134771 -3.16525e-07 -1.22674e-16)
(0.13477 -1.80811e-07 -7.85269e-17)
(0.13477 -7.56603e-08 -6.72209e-17)
(0.13477 -1.10162e-09 -5.38948e-17)
(0.13477 4.20473e-08 -5.75396e-17)
(0.13477 5.26149e-08 -2.11707e-17)
(0.13477 2.95785e-08 5.66574e-18)
(0.13477 -2.73653e-08 -8.69634e-18)
(0.13477 -1.17252e-07 -1.97573e-17)
(0.13477 -2.37409e-07 -5.03462e-17)
(0.13477 -3.83148e-07 -1.6627e-17)
(0.134771 -5.47665e-07 -1.01244e-16)
(0.134771 -7.22224e-07 -4.05666e-17)
(0.134771 -8.96607e-07 2.1678e-17)
(0.134771 -1.05978e-06 -6.12372e-17)
(0.134772 -1.20071e-06 1.52679e-17)
(0.134772 -1.30929e-06 -4.82338e-17)
(0.134773 -1.37724e-06 -1.19099e-16)
(0.134773 -1.39879e-06 -6.77086e-17)
(0.134773 -1.37126e-06 -1.71797e-16)
(0.134774 -1.29515e-06 -1.28635e-16)
(0.134774 -1.17405e-06 -2.08063e-16)
(0.134775 -1.01408e-06 -2.96432e-16)
(0.134775 -8.23307e-07 -1.79135e-16)
(0.134775 -6.10778e-07 -3.12995e-16)
(0.134775 -3.86196e-07 -2.36604e-16)
(0.134775 -1.58465e-07 -2.895e-16)
(0.134775 6.30243e-08 -3.50809e-16)
(0.134775 2.72048e-07 -2.1613e-16)
(0.134774 4.58076e-07 -3.38293e-16)
(0.134774 6.20511e-07 -2.38935e-16)
(0.134774 7.3876e-07 -1.41921e-16)
(0.134774 8.31822e-07 -1.83327e-16)
(0.134773 8.35548e-07 -1.56434e-16)
(0.134773 8.47744e-07 -1.5959e-16)
(0.134773 6.17855e-07 -1.11416e-16)
(0.134775 -9.56211e-08 -3.46415e-16)
(0.134775 1.36216e-07 -3.27087e-16)
(0.134775 2.71115e-07 -2.79617e-16)
(0.134775 3.46154e-07 -2.75637e-16)
(0.134774 3.81552e-07 -2.89206e-16)
(0.134774 3.74251e-07 -2.50654e-16)
(0.134773 3.27689e-07 -2.47099e-16)
(0.134773 2.37607e-07 -2.48704e-16)
(0.134773 1.09543e-07 -2.39278e-16)
(0.134772 -7.26213e-08 -2.42456e-16)
(0.134772 -2.83467e-07 -2.11565e-16)
(0.134772 -5.92604e-07 -1.94946e-16)
(0.134771 -8.81971e-07 -1.94157e-16)
(0.134771 -1.46671e-06 -2.57169e-16)
(0.134771 -1.81496e-06 -2.05646e-16)
(0.134771 -3.28603e-06 -1.87452e-16)
(0.135066 -4.34497e-06 1.06303e-17)
(0.135065 -3.28346e-06 1.22944e-17)
(0.135065 -2.48368e-06 -4.55443e-17)
(0.135065 -1.96637e-06 -1.25752e-16)
(0.135065 -1.53921e-06 -1.97449e-16)
(0.135065 -1.19939e-06 -1.55332e-16)
(0.135065 -9.17492e-07 -1.15444e-16)
(0.135064 -6.79374e-07 -8.04885e-17)
(0.135064 -4.79216e-07 -4.89038e-17)
(0.135064 -3.12563e-07 -2.47326e-17)
(0.135064 -1.76976e-07 1.19803e-17)
(0.135064 -7.15583e-08 -1.17239e-17)
(0.135064 3.42578e-09 -2.09285e-18)
(0.135064 4.68678e-08 -2.58748e-17)
(0.135064 5.72731e-08 8.17309e-17)
(0.135064 3.32939e-08 9.60873e-17)
(0.135064 -2.56594e-08 4.43281e-17)
(0.135064 -1.18829e-07 2.91043e-17)
(0.135064 -2.43635e-07 -2.88499e-17)
(0.135064 -3.95338e-07 7.61223e-17)
(0.135064 -5.66916e-07 1.37468e-17)
(0.135065 -7.49245e-07 9.67226e-17)
(0.135065 -9.3156e-07 1.34658e-16)
(0.135065 -1.10217e-06 7.63254e-17)
(0.135065 -1.24933e-06 1.92135e-16)
(0.135066 -1.36228e-06 1.32013e-16)
(0.135066 -1.43219e-06 2.75794e-17)
(0.135067 -1.45298e-06 2.41383e-17)
(0.135067 -1.4219e-06 -4.96571e-17)
(0.135068 -1.33967e-06 3.11333e-17)
(0.135068 -1.21033e-06 -5.31453e-17)
(0.135068 -1.04063e-06 -1.58277e-16)
(0.135068 -8.39375e-07 -1.50049e-16)
(0.135068 -6.1635e-07 -1.93072e-16)
(0.135068 -3.81942e-07 -7.77578e-17)
(0.135068 -1.45603e-07 -1.34617e-16)
(0.135068 8.28445e-08 -2.12961e-16)
(0.135068 2.96953e-07 -1.84636e-16)
(0.135068 4.85909e-07 -2.12978e-16)
(0.135067 6.49323e-07 -8.19185e-17)
(0.135067 7.6556e-07 -5.86896e-17)
(0.135067 8.5578e-07 -2.61691e-17)
(0.135067 8.46229e-07 -9.05444e-18)
(0.135067 8.56101e-07 -5.28813e-17)
(0.135067 5.33799e-07 -6.8605e-17)
(0.135069 -2.11452e-07 -1.89286e-16)
(0.13507 1.20517e-07 -1.85454e-16)
(0.135069 3.03891e-07 -1.22942e-16)
(0.135069 3.93566e-07 -1.2842e-16)
(0.135069 4.32645e-07 -1.36758e-16)
(0.135068 4.251e-07 -9.82981e-17)
(0.135068 3.77041e-07 -1.0944e-16)
(0.135068 2.84872e-07 -1.17321e-16)
(0.135067 1.53981e-07 -9.17758e-17)
(0.135067 -3.16413e-08 -1.12079e-16)
(0.135067 -2.47319e-07 -6.68804e-17)
(0.135066 -5.61702e-07 -6.2576e-17)
(0.135066 -8.59988e-07 -7.07127e-17)
(0.135066 -1.4513e-06 -6.36742e-17)
(0.135066 -1.81989e-06 -8.34094e-17)
(0.135066 -3.28216e-06 -5.70379e-17)
(0.135313 -4.28956e-06 1.45335e-16)
(0.135312 -3.24516e-06 8.81638e-17)
(0.135312 -2.45828e-06 4.78764e-17)
(0.135312 -1.94535e-06 -1.27956e-17)
(0.135312 -1.52224e-06 -9.9795e-18)
(0.135312 -1.18596e-06 6.82131e-18)
(0.135311 -9.07142e-07 2.47236e-17)
(0.135311 -6.71383e-07 4.69388e-17)
(0.135311 -4.72788e-07 6.70697e-17)
(0.135311 -3.06941e-07 7.89119e-17)
(0.135311 -1.71521e-07 1.1005e-16)
(0.135311 -6.58443e-08 2.69935e-17)
(0.135311 9.54508e-09 4.87891e-17)
(0.135311 5.32071e-08 4.81231e-18)
(0.135311 6.32908e-08 8.63679e-17)
(0.135311 3.81037e-08 1.55868e-16)
(0.135311 -2.32331e-08 7.94971e-17)
(0.135311 -1.20154e-07 7.82165e-17)
(0.135311 -2.50138e-07 -6.97315e-18)
(0.135311 -4.08341e-07 7.54514e-17)
(0.135311 -5.87457e-07 6.89822e-17)
(0.135311 -7.77898e-07 1.35967e-16)
(0.135312 -9.6828e-07 2.17775e-16)
(0.135312 -1.14618e-06 1.85118e-16)
(0.135312 -1.29914e-06 2.79032e-16)
(0.135313 -1.41571e-06 2.40459e-16)
(0.135313 -1.48659e-06 1.35909e-16)
(0.135314 -1.50546e-06 1.21255e-16)
(0.135314 -1.46963e-06 5.30546e-17)
(0.135314 -1.38014e-06 8.64122e-17)
(0.135315 -1.24163e-06 4.14829e-17)
(0.135315 -1.06157e-06 -5.57802e-17)
(0.135315 -8.49563e-07 -5.78778e-17)
(0.135315 -6.16145e-07 -9.31743e-17)
(0.135315 -3.7236e-07 -2.03948e-17)
(0.135315 -1.2815e-07 -3.64352e-17)
(0.135315 1.06316e-07 -1.09083e-16)
(0.135314 3.24442e-07 -8.6572e-17)
(0.135314 5.15232e-07 -1.02089e-16)
(0.135314 6.78533e-07 -7.7367e-18)
(0.135314 7.91838e-07 3.85207e-17)
(0.135313 8.78195e-07 1.2554e-16)
(0.135313 8.55537e-07 1.18152e-16)
(0.135313 8.60394e-07 2.02831e-17)
(0.135313 4.63819e-07 2.643e-17)
(0.135316 -3.06903e-07 -2.10063e-17)
(0.135317 1.03463e-07 -5.64536e-17)
(0.135317 3.28079e-07 4.47885e-17)
(0.135316 4.34316e-07 5.4144e-17)
(0.135316 4.79459e-07 -6.93918e-18)
(0.135316 4.73274e-07 6.41015e-17)
(0.135315 4.24648e-07 1.21559e-17)
(0.135315 3.30947e-07 2.49067e-18)
(0.135315 1.97616e-07 6.22255e-17)
(0.135314 8.89368e-09 3.56156e-18)
(0.135314 -2.11261e-07 8.49595e-17)
(0.135314 -5.30257e-07 5.48681e-17)
(0.135314 -8.36904e-07 4.16363e-17)
(0.135313 -1.43239e-06 8.63025e-17)
(0.135313 -1.81991e-06 2.46044e-17)
(0.135313 -3.26192e-06 8.15038e-17)
(0.135519 -4.21136e-06 2.84412e-16)
(0.135519 -3.19376e-06 9.48722e-17)
(0.135518 -2.42639e-06 1.0979e-16)
(0.135518 -1.91969e-06 1.17627e-16)
(0.135518 -1.50192e-06 1.61078e-16)
(0.135518 -1.16999e-06 1.63911e-16)
(0.135518 -8.94734e-07 1.6554e-16)
(0.135517 -6.61649e-07 1.75644e-16)
(0.135517 -4.64788e-07 1.83937e-16)
(0.135517 -2.99812e-07 1.84333e-16)
(0.135517 -1.64569e-07 2.10064e-16)
(0.135517 -5.86297e-08 2.79265e-17)
(0.135517 1.71343e-08 1.07837e-16)
(0.135517 6.09114e-08 -1.64826e-17)
(0.135517 7.04649e-08 1.01342e-16)
(0.135517 4.37446e-08 2.24083e-16)
(0.135517 -2.04122e-08 6.38249e-17)
(0.135517 -1.21606e-07 1.31149e-16)
(0.135517 -2.57331e-07 1.45628e-17)
(0.135517 -4.22576e-07 8.95373e-17)
(0.135517 -6.09675e-07 1.13014e-16)
(0.135517 -8.08495e-07 2.076e-16)
(0.135518 -1.00696e-06 3.13548e-16)
(0.135518 -1.19187e-06 2.69174e-16)
(0.135518 -1.35001e-06 3.64605e-16)
(0.135519 -1.46929e-06 3.21499e-16)
(0.135519 -1.54e-06 2.05286e-16)
(0.13552 -1.55568e-06 2.23999e-16)
(0.13552 -1.51383e-06 1.38386e-16)
(0.13552 -1.41599e-06 1.54235e-16)
(0.135521 -1.26747e-06 1.06406e-16)
(0.135521 -1.07657e-06 1.27553e-17)
(0.135521 -8.53725e-07 3.43527e-17)
(0.135521 -6.10218e-07 -9.77805e-18)
(0.135521 -3.57699e-07 5.1501e-17)
(0.13552 -1.06517e-07 3.45724e-17)
(0.13552 1.32905e-07 -3.77577e-17)
(0.13552 3.5391e-07 1.36887e-17)
(0.13552 5.45414e-07 -7.10932e-18)
(0.13552 7.07531e-07 5.71497e-17)
(0.135519 8.17066e-07 1.40581e-16)
(0.135519 8.98615e-07 1.59671e-16)
(0.135519 8.63386e-07 2.06525e-16)
(0.135519 8.60676e-07 2.41604e-17)
(0.135519 4.07896e-07 1.31286e-16)
(0.135523 -3.79573e-07 1.80237e-16)
(0.135523 8.86873e-08 1.71298e-16)
(0.135523 3.45504e-07 2.39774e-16)
(0.135523 4.68315e-07 2.02052e-16)
(0.135523 5.21109e-07 2.1744e-16)
(0.135522 5.17773e-07 2.55668e-16)
(0.135522 4.6961e-07 2.26881e-16)
(0.135522 3.75049e-07 2.40584e-16)
(0.135521 2.39759e-07 2.27405e-16)
(0.135521 4.83676e-08 2.12085e-16)
(0.135521 -1.75838e-07 2.55634e-16)
(0.13552 -4.98753e-07 2.64951e-16)
(0.13552 -8.13098e-07 2.73439e-16)
(0.13552 -1.41038e-06 2.43831e-16)
(0.13552 -1.81522e-06 2.25451e-16)
(0.13552 -3.22617e-06 2.43298e-16)
(0.135691 -4.11295e-06 3.66897e-16)
(0.13569 -3.13077e-06 2.40991e-16)
(0.13569 -2.38891e-06 1.76604e-16)
(0.13569 -1.89028e-06 2.47035e-16)
(0.135689 -1.47897e-06 3.34751e-16)
(0.135689 -1.15198e-06 3.06293e-16)
(0.135689 -8.80632e-07 2.99069e-16)
(0.135689 -6.50434e-07 2.99592e-16)
(0.135689 -4.55404e-07 2.97088e-16)
(0.135689 -2.91318e-07 2.88336e-16)
(0.135689 -1.56232e-07 3.03324e-16)
(0.135689 -5.00249e-08 1.96706e-16)
(0.135689 2.60641e-08 2.03478e-16)
(0.135689 6.98135e-08 1.50418e-16)
(0.135688 7.85775e-08 1.67859e-16)
(0.135688 4.99435e-08 2.95424e-16)
(0.135688 -1.75197e-08 2.15149e-16)
(0.135688 -1.23545e-07 2.14685e-16)
(0.135688 -2.65584e-07 1.30312e-16)
(0.135689 -4.38389e-07 1.6064e-16)
(0.135689 -6.33852e-07 1.57293e-16)
(0.135689 -8.41214e-07 3.57263e-16)
(0.135689 -1.04763e-06 5.00305e-16)
(0.13569 -1.23911e-06 3.23972e-16)
(0.13569 -1.40164e-06 4.65101e-16)
(0.13569 -1.52258e-06 3.747e-16)
(0.135691 -1.59186e-06 2.41874e-16)
(0.135691 -1.60304e-06 3.07756e-16)
(0.135691 -1.55395e-06 1.99742e-16)
(0.135692 -1.44674e-06 2.22651e-16)
(0.135692 -1.28754e-06 1.46668e-16)
(0.135692 -1.08552e-06 5.45461e-17)
(0.135692 -8.51961e-07 1.81791e-16)
(0.135692 -5.98879e-07 5.27574e-17)
(0.135692 -3.38447e-07 1.23424e-16)
(0.135692 -8.13325e-08 8.13713e-17)
(0.135691 1.61899e-07 7.57666e-18)
(0.135691 3.84609e-07 1.67137e-16)
(0.135691 5.75727e-07 6.61644e-17)
(0.135691 7.35647e-07 1.33642e-16)
(0.13569 8.40691e-07 3.01678e-16)
(0.13569 9.1661e-07 1.82897e-16)
(0.13569 8.69627e-07 2.79914e-16)
(0.13569 8.5725e-07 1.82508e-16)
(0.13569 3.64961e-07 2.58941e-16)
(0.135695 -4.29727e-07 3.86504e-16)
(0.135695 7.84518e-08 3.83213e-16)
(0.135695 3.58397e-07 4.56498e-16)
(0.135695 4.9648e-07 3.14799e-16)
(0.135694 5.57597e-07 4.34313e-16)
(0.135694 5.58215e-07 4.2008e-16)
(0.135694 5.11443e-07 4.2486e-16)
(0.135693 4.167e-07 4.60254e-16)
(0.135693 2.79963e-07 3.70684e-16)
(0.135693 8.63753e-08 4.04064e-16)
(0.135693 -1.41408e-07 4.67687e-16)
(0.135692 -4.67497e-07 4.56279e-16)
(0.135692 -7.88789e-07 5.37358e-16)
(0.135692 -1.38552e-06 3.78052e-16)
(0.135692 -1.8059e-06 4.1009e-16)
(0.135692 -3.1763e-06 4.50936e-16)
(0.135833 -3.99732e-06 5.25578e-16)
(0.135833 -3.0577e-06 3.87615e-16)
(0.135832 -2.34642e-06 3.36854e-16)
(0.135832 -1.85771e-06 3.45536e-16)
(0.135832 -1.45391e-06 4.20835e-16)
(0.135832 -1.13237e-06 4.18002e-16)
(0.135831 -8.6516e-07 4.23312e-16)
(0.135831 -6.37967e-07 4.13018e-16)
(0.135831 -4.44796e-07 4.02243e-16)
(0.135831 -2.81576e-07 3.88247e-16)
(0.135831 -1.46615e-07 3.9057e-16)
(0.135831 -4.01412e-08 3.14035e-16)
(0.135831 3.61942e-08 2.97651e-16)
(0.135831 7.97288e-08 2.55064e-16)
(0.135831 8.73923e-08 2.65629e-16)
(0.135831 5.64141e-08 2.85432e-16)
(0.135831 -1.48804e-08 2.8864e-16)
(0.135831 -1.2631e-07 3.06152e-16)
(0.135831 -2.75224e-07 2.40162e-16)
(0.135831 -4.56057e-07 2.52311e-16)
(0.135831 -6.60178e-07 1.96611e-16)
(0.135831 -8.76122e-07 2.62138e-16)
(0.135832 -1.09023e-06 3.95113e-16)
(0.135832 -1.28765e-06 3.32065e-16)
(0.135832 -1.45366e-06 3.88428e-16)
(0.135833 -1.57507e-06 3.73095e-16)
(0.135833 -1.64162e-06 2.56287e-16)
(0.135833 -1.647e-06 3.19727e-16)
(0.135834 -1.58951e-06 2.07759e-16)
(0.135834 -1.47207e-06 1.96932e-16)
(0.135834 -1.30169e-06 1.46379e-16)
(0.135834 -1.08849e-06 7.83086e-17)
(0.135834 -8.44585e-07 1.53009e-16)
(0.135834 -5.82639e-07 7.84404e-17)
(0.135834 -3.15273e-07 1.02414e-16)
(0.135834 -5.33613e-08 8.9016e-17)
(0.135833 1.92491e-07 3.6251e-17)
(0.135833 4.15742e-07 1.45111e-16)
(0.135833 6.05436e-07 1.04563e-16)
(0.135833 7.62241e-07 1.25746e-16)
(0.135832 8.62208e-07 2.65576e-16)
(0.135832 9.31836e-07 1.60142e-16)
(0.135832 8.74126e-07 2.62639e-16)
(0.135832 8.50561e-07 2.65078e-16)
(0.135832 3.33541e-07 3.14019e-16)
(0.135837 -4.59105e-07 3.92868e-16)
(0.135837 7.38252e-08 4.60122e-16)
(0.135837 3.68752e-07 4.5318e-16)
(0.135837 5.20101e-07 3.78886e-16)
(0.135837 5.89457e-07 4.78294e-16)
(0.135837 5.94673e-07 4.56618e-16)
(0.135836 5.50002e-07 4.98574e-16)
(0.135836 4.55673e-07 5.58052e-16)
(0.135836 3.17986e-07 4.66166e-16)
(0.135836 1.22687e-07 4.95267e-16)
(0.135835 -1.08171e-07 4.59976e-16)
(0.135835 -4.36658e-07 5.32322e-16)
(0.135835 -7.64072e-07 5.83901e-16)
(0.135835 -1.358e-06 4.58499e-16)
(0.135834 -1.79196e-06 4.94396e-16)
(0.135834 -3.11388e-06 4.35892e-16)
(0.135952 -3.86753e-06 6.54079e-16)
(0.135951 -2.97611e-06 5.57609e-16)
(0.135951 -2.29935e-06 4.85783e-16)
(0.13595 -1.82236e-06 4.62839e-16)
(0.13595 -1.42711e-06 5.03286e-16)
(0.13595 -1.11147e-06 5.21927e-16)
(0.13595 -8.48562e-07 5.39385e-16)
(0.13595 -6.24425e-07 5.50133e-16)
(0.135949 -4.33092e-07 4.96779e-16)
(0.135949 -2.70685e-07 4.82267e-16)
(0.135949 -1.35813e-07 4.54426e-16)
(0.135949 -2.90936e-08 3.93974e-16)
(0.135949 4.73723e-08 4.12616e-16)
(0.135949 9.04575e-08 3.40388e-16)
(0.135949 9.66605e-08 3.32139e-16)
(0.135949 6.28673e-08 3.63702e-16)
(0.135949 -1.28054e-08 3.54598e-16)
(0.135949 -1.3021e-07 4.4957e-16)
(0.135949 -2.8652e-07 3.35995e-16)
(0.135949 -4.75775e-07 3.30218e-16)
(0.135949 -6.88738e-07 2.96114e-16)
(0.13595 -9.13167e-07 3.62065e-16)
(0.13595 -1.13454e-06 4.00464e-16)
(0.13595 -1.33715e-06 4.28705e-16)
(0.135951 -1.50559e-06 4.21817e-16)
(0.135951 -1.62622e-06 4.19582e-16)
(0.135951 -1.68871e-06 3.47061e-16)
(0.135952 -1.68704e-06 3.35096e-16)
(0.135952 -1.62015e-06 2.75391e-16)
(0.135952 -1.49181e-06 2.62975e-16)
(0.135952 -1.31e-06 2.69519e-16)
(0.135952 -1.0858e-06 2.19335e-16)
(0.135952 -8.32112e-07 1.99305e-16)
(0.135952 -5.62187e-07 2.08148e-16)
(0.135952 -2.88979e-07 1.80217e-16)
(0.135951 -2.34648e-08 1.76913e-16)
(0.135951 2.2382e-07 1.47064e-16)
(0.135951 4.46504e-07 1.97661e-16)
(0.135951 6.33831e-07 1.92908e-16)
(0.135951 7.86729e-07 2.16251e-16)
(0.13595 8.81189e-07 3.04364e-16)
(0.13595 9.44044e-07 2.13728e-16)
(0.13595 8.76788e-07 2.80242e-16)
(0.13595 8.41122e-07 3.28976e-16)
(0.13595 3.12066e-07 3.6401e-16)
(0.135956 -4.70129e-07 4.9384e-16)
(0.135956 7.50425e-08 5.6001e-16)
(0.135956 3.78102e-07 5.50136e-16)
(0.135955 5.40458e-07 4.41624e-16)
(0.135955 6.17454e-07 5.61579e-16)
(0.135955 6.27499e-07 5.56457e-16)
(0.135955 5.85388e-07 5.99981e-16)
(0.135955 4.91947e-07 6.52543e-16)
(0.135954 3.53756e-07 5.20031e-16)
(0.135954 1.57222e-07 5.99948e-16)
(0.135954 -7.61933e-08 5.78714e-16)
(0.135954 -4.06285e-07 6.32902e-16)
(0.135953 -7.38944e-07 6.7765e-16)
(0.135953 -1.32795e-06 5.18151e-16)
(0.135953 -1.77338e-06 5.90686e-16)
(0.135953 -3.04054e-06 5.50933e-16)
(0.136051 -3.72658e-06 7.09547e-16)
(0.13605 -2.88747e-06 6.67266e-16)
(0.136049 -2.24808e-06 6.05494e-16)
(0.136049 -1.78447e-06 5.15308e-16)
(0.136049 -1.39878e-06 6.04586e-16)
(0.136048 -1.08947e-06 6.2256e-16)
(0.136048 -8.31001e-07 6.47424e-16)
(0.136048 -6.09929e-07 5.77784e-16)
(0.136048 -4.20382e-07 5.82739e-16)
(0.136048 -2.58726e-07 5.65385e-16)
(0.136048 -1.23918e-07 4.96267e-16)
(0.136048 -1.70045e-08 4.43103e-16)
(0.136048 5.94333e-08 4.303e-16)
(0.136048 1.01787e-07 4.13268e-16)
(0.136048 1.06128e-07 4.11677e-16)
(0.136048 6.90227e-08 4.24474e-16)
(0.136048 -1.15787e-08 4.20327e-16)
(0.136048 -1.355e-07 4.34836e-16)
(0.136048 -2.99668e-07 4.08058e-16)
(0.136048 -4.97645e-07 4.03341e-16)
(0.136048 -7.19508e-07 3.63552e-16)
(0.136048 -9.52181e-07 3.89618e-16)
(0.136048 -1.18024e-06 4.21155e-16)
(0.136049 -1.38716e-06 4.31838e-16)
(0.136049 -1.55689e-06 4.5203e-16)
(0.13605 -1.67548e-06 4.66545e-16)
(0.13605 -1.73263e-06 3.98168e-16)
(0.13605 -1.7228e-06 3.65063e-16)
(0.13605 -1.64567e-06 3.27841e-16)
(0.13605 -1.50598e-06 3.18356e-16)
(0.13605 -1.31273e-06 2.88384e-16)
(0.13605 -1.07793e-06 2.57593e-16)
(0.13605 -8.15228e-07 2.50745e-16)
(0.13605 -5.38348e-07 2.39081e-16)
(0.13605 -2.60466e-07 2.51504e-16)
(0.13605 7.44836e-09 2.54947e-16)
(0.13605 2.55025e-07 2.39114e-16)
(0.136049 4.76122e-07 2.59465e-16)
(0.136049 6.60265e-07 2.74492e-16)
(0.136049 8.08611e-07 2.95446e-16)
(0.136049 8.97296e-07 3.51778e-16)
(0.136049 9.53085e-07 3.14289e-16)
(0.136049 8.77572e-07 3.35957e-16)
(0.136049 8.29461e-07 3.95462e-16)
(0.136049 2.99029e-07 4.25722e-16)
(0.136054 -4.65432e-07 5.90041e-16)
(0.136054 8.18359e-08 5.78689e-16)
(0.136054 3.8753e-07 6.20399e-16)
(0.136054 5.5865e-07 5.77477e-16)
(0.136054 6.42394e-07 6.09106e-16)
(0.136054 6.5718e-07 6.5003e-16)
(0.136054 6.17855e-07 6.23362e-16)
(0.136053 5.25638e-07 6.47897e-16)
(0.136053 3.87324e-07 6.26473e-16)
(0.136053 1.90011e-07 6.44525e-16)
(0.136053 -4.54399e-08 6.76223e-16)
(0.136052 -3.76335e-07 6.53544e-16)
(0.136052 -7.13322e-07 6.70837e-16)
(0.136052 -1.29543e-06 6.15027e-16)
(0.136052 -1.75015e-06 6.35512e-16)
(0.136052 -2.95786e-06 6.43745e-16)
(0.136133 -3.57722e-06 7.79295e-16)
(0.136132 -2.79317e-06 7.48753e-16)
(0.136132 -2.19294e-06 6.95194e-16)
(0.136132 -1.74422e-06 6.39244e-16)
(0.136131 -1.36904e-06 7.1149e-16)
(0.136131 -1.06647e-06 7.14399e-16)
(0.136131 -8.12563e-07 6.92656e-16)
(0.136131 -5.94548e-07 6.09332e-16)
(0.136131 -4.06727e-07 6.90936e-16)
(0.136131 -2.45768e-07 6.03625e-16)
(0.136131 -1.11023e-07 4.89847e-16)
(0.136131 -4.00545e-09 4.7647e-16)
(0.136131 7.22003e-08 4.75652e-16)
(0.13613 1.13498e-07 4.7858e-16)
(0.13613 1.15544e-07 4.56468e-16)
(0.13613 7.46175e-08 4.89288e-16)
(0.13613 -1.14462e-08 4.82836e-16)
(0.13613 -1.42379e-07 4.76879e-16)
(0.13613 -3.14782e-07 4.75204e-16)
(0.136131 -5.21666e-07 4.5826e-16)
(0.136131 -7.52354e-07 4.05843e-16)
(0.136131 -9.92887e-07 4.41147e-16)
(0.136131 -1.22694e-06 4.52073e-16)
(0.136132 -1.43718e-06 4.55424e-16)
(0.136132 -1.60702e-06 4.81237e-16)
(0.136132 -1.7223e-06 4.76179e-16)
(0.136133 -1.77295e-06 4.30558e-16)
(0.136133 -1.75399e-06 3.96654e-16)
(0.136133 -1.66601e-06 3.66838e-16)
(0.136133 -1.51478e-06 3.62522e-16)
(0.136133 -1.31033e-06 3.30613e-16)
(0.136133 -1.06555e-06 3.13023e-16)
(0.136133 -7.94749e-07 3.03623e-16)
(0.136133 -5.12033e-07 2.99812e-16)
(0.136133 -2.30672e-07 3.18594e-16)
(0.136132 3.84699e-08 3.18483e-16)
(0.136132 2.8528e-07 3.11829e-16)
(0.136132 5.03892e-07 3.233e-16)
(0.136132 6.84182e-07 3.33205e-16)
(0.136132 8.27488e-07 3.67382e-16)
(0.136132 9.10293e-07 4.02273e-16)
(0.136131 9.58912e-07 4.10824e-16)
(0.136131 8.765e-07 3.97786e-16)
(0.136131 8.16097e-07 4.77638e-16)
(0.136132 2.93053e-07 4.92685e-16)
(0.136137 -4.47601e-07 6.94428e-16)
(0.136137 9.36788e-08 5.90617e-16)
(0.136137 3.97748e-07 6.98652e-16)
(0.136137 5.75537e-07 7.14687e-16)
(0.136137 6.65007e-07 6.7695e-16)
(0.136137 6.84232e-07 7.52572e-16)
(0.136136 6.47732e-07 6.39285e-16)
(0.136136 5.56954e-07 6.54095e-16)
(0.136136 4.18831e-07 7.25856e-16)
(0.136136 2.21167e-07 7.02214e-16)
(0.136136 -1.58013e-08 7.76463e-16)
(0.136135 -3.46703e-07 6.65299e-16)
(0.136135 -6.87077e-07 6.74258e-16)
(0.136135 -1.26049e-06 7.17668e-16)
(0.136135 -1.72226e-06 6.90539e-16)
(0.136135 -2.86733e-06 7.39968e-16)
(0.136204 -3.42189e-06 8.54074e-16)
(0.136203 -2.69444e-06 8.14017e-16)
(0.136202 -2.13424e-06 7.63965e-16)
(0.136202 -1.70172e-06 7.31532e-16)
(0.136202 -1.33793e-06 6.66816e-16)
(0.136202 -1.04249e-06 7.94732e-16)
(0.136201 -7.93272e-07 6.13951e-16)
(0.136201 -5.78311e-07 6.26378e-16)
(0.136201 -3.92163e-07 6.50529e-16)
(0.136201 -2.31871e-07 4.82996e-16)
(0.136201 -9.72258e-08 4.68856e-16)
(0.136201 9.76178e-09 5.09466e-16)
(0.136201 8.54868e-08 5.20519e-16)
(0.136201 1.25368e-07 5.43195e-16)
(0.136201 1.24667e-07 5.06011e-16)
(0.136201 7.94169e-08 5.66873e-16)
(0.136201 -1.26067e-08 5.43404e-16)
(0.136201 -1.50975e-07 5.28928e-16)
(0.136201 -3.31895e-07 5.45034e-16)
(0.136201 -5.47748e-07 5.06853e-16)
(0.136201 -7.87048e-07 4.26922e-16)
(0.136201 -1.03492e-06 5.05784e-16)
(0.136202 -1.27415e-06 4.84844e-16)
(0.136202 -1.48667e-06 4.83508e-16)
(0.136202 -1.65543e-06 5.75352e-16)
(0.136203 -1.76623e-06 4.91749e-16)
(0.136203 -1.80934e-06 4.59762e-16)
(0.136203 -1.78051e-06 4.28436e-16)
(0.136203 -1.68131e-06 4.05945e-16)
(0.136203 -1.51857e-06 4.01718e-16)
(0.136203 -1.30338e-06 3.77992e-16)
(0.136203 -1.04943e-06 3.63766e-16)
(0.136203 -7.71578e-07 3.58635e-16)
(0.136203 -4.84196e-07 3.61428e-16)
(0.136203 -2.00537e-07 3.80737e-16)
(0.136202 6.8734e-08 3.79264e-16)
(0.136202 3.13834e-07 3.80341e-16)
(0.136202 5.29207e-07 3.86825e-16)
(0.136202 7.05131e-07 3.96135e-16)
(0.136202 8.43073e-07 4.616e-16)
(0.136202 9.20049e-07 4.51688e-16)
(0.136202 9.61574e-07 4.96477e-16)
(0.136202 8.73657e-07 4.5527e-16)
(0.136202 8.01528e-07 5.87716e-16)
(0.136202 2.9292e-07 5.59518e-16)
(0.136207 -4.1904e-07 7.31616e-16)
(0.136207 1.09943e-07 6.52547e-16)
(0.136207 4.09195e-07 7.32342e-16)
(0.136207 5.91757e-07 8.24133e-16)
(0.136207 6.85904e-07 7.36042e-16)
(0.136207 7.09138e-07 7.89387e-16)
(0.136207 6.75366e-07 7.01582e-16)
(0.136207 5.86144e-07 6.80852e-16)
(0.136206 4.48468e-07 8.55621e-16)
(0.136206 2.50856e-07 7.5345e-16)
(0.136206 1.28811e-08 8.08343e-16)
(0.136206 -3.17242e-07 7.22642e-16)
(0.136206 -6.60053e-07 6.97472e-16)
(0.136205 -1.22315e-06 8.15977e-16)
(0.136205 -1.68975e-06 7.36452e-16)
(0.136205 -2.77031e-06 7.71027e-16)
(0.136264 -3.26272e-06 8.70774e-16)
(0.136263 -2.59234e-06 8.58638e-16)
(0.136263 -2.07228e-06 8.18964e-16)
(0.136263 -1.65708e-06 8.0314e-16)
(0.136262 -1.30543e-06 6.68084e-16)
(0.136262 -1.0175e-06 8.24114e-16)
(0.136262 -7.73111e-07 6.53796e-16)
(0.136262 -5.61213e-07 6.50861e-16)
(0.136262 -3.76716e-07 6.33065e-16)
(0.136262 -2.17097e-07 4.51159e-16)
(0.136262 -8.26304e-08 4.72919e-16)
(0.136262 2.41462e-08 5.55547e-16)
(0.136261 9.91009e-08 5.6839e-16)
(0.136261 1.37177e-07 6.07115e-16)
(0.136261 1.33275e-07 6.30557e-16)
(0.136261 8.3222e-08 5.90376e-16)
(0.136261 -1.52046e-08 5.94286e-16)
(0.136261 -1.6135e-07 5.9294e-16)
(0.136261 -3.50953e-07 6.1844e-16)
(0.136262 -5.75709e-07 6.28165e-16)
(0.136262 -8.23277e-07 5.30043e-16)
(0.136262 -1.07786e-06 5.22632e-16)
(0.136262 -1.32138e-06 5.05944e-16)
(0.136263 -1.5351e-06 5.15837e-16)
(0.136263 -1.70164e-06 5.30188e-16)
(0.136263 -1.80689e-06 5.08352e-16)
(0.136263 -1.8416e-06 4.9199e-16)