/*--------------------------------*- C++ -*----------------------------------*\
  =========                 |
  \\      /  F ield         | OpenFOAM: The Open Source CFD Toolbox
   \\    /   O peration     | Website:  https://openfoam.org
    \\  /    A nd           | Version:  7
     \\/     M anipulation  |
\*---------------------------------------------------------------------------*/
FoamFile
{
    version     2.0;
    format      ascii;
    class       volScalarField;
    location    "2000";
    object      k;
}
// * * * * * * * * * * * * * * * * * * * * * * * * * * * * * * * * * * * * * //

dimensions      [0 2 -2 0 0 0 0];

internalField   nonuniform List<scalar> 
4000
(
3.9023e-05
3.90218e-05
3.90216e-05
3.90217e-05
3.90218e-05
3.90219e-05
3.9022e-05
3.90221e-05
3.90223e-05
3.90224e-05
3.90225e-05
3.90226e-05
3.90227e-05
3.90228e-05
3.90229e-05
3.9023e-05
3.90232e-05
3.90233e-05
3.90234e-05
3.90235e-05
3.90236e-05
3.90237e-05
3.90238e-05
3.9024e-05
3.90241e-05
3.90242e-05
3.90243e-05
3.90244e-05
3.90245e-05
3.90247e-05
3.90248e-05
3.90249e-05
3.9025e-05
3.90251e-05
3.90253e-05
3.90254e-05
3.90255e-05
3.90256e-05
3.90258e-05
3.90259e-05
3.9026e-05
3.90261e-05
3.90263e-05
3.90264e-05
3.90266e-05
3.90257e-05
3.9025e-05
3.90246e-05
3.90245e-05
3.90245e-05
3.90245e-05
3.90246e-05
3.90247e-05
3.90248e-05
3.9025e-05
3.90251e-05
3.90252e-05
3.90253e-05
3.90255e-05
3.90256e-05
3.90257e-05
3.90259e-05
3.9026e-05
3.90261e-05
3.90262e-05
3.90264e-05
3.90265e-05
3.90266e-05
3.90268e-05
3.90269e-05
3.9027e-05
3.90271e-05
3.90272e-05
3.90274e-05
3.90275e-05
3.90276e-05
3.90277e-05
3.90278e-05
3.90279e-05
3.9028e-05
3.90282e-05
3.90283e-05
3.90284e-05
3.90285e-05
3.90286e-05
3.90287e-05
3.90288e-05
3.90289e-05
3.9029e-05
3.90291e-05
3.90291e-05
3.90292e-05
3.90293e-05
3.90294e-05
3.90295e-05
3.90296e-05
3.90296e-05
3.90297e-05
3.90298e-05
3.90299e-05
3.90299e-05
3.903e-05
3.90301e-05
3.90303e-05
3.90293e-05
3.90285e-05
3.9028e-05
3.90278e-05
3.90278e-05
3.90278e-05
3.90278e-05
3.90278e-05
3.90279e-05
3.90279e-05
3.9028e-05
3.9028e-05
3.90281e-05
3.90282e-05
3.90282e-05
3.90284e-05
3.91543e-05
3.91531e-05
3.91529e-05
3.91529e-05
3.91529e-05
3.9153e-05
3.91531e-05
3.91532e-05
3.91533e-05
3.91534e-05
3.91535e-05
3.91536e-05
3.91537e-05
3.91538e-05
3.91539e-05
3.9154e-05
3.91541e-05
3.91542e-05
3.91543e-05
3.91544e-05
3.91545e-05
3.91546e-05
3.91547e-05
3.91548e-05
3.91549e-05
3.9155e-05
3.91551e-05
3.91552e-05
3.91553e-05
3.91554e-05
3.91556e-05
3.91557e-05
3.91558e-05
3.91559e-05
3.9156e-05
3.91561e-05
3.91562e-05
3.91564e-05
3.91565e-05
3.91566e-05
3.91567e-05
3.91568e-05
3.9157e-05
3.91571e-05
3.91572e-05
3.91572e-05
3.9157e-05
3.91567e-05
3.91566e-05
3.91564e-05
3.91564e-05
3.91564e-05
3.91564e-05
3.91564e-05
3.91565e-05
3.91566e-05
3.91567e-05
3.91567e-05
3.91568e-05
3.91569e-05
3.9157e-05
3.91571e-05
3.91572e-05
3.91573e-05
3.91574e-05
3.91576e-05
3.91577e-05
3.91578e-05
3.91579e-05
3.9158e-05
3.91581e-05
3.91582e-05
3.91583e-05
3.91584e-05
3.91585e-05
3.91586e-05
3.91587e-05
3.91588e-05
3.91589e-05
3.9159e-05
3.91591e-05
3.91592e-05
3.91593e-05
3.91594e-05
3.91595e-05
3.91596e-05
3.91596e-05
3.91597e-05
3.91598e-05
3.91599e-05
3.916e-05
3.91601e-05
3.91601e-05
3.91602e-05
3.91603e-05
3.91604e-05
3.91604e-05
3.91605e-05
3.91606e-05
3.91606e-05
3.91607e-05
3.91608e-05
3.91608e-05
3.91609e-05
3.91608e-05
3.91605e-05
3.91602e-05
3.916e-05
3.91598e-05
3.91597e-05
3.91596e-05
3.91596e-05
3.91595e-05
3.91595e-05
3.91595e-05
3.91595e-05
3.91595e-05
3.91596e-05
3.91596e-05
3.91598e-05
3.93727e-05
3.93715e-05
3.93713e-05
3.93712e-05
3.93713e-05
3.93713e-05
3.93714e-05
3.93715e-05
3.93715e-05
3.93716e-05
3.93717e-05
3.93718e-05
3.93719e-05
3.93719e-05
3.9372e-05
3.93721e-05
3.93722e-05
3.93723e-05
3.93724e-05
3.93725e-05
3.93726e-05
3.93727e-05
3.93728e-05
3.93729e-05
3.9373e-05
3.93731e-05
3.93732e-05
3.93733e-05
3.93734e-05
3.93735e-05
3.93736e-05
3.93737e-05
3.93738e-05
3.93739e-05
3.93741e-05
3.93742e-05
3.93743e-05
3.93744e-05
3.93745e-05
3.93746e-05
3.93747e-05
3.93749e-05
3.9375e-05
3.93751e-05
3.93752e-05
3.93753e-05
3.93753e-05
3.93753e-05
3.93752e-05
3.93752e-05
3.93752e-05
3.93751e-05
3.93751e-05
3.93752e-05
3.93752e-05
3.93752e-05
3.93753e-05
3.93754e-05
3.93754e-05
3.93755e-05
3.93756e-05
3.93757e-05
3.93757e-05
3.93758e-05
3.93759e-05
3.9376e-05
3.93761e-05
3.93762e-05
3.93763e-05
3.93764e-05
3.93765e-05
3.93766e-05
3.93767e-05
3.93767e-05
3.93768e-05
3.93769e-05
3.9377e-05
3.93771e-05
3.93772e-05
3.93773e-05
3.93774e-05
3.93774e-05
3.93775e-05
3.93776e-05
3.93777e-05
3.93778e-05
3.93779e-05
3.93779e-05
3.9378e-05
3.93781e-05
3.93782e-05
3.93782e-05
3.93783e-05
3.93784e-05
3.93784e-05
3.93785e-05
3.93786e-05
3.93786e-05
3.93787e-05
3.93787e-05
3.93788e-05
3.93789e-05
3.93789e-05
3.9379e-05
3.9379e-05
3.9379e-05
3.93789e-05
3.93788e-05
3.93786e-05
3.93785e-05
3.93784e-05
3.93784e-05
3.93783e-05
3.93783e-05
3.93782e-05
3.93782e-05
3.93782e-05
3.93782e-05
3.93782e-05
3.93784e-05
3.9673e-05
3.96717e-05
3.96715e-05
3.96715e-05
3.96715e-05
3.96716e-05
3.96716e-05
3.96717e-05
3.96717e-05
3.96718e-05
3.96719e-05
3.9672e-05
3.9672e-05
3.96721e-05
3.96722e-05
3.96723e-05
3.96724e-05
3.96725e-05
3.96725e-05
3.96726e-05
3.96727e-05
3.96728e-05
3.96729e-05
3.9673e-05
3.96731e-05
3.96732e-05
3.96733e-05
3.96734e-05
3.96735e-05
3.96736e-05
3.96737e-05
3.96738e-05
3.96739e-05
3.9674e-05
3.96742e-05
3.96743e-05
3.96744e-05
3.96745e-05
3.96746e-05
3.96747e-05
3.96748e-05
3.9675e-05
3.96751e-05
3.96752e-05
3.96753e-05
3.96754e-05
3.96755e-05
3.96756e-05
3.96756e-05
3.96757e-05
3.96757e-05
3.96757e-05
3.96757e-05
3.96758e-05
3.96758e-05
3.96758e-05
3.96759e-05
3.96759e-05
3.9676e-05
3.96761e-05
3.96761e-05
3.96762e-05
3.96763e-05
3.96763e-05
3.96764e-05
3.96765e-05
3.96766e-05
3.96767e-05
3.96767e-05
3.96768e-05
3.96769e-05
3.9677e-05
3.96771e-05
3.96772e-05
3.96772e-05
3.96773e-05
3.96774e-05
3.96775e-05
3.96776e-05
3.96776e-05
3.96777e-05
3.96778e-05
3.96779e-05
3.96779e-05
3.9678e-05
3.96781e-05
3.96781e-05
3.96782e-05
3.96783e-05
3.96784e-05
3.96784e-05
3.96785e-05
3.96785e-05
3.96786e-05
3.96787e-05
3.96787e-05
3.96788e-05
3.96789e-05
3.96789e-05
3.9679e-05
3.9679e-05
3.96791e-05
3.96791e-05
3.96792e-05
3.96792e-05
3.96792e-05
3.96792e-05
3.96792e-05
3.96792e-05
3.96791e-05
3.96791e-05
3.9679e-05
3.9679e-05
3.96789e-05
3.96789e-05
3.96789e-05
3.96789e-05
3.96788e-05
3.96788e-05
3.9679e-05
4.00506e-05
4.00493e-05
4.0049e-05
4.0049e-05
4.0049e-05
4.00491e-05
4.00491e-05
4.00492e-05
4.00493e-05
4.00493e-05
4.00494e-05
4.00495e-05
4.00495e-05
4.00496e-05
4.00497e-05
4.00498e-05
4.00499e-05
4.005e-05
4.005e-05
4.00501e-05
4.00502e-05
4.00503e-05
4.00504e-05
4.00505e-05
4.00506e-05
4.00507e-05
4.00508e-05
4.00509e-05
4.0051e-05
4.00511e-05
4.00512e-05
4.00513e-05
4.00515e-05
4.00516e-05
4.00517e-05
4.00518e-05
4.00519e-05
4.0052e-05
4.00521e-05
4.00523e-05
4.00524e-05
4.00525e-05
4.00526e-05
4.00527e-05
4.00528e-05
4.00529e-05
4.00531e-05
4.00532e-05
4.00533e-05
4.00533e-05
4.00534e-05
4.00535e-05
4.00535e-05
4.00536e-05
4.00536e-05
4.00537e-05
4.00538e-05
4.00538e-05
4.00539e-05
4.00539e-05
4.0054e-05
4.00541e-05
4.00542e-05
4.00542e-05
4.00543e-05
4.00544e-05
4.00544e-05
4.00545e-05
4.00546e-05
4.00547e-05
4.00547e-05
4.00548e-05
4.00549e-05
4.0055e-05
4.0055e-05
4.00551e-05
4.00552e-05
4.00553e-05
4.00553e-05
4.00554e-05
4.00555e-05
4.00556e-05
4.00556e-05
4.00557e-05
4.00558e-05
4.00558e-05
4.00559e-05
4.00559e-05
4.0056e-05
4.00561e-05
4.00561e-05
4.00562e-05
4.00562e-05
4.00563e-05
4.00564e-05
4.00564e-05
4.00565e-05
4.00565e-05
4.00566e-05
4.00566e-05
4.00567e-05
4.00567e-05
4.00568e-05
4.00568e-05
4.00569e-05
4.00569e-05
4.00569e-05
4.00569e-05
4.0057e-05
4.00569e-05
4.00569e-05
4.00569e-05
4.00569e-05
4.00569e-05
4.00568e-05
4.00568e-05
4.00568e-05
4.00568e-05
4.00567e-05
4.0057e-05
4.05014e-05
4.05e-05
4.04997e-05
4.04997e-05
4.04997e-05
4.04998e-05
4.04999e-05
4.04999e-05
4.05e-05
4.05001e-05
4.05002e-05
4.05002e-05
4.05003e-05
4.05004e-05
4.05005e-05
4.05006e-05
4.05007e-05
4.05008e-05
4.05008e-05
4.05009e-05
4.0501e-05
4.05011e-05
4.05012e-05
4.05013e-05
4.05014e-05
4.05015e-05
4.05016e-05
4.05018e-05
4.05019e-05
4.0502e-05
4.05021e-05
4.05022e-05
4.05023e-05
4.05024e-05
4.05025e-05
4.05027e-05
4.05028e-05
4.05029e-05
4.0503e-05
4.05031e-05
4.05032e-05
4.05034e-05
4.05035e-05
4.05036e-05
4.05037e-05
4.05038e-05
4.0504e-05
4.05041e-05
4.05042e-05
4.05043e-05
4.05044e-05
4.05045e-05
4.05046e-05
4.05047e-05
4.05047e-05
4.05048e-05
4.05049e-05
4.0505e-05
4.0505e-05
4.05051e-05
4.05052e-05
4.05053e-05
4.05053e-05
4.05054e-05
4.05055e-05
4.05055e-05
4.05056e-05
4.05057e-05
4.05058e-05
4.05058e-05
4.05059e-05
4.0506e-05
4.0506e-05
4.05061e-05
4.05062e-05
4.05063e-05
4.05063e-05
4.05064e-05
4.05065e-05
4.05065e-05
4.05066e-05
4.05067e-05
4.05067e-05
4.05068e-05
4.05068e-05
4.05069e-05
4.0507e-05
4.0507e-05
4.05071e-05
4.05071e-05
4.05072e-05
4.05072e-05
4.05073e-05
4.05074e-05
4.05074e-05
4.05075e-05
4.05075e-05
4.05076e-05
4.05076e-05
4.05076e-05
4.05077e-05
4.05077e-05
4.05078e-05
4.05078e-05
4.05079e-05
4.05079e-05
4.05079e-05
4.0508e-05
4.0508e-05
4.0508e-05
4.0508e-05
4.0508e-05
4.0508e-05
4.0508e-05
4.0508e-05
4.0508e-05
4.0508e-05
4.0508e-05
4.0508e-05
4.05082e-05
4.10219e-05
4.10204e-05
4.10201e-05
4.10201e-05
4.10202e-05
4.10203e-05
4.10203e-05
4.10204e-05
4.10205e-05
4.10206e-05
4.10207e-05
4.10208e-05
4.10208e-05
4.10209e-05
4.1021e-05
4.10211e-05
4.10212e-05
4.10213e-05
4.10214e-05
4.10215e-05
4.10216e-05
4.10217e-05
4.10218e-05
4.10219e-05
4.1022e-05
4.10222e-05
4.10223e-05
4.10224e-05
4.10225e-05
4.10226e-05
4.10227e-05
4.10229e-05
4.1023e-05
4.10231e-05
4.10232e-05
4.10233e-05
4.10235e-05
4.10236e-05
4.10237e-05
4.10238e-05
4.1024e-05
4.10241e-05
4.10242e-05
4.10243e-05
4.10244e-05
4.10246e-05
4.10247e-05
4.10248e-05
4.10249e-05
4.10251e-05
4.10252e-05
4.10253e-05
4.10254e-05
4.10255e-05
4.10256e-05
4.10257e-05
4.10258e-05
4.10259e-05
4.10259e-05
4.1026e-05
4.10261e-05
4.10262e-05
4.10263e-05
4.10263e-05
4.10264e-05
4.10265e-05
4.10266e-05
4.10266e-05
4.10267e-05
4.10268e-05
4.10269e-05
4.10269e-05
4.1027e-05
4.10271e-05
4.10271e-05
4.10272e-05
4.10273e-05
4.10273e-05
4.10274e-05
4.10274e-05
4.10275e-05
4.10276e-05
4.10276e-05
4.10277e-05
4.10277e-05
4.10278e-05
4.10279e-05
4.10279e-05
4.1028e-05
4.1028e-05
4.10281e-05
4.10281e-05
4.10282e-05
4.10282e-05
4.10283e-05
4.10283e-05
4.10284e-05
4.10284e-05
4.10285e-05
4.10285e-05
4.10285e-05
4.10286e-05
4.10286e-05
4.10287e-05
4.10287e-05
4.10287e-05
4.10288e-05
4.10288e-05
4.10289e-05
4.10289e-05
4.10289e-05
4.10289e-05
4.1029e-05
4.1029e-05
4.1029e-05
4.1029e-05
4.1029e-05
4.1029e-05
4.10289e-05
4.10292e-05
4.16092e-05
4.16076e-05
4.16073e-05
4.16073e-05
4.16073e-05
4.16074e-05
4.16075e-05
4.16076e-05
4.16077e-05
4.16078e-05
4.16079e-05
4.1608e-05
4.16081e-05
4.16082e-05
4.16083e-05
4.16084e-05
4.16085e-05
4.16086e-05
4.16088e-05
4.16089e-05
4.1609e-05
4.16091e-05
4.16092e-05
4.16093e-05
4.16094e-05
4.16096e-05
4.16097e-05
4.16098e-05
4.16099e-05
4.16101e-05
4.16102e-05
4.16103e-05
4.16104e-05
4.16106e-05
4.16107e-05
4.16108e-05
4.1611e-05
4.16111e-05
4.16112e-05
4.16114e-05
4.16115e-05
4.16116e-05
4.16117e-05
4.16119e-05
4.1612e-05
4.16121e-05
4.16123e-05
4.16124e-05
4.16125e-05
4.16126e-05
4.16128e-05
4.16129e-05
4.1613e-05
4.16131e-05
4.16132e-05
4.16133e-05
4.16134e-05
4.16135e-05
4.16136e-05
4.16137e-05
4.16138e-05
4.16139e-05
4.1614e-05
4.16141e-05
4.16141e-05
4.16142e-05
4.16143e-05
4.16144e-05
4.16144e-05
4.16145e-05
4.16146e-05
4.16146e-05
4.16147e-05
4.16148e-05
4.16148e-05
4.16149e-05
4.1615e-05
4.1615e-05
4.16151e-05
4.16152e-05
4.16152e-05
4.16153e-05
4.16153e-05
4.16154e-05
4.16154e-05
4.16155e-05
4.16156e-05
4.16156e-05
4.16157e-05
4.16157e-05
4.16158e-05
4.16158e-05
4.16159e-05
4.16159e-05
4.1616e-05
4.1616e-05
4.1616e-05
4.16161e-05
4.16161e-05
4.16162e-05
4.16162e-05
4.16163e-05
4.16163e-05
4.16163e-05
4.16164e-05
4.16164e-05
4.16165e-05
4.16165e-05
4.16165e-05
4.16166e-05
4.16166e-05
4.16166e-05
4.16167e-05
4.16167e-05
4.16167e-05
4.16167e-05
4.16167e-05
4.16167e-05
4.16167e-05
4.1617e-05
4.22606e-05
4.22589e-05
4.22586e-05
4.22586e-05
4.22587e-05
4.22588e-05
4.22589e-05
4.2259e-05
4.22592e-05
4.22593e-05
4.22594e-05
4.22595e-05
4.22596e-05
4.22597e-05
4.22599e-05
4.226e-05
4.22601e-05
4.22602e-05
4.22603e-05
4.22605e-05
4.22606e-05
4.22607e-05
4.22609e-05
4.2261e-05
4.22611e-05
4.22612e-05
4.22614e-05
4.22615e-05
4.22616e-05
4.22618e-05
4.22619e-05
4.22621e-05
4.22622e-05
4.22623e-05
4.22625e-05
4.22626e-05
4.22627e-05
4.22629e-05
4.2263e-05
4.22632e-05
4.22633e-05
4.22634e-05
4.22636e-05
4.22637e-05
4.22638e-05
4.2264e-05
4.22641e-05
4.22642e-05
4.22644e-05
4.22645e-05
4.22646e-05
4.22648e-05
4.22649e-05
4.2265e-05
4.22651e-05
4.22652e-05
4.22653e-05
4.22654e-05
4.22655e-05
4.22656e-05
4.22657e-05
4.22658e-05
4.22659e-05
4.2266e-05
4.22661e-05
4.22662e-05
4.22662e-05
4.22663e-05
4.22664e-05
4.22665e-05
4.22665e-05
4.22666e-05
4.22667e-05
4.22667e-05
4.22668e-05
4.22669e-05
4.22669e-05
4.2267e-05
4.22671e-05
4.22671e-05
4.22672e-05
4.22672e-05
4.22673e-05
4.22673e-05
4.22674e-05
4.22675e-05
4.22675e-05
4.22676e-05
4.22676e-05
4.22677e-05
4.22677e-05
4.22678e-05
4.22678e-05
4.22679e-05
4.22679e-05
4.22679e-05
4.2268e-05
4.2268e-05
4.22681e-05
4.22681e-05
4.22682e-05
4.22682e-05
4.22682e-05
4.22683e-05
4.22683e-05
4.22684e-05
4.22684e-05
4.22684e-05
4.22685e-05
4.22685e-05
4.22686e-05
4.22686e-05
4.22686e-05
4.22687e-05
4.22687e-05
4.22687e-05
4.22687e-05
4.22687e-05
4.22687e-05
4.2269e-05
4.29743e-05
4.29724e-05
4.29721e-05
4.29721e-05
4.29722e-05
4.29724e-05
4.29725e-05
4.29726e-05
4.29728e-05
4.29729e-05
4.2973e-05
4.29732e-05
4.29733e-05
4.29734e-05
4.29736e-05
4.29737e-05
4.29738e-05
4.2974e-05
4.29741e-05
4.29743e-05
4.29744e-05
4.29745e-05
4.29747e-05
4.29748e-05
4.2975e-05
4.29751e-05
4.29753e-05
4.29754e-05
4.29756e-05
4.29757e-05
4.29759e-05
4.2976e-05
4.29762e-05
4.29763e-05
4.29764e-05
4.29766e-05
4.29767e-05
4.29769e-05
4.2977e-05
4.29772e-05
4.29773e-05
4.29775e-05
4.29776e-05
4.29777e-05
4.29779e-05
4.2978e-05
4.29781e-05
4.29783e-05
4.29784e-05
4.29786e-05
4.29787e-05
4.29788e-05
4.29789e-05
4.29791e-05
4.29792e-05
4.29793e-05
4.29794e-05
4.29795e-05
4.29796e-05
4.29797e-05
4.29798e-05
4.29799e-05
4.298e-05
4.29801e-05
4.29802e-05
4.29803e-05
4.29804e-05
4.29804e-05
4.29805e-05
4.29806e-05
4.29807e-05
4.29807e-05
4.29808e-05
4.29809e-05
4.29809e-05
4.2981e-05
4.29811e-05
4.29811e-05
4.29812e-05
4.29812e-05
4.29813e-05
4.29814e-05
4.29814e-05
4.29815e-05
4.29815e-05
4.29816e-05
4.29816e-05
4.29817e-05
4.29817e-05
4.29818e-05
4.29818e-05
4.29819e-05
4.29819e-05
4.2982e-05
4.2982e-05
4.29821e-05
4.29821e-05
4.29822e-05
4.29822e-05
4.29823e-05
4.29823e-05
4.29823e-05
4.29824e-05
4.29824e-05
4.29825e-05
4.29825e-05
4.29826e-05
4.29826e-05
4.29826e-05
4.29827e-05
4.29827e-05
4.29828e-05
4.29828e-05
4.29828e-05
4.29829e-05
4.29829e-05
4.29829e-05
4.29829e-05
4.29829e-05
4.29833e-05
4.37484e-05
4.37464e-05
4.37461e-05
4.37461e-05
4.37462e-05
4.37464e-05
4.37466e-05
4.37467e-05
4.37469e-05
4.3747e-05
4.37472e-05
4.37473e-05
4.37475e-05
4.37476e-05
4.37478e-05
4.37479e-05
4.37481e-05
4.37483e-05
4.37484e-05
4.37486e-05
4.37487e-05
4.37489e-05
4.3749e-05
4.37492e-05
4.37494e-05
4.37495e-05
4.37497e-05
4.37498e-05
4.375e-05
4.37502e-05
4.37503e-05
4.37505e-05
4.37506e-05
4.37508e-05
4.3751e-05
4.37511e-05
4.37513e-05
4.37514e-05
4.37516e-05
4.37517e-05
4.37519e-05
4.3752e-05
4.37522e-05
4.37523e-05
4.37524e-05
4.37526e-05
4.37527e-05
4.37529e-05
4.3753e-05
4.37531e-05
4.37533e-05
4.37534e-05
4.37535e-05
4.37537e-05
4.37538e-05
4.37539e-05
4.3754e-05
4.37541e-05
4.37542e-05
4.37543e-05
4.37544e-05
4.37545e-05
4.37546e-05
4.37547e-05
4.37548e-05
4.37549e-05
4.3755e-05
4.37551e-05
4.37551e-05
4.37552e-05
4.37553e-05
4.37554e-05
4.37554e-05
4.37555e-05
4.37556e-05
4.37556e-05
4.37557e-05
4.37558e-05
4.37558e-05
4.37559e-05
4.37559e-05
4.3756e-05
4.37561e-05
4.37561e-05
4.37562e-05
4.37562e-05
4.37563e-05
4.37563e-05
4.37564e-05
4.37564e-05
4.37565e-05
4.37565e-05
4.37566e-05
4.37566e-05
4.37567e-05
4.37567e-05
4.37568e-05
4.37568e-05
4.37569e-05
4.37569e-05
4.3757e-05
4.3757e-05
4.37571e-05
4.37571e-05
4.37572e-05
4.37572e-05
4.37572e-05
4.37573e-05
4.37573e-05
4.37574e-05
4.37574e-05
4.37575e-05
4.37575e-05
4.37575e-05
4.37576e-05
4.37576e-05
4.37576e-05
4.37577e-05
4.37576e-05
4.37581e-05
4.45817e-05
4.45796e-05
4.45793e-05
4.45793e-05
4.45795e-05
4.45797e-05
4.45798e-05
4.458e-05
4.45802e-05
4.45804e-05
4.45805e-05
4.45807e-05
4.45809e-05
4.45811e-05
4.45813e-05
4.45814e-05
4.45816e-05
4.45818e-05
4.4582e-05
4.45821e-05
4.45823e-05
4.45825e-05
4.45827e-05
4.45828e-05
4.4583e-05
4.45832e-05
4.45833e-05
4.45835e-05
4.45837e-05
4.45839e-05
4.4584e-05
4.45842e-05
4.45844e-05
4.45845e-05
4.45847e-05
4.45849e-05
4.4585e-05
4.45852e-05
4.45853e-05
4.45855e-05
4.45856e-05
4.45858e-05
4.45859e-05
4.45861e-05
4.45862e-05
4.45864e-05
4.45865e-05
4.45867e-05
4.45868e-05
4.45869e-05
4.45871e-05
4.45872e-05
4.45873e-05
4.45874e-05
4.45876e-05
4.45877e-05
4.45878e-05
4.45879e-05
4.4588e-05
4.45881e-05
4.45882e-05
4.45883e-05
4.45884e-05
4.45885e-05
4.45886e-05
4.45887e-05
4.45888e-05
4.45888e-05
4.45889e-05
4.4589e-05
4.45891e-05
4.45892e-05
4.45892e-05
4.45893e-05
4.45894e-05
4.45894e-05
4.45895e-05
4.45896e-05
4.45896e-05
4.45897e-05
4.45898e-05
4.45898e-05
4.45899e-05
4.45899e-05
4.459e-05
4.45901e-05
4.45901e-05
4.45902e-05
4.45902e-05
4.45903e-05
4.45904e-05
4.45904e-05
4.45905e-05
4.45905e-05
4.45906e-05
4.45906e-05
4.45907e-05
4.45907e-05
4.45908e-05
4.45908e-05
4.45909e-05
4.45909e-05
4.4591e-05
4.4591e-05
4.45911e-05
4.45911e-05
4.45912e-05
4.45912e-05
4.45913e-05
4.45913e-05
4.45914e-05
4.45914e-05
4.45915e-05
4.45915e-05
4.45915e-05
4.45916e-05
4.45916e-05
4.45916e-05
4.45916e-05
4.45921e-05
4.54734e-05
4.54711e-05
4.54708e-05
4.54709e-05
4.5471e-05
4.54712e-05
4.54714e-05
4.54716e-05
4.54718e-05
4.5472e-05
4.54722e-05
4.54724e-05
4.54726e-05
4.54728e-05
4.5473e-05
4.54732e-05
4.54734e-05
4.54736e-05
4.54738e-05
4.5474e-05
4.54742e-05
4.54744e-05
4.54746e-05
4.54747e-05
4.54749e-05
4.54751e-05
4.54753e-05
4.54755e-05
4.54757e-05
4.54758e-05
4.5476e-05
4.54762e-05
4.54764e-05
4.54766e-05
4.54767e-05
4.54769e-05
4.54771e-05
4.54772e-05
4.54774e-05
4.54775e-05
4.54777e-05
4.54778e-05
4.5478e-05
4.54781e-05
4.54783e-05
4.54784e-05
4.54786e-05
4.54787e-05
4.54788e-05
4.5479e-05
4.54791e-05
4.54792e-05
4.54793e-05
4.54795e-05
4.54796e-05
4.54797e-05
4.54798e-05
4.54799e-05
4.548e-05
4.54801e-05
4.54802e-05
4.54803e-05
4.54804e-05
4.54805e-05
4.54806e-05
4.54807e-05
4.54808e-05
4.54809e-05
4.5481e-05
4.5481e-05
4.54811e-05
4.54812e-05
4.54813e-05
4.54813e-05
4.54814e-05
4.54815e-05
4.54816e-05
4.54816e-05
4.54817e-05
4.54818e-05
4.54818e-05
4.54819e-05
4.5482e-05
4.5482e-05
4.54821e-05
4.54822e-05
4.54822e-05
4.54823e-05
4.54824e-05
4.54824e-05
4.54825e-05
4.54826e-05
4.54826e-05
4.54827e-05
4.54827e-05
4.54828e-05
4.54829e-05
4.54829e-05
4.5483e-05
4.5483e-05
4.54831e-05
4.54831e-05
4.54832e-05
4.54832e-05
4.54833e-05
4.54834e-05
4.54834e-05
4.54835e-05
4.54835e-05
4.54836e-05
4.54836e-05
4.54837e-05
4.54837e-05
4.54838e-05
4.54838e-05
4.54838e-05
4.54839e-05
4.54839e-05
4.54839e-05
4.54844e-05
4.64227e-05
4.64203e-05
4.64199e-05
4.642e-05
4.64202e-05
4.64204e-05
4.64207e-05
4.64209e-05
4.64211e-05
4.64213e-05
4.64215e-05
4.64218e-05
4.6422e-05
4.64222e-05
4.64224e-05
4.64226e-05
4.64228e-05
4.64231e-05
4.64233e-05
4.64235e-05
4.64237e-05
4.64239e-05
4.64241e-05
4.64243e-05
4.64245e-05
4.64247e-05
4.64249e-05
4.64251e-05
4.64253e-05
4.64255e-05
4.64256e-05
4.64258e-05
4.6426e-05
4.64262e-05
4.64264e-05
4.64265e-05
4.64267e-05
4.64269e-05
4.6427e-05
4.64272e-05
4.64273e-05
4.64275e-05
4.64276e-05
4.64278e-05
4.64279e-05
4.64281e-05
4.64282e-05
4.64283e-05
4.64285e-05
4.64286e-05
4.64287e-05
4.64288e-05
4.6429e-05
4.64291e-05
4.64292e-05
4.64293e-05
4.64294e-05
4.64295e-05
4.64296e-05
4.64298e-05
4.64299e-05
4.643e-05
4.643e-05
4.64301e-05
4.64302e-05
4.64303e-05
4.64304e-05
4.64305e-05
4.64306e-05
4.64307e-05
4.64308e-05
4.64308e-05
4.64309e-05
4.6431e-05
4.64311e-05
4.64312e-05
4.64312e-05
4.64313e-05
4.64314e-05
4.64315e-05
4.64315e-05
4.64316e-05
4.64317e-05
4.64318e-05
4.64318e-05
4.64319e-05
4.6432e-05
4.6432e-05
4.64321e-05
4.64322e-05
4.64323e-05
4.64323e-05
4.64324e-05
4.64325e-05
4.64325e-05
4.64326e-05
4.64327e-05
4.64327e-05
4.64328e-05
4.64329e-05
4.64329e-05
4.6433e-05
4.64331e-05
4.64331e-05
4.64332e-05
4.64332e-05
4.64333e-05
4.64334e-05
4.64334e-05
4.64335e-05
4.64335e-05
4.64336e-05
4.64336e-05
4.64337e-05
4.64337e-05
4.64338e-05
4.64338e-05
4.64339e-05
4.64338e-05
4.64344e-05
4.74293e-05
4.74268e-05
4.74264e-05
4.74265e-05
4.74267e-05
4.74269e-05
4.74272e-05
4.74275e-05
4.74277e-05
4.74279e-05
4.74282e-05
4.74284e-05
4.74287e-05
4.74289e-05
4.74291e-05
4.74294e-05
4.74296e-05
4.74298e-05
4.743e-05
4.74302e-05
4.74305e-05
4.74307e-05
4.74309e-05
4.74311e-05
4.74313e-05
4.74315e-05
4.74317e-05
4.74319e-05
4.74321e-05
4.74323e-05
4.74325e-05
4.74327e-05
4.74329e-05
4.74331e-05
4.74332e-05
4.74334e-05
4.74336e-05
4.74337e-05
4.74339e-05
4.7434e-05
4.74342e-05
4.74343e-05
4.74345e-05
4.74346e-05
4.74348e-05
4.74349e-05
4.7435e-05
4.74352e-05
4.74353e-05
4.74354e-05
4.74355e-05
4.74357e-05
4.74358e-05
4.74359e-05
4.7436e-05
4.74361e-05
4.74362e-05
4.74364e-05
4.74365e-05
4.74366e-05
4.74367e-05
4.74368e-05
4.74369e-05
4.7437e-05
4.74371e-05
4.74372e-05
4.74372e-05
4.74373e-05
4.74374e-05
4.74375e-05
4.74376e-05
4.74377e-05
4.74378e-05
4.74379e-05
4.7438e-05
4.7438e-05
4.74381e-05
4.74382e-05
4.74383e-05
4.74384e-05
4.74385e-05
4.74385e-05
4.74386e-05
4.74387e-05
4.74388e-05
4.74389e-05
4.7439e-05
4.7439e-05
4.74391e-05
4.74392e-05
4.74393e-05
4.74394e-05
4.74395e-05
4.74395e-05
4.74396e-05
4.74397e-05
4.74398e-05
4.74398e-05
4.74399e-05
4.744e-05
4.74401e-05
4.74401e-05
4.74402e-05
4.74403e-05
4.74403e-05
4.74404e-05
4.74405e-05
4.74405e-05
4.74406e-05
4.74407e-05
4.74407e-05
4.74408e-05
4.74409e-05
4.74409e-05
4.7441e-05
4.7441e-05
4.74411e-05
4.74411e-05
4.74411e-05
4.74418e-05
4.84931e-05
4.84904e-05
4.849e-05
4.84901e-05
4.84904e-05
4.84906e-05
4.84909e-05
4.84912e-05
4.84915e-05
4.84917e-05
4.8492e-05
4.84922e-05
4.84925e-05
4.84927e-05
4.8493e-05
4.84932e-05
4.84935e-05
4.84937e-05
4.84939e-05
4.84942e-05
4.84944e-05
4.84946e-05
4.84948e-05
4.8495e-05
4.84952e-05
4.84955e-05
4.84957e-05
4.84959e-05
4.84961e-05
4.84963e-05
4.84964e-05
4.84966e-05
4.84968e-05
4.8497e-05
4.84972e-05
4.84973e-05
4.84975e-05
4.84977e-05
4.84978e-05
4.8498e-05
4.84981e-05
4.84982e-05
4.84984e-05
4.84985e-05
4.84987e-05
4.84988e-05
4.84989e-05
4.8499e-05
4.84992e-05
4.84993e-05
4.84994e-05
4.84995e-05
4.84997e-05
4.84998e-05
4.84999e-05
4.85e-05
4.85001e-05
4.85002e-05
4.85003e-05
4.85005e-05
4.85006e-05
4.85007e-05
4.85008e-05
4.85009e-05
4.8501e-05
4.85011e-05
4.85012e-05
4.85013e-05
4.85014e-05
4.85015e-05
4.85016e-05
4.85017e-05
4.85018e-05
4.85019e-05
4.8502e-05
4.8502e-05
4.85021e-05
4.85022e-05
4.85023e-05
4.85024e-05
4.85025e-05
4.85026e-05
4.85027e-05
4.85028e-05
4.85029e-05
4.8503e-05
4.85031e-05
4.85032e-05
4.85033e-05
4.85034e-05
4.85035e-05
4.85036e-05
4.85037e-05
4.85038e-05
4.85038e-05
4.85039e-05
4.8504e-05
4.85041e-05
4.85042e-05
4.85043e-05
4.85044e-05
4.85044e-05
4.85045e-05
4.85046e-05
4.85047e-05
4.85048e-05
4.85048e-05
4.85049e-05
4.8505e-05
4.85051e-05
4.85051e-05
4.85052e-05
4.85053e-05
4.85054e-05
4.85054e-05
4.85055e-05
4.85055e-05
4.85056e-05
4.85056e-05
4.85063e-05
4.96142e-05
4.96113e-05
4.96109e-05
4.9611e-05
4.96113e-05
4.96116e-05
4.96119e-05
4.96122e-05
4.96124e-05
4.96127e-05
4.9613e-05
4.96133e-05
4.96135e-05
4.96138e-05
4.9614e-05
4.96143e-05
4.96145e-05
4.96148e-05
4.9615e-05
4.96152e-05
4.96155e-05
4.96157e-05
4.96159e-05
4.96161e-05
4.96163e-05
4.96166e-05
4.96168e-05
4.9617e-05
4.96171e-05
4.96173e-05
4.96175e-05
4.96177e-05
4.96179e-05
4.96181e-05
4.96182e-05
4.96184e-05
4.96185e-05
4.96187e-05
4.96188e-05
4.9619e-05
4.96191e-05
4.96193e-05
4.96194e-05
4.96195e-05
4.96197e-05
4.96198e-05
4.96199e-05
4.96201e-05
4.96202e-05
4.96203e-05
4.96204e-05
4.96206e-05
4.96207e-05
4.96208e-05
4.96209e-05
4.9621e-05
4.96212e-05
4.96213e-05
4.96214e-05
4.96215e-05
4.96216e-05
4.96217e-05
4.96218e-05
4.96219e-05
4.96221e-05
4.96222e-05
4.96223e-05
4.96224e-05
4.96225e-05
4.96226e-05
4.96227e-05
4.96228e-05
4.96229e-05
4.9623e-05
4.96232e-05
4.96233e-05
4.96234e-05
4.96235e-05
4.96236e-05
4.96237e-05
4.96238e-05
4.96239e-05
4.9624e-05
4.96242e-05
4.96243e-05
4.96244e-05
4.96245e-05
4.96246e-05
4.96247e-05
4.96248e-05
4.96249e-05
4.9625e-05
4.96251e-05
4.96252e-05
4.96253e-05
4.96254e-05
4.96255e-05
4.96256e-05
4.96257e-05
4.96258e-05
4.96259e-05
4.9626e-05
4.96261e-05
4.96262e-05
4.96263e-05
4.96264e-05
4.96265e-05
4.96266e-05
4.96267e-05
4.96267e-05
4.96268e-05
4.96269e-05
4.9627e-05
4.96271e-05
4.96271e-05
4.96272e-05
4.96273e-05
4.96273e-05
4.96273e-05
4.96281e-05
5.07927e-05
5.07898e-05
5.07893e-05
5.07895e-05
5.07897e-05
5.079e-05
5.07903e-05
5.07906e-05
5.07909e-05
5.07912e-05
5.07915e-05
5.07918e-05
5.0792e-05
5.07923e-05
5.07925e-05
5.07928e-05
5.0793e-05
5.07933e-05
5.07935e-05
5.07937e-05
5.0794e-05
5.07942e-05
5.07944e-05
5.07946e-05
5.07948e-05
5.0795e-05
5.07952e-05
5.07954e-05
5.07956e-05
5.07958e-05
5.0796e-05
5.07961e-05
5.07963e-05
5.07965e-05
5.07966e-05
5.07968e-05
5.07969e-05
5.07971e-05
5.07972e-05
5.07974e-05
5.07975e-05
5.07977e-05
5.07978e-05
5.07979e-05
5.0798e-05
5.07982e-05
5.07983e-05
5.07984e-05
5.07986e-05
5.07987e-05
5.07988e-05
5.0799e-05
5.07991e-05
5.07992e-05
5.07993e-05
5.07995e-05
5.07996e-05
5.07997e-05
5.07998e-05
5.08e-05
5.08001e-05
5.08002e-05
5.08003e-05
5.08005e-05
5.08006e-05
5.08007e-05
5.08008e-05
5.0801e-05
5.08011e-05
5.08012e-05
5.08013e-05
5.08015e-05
5.08016e-05
5.08017e-05
5.08018e-05
5.0802e-05
5.08021e-05
5.08022e-05
5.08024e-05
5.08025e-05
5.08026e-05
5.08027e-05
5.08029e-05
5.0803e-05
5.08031e-05
5.08033e-05
5.08034e-05
5.08035e-05
5.08036e-05
5.08038e-05
5.08039e-05
5.0804e-05
5.08041e-05
5.08042e-05
5.08044e-05
5.08045e-05
5.08046e-05
5.08047e-05
5.08048e-05
5.08049e-05
5.0805e-05
5.08051e-05
5.08053e-05
5.08054e-05
5.08055e-05
5.08056e-05
5.08057e-05
5.08058e-05
5.08059e-05
5.0806e-05
5.0806e-05
5.08061e-05
5.08062e-05
5.08063e-05
5.08064e-05
5.08065e-05
5.08065e-05
5.08066e-05
5.08065e-05
5.08074e-05
5.20293e-05
5.20261e-05
5.20257e-05
5.20258e-05
5.20261e-05
5.20264e-05
5.20267e-05
5.2027e-05
5.20273e-05
5.20275e-05
5.20278e-05
5.20281e-05
5.20284e-05
5.20286e-05
5.20289e-05
5.20291e-05
5.20293e-05
5.20296e-05
5.20298e-05
5.203e-05
5.20302e-05
5.20305e-05
5.20307e-05
5.20309e-05
5.20311e-05
5.20312e-05
5.20314e-05
5.20316e-05
5.20318e-05
5.2032e-05
5.20321e-05
5.20323e-05
5.20325e-05
5.20326e-05
5.20328e-05
5.20329e-05
5.20331e-05
5.20332e-05
5.20334e-05
5.20335e-05
5.20336e-05
5.20338e-05
5.20339e-05
5.20341e-05
5.20342e-05
5.20343e-05
5.20345e-05
5.20346e-05
5.20347e-05
5.20349e-05
5.2035e-05
5.20352e-05
5.20353e-05
5.20355e-05
5.20356e-05
5.20357e-05
5.20359e-05
5.2036e-05
5.20362e-05
5.20363e-05
5.20364e-05
5.20366e-05
5.20367e-05
5.20369e-05
5.2037e-05
5.20371e-05
5.20373e-05
5.20374e-05
5.20376e-05
5.20377e-05
5.20379e-05
5.2038e-05
5.20382e-05
5.20383e-05
5.20385e-05
5.20386e-05
5.20388e-05
5.20389e-05
5.2039e-05
5.20392e-05
5.20393e-05
5.20395e-05
5.20396e-05
5.20398e-05
5.20399e-05
5.20401e-05
5.20402e-05
5.20404e-05
5.20405e-05
5.20407e-05
5.20408e-05
5.20409e-05
5.20411e-05
5.20412e-05
5.20414e-05
5.20415e-05
5.20416e-05
5.20417e-05
5.20419e-05
5.2042e-05
5.20421e-05
5.20422e-05
5.20424e-05
5.20425e-05
5.20426e-05
5.20427e-05
5.20428e-05
5.20429e-05
5.2043e-05
5.20431e-05
5.20432e-05
5.20433e-05
5.20434e-05
5.20435e-05
5.20436e-05
5.20437e-05
5.20438e-05
5.20438e-05
5.20437e-05
5.20447e-05
5.33242e-05
5.33209e-05
5.33204e-05
5.33205e-05
5.33208e-05
5.33211e-05
5.33214e-05
5.33217e-05
5.33219e-05
5.33222e-05
5.33225e-05
5.33227e-05
5.3323e-05
5.33232e-05
5.33235e-05
5.33237e-05
5.33239e-05
5.33241e-05
5.33244e-05
5.33246e-05
5.33248e-05
5.3325e-05
5.33251e-05
5.33253e-05
5.33255e-05
5.33257e-05
5.33259e-05
5.3326e-05
5.33262e-05
5.33263e-05
5.33265e-05
5.33267e-05
5.33268e-05
5.3327e-05
5.33271e-05
5.33273e-05
5.33274e-05
5.33276e-05
5.33277e-05
5.33279e-05
5.3328e-05
5.33282e-05
5.33283e-05
5.33285e-05
5.33286e-05
5.33288e-05
5.33289e-05
5.33291e-05
5.33293e-05
5.33294e-05
5.33296e-05
5.33297e-05
5.33299e-05
5.33301e-05
5.33302e-05
5.33304e-05
5.33305e-05
5.33307e-05
5.33309e-05
5.3331e-05
5.33312e-05
5.33314e-05
5.33315e-05
5.33317e-05
5.33319e-05
5.3332e-05
5.33322e-05
5.33324e-05
5.33325e-05
5.33327e-05
5.33329e-05
5.3333e-05
5.33332e-05
5.33334e-05
5.33335e-05
5.33337e-05
5.33339e-05
5.3334e-05
5.33342e-05
5.33344e-05
5.33346e-05
5.33347e-05
5.33349e-05
5.33351e-05
5.33352e-05
5.33354e-05
5.33356e-05
5.33357e-05
5.33359e-05
5.33361e-05
5.33362e-05
5.33364e-05
5.33365e-05
5.33367e-05
5.33368e-05
5.3337e-05
5.33371e-05
5.33373e-05
5.33374e-05
5.33376e-05
5.33377e-05
5.33378e-05
5.3338e-05
5.33381e-05
5.33382e-05
5.33384e-05
5.33385e-05
5.33386e-05
5.33387e-05
5.33388e-05
5.3339e-05
5.33391e-05
5.33391e-05
5.33392e-05
5.33393e-05
5.33394e-05
5.33394e-05
5.33395e-05
5.33394e-05
5.33404e-05
5.46781e-05
5.46747e-05
5.46741e-05
5.46742e-05
5.46744e-05
5.46747e-05
5.4675e-05
5.46752e-05
5.46755e-05
5.46757e-05
5.4676e-05
5.46762e-05
5.46765e-05
5.46767e-05
5.46769e-05
5.46771e-05
5.46773e-05
5.46775e-05
5.46777e-05
5.46779e-05
5.46781e-05
5.46782e-05
5.46784e-05
5.46786e-05
5.46787e-05
5.46789e-05
5.46791e-05
5.46792e-05
5.46794e-05
5.46795e-05
5.46797e-05
5.46798e-05
5.468e-05
5.46801e-05
5.46803e-05
5.46804e-05
5.46806e-05
5.46808e-05
5.46809e-05
5.46811e-05
5.46813e-05
5.46815e-05
5.46816e-05
5.46818e-05
5.4682e-05
5.46822e-05
5.46824e-05
5.46825e-05
5.46827e-05
5.46829e-05
5.46831e-05
5.46833e-05
5.46835e-05
5.46837e-05
5.46839e-05
5.46841e-05
5.46842e-05
5.46844e-05
5.46846e-05
5.46848e-05
5.4685e-05
5.46852e-05
5.46854e-05
5.46856e-05
5.46858e-05
5.4686e-05