/*--------------------------------*- C++ -*----------------------------------*\
  =========                 |
  \\      /  F ield         | OpenFOAM: The Open Source CFD Toolbox
   \\    /   O peration     | Website:  https://openfoam.org
    \\  /    A nd           | Version:  7
     \\/     M anipulation  |
\*---------------------------------------------------------------------------*/
FoamFile
{
    version     2.0;
    format      ascii;
    class       volScalarField;
    location    "2000";
    object      omega;
}
// * * * * * * * * * * * * * * * * * * * * * * * * * * * * * * * * * * * * * //

dimensions      [0 0 -1 0 0 0 0];

internalField   nonuniform List<scalar> 
4000
(
0.0260764
0.0260738
0.0260736
0.0260739
0.0260743
0.0260748
0.0260752
0.0260757
0.0260761
0.0260765
0.0260769
0.0260773
0.0260777
0.0260781
0.0260785
0.0260788
0.0260792
0.0260795
0.0260799
0.0260802
0.0260805
0.0260808
0.0260811
0.0260813
0.0260816
0.0260818
0.0260821
0.0260823
0.0260825
0.0260827
0.0260829
0.0260831
0.0260832
0.0260834
0.0260835
0.0260837
0.0260838
0.0260839
0.0260841
0.0260842
0.0260843
0.0260844
0.0260845
0.0260845
0.0260849
0.0260826
0.0260805
0.0260793
0.0260787
0.0260784
0.0260783
0.0260783
0.0260783
0.0260784
0.0260784
0.0260785
0.0260785
0.0260786
0.0260787
0.0260788
0.0260789
0.026079
0.0260792
0.0260793
0.0260794
0.0260796
0.0260797
0.0260799
0.0260801
0.0260803
0.0260804
0.0260806
0.0260808
0.026081
0.0260812
0.0260814
0.0260817
0.0260819
0.0260821
0.0260824
0.0260826
0.0260829
0.0260831
0.0260834
0.0260836
0.0260839
0.0260842
0.0260845
0.0260848
0.0260851
0.0260854
0.0260857
0.026086
0.0260863
0.0260866
0.0260869
0.0260873
0.0260876
0.0260879
0.0260883
0.0260886
0.026089
0.0260893
0.02609
0.0260879
0.0260861
0.0260853
0.026085
0.026085
0.0260852
0.0260855
0.0260858
0.0260862
0.0260865
0.0260869
0.0260873
0.0260876
0.026088
0.0260884
0.0260892
0.0261649
0.0261623
0.026162
0.0261622
0.0261625
0.0261629
0.0261633
0.0261637
0.026164
0.0261644
0.0261648
0.0261652
0.0261655
0.0261659
0.0261662
0.0261666
0.0261669
0.0261672
0.0261675
0.0261678
0.0261681
0.0261684
0.0261687
0.0261689
0.0261692
0.0261694
0.0261696
0.0261698
0.02617
0.0261702
0.0261704
0.0261706
0.0261708
0.0261709
0.026171
0.0261712
0.0261713
0.0261714
0.0261715
0.0261716
0.0261717
0.0261718
0.0261719
0.0261719
0.0261721
0.0261717
0.026171
0.0261702
0.0261695
0.026169
0.0261686
0.0261684
0.0261682
0.026168
0.0261679
0.0261678
0.0261678
0.0261678
0.0261678
0.0261678
0.0261678
0.0261678
0.0261679
0.026168
0.026168
0.0261681
0.0261682
0.0261683
0.0261684
0.0261685
0.0261687
0.0261688
0.026169
0.0261691
0.0261693
0.0261695
0.0261696
0.0261698
0.02617
0.0261702
0.0261704
0.0261706
0.0261709
0.0261711
0.0261713
0.0261716
0.0261718
0.0261721
0.0261723
0.0261726
0.0261728
0.0261731
0.0261734
0.0261737
0.026174
0.0261743
0.0261746
0.0261749
0.0261752
0.0261755
0.0261758
0.0261761
0.0261765
0.0261769
0.0261768
0.0261764
0.0261759
0.0261755
0.0261753
0.0261752
0.0261752
0.0261753
0.0261755
0.0261757
0.0261759
0.0261762
0.0261765
0.0261768
0.026177
0.0261778
0.0263327
0.02633
0.0263296
0.0263298
0.0263301
0.0263304
0.0263307
0.0263311
0.0263314
0.0263318
0.0263321
0.0263325
0.0263328
0.0263331
0.0263335
0.0263338
0.0263341
0.0263344
0.0263347
0.026335
0.0263353
0.0263356
0.0263358
0.0263361
0.0263363
0.0263365
0.0263368
0.026337
0.0263372
0.0263374
0.0263375
0.0263377
0.0263378
0.026338
0.0263381
0.0263382
0.0263384
0.0263385
0.0263386
0.0263386
0.0263387
0.0263388
0.0263389
0.0263389
0.026339
0.026339
0.0263388
0.0263385
0.0263382
0.0263378
0.0263375
0.0263372
0.0263369
0.0263367
0.0263365
0.0263364
0.0263363
0.0263362
0.0263361
0.0263361
0.026336
0.026336
0.026336
0.026336
0.0263361
0.0263361
0.0263361
0.0263362
0.0263363
0.0263364
0.0263364
0.0263365
0.0263367
0.0263368
0.0263369
0.026337
0.0263372
0.0263373
0.0263375
0.0263377
0.0263379
0.026338
0.0263382
0.0263384
0.0263387
0.0263389
0.0263391
0.0263393
0.0263395
0.0263398
0.02634
0.0263403
0.0263405
0.0263408
0.0263411
0.0263413
0.0263416
0.0263419
0.0263422
0.0263425
0.0263428
0.0263431
0.0263434
0.0263437
0.026344
0.0263441
0.0263441
0.026344
0.0263439
0.0263439
0.0263439
0.026344
0.0263441
0.0263442
0.0263444
0.0263446
0.0263448
0.0263451
0.0263452
0.026346
0.026577
0.0265742
0.0265738
0.026574
0.0265743
0.0265746
0.0265749
0.0265752
0.0265756
0.0265759
0.0265762
0.0265766
0.0265769
0.0265772
0.0265775
0.0265779
0.0265782
0.0265785
0.0265788
0.0265791
0.0265793
0.0265796
0.0265799
0.0265801
0.0265804
0.0265806
0.0265808
0.026581
0.0265812
0.0265814
0.0265815
0.0265817
0.0265819
0.026582
0.0265821
0.0265822
0.0265823
0.0265824
0.0265825
0.0265826
0.0265827
0.0265827
0.0265828
0.0265828
0.0265829
0.0265829
0.0265829
0.0265828
0.0265827
0.0265825
0.0265823
0.0265821
0.0265819
0.0265817
0.0265816
0.0265814
0.0265813
0.0265812
0.0265811
0.026581
0.026581
0.0265809
0.0265809
0.0265809
0.0265809
0.0265809
0.0265809
0.0265809
0.026581
0.026581
0.0265811
0.0265811
0.0265812
0.0265813
0.0265814
0.0265816
0.0265817
0.0265818
0.026582
0.0265821
0.0265823
0.0265824
0.0265826
0.0265828
0.026583
0.0265832
0.0265834
0.0265836
0.0265838
0.026584
0.0265842
0.0265845
0.0265847
0.026585
0.0265852
0.0265855
0.0265857
0.026586
0.0265863
0.0265866
0.0265868
0.0265871
0.0265874
0.0265877
0.026588
0.0265883
0.0265885
0.0265886
0.0265888
0.0265889
0.026589
0.0265891
0.0265892
0.0265894
0.0265895
0.0265897
0.0265899
0.0265901
0.0265903
0.0265911
0.0268964
0.0268934
0.026893
0.0268932
0.0268935
0.0268938
0.0268941
0.0268945
0.0268948
0.0268952
0.0268955
0.0268958
0.0268962
0.0268965
0.0268968
0.0268971
0.0268974
0.0268977
0.026898
0.0268983
0.0268986
0.0268989
0.0268991
0.0268994
0.0268996
0.0268999
0.0269001
0.0269003
0.0269005
0.0269007
0.0269008
0.026901
0.0269011
0.0269013
0.0269014
0.0269015
0.0269016
0.0269017
0.0269018
0.0269018
0.0269019
0.026902
0.026902
0.026902
0.0269021
0.0269021
0.0269021
0.0269021
0.0269021
0.026902
0.0269019
0.0269018
0.0269017
0.0269016
0.0269014
0.0269013
0.0269012
0.0269011
0.026901
0.0269009
0.0269009
0.0269008
0.0269008
0.0269008
0.0269007
0.0269007
0.0269007
0.0269008
0.0269008
0.0269008
0.0269009
0.0269009
0.026901
0.0269011
0.0269012
0.0269013
0.0269014
0.0269015
0.0269017
0.0269018
0.026902
0.0269021
0.0269023
0.0269024
0.0269026
0.0269028
0.026903
0.0269032
0.0269034
0.0269036
0.0269038
0.0269041
0.0269043
0.0269045
0.0269048
0.026905
0.0269053
0.0269055
0.0269058
0.0269061
0.0269063
0.0269066
0.0269069
0.0269072
0.0269075
0.0269078
0.0269081
0.0269083
0.0269085
0.0269088
0.026909
0.0269091
0.0269093
0.0269095
0.0269097
0.0269099
0.0269102
0.0269104
0.0269105
0.0269114
0.0272901
0.0272869
0.0272865
0.0272867
0.027287
0.0272874
0.0272877
0.0272881
0.0272884
0.0272888
0.0272892
0.0272895
0.0272899
0.0272902
0.0272905
0.0272909
0.0272912
0.0272915
0.0272918
0.0272921
0.0272924
0.0272927
0.027293
0.0272932
0.0272935
0.0272937
0.0272939
0.0272941
0.0272943
0.0272945
0.0272947
0.0272948
0.027295
0.0272951
0.0272952
0.0272953
0.0272954
0.0272955
0.0272956
0.0272956
0.0272957
0.0272957
0.0272958
0.0272958
0.0272958
0.0272959
0.0272959
0.0272959
0.0272959
0.0272959
0.0272958
0.0272958
0.0272957
0.0272956
0.0272955
0.0272955
0.0272954
0.0272953
0.0272953
0.0272952
0.0272951
0.0272951
0.0272951
0.027295
0.027295
0.027295
0.027295
0.0272951
0.0272951
0.0272951
0.0272952
0.0272952
0.0272953
0.0272954
0.0272955
0.0272956
0.0272957
0.0272958
0.0272959
0.0272961
0.0272962
0.0272964
0.0272965
0.0272967
0.0272969
0.0272971
0.0272973
0.0272975
0.0272977
0.0272979
0.0272981
0.0272983
0.0272985
0.0272988
0.027299
0.0272993
0.0272995
0.0272998
0.0273
0.0273003
0.0273006
0.0273008
0.0273011
0.0273014
0.0273017
0.027302
0.0273023
0.0273026
0.0273029
0.0273032
0.0273034
0.0273037
0.0273039
0.0273042
0.0273044
0.0273046
0.0273049
0.0273052
0.0273053
0.0273062
0.0277584
0.027755
0.0277545
0.0277547
0.0277551
0.0277555
0.0277559
0.0277563
0.0277567
0.0277571
0.0277574
0.0277578
0.0277582
0.0277585
0.0277589
0.0277593
0.0277596
0.0277599
0.0277602
0.0277606
0.0277609
0.0277612
0.0277614
0.0277617
0.027762
0.0277622
0.0277624
0.0277626
0.0277628
0.027763
0.0277632
0.0277633
0.0277635
0.0277636
0.0277637
0.0277638
0.0277639
0.027764
0.0277641
0.0277641
0.0277642
0.0277642
0.0277642
0.0277643
0.0277643
0.0277643
0.0277643
0.0277643
0.0277643
0.0277643
0.0277643
0.0277643
0.0277643
0.0277642
0.0277642
0.0277641
0.0277641
0.0277641
0.027764
0.027764
0.0277639
0.0277639
0.0277639
0.0277639
0.0277639
0.0277639
0.0277639
0.027764
0.027764
0.027764
0.0277641
0.0277642
0.0277643
0.0277643
0.0277644
0.0277646
0.0277647
0.0277648
0.0277649
0.0277651
0.0277652
0.0277654
0.0277656
0.0277657
0.0277659
0.0277661
0.0277663
0.0277665
0.0277667
0.0277669
0.0277671
0.0277674
0.0277676
0.0277678
0.0277681
0.0277683
0.0277686
0.0277689
0.0277691
0.0277694
0.0277697
0.0277699
0.0277702
0.0277705
0.0277708
0.0277711
0.0277714
0.0277717
0.027772
0.0277723
0.0277726
0.0277729
0.0277732
0.0277735
0.0277738
0.0277741
0.0277744
0.0277747
0.0277749
0.0277758
0.0283023
0.0282986
0.0282981
0.0282983
0.0282987
0.0282992
0.0282996
0.0283
0.0283005
0.0283009
0.0283013
0.0283017
0.0283021
0.0283025
0.0283029
0.0283033
0.0283036
0.028304
0.0283043
0.0283046
0.028305
0.0283053
0.0283056
0.0283058
0.0283061
0.0283063
0.0283066
0.0283068
0.028307
0.0283072
0.0283073
0.0283075
0.0283076
0.0283078
0.0283079
0.028308
0.0283081
0.0283081
0.0283082
0.0283083
0.0283083
0.0283083
0.0283084
0.0283084
0.0283084
0.0283084
0.0283084
0.0283084
0.0283084
0.0283084
0.0283084
0.0283084
0.0283084
0.0283084
0.0283084
0.0283084
0.0283083
0.0283083
0.0283083
0.0283083
0.0283083
0.0283083
0.0283083
0.0283083
0.0283083
0.0283084
0.0283084
0.0283085
0.0283085
0.0283086
0.0283087
0.0283087
0.0283088
0.0283089
0.0283091
0.0283092
0.0283093
0.0283095
0.0283096
0.0283098
0.0283099
0.0283101
0.0283103
0.0283105
0.0283107
0.0283109
0.0283111
0.0283113
0.0283115
0.0283117
0.028312
0.0283122
0.0283125
0.0283127
0.028313
0.0283132
0.0283135
0.0283138
0.028314
0.0283143
0.0283146
0.0283149
0.0283152
0.0283155
0.0283158
0.0283161
0.0283164
0.0283167
0.0283171
0.0283174
0.0283177
0.028318
0.0283183
0.0283187
0.028319
0.0283193
0.0283196
0.0283199
0.0283202
0.0283212
0.0289236
0.0289195
0.028919
0.0289193
0.0289197
0.0289202
0.0289207
0.0289211
0.0289216
0.0289221
0.0289225
0.028923
0.0289234
0.0289238
0.0289242
0.0289246
0.028925
0.0289254
0.0289257
0.0289261
0.0289264
0.0289267
0.028927
0.0289273
0.0289276
0.0289279
0.0289281
0.0289283
0.0289285
0.0289287
0.0289289
0.028929
0.0289292
0.0289293
0.0289294
0.0289295
0.0289296
0.0289297
0.0289297
0.0289298
0.0289298
0.0289298
0.0289299
0.0289299
0.0289299
0.0289299
0.0289299
0.0289299
0.0289299
0.0289299
0.0289299
0.0289299
0.0289299
0.0289299
0.0289299
0.0289299
0.0289299
0.0289299
0.0289299
0.0289299
0.02893
0.02893
0.02893
0.0289301
0.0289301
0.0289302
0.0289302
0.0289303
0.0289304
0.0289305
0.0289306
0.0289307
0.0289308
0.0289309
0.0289311
0.0289312
0.0289314
0.0289316
0.0289317
0.0289319
0.0289321
0.0289323
0.0289325
0.0289327
0.0289329
0.0289331
0.0289334
0.0289336
0.0289338
0.0289341
0.0289343
0.0289346
0.0289348
0.0289351
0.0289354
0.0289356
0.0289359
0.0289362
0.0289365
0.0289368
0.0289371
0.0289374
0.0289377
0.028938
0.0289383
0.0289387
0.028939
0.0289393
0.0289397
0.02894
0.0289404
0.0289407
0.0289411
0.0289414
0.0289417
0.0289421
0.0289424
0.0289428
0.028943
0.0289442
0.0296248
0.0296203
0.0296197
0.02962
0.0296205
0.029621
0.0296216
0.0296221
0.0296226
0.0296231
0.0296236
0.0296241
0.0296245
0.029625
0.0296254
0.0296258
0.0296262
0.0296266
0.029627
0.0296274
0.0296277
0.029628
0.0296284
0.0296287
0.0296289
0.0296292
0.0296294
0.0296297
0.0296299
0.02963
0.0296302
0.0296304
0.0296305
0.0296306
0.0296307
0.0296308
0.0296309
0.029631
0.029631
0.0296311
0.0296311
0.0296311
0.0296311
0.0296312
0.0296312
0.0296312
0.0296312
0.0296312
0.0296312
0.0296312
0.0296312
0.0296312
0.0296312
0.0296312
0.0296312
0.0296313
0.0296313
0.0296313
0.0296313
0.0296314
0.0296314
0.0296315
0.0296316
0.0296316
0.0296317
0.0296318
0.0296319
0.029632
0.0296321
0.0296322
0.0296324
0.0296325
0.0296327
0.0296328
0.029633
0.0296332
0.0296334
0.0296336
0.0296338
0.029634
0.0296342
0.0296344
0.0296346
0.0296349
0.0296351
0.0296353
0.0296356
0.0296359
0.0296361
0.0296364
0.0296367
0.0296369
0.0296372
0.0296375
0.0296378
0.0296381
0.0296384
0.0296387
0.029639
0.0296393
0.0296397
0.02964
0.0296403
0.0296406
0.029641
0.0296413
0.0296417
0.029642
0.0296424
0.0296427
0.0296431
0.0296435
0.0296438
0.0296442
0.0296446
0.029645
0.0296453
0.0296457
0.0296459
0.0296472
0.030409
0.0304041
0.0304035
0.0304038
0.0304044
0.0304049
0.0304055
0.0304061
0.0304066
0.0304071
0.0304077
0.0304082
0.0304087
0.0304091
0.0304096
0.03041
0.0304105
0.0304109
0.0304113
0.0304116
0.030412
0.0304123
0.0304127
0.030413
0.0304132
0.0304135
0.0304137
0.030414
0.0304142
0.0304143
0.0304145
0.0304147
0.0304148
0.0304149
0.030415
0.0304151
0.0304152
0.0304152
0.0304153
0.0304153
0.0304153
0.0304154
0.0304154
0.0304154
0.0304154
0.0304154
0.0304154
0.0304154
0.0304154
0.0304154
0.0304154
0.0304155
0.0304155
0.0304155
0.0304155
0.0304156
0.0304156
0.0304157
0.0304158
0.0304158
0.0304159
0.030416
0.0304161
0.0304162
0.0304163
0.0304164
0.0304166
0.0304167
0.0304169
0.030417
0.0304172
0.0304174
0.0304176
0.0304178
0.030418
0.0304182
0.0304184
0.0304187
0.0304189
0.0304191
0.0304194
0.0304196
0.0304199
0.0304202
0.0304204
0.0304207
0.030421
0.0304213
0.0304216
0.0304219
0.0304222
0.0304225
0.0304228
0.0304231
0.0304234
0.0304238
0.0304241
0.0304244
0.0304248
0.0304251
0.0304255
0.0304258
0.0304262
0.0304265
0.0304269
0.0304272
0.0304276
0.030428
0.0304284
0.0304287
0.0304291
0.0304295
0.0304299
0.0304303
0.0304307
0.0304311
0.0304315
0.0304319
0.0304322
0.0304336
0.0312803
0.0312749
0.0312742
0.0312746
0.0312751
0.0312757
0.0312763
0.0312769
0.0312775
0.0312781
0.0312786
0.0312792
0.0312797
0.0312802
0.0312807
0.0312811
0.0312816
0.031282
0.0312824
0.0312828
0.0312831
0.0312835
0.0312838
0.0312841
0.0312844
0.0312846
0.0312849
0.0312851
0.0312853
0.0312854
0.0312856
0.0312857
0.0312859
0.031286
0.0312861
0.0312861
0.0312862
0.0312862
0.0312863
0.0312863
0.0312863
0.0312864
0.0312864
0.0312864
0.0312864
0.0312864
0.0312864
0.0312864
0.0312865
0.0312865
0.0312865
0.0312866
0.0312866
0.0312867
0.0312867
0.0312868
0.0312869
0.031287
0.0312871
0.0312872
0.0312873
0.0312874
0.0312876
0.0312877
0.0312879
0.031288
0.0312882
0.0312884
0.0312886
0.0312888
0.031289
0.0312893
0.0312895
0.0312897
0.03129
0.0312902
0.0312905
0.0312908
0.0312911
0.0312914
0.0312916
0.0312919
0.0312922
0.0312925
0.0312929
0.0312932
0.0312935
0.0312938
0.0312942
0.0312945
0.0312948
0.0312952
0.0312955
0.0312959
0.0312962
0.0312966
0.0312969
0.0312973
0.0312977
0.031298
0.0312984
0.0312988
0.0312992
0.0312995
0.0312999
0.0313003
0.0313007
0.0313011
0.0313015
0.0313019
0.0313023
0.0313028
0.0313032
0.0313036
0.031304
0.0313044
0.0313048
0.0313053
0.0313055
0.0313071
0.0322431
0.0322372
0.0322365
0.0322368
0.0322374
0.0322381
0.0322387
0.0322393
0.0322399
0.0322405
0.0322411
0.0322416
0.0322422
0.0322427
0.0322432
0.0322436
0.0322441
0.0322445
0.0322449
0.0322453
0.0322456
0.032246
0.0322463
0.0322466
0.0322469
0.0322471
0.0322473
0.0322475
0.0322477
0.0322479
0.032248
0.0322481
0.0322482
0.0322483
0.0322484
0.0322485
0.0322485
0.0322486
0.0322486
0.0322487
0.0322487
0.0322487
0.0322487
0.0322487
0.0322488
0.0322488
0.0322488
0.0322488
0.0322489
0.0322489
0.032249
0.0322491
0.0322491
0.0322492
0.0322493
0.0322494
0.0322495
0.0322497
0.0322498
0.03225
0.0322501
0.0322503
0.0322505
0.0322507
0.0322509
0.0322511
0.0322514
0.0322516
0.0322519
0.0322521
0.0322524
0.0322527
0.032253
0.0322533
0.0322536
0.0322539
0.0322542
0.0322545
0.0322549
0.0322552
0.0322555
0.0322559
0.0322562
0.0322566
0.0322569
0.0322573
0.0322577
0.032258
0.0322584
0.0322588
0.0322591
0.0322595
0.0322599
0.0322603
0.0322607
0.0322611
0.0322615
0.0322619
0.0322623
0.0322627
0.0322631
0.0322635
0.0322639
0.0322643
0.0322647
0.0322652
0.0322656
0.032266
0.0322665
0.0322669
0.0322673
0.0322678
0.0322682
0.0322687
0.0322691
0.0322695
0.03227
0.0322704
0.0322707
0.0322724
0.0333028
0.0332963
0.0332955
0.0332958
0.0332965
0.0332971
0.0332978
0.0332984
0.0332991
0.0332997
0.0333002
0.0333008
0.0333013
0.0333018
0.0333023
0.0333028
0.0333032
0.0333036
0.033304
0.0333044
0.0333047
0.0333051
0.0333054
0.0333056
0.0333059
0.0333061
0.0333063
0.0333065
0.0333067
0.0333068
0.0333069
0.033307
0.0333071
0.0333072
0.0333073
0.0333073
0.0333074
0.0333074
0.0333075
0.0333075
0.0333075
0.0333076
0.0333076
0.0333076
0.0333077
0.0333077
0.0333078
0.0333078
0.0333079
0.033308
0.0333081
0.0333082
0.0333083
0.0333085
0.0333086
0.0333088
0.0333089
0.0333091
0.0333093
0.0333095
0.0333098
0.03331
0.0333102
0.0333105
0.0333108
0.0333111
0.0333114
0.0333117
0.033312
0.0333123
0.0333127
0.033313
0.0333133
0.0333137
0.0333141
0.0333144
0.0333148
0.0333152
0.0333156
0.033316
0.0333163
0.0333167
0.0333171
0.0333175
0.0333179
0.0333184
0.0333188
0.0333192
0.0333196
0.03332
0.0333204
0.0333209
0.0333213
0.0333217
0.0333221
0.0333226
0.033323
0.0333235
0.0333239
0.0333243
0.0333248
0.0333252
0.0333257
0.0333261
0.0333266
0.033327
0.0333275
0.033328
0.0333284
0.0333289
0.0333294
0.0333298
0.0333303
0.0333308
0.0333312
0.0333317
0.0333322
0.0333326
0.0333329
0.0333348
0.0344652
0.0344582
0.0344572
0.0344576
0.0344582
0.0344589
0.0344595
0.0344602
0.0344608
0.0344614
0.034462
0.0344625
0.034463
0.0344635
0.034464
0.0344644
0.0344649
0.0344653
0.0344656
0.034466
0.0344663
0.0344666
0.0344669
0.0344671
0.0344673
0.0344676
0.0344677
0.0344679
0.034468
0.0344682
0.0344683
0.0344684
0.0344684
0.0344685
0.0344686
0.0344686
0.0344687
0.0344687
0.0344688
0.0344688
0.0344689
0.0344689
0.034469
0.034469
0.0344691
0.0344692
0.0344693
0.0344694
0.0344695
0.0344696
0.0344698
0.03447
0.0344701
0.0344703
0.0344705
0.0344708
0.034471
0.0344713
0.0344715
0.0344718
0.0344721
0.0344724
0.0344728
0.0344731
0.0344735
0.0344738
0.0344742
0.0344746
0.034475
0.0344753
0.0344758
0.0344762
0.0344766
0.034477
0.0344774
0.0344779
0.0344783
0.0344787
0.0344792
0.0344796
0.0344801
0.0344805
0.034481
0.0344815
0.0344819
0.0344824
0.0344828
0.0344833
0.0344838
0.0344842
0.0344847
0.0344852
0.0344856
0.0344861
0.0344866
0.0344871
0.0344876
0.034488
0.0344885
0.034489
0.0344895
0.03449
0.0344904
0.0344909
0.0344914
0.0344919
0.0344924
0.0344929
0.0344934
0.0344939
0.0344944
0.0344949
0.0344954
0.0344959
0.0344964
0.0344969
0.0344974
0.0344979
0.0344981
0.0345002
0.0357372
0.0357294
0.0357283
0.0357286
0.0357292
0.0357299
0.0357305
0.0357311
0.0357318
0.0357323
0.0357329
0.0357334
0.0357339
0.0357343
0.0357348
0.0357352
0.0357356
0.0357359
0.0357363
0.0357366
0.0357369
0.0357372
0.0357374
0.0357376
0.0357378
0.035738
0.0357381
0.0357383
0.0357384
0.0357385
0.0357386
0.0357387
0.0357387
0.0357388
0.0357389
0.0357389
0.035739
0.035739
0.0357391
0.0357392
0.0357392
0.0357393
0.0357394
0.0357395
0.0357397
0.0357398
0.03574
0.0357401
0.0357403
0.0357405
0.0357408
0.035741
0.0357413
0.0357416
0.0357418
0.0357422
0.0357425
0.0357428
0.0357432
0.0357436
0.035744
0.0357444
0.0357448
0.0357452
0.0357456
0.0357461
0.0357465
0.035747
0.0357475
0.0357479
0.0357484
0.0357489
0.0357494
0.0357499
0.0357504
0.0357509
0.0357514
0.0357519
0.0357524
0.0357529
0.0357535
0.035754
0.0357545
0.035755
0.0357555
0.035756
0.0357566
0.0357571
0.0357576
0.0357581
0.0357586
0.0357592
0.0357597
0.0357602
0.0357607
0.0357612
0.0357618
0.0357623
0.0357628
0.0357633
0.0357639
0.0357644
0.0357649
0.0357654
0.035766
0.0357665
0.035767
0.0357676
0.0357681
0.0357686
0.0357692
0.0357697
0.0357702
0.0357707
0.0357713
0.0357718
0.0357722
0.0357727
0.0357729
0.0357753
0.0371258
0.0371173
0.037116
0.0371162
0.0371168
0.0371174
0.037118
0.0371186
0.0371192
0.0371197
0.0371202
0.0371207
0.0371211
0.0371215
0.0371219
0.0371223
0.0371226
0.037123
0.0371233
0.0371235
0.0371238
0.037124
0.0371242
0.0371244
0.0371246
0.0371247
0.0371248
0.0371249
0.037125
0.0371251
0.0371252
0.0371252
0.0371253
0.0371254
0.0371254
0.0371255
0.0371256
0.0371257
0.0371258
0.0371259
0.037126
0.0371262
0.0371264
0.0371265
0.0371268
0.037127
0.0371272
0.0371275
0.0371278
0.0371281
0.0371284
0.0371288
0.0371291
0.0371295
0.0371299
0.0371303
0.0371308
0.0371312
0.0371317
0.0371322
0.0371327
0.0371332
0.0371337
0.0371342
0.0371347
0.0371353
0.0371358
0.0371364
0.0371369
0.0371375
0.0371381
0.0371386
0.0371392
0.0371398
0.0371404
0.037141
0.0371415
0.0371421
0.0371427
0.0371433
0.0371439
0.0371444
0.037145
0.0371456
0.0371462
0.0371468
0.0371473
0.0371479
0.0371485
0.0371491
0.0371496
0.0371502
0.0371508
0.0371514
0.0371519
0.0371525
0.0371531
0.0371536
0.0371542
0.0371548
0.0371553
0.0371559
0.0371565
0.037157
0.0371576
0.0371582
0.0371588
0.0371593
0.0371599
0.0371605
0.037161
0.0371616
0.0371621
0.0371627
0.0371632
0.0371637
0.0371641
0.0371646
0.0371647
0.0371673
0.0386392
0.0386298
0.0386283
0.0386284
0.0386289
0.0386295
0.03863
0.0386306
0.038631
0.0386315
0.0386319
0.0386323
0.0386327
0.0386331
0.0386334
0.0386337
0.038634
0.0386342
0.0386345
0.0386347
0.0386349
0.0386351
0.0386353
0.0386354
0.0386355
0.0386356
0.0386357
0.0386358
0.0386359
0.038636
0.038636
0.0386361
0.0386362
0.0386363
0.0386364
0.0386365
0.0386366
0.0386368
0.0386369
0.0386371
0.0386374
0.0386376
0.0386379
0.0386382
0.0386385
0.0386389
0.0386392
0.0386396
0.03864
0.0386405
0.0386409
0.0386414
0.0386419
0.0386424
0.0386429
0.0386435
0.038644
0.0386446
0.0386452
0.0386458
0.0386464
0.038647
0.0386477
0.0386483
0.0386489
0.0386496
0.0386502
0.0386509
0.0386515
0.0386522
0.0386529
0.0386535
0.0386542
0.0386549
0.0386555
0.0386562
0.0386568
0.0386575
0.0386582
0.0386588
0.0386595
0.0386601
0.0386608
0.0386614
0.038662
0.0386627
0.0386633
0.0386639
0.0386646
0.0386652
0.0386658
0.0386665
0.0386671
0.0386677
0.0386683
0.0386689
0.0386696
0.0386702
0.0386708
0.0386714
0.038672
0.0386726
0.0386732
0.0386739
0.0386745
0.0386751
0.0386757
0.0386763
0.0386769
0.0386775
0.0386781
0.0386786
0.0386792
0.0386797
0.0386802
0.0386806
0.0386811
0.0386815
0.0386815
0.0386843
0.040286
0.0402757
0.0402738
0.0402739
0.0402743
0.0402747
0.0402752
0.0402756
0.040276
0.0402764
0.0402767
0.040277
0.0402773
0.0402776
0.0402778
0.0402781
0.0402783
0.0402785
0.0402787
0.0402788
0.040279
0.0402791
0.0402793
0.0402794
0.0402795
0.0402795
0.0402796
0.0402797
0.0402797
0.0402798
0.0402799
0.04028
0.0402801
0.0402802
0.0402804
0.0402806
0.0402808
0.0402811
0.0402814
0.0402817
0.0402821
0.0402825
0.0402829
0.0402833
0.0402838
0.0402843
0.0402849
0.0402854
0.040286
0.0402866
0.0402872
0.0402878
0.0402885
0.0402891
0.0402898
0.0402905
0.0402912
0.0402919
0.0402927
0.0402934
0.0402941
0.0402949
0.0402956
0.0402964
0.0402971
0.0402979
0.0402987
0.0402994
0.0403002
0.0403009
0.0403017
0.0403025
0.0403032
0.040304
0.0403047
0.0403055
0.0403062
0.0403069
0.0403077
0.0403084
0.0403091
0.0403098
0.0403105
0.0403112
0.040312
0.0403127
0.0403134
0.040314
0.0403147
0.0403154
0.0403161
0.0403168
0.0403175
0.0403181
0.0403188
0.0403195
0.0403201
0.0403208
0.0403215
0.0403221
0.0403228
0.0403234
0.0403241
0.0403247
0.0403254
0.040326
0.0403267
0.0403273
0.0403279
0.0403286
0.0403291
0.0403297
0.0403302
0.0403307
0.0403311
0.0403315
0.0403318
0.0403321
0.0403319
0.040335
0.0420756
0.0420642
0.0420621
0.0420619
0.0420621
0.0420625
0.0420628
0.0420631
0.0420634
0.0420636
0.0420639
0.0420641
0.0420643
0.0420645
0.0420646
0.0420648
0.0420649
0.0420651
0.0420652
0.0420653
0.0420654
0.0420655
0.0420656
0.0420657
0.0420658
0.0420658
0.0420659
0.042066
0.042066
0.0420661
0.0420663
0.0420664
0.0420666
0.0420669
0.0420672
0.0420675
0.0420679
0.0420683
0.0420688
0.0420693
0.0420699
0.0420704
0.0420711
0.0420717
0.0420724
0.0420731
0.0420738
0.0420746
0.0420753
0.0420761
0.0420769
0.0420777
0.0420785
0.0420794
0.0420802
0.0420811
0.042082
0.0420828
0.0420837
0.0420846
0.0420855
0.0420863
0.0420872
0.0420881
0.042089
0.0420899
0.0420908
0.0420916
0.0420925
0.0420934
0.0420942
0.0420951
0.0420959
0.0420968
0.0420976
0.0420984
0.0420992
0.0421
0.0421008
0.0421016
0.0421024
0.0421032
0.042104
0.0421048
0.0421055
0.0421063
0.0421071
0.0421078
0.0421086
0.0421093
0.04211
0.0421108
0.0421115
0.0421122
0.0421129
0.0421136
0.0421144
0.0421151
0.0421158
0.0421165
0.0421172
0.0421179
0.0421186
0.0421193
0.04212
0.0421206
0.0421213
0.042122
0.0421226
0.0421232
0.0421237
0.0421242
0.0421247
0.042125
0.0421253
0.0421255
0.0421257
0.0421258
0.0421254
0.0421286
0.044018
0.0440055
0.0440029
0.0440025
0.0440026
0.0440028
0.0440029
0.0440031
0.0440033
0.0440034
0.0440035
0.0440036
0.0440037
0.0440038
0.0440039
0.044004
0.0440041
0.0440042
0.0440043
0.0440043
0.0440044
0.0440045
0.0440045
0.0440046
0.0440047
0.0440047
0.0440048
0.0440049
0.044005
0.0440052
0.0440055
0.0440057
0.0440061
0.0440065
0.044007
0.0440076
0.0440082
0.0440089
0.0440096
0.0440104
0.0440112
0.044012
0.0440129
0.0440138
0.0440147
0.0440156
0.0440166
0.0440176
0.0440185
0.0440195
0.0440205
0.0440216
0.0440226
0.0440236
0.0440247
0.0440257
0.0440267
0.0440278
0.0440288
0.0440298
0.0440309
0.0440319
0.0440329
0.0440339
0.0440349
0.0440359
0.0440369
0.0440379
0.0440389
0.0440398
0.0440408
0.0440417
0.0440427
0.0440436
0.0440445
0.0440454
0.0440463
0.0440472
0.0440481
0.044049
0.0440498
0.0440507
0.0440515
0.0440523
0.0440532
0.044054
0.0440548
0.0440556
0.0440564
0.0440572
0.044058
0.0440588
0.0440595
0.0440603
0.0440611
0.0440618
0.0440626
0.0440633
0.0440641
0.0440648
0.0440656
0.0440663
0.0440671
0.0440678
0.0440685
0.0440692
0.0440699
0.0440706
0.0440712
0.0440717
0.0440721
0.0440725
0.0440727
0.0440729
0.0440729
0.0440729
0.0440728
0.0440727
0.044072
0.0440754
0.0461239
0.0461102
0.0461072
0.0461065
0.0461064
0.0461064
0.0461064
0.0461064
0.0461064
0.0461065
0.0461065
0.0461065
0.0461065
0.0461065
0.0461065
0.0461066
0.0461066
0.0461067
0.0461067
0.0461068
0.0461068
0.0461069
0.046107
0.046107
0.0461071
0.0461072
0.0461073
0.0461075
0.0461078
0.0461081
0.0461086
0.0461091
0.0461097
0.0461104
0.0461112
0.0461121
0.046113
0.046114
0.0461151
0.0461162
0.0461173
0.0461184
0.0461196
0.0461208
0.046122
0.0461232
0.0461244
0.0461257
0.0461269
0.0461281
0.0461294
0.0461306
0.0461318
0.0461331
0.0461343
0.0461355
0.0461367
0.0461379
0.0461391
0.0461403
0.0461415
0.0461427
0.0461438
0.046145
0.0461461
0.0461472
0.0461483
0.0461494
0.0461505
0.0461516
0.0461526
0.0461536
0.0461547
0.0461557
0.0461567
0.0461576
0.0461586
0.0461596
0.0461605
0.0461614
0.0461624
0.0461633
0.0461642
0.0461651
0.0461659
0.0461668
0.0461677
0.0461685
0.0461694
0.0461702
0.0461711
0.0461719
0.0461727
0.0461735
0.0461743
0.0461751
0.0461759
0.0461767
0.0461775
0.0461783
0.0461791
0.0461799
0.0461807
0.0461814
0.0461822
0.0461829
0.0461835
0.0461841
0.0461846
0.0461849
0.0461852
0.0461852
0.0461852
0.046185
0.0461847
0.0461844
0.0461839
0.0461835
0.0461823
0.0461859
0.0484048
0.0483898
0.0483863
0.0483854
0.0483851
0.0483849
0.0483847
0.0483846
0.0483845
0.0483844
0.0483843
0.0483842
0.0483842
0.0483842
0.0483842
0.0483842
0.0483842
0.0483842
0.0483843
0.0483843
0.0483844
0.0483845
0.0483846
0.0483847
0.0483848
0.048385
0.0483853
0.0483856
0.0483861
0.0483868
0.0483876
0.0483885
0.0483895
0.0483906
0.0483918
0.0483931
0.0483945
0.0483959
0.0483974
0.0483989
0.0484004
0.0484019
0.0484034
0.0484049
0.0484064
0.048408
0.0484095
0.048411
0.0484125
0.0484139
0.0484154
0.0484169
0.0484183
0.0484198
0.0484212
0.0484226
0.048424
0.0484253
0.0484267
0.048428
0.0484294
0.0484307
0.0484319
0.0484332
0.0484345
0.0484357
0.0484369
0.0484381
0.0484392
0.0484404
0.0484415
0.0484426
0.0484437
0.0484448
0.0484459
0.0484469
0.048448
0.048449
0.04845
0.048451
0.0484519
0.0484529
0.0484539
0.0484548
0.0484557
0.0484567
0.0484576
0.0484585
0.0484594
0.0484602
0.0484611
0.048462
0.0484629
0.0484637
0.0484646
0.0484654
0.0484663
0.0484671
0.0484679
0.0484687
0.0484696
0.0484704
0.0484712
0.048472
0.0484727
0.0484734
0.0484739
0.0484743
0.0484745
0.0484745
0.0484743
0.048474
0.0484734
0.0484728
0.048472
0.0484712
0.0484703
0.0484695
0.0484678
0.0484716
0.0508727
0.0508565
0.0508525
0.0508513
0.0508508
0.0508505
0.0508502
0.0508499
0.0508497
0.0508495
0.0508494
0.0508493
0.0508492
0.0508492
0.0508492
0.0508492
0.0508492
0.0508493
0.0508494
0.0508495
0.0508496
0.0508497
0.0508499
0.05085
0.0508503
0.0508507
0.0508512
0.050852
0.0508529
0.050854
0.0508553
0.0508568
0.0508584
0.0508601
0.0508619
0.0508637
0.0508656
0.0508675
0.0508695
0.0508714
0.0508733
0.0508752
0.0508771
0.050879
0.0508809
0.0508827
0.0508845
0.0508863
0.050888
0.0508898
0.0508915
0.0508931
0.0508948
0.0508964
0.050898
0.0508996
0.0509012
0.0509027
0.0509042
0.0509057
0.0509071
0.0509085
0.0509099
0.0509113
0.0509126
0.050914
0.0509153
0.0509165
0.0509178
0.050919
0.0509202
0.0509214
0.0509226
0.0509237
0.0509248
0.0509259
0.050927
0.0509281
0.0509291
0.0509302
0.0509312
0.0509322
0.0509332
0.0509342
0.0509352
0.0509361
0.0509371
0.050938
0.050939
0.0509399
0.0509408
0.0509417
0.0509426
0.0509435
0.0509444
0.0509453
0.0509461
0.050947
0.0509479
0.0509487
0.0509496
0.0509504
0.0509513
0.050952
0.0509527
0.0509532
0.0509535
0.0509535
0.0509532
0.0509526
0.0509517
0.0509506
0.0509494
0.0509481
0.0509467
0.0509453
0.0509439
0.0509427
0.0509405
0.0509445
0.0535406
0.053523
0.0535187
0.0535173
0.0535166
0.0535161
0.0535157
0.0535154
0.0535152
0.053515
0.0535148
0.0535148
0.0535147
0.0535147
0.0535148
0.0535149
0.053515
0.0535151
0.0535153
0.0535154
0.0535156
0.0535158
0.0535161
0.0535165
0.053517
0.0535178
0.0535188
0.0535202
0.0535218
0.0535237
0.0535258
0.053528
0.0535303
0.0535328
0.0535352
0.0535377
0.0535402
0.0535427
0.0535451
0.0535476
0.0535499
0.0535522
0.0535545
0.0535567
0.0535589
0.0535611
0.0535631
0.0535652
0.0535672
0.0535691
0.0535711
0.0535729
0.0535748
0.0535766
0.0535783
0.0535801
0.0535818
0.0535834
0.053585
0.0535866
0.0535882
0.0535897
0.0535912
0.0535927
0.0535941
0.0535955
0.0535969
0.0535982
0.0535995
0.0536008
0.0536021
0.0536033
0.0536045
0.0536057
0.0536069
0.053608
0.0536091
0.0536103
0.0536113
0.0536124
0.0536135
0.0536145