/*--------------------------------*- C++ -*----------------------------------*\
  =========                 |
  \\      /  F ield         | OpenFOAM: The Open Source CFD Toolbox
   \\    /   O peration     | Website:  https://openfoam.org
    \\  /    A nd           | Version:  7
     \\/     M anipulation  |
\*---------------------------------------------------------------------------*/
FoamFile
{
    version     2.0;
    format      ascii;
    class       volScalarField;
    location    "3500";
    object      k;
}
// * * * * * * * * * * * * * * * * * * * * * * * * * * * * * * * * * * * * * //

dimensions      [0 2 -2 0 0 0 0];

internalField   nonuniform List<scalar> 
4037
(
0.000183959
0.000183959
0.00018396
0.00018396
0.00018396
0.00018396
0.00018396
0.000183961
0.000183961
0.000183961
0.000183961
0.000183962
0.000183962
0.000183963
0.000183963
0.000183963
0.000183964
0.000183964
0.000183965
0.000183965
0.000183965
0.000183966
0.000183966
0.000183967
0.000183967
0.000183967
0.000183968
0.000183968
0.000183969
0.000183969
0.00018397
0.00018397
0.00018397
0.000183971
0.000183971
0.000183972
0.000183972
0.000183972
0.000183973
0.000183973
0.000183973
0.000183974
0.000183974
0.000183974
0.000183975
0.000183975
0.000183975
0.000183976
0.000183976
0.000183976
0.000183976
0.000183977
0.000183977
0.000183977
0.000183977
0.000183977
0.000183977
0.000183978
0.000183978
0.000183978
0.000183978
0.000183978
0.000183978
0.000183978
0.000183978
0.000183978
0.000183978
0.000183979
0.000183979
0.000183979
0.000183979
0.000183979
0.000183979
0.000183979
0.000183979
0.000183978
0.000183979
0.000184468
0.000184467
0.000184465
0.000184464
0.000184463
0.000184462
0.000184461
0.000184461
0.00018446
0.000184459
0.000184459
0.000184458
0.000184458
0.000184457
0.000184457
0.000184457
0.000184457
0.000184457
0.000184457
0.000184457
0.000184457
0.000184457
0.000184457
0.000184457
0.000184458
0.000184459
0.000184459
0.000184459
0.00018446
0.00018446
0.00018446
0.000184461
0.000184461
0.000184461
0.000184462
0.000184462
0.000184462
0.000184463
0.000184463
0.000184464
0.000184464
0.000184465
0.000184465
0.000184466
0.000184466
0.000184466
0.000184467
0.000184467
0.000184468
0.000184468
0.000184469
0.000184469
0.000184469
0.00018447
0.00018447
0.000184471
0.000184471
0.000184471
0.000184472
0.000184472
0.000184473
0.000184473
0.000184473
0.000184474
0.000184474
0.000184474
0.000184475
0.000184475
0.000184475
0.000184476
0.000184476
0.000184476
0.000184476
0.000184477
0.000184477
0.000184477
0.000184477
0.000184477
0.000184478
0.000184478
0.000184478
0.000184478
0.000184478
0.000184478
0.000184478
0.000184479
0.000184479
0.000184479
0.000184479
0.000184479
0.000184479
0.000184479
0.000184479
0.000184479
0.000184479
0.000184479
0.000184479
0.000184479
0.000184479
0.000184479
0.000184479
0.000184477
0.000184476
0.000184476
0.000184476
0.000184476
0.000184475
0.000184475
0.000184475
0.000184475
0.000184474
0.000184474
0.000184474
0.000184473
0.000184473
0.000184473
0.000184472
0.000184472
0.000184471
0.000184471
0.000184868
0.000184866
0.000184865
0.000184864
0.000184862
0.000184861
0.000184861
0.00018486
0.000184859
0.000184858
0.000184858
0.000184857
0.000184857
0.000184856
0.000184856
0.000184856
0.000184856
0.000184856
0.000184855
0.000184855
0.000184856
0.000184856
0.000184856
0.000184856
0.000184857
0.000184857
0.000184858
0.000184858
0.000184859
0.000184859
0.00018486
0.00018486
0.000184861
0.000184861
0.000184861
0.000184862
0.000184862
0.000184863
0.000184863
0.000184864
0.000184864
0.000184865
0.000184865
0.000184866
0.000184866
0.000184867
0.000184867
0.000184867
0.000184868
0.000184868
0.000184869
0.000184869
0.00018487
0.00018487
0.00018487
0.000184871
0.000184871
0.000184872
0.000184872
0.000184872
0.000184873
0.000184873
0.000184874
0.000184874
0.000184874
0.000184874
0.000184875
0.000184875
0.000184875
0.000184876
0.000184876
0.000184876
0.000184876
0.000184877
0.000184877
0.000184877
0.000184877
0.000184877
0.000184878
0.000184878
0.000184878
0.000184878
0.000184878
0.000184878
0.000184878
0.000184878
0.000184879
0.000184879
0.000184879
0.000184879
0.000184879
0.000184879
0.000184879
0.000184879
0.000184879
0.000184879
0.000184879
0.000184879
0.000184879
0.000184879
0.000184879
0.000184878
0.000184877
0.000184876
0.000184876
0.000184876
0.000184875
0.000184875
0.000184875
0.000184875
0.000184874
0.000184874
0.000184873
0.000184873
0.000184873
0.000184872
0.000184872
0.000184871
0.000184871
0.000184871
0.000185161
0.000185159
0.000185158
0.000185156
0.000185155
0.000185154
0.000185153
0.000185152
0.000185151
0.000185151
0.00018515
0.000185149
0.000185149
0.000185149
0.000185148
0.000185148
0.000185148
0.000185148
0.000185148
0.000185148
0.000185148
0.000185148
0.000185148
0.000185149
0.000185149
0.00018515
0.00018515
0.000185151
0.000185152
0.000185152
0.000185153
0.000185153
0.000185154
0.000185154
0.000185155
0.000185155
0.000185156
0.000185156
0.000185157
0.000185157
0.000185158
0.000185158
0.000185159
0.000185159
0.00018516
0.00018516
0.000185161
0.000185161
0.000185162
0.000185162
0.000185162
0.000185163
0.000185163
0.000185164
0.000185164
0.000185165
0.000185165
0.000185165
0.000185166
0.000185166
0.000185167
0.000185167
0.000185167
0.000185168
0.000185168
0.000185168
0.000185168
0.000185169
0.000185169
0.000185169
0.000185169
0.00018517
0.00018517
0.00018517
0.00018517
0.000185171
0.000185171
0.000185171
0.000185171
0.000185171
0.000185171
0.000185171
0.000185172
0.000185172
0.000185172
0.000185172
0.000185172
0.000185172
0.000185172
0.000185172
0.000185172
0.000185172
0.000185172
0.000185172
0.000185172
0.000185172
0.000185172
0.000185172
0.000185172
0.000185172
0.000185172
0.000185172
0.000185171
0.00018517
0.00018517
0.000185169
0.000185169
0.000185169
0.000185168
0.000185168
0.000185167
0.000185167
0.000185167
0.000185166
0.000185166
0.000185165
0.000185165
0.000185165
0.000185164
0.000185164
0.000185341
0.000185339
0.000185337
0.000185336
0.000185334
0.000185333
0.000185332
0.000185331
0.00018533
0.00018533
0.000185329
0.000185328
0.000185328
0.000185327
0.000185327
0.000185327
0.000185327
0.000185327
0.000185327
0.000185327
0.000185327
0.000185327
0.000185327
0.000185328
0.000185328
0.000185329
0.00018533
0.00018533
0.000185331
0.000185331
0.000185332
0.000185333
0.000185333
0.000185334
0.000185334
0.000185335
0.000185335
0.000185336
0.000185337
0.000185337
0.000185338
0.000185338
0.000185339
0.000185339
0.00018534
0.00018534
0.000185341
0.000185341
0.000185342
0.000185342
0.000185343
0.000185343
0.000185343
0.000185344
0.000185344
0.000185345
0.000185345
0.000185346
0.000185346
0.000185346
0.000185347
0.000185347
0.000185347
0.000185348
0.000185348
0.000185348
0.000185348
0.000185349
0.000185349
0.000185349
0.000185349
0.00018535
0.00018535
0.00018535
0.00018535
0.000185351
0.000185351
0.000185351
0.000185351
0.000185351
0.000185351
0.000185351
0.000185352
0.000185352
0.000185352
0.000185352
0.000185352
0.000185352
0.000185352
0.000185352
0.000185352
0.000185352
0.000185352
0.000185352
0.000185352
0.000185352
0.000185352
0.000185352
0.000185352
0.000185352
0.000185352
0.000185352
0.000185351
0.00018535
0.00018535
0.000185349
0.000185349
0.000185349
0.000185348
0.000185348
0.000185347
0.000185347
0.000185346
0.000185346
0.000185346
0.000185345
0.000185345
0.000185344
0.000185344
0.000185344
0.000185399
0.000185397
0.000185395
0.000185393
0.000185392
0.00018539
0.000185389
0.000185388
0.000185387
0.000185387
0.000185386
0.000185385
0.000185385
0.000185384
0.000185384
0.000185384
0.000185384
0.000185384
0.000185384
0.000185384
0.000185384
0.000185384
0.000185385
0.000185385
0.000185385
0.000185386
0.000185387
0.000185388
0.000185388
0.000185389
0.00018539
0.00018539
0.000185391
0.000185392
0.000185392
0.000185393
0.000185393
0.000185394
0.000185395
0.000185395
0.000185396
0.000185396
0.000185397
0.000185398
0.000185398
0.000185399
0.000185399
0.0001854
0.0001854
0.0001854
0.000185401
0.000185401
0.000185402
0.000185402
0.000185403
0.000185403
0.000185403
0.000185404
0.000185404
0.000185405
0.000185405
0.000185405
0.000185406
0.000185406
0.000185406
0.000185406
0.000185407
0.000185407
0.000185407
0.000185407
0.000185408
0.000185408
0.000185408
0.000185408
0.000185408
0.000185409
0.000185409
0.000185409
0.000185409
0.000185409
0.000185409
0.000185409
0.000185409
0.00018541
0.00018541
0.00018541
0.00018541
0.00018541
0.00018541
0.00018541
0.00018541
0.00018541
0.00018541
0.00018541
0.00018541
0.00018541
0.00018541
0.00018541
0.00018541
0.00018541
0.00018541
0.00018541
0.000185409
0.000185409
0.000185408
0.000185408
0.000185407
0.000185407
0.000185406
0.000185406
0.000185405
0.000185405
0.000185404
0.000185404
0.000185403
0.000185403
0.000185403
0.000185402
0.000185401
0.000185402
0.000185325
0.000185322
0.00018532
0.000185319
0.000185317
0.000185316
0.000185314
0.000185313
0.000185313
0.000185312
0.000185311
0.00018531
0.00018531
0.00018531
0.000185309
0.000185309
0.000185309
0.000185309
0.000185309
0.000185309
0.00018531
0.00018531
0.00018531
0.000185311
0.000185311
0.000185312
0.000185312
0.000185313
0.000185314
0.000185315
0.000185315
0.000185316
0.000185317
0.000185317
0.000185318
0.000185319
0.000185319
0.00018532
0.000185321
0.000185321
0.000185322
0.000185323
0.000185323
0.000185324
0.000185324
0.000185325
0.000185325
0.000185326
0.000185326
0.000185327
0.000185327
0.000185328
0.000185328
0.000185328
0.000185329
0.000185329
0.00018533
0.00018533
0.00018533
0.000185331
0.000185331
0.000185331
0.000185332
0.000185332
0.000185332
0.000185333
0.000185333
0.000185333
0.000185333
0.000185333
0.000185334
0.000185334
0.000185334
0.000185334
0.000185334
0.000185335
0.000185335
0.000185335
0.000185335
0.000185335
0.000185335
0.000185335
0.000185335
0.000185336
0.000185336
0.000185336
0.000185336
0.000185336
0.000185336
0.000185336
0.000185336
0.000185336
0.000185336
0.000185336
0.000185336
0.000185336
0.000185336
0.000185336
0.000185336
0.000185336
0.000185336
0.000185336
0.000185336
0.000185335
0.000185334
0.000185334
0.000185333
0.000185333
0.000185332
0.000185332
0.000185331
0.000185331
0.00018533
0.00018533
0.000185329
0.000185329
0.000185328
0.000185328
0.000185327
0.000185328
0.000185107
0.000185104
0.000185102
0.0001851
0.000185098
0.000185097
0.000185096
0.000185095
0.000185094
0.000185093
0.000185092
0.000185092
0.000185091
0.000185091
0.000185091
0.000185091
0.000185091
0.000185091
0.000185091
0.000185091
0.000185091
0.000185091
0.000185092
0.000185092
0.000185093
0.000185093
0.000185094
0.000185095
0.000185095
0.000185096
0.000185097
0.000185098
0.000185099
0.000185099
0.0001851
0.000185101
0.000185101
0.000185102
0.000185103
0.000185104
0.000185104
0.000185105
0.000185106
0.000185106
0.000185107
0.000185107
0.000185108
0.000185108
0.000185109
0.000185109
0.00018511
0.00018511
0.00018511
0.000185111
0.000185111
0.000185112
0.000185112
0.000185112
0.000185113
0.000185113
0.000185113
0.000185114
0.000185114
0.000185114
0.000185115
0.000185115
0.000185115
0.000185115
0.000185115
0.000185116
0.000185116
0.000185116
0.000185116
0.000185116
0.000185117
0.000185117
0.000185117
0.000185117
0.000185117
0.000185117
0.000185117
0.000185117
0.000185117
0.000185118
0.000185118
0.000185118
0.000185118
0.000185118
0.000185118
0.000185118
0.000185118
0.000185118
0.000185118
0.000185118
0.000185118
0.000185118
0.000185118
0.000185118
0.000185118
0.000185118
0.000185118
0.000185118
0.000185118
0.000185117
0.000185117
0.000185116
0.000185116
0.000185115
0.000185114
0.000185114
0.000185113
0.000185113
0.000185112
0.000185112
0.000185111
0.000185111
0.00018511
0.00018511
0.000185109
0.00018511
0.00018473
0.000184728
0.000184726
0.000184723
0.000184722
0.00018472
0.000184719
0.000184718
0.000184717
0.000184716
0.000184715
0.000184715
0.000184714
0.000184714
0.000184714
0.000184714
0.000184714
0.000184714
0.000184714
0.000184714
0.000184714
0.000184715
0.000184715
0.000184716
0.000184716
0.000184717
0.000184717
0.000184718
0.000184719
0.00018472
0.000184721
0.000184721
0.000184722
0.000184723
0.000184724
0.000184724
0.000184725
0.000184726
0.000184727
0.000184727
0.000184728
0.000184729
0.000184729
0.00018473
0.000184731
0.000184731
0.000184732
0.000184732
0.000184733
0.000184733
0.000184734
0.000184734
0.000184734
0.000184735
0.000184735
0.000184736
0.000184736
0.000184736
0.000184737
0.000184737
0.000184737
0.000184738
0.000184738
0.000184738
0.000184738
0.000184739
0.000184739
0.000184739
0.000184739
0.000184739
0.00018474
0.00018474
0.00018474
0.00018474
0.00018474
0.00018474
0.000184741
0.000184741
0.000184741
0.000184741
0.000184741
0.000184741
0.000184741
0.000184741
0.000184741
0.000184741
0.000184741
0.000184741
0.000184741
0.000184742
0.000184742
0.000184742
0.000184742
0.000184742
0.000184742
0.000184742
0.000184742
0.000184742
0.000184742
0.000184742
0.000184742
0.000184742
0.000184741
0.000184741
0.000184741
0.00018474
0.000184739
0.000184739
0.000184738
0.000184738
0.000184737
0.000184737
0.000184736
0.000184736
0.000184735
0.000184735
0.000184734
0.000184734
0.000184733
0.000184733
0.000184178
0.000184176
0.000184173
0.000184171
0.000184169
0.000184168
0.000184166
0.000184165
0.000184164
0.000184163
0.000184163
0.000184162
0.000184162
0.000184161
0.000184161
0.000184161
0.000184161
0.000184161
0.000184162
0.000184162
0.000184162
0.000184162
0.000184163
0.000184163
0.000184164
0.000184165
0.000184165
0.000184166
0.000184167
0.000184168
0.000184168
0.000184169
0.00018417
0.000184171
0.000184172
0.000184172
0.000184173
0.000184174
0.000184175
0.000184175
0.000184176
0.000184177
0.000184178
0.000184178
0.000184179
0.000184179
0.00018418
0.000184181
0.000184181
0.000184181
0.000184182
0.000184182
0.000184183
0.000184183
0.000184183
0.000184184
0.000184184
0.000184185
0.000184185
0.000184185
0.000184186
0.000184186
0.000184186
0.000184186
0.000184187
0.000184187
0.000184187
0.000184187
0.000184187
0.000184187
0.000184188
0.000184188
0.000184188
0.000184188
0.000184188
0.000184188
0.000184188
0.000184189
0.000184189
0.000184189
0.000184189
0.000184189
0.000184189
0.000184189
0.000184189
0.000184189
0.000184189
0.000184189
0.000184189
0.000184189
0.000184189
0.00018419
0.00018419
0.00018419
0.00018419
0.00018419
0.00018419
0.00018419
0.00018419
0.000184189
0.000184189
0.000184189
0.000184189
0.000184189
0.000184189
0.000184188
0.000184188
0.000184187
0.000184187
0.000184186
0.000184185
0.000184185
0.000184184
0.000184184
0.000184183
0.000184183
0.000184182
0.000184182
0.000184181
0.000184181
0.00018343
0.000183427
0.000183424
0.000183422
0.00018342
0.000183419
0.000183417
0.000183416
0.000183415
0.000183414
0.000183414
0.000183413
0.000183413
0.000183412
0.000183412
0.000183412
0.000183412
0.000183412
0.000183413
0.000183413
0.000183413
0.000183414
0.000183414
0.000183415
0.000183415
0.000183416
0.000183416
0.000183417
0.000183418
0.000183419
0.00018342
0.00018342
0.000183421
0.000183422
0.000183423
0.000183424
0.000183425
0.000183425
0.000183426
0.000183427
0.000183428
0.000183428
0.000183429
0.00018343
0.00018343
0.000183431
0.000183432
0.000183432
0.000183432
0.000183433
0.000183433
0.000183434
0.000183434
0.000183435
0.000183435
0.000183435
0.000183436
0.000183436
0.000183436
0.000183437
0.000183437
0.000183437
0.000183437
0.000183438
0.000183438
0.000183438
0.000183438
0.000183438
0.000183439
0.000183439
0.000183439
0.000183439
0.000183439
0.000183439
0.000183439
0.00018344
0.00018344
0.00018344
0.00018344
0.00018344
0.00018344
0.00018344
0.00018344
0.00018344
0.00018344
0.00018344
0.00018344
0.00018344
0.00018344
0.000183441
0.000183441
0.000183441
0.000183441
0.000183441
0.000183441
0.000183441
0.000183441
0.000183441
0.000183441
0.000183441
0.000183441
0.000183441
0.000183441
0.00018344
0.00018344
0.00018344
0.000183439
0.000183439
0.000183438
0.000183437
0.000183437
0.000183436
0.000183436
0.000183435
0.000183435
0.000183434
0.000183434
0.000183433
0.000183433
0.000183433
0.000182459
0.000182456
0.000182453
0.000182451
0.000182449
0.000182447
0.000182446
0.000182445
0.000182444
0.000182443
0.000182442
0.000182441
0.000182441
0.000182441
0.000182441
0.000182441
0.000182441
0.000182441
0.000182441
0.000182442
0.000182442
0.000182442
0.000182443
0.000182443
0.000182444
0.000182445
0.000182445
0.000182446
0.000182447
0.000182448
0.000182448
0.000182449
0.00018245
0.000182451
0.000182452
0.000182453
0.000182453
0.000182454
0.000182455
0.000182456
0.000182457
0.000182457
0.000182458
0.000182459
0.000182459
0.00018246
0.000182461
0.000182461
0.000182462
0.000182462
0.000182462
0.000182463
0.000182463
0.000182464
0.000182464
0.000182464
0.000182465
0.000182465
0.000182465
0.000182466
0.000182466
0.000182466
0.000182466
0.000182467
0.000182467
0.000182467
0.000182467
0.000182467
0.000182467
0.000182467
0.000182468
0.000182468
0.000182468
0.000182468
0.000182468
0.000182468
0.000182468
0.000182468
0.000182469
0.000182469
0.000182469
0.000182469
0.000182469
0.000182469
0.000182469
0.000182469
0.000182469
0.000182469
0.000182469
0.000182469
0.000182469
0.000182469
0.000182469
0.000182469
0.000182469
0.000182469
0.000182469
0.000182469
0.000182469
0.000182469
0.000182469
0.000182469
0.000182469
0.000182469
0.000182469
0.000182468
0.000182468
0.000182468
0.000182467
0.000182466
0.000182466
0.000182465
0.000182465
0.000182464
0.000182464
0.000182463
0.000182463
0.000182462
0.000182461
0.000182462
0.000181234
0.000181231
0.000181228
0.000181225
0.000181223
0.000181222
0.00018122
0.000181219
0.000181218
0.000181217
0.000181217
0.000181216
0.000181216
0.000181215
0.000181215
0.000181215
0.000181216
0.000181216
0.000181216
0.000181216
0.000181217
0.000181217
0.000181218
0.000181218
0.000181219
0.00018122
0.00018122
0.000181221
0.000181222
0.000181223
0.000181223
0.000181224
0.000181225
0.000181226
0.000181227
0.000181228
0.000181228
0.000181229
0.00018123
0.000181231
0.000181231
0.000181232
0.000181233
0.000181234
0.000181234
0.000181235
0.000181235
0.000181236
0.000181236
0.000181237
0.000181237
0.000181238
0.000181238
0.000181238
0.000181239
0.000181239
0.00018124
0.00018124
0.00018124
0.00018124
0.000181241
0.000181241
0.000181241
0.000181241
0.000181242
0.000181242
0.000181242
0.000181242
0.000181242
0.000181242
0.000181242
0.000181242
0.000181243
0.000181243
0.000181243
0.000181243
0.000181243
0.000181243
0.000181243
0.000181243
0.000181243
0.000181243
0.000181243
0.000181243
0.000181244
0.000181244
0.000181244
0.000181244
0.000181244
0.000181244
0.000181244
0.000181244
0.000181244
0.000181244
0.000181244
0.000181244
0.000181244
0.000181244
0.000181244
0.000181244
0.000181244
0.000181244
0.000181244
0.000181244
0.000181244
0.000181243
0.000181243
0.000181243
0.000181242
0.000181241
0.000181241
0.00018124
0.00018124
0.000181239
0.000181239
0.000181238
0.000181238
0.000181237
0.000181236
0.000181237
0.000179716
0.000179713
0.00017971
0.000179707
0.000179705
0.000179704
0.000179702
0.000179701
0.0001797
0.000179699
0.000179698
0.000179698
0.000179698
0.000179697
0.000179697
0.000179697
0.000179698
0.000179698
0.000179698
0.000179699
0.000179699
0.000179699
0.0001797
0.000179701
0.000179701
0.000179702
0.000179703
0.000179703
0.000179704
0.000179705
0.000179706
0.000179706
0.000179707
0.000179708
0.000179709
0.00017971
0.00017971
0.000179711
0.000179712
0.000179713
0.000179714
0.000179714
0.000179715
0.000179716
0.000179716
0.000179717
0.000179718
0.000179718
0.000179719
0.000179719
0.000179719
0.00017972
0.00017972
0.00017972
0.000179721
0.000179721
0.000179721
0.000179722
0.000179722
0.000179722
0.000179723
0.000179723
0.000179723
0.000179723
0.000179723
0.000179724
0.000179724
0.000179724
0.000179724
0.000179724
0.000179724
0.000179724
0.000179724
0.000179724
0.000179725
0.000179725
0.000179725
0.000179725
0.000179725
0.000179725
0.000179725
0.000179725
0.000179725
0.000179725
0.000179725
0.000179725
0.000179725
0.000179725
0.000179725
0.000179726
0.000179726
0.000179726
0.000179726
0.000179726
0.000179726
0.000179726
0.000179726
0.000179726
0.000179726
0.000179726
0.000179726
0.000179726
0.000179726
0.000179726
0.000179725
0.000179725
0.000179725
0.000179725
0.000179724
0.000179724
0.000179723
0.000179723
0.000179722
0.000179721
0.000179721
0.00017972
0.00017972
0.000179719
0.000179719
0.000179719
0.000177857
0.000177854
0.000177851
0.000177848
0.000177846
0.000177844
0.000177843
0.000177842
0.000177841
0.00017784
0.000177839
0.000177839
0.000177838
0.000177838
0.000177838
0.000177838
0.000177838
0.000177839
0.000177839
0.000177839
0.00017784
0.00017784
0.000177841
0.000177842
0.000177842
0.000177843
0.000177844
0.000177844
0.000177845
0.000177846
0.000177846
0.000177847
0.000177848
0.000177849
0.00017785
0.00017785
0.000177851
0.000177852
0.000177853
0.000177853
0.000177854
0.000177855
0.000177856
0.000177856
0.000177857
0.000177858
0.000177858
0.000177859
0.000177859
0.00017786
0.00017786
0.00017786
0.000177861
0.000177861
0.000177861
0.000177862
0.000177862
0.000177862
0.000177863
0.000177863
0.000177863
0.000177863
0.000177864
0.000177864
0.000177864
0.000177864
0.000177864
0.000177864
0.000177864
0.000177864
0.000177865
0.000177865
0.000177865
0.000177865
0.000177865
0.000177865
0.000177865
0.000177865
0.000177865
0.000177865
0.000177865
0.000177866
0.000177866
0.000177866
0.000177866
0.000177866
0.000177866
0.000177866
0.000177866
0.000177866
0.000177866
0.000177866
0.000177866
0.000177866
0.000177866
0.000177866
0.000177866
0.000177866
0.000177866
0.000177866
0.000177866
0.000177866
0.000177866
0.000177866
0.000177866
0.000177866
0.000177866
0.000177865
0.000177865
0.000177864
0.000177864
0.000177863
0.000177863
0.000177862
0.000177862
0.000177861
0.000177861
0.00017786
0.000177859
0.00017786
0.000175596
0.000175592
0.000175589
0.000175587
0.000175585
0.000175583
0.000175582
0.000175581
0.000175579
0.000175579
0.000175578
0.000175577
0.000175577
0.000175577
0.000175577
0.000175577
0.000175577
0.000175578
0.000175578
0.000175578
0.000175579
0.000175579
0.00017558
0.000175581
0.000175581
0.000175582
0.000175583
0.000175583
0.000175584
0.000175585
0.000175585
0.000175586
0.000175587
0.000175588
0.000175588
0.000175589
0.00017559
0.000175591
0.000175591
0.000175592
0.000175593
0.000175594
0.000175594
0.000175595
0.000175596
0.000175596
0.000175597
0.000175597
0.000175598
0.000175598
0.000175599
0.000175599
0.000175599
0.0001756
0.0001756
0.0001756
0.000175601
0.000175601
0.000175601
0.000175602
0.000175602
0.000175602
0.000175602
0.000175602
0.000175602
0.000175603
0.000175603
0.000175603
0.000175603
0.000175603
0.000175603
0.000175603
0.000175603
0.000175603
0.000175603
0.000175604
0.000175604
0.000175604
0.000175604
0.000175604
0.000175604
0.000175604
0.000175604
0.000175604
0.000175604
0.000175604
0.000175604
0.000175604
0.000175604
0.000175604
0.000175604
0.000175604
0.000175604
0.000175605
0.000175605
0.000175605
0.000175605
0.000175605
0.000175605
0.000175605
0.000175605
0.000175605
0.000175605
0.000175605
0.000175604
0.000175604
0.000175604
0.000175604
0.000175603
0.000175603
0.000175603
0.000175602
0.000175602
0.000175601
0.000175601
0.0001756
0.0001756
0.000175599
0.000175598
0.000175599
0.000172856
0.000172853
0.00017285
0.000172847
0.000172845
0.000172843
0.000172842
0.000172841
0.00017284
0.000172839
0.000172838
0.000172838
0.000172838
0.000172837
0.000172838
0.000172838
0.000172838
0.000172838
0.000172839
0.000172839
0.00017284
0.00017284
0.000172841
0.000172841
0.000172842
0.000172843
0.000172843
0.000172844
0.000172845
0.000172845
0.000172846
0.000172847
0.000172847
0.000172848
0.000172849
0.00017285
0.00017285
0.000172851
0.000172852
0.000172852
0.000172853
0.000172854
0.000172855
0.000172855
0.000172856
0.000172857
0.000172857
0.000172858
0.000172858
0.000172858
0.000172859
0.000172859
0.00017286
0.00017286
0.00017286
0.00017286
0.000172861
0.000172861
0.000172861
0.000172862
0.000172862
0.000172862
0.000172862
0.000172862
0.000172862
0.000172863
0.000172863
0.000172863
0.000172863
0.000172863
0.000172863
0.000172863
0.000172863
0.000172863
0.000172863
0.000172864
0.000172864
0.000172864
0.000172864
0.000172864
0.000172864
0.000172864
0.000172864
0.000172864
0.000172864
0.000172864
0.000172864
0.000172864
0.000172864
0.000172864
0.000172864
0.000172864
0.000172864
0.000172864
0.000172864
0.000172865
0.000172865
0.000172865
0.000172865
0.000172865
0.000172865
0.000172865
0.000172865
0.000172865
0.000172865
0.000172864
0.000172864
0.000172864
0.000172864
0.000172863
0.000172863
0.000172863
0.000172862
0.000172862
0.000172861
0.000172861
0.00017286
0.00017286
0.000172859
0.000172859
0.000169541
0.000169538
0.000169535
0.000169532
0.00016953
0.000169528
0.000169527
0.000169526
0.000169525
0.000169524
0.000169523
0.000169523
0.000169523
0.000169522
0.000169522
0.000169523
0.000169523
0.000169523
0.000169524
0.000169524
0.000169525
0.000169525
0.000169526
0.000169526
0.000169527
0.000169528
0.000169528
0.000169529
0.00016953
0.00016953
0.000169531
0.000169532
0.000169532
0.000169533
0.000169534
0.000169534
0.000169535
0.000169536
0.000169536
0.000169537
0.000169538
0.000169538
0.000169539
0.00016954
0.00016954
0.000169541
0.000169542
0.000169542
0.000169542
0.000169543
0.000169543
0.000169544
0.000169544
0.000169544
0.000169545
0.000169545
0.000169545
0.000169545
0.000169546
0.000169546
0.000169546
0.000169546
0.000169546
0.000169547
0.000169547
0.000169547
0.000169547
0.000169547
0.000169547
0.000169547
0.000169547
0.000169547
0.000169547
0.000169548
0.000169548
0.000169548
0.000169548
0.000169548
0.000169548
0.000169548
0.000169548
0.000169548
0.000169548
0.000169548
0.000169548
0.000169548
0.000169548
0.000169548
0.000169548
0.000169549
0.000169549
0.000169549
0.000169549
0.000169549
0.000169549
0.000169549
0.000169549
0.000169549
0.000169549
0.000169549
0.000169549
0.000169549
0.000169549
0.000169549
0.000169549
0.000169549
0.000169549
0.000169548
0.000169548
0.000169548
0.000169548
0.000169547
0.000169547
0.000169546
0.000169546
0.000169545
0.000169545
0.000169544
0.000169544
0.000169544
0.000165525
0.000165522
0.000165519
0.000165517
0.000165515
0.000165513
0.000165512
0.000165511
0.000165509
0.000165509
0.000165508
0.000165508
0.000165507
0.000165507
0.000165507
0.000165507
0.000165508
0.000165508
0.000165509
0.000165509
0.000165509
0.00016551
0.000165511
0.000165511
0.000165512
0.000165513
0.000165513
0.000165514
0.000165514
0.000165515
0.000165516
0.000165516
0.000165517
0.000165517
0.000165518
0.000165519
0.000165519
0.00016552
0.000165521
0.000165521
0.000165522
0.000165523
0.000165523
0.000165524
0.000165525
0.000165525
0.000165526
0.000165526
0.000165527
0.000165527
0.000165527
0.000165528
0.000165528
0.000165528
0.000165529
0.000165529
0.000165529
0.000165529
0.00016553
0.00016553
0.00016553
0.00016553
0.00016553
0.000165531
0.000165531
0.000165531
0.000165531
0.000165531
0.000165531
0.000165531
0.000165531
0.000165531
0.000165531
0.000165531
0.000165532
0.000165532
0.000165532
0.000165532
0.000165532
0.000165532
0.000165532
0.000165532
0.000165532
0.000165532
0.000165532
0.000165532
0.000165532
0.000165532
0.000165532
0.000165532
0.000165533
0.000165533
0.000165533
0.000165533
0.000165533
0.000165533
0.000165533
0.000165533
0.000165533
0.000165533
0.000165533
0.000165533
0.000165533
0.000165533
0.000165533
0.000165533
0.000165533
0.000165533
0.000165532
0.000165532
0.000165532
0.000165531
0.000165531
0.000165531
0.00016553
0.00016553
0.000165529
0.000165529
0.000165528
0.000165528
0.000160649
0.000160646
0.000160644
0.000160641
0.000160639
0.000160637
0.000160636
0.000160635
0.000160634
0.000160633
0.000160632
0.000160632
0.000160632
0.000160631
0.000160632
0.000160632
0.000160632
0.000160632
0.000160633
0.000160633
0.000160634
0.000160634
0.000160635
0.000160635
0.000160636
0.000160637
0.000160637
0.000160638
0.000160638
0.000160639
0.00016064
0.00016064
0.000160641
0.000160641
0.000160642
0.000160642
0.000160643
0.000160644
0.000160644
0.000160645
0.000160646
0.000160646
0.000160647
0.000160647
0.000160648
0.000160649
0.000160649
0.00016065
0.00016065
0.00016065
0.000160651
0.000160651
0.000160651
0.000160652
0.000160652
0.000160652
0.000160652
0.000160653
0.000160653
0.000160653
0.000160653
0.000160654
0.000160654
0.000160654
0.000160654
0.000160654
0.000160654
0.000160654
0.000160654
0.000160654
0.000160654
0.000160654
0.000160655
0.000160655
0.000160655
0.000160655
0.000160655
0.000160655
0.000160655
0.000160655
0.000160655
0.000160655
0.000160655
0.000160655
0.000160655
0.000160655
0.000160656
0.000160656
0.000160656
0.000160656
0.000160656
0.000160656
0.000160656
0.000160656
0.000160656
0.000160656
0.000160656
0.000160656
0.000160656
0.000160656
0.000160656
0.000160656
0.000160656
0.000160656
0.000160656
0.000160656
0.000160656
0.000160656
0.000160656
0.000160656
0.000160655
0.000160655
0.000160655
0.000160654
0.000160654
0.000160653
0.000160653
0.000160653
0.000160652
0.000160652
0.000154705
0.000154703
0.0001547
0.000154698
0.000154696
0.000154694
0.000154692
0.000154691
0.00015469
0.000154689
0.000154689
0.000154688
0.000154688
0.000154688
0.000154688
0.000154688
0.000154689
0.000154689
0.000154689
0.00015469
0.00015469
0.000154691
0.000154691
0.000154692
0.000154693
0.000154693
0.000154694
0.000154694
0.000154695
0.000154695
0.000154696
0.000154696
0.000154697
0.000154697
0.000154698
0.000154698
0.000154699
0.000154699
0.0001547
0.000154701
0.000154701
0.000154702
0.000154703
0.000154703
0.000154704
0.000154704
0.000154705
0.000154705
0.000154706
0.000154706
0.000154706
0.000154707
0.000154707
0.000154707
0.000154707
0.000154708
0.000154708
0.000154708
0.000154708
0.000154709
0.000154709
0.000154709
0.000154709
0.000154709
0.000154709
0.000154709
0.00015471
0.00015471
0.00015471
0.00015471
0.00015471
0.00015471
0.00015471
0.00015471
0.00015471
0.00015471
0.00015471
0.000154711
0.000154711
0.000154711
0.000154711
0.000154711
0.000154711
0.000154711
0.000154711
0.000154711
0.000154711
0.000154711
0.000154711
0.000154711
0.000154711
0.000154711
0.000154711
0.000154711
0.000154712
0.000154712
0.000154712
0.000154712
0.000154712
0.000154712
0.000154712
0.000154712
0.000154712
0.000154712
0.000154712