/*--------------------------------*- C++ -*----------------------------------*\
  =========                 |
  \\      /  F ield         | OpenFOAM: The Open Source CFD Toolbox
   \\    /   O peration     | Website:  https://openfoam.org
    \\  /    A nd           | Version:  7
     \\/     M anipulation  |
\*---------------------------------------------------------------------------*/
FoamFile
{
    version     2.0;
    format      ascii;
    class       volScalarField;
    location    "3500";
    object      omega;
}
// * * * * * * * * * * * * * * * * * * * * * * * * * * * * * * * * * * * * * //

dimensions      [0 0 -1 0 0 0 0];

internalField   nonuniform List<scalar> 
4037
(
0.63683
0.636814
0.636802
0.636794
0.636788
0.636783
0.636779
0.636775
0.636772
0.636769
0.636766
0.636764
0.636762
0.63676
0.636758
0.636757
0.636756
0.636754
0.636753
0.636752
0.636751
0.636751
0.63675
0.636749
0.636749
0.636748
0.636747
0.636747
0.636746
0.636746
0.636745
0.636745
0.636745
0.636744
0.636744
0.636743
0.636743
0.636743
0.636742
0.636742
0.636742
0.636741
0.636741
0.636741
0.63674
0.63674
0.63674
0.636739
0.636739
0.636738
0.636738
0.636738
0.636737
0.636737
0.636737
0.636736
0.636736
0.636735
0.636735
0.636734
0.636734
0.636734
0.636733
0.636733
0.636732
0.636732
0.636732
0.636731
0.636731
0.636731
0.63673
0.63673
0.63673
0.636729
0.636729
0.636729
0.636726
0.672727
0.672737
0.672735
0.672732
0.672728
0.672726
0.672723
0.67272
0.672718
0.672714
0.672711
0.672709
0.672706
0.672704
0.672702
0.672701
0.672699
0.672698
0.672697
0.672696
0.672696
0.672695
0.672695
0.672697
0.67266
0.672637
0.672623
0.672613
0.672605
0.672599
0.672594
0.67259
0.672586
0.672583
0.67258
0.672577
0.672575
0.672573
0.672571
0.672569
0.672568
0.672566
0.672565
0.672564
0.672563
0.672562
0.672561
0.67256
0.672559
0.672558
0.672558
0.672557
0.672556
0.672556
0.672555
0.672555
0.672554
0.672554
0.672553
0.672553
0.672552
0.672552
0.672551
0.672551
0.67255
0.67255
0.67255
0.672549
0.672549
0.672548
0.672548
0.672547
0.672547
0.672547
0.672546
0.672546
0.672545
0.672545
0.672544
0.672544
0.672543
0.672543
0.672543
0.672542
0.672542
0.672541
0.672541
0.67254
0.67254
0.672539
0.672539
0.672538
0.672538
0.672538
0.672537
0.672537
0.672537
0.672536
0.672536
0.672536
0.67253
0.672589
0.672613
0.672623
0.672629
0.672635
0.672639
0.672643
0.672647
0.67265
0.672653
0.672656
0.672659
0.672661
0.672663
0.672665
0.672668
0.672669
0.672673
0.672665
0.711114
0.711127
0.711126
0.711123
0.711119
0.711116
0.711113
0.71111
0.711107
0.711104
0.7111
0.711097
0.711094
0.711092
0.71109
0.711088
0.711086
0.711085
0.711084
0.711083
0.711082
0.711082
0.711081
0.711083
0.711065
0.711046
0.711031
0.711021
0.711012
0.711006
0.711
0.710995
0.710991
0.710988
0.710984
0.710981
0.710979
0.710976
0.710974
0.710973
0.710971
0.710969
0.710968
0.710967
0.710965
0.710964
0.710963
0.710962
0.710961
0.71096
0.710959
0.710959
0.710958
0.710957
0.710956
0.710956
0.710955
0.710955
0.710954
0.710953
0.710953
0.710952
0.710952
0.710951
0.710951
0.71095
0.71095
0.710949
0.710949
0.710948
0.710948
0.710947
0.710947
0.710946
0.710946
0.710945
0.710945
0.710944
0.710944
0.710943
0.710943
0.710942
0.710941
0.710941
0.71094
0.71094
0.710939
0.710939
0.710938
0.710938
0.710938
0.710937
0.710937
0.710936
0.710936
0.710935
0.710935
0.710935
0.710934
0.710935
0.71093
0.710958
0.710982
0.710996
0.711005
0.711011
0.711017
0.711021
0.711025
0.711029
0.711032
0.711035
0.711038
0.711041
0.711043
0.711045
0.711047
0.711049
0.711053
0.711044
0.752399
0.752414
0.752414
0.75241
0.752406
0.752403
0.7524
0.752396
0.752393
0.75239
0.752386
0.752382
0.752379
0.752376
0.752374
0.752372
0.75237
0.752369
0.752368
0.752367
0.752366
0.752365
0.752364
0.752366
0.752357
0.752344
0.752332
0.752321
0.752313
0.752306
0.752301
0.752296
0.752291
0.752287
0.752284
0.752281
0.752278
0.752275
0.752273
0.752271
0.752269
0.752268
0.752266
0.752265
0.752263
0.752262
0.752261
0.75226
0.752258
0.752257
0.752256
0.752256
0.752255
0.752254
0.752253
0.752252
0.752251
0.752251
0.75225
0.752249
0.752249
0.752248
0.752247
0.752247
0.752246
0.752246
0.752245
0.752244
0.752244
0.752243
0.752243
0.752242
0.752241
0.752241
0.75224
0.75224
0.752239
0.752239
0.752238
0.752237
0.752237
0.752236
0.752236
0.752235
0.752235
0.752234
0.752234
0.752233
0.752233
0.752232
0.752231
0.752231
0.752231
0.75223
0.75223
0.752229
0.752229
0.752228
0.752228
0.752228
0.752225
0.752238
0.752255
0.752269
0.752279
0.752286
0.752292
0.752297
0.752301
0.752305
0.752309
0.752312
0.752315
0.752317
0.75232
0.752322
0.752324
0.752326
0.752331
0.752319
0.796935
0.796952
0.796953
0.796949
0.796944
0.79694
0.796937
0.796933
0.79693
0.796926
0.796922
0.796918
0.796914
0.796911
0.796909
0.796907
0.796905
0.796903
0.796902
0.796901
0.7969
0.796899
0.796898
0.796899
0.796895
0.796887
0.796878
0.796869
0.796861
0.796855
0.796849
0.796844
0.796839
0.796835
0.796832
0.796829
0.796826
0.796823
0.796821
0.796819
0.796817
0.796815
0.796813
0.796812
0.79681
0.796809
0.796807
0.796806
0.796805
0.796804
0.796803
0.796802
0.796801
0.7968
0.796799
0.796798
0.796797
0.796796
0.796795
0.796795
0.796794
0.796793
0.796792
0.796792
0.796791
0.79679
0.79679
0.796789
0.796788
0.796788
0.796787
0.796786
0.796786
0.796785
0.796784
0.796784
0.796783
0.796783
0.796782
0.796781
0.796781
0.79678
0.796779
0.796779
0.796778
0.796778
0.796777
0.796776
0.796776
0.796775
0.796775
0.796774
0.796774
0.796773
0.796773
0.796772
0.796772
0.796772
0.796771
0.796771
0.796769
0.796774
0.796785
0.796796
0.796806
0.796813
0.796819
0.796824
0.796829
0.796833
0.796836
0.79684
0.796842
0.796845
0.796848
0.79685
0.796852
0.796854
0.796859
0.796846
0.845137
0.845156
0.845156
0.845152
0.845147
0.845142
0.845138
0.845135
0.845131
0.845127
0.845122
0.845118
0.845114
0.845111
0.845108
0.845106
0.845104
0.845102
0.845101
0.8451
0.845099
0.845098
0.845097
0.845097
0.845096
0.845091
0.845084
0.845077
0.845071
0.845065
0.84506
0.845055
0.84505
0.845047
0.845043
0.84504
0.845037
0.845034
0.845032
0.84503
0.845028
0.845026
0.845024
0.845022
0.845021
0.845019
0.845018
0.845016
0.845015
0.845014
0.845013
0.845011
0.84501
0.845009
0.845008
0.845007
0.845006
0.845005
0.845004
0.845003
0.845003
0.845002
0.845001
0.845
0.844999
0.844999
0.844998
0.844997
0.844996
0.844996
0.844995
0.844994
0.844993
0.844993
0.844992
0.844991
0.844991
0.84499
0.844989
0.844989
0.844988
0.844987
0.844987
0.844986
0.844985
0.844985
0.844984
0.844983
0.844983
0.844982
0.844982
0.844981
0.844981
0.84498
0.84498
0.844979
0.844979
0.844978
0.844978
0.844978
0.844976
0.844978
0.844984
0.844992
0.845
0.845007
0.845013
0.845018
0.845022
0.845026
0.845029
0.845033
0.845036
0.845038
0.845041
0.845043
0.845045
0.845047
0.845052
0.845037
0.89749
0.897511
0.897511
0.897506
0.897501
0.897496
0.897492
0.897488
0.897484
0.897479
0.897474
0.89747
0.897466
0.897462
0.897459
0.897456
0.897454
0.897453
0.897451
0.89745
0.897449
0.897448
0.897447
0.897447
0.897446
0.897444
0.89744
0.897435
0.897429
0.897424
0.89742
0.897415
0.897411
0.897407
0.897404
0.897401
0.897398
0.897395
0.897393
0.897391
0.897389
0.897387
0.897385
0.897383
0.897381
0.89738
0.897378
0.897377
0.897375
0.897374
0.897373
0.897371
0.89737
0.897369
0.897368
0.897367
0.897366
0.897365
0.897364
0.897363
0.897362
0.897361
0.89736
0.897359
0.897358
0.897357
0.897356
0.897355
0.897355
0.897354
0.897353
0.897352
0.897351
0.897351
0.89735
0.897349
0.897348
0.897348
0.897347
0.897346
0.897346
0.897345
0.897344
0.897344
0.897343
0.897342
0.897342
0.897341
0.89734
0.89734
0.897339
0.897339
0.897338
0.897337
0.897337
0.897336
0.897336
0.897336
0.897335
0.897335
0.897334
0.897334
0.897337
0.897343
0.897348
0.897354
0.897359
0.897364
0.897368
0.897372
0.897375
0.897378
0.897381
0.897383
0.897386
0.897388
0.89739
0.897392
0.897398
0.897381
0.954571
0.954593
0.954593
0.954588
0.954582
0.954576
0.954571
0.954567
0.954563
0.954558
0.954553
0.954548
0.954544
0.95454
0.954537
0.954534
0.954532
0.95453
0.954528
0.954527
0.954526
0.954525
0.954525
0.954524
0.954524
0.954522
0.95452
0.954516
0.954512
0.954508
0.954504
0.9545
0.954497
0.954493
0.95449
0.954487
0.954485
0.954482
0.95448
0.954477
0.954475
0.954473
0.954471
0.954469
0.954468
0.954466
0.954464
0.954463
0.954461
0.95446
0.954458
0.954457
0.954456
0.954455
0.954453
0.954452
0.954451
0.95445
0.954449
0.954448
0.954446
0.954445
0.954444
0.954443
0.954443
0.954442
0.954441
0.95444
0.954439
0.954438
0.954437
0.954436
0.954435
0.954435
0.954434
0.954433
0.954432
0.954431
0.954431
0.95443
0.954429
0.954428
0.954428
0.954427
0.954426
0.954426
0.954425
0.954424
0.954424
0.954423
0.954422
0.954422
0.954421
0.954421
0.95442
0.95442
0.954419
0.954419
0.954418
0.954418
0.954417
0.954417
0.954418
0.954421
0.954425
0.95443
0.954434
0.954438
0.954442
0.954445
0.954448
0.954451
0.954454
0.954456
0.954458
0.95446
0.954463
0.954464
0.95447
0.954451
1.01706
1.01709
1.01709
1.01708
1.01707
1.01707
1.01706
1.01706
1.01705
1.01705
1.01704
1.01704
1.01703
1.01703
1.01702
1.01702
1.01702
1.01702
1.01702
1.01701
1.01701
1.01701
1.01701
1.01701
1.01701
1.01701
1.01701
1.01701
1.017
1.017
1.017
1.01699
1.01699
1.01699
1.01699
1.01698
1.01698
1.01698
1.01698
1.01697
1.01697
1.01697
1.01697
1.01697
1.01696
1.01696
1.01696
1.01696
1.01696
1.01696
1.01695
1.01695
1.01695
1.01695
1.01695
1.01695
1.01695
1.01694
1.01694
1.01694
1.01694
1.01694
1.01694
1.01694
1.01694
1.01694
1.01693
1.01693
1.01693
1.01693
1.01693
1.01693
1.01693
1.01693
1.01693
1.01693
1.01693
1.01692
1.01692
1.01692
1.01692
1.01692
1.01692
1.01692
1.01692
1.01692
1.01692
1.01692
1.01692
1.01692
1.01692
1.01691
1.01691
1.01691
1.01691
1.01691
1.01691
1.01691
1.01691
1.01691
1.01691
1.01691
1.01691
1.01691
1.01691
1.01692
1.01692
1.01692
1.01693
1.01693
1.01693
1.01694
1.01694
1.01694
1.01694
1.01694
1.01695
1.01695
1.01695
1.01693
1.08578
1.08581
1.08581
1.0858
1.08579
1.08579
1.08578
1.08577
1.08577
1.08576
1.08576
1.08575
1.08575
1.08574
1.08574
1.08574
1.08574
1.08573
1.08573
1.08573
1.08573
1.08573
1.08573
1.08573
1.08573
1.08573
1.08573
1.08572
1.08572
1.08572
1.08572
1.08572
1.08571
1.08571
1.08571
1.08571
1.0857
1.0857
1.0857
1.0857
1.08569
1.08569
1.08569
1.08569
1.08569
1.08568
1.08568
1.08568
1.08568
1.08568
1.08568
1.08567
1.08567
1.08567
1.08567
1.08567
1.08567
1.08567
1.08566
1.08566
1.08566
1.08566
1.08566
1.08566
1.08566
1.08566
1.08566
1.08565
1.08565
1.08565
1.08565
1.08565
1.08565
1.08565
1.08565
1.08565
1.08565
1.08565
1.08564
1.08564
1.08564
1.08564
1.08564
1.08564
1.08564
1.08564
1.08564
1.08564
1.08564
1.08564
1.08564
1.08564
1.08563
1.08563
1.08563
1.08563
1.08563
1.08563
1.08563
1.08563
1.08563
1.08563
1.08563
1.08563
1.08563
1.08563
1.08564
1.08564
1.08564
1.08564
1.08565
1.08565
1.08565
1.08565
1.08565
1.08566
1.08566
1.08566
1.08567
1.08564
1.16171
1.16174
1.16174
1.16173
1.16172
1.16172
1.16171
1.1617
1.1617
1.16169
1.16169
1.16168
1.16168
1.16167
1.16167
1.16167
1.16166
1.16166
1.16166
1.16166
1.16166
1.16166
1.16166
1.16166
1.16166
1.16166
1.16166
1.16165
1.16165
1.16165
1.16165
1.16165
1.16165
1.16164
1.16164
1.16164
1.16164
1.16163
1.16163
1.16163
1.16163
1.16163
1.16162
1.16162
1.16162
1.16162
1.16162
1.16161
1.16161
1.16161
1.16161
1.16161
1.16161
1.1616
1.1616
1.1616
1.1616
1.1616
1.1616
1.1616
1.1616
1.16159
1.16159
1.16159
1.16159
1.16159
1.16159
1.16159
1.16159
1.16158
1.16158
1.16158
1.16158
1.16158
1.16158
1.16158
1.16158
1.16158
1.16158
1.16158
1.16157
1.16157
1.16157
1.16157
1.16157
1.16157
1.16157
1.16157
1.16157
1.16157
1.16157
1.16157
1.16157
1.16157
1.16157
1.16156
1.16156
1.16156
1.16156
1.16156
1.16156
1.16156
1.16156
1.16156
1.16156
1.16156
1.16156
1.16157
1.16157
1.16157
1.16157
1.16157
1.16158
1.16158
1.16158
1.16158
1.16158
1.16158
1.16159
1.16157
1.24605
1.24608
1.24608
1.24607
1.24606
1.24605
1.24605
1.24604
1.24603
1.24603
1.24602
1.24602
1.24601
1.24601
1.246
1.246
1.246
1.246
1.24599
1.24599
1.24599
1.24599
1.24599
1.24599
1.24599
1.24599
1.24599
1.24599
1.24599
1.24599
1.24599
1.24598
1.24598
1.24598
1.24598
1.24598
1.24597
1.24597
1.24597
1.24597
1.24597
1.24596
1.24596
1.24596
1.24596
1.24596
1.24596
1.24595
1.24595
1.24595
1.24595
1.24595
1.24595
1.24594
1.24594
1.24594
1.24594
1.24594
1.24594
1.24593
1.24593
1.24593
1.24593
1.24593
1.24593
1.24593
1.24593
1.24592
1.24592
1.24592
1.24592
1.24592
1.24592
1.24592
1.24592
1.24592
1.24592
1.24591
1.24591
1.24591
1.24591
1.24591
1.24591
1.24591
1.24591
1.24591
1.24591
1.24591
1.24591
1.24591
1.2459
1.2459
1.2459
1.2459
1.2459
1.2459
1.2459
1.2459
1.2459
1.2459
1.2459
1.2459
1.2459
1.2459
1.2459
1.2459
1.2459
1.2459
1.2459
1.2459
1.24591
1.24591
1.24591
1.24591
1.24591
1.24591
1.24591
1.24591
1.24592
1.24589
1.34025
1.34028
1.34028
1.34027
1.34026
1.34025
1.34025
1.34024
1.34023
1.34023
1.34022
1.34021
1.34021
1.34021
1.3402
1.3402
1.3402
1.3402
1.34019
1.34019
1.34019
1.34019
1.34019
1.34019
1.34019
1.34019
1.34019
1.34019
1.34019
1.34019
1.34019
1.34019
1.34018
1.34018
1.34018
1.34018
1.34018
1.34018
1.34017
1.34017
1.34017
1.34017
1.34017
1.34016
1.34016
1.34016
1.34016
1.34016
1.34015
1.34015
1.34015
1.34015
1.34015
1.34015
1.34014
1.34014
1.34014
1.34014
1.34014
1.34014
1.34014
1.34013
1.34013
1.34013
1.34013
1.34013
1.34013
1.34013
1.34012
1.34012
1.34012
1.34012
1.34012
1.34012
1.34012
1.34012
1.34012
1.34012
1.34012
1.34011
1.34011
1.34011
1.34011
1.34011
1.34011
1.34011
1.34011
1.34011
1.34011
1.34011
1.34011
1.34011
1.34011
1.34011
1.3401
1.3401
1.3401
1.3401
1.3401
1.3401
1.3401
1.3401
1.3401
1.3401
1.3401
1.3401
1.3401
1.3401
1.3401
1.3401
1.3401
1.3401
1.34011
1.34011
1.34011
1.34011
1.34011
1.34011
1.34012
1.34009
1.44612
1.44615
1.44615
1.44614
1.44613
1.44612
1.44611
1.4461
1.4461
1.44609
1.44608
1.44608
1.44607
1.44607
1.44607
1.44606
1.44606
1.44606
1.44606
1.44606
1.44606
1.44606
1.44606
1.44606
1.44605
1.44605
1.44605
1.44605
1.44605
1.44605
1.44605
1.44605
1.44605
1.44605
1.44605
1.44605
1.44604
1.44604
1.44604
1.44604
1.44604
1.44603
1.44603
1.44603
1.44603
1.44603
1.44603
1.44602
1.44602
1.44602
1.44602
1.44602
1.44601
1.44601
1.44601
1.44601
1.44601
1.44601
1.446
1.446
1.446
1.446
1.446
1.446
1.446
1.44599
1.44599
1.44599
1.44599
1.44599
1.44599
1.44599
1.44599
1.44599
1.44598
1.44598
1.44598
1.44598
1.44598
1.44598
1.44598
1.44598
1.44598
1.44598
1.44598
1.44598
1.44598
1.44597
1.44597
1.44597
1.44597
1.44597
1.44597
1.44597
1.44597
1.44597
1.44597
1.44597
1.44597
1.44597
1.44597
1.44597
1.44597
1.44597
1.44597
1.44597
1.44597
1.44597
1.44597
1.44597
1.44597
1.44597
1.44597
1.44597
1.44597
1.44597
1.44597
1.44597
1.44598
1.44595
1.56589
1.56592
1.56592
1.56591
1.5659
1.56589
1.56588
1.56587
1.56586
1.56586
1.56585
1.56585
1.56584
1.56584
1.56583
1.56583
1.56583
1.56583
1.56583
1.56583
1.56583
1.56583
1.56582
1.56582
1.56582
1.56582
1.56582
1.56582
1.56582
1.56582
1.56582
1.56582
1.56582
1.56582
1.56582
1.56581
1.56581
1.56581
1.56581
1.56581
1.56581
1.5658
1.5658
1.5658
1.5658
1.5658
1.5658
1.56579
1.56579
1.56579
1.56579
1.56579
1.56578
1.56578
1.56578
1.56578
1.56578
1.56577
1.56577
1.56577
1.56577
1.56577
1.56577
1.56577
1.56576
1.56576
1.56576
1.56576
1.56576
1.56576
1.56576
1.56576
1.56576
1.56575
1.56575
1.56575
1.56575
1.56575
1.56575
1.56575
1.56575
1.56575
1.56575
1.56575
1.56575
1.56575
1.56575
1.56574
1.56574
1.56574
1.56574
1.56574
1.56574
1.56574
1.56574
1.56574
1.56574
1.56574
1.56574
1.56574
1.56574
1.56574
1.56574
1.56574
1.56574
1.56574
1.56574
1.56574
1.56574
1.56574
1.56574
1.56574
1.56574
1.56574
1.56574
1.56574
1.56574
1.56574
1.56575
1.56572
1.70238
1.70241
1.70241
1.7024
1.70238
1.70237
1.70237
1.70236
1.70235
1.70235
1.70234
1.70233
1.70233
1.70233
1.70232
1.70232
1.70232
1.70232
1.70232
1.70232
1.70232
1.70232
1.70232
1.70231
1.70231
1.70231
1.70231
1.70231
1.70231
1.70231
1.70231
1.70231
1.70231
1.70231
1.70231
1.70231
1.7023
1.7023
1.7023
1.7023
1.7023
1.7023
1.70229
1.70229
1.70229
1.70229
1.70229
1.70228
1.70228
1.70228
1.70228
1.70228
1.70227
1.70227
1.70227
1.70227
1.70227
1.70227
1.70226
1.70226
1.70226
1.70226
1.70226
1.70226
1.70225
1.70225
1.70225
1.70225
1.70225
1.70225
1.70225
1.70225
1.70225
1.70224
1.70224
1.70224
1.70224
1.70224
1.70224
1.70224
1.70224
1.70224
1.70224
1.70224
1.70224
1.70224
1.70224
1.70224
1.70223
1.70223
1.70223
1.70223
1.70223
1.70223
1.70223
1.70223
1.70223
1.70223
1.70223
1.70223
1.70223
1.70223
1.70223
1.70223
1.70223
1.70223
1.70223
1.70223
1.70223
1.70223
1.70223
1.70223
1.70223
1.70223
1.70223
1.70223
1.70223
1.70223
1.70224
1.7022
1.85917
1.8592
1.8592
1.85919
1.85918
1.85917
1.85916
1.85915
1.85914
1.85914
1.85913
1.85913
1.85912
1.85912
1.85912
1.85912
1.85912
1.85911
1.85911
1.85911
1.85911
1.85911
1.85911
1.85911
1.85911
1.85911
1.85911
1.85911
1.85911
1.8591
1.8591
1.8591
1.8591
1.8591
1.8591
1.8591
1.8591
1.8591
1.85909
1.85909
1.85909
1.85909
1.85909
1.85909
1.85908
1.85908
1.85908
1.85908
1.85908
1.85907
1.85907
1.85907
1.85907
1.85907
1.85906
1.85906
1.85906
1.85906
1.85906
1.85905
1.85905
1.85905
1.85905
1.85905
1.85905
1.85905
1.85905
1.85904
1.85904
1.85904
1.85904
1.85904
1.85904
1.85904
1.85904
1.85904
1.85904
1.85904
1.85903
1.85903
1.85903
1.85903
1.85903
1.85903
1.85903
1.85903
1.85903
1.85903
1.85903
1.85903
1.85903
1.85903
1.85903
1.85903
1.85903
1.85903
1.85903
1.85903
1.85903
1.85903
1.85902
1.85902
1.85902
1.85902
1.85902
1.85902
1.85902
1.85902
1.85902
1.85902
1.85902
1.85902
1.85902
1.85902
1.85902
1.85902
1.85902
1.85902
1.85903
1.859
2.04087
2.04091
2.0409
2.04089
2.04088
2.04087
2.04086
2.04085
2.04085
2.04084
2.04084
2.04084
2.04083
2.04083
2.04083
2.04083
2.04082
2.04082
2.04082
2.04082
2.04082
2.04082
2.04082
2.04082
2.04082
2.04082
2.04082
2.04081
2.04081
2.04081
2.04081
2.04081
2.04081
2.04081
2.04081
2.04081
2.0408
2.0408
2.0408
2.0408
2.0408
2.0408
2.04079
2.04079
2.04079
2.04079
2.04079
2.04078
2.04078
2.04078
2.04078
2.04078
2.04077
2.04077
2.04077
2.04077
2.04077
2.04077
2.04076
2.04076
2.04076
2.04076
2.04076
2.04076
2.04076
2.04075
2.04075
2.04075
2.04075
2.04075
2.04075
2.04075
2.04075
2.04075
2.04075
2.04075
2.04074
2.04074
2.04074
2.04074
2.04074
2.04074
2.04074
2.04074
2.04074
2.04074
2.04074
2.04074
2.04074
2.04074
2.04074
2.04074
2.04074
2.04074
2.04074
2.04074
2.04074
2.04074
2.04074
2.04074
2.04074
2.04073
2.04073
2.04073
2.04073
2.04073
2.04073
2.04073
2.04073
2.04073
2.04073
2.04073
2.04073
2.04073
2.04073
2.04073
2.04073
2.04073
2.04074
2.0407
2.25351
2.25354
2.25353
2.25352
2.25351
2.2535
2.2535
2.25349
2.25348
2.25348
2.25348
2.25347
2.25347
2.25347
2.25347
2.25347
2.25346
2.25346
2.25346
2.25346
2.25346
2.25346
2.25346
2.25346
2.25346
2.25345
2.25345
2.25345
2.25345
2.25345
2.25345
2.25345
2.25345
2.25344
2.25344
2.25344
2.25344
2.25344
2.25344
2.25344
2.25343
2.25343
2.25343
2.25343
2.25343
2.25342
2.25342
2.25342
2.25342
2.25342
2.25341
2.25341
2.25341
2.25341
2.25341
2.2534
2.2534
2.2534
2.2534
2.2534
2.2534
2.2534
2.25339
2.25339
2.25339
2.25339
2.25339
2.25339
2.25339
2.25339
2.25339
2.25339
2.25338
2.25338
2.25338
2.25338
2.25338
2.25338
2.25338
2.25338
2.25338
2.25338
2.25338
2.25338
2.25338
2.25338
2.25338
2.25338
2.25338
2.25338
2.25338
2.25338
2.25338
2.25338
2.25338
2.25338
2.25338
2.25338
2.25338
2.25338
2.25338
2.25338
2.25337
2.25337
2.25337
2.25337
2.25337
2.25337
2.25337
2.25337
2.25337
2.25337
2.25337
2.25337
2.25337
2.25337
2.25337
2.25337
2.25338
2.25334
2.50503
2.50505
2.50505
2.50504
2.50503
2.50502
2.50502
2.50501
2.50501
2.505
2.505
2.505
2.505
2.505
2.505
2.50499
2.50499
2.50499
2.50499
2.50499
2.50499
2.50499
2.50499
2.50498
2.50498
2.50498
2.50498
2.50498
2.50498
2.50497
2.50497
2.50497
2.50497
2.50497
2.50497
2.50497
2.50496
2.50496
2.50496
2.50496
2.50496
2.50496
2.50495
2.50495
2.50495
2.50495
2.50495
2.50494
2.50494
2.50494
2.50494
2.50494
2.50493
2.50493
2.50493
2.50493
2.50493
2.50492
2.50492
2.50492
2.50492
2.50492
2.50492
2.50492
2.50492
2.50492
2.50491
2.50491
2.50491
2.50491
2.50491
2.50491
2.50491
2.50491
2.50491
2.50491
2.50491
2.50491
2.50491
2.50491
2.50491
2.50491
2.50491
2.50491
2.50491
2.50491
2.50491
2.50491
2.50491
2.50491
2.50491
2.50491
2.50491
2.50491
2.50491
2.5049
2.5049
2.5049
2.5049
2.5049
2.5049
2.5049
2.5049
2.5049
2.5049
2.5049
2.5049
2.5049
2.5049
2.5049
2.5049
2.5049
2.5049
2.5049
2.5049
2.5049
2.5049
2.5049
2.5049
2.50488
2.80613
2.80615
2.80615
2.80614
2.80614
2.80613
2.80613
2.80612
2.80612
2.80612
2.80612
2.80611
2.80611
2.80611
2.80611
2.80611
2.80611
2.80611
2.80611
2.80611
2.8061
2.8061
2.8061
2.8061
2.8061
2.80609
2.80609
2.80609
2.80609
2.80609
2.80608
2.80608
2.80608
2.80608
2.80608
2.80608
2.80607
2.80607
2.80607
2.80607
2.80607
2.80607
2.80606
2.80606
2.80606
2.80606
2.80606
2.80605
2.80605
2.80605
2.80605
2.80605
2.80604
2.80604
2.80604
2.80604
2.80604
2.80604
2.80603
2.80603
2.80603
2.80603
2.80603
2.80603
2.80603
2.80603
2.80603
2.80603
2.80603
2.80603
2.80602
2.80602
2.80602
2.80602
2.80602
2.80602
2.80602
2.80602
2.80602
2.80602
2.80602
2.80602
2.80602
2.80602
2.80602
2.80602
2.80602
2.80602
2.80602
2.80602
2.80602
2.80602
2.80602
2.80602
2.80602
2.80602
2.80602
2.80602
2.80602
2.80602
2.80602
2.80602
2.80602
2.80602
2.80602
2.80602
2.80602
2.80602
2.80602
2.80602
2.80602
2.80602
2.80602
2.80602
2.80602
2.80601
2.80602
2.80601
2.80602
2.806
3.17145
3.17147
3.17147
3.17147
3.17146
3.17146
3.17146
3.17146
3.17146
3.17145
3.17145
3.17145
3.17145
3.17145
3.17145
3.17145
3.17145
3.17145
3.17145
3.17144
3.17144
3.17144
3.17144
3.17144
3.17143
3.17143
3.17143
3.17143
3.17142
3.17142
3.17142
3.17142
3.17141
3.17141
3.17141
3.17141
3.17141
3.17141
3.1714
3.1714
3.1714
3.1714
3.1714
3.1714
3.17139
3.17139
3.17139
3.17139
3.17139
3.17138
3.17138
3.17138
3.17138
3.17138
3.17137
3.17137
3.17137
3.17137
3.17137
3.17137
3.17137
3.17137
3.17137
3.17137
3.17136
3.17136
3.17136
3.17136
3.17136
3.17136
3.17136
3.17136
3.17136
3.17136
3.17136
3.17136
3.17136
3.17136
3.17136
3.17136
3.17136
3.17136
3.17136
3.17136
3.17136
3.17136
3.17136
3.17136
3.17136
3.17136
3.17136
3.17136
3.17136
3.17136
3.17136
3.17136
3.17136
3.17136
3.17136
3.17136
3.17136
3.17136
3.17136
3.17136
3.17136
3.17136
3.17136
3.17136
3.17136
3.17136
3.17136
3.17136
3.17136
3.17136
3.17136
3.17136
3.17136
3.17136
3.17136
3.17134
3.62141
3.62143
3.62144
3.62144
3.62144
3.62144
3.62144
3.62144
3.62144
3.62144
3.62144
3.62144
3.62144
3.62144
3.62144
3.62144
3.62144
3.62144
3.62144
3.62143
3.62143
3.62143
3.62142
3.62142
3.62142
3.62142
3.62141
3.62141
3.62141
3.6214
3.6214
3.6214
3.6214
3.6214
3.62139
3.62139
3.62139
3.62139
3.62139
3.62138
3.62138
3.62138
3.62138
3.62138
3.62138
3.62137
3.62137
3.62137
3.62137
3.62137
3.62137
3.62136
3.62136
3.62136
3.62136
3.62136
3.62136
3.62136
3.62136
3.62135
3.62135
3.62135
3.62135
3.62135
3.62135
3.62135
3.62135
3.62135
3.62135
3.62135
3.62135
3.62135
3.62135
3.62135
3.62135
3.62135
3.62135
3.62135
3.62135
3.62135
3.62136
3.62136
3.62136
3.62136
3.62136
3.62136
3.62136
3.62136
3.62136
3.62136
3.62136
3.62136
3.62136
3.62136
3.62136
3.62136
3.62136
3.62136
3.62136
3.62136
3.62136
3.62136
3.62136
3.62136
3.62136
3.62136
3.62136
3.62136
3.62136
3.62136
3.62136
3.62136
3.62136
3.62136
3.62135
3.62135
3.62136
3.62135
3.62136
3.62135
4.18521
4.18524
4.18525
4.18526
4.18527
4.18527
4.18527
4.18527
4.18528
4.18528
4.18528
4.18528
4.18528
4.18528
4.18528
4.18528
4.18527
4.18527
4.18527
4.18526
4.18526
4.18526
4.18525
4.18525
4.18525
4.18524
4.18524
4.18524
4.18523
4.18523
4.18523
4.18523
4.18522
4.18522
4.18522
4.18522
4.18522
4.18521
4.18521
4.18521
4.18521
4.18521
4.18521
4.18521
4.1852
4.1852
4.1852
4.1852
4.1852
4.1852
4.18519
4.18519
4.18519
4.18519
4.18519
4.18519
4.18519
4.18519
4.18519
4.18519
4.18519
4.18519
4.18519
4.18519
4.18519
4.18519
4.18519
4.18519
4.18519
4.18519
4.18519
4.18519
4.18519
4.18519
4.18519
4.18519
4.18519
4.18519
4.18519
4.18519
4.18519
4.1852
4.1852
4.1852
4.1852
4.1852
4.1852
4.1852
4.1852
4.1852
4.1852
4.1852
4.1852
4.1852
4.1852
4.1852
4.1852
4.1852
4.1852
4.1852
4.1852
4.1852
4.1852
4.1852
4.1852
4.1852
4.1852
4.1852
4.1852
4.1852
4.1852
4.1852
4.1852
4.1852
4.1852
4.1852
4.1852
4.1852
4.18521
4.1852
4.90593
4.90596
4.90599
4.90601
4.90602
4.90602
4.90603
4.90603
4.90603
4.90603
4.90603
4.90603
4.90603
4.90603
4.90603
4.90603
4.90602
4.90602
4.90602
4.90601
4.90601
4.906
4.906
4.906
4.90599
4.90599
4.90599
4.90598
4.90598
4.90598
4.90597
4.90597
4.90597
4.90597
4.90596
4.90596
4.90596
4.90596
4.90596
4.90596
4.90596
4.90595
4.90595
4.90595
4.90595
4.90595
4.90595
4.90595
4.90595
4.90595
4.90594
4.90594
4.90594
4.90594
4.90594
4.90594
4.90594
4.90594
4.90594
4.90594
4.90594
4.90594
4.90594
4.90594
4.90594
4.90595
4.90595
4.90595
4.90595
4.90595
4.90595
4.90595
4.90595
4.90595
4.90595
4.90595
4.90595
4.90595
4.90596
4.90596
4.90596
4.90596
4.90596
4.90596
4.90596
4.90596
4.90596
4.90596
4.90596
4.90596
4.90596
4.90596
4.90597
4.90597
4.90597
4.90597
4.90597
4.90597
4.90597
4.90597
4.90597
4.90597
4.90597
4.90597
4.90597
4.90597
4.90597
4.90597
4.90597
4.90597
4.90597
4.90597
4.90597
4.90597
4.90597
4.90597
4.90597
4.90597
4.90597
4.90597
5.85027
5.85031
5.85036
5.85038
5.8504
5.8504
5.85041
5.85041
5.85041
5.85042
5.85042
5.85041
5.85041
5.85041
5.85041
5.8504
5.8504
5.85039
5.85039
5.85038
5.85038
5.85037
5.85037
5.85037
5.85036
5.85036
5.85035
5.85035
5.85035
5.85035
5.85034
5.85034
5.85034
5.85034
5.85034
5.85033
5.85033
5.85033
5.85033
5.85033
5.85033
5.85033
5.85033
5.85033
5.85033
5.85033
5.85033
5.85032
5.85032
5.85032
5.85032
5.85032
5.85032
5.85032
5.85032
5.85033
5.85033
5.85033
5.85033
5.85033
5.85033
5.85033
5.85033
5.85033
5.85033
5.85033
5.85034
5.85034
5.85034
5.85034
5.85034
5.85034
5.85034
5.85034
5.85035
5.85035
5.85035
5.85035
5.85035
5.85035
5.85035
5.85035
5.85035
5.85036
5.85036
5.85036
5.85036
5.85036
5.85036
5.85036
5.85036
5.85036
5.85036
5.85036
5.85036
5.85037
5.85037
5.85037
5.85037
5.85037
5.85037
5.85037
5.85037
5.85037
5.85037
5.85037
5.85037
5.85037
5.85037
5.85037
5.85037
5.85037
5.85037
5.85037
5.85037
5.85037
5.85037
5.85037
5.85038
5.85038
7.13037
7.13045
7.13051
7.13054
7.13056
7.13056
7.13056
7.13056
7.13056
7.13056
7.13056
7.13056
7.13055
7.13055
7.13054
7.13054
7.13053
7.13053
7.13052
7.13052
7.13051
7.13051
7.1305
7.1305
7.13049
7.13049
7.13049
7.13049
7.13048
7.13048
7.13048
7.13048
7.13048
7.13047
7.13047
7.13047
7.13047
7.13047
7.13047
7.13047
7.13047
7.13047
7.13047
7.13047
7.13047
7.13047
7.13047
7.13047
7.13047
7.13047
7.13048
7.13048
7.13048
7.13048
7.13048
7.13048
7.13048
7.13048
7.13049
7.13049
7.13049
7.13049
7.13049
7.13049
7.1305
7.1305
7.1305
7.1305
7.1305
7.13051
7.13051
7.13051
7.13051
7.13051
7.13051
7.13052
7.13052
7.13052
7.13052
7.13052
7.13052
7.13052
7.13052
7.13053
7.13053
7.13053
7.13053
7.13053
7.13053
7.13053
7.13053
7.13053
7.13054
7.13054
7.13054
7.13054
7.13054
7.13054
7.13054
7.13054
7.13054
7.13054
7.13054
7.13054
7.13055
7.13055
7.13055
7.13055
7.13055
7.13055
7.13055
7.13055
7.13055
7.13055
7.13055
7.13055
7.13055
7.13055
7.13055
7.13057
8.96154
8.96164
8.96172
8.96175
8.96176
8.96176
8.96176
8.96175
8.96175
8.96174
8.96174
8.96173
8.96173
8.96172
8.96171
8.96171
8.9617
8.96169
8.96169
8.96168
8.96168
8.96167
8.96167
8.96167
8.96166
8.96166
8.96166
8.96166
8.96165
8.96165
8.96165
8.96165
8.96165
8.96165
8.96165
8.96165
8.96165
8.96165
8.96165
8.96165
8.96165
8.96165
8.96166
8.96166
8.96166
8.96166
8.96166
8.96166
8.96167
8.96167
8.96167
8.96167
8.96167
8.96168
8.96168
8.96168
8.96168
8.96169
8.96169
8.96169
8.96169
8.9617
8.9617
8.9617
8.9617
8.96171
8.96171
8.96171
8.96171
8.96171
8.96172
8.96172
8.96172
8.96172
8.96173
8.96173
8.96173
8.96173
8.96173
8.96173
8.96174
8.96174
8.96174
8.96174
8.96174
8.96174
8.96174
8.96175
8.96175
8.96175
8.96175
8.96175
8.96175
8.96175
8.96175
8.96176
8.96176
8.96176
8.96176
8.96176
8.96176
8.96176
8.96176
8.96176
8.96176
8.96176
8.96177
8.96177
8.96177
8.96177
8.96177
8.96177
8.96177
8.96177
8.96177
8.96177
8.96177
8.96177
8.96177
8.96179
11.8315
11.8317
11.8317
11.8318
11.8318
11.8318
11.8318
11.8317
11.8317
11.8317
11.8317
11.8317
11.8317
11.8317
11.8317
11.8317
11.8317
11.8317
11.8317
11.8316
11.8316
11.8316
11.8316
11.8316
11.8316
11.8316
11.8316
11.8316
11.8316
11.8316
11.8316
11.8316
11.8316
11.8316
11.8316
11.8316
11.8316
11.8316
11.8316
11.8316
11.8316
11.8316
11.8316
11.8316
11.8316
11.8317
11.8317
11.8317
11.8317
11.8317
11.8317
11.8317
11.8317
11.8317
11.8317
11.8317
11.8317
11.8317
11.8317
11.8317
11.8317
11.8317
11.8317
11.8317
11.8317
11.8317
11.8317
11.8317
11.8317
11.8317
11.8317
11.8317
11.8317
11.8317
11.8317
11.8317
11.8317
11.8317
11.8317
11.8317
11.8317
11.8318
11.8318
11.8318
11.8318
11.8318
11.8318
11.8318
11.8318
11.8318
11.8318
11.8318
11.8318
11.8318
11.8318
11.8318
11.8318
11.8318
11.8318
11.8318
11.8318
11.8318
11.8318
11.8318
11.8318
11.8318
11.8318
11.8318
11.8318
11.8318
11.8318
11.8318
11.8318
11.8318
11.8318
11.8318
11.8318
11.8318
11.8318
11.8318
17.0087
17.0089
17.0089
17.0089
17.0089
17.0089
17.0089
17.0089
17.0089
17.0089
17.0088
17.0088
17.0088
17.0088
17.0088
17.0088
17.0088
17.0088
17.0088
17.0088
17.0088
17.0088
17.0088
17.0088
17.0088
17.0088
17.0088
17.0088
17.0088
17.0088
17.0088
17.0088
17.0088
17.0088
17.0088
17.0088
17.0088
17.0088
17.0088
17.0088
17.0088
17.0088
17.0088
17.0088
17.0088
17.0088
17.0088
17.0088
17.0088
17.0088
17.0088
17.0088
17.0088
17.0088
17.0088
17.0088
17.0088
17.0089
17.0089
17.0089
17.0089
17.0089
17.0089
17.0089
17.0089
17.0089
17.0089
17.0089
17.0089
17.0089
17.0089
17.0089
17.0089
17.0089
17.0089
17.0089
17.0089
17.0089
17.0089
17.0089
17.0089
17.0089
17.0089
17.0089
17.0089
17.0089
17.0089
17.0089
17.0089
17.0089
17.0089
17.0089
17.0089
17.0089
17.0089
17.0089
17.0089
17.0089
17.0089
17.0089
17.0089
17.0089
17.0089
17.0089
17.0089
17.0089
17.0089
17.0089
17.0089
17.0089
17.0089
17.0089
17.0089
17.0089
17.0089
17.0089
17.0089
17.0089
17.0089
17.0089
28.1676
28.1677
28.1677
28.1677
28.1677
28.1677
28.1677
28.1677
28.1677
28.1676
28.1676
28.1676
28.1676
28.1676
28.1676
28.1676
28.1676
28.1676
28.1676
28.1676
28.1676
28.1676
28.1676
28.1676
28.1676
28.1676
28.1676
28.1676
28.1676
28.1676
28.1676
28.1676
28.1676
28.1676
28.1676
28.1676