/*--------------------------------*- C++ -*----------------------------------*\
  =========                 |
  \\      /  F ield         | OpenFOAM: The Open Source CFD Toolbox
   \\    /   O peration     | Website:  https://openfoam.org
    \\  /    A nd           | Version:  7
     \\/     M anipulation  |
\*---------------------------------------------------------------------------*/
FoamFile
{
    version     2.0;
    format      ascii;
    class       surfaceScalarField;
    location    "48000";
    object      phi;
}
// * * * * * * * * * * * * * * * * * * * * * * * * * * * * * * * * * * * * * //

dimensions      [0 3 -1 0 0 0 0];

internalField   nonuniform List<scalar> 
99
(
-1.37756e-16
-7.53359e-17
-3.41503e-18
-7.82683e-17
5.26527e-16
3.06965e-16
3.08586e-16
6.40252e-16
6.07225e-16
6.38222e-16
5.47408e-16
4.89198e-16
4.50735e-16
3.6896e-16
3.18181e-16
3.37411e-16
3.6785e-16
4.33768e-16
4.09987e-16
4.25526e-16
4.23896e-16
4.77128e-16
4.53615e-16
4.51007e-16
4.27222e-16
4.86389e-16
4.34248e-16
4.34048e-16
4.57795e-16
5.15272e-16
5.33268e-16
4.85665e-16
5.48051e-16
5.97e-16
6.99079e-16
6.7226e-16
7.05701e-16
7.29055e-16
7.84885e-16
6.91332e-16
6.92021e-16
6.51684e-16
6.98404e-16
7.17758e-16
6.7124e-16
6.26319e-16
6.33078e-16
6.45967e-16
7.09724e-16
7.08966e-16
7.8333e-16
8.02126e-16
8.18743e-16
7.24688e-16
7.89407e-16
7.81075e-16
7.77088e-16
7.44806e-16
7.50871e-16
7.73593e-16
7.62688e-16
7.1453e-16
6.96169e-16
7.40131e-16
6.73941e-16
6.70678e-16
6.85904e-16
7.3625e-16
6.29126e-16
6.03004e-16
5.54226e-16
5.93513e-16
6.24893e-16
6.13165e-16
6.09861e-16
5.90731e-16
6.72364e-16
7.28202e-16
6.50857e-16
7.26534e-16
8.38564e-16
8.22128e-16
7.40134e-16
8.13992e-16
7.40476e-16
7.3701e-16
7.57689e-16
7.50123e-16
8.12715e-16
6.34826e-16
6.98925e-16
4.16063e-16
1.99869e-16
4.43876e-16
-2.09714e-16
1.47623e-16
3.69478e-16
7.53907e-17
1.98973e-16
)
;

boundaryField
{
    bottomWall
    {
        type            calculated;
        value           uniform 0;
    }
    topWall
    {
        type            calculated;
        value           uniform 0;
    }
    sides1_half0
    {
        type            empty;
        value           nonuniform 0();
    }
    sides1_half1
    {
        type            empty;
        value           nonuniform 0();
    }
    sides2_half0
    {
        type            empty;
        value           nonuniform 0();
    }
    sides2_half1
    {
        type            empty;
        value           nonuniform 0();
    }
    inout1_half0
    {
        type            cyclic;
        value           nonuniform List<scalar> 
50
(
7.85738e-06
2.50064e-05
4.41625e-05
6.37787e-05
8.1706e-05
9.75578e-05
0.000112
0.000125662
0.00013897
0.000152204
0.000165562
0.000179187
0.000193189
0.00020766
0.000222678
0.000238312
0.000254628
0.000271687
0.000289548
0.000308273
0.000327919
0.000348548
0.000370221
0.000393001
0.000416953
0.000442144
0.000468645
0.000496525
0.000525861
0.00055673
0.00058921
0.000623385
0.000659339
0.00069716
0.000736938
0.000778763
0.000822729
0.000868928
0.000917452
0.000968392
0.00102183
0.00107785
0.00113653
0.0011979
0.001262
0.00132883
0.00139834
0.00147042
0.00154489
0.00162147
)
;
    }
    inout1_half1
    {
        type            cyclic;
        value           nonuniform List<scalar> 
50
(
-7.85738e-06
-2.50064e-05
-4.41625e-05
-6.37787e-05
-8.1706e-05
-9.75578e-05
-0.000112
-0.000125662
-0.00013897
-0.000152204
-0.000165562
-0.000179187
-0.000193189
-0.00020766
-0.000222678
-0.000238312
-0.000254628
-0.000271687
-0.000289548
-0.000308273
-0.000327919
-0.000348548
-0.000370221
-0.000393001
-0.000416953
-0.000442144
-0.000468645
-0.000496525
-0.000525861
-0.00055673
-0.00058921
-0.000623385
-0.000659339
-0.00069716
-0.000736938
-0.000778763
-0.000822729
-0.000868928
-0.000917452
-0.000968392
-0.00102183
-0.00107785
-0.00113653
-0.0011979
-0.001262
-0.00132883
-0.00139834
-0.00147042
-0.00154489
-0.00162147
)
;
    }
    inout2_half0
    {
        type            cyclic;
        value           nonuniform List<scalar> 
50
(
0.00161638
0.00154035
0.00146641
0.00139483
0.00132579
0.00125939
0.00119569
0.00113469
0.00107635
0.00102064
0.000967485
0.000916803
0.000868512
0.000822524
0.000778748
0.000737094
0.000697469
0.000659784
0.00062395
0.000589881
0.000557494
0.000526706
0.00049744
0.000469618
0.000443168
0.000418017
0.000394098
0.000371344
0.00034969
0.000329074
0.000309435
0.000290713
0.000272849
0.000255783
0.000239457
0.000223808
0.000208773
0.000194281
0.000180255
0.000166604
0.000153216
0.000139949
0.000126606
0.000112905
9.84169e-05
8.25066e-05
6.44854e-05
4.47037e-05
2.53298e-05
7.96631e-06
)
;
    }
    inout2_half1
    {
        type            cyclic;
        value           nonuniform List<scalar> 
50
(
-0.00161638
-0.00154035
-0.00146641
-0.00139483
-0.00132579
-0.00125939
-0.00119569
-0.00113469
-0.00107635
-0.00102064
-0.000967485
-0.000916803
-0.000868512
-0.000822524
-0.000778748
-0.000737094
-0.000697469
-0.000659784
-0.00062395
-0.000589881
-0.000557494
-0.000526706
-0.00049744
-0.000469618
-0.000443168
-0.000418017
-0.000394098
-0.000371344
-0.00034969
-0.000329074
-0.000309435
-0.000290713
-0.000272849
-0.000255783
-0.000239457
-0.000223808
-0.000208773
-0.000194281
-0.000180255
-0.000166604
-0.000153216
-0.000139949
-0.000126606
-0.000112905
-9.84169e-05
-8.25066e-05
-6.44854e-05
-4.47037e-05
-2.53298e-05
-7.96631e-06
)
;
    }
}


// ************************************************************************* //
