/*--------------------------------*- C++ -*----------------------------------*\
  =========                 |
  \\      /  F ield         | OpenFOAM: The Open Source CFD Toolbox
   \\    /   O peration     | Website:  https://openfoam.org
    \\  /    A nd           | Version:  7
     \\/     M anipulation  |
\*---------------------------------------------------------------------------*/
FoamFile
{
    version     2.0;
    format      ascii;
    class       volVectorField;
    location    "48000";
    object      U;
}
// * * * * * * * * * * * * * * * * * * * * * * * * * * * * * * * * * * * * * //

dimensions      [0 1 -1 0 0 0 0];

internalField   nonuniform List<vector> 
100
(
(0.00779469 -4.33136e-15 0)
(0.0236633 1.74795e-14 0)
(0.0398641 9.51111e-15 0)
(0.0549171 -9.58098e-15 0)
(0.0671104 1.39829e-14 0)
(0.0764366 2.02819e-14 0)
(0.0837073 1.33207e-14 0)
(0.0895886 2.65623e-14 0)
(0.0945084 3.35964e-14 0)
(0.0987373 3.64514e-14 0)
(0.102452 2.8071e-14 0)
(0.105771 2.504e-14 0)
(0.10878 1.99642e-14 0)
(0.111538 2.1761e-14 0)
(0.114091 1.60427e-14 0)
(0.116472 1.50788e-14 0)
(0.11871 1.9369e-14 0)
(0.120824 1.7391e-14 0)
(0.122831 2.02789e-14 0)
(0.124746 2.10502e-14 0)
(0.126579 2.02198e-14 0)
(0.12834 2.36072e-14 0)
(0.130036 2.13715e-14 0)
(0.131674 2.20164e-14 0)
(0.133259 2.02078e-14 0)
(0.134796 2.44242e-14 0)
(0.136289 2.0974e-14 0)
(0.13774 2.28639e-14 0)
(0.139154 2.10408e-14 0)
(0.140531 2.41229e-14 0)
(0.141873 2.48841e-14 0)
(0.143183 2.57936e-14 0)
(0.14446 2.6633e-14 0)
(0.145705 2.77962e-14 0)
(0.146918 3.22683e-14 0)
(0.1481 3.56857e-14 0)
(0.149248 3.58382e-14 0)
(0.150363 3.72252e-14 0)
(0.151441 3.66706e-14 0)
(0.152481 3.67506e-14 0)
(0.153478 3.56262e-14 0)
(0.15443 3.39942e-14 0)
(0.155329 3.37597e-14 0)
(0.15617 3.48256e-14 0)
(0.156943 3.50813e-14 0)
(0.157636 3.38834e-14 0)
(0.158235 3.22747e-14 0)
(0.158721 3.19626e-14 0)
(0.159072 3.47491e-14 0)
(0.159261 3.51892e-14 0)
(0.159261 3.88106e-14 0)
(0.159072 3.74118e-14 0)
(0.158723 4.04234e-14 0)
(0.158239 3.89451e-14 0)
(0.157642 3.73687e-14 0)
(0.156952 3.98095e-14 0)
(0.156183 3.88618e-14 0)
(0.155346 3.70335e-14 0)
(0.15445 3.84619e-14 0)
(0.153502 3.70605e-14 0)
(0.152508 4.00014e-14 0)
(0.151472 3.81098e-14 0)
(0.150397 3.56447e-14 0)
(0.149287 3.38701e-14 0)
(0.148142 3.54128e-14 0)
(0.146964 3.26692e-14 0)
(0.145754 3.56691e-14 0)
(0.144513 3.52022e-14 0)
(0.14324 3.53992e-14 0)
(0.141934 3.06742e-14 0)
(0.140595 2.92049e-14 0)
(0.139222 2.9175e-14 0)
(0.137812 2.94041e-14 0)
(0.136364 2.87119e-14 0)
(0.134875 3.21124e-14 0)
(0.133341 2.86949e-14 0)
(0.13176 3.26736e-14 0)
(0.130126 3.44583e-14 0)
(0.128434 3.28246e-14 0)
(0.126677 3.49987e-14 0)
(0.124848 3.76782e-14 0)
(0.122938 4.25096e-14 0)
(0.120934 3.83628e-14 0)
(0.118825 3.93379e-14 0)
(0.116593 3.81848e-14 0)
(0.114216 3.46241e-14 0)
(0.111669 3.90508e-14 0)
(0.108918 3.73426e-14 0)
(0.105917 4.22041e-14 0)
(0.102605 3.46932e-14 0)
(0.0989003 3.32877e-14 0)
(0.0946828 2.60262e-14 0)
(0.089777 1.44433e-14 0)
(0.0839133 1.52459e-14 0)
(0.0766647 1.57525e-14 0)
(0.0673632 -7.50275e-16 0)
(0.0551827 1.57367e-14 0)
(0.0400953 2.52722e-14 0)
(0.0238117 4.47053e-15 0)
(0.00784917 -2.00968e-15 0)
)
;

boundaryField
{
    bottomWall
    {
        type            noSlip;
    }
    topWall
    {
        type            noSlip;
    }
    sides1_half0
    {
        type            empty;
    }
    sides1_half1
    {
        type            empty;
    }
    sides2_half0
    {
        type            empty;
    }
    sides2_half1
    {
        type            empty;
    }
    inout1_half0
    {
        type            cyclic;
    }
    inout1_half1
    {
        type            cyclic;
    }
    inout2_half0
    {
        type            cyclic;
    }
    inout2_half1
    {
        type            cyclic;
    }
}


// ************************************************************************* //
