/*--------------------------------*- C++ -*----------------------------------*\
  =========                 |
  \\      /  F ield         | OpenFOAM: The Open Source CFD Toolbox
   \\    /   O peration     | Website:  https://openfoam.org
    \\  /    A nd           | Version:  7
     \\/     M anipulation  |
\*---------------------------------------------------------------------------*/
FoamFile
{
    version     2.0;
    format      ascii;
    class       surfaceScalarField;
    location    "20000";
    object      phi;
}
// * * * * * * * * * * * * * * * * * * * * * * * * * * * * * * * * * * * * * //

dimensions      [0 3 -1 0 0 0 0];

internalField   nonuniform List<scalar> 
7821
(
0.000131717
1.85746e-10
0.000131717
2.24435e-10
0.000131717
2.46329e-10
0.000131717
2.58762e-10
0.000131717
2.66273e-10
0.000131717
2.72452e-10
0.000131717
2.7952e-10
0.000131717
2.88395e-10
0.000131717
2.99154e-10
0.000131717
3.11855e-10
0.000131717
3.26822e-10
0.000131717
3.44067e-10
0.000131717
3.62707e-10
0.000131717
3.81411e-10
0.000131717
3.99225e-10
0.000131717
4.15429e-10
0.000131717
4.29424e-10
0.000131717
4.40986e-10
0.000131717
4.4991e-10
0.000131717
4.56038e-10
0.000131717
4.59774e-10
0.000131718
4.615e-10
0.000131718
4.61057e-10
0.000131718
4.58366e-10
0.000131718
4.5371e-10
0.000131718
4.47675e-10
0.000131718
4.40877e-10
0.000131718
4.33149e-10
0.000131718
4.23867e-10
0.000131718
4.132e-10
0.000131718
4.01669e-10
0.000131718
3.89443e-10
0.000131718
3.7646e-10
0.000131718
3.63271e-10
0.000131718
3.48817e-10
0.000131718
3.3418e-10
0.000131718
3.13318e-10
3.10439e-10
0.000136026
-4.00499e-11
0.000136026
5.97881e-11
0.000136026
1.1374e-10
0.000136026
1.56917e-10
0.000136026
1.85318e-10
0.000136026
2.02307e-10
0.000136026
2.13064e-10
0.000136026
2.21738e-10
0.000136026
2.30928e-10
0.000136026
2.41748e-10
0.000136026
2.54292e-10
0.000136026
2.6862e-10
0.000136026
2.85067e-10
0.000136026
3.03619e-10
0.000136026
3.23422e-10
0.000136026
3.433e-10
0.000136026
3.62389e-10
0.000136026
3.79949e-10
0.000136026
3.95356e-10
0.000136026
4.08345e-10
0.000136026
4.18726e-10
0.000136026
4.26402e-10
0.000136027
4.31746e-10
0.000136027
4.35095e-10
0.000136027
4.3632e-10
0.000136027
4.35335e-10
0.000136027
4.32393e-10
0.000136027
4.28076e-10
0.000136027
4.22993e-10
0.000136027
4.17005e-10
0.000136027
4.09504e-10
0.000136027
4.00588e-10
0.000136027
3.90733e-10
0.000136027
3.8012e-10
0.000136027
3.68682e-10
0.000136027
3.57092e-10
0.000136027
3.44047e-10
0.000136027
3.3189e-10
0.000136027
3.10489e-10
0.000136027
3.21551e-10
0.000136027
3.31548e-10
3.03585e-10
0.000140428
-4.61493e-10
0.000140428
-2.21441e-10
0.000140428
-5.99908e-11
0.000140428
3.11919e-11
0.000140428
6.94445e-11
0.000140428
1.02789e-10
0.000140428
1.28733e-10
0.000140428
1.46143e-10
0.000140428
1.58108e-10
0.000140428
1.6817e-10
0.000140428
1.78833e-10
0.000140428
1.91234e-10
0.000140428
2.0541e-10
0.000140429
2.21338e-10
0.000140429
2.39315e-10
0.000140429
2.59273e-10
0.000140429
2.80369e-10
0.000140429
3.01555e-10
0.000140429
3.22054e-10
0.000140429
3.41122e-10
0.000140429
3.58119e-10
0.000140429
3.7274e-10
0.000140429
3.84781e-10
0.000140429
3.94198e-10
0.000140429
4.01346e-10
0.000140429
4.06519e-10
0.000140429
4.09609e-10
0.000140429
4.10532e-10
0.000140429
4.09507e-10
0.000140429
4.07089e-10
0.000140429
4.03869e-10
0.000140429
3.99752e-10
0.000140429
3.94179e-10
0.000140429
3.87188e-10
0.000140429
3.79199e-10
0.000140429
3.7039e-10
0.000140429
3.60651e-10
0.000140429
3.50736e-10
0.000140429
3.39255e-10
0.000140429
3.29136e-10
0.000140429
3.09798e-10
0.000140429
3.16101e-10
0.000140429
3.343e-10
0.000140429
3.4313e-10
0.000140429
3.25575e-10
0.000140429
2.5172e-10
0.000140429
1.66307e-10
0.000140429
8.51101e-11
0.000140429
8.10829e-12
0.000140429
-6.70523e-11
0.000140429
-1.4106e-10
0.000140429
-2.14051e-10
0.000140428
-2.83075e-10
0.000140428
-3.48679e-10
0.000140428
-3.97087e-10
0.000140428
-4.39695e-10
0.000140428
-4.21455e-10
0.000140428
-3.98825e-10
-2.09895e-10
0.000144927
-4.35073e-10
0.000144927
-1.961e-10
0.000144927
-5.48603e-11
0.000144927
2.1942e-11
0.000144927
4.70969e-11
0.000144927
6.67134e-11
0.000144927
8.36382e-11
0.000144927
9.64868e-11
0.000144927
1.06487e-10
0.000144927
1.15926e-10
0.000144927
1.26718e-10
0.000144927
1.39778e-10
0.000144927
1.54975e-10
0.000144927
1.72108e-10
0.000144928
1.91358e-10
0.000144928
2.12586e-10
0.000144928
2.34928e-10
0.000144928
2.5741e-10
0.000144928
2.79327e-10
0.000144928
2.9994e-10
0.000144928
3.18599e-10
0.000144928
3.34961e-10
0.000144928
3.48798e-10
0.000144928
3.60088e-10
0.000144928
3.69168e-10
0.000144928
3.76304e-10
0.000144928
3.81415e-10
0.000144928
3.84417e-10
0.000144928
3.85479e-10
0.000144928
3.85107e-10
0.000144928
3.83874e-10
0.000144928
3.81748e-10
0.000144928
3.78229e-10
0.000144928
3.73302e-10
0.000144928
3.67337e-10
0.000144928
3.60498e-10
0.000144928
3.52616e-10
0.000144928
3.44453e-10
0.000144928
3.3469e-10
0.000144928
3.26224e-10
0.000144928
3.10441e-10
0.000144928
3.0861e-10
0.000144928
3.23743e-10
0.000144928
3.45882e-10
0.000144928
3.54813e-10
0.000144928
3.12588e-10
0.000144928
2.39778e-10
0.000144928
1.59602e-10
0.000144928
8.01004e-11
0.000144928
1.77865e-12
0.000144928
-7.54239e-11
0.000144928
-1.51452e-10
0.000144928
-2.23408e-10
0.000144928
-2.91852e-10
0.000144927
-3.43067e-10
0.000144927
-3.88712e-10
0.000144927
-3.71509e-10
0.000144927
-3.54177e-10
-1.53167e-10
0.000149526
-4.18632e-10
0.000149526
-1.69614e-10
0.000149526
-3.66301e-11
0.000149526
2.77157e-11
0.000149526
4.1528e-11
0.000149526
4.76008e-11
0.000149526
5.25931e-11
0.000149526
5.71299e-11
0.000149526
6.20037e-11
0.000149526
6.84665e-11
0.000149526
7.76534e-11
0.000149526
9.00771e-11
0.000149526
1.05342e-10
0.000149526
1.22986e-10
0.000149526
1.43005e-10
0.000149526
1.65155e-10
0.000149526
1.88518e-10
0.000149526
2.12144e-10
0.000149526
2.35371e-10
0.000149526
2.57462e-10
0.000149526
2.77751e-10
0.000149526
2.95868e-10
0.000149526
3.11559e-10
0.000149527
3.24789e-10
0.000149527
3.35866e-10
0.000149527
3.45043e-10
0.000149527
3.52283e-10
0.000149527
3.57493e-10
0.000149527
3.6077e-10
0.000149527
3.62557e-10
0.000149527
3.63416e-10
0.000149527
3.63381e-10
0.000149527
3.62014e-10
0.000149527
3.59263e-10
0.000149527
3.55446e-10
0.000149527
3.50717e-10
0.000149527
3.44833e-10
0.000149527
3.38506e-10
0.000149527
3.30595e-10
0.000149527
3.23572e-10
0.000149527
3.1171e-10
0.000149527
3.03771e-10
0.000149527
3.11443e-10
0.000149527
3.33544e-10
0.000149527
3.55e-10
0.000149527
3.42252e-10
0.000149527
2.92004e-10
0.000149527
2.22398e-10
0.000149527
1.46323e-10
0.000149527
6.83091e-11
0.000149526
-9.90932e-12
0.000149526
-8.75143e-11
0.000149526
-1.61415e-10
0.000149526
-2.32016e-10
0.000149526
-2.85666e-10
0.000149526
-3.33999e-10
0.000149526
-3.18331e-10
0.000149526
-3.05879e-10
-9.84159e-11
0.000154227
-4.10722e-10
0.000154227
-1.48367e-10
0.000154227
-1.48991e-11
0.000154227
4.20616e-11
0.000154227
4.72988e-11
0.000154227
4.18882e-11
0.000154227
3.48474e-11
0.000154227
2.92885e-11
0.000154227
2.67645e-11
0.000154227
2.81597e-11
0.000154227
3.39915e-11
0.000154227
4.43529e-11
0.000154227
5.85571e-11
0.000154227
7.58375e-11
0.000154227
9.59522e-11
0.000154228
1.18516e-10
0.000154228
1.42527e-10
0.000154228
1.67023e-10
0.000154228
1.91352e-10
0.000154228
2.14761e-10
0.000154228
2.36555e-10
0.000154228
2.56352e-10
0.000154228
2.73875e-10
0.000154228
2.89047e-10
0.000154228
3.02127e-10
0.000154228
3.1337e-10
0.000154228
3.22794e-10
0.000154228
3.3029e-10
0.000154228
3.35864e-10
0.000154228
3.39893e-10
0.000154228
3.42929e-10
0.000154228
3.45062e-10
0.000154228
3.45917e-10
0.000154228
3.45422e-10
0.000154228
3.43852e-10
0.000154228
3.41337e-10
0.000154228
3.3757e-10
0.000154228
3.33166e-10
0.000154228
3.27217e-10
0.000154228
3.21593e-10
0.000154228
3.13362e-10
0.000154228
3.02353e-10
0.000154228
3.02538e-10
0.000154228
3.18522e-10
0.000154228
3.4177e-10
0.000154228
3.48758e-10
0.000154228
3.21915e-10
0.000154228
2.68854e-10
0.000154228
2.01926e-10
0.000154228
1.28353e-10
0.000154228
5.19669e-11
0.000154228
-2.52205e-11
0.000154228
-9.96547e-11
0.000154228
-1.71375e-10
0.000154228
-2.26809e-10
0.000154228
-2.77256e-10
0.000154228
-2.6347e-10
0.000154228
-2.55544e-10
-4.52972e-11
0.000159034
-4.08833e-10
0.000159034
-1.34292e-10
0.000159034
4.25773e-12
0.000159034
5.89341e-11
0.000159034
5.91038e-11
0.000159034
4.51726e-11
0.000159034
2.77502e-11
0.000159034
1.21292e-11
0.000159034
1.20033e-12
0.000159034
-3.86861e-12
0.000159034
-2.81122e-12
0.000159034
4.18664e-12
0.000159034
1.62059e-11
0.000159035
3.21991e-11
0.000159035
5.16639e-11
0.000159035
7.40402e-11
0.000159035
9.8227e-11
0.000159035
1.23229e-10
0.000159035
1.48379e-10
0.000159035
1.72871e-10
0.000159035
1.95974e-10
0.000159035
2.17302e-10
0.000159035
2.36561e-10
0.000159035
2.53611e-10
0.000159035
2.68648e-10
0.000159035
2.81938e-10
0.000159035
2.93547e-10
0.000159035
3.0335e-10
0.000159035
3.11261e-10
0.000159035
3.17586e-10
0.000159035
3.22861e-10
0.000159035
3.27216e-10
0.000159035
3.30335e-10
0.000159035
3.32152e-10
0.000159035
3.32899e-10
0.000159035
3.32669e-10
0.000159035
3.31106e-10
0.000159035
3.28713e-10
0.000159035
3.24811e-10
0.000159035
3.20649e-10
0.000159035
3.1553e-10
0.000159035
3.03919e-10
0.000159035
2.98541e-10
0.000159035
3.06897e-10
0.000159035
3.25741e-10
0.000159035
3.42302e-10
0.000159035
3.34053e-10
0.000159035
2.98793e-10
0.000159035
2.44649e-10
0.000159035
1.79138e-10
0.000159035
1.07499e-10
0.000159035
3.29357e-11
0.000159035
-4.03855e-11
0.000159035
-1.11961e-10
0.000159035
-1.6832e-10
0.000159035
-2.20143e-10
0.000159035
-2.0842e-10
0.000159035
-2.04904e-10
6.29089e-12
0.00016395
-4.10504e-10
0.00016395
-1.26872e-10
0.00016395
1.79228e-11
0.00016395
7.39068e-11
0.00016395
7.24076e-11
0.00016395
5.31536e-11
0.00016395
2.78767e-11
0.00016395
3.52644e-12
0.00016395
-1.56017e-11
0.00016395
-2.7651e-11
0.00016395
-3.22235e-11
0.00016395
-2.95571e-11
0.00016395
-2.06707e-11
0.00016395
-6.80722e-12
0.00016395
1.12863e-11
0.00016395
3.28581e-11
0.00016395
5.67092e-11
0.00016395
8.18101e-11
0.00016395
1.07449e-10
0.000163951
1.32742e-10
0.000163951
1.56909e-10
0.000163951
1.79566e-10
0.000163951
2.00403e-10
0.000163951
2.19212e-10
0.000163951
2.36117e-10
0.000163951
2.51392e-10
0.000163951
2.65142e-10
0.000163951
2.7722e-10
0.000163951
2.87466e-10
0.000163951
2.96113e-10
0.000163951
3.03665e-10
0.000163951
3.10269e-10
0.000163951
3.15671e-10
0.000163951
3.1983e-10
0.000163951
3.22936e-10
0.000163951
3.25029e-10
0.000163951
3.25729e-10
0.000163951
3.25426e-10
0.000163951
3.23637e-10
0.000163951
3.21054e-10
0.000163951
3.18541e-10
0.000163951
3.07919e-10
0.000163951
2.99314e-10
0.000163951
3.00945e-10
0.000163951
3.12938e-10
0.000163951
3.31451e-10
0.000163951
3.35073e-10
0.000163951
3.15258e-10
0.000163951
2.74848e-10
0.000163951
2.19648e-10
0.000163951
1.55113e-10
0.000163951
8.52091e-11
0.000163951
1.46415e-11
0.000163951
-5.54563e-11
0.000163951
-1.11787e-10
0.000163951
-1.64173e-10
0.00016395
-1.54543e-10
0.00016395
-1.55597e-10
5.60079e-11
0.000168978
-4.13774e-10
0.000168978
-1.2455e-10
0.000168978
2.54121e-11
0.000168978
8.44215e-11
0.000168978
8.38646e-11
0.000168978
6.21918e-11
0.000168978
3.18071e-11
0.000168978
7.80348e-13
0.000168978
-2.54229e-11
0.000168978
-4.41299e-11
0.000168978
-5.45365e-11
0.000168978
-5.67089e-11
0.000168978
-5.15996e-11
0.000168978
-4.05194e-11
0.000168978
-2.44073e-11
0.000168978
-4.19712e-12
0.000168978
1.88337e-11
0.000168978
4.36281e-11
0.000168978
6.94075e-11
0.000168978
9.51954e-11
0.000168978
1.20161e-10
0.000168978
1.43914e-10
0.000168978
1.6613e-10
0.000168978
1.86534e-10
0.000168978
2.05183e-10
0.000168978
2.22348e-10
0.000168978
2.38154e-10
0.000168978
2.52436e-10
0.000168978
2.64979e-10
0.000168978
2.75943e-10
0.000168978
2.8578e-10
0.000168978
2.94639e-10
0.000168978
3.02326e-10
0.000168978
3.08836e-10
0.000168978
3.14312e-10
0.000168978
3.18737e-10
0.000168978
3.21732e-10
0.000168978
3.23586e-10
0.000168978
3.23959e-10
0.000168978
3.23082e-10
0.000168978
3.22785e-10
0.000168978
3.14012e-10
0.000168978
3.04193e-10
0.000168978
3.00946e-10
0.000168978
3.06079e-10
0.000168978
3.22021e-10
0.000168978
3.31329e-10
0.000168978
3.22797e-10
0.000168978
2.94817e-10
0.000168978
2.50517e-10
0.000168978
1.94465e-10
0.000168978
1.30742e-10
0.000168978
6.43235e-11
0.000168978
-3.07124e-12
0.000168978
-5.8451e-11
0.000168978
-1.10612e-10
0.000168978
-1.03015e-10
0.000168978
-1.09036e-10
1.03212e-10
0.00017412
-4.17263e-10
0.00017412
-1.25571e-10
0.00017412
2.73436e-11
0.00017412
8.95021e-11
0.00017412
9.14161e-11
0.00017412
6.95822e-11
0.00017412
3.66024e-11
0.00017412
1.17394e-12
0.00017412
-3.04381e-11
0.00017412
-5.48309e-11
0.00017412
-7.06705e-11
0.00017412
-7.76926e-11
0.00017412
-7.66326e-11
0.00017412
-6.87285e-11
0.00017412
-5.503e-11
0.00017412
-3.66136e-11
0.00017412
-1.48012e-11
0.00017412
9.32895e-12
0.00017412
3.492e-11
0.00017412
6.0904e-11
0.00017412
8.64019e-11
0.00017412
1.11012e-10
0.00017412
1.34388e-10
0.00017412
1.56196e-10
0.00017412
1.76437e-10
0.00017412
1.95374e-10
0.00017412
2.13126e-10
0.00017412
2.2951e-10
0.00017412
2.44279e-10
0.00017412
2.57522e-10
0.00017412
2.69624e-10
0.00017412
2.80728e-10
0.00017412
2.90686e-10
0.00017412
2.99532e-10
0.00017412
3.07363e-10
0.00017412
3.14105e-10
0.00017412
3.19404e-10
0.00017412
3.23463e-10
0.00017412
3.26033e-10
0.00017412
3.26979e-10
0.00017412
3.28639e-10
0.00017412
3.22093e-10
0.00017412
3.12512e-10
0.00017412
3.06337e-10
0.00017412
3.05864e-10
0.00017412
3.1727e-10
0.00017412
3.27719e-10
0.00017412
3.26048e-10
0.00017412
3.07849e-10
0.00017412
2.73592e-10
0.00017412
2.263e-10
0.00017412
1.69563e-10
0.00017412
1.08252e-10
0.00017412
4.45218e-11
0.00017412
-9.13844e-12
0.00017412
-6.04084e-11
0.00017412
-5.4769e-11
0.00017412
-6.63418e-11
1.47164e-10
0.000179379
-4.20081e-10
0.000179379
-1.28378e-10
0.000179379
2.49243e-11
0.000179379
8.92728e-11
0.000179379
9.41379e-11
0.000179379
7.36032e-11
0.000179379
4.00395e-11
0.000179379
2.34059e-12
0.000179379
-3.28255e-11
0.000179379
-6.15358e-11
0.000179379
-8.19384e-11
0.000179379
-9.33719e-11
0.000179379
-9.62542e-11
0.000179379
-9.16281e-11
0.000179379
-8.05567e-11
0.000179379
-6.41945e-11
0.000179379
-4.38683e-11
0.000179379
-2.06736e-11
0.000179379
4.45239e-12
0.000179379
3.03677e-11
0.000179379
5.61549e-11
0.000179379
8.13941e-11
0.000179379
1.05715e-10
0.000179379
1.28728e-10
0.000179379
1.50395e-10
0.000179379
1.70969e-10
0.000179379
1.90546e-10
0.000179379
2.08919e-10
0.000179379
2.25815e-10
0.000179379
2.41264e-10
0.000179379
2.55586e-10
0.000179379
2.68906e-10
0.000179379
2.81111e-10
0.000179379
2.92257e-10
0.00017938
3.02405e-10
0.00017938
3.11437e-10
0.00017938
3.19029e-10
0.00017938
3.25312e-10
0.000179379
3.30097e-10
0.000179379
3.32966e-10
0.000179379
3.36433e-10
0.000179379
3.32213e-10
0.000179379
3.23794e-10
0.000179379
3.16344e-10
0.000179379
3.11957e-10
0.000179379
3.18575e-10
0.000179379
3.27425e-10
0.000179379
3.28888e-10
0.000179379
3.17383e-10
0.000179379
2.91364e-10
0.000179379
2.52151e-10
0.000179379
2.02447e-10
0.000179379
1.46668e-10
0.000179379
8.71873e-11
0.000179379
3.57607e-11
0.000179379
-1.41545e-11
0.000179379
-1.04581e-11
0.000179379
-2.83208e-11
1.87194e-10
0.000184759
-4.2169e-10
0.000184759
-1.31754e-10
0.000184759
1.94914e-11
0.000184759
8.44878e-11
0.000184759
9.1959e-11
0.000184759
7.34113e-11
0.000184759
4.06651e-11
0.000184759
2.4587e-12
0.000184759
-3.44956e-11
0.000184759
-6.60077e-11
0.000184759
-8.98141e-11
0.000184759
-1.04876e-10
0.000184759
-1.1126e-10
0.000184759
-1.09731e-10
0.000184759
-1.01269e-10
0.000184759
-8.70259e-11
0.000184759
-6.82986e-11
0.000184759
-4.61983e-11
0.000184759
-2.17333e-11
0.000184759
3.9072e-12
0.000184759
2.97815e-11
0.000184759
5.54537e-11
0.000184759
8.0529e-11
0.000184759
1.04564e-10
0.000184759
1.27491e-10
0.000184759
1.49561e-10
0.000184759
1.7084e-10
0.000184759
1.9108e-10
0.000184759
2.09985e-10
0.000184759
2.27539e-10
0.000184759
2.44011e-10
0.000184759
2.59509e-10
0.000184759
2.73924e-10
0.000184759
2.87319e-10
0.000184759
2.99728e-10
0.000184759
3.11012e-10
0.000184759
3.2087e-10
0.000184759
3.29371e-10
0.000184759
3.3637e-10
0.000184759
3.41237e-10
0.000184759
3.46435e-10
0.000184759
3.44501e-10
0.000184759
3.37768e-10
0.000184759
3.30282e-10
0.000184759
3.23622e-10
0.000184759
3.26136e-10
0.000184759
3.32139e-10
0.000184759
3.34086e-10
0.000184759
3.26427e-10
0.000184759
3.06437e-10
0.000184759
2.73966e-10
0.000184759
2.30695e-10
0.000184759
1.80333e-10
0.000184759
1.25264e-10
0.000184759
7.62707e-11
0.000184759
2.79137e-11
0.000184759
2.95563e-11
0.000184759
4.5376e-12
2.22808e-10
0.000190262
-4.21789e-10
0.000190262
-1.34818e-10
0.000190262
1.22637e-11
0.000190262
7.61668e-11
0.000190262
8.5359e-11
0.000190262
6.88515e-11
0.000190262
3.77282e-11
0.000190262
3.07818e-13
0.000190262
-3.69392e-11
0.000190262
-6.97941e-11
0.000190262
-9.5736e-11
0.000190262
-1.1343e-10
0.000190262
-1.22623e-10
0.000190262
-1.2377e-10
0.000190262
-1.17678e-10
0.000190262
-1.05426e-10
0.000190262
-8.82497e-11
0.000190262
-6.72788e-11
0.000190262
-4.35721e-11
0.000190262
-1.83345e-11
0.000190262
7.48409e-12
0.000190262
3.34408e-11
0.000190262
5.91193e-11
0.000190262
8.40243e-11
0.000190262
1.08064e-10
0.000190262
1.31495e-10
0.000190262
1.54355e-10
0.000190262
1.76342e-10
0.000190262
1.97126e-10
0.000190262
2.16662e-10
0.000190262
2.352e-10
0.000190262
2.52824e-10
0.000190262
2.69404e-10
0.000190262
2.84983e-10
0.000190262
2.99592e-10
0.000190262
3.13084e-10
0.000190262
3.25164e-10
0.000190262
3.35849e-10
0.000190262
3.45043e-10
0.000190262
3.51956e-10
0.000190262
3.58851e-10
0.000190262
3.59111e-10
0.000190262
3.54322e-10
0.000190262
3.47648e-10
0.000190262
3.40073e-10
0.000190262
3.3954e-10
0.000190262
3.42473e-10
0.000190262
3.43323e-10
0.000190262
3.37261e-10
0.000190262
3.21139e-10
0.000190262
2.93763e-10
0.000190262
2.55876e-10
0.000190262
2.10358e-10
0.000190262
1.59458e-10
0.000190262
1.12766e-10
0.000190262
6.58855e-11
0.000190262
6.51948e-11
0.000190262
3.20394e-11
2.53732e-10
0.000195891
-4.20213e-10
0.000195891
-1.36976e-10
0.000195891
4.23747e-12
0.000195891
6.53556e-11
0.000195891
7.51074e-11
0.000195891
6.02451e-11
0.000195891
3.10458e-11
0.000195891
-4.77066e-12
0.000195891
-4.11754e-11
0.000195891
-7.41119e-11
0.000195891
-1.00964e-10
0.000195891
-1.20216e-10
0.000195891
-1.3137e-10
0.000195891
-1.3459e-10
0.000195891
-1.30448e-10
0.000195891
-1.19881e-10
0.000195891
-1.04061e-10
0.000195891
-8.41313e-11
0.000195891
-6.11745e-11
0.000195891
-3.63784e-11
0.000195891
-1.06856e-11
0.000195891
1.5466e-11
0.000195891
4.1649e-11
0.000195891
6.73201e-11
0.000195891
9.23577e-11
0.000195891
1.17026e-10
0.000195891
1.4135e-10
0.000195891
1.64973e-10
0.000195891
1.87503e-10
0.000195891
2.08892e-10
0.000195891
2.29398e-10
0.000195891
2.49089e-10
0.000195891
2.67781e-10
0.000195891
2.85476e-10
0.000195891
3.02217e-10
0.000195891
3.17865e-10
0.000195891
3.32109e-10
0.000195891
3.44927e-10
0.000195891
3.56281e-10
0.000195891
3.65255e-10
0.000195891
3.73828e-10
0.000195891
3.76184e-10
0.000195891
3.73441e-10
0.000195891
3.6811e-10
0.000195891
3.60629e-10
0.000195891
3.58133e-10
0.000195891
3.58364e-10
0.000195891
3.57399e-10
0.000195891
3.51386e-10
0.000195891
3.37302e-10
0.000195891
3.13364e-10
0.000195891
2.79584e-10
0.000195891
2.38019e-10
0.000195891
1.90703e-10
0.000195891
1.45877e-10
0.000195891
1.00116e-10
0.000195891
9.66269e-11
0.000195891
5.42526e-11
2.79925e-10
0.000201649
-4.16878e-10
0.000201649
-1.37842e-10
0.000201649
-3.8297e-12
0.000201649
5.29935e-11
0.000201649
6.20702e-11
0.000201649
4.81946e-11
0.000201649
2.08434e-11
0.000201649
-1.297e-11
0.000201649
-4.77748e-11
0.000201649
-7.98053e-11
0.000201649
-1.06492e-10
0.000201649
-1.26261e-10
0.000201649
-1.38476e-10
0.000201649
-1.43057e-10
0.000201649
-1.40309e-10
0.000201649
-1.30986e-10
0.000201649
-1.162e-10
0.000201649
-9.71117e-11
0.000201649
-7.47928e-11
0.000201649
-5.03856e-11
0.000201649
-2.48108e-11
0.000201649
1.51252e-12
0.000201649
2.81612e-11
0.000201649
5.45501e-11
0.000201649
8.05127e-11
0.000201649
1.06315e-10
0.000201649
1.31997e-10
0.000201649
1.57149e-10
0.000201649
1.81305e-10
0.000201649
2.04422e-10
0.000201649
2.26796e-10
0.000201649
2.48485e-10
0.000201649
2.69234e-10
0.000201649
2.88982e-10
0.000201649
3.07788e-10
0.000201649
3.25526e-10
0.000201649
3.41861e-10
0.000201649
3.56749e-10
0.000201649
3.70208e-10
0.000201649
3.81227e-10
0.000201649
3.91465e-10
0.000201649
3.95831e-10
0.000201649
3.95152e-10
0.000201649
3.9146e-10
0.000201649
3.8476e-10
0.000201649
3.81242e-10
0.000201649
3.79396e-10
0.000201649
3.76489e-10
0.000201649
3.6962e-10
0.000201649
3.56196e-10
0.000201649
3.34232e-10
0.000201649
3.03256e-10
0.000201649
2.64584e-10
0.000201649
2.20024e-10
0.000201649
1.76386e-10
0.000201649
1.31152e-10
0.000201649
1.24222e-10
0.000201649
7.14642e-11
3.01558e-10
0.000207539
-4.11744e-10
0.000207539
-1.37182e-10
0.000207539
-1.13922e-11
0.000207539
3.98576e-11
0.000207539
4.70874e-11
0.000207539
3.34288e-11
0.000207539
7.60096e-12
0.000207539
-2.41389e-11
0.000207539
-5.69261e-11
0.000207539
-8.73568e-11
0.000207539
-1.13016e-10
0.000207539
-1.32378e-10
0.000207539
-1.44782e-10
0.000207539
-1.49973e-10
0.000207539
-1.47986e-10
0.000207539
-1.39377e-10
0.000207539
-1.25211e-10
0.000207539
-1.06668e-10
0.000207539
-8.47815e-11
0.000207539
-6.0627e-11
0.000207539
-3.50875e-11
0.000207539
-8.54652e-12
0.000207539
1.85916e-11
0.000207539
4.57045e-11
0.00020754
7.25637e-11
0.00020754
9.94265e-11
0.00020754
1.26375e-10
0.00020754
1.52963e-10
0.00020754
1.78644e-10
0.00020754
2.03381e-10
0.00020754
2.27528e-10
0.00020754
2.51139e-10
0.00020754
2.7389e-10
0.00020754
2.95634e-10
0.00020754
3.16436e-10
0.000207539
3.36185e-10
0.000207539
3.54531e-10
0.000207539
3.71418e-10
0.000207539
3.86912e-10
0.000207539
3.9993e-10
0.000207539
4.11815e-10
0.000207539
4.18119e-10
0.000207539
4.19476e-10
0.000207539
4.1756e-10
0.000207539
4.12074e-10
0.000207539
4.08267e-10
0.000207539
4.05017e-10
0.000207539
4.00383e-10
0.000207539
3.92253e-10
0.000207539
3.78573e-10
0.000207539
3.57414e-10
0.000207539
3.28054e-10
0.000207539
2.9118e-10
0.000207539
2.48411e-10
0.000207539
2.05121e-10
0.000207539
1.59648e-10
0.000207539
1.48488e-10
0.000207539
8.41308e-11
3.18979e-10
0.000213564
-4.04794e-10
0.000213564
-1.34855e-10
0.000213564
-1.80731e-11
0.000213564
2.6558e-11
0.000213564
3.09081e-11
0.000213564
1.66921e-11
0.000213564
-8.07757e-12
0.000213564
-3.79018e-11
0.000213564
-6.85244e-11
0.000213564
-9.69334e-11
0.000213564
-1.20935e-10
0.000213564
-1.39137e-10
0.000213564
-1.50946e-10
0.000213564
-1.56017e-10
0.000213564
-1.5414e-10
0.000213564
-1.45677e-10
0.000213565
-1.31665e-10
0.000213565
-1.13297e-10
0.000213565
-9.15593e-11
0.000213565
-6.74513e-11
0.000213565
-4.17965e-11
0.000213565
-1.49261e-11
0.000213565
1.27826e-11
0.000213565
4.06735e-11
0.000213565
6.84433e-11
0.000213565
9.63306e-11
0.000213565
1.24476e-10
0.000213565
1.52425e-10
0.000213565
1.79555e-10
0.000213565
2.05832e-10
0.000213565
2.31666e-10
0.000213565
2.57122e-10
0.000213565
2.81816e-10
0.000213565
3.05508e-10
0.000213565
3.28241e-10
0.000213564
3.49914e-10
0.000213564
3.70182e-10
0.000213564
3.88991e-10
0.000213564
4.06434e-10
0.000213564
4.21382e-10
0.000213564
4.3489e-10
0.000213564
4.43069e-10
0.000213564
4.46403e-10
0.000213564
4.46303e-10
0.000213564
4.42278e-10
0.000213564
4.38713e-10
0.000213564
4.34659e-10
0.000213564
4.28671e-10
0.000213564
4.19216e-10
0.000213564
4.04754e-10
0.000213564
3.83551e-10
0.000213564
3.54808e-10
0.000213564
3.18701e-10
0.000213564
2.76727e-10
0.000213564
2.32873e-10
0.000213564
1.8629e-10
0.000213564
1.70011e-10
0.000213564
9.28247e-11
3.32666e-10
0.000219727
-3.96031e-10
0.000219727
-1.30784e-10
0.000219727
-2.36189e-11
0.000219727
1.35588e-11
0.000219727
1.41653e-11
0.000219727
-1.32541e-12
0.000219727
-2.55595e-11
0.000219727
-5.37613e-11
0.000219727
-8.22624e-11
0.000219727
-1.08453e-10
0.000219727
-1.30392e-10
0.000219727
-1.46871e-10
0.000219727
-1.57431e-10
0.000219727
-1.61713e-10
0.000219727
-1.59321e-10
0.000219727
-1.50452e-10
0.000219727
-1.36113e-10
0.000219727
-1.17504e-10
0.000219727
-9.55751e-11
0.000219727
-7.12527e-11
0.000219727
-4.52748e-11
0.000219727
-1.79067e-11
0.000219727
1.05006e-11
0.000219727
3.92607e-11
0.000219727
6.79925e-11
0.000219727
9.69092e-11
0.000219727
1.26216e-10
0.000219727
1.55475e-10
0.000219727
1.84005e-10
0.000219727
2.11774e-10
0.000219727
2.3923e-10
0.000219727
2.66453e-10
0.000219727
2.93025e-10
0.000219727
3.18615e-10
0.000219727
3.43216e-10
0.000219727
3.66727e-10
0.000219727
3.88833e-10
0.000219727
4.09482e-10
0.000219727
4.28772e-10
0.000219727
4.45564e-10
0.000219727
4.60662e-10
0.000219727
4.70651e-10
0.000219727
4.75888e-10
0.000219727
4.77582e-10
0.000219727
4.75138e-10
0.000219727
4.72175e-10
0.000219727
4.67803e-10
0.000219727
4.60867e-10
0.000219727
4.50222e-10
0.000219727
4.34744e-10
0.000219727
4.12933e-10
0.000219727
3.84021e-10
0.000219727
3.47778e-10
0.000219727
3.05651e-10
0.000219727
2.60331e-10
0.000219727
2.11727e-10
0.000219727
1.89392e-10
0.000219727
9.81777e-11
3.43177e-10
0.000226031
-3.85477e-10
0.000226031
-1.24939e-10
0.000226031
-2.78608e-11
0.000226031
1.2084e-12
0.000226031
-2.62798e-12
0.000226031
-2.00233e-11
0.000226031
-4.42422e-11
0.000226031
-7.11746e-11
0.000226031
-9.77135e-11
0.000226031
-1.21654e-10
0.000226031
-1.41322e-10
0.000226031
-1.55701e-10
0.000226031
-1.64501e-10
0.000226031
-1.67415e-10
0.000226031
-1.63946e-10
0.000226031
-1.5417e-10
0.000226031
-1.39046e-10
0.000226031
-1.19769e-10
0.000226031
-9.72794e-11
0.000226031
-7.24432e-11
0.000226031
-4.589e-11
0.000226031
-1.78129e-11
0.000226031
1.14548e-11
0.000226031
4.12016e-11
0.000226031
7.09776e-11
0.000226031
1.0097e-10
0.000226031
1.31442e-10
0.000226031
1.61987e-10
0.000226031
1.91898e-10
0.000226031
2.21141e-10
0.000226031
2.50178e-10
0.000226031
2.79098e-10
0.000226031
3.0747e-10
0.000226031
3.34896e-10
0.000226031
3.61305e-10
0.000226031
3.86587e-10
0.000226031
4.10456e-10
0.000226031
4.32856e-10
0.000226031
4.5388e-10
0.000226031
4.72419e-10
0.000226031
4.89064e-10
0.000226031
5.00792e-10
0.000226031
5.07845e-10
0.000226031
5.11279e-10
0.000226031
5.10451e-10
0.000226031
5.08316e-10
0.000226031
5.03991e-10
0.000226031
4.96479e-10
0.000226031
4.84864e-10
0.000226031
4.68325e-10
0.000226031
4.45568e-10
0.000226031
4.15907e-10
0.000226031
3.78783e-10
0.00022603
3.35663e-10
0.00022603
2.88039e-10
0.00022603
2.36518e-10
0.00022603
2.07189e-10
0.00022603
1.00826e-10
3.51102e-10
0.000232479
-3.73173e-10
0.000232479
-1.17318e-10
0.000232479
-3.06858e-11
0.000232479
-1.02341e-11
0.000232479
-1.90696e-11
0.000232479
-3.89006e-11
0.000232479
-6.35808e-11
0.000232479
-8.96042e-11
0.000232479
-1.144e-10
0.000232479
-1.36171e-10
0.000232479
-1.53507e-10
0.000232479
-1.65576e-10
0.000232479
-1.72248e-10
0.000232479
-1.73323e-10
0.000232479
-1.68301e-10
0.000232479
-1.57187e-10
0.000232479
-1.4087e-10
0.000232479
-1.2052e-10
0.000232479
-9.70981e-11
0.000232479
-7.14267e-11
0.000232479
-4.40172e-11
0.000232479
-1.49936e-11
0.000232479
1.53167e-11
0.000232479
4.61838e-11
0.000232479
7.711e-11
0.000232479
1.08262e-10
0.000232479
1.39942e-10
0.000232479
1.7178e-10
0.000232479
2.0308e-10
0.000232479
2.3381e-10
0.000232479
2.64411e-10
0.000232479
2.94965e-10
0.000232479
3.25048e-10
0.000232479
3.54232e-10
0.000232479
3.82393e-10
0.000232479
4.09397e-10
0.000232478
4.34971e-10
0.000232478
4.59033e-10
0.000232478
4.8167e-10
0.000232478
5.01854e-10
0.000232478
5.19993e-10
0.000232478
5.33381e-10
0.000232478
5.42154e-10
0.000232478
5.47251e-10
0.000232478
5.48018e-10
0.000232478
5.46839e-10
0.000232478
5.42819e-10
0.000232478
5.35035e-10
0.000232478
5.22687e-10
0.000232478
5.05143e-10
0.000232478
4.81262e-10
0.000232478
4.50444e-10
0.000232478
4.1186e-10
0.000232478
3.67047e-10
0.000232478
3.16381e-10
0.000232478
2.61095e-10
0.000232478
2.23872e-10
0.000232478
1.01361e-10
3.5702e-10
0.000239073
-3.59176e-10
0.000239073
-1.07944e-10
0.000239073
-3.20171e-11
0.000239073
-2.0576e-11
0.000239073
-3.48512e-11
0.000239073
-5.75478e-11
0.000239073
-8.30961e-11
0.000239073
-1.08548e-10
0.000239073
-1.31843e-10
0.000239073
-1.51586e-10
0.000239073
-1.66631e-10
0.000239073
-1.76312e-10
0.000239073
-1.80626e-10
0.000239073
-1.79506e-10
0.000239073
-1.72546e-10
0.000239073
-1.5974e-10
0.000239073
-1.41888e-10
0.000239073
-1.20113e-10
0.000239073
-9.54084e-11
0.000239073
-6.85769e-11
0.000239073
-4.00198e-11
0.000239073
-9.80359e-12
0.000239073
2.17383e-11
0.000239073
5.3867e-11
0.000239073
8.60672e-11
0.000239073
1.18494e-10
0.000239073
1.51459e-10
0.000239073
1.84626e-10
0.000239073
2.1735e-10
0.000239073
2.49599e-10
0.000239073
2.81765e-10
0.000239073
3.13904e-10
0.000239073
3.45606e-10
0.000239073
3.76457e-10
0.000239073
4.06316e-10
0.000239073
4.35007e-10
0.000239073
4.62238e-10
0.000239073
4.87875e-10
0.000239073
5.12013e-10
0.000239073
5.33741e-10
0.000239073
5.53312e-10
0.000239073
5.68274e-10
0.000239073
5.78663e-10
0.000239073
5.85325e-10
0.000239073
5.87627e-10
0.000239073
5.87466e-10
0.000239072
5.8392e-10
0.000239072
5.76091e-10
0.000239072
5.63216e-10
0.000239072
5.44768e-10
0.000239072
5.19684e-10
0.000239072
4.8744e-10
0.000239072
4.46974e-10
0.000239072
3.9991e-10
0.000239072
3.45578e-10
0.000239072
2.85752e-10
0.000239072
2.398e-10
0.000239072
1.00295e-10
3.6146e-10
0.000245817
-3.43564e-10
0.000245817
-9.68578e-11
0.000245817
-3.18049e-11
0.000245817
-2.9672e-11
0.000245817
-4.97343e-11
0.000245817
-7.56301e-11
0.000245817
-1.02374e-10
0.000245817
-1.27556e-10
0.000245817
-1.49594e-10
0.000245817
-1.67477e-10
0.000245817
-1.80331e-10
0.000245817
-1.87639e-10
0.000245817
-1.89482e-10
0.000245817
-1.8593e-10
0.000245817
-1.76742e-10
0.000245817
-1.61962e-10
0.000245817
-1.42302e-10
0.000245817
-1.18814e-10
0.000245817
-9.25198e-11
0.000245817
-6.42179e-11
0.000245817
-3.42302e-11
0.000245817
-2.58598e-12
0.000245817
3.03691e-11
0.000245817
6.39019e-11
0.000245817
9.75125e-11
0.000245817
1.31351e-10
0.000245817
1.65703e-10