/*--------------------------------*- C++ -*----------------------------------*\
  =========                 |
  \\      /  F ield         | OpenFOAM: The Open Source CFD Toolbox
   \\    /   O peration     | Website:  https://openfoam.org
    \\  /    A nd           | Version:  7
     \\/     M anipulation  |
\*---------------------------------------------------------------------------*/
FoamFile
{
    version     2.0;
    format      ascii;
    class       volScalarField;
    location    "16000";
    object      omega;
}
// * * * * * * * * * * * * * * * * * * * * * * * * * * * * * * * * * * * * * //

dimensions      [0 0 -1 0 0 0 0];

internalField   nonuniform List<scalar> 
24000
(
999.269
999.269
999.269
999.269
999.269
999.269
999.269
999.269
999.269
999.269
999.269
999.269
999.269
999.269
999.269
999.269
999.269
999.269
999.269
999.269
999.269
999.269
999.269
999.269
999.269
999.269
999.269
999.269
999.269
999.269
999.269
999.269
999.269
999.269
999.269
999.269
999.269
999.269
999.269
999.269
999.269
999.269
999.269
999.269
999.269
999.269
999.269
999.269
999.269
999.269
999.269
999.269
999.269
999.269
999.269
999.269
999.269
999.269
999.269
999.269
999.269
999.269
999.269
999.269
999.269
999.269
999.269
999.269
999.269
999.269
999.269
999.269
999.269
999.269
999.269
999.269
999.269
999.269
999.269
999.269
999.269
999.269
999.269
999.269
999.269
999.269
999.269
999.269
999.269
999.269
999.269
999.269
999.269
999.269
999.269
999.269
999.269
999.269
999.269
999.269
999.269
999.269
999.269
999.269
999.269
999.269
999.269
999.269
999.269
999.269
999.269
999.269
999.269
999.269
999.269
999.269
999.269
999.269
999.269
999.269
173.158
173.158
173.158
173.158
173.158
173.158
173.158
173.158
173.158
173.158
173.158
173.158
173.158
173.158
173.158
173.158
173.158
173.158
173.158
173.158
173.158
173.158
173.158
173.158
173.158
173.158
173.158
173.158
173.158
173.158
173.158
173.158
173.158
173.158
173.158
173.158
173.158
173.158
173.158
173.158
173.158
173.158
173.158
173.158
173.158
173.158
173.158
173.158
173.158
173.158
173.158
173.158
173.158
173.158
173.158
173.158
173.158
173.158
173.158
173.158
173.158
173.158
173.158
173.158
173.158
173.158
173.158
173.158
173.158
173.158
173.158
173.158
173.158
173.158
173.158
173.158
173.158
173.158
173.158
173.158
173.158
173.158
173.158
173.158
173.158
173.158
173.158
173.158
173.158
173.158
173.158
173.158
173.158
173.158
173.158
173.158
173.158
173.158
173.158
173.158
173.158
173.158
173.158
173.158
173.158
173.158
173.158
173.158
173.158
173.158
173.158
173.158
173.158
173.158
173.158
173.158
173.158
173.158
173.158
173.158
58.7586
58.7586
58.7586
58.7587
58.7587
58.7587
58.7587
58.7586
58.7586
58.7586
58.7586
58.7586
58.7586
58.7586
58.7586
58.7586
58.7586
58.7586
58.7586
58.7586
58.7586
58.7586
58.7586
58.7586
58.7586
58.7586
58.7586
58.7586
58.7586
58.7586
58.7586
58.7586
58.7586
58.7586
58.7586
58.7586
58.7586
58.7586
58.7586
58.7586
58.7586
58.7586
58.7586
58.7587
58.7587
58.7587
58.7587
58.7587
58.7587
58.7587
58.7587
58.7587
58.7587
58.7587
58.7587
58.7587
58.7587
58.7587
58.7587
58.7587
58.7587
58.7587
58.7587
58.7587
58.7587
58.7587
58.7587
58.7587
58.7587
58.7587
58.7587
58.7587
58.7587
58.7587
58.7587
58.7587
58.7587
58.7586
58.7586
58.7586
58.7586
58.7586
58.7586
58.7586
58.7586
58.7586
58.7586
58.7586
58.7586
58.7586
58.7586
58.7586
58.7586
58.7586
58.7586
58.7586
58.7586
58.7586
58.7586
58.7586
58.7586
58.7586
58.7586
58.7586
58.7586
58.7586
58.7586
58.7586
58.7586
58.7586
58.7586
58.7586
58.7586
58.7586
58.7586
58.7586
58.7586
58.7586
58.7586
58.7587
28.3333
28.3334
28.3335
28.3335
28.3335
28.3335
28.3335
28.3335
28.3335
28.3335
28.3335
28.3335
28.3335
28.3334
28.3334
28.3334
28.3334
28.3334
28.3334
28.3334
28.3334
28.3334
28.3334
28.3334
28.3334
28.3334
28.3334
28.3334
28.3334
28.3334
28.3334
28.3334
28.3334
28.3334
28.3335
28.3335
28.3335
28.3335
28.3335
28.3335
28.3335
28.3335
28.3335
28.3335
28.3335
28.3335
28.3335
28.3335
28.3335
28.3335
28.3335
28.3335
28.3335
28.3335
28.3335
28.3335
28.3335
28.3335
28.3335
28.3335
28.3335
28.3335
28.3335
28.3335
28.3335
28.3335
28.3335
28.3335
28.3335
28.3335
28.3335
28.3335
28.3335
28.3335
28.3335
28.3335
28.3335
28.3335
28.3335
28.3335
28.3335
28.3335
28.3335
28.3335
28.3335
28.3335
28.3335
28.3335
28.3335
28.3335
28.3335
28.3335
28.3335
28.3335
28.3335
28.3335
28.3335
28.3335
28.3335
28.3335
28.3335
28.3335
28.3335
28.3335
28.3335
28.3335
28.3335
28.3335
28.3335
28.3335
28.3335
28.3335
28.3335
28.3335
28.3335
28.3335
28.3335
28.3335
28.3335
28.3335
16.9636
16.9638
16.9639
16.9639
16.9639
16.9639
16.9639
16.9639
16.9639
16.9639
16.9639
16.9639
16.9638
16.9638
16.9638
16.9638
16.9638
16.9638
16.9638
16.9638
16.9638
16.9638
16.9638
16.9638
16.9638
16.9638
16.9638
16.9638
16.9638
16.9638
16.9638
16.9638
16.9638
16.9638
16.9638
16.9638
16.9638
16.9639
16.9639
16.9639
16.9639
16.9639
16.9639
16.9639
16.9639
16.9639
16.9639
16.9639
16.9639
16.9639
16.9639
16.9639
16.9639
16.9639
16.9639
16.9639
16.9639
16.9639
16.9639
16.9639
16.9639
16.9639
16.9639
16.9639
16.9639
16.9639
16.9639
16.9639
16.9639
16.9639
16.9639
16.9639
16.9639
16.9639
16.9639
16.9639
16.9639
16.9639
16.9639
16.9639
16.9639
16.9639
16.9639
16.9639
16.9639
16.9639
16.9639
16.9639
16.9639
16.9639
16.9639
16.9639
16.9639
16.9639
16.9639
16.9639
16.9639
16.9639
16.9639
16.9639
16.9639
16.9639
16.9639
16.9639
16.9639
16.9639
16.9639
16.9639
16.9639
16.9639
16.9639
16.9639
16.9639
16.9639
16.9639
16.9639
16.9639
16.9639
16.9639
16.9639
11.7055
11.7057
11.7058
11.7059
11.7059
11.7059
11.7059
11.7059
11.7059
11.7059
11.7058
11.7058
11.7058
11.7058
11.7058
11.7058
11.7058
11.7058
11.7058
11.7058
11.7058
11.7058
11.7058
11.7058
11.7058
11.7058
11.7058
11.7058
11.7058
11.7058
11.7058
11.7058
11.7058
11.7058
11.7058
11.7058
11.7058
11.7058
11.7058
11.7058
11.7058
11.7059
11.7059
11.7059
11.7059
11.7059
11.7059
11.7059
11.7059
11.7059
11.7059
11.7059
11.7059
11.7059
11.7059
11.7059
11.7059
11.7059
11.7059
11.7059
11.7059
11.7059
11.7059
11.7059
11.7059
11.7059
11.7059
11.7059
11.7059
11.7059
11.7059
11.7059
11.7059
11.7059
11.7059
11.7059
11.7059
11.7059
11.7059
11.7059
11.7059
11.7059
11.7059
11.7059
11.7059
11.7059
11.7058
11.7058
11.7058
11.7058
11.7058
11.7058
11.7058
11.7058
11.7058
11.7058
11.7058
11.7058
11.7058
11.7058
11.7058
11.7058
11.7058
11.7058
11.7059
11.7059
11.7059
11.7059
11.7059
11.7059
11.7059
11.7059
11.7059
11.7059
11.7059
11.7059
11.7059
11.7059
11.7059
11.7059
8.82279
8.82301
8.82316
8.82322
8.82324
8.82325
8.82325
8.82325
8.82325
8.82325
8.82325
8.82325
8.82325
8.82324
8.82324
8.82324
8.82323
8.82323
8.82323
8.82323
8.82322
8.82322
8.82322
8.82322
8.82322
8.82322
8.82322
8.82322
8.82322
8.82322
8.82322
8.82322
8.82322
8.82322
8.82322
8.82323
8.82323
8.82323
8.82323
8.82324
8.82324
8.82324
8.82325
8.82325
8.82326
8.82326
8.82327
8.82328
8.82328
8.82328
8.82329
8.82329
8.82329
8.82329
8.82329
8.82329
8.82329
8.82329
8.82329
8.82329
8.82329
8.82328
8.82328
8.82328
8.82328
8.82328
8.82328
8.82328
8.82328
8.82328
8.82328
8.82327
8.82327
8.82327
8.82327
8.82327
8.82327
8.82327
8.82326
8.82326
8.82326
8.82326
8.82326
8.82326
8.82325
8.82325
8.82325
8.82325
8.82325
8.82325
8.82325
8.82325
8.82324
8.82324
8.82324
8.82324
8.82324
8.82324
8.82324
8.82324
8.82324
8.82324
8.82325
8.82325
8.82325
8.82326
8.82326
8.82326
8.82326
8.82327
8.82327
8.82326
8.82326
8.82326
8.82326
8.82326
8.82326
8.82326
8.82326
8.8233
7.00532
7.00549
7.00565
7.00572
7.00575
7.00576
7.00577
7.00577
7.00578
7.00578
7.00578
7.00578
7.00578
7.00578
7.00578
7.00578
7.00578
7.00578
7.00577
7.00577
7.00577
7.00577
7.00576
7.00576
7.00576
7.00576
7.00576
7.00576
7.00575
7.00575
7.00575
7.00575
7.00575
7.00575
7.00575
7.00575
7.00575
7.00575
7.00576
7.00576
7.00576
7.00576
7.00576
7.00577
7.00577
7.00578
7.00578
7.00579
7.00579
7.0058
7.0058
7.0058
7.0058
7.0058
7.0058
7.0058
7.0058
7.0058
7.0058
7.00579
7.00579
7.00579
7.00579
7.00579
7.00579
7.00579
7.00579
7.00579
7.00579
7.00579
7.00579
7.00579
7.00579
7.00579
7.00579
7.00579
7.00579
7.00579
7.00578
7.00578
7.00578
7.00578
7.00578
7.00578
7.00578
7.00578
7.00578
7.00577
7.00577
7.00577
7.00577
7.00577
7.00577
7.00577
7.00577
7.00577
7.00577
7.00577
7.00577
7.00577
7.00577
7.00577
7.00577
7.00577
7.00578
7.00578
7.00579
7.00579
7.00579
7.00579
7.00579
7.00579
7.00579
7.00579
7.00579
7.00578
7.00578
7.00578
7.00578
7.00583
5.74321
5.74333
5.74347
5.74354
5.74358
5.74359
5.7436
5.74361
5.74362
5.74362
5.74363
5.74363
5.74363
5.74363
5.74363
5.74363
5.74363
5.74363
5.74363
5.74363
5.74363
5.74362
5.74362
5.74362
5.74362
5.74361
5.74361
5.74361
5.74361
5.7436
5.7436
5.7436
5.7436
5.7436
5.7436
5.7436
5.74359
5.74359
5.74359
5.74359
5.74359
5.7436
5.7436
5.7436
5.7436
5.7436
5.74361
5.74361
5.74362
5.74362
5.74362
5.74363
5.74363
5.74363
5.74363
5.74362
5.74362
5.74362
5.74362
5.74362
5.74362
5.74362
5.74361
5.74361
5.74361
5.74361
5.74361
5.74361
5.74361
5.74361
5.74361
5.74362
5.74362
5.74362
5.74362
5.74362
5.74362
5.74362
5.74362
5.74362
5.74362
5.74362
5.74362
5.74362
5.74362
5.74361
5.74361
5.74361
5.74361
5.74361
5.74361
5.74361
5.74361
5.74361
5.74361
5.74361
5.74361
5.74361
5.74361
5.74361
5.74361
5.74361
5.74361
5.74361
5.74362
5.74362
5.74362
5.74363
5.74363
5.74363
5.74363
5.74363
5.74363
5.74363
5.74362
5.74362
5.74362
5.74362
5.74361
5.74366
4.81399
4.81407
4.81418
4.81425
4.81428
4.8143
4.81431
4.81432
4.81433
4.81433
4.81434
4.81434
4.81435
4.81435
4.81435
4.81435
4.81435
4.81435
4.81435
4.81435
4.81435
4.81435
4.81434
4.81434
4.81434
4.81433
4.81433
4.81433
4.81432
4.81432
4.81432
4.81432
4.81431
4.81431
4.81431
4.81431
4.81431
4.81431
4.8143
4.8143
4.8143
4.8143
4.8143
4.8143
4.8143
4.81431
4.81431
4.81431
4.81432
4.81432
4.81432
4.81432
4.81432
4.81432
4.81432
4.81432
4.81432
4.81432
4.81432
4.81432
4.81431
4.81431
4.81431
4.81431
4.81431
4.81431
4.81431
4.81431
4.81431
4.81431
4.81431
4.81431
4.81431
4.81432
4.81432
4.81432
4.81432
4.81432
4.81432
4.81432
4.81432
4.81432
4.81432
4.81432
4.81432
4.81432
4.81432
4.81432
4.81432
4.81432
4.81432
4.81432
4.81432
4.81432
4.81432
4.81432
4.81432
4.81432
4.81432
4.81432
4.81432
4.81432
4.81432
4.81432
4.81432
4.81433
4.81433
4.81433
4.81433
4.81433
4.81433
4.81433
4.81433
4.81433
4.81433
4.81433
4.81433
4.81432
4.81432
4.81436
4.10466
4.10472
4.1048
4.10486
4.10489
4.10491
4.10492
4.10493
4.10494
4.10494
4.10495
4.10495
4.10496
4.10496
4.10496
4.10496
4.10496
4.10496
4.10496
4.10496
4.10496
4.10496
4.10495
4.10495
4.10495
4.10495
4.10494
4.10494
4.10494
4.10493
4.10493
4.10493
4.10493
4.10492
4.10492
4.10492
4.10492
4.10491
4.10491
4.10491
4.10491
4.10491
4.10491
4.10491
4.10491
4.10491
4.10491
4.10491
4.10491
4.10492
4.10492
4.10492
4.10492
4.10492
4.10492
4.10492
4.10492
4.10492
4.10491
4.10491
4.10491
4.10491
4.10491
4.1049
4.1049
4.1049
4.1049
4.1049
4.1049
4.10491
4.10491
4.10491
4.10491
4.10491
4.10491
4.10491
4.10491
4.10492
4.10492
4.10492
4.10492
4.10492
4.10492
4.10492
4.10492
4.10492
4.10492
4.10492
4.10492
4.10492
4.10492
4.10492
4.10492
4.10492
4.10492
4.10492
4.10492
4.10492
4.10492
4.10492
4.10492
4.10492
4.10492
4.10492
4.10492
4.10493
4.10493
4.10493
4.10493
4.10493
4.10494
4.10494
4.10493
4.10493
4.10493
4.10493
4.10493
4.10493
4.10492
4.10496
3.54934
3.54937
3.54944
3.54948
3.54951
3.54953
3.54954
3.54955
3.54955
3.54955
3.54956
3.54956
3.54956
3.54957
3.54957
3.54957
3.54957
3.54957
3.54957
3.54957
3.54957
3.54957
3.54956
3.54956
3.54956
3.54956
3.54955
3.54955
3.54955
3.54954
3.54954
3.54954
3.54954
3.54953
3.54953
3.54953
3.54952
3.54952
3.54952
3.54952
3.54952
3.54951
3.54951
3.54951
3.54951
3.54951
3.54951
3.54951
3.54952
3.54952
3.54952
3.54952
3.54952
3.54952
3.54952
3.54952
3.54952
3.54951
3.54951
3.54951
3.54951
3.54951
3.5495
3.5495
3.5495
3.5495
3.5495
3.5495
3.5495
3.5495
3.54951
3.54951
3.54951
3.54951
3.54951
3.54951
3.54951
3.54952
3.54952
3.54952
3.54952
3.54952
3.54952
3.54952
3.54952
3.54952
3.54952
3.54952
3.54952
3.54952
3.54952
3.54952
3.54952
3.54952
3.54952
3.54952
3.54952
3.54952
3.54952
3.54952
3.54952
3.54952
3.54953
3.54953
3.54953
3.54953
3.54953
3.54953
3.54954
3.54954
3.54954
3.54954
3.54954
3.54953
3.54953
3.54953
3.54953
3.54953
3.54952
3.54955
3.10583
3.10586
3.10591
3.10594
3.10596
3.10598
3.10599
3.10599
3.10599
3.106
3.106
3.106
3.106
3.106
3.10601
3.10601
3.10601
3.10601
3.10601
3.10601
3.106
3.106
3.106
3.106
3.106
3.10599
3.10599
3.10599
3.10599
3.10598
3.10598
3.10598
3.10597
3.10597
3.10597
3.10596
3.10596
3.10596
3.10596
3.10595
3.10595
3.10595
3.10595
3.10595
3.10595
3.10595
3.10595
3.10595
3.10595
3.10595
3.10595
3.10595
3.10595
3.10595
3.10595
3.10595
3.10595
3.10594
3.10594
3.10594
3.10594
3.10594
3.10593
3.10593
3.10593
3.10593
3.10593
3.10593
3.10593
3.10593
3.10594
3.10594
3.10594
3.10594
3.10594
3.10594
3.10594
3.10595
3.10595
3.10595
3.10595
3.10595
3.10595
3.10595
3.10595
3.10595
3.10595
3.10595
3.10595
3.10595
3.10595
3.10595
3.10595
3.10595
3.10595
3.10595
3.10595
3.10596
3.10596
3.10596
3.10596
3.10596
3.10596
3.10596
3.10596
3.10596
3.10596
3.10596
3.10597
3.10597
3.10597
3.10597
3.10597
3.10597
3.10596
3.10596
3.10596
3.10596
3.10596
3.10597
2.7456
2.74563
2.74567
2.7457
2.74571
2.74572
2.74573
2.74573
2.74573
2.74573
2.74573
2.74574
2.74574
2.74574
2.74574
2.74574
2.74574
2.74574
2.74574
2.74574
2.74574
2.74573
2.74573
2.74573
2.74573
2.74573
2.74572
2.74572
2.74572
2.74572
2.74571
2.74571
2.74571
2.7457
2.7457
2.7457
2.7457
2.74569
2.74569
2.74569
2.74568
2.74568
2.74568
2.74568
2.74568
2.74568
2.74568
2.74568
2.74568
2.74568
2.74568
2.74568
2.74568
2.74568
2.74568
2.74568
2.74567
2.74567
2.74567
2.74567
2.74567
2.74566
2.74566
2.74566
2.74566
2.74566
2.74566
2.74566
2.74566
2.74566
2.74566
2.74567
2.74567
2.74567
2.74567
2.74567
2.74567
2.74567
2.74568
2.74568
2.74568
2.74568
2.74568
2.74568
2.74568
2.74568
2.74568
2.74568
2.74568
2.74568
2.74568
2.74568
2.74568
2.74568
2.74569
2.74569
2.74569
2.74569
2.74569
2.74569
2.74569
2.74569
2.74569
2.74569
2.74569
2.74569
2.74569
2.74569
2.74569
2.74569
2.7457
2.74569
2.74569
2.74569
2.74569
2.74569
2.74569
2.74569
2.74569
2.74569
2.44868
2.44871
2.44874
2.44876
2.44877
2.44878
2.44878
2.44878
2.44878
2.44878
2.44878
2.44878
2.44878
2.44878
2.44878
2.44878
2.44878
2.44878
2.44877
2.44877
2.44877
2.44877
2.44877
2.44877
2.44877
2.44876
2.44876
2.44876
2.44876
2.44875
2.44875
2.44875
2.44875
2.44874
2.44874
2.44874
2.44874
2.44873
2.44873
2.44873
2.44873
2.44872
2.44872
2.44872
2.44872
2.44872
2.44872
2.44872
2.44872
2.44872
2.44872
2.44872
2.44872
2.44872
2.44871
2.44871
2.44871
2.44871
2.44871
2.4487
2.4487
2.4487
2.4487
2.4487
2.4487
2.4487
2.4487
2.4487
2.4487
2.4487
2.4487
2.4487
2.4487
2.44871
2.44871
2.44871
2.44871
2.44871
2.44871
2.44872
2.44872
2.44872
2.44872
2.44872
2.44872
2.44872
2.44872
2.44872
2.44872
2.44872
2.44872
2.44872
2.44872
2.44872
2.44872
2.44872
2.44873
2.44873
2.44873
2.44873
2.44873
2.44873
2.44873
2.44873
2.44873
2.44873
2.44873
2.44873
2.44873
2.44873
2.44873
2.44873
2.44873
2.44873
2.44873
2.44873
2.44872
2.44872
2.44872
2.44872
2.2007
2.20073
2.20075
2.20076
2.20077
2.20078
2.20078
2.20078
2.20077
2.20077
2.20077
2.20077
2.20077
2.20077
2.20077
2.20076
2.20076
2.20076
2.20076
2.20076
2.20076
2.20076
2.20076
2.20075
2.20075
2.20075
2.20075
2.20075
2.20074
2.20074
2.20074
2.20074
2.20073
2.20073
2.20073
2.20073
2.20072
2.20072
2.20072
2.20072
2.20071
2.20071
2.20071
2.20071
2.20071
2.2007
2.2007
2.2007
2.2007
2.2007
2.2007
2.2007
2.2007
2.2007
2.2007
2.2007
2.2007
2.20069
2.20069
2.20069
2.20069
2.20069
2.20069
2.20069
2.20069
2.20069
2.20069
2.20069
2.20069
2.20069
2.20069
2.20069
2.20069
2.2007
2.2007
2.2007
2.2007
2.2007
2.2007
2.2007
2.20071
2.20071
2.20071
2.20071
2.20071
2.20071
2.20071
2.20071
2.20071
2.20071
2.20071
2.20071
2.20071
2.20071
2.20071
2.20071
2.20072
2.20072
2.20072
2.20072
2.20072
2.20072
2.20072
2.20071
2.20071
2.20071
2.20072
2.20072
2.20072
2.20072
2.20072
2.20072
2.20071
2.20071
2.20071
2.20071
2.20071
2.20071
2.20071
2.2007
1.99114
1.99117
1.99119
1.9912
1.9912
1.9912
1.9912
1.9912
1.9912
1.99119
1.99119
1.99119
1.99119
1.99118
1.99118
1.99118
1.99118
1.99118
1.99117
1.99117
1.99117
1.99117
1.99117
1.99117
1.99117
1.99116
1.99116
1.99116
1.99116
1.99116
1.99115
1.99115
1.99115
1.99115
1.99114
1.99114
1.99114
1.99114
1.99114
1.99113
1.99113
1.99113
1.99113
1.99112
1.99112
1.99112
1.99112
1.99112
1.99112
1.99112
1.99112
1.99112
1.99112
1.99112
1.99111
1.99111
1.99111
1.99111
1.99111
1.99111
1.99111
1.99111
1.99111
1.99111
1.99111
1.99111
1.99111
1.99111
1.99111
1.99111
1.99111
1.99111
1.99111
1.99111
1.99112
1.99112
1.99112
1.99112
1.99112
1.99112
1.99112
1.99113
1.99113
1.99113
1.99113
1.99113
1.99113
1.99113
1.99113
1.99113
1.99113
1.99113
1.99113
1.99113
1.99113
1.99113
1.99113
1.99113
1.99113
1.99113
1.99113
1.99113
1.99113
1.99113
1.99113
1.99113
1.99113
1.99113
1.99113
1.99113
1.99113
1.99113
1.99113
1.99113
1.99113
1.99112
1.99112
1.99112
1.99112
1.99111
1.81216
1.81219
1.8122
1.81221
1.81221
1.81221
1.81221
1.81221
1.8122
1.8122
1.81219
1.81219
1.81219
1.81218
1.81218
1.81218
1.81218
1.81217
1.81217
1.81217
1.81217
1.81217
1.81217
1.81216
1.81216
1.81216
1.81216
1.81216
1.81216
1.81215
1.81215
1.81215
1.81215
1.81215
1.81214
1.81214
1.81214
1.81214
1.81213
1.81213
1.81213
1.81213
1.81213
1.81212
1.81212
1.81212
1.81212
1.81212
1.81212
1.81212
1.81212
1.81212
1.81212
1.81211
1.81211
1.81211
1.81211
1.81211
1.81211
1.81211
1.81211
1.81211
1.81211
1.81211
1.81211
1.81211
1.81211
1.81211
1.81211
1.81211
1.81211
1.81212
1.81212
1.81212
1.81212
1.81212
1.81212
1.81212
1.81213
1.81213
1.81213
1.81213
1.81213
1.81213
1.81213
1.81213
1.81213
1.81214
1.81214
1.81214
1.81214
1.81214
1.81214
1.81214
1.81214
1.81214
1.81214
1.81214
1.81214
1.81214
1.81214
1.81213
1.81213
1.81213
1.81213
1.81213
1.81213
1.81213
1.81213
1.81213
1.81213
1.81213
1.81213
1.81212
1.81212
1.81212
1.81212
1.81212
1.81212
1.8121
1.65782
1.65785
1.65786
1.65787
1.65787
1.65786
1.65786
1.65786
1.65785
1.65785
1.65784
1.65784
1.65783
1.65783
1.65783
1.65782
1.65782
1.65782
1.65781
1.65781
1.65781
1.65781
1.65781
1.65781
1.6578
1.6578
1.6578
1.6578
1.6578
1.6578
1.6578
1.65779
1.65779
1.65779
1.65779
1.65779
1.65778
1.65778
1.65778
1.65778
1.65778
1.65777
1.65777
1.65777
1.65777
1.65777
1.65776
1.65776
1.65776
1.65776
1.65776
1.65776
1.65776
1.65776
1.65776
1.65776
1.65776
1.65776
1.65776
1.65776
1.65776
1.65776
1.65776
1.65776
1.65776
1.65776
1.65776
1.65776
1.65776
1.65777
1.65777
1.65777
1.65777
1.65777
1.65777
1.65777
1.65778
1.65778
1.65778
1.65778
1.65778
1.65778
1.65778
1.65778
1.65779
1.65779
1.65779
1.65779
1.65779
1.65779
1.65779
1.65779
1.65779
1.65779
1.65779
1.65779
1.65779
1.65779
1.65779
1.65779
1.65778
1.65778
1.65778
1.65778
1.65778
1.65778
1.65778
1.65778
1.65777
1.65777
1.65777
1.65777
1.65777
1.65777
1.65777
1.65776
1.65776
1.65776
1.65776
1.65774
1.52356
1.52359
1.5236
1.5236
1.5236
1.5236
1.5236
1.52359
1.52358
1.52358
1.52357
1.52357
1.52356
1.52356
1.52356
1.52355
1.52355
1.52355
1.52354
1.52354
1.52354
1.52354
1.52354
1.52353
1.52353
1.52353
1.52353
1.52353
1.52353
1.52353
1.52352
1.52352
1.52352
1.52352
1.52352
1.52352
1.52351
1.52351
1.52351
1.52351
1.52351
1.5235
1.5235
1.5235
1.5235
1.5235
1.5235
1.52349
1.52349
1.52349
1.52349
1.52349
1.52349
1.52349
1.52349
1.52349
1.52349
1.52349
1.52349
1.52349
1.52349
1.52349
1.5235
1.5235
1.5235
1.5235
1.5235
1.5235
1.5235
1.52351
1.52351
1.52351
1.52351
1.52351
1.52351
1.52351
1.52352
1.52352
1.52352
1.52352
1.52352
1.52352
1.52352
1.52352
1.52353
1.52353
1.52353
1.52353
1.52353
1.52353
1.52353
1.52353
1.52353
1.52353
1.52353
1.52353
1.52353
1.52352
1.52352
1.52352
1.52352
1.52352
1.52352
1.52351
1.52351
1.52351
1.52351
1.52351
1.52351
1.5235
1.5235
1.5235
1.5235
1.5235
1.5235
1.5235
1.52349
1.52349
1.52349
1.52347
1.40584
1.40587
1.40588
1.40588
1.40588
1.40587
1.40587
1.40586
1.40586
1.40585
1.40585
1.40584
1.40584
1.40583
1.40583
1.40582
1.40582
1.40582
1.40581
1.40581
1.40581
1.40581
1.4058
1.4058
1.4058
1.4058
1.4058
1.4058
1.4058
1.40579
1.40579
1.40579
1.40579
1.40579
1.40579
1.40579
1.40578
1.40578
1.40578
1.40578
1.40578
1.40577
1.40577
1.40577
1.40577
1.40577
1.40577
1.40577
1.40577
1.40576
1.40576
1.40576
1.40576
1.40576
1.40576
1.40576
1.40577
1.40577
1.40577
1.40577
1.40577
1.40577
1.40578
1.40578
1.40578
1.40578
1.40578
1.40578
1.40579
1.40579
1.40579
1.40579
1.40579
1.40579
1.4058
1.4058
1.4058
1.4058
1.4058
1.4058
1.4058
1.40581
1.40581
1.40581
1.40581
1.40581
1.40581
1.40581
1.40581
1.40581
1.40581
1.40581
1.40581
1.40581
1.40581
1.40581
1.40581
1.4058
1.4058
1.4058
1.4058
1.40579
1.40579
1.40579
1.40579
1.40578
1.40578
1.40578
1.40578
1.40578
1.40577
1.40577
1.40577
1.40577
1.40577
1.40577
1.40576
1.40576
1.40577
1.40574
1.30187
1.3019
1.3019
1.3019
1.3019
1.3019
1.30189
1.30188
1.30188
1.30187
1.30187
1.30186
1.30186
1.30185
1.30185
1.30184
1.30184
1.30183
1.30183
1.30183
1.30183
1.30182
1.30182
1.30182
1.30182
1.30182
1.30182
1.30182
1.30181
1.30181
1.30181
1.30181
1.30181
1.30181
1.30181
1.3018
1.3018
1.3018
1.3018
1.3018
1.3018
1.3018
1.30179
1.30179
1.30179
1.30179
1.30179
1.30179
1.30179
1.30179
1.30178
1.30178
1.30179
1.30179
1.30179
1.30179
1.30179
1.3018
1.3018
1.3018
1.3018
1.30181
1.30181
1.30181
1.30181
1.30181
1.30182
1.30182
1.30182
1.30182
1.30182
1.30183
1.30183
1.30183
1.30183
1.30183
1.30183
1.30183
1.30184
1.30184
1.30184
1.30184
1.30184
1.30184
1.30184
1.30184
1.30184
1.30184
1.30185
1.30185
1.30185
1.30184
1.30184
1.30184
1.30184
1.30184
1.30183
1.30183
1.30183
1.30182
1.30182
1.30182
1.30181
1.30181
1.30181
1.30181
1.3018
1.3018
1.3018
1.3018
1.3018
1.30179
1.30179
1.30179
1.30179
1.30179
1.30179
1.30178
1.30179
1.30176
1.20942
1.20945
1.20946
1.20946
1.20945
1.20945
1.20944
1.20943
1.20943
1.20942
1.20942
1.20941
1.20941
1.2094
1.2094
1.20939
1.20939
1.20938
1.20938
1.20938
1.20937
1.20937
1.20937
1.20937
1.20937
1.20937
1.20936
1.20936
1.20936
1.20936
1.20936
1.20936
1.20936
1.20936
1.20935
1.20935
1.20935
1.20935
1.20935
1.20935
1.20935
1.20934
1.20934
1.20934
1.20934
1.20934
1.20934
1.20934
1.20934
1.20934
1.20934
1.20934
1.20934
1.20934
1.20935
1.20935
1.20935
1.20936
1.20936
1.20936
1.20937
1.20937
1.20937
1.20937
1.20938
1.20938
1.20938
1.20938
1.20939
1.20939
1.20939
1.20939
1.20939
1.2094
1.2094
1.2094
1.2094
1.2094
1.2094
1.2094
1.20941
1.20941
1.20941
1.20941
1.20941
1.20941
1.20941
1.20941
1.20941
1.20941
1.20941
1.20941
1.20941
1.2094
1.2094
1.2094
1.20939
1.20939
1.20939
1.20938
1.20938
1.20937
1.20937
1.20937
1.20936
1.20936
1.20936
1.20935
1.20935
1.20935
1.20935
1.20935
1.20934
1.20934
1.20934
1.20934
1.20934
1.20933
1.20934
1.20931
1.12672
1.12675
1.12675
1.12675
1.12675
1.12674
1.12674
1.12673
1.12672
1.12672
1.12671
1.12671
1.1267
1.12669
1.12669
1.12668
1.12668
1.12668
1.12667
1.12667
1.12667
1.12666
1.12666
1.12666
1.12666
1.12666
1.12666
1.12666
1.12666
1.12665
1.12665
1.12665
1.12665
1.12665
1.12665
1.12665
1.12665
1.12665
1.12664
1.12664
1.12664
1.12664
1.12664
1.12664
1.12664
1.12664
1.12663
1.12663
1.12663
1.12663
1.12663
1.12664
1.12664
1.12665
1.12665
1.12666
1.12666
1.12666
1.12667
1.12667
1.12668
1.12668
1.12668
1.12669
1.12669
1.12669
1.1267
1.1267
1.1267
1.1267
1.1267
1.12671
1.12671
1.12671
1.12671
1.12671
1.12671
1.12672
1.12672
1.12672
1.12672
1.12672
1.12672
1.12672
1.12672
1.12672
1.12672
1.12673
1.12673
1.12673
1.12672
1.12672
1.12672
1.12671
1.12671
1.1267
1.1267
1.12669
1.12669
1.12668
1.12668
1.12667
1.12667
1.12667
1.12666
1.12666
1.12666
1.12665
1.12665
1.12665
1.12665
1.12664
1.12664
1.12664
1.12664
1.12664
1.12663
1.12663
1.12663
1.12661
1.05232
1.05234
1.05235
1.05235
1.05234
1.05234
1.05233
1.05232
1.05232
1.05231
1.0523
1.0523
1.05229
1.05229
1.05228
1.05228
1.05227
1.05227
1.05227
1.05226
1.05226
1.05226
1.05226
1.05225
1.05225
1.05225
1.05225
1.05225
1.05225
1.05225
1.05225
1.05225
1.05224
1.05224
1.05224
1.05224
1.05224
1.05224
1.05224
1.05224
1.05224
1.05224
1.05223
1.05223
1.05223
1.05223
1.05223
1.05223
1.05223
1.05223
1.05223
1.05224
1.05224
1.05225
1.05226
1.05226
1.05227
1.05228
1.05228
1.05229
1.05229
1.05229
1.0523
1.0523
1.0523
1.05231
1.05231
1.05231
1.05232
1.05232
1.05232
1.05232
1.05232
1.05233
1.05233
1.05233
1.05233
1.05233
1.05233
1.05233
1.05234
1.05234
1.05234
1.05234
1.05234
1.05234
1.05234
1.05234
1.05234
1.05234
1.05234
1.05233
1.05233
1.05232
1.05232
1.05231
1.0523
1.0523
1.05229
1.05228
1.05228
1.05227
1.05227
1.05227
1.05226
1.05226
1.05225
1.05225
1.05225
1.05225
1.05224
1.05224
1.05224
1.05224
1.05224
1.05223
1.05223
1.05223
1.05223
1.05221
0.985027
0.985054
0.985058
0.985055
0.985051
0.985045
0.985038
0.985031
0.985024
0.985018
0.985012
0.985007
0.985002
0.984997
0.984992
0.984987
0.984982
0.984978
0.984974
0.984971
0.984969
0.984967
0.984965
0.984963
0.984961
0.98496
0.984959
0.984958
0.984957
0.984956
0.984955
0.984954
0.984954
0.984953
0.984952
0.984951
0.98495
0.98495
0.984949
0.984948
0.984947
0.984946
0.984945
0.984944
0.984943
0.984942
0.984942
0.984941
0.984942
0.984944
0.98495
0.984958
0.984967
0.984977
0.984985
0.984993
0.985
0.985007
0.985012
0.985018
0.985022
0.985027
0.985031
0.985035
0.985038
0.985041
0.985044
0.985047
0.985049
0.985052
0.985054
0.985056
0.985058
0.98506
0.985062
0.985063
0.985065
0.985066
0.985068
0.985069
0.98507
0.985071
0.985072
0.985073
0.985074
0.985074
0.985075
0.985076
0.985075
0.985072
0.985067
0.985061
0.985053
0.985045
0.985037
0.985029
0.985022
0.985015
0.985008
0.985002
0.984996
0.98499
0.984985
0.98498
0.984976
0.984972
0.984969
0.984966
0.984963
0.984961
0.984958
0.984956
0.984953
0.984951
0.984949
0.984946
0.984945
0.984942
0.984945
0.984921
0.923878
0.923903
0.923907
0.923904
0.923899
0.923893
0.923886
0.923879
0.923873
0.923866
0.923861
0.923856
0.923851
0.923846
0.923841
0.923836
0.923831
0.923827
0.923824
0.923821
0.923818
0.923816
0.923814
0.923812
0.923811
0.92381
0.923808
0.923807
0.923807
0.923806
0.923805
0.923804
0.923804
0.923803
0.923802
0.923802
0.923801
0.9238
0.9238
0.923799
0.923798
0.923797
0.923796
0.923796
0.923795
0.923794
0.923794
0.923794
0.923795
0.9238
0.92381
0.923823
0.923836
0.923848
0.923858
0.923867
0.923874
0.923881
0.923888
0.923893
0.923898
0.923903
0.923907
0.923911
0.923914
0.923918
0.923921
0.923924
0.923926
0.923929
0.923931
0.923933
0.923935
0.923937
0.923939
0.923941
0.923942
0.923944
0.923945
0.923946
0.923947
0.923948
0.923949
0.92395
0.923951
0.923952
0.923953
0.923953
0.92395
0.923945
0.923938
0.923928
0.923918
0.923908
0.923898
0.923889
0.92388
0.923873
0.923865
0.923858
0.923852
0.923846
0.923841
0.923836
0.923831
0.923827
0.923824
0.923821
0.923819
0.923816
0.923813
0.923811
0.923808
0.923806
0.923803
0.923801
0.923799
0.923796
0.923798
0.923776
0.868059
0.868082
0.868085
0.868082
0.868077
0.868071
0.868064
0.868058
0.868051
0.868045
0.86804
0.868035
0.86803
0.868025
0.86802
0.868015
0.868011
0.868007
0.868004
0.868001
0.867998
0.867996
0.867994
0.867992
0.867991
0.86799
0.867989
0.867988
0.867987
0.867986
0.867986
0.867985
0.867984
0.867984
0.867983
0.867983
0.867982
0.867982
0.867981
0.867981
0.86798
0.867979
0.867979
0.867978
0.867978
0.867977
0.867977
0.867978
0.867981
0.867991
0.868007
0.868025
0.868041
0.868054
0.868065
0.868075
0.868083
0.86809
0.868097
0.868102
0.868108
0.868112
0.868117
0.868121
0.868124
0.868128
0.868131
0.868134
0.868136
0.868139
0.868141
0.868143
0.868145
0.868147
0.868149
0.868151
0.868152
0.868154
0.868155
0.868156
0.868157
0.868159
0.868159
0.86816
0.868161
0.868162
0.868163
0.868162
0.868157
0.868149
0.868138
0.868125
0.868112
0.8681
0.868088
0.868078
0.868069
0.86806
0.868052
0.868045
0.868038
0.868032
0.868027
0.868022
0.868017
0.868013
0.86801
0.868007
0.868005
0.868002
0.867999
0.867997
0.867994
0.867991
0.867989
0.867986
0.867984
0.867981
0.867983
0.867962
0.816893
0.816915
0.816917
0.816914
0.816909
0.816902
0.816896
0.816889
0.816883
0.816877
0.816872
0.816867
0.816863
0.816858
0.816853
0.816849
0.816844
0.816841
0.816837
0.816834
0.816832
0.81683
0.816828
0.816827
0.816825
0.816824
0.816823
0.816822
0.816821
0.816821
0.81682
0.81682
0.816819
0.816819
0.816818
0.816818
0.816818
0.816817
0.816817
0.816816
0.816816
0.816815
0.816815
0.816815
0.816814
0.816814
0.816813
0.816818
0.816823
0.816841
0.816865
0.816888
0.816906
0.81692
0.816931
0.816941
0.816949
0.816956
0.816963
0.816968
0.816974
0.816978
0.816983
0.816986
0.81699
0.816993
0.816997
0.816999
0.817002
0.817005
0.817007
0.817009
0.817011
0.817013
0.817015
0.817017
0.817018
0.81702
0.817021
0.817022
0.817023
0.817025
0.817026
0.817026
0.817027
0.817028
0.81703
0.817026
0.817017
0.817004
0.816989
0.816972
0.816957
0.816943
0.81693
0.816919
0.816909
0.8169
0.816892
0.816885
0.816878
0.816872
0.816866
0.816861
0.816856
0.816853
0.81685
0.816848
0.816845
0.816842
0.816839
0.816836
0.816833
0.816831
0.816828
0.816825
0.816823
0.81682
0.816821
0.816802
0.769811
0.769831
0.769833
0.769829
0.769824
0.769818
0.769811
0.769805
0.769799
0.769793
0.769788
0.769784
0.769779
0.769775
0.76977
0.769766
0.769762
0.769758
0.769755
0.769753
0.76975
0.769748
0.769747
0.769745
0.769744
0.769743
0.769742
0.769741
0.76974
0.76974
0.769739
0.769739
0.769739
0.769738
0.769738
0.769738
0.769738
0.769737
0.769737
0.769737
0.769736
0.769736
0.769736
0.769736
0.769735
0.769736
0.769735
0.769744
0.769754
0.769785
0.769818
0.769844
0.769862
0.769875
0.769886
0.769895
0.769903
0.76991
0.769916
0.769921
0.769926
0.769931
0.769935
0.769939
0.769942
0.769946
0.769949
0.769951
0.769954
0.769957
0.769959
0.769961
0.769963
0.769965
0.769967
0.769969
0.76997
0.769972
0.769973
0.769974
0.769976
0.769977
0.769978
0.769979
0.76998
0.76998
0.769983
0.769973
0.769959
0.76994
0.76992
0.7699
0.769882
0.769867
0.769854
0.769842
0.769832
0.769823
0.769815
0.769808
0.769801
0.769795
0.769789
0.769784
0.76978
0.769777
0.769776
0.769773
0.769771
0.769767
0.769764
0.769761
0.769758
0.769754
0.769752
0.769749
0.769746
0.769743
0.769745
0.769726
0.726332
0.72635
0.726351
0.726347
0.726342
0.726335
0.726329
0.726323
0.726317
0.726312
0.726307
0.726303
0.726299
0.726294
0.72629
0.726286
0.726282
0.726279
0.726276
0.726274