/*--------------------------------*- C++ -*----------------------------------*\
  =========                 |
  \\      /  F ield         | OpenFOAM: The Open Source CFD Toolbox
   \\    /   O peration     | Website:  https://openfoam.org
    \\  /    A nd           | Version:  7
     \\/     M anipulation  |
\*---------------------------------------------------------------------------*/
FoamFile
{
    version     2.0;
    format      ascii;
    class       surfaceScalarField;
    location    "16000";
    object      phi;
}
// * * * * * * * * * * * * * * * * * * * * * * * * * * * * * * * * * * * * * //

dimensions      [0 3 -1 0 0 0 0];

internalField   nonuniform List<scalar> 
47680
(
2.01553e-06
-4.18051e-14
2.01554e-06
-6.49684e-12
2.01555e-06
-7.59021e-12
2.01555e-06
-4.57291e-12
2.01555e-06
-4.97577e-13
2.01555e-06
3.01312e-12
2.01554e-06
5.63023e-12
2.01554e-06
7.3348e-12
2.01553e-06
8.27092e-12
2.01552e-06
8.50939e-12
2.01551e-06
8.11943e-12
2.0155e-06
7.45062e-12
2.0155e-06
6.80686e-12
2.01549e-06
6.01878e-12
2.01549e-06
5.25508e-12
2.01548e-06
4.53084e-12
2.01548e-06
3.6049e-12
2.01548e-06
2.85751e-12
2.01547e-06
2.09803e-12
2.01547e-06
1.23976e-12
2.01547e-06
5.27755e-13
2.01547e-06
-1.01844e-13
2.01547e-06
-7.23191e-13
2.01547e-06
-1.39931e-12
2.01548e-06
-1.95805e-12
2.01548e-06
-2.29159e-12
2.01548e-06
-2.71541e-12
2.01548e-06
-3.18687e-12
2.01549e-06
-3.42972e-12
2.01549e-06
-3.64701e-12
2.0155e-06
-4.01712e-12
2.0155e-06
-4.27927e-12
2.0155e-06
-4.38181e-12
2.01551e-06
-4.49294e-12
2.01551e-06
-4.68909e-12
2.01552e-06
-4.80578e-12
2.01552e-06
-4.78749e-12
2.01553e-06
-4.86432e-12
2.01553e-06
-4.85781e-12
2.01554e-06
-4.90122e-12
2.01554e-06
-4.49249e-12
2.01555e-06
-4.0106e-12
2.01555e-06
-3.16383e-12
2.01555e-06
-2.287e-12
2.01555e-06
-1.22671e-12
2.01555e-06
4.65431e-13
2.01555e-06
1.00594e-12
2.01555e-06
1.07244e-12
2.01555e-06
7.34154e-13
2.01555e-06
1.09241e-13
2.01555e-06
-2.94503e-13
2.01555e-06
-7.11018e-13
2.01555e-06
-1.04772e-12
2.01555e-06
-1.31332e-12
2.01555e-06
-1.50225e-12
2.01556e-06
-1.65769e-12
2.01556e-06
-1.69107e-12
2.01556e-06
-1.59006e-12
2.01556e-06
-1.36409e-12
2.01556e-06
-1.11801e-12
2.01556e-06
-8.17209e-13
2.01556e-06
-4.08364e-13
2.01556e-06
1.49133e-14
2.01556e-06
4.31196e-13
2.01556e-06
7.99601e-13
2.01556e-06
1.096e-12
2.01556e-06
1.437e-12
2.01556e-06
1.75701e-12
2.01555e-06
1.90957e-12
2.01555e-06
2.06447e-12
2.01555e-06
2.12101e-12
2.01555e-06
2.19962e-12
2.01555e-06
2.27464e-12
2.01554e-06
2.22351e-12
2.01554e-06
2.28081e-12
2.01554e-06
2.29879e-12
2.01554e-06
2.14553e-12
2.01554e-06
1.93882e-12
2.01553e-06
1.81155e-12
2.01553e-06
1.6787e-12
2.01553e-06
1.50304e-12
2.01553e-06
1.39893e-12
2.01553e-06
1.32781e-12
2.01553e-06
1.15202e-12
2.01553e-06
9.28701e-13
2.01552e-06
7.11093e-13
2.01552e-06
2.64053e-13
2.01552e-06
-8.52343e-14
2.01552e-06
-1.66496e-13
2.01553e-06
-1.61995e-13
2.01553e-06
-2.75289e-14
2.01553e-06
-5.27749e-15
2.01553e-06
-4.31343e-14
2.01553e-06
-1.38812e-13
2.01553e-06
-3.06124e-13
2.01553e-06
-4.10514e-13
2.01553e-06
-5.72524e-13
2.01553e-06
-6.97567e-13
2.01553e-06
-8.02546e-13
2.01553e-06
-7.06192e-13
2.01553e-06
-6.9506e-13
2.01553e-06
-2.30757e-13
2.01553e-06
1.3268e-13
2.01553e-06
9.07808e-13
2.01553e-06
2.06939e-12
2.01552e-06
2.16211e-12
2.01552e-06
1.94016e-12
2.01552e-06
1.27897e-12
2.01552e-06
4.34661e-13
2.01552e-06
-3.53702e-13
2.01552e-06
-1.04379e-12
2.01552e-06
-1.53594e-12
2.01553e-06
-1.96544e-12
2.01553e-06
-2.24588e-12
2.01553e-06
-2.44398e-12
2.01553e-06
-2.36971e-12
2.01553e-06
-1.76078e-12
2.01554e-06
-2.02408e-12
2.01554e-06
-3.32005e-13
3.20109e-12
6.22757e-06
-5.03752e-12
6.22759e-06
-2.583e-11
6.22761e-06
-2.80583e-11
6.22762e-06
-1.57146e-11
6.22762e-06
1.8706e-13
6.22761e-06
1.37764e-11
6.22759e-06
2.37764e-11
6.22756e-06
3.02462e-11
6.22754e-06
3.37251e-11
6.22751e-06
3.43971e-11
6.22749e-06
3.27451e-11
6.22747e-06
3.00833e-11
6.22745e-06
2.73648e-11
6.22743e-06
2.421e-11
6.22741e-06
2.11055e-11
6.2274e-06
1.80691e-11
6.22739e-06
1.44371e-11
6.22738e-06
1.13395e-11
6.22737e-06
8.26273e-12
6.22737e-06
4.90547e-12
6.22737e-06
2.00914e-12
6.22737e-06
-5.70267e-13
6.22737e-06
-3.10449e-12
6.22737e-06
-5.73167e-12
6.22738e-06
-7.90844e-12
6.22739e-06
-9.34356e-12
6.2274e-06
-1.10135e-11
6.22741e-06
-1.28256e-11
6.22742e-06
-1.38991e-11
6.22743e-06
-1.48166e-11
6.22744e-06
-1.61629e-11
6.22745e-06
-1.71649e-11
6.22747e-06
-1.76263e-11
6.22748e-06
-1.80903e-11
6.22749e-06
-1.88118e-11
6.22751e-06
-1.92695e-11
6.22752e-06
-1.92711e-11
6.22754e-06
-1.95142e-11
6.22755e-06
-1.95764e-11
6.22757e-06
-1.96648e-11
6.22758e-06
-1.82271e-11
6.22759e-06
-1.63437e-11
6.2276e-06
-1.33579e-11
6.22761e-06
-1.01387e-11
6.22762e-06
-6.07811e-12
6.22762e-06
-3.18448e-14
6.22761e-06
2.51655e-12
6.22761e-06
3.06564e-12
6.22761e-06
2.05693e-12
6.22761e-06
3.60458e-15
6.22761e-06
-1.49589e-12
6.22761e-06
-2.99284e-12
6.22762e-06
-4.24898e-12
6.22762e-06
-5.21631e-12
6.22763e-06
-5.89568e-12
6.22763e-06
-6.40357e-12
6.22764e-06
-6.45291e-12
6.22764e-06
-5.98451e-12
6.22764e-06
-5.07033e-12
6.22765e-06
-4.03589e-12
6.22765e-06
-2.77843e-12
6.22765e-06
-1.14882e-12
6.22765e-06
5.42643e-13
6.22765e-06
2.18596e-12
6.22764e-06
3.652e-12
6.22764e-06
4.87017e-12
6.22764e-06
6.19818e-12
6.22763e-06
7.41279e-12
6.22762e-06
8.05938e-12
6.22762e-06
8.62603e-12
6.22761e-06
8.87494e-12
6.2276e-06
9.17204e-12
6.2276e-06
9.43342e-12
6.22759e-06
9.28743e-12
6.22758e-06
9.42281e-12
6.22758e-06
9.42528e-12
6.22757e-06
8.8551e-12
6.22756e-06
8.06464e-12
6.22756e-06
7.51672e-12
6.22755e-06
6.9998e-12
6.22755e-06
6.35123e-12
6.22754e-06
5.90786e-12
6.22754e-06
5.57805e-12
6.22753e-06
4.89295e-12
6.22753e-06
4.03325e-12
6.22753e-06
3.05771e-12
6.22753e-06
1.38194e-12
6.22753e-06
1.26233e-13
6.22753e-06
-2.42821e-13
6.22753e-06
-2.47418e-13
6.22753e-06
1.72242e-13
6.22753e-06
2.55494e-13
6.22753e-06
9.87759e-14
6.22753e-06
-2.70036e-13
6.22753e-06
-8.80826e-13
6.22753e-06
-1.35494e-12
6.22753e-06
-1.99365e-12
6.22753e-06
-2.56167e-12
6.22753e-06
-3.01025e-12
6.22754e-06
-2.8716e-12
6.22754e-06
-2.87264e-12
6.22754e-06
-1.44893e-12
6.22754e-06
-1.61918e-13
6.22754e-06
2.66235e-12
6.22753e-06
6.74941e-12
6.22753e-06
7.41419e-12
6.22752e-06
6.64742e-12
6.22752e-06
4.34835e-12
6.22752e-06
1.32549e-12
6.22752e-06
-1.57024e-12
6.22752e-06
-4.12478e-12
6.22753e-06
-6.02163e-12
6.22753e-06
-7.62908e-12
6.22754e-06
-8.74121e-12
6.22755e-06
-9.55478e-12
6.22755e-06
-9.32593e-12
6.22756e-06
-7.26693e-12
6.22757e-06
-8.03468e-12
6.22757e-06
-1.26803e-12
8.47598e-12
1.07242e-05
-2.05967e-11
1.07243e-05
-5.88383e-11
1.07243e-05
-5.89577e-11
1.07243e-05
-3.02215e-11
1.07243e-05
4.93745e-12
1.07243e-05
3.46352e-11
1.07242e-05
5.62505e-11
1.07242e-05
7.01251e-11
1.07242e-05
7.74027e-11
1.07241e-05
7.8344e-11
1.07241e-05
7.43932e-11
1.0724e-05
6.83716e-11
1.0724e-05
6.20095e-11
1.0724e-05
5.48499e-11
1.07239e-05
4.77366e-11
1.07239e-05
4.066e-11
1.07239e-05
3.25244e-11
1.07239e-05
2.53772e-11
1.07239e-05
1.836e-11
1.07239e-05
1.08832e-11
1.07239e-05
4.28505e-12
1.07239e-05
-1.65394e-12
1.07239e-05
-7.45711e-12
1.07239e-05
-1.32568e-11
1.07239e-05
-1.80675e-11
1.07239e-05
-2.14476e-11
1.07239e-05
-2.51933e-11
1.07239e-05
-2.91761e-11
1.07239e-05
-3.17484e-11
1.0724e-05
-3.38948e-11
1.0724e-05
-3.67257e-11
1.0724e-05
-3.88857e-11
1.0724e-05
-4.00008e-11
1.07241e-05
-4.1088e-11
1.07241e-05
-4.26182e-11
1.07241e-05
-4.36349e-11
1.07241e-05
-4.37297e-11
1.07242e-05
-4.42202e-11
1.07242e-05
-4.4464e-11
1.07242e-05
-4.45732e-11
1.07242e-05
-4.1575e-11
1.07242e-05
-3.74703e-11
1.07243e-05
-3.14116e-11
1.07243e-05
-2.4651e-11
1.07243e-05
-1.59042e-11
1.07243e-05
-3.33125e-12
1.07243e-05
2.87331e-12
1.07243e-05
4.6367e-12
1.07243e-05
2.98278e-12
1.07243e-05
-8.92648e-13
1.07243e-05
-3.98958e-12
1.07243e-05
-7.08313e-12
1.07243e-05
-9.73068e-12
1.07243e-05
-1.17358e-11
1.07243e-05
-1.31124e-11
1.07243e-05
-1.40519e-11
1.07243e-05
-1.39871e-11
1.07243e-05
-1.28022e-11
1.07243e-05
-1.06988e-11
1.07243e-05
-8.27232e-12
1.07244e-05
-5.33097e-12
1.07244e-05
-1.64284e-12
1.07244e-05
2.16799e-12
1.07243e-05
5.83832e-12
1.07243e-05
9.13474e-12
1.07243e-05
1.19303e-11
1.07243e-05
1.48671e-11
1.07243e-05
1.75019e-11
1.07243e-05
1.89872e-11
1.07243e-05
2.01913e-11
1.07243e-05
2.07755e-11
1.07243e-05
2.14158e-11
1.07243e-05
2.19521e-11
1.07242e-05
2.16877e-11
1.07242e-05
2.185e-11
1.07242e-05
2.17252e-11
1.07242e-05
2.04961e-11
1.07242e-05
1.87672e-11
1.07242e-05
1.7475e-11
1.07242e-05
1.63373e-11
1.07242e-05
1.49563e-11
1.07242e-05
1.39164e-11
1.07242e-05
1.30962e-11
1.07241e-05
1.15703e-11
1.07241e-05
9.66346e-12
1.07241e-05
7.2992e-12
1.07241e-05
3.69013e-12
1.07241e-05
1.11943e-12
1.07241e-05
2.53147e-13
1.07241e-05
1.8128e-13
1.07241e-05
9.43632e-13
1.07241e-05
1.09049e-12
1.07241e-05
7.23096e-13
1.07241e-05
-7.93766e-14
1.07241e-05
-1.37946e-12
1.07241e-05
-2.52342e-12
1.07241e-05
-3.9803e-12
1.07241e-05
-5.36007e-12
1.07241e-05
-6.46987e-12
1.07241e-05
-6.53335e-12
1.07241e-05
-6.71587e-12
1.07242e-05
-4.18439e-12
1.07242e-05
-1.63633e-12
1.07242e-05
4.22997e-12
1.07241e-05
1.25908e-11
1.07241e-05
1.4385e-11
1.07241e-05
1.29265e-11
1.07241e-05
8.31894e-12
1.07241e-05
2.13867e-12
1.07241e-05
-3.90064e-12
1.07241e-05
-9.29043e-12
1.07241e-05
-1.34012e-11
1.07242e-05
-1.68372e-11
1.07242e-05
-1.93146e-11
1.07242e-05
-2.11777e-11
1.07242e-05
-2.08022e-11
1.07242e-05
-1.67254e-11
1.07242e-05
-1.79985e-11
1.07242e-05
-2.93136e-12
1.15345e-11
1.55012e-05
-5.30697e-11
1.55012e-05
-1.06253e-10
1.55012e-05
-9.67432e-11
1.55013e-05
-4.3673e-11
1.55012e-05
1.74175e-11
1.55012e-05
6.82474e-11
1.55012e-05
1.04836e-10
1.55011e-05
1.28107e-10
1.5501e-05
1.39925e-10
1.5501e-05
1.40503e-10
1.55009e-05
1.3305e-10
1.55009e-05
1.22302e-10
1.55008e-05
1.10701e-10
1.55008e-05
9.78603e-11
1.55007e-05
8.4953e-11
1.55007e-05
7.20192e-11
1.55007e-05
5.75741e-11
1.55007e-05
4.46552e-11
1.55006e-05
3.20532e-11
1.55006e-05
1.88794e-11
1.55006e-05
7.0724e-12
1.55006e-05
-3.68833e-12
1.55006e-05
-1.41498e-11
1.55007e-05
-2.42485e-11
1.55007e-05
-3.2625e-11
1.55007e-05
-3.88303e-11
1.55007e-05
-4.5485e-11
1.55007e-05
-5.24274e-11
1.55008e-05
-5.7201e-11
1.55008e-05
-6.1127e-11
1.55008e-05
-6.58596e-11
1.55008e-05
-6.95126e-11
1.55009e-05
-7.15941e-11
1.55009e-05
-7.36582e-11
1.55009e-05
-7.62446e-11
1.5501e-05
-7.79703e-11
1.5501e-05
-7.82526e-11
1.5501e-05
-7.91078e-11
1.55011e-05
-7.96466e-11
1.55011e-05
-7.97367e-11
1.55011e-05
-7.46631e-11
1.55012e-05
-6.7688e-11
1.55012e-05
-5.79968e-11
1.55012e-05
-4.67626e-11
1.55012e-05
-3.19544e-11
1.55012e-05
-1.10841e-11
1.55012e-05
3.95428e-13
1.55012e-05
4.35187e-12
1.55013e-05
2.42922e-12
1.55013e-05
-3.25986e-12
1.55013e-05
-8.19971e-12
1.55013e-05
-1.32432e-11
1.55013e-05
-1.76114e-11
1.55013e-05
-2.08604e-11
1.55013e-05
-2.3019e-11
1.55013e-05
-2.4336e-11
1.55013e-05
-2.38856e-11
1.55013e-05
-2.15398e-11
1.55013e-05
-1.77051e-11
1.55013e-05
-1.32291e-11
1.55013e-05
-7.80972e-12
1.55013e-05
-1.20316e-12
1.55013e-05
5.55839e-12
1.55013e-05
1.20139e-11
1.55013e-05
1.78551e-11
1.55013e-05
2.2887e-11
1.55013e-05
2.80156e-11
1.55013e-05
3.25295e-11
1.55013e-05
3.51566e-11
1.55012e-05
3.71954e-11
1.55012e-05
3.82492e-11
1.55012e-05
3.93461e-11
1.55012e-05
4.02266e-11
1.55012e-05
3.98119e-11
1.55012e-05
3.98851e-11
1.55011e-05
3.94408e-11
1.55011e-05
3.73131e-11
1.55011e-05
3.4315e-11
1.55011e-05
3.19578e-11
1.55011e-05
2.99945e-11
1.55011e-05
2.7653e-11
1.5501e-05
2.57469e-11
1.5501e-05
2.41663e-11
1.5501e-05
2.14627e-11
1.5501e-05
1.80909e-11
1.5501e-05
1.36347e-11
1.5501e-05
7.49161e-12
1.5501e-05
3.39621e-12
1.5501e-05
1.84485e-12
1.5501e-05
1.58866e-12
1.5501e-05
2.66554e-12
1.5501e-05
2.81466e-12
1.5501e-05
2.12531e-12
1.5501e-05
7.48388e-13
1.5501e-05
-1.47003e-12
1.5501e-05
-3.6056e-12
1.5501e-05
-6.26042e-12
1.5501e-05
-8.85726e-12
1.5501e-05
-1.10381e-11
1.5501e-05
-1.17046e-11
1.5501e-05
-1.24343e-11
1.5501e-05
-8.93468e-12
1.5501e-05
-5.04773e-12
1.5501e-05
4.58154e-12
1.5501e-05
1.81735e-11
1.5501e-05
2.15214e-11
1.5501e-05
1.94113e-11
1.5501e-05
1.21353e-11
1.5501e-05
2.20876e-12
1.5501e-05
-7.66179e-12
1.5501e-05
-1.66126e-11
1.5501e-05
-2.35834e-11
1.5501e-05
-2.93808e-11
1.55011e-05
-3.37185e-11
1.55011e-05
-3.70706e-11
1.55011e-05
-3.66204e-11
1.55011e-05
-3.01533e-11
1.55011e-05
-3.17999e-11
1.55011e-05
-5.27236e-12
7.83552e-12
2.05014e-05
-1.07472e-10
2.05015e-05
-1.66358e-10
2.05015e-05
-1.35904e-10
2.05015e-05
-5.07996e-11
2.05015e-05
4.09764e-11
2.05015e-05
1.16215e-10
2.05014e-05
1.69814e-10
2.05013e-05
2.03616e-10
2.05012e-05
2.20099e-10
2.05012e-05
2.19266e-10
2.05011e-05
2.07191e-10
2.0501e-05
1.9087e-10
2.0501e-05
1.72527e-10
2.05009e-05
1.52117e-10
2.05008e-05
1.31682e-10
2.05008e-05
1.1114e-10
2.05008e-05
8.87233e-11
2.05008e-05
6.84468e-11
2.05007e-05
4.87352e-11
2.05007e-05
2.84448e-11
2.05007e-05
1.00531e-11
2.05007e-05
-6.94066e-12
2.05007e-05
-2.33756e-11
2.05008e-05
-3.86903e-11
2.05008e-05
-5.1417e-11
2.05008e-05
-6.13173e-11
2.05008e-05
-7.16795e-11
2.05009e-05
-8.22927e-11
2.05009e-05
-8.99461e-11
2.05009e-05
-9.61701e-11
2.0501e-05
-1.03106e-10
2.0501e-05
-1.08494e-10
2.0501e-05
-1.11872e-10
2.05011e-05
-1.15311e-10
2.05011e-05
-1.19152e-10
2.05012e-05
-1.21706e-10
2.05012e-05
-1.22634e-10
2.05013e-05
-1.2405e-10
2.05013e-05
-1.24666e-10
2.05013e-05
-1.24631e-10
2.05014e-05
-1.17004e-10
2.05014e-05
-1.06812e-10
2.05015e-05
-9.33247e-11
2.05015e-05
-7.68931e-11
2.05015e-05
-5.49604e-11
2.05015e-05
-2.44344e-11
2.05015e-05
-6.24656e-12
2.05015e-05
9.6623e-13
2.05015e-05
-5.47596e-13
2.05015e-05
-7.66697e-12
2.05015e-05
-1.44405e-11
2.05016e-05
-2.1606e-11
2.05016e-05
-2.78559e-11
2.05016e-05
-3.23919e-11
2.05016e-05
-3.52866e-11
2.05016e-05
-3.67918e-11
2.05016e-05
-3.55461e-11
2.05016e-05
-3.15328e-11
2.05016e-05
-2.5433e-11
2.05016e-05
-1.82426e-11
2.05016e-05
-9.53244e-12
2.05016e-05
8.13217e-13
2.05016e-05
1.12557e-11
2.05016e-05
2.11444e-11
2.05016e-05
3.01711e-11
2.05016e-05
3.80461e-11
2.05016e-05
4.5865e-11
2.05016e-05
5.26062e-11
2.05015e-05
5.66019e-11
2.05015e-05
5.96308e-11
2.05015e-05
6.12837e-11
2.05015e-05
6.29463e-11
2.05014e-05
6.42173e-11
2.05014e-05
6.35942e-11
2.05014e-05
6.34076e-11
2.05014e-05
6.23865e-11
2.05014e-05
5.91367e-11
2.05013e-05
5.4586e-11
2.05013e-05
5.09021e-11
2.05013e-05
4.79835e-11
2.05013e-05
4.44782e-11
2.05013e-05
4.14321e-11
2.05012e-05
3.88039e-11
2.05012e-05
3.45871e-11
2.05012e-05
2.93387e-11
2.05012e-05
2.20901e-11
2.05012e-05
1.30644e-11
2.05012e-05
7.47155e-12
2.05012e-05
5.01025e-12
2.05012e-05
4.37626e-12
2.05012e-05
5.64709e-12
2.05012e-05
5.6555e-12
2.05012e-05
4.51255e-12
2.05012e-05
2.44713e-12
2.05012e-05
-9.09874e-13
2.05012e-05
-4.37435e-12
2.05012e-05
-8.62656e-12
2.05012e-05
-1.286e-11
2.05012e-05
-1.65855e-11
2.05012e-05
-1.83826e-11
2.05012e-05
-2.01856e-11
2.05012e-05
-1.60776e-11
2.05012e-05
-1.09974e-11
2.05012e-05
2.86431e-12
2.05012e-05
2.21682e-11
2.05012e-05
2.72521e-11
2.05012e-05
2.47473e-11
2.05012e-05
1.47885e-11
2.05012e-05
9.53402e-13
2.05012e-05
-1.30441e-11
2.05012e-05
-2.59953e-11
2.05012e-05
-3.62601e-11
2.05013e-05
-4.48066e-11
2.05013e-05
-5.14582e-11
2.05013e-05
-5.67306e-11
2.05013e-05
-5.62804e-11
2.05013e-05
-4.72036e-11
2.05013e-05
-4.90706e-11
2.05014e-05
-7.92316e-12
-6.84275e-12
2.55809e-05
-1.82113e-10
2.5581e-05
-2.32438e-10
2.5581e-05
-1.70141e-10
2.5581e-05
-4.82472e-11
2.5581e-05
7.64772e-11
2.55809e-05
1.76946e-10
2.55809e-05
2.47956e-10
2.55808e-05
2.92542e-10
2.55807e-05
3.13261e-10
2.55806e-05
3.1106e-10
2.55805e-05
2.93951e-10
2.55804e-05
2.70575e-10
2.55804e-05
2.44166e-10
2.55803e-05
2.14753e-10
2.55802e-05
1.85534e-10
2.55802e-05
1.56002e-10
2.55802e-05
1.24393e-10
2.55801e-05
9.55712e-11
2.55801e-05
6.7582e-11
2.55801e-05
3.91263e-11
2.55801e-05
1.30915e-11
2.55801e-05
-1.1327e-11
2.55801e-05
-3.47734e-11
2.55801e-05
-5.5832e-11
2.55802e-05
-7.3493e-11
2.55802e-05
-8.78989e-11
2.55802e-05
-1.02642e-10
2.55802e-05
-1.17496e-10
2.55803e-05
-1.28606e-10
2.55803e-05
-1.37524e-10
2.55804e-05
-1.46822e-10
2.55804e-05
-1.54118e-10
2.55805e-05
-1.59164e-10
2.55805e-05
-1.64352e-10
2.55806e-05
-1.69568e-10
2.55806e-05
-1.73138e-10
2.55807e-05
-1.75249e-10
2.55807e-05
-1.77402e-10
2.55808e-05
-1.77873e-10
2.55808e-05
-1.77618e-10
2.55809e-05
-1.68235e-10
2.55809e-05
-1.55021e-10
2.5581e-05
-1.36782e-10
2.5581e-05
-1.14479e-10
2.5581e-05
-8.46854e-11
2.55811e-05
-4.35676e-11
2.55811e-05
-1.75817e-11
2.55811e-05
-6.15793e-12
2.55811e-05
-6.36876e-12
2.55811e-05
-1.42635e-11
2.55811e-05
-2.26877e-11
2.55811e-05
-3.19702e-11
2.55811e-05
-4.00733e-11
2.55811e-05
-4.57679e-11
2.55811e-05
-4.925e-11
2.55812e-05
-5.06522e-11
2.55812e-05
-4.8125e-11
2.55812e-05
-4.19924e-11
2.55812e-05
-3.32176e-11
2.55812e-05
-2.27335e-11
2.55812e-05
-1.00078e-11
2.55812e-05
4.72179e-12
2.55812e-05
1.93336e-11
2.55812e-05
3.30826e-11
2.55812e-05
4.57838e-11
2.55811e-05
5.69691e-11
2.55811e-05
6.78144e-11
2.55811e-05
7.69676e-11
2.55811e-05
8.24549e-11
2.5581e-05
8.65942e-11
2.5581e-05
8.89885e-11
2.5581e-05
9.1337e-11
2.5581e-05
9.30158e-11
2.55809e-05
9.20886e-11
2.55809e-05
9.14375e-11
2.55809e-05
8.95753e-11
2.55808e-05
8.50579e-11
2.55808e-05
7.87722e-11
2.55808e-05
7.36496e-11
2.55808e-05
6.97667e-11
2.55808e-05
6.48976e-11
2.55807e-05
6.04493e-11
2.55807e-05
5.65082e-11
2.55807e-05
5.04836e-11
2.55807e-05
4.29895e-11
2.55807e-05
3.3561e-11
2.55807e-05
2.18216e-11
2.55807e-05
1.38091e-11
2.55807e-05
1.00072e-11
2.55807e-05
8.71958e-12
2.55806e-05
9.9674e-12
2.55806e-05
9.61332e-12
2.55806e-05
7.8948e-12
2.55806e-05
5.06127e-12
2.55806e-05
3.38116e-13
2.55806e-05
-4.79066e-12
2.55806e-05
-1.10111e-11
2.55806e-05
-1.7267e-11
2.55807e-05
-2.3013e-11
2.55807e-05
-2.65199e-11
2.55807e-05
-2.99811e-11
2.55807e-05
-2.57165e-11
2.55807e-05
-1.96999e-11
2.55807e-05
-2.51517e-12
2.55807e-05
2.23653e-11
2.55807e-05
3.0289e-11
2.55807e-05
2.80026e-11
2.55807e-05
1.5707e-11
2.55807e-05
-1.76635e-12
2.55807e-05
-1.98125e-11
2.55807e-05
-3.69185e-11
2.55807e-05
-5.06643e-11
2.55807e-05
-6.22119e-11
2.55808e-05
-7.16133e-11
2.55808e-05
-7.92033e-11
2.55808e-05
-7.87536e-11
2.55808e-05
-6.69908e-11
2.55808e-05
-6.89436e-11
2.55808e-05
-1.04869e-11
-3.3552e-11
3.05441e-05
-2.64844e-10
3.05442e-05
-2.95821e-10
3.05442e-05
-1.94966e-10
3.05442e-05
-3.55162e-11
3.05442e-05
1.21017e-10
3.05441e-05
2.45308e-10
3.0544e-05
3.32929e-10
3.05439e-05
3.87867e-10
3.05438e-05
4.12061e-10
3.05437e-05
4.08687e-10
3.05436e-05
3.8688e-10
3.05435e-05
3.55561e-10
3.05435e-05
3.20766e-10
3.05434e-05
2.81994e-10
3.05433e-05
2.43224e-10
3.05433e-05
2.04191e-10
3.05432e-05
1.62872e-10
3.05432e-05
1.24625e-10
3.05432e-05
8.77258e-11
3.05432e-05
5.08681e-11
3.05432e-05
1.65614e-11
3.05432e-05
-1.64062e-11
3.05432e-05
-4.74304e-11
3.05432e-05
-7.42401e-11
3.05432e-05
-9.72644e-11
3.05433e-05
-1.16896e-10
3.05433e-05
-1.3647e-10
3.05433e-05
-1.55943e-10
3.05434e-05
-1.70926e-10
3.05434e-05
-1.82738e-10
3.05435e-05
-1.94409e-10
3.05435e-05
-2.03785e-10
3.05436e-05
-2.10954e-10
3.05436e-05
-2.18235e-10
3.05437e-05
-2.25125e-10
3.05437e-05
-2.30004e-10
3.05438e-05
-2.33315e-10
3.05439e-05
-2.36196e-10
3.05439e-05
-2.36914e-10
3.0544e-05
-2.36562e-10
3.0544e-05
-2.25909e-10
3.05441e-05
-2.1032e-10
3.05441e-05
-1.86852e-10
3.05442e-05
-1.58332e-10
3.05442e-05
-1.20254e-10
3.05443e-05
-6.79869e-11
3.05443e-05
-3.38366e-11
3.05443e-05
-1.72208e-11
3.05443e-05
-1.48294e-11
3.05443e-05
-2.30252e-11
3.05443e-05
-3.28832e-11
3.05443e-05
-4.38315e-11
3.05443e-05
-5.35678e-11
3.05443e-05
-6.0142e-11
3.05444e-05
-6.40135e-11
3.05444e-05
-6.49582e-11
3.05444e-05
-6.06651e-11
3.05444e-05
-5.21596e-11
3.05444e-05
-4.05133e-11
3.05444e-05
-2.6291e-11
3.05444e-05
-8.73616e-12
3.05444e-05
1.07108e-11
3.05444e-05
2.93436e-11
3.05444e-05
4.70992e-11
3.05444e-05
6.37714e-11
3.05443e-05
7.85248e-11
3.05443e-05
9.251e-11
3.05443e-05
1.0407e-10
3.05443e-05
1.11078e-10
3.05442e-05
1.16434e-10
3.05442e-05
1.20023e-10
3.05442e-05
1.2319e-10
3.05441e-05
1.24967e-10
3.05441e-05
1.23597e-10
3.05441e-05
1.2228e-10
3.0544e-05
1.19372e-10
3.0544e-05
1.13588e-10
3.0544e-05
1.05808e-10
3.0544e-05
9.93633e-11
3.05439e-05
9.43519e-11
3.05439e-05
8.78651e-11
3.05439e-05
8.17964e-11
3.05439e-05
7.63388e-11
3.05439e-05
6.85626e-11
3.05438e-05
5.86175e-11
3.05438e-05
4.74346e-11
3.05438e-05
3.33143e-11
3.05438e-05
2.22787e-11
3.05438e-05
1.6807e-11
3.05438e-05
1.45209e-11
3.05438e-05
1.54441e-11
3.05438e-05
1.47281e-11
3.05438e-05
1.23714e-11
3.05438e-05
8.43755e-12
3.05438e-05
2.08061e-12
3.05438e-05
-5.01924e-12
3.05438e-05
-1.35028e-11
3.05438e-05
-2.20843e-11
3.05438e-05
-3.02804e-11
3.05438e-05
-3.60454e-11
3.05438e-05
-4.16894e-11
3.05438e-05
-3.79342e-11
3.05438e-05
-3.1299e-11
3.05438e-05
-1.13724e-11
3.05438e-05
1.85252e-11
3.05438e-05
3.00274e-11
3.05438e-05
2.88753e-11
3.05438e-05
1.48953e-11
3.05438e-05
-5.85533e-12
3.05439e-05
-2.76068e-11
3.05439e-05
-4.8234e-11
3.05439e-05
-6.54027e-11
3.05439e-05
-8.04025e-11
3.05439e-05
-9.30116e-11
3.05439e-05
-1.03221e-10
3.0544e-05
-1.02606e-10
3.0544e-05
-8.82575e-11
3.0544e-05
-9.01517e-11
3.0544e-05
-1.37793e-11
-6.70963e-11
3.52429e-05
-3.38265e-10
3.5243e-05
-3.48641e-10
3.5243e-05
-2.09234e-10
3.5243e-05
-1.45626e-11
3.52429e-05
1.70111e-10
3.52428e-05
3.15366e-10
3.52428e-05
4.18151e-10
3.52427e-05
4.82447e-10
3.52426e-05
5.09083e-10
3.52425e-05
5.04626e-10
3.52424e-05
4.78849e-10
3.52423e-05
4.40263e-10
3.52422e-05
3.97728e-10
3.52421e-05
3.49891e-10
3.52421e-05
3.01557e-10
3.5242e-05
2.53127e-10
3.5242e-05
2.02163e-10
3.5242e-05
1.54688e-10
3.52419e-05
1.08902e-10
3.52419e-05
6.33465e-11
3.52419e-05
2.03519e-11
3.52419e-05
-2.14004e-11
3.52419e-05
-5.98863e-11
3.5242e-05
-9.24573e-11
3.5242e-05
-1.21313e-10
3.5242e-05
-1.46782e-10
3.52421e-05
-1.71338e-10
3.52421e-05
-1.95166e-10
3.52421e-05
-2.14263e-10
3.52422e-05
-2.29424e-10
3.52422e-05
-2.43384e-10
3.52423e-05
-2.55102e-10
3.52423e-05
-2.64943e-10
3.52424e-05
-2.74586e-10
3.52425e-05
-2.83279e-10
3.52425e-05
-2.89796e-10
3.52426e-05
-2.94372e-10
3.52426e-05
-2.98382e-10
3.52427e-05
-2.99784e-10
3.52428e-05
-2.99063e-10
3.52428e-05
-2.86727e-10
3.52429e-05
-2.69262e-10
3.52429e-05
-2.41683e-10
3.5243e-05
-2.0713e-10
3.5243e-05
-1.60588e-10
3.52431e-05
-9.69236e-11
3.52431e-05
-5.46475e-11
3.52431e-05
-3.20303e-11
3.52431e-05
-2.58591e-11
3.52431e-05
-3.40371e-11
3.52431e-05
-4.45403e-11
3.52431e-05
-5.65893e-11
3.52432e-05
-6.76814e-11
3.52432e-05
-7.47185e-11
3.52432e-05
-7.87698e-11
3.52432e-05
-7.88185e-11
3.52432e-05
-7.23139e-11
3.52432e-05
-6.14555e-11
3.52432e-05
-4.6422e-11
3.52432e-05
-2.8057e-11
3.52432e-05
-5.60864e-12
3.52432e-05
1.83886e-11
3.52432e-05
4.06254e-11
3.52432e-05
6.24364e-11
3.52432e-05
8.32081e-11
3.52431e-05
1.01561e-10
3.52431e-05
1.18575e-10
3.52431e-05
1.32371e-10
3.52431e-05
1.40873e-10
3.5243e-05
1.47583e-10
3.5243e-05
1.52791e-10
3.5243e-05
1.56746e-10
3.52429e-05
1.58302e-10
3.52429e-05
1.56432e-10
3.52429e-05
1.54258e-10
3.52428e-05
1.50191e-10
3.52428e-05
1.43335e-10
3.52428e-05
1.34864e-10
3.52427e-05
1.27323e-10
3.52427e-05
1.20649e-10
3.52427e-05
1.12268e-10
3.52427e-05
1.04443e-10
3.52427e-05
9.7359e-11
3.52426e-05
8.79024e-11
3.52426e-05
7.53897e-11
3.52426e-05
6.21521e-11
3.52426e-05
4.63261e-11
3.52426e-05
3.27723e-11
3.52426e-05
2.51881e-11
3.52426e-05
2.15183e-11
3.52426e-05
2.18059e-11
3.52425e-05
2.06616e-11
3.52425e-05
1.75664e-11
3.52425e-05
1.2253e-11
3.52425e-05
4.02886e-12
3.52425e-05
-5.31113e-12
3.52425e-05
-1.62638e-11
3.52425e-05
-2.73941e-11
3.52426e-05
-3.84321e-11
3.52426e-05
-4.69431e-11
3.52426e-05
-5.51916e-11
3.52426e-05
-5.24062e-11
3.52426e-05
-4.53861e-11
3.52426e-05
-2.28183e-11
3.52426e-05
1.17619e-11
3.52426e-05
2.6525e-11
3.52426e-05
2.70789e-11
3.52426e-05
1.25956e-11
3.52426e-05
-1.07674e-11
3.52426e-05
-3.56114e-11
3.52427e-05
-5.9094e-11
3.52427e-05
-7.96749e-11
3.52427e-05
-9.84992e-11
3.52427e-05
-1.14689e-10
3.52427e-05
-1.27139e-10
3.52428e-05
-1.25942e-10
3.52428e-05
-1.09836e-10
3.52428e-05
-1.1156e-10
3.52428e-05
-1.945e-11
-9.90664e-11
3.96279e-05
-3.89733e-10
3.96279e-05
-3.84001e-10
3.96279e-05
-2.12484e-10
3.96279e-05
1.18277e-11
3.96278e-05
2.20196e-10
3.96278e-05
3.83484e-10
3.96277e-05
4.989e-10
3.96276e-05
5.70874e-10
3.96275e-05
5.9922e-10
3.96274e-05
5.94127e-10
3.96273e-05
5.65212e-10
3.96272e-05
5.2086e-10
3.96272e-05
4.71651e-10
3.96271e-05
4.15303e-10
3.9627e-05
3.58089e-10
3.9627e-05
3.00662e-10
3.9627e-05
2.40481e-10
3.96269e-05
1.84462e-10
3.96269e-05
1.30186e-10
3.96269e-05
7.58076e-11
3.96269e-05
2.45886e-11
3.96269e-05
-2.57467e-11
3.96269e-05
-7.17274e-11
3.96269e-05
-1.09661e-10
3.9627e-05
-1.44225e-10
3.9627e-05
-1.75983e-10
3.9627e-05
-2.05989e-10
3.96271e-05
-2.33952e-10
3.96271e-05
-2.56779e-10
3.96271e-05
-2.7537e-10
3.96272e-05
-2.92024e-10
3.96272e-05
-3.06567e-10
3.96273e-05
-3.19705e-10
3.96274e-05
-3.31806e-10
3.96274e-05
-3.42098e-10
3.96275e-05
-3.49912e-10
3.96275e-05
-3.55998e-10
3.96276e-05
-3.62149e-10
3.96277e-05
-3.64369e-10
3.96277e-05
-3.63002e-10
3.96278e-05
-3.49717e-10
3.96279e-05
-3.3083e-10
3.96279e-05
-2.99325e-10
3.9628e-05
-2.5894e-10
3.9628e-05
-2.03893e-10
3.9628e-05
-1.2956e-10
3.96281e-05
-7.94258e-11
3.96281e-05
-5.0113e-11
3.96281e-05
-3.94146e-11
3.96281e-05
-4.67377e-11
3.96281e-05
-5.76762e-11
3.96281e-05
-7.05355e-11
3.96281e-05
-8.20205e-11
3.96282e-05
-8.89262e-11
3.96282e-05
-9.22694e-11
3.96282e-05
-9.08087e-11
3.96282e-05
-8.24073e-11
3.96282e-05
-6.94855e-11
3.96282e-05
-5.063e-11
3.96282e-05
-2.78453e-11
3.96282e-05
-7.42431e-13
3.96282e-05
2.79655e-11
3.96282e-05
5.3428e-11
3.96282e-05
7.87558e-11
3.96281e-05
1.03602e-10
3.96281e-05
1.25379e-10
3.96281e-05
1.45119e-10
3.96281e-05
1.60864e-10
3.9628e-05
1.70831e-10
3.9628e-05
1.79089e-10
3.9628e-05
1.85411e-10
3.96279e-05
1.89787e-10
3.96279e-05
1.91688e-10
3.96279e-05
1.89431e-10
3.96278e-05
1.86172e-10
3.96278e-05
1.80949e-10
3.96278e-05
1.73465e-10
3.96278e-05
1.64844e-10
3.96277e-05
1.56183e-10
3.96277e-05
1.47629e-10
3.96277e-05
1.37261e-10
3.96276e-05
1.27644e-10
3.96276e-05
1.18907e-10
3.96276e-05
1.07659e-10
3.96276e-05
9.31151e-11
3.96276e-05
7.80387e-11
3.96276e-05
6.04125e-11
3.96275e-05
4.45901e-11
3.96275e-05
3.4711e-11
3.96275e-05
2.94237e-11
3.96275e-05
2.88343e-11
3.96275e-05
2.69885e-11
3.96275e-05
2.29507e-11
3.96275e-05
1.61763e-11
3.96275e-05
5.92034e-12
3.96275e-05
-5.90598e-12
3.96275e-05
-1.94533e-11
3.96275e-05
-3.33184e-11
3.96275e-05
-4.76079e-11
3.96275e-05
-5.93058e-11
3.96275e-05
-7.04834e-11
3.96276e-05
-6.87395e-11
3.96276e-05
-6.14117e-11
3.96276e-05
-3.71111e-11
3.96276e-05
2.15541e-12
3.96276e-05
2.06263e-11
3.96276e-05
2.24754e-11
3.96276e-05
8.44709e-12
3.96276e-05
-1.59903e-11
3.96276e-05
-4.30499e-11
3.96276e-05
-6.91339e-11
3.96277e-05
-9.33793e-11
3.96277e-05
-1.1615e-10
3.96277e-05
-1.35375e-10
3.96277e-05
-1.49468e-10
3.96277e-05
-1.47923e-10
3.96278e-05
-1.31136e-10
3.96278e-05
-1.31831e-10
3.96278e-05
-2.76789e-11
-1.23823e-10
4.37212e-05
-4.14786e-10
4.37212e-05
-3.97215e-10
4.37212e-05
-2.03292e-10
4.37211e-05
4.29877e-11
4.37211e-05
2.69944e-10
4.3721e-05
4.47795e-10
4.3721e-05
5.72976e-10
4.37209e-05
6.50395e-10
4.37208e-05
6.80046e-10
4.37207e-05
6.74723e-10
4.37206e-05
6.43341e-10
4.37206e-05
5.94426e-10
4.37205e-05
5.39708e-10
4.37204e-05
4.76253e-10
4.37204e-05
4.11167e-10
4.37203e-05
3.45384e-10
4.37203e-05
2.76681e-10
4.37203e-05
2.12648e-10
4.37203e-05
1.50346e-10
4.37202e-05
8.75506e-11
4.37202e-05
2.86755e-11
4.37202e-05
-2.95339e-11
4.37203e-05
-8.24559e-11
4.37203e-05
-1.25461e-10
4.37203e-05
-1.65148e-10
4.37203e-05
-2.03671e-10
4.37203e-05
-2.39897e-10
4.37204e-05
-2.71019e-10
4.37204e-05
-2.97524e-10
4.37205e-05
-3.20119e-10
4.37205e-05
-3.39528e-10
4.37206e-05
-3.56606e-10
4.37206e-05
-3.73682e-10
4.37207e-05
-3.88921e-10
4.37207e-05
-4.00505e-10
4.37208e-05
-4.0955e-10
4.37209e-05
-4.17598e-10
4.37209e-05
-4.2548e-10
4.3721e-05
-4.28176e-10
4.37211e-05
-4.27104e-10
4.37211e-05
-4.13871e-10
4.37212e-05
-3.93944e-10
4.37212e-05
-3.58243e-10
4.37213e-05
-3.12211e-10
4.37213e-05
-2.49585e-10
4.37214e-05
-1.65494e-10
4.37214e-05
-1.07035e-10
4.37214e-05
-7.09404e-11
4.37214e-05
-5.52215e-11
4.37214e-05
-6.05707e-11
4.37215e-05
-7.19263e-11
4.37215e-05
-8.51771e-11
4.37215e-05
-9.61558e-11
4.37215e-05
-1.02343e-10
4.37215e-05
-1.04223e-10
4.37215e-05
-1.00674e-10
4.37215e-05
-9.06942e-11
4.37215e-05
-7.5976e-11
4.37215e-05
-5.29872e-11
4.37215e-05
-2.48159e-11
4.37215e-05
6.95884e-12
4.37215e-05
3.93259e-11
4.37215e-05
6.72627e-11
4.37215e-05
9.59416e-11
4.37215e-05
1.24916e-10
4.37214e-05
1.49705e-10
4.37214e-05
1.71714e-10
4.37214e-05
1.89056e-10
4.37214e-05
2.00524e-10
4.37213e-05
2.10531e-10
4.37213e-05
2.17476e-10
4.37213e-05
2.21846e-10
4.37212e-05
2.23694e-10
4.37212e-05
2.21003e-10
4.37212e-05
2.17241e-10
4.37211e-05
2.11064e-10
4.37211e-05
2.03658e-10
4.37211e-05
1.95011e-10
4.37211e-05
1.84792e-10
4.3721e-05
1.74521e-10
4.3721e-05
1.62283e-10
4.3721e-05
1.50933e-10
4.3721e-05
1.40563e-10
4.37209e-05
1.27476e-10
4.37209e-05
1.11308e-10
4.37209e-05
9.46407e-11
4.37209e-05
7.49076e-11
4.37209e-05
5.69012e-11
4.37209e-05
4.49316e-11
4.37209e-05
3.79885e-11
4.37208e-05
3.63644e-11
4.37208e-05
3.35784e-11
4.37208e-05
2.83406e-11
4.37208e-05
1.99914e-11
4.37208e-05
7.54009e-12
4.37208e-05
-7.01674e-12
4.37208e-05
-2.32026e-11
4.37208e-05
-4.00124e-11
4.37209e-05
-5.80473e-11
4.37209e-05
-7.333e-11
4.37209e-05
-8.7659e-11
4.37209e-05
-8.68635e-11
4.37209e-05
-7.92847e-11
4.37209e-05
-5.37041e-11
4.37209e-05
-1.01859e-11
4.3721e-05
1.22121e-11
4.3721e-05
1.5778e-11
4.3721e-05
3.13397e-12
4.3721e-05
-2.11872e-11
4.3721e-05
-4.96994e-11
4.3721e-05
-7.81965e-11
4.3721e-05
-1.066e-10
4.3721e-05
-1.3327e-10
4.3721e-05
-1.5483e-10
4.37211e-05
-1.70248e-10
4.37211e-05
-1.68595e-10
4.37211e-05
-1.51097e-10
4.37211e-05
-1.4992e-10
4.37211e-05
-3.82249e-11
-1.39625e-10
4.75732e-05
-4.14164e-10
4.75732e-05
-3.86928e-10
4.75732e-05
-1.79813e-10
4.75731e-05
7.95907e-11
4.75731e-05
3.19565e-10
4.7573e-05
5.0786e-10
4.7573e-05
6.39926e-10
4.75729e-05
7.20106e-10
4.75728e-05
7.50786e-10
4.75728e-05
7.45761e-10