/*--------------------------------*- C++ -*----------------------------------*\
  =========                 |
  \\      /  F ield         | OpenFOAM: The Open Source CFD Toolbox
   \\    /   O peration     | Website:  https://openfoam.org
    \\  /    A nd           | Version:  7
     \\/     M anipulation  |
\*---------------------------------------------------------------------------*/
FoamFile
{
    version     2.0;
    format      ascii;
    class       volVectorField;
    location    "16000";
    object      U;
}
// * * * * * * * * * * * * * * * * * * * * * * * * * * * * * * * * * * * * * //

dimensions      [0 1 -1 0 0 0 0];

internalField   nonuniform List<vector> 
24000
(
(0.00398209 5.89513e-11 7.00618e-16)
(0.0039821 -9.05489e-11 6.88324e-16)
(0.00398211 -1.17761e-10 6.93603e-16)
(0.00398213 -8.22242e-11 6.12291e-16)
(0.00398213 -2.78402e-11 2.99196e-16)
(0.00398213 1.83996e-11 6.02798e-16)
(0.00398212 5.47331e-11 3.47465e-16)
(0.00398211 7.84729e-11 6.27823e-16)
(0.00398209 9.20781e-11 6.67102e-16)
(0.00398207 9.80074e-11 3.6979e-16)
(0.00398206 9.39175e-11 6.36971e-16)
(0.00398204 8.52908e-11 6.47866e-16)
(0.00398203 7.99881e-11 6.52484e-16)
(0.00398201 6.99534e-11 6.30347e-16)
(0.003982 6.12551e-11 6.05455e-16)
(0.00398199 5.48506e-11 6.42298e-16)
(0.00398198 4.19026e-11 6.27514e-16)
(0.00398198 3.49495e-11 6.3089e-16)
(0.00398197 2.62476e-11 6.09151e-16)
(0.00398197 1.4602e-11 5.77049e-16)
(0.00398197 7.06539e-12 6.55675e-16)
(0.00398197 1.70223e-13 5.80665e-16)
(0.00398197 -6.52917e-12 5.98617e-16)
(0.00398197 -1.57514e-11 5.96492e-16)
(0.00398197 -2.3244e-11 5.38909e-16)
(0.00398198 -2.54564e-11 6.29551e-16)
(0.00398198 -3.10998e-11 6.12813e-16)
(0.00398199 -3.79647e-11 6.16308e-16)
(0.003982 -3.91286e-11 5.79461e-16)
(0.003982 -4.10392e-11 5.21772e-16)
(0.00398201 -4.75917e-11 6.10394e-16)
(0.00398202 -5.10842e-11 5.83194e-16)
(0.00398203 -5.14642e-11 6.01857e-16)
(0.00398204 -5.2596e-11 5.83076e-16)
(0.00398205 -5.59029e-11 5.25092e-16)
(0.00398205 -5.74314e-11 6.10275e-16)
(0.00398206 -5.58079e-11 5.88107e-16)
(0.00398207 -5.8417e-11 6.04307e-16)
(0.00398208 -5.6086e-11 5.55574e-16)
(0.00398209 -5.88261e-11 5.24689e-16)
(0.0039821 -4.98932e-11 5.58438e-16)
(0.00398211 -4.47836e-11 8.19706e-16)
(0.00398212 -2.87341e-11 6.17243e-16)
(0.00398212 -1.45066e-11 6.17161e-16)
(0.00398213 -1.28762e-12 6.31724e-16)
(0.00398213 3.12945e-11 6.41727e-16)
(0.00398213 2.92359e-11 8.56414e-16)
(0.00398212 2.74224e-11 6.61887e-16)
(0.00398212 1.89863e-11 6.51947e-16)
(0.00398212 5.30619e-12 6.57037e-16)
(0.00398212 2.03076e-13 6.61448e-16)
(0.00398212 -7.32595e-12 8.47502e-16)
(0.00398212 -1.207e-11 6.71814e-16)
(0.00398213 -1.64731e-11 8.63272e-16)
(0.00398213 -1.94276e-11 6.05166e-16)
(0.00398213 -2.27588e-11 6.76406e-16)
(0.00398214 -2.39374e-11 9.02958e-16)
(0.00398214 -2.3485e-11 6.8065e-16)
(0.00398214 -2.06488e-11 8.61092e-16)
(0.00398214 -1.83407e-11 6.23898e-16)
(0.00398215 -1.54183e-11 7.03509e-16)
(0.00398215 -1.02222e-11 8.61603e-16)
(0.00398215 -5.2042e-12 7.12085e-16)
(0.00398215 7.04806e-14 9.63065e-16)
(0.00398215 4.58924e-12 6.5767e-16)
(0.00398214 7.57224e-12 7.14271e-16)
(0.00398214 1.21438e-11 8.33322e-16)
(0.00398214 1.70059e-11 7.05924e-16)
(0.00398214 1.78083e-11 8.58655e-16)
(0.00398213 2.07335e-11 7.11724e-16)
(0.00398213 2.07823e-11 7.3046e-16)
(0.00398212 2.19976e-11 9.64575e-16)
(0.00398212 2.36248e-11 7.18234e-16)
(0.00398211 2.1735e-11 9.06498e-16)
(0.00398211 2.39699e-11 6.28308e-16)
(0.0039821 2.49811e-11 7.17103e-16)
(0.0039821 2.23343e-11 9.2517e-16)
(0.0039821 1.93178e-11 7.17718e-16)
(0.00398209 1.85494e-11 9.55072e-16)
(0.00398209 1.67374e-11 6.58992e-16)
(0.00398209 1.37859e-11 4.33042e-16)
(0.00398208 1.30506e-11 6.60242e-16)
(0.00398208 1.27789e-11 7.38668e-16)
(0.00398208 1.03786e-11 4.81264e-16)
(0.00398208 6.91008e-12 6.53258e-16)
(0.00398207 6.14219e-12 4.32127e-16)
(0.00398207 -1.0702e-12 5.72794e-16)
(0.00398207 -7.02669e-12 6.99503e-16)
(0.00398207 -6.78812e-12 4.64668e-16)
(0.00398207 -6.8498e-12 6.32991e-16)
(0.00398207 -3.30397e-12 4.44365e-16)
(0.00398207 -3.41489e-12 5.85544e-16)
(0.00398207 -3.78589e-12 6.90591e-16)
(0.00398207 -5.01138e-12 5.16019e-16)
(0.00398207 -8.12276e-12 5.9335e-16)
(0.00398208 -8.18522e-12 3.92415e-16)
(0.00398208 -1.07635e-11 5.7579e-16)
(0.00398208 -1.09039e-11 6.9141e-16)
(0.00398208 -1.2601e-11 4.63895e-16)
(0.00398208 -7.17103e-12 5.70896e-16)
(0.00398208 -8.03493e-12 4.69904e-16)
(0.00398208 4.51873e-12 6.26927e-16)
(0.00398208 1.00448e-11 7.04389e-16)
(0.00398208 2.23705e-11 4.98278e-16)
(0.00398208 4.53176e-11 6.1525e-16)
(0.00398207 3.95182e-11 4.34248e-16)
(0.00398207 3.66243e-11 6.08522e-16)
(0.00398207 2.36117e-11 6.96372e-16)
(0.00398207 9.25215e-12 5.21388e-16)
(0.00398207 -3.00519e-12 5.93553e-16)
(0.00398207 -1.38802e-11 4.81984e-16)
(0.00398207 -2.00801e-11 4.97844e-16)
(0.00398207 -2.68305e-11 6.85065e-16)
(0.00398208 -3.00367e-11 4.27022e-16)
(0.00398208 -3.19263e-11 6.05869e-16)
(0.00398209 -3.06708e-11 4.758e-16)
(0.00398209 -1.73862e-11 4.79217e-16)
(0.00398209 -2.36604e-11 6.92772e-16)
(0.0039821 -9.47259e-12 5.37672e-16)
(0.00398209 9.68416e-11 6.52961e-16)
(0.0120197 -7.28772e-11 2.12453e-15)
(0.0120197 -1.32788e-09 2.08075e-15)
(0.0120198 -1.52685e-09 2.09775e-15)
(0.0120198 -9.03199e-10 1.85308e-15)
(0.0120198 -7.37779e-11 1.38242e-15)
(0.0120198 6.39088e-10 1.82748e-15)
(0.0120198 1.16824e-09 1.45984e-15)
(0.0120198 1.51235e-09 1.90883e-15)
(0.0120197 1.70042e-09 2.01564e-15)
(0.0120197 1.74535e-09 1.51163e-15)
(0.0120196 1.66399e-09 1.93789e-15)
(0.0120196 1.52754e-09 1.95721e-15)
(0.0120195 1.39347e-09 1.9731e-15)
(0.0120195 1.23209e-09 1.90583e-15)
(0.0120194 1.0756e-09 1.83356e-15)
(0.0120194 9.25117e-10 1.94205e-15)
(0.0120194 7.37127e-10 1.89718e-15)
(0.0120194 5.82637e-10 1.9078e-15)
(0.0120194 4.26652e-10 1.84032e-15)
(0.0120194 2.5219e-10 1.73747e-15)
(0.0120194 1.05804e-10 1.99163e-15)
(0.0120193 -2.35078e-11 1.75364e-15)
(0.0120194 -1.51427e-10 1.80998e-15)
(0.0120194 -2.88818e-10 1.80209e-15)
(0.0120194 -4.02066e-10 1.62358e-15)
(0.0120194 -4.71769e-10 1.90148e-15)
(0.0120194 -5.58247e-10 1.85262e-15)
(0.0120194 -6.53513e-10 1.86705e-15)
(0.0120194 -7.04407e-10 1.75138e-15)
(0.0120195 -7.49663e-10 1.5791e-15)
(0.0120195 -8.23662e-10 1.84918e-15)
(0.0120195 -8.76706e-10 1.76295e-15)
(0.0120195 -8.98254e-10 1.81934e-15)
(0.0120196 -9.21178e-10 1.76159e-15)
(0.0120196 -9.6055e-10 1.59198e-15)
(0.0120196 -9.84151e-10 1.85491e-15)
(0.0120196 -9.82055e-10 1.77779e-15)
(0.0120197 -9.96336e-10 1.82793e-15)
(0.0120197 -9.96571e-10 1.67537e-15)
(0.0120197 -1.00298e-09 1.58987e-15)
(0.0120197 -9.22478e-10 1.69353e-15)
(0.0120198 -8.22735e-10 1.856e-15)
(0.0120198 -6.53546e-10 1.85935e-15)
(0.0120198 -4.77143e-10 1.86525e-15)
(0.0120198 -2.59283e-10 1.90909e-15)
(0.0120198 7.59456e-11 1.94088e-15)
(0.0120198 1.92032e-10 2.01034e-15)
(0.0120198 2.0694e-10 1.99567e-15)
(0.0120198 1.40478e-10 1.9731e-15)
(0.0120198 1.7874e-11 1.98763e-15)
(0.0120198 -6.43703e-11 2.00119e-15)
(0.0120198 -1.47415e-10 2.10768e-15)
(0.0120198 -2.15579e-10 2.02627e-15)
(0.0120198 -2.68749e-10 2.14859e-15)
(0.0120198 -3.06714e-10 1.76195e-15)
(0.0120199 -3.37097e-10 2.04794e-15)
(0.0120199 -3.42961e-10 2.11124e-15)
(0.0120199 -3.21311e-10 2.05057e-15)
(0.0120199 -2.75012e-10 2.16206e-15)
(0.0120199 -2.24006e-10 1.86778e-15)
(0.0120199 -1.61638e-10 2.12997e-15)
(0.0120199 -7.80622e-11 2.21009e-15)
(0.0120199 8.6647e-12 2.14858e-15)
(0.0120199 9.35687e-11 2.23711e-15)
(0.0120199 1.68741e-10 2.12052e-15)
(0.0120199 2.29864e-10 2.16706e-15)
(0.0120199 2.99347e-10 2.16849e-15)
(0.0120199 3.63712e-10 2.12982e-15)
(0.0120199 3.95629e-10 2.20861e-15)
(0.0120198 4.26308e-10 2.00129e-15)
(0.0120198 4.38293e-10 2.21701e-15)
(0.0120198 4.54245e-10 2.2537e-15)
(0.0120198 4.68797e-10 2.16442e-15)
(0.0120198 4.59435e-10 2.28509e-15)
(0.0120198 4.699e-10 2.05051e-15)
(0.0120198 4.72634e-10 2.17279e-15)
(0.0120197 4.41586e-10 2.22031e-15)
(0.0120197 3.99745e-10 2.16484e-15)
(0.0120197 3.73275e-10 2.26746e-15)
(0.0120197 3.46225e-10 2.11927e-15)
(0.0120197 3.11024e-10 1.98475e-15)
(0.0120197 2.8939e-10 1.92277e-15)
(0.0120197 2.74222e-10 2.23399e-15)
(0.0120197 2.38267e-10 2.01706e-15)
(0.0120197 1.93248e-10 1.83226e-15)
(0.0120197 1.47115e-10 1.92311e-15)
(0.0120197 5.7013e-11 1.70652e-15)
(0.0120197 -1.27451e-11 2.11496e-15)
(0.0120197 -3.00228e-11 1.86305e-15)
(0.0120197 -2.87956e-11 1.84698e-15)
(0.0120197 -2.91487e-12 1.91882e-15)
(0.0120197 1.73823e-12 1.66945e-15)
(0.0120197 -6.2312e-12 2.08766e-15)
(0.0120197 -2.58948e-11 1.91615e-15)
(0.0120197 -5.91763e-11 1.77159e-15)
(0.0120197 -8.1633e-11 1.86091e-15)
(0.0120197 -1.14245e-10 1.72004e-15)
(0.0120197 -1.41002e-10 2.08972e-15)
(0.0120197 -1.61782e-10 1.86447e-15)
(0.0120197 -1.45704e-10 1.86552e-15)
(0.0120197 -1.4209e-10 1.85688e-15)
(0.0120197 -5.25565e-11 1.8107e-15)
(0.0120197 2.10621e-11 2.13161e-15)
(0.0120197 1.78102e-10 1.89695e-15)
(0.0120197 4.07293e-10 1.91038e-15)
(0.0120197 4.30885e-10 1.88315e-15)
(0.0120197 3.84807e-10 1.89371e-15)
(0.0120196 2.53033e-10 2.10718e-15)
(0.0120196 8.37127e-11 1.9212e-15)
(0.0120196 -7.51008e-11 1.7017e-15)
(0.0120196 -2.13841e-10 1.86715e-15)
(0.0120197 -3.14074e-10 1.85846e-15)
(0.0120197 -4.00414e-10 2.0767e-15)
(0.0120197 -4.57672e-10 1.91077e-15)
(0.0120197 -4.9838e-10 1.70916e-15)
(0.0120197 -4.8244e-10 1.86832e-15)
(0.0120197 -3.63024e-10 1.84851e-15)
(0.0120197 -4.14209e-10 2.09973e-15)
(0.0120197 -5.61318e-11 1.96934e-15)
(0.0120197 6.06668e-10 2.00375e-15)
(0.0202207 -9.72109e-10 3.60335e-15)
(0.0202208 -3.90144e-09 3.49929e-15)
(0.0202209 -4.12908e-09 3.53299e-15)
(0.0202209 -2.24802e-09 3.11485e-15)
(0.0202209 1.3313e-10 2.80428e-15)
(0.0202209 2.15801e-09 3.12962e-15)
(0.0202208 3.6414e-09 2.93321e-15)
(0.0202208 4.59793e-09 3.27257e-15)
(0.0202207 5.10754e-09 3.38942e-15)
(0.0202206 5.19521e-09 3.02925e-15)
(0.0202205 4.94042e-09 3.3223e-15)
(0.0202204 4.53672e-09 3.28883e-15)
(0.0202204 4.12012e-09 3.32427e-15)
(0.0202203 3.6455e-09 3.20459e-15)
(0.0202203 3.17727e-09 3.09883e-15)
(0.0202202 2.71475e-09 3.2771e-15)
(0.0202202 2.17e-09 3.19065e-15)
(0.0202201 1.69982e-09 3.21536e-15)
(0.0202201 1.23492e-09 3.09083e-15)
(0.0202201 7.32234e-10 2.90075e-15)
(0.0202201 2.94796e-10 3.38848e-15)
(0.0202201 -9.5975e-11 2.91575e-15)
(0.0202201 -4.79312e-10 3.0564e-15)
(0.0202201 -8.71713e-10 3.03011e-15)
(0.0202201 -1.19668e-09 2.71081e-15)
(0.0202201 -1.41597e-09 3.21361e-15)
(0.0202202 -1.66668e-09 3.099e-15)
(0.0202202 -1.93658e-09 3.15299e-15)
(0.0202202 -2.10152e-09 2.94829e-15)
(0.0202203 -2.2414e-09 2.66632e-15)
(0.0202203 -2.43907e-09 3.1523e-15)
(0.0202203 -2.58752e-09 2.95679e-15)
(0.0202204 -2.65855e-09 3.06901e-15)
(0.0202204 -2.72795e-09 2.94497e-15)
(0.0202205 -2.83407e-09 2.68909e-15)
(0.0202205 -2.90359e-09 3.15853e-15)
(0.0202206 -2.90491e-09 2.99369e-15)
(0.0202206 -2.93924e-09 3.08305e-15)
(0.0202207 -2.95289e-09 2.79902e-15)
(0.0202207 -2.96289e-09 2.68433e-15)
(0.0202208 -2.75318e-09 2.87473e-15)
(0.0202208 -2.47126e-09 2.95768e-15)
(0.0202208 -2.03564e-09 3.12552e-15)
(0.0202209 -1.56179e-09 3.13955e-15)
(0.0202209 -9.57069e-10 3.21662e-15)
(0.0202209 -7.34851e-11 3.27247e-15)
(0.0202209 3.20994e-10 3.24177e-15)
(0.0202209 4.1336e-10 3.35476e-15)
(0.0202209 2.73731e-10 3.32594e-15)
(0.0202209 -1.88354e-11 3.35279e-15)
(0.0202209 -2.39292e-10 3.37459e-15)
(0.0202209 -4.58122e-10 3.35836e-15)
(0.0202209 -6.433e-10 3.41055e-15)
(0.0202209 -7.84883e-10 3.41472e-15)
(0.0202209 -8.83789e-10 3.86773e-15)
(0.020221 -9.55483e-10 3.47653e-15)
(0.020221 -9.58903e-10 3.37888e-15)
(0.020221 -8.85264e-10 3.44381e-15)
(0.020221 -7.46746e-10 3.45491e-15)
(0.020221 -5.88813e-10 3.80853e-15)
(0.020221 -3.96945e-10 3.61491e-15)
(0.020221 -1.51449e-10 3.55483e-15)
(0.020221 1.03066e-10 3.61327e-15)
(0.020221 3.49601e-10 3.55942e-15)
(0.020221 5.69867e-10 4.11816e-15)
(0.020221 7.54366e-10 3.68317e-15)
(0.020221 9.529e-10 3.52438e-15)
(0.020221 1.13301e-09 3.58333e-15)
(0.0202209 1.23113e-09 3.56864e-15)
(0.0202209 1.31431e-09 3.90136e-15)
(0.0202209 1.35246e-09 3.75122e-15)
(0.0202209 1.39644e-09 3.59678e-15)
(0.0202208 1.43411e-09 3.6378e-15)
(0.0202208 1.41394e-09 3.64905e-15)
(0.0202208 1.43095e-09 4.07024e-15)
(0.0202208 1.42822e-09 3.69768e-15)
(0.0202207 1.34371e-09 3.59236e-15)
(0.0202207 1.226e-09 3.64082e-15)
(0.0202207 1.14197e-09 3.63716e-15)
(0.0202207 1.06466e-09 3.99097e-15)
(0.0202207 9.69021e-10 3.56985e-15)
(0.0202207 9.01389e-10 3.79458e-15)
(0.0202206 8.50026e-10 3.7772e-15)
(0.0202206 7.47276e-10 3.5089e-15)
(0.0202206 6.18778e-10 3.87821e-15)
(0.0202206 4.68433e-10 3.41321e-15)
(0.0202206 2.20063e-10 3.53958e-15)
(0.0202206 3.61906e-11 3.59226e-15)
(0.0202206 -2.02029e-11 3.32217e-15)
(0.0202206 -2.14212e-11 3.80089e-15)
(0.0202206 3.75675e-11 3.38082e-15)
(0.0202206 4.94935e-11 3.65709e-15)
(0.0202206 2.5501e-11 3.53659e-15)
(0.0202206 -2.96944e-11 3.33756e-15)
(0.0202206 -1.19655e-10 3.53101e-15)
(0.0202206 -1.93008e-10 3.3578e-15)
(0.0202206 -2.89119e-10 3.4969e-15)
(0.0202206 -3.77081e-10 3.54362e-15)
(0.0202206 -4.45861e-10 3.32094e-15)
(0.0202206 -4.33924e-10 3.61524e-15)
(0.0202206 -4.36247e-10 3.32501e-15)
(0.0202206 -2.37546e-10 3.78051e-15)
(0.0202206 -5.03501e-11 3.60871e-15)
(0.0202206 3.64459e-10 3.33185e-15)
(0.0202206 9.58511e-10 3.71524e-15)
(0.0202206 1.06709e-09 3.31697e-15)
(0.0202206 9.55637e-10 3.72226e-15)
(0.0202206 6.21421e-10 3.56854e-15)
(0.0202206 1.79706e-10 3.33576e-15)
(0.0202206 -2.45838e-10 3.48538e-15)
(0.0202206 -6.21813e-10 3.31414e-15)
(0.0202206 -9.03859e-10 3.25491e-15)
(0.0202206 -1.14128e-09 3.51911e-15)
(0.0202206 -1.30781e-09 3.37066e-15)
(0.0202207 -1.43052e-09 3.5248e-15)
(0.0202207 -1.39769e-09 3.33088e-15)
(0.0202207 -1.10135e-09 3.27255e-15)
(0.0202207 -1.20566e-09 3.55646e-15)
(0.0202207 -1.83203e-10 3.41996e-15)
(0.0202207 1.10554e-09 3.66627e-15)
(0.0285529 -3.2527e-09 5.08791e-15)
(0.028553 -7.9256e-09 4.93839e-15)
(0.0285531 -7.66592e-09 4.98864e-15)
(0.0285531 -3.75522e-09 4.4363e-15)
(0.0285531 9.17613e-10 4.38192e-15)
(0.0285531 4.84025e-09 4.51148e-15)
(0.028553 7.68007e-09 4.47416e-15)
(0.0285529 9.49424e-09 4.72119e-15)
(0.0285528 1.04332e-08 4.80184e-15)
(0.0285527 1.052e-08 4.59345e-15)
(0.0285526 9.97461e-09 4.79269e-15)
(0.0285525 9.1608e-09 4.62899e-15)
(0.0285524 8.29945e-09 4.7036e-15)
(0.0285523 7.34581e-09 4.50675e-15)
(0.0285522 6.38581e-09 4.41717e-15)
(0.0285522 5.42806e-09 4.6547e-15)
(0.0285521 4.34034e-09 4.48863e-15)
(0.0285521 3.37714e-09 4.55197e-15)
(0.028552 2.43423e-09 4.33808e-15)
(0.028552 1.43783e-09 4.03447e-15)
(0.028552 5.52713e-10 4.87852e-15)
(0.028552 -2.47556e-10 4.2145e-15)
(0.028552 -1.02794e-09 4.35135e-15)
(0.028552 -1.79766e-09 4.30178e-15)
(0.028552 -2.43563e-09 3.93013e-15)
(0.0285521 -2.89327e-09 4.56504e-15)
(0.0285521 -3.39355e-09 4.41333e-15)
(0.0285522 -3.92139e-09 4.47162e-15)
(0.0285522 -4.27125e-09 4.20293e-15)
(0.0285522 -4.56161e-09 3.6633e-15)
(0.0285523 -4.931e-09 4.63181e-15)
(0.0285524 -5.21418e-09 4.24788e-15)
(0.0285524 -5.36579e-09 4.3583e-15)
(0.0285525 -5.51555e-09 4.19916e-15)
(0.0285525 -5.71602e-09 3.84673e-15)
(0.0285526 -5.84818e-09 4.47963e-15)
(0.0285527 -5.85538e-09 4.09736e-15)
(0.0285527 -5.91819e-09 4.37629e-15)
(0.0285528 -5.96261e-09 4.04675e-15)
(0.0285529 -5.97421e-09 3.48136e-15)
(0.0285529 -5.57591e-09 4.12344e-15)
(0.028553 -5.03321e-09 4.09159e-15)
(0.028553 -4.2575e-09 4.43646e-15)
(0.0285531 -3.37623e-09 4.43109e-15)
(0.0285531 -2.22603e-09 4.55527e-15)
(0.0285531 -5.90004e-10 4.63224e-15)
(0.0285531 2.53559e-10 4.4761e-15)
(0.0285531 5.11721e-10 4.75091e-15)
(0.0285531 3.17744e-10 4.69931e-15)
(0.0285531 -1.67128e-10 4.75316e-15)
(0.0285531 -5.66362e-10 4.77576e-15)
(0.0285532 -9.66848e-10 4.64498e-15)
(0.0285532 -1.31145e-09 4.83815e-15)
(0.0285532 -1.57067e-09 4.71911e-15)
(0.0285532 -1.7465e-09 4.9158e-15)
(0.0285532 -1.86172e-09 4.90056e-15)
(0.0285532 -1.84319e-09 4.66499e-15)
(0.0285533 -1.67727e-09 4.87335e-15)
(0.0285533 -1.39257e-09 4.78822e-15)
(0.0285533 -1.06291e-09 5.12e-15)
(0.0285533 -6.63534e-10 5.07579e-15)
(0.0285533 -1.68599e-10 4.9111e-15)
(0.0285533 3.40874e-10 5.11519e-15)
(0.0285533 8.30097e-10 4.92723e-15)
(0.0285533 1.2705e-09 5.30127e-15)
(0.0285532 1.64636e-09 5.18034e-15)
(0.0285532 2.03646e-09 4.89361e-15)
(0.0285532 2.38368e-09 5.07694e-15)
(0.0285532 2.58218e-09 4.95555e-15)
(0.0285531 2.73973e-09 5.31689e-15)
(0.0285531 2.81836e-09 5.26565e-15)
(0.0285531 2.90249e-09 4.96567e-15)
(0.028553 2.97136e-09 5.15001e-15)
(0.028553 2.9379e-09 5.05225e-15)
(0.028553 2.95311e-09 5.26878e-15)
(0.0285529 2.92972e-09 5.22356e-15)
(0.0285529 2.76683e-09 4.97901e-15)
(0.0285529 2.53786e-09 5.1576e-15)
(0.0285529 2.36266e-09 5.02601e-15)
(0.0285528 2.2114e-09 5.37244e-15)
(0.0285528 2.03018e-09 5.13073e-15)
(0.0285528 1.88954e-09 5.31e-15)
(0.0285528 1.77624e-09 5.30079e-15)
(0.0285527 1.57266e-09 5.01059e-15)
(0.0285527 1.31829e-09 5.14621e-15)
(0.0285527 9.89076e-10 4.89873e-15)
(0.0285527 5.12782e-10 5.04256e-15)
(0.0285527 1.86703e-10 5.08846e-15)
(0.0285527 7.13429e-11 4.77936e-15)
(0.0285527 5.94538e-11 5.07963e-15)
(0.0285527 1.53816e-10 4.81905e-15)
(0.0285527 1.71063e-10 4.91962e-15)
(0.0285527 1.20914e-10 5.00458e-15)
(0.0285527 1.44979e-11 4.77082e-15)
(0.0285527 -1.56399e-10 4.97221e-15)
(0.0285527 -3.12527e-10 4.81911e-15)
(0.0285527 -5.08912e-10 4.94284e-15)
(0.0285527 -6.97734e-10 5.00105e-15)
(0.0285527 -8.51449e-10 4.76942e-15)
(0.0285527 -8.76278e-10 4.82041e-15)
(0.0285527 -9.10843e-10 4.76804e-15)
(0.0285527 -6.01831e-10 5.01256e-15)
(0.0285527 -2.78448e-10 5.07846e-15)
(0.0285527 4.89027e-10 4.77441e-15)
(0.0285527 1.56993e-09 4.9669e-15)
(0.0285527 1.81173e-09 4.74362e-15)
(0.0285527 1.62771e-09 4.97744e-15)
(0.0285527 1.03578e-09 5.04032e-15)
(0.0285527 2.37898e-10 4.75871e-15)
(0.0285527 -5.46095e-10 4.84686e-15)
(0.0285527 -1.24842e-09 4.72536e-15)
(0.0285527 -1.78875e-09 4.68855e-15)
(0.0285527 -2.23913e-09 5.02873e-15)
(0.0285528 -2.568e-09 4.82862e-15)
(0.0285528 -2.81737e-09 4.88435e-15)
(0.0285528 -2.77218e-09 4.76488e-15)
(0.0285529 -2.25039e-09 4.7226e-15)
(0.0285529 -2.40023e-09 5.07605e-15)
(0.0285529 -3.88697e-10 4.8799e-15)
(0.0285529 1.15628e-09 5.08704e-15)
(0.0368915 -7.59329e-09 6.58914e-15)
(0.0368916 -1.33816e-08 6.36123e-15)
(0.0368917 -1.16427e-08 6.43466e-15)
(0.0368917 -4.87973e-09 6.0807e-15)
(0.0368917 2.67249e-09 6.01188e-15)
(0.0368916 8.92819e-09 5.8727e-15)
(0.0368915 1.34076e-08 6.02861e-15)
(0.0368914 1.62421e-08 6.22148e-15)
(0.0368912 1.76568e-08 6.11634e-15)
(0.0368911 1.76358e-08 6.15976e-15)
(0.036891 1.66704e-08 6.31339e-15)
(0.0368908 1.53655e-08 5.92857e-15)
(0.0368907 1.38999e-08 6.10176e-15)
(0.0368906 1.2265e-08 5.76499e-15)
(0.0368905 1.06328e-08 5.76807e-15)
(0.0368904 8.99382e-09 6.08335e-15)
(0.0368904 7.18341e-09 5.7424e-15)
(0.0368903 5.55705e-09 5.90762e-15)
(0.0368903 3.97242e-09 5.52429e-15)
(0.0368903 2.32602e-09 5.47948e-15)
(0.0368903 8.44469e-10 6.1697e-15)
(0.0368903 -5.11629e-10 5.68994e-15)
(0.0368903 -1.82882e-09 5.75669e-15)
(0.0368903 -3.08247e-09 5.88839e-15)
(0.0368903 -4.1214e-09 5.47132e-15)
(0.0368904 -4.90672e-09 6.06825e-15)
(0.0368904 -5.74028e-09 5.9918e-15)
(0.0368905 -6.60243e-09 5.83495e-15)
(0.0368905 -7.20811e-09 5.76949e-15)
(0.0368906 -7.7047e-09 5.37185e-15)
(0.0368906 -8.28285e-09 5.95672e-15)
(0.0368907 -8.72981e-09 5.80634e-15)
(0.0368908 -8.99423e-09 5.70747e-15)
(0.0368909 -9.25944e-09 5.72677e-15)
(0.0368909 -9.57551e-09 5.3865e-15)
(0.036891 -9.7858e-09 5.95684e-15)
(0.0368911 -9.84427e-09 5.82144e-15)
(0.0368912 -9.95372e-09 5.7072e-15)
(0.0368912 -1.00059e-08 5.57145e-15)
(0.0368913 -1.00102e-08 5.33507e-15)
(0.0368914 -9.3549e-09 5.45832e-15)
(0.0368915 -8.49261e-09 5.60444e-15)
(0.0368916 -7.36005e-09 5.82563e-15)
(0.0368916 -5.99334e-09 5.7164e-15)
(0.0368917 -4.17467e-09 5.92098e-15)
(0.0368917 -1.62904e-09 5.99752e-15)
(0.0368917 -1.76624e-10 6.03089e-15)
(0.0368917 3.53718e-10 6.20436e-15)
(0.0368917 1.59048e-10 6.04608e-15)
(0.0368917 -4.95561e-10 6.17922e-15)
(0.0368917 -1.08499e-09 6.17858e-15)
(0.0368917 -1.69519e-09 6.26928e-15)
(0.0368918 -2.22452e-09 6.3232e-15)
(0.0368918 -2.61466e-09 6.36893e-15)
(0.0368918 -2.86925e-09 6.26242e-15)
(0.0368918 -3.01558e-09 6.29881e-15)
(0.0368919 -2.94069e-09 6.30332e-15)
(0.0368919 -2.63327e-09 6.35972e-15)
(0.0368919 -2.1463e-09 6.45817e-15)
(0.0368919 -1.57664e-09 6.59106e-15)
(0.0368919 -8.88842e-10 6.51016e-15)
(0.0368919 -5.77649e-11 6.60194e-15)
(0.0368919 7.89307e-10 6.66521e-15)
(0.0368919 1.59399e-09 6.65762e-15)
(0.0368919 2.32444e-09 6.78622e-15)
(0.0368918 2.95712e-09 6.64332e-15)
(0.0368918 3.59468e-09 6.58088e-15)
(0.0368918 4.15092e-09 6.62372e-15)
(0.0368917 4.47744e-09 6.68608e-15)
(0.0368917 4.72733e-09 6.70758e-15)
(0.0368917 4.85793e-09 6.72635e-15)
(0.0368916 4.99304e-09 6.65571e-15)
(0.0368916 5.10064e-09 6.71379e-15)
(0.0368915 5.04994e-09 6.80459e-15)
(0.0368915 5.04855e-09 6.70591e-15)
(0.0368914 4.98112e-09 6.72971e-15)
(0.0368914 4.71602e-09 6.70875e-15)
(0.0368914 4.34295e-09 6.73202e-15)
(0.0368913 4.04527e-09 6.76461e-15)
(0.0368913 3.80314e-09 6.71921e-15)
(0.0368913 3.5149e-09 7.04049e-15)
(0.0368912 3.27359e-09 6.84355e-15)
(0.0368912 3.06972e-09 6.80331e-15)
(0.0368912 2.72968e-09 6.82871e-15)
(0.0368912 2.30797e-09 6.50186e-15)
(0.0368911 1.70853e-09 6.71957e-15)
(0.0368911 9.48709e-10 6.57284e-15)
(0.0368911 4.90315e-10 6.58137e-15)
(0.0368911 2.99952e-10 6.55231e-15)
(0.0368911 2.61877e-10 6.43602e-15)
(0.0368911 3.84185e-10 6.58107e-15)
(0.0368911 3.95513e-10 6.46173e-15)
(0.0368911 3.06839e-10 6.48038e-15)
(0.0368911 1.37619e-10 6.52665e-15)
(0.0368911 -1.36465e-10 6.1771e-15)
(0.0368911 -4.08752e-10 6.59558e-15)
(0.0368911 -7.45228e-10 6.23668e-15)
(0.0368911 -1.0773e-09 6.45593e-15)
(0.0368911 -1.36135e-09 6.54251e-15)
(0.0368911 -1.47099e-09 6.08626e-15)
(0.0368911 -1.58394e-09 6.54615e-15)
(0.0368911 -1.191e-09 6.35475e-15)
(0.0368912 -7.36852e-10 6.53257e-15)
(0.0368912 4.59984e-10 6.53872e-15)
(0.0368912 2.10691e-09 6.25445e-15)
(0.0368912 2.49589e-09 6.50541e-15)
(0.0368911 2.24854e-09 6.45134e-15)
(0.0368911 1.37985e-09 6.50421e-15)
(0.0368911 1.89095e-10 6.51122e-15)
(0.0368911 -1.00354e-09 6.30262e-15)
(0.0368912 -2.09445e-09 6.4354e-15)
(0.0368912 -2.94904e-09 6.5077e-15)
(0.0368912 -3.65778e-09 6.61375e-15)
(0.0368912 -4.19634e-09 6.60323e-15)
(0.0368913 -4.6165e-09 6.37906e-15)
(0.0368913 -4.56838e-09 6.50367e-15)
(0.0368913 -3.79269e-09 6.5452e-15)
(0.0368914 -3.97176e-09 6.66423e-15)
(0.0368914 -6.47062e-10 6.65302e-15)
(0.0368914 2.49407e-10 6.53854e-15)
(0.0449691 -1.42455e-08 8.0974e-15)
(0.0449692 -1.98475e-08 7.59958e-15)
(0.0449693 -1.54598e-08 7.8507e-15)
(0.0449693 -5.19376e-09 7.69288e-15)
(0.0449693 5.64957e-09 7.62231e-15)
(0.0449692 1.44521e-08 7.54439e-15)
(0.0449691 2.06921e-08 7.57886e-15)
(0.0449689 2.46178e-08 7.71578e-15)
(0.0449688 2.64926e-08 7.73684e-15)
(0.0449686 2.63676e-08 7.68835e-15)
(0.0449684 2.49066e-08 7.81501e-15)
(0.0449683 2.29076e-08 7.43617e-15)
(0.0449682 2.06791e-08 7.5068e-15)
(0.044968 1.82074e-08 7.23962e-15)
(0.0449679 1.57481e-08 7.16058e-15)
(0.0449678 1.32596e-08 7.52317e-15)
(0.0449678 1.05739e-08 7.19566e-15)
(0.0449677 8.14165e-09 7.27052e-15)
(0.0449677 5.77535e-09 6.90598e-15)
(0.0449677 3.34781e-09 6.89073e-15)
(0.0449676 1.14298e-09 7.2314e-15)
(0.0449676 -9.00689e-10 7.14737e-15)
(0.0449677 -2.87769e-09 7.16686e-15)
(0.0449677 -4.69053e-09 7.13051e-15)
(0.0449677 -6.19936e-09 7.02516e-15)
(0.0449678 -7.39795e-09 7.29187e-15)
(0.0449678 -8.64188e-09 7.1921e-15)
(0.0449679 -9.90662e-09 7.12815e-15)
(0.0449679 -1.0833e-08 6.9967e-15)
(0.044968 -1.15819e-08 6.87631e-15)
(0.0449681 -1.23929e-08 7.14058e-15)
(0.0449682 -1.30237e-08 6.98618e-15)
(0.0449682 -1.34357e-08 6.99755e-15)
(0.0449683 -1.38587e-08 6.8951e-15)
(0.0449684 -1.43029e-08 6.86998e-15)
(0.0449685 -1.46023e-08 7.13257e-15)
(0.0449686 -1.47475e-08 6.98376e-15)
(0.0449687 -1.49227e-08 6.97742e-15)
(0.0449688 -1.49747e-08 6.81052e-15)
(0.0449689 -1.49604e-08 6.78176e-15)
(0.044969 -1.41304e-08 6.82399e-15)
(0.0449691 -1.29463e-08 7.05244e-15)
(0.0449691 -1.13362e-08 7.22379e-15)
(0.0449692 -9.40596e-09 7.19769e-15)
(0.0449693 -6.82919e-09 7.3126e-15)
(0.0449693 -3.25966e-09 7.33084e-15)
(0.0449693 -1.06227e-09 7.81123e-15)
(0.0449694 -1.56774e-10 7.63229e-15)
(0.0449694 -2.75485e-10 7.58029e-15)
(0.0449694 -1.03922e-09 7.60945e-15)
(0.0449694 -1.80801e-09 7.54614e-15)
(0.0449694 -2.64129e-09 7.77403e-15)
(0.0449694 -3.363e-09 7.77705e-15)
(0.0449694 -3.87987e-09 7.90602e-15)
(0.0449695 -4.20256e-09 7.87058e-15)
(0.0449695 -4.35523e-09 7.67271e-15)
(0.0449695 -4.17826e-09 7.80452e-15)
(0.0449695 -3.67879e-09 7.8366e-15)
(0.0449696 -2.94228e-09 8.17077e-15)
(0.0449696 -2.06822e-09 8.07095e-15)
(0.0449696 -1.01487e-09 7.9052e-15)
(0.0449696 2.28432e-10 8.13613e-15)
(0.0449696 1.48244e-09 8.18182e-15)
(0.0449695 2.6594e-09 8.24896e-15)
(0.0449695 3.73804e-09 8.29246e-15)
(0.0449695 4.6836e-09 8.04509e-15)
(0.0449694 5.61244e-09 8.29919e-15)
(0.0449694 6.40583e-09 8.14291e-15)
(0.0449694 6.87868e-09 8.29239e-15)
(0.0449693 7.23497e-09 8.33235e-15)
(0.0449693 7.42599e-09 8.15595e-15)
(0.0449692 7.62238e-09 8.24947e-15)
(0.0449692 7.77715e-09 8.24853e-15)
(0.0449691 7.70286e-09 8.42429e-15)
(0.0449691 7.66571e-09 8.42258e-15)
(0.044969 7.52679e-09 8.1939e-15)
(0.044969 7.13977e-09 8.30522e-15)
(0.0449689 6.59104e-09 8.28773e-15)
(0.0449689 6.14911e-09 8.39233e-15)
(0.0449688 5.81544e-09 8.4036e-15)
(0.0449688 5.40161e-09 8.94525e-15)
(0.0449688 5.03217e-09 8.17074e-15)
(0.0449687 4.70905e-09 8.2854e-15)
(0.0449687 4.19543e-09 8.60223e-15)
(0.0449687 3.5638e-09 7.99071e-15)
(0.0449687 2.7537e-09 8.67092e-15)
(0.0449686 1.70753e-09 7.94823e-15)
(0.0449686 1.00988e-09 8.04716e-15)
(0.0449686 7.0562e-10 8.27416e-15)
(0.0449686 6.17717e-10 7.73201e-15)
(0.0449686 7.50893e-10 8.47816e-15)
(0.0449686 7.33104e-10 7.79912e-15)
(0.0449686 5.91492e-10 7.95616e-15)
(0.0449686 3.54514e-10 8.23456e-15)
(0.0449686 -4.38088e-11 7.66585e-15)
(0.0449686 -4.66553e-10 8.34659e-15)
(0.0449686 -9.82934e-10 7.75651e-15)
(0.0449686 -1.4999e-09 7.91358e-15)
(0.0449686 -1.96336e-09 8.29218e-15)
(0.0449686 -2.2153e-09 7.57683e-15)
(0.0449686 -2.46526e-09 8.2448e-15)
(0.0449686 -2.02815e-09 7.79466e-15)
(0.0449687 -1.46365e-09 8.00657e-15)
(0.0449687 7.36218e-11 8.25716e-15)
(0.0449687 2.29622e-09 7.87017e-15)
(0.0449687 2.96111e-09 8.39864e-15)
(0.0449687 2.69934e-09 7.75506e-15)
(0.0449687 1.56818e-09 7.9519e-15)
(0.0449687 -4.35056e-12 8.22654e-15)
(0.0449687 -1.61412e-09 7.76667e-15)
(0.0449687 -3.13268e-09 8.1304e-15)
(0.0449687 -4.3352e-09 8.2861e-15)
(0.0449687 -5.32961e-09 8.1873e-15)
(0.0449688 -6.12105e-09 8.2948e-15)
(0.0449688 -6.75716e-09 7.83263e-15)
(0.0449689 -6.71323e-09 8.20849e-15)
(0.0449689 -5.66693e-09 8.31173e-15)
(0.0449689 -5.86036e-09 8.23372e-15)
(0.044969 -8.921e-10 8.34193e-15)
(0.0449689 -1.89966e-09 7.83418e-15)
(0.0524542 -2.24449e-08 9.56586e-15)
(0.0524544 -2.66155e-08 9.28281e-15)
(0.0524544 -1.85025e-08 9.23349e-15)
(0.0524544 -4.4045e-09 9.17529e-15)
(0.0524544 9.72453e-09 9.12037e-15)
(0.0524543 2.10376e-08 9.04063e-15)
(0.0524541 2.90185e-08 9.04796e-15)
(0.052454 3.40228e-08 9.13114e-15)
(0.0524538 3.62944e-08 9.14415e-15)
(0.0524537 3.59957e-08 9.11945e-15)
(0.0524535 3.40315e-08 9.22421e-15)
(0.0524533 3.13026e-08 8.77348e-15)
(0.0524532 2.82418e-08 8.83973e-15)
(0.0524531 2.48284e-08 8.516e-15)
(0.052453 2.1423e-08 8.49474e-15)
(0.0524529 1.80001e-08 9.06463e-15)
(0.0524528 1.43532e-08 8.47744e-15)
(0.0524527 1.09875e-08 8.5535e-15)
(0.0524527 7.74272e-09 8.03592e-15)
(0.0524527 4.49136e-09 8.21843e-15)
(0.0524527 1.48038e-09 8.32849e-15)
(0.0524527 -1.39025e-09 8.44443e-15)
(0.0524527 -4.11162e-09 8.48236e-15)
(0.0524527 -6.50421e-09 8.3076e-15)
(0.0524527 -8.53277e-09 8.46429e-15)
(0.0524528 -1.02211e-08 8.49124e-15)
(0.0524528 -1.19306e-08 8.3193e-15)
(0.0524529 -1.36541e-08 8.33832e-15)
(0.052453 -1.49562e-08 8.0079e-15)
(0.052453 -1.59809e-08 8.27905e-15)
(0.0524531 -1.70288e-08 8.32558e-15)
(0.0524532 -1.78584e-08 7.95711e-15)
(0.0524533 -1.84579e-08 8.19909e-15)
(0.0524534 -1.90753e-08 8.04971e-15)
(0.0524535 -1.96843e-08 8.24326e-15)
(0.0524536 -2.01028e-08 8.30732e-15)
(0.0524537 -2.03644e-08 7.93277e-15)
(0.0524538 -2.06021e-08 8.16434e-15)
(0.0524539 -2.06591e-08 7.95251e-15)
(0.052454 -2.06374e-08 8.14066e-15)
(0.0524541 -1.96122e-08 8.13941e-15)
(0.0524542 -1.81624e-08 8.49594e-15)
(0.0524543 -1.6074e-08 8.53297e-15)
(0.0524543 -1.35293e-08 8.57287e-15)
(0.0524544 -1.01373e-08 8.6043e-15)
(0.0524545 -5.46766e-09 8.58889e-15)
(0.0524545 -2.46553e-09 8.93587e-15)
(0.0524545 -1.07483e-09 8.95635e-15)
(0.0524545 -9.87773e-10 8.95637e-15)
(0.0524546 -1.81311e-09 8.92287e-15)
(0.0524546 -2.74548e-09 8.82678e-15)
(0.0524546 -3.76489e-09 9.21291e-15)
(0.0524546 -4.66664e-09 9.09843e-15)
(0.0524546 -5.28956e-09 9.37021e-15)
(0.0524547 -5.66535e-09 9.29266e-15)
(0.0524547 -5.79209e-09 8.91513e-15)
(0.0524547 -5.45986e-09 9.28641e-15)
(0.0524547 -4.72978e-09 9.18956e-15)
(0.0524547 -3.72117e-09 9.51245e-15)
(0.0524548 -2.49417e-09 9.49565e-15)
(0.0524548 -9.74113e-10 9.17073e-15)
(0.0524548 7.33302e-10 9.63722e-15)
(0.0524547 2.39759e-09 9.55173e-15)
(0.0524547 3.97581e-09 9.78904e-15)
(0.0524547 5.44177e-09 9.701e-15)
(0.0524547 6.73741e-09 9.30593e-15)
(0.0524546 7.98089e-09 9.65515e-15)
(0.0524546 9.0205e-09 9.53876e-15)
(0.0524545 9.64642e-09 9.82026e-15)
(0.0524545 1.01194e-08 9.79424e-15)
(0.0524544 1.04189e-08 9.42849e-15)
(0.0524544 1.06934e-08 9.76086e-15)
(0.0524543 1.08628e-08 9.6688e-15)
(0.0524543 1.07499e-08 9.97396e-15)
(0.0524542 1.06569e-08 9.90306e-15)
(0.0524541 1.04221e-08 9.51085e-15)
(0.0524541 9.90413e-09 9.86243e-15)
(0.0524541 9.18881e-09 9.71206e-15)
(0.052454 8.6041e-09 9.96446e-15)
(0.052454 8.16479e-09 9.83909e-15)
(0.0524539 7.60293e-09 1.04054e-14)
(0.0524539 7.08054e-09 9.88447e-15)
(0.0524538 6.61349e-09 9.7186e-15)
(0.0524538 5.92859e-09 1.02898e-14)
(0.0524538 5.0574e-09 9.80937e-15)