/*--------------------------------*- C++ -*----------------------------------*\
  =========                 |
  \\      /  F ield         | OpenFOAM: The Open Source CFD Toolbox
   \\    /   O peration     | Website:  https://openfoam.org
    \\  /    A nd           | Version:  7
     \\/     M anipulation  |
\*---------------------------------------------------------------------------*/
FoamFile
{
    version     2.0;
    format      ascii;
    class       volScalarField;
    location    "4000";
    object      nut;
}
// * * * * * * * * * * * * * * * * * * * * * * * * * * * * * * * * * * * * * //

dimensions      [0 2 -1 0 0 0 0];

internalField   nonuniform List<scalar> 
4037
(
0.000290594
0.000290601
0.000290606
0.00029061
0.000290613
0.000290616
0.000290618
0.00029062
0.000290622
0.000290624
0.000290626
0.000290627
0.000290629
0.00029063
0.000290631
0.000290633
0.000290634
0.000290635
0.000290636
0.000290637
0.000290638
0.000290639
0.00029064
0.000290641
0.000290642
0.000290643
0.000290644
0.000290645
0.000290646
0.000290647
0.000290647
0.000290648
0.000290649
0.00029065
0.000290651
0.000290652
0.000290652
0.000290653
0.000290654
0.000290655
0.000290656
0.000290656
0.000290657
0.000290658
0.000290658
0.000290659
0.00029066
0.000290661
0.000290661
0.000290662
0.000290662
0.000290663
0.000290664
0.000290664
0.000290665
0.000290665
0.000290666
0.000290666
0.000290667
0.000290667
0.000290668
0.000290668
0.000290668
0.000290669
0.000290669
0.000290669
0.00029067
0.00029067
0.00029067
0.00029067
0.000290671
0.000290671
0.000290671
0.000290671
0.000290671
0.000290671
0.000290673
0.000275831
0.000275824
0.000275823
0.000275823
0.000275822
0.000275822
0.000275822
0.000275822
0.000275822
0.000275822
0.000275822
0.000275822
0.000275822
0.000275823
0.000275823
0.000275824
0.000275824
0.000275825
0.000275825
0.000275825
0.000275825
0.000275825
0.000275826
0.000275825
0.000275841
0.00027585
0.000275856
0.000275861
0.000275864
0.000275867
0.00027587
0.000275872
0.000275874
0.000275876
0.000275877
0.000275879
0.000275881
0.000275882
0.000275883
0.000275885
0.000275886
0.000275887
0.000275888
0.000275889
0.00027589
0.000275891
0.000275892
0.000275893
0.000275894
0.000275895
0.000275896
0.000275897
0.000275898
0.000275899
0.0002759
0.000275901
0.000275902
0.000275902
0.000275903
0.000275904
0.000275905
0.000275906
0.000275906
0.000275907
0.000275908
0.000275909
0.000275909
0.00027591
0.000275911
0.000275911
0.000275912
0.000275913
0.000275913
0.000275914
0.000275914
0.000275915
0.000275916
0.000275916
0.000275917
0.000275917
0.000275918
0.000275918
0.000275919
0.000275919
0.000275919
0.00027592
0.00027592
0.00027592
0.000275921
0.000275921
0.000275921
0.000275922
0.000275922
0.000275922
0.000275922
0.000275922
0.000275923
0.000275923
0.000275923
0.000275923
0.000275925
0.000275899
0.000275889
0.000275885
0.000275882
0.00027588
0.000275877
0.000275875
0.000275873
0.000275872
0.00027587
0.000275868
0.000275866
0.000275865
0.000275863
0.000275862
0.00027586
0.000275859
0.000275857
0.00027586
0.00026149
0.000261482
0.00026148
0.00026148
0.000261479
0.000261479
0.000261479
0.000261479
0.000261479
0.000261479
0.000261479
0.000261479
0.000261479
0.000261479
0.00026148
0.00026148
0.000261481
0.000261481
0.000261482
0.000261482
0.000261482
0.000261483
0.000261483
0.000261482
0.000261489
0.000261497
0.000261503
0.000261507
0.000261511
0.000261514
0.000261516
0.000261518
0.00026152
0.000261522
0.000261524
0.000261526
0.000261527
0.000261529
0.00026153
0.000261531
0.000261533
0.000261534
0.000261535
0.000261536
0.000261537
0.000261538
0.000261539
0.00026154
0.000261541
0.000261542
0.000261543
0.000261544
0.000261545
0.000261546
0.000261547
0.000261547
0.000261548
0.000261549
0.00026155
0.000261551
0.000261551
0.000261552
0.000261553
0.000261554
0.000261554
0.000261555
0.000261556
0.000261556
0.000261557
0.000261558
0.000261558
0.000261559
0.00026156
0.00026156
0.000261561
0.000261561
0.000261562
0.000261562
0.000261563
0.000261563
0.000261564
0.000261564
0.000261565
0.000261565
0.000261565
0.000261566
0.000261566
0.000261566
0.000261567
0.000261567
0.000261567
0.000261568
0.000261568
0.000261568
0.000261568
0.000261568
0.000261569
0.000261569
0.000261569
0.000261569
0.000261571
0.000261559
0.00026155
0.000261544
0.00026154
0.000261537
0.000261535
0.000261533
0.000261531
0.000261529
0.000261527
0.000261526
0.000261524
0.000261523
0.000261521
0.00026152
0.000261518
0.000261517
0.000261515
0.000261518
0.00024752
0.000247513
0.00024751
0.000247509
0.000247509
0.000247509
0.000247508
0.000247508
0.000247508
0.000247508
0.000247508
0.000247508
0.000247508
0.000247509
0.000247509
0.00024751
0.00024751
0.000247511
0.000247511
0.000247511
0.000247512
0.000247512
0.000247512
0.000247512
0.000247515
0.00024752
0.000247525
0.000247529
0.000247532
0.000247535
0.000247537
0.000247539
0.000247542
0.000247543
0.000247545
0.000247547
0.000247548
0.00024755
0.000247551
0.000247552
0.000247554
0.000247555
0.000247556
0.000247557
0.000247558
0.000247559
0.00024756
0.000247561
0.000247562
0.000247563
0.000247564
0.000247565
0.000247566
0.000247567
0.000247567
0.000247568
0.000247569
0.00024757
0.000247571
0.000247571
0.000247572
0.000247573
0.000247574
0.000247574
0.000247575
0.000247576
0.000247576
0.000247577
0.000247577
0.000247578
0.000247579
0.000247579
0.00024758
0.00024758
0.000247581
0.000247581
0.000247582
0.000247582
0.000247583
0.000247583
0.000247584
0.000247584
0.000247585
0.000247585
0.000247585
0.000247586
0.000247586
0.000247586
0.000247587
0.000247587
0.000247587
0.000247587
0.000247588
0.000247588
0.000247588
0.000247588
0.000247588
0.000247588
0.000247589
0.000247588
0.00024759
0.000247585
0.000247578
0.000247573
0.000247569
0.000247566
0.000247564
0.000247562
0.00024756
0.000247558
0.000247557
0.000247555
0.000247554
0.000247552
0.000247551
0.000247549
0.000247548
0.000247547
0.000247545
0.000247548
0.000233904
0.000233896
0.000233894
0.000233893
0.000233892
0.000233892
0.000233891
0.000233891
0.000233891
0.000233891
0.000233891
0.000233891
0.000233891
0.000233892
0.000233892
0.000233893
0.000233893
0.000233894
0.000233894
0.000233894
0.000233895
0.000233895
0.000233895
0.000233895
0.000233897
0.0002339
0.000233903
0.000233906
0.000233909
0.000233912
0.000233914
0.000233916
0.000233918
0.00023392
0.000233922
0.000233923
0.000233925
0.000233926
0.000233927
0.000233929
0.00023393
0.000233931
0.000233932
0.000233933
0.000233934
0.000233935
0.000233936
0.000233937
0.000233938
0.000233939
0.00023394
0.000233941
0.000233942
0.000233942
0.000233943
0.000233944
0.000233945
0.000233946
0.000233946
0.000233947
0.000233948
0.000233948
0.000233949
0.00023395
0.00023395
0.000233951
0.000233952
0.000233952
0.000233953
0.000233953
0.000233954
0.000233955
0.000233955
0.000233956
0.000233956
0.000233957
0.000233957
0.000233957
0.000233958
0.000233958
0.000233959
0.000233959
0.000233959
0.00023396
0.00023396
0.000233961
0.000233961
0.000233961
0.000233961
0.000233962
0.000233962
0.000233962
0.000233962
0.000233962
0.000233963
0.000233963
0.000233963
0.000233963
0.000233963
0.000233963
0.000233964
0.000233962
0.000233958
0.000233954
0.000233951
0.000233948
0.000233946
0.000233944
0.000233942
0.00023394
0.000233939
0.000233937
0.000233936
0.000233935
0.000233933
0.000233932
0.000233931
0.00023393
0.000233928
0.000233931
0.000220624
0.000220616
0.000220614
0.000220612
0.000220612
0.000220611
0.000220611
0.000220611
0.000220611
0.000220611
0.00022061
0.00022061
0.000220611
0.000220611
0.000220612
0.000220612
0.000220613
0.000220613
0.000220614
0.000220614
0.000220614
0.000220615
0.000220615
0.000220615
0.000220616
0.000220618
0.00022062
0.000220622
0.000220625
0.000220627
0.000220629
0.000220631
0.000220633
0.000220634
0.000220636
0.000220637
0.000220639
0.00022064
0.000220642
0.000220643
0.000220644
0.000220645
0.000220646
0.000220647
0.000220648
0.000220649
0.00022065
0.000220651
0.000220652
0.000220653
0.000220654
0.000220654
0.000220655
0.000220656
0.000220657
0.000220658
0.000220658
0.000220659
0.00022066
0.00022066
0.000220661
0.000220662
0.000220662
0.000220663
0.000220664
0.000220664
0.000220665
0.000220665
0.000220666
0.000220666
0.000220667
0.000220667
0.000220668
0.000220668
0.000220669
0.000220669
0.00022067
0.00022067
0.000220671
0.000220671
0.000220671
0.000220672
0.000220672
0.000220672
0.000220673
0.000220673
0.000220673
0.000220674
0.000220674
0.000220674
0.000220674
0.000220674
0.000220675
0.000220675
0.000220675
0.000220675
0.000220675
0.000220675
0.000220676
0.000220676
0.000220676
0.000220675
0.000220673
0.000220671
0.000220668
0.000220666
0.000220664
0.000220662
0.00022066
0.000220659
0.000220657
0.000220656
0.000220654
0.000220653
0.000220652
0.000220651
0.00022065
0.000220649
0.000220647
0.00022065
0.000207664
0.000207657
0.000207655
0.000207653
0.000207652
0.000207652
0.000207652
0.000207651
0.000207651
0.000207651
0.000207651
0.000207651
0.000207651
0.000207652
0.000207652
0.000207653
0.000207653
0.000207654
0.000207654
0.000207654
0.000207655
0.000207655
0.000207655
0.000207656
0.000207656
0.000207657
0.000207659
0.000207661
0.000207662
0.000207664
0.000207666
0.000207668
0.000207669
0.000207671
0.000207672
0.000207674
0.000207675
0.000207676
0.000207678
0.000207679
0.00020768
0.000207681
0.000207682
0.000207683
0.000207684
0.000207685
0.000207686
0.000207687
0.000207688
0.000207688
0.000207689
0.00020769
0.000207691
0.000207692
0.000207692
0.000207693
0.000207694
0.000207694
0.000207695
0.000207696
0.000207696
0.000207697
0.000207698
0.000207698
0.000207699
0.000207699
0.0002077
0.0002077
0.000207701
0.000207701
0.000207702
0.000207702
0.000207703
0.000207703
0.000207704
0.000207704
0.000207704
0.000207705
0.000207705
0.000207705
0.000207706
0.000207706
0.000207706
0.000207707
0.000207707
0.000207707
0.000207708
0.000207708
0.000207708
0.000207708
0.000207708
0.000207709
0.000207709
0.000207709
0.000207709
0.000207709
0.000207709
0.000207709
0.00020771
0.00020771
0.00020771
0.00020771
0.000207709
0.000207707
0.000207705
0.000207703
0.000207701
0.0002077
0.000207698
0.000207697
0.000207696
0.000207695
0.000207693
0.000207692
0.000207691
0.00020769
0.000207689
0.000207688
0.000207686
0.00020769
0.000195012
0.000195005
0.000195002
0.000195001
0.000195
0.000195
0.000194999
0.000194999
0.000194999
0.000194999
0.000194999
0.000194999
0.000194999
0.000194999
0.000194999
0.000195
0.000195
0.000195001
0.000195001
0.000195002
0.000195002
0.000195002
0.000195003
0.000195003
0.000195003
0.000195004
0.000195005
0.000195006
0.000195008
0.000195009
0.000195011
0.000195012
0.000195014
0.000195015
0.000195017
0.000195018
0.000195019
0.00019502
0.000195021
0.000195023
0.000195024
0.000195025
0.000195026
0.000195027
0.000195028
0.000195028
0.000195029
0.00019503
0.000195031
0.000195032
0.000195033
0.000195033
0.000195034
0.000195035
0.000195035
0.000195036
0.000195037
0.000195037
0.000195038
0.000195039
0.000195039
0.00019504
0.00019504
0.000195041
0.000195041
0.000195042
0.000195042
0.000195043
0.000195043
0.000195044
0.000195044
0.000195045
0.000195045
0.000195045
0.000195046
0.000195046
0.000195046
0.000195047
0.000195047
0.000195048
0.000195048
0.000195048
0.000195048
0.000195049
0.000195049
0.000195049
0.000195049
0.00019505
0.00019505
0.00019505
0.00019505
0.00019505
0.000195051
0.000195051
0.000195051
0.000195051
0.000195051
0.000195051
0.000195051
0.000195051
0.000195051
0.000195051
0.000195051
0.00019505
0.000195049
0.000195047
0.000195046
0.000195045
0.000195043
0.000195042
0.000195041
0.00019504
0.000195039
0.000195038
0.000195037
0.000195036
0.000195035
0.000195034
0.000195032
0.000195036
0.000182653
0.000182647
0.000182644
0.000182643
0.000182642
0.000182642
0.000182641
0.000182641
0.000182641
0.000182641
0.000182641
0.000182641
0.000182641
0.000182641
0.000182641
0.000182642
0.000182642
0.000182643
0.000182643
0.000182643
0.000182644
0.000182644
0.000182645
0.000182645
0.000182645
0.000182646
0.000182646
0.000182647
0.000182649
0.00018265
0.000182651
0.000182652
0.000182654
0.000182655
0.000182656
0.000182657
0.000182658
0.000182659
0.00018266
0.000182662
0.000182663
0.000182663
0.000182664
0.000182665
0.000182666
0.000182667
0.000182668
0.000182669
0.000182669
0.00018267
0.000182671
0.000182672
0.000182672
0.000182673
0.000182674
0.000182674
0.000182675
0.000182675
0.000182676
0.000182677
0.000182677
0.000182678
0.000182678
0.000182679
0.000182679
0.00018268
0.00018268
0.00018268
0.000182681
0.000182681
0.000182682
0.000182682
0.000182682
0.000182683
0.000182683
0.000182683
0.000182684
0.000182684
0.000182684
0.000182685
0.000182685
0.000182685
0.000182685
0.000182686
0.000182686
0.000182686
0.000182686
0.000182687
0.000182687
0.000182687
0.000182687
0.000182687
0.000182687
0.000182688
0.000182688
0.000182688
0.000182688
0.000182688
0.000182688
0.000182688
0.000182688
0.000182688
0.000182688
0.000182687
0.000182687
0.000182686
0.000182685
0.000182684
0.000182682
0.000182681
0.00018268
0.00018268
0.000182679
0.000182678
0.000182677
0.000182676
0.000182675
0.000182674
0.000182673
0.000182676
0.000170579
0.000170573
0.00017057
0.000170569
0.000170568
0.000170568
0.000170567
0.000170567
0.000170567
0.000170566
0.000170566
0.000170566
0.000170566
0.000170567
0.000170567
0.000170567
0.000170568
0.000170568
0.000170569
0.000170569
0.000170569
0.00017057
0.00017057
0.00017057
0.000170571
0.000170571
0.000170572
0.000170572
0.000170573
0.000170574
0.000170575
0.000170576
0.000170577
0.000170578
0.00017058
0.000170581
0.000170582
0.000170583
0.000170584
0.000170585
0.000170586
0.000170586
0.000170587
0.000170588
0.000170589
0.00017059
0.000170591
0.000170591
0.000170592
0.000170593
0.000170593
0.000170594
0.000170595
0.000170595
0.000170596
0.000170597
0.000170597
0.000170598
0.000170598
0.000170599
0.000170599
0.0001706
0.0001706
0.000170601
0.000170601
0.000170601
0.000170602
0.000170602
0.000170603
0.000170603
0.000170603
0.000170604
0.000170604
0.000170604
0.000170605
0.000170605
0.000170605
0.000170605
0.000170606
0.000170606
0.000170606
0.000170606
0.000170607
0.000170607
0.000170607
0.000170607
0.000170607
0.000170608
0.000170608
0.000170608
0.000170608
0.000170608
0.000170608
0.000170609
0.000170609
0.000170609
0.000170609
0.000170609
0.000170609
0.000170609
0.000170609
0.000170609
0.000170609
0.000170609
0.000170608
0.000170608
0.000170607
0.000170606
0.000170605
0.000170604
0.000170603
0.000170603
0.000170602
0.000170601
0.0001706
0.000170599
0.000170599
0.000170598
0.000170596
0.0001706
0.000158779
0.000158773
0.000158771
0.00015877
0.000158769
0.000158768
0.000158768
0.000158767
0.000158767
0.000158767
0.000158767
0.000158767
0.000158767
0.000158767
0.000158767
0.000158768
0.000158768
0.000158768
0.000158769
0.000158769
0.000158769
0.00015877
0.00015877
0.00015877
0.000158771
0.000158771
0.000158771
0.000158772
0.000158773
0.000158774
0.000158774
0.000158775
0.000158776
0.000158777
0.000158778
0.000158779
0.00015878
0.000158781
0.000158782
0.000158783
0.000158784
0.000158785
0.000158785
0.000158786
0.000158787
0.000158788
0.000158788
0.000158789
0.00015879
0.00015879
0.000158791
0.000158792
0.000158792
0.000158793
0.000158793
0.000158794
0.000158794
0.000158795
0.000158795
0.000158796
0.000158796
0.000158797
0.000158797
0.000158797
0.000158798
0.000158798
0.000158799
0.000158799
0.000158799
0.0001588
0.0001588
0.0001588
0.000158801
0.000158801
0.000158801
0.000158801
0.000158802
0.000158802
0.000158802
0.000158802
0.000158803
0.000158803
0.000158803
0.000158803
0.000158803
0.000158803
0.000158804
0.000158804
0.000158804
0.000158804
0.000158804
0.000158804
0.000158804
0.000158805
0.000158805
0.000158805
0.000158805
0.000158805
0.000158805
0.000158805
0.000158805
0.000158805
0.000158805
0.000158805
0.000158805
0.000158804
0.000158804
0.000158803
0.000158802
0.000158802
0.000158801
0.0001588
0.0001588
0.000158799
0.000158798
0.000158798
0.000158797
0.000158796
0.000158795
0.000158798
0.000147246
0.000147241
0.000147239
0.000147238
0.000147237
0.000147236
0.000147236
0.000147235
0.000147235
0.000147235
0.000147235
0.000147235
0.000147235
0.000147235
0.000147235
0.000147235
0.000147236
0.000147236
0.000147236
0.000147237
0.000147237
0.000147237
0.000147237
0.000147238
0.000147238
0.000147238
0.000147239
0.000147239
0.00014724
0.000147241
0.000147241
0.000147242
0.000147243
0.000147244
0.000147245
0.000147246
0.000147246
0.000147247
0.000147248
0.000147249
0.00014725
0.00014725
0.000147251
0.000147252
0.000147253
0.000147253
0.000147254
0.000147254
0.000147255
0.000147256
0.000147256
0.000147257
0.000147257
0.000147258
0.000147258
0.000147259
0.000147259
0.00014726
0.00014726
0.000147261
0.000147261
0.000147261
0.000147262
0.000147262
0.000147263
0.000147263
0.000147263
0.000147264
0.000147264
0.000147264
0.000147264
0.000147265
0.000147265
0.000147265
0.000147265
0.000147266
0.000147266
0.000147266
0.000147266
0.000147266
0.000147267
0.000147267
0.000147267
0.000147267
0.000147267
0.000147267
0.000147268
0.000147268
0.000147268
0.000147268
0.000147268
0.000147268
0.000147268
0.000147268
0.000147268
0.000147269
0.000147269
0.000147269
0.000147269
0.000147269
0.000147269
0.000147269
0.000147269
0.000147269
0.000147269
0.000147268
0.000147268
0.000147267
0.000147267
0.000147266
0.000147266
0.000147265
0.000147265
0.000147264
0.000147263
0.000147263
0.000147262
0.000147262
0.000147261
0.000147263
0.000135976
0.000135971
0.000135969
0.000135968
0.000135967
0.000135966
0.000135966
0.000135966
0.000135965
0.000135965
0.000135965
0.000135965
0.000135965
0.000135965
0.000135965
0.000135965
0.000135965
0.000135966
0.000135966
0.000135966
0.000135967
0.000135967
0.000135967
0.000135967
0.000135968
0.000135968
0.000135969
0.000135969
0.000135969
0.00013597
0.000135971
0.000135971
0.000135972
0.000135973
0.000135974
0.000135974
0.000135975
0.000135976
0.000135977
0.000135977
0.000135978
0.000135979
0.000135979
0.00013598
0.000135981
0.000135981
0.000135982
0.000135982
0.000135983
0.000135984
0.000135984
0.000135985
0.000135985
0.000135986
0.000135986
0.000135986
0.000135987
0.000135987
0.000135988
0.000135988
0.000135988
0.000135989
0.000135989
0.000135989
0.00013599
0.00013599
0.00013599
0.000135991
0.000135991
0.000135991
0.000135991
0.000135992
0.000135992
0.000135992
0.000135992
0.000135992
0.000135993
0.000135993
0.000135993
0.000135993
0.000135993
0.000135993
0.000135994
0.000135994
0.000135994
0.000135994
0.000135994
0.000135994
0.000135994
0.000135994
0.000135995
0.000135995
0.000135995
0.000135995
0.000135995
0.000135995
0.000135995
0.000135995
0.000135995
0.000135995
0.000135995
0.000135995
0.000135995
0.000135995
0.000135995
0.000135995
0.000135995
0.000135994
0.000135994
0.000135993
0.000135993
0.000135992
0.000135992
0.000135991
0.000135991
0.00013599
0.00013599
0.00013599
0.000135988
0.000135991
0.000124965
0.00012496
0.000124958
0.000124957
0.000124956
0.000124956
0.000124955
0.000124955
0.000124954
0.000124954
0.000124954
0.000124954
0.000124954
0.000124954
0.000124954
0.000124954
0.000124954
0.000124955
0.000124955
0.000124955
0.000124955
0.000124956
0.000124956
0.000124956
0.000124957
0.000124957
0.000124957
0.000124958
0.000124958
0.000124959
0.000124959
0.00012496
0.00012496
0.000124961
0.000124962
0.000124962
0.000124963
0.000124964
0.000124964
0.000124965
0.000124966
0.000124966
0.000124967
0.000124967
0.000124968
0.000124969
0.000124969
0.00012497
0.00012497
0.000124971
0.000124971
0.000124972
0.000124972
0.000124972
0.000124973
0.000124973
0.000124974
0.000124974
0.000124974
0.000124975
0.000124975
0.000124975
0.000124976
0.000124976
0.000124976
0.000124976
0.000124977
0.000124977
0.000124977
0.000124977
0.000124977
0.000124978
0.000124978
0.000124978
0.000124978
0.000124978
0.000124979
0.000124979
0.000124979
0.000124979
0.000124979
0.000124979
0.000124979
0.00012498
0.00012498
0.00012498
0.00012498
0.00012498
0.00012498
0.00012498
0.00012498
0.00012498
0.00012498
0.00012498
0.00012498
0.000124981
0.000124981
0.000124981
0.000124981
0.000124981
0.000124981
0.000124981
0.000124981
0.000124981
0.000124981
0.000124981
0.00012498
0.00012498
0.00012498
0.00012498
0.000124979
0.000124979
0.000124978
0.000124978
0.000124978
0.000124977
0.000124977
0.000124976
0.000124975
0.000124977
0.000114211
0.000114208
0.000114206
0.000114205
0.000114204
0.000114203
0.000114203
0.000114202
0.000114202
0.000114202
0.000114201
0.000114201
0.000114201
0.000114201
0.000114201
0.000114201
0.000114201
0.000114202
0.000114202
0.000114202
0.000114202
0.000114203
0.000114203
0.000114203
0.000114203
0.000114204
0.000114204
0.000114204
0.000114205
0.000114205
0.000114206
0.000114206
0.000114207
0.000114207
0.000114208
0.000114209
0.000114209
0.00011421
0.00011421
0.000114211
0.000114211
0.000114212
0.000114213
0.000114213
0.000114214
0.000114214
0.000114215
0.000114215
0.000114216
0.000114216
0.000114216
0.000114217
0.000114217
0.000114218
0.000114218
0.000114218
0.000114219
0.000114219
0.000114219
0.00011422
0.00011422
0.00011422
0.00011422
0.000114221
0.000114221
0.000114221
0.000114221
0.000114221
0.000114222
0.000114222
0.000114222
0.000114222
0.000114222
0.000114222
0.000114223
0.000114223
0.000114223
0.000114223
0.000114223
0.000114223
0.000114223
0.000114224
0.000114224
0.000114224
0.000114224
0.000114224
0.000114224
0.000114224
0.000114224
0.000114224
0.000114224
0.000114224
0.000114224
0.000114224
0.000114225
0.000114225
0.000114225
0.000114225
0.000114225
0.000114225
0.000114225
0.000114225
0.000114225
0.000114225
0.000114225
0.000114225
0.000114225
0.000114224
0.000114224
0.000114224
0.000114224
0.000114223
0.000114223
0.000114223
0.000114222
0.000114222
0.000114221
0.000114221
0.00011422
0.000114222
0.000103718
0.000103715
0.000103713
0.000103712
0.000103711
0.00010371
0.00010371
0.000103709
0.000103709
0.000103709
0.000103708
0.000103708
0.000103708
0.000103708
0.000103708
0.000103708
0.000103708
0.000103708
0.000103709
0.000103709
0.000103709
0.000103709
0.00010371
0.00010371
0.00010371
0.00010371
0.000103711
0.000103711
0.000103711
0.000103712
0.000103712
0.000103713
0.000103713
0.000103714
0.000103714
0.000103715
0.000103715
0.000103716
0.000103716
0.000103717
0.000103717
0.000103718
0.000103718
0.000103719
0.000103719
0.00010372
0.00010372
0.000103721
0.000103721
0.000103721
0.000103722
0.000103722
0.000103722
0.000103723
0.000103723
0.000103723
0.000103724
0.000103724
0.000103724
0.000103724
0.000103725
0.000103725
0.000103725
0.000103725
0.000103726
0.000103726
0.000103726
0.000103726
0.000103726
0.000103726
0.000103727
0.000103727
0.000103727
0.000103727
0.000103727
0.000103727
0.000103727
0.000103727
0.000103727
0.000103728
0.000103728
0.000103728
0.000103728
0.000103728
0.000103728
0.000103728
0.000103728
0.000103728
0.000103728
0.000103728
0.000103728
0.000103729
0.000103729
0.000103729
0.000103729
0.000103729
0.000103729
0.000103729
0.000103729
0.000103729
0.000103729
0.000103729
0.000103729
0.000103729
0.000103729
0.000103729
0.000103729
0.000103729
0.000103728
0.000103728
0.000103728
0.000103728
0.000103727
0.000103727
0.000103727
0.000103727
0.000103726
0.000103726
0.000103725
0.000103727
9.34888e-05
9.34862e-05
9.34848e-05
9.34837e-05
9.34829e-05
9.34822e-05
9.34816e-05
9.34811e-05
9.34806e-05
9.34803e-05
9.34799e-05
9.34797e-05
9.34795e-05
9.34794e-05
9.34794e-05
9.34795e-05
9.34796e-05
9.34797e-05
9.34799e-05
9.34801e-05
9.34803e-05
9.34805e-05
9.34808e-05
9.3481e-05
9.34813e-05
9.34816e-05
9.34819e-05
9.34822e-05
9.34826e-05
9.34829e-05
9.34833e-05
9.34836e-05
9.34841e-05
9.34845e-05
9.34849e-05
9.34854e-05
9.34858e-05
9.34863e-05
9.34867e-05
9.34872e-05
9.34876e-05
9.34881e-05
9.34885e-05
9.34889e-05
9.34893e-05
9.34897e-05
9.34901e-05
9.34905e-05
9.34909e-05
9.34912e-05
9.34916e-05
9.34919e-05
9.34922e-05
9.34925e-05
9.34928e-05
9.3493e-05
9.34933e-05
9.34935e-05
9.34937e-05
9.34939e-05
9.34941e-05
9.34943e-05
9.34945e-05
9.34947e-05
9.34948e-05
9.3495e-05
9.34951e-05
9.34953e-05
9.34954e-05
9.34955e-05
9.34957e-05
9.34958e-05
9.34959e-05
9.3496e-05
9.34961e-05
9.34962e-05
9.34963e-05
9.34964e-05
9.34964e-05
9.34965e-05
9.34966e-05
9.34967e-05
9.34968e-05
9.34968e-05
9.34969e-05
9.3497e-05
9.3497e-05
9.34971e-05
9.34972e-05
9.34972e-05
9.34973e-05
9.34973e-05
9.34973e-05
9.34974e-05
9.34974e-05
9.34975e-05
9.34975e-05
9.34975e-05
9.34975e-05
9.34976e-05
9.34976e-05
9.34976e-05
9.34976e-05
9.34976e-05
9.34976e-05
9.34976e-05
9.34975e-05
9.34974e-05
9.34973e-05
9.34972e-05
9.3497e-05
9.34968e-05
9.34966e-05
9.34963e-05
9.34961e-05
9.34958e-05
9.34955e-05
9.34953e-05
9.34946e-05
9.34958e-05
8.35321e-05
8.353e-05
8.35287e-05
8.35277e-05
8.35269e-05
8.35262e-05
8.35255e-05
8.3525e-05
8.35245e-05
8.35241e-05
8.35238e-05
8.35235e-05
8.35233e-05
8.35232e-05
8.35232e-05
8.35232e-05
8.35233e-05
8.35234e-05
8.35235e-05
8.35237e-05
8.35239e-05
8.35241e-05
8.35244e-05
8.35246e-05
8.35249e-05
8.35251e-05
8.35254e-05
8.35257e-05
8.3526e-05
8.35263e-05
8.35266e-05
8.3527e-05
8.35273e-05
8.35277e-05
8.35281e-05
8.35285e-05
8.35288e-05
8.35292e-05
8.35296e-05
8.353e-05
8.35304e-05
8.35308e-05
8.35312e-05
8.35316e-05
8.35319e-05
8.35323e-05
8.35326e-05
8.35329e-05
8.35332e-05
8.35335e-05
8.35338e-05
8.35341e-05
8.35344e-05
8.35346e-05
8.35349e-05
8.35351e-05
8.35353e-05
8.35355e-05
8.35357e-05
8.35359e-05
8.3536e-05
8.35362e-05
8.35363e-05
8.35365e-05
8.35366e-05
8.35368e-05
8.35369e-05
8.3537e-05
8.35371e-05
8.35372e-05
8.35373e-05
8.35374e-05
8.35375e-05
8.35376e-05
8.35376e-05
8.35377e-05
8.35378e-05
8.35379e-05
8.35379e-05
8.3538e-05
8.35381e-05
8.35381e-05
8.35382e-05
8.35383e-05
8.35383e-05
8.35384e-05
8.35384e-05
8.35385e-05
8.35385e-05
8.35386e-05
8.35386e-05
8.35386e-05
8.35387e-05
8.35387e-05
8.35387e-05
8.35388e-05
8.35388e-05
8.35388e-05
8.35388e-05
8.35389e-05
8.35389e-05
8.35389e-05
8.35389e-05
8.35389e-05
8.35389e-05
8.35389e-05
8.35389e-05
8.35388e-05
8.35387e-05
8.35386e-05
8.35385e-05
8.35383e-05
8.35381e-05
8.35379e-05
8.35377e-05
8.35375e-05
8.35372e-05
8.3537e-05
8.35365e-05
8.35374e-05
7.38597e-05
7.38581e-05
7.38569e-05
7.3856e-05
7.38552e-05
7.38545e-05
7.38538e-05
7.38532e-05
7.38528e-05
7.38523e-05
7.3852e-05
7.38517e-05
7.38515e-05
7.38514e-05
7.38513e-05
7.38513e-05
7.38514e-05
7.38515e-05
7.38516e-05
7.38518e-05
7.38519e-05
7.38521e-05
7.38523e-05
7.38526e-05
7.38528e-05
7.38531e-05
7.38533e-05
7.38536e-05
7.38538e-05
7.38541e-05
7.38544e-05
7.38547e-05
7.3855e-05
7.38553e-05
7.38556e-05
7.38559e-05
7.38563e-05
7.38566e-05
7.3857e-05
7.38573e-05
7.38576e-05
7.3858e-05
7.38583e-05
7.38586e-05
7.38589e-05
7.38592e-05
7.38595e-05
7.38598e-05
7.38601e-05
7.38603e-05
7.38606e-05
7.38608e-05
7.3861e-05
7.38613e-05
7.38615e-05
7.38617e-05
7.38618e-05
7.3862e-05
7.38621e-05
7.38623e-05
7.38624e-05
7.38626e-05
7.38627e-05
7.38628e-05
7.38629e-05
7.3863e-05
7.38631e-05
7.38632e-05
7.38633e-05
7.38634e-05
7.38635e-05
7.38635e-05
7.38636e-05
7.38637e-05
7.38637e-05
7.38638e-05
7.38639e-05
7.38639e-05
7.3864e-05
7.3864e-05
7.38641e-05
7.38641e-05
7.38642e-05
7.38642e-05
7.38643e-05
7.38643e-05
7.38644e-05
7.38644e-05
7.38645e-05
7.38645e-05
7.38645e-05
7.38646e-05
7.38646e-05
7.38646e-05
7.38646e-05
7.38647e-05
7.38647e-05
7.38647e-05
7.38647e-05
7.38647e-05
7.38647e-05
7.38648e-05
7.38648e-05
7.38648e-05
7.38648e-05
7.38648e-05
7.38647e-05
7.38647e-05
7.38646e-05
7.38646e-05
7.38645e-05
7.38643e-05
7.38642e-05
7.3864e-05
7.38638e-05
7.38637e-05
7.38634e-05
7.38633e-05
7.38628e-05
7.38634e-05
6.44887e-05
6.44874e-05
6.44865e-05
6.44856e-05
6.44848e-05
6.4484e-05
6.44834e-05
6.44828e-05
6.44823e-05
6.44819e-05
6.44815e-05
6.44813e-05
6.44811e-05
6.44809e-05
6.44808e-05
6.44808e-05
6.44809e-05
6.4481e-05
6.44811e-05
6.44812e-05
6.44814e-05
6.44815e-05
6.44817e-05
6.44819e-05
6.44822e-05
6.44824e-05
6.44826e-05
6.44828e-05
6.44831e-05
6.44833e-05
6.44835e-05
6.44838e-05
6.4484e-05
6.44843e-05
6.44846e-05
6.44849e-05
6.44851e-05
6.44854e-05
6.44857e-05
6.4486e-05
6.44863e-05
6.44866e-05
6.44868e-05
6.44871e-05
6.44874e-05
6.44876e-05
6.44879e-05
6.44881e-05
6.44883e-05
6.44886e-05
6.44888e-05
6.4489e-05
6.44892e-05
6.44894e-05
6.44895e-05
6.44897e-05
6.44898e-05
6.449e-05
6.44901e-05
6.44902e-05
6.44903e-05
6.44904e-05
6.44905e-05
6.44906e-05
6.44907e-05
6.44908e-05
6.44909e-05
6.4491e-05
6.4491e-05
6.44911e-05
6.44912e-05
6.44912e-05
6.44913e-05
6.44913e-05
6.44914e-05
6.44914e-05
6.44915e-05
6.44915e-05
6.44916e-05
6.44916e-05
6.44916e-05
6.44917e-05
6.44917e-05
6.44918e-05
6.44918e-05
6.44919e-05
6.44919e-05
6.44919e-05
6.4492e-05
6.4492e-05
6.4492e-05
6.4492e-05
6.44921e-05
6.44921e-05
6.44921e-05
6.44921e-05
6.44921e-05
6.44922e-05
6.44922e-05
6.44922e-05
6.44922e-05
6.44922e-05
6.44922e-05
6.44922e-05
6.44922e-05
6.44922e-05
6.44922e-05
6.44922e-05
6.44921e-05
6.44921e-05
6.4492e-05
6.44919e-05
6.44918e-05
6.44917e-05
6.44915e-05
6.44914e-05
6.44912e-05
6.4491e-05
6.44907e-05
6.4491e-05
5.54424e-05
5.54415e-05
5.54407e-05
5.54399e-05
5.54391e-05
5.54383e-05
5.54377e-05
5.54371e-05
5.54366e-05
5.54362e-05
5.54359e-05
5.54356e-05
5.54354e-05
5.54353e-05
5.54352e-05
5.54352e-05
5.54352e-05
5.54353e-05
5.54354e-05
5.54355e-05
5.54356e-05
5.54358e-05
5.5436e-05
5.54362e-05
5.54363e-05
5.54365e-05
5.54367e-05
5.54369e-05
5.54371e-05
5.54373e-05
5.54375e-05
5.54377e-05
5.5438e-05
5.54382e-05
5.54384e-05
5.54386e-05
5.54389e-05
5.54391e-05
5.54393e-05
5.54396e-05
5.54398e-05
5.54401e-05
5.54403e-05
5.54405e-05
5.54407e-05
5.54409e-05
5.54411e-05
5.54413e-05
5.54415e-05
5.54417e-05
5.54419e-05
5.54421e-05
5.54422e-05
5.54424e-05
5.54425e-05
5.54427e-05
5.54428e-05
5.54429e-05
5.5443e-05
5.54431e-05
5.54432e-05
5.54433e-05
5.54433e-05
5.54434e-05
5.54435e-05
5.54436e-05
5.54436e-05
5.54437e-05
5.54437e-05
5.54438e-05
5.54438e-05
5.54439e-05
5.54439e-05
5.5444e-05
5.5444e-05
5.5444e-05
5.54441e-05
5.54441e-05
5.54441e-05
5.54442e-05
5.54442e-05
5.54443e-05
5.54443e-05
5.54443e-05
5.54444e-05
5.54444e-05
5.54444e-05
5.54444e-05
5.54445e-05
5.54445e-05
5.54445e-05
5.54445e-05
5.54446e-05
5.54446e-05
5.54446e-05
5.54446e-05
5.54446e-05
5.54446e-05
5.54447e-05
5.54447e-05
5.54447e-05
5.54447e-05
5.54447e-05
5.54447e-05
5.54447e-05
5.54447e-05