/*--------------------------------*- C++ -*----------------------------------*\
  =========                 |
  \\      /  F ield         | OpenFOAM: The Open Source CFD Toolbox
   \\    /   O peration     | Website:  https://openfoam.org
    \\  /    A nd           | Version:  7
     \\/     M anipulation  |
\*---------------------------------------------------------------------------*/
FoamFile
{
    version     2.0;
    format      ascii;
    class       volScalarField;
    location    "16500";
    object      nut;
}
// * * * * * * * * * * * * * * * * * * * * * * * * * * * * * * * * * * * * * //

dimensions      [0 2 -1 0 0 0 0];

internalField   nonuniform List<scalar> 
3963
(
0.00128451
0.00128478
0.00128484
0.00128486
0.00128486
0.00128487
0.00128487
0.00128486
0.00128486
0.00128486
0.00128485
0.00128484
0.00128484
0.00128483
0.00128482
0.0012848
0.00128479
0.00128478
0.00128476
0.00128475
0.00128474
0.0012838
0.00128372
0.00128363
0.00128358
0.00128355
0.00128353
0.00128351
0.0012835
0.00128348
0.00128347
0.00128345
0.00128344
0.00128342
0.00128341
0.0012834
0.00128332
0.00122998
0.00123023
0.00123029
0.00123031
0.00123031
0.00123031
0.00123031
0.00123031
0.0012303
0.00123029
0.00123029
0.00123028
0.00123026
0.00123025
0.00123024
0.00123023
0.00123021
0.0012302
0.00123018
0.00123017
0.00123009
0.00123091
0.00123122
0.00123058
0.00123049
0.0012304
0.00123037
0.00122995
0.00122971
0.00122956
0.00122946
0.00122938
0.00122932
0.00122928
0.00122924
0.0012292
0.00122917
0.00122914
0.00122911
0.00122908
0.00122906
0.00122904
0.00122895
0.00117773
0.00117794
0.001178
0.00117802
0.00117802
0.00117802
0.00117801
0.00117801
0.001178
0.00117799
0.00117798
0.00117797
0.00117795
0.00117794
0.00117793
0.00117791
0.0011779
0.00117788
0.00117786
0.00117785
0.00117779
0.0011781
0.00117832
0.00117924
0.0011796
0.0011797
0.00117974
0.00117975
0.00117977
0.00117977
0.00117977
0.00117977
0.00117977
0.00117976
0.00117976
0.00117975
0.00117974
0.00117973
0.00117972
0.0011797
0.00117969
0.00117968
0.00117966
0.00117965
0.00117963
0.00117962
0.0011796
0.00117959
0.00117957
0.00117956
0.00117954
0.00117953
0.00117951
0.0011795
0.00117948
0.00117947
0.00117945
0.00117944
0.00117942
0.00117941
0.0011794
0.00117938
0.00117937
0.00117935
0.00117934
0.00117933
0.00117931
0.0011793
0.00117929
0.00117928
0.00117927
0.00117925
0.00117924
0.00117923
0.00117922
0.00117921
0.0011792
0.00117918
0.00117917
0.00117916
0.00117915
0.00117914
0.00117913
0.00117912
0.00117911
0.0011791
0.00117908
0.00117907
0.00117906
0.00117905
0.00117904
0.00117903
0.00117902
0.00117901
0.001179
0.00117899
0.00117898
0.00117897
0.00117896
0.00117897
0.00117861
0.0011784
0.00117827
0.0011782
0.00117799
0.00117778
0.00117762
0.00117749
0.00117739
0.00117731
0.00117724
0.00117719
0.00117714
0.00117709
0.00117705
0.00117701
0.00117697
0.00117694
0.00117692
0.00117682
0.00112769
0.00112787
0.00112792
0.00112793
0.00112793
0.00112793
0.00112792
0.00112791
0.0011279
0.00112789
0.00112788
0.00112787
0.00112785
0.00112784
0.00112783
0.00112781
0.00112779
0.00112778
0.00112776
0.00112775
0.0011277
0.00112781
0.00112793
0.00112837
0.00112873
0.00112893
0.00112904
0.00112911
0.00112916
0.00112919
0.00112922
0.00112924
0.00112925
0.00112926
0.00112926
0.00112927
0.00112927
0.00112927
0.00112926
0.00112926
0.00112925
0.00112925
0.00112924
0.00112923
0.00112923
0.00112922
0.00112921
0.0011292
0.00112919
0.00112917
0.00112916
0.00112915
0.00112914
0.00112913
0.00112912
0.00112911
0.0011291
0.00112908
0.00112907
0.00112906
0.00112905
0.00112904
0.00112903
0.00112902
0.00112901
0.001129
0.00112899
0.00112898
0.00112897
0.00112896
0.00112895
0.00112894
0.00112893
0.00112892
0.00112891
0.0011289
0.00112889
0.00112888
0.00112887
0.00112886
0.00112885
0.00112884
0.00112883
0.00112882
0.00112881
0.0011288
0.0011288
0.00112879
0.00112878
0.00112877
0.00112876
0.00112875
0.00112874
0.00112873
0.00112872
0.00112871
0.0011287
0.0011287
0.00112868
0.00112869
0.00112855
0.00112839
0.00112826
0.00112818
0.00112805
0.0011279
0.00112776
0.00112763
0.00112753
0.00112744
0.00112736
0.00112729
0.00112723
0.00112718
0.00112713
0.00112709
0.00112704
0.001127
0.00112698
0.00112688
0.00107979
0.00107994
0.00107998
0.00107999
0.00107999
0.00107998
0.00107998
0.00107997
0.00107996
0.00107995
0.00107993
0.00107992
0.00107991
0.00107989
0.00107988
0.00107986
0.00107985
0.00107983
0.00107981
0.0010798
0.00107977
0.00107979
0.00107984
0.00108004
0.00108029
0.00108049
0.00108062
0.00108072
0.00108079
0.00108084
0.00108088
0.00108091
0.00108094
0.00108096
0.00108097
0.00108098
0.00108099
0.001081
0.001081
0.00108101
0.00108101
0.00108101
0.001081
0.001081
0.001081
0.00108099
0.00108099
0.00108098
0.00108097
0.00108097
0.00108096
0.00108095
0.00108094
0.00108094
0.00108093
0.00108092
0.00108091
0.0010809
0.00108089
0.00108089
0.00108088
0.00108087
0.00108086
0.00108085
0.00108084
0.00108083
0.00108083
0.00108082
0.00108081
0.0010808
0.00108079
0.00108079
0.00108078
0.00108077
0.00108076
0.00108075
0.00108075
0.00108074
0.00108073
0.00108072
0.00108072
0.00108071
0.0010807
0.00108069
0.00108068
0.00108068
0.00108067
0.00108066
0.00108065
0.00108065
0.00108064
0.00108063
0.00108062
0.00108061
0.00108061
0.0010806
0.00108059
0.00108058
0.00108057
0.00108058
0.00108052
0.00108043
0.00108033
0.00108025
0.00108016
0.00108005
0.00107994
0.00107983
0.00107973
0.00107965
0.00107957
0.0010795
0.00107944
0.00107938
0.00107933
0.00107928
0.00107924
0.00107919
0.00107917
0.00107906
0.00103397
0.0010341
0.00103413
0.00103413
0.00103413
0.00103412
0.00103412
0.00103411
0.0010341
0.00103409
0.00103407
0.00103406
0.00103405
0.00103403
0.00103402
0.001034
0.00103398
0.00103397
0.00103395
0.00103394
0.00103391
0.00103391
0.00103392
0.00103401
0.00103415
0.0010343
0.00103442
0.00103451
0.00103459
0.00103465
0.0010347
0.00103473
0.00103477
0.00103479
0.00103481
0.00103483
0.00103485
0.00103486
0.00103487
0.00103487
0.00103488
0.00103488
0.00103488
0.00103489
0.00103489
0.00103488
0.00103488
0.00103488
0.00103488
0.00103487
0.00103487
0.00103486
0.00103486
0.00103485
0.00103485
0.00103484
0.00103483
0.00103483
0.00103482
0.00103482
0.00103481
0.0010348
0.0010348
0.00103479
0.00103478
0.00103478
0.00103477
0.00103476
0.00103476
0.00103475
0.00103474
0.00103474
0.00103473
0.00103473
0.00103472
0.00103471
0.00103471
0.0010347
0.00103469
0.00103469
0.00103468
0.00103467
0.00103467
0.00103466
0.00103465
0.00103465
0.00103464
0.00103463
0.00103463
0.00103462
0.00103462
0.00103461
0.0010346
0.0010346
0.00103459
0.00103458
0.00103458
0.00103457
0.00103456
0.00103456
0.00103454
0.00103449
0.00103442
0.00103436
0.00103429
0.00103422
0.00103413
0.00103405
0.00103396
0.00103389
0.00103382
0.00103375
0.00103369
0.00103364
0.00103358
0.00103354
0.00103349
0.00103345
0.00103342
0.00103332
0.000990149
0.000990266
0.000990288
0.000990289
0.000990284
0.000990278
0.000990269
0.00099026
0.000990249
0.000990238
0.000990225
0.000990212
0.000990199
0.000990184
0.00099017
0.000990155
0.00099014
0.000990125
0.000990109
0.000990093
0.000990074
0.000990061
0.000990058
0.000990089
0.000990159
0.000990249
0.00099034
0.000990421
0.00099049
0.000990548
0.000990595
0.000990635
0.000990669
0.000990697
0.000990721
0.000990742
0.000990759
0.000990774
0.000990786
0.000990796
0.000990804
0.00099081
0.000990815
0.000990819
0.000990821
0.000990822
0.000990823
0.000990822
0.000990821
0.000990819
0.000990817
0.000990814
0.000990811
0.000990808
0.000990804
0.0009908
0.000990796
0.000990791
0.000990787
0.000990783
0.000990778
0.000990773
0.000990768
0.000990763
0.000990758
0.000990753
0.000990748
0.000990743
0.000990739
0.000990734
0.000990729
0.000990724
0.000990719
0.000990714
0.000990709
0.000990704
0.000990699
0.000990693
0.000990688
0.000990683
0.000990678
0.000990673
0.000990667
0.000990662
0.000990657
0.000990651
0.000990646
0.00099064
0.000990635
0.000990629
0.000990624
0.000990618
0.000990612
0.000990607
0.000990601
0.000990595
0.000990589
0.000990584
0.000990577
0.000990574
0.000990563
0.000990537
0.000990498
0.000990454
0.000990406
0.000990352
0.000990292
0.000990227
0.000990161
0.000990096
0.000990034
0.000989976
0.000989921
0.00098987
0.000989822
0.000989776
0.000989733
0.000989691
0.000989662
0.000989566
0.000948258
0.000948361
0.000948379
0.000948378
0.000948373
0.000948365
0.000948357
0.000948348
0.000948338
0.000948327
0.000948315
0.000948303
0.00094829
0.000948276
0.000948262
0.000948248
0.000948234
0.00094822
0.000948205
0.00094819
0.000948173
0.000948158
0.000948148
0.000948153
0.000948182
0.00094823
0.000948289
0.000948348
0.000948404
0.000948453
0.000948495
0.000948532
0.000948564
0.000948592
0.000948616
0.000948637
0.000948655
0.000948671
0.000948684
0.000948696
0.000948705
0.000948713
0.000948719
0.000948724
0.000948728
0.000948731
0.000948733
0.000948734
0.000948735
0.000948735
0.000948734
0.000948733
0.000948731
0.00094873
0.000948728
0.000948725
0.000948722
0.000948719
0.000948717
0.000948714
0.00094871
0.000948706
0.000948703
0.0009487
0.000948696
0.000948692
0.000948688
0.000948685
0.000948681
0.000948678
0.000948674
0.00094867
0.000948666
0.000948662
0.000948658
0.000948654
0.00094865
0.000948646
0.000948642
0.000948638
0.000948633
0.000948629
0.000948625
0.00094862
0.000948616
0.000948611
0.000948607
0.000948602
0.000948598
0.000948593
0.000948588
0.000948584
0.000948579
0.000948574
0.000948569
0.000948564
0.00094856
0.000948555
0.000948549
0.000948545
0.000948539
0.000948526
0.000948503
0.000948474
0.00094844
0.000948402
0.00094836
0.000948312
0.000948261
0.00094821
0.000948159
0.000948109
0.000948062
0.000948017
0.000947974
0.000947932
0.000947893
0.000947853
0.000947827
0.000947736
0.000908218
0.000908309
0.000908324
0.000908322
0.000908316
0.000908309
0.000908301
0.000908293
0.000908283
0.000908273
0.000908262
0.000908251
0.000908239
0.000908226
0.000908213
0.0009082
0.000908187
0.000908174
0.00090816
0.000908146
0.000908131
0.000908116
0.000908103
0.000908097
0.000908104
0.000908126
0.000908158
0.000908197
0.000908236
0.000908274
0.000908308
0.00090834
0.000908368
0.000908393
0.000908414
0.000908434
0.000908451
0.000908466
0.00090848
0.000908491
0.000908501
0.000908509
0.000908516
0.000908522
0.000908527
0.000908531
0.000908534
0.000908536
0.000908537
0.000908538
0.000908539
0.000908539
0.000908538
0.000908538
0.000908537
0.000908535
0.000908534
0.000908532
0.00090853
0.000908528
0.000908526
0.000908523
0.000908521
0.000908518
0.000908516
0.000908513
0.00090851
0.000908508
0.000908505
0.000908503
0.0009085
0.000908497
0.000908494
0.000908491
0.000908488
0.000908485
0.000908481
0.000908478
0.000908475
0.000908471
0.000908468
0.000908465
0.000908461
0.000908458
0.000908454
0.00090845
0.000908446
0.000908443
0.000908439
0.000908435
0.000908431
0.000908427
0.000908423
0.000908419
0.000908415
0.000908411
0.000908407
0.000908403
0.000908398
0.000908394
0.00090839
0.000908382
0.000908369
0.000908351
0.000908328
0.000908302
0.000908272
0.000908238
0.0009082
0.000908161
0.000908121
0.00090808
0.000908041
0.000908003
0.000907965
0.000907928
0.000907893
0.000907858
0.000907835
0.000907751
0.000869948
0.000870029
0.000870042
0.000870041
0.000870035
0.000870029
0.000870022
0.000870014
0.000870005
0.000869996
0.000869986
0.000869976
0.000869965
0.000869953
0.000869942
0.00086993
0.000869918
0.000869905
0.000869893
0.00086988
0.000869866
0.000869853
0.00086984
0.00086983
0.000869826
0.000869831
0.000869846
0.000869867
0.000869892
0.000869918
0.000869944
0.000869968
0.000869991
0.000870011
0.00087003
0.000870046
0.000870062
0.000870076
0.000870088
0.000870098
0.000870107
0.000870115
0.000870122
0.000870128
0.000870133
0.000870137
0.000870141
0.000870143
0.000870145
0.000870147
0.000870148
0.000870149
0.000870149
0.000870149
0.000870149
0.000870149
0.000870148
0.000870147
0.000870146
0.000870145
0.000870143
0.000870141
0.00087014
0.000870138
0.000870136
0.000870134
0.000870132
0.000870131
0.000870129
0.000870127
0.000870125
0.000870123
0.000870121
0.000870118
0.000870116
0.000870114
0.000870111
0.000870109
0.000870106
0.000870103
0.000870101
0.000870098
0.000870095
0.000870092
0.000870089
0.000870086
0.000870083
0.00087008
0.000870077
0.000870074
0.000870071
0.000870067
0.000870064
0.00087006
0.000870057
0.000870053
0.00087005
0.000870046
0.000870043
0.000870039
0.000870036
0.000870031
0.000870023
0.000870011
0.000869997
0.000869979
0.000869958
0.000869934
0.000869907
0.000869878
0.000869847
0.000869815
0.000869783
0.000869752
0.00086972
0.000869689
0.000869659
0.000869628
0.000869608
0.000869531
0.00083337
0.000833442
0.000833455
0.000833453
0.000833449
0.000833443
0.000833437
0.00083343
0.000833423
0.000833415
0.000833406
0.000833397
0.000833387
0.000833377
0.000833366
0.000833356
0.000833345
0.000833334
0.000833322
0.00083331
0.000833298
0.000833286
0.000833274
0.000833263
0.000833254
0.000833251
0.000833254
0.000833264
0.000833277
0.000833293
0.00083331
0.000833327
0.000833344
0.000833359
0.000833374
0.000833387
0.0008334
0.000833412
0.000833422
0.000833431
0.000833439
0.000833447
0.000833453
0.000833458
0.000833463
0.000833467
0.00083347
0.000833473
0.000833475
0.000833477
0.000833479
0.00083348
0.00083348
0.000833481
0.000833481
0.000833481
0.000833481
0.000833481
0.00083348
0.000833479
0.000833478
0.000833477
0.000833476
0.000833475
0.000833474
0.000833473
0.000833472
0.000833471
0.000833469
0.000833468
0.000833467
0.000833465
0.000833464
0.000833462
0.00083346
0.000833458
0.000833456
0.000833454
0.000833452
0.00083345
0.000833448
0.000833446
0.000833444
0.000833441
0.000833439
0.000833437
0.000833434
0.000833432
0.000833429
0.000833427
0.000833424
0.000833421
0.000833418
0.000833415
0.000833412
0.000833409
0.000833407
0.000833404
0.000833401
0.000833397
0.000833394
0.000833391
0.000833386
0.000833379
0.000833369
0.000833357
0.000833343
0.000833326
0.000833307
0.000833286
0.000833263
0.000833238
0.000833213
0.000833188
0.000833162
0.000833136
0.000833111
0.000833085
0.000833068
0.000832999
0.000798405
0.000798469
0.000798481
0.00079848
0.000798477
0.000798472
0.000798467
0.000798462
0.000798456
0.000798449
0.000798441
0.000798433
0.000798425
0.000798415
0.000798406
0.000798397
0.000798387
0.000798377
0.000798367
0.000798356
0.000798346
0.000798335
0.000798323
0.000798312
0.000798303
0.000798296
0.000798292
0.000798294
0.000798299
0.000798307
0.000798317
0.000798327
0.000798339
0.00079835
0.00079836
0.00079837
0.00079838
0.000798389
0.000798397
0.000798405
0.000798411
0.000798417
0.000798423
0.000798428
0.000798432
0.000798435
0.000798438
0.000798441
0.000798443
0.000798445
0.000798446
0.000798448
0.000798448
0.000798449
0.00079845
0.00079845
0.00079845
0.00079845
0.00079845
0.00079845
0.000798449
0.000798449
0.000798448
0.000798447
0.000798447
0.000798446
0.000798445
0.000798445
0.000798444
0.000798443
0.000798442
0.000798441
0.00079844
0.000798439
0.000798437
0.000798436
0.000798435
0.000798433
0.000798431
0.00079843
0.000798428
0.000798427
0.000798425
0.000798423
0.000798421
0.000798419
0.000798417
0.000798415
0.000798413
0.000798411
0.000798409
0.000798406
0.000798404
0.000798401
0.000798399
0.000798397
0.000798394
0.000798392
0.000798389
0.000798387
0.000798384
0.000798381
0.000798378
0.000798373
0.000798367
0.000798359
0.000798349
0.000798338
0.000798324
0.000798309
0.000798292
0.000798274
0.000798254
0.000798235
0.000798214
0.000798193
0.000798173
0.000798151
0.000798138
0.000798075
0.000764974
0.000765031
0.000765042
0.000765042
0.00076504
0.000765037
0.000765033
0.000765029
0.000765024
0.000765018
0.000765012
0.000765005
0.000764998
0.00076499
0.000764982
0.000764973
0.000764965
0.000764956
0.000764947
0.000764938
0.000764928
0.000764919
0.000764908
0.000764898
0.000764888
0.00076488
0.000764874
0.00076487
0.00076487
0.000764872
0.000764877
0.000764882
0.000764889
0.000764896
0.000764903
0.000764909
0.000764916
0.000764923
0.000764929
0.000764935
0.00076494
0.000764944
0.000764949
0.000764952
0.000764956
0.000764959
0.000764961
0.000764964
0.000764965
0.000764967
0.000764969
0.00076497
0.00076497
0.000764971
0.000764972
0.000764972
0.000764972
0.000764973
0.000764973
0.000764973
0.000764973
0.000764972
0.000764972
0.000764972
0.000764972
0.000764971
0.000764971
0.00076497
0.00076497
0.000764969
0.000764969
0.000764968
0.000764967
0.000764967
0.000764966
0.000764965
0.000764964
0.000764963
0.000764961
0.00076496
0.000764959
0.000764958
0.000764956
0.000764955
0.000764953
0.000764952
0.00076495
0.000764949
0.000764947
0.000764945
0.000764944
0.000764942
0.00076494
0.000764937
0.000764935
0.000764933
0.000764932
0.00076493
0.000764927
0.000764925
0.000764923
0.000764921
0.000764918
0.000764915
0.000764911
0.000764905
0.000764899
0.000764891
0.000764882
0.000764871
0.000764858
0.000764845
0.00076483
0.000764815
0.000764799
0.000764783
0.000764766
0.000764748
0.000764738
0.000764683
0.000733
0.000733052
0.000733062
0.000733063
0.000733062
0.00073306
0.000733057
0.000733054
0.00073305
0.000733046
0.00073304
0.000733035
0.000733028
0.000733022
0.000733015
0.000733008
0.000733
0.000732993
0.000732985
0.000732977
0.000732969
0.00073296
0.000732951
0.000732942
0.000732932
0.000732924
0.000732916
0.000732911
0.000732907
0.000732906
0.000732906
0.000732908
0.000732911
0.000732914
0.000732918
0.000732922
0.000732926
0.00073293
0.000732935
0.000732938
0.000732942
0.000732945
0.000732948
0.000732951
0.000732953
0.000732956
0.000732958
0.00073296
0.000732961
0.000732963
0.000732964
0.000732965
0.000732965
0.000732966
0.000732967
0.000732967
0.000732968
0.000732968
0.000732968
0.000732968
0.000732968
0.000732968
0.000732968
0.000732968
0.000732968
0.000732968
0.000732968
0.000732968
0.000732968
0.000732967
0.000732967
0.000732967
0.000732966
0.000732966
0.000732965
0.000732964
0.000732964
0.000732963
0.000732962
0.000732961
0.00073296
0.000732959
0.000732958
0.000732957
0.000732956
0.000732955
0.000732953
0.000732952
0.000732951
0.00073295
0.000732948
0.000732947
0.000732945
0.000732943
0.000732941
0.00073294
0.000732938
0.000732937
0.000732935
0.000732933
0.000732931
0.000732929
0.000732927
0.000732925
0.000732922
0.000732918
0.000732914
0.000732909
0.000732902
0.000732894
0.000732885
0.000732876
0.000732865
0.000732853
0.000732841
0.000732828
0.000732815
0.0007328
0.000732793
0.000732744
0.00070241
0.000702455
0.000702465
0.000702466
0.000702466
0.000702465
0.000702464
0.000702462
0.000702459
0.000702455
0.000702451
0.000702446
0.000702441
0.000702435
0.00070243
0.000702423
0.000702417
0.000702411
0.000702404
0.000702397
0.00070239
0.000702382
0.000702374
0.000702366
0.000702358
0.00070235
0.000702342
0.000702336
0.00070233
0.000702327
0.000702325
0.000702324
0.000702324
0.000702324
0.000702326
0.000702327
0.000702329
0.000702332
0.000702334
0.000702336
0.000702338
0.00070234
0.000702342
0.000702344
0.000702346
0.000702348
0.000702349
0.000702351
0.000702352
0.000702353
0.000702354
0.000702354
0.000702355
0.000702356
0.000702356
0.000702356
0.000702357
0.000702357
0.000702358
0.000702358
0.000702358
0.000702358
0.000702358
0.000702358
0.000702358
0.000702358
0.000702358
0.000702358
0.000702358
0.000702358
0.000702358
0.000702358
0.000702358
0.000702358
0.000702357
0.000702357
0.000702356
0.000702356
0.000702355
0.000702355
0.000702354
0.000702353
0.000702352
0.000702352
0.000702351
0.00070235
0.000702349
0.000702348
0.000702347
0.000702346
0.000702345
0.000702343
0.000702342
0.000702341
0.000702339
0.000702338
0.000702337
0.000702335
0.000702334
0.000702332
0.000702331
0.000702329
0.000702328
0.000702326
0.000702324
0.000702321
0.000702318
0.000702314
0.00070231
0.000702304
0.000702298
0.000702291
0.000702283
0.000702274
0.000702265
0.000702255
0.000702245
0.000702233
0.000702228
0.000702185
0.000673128
0.000673168
0.000673177
0.000673179
0.00067318
0.00067318
0.000673179
0.000673178
0.000673176
0.000673173
0.00067317
0.000673166
0.000673162
0.000673157
0.000673152
0.000673147
0.000673142
0.000673137
0.000673131
0.000673125
0.000673119
0.000673112
0.000673105
0.000673098
0.000673091
0.000673083
0.000673076
0.000673069
0.000673064
0.000673059
0.000673055
0.000673052
0.000673051
0.000673049
0.000673049
0.000673049
0.000673049
0.00067305
0.000673051
0.000673051
0.000673052
0.000673053
0.000673055
0.000673056
0.000673057
0.000673058
0.000673059
0.000673059
0.00067306
0.000673061
0.000673061
0.000673062
0.000673062
0.000673063
0.000673063
0.000673064
0.000673064
0.000673064
0.000673065
0.000673065
0.000673065
0.000673066
0.000673066
0.000673066
0.000673066
0.000673066
0.000673066
0.000673067
0.000673067
0.000673067
0.000673067
0.000673067
0.000673067
0.000673067
0.000673067
0.000673066
0.000673066
0.000673066
0.000673066
0.000673065
0.000673065
0.000673064
0.000673063
0.000673063
0.000673062
0.000673062
0.000673061
0.00067306
0.000673059
0.000673059
0.000673058
0.000673057
0.000673056
0.000673054
0.000673053
0.000673052
0.000673051
0.00067305
0.000673049
0.000673048
0.000673046
0.000673045
0.000673044
0.000673042
0.000673041
0.000673039
0.000673037
0.000673034
0.000673031
0.000673027
0.000673023
0.000673017
0.000673012
0.000673005
0.000672998
0.000672991
0.000672983
0.000672973
0.00067297
0.000672933
0.000645085
0.000645119
0.000645128
0.00064513
0.000645132
0.000645132
0.000645133
0.000645132
0.000645131
0.000645129
0.000645127
0.000645124
0.00064512
0.000645116
0.000645112
0.000645108
0.000645104
0.000645099
0.000645095
0.000645089
0.000645084
0.000645078
0.000645072
0.000645066
0.00064506
0.000645053
0.000645047
0.00064504
0.000645034
0.000645029
0.000645025
0.000645021
0.000645018
0.000645016
0.000645014
0.000645012
0.000645011
0.000645011
0.00064501
0.00064501
0.00064501
0.000645011
0.000645011
0.000645011
0.000645012
0.000645012
0.000645013
0.000645013
0.000645013
0.000645014
0.000645014
0.000645014
0.000645015
0.000645015
0.000645015
0.000645016
0.000645016
0.000645016
0.000645017
0.000645017
0.000645017
0.000645018
0.000645018
0.000645018
0.000645019
0.000645019
0.000645019
0.000645019
0.000645019
0.00064502
0.00064502
0.00064502
0.00064502
0.00064502
0.00064502
0.00064502
0.00064502
0.00064502
0.00064502
0.00064502
0.000645019
0.000645019
0.000645018
0.000645018
0.000645018
0.000645017
0.000645017
0.000645016
0.000645015
0.000645015
0.000645014
0.000645013
0.000645012
0.000645012
0.000645011
0.00064501
0.000645009
0.000645008
0.000645007
0.000645006
0.000645005
0.000645004
0.000645003
0.000645002
0.000645001
0.000644999
0.000644998
0.000644996
0.000644994
0.000644991
0.000644988
0.000644984
0.00064498
0.000644975
0.00064497
0.000644964
0.000644958
0.000644951
0.000644948
0.000644916
0.000618212
0.000618241
0.000618249
0.000618252
0.000618254
0.000618255
0.000618256
0.000618256
0.000618255
0.000618254
0.000618252
0.00061825
0.000618247
0.000618244
0.000618241
0.000618238
0.000618234
0.00061823
0.000618226
0.000618222
0.000618217
0.000618213
0.000618207
0.000618202
0.000618197
0.000618191
0.000618185
0.000618179
0.000618174
0.000618169
0.000618164
0.00061816
0.000618156
0.000618153
0.00061815
0.000618148
0.000618146
0.000618144
0.000618143
0.000618142
0.000618142
0.000618141
0.000618141
0.000618141
0.000618141
0.000618141
0.000618141
0.000618141
0.000618141
0.000618141
0.000618141
0.000618141
0.000618142
0.000618142
0.000618142
0.000618142
0.000618143
0.000618143
0.000618143
0.000618144
0.000618144
0.000618144
0.000618145
0.000618145
0.000618145
0.000618146
0.000618146
0.000618146
0.000618146
0.000618147
0.000618147
0.000618147
0.000618148
0.000618148
0.000618148
0.000618148
0.000618148
0.000618148
0.000618148
0.000618148
0.000618148
0.000618148
0.000618147
0.000618147
0.000618147
0.000618146
0.000618146
0.000618146
0.000618145
0.000618145
0.000618144
0.000618144
0.000618143
0.000618142
0.000618142
0.000618141
0.00061814
0.00061814
0.000618139
0.000618138
0.000618137
0.000618137
0.000618136
0.000618135
0.000618134
0.000618133
0.000618132
0.000618131
0.000618129
0.000618127
0.000618124
0.000618122
0.000618119
0.000618115
0.000618112
0.000618107
0.000618103
0.000618096
0.000618095
0.000618068
0.000592443
0.000592468
0.000592475
0.000592478
0.00059248
0.000592482
0.000592483
0.000592483
0.000592483
0.000592483
0.000592482
0.00059248
0.000592478
0.000592475
0.000592473
0.00059247
0.000592467
0.000592464
0.000592461
0.000592457
0.000592453
0.000592449
0.000592445
0.00059244
0.000592436
0.000592431
0.000592425
0.00059242
0.000592415
0.00059241
0.000592406
0.000592401
0.000592397
0.000592394
0.000592391
0.000592388
0.000592385
0.000592383
0.000592382
0.00059238
0.000592379
0.000592378
0.000592377
0.000592377
0.000592376
0.000592376
0.000592376
0.000592376
0.000592376
0.000592376
0.000592376
0.000592376
0.000592376
0.000592376
0.000592376
0.000592376
0.000592377
0.000592377
0.000592377
0.000592378
0.000592378
0.000592378
0.000592379
0.000592379
0.000592379
0.00059238
0.00059238
0.00059238
0.000592381
0.000592381
0.000592382
0.000592382
0.000592382
0.000592383
0.000592383
0.000592383
0.000592383
0.000592383
0.000592383
0.000592384
0.000592384
0.000592383
0.000592383
0.000592383
0.000592383
0.000592383
0.000592383
0.000592382
0.000592382
0.000592382
0.000592381
0.000592381
0.00059238
0.00059238
0.000592379
0.000592379
0.000592379
0.000592378
0.000592378
0.000592377
0.000592376
0.000592376
0.000592375
0.000592374
0.000592374
0.000592373
0.000592372
0.000592371
0.00059237
0.000592368
0.000592367
0.000592365
0.000592363
0.00059236
0.000592357
0.000592354
0.00059235
0.000592345
0.000592345
0.000592321
0.000567716
0.000567737
0.000567743
0.000567746
0.000567748
0.00056775
0.000567751
0.000567752
0.000567752
0.000567752
0.000567752
0.00056775
0.000567749
0.000567747
0.000567745
0.000567742
0.00056774
0.000567738
0.000567735
0.000567732
0.000567729
0.000567725
0.000567722
0.000567718
0.000567714
0.000567709
0.000567705
0.0005677
0.000567696
0.000567692
0.000567687
0.000567683
0.000567679
0.000567675
0.000567672
0.000567669
0.000567666
0.000567664
0.000567662
0.00056766
0.000567658
0.000567657
0.000567656
0.000567655
0.000567655
0.000567654
0.000567654
0.000567654
0.000567653
0.000567653
0.000567653
0.000567653
0.000567653
0.000567653
0.000567653
0.000567654
0.000567654
0.000567654
0.000567655
0.000567655
0.000567655
0.000567656
0.000567656
0.000567657
0.000567657
0.000567657
0.000567658
0.000567658
0.000567659
0.000567659
0.00056766
0.00056766
0.00056766
0.000567661
0.000567661
0.000567661
0.000567662
0.000567662
0.000567662
0.000567662
0.000567662
0.000567662
0.000567662
0.000567662
0.000567662
0.000567662
0.000567662
0.000567662
0.000567662
0.000567662
0.000567661
0.000567661
0.000567661
0.00056766
0.00056766
0.00056766
0.000567659
0.000567659
0.000567659
0.000567658
0.000567658
0.000567657
0.000567657
0.000567656
0.000567656
0.000567655
0.000567655
0.000567654
0.000567653
0.000567652
0.000567651
0.000567649
0.000567648
0.000567646
0.000567644
0.000567641
0.000567638
0.000567634
0.000567634
0.000567614
0.00054397
0.000543987
0.000543993
0.000543995
0.000543997
0.000543999
0.000544001
0.000544002
0.000544002
0.000544003
0.000544002
0.000544001
0.000544
0.000543999
0.000543997
0.000543995
0.000543993
0.000543991
0.000543989
0.000543987
0.000543984
0.000543981
0.000543978
0.000543975
0.000543972
0.000543968
0.000543964
0.00054396
0.000543956
0.000543952
0.000543948
0.000543944
0.00054394
0.000543936
0.000543933
0.00054393
0.000543927
0.000543925
0.000543923
0.000543921
0.000543919
0.000543918
0.000543917
0.000543916
0.000543915
0.000543915
0.000543914
0.000543914
0.000543913
0.000543913
0.000543913
0.000543913
0.000543913
0.000543913
0.000543913
0.000543913
0.000543914
0.000543914
0.000543915
0.000543915
0.000543915
0.000543916
0.000543916
0.000543917
0.000543917
0.000543917
0.000543918
0.000543918
0.000543919
0.000543919
0.00054392
0.00054392
0.000543921
0.000543921
0.000543922
0.000543922
0.000543922
0.000543923
0.000543923
0.000543923
0.000543923
0.000543924
0.000543924
0.000543924
0.000543924
0.000543924
0.000543924
0.000543924
0.000543924
0.000543924
0.000543923
0.000543923
0.000543923
0.000543923
0.000543923
0.000543923
0.000543922
0.000543922
0.000543922
0.000543922
0.000543921
0.000543921
0.000543921
0.00054392
0.00054392
0.000543919
0.000543919
0.000543918
0.000543918
0.000543917
0.000543916
0.000543915
0.000543914
0.000543913
0.000543911
0.000543909
0.000543907
0.000543903
0.000543903
0.000543886
0.000521149
0.000521162
0.000521166
0.000521169
0.000521171
0.000521173
0.000521174
0.000521176
0.000521176
0.000521177
0.000521177
0.000521176
0.000521175
0.000521174
0.000521173
0.000521171
0.00052117
0.000521168
0.000521166
0.000521164
0.000521162
0.00052116
0.000521158
0.000521155
0.000521152
0.000521149
0.000521145
0.000521142
0.000521139
0.000521135
0.000521131
0.000521127
0.000521124
0.00052112
0.000521117
0.000521114
0.000521111
0.000521109
0.000521107
0.000521105
0.000521103
0.000521102
0.000521101
0.0005211
0.000521099
0.000521099
0.000521098
0.000521098
0.000521097
0.000521097
0.000521097
0.000521097
0.000521097
0.000521097
0.000521098
0.000521098
0.000521098
0.000521099
0.000521099
0.000521099
0.0005211
0.0005211
0.000521101
0.000521101
0.000521102
0.000521102
0.000521103
0.000521103
0.000521104
0.000521104
0.000521105
0.000521105
0.000521106
0.000521106
0.000521107
0.000521107
0.000521108
0.000521108
0.000521108
0.000521109
0.000521109
0.000521109
0.000521109
0.00052111
0.00052111
0.00052111
0.00052111
0.00052111
0.00052111
0.00052111
0.00052111
0.00052111
0.00052111
0.00052111
0.00052111
0.00052111
0.00052111
0.000521109
0.000521109
0.000521109
0.000521109
0.000521109
0.000521108
0.000521108
0.000521108
0.000521108
0.000521107
0.000521107
0.000521107
0.000521106
0.000521106
0.000521105
0.000521104
0.000521103
0.000521101
0.0005211
0.000521098
0.000521095
0.000521095
0.000521081
0.000499197
0.000499207
0.00049921
0.000499213
0.000499214
0.000499216
0.000499218
0.000499219
0.00049922
0.00049922
0.00049922
0.00049922
0.000499219
0.000499218
0.000499217
0.000499216
0.000499215
0.000499214
0.000499213
0.000499211
0.000499209
0.000499207
0.000499205
0.000499203
0.000499201
0.000499198
0.000499195
0.000499192
0.000499189
0.000499186
0.000499182
0.000499179