/*--------------------------------*- C++ -*----------------------------------*\
  =========                 |
  \\      /  F ield         | OpenFOAM: The Open Source CFD Toolbox
   \\    /   O peration     | Website:  https://openfoam.org
    \\  /    A nd           | Version:  7
     \\/     M anipulation  |
\*---------------------------------------------------------------------------*/
FoamFile
{
    version     2.0;
    format      ascii;
    class       volScalarField;
    location    "4000";
    object      k;
}
// * * * * * * * * * * * * * * * * * * * * * * * * * * * * * * * * * * * * * //

dimensions      [0 2 -2 0 0 0 0];

internalField   nonuniform List<scalar> 
24000
(
6.85545e-09
6.85566e-09
6.85564e-09
6.85546e-09
6.85524e-09
6.85503e-09
6.85483e-09
6.85465e-09
6.8545e-09
6.85438e-09
6.85428e-09
6.85421e-09
6.85416e-09
6.85412e-09
6.8541e-09
6.8541e-09
6.85411e-09
6.85412e-09
6.85415e-09
6.85418e-09
6.85422e-09
6.85427e-09
6.85432e-09
6.85437e-09
6.85443e-09
6.85448e-09
6.85454e-09
6.85459e-09
6.85465e-09
6.85471e-09
6.85476e-09
6.85482e-09
6.85487e-09
6.85492e-09
6.85498e-09
6.85503e-09
6.85508e-09
6.85512e-09
6.85517e-09
6.85522e-09
6.85527e-09
6.85531e-09
6.85535e-09
6.85539e-09
6.85542e-09
6.85545e-09
6.85547e-09
6.85549e-09
6.85551e-09
6.85552e-09
6.85554e-09
6.85556e-09
6.85558e-09
6.8556e-09
6.85562e-09
6.85563e-09
6.85563e-09
6.85563e-09
6.85562e-09
6.85561e-09
6.85558e-09
6.85555e-09
6.85551e-09
6.85546e-09
6.85541e-09
6.85536e-09
6.85531e-09
6.85526e-09
6.85521e-09
6.85516e-09
6.85512e-09
6.85507e-09
6.85503e-09
6.85499e-09
6.85496e-09
6.85493e-09
6.8549e-09
6.85487e-09
6.85485e-09
6.85483e-09
6.85481e-09
6.85479e-09
6.85477e-09
6.85476e-09
6.85475e-09
6.85473e-09
6.85473e-09
6.85472e-09
6.85471e-09
6.8547e-09
6.8547e-09
6.85469e-09
6.85468e-09
6.85468e-09
6.85467e-09
6.85467e-09
6.85467e-09
6.85468e-09
6.85469e-09
6.8547e-09
6.85472e-09
6.85474e-09
6.85476e-09
6.85479e-09
6.85482e-09
6.85485e-09
6.85487e-09
6.8549e-09
6.85493e-09
6.85496e-09
6.85499e-09
6.85502e-09
6.85505e-09
6.85508e-09
6.8551e-09
6.85513e-09
6.85514e-09
6.85515e-09
6.85517e-09
6.8551e-09
2.066e-07
2.06606e-07
2.06605e-07
2.066e-07
2.06594e-07
2.06587e-07
2.06581e-07
2.06576e-07
2.06571e-07
2.06568e-07
2.06565e-07
2.06562e-07
2.06561e-07
2.0656e-07
2.06559e-07
2.06559e-07
2.06559e-07
2.0656e-07
2.06561e-07
2.06562e-07
2.06563e-07
2.06564e-07
2.06566e-07
2.06567e-07
2.06569e-07
2.06571e-07
2.06572e-07
2.06574e-07
2.06576e-07
2.06577e-07
2.06579e-07
2.06581e-07
2.06582e-07
2.06584e-07
2.06586e-07
2.06587e-07
2.06589e-07
2.0659e-07
2.06591e-07
2.06593e-07
2.06594e-07
2.06596e-07
2.06597e-07
2.06598e-07
2.06599e-07
2.066e-07
2.066e-07
2.06601e-07
2.06601e-07
2.06602e-07
2.06603e-07
2.06603e-07
2.06604e-07
2.06604e-07
2.06605e-07
2.06605e-07
2.06605e-07
2.06605e-07
2.06605e-07
2.06604e-07
2.06604e-07
2.06603e-07
2.06601e-07
2.066e-07
2.06599e-07
2.06597e-07
2.06596e-07
2.06594e-07
2.06593e-07
2.06591e-07
2.0659e-07
2.06588e-07
2.06587e-07
2.06586e-07
2.06585e-07
2.06584e-07
2.06583e-07
2.06582e-07
2.06582e-07
2.06581e-07
2.0658e-07
2.0658e-07
2.06579e-07
2.06579e-07
2.06579e-07
2.06578e-07
2.06578e-07
2.06578e-07
2.06577e-07
2.06577e-07
2.06577e-07
2.06577e-07
2.06577e-07
2.06577e-07
2.06576e-07
2.06576e-07
2.06576e-07
2.06577e-07
2.06577e-07
2.06577e-07
2.06578e-07
2.06578e-07
2.06579e-07
2.0658e-07
2.06581e-07
2.06582e-07
2.06582e-07
2.06583e-07
2.06584e-07
2.06585e-07
2.06586e-07
2.06587e-07
2.06588e-07
2.06589e-07
2.06589e-07
2.0659e-07
2.0659e-07
2.06591e-07
2.06591e-07
2.06589e-07
1.49979e-06
1.49984e-06
1.49984e-06
1.4998e-06
1.49975e-06
1.4997e-06
1.49966e-06
1.49962e-06
1.49959e-06
1.49956e-06
1.49954e-06
1.49952e-06
1.49951e-06
1.4995e-06
1.4995e-06
1.4995e-06
1.4995e-06
1.49951e-06
1.49951e-06
1.49952e-06
1.49953e-06
1.49954e-06
1.49955e-06
1.49956e-06
1.49957e-06
1.49958e-06
1.4996e-06
1.49961e-06
1.49962e-06
1.49963e-06
1.49964e-06
1.49966e-06
1.49967e-06
1.49968e-06
1.49969e-06
1.4997e-06
1.49971e-06
1.49972e-06
1.49973e-06
1.49974e-06
1.49975e-06
1.49976e-06
1.49977e-06
1.49978e-06
1.49979e-06
1.49979e-06
1.4998e-06
1.4998e-06
1.49981e-06
1.49981e-06
1.49982e-06
1.49982e-06
1.49982e-06
1.49983e-06
1.49983e-06
1.49983e-06
1.49984e-06
1.49983e-06
1.49983e-06
1.49983e-06
1.49982e-06
1.49982e-06
1.49981e-06
1.4998e-06
1.49979e-06
1.49978e-06
1.49976e-06
1.49975e-06
1.49974e-06
1.49973e-06
1.49972e-06
1.49971e-06
1.4997e-06
1.49969e-06
1.49969e-06
1.49968e-06
1.49967e-06
1.49967e-06
1.49966e-06
1.49966e-06
1.49965e-06
1.49965e-06
1.49965e-06
1.49964e-06
1.49964e-06
1.49964e-06
1.49964e-06
1.49963e-06
1.49963e-06
1.49963e-06
1.49963e-06
1.49963e-06
1.49963e-06
1.49963e-06
1.49963e-06
1.49962e-06
1.49963e-06
1.49963e-06
1.49963e-06
1.49963e-06
1.49963e-06
1.49964e-06
1.49965e-06
1.49965e-06
1.49966e-06
1.49966e-06
1.49967e-06
1.49967e-06
1.49968e-06
1.49969e-06
1.49969e-06
1.4997e-06
1.49971e-06
1.49971e-06
1.49972e-06
1.49972e-06
1.49973e-06
1.49973e-06
1.49973e-06
1.49972e-06
5.54638e-06
5.54655e-06
5.54653e-06
5.54639e-06
5.54621e-06
5.54603e-06
5.54588e-06
5.54574e-06
5.54562e-06
5.54552e-06
5.54544e-06
5.54538e-06
5.54534e-06
5.54531e-06
5.5453e-06
5.54529e-06
5.5453e-06
5.54531e-06
5.54534e-06
5.54536e-06
5.5454e-06
5.54543e-06
5.54547e-06
5.54551e-06
5.54556e-06
5.5456e-06
5.54565e-06
5.54569e-06
5.54574e-06
5.54578e-06
5.54583e-06
5.54587e-06
5.54591e-06
5.54596e-06
5.546e-06
5.54604e-06
5.54608e-06
5.54612e-06
5.54616e-06
5.54619e-06
5.54623e-06
5.54626e-06
5.5463e-06
5.54633e-06
5.54636e-06
5.54638e-06
5.54639e-06
5.54641e-06
5.54642e-06
5.54644e-06
5.54645e-06
5.54647e-06
5.54648e-06
5.5465e-06
5.54651e-06
5.54652e-06
5.54652e-06
5.54652e-06
5.54652e-06
5.5465e-06
5.54648e-06
5.54645e-06
5.54642e-06
5.54638e-06
5.54635e-06
5.54631e-06
5.54626e-06
5.54622e-06
5.54618e-06
5.54614e-06
5.54611e-06
5.54607e-06
5.54604e-06
5.54601e-06
5.54598e-06
5.54596e-06
5.54593e-06
5.54591e-06
5.54589e-06
5.54588e-06
5.54586e-06
5.54585e-06
5.54583e-06
5.54582e-06
5.54581e-06
5.5458e-06
5.54579e-06
5.54579e-06
5.54578e-06
5.54578e-06
5.54577e-06
5.54577e-06
5.54576e-06
5.54576e-06
5.54575e-06
5.54575e-06
5.54575e-06
5.54576e-06
5.54576e-06
5.54577e-06
5.54579e-06
5.54581e-06
5.54583e-06
5.54585e-06
5.54587e-06
5.54589e-06
5.54591e-06
5.54593e-06
5.54596e-06
5.54598e-06
5.54601e-06
5.54603e-06
5.54606e-06
5.54608e-06
5.5461e-06
5.54612e-06
5.54613e-06
5.54614e-06
5.54615e-06
5.54609e-06
1.41747e-05
1.41751e-05
1.4175e-05
1.41747e-05
1.41742e-05
1.41738e-05
1.41734e-05
1.4173e-05
1.41727e-05
1.41725e-05
1.41723e-05
1.41721e-05
1.4172e-05
1.4172e-05
1.41719e-05
1.41719e-05
1.41719e-05
1.4172e-05
1.4172e-05
1.41721e-05
1.41722e-05
1.41723e-05
1.41724e-05
1.41725e-05
1.41726e-05
1.41727e-05
1.41728e-05
1.41729e-05
1.4173e-05
1.41732e-05
1.41733e-05
1.41734e-05
1.41735e-05
1.41736e-05
1.41737e-05
1.41738e-05
1.41739e-05
1.4174e-05
1.41741e-05
1.41742e-05
1.41743e-05
1.41744e-05
1.41744e-05
1.41745e-05
1.41746e-05
1.41746e-05
1.41747e-05
1.41747e-05
1.41748e-05
1.41748e-05
1.41748e-05
1.41749e-05
1.41749e-05
1.41749e-05
1.4175e-05
1.4175e-05
1.4175e-05
1.4175e-05
1.4175e-05
1.41749e-05
1.41749e-05
1.41748e-05
1.41747e-05
1.41746e-05
1.41745e-05
1.41744e-05
1.41743e-05
1.41742e-05
1.41741e-05
1.4174e-05
1.41739e-05
1.41739e-05
1.41738e-05
1.41737e-05
1.41736e-05
1.41736e-05
1.41735e-05
1.41735e-05
1.41734e-05
1.41734e-05
1.41733e-05
1.41733e-05
1.41733e-05
1.41732e-05
1.41732e-05
1.41732e-05
1.41732e-05
1.41732e-05
1.41731e-05
1.41731e-05
1.41731e-05
1.41731e-05
1.41731e-05
1.41731e-05
1.41731e-05
1.41731e-05
1.41731e-05
1.41731e-05
1.41731e-05
1.41731e-05
1.41732e-05
1.41732e-05
1.41733e-05
1.41733e-05
1.41734e-05
1.41734e-05
1.41735e-05
1.41735e-05
1.41736e-05
1.41736e-05
1.41737e-05
1.41738e-05
1.41738e-05
1.41739e-05
1.41739e-05
1.4174e-05
1.4174e-05
1.4174e-05
1.41741e-05
1.41739e-05
2.81638e-05
2.81646e-05
2.81645e-05
2.81638e-05
2.81629e-05
2.8162e-05
2.81613e-05
2.81606e-05
2.81601e-05
2.81597e-05
2.81593e-05
2.8159e-05
2.81589e-05
2.81587e-05
2.81587e-05
2.81587e-05
2.81587e-05
2.81588e-05
2.81589e-05
2.8159e-05
2.81592e-05
2.81594e-05
2.81596e-05
2.81598e-05
2.816e-05
2.81602e-05
2.81604e-05
2.81606e-05
2.81608e-05
2.8161e-05
2.81612e-05
2.81614e-05
2.81616e-05
2.81618e-05
2.8162e-05
2.81622e-05
2.81624e-05
2.81626e-05
2.81628e-05
2.81629e-05
2.81631e-05
2.81633e-05
2.81634e-05
2.81636e-05
2.81637e-05
2.81638e-05
2.81639e-05
2.8164e-05
2.8164e-05
2.81641e-05
2.81642e-05
2.81642e-05
2.81643e-05
2.81644e-05
2.81644e-05
2.81645e-05
2.81645e-05
2.81645e-05
2.81644e-05
2.81643e-05
2.81642e-05
2.81641e-05
2.81639e-05
2.81638e-05
2.81636e-05
2.81634e-05
2.81632e-05
2.8163e-05
2.81628e-05
2.81626e-05
2.81624e-05
2.81623e-05
2.81621e-05
2.8162e-05
2.81619e-05
2.81617e-05
2.81616e-05
2.81615e-05
2.81615e-05
2.81614e-05
2.81613e-05
2.81612e-05
2.81612e-05
2.81611e-05
2.81611e-05
2.8161e-05
2.8161e-05
2.8161e-05
2.81609e-05
2.81609e-05
2.81609e-05
2.81609e-05
2.81608e-05
2.81608e-05
2.81608e-05
2.81608e-05
2.81608e-05
2.81608e-05
2.81609e-05
2.81609e-05
2.8161e-05
2.81611e-05
2.81612e-05
2.81613e-05
2.81614e-05
2.81615e-05
2.81616e-05
2.81617e-05
2.81618e-05
2.81619e-05
2.8162e-05
2.81622e-05
2.81623e-05
2.81624e-05
2.81625e-05
2.81625e-05
2.81626e-05
2.81626e-05
2.81627e-05
2.81624e-05
4.61285e-05
4.61296e-05
4.61294e-05
4.61283e-05
4.61269e-05
4.61256e-05
4.61245e-05
4.61235e-05
4.61227e-05
4.61221e-05
4.61216e-05
4.61212e-05
4.61209e-05
4.61208e-05
4.61207e-05
4.61207e-05
4.61208e-05
4.61209e-05
4.61211e-05
4.61213e-05
4.61215e-05
4.61218e-05
4.61221e-05
4.61224e-05
4.61227e-05
4.61231e-05
4.61234e-05
4.61237e-05
4.6124e-05
4.61244e-05
4.61247e-05
4.6125e-05
4.61253e-05
4.61256e-05
4.61259e-05
4.61262e-05
4.61264e-05
4.61267e-05
4.6127e-05
4.61272e-05
4.61275e-05
4.61277e-05
4.61279e-05
4.61282e-05
4.61284e-05
4.61285e-05
4.61287e-05
4.61288e-05
4.61289e-05
4.6129e-05
4.61291e-05
4.61292e-05
4.61293e-05
4.61294e-05
4.61295e-05
4.61295e-05
4.61295e-05
4.61295e-05
4.61294e-05
4.61293e-05
4.61291e-05
4.61289e-05
4.61287e-05
4.61284e-05
4.61281e-05
4.61278e-05
4.61275e-05
4.61272e-05
4.61269e-05
4.61266e-05
4.61264e-05
4.61261e-05
4.61259e-05
4.61257e-05
4.61255e-05
4.61253e-05
4.61251e-05
4.6125e-05
4.61249e-05
4.61247e-05
4.61246e-05
4.61245e-05
4.61245e-05
4.61244e-05
4.61243e-05
4.61242e-05
4.61242e-05
4.61241e-05
4.61241e-05
4.61241e-05
4.6124e-05
4.6124e-05
4.61239e-05
4.61239e-05
4.61239e-05
4.61239e-05
4.61239e-05
4.61239e-05
4.6124e-05
4.61241e-05
4.61242e-05
4.61243e-05
4.61245e-05
4.61246e-05
4.61248e-05
4.6125e-05
4.61251e-05
4.61253e-05
4.61255e-05
4.61257e-05
4.61258e-05
4.6126e-05
4.61262e-05
4.61263e-05
4.61265e-05
4.61266e-05
4.61267e-05
4.61267e-05
4.61268e-05
4.61264e-05
6.52503e-05
6.52517e-05
6.52514e-05
6.525e-05
6.52483e-05
6.52466e-05
6.52452e-05
6.52439e-05
6.52429e-05
6.52421e-05
6.52415e-05
6.5241e-05
6.52407e-05
6.52405e-05
6.52404e-05
6.52405e-05
6.52406e-05
6.52408e-05
6.5241e-05
6.52413e-05
6.52416e-05
6.5242e-05
6.52424e-05
6.52428e-05
6.52432e-05
6.52437e-05
6.52441e-05
6.52445e-05
6.52449e-05
6.52454e-05
6.52458e-05
6.52462e-05
6.52466e-05
6.5247e-05
6.52473e-05
6.52477e-05
6.5248e-05
6.52484e-05
6.52487e-05
6.5249e-05
6.52494e-05
6.52497e-05
6.525e-05
6.52503e-05
6.52505e-05
6.52507e-05
6.52509e-05
6.52511e-05
6.52512e-05
6.52513e-05
6.52515e-05
6.52516e-05
6.52517e-05
6.52518e-05
6.52519e-05
6.5252e-05
6.5252e-05
6.52519e-05
6.52518e-05
6.52516e-05
6.52514e-05
6.52511e-05
6.52507e-05
6.52504e-05
6.525e-05
6.52496e-05
6.52492e-05
6.52488e-05
6.52484e-05
6.52481e-05
6.52477e-05
6.52474e-05
6.52471e-05
6.52468e-05
6.52466e-05
6.52464e-05
6.52462e-05
6.5246e-05
6.52458e-05
6.52457e-05
6.52455e-05
6.52454e-05
6.52453e-05
6.52452e-05
6.52451e-05
6.5245e-05
6.52449e-05
6.52449e-05
6.52448e-05
6.52448e-05
6.52447e-05
6.52447e-05
6.52446e-05
6.52446e-05
6.52446e-05
6.52445e-05
6.52446e-05
6.52446e-05
6.52447e-05
6.52448e-05
6.5245e-05
6.52452e-05
6.52454e-05
6.52456e-05
6.52458e-05
6.52461e-05
6.52463e-05
6.52465e-05
6.52467e-05
6.5247e-05
6.52472e-05
6.52474e-05
6.52477e-05
6.52478e-05
6.5248e-05
6.52482e-05
6.52483e-05
6.52483e-05
6.52485e-05
6.52479e-05
8.31477e-05
8.31491e-05
8.31488e-05
8.31473e-05
8.31453e-05
8.31434e-05
8.31417e-05
8.31403e-05
8.31392e-05
8.31382e-05
8.31375e-05
8.3137e-05
8.31367e-05
8.31365e-05
8.31364e-05
8.31365e-05
8.31367e-05
8.31369e-05
8.31372e-05
8.31376e-05
8.3138e-05
8.31385e-05
8.31389e-05
8.31394e-05
8.31399e-05
8.31405e-05
8.3141e-05
8.31415e-05
8.3142e-05
8.31425e-05
8.3143e-05
8.31434e-05
8.31439e-05
8.31444e-05
8.31448e-05
8.31452e-05
8.31456e-05
8.3146e-05
8.31464e-05
8.31468e-05
8.31472e-05
8.31475e-05
8.31479e-05
8.31482e-05
8.31485e-05
8.31488e-05
8.3149e-05
8.31492e-05
8.31493e-05
8.31495e-05
8.31496e-05
8.31498e-05
8.31499e-05
8.31501e-05
8.31502e-05
8.31502e-05
8.31502e-05
8.31501e-05
8.31499e-05
8.31497e-05
8.31493e-05
8.3149e-05
8.31486e-05
8.31481e-05
8.31476e-05
8.31472e-05
8.31467e-05
8.31462e-05
8.31458e-05
8.31454e-05
8.3145e-05
8.31446e-05
8.31442e-05
8.31439e-05
8.31436e-05
8.31434e-05
8.31431e-05
8.31429e-05
8.31427e-05
8.31425e-05
8.31424e-05
8.31423e-05
8.31421e-05
8.3142e-05
8.31419e-05
8.31418e-05
8.31417e-05
8.31416e-05
8.31416e-05
8.31415e-05
8.31414e-05
8.31414e-05
8.31413e-05
8.31413e-05
8.31413e-05
8.31413e-05
8.31413e-05
8.31414e-05
8.31415e-05
8.31416e-05
8.31418e-05
8.3142e-05
8.31423e-05
8.31426e-05
8.31429e-05
8.31432e-05
8.31434e-05
8.31437e-05
8.3144e-05
8.31443e-05
8.31445e-05
8.31448e-05
8.3145e-05
8.31453e-05
8.31455e-05
8.31456e-05
8.31457e-05
8.31458e-05
8.31459e-05
8.31454e-05
9.8686e-05
9.86872e-05
9.86869e-05
9.86854e-05
9.86833e-05
9.86813e-05
9.86795e-05
9.8678e-05
9.86768e-05
9.86758e-05
9.86751e-05
9.86745e-05
9.86742e-05
9.8674e-05
9.8674e-05
9.86741e-05
9.86743e-05
9.86746e-05
9.8675e-05
9.86754e-05
9.86759e-05
9.86764e-05
9.8677e-05
9.86775e-05
9.86781e-05
9.86787e-05
9.86793e-05
9.86798e-05
9.86804e-05
9.8681e-05
9.86815e-05
9.8682e-05
9.86826e-05
9.86831e-05
9.86835e-05
9.8684e-05
9.86845e-05
9.86849e-05
9.86853e-05
9.86857e-05
9.86862e-05
9.86866e-05
9.86869e-05
9.86873e-05
9.86876e-05
9.86879e-05
9.86882e-05
9.86884e-05
9.86885e-05
9.86887e-05
9.86889e-05
9.86891e-05
9.86892e-05
9.86893e-05
9.86894e-05
9.86894e-05
9.86894e-05
9.86892e-05
9.8689e-05
9.86887e-05
9.86883e-05
9.86879e-05
9.86874e-05
9.86869e-05
9.86863e-05
9.86858e-05
9.86853e-05
9.86848e-05
9.86843e-05
9.86838e-05
9.86833e-05
9.86829e-05
9.86825e-05
9.86822e-05
9.86819e-05
9.86816e-05
9.86813e-05
9.86811e-05
9.86809e-05
9.86807e-05
9.86805e-05
9.86804e-05
9.86802e-05
9.86801e-05
9.868e-05
9.86799e-05
9.86798e-05
9.86797e-05
9.86796e-05
9.86795e-05
9.86795e-05
9.86794e-05
9.86793e-05
9.86793e-05
9.86793e-05
9.86793e-05
9.86793e-05
9.86794e-05
9.86796e-05
9.86798e-05
9.868e-05
9.86803e-05
9.86806e-05
9.86809e-05
9.86812e-05
9.86816e-05
9.86819e-05
9.86822e-05
9.86825e-05
9.86828e-05
9.86831e-05
9.86834e-05
9.86837e-05
9.86839e-05
9.86841e-05
9.86843e-05
9.86844e-05
9.86845e-05
9.86846e-05
9.86841e-05
0.000111667
0.000111668
0.000111668
0.000111666
0.000111664
0.000111662
0.00011166
0.000111659
0.000111658
0.000111657
0.000111656
0.000111655
0.000111655
0.000111655
0.000111655
0.000111655
0.000111655
0.000111656
0.000111656
0.000111657
0.000111657
0.000111658
0.000111658
0.000111659
0.00011166
0.00011166
0.000111661
0.000111661
0.000111662
0.000111663
0.000111663
0.000111664
0.000111664
0.000111665
0.000111665
0.000111666
0.000111666
0.000111667
0.000111667
0.000111668
0.000111668
0.000111669
0.000111669
0.000111669
0.00011167
0.00011167
0.00011167
0.000111671
0.000111671
0.000111671
0.000111671
0.000111671
0.000111671
0.000111672
0.000111672
0.000111672
0.000111672
0.000111671
0.000111671
0.000111671
0.00011167
0.00011167
0.000111669
0.000111669
0.000111668
0.000111667
0.000111667
0.000111666
0.000111666
0.000111665
0.000111665
0.000111664
0.000111664
0.000111664
0.000111663
0.000111663
0.000111663
0.000111662
0.000111662
0.000111662
0.000111662
0.000111662
0.000111661
0.000111661
0.000111661
0.000111661
0.000111661
0.000111661
0.000111661
0.000111661
0.000111661
0.000111661
0.000111661
0.000111661
0.00011166
0.000111661
0.000111661
0.000111661
0.000111661
0.000111661
0.000111661
0.000111662
0.000111662
0.000111662
0.000111663
0.000111663
0.000111663
0.000111664
0.000111664
0.000111665
0.000111665
0.000111665
0.000111665
0.000111666
0.000111666
0.000111666
0.000111666
0.000111666
0.000111666
0.000111666
0.00012233
0.000122331
0.00012233
0.000122329
0.000122327
0.000122325
0.000122323
0.000122322
0.000122321
0.00012232
0.000122319
0.000122318
0.000122318
0.000122318
0.000122318
0.000122318
0.000122318
0.000122319
0.000122319
0.00012232
0.00012232
0.000122321
0.000122322
0.000122322
0.000122323
0.000122324
0.000122324
0.000122325
0.000122326
0.000122326
0.000122327
0.000122328
0.000122328
0.000122329
0.000122329
0.00012233
0.00012233
0.000122331
0.000122331
0.000122332
0.000122332
0.000122333
0.000122333
0.000122334
0.000122334
0.000122334
0.000122335
0.000122335
0.000122335
0.000122335
0.000122335
0.000122336
0.000122336
0.000122336
0.000122336
0.000122336
0.000122336
0.000122335
0.000122335
0.000122335
0.000122334
0.000122333
0.000122333
0.000122332
0.000122332
0.000122331
0.00012233
0.00012233
0.000122329
0.000122329
0.000122328
0.000122328
0.000122327
0.000122327
0.000122327
0.000122326
0.000122326
0.000122326
0.000122325
0.000122325
0.000122325
0.000122325
0.000122325
0.000122325
0.000122325
0.000122324
0.000122324
0.000122324
0.000122324
0.000122324
0.000122324
0.000122324
0.000122324
0.000122324
0.000122324
0.000122324
0.000122324
0.000122324
0.000122324
0.000122324
0.000122325
0.000122325
0.000122326
0.000122326
0.000122326
0.000122327
0.000122327
0.000122327
0.000122328
0.000122328
0.000122329
0.000122329
0.000122329
0.000122329
0.00012233
0.00012233
0.00012233
0.00012233
0.00012233
0.00012233
0.000131043
0.000131043
0.000131042
0.000131041
0.000131039
0.000131037
0.000131036
0.000131034
0.000131033
0.000131032
0.000131031
0.000131031
0.00013103
0.00013103
0.00013103
0.00013103
0.000131031
0.000131031
0.000131032
0.000131032
0.000131033
0.000131034
0.000131034
0.000131035
0.000131036
0.000131037
0.000131037
0.000131038
0.000131039
0.000131039
0.00013104
0.000131041
0.000131041
0.000131042
0.000131043
0.000131043
0.000131044
0.000131044
0.000131045
0.000131045
0.000131046
0.000131046
0.000131047
0.000131047
0.000131047
0.000131048
0.000131048
0.000131048
0.000131048
0.000131049
0.000131049
0.000131049
0.000131049
0.000131049
0.000131049
0.000131049
0.000131049
0.000131048
0.000131048
0.000131048
0.000131047
0.000131046
0.000131046
0.000131045
0.000131044
0.000131044
0.000131043
0.000131043
0.000131042
0.000131041
0.000131041
0.00013104
0.00013104
0.00013104
0.000131039
0.000131039
0.000131039
0.000131038
0.000131038
0.000131038
0.000131038
0.000131037
0.000131037
0.000131037
0.000131037
0.000131037
0.000131037
0.000131037
0.000131037
0.000131036
0.000131036
0.000131036
0.000131036
0.000131036
0.000131036
0.000131036
0.000131036
0.000131037
0.000131037
0.000131037
0.000131037
0.000131038
0.000131038
0.000131039
0.000131039
0.00013104
0.00013104
0.00013104
0.000131041
0.000131041
0.000131041
0.000131042
0.000131042
0.000131042
0.000131042
0.000131043
0.000131043
0.000131043
0.000131043
0.000131043
0.000138165
0.000138164
0.000138163
0.000138162
0.00013816
0.000138159
0.000138157
0.000138155
0.000138154
0.000138153
0.000138153
0.000138152
0.000138152
0.000138152
0.000138152
0.000138152
0.000138152
0.000138153
0.000138153
0.000138154
0.000138155
0.000138155
0.000138156
0.000138157
0.000138158
0.000138158
0.000138159
0.00013816
0.000138161
0.000138161
0.000138162
0.000138163
0.000138164
0.000138164
0.000138165
0.000138165
0.000138166
0.000138167
0.000138167
0.000138168
0.000138168
0.000138169
0.000138169
0.000138169
0.00013817
0.00013817
0.000138171
0.000138171
0.000138171
0.000138171
0.000138171
0.000138172
0.000138172
0.000138172
0.000138172
0.000138171
0.000138171
0.000138171
0.00013817
0.00013817
0.000138169
0.000138168
0.000138168
0.000138167
0.000138166
0.000138166
0.000138165
0.000138164
0.000138164
0.000138163
0.000138163
0.000138162
0.000138162
0.000138161
0.000138161
0.000138161
0.00013816
0.00013816
0.00013816
0.00013816
0.000138159
0.000138159
0.000138159
0.000138159
0.000138159
0.000138159
0.000138158
0.000138158
0.000138158
0.000138158
0.000138158
0.000138158
0.000138158
0.000138158
0.000138158
0.000138158
0.000138158
0.000138158
0.000138159
0.000138159
0.000138159
0.00013816
0.00013816
0.000138161
0.000138161
0.000138162
0.000138162
0.000138162
0.000138163
0.000138163
0.000138163
0.000138164
0.000138164
0.000138164
0.000138164
0.000138165
0.000138165
0.000138165
0.000138165
0.000138165
0.000144003
0.000144002
0.000144001
0.000144
0.000143998
0.000143997
0.000143995
0.000143994
0.000143993
0.000143992
0.000143991
0.000143991
0.000143991
0.00014399
0.000143991
0.000143991
0.000143991
0.000143992
0.000143992
0.000143993
0.000143994
0.000143994
0.000143995
0.000143996
0.000143997
0.000143997
0.000143998
0.000143999
0.000144
0.000144001
0.000144001
0.000144002
0.000144003
0.000144003
0.000144004
0.000144005
0.000144005
0.000144006
0.000144006
0.000144007
0.000144007
0.000144008
0.000144008
0.000144009
0.000144009
0.00014401
0.00014401
0.00014401
0.00014401
0.000144011
0.000144011
0.000144011
0.000144011
0.000144011
0.000144011
0.000144011
0.00014401
0.00014401
0.000144009
0.000144009
0.000144008
0.000144007
0.000144006
0.000144006
0.000144005
0.000144004
0.000144004
0.000144003
0.000144002
0.000144002
0.000144001
0.000144001
0.000144
0.000144
0.000144
0.000143999
0.000143999
0.000143999
0.000143998
0.000143998
0.000143998
0.000143998
0.000143998
0.000143998
0.000143997
0.000143997
0.000143997
0.000143997
0.000143997
0.000143997
0.000143997
0.000143997
0.000143997
0.000143997
0.000143997
0.000143997
0.000143997
0.000143997
0.000143997
0.000143998
0.000143998
0.000143999
0.000143999
0.000144
0.000144
0.000144001
0.000144001
0.000144001
0.000144002
0.000144002
0.000144002
0.000144003
0.000144003
0.000144003
0.000144003
0.000144003
0.000144004
0.000144004
0.000144004
0.000144004
0.000148808
0.000148806
0.000148805
0.000148804
0.000148802
0.000148801
0.000148799
0.000148798
0.000148797
0.000148796
0.000148796
0.000148795
0.000148795
0.000148795
0.000148795
0.000148795
0.000148796
0.000148796
0.000148797
0.000148798
0.000148798
0.000148799
0.0001488
0.000148801
0.000148801
0.000148802
0.000148803
0.000148804
0.000148805
0.000148805
0.000148806
0.000148807
0.000148808
0.000148808
0.000148809
0.00014881
0.00014881
0.000148811
0.000148811
0.000148812
0.000148813
0.000148813
0.000148814
0.000148814
0.000148814
0.000148815
0.000148815
0.000148815
0.000148816
0.000148816
0.000148816
0.000148816
0.000148816
0.000148816
0.000148816
0.000148816
0.000148815
0.000148815
0.000148814
0.000148813
0.000148813
0.000148812
0.000148811
0.00014881
0.00014881
0.000148809
0.000148808
0.000148808
0.000148807
0.000148806
0.000148806
0.000148805
0.000148805
0.000148805
0.000148804
0.000148804
0.000148804
0.000148803
0.000148803
0.000148803
0.000148803
0.000148802
0.000148802
0.000148802
0.000148802
0.000148802
0.000148802
0.000148801
0.000148801
0.000148801
0.000148801
0.000148801
0.000148801
0.000148801
0.000148801
0.000148801
0.000148802
0.000148802
0.000148802
0.000148803
0.000148803
0.000148803
0.000148804
0.000148804
0.000148805
0.000148805
0.000148806
0.000148806
0.000148807
0.000148807
0.000148807
0.000148807
0.000148808
0.000148808
0.000148808
0.000148808
0.000148808
0.000148808
0.000148808
0.000148809
0.000152775
0.000152773
0.000152772
0.00015277
0.000152769
0.000152768
0.000152766
0.000152765
0.000152764
0.000152763
0.000152763
0.000152763
0.000152762
0.000152762
0.000152762
0.000152763
0.000152763
0.000152764
0.000152764
0.000152765
0.000152766
0.000152766
0.000152767
0.000152768
0.000152769
0.00015277
0.000152771
0.000152771
0.000152772
0.000152773
0.000152774
0.000152775
0.000152775
0.000152776
0.000152777
0.000152777
0.000152778
0.000152779
0.000152779
0.00015278
0.00015278
0.000152781
0.000152781
0.000152782
0.000152782
0.000152783
0.000152783
0.000152783
0.000152784
0.000152784
0.000152784
0.000152784
0.000152784
0.000152784
0.000152784
0.000152783
0.000152783
0.000152782
0.000152781
0.000152781
0.00015278
0.000152779
0.000152778
0.000152778
0.000152777
0.000152776
0.000152776
0.000152775
0.000152774
0.000152774
0.000152773
0.000152773
0.000152772
0.000152772
0.000152771
0.000152771
0.000152771
0.000152771
0.00015277
0.00015277
0.00015277
0.00015277
0.000152769
0.000152769
0.000152769
0.000152769
0.000152769
0.000152769
0.000152769
0.000152768
0.000152768
0.000152768
0.000152768
0.000152768
0.000152768
0.000152769
0.000152769
0.000152769
0.00015277
0.00015277
0.00015277
0.000152771
0.000152771
0.000152772
0.000152772
0.000152773
0.000152773
0.000152774
0.000152774
0.000152774
0.000152775
0.000152775
0.000152775
0.000152775
0.000152775
0.000152775
0.000152775
0.000152776
0.000152775
0.000152776
0.000156059
0.000156057
0.000156055
0.000156054
0.000156053
0.000156051
0.00015605
0.000156049
0.000156048
0.000156048
0.000156047
0.000156047
0.000156047
0.000156047
0.000156047
0.000156047
0.000156047
0.000156048
0.000156048
0.000156049
0.00015605
0.000156051
0.000156051
0.000156052
0.000156053
0.000156054
0.000156055
0.000156056
0.000156057
0.000156057
0.000156058
0.000156059
0.00015606
0.000156061
0.000156061
0.000156062
0.000156063
0.000156063
0.000156064
0.000156064
0.000156065
0.000156065
0.000156066
0.000156067
0.000156067
0.000156067
0.000156068
0.000156068
0.000156068
0.000156069
0.000156069
0.000156069
0.000156069
0.000156068
0.000156068
0.000156067
0.000156067
0.000156066
0.000156065
0.000156065
0.000156064
0.000156063
0.000156062
0.000156062
0.000156061
0.00015606
0.00015606
0.000156059
0.000156058
0.000156058
0.000156057
0.000156057
0.000156056
0.000156056
0.000156056
0.000156055
0.000156055
0.000156055
0.000156055
0.000156054
0.000156054
0.000156054
0.000156054
0.000156054
0.000156053
0.000156053
0.000156053
0.000156053
0.000156053
0.000156053
0.000156052
0.000156052
0.000156052
0.000156052
0.000156053
0.000156053
0.000156053
0.000156054
0.000156054
0.000156054
0.000156055
0.000156055
0.000156056
0.000156056
0.000156057
0.000156057
0.000156058
0.000156058
0.000156058
0.000156059
0.000156059
0.000156059
0.000156059
0.000156059
0.00015606
0.00015606
0.00015606
0.00015606
0.00015606
0.00015606
0.00015878
0.000158779
0.000158777
0.000158775
0.000158774
0.000158773
0.000158772
0.000158771
0.00015877
0.000158769
0.000158769
0.000158769
0.000158769
0.000158769
0.000158769
0.000158769
0.000158769
0.00015877
0.000158771
0.000158771
0.000158772
0.000158773
0.000158774
0.000158774
0.000158775
0.000158776
0.000158777
0.000158778
0.000158779
0.00015878
0.00015878
0.000158781
0.000158782
0.000158783
0.000158783
0.000158784
0.000158785
0.000158785
0.000158786
0.000158787
0.000158787
0.000158788
0.000158788
0.000158789
0.000158789
0.00015879
0.00015879
0.00015879
0.000158791
0.000158791
0.000158791
0.000158791
0.000158791
0.000158791
0.00015879
0.000158789
0.000158789
0.000158788
0.000158787
0.000158787
0.000158786
0.000158785
0.000158784
0.000158784
0.000158783
0.000158782
0.000158782
0.000158781
0.00015878
0.00015878
0.000158779
0.000158779
0.000158778
0.000158778
0.000158778
0.000158777
0.000158777
0.000158777
0.000158777
0.000158776
0.000158776
0.000158776
0.000158776
0.000158775
0.000158775
0.000158775
0.000158775
0.000158775
0.000158775
0.000158774
0.000158774
0.000158774
0.000158774
0.000158774
0.000158775
0.000158775
0.000158775
0.000158776
0.000158776
0.000158777
0.000158777
0.000158778
0.000158778
0.000158778
0.000158779
0.000158779
0.00015878
0.00015878
0.000158781
0.000158781
0.000158781
0.000158781
0.000158781
0.000158781
0.000158781
0.000158781
0.000158781
0.000158782
0.000158781
0.000158782
0.000161035
0.000161033
0.000161031
0.00016103
0.000161029
0.000161027
0.000161026
0.000161025
0.000161025
0.000161024
0.000161024
0.000161023
0.000161023
0.000161023
0.000161024
0.000161024
0.000161024
0.000161025
0.000161025
0.000161026
0.000161027
0.000161028
0.000161028
0.000161029
0.00016103
0.000161031
0.000161032
0.000161033
0.000161034
0.000161034
0.000161035
0.000161036
0.000161037
0.000161038
0.000161038
0.000161039
0.00016104
0.00016104
0.000161041
0.000161042
0.000161042
0.000161043
0.000161043
0.000161044
0.000161044
0.000161045
0.000161045
0.000161046
0.000161046
0.000161046
0.000161046
0.000161046
0.000161046
0.000161045
0.000161045
0.000161044
0.000161043
0.000161043
0.000161042
0.000161041
0.00016104
0.00016104
0.000161039
0.000161038
0.000161037
0.000161037
0.000161036
0.000161036
0.000161035
0.000161035
0.000161034
0.000161034
0.000161033
0.000161033
0.000161033
0.000161032
0.000161032
0.000161032
0.000161031
0.000161031
0.000161031
0.000161031
0.00016103
0.00016103
0.00016103
0.00016103
0.00016103
0.000161029
0.000161029
0.000161029
0.000161029
0.000161029
0.000161029
0.000161029
0.000161029
0.00016103
0.00016103
0.000161031
0.000161031
0.000161031
0.000161032
0.000161032
0.000161033
0.000161033
0.000161034
0.000161034
0.000161035
0.000161035
0.000161035
0.000161035
0.000161036
0.000161036
0.000161036
0.000161036
0.000161036
0.000161036
0.000161036
0.000161036
0.000161036
0.000161037
0.000162897
0.000162895
0.000162893
0.000162892
0.000162891
0.00016289
0.000162889
0.000162888
0.000162887
0.000162887
0.000162886
0.000162886
0.000162886
0.000162886
0.000162886
0.000162887
0.000162887
0.000162888
0.000162888
0.000162889
0.00016289
0.00016289
0.000162891
0.000162892
0.000162893
0.000162894
0.000162895
0.000162895
0.000162896
0.000162897
0.000162898
0.000162899
0.0001629
0.0001629
0.000162901
0.000162902
0.000162903
0.000162903
0.000162904
0.000162904
0.000162905
0.000162906
0.000162906
0.000162907
0.000162907
0.000162908
0.000162908
0.000162908
0.000162909
0.000162909
0.000162909
0.000162909
0.000162908
0.000162908
0.000162907
0.000162907
0.000162906
0.000162905
0.000162904
0.000162903
0.000162903
0.000162902
0.000162901
0.000162901
0.0001629
0.000162899