/*--------------------------------*- C++ -*----------------------------------*\
  =========                 |
  \\      /  F ield         | OpenFOAM: The Open Source CFD Toolbox
   \\    /   O peration     | Website:  https://openfoam.org
    \\  /    A nd           | Version:  7
     \\/     M anipulation  |
\*---------------------------------------------------------------------------*/
FoamFile
{
    version     2.0;
    format      ascii;
    class       volScalarField;
    location    "4000";
    object      nut;
}
// * * * * * * * * * * * * * * * * * * * * * * * * * * * * * * * * * * * * * //

dimensions      [0 2 -1 0 0 0 0];

internalField   nonuniform List<scalar> 
24000
(
6.86047e-12
6.86068e-12
6.86065e-12
6.86048e-12
6.86026e-12
6.86004e-12
6.85985e-12
6.85967e-12
6.85952e-12
6.8594e-12
6.8593e-12
6.85923e-12
6.85917e-12
6.85914e-12
6.85912e-12
6.85911e-12
6.85912e-12
6.85914e-12
6.85917e-12
6.8592e-12
6.85924e-12
6.85929e-12
6.85934e-12
6.85939e-12
6.85944e-12
6.8595e-12
6.85955e-12
6.85961e-12
6.85967e-12
6.85972e-12
6.85978e-12
6.85983e-12
6.85989e-12
6.85994e-12
6.85999e-12
6.86004e-12
6.86009e-12
6.86014e-12
6.86019e-12
6.86024e-12
6.86028e-12
6.86033e-12
6.86037e-12
6.86041e-12
6.86044e-12
6.86047e-12
6.86049e-12
6.86051e-12
6.86052e-12
6.86054e-12
6.86056e-12
6.86058e-12
6.8606e-12
6.86062e-12
6.86063e-12
6.86065e-12
6.86065e-12
6.86065e-12
6.86064e-12
6.86062e-12
6.8606e-12
6.86056e-12
6.86052e-12
6.86048e-12
6.86043e-12
6.86038e-12
6.86033e-12
6.86028e-12
6.86023e-12
6.86018e-12
6.86013e-12
6.86009e-12
6.86005e-12
6.86001e-12
6.85998e-12
6.85994e-12
6.85992e-12
6.85989e-12
6.85987e-12
6.85984e-12
6.85982e-12
6.85981e-12
6.85979e-12
6.85978e-12
6.85976e-12
6.85975e-12
6.85974e-12
6.85973e-12
6.85973e-12
6.85972e-12
6.85971e-12
6.85971e-12
6.8597e-12
6.8597e-12
6.85969e-12
6.85969e-12
6.85969e-12
6.8597e-12
6.8597e-12
6.85972e-12
6.85973e-12
6.85976e-12
6.85978e-12
6.85981e-12
6.85984e-12
6.85986e-12
6.85989e-12
6.85992e-12
6.85994e-12
6.85997e-12
6.86001e-12
6.86004e-12
6.86007e-12
6.8601e-12
6.86012e-12
6.86014e-12
6.86016e-12
6.86017e-12
6.86019e-12
6.86011e-12
1.19314e-09
1.19318e-09
1.19317e-09
1.19314e-09
1.19311e-09
1.19307e-09
1.19303e-09
1.193e-09
1.19298e-09
1.19296e-09
1.19294e-09
1.19293e-09
1.19292e-09
1.19291e-09
1.19291e-09
1.19291e-09
1.19291e-09
1.19291e-09
1.19292e-09
1.19292e-09
1.19293e-09
1.19294e-09
1.19295e-09
1.19295e-09
1.19296e-09
1.19297e-09
1.19298e-09
1.19299e-09
1.193e-09
1.19301e-09
1.19302e-09
1.19303e-09
1.19304e-09
1.19305e-09
1.19306e-09
1.19307e-09
1.19308e-09
1.19309e-09
1.19309e-09
1.1931e-09
1.19311e-09
1.19312e-09
1.19312e-09
1.19313e-09
1.19314e-09
1.19314e-09
1.19315e-09
1.19315e-09
1.19315e-09
1.19315e-09
1.19316e-09
1.19316e-09
1.19316e-09
1.19317e-09
1.19317e-09
1.19317e-09
1.19317e-09
1.19317e-09
1.19317e-09
1.19317e-09
1.19316e-09
1.19316e-09
1.19315e-09
1.19314e-09
1.19314e-09
1.19313e-09
1.19312e-09
1.19311e-09
1.1931e-09
1.19309e-09
1.19308e-09
1.19308e-09
1.19307e-09
1.19306e-09
1.19306e-09
1.19305e-09
1.19305e-09
1.19304e-09
1.19304e-09
1.19303e-09
1.19303e-09
1.19303e-09
1.19302e-09
1.19302e-09
1.19302e-09
1.19302e-09
1.19302e-09
1.19301e-09
1.19301e-09
1.19301e-09
1.19301e-09
1.19301e-09
1.19301e-09
1.19301e-09
1.19301e-09
1.19301e-09
1.19301e-09
1.19301e-09
1.19301e-09
1.19301e-09
1.19301e-09
1.19302e-09
1.19302e-09
1.19303e-09
1.19303e-09
1.19304e-09
1.19304e-09
1.19305e-09
1.19305e-09
1.19306e-09
1.19306e-09
1.19307e-09
1.19307e-09
1.19308e-09
1.19308e-09
1.19309e-09
1.19309e-09
1.19309e-09
1.19309e-09
1.19308e-09
2.55264e-08
2.55272e-08
2.55271e-08
2.55265e-08
2.55257e-08
2.55248e-08
2.55241e-08
2.55235e-08
2.55229e-08
2.55225e-08
2.55221e-08
2.55218e-08
2.55216e-08
2.55215e-08
2.55214e-08
2.55214e-08
2.55214e-08
2.55215e-08
2.55216e-08
2.55217e-08
2.55219e-08
2.5522e-08
2.55222e-08
2.55224e-08
2.55226e-08
2.55228e-08
2.5523e-08
2.55232e-08
2.55235e-08
2.55237e-08
2.55239e-08
2.55241e-08
2.55243e-08
2.55245e-08
2.55247e-08
2.55249e-08
2.5525e-08
2.55252e-08
2.55254e-08
2.55256e-08
2.55257e-08
2.55259e-08
2.5526e-08
2.55262e-08
2.55263e-08
2.55264e-08
2.55265e-08
2.55266e-08
2.55266e-08
2.55267e-08
2.55268e-08
2.55268e-08
2.55269e-08
2.5527e-08
2.5527e-08
2.55271e-08
2.55271e-08
2.55271e-08
2.55271e-08
2.5527e-08
2.55269e-08
2.55268e-08
2.55266e-08
2.55264e-08
2.55263e-08
2.55261e-08
2.55259e-08
2.55257e-08
2.55255e-08
2.55253e-08
2.55252e-08
2.5525e-08
2.55248e-08
2.55247e-08
2.55246e-08
2.55245e-08
2.55244e-08
2.55243e-08
2.55242e-08
2.55241e-08
2.5524e-08
2.5524e-08
2.55239e-08
2.55238e-08
2.55238e-08
2.55238e-08
2.55237e-08
2.55237e-08
2.55237e-08
2.55236e-08
2.55236e-08
2.55236e-08
2.55236e-08
2.55235e-08
2.55235e-08
2.55235e-08
2.55235e-08
2.55235e-08
2.55236e-08
2.55236e-08
2.55237e-08
2.55238e-08
2.55239e-08
2.5524e-08
2.55241e-08
2.55242e-08
2.55243e-08
2.55244e-08
2.55245e-08
2.55246e-08
2.55247e-08
2.55248e-08
2.55249e-08
2.5525e-08
2.55251e-08
2.55252e-08
2.55253e-08
2.55253e-08
2.55254e-08
2.55251e-08
1.95802e-07
1.95807e-07
1.95806e-07
1.95801e-07
1.95795e-07
1.95789e-07
1.95783e-07
1.95778e-07
1.95774e-07
1.95771e-07
1.95768e-07
1.95766e-07
1.95765e-07
1.95764e-07
1.95763e-07
1.95763e-07
1.95763e-07
1.95764e-07
1.95765e-07
1.95766e-07
1.95767e-07
1.95768e-07
1.9577e-07
1.95771e-07
1.95772e-07
1.95774e-07
1.95776e-07
1.95777e-07
1.95779e-07
1.9578e-07
1.95782e-07
1.95783e-07
1.95785e-07
1.95786e-07
1.95788e-07
1.95789e-07
1.95791e-07
1.95792e-07
1.95793e-07
1.95795e-07
1.95796e-07
1.95797e-07
1.95798e-07
1.95799e-07
1.958e-07
1.95801e-07
1.95801e-07
1.95802e-07
1.95802e-07
1.95803e-07
1.95803e-07
1.95804e-07
1.95805e-07
1.95805e-07
1.95805e-07
1.95806e-07
1.95806e-07
1.95806e-07
1.95806e-07
1.95805e-07
1.95804e-07
1.95803e-07
1.95802e-07
1.95801e-07
1.958e-07
1.95798e-07
1.95797e-07
1.95795e-07
1.95794e-07
1.95793e-07
1.95791e-07
1.9579e-07
1.95789e-07
1.95788e-07
1.95787e-07
1.95786e-07
1.95785e-07
1.95785e-07
1.95784e-07
1.95783e-07
1.95783e-07
1.95782e-07
1.95782e-07
1.95781e-07
1.95781e-07
1.95781e-07
1.95781e-07
1.9578e-07
1.9578e-07
1.9578e-07
1.9578e-07
1.95779e-07
1.95779e-07
1.95779e-07
1.95779e-07
1.95779e-07
1.95779e-07
1.95779e-07
1.95779e-07
1.9578e-07
1.9578e-07
1.95781e-07
1.95782e-07
1.95782e-07
1.95783e-07
1.95784e-07
1.95785e-07
1.95785e-07
1.95786e-07
1.95787e-07
1.95788e-07
1.95789e-07
1.9579e-07
1.9579e-07
1.95791e-07
1.95792e-07
1.95792e-07
1.95793e-07
1.95793e-07
1.95791e-07
8.36024e-07
8.3604e-07
8.36033e-07
8.36012e-07
8.35985e-07
8.35959e-07
8.35936e-07
8.35916e-07
8.35899e-07
8.35885e-07
8.35874e-07
8.35866e-07
8.3586e-07
8.35856e-07
8.35855e-07
8.35855e-07
8.35856e-07
8.35858e-07
8.35862e-07
8.35866e-07
8.35871e-07
8.35876e-07
8.35882e-07
8.35888e-07
8.35895e-07
8.35901e-07
8.35907e-07
8.35914e-07
8.3592e-07
8.35927e-07
8.35933e-07
8.3594e-07
8.35946e-07
8.35952e-07
8.35958e-07
8.35963e-07
8.35969e-07
8.35974e-07
8.35979e-07
8.35985e-07
8.3599e-07
8.35995e-07
8.35999e-07
8.36003e-07
8.36007e-07
8.3601e-07
8.36012e-07
8.36014e-07
8.36016e-07
8.36018e-07
8.3602e-07
8.36023e-07
8.36025e-07
8.36027e-07
8.36029e-07
8.3603e-07
8.36031e-07
8.3603e-07
8.36029e-07
8.36027e-07
8.36024e-07
8.3602e-07
8.36015e-07
8.36009e-07
8.36004e-07
8.35998e-07
8.35992e-07
8.35986e-07
8.3598e-07
8.35975e-07
8.35969e-07
8.35964e-07
8.3596e-07
8.35955e-07
8.35951e-07
8.35948e-07
8.35945e-07
8.35942e-07
8.35939e-07
8.35937e-07
8.35934e-07
8.35933e-07
8.35931e-07
8.35929e-07
8.35928e-07
8.35927e-07
8.35925e-07
8.35925e-07
8.35924e-07
8.35923e-07
8.35922e-07
8.35921e-07
8.35921e-07
8.3592e-07
8.3592e-07
8.35919e-07
8.3592e-07
8.3592e-07
8.35921e-07
8.35923e-07
8.35925e-07
8.35928e-07
8.3593e-07
8.35934e-07
8.35937e-07
8.3594e-07
8.35943e-07
8.35946e-07
8.35949e-07
8.35953e-07
8.35957e-07
8.3596e-07
8.35964e-07
8.35967e-07
8.3597e-07
8.35972e-07
8.35974e-07
8.35975e-07
8.35977e-07
8.35968e-07
2.40789e-06
2.40792e-06
2.40788e-06
2.40782e-06
2.40774e-06
2.40767e-06
2.40761e-06
2.40755e-06
2.40751e-06
2.40747e-06
2.40744e-06
2.40742e-06
2.4074e-06
2.4074e-06
2.40739e-06
2.40739e-06
2.4074e-06
2.4074e-06
2.40741e-06
2.40743e-06
2.40744e-06
2.40746e-06
2.40747e-06
2.40749e-06
2.40751e-06
2.40752e-06
2.40754e-06
2.40756e-06
2.40758e-06
2.4076e-06
2.40761e-06
2.40763e-06
2.40765e-06
2.40766e-06
2.40768e-06
2.40769e-06
2.40771e-06
2.40772e-06
2.40774e-06
2.40775e-06
2.40776e-06
2.40778e-06
2.40779e-06
2.4078e-06
2.40781e-06
2.40782e-06
2.40782e-06
2.40783e-06
2.40783e-06
2.40784e-06
2.40784e-06
2.40785e-06
2.40786e-06
2.40786e-06
2.40787e-06
2.40787e-06
2.40787e-06
2.40787e-06
2.40787e-06
2.40786e-06
2.40785e-06
2.40784e-06
2.40782e-06
2.40781e-06
2.40779e-06
2.40778e-06
2.40776e-06
2.40775e-06
2.40773e-06
2.40771e-06
2.4077e-06
2.40769e-06
2.40767e-06
2.40766e-06
2.40765e-06
2.40764e-06
2.40763e-06
2.40763e-06
2.40762e-06
2.40761e-06
2.40761e-06
2.4076e-06
2.4076e-06
2.40759e-06
2.40759e-06
2.40759e-06
2.40758e-06
2.40758e-06
2.40758e-06
2.40758e-06
2.40757e-06
2.40757e-06
2.40757e-06
2.40757e-06
2.40757e-06
2.40757e-06
2.40757e-06
2.40757e-06
2.40757e-06
2.40758e-06
2.40758e-06
2.40759e-06
2.4076e-06
2.40761e-06
2.40762e-06
2.40762e-06
2.40763e-06
2.40764e-06
2.40765e-06
2.40766e-06
2.40767e-06
2.40768e-06
2.40769e-06
2.4077e-06
2.40771e-06
2.40771e-06
2.40772e-06
2.40772e-06
2.40773e-06
2.4077e-06
5.233e-06
5.23302e-06
5.23292e-06
5.23277e-06
5.23261e-06
5.23246e-06
5.23233e-06
5.23222e-06
5.23213e-06
5.23206e-06
5.232e-06
5.23196e-06
5.23193e-06
5.23191e-06
5.23191e-06
5.23191e-06
5.23192e-06
5.23194e-06
5.23196e-06
5.23199e-06
5.23202e-06
5.23205e-06
5.23208e-06
5.23212e-06
5.23216e-06
5.23219e-06
5.23223e-06
5.23227e-06
5.2323e-06
5.23234e-06
5.23237e-06
5.23241e-06
5.23244e-06
5.23247e-06
5.23251e-06
5.23254e-06
5.23257e-06
5.23259e-06
5.23262e-06
5.23265e-06
5.23268e-06
5.2327e-06
5.23273e-06
5.23275e-06
5.23277e-06
5.23278e-06
5.23279e-06
5.2328e-06
5.23281e-06
5.23282e-06
5.23283e-06
5.23284e-06
5.23285e-06
5.23286e-06
5.23287e-06
5.23288e-06
5.23288e-06
5.23288e-06
5.23287e-06
5.23285e-06
5.23284e-06
5.23281e-06
5.23278e-06
5.23275e-06
5.23272e-06
5.23269e-06
5.23265e-06
5.23262e-06
5.23259e-06
5.23256e-06
5.23253e-06
5.2325e-06
5.23248e-06
5.23245e-06
5.23243e-06
5.23241e-06
5.2324e-06
5.23238e-06
5.23237e-06
5.23235e-06
5.23234e-06
5.23233e-06
5.23232e-06
5.23232e-06
5.23231e-06
5.2323e-06
5.2323e-06
5.23229e-06
5.23229e-06
5.23228e-06
5.23228e-06
5.23228e-06
5.23227e-06
5.23227e-06
5.23227e-06
5.23227e-06
5.23227e-06
5.23227e-06
5.23228e-06
5.23229e-06
5.2323e-06
5.23231e-06
5.23233e-06
5.23235e-06
5.23237e-06
5.23238e-06
5.2324e-06
5.23242e-06
5.23243e-06
5.23245e-06
5.23247e-06
5.23249e-06
5.23251e-06
5.23253e-06
5.23255e-06
5.23256e-06
5.23257e-06
5.23258e-06
5.23259e-06
5.23252e-06
9.32268e-06
9.3227e-06
9.32249e-06
9.32222e-06
9.32194e-06
9.32169e-06
9.32147e-06
9.32129e-06
9.32114e-06
9.32102e-06
9.32093e-06
9.32086e-06
9.32082e-06
9.3208e-06
9.32079e-06
9.3208e-06
9.32082e-06
9.32085e-06
9.32089e-06
9.32094e-06
9.32099e-06
9.32104e-06
9.3211e-06
9.32117e-06
9.32123e-06
9.32129e-06
9.32136e-06
9.32142e-06
9.32148e-06
9.32154e-06
9.3216e-06
9.32166e-06
9.32171e-06
9.32177e-06
9.32182e-06
9.32187e-06
9.32192e-06
9.32197e-06
9.32201e-06
9.32206e-06
9.3221e-06
9.32214e-06
9.32218e-06
9.32222e-06
9.32225e-06
9.32227e-06
9.32229e-06
9.3223e-06
9.32232e-06
9.32233e-06
9.32235e-06
9.32236e-06
9.32238e-06
9.3224e-06
9.32241e-06
9.32242e-06
9.32242e-06
9.32242e-06
9.3224e-06
9.32238e-06
9.32234e-06
9.3223e-06
9.32225e-06
9.3222e-06
9.32215e-06
9.32209e-06
9.32204e-06
9.32198e-06
9.32193e-06
9.32188e-06
9.32183e-06
9.32178e-06
9.32174e-06
9.3217e-06
9.32167e-06
9.32163e-06
9.32161e-06
9.32158e-06
9.32156e-06
9.32154e-06
9.32152e-06
9.3215e-06
9.32149e-06
9.32148e-06
9.32146e-06
9.32145e-06
9.32145e-06
9.32144e-06
9.32143e-06
9.32143e-06
9.32142e-06
9.32141e-06
9.32141e-06
9.3214e-06
9.3214e-06
9.3214e-06
9.3214e-06
9.32141e-06
9.32142e-06
9.32144e-06
9.32146e-06
9.32148e-06
9.32151e-06
9.32154e-06
9.32157e-06
9.3216e-06
9.32162e-06
9.32165e-06
9.32168e-06
9.32171e-06
9.32175e-06
9.32178e-06
9.32181e-06
9.32184e-06
9.32187e-06
9.32189e-06
9.3219e-06
9.32192e-06
9.32194e-06
9.3218e-06
1.44892e-05
1.44893e-05
1.44889e-05
1.44885e-05
1.44881e-05
1.44878e-05
1.44874e-05
1.44872e-05
1.4487e-05
1.44868e-05
1.44867e-05
1.44866e-05
1.44865e-05
1.44865e-05
1.44865e-05
1.44865e-05
1.44865e-05
1.44866e-05
1.44866e-05
1.44867e-05
1.44868e-05
1.44869e-05
1.4487e-05
1.44871e-05
1.44872e-05
1.44873e-05
1.44873e-05
1.44874e-05
1.44875e-05
1.44876e-05
1.44877e-05
1.44878e-05
1.44879e-05
1.4488e-05
1.4488e-05
1.44881e-05
1.44882e-05
1.44883e-05
1.44883e-05
1.44884e-05
1.44885e-05
1.44885e-05
1.44886e-05
1.44886e-05
1.44887e-05
1.44887e-05
1.44887e-05
1.44888e-05
1.44888e-05
1.44888e-05
1.44888e-05
1.44888e-05
1.44889e-05
1.44889e-05
1.44889e-05
1.44889e-05
1.44889e-05
1.44889e-05
1.44889e-05
1.44888e-05
1.44888e-05
1.44887e-05
1.44887e-05
1.44886e-05
1.44885e-05
1.44884e-05
1.44883e-05
1.44883e-05
1.44882e-05
1.44881e-05
1.4488e-05
1.4488e-05
1.44879e-05
1.44878e-05
1.44878e-05
1.44877e-05
1.44877e-05
1.44877e-05
1.44876e-05
1.44876e-05
1.44876e-05
1.44875e-05
1.44875e-05
1.44875e-05
1.44875e-05
1.44875e-05
1.44875e-05
1.44875e-05
1.44874e-05
1.44874e-05
1.44874e-05
1.44874e-05
1.44874e-05
1.44874e-05
1.44874e-05
1.44874e-05
1.44874e-05
1.44874e-05
1.44874e-05
1.44875e-05
1.44875e-05
1.44875e-05
1.44876e-05
1.44876e-05
1.44877e-05
1.44877e-05
1.44877e-05
1.44878e-05
1.44878e-05
1.44879e-05
1.44879e-05
1.4488e-05
1.4488e-05
1.4488e-05
1.44881e-05
1.44881e-05
1.44881e-05
1.44882e-05
1.44882e-05
1.4488e-05
2.05139e-05
2.05139e-05
2.05135e-05
2.0513e-05
2.05124e-05
2.05119e-05
2.05115e-05
2.05112e-05
2.05109e-05
2.05107e-05
2.05105e-05
2.05104e-05
2.05103e-05
2.05103e-05
2.05103e-05
2.05103e-05
2.05103e-05
2.05104e-05
2.05105e-05
2.05106e-05
2.05107e-05
2.05108e-05
2.0511e-05
2.05111e-05
2.05112e-05
2.05114e-05
2.05115e-05
2.05116e-05
2.05118e-05
2.05119e-05
2.0512e-05
2.05121e-05
2.05123e-05
2.05124e-05
2.05125e-05
2.05126e-05
2.05127e-05
2.05128e-05
2.05129e-05
2.0513e-05
2.05131e-05
2.05131e-05
2.05132e-05
2.05133e-05
2.05133e-05
2.05134e-05
2.05134e-05
2.05135e-05
2.05135e-05
2.05135e-05
2.05135e-05
2.05136e-05
2.05136e-05
2.05136e-05
2.05136e-05
2.05136e-05
2.05136e-05
2.05136e-05
2.05136e-05
2.05135e-05
2.05135e-05
2.05134e-05
2.05133e-05
2.05132e-05
2.05131e-05
2.0513e-05
2.05128e-05
2.05127e-05
2.05126e-05
2.05125e-05
2.05124e-05
2.05123e-05
2.05122e-05
2.05122e-05
2.05121e-05
2.0512e-05
2.0512e-05
2.05119e-05
2.05119e-05
2.05118e-05
2.05118e-05
2.05118e-05
2.05117e-05
2.05117e-05
2.05117e-05
2.05117e-05
2.05117e-05
2.05116e-05
2.05116e-05
2.05116e-05
2.05116e-05
2.05116e-05
2.05116e-05
2.05116e-05
2.05116e-05
2.05116e-05
2.05116e-05
2.05116e-05
2.05116e-05
2.05117e-05
2.05117e-05
2.05118e-05
2.05118e-05
2.05119e-05
2.05119e-05
2.0512e-05
2.0512e-05
2.05121e-05
2.05122e-05
2.05122e-05
2.05123e-05
2.05123e-05
2.05124e-05
2.05124e-05
2.05125e-05
2.05125e-05
2.05126e-05
2.05126e-05
2.05126e-05
2.05124e-05
2.72198e-05
2.72198e-05
2.72193e-05
2.72187e-05
2.72181e-05
2.72175e-05
2.7217e-05
2.72166e-05
2.72162e-05
2.7216e-05
2.72158e-05
2.72156e-05
2.72155e-05
2.72155e-05
2.72155e-05
2.72155e-05
2.72156e-05
2.72157e-05
2.72158e-05
2.72159e-05
2.72161e-05
2.72162e-05
2.72164e-05
2.72166e-05
2.72167e-05
2.72169e-05
2.72171e-05
2.72173e-05
2.72175e-05
2.72176e-05
2.72178e-05
2.7218e-05
2.72181e-05
2.72183e-05
2.72184e-05
2.72185e-05
2.72187e-05
2.72188e-05
2.72189e-05
2.7219e-05
2.72192e-05
2.72193e-05
2.72194e-05
2.72195e-05
2.72196e-05
2.72196e-05
2.72197e-05
2.72197e-05
2.72197e-05
2.72198e-05
2.72198e-05
2.72198e-05
2.72199e-05
2.72199e-05
2.72199e-05
2.72199e-05
2.72199e-05
2.72199e-05
2.72198e-05
2.72197e-05
2.72196e-05
2.72195e-05
2.72194e-05
2.72193e-05
2.72191e-05
2.7219e-05
2.72188e-05
2.72187e-05
2.72186e-05
2.72184e-05
2.72183e-05
2.72182e-05
2.72181e-05
2.7218e-05
2.72179e-05
2.72178e-05
2.72177e-05
2.72177e-05
2.72176e-05
2.72176e-05
2.72175e-05
2.72175e-05
2.72174e-05
2.72174e-05
2.72174e-05
2.72173e-05
2.72173e-05
2.72173e-05
2.72173e-05
2.72173e-05
2.72172e-05
2.72172e-05
2.72172e-05
2.72172e-05
2.72172e-05
2.72172e-05
2.72172e-05
2.72172e-05
2.72173e-05
2.72173e-05
2.72174e-05
2.72175e-05
2.72175e-05
2.72176e-05
2.72177e-05
2.72178e-05
2.72178e-05
2.72179e-05
2.7218e-05
2.72181e-05
2.72181e-05
2.72182e-05
2.72183e-05
2.72183e-05
2.72184e-05
2.72185e-05
2.72185e-05
2.72185e-05
2.72186e-05
2.72184e-05
3.44795e-05
3.44794e-05
3.44789e-05
3.44782e-05
3.44775e-05
3.44768e-05
3.44762e-05
3.44758e-05
3.44754e-05
3.44751e-05
3.44749e-05
3.44747e-05
3.44746e-05
3.44745e-05
3.44745e-05
3.44746e-05
3.44747e-05
3.44748e-05
3.4475e-05
3.44751e-05
3.44753e-05
3.44755e-05
3.44757e-05
3.4476e-05
3.44762e-05
3.44764e-05
3.44766e-05
3.44769e-05
3.44771e-05
3.44773e-05
3.44775e-05
3.44777e-05
3.44779e-05
3.44781e-05
3.44783e-05
3.44785e-05
3.44786e-05
3.44788e-05
3.4479e-05
3.44791e-05
3.44793e-05
3.44794e-05
3.44795e-05
3.44797e-05
3.44798e-05
3.44799e-05
3.44799e-05
3.448e-05
3.448e-05
3.448e-05
3.44801e-05
3.44801e-05
3.44801e-05
3.44802e-05
3.44802e-05
3.44802e-05
3.44802e-05
3.44801e-05
3.448e-05
3.44799e-05
3.44798e-05
3.44797e-05
3.44795e-05
3.44794e-05
3.44792e-05
3.4479e-05
3.44788e-05
3.44787e-05
3.44785e-05
3.44783e-05
3.44782e-05
3.4478e-05
3.44779e-05
3.44778e-05
3.44777e-05
3.44775e-05
3.44775e-05
3.44774e-05
3.44773e-05
3.44772e-05
3.44772e-05
3.44771e-05
3.44771e-05
3.4477e-05
3.4477e-05
3.44769e-05
3.44769e-05
3.44769e-05
3.44769e-05
3.44768e-05
3.44768e-05
3.44768e-05
3.44768e-05
3.44768e-05
3.44768e-05
3.44768e-05
3.44768e-05
3.44768e-05
3.44769e-05
3.4477e-05
3.4477e-05
3.44771e-05
3.44772e-05
3.44773e-05
3.44774e-05
3.44775e-05
3.44776e-05
3.44777e-05
3.44778e-05
3.44779e-05
3.4478e-05
3.4478e-05
3.44781e-05
3.44782e-05
3.44783e-05
3.44783e-05
3.44784e-05
3.44784e-05
3.44785e-05
3.44783e-05
4.22031e-05
4.22029e-05
4.22023e-05
4.22015e-05
4.22008e-05
4.22001e-05
4.21995e-05
4.2199e-05
4.21986e-05
4.21983e-05
4.2198e-05
4.21979e-05
4.21978e-05
4.21977e-05
4.21977e-05
4.21978e-05
4.21979e-05
4.21981e-05
4.21983e-05
4.21985e-05
4.21987e-05
4.21989e-05
4.21992e-05
4.21995e-05
4.21998e-05
4.22e-05
4.22003e-05
4.22006e-05
4.22009e-05
4.22011e-05
4.22014e-05
4.22016e-05
4.22019e-05
4.22021e-05
4.22024e-05
4.22026e-05
4.22028e-05
4.2203e-05
4.22032e-05
4.22034e-05
4.22036e-05
4.22037e-05
4.22039e-05
4.22041e-05
4.22042e-05
4.22043e-05
4.22044e-05
4.22045e-05
4.22045e-05
4.22046e-05
4.22046e-05
4.22047e-05
4.22047e-05
4.22047e-05
4.22047e-05
4.22047e-05
4.22047e-05
4.22046e-05
4.22045e-05
4.22044e-05
4.22042e-05
4.2204e-05
4.22039e-05
4.22037e-05
4.22034e-05
4.22032e-05
4.2203e-05
4.22028e-05
4.22026e-05
4.22024e-05
4.22022e-05
4.22021e-05
4.22019e-05
4.22017e-05
4.22016e-05
4.22015e-05
4.22014e-05
4.22013e-05
4.22012e-05
4.22011e-05
4.2201e-05
4.22009e-05
4.22009e-05
4.22008e-05
4.22008e-05
4.22007e-05
4.22007e-05
4.22006e-05
4.22006e-05
4.22006e-05
4.22006e-05
4.22005e-05
4.22005e-05
4.22005e-05
4.22005e-05
4.22005e-05
4.22005e-05
4.22006e-05
4.22007e-05
4.22008e-05
4.22009e-05
4.2201e-05
4.22011e-05
4.22012e-05
4.22014e-05
4.22015e-05
4.22016e-05
4.22017e-05
4.22018e-05
4.22019e-05
4.2202e-05
4.22021e-05
4.22022e-05
4.22023e-05
4.22024e-05
4.22024e-05
4.22025e-05
4.22025e-05
4.22025e-05
4.22025e-05
5.03271e-05
5.03266e-05
5.03259e-05
5.03252e-05
5.03244e-05
5.03238e-05
5.03232e-05
5.03227e-05
5.03222e-05
5.03219e-05
5.03217e-05
5.03215e-05
5.03214e-05
5.03214e-05
5.03214e-05
5.03215e-05
5.03217e-05
5.03218e-05
5.03221e-05
5.03223e-05
5.03226e-05
5.03229e-05
5.03232e-05
5.03235e-05
5.03238e-05
5.03242e-05
5.03245e-05
5.03248e-05
5.03252e-05
5.03255e-05
5.03258e-05
5.03261e-05
5.03264e-05
5.03267e-05
5.0327e-05
5.03272e-05
5.03275e-05
5.03278e-05
5.0328e-05
5.03282e-05
5.03285e-05
5.03287e-05
5.03289e-05
5.03291e-05
5.03292e-05
5.03294e-05
5.03295e-05
5.03296e-05
5.03297e-05
5.03297e-05
5.03298e-05
5.03298e-05
5.03299e-05
5.03299e-05
5.03299e-05
5.03298e-05
5.03298e-05
5.03297e-05
5.03295e-05
5.03294e-05
5.03292e-05
5.0329e-05
5.03287e-05
5.03285e-05
5.03283e-05
5.0328e-05
5.03278e-05
5.03275e-05
5.03273e-05
5.03271e-05
5.03269e-05
5.03267e-05
5.03265e-05
5.03263e-05
5.03261e-05
5.0326e-05
5.03258e-05
5.03257e-05
5.03256e-05
5.03255e-05
5.03254e-05
5.03253e-05
5.03252e-05
5.03252e-05
5.03251e-05
5.0325e-05
5.0325e-05
5.03249e-05
5.03249e-05
5.03249e-05
5.03248e-05
5.03248e-05
5.03248e-05
5.03248e-05
5.03248e-05
5.03248e-05
5.03248e-05
5.03249e-05
5.0325e-05
5.03251e-05
5.03252e-05
5.03254e-05
5.03255e-05
5.03257e-05
5.03259e-05
5.0326e-05
5.03261e-05
5.03263e-05
5.03264e-05
5.03265e-05
5.03266e-05
5.03267e-05
5.03268e-05
5.03269e-05
5.0327e-05
5.03271e-05
5.03271e-05
5.03272e-05
5.03272e-05
5.03274e-05
5.88057e-05
5.88048e-05
5.8804e-05
5.88033e-05
5.88026e-05
5.88019e-05
5.88014e-05
5.88009e-05
5.88005e-05
5.88002e-05
5.87999e-05
5.87998e-05
5.87997e-05
5.87997e-05
5.87998e-05
5.88e-05
5.88001e-05
5.88004e-05
5.88006e-05
5.88009e-05
5.88012e-05
5.88016e-05
5.88019e-05
5.88023e-05
5.88027e-05
5.88031e-05
5.88035e-05
5.88039e-05
5.88042e-05
5.88046e-05
5.8805e-05
5.88054e-05
5.88057e-05
5.88061e-05
5.88064e-05
5.88067e-05
5.8807e-05
5.88073e-05
5.88076e-05
5.88079e-05
5.88082e-05
5.88084e-05
5.88087e-05
5.88089e-05
5.88091e-05
5.88093e-05
5.88094e-05
5.88096e-05
5.88096e-05
5.88097e-05
5.88098e-05
5.88098e-05
5.88099e-05
5.88099e-05
5.88098e-05
5.88098e-05
5.88097e-05
5.88095e-05
5.88094e-05
5.88092e-05
5.88089e-05
5.88087e-05
5.88084e-05
5.88081e-05
5.88079e-05
5.88076e-05
5.88073e-05
5.8807e-05
5.88068e-05
5.88065e-05
5.88063e-05
5.8806e-05
5.88058e-05
5.88056e-05
5.88054e-05
5.88052e-05
5.88051e-05
5.88049e-05
5.88048e-05
5.88047e-05
5.88045e-05
5.88044e-05
5.88043e-05
5.88043e-05
5.88042e-05
5.88041e-05
5.8804e-05
5.8804e-05
5.88039e-05
5.88039e-05
5.88038e-05
5.88038e-05
5.88038e-05
5.88038e-05
5.88038e-05
5.88038e-05
5.88039e-05
5.8804e-05
5.88041e-05
5.88042e-05
5.88044e-05
5.88046e-05
5.88048e-05
5.8805e-05
5.88052e-05
5.88053e-05
5.88055e-05
5.88056e-05
5.88058e-05
5.88059e-05
5.8806e-05
5.88061e-05
5.88062e-05
5.88064e-05
5.88065e-05
5.88065e-05
5.88066e-05
5.88067e-05
5.88066e-05
5.88071e-05
6.76055e-05
6.76042e-05
6.76033e-05
6.76026e-05
6.76019e-05
6.76014e-05
6.76008e-05
6.76004e-05
6.76e-05
6.75998e-05
6.75996e-05
6.75995e-05
6.75995e-05
6.75995e-05
6.75996e-05
6.75998e-05
6.76e-05
6.76003e-05
6.76006e-05
6.7601e-05
6.76014e-05
6.76017e-05
6.76022e-05
6.76026e-05
6.7603e-05
6.76035e-05
6.76039e-05
6.76044e-05
6.76048e-05
6.76052e-05
6.76057e-05
6.76061e-05
6.76065e-05
6.76069e-05
6.76073e-05
6.76077e-05
6.7608e-05
6.76084e-05
6.76087e-05
6.7609e-05
6.76094e-05
6.76097e-05
6.761e-05
6.76102e-05
6.76105e-05
6.76107e-05
6.76109e-05
6.7611e-05
6.76112e-05
6.76112e-05
6.76113e-05
6.76114e-05
6.76114e-05
6.76114e-05
6.76113e-05
6.76112e-05
6.76111e-05
6.76109e-05
6.76107e-05
6.76104e-05
6.76101e-05
6.76099e-05
6.76095e-05
6.76092e-05
6.76089e-05
6.76086e-05
6.76083e-05
6.7608e-05
6.76077e-05
6.76074e-05
6.76071e-05
6.76068e-05
6.76066e-05
6.76063e-05
6.76061e-05
6.76059e-05
6.76057e-05
6.76056e-05
6.76054e-05
6.76053e-05
6.76051e-05
6.7605e-05
6.76049e-05
6.76048e-05
6.76047e-05
6.76046e-05
6.76045e-05
6.76044e-05
6.76044e-05
6.76043e-05
6.76042e-05
6.76042e-05
6.76042e-05
6.76042e-05
6.76042e-05
6.76043e-05
6.76044e-05
6.76045e-05
6.76046e-05
6.76048e-05
6.7605e-05
6.76052e-05
6.76055e-05
6.76057e-05
6.76059e-05
6.76061e-05
6.76063e-05
6.76065e-05
6.76066e-05
6.76068e-05
6.76069e-05
6.76071e-05
6.76072e-05
6.76073e-05
6.76074e-05
6.76075e-05
6.76076e-05
6.76077e-05
6.76075e-05
6.76083e-05
7.67023e-05
7.67006e-05
7.66995e-05
7.66988e-05
7.66982e-05
7.66977e-05
7.66973e-05
7.66969e-05
7.66966e-05
7.66964e-05
7.66963e-05
7.66963e-05
7.66963e-05
7.66964e-05
7.66966e-05
7.66968e-05
7.66971e-05
7.66974e-05
7.66978e-05
7.66982e-05
7.66986e-05
7.66991e-05
7.66996e-05
7.67e-05
7.67005e-05
7.6701e-05
7.67015e-05
7.6702e-05
7.67025e-05
7.6703e-05
7.67035e-05
7.6704e-05
7.67045e-05
7.67049e-05
7.67054e-05
7.67058e-05
7.67062e-05
7.67066e-05
7.6707e-05
7.67074e-05
7.67078e-05
7.67081e-05
7.67085e-05
7.67088e-05
7.67091e-05
7.67094e-05
7.67096e-05
7.67098e-05
7.67099e-05
7.671e-05
7.67101e-05
7.67102e-05
7.67102e-05
7.67101e-05
7.671e-05
7.67099e-05
7.67097e-05
7.67094e-05
7.67092e-05
7.67088e-05
7.67085e-05
7.67082e-05
7.67078e-05
7.67074e-05
7.67071e-05
7.67067e-05
7.67064e-05
7.6706e-05
7.67057e-05
7.67053e-05
7.6705e-05
7.67047e-05
7.67044e-05
7.67042e-05
7.67039e-05
7.67037e-05
7.67035e-05
7.67033e-05
7.67031e-05
7.6703e-05
7.67028e-05
7.67027e-05
7.67025e-05
7.67024e-05
7.67023e-05
7.67022e-05
7.67021e-05
7.6702e-05
7.67019e-05
7.67018e-05
7.67017e-05
7.67017e-05
7.67017e-05
7.67017e-05
7.67017e-05
7.67018e-05
7.67019e-05
7.67021e-05
7.67023e-05
7.67025e-05
7.67028e-05
7.67031e-05
7.67033e-05
7.67036e-05
7.67039e-05
7.67041e-05
7.67043e-05
7.67045e-05
7.67047e-05
7.67049e-05
7.6705e-05
7.67052e-05
7.67053e-05
7.67054e-05
7.67055e-05
7.67056e-05
7.67057e-05
7.67058e-05
7.67056e-05
7.67068e-05
8.60786e-05
8.60763e-05
8.60752e-05
8.60745e-05
8.6074e-05
8.60736e-05
8.60732e-05
8.60729e-05
8.60727e-05
8.60726e-05
8.60725e-05
8.60726e-05
8.60727e-05
8.60729e-05
8.60731e-05
8.60735e-05
8.60738e-05
8.60742e-05
8.60746e-05
8.60751e-05
8.60756e-05
8.60761e-05
8.60766e-05
8.60772e-05
8.60777e-05
8.60783e-05
8.60788e-05
8.60794e-05
8.60799e-05
8.60805e-05
8.6081e-05
8.60816e-05
8.60821e-05
8.60826e-05
8.60831e-05
8.60836e-05
8.60841e-05
8.60846e-05
8.6085e-05
8.60854e-05
8.60859e-05
8.60863e-05
8.60867e-05
8.6087e-05
8.60874e-05
8.60877e-05
8.60879e-05
8.60882e-05
8.60883e-05
8.60885e-05
8.60886e-05
8.60886e-05
8.60886e-05
8.60885e-05
8.60884e-05
8.60882e-05
8.60879e-05
8.60876e-05
8.60872e-05
8.60868e-05
8.60864e-05
8.6086e-05
8.60856e-05
8.60852e-05
8.60848e-05
8.60844e-05
8.6084e-05
8.60836e-05
8.60832e-05
8.60828e-05
8.60825e-05
8.60822e-05
8.60818e-05
8.60816e-05
8.60813e-05
8.6081e-05
8.60808e-05
8.60806e-05
8.60804e-05
8.60802e-05
8.608e-05
8.60798e-05
8.60797e-05
8.60795e-05
8.60794e-05
8.60792e-05
8.60791e-05
8.6079e-05
8.60789e-05
8.60788e-05
8.60787e-05
8.60787e-05
8.60787e-05
8.60787e-05
8.60788e-05
8.60789e-05
8.60791e-05
8.60793e-05
8.60796e-05
8.60798e-05
8.60802e-05
8.60805e-05
8.60808e-05
8.60811e-05
8.60814e-05
8.60817e-05
8.6082e-05
8.60822e-05
8.60824e-05
8.60826e-05
8.60828e-05
8.60829e-05
8.60831e-05
8.60832e-05
8.60833e-05
8.60834e-05
8.60835e-05
8.60837e-05
8.60834e-05
8.60849e-05
9.57221e-05
9.57193e-05
9.5718e-05
9.57173e-05
9.57169e-05
9.57166e-05
9.57164e-05
9.57162e-05
9.57161e-05
9.5716e-05
9.57161e-05
9.57162e-05
9.57164e-05
9.57167e-05
9.5717e-05
9.57174e-05
9.57179e-05
9.57183e-05
9.57188e-05
9.57194e-05
9.57199e-05
9.57205e-05
9.57211e-05
9.57217e-05
9.57223e-05
9.57229e-05
9.57235e-05
9.57241e-05
9.57248e-05
9.57254e-05
9.5726e-05
9.57266e-05
9.57272e-05
9.57277e-05
9.57283e-05
9.57288e-05
9.57294e-05
9.57299e-05
9.57304e-05
9.57309e-05
9.57314e-05
9.57318e-05
9.57323e-05
9.57327e-05
9.57331e-05
9.57334e-05
9.57337e-05
9.5734e-05
9.57342e-05
9.57343e-05
9.57344e-05
9.57345e-05
9.57344e-05
9.57343e-05
9.57341e-05
9.57338e-05
9.57334e-05
9.5733e-05
9.57325e-05
9.57321e-05
9.57316e-05
9.57311e-05
9.57306e-05
9.57301e-05
9.57297e-05
9.57292e-05
9.57288e-05
9.57284e-05
9.57279e-05
9.57275e-05
9.57272e-05
9.57268e-05
9.57264e-05
9.57261e-05
9.57258e-05
9.57255e-05
9.57253e-05
9.5725e-05
9.57248e-05
9.57246e-05
9.57244e-05
9.57242e-05
9.5724e-05
9.57238e-05
9.57237e-05
9.57235e-05
9.57234e-05
9.57232e-05
9.57231e-05
9.5723e-05
9.57229e-05
9.57228e-05
9.57228e-05
9.57229e-05
9.5723e-05
9.57232e-05
9.57235e-05
9.57238e-05
9.57241e-05
9.57244e-05
9.57248e-05
9.57252e-05
9.57256e-05
9.5726e-05
9.57263e-05
9.57267e-05
9.5727e-05
9.57272e-05
9.57275e-05
9.57277e-05
9.57278e-05
9.5728e-05
9.57282e-05
9.57283e-05
9.57284e-05
9.57285e-05
9.57286e-05
9.57288e-05
9.57284e-05
9.57304e-05
0.000105625
0.000105622
0.00010562
0.000105619
0.000105619
0.000105619
0.000105619
0.000105619
0.000105619
0.000105619
0.000105619
0.000105619
0.000105619
0.00010562
0.00010562
0.000105621
0.000105621
0.000105622
0.000105622
0.000105623
0.000105624
0.000105624
0.000105625
0.000105626
0.000105626
0.000105627
0.000105628
0.000105628
0.000105629
0.00010563
0.00010563
0.000105631
0.000105632
0.000105632
0.000105633
0.000105633
0.000105634
0.000105635
0.000105635
0.000105636
0.000105636
0.000105637
0.000105637
0.000105638
0.000105638
0.000105639
0.000105639
0.000105639
0.000105639
0.00010564
0.00010564
0.00010564
0.00010564
0.000105639
0.000105639
0.000105639
0.000105638
0.000105638
0.000105637
0.000105636
0.000105636
0.000105635
0.000105635
0.000105634
0.000105634
0.000105633
0.000105633
0.000105632
0.000105632
0.000105631
0.000105631
0.000105631
0.00010563
0.00010563
0.000105629
0.000105629
0.000105629
0.000105629
0.000105628
0.000105628
0.000105628
0.000105628
0.000105627
0.000105627
0.000105627
0.000105627
0.000105627
0.000105627
0.000105626
0.000105626
0.000105626
0.000105626
0.000105626
0.000105626
0.000105626
0.000105627
0.000105627
0.000105627
0.000105628
0.000105628
0.000105629
0.000105629
0.00010563
0.00010563
0.000105631
0.000105631
0.000105631
0.000105632
0.000105632
0.000105632
0.000105632
0.000105632
0.000105633
0.000105633
0.000105633
0.000105633
0.000105633
0.000105633
0.000105633
0.000105635
0.000115782
0.000115778
0.000115777
0.000115776
0.000115776
0.000115776
0.000115776
0.000115776
0.000115776
0.000115776
0.000115777
0.000115777
0.000115777
0.000115778
0.000115778
0.000115779
0.00011578
0.00011578
0.000115781
0.000115782
0.000115782
0.000115783
0.000115784
0.000115784
0.000115785
0.000115786
0.000115787
0.000115787
0.000115788
0.000115789
0.00011579
0.00011579
0.000115791
0.000115792
0.000115792
0.000115793
0.000115794
0.000115794
0.000115795
0.000115795
0.000115796
0.000115797
0.000115797
0.000115798
0.000115798
0.000115799
0.000115799
0.000115799
0.0001158
0.0001158
0.0001158
0.0001158
0.0001158
0.000115799
0.000115799
0.000115798
0.000115797
0.000115797
0.000115796
0.000115795
0.000115795
0.000115794
0.000115793
0.000115793
0.000115792