/*--------------------------------*- C++ -*----------------------------------*\
  =========                 |
  \\      /  F ield         | OpenFOAM: The Open Source CFD Toolbox
   \\    /   O peration     | Website:  https://openfoam.org
    \\  /    A nd           | Version:  7
     \\/     M anipulation  |
\*---------------------------------------------------------------------------*/
FoamFile
{
    version     2.0;
    format      ascii;
    class       volScalarField;
    location    "4000";
    object      omega;
}
// * * * * * * * * * * * * * * * * * * * * * * * * * * * * * * * * * * * * * //

dimensions      [0 0 -1 0 0 0 0];

internalField   nonuniform List<scalar> 
24000
(
999.269
999.269
999.269
999.269
999.269
999.269
999.269
999.269
999.269
999.269
999.269
999.269
999.269
999.269
999.269
999.269
999.269
999.269
999.269
999.269
999.269
999.269
999.269
999.269
999.269
999.269
999.269
999.269
999.269
999.269
999.269
999.269
999.269
999.269
999.269
999.269
999.269
999.269
999.269
999.269
999.269
999.269
999.269
999.269
999.269
999.269
999.269
999.269
999.269
999.269
999.269
999.269
999.269
999.269
999.269
999.269
999.269
999.269
999.269
999.269
999.269
999.269
999.269
999.269
999.269
999.269
999.269
999.269
999.269
999.269
999.269
999.269
999.269
999.269
999.269
999.269
999.269
999.269
999.269
999.269
999.269
999.269
999.269
999.269
999.269
999.269
999.269
999.269
999.269
999.269
999.269
999.269
999.269
999.269
999.269
999.269
999.269
999.269
999.269
999.269
999.269
999.269
999.269
999.269
999.269
999.269
999.269
999.269
999.269
999.269
999.269
999.269
999.269
999.269
999.269
999.269
999.269
999.269
999.269
999.269
173.156
173.156
173.156
173.156
173.156
173.156
173.156
173.156
173.156
173.156
173.156
173.156
173.156
173.156
173.156
173.156
173.156
173.156
173.156
173.156
173.156
173.156
173.156
173.156
173.156
173.156
173.156
173.156
173.156
173.156
173.156
173.156
173.156
173.156
173.156
173.156
173.156
173.156
173.156
173.156
173.156
173.156
173.156
173.156
173.156
173.156
173.156
173.156
173.156
173.156
173.156
173.156
173.156
173.156
173.156
173.156
173.156
173.156
173.156
173.156
173.156
173.156
173.156
173.156
173.156
173.156
173.156
173.156
173.156
173.156
173.156
173.156
173.156
173.156
173.156
173.156
173.156
173.156
173.156
173.156
173.156
173.156
173.156
173.156
173.156
173.156
173.156
173.156
173.156
173.156
173.156
173.156
173.156
173.156
173.156
173.156
173.156
173.156
173.156
173.156
173.156
173.156
173.156
173.156
173.156
173.156
173.156
173.156
173.156
173.156
173.156
173.156
173.156
173.156
173.156
173.156
173.156
173.156
173.156
173.156
58.7546
58.7546
58.7546
58.7546
58.7546
58.7546
58.7546
58.7546
58.7546
58.7546
58.7546
58.7546
58.7546
58.7546
58.7546
58.7546
58.7546
58.7546
58.7546
58.7546
58.7546
58.7546
58.7546
58.7546
58.7546
58.7546
58.7546
58.7546
58.7546
58.7546
58.7546
58.7546
58.7546
58.7546
58.7546
58.7546
58.7546
58.7546
58.7546
58.7546
58.7546
58.7546
58.7546
58.7546
58.7546
58.7546
58.7546
58.7546
58.7546
58.7546
58.7546
58.7546
58.7546
58.7546
58.7546
58.7546
58.7546
58.7546
58.7546
58.7546
58.7546
58.7546
58.7546
58.7546
58.7546
58.7546
58.7546
58.7546
58.7546
58.7546
58.7546
58.7546
58.7546
58.7546
58.7546
58.7546
58.7546
58.7546
58.7546
58.7546
58.7546
58.7546
58.7546
58.7546
58.7546
58.7546
58.7546
58.7546
58.7546
58.7546
58.7546
58.7546
58.7546
58.7546
58.7546
58.7546
58.7546
58.7546
58.7546
58.7546
58.7546
58.7546
58.7546
58.7546
58.7546
58.7546
58.7546
58.7546
58.7546
58.7546
58.7546
58.7546
58.7546
58.7546
58.7546
58.7546
58.7546
58.7546
58.7546
58.7546
28.3265
28.3266
28.3266
28.3266
28.3266
28.3266
28.3266
28.3266
28.3266
28.3266
28.3266
28.3266
28.3266
28.3266
28.3266
28.3265
28.3265
28.3265
28.3265
28.3265
28.3265
28.3265
28.3265
28.3265
28.3265
28.3265
28.3265
28.3265
28.3266
28.3266
28.3266
28.3266
28.3266
28.3266
28.3266
28.3266
28.3266
28.3266
28.3266
28.3266
28.3266
28.3266
28.3266
28.3266
28.3266
28.3266
28.3266
28.3266
28.3266
28.3266
28.3266
28.3266
28.3266
28.3266
28.3266
28.3266
28.3266
28.3266
28.3266
28.3266
28.3266
28.3266
28.3266
28.3266
28.3266
28.3266
28.3266
28.3266
28.3266
28.3266
28.3266
28.3266
28.3266
28.3266
28.3266
28.3266
28.3266
28.3266
28.3266
28.3266
28.3266
28.3266
28.3266
28.3266
28.3266
28.3266
28.3266
28.3266
28.3266
28.3266
28.3266
28.3266
28.3266
28.3266
28.3266
28.3266
28.3266
28.3266
28.3266
28.3266
28.3266
28.3266
28.3266
28.3266
28.3266
28.3266
28.3266
28.3266
28.3266
28.3266
28.3266
28.3266
28.3266
28.3266
28.3266
28.3266
28.3266
28.3266
28.3266
28.3266
16.9548
16.955
16.9551
16.9551
16.9551
16.9551
16.9551
16.9551
16.9551
16.9551
16.955
16.955
16.955
16.955
16.955
16.955
16.955
16.955
16.955
16.955
16.955
16.955
16.955
16.955
16.955
16.955
16.955
16.955
16.955
16.955
16.955
16.955
16.955
16.955
16.955
16.955
16.9551
16.9551
16.9551
16.9551
16.9551
16.9551
16.9551
16.9551
16.9551
16.9551
16.9551
16.9551
16.9551
16.9551
16.9551
16.9551
16.9551
16.9551
16.9551
16.9551
16.9551
16.9551
16.9551
16.9551
16.9551
16.9551
16.9551
16.9551
16.9551
16.9551
16.9551
16.9551
16.9551
16.9551
16.9551
16.9551
16.9551
16.9551
16.9551
16.9551
16.9551
16.9551
16.9551
16.9551
16.9551
16.9551
16.9551
16.9551
16.9551
16.9551
16.9551
16.9551
16.9551
16.9551
16.9551
16.9551
16.9551
16.9551
16.9551
16.9551
16.9551
16.9551
16.9551
16.9551
16.9551
16.9551
16.9551
16.9551
16.9551
16.9551
16.9551
16.9551
16.9551
16.9551
16.9551
16.9551
16.9551
16.9551
16.9551
16.9551
16.9551
16.9551
16.9551
16.9551
11.6965
11.6967
11.6968
11.6968
11.6968
11.6968
11.6968
11.6968
11.6968
11.6968
11.6968
11.6968
11.6968
11.6968
11.6968
11.6967
11.6967
11.6967
11.6967
11.6967
11.6967
11.6967
11.6967
11.6967
11.6967
11.6967
11.6967
11.6967
11.6967
11.6967
11.6967
11.6967
11.6968
11.6968
11.6968
11.6968
11.6968
11.6968
11.6968
11.6968
11.6968
11.6968
11.6968
11.6968
11.6968
11.6968
11.6968
11.6968
11.6968
11.6968
11.6968
11.6968
11.6968
11.6968
11.6968
11.6968
11.6968
11.6968
11.6968
11.6968
11.6968
11.6968
11.6968
11.6968
11.6968
11.6968
11.6968
11.6968
11.6968
11.6968
11.6968
11.6968
11.6968
11.6968
11.6968
11.6968
11.6968
11.6968
11.6968
11.6968
11.6968
11.6968
11.6968
11.6968
11.6968
11.6968
11.6968
11.6968
11.6968
11.6968
11.6968
11.6968
11.6968
11.6968
11.6968
11.6968
11.6968
11.6968
11.6968
11.6968
11.6968
11.6968
11.6968
11.6968
11.6968
11.6968
11.6968
11.6968
11.6968
11.6968
11.6968
11.6968
11.6968
11.6968
11.6968
11.6968
11.6968
11.6968
11.6968
11.6968
8.81491
8.81509
8.81522
8.81527
8.81529
8.81529
8.81529
8.81529
8.81529
8.81529
8.81528
8.81528
8.81528
8.81527
8.81527
8.81527
8.81526
8.81526
8.81526
8.81525
8.81525
8.81525
8.81525
8.81524
8.81524
8.81524
8.81524
8.81524
8.81524
8.81525
8.81525
8.81525
8.81525
8.81525
8.81525
8.81526
8.81526
8.81526
8.81527
8.81527
8.81527
8.81528
8.81528
8.81529
8.81529
8.8153
8.81531
8.81531
8.81532
8.81532
8.81532
8.81532
8.81532
8.81532
8.81532
8.81532
8.81532
8.81532
8.81532
8.81532
8.81532
8.81532
8.81532
8.81532
8.81532
8.81532
8.81531
8.81531
8.81531
8.81531
8.81531
8.81531
8.81531
8.81531
8.8153
8.8153
8.8153
8.8153
8.8153
8.8153
8.81529
8.81529
8.81529
8.81529
8.81529
8.81529
8.81528
8.81528
8.81528
8.81528
8.81528
8.81528
8.81528
8.81528
8.81528
8.81528
8.81528
8.81528
8.81528
8.81528
8.81528
8.81528
8.81528
8.81528
8.81529
8.81529
8.8153
8.8153
8.8153
8.8153
8.8153
8.8153
8.8153
8.8153
8.8153
8.8153
8.8153
8.8153
8.8153
8.81533
6.99909
6.99923
6.99935
6.99941
6.99943
6.99944
6.99945
6.99945
6.99946
6.99946
6.99946
6.99946
6.99946
6.99945
6.99945
6.99945
6.99945
6.99944
6.99944
6.99944
6.99943
6.99943
6.99943
6.99943
6.99942
6.99942
6.99942
6.99942
6.99942
6.99942
6.99942
6.99942
6.99942
6.99942
6.99942
6.99942
6.99942
6.99942
6.99942
6.99942
6.99943
6.99943
6.99943
6.99944
6.99944
6.99944
6.99945
6.99946
6.99946
6.99947
6.99947
6.99947
6.99947
6.99947
6.99947
6.99947
6.99947
6.99947
6.99946
6.99946
6.99946
6.99946
6.99946
6.99946
6.99946
6.99946
6.99946
6.99946
6.99946
6.99946
6.99946
6.99946
6.99946
6.99946
6.99946
6.99946
6.99945
6.99945
6.99945
6.99945
6.99945
6.99945
6.99945
6.99945
6.99945
6.99945
6.99944
6.99944
6.99944
6.99944
6.99944
6.99944
6.99944
6.99944
6.99944
6.99944
6.99944
6.99944
6.99944
6.99944
6.99944
6.99944
6.99944
6.99944
6.99945
6.99945
6.99946
6.99946
6.99946
6.99946
6.99946
6.99946
6.99946
6.99946
6.99946
6.99946
6.99946
6.99946
6.99945
6.99949
5.73858
5.73867
5.73877
5.73883
5.73886
5.73887
5.73888
5.73889
5.73889
5.7389
5.7389
5.7389
5.7389
5.7389
5.7389
5.7389
5.7389
5.73889
5.73889
5.73889
5.73889
5.73888
5.73888
5.73888
5.73887
5.73887
5.73887
5.73886
5.73886
5.73886
5.73886
5.73886
5.73886
5.73886
5.73885
5.73885
5.73885
5.73885
5.73885
5.73885
5.73885
5.73885
5.73886
5.73886
5.73886
5.73886
5.73887
5.73887
5.73888
5.73888
5.73889
5.73889
5.73889
5.73889
5.73889
5.73889
5.73888
5.73888
5.73888
5.73888
5.73888
5.73887
5.73887
5.73887
5.73887
5.73887
5.73887
5.73887
5.73887
5.73887
5.73888
5.73888
5.73888
5.73888
5.73888
5.73888
5.73888
5.73888
5.73888
5.73888
5.73888
5.73888
5.73888
5.73888
5.73888
5.73887
5.73887
5.73887
5.73887
5.73887
5.73887
5.73887
5.73887
5.73887
5.73887
5.73887
5.73887
5.73887
5.73887
5.73887
5.73887
5.73887
5.73887
5.73887
5.73888
5.73888
5.73888
5.73889
5.73889
5.73889
5.73889
5.73889
5.73889
5.73889
5.73889
5.73888
5.73888
5.73888
5.73888
5.73891
4.81069
4.81075
4.81083
4.81088
4.81091
4.81092
4.81093
4.81094
4.81094
4.81095
4.81095
4.81095
4.81095
4.81095
4.81095
4.81095
4.81095
4.81095
4.81095
4.81095
4.81094
4.81094
4.81094
4.81093
4.81093
4.81093
4.81092
4.81092
4.81092
4.81091
4.81091
4.81091
4.81091
4.8109
4.8109
4.8109
4.8109
4.8109
4.8109
4.8109
4.8109
4.8109
4.8109
4.8109
4.8109
4.8109
4.8109
4.81091
4.81091
4.81091
4.81092
4.81092
4.81092
4.81092
4.81092
4.81092
4.81091
4.81091
4.81091
4.81091
4.81091
4.8109
4.8109
4.8109
4.8109
4.8109
4.8109
4.8109
4.8109
4.81091
4.81091
4.81091
4.81091
4.81091
4.81091
4.81091
4.81091
4.81091
4.81091
4.81091
4.81091
4.81091
4.81091
4.81091
4.81091
4.81091
4.81091
4.81091
4.81091
4.81091
4.81091
4.81091
4.81091
4.81091
4.81091
4.81091
4.81091
4.81091
4.81091
4.81091
4.81091
4.81091
4.81091
4.81091
4.81092
4.81092
4.81092
4.81093
4.81093
4.81093
4.81093
4.81093
4.81093
4.81093
4.81092
4.81092
4.81092
4.81092
4.81092
4.81094
4.10243
4.10246
4.10252
4.10256
4.10258
4.10259
4.1026
4.10261
4.10261
4.10262
4.10262
4.10262
4.10262
4.10262
4.10263
4.10262
4.10262
4.10262
4.10262
4.10262
4.10262
4.10261
4.10261
4.10261
4.1026
4.1026
4.1026
4.10259
4.10259
4.10259
4.10258
4.10258
4.10258
4.10257
4.10257
4.10257
4.10257
4.10257
4.10256
4.10256
4.10256
4.10256
4.10256
4.10256
4.10256
4.10256
4.10256
4.10257
4.10257
4.10257
4.10257
4.10257
4.10258
4.10257
4.10257
4.10257
4.10257
4.10257
4.10257
4.10256
4.10256
4.10256
4.10256
4.10256
4.10256
4.10256
4.10256
4.10256
4.10256
4.10256
4.10256
4.10256
4.10256
4.10257
4.10257
4.10257
4.10257
4.10257
4.10257
4.10257
4.10257
4.10257
4.10257
4.10257
4.10257
4.10257
4.10257
4.10257
4.10257
4.10257
4.10257
4.10257
4.10257
4.10257
4.10257
4.10257
4.10257
4.10257
4.10257
4.10257
4.10257
4.10257
4.10258
4.10258
4.10258
4.10258
4.10258
4.10259
4.10259
4.10259
4.10259
4.10259
4.10259
4.10259
4.10259
4.10258
4.10258
4.10258
4.10258
4.1026
3.54792
3.54794
3.54798
3.54801
3.54803
3.54804
3.54805
3.54805
3.54805
3.54806
3.54806
3.54806
3.54806
3.54806
3.54806
3.54806
3.54806
3.54806
3.54806
3.54806
3.54806
3.54805
3.54805
3.54805
3.54804
3.54804
3.54804
3.54803
3.54803
3.54803
3.54802
3.54802
3.54802
3.54802
3.54801
3.54801
3.54801
3.548
3.548
3.548
3.548
3.548
3.54799
3.54799
3.54799
3.54799
3.548
3.548
3.548
3.548
3.548
3.548
3.54801
3.548
3.548
3.548
3.548
3.548
3.548
3.54799
3.54799
3.54799
3.54799
3.54799
3.54799
3.54799
3.54799
3.54799
3.54799
3.54799
3.54799
3.54799
3.54799
3.54799
3.548
3.548
3.548
3.548
3.548
3.548
3.548
3.548
3.54801
3.54801
3.54801
3.54801
3.54801
3.54801
3.54801
3.54801
3.54801
3.54801
3.54801
3.54801
3.54801
3.54801
3.54801
3.54801
3.54801
3.54801
3.54801
3.54801
3.54801
3.54801
3.54801
3.54801
3.54802
3.54802
3.54802
3.54802
3.54802
3.54802
3.54802
3.54802
3.54802
3.54802
3.54801
3.54801
3.54801
3.54802
3.10505
3.10507
3.1051
3.10512
3.10513
3.10514
3.10514
3.10514
3.10515
3.10515
3.10515
3.10515
3.10515
3.10515
3.10515
3.10515
3.10515
3.10515
3.10515
3.10514
3.10514
3.10514
3.10514
3.10513
3.10513
3.10513
3.10513
3.10512
3.10512
3.10512
3.10511
3.10511
3.10511
3.1051
3.1051
3.1051
3.10509
3.10509
3.10509
3.10509
3.10508
3.10508
3.10508
3.10508
3.10508
3.10508
3.10508
3.10508
3.10508
3.10508
3.10508
3.10508
3.10508
3.10508
3.10508
3.10508
3.10508
3.10508
3.10507
3.10507
3.10507
3.10507
3.10507
3.10507
3.10506
3.10506
3.10506
3.10507
3.10507
3.10507
3.10507
3.10507
3.10507
3.10507
3.10507
3.10508
3.10508
3.10508
3.10508
3.10508
3.10508
3.10508
3.10509
3.10509
3.10509
3.10509
3.10509
3.10509
3.10509
3.10509
3.10509
3.10509
3.10509
3.10509
3.10509
3.10509
3.10509
3.10509
3.10509
3.10509
3.10509
3.10509
3.10509
3.10509
3.10509
3.10509
3.1051
3.1051
3.1051
3.1051
3.1051
3.1051
3.1051
3.1051
3.1051
3.1051
3.10509
3.10509
3.10509
3.10509
2.74533
2.74535
2.74537
2.74538
2.74539
2.74539
2.74539
2.74539
2.74539
2.74539
2.74539
2.74539
2.74539
2.74539
2.74539
2.74539
2.74539
2.74539
2.74539
2.74538
2.74538
2.74538
2.74538
2.74538
2.74537
2.74537
2.74537
2.74536
2.74536
2.74536
2.74536
2.74535
2.74535
2.74535
2.74534
2.74534
2.74534
2.74533
2.74533
2.74533
2.74533
2.74532
2.74532
2.74532
2.74532
2.74532
2.74532
2.74532
2.74532
2.74532
2.74532
2.74532
2.74532
2.74532
2.74532
2.74532
2.74532
2.74531
2.74531
2.74531
2.74531
2.74531
2.7453
2.7453
2.7453
2.7453
2.7453
2.7453
2.7453
2.7453
2.74531
2.74531
2.74531
2.74531
2.74531
2.74531
2.74532
2.74532
2.74532
2.74532
2.74532
2.74532
2.74532
2.74532
2.74532
2.74533
2.74533
2.74533
2.74533
2.74533
2.74533
2.74533
2.74533
2.74533
2.74533
2.74533
2.74533
2.74533
2.74533
2.74533
2.74533
2.74533
2.74533
2.74533
2.74533
2.74533
2.74533
2.74534
2.74534
2.74534
2.74534
2.74534
2.74534
2.74534
2.74533
2.74533
2.74533
2.74533
2.74533
2.74532
2.4488
2.44882
2.44883
2.44884
2.44884
2.44884
2.44884
2.44884
2.44884
2.44883
2.44883
2.44883
2.44883
2.44883
2.44883
2.44882
2.44882
2.44882
2.44882
2.44882
2.44882
2.44882
2.44881
2.44881
2.44881
2.44881
2.4488
2.4488
2.4488
2.4488
2.44879
2.44879
2.44879
2.44878
2.44878
2.44878
2.44878
2.44877
2.44877
2.44877
2.44877
2.44876
2.44876
2.44876
2.44876
2.44876
2.44876
2.44876
2.44876
2.44876
2.44876
2.44876
2.44876
2.44875
2.44875
2.44875
2.44875
2.44875
2.44875
2.44874
2.44874
2.44874
2.44874
2.44874
2.44874
2.44874
2.44874
2.44874
2.44874
2.44874
2.44874
2.44874
2.44874
2.44875
2.44875
2.44875
2.44875
2.44875
2.44875
2.44876
2.44876
2.44876
2.44876
2.44876
2.44876
2.44876
2.44876
2.44876
2.44876
2.44876
2.44876
2.44876
2.44876
2.44876
2.44876
2.44876
2.44876
2.44877
2.44877
2.44877
2.44877
2.44877
2.44877
2.44877
2.44877
2.44877
2.44877
2.44877
2.44877
2.44877
2.44877
2.44877
2.44877
2.44877
2.44877
2.44877
2.44876
2.44876
2.44876
2.44875
2.20112
2.20114
2.20115
2.20115
2.20115
2.20115
2.20115
2.20114
2.20114
2.20114
2.20113
2.20113
2.20113
2.20113
2.20112
2.20112
2.20112
2.20112
2.20112
2.20111
2.20111
2.20111
2.20111
2.20111
2.20111
2.2011
2.2011
2.2011
2.2011
2.20109
2.20109
2.20109
2.20109
2.20108
2.20108
2.20108
2.20107
2.20107
2.20107
2.20107
2.20106
2.20106
2.20106
2.20106
2.20106
2.20105
2.20105
2.20105
2.20105
2.20105
2.20105
2.20105
2.20105
2.20105
2.20105
2.20105
2.20105
2.20104
2.20104
2.20104
2.20104
2.20104
2.20104
2.20104
2.20104
2.20104
2.20104
2.20104
2.20104
2.20104
2.20104
2.20104
2.20104
2.20104
2.20105
2.20105
2.20105
2.20105
2.20105
2.20105
2.20106
2.20106
2.20106
2.20106
2.20106
2.20106
2.20106
2.20106
2.20106
2.20106
2.20106
2.20106
2.20106
2.20106
2.20106
2.20106
2.20106
2.20106
2.20106
2.20106
2.20106
2.20106
2.20106
2.20106
2.20106
2.20106
2.20106
2.20106
2.20107
2.20107
2.20107
2.20106
2.20106
2.20106
2.20106
2.20106
2.20106
2.20106
2.20106
2.20104
1.99179
1.99181
1.99182
1.99182
1.99182
1.99181
1.99181
1.9918
1.9918
1.99179
1.99179
1.99179
1.99178
1.99178
1.99178
1.99177
1.99177
1.99177
1.99177
1.99177
1.99176
1.99176
1.99176
1.99176
1.99176
1.99175
1.99175
1.99175
1.99175
1.99175
1.99174
1.99174
1.99174
1.99174
1.99173
1.99173
1.99173
1.99173
1.99172
1.99172
1.99172
1.99172
1.99171
1.99171
1.99171
1.99171
1.99171
1.99171
1.99171
1.99171
1.99171
1.99171
1.9917
1.9917
1.9917
1.9917
1.9917
1.9917
1.9917
1.99169
1.99169
1.99169
1.99169
1.99169
1.99169
1.99169
1.99169
1.99169
1.9917
1.9917
1.9917
1.9917
1.9917
1.9917
1.9917
1.9917
1.99171
1.99171
1.99171
1.99171
1.99171
1.99171
1.99171
1.99172
1.99172
1.99172
1.99172
1.99172
1.99172
1.99172
1.99172
1.99172
1.99172
1.99172
1.99172
1.99172
1.99172
1.99172
1.99172
1.99172
1.99172
1.99172
1.99172
1.99172
1.99172
1.99172
1.99172
1.99172
1.99172
1.99172
1.99172
1.99172
1.99171
1.99171
1.99171
1.99171
1.99171
1.99171
1.99171
1.99169
1.81298
1.81301
1.81301
1.81301
1.81301
1.813
1.81299
1.81299
1.81298
1.81298
1.81297
1.81297
1.81296
1.81296
1.81295
1.81295
1.81295
1.81295
1.81294
1.81294
1.81294
1.81294
1.81294
1.81294
1.81293
1.81293
1.81293
1.81293
1.81293
1.81292
1.81292
1.81292
1.81292
1.81292
1.81291
1.81291
1.81291
1.81291
1.8129
1.8129
1.8129
1.8129
1.81289
1.81289
1.81289
1.81289
1.81289
1.81289
1.81289
1.81289
1.81288
1.81288
1.81288
1.81288
1.81288
1.81288
1.81288
1.81288
1.81288
1.81288
1.81288
1.81288
1.81288
1.81288
1.81288
1.81288
1.81288
1.81288
1.81288
1.81288
1.81288
1.81288
1.81288
1.81289
1.81289
1.81289
1.81289
1.81289
1.81289
1.8129
1.8129
1.8129
1.8129
1.8129
1.8129
1.8129
1.8129
1.8129
1.8129
1.8129
1.8129
1.8129
1.8129
1.8129
1.8129
1.8129
1.8129
1.8129
1.8129
1.8129
1.8129
1.8129
1.8129
1.8129
1.8129
1.8129
1.8129
1.8129
1.8129
1.8129
1.81289
1.81289
1.81289
1.81289
1.81289
1.81289
1.81289
1.81288
1.81289
1.81286
1.65876
1.65879
1.6588
1.6588
1.65879
1.65878
1.65877
1.65877
1.65876
1.65875
1.65875
1.65874
1.65874
1.65873
1.65873
1.65873
1.65872
1.65872
1.65872
1.65872
1.65871
1.65871
1.65871
1.65871
1.65871
1.65871
1.6587
1.6587
1.6587
1.6587
1.6587
1.65869
1.65869
1.65869
1.65869
1.65869
1.65868
1.65868
1.65868
1.65868
1.65868
1.65867
1.65867
1.65867
1.65867
1.65867
1.65866
1.65866
1.65866
1.65866
1.65866
1.65866
1.65866
1.65866
1.65866
1.65866
1.65866
1.65866
1.65866
1.65866
1.65866
1.65866
1.65866
1.65866
1.65866
1.65866
1.65866
1.65866
1.65866
1.65866
1.65867
1.65867
1.65867
1.65867
1.65867
1.65867
1.65867
1.65868
1.65868
1.65868
1.65868
1.65868
1.65868
1.65868
1.65868
1.65868
1.65869
1.65869
1.65869
1.65869
1.65869
1.65869
1.65869
1.65869
1.65869
1.65869
1.65869
1.65869
1.65868
1.65868
1.65868
1.65868
1.65868
1.65868
1.65868
1.65867
1.65867
1.65867
1.65867
1.65867
1.65867
1.65867
1.65867
1.65867
1.65866
1.65866
1.65866
1.65866
1.65866
1.65864
1.52459
1.52462
1.52463
1.52462
1.52462
1.52461
1.5246
1.52459
1.52458
1.52458
1.52457
1.52457
1.52456
1.52456
1.52455
1.52455
1.52454
1.52454
1.52454
1.52454
1.52453
1.52453
1.52453
1.52453
1.52453
1.52453
1.52452
1.52452
1.52452
1.52452
1.52452
1.52452
1.52451
1.52451
1.52451
1.52451
1.52451
1.5245
1.5245
1.5245
1.5245
1.5245
1.52449
1.52449
1.52449
1.52449
1.52449
1.52449
1.52449
1.52449
1.52448
1.52448
1.52448
1.52448
1.52448
1.52448
1.52448
1.52448
1.52448
1.52448
1.52448
1.52449
1.52449
1.52449
1.52449
1.52449
1.52449
1.52449
1.52449
1.5245
1.5245
1.5245
1.5245
1.5245
1.5245
1.52451
1.52451
1.52451
1.52451
1.52451
1.52451
1.52451
1.52451
1.52451
1.52452
1.52452
1.52452
1.52452
1.52452
1.52452
1.52452
1.52452
1.52452
1.52452
1.52452
1.52452
1.52452
1.52451
1.52451
1.52451
1.52451
1.52451
1.5245
1.5245
1.5245
1.5245
1.5245
1.5245
1.5245
1.52449
1.52449
1.52449
1.52449
1.52449
1.52449
1.52449
1.52448
1.52448
1.52449
1.52446
1.40693
1.40696
1.40696
1.40695
1.40695
1.40694
1.40693
1.40692
1.40692
1.40691
1.4069
1.4069
1.40689
1.40688
1.40688
1.40687
1.40687
1.40687
1.40687
1.40686
1.40686
1.40686
1.40686
1.40686
1.40685
1.40685
1.40685
1.40685
1.40685
1.40685
1.40685
1.40684
1.40684
1.40684
1.40684
1.40684
1.40684
1.40683
1.40683
1.40683
1.40683
1.40683
1.40682
1.40682
1.40682
1.40682
1.40682
1.40682
1.40682
1.40682
1.40681
1.40681
1.40681
1.40681
1.40681
1.40681
1.40682
1.40682
1.40682
1.40682
1.40682
1.40682
1.40683
1.40683
1.40683
1.40683
1.40683
1.40683
1.40684
1.40684
1.40684
1.40684
1.40684
1.40684
1.40685
1.40685
1.40685
1.40685
1.40685
1.40685
1.40685
1.40685
1.40686
1.40686
1.40686
1.40686
1.40686
1.40686
1.40686
1.40686
1.40686
1.40686
1.40686
1.40686
1.40686
1.40686
1.40685
1.40685
1.40685
1.40685
1.40684
1.40684
1.40684
1.40684
1.40683
1.40683
1.40683
1.40683
1.40683
1.40683
1.40682
1.40682
1.40682
1.40682
1.40682
1.40682
1.40681
1.40681
1.40682
1.40679
1.30298
1.30301
1.30301
1.30301
1.303
1.30299
1.30298
1.30297
1.30297
1.30296
1.30295
1.30295
1.30294
1.30294
1.30293
1.30292
1.30292
1.30292
1.30291
1.30291
1.30291
1.30291
1.30291
1.3029
1.3029
1.3029
1.3029
1.3029
1.3029
1.3029
1.3029
1.30289
1.30289
1.30289
1.30289
1.30289
1.30289
1.30288
1.30288
1.30288
1.30288
1.30288
1.30288
1.30287
1.30287
1.30287
1.30287
1.30287
1.30287
1.30287
1.30287
1.30287
1.30287
1.30287
1.30287
1.30287
1.30287
1.30288
1.30288
1.30288
1.30288
1.30289
1.30289
1.30289
1.30289
1.3029
1.3029
1.3029
1.3029
1.3029
1.3029
1.30291
1.30291
1.30291
1.30291
1.30291
1.30291
1.30292
1.30292
1.30292
1.30292
1.30292
1.30292
1.30292
1.30292
1.30292
1.30292
1.30292
1.30292
1.30292
1.30292
1.30292
1.30292
1.30292
1.30292
1.30292
1.30291
1.30291
1.30291
1.3029
1.3029
1.3029
1.30289
1.30289
1.30289
1.30289
1.30288
1.30288
1.30288
1.30288
1.30288
1.30287
1.30287
1.30287
1.30287
1.30287
1.30287
1.30286
1.30287
1.30284
1.21054
1.21057
1.21057
1.21056
1.21056
1.21055
1.21054
1.21053
1.21052
1.21052
1.21051
1.2105
1.2105
1.21049
1.21049
1.21048
1.21048
1.21047
1.21047
1.21047
1.21047
1.21046
1.21046
1.21046
1.21046
1.21046
1.21046
1.21046
1.21045
1.21045
1.21045
1.21045
1.21045
1.21045
1.21045
1.21045
1.21044
1.21044
1.21044
1.21044
1.21044
1.21044
1.21044
1.21043
1.21043
1.21043
1.21043
1.21043
1.21043
1.21043
1.21043
1.21043
1.21043
1.21043
1.21044
1.21044
1.21044
1.21045
1.21045
1.21045
1.21046
1.21046
1.21046
1.21046
1.21047
1.21047
1.21047
1.21047
1.21048
1.21048
1.21048
1.21048
1.21048
1.21048
1.21049
1.21049
1.21049
1.21049
1.21049
1.21049
1.21049
1.21049
1.2105
1.2105
1.2105
1.2105
1.2105
1.2105
1.2105
1.2105
1.2105
1.2105
1.21049
1.21049
1.21049
1.21048
1.21048
1.21048
1.21047
1.21047
1.21046
1.21046
1.21046
1.21045
1.21045
1.21045
1.21045
1.21044
1.21044
1.21044
1.21044
1.21043
1.21043
1.21043
1.21043
1.21043
1.21043
1.21042
1.21043
1.2104
1.12782
1.12785
1.12785
1.12785
1.12784
1.12783
1.12782
1.12781
1.12781
1.1278
1.12779
1.12779
1.12778
1.12778
1.12777
1.12777
1.12776
1.12776
1.12775
1.12775
1.12775
1.12775
1.12775
1.12774
1.12774
1.12774
1.12774
1.12774
1.12774
1.12774
1.12774
1.12773
1.12773
1.12773
1.12773
1.12773
1.12773
1.12773
1.12773
1.12772
1.12772
1.12772
1.12772
1.12772
1.12772
1.12772
1.12772
1.12772
1.12771
1.12771
1.12772
1.12772
1.12772
1.12773
1.12773
1.12774
1.12774
1.12774
1.12775
1.12775
1.12776
1.12776
1.12776
1.12777
1.12777
1.12777
1.12777
1.12778
1.12778
1.12778
1.12778
1.12778
1.12779
1.12779
1.12779
1.12779
1.12779
1.12779
1.12779
1.1278
1.1278
1.1278
1.1278
1.1278
1.1278
1.1278
1.1278
1.1278
1.1278
1.1278
1.1278
1.1278
1.12779
1.12779
1.12779
1.12778
1.12778
1.12777
1.12777
1.12776
1.12776
1.12775
1.12775
1.12774
1.12774
1.12774
1.12773
1.12773
1.12773
1.12773
1.12772
1.12772
1.12772
1.12772
1.12772
1.12771
1.12771
1.12771
1.12771
1.12769
1.05339
1.05342
1.05342
1.05341
1.05341
1.0534
1.05339
1.05338
1.05337
1.05337
1.05336
1.05336
1.05335
1.05334
1.05334
1.05333
1.05333
1.05332
1.05332
1.05332
1.05332
1.05331
1.05331
1.05331
1.05331
1.05331
1.05331
1.05331
1.0533
1.0533
1.0533
1.0533
1.0533
1.0533
1.0533
1.0533
1.0533
1.0533
1.05329
1.05329
1.05329
1.05329
1.05329
1.05329
1.05329
1.05329
1.05329
1.05329
1.05329
1.05329
1.05329
1.05329
1.0533
1.05331
1.05331
1.05332
1.05332
1.05333
1.05333
1.05334
1.05334
1.05335
1.05335
1.05335
1.05336
1.05336
1.05336
1.05337
1.05337
1.05337
1.05337
1.05337
1.05338
1.05338
1.05338
1.05338
1.05338
1.05338
1.05338
1.05339
1.05339
1.05339
1.05339
1.05339
1.05339
1.05339
1.05339
1.05339
1.05339
1.05339
1.05339
1.05338
1.05338
1.05337
1.05337
1.05336
1.05335
1.05335
1.05334
1.05334
1.05333
1.05333
1.05332
1.05332
1.05331
1.05331
1.05331
1.0533
1.0533
1.0533
1.0533
1.05329
1.05329
1.05329
1.05329
1.05329
1.05328
1.05328
1.05329
1.05326
0.986061
0.986087
0.986088
0.986082
0.986074
0.986065
0.986057
0.986049
0.986043
0.986036
0.98603
0.986024
0.986018
0.986012
0.986007
0.986002
0.985998
0.985994
0.985991
0.985988
0.985986
0.985984
0.985982
0.985981
0.985979
0.985978
0.985977
0.985976
0.985975
0.985974
0.985973
0.985972
0.985972
0.985971
0.98597
0.985969
0.985968
0.985967
0.985966
0.985965
0.985964
0.985963
0.985962
0.985961
0.98596
0.98596
0.985959
0.985959
0.985959
0.985961
0.985966
0.985974
0.985983
0.985992
0.986001
0.986009
0.986015
0.986022
0.986027
0.986032
0.986037
0.986041
0.986045
0.986049
0.986052
0.986055
0.986058
0.986061
0.986063
0.986065
0.986068
0.98607
0.986071
0.986073
0.986075
0.986076
0.986078
0.986079
0.98608
0.986081
0.986082
0.986083
0.986084
0.986085
0.986086
0.986086
0.986087
0.986087
0.986086
0.986083
0.986079
0.986072
0.986065
0.986057
0.986049
0.986041
0.986034
0.986027
0.98602
0.986014
0.986008
0.986003
0.985998
0.985993
0.985989
0.985986
0.985982
0.98598
0.985977
0.985975
0.985972
0.98597
0.985968
0.985965
0.985963
0.985961
0.985959
0.985956
0.98596
0.985934
0.92486
0.924884
0.924885
0.924879
0.924871
0.924863
0.924855
0.924848
0.924841
0.924835
0.924829
0.924823
0.924818
0.924812
0.924806
0.924802
0.924797
0.924794
0.924791
0.924788
0.924786
0.924784
0.924782
0.924781
0.924779
0.924778
0.924777
0.924776
0.924775
0.924775
0.924774
0.924773
0.924772
0.924772
0.924771
0.92477
0.92477
0.924769
0.924768
0.924767
0.924767
0.924766
0.924765
0.924764
0.924763
0.924763
0.924762
0.924762
0.924763
0.924768
0.924778
0.92479
0.924803
0.924814
0.924824
0.924833
0.92484
0.924847
0.924853
0.924859
0.924864
0.924868
0.924872
0.924876
0.924879
0.924883
0.924886
0.924888
0.924891
0.924893
0.924895
0.924897
0.924899
0.924901
0.924903
0.924904
0.924906
0.924907
0.924908
0.924909
0.92491
0.924911
0.924912
0.924913
0.924914
0.924914
0.924915
0.924915
0.924912
0.924907
0.9249
0.92489
0.92488
0.92487
0.924861
0.924852
0.924844
0.924836
0.924828
0.924822
0.924815
0.92481
0.924804
0.924799
0.924795
0.924791
0.924788
0.924786
0.924783
0.924781
0.924778
0.924776
0.924773
0.924771
0.924768
0.924766
0.924764
0.924761
0.924764
0.92474
0.868981
0.869003
0.869003
0.868998
0.86899
0.868982
0.868974
0.868967
0.868961
0.868955
0.86895
0.868944
0.868939
0.868933
0.868928
0.868923
0.868919
0.868916
0.868913
0.86891
0.868908
0.868906
0.868904
0.868903
0.868902
0.868901
0.8689
0.868899
0.868898
0.868897
0.868897
0.868896
0.868896
0.868895
0.868894
0.868894
0.868893
0.868893
0.868892
0.868892
0.868891
0.86889
0.86889
0.868889
0.868888
0.868888
0.868887
0.868889
0.868892
0.868901
0.868917
0.868934
0.86895
0.868963
0.868974
0.868984
0.868992
0.868999
0.869005
0.869011
0.869016
0.86902
0.869024
0.869028
0.869032
0.869035
0.869038
0.869041
0.869043
0.869046
0.869048
0.86905
0.869052
0.869054
0.869055
0.869057
0.869058
0.86906
0.869061
0.869062
0.869063
0.869064
0.869065
0.869066
0.869066
0.869067
0.869068
0.869067
0.869062
0.869053
0.869042
0.869029
0.869016
0.869004
0.868993
0.868983
0.868974
0.868965
0.868958
0.868951
0.868944
0.868938
0.868933
0.868928
0.868923
0.86892
0.868917
0.868914
0.868912
0.868909
0.868906
0.868904
0.868901
0.868898
0.868896
0.868894
0.868892
0.868889
0.868891
0.868868
0.817749
0.817769
0.817769
0.817763
0.817756
0.817748
0.81774
0.817734
0.817728
0.817722
0.817717
0.817712
0.817706
0.817701
0.817696
0.817692
0.817688
0.817684
0.817682
0.817679
0.817677
0.817675
0.817674
0.817672
0.817671
0.81767
0.817669
0.817668
0.817668
0.817667
0.817667
0.817666
0.817666
0.817665
0.817665
0.817665
0.817664
0.817664
0.817663
0.817663
0.817662
0.817662
0.817661
0.817661
0.81766
0.81766
0.817659
0.817664
0.817669
0.817687
0.817711
0.817733
0.817751
0.817765
0.817776
0.817786
0.817794
0.817801
0.817807
0.817813
0.817818
0.817822
0.817826
0.81783
0.817834
0.817837
0.81784
0.817843
0.817845
0.817848
0.81785
0.817852
0.817854
0.817856
0.817858
0.817859
0.817861
0.817862
0.817863
0.817864
0.817865
0.817866
0.817867
0.817868
0.817869
0.817869
0.817871
0.817867
0.817857
0.817844
0.817829
0.817812
0.817797
0.817783
0.81777
0.817759
0.81775
0.817741
0.817733
0.817726
0.817719
0.817713
0.817708
0.817702
0.817698
0.817695
0.817692
0.81769
0.817687
0.817685
0.817682
0.817679
0.817676
0.817673
0.817671
0.817668
0.817666
0.817663
0.817665
0.817644
0.770595
0.770613
0.770613
0.770607
0.7706
0.770592
0.770585
0.770579
0.770573
0.770568
0.770563
0.770558
0.770553
0.770548
0.770543
0.770539
0.770535
0.770532
0.77053
0.770527
0.770525
0.770523
0.770522
0.770521
0.77052
0.770519
0.770518
0.770517
0.770517
0.770516
0.770516
0.770515
0.770515
0.770515
0.770515
0.770514
0.770514
0.770514
0.770514
0.770513
0.770513
0.770513
0.770512
0.770512
0.770511
0.770512
0.770511
0.77052
0.770529
0.770561
0.770595
0.770621
0.770638
0.770652
0.770663
0.770671
0.770679
0.770686
0.770692
0.770697
0.770702
0.770707
0.770711
0.770714
0.770718
0.770721
0.770724
0.770727
0.770729
0.770732
0.770734
0.770736
0.770738
0.77074
0.770741
0.770743
0.770744
0.770746
0.770747
0.770748
0.770749
0.77075
0.770751
0.770752
0.770753
0.770753
0.770756
0.770745
0.77073
0.770711
0.77069
0.77067
0.770652
0.770637
0.770624
0.770613
0.770603
0.770594
0.770586
0.770579
0.770572
0.770566
0.770561
0.770556
0.770552
0.77055
0.770548
0.770545
0.770543
0.77054
0.770536
0.770533
0.77053
0.770527
0.770525
0.770522
0.77052
0.770517
0.770518
0.770499
0.72704
0.727056
0.727055
0.727049
0.727042
0.727035
0.727029
0.727023
0.727017
0.727013
0.727008
0.727003
0.726998
0.726993
0.726989
0.726985
0.726982
0.726979
0.726976
0.726974
0.726972
0.726971
0.726969
0.726968
0.726967
0.726967
0.726966
0.726965
0.726965
0.726964