/*--------------------------------*- C++ -*----------------------------------*\
  =========                 |
  \\      /  F ield         | OpenFOAM: The Open Source CFD Toolbox
   \\    /   O peration     | Website:  https://openfoam.org
    \\  /    A nd           | Version:  7
     \\/     M anipulation  |
\*---------------------------------------------------------------------------*/
FoamFile
{
    version     2.0;
    format      ascii;
    class       surfaceScalarField;
    location    "4000";
    object      phi;
}
// * * * * * * * * * * * * * * * * * * * * * * * * * * * * * * * * * * * * * //

dimensions      [0 3 -1 0 0 0 0];

internalField   nonuniform List<scalar> 
47680
(
2.01164e-06
-1.28882e-11
2.01164e-06
3.23962e-12
2.01163e-06
1.92566e-12
2.01163e-06
3.22517e-12
2.01162e-06
5.99956e-12
2.01162e-06
7.84859e-12
2.01161e-06
9.08902e-12
2.0116e-06
9.53823e-12
2.01159e-06
9.40032e-12
2.01158e-06
8.86873e-12
2.01157e-06
8.09788e-12
2.01156e-06
7.19579e-12
2.01156e-06
6.22523e-12
2.01155e-06
5.22571e-12
2.01155e-06
4.22648e-12
2.01155e-06
3.2516e-12
2.01154e-06
2.31901e-12
2.01154e-06
1.44088e-12
2.01154e-06
6.23983e-13
2.01154e-06
-1.28148e-13
2.01154e-06
-8.12713e-13
2.01154e-06
-1.42714e-12
2.01155e-06
-1.97205e-12
2.01155e-06
-2.45044e-12
2.01155e-06
-2.86841e-12
2.01155e-06
-3.23276e-12
2.01156e-06
-3.551e-12
2.01156e-06
-3.82904e-12
2.01157e-06
-4.07189e-12
2.01157e-06
-4.28344e-12
2.01157e-06
-4.46762e-12
2.01158e-06
-4.62766e-12
2.01158e-06
-4.76776e-12
2.01159e-06
-4.88951e-12
2.01159e-06
-4.99332e-12
2.0116e-06
-5.07546e-12
2.0116e-06
-5.13139e-12
2.01161e-06
-5.14945e-12
2.01161e-06
-5.1257e-12
2.01162e-06
-5.01849e-12
2.01162e-06
-4.86598e-12
2.01163e-06
-4.44624e-12
2.01163e-06
-4.16455e-12
2.01164e-06
-2.95462e-12
2.01164e-06
-2.62927e-12
2.01164e-06
-7.77486e-13
2.01164e-06
1.45407e-12
2.01164e-06
1.61479e-12
2.01163e-06
1.53618e-12
2.01163e-06
6.46166e-13
2.01163e-06
3.14829e-13
2.01163e-06
-2.33346e-13
2.01163e-06
-7.55736e-13
2.01164e-06
-1.18919e-12
2.01164e-06
-1.52576e-12
2.01164e-06
-1.72365e-12
2.01164e-06
-1.77168e-12
2.01164e-06
-1.66779e-12
2.01164e-06
-1.42726e-12
2.01165e-06
-1.07769e-12
2.01165e-06
-6.54243e-13
2.01165e-06
-1.92595e-13
2.01165e-06
2.765e-13
2.01164e-06
7.29569e-13
2.01164e-06
1.14953e-12
2.01164e-06
1.52424e-12
2.01164e-06
1.84522e-12
2.01164e-06
2.10575e-12
2.01164e-06
2.30371e-12
2.01163e-06
2.43914e-12
2.01163e-06
2.51711e-12
2.01163e-06
2.54434e-12
2.01163e-06
2.52942e-12
2.01162e-06
2.47993e-12
2.01162e-06
2.40165e-12
2.01162e-06
2.29885e-12
2.01162e-06
2.17397e-12
2.01161e-06
2.03052e-12
2.01161e-06
1.86995e-12
2.01161e-06
1.69865e-12
2.01161e-06
1.51334e-12
2.01161e-06
1.32674e-12
2.01161e-06
1.11629e-12
2.01161e-06
9.13299e-13
2.01161e-06
6.55514e-13
2.01161e-06
4.08936e-13
2.0116e-06
1.06143e-13
2.0116e-06
-1.97653e-14
2.01161e-06
-2.93335e-14
2.01161e-06
-2.72111e-14
2.0116e-06
6.00382e-14
2.0116e-06
-1.89339e-14
2.01161e-06
-1.19068e-13
2.01161e-06
-2.43734e-13
2.01161e-06
-3.9117e-13
2.01161e-06
-5.53876e-13
2.01161e-06
-7.331e-13
2.01161e-06
-9.29155e-13
2.01161e-06
-1.11168e-12
2.01161e-06
-1.30756e-12
2.01161e-06
-1.31275e-12
2.01161e-06
-1.47163e-12
2.01161e-06
-8.26678e-13
2.01161e-06
-9.00126e-13
2.01161e-06
2.01639e-13
2.01161e-06
2.34317e-12
2.01161e-06
2.30946e-12
2.01161e-06
1.93798e-12
2.01161e-06
1.19725e-12
2.01161e-06
2.8941e-13
2.01161e-06
-5.34898e-13
2.01161e-06
-1.2804e-12
2.01161e-06
-1.79194e-12
2.01161e-06
-2.20904e-12
2.01161e-06
-2.18012e-12
2.01162e-06
-2.38534e-12
2.01162e-06
-1.04306e-12
2.01162e-06
-2.905e-12
2.01162e-06
3.08107e-12
-8.54134e-12
6.21553e-06
-4.63328e-11
6.21553e-06
3.43909e-12
6.21553e-06
8.10137e-12
6.21552e-06
1.43705e-11
6.2155e-06
2.51166e-11
6.21547e-06
3.25088e-11
6.21544e-06
3.71674e-11
6.21542e-06
3.87931e-11
6.21539e-06
3.8107e-11
6.21536e-06
3.58716e-11
6.21534e-06
3.26904e-11
6.21531e-06
2.89902e-11
6.21529e-06
2.50295e-11
6.21528e-06
2.09704e-11
6.21527e-06
1.69298e-11
6.21526e-06
1.29992e-11
6.21525e-06
9.24464e-12
6.21525e-06
5.71121e-12
6.21524e-06
2.42408e-12
6.21524e-06
-6.0229e-13
6.21525e-06
-3.35541e-12
6.21525e-06
-5.82563e-12
6.21526e-06
-8.01555e-12
6.21526e-06
-9.93782e-12
6.21527e-06
-1.16172e-11
6.21528e-06
-1.30808e-11
6.21529e-06
-1.43571e-11
6.21531e-06
-1.54703e-11
6.21532e-06
-1.64398e-11
6.21533e-06
-1.72813e-11
6.21534e-06
-1.80107e-11
6.21536e-06
-1.86426e-11
6.21537e-06
-1.91919e-11
6.21539e-06
-1.96681e-11
6.2154e-06
-2.00713e-11
6.21542e-06
-2.03942e-11
6.21543e-06
-2.0612e-11
6.21545e-06
-2.07025e-11
6.21546e-06
-2.06093e-11
6.21548e-06
-2.02651e-11
6.21549e-06
-1.96328e-11
6.21551e-06
-1.82431e-11
6.21552e-06
-1.69357e-11
6.21553e-06
-1.28885e-11
6.21554e-06
-1.11564e-11
6.21554e-06
-4.58744e-12
6.21554e-06
3.44278e-12
6.21554e-06
5.02106e-12
6.21553e-06
4.87888e-12
6.21553e-06
2.09768e-12
6.21553e-06
7.18507e-13
6.21553e-06
-1.18584e-12
6.21554e-06
-3.08799e-12
6.21554e-06
-4.67768e-12
6.21554e-06
-5.89089e-12
6.21555e-06
-6.57531e-12
6.21555e-06
-6.6755e-12
6.21556e-06
-6.18635e-12
6.21556e-06
-5.1679e-12
6.21556e-06
-3.73297e-12
6.21557e-06
-2.01971e-12
6.21557e-06
-1.68178e-13
6.21556e-06
1.70149e-12
6.21556e-06
3.49833e-12
6.21556e-06
5.15633e-12
6.21555e-06
6.62866e-12
6.21555e-06
7.88154e-12
6.21554e-06
8.89223e-12
6.21553e-06
9.65135e-12
6.21552e-06
1.01632e-11
6.21552e-06
1.04462e-11
6.21551e-06
1.05307e-11
6.2155e-06
1.0449e-11
6.21549e-06
1.02328e-11
6.21549e-06
9.90455e-12
6.21548e-06
9.48069e-12
6.21547e-06
8.97283e-12
6.21547e-06
8.39298e-12
6.21546e-06
7.7504e-12
6.21545e-06
7.06432e-12
6.21545e-06
6.33215e-12
6.21544e-06
5.58407e-12
6.21544e-06
4.76663e-12
6.21544e-06
3.95164e-12
6.21544e-06
2.9721e-12
6.21543e-06
1.99058e-12
6.21543e-06
8.5256e-13
6.21543e-06
2.87435e-13
6.21543e-06
1.58429e-13
6.21543e-06
1.45492e-13
6.21543e-06
3.93828e-13
6.21543e-06
1.42944e-13
6.21543e-06
-2.42317e-13
6.21543e-06
-7.26969e-13
6.21543e-06
-1.31582e-12
6.21544e-06
-1.97993e-12
6.21544e-06
-2.73634e-12
6.21544e-06
-3.55438e-12
6.21544e-06
-4.38918e-12
6.21545e-06
-5.18899e-12
6.21545e-06
-5.49059e-12
6.21546e-06
-6.00952e-12
6.21546e-06
-4.12138e-12
6.21546e-06
-4.1536e-12
6.21546e-06
-3.03554e-13
6.21546e-06
7.032e-12
6.21545e-06
7.76902e-12
6.21545e-06
6.59409e-12
6.21545e-06
4.04064e-12
6.21544e-06
7.97692e-13
6.21545e-06
-2.2881e-12
6.21545e-06
-5.01479e-12
6.21546e-06
-7.07136e-12
6.21546e-06
-8.45239e-12
6.21547e-06
-8.80594e-12
6.21547e-06
-8.79652e-12
6.21548e-06
-5.42382e-12
6.21549e-06
-9.43939e-12
6.21548e-06
8.32259e-12
-2.87519e-11
1.07035e-05
-9.74539e-11
1.07036e-05
-5.03259e-12
1.07035e-05
1.7788e-11
1.07035e-05
3.55682e-11
1.07035e-05
5.91937e-11
1.07034e-05
7.56427e-11
1.07034e-05
8.55543e-11
1.07033e-05
8.88127e-11
1.07033e-05
8.69614e-11
1.07033e-05
8.16795e-11
1.07032e-05
7.42991e-11
1.07032e-05
6.57687e-11
1.07031e-05
5.6678e-11
1.07031e-05
4.73998e-11
1.07031e-05
3.81957e-11
1.07031e-05
2.92625e-11
1.07031e-05
2.07419e-11
1.07031e-05
1.27267e-11
1.07031e-05
5.27318e-12
1.07031e-05
-1.58764e-12
1.07031e-05
-7.82758e-12
1.07031e-05
-1.34238e-11
1.07031e-05
-1.83825e-11
1.07031e-05
-2.27365e-11
1.07031e-05
-2.65377e-11
1.07031e-05
-2.98496e-11
1.07031e-05
-3.27354e-11
1.07032e-05
-3.52481e-11
1.07032e-05
-3.74318e-11
1.07032e-05
-3.93225e-11
1.07032e-05
-4.09552e-11
1.07033e-05
-4.23647e-11
1.07033e-05
-4.35844e-11
1.07033e-05
-4.46381e-11
1.07033e-05
-4.55281e-11
1.07034e-05
-4.62448e-11
1.07034e-05
-4.67316e-11
1.07034e-05
-4.6958e-11
1.07034e-05
-4.6772e-11
1.07035e-05
-4.60993e-11
1.07035e-05
-4.471e-11
1.07035e-05
-4.19375e-11
1.07035e-05
-3.88954e-11
1.07035e-05
-3.08329e-11
1.07036e-05
-2.64998e-11
1.07036e-05
-1.29799e-11
1.07036e-05
3.73474e-12
1.07036e-05
8.49576e-12
1.07036e-05
8.72739e-12
1.07036e-05
3.63199e-12
1.07036e-05
6.4188e-13
1.07036e-05
-3.21003e-12
1.07036e-05
-7.13423e-12
1.07036e-05
-1.04457e-11
1.07036e-05
-1.29301e-11
1.07036e-05
-1.42623e-11
1.07036e-05
-1.43039e-11
1.07036e-05
-1.30475e-11
1.07036e-05
-1.06314e-11
1.07036e-05
-7.31104e-12
1.07036e-05
-3.39798e-12
1.07036e-05
7.95661e-13
1.07036e-05
5.00553e-12
1.07036e-05
9.03145e-12
1.07036e-05
1.27294e-11
1.07036e-05
1.5998e-11
1.07036e-05
1.87641e-11
1.07036e-05
2.09811e-11
1.07036e-05
2.26293e-11
1.07035e-05
2.37224e-11
1.07035e-05
2.43043e-11
1.07035e-05
2.44431e-11
1.07035e-05
2.42144e-11
1.07035e-05
2.36871e-11
1.07035e-05
2.29148e-11
1.07035e-05
2.19328e-11
1.07034e-05
2.07688e-11
1.07034e-05
1.94479e-11
1.07034e-05
1.79946e-11
1.07034e-05
1.64449e-11
1.07034e-05
1.48046e-11
1.07034e-05
1.31196e-11
1.07034e-05
1.13073e-11
1.07034e-05
9.47458e-12
1.07034e-05
7.33731e-12
1.07034e-05
5.15005e-12
1.07034e-05
2.68712e-12
1.07034e-05
1.32392e-12
1.07034e-05
8.8638e-13
1.07034e-05
7.91686e-13
1.07034e-05
1.20429e-12
1.07034e-05
7.14344e-13
1.07034e-05
-1.19497e-13
1.07034e-05
-1.19447e-12
1.07034e-05
-2.52269e-12
1.07034e-05
-4.05361e-12
1.07034e-05
-5.83008e-12
1.07034e-05
-7.76175e-12
1.07034e-05
-9.80502e-12
1.07034e-05
-1.17142e-11
1.07034e-05
-1.27783e-11
1.07034e-05
-1.39359e-11
1.07034e-05
-1.06503e-11
1.07034e-05
-1.04912e-11
1.07034e-05
-2.75897e-12
1.07034e-05
1.19284e-11
1.07034e-05
1.4665e-11
1.07034e-05
1.27002e-11
1.07034e-05
7.65459e-12
1.07034e-05
1.02844e-12
1.07034e-05
-5.48909e-12
1.07034e-05
-1.12313e-11
1.07034e-05
-1.57458e-11
1.07034e-05
-1.85633e-11
1.07034e-05
-1.97405e-11
1.07035e-05
-1.90568e-11
1.07035e-05
-1.34923e-11
1.07035e-05
-1.89157e-11
1.07035e-05
1.37214e-11
-5.72583e-11
1.54714e-05
-1.64773e-10
1.54715e-05
-2.38367e-11
1.54715e-05
3.06602e-11
1.54714e-05
6.92416e-11
1.54714e-05
1.10358e-10
1.54713e-05
1.38767e-10
1.54712e-05
1.55206e-10
1.54712e-05
1.60141e-10
1.54711e-05
1.5624e-10
1.5471e-05
1.46389e-10
1.5471e-05
1.32899e-10
1.54709e-05
1.1742e-10
1.54709e-05
1.00997e-10
1.54708e-05
8.42986e-11
1.54708e-05
6.77845e-11
1.54708e-05
5.1792e-11
1.54708e-05
3.6558e-11
1.54708e-05
2.22385e-11
1.54708e-05
8.92726e-12
1.54708e-05
-3.32318e-12
1.54708e-05
-1.44603e-11
1.54708e-05
-2.44461e-11
1.54708e-05
-3.32925e-11
1.54708e-05
-4.10584e-11
1.54708e-05
-4.78377e-11
1.54709e-05
-5.37419e-11
1.54709e-05
-5.88817e-11
1.54709e-05
-6.33518e-11
1.54709e-05
-6.72286e-11
1.5471e-05
-7.05784e-11
1.5471e-05
-7.34621e-11
1.5471e-05
-7.59436e-11
1.54711e-05
-7.80807e-11
1.54711e-05
-7.9921e-11
1.54711e-05
-8.14723e-11
1.54712e-05
-8.27274e-11
1.54712e-05
-8.35935e-11
1.54713e-05
-8.40246e-11
1.54713e-05
-8.37525e-11
1.54713e-05
-8.26857e-11
1.54714e-05
-8.03443e-11
1.54714e-05
-7.58511e-11
1.54714e-05
-7.05079e-11
1.54715e-05
-5.7542e-11
1.54715e-05
-4.95215e-11
1.54715e-05
-2.73307e-11
1.54715e-05
3.26936e-13
1.54715e-05
1.01528e-11
1.54715e-05
1.16567e-11
1.54715e-05
4.30905e-12
1.54715e-05
-5.45901e-13
1.54715e-05
-6.71752e-12
1.54715e-05
-1.30562e-11
1.54715e-05
-1.84515e-11
1.54715e-05
-2.24194e-11
1.54715e-05
-2.43992e-11
1.54715e-05
-2.4131e-11
1.54715e-05
-2.16076e-11
1.54716e-05
-1.70827e-11
1.54716e-05
-1.10164e-11
1.54716e-05
-3.96251e-12
1.54716e-05
3.53077e-12
1.54715e-05
1.10019e-11
1.54715e-05
1.8107e-11
1.54715e-05
2.46002e-11
1.54715e-05
3.0309e-11
1.54715e-05
3.51133e-11
1.54715e-05
3.89365e-11
1.54715e-05
4.17489e-11
1.54714e-05
4.35783e-11
1.54714e-05
4.45072e-11
1.54714e-05
4.46585e-11
1.54714e-05
4.41673e-11
1.54714e-05
4.31574e-11
1.54713e-05
4.17232e-11
1.54713e-05
3.99303e-11
1.54713e-05
3.78261e-11
1.54713e-05
3.54559e-11
1.54713e-05
3.28631e-11
1.54713e-05
3.01052e-11
1.54713e-05
2.72007e-11
1.54712e-05
2.42137e-11
1.54712e-05
2.10325e-11
1.54712e-05
1.77947e-11
1.54712e-05
1.40913e-11
1.54712e-05
1.02628e-11
1.54712e-05
6.02754e-12
1.54712e-05
3.49094e-12
1.54712e-05
2.49594e-12
1.54712e-05
2.1935e-12
1.54712e-05
2.7182e-12
1.54712e-05
1.91914e-12
1.54712e-05
4.95714e-13
1.54712e-05
-1.39355e-12
1.54712e-05
-3.76647e-12
1.54712e-05
-6.55852e-12
1.54712e-05
-9.84183e-12
1.54712e-05
-1.34511e-11
1.54712e-05
-1.73283e-11
1.54712e-05
-2.09712e-11
1.54712e-05
-2.33794e-11
1.54713e-05
-2.56068e-11
1.54713e-05
-2.10693e-11
1.54713e-05
-2.06749e-11
1.54713e-05
-8.37815e-12
1.54713e-05
1.50946e-11
1.54713e-05
2.10981e-11
1.54713e-05
1.87978e-11
1.54713e-05
1.09958e-11
1.54713e-05
3.49599e-13
1.54713e-05
-1.04227e-11
1.54713e-05
-1.99825e-11
1.54713e-05
-2.76457e-11
1.54713e-05
-3.23523e-11
1.54713e-05
-3.46177e-11
1.54713e-05
-3.30798e-11
1.54713e-05
-2.50428e-11
1.54714e-05
-3.12587e-11
1.54713e-05
1.85869e-11
-9.27569e-11
2.04626e-05
-2.46027e-10
2.04626e-05
-5.0953e-11
2.04626e-05
4.7994e-11
2.04625e-05
1.1703e-10
2.04625e-05
1.79545e-10
2.04624e-05
2.21759e-10
2.04623e-05
2.45233e-10
2.04622e-05
2.5144e-10
2.04621e-05
2.44421e-10
2.0462e-05
2.28463e-10
2.0462e-05
2.07035e-10
2.04619e-05
1.82619e-10
2.04619e-05
1.56816e-10
2.04618e-05
1.30658e-10
2.04618e-05
1.04852e-10
2.04617e-05
7.99043e-11
2.04617e-05
5.61652e-11
2.04617e-05
3.38627e-11
2.04617e-05
1.31347e-11
2.04617e-05
-5.93852e-12
2.04617e-05
-2.32758e-11
2.04617e-05
-3.88209e-11
2.04617e-05
-5.25952e-11
2.04618e-05
-6.46885e-11
2.04618e-05
-7.52477e-11
2.04618e-05
-8.44424e-11
2.04619e-05
-9.24436e-11
2.04619e-05
-9.93961e-11
2.04619e-05
-1.0542e-10
2.0462e-05
-1.10616e-10
2.0462e-05
-1.15079e-10
2.04621e-05
-1.18908e-10
2.04621e-05
-1.22194e-10
2.04622e-05
-1.25014e-10
2.04622e-05
-1.2739e-10
2.04622e-05
-1.2932e-10
2.04623e-05
-1.30678e-10
2.04623e-05
-1.31394e-10
2.04624e-05
-1.31075e-10
2.04624e-05
-1.29585e-10
2.04625e-05
-1.2618e-10
2.04625e-05
-1.19732e-10
2.04626e-05
-1.11676e-10
2.04626e-05
-9.3211e-11
2.04626e-05
-8.06192e-11
2.04627e-05
-4.85326e-11
2.04627e-05
-8.31839e-12
2.04627e-05
8.32503e-12
2.04627e-05
1.2293e-11
2.04627e-05
3.20372e-12
2.04627e-05
-3.42469e-12
2.04627e-05
-1.20147e-11
2.04627e-05
-2.08973e-11
2.04627e-05
-2.85026e-11
2.04627e-05
-3.39617e-11
2.04627e-05
-3.64153e-11
2.04627e-05
-3.54521e-11
2.04627e-05
-3.10717e-11
2.04627e-05
-2.36855e-11
2.04627e-05
-1.4015e-11
2.04627e-05
-2.92205e-12
2.04627e-05
8.75202e-12
2.04627e-05
2.03108e-11
2.04627e-05
3.12376e-11
2.04627e-05
4.117e-11
2.04627e-05
4.98566e-11
2.04627e-05
5.71255e-11
2.04626e-05
6.28687e-11
2.04626e-05
6.7048e-11
2.04626e-05
6.9713e-11
2.04626e-05
7.09946e-11
2.04625e-05
7.10852e-11
2.04625e-05
7.01965e-11
2.04625e-05
6.85205e-11
2.04625e-05
6.62051e-11
2.04624e-05
6.3353e-11
2.04624e-05
6.00385e-11
2.04624e-05
5.63297e-11
2.04624e-05
5.22936e-11
2.04623e-05
4.80117e-11
2.04623e-05
4.35202e-11
2.04623e-05
3.89026e-11
2.04623e-05
3.40159e-11
2.04623e-05
2.90286e-11
2.04623e-05
2.34005e-11
2.04623e-05
1.75537e-11
2.04623e-05
1.11611e-11
2.04623e-05
7.09298e-12
2.04623e-05
5.2627e-12
2.04623e-05
4.58085e-12
2.04623e-05
5.11559e-12
2.04623e-05
3.92476e-12
2.04623e-05
1.78455e-12
2.04623e-05
-1.13338e-12
2.04623e-05
-4.85702e-12
2.04623e-05
-9.32229e-12
2.04623e-05
-1.46258e-11
2.04623e-05
-2.05194e-11
2.04623e-05
-2.68963e-11
2.04623e-05
-3.29628e-11
2.04623e-05
-3.73676e-11
2.04623e-05
-4.11963e-11
2.04623e-05
-3.57758e-11
2.04624e-05
-3.52302e-11
2.04624e-05
-1.80597e-11
2.04624e-05
1.49903e-11
2.04624e-05
2.53752e-11
2.04624e-05
2.34871e-11
2.04624e-05
1.30862e-11
2.04624e-05
-1.77973e-12
2.04624e-05
-1.7231e-11
2.04624e-05
-3.11127e-11
2.04624e-05
-4.23696e-11
2.04624e-05
-4.93267e-11
2.04624e-05
-5.28209e-11
2.04624e-05
-5.04144e-11
2.04625e-05
-3.96616e-11
2.04625e-05
-4.61194e-11
2.04625e-05
2.26467e-11
-1.34875e-10
2.55334e-05
-3.34379e-10
2.55334e-05
-8.10789e-11
2.55334e-05
7.12294e-11
2.55333e-05
1.77769e-10
2.55332e-05
2.6408e-10
2.55331e-05
3.20703e-10
2.5533e-05
3.51e-10
2.55329e-05
3.57858e-10
2.55328e-05
3.46812e-10
2.55327e-05
3.23605e-10
2.55326e-05
2.92923e-10
2.55326e-05
2.58141e-10
2.55325e-05
2.21469e-10
2.55325e-05
1.84352e-10
2.55324e-05
1.47778e-10
2.55324e-05
1.12448e-10
2.55324e-05
7.8837e-11
2.55323e-05
4.72568e-11
2.55323e-05
1.78974e-11
2.55323e-05
-9.12465e-12
2.55323e-05
-3.36978e-11
2.55324e-05
-5.57468e-11
2.55324e-05
-7.53008e-11
2.55324e-05
-9.24846e-11
2.55324e-05
-1.075e-10
2.55325e-05
-1.20585e-10
2.55325e-05
-1.31976e-10
2.55326e-05
-1.41876e-10
2.55326e-05
-1.50453e-10
2.55327e-05
-1.57847e-10
2.55327e-05
-1.64192e-10
2.55328e-05
-1.69628e-10
2.55328e-05
-1.74284e-10
2.55329e-05
-1.78271e-10
2.55329e-05
-1.81634e-10
2.5533e-05
-1.84379e-10
2.5533e-05
-1.86351e-10
2.55331e-05
-1.87451e-10
2.55331e-05
-1.87164e-10
2.55332e-05
-1.85284e-10
2.55333e-05
-1.80801e-10
2.55333e-05
-1.72304e-10
2.55334e-05
-1.61322e-10
2.55334e-05
-1.37072e-10
2.55334e-05
-1.19333e-10
2.55335e-05
-7.66579e-11
2.55335e-05
-2.29217e-11
2.55335e-05
1.97032e-12
2.55335e-05
9.67875e-12
2.55335e-05
-2.9634e-13
2.55335e-05
-8.27483e-12
2.55335e-05
-1.90891e-11
2.55335e-05
-3.03821e-11
2.55335e-05
-4.00855e-11
2.55335e-05
-4.68519e-11
2.55335e-05
-4.94738e-11
2.55336e-05
-4.73673e-11
2.55336e-05
-4.05545e-11
2.55336e-05
-2.96437e-11
2.55336e-05
-1.56654e-11
2.55336e-05
1.65323e-13
2.55336e-05
1.66809e-11
2.55336e-05
3.29225e-11
2.55335e-05
4.81895e-11
2.55335e-05
6.19999e-11
2.55335e-05
7.40242e-11
2.55335e-05
8.40392e-11
2.55334e-05
9.19048e-11
2.55334e-05
9.75779e-11
2.55334e-05
1.01132e-10
2.55333e-05
1.02755e-10
2.55333e-05
1.02719e-10
2.55333e-05
1.01321e-10
2.55332e-05
9.88338e-11
2.55332e-05
9.54657e-11
2.55332e-05
9.13624e-11
2.55332e-05
8.66286e-11
2.55331e-05
8.13591e-11
2.55331e-05
7.56471e-11
2.55331e-05
6.96012e-11
2.55331e-05
6.32749e-11
2.55331e-05
5.67746e-11
2.5533e-05
4.99269e-11
2.5533e-05
4.29271e-11
2.5533e-05
3.51062e-11
2.5533e-05
2.69584e-11
2.5533e-05
1.81182e-11
2.5533e-05
1.22189e-11
2.5533e-05
9.28707e-12
2.5533e-05
8.03332e-12
2.5533e-05
8.44197e-12
2.5533e-05
6.76425e-12
2.5533e-05
3.78799e-12
2.5533e-05
-3.56145e-13
2.5533e-05
-5.72264e-12
2.5533e-05
-1.22584e-11
2.5533e-05
-2.0077e-11
2.5533e-05
-2.8836e-11
2.5533e-05
-3.83411e-11
2.5533e-05
-4.74852e-11
2.5533e-05
-5.45138e-11
2.55331e-05
-6.04758e-11
2.55331e-05
-5.46414e-11
2.55331e-05
-5.41235e-11
2.55331e-05
-3.20732e-11
2.55331e-05
1.08321e-11
2.55331e-05
2.64688e-11
2.55331e-05
2.58782e-11
2.55331e-05
1.34075e-11
2.55331e-05
-5.44857e-12
2.55331e-05
-2.5593e-11
2.55331e-05
-4.39683e-11
2.55332e-05
-5.90203e-11
2.55332e-05
-6.84624e-11
2.55332e-05
-7.32806e-11
2.55332e-05
-7.00937e-11
2.55332e-05
-5.65767e-11
2.55332e-05
-6.27276e-11
2.55332e-05
2.56362e-11
-1.81117e-10
3.04886e-05
-4.16394e-10
3.04887e-05
-1.07744e-10
3.04886e-05
9.97561e-11
3.04886e-05
2.46567e-10
3.04885e-05
3.57322e-10
3.04884e-05
4.28012e-10
3.04882e-05
4.64558e-10
3.04881e-05
4.71584e-10
3.0488e-05
4.56128e-10
3.04879e-05
4.25303e-10
3.04878e-05
3.84946e-10
3.04878e-05
3.39293e-10
3.04877e-05
2.91167e-10
3.04876e-05
2.42443e-10
3.04876e-05
1.94415e-10
3.04875e-05
1.47994e-10
3.04875e-05
1.03796e-10
3.04875e-05
6.22245e-11
3.04875e-05
2.35326e-11
3.04875e-05
-1.21138e-11
3.04875e-05
-4.45682e-11
3.04875e-05
-7.37365e-11
3.04876e-05
-9.9649e-11
3.04876e-05
-1.22463e-10
3.04876e-05
-1.42434e-10
3.04877e-05
-1.5987e-10
3.04877e-05
-1.75073e-10
3.04877e-05
-1.88304e-10
3.04878e-05
-1.99781e-10
3.04878e-05
-2.09685e-10
3.04879e-05
-2.18192e-10
3.0488e-05
-2.25483e-10
3.0488e-05
-2.3173e-10
3.04881e-05
-2.37082e-10
3.04881e-05
-2.41607e-10
3.04882e-05
-2.45324e-10
3.04883e-05
-2.48054e-10
3.04883e-05
-2.4967e-10
3.04884e-05
-2.49539e-10
3.04884e-05
-2.47372e-10
3.04885e-05
-2.41903e-10
3.04886e-05
-2.31419e-10
3.04886e-05
-2.17511e-10
3.04887e-05
-1.87498e-10
3.04887e-05
-1.64391e-10
3.04887e-05
-1.1096e-10
3.04888e-05
-4.33344e-11
3.04888e-05
-9.18407e-12
3.04888e-05
3.44148e-12
3.04888e-05
-6.37858e-12
3.04888e-05
-1.50307e-11
3.04888e-05
-2.7609e-11
3.04888e-05
-4.09458e-11
3.04888e-05
-5.24248e-11
3.04888e-05
-6.01601e-11
3.04889e-05
-6.25673e-11
3.04889e-05
-5.889e-11
3.04889e-05
-4.91938e-11
3.04889e-05
-3.43129e-11
3.04889e-05
-1.56153e-11
3.04889e-05
5.31683e-12
3.04889e-05
2.69809e-11
3.04889e-05
4.81588e-11
3.04888e-05
6.7973e-11
3.04888e-05
8.58296e-11
3.04888e-05
1.01328e-10
3.04888e-05
1.14198e-10
3.04887e-05
1.24268e-10
3.04887e-05
1.31489e-10
3.04886e-05
1.3596e-10
3.04886e-05
1.37926e-10
3.04886e-05
1.3774e-10
3.04885e-05
1.35791e-10
3.04885e-05
1.32431e-10
3.04885e-05
1.27934e-10
3.04884e-05
1.22489e-10
3.04884e-05
1.16234e-10
3.04884e-05
1.09291e-10
3.04884e-05
1.01781e-10
3.04883e-05
9.38414e-11
3.04883e-05
8.55457e-11
3.04883e-05
7.70213e-11
3.04883e-05
6.80691e-11
3.04883e-05
5.89077e-11
3.04882e-05
4.87422e-11
3.04882e-05
3.813e-11
3.04882e-05
2.66689e-11
3.04882e-05
1.87269e-11
3.04882e-05
1.44728e-11
3.04882e-05
1.24637e-11
3.04882e-05
1.2597e-11
3.04882e-05
1.03291e-11
3.04882e-05
6.39955e-12
3.04882e-05
8.47717e-13
3.04882e-05
-6.42697e-12
3.04882e-05
-1.53902e-11
3.04882e-05
-2.6157e-11
3.04882e-05
-3.82714e-11
3.04882e-05
-5.14181e-11
3.04883e-05
-6.41599e-11
3.04883e-05
-7.4313e-11
3.04883e-05
-8.28417e-11
3.04883e-05
-7.70343e-11
3.04883e-05
-7.67514e-11
3.04884e-05
-5.0027e-11
3.04884e-05
2.65578e-12
3.04884e-05
2.41652e-11
3.04884e-05
2.57662e-11
3.04884e-05
1.20176e-11
3.04884e-05
-1.02453e-11
3.04884e-05
-3.47365e-11
3.04884e-05
-5.74664e-11
3.04884e-05
-7.6302e-11
3.04884e-05
-8.83382e-11
3.04885e-05
-9.45835e-11
3.04885e-05
-9.07808e-11
3.04885e-05
-7.47299e-11
3.04885e-05
-7.99433e-11
3.04885e-05
2.68474e-11
-2.247e-10
3.51804e-05
-4.77182e-10
3.51805e-05
-1.24682e-10
3.51804e-05
1.31836e-10
3.51804e-05
3.17346e-10
3.51803e-05
4.51758e-10
3.51802e-05
5.35696e-10
3.518e-05
5.77861e-10
3.51799e-05
5.8485e-10
3.51798e-05
5.65159e-10
3.51797e-05
5.27103e-10
3.51796e-05
4.77509e-10
3.51795e-05
4.21375e-10
3.51795e-05
3.62092e-10
3.51794e-05
3.01956e-10
3.51794e-05
2.42574e-10
3.51793e-05
1.85077e-10
3.51793e-05
1.30231e-10
3.51793e-05
7.85419e-11
3.51793e-05
3.03372e-11
3.51793e-05
-1.41537e-11
3.51793e-05
-5.47401e-11
3.51793e-05
-9.13044e-11
3.51793e-05
-1.23872e-10
3.51794e-05
-1.52623e-10
3.51794e-05
-1.77864e-10
3.51794e-05
-1.99964e-10
3.51795e-05
-2.19287e-10
3.51795e-05
-2.36149e-10
3.51796e-05
-2.5081e-10
3.51796e-05
-2.63494e-10
3.51797e-05
-2.74416e-10
3.51798e-05
-2.838e-10
3.51798e-05
-2.9186e-10
3.51799e-05
-2.98784e-10
3.51799e-05
-3.04664e-10
3.518e-05
-3.09532e-10
3.51801e-05
-3.13191e-10
3.51801e-05
-3.15485e-10
3.51802e-05
-3.15672e-10
3.51803e-05
-3.13383e-10
3.51803e-05
-3.07104e-10
3.51804e-05
-2.94823e-10
3.51805e-05
-2.78161e-10
3.51805e-05
-2.42637e-10
3.51806e-05
-2.14247e-10
3.51806e-05
-1.5029e-10
3.51806e-05
-6.88576e-11
3.51806e-05
-2.48655e-11
3.51807e-05
-6.38086e-12
3.51807e-05
-1.49986e-11
3.51807e-05
-2.35138e-11
3.51807e-05
-3.72015e-11
3.51807e-05
-5.20239e-11
3.51807e-05
-6.47749e-11
3.51807e-05
-7.3003e-11
3.51807e-05
-7.47492e-11
3.51807e-05
-6.91057e-11
3.51807e-05
-5.62096e-11
3.51807e-05
-3.71414e-11
3.51807e-05
-1.36112e-11
3.51807e-05
1.24432e-11
3.51807e-05
3.92086e-11
3.51807e-05
6.5236e-11
3.51807e-05
8.94956e-11
3.51807e-05
1.11301e-10
3.51806e-05
1.30193e-10
3.51806e-05
1.45856e-10
3.51806e-05
1.58093e-10
3.51805e-05
1.66845e-10
3.51805e-05
1.72233e-10
3.51805e-05
1.74555e-10
3.51804e-05
1.74242e-10
3.51804e-05
1.71766e-10
3.51804e-05
1.67558e-10
3.51803e-05
1.61951e-10
3.51803e-05
1.55178e-10
3.51803e-05
1.47405e-10
3.51802e-05
1.38785e-10
3.51802e-05
1.29465e-10
3.51802e-05
1.19614e-10
3.51801e-05
1.09323e-10
3.51801e-05
9.87445e-11
3.51801e-05
8.76528e-11
3.51801e-05
7.62898e-11
3.51801e-05
6.37399e-11
3.51801e-05
5.06125e-11
3.51801e-05
3.64654e-11
3.518e-05
2.63609e-11
3.518e-05
2.0629e-11
3.518e-05
1.77106e-11
3.518e-05
1.74241e-11
3.518e-05
1.44547e-11
3.518e-05
9.44585e-12
3.518e-05
2.30631e-12
3.518e-05
-7.12856e-12
3.518e-05
-1.88395e-11
3.518e-05
-3.29205e-11
3.518e-05
-4.87791e-11
3.51801e-05
-6.59484e-11
3.51801e-05
-8.26508e-11
3.51801e-05
-9.6269e-11
3.51801e-05
-1.07655e-10
3.51801e-05
-1.02215e-10
3.51802e-05
-1.02349e-10
3.51802e-05
-7.12471e-11
3.51802e-05
-9.05388e-12
3.51802e-05
1.8732e-11
3.51802e-05
2.33248e-11
3.51802e-05
9.20116e-12
3.51802e-05
-1.56653e-11
3.51802e-05
-4.3898e-11
3.51802e-05
-7.05952e-11
3.51803e-05
-9.3021e-11
3.51803e-05
-1.07636e-10
3.51803e-05
-1.1541e-10
3.51803e-05
-1.11188e-10
3.51803e-05
-9.30707e-11
3.51804e-05
-9.65643e-11
3.51804e-05
2.54475e-11
-2.57873e-10
3.95593e-05
-5.07685e-10
3.95593e-05
-1.26433e-10
3.95593e-05
1.67383e-10
3.95592e-05
3.86306e-10
3.95591e-05
5.42197e-10
3.9559e-05
6.38186e-10
3.95589e-05
6.85322e-10
3.95588e-05
6.92212e-10
3.95587e-05
6.68754e-10
3.95586e-05
6.24274e-10
3.95585e-05
5.66395e-10
3.95584e-05
5.00737e-10
3.95584e-05
4.31179e-10
3.95583e-05
3.6041e-10
3.95583e-05
2.90335e-10
3.95582e-05
2.22307e-10
3.95582e-05
1.57247e-10
3.95582e-05
9.57648e-11
3.95582e-05
3.82755e-11
3.95582e-05
-1.49171e-11
3.95582e-05
-6.35675e-11
3.95582e-05
-1.07525e-10
3.95582e-05
-1.46803e-10
3.95582e-05
-1.81599e-10
3.95583e-05
-2.12257e-10
3.95583e-05
-2.39199e-10
3.95584e-05
-2.62843e-10
3.95584e-05
-2.83549e-10
3.95585e-05
-3.01614e-10
3.95585e-05
-3.17298e-10
3.95586e-05
-3.30855e-10
3.95586e-05
-3.42549e-10
3.95587e-05
-3.52634e-10
3.95588e-05
-3.61336e-10
3.95588e-05
-3.68769e-10
3.95589e-05
-3.74979e-10
3.95589e-05
-3.79749e-10
3.9559e-05
-3.82902e-10
3.95591e-05
-3.83595e-10
3.95592e-05
-3.81385e-10
3.95592e-05
-3.74519e-10
3.95593e-05
-3.60703e-10
3.95593e-05
-3.41563e-10
3.95594e-05
-3.00906e-10
3.95595e-05
-2.67516e-10
3.95595e-05
-1.93482e-10
3.95595e-05
-9.85878e-11
3.95596e-05
-4.45218e-11
3.95596e-05
-1.95283e-11
3.95596e-05
-2.60361e-11
3.95596e-05
-3.35893e-11
3.95596e-05
-4.76256e-11
3.95596e-05
-6.3234e-11
3.95596e-05
-7.65965e-11
3.95596e-05
-8.47046e-11
3.95596e-05
-8.5258e-11
3.95596e-05
-7.72425e-11
3.95597e-05
-6.09027e-11
3.95597e-05
-3.75794e-11
3.95597e-05
-9.31188e-12
3.95596e-05
2.16392e-11
3.95596e-05
5.31974e-11
3.95596e-05
8.37307e-11
3.95596e-05
1.12096e-10
3.95596e-05
1.37542e-10
3.95595e-05
1.59565e-10
3.95595e-05
1.77818e-10
3.95595e-05
1.92072e-10
3.95594e-05
2.02262e-10
3.95594e-05
2.08521e-10
3.95594e-05
2.11197e-10
3.95593e-05
2.10786e-10
3.95593e-05
2.07839e-10
3.95592e-05
2.02853e-10
3.95592e-05
1.96214e-10
3.95592e-05
1.88191e-10
3.95591e-05
1.78979e-10
3.95591e-05
1.68755e-10
3.95591e-05
1.57693e-10
3.95591e-05
1.45992e-10
3.9559e-05
1.33765e-10
3.9559e-05
1.21184e-10
3.9559e-05
1.08001e-10
3.9559e-05
9.44792e-11
3.9559e-05
7.95884e-11
3.9559e-05
6.39787e-11
3.95589e-05
4.7162e-11
3.95589e-05
3.48552e-11
3.95589e-05
2.7557e-11
3.95589e-05
2.3617e-11
3.95589e-05
2.27819e-11
3.95589e-05
1.89897e-11
3.95589e-05
1.27526e-11
3.95589e-05
3.82239e-12
3.95589e-05
-8.03611e-12
3.95589e-05
-2.2805e-11
3.95589e-05
-4.0529e-11
3.95589e-05
-6.04476e-11
3.95589e-05
-8.19195e-11
3.9559e-05
-1.02818e-10
3.9559e-05
-1.20106e-10
3.9559e-05
-1.3451e-10
3.9559e-05
-1.29658e-10
3.95591e-05
-1.30339e-10
3.95591e-05
-9.51433e-11
3.95591e-05
-2.37446e-11
3.95591e-05
1.05565e-11
3.95591e-05
1.87893e-11
3.95591e-05
5.16389e-12
3.95591e-05
-2.14255e-11
3.95591e-05
-5.265e-11
3.95592e-05
-8.27572e-11
3.95592e-05
-1.0843e-10
3.95592e-05
-1.25487e-10
3.95592e-05
-1.34842e-10
3.95592e-05
-1.3037e-10
3.95592e-05
-1.10771e-10
3.95593e-05
-1.11643e-10
3.95593e-05
2.12141e-11
-2.76596e-10
4.36472e-05
-5.06692e-10
4.36472e-05
-1.0958e-10
4.36472e-05
2.08378e-10
4.36471e-05
4.52945e-10
4.3647e-05
6.26644e-10
4.36469e-05
7.32883e-10
4.36468e-05
7.8415e-10
4.36467e-05
7.90819e-10
4.36467e-05
7.64063e-10
4.36466e-05
7.14041e-10
4.36465e-05
6.48978e-10
4.36464e-05
5.74963e-10
4.36463e-05
4.96274e-10
4.36463e-05
4.15938e-10
4.36462e-05
3.36139e-10
4.36462e-05
2.58436e-10
4.36462e-05
1.83896e-10
4.36462e-05
1.13239e-10
4.36462e-05
4.69694e-11
4.36462e-05
-1.45279e-11
4.36462e-05
-7.09421e-11
4.36462e-05
-1.22082e-10
4.36462e-05
-1.6794e-10
4.36462e-05
-2.08722e-10
4.36463e-05
-2.44804e-10
4.36463e-05
-2.76648e-10
4.36463e-05
-3.04712e-10
4.36464e-05
-3.29391e-10
4.36464e-05
-3.51013e-10
4.36465e-05
-3.69863e-10
4.36465e-05
-3.8623e-10
4.36466e-05
-4.00416e-10
4.36467e-05
-4.12715e-10
4.36467e-05
-4.23384e-10
4.36468e-05
-4.32559e-10
4.36468e-05
-4.40296e-10
4.36469e-05
-4.46359e-10
4.3647e-05
-4.50557e-10
4.3647e-05
-4.51949e-10
4.36471e-05
-4.5003e-10
4.36472e-05
-4.42817e-10
4.36473e-05
-4.27753e-10
4.36473e-05
-4.06449e-10
4.36474e-05
-3.6108e-10
4.36474e-05
-3.23078e-10
4.36475e-05
-2.39493e-10
4.36475e-05
-1.31589e-10
4.36475e-05
-6.74615e-11
4.36475e-05
-3.55873e-11
4.36476e-05
-3.92893e-11
4.36476e-05
-4.51297e-11
4.36476e-05
-5.87241e-11
4.36476e-05
-7.43244e-11
4.36476e-05
-8.75072e-11
4.36476e-05
-9.47519e-11
4.36476e-05
-9.34841e-11
4.36476e-05
-8.26488e-11
4.36476e-05
-6.26411e-11
4.36476e-05
-3.5071e-11
4.36476e-05
-2.2815e-12
4.36476e-05
3.31926e-11
4.36476e-05
6.90729e-11
4.36476e-05
1.03604e-10
4.36476e-05
1.35575e-10
4.36475e-05
1.64204e-10
4.36475e-05
1.88964e-10
4.36475e-05
2.09482e-10
4.36474e-05
2.25508e-10
4.36474e-05
2.36961e-10
4.36474e-05
2.43988e-10
4.36473e-05
2.46974e-10
4.36473e-05
2.46475e-10
4.36473e-05
2.43104e-10
4.36472e-05
2.37417e-10
4.36472e-05
2.29841e-10
4.36472e-05
2.20674e-10
4.36471e-05
2.10134e-10
4.36471e-05
1.98418e-10
4.36471e-05
1.85728e-10
4.3647e-05
1.72289e-10
4.3647e-05
1.58235e-10
4.3647e-05
1.43756e-10
4.3647e-05
1.28584e-10
4.3647e-05
1.13002e-10
4.36469e-05
9.58684e-11
4.36469e-05
7.78645e-11
4.36469e-05
5.84497e-11
4.36469e-05
4.39623e-11
4.36469e-05
3.50699e-11
4.36469e-05
3.00407e-11
4.36469e-05
2.85484e-11
4.36469e-05
2.37982e-11
4.36469e-05
1.61478e-11
4.36469e-05
5.18245e-12
4.36469e-05
-9.39822e-12
4.36469e-05
-2.75511e-11
4.36469e-05
-4.9235e-11
4.36469e-05
-7.34887e-11
4.36469e-05
-9.94758e-11
4.36469e-05
-1.24715e-10
4.3647e-05
-1.45774e-10
4.3647e-05
-1.63249e-10
4.3647e-05
-1.59092e-10
4.36471e-05
-1.60394e-10
4.36471e-05
-1.21311e-10
4.36471e-05
-4.095e-11
4.36471e-05
1.15426e-14
4.36471e-05
1.23785e-11
4.36471e-05
1.71756e-14
4.36471e-05
-2.74432e-11
4.36471e-05
-6.08653e-11
4.36471e-05
-9.37338e-11
4.36472e-05
-1.22205e-10
4.36472e-05
-1.4146e-10
4.36472e-05
-1.52376e-10
4.36472e-05
-1.47757e-10
4.36472e-05
-1.2726e-10
4.36472e-05
-1.24599e-10
4.36472e-05
1.4727e-11
-2.81099e-10
4.74945e-05
-4.7836e-10
4.74945e-05
-7.35899e-11
4.74944e-05
2.57244e-10
4.74944e-05
5.18883e-10
4.74943e-05
7.05517e-10
4.74942e-05
8.19461e-10
4.74941e-05
8.73647e-10
4.7494e-05
8.79751e-10
4.74939e-05
8.49982e-10