/*--------------------------------*- C++ -*----------------------------------*\
  =========                 |
  \\      /  F ield         | OpenFOAM: The Open Source CFD Toolbox
   \\    /   O peration     | Website:  https://openfoam.org
    \\  /    A nd           | Version:  7
     \\/     M anipulation  |
\*---------------------------------------------------------------------------*/
FoamFile
{
    version     2.0;
    format      ascii;
    class       volVectorField;
    location    "4000";
    object      U;
}
// * * * * * * * * * * * * * * * * * * * * * * * * * * * * * * * * * * * * * //

dimensions      [0 1 -1 0 0 0 0];

internalField   nonuniform List<vector> 
24000
(
(0.00397439 -2.46879e-10 1.27867e-16)
(0.0039744 2.13141e-10 1.22742e-16)
(0.00397439 -9.8633e-12 1.27307e-16)
(0.00397439 3.08319e-11 6.43026e-17)
(0.00397438 6.03905e-11 -1.82549e-16)
(0.00397436 8.22032e-11 6.53509e-17)
(0.00397434 1.00381e-10 -1.96491e-16)
(0.00397433 1.06938e-10 6.59532e-17)
(0.00397431 1.06528e-10 1.15504e-16)
(0.00397429 1.01143e-10 -1.65999e-16)
(0.00397427 9.29386e-11 8.21094e-17)
(0.00397426 8.31948e-11 8.4014e-17)
(0.00397424 7.25243e-11 8.54501e-17)
(0.00397423 6.12781e-11 6.00188e-17)
(0.00397422 4.98056e-11 4.42178e-17)
(0.00397422 3.84867e-11 7.52613e-17)
(0.00397421 2.76029e-11 6.12741e-17)
(0.00397421 1.73661e-11 6.39952e-17)
(0.0039742 7.84688e-12 4.16284e-17)
(0.0039742 -9.11797e-13 9.61593e-18)
(0.0039742 -8.89588e-12 8.61067e-17)
(0.00397421 -1.6085e-11 2.40131e-17)
(0.00397421 -2.24716e-11 3.86142e-17)
(0.00397421 -2.80714e-11 2.22902e-17)
(0.00397422 -3.29613e-11 -2.9802e-17)
(0.00397423 -3.72277e-11 6.14576e-17)
(0.00397423 -4.09601e-11 3.84634e-17)
(0.00397424 -4.42675e-11 5.27684e-17)
(0.00397425 -4.71851e-11 2.24629e-17)
(0.00397426 -4.97684e-11 -3.79017e-17)
(0.00397426 -5.20674e-11 4.09679e-17)
(0.00397427 -5.40741e-11 1.88595e-17)
(0.00397428 -5.58792e-11 3.46491e-17)
(0.00397429 -5.7463e-11 9.47388e-18)
(0.0039743 -5.89029e-11 -4.1278e-17)
(0.00397431 -5.99654e-11 3.94704e-17)
(0.00397432 -6.08514e-11 3.53548e-18)
(0.00397433 -6.06885e-11 2.74477e-17)
(0.00397434 -6.07593e-11 -3.6967e-18)
(0.00397435 -5.75814e-11 -4.08042e-17)
(0.00397436 -5.73872e-11 -5.53252e-18)
(0.00397437 -4.60385e-11 2.40656e-16)
(0.00397438 -4.88286e-11 4.17526e-17)
(0.00397439 -1.88147e-11 4.09116e-17)
(0.00397439 -2.58485e-11 5.55721e-17)
(0.0039744 9.78543e-12 6.77835e-17)
(0.0039744 4.99022e-11 3.18632e-16)
(0.00397439 3.33499e-11 8.17321e-17)
(0.00397439 3.48946e-11 7.17695e-17)
(0.00397439 1.05661e-11 8.13803e-17)
(0.00397439 1.10088e-11 8.83927e-17)
(0.00397439 -7.79202e-13 2.53068e-16)
(0.00397439 -8.55241e-12 9.76246e-17)
(0.00397439 -1.54648e-11 2.53128e-16)
(0.00397439 -2.0984e-11 3.92455e-17)
(0.00397439 -2.45175e-11 1.08031e-16)
(0.0039744 -2.60986e-11 3.45333e-16)
(0.0039744 -2.56333e-11 1.14898e-16)
(0.00397441 -2.33022e-11 2.953e-16)
(0.00397441 -1.94445e-11 4.69347e-17)
(0.00397441 -1.4511e-11 1.27468e-16)
(0.00397441 -8.96922e-12 3.63059e-16)
(0.00397441 -3.24456e-12 1.32329e-16)
(0.00397441 2.34307e-12 2.73065e-16)
(0.00397441 7.59116e-12 7.07639e-17)
(0.0039744 1.23301e-11 1.37626e-16)
(0.0039744 1.6473e-11 3.89095e-16)
(0.0039744 1.99148e-11 1.42188e-16)
(0.00397439 2.26222e-11 3.25544e-16)
(0.00397439 2.45551e-11 9.95748e-17)
(0.00397438 2.57734e-11 1.42837e-16)
(0.00397438 2.63441e-11 3.90016e-16)
(0.00397437 2.63682e-11 1.49723e-16)
(0.00397437 2.59666e-11 3.76248e-16)
(0.00397436 2.51892e-11 1.3635e-16)
(0.00397436 2.41038e-11 1.73655e-16)
(0.00397435 2.27087e-11 2.991e-16)
(0.00397435 2.10969e-11 1.63029e-16)
(0.00397435 1.91527e-11 3.47956e-16)
(0.00397434 1.71617e-11 6.0915e-17)
(0.00397434 1.47518e-11 -1.7301e-16)
(0.00397434 1.26303e-11 9.98381e-17)
(0.00397433 9.61791e-12 1.48516e-16)
(0.00397433 7.4517e-12 -1.21918e-16)
(0.00397433 3.39592e-12 3.33624e-17)
(0.00397433 7.27091e-13 -6.69921e-17)
(0.00397433 -4.20711e-12 7.13779e-17)
(0.00397433 -4.6228e-12 1.44322e-16)
(0.00397433 -3.40797e-12 -8.12795e-17)
(0.00397433 -3.52953e-12 1.34473e-17)
(0.00397433 -6.918e-13 -6.51359e-17)
(0.00397433 -3.06711e-12 6.90406e-17)
(0.00397433 -4.21394e-12 1.4024e-16)
(0.00397433 -5.98666e-12 -1.00249e-16)
(0.00397433 -7.74754e-12 5.41744e-17)
(0.00397433 -9.63295e-12 -1.83235e-16)
(0.00397433 -1.11734e-11 1.78573e-17)
(0.00397433 -1.34737e-11 1.28348e-16)
(0.00397434 -1.37509e-11 -2.21218e-16)
(0.00397434 -1.71319e-11 1.18801e-17)
(0.00397434 -1.15919e-11 -1.06155e-16)
(0.00397434 -1.8177e-11 2.82659e-17)
(0.00397435 2.36948e-12 1.27098e-16)
(0.00397435 -5.34081e-12 -6.94156e-17)
(0.00397435 1.53009e-11 4.14262e-17)
(0.00397435 6.07689e-11 -6.1959e-17)
(0.00397434 4.2325e-11 4.74503e-17)
(0.00397434 3.7009e-11 1.2565e-16)
(0.00397433 2.22192e-11 -1.51548e-16)
(0.00397433 6.63668e-12 4.88741e-17)
(0.00397433 -4.88645e-12 -9.77581e-17)
(0.00397433 -1.79897e-11 -1.42072e-16)
(0.00397434 -2.14484e-11 1.17652e-16)
(0.00397434 -3.41834e-11 -1.52436e-16)
(0.00397435 -1.96511e-11 5.42943e-17)
(0.00397435 -4.75897e-11 -5.67404e-17)
(0.00397435 2.04839e-11 -1.05835e-16)
(0.00397436 -8.81467e-11 1.19428e-16)
(0.00397436 1.19121e-10 -1.11533e-16)
(0.00397436 -1.92774e-10 5.21083e-17)
(0.0119965 -2.54481e-09 3.87854e-16)
(0.0119965 5.23936e-10 3.69684e-16)
(0.0119965 4.2473e-10 3.85392e-16)
(0.0119965 6.74167e-10 1.84673e-16)
(0.0119965 1.24342e-09 -2.0592e-16)
(0.0119964 1.6207e-09 2.07504e-16)
(0.0119964 1.8697e-09 -2.05633e-16)
(0.0119963 1.95913e-09 2.10025e-16)
(0.0119963 1.92877e-09 3.48013e-16)
(0.0119962 1.81841e-09 -1.32696e-16)
(0.0119961 1.65935e-09 2.59412e-16)
(0.0119961 1.47356e-09 2.52977e-16)
(0.0119961 1.274e-09 2.59067e-16)
(0.011996 1.06874e-09 1.80801e-16)
(0.011996 8.63769e-10 1.36141e-16)
(0.011996 6.63947e-10 2.26715e-16)
(0.011996 4.72888e-10 1.83914e-16)
(0.011996 2.93007e-10 1.93444e-16)
(0.0119959 1.25679e-10 1.25396e-16)
(0.0119959 -2.83734e-11 2.15175e-17)
(0.011996 -1.68551e-10 2.63735e-16)
(0.011996 -2.94346e-10 7.56747e-17)
(0.011996 -4.05883e-10 1.18751e-16)
(0.011996 -5.03796e-10 7.19916e-17)
(0.011996 -5.89364e-10 -8.13881e-17)
(0.011996 -6.63944e-10 1.83242e-16)
(0.011996 -7.29064e-10 1.11076e-16)
(0.0119961 -7.8593e-10 1.59602e-16)
(0.0119961 -8.35569e-10 6.82973e-17)
(0.0119961 -8.78774e-10 -1.04814e-16)
(0.0119961 -9.1636e-10 1.2982e-16)
(0.0119962 -9.49014e-10 5.77889e-17)
(0.0119962 -9.77534e-10 1.04374e-16)
(0.0119962 -1.00233e-09 2.7688e-17)
(0.0119962 -1.02339e-09 -1.2817e-16)
(0.0119963 -1.04014e-09 1.26232e-16)
(0.0119963 -1.05137e-09 5.14581e-18)
(0.0119963 -1.05538e-09 8.07484e-17)
(0.0119964 -1.05002e-09 -1.90684e-17)
(0.0119964 -1.02969e-09 -1.27607e-16)
(0.0119964 -9.96405e-10 -1.37198e-17)
(0.0119964 -9.16073e-10 1.26952e-16)
(0.0119965 -8.5164e-10 1.20914e-16)
(0.0119965 -6.17496e-10 1.24799e-16)
(0.0119965 -5.40822e-10 1.67602e-16)
(0.0119965 -1.70353e-10 2.05518e-16)
(0.0119965 2.72492e-10 3.01318e-16)
(0.0119965 3.18886e-10 2.40851e-16)
(0.0119965 2.99142e-10 2.17034e-16)
(0.0119965 1.28411e-10 2.45065e-16)
(0.0119965 5.72608e-11 2.68137e-16)
(0.0119965 -5.07648e-11 3.4794e-16)
(0.0119965 -1.56189e-10 2.90171e-16)
(0.0119965 -2.43258e-10 3.67201e-16)
(0.0119965 -3.10582e-10 5.53838e-17)
(0.0119965 -3.49796e-10 3.26785e-16)
(0.0119965 -3.58438e-10 4.14524e-16)
(0.0119966 -3.36188e-10 3.40256e-16)
(0.0119966 -2.86154e-10 4.43833e-16)
(0.0119966 -2.1412e-10 2.99081e-16)
(0.0119966 -1.27167e-10 3.9076e-16)
(0.0119966 -3.25976e-11 4.58845e-16)
(0.0119966 6.33319e-11 3.9239e-16)
(0.0119966 1.559e-10 4.57615e-16)
(0.0119966 2.41577e-10 2.90989e-16)
(0.0119966 3.1798e-10 4.1913e-16)
(0.0119965 3.8327e-10 5.11807e-16)
(0.0119965 4.36181e-10 4.24363e-16)
(0.0119965 4.76276e-10 5.23169e-16)
(0.0119965 5.03625e-10 1.97279e-16)
(0.0119965 5.19182e-10 4.39031e-16)
(0.0119965 5.24458e-10 5.3131e-16)
(0.0119965 5.21116e-10 4.46158e-16)
(0.0119964 5.10758e-10 5.28221e-16)
(0.0119964 4.94549e-10 2.53898e-16)
(0.0119964 4.73334e-10 5.25702e-16)
(0.0119964 4.47644e-10 5.4403e-16)
(0.0119964 4.18156e-10 4.88836e-16)
(0.0119964 3.8529e-10 6.00094e-16)
(0.0119964 3.50167e-10 2.10072e-16)
(0.0119964 3.12363e-10 2.2569e-16)
(0.0119963 2.74004e-10 1.54344e-16)
(0.0119963 2.3132e-10 4.51336e-16)
(0.0119963 1.8945e-10 2.21213e-16)
(0.0119963 1.37474e-10 9.68124e-17)
(0.0119963 8.66428e-11 2.01087e-16)
(0.0119963 2.59047e-11 2.91549e-16)
(0.0119963 -4.61626e-13 4.37474e-16)
(0.0119963 -3.44135e-12 1.87123e-16)
(0.0119963 -2.71901e-12 3.63853e-17)
(0.0119963 1.35035e-11 1.63501e-16)
(0.0119963 -1.63077e-12 2.99141e-16)
(0.0119963 -2.2237e-11 4.2552e-16)
(0.0119963 -4.75788e-11 1.47503e-16)
(0.0119963 -7.78495e-11 2.42696e-16)
(0.0119963 -1.11257e-10 1.25522e-16)
(0.0119963 -1.48545e-10 2.02488e-16)
(0.0119963 -1.88683e-10 3.88652e-16)
(0.0119963 -2.27841e-10 1.66335e-16)
(0.0119963 -2.66634e-10 -2.00641e-17)
(0.0119963 -2.72785e-10 1.09693e-16)
(0.0119964 -3.00197e-10 2.39654e-16)
(0.0119964 -1.79221e-10 3.86742e-16)
(0.0119964 -1.88105e-10 1.65079e-16)
(0.0119964 3.43606e-11 3.97234e-17)
(0.0119964 4.54064e-10 1.72485e-16)
(0.0119964 4.59796e-10 1.80188e-16)
(0.0119963 3.83734e-10 3.81371e-16)
(0.0119963 2.36415e-10 1.62908e-16)
(0.0119963 5.46552e-11 1.56291e-16)
(0.0119963 -1.12647e-10 1.22307e-16)
(0.0119963 -2.61133e-10 1.25666e-16)
(0.0119964 -3.68157e-10 3.59505e-16)
(0.0119964 -4.45585e-10 1.78398e-16)
(0.0119964 -4.52987e-10 2.36355e-16)
(0.0119964 -4.69245e-10 2.06196e-16)
(0.0119964 -2.44549e-10 1.17254e-16)
(0.0119964 -5.42418e-10 3.67772e-16)
(0.0119964 5.55232e-10 2.22981e-16)
(0.0119964 -1.68816e-09 1.91794e-16)
(0.0201817 -6.78702e-09 6.69271e-16)
(0.0201818 1.92812e-10 6.14904e-16)
(0.0201818 1.23293e-09 6.48757e-16)
(0.0201818 2.23702e-09 2.59786e-16)
(0.0201817 3.83993e-09 1.06027e-16)
(0.0201816 4.94814e-09 3.93973e-16)
(0.0201815 5.63391e-09 1.38323e-16)
(0.0201815 5.86824e-09 4.07235e-16)
(0.0201814 5.75694e-09 5.80517e-16)
(0.0201813 5.41428e-09 2.48233e-16)
(0.0201812 4.93024e-09 4.88502e-16)
(0.0201811 4.36877e-09 4.18373e-16)
(0.020181 3.76888e-09 4.3763e-16)
(0.020181 3.15512e-09 2.97384e-16)
(0.0201809 2.54495e-09 2.34716e-16)
(0.0201809 1.95195e-09 3.85956e-16)
(0.0201809 1.38584e-09 3.02256e-16)
(0.0201809 8.5317e-10 3.26172e-16)
(0.0201809 3.57774e-10 2.04437e-16)
(0.0201809 -9.8266e-11 1.2256e-17)
(0.0201809 -5.13075e-10 4.70461e-16)
(0.0201809 -8.8512e-10 1.25807e-16)
(0.0201809 -1.21487e-09 2.10557e-16)
(0.0201809 -1.50434e-09 1.29193e-16)
(0.0201809 -1.75709e-09 -1.18737e-16)
(0.020181 -1.97739e-09 3.15725e-16)
(0.020181 -2.16943e-09 1.56626e-16)
(0.020181 -2.33682e-09 2.71143e-16)
(0.0201811 -2.48251e-09 9.35201e-17)
(0.0201811 -2.60884e-09 -1.60128e-16)
(0.0201812 -2.71817e-09 2.447e-16)
(0.0201812 -2.81279e-09 1.00367e-16)
(0.0201813 -2.89492e-09 1.78456e-16)
(0.0201813 -2.96605e-09 4.2173e-17)
(0.0201813 -3.02614e-09 -2.39122e-16)
(0.0201814 -3.07439e-09 2.38063e-16)
(0.0201814 -3.10684e-09 -1.37093e-17)
(0.0201815 -3.12091e-09 1.35807e-16)
(0.0201815 -3.10689e-09 -6.10912e-17)
(0.0201816 -3.05775e-09 -2.22149e-16)
(0.0201816 -2.96183e-09 -6.31587e-18)
(0.0201817 -2.76243e-09 6.21722e-17)
(0.0201817 -2.55943e-09 1.99618e-16)
(0.0201818 -1.97771e-09 2.12949e-16)
(0.0201818 -1.7024e-09 2.84979e-16)
(0.0201818 -7.41718e-10 3.4878e-16)
(0.0201818 4.32352e-10 3.12599e-16)
(0.0201818 6.99234e-10 4.00158e-16)
(0.0201818 6.84519e-10 3.63921e-16)
(0.0201818 2.93458e-10 4.12837e-16)
(0.0201818 8.5704e-11 4.5406e-16)
(0.0201818 -1.90642e-10 4.19905e-16)
(0.0201818 -4.69322e-10 4.85365e-16)
(0.0201818 -7.02654e-10 4.5758e-16)
(0.0201818 -8.79575e-10 6.10399e-16)
(0.0201819 -9.77703e-10 5.7243e-16)
(0.0201819 -9.88435e-10 5.05824e-16)
(0.0201819 -9.11164e-10 5.62058e-16)
(0.0201819 -7.55011e-10 5.53178e-16)
(0.0201819 -5.37009e-10 9.03843e-16)
(0.0201819 -2.77969e-10 6.90383e-16)
(0.0201819 1.12691e-12 5.84338e-16)
(0.0201819 2.82377e-10 6.50621e-16)
(0.0201819 5.52183e-10 6.31099e-16)
(0.0201819 8.00754e-10 1.14306e-15)
(0.0201819 1.02111e-09 7.31267e-16)
(0.0201818 1.20824e-09 6.61559e-16)
(0.0201818 1.35886e-09 7.10107e-16)
(0.0201818 1.47154e-09 6.74159e-16)
(0.0201818 1.54706e-09 8.56146e-16)
(0.0201818 1.58828e-09 7.68996e-16)
(0.0201817 1.59972e-09 6.9716e-16)
(0.0201817 1.58637e-09 7.42685e-16)
(0.0201817 1.55285e-09 7.26905e-16)
(0.0201816 1.50266e-09 9.62609e-16)
(0.0201816 1.43821e-09 8.9449e-16)
(0.0201816 1.36131e-09 7.78772e-16)
(0.0201816 1.27365e-09 8.19201e-16)
(0.0201816 1.17682e-09 8.01054e-16)
(0.0201815 1.07341e-09 8.95717e-16)
(0.0201815 9.63521e-10 6.59302e-16)
(0.0201815 8.50842e-10 1.02425e-15)
(0.0201815 7.28615e-10 7.69861e-16)
(0.0201815 6.05853e-10 5.03626e-16)
(0.0201815 4.60183e-10 8.80602e-16)
(0.0201815 3.12727e-10 5.11119e-16)
(0.0201815 1.44148e-10 7.57747e-16)
(0.0201815 5.72746e-11 7.51752e-16)
(0.0201815 3.4733e-11 4.76291e-16)
(0.0201815 3.19258e-11 6.31511e-16)
(0.0201815 6.56325e-11 4.30778e-16)
(0.0201815 2.98173e-11 7.34535e-16)
(0.0201815 -2.76277e-11 7.30372e-16)
(0.0201815 -1.00236e-10 4.24951e-16)
(0.0201815 -1.8889e-10 6.59239e-16)
(0.0201815 -2.89542e-10 4.27392e-16)
(0.0201815 -4.05067e-10 8.05145e-16)
(0.0201815 -5.29752e-10 6.82794e-16)
(0.0201815 -6.59362e-10 4.32108e-16)
(0.0201815 -7.80798e-10 5.87669e-16)
(0.0201815 -8.36095e-10 3.78739e-16)
(0.0201815 -9.10487e-10 8.07853e-16)
(0.0201815 -6.5059e-10 6.77116e-16)
(0.0201815 -6.46861e-10 4.03906e-16)
(0.0201816 -8.55436e-11 8.16354e-16)
(0.0201816 9.72945e-10 4.31457e-16)
(0.0201815 1.11054e-09 6.56724e-16)
(0.0201815 9.45299e-10 6.59557e-16)
(0.0201815 5.75524e-10 4.23418e-16)
(0.0201815 1.02064e-10 6.21573e-16)
(0.0201815 -3.53667e-10 3.74254e-16)
(0.0201815 -7.54092e-10 3.2988e-16)
(0.0201815 -1.06254e-09 6.22645e-16)
(0.0201816 -1.25984e-09 4.62406e-16)
(0.0201816 -1.32755e-09 8.96631e-16)
(0.0201816 -1.298e-09 4.94088e-16)
(0.0201816 -8.57949e-10 3.72882e-16)
(0.0201816 -1.34347e-09 6.39873e-16)
(0.0201816 1.11123e-09 4.87803e-16)
(0.0201816 -4.15261e-09 9.86276e-16)
(0.0284982 -1.27852e-08 9.32648e-16)
(0.0284983 -1.16108e-09 8.51925e-16)
(0.0284983 2.36941e-09 9.13874e-16)
(0.0284982 4.94948e-09 3.69936e-16)
(0.0284982 8.07732e-09 4.18146e-16)
(0.028498 1.02558e-08 6.34963e-16)
(0.0284979 1.15446e-08 5.08632e-16)
(0.0284978 1.19528e-08 6.63832e-16)
(0.0284977 1.16845e-08 8.22477e-16)
(0.0284975 1.09617e-08 6.27744e-16)
(0.0284974 9.96119e-09 7.72193e-16)
(0.0284973 8.80896e-09 5.70684e-16)
(0.0284972 7.58379e-09 6.23482e-16)
(0.0284972 6.33565e-09 3.94336e-16)
(0.0284971 5.09939e-09 1.80413e-16)
(0.028497 3.90081e-09 7.28027e-16)
(0.028497 2.75841e-09 4.02778e-16)
(0.028497 1.68426e-09 4.63853e-16)
(0.028497 6.85686e-10 2.6298e-16)
(0.028497 -2.33336e-10 -4.71265e-17)
(0.028497 -1.06889e-09 7.63826e-16)
(0.028497 -1.81801e-09 -1.39146e-16)
(0.028497 -2.48158e-09 3.3428e-16)
(0.0284971 -3.06407e-09 2.44676e-17)
(0.0284971 -3.57253e-09 -2.99456e-16)
(0.0284971 -4.01535e-09 6.48656e-16)
(0.0284972 -4.40101e-09 2.75577e-16)
(0.0284972 -4.73661e-09 3.95749e-16)
(0.0284973 -5.02796e-09 1.34107e-18)
(0.0284973 -5.27996e-09 -2.04964e-16)
(0.0284974 -5.49729e-09 5.41688e-16)
(0.0284975 -5.68465e-09 -1.25957e-17)
(0.0284975 -5.84644e-09 2.67635e-16)
(0.0284976 -5.98599e-09 -8.69688e-17)
(0.0284977 -6.1037e-09 -4.18239e-16)
(0.0284977 -6.19859e-09 5.27593e-16)
(0.0284978 -6.26325e-09 7.18616e-17)
(0.0284979 -6.29404e-09 2.06646e-16)
(0.0284979 -6.2702e-09 -1.16565e-17)
(0.028498 -6.18394e-09 -4.39874e-16)
(0.0284981 -6.00045e-09 4.5558e-17)
(0.0284981 -5.64308e-09 4.48097e-18)
(0.0284982 -5.23454e-09 3.01701e-16)
(0.0284982 -4.19851e-09 3.05705e-16)
(0.0284983 -3.60467e-09 4.15442e-16)
(0.0284983 -1.84917e-09 4.97525e-16)
(0.0284983 3.23796e-10 3.31723e-16)
(0.0284983 1.00283e-09 5.80235e-16)
(0.0284983 1.06001e-09 5.08567e-16)
(0.0284983 4.27272e-10 5.89255e-16)
(0.0284983 3.70972e-11 6.44544e-16)
(0.0284983 -4.59158e-10 5.00752e-16)
(0.0284983 -9.66171e-10 7.00273e-16)
(0.0284984 -1.39531e-09 5.54453e-16)
(0.0284984 -1.71457e-09 7.91072e-16)
(0.0284984 -1.88126e-09 7.76903e-16)
(0.0284984 -1.87652e-09 5.84149e-16)
(0.0284984 -1.69955e-09 7.96167e-16)
(0.0284984 -1.3692e-09 6.80813e-16)
(0.0284984 -9.19845e-10 1.02893e-15)
(0.0284984 -3.9321e-10 9.52226e-16)
(0.0284984 1.69148e-10 7.08807e-16)
(0.0284984 7.32092e-10 9.21893e-16)
(0.0284984 1.26922e-09 8.03763e-16)
(0.0284984 1.76157e-09 1.08113e-15)
(0.0284984 2.19573e-09 1.02301e-15)
(0.0284984 2.56229e-09 8.28034e-16)
(0.0284983 2.85518e-09 1.01781e-15)
(0.0284983 3.07191e-09 8.36062e-16)
(0.0284983 3.21443e-09 1.12345e-15)
(0.0284982 3.28884e-09 1.06365e-15)
(0.0284982 3.30428e-09 8.62332e-16)
(0.0284981 3.27093e-09 1.0534e-15)
(0.0284981 3.19799e-09 9.3732e-16)
(0.0284981 3.09263e-09 1.18909e-15)
(0.028498 2.95967e-09 1.21687e-15)
(0.028498 2.80271e-09 1.00384e-15)
(0.028498 2.62523e-09 1.16723e-15)
(0.0284979 2.43043e-09 1.00416e-15)
(0.0284979 2.22292e-09 1.25889e-15)
(0.0284979 2.00379e-09 1.03123e-15)
(0.0284979 1.77854e-09 1.06927e-15)
(0.0284979 1.53737e-09 1.0572e-15)
(0.0284978 1.29265e-09 7.74269e-16)
(0.0284978 1.00967e-09 1.01961e-15)
(0.0284978 7.18613e-10 7.72596e-16)
(0.0284978 3.93743e-10 9.80357e-16)
(0.0284978 2.08317e-10 1.02785e-15)
(0.0284978 1.43712e-10 7.393e-16)
(0.0284978 1.27858e-10 8.88328e-16)
(0.0284978 1.76859e-10 6.75754e-16)
(0.0284978 1.13808e-10 9.43598e-16)
(0.0284978 3.88451e-12 9.8881e-16)
(0.0284978 -1.39323e-10 6.77042e-16)
(0.0284978 -3.17296e-10 8.14645e-16)
(0.0284978 -5.23986e-10 6.70448e-16)
(0.0284978 -7.65169e-10 9.20204e-16)
(0.0284978 -1.02829e-09 9.54428e-16)
(0.0284978 -1.30877e-09 6.74896e-16)
(0.0284978 -1.57033e-09 7.88309e-16)
(0.0284978 -1.72847e-09 6.20509e-16)
(0.0284979 -1.88538e-09 8.79803e-16)
(0.0284979 -1.48577e-09 9.31678e-16)
(0.0284979 -1.45766e-09 6.35091e-16)
(0.0284979 -4.63076e-10 8.74869e-16)
(0.0284979 1.4211e-09 6.5359e-16)
(0.0284979 1.82328e-09 8.54215e-16)
(0.0284979 1.59157e-09 9.26006e-16)
(0.0284979 9.47628e-10 6.55837e-16)
(0.0284979 9.2641e-11 7.63433e-16)
(0.0284979 -7.57144e-10 5.79408e-16)
(0.0284979 -1.50613e-09 5.44385e-16)
(0.0284979 -2.10042e-09 9.26845e-16)
(0.028498 -2.46561e-09 7.14734e-16)
(0.028498 -2.63136e-09 9.66839e-16)
(0.028498 -2.52088e-09 7.28205e-16)
(0.028498 -1.84515e-09 6.16524e-16)
(0.0284981 -2.44234e-09 9.54116e-16)
(0.0284981 1.64242e-09 7.38023e-16)
(0.0284981 -7.39742e-09 7.95952e-16)
(0.0368216 -2.03715e-08 1.19494e-15)
(0.0368217 -3.53783e-09 1.05049e-15)
(0.0368217 3.87134e-09 1.16501e-15)
(0.0368216 9.03684e-09 6.5782e-16)
(0.0368215 1.41332e-08 7.98046e-16)
(0.0368214 1.76297e-08 9.24088e-16)
(0.0368212 1.96155e-08 8.76829e-16)
(0.036821 2.01789e-08 9.64389e-16)
(0.0368209 1.96511e-08 9.26516e-16)
(0.0368207 1.83879e-08 9.88075e-16)
(0.0368206 1.66754e-08 1.0904e-15)
(0.0368205 1.47181e-08 6.80885e-16)
(0.0368204 1.26462e-08 8.25715e-16)
(0.0368203 1.05434e-08 4.39672e-16)
(0.0368202 8.4668e-09 4.76187e-16)
(0.0368201 6.45797e-09 7.77114e-16)
(0.0368201 4.54586e-09 4.5713e-16)
(0.0368201 2.74937e-09 6.14169e-16)
(0.03682 1.07994e-09 2.65953e-16)
(0.03682 -4.56078e-10 2.07517e-16)
(0.0368201 -1.85205e-09 8.54244e-16)
(0.0368201 -3.10335e-09 4.98801e-16)
(0.0368201 -4.21165e-09 5.33602e-16)
(0.0368201 -5.18433e-09 5.76108e-16)
(0.0368202 -6.03329e-09 2.2473e-16)
(0.0368202 -6.77239e-09 7.61148e-16)
(0.0368203 -7.41551e-09 6.44259e-16)
(0.0368204 -7.97443e-09 5.68064e-16)
(0.0368204 -8.45882e-09 4.99328e-16)
(0.0368205 -8.8769e-09 1.37733e-16)
(0.0368206 -9.23634e-09 6.43223e-16)
(0.0368206 -9.54515e-09 5.03253e-16)
(0.0368207 -9.81057e-09 3.88563e-16)
(0.0368208 -1.00387e-08 4.11087e-16)
(0.0368209 -1.02308e-08 5.17676e-17)
(0.036821 -1.03864e-08 6.39551e-16)
(0.0368211 -1.04944e-08 4.1056e-16)
(0.0368211 -1.05492e-08 3.35201e-16)
(0.0368212 -1.05177e-08 3.07424e-16)
(0.0368213 -1.03892e-08 4.45194e-17)
(0.0368214 -1.01024e-08 1.861e-16)
(0.0368215 -9.55787e-09 3.1659e-16)
(0.0368216 -8.89361e-09 4.76241e-16)
(0.0368216 -7.32907e-09 3.97804e-16)
(0.0368217 -6.31451e-09 5.73912e-16)
(0.0368217 -3.61674e-09 6.4657e-16)
(0.0368218 -2.4974e-10 6.84432e-16)
(0.0368218 1.03178e-09 8.22234e-16)
(0.0368218 1.27083e-09 6.44413e-16)
(0.0368218 4.27283e-10 7.86904e-16)
(0.0368218 -1.54838e-10 8.31374e-16)
(0.0368218 -8.95901e-10 9.32119e-16)
(0.0368218 -1.65804e-09 9.70038e-16)
(0.0368218 -2.30839e-09 9.8327e-16)
(0.0368218 -2.78164e-09 1.03671e-15)
(0.0368218 -3.00832e-09 9.57526e-16)
(0.0368219 -2.95555e-09 9.83715e-16)
(0.0368219 -2.62297e-09 1.07738e-15)
(0.0368219 -2.04295e-09 1.15778e-15)
(0.0368219 -1.27344e-09 1.29026e-15)
(0.0368219 -3.84029e-10 1.18334e-15)
(0.0368219 5.56821e-10 1.15081e-15)
(0.0368219 1.49199e-09 1.23872e-15)
(0.0368219 2.37893e-09 1.31821e-15)
(0.0368218 3.1875e-09 1.26709e-15)
(0.0368218 3.89658e-09 1.28479e-15)
(0.0368218 4.49163e-09 1.3463e-15)
(0.0368217 4.9635e-09 1.38074e-15)
(0.0368217 5.30875e-09 1.32369e-15)
(0.0368216 5.53118e-09 1.26577e-15)
(0.0368216 5.64125e-09 1.33651e-15)
(0.0368215 5.65448e-09 1.34624e-15)
(0.0368215 5.58786e-09 1.40964e-15)
(0.0368215 5.45692e-09 1.48931e-15)
(0.0368214 5.27358e-09 1.40623e-15)
(0.0368214 5.04607e-09 1.49571e-15)
(0.0368213 4.78039e-09 1.56423e-15)
(0.0368213 4.48211e-09 1.56299e-15)
(0.0368213 4.15667e-09 1.53641e-15)
(0.0368212 3.81099e-09 1.60726e-15)
(0.0368212 3.44768e-09 1.72713e-15)
(0.0368212 3.07412e-09 1.37625e-15)
(0.0368211 2.67747e-09 1.31447e-15)
(0.0368211 2.27315e-09 1.35873e-15)
(0.0368211 1.81363e-09 1.09677e-15)
(0.0368211 1.33735e-09 1.37258e-15)
(0.0368211 8.13674e-10 1.23315e-15)
(0.0368211 4.91709e-10 1.2803e-15)
(0.0368211 3.57651e-10 1.30608e-15)
(0.0368211 3.13389e-10 9.52521e-16)
(0.036821 3.69642e-10 1.26585e-15)
(0.036821 2.71947e-10 1.14677e-15)
(0.036821 9.63275e-11 1.2187e-15)
(0.036821 -1.39607e-10 1.24161e-15)
(0.036821 -4.37782e-10 1.04141e-15)
(0.036821 -7.91485e-10 1.22865e-15)
(0.036821 -1.20926e-09 1.04382e-15)
(0.0368211 -1.67063e-09 1.22e-15)
(0.0368211 -2.16816e-09 1.23329e-15)
(0.0368211 -2.63758e-09 1.07929e-15)
(0.0368211 -2.96246e-09 1.20434e-15)
(0.0368211 -3.25176e-09 9.56522e-16)
(0.0368212 -2.74132e-09 1.17047e-15)
(0.0368212 -2.69046e-09 1.18752e-15)
(0.0368212 -1.21516e-09 1.09846e-15)
(0.0368212 1.60363e-09 1.19459e-15)
(0.0368212 2.39584e-09 9.89617e-16)
(0.0368212 2.16227e-09 1.18859e-15)
(0.0368212 1.23936e-09 1.19923e-15)
(0.0368212 -3.98586e-11 1.03786e-15)
(0.0368212 -1.34788e-09 1.11885e-15)
(0.0368212 -2.51279e-09 1.1426e-15)
(0.0368213 -3.45113e-09 1.29884e-15)
(0.0368213 -4.02636e-09 1.27198e-15)
(0.0368213 -4.31027e-09 1.22835e-15)
(0.0368214 -4.1099e-09 1.2534e-15)
(0.0368214 -3.1713e-09 1.22277e-15)
(0.0368214 -3.8187e-09 1.33596e-15)
(0.0368214 2.09883e-09 1.2972e-15)
(0.0368214 -1.13513e-08 1.03929e-15)
(0.0448854 -2.91315e-08 1.52028e-15)
(0.0448856 -6.58049e-09 1.14217e-15)
(0.0448856 5.89019e-09 1.41141e-15)
(0.0448855 1.45471e-08 1.23872e-15)
(0.0448853 2.19479e-08 1.21605e-15)
(0.0448852 2.68886e-08 1.24598e-15)
(0.044885 2.95862e-08 1.23233e-15)
(0.0448848 3.02499e-08 1.28472e-15)
(0.0448846 2.93572e-08 1.3606e-15)
(0.0448844 2.7411e-08 1.3211e-15)
(0.0448843 2.48196e-08 1.40817e-15)
(0.0448841 2.18761e-08 1.04088e-15)
(0.044884 1.87708e-08 1.07222e-15)
(0.0448839 1.56267e-08 7.17529e-16)
(0.0448838 1.2528e-08 6.69512e-16)
(0.0448838 9.53446e-09 1.03044e-15)
(0.0448837 6.68725e-09 7.61342e-16)
(0.0448837 4.01302e-09 8.04277e-16)
(0.0448837 1.52797e-09 5.188e-16)
(0.0448837 -7.5836e-10 4.64741e-16)
(0.0448837 -2.83647e-09 7.6252e-16)
(0.0448837 -4.69978e-09 7.35085e-16)
(0.0448837 -6.35092e-09 7.73137e-16)
(0.0448838 -7.80072e-09 6.02998e-16)
(0.0448838 -9.06656e-09 5.49112e-16)
(0.0448839 -1.01688e-08 8.1244e-16)
(0.044884 -1.11278e-08 6.58872e-16)
(0.044884 -1.19608e-08 7.02679e-16)
(0.0448841 -1.26822e-08 5.11349e-16)
(0.0448842 -1.33041e-08 4.42569e-16)
(0.0448843 -1.38378e-08 6.66311e-16)
(0.0448844 -1.4295e-08 4.54159e-16)
(0.0448845 -1.46869e-08 4.8253e-16)
(0.0448846 -1.50227e-08 3.87352e-16)
(0.0448846 -1.53055e-08 3.90535e-16)
(0.0448847 -1.55355e-08 6.6218e-16)
(0.0448848 -1.56986e-08 4.26331e-16)
(0.0448849 -1.57863e-08 4.38757e-16)
(0.044885 -1.57531e-08 3.73728e-16)
(0.0448851 -1.55823e-08 3.45045e-16)
(0.0448852 -1.51858e-08 3.88365e-16)
(0.0448853 -1.44371e-08 7.38859e-16)
(0.0448854 -1.34853e-08 6.93552e-16)
(0.0448855 -1.13482e-08 6.84713e-16)
(0.0448856 -9.83763e-09 7.88929e-16)
(0.0448856 -6.1019e-09 7.98468e-16)
(0.0448857 -1.41148e-09 9.88057e-16)
(0.0448857 6.38527e-10 1.0768e-15)
(0.0448857 1.19076e-09 1.12739e-15)
(0.0448857 2.09824e-10 1.03808e-15)
(0.0448857 -5.37129e-10 1.01361e-15)
(0.0448857 -1.51817e-09 1.38699e-15)
(0.0448857 -2.53531e-09 1.25423e-15)
(0.0448857 -3.40773e-09 1.35389e-15)
(0.0448858 -4.02618e-09 1.31003e-15)
(0.0448858 -4.28832e-09 1.15484e-15)
(0.0448858 -4.14461e-09 1.47603e-15)
(0.0448858 -3.59586e-09 1.37123e-15)
(0.0448858 -2.69236e-09 1.54331e-15)
(0.0448859 -1.52103e-09 1.60772e-15)
(0.0448859 -1.85151e-10 1.39531e-15)
(0.0448858 1.21518e-09 1.67635e-15)
(0.0448858 2.59729e-09 1.56288e-15)
(0.0448858 3.9003e-09 1.88038e-15)
(0.0448858 5.08189e-09 1.78525e-15)
(0.0448857 6.11286e-09 1.52254e-15)
(0.0448857 6.97344e-09 1.86772e-15)
(0.0448856 7.65116e-09 1.75159e-15)
(0.0448856 8.14199e-09 1.92516e-15)
(0.0448855 8.45203e-09 1.77014e-15)
(0.0448855 8.5972e-09 1.60685e-15)
(0.0448854 8.60056e-09 1.76257e-15)
(0.0448854 8.48749e-09 1.7732e-15)
(0.0448853 8.28109e-09 1.94319e-15)
(0.0448853 7.99908e-09 1.91537e-15)
(0.0448852 7.65385e-09 1.78439e-15)
(0.0448852 7.25426e-09 1.97476e-15)
(0.0448851 6.80844e-09 1.96439e-15)
(0.0448851 6.32437e-09 2.02195e-15)
(0.044885 5.8115e-09 1.96002e-15)
(0.044885 5.2743e-09 2.33907e-15)
(0.044885 4.72219e-09 1.69031e-15)
(0.0448849 4.13932e-09 1.61651e-15)
(0.0448849 3.54397e-09 1.89768e-15)
(0.0448849 2.87545e-09 1.41784e-15)
(0.0448849 2.17993e-09 1.9306e-15)
(0.0448848 1.42268e-09 1.20989e-15)
(0.0448848 9.29947e-10 1.56663e-15)
(0.0448848 6.97781e-10 1.83956e-15)
(0.0448848 6.05865e-10 1.41681e-15)
(0.0448848 6.56895e-10 1.82273e-15)
(0.0448848 5.15727e-10 1.41749e-15)
(0.0448848 2.62219e-10 1.48755e-15)
(0.0448848 -8.70824e-11 1.79183e-15)
(0.0448848 -5.35782e-10 1.12342e-15)
(0.0448848 -1.07776e-09 1.96912e-15)
(0.0448848 -1.72383e-09 1.49804e-15)
(0.0448848 -2.44471e-09 1.51277e-15)
(0.0448848 -3.22621e-09 1.77073e-15)
(0.0448849 -3.97349e-09 1.34501e-15)
(0.0448849 -4.53207e-09 1.91913e-15)
(0.0448849 -5.00997e-09 1.22041e-15)
(0.044885 -4.43437e-09 1.4609e-15)
(0.044885 -4.37541e-09 1.72996e-15)
(0.044885 -2.40674e-09 1.3595e-15)
(0.044885 1.3966e-09 1.73379e-15)
(0.044885 2.68163e-09 1.26167e-15)
(0.044885 2.5338e-09 1.48279e-15)
(0.044885 1.36957e-09 1.70922e-15)
(0.044885 -3.31136e-10 1.3e-15)
(0.044885 -2.11922e-09 1.78559e-15)
(0.0448851 -3.73491e-09 1.72931e-15)
(0.0448851 -5.05023e-09 1.69228e-15)
(0.0448851 -5.86686e-09 1.77942e-15)
(0.0448852 -6.28e-09 1.33756e-15)
(0.0448852 -5.99556e-09 1.77487e-15)
(0.0448852 -4.7768e-09 1.80037e-15)
(0.0448853 -5.42148e-09 1.73887e-15)
(0.0448853 2.46224e-09 1.8002e-15)
(0.0448853 -1.58796e-08 1.31892e-15)
(0.0523589 -3.79644e-08 1.92094e-15)
(0.052359 -9.66125e-09 1.72626e-15)
(0.052359 8.46438e-09 1.72405e-15)
(0.0523589 2.11467e-08 1.64814e-15)
(0.0523588 3.10134e-08 1.59609e-15)
(0.0523586 3.74043e-08 1.57203e-15)
(0.0523584 4.07677e-08 1.5681e-15)
(0.0523582 4.1472e-08 1.60061e-15)
(0.052358 4.01468e-08 1.63744e-15)
(0.0523578 3.74393e-08 1.62436e-15)
(0.0523577 3.38795e-08 1.70661e-15)
(0.0523575 2.98504e-08 1.26834e-15)
(0.0523574 2.5605e-08 1.32652e-15)
(0.0523573 2.13093e-08 9.26534e-16)
(0.0523572 1.70775e-08 8.90097e-16)
(0.0523571 1.29899e-08 1.34512e-15)
(0.0523571 9.10103e-09 9.28415e-16)
(0.052357 5.44631e-09 9.99226e-16)
(0.052357 2.04772e-09 5.3083e-16)
(0.052357 -1.0809e-09 7.16576e-16)
(0.052357 -3.92684e-09 7.77909e-16)
(0.0523571 -6.48174e-09 9.32374e-16)
(0.0523571 -8.74867e-09 1.00009e-15)
(0.0523571 -1.07419e-08 5.66003e-16)
(0.0523572 -1.24845e-08 8.72085e-16)
(0.0523573 -1.40038e-08 9.32012e-16)
(0.0523573 -1.53269e-08 5.34139e-16)
(0.0523574 -1.64771e-08 8.12496e-16)
(0.0523575 -1.74736e-08 4.32317e-16)
(0.0523576 -1.83328e-08 7.8032e-16)
(0.0523577 -1.90701e-08 7.73962e-16)
(0.0523578 -1.97015e-08 3.20243e-16)
(0.0523579 -2.0242e-08 5.80933e-16)
(0.052358 -2.07046e-08 4.33521e-16)
(0.0523581 -2.1095e-08 6.8318e-16)
(0.0523582 -2.14143e-08 7.57059e-16)
(0.0523583 -2.16459e-08 4.27966e-16)
(0.0523584 -2.17782e-08 5.30351e-16)
(0.0523585 -2.17535e-08 2.66541e-16)
(0.0523586 -2.15474e-08 6.29708e-16)
(0.0523587 -2.10455e-08 6.12309e-16)
(0.0523588 -2.00916e-08 9.4541e-16)
(0.0523589 -1.88423e-08 9.06134e-16)
(0.052359 -1.61213e-08 9.60011e-16)
(0.0523591 -1.40757e-08 9.70278e-16)
(0.0523591 -9.26173e-09 9.58997e-16)
(0.0523592 -3.18525e-09 1.31486e-15)
(0.0523592 -2.4387e-10 1.30861e-15)
(0.0523592 7.49718e-10 1.28481e-15)
(0.0523592 -2.67416e-10 1.25407e-15)
(0.0523593 -1.12014e-09 1.20153e-15)
(0.0523593 -2.30632e-09 1.60091e-15)
(0.0523593 -3.55193e-09 1.47604e-15)
(0.0523593 -4.62359e-09 1.72797e-15)
(0.0523593 -5.36034e-09 1.64877e-15)
(0.0523593 -5.62267e-09 1.30983e-15)
(0.0523594 -5.34325e-09 1.70441e-15)
(0.0523594 -4.52586e-09 1.64213e-15)
(0.0523594 -3.2421e-09 1.95946e-15)
(0.0523594 -1.61172e-09 1.91596e-15)
(0.0523594 2.25193e-10 1.55885e-15)
(0.0523594 2.1347e-09 1.92576e-15)
(0.0523594 4.00735e-09 1.8553e-15)
(0.0523593 5.76362e-09 2.17068e-15)
(0.0523593 7.34924e-09 2.1174e-15)
(0.0523593 8.72751e-09 1.70801e-15)
(0.0523592 9.87341e-09 2.15914e-15)
(0.0523591 1.07714e-08 2.04492e-15)
(0.0523591 1.14169e-08 2.22415e-15)
(0.052359 1.18186e-08 2.16553e-15)
(0.052359 1.19982e-08 1.81441e-15)
(0.0523589 1.19871e-08 2.19122e-15)
(0.0523589 1.18196e-08 2.09892e-15)
(0.0523588 1.1527e-08 2.40703e-15)
(0.0523587 1.11335e-08 2.34087e-15)
(0.0523587 1.0656e-08 2.00402e-15)
(0.0523586 1.01066e-08 2.43944e-15)
(0.0523586 9.49611e-09 2.28931e-15)
(0.0523585 8.83529e-09 2.48519e-15)
(0.0523585 8.13641e-09 2.33574e-15)
(0.0523584 7.40581e-09 2.5747e-15)
(0.0523584 6.65518e-09 2.19482e-15)
(0.0523584 5.86584e-09 1.99481e-15)
(0.0523584 5.0585e-09 2.39009e-15)
(0.0523583 4.15983e-09 2.08859e-15)