/*--------------------------------*- C++ -*----------------------------------*\
  =========                 |
  \\      /  F ield         | OpenFOAM: The Open Source CFD Toolbox
   \\    /   O peration     | Website:  https://openfoam.org
    \\  /    A nd           | Version:  7
     \\/     M anipulation  |
\*---------------------------------------------------------------------------*/
FoamFile
{
    version     2.0;
    format      ascii;
    class       volScalarField;
    location    "1000";
    object      k;
}
// * * * * * * * * * * * * * * * * * * * * * * * * * * * * * * * * * * * * * //

dimensions      [0 2 -2 0 0 0 0];

internalField   nonuniform List<scalar> 
4000
(
5.98649e-05
5.98701e-05
5.98707e-05
5.98704e-05
5.987e-05
5.98695e-05
5.9869e-05
5.98685e-05
5.9868e-05
5.98676e-05
5.98671e-05
5.98666e-05
5.98661e-05
5.98656e-05
5.98651e-05
5.98646e-05
5.98641e-05
5.98635e-05
5.9863e-05
5.98624e-05
5.98619e-05
5.98613e-05
5.98607e-05
5.98601e-05
5.98595e-05
5.98589e-05
5.98583e-05
5.98577e-05
5.98571e-05
5.98564e-05
5.98558e-05
5.98552e-05
5.98545e-05
5.98538e-05
5.98532e-05
5.98525e-05
5.98518e-05
5.98511e-05
5.98504e-05
5.98497e-05
5.9849e-05
5.98482e-05
5.98475e-05
5.98467e-05
5.98463e-05
5.98523e-05
5.98561e-05
5.98574e-05
5.98575e-05
5.98571e-05
5.98566e-05
5.98559e-05
5.98552e-05
5.98545e-05
5.98538e-05
5.9853e-05
5.98523e-05
5.98515e-05
5.98507e-05
5.985e-05
5.98492e-05
5.98484e-05
5.98476e-05
5.98468e-05
5.9846e-05
5.98453e-05
5.98445e-05
5.98437e-05
5.98429e-05
5.98422e-05
5.98414e-05
5.98407e-05
5.98399e-05
5.98392e-05
5.98385e-05
5.98378e-05
5.98371e-05
5.98365e-05
5.98358e-05
5.98352e-05
5.98346e-05
5.9834e-05
5.98334e-05
5.98328e-05
5.98323e-05
5.98318e-05
5.98312e-05
5.98308e-05
5.98303e-05
5.98298e-05
5.98294e-05
5.9829e-05
5.98286e-05
5.98282e-05
5.98278e-05
5.98275e-05
5.98271e-05
5.98268e-05
5.98265e-05
5.98262e-05
5.98259e-05
5.98256e-05
5.98253e-05
5.98253e-05
5.98319e-05
5.98363e-05
5.98381e-05
5.98387e-05
5.98389e-05
5.98388e-05
5.98387e-05
5.98386e-05
5.98384e-05
5.98382e-05
5.9838e-05
5.98378e-05
5.98375e-05
5.98373e-05
5.98368e-05
5.98393e-05
5.98597e-05
5.98649e-05
5.98659e-05
5.98659e-05
5.98657e-05
5.98654e-05
5.98651e-05
5.98647e-05
5.98643e-05
5.98639e-05
5.98636e-05
5.98632e-05
5.98627e-05
5.98623e-05
5.98619e-05
5.98614e-05
5.9861e-05
5.98605e-05
5.986e-05
5.98595e-05
5.98591e-05
5.98585e-05
5.9858e-05
5.98575e-05
5.9857e-05
5.98564e-05
5.98559e-05
5.98553e-05
5.98547e-05
5.98541e-05
5.98535e-05
5.98529e-05
5.98523e-05
5.98517e-05
5.98511e-05
5.98505e-05
5.98498e-05
5.98492e-05
5.98485e-05
5.98479e-05
5.98472e-05
5.98465e-05
5.98458e-05
5.98451e-05
5.98444e-05
5.98457e-05
5.98477e-05
5.98492e-05
5.98501e-05
5.98504e-05
5.98504e-05
5.98502e-05
5.98499e-05
5.98495e-05
5.9849e-05
5.98484e-05
5.98479e-05
5.98473e-05
5.98467e-05
5.9846e-05
5.98454e-05
5.98447e-05
5.98441e-05
5.98434e-05
5.98427e-05
5.9842e-05
5.98413e-05
5.98406e-05
5.98399e-05
5.98392e-05
5.98385e-05
5.98379e-05
5.98372e-05
5.98365e-05
5.98359e-05
5.98352e-05
5.98346e-05
5.9834e-05
5.98334e-05
5.98328e-05
5.98322e-05
5.98316e-05
5.98311e-05
5.98305e-05
5.983e-05
5.98295e-05
5.9829e-05
5.98286e-05
5.98281e-05
5.98277e-05
5.98273e-05
5.98269e-05
5.98265e-05
5.98261e-05
5.98258e-05
5.98254e-05
5.98251e-05
5.98248e-05
5.98245e-05
5.98242e-05
5.98239e-05
5.98237e-05
5.98234e-05
5.98231e-05
5.98249e-05
5.98274e-05
5.98294e-05
5.98308e-05
5.98316e-05
5.98322e-05
5.98325e-05
5.98327e-05
5.98328e-05
5.98328e-05
5.98328e-05
5.98328e-05
5.98327e-05
5.98326e-05
5.98323e-05
5.98345e-05
5.98477e-05
5.98529e-05
5.98539e-05
5.98541e-05
5.98541e-05
5.98539e-05
5.98537e-05
5.98534e-05
5.98532e-05
5.98529e-05
5.98526e-05
5.98523e-05
5.98519e-05
5.98516e-05
5.98512e-05
5.98509e-05
5.98505e-05
5.98501e-05
5.98496e-05
5.98492e-05
5.98488e-05
5.98483e-05
5.98479e-05
5.98474e-05
5.98469e-05
5.98464e-05
5.98459e-05
5.98454e-05
5.98449e-05
5.98443e-05
5.98438e-05
5.98433e-05
5.98427e-05
5.98421e-05
5.98415e-05
5.9841e-05
5.98404e-05
5.98398e-05
5.98392e-05
5.98385e-05
5.98379e-05
5.98373e-05
5.98366e-05
5.9836e-05
5.98353e-05
5.98352e-05
5.98357e-05
5.98364e-05
5.98371e-05
5.98375e-05
5.98377e-05
5.98377e-05
5.98376e-05
5.98374e-05
5.98371e-05
5.98367e-05
5.98363e-05
5.98358e-05
5.98354e-05
5.98348e-05
5.98343e-05
5.98337e-05
5.98332e-05
5.98326e-05
5.9832e-05
5.98314e-05
5.98308e-05
5.98301e-05
5.98295e-05
5.98289e-05
5.98283e-05
5.98277e-05
5.9827e-05
5.98264e-05
5.98258e-05
5.98252e-05
5.98246e-05
5.98241e-05
5.98235e-05
5.98229e-05
5.98224e-05
5.98218e-05
5.98213e-05
5.98208e-05
5.98203e-05
5.98199e-05
5.98194e-05
5.9819e-05
5.98185e-05
5.98181e-05
5.98177e-05
5.98173e-05
5.9817e-05
5.98166e-05
5.98163e-05
5.9816e-05
5.98157e-05
5.98154e-05
5.98151e-05
5.98148e-05
5.98145e-05
5.98143e-05
5.9814e-05
5.98138e-05
5.98141e-05
5.98151e-05
5.98163e-05
5.98174e-05
5.98184e-05
5.98191e-05
5.98196e-05
5.982e-05
5.98202e-05
5.98204e-05
5.98206e-05
5.98207e-05
5.98207e-05
5.98207e-05
5.98206e-05
5.98228e-05
5.98278e-05
5.98329e-05
5.9834e-05
5.98342e-05
5.98343e-05
5.98342e-05
5.98341e-05
5.98339e-05
5.98338e-05
5.98336e-05
5.98333e-05
5.98331e-05
5.98328e-05
5.98325e-05
5.98322e-05
5.98319e-05
5.98316e-05
5.98313e-05
5.98309e-05
5.98305e-05
5.98301e-05
5.98298e-05
5.98293e-05
5.98289e-05
5.98285e-05
5.9828e-05
5.98276e-05
5.98271e-05
5.98267e-05
5.98262e-05
5.98257e-05
5.98252e-05
5.98247e-05
5.98241e-05
5.98236e-05
5.98231e-05
5.98225e-05
5.98219e-05
5.98214e-05
5.98208e-05
5.98202e-05
5.98196e-05
5.9819e-05
5.98184e-05
5.98178e-05
5.98173e-05
5.98171e-05
5.98172e-05
5.98174e-05
5.98176e-05
5.98177e-05
5.98177e-05
5.98177e-05
5.98175e-05
5.98173e-05
5.9817e-05
5.98167e-05
5.98164e-05
5.9816e-05
5.98155e-05
5.98151e-05
5.98146e-05
5.98141e-05
5.98136e-05
5.98131e-05
5.98125e-05
5.9812e-05
5.98114e-05
5.98108e-05
5.98103e-05
5.98097e-05
5.98091e-05
5.98086e-05
5.9808e-05
5.98075e-05
5.98069e-05
5.98063e-05
5.98058e-05
5.98053e-05
5.98048e-05
5.98042e-05
5.98037e-05
5.98032e-05
5.98028e-05
5.98023e-05
5.98019e-05
5.98014e-05
5.9801e-05
5.98006e-05
5.98002e-05
5.97998e-05
5.97995e-05
5.97991e-05
5.97988e-05
5.97985e-05
5.97982e-05
5.97979e-05
5.97976e-05
5.97973e-05
5.97971e-05
5.97968e-05
5.97966e-05
5.97964e-05
5.97961e-05
5.97961e-05
5.97964e-05
5.97969e-05
5.97975e-05
5.97982e-05
5.97988e-05
5.97993e-05
5.97997e-05
5.98e-05
5.98003e-05
5.98005e-05
5.98007e-05
5.98008e-05
5.98009e-05
5.98008e-05
5.9803e-05
5.97991e-05
5.98042e-05
5.98053e-05
5.98055e-05
5.98056e-05
5.98056e-05
5.98055e-05
5.98054e-05
5.98053e-05
5.98052e-05
5.9805e-05
5.98048e-05
5.98046e-05
5.98044e-05
5.98042e-05
5.98039e-05
5.98036e-05
5.98033e-05
5.9803e-05
5.98027e-05
5.98024e-05
5.9802e-05
5.98017e-05
5.98013e-05
5.98009e-05
5.98005e-05
5.98001e-05
5.97997e-05
5.97993e-05
5.97988e-05
5.97984e-05
5.97979e-05
5.97975e-05
5.9797e-05
5.97965e-05
5.9796e-05
5.97955e-05
5.9795e-05
5.97944e-05
5.97939e-05
5.97933e-05
5.97928e-05
5.97922e-05
5.97916e-05
5.97911e-05
5.97905e-05
5.97901e-05
5.97898e-05
5.97897e-05
5.97896e-05
5.97895e-05
5.97894e-05
5.97893e-05
5.97892e-05
5.9789e-05
5.97887e-05
5.97884e-05
5.97881e-05
5.97878e-05
5.97874e-05
5.9787e-05
5.97865e-05
5.97861e-05
5.97856e-05
5.97852e-05
5.97847e-05
5.97842e-05
5.97837e-05
5.97832e-05
5.97826e-05
5.97821e-05
5.97816e-05
5.97811e-05
5.97805e-05
5.978e-05
5.97795e-05
5.9779e-05
5.97785e-05
5.9778e-05
5.97775e-05
5.9777e-05
5.97765e-05
5.97761e-05
5.97756e-05
5.97752e-05
5.97748e-05
5.97743e-05
5.97739e-05
5.97736e-05
5.97732e-05
5.97728e-05
5.97725e-05
5.97722e-05
5.97719e-05
5.97716e-05
5.97713e-05
5.9771e-05
5.97707e-05
5.97705e-05
5.97702e-05
5.977e-05
5.97698e-05
5.97696e-05
5.97694e-05
5.97692e-05
5.97692e-05
5.97693e-05
5.97696e-05
5.977e-05
5.97704e-05
5.97707e-05
5.97711e-05
5.97714e-05
5.97716e-05
5.97719e-05
5.9772e-05
5.97722e-05
5.97723e-05
5.97723e-05
5.97744e-05
5.97609e-05
5.9766e-05
5.97671e-05
5.97673e-05
5.97674e-05
5.97674e-05
5.97674e-05
5.97673e-05
5.97672e-05
5.97672e-05
5.9767e-05
5.97669e-05
5.97667e-05
5.97666e-05
5.97664e-05
5.97661e-05
5.97659e-05
5.97657e-05
5.97654e-05
5.97651e-05
5.97649e-05
5.97645e-05
5.97642e-05
5.97639e-05
5.97636e-05
5.97632e-05
5.97628e-05
5.97625e-05
5.97621e-05
5.97617e-05
5.97613e-05
5.97609e-05
5.97604e-05
5.976e-05
5.97595e-05
5.97591e-05
5.97586e-05
5.97581e-05
5.97576e-05
5.97571e-05
5.97566e-05
5.97561e-05
5.97556e-05
5.9755e-05
5.97545e-05
5.9754e-05
5.97535e-05
5.9753e-05
5.97527e-05
5.97524e-05
5.97522e-05
5.9752e-05
5.97518e-05
5.97515e-05
5.97513e-05
5.9751e-05
5.97507e-05
5.97504e-05
5.97501e-05
5.97497e-05
5.97494e-05
5.9749e-05
5.97485e-05
5.97481e-05
5.97477e-05
5.97472e-05
5.97467e-05
5.97463e-05
5.97458e-05
5.97453e-05
5.97448e-05
5.97443e-05
5.97438e-05
5.97433e-05
5.97428e-05
5.97424e-05
5.97419e-05
5.97414e-05
5.97409e-05
5.97404e-05
5.974e-05
5.97395e-05
5.97391e-05
5.97387e-05
5.97383e-05
5.97379e-05
5.97375e-05
5.97371e-05
5.97367e-05
5.97364e-05
5.9736e-05
5.97357e-05
5.97354e-05
5.97351e-05
5.97348e-05
5.97345e-05
5.97343e-05
5.9734e-05
5.97338e-05
5.97336e-05
5.97334e-05
5.97331e-05
5.97329e-05
5.97327e-05
5.97326e-05
5.97325e-05
5.97324e-05
5.97325e-05
5.97326e-05
5.97328e-05
5.9733e-05
5.97333e-05
5.97335e-05
5.97337e-05
5.97339e-05
5.9734e-05
5.97342e-05
5.97343e-05
5.97343e-05
5.97364e-05
5.97125e-05
5.97176e-05
5.97187e-05
5.9719e-05
5.9719e-05
5.9719e-05
5.9719e-05
5.9719e-05
5.97189e-05
5.97189e-05
5.97188e-05
5.97187e-05
5.97186e-05
5.97184e-05
5.97183e-05
5.97181e-05
5.97179e-05
5.97177e-05
5.97175e-05
5.97172e-05
5.9717e-05
5.97167e-05
5.97164e-05
5.97161e-05
5.97158e-05
5.97155e-05
5.97152e-05
5.97149e-05
5.97145e-05
5.97142e-05
5.97138e-05
5.97134e-05
5.9713e-05
5.97126e-05
5.97122e-05
5.97118e-05
5.97113e-05
5.97109e-05
5.97105e-05
5.971e-05
5.97095e-05
5.9709e-05
5.97085e-05
5.9708e-05
5.97075e-05
5.9707e-05
5.97065e-05
5.9706e-05
5.97056e-05
5.97052e-05
5.97049e-05
5.97046e-05
5.97043e-05
5.9704e-05
5.97037e-05
5.97033e-05
5.9703e-05
5.97027e-05
5.97023e-05
5.9702e-05
5.97016e-05
5.97012e-05
5.97008e-05
5.97004e-05
5.97e-05
5.96995e-05
5.96991e-05
5.96986e-05
5.96982e-05
5.96977e-05
5.96972e-05
5.96968e-05
5.96963e-05
5.96958e-05
5.96954e-05
5.96949e-05
5.96944e-05
5.9694e-05
5.96935e-05
5.96931e-05
5.96926e-05
5.96922e-05
5.96918e-05
5.96914e-05
5.9691e-05
5.96906e-05
5.96902e-05
5.96899e-05
5.96895e-05
5.96892e-05
5.96888e-05
5.96885e-05
5.96882e-05
5.9688e-05
5.96877e-05
5.96874e-05
5.96872e-05
5.9687e-05
5.96867e-05
5.96865e-05
5.96863e-05
5.96861e-05
5.96859e-05
5.96857e-05
5.96856e-05
5.96854e-05
5.96853e-05
5.96853e-05
5.96853e-05
5.96853e-05
5.96854e-05
5.96855e-05
5.96857e-05
5.96858e-05
5.96859e-05
5.9686e-05
5.96861e-05
5.96862e-05
5.96862e-05
5.96882e-05
5.96536e-05
5.96586e-05
5.96597e-05
5.96599e-05
5.966e-05
5.966e-05
5.966e-05
5.966e-05
5.96599e-05
5.96599e-05
5.96598e-05
5.96597e-05
5.96596e-05
5.96595e-05
5.96594e-05
5.96592e-05
5.96591e-05
5.96589e-05
5.96587e-05
5.96585e-05
5.96583e-05
5.96581e-05
5.96578e-05
5.96576e-05
5.96573e-05
5.9657e-05
5.96567e-05
5.96564e-05
5.96561e-05
5.96558e-05
5.96555e-05
5.96551e-05
5.96548e-05
5.96544e-05
5.9654e-05
5.96536e-05
5.96532e-05
5.96528e-05
5.96524e-05
5.9652e-05
5.96515e-05
5.96511e-05
5.96506e-05
5.96502e-05
5.96497e-05
5.96492e-05
5.96487e-05
5.96483e-05
5.96478e-05
5.96474e-05
5.96469e-05
5.96465e-05
5.96462e-05
5.96458e-05
5.96455e-05
5.96451e-05
5.96447e-05
5.96444e-05
5.9644e-05
5.96436e-05
5.96433e-05
5.96429e-05
5.96424e-05
5.9642e-05
5.96416e-05
5.96412e-05
5.96407e-05
5.96403e-05
5.96398e-05
5.96394e-05
5.96389e-05
5.96385e-05
5.9638e-05
5.96376e-05
5.96371e-05
5.96367e-05
5.96362e-05
5.96358e-05
5.96353e-05
5.96349e-05
5.96345e-05
5.96341e-05
5.96337e-05
5.96333e-05
5.96329e-05
5.96325e-05
5.96321e-05
5.96318e-05
5.96314e-05
5.96311e-05
5.96308e-05
5.96305e-05
5.96302e-05
5.963e-05
5.96297e-05
5.96295e-05
5.96292e-05
5.9629e-05
5.96288e-05
5.96286e-05
5.96284e-05
5.96282e-05
5.9628e-05
5.96279e-05
5.96277e-05
5.96275e-05
5.96274e-05
5.96273e-05
5.96272e-05
5.96272e-05
5.96272e-05
5.96272e-05
5.96273e-05
5.96273e-05
5.96274e-05
5.96275e-05
5.96275e-05
5.96276e-05
5.96275e-05
5.96294e-05
5.95835e-05
5.95885e-05
5.95896e-05
5.95898e-05
5.95899e-05
5.95899e-05
5.95899e-05
5.95899e-05
5.95898e-05
5.95898e-05
5.95897e-05
5.95897e-05
5.95896e-05
5.95895e-05
5.95894e-05
5.95892e-05
5.95891e-05
5.9589e-05
5.95888e-05
5.95886e-05
5.95884e-05
5.95882e-05
5.9588e-05
5.95878e-05
5.95876e-05
5.95873e-05
5.95871e-05
5.95868e-05
5.95865e-05
5.95862e-05
5.95859e-05
5.95856e-05
5.95853e-05
5.9585e-05
5.95846e-05
5.95843e-05
5.95839e-05
5.95835e-05
5.95832e-05
5.95828e-05
5.95824e-05
5.95819e-05
5.95815e-05
5.95811e-05
5.95806e-05
5.95802e-05
5.95797e-05
5.95793e-05
5.95788e-05
5.95783e-05
5.95779e-05
5.95775e-05
5.9577e-05
5.95766e-05
5.95762e-05
5.95758e-05
5.95755e-05
5.95751e-05
5.95747e-05
5.95743e-05
5.95739e-05
5.95734e-05
5.9573e-05
5.95726e-05
5.95722e-05
5.95717e-05
5.95713e-05
5.95709e-05
5.95704e-05
5.957e-05
5.95695e-05
5.95691e-05
5.95686e-05
5.95682e-05
5.95677e-05
5.95673e-05
5.95668e-05
5.95664e-05
5.9566e-05
5.95655e-05
5.95651e-05
5.95647e-05
5.95643e-05
5.95639e-05
5.95636e-05
5.95632e-05
5.95628e-05
5.95625e-05
5.95622e-05
5.95619e-05
5.95616e-05
5.95613e-05
5.9561e-05
5.95607e-05
5.95605e-05
5.95602e-05
5.956e-05
5.95598e-05
5.95596e-05
5.95594e-05
5.95592e-05
5.9559e-05
5.95589e-05
5.95587e-05
5.95586e-05
5.95584e-05
5.95583e-05
5.95582e-05
5.95581e-05
5.9558e-05
5.95579e-05
5.95579e-05
5.95579e-05
5.95579e-05
5.95579e-05
5.95579e-05
5.95579e-05
5.95579e-05
5.95578e-05
5.95595e-05
5.95021e-05
5.95071e-05
5.95082e-05
5.95084e-05
5.95084e-05
5.95084e-05
5.95084e-05
5.95084e-05
5.95084e-05
5.95083e-05
5.95083e-05
5.95082e-05
5.95081e-05
5.9508e-05
5.9508e-05
5.95079e-05
5.95077e-05
5.95076e-05
5.95075e-05
5.95073e-05
5.95072e-05
5.9507e-05
5.95068e-05
5.95066e-05
5.95064e-05
5.95062e-05
5.9506e-05
5.95057e-05
5.95055e-05
5.95052e-05
5.9505e-05
5.95047e-05
5.95044e-05
5.95041e-05
5.95038e-05
5.95035e-05
5.95031e-05
5.95028e-05
5.95024e-05
5.95021e-05
5.95017e-05
5.95013e-05
5.95009e-05
5.95005e-05
5.95001e-05
5.94996e-05
5.94992e-05
5.94988e-05
5.94983e-05
5.94979e-05
5.94974e-05
5.9497e-05
5.94965e-05
5.94961e-05
5.94957e-05
5.94952e-05
5.94948e-05
5.94944e-05
5.9494e-05
5.94936e-05
5.94931e-05
5.94927e-05
5.94923e-05
5.94918e-05
5.94914e-05
5.94909e-05
5.94905e-05
5.949e-05
5.94896e-05
5.94891e-05
5.94887e-05
5.94882e-05
5.94878e-05
5.94873e-05
5.94869e-05
5.94864e-05
5.9486e-05
5.94856e-05
5.94851e-05
5.94847e-05
5.94843e-05
5.94839e-05
5.94835e-05
5.94831e-05
5.94828e-05
5.94824e-05
5.94821e-05
5.94817e-05
5.94814e-05
5.94811e-05
5.94808e-05
5.94805e-05
5.94803e-05
5.948e-05
5.94798e-05
5.94795e-05
5.94793e-05
5.94791e-05
5.94789e-05
5.94787e-05
5.94785e-05
5.94784e-05
5.94782e-05
5.9478e-05
5.94779e-05
5.94777e-05
5.94776e-05
5.94775e-05
5.94774e-05
5.94773e-05
5.94772e-05
5.94771e-05
5.9477e-05
5.9477e-05
5.9477e-05
5.94769e-05
5.94769e-05
5.94769e-05
5.94768e-05
5.94783e-05
5.94092e-05
5.94141e-05
5.94151e-05
5.94153e-05
5.94154e-05
5.94154e-05
5.94154e-05
5.94153e-05
5.94153e-05
5.94153e-05
5.94152e-05
5.94152e-05
5.94151e-05
5.9415e-05
5.9415e-05
5.94149e-05
5.94148e-05
5.94147e-05
5.94146e-05
5.94144e-05
5.94143e-05
5.94142e-05
5.9414e-05
5.94138e-05
5.94137e-05
5.94135e-05
5.94133e-05
5.94131e-05
5.94128e-05
5.94126e-05
5.94124e-05
5.94121e-05
5.94119e-05
5.94116e-05
5.94113e-05
5.9411e-05
5.94107e-05
5.94104e-05
5.94101e-05
5.94097e-05
5.94094e-05
5.9409e-05
5.94087e-05
5.94083e-05
5.94079e-05
5.94075e-05
5.94071e-05
5.94066e-05
5.94062e-05
5.94058e-05
5.94053e-05
5.94049e-05
5.94044e-05
5.9404e-05
5.94035e-05
5.94031e-05
5.94026e-05
5.94022e-05
5.94017e-05
5.94013e-05
5.94008e-05
5.94004e-05
5.93999e-05
5.93995e-05
5.9399e-05
5.93986e-05
5.93981e-05
5.93977e-05
5.93972e-05
5.93967e-05
5.93963e-05
5.93958e-05
5.93954e-05
5.93949e-05
5.93945e-05
5.9394e-05
5.93936e-05
5.93931e-05
5.93927e-05
5.93923e-05
5.93919e-05
5.93915e-05
5.93911e-05
5.93907e-05
5.93903e-05
5.939e-05
5.93896e-05
5.93893e-05
5.9389e-05
5.93887e-05
5.93884e-05
5.93881e-05
5.93878e-05
5.93876e-05
5.93873e-05
5.93871e-05
5.93869e-05
5.93867e-05
5.93865e-05
5.93863e-05
5.93861e-05
5.9386e-05
5.93858e-05
5.93857e-05
5.93855e-05
5.93854e-05
5.93853e-05
5.93851e-05
5.9385e-05
5.93849e-05
5.93848e-05
5.93847e-05
5.93846e-05
5.93845e-05
5.93845e-05
5.93844e-05
5.93843e-05
5.93843e-05
5.93841e-05
5.93855e-05
5.93045e-05
5.93094e-05
5.93105e-05
5.93107e-05
5.93107e-05
5.93107e-05
5.93107e-05
5.93106e-05
5.93106e-05
5.93106e-05
5.93105e-05
5.93105e-05
5.93105e-05
5.93104e-05
5.93103e-05
5.93103e-05
5.93102e-05
5.93101e-05
5.931e-05
5.93099e-05
5.93098e-05
5.93097e-05
5.93096e-05
5.93094e-05
5.93093e-05
5.93091e-05
5.93089e-05
5.93087e-05
5.93086e-05
5.93084e-05
5.93081e-05
5.93079e-05
5.93077e-05
5.93075e-05
5.93072e-05
5.93069e-05
5.93067e-05
5.93064e-05
5.93061e-05
5.93058e-05
5.93054e-05
5.93051e-05
5.93047e-05
5.93044e-05
5.9304e-05
5.93036e-05
5.93032e-05
5.93028e-05
5.93024e-05
5.9302e-05
5.93015e-05
5.93011e-05
5.93006e-05
5.93002e-05
5.92997e-05
5.92993e-05
5.92988e-05
5.92983e-05
5.92979e-05
5.92974e-05
5.92969e-05
5.92965e-05
5.9296e-05
5.92955e-05
5.9295e-05
5.92946e-05
5.92941e-05
5.92936e-05
5.92931e-05
5.92927e-05
5.92922e-05
5.92917e-05
5.92913e-05
5.92908e-05
5.92903e-05
5.92899e-05
5.92894e-05
5.9289e-05
5.92886e-05
5.92882e-05
5.92877e-05
5.92873e-05
5.92869e-05
5.92866e-05
5.92862e-05
5.92858e-05
5.92855e-05
5.92852e-05
5.92848e-05
5.92845e-05
5.92842e-05
5.9284e-05
5.92837e-05
5.92834e-05
5.92832e-05
5.9283e-05
5.92828e-05
5.92826e-05
5.92824e-05
5.92822e-05
5.9282e-05
5.92818e-05
5.92817e-05
5.92815e-05
5.92814e-05
5.92813e-05
5.92811e-05
5.9281e-05
5.92809e-05
5.92808e-05
5.92807e-05
5.92805e-05
5.92804e-05
5.92803e-05
5.92803e-05
5.92802e-05
5.92801e-05
5.928e-05
5.92799e-05
5.92811e-05
5.91883e-05
5.91931e-05
5.91941e-05
5.91943e-05
5.91944e-05
5.91944e-05
5.91944e-05
5.91943e-05
5.91943e-05
5.91943e-05
5.91943e-05
5.91942e-05
5.91942e-05
5.91942e-05
5.91941e-05
5.91941e-05
5.9194e-05
5.9194e-05
5.91939e-05
5.91938e-05
5.91937e-05
5.91936e-05
5.91935e-05
5.91934e-05
5.91933e-05
5.91931e-05
5.9193e-05
5.91928e-05
5.91927e-05
5.91925e-05
5.91923e-05
5.91921e-05
5.91919e-05
5.91917e-05
5.91915e-05
5.91912e-05
5.9191e-05
5.91907e-05
5.91904e-05
5.91902e-05
5.91898e-05
5.91895e-05
5.91892e-05
5.91888e-05
5.91885e-05
5.91881e-05
5.91877e-05
5.91873e-05
5.91869e-05
5.91865e-05
5.91861e-05
5.91856e-05
5.91852e-05
5.91847e-05
5.91843e-05
5.91838e-05
5.91833e-05
5.91828e-05
5.91823e-05
5.91819e-05
5.91814e-05
5.91809e-05
5.91804e-05
5.91799e-05
5.91794e-05
5.91789e-05
5.91784e-05
5.91779e-05
5.91775e-05
5.9177e-05
5.91765e-05
5.9176e-05
5.91755e-05
5.91751e-05
5.91746e-05
5.91741e-05
5.91737e-05
5.91732e-05
5.91728e-05
5.91724e-05
5.91719e-05
5.91715e-05
5.91711e-05
5.91707e-05
5.91704e-05
5.917e-05
5.91697e-05
5.91693e-05
5.9169e-05
5.91687e-05
5.91684e-05
5.91681e-05
5.91679e-05
5.91676e-05
5.91674e-05
5.91671e-05
5.91669e-05
5.91667e-05
5.91665e-05
5.91663e-05
5.91662e-05
5.9166e-05
5.91659e-05
5.91657e-05
5.91656e-05
5.91654e-05
5.91653e-05
5.91652e-05
5.91651e-05
5.91649e-05
5.91648e-05
5.91647e-05
5.91646e-05
5.91645e-05
5.91644e-05
5.91643e-05
5.91642e-05
5.91641e-05
5.91639e-05
5.9165e-05
5.90605e-05
5.90653e-05
5.90663e-05
5.90665e-05
5.90666e-05
5.90666e-05
5.90666e-05
5.90666e-05
5.90666e-05
5.90666e-05
5.90666e-05
5.90665e-05
5.90665e-05
5.90665e-05
5.90665e-05
5.90665e-05
5.90664e-05
5.90664e-05
5.90663e-05
5.90663e-05
5.90662e-05
5.90661e-05
5.90661e-05
5.9066e-05
5.90659e-05
5.90658e-05
5.90656e-05
5.90655e-05
5.90654e-05
5.90652e-05
5.90651e-05
5.90649e-05
5.90647e-05
5.90645e-05
5.90643e-05
5.90641e-05
5.90639e-05
5.90636e-05
5.90634e-05
5.90631e-05
5.90628e-05
5.90625e-05
5.90622e-05
5.90618e-05
5.90615e-05
5.90611e-05
5.90608e-05
5.90604e-05
5.906e-05
5.90595e-05
5.90591e-05
5.90587e-05
5.90582e-05
5.90578e-05
5.90573e-05
5.90568e-05
5.90563e-05
5.90558e-05
5.90553e-05
5.90548e-05
5.90543e-05
5.90538e-05
5.90533e-05
5.90528e-05
5.90523e-05
5.90518e-05
5.90513e-05
5.90508e-05
5.90503e-05
5.90498e-05
5.90493e-05
5.90488e-05
5.90483e-05
5.90478e-05
5.90473e-05
5.90469e-05
5.90464e-05
5.90459e-05
5.90455e-05
5.90451e-05
5.90446e-05
5.90442e-05
5.90438e-05
5.90434e-05
5.9043e-05
5.90427e-05
5.90423e-05
5.9042e-05
5.90416e-05
5.90413e-05
5.9041e-05
5.90407e-05
5.90405e-05
5.90402e-05
5.904e-05
5.90398e-05
5.90395e-05
5.90393e-05
5.90391e-05
5.9039e-05
5.90388e-05
5.90386e-05
5.90385e-05
5.90383e-05
5.90382e-05
5.9038e-05
5.90379e-05
5.90378e-05
5.90377e-05
5.90375e-05
5.90374e-05
5.90373e-05
5.90372e-05
5.90371e-05
5.9037e-05
5.90369e-05
5.90368e-05
5.90367e-05
5.90365e-05
5.90375e-05
5.89215e-05
5.89263e-05
5.89273e-05
5.89275e-05
5.89276e-05
5.89276e-05
5.89276e-05
5.89276e-05
5.89276e-05
5.89277e-05
5.89277e-05
5.89277e-05
5.89277e-05
5.89277e-05
5.89277e-05
5.89277e-05
5.89277e-05
5.89277e-05
5.89276e-05
5.89276e-05
5.89276e-05
5.89275e-05
5.89275e-05
5.89274e-05
5.89273e-05
5.89273e-05
5.89272e-05
5.89271e-05
5.89269e-05
5.89268e-05
5.89267e-05
5.89266e-05
5.89264e-05
5.89262e-05
5.8926e-05
5.89258e-05
5.89256e-05
5.89254e-05
5.89251e-05
5.89249e-05
5.89246e-05
5.89243e-05
5.8924e-05
5.89237e-05
5.89233e-05
5.89229e-05
5.89226e-05
5.89222e-05
5.89218e-05
5.89214e-05
5.89209e-05
5.89205e-05
5.892e-05
5.89196e-05
5.89191e-05
5.89186e-05
5.89181e-05
5.89176e-05
5.89171e-05
5.89166e-05
5.89161e-05
5.89155e-05
5.8915e-05
5.89145e-05
5.8914e-05
5.89134e-05
5.89129e-05
5.89124e-05
5.89119e-05
5.89114e-05
5.89108e-05
5.89103e-05
5.89098e-05
5.89093e-05
5.89088e-05
5.89084e-05
5.89079e-05
5.89074e-05
5.8907e-05
5.89065e-05
5.89061e-05
5.89056e-05
5.89052e-05
5.89048e-05
5.89044e-05
5.89041e-05
5.89037e-05
5.89034e-05
5.8903e-05
5.89027e-05
5.89024e-05
5.89021e-05
5.89018e-05
5.89016e-05
5.89013e-05
5.89011e-05
5.89009e-05
5.89007e-05
5.89005e-05
5.89003e-05
5.89001e-05
5.89e-05
5.88998e-05
5.88996e-05
5.88995e-05
5.88994e-05
5.88992e-05
5.88991e-05
5.8899e-05
5.88989e-05
5.88987e-05
5.88986e-05
5.88985e-05
5.88984e-05
5.88983e-05
5.88982e-05
5.88981e-05
5.8898e-05
5.88979e-05
5.88987e-05
5.87716e-05
5.87764e-05
5.87774e-05
5.87777e-05
5.87778e-05
5.87778e-05
5.87779e-05
5.87779e-05
5.87779e-05
5.8778e-05
5.8778e-05
5.87781e-05
5.87781e-05
5.87781e-05
5.87782e-05
5.87782e-05
5.87782e-05
5.87782e-05
5.87782e-05
5.87782e-05
5.87782e-05
5.87782e-05
5.87782e-05
5.87781e-05
5.87781e-05
5.8778e-05
5.87779e-05
5.87779e-05
5.87778e-05
5.87777e-05
5.87776e-05
5.87775e-05
5.87773e-05
5.87772e-05
5.8777e-05
5.87768e-05
5.87766e-05
5.87764e-05
5.87761e-05
5.87759e-05
5.87756e-05
5.87753e-05
5.8775e-05
5.87747e-05
5.87743e-05
5.8774e-05
5.87736e-05
5.87732e-05
5.87728e-05
5.87723e-05
5.87719e-05
5.87715e-05
5.8771e-05
5.87705e-05
5.877e-05
5.87695e-05
5.8769e-05
5.87685e-05
5.8768e-05
5.87675e-05
5.87669e-05
5.87664e-05
5.87659e-05
5.87653e-05
5.87648e-05
5.87642e-05
5.87637e-05
5.87632e-05
5.87626e-05
5.87621e-05
5.87616e-05
5.8761e-05
5.87605e-05
5.876e-05
5.87595e-05
5.8759e-05
5.87585e-05
5.8758e-05
5.87576e-05
5.87571e-05
5.87566e-05
5.87562e-05
5.87558e-05
5.87554e-05
5.8755e-05
5.87546e-05
5.87542e-05
5.87539e-05
5.87535e-05
5.87532e-05
5.87529e-05
5.87526e-05
5.87523e-05
5.87521e-05
5.87518e-05
5.87516e-05
5.87513e-05
5.87511e-05
5.87509e-05
5.87508e-05
5.87506e-05
5.87504e-05
5.87502e-05
5.87501e-05
5.87499e-05
5.87498e-05
5.87497e-05
5.87495e-05
5.87494e-05
5.87493e-05
5.87492e-05
5.87491e-05
5.8749e-05
5.87489e-05
5.87488e-05
5.87487e-05
5.87486e-05
5.87485e-05
5.87484e-05
5.87491e-05
5.86114e-05
5.86162e-05
5.86173e-05
5.86176e-05
5.86177e-05
5.86178e-05
5.86179e-05
5.86179e-05
5.8618e-05
5.86181e-05
5.86182e-05
5.86182e-05
5.86183e-05
5.86184e-05
5.86184e-05
5.86185e-05
5.86185e-05
5.86186e-05
5.86186e-05
5.86186e-05
5.86186e-05
5.86186e-05
5.86186e-05
5.86186e-05
5.86186e-05
5.86186e-05
5.86185e-05
5.86185e-05
5.86184e-05
5.86184e-05
5.86183e-05
5.86182e-05
5.8618e-05
5.86179e-05
5.86177e-05
5.86175e-05
5.86173e-05
5.86171e-05
5.86169e-05
5.86166e-05
5.86163e-05
5.8616e-05
5.86157e-05
5.86154e-05
5.8615e-05
5.86147e-05
5.86143e-05
5.86139e-05
5.86134e-05
5.8613e-05
5.86126e-05
5.86121e-05
5.86116e-05
5.86111e-05
5.86106e-05
5.86101e-05
5.86096e-05
5.86091e-05
5.86085e-05
5.8608e-05
5.86074e-05
5.86069e-05
5.86063e-05
5.86058e-05
5.86052e-05
5.86047e-05
5.86041e-05
5.86036e-05
5.8603e-05
5.86025e-05
5.86019e-05
5.86014e-05
5.86008e-05
5.86003e-05
5.85998e-05
5.85993e-05
5.85988e-05
5.85983e-05
5.85978e-05
5.85973e-05
5.85969e-05
5.85964e-05
5.8596e-05
5.85956e-05
5.85952e-05
5.85948e-05
5.85944e-05
5.8594e-05
5.85937e-05
5.85934e-05
5.8593e-05
5.85927e-05
5.85924e-05
5.85922e-05
5.85919e-05
5.85917e-05
5.85915e-05
5.85912e-05
5.8591e-05
5.85908e-05
5.85907e-05
5.85905e-05
5.85903e-05
5.85902e-05
5.859e-05
5.85899e-05
5.85897e-05
5.85896e-05
5.85895e-05
5.85894e-05
5.85893e-05
5.85892e-05
5.85891e-05
5.8589e-05
5.85889e-05
5.85888e-05
5.85888e-05
5.85887e-05
5.85886e-05
5.85891e-05
5.84417e-05
5.84464e-05
5.84475e-05
5.84479e-05
5.8448e-05
5.84481e-05
5.84483e-05
5.84484e-05
5.84485e-05
5.84486e-05
5.84487e-05
5.84488e-05
5.84489e-05
5.8449e-05
5.84491e-05
5.84492e-05
5.84493e-05
5.84494e-05
5.84494e-05
5.84495e-05
5.84495e-05
5.84496e-05
5.84496e-05
5.84496e-05
5.84496e-05
5.84496e-05
5.84496e-05
5.84496e-05
5.84495e-05
5.84495e-05
5.84494e-05
5.84493e-05
5.84492e-05
5.84491e-05
5.84489e-05
5.84487e-05
5.84485e-05
5.84483e-05
5.8448e-05
5.84478e-05
5.84475e-05
5.84471e-05
5.84468e-05
5.84465e-05
5.84461e-05
5.84457e-05
5.84453e-05
5.84449e-05
5.84444e-05
5.8444e-05
5.84435e-05
5.8443e-05
5.84425e-05
5.8442e-05
5.84415e-05
5.8441e-05
5.84405e-05
5.84399e-05
5.84394e-05
5.84388e-05
5.84383e-05
5.84377e-05
5.84371e-05
5.84365e-05
5.8436e-05
5.84354e-05
5.84348e-05
5.84342e-05
5.84337e-05
5.84331e-05
5.84326e-05
5.8432e-05
5.84315e-05
5.84309e-05
5.84304e-05
5.84299e-05
5.84293e-05
5.84288e-05
5.84283e-05
5.84279e-05
5.84274e-05
5.84269e-05
5.84265e-05
5.84261e-05
5.84256e-05
5.84252e-05
5.84249e-05
5.84245e-05
5.84241e-05
5.84238e-05
5.84235e-05
5.84232e-05
5.84229e-05
5.84226e-05
5.84223e-05
5.84221e-05
5.84218e-05
5.84216e-05
5.84214e-05
5.84212e-05
5.8421e-05
5.84209e-05
5.84207e-05
5.84205e-05
5.84204e-05
5.84202e-05
5.84201e-05
5.842e-05
5.84199e-05
5.84197e-05
5.84196e-05
5.84195e-05
5.84195e-05
5.84194e-05
5.84194e-05
5.84193e-05
5.84193e-05
5.84193e-05
5.84192e-05
5.84196e-05
5.82631e-05
5.82678e-05
5.8269e-05
5.82694e-05
5.82696e-05
5.82697e-05
5.82699e-05
5.82701e-05
5.82702e-05
5.82704e-05
5.82705e-05
5.82707e-05
5.82708e-05
5.8271e-05
5.82711e-05
5.82712e-05
5.82713e-05
5.82715e-05
5.82715e-05
5.82716e-05
5.82717e-05
5.82718e-05
5.82718e-05
5.82719e-05
5.82719e-05
5.82719e-05
5.82719e-05
5.82719e-05
5.82719e-05
5.82719e-05
5.82718e-05
5.82717e-05
5.82716e-05
5.82715e-05
5.82713e-05
5.82711e-05
5.82709e-05
5.82706e-05
5.82704e-05
5.82701e-05
5.82697e-05
5.82694e-05
5.8269e-05
5.82687e-05
5.82683e-05
5.82679e-05
5.82674e-05
5.8267e-05
5.82665e-05
5.82661e-05
5.82656e-05
5.82651e-05
5.82646e-05
5.8264e-05
5.82635e-05
5.8263e-05
5.82624e-05
5.82618e-05
5.82613e-05
5.82607e-05
5.82601e-05
5.82595e-05
5.8259e-05
5.82584e-05
5.82578e-05
5.82572e-05
5.82566e-05
5.8256e-05
5.82554e-05
5.82549e-05
5.82543e-05
5.82537e-05
5.82532e-05
5.82526e-05
5.82521e-05
5.82515e-05
5.8251e-05
5.82505e-05
5.825e-05
5.82495e-05
5.8249e-05
5.82485e-05
5.82481e-05
5.82476e-05
5.82472e-05
5.82468e-05
5.82464e-05
5.8246e-05
5.82457e-05
5.82453e-05
5.8245e-05
5.82447e-05
5.82444e-05
5.82441e-05
5.82438e-05
5.82436e-05
5.82433e-05
5.82431e-05
5.82429e-05
5.82427e-05
5.82425e-05
5.82423e-05
5.82421e-05
5.8242e-05
5.82418e-05
5.82417e-05
5.82415e-05
5.82414e-05
5.82413e-05
5.82412e-05
5.82411e-05
5.82411e-05
5.8241e-05
5.8241e-05
5.8241e-05
5.8241e-05
5.8241e-05
5.8241e-05
5.8241e-05
5.82413e-05
5.80767e-05
5.80814e-05
5.80826e-05
5.80831e-05
5.80833e-05
5.80835e-05
5.80838e-05
5.8084e-05
5.80842e-05
5.80844e-05
5.80846e-05
5.80848e-05
5.8085e-05
5.80852e-05
5.80853e-05
5.80855e-05
5.80856e-05
5.80858e-05
5.80859e-05
5.8086e-05
5.80861e-05
5.80862e-05
5.80863e-05
5.80864e-05
5.80865e-05
5.80865e-05
5.80865e-05
5.80865e-05
5.80865e-05
5.80865e-05
5.80864e-05
5.80863e-05
5.80862e-05
5.8086e-05
5.80858e-05
5.80856e-05
5.80854e-05
5.80851e-05
5.80848e-05
5.80845e-05
5.80841e-05
5.80838e-05
5.80834e-05
5.8083e-05
5.80825e-05
5.80821e-05
5.80816e-05
5.80812e-05
5.80807e-05
5.80802e-05
5.80797e-05
5.80791e-05
5.80786e-05
5.80781e-05
5.80775e-05
5.80769e-05
5.80764e-05
5.80758e-05
5.80752e-05
5.80746e-05
5.8074e-05
5.80734e-05
5.80728e-05
5.80722e-05
5.80716e-05
5.8071e-05
5.80704e-05
5.80698e-05
5.80692e-05
5.80686e-05
5.8068e-05
5.80674e-05
5.80669e-05
5.80663e-05
5.80658e-05
5.80652e-05
5.80647e-05
5.80641e-05
5.80636e-05
5.80631e-05
5.80626e-05
5.80622e-05
5.80617e-05
5.80612e-05
5.80608e-05
5.80604e-05
5.806e-05
5.80596e-05
5.80592e-05
5.80589e-05
5.80585e-05
5.80582e-05
5.80579e-05
5.80576e-05
5.80574e-05
5.80571e-05
5.80569e-05
5.80566e-05
5.80564e-05
5.80562e-05
5.8056e-05
5.80558e-05
5.80556e-05
5.80555e-05
5.80553e-05
5.80552e-05
5.8055e-05
5.80549e-05
5.80548e-05
5.80547e-05
5.80547e-05
5.80547e-05
5.80547e-05
5.80547e-05
5.80547e-05
5.80548e-05
5.80549e-05
5.80549e-05
5.8055e-05
5.80552e-05
5.78836e-05
5.78884e-05
5.78896e-05
5.78901e-05
5.78904e-05
5.78907e-05
5.7891e-05
5.78913e-05
5.78915e-05
5.78918e-05
5.7892e-05
5.78923e-05
5.78925e-05
5.78927e-05
5.7893e-05
5.78932e-05
5.78933e-05
5.78935e-05
5.78937e-05
5.78938e-05
5.7894e-05
5.78941e-05
5.78942e-05
5.78943e-05
5.78944e-05
5.78945e-05
5.78945e-05
5.78945e-05
5.78945e-05
5.78944e-05
5.78944e-05
5.78942e-05
5.78941e-05
5.78939e-05
5.78937e-05
5.78934e-05
5.78931e-05
5.78928e-05
5.78924e-05
5.78921e-05
5.78917e-05
5.78913e-05
5.78908e-05
5.78904e-05
5.78899e-05
5.78895e-05
5.7889e-05
5.78885e-05
5.78879e-05
5.78874e-05
5.78869e-05
5.78863e-05
5.78858e-05
5.78852e-05
5.78846e-05
5.7884e-05
5.78834e-05
5.78828e-05
5.78822e-05
5.78816e-05
5.7881e-05
5.78804e-05
5.78798e-05
5.78792e-05
5.78786e-05
5.78779e-05
5.78773e-05