/*--------------------------------*- C++ -*----------------------------------*\
  =========                 |
  \\      /  F ield         | OpenFOAM: The Open Source CFD Toolbox
   \\    /   O peration     | Website:  https://openfoam.org
    \\  /    A nd           | Version:  7
     \\/     M anipulation  |
\*---------------------------------------------------------------------------*/
FoamFile
{
    version     2.0;
    format      ascii;
    class       volScalarField;
    location    "1000";
    object      nut;
}
// * * * * * * * * * * * * * * * * * * * * * * * * * * * * * * * * * * * * * //

dimensions      [0 2 -1 0 0 0 0];

internalField   nonuniform List<scalar> 
4000
(
0.0026546
0.00265516
0.00265524
0.00265521
0.00265517
0.00265513
0.00265508
0.00265504
0.002655
0.00265495
0.00265491
0.00265486
0.00265481
0.00265477
0.00265472
0.00265467
0.00265462
0.00265456
0.00265451
0.00265446
0.0026544
0.00265435
0.00265429
0.00265423
0.00265417
0.00265411
0.00265405
0.00265399
0.00265392
0.00265386
0.00265379
0.00265372
0.00265365
0.00265358
0.00265351
0.00265344
0.00265337
0.0026533
0.00265322
0.00265314
0.00265307
0.00265299
0.00265291
0.00265282
0.00265277
0.0026534
0.00265381
0.00265394
0.00265395
0.0026539
0.00265383
0.00265376
0.00265368
0.0026536
0.00265351
0.00265343
0.00265334
0.00265325
0.00265316
0.00265306
0.00265297
0.00265288
0.00265279
0.00265269
0.0026526
0.0026525
0.00265241
0.00265232
0.00265222
0.00265213
0.00265204
0.00265195
0.00265186
0.00265178
0.00265169
0.00265161
0.00265152
0.00265144
0.00265137
0.00265129
0.00265122
0.00265115
0.00265108
0.00265101
0.00265095
0.00265089
0.00265083
0.00265078
0.00265072
0.00265067
0.00265063
0.00265058
0.00265054
0.0026505
0.00265046
0.00265043
0.0026504
0.00265037
0.00265034
0.00265031
0.00265029
0.00265026
0.00265024
0.00265025
0.00265095
0.00265142
0.00265163
0.0026517
0.00265173
0.00265173
0.00265173
0.00265173
0.00265172
0.00265171
0.00265169
0.00265168
0.00265166
0.00265164
0.00265161
0.00265187
0.00264794
0.00264851
0.00264862
0.00264863
0.00264862
0.00264859
0.00264857
0.00264854
0.00264851
0.00264847
0.00264844
0.0026484
0.00264837
0.00264833
0.00264829
0.00264825
0.00264821
0.00264816
0.00264812
0.00264807
0.00264802
0.00264798
0.00264793
0.00264788
0.00264782
0.00264777
0.00264771
0.00264766
0.0026476
0.00264754
0.00264748
0.00264742
0.00264736
0.00264729
0.00264723
0.00264716
0.00264709
0.00264703
0.00264696
0.00264688
0.00264681
0.00264674
0.00264666
0.00264659
0.00264651
0.00264664
0.00264685
0.002647
0.00264709
0.00264712
0.00264711
0.00264709
0.00264705
0.002647
0.00264694
0.00264688
0.00264681
0.00264674
0.00264666
0.00264659
0.00264651
0.00264643
0.00264635
0.00264627
0.00264619
0.0026461
0.00264602
0.00264593
0.00264585
0.00264577
0.00264568
0.0026456
0.00264552
0.00264544
0.00264536
0.00264528
0.0026452
0.00264513
0.00264505
0.00264498
0.00264491
0.00264484
0.00264478
0.00264471
0.00264465
0.00264459
0.00264454
0.00264448
0.00264443
0.00264438
0.00264434
0.00264429
0.00264425
0.00264421
0.00264417
0.00264414
0.00264411
0.00264408
0.00264405
0.00264402
0.00264399
0.00264397
0.00264395
0.00264393
0.00264412
0.00264439
0.00264461
0.00264477
0.00264486
0.00264493
0.00264497
0.002645
0.00264502
0.00264504
0.00264504
0.00264505
0.00264505
0.00264505
0.00264503
0.00264527
0.0026354
0.00263596
0.00263608
0.00263611
0.00263611
0.00263611
0.00263609
0.00263608
0.00263606
0.00263604
0.00263602
0.00263599
0.00263596
0.00263593
0.0026359
0.00263587
0.00263584
0.0026358
0.00263577
0.00263573
0.00263569
0.00263565
0.0026356
0.00263556
0.00263551
0.00263547
0.00263542
0.00263537
0.00263532
0.00263526
0.00263521
0.00263515
0.0026351
0.00263504
0.00263498
0.00263492
0.00263485
0.00263479
0.00263473
0.00263466
0.00263459
0.00263452
0.00263445
0.00263438
0.00263431
0.00263429
0.00263434
0.00263442
0.00263448
0.00263452
0.00263453
0.00263453
0.00263451
0.00263448
0.00263444
0.0026344
0.00263435
0.00263429
0.00263423
0.00263417
0.0026341
0.00263404
0.00263397
0.00263389
0.00263382
0.00263375
0.00263367
0.0026336
0.00263352
0.00263344
0.00263337
0.00263329
0.00263322
0.00263314
0.00263307
0.00263299
0.00263292
0.00263285
0.00263278
0.00263271
0.00263265
0.00263258
0.00263252
0.00263246
0.0026324
0.00263234
0.00263229
0.00263224
0.00263219
0.00263214
0.00263209
0.00263205
0.00263201
0.00263197
0.00263193
0.0026319
0.00263186
0.00263183
0.00263181
0.00263178
0.00263175
0.00263173
0.00263171
0.00263169
0.00263173
0.00263184
0.00263197
0.0026321
0.0026322
0.00263228
0.00263234
0.00263239
0.00263243
0.00263246
0.00263249
0.0026325
0.00263252
0.00263253
0.00263252
0.00263277
0.00261727
0.00261782
0.00261795
0.00261798
0.00261799
0.002618
0.002618
0.00261799
0.00261798
0.00261797
0.00261796
0.00261794
0.00261792
0.0026179
0.00261788
0.00261786
0.00261783
0.0026178
0.00261777
0.00261774
0.00261771
0.00261767
0.00261764
0.0026176
0.00261756
0.00261752
0.00261748
0.00261743
0.00261739
0.00261734
0.00261729
0.00261724
0.00261719
0.00261714
0.00261708
0.00261703
0.00261697
0.00261691
0.00261685
0.00261679
0.00261672
0.00261666
0.00261659
0.00261653
0.00261646
0.00261641
0.00261638
0.00261639
0.0026164
0.00261642
0.00261642
0.00261642
0.00261641
0.00261639
0.00261636
0.00261632
0.00261628
0.00261624
0.00261619
0.00261613
0.00261608
0.00261602
0.00261596
0.00261589
0.00261583
0.00261576
0.0026157
0.00261563
0.00261556
0.00261549
0.00261542
0.00261535
0.00261528
0.00261521
0.00261514
0.00261507
0.002615
0.00261494
0.00261487
0.00261481
0.00261474
0.00261468
0.00261462
0.00261457
0.00261451
0.00261445
0.0026144
0.00261435
0.0026143
0.00261426
0.00261421
0.00261417
0.00261413
0.00261409
0.00261406
0.00261402
0.00261399
0.00261396
0.00261393
0.00261391
0.00261388
0.00261386
0.00261384
0.00261382
0.00261381
0.00261385
0.00261391
0.00261398
0.00261405
0.00261412
0.00261418
0.00261424
0.00261428
0.00261432
0.00261435
0.00261438
0.0026144
0.00261442
0.00261442
0.00261466
0.00259387
0.00259441
0.00259454
0.00259458
0.0025946
0.00259461
0.00259461
0.00259461
0.00259461
0.00259461
0.0025946
0.0025946
0.00259458
0.00259457
0.00259456
0.00259454
0.00259452
0.0025945
0.00259447
0.00259445
0.00259442
0.00259439
0.00259436
0.00259433
0.0025943
0.00259426
0.00259423
0.00259419
0.00259415
0.00259411
0.00259406
0.00259402
0.00259397
0.00259392
0.00259387
0.00259382
0.00259377
0.00259371
0.00259366
0.0025936
0.00259354
0.00259348
0.00259342
0.00259336
0.0025933
0.00259324
0.00259319
0.00259315
0.00259313
0.00259312
0.00259311
0.00259309
0.00259307
0.00259305
0.00259302
0.00259299
0.00259295
0.00259291
0.00259287
0.00259282
0.00259277
0.00259272
0.00259266
0.00259261
0.00259255
0.00259249
0.00259242
0.00259236
0.0025923
0.00259223
0.00259217
0.00259211
0.00259204
0.00259198
0.00259191
0.00259185
0.00259178
0.00259172
0.00259166
0.0025916
0.00259154
0.00259148
0.00259142
0.00259137
0.00259131
0.00259126
0.00259121
0.00259116
0.00259111
0.00259107
0.00259103
0.00259099
0.00259095
0.00259091
0.00259087
0.00259084
0.00259081
0.00259078
0.00259075
0.00259073
0.0025907
0.00259068
0.00259066
0.00259064
0.00259063
0.00259063
0.00259065
0.00259068
0.00259073
0.00259077
0.00259082
0.00259086
0.0025909
0.00259094
0.00259097
0.002591
0.00259102
0.00259105
0.00259105
0.00259129
0.00256553
0.00256607
0.0025662
0.00256624
0.00256626
0.00256627
0.00256628
0.00256629
0.00256629
0.0025663
0.0025663
0.00256629
0.00256629
0.00256628
0.00256627
0.00256626
0.00256625
0.00256623
0.00256621
0.00256619
0.00256617
0.00256615
0.00256612
0.0025661
0.00256607
0.00256604
0.00256601
0.00256597
0.00256594
0.0025659
0.00256586
0.00256582
0.00256578
0.00256574
0.00256569
0.00256564
0.0025656
0.00256555
0.0025655
0.00256544
0.00256539
0.00256533
0.00256528
0.00256522
0.00256516
0.0025651
0.00256504
0.00256499
0.00256495
0.00256492
0.00256489
0.00256486
0.00256483
0.0025648
0.00256477
0.00256474
0.0025647
0.00256466
0.00256462
0.00256457
0.00256452
0.00256447
0.00256442
0.00256437
0.00256432
0.00256426
0.0025642
0.00256414
0.00256408
0.00256402
0.00256396
0.0025639
0.00256384
0.00256378
0.00256372
0.00256366
0.0025636
0.00256354
0.00256348
0.00256342
0.00256337
0.00256331
0.00256326
0.0025632
0.00256315
0.0025631
0.00256305
0.00256301
0.00256296
0.00256292
0.00256288
0.00256284
0.0025628
0.00256276
0.00256273
0.00256269
0.00256266
0.00256264
0.00256261
0.00256258
0.00256256
0.00256254
0.00256252
0.0025625
0.00256248
0.00256247
0.00256247
0.00256248
0.0025625
0.00256253
0.00256256
0.00256259
0.00256262
0.00256265
0.00256268
0.0025627
0.00256273
0.00256275
0.00256276
0.00256299
0.0025326
0.00253314
0.00253326
0.0025333
0.00253332
0.00253334
0.00253335
0.00253336
0.00253337
0.00253337
0.00253338
0.00253338
0.00253338
0.00253337
0.00253337
0.00253336
0.00253335
0.00253334
0.00253333
0.00253332
0.0025333
0.00253328
0.00253326
0.00253324
0.00253322
0.00253319
0.00253316
0.00253313
0.0025331
0.00253307
0.00253304
0.002533
0.00253296
0.00253292
0.00253288
0.00253284
0.0025328
0.00253275
0.0025327
0.00253265
0.0025326
0.00253255
0.0025325
0.00253244
0.00253239
0.00253233
0.00253227
0.00253222
0.00253217
0.00253212
0.00253208
0.00253204
0.00253201
0.00253197
0.00253193
0.00253189
0.00253185
0.00253181
0.00253177
0.00253172
0.00253168
0.00253163
0.00253158
0.00253153
0.00253148
0.00253142
0.00253137
0.00253131
0.00253126
0.0025312
0.00253114
0.00253108
0.00253103
0.00253097
0.00253091
0.00253085
0.0025308
0.00253074
0.00253068
0.00253063
0.00253057
0.00253052
0.00253047
0.00253042
0.00253037
0.00253032
0.00253027
0.00253023
0.00253018
0.00253014
0.0025301
0.00253006
0.00253002
0.00252999
0.00252995
0.00252992
0.00252989
0.00252986
0.00252984
0.00252981
0.00252979
0.00252977
0.00252975
0.00252973
0.00252972
0.0025297
0.0025297
0.00252969
0.0025297
0.00252971
0.00252973
0.00252974
0.00252977
0.00252979
0.00252981
0.00252983
0.00252985
0.00252987
0.00252988
0.00253009
0.00249541
0.00249594
0.00249607
0.0024961
0.00249612
0.00249614
0.00249615
0.00249616
0.00249617
0.00249618
0.00249619
0.00249619
0.00249619
0.0024962
0.00249619
0.00249619
0.00249619
0.00249618
0.00249617
0.00249616
0.00249615
0.00249614
0.00249612
0.0024961
0.00249608
0.00249606
0.00249604
0.00249601
0.00249599
0.00249596
0.00249593
0.0024959
0.00249586
0.00249583
0.00249579
0.00249575
0.00249571
0.00249567
0.00249562
0.00249558
0.00249553
0.00249548
0.00249543
0.00249538
0.00249533
0.00249528
0.00249522
0.00249517
0.00249512
0.00249506
0.00249502
0.00249497
0.00249493
0.00249488
0.00249484
0.0024948
0.00249475
0.00249471
0.00249466
0.00249462
0.00249457
0.00249452
0.00249447
0.00249442
0.00249437
0.00249432
0.00249427
0.00249421
0.00249416
0.0024941
0.00249405
0.00249399
0.00249394
0.00249388
0.00249382
0.00249377
0.00249371
0.00249366
0.00249361
0.00249355
0.0024935
0.00249345
0.0024934
0.00249335
0.0024933
0.00249325
0.00249321
0.00249316
0.00249312
0.00249308
0.00249304
0.002493
0.00249296
0.00249293
0.0024929
0.00249287
0.00249284
0.00249281
0.00249278
0.00249276
0.00249274
0.00249272
0.0024927
0.00249268
0.00249267
0.00249265
0.00249264
0.00249263
0.00249263
0.00249263
0.00249264
0.00249265
0.00249266
0.00249268
0.00249269
0.00249271
0.00249272
0.00249274
0.00249274
0.00249295
0.0024543
0.00245482
0.00245494
0.00245498
0.002455
0.00245502
0.00245503
0.00245504
0.00245505
0.00245506
0.00245507
0.00245508
0.00245508
0.00245509
0.00245509
0.00245509
0.00245509
0.00245508
0.00245508
0.00245507
0.00245507
0.00245506
0.00245504
0.00245503
0.00245501
0.002455
0.00245498
0.00245496
0.00245493
0.00245491
0.00245488
0.00245485
0.00245482
0.00245479
0.00245476
0.00245472
0.00245468
0.00245464
0.0024546
0.00245456
0.00245452
0.00245447
0.00245443
0.00245438
0.00245433
0.00245428
0.00245423
0.00245417
0.00245412
0.00245407
0.00245402
0.00245397
0.00245392
0.00245387
0.00245382
0.00245378
0.00245373
0.00245368
0.00245363
0.00245359
0.00245354
0.00245349
0.00245344
0.00245339
0.00245334
0.00245329
0.00245323
0.00245318
0.00245313
0.00245307
0.00245302
0.00245296
0.00245291
0.00245286
0.0024528
0.00245275
0.00245269
0.00245264
0.00245259
0.00245254
0.00245249
0.00245244
0.00245239
0.00245234
0.00245229
0.00245224
0.0024522
0.00245216
0.00245211
0.00245207
0.00245204
0.002452
0.00245196
0.00245193
0.0024519
0.00245187
0.00245184
0.00245181
0.00245179
0.00245176
0.00245174
0.00245172
0.0024517
0.00245169
0.00245167
0.00245166
0.00245165
0.00245164
0.00245163
0.00245163
0.00245163
0.00245163
0.00245164
0.00245165
0.00245166
0.00245167
0.00245168
0.00245169
0.00245169
0.00245188
0.0024096
0.00241011
0.00241023
0.00241027
0.00241029
0.0024103
0.00241032
0.00241033
0.00241034
0.00241035
0.00241036
0.00241037
0.00241038
0.00241038
0.00241039
0.00241039
0.00241039
0.00241039
0.00241039
0.00241039
0.00241038
0.00241038
0.00241037
0.00241036
0.00241035
0.00241033
0.00241031
0.0024103
0.00241028
0.00241026
0.00241023
0.00241021
0.00241018
0.00241015
0.00241012
0.00241009
0.00241005
0.00241002
0.00240998
0.00240994
0.0024099
0.00240986
0.00240981
0.00240977
0.00240972
0.00240967
0.00240962
0.00240957
0.00240952
0.00240947
0.00240942
0.00240937
0.00240932
0.00240926
0.00240921
0.00240916
0.00240911
0.00240907
0.00240902
0.00240897
0.00240892
0.00240886
0.00240881
0.00240876
0.00240871
0.00240866
0.00240861
0.00240855
0.0024085
0.00240845
0.00240839
0.00240834
0.00240829
0.00240823
0.00240818
0.00240813
0.00240807
0.00240802
0.00240797
0.00240792
0.00240787
0.00240782
0.00240777
0.00240772
0.00240768
0.00240763
0.00240759
0.00240755
0.00240751
0.00240747
0.00240743
0.00240739
0.00240736
0.00240732
0.00240729
0.00240726
0.00240724
0.00240721
0.00240718
0.00240716
0.00240714
0.00240712
0.0024071
0.00240709
0.00240707
0.00240706
0.00240705
0.00240704
0.00240703
0.00240702
0.00240702
0.00240702
0.00240702
0.00240703
0.00240703
0.00240704
0.00240705
0.00240706
0.00240706
0.00240723
0.00236164
0.00236214
0.00236226
0.0023623
0.00236231
0.00236233
0.00236234
0.00236236
0.00236237
0.00236238
0.00236239
0.0023624
0.00236241
0.00236242
0.00236243
0.00236243
0.00236244
0.00236244
0.00236244
0.00236244
0.00236244
0.00236244
0.00236243
0.00236242
0.00236241
0.0023624
0.00236239
0.00236237
0.00236236
0.00236234
0.00236232
0.00236229
0.00236227
0.00236224
0.00236222
0.00236219
0.00236216
0.00236212
0.00236209
0.00236205
0.00236201
0.00236197
0.00236193
0.00236189
0.00236184
0.0023618
0.00236175
0.0023617
0.00236165
0.0023616
0.00236155
0.00236149
0.00236144
0.00236139
0.00236134
0.00236129
0.00236124
0.00236118
0.00236113
0.00236108
0.00236103
0.00236098
0.00236092
0.00236087
0.00236082
0.00236077
0.00236071
0.00236066
0.00236061
0.00236055
0.0023605
0.00236045
0.00236039
0.00236034
0.00236029
0.00236024
0.00236018
0.00236013
0.00236008
0.00236003
0.00235998
0.00235993
0.00235989
0.00235984
0.00235979
0.00235975
0.00235971
0.00235966
0.00235962
0.00235958
0.00235955
0.00235951
0.00235948
0.00235944
0.00235941
0.00235938
0.00235936
0.00235933
0.00235931
0.00235928
0.00235926
0.00235925
0.00235923
0.00235921
0.0023592
0.00235918
0.00235917
0.00235916
0.00235916
0.00235915
0.00235914
0.00235914
0.00235914
0.00235914
0.00235914
0.00235915
0.00235915
0.00235916
0.00235916
0.00235931
0.00231074
0.00231123
0.00231135
0.00231138
0.0023114
0.00231142
0.00231143
0.00231145
0.00231146
0.00231148
0.00231149
0.0023115
0.00231151
0.00231152
0.00231153
0.00231154
0.00231155
0.00231155
0.00231156
0.00231156
0.00231156
0.00231156
0.00231155
0.00231155
0.00231154
0.00231153
0.00231152
0.00231151
0.0023115
0.00231148
0.00231146
0.00231144
0.00231142
0.0023114
0.00231137
0.00231134
0.00231131
0.00231128
0.00231125
0.00231122
0.00231118
0.00231114
0.0023111
0.00231106
0.00231102
0.00231097
0.00231093
0.00231088
0.00231083
0.00231078
0.00231073
0.00231068
0.00231062
0.00231057
0.00231052
0.00231047
0.00231041
0.00231036
0.00231031
0.00231025
0.0023102
0.00231015
0.00231009
0.00231004
0.00230999
0.00230993
0.00230988
0.00230983
0.00230977
0.00230972
0.00230967
0.00230961
0.00230956
0.00230951
0.00230945
0.0023094
0.00230935
0.0023093
0.00230925
0.0023092
0.00230915
0.0023091
0.00230905
0.00230901
0.00230896
0.00230892
0.00230888
0.00230883
0.00230879
0.00230876
0.00230872
0.00230868
0.00230865
0.00230862
0.00230859
0.00230856
0.00230853
0.00230851
0.00230848
0.00230846
0.00230844
0.00230842
0.0023084
0.00230839
0.00230837
0.00230836
0.00230835
0.00230834
0.00230833
0.00230833
0.00230832
0.00230832
0.00230831
0.00230831
0.00230832
0.00230832
0.00230832
0.00230833
0.00230833
0.00230846
0.00225722
0.0022577
0.00225782
0.00225785
0.00225787
0.00225789
0.00225791
0.00225792
0.00225794
0.00225795
0.00225797
0.00225798
0.002258
0.00225801
0.00225802
0.00225803
0.00225804
0.00225805
0.00225805
0.00225806
0.00225806
0.00225806
0.00225806
0.00225806
0.00225805
0.00225805
0.00225804
0.00225803
0.00225802
0.002258
0.00225799
0.00225797
0.00225795
0.00225793
0.0022579
0.00225788
0.00225785
0.00225782
0.00225779
0.00225776
0.00225772
0.00225768
0.00225765
0.00225761
0.00225756
0.00225752
0.00225747
0.00225743
0.00225738
0.00225733
0.00225728
0.00225723
0.00225717
0.00225712
0.00225707
0.00225701
0.00225696
0.00225691
0.00225685
0.0022568
0.00225674
0.00225669
0.00225664
0.00225658
0.00225653
0.00225647
0.00225642
0.00225636
0.00225631
0.00225626
0.0022562
0.00225615
0.0022561
0.00225604
0.00225599
0.00225594
0.00225589
0.00225584
0.00225579
0.00225574
0.00225569
0.00225564
0.00225559
0.00225555
0.0022555
0.00225546
0.00225542
0.00225537
0.00225534
0.0022553
0.00225526
0.00225523
0.00225519
0.00225516
0.00225513
0.0022551
0.00225507
0.00225505
0.00225503
0.002255
0.00225498
0.00225497
0.00225495
0.00225493
0.00225492
0.00225491
0.0022549
0.00225489
0.00225488
0.00225487
0.00225487
0.00225486
0.00225486
0.00225486
0.00225486
0.00225486
0.00225487
0.00225487
0.00225487
0.00225499
0.00220139
0.00220186
0.00220197
0.00220201
0.00220203
0.00220205
0.00220207
0.00220209
0.0022021
0.00220212
0.00220214
0.00220215
0.00220217
0.00220218
0.0022022
0.00220221
0.00220222
0.00220223
0.00220224
0.00220225
0.00220225
0.00220225
0.00220226
0.00220225
0.00220225
0.00220225
0.00220224
0.00220223
0.00220222
0.00220221
0.0022022
0.00220218
0.00220217
0.00220215
0.00220212
0.0022021
0.00220207
0.00220205
0.00220201
0.00220198
0.00220195
0.00220191
0.00220187
0.00220183
0.00220179
0.00220175
0.0022017
0.00220166
0.00220161
0.00220156
0.00220151
0.00220146
0.0022014
0.00220135
0.0022013
0.00220124
0.00220119
0.00220113
0.00220108
0.00220102
0.00220097
0.00220091
0.00220086
0.0022008
0.00220075
0.00220069
0.00220064
0.00220058
0.00220053
0.00220047
0.00220042
0.00220037
0.00220031
0.00220026
0.00220021
0.00220016
0.0022001
0.00220005
0.0022
0.00219995
0.0021999
0.00219986
0.00219981
0.00219977
0.00219972
0.00219968
0.00219964
0.00219959
0.00219956
0.00219952
0.00219948
0.00219945
0.00219941
0.00219938
0.00219935
0.00219932
0.0021993
0.00219927
0.00219925
0.00219923
0.00219921
0.00219919
0.00219917
0.00219916
0.00219914
0.00219913
0.00219912
0.00219911
0.0021991
0.0021991
0.00219909
0.00219909
0.00219909
0.00219909
0.00219909
0.00219909
0.00219909
0.0021991
0.0021991
0.00219921
0.00214354
0.002144
0.00214411
0.00214415
0.00214418
0.0021442
0.00214422
0.00214424
0.00214426
0.00214428
0.0021443
0.00214432
0.00214434
0.00214435
0.00214437
0.00214438
0.0021444
0.00214441
0.00214442
0.00214443
0.00214443
0.00214444
0.00214444
0.00214444
0.00214444
0.00214444
0.00214444
0.00214443
0.00214442
0.00214441
0.0021444
0.00214439
0.00214437
0.00214435
0.00214433
0.00214431
0.00214428
0.00214425
0.00214422
0.00214419
0.00214416
0.00214412
0.00214408
0.00214404
0.002144
0.00214395
0.00214391
0.00214386
0.00214381
0.00214376
0.00214371
0.00214366
0.00214361
0.00214355
0.0021435
0.00214345
0.00214339
0.00214334
0.00214328
0.00214322
0.00214317
0.00214311
0.00214306
0.002143
0.00214295
0.00214289
0.00214283
0.00214278
0.00214272
0.00214267
0.00214262
0.00214256
0.00214251
0.00214246
0.0021424
0.00214235
0.0021423
0.00214225
0.0021422
0.00214215
0.0021421
0.00214205
0.00214201
0.00214196
0.00214192
0.00214187
0.00214183
0.00214179
0.00214175
0.00214172
0.00214168
0.00214165
0.00214161
0.00214158
0.00214155
0.00214152
0.0021415
0.00214147
0.00214145
0.00214143
0.00214141
0.00214139
0.00214138
0.00214136
0.00214135
0.00214134
0.00214132
0.00214132
0.00214131
0.0021413
0.0021413
0.00214129
0.00214129
0.00214129
0.00214129
0.0021413
0.0021413
0.00214131
0.00214131
0.00214141
0.00208396
0.00208442
0.00208454
0.00208458
0.0020846
0.00208463
0.00208465
0.00208468
0.0020847
0.00208472
0.00208474
0.00208476
0.00208478
0.0020848
0.00208482
0.00208484
0.00208485
0.00208487
0.00208488
0.00208489
0.0020849
0.00208491
0.00208491
0.00208492
0.00208492
0.00208492
0.00208491
0.00208491
0.0020849
0.00208489
0.00208488
0.00208487
0.00208485
0.00208484
0.00208481
0.00208479
0.00208477
0.00208474
0.00208471
0.00208467
0.00208464
0.0020846
0.00208456
0.00208452
0.00208447
0.00208443
0.00208438
0.00208434
0.00208429
0.00208424
0.00208418
0.00208413
0.00208408
0.00208402
0.00208397
0.00208391
0.00208386
0.0020838
0.00208375
0.00208369
0.00208363
0.00208358
0.00208352
0.00208346
0.00208341
0.00208335
0.0020833
0.00208324
0.00208319
0.00208313
0.00208308
0.00208302
0.00208297
0.00208292
0.00208287
0.00208281
0.00208276
0.00208271
0.00208266
0.00208261
0.00208256
0.00208252
0.00208247
0.00208243
0.00208238
0.00208234
0.0020823
0.00208226
0.00208222
0.00208218
0.00208215
0.00208211
0.00208208
0.00208205
0.00208202
0.00208199
0.00208197
0.00208194
0.00208192
0.0020819
0.00208188
0.00208186
0.00208185
0.00208183
0.00208182
0.00208181
0.0020818
0.00208179
0.00208178
0.00208177
0.00208177
0.00208177
0.00208177
0.00208177
0.00208177
0.00208178
0.00208179
0.0020818
0.0020818
0.00208188
0.00202295
0.0020234
0.00202351
0.00202356
0.00202359
0.00202362
0.00202364
0.00202367
0.0020237
0.00202372
0.00202375
0.00202377
0.00202379
0.00202382
0.00202384
0.00202385
0.00202387
0.00202389
0.0020239
0.00202392
0.00202393
0.00202393
0.00202394
0.00202395
0.00202395
0.00202395
0.00202395
0.00202395
0.00202394
0.00202393
0.00202392
0.00202391
0.00202389
0.00202387
0.00202385
0.00202383
0.0020238
0.00202377
0.00202374
0.0020237
0.00202367
0.00202363
0.00202359
0.00202354
0.0020235
0.00202345
0.0020234
0.00202335
0.0020233
0.00202325
0.0020232
0.00202314
0.00202309
0.00202304
0.00202298
0.00202292
0.00202287
0.00202281
0.00202275
0.0020227
0.00202264
0.00202259
0.00202253
0.00202247
0.00202242
0.00202236
0.0020223
0.00202225
0.00202219
0.00202214
0.00202209
0.00202203
0.00202198
0.00202193
0.00202187
0.00202182
0.00202177
0.00202172
0.00202167
0.00202162
0.00202157
0.00202153
0.00202148
0.00202144
0.00202139
0.00202135
0.00202131
0.00202127
0.00202123
0.0020212
0.00202116
0.00202113
0.00202109
0.00202106
0.00202104
0.00202101
0.00202098
0.00202096
0.00202094
0.00202092
0.0020209
0.00202088
0.00202086
0.00202085
0.00202084
0.00202082
0.00202081
0.00202081
0.0020208
0.00202079
0.00202079
0.00202079
0.00202079
0.0020208
0.0020208
0.00202081
0.00202082
0.00202084
0.00202085
0.00202092
0.00196076
0.0019612
0.00196132
0.00196137
0.00196141
0.00196144
0.00196147
0.0019615
0.00196153
0.00196155
0.00196158
0.00196161
0.00196163
0.00196166
0.00196168
0.0019617
0.00196172
0.00196174
0.00196175
0.00196177
0.00196178
0.00196179
0.0019618
0.00196181
0.00196181
0.00196181
0.00196181
0.00196181
0.0019618
0.0019618
0.00196178
0.00196177
0.00196175
0.00196173
0.00196171
0.00196168
0.00196165
0.00196162
0.00196159
0.00196155
0.00196151
0.00196147
0.00196142
0.00196138
0.00196133
0.00196128
0.00196123
0.00196118
0.00196113
0.00196108
0.00196102
0.00196097
0.00196091
0.00196086
0.0019608
0.00196074
0.00196069
0.00196063
0.00196057
0.00196052
0.00196046
0.0019604
0.00196035
0.00196029
0.00196023
0.00196018
0.00196012
0.00196007
0.00196001
0.00195996
0.0019599
0.00195985
0.0019598
0.00195975
0.00195969
0.00195964
0.00195959
0.00195954
0.00195949
0.00195944
0.0019594
0.00195935
0.00195931
0.00195926
0.00195922
0.00195918
0.00195914
0.0019591
0.00195906
0.00195902
0.00195899
0.00195896
0.00195892
0.00195889
0.00195887
0.00195884
0.00195881
0.00195879
0.00195877
0.00195875
0.00195873
0.00195871
0.0019587
0.00195868
0.00195867
0.00195866
0.00195865
0.00195864
0.00195863
0.00195863
0.00195863
0.00195863
0.00195864
0.00195864
0.00195865
0.00195867
0.00195868
0.0019587
0.00195872
0.00195878
0.00189766
0.0018981
0.00189822
0.00189827
0.00189831
0.00189834
0.00189838
0.00189841
0.00189844
0.00189848
0.00189851
0.00189853
0.00189856
0.00189859
0.00189861
0.00189864
0.00189866
0.00189868
0.00189869
0.00189871
0.00189872
0.00189873
0.00189874
0.00189875
0.00189875
0.00189876
0.00189876
0.00189875
0.00189875
0.00189874
0.00189873
0.00189871
0.00189869
0.00189867
0.00189864
0.00189861
0.00189858
0.00189855
0.00189851
0.00189847
0.00189842
0.00189838
0.00189833
0.00189828
0.00189823
0.00189818
0.00189813
0.00189808
0.00189802
0.00189797
0.00189791
0.00189785
0.0018978
0.00189774
0.00189769
0.00189763
0.00189757
0.00189751
0.00189746
0.0018974
0.00189734
0.00189729
0.00189723
0.00189717
0.00189712
0.00189706
0.00189701
0.00189695
0.0018969
0.00189685
0.00189679
0.00189674
0.00189669
0.00189663
0.00189658
0.00189653
0.00189648
0.00189643
0.00189638
0.00189634
0.00189629
0.00189624
0.0018962
0.00189616
0.00189611
0.00189607
0.00189603
0.001896
0.00189596
0.00189592
0.00189589
0.00189586
0.00189583
0.0018958
0.00189577
0.00189574
0.00189572
0.00189569
0.00189567
0.00189565
0.00189563
0.00189562
0.0018956
0.00189559
0.00189557
0.00189556
0.00189555
0.00189555
0.00189554
0.00189554
0.00189554
0.00189555
0.00189556
0.00189557
0.00189559
0.00189561
0.00189563
0.00189565
0.00189567
0.00189573
0.00183389
0.00183433
0.00183445
0.00183451
0.00183455
0.00183459
0.00183463
0.00183466
0.0018347
0.00183473
0.00183476
0.0018348
0.00183482
0.00183485
0.00183488
0.0018349
0.00183492
0.00183494
0.00183496
0.00183498
0.00183499
0.001835
0.00183501
0.00183502
0.00183503
0.00183503
0.00183503
0.00183503
0.00183502
0.00183501
0.00183499
0.00183497
0.00183495
0.00183493
0.00183489
0.00183486
0.00183482
0.00183478
0.00183474
0.0018347
0.00183465
0.0018346
0.00183455
0.0018345
0.00183444
0.00183439
0.00183433
0.00183428
0.00183422
0.00183417
0.00183411
0.00183405
0.001834
0.00183394
0.00183388
0.00183382
0.00183377
0.00183371
0.00183365
0.0018336
0.00183354
0.00183348
0.00183343
0.00183337
0.00183332
0.00183326
0.00183321
0.00183315
0.0018331
0.00183305
0.00183299
0.00183294
0.00183289
0.00183284
0.00183279
0.00183274
0.00183269
0.00183264
0.00183259
0.00183255
0.0018325
0.00183246
0.00183241
0.00183237
0.00183233
0.00183229
0.00183225
0.00183221
0.00183217
0.00183214
0.00183211
0.00183207
0.00183204
0.00183202
0.00183199
0.00183196
0.00183194
0.00183192
0.00183189
0.00183187
0.00183186
0.00183184
0.00183182
0.00183181
0.0018318
0.00183179
0.00183178
0.00183178
0.00183178
0.00183178
0.00183178
0.0018318
0.00183181
0.00183183
0.00183185
0.00183188
0.00183191
0.00183194
0.00183197
0.00183201
0.0017697
0.00177013
0.00177026
0.00177032
0.00177036
0.0017704
0.00177045
0.00177048
0.00177052
0.00177056
0.00177059
0.00177063
0.00177066
0.00177068
0.00177071
0.00177074
0.00177076
0.00177078
0.0017708
0.00177081
0.00177083
0.00177084
0.00177085
0.00177086
0.00177086
0.00177087
0.00177086
0.00177086
0.00177085
0.00177083
0.00177081
0.00177079
0.00177076
0.00177073
0.00177069
0.00177065
0.00177061
0.00177057
0.00177052
0.00177047
0.00177042
0.00177036
0.00177031
0.00177025
0.0017702
0.00177014
0.00177008
0.00177003
0.00176997
0.00176991
0.00176985
0.00176979
0.00176974
0.00176968
0.00176962
0.00176956
0.00176951
0.00176945
0.00176939
0.00176934
0.00176928
0.00176922
0.00176917
0.00176911
0.00176906
0.00176901
0.00176895
0.0017689
0.00176885
0.00176879
0.00176874
0.00176869
0.00176864
0.00176859
0.00176854
0.00176849
0.00176845
0.0017684
0.00176835
0.00176831
0.00176826
0.00176822
0.00176817
0.00176813
0.00176809
0.00176805
0.00176802
0.00176798
0.00176794
0.00176791
0.00176788
0.00176785
0.00176782
0.00176779
0.00176776
0.00176774
0.00176771
0.00176769
0.00176767
0.00176765
0.00176763
0.00176762
0.0017676
0.00176759
0.00176758
0.00176757
0.00176756
0.00176756
0.00176757
0.00176757
0.00176759
0.00176761
0.00176763
0.00176766
0.00176769
0.00176772
0.00176776
0.00176779
0.00176783
0.00176787
0.00170531
0.00170573
0.00170586
0.00170592
0.00170597
0.00170602
0.00170606
0.0017061
0.00170614
0.00170618
0.00170621
0.00170625
0.00170628
0.00170631
0.00170634
0.00170636
0.00170638
0.0017064
0.00170642
0.00170644
0.00170645
0.00170646
0.00170647
0.00170648
0.00170648
0.00170648
0.00170648
0.00170647
0.00170646
0.00170644
0.00170641
0.00170638
0.00170634
0.0017063
0.00170626
0.00170621
0.00170617
0.00170611
0.00170606
0.00170601
0.00170595
0.00170589
0.00170583
0.00170578
0.00170572
0.00170566
0.0017056
0.00170554
0.00170548
0.00170542
0.00170536
0.0017053
0.00170524
0.00170519
0.00170513
0.00170507
0.00170501
0.00170496
0.0017049
0.00170485
0.00170479
0.00170474
0.00170468
0.00170463
0.00170457
0.00170452
0.00170447
0.00170442
0.00170437
0.00170432
0.00170427
0.00170422
0.00170417
0.00170412
0.00170407
0.00170402
0.00170398
0.00170393
0.00170388
0.00170384
0.0017038
0.00170375
0.00170371
0.00170367
0.00170363
0.0017036
0.00170356
0.00170352
0.00170349
0.00170346
0.00170342
0.00170339
0.00170337
0.00170334
0.00170331
0.00170329
0.00170327
0.00170324
0.00170322
0.00170321
0.00170319
0.00170317
0.00170316
0.00170315
0.00170314
0.00170313
0.00170313
0.00170313
0.00170314
0.00170316
0.00170318
0.00170321
0.00170324
0.00170328
0.00170332
0.00170336
0.00170341
0.00170345
0.0017035
0.00170353
0.00164093
0.00164135
0.00164148
0.00164154
0.0016416
0.00164164
0.00164169
0.00164173
0.00164177
0.00164181
0.00164184
0.00164188
0.00164191
0.00164194
0.00164196
0.00164199
0.00164201
0.00164203
0.00164205
0.00164206
0.00164207
0.00164209
0.00164209
0.0016421
0.0016421
0.0016421
0.00164209
0.00164207
0.00164205
0.00164202
0.00164199
0.00164195
0.0016419
0.00164185
0.0016418
0.00164175
0.00164169
0.00164163
0.00164158
0.00164152
0.00164146
0.00164139
0.00164133
0.00164127
0.00164121
0.00164115
0.00164109
0.00164103
0.00164097
0.00164091
0.00164085