/*--------------------------------*- C++ -*----------------------------------*\
  =========                 |
  \\      /  F ield         | OpenFOAM: The Open Source CFD Toolbox
   \\    /   O peration     | Website:  https://openfoam.org
    \\  /    A nd           | Version:  7
     \\/     M anipulation  |
\*---------------------------------------------------------------------------*/
FoamFile
{
    version     2.0;
    format      ascii;
    class       volScalarField;
    location    "1000";
    object      omega;
}
// * * * * * * * * * * * * * * * * * * * * * * * * * * * * * * * * * * * * * //

dimensions      [0 0 -1 0 0 0 0];

internalField   nonuniform List<scalar> 
4000
(
0.0225514
0.0225486
0.0225482
0.0225483
0.0225484
0.0225486
0.0225488
0.022549
0.0225492
0.0225494
0.0225496
0.0225498
0.02255
0.0225502
0.0225505
0.0225507
0.0225509
0.0225512
0.0225514
0.0225517
0.0225519
0.0225522
0.0225525
0.0225527
0.022553
0.0225533
0.0225536
0.0225539
0.0225542
0.0225545
0.0225548
0.0225552
0.0225555
0.0225558
0.0225562
0.0225565
0.0225569
0.0225573
0.0225576
0.022558
0.0225584
0.0225588
0.0225592
0.0225596
0.0225599
0.0225568
0.0225548
0.0225542
0.0225542
0.0225544
0.0225548
0.0225551
0.0225556
0.022556
0.0225564
0.0225569
0.0225574
0.0225578
0.0225583
0.0225588
0.0225593
0.0225598
0.0225603
0.0225608
0.0225613
0.0225618
0.0225623
0.0225628
0.0225633
0.0225638
0.0225643
0.0225648
0.0225652
0.0225657
0.0225662
0.0225666
0.0225671
0.0225675
0.0225679
0.0225683
0.0225687
0.0225691
0.0225694
0.0225698
0.0225701
0.0225704
0.0225707
0.022571
0.0225713
0.0225715
0.0225718
0.022572
0.0225722
0.0225724
0.0225726
0.0225727
0.0225729
0.022573
0.0225732
0.0225733
0.0225734
0.0225735
0.0225736
0.0225735
0.02257
0.0225676
0.0225665
0.0225661
0.022566
0.0225659
0.0225659
0.0225659
0.0225659
0.0225659
0.022566
0.022566
0.022566
0.0225661
0.0225662
0.0225649
0.0226061
0.0226033
0.0226027
0.0226026
0.0226026
0.0226027
0.0226028
0.0226029
0.0226031
0.0226032
0.0226033
0.0226035
0.0226036
0.0226038
0.022604
0.0226042
0.0226043
0.0226045
0.0226047
0.022605
0.0226052
0.0226054
0.0226056
0.0226059
0.0226061
0.0226064
0.0226066
0.0226069
0.0226072
0.0226074
0.0226077
0.022608
0.0226083
0.0226086
0.022609
0.0226093
0.0226096
0.02261
0.0226103
0.0226107
0.022611
0.0226114
0.0226118
0.0226122
0.0226126
0.0226119
0.0226109
0.0226102
0.0226098
0.0226096
0.0226097
0.0226098
0.02261
0.0226103
0.0226106
0.022611
0.0226113
0.0226117
0.0226121
0.0226125
0.0226129
0.0226134
0.0226138
0.0226143
0.0226147
0.0226152
0.0226156
0.0226161
0.0226165
0.022617
0.0226174
0.0226179
0.0226183
0.0226188
0.0226192
0.0226196
0.0226201
0.0226205
0.0226209
0.0226213
0.0226216
0.022622
0.0226224
0.0226227
0.022623
0.0226233
0.0226236
0.0226239
0.0226242
0.0226244
0.0226247
0.0226249
0.0226251
0.0226253
0.0226255
0.0226257
0.0226258
0.022626
0.0226261
0.0226262
0.0226263
0.0226264
0.0226265
0.0226266
0.0226256
0.0226243
0.0226231
0.0226223
0.0226218
0.0226215
0.0226212
0.022621
0.0226209
0.0226208
0.0226207
0.0226207
0.0226206
0.0226206
0.0226207
0.0226194
0.0227091
0.0227063
0.0227056
0.0227055
0.0227054
0.0227054
0.0227054
0.0227055
0.0227055
0.0227056
0.0227057
0.0227058
0.0227059
0.022706
0.0227061
0.0227063
0.0227064
0.0227066
0.0227067
0.0227069
0.0227071
0.0227073
0.0227075
0.0227077
0.0227079
0.0227081
0.0227083
0.0227086
0.0227088
0.0227091
0.0227093
0.0227096
0.0227099
0.0227102
0.0227105
0.0227108
0.0227111
0.0227114
0.0227117
0.0227121
0.0227124
0.0227128
0.0227131
0.0227135
0.0227139
0.0227139
0.0227137
0.0227134
0.0227131
0.0227129
0.0227128
0.0227129
0.022713
0.0227132
0.0227134
0.0227136
0.0227139
0.0227142
0.0227145
0.0227149
0.0227152
0.0227156
0.022716
0.0227164
0.0227168
0.0227172
0.0227176
0.022718
0.0227185
0.0227189
0.0227193
0.0227197
0.0227201
0.0227206
0.022721
0.0227214
0.0227218
0.0227222
0.0227225
0.0227229
0.0227233
0.0227236
0.022724
0.0227243
0.0227246
0.022725
0.0227252
0.0227255
0.0227258
0.0227261
0.0227263
0.0227265
0.0227267
0.022727
0.0227271
0.0227273
0.0227275
0.0227276
0.0227278
0.0227279
0.022728
0.0227281
0.0227282
0.0227283
0.0227281
0.0227275
0.0227268
0.0227262
0.0227256
0.0227252
0.0227248
0.0227246
0.0227243
0.0227241
0.022724
0.0227239
0.0227238
0.0227237
0.0227237
0.0227224
0.0228589
0.022856
0.0228553
0.0228551
0.022855
0.0228549
0.0228549
0.0228549
0.0228549
0.0228549
0.022855
0.022855
0.0228551
0.0228551
0.0228552
0.0228553
0.0228554
0.0228555
0.0228557
0.0228558
0.0228559
0.0228561
0.0228562
0.0228564
0.0228566
0.0228568
0.022857
0.0228572
0.0228574
0.0228576
0.0228579
0.0228581
0.0228584
0.0228586
0.0228589
0.0228592
0.0228595
0.0228598
0.0228601
0.0228604
0.0228607
0.0228611
0.0228614
0.0228617
0.0228621
0.0228624
0.0228625
0.0228625
0.0228625
0.0228624
0.0228624
0.0228624
0.0228625
0.0228626
0.0228628
0.022863
0.0228633
0.0228635
0.0228638
0.0228641
0.0228644
0.0228647
0.0228651
0.0228654
0.0228658
0.0228662
0.0228666
0.022867
0.0228673
0.0228677
0.0228681
0.0228685
0.0228689
0.0228693
0.0228697
0.0228701
0.0228705
0.0228708
0.0228712
0.0228716
0.0228719
0.0228723
0.0228726
0.0228729
0.0228732
0.0228736
0.0228738
0.0228741
0.0228744
0.0228747
0.0228749
0.0228751
0.0228754
0.0228756
0.0228758
0.0228759
0.0228761
0.0228763
0.0228764
0.0228765
0.0228767
0.0228768
0.0228769
0.022877
0.0228769
0.0228768
0.0228764
0.022876
0.0228756
0.0228753
0.0228749
0.0228746
0.0228744
0.0228742
0.022874
0.0228738
0.0228736
0.0228735
0.0228735
0.0228722
0.023054
0.0230511
0.0230504
0.0230502
0.0230501
0.02305
0.0230499
0.0230498
0.0230498
0.0230498
0.0230498
0.0230498
0.0230498
0.0230498
0.0230499
0.0230499
0.02305
0.0230501
0.0230502
0.0230503
0.0230504
0.0230505
0.0230506
0.0230508
0.0230509
0.0230511
0.0230512
0.0230514
0.0230516
0.0230518
0.023052
0.0230523
0.0230525
0.0230527
0.023053
0.0230532
0.0230535
0.0230538
0.0230541
0.0230544
0.0230547
0.023055
0.0230553
0.0230557
0.023056
0.0230563
0.0230566
0.0230568
0.0230569
0.023057
0.0230571
0.0230572
0.0230573
0.0230575
0.0230576
0.0230578
0.023058
0.0230583
0.0230585
0.0230588
0.0230591
0.0230594
0.0230597
0.0230601
0.0230604
0.0230607
0.0230611
0.0230615
0.0230618
0.0230622
0.0230626
0.0230629
0.0230633
0.0230637
0.0230641
0.0230644
0.0230648
0.0230652
0.0230655
0.0230659
0.0230662
0.0230666
0.0230669
0.0230672
0.0230675
0.0230678
0.0230681
0.0230684
0.0230687
0.0230689
0.0230692
0.0230694
0.0230696
0.0230698
0.02307
0.0230702
0.0230704
0.0230705
0.0230707
0.0230708
0.023071
0.0230711
0.0230712
0.0230713
0.0230713
0.0230713
0.0230712
0.023071
0.0230707
0.0230705
0.0230702
0.02307
0.0230697
0.0230695
0.0230693
0.0230691
0.023069
0.0230688
0.0230687
0.0230674
0.0232937
0.0232908
0.0232901
0.0232898
0.0232897
0.0232896
0.0232895
0.0232894
0.0232893
0.0232893
0.0232892
0.0232892
0.0232892
0.0232892
0.0232892
0.0232892
0.0232892
0.0232893
0.0232893
0.0232894
0.0232895
0.0232896
0.0232897
0.0232898
0.0232899
0.0232901
0.0232902
0.0232904
0.0232905
0.0232907
0.0232909
0.0232911
0.0232913
0.0232916
0.0232918
0.023292
0.0232923
0.0232926
0.0232928
0.0232931
0.0232934
0.0232937
0.023294
0.0232943
0.0232947
0.023295
0.0232953
0.0232956
0.0232958
0.023296
0.0232962
0.0232964
0.0232966
0.0232967
0.0232969
0.0232972
0.0232974
0.0232976
0.0232979
0.0232981
0.0232984
0.0232987
0.023299
0.0232993
0.0232997
0.0233
0.0233003
0.0233007
0.023301
0.0233014
0.0233017
0.0233021
0.0233025
0.0233028
0.0233032
0.0233035
0.0233039
0.0233042
0.0233046
0.0233049
0.0233053
0.0233056
0.0233059
0.0233063
0.0233066
0.0233069
0.0233072
0.0233074
0.0233077
0.023308
0.0233082
0.0233084
0.0233087
0.0233089
0.0233091
0.0233093
0.0233094
0.0233096
0.0233098
0.0233099
0.02331
0.0233101
0.0233102
0.0233103
0.0233104
0.0233105
0.0233104
0.0233104
0.0233103
0.0233101
0.0233099
0.0233097
0.0233095
0.0233093
0.0233092
0.023309
0.0233088
0.0233087
0.0233086
0.0233073
0.0235775
0.0235746
0.0235738
0.0235736
0.0235734
0.0235733
0.0235732
0.0235731
0.023573
0.0235729
0.0235728
0.0235728
0.0235727
0.0235727
0.0235727
0.0235727
0.0235727
0.0235727
0.0235727
0.0235727
0.0235728
0.0235729
0.0235729
0.023573
0.0235731
0.0235732
0.0235734
0.0235735
0.0235737
0.0235738
0.023574
0.0235742
0.0235744
0.0235746
0.0235748
0.023575
0.0235753
0.0235755
0.0235758
0.0235761
0.0235763
0.0235766
0.0235769
0.0235772
0.0235776
0.0235779
0.0235782
0.0235785
0.0235788
0.0235791
0.0235794
0.0235796
0.0235798
0.02358
0.0235803
0.0235805
0.0235808
0.023581
0.0235813
0.0235816
0.0235818
0.0235821
0.0235824
0.0235827
0.0235831
0.0235834
0.0235837
0.0235841
0.0235844
0.0235848
0.0235851
0.0235855
0.0235858
0.0235862
0.0235865
0.0235869
0.0235872
0.0235876
0.0235879
0.0235882
0.0235886
0.0235889
0.0235892
0.0235896
0.0235899
0.0235902
0.0235904
0.0235907
0.023591
0.0235913
0.0235915
0.0235918
0.023592
0.0235922
0.0235924
0.0235926
0.0235928
0.0235929
0.0235931
0.0235932
0.0235934
0.0235935
0.0235936
0.0235937
0.0235938
0.0235938
0.0235939
0.0235939
0.0235938
0.0235937
0.0235936
0.0235935
0.0235934
0.0235932
0.0235931
0.0235929
0.0235927
0.0235926
0.0235925
0.0235913
0.0239053
0.0239022
0.0239015
0.0239012
0.0239011
0.0239009
0.0239008
0.0239007
0.0239006
0.0239005
0.0239004
0.0239003
0.0239002
0.0239002
0.0239001
0.0239001
0.0239001
0.0239001
0.0239001
0.0239001
0.0239001
0.0239002
0.0239002
0.0239003
0.0239004
0.0239005
0.0239006
0.0239007
0.0239008
0.023901
0.0239011
0.0239013
0.0239015
0.0239017
0.0239019
0.0239021
0.0239023
0.0239025
0.0239028
0.0239031
0.0239033
0.0239036
0.0239039
0.0239042
0.0239045
0.0239048
0.0239052
0.0239055
0.0239058
0.0239061
0.0239064
0.0239067
0.023907
0.0239073
0.0239075
0.0239078
0.0239081
0.0239084
0.0239086
0.0239089
0.0239092
0.0239095
0.0239098
0.0239102
0.0239105
0.0239108
0.0239111
0.0239115
0.0239118
0.0239122
0.0239125
0.0239129
0.0239132
0.0239136
0.0239139
0.0239143
0.0239146
0.023915
0.0239153
0.0239156
0.023916
0.0239163
0.0239166
0.0239169
0.0239173
0.0239176
0.0239179
0.0239181
0.0239184
0.0239187
0.0239189
0.0239192
0.0239194
0.0239196
0.0239198
0.02392
0.0239202
0.0239204
0.0239206
0.0239207
0.0239208
0.023921
0.0239211
0.0239212
0.0239212
0.0239213
0.0239214
0.0239214
0.0239214
0.0239214
0.0239213
0.0239212
0.0239211
0.023921
0.0239209
0.0239208
0.0239206
0.0239205
0.0239204
0.0239192
0.0242772
0.0242741
0.0242733
0.024273
0.0242729
0.0242727
0.0242726
0.0242724
0.0242723
0.0242722
0.0242721
0.024272
0.0242719
0.0242718
0.0242718
0.0242717
0.0242717
0.0242717
0.0242716
0.0242716
0.0242716
0.0242717
0.0242717
0.0242717
0.0242718
0.0242719
0.024272
0.0242721
0.0242722
0.0242723
0.0242724
0.0242726
0.0242728
0.0242729
0.0242731
0.0242733
0.0242736
0.0242738
0.024274
0.0242743
0.0242746
0.0242748
0.0242751
0.0242754
0.0242757
0.024276
0.0242764
0.0242767
0.024277
0.0242774
0.0242777
0.024278
0.0242783
0.0242786
0.0242789
0.0242792
0.0242796
0.0242799
0.0242802
0.0242805
0.0242808
0.0242811
0.0242814
0.0242818
0.0242821
0.0242824
0.0242828
0.0242831
0.0242835
0.0242838
0.0242842
0.0242845
0.0242849
0.0242852
0.0242856
0.0242859
0.0242863
0.0242866
0.024287
0.0242873
0.0242877
0.024288
0.0242883
0.0242886
0.024289
0.0242893
0.0242896
0.0242898
0.0242901
0.0242904
0.0242907
0.0242909
0.0242911
0.0242914
0.0242916
0.0242918
0.024292
0.0242922
0.0242923
0.0242925
0.0242926
0.0242927
0.0242928
0.0242929
0.024293
0.0242931
0.0242932
0.0242932
0.0242932
0.0242932
0.0242932
0.0242932
0.0242931
0.024293
0.0242929
0.0242928
0.0242927
0.0242926
0.0242925
0.0242914
0.0246937
0.0246906
0.0246898
0.0246895
0.0246893
0.0246892
0.024689
0.0246889
0.0246888
0.0246886
0.0246885
0.0246884
0.0246883
0.0246882
0.0246881
0.024688
0.024688
0.0246879
0.0246879
0.0246879
0.0246878
0.0246878
0.0246879
0.0246879
0.0246879
0.024688
0.024688
0.0246881
0.0246882
0.0246883
0.0246885
0.0246886
0.0246888
0.024689
0.0246891
0.0246893
0.0246895
0.0246898
0.02469
0.0246903
0.0246905
0.0246908
0.0246911
0.0246914
0.0246917
0.024692
0.0246923
0.0246927
0.024693
0.0246933
0.0246937
0.024694
0.0246944
0.0246947
0.0246951
0.0246954
0.0246957
0.0246961
0.0246964
0.0246967
0.0246971
0.0246974
0.0246977
0.0246981
0.0246984
0.0246988
0.0246991
0.0246995
0.0246998
0.0247002
0.0247006
0.0247009
0.0247013
0.0247017
0.024702
0.0247024
0.0247027
0.0247031
0.0247034
0.0247038
0.0247041
0.0247045
0.0247048
0.0247051
0.0247055
0.0247058
0.0247061
0.0247064
0.0247067
0.0247069
0.0247072
0.0247075
0.0247077
0.0247079
0.0247082
0.0247084
0.0247086
0.0247087
0.0247089
0.0247091
0.0247092
0.0247093
0.0247094
0.0247095
0.0247096
0.0247097
0.0247098
0.0247098
0.0247099
0.0247099
0.0247099
0.0247098
0.0247098
0.0247097
0.0247097
0.0247096
0.0247095
0.0247094
0.0247093
0.0247082
0.0251559
0.0251526
0.0251518
0.0251515
0.0251513
0.0251512
0.025151
0.0251509
0.0251507
0.0251506
0.0251504
0.0251503
0.0251502
0.0251501
0.0251499
0.0251499
0.0251498
0.0251497
0.0251496
0.0251496
0.0251496
0.0251495
0.0251495
0.0251495
0.0251496
0.0251496
0.0251497
0.0251497
0.0251498
0.0251499
0.02515
0.0251502
0.0251503
0.0251505
0.0251507
0.0251509
0.0251511
0.0251513
0.0251515
0.0251518
0.025152
0.0251523
0.0251526
0.0251529
0.0251532
0.0251535
0.0251538
0.0251542
0.0251545
0.0251549
0.0251553
0.0251556
0.025156
0.0251564
0.0251567
0.0251571
0.0251574
0.0251578
0.0251582
0.0251585
0.0251589
0.0251592
0.0251596
0.02516
0.0251603
0.0251607
0.0251611
0.0251615
0.0251618
0.0251622
0.0251626
0.0251629
0.0251633
0.0251637
0.0251641
0.0251644
0.0251648
0.0251652
0.0251655
0.0251659
0.0251662
0.0251666
0.0251669
0.0251673
0.0251676
0.0251679
0.0251682
0.0251685
0.0251688
0.0251691
0.0251694
0.0251697
0.0251699
0.0251702
0.0251704
0.0251706
0.0251708
0.025171
0.0251712
0.0251713
0.0251715
0.0251716
0.0251717
0.0251718
0.0251719
0.025172
0.0251721
0.0251721
0.0251721
0.0251722
0.0251722
0.0251722
0.0251721
0.0251721
0.025172
0.025172
0.0251719
0.0251718
0.0251717
0.0251707
0.0256647
0.0256614
0.0256605
0.0256602
0.02566
0.0256598
0.0256597
0.0256595
0.0256593
0.0256592
0.025659
0.0256589
0.0256587
0.0256586
0.0256584
0.0256583
0.0256582
0.0256581
0.0256581
0.025658
0.0256579
0.0256579
0.0256579
0.0256579
0.0256579
0.0256579
0.025658
0.025658
0.0256581
0.0256582
0.0256583
0.0256584
0.0256586
0.0256587
0.0256589
0.0256591
0.0256593
0.0256595
0.0256597
0.02566
0.0256602
0.0256605
0.0256608
0.0256611
0.0256614
0.0256618
0.0256621
0.0256625
0.0256628
0.0256632
0.0256636
0.025664
0.0256643
0.0256647
0.0256651
0.0256655
0.0256659
0.0256663
0.0256667
0.0256671
0.0256674
0.0256678
0.0256682
0.0256686
0.025669
0.0256694
0.0256698
0.0256702
0.0256706
0.0256709
0.0256713
0.0256717
0.0256721
0.0256725
0.0256729
0.0256733
0.0256737
0.025674
0.0256744
0.0256748
0.0256751
0.0256755
0.0256759
0.0256762
0.0256765
0.0256769
0.0256772
0.0256775
0.0256778
0.0256781
0.0256784
0.0256787
0.0256789
0.0256792
0.0256794
0.0256797
0.0256799
0.0256801
0.0256802
0.0256804
0.0256806
0.0256807
0.0256808
0.0256809
0.025681
0.0256811
0.0256812
0.0256812
0.0256813
0.0256813
0.0256813
0.0256813
0.0256813
0.0256812
0.0256812
0.0256811
0.025681
0.0256809
0.0256809
0.0256799
0.0262217
0.0262183
0.0262174
0.0262171
0.0262169
0.0262167
0.0262165
0.0262163
0.0262161
0.0262159
0.0262157
0.0262155
0.0262154
0.0262152
0.0262151
0.0262149
0.0262148
0.0262147
0.0262146
0.0262145
0.0262144
0.0262144
0.0262143
0.0262143
0.0262143
0.0262143
0.0262144
0.0262144
0.0262145
0.0262146
0.0262147
0.0262148
0.0262149
0.0262151
0.0262152
0.0262154
0.0262156
0.0262159
0.0262161
0.0262164
0.0262166
0.0262169
0.0262172
0.0262175
0.0262179
0.0262182
0.0262186
0.0262189
0.0262193
0.0262197
0.0262201
0.0262205
0.0262209
0.0262213
0.0262217
0.0262222
0.0262226
0.026223
0.0262234
0.0262238
0.0262242
0.0262246
0.0262251
0.0262255
0.0262259
0.0262263
0.0262267
0.0262271
0.0262275
0.0262279
0.0262284
0.0262288
0.0262292
0.0262296
0.02623
0.0262304
0.0262308
0.0262312
0.0262316
0.026232
0.0262323
0.0262327
0.0262331
0.0262334
0.0262338
0.0262341
0.0262345
0.0262348
0.0262351
0.0262354
0.0262357
0.026236
0.0262363
0.0262365
0.0262368
0.026237
0.0262372
0.0262374
0.0262376
0.0262378
0.026238
0.0262381
0.0262382
0.0262383
0.0262384
0.0262385
0.0262386
0.0262386
0.0262387
0.0262387
0.0262387
0.0262387
0.0262387
0.0262387
0.0262386
0.0262385
0.0262385
0.0262383
0.0262383
0.0262374
0.0268288
0.0268252
0.0268243
0.0268239
0.0268237
0.0268234
0.0268232
0.026823
0.0268228
0.0268226
0.0268224
0.0268222
0.026822
0.0268218
0.0268216
0.0268214
0.0268213
0.0268212
0.026821
0.0268209
0.0268208
0.0268208
0.0268207
0.0268207
0.0268207
0.0268207
0.0268207
0.0268207
0.0268208
0.0268209
0.026821
0.0268211
0.0268212
0.0268214
0.0268215
0.0268217
0.0268219
0.0268222
0.0268224
0.0268227
0.026823
0.0268233
0.0268236
0.0268239
0.0268243
0.0268247
0.026825
0.0268254
0.0268258
0.0268263
0.0268267
0.0268271
0.0268275
0.026828
0.0268284
0.0268289
0.0268293
0.0268297
0.0268302
0.0268306
0.0268311
0.0268315
0.026832
0.0268324
0.0268328
0.0268333
0.0268337
0.0268342
0.0268346
0.026835
0.0268355
0.0268359
0.0268363
0.0268367
0.0268372
0.0268376
0.026838
0.0268384
0.0268388
0.0268392
0.0268396
0.02684
0.0268404
0.0268408
0.0268412
0.0268415
0.0268419
0.0268422
0.0268425
0.0268429
0.0268432
0.0268435
0.0268437
0.026844
0.0268443
0.0268445
0.0268447
0.0268449
0.0268451
0.0268453
0.0268455
0.0268456
0.0268458
0.0268459
0.026846
0.0268461
0.0268461
0.0268462
0.0268462
0.0268463
0.0268463
0.0268463
0.0268462
0.0268462
0.0268461
0.0268461
0.026846
0.0268459
0.0268458
0.0268449
0.027488
0.0274843
0.0274833
0.0274829
0.0274826
0.0274823
0.0274821
0.0274818
0.0274816
0.0274813
0.0274811
0.0274809
0.0274806
0.0274804
0.0274802
0.02748
0.0274798
0.0274797
0.0274795
0.0274794
0.0274793
0.0274792
0.0274791
0.0274791
0.0274791
0.0274791
0.0274791
0.0274791
0.0274791
0.0274792
0.0274793
0.0274794
0.0274796
0.0274797
0.0274799
0.0274801
0.0274803
0.0274806
0.0274809
0.0274812
0.0274815
0.0274818
0.0274822
0.0274825
0.0274829
0.0274833
0.0274837
0.0274841
0.0274846
0.027485
0.0274855
0.0274859
0.0274864
0.0274869
0.0274873
0.0274878
0.0274883
0.0274887
0.0274892
0.0274897
0.0274902
0.0274906
0.0274911
0.0274916
0.0274921
0.0274925
0.027493
0.0274934
0.0274939
0.0274944
0.0274948
0.0274953
0.0274957
0.0274962
0.0274966
0.0274971
0.0274975
0.0274979
0.0274984
0.0274988
0.0274992
0.0274996
0.0275
0.0275004
0.0275008
0.0275012
0.0275015
0.0275019
0.0275022
0.0275026
0.0275029
0.0275032
0.0275035
0.0275038
0.027504
0.0275043
0.0275045
0.0275047
0.027505
0.0275051
0.0275053
0.0275055
0.0275056
0.0275057
0.0275058
0.0275059
0.027506
0.027506
0.0275061
0.0275061
0.0275061
0.0275061
0.0275061
0.027506
0.0275059
0.0275059
0.0275057
0.0275056
0.0275055
0.0275047
0.0282018
0.028198
0.0281969
0.0281965
0.0281961
0.0281958
0.0281955
0.0281952
0.0281949
0.0281947
0.0281944
0.0281941
0.0281939
0.0281936
0.0281934
0.0281932
0.028193
0.0281928
0.0281926
0.0281925
0.0281923
0.0281922
0.0281921
0.0281921
0.028192
0.028192
0.028192
0.0281921
0.0281921
0.0281922
0.0281923
0.0281924
0.0281925
0.0281927
0.0281929
0.0281931
0.0281934
0.0281937
0.028194
0.0281943
0.0281946
0.028195
0.0281954
0.0281958
0.0281962
0.0281967
0.0281971
0.0281976
0.028198
0.0281985
0.028199
0.0281995
0.0282
0.0282005
0.028201
0.0282015
0.028202
0.0282025
0.028203
0.0282036
0.0282041
0.0282046
0.0282051
0.0282056
0.0282061
0.0282066
0.0282071
0.0282075
0.028208
0.0282085
0.028209
0.0282095
0.02821
0.0282104
0.0282109
0.0282114
0.0282118
0.0282123
0.0282127
0.0282132
0.0282136
0.028214
0.0282144
0.0282149
0.0282153
0.0282157
0.028216
0.0282164
0.0282168
0.0282171
0.0282175
0.0282178
0.0282181
0.0282184
0.0282187
0.0282189
0.0282192
0.0282194
0.0282196
0.0282198
0.02822
0.0282201
0.0282203
0.0282204
0.0282205
0.0282206
0.0282207
0.0282207
0.0282208
0.0282208
0.0282208
0.0282208
0.0282207
0.0282206
0.0282206
0.0282204
0.0282203
0.0282201
0.02822
0.0282192
0.0289733
0.0289692
0.0289681
0.0289676
0.0289672
0.0289668
0.0289665
0.0289661
0.0289658
0.0289655
0.0289652
0.0289649
0.0289646
0.0289643
0.028964
0.0289638
0.0289635
0.0289633
0.0289631
0.028963
0.0289628
0.0289627
0.0289626
0.0289625
0.0289625
0.0289625
0.0289625
0.0289625
0.0289625
0.0289626
0.0289627
0.0289629
0.028963
0.0289632
0.0289634
0.0289637
0.028964
0.0289643
0.0289647
0.028965
0.0289654
0.0289658
0.0289663
0.0289667
0.0289672
0.0289677
0.0289682
0.0289687
0.0289692
0.0289697
0.0289703
0.0289708
0.0289713
0.0289719
0.0289724
0.028973
0.0289735
0.0289741
0.0289746
0.0289752
0.0289757
0.0289762
0.0289768
0.0289773
0.0289778
0.0289784
0.0289789
0.0289794
0.0289799
0.0289804
0.0289809
0.0289814
0.0289819
0.0289824
0.0289829
0.0289834
0.0289839
0.0289844
0.0289848
0.0289853
0.0289858
0.0289862
0.0289867
0.0289871
0.0289875
0.0289879
0.0289883
0.0289887
0.0289891
0.0289894
0.0289898
0.0289901
0.0289905
0.0289908
0.028991
0.0289913
0.0289916
0.0289918
0.028992
0.0289922
0.0289924
0.0289926
0.0289927
0.0289929
0.028993
0.0289931
0.0289931
0.0289932
0.0289932
0.0289932
0.0289932
0.0289932
0.0289931
0.028993
0.0289929
0.0289927
0.0289925
0.0289923
0.0289921
0.0289914
0.0298056
0.0298013
0.0298001
0.0297995
0.029799
0.0297986
0.0297982
0.0297978
0.0297975
0.0297971
0.0297967
0.0297964
0.029796
0.0297957
0.0297954
0.0297952
0.0297949
0.0297947
0.0297945
0.0297943
0.0297941
0.029794
0.0297939
0.0297938
0.0297937
0.0297937
0.0297937
0.0297937
0.0297938
0.0297939
0.029794
0.0297942
0.0297944
0.0297946
0.0297949
0.0297952
0.0297955
0.0297959
0.0297963
0.0297967
0.0297972
0.0297976
0.0297981
0.0297987
0.0297992
0.0297997
0.0298003
0.0298009
0.0298014
0.029802
0.0298026
0.0298032
0.0298038
0.0298044
0.0298049
0.0298055
0.0298061
0.0298067
0.0298073
0.0298079
0.0298084
0.029809
0.0298096
0.0298102
0.0298107
0.0298113
0.0298118
0.0298124
0.0298129
0.0298134
0.029814
0.0298145
0.029815
0.0298156
0.0298161
0.0298166
0.0298171
0.0298176
0.0298181
0.0298186
0.0298191
0.0298195
0.02982
0.0298204
0.0298209
0.0298213
0.0298217
0.0298221
0.0298225
0.0298229
0.0298233
0.0298236
0.029824
0.0298243
0.0298246
0.0298249
0.0298251
0.0298254
0.0298256
0.0298258
0.029826
0.0298262
0.0298263
0.0298265
0.0298266
0.0298267
0.0298268
0.0298268
0.0298268
0.0298268
0.0298268
0.0298267
0.0298266
0.0298265
0.0298263
0.0298261
0.0298258
0.0298255
0.0298253
0.0298245
0.0307026
0.030698
0.0306967
0.030696
0.0306955
0.030695
0.0306946
0.0306941
0.0306937
0.0306933
0.0306928
0.0306925
0.0306921
0.0306917
0.0306914
0.0306911
0.0306908
0.0306906
0.0306903
0.0306901
0.03069
0.0306898
0.0306897
0.0306896
0.0306896
0.0306895
0.0306895
0.0306896
0.0306897
0.0306898
0.0306899
0.0306901
0.0306904
0.0306907
0.030691
0.0306914
0.0306918
0.0306922
0.0306927
0.0306932
0.0306938
0.0306943
0.0306949
0.0306955
0.0306961
0.0306967
0.0306973
0.0306979
0.0306986
0.0306992
0.0306998
0.0307005
0.0307011
0.0307018
0.0307024
0.030703
0.0307037
0.0307043
0.0307049
0.0307055
0.0307062
0.0307068
0.0307074
0.030708
0.0307086
0.0307091
0.0307097
0.0307103
0.0307109
0.0307114
0.030712
0.0307126
0.0307131
0.0307137
0.0307142
0.0307147
0.0307153
0.0307158
0.0307163
0.0307168
0.0307173
0.0307178
0.0307183
0.0307188
0.0307192
0.0307197
0.0307201
0.0307206
0.030721
0.0307214
0.0307217
0.0307221
0.0307224
0.0307228
0.0307231
0.0307234
0.0307236
0.0307239
0.0307241
0.0307244
0.0307246
0.0307247
0.0307249
0.030725
0.0307252
0.0307253
0.0307253
0.0307254
0.0307254
0.0307253
0.0307253
0.0307251
0.030725
0.0307248
0.0307245
0.0307242
0.0307239
0.0307235
0.0307231
0.0307224
0.0316685
0.0316636
0.0316621
0.0316614
0.0316608
0.0316603
0.0316597
0.0316592
0.0316587
0.0316583
0.0316578
0.0316574
0.031657
0.0316566
0.0316562
0.0316559
0.0316556
0.0316553
0.0316551
0.0316549
0.0316547
0.0316545
0.0316544
0.0316543
0.0316543
0.0316543
0.0316543
0.0316543
0.0316545
0.0316546
0.0316548
0.0316551
0.0316554
0.0316558
0.0316562
0.0316567
0.0316572
0.0316577
0.0316583
0.0316589
0.0316595
0.0316602
0.0316608
0.0316615
0.0316622
0.0316629
0.0316636
0.0316643
0.031665
0.0316657
0.0316664
0.0316671
0.0316678
0.0316685
0.0316692
0.0316699
0.0316705
0.0316712
0.0316719
0.0316725
0.0316732
0.0316738
0.0316745
0.0316751
0.0316757
0.0316763
0.031677
0.0316776
0.0316782
0.0316788
0.0316794
0.0316799
0.0316805
0.0316811
0.0316817
0.0316822
0.0316828
0.0316833
0.0316839
0.0316844
0.0316849
0.0316854
0.0316859
0.0316864
0.0316869
0.0316874
0.0316878
0.0316883
0.0316887
0.0316891
0.0316895
0.0316899
0.0316902
0.0316906
0.0316909
0.0316912
0.0316915
0.0316918
0.031692
0.0316922
0.0316924
0.0316926
0.0316928
0.0316929
0.0316931
0.0316932
0.0316932
0.0316932
0.0316932
0.0316931
0.031693
0.0316928
0.0316925
0.0316922
0.0316918
0.0316914
0.031691
0.0316905
0.03169
0.0316894
0.0327081
0.0327029
0.0327013
0.0327004
0.0326998
0.0326991
0.0326986
0.032698
0.0326974
0.0326969
0.0326964
0.032696
0.0326955
0.0326951
0.0326947
0.0326944
0.0326941
0.0326938
0.0326935
0.0326933
0.0326931
0.032693
0.0326929
0.0326928
0.0326928
0.0326928
0.0326928
0.0326929
0.0326931
0.0326933
0.0326936
0.032694
0.0326944
0.0326949
0.0326955
0.032696
0.0326967
0.0326973
0.032698
0.0326987
0.0326995
0.0327002
0.032701
0.0327017
0.0327025
0.0327033
0.0327041
0.0327049
0.0327056
0.0327064
0.0327072
0.0327079
0.0327087
0.0327094
0.0327102
0.0327109
0.0327116
0.0327124
0.0327131
0.0327138
0.0327145
0.0327151
0.0327158
0.0327165
0.0327171
0.0327178
0.0327184
0.0327191
0.0327197
0.0327203
0.0327209
0.0327215
0.0327221
0.0327227
0.0327233
0.0327239
0.0327245
0.0327251
0.0327256
0.0327262
0.0327267
0.0327273
0.0327278
0.0327283
0.0327288
0.0327293
0.0327298
0.0327302
0.0327307
0.0327311
0.0327315
0.0327319
0.0327323
0.0327326
0.0327329
0.0327333
0.0327336
0.0327338
0.0327341
0.0327343
0.0327345
0.0327347
0.0327349
0.0327351
0.0327352
0.0327353
0.0327353
0.0327353
0.0327352
0.032735
0.0327347
0.0327344
0.032734
0.0327336
0.0327331
0.0327325
0.0327319
0.0327313
0.0327307
0.0327301
0.0338268
0.0338212
0.0338195
0.0338185
0.0338178
0.0338171
0.0338165
0.0338158
0.0338153
0.0338147
0.0338142
0.0338137
0.0338132
0.0338128
0.0338124
0.033812
0.0338117
0.0338114
0.0338112
0.033811
0.0338108
0.0338106
0.0338105
0.0338105
0.0338105
0.0338105
0.0338106
0.0338108
0.0338111
0.0338114
0.0338118
0.0338124
0.0338129
0.0338136
0.0338143
0.033815
0.0338158
0.0338166
0.0338174
0.0338183
0.0338191
0.03382
0.0338209
0.0338217
0.0338226
0.0338235
0.0338243
0.0338252
0.033826
0.0338269
0.0338277
0.0338285
0.0338294
0.0338302
0.033831
0.0338317
0.0338325
0.0338333
0.033834
0.0338348
0.0338355
0.0338362
0.0338369
0.0338376
0.0338383
0.033839
0.0338397
0.0338403
0.033841
0.0338416
0.0338423
0.0338429
0.0338435
0.0338442
0.0338448
0.0338454
0.033846
0.0338466
0.0338472
0.0338478
0.0338483
0.0338489
0.0338494
0.03385
0.0338505
0.033851
0.0338515
0.0338519
0.0338524
0.0338528
0.0338532
0.0338536
0.033854
0.0338544
0.0338547
0.0338551
0.0338554
0.0338557
0.0338559
0.0338562
0.0338564
0.0338566
0.0338568
0.0338569
0.033857
0.0338571
0.033857
0.0338569
0.0338567
0.0338564
0.033856
0.0338555
0.0338549
0.0338543
0.0338536
0.0338529
0.0338521
0.0338514
0.0338506
0.0338501
0.0350307
0.0350248
0.0350228
0.0350218
0.035021
0.0350203
0.0350196
0.0350189
0.0350183
0.0350177
0.0350171
0.0350166
0.0350162
0.0350157
0.0350153
0.035015
0.0350147
0.0350144
0.0350141
0.0350139
0.0350138
0.0350137
0.0350136
0.0350135
0.0350136
0.0350137
0.0350139
0.0350142
0.0350146
0.0350152
0.0350158
0.0350165
0.0350173
0.0350181
0.035019
0.0350199
0.0350209
0.0350218
0.0350228
0.0350238
0.0350248
0.0350258
0.0350268
0.0350277
0.0350287
0.0350297
0.0350306
0.0350316
0.0350325
0.0350334
0.0350343
0.0350352
0.0350361
0.0350369
0.0350378
0.0350386
0.0350394
0.0350402
0.035041
0.0350418
0.0350425
0.0350433
0.035044
0.0350448
0.0350455
0.0350462
0.0350469
0.0350476
0.0350483
0.0350489
0.0350496
0.0350503
0.0350509
0.0350516
0.0350522
0.0350528
0.0350535
0.0350541
0.0350547
0.0350553
0.0350559
0.0350565
0.035057
0.0350576
0.0350581
0.0350586
0.0350591
0.0350596
0.0350601
0.0350605
0.035061
0.0350614
0.0350618
0.0350622
0.0350625
0.0350628
0.0350632
0.0350634
0.0350637
0.035064
0.0350642
0.0350644
0.0350646
0.0350647
0.0350648
0.0350648
0.0350646
0.0350644
0.035064
0.0350634
0.0350628
0.035062
0.0350612
0.0350604
0.0350595
0.0350586
0.0350577
0.0350568
0.0350559
0.0350554
0.0363267
0.0363203
0.0363183
0.0363172
0.0363163
0.0363155
0.0363148
0.0363141
0.0363134
0.0363128
0.0363123
0.0363118
0.0363113
0.0363109
0.0363105
0.0363101
0.0363098
0.0363096
0.0363094
0.0363092
0.0363091
0.036309
0.0363089
0.0363089
0.0363091
0.0363093
0.0363097
0.0363102
0.0363109
0.0363117
0.0363126
0.0363135
0.0363146
0.0363156
0.0363167
0.0363179
0.036319
0.0363201
0.0363213
0.0363224
0.0363235
0.0363247
0.0363258
0.0363268
0.0363279
0.036329
0.03633
0.036331
0.036332
0.036333
0.036334
0.0363349
0.0363358
0.0363367
0.0363376
0.0363385
0.0363394
0.0363402
0.036341
0.0363418
0.0363426
0.0363434
0.0363442
0.0363449
0.0363457
0.0363464
0.0363471
0.0363479
0.0363486
0.0363493
0.03635
0.0363506
0.0363513
0.036352
0.0363526
0.0363533
0.0363539
0.0363546
0.0363552
0.0363558
0.0363564
0.036357
0.0363576
0.0363582
0.0363587
0.0363593
0.0363598
0.0363603
0.0363608
0.0363612
0.0363617
0.0363621
0.0363625
0.0363629
0.0363632
0.0363636
0.0363639
0.0363642
0.0363645
0.0363648
0.036365
0.0363652
0.0363654
0.0363655
0.0363654
0.0363653
0.036365
0.0363644
0.0363637
0.0363628
0.0363619
0.0363608
0.0363597
0.0363586
0.0363575
0.0363564
0.0363553
0.0363543
0.0363533
0.0363528
0.0377224
0.0377156
0.0377134
0.0377123
0.0377114
0.0377105
0.0377098
0.0377091
0.0377084
0.0377079
0.0377073
0.0377068
0.0377064
0.037706
0.0377056
0.0377053
0.0377051
0.0377048
0.0377047
0.0377045
0.0377044
0.0377044
0.0377044
0.0377045
0.0377048
0.0377053
0.0377059
0.0377068
0.0377078
0.0377089
0.0377102
0.0377115
0.0377128
0.0377141
0.0377155
0.0377168
0.0377182
0.0377195
0.0377208
0.0377221
0.0377233
0.0377245
0.0377258
0.0377269
0.0377281
0.0377292
0.0377303
0.0377314
0.0377325
0.0377335
0.0377346
0.0377355
0.0377365
0.0377375
0.0377384
0.0377393
0.0377402
0.0377411
0.037742
0.0377428
0.0377436
0.0377444
0.0377452
0.037746
0.0377468
0.0377475
0.0377483
0.037749
0.0377497
0.0377505
0.0377512
0.0377519
0.0377526
0.0377533
0.0377539
0.0377546
0.0377553
0.0377559
0.0377566
0.0377572
0.0377578