/*--------------------------------*- C++ -*----------------------------------*\
  =========                 |
  \\      /  F ield         | OpenFOAM: The Open Source CFD Toolbox
   \\    /   O peration     | Website:  https://openfoam.org
    \\  /    A nd           | Version:  7
     \\/     M anipulation  |
\*---------------------------------------------------------------------------*/
FoamFile
{
    version     2.0;
    format      ascii;
    class       volVectorField;
    location    "1000";
    object      U;
}
// * * * * * * * * * * * * * * * * * * * * * * * * * * * * * * * * * * * * * //

dimensions      [0 1 -1 0 0 0 0];

internalField   nonuniform List<vector> 
4000
(
(0.149181 -4.70207e-07 2.07143e-15)
(0.149181 -4.05173e-07 2.04802e-15)
(0.149181 -3.51591e-07 1.97612e-15)
(0.149181 -2.99612e-07 1.97535e-15)
(0.149181 -2.49335e-07 1.92261e-15)
(0.149181 -2.03535e-07 1.88402e-15)
(0.149181 -1.62788e-07 1.91411e-15)
(0.149181 -1.27631e-07 1.90892e-15)
(0.149181 -9.85428e-08 1.89511e-15)
(0.149181 -7.57667e-08 1.93851e-15)
(0.149181 -5.94041e-08 1.93353e-15)
(0.149181 -4.94251e-08 1.83393e-15)
(0.149181 -4.56664e-08 1.85254e-15)
(0.149181 -4.78476e-08 1.78272e-15)
(0.149181 -5.55871e-08 1.824e-15)
(0.149181 -6.84201e-08 1.82286e-15)
(0.149181 -8.58183e-08 1.72872e-15)
(0.149181 -1.07211e-07 1.75864e-15)
(0.149182 -1.32008e-07 1.7025e-15)
(0.149182 -1.59619e-07 1.75718e-15)
(0.149182 -1.89469e-07 1.75952e-15)
(0.149182 -2.21021e-07 1.81362e-15)
(0.149182 -2.53773e-07 1.83257e-15)
(0.149182 -2.87266e-07 1.82673e-15)
(0.149182 -3.2107e-07 1.85292e-15)
(0.149182 -3.54773e-07 1.82467e-15)
(0.149182 -3.87967e-07 1.81549e-15)
(0.149182 -4.20233e-07 1.82954e-15)
(0.149182 -4.51131e-07 1.83425e-15)
(0.149182 -4.80183e-07 1.8791e-15)
(0.149182 -5.06861e-07 1.86029e-15)
(0.149182 -5.30572e-07 1.83761e-15)
(0.149182 -5.50634e-07 1.8522e-15)
(0.149182 -5.66253e-07 1.85552e-15)
(0.149182 -5.76496e-07 1.92654e-15)
(0.149182 -5.80247e-07 1.89652e-15)
(0.149182 -5.76145e-07 1.85129e-15)
(0.149182 -5.6252e-07 1.86699e-15)
(0.149182 -5.3721e-07 1.86574e-15)
(0.149182 -4.97436e-07 1.93284e-15)
(0.149182 -4.39084e-07 1.94934e-15)
(0.149182 -3.56513e-07 1.94343e-15)
(0.149182 -2.38639e-07 1.93858e-15)
(0.149182 -7.12004e-08 1.94434e-15)
(0.149182 1.45383e-07 1.94359e-15)
(0.149182 1.96731e-07 1.93378e-15)
(0.149182 1.50917e-08 1.9221e-15)
(0.149182 -1.35815e-07 1.90385e-15)
(0.149182 -1.81984e-07 1.89435e-15)
(0.149182 -1.88299e-07 1.88826e-15)
(0.149182 -1.71631e-07 1.88018e-15)
(0.149182 -1.36227e-07 1.87148e-15)
(0.149182 -8.69527e-08 1.84796e-15)
(0.149182 -2.67933e-08 1.82434e-15)
(0.149182 4.20688e-08 1.81139e-15)
(0.149182 1.17649e-07 1.81763e-15)
(0.149182 1.98162e-07 1.81993e-15)
(0.149182 2.81954e-07 1.80109e-15)
(0.149182 3.67469e-07 1.78411e-15)
(0.149182 4.53231e-07 1.77409e-15)
(0.149182 5.37852e-07 1.78295e-15)
(0.149182 6.20034e-07 1.78721e-15)
(0.149182 6.9858e-07 1.78715e-15)
(0.149182 7.72405e-07 1.79184e-15)
(0.149182 8.4055e-07 1.77331e-15)
(0.149182 9.0219e-07 1.7772e-15)
(0.149182 9.56644e-07 1.77619e-15)
(0.149182 1.00338e-06 1.77336e-15)
(0.149182 1.04201e-06 1.76425e-15)
(0.149182 1.0723e-06 1.75716e-15)
(0.149182 1.09415e-06 1.77368e-15)
(0.149182 1.10759e-06 1.78878e-15)
(0.149182 1.11277e-06 1.7921e-15)
(0.149182 1.10994e-06 1.79205e-15)
(0.149182 1.0994e-06 1.78333e-15)
(0.149182 1.08153e-06 1.80357e-15)
(0.149182 1.05675e-06 1.81797e-15)
(0.149182 1.02549e-06 1.82465e-15)
(0.149182 9.88166e-07 1.83244e-15)
(0.149182 9.45207e-07 1.83188e-15)
(0.149182 8.97003e-07 1.82871e-15)
(0.149182 8.43925e-07 1.87003e-15)
(0.149182 7.86318e-07 1.88689e-15)
(0.149182 7.24511e-07 1.89423e-15)
(0.149182 6.58825e-07 1.9286e-15)
(0.149182 5.89591e-07 1.95122e-15)
(0.149182 5.17167e-07 1.98139e-15)
(0.149182 4.41957e-07 1.97455e-15)
(0.149182 3.64438e-07 1.96853e-15)
(0.149182 2.85178e-07 1.98519e-15)
(0.149182 2.04863e-07 1.99434e-15)
(0.149182 1.2432e-07 2.02622e-15)
(0.149182 4.45465e-08 2.02204e-15)
(0.149182 -3.32602e-08 2.01531e-15)
(0.149181 -1.07663e-07 2.03369e-15)
(0.149181 -1.76925e-07 2.04571e-15)
(0.149181 -2.38951e-07 2.07357e-15)
(0.149181 -2.91116e-07 2.06777e-15)
(0.149181 -3.30141e-07 2.04939e-15)
(0.149181 -3.51388e-07 2.05415e-15)
(0.149181 -3.48676e-07 2.06073e-15)
(0.149181 -3.10369e-07 2.07719e-15)
(0.149181 -2.21708e-07 2.06315e-15)
(0.149181 -8.28991e-08 2.05026e-15)
(0.149181 -1.08903e-07 2.06725e-15)
(0.149181 -3.65404e-07 2.07502e-15)
(0.149181 -5.88338e-07 2.09498e-15)
(0.149181 -7.03296e-07 2.08895e-15)
(0.149181 -7.75224e-07 2.07716e-15)
(0.149181 -8.20875e-07 2.08727e-15)
(0.149181 -8.44328e-07 2.07682e-15)
(0.149181 -8.50315e-07 2.073e-15)
(0.149181 -8.41706e-07 2.05658e-15)
(0.149181 -8.2061e-07 2.04866e-15)
(0.149181 -7.88954e-07 2.0745e-15)
(0.149181 -7.48564e-07 2.08994e-15)
(0.149181 -7.01088e-07 2.09258e-15)
(0.149181 -6.48601e-07 2.07758e-15)
(0.149181 -5.9248e-07 2.06522e-15)
(0.149181 -5.3595e-07 2.07556e-15)
(0.149171 -4.89494e-07 2.06001e-15)
(0.149172 -4.10458e-07 2.0393e-15)
(0.149172 -3.51552e-07 1.92297e-15)
(0.149172 -3.0128e-07 1.92574e-15)
(0.149172 -2.53133e-07 1.84183e-15)
(0.149172 -2.09394e-07 1.95384e-15)
(0.149172 -1.70323e-07 2.02055e-15)
(0.149172 -1.36473e-07 1.97973e-15)
(0.149172 -1.08456e-07 2.01307e-15)
(0.149172 -8.65251e-08 2.0548e-15)
(0.149172 -7.07848e-08 1.99977e-15)
(0.149172 -6.12211e-08 1.90901e-15)
(0.149172 -5.76859e-08 1.87415e-15)
(0.149172 -5.99178e-08 1.82893e-15)
(0.149172 -6.75567e-08 1.81847e-15)
(0.149172 -8.01604e-08 1.81023e-15)
(0.149172 -9.72225e-08 1.76995e-15)
(0.149172 -1.18193e-07 1.76064e-15)
(0.149172 -1.42501e-07 1.73486e-15)
(0.149172 -1.69572e-07 1.73919e-15)
(0.149172 -1.98851e-07 1.67022e-15)
(0.149172 -2.29816e-07 1.81754e-15)
(0.149172 -2.61987e-07 1.83091e-15)
(0.149172 -2.9492e-07 1.7567e-15)
(0.149172 -3.282e-07 1.89873e-15)
(0.149172 -3.61424e-07 1.78909e-15)
(0.149172 -3.94186e-07 1.80774e-15)
(0.149172 -4.26061e-07 1.82772e-15)
(0.149172 -4.56598e-07 1.84687e-15)
(0.149172 -4.85302e-07 2.0016e-15)
(0.149172 -5.11629e-07 1.84408e-15)
(0.149172 -5.34964e-07 1.85471e-15)
(0.149172 -5.5461e-07 1.86101e-15)
(0.149172 -5.69761e-07 1.76562e-15)
(0.149172 -5.79476e-07 2.00295e-15)
(0.149172 -5.82644e-07 1.9293e-15)
(0.149172 -5.77925e-07 1.90376e-15)
(0.149172 -5.63691e-07 1.89052e-15)
(0.149172 -5.37879e-07 1.86073e-15)
(0.149172 -4.97874e-07 2.02905e-15)
(0.149172 -4.39963e-07 2.04831e-15)
(0.149172 -3.59296e-07 2.02866e-15)
(0.149172 -2.47323e-07 2.01956e-15)
(0.149172 -9.50838e-08 2.01952e-15)
(0.149172 9.93237e-08 2.01919e-15)
(0.149172 1.52188e-07 2.01336e-15)
(0.149172 1.45303e-08 2.00488e-15)
(0.149172 -1.05075e-07 1.99151e-15)
(0.149172 -1.55158e-07 1.98211e-15)
(0.149172 -1.68517e-07 1.97634e-15)
(0.149172 -1.5646e-07 1.96948e-15)
(0.149172 -1.24273e-07 1.95868e-15)
(0.149172 -7.7379e-08 1.94159e-15)
(0.149172 -1.91245e-08 1.92265e-15)
(0.149172 4.81275e-08 1.90468e-15)
(0.149172 1.22311e-07 1.90415e-15)
(0.149172 2.01594e-07 1.90375e-15)
(0.149172 2.84299e-07 1.8939e-15)
(0.149172 3.68849e-07 1.88201e-15)
(0.149172 4.53759e-07 1.86851e-15)
(0.149172 5.3763e-07 1.86916e-15)
(0.149172 6.19153e-07 1.87659e-15)
(0.149172 6.97122e-07 1.87968e-15)
(0.149172 7.70444e-07 1.87816e-15)
(0.149172 8.38149e-07 1.86712e-15)
(0.149172 8.99404e-07 1.86799e-15)
(0.149172 9.53519e-07 1.87171e-15)
(0.149172 9.99955e-07 1.87185e-15)
(0.149172 1.03832e-06 1.86693e-15)
(0.149172 1.06839e-06 1.85773e-15)
(0.149172 1.09005e-06 1.8635e-15)
(0.149172 1.10335e-06 1.87935e-15)
(0.149172 1.10844e-06 1.8915e-15)
(0.149172 1.10559e-06 1.89767e-15)
(0.149172 1.09514e-06 1.89763e-15)
(0.149172 1.07748e-06 1.91544e-15)
(0.149172 1.05305e-06 1.93799e-15)
(0.149172 1.02231e-06 1.9515e-15)
(0.149172 9.85706e-07 1.95895e-15)
(0.149172 9.43682e-07 1.95238e-15)
(0.149172 8.96644e-07 1.88355e-15)
(0.149172 8.44971e-07 1.95516e-15)
(0.149172 7.89004e-07 1.9683e-15)
(0.149172 7.2906e-07 1.95008e-15)
(0.149172 6.65437e-07 1.99211e-15)
(0.149172 5.9843e-07 1.97936e-15)
(0.149172 5.28351e-07 2.02907e-15)
(0.149172 4.55553e-07 2.01969e-15)
(0.149172 3.80449e-07 1.99772e-15)
(0.149172 3.03542e-07 2.0201e-15)
(0.149172 2.2545e-07 1.99971e-15)
(0.149172 1.46931e-07 2.07329e-15)
(0.149172 6.89143e-08 2.06638e-15)
(0.149172 -7.46897e-09 2.04056e-15)
(0.149172 -8.08452e-08 2.08292e-15)
(0.149172 -1.49545e-07 2.07028e-15)
(0.149172 -2.11542e-07 2.11773e-15)
(0.149172 -2.64316e-07 2.11317e-15)
(0.149172 -3.0474e-07 2.07394e-15)
(0.149171 -3.28543e-07 2.07945e-15)
(0.149171 -3.30286e-07 2.051e-15)
(0.149171 -3.00804e-07 2.09619e-15)
(0.149171 -2.30567e-07 2.09303e-15)
(0.149171 -1.17209e-07 2.06906e-15)
(0.149172 -1.4452e-07 2.09138e-15)
(0.149172 -3.60432e-07 2.05843e-15)
(0.149172 -5.55144e-07 2.11881e-15)
(0.149172 -6.76941e-07 2.11571e-15)
(0.149171 -7.58478e-07 2.08073e-15)
(0.149171 -8.10849e-07 2.09496e-15)
(0.149171 -8.39128e-07 2.03474e-15)
(0.149171 -8.48578e-07 2.02087e-15)
(0.149171 -8.42429e-07 2.02267e-15)
(0.149171 -8.23019e-07 2.02153e-15)
(0.149171 -7.92412e-07 2.06646e-15)
(0.149171 -7.52711e-07 2.06104e-15)
(0.149171 -7.0571e-07 2.05413e-15)
(0.149171 -6.54392e-07 2.04462e-15)
(0.149171 -6.01519e-07 2.02796e-15)
(0.149172 -5.55108e-07 2.06419e-15)
(0.149156 -4.99602e-07 2.07036e-15)
(0.149156 -4.13244e-07 2.03811e-15)
(0.149156 -3.549e-07 1.97635e-15)
(0.149156 -3.04146e-07 1.9505e-15)
(0.149156 -2.5608e-07 1.9191e-15)
(0.149156 -2.13474e-07 1.94276e-15)
(0.149156 -1.75749e-07 1.98854e-15)
(0.149156 -1.43147e-07 1.97629e-15)
(0.149156 -1.16234e-07 1.98351e-15)
(0.149156 -9.52169e-08 2.01317e-15)
(0.149156 -8.01846e-08 1.98324e-15)
(0.149156 -7.11252e-08 1.93107e-15)
(0.149156 -6.78991e-08 1.88883e-15)
(0.149156 -7.02588e-08 1.84832e-15)
(0.149156 -7.78625e-08 1.82202e-15)
(0.149157 -9.02874e-08 1.80574e-15)
(0.149157 -1.07047e-07 1.78339e-15)
(0.149157 -1.2761e-07 1.76841e-15)
(0.149157 -1.51423e-07 1.75014e-15)
(0.149157 -1.7793e-07 1.74048e-15)
(0.149157 -2.06593e-07 1.71143e-15)
(0.149157 -2.3691e-07 1.76695e-15)
(0.149157 -2.68424e-07 1.79803e-15)
(0.149157 -3.00714e-07 1.80517e-15)
(0.149157 -3.33385e-07 1.85065e-15)
(0.149157 -3.66049e-07 1.83817e-15)
(0.149157 -3.98306e-07 1.83922e-15)
(0.149157 -4.29729e-07 1.85927e-15)
(0.149157 -4.5986e-07 1.86799e-15)
(0.149157 -4.8819e-07 1.92522e-15)
(0.149157 -5.14161e-07 1.91774e-15)
(0.149157 -5.37145e-07 1.90308e-15)
(0.149157 -5.56431e-07 1.92478e-15)
(0.149157 -5.71208e-07 1.93399e-15)
(0.149157 -5.80537e-07 2.02129e-15)
(0.149157 -5.83325e-07 2.00402e-15)
(0.149157 -5.7827e-07 1.96462e-15)
(0.149157 -5.63822e-07 1.98365e-15)
(0.149157 -5.38059e-07 1.98275e-15)
(0.149157 -4.98626e-07 2.06088e-15)
(0.149157 -4.42363e-07 2.09048e-15)
(0.149157 -3.65519e-07 2.0947e-15)
(0.149157 -2.62271e-07 2.09517e-15)
(0.149157 -1.30105e-07 2.09999e-15)
(0.149157 2.88092e-08 2.10186e-15)
(0.149157 9.17255e-08 2.09689e-15)
(0.149157 1.09642e-08 2.08839e-15)
(0.149157 -7.95074e-08 2.07727e-15)
(0.149157 -1.27052e-07 2.07254e-15)
(0.149157 -1.43438e-07 2.06955e-15)
(0.149157 -1.35047e-07 2.06236e-15)
(0.149157 -1.06336e-07 2.05093e-15)
(0.149157 -6.23298e-08 2.03432e-15)
(0.149157 -6.46842e-09 2.0153e-15)
(0.149157 5.87379e-08 1.99161e-15)
(0.149157 1.31136e-07 1.99824e-15)
(0.149157 2.08837e-07 2.00215e-15)
(0.149157 2.90124e-07 1.99254e-15)
(0.149157 3.73395e-07 1.97957e-15)
(0.149157 4.57148e-07 1.96127e-15)
(0.149157 5.39967e-07 1.96374e-15)
(0.149157 6.20535e-07 1.97559e-15)
(0.149157 6.97634e-07 1.97961e-15)
(0.149157 7.70162e-07 1.97746e-15)
(0.149157 8.37142e-07 1.96533e-15)
(0.149157 8.97732e-07 1.96893e-15)
(0.149157 9.51239e-07 1.9766e-15)
(0.149157 9.97118e-07 1.97651e-15)
(0.149157 1.03498e-06 1.97185e-15)
(0.149157 1.06459e-06 1.95861e-15)
(0.149157 1.08586e-06 1.96502e-15)
(0.149157 1.09884e-06 1.9863e-15)
(0.149157 1.10369e-06 2.00369e-15)
(0.149157 1.10071e-06 2.01665e-15)
(0.149157 1.09024e-06 2.01615e-15)
(0.149157 1.07272e-06 2.04148e-15)
(0.149157 1.0486e-06 2.07076e-15)
(0.149157 1.01836e-06 2.08671e-15)
(0.149157 9.82479e-07 2.09318e-15)
(0.149157 9.4141e-07 2.07692e-15)
(0.149157 8.95571e-07 1.905e-15)
(0.149157 8.45341e-07 2.04805e-15)
(0.149157 7.91055e-07 2.05834e-15)
(0.149157 7.3301e-07 1.99102e-15)
(0.149157 6.71475e-07 2.06982e-15)
(0.149157 6.06707e-07 2.00517e-15)
(0.149157 5.38969e-07 2.21317e-15)
(0.149157 4.68554e-07 2.0784e-15)
(0.149157 3.95815e-07 2.00959e-15)
(0.149157 3.21184e-07 2.14224e-15)
(0.149157 2.45211e-07 2.01071e-15)
(0.149157 1.68581e-07 2.19587e-15)
(0.149157 9.21532e-08 2.12854e-15)
(0.149157 1.69878e-08 2.04376e-15)
(0.149156 -5.56155e-08 2.2026e-15)
(0.149156 -1.24069e-07 2.1123e-15)
(0.149156 -1.86446e-07 2.1899e-15)
(0.149156 -2.40376e-07 2.1613e-15)
(0.149156 -2.82977e-07 2.07875e-15)
(0.149156 -3.10496e-07 2.2481e-15)
(0.149156 -3.18538e-07 1.9318e-15)
(0.149156 -3.006e-07 2.15371e-15)
(0.149156 -2.53515e-07 2.12926e-15)
(0.149156 -1.78858e-07 2.07873e-15)
(0.149156 -1.99129e-07 2.19665e-15)
(0.149157 -3.60927e-07 1.9874e-15)
(0.149157 -5.29356e-07 2.13905e-15)
(0.149156 -6.5129e-07 2.14311e-15)
(0.149156 -7.38165e-07 2.06887e-15)
(0.149156 -7.9606e-07 2.11065e-15)
(0.149156 -8.2917e-07 2.02238e-15)
(0.149156 -8.42336e-07 1.97745e-15)
(0.149156 -8.38877e-07 2.0001e-15)
(0.149156 -8.2132e-07 1.99239e-15)
(0.149156 -7.91865e-07 2.0965e-15)
(0.149156 -7.52869e-07 1.9184e-15)
(0.149156 -7.06198e-07 2.03674e-15)
(0.149156 -6.55478e-07 2.02138e-15)
(0.149156 -6.0272e-07 1.99365e-15)
(0.149156 -5.64622e-07 2.1891e-15)
(0.149136 -5.01227e-07 2.04302e-15)
(0.149136 -4.16416e-07 2.03766e-15)
(0.149136 -3.58516e-07 2.01732e-15)
(0.149136 -3.06532e-07 2.00067e-15)
(0.149136 -2.58021e-07 1.97544e-15)
(0.149136 -2.16039e-07 1.97024e-15)
(0.149136 -1.79341e-07 1.98036e-15)
(0.149136 -1.47861e-07 1.97472e-15)
(0.149136 -1.22027e-07 1.97005e-15)
(0.149136 -1.01952e-07 1.97258e-15)
(0.149136 -8.76863e-08 1.95618e-15)
(0.149136 -7.92023e-08 1.9234e-15)
(0.149136 -7.63594e-08 1.88592e-15)
(0.149136 -7.89182e-08 1.849e-15)
(0.149136 -8.65503e-08 1.81886e-15)
(0.149136 -9.8849e-08 1.8014e-15)
(0.149136 -1.15345e-07 1.78838e-15)
(0.149136 -1.35523e-07 1.77505e-15)
(0.149136 -1.58846e-07 1.75863e-15)
(0.149136 -1.84774e-07 1.74387e-15)
(0.149136 -2.12788e-07 1.72842e-15)
(0.149136 -2.42407e-07 1.75242e-15)
(0.149136 -2.73199e-07 1.78442e-15)
(0.149136 -3.04773e-07 1.81033e-15)
(0.149136 -3.36761e-07 1.84867e-15)
(0.149136 -3.68794e-07 1.87081e-15)
(0.149136 -4.00482e-07 1.8889e-15)
(0.149136 -4.31403e-07 1.90835e-15)
(0.149136 -4.61089e-07 1.92466e-15)
(0.149136 -4.89025e-07 1.95902e-15)
(0.149136 -5.1464e-07 1.97786e-15)
(0.149136 -5.37294e-07 1.98663e-15)
(0.149136 -5.56271e-07 2.00037e-15)
(0.149136 -5.70758e-07 2.01148e-15)
(0.149136 -5.79828e-07 2.05011e-15)
(0.149136 -5.82411e-07 2.06619e-15)
(0.149136 -5.77261e-07 2.0694e-15)
(0.149136 -5.62922e-07 2.07826e-15)
(0.149136 -5.37646e-07 2.08175e-15)
(0.149136 -4.9938e-07 2.11622e-15)
(0.149136 -4.4555e-07 2.14444e-15)
(0.149136 -3.73483e-07 2.16273e-15)
(0.149136 -2.79604e-07 2.17107e-15)
(0.149136 -1.65115e-07 2.18832e-15)
(0.149136 -3.47415e-08 2.19202e-15)
(0.149136 3.04612e-08 2.18339e-15)
(0.149136 -9.11704e-09 2.17261e-15)
(0.149137 -6.94423e-08 2.16175e-15)
(0.149136 -1.06216e-07 2.16682e-15)
(0.149136 -1.20056e-07 2.16679e-15)
(0.149136 -1.12511e-07 2.15678e-15)
(0.149136 -8.59697e-08 2.1441e-15)
(0.149136 -4.43228e-08 2.12658e-15)
(0.149136 9.3095e-09 2.108e-15)
(0.149136 7.24637e-08 2.06989e-15)
(0.149136 1.42984e-07 2.08271e-15)
(0.149136 2.18961e-07 2.10514e-15)
(0.149136 2.98659e-07 2.09516e-15)
(0.149136 3.80458e-07 2.07995e-15)
(0.149136 4.62843e-07 2.04973e-15)
(0.149136 5.44388e-07 2.06208e-15)
(0.149136 6.23766e-07 2.08529e-15)
(0.149136 6.99753e-07 2.08891e-15)
(0.149136 7.71239e-07 2.08401e-15)
(0.149136 8.37244e-07 2.0617e-15)
(0.149136 8.96921e-07 2.07098e-15)
(0.149136 9.49574e-07 2.09188e-15)
(0.149136 9.9466e-07 2.09069e-15)
(0.149136 1.03179e-06 2.08374e-15)
(0.149136 1.06074e-06 2.05698e-15)
(0.149136 1.08143e-06 2.07305e-15)
(0.149136 1.09391e-06 2.1088e-15)
(0.149136 1.09839e-06 2.13049e-15)
(0.149136 1.09515e-06 2.14979e-15)
(0.149136 1.08458e-06 2.13664e-15)
(0.149136 1.06713e-06 2.23253e-15)
(0.149136 1.04328e-06 2.21603e-15)
(0.149136 1.01353e-06 2.23091e-15)
(0.149136 9.78378e-07 2.23794e-15)
(0.149136 9.38286e-07 2.2096e-15)
(0.149136 8.93678e-07 2.14381e-15)
(0.149136 8.4493e-07 2.13023e-15)
(0.149136 7.92364e-07 2.08095e-15)
(0.149136 7.36251e-07 1.97761e-15)
(0.149136 6.76828e-07 2.05035e-15)
(0.149136 6.14305e-07 2.18387e-15)
(0.149136 5.48893e-07 2.06218e-15)
(0.149136 4.80827e-07 2.0635e-15)
(0.149136 4.10391e-07 1.98089e-15)
(0.149136 3.37949e-07 2.04053e-15)
(0.149136 2.63979e-07 2.11543e-15)
(0.149136 1.89094e-07 2.15948e-15)
(0.149136 1.14081e-07 2.11522e-15)
(0.149136 3.99245e-08 2.00881e-15)
(0.149136 -3.21542e-08 2.08967e-15)
(0.149136 -1.0066e-07 2.19719e-15)
(0.149136 -1.63783e-07 2.22336e-15)
(0.149136 -2.19329e-07 2.14647e-15)
(0.149136 -2.64703e-07 1.9693e-15)
(0.149136 -2.96698e-07 2.06605e-15)
(0.149136 -3.11943e-07 2.138e-15)
(0.149136 -3.06107e-07 2.16902e-15)
(0.149136 -2.7965e-07 2.1161e-15)
(0.149136 -2.36569e-07 2.08087e-15)
(0.149136 -2.57402e-07 2.018e-15)
(0.149136 -3.80757e-07 2.18756e-15)
(0.149136 -5.21675e-07 2.08535e-15)
(0.149136 -6.35234e-07 2.09538e-15)
(0.149136 -7.21593e-07 1.93953e-15)
(0.149136 -7.81914e-07 2.04872e-15)
(0.149136 -8.18268e-07 2.07449e-15)
(0.149136 -8.34333e-07 2.05347e-15)
(0.149136 -8.33097e-07 2.00155e-15)
(0.149136 -8.17082e-07 2.00035e-15)
(0.149136 -7.88525e-07 2.02311e-15)
(0.149136 -7.4997e-07 2.11769e-15)
(0.149136 -7.03276e-07 2.09091e-15)
(0.149136 -6.52579e-07 2.01896e-15)
(0.149136 -5.98691e-07 1.91986e-15)
(0.149136 -5.6253e-07 1.98846e-15)
(0.149111 -4.97656e-07 2.11885e-15)
(0.149111 -4.15682e-07 2.02881e-15)
(0.149111 -3.59309e-07 2.04947e-15)
(0.149111 -3.07171e-07 2.04799e-15)
(0.149111 -2.58617e-07 2.02537e-15)
(0.149111 -2.17182e-07 2.01102e-15)
(0.149111 -1.81354e-07 1.99911e-15)
(0.149111 -1.50889e-07 1.97827e-15)
(0.149111 -1.26078e-07 1.96252e-15)
(0.149111 -1.06928e-07 1.94858e-15)
(0.149111 -9.34345e-08 1.92748e-15)
(0.149111 -8.55468e-08 1.90199e-15)
(0.149111 -8.31153e-08 1.86744e-15)
(0.149111 -8.59033e-08 1.83466e-15)
(0.149111 -9.35922e-08 1.80507e-15)
(0.149111 -1.05788e-07 1.79558e-15)
(0.149111 -1.22035e-07 1.7936e-15)
(0.149111 -1.41834e-07 1.78119e-15)
(0.149111 -1.6466e-07 1.76328e-15)
(0.149111 -1.89989e-07 1.74431e-15)
(0.149111 -2.17316e-07 1.73773e-15)
(0.149111 -2.46185e-07 1.76158e-15)
(0.149111 -2.76194e-07 1.79693e-15)
(0.149111 -3.06986e-07 1.83496e-15)
(0.149111 -3.38224e-07 1.87876e-15)
(0.149111 -3.69565e-07 1.91946e-15)
(0.149111 -4.00635e-07 1.95197e-15)
(0.149111 -4.31014e-07 1.97206e-15)
(0.149111 -4.60233e-07 1.99064e-15)
(0.149111 -4.87769e-07 2.02188e-15)
(0.149111 -5.1304e-07 2.05064e-15)
(0.149111 -5.35401e-07 2.07121e-15)
(0.149111 -5.5413e-07 2.08345e-15)
(0.149111 -5.68419e-07 2.09436e-15)
(0.149111 -5.77356e-07 2.11901e-15)
(0.149111 -5.79905e-07 2.14471e-15)
(0.149111 -5.74882e-07 2.16751e-15)
(0.149111 -5.60937e-07 2.1778e-15)
(0.149111 -5.36505e-07 2.18134e-15)
(0.149111 -4.99843e-07 2.20084e-15)
(0.149111 -4.48926e-07 2.22092e-15)
(0.149111 -3.82001e-07 2.24082e-15)
(0.149111 -2.97187e-07 2.25051e-15)
(0.149111 -1.97588e-07 2.2929e-15)
(0.149111 -8.91465e-08 2.28861e-15)
(0.149111 -2.5627e-08 2.26841e-15)
(0.149111 -3.72351e-08 2.25395e-15)
(0.149111 -7.15549e-08 2.24342e-15)
(0.149111 -9.47119e-08 2.27118e-15)
(0.149111 -1.02333e-07 2.26721e-15)
(0.149111 -9.27893e-08 2.24911e-15)
(0.149111 -6.65513e-08 2.23492e-15)
(0.149111 -2.61697e-08 2.21757e-15)
(0.149111 2.58442e-08 2.20968e-15)
(0.149111 8.72729e-08 2.13155e-15)
(0.149111 1.56072e-07 2.1748e-15)
(0.149111 2.30376e-07 2.20197e-15)
(0.149111 3.08466e-07 2.19646e-15)
(0.149111 3.88728e-07 2.18203e-15)
(0.149111 4.69645e-07 2.12367e-15)
(0.149111 5.49792e-07 2.17247e-15)
(0.149111 6.27839e-07 2.20774e-15)
(0.149111 7.02561e-07 2.2049e-15)
(0.149111 7.72845e-07 2.19426e-15)
(0.149111 8.37708e-07 2.14703e-15)
(0.149111 8.96306e-07 2.18468e-15)
(0.149111 9.47943e-07 2.22429e-15)
(0.149111 9.92079e-07 2.21385e-15)
(0.149111 1.02833e-06 2.20381e-15)
(0.149111 1.05649e-06 2.13867e-15)
(0.149111 1.07647e-06 2.19224e-15)
(0.149111 1.08837e-06 2.25194e-15)
(0.149111 1.09239e-06 2.26851e-15)
(0.149111 1.08884e-06 2.29639e-15)
(0.149111 1.07814e-06 2.25049e-15)
(0.149111 1.06075e-06 2.33218e-15)
(0.149111 1.03718e-06 2.36935e-15)
(0.149111 1.00796e-06 2.38011e-15)
(0.149111 9.73587e-07 2.39647e-15)
(0.149111 9.34535e-07 2.33657e-15)
(0.149111 8.9123e-07 2.37027e-15)
(0.149111 8.44038e-07 2.33946e-15)
(0.149111 7.9326e-07 2.29095e-15)
(0.149111 7.39141e-07 2.27451e-15)
(0.149111 6.81876e-07 2.26895e-15)
(0.149111 6.21626e-07 2.32277e-15)
(0.149111 5.58546e-07 2.30048e-15)
(0.149111 4.92805e-07 2.2728e-15)
(0.149111 4.24621e-07 2.25931e-15)
(0.149111 3.54287e-07 2.24993e-15)
(0.149111 2.82207e-07 2.31744e-15)
(0.149111 2.08922e-07 2.32949e-15)
(0.149111 1.35145e-07 2.29554e-15)
(0.149111 6.17862e-08 2.26784e-15)
(0.149111 -1.00168e-08 2.28339e-15)
(0.149111 -7.88663e-08 2.39069e-15)
(0.149111 -1.43076e-07 2.36714e-15)
(0.14911 -2.00638e-07 2.32687e-15)
(0.14911 -2.49243e-07 2.2878e-15)
(0.14911 -2.86199e-07 2.25711e-15)
(0.14911 -3.08989e-07 2.34661e-15)
(0.14911 -3.14896e-07 2.33011e-15)
(0.14911 -3.06187e-07 2.28195e-15)
(0.149111 -2.87959e-07 2.28813e-15)
(0.149111 -3.13253e-07 2.25331e-15)
(0.149111 -4.11255e-07 2.30151e-15)
(0.149111 -5.28598e-07 2.29145e-15)
(0.149111 -6.30692e-07 2.26448e-15)
(0.149111 -7.126e-07 2.26539e-15)
(0.149111 -7.72228e-07 2.21421e-15)
(0.149111 -8.09674e-07 2.28298e-15)
(0.149111 -8.27244e-07 2.26828e-15)
(0.149111 -8.27305e-07 2.22341e-15)
(0.149111 -8.12166e-07 2.20423e-15)
(0.149111 -7.83977e-07 2.20201e-15)
(0.149111 -7.45389e-07 2.2828e-15)
(0.149111 -6.98183e-07 2.29076e-15)
(0.149111 -6.46928e-07 2.21896e-15)
(0.149111 -5.91522e-07 2.17971e-15)
(0.149111 -5.55801e-07 2.126e-15)
(0.149081 -4.90461e-07 2.21054e-15)
(0.149081 -4.11004e-07 2.14875e-15)
(0.149081 -3.56641e-07 2.12461e-15)
(0.149081 -3.05239e-07 2.10467e-15)
(0.149081 -2.57234e-07 2.0727e-15)
(0.149081 -2.16567e-07 2.05869e-15)
(0.149081 -1.8166e-07 2.02349e-15)
(0.149081 -1.52212e-07 1.97671e-15)
(0.149081 -1.28416e-07 1.95424e-15)
(0.149081 -1.10191e-07 1.92423e-15)
(0.149081 -9.74834e-08 1.89342e-15)
(0.149081 -9.02129e-08 1.87418e-15)
(0.149081 -8.82189e-08 1.83582e-15)
(0.149081 -9.12645e-08 1.80898e-15)
(0.149081 -9.90375e-08 1.77879e-15)
(0.149081 -1.11155e-07 1.792e-15)
(0.149081 -1.27172e-07 1.80612e-15)
(0.149081 -1.46602e-07 1.7872e-15)
(0.149081 -1.6893e-07 1.76488e-15)
(0.149081 -1.93643e-07 1.73952e-15)
(0.149081 -2.20255e-07 1.7487e-15)
(0.149081 -2.4833e-07 1.79378e-15)
(0.149081 -2.775e-07 1.83618e-15)
(0.149081 -3.07449e-07 1.88684e-15)
(0.149081 -3.37878e-07 1.9424e-15)
(0.149081 -3.68476e-07 1.99805e-15)
(0.149081 -3.98886e-07 2.03843e-15)
(0.149081 -4.28694e-07 2.05087e-15)
(0.149081 -4.5743e-07 2.0718e-15)
(0.149081 -4.84566e-07 2.11027e-15)
(0.149081 -5.09513e-07 2.14463e-15)
(0.149081 -5.31618e-07 2.16879e-15)
(0.149081 -5.5016e-07 2.17367e-15)
(0.149081 -5.64337e-07 2.18595e-15)
(0.149081 -5.73257e-07 2.21181e-15)
(0.149081 -5.75922e-07 2.24355e-15)
(0.149081 -5.71214e-07 2.28068e-15)
(0.149081 -5.57891e-07 2.28558e-15)
(0.149081 -5.34571e-07 2.28652e-15)
(0.149081 -4.99797e-07 2.30521e-15)
(0.149081 -4.52031e-07 2.31407e-15)
(0.149081 -3.90238e-07 2.3209e-15)
(0.149081 -3.13739e-07 2.32759e-15)
(0.149081 -2.26446e-07 2.41781e-15)
(0.149081 -1.34599e-07 2.38017e-15)
(0.149081 -7.42069e-08 2.34436e-15)
(0.149081 -6.74092e-08 2.32677e-15)
(0.149081 -8.13965e-08 2.31887e-15)
(0.149081 -9.12566e-08 2.46525e-15)
(0.149081 -9.10041e-08 2.36271e-15)
(0.149081 -7.74881e-08 2.33286e-15)
(0.149081 -4.98846e-08 2.31672e-15)
(0.149081 -9.5697e-09 2.30235e-15)
(0.149081 4.16292e-08 2.28526e-15)
(0.149081 1.01854e-07 2.17637e-15)
(0.149081 1.69259e-07 2.28941e-15)
(0.149081 2.42085e-07 2.36529e-15)
(0.149081 3.18668e-07 2.29603e-15)
(0.149081 3.97427e-07 2.28149e-15)
(0.149081 4.76864e-07 2.17469e-15)
(0.149081 5.55564e-07 2.3075e-15)
(0.149081 6.32204e-07 2.32787e-15)
(0.149081 7.05564e-07 2.32099e-15)
(0.149081 7.74535e-07 2.30386e-15)
(0.149081 8.38138e-07 2.14088e-15)
(0.149081 8.95533e-07 2.33276e-15)
(0.149081 9.46028e-07 2.34275e-15)
(0.149081 9.89093e-07 2.34532e-15)
(0.149081 1.02436e-06 2.31822e-15)
(0.149081 1.05161e-06 2.21109e-15)
(0.149081 1.07081e-06 2.33938e-15)
(0.149081 1.08204e-06 2.44778e-15)
(0.149081 1.08554e-06 2.4118e-15)
(0.149081 1.08165e-06 2.55183e-15)
(0.149081 1.0708e-06 2.28076e-15)
(0.149081 1.05349e-06 2.48348e-15)
(0.149081 1.03023e-06 2.59654e-15)
(0.149081 1.00158e-06 2.52567e-15)
(0.149081 9.68041e-07 2.53191e-15)
(0.149081 9.30098e-07 2.43937e-15)
(0.149081 8.88171e-07 2.61693e-15)
(0.149081 8.4261e-07 2.54957e-15)
(0.149081 7.93692e-07 2.4854e-15)
(0.149081 7.41626e-07 2.6061e-15)
(0.149081 6.86563e-07 2.49601e-15)
(0.149081 6.2861e-07 2.56333e-15)
(0.149081 5.67861e-07 2.5098e-15)
(0.149081 5.04419e-07 2.46152e-15)
(0.149081 4.38431e-07 2.51286e-15)
(0.149081 3.70118e-07 2.46534e-15)
(0.149081 2.99811e-07 2.54126e-15)
(0.149081 2.2798e-07 2.50508e-15)
(0.149081 1.55264e-07 2.46319e-15)
(0.149081 8.24974e-08 2.57951e-15)
(0.149081 1.07366e-08 2.47461e-15)
(0.149081 -5.87196e-08 2.63206e-15)
(0.149081 -1.24309e-07 2.53814e-15)
(0.149081 -1.84203e-07 2.48194e-15)
(0.149081 -2.36359e-07 2.5204e-15)
(0.149081 -2.78524e-07 2.45409e-15)
(0.149081 -3.08838e-07 2.59903e-15)
(0.149081 -3.25697e-07 2.49719e-15)
(0.149081 -3.32075e-07 2.43182e-15)
(0.149081 -3.3326e-07 2.55437e-15)
(0.149081 -3.64366e-07 2.44262e-15)
(0.149081 -4.46449e-07 2.56464e-15)
(0.149081 -5.45704e-07 2.46029e-15)
(0.149081 -6.36422e-07 2.41465e-15)
(0.149081 -7.11965e-07 2.46811e-15)
(0.149081 -7.68646e-07 2.41505e-15)
(0.149081 -8.05216e-07 2.47066e-15)
(0.149081 -8.22775e-07 2.51554e-15)
(0.149081 -8.2299e-07 2.40956e-15)
(0.149081 -8.0784e-07 2.55772e-15)
(0.149081 -7.79289e-07 2.36779e-15)
(0.149081 -7.40029e-07 2.50564e-15)
(0.149081 -6.91707e-07 2.55373e-15)
(0.149081 -6.39278e-07 2.38924e-15)
(0.149081 -5.8192e-07 2.37721e-15)
(0.149081 -5.46149e-07 2.2883e-15)
(0.149048 -4.80534e-07 2.2772e-15)
(0.149048 -4.03039e-07 2.28897e-15)
(0.149048 -3.50665e-07 2.20162e-15)
(0.149048 -3.00493e-07 2.16525e-15)
(0.149048 -2.53552e-07 2.11542e-15)
(0.149048 -2.13968e-07 2.11756e-15)
(0.149048 -1.8015e-07 2.03272e-15)
(0.149048 -1.51804e-07 1.95409e-15)
(0.149048 -1.29064e-07 1.94372e-15)
(0.149048 -1.1179e-07 1.8823e-15)
(0.149048 -9.98885e-08 1.84589e-15)
(0.149048 -9.32566e-08 1.84739e-15)
(0.149048 -9.17225e-08 1.79125e-15)
(0.149048 -9.50486e-08 1.77813e-15)
(0.149048 -1.02928e-07 1.73274e-15)
(0.149048 -1.14987e-07 1.80154e-15)
(0.149048 -1.3079e-07 1.8329e-15)
(0.149048 -1.4986e-07 1.78743e-15)
(0.149048 -1.7169e-07 1.76424e-15)
(0.149048 -1.95778e-07 1.7265e-15)
(0.149048 -2.21648e-07 1.7749e-15)
(0.149048 -2.48887e-07 1.86644e-15)
(0.149048 -2.77166e-07 1.90314e-15)
(0.149048 -3.06215e-07 1.97093e-15)
(0.149048 -3.35781e-07 2.0446e-15)
(0.149048 -3.6559e-07 2.11318e-15)
(0.149048 -3.95305e-07 2.15192e-15)
(0.149048 -4.24521e-07 2.13826e-15)
(0.149048 -4.5277e-07 2.17435e-15)
(0.149048 -4.79515e-07 2.22643e-15)
(0.149048 -5.04162e-07 2.26219e-15)
(0.149048 -5.26056e-07 2.28133e-15)
(0.149048 -5.44475e-07 2.26426e-15)
(0.149048 -5.58628e-07 2.2861e-15)
(0.149048 -5.67643e-07 2.32632e-15)
(0.149048 -5.70561e-07 2.36241e-15)
(0.149048 -5.66332e-07 2.41952e-15)
(0.149048 -5.53819e-07 2.39665e-15)
(0.149048 -5.31809e-07 2.39623e-15)
(0.149048 -4.99102e-07 2.42643e-15)
(0.149048 -4.54562e-07 2.41387e-15)
(0.149048 -3.97692e-07 2.39871e-15)
(0.149048 -3.28616e-07 2.39129e-15)
(0.149048 -2.51419e-07 2.42468e-15)
(0.149048 -1.72101e-07 2.42044e-15)
(0.149048 -1.15132e-07 2.4064e-15)
(0.149048 -9.64643e-08 2.39394e-15)
(0.149048 -9.53197e-08 2.3865e-15)
(0.149048 -9.36031e-08 2.41607e-15)
(0.149048 -8.53286e-08 2.41597e-15)
(0.149048 -6.69002e-08 2.40409e-15)
(0.149048 -3.68106e-08 2.39215e-15)
(0.149048 4.41701e-09 2.37814e-15)
(0.149048 5.55584e-08 2.37357e-15)
(0.149048 1.15133e-07 2.30393e-15)
(0.149048 1.81533e-07 2.35015e-15)
(0.149048 2.53146e-07 2.38411e-15)
(0.149048 3.28394e-07 2.39035e-15)
(0.149048 4.05754e-07 2.38207e-15)
(0.149048 4.8376e-07 2.33303e-15)
(0.149048 5.61024e-07 2.38874e-15)
(0.149048 6.36238e-07 2.42281e-15)
(0.149048 7.08193e-07 2.4211e-15)
(0.149048 7.75793e-07 2.41224e-15)
(0.149048 8.38066e-07 2.37325e-15)
(0.149048 8.94181e-07 2.41827e-15)
(0.149048 9.43457e-07 2.45904e-15)
(0.149048 9.85374e-07 2.45044e-15)
(0.149048 1.01957e-06 2.44049e-15)
(0.149048 1.04587e-06 2.37933e-15)
(0.149048 1.06422e-06 2.44041e-15)
(0.149048 1.07475e-06 2.50467e-15)
(0.149048 1.07772e-06 2.52825e-15)
(0.149048 1.07348e-06 2.56167e-15)
(0.149048 1.06249e-06 2.52459e-15)
(0.149048 1.04528e-06 2.6082e-15)
(0.149048 1.02238e-06 2.64426e-15)
(0.149048 9.9436e-07 2.65786e-15)
(0.149048 9.61733e-07 2.67691e-15)
(0.149048 9.24982e-07 2.62666e-15)
(0.149048 8.84516e-07 2.6875e-15)
(0.149048 8.40669e-07 2.68432e-15)
(0.149048 7.93687e-07 2.65874e-15)
(0.149048 7.43738e-07 2.67445e-15)
(0.149048 6.90923e-07 2.65709e-15)
(0.149048 6.35293e-07 2.67558e-15)
(0.149048 5.76876e-07 2.65887e-15)
(0.149048 5.15705e-07 2.61995e-15)
(0.149048 4.51857e-07 2.6237e-15)
(0.149048 3.8548e-07 2.60575e-15)
(0.149048 3.16832e-07 2.63391e-15)
(0.149048 2.46312e-07 2.63469e-15)
(0.149048 1.74488e-07 2.60927e-15)
(0.149048 1.0212e-07 2.61723e-15)
(0.149048 3.01867e-08 2.60969e-15)
(0.149048 -4.011e-08 2.65386e-15)
(0.149048 -1.07325e-07 2.64602e-15)
(0.149048 -1.69799e-07 2.61237e-15)
(0.149048 -2.25716e-07 2.60807e-15)
(0.149048 -2.73184e-07 2.58398e-15)
(0.149048 -3.10807e-07 2.62253e-15)
(0.149048 -3.37688e-07 2.59903e-15)
(0.149048 -3.56877e-07 2.5581e-15)
(0.149048 -3.73316e-07 2.57874e-15)
(0.149048 -4.10432e-07 2.54874e-15)
(0.149048 -4.83e-07 2.57164e-15)
(0.149048 -5.69188e-07 2.56787e-15)
(0.149048 -6.50028e-07 2.53384e-15)