/*--------------------------------*- C++ -*----------------------------------*\
  =========                 |
  \\      /  F ield         | OpenFOAM: The Open Source CFD Toolbox
   \\    /   O peration     | Website:  https://openfoam.org
    \\  /    A nd           | Version:  7
     \\/     M anipulation  |
\*---------------------------------------------------------------------------*/
FoamFile
{
    version     2.0;
    format      ascii;
    class       surfaceScalarField;
    location    "16500";
    object      phi;
}
// * * * * * * * * * * * * * * * * * * * * * * * * * * * * * * * * * * * * * //

dimensions      [0 3 -1 0 0 0 0];

internalField   nonuniform List<scalar> 
47680
(
2.19931e-06
1.98602e-12
2.19931e-06
-4.71723e-12
2.19932e-06
-8.46548e-12
2.19933e-06
-7.12493e-12
2.19933e-06
-3.42414e-12
2.19933e-06
4.62942e-13
2.19933e-06
3.59431e-12
2.19932e-06
5.76309e-12
2.19932e-06
7.0437e-12
2.19931e-06
7.60551e-12
2.1993e-06
7.64321e-12
2.19929e-06
7.31208e-12
2.19929e-06
6.73042e-12
2.19928e-06
6.0041e-12
2.19928e-06
5.21945e-12
2.19927e-06
4.42002e-12
2.19927e-06
3.61143e-12
2.19926e-06
2.8158e-12
2.19926e-06
2.06496e-12
2.19926e-06
1.34953e-12
2.19926e-06
6.55117e-13
2.19926e-06
-6.99372e-15
2.19926e-06
-6.18838e-13
2.19926e-06
-1.16039e-12
2.19926e-06
-1.62675e-12
2.19927e-06
-2.03923e-12
2.19927e-06
-2.42417e-12
2.19927e-06
-2.79103e-12
2.19927e-06
-3.12228e-12
2.19928e-06
-3.39957e-12
2.19928e-06
-3.63542e-12
2.19929e-06
-3.85719e-12
2.19929e-06
-4.06572e-12
2.19929e-06
-4.24627e-12
2.1993e-06
-4.36868e-12
2.1993e-06
-4.45467e-12
2.19931e-06
-4.50782e-12
2.19931e-06
-4.57566e-12
2.19932e-06
-4.53205e-12
2.19932e-06
-4.47282e-12
2.19932e-06
-4.14551e-12
2.19933e-06
-3.83837e-12
2.19933e-06
-3.09059e-12
2.19933e-06
-2.18603e-12
2.19933e-06
-1.08963e-12
2.19933e-06
4.15782e-13
2.19933e-06
7.95054e-13
2.19933e-06
8.62582e-13
2.19933e-06
6.54803e-13
2.19933e-06
6.5376e-14
2.19933e-06
-3.01845e-13
2.19933e-06
-6.46445e-13
2.19933e-06
-9.48656e-13
2.19934e-06
-1.17585e-12
2.19934e-06
-1.3331e-12
2.19934e-06
-1.40311e-12
2.19934e-06
-1.37054e-12
2.19934e-06
-1.25764e-12
2.19934e-06
-1.08222e-12
2.19934e-06
-8.30541e-13
2.19934e-06
-4.93942e-13
2.19934e-06
-1.02567e-13
2.19934e-06
2.96925e-13
2.19934e-06
6.91523e-13
2.19934e-06
1.07588e-12
2.19934e-06
1.42419e-12
2.19934e-06
1.71527e-12
2.19934e-06
1.94157e-12
2.19933e-06
2.11346e-12
2.19933e-06
2.26706e-12
2.19933e-06
2.406e-12
2.19933e-06
2.48627e-12
2.19932e-06
2.4956e-12
2.19932e-06
2.46008e-12
2.19932e-06
2.40213e-12
2.19932e-06
2.34271e-12
2.19931e-06
2.28051e-12
2.19931e-06
2.18835e-12
2.19931e-06
2.06176e-12
2.19931e-06
1.91579e-12
2.19931e-06
1.75379e-12
2.19931e-06
1.5925e-12
2.1993e-06
1.4456e-12
2.1993e-06
1.32787e-12
2.1993e-06
1.16919e-12
2.1993e-06
9.78066e-13
2.1993e-06
6.72805e-13
2.1993e-06
4.07909e-13
2.1993e-06
2.53234e-13
2.1993e-06
1.44206e-13
2.1993e-06
1.36578e-13
2.1993e-06
8.84938e-14
2.1993e-06
2.10824e-14
2.1993e-06
-4.1341e-14
2.1993e-06
-1.40243e-13
2.1993e-06
-2.52393e-13
2.1993e-06
-4.11818e-13
2.1993e-06
-5.26146e-13
2.1993e-06
-6.9462e-13
2.1993e-06
-6.42465e-13
2.1993e-06
-6.69243e-13
2.1993e-06
-3.07028e-13
2.1993e-06
1.04986e-13
2.1993e-06
7.3594e-13
2.1993e-06
1.62709e-12
2.1993e-06
1.6689e-12
2.1993e-06
1.44234e-12
2.1993e-06
8.89665e-13
2.1993e-06
1.8068e-13
2.1993e-06
-5.29034e-13
2.1993e-06
-1.18712e-12
2.1993e-06
-1.71695e-12
2.1993e-06
-2.15164e-12
2.1993e-06
-2.40424e-12
2.19931e-06
-2.55342e-12
2.19931e-06
-2.52214e-12
2.19931e-06
-1.95036e-12
2.19931e-06
-2.03336e-12
2.19931e-06
-1.24824e-12
2.63378e-12
6.79536e-06
2.54376e-12
6.79537e-06
-2.07245e-11
6.7954e-06
-3.23309e-11
6.79542e-06
-2.59408e-11
6.79543e-06
-1.12362e-11
6.79542e-06
3.82961e-12
6.79541e-06
1.58435e-11
6.79539e-06
2.40913e-11
6.79537e-06
2.89e-11
6.79535e-06
3.09342e-11
6.79532e-06
3.09371e-11
6.7953e-06
2.95093e-11
6.79528e-06
2.7113e-11
6.79526e-06
2.41506e-11
6.79525e-06
2.09548e-11
6.79523e-06
1.77045e-11
6.79522e-06
1.4439e-11
6.79521e-06
1.12347e-11
6.79521e-06
8.19895e-12
6.7952e-06
5.31356e-12
6.7952e-06
2.5317e-12
6.7952e-06
-1.13278e-13
6.7952e-06
-2.55786e-12
6.79521e-06
-4.72743e-12
6.79521e-06
-6.60613e-12
6.79522e-06
-8.26811e-12
6.79523e-06
-9.8074e-12
6.79523e-06
-1.12633e-11
6.79524e-06
-1.25793e-11
6.79525e-06
-1.36927e-11
6.79527e-06
-1.46403e-11
6.79528e-06
-1.55132e-11
6.79529e-06
-1.63275e-11
6.7953e-06
-1.70277e-11
6.79532e-06
-1.75231e-11
6.79533e-06
-1.78638e-11
6.79534e-06
-1.8097e-11
6.79536e-06
-1.8332e-11
6.79537e-06
-1.8229e-11
6.79538e-06
-1.79715e-11
6.7954e-06
-1.68681e-11
6.79541e-06
-1.56612e-11
6.79542e-06
-1.29938e-11
6.79543e-06
-9.6675e-12
6.79543e-06
-5.50978e-12
6.79543e-06
-1.15054e-13
6.79543e-06
1.81245e-12
6.79543e-06
2.32932e-12
6.79543e-06
1.74771e-12
6.79543e-06
-1.58932e-13
6.79543e-06
-1.52571e-12
6.79543e-06
-2.75832e-12
6.79543e-06
-3.84154e-12
6.79544e-06
-4.65616e-12
6.79544e-06
-5.1984e-12
6.79544e-06
-5.4041e-12
6.79545e-06
-5.2169e-12
6.79545e-06
-4.70665e-12
6.79545e-06
-3.94207e-12
6.79546e-06
-2.88761e-12
6.79546e-06
-1.51963e-12
6.79546e-06
5.28911e-14
6.79546e-06
1.66096e-12
6.79545e-06
3.23943e-12
6.79545e-06
4.76072e-12
6.79545e-06
6.13564e-12
6.79544e-06
7.28721e-12
6.79543e-06
8.18514e-12
6.79543e-06
8.86775e-12
6.79542e-06
9.45925e-12
6.79541e-06
9.97765e-12
6.7954e-06
1.02797e-11
6.7954e-06
1.03159e-11
6.79539e-06
1.0172e-11
6.79538e-06
9.93212e-12
6.79537e-06
9.67647e-12
6.79537e-06
9.40691e-12
6.79536e-06
9.03264e-12
6.79535e-06
8.53154e-12
6.79535e-06
7.95139e-12
6.79534e-06
7.3149e-12
6.79534e-06
6.67606e-12
6.79533e-06
6.09305e-12
6.79533e-06
5.59981e-12
6.79532e-06
4.98322e-12
6.79532e-06
4.22264e-12
6.79532e-06
3.0769e-12
6.79532e-06
2.03697e-12
6.79532e-06
1.37164e-12
6.79531e-06
9.24632e-13
6.79531e-06
8.2681e-13
6.79531e-06
6.39071e-13
6.79531e-06
3.80115e-13
6.79531e-06
1.14027e-13
6.79531e-06
-2.76234e-13
6.79531e-06
-7.58581e-13
6.79531e-06
-1.39433e-12
6.79532e-06
-1.94979e-12
6.79532e-06
-2.62102e-12
6.79532e-06
-2.65155e-12
6.79532e-06
-2.79393e-12
6.79532e-06
-1.6995e-12
6.79532e-06
-2.87207e-13
6.79532e-06
1.96712e-12
6.79532e-06
5.03359e-12
6.79532e-06
5.48399e-12
6.79531e-06
4.74143e-12
6.79531e-06
2.82731e-12
6.79531e-06
2.77182e-13
6.79531e-06
-2.34899e-12
6.79532e-06
-4.80196e-12
6.79532e-06
-6.81881e-12
6.79533e-06
-8.45708e-12
6.79533e-06
-9.45769e-12
6.79534e-06
-1.00572e-11
6.79535e-06
-9.95493e-12
6.79535e-06
-8.01195e-12
6.79536e-06
-8.29467e-12
6.79536e-06
-4.6097e-12
7.61404e-12
1.17012e-05
-4.23429e-12
1.17012e-05
-5.10918e-11
1.17013e-05
-7.03942e-11
1.17013e-05
-5.34126e-11
1.17013e-05
-2.02821e-11
1.17013e-05
1.27475e-11
1.17013e-05
3.87892e-11
1.17012e-05
5.65047e-11
1.17012e-05
6.66891e-11
1.17012e-05
7.08211e-11
1.17011e-05
7.05071e-11
1.17011e-05
6.70623e-11
1.1701e-05
6.15017e-11
1.1701e-05
5.46977e-11
1.1701e-05
4.73742e-11
1.1701e-05
3.9941e-11
1.1701e-05
3.2509e-11
1.17009e-05
2.52337e-11
1.17009e-05
1.83267e-11
1.17009e-05
1.17706e-11
1.17009e-05
5.48262e-12
1.17009e-05
-4.80924e-13
1.17009e-05
-5.9892e-12
1.17009e-05
-1.08879e-11
1.17009e-05
-1.51464e-11
1.17009e-05
-1.89165e-11
1.1701e-05
-2.23915e-11
1.1701e-05
-2.56563e-11
1.1701e-05
-2.86091e-11
1.1701e-05
-3.11247e-11
1.1701e-05
-3.32669e-11
1.1701e-05
-3.52141e-11
1.17011e-05
-3.70134e-11
1.17011e-05
-3.85565e-11
1.17011e-05
-3.96735e-11
1.17011e-05
-4.04422e-11
1.17012e-05
-4.09895e-11
1.17012e-05
-4.14813e-11
1.17012e-05
-4.13346e-11
1.17012e-05
-4.07625e-11
1.17012e-05
-3.85686e-11
1.17013e-05
-3.59471e-11
1.17013e-05
-3.0448e-11
1.17013e-05
-2.34442e-11
1.17013e-05
-1.45523e-11
1.17013e-05
-3.32196e-12
1.17013e-05
1.52911e-12
1.17013e-05
3.16377e-12
1.17013e-05
2.32279e-12
1.17013e-05
-1.24073e-12
1.17013e-05
-4.06015e-12
1.17013e-05
-6.58382e-12
1.17013e-05
-8.79073e-12
1.17013e-05
-1.04442e-11
1.17013e-05
-1.15e-11
1.17013e-05
-1.18182e-11
1.17013e-05
-1.12758e-11
1.17014e-05
-1.00055e-11
1.17014e-05
-8.15703e-12
1.17014e-05
-5.68118e-12
1.17014e-05
-2.54222e-12
1.17014e-05
1.02917e-12
1.17014e-05
4.67551e-12
1.17014e-05
8.23776e-12
1.17013e-05
1.16431e-11
1.17013e-05
1.47099e-11
1.17013e-05
1.72788e-11
1.17013e-05
1.92861e-11
1.17013e-05
2.08118e-11
1.17013e-05
2.21048e-11
1.17013e-05
2.32058e-11
1.17013e-05
2.38448e-11
1.17012e-05
2.39163e-11
1.17012e-05
2.35835e-11
1.17012e-05
2.30257e-11
1.17012e-05
2.24169e-11
1.17012e-05
2.17707e-11
1.17012e-05
2.09107e-11
1.17012e-05
1.97844e-11
1.17012e-05
1.84812e-11
1.17012e-05
1.70622e-11
1.17011e-05
1.56345e-11
1.17011e-05
1.43228e-11
1.17011e-05
1.31784e-11
1.17011e-05
1.18066e-11
1.17011e-05
1.01028e-11
1.17011e-05
7.63045e-12
1.17011e-05
5.32314e-12
1.17011e-05
3.76079e-12
1.17011e-05
2.72167e-12
1.17011e-05
2.39993e-12
1.17011e-05
1.97111e-12
1.17011e-05
1.39992e-12
1.17011e-05
7.76821e-13
1.17011e-05
-1.11138e-13
1.17011e-05
-1.25057e-12
1.17011e-05
-2.71298e-12
1.17011e-05
-4.11096e-12
1.17011e-05
-5.68158e-12
1.17011e-05
-6.10679e-12
1.17011e-05
-6.57386e-12
1.17011e-05
-4.67036e-12
1.17011e-05
-1.92655e-12
1.17011e-05
2.63795e-12
1.17011e-05
8.78249e-12
1.17011e-05
1.01229e-11
1.17011e-05
8.77688e-12
1.17011e-05
4.96135e-12
1.17011e-05
-2.79421e-13
1.17011e-05
-5.80368e-12
1.17011e-05
-1.10095e-11
1.17011e-05
-1.53487e-11
1.17011e-05
-1.88626e-11
1.17011e-05
-2.10803e-11
1.17012e-05
-2.24249e-11
1.17012e-05
-2.22522e-11
1.17012e-05
-1.84162e-11
1.17012e-05
-1.89427e-11
1.17012e-05
-9.869e-12
1.21021e-11
1.69069e-05
-2.51954e-11
1.69069e-05
-9.91435e-11
1.6907e-05
-1.20415e-10
1.6907e-05
-8.50595e-11
1.6907e-05
-2.63035e-11
1.6907e-05
3.04371e-11
1.6907e-05
7.45975e-11
1.69069e-05
1.04328e-10
1.69069e-05
1.21132e-10
1.69068e-05
1.27583e-10
1.69068e-05
1.26415e-10
1.69067e-05
1.19873e-10
1.69067e-05
1.09705e-10
1.69066e-05
9.74014e-11
1.69066e-05
8.41994e-11
1.69065e-05
7.08311e-11
1.69065e-05
5.75204e-11
1.69065e-05
4.45159e-11
1.69065e-05
3.21522e-11
1.69065e-05
2.04306e-11
1.69065e-05
9.23661e-12
1.69065e-05
-1.35138e-12
1.69065e-05
-1.11224e-11
1.69065e-05
-1.98272e-11
1.69065e-05
-2.74208e-11
1.69065e-05
-3.41528e-11
1.69065e-05
-4.03355e-11
1.69066e-05
-4.61082e-11
1.69066e-05
-5.13295e-11
1.69066e-05
-5.58017e-11
1.69066e-05
-5.96129e-11
1.69067e-05
-6.30402e-11
1.69067e-05
-6.61774e-11
1.69067e-05
-6.88608e-11
1.69068e-05
-7.08331e-11
1.69068e-05
-7.22061e-11
1.69068e-05
-7.32008e-11
1.69068e-05
-7.4041e-11
1.69069e-05
-7.38785e-11
1.69069e-05
-7.2919e-11
1.69069e-05
-6.94175e-11
1.6907e-05
-6.49847e-11
1.6907e-05
-5.59753e-11
1.6907e-05
-4.43159e-11
1.6907e-05
-2.93736e-11
1.6907e-05
-1.0753e-11
1.6907e-05
-1.60226e-12
1.6907e-05
2.05925e-12
1.6907e-05
1.36181e-12
1.6907e-05
-3.85034e-12
1.69071e-05
-8.32539e-12
1.69071e-05
-1.23719e-11
1.69071e-05
-1.58873e-11
1.69071e-05
-1.84957e-11
1.69071e-05
-2.00745e-11
1.69071e-05
-2.03726e-11
1.69071e-05
-1.91805e-11
1.69071e-05
-1.67025e-11
1.69071e-05
-1.31953e-11
1.69071e-05
-8.61507e-12
1.69071e-05
-2.92962e-12
1.69071e-05
3.46869e-12
1.69071e-05
9.9801e-12
1.69071e-05
1.63087e-11
1.69071e-05
2.23126e-11
1.69071e-05
2.76956e-11
1.69071e-05
3.22e-11
1.6907e-05
3.57252e-11
1.6907e-05
3.8404e-11
1.6907e-05
4.06281e-11
1.6907e-05
4.24714e-11
1.6907e-05
4.35249e-11
1.69069e-05
4.3621e-11
1.69069e-05
4.30082e-11
1.69069e-05
4.1987e-11
1.69069e-05
4.08511e-11
1.69069e-05
3.96404e-11
1.69069e-05
3.80808e-11
1.69068e-05
3.60763e-11
1.69068e-05
3.37678e-11
1.69068e-05
3.12713e-11
1.69068e-05
2.87572e-11
1.69068e-05
2.64303e-11
1.69068e-05
2.43565e-11
1.69068e-05
2.19301e-11
1.69068e-05
1.89212e-11
1.69067e-05
1.4681e-11
1.69067e-05
1.06489e-11
1.69067e-05
7.80419e-12
1.69067e-05
5.90226e-12
1.69067e-05
5.19021e-12
1.69067e-05
4.40322e-12
1.69067e-05
3.3967e-12
1.69067e-05
2.25283e-12
1.69067e-05
6.39227e-13
1.69067e-05
-1.47254e-12
1.69067e-05
-4.15694e-12
1.69067e-05
-6.85344e-12
1.69067e-05
-9.80316e-12
1.69067e-05
-1.10691e-11
1.69067e-05
-1.22232e-11
1.69068e-05
-9.68119e-12
1.69068e-05
-5.54039e-12
1.69068e-05
1.69241e-12
1.69068e-05
1.14804e-11
1.69067e-05
1.41603e-11
1.69067e-05
1.23104e-11
1.69067e-05
6.32021e-12
1.69067e-05
-2.1557e-12
1.69068e-05
-1.12866e-11
1.69068e-05
-1.99805e-11
1.69068e-05
-2.73048e-11
1.69068e-05
-3.32389e-11
1.69068e-05
-3.70813e-11
1.69068e-05
-3.94399e-11
1.69068e-05
-3.92354e-11
1.69069e-05
-3.32047e-11
1.69069e-05
-3.40161e-11
1.69069e-05
-1.6618e-11
1.30389e-11
2.23334e-05
-6.695e-11
2.23334e-05
-1.64854e-10
2.23335e-05
-1.76887e-10
2.23335e-05
-1.1459e-10
2.23335e-05
-2.4702e-11
2.23335e-05
5.93804e-11
2.23334e-05
1.24022e-10
2.23334e-05
1.67114e-10
2.23333e-05
1.91043e-10
2.23332e-05
1.99644e-10
2.23331e-05
1.96932e-10
2.23331e-05
1.86219e-10
2.2333e-05
1.70102e-10
2.2333e-05
1.50795e-10
2.23329e-05
1.30143e-10
2.23329e-05
1.09271e-10
2.23329e-05
8.85517e-11
2.23328e-05
6.83349e-11
2.23328e-05
4.9088e-11
2.23328e-05
3.08528e-11
2.23328e-05
1.34975e-11
2.23328e-05
-2.87612e-12
2.23328e-05
-1.79756e-11
2.23328e-05
-3.14485e-11
2.23328e-05
-4.32454e-11
2.23329e-05
-5.37295e-11
2.23329e-05
-6.33317e-11
2.23329e-05
-7.22503e-11
2.23329e-05
-8.03139e-11
2.2333e-05
-8.72536e-11
2.2333e-05
-9.31706e-11
2.2333e-05
-9.84494e-11
2.23331e-05
-1.0324e-10
2.23331e-05
-1.07327e-10
2.23331e-05
-1.10371e-10
2.23332e-05
-1.12523e-10
2.23332e-05
-1.14104e-10
2.23333e-05
-1.15391e-10
2.23333e-05
-1.15256e-10
2.23333e-05
-1.13885e-10
2.23334e-05
-1.08964e-10
2.23334e-05
-1.02463e-10
2.23335e-05
-8.95065e-11
2.23335e-05
-7.2527e-11
2.23335e-05
-5.06177e-11
2.23335e-05
-2.34861e-11
2.23335e-05
-8.80052e-12
2.23335e-05
-2.08371e-12
2.23335e-05
-1.99867e-12
2.23335e-05
-8.53925e-12
2.23335e-05
-1.46053e-11
2.23336e-05
-2.02058e-11
2.23336e-05
-2.50434e-11
2.23336e-05
-2.85791e-11
2.23336e-05
-3.05687e-11
2.23336e-05
-3.06136e-11
2.23336e-05
-2.84021e-11
2.23336e-05
-2.42194e-11
2.23336e-05
-1.84513e-11
2.23336e-05
-1.10795e-11
2.23336e-05
-2.10299e-12
2.23336e-05
7.88854e-12
2.23336e-05
1.80087e-11
2.23336e-05
2.77944e-11
2.23336e-05
3.70122e-11
2.23336e-05
4.52377e-11
2.23335e-05
5.21118e-11
2.23335e-05
5.74987e-11
2.23335e-05
6.15927e-11
2.23335e-05
6.49354e-11
2.23334e-05
6.76307e-11
2.23334e-05
6.9135e-11
2.23334e-05
6.92276e-11
2.23334e-05
6.82464e-11
2.23333e-05
6.66243e-11
2.23333e-05
6.4798e-11
2.23333e-05
6.2841e-11
2.23333e-05
6.03752e-11
2.23333e-05
5.72595e-11
2.23332e-05
5.36955e-11
2.23332e-05
4.98656e-11
2.23332e-05
4.60104e-11
2.23332e-05
4.24109e-11
2.23332e-05
3.91471e-11
2.23332e-05
3.53826e-11
2.23331e-05
3.07346e-11
2.23331e-05
2.4348e-11
2.23331e-05
1.8206e-11
2.23331e-05
1.37368e-11
2.23331e-05
1.07158e-11
2.23331e-05
9.4344e-12
2.23331e-05
8.1591e-12
2.23331e-05
6.58806e-12
2.23331e-05
4.74828e-12
2.23331e-05
2.1608e-12
2.23331e-05
-1.25713e-12
2.23331e-05
-5.58236e-12
2.23331e-05
-1.00612e-11
2.23331e-05
-1.49138e-11
2.23331e-05
-1.75541e-11
2.23331e-05
-1.98685e-11
2.23331e-05
-1.70475e-11
2.23331e-05
-1.16748e-11
2.23331e-05
-1.70647e-12
2.23331e-05
1.19783e-11
2.23331e-05
1.63596e-11
2.23331e-05
1.42483e-11
2.23331e-05
6.08169e-12
2.23331e-05
-5.84745e-12
2.23331e-05
-1.89772e-11
2.23332e-05
-3.1618e-11
2.23332e-05
-4.23696e-11
2.23332e-05
-5.1109e-11
2.23332e-05
-5.69004e-11
2.23332e-05
-6.05123e-11
2.23333e-05
-6.03437e-11
2.23333e-05
-5.20091e-11
2.23333e-05
-5.32278e-11
2.23333e-05
-2.41012e-11
6.43837e-12
2.77972e-05
-1.31316e-10
2.77973e-05
-2.40677e-10
2.77974e-05
-2.30492e-10
2.77974e-05
-1.35329e-10
2.77974e-05
-1.26018e-11
2.77973e-05
9.91813e-11
2.77973e-05
1.84386e-10
2.77972e-05
2.40826e-10
2.77971e-05
2.71732e-10
2.7797e-05
2.82166e-10
2.77969e-05
2.77403e-10
2.77969e-05
2.61818e-10
2.77968e-05
2.38897e-10
2.77967e-05
2.11625e-10
2.77967e-05
1.82502e-10
2.77966e-05
1.53087e-10
2.77966e-05
1.23921e-10
2.77966e-05
9.54615e-11
2.77966e-05
6.83143e-11
2.77965e-05
4.25893e-11
2.77965e-05
1.8161e-11
2.77965e-05
-4.84538e-12
2.77966e-05
-2.60564e-11
2.77966e-05
-4.50208e-11
2.77966e-05
-6.17013e-11
2.77966e-05
-7.65781e-11
2.77966e-05
-9.01806e-11
2.77967e-05
-1.02762e-10
2.77967e-05
-1.14139e-10
2.77967e-05
-1.23971e-10
2.77968e-05
-1.32364e-10
2.77968e-05
-1.39813e-10
2.77969e-05
-1.46532e-10
2.77969e-05
-1.52256e-10
2.7797e-05
-1.56572e-10
2.7797e-05
-1.59686e-10
2.7797e-05
-1.62014e-10
2.77971e-05
-1.63866e-10
2.77971e-05
-1.6384e-10
2.77972e-05
-1.621e-10
2.77972e-05
-1.55773e-10
2.77973e-05
-1.47111e-10
2.77973e-05
-1.30033e-10
2.77974e-05
-1.07423e-10
2.77974e-05
-7.80725e-11
2.77974e-05
-4.17736e-11
2.77974e-05
-2.05783e-11
2.77974e-05
-9.80772e-12
2.77974e-05
-8.16221e-12
2.77974e-05
-1.54791e-11
2.77974e-05
-2.2831e-11
2.77975e-05
-2.98105e-11
2.77975e-05
-3.5824e-11
2.77975e-05
-4.01368e-11
2.77975e-05
-4.23376e-11
2.77975e-05
-4.18434e-11
2.77975e-05
-3.82367e-11
2.77975e-05
-3.1896e-11
2.77975e-05
-2.33498e-11
2.77975e-05
-1.26242e-11
2.77975e-05
2.26188e-13
2.77975e-05
1.43779e-11
2.77975e-05
2.86363e-11
2.77975e-05
4.23603e-11
2.77975e-05
5.52114e-11
2.77974e-05
6.66315e-11
2.77974e-05
7.61694e-11
2.77974e-05
8.36614e-11
2.77974e-05
8.93638e-11
2.77973e-05
9.39601e-11
2.77973e-05
9.75728e-11
2.77973e-05
9.95392e-11
2.77973e-05
9.96079e-11
2.77972e-05
9.82046e-11
2.77972e-05
9.58936e-11
2.77972e-05
9.32653e-11
2.77971e-05
9.04298e-11
2.77971e-05
8.69021e-11
2.77971e-05
8.25047e-11
2.77971e-05
7.75126e-11
2.7797e-05
7.21792e-11
2.7797e-05
6.68066e-11
2.7797e-05
6.17449e-11
2.7797e-05
5.70817e-11
2.7797e-05
5.17458e-11
2.77969e-05
4.51902e-11
2.77969e-05
3.63825e-11
2.77969e-05
2.78627e-11
2.77969e-05
2.15212e-11
2.77969e-05
1.71748e-11
2.77969e-05
1.51544e-11
2.77969e-05
1.32544e-11
2.77969e-05
1.09807e-11
2.77969e-05
8.26041e-12
2.77969e-05
4.44529e-12
2.77969e-05
-6.07629e-13
2.77969e-05
-6.96693e-12
2.77969e-05
-1.36809e-11
2.77969e-05
-2.09313e-11
2.77969e-05
-2.54761e-11
2.77969e-05
-2.94418e-11
2.77969e-05
-2.67857e-11
2.77969e-05
-2.04871e-11
2.77969e-05
-7.92541e-12
2.77969e-05
9.67775e-12
2.77969e-05
1.60425e-11
2.77969e-05
1.40277e-11
2.7797e-05
3.95005e-12
2.7797e-05
-1.13222e-11
2.7797e-05
-2.85026e-11
2.7797e-05
-4.52419e-11
2.7797e-05
-5.96188e-11
2.7797e-05
-7.13805e-11
2.7797e-05
-7.93629e-11
2.77971e-05
-8.44461e-11
2.77971e-05
-8.44251e-11
2.77971e-05
-7.38809e-11
2.77971e-05
-7.56483e-11
2.77971e-05
-3.16906e-11
-1.19537e-11
3.30738e-05
-2.10358e-10
3.30739e-05
-3.14321e-10
3.30739e-05
-2.7288e-10
3.30739e-05
-1.4364e-10
3.30739e-05
9.57304e-12
3.30738e-05
1.46299e-10
3.30738e-05
2.50076e-10
3.30737e-05
3.18716e-10
3.30736e-05
3.56048e-10
3.30735e-05
3.68116e-10
3.30735e-05
3.61239e-10
3.30734e-05
3.40731e-10
3.30733e-05
3.10909e-10
3.30732e-05
2.75516e-10
3.30732e-05
2.37703e-10
3.30731e-05
1.99466e-10
3.30731e-05
1.61517e-10
3.30731e-05
1.24423e-10
3.3073e-05
8.89381e-11
3.3073e-05
5.52696e-11
3.3073e-05
2.33251e-11
3.3073e-05
-6.74062e-12
3.3073e-05
-3.44737e-11
3.30731e-05
-5.93363e-11
3.30731e-05
-8.1329e-11
3.30731e-05
-1.01036e-10
3.30731e-05
-1.1904e-10
3.30732e-05
-1.35647e-10
3.30732e-05
-1.50675e-10
3.30732e-05
-1.6371e-10
3.30733e-05
-1.74865e-10
3.30733e-05
-1.84753e-10
3.30734e-05
-1.9364e-10
3.30734e-05
-2.01207e-10
3.30735e-05
-2.06991e-10
3.30735e-05
-2.11269e-10
3.30736e-05
-2.14532e-10
3.30736e-05
-2.17101e-10
3.30737e-05
-2.17313e-10
3.30737e-05
-2.15329e-10
3.30738e-05
-2.0773e-10
3.30738e-05
-1.96981e-10
3.30739e-05
-1.75853e-10
3.30739e-05
-1.47638e-10
3.3074e-05
-1.10783e-10
3.3074e-05
-6.50832e-11
3.3074e-05
-3.67257e-11
3.3074e-05
-2.10712e-11
3.3074e-05
-1.70805e-11
3.3074e-05
-2.44967e-11
3.3074e-05
-3.26526e-11
3.3074e-05
-4.06622e-11
3.30741e-05
-4.75716e-11
3.30741e-05
-5.24151e-11
3.30741e-05
-5.45684e-11
3.30741e-05
-5.32375e-11
3.30741e-05
-4.79088e-11
3.30741e-05
-3.90722e-11
3.30741e-05
-2.74029e-11
3.30741e-05
-1.29805e-11
3.30741e-05
4.05885e-12
3.30741e-05
2.26384e-11
3.30741e-05
4.12602e-11
3.30741e-05
5.91185e-11
3.30741e-05
7.57654e-11
3.3074e-05
9.05145e-11
3.3074e-05
1.02842e-10
3.3074e-05
1.12563e-10
3.30739e-05
1.19987e-10
3.30739e-05
1.25914e-10
3.30739e-05
1.30472e-10
3.30738e-05
1.32905e-10
3.30738e-05
1.32959e-10
3.30738e-05
1.3114e-10
3.30737e-05
1.28131e-10
3.30737e-05
1.24673e-10
3.30737e-05
1.20906e-10
3.30737e-05
1.1624e-10
3.30736e-05
1.10485e-10
3.30736e-05
1.04004e-10
3.30736e-05
9.71098e-11
3.30736e-05
9.0147e-11
3.30735e-05
8.35209e-11
3.30735e-05
7.7324e-11
3.30735e-05
7.02558e-11
3.30735e-05
6.16206e-11
3.30735e-05
5.02496e-11
3.30734e-05
3.92306e-11
3.30734e-05
3.08867e-11
3.30734e-05
2.50774e-11
3.30734e-05
2.21743e-11
3.30734e-05
1.95133e-11
3.30734e-05
1.63884e-11
3.30734e-05
1.25933e-11
3.30734e-05
7.29875e-12
3.30734e-05
3.13596e-13
3.30734e-05
-8.41192e-12
3.30734e-05
-1.77326e-11
3.30734e-05
-2.77864e-11
3.30734e-05
-3.4683e-11
3.30734e-05
-4.07212e-11
3.30734e-05
-3.86535e-11
3.30735e-05
-3.17708e-11
3.30735e-05
-1.68626e-11
3.30735e-05
4.55415e-12
3.30735e-05
1.31348e-11
3.30735e-05
1.16522e-11
3.30735e-05
1.37493e-13
3.30735e-05
-1.80904e-11
3.30735e-05
-3.90687e-11
3.30735e-05
-5.97677e-11
3.30735e-05
-7.7733e-11
3.30736e-05
-9.25812e-11
3.30736e-05
-1.02918e-10
3.30736e-05
-1.09672e-10
3.30736e-05
-1.09949e-10
3.30737e-05
-9.75011e-11
3.30737e-05
-9.97745e-11
3.30737e-05
-3.96154e-11
-4.22392e-11
3.80181e-05
-2.88704e-10
3.80181e-05
-3.75852e-10
3.80182e-05
-3.01019e-10
3.80182e-05
-1.40309e-10
3.80181e-05
3.89339e-11
3.80181e-05
1.96327e-10
3.8018e-05
3.15568e-10
3.80179e-05
3.94585e-10
3.80178e-05
4.37558e-10
3.80178e-05
4.51182e-10
3.80177e-05
4.42504e-10
3.80176e-05
4.17556e-10
3.80175e-05
3.81383e-10
3.80175e-05
3.3842e-10
3.80174e-05
2.92415e-10
3.80174e-05
2.45755e-10
3.80173e-05
1.99316e-10
3.80173e-05
1.53783e-10
3.80173e-05
1.10061e-10
3.80173e-05
6.84797e-11
3.80173e-05
2.90106e-11
3.80173e-05
-8.15273e-12
3.80173e-05
-4.24701e-11
3.80173e-05
-7.3342e-11
3.80173e-05
-1.00836e-10
3.80173e-05
-1.25607e-10
3.80174e-05
-1.48242e-10
3.80174e-05
-1.69085e-10
3.80174e-05
-1.87966e-10
3.80175e-05
-2.04402e-10
3.80175e-05
-2.18526e-10
3.80176e-05
-2.31076e-10
3.80176e-05
-2.42336e-10
3.80177e-05
-2.51921e-10
3.80177e-05
-2.59359e-10
3.80178e-05
-2.6502e-10
3.80178e-05
-2.69431e-10
3.80179e-05
-2.72892e-10
3.80179e-05
-2.73512e-10
3.8018e-05
-2.71472e-10
3.8018e-05
-2.62821e-10
3.80181e-05
-2.50175e-10
3.80182e-05
-2.25235e-10
3.80182e-05
-1.91679e-10
3.80182e-05
-1.4754e-10
3.80183e-05
-9.25113e-11
3.80183e-05
-5.66495e-11
3.80183e-05
-3.55313e-11
3.80183e-05
-2.85268e-11
3.80183e-05
-3.53573e-11
3.80183e-05
-4.37398e-11
3.80183e-05
-5.23056e-11
3.80184e-05
-5.97219e-11
3.80184e-05
-6.47609e-11
3.80184e-05
-6.65422e-11
3.80184e-05
-6.40495e-11
3.80184e-05
-5.67048e-11
3.80184e-05
-4.51317e-11
3.80184e-05
-3.01489e-11
3.80184e-05
-1.18923e-11
3.80184e-05
9.39899e-12
3.80184e-05
3.23917e-11
3.80184e-05
5.53216e-11
3.80184e-05
7.72462e-11
3.80183e-05
9.76114e-11
3.80183e-05
1.15621e-10
3.80183e-05
1.30707e-10
3.80183e-05
1.42667e-10
3.80182e-05
1.51838e-10
3.80182e-05
1.59108e-10
3.80182e-05
1.64598e-10
3.80181e-05
1.67489e-10
3.80181e-05
1.67559e-10
3.8018e-05
1.65382e-10
3.8018e-05
1.61735e-10
3.8018e-05
1.57495e-10
3.80179e-05
1.52811e-10
3.80179e-05
1.47001e-10
3.80179e-05
1.39899e-10
3.80179e-05
1.31967e-10
3.80178e-05
1.23558e-10
3.80178e-05
1.15025e-10
3.80178e-05
1.06811e-10
3.80178e-05
9.90149e-11
3.80177e-05
9.0126e-11
3.80177e-05
7.93346e-11
3.80177e-05
6.53832e-11
3.80177e-05
5.18724e-11
3.80177e-05
4.15006e-11
3.80177e-05
3.4156e-11
3.80177e-05
3.02538e-11
3.80177e-05
2.66988e-11
3.80177e-05
2.25617e-11
3.80177e-05
1.74835e-11
3.80177e-05
1.04601e-11
3.80176e-05
1.27409e-12
3.80177e-05
-1.00916e-11
3.80177e-05
-2.23168e-11
3.80177e-05
-3.54889e-11
3.80177e-05
-4.50823e-11
3.80177e-05
-5.35163e-11
3.80177e-05
-5.23879e-11
3.80177e-05
-4.52319e-11
3.80177e-05
-2.82367e-11
3.80177e-05
-3.14859e-12
3.80177e-05
7.84098e-12
3.80177e-05
7.33315e-12
3.80177e-05
-5.05141e-12
3.80178e-05
-2.56819e-11
3.80178e-05
-4.99859e-11
3.80178e-05
-7.42781e-11
3.80178e-05
-9.56051e-11
3.80178e-05
-1.13467e-10
3.80178e-05
-1.26232e-10
3.80179e-05
-1.34806e-10
3.80179e-05
-1.35527e-10
3.80179e-05
-1.21638e-10
3.80179e-05
-1.24034e-10
3.8018e-05
-4.88398e-11
-7.81752e-11
4.26018e-05
-3.51993e-10
4.26019e-05
-4.1966e-10
4.26019e-05
-3.15308e-10
4.26019e-05
-1.28065e-10
4.26018e-05
7.22863e-11
4.26018e-05
2.45967e-10
4.26017e-05
3.77357e-10
4.26017e-05
4.64673e-10
4.26016e-05
5.12333e-10
4.26015e-05
5.27399e-10
4.26014e-05
5.17325e-10
4.26014e-05
4.88638e-10
4.26013e-05
4.46991e-10
4.26012e-05
3.97409e-10
4.26012e-05
3.44137e-10
4.26011e-05
2.89869e-10
4.26011e-05
2.35637e-10
4.26011e-05
1.82256e-10
4.26011e-05
1.30772e-10
4.2601e-05
8.16551e-11
4.2601e-05
3.49671e-11
4.2601e-05
-9.03956e-12
4.2601e-05
-4.97372e-11
4.26011e-05
-8.65057e-11
4.26011e-05
-1.19503e-10
4.26011e-05
-1.49403e-10
4.26011e-05
-1.76747e-10
4.26012e-05
-2.01907e-10
4.26012e-05
-2.24718e-10
4.26012e-05
-2.44649e-10
4.26013e-05
-2.61889e-10
4.26013e-05
-2.77277e-10
4.26014e-05
-2.91065e-10
4.26014e-05
-3.028e-10
4.26015e-05
-3.12064e-10
4.26015e-05
-3.19331e-10
4.26016e-05
-3.25108e-10
4.26017e-05
-3.29639e-10
4.26017e-05
-3.30853e-10
4.26018e-05
-3.28974e-10
4.26018e-05
-3.19528e-10
4.26019e-05
-3.05237e-10
4.26019e-05
-2.76811e-10
4.2602e-05
-2.38292e-10
4.2602e-05
-1.87229e-10
4.2602e-05
-1.23109e-10
4.26021e-05
-7.96462e-11
4.26021e-05
-5.27412e-11
4.26021e-05
-4.22346e-11
4.26021e-05
-4.78789e-11
4.26021e-05
-5.59008e-11
4.26021e-05
-6.44853e-11
4.26022e-05
-7.19348e-11
4.26022e-05
-7.67381e-11
4.26022e-05
-7.77316e-11
4.26022e-05
-7.36871e-11
4.26022e-05
-6.4015e-11
4.26022e-05
-4.95018e-11
4.26022e-05
-3.1101e-11
4.26022e-05
-9.00576e-12
4.26022e-05
1.64257e-11
4.26022e-05
4.3623e-11
4.26022e-05
7.061e-11
4.26021e-05
9.63423e-11
4.26021e-05
1.20168e-10
4.26021e-05
1.41213e-10
4.26021e-05
1.58901e-10
4.2602e-05
1.73007e-10
4.2602e-05
1.83864e-10
4.2602e-05
1.92413e-10
4.26019e-05
1.98764e-10
4.26019e-05
2.02077e-10
4.26019e-05
2.02191e-10
4.26018e-05
1.99732e-10
4.26018e-05
1.95547e-10
4.26018e-05
1.90616e-10
4.26017e-05
1.85066e-10
4.26017e-05
1.78144e-10
4.26017e-05
1.69757e-10
4.26016e-05
1.6048e-10
4.26016e-05
1.50667e-10
4.26016e-05
1.40644e-10
4.26016e-05
1.30879e-10
4.26015e-05
1.21469e-10
4.26015e-05
1.10724e-10
4.26015e-05
9.77766e-11
4.26015e-05
8.13224e-11
4.26015e-05
6.54202e-11
4.26015e-05
5.3069e-11
4.26015e-05
4.4164e-11
4.26014e-05
3.91703e-11
4.26014e-05
3.45902e-11
4.26014e-05
2.92665e-11
4.26014e-05
2.26803e-11
4.26014e-05
1.36721e-11
4.26014e-05
2.02962e-12
4.26014e-05
-1.22229e-11
4.26014e-05
-2.76099e-11
4.26014e-05
-4.41563e-11
4.26014e-05
-5.67109e-11
4.26015e-05
-6.77822e-11
4.26015e-05
-6.78644e-11
4.26015e-05
-6.06854e-11
4.26015e-05
-4.18159e-11
4.26015e-05
-1.31744e-11
4.26015e-05
3.81955e-13
4.26015e-05
1.23963e-12
4.26015e-05
-1.1462e-11
4.26015e-05
-3.38849e-11
4.26016e-05
-6.09201e-11
4.26016e-05
-8.82952e-11
4.26016e-05
-1.12626e-10
4.26016e-05
-1.3332e-10
4.26016e-05
-1.48484e-10
4.26017e-05
-1.58949e-10
4.26017e-05
-1.60201e-10
4.26017e-05
-1.45396e-10
4.26017e-05
-1.47216e-10
4.26017e-05
-6.01334e-11
-1.11839e-10
4.68669e-05
-3.92429e-10
4.68669e-05
-4.42998e-10
4.68669e-05
-3.1626e-10
4.68669e-05
-1.08825e-10
4.68669e-05
1.07614e-10
4.68668e-05
2.93529e-10
4.68668e-05
4.33951e-10
4.68667e-05
5.27475e-10
4.68666e-05
5.78737e-10
4.68666e-05
5.9497e-10
4.68665e-05
5.83774e-10
4.68664e-05
5.52002e-10
4.68664e-05
5.05805e-10
4.68663e-05
4.50674e-10
4.68663e-05
3.91207e-10
4.68662e-05
3.30313e-10
4.68662e-05
2.69174e-10
4.68662e-05
2.08745e-10
4.68662e-05
1.50191e-10
4.68661e-05
9.41206e-11
4.68661e-05
4.07202e-11
4.68661e-05
-9.67577e-12
4.68661e-05
-5.63666e-11
4.68662e-05
-9.87667e-11
4.68662e-05
-1.37131e-10
4.68662e-05
-1.72091e-10
4.68662e-05
-2.04101e-10
4.68663e-05
-2.3354e-10
4.68663e-05
-2.60244e-10
4.68663e-05
-2.83687e-10
4.68664e-05
-3.04138e-10
4.68664e-05
-3.22487e-10
4.68665e-05
-3.38888e-10
4.68665e-05
-3.52853e-10
4.68666e-05
-3.64094e-10
4.68666e-05
-3.73184e-10
4.68667e-05
-3.8053e-10
4.68667e-05
-3.86294e-10
4.68668e-05
-3.88279e-10
4.68669e-05
-3.86776e-10
4.68669e-05
-3.76796e-10
4.6867e-05
-3.61139e-10
4.6867e-05
-3.29582e-10
4.68671e-05
-2.86506e-10
4.68671e-05
-2.28904e-10
4.68671e-05
-1.55995e-10
4.68672e-05
-1.05005e-10
4.68672e-05
-7.21981e-11
4.68672e-05
-5.78836e-11
4.68672e-05
-6.1872e-11
4.68672e-05
-6.90005e-11
4.68672e-05
-7.7057e-11
4.68673e-05
-8.40068e-11
4.68673e-05
-8.8048e-11
4.68673e-05
-8.77322e-11
4.68673e-05
-8.16619e-11
4.68673e-05
-6.93067e-11
4.68673e-05
-5.16472e-11
4.68673e-05
-2.97602e-11
4.68673e-05
-3.89914e-12
4.68673e-05
2.54554e-11
4.68673e-05
5.65326e-11
4.68672e-05
8.72081e-11
4.68672e-05
1.16367e-10
4.68672e-05
1.43273e-10
4.68672e-05
1.67018e-10
4.68671e-05
1.87057e-10
4.68671e-05
2.03132e-10
4.68671e-05
2.15532e-10
4.68671e-05
2.25218e-10
4.6867e-05
2.32296e-10
4.6867e-05
2.35953e-10
4.6867e-05
2.36114e-10
4.68669e-05
2.33443e-10
4.68669e-05
2.28828e-10
4.68669e-05
2.23307e-10
4.68668e-05
2.16952e-10
4.68668e-05
2.08964e-10
4.68668e-05
1.99382e-10
4.68667e-05
1.88891e-10
4.68667e-05
1.77811e-10
4.68667e-05
1.66417e-10
4.68667e-05
1.55175e-10
4.68666e-05
1.44172e-10
4.68666e-05
1.31575e-10
4.68666e-05
1.16526e-10
4.68666e-05
9.77113e-11
4.68666e-05
7.95774e-11
4.68665e-05
6.53419e-11
4.68665e-05
5.48819e-11
4.68665e-05
4.87186e-11
4.68665e-05
4.29785e-11
4.68665e-05
3.62806e-11
4.68665e-05
2.79442e-11
4.68665e-05
1.6683e-11
4.68665e-05
2.32203e-12
4.68665e-05
-1.5063e-11
4.68665e-05
-3.38544e-11
4.68665e-05
-5.39976e-11
4.68665e-05
-6.97238e-11
4.68666e-05
-8.36144e-11
4.68666e-05
-8.51037e-11
4.68666e-05
-7.80744e-11
4.68666e-05
-5.7465e-11
4.68666e-05
-2.53281e-11
4.68666e-05
-9.06395e-12
4.68666e-05
-6.51982e-12
4.68666e-05
-1.90486e-11
4.68666e-05
-4.26633e-11
4.68667e-05
-7.17893e-11
4.68667e-05
-1.0167e-10
4.68667e-05
-1.28581e-10
4.68667e-05
-1.5185e-10
4.68667e-05
-1.6929e-10
4.68668e-05
-1.81624e-10
4.68668e-05
-1.83422e-10
4.68668e-05
-1.68204e-10
4.68668e-05
-1.68582e-10
4.68668e-05
-7.35234e-11
-1.38355e-10
5.08761e-05
-4.08777e-10
5.08761e-05
-4.45232e-10
5.08761e-05
-3.03742e-10
5.08761e-05
-8.29994e-11
5.0876e-05
1.44369e-10
5.0876e-05
3.38672e-10
5.0876e-05
4.85232e-10
5.08759e-05
5.82942e-10
5.08758e-05
6.36624e-10
5.08758e-05
6.53546e-10
5.08757e-05