/*--------------------------------*- C++ -*----------------------------------*\
  =========                 |
  \\      /  F ield         | OpenFOAM: The Open Source CFD Toolbox
   \\    /   O peration     | Website:  https://openfoam.org
    \\  /    A nd           | Version:  7
     \\/     M anipulation  |
\*---------------------------------------------------------------------------*/
FoamFile
{
    version     2.0;
    format      ascii;
    class       volVectorField;
    location    "16500";
    object      U;
}
// * * * * * * * * * * * * * * * * * * * * * * * * * * * * * * * * * * * * * //

dimensions      [0 1 -1 0 0 0 0];

internalField   nonuniform List<vector> 
24000
(
(0.00434518 9.23001e-11 7.44293e-16)
(0.00434518 -4.3389e-11 7.29259e-16)
(0.00434519 -1.23347e-10 7.33053e-16)
(0.00434521 -1.1325e-10 6.68869e-16)
(0.00434522 -6.62728e-11 3.68127e-16)
(0.00434522 -1.42592e-11 6.55305e-16)
(0.00434522 2.83785e-11 4.17804e-16)
(0.00434521 5.8508e-11 6.67007e-16)
(0.0043452 7.67945e-11 7.04053e-16)
(0.00434518 8.5423e-11 3.82116e-16)
(0.00434517 8.72304e-11 6.72053e-16)
(0.00434515 8.4205e-11 6.87216e-16)
(0.00434514 7.78684e-11 6.91071e-16)
(0.00434513 6.9733e-11 6.71939e-16)
(0.00434511 6.09875e-11 6.40004e-16)
(0.00434511 5.20435e-11 6.86362e-16)
(0.0043451 4.27098e-11 6.79167e-16)
(0.00434509 3.34154e-11 6.80709e-16)
(0.00434509 2.48638e-11 6.56946e-16)
(0.00434508 1.66049e-11 6.03353e-16)
(0.00434508 8.32405e-12 6.74151e-16)
(0.00434508 3.76499e-13 6.27149e-16)
(0.00434508 -6.96487e-12 6.43197e-16)
(0.00434508 -1.33604e-11 6.23784e-16)
(0.00434509 -1.87287e-11 5.75424e-16)
(0.00434509 -2.34983e-11 6.60368e-16)
(0.00434509 -2.80901e-11 6.27421e-16)
(0.0043451 -3.2648e-11 6.47555e-16)
(0.0043451 -3.6704e-11 6.19457e-16)
(0.00434511 -3.9929e-11 5.74333e-16)
(0.00434512 -4.26486e-11 6.6114e-16)
(0.00434513 -4.55008e-11 6.30005e-16)
(0.00434513 -4.82078e-11 6.44401e-16)
(0.00434514 -5.0679e-11 6.1634e-16)
(0.00434515 -5.19128e-11 5.68908e-16)
(0.00434516 -5.3122e-11 6.50435e-16)
(0.00434517 -5.32137e-11 6.34447e-16)
(0.00434518 -5.4933e-11 6.44344e-16)
(0.00434519 -5.28114e-11 6.05604e-16)
(0.00434519 -5.32063e-11 5.66244e-16)
(0.0043452 -4.55145e-11 6.01725e-16)
(0.00434521 -4.26685e-11 7.57875e-16)
(0.00434522 -2.87695e-11 6.56166e-16)
(0.00434522 -1.40761e-11 6.61122e-16)
(0.00434523 4.59974e-13 6.7265e-16)
(0.00434523 2.90336e-11 6.79912e-16)
(0.00434523 2.4935e-11 8.23148e-16)
(0.00434522 2.35805e-11 6.9394e-16)
(0.00434522 1.82132e-11 6.86171e-16)
(0.00434522 4.51792e-12 6.931e-16)
(0.00434522 1.04066e-13 7.00649e-16)
(0.00434522 -6.12196e-12 8.33339e-16)
(0.00434522 -1.10995e-11 7.0625e-16)
(0.00434523 -1.48603e-11 8.88894e-16)
(0.00434523 -1.77017e-11 6.39858e-16)
(0.00434523 -1.93506e-11 7.18115e-16)
(0.00434523 -1.95079e-11 8.95528e-16)
(0.00434524 -1.87804e-11 7.28524e-16)
(0.00434524 -1.73877e-11 8.76017e-16)
(0.00434524 -1.48594e-11 6.50886e-16)
(0.00434524 -1.0993e-11 7.28244e-16)
(0.00434524 -6.3266e-12 8.82088e-16)
(0.00434524 -1.67233e-12 7.43919e-16)
(0.00434524 3.04961e-12 9.06645e-16)
(0.00434524 7.85095e-12 7.2354e-16)
(0.00434524 1.21996e-11 7.51487e-16)
(0.00434523 1.57952e-11 8.91893e-16)
(0.00434523 1.85451e-11 7.50967e-16)
(0.00434523 2.05903e-11 9.44003e-16)
(0.00434522 2.2701e-11 6.75921e-16)
(0.00434522 2.48315e-11 7.67832e-16)
(0.00434521 2.59662e-11 9.20539e-16)
(0.00434521 2.59951e-11 7.61965e-16)
(0.0043452 2.55724e-11 9.41488e-16)
(0.0043452 2.49464e-11 7.14588e-16)
(0.00434519 2.44475e-11 7.65215e-16)
(0.00434519 2.39724e-11 9.9217e-16)
(0.00434518 2.2891e-11 7.67992e-16)
(0.00434518 2.12604e-11 9.58754e-16)
(0.00434518 1.94787e-11 7.36629e-16)
(0.00434517 1.73516e-11 4.99223e-16)
(0.00434517 1.53938e-11 6.79412e-16)
(0.00434517 1.35042e-11 7.63462e-16)
(0.00434516 1.25391e-11 5.36263e-16)
(0.00434516 1.01705e-11 6.75796e-16)
(0.00434516 8.02273e-12 5.2877e-16)
(0.00434516 3.16676e-12 6.74838e-16)
(0.00434516 -1.83066e-13 7.5708e-16)
(0.00434516 -1.18946e-12 5.0658e-16)
(0.00434516 -2.58311e-12 6.89946e-16)
(0.00434516 -1.5129e-12 5.17569e-16)
(0.00434516 -2.36597e-12 6.47973e-16)
(0.00434516 -3.35545e-12 7.40981e-16)
(0.00434516 -3.78482e-12 4.73709e-16)
(0.00434516 -5.2555e-12 6.84789e-16)
(0.00434516 -5.95356e-12 4.53307e-16)
(0.00434516 -8.35014e-12 6.43503e-16)
(0.00434516 -7.87472e-12 7.35744e-16)
(0.00434516 -1.09074e-11 5.13724e-16)
(0.00434516 -6.047e-12 6.33553e-16)
(0.00434516 -7.27971e-12 4.93854e-16)
(0.00434516 2.6249e-12 6.90115e-16)
(0.00434516 1.01245e-11 7.58948e-16)
(0.00434516 2.03312e-11 5.25868e-16)
(0.00434516 3.90181e-11 6.68733e-16)
(0.00434516 3.32495e-11 4.5426e-16)
(0.00434515 2.94798e-11 6.60328e-16)
(0.00434515 1.85975e-11 7.38573e-16)
(0.00434515 6.68108e-12 5.05178e-16)
(0.00434515 -4.21573e-12 6.48433e-16)
(0.00434515 -1.429e-11 5.50159e-16)
(0.00434515 -2.15351e-11 5.30643e-16)
(0.00434516 -2.80448e-11 7.20988e-16)
(0.00434516 -3.09122e-11 5.69828e-16)
(0.00434517 -3.24475e-11 6.81764e-16)
(0.00434517 -3.21243e-11 5.73813e-16)
(0.00434518 -2.03641e-11 5.45687e-16)
(0.00434518 -2.04465e-11 7.26529e-16)
(0.00434519 -2.33692e-11 5.56515e-16)
(0.00434518 6.97692e-11 6.81808e-16)
(0.0131156 3.36695e-10 2.25377e-15)
(0.0131156 -9.89945e-10 2.20603e-15)
(0.0131157 -1.71497e-09 2.21662e-15)
(0.0131157 -1.42614e-09 2.01208e-15)
(0.0131157 -6.68606e-10 1.40435e-15)
(0.0131158 1.2081e-10 1.98951e-15)
(0.0131157 7.54769e-10 1.46299e-15)
(0.0131157 1.19266e-09 2.0298e-15)
(0.0131157 1.45021e-09 2.12418e-15)
(0.0131156 1.56201e-09 1.44785e-15)
(0.0131156 1.56749e-09 2.04251e-15)
(0.0131155 1.49818e-09 2.07663e-15)
(0.0131155 1.37816e-09 2.08983e-15)
(0.0131155 1.22875e-09 2.03096e-15)
(0.0131154 1.06754e-09 1.93708e-15)
(0.0131154 9.03355e-10 2.07558e-15)
(0.0131154 7.37592e-10 2.05152e-15)
(0.0131153 5.74629e-10 2.05815e-15)
(0.0131153 4.20675e-10 1.98603e-15)
(0.0131153 2.74074e-10 1.82795e-15)
(0.0131153 1.31977e-10 2.04055e-15)
(0.0131153 -3.42804e-12 1.89382e-15)
(0.0131153 -1.28514e-10 1.9468e-15)
(0.0131153 -2.39242e-10 1.88348e-15)
(0.0131153 -3.34736e-10 1.74716e-15)
(0.0131153 -4.19205e-10 1.99391e-15)
(0.0131154 -4.97941e-10 1.89677e-15)
(0.0131154 -5.72859e-10 1.95768e-15)
(0.0131154 -6.40483e-10 1.87223e-15)
(0.0131154 -6.97205e-10 1.73238e-15)
(0.0131154 -7.45501e-10 2.00066e-15)
(0.0131155 -7.90695e-10 1.90462e-15)
(0.0131155 -8.3315e-10 1.94764e-15)
(0.0131155 -8.69718e-10 1.85641e-15)
(0.0131155 -8.94873e-10 1.7112e-15)
(0.0131156 -9.12214e-10 1.95994e-15)
(0.0131156 -9.2361e-10 1.91936e-15)
(0.0131156 -9.36548e-10 1.95146e-15)
(0.0131156 -9.28901e-10 1.8163e-15)
(0.0131157 -9.15416e-10 1.70637e-15)
(0.0131157 -8.51393e-10 1.82152e-15)
(0.0131157 -7.87311e-10 1.94266e-15)
(0.0131157 -6.37611e-10 1.97812e-15)
(0.0131157 -4.55533e-10 1.9988e-15)
(0.0131158 -2.31263e-10 2.03483e-15)
(0.0131158 6.68933e-11 2.05799e-15)
(0.0131158 1.50061e-10 2.11077e-15)
(0.0131158 1.65169e-10 2.09178e-15)
(0.0131158 1.24164e-10 2.07471e-15)
(0.0131158 9.01397e-12 2.09519e-15)
(0.0131158 -6.58093e-11 2.11892e-15)
(0.0131158 -1.34484e-10 2.1645e-15)
(0.0131158 -1.95005e-10 2.13062e-15)
(0.0131158 -2.40472e-10 2.24208e-15)
(0.0131158 -2.71652e-10 2.01477e-15)
(0.0131158 -2.85017e-10 2.17348e-15)
(0.0131158 -2.77656e-10 2.27877e-15)
(0.0131158 -2.5383e-10 2.19492e-15)
(0.0131158 -2.17141e-10 2.26615e-15)
(0.0131158 -1.65007e-10 2.02683e-15)
(0.0131158 -9.57772e-11 2.20447e-15)
(0.0131158 -1.56054e-11 2.28879e-15)
(0.0131158 6.6304e-11 2.24508e-15)
(0.0131158 1.47032e-10 2.326e-15)
(0.0131158 2.25449e-10 2.02819e-15)
(0.0131158 2.96454e-10 2.27765e-15)
(0.0131158 3.55824e-10 2.32001e-15)
(0.0131158 4.01953e-10 2.26384e-15)
(0.0131158 4.37034e-10 2.37989e-15)
(0.0131157 4.68212e-10 2.01516e-15)
(0.0131157 4.96171e-10 2.31884e-15)
(0.0131157 5.12293e-10 2.38154e-15)
(0.0131157 5.14108e-10 2.2989e-15)
(0.0131157 5.06776e-10 2.39892e-15)
(0.0131157 4.9481e-10 1.93766e-15)
(0.0131157 4.82456e-10 2.31865e-15)
(0.0131156 4.69453e-10 2.38658e-15)
(0.0131156 4.50508e-10 2.31505e-15)
(0.0131156 4.24629e-10 2.43706e-15)
(0.0131156 3.94724e-10 2.10715e-15)
(0.0131156 3.61714e-10 2.14004e-15)
(0.0131156 3.28726e-10 2.17416e-15)
(0.0131156 2.98848e-10 2.30819e-15)
(0.0131156 2.74343e-10 2.06013e-15)
(0.0131156 2.42167e-10 1.98591e-15)
(0.0131156 2.02755e-10 2.0329e-15)
(0.0131155 1.41182e-10 2.0851e-15)
(0.0131155 8.73351e-11 2.28903e-15)
(0.0131155 5.50883e-11 2.08603e-15)
(0.0131155 3.30486e-11 1.93481e-15)
(0.0131155 3.05956e-11 2.02038e-15)
(0.0131155 2.08847e-11 2.05371e-15)
(0.0131155 7.23719e-12 2.24092e-15)
(0.0131155 -5.87704e-12 2.04296e-15)
(0.0131155 -2.59087e-11 2.12485e-15)
(0.0131155 -4.95603e-11 2.01343e-15)
(0.0131155 -8.17245e-11 1.81343e-15)
(0.0131155 -1.06797e-10 2.22299e-15)
(0.0131155 -1.40144e-10 2.00864e-15)
(0.0131155 -1.3301e-10 1.8307e-15)
(0.0131155 -1.37304e-10 1.95195e-15)
(0.0131156 -6.73087e-11 2.09361e-15)
(0.0131156 1.50324e-11 2.29424e-15)
(0.0131156 1.42747e-10 2.03526e-15)
(0.0131155 3.17494e-10 2.07649e-15)
(0.0131155 3.30023e-10 2.01648e-15)
(0.0131155 2.83861e-10 2.02174e-15)
(0.0131155 1.73743e-10 2.23324e-15)
(0.0131155 3.14101e-11 1.98114e-15)
(0.0131155 -1.11789e-10 2.03383e-15)
(0.0131155 -2.44357e-10 2.02688e-15)
(0.0131155 -3.51777e-10 1.96691e-15)
(0.0131156 -4.39304e-10 2.18544e-15)
(0.0131156 -4.9077e-10 2.06636e-15)
(0.0131156 -5.21252e-10 2.07161e-15)
(0.0131156 -5.13895e-10 2.07837e-15)
(0.0131156 -4.00826e-10 2.00168e-15)
(0.0131156 -4.19433e-10 2.20286e-15)
(0.0131156 -2.42335e-10 2.04731e-15)
(0.0131156 5.10504e-10 1.93227e-15)
(0.0220629 1.54975e-10 3.8169e-15)
(0.0220629 -3.22514e-09 3.71178e-15)
(0.022063 -4.81469e-09 3.73384e-15)
(0.022063 -3.79113e-09 3.33987e-15)
(0.0220631 -1.57404e-09 3.09902e-15)
(0.0220631 6.73915e-10 3.40934e-15)
(0.022063 2.45814e-09 3.21684e-15)
(0.022063 3.67835e-09 3.47796e-15)
(0.0220629 4.38568e-09 3.55847e-15)
(0.0220628 4.68016e-09 3.18604e-15)
(0.0220628 4.6721e-09 3.50885e-15)
(0.0220627 4.45115e-09 3.48907e-15)
(0.0220626 4.08628e-09 3.52075e-15)
(0.0220626 3.63721e-09 3.41318e-15)
(0.0220625 3.15339e-09 3.27364e-15)
(0.0220625 2.66179e-09 3.50476e-15)
(0.0220624 2.1688e-09 3.44669e-15)
(0.0220624 1.68556e-09 3.46646e-15)
(0.0220624 1.22743e-09 3.33654e-15)
(0.0220624 7.92218e-10 3.09268e-15)
(0.0220624 3.73419e-10 3.46445e-15)
(0.0220623 -2.44421e-11 3.16072e-15)
(0.0220624 -3.92002e-10 3.28861e-15)
(0.0220624 -7.18355e-10 3.15551e-15)
(0.0220624 -1.00128e-09 2.96015e-15)
(0.0220624 -1.25166e-09 3.36925e-15)
(0.0220624 -1.48316e-09 3.19819e-15)
(0.0220624 -1.70164e-09 3.30387e-15)
(0.0220625 -1.89912e-09 3.15172e-15)
(0.0220625 -2.06655e-09 2.89751e-15)
(0.0220625 -2.20911e-09 3.40064e-15)
(0.0220626 -2.33982e-09 3.20867e-15)
(0.0220626 -2.4614e-09 3.28407e-15)
(0.0220626 -2.56574e-09 3.09656e-15)
(0.0220627 -2.64017e-09 2.85503e-15)
(0.0220627 -2.69115e-09 3.30332e-15)
(0.0220628 -2.72679e-09 3.22969e-15)
(0.0220628 -2.76071e-09 3.29694e-15)
(0.0220629 -2.74736e-09 2.99892e-15)
(0.0220629 -2.70769e-09 2.86497e-15)
(0.0220629 -2.54858e-09 3.08495e-15)
(0.022063 -2.36762e-09 3.15976e-15)
(0.022063 -1.97724e-09 3.32901e-15)
(0.0220631 -1.48719e-09 3.3664e-15)
(0.0220631 -8.69988e-10 3.43216e-15)
(0.0220631 -8.16455e-11 3.47279e-15)
(0.0220631 2.20268e-10 3.41565e-15)
(0.0220631 3.06671e-10 3.51704e-15)
(0.0220631 2.277e-10 3.49195e-15)
(0.0220631 -4.2794e-11 3.53029e-15)
(0.0220631 -2.43711e-10 3.57143e-15)
(0.0220631 -4.23511e-10 3.51689e-15)
(0.0220631 -5.81322e-10 3.58405e-15)
(0.0220631 -6.99827e-10 3.5855e-15)
(0.0220631 -7.77576e-10 3.71571e-15)
(0.0220631 -8.05178e-10 3.6895e-15)
(0.0220632 -7.74167e-10 3.64049e-15)
(0.0220632 -6.94565e-10 3.68402e-15)
(0.0220632 -5.76598e-10 3.66905e-15)
(0.0220632 -4.15596e-10 3.75449e-15)
(0.0220632 -2.08382e-10 3.7354e-15)
(0.0220632 2.88451e-11 3.70425e-15)
(0.0220632 2.71287e-10 3.77679e-15)
(0.0220632 5.08851e-10 3.75121e-15)
(0.0220632 7.37132e-10 4.12837e-15)
(0.0220631 9.43162e-10 3.85707e-15)
(0.0220631 1.11565e-09 3.75407e-15)
(0.0220631 1.25021e-09 3.80318e-15)
(0.0220631 1.35247e-09 3.79614e-15)
(0.0220631 1.44048e-09 3.92497e-15)
(0.022063 1.5168e-09 3.92723e-15)
(0.022063 1.56118e-09 3.84037e-15)
(0.022063 1.56622e-09 3.86607e-15)
(0.022063 1.54425e-09 3.84769e-15)
(0.0220629 1.50768e-09 4.19529e-15)
(0.0220629 1.46847e-09 3.93909e-15)
(0.0220629 1.427e-09 3.84526e-15)
(0.0220629 1.37022e-09 3.88945e-15)
(0.0220628 1.29486e-09 3.89989e-15)
(0.0220628 1.20756e-09 4.06607e-15)
(0.0220628 1.11214e-09 3.78678e-15)
(0.0220628 1.01627e-09 3.93728e-15)
(0.0220628 9.28725e-10 3.91032e-15)
(0.0220628 8.53644e-10 3.63001e-15)
(0.0220627 7.61372e-10 4.04007e-15)
(0.0220627 6.46859e-10 3.62131e-15)
(0.0220627 4.76956e-10 3.87058e-15)
(0.0220627 3.2143e-10 3.87092e-15)
(0.0220627 2.19944e-10 3.61816e-15)
(0.0220627 1.52457e-10 3.84349e-15)
(0.0220627 1.35449e-10 3.60312e-15)
(0.0220627 1.07236e-10 3.94399e-15)
(0.0220627 6.86251e-11 3.79606e-15)
(0.0220627 2.7964e-11 3.57976e-15)
(0.0220627 -3.08184e-11 3.9962e-15)
(0.0220627 -1.04781e-10 3.57765e-15)
(0.0220627 -2.00705e-10 3.70806e-15)
(0.0220627 -2.87988e-10 3.75842e-15)
(0.0220627 -3.89235e-10 3.5617e-15)
(0.0220627 -4.02331e-10 3.69892e-15)
(0.0220627 -4.25449e-10 3.5014e-15)
(0.0220627 -2.73256e-10 3.87051e-15)
(0.0220627 -6.97022e-11 3.8737e-15)
(0.0220627 2.59547e-10 3.59508e-15)
(0.0220627 7.02024e-10 3.81916e-15)
(0.0220627 7.77655e-10 3.58715e-15)
(0.0220627 6.71454e-10 3.93783e-15)
(0.0220627 3.93686e-10 3.77762e-15)
(0.0220627 2.05711e-11 3.51088e-15)
(0.0220627 -3.66298e-10 3.90957e-15)
(0.0220627 -7.28172e-10 3.5546e-15)
(0.0220627 -1.02707e-09 3.44726e-15)
(0.0220627 -1.26919e-09 3.70294e-15)
(0.0220628 -1.41861e-09 3.58345e-15)
(0.0220628 -1.50831e-09 4.01571e-15)
(0.0220628 -1.4928e-09 3.61665e-15)
(0.0220628 -1.21279e-09 3.49303e-15)
(0.0220629 -1.25328e-09 3.73242e-15)
(0.0220629 -6.73532e-10 3.57269e-15)
(0.0220629 1.04132e-09 3.8217e-15)
(0.0311423 -1.08515e-09 5.37473e-15)
(0.0311424 -7.11678e-09 5.23524e-15)
(0.0311425 -9.31054e-09 5.27515e-15)
(0.0311425 -6.87561e-09 4.5999e-15)
(0.0311426 -2.4294e-09 4.74853e-15)
(0.0311426 1.94375e-09 4.89736e-15)
(0.0311425 5.37042e-09 4.83725e-15)
(0.0311424 7.68937e-09 5.01354e-15)
(0.0311423 9.01179e-09 5.00052e-15)
(0.0311422 9.53528e-09 4.85177e-15)
(0.0311421 9.47197e-09 5.06356e-15)
(0.031142 8.99566e-09 4.91155e-15)
(0.0311419 8.24062e-09 4.97996e-15)
(0.0311418 7.32201e-09 4.79355e-15)
(0.0311418 6.33509e-09 4.67025e-15)
(0.0311417 5.33476e-09 5.11298e-15)
(0.0311417 4.33665e-09 4.83886e-15)
(0.0311416 3.36063e-09 4.89969e-15)
(0.0311416 2.4337e-09 4.68008e-15)
(0.0311416 1.55447e-09 4.12852e-15)
(0.0311416 7.12786e-10 4.87127e-15)
(0.0311416 -8.45834e-11 4.51158e-15)
(0.0311416 -8.20648e-10 4.67797e-15)
(0.0311416 -1.47551e-09 4.36633e-15)
(0.0311416 -2.04542e-09 4.05858e-15)
(0.0311416 -2.55006e-09 4.97696e-15)
(0.0311417 -3.01456e-09 4.57451e-15)
(0.0311417 -3.44984e-09 4.70015e-15)
(0.0311417 -3.84349e-09 4.32582e-15)
(0.0311418 -4.17945e-09 4.00229e-15)
(0.0311418 -4.4656e-09 4.9611e-15)
(0.0311419 -4.72454e-09 4.57752e-15)
(0.0311419 -4.96294e-09 4.66239e-15)
(0.031142 -5.16703e-09 4.44497e-15)
(0.031142 -5.31558e-09 3.94671e-15)
(0.0311421 -5.418e-09 4.87296e-15)
(0.0311421 -5.49145e-09 4.41628e-15)
(0.0311422 -5.55547e-09 4.68514e-15)
(0.0311423 -5.53853e-09 4.36777e-15)
(0.0311423 -5.46246e-09 4.08876e-15)
(0.0311424 -5.18049e-09 4.42057e-15)
(0.0311424 -4.8347e-09 4.40995e-15)
(0.0311425 -4.12069e-09 4.72837e-15)
(0.0311425 -3.20588e-09 4.75626e-15)
(0.0311426 -2.0395e-09 4.86456e-15)
(0.0311426 -5.78576e-10 4.91873e-15)
(0.0311426 8.62372e-11 4.74493e-15)
(0.0311426 3.24728e-10 4.98473e-15)
(0.0311426 2.32599e-10 4.92141e-15)
(0.0311426 -2.12238e-10 4.99531e-15)
(0.0311426 -5.75503e-10 5.05056e-15)
(0.0311426 -9.00808e-10 4.87608e-15)
(0.0311426 -1.18432e-09 5.0756e-15)
(0.0311426 -1.3959e-09 4.96848e-15)
(0.0311427 -1.5283e-09 5.18311e-15)
(0.0311427 -1.56278e-09 5.20775e-15)
(0.0311427 -1.48326e-09 5.00668e-15)
(0.0311427 -1.30656e-09 5.20544e-15)
(0.0311427 -1.05241e-09 5.09542e-15)
(0.0311427 -7.15575e-10 5.1936e-15)
(0.0311427 -2.92234e-10 5.26688e-15)
(0.0311427 1.87259e-10 5.13034e-15)
(0.0311427 6.76154e-10 5.34861e-15)
(0.0311427 1.15272e-09 5.21242e-15)
(0.0311427 1.60684e-09 5.45028e-15)
(0.0311427 2.01501e-09 5.4202e-15)
(0.0311426 2.35662e-09 5.19709e-15)
(0.0311426 2.62356e-09 5.37796e-15)
(0.0311426 2.8264e-09 5.25819e-15)
(0.0311425 2.99683e-09 5.46821e-15)
(0.0311425 3.14042e-09 5.51337e-15)
(0.0311425 3.22317e-09 5.30854e-15)
(0.0311424 3.23149e-09 5.47235e-15)
(0.0311424 3.18595e-09 5.3399e-15)
(0.0311424 3.11016e-09 5.65508e-15)
(0.0311423 3.02685e-09 5.53539e-15)
(0.0311423 2.93836e-09 5.32525e-15)
(0.0311423 2.82224e-09 5.50073e-15)
(0.0311422 2.67131e-09 5.40054e-15)
(0.0311422 2.49701e-09 5.59296e-15)
(0.0311422 2.30779e-09 5.40634e-15)
(0.0311422 2.11738e-09 5.52066e-15)
(0.0311421 1.94209e-09 5.49693e-15)
(0.0311421 1.78776e-09 5.19184e-15)
(0.0311421 1.60472e-09 5.42545e-15)
(0.0311421 1.37714e-09 5.17702e-15)
(0.0311421 1.051e-09 5.41362e-15)
(0.0311421 7.44427e-10 5.45726e-15)
(0.031142 5.33461e-10 5.15896e-15)
(0.031142 3.93367e-10 5.29045e-15)
(0.031142 3.4639e-10 5.16163e-15)
(0.031142 2.88637e-10 5.32203e-15)
(0.031142 2.12759e-10 5.34736e-15)
(0.031142 1.28392e-10 5.1181e-15)
(0.031142 8.8279e-12 5.29777e-15)
(0.031142 -1.46146e-10 5.09807e-15)
(0.031142 -3.43915e-10 5.15367e-15)
(0.031142 -5.37296e-10 5.30154e-15)
(0.031142 -7.51133e-10 5.10784e-15)
(0.031142 -8.23212e-10 5.16892e-15)
(0.031142 -8.93682e-10 5.03439e-15)
(0.0311421 -6.63389e-10 5.37463e-15)
(0.0311421 -3.16848e-10 5.45115e-15)
(0.0311421 2.69381e-10 5.13667e-15)
(0.0311421 1.0566e-09 5.34029e-15)
(0.0311421 1.24505e-09 5.13397e-15)
(0.0311421 1.07883e-09 5.23249e-15)
(0.031142 5.89729e-10 5.32843e-15)
(0.031142 -8.81762e-11 5.02369e-15)
(0.0311421 -8.08137e-10 5.20227e-15)
(0.0311421 -1.48853e-09 5.05344e-15)
(0.0311421 -2.0577e-09 4.96491e-15)
(0.0311421 -2.51808e-09 5.28848e-15)
(0.0311421 -2.81121e-09 5.1091e-15)
(0.0311422 -2.98922e-09 5.34488e-15)
(0.0311422 -2.96742e-09 5.13263e-15)
(0.0311422 -2.47722e-09 5.01403e-15)
(0.0311423 -2.54258e-09 5.33006e-15)
(0.0311423 -1.28543e-09 5.11296e-15)
(0.0311423 1.39694e-09 5.28751e-15)
(0.0401879 -4.14985e-09 6.93313e-15)
(0.0401881 -1.28799e-08 6.70342e-15)
(0.0401882 -1.48088e-08 6.79911e-15)
(0.0401883 -1.0101e-08 6.4638e-15)
(0.0401883 -2.74833e-09 6.44935e-15)
(0.0401883 4.25231e-09 6.50236e-15)
(0.0401882 9.66608e-09 6.46298e-15)
(0.0401881 1.32904e-08 6.60001e-15)
(0.040188 1.53196e-08 6.58053e-15)
(0.0401878 1.60737e-08 6.48271e-15)
(0.0401877 1.58895e-08 6.66299e-15)
(0.0401876 1.50436e-08 6.28604e-15)
(0.0401875 1.37515e-08 6.45286e-15)
(0.0401874 1.2197e-08 6.11132e-15)
(0.0401873 1.05325e-08 6.0934e-15)
(0.0401872 8.84938e-09 6.45961e-15)
(0.0401871 7.1766e-09 6.1663e-15)
(0.0401871 5.54394e-09 6.33925e-15)
(0.040187 3.99132e-09 5.95602e-15)
(0.040187 2.52026e-09 5.84178e-15)
(0.040187 1.1179e-09 6.39148e-15)
(0.040187 -2.06837e-10 6.07429e-15)
(0.040187 -1.42871e-09 6.15265e-15)
(0.040187 -2.51764e-09 6.18142e-15)
(0.040187 -3.46865e-09 5.87868e-15)
(0.0401871 -4.31232e-09 6.37471e-15)
(0.0401871 -5.08604e-09 6.26282e-15)
(0.0401872 -5.80674e-09 6.15317e-15)
(0.0401872 -6.45836e-09 6.12527e-15)
(0.0401873 -7.01754e-09 5.76732e-15)
(0.0401873 -7.49397e-09 6.37137e-15)
(0.0401874 -7.92073e-09 6.22324e-15)
(0.0401875 -8.30975e-09 6.08381e-15)
(0.0401875 -8.64203e-09 6.05026e-15)
(0.0401876 -8.88744e-09 5.70517e-15)
(0.0401877 -9.05892e-09 6.25368e-15)
(0.0401877 -9.18373e-09 6.21967e-15)
(0.0401878 -9.28708e-09 6.1011e-15)
(0.0401879 -9.26999e-09 5.94047e-15)
(0.040188 -9.1523e-09 5.71303e-15)
(0.040188 -8.73084e-09 5.85132e-15)
(0.0401881 -8.18666e-09 6.03124e-15)
(0.0401882 -7.09275e-09 6.20577e-15)
(0.0401882 -5.66953e-09 6.13966e-15)
(0.0401883 -3.84017e-09 6.3209e-15)
(0.0401883 -1.5708e-09 6.36489e-15)
(0.0401883 -4.06852e-10 6.43964e-15)
(0.0401883 8.52106e-11 6.519e-15)
(0.0401883 3.43324e-11 6.31011e-15)
(0.0401883 -5.66986e-10 6.47446e-15)
(0.0401883 -1.10012e-09 6.52397e-15)
(0.0401884 -1.58514e-09 6.55168e-15)
(0.0401884 -2.00479e-09 6.61722e-15)
(0.0401884 -2.31421e-09 6.71672e-15)
(0.0401884 -2.49609e-09 6.46007e-15)
(0.0401884 -2.51883e-09 6.695e-15)
(0.0401884 -2.35671e-09 6.68856e-15)
(0.0401885 -2.0341e-09 6.77253e-15)
(0.0401885 -1.58277e-09 6.86547e-15)
(0.0401885 -9.99054e-10 6.85043e-15)
(0.0401885 -2.8075e-10 6.76321e-15)
(0.0401885 5.23742e-10 6.88882e-15)
(0.0401885 1.34079e-09 6.96944e-15)
(0.0401885 2.13302e-09 6.99564e-15)
(0.0401884 2.88205e-09 6.74968e-15)
(0.0401884 3.55212e-09 6.95141e-15)
(0.0401884 4.11227e-09 6.96658e-15)
(0.0401883 4.55061e-09 7.00101e-15)
(0.0401883 4.88352e-09 7.06895e-15)
(0.0401882 5.15778e-09 7.1274e-15)
(0.0401882 5.38231e-09 7.05217e-15)
(0.0401882 5.50918e-09 7.07779e-15)
(0.0401881 5.51864e-09 7.12249e-15)
(0.0401881 5.44007e-09 7.15868e-15)
(0.040188 5.3101e-09 7.0865e-15)
(0.040188 5.16493e-09 7.10886e-15)
(0.0401879 5.00997e-09 7.13556e-15)
(0.0401879 4.8126e-09 7.15908e-15)
(0.0401878 4.56094e-09 7.22786e-15)
(0.0401878 4.27193e-09 7.07459e-15)
(0.0401878 3.9603e-09 7.36203e-15)
(0.0401877 3.64671e-09 6.97916e-15)
(0.0401877 3.35552e-09 7.05709e-15)
(0.0401877 3.09408e-09 7.05033e-15)
(0.0401877 2.79031e-09 6.74353e-15)
(0.0401876 2.41408e-09 7.0727e-15)
(0.0401876 1.88976e-09 7.03027e-15)
(0.0401876 1.38859e-09 7.02507e-15)
(0.0401876 1.03018e-09 7.01346e-15)
(0.0401876 7.90017e-10 6.68304e-15)
(0.0401876 6.95039e-10 7.03107e-15)
(0.0401876 5.95259e-10 6.91924e-15)
(0.0401876 4.69532e-10 6.89374e-15)
(0.0401876 3.24486e-10 6.97144e-15)
(0.0401876 1.20096e-10 6.76176e-15)
(0.0401876 -1.48888e-10 6.94029e-15)
(0.0401876 -4.90096e-10 6.60485e-15)
(0.0401876 -8.37952e-10 6.8362e-15)
(0.0401876 -1.21604e-09 6.96661e-15)
(0.0401876 -1.39813e-09 6.53396e-15)
(0.0401876 -1.55946e-09 6.90953e-15)
(0.0401876 -1.27991e-09 6.94202e-15)
(0.0401876 -7.96767e-10 7.0047e-15)
(0.0401876 6.66048e-11 6.9621e-15)
(0.0401876 1.23883e-09 6.86868e-15)
(0.0401876 1.58274e-09 7.02015e-15)
(0.0401876 1.37508e-09 6.82453e-15)
(0.0401876 6.60986e-10 6.86066e-15)
(0.0401876 -3.60721e-10 6.82915e-15)
(0.0401876 -1.4705e-09 6.73192e-15)
(0.0401876 -2.53113e-09 6.84116e-15)
(0.0401877 -3.42772e-09 6.85477e-15)
(0.0401877 -4.1542e-09 6.94374e-15)
(0.0401877 -4.62859e-09 6.94791e-15)
(0.0401878 -4.92082e-09 6.89994e-15)
(0.0401878 -4.89831e-09 6.95975e-15)
(0.0401878 -4.17759e-09 6.90112e-15)
(0.0401879 -4.276e-09 6.9982e-15)
(0.0401879 -2.01257e-09 6.96149e-15)
(0.0401879 1.17893e-09 6.69062e-15)
(0.0488651 -9.55928e-09 8.50165e-15)
(0.0488652 -2.015e-08 8.03875e-15)
(0.0488653 -2.05253e-08 8.2691e-15)
(0.0488654 -1.27555e-08 8.15127e-15)
(0.0488654 -2.10919e-09 8.10487e-15)
(0.0488654 7.73103e-09 8.05906e-15)
(0.0488653 1.52619e-08 8.06695e-15)
(0.0488652 2.02621e-08 8.1551e-15)
(0.048865 2.3016e-08 8.08596e-15)
(0.0488649 2.39737e-08 8.08759e-15)
(0.0488647 2.36037e-08 8.22195e-15)
(0.0488646 2.2293e-08 7.8321e-15)
(0.0488645 2.03468e-08 7.91966e-15)
(0.0488643 1.80253e-08 7.5864e-15)
(0.0488642 1.55455e-08 7.54416e-15)
(0.0488642 1.30415e-08 7.94965e-15)
(0.0488641 1.05584e-08 7.67907e-15)
(0.048864 8.13671e-09 7.76386e-15)
(0.048864 5.83002e-09 7.41454e-15)
(0.048864 3.64523e-09 7.30248e-15)
(0.048864 1.56876e-09 7.563e-15)
(0.048864 -3.8821e-10 7.56966e-15)
(0.048864 -2.19232e-09 7.61533e-15)
(0.048864 -3.80312e-09 7.51149e-15)
(0.048864 -5.21576e-09 7.44793e-15)
(0.048864 -6.47262e-09 7.66995e-15)
(0.0488641 -7.62247e-09 7.55891e-15)
(0.0488641 -8.68822e-09 7.54137e-15)
(0.0488642 -9.65177e-09 7.40913e-15)
(0.0488643 -1.04824e-08 7.34466e-15)
(0.0488643 -1.11907e-08 7.62045e-15)
(0.0488644 -1.18206e-08 7.45992e-15)
(0.0488645 -1.23903e-08 7.42974e-15)
(0.0488646 -1.28759e-08 7.34909e-15)
(0.0488646 -1.32394e-08 7.27717e-15)
(0.0488647 -1.3498e-08 7.5334e-15)
(0.0488648 -1.36891e-08 7.41883e-15)
(0.0488649 -1.38426e-08 7.43723e-15)
(0.048865 -1.38314e-08 7.26112e-15)
(0.0488651 -1.3673e-08 7.2702e-15)
(0.0488651 -1.31073e-08 7.30611e-15)
(0.0488652 -1.23472e-08 7.67962e-15)
(0.0488653 -1.08432e-08 7.67425e-15)
(0.0488654 -8.86266e-09 7.67476e-15)
(0.0488654 -6.30051e-09 7.7839e-15)
(0.0488655 -3.13322e-09 7.75962e-15)
(0.0488655 -1.35536e-09 8.08299e-15)
(0.0488655 -5.02592e-10 8.03028e-15)
(0.0488655 -4.36653e-10 7.89917e-15)
(0.0488655 -1.14745e-09 7.94676e-15)
(0.0488655 -1.83051e-09 7.94313e-15)
(0.0488655 -2.46782e-09 8.11196e-15)
(0.0488656 -3.0169e-09 8.118e-15)
(0.0488656 -3.41502e-09 8.56083e-15)
(0.0488656 -3.63044e-09 8.30749e-15)
(0.0488656 -3.61481e-09 8.12795e-15)
(0.0488656 -3.33164e-09 8.26387e-15)
(0.0488657 -2.81386e-09 8.30184e-15)
(0.0488657 -2.10704e-09 8.61221e-15)
(0.0488657 -1.21123e-09 8.39318e-15)
(0.0488657 -1.2854e-10 8.23989e-15)
(0.0488657 1.07085e-09 8.75886e-15)
(0.0488657 2.28292e-09 8.54868e-15)
(0.0488656 3.45232e-09 8.66189e-15)
(0.0488656 4.55065e-09 8.61893e-15)
(0.0488656 5.52864e-09 8.43908e-15)
(0.0488655 6.34541e-09 8.57767e-15)
(0.0488655 6.98582e-09 8.58633e-15)
(0.0488654 7.47254e-09 8.72412e-15)
(0.0488654 7.86731e-09 8.69934e-15)
(0.0488653 8.18175e-09 8.55374e-15)
(0.0488653 8.35512e-09 8.86633e-15)
(0.0488652 8.36304e-09 8.71797e-15)
(0.0488652 8.24384e-09 8.98065e-15)
(0.0488651 8.04768e-09 8.84946e-15)
(0.0488651 7.826e-09 8.61271e-15)
(0.048865 7.58799e-09 8.76898e-15)
(0.048865 7.29038e-09 8.77417e-15)
(0.0488649 6.91686e-09 8.9182e-15)
(0.0488649 6.49097e-09 8.77899e-15)
(0.0488648 6.03461e-09 9.15941e-15)
(0.0488648 5.57527e-09 8.66515e-15)
(0.0488648 5.1449e-09 8.60097e-15)
(0.0488647 4.75194e-09 8.8289e-15)
(0.0488647 4.30079e-09 8.43119e-15)
(0.0488647 3.74478e-09 9.01941e-15)
(0.0488647 2.98867e-09 8.5868e-15)
(0.0488646 2.25905e-09 8.55192e-15)
(0.0488646 1.72232e-09 8.79672e-15)
(0.0488646 1.35776e-09 8.33058e-15)
(0.0488646 1.19648e-09 8.82012e-15)
(0.0488646 1.04096e-09 8.45518e-15)
(0.0488646 8.51974e-10 8.42947e-15)
(0.0488646 6.28143e-10 8.76998e-15)
(0.0488646 3.13517e-10 8.00073e-15)
(0.0488646 -1.03281e-10 8.71326e-15)
(0.0488646 -6.29709e-10 8.31359e-15)
(0.0488646 -1.18035e-09 8.37522e-15)
(0.0488646 -1.77556e-09 8.76594e-15)
(0.0488646 -2.12338e-09 8.24616e-15)
(0.0488646 -2.42646e-09 8.65082e-15)
(0.0488646 -2.14095e-09 8.46451e-15)
(0.0488646 -1.54765e-09 8.5154e-15)
(0.0488647 -4.13493e-10 8.67844e-15)
(0.0488647 1.15534e-09 8.36603e-15)
(0.0488647 1.68761e-09 8.90506e-15)
(0.0488647 1.47066e-09 8.34633e-15)
(0.0488647 5.46569e-10 8.37867e-15)
(0.0488647 -8.23339e-10 8.52792e-15)
(0.0488647 -2.3451e-09 8.19489e-15)
(0.0488647 -3.81722e-09 8.60373e-15)
(0.0488647 -5.07421e-09 8.66331e-15)
(0.0488648 -6.09772e-09 8.56702e-15)
(0.0488648 -6.78258e-09 8.7117e-15)
(0.0488648 -7.21256e-09 8.40346e-15)
(0.0488649 -7.19906e-09 8.68443e-15)
(0.0488649 -6.24758e-09 8.70961e-15)
(0.048865 -6.39567e-09 8.63357e-15)
(0.048865 -2.77692e-09 8.72e-15)
(0.048865 -8.80427e-11 8.32325e-15)
(0.0567985 -1.69898e-08 9.9885e-15)
(0.0567986 -2.79021e-08 9.70299e-15)
(0.0567987 -2.54937e-08 9.71759e-15)
(0.0567988 -1.42594e-08 9.67548e-15)
(0.0567987 -3.6583e-10 9.61036e-15)
(0.0567987 1.2167e-08 9.5624e-15)
(0.0567986 2.16994e-08 9.55349e-15)
(0.0567985 2.80056e-08 9.6116e-15)
(0.0567983 3.14433e-08 9.5874e-15)
(0.0567982 3.25758e-08 9.5695e-15)
(0.056798 3.19904e-08 9.66621e-15)
(0.0567979 3.0177e-08 9.21669e-15)
(0.0567978 2.75287e-08 9.29386e-15)
(0.0567976 2.43838e-08 8.94633e-15)
(0.0567975 2.10262e-08 8.90598e-15)
(0.0567974 1.76347e-08 9.51589e-15)
(0.0567974 1.42721e-08 8.98409e-15)
(0.0567973 1.09896e-08 9.0869e-15)
(0.0567973 7.85524e-09 8.70405e-15)
(0.0567972 4.88441e-09 8.68803e-15)
(0.0567972 2.06545e-09 8.7414e-15)
(0.0567972 -5.87966e-10 8.92577e-15)
(0.0567972 -3.03447e-09 8.96715e-15)
(0.0567973 -5.22409e-09 8.59254e-15)
(0.0567973 -7.15431e-09 8.91115e-15)
(0.0567973 -8.87882e-09 8.91918e-15)
(0.0567974 -1.04545e-08 8.59673e-15)
(0.0567974 -1.19097e-08 8.81678e-15)
(0.0567975 -1.3226e-08 8.49934e-15)
(0.0567976 -1.43653e-08 8.80719e-15)
(0.0567976 -1.53384e-08 8.85214e-15)
(0.0567977 -1.62009e-08 8.45797e-15)
(0.0567978 -1.69771e-08 8.66796e-15)
(0.0567979 -1.76381e-08 8.52507e-15)
(0.0567979 -1.81394e-08 8.69533e-15)
(0.056798 -1.85045e-08 8.76323e-15)
(0.0567981 -1.87795e-08 8.44431e-15)
(0.0567982 -1.89968e-08 8.66577e-15)
(0.0567983 -1.90024e-08 8.48761e-15)
(0.0567984 -1.8812e-08 8.70833e-15)
(0.0567985 -1.81102e-08 8.68586e-15)
(0.0567986 -1.71343e-08 9.02661e-15)
(0.0567987 -1.5217e-08 9.01861e-15)
(0.0567987 -1.26675e-08 9.0871e-15)
(0.0567988 -9.34886e-09 9.108e-15)
(0.0567988 -5.2426e-09 9.06339e-15)
(0.0567989 -2.76996e-09 9.4322e-15)
(0.0567989 -1.4621e-09 9.37088e-15)
(0.0567989 -1.19701e-09 9.30597e-15)
(0.0567989 -1.95151e-09 9.29756e-15)
(0.0567989 -2.74206e-09 9.2516e-15)
(0.056799 -3.50359e-09 9.58405e-15)
(0.056799 -4.15965e-09 9.48774e-15)
(0.056799 -4.62591e-09 9.80366e-15)
(0.056799 -4.85148e-09 9.73536e-15)
(0.056799 -4.76795e-09 9.40441e-15)
(0.0567991 -4.32827e-09 9.75778e-15)
(0.0567991 -3.57528e-09 9.70503e-15)
(0.0567991 -2.56922e-09 1.00047e-14)
(0.0567991 -1.31533e-09 9.90306e-15)
(0.0567991 1.77375e-10 9.5593e-15)
(0.0567991 1.81402e-09 1.00103e-14)
(0.0567991 3.45924e-09 9.95868e-15)
(0.056799 5.04005e-09 1.0214e-14)
(0.056799 6.51696e-09 1.01291e-14)
(0.056799 7.82738e-09 9.76213e-15)
(0.0567989 8.92186e-09 1.01303e-14)
(0.0567989 9.7828e-09 1.00181e-14)
(0.0567988 1.04389e-08 1.02966e-14)
(0.0567988 1.0965e-08 1.02213e-14)
(0.0567987 1.13741e-08 9.89213e-15)
(0.0567987 1.15946e-08 1.02638e-14)
(0.0567986 1.16005e-08 1.01639e-14)
(0.0567985 1.14383e-08 1.0405e-14)
(0.0567985 1.1171e-08 1.03302e-14)
(0.0567984 1.08657e-08 9.95498e-15)
(0.0567984 1.05352e-08 1.03412e-14)
(0.0567983 1.01257e-08 1.02152e-14)
(0.0567983 9.61798e-09 1.04924e-14)
(0.0567982 9.04341e-09 1.03397e-14)
(0.0567982 8.43093e-09 1.06532e-14)
(0.0567981 7.81341e-09 1.02471e-14)
(0.0567981 7.22923e-09 1.00956e-14)
(0.0567981 6.68743e-09 1.04499e-14)
(0.056798 6.06897e-09 1.00774e-14)
(0.056798 5.311e-09 1.0327e-14)