/*--------------------------------*- C++ -*----------------------------------*\
  =========                 |
  \\      /  F ield         | OpenFOAM: The Open Source CFD Toolbox
   \\    /   O peration     | Website:  https://openfoam.org
    \\  /    A nd           | Version:  7
     \\/     M anipulation  |
\*---------------------------------------------------------------------------*/
FoamFile
{
    version     2.0;
    format      ascii;
    class       volScalarField;
    location    "1000";
    object      k;
}
// * * * * * * * * * * * * * * * * * * * * * * * * * * * * * * * * * * * * * //

dimensions      [0 2 -2 0 0 0 0];

internalField   nonuniform List<scalar> 
24000
(
7.75852e-09
7.75905e-09
7.75951e-09
7.75973e-09
7.75983e-09
7.75986e-09
7.75986e-09
7.75984e-09
7.75982e-09
7.75981e-09
7.7598e-09
7.75982e-09
7.75984e-09
7.75987e-09
7.7599e-09
7.75993e-09
7.75997e-09
7.76001e-09
7.76005e-09
7.7601e-09
7.76014e-09
7.76018e-09
7.76022e-09
7.76026e-09
7.7603e-09
7.76035e-09
7.76039e-09
7.76043e-09
7.76047e-09
7.76051e-09
7.76055e-09
7.76059e-09
7.76063e-09
7.76066e-09
7.7607e-09
7.76074e-09
7.76078e-09
7.76082e-09
7.76085e-09
7.76088e-09
7.76091e-09
7.76093e-09
7.76092e-09
7.76092e-09
7.76084e-09
7.76073e-09
7.76071e-09
7.76074e-09
7.76078e-09
7.7608e-09
7.76083e-09
7.76086e-09
7.76088e-09
7.76089e-09
7.7609e-09
7.76091e-09
7.76094e-09
7.76097e-09
7.76103e-09
7.76111e-09
7.76122e-09
7.76135e-09
7.76149e-09
7.76166e-09
7.76183e-09
7.76201e-09
7.76219e-09
7.76237e-09
7.76254e-09
7.7627e-09
7.76285e-09
7.76299e-09
7.76312e-09
7.76324e-09
7.76334e-09
7.76344e-09
7.76352e-09
7.7636e-09
7.76366e-09
7.76372e-09
7.76377e-09
7.76381e-09
7.76385e-09
7.76387e-09
7.76389e-09
7.7639e-09
7.7639e-09
7.7639e-09
7.76391e-09
7.76391e-09
7.7639e-09
7.76389e-09
7.76386e-09
7.76382e-09
7.76376e-09
7.76369e-09
7.76361e-09
7.7635e-09
7.76337e-09
7.76321e-09
7.76304e-09
7.7628e-09
7.76256e-09
7.76224e-09
7.76186e-09
7.7616e-09
7.76138e-09
7.76118e-09
7.76097e-09
7.76077e-09
7.76056e-09
7.76036e-09
7.76017e-09
7.76e-09
7.75985e-09
7.75972e-09
7.75963e-09
7.75946e-09
7.75953e-09
7.75872e-09
2.33792e-07
2.33808e-07
2.33822e-07
2.33828e-07
2.33831e-07
2.33832e-07
2.33832e-07
2.33831e-07
2.33831e-07
2.3383e-07
2.3383e-07
2.3383e-07
2.33831e-07
2.33832e-07
2.33833e-07
2.33834e-07
2.33835e-07
2.33836e-07
2.33838e-07
2.33839e-07
2.3384e-07
2.33841e-07
2.33843e-07
2.33844e-07
2.33845e-07
2.33846e-07
2.33848e-07
2.33849e-07
2.3385e-07
2.33851e-07
2.33853e-07
2.33854e-07
2.33855e-07
2.33856e-07
2.33857e-07
2.33858e-07
2.3386e-07
2.33861e-07
2.33862e-07
2.33863e-07
2.33863e-07
2.33864e-07
2.33864e-07
2.33864e-07
2.33862e-07
2.33858e-07
2.33858e-07
2.33858e-07
2.3386e-07
2.3386e-07
2.33861e-07
2.33862e-07
2.33863e-07
2.33863e-07
2.33863e-07
2.33864e-07
2.33864e-07
2.33865e-07
2.33867e-07
2.3387e-07
2.33873e-07
2.33877e-07
2.33881e-07
2.33886e-07
2.33891e-07
2.33897e-07
2.33902e-07
2.33907e-07
2.33913e-07
2.33918e-07
2.33922e-07
2.33926e-07
2.3393e-07
2.33934e-07
2.33937e-07
2.3394e-07
2.33942e-07
2.33944e-07
2.33946e-07
2.33948e-07
2.3395e-07
2.33951e-07
2.33952e-07
2.33953e-07
2.33953e-07
2.33954e-07
2.33954e-07
2.33954e-07
2.33954e-07
2.33954e-07
2.33954e-07
2.33953e-07
2.33952e-07
2.33951e-07
2.33949e-07
2.33947e-07
2.33945e-07
2.33941e-07
2.33938e-07
2.33933e-07
2.33928e-07
2.33921e-07
2.33913e-07
2.33904e-07
2.33892e-07
2.33884e-07
2.33878e-07
2.33872e-07
2.33865e-07
2.33859e-07
2.33853e-07
2.33847e-07
2.33841e-07
2.33836e-07
2.33832e-07
2.33828e-07
2.33825e-07
2.3382e-07
2.33822e-07
2.33798e-07
1.69653e-06
1.69664e-06
1.69674e-06
1.69679e-06
1.69681e-06
1.69681e-06
1.69681e-06
1.69681e-06
1.6968e-06
1.6968e-06
1.6968e-06
1.6968e-06
1.69681e-06
1.69681e-06
1.69682e-06
1.69683e-06
1.69684e-06
1.69685e-06
1.69685e-06
1.69686e-06
1.69687e-06
1.69688e-06
1.69689e-06
1.6969e-06
1.69691e-06
1.69692e-06
1.69693e-06
1.69694e-06
1.69695e-06
1.69695e-06
1.69696e-06
1.69697e-06
1.69698e-06
1.69699e-06
1.697e-06
1.69701e-06
1.69701e-06
1.69702e-06
1.69703e-06
1.69704e-06
1.69704e-06
1.69705e-06
1.69704e-06
1.69704e-06
1.69703e-06
1.697e-06
1.697e-06
1.69701e-06
1.69701e-06
1.69702e-06
1.69703e-06
1.69703e-06
1.69704e-06
1.69704e-06
1.69704e-06
1.69704e-06
1.69705e-06
1.69706e-06
1.69707e-06
1.69709e-06
1.69711e-06
1.69714e-06
1.69717e-06
1.69721e-06
1.69724e-06
1.69728e-06
1.69732e-06
1.69736e-06
1.6974e-06
1.69743e-06
1.69747e-06
1.6975e-06
1.69753e-06
1.69755e-06
1.69757e-06
1.69759e-06
1.69761e-06
1.69763e-06
1.69764e-06
1.69765e-06
1.69767e-06
1.69767e-06
1.69768e-06
1.69769e-06
1.69769e-06
1.69769e-06
1.69769e-06
1.69769e-06
1.69769e-06
1.69769e-06
1.69769e-06
1.69769e-06
1.69769e-06
1.69768e-06
1.69766e-06
1.69765e-06
1.69763e-06
1.69761e-06
1.69758e-06
1.69754e-06
1.69751e-06
1.69745e-06
1.6974e-06
1.69733e-06
1.69725e-06
1.69719e-06
1.69714e-06
1.6971e-06
1.69706e-06
1.69701e-06
1.69696e-06
1.69692e-06
1.69688e-06
1.69684e-06
1.69681e-06
1.69678e-06
1.69676e-06
1.69672e-06
1.69674e-06
1.69657e-06
6.26162e-06
6.26196e-06
6.26232e-06
6.26249e-06
6.26256e-06
6.26258e-06
6.26258e-06
6.26257e-06
6.26256e-06
6.26255e-06
6.26255e-06
6.26256e-06
6.26258e-06
6.2626e-06
6.26263e-06
6.26266e-06
6.26269e-06
6.26272e-06
6.26276e-06
6.26279e-06
6.26283e-06
6.26286e-06
6.26289e-06
6.26293e-06
6.26296e-06
6.26299e-06
6.26303e-06
6.26306e-06
6.26309e-06
6.26313e-06
6.26316e-06
6.26319e-06
6.26322e-06
6.26325e-06
6.26328e-06
6.26331e-06
6.26334e-06
6.26337e-06
6.2634e-06
6.26343e-06
6.26344e-06
6.26347e-06
6.26346e-06
6.26346e-06
6.2634e-06
6.26331e-06
6.2633e-06
6.26332e-06
6.26335e-06
6.26336e-06
6.26339e-06
6.26341e-06
6.26343e-06
6.26344e-06
6.26344e-06
6.26345e-06
6.26347e-06
6.2635e-06
6.26355e-06
6.26362e-06
6.2637e-06
6.2638e-06
6.26392e-06
6.26406e-06
6.26419e-06
6.26434e-06
6.26448e-06
6.26462e-06
6.26476e-06
6.26489e-06
6.26501e-06
6.26512e-06
6.26522e-06
6.26531e-06
6.2654e-06
6.26547e-06
6.26553e-06
6.26559e-06
6.26564e-06
6.26569e-06
6.26573e-06
6.26576e-06
6.26579e-06
6.26581e-06
6.26582e-06
6.26583e-06
6.26583e-06
6.26583e-06
6.26583e-06
6.26583e-06
6.26583e-06
6.26581e-06
6.26579e-06
6.26576e-06
6.26571e-06
6.26565e-06
6.26558e-06
6.2655e-06
6.2654e-06
6.26527e-06
6.26513e-06
6.26494e-06
6.26475e-06
6.2645e-06
6.2642e-06
6.26398e-06
6.26381e-06
6.26364e-06
6.26348e-06
6.26331e-06
6.26315e-06
6.26299e-06
6.26284e-06
6.2627e-06
6.26258e-06
6.26248e-06
6.2624e-06
6.26227e-06
6.26232e-06
6.26174e-06
1.59101e-05
1.59108e-05
1.59116e-05
1.5912e-05
1.59122e-05
1.59123e-05
1.59123e-05
1.59123e-05
1.59122e-05
1.59122e-05
1.59122e-05
1.59123e-05
1.59123e-05
1.59124e-05
1.59124e-05
1.59125e-05
1.59126e-05
1.59127e-05
1.59128e-05
1.59129e-05
1.5913e-05
1.5913e-05
1.59131e-05
1.59132e-05
1.59133e-05
1.59134e-05
1.59135e-05
1.59136e-05
1.59136e-05
1.59137e-05
1.59138e-05
1.59139e-05
1.59139e-05
1.5914e-05
1.59141e-05
1.59142e-05
1.59142e-05
1.59143e-05
1.59144e-05
1.59145e-05
1.59145e-05
1.59145e-05
1.59145e-05
1.59145e-05
1.59144e-05
1.59142e-05
1.59142e-05
1.59142e-05
1.59143e-05
1.59143e-05
1.59144e-05
1.59144e-05
1.59145e-05
1.59145e-05
1.59145e-05
1.59145e-05
1.59146e-05
1.59147e-05
1.59148e-05
1.5915e-05
1.59152e-05
1.59154e-05
1.59157e-05
1.59161e-05
1.59164e-05
1.59168e-05
1.59171e-05
1.59175e-05
1.59178e-05
1.59181e-05
1.59184e-05
1.59187e-05
1.59189e-05
1.59191e-05
1.59193e-05
1.59195e-05
1.59197e-05
1.59198e-05
1.59199e-05
1.592e-05
1.59201e-05
1.59202e-05
1.59203e-05
1.59203e-05
1.59204e-05
1.59204e-05
1.59204e-05
1.59204e-05
1.59204e-05
1.59204e-05
1.59203e-05
1.59203e-05
1.59202e-05
1.59202e-05
1.592e-05
1.59199e-05
1.59197e-05
1.59195e-05
1.59192e-05
1.59189e-05
1.59186e-05
1.59181e-05
1.59176e-05
1.5917e-05
1.59163e-05
1.59158e-05
1.59153e-05
1.59149e-05
1.59145e-05
1.59141e-05
1.59137e-05
1.59133e-05
1.59129e-05
1.59126e-05
1.59123e-05
1.5912e-05
1.59118e-05
1.59115e-05
1.59116e-05
1.59103e-05
3.1267e-05
3.12679e-05
3.12692e-05
3.127e-05
3.12704e-05
3.12705e-05
3.12705e-05
3.12705e-05
3.12705e-05
3.12705e-05
3.12705e-05
3.12706e-05
3.12707e-05
3.12708e-05
3.1271e-05
3.12711e-05
3.12713e-05
3.12715e-05
3.12716e-05
3.12718e-05
3.1272e-05
3.12721e-05
3.12723e-05
3.12725e-05
3.12726e-05
3.12728e-05
3.1273e-05
3.12731e-05
3.12733e-05
3.12734e-05
3.12736e-05
3.12737e-05
3.12739e-05
3.1274e-05
3.12742e-05
3.12743e-05
3.12744e-05
3.12746e-05
3.12747e-05
3.12748e-05
3.12749e-05
3.1275e-05
3.1275e-05
3.1275e-05
3.12748e-05
3.12744e-05
3.12744e-05
3.12744e-05
3.12745e-05
3.12746e-05
3.12747e-05
3.12748e-05
3.12749e-05
3.12749e-05
3.1275e-05
3.1275e-05
3.12751e-05
3.12753e-05
3.12755e-05
3.12758e-05
3.12763e-05
3.12768e-05
3.12773e-05
3.12779e-05
3.12786e-05
3.12792e-05
3.12799e-05
3.12805e-05
3.12812e-05
3.12817e-05
3.12823e-05
3.12828e-05
3.12832e-05
3.12836e-05
3.1284e-05
3.12843e-05
3.12846e-05
3.12848e-05
3.1285e-05
3.12852e-05
3.12854e-05
3.12855e-05
3.12856e-05
3.12857e-05
3.12857e-05
3.12857e-05
3.12857e-05
3.12857e-05
3.12857e-05
3.12856e-05
3.12856e-05
3.12855e-05
3.12854e-05
3.12852e-05
3.1285e-05
3.12847e-05
3.12844e-05
3.12839e-05
3.12834e-05
3.12828e-05
3.12822e-05
3.12813e-05
3.12804e-05
3.12793e-05
3.1278e-05
3.1277e-05
3.12761e-05
3.12754e-05
3.12746e-05
3.12738e-05
3.12731e-05
3.12723e-05
3.12716e-05
3.1271e-05
3.12704e-05
3.127e-05
3.12696e-05
3.12691e-05
3.12692e-05
3.12672e-05
5.04699e-05
5.04707e-05
5.04723e-05
5.04734e-05
5.0474e-05
5.04743e-05
5.04744e-05
5.04744e-05
5.04744e-05
5.04745e-05
5.04745e-05
5.04746e-05
5.04748e-05
5.04751e-05
5.04753e-05
5.04755e-05
5.04758e-05
5.04761e-05
5.04764e-05
5.04766e-05
5.04769e-05
5.04772e-05
5.04775e-05
5.04777e-05
5.0478e-05
5.04782e-05
5.04785e-05
5.04787e-05
5.0479e-05
5.04792e-05
5.04795e-05
5.04797e-05
5.04799e-05
5.04801e-05
5.04803e-05
5.04805e-05
5.04807e-05
5.04809e-05
5.04811e-05
5.04813e-05
5.04814e-05
5.04815e-05
5.04815e-05
5.04815e-05
5.04813e-05
5.04808e-05
5.04807e-05
5.04808e-05
5.0481e-05
5.04811e-05
5.04812e-05
5.04814e-05
5.04815e-05
5.04815e-05
5.04816e-05
5.04817e-05
5.04819e-05
5.04821e-05
5.04825e-05
5.0483e-05
5.04837e-05
5.04844e-05
5.04853e-05
5.04862e-05
5.04872e-05
5.04882e-05
5.04892e-05
5.04901e-05
5.0491e-05
5.04919e-05
5.04927e-05
5.04934e-05
5.0494e-05
5.04946e-05
5.04951e-05
5.04955e-05
5.04959e-05
5.04963e-05
5.04965e-05
5.04968e-05
5.0497e-05
5.04971e-05
5.04973e-05
5.04973e-05
5.04974e-05
5.04974e-05
5.04973e-05
5.04973e-05
5.04972e-05
5.04971e-05
5.0497e-05
5.04969e-05
5.04967e-05
5.04964e-05
5.0496e-05
5.04956e-05
5.0495e-05
5.04943e-05
5.04936e-05
5.04926e-05
5.04916e-05
5.04903e-05
5.0489e-05
5.04873e-05
5.04854e-05
5.04839e-05
5.04826e-05
5.04814e-05
5.04803e-05
5.04791e-05
5.0478e-05
5.04769e-05
5.04759e-05
5.0475e-05
5.04741e-05
5.04735e-05
5.04729e-05
5.04722e-05
5.04723e-05
5.04699e-05
7.03169e-05
7.03172e-05
7.03187e-05
7.032e-05
7.03208e-05
7.03213e-05
7.03215e-05
7.03217e-05
7.03218e-05
7.03219e-05
7.0322e-05
7.03222e-05
7.03225e-05
7.03228e-05
7.03232e-05
7.03235e-05
7.03239e-05
7.03243e-05
7.03247e-05
7.03251e-05
7.03255e-05
7.03258e-05
7.03262e-05
7.03266e-05
7.03269e-05
7.03273e-05
7.03276e-05
7.0328e-05
7.03283e-05
7.03286e-05
7.03289e-05
7.03292e-05
7.03295e-05
7.03298e-05
7.033e-05
7.03303e-05
7.03306e-05
7.03308e-05
7.0331e-05
7.03312e-05
7.03314e-05
7.03315e-05
7.03316e-05
7.03316e-05
7.03314e-05
7.03309e-05
7.03307e-05
7.03308e-05
7.0331e-05
7.03312e-05
7.03313e-05
7.03315e-05
7.03316e-05
7.03317e-05
7.03318e-05
7.0332e-05
7.03322e-05
7.03326e-05
7.03331e-05
7.03339e-05
7.03347e-05
7.03358e-05
7.03369e-05
7.03381e-05
7.03394e-05
7.03406e-05
7.03419e-05
7.03431e-05
7.03442e-05
7.03453e-05
7.03462e-05
7.03471e-05
7.03479e-05
7.03486e-05
7.03492e-05
7.03497e-05
7.03501e-05
7.03505e-05
7.03508e-05
7.03511e-05
7.03513e-05
7.03515e-05
7.03516e-05
7.03516e-05
7.03516e-05
7.03516e-05
7.03515e-05
7.03514e-05
7.03512e-05
7.03511e-05
7.03509e-05
7.03507e-05
7.03503e-05
7.03499e-05
7.03494e-05
7.03488e-05
7.0348e-05
7.03471e-05
7.0346e-05
7.03448e-05
7.03434e-05
7.03418e-05
7.034e-05
7.0338e-05
7.03356e-05
7.03336e-05
7.0332e-05
7.03304e-05
7.03289e-05
7.03275e-05
7.0326e-05
7.03246e-05
7.03233e-05
7.03222e-05
7.03211e-05
7.03203e-05
7.03196e-05
7.03188e-05
7.03189e-05
7.03166e-05
8.83586e-05
8.83581e-05
8.83592e-05
8.83606e-05
8.83616e-05
8.83623e-05
8.83627e-05
8.83631e-05
8.83634e-05
8.83636e-05
8.83638e-05
8.83641e-05
8.83645e-05
8.83649e-05
8.83653e-05
8.83658e-05
8.83663e-05
8.83668e-05
8.83673e-05
8.83678e-05
8.83682e-05
8.83687e-05
8.83692e-05
8.83696e-05
8.83701e-05
8.83705e-05
8.8371e-05
8.83714e-05
8.83718e-05
8.83722e-05
8.83725e-05
8.83729e-05
8.83732e-05
8.83736e-05
8.83739e-05
8.83742e-05
8.83745e-05
8.83748e-05
8.8375e-05
8.83753e-05
8.83754e-05
8.83756e-05
8.83757e-05
8.83757e-05
8.83756e-05
8.83751e-05
8.83749e-05
8.8375e-05
8.83752e-05
8.83754e-05
8.83755e-05
8.83757e-05
8.83758e-05
8.8376e-05
8.83761e-05
8.83763e-05
8.83767e-05
8.83772e-05
8.83779e-05
8.83788e-05
8.83799e-05
8.83812e-05
8.83825e-05
8.8384e-05
8.83855e-05
8.83869e-05
8.83884e-05
8.83898e-05
8.8391e-05
8.83922e-05
8.83933e-05
8.83943e-05
8.83951e-05
8.83959e-05
8.83965e-05
8.83971e-05
8.83975e-05
8.83979e-05
8.83982e-05
8.83984e-05
8.83986e-05
8.83987e-05
8.83988e-05
8.83988e-05
8.83987e-05
8.83986e-05
8.83984e-05
8.83982e-05
8.8398e-05
8.83978e-05
8.83975e-05
8.83971e-05
8.83967e-05
8.83962e-05
8.83955e-05
8.83947e-05
8.83937e-05
8.83926e-05
8.83913e-05
8.83898e-05
8.83881e-05
8.83861e-05
8.83841e-05
8.83818e-05
8.83791e-05
8.83768e-05
8.83748e-05
8.83729e-05
8.83712e-05
8.83695e-05
8.83678e-05
8.83662e-05
8.83647e-05
8.83634e-05
8.83622e-05
8.83613e-05
8.83605e-05
8.83597e-05
8.83598e-05
8.83579e-05
0.000103557
0.000103556
0.000103556
0.000103558
0.000103559
0.00010356
0.00010356
0.000103561
0.000103561
0.000103562
0.000103562
0.000103562
0.000103563
0.000103563
0.000103564
0.000103565
0.000103565
0.000103566
0.000103566
0.000103567
0.000103568
0.000103568
0.000103569
0.000103569
0.00010357
0.00010357
0.000103571
0.000103571
0.000103572
0.000103572
0.000103573
0.000103573
0.000103573
0.000103574
0.000103574
0.000103575
0.000103575
0.000103575
0.000103575
0.000103576
0.000103576
0.000103576
0.000103576
0.000103576
0.000103576
0.000103576
0.000103576
0.000103576
0.000103576
0.000103576
0.000103576
0.000103576
0.000103576
0.000103577
0.000103577
0.000103577
0.000103578
0.000103578
0.000103579
0.00010358
0.000103582
0.000103583
0.000103585
0.000103586
0.000103588
0.00010359
0.000103591
0.000103593
0.000103594
0.000103595
0.000103596
0.000103597
0.000103598
0.000103599
0.0001036
0.0001036
0.000103601
0.000103601
0.000103601
0.000103601
0.000103601
0.000103601
0.000103601
0.000103601
0.000103601
0.000103601
0.000103601
0.0001036
0.0001036
0.0001036
0.000103599
0.000103599
0.000103598
0.000103598
0.000103597
0.000103596
0.000103595
0.000103593
0.000103592
0.00010359
0.000103588
0.000103586
0.000103584
0.000103581
0.000103578
0.000103576
0.000103573
0.000103571
0.000103569
0.000103568
0.000103566
0.000103564
0.000103563
0.000103561
0.00010356
0.000103559
0.000103558
0.000103557
0.000103557
0.000103556
0.000115822
0.000115821
0.000115821
0.000115822
0.000115823
0.000115824
0.000115825
0.000115826
0.000115826
0.000115827
0.000115828
0.000115828
0.000115829
0.000115829
0.00011583
0.000115831
0.000115831
0.000115832
0.000115833
0.000115833
0.000115834
0.000115835
0.000115835
0.000115836
0.000115837
0.000115837
0.000115838
0.000115838
0.000115839
0.000115839
0.00011584
0.00011584
0.000115841
0.000115841
0.000115842
0.000115842
0.000115842
0.000115843
0.000115843
0.000115843
0.000115843
0.000115844
0.000115844
0.000115844
0.000115844
0.000115844
0.000115843
0.000115843
0.000115844
0.000115844
0.000115844
0.000115844
0.000115844
0.000115844
0.000115845
0.000115845
0.000115846
0.000115847
0.000115848
0.000115849
0.00011585
0.000115852
0.000115854
0.000115856
0.000115857
0.000115859
0.000115861
0.000115862
0.000115864
0.000115865
0.000115866
0.000115867
0.000115868
0.000115869
0.000115869
0.00011587
0.00011587
0.00011587
0.000115871
0.000115871
0.000115871
0.000115871
0.000115871
0.00011587
0.00011587
0.00011587
0.00011587
0.000115869
0.000115869
0.000115868
0.000115868
0.000115867
0.000115866
0.000115866
0.000115865
0.000115864
0.000115862
0.000115861
0.000115859
0.000115857
0.000115855
0.000115852
0.00011585
0.000115847
0.000115844
0.000115841
0.000115839
0.000115837
0.000115835
0.000115833
0.000115831
0.000115829
0.000115827
0.000115826
0.000115825
0.000115824
0.000115823
0.000115822
0.000115822
0.000115821
0.00012547
0.000125468
0.000125468
0.000125469
0.00012547
0.000125471
0.000125472
0.000125473
0.000125474
0.000125475
0.000125476
0.000125476
0.000125477
0.000125478
0.000125479
0.000125479
0.00012548
0.000125481
0.000125482
0.000125482
0.000125483
0.000125484
0.000125485
0.000125485
0.000125486
0.000125487
0.000125487
0.000125488
0.000125489
0.000125489
0.00012549
0.00012549
0.000125491
0.000125491
0.000125492
0.000125492
0.000125493
0.000125493
0.000125493
0.000125493
0.000125494
0.000125494
0.000125494
0.000125494
0.000125494
0.000125494
0.000125494
0.000125494
0.000125494
0.000125494
0.000125494
0.000125494
0.000125495
0.000125495
0.000125495
0.000125496
0.000125497
0.000125498
0.000125499
0.000125501
0.000125502
0.000125504
0.000125506
0.000125508
0.00012551
0.000125511
0.000125513
0.000125515
0.000125516
0.000125517
0.000125518
0.000125519
0.00012552
0.000125521
0.000125521
0.000125522
0.000125522
0.000125522
0.000125522
0.000125522
0.000125522
0.000125522
0.000125522
0.000125522
0.000125521
0.000125521
0.00012552
0.00012552
0.000125519
0.000125519
0.000125518
0.000125517
0.000125517
0.000125516
0.000125515
0.000125513
0.000125512
0.00012551
0.000125508
0.000125506
0.000125503
0.000125501
0.000125498
0.000125496
0.000125493
0.00012549
0.000125487
0.000125485
0.000125482
0.00012548
0.000125478
0.000125477
0.000125475
0.000125474
0.000125472
0.000125471
0.000125471
0.00012547
0.00012547
0.00012547
0.000132917
0.000132914
0.000132914
0.000132914
0.000132915
0.000132916
0.000132918
0.000132919
0.00013292
0.000132921
0.000132922
0.000132923
0.000132924
0.000132925
0.000132925
0.000132926
0.000132927
0.000132928
0.000132929
0.00013293
0.000132931
0.000132932
0.000132932
0.000132933
0.000132934
0.000132935
0.000132935
0.000132936
0.000132937
0.000132937
0.000132938
0.000132939
0.000132939
0.00013294
0.00013294
0.000132941
0.000132941
0.000132941
0.000132942
0.000132942
0.000132942
0.000132943
0.000132943
0.000132943
0.000132943
0.000132943
0.000132943
0.000132943
0.000132943
0.000132943
0.000132943
0.000132943
0.000132943
0.000132944
0.000132944
0.000132945
0.000132946
0.000132947
0.000132949
0.00013295
0.000132952
0.000132954
0.000132956
0.000132958
0.00013296
0.000132962
0.000132964
0.000132965
0.000132967
0.000132968
0.000132969
0.00013297
0.000132971
0.000132971
0.000132972
0.000132972
0.000132972
0.000132972
0.000132972
0.000132972
0.000132972
0.000132972
0.000132971
0.000132971
0.00013297
0.00013297
0.000132969
0.000132969
0.000132968
0.000132967
0.000132967
0.000132966
0.000132965
0.000132964
0.000132962
0.000132961
0.000132959
0.000132957
0.000132955
0.000132953
0.00013295
0.000132947
0.000132945
0.000132942
0.000132939
0.000132936
0.000132933
0.000132931
0.000132928
0.000132926
0.000132924
0.000132923
0.000132921
0.000132919
0.000132918
0.000132917
0.000132917
0.000132916
0.000132916
0.000132916
0.000138552
0.00013855
0.000138548
0.000138549
0.000138549
0.000138551
0.000138552
0.000138554
0.000138555
0.000138556
0.000138557
0.000138558
0.000138559
0.00013856
0.000138561
0.000138562
0.000138563
0.000138564
0.000138565
0.000138566
0.000138567
0.000138568
0.000138569
0.00013857
0.000138571
0.000138572
0.000138572
0.000138573
0.000138574
0.000138575
0.000138575
0.000138576
0.000138576
0.000138577
0.000138578
0.000138578
0.000138578
0.000138579
0.000138579
0.00013858
0.00013858
0.00013858
0.00013858
0.000138581
0.000138581
0.000138581
0.000138581
0.00013858
0.00013858
0.000138581
0.000138581
0.000138581
0.000138581
0.000138582
0.000138582
0.000138583
0.000138585
0.000138586
0.000138588
0.00013859
0.000138592
0.000138594
0.000138596
0.000138598
0.0001386
0.000138602
0.000138603
0.000138605
0.000138606
0.000138607
0.000138608
0.000138609
0.00013861
0.00013861
0.000138611
0.000138611
0.000138611
0.000138611
0.000138611
0.000138611
0.00013861
0.00013861
0.000138609
0.000138609
0.000138608
0.000138608
0.000138607
0.000138606
0.000138605
0.000138605
0.000138604
0.000138603
0.000138602
0.0001386
0.000138599
0.000138597
0.000138595
0.000138593
0.000138591
0.000138588
0.000138585
0.000138583
0.00013858
0.000138577
0.000138574
0.000138571
0.000138568
0.000138565
0.000138563
0.000138561
0.000138559
0.000138557
0.000138556
0.000138555
0.000138553
0.000138553
0.000138552
0.000138552
0.000138551
0.000138552
0.000142705
0.000142702
0.000142701
0.000142701
0.000142702
0.000142703
0.000142705
0.000142706
0.000142708
0.000142709
0.00014271
0.000142712
0.000142713
0.000142714
0.000142715
0.000142716
0.000142717
0.000142718
0.000142719
0.00014272
0.000142721
0.000142722
0.000142723
0.000142724
0.000142725
0.000142726
0.000142727
0.000142728
0.000142729
0.00014273
0.00014273
0.000142731
0.000142732
0.000142732
0.000142733
0.000142733
0.000142734
0.000142734
0.000142735
0.000142735
0.000142735
0.000142736
0.000142736
0.000142736
0.000142736
0.000142736
0.000142736
0.000142736
0.000142736
0.000142736
0.000142736
0.000142737
0.000142737
0.000142738
0.000142738
0.00014274
0.000142741
0.000142743
0.000142745
0.000142747
0.000142749
0.000142751
0.000142753
0.000142755
0.000142757
0.000142759
0.000142761
0.000142762
0.000142763
0.000142765
0.000142765
0.000142766
0.000142767
0.000142767
0.000142767
0.000142767
0.000142767
0.000142767
0.000142767
0.000142767
0.000142766
0.000142766
0.000142765
0.000142764
0.000142764
0.000142763
0.000142762
0.000142761
0.00014276
0.000142759
0.000142758
0.000142757
0.000142756
0.000142755
0.000142753
0.000142751
0.000142749
0.000142746
0.000142744
0.000142741
0.000142738
0.000142735
0.000142732
0.00014273
0.000142727
0.000142724
0.000142721
0.000142718
0.000142716
0.000142714
0.000142712
0.00014271
0.000142709
0.000142708
0.000142707
0.000142706
0.000142705
0.000142705
0.000142705
0.000142706
0.000145641
0.000145638
0.000145637
0.000145636
0.000145637
0.000145638
0.00014564
0.000145641
0.000145643
0.000145645
0.000145646
0.000145647
0.000145649
0.00014565
0.000145651
0.000145652
0.000145654
0.000145655
0.000145656
0.000145657
0.000145658
0.000145659
0.00014566
0.000145661
0.000145663
0.000145663
0.000145664
0.000145665
0.000145666
0.000145667
0.000145668
0.000145669
0.000145669
0.00014567
0.000145671
0.000145671
0.000145672
0.000145672
0.000145673
0.000145673
0.000145673
0.000145674
0.000145674
0.000145674
0.000145675
0.000145675
0.000145674
0.000145674
0.000145674
0.000145674
0.000145675
0.000145675
0.000145675
0.000145676
0.000145677
0.000145679
0.00014568
0.000145682
0.000145685
0.000145687
0.000145689
0.000145691
0.000145693
0.000145695
0.000145697
0.000145699
0.000145701
0.000145702
0.000145703
0.000145704
0.000145705
0.000145706
0.000145706
0.000145706
0.000145706
0.000145706
0.000145706
0.000145706
0.000145706
0.000145705
0.000145704
0.000145704
0.000145703
0.000145702
0.000145701
0.000145701
0.0001457
0.000145699
0.000145698
0.000145696
0.000145695
0.000145694
0.000145693
0.000145691
0.000145689
0.000145687
0.000145685
0.000145682
0.000145679
0.000145676
0.000145673
0.00014567
0.000145668
0.000145665
0.000145662
0.000145659
0.000145656
0.000145653
0.000145651
0.000145649
0.000145647
0.000145646
0.000145645
0.000145643
0.000145643
0.000145642
0.000145641
0.000145641
0.000145641
0.000145643
0.000147568
0.000147566
0.000147564
0.000147564
0.000147565
0.000147566
0.000147567
0.000147569
0.000147571
0.000147572
0.000147574
0.000147575
0.000147577
0.000147578
0.00014758
0.000147581
0.000147582
0.000147584
0.000147585
0.000147586
0.000147587
0.000147589
0.00014759
0.000147591
0.000147592
0.000147593
0.000147594
0.000147595
0.000147596
0.000147597
0.000147598
0.000147598
0.000147599
0.0001476
0.000147601
0.000147601
0.000147602
0.000147602
0.000147603
0.000147603
0.000147604
0.000147604
0.000147604
0.000147605
0.000147605
0.000147605
0.000147605
0.000147605
0.000147605
0.000147605
0.000147605
0.000147605
0.000147606
0.000147607
0.000147609
0.00014761
0.000147612
0.000147615
0.000147617
0.000147619
0.000147622
0.000147624
0.000147626
0.000147628
0.00014763
0.000147631
0.000147633
0.000147634
0.000147635
0.000147636
0.000147636
0.000147637
0.000147637
0.000147637
0.000147637
0.000147637
0.000147637
0.000147636
0.000147636
0.000147635
0.000147635
0.000147634
0.000147633
0.000147632
0.000147631
0.00014763
0.000147629
0.000147628
0.000147627
0.000147625
0.000147624
0.000147623
0.000147621
0.000147619
0.000147617
0.000147615
0.000147612
0.000147609
0.000147606
0.000147603
0.0001476
0.000147597
0.000147595
0.000147592
0.000147589
0.000147586
0.000147583
0.000147581
0.000147579
0.000147577
0.000147575
0.000147574
0.000147573
0.000147572
0.000147571
0.00014757
0.00014757
0.00014757
0.00014757
0.000147572
0.000148654
0.000148652
0.00014865
0.00014865
0.000148651
0.000148652
0.000148653
0.000148655
0.000148656
0.000148658
0.00014866
0.000148661
0.000148663
0.000148665
0.000148666
0.000148668
0.000148669
0.00014867
0.000148672
0.000148673
0.000148674
0.000148676
0.000148677
0.000148678
0.000148679
0.00014868
0.000148682
0.000148683
0.000148684
0.000148685
0.000148685
0.000148686
0.000148687
0.000148688
0.000148689
0.000148689
0.00014869
0.00014869
0.000148691
0.000148691
0.000148692
0.000148692
0.000148692
0.000148693
0.000148693
0.000148694
0.000148693
0.000148693
0.000148693
0.000148694
0.000148694
0.000148694
0.000148695
0.000148696
0.000148698
0.0001487
0.000148702
0.000148705
0.000148707
0.00014871
0.000148712
0.000148714
0.000148716
0.000148718
0.00014872
0.000148721
0.000148723
0.000148724
0.000148724
0.000148725
0.000148726
0.000148726
0.000148726
0.000148726
0.000148726
0.000148726
0.000148725
0.000148725
0.000148724
0.000148723
0.000148722
0.000148721
0.00014872
0.000148719
0.000148718
0.000148717
0.000148716
0.000148715
0.000148713
0.000148712
0.000148711
0.000148709
0.000148707
0.000148705
0.000148703
0.0001487
0.000148697
0.000148694
0.000148691
0.000148688
0.000148685
0.000148682
0.000148679
0.000148677
0.000148674
0.000148671
0.000148669
0.000148666
0.000148664
0.000148662
0.000148661
0.00014866
0.000148659
0.000148658
0.000148657
0.000148657
0.000148657
0.000148657
0.000148657
0.000148659
0.00014903
0.000149027
0.000149026
0.000149026
0.000149026
0.000149027
0.000149029
0.00014903
0.000149032
0.000149034
0.000149035
0.000149037
0.000149039
0.000149041
0.000149042
0.000149044
0.000149045
0.000149047
0.000149048
0.00014905
0.000149051
0.000149052
0.000149054
0.000149055
0.000149056
0.000149057
0.000149059
0.00014906
0.000149061
0.000149062
0.000149063
0.000149064
0.000149064
0.000149065
0.000149066
0.000149067
0.000149067
0.000149068
0.000149068
0.000149069
0.000149069
0.00014907
0.00014907
0.000149071
0.000149071
0.000149071
0.000149071
0.000149071
0.000149072
0.000149072
0.000149072
0.000149073
0.000149074
0.000149075
0.000149077
0.00014908
0.000149082
0.000149085
0.000149087
0.00014909
0.000149092
0.000149094
0.000149096
0.000149098
0.000149099
0.000149101
0.000149102
0.000149102
0.000149103
0.000149104
0.000149104
0.000149104
0.000149104
0.000149104
0.000149104
0.000149103
0.000149102
0.000149102
0.000149101
0.0001491
0.000149099
0.000149098
0.000149097
0.000149096
0.000149094
0.000149093
0.000149092
0.00014909
0.000149089
0.000149088
0.000149086
0.000149084
0.000149082
0.00014908
0.000149077
0.000149074
0.000149071
0.000149068
0.000149065
0.000149062
0.000149059
0.000149056
0.000149053
0.000149051
0.000149048
0.000149046
0.000149043
0.000149041
0.000149039
0.000149038
0.000149036
0.000149035
0.000149035
0.000149034
0.000149034
0.000149033
0.000149033
0.000149034
0.000149034
0.000149036
0.0001488
0.000148798
0.000148797
0.000148796
0.000148797
0.000148798
0.000148799
0.000148801
0.000148803
0.000148804
0.000148806
0.000148808
0.00014881
0.000148811
0.000148813
0.000148815
0.000148816
0.000148818
0.00014882
0.000148821
0.000148823
0.000148824
0.000148825
0.000148827
0.000148828
0.000148829
0.000148831
0.000148832
0.000148833
0.000148834
0.000148835
0.000148836
0.000148837
0.000148838
0.000148838
0.000148839
0.00014884
0.00014884
0.000148841
0.000148842
0.000148842
0.000148843
0.000148843
0.000148843
0.000148844
0.000148844
0.000148844
0.000148844
0.000148844
0.000148845
0.000148845
0.000148846
0.000148847
0.000148849
0.000148852
0.000148854
0.000148857
0.00014886
0.000148862
0.000148865
0.000148867
0.000148869
0.00014887
0.000148872
0.000148873
0.000148874
0.000148875
0.000148876
0.000148876
0.000148877
0.000148877
0.000148877
0.000148876
0.000148876
0.000148875
0.000148875
0.000148874
0.000148873
0.000148872
0.000148871
0.00014887
0.000148869
0.000148868
0.000148866
0.000148865
0.000148864
0.000148862
0.000148861
0.000148859
0.000148857
0.000148856
0.000148854
0.000148851
0.000148849
0.000148846
0.000148843
0.000148839
0.000148836
0.000148833
0.00014883
0.000148827
0.000148824
0.000148822
0.00014882
0.000148817
0.000148815
0.000148813
0.000148811
0.000148809
0.000148808
0.000148807
0.000148806
0.000148805
0.000148805
0.000148805
0.000148805
0.000148805
0.000148805
0.000148805
0.000148809
0.000148051
0.000148048
0.000148047
0.000148048
0.000148048
0.000148049
0.00014805
0.000148052
0.000148054
0.000148055
0.000148057
0.000148059
0.000148061
0.000148063
0.000148064
0.000148066
0.000148068
0.00014807
0.000148071
0.000148073
0.000148074
0.000148076
0.000148077
0.000148079
0.00014808
0.000148081
0.000148083
0.000148084
0.000148085
0.000148086
0.000148087
0.000148088
0.000148089
0.00014809
0.000148091
0.000148092
0.000148092
0.000148093
0.000148094
0.000148094
0.000148095
0.000148095
0.000148096
0.000148096
0.000148097
0.000148097
0.000148098
0.000148098
0.000148098
0.000148098
0.000148099
0.0001481
0.000148102
0.000148104
0.000148107
0.000148109
0.000148112
0.000148115
0.000148117
0.000148119
0.000148121
0.000148123
0.000148125
0.000148126
0.000148127