/*--------------------------------*- C++ -*----------------------------------*\
  =========                 |
  \\      /  F ield         | OpenFOAM: The Open Source CFD Toolbox
   \\    /   O peration     | Website:  https://openfoam.org
    \\  /    A nd           | Version:  7
     \\/     M anipulation  |
\*---------------------------------------------------------------------------*/
FoamFile
{
    version     2.0;
    format      ascii;
    class       volScalarField;
    location    "1000";
    object      omega;
}
// * * * * * * * * * * * * * * * * * * * * * * * * * * * * * * * * * * * * * //

dimensions      [0 0 -1 0 0 0 0];

internalField   nonuniform List<scalar> 
24000
(
999.269
999.269
999.269
999.269
999.269
999.269
999.269
999.269
999.269
999.269
999.269
999.269
999.269
999.269
999.269
999.269
999.269
999.269
999.269
999.269
999.269
999.269
999.269
999.269
999.269
999.269
999.269
999.269
999.269
999.269
999.269
999.269
999.269
999.269
999.269
999.269
999.269
999.269
999.269
999.269
999.269
999.269
999.269
999.269
999.269
999.269
999.269
999.269
999.269
999.269
999.269
999.269
999.269
999.269
999.269
999.269
999.269
999.269
999.269
999.269
999.269
999.269
999.269
999.269
999.269
999.269
999.269
999.269
999.269
999.269
999.269
999.269
999.269
999.269
999.269
999.269
999.269
999.269
999.269
999.269
999.269
999.269
999.269
999.269
999.269
999.269
999.269
999.269
999.269
999.269
999.269
999.269
999.269
999.269
999.269
999.269
999.269
999.269
999.269
999.269
999.269
999.269
999.269
999.269
999.269
999.269
999.269
999.269
999.269
999.269
999.269
999.269
999.269
999.269
999.269
999.269
999.269
999.269
999.269
999.269
173.191
173.191
173.191
173.191
173.191
173.191
173.191
173.191
173.191
173.191
173.191
173.191
173.191
173.191
173.191
173.191
173.191
173.191
173.191
173.191
173.191
173.191
173.191
173.191
173.191
173.191
173.191
173.191
173.191
173.191
173.191
173.191
173.191
173.191
173.191
173.191
173.191
173.191
173.191
173.191
173.191
173.191
173.191
173.191
173.191
173.191
173.191
173.191
173.191
173.191
173.191
173.191
173.191
173.191
173.191
173.191
173.191
173.191
173.191
173.191
173.191
173.191
173.191
173.191
173.191
173.191
173.191
173.191
173.191
173.191
173.191
173.191
173.191
173.191
173.191
173.191
173.191
173.191
173.191
173.191
173.191
173.191
173.191
173.191
173.191
173.191
173.191
173.191
173.191
173.191
173.191
173.191
173.191
173.191
173.191
173.191
173.191
173.191
173.191
173.191
173.191
173.191
173.191
173.191
173.191
173.191
173.191
173.191
173.191
173.191
173.191
173.191
173.191
173.191
173.191
173.191
173.191
173.191
173.191
173.191
58.8495
58.8493
58.8493
58.8493
58.8494
58.8494
58.8495
58.8495
58.8495
58.8495
58.8495
58.8495
58.8495
58.8495
58.8495
58.8495
58.8495
58.8495
58.8495
58.8495
58.8495
58.8495
58.8495
58.8495
58.8495
58.8495
58.8495
58.8495
58.8495
58.8495
58.8495
58.8495
58.8495
58.8495
58.8495
58.8495
58.8495
58.8495
58.8495
58.8495
58.8495
58.8495
58.8495
58.8495
58.8495
58.8495
58.8495
58.8495
58.8495
58.8495
58.8495
58.8495
58.8495
58.8495
58.8495
58.8495
58.8495
58.8495
58.8495
58.8495
58.8495
58.8495
58.8495
58.8495
58.8495
58.8495
58.8495
58.8495
58.8495
58.8495
58.8495
58.8495
58.8496
58.8496
58.8496
58.8496
58.8496
58.8496
58.8496
58.8496
58.8496
58.8496
58.8496
58.8496
58.8496
58.8496
58.8496
58.8496
58.8496
58.8496
58.8496
58.8497
58.8497
58.8497
58.8497
58.8497
58.8497
58.8497
58.8497
58.8497
58.8497
58.8497
58.8497
58.8497
58.8496
58.8496
58.8496
58.8496
58.8496
58.8496
58.8496
58.8496
58.8496
58.8496
58.8496
58.8496
58.8496
58.8495
58.8495
58.8495
28.4944
28.494
28.4938
28.4939
28.4939
28.494
28.494
28.494
28.494
28.4941
28.4941
28.4941
28.4941
28.4941
28.4941
28.4941
28.4941
28.4941
28.4941
28.4941
28.4941
28.4941
28.4941
28.4941
28.4941
28.4941
28.4941
28.4941
28.494
28.494
28.494
28.494
28.494
28.494
28.494
28.494
28.494
28.494
28.494
28.494
28.4941
28.4941
28.4941
28.4941
28.4941
28.4941
28.4941
28.494
28.494
28.494
28.494
28.494
28.494
28.494
28.494
28.494
28.494
28.494
28.494
28.494
28.494
28.4941
28.4941
28.4941
28.4941
28.4941
28.4941
28.4941
28.4941
28.4941
28.4941
28.4941
28.4941
28.4942
28.4942
28.4942
28.4942
28.4942
28.4942
28.4942
28.4942
28.4942
28.4943
28.4943
28.4943
28.4943
28.4943
28.4943
28.4943
28.4943
28.4943
28.4943
28.4943
28.4943
28.4943
28.4943
28.4943
28.4943
28.4944
28.4944
28.4943
28.4943
28.4943
28.4943
28.4943
28.4943
28.4942
28.4942
28.4942
28.4942
28.4942
28.4942
28.4942
28.4942
28.4941
28.4941
28.4941
28.4941
28.4941
28.4942
17.1819
17.1816
17.1813
17.1812
17.1812
17.1812
17.1813
17.1813
17.1813
17.1813
17.1814
17.1814
17.1814
17.1814
17.1814
17.1814
17.1814
17.1814
17.1814
17.1814
17.1814
17.1814
17.1814
17.1814
17.1813
17.1813
17.1813
17.1813
17.1813
17.1813
17.1813
17.1813
17.1813
17.1813
17.1813
17.1813
17.1813
17.1813
17.1813
17.1813
17.1813
17.1813
17.1813
17.1814
17.1814
17.1814
17.1814
17.1813
17.1813
17.1813
17.1813
17.1813
17.1813
17.1813
17.1813
17.1813
17.1813
17.1813
17.1813
17.1813
17.1813
17.1813
17.1813
17.1813
17.1814
17.1814
17.1814
17.1814
17.1814
17.1814
17.1814
17.1814
17.1814
17.1815
17.1815
17.1815
17.1815
17.1815
17.1815
17.1815
17.1816
17.1816
17.1816
17.1816
17.1816
17.1816
17.1816
17.1816
17.1816
17.1816
17.1816
17.1817
17.1817
17.1817
17.1817
17.1817
17.1817
17.1817
17.1817
17.1817
17.1817
17.1817
17.1817
17.1817
17.1817
17.1816
17.1816
17.1816
17.1815
17.1815
17.1815
17.1815
17.1815
17.1814
17.1814
17.1814
17.1814
17.1814
17.1814
17.1815
11.9531
11.9528
11.9524
11.9523
11.9522
11.9522
11.9522
11.9523
11.9523
11.9523
11.9523
11.9523
11.9523
11.9523
11.9523
11.9523
11.9523
11.9523
11.9523
11.9523
11.9523
11.9523
11.9523
11.9523
11.9523
11.9523
11.9523
11.9523
11.9523
11.9523
11.9523
11.9523
11.9523
11.9523
11.9523
11.9523
11.9523
11.9523
11.9523
11.9523
11.9523
11.9523
11.9523
11.9523
11.9523
11.9523
11.9523
11.9523
11.9523
11.9523
11.9523
11.9522
11.9522
11.9522
11.9522
11.9522
11.9523
11.9523
11.9523
11.9523
11.9523
11.9523
11.9523
11.9523
11.9523
11.9523
11.9523
11.9523
11.9523
11.9524
11.9524
11.9524
11.9524
11.9524
11.9524
11.9524
11.9524
11.9525
11.9525
11.9525
11.9525
11.9525
11.9525
11.9525
11.9525
11.9526
11.9526
11.9526
11.9526
11.9526
11.9526
11.9526
11.9526
11.9526
11.9526
11.9526
11.9526
11.9526
11.9526
11.9526
11.9526
11.9526
11.9526
11.9526
11.9527
11.9526
11.9526
11.9525
11.9525
11.9525
11.9524
11.9524
11.9524
11.9524
11.9524
11.9524
11.9524
11.9524
11.9524
11.9525
9.07491
9.07473
9.07441
9.07421
9.07411
9.07407
9.07406
9.07407
9.07408
9.0741
9.07411
9.07412
9.07413
9.07414
9.07414
9.07415
9.07415
9.07415
9.07414
9.07414
9.07414
9.07413
9.07413
9.07412
9.07412
9.07411
9.07411
9.0741
9.0741
9.07409
9.07408
9.07408
9.07407
9.07407
9.07406
9.07406
9.07405
9.07405
9.07405
9.07404
9.07404
9.07404
9.07405
9.07406
9.07409
9.07412
9.07411
9.07409
9.07407
9.07406
9.07404
9.07403
9.07402
9.07402
9.07402
9.07402
9.07402
9.07403
9.07403
9.07404
9.07405
9.07405
9.07406
9.07406
9.07407
9.07408
9.07408
9.07409
9.0741
9.0741
9.07411
9.07412
9.07413
9.07414
9.07415
9.07415
9.07416
9.07417
9.07418
9.0742
9.07421
9.07422
9.07423
9.07424
9.07426
9.07427
9.07428
9.07429
9.0743
9.0743
9.07431
9.07431
9.07432
9.07433
9.07433
9.07434
9.07434
9.07435
9.07435
9.07435
9.07435
9.07435
9.07436
9.07437
9.07439
9.07438
9.07434
9.07429
9.07426
9.07423
9.07421
9.07419
9.07418
9.07416
9.07415
9.07414
9.07413
9.07414
9.07413
9.07422
7.24907
7.24899
7.24874
7.24853
7.24841
7.24834
7.24831
7.2483
7.2483
7.24831
7.24831
7.24832
7.24833
7.24834
7.24834
7.24835
7.24835
7.24835
7.24835
7.24834
7.24834
7.24834
7.24833
7.24833
7.24832
7.24831
7.24831
7.2483
7.2483
7.24829
7.24828
7.24828
7.24827
7.24826
7.24826
7.24825
7.24824
7.24824
7.24823
7.24823
7.24822
7.24822
7.24823
7.24823
7.24826
7.24829
7.24829
7.24828
7.24826
7.24825
7.24823
7.24822
7.24821
7.2482
7.2482
7.2482
7.2482
7.24821
7.24821
7.24822
7.24822
7.24823
7.24823
7.24824
7.24824
7.24825
7.24825
7.24826
7.24826
7.24826
7.24827
7.24827
7.24827
7.24828
7.24828
7.24829
7.24829
7.2483
7.24831
7.24832
7.24832
7.24833
7.24834
7.24835
7.24836
7.24838
7.24839
7.2484
7.2484
7.24841
7.24841
7.24842
7.24842
7.24843
7.24843
7.24844
7.24844
7.24845
7.24845
7.24845
7.24845
7.24846
7.24846
7.24848
7.24851
7.24851
7.24848
7.24845
7.24842
7.24839
7.24837
7.24835
7.24834
7.24833
7.24831
7.24831
7.24829
7.24831
7.2483
7.24836
5.97437
5.97436
5.97417
5.974
5.97387
5.97379
5.97374
5.97372
5.97371
5.97371
5.97371
5.97371
5.97372
5.97372
5.97373
5.97373
5.97373
5.97373
5.97373
5.97373
5.97373
5.97372
5.97372
5.97372
5.97371
5.9737
5.9737
5.97369
5.97368
5.97368
5.97367
5.97366
5.97365
5.97365
5.97364
5.97363
5.97363
5.97362
5.97361
5.97361
5.9736
5.9736
5.9736
5.9736
5.97362
5.97365
5.97366
5.97365
5.97364
5.97363
5.97361
5.9736
5.97359
5.97358
5.97358
5.97358
5.97358
5.97358
5.97359
5.97359
5.9736
5.9736
5.97361
5.97361
5.97361
5.97362
5.97362
5.97362
5.97362
5.97362
5.97362
5.97362
5.97362
5.97362
5.97363
5.97363
5.97363
5.97363
5.97364
5.97364
5.97365
5.97365
5.97366
5.97367
5.97368
5.97369
5.9737
5.97371
5.97371
5.97372
5.97372
5.97372
5.97373
5.97373
5.97374
5.97374
5.97375
5.97375
5.97375
5.97375
5.97376
5.97376
5.97377
5.97379
5.97381
5.97382
5.97381
5.97378
5.97376
5.97374
5.97372
5.9737
5.97369
5.97368
5.97367
5.97366
5.97365
5.97366
5.97366
5.97369
5.03189
5.03192
5.0318
5.03166
5.03155
5.03147
5.03141
5.03138
5.03136
5.03135
5.03135
5.03135
5.03135
5.03135
5.03136
5.03136
5.03136
5.03136
5.03136
5.03136
5.03136
5.03135
5.03135
5.03135
5.03134
5.03134
5.03133
5.03132
5.03132
5.03131
5.0313
5.03129
5.03129
5.03128
5.03127
5.03126
5.03126
5.03125
5.03124
5.03123
5.03123
5.03122
5.03122
5.03122
5.03124
5.03126
5.03127
5.03127
5.03126
5.03125
5.03124
5.03123
5.03122
5.03121
5.03121
5.0312
5.0312
5.03121
5.03121
5.03122
5.03122
5.03123
5.03123
5.03123
5.03124
5.03124
5.03124
5.03124
5.03124
5.03124
5.03124
5.03124
5.03123
5.03123
5.03123
5.03123
5.03123
5.03123
5.03123
5.03124
5.03124
5.03124
5.03125
5.03125
5.03126
5.03127
5.03127
5.03128
5.03129
5.03129
5.0313
5.0313
5.0313
5.03131
5.03131
5.03131
5.03132
5.03132
5.03132
5.03132
5.03132
5.03133
5.03133
5.03135
5.03138
5.03139
5.03138
5.03136
5.03135
5.03133
5.03131
5.0313
5.03129
5.03128
5.03127
5.03126
5.03125
5.03126
5.03126
5.03127
4.30964
4.30969
4.3096
4.3095
4.30941
4.30933
4.30928
4.30924
4.30922
4.3092
4.3092
4.30919
4.30919
4.30919
4.30919
4.3092
4.3092
4.3092
4.3092
4.3092
4.3092
4.30919
4.30919
4.30919
4.30918
4.30918
4.30917
4.30917
4.30916
4.30915
4.30915
4.30914
4.30913
4.30912
4.30912
4.30911
4.3091
4.30909
4.30908
4.30908
4.30907
4.30906
4.30906
4.30906
4.30907
4.30909
4.3091
4.3091
4.3091
4.30909
4.30908
4.30907
4.30906
4.30905
4.30905
4.30905
4.30905
4.30905
4.30905
4.30906
4.30906
4.30907
4.30907
4.30907
4.30908
4.30908
4.30908
4.30908
4.30908
4.30908
4.30907
4.30907
4.30907
4.30907
4.30906
4.30906
4.30906
4.30906
4.30906
4.30906
4.30906
4.30906
4.30906
4.30907
4.30907
4.30908
4.30908
4.30909
4.30909
4.3091
4.3091
4.3091
4.30911
4.30911
4.30911
4.30911
4.30912
4.30912
4.30912
4.30912
4.30912
4.30912
4.30913
4.30914
4.30916
4.30917
4.30917
4.30916
4.30915
4.30914
4.30912
4.30911
4.3091
4.30909
4.30908
4.30908
4.30907
4.30907
4.30908
4.30907
3.74184
3.74189
3.74184
3.74176
3.74169
3.74163
3.74158
3.74154
3.74152
3.7415
3.74149
3.74148
3.74148
3.74148
3.74148
3.74148
3.74148
3.74148
3.74148
3.74148
3.74148
3.74148
3.74148
3.74147
3.74147
3.74146
3.74146
3.74145
3.74145
3.74144
3.74144
3.74143
3.74142
3.74142
3.74141
3.7414
3.74139
3.74139
3.74138
3.74137
3.74136
3.74136
3.74135
3.74135
3.74136
3.74137
3.74138
3.74138
3.74138
3.74138
3.74137
3.74136
3.74135
3.74134
3.74134
3.74134
3.74134
3.74134
3.74134
3.74135
3.74135
3.74136
3.74136
3.74137
3.74137
3.74137
3.74137
3.74137
3.74137
3.74137
3.74137
3.74136
3.74136
3.74136
3.74135
3.74135
3.74135
3.74134
3.74134
3.74134
3.74134
3.74134
3.74134
3.74134
3.74134
3.74135
3.74135
3.74136
3.74136
3.74136
3.74136
3.74137
3.74137
3.74137
3.74137
3.74137
3.74138
3.74138
3.74138
3.74138
3.74137
3.74138
3.74138
3.74139
3.74141
3.74142
3.74142
3.74142
3.74141
3.7414
3.74139
3.74138
3.74137
3.74136
3.74135
3.74135
3.74134
3.74134
3.74135
3.74132
3.28627
3.28633
3.28629
3.28624
3.28618
3.28613
3.28609
3.28606
3.28603
3.28602
3.286
3.286
3.28599
3.28599
3.28599
3.28599
3.28599
3.28599
3.28599
3.28599
3.28598
3.28598
3.28598
3.28598
3.28598
3.28597
3.28597
3.28596
3.28596
3.28595
3.28595
3.28594
3.28594
3.28593
3.28592
3.28592
3.28591
3.2859
3.28589
3.28589
3.28588
3.28587
3.28587
3.28587
3.28587
3.28588
3.28589
3.28589
3.28589
3.28588
3.28588
3.28587
3.28586
3.28586
3.28585
3.28585
3.28585
3.28585
3.28586
3.28586
3.28587
3.28587
3.28588
3.28588
3.28588
3.28589
3.28589
3.28589
3.28589
3.28588
3.28588
3.28588
3.28588
3.28587
3.28587
3.28586
3.28586
3.28586
3.28585
3.28585
3.28585
3.28585
3.28585
3.28585
3.28585
3.28585
3.28585
3.28585
3.28586
3.28586
3.28586
3.28586
3.28586
3.28587
3.28587
3.28587
3.28587
3.28587
3.28587
3.28587
3.28586
3.28587
3.28587
3.28588
3.2859
3.2859
3.2859
3.2859
3.2859
3.28589
3.28588
3.28587
3.28586
3.28586
3.28585
3.28584
3.28584
3.28583
3.28584
3.28581
2.91435
2.9144
2.91437
2.91433
2.91429
2.91425
2.91421
2.91419
2.91417
2.91415
2.91414
2.91413
2.91412
2.91412
2.91412
2.91412
2.91412
2.91412
2.91412
2.91411
2.91411
2.91411
2.91411
2.91411
2.91411
2.91411
2.9141
2.9141
2.91409
2.91409
2.91408
2.91408
2.91407
2.91407
2.91406
2.91405
2.91405
2.91404
2.91403
2.91403
2.91402
2.91401
2.91401
2.91401
2.91401
2.91402
2.91402
2.91402
2.91402
2.91402
2.91401
2.91401
2.914
2.914
2.91399
2.91399
2.91399
2.914
2.914
2.914
2.91401
2.91401
2.91402
2.91402
2.91403
2.91403
2.91403
2.91403
2.91403
2.91403
2.91403
2.91402
2.91402
2.91402
2.91401
2.91401
2.914
2.914
2.914
2.91399
2.91399
2.91399
2.91398
2.91398
2.91398
2.91398
2.91398
2.91398
2.91399
2.91399
2.91399
2.91399
2.91399
2.91399
2.91399
2.91399
2.91399
2.91399
2.91399
2.91399
2.91399
2.91399
2.91399
2.914
2.91401
2.91402
2.91402
2.91402
2.91401
2.91401
2.914
2.91399
2.91399
2.91398
2.91397
2.91397
2.91396
2.91396
2.91397
2.91393
2.60601
2.60607
2.60605
2.60601
2.60598
2.60594
2.60592
2.6059
2.60588
2.60586
2.60585
2.60584
2.60584
2.60583
2.60583
2.60583
2.60583
2.60583
2.60583
2.60583
2.60583
2.60583
2.60583
2.60583
2.60582
2.60582
2.60582
2.60582
2.60581
2.60581
2.6058
2.6058
2.60579
2.60579
2.60578
2.60578
2.60577
2.60576
2.60576
2.60575
2.60574
2.60574
2.60573
2.60573
2.60573
2.60574
2.60574
2.60574
2.60574
2.60574
2.60573
2.60573
2.60572
2.60572
2.60572
2.60572
2.60572
2.60572
2.60573
2.60573
2.60574
2.60574
2.60575
2.60575
2.60575
2.60576
2.60576
2.60576
2.60576
2.60576
2.60575
2.60575
2.60575
2.60575
2.60574
2.60574
2.60573
2.60573
2.60572
2.60572
2.60572
2.60571
2.60571
2.60571
2.6057
2.6057
2.6057
2.6057
2.60571
2.60571
2.60571
2.60571
2.60571
2.60571
2.60571
2.60571
2.60571
2.6057
2.6057
2.6057
2.6057
2.6057
2.6057
2.60571
2.60572
2.60572
2.60572
2.60572
2.60572
2.60571
2.60571
2.6057
2.6057
2.60569
2.60569
2.60568
2.60568
2.60567
2.60568
2.60565
2.34688
2.34693
2.34692
2.34689
2.34686
2.34683
2.34681
2.34679
2.34678
2.34677
2.34676
2.34675
2.34674
2.34674
2.34674
2.34673
2.34673
2.34673
2.34673
2.34673
2.34673
2.34673
2.34673
2.34673
2.34673
2.34673
2.34673
2.34672
2.34672
2.34672
2.34671
2.34671
2.34671
2.3467
2.3467
2.34669
2.34668
2.34668
2.34667
2.34667
2.34666
2.34665
2.34665
2.34665
2.34665
2.34665
2.34665
2.34665
2.34665
2.34665
2.34664
2.34664
2.34664
2.34663
2.34663
2.34664
2.34664
2.34664
2.34665
2.34665
2.34666
2.34666
2.34667
2.34667
2.34667
2.34668
2.34668
2.34668
2.34668
2.34668
2.34668
2.34667
2.34667
2.34667
2.34666
2.34666
2.34666
2.34665
2.34665
2.34664
2.34664
2.34663
2.34663
2.34663
2.34662
2.34662
2.34662
2.34662
2.34662
2.34662
2.34662
2.34662
2.34662
2.34662
2.34662
2.34662
2.34661
2.34661
2.34661
2.34661
2.3466
2.3466
2.3466
2.34661
2.34662
2.34662
2.34663
2.34662
2.34662
2.34662
2.34662
2.34661
2.34661
2.3466
2.3466
2.34659
2.34659
2.34658
2.34659
2.34655
2.12641
2.12645
2.12644
2.12641
2.12639
2.12637
2.12635
2.12633
2.12632
2.12631
2.1263
2.1263
2.12629
2.12629
2.12629
2.12628
2.12628
2.12628
2.12628
2.12628
2.12628
2.12628
2.12628
2.12628
2.12628
2.12628
2.12628
2.12628
2.12628
2.12627
2.12627
2.12627
2.12626
2.12626
2.12625
2.12625
2.12624
2.12624
2.12623
2.12623
2.12622
2.12622
2.12621
2.12621
2.12621
2.12621
2.12621
2.12621
2.12621
2.12621
2.1262
2.1262
2.1262
2.1262
2.1262
2.1262
2.1262
2.12621
2.12621
2.12622
2.12623
2.12623
2.12623
2.12624
2.12624
2.12624
2.12624
2.12625
2.12625
2.12624
2.12624
2.12624
2.12624
2.12624
2.12623
2.12623
2.12622
2.12622
2.12621
2.12621
2.1262
2.1262
2.1262
2.12619
2.12619
2.12619
2.12618
2.12618
2.12618
2.12618
2.12618
2.12618
2.12618
2.12618
2.12618
2.12617
2.12617
2.12617
2.12617
2.12616
2.12616
2.12616
2.12616
2.12616
2.12617
2.12618
2.12618
2.12618
2.12618
2.12617
2.12617
2.12617
2.12616
2.12616
2.12616
2.12615
2.12615
2.12614
2.12615
2.12611
1.93672
1.93676
1.93675
1.93673
1.9367
1.93669
1.93667
1.93666
1.93665
1.93664
1.93663
1.93663
1.93662
1.93662
1.93662
1.93662
1.93662
1.93662
1.93662
1.93662
1.93662
1.93662
1.93662
1.93662
1.93662
1.93662
1.93662
1.93662
1.93661
1.93661
1.93661
1.93661
1.9366
1.9366
1.9366
1.93659
1.93659
1.93658
1.93658
1.93657
1.93657
1.93656
1.93656
1.93655
1.93656
1.93656
1.93656
1.93656
1.93656
1.93655
1.93655
1.93655
1.93655
1.93655
1.93655
1.93655
1.93656
1.93656
1.93657
1.93657
1.93658
1.93658
1.93659
1.93659
1.93659
1.9366
1.9366
1.9366
1.9366
1.9366
1.9366
1.93659
1.93659
1.93659
1.93658
1.93658
1.93658
1.93657
1.93657
1.93656
1.93656
1.93655
1.93655
1.93654
1.93654
1.93654
1.93653
1.93653
1.93653
1.93653
1.93653
1.93653
1.93652
1.93652
1.93652
1.93652
1.93651
1.93651
1.93651
1.9365
1.9365
1.9365
1.9365
1.93651
1.93651
1.93652
1.93652
1.93652
1.93652
1.93651
1.93651
1.93651
1.93651
1.93651
1.9365
1.9365
1.93649
1.93649
1.9365
1.93646
1.77187
1.7719
1.77189
1.77187
1.77186
1.77184
1.77183
1.77182
1.77181
1.7718
1.7718
1.77179
1.77179
1.77179
1.77179
1.77178
1.77178
1.77178
1.77179
1.77179
1.77179
1.77179
1.77179
1.77179
1.77179
1.77179
1.77179
1.77179
1.77179
1.77178
1.77178
1.77178
1.77178
1.77177
1.77177
1.77177
1.77176
1.77176
1.77175
1.77175
1.77174
1.77174
1.77174
1.77173
1.77173
1.77174
1.77174
1.77174
1.77173
1.77173
1.77173
1.77173
1.77173
1.77173
1.77173
1.77174
1.77174
1.77175
1.77175
1.77176
1.77176
1.77177
1.77177
1.77178
1.77178
1.77178
1.77178
1.77178
1.77178
1.77178
1.77178
1.77178
1.77178
1.77177
1.77177
1.77177
1.77176
1.77176
1.77175
1.77175
1.77174
1.77174
1.77173
1.77173
1.77172
1.77172
1.77172
1.77171
1.77171
1.77171
1.77171
1.77171
1.7717
1.7717
1.7717
1.77169
1.77169
1.77169
1.77168
1.77168
1.77168
1.77168
1.77168
1.77168
1.77169
1.77169
1.77169
1.77169
1.77169
1.77169
1.77169
1.77169
1.77169
1.77168
1.77168
1.77168
1.77168
1.77167
1.77168
1.77164
1.62729
1.62732
1.62731
1.62729
1.62727
1.62726
1.62725
1.62724
1.62723
1.62723
1.62722
1.62722
1.62722
1.62722
1.62721
1.62721
1.62721
1.62721
1.62722
1.62722
1.62722
1.62722
1.62722
1.62722
1.62722
1.62722
1.62722
1.62722
1.62722
1.62722
1.62722
1.62722
1.62721
1.62721
1.62721
1.62721
1.6272
1.6272
1.62719
1.62719
1.62719
1.62718
1.62718
1.62718
1.62718
1.62718
1.62718
1.62718
1.62718
1.62717
1.62717
1.62717
1.62717
1.62718
1.62718
1.62719
1.62719
1.6272
1.6272
1.62721
1.62721
1.62722
1.62722
1.62722
1.62723
1.62723
1.62723
1.62723
1.62723
1.62723
1.62723
1.62722
1.62722
1.62722
1.62722
1.62721
1.62721
1.6272
1.6272
1.62719
1.62719
1.62718
1.62718
1.62717
1.62717
1.62717
1.62716
1.62716
1.62716
1.62715
1.62715
1.62715
1.62714
1.62714
1.62714
1.62713
1.62713
1.62712
1.62712
1.62712
1.62712
1.62712
1.62712
1.62712
1.62713
1.62713
1.62713
1.62713
1.62713
1.62713
1.62713
1.62713
1.62713
1.62713
1.62713
1.62712
1.62712
1.62712
1.62712
1.62709
1.49942
1.49944
1.49943
1.49942
1.49941
1.49939
1.49938
1.49937
1.49937
1.49936
1.49936
1.49936
1.49935
1.49935
1.49935
1.49935
1.49935
1.49935
1.49936
1.49936
1.49936
1.49936
1.49936
1.49936
1.49936
1.49936
1.49936
1.49936
1.49936
1.49936
1.49936
1.49936
1.49936
1.49936
1.49936
1.49935
1.49935
1.49935
1.49934
1.49934
1.49934
1.49933
1.49933
1.49933
1.49933
1.49933
1.49933
1.49933
1.49933
1.49933
1.49933
1.49933
1.49933
1.49933
1.49934
1.49935
1.49935
1.49936
1.49936
1.49937
1.49937
1.49938
1.49938
1.49938
1.49938
1.49939
1.49939
1.49939
1.49939
1.49938
1.49938
1.49938
1.49938
1.49938
1.49937
1.49937
1.49937
1.49936
1.49936
1.49935
1.49935
1.49934
1.49934
1.49933
1.49933
1.49932
1.49932
1.49931
1.49931
1.49931
1.4993
1.4993
1.4993
1.49929
1.49929
1.49928
1.49928
1.49927
1.49927
1.49927
1.49926
1.49926
1.49927
1.49927
1.49928
1.49928
1.49928
1.49928
1.49928
1.49929
1.49929
1.49929
1.49929
1.49929
1.49928
1.49928
1.49928
1.49928
1.49928
1.49925
1.38546
1.38548
1.38548
1.38546
1.38545
1.38544
1.38543
1.38542
1.38542
1.38541
1.38541
1.38541
1.38541
1.38541
1.38541
1.38541
1.38541
1.38541
1.38541
1.38541
1.38541
1.38542
1.38542
1.38542
1.38542
1.38542
1.38542
1.38542
1.38542
1.38542
1.38542
1.38542
1.38542
1.38542
1.38542
1.38542
1.38541
1.38541
1.38541
1.38541
1.3854
1.3854
1.3854
1.3854
1.3854
1.3854
1.3854
1.3854
1.3854
1.3854
1.3854
1.3854
1.3854
1.38541
1.38542
1.38542
1.38543
1.38543
1.38544
1.38544
1.38545
1.38545
1.38545
1.38545
1.38545
1.38546
1.38546
1.38546
1.38545
1.38545
1.38545
1.38545
1.38545
1.38544
1.38544
1.38544
1.38543
1.38543
1.38542
1.38542
1.38541
1.38541
1.3854
1.3854
1.38539
1.38539
1.38539
1.38538
1.38538
1.38537
1.38537
1.38537
1.38536
1.38535
1.38535
1.38534
1.38534
1.38533
1.38533
1.38533
1.38533
1.38533
1.38533
1.38534
1.38534
1.38535
1.38535
1.38535
1.38535
1.38535
1.38536
1.38536
1.38536
1.38536
1.38536
1.38535
1.38535
1.38535
1.38535
1.38533
1.2832
1.28322
1.28321
1.2832
1.28319
1.28318
1.28317
1.28316
1.28316
1.28315
1.28315
1.28315
1.28315
1.28315
1.28315
1.28315
1.28315
1.28315
1.28316
1.28316
1.28316
1.28316
1.28316
1.28317
1.28317
1.28317
1.28317
1.28317
1.28317
1.28317
1.28317
1.28317
1.28317
1.28317
1.28317
1.28317
1.28317
1.28317
1.28317
1.28316
1.28316
1.28316
1.28316
1.28316
1.28316
1.28316
1.28316
1.28316
1.28316
1.28316
1.28316
1.28316
1.28317
1.28317
1.28318
1.28319
1.28319
1.2832
1.2832
1.28321
1.28321
1.28321
1.28321
1.28321
1.28321
1.28321
1.28321
1.28321
1.28321
1.28321
1.28321
1.28321
1.2832
1.2832
1.2832
1.28319
1.28319
1.28319
1.28318
1.28318
1.28317
1.28317
1.28316
1.28316
1.28315
1.28315
1.28314
1.28314
1.28313
1.28313
1.28312
1.28312
1.28311
1.28311
1.2831
1.28309
1.28309
1.28309
1.28308
1.28308
1.28308
1.28308
1.28309
1.28309
1.2831
1.2831
1.28311
1.28311
1.28311
1.28311
1.28312
1.28312
1.28312
1.28312
1.28312
1.28312
1.28312
1.28311
1.28312
1.2831
1.19085
1.19086
1.19085
1.19084
1.19083
1.19082
1.19082
1.19081
1.19081
1.1908
1.1908
1.1908
1.1908
1.1908
1.1908
1.1908
1.1908
1.1908
1.19081
1.19081
1.19081
1.19081
1.19082
1.19082
1.19082
1.19082
1.19082
1.19083
1.19083
1.19083
1.19083
1.19083
1.19083
1.19083
1.19083
1.19083
1.19083
1.19083
1.19083
1.19082
1.19082
1.19082
1.19082
1.19082
1.19082
1.19082
1.19082
1.19082
1.19082
1.19082
1.19083
1.19083
1.19084
1.19084
1.19085
1.19085
1.19086
1.19086
1.19087
1.19087
1.19087
1.19087
1.19087
1.19087
1.19087
1.19087
1.19087
1.19087
1.19087
1.19087
1.19087
1.19086
1.19086
1.19086
1.19085
1.19085
1.19085
1.19084
1.19084
1.19083
1.19083
1.19082
1.19082
1.19081
1.19081
1.1908
1.1908
1.19079
1.19079
1.19079
1.19078
1.19077
1.19077
1.19076
1.19075
1.19075
1.19074
1.19074
1.19074
1.19074
1.19074
1.19074
1.19075
1.19075
1.19076
1.19076
1.19077
1.19077
1.19078
1.19078
1.19078
1.19078
1.19079
1.19079
1.19079
1.19079
1.19079
1.19078
1.19078
1.19077
1.10695
1.10696
1.10695
1.10694
1.10693
1.10693
1.10692
1.10691
1.10691
1.10691
1.10691
1.1069
1.1069
1.1069
1.10691
1.10691
1.10691
1.10691
1.10691
1.10692
1.10692
1.10692
1.10693
1.10693
1.10693
1.10693
1.10694
1.10694
1.10694
1.10694
1.10694
1.10694
1.10694
1.10695
1.10695
1.10695
1.10695
1.10694
1.10694
1.10694
1.10694
1.10694
1.10694
1.10694
1.10694
1.10694
1.10695
1.10695
1.10695
1.10695
1.10695
1.10696
1.10696
1.10697
1.10697
1.10697
1.10698
1.10698
1.10698
1.10698
1.10699
1.10699
1.10699
1.10699
1.10699
1.10698
1.10698
1.10698
1.10698
1.10698
1.10698
1.10697
1.10697
1.10697
1.10696
1.10696
1.10696
1.10695
1.10695
1.10694
1.10694
1.10693
1.10693
1.10692
1.10692
1.10691
1.10691
1.10691
1.1069
1.10689
1.10689
1.10688
1.10687
1.10687
1.10686
1.10686
1.10686
1.10685
1.10685
1.10685
1.10686
1.10686
1.10686
1.10687
1.10688
1.10688
1.10689
1.10689
1.1069
1.1069
1.10691
1.10691
1.10691
1.10691
1.10691
1.10691
1.10691
1.10691
1.10691
1.1069
1.03033
1.03033
1.03033
1.03032
1.03031
1.0303
1.0303
1.03029
1.03029
1.03029
1.03029
1.03029
1.03029
1.03029
1.03029
1.03029
1.03029
1.03029
1.0303
1.0303
1.0303
1.03031
1.03031
1.03031
1.03032
1.03032
1.03032
1.03033
1.03033
1.03033
1.03033
1.03033
1.03033
1.03034
1.03034
1.03034
1.03034
1.03034
1.03034
1.03034
1.03034
1.03034
1.03034
1.03034
1.03034
1.03034
1.03034
1.03034
1.03035
1.03035
1.03035
1.03036
1.03036
1.03036
1.03036
1.03036
1.03037
1.03037
1.03037
1.03037
1.03037
1.03037
1.03037
1.03037
1.03037
1.03036
1.03036
1.03036
1.03036
1.03036
1.03036
1.03035
1.03035
1.03035
1.03034
1.03034
1.03034
1.03033
1.03033
1.03032
1.03032
1.03031
1.03031
1.0303
1.0303
1.03029
1.03029
1.03029
1.03028
1.03027
1.03027
1.03026
1.03026
1.03025
1.03025
1.03024
1.03024
1.03024
1.03024
1.03025
1.03025
1.03025
1.03026
1.03026
1.03027
1.03028
1.03028
1.03029
1.0303
1.0303
1.0303
1.03031
1.03031
1.03031
1.03031
1.03032
1.03031
1.03031
1.03031
1.03031
0.960015
0.96001
0.960003
0.959997
0.959991
0.959985
0.95998
0.959976
0.959973
0.959971
0.95997
0.95997
0.95997
0.959971
0.959973
0.959975
0.959978
0.959981
0.959984
0.959987
0.959991
0.959995
0.959998
0.960002
0.960006
0.960009
0.960012
0.960015
0.960018
0.960021
0.960023
0.960026
0.960027
0.960029
0.960031
0.960032
0.960033
0.960033
0.960034
0.960034
0.960034
0.960035
0.960035
0.960036
0.960038
0.960042
0.960044
0.960046
0.960047
0.96005
0.960051
0.960051
0.96005
0.960049
0.960048
0.960048
0.960047
0.960047
0.960046
0.960046
0.960045
0.960044
0.960043
0.960042
0.960041
0.960039
0.960037
0.960035
0.960033
0.960031
0.960029
0.960026
0.960024
0.960021
0.960018
0.960014
0.960011
0.960007
0.960003
0.959998
0.959994
0.959989
0.959984
0.959979
0.959974
0.959969
0.959965
0.95996
0.959955
0.95995
0.959945
0.959941
0.959937
0.959934
0.959933
0.959932
0.959933
0.959934
0.959936
0.959939
0.959943
0.959947
0.959953
0.959961
0.95997
0.959978
0.959984
0.95999
0.959996
0.960001
0.960005
0.960009
0.960013
0.960015
0.960017
0.960017
0.960017
0.960017
0.960015
0.960016
0.895192
0.895182
0.895176
0.89517
0.895165
0.895161
0.895157
0.895154
0.895152
0.895151
0.89515
0.89515
0.895151
0.895152
0.895154
0.895157
0.89516
0.895163
0.895167
0.89517
0.895174
0.895178
0.895182
0.895186
0.89519
0.895194
0.895198
0.895202
0.895205
0.895208
0.895211
0.895214
0.895216
0.895219
0.895221
0.895222
0.895224
0.895225
0.895227
0.895227
0.895228
0.895229
0.89523
0.895231
0.895235
0.895239
0.895241
0.895243
0.895244
0.895243
0.895238
0.895232
0.895225
0.89522
0.895216
0.895214
0.895212
0.89521
0.895209
0.895208
0.895207
0.895206
0.895204
0.895203
0.895201
0.8952
0.895198
0.895196
0.895194
0.895192
0.895189
0.895187
0.895184
0.895181
0.895178
0.895175
0.895172
0.895168
0.895164
0.89516
0.895155
0.895151
0.895146
0.895141
0.895136
0.895132
0.895127
0.895123
0.89512
0.895117
0.895115
0.895114
0.895114
0.895114
0.895115
0.895117
0.89512
0.895123
0.895126
0.89513
0.895135
0.89514
0.895146
0.895155
0.895165
0.895173
0.89518
0.895186
0.895192
0.895197
0.895201
0.895205
0.895209
0.895212
0.895214
0.895215
0.895215
0.895215
0.895213
0.895219
0.835194
0.835179
0.835172
0.835167
0.835163
0.83516
0.835158
0.835156
0.835155
0.835154
0.835154
0.835155
0.835156
0.835158
0.83516
0.835163
0.835166
0.83517
0.835174
0.835178
0.835182
0.835187
0.835191
0.835196
0.8352
0.835204
0.835209
0.835213
0.835217
0.83522
0.835224
0.835227
0.83523
0.835233
0.835236
0.835238
0.83524
0.835242
0.835244
0.835245
0.835247
0.835248
0.83525
0.835251
0.835255
0.83526
0.835263
0.835263
0.835261
0.835251
0.835234
0.835218
0.835206
0.835198
0.835193
0.835189
0.835186
0.835184
0.835182
0.835181
0.835179
0.835178
0.835177
0.835175
0.835174
0.835172
0.835171
0.835169
0.835167
0.835165
0.835163
0.83516
0.835158
0.835155
0.835153
0.83515
0.835147
0.835143
0.835139
0.835135
0.835131
0.835127
0.835122
0.835118
0.835113
0.835109
0.835104
0.835102
0.835103
0.835105
0.835108
0.835112
0.835117
0.835121
0.835125
0.83513
0.835134
0.835138
0.835143
0.835148
0.835154
0.83516
0.835167
0.835176
0.835186
0.835194
0.835201
0.835206
0.835211
0.835216
0.83522
0.835224
0.835228
0.835231
0.835233
0.835235
0.835236
0.835237
0.835234
0.835245
0.779456
0.779436
0.779428
0.779425
0.779422
0.779421
0.77942
0.779419
0.779419
0.779419
0.77942
0.779421
0.779423
0.779426
0.779428
0.779432
0.779435
0.779439
0.779443
0.779448
0.779452
0.779457
0.779462
0.779467
0.779472
0.779476
0.779481
0.779486
0.77949
0.779494
0.779498
0.779502
0.779506
0.779509
0.779512
0.779515
0.779518
0.779521
0.779523
0.779525
0.779527
0.779529
0.779532
0.779534
0.779539
0.779543
0.779547
0.779541
0.779532
0.7795
0.779465
0.77944
0.779425
0.779416
0.77941
0.779406
0.779404
0.779402
0.779401
0.779399
0.779398
0.779397
0.779396
0.779395
0.779394
0.779393
0.779392
0.77939
0.779389
0.779387
0.779385
0.779383
0.779381
0.779379
0.779376
0.779374
0.779371
0.779367
0.779364
0.77936
0.779357
0.779353
0.779348
0.779344
0.77934
0.779336
0.77933
0.779336
0.779344
0.779354
0.779366
0.779377
0.779387
0.779395
0.779402
0.779408
0.779414
0.77942
0.779425
0.779431
0.779437
0.779444
0.779451
0.779461
0.779471
0.779478
0.779483
0.779487
0.779491
0.779495
0.779499
0.779503
0.779507
0.77951
0.779513
0.779515
0.779517
0.779518
0.779515
0.779531
0.727505
0.72748
0.727472
0.72747
0.727469
0.727469
0.72747
0.72747
0.727471
0.727473
0.727474
0.727476
0.727479
0.727482
0.727485
0.727489
0.727493
0.727497
0.727502
0.727507
0.727512
0.727517
0.727522
0.727527
0.727532
0.727538
0.727543
0.727548
0.727553
0.727557
0.727562
0.727566
0.72757
0.727574
0.727578
0.727582
0.727585