/*--------------------------------*- C++ -*----------------------------------*\
  =========                 |
  \\      /  F ield         | OpenFOAM: The Open Source CFD Toolbox
   \\    /   O peration     | Website:  https://openfoam.org
    \\  /    A nd           | Version:  7
     \\/     M anipulation  |
\*---------------------------------------------------------------------------*/
FoamFile
{
    version     2.0;
    format      ascii;
    class       surfaceScalarField;
    location    "1000";
    object      phi;
}
// * * * * * * * * * * * * * * * * * * * * * * * * * * * * * * * * * * * * * //

dimensions      [0 3 -1 0 0 0 0];

internalField   nonuniform List<scalar> 
47680
(
2.16615e-06
3.41603e-10
2.16636e-06
-2.04848e-10
2.16651e-06
-1.54653e-10
2.1666e-06
-8.24201e-11
2.16666e-06
-6.28283e-11
2.1667e-06
-3.5825e-11
2.16672e-06
-2.06183e-11
2.16673e-06
-1.08904e-11
2.16673e-06
-4.35456e-12
2.16673e-06
-3.60828e-13
2.16673e-06
2.10934e-12
2.16673e-06
3.56025e-12
2.16672e-06
4.34578e-12
2.16672e-06
4.71071e-12
2.16671e-06
4.8127e-12
2.16671e-06
4.75285e-12
2.1667e-06
4.58949e-12
2.1667e-06
4.35832e-12
2.16669e-06
4.08592e-12
2.16669e-06
3.7923e-12
2.16669e-06
3.48983e-12
2.16668e-06
3.18087e-12
2.16668e-06
2.85974e-12
2.16668e-06
2.51667e-12
2.16668e-06
2.14241e-12
2.16667e-06
1.73067e-12
2.16667e-06
1.28136e-12
2.16667e-06
7.94409e-13
2.16667e-06
2.75541e-13
2.16667e-06
-2.80357e-13
2.16667e-06
-8.62982e-13
2.16667e-06
-1.49479e-12
2.16668e-06
-2.13847e-12
2.16668e-06
-2.86931e-12
2.16668e-06
-3.54475e-12
2.16669e-06
-4.41934e-12
2.16669e-06
-4.95197e-12
2.1667e-06
-6.05076e-12
2.1667e-06
-5.67975e-12
2.16671e-06
-7.23796e-12
2.16671e-06
-3.17858e-12
2.16672e-06
-6.00477e-12
2.16671e-06
9.38875e-12
2.16671e-06
5.38887e-12
2.16667e-06
3.46881e-11
2.16663e-06
4.5856e-11
2.16662e-06
2.91902e-12
2.16663e-06
-3.21846e-12
2.16663e-06
-5.00749e-12
2.16663e-06
-2.27918e-12
2.16664e-06
-9.32808e-12
2.16665e-06
-8.57448e-12
2.16666e-06
-6.24066e-12
2.16666e-06
-4.44537e-12
2.16666e-06
-2.60712e-12
2.16667e-06
-1.33629e-12
2.16667e-06
-6.23548e-13
2.16667e-06
-4.38783e-13
2.16667e-06
-7.52747e-13
2.16667e-06
-1.48799e-12
2.16667e-06
-2.54919e-12
2.16668e-06
-3.8272e-12
2.16668e-06
-5.21085e-12
2.16669e-06
-6.59801e-12
2.16669e-06
-7.90483e-12
2.1667e-06
-9.06871e-12
2.16671e-06
-1.00486e-11
2.16672e-06
-1.08244e-11
2.16674e-06
-1.13922e-11
2.16675e-06
-1.17619e-11
2.16676e-06
-1.19524e-11
2.16677e-06
-1.19893e-11
2.16678e-06
-1.19002e-11
2.1668e-06
-1.17146e-11
2.16681e-06
-1.14569e-11
2.16682e-06
-1.11531e-11
2.16683e-06
-1.08121e-11
2.16684e-06
-1.04595e-11
2.16685e-06
-1.00693e-11
2.16686e-06
-9.69081e-12
2.16687e-06
-9.20232e-12
2.16688e-06
-8.78069e-12
2.16689e-06
-7.99608e-12
2.16689e-06
-7.48484e-12
2.1669e-06
-6.06863e-12
2.1669e-06
-5.4731e-12
2.16691e-06
-4.30235e-12
2.16692e-06
-6.65944e-12
2.16692e-06
-9.81676e-12
2.16694e-06
-1.10389e-11
2.16695e-06
-1.29618e-11
2.16696e-06
-1.10614e-11
2.16697e-06
-9.30072e-12
2.16698e-06
-8.0481e-12
2.16698e-06
-7.12038e-12
2.16699e-06
-6.1077e-12
2.167e-06
-5.73354e-12
2.167e-06
-3.92486e-12
2.167e-06
-3.90922e-12
2.167e-06
1.63178e-12
2.167e-06
6.73844e-13
2.16698e-06
1.72346e-11
2.16697e-06
1.57225e-11
2.16692e-06
4.39125e-11
2.16687e-06
5.88455e-11
2.16686e-06
7.63807e-12
2.16686e-06
-1.10072e-12
2.16686e-06
-1.0862e-12
2.16686e-06
-2.10434e-12
2.16686e-06
8.86762e-13
2.16686e-06
2.67459e-12
2.16685e-06
4.54156e-12
2.16685e-06
3.70235e-12
2.16685e-06
5.69925e-12
2.16684e-06
4.16646e-13
2.16684e-06
9.49673e-12
2.16684e-06
-7.50713e-12
2.1668e-06
4.57956e-11
2.16683e-06
-3.28618e-11
3.33783e-10
6.69202e-06
1.1607e-09
6.69234e-06
-5.17493e-10
6.69273e-06
-5.52118e-10
6.69297e-06
-3.17547e-10
6.69314e-06
-2.34559e-10
6.69325e-06
-1.41615e-10
6.69331e-06
-8.30876e-11
6.69334e-06
-4.56429e-11
6.69336e-06
-2.03312e-11
6.69336e-06
-4.41971e-12
6.69336e-06
5.57387e-12
6.69335e-06
1.16356e-11
6.69334e-06
1.51035e-11
6.69333e-06
1.68962e-11
6.69332e-06
1.76116e-11
6.6933e-06
1.76366e-11
6.69329e-06
1.72085e-11
6.69328e-06
1.64795e-11
6.69327e-06
1.55611e-11
6.69326e-06
1.45339e-11
6.69325e-06
1.34458e-11
6.69324e-06
1.23069e-11
6.69323e-06
1.10984e-11
6.69322e-06
9.79008e-12
6.69322e-06
8.35389e-12
6.69321e-06
6.77172e-12
6.69321e-06
5.04545e-12
6.6932e-06
3.18024e-12
6.6932e-06
1.18977e-12
6.6932e-06
-9.28168e-13
6.69321e-06
-3.16101e-12
6.69321e-06
-5.5402e-12
6.69322e-06
-8.02082e-12
6.69322e-06
-1.07101e-11
6.69323e-06
-1.34041e-11
6.69325e-06
-1.646e-11
6.69326e-06
-1.89627e-11
6.69328e-06
-2.2324e-11
6.69329e-06
-2.2543e-11
6.69331e-06
-2.60167e-11
6.69332e-06
-1.55206e-11
6.69334e-06
-1.97819e-11
6.69332e-06
2.68047e-11
6.6933e-06
2.2896e-11
6.69322e-06
1.20587e-10
6.6931e-06
1.61295e-10
6.69308e-06
2.8459e-11
6.69308e-06
-7.40057e-12
6.69309e-06
-1.53863e-11
6.6931e-06
-9.26981e-12
6.69312e-06
-3.1244e-11
6.69314e-06
-3.1492e-11
6.69316e-06
-2.39369e-11
6.69317e-06
-1.73809e-11
6.69318e-06
-1.08513e-11
6.69319e-06
-6.21246e-12
6.69319e-06
-3.69152e-12
6.69319e-06
-3.20833e-12
6.6932e-06
-4.64436e-12
6.6932e-06
-7.70269e-12
6.69321e-06
-1.20026e-11
6.69322e-06
-1.71131e-11
6.69324e-06
-2.25982e-11
6.69326e-06
-2.80616e-11
6.69329e-06
-3.31793e-11
6.69332e-06
-3.77121e-11
6.69335e-06
-4.15077e-11
6.69338e-06
-4.4492e-11
6.69342e-06
-4.66567e-11
6.69345e-06
-4.80446e-11
6.69349e-06
-4.87353e-11
6.69353e-06
-4.8831e-11
6.69356e-06
-4.84424e-11
6.6936e-06
-4.76832e-11
6.69364e-06
-4.66523e-11
6.69367e-06
-4.54411e-11
6.6937e-06
-4.41005e-11
6.69374e-06
-4.26909e-11
6.69377e-06
-4.11739e-11
6.6938e-06
-3.96211e-11
6.69382e-06
-3.77687e-11
6.69385e-06
-3.59361e-11
6.69388e-06
-3.30883e-11
6.6939e-06
-3.06841e-11
6.69392e-06
-2.56878e-11
6.69394e-06
-2.26659e-11
6.69395e-06
-1.85105e-11
6.69397e-06
-2.57834e-11
6.694e-06
-3.64989e-11
6.69403e-06
-4.18125e-11
6.69406e-06
-4.80723e-11
6.69409e-06
-4.23336e-11
6.69412e-06
-3.55639e-11
6.69414e-06
-3.04781e-11
6.69416e-06
-2.62985e-11
6.69418e-06
-2.23558e-11
6.69419e-06
-1.95763e-11
6.6942e-06
-1.36618e-11
6.69421e-06
-1.06904e-11
6.6942e-06
6.27643e-12
6.6942e-06
9.2084e-12
6.69415e-06
6.16212e-11
6.6941e-06
6.6144e-11
6.69398e-06
1.62784e-10
6.69383e-06
2.14513e-10
6.69378e-06
5.59857e-11
6.69377e-06
9.5546e-12
6.69376e-06
4.67473e-12
6.69376e-06
6.9758e-13
6.69375e-06
9.02199e-12
6.69374e-06
1.5928e-11
6.69372e-06
2.08725e-11
6.6937e-06
2.04005e-11
6.69369e-06
2.17919e-11
6.69368e-06
1.20329e-11
6.69366e-06
2.5635e-11
6.69366e-06
-3.31031e-12
6.69357e-06
1.2755e-10
6.6936e-06
-5.37127e-11
1.08698e-09
1.15212e-05
2.29066e-09
1.15215e-05
-7.56238e-10
1.1522e-05
-1.08267e-09
1.15224e-05
-6.82992e-10
1.15226e-05
-4.99291e-10
1.15228e-05
-3.12907e-10
1.15229e-05
-1.87692e-10
1.1523e-05
-1.06228e-10
1.1523e-05
-5.08976e-11
1.1523e-05
-1.5376e-11
1.1523e-05
7.26395e-12
1.1523e-05
2.13311e-11
1.1523e-05
2.97034e-11
1.1523e-05
3.43366e-11
1.1523e-05
3.65073e-11
1.15229e-05
3.70546e-11
1.15229e-05
3.65155e-11
1.15229e-05
3.5246e-11
1.15229e-05
3.35038e-11
1.15229e-05
3.14735e-11
1.15228e-05
2.9258e-11
1.15228e-05
2.68819e-11
1.15228e-05
2.43135e-11
1.15228e-05
2.14969e-11
1.15228e-05
1.83834e-11
1.15228e-05
1.49475e-11
1.15228e-05
1.1194e-11
1.15228e-05
7.14198e-12
1.15228e-05
2.81642e-12
1.15228e-05
-1.77514e-12
1.15228e-05
-6.62383e-12
1.15228e-05
-1.17479e-11
1.15228e-05
-1.71347e-11
1.15228e-05
-2.28609e-11
1.15228e-05
-2.87839e-11
1.15228e-05
-3.51426e-11
1.15229e-05
-4.0988e-11
1.15229e-05
-4.75338e-11
1.15229e-05
-4.96294e-11
1.15229e-05
-5.49067e-11
1.1523e-05
-3.75746e-11
1.1523e-05
-4.03147e-11
1.1523e-05
4.5957e-11
1.15229e-05
5.03185e-11
1.15228e-05
2.42256e-10
1.15227e-05
3.28995e-10
1.15226e-05
8.49514e-11
1.15226e-05
-4.56422e-12
1.15226e-05
-2.70061e-11
1.15226e-05
-1.9432e-11
1.15226e-05
-6.11575e-11
1.15227e-05
-6.54162e-11
1.15227e-05
-5.17859e-11
1.15227e-05
-3.8355e-11
1.15227e-05
-2.50754e-11
1.15228e-05
-1.55244e-11
1.15228e-05
-1.05053e-11
1.15228e-05
-9.94716e-12
1.15228e-05
-1.35788e-11
1.15228e-05
-2.07451e-11
1.15228e-05
-3.05877e-11
1.15228e-05
-4.21425e-11
1.15229e-05
-5.44402e-11
1.15229e-05
-6.66099e-11
1.15229e-05
-7.79444e-11
1.1523e-05
-8.79278e-11
1.15231e-05
-9.62375e-11
1.15231e-05
-1.02723e-10
1.15232e-05
-1.0738e-10
1.15232e-05
-1.10315e-10
1.15233e-05
-1.1171e-10
1.15234e-05
-1.11799e-10
1.15234e-05
-1.10833e-10
1.15235e-05
-1.09063e-10
1.15235e-05
-1.06711e-10
1.15236e-05
-1.03968e-10
1.15237e-05
-1.0096e-10
1.15237e-05
-9.77832e-11
1.15238e-05
-9.44055e-11
1.15238e-05
-9.08737e-11
1.15239e-05
-8.68012e-11
1.15239e-05
-8.25347e-11
1.1524e-05
-7.64397e-11
1.1524e-05
-7.06678e-11
1.1524e-05
-6.02124e-11
1.15241e-05
-5.27162e-11
1.15241e-05
-4.38327e-11
1.15241e-05
-5.69015e-11
1.15242e-05
-7.7908e-11
1.15242e-05
-8.98949e-11
1.15243e-05
-1.02175e-10
1.15243e-05
-9.17078e-11
1.15244e-05
-7.72507e-11
1.15244e-05
-6.56214e-11
1.15244e-05
-5.5578e-11
1.15244e-05
-4.64535e-11
1.15245e-05
-3.86444e-11
1.15245e-05
-2.62667e-11
1.15245e-05
-1.65648e-11
1.15245e-05
1.61213e-11
1.15244e-05
2.95974e-11
1.15244e-05
1.30314e-10
1.15243e-05
1.52335e-10
1.15241e-05
3.45896e-10
1.15239e-05
4.53006e-10
1.15238e-05
1.61365e-10
1.15237e-05
4.85313e-11
1.15237e-05
2.79359e-11
1.15237e-05
1.7889e-11
1.15237e-05
3.13768e-11
1.15236e-05
4.52394e-11
1.15236e-05
5.3505e-11
1.15236e-05
5.43384e-11
1.15235e-05
5.15432e-11
1.15235e-05
3.89679e-11
1.15235e-05
4.87613e-11
1.15235e-05
1.84399e-11
1.15234e-05
2.25852e-10
1.15234e-05
-3.47315e-11
2.06619e-09
1.66449e-05
3.57852e-09
1.6645e-05
-8.45113e-10
1.66455e-05
-1.6218e-09
1.6646e-05
-1.13281e-09
1.66463e-05
-8.35003e-10
1.66466e-05
-5.39766e-10
1.66467e-05
-3.31877e-10
1.66468e-05
-1.93213e-10
1.66468e-05
-9.83394e-11
1.66469e-05
-3.62988e-11
1.66469e-05
3.86405e-12
1.66468e-05
2.9388e-11
1.66468e-05
4.51255e-11
1.66468e-05
5.4328e-11
1.66468e-05
5.91257e-11
1.66468e-05
6.09444e-11
1.66467e-05
6.07316e-11
1.66467e-05
5.91388e-11
1.66467e-05
5.66351e-11
1.66467e-05
5.35439e-11
1.66467e-05
5.00419e-11
1.66466e-05
4.61754e-11
1.66466e-05
4.19034e-11
1.66466e-05
3.71509e-11
1.66466e-05
3.18558e-11
1.66466e-05
2.59927e-11
1.66466e-05
1.95764e-11
1.66466e-05
1.26458e-11
1.66466e-05
5.24001e-12
1.66466e-05
-2.61627e-12
1.66466e-05
-1.09146e-11
1.66466e-05
-1.96516e-11
1.66466e-05
-2.88537e-11
1.66466e-05
-3.85567e-11
1.66466e-05
-4.87067e-11
1.66466e-05
-5.93841e-11
1.66467e-05
-6.96592e-11
1.66467e-05
-8.03733e-11
1.66467e-05
-8.53149e-11
1.66468e-05
-9.27944e-11
1.66468e-05
-6.84245e-11
1.66468e-05
-6.77418e-11
1.66468e-05
6.3364e-11
1.66468e-05
8.36e-11
1.66466e-05
3.86454e-10
1.66464e-05
5.33296e-10
1.66463e-05
1.72703e-10
1.66463e-05
1.28086e-11
1.66463e-05
-3.53766e-11
1.66464e-05
-2.99788e-11
1.66464e-05
-9.51436e-11
1.66464e-05
-1.06423e-10
1.66465e-05
-8.76799e-11
1.66465e-05
-6.64363e-11
1.66465e-05
-4.52737e-11
1.66465e-05
-3.00046e-11
1.66465e-05
-2.23527e-11
1.66465e-05
-2.23827e-11
1.66466e-05
-2.9613e-11
1.66466e-05
-4.28911e-11
1.66466e-05
-6.06901e-11
1.66467e-05
-8.13039e-11
1.66467e-05
-1.0304e-10
1.66468e-05
-1.24391e-10
1.66468e-05
-1.44147e-10
1.66469e-05
-1.61435e-10
1.6647e-05
-1.75724e-10
1.66471e-05
-1.8678e-10
1.66472e-05
-1.9462e-10
1.66472e-05
-1.99449e-10
1.66473e-05
-2.01604e-10
1.66474e-05
-2.01503e-10
1.66475e-05
-1.99594e-10
1.66476e-05
-1.96314e-10
1.66477e-05
-1.92055e-10
1.66478e-05
-1.87138e-10
1.66478e-05
-1.8179e-10
1.66479e-05
-1.76149e-10
1.6648e-05
-1.70187e-10
1.66481e-05
-1.63906e-10
1.66481e-05
-1.56774e-10
1.66482e-05
-1.49107e-10
1.66483e-05
-1.38629e-10
1.66483e-05
-1.28103e-10
1.66484e-05
-1.10461e-10
1.66484e-05
-9.65144e-11
1.66485e-05
-8.10935e-11
1.66485e-05
-9.96009e-11
1.66486e-05
-1.32093e-10
1.66486e-05
-1.52507e-10
1.66487e-05
-1.72006e-10
1.66488e-05
-1.56415e-10
1.66488e-05
-1.32322e-10
1.66489e-05
-1.11483e-10
1.66489e-05
-9.28555e-11
1.66489e-05
-7.58539e-11
1.66489e-05
-6.0157e-11
1.6649e-05
-3.83382e-11
1.6649e-05
-1.82701e-11
1.66489e-05
3.44662e-11
1.66489e-05
6.44526e-11
1.66488e-05
2.22645e-10
1.66487e-05
2.73377e-10
1.66485e-05
5.83532e-10
1.66481e-05
7.62113e-10
1.6648e-05
3.30391e-10
1.66479e-05
1.30976e-10
1.66478e-05
8.02147e-11
1.66478e-05
5.89611e-11
1.66478e-05
7.55241e-11
1.66477e-05
9.60879e-11
1.66477e-05
1.07407e-10
1.66476e-05
1.08845e-10
1.66475e-05
9.9604e-11
1.66475e-05
8.24048e-11
1.66475e-05
8.43586e-11
1.66474e-05
5.44243e-11
1.66473e-05
3.38122e-10
1.66473e-05
2.55123e-11
3.1276e-09
2.19924e-05
4.88522e-09
2.19923e-05
-7.72637e-10
2.19928e-05
-2.07336e-09
2.19933e-05
-1.60282e-09
2.19936e-05
-1.21012e-09
2.19939e-05
-8.06394e-10
2.19941e-05
-5.09235e-10
2.19942e-05
-3.05136e-10
2.19943e-05
-1.63798e-10
2.19943e-05
-6.96813e-11
2.19943e-05
-7.70643e-12
2.19943e-05
3.25785e-11
2.19943e-05
5.82554e-11
2.19943e-05
7.40154e-11
2.19942e-05
8.29287e-11
2.19942e-05
8.70914e-11
2.19942e-05
8.79526e-11
2.19942e-05
8.65433e-11
2.19941e-05
8.36074e-11
2.19941e-05
7.96424e-11
2.19941e-05
7.49129e-11
2.19941e-05
6.94926e-11
2.1994e-05
6.33394e-11
2.1994e-05
5.63724e-11
2.1994e-05
4.85336e-11
2.1994e-05
3.98113e-11
2.1994e-05
3.02401e-11
2.1994e-05
1.9884e-11
2.1994e-05
8.80192e-12
2.1994e-05
-2.95992e-12
2.1994e-05
-1.53856e-11
2.1994e-05
-2.84469e-11
2.1994e-05
-4.21982e-11
2.1994e-05
-5.66504e-11
2.1994e-05
-7.18175e-11
2.19941e-05
-8.76671e-11
2.19941e-05
-1.03215e-10
2.19941e-05
-1.19014e-10
2.19942e-05
-1.27572e-10
2.19942e-05
-1.3791e-10
2.19943e-05
-1.06668e-10
2.19943e-05
-1.01538e-10
2.19943e-05
7.65867e-11
2.19942e-05
1.18776e-10
2.19941e-05
5.4178e-10
2.19939e-05
7.5904e-10
2.19937e-05
2.87138e-10
2.19937e-05
4.87983e-11
2.19937e-05
-3.5746e-11
2.19937e-05
-3.75533e-11
2.19938e-05
-1.29218e-10
2.19938e-05
-1.50365e-10
2.19938e-05
-1.2869e-10
2.19939e-05
-1.00042e-10
2.19939e-05
-7.09556e-11
2.19939e-05
-5.00413e-11
2.19939e-05
-4.0274e-11
2.1994e-05
-4.20031e-11
2.1994e-05
-5.44922e-11
2.1994e-05
-7.59606e-11
2.19941e-05
-1.04038e-10
2.19941e-05
-1.36101e-10
2.19942e-05
-1.69577e-10
2.19943e-05
-2.02202e-10
2.19943e-05
-2.32179e-10
2.19944e-05
-2.58236e-10
2.19945e-05
-2.7961e-10
2.19947e-05
-2.95997e-10
2.19948e-05
-3.07459e-10
2.19949e-05
-3.14341e-10
2.1995e-05
-3.17181e-10
2.19951e-05
-3.1663e-10
2.19952e-05
-3.13379e-10
2.19953e-05
-3.08098e-10
2.19954e-05
-3.01384e-10
2.19956e-05
-2.93718e-10
2.19957e-05
-2.85437e-10
2.19958e-05
-2.76728e-10
2.19959e-05
-2.67562e-10
2.1996e-05
-2.57875e-10
2.1996e-05
-2.46959e-10
2.19961e-05
-2.35068e-10
2.19962e-05
-2.19227e-10
2.19963e-05
-2.02749e-10
2.19963e-05
-1.7646e-10
2.19964e-05
-1.54298e-10
2.19965e-05
-1.30606e-10
2.19965e-05
-1.53336e-10
2.19966e-05
-1.97161e-10
2.19966e-05
-2.26779e-10
2.19967e-05
-2.54125e-10
2.19968e-05
-2.33316e-10
2.19969e-05
-1.98332e-10
2.19969e-05
-1.65967e-10
2.1997e-05
-1.36115e-10
2.1997e-05
-1.08353e-10
2.1997e-05
-8.17703e-11
2.1997e-05
-4.72339e-11
2.1997e-05
-1.32924e-11
2.1997e-05
6.3493e-11
2.19969e-05
1.15154e-10
2.19968e-05
3.36929e-10
2.19967e-05
4.26036e-10
2.19964e-05
8.65186e-10
2.1996e-05
1.12747e-09
2.19958e-05
5.61347e-10
2.19957e-05
2.65395e-10
2.19956e-05
1.70776e-10
2.19955e-05
1.31524e-10
2.19954e-05
1.47354e-10
2.19954e-05
1.7249e-10
2.19953e-05
1.85687e-10
2.19952e-05
1.85858e-10
2.19951e-05
1.68413e-10
2.19951e-05
1.43036e-10
2.1995e-05
1.35092e-10
2.1995e-05
1.02642e-10
2.19949e-05
4.59984e-10
2.19948e-05
1.23219e-10
4.16773e-09
2.73977e-05
6.1076e-09
2.73975e-05
-5.64797e-10
2.73978e-05
-2.38396e-09
2.73982e-05
-2.02956e-09
2.73986e-05
-1.58627e-09
2.73989e-05
-1.0917e-09
2.73991e-05
-7.09469e-10
2.73992e-05
-4.38069e-10
2.73993e-05
-2.46802e-10
2.73993e-05
-1.16888e-10
2.73994e-05
-2.96739e-11
2.73994e-05
2.83663e-11
2.73994e-05
6.65513e-11
2.73993e-05
9.10327e-11
2.73993e-05
1.05828e-10
2.73993e-05
1.13725e-10
2.73993e-05
1.16726e-10
2.73992e-05
1.16308e-10
2.73992e-05
1.13543e-10
2.73992e-05
1.0914e-10
2.73991e-05
1.03469e-10
2.73991e-05
9.66393e-11
2.73991e-05
8.86157e-11
2.73991e-05
7.93288e-11
2.73991e-05
6.87442e-11
2.7399e-05
5.68857e-11
2.7399e-05
4.38224e-11
2.7399e-05
2.96491e-11
2.7399e-05
1.4455e-11
2.7399e-05
-1.6889e-12
2.7399e-05
-1.87498e-11
2.7399e-05
-3.66761e-11
2.7399e-05
-5.55351e-11
2.7399e-05
-7.533e-11
2.73991e-05
-9.61135e-11
2.73991e-05
-1.17803e-10
2.73991e-05
-1.39274e-10
2.73992e-05
-1.60931e-10
2.73992e-05
-1.73789e-10
2.73993e-05
-1.87737e-10
2.73993e-05
-1.50275e-10
2.73994e-05
-1.40518e-10
2.73994e-05
8.42527e-11
2.73993e-05
1.52112e-10
2.73992e-05
6.98324e-10
2.73989e-05
9.92741e-10
2.73988e-05
4.20877e-10
2.73987e-05
1.03766e-10
2.73987e-05
-2.42906e-11
2.73987e-05
-3.85333e-11
2.73988e-05
-1.59315e-10
2.73988e-05
-1.93072e-10
2.73988e-05
-1.71362e-10
2.73989e-05
-1.36991e-10
2.73989e-05
-1.01096e-10
2.73989e-05
-7.5517e-11
2.7399e-05
-6.47512e-11
2.7399e-05
-6.95681e-11
2.7399e-05
-8.89507e-11
2.73991e-05
-1.20395e-10
2.73991e-05
-1.60569e-10
2.73992e-05
-2.05825e-10
2.73993e-05
-2.52628e-10
2.73994e-05
-2.97902e-10
2.73995e-05
-3.39235e-10
2.73996e-05
-3.74943e-10
2.73997e-05
-4.04045e-10
2.73999e-05
-4.2618e-10
2.74e-05
-4.41483e-10
2.74001e-05
-4.50469e-10
2.74003e-05
-4.53908e-10
2.74004e-05
-4.52717e-10
2.74005e-05
-4.47865e-10
2.74007e-05
-4.4028e-10
2.74008e-05
-4.30784e-10
2.74009e-05
-4.20033e-10
2.7401e-05
-4.08482e-10
2.74012e-05
-3.96366e-10
2.74013e-05
-3.83636e-10
2.74014e-05
-3.70156e-10
2.74015e-05
-3.55005e-10
2.74016e-05
-3.38354e-10
2.74017e-05
-3.16493e-10
2.74018e-05
-2.93219e-10
2.74019e-05
-2.57259e-10
2.74019e-05
-2.25516e-10
2.7402e-05
-1.92069e-10
2.74021e-05
-2.17329e-10
2.74021e-05
-2.7134e-10
2.74022e-05
-3.10025e-10
2.74023e-05
-3.45305e-10
2.74024e-05
-3.19411e-10
2.74025e-05
-2.72943e-10
2.74025e-05
-2.27366e-10
2.74026e-05
-1.84038e-10
2.74026e-05
-1.42836e-10
2.74026e-05
-1.02526e-10
2.74026e-05
-5.21983e-11
2.74026e-05
-1.28198e-12
2.74026e-05
1.0269e-10
2.74025e-05
1.79926e-10
2.74024e-05
4.6836e-10
2.74022e-05
6.02665e-10
2.74019e-05
1.17681e-09
2.74015e-05
1.53128e-09
2.74012e-05
8.43945e-10
2.7401e-05
4.50685e-10
2.74009e-05
3.02631e-10
2.74008e-05
2.38348e-10
2.74007e-05
2.48421e-10
2.74006e-05
2.74606e-10
2.74005e-05
2.87508e-10
2.74004e-05
2.83955e-10
2.74003e-05
2.56558e-10
2.74002e-05
2.19326e-10
2.74002e-05
1.9979e-10
2.74001e-05
1.60476e-10
2.74e-05
5.85427e-10
2.73999e-05
2.4626e-10
5.1153e-09
3.26508e-05
7.18356e-09
3.26505e-05
-2.60679e-10
3.26507e-05
-2.54171e-09
3.2651e-05
-2.36818e-09
3.26513e-05
-1.92684e-09
3.26516e-05
-1.37205e-09
3.26518e-05
-9.19059e-10
3.2652e-05
-5.85291e-10
3.26521e-05
-3.44642e-10
3.26521e-05
-1.77455e-10
3.26522e-05
-6.27365e-11
3.26522e-05
1.55205e-11
3.26522e-05
6.86019e-11
3.26522e-05
1.03995e-10
3.26521e-05
1.26601e-10
3.26521e-05
1.39865e-10
3.26521e-05
1.46343e-10
3.26521e-05
1.47988e-10
3.2652e-05
1.46242e-10
3.2652e-05
1.42059e-10
3.2652e-05
1.35936e-10
3.26519e-05
1.28033e-10
3.26519e-05
1.18333e-10
3.26519e-05
1.06793e-10
3.26519e-05
9.34223e-11
3.26518e-05
7.83008e-11
3.26518e-05
6.15505e-11
3.26518e-05
4.33126e-11
3.26518e-05
2.37128e-11
3.26518e-05
2.85865e-12
3.26518e-05
-1.91941e-11
3.26518e-05
-4.23719e-11
3.26518e-05
-6.67445e-11
3.26518e-05
-9.23166e-11
3.26518e-05
-1.19166e-10
3.26519e-05
-1.47196e-10
3.26519e-05
-1.75104e-10
3.26519e-05
-2.03238e-10
3.2652e-05
-2.21057e-10
3.2652e-05
-2.39392e-10
3.26521e-05
-1.96802e-10
3.26521e-05
-1.83027e-10
3.26521e-05
8.60974e-11
3.26521e-05
1.8071e-10
3.2652e-05
8.48435e-10
3.26517e-05
1.22404e-09
3.26516e-05
5.66128e-10
3.26515e-05
1.75262e-10
3.26515e-05
9.22082e-13
3.26515e-05
-2.98782e-11
3.26515e-05
-1.81835e-10
3.26515e-05
-2.30844e-10
3.26516e-05
-2.12316e-10
3.26516e-05
-1.74866e-10
3.26516e-05
-1.343e-10
3.26517e-05
-1.05848e-10
3.26517e-05
-9.56775e-11
3.26517e-05
-1.05059e-10
3.26518e-05
-1.32686e-10
3.26518e-05
-1.75295e-10
3.26519e-05
-2.28564e-10
3.2652e-05
-2.87807e-10
3.26521e-05
-3.48542e-10
3.26522e-05
-4.0691e-10
3.26523e-05
-4.59913e-10
3.26524e-05
-5.0549e-10
3.26526e-05
-5.42467e-10
3.26527e-05
-5.70445e-10
3.26529e-05
-5.8965e-10
3.2653e-05
-6.00777e-10
3.26532e-05
-6.0484e-10
3.26533e-05
-6.03032e-10
3.26535e-05
-5.96603e-10
3.26536e-05
-5.86746e-10
3.26538e-05
-5.7451e-10
3.26539e-05
-5.60726e-10
3.2654e-05
-5.45959e-10
3.26542e-05
-5.30487e-10
3.26543e-05
-5.14224e-10
3.26544e-05
-4.96948e-10
3.26546e-05
-4.77504e-10
3.26547e-05
-4.55954e-10
3.26548e-05
-4.27847e-10
3.26549e-05
-3.97395e-10
3.2655e-05
-3.51271e-10
3.26551e-05
-3.09108e-10
3.26551e-05
-2.64803e-10
3.26552e-05
-2.90794e-10
3.26553e-05
-3.53302e-10
3.26554e-05
-4.00243e-10
3.26555e-05
-4.43109e-10
3.26556e-05
-4.12398e-10
3.26557e-05
-3.54381e-10
3.26557e-05
-2.94617e-10
3.26558e-05
-2.36146e-10
3.26558e-05
-1.79325e-10
3.26558e-05
-1.22888e-10
3.26558e-05
-5.42783e-11
3.26558e-05
1.60145e-11
3.26558e-05
1.49133e-10
3.26557e-05
2.54242e-10
3.26556e-05
6.09701e-10
3.26554e-05
7.92632e-10
3.2655e-05
1.50247e-09
3.26546e-05
1.95469e-09
3.26543e-05
1.16267e-09
3.26541e-05
6.77765e-10
3.26539e-05
4.72011e-10
3.26538e-05
3.76984e-10
3.26536e-05
3.75962e-10
3.26535e-05
3.98951e-10
3.26534e-05
4.08628e-10
3.26533e-05
3.9875e-10
3.26532e-05
3.59546e-10
3.26531e-05
3.07553e-10
3.2653e-05
2.74514e-10
3.2653e-05
2.24229e-10
3.26528e-05
7.08106e-10
3.26527e-05
3.7842e-10
5.92527e-09
3.76078e-05
8.08319e-09
3.76075e-05
9.6439e-11
3.76075e-05
-2.56599e-09
3.76077e-05
-2.60046e-09
3.7608e-05
-2.20585e-09
3.76083e-05
-1.6257e-09
3.76085e-05
-1.1229e-09
3.76086e-05
-7.37462e-10
3.76087e-05
-4.51981e-10
3.76088e-05
-2.48607e-10
3.76088e-05
-1.05665e-10
3.76089e-05
-5.62719e-12
3.76089e-05
6.42429e-11
3.76089e-05
1.125e-10
3.76088e-05
1.44784e-10
3.76088e-05
1.6511e-10
3.76088e-05
1.7654e-10
3.76087e-05
1.81487e-10
3.76087e-05
1.81779e-10
3.76087e-05
1.78636e-10
3.76086e-05
1.7271e-10
3.76086e-05
1.64224e-10
3.76086e-05
1.53196e-10
3.76085e-05
1.39621e-10
3.76085e-05
1.23568e-10
3.76085e-05
1.05192e-10
3.76085e-05
8.46879e-11
3.76084e-05
6.22591e-11
3.76084e-05
3.80812e-11
3.76084e-05
1.23072e-11
3.76084e-05
-1.49762e-11
3.76084e-05
-4.36702e-11
3.76084e-05
-7.38451e-11
3.76084e-05
-1.05508e-10
3.76084e-05
-1.38759e-10
3.76085e-05
-1.73501e-10
3.76085e-05
-2.08266e-10
3.76085e-05
-2.43369e-10
3.76086e-05
-2.66785e-10
3.76086e-05
-2.90258e-10
3.76087e-05
-2.4388e-10
3.76087e-05
-2.27233e-10
3.76087e-05
8.29028e-11
3.76087e-05
2.0326e-10
3.76086e-05
9.88072e-10
3.76084e-05
1.44683e-09
3.76082e-05
7.16222e-10
3.76081e-05
2.59186e-10
3.76081e-05
3.95486e-11
3.76081e-05
-1.00397e-11
3.76081e-05
-1.9446e-10
3.76081e-05
-2.61069e-10
3.76081e-05
-2.48883e-10
3.76082e-05
-2.11518e-10
3.76082e-05
-1.69149e-10
3.76082e-05
-1.40271e-10
3.76083e-05
-1.32699e-10
3.76083e-05
-1.48195e-10
3.76084e-05
-1.85153e-10
3.76084e-05
-2.39561e-10
3.76085e-05
-3.06158e-10
3.76086e-05
-3.79308e-10
3.76087e-05
-4.5368e-10
3.76088e-05
-5.24732e-10
3.7609e-05
-5.88974e-10
3.76091e-05
-6.44027e-10
3.76092e-05
-6.88568e-10
3.76094e-05
-7.22186e-10
3.76096e-05
-7.45203e-10
3.76097e-05
-7.58492e-10
3.76099e-05
-7.633e-10
3.761e-05
-7.61084e-10
3.76102e-05
-7.5336e-10
3.76103e-05
-7.41571e-10
3.76105e-05
-7.2698e-10
3.76106e-05
-7.10574e-10
3.76108e-05
-6.93016e-10
3.76109e-05
-6.74607e-10
3.76111e-05
-6.5521e-10
3.76112e-05
-6.34501e-10
3.76113e-05
-6.11074e-10
3.76115e-05
-5.84865e-10
3.76116e-05
-5.50687e-10
3.76117e-05
-5.13103e-10
3.76118e-05
-4.56795e-10
3.76119e-05
-4.03856e-10
3.7612e-05
-3.47995e-10
3.76121e-05
-3.7311e-10
3.76122e-05
-4.42303e-10
3.76123e-05
-4.96312e-10
3.76124e-05
-5.46093e-10
3.76125e-05
-5.10763e-10
3.76126e-05
-4.4135e-10
3.76126e-05
-3.66907e-10
3.76127e-05
-2.92129e-10
3.76127e-05
-2.18015e-10
3.76127e-05
-1.43523e-10
3.76127e-05
-5.47508e-11
3.76127e-05
3.6623e-11
3.76127e-05
1.99828e-10
3.76126e-05
3.33731e-10
3.76124e-05
7.54726e-10
3.76123e-05
9.86873e-10
3.76119e-05
1.82977e-09
3.76115e-05
2.38296e-09
3.76112e-05
1.50241e-09
3.76109e-05
9.34717e-10
3.76107e-05
6.71633e-10
3.76105e-05
5.42453e-10
3.76104e-05
5.25698e-10
3.76102e-05
5.4125e-10
3.76101e-05
5.44421e-10
3.761e-05
5.25638e-10
3.76099e-05
4.72656e-10
3.76098e-05
4.03785e-10
3.76097e-05
3.55104e-10
3.76096e-05
2.905e-10
3.76095e-05
8.23039e-10
3.76094e-05
5.07267e-10
6.5788e-09
4.22323e-05
8.79897e-09
4.22319e-05
4.65308e-10
4.22318e-05
-2.49316e-09
4.2232e-05
-2.73206e-09
4.22322e-05
-2.41238e-09
4.22324e-05
-1.83733e-09
4.22326e-05
-1.30727e-09
4.22327e-05
-8.8423e-10
4.22328e-05
-5.61623e-10
4.22329e-05
-3.25612e-10
4.2233e-05
-1.55496e-10
4.2233e-05
-3.33294e-11
4.2233e-05
5.44024e-11
4.2233e-05
1.16944e-10
4.2233e-05
1.60454e-10
4.22329e-05
1.89377e-10
4.22329e-05
2.07185e-10
4.22329e-05
2.16702e-10
4.22328e-05
2.20116e-10
4.22328e-05
2.18922e-10
4.22328e-05
2.13937e-10
4.22327e-05
2.05466e-10
4.22327e-05
1.93572e-10
4.22326e-05
1.783e-10
4.22326e-05
1.5979e-10
4.22326e-05
1.38286e-10
4.22325e-05
1.14072e-10
4.22325e-05
8.7434e-11
4.22325e-05
5.8609e-11
4.22325e-05
2.78052e-11
4.22325e-05
-4.85187e-12
4.22325e-05
-3.92332e-11
4.22325e-05
-7.54078e-11
4.22325e-05
-1.13383e-10
4.22325e-05
-1.53286e-10
4.22325e-05
-1.95019e-10
4.22325e-05
-2.36977e-10
4.22326e-05
-2.79439e-10
4.22326e-05
-3.09034e-10
4.22327e-05
-3.3833e-10
4.22327e-05
-2.89543e-10
4.22328e-05
-2.7139e-10
4.22328e-05
7.61451e-11
4.22327e-05
2.20021e-10
4.22326e-05
1.11673e-09
4.22324e-05
1.65904e-09
4.22323e-05
8.66417e-10
4.22322e-05
3.51011e-10
4.22321e-05
8.94489e-11
4.22321e-05
2.0814e-11
4.22321e-05
-1.96476e-10
4.22321e-05
-2.82513e-10
4.22321e-05
-2.79485e-10
4.22322e-05
-2.4548e-10
4.22322e-05
-2.04576e-10
4.22322e-05
-1.78188e-10
4.22323e-05
-1.75579e-10
4.22323e-05
-1.9888e-10
4.22324e-05
-2.46151e-10
4.22325e-05
-3.12668e-10
4.22326e-05
-3.92339e-10
4.22327e-05
-4.78726e-10
4.22328e-05
-5.65814e-10
4.22329e-05
-6.48534e-10
4.2233e-05
-7.23024e-10
4.22332e-05
-7.86682e-10
4.22333e-05
-8.38096e-10
4.22335e-05
-8.76866e-10
4.22336e-05
-9.03419e-10
4.22338e-05
-9.18796e-10
4.2234e-05
-9.2446e-10
4.22341e-05
-9.22103e-10
4.22343e-05
-9.13483e-10
4.22344e-05
-9.00263e-10
4.22346e-05
-8.83893e-10
4.22347e-05
-8.65494e-10
4.22349e-05
-8.458e-10
4.22351e-05
-8.25117e-10
4.22352e-05
-8.03236e-10
4.22353e-05
-7.79711e-10
4.22355e-05
-7.52877e-10
4.22356e-05
-7.22519e-10
4.22358e-05
-6.82734e-10
4.22359e-05
-6.38374e-10
4.2236e-05
-5.7219e-10
4.22361e-05
-5.08479e-10
4.22362e-05
-4.40702e-10
4.22363e-05
-4.6369e-10
4.22364e-05
-5.3794e-10
4.22365e-05
-5.97724e-10
4.22366e-05
-6.53537e-10
4.22367e-05
-6.13519e-10
4.22368e-05
-5.32747e-10
4.22369e-05
-4.43263e-10
4.22369e-05
-3.51254e-10
4.2237e-05
-2.58483e-10
4.2237e-05
-1.64342e-10
4.2237e-05
-5.39551e-11
4.2237e-05
5.97157e-11
4.22369e-05
2.53313e-10
4.22368e-05
4.16058e-10
4.22367e-05
9.002e-10
4.22365e-05
1.18035e-09
4.22362e-05
2.15237e-09
4.22357e-05
2.80794e-09
4.22354e-05
1.85199e-09
4.22351e-05
1.21081e-09
4.22349e-05
8.93776e-10
4.22347e-05
7.29459e-10
4.22345e-05
6.93728e-10
4.22344e-05
6.98219e-10
4.22342e-05
6.91678e-10
4.22341e-05
6.61489e-10
4.2234e-05
5.9267e-10
4.22339e-05
5.05238e-10
4.22338e-05
4.38638e-10
4.22337e-05
3.57115e-10
4.22336e-05
9.27239e-10
4.22335e-05
6.26585e-10
7.0787e-09
4.65571e-05
9.33781e-09
4.65568e-05
8.1386e-10
4.65566e-05
-2.36236e-09
4.65567e-05
-2.78318e-09
4.65568e-05
-2.54934e-09
4.6557e-05
-2.00054e-09
4.65571e-05
-1.4628e-09
4.65573e-05
-1.01661e-09
4.65574e-05
-6.66202e-10
4.65574e-05
-4.02905e-10
4.65575e-05
-2.08249e-10
4.65575e-05
-6.48761e-11
4.65575e-05
4.08241e-11
4.65575e-05
1.18358e-10
4.65575e-05
1.74133e-10
4.65575e-05
2.12845e-10
4.65575e-05
2.38251e-10
4.65574e-05
2.53494e-10
4.65574e-05
2.61078e-10
4.65573e-05
2.62748e-10
4.65573e-05
2.59484e-10
4.65573e-05
2.51682e-10
4.65572e-05
2.39455e-10
4.65572e-05
2.22906e-10
4.65571e-05
2.02256e-10
4.65571e-05
1.77847e-10
4.6557e-05
1.50068e-10
4.6557e-05
1.19297e-10
4.6557e-05
8.58468e-11
4.6557e-05
4.99918e-11
4.6557e-05
1.19004e-11
4.65569e-05
-2.82606e-11
4.65569e-05
-7.05575e-11
4.65569e-05
-1.14991e-10
4.65569e-05
-1.61727e-10
4.6557e-05
-2.10652e-10
4.6557e-05
-2.6007e-10
4.6557e-05
-3.10196e-10
4.65571e-05
-3.46478e-10
4.65571e-05
-3.82193e-10
4.65571e-05
-3.32291e-10
4.65572e-05
-3.13999e-10
4.65572e-05
6.75251e-11
4.65572e-05
2.32183e-10
4.65571e-05
1.23612e-09
4.65569e-05
1.86148e-09
4.65567e-05
1.01413e-09
4.65566e-05
4.46895e-10
4.65566e-05
1.4775e-10
4.65565e-05
6.13146e-11
4.65565e-05
-1.88472e-10
4.65565e-05
-2.95175e-10
4.65565e-05
-3.03667e-10
4.65566e-05
-2.76164e-10
4.65566e-05
-2.40136e-10
4.65567e-05
-2.19431e-10
4.65567e-05
-2.244e-10
4.65568e-05
-2.57336e-10
4.65568e-05
-3.15883e-10
4.65569e-05
-3.94662e-10
4.6557e-05
-4.86886e-10
4.65571e-05
-5.85504e-10
4.65572e-05
-6.84018e-10
4.65574e-05
-7.77009e-10
4.65575e-05
-8.6039e-10
4.65576e-05
-9.31447e-10
4.65578e-05
-9.8874e-10
4.65579e-05
-1.03192e-09
4.65581e-05
-1.06153e-09
4.65583e-05
-1.07877e-09
4.65584e-05
-1.08529e-09
4.65586e-05
-1.08301e-09
4.65587e-05
-1.07387e-09
4.65589e-05
-1.05974e-09
4.65591e-05
-1.04221e-09
4.65592e-05
-1.02252e-09
4.65594e-05
-1.00144e-09
4.65595e-05
-9.79258e-10
4.65597e-05
-9.55669e-10
4.65598e-05
-9.30085e-10
4.656e-05
-9.00573e-10
4.65601e-05
-8.66743e-10
4.65603e-05
-8.21994e-10
4.65604e-05
-7.71413e-10
4.65605e-05
-6.95862e-10
4.65606e-05
-6.21614e-10
4.65607e-05
-5.41814e-10
4.65608e-05
-5.61819e-10
4.65609e-05
-6.39837e-10
4.6561e-05
-7.04201e-10
4.65612e-05
-7.65069e-10
4.65613e-05
-7.19973e-10
4.65614e-05
-6.27555e-10
4.65614e-05
-5.22504e-10
4.65615e-05
-4.12323e-10
4.65615e-05
-2.99632e-10
4.65616e-05
-1.84427e-10
4.65616e-05
-5.12283e-11
4.65615e-05
8.56521e-11
4.65615e-05
3.09603e-10
4.65614e-05
5.00772e-10
4.65612e-05
1.04541e-09
4.6561e-05
1.37139e-09
4.65607e-05
2.46872e-09
4.65603e-05
3.22691e-09
4.656e-05
2.20475e-09
4.65597e-05
1.49798e-09
4.65594e-05
1.13167e-09
4.65592e-05
9.33095e-10
4.6559e-05
8.76693e-10
4.65589e-05
8.67463e-10
4.65587e-05
8.4842e-10
4.65586e-05
8.04503e-10
4.65585e-05
7.17774e-10
4.65584e-05
6.10278e-10
4.65583e-05
5.23407e-10
4.65582e-05
4.22943e-10
4.65581e-05
1.01929e-09
4.6558e-05
7.34137e-10
7.43929e-09
5.06389e-05
9.71402e-09
5.06385e-05
1.12187e-09
5.06384e-05
-2.20653e-09
5.06384e-05
-2.77872e-09
5.06385e-05
-2.62863e-09
5.06386e-05
-2.11702e-09
5.06387e-05
-1.58563e-09
5.06388e-05
-1.12874e-09
5.06389e-05