/*--------------------------------*- C++ -*----------------------------------*\
  =========                 |
  \\      /  F ield         | OpenFOAM: The Open Source CFD Toolbox
   \\    /   O peration     | Website:  https://openfoam.org
    \\  /    A nd           | Version:  7
     \\/     M anipulation  |
\*---------------------------------------------------------------------------*/
FoamFile
{
    version     2.0;
    format      ascii;
    class       volVectorField;
    location    "1000";
    object      U;
}
// * * * * * * * * * * * * * * * * * * * * * * * * * * * * * * * * * * * * * //

dimensions      [0 1 -1 0 0 0 0];

internalField   nonuniform List<vector> 
24000
(
(0.00427982 7.17016e-09 -6.71612e-18)
(0.0042797 -7.8663e-09 -2.02727e-17)
(0.00428032 -1.79564e-09 -1.72104e-17)
(0.00428046 -1.17112e-09 -6.59869e-17)
(0.00428062 -9.34367e-10 -4.34525e-16)
(0.00428071 -4.05488e-10 -1.04264e-16)
(0.00428076 -2.32192e-10 -3.85499e-16)
(0.00428079 -9.64823e-11 -9.62987e-17)
(0.00428081 -1.38432e-11 -4.21695e-17)
(0.00428081 3.11317e-11 -3.22201e-16)
(0.00428081 5.77466e-11 -6.95778e-17)
(0.0042808 7.10573e-11 -6.53439e-17)
(0.00428079 7.60871e-11 -6.3602e-17)
(0.00428079 7.61186e-11 -8.50599e-17)
(0.00428078 7.34217e-11 -1.20028e-16)
(0.00428077 6.94877e-11 -6.95131e-17)
(0.00428076 6.50004e-11 -7.72802e-17)
(0.00428075 6.01716e-11 -7.91991e-17)
(0.00428074 5.51645e-11 -1.05881e-16)
(0.00428073 5.0155e-11 -1.53663e-16)
(0.00428073 4.53089e-11 -9.23108e-17)
(0.00428072 4.06847e-11 -1.25818e-16)
(0.00428071 3.62089e-11 -1.0614e-16)
(0.00428071 3.16826e-11 -1.17507e-16)
(0.0042807 2.68751e-11 -1.6188e-16)
(0.0042807 2.15321e-11 -9.43079e-17)
(0.0042807 1.56388e-11 -1.10348e-16)
(0.00428069 9.00198e-12 -9.52545e-17)
(0.00428069 1.96316e-12 -1.20683e-16)
(0.00428069 -6.01383e-12 -1.64862e-16)
(0.00428069 -1.39154e-11 -9.07631e-17)
(0.0042807 -2.37055e-11 -1.12009e-16)
(0.0042807 -3.17825e-11 -1.00211e-16)
(0.0042807 -4.48291e-11 -1.28094e-16)
(0.00428071 -5.03787e-11 -1.67194e-16)
(0.00428072 -7.09743e-11 -9.95969e-17)
(0.00428073 -6.41358e-11 -1.18913e-16)
(0.00428074 -1.0485e-10 -1.06124e-16)
(0.00428075 -5.31322e-11 -1.27265e-16)
(0.00428077 -1.48648e-10 -1.71465e-16)
(0.00428077 4.06105e-11 -1.43102e-16)
(0.00428079 -1.80868e-10 2.95747e-17)
(0.00428078 3.24561e-10 -9.67982e-17)
(0.00428077 -1.43788e-11 -9.84768e-17)
(0.00428075 6.76289e-10 -9.17014e-17)
(0.00428063 8.86511e-10 -8.21521e-17)
(0.00428058 -3.0564e-10 6.40044e-17)
(0.0042806 -5.03603e-11 -6.71973e-17)
(0.00428061 -1.41381e-10 -7.6526e-17)
(0.00428061 3.90507e-12 -7.1948e-17)
(0.00428062 -2.12566e-10 -6.31923e-17)
(0.00428064 -1.24599e-10 6.62708e-17)
(0.00428066 -8.5177e-11 -5.68265e-17)
(0.00428067 -5.63543e-11 1.11486e-16)
(0.00428068 -2.38489e-11 -1.20557e-16)
(0.00428068 -4.5313e-12 -3.39172e-17)
(0.00428068 7.56141e-12 9.77611e-17)
(0.00428068 1.23164e-11 -3.22871e-17)
(0.00428068 1.02212e-11 1.74613e-16)
(0.00428068 2.40523e-12 -6.389e-17)
(0.00428069 -9.96598e-12 -1.9058e-17)
(0.00428069 -2.54961e-11 1.01922e-16)
(0.0042807 -4.27265e-11 -2.45114e-17)
(0.00428072 -6.03081e-11 1.50533e-16)
(0.00428073 -7.70994e-11 -6.32286e-17)
(0.00428075 -9.22466e-11 -5.48303e-18)
(0.00428077 -1.05161e-10 2.3401e-16)
(0.00428079 -1.15539e-10 1.04566e-18)
(0.00428081 -1.23253e-10 1.61034e-16)
(0.00428083 -1.28405e-10 -2.97087e-17)
(0.00428085 -1.31164e-10 2.80021e-18)
(0.00428088 -1.31856e-10 2.81242e-16)
(0.0042809 -1.30783e-10 8.48837e-18)
(0.00428093 -1.28416e-10 1.83354e-16)
(0.00428095 -1.24932e-10 -2.74819e-17)
(0.00428097 -1.21002e-10 1.18493e-17)
(0.00428099 -1.16215e-10 1.68558e-16)
(0.00428101 -1.12023e-10 1.54911e-17)
(0.00428103 -1.06208e-10 1.97652e-16)
(0.00428105 -1.02901e-10 -1.56775e-17)
(0.00428107 -9.44595e-11 -1.62349e-16)
(0.00428109 -9.3568e-11 -2.34147e-17)
(0.00428111 -7.72742e-11 2.17709e-17)
(0.00428112 -8.0922e-11 -2.93733e-16)
(0.00428114 -4.93258e-11 -1.15e-16)
(0.00428115 -5.84943e-11 -2.82142e-16)
(0.00428116 -3.05043e-11 -8.93759e-17)
(0.00428116 -9.29796e-11 -4.03801e-20)
(0.00428118 -1.57644e-10 -1.92726e-16)
(0.0042812 -1.55718e-10 -8.75918e-17)
(0.00428123 -2.09048e-10 -2.31623e-16)
(0.00428125 -1.49848e-10 -9.07725e-17)
(0.00428127 -1.32753e-10 -1.74524e-17)
(0.00428129 -1.16751e-10 -3.07587e-16)
(0.0042813 -1.16095e-10 -7.90431e-17)
(0.00428132 -9.51916e-11 -2.66642e-16)
(0.00428133 -1.20822e-10 -1.13912e-16)
(0.00428134 -5.81104e-11 -1.80174e-17)
(0.00428135 -1.34139e-10 -2.87874e-16)
(0.00428135 6.15675e-11 -1.4834e-16)
(0.00428135 -1.25781e-10 -2.61625e-16)
(0.00428133 3.64923e-10 -9.16259e-17)
(0.0042813 9.82214e-11 -1.16799e-17)
(0.00428126 6.97723e-10 -2.90036e-16)
(0.00428112 1.04867e-09 -9.35497e-17)
(0.00428105 -3.78796e-10 -2.76621e-16)
(0.00428107 -1.37158e-10 -1.43395e-16)
(0.00428106 -1.24276e-10 -2.14018e-17)
(0.00428107 -1.4224e-10 -2.00724e-16)
(0.00428107 -4.32519e-11 -1.05617e-16)
(0.00428107 -4.1345e-11 -2.88695e-16)
(0.00428106 4.45091e-11 -3.33221e-16)
(0.00428105 -6.04263e-11 -1.97782e-17)
(0.00428103 1.54137e-10 -2.13104e-16)
(0.00428105 -2.48585e-10 -6.39011e-17)
(0.004281 5.02506e-10 -1.66474e-16)
(0.00428106 -8.14764e-10 -2.18351e-16)
(0.00428094 1.89794e-09 -2.53977e-17)
(0.00428103 -2.21313e-09 -2.04735e-16)
(0.00428086 7.74754e-09 -5.16165e-17)
(0.0129166 6.6519e-08 -1.49541e-17)
(0.012916 -3.77028e-08 -6.2233e-17)
(0.0129173 -3.15299e-08 -5.29158e-17)
(0.0129178 -1.66289e-08 -1.98147e-16)
(0.0129182 -1.26285e-08 -7.74673e-16)
(0.0129185 -7.3078e-09 -3.02968e-16)
(0.0129186 -4.20292e-09 -8.92727e-16)
(0.0129187 -2.23807e-09 -2.78216e-16)
(0.0129187 -9.11779e-10 -1.33588e-16)
(0.0129188 -9.72578e-11 -7.55641e-16)
(0.0129188 4.07397e-10 -1.98979e-16)
(0.0129187 7.0583e-10 -1.99485e-16)
(0.0129187 8.69248e-10 -1.92345e-16)
(0.0129187 9.46927e-10 -2.57415e-16)
(0.0129187 9.70623e-10 -3.60177e-16)
(0.0129187 9.6072e-10 -2.14524e-16)
(0.0129186 9.29248e-10 -2.36336e-16)
(0.0129186 8.83644e-10 -2.39109e-16)
(0.0129186 8.2945e-10 -3.19566e-16)
(0.0129186 7.70699e-10 -4.68766e-16)
(0.0129185 7.09892e-10 -2.78011e-16)
(0.0129185 6.47463e-10 -3.86587e-16)
(0.0129185 5.82289e-10 -3.21455e-16)
(0.0129185 5.12436e-10 -3.60654e-16)
(0.0129185 4.36191e-10 -4.86957e-16)
(0.0129185 3.52321e-10 -2.78199e-16)
(0.0129185 2.6089e-10 -3.30817e-16)
(0.0129185 1.61931e-10 -2.88388e-16)
(0.0129184 5.63764e-11 -3.70336e-16)
(0.0129184 -5.63066e-11 -5.06947e-16)
(0.0129185 -1.74904e-10 -2.76091e-16)
(0.0129185 -3.02359e-10 -3.35485e-16)
(0.0129185 -4.34071e-10 -3.02965e-16)
(0.0129185 -5.79828e-10 -3.94624e-16)
(0.0129185 -7.20849e-10 -5.10154e-16)
(0.0129185 -8.90331e-10 -2.94741e-16)
(0.0129185 -1.01219e-09 -3.5818e-16)
(0.0129186 -1.21028e-09 -3.21218e-16)
(0.0129186 -1.17885e-09 -3.85632e-16)
(0.0129186 -1.42214e-09 -5.23254e-16)
(0.0129187 -7.20522e-10 -4.31272e-16)
(0.0129187 -1.1161e-09 -3.13173e-16)
(0.0129187 1.7523e-09 -3.00067e-16)
(0.0129187 1.19819e-09 -2.95977e-16)
(0.0129186 6.94012e-09 -2.75144e-16)
(0.0129183 9.05341e-09 -2.46707e-16)
(0.0129182 8.2961e-10 -1.89309e-16)
(0.0129182 -6.57652e-10 -2.09422e-16)
(0.0129182 -9.54154e-10 -2.2972e-16)
(0.0129182 -4.98132e-10 -2.16091e-16)
(0.0129183 -1.83199e-09 -1.90079e-16)
(0.0129183 -1.73192e-09 -1.54e-16)
(0.0129184 -1.26413e-09 -1.75439e-16)
(0.0129184 -9.02672e-10 -9.48091e-17)
(0.0129184 -5.36373e-10 -2.84117e-16)
(0.0129184 -2.81091e-10 -1.02398e-16)
(0.0129184 -1.39568e-10 -6.2709e-17)
(0.0129184 -1.0518e-10 -1.02558e-16)
(0.0129184 -1.72022e-10 -5.29832e-17)
(0.0129184 -3.24307e-10 -3.54568e-16)
(0.0129185 -5.42499e-10 -5.31121e-17)
(0.0129185 -8.04311e-10 -4.38839e-17)
(0.0129185 -1.08709e-09 -7.97927e-17)
(0.0129185 -1.37009e-09 1.71101e-17)
(0.0129186 -1.63629e-09 -2.89603e-16)
(0.0129186 -1.87302e-09 -1.05298e-17)
(0.0129187 -2.0721e-09 7.63305e-17)
(0.0129188 -2.22941e-09 -3.93383e-18)
(0.0129188 -2.34429e-09 7.30753e-17)
(0.0129189 -2.41884e-09 -2.63159e-16)
(0.012919 -2.45695e-09 1.46593e-17)
(0.012919 -2.46389e-09 1.27554e-16)
(0.0129191 -2.44533e-09 1.66528e-17)
(0.0129192 -2.40719e-09 1.15727e-16)
(0.0129192 -2.35451e-09 -4.92057e-17)
(0.0129193 -2.29239e-09 4.16703e-17)
(0.0129194 -2.22306e-09 9.62483e-17)
(0.0129194 -2.15067e-09 3.97313e-17)
(0.0129195 -2.07175e-09 1.47054e-16)
(0.0129196 -1.99294e-09 -1.18848e-17)
(0.0129196 -1.89529e-09 -9.564e-17)
(0.0129197 -1.80479e-09 -2.05236e-17)
(0.0129197 -1.65039e-09 6.89623e-17)
(0.0129198 -1.53628e-09 -2.19523e-16)
(0.0129198 -1.25934e-09 -1.91343e-16)
(0.0129199 -1.1234e-09 -2.48633e-16)
(0.0129199 -8.99333e-10 -5.08164e-16)
(0.0129199 -1.35888e-09 -3.93327e-19)
(0.01292 -1.97986e-09 -2.1448e-16)
(0.01292 -2.2439e-09 -1.49693e-16)
(0.0129201 -2.60744e-09 -2.58728e-16)
(0.0129201 -2.2451e-09 -3.838e-16)
(0.0129202 -1.88246e-09 -4.90619e-17)
(0.0129202 -1.62819e-09 -2.99415e-16)
(0.0129203 -1.42923e-09 -3.54643e-16)
(0.0129203 -1.23139e-09 -2.27632e-16)
(0.0129203 -1.12613e-09 -4.00373e-16)
(0.0129204 -7.94781e-10 -5.31359e-17)
(0.0129204 -7.16872e-10 -2.53541e-16)
(0.0129204 2.98737e-10 -4.91404e-16)
(0.0129204 2.73861e-10 -3.33062e-16)
(0.0129203 3.40842e-09 -1.75622e-16)
(0.0129202 3.32168e-09 -3.63169e-17)
(0.0129201 8.90779e-09 -2.62884e-16)
(0.0129198 1.16999e-08 -3.86863e-16)
(0.0129196 1.88952e-09 -2.50422e-16)
(0.0129195 -1.2784e-10 -2.93253e-16)
(0.0129195 -1.32799e-10 -6.61645e-17)
(0.0129195 -3.27625e-10 -2.44236e-16)
(0.0129195 2.30919e-10 -2.33541e-16)
(0.0129195 6.15393e-10 -2.67778e-16)
(0.0129195 9.35252e-10 -3.42513e-16)
(0.0129194 8.54621e-10 -5.25688e-17)
(0.0129194 1.07773e-09 -2.13568e-16)
(0.0129194 3.27216e-10 -1.73896e-16)
(0.0129193 1.56766e-09 -1.59013e-16)
(0.0129194 -8.18316e-10 -2.75613e-16)
(0.0129191 8.12189e-09 -7.00829e-17)
(0.0129193 -4.82321e-09 -2.20947e-16)
(0.0129189 6.55286e-08 -2.92385e-16)
(0.0217242 1.66515e-07 -2.10498e-18)
(0.0217232 -6.77025e-08 -1.13358e-16)
(0.0217247 -8.01693e-08 -9.26089e-17)
(0.0217254 -4.71683e-08 -3.50258e-16)
(0.021726 -3.45755e-08 -8.0547e-16)
(0.0217264 -2.1159e-08 -4.33799e-16)
(0.0217266 -1.24785e-08 -7.15898e-16)
(0.0217268 -6.91554e-09 -4.01335e-16)
(0.0217269 -3.1501e-09 -2.46898e-16)
(0.0217269 -7.66691e-10 -5.34422e-16)
(0.0217269 7.35793e-10 -2.78638e-16)
(0.0217269 1.65374e-09 -3.4659e-16)
(0.0217269 2.18529e-09 -3.25231e-16)
(0.0217268 2.46611e-09 -4.40575e-16)
(0.0217268 2.58453e-09 -5.95468e-16)
(0.0217268 2.59781e-09 -3.62784e-16)
(0.0217267 2.54163e-09 -4.09812e-16)
(0.0217267 2.43924e-09 -4.03168e-16)
(0.0217267 2.30743e-09 -5.44745e-16)
(0.0217266 2.15856e-09 -8.0671e-16)
(0.0217266 1.99955e-09 -4.42189e-16)
(0.0217266 1.83195e-09 -6.6796e-16)
(0.0217266 1.65312e-09 -5.37464e-16)
(0.0217265 1.45876e-09 -6.18253e-16)
(0.0217265 1.24495e-09 -8.16223e-16)
(0.0217265 1.00941e-09 -4.27213e-16)
(0.0217265 7.52352e-10 -5.51527e-16)
(0.0217265 4.74847e-10 -4.83045e-16)
(0.0217265 1.78693e-10 -6.50748e-16)
(0.0217265 -1.36013e-10 -8.88689e-16)
(0.0217265 -4.68193e-10 -4.60413e-16)
(0.0217265 -8.20632e-10 -5.61153e-16)
(0.0217265 -1.19005e-09 -5.06289e-16)
(0.0217265 -1.58621e-09 -6.99186e-16)
(0.0217265 -1.99044e-09 -8.73121e-16)
(0.0217266 -2.43477e-09 -4.74481e-16)
(0.0217266 -2.82265e-09 -5.99399e-16)
(0.0217267 -3.29314e-09 -5.38405e-16)
(0.0217267 -3.38165e-09 -6.53494e-16)
(0.0217268 -3.81056e-09 -9.07313e-16)
(0.0217268 -2.42379e-09 -7.15093e-16)
(0.0217269 -2.82296e-09 -6.77913e-16)
(0.0217269 3.67483e-09 -5.11742e-16)
(0.0217268 3.49989e-09 -4.97303e-16)
(0.0217267 1.75318e-08 -4.56518e-16)
(0.0217264 2.34297e-08 -4.09817e-16)
(0.0217261 4.78924e-09 -4.66382e-16)
(0.0217261 -9.08683e-10 -3.59907e-16)
(0.0217261 -2.14878e-09 -3.86833e-16)
(0.0217261 -1.39429e-09 -3.5887e-16)
(0.0217262 -4.49188e-09 -3.16475e-16)
(0.0217262 -4.62515e-09 -3.83664e-16)
(0.0217263 -3.55553e-09 -2.97545e-16)
(0.0217264 -2.59386e-09 -3.37135e-16)
(0.0217264 -1.64346e-09 1.2555e-17)
(0.0217264 -9.65134e-10 -1.48264e-16)
(0.0217264 -6.01134e-10 -2.44201e-16)
(0.0217264 -5.41091e-10 -1.79049e-16)
(0.0217264 -7.66782e-10 -2.33103e-16)
(0.0217265 -1.23382e-09 -9.99455e-19)
(0.0217265 -1.88479e-09 -7.08686e-17)
(0.0217265 -2.65501e-09 -2.0587e-16)
(0.0217266 -3.47915e-09 -1.42198e-16)
(0.0217267 -4.29806e-09 -1.59009e-16)
(0.0217267 -5.06353e-09 6.32051e-17)
(0.0217268 -5.74014e-09 1.00841e-17)
(0.0217269 -6.30545e-09 -6.12212e-17)
(0.021727 -6.74873e-09 -1.82602e-17)
(0.0217271 -7.06907e-09 -4.23567e-17)
(0.0217273 -7.2732e-09 4.88232e-16)
(0.0217274 -7.37315e-09 4.39443e-17)
(0.0217275 -7.3844e-09 -2.79907e-17)
(0.0217276 -7.32366e-09 1.64178e-17)
(0.0217277 -7.20792e-09 5.9109e-18)
(0.0217278 -7.05205e-09 2.05333e-16)
(0.021728 -6.86932e-09 9.46265e-17)
(0.0217281 -6.66789e-09 -7.57035e-18)
(0.0217282 -6.45549e-09 5.85487e-17)
(0.0217283 -6.22833e-09 4.99165e-17)
(0.0217284 -5.99306e-09 4.35259e-16)
(0.0217285 -5.71736e-09 5.29733e-18)
(0.0217286 -5.43626e-09 2.41807e-16)
(0.0217286 -5.01707e-09 1.31742e-16)
(0.0217287 -4.64259e-09 -1.89894e-16)
(0.0217288 -3.913e-09 1.35548e-16)
(0.0217289 -3.4373e-09 -2.36727e-16)
(0.0217289 -2.83198e-09 1.5906e-16)
(0.021729 -3.8542e-09 1.53953e-17)
(0.021729 -5.39458e-09 -2.44014e-16)
(0.0217291 -6.20328e-09 1.51838e-16)
(0.0217292 -7.09142e-09 -2.3001e-16)
(0.0217293 -6.28671e-09 1.21951e-16)
(0.0217294 -5.28048e-09 -6.40061e-17)
(0.0217295 -4.51253e-09 -3.3468e-16)
(0.0217295 -3.86719e-09 -4.91533e-17)
(0.0217296 -3.27546e-09 -2.38212e-16)
(0.0217296 -2.81177e-09 -9.65982e-17)
(0.0217296 -1.9625e-09 -6.13e-17)
(0.0217297 -1.41423e-09 -2.77193e-16)
(0.0217297 9.6629e-10 -1.84473e-16)
(0.0217296 1.64203e-09 -3.46684e-16)
(0.0217296 9.05644e-09 1.15041e-16)
(0.0217294 1.00992e-08 -4.17279e-17)
(0.0217292 2.40887e-08 -3.03549e-16)
(0.0217287 3.15024e-08 8.04854e-17)
(0.0217284 9.24595e-09 -2.69531e-16)
(0.0217283 1.96943e-09 -1.49657e-16)
(0.0217282 1.05384e-09 -8.65803e-17)
(0.0217282 4.60459e-10 -2.95333e-16)
(0.0217282 1.58656e-09 8.08245e-17)
(0.0217281 2.60703e-09 -2.77806e-16)
(0.021728 3.26173e-09 -3.75277e-16)
(0.021728 3.2785e-09 -6.49826e-17)
(0.0217279 3.26812e-09 -1.98766e-16)
(0.0217279 2.16894e-09 6.38473e-17)
(0.0217278 3.46547e-09 -1.48446e-16)
(0.0217279 4.16333e-10 -3.16872e-16)
(0.0217275 1.73131e-08 -9.49895e-17)
(0.0217278 -5.20375e-09 -2.37079e-16)
(0.0217271 1.54797e-07 2.29854e-16)
(0.0306606 2.91454e-07 -1.98764e-17)
(0.0306592 -8.51748e-08 -1.78362e-16)
(0.0306605 -1.36708e-07 -1.40198e-16)
(0.0306614 -8.95292e-08 -5.3697e-16)
(0.0306621 -6.52737e-08 -6.76833e-16)
(0.0306626 -4.13857e-08 -4.91054e-16)
(0.0306629 -2.50199e-08 -6.38672e-16)
(0.0306631 -1.42917e-08 -4.55368e-16)
(0.0306633 -6.9957e-09 -4e-16)
(0.0306633 -2.28066e-09 -4.80572e-16)
(0.0306633 7.38349e-10 -3.06048e-16)
(0.0306633 2.62811e-09 -5.17381e-16)
(0.0306633 3.76674e-09 -4.61033e-16)
(0.0306633 4.4094e-09 -6.50651e-16)
(0.0306632 4.72269e-09 -7.98398e-16)
(0.0306632 4.81677e-09 -5.05335e-16)
(0.0306631 4.76313e-09 -6.15576e-16)
(0.0306631 4.60997e-09 -5.70782e-16)
(0.0306631 4.39207e-09 -7.99602e-16)
(0.030663 4.13392e-09 -1.18765e-15)
(0.030663 3.84898e-09 -6.45627e-16)
(0.0306629 3.54053e-09 -1.10505e-15)
(0.0306629 3.20467e-09 -7.36145e-16)
(0.0306629 2.83459e-09 -1.01581e-15)
(0.0306628 2.42448e-09 -1.30416e-15)
(0.0306628 1.97159e-09 -5.99515e-16)
(0.0306628 1.47671e-09 -7.74106e-16)
(0.0306628 9.42626e-10 -6.6993e-16)
(0.0306628 3.72336e-10 -8.74325e-16)
(0.0306628 -2.32689e-10 -1.19712e-15)
(0.0306628 -8.71768e-10 -4.65337e-16)
(0.0306628 -1.54579e-09 -9.57978e-16)
(0.0306628 -2.25546e-09 -6.98734e-16)
(0.0306628 -3.00638e-09 -9.40381e-16)
(0.0306629 -3.7885e-09 -1.22749e-15)
(0.0306629 -4.61785e-09 -6.5079e-16)
(0.030663 -5.40014e-09 -8.38241e-16)
(0.030663 -6.23986e-09 -7.45063e-16)
(0.0306631 -6.56806e-09 -1.09099e-15)
(0.0306632 -7.19144e-09 -1.23205e-15)
(0.0306632 -5.0955e-09 -9.72086e-16)
(0.0306633 -5.2307e-09 -1.03838e-15)
(0.0306633 5.58963e-09 -7.09182e-16)
(0.0306632 6.64325e-09 -7.07178e-16)
(0.0306631 3.11566e-08 -6.27608e-16)
(0.0306627 4.24539e-08 -5.68095e-16)
(0.0306624 1.20535e-08 -7.57905e-16)
(0.0306624 -6.42923e-11 -4.97836e-16)
(0.0306624 -3.2881e-09 -5.56818e-16)
(0.0306624 -2.51211e-09 -4.93964e-16)
(0.0306624 -7.79499e-09 -4.40531e-16)
(0.0306625 -8.48033e-09 -6.25999e-16)
(0.0306626 -6.8109e-09 -4.04622e-16)
(0.0306626 -5.07899e-09 -5.72155e-16)
(0.0306627 -3.3708e-09 -2.90777e-16)
(0.0306627 -2.14085e-09 -2.22447e-16)
(0.0306627 -1.50609e-09 -4.50548e-16)
(0.0306628 -1.462e-09 -2.4634e-16)
(0.0306628 -1.97167e-09 -4.22283e-16)
(0.0306628 -2.94758e-09 -1.21222e-16)
(0.0306629 -4.27466e-09 -1.19473e-16)
(0.0306629 -5.82394e-09 -3.96287e-16)
(0.030663 -7.46648e-09 -1.97718e-16)
(0.0306631 -9.08694e-09 -3.23532e-16)
(0.0306632 -1.0592e-08 4.12468e-18)
(0.0306633 -1.1914e-08 -1.01286e-17)
(0.0306635 -1.30109e-08 -2.11999e-16)
(0.0306636 -1.38639e-08 -2.51011e-17)
(0.0306638 -1.44729e-08 -1.50797e-16)
(0.030664 -1.48529e-08 7.31592e-17)
(0.0306641 -1.50288e-08 4.49543e-17)
(0.0306643 -1.50318e-08 -1.76336e-16)
(0.0306645 -1.48957e-08 2.45422e-17)
(0.0306646 -1.46538e-08 -9.66352e-17)
(0.0306648 -1.43358e-08 2.03574e-16)
(0.0306649 -1.39665e-08 1.13131e-16)
(0.0306651 -1.35632e-08 -1.13822e-16)
(0.0306652 -1.31372e-08 8.8203e-17)
(0.0306654 -1.26859e-08 -4.31357e-17)
(0.0306655 -1.2212e-08 2.41863e-16)
(0.0306656 -1.16699e-08 6.83868e-17)
(0.0306658 -1.10943e-08 2.68052e-16)
(0.0306659 -1.02901e-08 1.52514e-16)
(0.030666 -9.50585e-09 -2.00665e-16)
(0.0306661 -8.13733e-09 -3.27148e-17)
(0.0306662 -7.11183e-09 -2.60859e-16)
(0.0306663 -5.94235e-09 -9.78713e-17)
(0.0306663 -7.55449e-09 -9.77537e-18)
(0.0306664 -1.02234e-08 -2.89989e-16)
(0.0306665 -1.18105e-08 -7.18622e-17)
(0.0306666 -1.33745e-08 -2.58053e-16)
(0.0306668 -1.20643e-08 -1.63766e-16)
(0.0306669 -1.01714e-08 -1.05915e-16)
(0.030667 -8.60856e-09 -3.84775e-16)
(0.0306671 -7.24095e-09 -1.76961e-16)
(0.0306671 -6.00275e-09 -2.96912e-16)
(0.0306672 -4.89869e-09 -1.71677e-16)
(0.0306672 -3.26226e-09 -9.81628e-17)
(0.0306672 -1.85872e-09 -3.21703e-16)
(0.0306672 2.32246e-09 -2.82594e-16)
(0.0306672 4.36349e-09 -4.01612e-16)
(0.030667 1.71627e-08 -1.45018e-16)
(0.0306668 2.0536e-08 -9.32397e-17)
(0.0306666 4.54135e-08 -3.74608e-16)
(0.030666 5.92676e-08 -2.31434e-16)
(0.0306655 2.29104e-08 -3.30443e-16)
(0.0306653 7.72481e-09 -2.28236e-16)
(0.0306652 4.55079e-09 -1.29291e-16)
(0.0306651 3.15533e-09 -3.60401e-16)
(0.030665 4.74449e-09 -1.9038e-16)
(0.0306649 6.49882e-09 -3.43515e-16)
(0.0306648 7.49459e-09 -4.10843e-16)
(0.0306648 7.63491e-09 -3.64543e-17)
(0.0306646 7.08006e-09 -2.19154e-16)
(0.0306646 5.65177e-09 -1.53245e-17)
(0.0306644 6.32436e-09 -1.81197e-16)
(0.0306646 3.32975e-09 -3.55949e-16)
(0.0306641 2.80076e-08 -7.92154e-17)
(0.0306644 -1.28615e-09 -2.8418e-16)
(0.0306636 2.59988e-07 -7.14259e-18)
(0.0395755 4.24794e-07 -3.39778e-17)
(0.0395738 -8.522e-08 -2.90554e-16)
(0.0395747 -1.88404e-07 -2.02592e-16)
(0.0395756 -1.37506e-07 -5.54343e-16)
(0.0395764 -1.01874e-07 -5.40161e-16)
(0.039577 -6.66169e-08 -6.39948e-16)
(0.0395774 -4.13538e-08 -5.59311e-16)
(0.0395776 -2.43257e-08 -4.53499e-16)
(0.0395778 -1.26392e-08 -4.02627e-16)
(0.0395778 -4.94633e-09 -4.59914e-16)
(0.0395779 6.16826e-11 -2.93812e-16)
(0.0395779 3.26955e-09 -7.4192e-16)
(0.0395779 5.27225e-09 -5.87812e-16)
(0.0395778 6.46539e-09 -9.15644e-16)
(0.0395778 7.10775e-09 -9.72451e-16)
(0.0395778 7.37379e-09 -5.90497e-16)
(0.0395777 7.38145e-09 -8.80262e-16)
(0.0395777 7.21305e-09 -7.32697e-16)
(0.0395776 6.92782e-09 -1.12101e-15)
(0.0395776 6.56598e-09 -1.25881e-15)
(0.0395775 6.14913e-09 -7.15723e-16)
(0.0395775 5.68293e-09 -9.67088e-16)
(0.0395774 5.16285e-09 -8.67196e-16)
(0.0395774 4.58068e-09 -7.83846e-16)
(0.0395774 3.92999e-09 -1.09718e-15)
(0.0395773 3.20851e-09 -6.12531e-16)
(0.0395773 2.41848e-09 -6.99515e-16)
(0.0395773 1.56489e-09 -8.30281e-16)
(0.0395773 6.52393e-10 -8.31987e-16)
(0.0395773 -3.15628e-10 -1.18117e-15)
(0.0395773 -1.33821e-09 -6.6699e-16)
(0.0395773 -2.4138e-09 -7.24455e-16)
(0.0395773 -3.54677e-09 -8.66441e-16)
(0.0395773 -4.739e-09 -9.22812e-16)
(0.0395774 -5.98911e-09 -1.21754e-15)
(0.0395774 -7.2981e-09 -7.01171e-16)
(0.0395775 -8.57194e-09 -7.73798e-16)
(0.0395776 -9.87757e-09 -9.17937e-16)
(0.0395776 -1.05335e-08 -8.9177e-16)
(0.0395777 -1.14053e-08 -1.25094e-15)
(0.0395778 -8.60369e-09 -1.1355e-15)
(0.0395779 -8.32023e-09 -1.06289e-15)
(0.0395779 7.16429e-09 -8.39697e-16)
(0.0395778 1.01735e-08 -9.4496e-16)
(0.0395777 4.64185e-08 -7.72062e-16)
(0.0395773 6.43775e-08 -7.21045e-16)
(0.0395769 2.23788e-08 -7.22416e-16)
(0.0395768 2.54886e-09 -5.72928e-16)
(0.0395768 -3.85223e-09 -7.65065e-16)
(0.0395768 -3.52085e-09 -6.07855e-16)
(0.0395769 -1.13088e-08 -5.63233e-16)
(0.0395769 -1.28492e-08 -5.29586e-16)
(0.039577 -1.07522e-08 -4.54879e-16)
(0.0395771 -8.22137e-09 -4.78748e-16)
(0.0395771 -5.69088e-09 -3.15384e-16)
(0.0395772 -3.86784e-09 -3.32672e-16)
(0.0395772 -2.97876e-09 -3.47938e-16)
(0.0395773 -3.03988e-09 -2.65702e-16)
(0.0395773 -3.99029e-09 -2.879e-16)
(0.0395773 -5.68551e-09 -1.5438e-16)
(0.0395774 -7.93367e-09 -1.96624e-16)
(0.0395775 -1.05214e-08 -2.8593e-16)
(0.0395776 -1.32381e-08 -2.08749e-16)
(0.0395777 -1.58972e-08 -1.32311e-16)
(0.0395779 -1.83497e-08 -1.57407e-16)
(0.0395781 -2.0489e-08 -6.85609e-17)
(0.0395782 -2.22507e-08 -3.31488e-17)
(0.0395784 -2.36076e-08 1.41927e-17)
(0.0395786 -2.45631e-08 8.52842e-17)
(0.0395788 -2.51442e-08 1.35071e-16)
(0.039579 -2.53938e-08 1.42139e-17)
(0.0395792 -2.53643e-08 -4.1094e-18)
(0.0395795 -2.51119e-08 7.80177e-17)
(0.0395797 -2.46911e-08 1.33306e-16)
(0.0395799 -2.41508e-08 2.35751e-16)
(0.0395801 -2.35306e-08 1.05006e-16)
(0.0395802 -2.28584e-08 9.7423e-17)
(0.0395804 -2.21504e-08 1.66402e-16)
(0.0395806 -2.14041e-08 1.92567e-16)
(0.0395808 -2.06166e-08 2.8767e-16)
(0.0395809 -1.97265e-08 4.31491e-16)
(0.0395811 -1.87633e-08 2.75977e-16)
(0.0395812 -1.74647e-08 1.55579e-16)
(0.0395814 -1.61369e-08 7.42722e-17)
(0.0395815 -1.39666e-08 -8.39642e-17)
(0.0395816 -1.21978e-08 5.93279e-17)
(0.0395817 -1.0282e-08 -1.20045e-16)
(0.0395818 -1.23929e-08 -6.43528e-17)
(0.0395819 -1.62362e-08 -2.05602e-17)
(0.039582 -1.87338e-08 -3.58787e-16)
(0.0395822 -2.10677e-08 4.04535e-17)
(0.0395823 -1.92351e-08 -9.87433e-17)
(0.0395825 -1.62951e-08 -1.62744e-16)
(0.0395826 -1.36789e-08 -1.19553e-16)
(0.0395827 -1.13123e-08 -4.39518e-16)
(0.0395827 -9.14017e-09 -2.91053e-17)
(0.0395828 -7.0954e-09 -3.06885e-16)
(0.0395828 -4.35112e-09 -1.35885e-16)
(0.0395828 -1.72649e-09 -5.65214e-17)
(0.0395828 4.67633e-09 -4.54835e-16)
(0.0395827 8.65821e-09 -1.4376e-16)
(0.0395826 2.75914e-08 -3.50469e-16)
(0.0395823 3.43911e-08 -1.57941e-16)
(0.039582 7.17292e-08 -1.33828e-16)
(0.0395813 9.34806e-08 -4.72905e-16)
(0.0395807 4.31514e-08 -6.27761e-17)
(0.0395804 1.84888e-08 -2.13347e-16)
(0.0395803 1.15266e-08 -1.89496e-16)
(0.0395801 8.69953e-09 -1.08455e-16)
(0.03958 1.04468e-08 -3.9347e-16)
(0.0395799 1.28121e-08 -1.13759e-16)
(0.0395797 1.40821e-08 -7.14252e-17)
(0.0395796 1.4214e-08 6.20857e-17)
(0.0395794 1.29181e-08 6.81041e-17)
(0.0395794 1.08746e-08 -2.16405e-17)
(0.0395792 1.06235e-08 1.05697e-16)
(0.0395793 7.60461e-09 -2.79071e-17)
(0.0395788 3.98478e-08 6.28094e-18)
(0.0395791 6.79492e-09 -2.57091e-17)
(0.0395782 3.67211e-07 -9.501e-17)
(0.0481638 5.53843e-07 -1.02974e-17)
(0.048162 -6.93926e-08 -3.57048e-16)
(0.0481626 -2.27216e-07 -2.54691e-16)
(0.0481634 -1.83978e-07 -3.08687e-16)
(0.0481641 -1.40649e-07 -4.08596e-16)
(0.0481647 -9.49644e-08 -4.36444e-16)
(0.0481651 -6.06555e-08 -4.82337e-16)
(0.0481654 -3.67795e-08 -4.24043e-16)
(0.0481656 -2.01492e-08 -4.49555e-16)
(0.0481657 -8.99049e-09 -4.02721e-16)
(0.0481657 -1.59007e-09 -2.7279e-16)
(0.0481658 3.26374e-09 -7.22828e-16)
(0.0481658 6.39702e-09 -6.64037e-16)
(0.0481657 8.35509e-09 -9.4163e-16)
(0.0481657 9.49391e-09 -1.05558e-15)
(0.0481656 1.00581e-08 -5.9372e-16)
(0.0481656 1.02196e-08 -9.05498e-16)
(0.0481655 1.01029e-08 -8.50262e-16)
(0.0481655 9.79784e-09 -1.20011e-15)
(0.0481654 9.36398e-09 -1.31245e-15)
(0.0481654 8.83262e-09 -1.0756e-15)
(0.0481653 8.21252e-09 -1.0442e-15)
(0.0481653 7.49948e-09 -9.53631e-16)
(0.0481653 6.68549e-09 -1.03395e-15)
(0.0481652 5.76541e-09 -1.0995e-15)
(0.0481652 4.73937e-09 -9.00436e-16)
(0.0481652 3.61216e-09 -1.00411e-15)
(0.0481651 2.39151e-09 -1.01663e-15)
(0.0481651 1.08456e-09 -1.06352e-15)
(0.0481651 -3.03001e-10 -1.13184e-15)
(0.0481651 -1.76901e-09 -9.33982e-16)
(0.0481651 -3.30947e-09 -1.03695e-15)
(0.0481651 -4.93078e-09 -1.0568e-15)
(0.0481652 -6.6333e-09 -1.16624e-15)
(0.0481652 -8.42094e-09 -1.23365e-15)
(0.0481653 -1.02866e-08 -9.96479e-16)
(0.0481653 -1.21262e-08 -1.08423e-15)
(0.0481654 -1.39846e-08 -1.11131e-15)
(0.0481655 -1.50401e-08 -1.17288e-15)
(0.0481656 -1.62357e-08 -1.26262e-15)
(0.0481656 -1.27709e-08 -1.2402e-15)
(0.0481657 -1.20131e-08 -1.06824e-15)
(0.0481657 8.2067e-09 -9.26648e-16)
(0.0481657 1.36756e-08 -7.81873e-16)
(0.0481656 6.2222e-08 -8.53054e-16)
(0.0481652 8.77136e-08 -8.56277e-16)
(0.0481648 3.50953e-08 -7.17962e-16)
(0.0481647 7.17567e-09 -6.19407e-16)
(0.0481646 -3.36026e-09 -7.01922e-16)
(0.0481646 -4.03723e-09 -6.62984e-16)
(0.0481646 -1.46155e-08 -6.74891e-16)
(0.0481647 -1.72961e-08 -3.68395e-16)
(0.0481648 -1.50431e-08 -4.73504e-16)
(0.0481649 -1.18264e-08 -4.02588e-16)
(0.0481649 -8.52808e-09 -3.37625e-16)
(0.048165 -6.16383e-09 -4.4074e-16)
(0.048165 -5.10215e-09 -3.0404e-16)
(0.0481651 -5.39585e-09 -2.65476e-16)
(0.0481651 -6.95693e-09 -1.80956e-16)
(0.0481652 -9.57204e-09 -1.40236e-16)
(0.0481653 -1.29572e-08 -2.81108e-16)
(0.0481654 -1.67997e-08 -2.05493e-16)
(0.0481655 -2.07942e-08 -1.9765e-16)
(0.0481657 -2.46739e-08 1.02667e-16)
(0.0481658 -2.82276e-08 2.81101e-17)
(0.048166 -3.1307e-08 -1.32395e-16)
(0.0481663 -3.38247e-08 3.95634e-17)
(0.0481665 -3.57466e-08 6.98729e-17)
(0.0481667 -3.70823e-08 2.09254e-16)
(0.048167 -3.78744e-08 2.02419e-16)
(0.0481672 -3.8188e-08 -1.099e-17)
(0.0481674 -3.81012e-08 1.12517e-16)
(0.0481677 -3.76966e-08 1.46169e-16)
(0.0481679 -3.70539e-08 2.93853e-16)
(0.0481681 -3.62439e-08 3.31305e-16)
(0.0481684 -3.53235e-08 7.86544e-17)
(0.0481686 -3.43323e-08 3.62708e-16)
(0.0481688 -3.32915e-08 2.55496e-16)
(0.048169 -3.21977e-08 6.61602e-16)
(0.0481692 -3.1041e-08 3.35521e-16)
(0.0481694 -2.97406e-08 7.9993e-16)
(0.0481696 -2.83183e-08 1.72521e-16)
(0.0481698 -2.64397e-08 1.82109e-16)
(0.0481699 -2.44627e-08 2.99632e-16)
(0.0481701 -2.13624e-08 -2.13016e-16)
(0.0481702 -1.86888e-08 4.81168e-16)
(0.0481703 -1.58595e-08 -9.63253e-17)
(0.0481704 -1.83095e-08 -6.0475e-17)
(0.0481706 -2.32495e-08 2.44568e-16)
(0.0481707 -2.66865e-08 -3.45008e-16)
(0.0481708 -2.98269e-08 4.66613e-16)
(0.048171 -2.74805e-08 -2.57067e-16)
(0.0481712 -2.3405e-08 -1.27887e-16)
(0.0481713 -1.95305e-08 1.30082e-16)
(0.0481714 -1.5912e-08 -2.98988e-16)
(0.0481714 -1.25171e-08 3.5548e-16)
(0.0481715 -9.23091e-09 -2.8894e-16)
(0.0481715 -5.04883e-09 -1.01726e-16)
(0.0481715 -8.65012e-10 1.97517e-16)
(0.0481715 8.12703e-09 -2.7725e-16)
(0.0481714 1.45125e-08 1.19454e-16)
(0.0481712 4.00308e-08 -2.19633e-16)
(0.0481709 5.11081e-08 -1.59095e-16)
(0.0481706 1.01794e-07 1.0961e-16)
(0.0481698 1.32503e-07 -3.61162e-16)
(0.0481692 6.93195e-08 3.19554e-16)
(0.0481688 3.46902e-08 -2.01333e-16)
(0.0481686 2.26923e-08 -1.92456e-16)
(0.0481684 1.76801e-08 1.23249e-16)
(0.0481682 1.91159e-08 -2.44829e-16)
(0.048168 2.17911e-08 2.54303e-16)
(0.0481678 2.31661e-08 2.77531e-16)
(0.0481676 2.30609e-08 1.8889e-16)
(0.0481675 2.08583e-08 3.15975e-16)
(0.0481674 1.78046e-08 -3.48863e-17)
(0.0481671 1.64703e-08 3.27359e-16)
(0.0481672 1.29909e-08 2.71079e-16)
(0.0481668 5.23614e-08 1.1555e-16)
(0.048167 1.81264e-08 1.96254e-16)
(0.0481661 4.67766e-07 -2.58687e-16)
(0.0560731 6.69967e-07 7.78222e-17)
(0.0560714 -4.20037e-08 -2.26468e-16)
(0.0560717 -2.50103e-07 -2.09093e-16)
(0.0560722 -2.22944e-07 -2.208e-16)
(0.0560728 -1.77371e-07 -3.06031e-16)
(0.0560733 -1.23947e-07 -3.72013e-16)
(0.0560737 -8.16171e-08 -4.05973e-16)
(0.056074 -5.10736e-08 -3.70304e-16)
(0.0560743 -2.93539e-08 -3.5912e-16)
(0.0560744 -1.44624e-08 -3.51627e-16)
(0.0560745 -4.37554e-09 -2.45678e-16)
(0.0560745 2.40682e-09 -7.59747e-16)
(0.0560745 6.92772e-09 -6.95553e-16)
(0.0560745 9.87634e-09 -1.14002e-15)
(0.0560745 1.17029e-08 -1.09843e-15)
(0.0560744 1.27215e-08 -3.29288e-16)
(0.0560744 1.31611e-08 -1.11772e-15)
(0.0560743 1.31933e-08 -9.48289e-16)
(0.0560743 1.29436e-08 -1.45216e-15)
(0.0560742 1.24944e-08 -1.34645e-15)
(0.0560741 1.1889e-08 -1.31015e-15)
(0.0560741 1.11402e-08 -1.13266e-15)
(0.056074 1.02453e-08 -1.0278e-15)
(0.056074 9.19818e-09 -1.24665e-15)
(0.0560739 7.99716e-09 -1.11233e-15)
(0.0560739 6.64686e-09 -1.08679e-15)
(0.0560739 5.15639e-09 -1.43163e-15)
(0.0560738 3.53725e-09 -1.18852e-15)
(0.0560738 1.79997e-09 -1.45341e-15)
(0.0560738 -4.67497e-11 -1.0972e-15)
(0.0560738 -1.99869e-09 -1.12063e-15)
(0.0560738 -4.04966e-09 -1.46795e-15)
(0.0560738 -6.20666e-09 -1.23488e-15)
(0.0560739 -8.46999e-09 -1.42724e-15)
(0.0560739 -1.08464e-08 -1.25058e-15)
(0.0560739 -1.33262e-08 -1.20117e-15)
(0.056074 -1.57885e-08 -1.52529e-15)
(0.0560741 -1.8269e-08 -1.29192e-15)
(0.0560741 -1.97907e-08 -1.42515e-15)
(0.0560742 -2.13889e-08 -1.27823e-15)
(0.0560743 -1.73526e-08 -1.30844e-15)
(0.0560744 -1.61492e-08 -1.0191e-15)
(0.0560744 8.64713e-09 -9.84998e-16)
(0.0560744 1.68024e-08 -9.43619e-16)
(0.0560743 7.76612e-08 -9.24959e-16)
(0.0560739 1.11189e-07 -9.62649e-16)
(0.0560735 4.93166e-08 -6.6314e-16)
(0.0560734 1.36496e-08 -6.64996e-16)
(0.0560733 -1.50802e-09 -7.00316e-16)
(0.0560733 -3.69498e-09 -7.06965e-16)
(0.0560733 -1.73069e-08 -7.60894e-16)
(0.0560733 -2.13994e-08 -4.28085e-16)
(0.0560734 -1.93095e-08 -5.16292e-16)
(0.0560735 -1.56385e-08 -3.03973e-16)
(0.0560735 -1.17447e-08 -2.98574e-16)
(0.0560736 -8.98346e-09 -5.84144e-16)
(0.0560737 -7.88827e-09 -2.1858e-16)
(0.0560737 -8.56051e-09 -2.77371e-16)
(0.0560738 -1.0884e-08 -5.95642e-17)
(0.0560739 -1.457e-08 -9.40057e-17)
(0.056074 -1.92351e-08 -3.99193e-16)
(0.0560741 -2.44608e-08 -9.87558e-17)
(0.0560742 -2.9844e-08 -1.78901e-16)
(0.0560744 -3.50357e-08 1.14597e-16)
(0.0560746 -3.97633e-08 7.94142e-17)