/*--------------------------------*- C++ -*----------------------------------*\
  =========                 |
  \\      /  F ield         | OpenFOAM: The Open Source CFD Toolbox
   \\    /   O peration     | Website:  https://openfoam.org
    \\  /    A nd           | Version:  7
     \\/     M anipulation  |
\*---------------------------------------------------------------------------*/
FoamFile
{
    version     2.0;
    format      ascii;
    class       surfaceScalarField;
    location    "16500";
    object      phi;
}
// * * * * * * * * * * * * * * * * * * * * * * * * * * * * * * * * * * * * * //

dimensions      [0 3 -1 0 0 0 0];

internalField   nonuniform List<scalar> 
7920
(
0.000129676
-6.35446e-10
0.000129676
-5.49782e-10
0.000129676
-4.74611e-10
0.000129676
-4.04211e-10
0.000129676
-3.37857e-10
0.000129676
-2.77408e-10
0.000129676
-2.19854e-10
0.000129676
-1.63479e-10
0.000129676
-1.10169e-10
0.000129676
-6.1644e-11
0.000129676
-1.35785e-11
0.000129676
3.41612e-11
0.000129676
7.95629e-11
0.000129676
1.23986e-10
0.000129676
1.6599e-10
0.000129676
2.0552e-10
0.000129676
2.43407e-10
0.000129676
2.80081e-10
0.000129676
3.16986e-10
0.000129676
3.52214e-10
0.000129676
3.83954e-10
0.000129676
4.13453e-10
0.000129675
4.42134e-10
0.000129675
4.70097e-10
0.000129675
4.96605e-10
0.000129675
5.20424e-10
0.000129675
5.4303e-10
0.000129675
5.65553e-10
0.000129675
5.84021e-10
0.000129675
6.00957e-10
0.000129675
6.17226e-10
0.000129675
6.30937e-10
0.000129675
6.43787e-10
0.000129675
6.56312e-10
0.000129675
6.68176e-10
0.000129675
6.77021e-10
0.000129675
6.84746e-10
0.000129675
6.92034e-10
0.000129675
6.98574e-10
0.000129675
7.05197e-10
0.000129675
7.11302e-10
0.000129675
7.16651e-10
0.000129675
7.21154e-10
0.000129675
7.24308e-10
0.000129675
7.25841e-10
0.000129676
7.27394e-10
0.000129676
7.2904e-10
0.000129676
7.30114e-10
0.000129676
7.30376e-10
0.000129676
7.30122e-10
0.000129676
7.30087e-10
0.000129676
7.30482e-10
0.000129676
7.28917e-10
0.000129676
7.25203e-10
0.000129676
7.22183e-10
0.000129676
7.17963e-10
0.000129676
7.13441e-10
0.000129676
7.09926e-10
0.000129676
7.04933e-10
0.000129676
6.98326e-10
0.000129676
6.90601e-10
0.000129676
6.83548e-10
0.000129676
6.75834e-10
0.000129676
6.6803e-10
0.000129676
6.61571e-10
0.000129676
6.54709e-10
0.000129676
6.46196e-10
0.000129676
6.37044e-10
0.000129676
6.29763e-10
0.000129676
6.22082e-10
0.000129676
6.11954e-10
0.000129676
5.9958e-10
0.000129676
5.84331e-10
0.000129676
5.66116e-10
0.000129676
5.40456e-10
0.000129676
5.13793e-10
4.4526e-10
0.000125571
-1.03518e-09
0.000125571
-1.3846e-09
0.000125571
-1.67339e-09
0.000125571
-1.89173e-09
0.000125571
-2.04158e-09
0.000125571
-2.13494e-09
0.000125571
-2.18005e-09
0.000125572
-2.18256e-09
0.000125572
-2.14923e-09
0.000125572
-2.08811e-09
0.000125572
-2.00664e-09
0.000125572
-1.90872e-09
0.000125572
-1.79976e-09
0.000125572
-1.68656e-09
0.000125572
-1.57192e-09
0.000125572
-1.45586e-09
0.000125572
-1.34193e-09
0.000125572
-1.2301e-09
0.000125572
-1.12369e-09
0.000125572
-1.02343e-09
0.000125572
-9.32419e-10
0.000125572
-8.52335e-10
0.000125572
-7.83265e-10
0.000125572
-6.95159e-10
0.000125571
-5.91564e-10
0.000125571
-5.07904e-10
0.000125571
-4.3578e-10
0.000125571
-3.67872e-10
0.000125571
-3.03418e-10
0.000125571
-2.44425e-10
0.000125571
-1.88101e-10
0.000125571
-1.32548e-10
0.000125571
-7.95995e-11
0.000125571
-3.15018e-11
0.000125571
1.58694e-11
0.000125571
6.2701e-11
0.000125571
1.07643e-10
0.000125571
1.51424e-10
0.000125571
1.92583e-10
0.000125571
2.31059e-10
0.000125571
2.67373e-10
0.000125571
3.02446e-10
0.000125571
3.38387e-10
0.000125571
3.71973e-10
0.000125571
4.01747e-10
0.000125571
4.3009e-10
0.000125571
4.56946e-10
0.000125571
4.83011e-10
0.000125571
5.07813e-10
0.000125571
5.29863e-10
0.000125571
5.50974e-10
0.000125571
5.71744e-10
0.000125571
5.88622e-10
0.000125571
6.04151e-10
0.000125571
6.18991e-10
0.000125571
6.31483e-10
0.000125571
6.43024e-10
0.000125571
6.54478e-10
0.000125571
6.65547e-10
0.000125571
6.73253e-10
0.000125571
6.79819e-10
0.000125571
6.86376e-10
0.000125571
6.91992e-10
0.000125571
6.98021e-10
0.000125571
7.03626e-10
0.000125571
7.08608e-10
0.000125571
7.12886e-10
0.000125571
7.15291e-10
0.000125571
7.16471e-10
0.000125571
7.17547e-10
0.000125571
7.19165e-10
0.000125571
7.2036e-10
0.000125571
7.20242e-10
0.000125571
7.1982e-10
0.000125571
7.19786e-10
0.000125571
7.20238e-10
0.000125571
7.18626e-10
0.000125571
7.1502e-10
0.000125571
7.11928e-10
0.000125571
7.07733e-10
0.000125571
7.03759e-10
0.000125571
7.00694e-10
0.000125571
6.95814e-10
0.000125571
6.89226e-10
0.000125571
6.82032e-10
0.000125571
6.75147e-10
0.000125571
6.67501e-10
0.000125571
6.59923e-10
0.000125571
6.53426e-10
0.000125571
6.46986e-10
0.000125571
6.38604e-10
0.000125571
6.29859e-10
0.000125571
6.22841e-10
0.000125571
6.14777e-10
0.000125571
6.04937e-10
0.000125571
5.93339e-10
0.000125571
5.78605e-10
0.000125571
5.60928e-10
0.000125571
5.35574e-10
0.000125571
5.10664e-10
0.000125571
4.3855e-10
0.000125571
3.44936e-10
0.000125571
2.99969e-10
0.000125571
2.69915e-10
0.000125571
2.43149e-10
0.000125571
2.20982e-10
0.000125571
2.0165e-10
0.000125571
1.86182e-10
0.000125571
1.73978e-10
0.000125571
1.62569e-10
0.000125571
1.51748e-10
0.000125571
1.41812e-10
0.000125571
1.30571e-10
0.000125571
1.10928e-10
0.000125571
8.76506e-11
0.000125571
4.00913e-11
0.000125571
-1.3271e-11
0.000125571
-1.41196e-10
0.000125571
-3.0962e-10
-6.06098e-10
0.000121551
-1.02672e-09
0.000121551
-1.37582e-09
0.000121551
-1.66793e-09
0.000121551
-1.8893e-09
0.000121551
-2.04177e-09
0.000121551
-2.13735e-09
0.000121551
-2.18368e-09
0.000121551
-2.18699e-09
0.000121551
-2.15349e-09
0.000121551
-2.09139e-09
0.000121551
-2.00928e-09
0.000121551
-1.91065e-09
0.000121551
-1.80115e-09
0.000121551
-1.68709e-09
0.000121551
-1.57104e-09
0.000121551
-1.45437e-09
0.000121551
-1.33953e-09
0.000121551
-1.22659e-09
0.000121551
-1.11977e-09
0.000121551
-1.01887e-09
0.000121551
-9.27356e-10
0.000121551
-8.4547e-10
0.000121551
-7.75195e-10
0.000121551
-6.85829e-10
0.000121551
-5.77121e-10
0.000121551
-4.87387e-10
0.000121551
-4.11778e-10
0.000121551
-3.43064e-10
0.000121551
-2.78281e-10
0.000121551
-2.19114e-10
0.000121551
-1.63197e-10
0.000121551
-1.07667e-10
0.000121551
-5.45601e-11
0.000121551
-6.27317e-12
0.000121551
4.09823e-11
0.000121551
8.73647e-11
0.000121551
1.31931e-10
0.000121551
1.75542e-10
0.000121551
2.16193e-10
0.000121551
2.53562e-10
0.000121551
2.88883e-10
0.000121551
3.22907e-10
0.000121551
3.58024e-10
0.000121551
3.90061e-10
0.000121551
4.17991e-10
0.000121551
4.45158e-10
0.000121551
4.70506e-10
0.000121551
4.95223e-10
0.000121551
5.18306e-10
0.000121551
5.38643e-10
0.000121551
5.58318e-10
0.000121551
5.77183e-10
0.000121551
5.92842e-10
0.000121551
6.07105e-10
0.000121551
6.19946e-10
0.000121551
6.3126e-10
0.000121551
6.41846e-10
0.000121551
6.52299e-10
0.000121551
6.62136e-10
0.000121551
6.6876e-10
0.000121551
6.74397e-10
0.000121551
6.7982e-10
0.000121551
6.84532e-10
0.000121551
6.8979e-10
0.000121551
6.95108e-10
0.000121551
6.9968e-10
0.000121551
7.03402e-10
0.000121551
7.05029e-10
0.000121551
7.057e-10
0.000121551
7.06325e-10
0.000121551
7.07932e-10
0.000121551
7.0914e-10
0.000121551
7.08625e-10
0.000121551
7.08053e-10
0.000121551
7.07997e-10
0.000121551
7.08136e-10
0.000121551
7.06241e-10
0.000121551
7.02961e-10
0.000121551
6.99607e-10
0.000121551
6.9562e-10
0.000121551
6.92312e-10
0.000121551
6.8962e-10
0.000121551
6.84723e-10
0.000121551
6.78085e-10
0.000121551
6.71507e-10
0.000121551
6.64576e-10
0.000121551
6.56947e-10
0.000121551
6.49526e-10
0.000121551
6.43012e-10
0.000121551
6.37051e-10
0.000121551
6.28913e-10
0.000121551
6.20455e-10
0.000121551
6.13685e-10
0.000121551
6.05667e-10
0.000121551
5.96258e-10
0.000121551
5.85368e-10
0.000121551
5.71107e-10
0.000121551
5.53896e-10
0.000121551
5.29132e-10
0.000121551
5.03611e-10
0.000121551
4.45303e-10
0.000121551
3.56524e-10
0.000121551
2.94455e-10
0.000121551
2.55589e-10
0.000121551
2.27574e-10
0.000121551
2.06477e-10
0.000121551
1.87887e-10
0.000121551
1.73115e-10
0.000121551
1.62054e-10
0.000121551
1.51068e-10
0.000121551
1.40556e-10
0.000121551
1.30384e-10
0.000121551
1.18697e-10
0.000121551
9.90791e-11
0.000121551
7.55755e-11
0.000121551
2.74648e-11
0.000121551
-2.59497e-11
0.000121551
-1.5351e-10
0.000121551
-3.23358e-10
-6.10459e-10
0.000117612
-1.01346e-09
0.000117612
-1.3603e-09
0.000117612
-1.65535e-09
0.000117612
-1.88e-09
0.000117612
-2.03548e-09
0.000117612
-2.13346e-09
0.000117612
-2.18122e-09
0.000117612
-2.18528e-09
0.000117612
-2.15192e-09
0.000117612
-2.08958e-09
0.000117612
-2.0072e-09
0.000117612
-1.9083e-09
0.000117612
-1.79856e-09
0.000117612
-1.68414e-09
0.000117612
-1.56703e-09
0.000117612
-1.4498e-09
0.000117612
-1.33464e-09
0.000117612
-1.22108e-09
0.000117612
-1.1136e-09
0.000117612
-1.01247e-09
0.000117612
-9.20904e-10
0.000117612
-8.37256e-10
0.000117612
-7.64696e-10
0.000117612
-6.78866e-10
0.000117612
-5.7416e-10
0.000117612
-4.81378e-10
0.000117612
-4.00955e-10
0.000117612
-3.29301e-10
0.000117612
-2.62551e-10
0.000117612
-2.0207e-10
0.000117612
-1.4518e-10
0.000117612
-8.84909e-11
0.000117612
-3.50526e-11
0.000117612
1.35912e-11
0.000117612
6.14789e-11
0.000117612
1.08153e-10
0.000117612
1.52507e-10
0.000117612
1.9608e-10
0.000117612
2.36396e-10
0.000117612
2.72851e-10
0.000117612
3.07417e-10
0.000117612
3.40973e-10
0.000117612
3.75453e-10
0.000117612
4.06179e-10
0.000117612
4.32433e-10
0.000117612
4.58192e-10
0.000117612
4.82599e-10
0.000117612
5.06189e-10
0.000117612
5.27456e-10
0.000117612
5.46179e-10
0.000117612
5.64485e-10
0.000117612
5.81573e-10
0.000117612
5.96221e-10
0.000117612
6.09278e-10
0.000117612
6.20184e-10
0.000117612
6.30201e-10
0.000117612
6.3983e-10
0.000117612
6.4931e-10
0.000117612
6.57779e-10
0.000117612
6.63461e-10
0.000117612
6.68071e-10
0.000117612
6.72328e-10
0.000117612
6.76128e-10
0.000117612
6.80463e-10
0.000117612
6.85497e-10
0.000117612
6.89527e-10
0.000117612
6.92672e-10
0.000117612
6.93479e-10
0.000117612
6.93207e-10
0.000117612
6.93785e-10
0.000117612
6.95493e-10
0.000117612
6.96171e-10
0.000117612
6.95519e-10
0.000117612
6.94914e-10
0.000117612
6.94461e-10
0.000117612
6.94176e-10
0.000117612
6.91816e-10
0.000117612
6.88897e-10
0.000117612
6.85668e-10
0.000117612
6.81818e-10
0.000117612
6.79002e-10
0.000117612
6.7683e-10
0.000117612
6.71719e-10
0.000117612
6.6503e-10
0.000117612
6.58874e-10
0.000117612
6.51891e-10
0.000117612
6.44295e-10
0.000117612
6.36964e-10
0.000117612
6.30435e-10
0.000117612
6.24724e-10
0.000117612
6.17255e-10
0.000117612
6.09036e-10
0.000117612
6.02433e-10
0.000117612
5.94827e-10
0.000117612
5.8579e-10
0.000117612
5.75552e-10
0.000117612
5.61957e-10
0.000117612
5.45148e-10
0.000117612
5.21119e-10
0.000117612
4.93871e-10
0.000117612
4.50499e-10
0.000117612
3.78168e-10
0.000117612
3.08055e-10
0.000117612
2.57642e-10
0.000117612
2.23759e-10
0.000117612
2.0033e-10
0.000117612
1.80621e-10
0.000117612
1.65664e-10
0.000117612
1.54641e-10
0.000117612
1.43427e-10
0.000117612
1.32915e-10
0.000117612
1.22295e-10
0.000117612
1.09908e-10
0.000117612
8.98762e-11
0.000117612
6.57852e-11
0.000117612
1.72491e-11
0.000117612
-3.62224e-11
0.000117612
-1.63253e-10
0.000117612
-3.33654e-10
-6.11264e-10
0.000113752
-9.95916e-10
0.000113752
-1.33802e-09
0.000113752
-1.63471e-09
0.000113752
-1.86298e-09
0.000113752
-2.02173e-09
0.000113752
-2.12255e-09
0.000113752
-2.17226e-09
0.000113752
-2.17717e-09
0.000113752
-2.14433e-09
0.000113752
-2.08255e-09
0.000113752
-2.00033e-09
0.000113752
-1.90137e-09
0.000113752
-1.79172e-09
0.000113752
-1.67738e-09
0.000113752
-1.55985e-09
0.000113752
-1.44223e-09
0.000113752
-1.32736e-09
0.000113751
-1.21365e-09
0.000113751
-1.10536e-09
0.000113751
-1.00414e-09
0.000113751
-9.12624e-10
0.000113751
-8.27653e-10
0.000113751
-7.52517e-10
0.000113751
-6.70137e-10
0.000113751
-5.7274e-10
0.000113751
-4.81563e-10
0.000113751
-3.98907e-10
0.000113751
-3.24127e-10
0.000113751
-2.5482e-10
0.000113751
-1.9245e-10
0.000113751
-1.33346e-10
0.000113751
-7.48079e-11
0.000113751
-2.07647e-11
0.000113751
2.84637e-11
0.000113751
7.73589e-11
0.000113751
1.24865e-10
0.000113751
1.69435e-10
0.000113751
2.12805e-10
0.000113751
2.52885e-10
0.000113751
2.88861e-10
0.000113751
3.22949e-10
0.000113751
3.56301e-10
0.000113751
3.90253e-10
0.000113751
4.20087e-10
0.000113751
4.44842e-10
0.000113751
4.69093e-10
0.000113751
4.9284e-10
0.000113751
5.15387e-10
0.000113751
5.34956e-10
0.000113751
5.52345e-10
0.000113751
5.69332e-10
0.000113751
5.84662e-10
0.000113751
5.98028e-10
0.000113751
6.10151e-10
0.000113751
6.19799e-10
0.000113751
6.2828e-10
0.000113751
6.36584e-10
0.000113751
6.45061e-10
0.000113751
6.52353e-10
0.000113751
6.56993e-10
0.000113751
6.60414e-10
0.000113751
6.63463e-10
0.000113751
6.66719e-10
0.000113751
6.70374e-10
0.000113751
6.74565e-10
0.000113751
6.77792e-10
0.000113751
6.80343e-10
0.000113751
6.80586e-10
0.000113751
6.79344e-10
0.000113751
6.79787e-10
0.000113751
6.81644e-10
0.000113751
6.818e-10
0.000113751
6.81039e-10
0.000113751
6.80164e-10
0.000113751
6.78825e-10
0.000113751
6.7836e-10
0.000113751
6.75781e-10
0.000113751
6.72748e-10
0.000113751
6.69897e-10
0.000113751
6.6647e-10
0.000113751
6.6404e-10
0.000113751
6.62147e-10
0.000113751
6.56804e-10
0.000113751
6.50194e-10
0.000113751
6.4435e-10
0.000113752
6.37167e-10
0.000113752
6.29671e-10
0.000113752
6.22345e-10
0.000113752
6.15794e-10
0.000113752
6.10205e-10
0.000113752
6.03549e-10
0.000113752
5.95748e-10
0.000113752
5.89213e-10
0.000113752
5.82427e-10
0.000113752
5.7371e-10
0.000113752
5.63769e-10
0.000113752
5.5097e-10
0.000113752
5.34793e-10
0.000113752
5.11854e-10
0.000113752
4.82658e-10
0.000113752
4.5004e-10
0.000113752
3.97009e-10
0.000113752
3.29422e-10
0.000113752
2.71612e-10
0.000113752
2.30666e-10
0.000113752
2.02496e-10
0.000113752
1.80145e-10
0.000113752
1.64003e-10
0.000113752
1.51981e-10
0.000113752
1.39923e-10
0.000113752
1.28854e-10
0.000113752
1.17456e-10
0.000113752
1.04129e-10
0.000113752
8.34005e-11
0.000113752
5.86373e-11
0.000113752
9.53775e-12
0.000113752
-4.39932e-11
0.000113752
-1.70305e-10
0.000113752
-3.40759e-10
-6.08705e-10
0.000109966
-9.74149e-10
0.000109966
-1.30924e-09
0.000109966
-1.60597e-09
0.000109966
-1.83743e-09
0.000109966
-1.99962e-09
0.000109966
-2.10407e-09
0.000109966
-2.15658e-09
0.000109966
-2.16273e-09
0.000109966
-2.13061e-09
0.000109966
-2.06997e-09
0.000109966
-1.98834e-09
0.000109966
-1.88961e-09
0.000109965
-1.78076e-09
0.000109965
-1.66691e-09
0.000109965
-1.54947e-09
0.000109965
-1.43209e-09
0.000109965
-1.31761e-09
0.000109965
-1.20372e-09
0.000109965
-1.0951e-09
0.000109965
-9.9418e-10
0.000109965
-9.02441e-10
0.000109965
-8.16352e-10
0.000109965
-7.38839e-10
0.000109965
-6.5864e-10
0.000109965
-5.68534e-10
0.000109965
-4.82163e-10
0.000109965
-4.00562e-10
0.000109965
-3.24266e-10
0.000109965
-2.5289e-10
0.000109965
-1.88226e-10
0.000109965
-1.26694e-10
0.000109965
-6.63002e-11
0.000109965
-1.0969e-11
0.000109965
3.91523e-11
0.000109965
8.90464e-11
0.000109965
1.37439e-10
0.000109965
1.82521e-10
0.000109965
2.26129e-10
0.000109965
2.65733e-10
0.000109965
3.01258e-10
0.000109965
3.35504e-10
0.000109965
3.68988e-10
0.000109965
4.02417e-10
0.000109965
4.3133e-10
0.000109965
4.54678e-10
0.000109965
4.77739e-10
0.000109965
5.00929e-10
0.000109965
5.22699e-10
0.000109965
5.40927e-10
0.000109965
5.56762e-10
0.000109965
5.72393e-10
0.000109965
5.86193e-10
0.000109965
5.98203e-10
0.000109965
6.09723e-10
0.000109965
6.18318e-10
0.000109965
6.2497e-10
0.000109965
6.32035e-10
0.000109965
6.39526e-10
0.000109965
6.45409e-10
0.000109965
6.48967e-10
0.000109965
6.51369e-10
0.000109965
6.53211e-10
0.000109965
6.56041e-10
0.000109965
6.59159e-10
0.000109965
6.62315e-10
0.000109965
6.64492e-10
0.000109965
6.66106e-10
0.000109965
6.6605e-10
0.000109965
6.6444e-10
0.000109965
6.64512e-10
0.000109965
6.66211e-10
0.000109965
6.66042e-10
0.000109965
6.64981e-10
0.000109965
6.63494e-10
0.000109965
6.61368e-10
0.000109965
6.60797e-10
0.000109965
6.57884e-10
0.000109965
6.54704e-10
0.000109965
6.52522e-10
0.000109965
6.49776e-10
0.000109965
6.47644e-10
0.000109966
6.45347e-10
0.000109966
6.40006e-10
0.000109966
6.33741e-10
0.000109966
6.27786e-10
0.000109966
6.20451e-10
0.000109966
6.13224e-10
0.000109966
6.05753e-10
0.000109966
5.9918e-10
0.000109966
5.93664e-10
0.000109966
5.87776e-10
0.000109966
5.80762e-10
0.000109966
5.74445e-10
0.000109966
5.68417e-10
0.000109966
5.60196e-10
0.000109966
5.50528e-10
0.000109966
5.38352e-10
0.000109966
5.22679e-10
0.000109966
5.00981e-10
0.000109966
4.70388e-10
0.000109966
4.44287e-10
0.000109966
4.08477e-10
0.000109966
3.50033e-10
0.000109966
2.91147e-10
0.000109966
2.4477e-10
0.000109966
2.11194e-10
0.000109966
1.85733e-10
0.000109966
1.67696e-10
0.000109966
1.53755e-10
0.000109966
1.40314e-10
0.000109966
1.28212e-10
0.000109966
1.15713e-10
0.000109966
1.01231e-10
0.000109966
7.9652e-11
0.000109966
5.41214e-11
0.000109966
4.33995e-12
0.000109966
-4.9596e-11
0.000109966
-1.75005e-10
0.000109966
-3.44364e-10
-6.02465e-10
0.000106251
-9.47892e-10
0.000106251
-1.27421e-09
0.000106251
-1.56931e-09
0.000106251
-1.80272e-09
0.000106251
-1.96892e-09
0.000106251
-2.0781e-09
0.000106251
-2.1338e-09
0.000106251
-2.14179e-09
0.000106251
-2.11104e-09
0.000106251
-2.0517e-09
0.000106251
-1.97095e-09
0.000106251
-1.87314e-09
0.000106251
-1.76595e-09
0.000106251
-1.65287e-09
0.000106251
-1.53601e-09
0.000106251
-1.41951e-09
0.000106251
-1.30492e-09
0.000106251
-1.19105e-09
0.000106251
-1.08297e-09
0.000106251
-9.8259e-10
0.000106251
-8.90251e-10
0.000106251
-8.03039e-10
0.000106251
-7.23719e-10
0.000106251
-6.44261e-10
0.000106251
-5.60073e-10
0.000106251
-4.79944e-10
0.000106251
-4.01923e-10
0.000106251
-3.2662e-10
0.000106251
-2.54365e-10
0.000106251
-1.87323e-10
0.000106251
-1.23595e-10
0.000106251
-6.19581e-11
0.000106251
-5.1343e-12
0.000106251
4.64229e-11
0.000106251
9.73089e-11
0.000106251
1.4621e-10
0.00010625
1.91973e-10
0.00010625
2.36228e-10
0.00010625
2.75298e-10
0.00010625
3.10444e-10
0.00010625
3.44977e-10
0.00010625
3.78862e-10
0.00010625
4.11905e-10
0.00010625
4.39767e-10
0.00010625
4.61762e-10
0.00010625
4.83781e-10
0.00010625
5.06954e-10
0.00010625
5.28073e-10
0.00010625
5.44871e-10
0.00010625
5.58976e-10
0.00010625
5.73224e-10
0.00010625
5.85967e-10
0.00010625
5.97034e-10
0.00010625
6.07781e-10
0.00010625
6.14997e-10
0.00010625
6.20049e-10
0.00010625
6.2615e-10
0.00010625
6.32669e-10
0.00010625
6.36822e-10
0.00010625
6.39398e-10
0.00010625
6.40932e-10
0.00010625
6.41558e-10
0.00010625
6.43878e-10
0.00010625
6.4649e-10
0.000106251
6.48685e-10
0.000106251
6.49582e-10
0.000106251
6.49984e-10
0.000106251
6.49706e-10
0.000106251
6.48267e-10
0.000106251
6.48089e-10
0.000106251
6.49337e-10
0.000106251
6.48614e-10
0.000106251
6.4708e-10
0.000106251
6.44913e-10
0.000106251
6.42107e-10
0.000106251
6.41309e-10
0.000106251
6.38159e-10
0.000106251
6.35274e-10
0.000106251
6.33919e-10
0.000106251
6.31675e-10
0.000106251
6.29585e-10
0.000106251
6.26731e-10
0.000106251
6.21473e-10
0.000106251
6.15564e-10
0.000106251
6.09223e-10
0.000106251
6.01839e-10
0.000106251
5.9483e-10
0.000106251
5.87226e-10
0.000106251
5.80692e-10
0.000106251
5.75256e-10
0.000106251
5.70296e-10
0.000106251
5.64346e-10
0.000106251
5.58545e-10
0.000106251
5.52725e-10
0.000106251
5.45095e-10
0.000106251
5.36287e-10
0.000106251
5.24309e-10
0.000106251
5.08642e-10
0.000106251
4.88232e-10
0.000106251
4.57323e-10
0.000106251
4.34739e-10
0.000106251
4.11962e-10
0.000106251
3.65155e-10
0.000106251
3.10485e-10
0.000106251
2.62032e-10
0.000106251
2.24058e-10
0.000106251
1.9586e-10
0.000106251
1.75491e-10
0.000106251
1.59055e-10
0.000106251
1.44262e-10
0.000106251
1.30787e-10
0.000106251
1.16535e-10
0.000106251
1.00727e-10
0.000106251
7.85814e-11
0.000106251
5.21218e-11
0.000106251
1.58036e-12
0.000106251
-5.31047e-11
0.000106251
-1.77389e-10
0.000106251
-3.44451e-10
-5.92517e-10
0.000102604
-9.16561e-10
0.000102604
-1.23283e-09
0.000102604
-1.52479e-09
0.000102604
-1.75884e-09
0.000102604
-1.9297e-09
0.000102603
-2.04473e-09
0.000102603
-2.10367e-09
0.000102603
-2.11425e-09
0.000102603
-2.0857e-09
0.000102603
-2.02787e-09
0.000102603
-1.94829e-09
0.000102603
-1.85225e-09
0.000102603
-1.74739e-09
0.000102603
-1.6351e-09
0.000102603
-1.51932e-09
0.000102603
-1.40437e-09
0.000102603
-1.28932e-09
0.000102603
-1.17584e-09
0.000102603
-1.0693e-09
0.000102603
-9.69003e-10
0.000102603
-8.75479e-10
0.000102603
-7.87507e-10
0.000102603
-7.07254e-10
0.000102603
-6.27446e-10
0.000102603
-5.47253e-10
0.000102603
-4.73551e-10
0.000102603
-4.00683e-10
0.000102603
-3.2821e-10
0.000102603
-2.56848e-10
0.000102603
-1.8801e-10
0.000102603
-1.22242e-10
0.000102603
-6.03276e-11
0.000102603
-2.31886e-12
0.000102603
5.11624e-11
0.000102603
1.0279e-10
0.000102603
1.51723e-10
0.000102603
1.98434e-10
0.000102603
2.43014e-10
0.000102603
2.81547e-10
0.000102603
3.16846e-10
0.000102603
3.51311e-10
0.000102603
3.85811e-10
0.000102603
4.18683e-10
0.000102603
4.45292e-10
0.000102603
4.66307e-10
0.000102603
4.87226e-10
0.000102603
5.10831e-10
0.000102603
5.31446e-10
0.000102603
5.46273e-10
0.000102603
5.58858e-10
0.000102603
5.71764e-10
0.000102603
5.83639e-10
0.000102603
5.94512e-10
0.000102603
6.04034e-10
0.000102603
6.09409e-10
0.000102603
6.13391e-10
0.000102603
6.18661e-10
0.000102603
6.24129e-10
0.000102603
6.26396e-10
0.000102603
6.28355e-10
0.000102603
6.29135e-10
0.000102603
6.28482e-10
0.000102603
6.30355e-10
0.000102603
6.32127e-10
0.000102603
6.33332e-10
0.000102603
6.32949e-10
0.000102603
6.31953e-10
0.000102603
6.3181e-10
0.000102603
6.30748e-10
0.000102603
6.30277e-10
0.000102603
6.31072e-10
0.000102603
6.29551e-10
0.000102603
6.27406e-10
0.000102603
6.24432e-10
0.000102603
6.21028e-10
0.000102603
6.1998e-10
0.000102603
6.16758e-10
0.000102603
6.14772e-10
0.000102603
6.14104e-10
0.000102603
6.1204e-10
0.000102603
6.09927e-10
0.000102604
6.06573e-10
0.000102604
6.01386e-10
0.000102604
5.95544e-10
0.000102604
5.88991e-10
0.000102604
5.81467e-10
0.000102604
5.7435e-10
0.000102604
5.66811e-10
0.000102604
5.60437e-10
0.000102604
5.55139e-10
0.000102604
5.51512e-10
0.000102604
5.46822e-10
0.000102604
5.41304e-10
0.000102604
5.35479e-10
0.000102604
5.28679e-10
0.000102604
5.20966e-10
0.000102604
5.08807e-10
0.000102604
4.93065e-10
0.000102604
4.73798e-10
0.000102604
4.43199e-10
0.000102604
4.22293e-10
0.000102604
4.08434e-10
0.000102604
3.73319e-10
0.000102604
3.26235e-10
0.000102604
2.7856e-10
0.000102604
2.38271e-10
0.000102604
2.08781e-10
0.000102604
1.8569e-10
0.000102604
1.66925e-10
0.000102604
1.5116e-10
0.000102604
1.35895e-10
0.000102604
1.19241e-10
0.000102604
1.0214e-10
0.000102604
7.99015e-11
0.000102604
5.25063e-11
0.000102604
1.11378e-12
0.000102604
-5.47101e-11
0.000102604
-1.77482e-10
0.000102604
-3.41596e-10
-5.78822e-10
9.90199e-05
-8.80049e-10
9.90199e-05
-1.18493e-09
9.90198e-05
-1.47201e-09
9.90197e-05
-1.70606e-09
9.90197e-05
-1.88248e-09
9.90197e-05
-2.00403e-09
9.90196e-05
-2.06621e-09
9.90196e-05
-2.08031e-09
9.90196e-05
-2.05448e-09
9.90195e-05
-1.99865e-09
9.90195e-05
-1.92053e-09
9.90195e-05
-1.8271e-09
9.90195e-05
-1.72526e-09
9.90194e-05
-1.61336e-09
9.90194e-05
-1.4994e-09
9.90194e-05
-1.38664e-09
9.90194e-05
-1.27065e-09
9.90194e-05
-1.1581e-09
9.90193e-05
-1.05399e-09
9.90193e-05
-9.53454e-10
9.90193e-05
-8.58058e-10
9.90193e-05
-7.69362e-10
9.90193e-05
-6.89321e-10
9.90193e-05
-6.08281e-10
9.90192e-05
-5.30396e-10
9.90192e-05
-4.63034e-10
9.90192e-05
-3.95829e-10
9.90192e-05
-3.27334e-10
9.90192e-05
-2.5843e-10
9.90192e-05
-1.88383e-10
9.90192e-05
-1.21005e-10
9.90192e-05
-6.02672e-11
9.90192e-05
-1.29092e-12
9.90192e-05
5.43311e-11
9.90192e-05
1.06021e-10
9.90192e-05
1.54435e-10
9.90192e-05
2.02571e-10
9.90192e-05
2.46932e-10
9.90192e-05
2.84507e-10
9.90192e-05
3.20397e-10
9.90192e-05
3.54681e-10
9.90192e-05
3.90427e-10
9.90192e-05
4.22752e-10
9.90192e-05
4.47425e-10
9.90192e-05
4.68012e-10
9.90192e-05
4.88396e-10
9.90192e-05
5.1287e-10
9.90192e-05
5.32471e-10
9.90192e-05
5.44834e-10
9.90192e-05
5.56368e-10
9.90192e-05
5.67952e-10
9.90192e-05
5.78946e-10
9.90192e-05
5.90509e-10
9.90192e-05
5.98361e-10
9.90192e-05
6.0141e-10
9.90192e-05
6.05035e-10
9.90192e-05
6.09297e-10
9.90192e-05
6.13513e-10
9.90192e-05
6.13925e-10
9.90193e-05
6.15743e-10
9.90193e-05
6.15741e-10
9.90193e-05
6.13935e-10
9.90193e-05
6.15599e-10
9.90193e-05
6.16022e-10
9.90193e-05
6.15936e-10
9.90194e-05
6.14204e-10
9.90194e-05
6.11966e-10
9.90194e-05
6.12734e-10
9.90194e-05
6.12175e-10
9.90194e-05
6.11153e-10
9.90195e-05
6.11451e-10
9.90195e-05
6.08822e-10
9.90195e-05
6.06007e-10
9.90195e-05
6.02046e-10
9.90195e-05
5.98209e-10
9.90196e-05
5.96954e-10
9.90196e-05
5.93566e-10
9.90196e-05
5.93305e-10
9.90196e-05
5.93347e-10
9.90196e-05
5.91012e-10
9.90197e-05
5.89007e-10
9.90197e-05
5.84827e-10
9.90197e-05
5.79634e-10
9.90197e-05
5.73838e-10
9.90198e-05
5.67134e-10
9.90198e-05
5.59423e-10
9.90198e-05
5.5192e-10
9.90198e-05
5.44629e-10
9.90198e-05
5.3854e-10
9.90199e-05
5.33485e-10
9.90199e-05
5.31922e-10
9.90199e-05
5.28522e-10
9.90199e-05
5.22433e-10
9.90199e-05
5.16766e-10
9.902e-05
5.11291e-10
9.902e-05
5.04504e-10
9.902e-05
4.92038e-10
9.902e-05
4.76034e-10
9.902e-05
4.57598e-10
9.902e-05
4.27781e-10
9.90201e-05
4.07771e-10
9.90201e-05
3.99742e-10
9.90201e-05
3.74743e-10
9.90201e-05
3.36605e-10
9.902e-05
2.91263e-10
9.902e-05
2.50938e-10
9.902e-05
2.22733e-10
9.902e-05
1.97081e-10
9.902e-05
1.76201e-10
9.902e-05
1.59912e-10
9.902e-05
1.42758e-10
9.902e-05
1.23343e-10
9.902e-05
1.05116e-10
9.902e-05
8.34217e-11
9.902e-05
5.47517e-11
9.902e-05
2.43486e-12
9.902e-05
-5.49975e-11
9.902e-05
-1.75604e-10
9.902e-05
-3.35803e-10
-5.6135e-10
9.54953e-05
-8.38181e-10
9.54952e-05
-1.12937e-09
9.54952e-05
-1.40991e-09
9.54951e-05
-1.64627e-09
9.5495e-05
-1.8289e-09
9.5495e-05
-1.95449e-09
9.5495e-05
-2.02153e-09
9.54949e-05
-2.04008e-09
9.54949e-05
-2.01765e-09
9.54948e-05
-1.96446e-09
9.54948e-05
-1.88839e-09
9.54948e-05
-1.79882e-09
9.54948e-05
-1.69797e-09
9.54947e-05
-1.58807e-09
9.54947e-05
-1.4772e-09
9.54947e-05
-1.36454e-09
9.54947e-05
-1.24936e-09
9.54946e-05
-1.1393e-09
9.54946e-05
-1.03606e-09
9.54946e-05
-9.34745e-10
9.54946e-05
-8.36966e-10
9.54946e-05
-7.481e-10
9.54945e-05
-6.69497e-10
9.54945e-05
-5.88516e-10
9.54945e-05
-5.12149e-10
9.54945e-05
-4.48743e-10
9.54945e-05
-3.8652e-10
9.54945e-05
-3.22334e-10
9.54945e-05
-2.56682e-10
9.54945e-05
-1.8743e-10
9.54945e-05
-1.19482e-10
9.54945e-05
-5.97931e-11
9.54945e-05
-1.86024e-12
9.54945e-05
5.59001e-11
9.54945e-05
1.08584e-10
9.54945e-05
1.55987e-10
9.54945e-05
2.03883e-10
9.54945e-05
2.46954e-10
9.54945e-05
2.85482e-10
9.54945e-05
3.22493e-10
9.54945e-05
3.56547e-10
9.54945e-05
3.91876e-10
9.54945e-05
4.22397e-10
9.54945e-05
4.46952e-10
9.54945e-05
4.6785e-10
9.54945e-05
4.88193e-10
9.54945e-05
5.11915e-10
9.54945e-05
5.29065e-10
9.54945e-05
5.40978e-10
9.54945e-05
5.52396e-10
9.54945e-05
5.62485e-10
9.54945e-05
5.72768e-10
9.54945e-05
5.83273e-10
9.54945e-05
5.88623e-10
9.54945e-05
5.9158e-10
9.54945e-05
5.95746e-10
9.54945e-05
5.98794e-10
9.54945e-05
6.01501e-10
9.54946e-05
5.99775e-10
9.54946e-05
5.99757e-10
9.54946e-05
5.98659e-10
9.54946e-05
5.98431e-10
9.54946e-05
6.0028e-10
9.54946e-05
5.98818e-10
9.54947e-05
5.9724e-10
9.54947e-05
5.93764e-10
9.54947e-05
5.90578e-10
9.54947e-05
5.90945e-10
9.54947e-05
5.90716e-10
9.54948e-05
5.91224e-10
9.54948e-05
5.91025e-10
9.54948e-05
5.8685e-10
9.54948e-05
5.83445e-10
9.54949e-05
5.78246e-10
9.54949e-05
5.73982e-10
9.54949e-05
5.72568e-10
9.54949e-05
5.69324e-10
9.5495e-05
5.6942e-10
9.5495e-05
5.69753e-10
9.5495e-05
5.69128e-10
9.5495e-05
5.67458e-10
9.5495e-05
5.61623e-10
9.54951e-05
5.56626e-10
9.54951e-05
5.51115e-10
9.54951e-05
5.43974e-10
9.54951e-05
5.36028e-10
9.54952e-05
5.28135e-10
9.54952e-05
5.21132e-10
9.54952e-05
5.15411e-10
9.54952e-05
5.10773e-10
9.54952e-05
5.09836e-10
9.54953e-05
5.07333e-10
9.54953e-05
5.02003e-10
9.54953e-05
4.97038e-10
9.54953e-05
4.93627e-10
9.54953e-05
4.87343e-10
9.54954e-05
4.7383e-10
9.54954e-05
4.57513e-10
9.54954e-05
4.39777e-10
9.54954e-05
4.11273e-10
9.54954e-05
3.91941e-10
9.54954e-05
3.87328e-10
9.54954e-05
3.70052e-10
9.54954e-05
3.40323e-10
9.54954e-05
2.99539e-10
9.54954e-05
2.61488e-10
9.54954e-05
2.35258e-10
9.54954e-05
2.09158e-10
9.54954e-05
1.86876e-10
9.54954e-05
1.6826e-10
9.54954e-05
1.48944e-10
9.54954e-05
1.29298e-10
9.54954e-05
1.10677e-10
9.54954e-05
8.80827e-11
9.54954e-05
5.72038e-11
9.54954e-05
3.93851e-12
9.54954e-05
-5.28447e-11
9.54954e-05
-1.71422e-10
9.54953e-05
-3.28541e-10
-5.40164e-10
9.20252e-05
-7.89076e-10
9.20251e-05
-1.06519e-09
9.2025e-05
-1.34024e-09
9.2025e-05
-1.57974e-09
9.20249e-05
-1.76844e-09
9.20249e-05
-1.89657e-09
9.20248e-05
-1.97002e-09
9.20248e-05
-1.99387e-09
9.20247e-05
-1.9756e-09
9.20247e-05
-1.92584e-09
9.20246e-05
-1.85244e-09
9.20246e-05
-1.76619e-09
9.20246e-05
-1.66587e-09
9.20245e-05
-1.56021e-09
9.20245e-05
-1.45133e-09
9.20245e-05
-1.3382e-09
9.20245e-05
-1.22649e-09
9.20244e-05
-1.11865e-09
9.20244e-05
-1.01434e-09
9.20244e-05
-9.11304e-10
9.20244e-05
-8.13268e-10
9.20244e-05
-7.25892e-10
9.20243e-05
-6.4767e-10
9.20243e-05
-5.67923e-10
9.20243e-05
-4.92897e-10
9.20243e-05
-4.31062e-10
9.20243e-05
-3.7253e-10
9.20243e-05
-3.12323e-10
9.20242e-05
-2.50052e-10
9.20242e-05
-1.8523e-10
9.20242e-05
-1.17973e-10
9.20242e-05
-5.71965e-11
9.20242e-05
-2.14568e-12
9.20242e-05
5.57318e-11
9.20242e-05
1.09824e-10
9.20242e-05
1.5779e-10
9.20242e-05
2.03634e-10
9.20242e-05
2.44173e-10
9.20242e-05
2.83886e-10
9.20242e-05
3.22381e-10
9.20242e-05
3.58243e-10
9.20242e-05
3.9104e-10
9.20242e-05
4.18271e-10
9.20243e-05
4.42765e-10
9.20243e-05
4.6473e-10
9.20243e-05
4.87509e-10
9.20243e-05
5.08484e-10
9.20243e-05
5.21784e-10
9.20243e-05
5.33303e-10
9.20243e-05
5.45446e-10
9.20243e-05
5.55948e-10
9.20243e-05
5.65957e-10
9.20243e-05
5.73366e-10
9.20243e-05
5.75182e-10
9.20243e-05
5.78677e-10
9.20243e-05
5.83876e-10
9.20244e-05
5.8774e-10
9.20244e-05
5.88702e-10
9.20244e-05
5.84186e-10
9.20244e-05
5.80973e-10
9.20244e-05
5.78751e-10
9.20244e-05
5.80724e-10