/*--------------------------------*- C++ -*----------------------------------*\
  =========                 |
  \\      /  F ield         | OpenFOAM: The Open Source CFD Toolbox
   \\    /   O peration     | Website:  https://openfoam.org
    \\  /    A nd           | Version:  7
     \\/     M anipulation  |
\*---------------------------------------------------------------------------*/
FoamFile
{
    version     2.0;
    format      ascii;
    class       volVectorField;
    location    "48500";
    object      U;
}
// * * * * * * * * * * * * * * * * * * * * * * * * * * * * * * * * * * * * * //

dimensions      [0 1 -1 0 0 0 0];

internalField   nonuniform List<vector> 
100
(
(0.00779469 8.41827e-15 0)
(0.0236633 3.38294e-14 0)
(0.0398641 2.47254e-14 0)
(0.0549171 1.79016e-14 0)
(0.0671104 3.93024e-14 0)
(0.0764366 4.18972e-14 0)
(0.0837073 3.14264e-14 0)
(0.0895886 2.69386e-14 0)
(0.0945084 1.32134e-14 0)
(0.0987373 1.89891e-14 0)
(0.102452 1.93499e-14 0)
(0.105771 1.83947e-14 0)
(0.10878 2.20751e-14 0)
(0.111538 1.43736e-14 0)
(0.114091 1.96838e-14 0)
(0.116472 1.9048e-14 0)
(0.11871 2.52203e-14 0)
(0.120824 2.89581e-14 0)
(0.122831 3.5168e-14 0)
(0.124746 3.6019e-14 0)
(0.126579 4.00159e-14 0)
(0.12834 3.61347e-14 0)
(0.130036 3.46473e-14 0)
(0.131674 3.85835e-14 0)
(0.133259 3.73159e-14 0)
(0.134796 3.72702e-14 0)
(0.136289 4.0994e-14 0)
(0.13774 3.82579e-14 0)
(0.139154 4.01422e-14 0)
(0.140531 4.00213e-14 0)
(0.141873 3.67139e-14 0)
(0.143183 3.91365e-14 0)
(0.14446 3.80486e-14 0)
(0.145705 3.83841e-14 0)
(0.146918 4.03287e-14 0)
(0.1481 3.59662e-14 0)
(0.149248 3.69276e-14 0)
(0.150363 3.79712e-14 0)
(0.151441 3.81207e-14 0)
(0.152481 3.57719e-14 0)
(0.153478 3.62584e-14 0)
(0.15443 3.69126e-14 0)
(0.155329 3.65484e-14 0)
(0.15617 3.61406e-14 0)
(0.156943 3.49893e-14 0)
(0.157636 3.76864e-14 0)
(0.158235 3.73772e-14 0)
(0.158721 3.76851e-14 0)
(0.159072 3.52602e-14 0)
(0.159261 3.10953e-14 0)
(0.159261 3.24014e-14 0)
(0.159072 2.88921e-14 0)
(0.158723 2.91361e-14 0)
(0.158239 2.75747e-14 0)
(0.157642 3.03765e-14 0)
(0.156952 3.02032e-14 0)
(0.156183 2.77701e-14 0)
(0.155346 2.50994e-14 0)
(0.15445 2.32066e-14 0)
(0.153502 2.33855e-14 0)
(0.152508 2.20546e-14 0)
(0.151472 2.11839e-14 0)
(0.150397 1.8238e-14 0)
(0.149287 1.70355e-14 0)
(0.148142 1.8343e-14 0)
(0.146964 1.78228e-14 0)
(0.145754 1.93651e-14 0)
(0.144513 1.78687e-14 0)
(0.14324 1.98664e-14 0)
(0.141934 1.92767e-14 0)
(0.140595 1.54897e-14 0)
(0.139222 1.60057e-14 0)
(0.137812 1.72333e-14 0)
(0.136364 1.66387e-14 0)
(0.134875 1.0789e-14 0)
(0.133341 1.74443e-14 0)
(0.13176 1.17001e-14 0)
(0.130126 1.48064e-14 0)
(0.128434 1.90708e-14 0)
(0.126677 2.12465e-14 0)
(0.124848 1.59392e-14 0)
(0.122938 1.48775e-14 0)
(0.120934 1.90287e-14 0)
(0.118825 1.76438e-14 0)
(0.116593 1.70798e-14 0)
(0.114216 1.9443e-14 0)
(0.111669 1.60365e-14 0)
(0.108918 1.83165e-14 0)
(0.105917 1.72673e-14 0)
(0.102605 2.09312e-14 0)
(0.0989003 1.46644e-14 0)
(0.0946828 1.81394e-14 0)
(0.089777 1.24301e-14 0)
(0.0839133 3.57507e-15 0)
(0.0766647 1.0234e-14 0)
(0.0673632 -6.94434e-15 0)
(0.0551827 -8.04304e-15 0)
(0.0400953 -2.95748e-14 0)
(0.0238117 -7.33336e-15 0)
(0.00784917 1.00744e-15 0)
)
;

boundaryField
{
    bottomWall
    {
        type            noSlip;
    }
    topWall
    {
        type            noSlip;
    }
    sides1_half0
    {
        type            empty;
    }
    sides1_half1
    {
        type            empty;
    }
    sides2_half0
    {
        type            empty;
    }
    sides2_half1
    {
        type            empty;
    }
    inout1_half0
    {
        type            cyclic;
    }
    inout1_half1
    {
        type            cyclic;
    }
    inout2_half0
    {
        type            cyclic;
    }
    inout2_half1
    {
        type            cyclic;
    }
}


// ************************************************************************* //
