/*--------------------------------*- C++ -*----------------------------------*\
  =========                 |
  \\      /  F ield         | OpenFOAM: The Open Source CFD Toolbox
   \\    /   O peration     | Website:  https://openfoam.org
    \\  /    A nd           | Version:  7
     \\/     M anipulation  |
\*---------------------------------------------------------------------------*/
FoamFile
{
    version     2.0;
    format      ascii;
    class       volVectorField;
    location    "17500";
    object      U;
}
// * * * * * * * * * * * * * * * * * * * * * * * * * * * * * * * * * * * * * //

dimensions      [0 1 -1 0 0 0 0];

internalField   nonuniform List<vector> 
3974
(
(0.116731 2.56203e-08 2.31219e-14)
(0.116731 2.89559e-08 2.31514e-14)
(0.116731 2.99351e-08 2.29849e-14)
(0.116731 3.02594e-08 2.31083e-14)
(0.116731 3.02784e-08 2.30105e-14)
(0.116731 3.00562e-08 2.30571e-14)
(0.116731 2.99305e-08 2.30302e-14)
(0.116731 3.01364e-08 2.29712e-14)
(0.116731 3.0687e-08 2.30206e-14)
(0.116731 3.16235e-08 2.29396e-14)
(0.116731 3.28433e-08 2.2985e-14)
(0.116731 3.44335e-08 2.29449e-14)
(0.116731 3.61575e-08 2.28899e-14)
(0.116731 3.77654e-08 2.29663e-14)
(0.116731 3.93403e-08 2.28916e-14)
(0.116731 4.07875e-08 2.2949e-14)
(0.116731 4.19925e-08 2.29172e-14)
(0.116731 4.3077e-08 2.28092e-14)
(0.116731 4.38811e-08 2.29053e-14)
(0.116731 4.43465e-08 2.28036e-14)
(0.116731 4.47821e-08 2.2861e-14)
(0.116731 4.49296e-08 2.28468e-14)
(0.116731 4.48368e-08 2.28003e-14)
(0.116731 4.46161e-08 2.28842e-14)
(0.116731 4.4193e-08 2.27959e-14)
(0.116731 4.36815e-08 2.28657e-14)
(0.116731 4.31006e-08 2.28443e-14)
(0.116731 4.23478e-08 2.27886e-14)
(0.116731 4.13927e-08 2.28279e-14)
(0.116731 4.05508e-08 2.2758e-14)
(0.116731 3.96084e-08 2.27982e-14)
(0.116731 3.83446e-08 2.28426e-14)
(0.116731 3.70946e-08 2.27501e-14)
(0.116731 3.594e-08 2.2836e-14)
(0.116731 3.45021e-08 2.28796e-14)
(0.116731 3.29083e-08 2.27925e-14)
(0.116731 3.1128e-08 2.28287e-14)
(0.116731 2.93006e-08 2.27247e-14)
(0.117781 -9.09476e-10 2.35754e-14)
(0.117781 1.13572e-08 2.35618e-14)
(0.117781 1.80692e-08 2.35602e-14)
(0.117781 2.16481e-08 2.35899e-14)
(0.117781 2.36912e-08 2.34942e-14)
(0.117781 2.47098e-08 2.35237e-14)
(0.117781 2.51683e-08 2.34601e-14)
(0.117781 2.52943e-08 2.34778e-14)
(0.117781 2.54535e-08 2.34839e-14)
(0.117781 2.58218e-08 2.33856e-14)
(0.117781 2.65502e-08 2.34253e-14)
(0.117781 2.76647e-08 2.33783e-14)
(0.117781 2.90266e-08 2.33929e-14)
(0.117781 3.07204e-08 2.33953e-14)
(0.117781 3.2518e-08 2.33001e-14)
(0.117782 3.42874e-08 2.33608e-14)
(0.117782 3.60263e-08 2.33262e-14)
(0.117782 3.75983e-08 2.33527e-14)
(0.117782 3.8923e-08 2.33552e-14)
(0.117782 4.01192e-08 2.32601e-14)
(0.117782 4.10909e-08 2.32956e-14)
(0.117782 4.17609e-08 2.32161e-14)
(0.117782 4.23705e-08 2.32614e-14)
(0.117782 4.26822e-08 2.3282e-14)
(0.117782 4.27702e-08 2.31969e-14)
(0.117782 4.27372e-08 2.32701e-14)
(0.117782 4.25023e-08 2.32075e-14)
(0.117782 4.21532e-08 2.32538e-14)
(0.117782 4.17439e-08 2.32713e-14)
(0.117782 4.12005e-08 2.31782e-14)
(0.117782 4.04919e-08 2.32146e-14)
(0.117782 3.98051e-08 2.31781e-14)
(0.117782 3.90343e-08 2.31904e-14)
(0.117782 3.79714e-08 2.32418e-14)
(0.117782 3.68505e-08 2.31994e-14)
(0.117782 3.58945e-08 2.32301e-14)
(0.117782 3.46228e-08 2.32672e-14)
(0.117782 3.32684e-08 2.32216e-14)
(0.117782 3.13426e-08 2.3234e-14)
(0.117782 3.19445e-08 2.31734e-14)
(0.117782 3.16993e-08 2.32077e-14)
(0.117782 2.66762e-08 2.32505e-14)
(0.118799 -5.18328e-08 2.40198e-14)
(0.118799 -2.27791e-08 2.39218e-14)
(0.118799 -3.14166e-09 2.39739e-14)
(0.118799 6.38675e-09 2.40409e-14)
(0.118799 1.08758e-08 2.40017e-14)
(0.118799 1.49101e-08 2.40279e-14)
(0.118799 1.74032e-08 2.39127e-14)
(0.118799 1.87356e-08 2.39446e-14)
(0.118799 1.94791e-08 2.38592e-14)
(0.118799 1.99298e-08 2.39047e-14)
(0.118799 2.03692e-08 2.39237e-14)
(0.118799 2.09289e-08 2.37856e-14)
(0.118799 2.18247e-08 2.38346e-14)
(0.118799 2.31535e-08 2.37522e-14)
(0.118799 2.46714e-08 2.38074e-14)
(0.1188 2.64795e-08 2.3833e-14)
(0.1188 2.84293e-08 2.37052e-14)
(0.1188 3.03727e-08 2.37638e-14)
(0.1188 3.22957e-08 2.37209e-14)
(0.1188 3.40356e-08 2.37676e-14)
(0.1188 3.55176e-08 2.37833e-14)
(0.1188 3.68315e-08 2.36513e-14)
(0.1188 3.79883e-08 2.36959e-14)
(0.1188 3.89004e-08 2.35987e-14)
(0.1188 3.97156e-08 2.36665e-14)
(0.1188 4.02169e-08 2.37093e-14)
(0.1188 4.05085e-08 2.35947e-14)
(0.1188 4.06859e-08 2.36656e-14)
(0.1188 4.06611e-08 2.35747e-14)
(0.1188 4.04994e-08 2.36498e-14)
(0.1188 4.03034e-08 2.36866e-14)
(0.1188 4.00098e-08 2.35755e-14)
(0.1188 3.95291e-08 2.36071e-14)
(0.1188 3.90082e-08 2.35423e-14)
(0.1188 3.8413e-08 2.3592e-14)
(0.1188 3.75567e-08 2.3646e-14)
(0.1188 3.66514e-08 2.3629e-14)
(0.1188 3.58827e-08 2.36293e-14)
(0.1188 3.47649e-08 2.36506e-14)
(0.1188 3.36836e-08 2.36306e-14)
(0.1188 3.18005e-08 2.36333e-14)
(0.1188 3.33624e-08 2.3601e-14)
(0.1188 3.52074e-08 2.36094e-14)
(0.1188 3.38885e-08 2.36372e-14)
(0.1188 2.99041e-08 2.36184e-14)
(0.1188 2.13993e-08 2.36303e-14)
(0.1188 1.25772e-08 2.36148e-14)
(0.1188 4.48709e-09 2.36274e-14)
(0.1188 -3.2404e-09 2.36668e-14)
(0.118799 -1.07832e-08 2.36632e-14)
(0.118799 -1.81695e-08 2.36776e-14)
(0.118799 -2.55733e-08 2.36498e-14)
(0.118799 -3.2649e-08 2.36445e-14)
(0.118799 -3.92974e-08 2.3664e-14)
(0.118799 -4.40972e-08 2.36552e-14)
(0.118799 -4.83049e-08 2.36814e-14)
(0.118799 -4.59441e-08 2.36676e-14)
(0.118799 -4.33387e-08 2.36828e-14)
(0.118799 -2.28561e-08 2.37088e-14)
(0.119787 -4.84565e-08 2.44402e-14)
(0.119786 -2.14347e-08 2.42742e-14)
(0.119786 -4.72653e-09 2.43813e-14)
(0.119786 4.23668e-09 2.44306e-14)
(0.119786 7.35942e-09 2.44264e-14)
(0.119787 1.00327e-08 2.44639e-14)
(0.119787 1.18931e-08 2.4324e-14)
(0.119787 1.30492e-08 2.43751e-14)
(0.119787 1.3801e-08 2.42621e-14)
(0.119787 1.43923e-08 2.43384e-14)
(0.119787 1.50387e-08 2.43521e-14)
(0.119787 1.57143e-08 2.41845e-14)
(0.119787 1.67578e-08 2.42507e-14)
(0.119787 1.82957e-08 2.41062e-14)
(0.119787 1.99756e-08 2.42332e-14)
(0.119787 2.18941e-08 2.42589e-14)
(0.119787 2.40025e-08 2.40982e-14)
(0.119787 2.6124e-08 2.41788e-14)
(0.119787 2.82365e-08 2.40617e-14)
(0.119787 3.01845e-08 2.41971e-14)
(0.119787 3.18241e-08 2.42024e-14)
(0.119787 3.33107e-08 2.39576e-14)
(0.119787 3.46981e-08 2.41023e-14)
(0.119787 3.5804e-08 2.39881e-14)
(0.119787 3.68214e-08 2.40863e-14)
(0.119787 3.75762e-08 2.41279e-14)
(0.119787 3.80965e-08 2.38971e-14)
(0.119787 3.85024e-08 2.40748e-14)
(0.119787 3.8705e-08 2.39676e-14)
(0.119787 3.87944e-08 2.40602e-14)
(0.119787 3.88336e-08 2.40943e-14)
(0.119787 3.87513e-08 2.38664e-14)
(0.119787 3.85304e-08 2.40083e-14)
(0.119787 3.81825e-08 2.39146e-14)
(0.119787 3.77778e-08 2.40085e-14)
(0.119787 3.71805e-08 2.40543e-14)
(0.119787 3.6466e-08 2.40442e-14)
(0.119787 3.58977e-08 2.40249e-14)
(0.119787 3.50066e-08 2.40307e-14)
(0.119787 3.41579e-08 2.40276e-14)
(0.119787 3.2537e-08 2.40274e-14)
(0.119787 3.32014e-08 2.40135e-14)
(0.119787 3.5301e-08 2.40066e-14)
(0.119787 3.73347e-08 2.40233e-14)
(0.119787 3.70742e-08 2.40199e-14)
(0.119787 3.06142e-08 2.40257e-14)
(0.119787 2.19704e-08 2.40269e-14)
(0.119787 1.33749e-08 2.40218e-14)
(0.119787 5.0912e-09 2.40477e-14)
(0.119787 -2.92569e-09 2.40612e-14)
(0.119787 -1.07527e-08 2.40715e-14)
(0.119787 -1.85516e-08 2.40623e-14)
(0.119787 -2.60045e-08 2.4041e-14)
(0.119787 -3.30111e-08 2.40495e-14)
(0.119787 -3.81266e-08 2.40573e-14)
(0.119787 -4.26657e-08 2.40778e-14)
(0.119787 -4.04426e-08 2.40803e-14)
(0.119787 -3.84431e-08 2.40845e-14)
(0.119787 -1.62517e-08 2.40977e-14)
(0.120745 -4.61733e-08 2.48517e-14)
(0.120745 -1.86051e-08 2.47645e-14)
(0.120745 -3.38242e-09 2.48094e-14)
(0.120745 4.12412e-09 2.48231e-14)
(0.120745 5.90267e-09 2.48395e-14)
(0.120745 6.97843e-09 2.48918e-14)
(0.120745 7.71893e-09 2.47894e-14)
(0.120745 8.1909e-09 2.4832e-14)
(0.120745 8.58519e-09 2.4726e-14)
(0.120745 9.09245e-09 2.47954e-14)
(0.120745 9.74494e-09 2.47599e-14)
(0.120745 1.0489e-08 2.46333e-14)
(0.120745 1.16364e-08 2.46849e-14)
(0.120745 1.32587e-08 2.45977e-14)
(0.120745 1.50521e-08 2.46972e-14)
(0.120745 1.7138e-08 2.46654e-14)
(0.120745 1.94364e-08 2.45494e-14)
(0.120745 2.16765e-08 2.46171e-14)
(0.120745 2.39419e-08 2.45626e-14)
(0.120745 2.6118e-08 2.46547e-14)
(0.120745 2.79567e-08 2.46055e-14)
(0.120745 2.96537e-08 2.44857e-14)
(0.120745 3.124e-08 2.45259e-14)
(0.120745 3.25629e-08 2.44354e-14)
(0.120746 3.38174e-08 2.45511e-14)
(0.120746 3.4818e-08 2.45309e-14)
(0.120746 3.55847e-08 2.44288e-14)
(0.120746 3.62319e-08 2.45062e-14)
(0.120746 3.66755e-08 2.44118e-14)
(0.120746 3.70105e-08 2.45143e-14)
(0.120746 3.73351e-08 2.4487e-14)
(0.120746 3.75016e-08 2.43906e-14)
(0.120746 3.74972e-08 2.44247e-14)
(0.120746 3.73551e-08 2.43548e-14)
(0.120746 3.71664e-08 2.44614e-14)
(0.120746 3.68554e-08 2.44614e-14)
(0.120746 3.63715e-08 2.44476e-14)
(0.120746 3.59891e-08 2.44153e-14)
(0.120746 3.53258e-08 2.44074e-14)
(0.120746 3.46731e-08 2.44173e-14)
(0.120746 3.34455e-08 2.44156e-14)
(0.120746 3.32327e-08 2.44158e-14)
(0.120746 3.47615e-08 2.43964e-14)
(0.120746 3.7428e-08 2.44055e-14)
(0.120746 3.93342e-08 2.44147e-14)
(0.120746 3.64446e-08 2.44164e-14)
(0.120746 2.97036e-08 2.44299e-14)
(0.120746 2.16565e-08 2.44095e-14)
(0.120745 1.33487e-08 2.44263e-14)
(0.120745 5.08347e-09 2.44526e-14)
(0.120745 -3.05866e-09 2.44605e-14)
(0.120745 -1.10971e-08 2.44664e-14)
(0.120745 -1.88461e-08 2.44292e-14)
(0.120745 -2.61648e-08 2.44321e-14)
(0.120745 -3.1571e-08 2.44533e-14)
(0.120745 -3.64755e-08 2.44703e-14)
(0.120745 -3.44043e-08 2.44846e-14)
(0.120745 -3.29923e-08 2.44786e-14)
(0.120745 -9.88627e-09 2.44848e-14)
(0.121675 -4.49283e-08 2.52444e-14)
(0.121675 -1.60125e-08 2.52084e-14)
(0.121675 -1.21739e-09 2.53113e-14)
(0.121675 5.18217e-09 2.52077e-14)
(0.121675 5.83477e-09 2.53058e-14)
(0.121675 5.47955e-09 2.52937e-14)
(0.121675 4.93122e-09 2.52464e-14)
(0.121675 4.43875e-09 2.52528e-14)
(0.121675 4.21842e-09 2.51883e-14)
(0.121675 4.331e-09 2.5297e-14)
(0.121675 4.7826e-09 2.51399e-14)
(0.121675 5.49628e-09 2.50831e-14)
(0.121676 6.64171e-09 2.51079e-14)
(0.121676 8.26176e-09 2.50603e-14)
(0.121676 1.0169e-08 2.51537e-14)
(0.121676 1.23931e-08 2.50458e-14)
(0.121676 1.47924e-08 2.49913e-14)
(0.121676 1.71279e-08 2.50336e-14)
(0.121676 1.95435e-08 2.50041e-14)
(0.121676 2.196e-08 2.51016e-14)
(0.121676 2.40126e-08 2.49835e-14)
(0.121676 2.59103e-08 2.49305e-14)
(0.121676 2.77209e-08 2.49876e-14)
(0.121676 2.9247e-08 2.48931e-14)
(0.121676 3.0724e-08 2.50012e-14)
(0.121676 3.20061e-08 2.49118e-14)
(0.121676 3.30334e-08 2.48709e-14)
(0.121676 3.39232e-08 2.49233e-14)
(0.121676 3.46179e-08 2.48774e-14)
(0.121676 3.52421e-08 2.49657e-14)
(0.121676 3.58522e-08 2.48586e-14)
(0.121676 3.62467e-08 2.48187e-14)
(0.121676 3.64722e-08 2.48769e-14)
(0.121676 3.65708e-08 2.47959e-14)
(0.121676 3.66257e-08 2.4947e-14)
(0.121676 3.65964e-08 2.48577e-14)
(0.121676 3.63706e-08 2.48412e-14)
(0.121676 3.62051e-08 2.48073e-14)
(0.121676 3.57478e-08 2.47815e-14)
(0.121676 3.52651e-08 2.48032e-14)
(0.121676 3.44489e-08 2.47976e-14)
(0.121676 3.37701e-08 2.48109e-14)
(0.121676 3.4516e-08 2.47947e-14)
(0.121676 3.6752e-08 2.47848e-14)
(0.121676 3.94489e-08 2.48052e-14)
(0.121676 3.93546e-08 2.48011e-14)
(0.121676 3.51553e-08 2.48265e-14)
(0.121676 2.85593e-08 2.48091e-14)
(0.121676 2.08854e-08 2.4804e-14)
(0.121676 1.27751e-08 2.48416e-14)
(0.121676 4.60983e-09 2.48444e-14)
(0.121676 -3.53938e-09 2.48649e-14)
(0.121676 -1.14433e-08 2.47533e-14)
(0.121676 -1.89699e-08 2.48125e-14)
(0.121676 -2.46585e-08 2.4848e-14)
(0.121676 -2.98528e-08 2.48586e-14)
(0.121675 -2.80302e-08 2.48842e-14)
(0.121675 -2.71882e-08 2.48439e-14)
(0.121675 -3.66943e-09 2.48672e-14)
(0.122579 -4.45244e-08 2.56285e-14)
(0.122579 -1.41996e-08 2.56267e-14)
(0.122579 8.91684e-10 2.56405e-14)
(0.122579 6.7465e-09 2.55756e-14)
(0.122579 6.6386e-09 2.56035e-14)
(0.122579 5.11807e-09 2.5686e-14)
(0.122579 3.34869e-09 2.5676e-14)
(0.122579 1.82732e-09 2.56801e-14)
(0.122579 8.07083e-10 2.5619e-14)
(0.122579 3.36108e-10 2.56317e-14)
(0.122579 3.84923e-10 2.55649e-14)
(0.122579 9.11472e-10 2.55192e-14)
(0.122579 1.96388e-09 2.55211e-14)
(0.122579 3.49444e-09 2.54937e-14)
(0.122579 5.43961e-09 2.55337e-14)
(0.122579 7.76383e-09 2.54674e-14)
(0.122579 1.02132e-08 2.54262e-14)
(0.122579 1.26604e-08 2.54493e-14)
(0.12258 1.51833e-08 2.54256e-14)
(0.12258 1.77772e-08 2.54765e-14)
(0.12258 2.00348e-08 2.54023e-14)
(0.12258 2.21321e-08 2.53632e-14)
(0.12258 2.41966e-08 2.53581e-14)
(0.12258 2.59548e-08 2.53315e-14)
(0.12258 2.7657e-08 2.53879e-14)
(0.12258 2.92226e-08 2.5332e-14)
(0.12258 3.05134e-08 2.53068e-14)
(0.12258 3.16284e-08 2.53385e-14)
(0.12258 3.25831e-08 2.5311e-14)
(0.12258 3.35012e-08 2.53432e-14)
(0.12258 3.43946e-08 2.52762e-14)
(0.12258 3.50317e-08 2.52446e-14)
(0.12258 3.55016e-08 2.52408e-14)
(0.12258 3.58925e-08 2.52196e-14)
(0.12258 3.622e-08 2.52822e-14)
(0.12258 3.64488e-08 2.52191e-14)
(0.12258 3.64647e-08 2.523e-14)
(0.12258 3.65342e-08 2.51963e-14)
(0.12258 3.62922e-08 2.5152e-14)
(0.12258 3.59557e-08 2.51896e-14)
(0.12258 3.55961e-08 2.51727e-14)
(0.12258 3.47515e-08 2.52027e-14)
(0.12258 3.47667e-08 2.5184e-14)
(0.12258 3.62757e-08 2.51616e-14)
(0.12258 3.88793e-08 2.51952e-14)
(0.12258 4.04325e-08 2.51784e-14)
(0.12258 3.85534e-08 2.52199e-14)
(0.12258 3.38096e-08 2.52e-14)
(0.12258 2.7272e-08 2.51829e-14)
(0.12258 1.97754e-08 2.52325e-14)
(0.12258 1.18827e-08 2.52221e-14)
(0.12258 3.83034e-09 2.52602e-14)
(0.122579 -4.03412e-09 2.52277e-14)
(0.122579 -1.16484e-08 2.51952e-14)
(0.122579 -1.75724e-08 2.52451e-14)
(0.122579 -2.30165e-08 2.5242e-14)
(0.122579 -2.14502e-08 2.52813e-14)
(0.122579 -2.11667e-08 2.5277e-14)
(0.122579 2.45587e-09 2.52474e-14)
(0.123457 -4.46005e-08 2.60051e-14)
(0.123457 -1.31656e-08 2.60344e-14)
(0.123457 2.45143e-09 2.60327e-14)
(0.123457 8.30859e-09 2.59232e-14)
(0.123457 7.77433e-09 2.59638e-14)
(0.123457 5.42975e-09 2.60635e-14)
(0.123457 2.69702e-09 2.60925e-14)
(0.123457 2.05728e-10 2.60614e-14)
(0.123457 -1.65624e-09 2.60358e-14)
(0.123457 -2.85709e-09 2.59986e-14)
(0.123457 -3.3199e-09 2.59609e-14)
(0.123457 -3.11467e-09 2.59419e-14)
(0.123457 -2.28929e-09 2.5909e-14)
(0.123458 -8.77031e-10 2.59101e-14)
(0.123458 1.04832e-09 2.58931e-14)
(0.123458 3.37328e-09 2.58625e-14)
(0.123458 5.82112e-09 2.58473e-14)
(0.123458 8.33675e-09 2.5828e-14)
(0.123458 1.09552e-08 2.58354e-14)
(0.123458 1.36941e-08 2.58279e-14)
(0.123458 1.61624e-08 2.57953e-14)
(0.123458 1.84613e-08 2.57838e-14)
(0.123458 2.07425e-08 2.57572e-14)
(0.123458 2.27351e-08 2.57549e-14)
(0.123458 2.46679e-08 2.5743e-14)
(0.123458 2.64711e-08 2.57285e-14)
(0.123458 2.8015e-08 2.57301e-14)
(0.123458 2.93931e-08 2.57264e-14)
(0.123458 3.06312e-08 2.57287e-14)
(0.123458 3.1874e-08 2.57027e-14)
(0.123458 3.30425e-08 2.56704e-14)
(0.123458 3.39059e-08 2.56631e-14)
(0.123458 3.46369e-08 2.56276e-14)
(0.123458 3.53333e-08 2.56317e-14)
(0.123458 3.59467e-08 2.56353e-14)
(0.123458 3.6409e-08 2.55573e-14)
(0.123458 3.66886e-08 2.56213e-14)
(0.123458 3.70011e-08 2.55852e-14)
(0.123458 3.69769e-08 2.5514e-14)
(0.123458 3.68771e-08 2.55816e-14)
(0.123458 3.68816e-08 2.55379e-14)
(0.123458 3.60665e-08 2.55971e-14)
(0.123458 3.55993e-08 2.55781e-14)
(0.123458 3.63688e-08 2.55271e-14)
(0.123458 3.84156e-08 2.5589e-14)
(0.123458 4.06184e-08 2.55455e-14)
(0.123458 4.04738e-08 2.56155e-14)
(0.123458 3.75312e-08 2.55983e-14)
(0.123458 3.24028e-08 2.5555e-14)
(0.123458 2.58633e-08 2.56301e-14)
(0.123458 1.85523e-08 2.55909e-14)
(0.123458 1.08184e-08 2.56585e-14)
(0.123458 3.12045e-09 2.56335e-14)
(0.123458 -4.43411e-09 2.55696e-14)
(0.123458 -1.0477e-08 2.56526e-14)
(0.123458 -1.60853e-08 2.56179e-14)
(0.123457 -1.48372e-08 2.56815e-14)
(0.123457 -1.50943e-08 2.56771e-14)
(0.123457 8.52533e-09 2.56139e-14)
(0.124311 -4.49941e-08 2.63974e-14)
(0.124311 -1.28026e-08 2.63533e-14)
(0.124311 3.40587e-09 2.64072e-14)
(0.124311 9.48313e-09 2.62565e-14)
(0.124311 8.84322e-09 2.63348e-14)
(0.124311 6.00967e-09 2.64551e-14)
(0.124311 2.58733e-09 2.64167e-14)
(0.124311 -6.77705e-10 2.6441e-14)
(0.124311 -3.34072e-09 2.63588e-14)
(0.124311 -5.2406e-09 2.63502e-14)
(0.124311 -6.28482e-09 2.63433e-14)
(0.124311 -6.54674e-09 2.62668e-14)
(0.124311 -6.00919e-09 2.6275e-14)
(0.124311 -4.75731e-09 2.62311e-14)
(0.124311 -2.96744e-09 2.62404e-14)
(0.124311 -7.10011e-10 2.62458e-14)
(0.124311 1.75311e-09 2.61706e-14)
(0.124311 4.31196e-09 2.61956e-14)
(0.124311 6.97004e-09 2.61516e-14)
(0.124311 9.79655e-09 2.61711e-14)
(0.124311 1.24332e-08 2.61786e-14)
(0.124311 1.49316e-08 2.61093e-14)
(0.124311 1.74292e-08 2.61459e-14)
(0.124311 1.96495e-08 2.60835e-14)
(0.124311 2.1816e-08 2.60931e-14)
(0.124311 2.38591e-08 2.61147e-14)
(0.124311 2.56446e-08 2.60567e-14)
(0.124311 2.72751e-08 2.61058e-14)
(0.124311 2.88392e-08 2.60548e-14)
(0.124311 3.03795e-08 2.60539e-14)
(0.124311 3.17791e-08 2.60547e-14)
(0.124311 3.29121e-08 2.59887e-14)
(0.124311 3.39474e-08 2.60012e-14)
(0.124311 3.49573e-08 2.59518e-14)
(0.124311 3.58451e-08 2.59781e-14)
(0.124311 3.65292e-08 2.5962e-14)
(0.124311 3.70469e-08 2.60302e-14)
(0.124311 3.75958e-08 2.59605e-14)
(0.124311 3.78547e-08 2.59506e-14)
(0.124311 3.80424e-08 2.5987e-14)
(0.124311 3.83401e-08 2.5974e-14)
(0.124311 3.76288e-08 2.60032e-14)
(0.124311 3.69039e-08 2.59535e-14)
(0.124311 3.71257e-08 2.59579e-14)
(0.124311 3.84892e-08 2.59944e-14)
(0.124311 4.07003e-08 2.59832e-14)
(0.124311 4.16153e-08 2.60227e-14)
(0.124311 4.0167e-08 2.59786e-14)
(0.124311 3.63801e-08 2.60021e-14)
(0.124311 3.09356e-08 2.60407e-14)
(0.124311 2.44635e-08 2.6031e-14)
(0.124311 1.72594e-08 2.60671e-14)
(0.124311 9.88967e-09 2.60187e-14)
(0.124311 2.51818e-09 2.60235e-14)
(0.124311 -3.5428e-09 2.60857e-14)
(0.124311 -9.21382e-09 2.60668e-14)
(0.124311 -8.31619e-09 2.60914e-14)
(0.124311 -9.18164e-09 2.6058e-14)
(0.124311 1.4469e-08 2.60477e-14)
(0.125141 -4.54852e-08 2.67756e-14)
(0.125141 -1.28933e-08 2.66561e-14)
(0.125141 3.70751e-09 2.67453e-14)
(0.125141 1.01051e-08 2.66431e-14)
(0.125141 9.53493e-09 2.67243e-14)
(0.125141 6.53618e-09 2.68385e-14)
(0.125141 2.75651e-09 2.67217e-14)
(0.125141 -1.10331e-09 2.67873e-14)
(0.125141 -4.46983e-09 2.66598e-14)
(0.125141 -7.00736e-09 2.67457e-14)
(0.125141 -8.62019e-09 2.67183e-14)
(0.125141 -9.32814e-09 2.6568e-14)
(0.125141 -9.1071e-09 2.66314e-14)
(0.125141 -8.11205e-09 2.65323e-14)
(0.125141 -6.49871e-09 2.65684e-14)
(0.125141 -4.37555e-09 2.66221e-14)
(0.125141 -1.95339e-09 2.64715e-14)
(0.125141 5.8716e-10 2.65445e-14)
(0.125141 3.31349e-09 2.64471e-14)
(0.125141 6.20795e-09 2.65697e-14)
(0.125141 8.94575e-09 2.65564e-14)
(0.125141 1.16517e-08 2.64153e-14)
(0.125141 1.43228e-08 2.6535e-14)
(0.125141 1.67671e-08 2.63931e-14)
(0.125141 1.91695e-08 2.64234e-14)
(0.125141 2.14209e-08 2.64951e-14)
(0.125141 2.34459e-08 2.63627e-14)
(0.125141 2.53468e-08 2.64947e-14)
(0.125141 2.72157e-08 2.63628e-14)
(0.125141 2.90604e-08 2.64202e-14)
(0.125141 3.0693e-08 2.6435e-14)
(0.125141 3.212e-08 2.62937e-14)
(0.125141 3.34394e-08 2.63579e-14)
(0.125141 3.47021e-08 2.62554e-14)
(0.125141 3.59195e-08 2.63057e-14)
(0.125141 3.6868e-08 2.63563e-14)
(0.125141 3.76075e-08 2.64797e-14)
(0.125141 3.83786e-08 2.63123e-14)
(0.125141 3.89778e-08 2.63572e-14)
(0.125141 3.94343e-08 2.64575e-14)
(0.125141 3.9918e-08 2.63989e-14)
(0.125141 3.94152e-08 2.64365e-14)
(0.125141 3.86515e-08 2.6304e-14)
(0.125141 3.85663e-08 2.64095e-14)
(0.125141 3.9304e-08 2.63912e-14)
(0.125141 4.11326e-08 2.64109e-14)
(0.125141 4.25022e-08 2.64579e-14)
(0.125141 4.20835e-08 2.63365e-14)
(0.125141 3.95145e-08 2.64148e-14)
(0.125141 3.51614e-08 2.64445e-14)
(0.125141 2.95965e-08 2.64604e-14)
(0.125141 2.31108e-08 2.64689e-14)
(0.125141 1.61677e-08 2.63802e-14)
(0.125141 9.09098e-09 2.65109e-14)
(0.125141 3.10211e-09 2.65594e-14)
(0.125141 -2.57452e-09 2.65057e-14)
(0.125141 -1.94471e-09 2.64959e-14)
(0.125141 -3.50969e-09 2.64196e-14)
(0.125141 2.01451e-08 2.65083e-14)
(0.125947 -4.60387e-08 2.70831e-14)
(0.125947 -1.33106e-08 2.69137e-14)
(0.125947 3.46834e-09 2.70205e-14)
(0.125947 1.01156e-08 2.6999e-14)
(0.125947 9.77839e-09 2.70531e-14)
(0.125947 6.81074e-09 2.71446e-14)
(0.125947 2.86321e-09 2.69835e-14)
(0.125947 -1.38618e-09 2.70768e-14)
(0.125947 -5.25162e-09 2.69058e-14)
(0.125947 -8.23585e-09 2.6921e-14)
(0.125947 -1.03794e-08 2.70019e-14)
(0.125947 -1.15433e-08 2.68226e-14)
(0.125947 -1.16537e-08 2.69123e-14)
(0.125947 -1.09156e-08 2.6794e-14)
(0.125947 -9.55933e-09 2.68204e-14)
(0.125947 -7.59861e-09 2.69107e-14)
(0.125947 -5.20496e-09 2.67357e-14)
(0.125947 -2.72178e-09 2.68306e-14)
(0.125947 4.91384e-11 2.66916e-14)
(0.125947 2.96729e-09 2.67456e-14)
(0.125948 5.75447e-09 2.68467e-14)
(0.125948 8.62986e-09 2.66889e-14)
(0.125948 1.14788e-08 2.67963e-14)
(0.125948 1.4171e-08 2.66558e-14)
(0.125948 1.68114e-08 2.66813e-14)
(0.125948 1.92058e-08 2.67884e-14)
(0.125948 2.14902e-08 2.66327e-14)
(0.125948 2.36951e-08 2.67501e-14)
(0.125948 2.58023e-08 2.66283e-14)
(0.125948 2.79155e-08 2.66426e-14)
(0.125948 2.9806e-08 2.67279e-14)
(0.125948 3.15375e-08 2.65543e-14)
(0.125948 3.31482e-08 2.6652e-14)
(0.125948 3.46891e-08 2.65125e-14)
(0.125948 3.61866e-08 2.65598e-14)
(0.125948 3.74097e-08 2.66686e-14)
(0.125948 3.84358e-08 2.66962e-14)
(0.125948 3.94069e-08 2.66226e-14)
(0.125948 4.02965e-08 2.67025e-14)
(0.125948 4.10264e-08 2.66805e-14)
(0.125948 4.17275e-08 2.67343e-14)
(0.125948 4.1463e-08 2.66981e-14)
(0.125948 4.07724e-08 2.66222e-14)
(0.125948 4.05432e-08 2.67106e-14)
(0.125948 4.08368e-08 2.66936e-14)
(0.125948 4.21723e-08 2.675e-14)
(0.125948 4.35663e-08 2.67217e-14)
(0.125948 4.37489e-08 2.66673e-14)
(0.125947 4.21224e-08 2.67661e-14)
(0.125947 3.87672e-08 2.6744e-14)
(0.125947 3.40873e-08 2.68013e-14)
(0.125947 2.83009e-08 2.67707e-14)
(0.125947 2.19074e-08 2.67153e-14)
(0.125947 1.52423e-08 2.67991e-14)
(0.125947 9.37849e-09 2.67996e-14)
(0.125947 3.79202e-09 2.68454e-14)
(0.125947 4.10916e-09 2.68008e-14)
(0.125947 1.73763e-09 2.67558e-14)
(0.125947 2.55078e-08 2.68202e-14)
(0.126731 -4.65787e-08 2.73726e-14)
(0.126731 -1.38616e-08 2.71963e-14)
(0.126731 2.816e-09 2.72919e-14)
(0.126731 9.52084e-09 2.73407e-14)
(0.126731 9.47796e-09 2.73797e-14)
(0.126731 6.73692e-09 2.74352e-14)
(0.126731 2.7341e-09 2.72245e-14)
(0.126731 -1.69454e-09 2.73558e-14)
(0.126731 -5.86179e-09 2.72219e-14)
(0.126731 -9.22811e-09 2.72407e-14)
(0.126731 -1.17385e-08 2.73001e-14)
(0.126731 -1.32128e-08 2.70785e-14)
(0.126732 -1.36625e-08 2.72093e-14)
(0.126732 -1.32286e-08 2.71167e-14)
(0.126732 -1.21002e-08 2.7151e-14)
(0.126732 -1.03556e-08 2.72127e-14)
(0.126732 -8.06576e-09 2.70578e-14)
(0.126732 -5.5707e-09 2.71274e-14)
(0.126732 -2.79618e-09 2.6988e-14)
(0.126732 1.01271e-10 2.70736e-14)
(0.126732 2.95107e-09 2.71514e-14)
(0.126732 5.96315e-09 2.69418e-14)
(0.126732 8.96521e-09 2.70881e-14)
(0.126732 1.18627e-08 2.69806e-14)
(0.126732 1.47344e-08 2.70196e-14)
(0.126732 1.72965e-08 2.70965e-14)
(0.126732 1.98199e-08 2.69605e-14)
(0.126732 2.23252e-08 2.70417e-14)
(0.126732 2.46667e-08 2.69493e-14)
(0.126732 2.70277e-08 2.69797e-14)
(0.126732 2.91923e-08 2.70374e-14)
(0.126732 3.12146e-08 2.68564e-14)
(0.126732 3.30617e-08 2.69541e-14)
(0.126732 3.48719e-08 2.67796e-14)
(0.126732 3.66881e-08 2.6896e-14)
(0.126732 3.81844e-08 2.70037e-14)
(0.126732 3.95355e-08 2.70203e-14)
(0.126732 4.07369e-08 2.69019e-14)
(0.126732 4.18704e-08 2.70431e-14)
(0.126732 4.28236e-08 2.70369e-14)
(0.126732 4.37128e-08 2.70801e-14)
(0.126732 4.37416e-08 2.70486e-14)
(0.126732 4.32659e-08 2.6943e-14)
(0.126732 4.30126e-08 2.70594e-14)
(0.126732 4.3022e-08 2.7055e-14)
(0.126732 4.39029e-08 2.71004e-14)
(0.126732 4.50229e-08 2.7075e-14)
(0.126732 4.54707e-08 2.69901e-14)
(0.126732 4.45181e-08 2.71086e-14)
(0.126732 4.19777e-08 2.71042e-14)
(0.126732 3.80777e-08 2.71526e-14)
(0.126731 3.29984e-08 2.7127e-14)
(0.126731 2.71788e-08 2.70432e-14)
(0.126731 2.09301e-08 2.71469e-14)
(0.126731 1.523e-08 2.71486e-14)
(0.126731 9.77633e-09 2.71962e-14)
(0.126731 9.8462e-09 2.71621e-14)
(0.126731 6.56834e-09 2.70447e-14)
(0.126731 3.05009e-08 2.71806e-14)
(0.127494 -4.70227e-08 2.76691e-14)
(0.127494 -1.45205e-08 2.75878e-14)
(0.127494 1.84095e-09 2.7597e-14)
(0.127494 8.44178e-09 2.76672e-14)
(0.127494 8.6869e-09 2.77034e-14)
(0.127494 6.18756e-09 2.77296e-14)
(0.127494 2.21091e-09 2.76501e-14)
(0.127494 -2.21245e-09 2.76614e-14)
(0.127494 -6.44029e-09 2.75723e-14)
(0.127494 -1.00242e-08 2.75875e-14)
(0.127494 -1.27905e-08 2.76016e-14)
(0.127494 -1.45572e-08 2.75049e-14)
(0.127494 -1.53002e-08 2.75341e-14)
(0.127494 -1.50715e-08 2.74801e-14)
(0.127494 -1.41831e-08 2.75026e-14)
(0.127494 -1.2628e-08 2.75199e-14)
(0.127494 -1.04394e-08 2.74263e-14)
(0.127494 -7.98474e-09 2.74529e-14)
(0.127494 -5.25553e-09 2.7385e-14)
(0.127494 -2.36e-09 2.74333e-14)
(0.127494 5.89466e-10 2.74614e-14)
(0.127494 3.73349e-09 2.73859e-14)
(0.127494 6.85336e-09 2.74129e-14)
(0.127494 9.87453e-09 2.73553e-14)
(0.127494 1.29701e-08 2.73808e-14)
(0.127494 1.57021e-08 2.7411e-14)
(0.127494 1.84475e-08 2.73324e-14)
(0.127494 2.13064e-08 2.7366e-14)
(0.127494 2.38132e-08 2.73219e-14)
(0.127494 2.63702e-08 2.73387e-14)
(0.127494 2.88986e-08 2.73523e-14)
(0.127494 3.11455e-08 2.72574e-14)
(0.127494 3.32383e-08 2.72907e-14)
(0.127494 3.53832e-08 2.72213e-14)
(0.127494 3.7422e-08 2.72624e-14)
(0.127494 3.91825e-08 2.7277e-14)
(0.127494 4.08852e-08 2.73353e-14)
(0.127494 4.23381e-08 2.73144e-14)
(0.127494 4.36883e-08 2.73473e-14)
(0.127494 4.4894e-08 2.73811e-14)
(0.127494 4.5984e-08 2.73528e-14)
(0.127494 4.62894e-08 2.73765e-14)
(0.127494 4.60971e-08 2.73217e-14)
(0.127494 4.58506e-08 2.73624e-14)
(0.127494 4.57168e-08 2.74026e-14)
(0.127494 4.62982e-08 2.73769e-14)
(0.127494 4.70843e-08 2.74059e-14)
(0.127494 4.75318e-08 2.73765e-14)
(0.127494 4.69778e-08 2.74096e-14)
(0.127494 4.50441e-08 2.74513e-14)
(0.127494 4.17629e-08 2.74304e-14)
(0.127494 3.72658e-08 2.74596e-14)
(0.127494 3.1996e-08 2.74384e-14)
(0.127494 2.61905e-08 2.74588e-14)
(0.127494 2.0743e-08 2.74973e-14)
(0.127494 1.53872e-08 2.74751e-14)
(0.127494 1.51e-08 2.74994e-14)
(0.127494 1.09563e-08 2.74667e-14)
(0.127494 3.50878e-08 2.74878e-14)
(0.128235 -4.735e-08 2.79672e-14)
(0.128235 -1.51686e-08 2.79392e-14)
(0.128235 6.72126e-10 2.79091e-14)
(0.128235 7.00637e-09 2.79985e-14)
(0.128235 7.41617e-09 2.80201e-14)
(0.128235 5.14738e-09 2.80239e-14)
(0.128235 1.30475e-09 2.79927e-14)
(0.128235 -3.0035e-09 2.79709e-14)
(0.128235 -7.18278e-09 2.79306e-14)
(0.128235 -1.08389e-08 2.79399e-14)
(0.128235 -1.37026e-08 2.79013e-14)
(0.128235 -1.56225e-08 2.78705e-14)
(0.128235 -1.65923e-08 2.78629e-14)
(0.128235 -1.65874e-08 2.78438e-14)
(0.128235 -1.58828e-08 2.78607e-14)
(0.128235 -1.4485e-08 2.78258e-14)
(0.128235 -1.23667e-08 2.77903e-14)
(0.128235 -9.95102e-09 2.77877e-14)
(0.128235 -7.29483e-09 2.77704e-14)
(0.128235 -4.36333e-09 2.77998e-14)
(0.128235 -1.28705e-09 2.77706e-14)
(0.128235 1.91517e-09 2.77475e-14)
(0.128235 5.09653e-09 2.77486e-14)
(0.128235 8.26537e-09 2.773e-14)
(0.128235 1.15142e-08 2.7751e-14)
(0.128235 1.44796e-08 2.77242e-14)
(0.128235 1.74706e-08 2.76993e-14)
(0.128235 2.05847e-08 2.7701e-14)
(0.128235 2.33114e-08 2.76902e-14)
(0.128235 2.60346e-08 2.7706e-14)
(0.128235 2.88599e-08 2.76668e-14)
(0.128235 3.13964e-08 2.76368e-14)
(0.128235 3.37555e-08 2.76323e-14)
(0.128235 3.61316e-08 2.76079e-14)
(0.128235 3.84321e-08 2.76349e-14)
(0.128235 4.04945e-08 2.7552e-14)
(0.128235 4.24765e-08 2.76635e-14)
(0.128235 4.42429e-08 2.77037e-14)
(0.128235 4.58175e-08 2.7664e-14)
(0.128235 4.72091e-08 2.773e-14)
(0.128235 4.85091e-08 2.76152e-14)
(0.128235 4.91078e-08 2.77075e-14)
(0.128235 4.92171e-08 2.77004e-14)
(0.128235 4.90216e-08 2.76758e-14)
(0.128235 4.88486e-08 2.7753e-14)
(0.128235 4.92672e-08 2.76421e-14)
(0.128235 4.97868e-08 2.7739e-14)
(0.128235 5.01387e-08 2.7753e-14)
(0.128235 4.96757e-08 2.77233e-14)
(0.128235 4.80994e-08 2.78024e-14)
(0.128235 4.53162e-08 2.76973e-14)
(0.128235 4.13063e-08 2.77942e-14)
(0.128235 3.64837e-08 2.78374e-14)
(0.128235 3.11081e-08 2.77844e-14)
(0.128235 2.59019e-08 2.78532e-14)
(0.128235 2.06069e-08 2.77447e-14)
(0.128235 1.98978e-08 2.78384e-14)
(0.128235 1.48166e-08 2.78394e-14)
(0.128234 3.93102e-08 2.78023e-14)
(0.128955 -4.75149e-08 2.82627e-14)
(0.128955 -1.57471e-08 2.82756e-14)
(0.128955 -6.00401e-10 2.82149e-14)
(0.128955 5.29468e-09 2.83288e-14)
(0.128955 5.71847e-09 2.83276e-14)
(0.128955 3.63655e-09 2.83151e-14)
(0.128955 -7.35623e-13 2.83242e-14)
(0.128955 -4.13163e-09 2.82724e-14)
(0.128955 -8.13077e-09 2.82725e-14)
(0.128955 -1.17283e-08 2.82914e-14)
(0.128955 -1.46231e-08 2.81865e-14)
(0.128955 -1.66403e-08 2.82208e-14)
(0.128955 -1.77162e-08 2.81872e-14)
(0.128955 -1.77894e-08 2.81979e-14)
(0.128955 -1.72049e-08 2.82208e-14)
(0.128955 -1.59394e-08 2.81182e-14)
(0.128955 -1.38955e-08 2.81476e-14)
(0.128955 -1.15022e-08 2.81187e-14)
(0.128955 -8.87939e-09 2.81369e-14)
(0.128955 -5.94249e-09 2.81667e-14)
(0.128955 -2.78057e-09 2.80666e-14)
(0.128955 5.08827e-10 2.81055e-14)
(0.128955 3.79158e-09 2.80825e-14)
(0.128955 7.03952e-09 2.8097e-14)
(0.128955 1.04344e-08 2.81223e-14)
(0.128955 1.36855e-08 2.80238e-14)
(0.128955 1.68688e-08 2.80588e-14)
(0.128955 2.0206e-08 2.80329e-14)
(0.128955 2.3116e-08 2.80532e-14)
(0.128955 2.6e-08 2.80758e-14)
(0.128955 2.91432e-08 2.7968e-14)
(0.128955 3.19466e-08 2.79996e-14)
(0.128955 3.45824e-08 2.79684e-14)
(0.128955 3.72438e-08 2.79776e-14)
(0.128955 3.97923e-08 2.80065e-14)
(0.128955 4.21091e-08 2.78814e-14)
(0.128955 4.43032e-08 2.79506e-14)
(0.128955 4.63657e-08 2.8057e-14)
(0.128955 4.82141e-08 2.79696e-14)
(0.128955 4.98768e-08 2.80154e-14)
(0.128955 5.13724e-08 2.7922e-14)
(0.128955 5.21984e-08 2.79918e-14)
(0.128955 5.25807e-08 2.80962e-14)
(0.128955 5.25016e-08 2.79783e-14)
(0.128955 5.23812e-08 2.804e-14)
(0.128955 5.27295e-08 2.79507e-14)
(0.128955 5.3055e-08 2.80249e-14)
(0.128955 5.32356e-08 2.81793e-14)
(0.128955 5.27598e-08 2.80261e-14)
(0.128955 5.13638e-08 2.809e-14)
(0.128955 4.88968e-08 2.80073e-14)
(0.128955 4.5276e-08 2.80813e-14)