/*--------------------------------*- C++ -*----------------------------------*\
  =========                 |
  \\      /  F ield         | OpenFOAM: The Open Source CFD Toolbox
   \\    /   O peration     | Website:  https://openfoam.org
    \\  /    A nd           | Version:  7
     \\/     M anipulation  |
\*---------------------------------------------------------------------------*/
FoamFile
{
    version     2.0;
    format      ascii;
    class       volScalarField;
    location    "3000";
    object      k;
}
// * * * * * * * * * * * * * * * * * * * * * * * * * * * * * * * * * * * * * //

dimensions      [0 2 -2 0 0 0 0];

internalField   nonuniform List<scalar> 
24000
(
6.66451e-09
6.66436e-09
6.66414e-09
6.66391e-09
6.66371e-09
6.66353e-09
6.6634e-09
6.6633e-09
6.66324e-09
6.66321e-09
6.6632e-09
6.6632e-09
6.66323e-09
6.66328e-09
6.66333e-09
6.66339e-09
6.66345e-09
6.6635e-09
6.66356e-09
6.66361e-09
6.66366e-09
6.66371e-09
6.66377e-09
6.66383e-09
6.66389e-09
6.66396e-09
6.66402e-09
6.66408e-09
6.66414e-09
6.6642e-09
6.66425e-09
6.6643e-09
6.66434e-09
6.66439e-09
6.66444e-09
6.66449e-09
6.66455e-09
6.6646e-09
6.66465e-09
6.66469e-09
6.66474e-09
6.66477e-09
6.66481e-09
6.66483e-09
6.66486e-09
6.66487e-09
6.66489e-09
6.66491e-09
6.66494e-09
6.66496e-09
6.66499e-09
6.66501e-09
6.66503e-09
6.66505e-09
6.66506e-09
6.66507e-09
6.66508e-09
6.66508e-09
6.66507e-09
6.66506e-09
6.66504e-09
6.66501e-09
6.66497e-09
6.66493e-09
6.66488e-09
6.66483e-09
6.66478e-09
6.66473e-09
6.66468e-09
6.66464e-09
6.66459e-09
6.66455e-09
6.66452e-09
6.66449e-09
6.66446e-09
6.66443e-09
6.66441e-09
6.66439e-09
6.66437e-09
6.66435e-09
6.66433e-09
6.66432e-09
6.66431e-09
6.6643e-09
6.66429e-09
6.66429e-09
6.66428e-09
6.66428e-09
6.66428e-09
6.66427e-09
6.66426e-09
6.66426e-09
6.66425e-09
6.66424e-09
6.66424e-09
6.66423e-09
6.66423e-09
6.66423e-09
6.66424e-09
6.66425e-09
6.66426e-09
6.66427e-09
6.66429e-09
6.66431e-09
6.66433e-09
6.66434e-09
6.66436e-09
6.66439e-09
6.66441e-09
6.66444e-09
6.66446e-09
6.66449e-09
6.66451e-09
6.66453e-09
6.66455e-09
6.66456e-09
6.66457e-09
6.66458e-09
6.66454e-09
6.66459e-09
2.0085e-07
2.00846e-07
2.00839e-07
2.00832e-07
2.00826e-07
2.00821e-07
2.00817e-07
2.00814e-07
2.00812e-07
2.00811e-07
2.00811e-07
2.00811e-07
2.00812e-07
2.00813e-07
2.00815e-07
2.00817e-07
2.00818e-07
2.0082e-07
2.00822e-07
2.00823e-07
2.00825e-07
2.00826e-07
2.00828e-07
2.0083e-07
2.00832e-07
2.00834e-07
2.00836e-07
2.00837e-07
2.00839e-07
2.00841e-07
2.00842e-07
2.00844e-07
2.00845e-07
2.00847e-07
2.00848e-07
2.0085e-07
2.00851e-07
2.00853e-07
2.00854e-07
2.00856e-07
2.00857e-07
2.00858e-07
2.00859e-07
2.0086e-07
2.00861e-07
2.00861e-07
2.00862e-07
2.00862e-07
2.00863e-07
2.00864e-07
2.00865e-07
2.00865e-07
2.00866e-07
2.00866e-07
2.00867e-07
2.00867e-07
2.00867e-07
2.00867e-07
2.00867e-07
2.00867e-07
2.00866e-07
2.00865e-07
2.00864e-07
2.00863e-07
2.00862e-07
2.0086e-07
2.00859e-07
2.00857e-07
2.00856e-07
2.00854e-07
2.00853e-07
2.00852e-07
2.00851e-07
2.0085e-07
2.00849e-07
2.00848e-07
2.00847e-07
2.00847e-07
2.00846e-07
2.00845e-07
2.00845e-07
2.00845e-07
2.00844e-07
2.00844e-07
2.00844e-07
2.00844e-07
2.00843e-07
2.00843e-07
2.00843e-07
2.00843e-07
2.00843e-07
2.00843e-07
2.00842e-07
2.00842e-07
2.00842e-07
2.00842e-07
2.00842e-07
2.00842e-07
2.00842e-07
2.00842e-07
2.00843e-07
2.00843e-07
2.00844e-07
2.00844e-07
2.00845e-07
2.00845e-07
2.00846e-07
2.00847e-07
2.00847e-07
2.00848e-07
2.00849e-07
2.0085e-07
2.0085e-07
2.00851e-07
2.00851e-07
2.00852e-07
2.00852e-07
2.00852e-07
2.00851e-07
2.00853e-07
1.45815e-06
1.45811e-06
1.45807e-06
1.45802e-06
1.45797e-06
1.45793e-06
1.45791e-06
1.45789e-06
1.45787e-06
1.45786e-06
1.45786e-06
1.45786e-06
1.45787e-06
1.45788e-06
1.45789e-06
1.4579e-06
1.45792e-06
1.45793e-06
1.45794e-06
1.45795e-06
1.45796e-06
1.45797e-06
1.45799e-06
1.458e-06
1.45801e-06
1.45803e-06
1.45804e-06
1.45805e-06
1.45807e-06
1.45808e-06
1.45809e-06
1.4581e-06
1.45811e-06
1.45812e-06
1.45813e-06
1.45814e-06
1.45816e-06
1.45817e-06
1.45818e-06
1.45819e-06
1.4582e-06
1.45821e-06
1.45821e-06
1.45822e-06
1.45822e-06
1.45823e-06
1.45823e-06
1.45824e-06
1.45824e-06
1.45825e-06
1.45825e-06
1.45826e-06
1.45826e-06
1.45827e-06
1.45827e-06
1.45827e-06
1.45827e-06
1.45827e-06
1.45827e-06
1.45827e-06
1.45826e-06
1.45826e-06
1.45825e-06
1.45824e-06
1.45823e-06
1.45822e-06
1.45821e-06
1.4582e-06
1.45819e-06
1.45818e-06
1.45817e-06
1.45816e-06
1.45815e-06
1.45814e-06
1.45814e-06
1.45813e-06
1.45813e-06
1.45812e-06
1.45812e-06
1.45811e-06
1.45811e-06
1.45811e-06
1.4581e-06
1.4581e-06
1.4581e-06
1.4581e-06
1.4581e-06
1.4581e-06
1.4581e-06
1.4581e-06
1.45809e-06
1.45809e-06
1.45809e-06
1.45809e-06
1.45809e-06
1.45809e-06
1.45809e-06
1.45809e-06
1.45809e-06
1.45809e-06
1.45809e-06
1.4581e-06
1.4581e-06
1.4581e-06
1.45811e-06
1.45811e-06
1.45812e-06
1.45812e-06
1.45813e-06
1.45813e-06
1.45814e-06
1.45814e-06
1.45815e-06
1.45815e-06
1.45816e-06
1.45816e-06
1.45816e-06
1.45816e-06
1.45816e-06
1.45816e-06
5.39386e-06
5.39373e-06
5.39355e-06
5.39337e-06
5.39321e-06
5.39308e-06
5.39297e-06
5.3929e-06
5.39285e-06
5.39282e-06
5.39281e-06
5.39282e-06
5.39284e-06
5.39287e-06
5.39292e-06
5.39296e-06
5.39301e-06
5.39306e-06
5.3931e-06
5.39314e-06
5.39318e-06
5.39323e-06
5.39327e-06
5.39332e-06
5.39337e-06
5.39342e-06
5.39347e-06
5.39352e-06
5.39357e-06
5.39361e-06
5.39365e-06
5.39369e-06
5.39373e-06
5.39377e-06
5.39381e-06
5.39385e-06
5.39389e-06
5.39393e-06
5.39397e-06
5.39401e-06
5.39404e-06
5.39408e-06
5.3941e-06
5.39412e-06
5.39414e-06
5.39415e-06
5.39417e-06
5.39419e-06
5.3942e-06
5.39422e-06
5.39424e-06
5.39426e-06
5.39428e-06
5.39429e-06
5.39431e-06
5.39431e-06
5.39432e-06
5.39432e-06
5.39431e-06
5.3943e-06
5.39428e-06
5.39426e-06
5.39423e-06
5.3942e-06
5.39416e-06
5.39412e-06
5.39408e-06
5.39404e-06
5.394e-06
5.39396e-06
5.39393e-06
5.39389e-06
5.39387e-06
5.39384e-06
5.39382e-06
5.3938e-06
5.39378e-06
5.39376e-06
5.39375e-06
5.39373e-06
5.39372e-06
5.39371e-06
5.3937e-06
5.39369e-06
5.39369e-06
5.39368e-06
5.39368e-06
5.39367e-06
5.39367e-06
5.39367e-06
5.39366e-06
5.39366e-06
5.39365e-06
5.39365e-06
5.39364e-06
5.39364e-06
5.39364e-06
5.39364e-06
5.39364e-06
5.39365e-06
5.39366e-06
5.39367e-06
5.39369e-06
5.3937e-06
5.39371e-06
5.39373e-06
5.39375e-06
5.39376e-06
5.39378e-06
5.3938e-06
5.39382e-06
5.39384e-06
5.39386e-06
5.39388e-06
5.39389e-06
5.3939e-06
5.39391e-06
5.39391e-06
5.39389e-06
5.39392e-06
1.37963e-05
1.37959e-05
1.37955e-05
1.3795e-05
1.37946e-05
1.37943e-05
1.37941e-05
1.37939e-05
1.37938e-05
1.37937e-05
1.37937e-05
1.37937e-05
1.37937e-05
1.37938e-05
1.37939e-05
1.37941e-05
1.37942e-05
1.37943e-05
1.37944e-05
1.37945e-05
1.37946e-05
1.37947e-05
1.37948e-05
1.37949e-05
1.37951e-05
1.37952e-05
1.37953e-05
1.37955e-05
1.37956e-05
1.37957e-05
1.37958e-05
1.37959e-05
1.3796e-05
1.37961e-05
1.37962e-05
1.37963e-05
1.37964e-05
1.37965e-05
1.37966e-05
1.37967e-05
1.37968e-05
1.37968e-05
1.37969e-05
1.3797e-05
1.3797e-05
1.3797e-05
1.37971e-05
1.37971e-05
1.37972e-05
1.37972e-05
1.37973e-05
1.37973e-05
1.37974e-05
1.37974e-05
1.37974e-05
1.37974e-05
1.37974e-05
1.37974e-05
1.37974e-05
1.37974e-05
1.37973e-05
1.37973e-05
1.37972e-05
1.37971e-05
1.3797e-05
1.37969e-05
1.37968e-05
1.37967e-05
1.37966e-05
1.37965e-05
1.37965e-05
1.37964e-05
1.37963e-05
1.37962e-05
1.37962e-05
1.37961e-05
1.37961e-05
1.3796e-05
1.3796e-05
1.3796e-05
1.37959e-05
1.37959e-05
1.37959e-05
1.37959e-05
1.37959e-05
1.37958e-05
1.37958e-05
1.37958e-05
1.37958e-05
1.37958e-05
1.37958e-05
1.37958e-05
1.37958e-05
1.37958e-05
1.37957e-05
1.37957e-05
1.37957e-05
1.37957e-05
1.37957e-05
1.37958e-05
1.37958e-05
1.37958e-05
1.37959e-05
1.37959e-05
1.37959e-05
1.3796e-05
1.3796e-05
1.37961e-05
1.37961e-05
1.37962e-05
1.37962e-05
1.37963e-05
1.37963e-05
1.37963e-05
1.37964e-05
1.37964e-05
1.37964e-05
1.37964e-05
1.37964e-05
1.37965e-05
2.74566e-05
2.74559e-05
2.74551e-05
2.74542e-05
2.74535e-05
2.74529e-05
2.74525e-05
2.74521e-05
2.74519e-05
2.74518e-05
2.74518e-05
2.74518e-05
2.74519e-05
2.74521e-05
2.74523e-05
2.74525e-05
2.74528e-05
2.7453e-05
2.74532e-05
2.74534e-05
2.74536e-05
2.74538e-05
2.7454e-05
2.74542e-05
2.74545e-05
2.74547e-05
2.7455e-05
2.74552e-05
2.74554e-05
2.74556e-05
2.74558e-05
2.7456e-05
2.74562e-05
2.74564e-05
2.74566e-05
2.74567e-05
2.74569e-05
2.74571e-05
2.74573e-05
2.74575e-05
2.74577e-05
2.74578e-05
2.74579e-05
2.7458e-05
2.74581e-05
2.74582e-05
2.74582e-05
2.74583e-05
2.74584e-05
2.74585e-05
2.74586e-05
2.74587e-05
2.74588e-05
2.74588e-05
2.74589e-05
2.74589e-05
2.74589e-05
2.74589e-05
2.74589e-05
2.74588e-05
2.74587e-05
2.74586e-05
2.74585e-05
2.74583e-05
2.74581e-05
2.74579e-05
2.74577e-05
2.74575e-05
2.74573e-05
2.74572e-05
2.7457e-05
2.74569e-05
2.74567e-05
2.74566e-05
2.74565e-05
2.74564e-05
2.74563e-05
2.74562e-05
2.74562e-05
2.74561e-05
2.7456e-05
2.7456e-05
2.74559e-05
2.74559e-05
2.74559e-05
2.74559e-05
2.74558e-05
2.74558e-05
2.74558e-05
2.74558e-05
2.74558e-05
2.74557e-05
2.74557e-05
2.74557e-05
2.74557e-05
2.74556e-05
2.74556e-05
2.74556e-05
2.74557e-05
2.74557e-05
2.74558e-05
2.74558e-05
2.74559e-05
2.7456e-05
2.7456e-05
2.74561e-05
2.74562e-05
2.74563e-05
2.74564e-05
2.74565e-05
2.74566e-05
2.74567e-05
2.74568e-05
2.74568e-05
2.74569e-05
2.74569e-05
2.7457e-05
2.7457e-05
2.74569e-05
2.74571e-05
4.50703e-05
4.50691e-05
4.50678e-05
4.50665e-05
4.50655e-05
4.50646e-05
4.5064e-05
4.50635e-05
4.50632e-05
4.50631e-05
4.5063e-05
4.50631e-05
4.50633e-05
4.50635e-05
4.50639e-05
4.50642e-05
4.50646e-05
4.5065e-05
4.50653e-05
4.50656e-05
4.50659e-05
4.50662e-05
4.50666e-05
4.50669e-05
4.50672e-05
4.50676e-05
4.5068e-05
4.50684e-05
4.50687e-05
4.5069e-05
4.50693e-05
4.50696e-05
4.50699e-05
4.50701e-05
4.50704e-05
4.50707e-05
4.5071e-05
4.50713e-05
4.50715e-05
4.50718e-05
4.50721e-05
4.50723e-05
4.50725e-05
4.50726e-05
4.50728e-05
4.50729e-05
4.5073e-05
4.50731e-05
4.50732e-05
4.50734e-05
4.50735e-05
4.50736e-05
4.50738e-05
4.50739e-05
4.50739e-05
4.5074e-05
4.5074e-05
4.50739e-05
4.50739e-05
4.50738e-05
4.50736e-05
4.50734e-05
4.50732e-05
4.50729e-05
4.50727e-05
4.50724e-05
4.50721e-05
4.50718e-05
4.50715e-05
4.50712e-05
4.5071e-05
4.50707e-05
4.50705e-05
4.50703e-05
4.50702e-05
4.507e-05
4.50699e-05
4.50698e-05
4.50697e-05
4.50696e-05
4.50695e-05
4.50694e-05
4.50693e-05
4.50693e-05
4.50692e-05
4.50692e-05
4.50692e-05
4.50692e-05
4.50691e-05
4.50691e-05
4.50691e-05
4.5069e-05
4.5069e-05
4.5069e-05
4.50689e-05
4.50689e-05
4.50689e-05
4.50689e-05
4.50689e-05
4.5069e-05
4.50691e-05
4.50692e-05
4.50693e-05
4.50694e-05
4.50695e-05
4.50697e-05
4.50698e-05
4.50699e-05
4.50701e-05
4.50702e-05
4.50704e-05
4.50705e-05
4.50706e-05
4.50708e-05
4.50708e-05
4.50709e-05
4.5071e-05
4.5071e-05
4.50708e-05
4.50712e-05
6.39006e-05
6.38989e-05
6.38971e-05
6.38955e-05
6.38943e-05
6.38933e-05
6.38925e-05
6.38919e-05
6.38916e-05
6.38915e-05
6.38914e-05
6.38915e-05
6.38918e-05
6.38921e-05
6.38926e-05
6.38931e-05
6.38936e-05
6.38941e-05
6.38945e-05
6.3895e-05
6.38954e-05
6.38958e-05
6.38962e-05
6.38966e-05
6.38971e-05
6.38975e-05
6.3898e-05
6.38985e-05
6.3899e-05
6.38994e-05
6.38998e-05
6.39002e-05
6.39005e-05
6.39009e-05
6.39012e-05
6.39016e-05
6.39019e-05
6.39023e-05
6.39027e-05
6.3903e-05
6.39033e-05
6.39036e-05
6.39039e-05
6.39041e-05
6.39043e-05
6.39044e-05
6.39045e-05
6.39047e-05
6.39049e-05
6.3905e-05
6.39052e-05
6.39054e-05
6.39055e-05
6.39057e-05
6.39057e-05
6.39058e-05
6.39058e-05
6.39057e-05
6.39056e-05
6.39054e-05
6.39052e-05
6.39049e-05
6.39046e-05
6.39043e-05
6.39039e-05
6.39035e-05
6.39031e-05
6.39027e-05
6.39024e-05
6.3902e-05
6.39017e-05
6.39014e-05
6.39011e-05
6.39009e-05
6.39007e-05
6.39005e-05
6.39003e-05
6.39002e-05
6.39e-05
6.38999e-05
6.38998e-05
6.38997e-05
6.38996e-05
6.38995e-05
6.38995e-05
6.38994e-05
6.38994e-05
6.38994e-05
6.38993e-05
6.38993e-05
6.38992e-05
6.38992e-05
6.38991e-05
6.38991e-05
6.3899e-05
6.3899e-05
6.3899e-05
6.3899e-05
6.3899e-05
6.38991e-05
6.38992e-05
6.38994e-05
6.38996e-05
6.38997e-05
6.38999e-05
6.39001e-05
6.39003e-05
6.39005e-05
6.39007e-05
6.39008e-05
6.3901e-05
6.39012e-05
6.39014e-05
6.39015e-05
6.39016e-05
6.39017e-05
6.39018e-05
6.39018e-05
6.39016e-05
6.39021e-05
8.15914e-05
8.15892e-05
8.1587e-05
8.15852e-05
8.15838e-05
8.15827e-05
8.15819e-05
8.15813e-05
8.1581e-05
8.15808e-05
8.15808e-05
8.1581e-05
8.15812e-05
8.15817e-05
8.15822e-05
8.15829e-05
8.15835e-05
8.15841e-05
8.15847e-05
8.15852e-05
8.15857e-05
8.15862e-05
8.15867e-05
8.15872e-05
8.15877e-05
8.15883e-05
8.15889e-05
8.15895e-05
8.159e-05
8.15905e-05
8.1591e-05
8.15915e-05
8.15919e-05
8.15923e-05
8.15926e-05
8.1593e-05
8.15935e-05
8.15939e-05
8.15943e-05
8.15947e-05
8.15951e-05
8.15955e-05
8.15957e-05
8.1596e-05
8.15962e-05
8.15964e-05
8.15965e-05
8.15967e-05
8.15969e-05
8.15971e-05
8.15973e-05
8.15975e-05
8.15977e-05
8.15978e-05
8.15979e-05
8.15979e-05
8.15979e-05
8.15978e-05
8.15976e-05
8.15974e-05
8.15971e-05
8.15968e-05
8.15964e-05
8.1596e-05
8.15955e-05
8.1595e-05
8.15946e-05
8.15941e-05
8.15936e-05
8.15932e-05
8.15928e-05
8.15925e-05
8.15922e-05
8.15919e-05
8.15917e-05
8.15914e-05
8.15913e-05
8.15911e-05
8.15909e-05
8.15908e-05
8.15906e-05
8.15905e-05
8.15904e-05
8.15903e-05
8.15903e-05
8.15902e-05
8.15901e-05
8.15901e-05
8.15901e-05
8.159e-05
8.159e-05
8.15899e-05
8.15898e-05
8.15898e-05
8.15897e-05
8.15897e-05
8.15896e-05
8.15897e-05
8.15897e-05
8.15899e-05
8.159e-05
8.15902e-05
8.15904e-05
8.15907e-05
8.15909e-05
8.15911e-05
8.15913e-05
8.15916e-05
8.15918e-05
8.1592e-05
8.15922e-05
8.15924e-05
8.15926e-05
8.15928e-05
8.15929e-05
8.1593e-05
8.15931e-05
8.15932e-05
8.15929e-05
8.15936e-05
9.69935e-05
9.69908e-05
9.69883e-05
9.69863e-05
9.69849e-05
9.69838e-05
9.69829e-05
9.69823e-05
9.6982e-05
9.69819e-05
9.69819e-05
9.69821e-05
9.69824e-05
9.69829e-05
9.69835e-05
9.69843e-05
9.6985e-05
9.69857e-05
9.69864e-05
9.6987e-05
9.69876e-05
9.69881e-05
9.69887e-05
9.69892e-05
9.69898e-05
9.69905e-05
9.69912e-05
9.69918e-05
9.69925e-05
9.69931e-05
9.69936e-05
9.69941e-05
9.69945e-05
9.6995e-05
9.69954e-05
9.69959e-05
9.69963e-05
9.69968e-05
9.69973e-05
9.69977e-05
9.69981e-05
9.69985e-05
9.69988e-05
9.69991e-05
9.69993e-05
9.69995e-05
9.69997e-05
9.69999e-05
9.70001e-05
9.70003e-05
9.70006e-05
9.70008e-05
9.7001e-05
9.70011e-05
9.70012e-05
9.70012e-05
9.70011e-05
9.70009e-05
9.70007e-05
9.70004e-05
9.70001e-05
9.69997e-05
9.69992e-05
9.69987e-05
9.69982e-05
9.69977e-05
9.69971e-05
9.69966e-05
9.69961e-05
9.69956e-05
9.69952e-05
9.69948e-05
9.69945e-05
9.69942e-05
9.69939e-05
9.69937e-05
9.69935e-05
9.69933e-05
9.69931e-05
9.69929e-05
9.69928e-05
9.69926e-05
9.69925e-05
9.69924e-05
9.69923e-05
9.69923e-05
9.69922e-05
9.69922e-05
9.69921e-05
9.69921e-05
9.6992e-05
9.69919e-05
9.69919e-05
9.69918e-05
9.69917e-05
9.69917e-05
9.69917e-05
9.69917e-05
9.69918e-05
9.69919e-05
9.69921e-05
9.69924e-05
9.69926e-05
9.69929e-05
9.69932e-05
9.69934e-05
9.69937e-05
9.6994e-05
9.69942e-05
9.69945e-05
9.69947e-05
9.69949e-05
9.69951e-05
9.69953e-05
9.69954e-05
9.69955e-05
9.69956e-05
9.69957e-05
9.69954e-05
9.69963e-05
0.000109886
0.000109882
0.00010988
0.000109878
0.000109876
0.000109875
0.000109874
0.000109874
0.000109873
0.000109873
0.000109873
0.000109873
0.000109874
0.000109874
0.000109875
0.000109876
0.000109877
0.000109878
0.000109878
0.000109879
0.00010988
0.00010988
0.000109881
0.000109881
0.000109882
0.000109883
0.000109884
0.000109884
0.000109885
0.000109886
0.000109886
0.000109887
0.000109887
0.000109888
0.000109888
0.000109889
0.000109889
0.00010989
0.00010989
0.000109891
0.000109891
0.000109892
0.000109892
0.000109892
0.000109892
0.000109893
0.000109893
0.000109893
0.000109893
0.000109893
0.000109894
0.000109894
0.000109894
0.000109894
0.000109894
0.000109894
0.000109894
0.000109894
0.000109894
0.000109893
0.000109893
0.000109892
0.000109892
0.000109891
0.000109891
0.00010989
0.00010989
0.000109889
0.000109888
0.000109888
0.000109888
0.000109887
0.000109887
0.000109886
0.000109886
0.000109886
0.000109886
0.000109885
0.000109885
0.000109885
0.000109885
0.000109885
0.000109885
0.000109885
0.000109884
0.000109884
0.000109884
0.000109884
0.000109884
0.000109884
0.000109884
0.000109884
0.000109884
0.000109884
0.000109884
0.000109884
0.000109884
0.000109884
0.000109884
0.000109884
0.000109884
0.000109885
0.000109885
0.000109885
0.000109885
0.000109886
0.000109886
0.000109886
0.000109887
0.000109887
0.000109887
0.000109887
0.000109888
0.000109888
0.000109888
0.000109888
0.000109888
0.000109888
0.000109888
0.000109889
0.000120488
0.000120484
0.000120481
0.000120479
0.000120478
0.000120477
0.000120476
0.000120475
0.000120475
0.000120475
0.000120475
0.000120475
0.000120476
0.000120476
0.000120477
0.000120478
0.000120479
0.00012048
0.00012048
0.000120481
0.000120482
0.000120483
0.000120483
0.000120484
0.000120485
0.000120485
0.000120486
0.000120487
0.000120488
0.000120488
0.000120489
0.00012049
0.00012049
0.000120491
0.000120491
0.000120492
0.000120492
0.000120493
0.000120493
0.000120494
0.000120494
0.000120495
0.000120495
0.000120495
0.000120496
0.000120496
0.000120496
0.000120496
0.000120496
0.000120497
0.000120497
0.000120497
0.000120497
0.000120497
0.000120497
0.000120497
0.000120497
0.000120497
0.000120497
0.000120496
0.000120496
0.000120495
0.000120495
0.000120494
0.000120493
0.000120493
0.000120492
0.000120492
0.000120491
0.00012049
0.00012049
0.000120489
0.000120489
0.000120489
0.000120488
0.000120488
0.000120488
0.000120488
0.000120488
0.000120487
0.000120487
0.000120487
0.000120487
0.000120487
0.000120487
0.000120487
0.000120486
0.000120486
0.000120486
0.000120486
0.000120486
0.000120486
0.000120486
0.000120486
0.000120486
0.000120486
0.000120486
0.000120486
0.000120486
0.000120486
0.000120487
0.000120487
0.000120487
0.000120488
0.000120488
0.000120488
0.000120489
0.000120489
0.000120489
0.000120489
0.00012049
0.00012049
0.00012049
0.00012049
0.00012049
0.000120491
0.000120491
0.000120491
0.00012049
0.000120492
0.000129155
0.000129151
0.000129148
0.000129146
0.000129144
0.000129143
0.000129142
0.000129142
0.000129141
0.000129141
0.000129141
0.000129142
0.000129142
0.000129143
0.000129143
0.000129144
0.000129145
0.000129146
0.000129147
0.000129148
0.000129149
0.00012915
0.00012915
0.000129151
0.000129152
0.000129153
0.000129153
0.000129154
0.000129155
0.000129156
0.000129156
0.000129157
0.000129158
0.000129158
0.000129159
0.000129159
0.00012916
0.00012916
0.000129161
0.000129161
0.000129162
0.000129162
0.000129163
0.000129163
0.000129163
0.000129164
0.000129164
0.000129164
0.000129164
0.000129165
0.000129165
0.000129165
0.000129165
0.000129165
0.000129165
0.000129165
0.000129165
0.000129165
0.000129164
0.000129164
0.000129163
0.000129162
0.000129162
0.000129161
0.000129161
0.00012916
0.000129159
0.000129159
0.000129158
0.000129157
0.000129157
0.000129156
0.000129156
0.000129156
0.000129155
0.000129155
0.000129155
0.000129155
0.000129154
0.000129154
0.000129154
0.000129154
0.000129154
0.000129154
0.000129154
0.000129153
0.000129153
0.000129153
0.000129153
0.000129153
0.000129153
0.000129153
0.000129153
0.000129153
0.000129153
0.000129153
0.000129153
0.000129153
0.000129153
0.000129153
0.000129154
0.000129154
0.000129154
0.000129155
0.000129155
0.000129155
0.000129156
0.000129156
0.000129156
0.000129157
0.000129157
0.000129157
0.000129157
0.000129157
0.000129158
0.000129158
0.000129158
0.000129158
0.000129158
0.000129159
0.000136238
0.000136234
0.000136231
0.000136229
0.000136227
0.000136226
0.000136225
0.000136225
0.000136224
0.000136224
0.000136224
0.000136225
0.000136225
0.000136226
0.000136226
0.000136227
0.000136228
0.000136229
0.00013623
0.000136231
0.000136232
0.000136233
0.000136234
0.000136234
0.000136235
0.000136236
0.000136237
0.000136238
0.000136239
0.000136239
0.00013624
0.000136241
0.000136241
0.000136242
0.000136243
0.000136243
0.000136244
0.000136244
0.000136245
0.000136245
0.000136246
0.000136246
0.000136247
0.000136247
0.000136248
0.000136248
0.000136248
0.000136248
0.000136248
0.000136249
0.000136249
0.000136249
0.000136249
0.000136249
0.000136249
0.000136249
0.000136249
0.000136248
0.000136248
0.000136247
0.000136247
0.000136246
0.000136245
0.000136245
0.000136244
0.000136243
0.000136243
0.000136242
0.000136241
0.000136241
0.00013624
0.00013624
0.000136239
0.000136239
0.000136239
0.000136238
0.000136238
0.000136238
0.000136238
0.000136237
0.000136237
0.000136237
0.000136237
0.000136237
0.000136237
0.000136237
0.000136237
0.000136236
0.000136236
0.000136236
0.000136236
0.000136236
0.000136236
0.000136236
0.000136236
0.000136236
0.000136236
0.000136236
0.000136236
0.000136237
0.000136237
0.000136237
0.000136238
0.000136238
0.000136239
0.000136239
0.000136239
0.00013624
0.00013624
0.00013624
0.00013624
0.000136241
0.000136241
0.000136241
0.000136241
0.000136241
0.000136241
0.000136241
0.000136241
0.000136242
0.00014204
0.000142036
0.000142033
0.000142031
0.000142029
0.000142028
0.000142027
0.000142026
0.000142026
0.000142026
0.000142026
0.000142026
0.000142027
0.000142027
0.000142028
0.000142029
0.00014203
0.000142031
0.000142032
0.000142033
0.000142034
0.000142035
0.000142036
0.000142036
0.000142037
0.000142038
0.000142039
0.00014204
0.000142041
0.000142042
0.000142043
0.000142043
0.000142044
0.000142045
0.000142045
0.000142046
0.000142046
0.000142047
0.000142048
0.000142048
0.000142049
0.000142049
0.00014205
0.00014205
0.00014205
0.000142051
0.000142051
0.000142051
0.000142051
0.000142052
0.000142052
0.000142052
0.000142052
0.000142052
0.000142052
0.000142052
0.000142051
0.000142051
0.00014205
0.00014205
0.000142049
0.000142048
0.000142048
0.000142047
0.000142046
0.000142045
0.000142045
0.000142044
0.000142043
0.000142043
0.000142042
0.000142042
0.000142041
0.000142041
0.000142041
0.00014204
0.00014204
0.00014204
0.00014204
0.000142039
0.000142039
0.000142039
0.000142039
0.000142039
0.000142039
0.000142039
0.000142038
0.000142038
0.000142038
0.000142038
0.000142038
0.000142038
0.000142038
0.000142038
0.000142038
0.000142038
0.000142038
0.000142038
0.000142038
0.000142039
0.000142039
0.000142039
0.00014204
0.00014204
0.000142041
0.000142041
0.000142041
0.000142042
0.000142042
0.000142042
0.000142043
0.000142043
0.000142043
0.000142043
0.000142043
0.000142043
0.000142043
0.000142044
0.000142043
0.000142045
0.000146807
0.000146803
0.000146799
0.000146797
0.000146795
0.000146794
0.000146793
0.000146792
0.000146792
0.000146792
0.000146792
0.000146792
0.000146793
0.000146793
0.000146794
0.000146795
0.000146796
0.000146797
0.000146798
0.000146799
0.0001468
0.000146801
0.000146802
0.000146803
0.000146804
0.000146805
0.000146806
0.000146807
0.000146808
0.000146808
0.000146809
0.00014681
0.000146811
0.000146811
0.000146812
0.000146812
0.000146813
0.000146814
0.000146814
0.000146815
0.000146816
0.000146816
0.000146817
0.000146817
0.000146817
0.000146818
0.000146818
0.000146818
0.000146818
0.000146819
0.000146819
0.000146819
0.000146819
0.000146819
0.000146819
0.000146818
0.000146818
0.000146817
0.000146817
0.000146816
0.000146815
0.000146815
0.000146814
0.000146813
0.000146812
0.000146812
0.000146811
0.00014681
0.00014681
0.000146809
0.000146809
0.000146808
0.000146808
0.000146807
0.000146807
0.000146807
0.000146806
0.000146806
0.000146806
0.000146806
0.000146805
0.000146805
0.000146805
0.000146805
0.000146805
0.000146805
0.000146804
0.000146804
0.000146804
0.000146804
0.000146804
0.000146804
0.000146804
0.000146804
0.000146804
0.000146804
0.000146804
0.000146804
0.000146804
0.000146805
0.000146805
0.000146806
0.000146806
0.000146807
0.000146807
0.000146807
0.000146808
0.000146808
0.000146808
0.000146809
0.000146809
0.000146809
0.000146809
0.000146809
0.00014681
0.00014681
0.00014681
0.00014681
0.000146809
0.000146811
0.000150731
0.000150727
0.000150724
0.000150721
0.00015072
0.000150718
0.000150718
0.000150717
0.000150717
0.000150716
0.000150716
0.000150717
0.000150717
0.000150718
0.000150719
0.00015072
0.000150721
0.000150722
0.000150723
0.000150724
0.000150725
0.000150726
0.000150727
0.000150727
0.000150728
0.000150729
0.00015073
0.000150731
0.000150732
0.000150733
0.000150734
0.000150735
0.000150736
0.000150736
0.000150737
0.000150738
0.000150738
0.000150739
0.00015074
0.00015074
0.000150741
0.000150741
0.000150742
0.000150742
0.000150743
0.000150743
0.000150743
0.000150743
0.000150744
0.000150744
0.000150744
0.000150744
0.000150744
0.000150744
0.000150744
0.000150743
0.000150743
0.000150742
0.000150741
0.000150741
0.00015074
0.000150739
0.000150738
0.000150738
0.000150737
0.000150736
0.000150736
0.000150735
0.000150734
0.000150734
0.000150733
0.000150733
0.000150732
0.000150732
0.000150731
0.000150731
0.000150731
0.000150731
0.00015073
0.00015073
0.00015073
0.00015073
0.000150729
0.000150729
0.000150729
0.000150729
0.000150729
0.000150729
0.000150729
0.000150728
0.000150728
0.000150728
0.000150728
0.000150728
0.000150728
0.000150728
0.000150728
0.000150729
0.000150729
0.000150729
0.00015073
0.00015073
0.000150731
0.000150731
0.000150732
0.000150732
0.000150733
0.000150733
0.000150733
0.000150733
0.000150734
0.000150734
0.000150734
0.000150734
0.000150734
0.000150734
0.000150734
0.000150734
0.000150734
0.000150736
0.000153966
0.000153963
0.000153959
0.000153957
0.000153955
0.000153954
0.000153953
0.000153952
0.000153952
0.000153952
0.000153952
0.000153952
0.000153952
0.000153953
0.000153954
0.000153955
0.000153956
0.000153957
0.000153958
0.000153959
0.00015396
0.000153961
0.000153962
0.000153963
0.000153964
0.000153965
0.000153966
0.000153967
0.000153968
0.000153969
0.00015397
0.000153971
0.000153971
0.000153972
0.000153973
0.000153973
0.000153974
0.000153975
0.000153975
0.000153976
0.000153977
0.000153977
0.000153978
0.000153978
0.000153979
0.000153979
0.000153979
0.000153979
0.00015398
0.00015398
0.00015398
0.00015398
0.00015398
0.00015398
0.00015398
0.000153979
0.000153978
0.000153978
0.000153977
0.000153976
0.000153975
0.000153975
0.000153974
0.000153973
0.000153972
0.000153972
0.000153971
0.00015397
0.00015397
0.000153969
0.000153968
0.000153968
0.000153968
0.000153967
0.000153967
0.000153966
0.000153966
0.000153966
0.000153966
0.000153965
0.000153965
0.000153965
0.000153965
0.000153965
0.000153964
0.000153964
0.000153964
0.000153964
0.000153964
0.000153964
0.000153964
0.000153963
0.000153963
0.000153963
0.000153963
0.000153964
0.000153964
0.000153964
0.000153965
0.000153965
0.000153965
0.000153966
0.000153966
0.000153967
0.000153967
0.000153968
0.000153968
0.000153969
0.000153969
0.000153969
0.000153969
0.000153969
0.000153969
0.000153969
0.00015397
0.00015397
0.00015397
0.00015397
0.000153969
0.000153971
0.000156632
0.000156628
0.000156625
0.000156623
0.000156621
0.00015662
0.000156619
0.000156618
0.000156618
0.000156618
0.000156618
0.000156618
0.000156618
0.000156619
0.00015662
0.000156621
0.000156622
0.000156623
0.000156624
0.000156625
0.000156626
0.000156627
0.000156628
0.000156629
0.00015663
0.000156631
0.000156632
0.000156633
0.000156634
0.000156635
0.000156636
0.000156637
0.000156638
0.000156638
0.000156639
0.00015664
0.00015664
0.000156641
0.000156642
0.000156642
0.000156643
0.000156644
0.000156644
0.000156645
0.000156645
0.000156645
0.000156646
0.000156646
0.000156646
0.000156646
0.000156646
0.000156647
0.000156646
0.000156646
0.000156646
0.000156645
0.000156644
0.000156643
0.000156643
0.000156642
0.000156641
0.00015664
0.000156639
0.000156639
0.000156638
0.000156637
0.000156637
0.000156636
0.000156635
0.000156635
0.000156634
0.000156634
0.000156633
0.000156633
0.000156633
0.000156632
0.000156632
0.000156632
0.000156631
0.000156631
0.000156631
0.000156631
0.00015663
0.00015663
0.00015663
0.00015663
0.00015663
0.00015663
0.000156629
0.000156629
0.000156629
0.000156629
0.000156629
0.000156629
0.000156629
0.000156629
0.00015663
0.00015663
0.00015663
0.000156631
0.000156631
0.000156632
0.000156632
0.000156633
0.000156633
0.000156634
0.000156634
0.000156634
0.000156635
0.000156635
0.000156635
0.000156635
0.000156635
0.000156635
0.000156635
0.000156635
0.000156635
0.000156636
0.000156635
0.000156637
0.000158822
0.000158818
0.000158815
0.000158813
0.000158811
0.00015881
0.000158809
0.000158809
0.000158808
0.000158808
0.000158808
0.000158808
0.000158808
0.000158809
0.00015881
0.000158811
0.000158812
0.000158813
0.000158814
0.000158815
0.000158816
0.000158817
0.000158818
0.000158819
0.00015882
0.000158821
0.000158822
0.000158823
0.000158824
0.000158825
0.000158826
0.000158827
0.000158828
0.000158829
0.000158829
0.00015883
0.000158831
0.000158832
0.000158832
0.000158833
0.000158834
0.000158834
0.000158835
0.000158835
0.000158836
0.000158836
0.000158836
0.000158836
0.000158837
0.000158837
0.000158837
0.000158837
0.000158837
0.000158837
0.000158836
0.000158835
0.000158834
0.000158833
0.000158833
0.000158832
0.000158831
0.00015883
0.000158829
0.000158829
0.000158828
0.000158827
0.000158827
0.000158826
0.000158825
0.000158825
0.000158824
0.000158824
0.000158823
0.000158823
0.000158823
0.000158822
0.000158822
0.000158822
0.000158822
0.000158821
0.000158821
0.000158821
0.000158821
0.00015882
0.00015882
0.00015882
0.00015882
0.00015882
0.000158819
0.000158819
0.000158819
0.000158819
0.000158819
0.000158819
0.000158819
0.00015882
0.00015882
0.00015882
0.000158821
0.000158821
0.000158822
0.000158822
0.000158823
0.000158823
0.000158824
0.000158824
0.000158824
0.000158825
0.000158825
0.000158825
0.000158825
0.000158825
0.000158825
0.000158825
0.000158825
0.000158825
0.000158825
0.000158826
0.000158825
0.000158827
0.000160611
0.000160607
0.000160604
0.000160602
0.0001606
0.000160599
0.000160598
0.000160598
0.000160597
0.000160597
0.000160597
0.000160597
0.000160597
0.000160598
0.000160599
0.0001606
0.000160601
0.000160602
0.000160603
0.000160604
0.000160605
0.000160606
0.000160607
0.000160608
0.000160609
0.00016061
0.000160611
0.000160612
0.000160613
0.000160614
0.000160615
0.000160616
0.000160617
0.000160618
0.000160618
0.000160619
0.00016062
0.000160621
0.000160621
0.000160622
0.000160623
0.000160623
0.000160624
0.000160624
0.000160625
0.000160625
0.000160625
0.000160626
0.000160626
0.000160626
0.000160626
0.000160626
0.000160626
0.000160625
0.000160625
0.000160624
0.000160623
0.000160622
0.000160621
0.00016062
0.000160619
0.000160619
0.000160618