/*--------------------------------*- C++ -*----------------------------------*\
  =========                 |
  \\      /  F ield         | OpenFOAM: The Open Source CFD Toolbox
   \\    /   O peration     | Website:  https://openfoam.org
    \\  /    A nd           | Version:  7
     \\/     M anipulation  |
\*---------------------------------------------------------------------------*/
FoamFile
{
    version     2.0;
    format      ascii;
    class       volScalarField;
    location    "3000";
    object      nut;
}
// * * * * * * * * * * * * * * * * * * * * * * * * * * * * * * * * * * * * * //

dimensions      [0 2 -1 0 0 0 0];

internalField   nonuniform List<scalar> 
24000
(
6.66939e-12
6.66924e-12
6.66902e-12
6.66879e-12
6.66858e-12
6.66841e-12
6.66827e-12
6.66818e-12
6.66812e-12
6.66809e-12
6.66807e-12
6.66808e-12
6.66811e-12
6.66816e-12
6.66821e-12
6.66827e-12
6.66833e-12
6.66838e-12
6.66843e-12
6.66849e-12
6.66854e-12
6.66859e-12
6.66864e-12
6.6687e-12
6.66877e-12
6.66883e-12
6.6689e-12
6.66896e-12
6.66902e-12
6.66907e-12
6.66912e-12
6.66917e-12
6.66922e-12
6.66927e-12
6.66932e-12
6.66937e-12
6.66942e-12
6.66948e-12
6.66953e-12
6.66957e-12
6.66961e-12
6.66965e-12
6.66968e-12
6.66971e-12
6.66973e-12
6.66975e-12
6.66977e-12
6.66979e-12
6.66981e-12
6.66984e-12
6.66986e-12
6.66989e-12
6.66991e-12
6.66993e-12
6.66994e-12
6.66995e-12
6.66996e-12
6.66996e-12
6.66995e-12
6.66993e-12
6.66991e-12
6.66989e-12
6.66985e-12
6.66981e-12
6.66976e-12
6.66971e-12
6.66966e-12
6.66961e-12
6.66956e-12
6.66951e-12
6.66947e-12
6.66943e-12
6.6694e-12
6.66937e-12
6.66934e-12
6.66931e-12
6.66929e-12
6.66927e-12
6.66925e-12
6.66923e-12
6.66921e-12
6.6692e-12
6.66919e-12
6.66918e-12
6.66917e-12
6.66917e-12
6.66916e-12
6.66916e-12
6.66915e-12
6.66915e-12
6.66914e-12
6.66914e-12
6.66913e-12
6.66912e-12
6.66912e-12
6.66911e-12
6.66911e-12
6.66911e-12
6.66911e-12
6.66912e-12
6.66914e-12
6.66915e-12
6.66917e-12
6.66919e-12
6.6692e-12
6.66922e-12
6.66924e-12
6.66927e-12
6.66929e-12
6.66932e-12
6.66934e-12
6.66937e-12
6.66939e-12
6.66941e-12
6.66943e-12
6.66944e-12
6.66945e-12
6.66945e-12
6.66942e-12
6.66946e-12
1.15997e-09
1.15994e-09
1.1599e-09
1.15986e-09
1.15983e-09
1.1598e-09
1.15977e-09
1.15976e-09
1.15975e-09
1.15974e-09
1.15974e-09
1.15974e-09
1.15974e-09
1.15975e-09
1.15976e-09
1.15977e-09
1.15978e-09
1.15979e-09
1.1598e-09
1.15981e-09
1.15982e-09
1.15983e-09
1.15984e-09
1.15985e-09
1.15986e-09
1.15987e-09
1.15988e-09
1.15989e-09
1.1599e-09
1.15991e-09
1.15992e-09
1.15993e-09
1.15994e-09
1.15995e-09
1.15995e-09
1.15996e-09
1.15997e-09
1.15998e-09
1.15999e-09
1.16e-09
1.16001e-09
1.16001e-09
1.16002e-09
1.16002e-09
1.16003e-09
1.16003e-09
1.16003e-09
1.16004e-09
1.16004e-09
1.16004e-09
1.16005e-09
1.16005e-09
1.16006e-09
1.16006e-09
1.16006e-09
1.16006e-09
1.16006e-09
1.16006e-09
1.16006e-09
1.16006e-09
1.16006e-09
1.16005e-09
1.16005e-09
1.16004e-09
1.16003e-09
1.16002e-09
1.16001e-09
1.16e-09
1.16e-09
1.15999e-09
1.15998e-09
1.15997e-09
1.15997e-09
1.15996e-09
1.15996e-09
1.15995e-09
1.15995e-09
1.15994e-09
1.15994e-09
1.15994e-09
1.15994e-09
1.15993e-09
1.15993e-09
1.15993e-09
1.15993e-09
1.15993e-09
1.15993e-09
1.15993e-09
1.15992e-09
1.15992e-09
1.15992e-09
1.15992e-09
1.15992e-09
1.15992e-09
1.15992e-09
1.15992e-09
1.15992e-09
1.15992e-09
1.15992e-09
1.15992e-09
1.15992e-09
1.15992e-09
1.15993e-09
1.15993e-09
1.15993e-09
1.15994e-09
1.15994e-09
1.15994e-09
1.15995e-09
1.15995e-09
1.15996e-09
1.15996e-09
1.15997e-09
1.15997e-09
1.15997e-09
1.15997e-09
1.15998e-09
1.15998e-09
1.15997e-09
1.15998e-09
2.48222e-08
2.48217e-08
2.48208e-08
2.482e-08
2.48193e-08
2.48186e-08
2.48181e-08
2.48178e-08
2.48176e-08
2.48174e-08
2.48174e-08
2.48174e-08
2.48175e-08
2.48177e-08
2.48179e-08
2.48181e-08
2.48183e-08
2.48185e-08
2.48187e-08
2.48189e-08
2.48191e-08
2.48193e-08
2.48195e-08
2.48197e-08
2.482e-08
2.48202e-08
2.48204e-08
2.48207e-08
2.48209e-08
2.48211e-08
2.48213e-08
2.48215e-08
2.48216e-08
2.48218e-08
2.4822e-08
2.48222e-08
2.48224e-08
2.48226e-08
2.48228e-08
2.48229e-08
2.48231e-08
2.48232e-08
2.48233e-08
2.48234e-08
2.48235e-08
2.48236e-08
2.48237e-08
2.48237e-08
2.48238e-08
2.48239e-08
2.4824e-08
2.48241e-08
2.48242e-08
2.48242e-08
2.48243e-08
2.48243e-08
2.48243e-08
2.48243e-08
2.48243e-08
2.48243e-08
2.48242e-08
2.48241e-08
2.48239e-08
2.48238e-08
2.48236e-08
2.48234e-08
2.48232e-08
2.48231e-08
2.48229e-08
2.48227e-08
2.48225e-08
2.48224e-08
2.48223e-08
2.48222e-08
2.4822e-08
2.48219e-08
2.48219e-08
2.48218e-08
2.48217e-08
2.48216e-08
2.48216e-08
2.48215e-08
2.48215e-08
2.48215e-08
2.48214e-08
2.48214e-08
2.48214e-08
2.48214e-08
2.48214e-08
2.48213e-08
2.48213e-08
2.48213e-08
2.48213e-08
2.48213e-08
2.48212e-08
2.48212e-08
2.48212e-08
2.48212e-08
2.48212e-08
2.48213e-08
2.48213e-08
2.48214e-08
2.48214e-08
2.48215e-08
2.48216e-08
2.48216e-08
2.48217e-08
2.48218e-08
2.48219e-08
2.4822e-08
2.48221e-08
2.48222e-08
2.48222e-08
2.48223e-08
2.48224e-08
2.48224e-08
2.48225e-08
2.48225e-08
2.48224e-08
2.48225e-08
1.90541e-07
1.90537e-07
1.9053e-07
1.90524e-07
1.90518e-07
1.90514e-07
1.9051e-07
1.90507e-07
1.90506e-07
1.90505e-07
1.90505e-07
1.90505e-07
1.90506e-07
1.90507e-07
1.90508e-07
1.9051e-07
1.90512e-07
1.90513e-07
1.90515e-07
1.90516e-07
1.90518e-07
1.90519e-07
1.90521e-07
1.90522e-07
1.90524e-07
1.90526e-07
1.90528e-07
1.9053e-07
1.90531e-07
1.90533e-07
1.90534e-07
1.90536e-07
1.90537e-07
1.90538e-07
1.9054e-07
1.90541e-07
1.90542e-07
1.90544e-07
1.90545e-07
1.90547e-07
1.90548e-07
1.90549e-07
1.9055e-07
1.9055e-07
1.90551e-07
1.90551e-07
1.90552e-07
1.90553e-07
1.90553e-07
1.90554e-07
1.90555e-07
1.90555e-07
1.90556e-07
1.90556e-07
1.90557e-07
1.90557e-07
1.90557e-07
1.90557e-07
1.90557e-07
1.90556e-07
1.90556e-07
1.90555e-07
1.90554e-07
1.90553e-07
1.90552e-07
1.9055e-07
1.90549e-07
1.90547e-07
1.90546e-07
1.90545e-07
1.90543e-07
1.90542e-07
1.90541e-07
1.9054e-07
1.9054e-07
1.90539e-07
1.90538e-07
1.90538e-07
1.90537e-07
1.90537e-07
1.90536e-07
1.90536e-07
1.90535e-07
1.90535e-07
1.90535e-07
1.90535e-07
1.90535e-07
1.90535e-07
1.90535e-07
1.90534e-07
1.90534e-07
1.90534e-07
1.90534e-07
1.90534e-07
1.90533e-07
1.90533e-07
1.90533e-07
1.90533e-07
1.90533e-07
1.90534e-07
1.90534e-07
1.90534e-07
1.90535e-07
1.90536e-07
1.90536e-07
1.90536e-07
1.90537e-07
1.90538e-07
1.90538e-07
1.90539e-07
1.9054e-07
1.90541e-07
1.90541e-07
1.90542e-07
1.90542e-07
1.90543e-07
1.90543e-07
1.90543e-07
1.90542e-07
1.90543e-07
8.148e-07
8.14778e-07
8.1475e-07
8.14724e-07
8.14701e-07
8.14683e-07
8.14668e-07
8.14658e-07
8.14651e-07
8.14648e-07
8.14647e-07
8.14648e-07
8.14652e-07
8.14657e-07
8.14664e-07
8.14671e-07
8.14678e-07
8.14685e-07
8.14692e-07
8.14698e-07
8.14704e-07
8.1471e-07
8.14716e-07
8.14723e-07
8.1473e-07
8.14738e-07
8.14745e-07
8.14753e-07
8.14759e-07
8.14766e-07
8.14772e-07
8.14777e-07
8.14783e-07
8.14788e-07
8.14793e-07
8.14799e-07
8.14805e-07
8.14811e-07
8.14816e-07
8.14822e-07
8.14827e-07
8.14831e-07
8.14834e-07
8.14837e-07
8.1484e-07
8.14841e-07
8.14843e-07
8.14846e-07
8.14848e-07
8.14851e-07
8.14854e-07
8.14857e-07
8.14859e-07
8.14861e-07
8.14863e-07
8.14864e-07
8.14864e-07
8.14864e-07
8.14863e-07
8.14861e-07
8.14858e-07
8.14855e-07
8.14851e-07
8.14846e-07
8.1484e-07
8.14834e-07
8.14828e-07
8.14822e-07
8.14817e-07
8.14811e-07
8.14806e-07
8.14802e-07
8.14798e-07
8.14794e-07
8.14791e-07
8.14788e-07
8.14785e-07
8.14783e-07
8.14781e-07
8.14779e-07
8.14777e-07
8.14775e-07
8.14774e-07
8.14773e-07
8.14772e-07
8.14771e-07
8.14771e-07
8.1477e-07
8.1477e-07
8.14769e-07
8.14769e-07
8.14768e-07
8.14767e-07
8.14766e-07
8.14766e-07
8.14765e-07
8.14765e-07
8.14765e-07
8.14765e-07
8.14766e-07
8.14768e-07
8.1477e-07
8.14772e-07
8.14774e-07
8.14776e-07
8.14778e-07
8.14781e-07
8.14784e-07
8.14787e-07
8.1479e-07
8.14793e-07
8.14796e-07
8.14798e-07
8.14801e-07
8.14803e-07
8.14804e-07
8.14805e-07
8.14806e-07
8.14802e-07
8.14807e-07
2.35185e-06
2.35178e-06
2.3517e-06
2.35163e-06
2.35157e-06
2.35152e-06
2.35148e-06
2.35146e-06
2.35144e-06
2.35143e-06
2.35143e-06
2.35143e-06
2.35144e-06
2.35146e-06
2.35148e-06
2.3515e-06
2.35152e-06
2.35154e-06
2.35156e-06
2.35158e-06
2.35159e-06
2.35161e-06
2.35163e-06
2.35165e-06
2.35167e-06
2.35169e-06
2.35171e-06
2.35173e-06
2.35175e-06
2.35176e-06
2.35178e-06
2.35179e-06
2.35181e-06
2.35182e-06
2.35184e-06
2.35185e-06
2.35187e-06
2.35188e-06
2.3519e-06
2.35191e-06
2.35193e-06
2.35194e-06
2.35195e-06
2.35195e-06
2.35196e-06
2.35196e-06
2.35197e-06
2.35197e-06
2.35198e-06
2.35199e-06
2.352e-06
2.35201e-06
2.35201e-06
2.35202e-06
2.35202e-06
2.35202e-06
2.35202e-06
2.35202e-06
2.35202e-06
2.35201e-06
2.35201e-06
2.352e-06
2.35198e-06
2.35197e-06
2.35196e-06
2.35194e-06
2.35192e-06
2.35191e-06
2.35189e-06
2.35188e-06
2.35186e-06
2.35185e-06
2.35184e-06
2.35183e-06
2.35182e-06
2.35181e-06
2.3518e-06
2.3518e-06
2.35179e-06
2.35179e-06
2.35178e-06
2.35178e-06
2.35177e-06
2.35177e-06
2.35177e-06
2.35177e-06
2.35177e-06
2.35176e-06
2.35176e-06
2.35176e-06
2.35176e-06
2.35176e-06
2.35176e-06
2.35175e-06
2.35175e-06
2.35175e-06
2.35175e-06
2.35175e-06
2.35175e-06
2.35175e-06
2.35176e-06
2.35176e-06
2.35177e-06
2.35178e-06
2.35178e-06
2.35179e-06
2.35179e-06
2.3518e-06
2.35181e-06
2.35182e-06
2.35183e-06
2.35184e-06
2.35184e-06
2.35185e-06
2.35185e-06
2.35186e-06
2.35186e-06
2.35186e-06
2.35185e-06
2.35187e-06
5.12297e-06
5.12281e-06
5.12265e-06
5.12251e-06
5.12239e-06
5.1223e-06
5.12223e-06
5.12218e-06
5.12215e-06
5.12214e-06
5.12214e-06
5.12215e-06
5.12217e-06
5.1222e-06
5.12225e-06
5.12229e-06
5.12234e-06
5.12238e-06
5.12242e-06
5.12246e-06
5.12249e-06
5.12253e-06
5.12256e-06
5.1226e-06
5.12264e-06
5.12268e-06
5.12272e-06
5.12277e-06
5.12281e-06
5.12284e-06
5.12288e-06
5.12291e-06
5.12294e-06
5.12296e-06
5.12299e-06
5.12302e-06
5.12305e-06
5.12308e-06
5.12311e-06
5.12314e-06
5.12317e-06
5.12319e-06
5.12321e-06
5.12322e-06
5.12323e-06
5.12324e-06
5.12325e-06
5.12326e-06
5.12327e-06
5.12329e-06
5.12331e-06
5.12332e-06
5.12333e-06
5.12334e-06
5.12335e-06
5.12336e-06
5.12336e-06
5.12335e-06
5.12335e-06
5.12333e-06
5.12332e-06
5.12329e-06
5.12327e-06
5.12324e-06
5.12321e-06
5.12318e-06
5.12314e-06
5.12311e-06
5.12308e-06
5.12304e-06
5.12302e-06
5.12299e-06
5.12297e-06
5.12295e-06
5.12293e-06
5.12291e-06
5.1229e-06
5.12289e-06
5.12288e-06
5.12287e-06
5.12286e-06
5.12285e-06
5.12284e-06
5.12283e-06
5.12283e-06
5.12283e-06
5.12282e-06
5.12282e-06
5.12282e-06
5.12282e-06
5.12281e-06
5.12281e-06
5.1228e-06
5.1228e-06
5.12279e-06
5.12279e-06
5.12279e-06
5.12279e-06
5.12279e-06
5.1228e-06
5.12281e-06
5.12282e-06
5.12283e-06
5.12284e-06
5.12285e-06
5.12287e-06
5.12288e-06
5.1229e-06
5.12291e-06
5.12293e-06
5.12295e-06
5.12297e-06
5.12298e-06
5.123e-06
5.12301e-06
5.12301e-06
5.12302e-06
5.12302e-06
5.123e-06
5.12304e-06
9.14447e-06
9.1442e-06
9.14393e-06
9.14371e-06
9.14353e-06
9.1434e-06
9.14329e-06
9.14321e-06
9.14317e-06
9.14316e-06
9.14316e-06
9.14318e-06
9.14322e-06
9.14328e-06
9.14335e-06
9.14343e-06
9.14351e-06
9.14359e-06
9.14366e-06
9.14372e-06
9.14379e-06
9.14385e-06
9.14391e-06
9.14397e-06
9.14404e-06
9.14411e-06
9.14418e-06
9.14425e-06
9.14432e-06
9.14438e-06
9.14444e-06
9.14449e-06
9.14454e-06
9.14459e-06
9.14463e-06
9.14468e-06
9.14473e-06
9.14479e-06
9.14484e-06
9.14488e-06
9.14493e-06
9.14496e-06
9.14499e-06
9.14502e-06
9.14503e-06
9.14505e-06
9.14506e-06
9.14507e-06
9.14509e-06
9.14512e-06
9.14514e-06
9.14517e-06
9.14519e-06
9.14521e-06
9.14522e-06
9.14523e-06
9.14523e-06
9.14522e-06
9.1452e-06
9.14518e-06
9.14515e-06
9.14511e-06
9.14507e-06
9.14502e-06
9.14496e-06
9.14491e-06
9.14485e-06
9.14479e-06
9.14474e-06
9.14469e-06
9.14464e-06
9.1446e-06
9.14456e-06
9.14452e-06
9.14449e-06
9.14447e-06
9.14445e-06
9.14442e-06
9.1444e-06
9.14439e-06
9.14437e-06
9.14436e-06
9.14435e-06
9.14433e-06
9.14433e-06
9.14432e-06
9.14432e-06
9.14431e-06
9.14431e-06
9.1443e-06
9.1443e-06
9.14429e-06
9.14428e-06
9.14427e-06
9.14427e-06
9.14426e-06
9.14426e-06
9.14426e-06
9.14427e-06
9.14428e-06
9.14429e-06
9.14431e-06
9.14433e-06
9.14435e-06
9.14437e-06
9.14439e-06
9.14442e-06
9.14444e-06
9.14447e-06
9.1445e-06
9.14453e-06
9.14456e-06
9.14458e-06
9.1446e-06
9.14462e-06
9.14464e-06
9.14465e-06
9.14465e-06
9.14461e-06
9.1447e-06
1.42323e-05
1.42319e-05
1.42315e-05
1.42312e-05
1.4231e-05
1.42308e-05
1.42307e-05
1.42306e-05
1.42305e-05
1.42305e-05
1.42305e-05
1.42306e-05
1.42306e-05
1.42307e-05
1.42308e-05
1.42309e-05
1.42311e-05
1.42312e-05
1.42313e-05
1.42314e-05
1.42315e-05
1.42316e-05
1.42317e-05
1.42318e-05
1.42319e-05
1.4232e-05
1.42321e-05
1.42322e-05
1.42323e-05
1.42324e-05
1.42325e-05
1.42326e-05
1.42326e-05
1.42327e-05
1.42328e-05
1.42328e-05
1.42329e-05
1.4233e-05
1.42331e-05
1.42331e-05
1.42332e-05
1.42333e-05
1.42333e-05
1.42333e-05
1.42334e-05
1.42334e-05
1.42334e-05
1.42334e-05
1.42334e-05
1.42335e-05
1.42335e-05
1.42335e-05
1.42336e-05
1.42336e-05
1.42336e-05
1.42336e-05
1.42336e-05
1.42336e-05
1.42336e-05
1.42335e-05
1.42335e-05
1.42334e-05
1.42334e-05
1.42333e-05
1.42332e-05
1.42331e-05
1.42331e-05
1.4233e-05
1.42329e-05
1.42328e-05
1.42327e-05
1.42327e-05
1.42326e-05
1.42326e-05
1.42325e-05
1.42325e-05
1.42325e-05
1.42324e-05
1.42324e-05
1.42324e-05
1.42323e-05
1.42323e-05
1.42323e-05
1.42323e-05
1.42323e-05
1.42323e-05
1.42323e-05
1.42323e-05
1.42322e-05
1.42322e-05
1.42322e-05
1.42322e-05
1.42322e-05
1.42322e-05
1.42322e-05
1.42322e-05
1.42322e-05
1.42322e-05
1.42322e-05
1.42322e-05
1.42322e-05
1.42323e-05
1.42323e-05
1.42323e-05
1.42324e-05
1.42324e-05
1.42324e-05
1.42324e-05
1.42325e-05
1.42325e-05
1.42326e-05
1.42326e-05
1.42326e-05
1.42327e-05
1.42327e-05
1.42327e-05
1.42327e-05
1.42328e-05
1.42327e-05
1.42329e-05
2.01682e-05
2.01676e-05
2.01671e-05
2.01668e-05
2.01666e-05
2.01664e-05
2.01662e-05
2.01661e-05
2.01661e-05
2.0166e-05
2.01661e-05
2.01661e-05
2.01662e-05
2.01663e-05
2.01665e-05
2.01667e-05
2.01668e-05
2.0167e-05
2.01672e-05
2.01673e-05
2.01674e-05
2.01676e-05
2.01677e-05
2.01678e-05
2.0168e-05
2.01681e-05
2.01683e-05
2.01684e-05
2.01686e-05
2.01687e-05
2.01688e-05
2.01689e-05
2.0169e-05
2.01691e-05
2.01692e-05
2.01693e-05
2.01694e-05
2.01695e-05
2.01697e-05
2.01697e-05
2.01698e-05
2.01699e-05
2.017e-05
2.017e-05
2.01701e-05
2.01701e-05
2.01701e-05
2.01701e-05
2.01702e-05
2.01702e-05
2.01702e-05
2.01703e-05
2.01703e-05
2.01704e-05
2.01704e-05
2.01704e-05
2.01704e-05
2.01704e-05
2.01703e-05
2.01703e-05
2.01702e-05
2.01701e-05
2.017e-05
2.01699e-05
2.01698e-05
2.01697e-05
2.01696e-05
2.01695e-05
2.01694e-05
2.01693e-05
2.01692e-05
2.01691e-05
2.0169e-05
2.01689e-05
2.01689e-05
2.01688e-05
2.01688e-05
2.01687e-05
2.01687e-05
2.01687e-05
2.01686e-05
2.01686e-05
2.01686e-05
2.01685e-05
2.01685e-05
2.01685e-05
2.01685e-05
2.01685e-05
2.01685e-05
2.01685e-05
2.01685e-05
2.01684e-05
2.01684e-05
2.01684e-05
2.01684e-05
2.01684e-05
2.01684e-05
2.01684e-05
2.01684e-05
2.01684e-05
2.01685e-05
2.01685e-05
2.01686e-05
2.01686e-05
2.01686e-05
2.01687e-05
2.01687e-05
2.01688e-05
2.01688e-05
2.01689e-05
2.01689e-05
2.0169e-05
2.0169e-05
2.01691e-05
2.01691e-05
2.01691e-05
2.01692e-05
2.01692e-05
2.01691e-05
2.01694e-05
2.67745e-05
2.67737e-05
2.67732e-05
2.67728e-05
2.67726e-05
2.67724e-05
2.67723e-05
2.67722e-05
2.67721e-05
2.67721e-05
2.67721e-05
2.67722e-05
2.67723e-05
2.67725e-05
2.67727e-05
2.67729e-05
2.67732e-05
2.67734e-05
2.67736e-05
2.67738e-05
2.6774e-05
2.67742e-05
2.67743e-05
2.67745e-05
2.67747e-05
2.67749e-05
2.67751e-05
2.67753e-05
2.67755e-05
2.67757e-05
2.67758e-05
2.6776e-05
2.67761e-05
2.67763e-05
2.67764e-05
2.67765e-05
2.67766e-05
2.67768e-05
2.67769e-05
2.67771e-05
2.67772e-05
2.67773e-05
2.67774e-05
2.67774e-05
2.67775e-05
2.67775e-05
2.67775e-05
2.67776e-05
2.67776e-05
2.67776e-05
2.67777e-05
2.67778e-05
2.67778e-05
2.67778e-05
2.67779e-05
2.67779e-05
2.67779e-05
2.67778e-05
2.67778e-05
2.67777e-05
2.67776e-05
2.67775e-05
2.67774e-05
2.67772e-05
2.67771e-05
2.6777e-05
2.67768e-05
2.67767e-05
2.67765e-05
2.67764e-05
2.67763e-05
2.67762e-05
2.6776e-05
2.6776e-05
2.67759e-05
2.67758e-05
2.67758e-05
2.67757e-05
2.67756e-05
2.67756e-05
2.67756e-05
2.67755e-05
2.67755e-05
2.67754e-05
2.67754e-05
2.67754e-05
2.67754e-05
2.67754e-05
2.67754e-05
2.67753e-05
2.67753e-05
2.67753e-05
2.67753e-05
2.67753e-05
2.67752e-05
2.67752e-05
2.67752e-05
2.67752e-05
2.67753e-05
2.67753e-05
2.67754e-05
2.67754e-05
2.67755e-05
2.67755e-05
2.67756e-05
2.67756e-05
2.67757e-05
2.67757e-05
2.67758e-05
2.67759e-05
2.67759e-05
2.6776e-05
2.67761e-05
2.67761e-05
2.67762e-05
2.67762e-05
2.67762e-05
2.67763e-05
2.67761e-05
2.67766e-05
3.39226e-05
3.39214e-05
3.39208e-05
3.39205e-05
3.39203e-05
3.39202e-05
3.39201e-05
3.392e-05
3.39199e-05
3.392e-05
3.392e-05
3.39201e-05
3.39203e-05
3.39205e-05
3.39207e-05
3.3921e-05
3.39213e-05
3.39216e-05
3.39219e-05
3.39221e-05
3.39224e-05
3.39226e-05
3.39228e-05
3.3923e-05
3.39233e-05
3.39235e-05
3.39238e-05
3.39241e-05
3.39243e-05
3.39245e-05
3.39247e-05
3.39249e-05
3.39251e-05
3.39253e-05
3.39255e-05
3.39256e-05
3.39258e-05
3.3926e-05
3.39261e-05
3.39263e-05
3.39265e-05
3.39266e-05
3.39267e-05
3.39268e-05
3.39269e-05
3.39269e-05
3.3927e-05
3.3927e-05
3.3927e-05
3.39271e-05
3.39271e-05
3.39272e-05
3.39273e-05
3.39273e-05
3.39273e-05
3.39273e-05
3.39273e-05
3.39273e-05
3.39272e-05
3.39271e-05
3.3927e-05
3.39268e-05
3.39267e-05
3.39265e-05
3.39263e-05
3.39262e-05
3.3926e-05
3.39258e-05
3.39256e-05
3.39255e-05
3.39253e-05
3.39252e-05
3.3925e-05
3.39249e-05
3.39248e-05
3.39247e-05
3.39247e-05
3.39246e-05
3.39245e-05
3.39245e-05
3.39244e-05
3.39244e-05
3.39243e-05
3.39243e-05
3.39242e-05
3.39242e-05
3.39242e-05
3.39242e-05
3.39242e-05
3.39241e-05
3.39241e-05
3.39241e-05
3.39241e-05
3.3924e-05
3.3924e-05
3.3924e-05
3.3924e-05
3.3924e-05
3.39241e-05
3.39241e-05
3.39242e-05
3.39243e-05
3.39243e-05
3.39244e-05
3.39245e-05
3.39245e-05
3.39246e-05
3.39247e-05
3.39247e-05
3.39248e-05
3.39249e-05
3.3925e-05
3.3925e-05
3.39251e-05
3.39252e-05
3.39252e-05
3.39252e-05
3.39253e-05
3.39251e-05
3.39258e-05
4.15216e-05
4.15201e-05
4.15194e-05
4.15191e-05
4.1519e-05
4.15189e-05
4.15188e-05
4.15188e-05
4.15188e-05
4.15188e-05
4.15189e-05
4.15191e-05
4.15193e-05
4.15195e-05
4.15198e-05
4.15202e-05
4.15205e-05
4.15209e-05
4.15212e-05
4.15215e-05
4.15218e-05
4.15221e-05
4.15224e-05
4.15227e-05
4.1523e-05
4.15233e-05
4.15236e-05
4.15239e-05
4.15242e-05
4.15245e-05
4.15248e-05
4.1525e-05
4.15253e-05
4.15255e-05
4.15257e-05
4.15259e-05
4.15261e-05
4.15263e-05
4.15265e-05
4.15268e-05
4.15269e-05
4.15271e-05
4.15273e-05
4.15274e-05
4.15275e-05
4.15275e-05
4.15276e-05
4.15276e-05
4.15277e-05
4.15278e-05
4.15278e-05
4.15279e-05
4.1528e-05
4.1528e-05
4.1528e-05
4.1528e-05
4.1528e-05
4.15279e-05
4.15278e-05
4.15277e-05
4.15275e-05
4.15273e-05
4.15271e-05
4.15269e-05
4.15267e-05
4.15265e-05
4.15263e-05
4.15261e-05
4.15259e-05
4.15257e-05
4.15255e-05
4.15253e-05
4.15252e-05
4.15251e-05
4.15249e-05
4.15248e-05
4.15247e-05
4.15246e-05
4.15246e-05
4.15245e-05
4.15244e-05
4.15244e-05
4.15243e-05
4.15242e-05
4.15242e-05
4.15242e-05
4.15241e-05
4.15241e-05
4.15241e-05
4.15241e-05
4.1524e-05
4.1524e-05
4.1524e-05
4.15239e-05
4.15239e-05
4.15239e-05
4.15239e-05
4.15239e-05
4.1524e-05
4.15241e-05
4.15241e-05
4.15242e-05
4.15244e-05
4.15245e-05
4.15245e-05
4.15246e-05
4.15247e-05
4.15248e-05
4.15248e-05
4.15249e-05
4.1525e-05
4.15251e-05
4.15252e-05
4.15252e-05
4.15253e-05
4.15254e-05
4.15254e-05
4.15255e-05
4.15252e-05
4.15262e-05
4.95073e-05
4.95054e-05
4.95046e-05
4.95042e-05
4.95042e-05
4.95042e-05
4.95042e-05
4.95042e-05
4.95042e-05
4.95043e-05
4.95045e-05
4.95047e-05
4.95049e-05
4.95052e-05
4.95056e-05
4.9506e-05
4.95064e-05
4.95068e-05
4.95072e-05
4.95076e-05
4.9508e-05
4.95083e-05
4.95087e-05
4.9509e-05
4.95094e-05
4.95097e-05
4.95101e-05
4.95105e-05
4.95109e-05
4.95112e-05
4.95116e-05
4.95119e-05
4.95121e-05
4.95124e-05
4.95127e-05
4.95129e-05
4.95132e-05
4.95134e-05
4.95137e-05
4.9514e-05
4.95142e-05
4.95144e-05
4.95146e-05
4.95148e-05
4.95149e-05
4.9515e-05
4.9515e-05
4.95151e-05
4.95152e-05
4.95152e-05
4.95153e-05
4.95154e-05
4.95155e-05
4.95155e-05
4.95155e-05
4.95155e-05
4.95154e-05
4.95153e-05
4.95152e-05
4.9515e-05
4.95148e-05
4.95146e-05
4.95144e-05
4.95141e-05
4.95139e-05
4.95137e-05
4.95134e-05
4.95131e-05
4.95129e-05
4.95127e-05
4.95125e-05
4.95123e-05
4.95121e-05
4.95119e-05
4.95118e-05
4.95117e-05
4.95115e-05
4.95114e-05
4.95113e-05
4.95113e-05
4.95112e-05
4.95111e-05
4.9511e-05
4.9511e-05
4.95109e-05
4.95109e-05
4.95108e-05
4.95108e-05
4.95107e-05
4.95107e-05
4.95107e-05
4.95106e-05
4.95106e-05
4.95106e-05
4.95105e-05
4.95105e-05
4.95105e-05
4.95106e-05
4.95107e-05
4.95108e-05
4.95109e-05
4.9511e-05
4.95111e-05
4.95113e-05
4.95114e-05
4.95115e-05
4.95116e-05
4.95116e-05
4.95117e-05
4.95118e-05
4.95119e-05
4.9512e-05
4.95121e-05
4.95122e-05
4.95122e-05
4.95123e-05
4.95123e-05
4.95124e-05
4.95121e-05
4.95135e-05
5.78332e-05
5.78308e-05
5.78299e-05
5.78296e-05
5.78296e-05
5.78297e-05
5.78298e-05
5.78299e-05
5.783e-05
5.78301e-05
5.78303e-05
5.78306e-05
5.78308e-05
5.78312e-05
5.78316e-05
5.78321e-05
5.78326e-05
5.78331e-05
5.78336e-05
5.7834e-05
5.78345e-05
5.78349e-05
5.78353e-05
5.78357e-05
5.78361e-05
5.78365e-05
5.7837e-05
5.78375e-05
5.78379e-05
5.78383e-05
5.78387e-05
5.78391e-05
5.78394e-05
5.78397e-05
5.784e-05
5.78403e-05
5.78407e-05
5.7841e-05
5.78413e-05
5.78416e-05
5.78419e-05
5.78422e-05
5.78424e-05
5.78426e-05
5.78427e-05
5.78428e-05
5.78429e-05
5.7843e-05
5.78431e-05
5.78432e-05
5.78433e-05
5.78434e-05
5.78434e-05
5.78435e-05
5.78435e-05
5.78434e-05
5.78433e-05
5.78432e-05
5.7843e-05
5.78428e-05
5.78425e-05
5.78423e-05
5.7842e-05
5.78417e-05
5.78414e-05
5.78412e-05
5.78409e-05
5.78406e-05
5.78403e-05
5.784e-05
5.78398e-05
5.78396e-05
5.78394e-05
5.78392e-05
5.7839e-05
5.78389e-05
5.78387e-05
5.78386e-05
5.78385e-05
5.78384e-05
5.78383e-05
5.78382e-05
5.78381e-05
5.7838e-05
5.7838e-05
5.78379e-05
5.78378e-05
5.78378e-05
5.78378e-05
5.78377e-05
5.78377e-05
5.78376e-05
5.78376e-05
5.78375e-05
5.78375e-05
5.78375e-05
5.78376e-05
5.78376e-05
5.78377e-05
5.78378e-05
5.7838e-05
5.78382e-05
5.78383e-05
5.78385e-05
5.78386e-05
5.78387e-05
5.78388e-05
5.78389e-05
5.7839e-05
5.78391e-05
5.78392e-05
5.78393e-05
5.78394e-05
5.78395e-05
5.78396e-05
5.78396e-05
5.78397e-05
5.78398e-05
5.78394e-05
5.78411e-05
6.64656e-05
6.64628e-05
6.64617e-05
6.64614e-05
6.64615e-05
6.64617e-05
6.64619e-05
6.6462e-05
6.64622e-05
6.64624e-05
6.64627e-05
6.6463e-05
6.64633e-05
6.64637e-05
6.64642e-05
6.64648e-05
6.64654e-05
6.64659e-05
6.64665e-05
6.6467e-05
6.64675e-05
6.6468e-05
6.64684e-05
6.64689e-05
6.64694e-05
6.64699e-05
6.64705e-05
6.6471e-05
6.64715e-05
6.6472e-05
6.64725e-05
6.64729e-05
6.64733e-05
6.64737e-05
6.6474e-05
6.64744e-05
6.64748e-05
6.64751e-05
6.64755e-05
6.64759e-05
6.64762e-05
6.64765e-05
6.64768e-05
6.6477e-05
6.64772e-05
6.64774e-05
6.64775e-05
6.64776e-05
6.64777e-05
6.64778e-05
6.64779e-05
6.6478e-05
6.64781e-05
6.64781e-05
6.64781e-05
6.6478e-05
6.64778e-05
6.64776e-05
6.64774e-05
6.64771e-05
6.64768e-05
6.64765e-05
6.64762e-05
6.64759e-05
6.64756e-05
6.64752e-05
6.64749e-05
6.64746e-05
6.64743e-05
6.6474e-05
6.64737e-05
6.64734e-05
6.64732e-05
6.6473e-05
6.64728e-05
6.64726e-05
6.64725e-05
6.64723e-05
6.64722e-05
6.64721e-05
6.6472e-05
6.64718e-05
6.64717e-05
6.64717e-05
6.64716e-05
6.64715e-05
6.64714e-05
6.64714e-05
6.64713e-05
6.64713e-05
6.64712e-05
6.64711e-05
6.64711e-05
6.64711e-05
6.6471e-05
6.64711e-05
6.64711e-05
6.64712e-05
6.64714e-05
6.64715e-05
6.64717e-05
6.64719e-05
6.64721e-05
6.64723e-05
6.64725e-05
6.64726e-05
6.64728e-05
6.64729e-05
6.6473e-05
6.64731e-05
6.64732e-05
6.64733e-05
6.64734e-05
6.64735e-05
6.64735e-05
6.64736e-05
6.64736e-05
6.64738e-05
6.64733e-05
6.64754e-05
7.53798e-05
7.53765e-05
7.53753e-05
7.5375e-05
7.53751e-05
7.53754e-05
7.53757e-05
7.5376e-05
7.53762e-05
7.53765e-05
7.53768e-05
7.53772e-05
7.53776e-05
7.53781e-05
7.53786e-05
7.53793e-05
7.53799e-05
7.53806e-05
7.53812e-05
7.53818e-05
7.53824e-05
7.53829e-05
7.53834e-05
7.5384e-05
7.53845e-05
7.53851e-05
7.53857e-05
7.53864e-05
7.5387e-05
7.53875e-05
7.53881e-05
7.53886e-05
7.5389e-05
7.53895e-05
7.53899e-05
7.53903e-05
7.53907e-05
7.53912e-05
7.53916e-05
7.5392e-05
7.53924e-05
7.53928e-05
7.53931e-05
7.53934e-05
7.53936e-05
7.53938e-05
7.5394e-05
7.53941e-05
7.53942e-05
7.53944e-05
7.53945e-05
7.53946e-05
7.53947e-05
7.53947e-05
7.53946e-05
7.53944e-05
7.53942e-05
7.53939e-05
7.53936e-05
7.53933e-05
7.53929e-05
7.53926e-05
7.53922e-05
7.53918e-05
7.53915e-05
7.53911e-05
7.53907e-05
7.53903e-05
7.539e-05
7.53897e-05
7.53894e-05
7.53891e-05
7.53888e-05
7.53886e-05
7.53884e-05
7.53882e-05
7.5388e-05
7.53878e-05
7.53877e-05
7.53875e-05
7.53874e-05
7.53873e-05
7.53871e-05
7.5387e-05
7.53869e-05
7.53868e-05
7.53868e-05
7.53867e-05
7.53866e-05
7.53866e-05
7.53865e-05
7.53864e-05
7.53864e-05
7.53863e-05
7.53864e-05
7.53864e-05
7.53865e-05
7.53866e-05
7.53868e-05
7.5387e-05
7.53873e-05
7.53875e-05
7.53878e-05
7.5388e-05
7.53882e-05
7.53884e-05
7.53886e-05
7.53887e-05
7.53888e-05
7.53889e-05
7.5389e-05
7.53891e-05
7.53892e-05
7.53893e-05
7.53894e-05
7.53895e-05
7.53895e-05
7.53897e-05
7.53891e-05
7.53916e-05
8.45578e-05
8.45539e-05
8.45526e-05
8.45523e-05
8.45525e-05
8.45529e-05
8.45533e-05
8.45536e-05
8.4554e-05
8.45543e-05
8.45547e-05
8.45551e-05
8.45556e-05
8.45562e-05
8.45568e-05
8.45575e-05
8.45583e-05
8.4559e-05
8.45597e-05
8.45604e-05
8.4561e-05
8.45616e-05
8.45622e-05
8.45628e-05
8.45635e-05
8.45641e-05
8.45648e-05
8.45655e-05
8.45662e-05
8.45669e-05
8.45675e-05
8.4568e-05
8.45686e-05
8.45691e-05
8.45696e-05
8.457e-05
8.45705e-05
8.4571e-05
8.45715e-05
8.4572e-05
8.45725e-05
8.45729e-05
8.45733e-05
8.45736e-05
8.45739e-05
8.45741e-05
8.45743e-05
8.45745e-05
8.45746e-05
8.45748e-05
8.45749e-05
8.4575e-05
8.45751e-05
8.4575e-05
8.45749e-05
8.45747e-05
8.45743e-05
8.4574e-05
8.45736e-05
8.45732e-05
8.45727e-05
8.45723e-05
8.45719e-05
8.45715e-05
8.4571e-05
8.45706e-05
8.45702e-05
8.45698e-05
8.45694e-05
8.4569e-05
8.45687e-05
8.45684e-05
8.45681e-05
8.45678e-05
8.45676e-05
8.45674e-05
8.45672e-05
8.4567e-05
8.45668e-05
8.45667e-05
8.45665e-05
8.45664e-05
8.45662e-05
8.45661e-05
8.4566e-05
8.45659e-05
8.45658e-05
8.45657e-05
8.45656e-05
8.45655e-05
8.45654e-05
8.45653e-05
8.45653e-05
8.45653e-05
8.45653e-05
8.45654e-05
8.45656e-05
8.45658e-05
8.4566e-05
8.45663e-05
8.45666e-05
8.45669e-05
8.45672e-05
8.45675e-05
8.45677e-05
8.4568e-05
8.45682e-05
8.45683e-05
8.45685e-05
8.45686e-05
8.45687e-05
8.45688e-05
8.45689e-05
8.4569e-05
8.4569e-05
8.45691e-05
8.45692e-05
8.45693e-05
8.45687e-05
8.45717e-05
9.39867e-05
9.39823e-05
9.39808e-05
9.39804e-05
9.39807e-05
9.39812e-05
9.39817e-05
9.39822e-05
9.39826e-05
9.3983e-05
9.39835e-05
9.3984e-05
9.39846e-05
9.39852e-05
9.39859e-05
9.39867e-05
9.39875e-05
9.39883e-05
9.39891e-05
9.39899e-05
9.39906e-05
9.39913e-05
9.3992e-05
9.39927e-05
9.39934e-05
9.39941e-05
9.39949e-05
9.39956e-05
9.39964e-05
9.39971e-05
9.39978e-05
9.39985e-05
9.39991e-05
9.39996e-05
9.40002e-05
9.40007e-05
9.40013e-05
9.40019e-05
9.40024e-05
9.4003e-05
9.40035e-05
9.4004e-05
9.40044e-05
9.40048e-05
9.40051e-05
9.40054e-05
9.40056e-05
9.40058e-05
9.4006e-05
9.40062e-05
9.40063e-05
9.40064e-05
9.40064e-05
9.40063e-05
9.40061e-05
9.40058e-05
9.40053e-05
9.40049e-05
9.40044e-05
9.40038e-05
9.40033e-05
9.40028e-05
9.40023e-05
9.40018e-05
9.40014e-05
9.40009e-05
9.40005e-05
9.4e-05
9.39996e-05
9.39992e-05
9.39988e-05
9.39984e-05
9.39981e-05
9.39978e-05
9.39976e-05
9.39974e-05
9.39971e-05
9.39969e-05
9.39967e-05
9.39966e-05
9.39964e-05
9.39962e-05
9.3996e-05
9.39959e-05
9.39957e-05
9.39956e-05
9.39955e-05
9.39954e-05
9.39953e-05
9.39952e-05
9.39951e-05
9.3995e-05
9.3995e-05
9.3995e-05
9.39951e-05
9.39953e-05
9.39955e-05
9.39958e-05
9.39961e-05
9.39964e-05
9.39968e-05
9.39972e-05
9.39975e-05
9.39979e-05
9.39982e-05
9.39985e-05
9.39987e-05
9.39989e-05
9.3999e-05
9.39992e-05
9.39993e-05
9.39994e-05
9.39995e-05
9.39996e-05
9.39996e-05
9.39997e-05
9.39997e-05
9.4e-05
9.39992e-05
9.40026e-05
0.000103658
0.000103653
0.000103651
0.000103651
0.000103651
0.000103652
0.000103652
0.000103653
0.000103653
0.000103654
0.000103655
0.000103655
0.000103656
0.000103656
0.000103657
0.000103658
0.000103659
0.00010366
0.000103661
0.000103662
0.000103662
0.000103663
0.000103664
0.000103665
0.000103665
0.000103666
0.000103667
0.000103668
0.000103669
0.00010367
0.00010367
0.000103671
0.000103672
0.000103672
0.000103673
0.000103674
0.000103674
0.000103675
0.000103676
0.000103676
0.000103677
0.000103677
0.000103678
0.000103678
0.000103679
0.000103679
0.000103679
0.000103679
0.00010368
0.00010368
0.00010368
0.00010368
0.00010368
0.00010368
0.000103679
0.000103679
0.000103678
0.000103678
0.000103677
0.000103677
0.000103676
0.000103675
0.000103675
0.000103674
0.000103674
0.000103673
0.000103673
0.000103672
0.000103672
0.000103671
0.000103671
0.00010367
0.00010367
0.00010367
0.00010367
0.000103669
0.000103669
0.000103669
0.000103669
0.000103668
0.000103668
0.000103668
0.000103668
0.000103668
0.000103667
0.000103667
0.000103667
0.000103667
0.000103667
0.000103667
0.000103667
0.000103667
0.000103667
0.000103667
0.000103667
0.000103667
0.000103667
0.000103668
0.000103668
0.000103669
0.000103669
0.00010367
0.00010367
0.00010367
0.000103671
0.000103671
0.000103671
0.000103672
0.000103672
0.000103672
0.000103672
0.000103672
0.000103672
0.000103672
0.000103672
0.000103673
0.000103673
0.000103673
0.000103672
0.000103676
0.000113566
0.00011356
0.000113558
0.000113558
0.000113559
0.000113559
0.00011356
0.000113561
0.000113561
0.000113562
0.000113562
0.000113563
0.000113564
0.000113565
0.000113565
0.000113566
0.000113567
0.000113568
0.000113569
0.00011357
0.000113571
0.000113572
0.000113573
0.000113574
0.000113575
0.000113575
0.000113576
0.000113577
0.000113578
0.000113579
0.00011358
0.000113581
0.000113581
0.000113582
0.000113583
0.000113584
0.000113584
0.000113585
0.000113586
0.000113586
0.000113587
0.000113588
0.000113588
0.000113589
0.000113589
0.000113589
0.00011359
0.00011359
0.00011359
0.00011359
0.000113591
0.000113591
0.00011359
0.00011359
0.000113589
0.000113589
0.000113588
0.000113587
0.000113587
0.000113586
0.000113585
0.000113584
0.000113584
0.000113583