/*--------------------------------*- C++ -*----------------------------------*\
  =========                 |
  \\      /  F ield         | OpenFOAM: The Open Source CFD Toolbox
   \\    /   O peration     | Website:  https://openfoam.org
    \\  /    A nd           | Version:  7
     \\/     M anipulation  |
\*---------------------------------------------------------------------------*/
FoamFile
{
    version     2.0;
    format      ascii;
    class       surfaceScalarField;
    location    "3000";
    object      phi;
}
// * * * * * * * * * * * * * * * * * * * * * * * * * * * * * * * * * * * * * //

dimensions      [0 3 -1 0 0 0 0];

internalField   nonuniform List<scalar> 
47680
(
1.9923e-06
-1.2401e-11
1.99229e-06
6.65405e-12
1.99228e-06
1.03526e-11
1.99227e-06
1.18194e-11
1.99226e-06
1.32262e-11
1.99225e-06
1.30545e-11
1.99223e-06
1.20578e-11
1.99222e-06
1.05382e-11
1.99221e-06
8.78293e-12
1.99221e-06
7.00745e-12
1.9922e-06
5.35825e-12
1.9922e-06
3.9114e-12
1.99219e-06
2.67021e-12
1.99219e-06
1.5928e-12
1.99219e-06
6.35049e-13
1.99219e-06
-2.23462e-13
1.99219e-06
-9.79974e-13
1.9922e-06
-1.62809e-12
1.9922e-06
-2.17162e-12
1.9922e-06
-2.62149e-12
1.9922e-06
-2.98861e-12
1.99221e-06
-3.28142e-12
1.99221e-06
-3.51143e-12
1.99221e-06
-3.69566e-12
1.99222e-06
-3.8556e-12
1.99222e-06
-4.00962e-12
1.99223e-06
-4.16847e-12
1.99223e-06
-4.3337e-12
1.99223e-06
-4.49983e-12
1.99224e-06
-4.66007e-12
1.99224e-06
-4.80518e-12
1.99225e-06
-4.93162e-12
1.99225e-06
-5.02998e-12
1.99226e-06
-5.11061e-12
1.99226e-06
-5.15668e-12
1.99227e-06
-5.20613e-12
1.99227e-06
-5.19641e-12
1.99228e-06
-5.22599e-12
1.99228e-06
-5.07955e-12
1.99229e-06
-5.04416e-12
1.99229e-06
-4.49868e-12
1.9923e-06
-4.24111e-12
1.9923e-06
-2.86172e-12
1.9923e-06
-1.91827e-12
1.9923e-06
2.88741e-14
1.9923e-06
2.25072e-12
1.9923e-06
1.40481e-12
1.9923e-06
1.1978e-12
1.9923e-06
5.10755e-13
1.9923e-06
-5.2211e-13
1.9923e-06
-1.10682e-12
1.9923e-06
-1.53422e-12
1.9923e-06
-1.86841e-12
1.99231e-06
-2.11062e-12
1.99231e-06
-2.26754e-12
1.99231e-06
-2.32615e-12
1.99231e-06
-2.27481e-12
1.99231e-06
-2.10776e-12
1.99232e-06
-1.82977e-12
1.99232e-06
-1.45629e-12
1.99232e-06
-1.01264e-12
1.99232e-06
-5.29039e-13
1.99232e-06
-3.65678e-14
1.99232e-06
4.3744e-13
1.99232e-06
8.71625e-13
1.99232e-06
1.25115e-12
1.99231e-06
1.56728e-12
1.99231e-06
1.81639e-12
1.99231e-06
1.99879e-12
1.99231e-06
2.11703e-12
1.99231e-06
2.17528e-12
1.9923e-06
2.17863e-12
1.9923e-06
2.13362e-12
1.9923e-06
2.04692e-12
1.9923e-06
1.92622e-12
1.9923e-06
1.7788e-12
1.9923e-06
1.6127e-12
1.99229e-06
1.43411e-12
1.99229e-06
1.25019e-12
1.99229e-06
1.06346e-12
1.99229e-06
8.8034e-13
1.99229e-06
6.96663e-13
1.99229e-06
5.21145e-13
1.99229e-06
3.35247e-13
1.99229e-06
1.66413e-13
1.99229e-06
-4.41568e-14
1.99229e-06
-2.26179e-13
1.99229e-06
-3.529e-13
1.99229e-06
-4.15461e-13
1.99229e-06
-3.89488e-13
1.99229e-06
-3.84656e-13
1.99229e-06
-3.93002e-13
1.99229e-06
-4.62605e-13
1.99229e-06
-5.47306e-13
1.99229e-06
-6.67021e-13
1.99229e-06
-7.5276e-13
1.99229e-06
-9.0502e-13
1.9923e-06
-9.17341e-13
1.9923e-06
-1.08956e-12
1.9923e-06
-8.08284e-13
1.9923e-06
-8.83948e-13
1.9923e-06
1.12821e-13
1.9923e-06
5.77254e-13
1.9923e-06
2.09209e-12
1.99229e-06
3.68679e-12
1.99229e-06
2.50373e-12
1.99229e-06
2.12422e-12
1.99229e-06
1.30389e-12
1.99229e-06
4.21987e-13
1.99229e-06
-3.14708e-13
1.99229e-06
-9.63388e-13
1.99229e-06
-1.41508e-12
1.99229e-06
-1.71648e-12
1.99229e-06
-1.70151e-12
1.99229e-06
-1.55824e-12
1.99229e-06
-7.89484e-13
1.99229e-06
4.14268e-13
1.99229e-06
1.09351e-12
1.99228e-06
9.52036e-12
-5.14763e-12
6.15587e-06
-3.62329e-11
6.15586e-06
2.09655e-11
6.15583e-06
4.09395e-11
6.15579e-06
4.76678e-11
6.15575e-06
5.26616e-11
6.15572e-06
5.20071e-11
6.15568e-06
4.79665e-11
6.15565e-06
4.19048e-11
6.15562e-06
3.49388e-11
6.1556e-06
2.78969e-11
6.15559e-06
2.13284e-11
6.15557e-06
1.55214e-11
6.15557e-06
1.05112e-11
6.15556e-06
6.17194e-12
6.15556e-06
2.34998e-12
6.15556e-06
-1.04171e-12
6.15556e-06
-4.01684e-12
6.15557e-06
-6.57167e-12
6.15558e-06
-8.72799e-12
6.15558e-06
-1.05299e-11
6.15559e-06
-1.20186e-11
6.1556e-06
-1.32288e-11
6.15561e-06
-1.4199e-11
6.15562e-06
-1.49864e-11
6.15564e-06
-1.56617e-11
6.15565e-06
-1.62902e-11
6.15566e-06
-1.69125e-11
6.15567e-06
-1.75409e-11
6.15569e-06
-1.8166e-11
6.1557e-06
-1.87679e-11
6.15572e-06
-1.93208e-11
6.15573e-06
-1.98083e-11
6.15575e-06
-2.02066e-11
6.15576e-06
-2.05301e-11
6.15578e-06
-2.07485e-11
6.15579e-06
-2.09333e-11
6.15581e-06
-2.09548e-11
6.15582e-06
-2.10027e-11
6.15584e-06
-2.0569e-11
6.15586e-06
-2.02686e-11
6.15587e-06
-1.84976e-11
6.15588e-06
-1.72293e-11
6.15589e-06
-1.25264e-11
6.1559e-06
-8.73656e-12
6.1559e-06
-1.56425e-12
6.1559e-06
6.33719e-12
6.15589e-06
4.61663e-12
6.15589e-06
3.75429e-12
6.15589e-06
1.43796e-12
6.15589e-06
-2.1548e-12
6.15589e-06
-4.43935e-12
6.1559e-06
-6.06923e-12
6.1559e-06
-7.32881e-12
6.15591e-06
-8.23441e-12
6.15592e-06
-8.79948e-12
6.15592e-06
-8.97603e-12
6.15593e-06
-8.71672e-12
6.15594e-06
-8.00093e-12
6.15594e-06
-6.84847e-12
6.15595e-06
-5.32377e-12
6.15595e-06
-3.52862e-12
6.15595e-06
-1.5851e-12
6.15595e-06
3.83159e-13
6.15595e-06
2.26726e-12
6.15594e-06
3.9838e-12
6.15594e-06
5.47392e-12
6.15593e-06
6.70435e-12
6.15593e-06
7.66311e-12
6.15592e-06
8.35265e-12
6.15592e-06
8.78627e-12
6.15591e-06
8.98333e-12
6.1559e-06
8.968e-12
6.15589e-06
8.76628e-12
6.15589e-06
8.40595e-12
6.15588e-06
7.91625e-12
6.15588e-06
7.32641e-12
6.15587e-06
6.66489e-12
6.15587e-06
5.95602e-12
6.15586e-06
5.22377e-12
6.15586e-06
4.4819e-12
6.15586e-06
3.74892e-12
6.15585e-06
3.02089e-12
6.15585e-06
2.31641e-12
6.15585e-06
1.58996e-12
6.15585e-06
9.13038e-13
6.15585e-06
1.14061e-13
6.15585e-06
-5.96443e-13
6.15585e-06
-1.10961e-12
6.15585e-06
-1.37401e-12
6.15585e-06
-1.32791e-12
6.15585e-06
-1.30655e-12
6.15586e-06
-1.34234e-12
6.15586e-06
-1.57751e-12
6.15586e-06
-1.91142e-12
6.15586e-06
-2.35601e-12
6.15586e-06
-2.76523e-12
6.15586e-06
-3.33487e-12
6.15587e-06
-3.58853e-12
6.15587e-06
-4.17513e-12
6.15587e-06
-3.52002e-12
6.15588e-06
-3.60991e-12
6.15588e-06
-4.725e-13
6.15588e-06
1.45836e-12
6.15587e-06
6.85517e-12
6.15586e-06
1.24216e-11
6.15586e-06
9.27643e-12
6.15585e-06
7.61352e-12
6.15585e-06
4.76619e-12
6.15584e-06
1.54665e-12
6.15585e-06
-1.23489e-12
6.15585e-06
-3.67082e-12
6.15585e-06
-5.41457e-12
6.15586e-06
-6.59374e-12
6.15586e-06
-6.57398e-12
6.15587e-06
-6.20576e-12
6.15587e-06
-3.07421e-12
6.15587e-06
3.30754e-13
6.15587e-06
5.32788e-12
6.15584e-06
3.07137e-11
-1.23671e-11
1.0601e-05
-6.0233e-11
1.0601e-05
4.22374e-11
1.0601e-05
9.111e-11
1.06009e-05
1.0844e-10
1.06008e-05
1.1862e-10
1.06008e-05
1.16981e-10
1.06007e-05
1.0774e-10
1.06007e-05
9.40673e-11
1.06006e-05
7.84308e-11
1.06006e-05
6.2631e-11
1.06006e-05
4.78442e-11
1.06005e-05
3.46999e-11
1.06005e-05
2.33182e-11
1.06005e-05
1.3481e-11
1.06005e-05
4.88158e-12
1.06005e-05
-2.68939e-12
1.06005e-05
-9.30361e-12
1.06005e-05
-1.4991e-11
1.06006e-05
-1.9819e-11
1.06006e-05
-2.38886e-11
1.06006e-05
-2.72918e-11
1.06006e-05
-3.01004e-11
1.06006e-05
-3.23885e-11
1.06006e-05
-3.42602e-11
1.06007e-05
-3.585e-11
1.06007e-05
-3.72873e-11
1.06007e-05
-3.86629e-11
1.06007e-05
-4.00174e-11
1.06007e-05
-4.13494e-11
1.06008e-05
-4.26337e-11
1.06008e-05
-4.38294e-11
1.06008e-05
-4.49023e-11
1.06008e-05
-4.58096e-11
1.06009e-05
-4.65552e-11
1.06009e-05
-4.70968e-11
1.06009e-05
-4.75149e-11
1.06009e-05
-4.76297e-11
1.0601e-05
-4.76711e-11
1.0601e-05
-4.68557e-11
1.0601e-05
-4.60338e-11
1.06011e-05
-4.25536e-11
1.06011e-05
-3.95196e-11
1.06011e-05
-3.00667e-11
1.06011e-05
-2.16881e-11
1.06011e-05
-6.59923e-12
1.06011e-05
9.82175e-12
1.06011e-05
8.19952e-12
1.06011e-05
6.58389e-12
1.06011e-05
2.0543e-12
1.06011e-05
-5.13341e-12
1.06011e-05
-1.00795e-11
1.06011e-05
-1.36036e-11
1.06011e-05
-1.62948e-11
1.06011e-05
-1.82138e-11
1.06011e-05
-1.93679e-11
1.06012e-05
-1.96512e-11
1.06012e-05
-1.89574e-11
1.06012e-05
-1.72423e-11
1.06012e-05
-1.45544e-11
1.06012e-05
-1.10452e-11
1.06012e-05
-6.94595e-12
1.06012e-05
-2.53564e-12
1.06012e-05
1.90865e-12
1.06012e-05
6.1427e-12
1.06012e-05
9.9791e-12
1.06012e-05
1.32875e-11
1.06012e-05
1.59965e-11
1.06012e-05
1.80831e-11
1.06011e-05
1.95576e-11
1.06011e-05
2.04563e-11
1.06011e-05
2.08288e-11
1.06011e-05
2.07333e-11
1.06011e-05
2.02324e-11
1.06011e-05
1.93897e-11
1.06011e-05
1.82702e-11
1.06011e-05
1.69349e-11
1.06011e-05
1.54452e-11
1.0601e-05
1.38525e-11
1.0601e-05
1.22055e-11
1.0601e-05
1.05373e-11
1.0601e-05
8.88307e-12
1.0601e-05
7.24412e-12
1.0601e-05
5.65168e-12
1.0601e-05
4.03546e-12
1.0601e-05
2.51145e-12
1.0601e-05
7.74938e-13
1.0601e-05
-7.91924e-13
1.0601e-05
-1.95469e-12
1.0601e-05
-2.57858e-12
1.0601e-05
-2.55986e-12
1.0601e-05
-2.52034e-12
1.0601e-05
-2.59855e-12
1.0601e-05
-3.06872e-12
1.0601e-05
-3.79873e-12
1.0601e-05
-4.76963e-12
1.0601e-05
-5.77621e-12
1.0601e-05
-7.06482e-12
1.0601e-05
-7.90876e-12
1.0601e-05
-9.2092e-12
1.06011e-05
-8.36136e-12
1.06011e-05
-8.46224e-12
1.06011e-05
-2.59513e-12
1.06011e-05
1.6565e-12
1.06011e-05
1.27077e-11
1.0601e-05
2.41087e-11
1.0601e-05
1.91824e-11
1.0601e-05
1.55936e-11
1.0601e-05
9.81776e-12
1.0601e-05
3.13612e-12
1.0601e-05
-2.80597e-12
1.0601e-05
-8.01188e-12
1.0601e-05
-1.18115e-11
1.0601e-05
-1.43974e-11
1.0601e-05
-1.44645e-11
1.06011e-05
-1.38153e-11
1.06011e-05
-7.09393e-12
1.06011e-05
-7.85629e-13
1.0601e-05
1.21973e-11
1.0601e-05
5.88624e-11
-1.54234e-11
1.53242e-05
-7.43405e-11
1.53242e-05
7.40228e-11
1.53241e-05
1.60467e-10
1.5324e-05
1.94371e-10
1.53239e-05
2.10837e-10
1.53238e-05
2.07328e-10
1.53238e-05
1.90592e-10
1.53237e-05
1.66259e-10
1.53236e-05
1.38608e-10
1.53236e-05
1.1068e-10
1.53235e-05
8.44462e-11
1.53235e-05
6.09967e-11
1.53235e-05
4.06278e-11
1.53235e-05
2.30715e-11
1.53235e-05
7.84309e-12
1.53235e-05
-5.45702e-12
1.53235e-05
-1.7031e-11
1.53235e-05
-2.69983e-11
1.53235e-05
-3.55106e-11
1.53235e-05
-4.27524e-11
1.53236e-05
-4.88856e-11
1.53236e-05
-5.40274e-11
1.53236e-05
-5.82821e-11
1.53236e-05
-6.17884e-11
1.53237e-05
-6.4735e-11
1.53237e-05
-6.73228e-11
1.53237e-05
-6.97136e-11
1.53238e-05
-7.2005e-11
1.53238e-05
-7.42328e-11
1.53238e-05
-7.63871e-11
1.53239e-05
-7.84248e-11
1.53239e-05
-8.02954e-11
1.53239e-05
-8.19291e-11
1.5324e-05
-8.33029e-11
1.5324e-05
-8.43445e-11
1.5324e-05
-8.51213e-11
1.53241e-05
-8.53946e-11
1.53241e-05
-8.54139e-11
1.53242e-05
-8.41151e-11
1.53242e-05
-8.25482e-11
1.53242e-05
-7.69624e-11
1.53243e-05
-7.15378e-11
1.53243e-05
-5.62792e-11
1.53243e-05
-4.1873e-11
1.53243e-05
-1.67794e-11
1.53243e-05
1.04832e-11
1.53243e-05
1.04015e-11
1.53243e-05
8.46059e-12
1.53243e-05
1.50492e-12
1.53243e-05
-9.83565e-12
1.53243e-05
-1.81296e-11
1.53243e-05
-2.41011e-11
1.53243e-05
-2.86141e-11
1.53244e-05
-3.1796e-11
1.53244e-05
-3.36278e-11
1.53244e-05
-3.39181e-11
1.53244e-05
-3.24787e-11
1.53244e-05
-2.92366e-11
1.53244e-05
-2.42886e-11
1.53244e-05
-1.79115e-11
1.53244e-05
-1.05256e-11
1.53244e-05
-2.62857e-12
1.53244e-05
5.28526e-12
1.53244e-05
1.27859e-11
1.53244e-05
1.95412e-11
1.53244e-05
2.53255e-11
1.53244e-05
3.00175e-11
1.53244e-05
3.35842e-11
1.53244e-05
3.60542e-11
1.53243e-05
3.75027e-11
1.53243e-05
3.8029e-11
1.53243e-05
3.77446e-11
1.53243e-05
3.67674e-11
1.53243e-05
3.52115e-11
1.53243e-05
3.31902e-11
1.53242e-05
3.08065e-11
1.53242e-05
2.81604e-11
1.53242e-05
2.53373e-11
1.53242e-05
2.24151e-11
1.53242e-05
1.94529e-11
1.53242e-05
1.65076e-11
1.53242e-05
1.35924e-11
1.53242e-05
1.07558e-11
1.53242e-05
7.90716e-12
1.53242e-05
5.20732e-12
1.53242e-05
2.21327e-12
1.53242e-05
-5.0898e-13
1.53242e-05
-2.57082e-12
1.53242e-05
-3.71976e-12
1.53242e-05
-3.80132e-12
1.53242e-05
-3.75771e-12
1.53242e-05
-3.88804e-12
1.53242e-05
-4.6476e-12
1.53242e-05
-5.90206e-12
1.53242e-05
-7.60961e-12
1.53242e-05
-9.51203e-12
1.53242e-05
-1.18893e-11
1.53242e-05
-1.37507e-11
1.53242e-05
-1.61936e-11
1.53242e-05
-1.55053e-11
1.53242e-05
-1.58056e-11
1.53242e-05
-7.00678e-12
1.53242e-05
1.31347e-13
1.53242e-05
1.80484e-11
1.53242e-05
3.67282e-11
1.53242e-05
3.06941e-11
1.53242e-05
2.50198e-11
1.53242e-05
1.57227e-11
1.53242e-05
4.82236e-12
1.53242e-05
-5.13362e-12
1.53242e-05
-1.38918e-11
1.53242e-05
-2.03875e-11
1.53242e-05
-2.48234e-11
1.53242e-05
-2.51401e-11
1.53242e-05
-2.41039e-11
1.53242e-05
-1.30866e-11
1.53242e-05
-3.04379e-12
1.53242e-05
2.06357e-11
1.53242e-05
9.06742e-11
-1.03083e-11
2.0271e-05
-6.95678e-11
2.0271e-05
1.21507e-10
2.02709e-05
2.48603e-10
2.02708e-05
3.03422e-10
2.02707e-05
3.26687e-10
2.02706e-05
3.20171e-10
2.02705e-05
2.93779e-10
2.02704e-05
2.56095e-10
2.02703e-05
2.13549e-10
2.02702e-05
1.7059e-10
2.02702e-05
1.30074e-10
2.02702e-05
9.3637e-11
2.02701e-05
6.18644e-11
2.02701e-05
3.45292e-11
2.02701e-05
1.09851e-11
2.02701e-05
-9.41643e-12
2.02701e-05
-2.71019e-11
2.02702e-05
-4.23563e-11
2.02702e-05
-5.54608e-11
2.02702e-05
-6.67106e-11
2.02702e-05
-7.63568e-11
2.02703e-05
-8.4571e-11
2.02703e-05
-9.14729e-11
2.02703e-05
-9.72081e-11
2.02704e-05
-1.01992e-10
2.02704e-05
-1.06087e-10
2.02704e-05
-1.09741e-10
2.02705e-05
-1.13143e-10
2.02705e-05
-1.16405e-10
2.02706e-05
-1.19565e-10
2.02706e-05
-1.22602e-10
2.02707e-05
-1.25457e-10
2.02707e-05
-1.28029e-10
2.02708e-05
-1.30251e-10
2.02708e-05
-1.31991e-10
2.02708e-05
-1.33281e-10
2.02709e-05
-1.33797e-10
2.02709e-05
-1.33801e-10
2.0271e-05
-1.31936e-10
2.0271e-05
-1.29446e-10
2.02711e-05
-1.2146e-10
2.02711e-05
-1.1317e-10
2.02712e-05
-9.14029e-11
2.02712e-05
-6.99002e-11
2.02712e-05
-3.33119e-11
2.02712e-05
6.53119e-12
2.02712e-05
9.59439e-12
2.02712e-05
8.18269e-12
2.02712e-05
-1.00174e-12
2.02712e-05
-1.65959e-11
2.02712e-05
-2.85851e-11
2.02712e-05
-3.73574e-11
2.02713e-05
-4.39382e-11
2.02713e-05
-4.85093e-11
2.02713e-05
-5.09984e-11
2.02713e-05
-5.11005e-11
2.02713e-05
-4.85281e-11
2.02713e-05
-4.31809e-11
2.02713e-05
-3.5228e-11
2.02714e-05
-2.5117e-11
2.02714e-05
-1.35099e-11
2.02714e-05
-1.18079e-12
2.02714e-05
1.11054e-11
2.02713e-05
2.26882e-11
2.02713e-05
3.30568e-11
2.02713e-05
4.18707e-11
2.02713e-05
4.89521e-11
2.02713e-05
5.42613e-11
2.02713e-05
5.78581e-11
2.02712e-05
5.98743e-11
2.02712e-05
6.04808e-11
2.02712e-05
5.98629e-11
2.02712e-05
5.82115e-11
2.02711e-05
5.57082e-11
2.02711e-05
5.2523e-11
2.02711e-05
4.8809e-11
2.02711e-05
4.47078e-11
2.02711e-05
4.03407e-11
2.02711e-05
3.58194e-11
2.0271e-05
3.12287e-11
2.0271e-05
2.66541e-11
2.0271e-05
2.21256e-11
2.0271e-05
1.7716e-11
2.0271e-05
1.33211e-11
2.0271e-05
9.14829e-12
2.0271e-05
4.61847e-12
2.0271e-05
4.83101e-13
2.0271e-05
-2.69859e-12
2.0271e-05
-4.53238e-12
2.0271e-05
-4.8023e-12
2.0271e-05
-4.78449e-12
2.0271e-05
-4.97825e-12
2.0271e-05
-6.07185e-12
2.0271e-05
-7.96598e-12
2.0271e-05
-1.06247e-11
2.0271e-05
-1.37401e-11
2.0271e-05
-1.76249e-11
2.0271e-05
-2.09955e-11
2.0271e-05
-2.51044e-11
2.02711e-05
-2.50673e-11
2.02711e-05
-2.59148e-11
2.02711e-05
-1.43063e-11
2.02711e-05
-4.01433e-12
2.02711e-05
2.14828e-11
2.02711e-05
4.84421e-11
2.02711e-05
4.22258e-11
2.0271e-05
3.47584e-11
2.0271e-05
2.17424e-11
2.0271e-05
6.25936e-12
2.0271e-05
-8.23283e-12
2.0271e-05
-2.10708e-11
2.02711e-05
-3.07314e-11
2.02711e-05
-3.73519e-11
2.02711e-05
-3.81054e-11
2.02711e-05
-3.65843e-11
2.02711e-05
-2.09574e-11
2.02711e-05
-6.47532e-12
2.02711e-05
2.991e-11
2.02711e-05
1.23279e-10
5.23481e-12
2.53023e-05
-3.93136e-11
2.53023e-05
1.88035e-10
2.53022e-05
3.52708e-10
2.5302e-05
4.29475e-10
2.53019e-05
4.59343e-10
2.53018e-05
4.48937e-10
2.53017e-05
4.11519e-10
2.53016e-05
3.58819e-10
2.53015e-05
2.99575e-10
2.53014e-05
2.39717e-10
2.53013e-05
1.83006e-10
2.53013e-05
1.31667e-10
2.53013e-05
8.66668e-11
2.53013e-05
4.79302e-11
2.53013e-05
1.47139e-11
2.53013e-05
-1.38957e-11
2.53013e-05
-3.86209e-11
2.53013e-05
-5.99845e-11
2.53013e-05
-7.84371e-11
2.53013e-05
-9.44071e-11
2.53014e-05
-1.08247e-10
2.53014e-05
-1.2019e-10
2.53015e-05
-1.30364e-10
2.53015e-05
-1.38898e-10
2.53015e-05
-1.46e-10
2.53016e-05
-1.51975e-10
2.53016e-05
-1.57161e-10
2.53017e-05
-1.61862e-10
2.53017e-05
-1.66297e-10
2.53018e-05
-1.70589e-10
2.53018e-05
-1.7476e-10
2.53019e-05
-1.78761e-10
2.53019e-05
-1.8246e-10
2.5302e-05
-1.85734e-10
2.53021e-05
-1.88371e-10
2.53021e-05
-1.90347e-10
2.53022e-05
-1.91223e-10
2.53022e-05
-1.9127e-10
2.53023e-05
-1.88829e-10
2.53023e-05
-1.85331e-10
2.53024e-05
-1.74809e-10
2.53024e-05
-1.63381e-10
2.53025e-05
-1.34768e-10
2.53025e-05
-1.05531e-10
2.53025e-05
-5.6572e-11
2.53026e-05
-3.00744e-12
2.53026e-05
4.7278e-12
2.53026e-05
4.95436e-12
2.53026e-05
-5.87409e-12
2.53026e-05
-2.54145e-11
2.53026e-05
-4.11049e-11
2.53026e-05
-5.28089e-11
2.53026e-05
-6.15537e-11
2.53026e-05
-6.75253e-11
2.53027e-05
-7.05571e-11
2.53027e-05
-7.02094e-11
2.53027e-05
-6.60929e-11
2.53027e-05
-5.80954e-11
2.53027e-05
-4.64909e-11
2.53027e-05
-3.19385e-11
2.53027e-05
-1.53826e-11
2.53027e-05
2.08738e-12
2.53027e-05
1.94046e-11
2.53027e-05
3.5648e-11
2.53027e-05
5.01113e-11
2.53027e-05
6.23283e-11
2.53026e-05
7.20632e-11
2.53026e-05
7.92723e-11
2.53026e-05
8.40589e-11
2.53026e-05
8.66245e-11
2.53025e-05
8.72263e-11
2.53025e-05
8.6142e-11
2.53025e-05
8.36501e-11
2.53025e-05
8.001e-11
2.53024e-05
7.54567e-11
2.53024e-05
7.01977e-11
2.53024e-05
6.4418e-11
2.53024e-05
5.82753e-11
2.53024e-05
5.19128e-11
2.53024e-05
4.54443e-11
2.53023e-05
3.89847e-11
2.53023e-05
3.25868e-11
2.53023e-05
2.63511e-11
2.53023e-05
2.01659e-11
2.53023e-05
1.42905e-11
2.53023e-05
8.01471e-12
2.53023e-05
2.27129e-12
2.53023e-05
-2.207e-12
2.53023e-05
-4.86951e-12
2.53023e-05
-5.42723e-12
2.53023e-05
-5.48415e-12
2.53023e-05
-5.76601e-12
2.53023e-05
-7.23935e-12
2.53023e-05
-9.88144e-12
2.53023e-05
-1.37001e-11
2.53023e-05
-1.83437e-11
2.53023e-05
-2.41577e-11
2.53023e-05
-2.95382e-11
2.53023e-05
-3.5852e-11
2.53024e-05
-3.70102e-11
2.53024e-05
-3.88322e-11
2.53024e-05
-2.47525e-11
2.53024e-05
-1.12949e-11
2.53024e-05
2.20747e-11
2.53024e-05
5.79214e-11
2.53024e-05
5.25309e-11
2.53024e-05
4.39216e-11
2.53024e-05
2.74226e-11
2.53024e-05
7.40173e-12
2.53024e-05
-1.17795e-11
2.53024e-05
-2.89356e-11
2.53024e-05
-4.20302e-11
2.53024e-05
-5.10592e-11
2.53024e-05
-5.24426e-11
2.53024e-05
-5.04244e-11
2.53024e-05
-3.01876e-11
2.53024e-05
-1.09081e-11
2.53024e-05
3.95376e-11
2.53024e-05
1.54365e-10
3.26019e-11
3.02267e-05
1.94431e-11
3.02266e-05
2.72755e-10
3.02265e-05
4.6689e-10
3.02263e-05
5.63281e-10
3.02262e-05
5.98935e-10
3.02261e-05
5.84411e-10
3.02259e-05
5.359e-10
3.02258e-05
4.68054e-10
3.02257e-05
3.91839e-10
3.02257e-05
3.14646e-10
3.02256e-05
2.41135e-10
3.02256e-05
1.74123e-10
3.02255e-05
1.15003e-10
3.02255e-05
6.39371e-11
3.02255e-05
2.01744e-11
3.02255e-05
-1.74185e-11
3.02255e-05
-4.98707e-11
3.02256e-05
-7.79745e-11
3.02256e-05
-1.02371e-10
3.02256e-05
-1.23626e-10
3.02256e-05
-1.42196e-10
3.02257e-05
-1.5838e-10
3.02257e-05
-1.7232e-10
3.02258e-05
-1.84119e-10
3.02258e-05
-1.93969e-10
3.02259e-05
-2.02198e-10
3.02259e-05
-2.09226e-10
3.0226e-05
-2.15474e-10
3.0226e-05
-2.21285e-10
3.02261e-05
-2.26879e-10
3.02261e-05
-2.32341e-10
3.02262e-05
-2.37643e-10
3.02263e-05
-2.4263e-10
3.02263e-05
-2.47128e-10
3.02264e-05
-2.50837e-10
3.02264e-05
-2.53668e-10
3.02265e-05
-2.55057e-10
3.02266e-05
-2.55274e-10
3.02266e-05
-2.52356e-10
3.02267e-05
-2.47913e-10
3.02268e-05
-2.34913e-10
3.02268e-05
-2.20322e-10
3.02269e-05
-1.84883e-10
3.02269e-05
-1.47712e-10
3.02269e-05
-8.60839e-11
3.0227e-05
-1.82056e-11
3.0227e-05
-4.50157e-12
3.0227e-05
-1.45749e-12
3.0227e-05
-1.30599e-11
3.0227e-05
-3.59246e-11
3.0227e-05
-5.50343e-11
3.0227e-05
-6.95898e-11
3.0227e-05
-8.04602e-11
3.02271e-05
-8.77472e-11
3.02271e-05
-9.11429e-11
3.02271e-05
-9.00619e-11
3.02271e-05
-8.40306e-11
3.02271e-05
-7.29594e-11
3.02271e-05
-5.72653e-11
3.02271e-05
-3.78508e-11
3.02271e-05
-1.59664e-11
3.02271e-05
6.97802e-12
3.02271e-05
2.96078e-11
3.02271e-05
5.0742e-11
3.02271e-05
6.9481e-11
3.02271e-05
8.52368e-11
3.02271e-05
9.77167e-11
3.0227e-05
1.06878e-10
3.0227e-05
1.12869e-10
3.0227e-05
1.15966e-10
3.02269e-05
1.16518e-10
3.02269e-05
1.14901e-10
3.02269e-05
1.11487e-10
3.02269e-05
1.06617e-10
3.02268e-05
1.00597e-10
3.02268e-05
9.36879e-11
3.02268e-05
8.61198e-11
3.02268e-05
7.80864e-11
3.02267e-05
6.9762e-11
3.02267e-05
6.12894e-11
3.02267e-05
5.28135e-11
3.02267e-05
4.44105e-11
3.02267e-05
3.62117e-11
3.02267e-05
2.8103e-11
3.02267e-05
2.03937e-11
3.02267e-05
1.22507e-11
3.02267e-05
4.77903e-12
3.02267e-05
-1.11889e-12
3.02267e-05
-4.72827e-12
3.02267e-05
-5.67796e-12
3.02267e-05
-5.88011e-12
3.02267e-05
-6.30097e-12
3.02267e-05
-8.21502e-12
3.02267e-05
-1.17176e-11
3.02267e-05
-1.68934e-11
3.02267e-05
-2.33566e-11
3.02267e-05
-3.14787e-11
3.02267e-05
-3.93153e-11
3.02267e-05
-4.8303e-11
3.02267e-05
-5.11535e-11
3.02267e-05
-5.43584e-11
3.02268e-05
-3.82323e-11
3.02268e-05
-2.17671e-11
3.02268e-05
1.94535e-11
3.02268e-05
6.4503e-11
3.02268e-05
6.09261e-11
3.02267e-05
5.20522e-11
3.02267e-05
3.26932e-11
3.02267e-05
8.55329e-12
3.02267e-05
-1.51177e-11
3.02268e-05
-3.65482e-11
3.02268e-05
-5.31479e-11
3.02268e-05
-6.4709e-11
3.02268e-05
-6.69119e-11
3.02268e-05
-6.45144e-11
3.02268e-05
-3.99235e-11
3.02268e-05
-1.59229e-11
3.02268e-05
4.92473e-11
3.02268e-05
1.82362e-10
7.28019e-11
3.48966e-05
1.054e-10
3.48965e-05
3.7219e-10
3.48964e-05
5.85167e-10
3.48962e-05
6.9661e-10
3.48961e-05
7.36677e-10
3.4896e-05
7.18271e-10
3.48959e-05
6.59658e-10
3.48957e-05
5.77853e-10
3.48956e-05
4.85753e-10
3.48956e-05
3.92086e-10
3.48955e-05
3.02372e-10
3.48955e-05
2.20005e-10
3.48954e-05
1.46803e-10
3.48954e-05
8.32085e-11
3.48954e-05
2.85432e-11
3.48954e-05
-1.84601e-11
3.48954e-05
-5.90845e-11
3.48954e-05
-9.43735e-11
3.48955e-05
-1.25151e-10
3.48955e-05
-1.5211e-10
3.48955e-05
-1.75803e-10
3.48956e-05
-1.96592e-10
3.48956e-05
-2.14647e-10
3.48956e-05
-2.30061e-10
3.48957e-05
-2.4301e-10
3.48957e-05
-2.53844e-10
3.48958e-05
-2.6305e-10
3.48959e-05
-2.71153e-10
3.48959e-05
-2.78609e-10
3.4896e-05
-2.85738e-10
3.4896e-05
-2.92688e-10
3.48961e-05
-2.99458e-10
3.48962e-05
-3.05882e-10
3.48962e-05
-3.11746e-10
3.48963e-05
-3.16677e-10
3.48964e-05
-3.20524e-10
3.48964e-05
-3.22604e-10
3.48965e-05
-3.23175e-10
3.48966e-05
-3.19981e-10
3.48966e-05
-3.14782e-10
3.48967e-05
-2.99535e-10
3.48967e-05
-2.81966e-10
3.48968e-05
-2.39989e-10
3.48968e-05
-1.95037e-10
3.48969e-05
-1.20883e-10
3.48969e-05
-3.85385e-11
3.48969e-05
-1.78959e-11
3.48969e-05
-1.09514e-11
3.48969e-05
-2.2335e-11
3.48969e-05
-4.77145e-11
3.4897e-05
-6.97487e-11
3.4897e-05
-8.68884e-11
3.4897e-05
-9.97068e-11
3.4897e-05
-1.08121e-10
3.4897e-05
-1.11634e-10
3.48971e-05
-1.09517e-10
3.48971e-05
-1.01252e-10
3.48971e-05
-8.68183e-11
3.48971e-05
-6.68198e-11
3.48971e-05
-4.24236e-11
3.48971e-05
-1.51835e-11
3.48971e-05
1.31855e-11
3.48971e-05
4.10294e-11
3.48971e-05
6.69352e-11
3.4897e-05
8.98317e-11
3.4897e-05
1.09024e-10
3.4897e-05
1.2417e-10
3.4897e-05
1.35231e-10
3.48969e-05
1.42394e-10
3.48969e-05
1.46009e-10
3.48969e-05
1.4651e-10
3.48969e-05
1.44366e-10
3.48968e-05
1.40038e-10
3.48968e-05
1.33946e-10
3.48968e-05
1.26464e-10
3.48967e-05
1.1791e-10
3.48967e-05
1.08556e-10
3.48967e-05
9.86322e-11
3.48967e-05
8.83436e-11
3.48967e-05
7.78613e-11
3.48967e-05
6.73591e-11
3.48966e-05
5.69364e-11
3.48966e-05
4.67544e-11
3.48966e-05
3.66974e-11
3.48966e-05
2.71217e-11
3.48966e-05
1.70786e-11
3.48966e-05
7.83179e-12
3.48966e-05
4.46858e-13
3.48966e-05
-4.19571e-12
3.48966e-05
-5.6339e-12
3.48966e-05
-6.06513e-12
3.48966e-05
-6.70171e-12
3.48966e-05
-9.14402e-12
3.48966e-05
-1.36388e-11
3.48966e-05
-2.03713e-11
3.48966e-05
-2.89271e-11
3.48966e-05
-3.96853e-11
3.48966e-05
-5.03496e-11
3.48967e-05
-6.23816e-11
3.48967e-05
-6.7322e-11
3.48967e-05
-7.22411e-11
3.48967e-05
-5.44761e-11
3.48967e-05
-3.52367e-11
3.48967e-05
1.3634e-11
3.48967e-05
6.80113e-11
3.48967e-05
6.713e-11
3.48967e-05
5.89495e-11
3.48967e-05
3.7605e-11
3.48967e-05
1.0044e-11
3.48967e-05
-1.76367e-11
3.48967e-05
-4.30561e-11
3.48967e-05
-6.30479e-11
3.48967e-05
-7.71604e-11
3.48967e-05
-8.03414e-11
3.48968e-05
-7.77746e-11
3.48968e-05
-4.92481e-11
3.48968e-05
-2.09461e-11
3.48968e-05
5.90139e-11
3.48967e-05
2.06675e-10
1.25423e-10
3.92605e-05
2.13264e-10
3.92604e-05
4.82607e-10
3.92603e-05
7.0415e-10
3.92602e-05
8.25081e-10
3.926e-05
8.67585e-10
3.92599e-05
8.45446e-10
3.92598e-05
7.78057e-10
3.92597e-05
6.84094e-10
3.92596e-05
5.77934e-10
3.92595e-05
4.6943e-10
3.92595e-05
3.64879e-10
3.92594e-05
2.68204e-10
3.92594e-05
1.81622e-10
3.92594e-05
1.05861e-10
3.92593e-05
4.03765e-11
3.92593e-05
-1.61416e-11
3.92593e-05
-6.51452e-11
3.92594e-05
-1.07875e-10
3.92594e-05
-1.4531e-10
3.92594e-05
-1.78249e-10
3.92594e-05
-2.07327e-10
3.92595e-05
-2.32966e-10
3.92595e-05
-2.55371e-10
3.92596e-05
-2.7465e-10
3.92596e-05
-2.9098e-10
3.92597e-05
-3.0473e-10
3.92597e-05
-3.16441e-10
3.92598e-05
-3.26724e-10
3.92598e-05
-3.36127e-10
3.92599e-05
-3.45052e-10
3.92599e-05
-3.53707e-10
3.926e-05
-3.62122e-10
3.92601e-05
-3.70129e-10
3.92601e-05
-3.77492e-10
3.92602e-05
-3.83781e-10
3.92603e-05
-3.88801e-10
3.92603e-05
-3.9176e-10
3.92604e-05
-3.92902e-10
3.92605e-05
-3.89685e-10
3.92605e-05
-3.83996e-10
3.92606e-05
-3.66825e-10
3.92607e-05
-3.46591e-10
3.92607e-05
-2.98518e-10
3.92608e-05
-2.46155e-10
3.92608e-05
-1.59873e-10
3.92609e-05
-6.32065e-11
3.92609e-05
-3.50129e-11
3.92609e-05
-2.33064e-11
3.92609e-05
-3.35217e-11
3.92609e-05
-6.05555e-11
3.92609e-05
-8.48896e-11
3.92609e-05
-1.04186e-10
3.9261e-05
-1.18621e-10
3.9261e-05
-1.27839e-10
3.9261e-05
-1.3112e-10
3.9261e-05
-1.27612e-10
3.9261e-05
-1.16804e-10
3.9261e-05
-9.88088e-11
3.9261e-05
-7.44518e-11
3.92611e-05
-4.51757e-11
3.9261e-05
-1.2818e-11
3.9261e-05
2.06401e-11
3.9261e-05
5.33131e-11
3.9261e-05
8.36022e-11
3.9261e-05
1.10303e-10
3.9261e-05
1.32635e-10
3.92609e-05
1.5022e-10
3.92609e-05
1.63023e-10
3.92609e-05
1.71269e-10
3.92609e-05
1.75367e-10
3.92608e-05
1.75824e-10
3.92608e-05
1.73192e-10
3.92608e-05
1.68006e-10
3.92607e-05
1.60763e-10
3.92607e-05
1.51896e-10
3.92607e-05
1.41776e-10
3.92607e-05
1.30718e-10
3.92607e-05
1.18985e-10
3.92606e-05
1.06816e-10
3.92606e-05
9.44052e-11
3.92606e-05
8.19562e-11
3.92606e-05
6.95883e-11
3.92606e-05
5.74891e-11
3.92606e-05
4.55408e-11
3.92606e-05
3.4143e-11
3.92606e-05
2.22348e-11
3.92606e-05
1.12253e-11
3.92606e-05
2.33579e-12
3.92606e-05
-3.38765e-12
3.92606e-05
-5.38738e-12
3.92606e-05
-6.13025e-12
3.92606e-05
-7.07756e-12
3.92606e-05
-1.01681e-11
3.92606e-05
-1.58216e-11
3.92606e-05
-2.43339e-11
3.92606e-05
-3.52593e-11
3.92606e-05
-4.89568e-11
3.92606e-05
-6.2766e-11
3.92606e-05
-7.81307e-11
3.92606e-05
-8.54627e-11
3.92606e-05
-9.23402e-11
3.92607e-05
-7.3271e-11
3.92607e-05
-5.14923e-11
3.92607e-05
4.77725e-12
3.92607e-05
6.85047e-11
3.92607e-05
7.10365e-11
3.92607e-05
6.44545e-11
3.92607e-05
4.20897e-11
3.92607e-05
1.19599e-11
3.92607e-05
-1.90608e-11
3.92607e-05
-4.79965e-11
3.92607e-05
-7.11042e-11
3.92607e-05
-8.76708e-11
3.92607e-05
-9.19175e-11
3.92607e-05
-8.94036e-11
3.92607e-05
-5.74136e-11
3.92607e-05
-2.53967e-11
3.92607e-05
6.90044e-11
3.92607e-05
2.27695e-10
1.87927e-10
4.33382e-05
3.35519e-10
4.33381e-05
6.00447e-10
4.3338e-05
8.22712e-10
4.33379e-05
9.47704e-10
4.33378e-05
9.9019e-10
4.33376e-05
9.64013e-10
4.33375e-05
8.88923e-10
4.33374e-05
7.84564e-10
4.33373e-05
6.66308e-10
4.33373e-05
5.44858e-10
4.33372e-05
4.27152e-10
4.33372e-05
3.17568e-10
4.33371e-05
2.18671e-10
4.33371e-05
1.3146e-10
4.33371e-05
5.55567e-11
4.33371e-05
-1.03121e-11
4.33371e-05
-6.76809e-11
4.33371e-05
-1.17923e-10
4.33371e-05
-1.62132e-10
4.33371e-05
-2.01191e-10
4.33372e-05
-2.35798e-10
4.33372e-05
-2.6643e-10
4.33372e-05
-2.93338e-10
4.33373e-05
-3.16655e-10
4.33373e-05
-3.36582e-10
4.33374e-05
-3.53508e-10
4.33374e-05
-3.68017e-10
4.33375e-05
-3.8078e-10
4.33375e-05
-3.92416e-10
4.33376e-05
-4.03393e-10
4.33376e-05
-4.13969e-10
4.33377e-05
-4.24204e-10
4.33378e-05
-4.33937e-10
4.33378e-05
-4.42927e-10
4.33379e-05
-4.50708e-10
4.3338e-05
-4.57056e-10
4.3338e-05
-4.61083e-10
4.33381e-05
-4.63017e-10
4.33382e-05
-4.60044e-10
4.33383e-05
-4.54152e-10
4.33383e-05
-4.35413e-10
4.33384e-05
-4.12877e-10
4.33384e-05
-3.59197e-10
4.33385e-05
-2.99895e-10
4.33385e-05
-2.01988e-10
4.33386e-05
-9.13093e-11
4.33386e-05
-5.52684e-11
4.33386e-05
-3.82085e-11
4.33386e-05
-4.64641e-11
4.33386e-05
-7.43522e-11
4.33386e-05
-1.00315e-10
4.33387e-05
-1.21218e-10
4.33387e-05
-1.36784e-10
4.33387e-05
-1.46325e-10
4.33387e-05
-1.4889e-10
4.33387e-05
-1.4355e-10
4.33387e-05
-1.29868e-10
4.33388e-05
-1.08151e-10
4.33388e-05
-7.94801e-11
4.33388e-05
-4.55678e-11
4.33388e-05
-8.50042e-12
4.33388e-05
2.95283e-11
4.33387e-05
6.64608e-11
4.33387e-05
1.00569e-10
4.33387e-05
1.30558e-10
4.33387e-05
1.55592e-10
4.33387e-05
1.75272e-10
4.33386e-05
1.89568e-10
4.33386e-05
1.98737e-10
4.33386e-05
2.03236e-10
4.33385e-05
2.03632e-10
4.33385e-05
2.0054e-10
4.33385e-05
1.94563e-10
4.33385e-05
1.86257e-10
4.33384e-05
1.76111e-10
4.33384e-05
1.64541e-10
4.33384e-05
1.51901e-10
4.33384e-05
1.3849e-10
4.33384e-05
1.24571e-10
4.33383e-05
1.10367e-10
4.33383e-05
9.61043e-11
4.33383e-05
8.19191e-11
4.33383e-05
6.8023e-11
4.33383e-05
5.42929e-11
4.33383e-05
4.1167e-11
4.33383e-05
2.74745e-11
4.33383e-05
1.47584e-11
4.33383e-05
4.38943e-12
4.33383e-05
-2.42276e-12
4.33383e-05
-5.0267e-12
4.33383e-05
-6.15218e-12
4.33383e-05
-7.51874e-12
4.33383e-05
-1.1412e-11
4.33383e-05
-1.84376e-11
4.33383e-05
-2.89954e-11
4.33383e-05
-4.25929e-11
4.33383e-05
-5.95325e-11
4.33383e-05
-7.67735e-11
4.33383e-05
-9.57028e-11
4.33384e-05
-1.05648e-10
4.33384e-05
-1.14648e-10
4.33384e-05
-9.45167e-11
4.33384e-05
-7.03874e-11
4.33384e-05
-6.92961e-12
4.33384e-05
6.6144e-11
4.33384e-05
7.26349e-11
4.33384e-05
6.84286e-11
4.33384e-05
4.59731e-11
4.33384e-05
1.41669e-11
4.33384e-05
-1.94254e-11
4.33384e-05
-5.12784e-11
4.33384e-05
-7.70957e-11
4.33384e-05
-9.59042e-11
4.33384e-05
-1.01213e-10
4.33385e-05
-9.89249e-11
4.33385e-05
-6.39168e-11
4.33385e-05
-2.87895e-11
4.33385e-05
7.94424e-11
4.33384e-05
2.46431e-10
2.56633e-10
4.71784e-05
4.64584e-10
4.71783e-05
7.22078e-10
4.71782e-05
9.40432e-10
4.7178e-05
1.06507e-09
4.71779e-05
1.10499e-09
4.71778e-05
1.07403e-09
4.71777e-05
9.91835e-10
4.71776e-05
8.78467e-10
4.71775e-05
7.49841e-10
4.71775e-05