/*--------------------------------*- C++ -*----------------------------------*\
  =========                 |
  \\      /  F ield         | OpenFOAM: The Open Source CFD Toolbox
   \\    /   O peration     | Website:  https://openfoam.org
    \\  /    A nd           | Version:  7
     \\/     M anipulation  |
\*---------------------------------------------------------------------------*/
FoamFile
{
    version     2.0;
    format      ascii;
    class       volVectorField;
    location    "3000";
    object      U;
}
// * * * * * * * * * * * * * * * * * * * * * * * * * * * * * * * * * * * * * //

dimensions      [0 1 -1 0 0 0 0];

internalField   nonuniform List<vector> 
24000
(
(0.00393618 -3.51042e-10 7.4987e-17)
(0.00393619 2.10838e-10 5.60894e-17)
(0.00393616 1.09506e-10 5.65483e-17)
(0.00393614 1.441e-10 2.9704e-18)
(0.00393612 1.64174e-10 -2.68009e-16)
(0.00393609 1.59381e-10 -5.96836e-18)
(0.00393607 1.47302e-10 -2.31327e-16)
(0.00393604 1.28724e-10 8.40123e-18)
(0.00393603 1.0714e-10 4.59754e-17)
(0.00393601 8.47979e-11 -2.3244e-16)
(0.003936 6.4047e-11 1.46718e-17)
(0.00393599 4.65328e-11 1.65274e-17)
(0.00393598 3.23879e-11 1.79412e-17)
(0.00393598 2.05237e-11 -7.70227e-18)
(0.00393598 9.68406e-12 -2.76716e-17)
(0.00393598 -6.5386e-13 6.05999e-18)
(0.00393598 -1.02163e-11 -8.77966e-18)
(0.00393598 -1.8516e-11 -7.341e-18)
(0.00393598 -2.54174e-11 -3.10251e-17)
(0.00393599 -3.10436e-11 -7.12689e-17)
(0.00393599 -3.55388e-11 3.95122e-18)
(0.003936 -3.89557e-11 -5.39035e-17)
(0.00393601 -4.13302e-11 -3.02381e-17)
(0.00393601 -4.29067e-11 -5.77761e-17)
(0.00393602 -4.41179e-11 -1.09482e-16)
(0.00393603 -4.54294e-11 -1.5475e-17)
(0.00393604 -4.71091e-11 -4.38757e-17)
(0.00393605 -4.92296e-11 -2.7713e-17)
(0.00393605 -5.15968e-11 -5.89495e-17)
(0.00393606 -5.40832e-11 -1.1769e-16)
(0.00393607 -5.63138e-11 -2.93236e-17)
(0.00393608 -5.83717e-11 -5.63972e-17)
(0.00393609 -5.96821e-11 -3.15444e-17)
(0.0039361 -6.09794e-11 -5.10953e-17)
(0.00393611 -6.08983e-11 -1.0927e-16)
(0.00393612 -6.1982e-11 -3.32218e-17)
(0.00393613 -6.01739e-11 -6.27322e-17)
(0.00393614 -6.2274e-11 -4.66331e-17)
(0.00393615 -5.65761e-11 -7.01453e-17)
(0.00393616 -6.05869e-11 -1.13566e-16)
(0.00393617 -4.51902e-11 -7.46386e-17)
(0.00393618 -4.96598e-11 1.01972e-16)
(0.00393619 -1.82658e-11 -1.73338e-17)
(0.00393619 -1.0652e-11 -2.16072e-17)
(0.0039362 1.98848e-11 -1.39497e-17)
(0.00393619 6.43246e-11 -6.13321e-18)
(0.00393619 2.30475e-11 1.80377e-16)
(0.00393619 2.80377e-11 1.41482e-17)
(0.00393618 1.22545e-11 4.43655e-18)
(0.00393618 -6.91376e-12 1.12309e-17)
(0.00393619 -1.30472e-11 1.81218e-17)
(0.00393619 -1.92573e-11 1.75109e-16)
(0.00393619 -2.40195e-11 2.53249e-17)
(0.0039362 -2.76687e-11 2.49921e-16)
(0.0039362 -3.0351e-11 -1.99751e-17)
(0.00393621 -3.17822e-11 4.40859e-17)
(0.00393621 -3.18073e-11 3.03294e-16)
(0.00393621 -3.03239e-11 4.86126e-17)
(0.00393622 -2.73661e-11 2.76591e-16)
(0.00393622 -2.31177e-11 -3.79408e-17)
(0.00393622 -1.78954e-11 5.13182e-17)
(0.00393623 -1.20663e-11 2.86975e-16)
(0.00393623 -6.04952e-12 6.55957e-17)
(0.00393623 -1.86403e-13 2.34259e-16)
(0.00393622 5.23978e-12 1.7903e-18)
(0.00393622 1.00452e-11 7.0741e-17)
(0.00393622 1.41354e-11 3.1492e-16)
(0.00393622 1.74411e-11 7.38279e-17)
(0.00393621 1.99926e-11 2.12638e-16)
(0.00393621 2.17979e-11 9.46479e-18)
(0.0039362 2.28666e-11 7.8883e-17)
(0.0039362 2.32291e-11 2.3803e-16)
(0.0039362 2.2961e-11 8.05686e-17)
(0.00393619 2.21104e-11 2.44167e-16)
(0.00393619 2.07653e-11 4.91108e-17)
(0.00393618 1.90039e-11 9.04543e-17)
(0.00393618 1.69681e-11 2.58727e-16)
(0.00393618 1.47119e-11 9.10975e-17)
(0.00393617 1.24143e-11 3.06413e-16)
(0.00393617 1.0014e-11 3.25538e-17)
(0.00393617 7.76895e-12 -9.92724e-17)
(0.00393617 5.37098e-12 -4.19181e-17)
(0.00393617 3.33687e-12 8.73796e-17)
(0.00393617 7.39435e-13 -2.03855e-16)
(0.00393617 -1.08753e-12 1.75254e-17)
(0.00393617 -4.2825e-12 -1.31584e-16)
(0.00393617 -6.57156e-12 7.93912e-18)
(0.00393617 -7.84048e-12 7.13171e-17)
(0.00393617 -8.42852e-12 -1.5102e-16)
(0.00393617 -7.11336e-12 -2.90299e-17)
(0.00393617 -7.31447e-12 -2.22673e-16)
(0.00393617 -7.23871e-12 -5.34918e-18)
(0.00393617 -8.94255e-12 6.51184e-17)
(0.00393617 -9.82129e-12 -1.23428e-16)
(0.00393617 -1.21816e-11 -2.71562e-17)
(0.00393617 -1.17321e-11 -1.54864e-16)
(0.00393618 -1.52662e-11 -1.54751e-17)
(0.00393618 -1.11064e-11 6.15918e-17)
(0.00393618 -1.71711e-11 -1.69611e-16)
(0.00393618 -4.19878e-12 -2.07967e-17)
(0.00393618 -1.24843e-11 -1.92315e-16)
(0.00393618 1.52391e-11 -6.28714e-18)
(0.00393618 1.59608e-11 5.80084e-17)
(0.00393618 4.29331e-11 -1.43871e-16)
(0.00393618 7.67826e-11 -3.98835e-17)
(0.00393617 3.31644e-11 -1.45031e-16)
(0.00393616 3.76898e-11 -3.76436e-18)
(0.00393616 1.92939e-11 5.99326e-17)
(0.00393616 5.93441e-12 -1.65709e-16)
(0.00393616 -4.75343e-12 -2.34926e-17)
(0.00393616 -1.44484e-11 -1.37759e-16)
(0.00393616 -2.04129e-11 -2.2374e-16)
(0.00393617 -2.38855e-11 4.42439e-17)
(0.00393617 -2.42131e-11 -1.37323e-16)
(0.00393617 -1.6252e-11 -5.92925e-17)
(0.00393618 -1.67398e-11 -1.43577e-16)
(0.00393617 3.69758e-11 -1.57679e-16)
(0.00393618 -2.67829e-11 6.00448e-17)
(0.00393616 2.48964e-10 -2.08504e-16)
(0.00393615 -1.89598e-10 2.34892e-17)
(0.0118813 -2.3488e-09 2.31336e-16)
(0.0118814 1.26291e-09 1.7023e-16)
(0.0118813 2.13674e-09 1.71334e-16)
(0.0118812 2.42275e-09 8.95445e-18)
(0.0118812 2.70562e-09 -4.24188e-16)
(0.0118811 2.67002e-09 -1.11998e-17)
(0.011881 2.46343e-09 -3.47897e-16)
(0.011881 2.15163e-09 3.45972e-17)
(0.0118809 1.79275e-09 1.39796e-16)
(0.0118809 1.43036e-09 -3.37827e-16)
(0.0118808 1.09357e-09 5.47185e-17)
(0.0118808 7.97471e-10 4.82669e-17)
(0.0118808 5.42972e-10 5.47248e-17)
(0.0118808 3.22146e-10 -2.35814e-17)
(0.0118808 1.26349e-10 -8.64729e-17)
(0.0118808 -4.86486e-11 1.76421e-17)
(0.0118808 -2.02722e-10 -2.67372e-17)
(0.0118808 -3.34846e-10 -2.11188e-17)
(0.0118808 -4.4577e-10 -9.4386e-17)
(0.0118808 -5.37742e-10 -2.16199e-16)
(0.0118808 -6.12935e-10 1.05288e-17)
(0.0118808 -6.73108e-10 -1.69221e-16)
(0.0118808 -7.20652e-10 -9.08062e-17)
(0.0118809 -7.58899e-10 -1.69888e-16)
(0.0118809 -7.92043e-10 -3.29243e-16)
(0.0118809 -8.23761e-10 -4.11981e-17)
(0.0118809 -8.5617e-10 -1.29565e-16)
(0.011881 -8.89643e-10 -8.24054e-17)
(0.011881 -9.23244e-10 -1.73547e-16)
(0.011881 -9.55606e-10 -3.51655e-16)
(0.011881 -9.85002e-10 -8.00825e-17)
(0.0118811 -1.01056e-09 -1.70783e-16)
(0.0118811 -1.03079e-09 -9.6958e-17)
(0.0118811 -1.04711e-09 -1.55495e-16)
(0.0118812 -1.05719e-09 -3.22741e-16)
(0.0118812 -1.06675e-09 -1.01574e-16)
(0.0118812 -1.06612e-09 -1.98154e-16)
(0.0118813 -1.07018e-09 -1.41165e-16)
(0.0118813 -1.04355e-09 -2.07865e-16)
(0.0118813 -1.03166e-09 -3.49898e-16)
(0.0118813 -9.27563e-10 -2.25289e-16)
(0.0118814 -8.67269e-10 -7.25365e-17)
(0.0118814 -5.97003e-10 -5.77208e-17)
(0.0118814 -4.0041e-10 -6.24675e-17)
(0.0118814 -5.89861e-12 -3.98254e-17)
(0.0118814 4.2993e-10 -1.65253e-17)
(0.0118814 2.81055e-10 9.07246e-17)
(0.0118814 2.32593e-10 3.5007e-17)
(0.0118814 9.72672e-11 1.43767e-17)
(0.0118814 -1.0806e-10 3.45405e-17)
(0.0118814 -2.27789e-10 5.55904e-17)
(0.0118814 -3.14052e-10 1.2536e-16)
(0.0118814 -3.81608e-10 7.06124e-17)
(0.0118814 -4.30374e-10 1.67173e-16)
(0.0118814 -4.61688e-10 -3.62671e-16)
(0.0118815 -4.72909e-10 1.38425e-16)
(0.0118815 -4.61651e-10 2.40509e-16)
(0.0118815 -4.26792e-10 1.40499e-16)
(0.0118815 -3.69313e-10 2.17575e-16)
(0.0118815 -2.92416e-10 -1.40347e-16)
(0.0118815 -2.01313e-10 1.58013e-16)
(0.0118815 -1.02194e-10 2.52682e-16)
(0.0118815 -1.43072e-12 1.9354e-16)
(0.0118815 9.54131e-11 2.81105e-16)
(0.0118815 1.83984e-10 8.06832e-17)
(0.0118815 2.61318e-10 2.14901e-16)
(0.0118815 3.25579e-10 3.00699e-16)
(0.0118815 3.76094e-10 2.1655e-16)
(0.0118815 4.12939e-10 2.67903e-16)
(0.0118814 4.36629e-10 9.92274e-17)
(0.0118814 4.481e-10 2.38192e-16)
(0.0118814 4.48426e-10 3.06303e-16)
(0.0118814 4.38943e-10 2.36507e-16)
(0.0118814 4.20999e-10 3.27878e-16)
(0.0118814 3.96146e-10 1.40038e-16)
(0.0118814 3.65972e-10 2.75965e-16)
(0.0118814 3.31975e-10 3.49629e-16)
(0.0118814 2.95484e-10 2.69876e-16)
(0.0118813 2.57836e-10 3.32068e-16)
(0.0118813 2.19688e-10 2.2959e-17)
(0.0118813 1.82165e-10 9.79018e-17)
(0.0118813 1.44719e-10 -1.02786e-16)
(0.0118813 1.08688e-10 2.60836e-16)
(0.0118813 7.09079e-11 1.63704e-17)
(0.0118813 3.61695e-11 8.90952e-17)
(0.0118813 -6.35144e-12 1.67876e-17)
(0.0118813 -4.34335e-11 -1.20962e-16)
(0.0118813 -6.93715e-11 2.15748e-16)
(0.0118813 -8.20775e-11 -3.04688e-17)
(0.0118813 -7.75171e-11 -1.38558e-17)
(0.0118813 -7.63424e-11 -4.77355e-17)
(0.0118813 -7.83101e-11 2.29918e-17)
(0.0118813 -9.19281e-11 1.97803e-16)
(0.0118813 -1.09575e-10 -1.46697e-17)
(0.0118813 -1.33259e-10 -1.88758e-16)
(0.0118813 -1.52275e-10 -2.23928e-17)
(0.0118813 -1.81767e-10 -1.36918e-16)
(0.0118813 -1.88258e-10 1.89287e-16)
(0.0118814 -2.19493e-10 -6.57282e-17)
(0.0118814 -1.70346e-10 -1.07157e-17)
(0.0118814 -1.78406e-10 -1.05082e-17)
(0.0118814 1.27122e-11 -1.70925e-16)
(0.0118814 1.12334e-10 1.77777e-16)
(0.0118814 4.16895e-10 -5.29422e-17)
(0.0118813 7.27132e-10 -1.85377e-16)
(0.0118813 5.08414e-10 -5.20149e-17)
(0.0118813 4.23286e-10 4.69807e-18)
(0.0118813 2.61912e-10 1.8219e-16)
(0.0118813 8.39312e-11 -6.29379e-17)
(0.0118813 -6.5208e-11 -1.84661e-17)
(0.0118813 -1.96064e-10 -3.77775e-17)
(0.0118813 -2.87683e-10 -8.79814e-17)
(0.0118813 -3.49089e-10 1.39828e-16)
(0.0118813 -3.44757e-10 -1.45255e-17)
(0.0118813 -3.2078e-10 -5.44329e-17)
(0.0118814 -1.51818e-10 -6.34345e-17)
(0.0118813 5.67866e-11 -8.23476e-17)
(0.0118814 2.71724e-10 1.874e-16)
(0.0118813 1.82741e-09 5.47328e-18)
(0.0118813 -9.63087e-10 1.29465e-16)
(0.0199885 -4.94422e-09 4.09644e-16)
(0.0199885 2.99213e-09 2.82673e-16)
(0.0199884 6.15754e-09 2.88066e-16)
(0.0199883 7.202e-09 2.51585e-18)
(0.0199882 7.92328e-09 -2.4675e-16)
(0.0199881 7.82043e-09 2.44422e-17)
(0.019988 7.20708e-09 -1.35762e-16)
(0.0199879 6.29313e-09 1.03518e-16)
(0.0199878 5.24532e-09 2.33311e-16)
(0.0199877 4.18711e-09 -1.01196e-16)
(0.0199876 3.19956e-09 1.41788e-16)
(0.0199876 2.32514e-09 7.17106e-17)
(0.0199876 1.56966e-09 9.26407e-17)
(0.0199875 9.15583e-10 -4.63126e-17)
(0.0199875 3.40854e-10 -1.64584e-16)
(0.0199875 -1.67767e-10 3.48521e-17)
(0.0199875 -6.13141e-10 -4.98823e-17)
(0.0199876 -9.95585e-10 -3.27399e-17)
(0.0199876 -1.31892e-09 -1.66628e-16)
(0.0199876 -1.58975e-09 -3.73963e-16)
(0.0199876 -1.81428e-09 2.2849e-17)
(0.0199877 -1.99766e-09 -3.17488e-16)
(0.0199877 -2.14545e-09 -1.4577e-16)
(0.0199877 -2.2658e-09 -2.76997e-16)
(0.0199878 -2.36885e-09 -5.46384e-16)
(0.0199878 -2.46396e-09 -2.62943e-17)
(0.0199878 -2.55709e-09 -2.08953e-16)
(0.0199879 -2.65037e-09 -1.31754e-16)
(0.0199879 -2.74272e-09 -2.84698e-16)
(0.019988 -2.8316e-09 -5.96801e-16)
(0.019988 -2.91353e-09 -1.06477e-16)
(0.0199881 -2.98604e-09 -3.01092e-16)
(0.0199881 -3.04601e-09 -1.61552e-16)
(0.0199882 -3.09471e-09 -2.71004e-16)
(0.0199882 -3.12873e-09 -5.29556e-16)
(0.0199883 -3.15613e-09 -1.56733e-16)
(0.0199883 -3.16143e-09 -3.64377e-16)
(0.0199884 -3.16617e-09 -2.353e-16)
(0.0199884 -3.10584e-09 -3.45141e-16)
(0.0199885 -3.05495e-09 -6.13389e-16)
(0.0199885 -2.80216e-09 -3.68301e-16)
(0.0199885 -2.60281e-09 -2.68549e-16)
(0.0199886 -1.92279e-09 -1.02087e-16)
(0.0199886 -1.35262e-09 -1.00517e-16)
(0.0199886 -2.94584e-10 -5.9282e-17)
(0.0199886 8.56305e-10 -2.17026e-17)
(0.0199886 6.52259e-10 -4.36113e-17)
(0.0199886 5.23695e-10 5.00645e-17)
(0.0199886 1.89703e-10 2.35067e-17)
(0.0199886 -3.3073e-10 6.13786e-17)
(0.0199886 -6.71068e-10 9.66493e-17)
(0.0199886 -9.1276e-10 4.39578e-17)
(0.0199887 -1.09885e-09 1.11667e-16)
(0.0199887 -1.23228e-09 1.28403e-16)
(0.0199887 -1.31441e-09 4.9208e-16)
(0.0199887 -1.33817e-09 2.57438e-16)
(0.0199887 -1.29643e-09 1.9236e-16)
(0.0199888 -1.18621e-09 2.28739e-16)
(0.0199888 -1.01059e-09 2.00203e-16)
(0.0199888 -7.79399e-10 3.27942e-16)
(0.0199888 -5.08021e-10 2.98214e-16)
(0.0199888 -2.14924e-10 2.52048e-16)
(0.0199888 8.13679e-11 3.20588e-16)
(0.0199888 3.64522e-10 2.95152e-16)
(0.0199888 6.21998e-10 5.90773e-16)
(0.0199888 8.44998e-10 3.8152e-16)
(0.0199887 1.0286e-09 3.07138e-16)
(0.0199887 1.17114e-09 3.55816e-16)
(0.0199887 1.273e-09 3.056e-16)
(0.0199887 1.33641e-09 4.78924e-16)
(0.0199887 1.36436e-09 4.19765e-16)
(0.0199886 1.36057e-09 3.31333e-16)
(0.0199886 1.32905e-09 3.87225e-16)
(0.0199886 1.27403e-09 3.80364e-16)
(0.0199886 1.19992e-09 5.61857e-16)
(0.0199886 1.11092e-09 4.78551e-16)
(0.0199885 1.01133e-09 4.03597e-16)
(0.0199885 9.0476e-10 4.48203e-16)
(0.0199885 7.94643e-10 4.02823e-16)
(0.0199885 6.83152e-10 9.05487e-16)
(0.0199885 5.72842e-10 3.3651e-16)
(0.0199885 4.63397e-10 4.04416e-16)
(0.0199885 3.57243e-10 4.63153e-16)
(0.0199885 2.48527e-10 1.83313e-16)
(0.0199885 1.4656e-10 4.47981e-16)
(0.0199885 2.78521e-11 2.08992e-16)
(0.0199885 -7.82553e-11 5.79341e-16)
(0.0199885 -1.55586e-10 3.70089e-16)
(0.0199885 -1.95716e-10 1.09611e-16)
(0.0199885 -1.90732e-10 4.68376e-16)
(0.0199885 -1.87497e-10 9.6417e-17)
(0.0199885 -1.92986e-10 3.46033e-16)
(0.0199885 -2.26923e-10 3.44171e-16)
(0.0199885 -2.76939e-10 8.93942e-17)
(0.0199885 -3.42793e-10 4.64353e-16)
(0.0199885 -4.06755e-10 1.56835e-16)
(0.0199885 -4.91548e-10 5.37034e-16)
(0.0199885 -5.37039e-10 3.42029e-16)
(0.0199885 -6.2232e-10 6.48894e-17)
(0.0199885 -5.40185e-10 6.5719e-16)
(0.0199885 -5.46836e-10 1.29052e-16)
(0.0199885 -1.04184e-10 6.99164e-16)
(0.0199885 1.87934e-10 3.15865e-16)
(0.0199885 9.77103e-10 4.07729e-17)
(0.0199885 1.78279e-09 2.85701e-16)
(0.0199885 1.36236e-09 7.03776e-17)
(0.0199885 1.10968e-09 3.34097e-16)
(0.0199885 6.96008e-10 3.18081e-16)
(0.0199885 2.23579e-10 5.81507e-17)
(0.0199885 -1.88178e-10 2.82335e-16)
(0.0199885 -5.48236e-10 8.56104e-17)
(0.0199885 -8.07524e-10 -3.9569e-18)
(0.0199885 -9.83115e-10 2.56287e-16)
(0.0199885 -9.81087e-10 1.23744e-16)
(0.0199885 -9.31479e-10 2.51287e-16)
(0.0199885 -4.58859e-10 5.27093e-17)
(0.0199885 6.72175e-12 1.88746e-17)
(0.0199885 8.3902e-10 3.36433e-16)
(0.0199885 4.35781e-09 1.76668e-16)
(0.0199885 -1.57069e-09 6.29663e-16)
(0.028227 -7.0889e-09 5.53891e-16)
(0.028227 5.54376e-09 3.93791e-16)
(0.0282269 1.21616e-08 4.04356e-16)
(0.0282268 1.4576e-08 -2.92526e-17)
(0.0282266 1.58763e-08 -3.25856e-17)
(0.0282264 1.56366e-08 1.14087e-16)
(0.0282263 1.4386e-08 6.69512e-17)
(0.0282261 1.25513e-08 2.18686e-16)
(0.028226 1.04601e-08 3.36356e-16)
(0.0282259 8.34913e-09 1.30401e-16)
(0.0282258 6.37185e-09 2.7978e-16)
(0.0282258 4.61097e-09 7.59456e-17)
(0.0282257 3.08447e-09 1.33609e-16)
(0.0282257 1.76656e-09 -9.04795e-17)
(0.0282257 6.18172e-10 -1.73189e-16)
(0.0282257 -3.8937e-10 7.19251e-17)
(0.0282257 -1.26777e-09 -8.89697e-17)
(0.0282257 -2.02317e-09 -3.89843e-17)
(0.0282257 -2.66573e-09 -2.63865e-16)
(0.0282258 -3.2091e-09 -4.33676e-16)
(0.0282258 -3.66559e-09 1.86048e-16)
(0.0282259 -4.04457e-09 -7.17567e-16)
(0.0282259 -4.35524e-09 -1.74619e-16)
(0.028226 -4.61023e-09 -5.12055e-16)
(0.028226 -4.82604e-09 -7.11242e-16)
(0.0282261 -5.01898e-09 1.18224e-16)
(0.0282261 -5.20114e-09 -2.6303e-16)
(0.0282262 -5.37857e-09 -1.61915e-16)
(0.0282262 -5.55222e-09 -3.88238e-16)
(0.0282263 -5.71971e-09 -1.08557e-15)
(0.0282264 -5.87653e-09 4.13405e-17)
(0.0282264 -6.01837e-09 -3.57566e-16)
(0.0282265 -6.13988e-09 -2.12255e-16)
(0.0282266 -6.24054e-09 -5.46115e-16)
(0.0282266 -6.31512e-09 -8.87905e-16)
(0.0282267 -6.37159e-09 2.38156e-18)
(0.0282268 -6.38918e-09 -4.35133e-16)
(0.0282268 -6.39226e-09 -3.15786e-16)
(0.0282269 -6.28821e-09 -6.54603e-16)
(0.028227 -6.173e-09 -7.95e-16)
(0.028227 -5.72622e-09 -4.77173e-16)
(0.0282271 -5.31532e-09 -4.70752e-16)
(0.0282272 -4.09709e-09 -1.28221e-16)
(0.0282272 -2.98682e-09 -1.39484e-16)
(0.0282272 -1.01671e-09 -6.39821e-17)
(0.0282272 1.11745e-09 -1.95294e-17)
(0.0282272 9.85797e-10 -1.68327e-16)
(0.0282272 7.90029e-10 8.12884e-17)
(0.0282272 2.12937e-10 2.46947e-17)
(0.0282272 -7.07339e-10 9.66887e-17)
(0.0282272 -1.35622e-09 1.40898e-16)
(0.0282273 -1.81916e-09 -5.2679e-17)
(0.0282273 -2.17086e-09 1.64173e-16)
(0.0282273 -2.42051e-09 7.65254e-17)
(0.0282273 -2.56805e-09 3.8958e-16)
(0.0282274 -2.59933e-09 3.61957e-16)
(0.0282274 -2.50012e-09 1.48221e-16)
(0.0282274 -2.26468e-09 3.31146e-16)
(0.0282274 -1.89986e-09 1.91121e-16)
(0.0282274 -1.42604e-09 4.56972e-16)
(0.0282274 -8.74551e-10 4.09103e-16)
(0.0282275 -2.82706e-10 2.48939e-16)
(0.0282274 3.12304e-10 4.64042e-16)
(0.0282274 8.77982e-10 3.17408e-16)
(0.0282274 1.38927e-09 5.13043e-16)
(0.0282274 1.82896e-09 5.15232e-16)
(0.0282274 2.18757e-09 3.13344e-16)
(0.0282274 2.4623e-09 5.07649e-16)
(0.0282273 2.65485e-09 3.37759e-16)
(0.0282273 2.77039e-09 6.10184e-16)
(0.0282273 2.8159e-09 5.73798e-16)
(0.0282272 2.7994e-09 3.33593e-16)
(0.0282272 2.72951e-09 5.46032e-16)
(0.0282272 2.61478e-09 4.34543e-16)
(0.0282271 2.46384e-09 6.15041e-16)
(0.0282271 2.28472e-09 6.5336e-16)
(0.0282271 2.08536e-09 4.5859e-16)
(0.0282271 1.87245e-09 6.40884e-16)
(0.028227 1.65225e-09 4.69128e-16)
(0.028227 1.42922e-09 7.17484e-16)
(0.028227 1.20779e-09 5.38336e-16)
(0.028227 9.88546e-10 6.07012e-16)
(0.028227 7.75328e-10 6.32597e-16)
(0.028227 5.59961e-10 3.21936e-16)
(0.028227 3.56228e-10 4.97187e-16)
(0.028227 1.26762e-10 3.67654e-16)
(0.028227 -8.09059e-11 4.69541e-16)
(0.028227 -2.36175e-10 4.94504e-16)
(0.028227 -3.20447e-10 2.23628e-16)
(0.028227 -3.21147e-10 3.57682e-16)
(0.028227 -3.16276e-10 1.99948e-16)
(0.028227 -3.2646e-10 3.56206e-16)
(0.028227 -3.86961e-10 4.59918e-16)
(0.028227 -4.83466e-10 1.77063e-16)
(0.028227 -6.12493e-10 3.4513e-16)
(0.028227 -7.50708e-10 2.93234e-16)
(0.028227 -9.24729e-10 4.875e-16)
(0.028227 -1.04884e-09 4.73678e-16)
(0.028227 -1.22458e-09 1.69741e-16)
(0.028227 -1.13656e-09 3.75477e-16)
(0.0282271 -1.1497e-09 2.48367e-16)
(0.0282271 -4.14192e-10 4.48307e-16)
(0.0282271 1.45965e-10 4.43341e-16)
(0.0282271 1.57509e-09 1.15463e-16)
(0.0282271 3.04849e-09 3.50617e-16)
(0.028227 2.4728e-09 1.47858e-16)
(0.028227 2.00684e-09 3.51363e-16)
(0.028227 1.26086e-09 4.29975e-16)
(0.028227 3.94572e-10 1.45664e-16)
(0.028227 -3.83693e-10 2.98029e-16)
(0.028227 -1.06561e-09 1.52352e-16)
(0.028227 -1.56606e-09 8.63714e-17)
(0.028227 -1.90663e-09 4.14185e-16)
(0.028227 -1.91993e-09 2.44169e-16)
(0.0282271 -1.8365e-09 3.41508e-16)
(0.0282271 -9.58419e-10 1.4864e-16)
(0.0282271 -1.5757e-10 1.33508e-16)
(0.0282271 1.62661e-09 5.26561e-16)
(0.028227 7.44149e-09 3.27343e-16)
(0.028227 -1.53692e-09 5.37858e-16)
(0.036477 -7.74593e-09 6.96222e-16)
(0.0364769 9.39272e-09 4.86842e-16)
(0.0364768 2.00921e-08 5.12772e-16)
(0.0364766 2.44502e-08 1.14615e-16)
(0.0364764 2.64183e-08 2.2096e-16)
(0.0364762 2.59336e-08 2.73758e-16)
(0.036476 2.38118e-08 2.69526e-16)
(0.0364758 2.07559e-08 3.70662e-16)
(0.0364757 1.72964e-08 4.58587e-16)
(0.0364756 1.38054e-08 3.45049e-16)
(0.0364755 1.05224e-08 4.53347e-16)
(0.0364754 7.58124e-09 3.07829e-17)
(0.0364753 5.02313e-09 1.87572e-16)
(0.0364753 2.82092e-09 -1.90733e-16)
(0.0364753 9.17558e-10 -2.0173e-16)
(0.0364753 -7.38134e-10 1.74698e-16)
(0.0364753 -2.17568e-09 -1.73512e-16)
(0.0364753 -3.41388e-09 -3.03614e-17)
(0.0364754 -4.47364e-09 -4.21004e-16)
(0.0364754 -5.37857e-09 -4.94491e-16)
(0.0364755 -6.149e-09 1.013e-16)
(0.0364755 -6.79933e-09 -2.33006e-16)
(0.0364756 -7.34112e-09 -1.11547e-16)
(0.0364756 -7.78927e-09 -1.01313e-16)
(0.0364757 -8.16451e-09 -4.96426e-16)
(0.0364758 -8.49018e-09 1.1655e-16)
(0.0364758 -8.78628e-09 -2.52975e-17)
(0.0364759 -9.06644e-09 -1.47836e-16)
(0.036476 -9.33708e-09 -1.73449e-16)
(0.0364761 -9.59902e-09 -5.73049e-16)
(0.0364761 -9.84849e-09 1.60521e-17)
(0.0364762 -1.00799e-08 -1.48681e-16)
(0.0364763 -1.0285e-08 -2.06686e-16)
(0.0364764 -1.04594e-08 -2.09459e-16)
(0.0364765 -1.05937e-08 -5.51043e-16)
(0.0364766 -1.06932e-08 -5.44599e-17)
(0.0364766 -1.07303e-08 -2.40638e-16)
(0.0364767 -1.07306e-08 -3.32626e-16)
(0.0364768 -1.05728e-08 -3.18748e-16)
(0.0364769 -1.03721e-08 -6.62084e-16)
(0.036477 -9.6964e-09 -4.83372e-16)
(0.0364771 -9.01736e-09 -3.3118e-16)
(0.0364771 -7.17348e-09 -8.80134e-17)
(0.0364772 -5.39512e-09 -2.0157e-16)
(0.0364772 -2.33305e-09 -3.99542e-17)
(0.0364773 9.89886e-10 -1.31611e-17)
(0.0364773 1.09342e-09 7.19121e-17)
(0.0364773 8.976e-10 1.77806e-16)
(0.0364773 7.63574e-11 -5.77599e-18)
(0.0364773 -1.27652e-09 1.51555e-16)
(0.0364773 -2.2876e-09 1.82859e-16)
(0.0364773 -3.01893e-09 1.70915e-16)
(0.0364773 -3.56902e-09 2.64502e-16)
(0.0364774 -3.95425e-09 3.45391e-16)
(0.0364774 -4.17093e-09 5.34058e-16)
(0.0364774 -4.19487e-09 4.38275e-16)
(0.0364774 -4.00259e-09 4.43536e-16)
(0.0364775 -3.58529e-09 4.83673e-16)
(0.0364775 -2.95563e-09 5.09608e-16)
(0.0364775 -2.14892e-09 4.52316e-16)
(0.0364775 -1.2181e-09 4.98268e-16)
(0.0364775 -2.2573e-10 5.86744e-16)
(0.0364775 7.66279e-10 6.57732e-16)
(0.0364775 1.7043e-09 6.69189e-16)
(0.0364775 2.54678e-09 5.50587e-16)
(0.0364775 3.26571e-09 6.22194e-16)
(0.0364774 3.84633e-09 6.75087e-16)
(0.0364774 4.28484e-09 7.08458e-16)
(0.0364774 4.58545e-09 6.94348e-16)
(0.0364773 4.75812e-09 6.39857e-16)
(0.0364773 4.81596e-09 6.97331e-16)
(0.0364772 4.77343e-09 6.43888e-16)
(0.0364772 4.64563e-09 7.45349e-16)
(0.0364772 4.44701e-09 8.42363e-16)
(0.0364771 4.19163e-09 7.3004e-16)
(0.0364771 3.89217e-09 7.87166e-16)
(0.0364771 3.56062e-09 8.54073e-16)
(0.036477 3.20729e-09 8.80058e-16)
(0.036477 2.8416e-09 8.5592e-16)
(0.036477 2.4707e-09 7.42046e-16)
(0.036477 2.10157e-09 1.08496e-15)
(0.0364769 1.73625e-09 7.85528e-16)
(0.0364769 1.38063e-09 7.83932e-16)
(0.0364769 1.02479e-09 7.71069e-16)
(0.0364769 6.87149e-10 4.33654e-16)
(0.0364769 3.1641e-10 8.41205e-16)
(0.0364769 -2.12746e-11 4.35673e-16)
(0.0364769 -2.78613e-10 5.9947e-16)
(0.0364769 -4.23708e-10 6.58521e-16)
(0.0364769 -4.38471e-10 2.72107e-16)
(0.0364769 -4.34131e-10 6.33409e-16)
(0.0364769 -4.49779e-10 3.23664e-16)
(0.0364769 -5.41546e-10 5.55503e-16)
(0.0364769 -6.96599e-10 5.77285e-16)
(0.0364769 -9.10237e-10 4.00445e-16)
(0.0364769 -1.15397e-09 7.58673e-16)
(0.0364769 -1.45743e-09 6.59564e-16)
(0.0364769 -1.70732e-09 6.08087e-16)
(0.036477 -2.02233e-09 5.88781e-16)
(0.036477 -1.97271e-09 3.06421e-16)
(0.036477 -2.02006e-09 6.97496e-16)
(0.036477 -9.90518e-10 6.13951e-16)
(0.036477 -1.20275e-10 5.68783e-16)
(0.036477 2.04376e-09 5.05267e-16)
(0.036477 4.30772e-09 4.31061e-16)
(0.036477 3.66467e-09 5.34915e-16)
(0.036477 2.99276e-09 3.10538e-16)
(0.0364769 1.87304e-09 5.26665e-16)
(0.0364769 5.55424e-10 5.43474e-16)
(0.0364769 -6.60332e-10 3.71253e-16)
(0.0364769 -1.73152e-09 5.14219e-16)
(0.036477 -2.53027e-09 5.46689e-16)
(0.036477 -3.07562e-09 6.41266e-16)
(0.036477 -3.12286e-09 6.80988e-16)
(0.036477 -2.99442e-09 5.0405e-16)
(0.0364771 -1.6614e-09 6.05685e-16)
(0.0364771 -4.44834e-10 6.36188e-16)
(0.0364771 2.52857e-09 7.83707e-16)
(0.036477 1.07327e-08 7.88804e-16)
(0.036477 -5.3016e-10 4.75224e-16)
(0.0444794 -6.09252e-09 8.94806e-16)
(0.0444793 1.50342e-08 5.704e-16)
(0.0444791 2.98112e-08 6.29426e-16)
(0.0444789 3.64185e-08 5.21237e-16)
(0.0444787 3.90819e-08 4.87854e-16)
(0.0444785 3.82444e-08 4.69131e-16)
(0.0444783 3.50631e-08 4.81072e-16)
(0.0444781 3.05548e-08 5.4673e-16)
(0.0444779 2.54789e-08 5.99649e-16)
(0.0444778 2.03556e-08 5.407e-16)
(0.0444776 1.55159e-08 6.34452e-16)
(0.0444776 1.11522e-08 2.32185e-16)
(0.0444775 7.33979e-09 2.86837e-16)
(0.0444775 4.06125e-09 -5.2587e-17)
(0.0444775 1.24542e-09 -1.11031e-16)
(0.0444775 -1.18593e-09 3.5033e-16)
(0.0444775 -3.2893e-09 -8.37238e-20)
(0.0444775 -5.10413e-09 2.27829e-17)
(0.0444775 -6.66663e-09 -3.40034e-16)
(0.0444776 -8.01288e-09 -3.97694e-16)
(0.0444776 -9.17301e-09 -9.85822e-17)
(0.0444777 -1.01672e-08 -6.75695e-17)
(0.0444778 -1.10079e-08 1.40895e-18)
(0.0444778 -1.17095e-08 -2.04026e-16)
(0.0444779 -1.22935e-08 -2.9035e-16)
(0.044478 -1.27886e-08 -8.00942e-18)
(0.0444781 -1.32241e-08 -1.80542e-16)
(0.0444782 -1.36242e-08 -1.55997e-16)
(0.0444782 -1.40049e-08 -2.97168e-16)
(0.0444783 -1.43738e-08 -3.54309e-16)
(0.0444784 -1.47303e-08 -8.85157e-17)
(0.0444785 -1.5069e-08 -2.76737e-16)
(0.0444786 -1.53782e-08 -2.18259e-16)
(0.0444787 -1.56484e-08 -4.08552e-16)
(0.0444788 -1.58628e-08 -4.22305e-16)
(0.0444789 -1.60221e-08 -1.60699e-16)
(0.044479 -1.60885e-08 -3.45458e-16)
(0.0444791 -1.60887e-08 -3.65429e-16)
(0.0444792 -1.58716e-08 -4.92415e-16)
(0.0444793 -1.55714e-08 -4.93818e-16)
(0.0444794 -1.46444e-08 -4.19386e-16)
(0.0444795 -1.36592e-08 -1.77056e-16)
(0.0444796 -1.11382e-08 -9.95128e-18)
(0.0444797 -8.60536e-09 -1.56778e-17)
(0.0444797 -4.33307e-09 3.97906e-17)
(0.0444797 3.2431e-10 3.34956e-18)
(0.0444797 8.28568e-10 2.06875e-16)
(0.0444798 7.3781e-10 3.03785e-16)
(0.0444798 -2.85544e-10 2.06002e-16)
(0.0444798 -2.05866e-09 2.53331e-16)
(0.0444798 -3.44958e-09 2.25884e-16)
(0.0444798 -4.47467e-09 5.12182e-16)
(0.0444798 -5.24108e-09 3.86312e-16)
(0.0444799 -5.76928e-09 7.23143e-16)
(0.0444799 -6.04844e-09 7.00541e-16)
(0.0444799 -6.04186e-09 4.84447e-16)
(0.04448 -5.71552e-09 6.39858e-16)
(0.04448 -5.05829e-09 6.54783e-16)
(0.04448 -4.09142e-09 7.73396e-16)
(0.04448 -2.86955e-09 7.99667e-16)
(0.0444801 -1.47229e-09 5.80872e-16)
(0.04448 7.60324e-12 8.09046e-16)
(0.04448 1.47885e-09 8.64238e-16)
(0.04448 2.8626e-09 9.64443e-16)
(0.04448 4.09806e-09 9.14508e-16)
(0.04448 5.14501e-09 7.29132e-16)
(0.0444799 5.98263e-09 9.04247e-16)
(0.0444799 6.6067e-09 9.34017e-16)
(0.0444798 7.0252e-09 1.15301e-15)
(0.0444798 7.25461e-09 1.01978e-15)
(0.0444797 7.31616e-09 7.99488e-16)
(0.0444797 7.23279e-09 9.1726e-16)
(0.0444796 7.02776e-09 9.55034e-16)
(0.0444796 6.72304e-09 1.28348e-15)
(0.0444796 6.33876e-09 1.10581e-15)
(0.0444795 5.89296e-09 9.34437e-16)
(0.0444795 5.40193e-09 1.26524e-15)
(0.0444795 4.87967e-09 1.12648e-15)
(0.0444794 4.33891e-09 1.20163e-15)
(0.0444794 3.78959e-09 1.1023e-15)
(0.0444794 3.24167e-09 1.63053e-15)
(0.0444794 2.69919e-09 8.43091e-16)
(0.0444793 2.17076e-09 9.56342e-16)
(0.0444793 1.6454e-09 1.20204e-15)
(0.0444793 1.14651e-09 7.30072e-16)
(0.0444793 6.09288e-10 1.41219e-15)
(0.0444793 1.18378e-10 7.88119e-16)
(0.0444793 -2.61493e-10 7.44045e-16)
(0.0444793 -4.8324e-10 1.09581e-15)
(0.0444793 -5.21877e-10 4.57546e-16)
(0.0444793 -5.22051e-10 1.09633e-15)
(0.0444793 -5.44758e-10 6.2985e-16)
(0.0444793 -6.72013e-10 7.12627e-16)
(0.0444793 -8.96632e-10 9.38086e-16)
(0.0444793 -1.21629e-09 5.36216e-16)
(0.0444793 -1.59769e-09 1.28229e-15)
(0.0444793 -2.07388e-09 8.33689e-16)
(0.0444793 -2.50075e-09 7.85581e-16)
(0.0444794 -3.0104e-09 9.78795e-16)
(0.0444794 -3.05362e-09 3.17709e-16)
(0.0444794 -3.17649e-09 1.179e-15)
(0.0444794 -1.87956e-09 6.38147e-16)
(0.0444794 -6.86958e-10 7.22067e-16)
(0.0444794 2.25975e-09 8.72201e-16)
(0.0444794 5.39428e-09 4.10264e-16)
(0.0444794 4.78693e-09 9.29625e-16)
(0.0444794 3.96043e-09 5.6537e-16)
(0.0444794 2.46943e-09 6.71107e-16)
(0.0444794 6.8436e-10 9.04959e-16)
(0.0444794 -1.00354e-09 5.132e-16)
(0.0444794 -2.50358e-09 1.03559e-15)
(0.0444794 -3.63887e-09 9.73439e-16)
(0.0444794 -4.41784e-09 8.93996e-16)
(0.0444795 -4.51928e-09 1.09808e-15)
(0.0444795 -4.33957e-09 6.41854e-16)
(0.0444795 -2.53859e-09 1.14034e-15)
(0.0444795 -8.49434e-10 1.13896e-15)
(0.0444795 3.47957e-09 1.06047e-15)
(0.0444795 1.39674e-08 1.20823e-15)
(0.0444794 1.6303e-09 4.89284e-16)
(0.0519092 -1.62063e-09 1.16123e-15)
(0.0519091 2.26216e-08 8.96999e-16)
(0.0519089 4.08563e-08 7.99868e-16)
(0.0519087 4.96352e-08 7.53715e-16)
(0.0519084 5.29471e-08 7.28814e-16)
(0.0519082 5.17016e-08 6.88695e-16)
(0.051908 4.73883e-08 6.9415e-16)
(0.0519078 4.13372e-08 7.29599e-16)
(0.0519076 3.45404e-08 7.50006e-16)
(0.0519074 2.76681e-08 7.19683e-16)
(0.0519073 2.11435e-08 8.07674e-16)
(0.0519072 1.52194e-08 3.40923e-16)
(0.0519072 1.00134e-08 4.09739e-16)
(0.0519071 5.52791e-09 2.92408e-17)
(0.0519071 1.68605e-09 -9.52577e-18)
(0.0519071 -1.61613e-09 5.17302e-16)
(0.0519071 -4.46673e-09 -6.50674e-17)
(0.0519072 -6.93148e-09 9.20364e-17)
(0.0519072 -9.06508e-09 -3.04168e-16)
(0.0519072 -1.09175e-08 -2.82691e-16)
(0.0519073 -1.25293e-08 -1.9806e-16)
(0.0519074 -1.39271e-08 7.35137e-17)
(0.0519074 -1.51243e-08 1.22e-16)
(0.0519075 -1.61324e-08 -3.47751e-16)
(0.0519076 -1.69718e-08 -1.11321e-16)
(0.0519077 -1.76742e-08 -2.63453e-17)
(0.0519078 -1.82781e-08 -4.27485e-16)
(0.0519079 -1.88196e-08 -1.68628e-16)
(0.0519079 -1.93269e-08 -4.61739e-16)
(0.051908 -1.98169e-08 -1.51459e-16)
(0.0519081 -2.02949e-08 -1.04486e-16)
(0.0519082 -2.07566e-08 -3.57921e-16)
(0.0519083 -2.11875e-08 -2.2322e-16)
(0.0519084 -2.15726e-08 -5.86471e-16)
(0.0519086 -2.18864e-08 -2.88839e-16)
(0.0519087 -2.21229e-08 -1.93994e-16)
(0.0519088 -2.22322e-08 -4.80281e-16)
(0.0519089 -2.22415e-08 -3.883e-16)
(0.051909 -2.19694e-08 -5.91591e-16)
(0.0519091 -2.15684e-08 -3.23994e-16)
(0.0519092 -2.03867e-08 -3.16914e-16)
(0.0519093 -1.9081e-08 2.52903e-17)
(0.0519094 -1.58692e-08 8.43673e-17)
(0.0519095 -1.25423e-08 1.24066e-16)
(0.0519095 -7.00467e-09 1.13671e-16)
(0.0519096 -9.29195e-10 4.16558e-17)
(0.0519096 1.20872e-10 4.32277e-16)
(0.0519096 2.56403e-10 3.93557e-16)
(0.0519096 -8.90892e-10 3.61486e-16)
(0.0519096 -3.03343e-09 3.41428e-16)
(0.0519097 -4.78774e-09 2.72202e-16)
(0.0519097 -6.10837e-09 5.76767e-16)
(0.0519097 -7.09396e-09 4.99852e-16)
(0.0519097 -7.76151e-09 8.10481e-16)
(0.0519098 -8.08856e-09 8.4572e-16)
(0.0519098 -8.02395e-09 4.81376e-16)
(0.0519099 -7.52391e-09 8.92426e-16)
(0.0519099 -6.5773e-09 7.85709e-16)
(0.0519099 -5.21778e-09 1.04558e-15)
(0.0519099 -3.52285e-09 1.00412e-15)
(0.0519099 -1.60222e-09 6.26933e-16)
(0.0519099 4.18894e-10 1.09495e-15)
(0.0519099 2.41787e-09 1.0161e-15)
(0.0519099 4.28905e-09 1.26578e-15)
(0.0519099 5.95169e-09 1.16939e-15)
(0.0519098 7.3527e-09 7.98952e-16)
(0.0519098 8.46552e-09 1.22088e-15)
(0.0519097 9.28574e-09 1.10227e-15)
(0.0519097 9.82585e-09 1.31815e-15)
(0.0519096 1.01099e-08 1.23729e-15)
(0.0519096 1.01682e-08 8.52845e-16)
(0.0519095 1.00336e-08 1.20484e-15)
(0.0519095 9.7385e-09 1.15184e-15)
(0.0519094 9.31309e-09 1.47457e-15)
(0.0519094 8.78439e-09 1.39417e-15)
(0.0519093 8.17593e-09 1.02238e-15)
(0.0519093 7.50846e-09 1.43978e-15)
(0.0519093 6.79961e-09 1.30767e-15)