/*--------------------------------*- C++ -*----------------------------------*\
  =========                 |
  \\      /  F ield         | OpenFOAM: The Open Source CFD Toolbox
   \\    /   O peration     | Website:  https://openfoam.org
    \\  /    A nd           | Version:  7
     \\/     M anipulation  |
\*---------------------------------------------------------------------------*/
FoamFile
{
    version     2.0;
    format      ascii;
    class       volVectorField;
    location    "3000";
    object      U;
}
// * * * * * * * * * * * * * * * * * * * * * * * * * * * * * * * * * * * * * //

dimensions      [0 1 -1 0 0 0 0];

internalField   nonuniform List<vector> 
3974
(
(0.122878 3.50513e-08 2.1962e-15)
(0.122878 3.47235e-08 2.22559e-15)
(0.122878 3.35711e-08 2.10492e-15)
(0.122878 3.20158e-08 2.20244e-15)
(0.122878 3.04352e-08 2.17509e-15)
(0.122878 2.91095e-08 2.17881e-15)
(0.122878 2.81938e-08 2.12552e-15)
(0.122878 2.77518e-08 2.02256e-15)
(0.122878 2.77804e-08 2.12372e-15)
(0.122878 2.82284e-08 2.08063e-15)
(0.122878 2.90106e-08 2.09585e-15)
(0.122878 3.00198e-08 2.06747e-15)
(0.122878 3.1139e-08 2.02892e-15)
(0.122878 3.2253e-08 2.08962e-15)
(0.122878 3.32601e-08 2.01876e-15)
(0.122878 3.40787e-08 2.06807e-15)
(0.122878 3.46507e-08 2.04947e-15)
(0.122878 3.49413e-08 1.99971e-15)
(0.122878 3.4936e-08 2.0658e-15)
(0.122878 3.46375e-08 1.99725e-15)
(0.122878 3.40619e-08 2.0611e-15)
(0.122878 3.32347e-08 2.03771e-15)
(0.122878 3.21876e-08 1.96688e-15)
(0.122878 3.09556e-08 2.01963e-15)
(0.122879 2.95735e-08 1.95422e-15)
(0.122879 2.80744e-08 2.00495e-15)
(0.122879 2.64883e-08 2.00348e-15)
(0.122879 2.48404e-08 1.89636e-15)
(0.122879 2.31511e-08 1.99842e-15)
(0.122879 2.14361e-08 1.934e-15)
(0.122879 1.9703e-08 1.99238e-15)
(0.122879 1.7962e-08 2.05675e-15)
(0.122879 1.61976e-08 1.96435e-15)
(0.122879 1.44502e-08 2.04059e-15)
(0.122879 1.2601e-08 2.06154e-15)
(0.122879 1.10169e-08 1.97436e-15)
(0.122879 8.8462e-09 2.03311e-15)
(0.122879 1.04772e-08 1.92617e-15)
(0.123983 2.53081e-08 2.47378e-15)
(0.123983 2.78616e-08 2.43446e-15)
(0.123984 2.67888e-08 2.45177e-15)
(0.123984 2.72221e-08 2.47576e-15)
(0.123984 2.72513e-08 2.37985e-15)
(0.123984 2.64517e-08 2.42656e-15)
(0.123984 2.53714e-08 2.38582e-15)
(0.123984 2.44097e-08 2.40607e-15)
(0.123984 2.37748e-08 2.39293e-15)
(0.123984 2.35571e-08 2.29999e-15)
(0.123984 2.37706e-08 2.34319e-15)
(0.123984 2.43766e-08 2.29187e-15)
(0.123984 2.52997e-08 2.32121e-15)
(0.123984 2.64409e-08 2.32565e-15)
(0.123984 2.76892e-08 2.2566e-15)
(0.123984 2.8934e-08 2.3068e-15)
(0.123984 3.0076e-08 2.26169e-15)
(0.123984 3.10352e-08 2.29079e-15)
(0.123984 3.1754e-08 2.30632e-15)
(0.123984 3.21972e-08 2.21817e-15)
(0.123984 3.23503e-08 2.26978e-15)
(0.123984 3.22153e-08 2.23089e-15)
(0.123984 3.18076e-08 2.27645e-15)
(0.123984 3.11519e-08 2.28015e-15)
(0.123984 3.02795e-08 2.17322e-15)
(0.123984 2.92243e-08 2.22005e-15)
(0.123984 2.80208e-08 2.1904e-15)
(0.123984 2.67012e-08 2.2198e-15)
(0.123984 2.52945e-08 2.24581e-15)
(0.123984 2.38252e-08 2.14209e-15)
(0.123984 2.23126e-08 2.19643e-15)
(0.123984 2.07712e-08 2.16058e-15)
(0.123984 1.92077e-08 2.19533e-15)
(0.123984 1.76313e-08 2.26478e-15)
(0.123984 1.60245e-08 2.227e-15)
(0.123984 1.44328e-08 2.24918e-15)
(0.123984 1.27077e-08 2.26604e-15)
(0.123984 1.13582e-08 2.22078e-15)
(0.123984 8.98121e-09 2.24339e-15)
(0.123984 1.25702e-08 2.18345e-15)
(0.123984 1.56492e-08 2.20222e-15)
(0.123984 1.36352e-08 2.23059e-15)
(0.125056 1.14525e-08 2.78939e-15)
(0.125056 1.77786e-08 2.68074e-15)
(0.125056 2.30942e-08 2.69622e-15)
(0.125056 2.37309e-08 2.74582e-15)
(0.125056 2.09677e-08 2.71249e-15)
(0.125056 2.15882e-08 2.72728e-15)
(0.125056 2.16052e-08 2.60615e-15)
(0.125056 2.10078e-08 2.66368e-15)
(0.125056 2.02068e-08 2.61596e-15)
(0.125056 1.9513e-08 2.64752e-15)
(0.125056 1.91171e-08 2.65412e-15)
(0.125057 1.91095e-08 2.53361e-15)
(0.125057 1.9509e-08 2.57459e-15)
(0.125057 2.02828e-08 2.51505e-15)
(0.125057 2.13616e-08 2.56264e-15)
(0.125057 2.26521e-08 2.58045e-15)
(0.125057 2.40483e-08 2.49263e-15)
(0.125057 2.54436e-08 2.53664e-15)
(0.125057 2.67408e-08 2.45851e-15)
(0.125057 2.78609e-08 2.51838e-15)
(0.125057 2.87464e-08 2.55378e-15)
(0.125057 2.93621e-08 2.43996e-15)
(0.125057 2.96928e-08 2.48924e-15)
(0.125057 2.97401e-08 2.43351e-15)
(0.125057 2.95186e-08 2.50025e-15)
(0.125057 2.90524e-08 2.52079e-15)
(0.125057 2.83718e-08 2.39289e-15)
(0.125057 2.75103e-08 2.43439e-15)
(0.125057 2.65014e-08 2.38655e-15)
(0.125057 2.53767e-08 2.44341e-15)
(0.125057 2.41644e-08 2.48377e-15)
(0.125057 2.28879e-08 2.36537e-15)
(0.125057 2.15654e-08 2.4073e-15)
(0.125057 2.02105e-08 2.34895e-15)
(0.125057 1.88289e-08 2.41198e-15)
(0.125057 1.74287e-08 2.48352e-15)
(0.125057 1.59911e-08 2.47514e-15)
(0.125057 1.45637e-08 2.46799e-15)
(0.125057 1.29823e-08 2.47269e-15)
(0.125057 1.18105e-08 2.45166e-15)
(0.125057 9.52197e-09 2.46045e-15)
(0.125057 1.25606e-08 2.42833e-15)
(0.125057 1.69216e-08 2.4236e-15)
(0.125057 1.93895e-08 2.43647e-15)
(0.125057 1.84457e-08 2.41768e-15)
(0.125057 8.93744e-09 2.43399e-15)
(0.125057 -1.23043e-09 2.42382e-15)
(0.125057 -1.01175e-08 2.44458e-15)
(0.125057 -1.80272e-08 2.47466e-15)
(0.125057 -2.53967e-08 2.46534e-15)
(0.125057 -3.23945e-08 2.48173e-15)
(0.125056 -3.91213e-08 2.46417e-15)
(0.125056 -4.51283e-08 2.47763e-15)
(0.125056 -5.06525e-08 2.50579e-15)
(0.125056 -5.33924e-08 2.49417e-15)
(0.125056 -5.57384e-08 2.50925e-15)
(0.125056 -4.73561e-08 2.49478e-15)
(0.125056 -4.13246e-08 2.50633e-15)
(0.125056 9.75509e-10 2.53331e-15)
(0.126098 1.54402e-08 3.02777e-15)
(0.126098 2.03879e-08 2.81363e-15)
(0.126097 2.32272e-08 2.93767e-15)
(0.126097 2.40363e-08 2.97434e-15)
(0.126097 2.01574e-08 2.95853e-15)
(0.126097 1.85169e-08 2.9816e-15)
(0.126098 1.73656e-08 2.84095e-15)
(0.126098 1.63653e-08 2.91289e-15)
(0.126098 1.54881e-08 2.79491e-15)
(0.126098 1.48509e-08 2.90557e-15)
(0.126098 1.45667e-08 2.9096e-15)
(0.126098 1.4692e-08 2.76099e-15)
(0.126098 1.52312e-08 2.81649e-15)
(0.126098 1.6146e-08 2.73458e-15)
(0.126098 1.73665e-08 2.82109e-15)
(0.126098 1.88009e-08 2.83087e-15)
(0.126098 2.03456e-08 2.70696e-15)
(0.126098 2.18957e-08 2.78234e-15)
(0.126098 2.33554e-08 2.67176e-15)
(0.126098 2.46458e-08 2.76533e-15)
(0.126098 2.5709e-08 2.79616e-15)
(0.126098 2.65092e-08 2.65535e-15)
(0.126098 2.70305e-08 2.72178e-15)
(0.126098 2.72733e-08 2.64745e-15)
(0.126098 2.72516e-08 2.74037e-15)
(0.126098 2.69885e-08 2.75962e-15)
(0.126098 2.65135e-08 2.6025e-15)
(0.126098 2.5859e-08 2.66517e-15)
(0.126098 2.50579e-08 2.58911e-15)
(0.126098 2.41409e-08 2.68695e-15)
(0.126098 2.31353e-08 2.71898e-15)
(0.126098 2.20634e-08 2.57465e-15)
(0.126098 2.09426e-08 2.63411e-15)
(0.126098 1.97854e-08 2.51004e-15)
(0.126098 1.85965e-08 2.64738e-15)
(0.126098 1.73828e-08 2.71241e-15)
(0.126098 1.61249e-08 2.71398e-15)
(0.126098 1.4869e-08 2.68766e-15)
(0.126098 1.34519e-08 2.67988e-15)
(0.126098 1.23961e-08 2.67519e-15)
(0.126098 1.04991e-08 2.67993e-15)
(0.126098 1.09811e-08 2.6655e-15)
(0.126098 1.43623e-08 2.64981e-15)
(0.126098 1.97101e-08 2.64846e-15)
(0.126098 2.24141e-08 2.6427e-15)
(0.126098 1.65911e-08 2.65267e-15)
(0.126098 7.38281e-09 2.65802e-15)
(0.126098 -1.79993e-09 2.66954e-15)
(0.126098 -1.02576e-08 2.68455e-15)
(0.126098 -1.81401e-08 2.68785e-15)
(0.126098 -2.55865e-08 2.70203e-15)
(0.126098 -3.27082e-08 2.7039e-15)
(0.126098 -3.9088e-08 2.7036e-15)
(0.126098 -4.49577e-08 2.71734e-15)
(0.126098 -4.80556e-08 2.71868e-15)
(0.126098 -5.07699e-08 2.73071e-15)
(0.126098 -4.25818e-08 2.73216e-15)
(0.126098 -3.72179e-08 2.73028e-15)
(0.126097 6.7452e-09 2.74339e-15)
(0.127109 1.74027e-08 3.26179e-15)
(0.127109 2.49984e-08 3.17901e-15)
(0.127109 2.70974e-08 3.207e-15)
(0.127109 2.61771e-08 3.20255e-15)
(0.127109 2.1121e-08 3.19982e-15)
(0.127109 1.75552e-08 3.24174e-15)
(0.127109 1.48746e-08 3.13165e-15)
(0.127109 1.29648e-08 3.18603e-15)
(0.127109 1.16218e-08 3.13196e-15)
(0.127109 1.07754e-08 3.19043e-15)
(0.127109 1.04236e-08 3.15249e-15)
(0.127109 1.05605e-08 3.04643e-15)
(0.127109 1.11566e-08 3.07782e-15)
(0.127109 1.21561e-08 3.02455e-15)
(0.127109 1.34802e-08 3.10799e-15)
(0.127109 1.50331e-08 3.07059e-15)
(0.127109 1.671e-08 2.98884e-15)
(0.127109 1.84054e-08 3.05414e-15)
(0.127109 2.0023e-08 2.95829e-15)
(0.127109 2.1483e-08 3.05394e-15)
(0.127109 2.27263e-08 3.0294e-15)
(0.127109 2.37157e-08 2.93475e-15)
(0.127109 2.44338e-08 2.97345e-15)
(0.127109 2.488e-08 2.9195e-15)
(0.127109 2.50668e-08 3.01866e-15)
(0.127109 2.50161e-08 2.98899e-15)
(0.127109 2.47563e-08 2.87695e-15)
(0.127109 2.43187e-08 2.91907e-15)
(0.127109 2.37354e-08 2.87078e-15)
(0.127109 2.30358e-08 2.9631e-15)
(0.127109 2.22465e-08 2.94551e-15)
(0.127109 2.13887e-08 2.84707e-15)
(0.127109 2.0479e-08 2.88885e-15)
(0.127109 1.95285e-08 2.82458e-15)
(0.127109 1.85414e-08 2.91985e-15)
(0.127109 1.7523e-08 2.94613e-15)
(0.127109 1.64539e-08 2.94611e-15)
(0.127109 1.53755e-08 2.90553e-15)
(0.127109 1.41397e-08 2.88765e-15)
(0.127109 1.31648e-08 2.8967e-15)
(0.127109 1.17279e-08 2.90059e-15)
(0.127109 1.04639e-08 2.89921e-15)
(0.127109 1.2206e-08 2.87807e-15)
(0.127109 1.66754e-08 2.86369e-15)
(0.127109 2.07637e-08 2.86768e-15)
(0.127109 1.99195e-08 2.87331e-15)
(0.127109 1.36539e-08 2.89016e-15)
(0.127109 5.43829e-09 2.8984e-15)
(0.127109 -2.92432e-09 2.89921e-15)
(0.127109 -1.09887e-08 2.91155e-15)
(0.127109 -1.8694e-08 2.9253e-15)
(0.127109 -2.60915e-08 2.94131e-15)
(0.127109 -3.2769e-08 2.92551e-15)
(0.127109 -3.89354e-08 2.93322e-15)
(0.127109 -4.23784e-08 2.9447e-15)
(0.127109 -4.54449e-08 2.95511e-15)
(0.127109 -3.75673e-08 2.96848e-15)
(0.127109 -3.28176e-08 2.95868e-15)
(0.127109 1.13738e-08 2.95856e-15)
(0.128092 1.7558e-08 3.4893e-15)
(0.128092 2.84871e-08 3.45157e-15)
(0.128092 3.10751e-08 3.50361e-15)
(0.128092 2.91482e-08 3.43297e-15)
(0.128092 2.31913e-08 3.46369e-15)
(0.128092 1.81681e-08 3.4701e-15)
(0.128092 1.39867e-08 3.43235e-15)
(0.128092 1.09195e-08 3.45474e-15)
(0.128092 8.81736e-09 3.41752e-15)
(0.128092 7.51399e-09 3.52738e-15)
(0.128092 6.90589e-09 3.37337e-15)
(0.128092 6.91468e-09 3.33005e-15)
(0.128092 7.46537e-09 3.42107e-15)
(0.128092 8.47452e-09 3.30677e-15)
(0.128092 9.84719e-09 3.43851e-15)
(0.128092 1.14785e-08 3.28854e-15)
(0.128092 1.32583e-08 3.25625e-15)
(0.128092 1.50782e-08 3.30032e-15)
(0.128092 1.68393e-08 3.25236e-15)
(0.128092 1.84596e-08 3.42151e-15)
(0.128092 1.98778e-08 3.24551e-15)
(0.128092 2.10544e-08 3.21008e-15)
(0.128092 2.197e-08 3.23001e-15)
(0.128092 2.26221e-08 3.20629e-15)
(0.128092 2.30214e-08 3.30664e-15)
(0.128092 2.31882e-08 3.20026e-15)
(0.128092 2.31496e-08 3.14927e-15)
(0.128092 2.29355e-08 3.17404e-15)
(0.128092 2.25766e-08 3.14899e-15)
(0.128092 2.21016e-08 3.24871e-15)
(0.128092 2.15357e-08 3.15305e-15)
(0.128092 2.08993e-08 3.11553e-15)
(0.128092 2.02079e-08 3.21503e-15)
(0.128092 1.94714e-08 3.10831e-15)
(0.128092 1.86934e-08 3.20534e-15)
(0.128092 1.78775e-08 3.17594e-15)
(0.128092 1.70048e-08 3.17277e-15)
(0.128092 1.6109e-08 3.0923e-15)
(0.128092 1.50665e-08 3.098e-15)
(0.128092 1.41642e-08 3.12042e-15)
(0.128092 1.31392e-08 3.12176e-15)
(0.128092 1.09457e-08 3.13254e-15)
(0.128092 1.11103e-08 3.07185e-15)
(0.128092 1.40369e-08 3.08162e-15)
(0.128092 1.79754e-08 3.09551e-15)
(0.128092 2.02699e-08 3.09482e-15)
(0.128092 1.7254e-08 3.12395e-15)
(0.128092 1.09495e-08 3.13361e-15)
(0.128092 3.41667e-09 3.11717e-15)
(0.128092 -4.37407e-09 3.13944e-15)
(0.128092 -1.2058e-08 3.15034e-15)
(0.128092 -1.95487e-08 3.17967e-15)
(0.128092 -2.64021e-08 3.1305e-15)
(0.128092 -3.27807e-08 3.15138e-15)
(0.128092 -3.65292e-08 3.17498e-15)
(0.128092 -3.99092e-08 3.18113e-15)
(0.128092 -3.24492e-08 3.20557e-15)
(0.128092 -2.82571e-08 3.15581e-15)
(0.128092 1.51773e-08 3.1783e-15)
(0.129047 1.63319e-08 3.71648e-15)
(0.129047 3.05027e-08 3.71469e-15)
(0.129047 3.43242e-08 3.72584e-15)
(0.129047 3.22336e-08 3.6451e-15)
(0.129047 2.5788e-08 3.64841e-15)
(0.129047 1.97466e-08 3.71699e-15)
(0.129047 1.4313e-08 3.70605e-15)
(0.129047 1.00874e-08 3.7178e-15)
(0.129047 7.08779e-09 3.69249e-15)
(0.129047 5.15581e-09 3.70622e-15)
(0.129047 4.13389e-09 3.64302e-15)
(0.129047 3.88433e-09 3.609e-15)
(0.129047 4.28616e-09 3.59965e-15)
(0.129047 5.22429e-09 3.57862e-15)
(0.129047 6.58307e-09 3.61308e-15)
(0.129047 8.24449e-09 3.55282e-15)
(0.129047 1.00901e-08 3.52729e-15)
(0.129048 1.2006e-08 3.56093e-15)
(0.129048 1.38892e-08 3.52389e-15)
(0.129048 1.56541e-08 3.56694e-15)
(0.129048 1.7236e-08 3.50911e-15)
(0.129048 1.85925e-08 3.48581e-15)
(0.129048 1.97013e-08 3.48266e-15)
(0.129048 2.05573e-08 3.47715e-15)
(0.129048 2.11691e-08 3.52171e-15)
(0.129048 2.1555e-08 3.46281e-15)
(0.129048 2.17401e-08 3.42283e-15)
(0.129048 2.17529e-08 3.42555e-15)
(0.129048 2.16226e-08 3.41696e-15)
(0.129048 2.13766e-08 3.45995e-15)
(0.129048 2.10389e-08 3.41063e-15)
(0.129048 2.06289e-08 3.38532e-15)
(0.129048 2.01609e-08 3.39166e-15)
(0.129048 1.9644e-08 3.37604e-15)
(0.129048 1.90806e-08 3.42101e-15)
(0.129048 1.84727e-08 3.38301e-15)
(0.129048 1.78023e-08 3.39698e-15)
(0.129048 1.70937e-08 3.3568e-15)
(0.129048 1.62513e-08 3.31214e-15)
(0.129048 1.54312e-08 3.35078e-15)
(0.129048 1.47318e-08 3.34209e-15)
(0.129048 1.2157e-08 3.36917e-15)
(0.129048 1.11158e-08 3.34646e-15)
(0.129048 1.24907e-08 3.30028e-15)
(0.129048 1.54439e-08 3.32955e-15)
(0.129048 1.91264e-08 3.31574e-15)
(0.129048 1.87312e-08 3.36339e-15)
(0.129048 1.46421e-08 3.37125e-15)
(0.129048 8.47286e-09 3.33584e-15)
(0.129048 1.4001e-09 3.37501e-15)
(0.129048 -5.9485e-09 3.37587e-15)
(0.129047 -1.33143e-08 3.42129e-15)
(0.129047 -2.01916e-08 3.40395e-15)
(0.129047 -2.66728e-08 3.37739e-15)
(0.129047 -3.0667e-08 3.41213e-15)
(0.129047 -3.43068e-08 3.40717e-15)
(0.129047 -2.73535e-08 3.4465e-15)
(0.129047 -2.3705e-08 3.43542e-15)
(0.129047 1.84293e-08 3.40072e-15)
(0.129977 1.41588e-08 3.94628e-15)
(0.129977 3.11879e-08 3.97517e-15)
(0.129977 3.65119e-08 3.95909e-15)
(0.129977 3.48476e-08 3.83847e-15)
(0.129977 2.83491e-08 3.86411e-15)
(0.129977 2.17205e-08 3.94489e-15)
(0.129977 1.5386e-08 3.97733e-15)
(0.129977 1.01729e-08 3.96398e-15)
(0.129977 6.2905e-09 3.9588e-15)
(0.129977 3.66116e-09 3.91971e-15)
(0.129977 2.12823e-09 3.88885e-15)
(0.129977 1.52288e-09 3.88065e-15)
(0.129977 1.68918e-09 3.84881e-15)
(0.129977 2.48312e-09 3.8432e-15)
(0.129977 3.76776e-09 3.81572e-15)
(0.129977 5.4103e-09 3.79366e-15)
(0.129977 7.2822e-09 3.79572e-15)
(0.129977 9.26239e-09 3.78551e-15)
(0.129977 1.12425e-08 3.78578e-15)
(0.129977 1.31323e-08 3.77485e-15)
(0.129977 1.48631e-08 3.75473e-15)
(0.129977 1.63883e-08 3.75618e-15)
(0.129977 1.76824e-08 3.72436e-15)
(0.129977 1.87372e-08 3.74057e-15)
(0.129977 1.95583e-08 3.73471e-15)
(0.129977 2.01617e-08 3.7062e-15)
(0.129977 2.05703e-08 3.693e-15)
(0.129977 2.08108e-08 3.66197e-15)
(0.129977 2.09106e-08 3.67715e-15)
(0.129977 2.08957e-08 3.6635e-15)
(0.129977 2.07889e-08 3.64761e-15)
(0.129977 2.06083e-08 3.65155e-15)
(0.129977 2.03672e-08 3.62571e-15)
(0.129977 2.00733e-08 3.63937e-15)
(0.129977 1.97285e-08 3.63241e-15)
(0.129977 1.93327e-08 3.57236e-15)
(0.129977 1.8869e-08 3.62491e-15)
(0.129977 1.83512e-08 3.58793e-15)
(0.129977 1.77119e-08 3.52493e-15)
(0.129977 1.69919e-08 3.59253e-15)
(0.129977 1.65351e-08 3.55813e-15)
(0.129977 1.39155e-08 3.61553e-15)
(0.129977 1.20978e-08 3.58389e-15)
(0.129977 1.21625e-08 3.51528e-15)
(0.129977 1.38398e-08 3.57455e-15)
(0.129977 1.76912e-08 3.53274e-15)
(0.129977 1.89598e-08 3.61359e-15)
(0.129977 1.68566e-08 3.61143e-15)
(0.129977 1.22556e-08 3.55063e-15)
(0.129977 6.21206e-09 3.62301e-15)
(0.129977 -5.24883e-10 3.59843e-15)
(0.129977 -7.5507e-09 3.67256e-15)
(0.129977 -1.42924e-08 3.65623e-15)
(0.129977 -2.07566e-08 3.60103e-15)
(0.129977 -2.49259e-08 3.66407e-15)
(0.129977 -2.87648e-08 3.63012e-15)
(0.129977 -2.23876e-08 3.69672e-15)
(0.129977 -1.93211e-08 3.68005e-15)
(0.129976 2.12612e-08 3.62078e-15)
(0.130881 1.13935e-08 4.18789e-15)
(0.130881 3.07992e-08 4.15228e-15)
(0.130881 3.7555e-08 4.17727e-15)
(0.130881 3.66338e-08 3.99245e-15)
(0.130881 3.04471e-08 4.09571e-15)
(0.130881 2.36227e-08 4.19929e-15)
(0.130881 1.67578e-08 4.16535e-15)
(0.130881 1.08201e-08 4.1923e-15)
(0.130881 6.18674e-09 4.13649e-15)
(0.130881 2.89183e-09 4.11618e-15)
(0.130881 8.22906e-10 4.12521e-15)
(0.130881 -1.8802e-10 4.06313e-15)
(0.130881 -3.13792e-10 4.08678e-15)
(0.130881 2.81354e-10 4.01942e-15)
(0.130881 1.44272e-09 4.00516e-15)
(0.130881 3.0237e-09 4.02765e-15)
(0.130881 4.88552e-09 3.97714e-15)
(0.130881 6.89949e-09 4.00524e-15)
(0.130881 8.95126e-09 3.96179e-15)
(0.130881 1.09453e-08 3.98167e-15)
(0.130881 1.28082e-08 3.99561e-15)
(0.130881 1.44892e-08 3.9383e-15)
(0.130881 1.59586e-08 3.94887e-15)
(0.130881 1.72045e-08 3.91725e-15)
(0.130881 1.82296e-08 3.94912e-15)
(0.130881 1.90468e-08 3.9459e-15)
(0.130881 1.96766e-08 3.87592e-15)
(0.130881 2.01435e-08 3.88298e-15)
(0.130881 2.0473e-08 3.84977e-15)
(0.130881 2.06896e-08 3.85625e-15)
(0.130881 2.08146e-08 3.87995e-15)
(0.130881 2.08647e-08 3.83209e-15)
(0.130881 2.08521e-08 3.85618e-15)
(0.130881 2.07834e-08 3.81703e-15)
(0.130881 2.06594e-08 3.83109e-15)
(0.130881 2.04783e-08 3.83011e-15)
(0.130881 2.02241e-08 3.87172e-15)
(0.130881 1.99002e-08 3.80921e-15)
(0.130881 1.94642e-08 3.81734e-15)
(0.130881 1.88638e-08 3.85191e-15)
(0.130881 1.85866e-08 3.84773e-15)
(0.130881 1.61097e-08 3.88745e-15)
(0.130881 1.38824e-08 3.81415e-15)
(0.130881 1.29799e-08 3.80951e-15)
(0.130881 1.34353e-08 3.84181e-15)
(0.130881 1.67481e-08 3.82483e-15)
(0.130881 1.87789e-08 3.88049e-15)
(0.130881 1.81446e-08 3.84194e-15)
(0.130881 1.50136e-08 3.84709e-15)
(0.130881 1.01205e-08 3.89068e-15)
(0.130881 4.17739e-09 3.89605e-15)
(0.130881 -2.33531e-09 3.94113e-15)
(0.130881 -8.79922e-09 3.89237e-15)
(0.130881 -1.51333e-08 3.91007e-15)
(0.130881 -1.94076e-08 3.94714e-15)
(0.130881 -2.33871e-08 3.92885e-15)
(0.130881 -1.76394e-08 3.96836e-15)
(0.130881 -1.52382e-08 3.91787e-15)
(0.130881 2.37158e-08 3.92034e-15)
(0.131761 8.29156e-09 4.43737e-15)
(0.131761 2.96149e-08 4.3155e-15)
(0.131761 3.75474e-08 4.45546e-15)
(0.131761 3.74584e-08 4.27375e-15)
(0.131761 3.18221e-08 4.39143e-15)
(0.131761 2.51146e-08 4.49536e-15)
(0.131761 1.80551e-08 4.33778e-15)
(0.131761 1.16834e-08 4.44711e-15)
(0.131761 6.49997e-09 4.29761e-15)
(0.131761 2.64997e-09 4.30391e-15)
(0.131761 8.83809e-11 4.35799e-15)
(0.131761 -1.32579e-09 4.23078e-15)
(0.131761 -1.76276e-09 4.30261e-15)
(0.131761 -1.39496e-09 4.17763e-15)
(0.131761 -3.88147e-10 4.26162e-15)
(0.131761 1.10068e-09 4.26156e-15)
(0.131761 2.92413e-09 4.14564e-15)
(0.131761 4.94657e-09 4.25924e-15)
(0.131761 7.04782e-09 4.12505e-15)
(0.131761 9.12719e-09 4.23986e-15)
(0.131761 1.11064e-08 4.23551e-15)
(0.131761 1.293e-08 4.10509e-15)
(0.131761 1.45641e-08 4.1703e-15)
(0.131761 1.59928e-08 4.08031e-15)
(0.131761 1.72152e-08 4.16627e-15)
(0.131761 1.82412e-08 4.18766e-15)
(0.131761 1.90885e-08 4.04349e-15)
(0.131761 1.97792e-08 4.10375e-15)
(0.131761 2.03367e-08 4.00796e-15)
(0.131761 2.07837e-08 4.11434e-15)
(0.131761 2.11398e-08 4.11409e-15)
(0.131761 2.14205e-08 4.0013e-15)
(0.131761 2.16368e-08 4.11051e-15)
(0.131761 2.17939e-08 3.98031e-15)
(0.131761 2.18919e-08 4.0559e-15)
(0.131761 2.19265e-08 4.08175e-15)
(0.131761 2.18834e-08 4.10525e-15)
(0.131761 2.17554e-08 4.01718e-15)
(0.131761 2.15212e-08 4.08091e-15)
(0.131761 2.1058e-08 4.14589e-15)
(0.131761 2.09201e-08 4.12946e-15)
(0.131761 1.86759e-08 4.17034e-15)
(0.131761 1.63076e-08 4.03284e-15)
(0.131761 1.47798e-08 4.07951e-15)
(0.131761 1.42396e-08 4.17363e-15)
(0.131761 1.67045e-08 4.11395e-15)
(0.131761 1.88257e-08 4.21315e-15)
(0.131761 1.90777e-08 4.05149e-15)
(0.131761 1.71223e-08 4.11242e-15)
(0.131761 1.33218e-08 4.15479e-15)
(0.131761 8.23577e-09 4.18668e-15)
(0.131761 2.34019e-09 4.20224e-15)
(0.131761 -3.74249e-09 4.11002e-15)
(0.131761 -9.85524e-09 4.21285e-15)
(0.131761 -1.41759e-08 4.27812e-15)
(0.131761 -1.82489e-08 4.22373e-15)
(0.13176 -1.31743e-08 4.22641e-15)
(0.13176 -1.15552e-08 4.14368e-15)
(0.13176 2.57904e-08 4.23402e-15)
(0.132617 5.02283e-09 4.61014e-15)
(0.132617 2.78863e-08 4.43819e-15)
(0.132617 3.66727e-08 4.51985e-15)
(0.132617 3.73419e-08 4.50874e-15)
(0.132617 3.2361e-08 4.55985e-15)
(0.132617 2.59849e-08 4.63947e-15)
(0.132617 1.90021e-08 4.46884e-15)
(0.132617 1.24693e-08 4.55892e-15)
(0.132617 6.96223e-09 4.42606e-15)
(0.132617 2.7164e-09 4.41611e-15)
(0.132617 -2.41223e-10 4.51097e-15)
(0.132617 -2.00888e-09 4.36853e-15)
(0.132617 -2.73803e-09 4.46031e-15)
(0.132617 -2.59692e-09 4.28884e-15)
(0.132617 -1.75414e-09 4.30049e-15)
(0.132617 -3.71994e-10 4.41891e-15)
(0.132617 1.3965e-09 4.28553e-15)
(0.132617 3.41052e-09 4.37444e-15)
(0.132617 5.5451e-09 4.26038e-15)
(0.132617 7.69496e-09 4.28979e-15)
(0.132617 9.77726e-09 4.39064e-15)
(0.132617 1.17321e-08 4.24078e-15)
(0.132617 1.35212e-08 4.32397e-15)
(0.132617 1.51247e-08 4.21186e-15)
(0.132617 1.65379e-08 4.25965e-15)
(0.132617 1.77673e-08 4.3412e-15)
(0.132617 1.88279e-08 4.17762e-15)
(0.132617 1.97389e-08 4.25847e-15)
(0.132617 2.05218e-08 4.13584e-15)
(0.132617 2.1197e-08 4.15778e-15)
(0.132617 2.17828e-08 4.27188e-15)
(0.132617 2.22931e-08 4.14412e-15)
(0.132617 2.27374e-08 4.23522e-15)
(0.132617 2.31199e-08 4.10244e-15)
(0.132617 2.34396e-08 4.13753e-15)
(0.132617 2.36903e-08 4.25788e-15)
(0.132617 2.38584e-08 4.25772e-15)
(0.132617 2.39276e-08 4.20233e-15)
(0.132617 2.38929e-08 4.29105e-15)
(0.132617 2.35808e-08 4.26766e-15)
(0.132617 2.356e-08 4.32882e-15)
(0.132617 2.15832e-08 4.30418e-15)
(0.132617 1.92507e-08 4.22317e-15)
(0.132617 1.73819e-08 4.2973e-15)
(0.132617 1.61248e-08 4.27284e-15)
(0.132617 1.76983e-08 4.31925e-15)
(0.132617 1.94985e-08 4.30604e-15)
(0.132617 2.01305e-08 4.23002e-15)
(0.132617 1.89791e-08 4.32796e-15)
(0.132617 1.60867e-08 4.3236e-15)
(0.132617 1.181e-08 4.39339e-15)
(0.132617 6.5566e-09 4.3713e-15)
(0.132617 9.06988e-10 4.29994e-15)
(0.132617 -4.92719e-09 4.40116e-15)
(0.132617 -9.25657e-09 4.38163e-15)
(0.132617 -1.33936e-08 4.42802e-15)
(0.132617 -9.03394e-09 4.40241e-15)
(0.132617 -8.33664e-09 4.34592e-15)
(0.132617 2.74663e-08 4.4206e-15)
(0.133451 1.69387e-09 4.78611e-15)
(0.133451 2.58118e-08 4.56677e-15)
(0.133451 3.51336e-08 4.6774e-15)
(0.133451 3.63929e-08 4.7337e-15)
(0.133451 3.20621e-08 4.76729e-15)
(0.133451 2.6135e-08 4.81581e-15)
(0.133451 1.94235e-08 4.66571e-15)
(0.133451 1.29577e-08 4.72339e-15)
(0.133451 7.34476e-09 4.60845e-15)
(0.133451 2.88165e-09 4.62077e-15)
(0.133451 -3.42027e-10 4.68209e-15)
(0.133451 -2.37705e-09 4.48754e-15)
(0.133451 -3.34602e-09 4.62381e-15)
(0.133451 -3.40287e-09 4.48375e-15)
(0.133451 -2.71098e-09 4.50649e-15)
(0.133451 -1.43226e-09 4.59759e-15)
(0.133451 2.78505e-10 4.47895e-15)
(0.133451 2.27783e-09 4.54769e-15)
(0.133451 4.43762e-09 4.37953e-15)
(0.133451 6.64916e-09 4.49058e-15)
(0.133451 8.82582e-09 4.56572e-15)
(0.133451 1.09037e-08 4.40138e-15)
(0.133451 1.28404e-08 4.50392e-15)
(0.133451 1.46121e-08 4.34269e-15)
(0.133451 1.62103e-08 4.4538e-15)
(0.133451 1.76384e-08 4.51795e-15)
(0.133451 1.8908e-08 4.30782e-15)
(0.133451 2.0036e-08 4.43788e-15)
(0.133451 2.10413e-08 4.29743e-15)
(0.133451 2.19424e-08 4.36788e-15)
(0.133451 2.27557e-08 4.45173e-15)
(0.133451 2.34937e-08 4.33975e-15)
(0.133451 2.41646e-08 4.40947e-15)
(0.133451 2.47712e-08 4.26806e-15)
(0.133451 2.53116e-08 4.34586e-15)
(0.133451 2.57775e-08 4.46164e-15)
(0.133451 2.61563e-08 4.46169e-15)
(0.133451 2.64228e-08 4.35239e-15)
(0.13345 2.65847e-08 4.49759e-15)
(0.13345 2.6434e-08 4.49012e-15)
(0.13345 2.65211e-08 4.54157e-15)
(0.13345 2.48184e-08 4.50989e-15)
(0.13345 2.26284e-08 4.41278e-15)
(0.13345 2.06302e-08 4.51459e-15)
(0.13345 1.89193e-08 4.50241e-15)
(0.13345 1.97039e-08 4.54223e-15)
(0.13345 2.09903e-08 4.5244e-15)
(0.13345 2.16335e-08 4.42546e-15)
(0.13345 2.09291e-08 4.53934e-15)
(0.13345 1.8699e-08 4.555e-15)
(0.13345 1.51026e-08 4.61377e-15)
(0.13345 1.04446e-08 4.59299e-15)
(0.13345 5.22542e-09 4.46693e-15)
(0.13345 -3.12581e-10 4.60809e-15)
(0.13345 -4.63976e-09 4.60011e-15)
(0.13345 -8.83501e-09 4.64937e-15)
(0.13345 -5.23654e-09 4.62505e-15)
(0.13345 -5.61609e-09 4.5436e-15)
(0.13345 2.87274e-08 4.64384e-15)
(0.134262 -1.63024e-09 4.96426e-15)
(0.134262 2.35355e-08 4.86852e-15)
(0.134262 3.31141e-08 4.87367e-15)
(0.134262 3.47577e-08 5.01403e-15)
(0.134262 3.09961e-08 4.97553e-15)
(0.134262 2.55534e-08 4.995e-15)
(0.134262 1.92326e-08 4.90073e-15)
(0.134262 1.30049e-08 4.91743e-15)
(0.134262 7.4738e-09 4.8461e-15)
(0.134262 2.96729e-09 4.84569e-15)
(0.134262 -3.79177e-10 4.86347e-15)
(0.134262 -2.57311e-09 4.79758e-15)
(0.134262 -3.70473e-09 4.81597e-15)
(0.134262 -3.90727e-09 4.71983e-15)
(0.134262 -3.33248e-09 4.74647e-15)
(0.134262 -2.13655e-09 4.78674e-15)
(0.134262 -4.72027e-10 4.72491e-15)
(0.134262 1.51781e-09 4.74716e-15)
(0.134262 3.70387e-09 4.69774e-15)
(0.134262 5.9755e-09 4.71954e-15)
(0.134262 8.24337e-09 4.75338e-15)
(0.134262 1.04404e-08 4.68216e-15)
(0.134262 1.25204e-08 4.7107e-15)
(0.134262 1.44562e-08 4.65969e-15)
(0.134262 1.62356e-08 4.68731e-15)
(0.134262 1.78587e-08 4.70697e-15)
(0.134262 1.93341e-08 4.6218e-15)
(0.134262 2.0676e-08 4.64656e-15)
(0.134262 2.1901e-08 4.58106e-15)
(0.134262 2.30255e-08 4.60683e-15)
(0.134262 2.40641e-08 4.64416e-15)
(0.134262 2.50277e-08 4.58832e-15)
(0.134262 2.59232e-08 4.61269e-15)
(0.134262 2.67521e-08 4.54729e-15)
(0.134262 2.75115e-08 4.58698e-15)
(0.134262 2.81911e-08 4.60974e-15)
(0.134262 2.8779e-08 4.65734e-15)
(0.134262 2.92425e-08 4.64617e-15)
(0.134262 2.95978e-08 4.67009e-15)
(0.134262 2.96154e-08 4.70423e-15)
(0.134262 2.98089e-08 4.68604e-15)
(0.134262 2.83748e-08 4.70666e-15)
(0.134262 2.6386e-08 4.67147e-15)
(0.134262 2.44039e-08 4.69536e-15)
(0.134262 2.24558e-08 4.72733e-15)
(0.134262 2.26145e-08 4.69735e-15)
(0.134261 2.33465e-08 4.72296e-15)
(0.134261 2.37752e-08 4.67965e-15)
(0.134261 2.32283e-08 4.72813e-15)
(0.134261 2.14097e-08 4.77912e-15)
(0.134261 1.83208e-08 4.76585e-15)
(0.134261 1.41583e-08 4.79566e-15)
(0.134261 9.31903e-09 4.76317e-15)
(0.134261 4.05556e-09 4.79337e-15)
(0.134261 -2.87437e-10 4.82274e-15)
(0.134261 -4.56052e-09 4.80395e-15)
(0.134261 -1.77876e-09 4.83399e-15)
(0.134261 -3.39999e-09 4.80896e-15)
(0.134261 2.95697e-08 4.82877e-15)
(0.135051 -4.90945e-09 5.14664e-15)
(0.135051 2.11568e-08 5.11315e-15)
(0.135051 3.07654e-08 5.0791e-15)
(0.135051 3.2587e-08 5.16834e-15)
(0.135051 2.9272e-08 5.18042e-15)
(0.135051 2.42888e-08 5.17769e-15)
(0.135051 1.84132e-08 5.14103e-15)
(0.135051 1.25374e-08 5.11941e-15)
(0.135051 7.23445e-09 5.0799e-15)
(0.135051 2.83734e-09 5.08232e-15)
(0.135051 -4.92194e-10 5.04744e-15)
(0.135051 -2.72821e-09 5.0281e-15)
(0.135051 -3.93066e-09 5.02139e-15)
(0.135051 -4.2098e-09 4.97995e-15)
(0.135051 -3.70175e-09 4.99767e-15)
(0.135051 -2.55286e-09 4.97942e-15)
(0.135051 -9.09931e-10 4.96292e-15)
(0.135051 1.08684e-09 4.95953e-15)
(0.135051 3.30953e-09 4.9416e-15)
(0.135051 5.64728e-09 4.96424e-15)
(0.135051 8.0094e-09 4.94593e-15)
(0.135051 1.03265e-08 4.92682e-15)
(0.135051 1.25497e-08 4.92859e-15)
(0.135051 1.46484e-08 4.9152e-15)
(0.135051 1.66074e-08 4.93544e-15)
(0.135051 1.84237e-08 4.90173e-15)
(0.135051 2.0103e-08 4.87141e-15)
(0.135051 2.16568e-08 4.86446e-15)
(0.135051 2.30994e-08 4.83723e-15)
(0.135051 2.44452e-08 4.85943e-15)
(0.135051 2.5707e-08 4.83999e-15)
(0.135051 2.68941e-08 4.82784e-15)
(0.135051 2.80121e-08 4.82833e-15)
(0.135051 2.90611e-08 4.80855e-15)
(0.135051 3.00374e-08 4.83907e-15)
(0.135051 3.09287e-08 4.76305e-15)
(0.135051 3.17236e-08 4.8665e-15)
(0.135051 3.2383e-08 4.90463e-15)
(0.135051 3.29283e-08 4.86215e-15)
(0.135051 3.31185e-08 4.92743e-15)
(0.135051 3.34213e-08 4.82428e-15)
(0.135051 3.22461e-08 4.91227e-15)
(0.135051 3.04869e-08 4.92723e-15)
(0.135051 2.86135e-08 4.89189e-15)
(0.135051 2.65913e-08 4.95968e-15)
(0.135051 2.62951e-08 4.84513e-15)
(0.135051 2.65216e-08 4.93016e-15)
(0.135051 2.66287e-08 4.95344e-15)
(0.135051 2.60358e-08 4.93393e-15)
(0.135051 2.44105e-08 5.01196e-15)
(0.135051 2.16476e-08 4.91153e-15)
(0.135051 1.78508e-08 5.006e-15)
(0.135051 1.33057e-08 5.03676e-15)
(0.135051 8.26173e-09 4.99721e-15)
(0.135051 3.85798e-09 5.05712e-15)
(0.135051 -5.37586e-10 4.9527e-15)
(0.135051 1.36048e-09 5.05059e-15)
(0.135051 -1.67309e-09 5.06628e-15)
(0.135051 3.00049e-08 5.029e-15)
(0.13582 -8.11753e-09 5.33031e-15)
(0.13582 1.87426e-08 5.34307e-15)
(0.13582 2.82043e-08 5.28088e-15)
(0.13582 3.00174e-08 5.39648e-15)
(0.13582 2.7012e-08 5.38189e-15)
(0.13582 2.24251e-08 5.36126e-15)
(0.13582 1.69996e-08 5.36992e-15)
(0.13582 1.15381e-08 5.31836e-15)
(0.13582 6.56634e-09 5.31281e-15)
(0.13582 2.40141e-09 5.32476e-15)
(0.13582 -7.86955e-10 5.22147e-15)
(0.13582 -2.95169e-09 5.2589e-15)
(0.13582 -4.1285e-09 5.22917e-15)
(0.13582 -4.40591e-09 5.22898e-15)
(0.13582 -3.90303e-09 5.25262e-15)
(0.13582 -2.75396e-09 5.16239e-15)
(0.13582 -1.09706e-09 5.20232e-15)
(0.13582 9.32875e-10 5.17468e-15)
(0.13582 3.21117e-09 5.187e-15)
(0.13582 5.62842e-09 5.21721e-15)
(0.13582 8.09396e-09 5.13034e-15)
(0.13582 1.05373e-08 5.1698e-15)
(0.13582 1.29074e-08 5.14602e-15)
(0.13582 1.51714e-08 5.16444e-15)
(0.13582 1.73112e-08 5.19098e-15)
(0.13582 1.93209e-08 5.08856e-15)
(0.13582 2.12038e-08 5.11705e-15)
(0.13582 2.29688e-08 5.08287e-15)
(0.13582 2.4628e-08 5.08984e-15)
(0.13582 2.61937e-08 5.1169e-15)
(0.13582 2.76771e-08 5.02613e-15)
(0.13582 2.90857e-08 5.06847e-15)
(0.13582 3.04242e-08 5.04613e-15)
(0.13582 3.16911e-08 5.06074e-15)
(0.13582 3.2882e-08 5.09317e-15)
(0.13582 3.39827e-08 4.97417e-15)
(0.13582 3.4982e-08 5.03801e-15)
(0.13582 3.58355e-08 5.14131e-15)
(0.13582 3.65677e-08 5.04738e-15)
(0.13582 3.69326e-08 5.09322e-15)
(0.13582 3.73494e-08 5.00984e-15)
(0.13582 3.64225e-08 5.07669e-15)
(0.13582 3.49035e-08 5.19798e-15)
(0.13582 3.31939e-08 5.08089e-15)
(0.13582 3.12112e-08 5.13252e-15)
(0.135819 3.06118e-08 5.03878e-15)
(0.135819 3.04238e-08 5.09778e-15)
(0.135819 3.01856e-08 5.19971e-15)
(0.135819 2.94252e-08 5.12867e-15)
(0.135819 2.78258e-08 5.1858e-15)
(0.135819 2.52239e-08 5.10442e-15)
(0.135819 2.16551e-08 5.17577e-15)
(0.135819 1.72988e-08 5.28142e-15)