/*--------------------------------*- C++ -*----------------------------------*\
  =========                 |
  \\      /  F ield         | OpenFOAM: The Open Source CFD Toolbox
   \\    /   O peration     | Website:  https://openfoam.org
    \\  /    A nd           | Version:  7
     \\/     M anipulation  |
\*---------------------------------------------------------------------------*/
FoamFile
{
    version     2.0;
    format      ascii;
    class       volVectorField;
    location    "47000";
    object      U;
}
// * * * * * * * * * * * * * * * * * * * * * * * * * * * * * * * * * * * * * //

dimensions      [0 1 -1 0 0 0 0];

internalField   nonuniform List<vector> 
100
(
(0.00779469 1.72339e-14 0)
(0.0236633 4.90905e-14 0)
(0.0398641 2.11863e-14 0)
(0.0549171 2.06709e-14 0)
(0.0671104 1.12855e-14 0)
(0.0764366 -1.53162e-14 0)
(0.0837073 -2.18812e-14 0)
(0.0895886 -3.53726e-14 0)
(0.0945084 -3.42237e-14 0)
(0.0987373 -3.96434e-14 0)
(0.102452 -3.67725e-14 0)
(0.105771 -4.08045e-14 0)
(0.10878 -4.37863e-14 0)
(0.111538 -4.08494e-14 0)
(0.114091 -4.53729e-14 0)
(0.116472 -5.16478e-14 0)
(0.11871 -5.00037e-14 0)
(0.120824 -5.10216e-14 0)
(0.122831 -4.59339e-14 0)
(0.124746 -5.27737e-14 0)
(0.126579 -5.26933e-14 0)
(0.12834 -4.9536e-14 0)
(0.130036 -5.27819e-14 0)
(0.131674 -5.06539e-14 0)
(0.133259 -4.96308e-14 0)
(0.134796 -4.69351e-14 0)
(0.136289 -4.91032e-14 0)
(0.13774 -4.79577e-14 0)
(0.139154 -4.88723e-14 0)
(0.140531 -4.82072e-14 0)
(0.141873 -4.81173e-14 0)
(0.143183 -4.93893e-14 0)
(0.14446 -4.84209e-14 0)
(0.145705 -4.96179e-14 0)
(0.146918 -5.09975e-14 0)
(0.1481 -5.26169e-14 0)
(0.149248 -5.24505e-14 0)
(0.150363 -5.13922e-14 0)
(0.151441 -5.37887e-14 0)
(0.152481 -5.18822e-14 0)
(0.153478 -5.17493e-14 0)
(0.15443 -4.94298e-14 0)
(0.155329 -4.87661e-14 0)
(0.15617 -5.04655e-14 0)
(0.156943 -5.07004e-14 0)
(0.157636 -4.72041e-14 0)
(0.158235 -4.42962e-14 0)
(0.158721 -4.17146e-14 0)
(0.159072 -3.68432e-14 0)
(0.159261 -4.19062e-14 0)
(0.159261 -3.89709e-14 0)
(0.159072 -3.74511e-14 0)
(0.158723 -3.69539e-14 0)
(0.158239 -4.05706e-14 0)
(0.157642 -3.64089e-14 0)
(0.156952 -3.83534e-14 0)
(0.156183 -3.69407e-14 0)
(0.155346 -3.54629e-14 0)
(0.15445 -3.73398e-14 0)
(0.153502 -4.08836e-14 0)
(0.152508 -3.80111e-14 0)
(0.151472 -3.7247e-14 0)
(0.150397 -4.08727e-14 0)
(0.149287 -3.9385e-14 0)
(0.148142 -4.34113e-14 0)
(0.146964 -3.97864e-14 0)
(0.145754 -4.32904e-14 0)
(0.144513 -4.15658e-14 0)
(0.14324 -4.37632e-14 0)
(0.141934 -4.65977e-14 0)
(0.140595 -4.57008e-14 0)
(0.139222 -4.56563e-14 0)
(0.137812 -4.54029e-14 0)
(0.136364 -4.46388e-14 0)
(0.134875 -4.90472e-14 0)
(0.133341 -4.89732e-14 0)
(0.13176 -5.10607e-14 0)
(0.130126 -4.427e-14 0)
(0.128434 -5.45253e-14 0)
(0.126677 -4.8879e-14 0)
(0.124848 -5.15577e-14 0)
(0.122938 -5.57578e-14 0)
(0.120934 -5.35344e-14 0)
(0.118825 -5.16884e-14 0)
(0.116593 -5.39323e-14 0)
(0.114216 -5.12273e-14 0)
(0.111669 -5.35735e-14 0)
(0.108918 -5.45138e-14 0)
(0.105917 -5.31898e-14 0)
(0.102605 -5.64554e-14 0)
(0.0989003 -4.89861e-14 0)
(0.0946828 -6.01547e-14 0)
(0.089777 -4.13638e-14 0)
(0.0839133 -3.14133e-14 0)
(0.0766647 -2.32335e-14 0)
(0.0673632 -2.91645e-14 0)
(0.0551827 -1.69587e-14 0)
(0.0400953 -8.93097e-15 0)
(0.0238117 9.89023e-15 0)
(0.00784917 2.77884e-15 0)
)
;

boundaryField
{
    bottomWall
    {
        type            noSlip;
    }
    topWall
    {
        type            noSlip;
    }
    sides1_half0
    {
        type            empty;
    }
    sides1_half1
    {
        type            empty;
    }
    sides2_half0
    {
        type            empty;
    }
    sides2_half1
    {
        type            empty;
    }
    inout1_half0
    {
        type            cyclic;
    }
    inout1_half1
    {
        type            cyclic;
    }
    inout2_half0
    {
        type            cyclic;
    }
    inout2_half1
    {
        type            cyclic;
    }
}


// ************************************************************************* //
