/*--------------------------------*- C++ -*----------------------------------*\
  =========                 |
  \\      /  F ield         | OpenFOAM: The Open Source CFD Toolbox
   \\    /   O peration     | Website:  https://openfoam.org
    \\  /    A nd           | Version:  7
     \\/     M anipulation  |
\*---------------------------------------------------------------------------*/
FoamFile
{
    version     2.0;
    format      ascii;
    class       volVectorField;
    location    "15500";
    object      U;
}
// * * * * * * * * * * * * * * * * * * * * * * * * * * * * * * * * * * * * * //

dimensions      [0 1 -1 0 0 0 0];

internalField   nonuniform List<vector> 
4037
(
(0.118115 -6.67521e-08 1.84983e-14)
(0.118115 -5.78147e-08 1.8437e-14)
(0.118115 -4.97759e-08 1.82199e-14)
(0.118115 -4.24646e-08 1.83816e-14)
(0.118115 -3.56598e-08 1.82315e-14)
(0.118115 -2.95004e-08 1.81005e-14)
(0.118115 -2.36387e-08 1.81375e-14)
(0.118115 -1.79532e-08 1.78731e-14)
(0.118115 -1.26028e-08 1.81382e-14)
(0.118115 -7.72772e-09 1.79454e-14)
(0.118115 -2.90008e-09 1.78891e-14)
(0.118115 1.90276e-09 1.79145e-14)
(0.118115 6.45894e-09 1.76967e-14)
(0.118115 1.09367e-08 1.80142e-14)
(0.118115 1.51593e-08 1.78398e-14)
(0.118115 1.91708e-08 1.77205e-14)
(0.118115 2.30298e-08 1.7944e-14)
(0.118115 2.67584e-08 1.83587e-14)
(0.118115 3.0512e-08 1.8379e-14)
(0.118115 3.40959e-08 1.84819e-14)
(0.118115 3.73672e-08 1.85376e-14)
(0.118115 4.04016e-08 1.85801e-14)
(0.118115 4.33618e-08 1.88479e-14)
(0.118115 4.62538e-08 1.87942e-14)
(0.118115 4.89761e-08 1.88164e-14)
(0.118115 5.1467e-08 1.88161e-14)
(0.118115 5.3803e-08 1.88038e-14)
(0.118115 5.61179e-08 1.9025e-14)
(0.118115 5.80596e-08 1.89713e-14)
(0.118115 5.9825e-08 1.92062e-14)
(0.118115 6.15213e-08 1.90993e-14)
(0.118115 6.29394e-08 1.90789e-14)
(0.118115 6.42969e-08 1.93013e-14)
(0.118115 6.56047e-08 1.9232e-14)
(0.118115 6.68197e-08 1.94453e-14)
(0.118115 6.7787e-08 1.93137e-14)
(0.118115 6.86019e-08 1.92692e-14)
(0.118115 6.93469e-08 1.95085e-14)
(0.118115 7.0061e-08 1.94079e-14)
(0.118115 7.07633e-08 1.96319e-14)
(0.118115 7.13853e-08 1.94389e-14)
(0.118115 7.19501e-08 1.93934e-14)
(0.118115 7.24315e-08 1.96204e-14)
(0.118115 7.27574e-08 1.95058e-14)
(0.118115 7.29462e-08 1.9729e-14)
(0.118115 7.31221e-08 1.95512e-14)
(0.118115 7.32809e-08 1.95191e-14)
(0.118115 7.34036e-08 1.97453e-14)
(0.118115 7.34453e-08 1.95805e-14)
(0.118115 7.34334e-08 1.97866e-14)
(0.118115 7.34331e-08 1.96351e-14)
(0.118115 7.34525e-08 1.95788e-14)
(0.118115 7.33176e-08 1.98293e-14)
(0.118115 7.29636e-08 1.96466e-14)
(0.118115 7.26438e-08 1.98411e-14)
(0.118115 7.22271e-08 1.9691e-14)
(0.118115 7.17415e-08 1.96292e-14)
(0.118115 7.13798e-08 1.96066e-14)
(0.118115 7.08781e-08 1.96039e-14)
(0.118115 7.0217e-08 1.96146e-14)
(0.118115 6.94426e-08 1.96383e-14)
(0.118115 6.86969e-08 1.96485e-14)
(0.118115 6.79214e-08 1.96588e-14)
(0.118115 6.71646e-08 1.96588e-14)
(0.118115 6.65034e-08 1.96426e-14)
(0.118115 6.57845e-08 1.96401e-14)
(0.118115 6.49457e-08 1.96614e-14)
(0.118115 6.40193e-08 1.96568e-14)
(0.118115 6.32914e-08 1.96398e-14)
(0.118115 6.2525e-08 1.96286e-14)
(0.118115 6.14867e-08 1.96383e-14)
(0.118115 6.02313e-08 1.96451e-14)
(0.118115 5.86845e-08 1.96555e-14)
(0.118115 5.68356e-08 1.96634e-14)
(0.118115 5.4275e-08 1.96593e-14)
(0.118115 5.14399e-08 1.96671e-14)
(0.118115 4.58911e-08 1.96758e-14)
(0.117068 -1.03757e-07 1.9501e-14)
(0.117068 -1.38675e-07 1.91232e-14)
(0.117068 -1.67407e-07 1.91079e-14)
(0.117068 -1.89082e-07 1.92275e-14)
(0.117068 -2.03963e-07 1.92264e-14)
(0.117068 -2.13191e-07 1.93392e-14)
(0.117068 -2.17621e-07 1.9349e-14)
(0.117068 -2.17846e-07 1.93047e-14)
(0.117068 -2.14506e-07 1.93381e-14)
(0.117068 -2.08445e-07 1.92961e-14)
(0.117068 -2.00342e-07 1.92594e-14)
(0.117068 -1.90591e-07 1.91843e-14)
(0.117068 -1.79746e-07 1.91676e-14)
(0.117068 -1.68481e-07 1.91083e-14)
(0.117068 -1.57086e-07 1.91364e-14)
(0.117068 -1.45503e-07 1.90459e-14)
(0.117068 -1.34158e-07 1.89797e-14)
(0.117068 -1.23033e-07 1.89609e-14)
(0.117068 -1.12423e-07 1.89366e-14)
(0.117068 -1.0245e-07 1.89784e-14)
(0.117068 -9.33847e-08 1.88306e-14)
(0.117068 -8.54615e-08 1.86466e-14)
(0.117068 -7.85321e-08 1.86688e-14)
(0.117068 -7.07481e-08 1.84584e-14)
(0.117068 -6.11778e-08 1.83675e-14)
(0.117068 -5.24015e-08 1.8312e-14)
(0.117068 -4.50992e-08 1.80836e-14)
(0.117068 -3.82588e-08 1.81938e-14)
(0.117068 -3.17514e-08 1.80586e-14)
(0.117068 -2.58065e-08 1.80146e-14)
(0.117068 -2.01476e-08 1.80085e-14)
(0.117068 -1.458e-08 1.77861e-14)
(0.117068 -9.28958e-09 1.79433e-14)
(0.117068 -4.47848e-09 1.78313e-14)
(0.117068 2.70429e-10 1.7802e-14)
(0.117068 4.96641e-09 1.78055e-14)
(0.117068 9.44965e-09 1.76284e-14)
(0.117068 1.38273e-08 1.78093e-14)
(0.117068 1.79667e-08 1.76777e-14)
(0.117068 2.18403e-08 1.76447e-14)
(0.117067 2.55332e-08 1.7766e-14)
(0.117067 2.90965e-08 1.8075e-14)
(0.117067 3.2719e-08 1.81971e-14)
(0.117067 3.61597e-08 1.82406e-14)
(0.117067 3.92309e-08 1.83451e-14)
(0.117067 4.21139e-08 1.83758e-14)
(0.117067 4.48779e-08 1.85595e-14)
(0.117067 4.75782e-08 1.86025e-14)
(0.117067 5.01432e-08 1.86135e-14)
(0.117067 5.24351e-08 1.8617e-14)
(0.117067 5.46188e-08 1.86142e-14)
(0.117067 5.67832e-08 1.8784e-14)
(0.117067 5.85413e-08 1.8779e-14)
(0.117067 6.01597e-08 1.89298e-14)
(0.117067 6.17154e-08 1.89259e-14)
(0.117067 6.30345e-08 1.88963e-14)
(0.117067 6.42465e-08 1.9068e-14)
(0.117067 6.54432e-08 1.90487e-14)
(0.117067 6.65991e-08 1.91825e-14)
(0.117067 6.74156e-08 1.91491e-14)
(0.117067 6.81373e-08 1.90985e-14)
(0.117067 6.88305e-08 1.92384e-14)
(0.117067 6.94518e-08 1.92217e-14)
(0.117067 7.00935e-08 1.93188e-14)
(0.117067 7.06768e-08 1.92767e-14)
(0.117067 7.11994e-08 1.92158e-14)
(0.117067 7.16387e-08 1.93473e-14)
(0.117067 7.19298e-08 1.93106e-14)
(0.117067 7.20789e-08 1.94207e-14)
(0.117067 7.22127e-08 1.9387e-14)
(0.117067 7.23795e-08 1.93358e-14)
(0.117067 7.2502e-08 1.94726e-14)
(0.117067 7.25118e-08 1.94123e-14)
(0.117067 7.24823e-08 1.95391e-14)
(0.117067 7.24846e-08 1.9471e-14)
(0.117067 7.25384e-08 1.94035e-14)
(0.117067 7.23915e-08 1.95071e-14)
(0.117067 7.20143e-08 1.94673e-14)
(0.117067 7.17136e-08 1.95717e-14)
(0.117067 7.13052e-08 1.95233e-14)
(0.117067 7.08823e-08 1.94604e-14)
(0.117068 7.05577e-08 1.94256e-14)
(0.117068 7.00694e-08 1.9412e-14)
(0.117068 6.9415e-08 1.94086e-14)
(0.117068 6.86728e-08 1.94171e-14)
(0.117068 6.79801e-08 1.94227e-14)
(0.117068 6.72161e-08 1.94294e-14)
(0.117068 6.64414e-08 1.94307e-14)
(0.117068 6.58055e-08 1.94161e-14)
(0.117068 6.51541e-08 1.94083e-14)
(0.117068 6.4296e-08 1.94148e-14)
(0.117068 6.33953e-08 1.94141e-14)
(0.117068 6.26825e-08 1.9405e-14)
(0.117068 6.19069e-08 1.93961e-14)
(0.117068 6.09103e-08 1.93995e-14)
(0.117068 5.97038e-08 1.94057e-14)
(0.117068 5.82037e-08 1.94188e-14)
(0.117068 5.64121e-08 1.94281e-14)
(0.117068 5.38562e-08 1.94248e-14)
(0.117068 5.13099e-08 1.94292e-14)
(0.117068 4.41831e-08 1.94342e-14)
(0.117068 3.53419e-08 1.94328e-14)
(0.117068 3.12621e-08 1.94258e-14)
(0.117068 2.82312e-08 1.94126e-14)
(0.117068 2.54108e-08 1.94098e-14)
(0.117068 2.30515e-08 1.9416e-14)
(0.117068 2.10418e-08 1.94256e-14)
(0.117068 1.94265e-08 1.94371e-14)
(0.117068 1.81395e-08 1.94443e-14)
(0.117068 1.69666e-08 1.94491e-14)
(0.117068 1.58498e-08 1.94492e-14)
(0.117068 1.48735e-08 1.9448e-14)
(0.117068 1.37703e-08 1.94418e-14)
(0.117068 1.17945e-08 1.94362e-14)
(0.117068 9.47106e-09 1.94408e-14)
(0.117068 4.75712e-09 1.94366e-14)
(0.117068 -5.71416e-10 1.94229e-14)
(0.117068 -1.33921e-08 1.94088e-14)
(0.117068 -3.0137e-08 1.93943e-14)
(0.117068 -6.02551e-08 1.93772e-14)
(0.115986 -1.03189e-07 1.93524e-14)
(0.115986 -1.38131e-07 1.88899e-14)
(0.115986 -1.67189e-07 1.88899e-14)
(0.115986 -1.89166e-07 1.90297e-14)
(0.115986 -2.0427e-07 1.90244e-14)
(0.115986 -2.13722e-07 1.91012e-14)
(0.115986 -2.18297e-07 1.90908e-14)
(0.115986 -2.18578e-07 1.91173e-14)
(0.115986 -2.15223e-07 1.90924e-14)
(0.115986 -2.09049e-07 1.90381e-14)
(0.115986 -2.00858e-07 1.90757e-14)
(0.115986 -1.91018e-07 1.89066e-14)
(0.115986 -1.80073e-07 1.89913e-14)
(0.115986 -1.68691e-07 1.87919e-14)
(0.115986 -1.57144e-07 1.89992e-14)
(0.115986 -1.45505e-07 1.89087e-14)
(0.115986 -1.34061e-07 1.87198e-14)
(0.115986 -1.22809e-07 1.88035e-14)
(0.115986 -1.12144e-07 1.86724e-14)
(0.115986 -1.02076e-07 1.88439e-14)
(0.115986 -9.29382e-08 1.86537e-14)
(0.115986 -8.48346e-08 1.85147e-14)
(0.115986 -7.79034e-08 1.85075e-14)
(0.115986 -6.87339e-08 1.82609e-14)
(0.115986 -5.77912e-08 1.82294e-14)
(0.115986 -4.92205e-08 1.81703e-14)
(0.115986 -4.19424e-08 1.79058e-14)
(0.115986 -3.51664e-08 1.80348e-14)
(0.115986 -2.87553e-08 1.78703e-14)
(0.115986 -2.28769e-08 1.78975e-14)
(0.115986 -1.72957e-08 1.78807e-14)
(0.115986 -1.17668e-08 1.76422e-14)
(0.115986 -6.47963e-09 1.77947e-14)
(0.115986 -1.68975e-09 1.76574e-14)
(0.115986 3.00247e-09 1.77199e-14)
(0.115986 7.63124e-09 1.76748e-14)
(0.115986 1.20794e-08 1.74792e-14)
(0.115986 1.64255e-08 1.76597e-14)
(0.115986 2.048e-08 1.7504e-14)
(0.115986 2.42459e-08 1.75439e-14)
(0.115986 2.78096e-08 1.76376e-14)
(0.115986 3.12521e-08 1.78832e-14)
(0.115986 3.47931e-08 1.80237e-14)
(0.115986 3.80621e-08 1.80925e-14)
(0.115986 4.09415e-08 1.81671e-14)
(0.115986 4.37128e-08 1.81855e-14)
(0.115986 4.63189e-08 1.83307e-14)
(0.115986 4.88537e-08 1.8404e-14)
(0.115986 5.1249e-08 1.84031e-14)
(0.115986 5.33548e-08 1.84302e-14)
(0.115986 5.53906e-08 1.84245e-14)
(0.115986 5.73781e-08 1.85555e-14)
(0.115986 5.90021e-08 1.85796e-14)
(0.115986 6.04864e-08 1.87041e-14)
(0.115986 6.18637e-08 1.87375e-14)
(0.115986 6.30496e-08 1.87127e-14)
(0.115986 6.41657e-08 1.88418e-14)
(0.115986 6.52599e-08 1.88524e-14)
(0.115986 6.62965e-08 1.89592e-14)
(0.115986 6.70204e-08 1.89658e-14)
(0.115986 6.76368e-08 1.89225e-14)
(0.115986 6.82491e-08 1.90266e-14)
(0.115986 6.87576e-08 1.90265e-14)
(0.115986 6.9317e-08 1.91043e-14)
(0.115986 6.98808e-08 1.90949e-14)
(0.115986 7.03647e-08 1.90369e-14)
(0.115986 7.0767e-08 1.91297e-14)
(0.115986 7.09746e-08 1.91121e-14)
(0.115986 7.10726e-08 1.9196e-14)
(0.115986 7.11642e-08 1.9201e-14)
(0.115986 7.13276e-08 1.91513e-14)
(0.115986 7.14523e-08 1.92503e-14)
(0.115986 7.14287e-08 1.92215e-14)
(0.115986 7.13819e-08 1.93048e-14)
(0.115986 7.13911e-08 1.92835e-14)
(0.115986 7.14263e-08 1.92188e-14)
(0.115986 7.12482e-08 1.92936e-14)
(0.115986 7.09196e-08 1.92714e-14)
(0.115986 7.06014e-08 1.93492e-14)
(0.115986 7.01881e-08 1.93328e-14)
(0.115986 6.98324e-08 1.92782e-14)
(0.115986 6.95427e-08 1.92386e-14)
(0.115986 6.90597e-08 1.92152e-14)
(0.115986 6.84028e-08 1.91977e-14)
(0.115986 6.77115e-08 1.91932e-14)
(0.115986 6.70327e-08 1.91917e-14)
(0.115986 6.62724e-08 1.91971e-14)
(0.115986 6.55248e-08 1.91993e-14)
(0.115986 6.48775e-08 1.91843e-14)
(0.115986 6.42565e-08 1.91726e-14)
(0.115986 6.34305e-08 1.91699e-14)
(0.115986 6.2573e-08 1.91707e-14)
(0.115986 6.18869e-08 1.91673e-14)
(0.115986 6.10756e-08 1.91572e-14)
(0.115986 6.01178e-08 1.91572e-14)
(0.115986 5.89965e-08 1.91635e-14)
(0.115986 5.7541e-08 1.91791e-14)
(0.115986 5.57977e-08 1.919e-14)
(0.115986 5.32759e-08 1.91863e-14)
(0.115986 5.08023e-08 1.91881e-14)
(0.115986 4.39671e-08 1.91899e-14)
(0.115986 3.44819e-08 1.91921e-14)
(0.115986 2.92228e-08 1.91904e-14)
(0.115986 2.59261e-08 1.91785e-14)
(0.115986 2.32924e-08 1.9174e-14)
(0.115986 2.12025e-08 1.91773e-14)
(0.115986 1.93575e-08 1.91904e-14)
(0.115986 1.78709e-08 1.92061e-14)
(0.115986 1.67278e-08 1.92114e-14)
(0.115986 1.56131e-08 1.92133e-14)
(0.115986 1.4556e-08 1.92155e-14)
(0.115986 1.35701e-08 1.92161e-14)
(0.115986 1.2433e-08 1.9212e-14)
(0.115986 1.04731e-08 1.92024e-14)
(0.115986 8.14381e-09 1.92028e-14)
(0.115986 3.36252e-09 1.92019e-14)
(0.115986 -1.9855e-09 1.91935e-14)
(0.115986 -1.4757e-08 1.91818e-14)
(0.115986 -3.16711e-08 1.91655e-14)
(0.115986 -6.08839e-08 1.91414e-14)
(0.114869 -1.02087e-07 1.90282e-14)
(0.114869 -1.36937e-07 1.86697e-14)
(0.114869 -1.66314e-07 1.87072e-14)
(0.114869 -1.88624e-07 1.88592e-14)
(0.114869 -2.04022e-07 1.88132e-14)
(0.114869 -2.13677e-07 1.88738e-14)
(0.114869 -2.18365e-07 1.88224e-14)
(0.114869 -2.18727e-07 1.88263e-14)
(0.114869 -2.15383e-07 1.88294e-14)
(0.114869 -2.09138e-07 1.87657e-14)
(0.114869 -2.00887e-07 1.87852e-14)
(0.114869 -1.91001e-07 1.86807e-14)
(0.114869 -1.80025e-07 1.87341e-14)
(0.114869 -1.68585e-07 1.86286e-14)
(0.114869 -1.56917e-07 1.87925e-14)
(0.114869 -1.45206e-07 1.85944e-14)
(0.114869 -1.3369e-07 1.85317e-14)
(0.114869 -1.22362e-07 1.85676e-14)
(0.114869 -1.11639e-07 1.84834e-14)
(0.114869 -1.01533e-07 1.86417e-14)
(0.114869 -9.23772e-08 1.84299e-14)
(0.114869 -8.4086e-08 1.83503e-14)
(0.114869 -7.69674e-08 1.83389e-14)
(0.114869 -6.8081e-08 1.81086e-14)
(0.114869 -5.72364e-08 1.80995e-14)
(0.114869 -4.80715e-08 1.80065e-14)
(0.114869 -4.02675e-08 1.77631e-14)
(0.114869 -3.32776e-08 1.79071e-14)
(0.114869 -2.67196e-08 1.77602e-14)
(0.114869 -2.07632e-08 1.77988e-14)
(0.114869 -1.51447e-08 1.7699e-14)
(0.114869 -9.55846e-09 1.75714e-14)
(0.114869 -4.26403e-09 1.76907e-14)
(0.114869 5.6081e-10 1.7577e-14)
(0.114869 5.29905e-09 1.76487e-14)
(0.114868 9.91471e-09 1.75615e-14)
(0.114868 1.43251e-08 1.73615e-14)
(0.114868 1.8654e-08 1.75604e-14)
(0.114868 2.26881e-08 1.74206e-14)
(0.114868 2.63615e-08 1.74752e-14)
(0.114868 2.98242e-08 1.75419e-14)
(0.114868 3.31774e-08 1.77525e-14)
(0.114868 3.66473e-08 1.78693e-14)
(0.114868 3.97803e-08 1.79391e-14)
(0.114868 4.24844e-08 1.79955e-14)
(0.114868 4.51339e-08 1.80044e-14)
(0.114868 4.76187e-08 1.81443e-14)
(0.114868 5.00195e-08 1.82113e-14)
(0.114868 5.22312e-08 1.82265e-14)
(0.114868 5.41899e-08 1.8245e-14)
(0.114868 5.6087e-08 1.8235e-14)
(0.114868 5.78819e-08 1.83627e-14)
(0.114868 5.93955e-08 1.83822e-14)
(0.114868 6.07509e-08 1.85055e-14)
(0.114868 6.19391e-08 1.85458e-14)
(0.114868 6.30126e-08 1.85254e-14)
(0.114868 6.40118e-08 1.86474e-14)
(0.114868 6.5007e-08 1.86537e-14)
(0.114868 6.59374e-08 1.87603e-14)
(0.114868 6.65492e-08 1.87745e-14)
(0.114868 6.70547e-08 1.87363e-14)
(0.114868 6.75424e-08 1.88371e-14)
(0.114868 6.7971e-08 1.88281e-14)
(0.114868 6.84576e-08 1.89075e-14)
(0.114868 6.89749e-08 1.89029e-14)
(0.114868 6.94132e-08 1.88482e-14)
(0.114868 6.97724e-08 1.89348e-14)
(0.114868 6.98915e-08 1.89103e-14)
(0.114868 6.99145e-08 1.89934e-14)
(0.114868 6.99855e-08 1.90031e-14)
(0.114868 7.01542e-08 1.89573e-14)
(0.114868 7.02487e-08 1.90503e-14)
(0.114868 7.01963e-08 1.90201e-14)
(0.114868 7.01472e-08 1.90966e-14)
(0.114868 7.01255e-08 1.90832e-14)
(0.114868 7.01267e-08 1.90206e-14)
(0.114868 6.99228e-08 1.9096e-14)
(0.114868 6.96117e-08 1.90668e-14)
(0.114868 6.92882e-08 1.91422e-14)
(0.114868 6.88913e-08 1.91304e-14)
(0.114868 6.85811e-08 1.90807e-14)
(0.114869 6.83568e-08 1.90418e-14)
(0.114869 6.78578e-08 1.90103e-14)
(0.114869 6.71921e-08 1.89777e-14)
(0.114869 6.65617e-08 1.89638e-14)
(0.114869 6.58707e-08 1.89556e-14)
(0.114869 6.51105e-08 1.8962e-14)
(0.114869 6.43774e-08 1.8964e-14)
(0.114869 6.37271e-08 1.8945e-14)
(0.114869 6.31485e-08 1.89317e-14)
(0.114869 6.23692e-08 1.89226e-14)
(0.114869 6.15305e-08 1.89267e-14)
(0.114869 6.08648e-08 1.89265e-14)
(0.114869 6.00756e-08 1.89121e-14)
(0.114869 5.91441e-08 1.89106e-14)
(0.114869 5.8098e-08 1.89169e-14)
(0.114869 5.67132e-08 1.8937e-14)
(0.114869 5.50072e-08 1.89491e-14)
(0.114869 5.25661e-08 1.89418e-14)
(0.114869 4.99475e-08 1.89437e-14)
(0.114869 4.48082e-08 1.89433e-14)
(0.114869 3.6556e-08 1.89505e-14)
(0.114869 2.9793e-08 1.89526e-14)
(0.114869 2.53237e-08 1.89388e-14)
(0.114869 2.23121e-08 1.89346e-14)
(0.114869 2.0155e-08 1.89361e-14)
(0.114869 1.82764e-08 1.89542e-14)
(0.114869 1.68201e-08 1.89725e-14)
(0.114869 1.57343e-08 1.89736e-14)
(0.114869 1.46518e-08 1.89744e-14)
(0.114869 1.36194e-08 1.89779e-14)
(0.114869 1.25792e-08 1.89795e-14)
(0.114869 1.13829e-08 1.89763e-14)
(0.114869 9.41208e-09 1.89619e-14)
(0.114869 7.03683e-09 1.89616e-14)
(0.114869 2.21084e-09 1.89645e-14)
(0.114869 -3.12112e-09 1.89595e-14)
(0.114869 -1.58562e-08 1.89482e-14)
(0.114869 -3.28959e-08 1.89278e-14)
(0.114869 -6.11381e-08 1.8906e-14)
(0.113712 -1.00545e-07 1.87367e-14)
(0.113712 -1.35052e-07 1.84873e-14)
(0.113712 -1.64683e-07 1.85628e-14)
(0.113712 -1.87334e-07 1.86968e-14)
(0.113712 -2.03024e-07 1.85795e-14)
(0.113712 -2.1296e-07 1.86543e-14)
(0.113712 -2.1782e-07 1.8531e-14)
(0.113712 -2.18254e-07 1.85341e-14)
(0.113712 -2.14926e-07 1.8558e-14)
(0.113712 -2.08703e-07 1.84735e-14)
(0.113712 -2.00464e-07 1.84942e-14)
(0.113712 -1.9055e-07 1.84582e-14)
(0.113712 -1.79558e-07 1.84805e-14)
(0.113712 -1.68104e-07 1.84172e-14)
(0.113712 -1.56354e-07 1.85047e-14)
(0.113712 -1.44603e-07 1.84217e-14)
(0.113712 -1.33099e-07 1.83429e-14)
(0.113712 -1.21723e-07 1.834e-14)
(0.113712 -1.1093e-07 1.82775e-14)
(0.113712 -1.00796e-07 1.83569e-14)
(0.113712 -9.16367e-08 1.82359e-14)
(0.113712 -8.32166e-08 1.81809e-14)
(0.113712 -7.58292e-08 1.81568e-14)
(0.113712 -6.74153e-08 1.80128e-14)
(0.113712 -5.72488e-08 1.79791e-14)
(0.113712 -4.79592e-08 1.7921e-14)
(0.113712 -3.97428e-08 1.77809e-14)
(0.113712 -3.23832e-08 1.78095e-14)
(0.113712 -2.5586e-08 1.77113e-14)
(0.113712 -1.94545e-08 1.7726e-14)
(0.113712 -1.367e-08 1.77069e-14)
(0.113712 -7.92898e-09 1.75863e-14)
(0.113712 -2.5675e-09 1.76232e-14)
(0.113712 2.30399e-09 1.75673e-14)
(0.113712 7.10372e-09 1.76035e-14)
(0.113712 1.17848e-08 1.75247e-14)
(0.113712 1.62071e-08 1.74435e-14)
(0.113712 2.05178e-08 1.75021e-14)
(0.113712 2.45122e-08 1.74207e-14)
(0.113712 2.81152e-08 1.74429e-14)
(0.113712 3.15283e-08 1.74688e-14)
(0.113712 3.48555e-08 1.76734e-14)
(0.113712 3.82696e-08 1.77308e-14)
(0.113712 4.12951e-08 1.77876e-14)
(0.113712 4.38429e-08 1.78285e-14)
(0.113712 4.63391e-08 1.78298e-14)
(0.113712 4.87364e-08 1.79958e-14)
(0.113712 5.10448e-08 1.80239e-14)
(0.113712 5.30875e-08 1.80443e-14)
(0.113712 5.48925e-08 1.8058e-14)
(0.113712 5.66563e-08 1.80448e-14)
(0.113712 5.82678e-08 1.8203e-14)
(0.113712 5.96608e-08 1.81864e-14)
(0.113712 6.09213e-08 1.83363e-14)
(0.113712 6.19422e-08 1.83521e-14)
(0.113712 6.28614e-08 1.83341e-14)
(0.113712 6.37641e-08 1.84832e-14)
(0.113712 6.4662e-08 1.84522e-14)
(0.113712 6.5447e-08 1.85859e-14)
(0.113712 6.59642e-08 1.85766e-14)
(0.113712 6.63719e-08 1.85404e-14)
(0.113712 6.67396e-08 1.86712e-14)
(0.113712 6.70947e-08 1.8624e-14)
(0.113712 6.74929e-08 1.87303e-14)
(0.113712 6.79599e-08 1.87007e-14)
(0.113712 6.83337e-08 1.86484e-14)
(0.113712 6.86227e-08 1.87636e-14)
(0.113712 6.86831e-08 1.87018e-14)
(0.113712 6.86064e-08 1.88105e-14)
(0.113712 6.8649e-08 1.87937e-14)
(0.113712 6.88379e-08 1.87517e-14)
(0.113712 6.88975e-08 1.88733e-14)
(0.113712 6.88274e-08 1.88084e-14)
(0.113712 6.87539e-08 1.89089e-14)
(0.113712 6.86737e-08 1.8871e-14)
(0.113712 6.86416e-08 1.88093e-14)
(0.113712 6.84008e-08 1.89167e-14)
(0.113712 6.81072e-08 1.88516e-14)
(0.113712 6.77912e-08 1.89536e-14)
(0.113712 6.74325e-08 1.8917e-14)
(0.113712 6.71846e-08 1.88675e-14)
(0.113712 6.69809e-08 1.88338e-14)
(0.113712 6.6464e-08 1.87942e-14)
(0.113712 6.57971e-08 1.87448e-14)
(0.113712 6.521e-08 1.87268e-14)
(0.113712 6.45014e-08 1.8713e-14)
(0.113712 6.37459e-08 1.87241e-14)
(0.113712 6.30173e-08 1.87241e-14)
(0.113712 6.23655e-08 1.86969e-14)
(0.113712 6.18048e-08 1.86854e-14)
(0.113712 6.10934e-08 1.86716e-14)
(0.113712 6.0292e-08 1.86825e-14)
(0.113712 5.96304e-08 1.86823e-14)
(0.113712 5.89167e-08 1.86596e-14)
(0.113712 5.80335e-08 1.86589e-14)
(0.113712 5.70154e-08 1.86656e-14)
(0.113712 5.56924e-08 1.8694e-14)
(0.113712 5.40564e-08 1.87051e-14)
(0.113712 5.17036e-08 1.86904e-14)
(0.113712 4.88724e-08 1.86965e-14)
(0.113712 4.51474e-08 1.8694e-14)
(0.113712 3.88537e-08 1.87079e-14)
(0.113712 3.17852e-08 1.87115e-14)
(0.113712 2.62623e-08 1.86919e-14)
(0.113712 2.25027e-08 1.8691e-14)
(0.113712 1.99646e-08 1.8692e-14)
(0.113712 1.7897e-08 1.87176e-14)
(0.113712 1.63567e-08 1.87366e-14)
(0.113712 1.52394e-08 1.87298e-14)
(0.113712 1.40852e-08 1.8732e-14)
(0.113712 1.30114e-08 1.87372e-14)
(0.113712 1.19293e-08 1.87383e-14)
(0.113712 1.06523e-08 1.87337e-14)
(0.113712 8.62233e-09 1.87128e-14)
(0.113712 6.19433e-09 1.87171e-14)
(0.113712 1.30916e-09 1.87245e-14)
(0.113712 -4.03946e-09 1.87207e-14)
(0.113712 -1.67049e-08 1.87073e-14)
(0.113712 -3.37722e-08 1.86806e-14)
(0.113712 -6.10512e-08 1.86679e-14)
(0.112514 -9.8589e-08 1.84496e-14)
(0.112514 -1.32505e-07 1.83798e-14)
(0.112514 -1.62216e-07 1.84867e-14)
(0.112514 -1.85229e-07 1.84278e-14)
(0.112514 -2.01277e-07 1.83043e-14)
(0.112514 -2.11504e-07 1.84261e-14)
(0.112514 -2.16599e-07 1.81789e-14)
(0.112514 -2.1714e-07 1.82448e-14)
(0.112514 -2.13871e-07 1.82812e-14)
(0.112514 -2.07734e-07 1.81542e-14)
(0.112514 -1.99518e-07 1.82067e-14)
(0.112514 -1.8962e-07 1.82165e-14)
(0.112514 -1.78678e-07 1.82234e-14)
(0.112514 -1.67255e-07 1.8182e-14)
(0.112514 -1.5549e-07 1.82165e-14)
(0.112514 -1.43721e-07 1.81919e-14)
(0.112514 -1.32244e-07 1.8138e-14)
(0.112514 -1.20856e-07 1.81108e-14)
(0.112514 -1.09998e-07 1.80595e-14)
(0.112514 -9.98953e-08 1.80839e-14)
(0.112514 -9.07393e-08 1.8021e-14)
(0.112514 -8.2166e-08 1.7997e-14)
(0.112514 -7.45264e-08 1.79628e-14)
(0.112514 -6.64299e-08 1.78872e-14)
(0.112514 -5.70669e-08 1.78579e-14)
(0.112514 -4.81215e-08 1.7817e-14)
(0.112514 -3.9821e-08 1.7753e-14)
(0.112514 -3.2226e-08 1.77147e-14)
(0.112514 -2.51561e-08 1.76666e-14)
(0.112514 -1.88003e-08 1.76596e-14)
(0.112514 -1.27849e-08 1.76714e-14)
(0.112514 -6.83295e-09 1.76057e-14)
(0.112514 -1.37859e-09 1.75686e-14)
(0.112514 3.55781e-09 1.75744e-14)
(0.112514 8.48343e-09 1.75694e-14)
(0.112514 1.32536e-08 1.75192e-14)
(0.112514 1.76958e-08 1.74795e-14)
(0.112514 2.20278e-08 1.74605e-14)
(0.112514 2.59889e-08 1.74291e-14)
(0.112514 2.95343e-08 1.74278e-14)
(0.112514 3.29374e-08 1.741e-14)
(0.112514 3.62626e-08 1.75311e-14)
(0.112514 3.962e-08 1.75941e-14)
(0.112514 4.25486e-08 1.76421e-14)
(0.112514 4.49522e-08 1.76642e-14)
(0.112514 4.73285e-08 1.76611e-14)
(0.112514 4.96656e-08 1.77749e-14)
(0.112514 5.18777e-08 1.78307e-14)
(0.112514 5.37712e-08 1.78613e-14)
(0.112514 5.54273e-08 1.78674e-14)
(0.112514 5.70586e-08 1.78548e-14)
(0.112514 5.85111e-08 1.79679e-14)
(0.112514 5.9778e-08 1.79828e-14)
(0.112514 6.09569e-08 1.80898e-14)
(0.112514 6.18629e-08 1.81491e-14)
(0.112514 6.26191e-08 1.81415e-14)
(0.112514 6.33841e-08 1.824e-14)
(0.112514 6.41807e-08 1.82377e-14)
(0.112514 6.48443e-08 1.83287e-14)
(0.112514 6.52543e-08 1.83644e-14)
(0.112514 6.55437e-08 1.83386e-14)
(0.112514 6.5791e-08 1.84207e-14)
(0.112514 6.6092e-08 1.84036e-14)
(0.112514 6.64311e-08 1.84653e-14)
(0.112514 6.68087e-08 1.84798e-14)
(0.112514 6.70883e-08 1.84403e-14)
(0.112514 6.73079e-08 1.85073e-14)
(0.112514 6.73129e-08 1.84754e-14)
(0.112514 6.71699e-08 1.854e-14)
(0.112514 6.7205e-08 1.8564e-14)
(0.112514 6.73851e-08 1.85364e-14)
(0.112514 6.73844e-08 1.861e-14)
(0.112514 6.73002e-08 1.85769e-14)
(0.112514 6.71957e-08 1.86323e-14)
(0.112514 6.70344e-08 1.86388e-14)
(0.112514 6.69813e-08 1.85887e-14)
(0.112514 6.66967e-08 1.86486e-14)
(0.112514 6.63888e-08 1.86159e-14)
(0.112514 6.61474e-08 1.8677e-14)
(0.112514 6.58371e-08 1.86838e-14)
(0.112514 6.56068e-08 1.86391e-14)
(0.112514 6.54087e-08 1.8614e-14)
(0.112514 6.48789e-08 1.85634e-14)
(0.112514 6.42386e-08 1.84949e-14)
(0.112514 6.36453e-08 1.84814e-14)
(0.112514 6.29291e-08 1.84623e-14)
(0.112514 6.21983e-08 1.84839e-14)
(0.112514 6.14575e-08 1.84774e-14)
(0.112514 6.08022e-08 1.84376e-14)
(0.112514 6.0249e-08 1.84342e-14)
(0.112514 5.96206e-08 1.84158e-14)
(0.112514 5.88737e-08 1.84395e-14)
(0.112514 5.82318e-08 1.84336e-14)
(0.112514 5.75887e-08 1.83974e-14)
(0.112514 5.67406e-08 1.84023e-14)
(0.112514 5.57635e-08 1.84089e-14)
(0.112514 5.45252e-08 1.84532e-14)
(0.112514 5.29273e-08 1.84571e-14)
(0.112514 5.06927e-08 1.843e-14)
(0.112515 4.76897e-08 1.84485e-14)
(0.112515 4.48376e-08 1.84417e-14)
(0.112515 4.04633e-08 1.84641e-14)
(0.112514 3.40396e-08 1.84654e-14)
(0.112514 2.80649e-08 1.84361e-14)
(0.112514 2.36444e-08 1.84432e-14)
(0.112514 2.05513e-08 1.84444e-14)
(0.112514 1.81656e-08 1.84811e-14)
(0.112514 1.64828e-08 1.84969e-14)
(0.112514 1.51933e-08 1.84777e-14)
(0.112514 1.39298e-08 1.84854e-14)
(0.112514 1.27926e-08 1.84934e-14)
(0.112514 1.16099e-08 1.84914e-14)
(0.112514 1.02267e-08 1.84829e-14)
(0.112514 8.10814e-09 1.84535e-14)
(0.112514 5.58926e-09 1.84706e-14)
(0.112514 6.57809e-10 1.84824e-14)
(0.112514 -4.70428e-09 1.84763e-14)
(0.112514 -1.72973e-08 1.84582e-14)
(0.112514 -3.43015e-08 1.8423e-14)
(0.112514 -6.06164e-08 1.8428e-14)
(0.111272 -9.62023e-08 1.81592e-14)
(0.111272 -1.29319e-07 1.81407e-14)
(0.111272 -1.58959e-07 1.8196e-14)
(0.111272 -1.82226e-07 1.81407e-14)
(0.111272 -1.98633e-07 1.80139e-14)
(0.111272 -2.09298e-07 1.80911e-14)
(0.111272 -2.14691e-07 1.79754e-14)
(0.111272 -2.15374e-07 1.79789e-14)
(0.111272 -2.12215e-07 1.79933e-14)
(0.111271 -2.06196e-07 1.79144e-14)
(0.111271 -1.98071e-07 1.79347e-14)
(0.111271 -1.8822e-07 1.79497e-14)
(0.111271 -1.77385e-07 1.79592e-14)
(0.111271 -1.66031e-07 1.79537e-14)
(0.111271 -1.543e-07 1.79277e-14)
(0.111271 -1.42582e-07 1.79458e-14)
(0.111271 -1.31133e-07 1.79369e-14)
(0.111271 -1.19748e-07 1.78709e-14)
(0.111271 -1.08886e-07 1.78126e-14)
(0.111271 -9.88104e-08 1.78136e-14)
(0.111271 -8.96185e-08 1.77755e-14)
(0.111271 -8.09623e-08 1.78041e-14)
(0.111271 -7.30985e-08 1.77547e-14)
(0.111271 -6.51324e-08 1.77569e-14)
(0.111271 -5.64484e-08 1.77334e-14)
(0.111271 -4.80963e-08 1.7695e-14)
(0.111271 -4.00618e-08 1.76797e-14)
(0.111271 -3.24197e-08 1.76081e-14)
(0.111271 -2.51962e-08 1.75776e-14)
(0.111271 -1.85983e-08 1.75942e-14)
(0.111271 -1.23264e-08 1.76222e-14)
(0.111271 -6.21424e-09 1.76421e-14)
(0.111271 -6.18544e-10 1.75089e-14)
(0.111271 4.4442e-09 1.75859e-14)
(0.111271 9.45958e-09 1.75397e-14)
(0.111271 1.43099e-08 1.75277e-14)
(0.111271 1.8826e-08 1.74864e-14)
(0.111271 2.3183e-08 1.7413e-14)
(0.111271 2.71017e-08 1.74511e-14)
(0.111271 3.06149e-08 1.74159e-14)
(0.111271 3.4033e-08 1.73518e-14)
(0.111271 3.73833e-08 1.74195e-14)
(0.111271 4.07024e-08 1.74654e-14)
(0.111271 4.35554e-08 1.75016e-14)
(0.111271 4.58172e-08 1.74987e-14)
(0.111271 4.80593e-08 1.74947e-14)
(0.111271 5.03783e-08 1.75813e-14)
(0.111271 5.25172e-08 1.76412e-14)
(0.111271 5.42734e-08 1.76778e-14)
(0.111271 5.57767e-08 1.76705e-14)
(0.111271 5.72714e-08 1.76626e-14)
(0.111271 5.85946e-08 1.77596e-14)
(0.111271 5.97268e-08 1.77802e-14)
(0.111271 6.08377e-08 1.78678e-14)
(0.111271 6.16384e-08 1.7954e-14)
(0.111271 6.222e-08 1.79448e-14)
(0.111271 6.28763e-08 1.80185e-14)
(0.111271 6.35764e-08 1.80177e-14)
(0.111271 6.40798e-08 1.80887e-14)
(0.111271 6.43796e-08 1.81544e-14)
(0.111271 6.45728e-08 1.81292e-14)
(0.111271 6.47007e-08 1.8187e-14)
(0.111271 6.49608e-08 1.81744e-14)
(0.111271 6.52582e-08 1.82123e-14)
(0.111271 6.55305e-08 1.8256e-14)
(0.111271 6.56864e-08 1.82215e-14)
(0.111271 6.57968e-08 1.82669e-14)
(0.111271 6.57759e-08 1.82388e-14)
(0.111271 6.56126e-08 1.82836e-14)
(0.111271 6.56127e-08 1.83304e-14)
(0.111271 6.57721e-08 1.83089e-14)
(0.111271 6.57367e-08 1.836e-14)
(0.111271 6.5615e-08 1.83336e-14)
(0.111271 6.54395e-08 1.8366e-14)
(0.111271 6.51855e-08 1.84027e-14)
(0.111271 6.51205e-08 1.83568e-14)
(0.111271 6.48352e-08 1.83937e-14)
(0.111271 6.45212e-08 1.83678e-14)
(0.111271 6.4332e-08 1.8415e-14)
(0.111271 6.40915e-08 1.84421e-14)
(0.111272 6.38911e-08 1.83936e-14)
(0.111272 6.36449e-08 1.83792e-14)
(0.111272 6.3112e-08 1.83129e-14)
(0.111272 6.25032e-08 1.82234e-14)
(0.111272 6.19007e-08 1.82309e-14)
(0.111272 6.11629e-08 1.82015e-14)
(0.111272 6.04525e-08 1.82399e-14)
(0.111272 5.97026e-08 1.82199e-14)
(0.111272 5.90466e-08 1.8164e-14)
(0.111272 5.84996e-08 1.81784e-14)
(0.111272 5.79491e-08 1.81544e-14)
(0.111272 5.72944e-08 1.81994e-14)
(0.111272 5.66954e-08 1.81765e-14)
(0.111272 5.61084e-08 1.81221e-14)
(0.111272 5.53123e-08 1.81463e-14)
(0.111272 5.43842e-08 1.81464e-14)
(0.111272 5.31731e-08 1.82213e-14)
(0.111272 5.16176e-08 1.82025e-14)
(0.111272 4.95184e-08 1.81581e-14)
(0.111272 4.64314e-08 1.82061e-14)
(0.111272 4.40453e-08 1.81853e-14)
(0.111272 4.11954e-08 1.8217e-14)
(0.111272 3.59073e-08 1.82106e-14)
(0.111272 3.01226e-08 1.81688e-14)
(0.111272 2.53135e-08 1.81904e-14)
(0.111272 2.17039e-08 1.81924e-14)
(0.111272 1.89917e-08 1.82432e-14)
(0.111272 1.70757e-08 1.82501e-14)
(0.111272 1.55748e-08 1.82144e-14)
(0.111272 1.41602e-08 1.8233e-14)
(0.111272 1.28827e-08 1.82453e-14)
(0.111272 1.15647e-08 1.82369e-14)
(0.111272 1.00569e-08 1.82219e-14)
(0.111272 7.86953e-09 1.81819e-14)
(0.111272 5.27814e-09 1.82224e-14)
(0.111272 2.59064e-10 1.82376e-14)
(0.111272 -5.15835e-09 1.82246e-14)
(0.111272 -1.76448e-08 1.81992e-14)
(0.111272 -3.44967e-08 1.81539e-14)
(0.111272 -5.98231e-08 1.81919e-14)
(0.109981 -9.33247e-08 1.79141e-14)
(0.109981 -1.25509e-07 1.78954e-14)
(0.10998 -1.5491e-07 1.7936e-14)
(0.10998 -1.78309e-07 1.78743e-14)
(0.10998 -1.9515e-07 1.77694e-14)
(0.10998 -2.06332e-07 1.77911e-14)
(0.10998 -2.12052e-07 1.77107e-14)
(0.10998 -2.12965e-07 1.77165e-14)
(0.10998 -2.09973e-07 1.76876e-14)
(0.10998 -2.04102e-07 1.76475e-14)
(0.10998 -1.96064e-07 1.76679e-14)
(0.10998 -1.86345e-07 1.76807e-14)
(0.10998 -1.75724e-07 1.7683e-14)
(0.10998 -1.64448e-07 1.7654e-14)
(0.10998 -1.52796e-07 1.75626e-14)
(0.10998 -1.41209e-07 1.77002e-14)
(0.10998 -1.29732e-07 1.76663e-14)
(0.10998 -1.18348e-07 1.7614e-14)
(0.10998 -1.07599e-07 1.75518e-14)
(0.10998 -9.75617e-08 1.74778e-14)
(0.10998 -8.82864e-08 1.75138e-14)
(0.10998 -7.95241e-08 1.75512e-14)
(0.10998 -7.15207e-08 1.7528e-14)
(0.10998 -6.35786e-08 1.75579e-14)
(0.10998 -5.53953e-08 1.75433e-14)
(0.10998 -4.76935e-08 1.75542e-14)
(0.10998 -4.01087e-08 1.76063e-14)
(0.10998 -3.26709e-08 1.74766e-14)
(0.10998 -2.54444e-08 1.75391e-14)
(0.10998 -1.86355e-08 1.74617e-14)
(0.10998 -1.21526e-08 1.75268e-14)
(0.10998 -5.94325e-09 1.75405e-14)
(0.10998 -2.00416e-10 1.74243e-14)
(0.10998 5.01883e-09 1.74831e-14)
(0.10998 1.01345e-08 1.74403e-14)
(0.10998 1.50182e-08 1.74279e-14)
(0.10998 1.96045e-08 1.75092e-14)
(0.10998 2.40264e-08 1.7341e-14)
(0.10998 2.78865e-08 1.73572e-14)