/*--------------------------------*- C++ -*----------------------------------*\
  =========                 |
  \\      /  F ield         | OpenFOAM: The Open Source CFD Toolbox
   \\    /   O peration     | Website:  https://openfoam.org
    \\  /    A nd           | Version:  7
     \\/     M anipulation  |
\*---------------------------------------------------------------------------*/
FoamFile
{
    version     2.0;
    format      ascii;
    class       volScalarField;
    location    "2000";
    object      omega;
}
// * * * * * * * * * * * * * * * * * * * * * * * * * * * * * * * * * * * * * //

dimensions      [0 0 -1 0 0 0 0];

internalField   nonuniform List<scalar> 
4000
(
999.269
999.269
999.269
999.269
999.269
999.269
999.269
999.269
999.269
999.269
999.269
999.269
999.269
999.269
999.269
999.269
999.269
999.269
999.269
999.269
999.269
999.269
999.269
999.269
999.269
999.269
999.269
999.269
999.269
999.269
999.269
999.269
999.269
999.269
999.269
999.269
999.269
999.269
999.269
999.269
999.269
999.269
999.269
999.269
999.269
999.269
999.269
999.269
999.269
999.269
999.269
999.269
999.269
999.269
999.269
999.269
999.269
999.269
999.269
999.269
999.269
999.269
999.269
999.269
999.269
999.269
999.269
999.269
999.269
999.269
999.269
999.269
999.269
999.269
999.269
999.269
999.269
999.269
999.269
999.269
999.269
999.269
999.269
999.269
999.269
999.269
999.269
999.269
999.269
999.269
999.269
999.269
999.269
999.269
999.269
999.269
999.269
999.269
999.269
999.269
999.269
999.269
999.269
999.269
999.269
999.269
999.269
999.269
999.269
999.269
999.269
999.269
999.269
999.269
999.269
999.269
999.269
999.269
999.269
999.269
173.199
173.199
173.199
173.199
173.199
173.199
173.199
173.199
173.199
173.199
173.199
173.199
173.199
173.199
173.199
173.199
173.199
173.199
173.199
173.199
173.199
173.199
173.199
173.199
173.199
173.199
173.199
173.199
173.199
173.199
173.199
173.199
173.199
173.199
173.199
173.199
173.199
173.199
173.199
173.199
173.199
173.199
173.199
173.199
173.199
173.199
173.199
173.199
173.199
173.199
173.199
173.199
173.199
173.199
173.199
173.199
173.199
173.199
173.199
173.199
173.199
173.199
173.199
173.199
173.199
173.199
173.199
173.199
173.199
173.199
173.199
173.199
173.199
173.199
173.199
173.199
173.199
173.199
173.199
173.199
173.199
173.199
173.199
173.199
173.199
173.199
173.199
173.199
173.199
173.199
173.199
173.199
173.199
173.199
173.199
173.199
173.199
173.199
173.199
173.199
173.199
173.199
173.199
173.199
173.199
173.199
173.199
173.199
173.199
173.199
173.199
173.199
173.199
173.199
173.199
173.199
173.199
173.199
173.199
173.199
58.8704
58.8703
58.8703
58.8703
58.8704
58.8704
58.8704
58.8704
58.8704
58.8704
58.8704
58.8704
58.8704
58.8704
58.8704
58.8704
58.8704
58.8704
58.8704
58.8704
58.8704
58.8704
58.8704
58.8704
58.8704
58.8704
58.8704
58.8704
58.8704
58.8704
58.8704
58.8704
58.8704
58.8704
58.8704
58.8704
58.8704
58.8704
58.8704
58.8704
58.8704
58.8704
58.8704
58.8704
58.8704
58.8704
58.8704
58.8704
58.8704
58.8704
58.8704
58.8704
58.8704
58.8704
58.8704
58.8704
58.8704
58.8704
58.8704
58.8704
58.8705
58.8705
58.8705
58.8705
58.8705
58.8705
58.8705
58.8705
58.8705
58.8705
58.8705
58.8705
58.8705
58.8705
58.8705
58.8705
58.8705
58.8705
58.8705
58.8705
58.8705
58.8705
58.8705
58.8705
58.8705
58.8705
58.8705
58.8705
58.8705
58.8705
58.8705
58.8705
58.8705
58.8705
58.8705
58.8705
58.8705
58.8705
58.8705
58.8705
58.8705
58.8705
58.8705
58.8705
58.8704
58.8704
58.8704
58.8704
58.8704
58.8704
58.8704
58.8704
58.8704
58.8704
58.8704
58.8704
58.8704
58.8704
58.8704
58.8704
28.5281
28.528
28.5279
28.5279
28.5279
28.5279
28.5279
28.5279
28.5279
28.5279
28.5279
28.5279
28.5279
28.5279
28.5279
28.5279
28.5279
28.5279
28.5279
28.5279
28.5279
28.5279
28.5279
28.5279
28.5279
28.5279
28.5279
28.5279
28.5279
28.528
28.528
28.528
28.528
28.528
28.528
28.528
28.528
28.528
28.528
28.528
28.528
28.528
28.528
28.528
28.528
28.528
28.528
28.528
28.528
28.528
28.528
28.528
28.528
28.528
28.528
28.528
28.528
28.528
28.528
28.528
28.528
28.528
28.5281
28.5281
28.5281
28.5281
28.5281
28.5281
28.5281
28.5281
28.5281
28.5281
28.5281
28.5281
28.5281
28.5281
28.5281
28.5281
28.5281
28.5281
28.5281
28.5281
28.5281
28.5281
28.5281
28.5281
28.5281
28.5281
28.5281
28.5281
28.5281
28.5281
28.5281
28.5281
28.5281
28.5281
28.5281
28.5281
28.5281
28.5281
28.5281
28.5281
28.5281
28.5281
28.5281
28.528
28.528
28.528
28.528
28.528
28.528
28.528
28.528
28.528
28.528
28.528
28.528
28.528
28.528
28.528
17.2189
17.2187
17.2186
17.2186
17.2186
17.2186
17.2186
17.2186
17.2186
17.2186
17.2186
17.2186
17.2186
17.2186
17.2186
17.2186
17.2186
17.2186
17.2186
17.2186
17.2186
17.2186
17.2186
17.2186
17.2186
17.2186
17.2186
17.2186
17.2186
17.2186
17.2186
17.2186
17.2186
17.2186
17.2186
17.2186
17.2186
17.2186
17.2186
17.2187
17.2187
17.2187
17.2187
17.2187
17.2187
17.2187
17.2187
17.2187
17.2187
17.2187
17.2187
17.2187
17.2187
17.2187
17.2187
17.2187
17.2187
17.2187
17.2187
17.2187
17.2187
17.2187
17.2187
17.2187
17.2187
17.2187
17.2187
17.2188
17.2188
17.2188
17.2188
17.2188
17.2188
17.2188
17.2188
17.2188
17.2188
17.2188
17.2188
17.2188
17.2188
17.2188
17.2188
17.2188
17.2188
17.2188
17.2188
17.2188
17.2188
17.2188
17.2188
17.2188
17.2188
17.2188
17.2188
17.2188
17.2188
17.2188
17.2188
17.2188
17.2188
17.2188
17.2188
17.2188
17.2188
17.2187
17.2187
17.2187
17.2187
17.2187
17.2187
17.2187
17.2186
17.2186
17.2186
17.2186
17.2186
17.2187
17.2187
17.2187
11.9793
11.9791
11.979
11.9789
11.9789
11.9789
11.9789
11.9789
11.9789
11.9789
11.9789
11.9789
11.9789
11.9789
11.9789
11.9789
11.9789
11.9789
11.9789
11.9789
11.9789
11.9789
11.9789
11.9789
11.9789
11.9789
11.9789
11.9789
11.9789
11.9789
11.9789
11.9789
11.9789
11.9789
11.9789
11.9789
11.9789
11.9789
11.9789
11.9789
11.9789
11.9789
11.979
11.979
11.979
11.979
11.979
11.979
11.979
11.979
11.979
11.9789
11.9789
11.9789
11.979
11.979
11.979
11.979
11.979
11.979
11.979
11.979
11.979
11.979
11.979
11.979
11.979
11.979
11.979
11.979
11.979
11.979
11.979
11.9791
11.9791
11.9791
11.9791
11.9791
11.9791
11.9791
11.9791
11.9791
11.9791
11.9791
11.9791
11.9791
11.9791
11.9791
11.9791
11.9791
11.9791
11.9791
11.9791
11.9791
11.9791
11.9791
11.9791
11.979
11.979
11.979
11.979
11.979
11.979
11.9791
11.9791
11.979
11.979
11.979
11.979
11.979
11.979
11.9789
11.9789
11.9789
11.9789
11.9789
11.9789
11.9789
11.9789
11.979
9.08169
9.08156
9.08141
9.08131
9.08127
9.08124
9.08123
9.08122
9.08122
9.08122
9.08122
9.08122
9.08122
9.08122
9.08122
9.08122
9.08122
9.08122
9.08122
9.08122
9.08122
9.08122
9.08122
9.08122
9.08122
9.08122
9.08122
9.08122
9.08122
9.08122
9.08122
9.08122
9.08122
9.08123
9.08123
9.08123
9.08123
9.08124
9.08124
9.08124
9.08125
9.08126
9.08127
9.08128
9.08129
9.08131
9.08131
9.0813
9.08129
9.08128
9.08127
9.08126
9.08126
9.08126
9.08126
9.08126
9.08127
9.08127
9.08128
9.08128
9.08129
9.08129
9.0813
9.0813
9.08131
9.08131
9.08131
9.08132
9.08132
9.08133
9.08133
9.08133
9.08134
9.08134
9.08134
9.08135
9.08135
9.08135
9.08136
9.08136
9.08136
9.08136
9.08137
9.08137
9.08137
9.08137
9.08137
9.08137
9.08137
9.08137
9.08137
9.08136
9.08136
9.08136
9.08136
9.08136
9.08136
9.08135
9.08135
9.08135
9.08135
9.08136
9.08136
9.08137
9.08138
9.08137
9.08135
9.08133
9.08131
9.0813
9.08129
9.08128
9.08127
9.08127
9.08127
9.08127
9.08127
9.08128
9.08128
9.0813
7.23637
7.2363
7.23616
7.23606
7.236
7.23597
7.23595
7.23594
7.23593
7.23593
7.23592
7.23592
7.23592
7.23592
7.23592
7.23592
7.23592
7.23591
7.23591
7.23591
7.23591
7.23591
7.23591
7.2359
7.2359
7.2359
7.2359
7.2359
7.2359
7.2359
7.2359
7.2359
7.2359
7.2359
7.2359
7.2359
7.2359
7.2359
7.2359
7.2359
7.2359
7.23591
7.23592
7.23593
7.23594
7.23596
7.23597
7.23596
7.23595
7.23594
7.23593
7.23592
7.23592
7.23591
7.23591
7.23591
7.23592
7.23592
7.23592
7.23593
7.23593
7.23593
7.23594
7.23594
7.23594
7.23595
7.23595
7.23595
7.23595
7.23596
7.23596
7.23596
7.23597
7.23597
7.23597
7.23597
7.23598
7.23598
7.23598
7.23599
7.23599
7.23599
7.23599
7.236
7.236
7.236
7.236
7.236
7.236
7.236
7.236
7.236
7.236
7.236
7.236
7.236
7.236
7.236
7.236
7.236
7.236
7.236
7.23601
7.23602
7.23603
7.23603
7.23602
7.23601
7.23599
7.23598
7.23596
7.23595
7.23595
7.23594
7.23594
7.23594
7.23594
7.23595
7.23596
7.23595
5.94698
5.94694
5.94683
5.94674
5.94668
5.94663
5.94661
5.94659
5.94658
5.94658
5.94657
5.94657
5.94656
5.94656
5.94656
5.94656
5.94655
5.94655
5.94655
5.94655
5.94654
5.94654
5.94654
5.94654
5.94653
5.94653
5.94653
5.94653
5.94652
5.94652
5.94652
5.94652
5.94652
5.94651
5.94651
5.94651
5.94651
5.94651
5.94651
5.94651
5.94651
5.94651
5.94652
5.94653
5.94654
5.94656
5.94657
5.94657
5.94656
5.94655
5.94654
5.94653
5.94653
5.94652
5.94652
5.94652
5.94652
5.94652
5.94652
5.94652
5.94653
5.94653
5.94653
5.94653
5.94654
5.94654
5.94654
5.94654
5.94654
5.94654
5.94655
5.94655
5.94655
5.94655
5.94655
5.94656
5.94656
5.94656
5.94656
5.94657
5.94657
5.94657
5.94657
5.94658
5.94658
5.94658
5.94658
5.94659
5.94659
5.94659
5.94659
5.94659
5.94659
5.94659
5.94659
5.94659
5.94659
5.94659
5.94659
5.94659
5.94659
5.94659
5.9466
5.94661
5.94663
5.94663
5.94663
5.94662
5.9466
5.94659
5.94658
5.94657
5.94656
5.94656
5.94656
5.94655
5.94655
5.94656
5.94657
5.94656
4.99519
4.99519
4.9951
4.99502
4.99496
4.99492
4.99489
4.99487
4.99486
4.99485
4.99484
4.99484
4.99483
4.99483
4.99482
4.99482
4.99482
4.99481
4.99481
4.99481
4.9948
4.9948
4.9948
4.9948
4.99479
4.99479
4.99479
4.99478
4.99478
4.99478
4.99477
4.99477
4.99477
4.99477
4.99476
4.99476
4.99476
4.99476
4.99475
4.99475
4.99475
4.99476
4.99476
4.99477
4.99478
4.99479
4.9948
4.9948
4.9948
4.99479
4.99478
4.99478
4.99477
4.99476
4.99476
4.99476
4.99476
4.99476
4.99476
4.99476
4.99476
4.99476
4.99476
4.99477
4.99477
4.99477
4.99477
4.99477
4.99477
4.99477
4.99477
4.99477
4.99477
4.99478
4.99478
4.99478
4.99478
4.99478
4.99478
4.99479
4.99479
4.99479
4.99479
4.9948
4.9948
4.9948
4.99481
4.99481
4.99481
4.99481
4.99481
4.99481
4.99481
4.99481
4.99481
4.99481
4.99481
4.99481
4.99481
4.99481
4.99481
4.99482
4.99483
4.99484
4.99485
4.99486
4.99486
4.99485
4.99484
4.99483
4.99482
4.99482
4.99481
4.9948
4.9948
4.9948
4.9948
4.9948
4.99481
4.99479
4.26794
4.26795
4.26789
4.26782
4.26777
4.26772
4.26769
4.26767
4.26766
4.26765
4.26764
4.26763
4.26763
4.26762
4.26762
4.26761
4.26761
4.26761
4.2676
4.2676
4.2676
4.26759
4.26759
4.26759
4.26758
4.26758
4.26758
4.26757
4.26757
4.26756
4.26756
4.26756
4.26755
4.26755
4.26755
4.26754
4.26754
4.26754
4.26754
4.26753
4.26753
4.26753
4.26754
4.26754
4.26755
4.26756
4.26757
4.26757
4.26757
4.26757
4.26756
4.26755
4.26755
4.26754
4.26754
4.26753
4.26753
4.26753
4.26753
4.26753
4.26753
4.26754
4.26754
4.26754
4.26754
4.26754
4.26754
4.26754
4.26754
4.26754
4.26754
4.26754
4.26754
4.26754
4.26754
4.26754
4.26755
4.26755
4.26755
4.26755
4.26755
4.26755
4.26756
4.26756
4.26756
4.26756
4.26757
4.26757
4.26757
4.26757
4.26757
4.26757
4.26757
4.26757
4.26757
4.26757
4.26757
4.26757
4.26757
4.26757
4.26758
4.26758
4.26759
4.2676
4.26761
4.26762
4.26762
4.26762
4.26761
4.2676
4.2676
4.26759
4.26758
4.26758
4.26758
4.26757
4.26757
4.26757
4.26759
4.26756
3.69821
3.69824
3.69819
3.69813
3.69808
3.69805
3.69802
3.698
3.69798
3.69797
3.69796
3.69795
3.69794
3.69794
3.69793
3.69793
3.69792
3.69792
3.69792
3.69791
3.69791
3.69791
3.6979
3.6979
3.6979
3.69789
3.69789
3.69788
3.69788
3.69788
3.69787
3.69787
3.69787
3.69786
3.69786
3.69786
3.69785
3.69785
3.69785
3.69784
3.69784
3.69784
3.69784
3.69784
3.69785
3.69786
3.69787
3.69787
3.69787
3.69787
3.69786
3.69786
3.69785
3.69785
3.69784
3.69784
3.69784
3.69784
3.69784
3.69784
3.69784
3.69784
3.69784
3.69784
3.69784
3.69784
3.69784
3.69784
3.69784
3.69784
3.69784
3.69784
3.69784
3.69784
3.69784
3.69784
3.69784
3.69784
3.69784
3.69785
3.69785
3.69785
3.69785
3.69785
3.69786
3.69786
3.69786
3.69786
3.69786
3.69787
3.69787
3.69787
3.69787
3.69787
3.69787
3.69787
3.69787
3.69787
3.69787
3.69787
3.69787
3.69787
3.69788
3.69789
3.6979
3.69791
3.69791
3.69791
3.69791
3.6979
3.6979
3.69789
3.69788
3.69788
3.69788
3.69787
3.69787
3.69787
3.69789
3.69785
3.24282
3.24285
3.24281
3.24277
3.24273
3.24269
3.24267
3.24265
3.24263
3.24262
3.24261
3.2426
3.24259
3.24259
3.24258
3.24258
3.24257
3.24257
3.24256
3.24256
3.24256
3.24255
3.24255
3.24255
3.24254
3.24254
3.24254
3.24253
3.24253
3.24252
3.24252
3.24252
3.24251
3.24251
3.24251
3.2425
3.2425
3.24249
3.24249
3.24249
3.24249
3.24248
3.24248
3.24249
3.24249
3.2425
3.2425
3.24251
3.24251
3.2425
3.2425
3.2425
3.24249
3.24249
3.24248
3.24248
3.24248
3.24248
3.24248
3.24248
3.24248
3.24248
3.24248
3.24248
3.24248
3.24248
3.24248
3.24248
3.24248
3.24248
3.24248
3.24248
3.24248
3.24248
3.24248
3.24248
3.24248
3.24248
3.24248
3.24248
3.24248
3.24249
3.24249
3.24249
3.24249
3.24249
3.24249
3.2425
3.2425
3.2425
3.2425
3.2425
3.2425
3.2425
3.2425
3.2425
3.2425
3.2425
3.2425
3.2425
3.2425
3.2425
3.24251
3.24251
3.24253
3.24253
3.24254
3.24254
3.24253
3.24253
3.24253
3.24252
3.24252
3.24252
3.24251
3.24251
3.24251
3.24251
3.24252
3.24248
2.8725
2.87254
2.87251
2.87247
2.87243
2.87241
2.87238
2.87236
2.87235
2.87233
2.87232
2.87232
2.87231
2.8723
2.8723
2.87229
2.87229
2.87228
2.87228
2.87228
2.87227
2.87227
2.87227
2.87226
2.87226
2.87226
2.87225
2.87225
2.87225
2.87224
2.87224
2.87223
2.87223
2.87223
2.87222
2.87222
2.87221
2.87221
2.87221
2.8722
2.8722
2.8722
2.8722
2.8722
2.8722
2.87221
2.87221
2.87222
2.87222
2.87221
2.87221
2.87221
2.8722
2.8722
2.8722
2.8722
2.87219
2.87219
2.87219
2.87219
2.87219
2.87219
2.87219
2.87219
2.87219
2.87219
2.87219
2.87219
2.87219
2.87219
2.87219
2.87219
2.87219
2.87219
2.87219
2.87219
2.87219
2.87219
2.87219
2.87219
2.87219
2.8722
2.8722
2.8722
2.8722
2.8722
2.8722
2.87221
2.87221
2.87221
2.87221
2.87221
2.87221
2.87221
2.87221
2.87221
2.87221
2.87221
2.87221
2.87221
2.87221
2.87221
2.87221
2.87222
2.87223
2.87223
2.87224
2.87224
2.87224
2.87223
2.87223
2.87223
2.87222
2.87222
2.87222
2.87222
2.87222
2.87222
2.87223
2.87219
2.56678
2.56682
2.56679
2.56676
2.56673
2.5667
2.56668
2.56666
2.56665
2.56664
2.56663
2.56662
2.56661
2.56661
2.5666
2.5666
2.56659
2.56659
2.56659
2.56658
2.56658
2.56657
2.56657
2.56657
2.56656
2.56656
2.56656
2.56655
2.56655
2.56655
2.56654
2.56654
2.56654
2.56653
2.56653
2.56653
2.56652
2.56652
2.56651
2.56651
2.56651
2.56651
2.5665
2.5665
2.56651
2.56651
2.56651
2.56652
2.56652
2.56651
2.56651
2.56651
2.56651
2.5665
2.5665
2.5665
2.5665
2.5665
2.5665
2.5665
2.5665
2.5665
2.5665
2.5665
2.5665
2.5665
2.5665
2.5665
2.5665
2.5665
2.5665
2.5665
2.5665
2.5665
2.5665
2.5665
2.5665
2.5665
2.5665
2.5665
2.5665
2.5665
2.5665
2.5665
2.5665
2.5665
2.56651
2.56651
2.56651
2.56651
2.56651
2.56651
2.56651
2.56651
2.56651
2.56651
2.56651
2.56651
2.56651
2.56651
2.5665
2.56651
2.56651
2.56651
2.56652
2.56653
2.56653
2.56653
2.56653
2.56653
2.56653
2.56652
2.56652
2.56652
2.56652
2.56652
2.56652
2.56651
2.56653
2.56649
2.31097
2.311
2.31099
2.31096
2.31093
2.31091
2.31089
2.31087
2.31086
2.31085
2.31084
2.31083
2.31082
2.31082
2.31081
2.31081
2.3108
2.3108
2.31079
2.31079
2.31079
2.31078
2.31078
2.31078
2.31077
2.31077
2.31077
2.31077
2.31076
2.31076
2.31075
2.31075
2.31075
2.31074
2.31074
2.31074
2.31073
2.31073
2.31073
2.31072
2.31072
2.31072
2.31072
2.31071
2.31072
2.31072
2.31072
2.31072
2.31072
2.31072
2.31072
2.31072
2.31071
2.31071
2.31071
2.31071
2.31071
2.31071
2.31071
2.31071
2.31071
2.31071
2.31071
2.31071
2.31071
2.31071
2.31071
2.31071
2.31071
2.31071
2.31071
2.31071
2.31071
2.31071
2.31071
2.31071
2.31071
2.31071
2.31071
2.31071
2.31071
2.31071
2.31071
2.31071
2.31071
2.31072
2.31072
2.31072
2.31072
2.31072
2.31072
2.31072
2.31072
2.31072
2.31072
2.31072
2.31072
2.31072
2.31071
2.31071
2.31071
2.31071
2.31071
2.31072
2.31072
2.31073
2.31073
2.31073
2.31073
2.31073
2.31073
2.31073
2.31072
2.31072
2.31072
2.31072
2.31072
2.31072
2.31073
2.31069
2.09432
2.09436
2.09434
2.09432
2.09429
2.09427
2.09426
2.09424
2.09423
2.09422
2.09421
2.0942
2.0942
2.09419
2.09418
2.09418
2.09418
2.09417
2.09417
2.09417
2.09416
2.09416
2.09416
2.09415
2.09415
2.09415
2.09414
2.09414
2.09414
2.09413
2.09413
2.09413
2.09412
2.09412
2.09412
2.09411
2.09411
2.09411
2.0941
2.0941
2.0941
2.09409
2.09409
2.09409
2.09409
2.0941
2.0941
2.0941
2.0941
2.09409
2.09409
2.09409
2.09409
2.09409
2.09409
2.09409
2.09409
2.09409
2.09409
2.09409
2.09409
2.09409
2.09409
2.09409
2.09409
2.09409
2.09409
2.09409
2.09409
2.09409
2.09409
2.09409
2.09409
2.09409
2.09409
2.09409
2.09409
2.09409
2.09409
2.09409
2.09409
2.09409
2.09409
2.09409
2.09409
2.09409
2.09409
2.0941
2.0941
2.0941
2.0941
2.0941
2.0941
2.0941
2.0941
2.09409
2.09409
2.09409
2.09409
2.09409
2.09409
2.09409
2.09409
2.09409
2.09409
2.0941
2.0941
2.0941
2.0941
2.0941
2.0941
2.0941
2.09409
2.09409
2.09409
2.09409
2.09409
2.09409
2.0941
2.09406
1.90885
1.90888
1.90887
1.90885
1.90883
1.90881
1.90879
1.90878
1.90877
1.90876
1.90875
1.90875
1.90874
1.90873
1.90873
1.90872
1.90872
1.90872
1.90871
1.90871
1.90871
1.9087
1.9087
1.9087
1.9087
1.90869
1.90869
1.90869
1.90868
1.90868
1.90868
1.90867
1.90867
1.90867
1.90867
1.90866
1.90866
1.90866
1.90865
1.90865
1.90865
1.90864
1.90864
1.90864
1.90864
1.90864
1.90864
1.90864
1.90864
1.90864
1.90864
1.90864
1.90864
1.90864
1.90864
1.90864
1.90864
1.90864
1.90864
1.90864
1.90864
1.90864
1.90864
1.90864
1.90864
1.90864
1.90864
1.90864
1.90864
1.90864
1.90864
1.90864
1.90864
1.90864
1.90864
1.90864
1.90864
1.90864
1.90864
1.90864
1.90864
1.90864
1.90864
1.90864
1.90864
1.90865
1.90865
1.90865
1.90865
1.90865
1.90865
1.90865
1.90865
1.90865
1.90865
1.90864
1.90864
1.90864
1.90864
1.90863
1.90863
1.90863
1.90863
1.90863
1.90864
1.90864
1.90864
1.90864
1.90864
1.90864
1.90864
1.90864
1.90864
1.90864
1.90864
1.90863
1.90863
1.90863
1.90864
1.90861
1.7485
1.74854
1.74853
1.74851
1.74849
1.74847
1.74846
1.74845
1.74844
1.74843
1.74842
1.74841
1.74841
1.7484
1.7484
1.74839
1.74839
1.74839
1.74838
1.74838
1.74838
1.74838
1.74837
1.74837
1.74837
1.74836
1.74836
1.74836
1.74836
1.74835
1.74835
1.74835
1.74835
1.74834
1.74834
1.74834
1.74833
1.74833
1.74833
1.74832
1.74832
1.74832
1.74832
1.74831
1.74831
1.74832
1.74832
1.74832
1.74831
1.74831
1.74831
1.74831
1.74831
1.74831
1.74831
1.74831
1.74831
1.74831
1.74832
1.74832
1.74832
1.74832
1.74832
1.74832
1.74832
1.74832
1.74832
1.74832
1.74832
1.74832
1.74832
1.74832
1.74832
1.74832
1.74832
1.74832
1.74832
1.74832
1.74832
1.74832
1.74832
1.74832
1.74832
1.74832
1.74833
1.74833
1.74833
1.74833
1.74833
1.74833
1.74833
1.74833
1.74833
1.74833
1.74832
1.74832
1.74832
1.74832
1.74831
1.74831
1.74831
1.74831
1.74831
1.74831
1.74831
1.74831
1.74831
1.74831
1.74831
1.74831
1.74831
1.74831
1.74831
1.74831
1.74831
1.74831
1.74831
1.74831
1.74832
1.74828
1.60865
1.60868
1.60867
1.60866
1.60864
1.60863
1.60861
1.6086
1.60859
1.60859
1.60858
1.60857
1.60857
1.60856
1.60856
1.60855
1.60855
1.60855
1.60854
1.60854
1.60854
1.60854
1.60853
1.60853
1.60853
1.60853
1.60852
1.60852
1.60852
1.60852
1.60851
1.60851
1.60851
1.60851
1.6085
1.6085
1.6085
1.60849
1.60849
1.60849
1.60849
1.60848
1.60848
1.60848
1.60848
1.60848
1.60848
1.60848
1.60848
1.60848
1.60848
1.60847
1.60847
1.60848
1.60848
1.60848
1.60848
1.60848
1.60848
1.60849
1.60849
1.60849
1.60849
1.60849
1.60849
1.60849
1.60849
1.60849
1.60849
1.60849
1.60849
1.60849
1.60849
1.60849
1.60849
1.60849
1.60849
1.60849
1.60849
1.60849
1.60849
1.60849
1.6085
1.6085
1.6085
1.6085
1.6085
1.6085
1.6085
1.6085
1.6085
1.6085
1.6085
1.60849
1.60849
1.60849
1.60849
1.60848
1.60848
1.60848
1.60847
1.60847
1.60847
1.60847
1.60847
1.60848
1.60847
1.60847
1.60847
1.60847
1.60847
1.60847
1.60847
1.60847
1.60847
1.60847
1.60847
1.60847
1.60848
1.60844
1.48568
1.48571
1.48571
1.48569
1.48568
1.48567
1.48566
1.48565
1.48564
1.48563
1.48562
1.48562
1.48561
1.48561
1.4856
1.4856
1.4856
1.48559
1.48559
1.48559
1.48559
1.48558
1.48558
1.48558
1.48558
1.48557
1.48557
1.48557
1.48557
1.48556
1.48556
1.48556
1.48556
1.48555
1.48555
1.48555
1.48555
1.48554
1.48554
1.48554
1.48554
1.48553
1.48553
1.48553
1.48553
1.48553
1.48553
1.48553
1.48553
1.48553
1.48553
1.48553
1.48553
1.48553
1.48553
1.48553
1.48553
1.48554
1.48554
1.48554
1.48554
1.48554
1.48555
1.48555
1.48555
1.48555
1.48555
1.48555
1.48555
1.48555
1.48555
1.48555
1.48555
1.48555
1.48555
1.48555
1.48555
1.48555
1.48555
1.48555
1.48555
1.48555
1.48555
1.48555
1.48555
1.48555
1.48556
1.48556
1.48556
1.48556
1.48556
1.48555
1.48555
1.48555
1.48555
1.48554
1.48554
1.48554
1.48553
1.48553
1.48553
1.48553
1.48552
1.48552
1.48553
1.48553
1.48552
1.48552
1.48552
1.48552
1.48552
1.48552
1.48552
1.48552
1.48552
1.48552
1.48552
1.48552
1.48553
1.48549
1.37677
1.3768
1.37679
1.37678
1.37677
1.37676
1.37675
1.37674
1.37673
1.37672
1.37672
1.37671
1.37671
1.3767
1.3767
1.3767
1.37669
1.37669
1.37669
1.37668
1.37668
1.37668
1.37668
1.37668
1.37667
1.37667
1.37667
1.37667
1.37667
1.37666
1.37666
1.37666
1.37666
1.37665
1.37665
1.37665
1.37665
1.37664
1.37664
1.37664
1.37664
1.37663
1.37663
1.37663
1.37663
1.37663
1.37663
1.37663
1.37663
1.37663
1.37663
1.37663
1.37663
1.37663
1.37663
1.37664
1.37664
1.37664
1.37665
1.37665
1.37665
1.37665
1.37665
1.37665
1.37665
1.37666
1.37666
1.37666
1.37666
1.37666
1.37666
1.37666
1.37666
1.37666
1.37666
1.37666
1.37666
1.37666
1.37666
1.37666
1.37666
1.37666
1.37666
1.37666
1.37666
1.37666
1.37666
1.37667
1.37667
1.37667
1.37666
1.37666
1.37666
1.37666
1.37665
1.37665
1.37665
1.37664
1.37664
1.37663
1.37663
1.37663
1.37663
1.37663
1.37663
1.37663
1.37663
1.37662
1.37662
1.37662
1.37662
1.37662
1.37662
1.37662
1.37662
1.37662
1.37662
1.37662
1.37663
1.3766
1.27965
1.27968
1.27968
1.27967
1.27965
1.27964
1.27963
1.27963
1.27962
1.27961
1.27961
1.2796
1.2796
1.27959
1.27959
1.27959
1.27958
1.27958
1.27958
1.27958
1.27957
1.27957
1.27957
1.27957
1.27957
1.27956
1.27956
1.27956
1.27956
1.27956
1.27956
1.27955
1.27955
1.27955
1.27955
1.27954
1.27954
1.27954
1.27954
1.27953
1.27953
1.27953
1.27953
1.27953
1.27953
1.27953
1.27953
1.27953
1.27952
1.27952
1.27952
1.27953
1.27953
1.27953
1.27953
1.27954
1.27954
1.27954
1.27955
1.27955
1.27955
1.27955
1.27956
1.27956
1.27956
1.27956
1.27956
1.27956
1.27956
1.27956
1.27956
1.27956
1.27956
1.27956
1.27956
1.27956
1.27956
1.27956
1.27957
1.27957
1.27957
1.27957
1.27957
1.27957
1.27957
1.27957
1.27957
1.27957
1.27957
1.27957
1.27957
1.27957
1.27956
1.27956
1.27956
1.27955
1.27955
1.27954
1.27954
1.27953
1.27953
1.27953
1.27953
1.27953
1.27953
1.27952
1.27952
1.27952
1.27952
1.27952
1.27952
1.27952
1.27952
1.27952
1.27952
1.27952
1.27952
1.27951
1.27952
1.2795
1.19252
1.19254
1.19254
1.19253
1.19252
1.19251
1.1925
1.1925
1.19249
1.19248
1.19248
1.19247
1.19247
1.19247
1.19246
1.19246
1.19246
1.19245
1.19245
1.19245
1.19245
1.19245
1.19245
1.19244
1.19244
1.19244
1.19244
1.19244
1.19243
1.19243
1.19243
1.19243
1.19243
1.19243
1.19242
1.19242
1.19242
1.19242
1.19242
1.19241
1.19241
1.19241
1.19241
1.19241
1.19241
1.19241
1.19241
1.1924
1.1924
1.1924
1.1924
1.19241
1.19241
1.19241
1.19242
1.19242
1.19243
1.19243
1.19243
1.19244
1.19244
1.19244
1.19244
1.19244
1.19244
1.19245
1.19245
1.19245
1.19245
1.19245
1.19245
1.19245
1.19245
1.19245
1.19245
1.19245
1.19245
1.19245
1.19245
1.19245
1.19245
1.19245
1.19246
1.19246
1.19246
1.19246
1.19246
1.19246
1.19246
1.19246
1.19246
1.19245
1.19245
1.19244
1.19244
1.19243
1.19243
1.19243
1.19242
1.19242
1.19241
1.19241
1.19241
1.19241
1.19241
1.19241
1.1924
1.1924
1.1924
1.1924
1.1924
1.1924
1.1924
1.1924
1.1924
1.1924
1.1924
1.19239
1.1924
1.19238
1.1139
1.11392
1.11392
1.11391
1.1139
1.11389
1.11389
1.11388
1.11387
1.11387
1.11386
1.11386
1.11385
1.11385
1.11385
1.11385
1.11384
1.11384
1.11384
1.11384
1.11384
1.11383
1.11383
1.11383
1.11383
1.11383
1.11383
1.11382
1.11382
1.11382
1.11382
1.11382
1.11382
1.11382
1.11381
1.11381
1.11381
1.11381
1.11381
1.1138
1.1138
1.1138
1.1138
1.1138
1.1138
1.1138
1.1138
1.1138
1.1138
1.1138
1.1138
1.1138
1.11381
1.11381
1.11382
1.11382
1.11382
1.11383
1.11383
1.11383
1.11384
1.11384
1.11384
1.11384
1.11384
1.11384
1.11385
1.11385
1.11385
1.11385
1.11385
1.11385
1.11385
1.11385
1.11385
1.11385
1.11385
1.11385
1.11385
1.11385
1.11385
1.11385
1.11386
1.11386
1.11386
1.11386
1.11386
1.11386
1.11386
1.11386
1.11385
1.11385
1.11385
1.11384
1.11384
1.11383
1.11382
1.11382
1.11382
1.11381
1.11381
1.1138
1.1138
1.1138
1.1138
1.1138
1.1138
1.1138
1.1138
1.11379
1.11379
1.11379
1.11379
1.11379
1.11379
1.11379
1.11379
1.11379
1.11379
1.11377
1.04259
1.04261
1.04261
1.0426
1.04259
1.04258
1.04258
1.04257
1.04256
1.04256
1.04256
1.04255
1.04255
1.04254
1.04254
1.04254
1.04254
1.04254
1.04253
1.04253
1.04253
1.04253
1.04253
1.04253
1.04252
1.04252
1.04252
1.04252
1.04252
1.04252
1.04252
1.04252
1.04251
1.04251
1.04251
1.04251
1.04251
1.04251
1.0425
1.0425
1.0425
1.0425
1.0425
1.0425
1.0425
1.0425
1.0425
1.0425
1.0425
1.0425
1.0425
1.04251
1.04251
1.04252
1.04252
1.04253
1.04253
1.04254
1.04254
1.04254
1.04254
1.04255
1.04255
1.04255
1.04255
1.04255
1.04255
1.04255
1.04255
1.04256
1.04256
1.04256
1.04256
1.04256
1.04256
1.04256
1.04256
1.04256
1.04256
1.04256
1.04256
1.04256
1.04256
1.04256
1.04257
1.04257
1.04257
1.04257
1.04257
1.04256
1.04256
1.04256
1.04255
1.04254
1.04254
1.04253
1.04253
1.04252
1.04252
1.04251
1.04251
1.04251
1.0425
1.0425
1.0425
1.0425
1.0425
1.0425
1.0425
1.0425
1.0425
1.04249
1.04249
1.04249
1.04249
1.04249
1.04249
1.04249
1.04249
1.04247
0.977593
0.977611
0.977609
0.977603
0.977596
0.977589
0.977583
0.977578
0.977573
0.977569
0.977565
0.977561
0.977558
0.977555
0.977552
0.97755
0.977548
0.977546
0.977545
0.977543
0.977542
0.977541
0.977539
0.977538
0.977537
0.977536
0.977535
0.977534
0.977533
0.977532
0.977531
0.977529
0.977528
0.977527
0.977526
0.977524
0.977523
0.977522
0.97752
0.977518
0.977517
0.977516
0.977514
0.977513
0.977514
0.977514
0.977514
0.977514
0.977514
0.977517
0.977522
0.977528
0.977535
0.977542
0.977547
0.977552
0.977556
0.97756
0.977563
0.977565
0.977568
0.977569
0.977571
0.977573
0.977574
0.977575
0.977576
0.977577
0.977578
0.977579
0.977579
0.97758
0.977581
0.977582
0.977582
0.977583
0.977584
0.977584
0.977585
0.977586
0.977587
0.977588
0.977588
0.977589
0.97759
0.977591
0.977592
0.977592
0.977591
0.977588
0.977583
0.977577
0.977571
0.977564
0.977558
0.977552
0.977547
0.977542
0.977537
0.977533
0.977529
0.977526
0.977524
0.977523
0.977522
0.977521
0.977519
0.977518
0.977517
0.977516
0.977515
0.977514
0.977512
0.977511
0.97751
0.977509
0.977509
0.977508
0.977511
0.977495
0.918091
0.918106
0.918104
0.918098
0.918092
0.918087
0.918081
0.918077
0.918072
0.918068
0.918065
0.918062
0.918059
0.918056
0.918054
0.918052
0.91805
0.918049
0.918047
0.918046
0.918045
0.918044
0.918042
0.918041
0.918041
0.91804
0.918039
0.918038
0.918037
0.918036
0.918035
0.918034
0.918033
0.918032
0.918031
0.91803
0.918029
0.918028
0.918027
0.918025
0.918024
0.918023
0.918022
0.918021
0.918021
0.918022
0.918022
0.918022
0.918023
0.918027
0.918035
0.918043
0.918051
0.918057
0.918063
0.918067
0.918071
0.918075
0.918078
0.91808
0.918082
0.918084
0.918086
0.918087
0.918088
0.91809
0.918091
0.918092
0.918092
0.918093
0.918094
0.918095
0.918096
0.918096
0.918097
0.918098
0.918099
0.9181
0.9181
0.918101
0.918102
0.918103
0.918104
0.918105
0.918106
0.918106
0.918108
0.918108
0.918105
0.918101
0.918095
0.918088
0.918081
0.918074
0.918068
0.918062
0.918057
0.918052
0.918047
0.918043
0.91804
0.918036
0.918034
0.918033
0.918032
0.918031
0.91803
0.918029
0.918028
0.918026
0.918025
0.918024
0.918023
0.918021
0.91802
0.918019
0.918019
0.918018
0.918021
0.918006
0.86339
0.863402
0.8634
0.863396
0.86339
0.863385
0.863381
0.863377
0.863373
0.86337
0.863366
0.863363
0.863361
0.863359
0.863357
0.863355
0.863353
0.863352
0.863351
0.86335
0.863349
0.863348
0.863347
0.863346
0.863345
0.863345
0.863344
0.863343
0.863343
0.863342
0.863341
0.863341
0.86334
0.863339
0.863338
0.863337
0.863337
0.863336
0.863334
0.863333
0.863332
0.863331
0.863331
0.86333
0.86333
0.863331
0.863331
0.863332
0.863334
0.86334
0.86335
0.86336
0.863368
0.863374
0.863379
0.863384
0.863387
0.863391
0.863393
0.863396
0.863398
0.863399
0.863401
0.863402
0.863404
0.863405
0.863406
0.863407
0.863408
0.863409
0.863409
0.86341
0.863411
0.863412
0.863413
0.863414
0.863415
0.863416
0.863416
0.863417
0.863418
0.863419
0.86342
0.863421
0.863422
0.863423
0.863425
0.863424
0.86342
0.863414
0.863407
0.863399
0.863391
0.863384
0.863378
0.863372
0.863367
0.863362
0.863358
0.863354
0.863351
0.863348
0.863346
0.863344
0.863344
0.863343
0.863342
0.863341
0.86334
0.863338
0.863337
0.863336
0.863334
0.863333
0.863332
0.863331
0.86333
0.863329
0.863331
0.863319
0.81291
0.812919
0.812917
0.812913
0.812909
0.812905
0.812901
0.812897
0.812894
0.812891
0.812888
0.812886
0.812884
0.812882
0.81288
0.812879
0.812877
0.812876
0.812875
0.812874
0.812874
0.812873
0.812872
0.812872
0.812871
0.812871
0.81287
0.81287
0.812869
0.812869
0.812868
0.812868
0.812867
0.812867
0.812866
0.812865
0.812865
0.812864
0.812863
0.812862
0.812862
0.812861
0.81286
0.81286
0.81286
0.812862
0.812861
0.812863
0.812865
0.812875
0.812887
0.812898
0.812905
0.812911
0.812916
0.81292
0.812923
0.812926
0.812929
0.812931
0.812933
0.812935
0.812936
0.812937
0.812939
0.81294
0.812941
0.812942
0.812943
0.812944
0.812945
0.812946
0.812947
0.812947
0.812948
0.812949
0.81295
0.812951
0.812952
0.812953
0.812954
0.812956
0.812957
0.812958
0.812959
0.81296
0.812962
0.812959
0.812953
0.812946
0.812937
0.812929
0.812921
0.812914
0.812908
0.812902
0.812897
0.812893
0.812889
0.812886
0.812883
0.81288
0.812878
0.812877
0.812877
0.812876
0.812875
0.812874
0.812872
0.812871
0.812869
0.812868
0.812866
0.812865
0.812864
0.812862
0.812862
0.812861
0.812862
0.812853
0.766159
0.766165
0.766164
0.76616
0.766156
0.766153
0.76615
0.766147
0.766144
0.766142
0.766139
0.766137
0.766136
0.766134
0.766133
0.766131
0.76613
0.766129
0.766129
0.766128
0.766127
0.766127
0.766126
0.766126
0.766126
0.766125
0.766125
0.766125
0.766125
0.766124
0.766124
0.766124
0.766124
0.766123
0.766123
0.766123
0.766122
0.766122
0.766121
0.76612
0.76612
0.766119
0.766119
0.766119
0.766119
0.766121
0.76612
0.766123
0.766125
0.76614
0.766154
0.766164
0.766171