/*--------------------------------*- C++ -*----------------------------------*\
  =========                 |
  \\      /  F ield         | OpenFOAM: The Open Source CFD Toolbox
   \\    /   O peration     | Website:  https://openfoam.org
    \\  /    A nd           | Version:  7
     \\/     M anipulation  |
\*---------------------------------------------------------------------------*/
FoamFile
{
    version     2.0;
    format      ascii;
    class       volScalarField;
    location    "100000";
    object      k;
}
// * * * * * * * * * * * * * * * * * * * * * * * * * * * * * * * * * * * * * //

dimensions      [0 2 -2 0 0 0 0];

internalField   nonuniform List<scalar> 
600
(
8.61886e-13
2.58768e-11
1.83646e-10
6.69287e-10
1.73615e-09
3.68631e-09
6.86876e-09
1.16802e-08
1.8567e-08
2.80274e-08
4.06148e-08
5.69408e-08
7.76789e-08
1.03568e-07
1.35418e-07
1.74111e-07
2.2061e-07
2.75961e-07
3.41297e-07
4.17847e-07
5.06938e-07
6.10001e-07
7.28577e-07
8.64321e-07
1.01901e-06
1.19454e-06
1.39295e-06
1.61638e-06
1.86715e-06
2.14769e-06
2.46055e-06
2.80846e-06
3.19425e-06
3.62088e-06
4.09144e-06
4.60912e-06
5.1772e-06
5.79903e-06
6.478e-06
7.21752e-06
8.02098e-06
8.89171e-06
9.83294e-06
1.08477e-05
1.19389e-05
1.31092e-05
1.43607e-05
1.56953e-05
1.71145e-05
1.86191e-05
2.02096e-05
2.18857e-05
2.36465e-05
2.54904e-05
2.74153e-05
2.94184e-05
3.14961e-05
3.36444e-05
3.58586e-05
3.81336e-05
4.0464e-05
4.28437e-05
4.52668e-05
4.77268e-05
5.02175e-05
5.27325e-05
5.52653e-05
5.781e-05
6.03604e-05
6.2911e-05
6.54562e-05
6.7991e-05
7.05106e-05
7.30108e-05
7.54875e-05
7.79371e-05
8.03564e-05
8.27426e-05
8.50931e-05
8.74072e-05
8.96852e-05
9.1926e-05
9.4128e-05
9.62897e-05
9.84098e-05
0.000100487
0.000102521
0.000104511
0.000106455
0.000108354
0.000110208
0.000112016
0.000113777
0.000115493
0.000117163
0.000118787
0.000120366
0.000121901
0.000123391
0.000124837
0.00012624
0.000127601
0.00012892
0.000130197
0.000131434
0.000132631
0.000133789
0.000134909
0.000135992
0.000137038
0.000138048
0.000139023
0.000139964
0.000140872
0.000141747
0.00014259
0.000143401
0.000144183
0.000144934
0.000145657
0.000146352
0.000147019
0.000147659
0.000148273
0.000148861
0.000149425
0.000149964
0.000150479
0.000150972
0.000151441
0.000151889
0.000152315
0.00015272
0.000153104
0.000153468
0.000153813
0.000154138
0.000154445
0.000154733
0.000155003
0.000155256
0.000155491
0.000155709
0.000155911
0.000156096
0.000156266
0.000156419
0.000156558
0.000156681
0.000156789
0.000156883
0.000156962
0.000157028
0.000157079
0.000157116
0.00015714
0.00015715
0.000157147
0.000157132
0.000157103
0.000157061
0.000157007
0.00015694
0.000156861
0.000156769
0.000156666
0.00015655
0.000156422
0.000156283
0.000156131
0.000155968
0.000155793
0.000155606
0.000155408
0.000155198
0.000154976
0.000154743
0.000154499
0.000154243
0.000153976
0.000153697
0.000153407
0.000153105
0.000152792
0.000152467
0.000152131
0.000151784
0.000151424
0.000151054
0.000150671
0.000150277
0.000149872
0.000149454
0.000149025
0.000148584
0.000148131
0.000147666
0.000147189
0.000146699
0.000146198
0.000145684
0.000145158
0.000144619
0.000144068
0.000143504
0.000142927
0.000142337
0.000141735
0.000141119
0.00014049
0.000139847
0.000139191
0.000138522
0.000137839
0.000137142
0.000136431
0.000135706
0.000134967
0.000134214
0.000133448
0.000132667
0.000131874
0.000131067
0.000130248
0.000129417
0.000128575
0.000127722
0.000126859
0.000125986
0.000125102
0.000124207
0.000123299
0.00012238
0.00012145
0.000120508
0.000119554
0.000118589
0.000117612
0.000116625
0.000115626
0.000114616
0.000113595
0.000112564
0.000111522
0.00011047
0.000109409
0.000108337
0.000107256
0.000106165
0.000105066
0.000103958
0.000102843
0.000101719
0.000100588
9.94509e-05
9.83071e-05
9.71576e-05
9.60031e-05
9.4844e-05
9.36811e-05
9.25152e-05
9.13468e-05
9.0177e-05
8.90065e-05
8.78362e-05
8.66672e-05
8.55003e-05
8.43367e-05
8.31776e-05
8.2024e-05
8.08774e-05
7.97389e-05
7.861e-05
7.7492e-05
7.63867e-05
7.52954e-05
7.42199e-05
7.31619e-05
7.21232e-05
7.11057e-05
7.01114e-05
6.91422e-05
6.82002e-05
6.72877e-05
6.64069e-05
6.55601e-05
6.47498e-05
6.39784e-05
6.32485e-05
6.25628e-05
6.1924e-05
6.13349e-05
6.07985e-05
6.03176e-05
5.98955e-05
5.95353e-05
5.92402e-05
5.90136e-05
5.88589e-05
5.87798e-05
5.87798e-05
5.88589e-05
5.90136e-05
5.92402e-05
5.95353e-05
5.98955e-05
6.03176e-05
6.07985e-05
6.13349e-05
6.1924e-05
6.25628e-05
6.32485e-05
6.39784e-05
6.47498e-05
6.55601e-05
6.64069e-05
6.72877e-05
6.82002e-05
6.91422e-05
7.01114e-05
7.11057e-05
7.21232e-05
7.31619e-05
7.42199e-05
7.52954e-05
7.63867e-05
7.7492e-05
7.861e-05
7.97389e-05
8.08774e-05
8.2024e-05
8.31776e-05
8.43367e-05
8.55003e-05
8.66672e-05
8.78362e-05
8.90065e-05
9.0177e-05
9.13468e-05
9.25152e-05
9.36811e-05
9.4844e-05
9.60031e-05
9.71576e-05
9.83071e-05
9.94509e-05
0.000100588
0.000101719
0.000102843
0.000103958
0.000105066
0.000106165
0.000107256
0.000108337
0.000109409
0.00011047
0.000111522
0.000112564
0.000113595
0.000114616
0.000115626
0.000116625
0.000117612
0.000118589
0.000119554
0.000120508
0.00012145
0.00012238
0.000123299
0.000124207
0.000125102
0.000125986
0.000126859
0.000127722
0.000128575
0.000129417
0.000130248
0.000131067
0.000131874
0.000132667
0.000133448
0.000134214
0.000134967
0.000135706
0.000136431
0.000137142
0.000137839
0.000138522
0.000139191
0.000139847
0.00014049
0.000141119
0.000141735
0.000142337
0.000142927
0.000143504
0.000144068
0.000144619
0.000145158
0.000145684
0.000146198
0.000146699
0.000147189
0.000147666
0.000148131
0.000148584
0.000149025
0.000149454
0.000149872
0.000150277
0.000150671
0.000151054
0.000151424
0.000151784
0.000152131
0.000152467
0.000152792
0.000153105
0.000153407
0.000153697
0.000153976
0.000154243
0.000154499
0.000154743
0.000154976
0.000155198
0.000155408
0.000155606
0.000155793
0.000155968
0.000156131
0.000156283
0.000156422
0.00015655
0.000156666
0.000156769
0.000156861
0.00015694
0.000157007
0.000157061
0.000157103
0.000157132
0.000157147
0.00015715
0.00015714
0.000157116
0.000157079
0.000157028
0.000156962
0.000156883
0.000156789
0.000156681
0.000156558
0.000156419
0.000156266
0.000156096
0.000155911
0.000155709
0.000155491
0.000155256
0.000155003
0.000154733
0.000154445
0.000154138
0.000153813
0.000153468
0.000153104
0.00015272
0.000152315
0.000151889
0.000151441
0.000150972
0.000150479
0.000149964
0.000149425
0.000148861
0.000148273
0.000147659
0.000147019
0.000146352
0.000145657
0.000144934
0.000144183
0.000143401
0.00014259
0.000141747
0.000140872
0.000139964
0.000139023
0.000138048
0.000137038
0.000135992
0.000134909
0.000133789
0.000132631
0.000131434
0.000130197
0.00012892
0.000127601
0.00012624
0.000124837
0.000123391
0.000121901
0.000120366
0.000118787
0.000117163
0.000115493
0.000113777
0.000112016
0.000110208
0.000108354
0.000106455
0.000104511
0.000102521
0.000100487
9.84098e-05
9.62897e-05
9.4128e-05
9.1926e-05
8.96852e-05
8.74072e-05
8.50931e-05
8.27426e-05
8.03564e-05
7.79371e-05
7.54875e-05
7.30108e-05
7.05106e-05
6.7991e-05
6.54562e-05
6.2911e-05
6.03604e-05
5.781e-05
5.52653e-05
5.27325e-05
5.02175e-05
4.77268e-05
4.52668e-05
4.28437e-05
4.0464e-05
3.81336e-05
3.58586e-05
3.36444e-05
3.14961e-05
2.94184e-05
2.74153e-05
2.54904e-05
2.36465e-05
2.18857e-05
2.02096e-05
1.86191e-05
1.71145e-05
1.56953e-05
1.43607e-05
1.31092e-05
1.19389e-05
1.08477e-05
9.83294e-06
8.89171e-06
8.02098e-06
7.21752e-06
6.478e-06
5.79903e-06
5.1772e-06
4.60912e-06
4.09144e-06
3.62088e-06
3.19425e-06
2.80846e-06
2.46055e-06
2.14769e-06
1.86715e-06
1.61638e-06
1.39295e-06
1.19454e-06
1.01901e-06
8.64322e-07
7.28577e-07
6.10001e-07
5.06938e-07
4.17847e-07
3.41297e-07
2.75961e-07
2.2061e-07
1.74111e-07
1.35418e-07
1.03568e-07
7.7679e-08
5.69408e-08
4.06148e-08
2.80274e-08
1.8567e-08
1.16802e-08
6.86876e-09
3.68631e-09
1.73615e-09
6.69287e-10
1.83646e-10
2.58768e-11
8.61885e-13
)
;

boundaryField
{
    bottomWall
    {
        type            kqRWallFunction;
        value           uniform 8.61886e-13;
    }
    topWall
    {
        type            kqRWallFunction;
        value           uniform 8.61885e-13;
    }
    sides1_half0
    {
        type            empty;
    }
    sides1_half1
    {
        type            empty;
    }
    sides2_half0
    {
        type            empty;
    }
    sides2_half1
    {
        type            empty;
    }
    inout1_half0
    {
        type            cyclic;
    }
    inout1_half1
    {
        type            cyclic;
    }
    inout2_half0
    {
        type            cyclic;
    }
    inout2_half1
    {
        type            cyclic;
    }
}


// ************************************************************************* //
