/*--------------------------------*- C++ -*----------------------------------*\
  =========                 |
  \\      /  F ield         | OpenFOAM: The Open Source CFD Toolbox
   \\    /   O peration     | Website:  https://openfoam.org
    \\  /    A nd           | Version:  7
     \\/     M anipulation  |
\*---------------------------------------------------------------------------*/
FoamFile
{
    version     2.0;
    format      ascii;
    class       volScalarField;
    location    "1500";
    object      k;
}
// * * * * * * * * * * * * * * * * * * * * * * * * * * * * * * * * * * * * * //

dimensions      [0 2 -2 0 0 0 0];

internalField   nonuniform List<scalar> 
24000
(
7.07856e-09
7.07869e-09
7.07881e-09
7.07888e-09
7.07891e-09
7.07892e-09
7.07892e-09
7.07892e-09
7.07893e-09
7.07896e-09
7.079e-09
7.07905e-09
7.07912e-09
7.07919e-09
7.07927e-09
7.07935e-09
7.07944e-09
7.07953e-09
7.07962e-09
7.07971e-09
7.0798e-09
7.0799e-09
7.07999e-09
7.08008e-09
7.08016e-09
7.08025e-09
7.08033e-09
7.08041e-09
7.08049e-09
7.08056e-09
7.08063e-09
7.0807e-09
7.08076e-09
7.08081e-09
7.08087e-09
7.08092e-09
7.08096e-09
7.081e-09
7.08104e-09
7.08107e-09
7.08108e-09
7.0811e-09
7.08108e-09
7.08107e-09
7.08101e-09
7.08092e-09
7.08091e-09
7.08092e-09
7.08095e-09
7.08098e-09
7.08101e-09
7.08104e-09
7.08106e-09
7.08107e-09
7.08109e-09
7.08111e-09
7.08114e-09
7.08118e-09
7.08123e-09
7.08129e-09
7.08137e-09
7.08146e-09
7.08156e-09
7.08166e-09
7.08176e-09
7.08185e-09
7.08194e-09
7.08202e-09
7.08209e-09
7.08215e-09
7.08219e-09
7.08223e-09
7.08225e-09
7.08226e-09
7.08226e-09
7.08225e-09
7.08223e-09
7.0822e-09
7.08217e-09
7.08213e-09
7.08208e-09
7.08202e-09
7.08197e-09
7.0819e-09
7.08184e-09
7.08177e-09
7.08169e-09
7.08162e-09
7.08155e-09
7.08148e-09
7.08141e-09
7.08134e-09
7.08127e-09
7.08119e-09
7.08112e-09
7.08103e-09
7.08094e-09
7.08085e-09
7.08074e-09
7.08063e-09
7.0805e-09
7.08035e-09
7.0802e-09
7.08e-09
7.07978e-09
7.07965e-09
7.07956e-09
7.07949e-09
7.07943e-09
7.07938e-09
7.07932e-09
7.07927e-09
7.07922e-09
7.07918e-09
7.07914e-09
7.07911e-09
7.07909e-09
7.07903e-09
7.07906e-09
7.07871e-09
2.13313e-07
2.13317e-07
2.13321e-07
2.13322e-07
2.13323e-07
2.13324e-07
2.13324e-07
2.13324e-07
2.13324e-07
2.13325e-07
2.13326e-07
2.13328e-07
2.1333e-07
2.13332e-07
2.13334e-07
2.13337e-07
2.13339e-07
2.13342e-07
2.13345e-07
2.13347e-07
2.1335e-07
2.13353e-07
2.13356e-07
2.13359e-07
2.13361e-07
2.13364e-07
2.13366e-07
2.13369e-07
2.13371e-07
2.13373e-07
2.13375e-07
2.13377e-07
2.13379e-07
2.13381e-07
2.13382e-07
2.13384e-07
2.13385e-07
2.13386e-07
2.13387e-07
2.13388e-07
2.13389e-07
2.13389e-07
2.13389e-07
2.13389e-07
2.13387e-07
2.13384e-07
2.13384e-07
2.13384e-07
2.13385e-07
2.13386e-07
2.13387e-07
2.13387e-07
2.13388e-07
2.13389e-07
2.13389e-07
2.1339e-07
2.1339e-07
2.13392e-07
2.13393e-07
2.13395e-07
2.13398e-07
2.134e-07
2.13403e-07
2.13406e-07
2.13409e-07
2.13412e-07
2.13415e-07
2.13417e-07
2.13419e-07
2.13421e-07
2.13422e-07
2.13423e-07
2.13424e-07
2.13424e-07
2.13424e-07
2.13424e-07
2.13423e-07
2.13423e-07
2.13422e-07
2.1342e-07
2.13419e-07
2.13417e-07
2.13415e-07
2.13414e-07
2.13412e-07
2.13409e-07
2.13407e-07
2.13405e-07
2.13403e-07
2.13401e-07
2.13399e-07
2.13397e-07
2.13395e-07
2.13392e-07
2.1339e-07
2.13387e-07
2.13385e-07
2.13382e-07
2.13379e-07
2.13375e-07
2.13371e-07
2.13367e-07
2.13362e-07
2.13356e-07
2.1335e-07
2.13346e-07
2.13343e-07
2.13341e-07
2.13339e-07
2.13337e-07
2.13336e-07
2.13334e-07
2.13333e-07
2.13331e-07
2.1333e-07
2.13329e-07
2.13329e-07
2.13327e-07
2.13328e-07
2.13317e-07
1.54832e-06
1.54834e-06
1.54837e-06
1.54838e-06
1.54839e-06
1.54839e-06
1.54839e-06
1.54839e-06
1.54839e-06
1.5484e-06
1.54841e-06
1.54842e-06
1.54843e-06
1.54845e-06
1.54846e-06
1.54848e-06
1.5485e-06
1.54852e-06
1.54854e-06
1.54856e-06
1.54858e-06
1.5486e-06
1.54862e-06
1.54864e-06
1.54866e-06
1.54868e-06
1.5487e-06
1.54871e-06
1.54873e-06
1.54875e-06
1.54876e-06
1.54878e-06
1.54879e-06
1.5488e-06
1.54881e-06
1.54883e-06
1.54884e-06
1.54884e-06
1.54885e-06
1.54886e-06
1.54886e-06
1.54887e-06
1.54886e-06
1.54886e-06
1.54885e-06
1.54883e-06
1.54882e-06
1.54883e-06
1.54883e-06
1.54884e-06
1.54885e-06
1.54885e-06
1.54886e-06
1.54886e-06
1.54886e-06
1.54887e-06
1.54887e-06
1.54888e-06
1.54889e-06
1.54891e-06
1.54893e-06
1.54894e-06
1.54897e-06
1.54899e-06
1.54901e-06
1.54903e-06
1.54905e-06
1.54907e-06
1.54908e-06
1.54909e-06
1.5491e-06
1.54911e-06
1.54912e-06
1.54912e-06
1.54912e-06
1.54912e-06
1.54911e-06
1.54911e-06
1.5491e-06
1.54909e-06
1.54908e-06
1.54907e-06
1.54905e-06
1.54904e-06
1.54903e-06
1.54901e-06
1.54899e-06
1.54898e-06
1.54896e-06
1.54895e-06
1.54893e-06
1.54892e-06
1.5489e-06
1.54889e-06
1.54887e-06
1.54885e-06
1.54883e-06
1.54881e-06
1.54879e-06
1.54876e-06
1.54874e-06
1.5487e-06
1.54867e-06
1.54863e-06
1.54858e-06
1.54855e-06
1.54853e-06
1.54851e-06
1.5485e-06
1.54849e-06
1.54848e-06
1.54847e-06
1.54845e-06
1.54845e-06
1.54844e-06
1.54843e-06
1.54843e-06
1.54841e-06
1.54842e-06
1.54835e-06
5.72228e-06
5.72235e-06
5.72243e-06
5.72248e-06
5.72251e-06
5.72252e-06
5.72252e-06
5.72252e-06
5.72253e-06
5.72255e-06
5.72259e-06
5.72263e-06
5.72268e-06
5.72274e-06
5.7228e-06
5.72287e-06
5.72294e-06
5.72301e-06
5.72308e-06
5.72316e-06
5.72323e-06
5.7233e-06
5.72338e-06
5.72345e-06
5.72352e-06
5.72359e-06
5.72365e-06
5.72372e-06
5.72378e-06
5.72384e-06
5.72389e-06
5.72394e-06
5.72399e-06
5.72404e-06
5.72408e-06
5.72412e-06
5.72416e-06
5.72419e-06
5.72422e-06
5.72424e-06
5.72426e-06
5.72427e-06
5.72426e-06
5.72425e-06
5.7242e-06
5.72413e-06
5.72412e-06
5.72413e-06
5.72415e-06
5.72417e-06
5.7242e-06
5.72422e-06
5.72423e-06
5.72425e-06
5.72426e-06
5.72428e-06
5.7243e-06
5.72433e-06
5.72437e-06
5.72443e-06
5.72449e-06
5.72456e-06
5.72464e-06
5.72472e-06
5.7248e-06
5.72487e-06
5.72494e-06
5.72501e-06
5.72506e-06
5.72511e-06
5.72514e-06
5.72517e-06
5.72519e-06
5.7252e-06
5.7252e-06
5.72519e-06
5.72517e-06
5.72515e-06
5.72512e-06
5.72509e-06
5.72505e-06
5.72501e-06
5.72496e-06
5.72491e-06
5.72486e-06
5.7248e-06
5.72474e-06
5.72468e-06
5.72462e-06
5.72457e-06
5.72451e-06
5.72446e-06
5.7244e-06
5.72434e-06
5.72428e-06
5.72421e-06
5.72414e-06
5.72406e-06
5.72398e-06
5.72388e-06
5.72378e-06
5.72366e-06
5.72354e-06
5.72339e-06
5.72321e-06
5.72311e-06
5.72303e-06
5.72298e-06
5.72293e-06
5.72288e-06
5.72284e-06
5.7228e-06
5.72276e-06
5.72272e-06
5.72269e-06
5.72267e-06
5.72266e-06
5.72261e-06
5.72263e-06
5.72238e-06
1.4598e-05
1.45981e-05
1.45983e-05
1.45984e-05
1.45985e-05
1.45985e-05
1.45985e-05
1.45986e-05
1.45986e-05
1.45986e-05
1.45987e-05
1.45988e-05
1.4599e-05
1.45991e-05
1.45993e-05
1.45994e-05
1.45996e-05
1.45998e-05
1.46e-05
1.46001e-05
1.46003e-05
1.46005e-05
1.46007e-05
1.46009e-05
1.4601e-05
1.46012e-05
1.46014e-05
1.46015e-05
1.46017e-05
1.46018e-05
1.4602e-05
1.46021e-05
1.46022e-05
1.46023e-05
1.46024e-05
1.46025e-05
1.46026e-05
1.46027e-05
1.46028e-05
1.46028e-05
1.46029e-05
1.46029e-05
1.46029e-05
1.46029e-05
1.46028e-05
1.46026e-05
1.46026e-05
1.46026e-05
1.46026e-05
1.46027e-05
1.46027e-05
1.46028e-05
1.46028e-05
1.46029e-05
1.46029e-05
1.46029e-05
1.4603e-05
1.46031e-05
1.46032e-05
1.46033e-05
1.46035e-05
1.46037e-05
1.46038e-05
1.4604e-05
1.46042e-05
1.46044e-05
1.46046e-05
1.46048e-05
1.46049e-05
1.4605e-05
1.46051e-05
1.46052e-05
1.46052e-05
1.46052e-05
1.46052e-05
1.46052e-05
1.46052e-05
1.46051e-05
1.4605e-05
1.46049e-05
1.46048e-05
1.46047e-05
1.46046e-05
1.46045e-05
1.46044e-05
1.46042e-05
1.46041e-05
1.46039e-05
1.46038e-05
1.46036e-05
1.46035e-05
1.46034e-05
1.46032e-05
1.46031e-05
1.46029e-05
1.46027e-05
1.46025e-05
1.46024e-05
1.46021e-05
1.46019e-05
1.46017e-05
1.46014e-05
1.46011e-05
1.46007e-05
1.46003e-05
1.46e-05
1.45998e-05
1.45997e-05
1.45995e-05
1.45994e-05
1.45993e-05
1.45992e-05
1.45991e-05
1.4599e-05
1.4599e-05
1.45989e-05
1.45989e-05
1.45988e-05
1.45988e-05
1.45983e-05
2.89067e-05
2.89068e-05
2.8907e-05
2.89072e-05
2.89074e-05
2.89074e-05
2.89075e-05
2.89075e-05
2.89076e-05
2.89077e-05
2.89079e-05
2.89081e-05
2.89083e-05
2.89086e-05
2.89089e-05
2.89092e-05
2.89095e-05
2.89099e-05
2.89102e-05
2.89106e-05
2.89109e-05
2.89113e-05
2.89116e-05
2.89119e-05
2.89123e-05
2.89126e-05
2.89129e-05
2.89132e-05
2.89135e-05
2.89137e-05
2.8914e-05
2.89142e-05
2.89145e-05
2.89147e-05
2.89149e-05
2.8915e-05
2.89152e-05
2.89154e-05
2.89155e-05
2.89156e-05
2.89157e-05
2.89157e-05
2.89157e-05
2.89157e-05
2.89155e-05
2.89152e-05
2.89151e-05
2.89152e-05
2.89153e-05
2.89153e-05
2.89154e-05
2.89155e-05
2.89156e-05
2.89157e-05
2.89157e-05
2.89158e-05
2.89159e-05
2.89161e-05
2.89163e-05
2.89166e-05
2.89169e-05
2.89172e-05
2.89176e-05
2.89179e-05
2.89183e-05
2.89187e-05
2.8919e-05
2.89193e-05
2.89195e-05
2.89197e-05
2.89199e-05
2.892e-05
2.89201e-05
2.89201e-05
2.89201e-05
2.892e-05
2.892e-05
2.89198e-05
2.89197e-05
2.89195e-05
2.89193e-05
2.89191e-05
2.89189e-05
2.89187e-05
2.89184e-05
2.89181e-05
2.89179e-05
2.89176e-05
2.89173e-05
2.8917e-05
2.89168e-05
2.89165e-05
2.89162e-05
2.89159e-05
2.89156e-05
2.89153e-05
2.8915e-05
2.89146e-05
2.89142e-05
2.89137e-05
2.89133e-05
2.89127e-05
2.89122e-05
2.89115e-05
2.89107e-05
2.89102e-05
2.89098e-05
2.89096e-05
2.89093e-05
2.89091e-05
2.89089e-05
2.89087e-05
2.89085e-05
2.89084e-05
2.89082e-05
2.89081e-05
2.89081e-05
2.89079e-05
2.8908e-05
2.89071e-05
4.71299e-05
4.71296e-05
4.71298e-05
4.71301e-05
4.71304e-05
4.71305e-05
4.71306e-05
4.71307e-05
4.71308e-05
4.7131e-05
4.71313e-05
4.71316e-05
4.7132e-05
4.71324e-05
4.71329e-05
4.71334e-05
4.71339e-05
4.71344e-05
4.71349e-05
4.71355e-05
4.7136e-05
4.71365e-05
4.7137e-05
4.71375e-05
4.7138e-05
4.71385e-05
4.7139e-05
4.71394e-05
4.71398e-05
4.71402e-05
4.71406e-05
4.7141e-05
4.71413e-05
4.71416e-05
4.71419e-05
4.71422e-05
4.71424e-05
4.71426e-05
4.71428e-05
4.7143e-05
4.71431e-05
4.71432e-05
4.71431e-05
4.71431e-05
4.71429e-05
4.71425e-05
4.71424e-05
4.71424e-05
4.71426e-05
4.71427e-05
4.71428e-05
4.7143e-05
4.71431e-05
4.71432e-05
4.71433e-05
4.71434e-05
4.71436e-05
4.71438e-05
4.71442e-05
4.71446e-05
4.71451e-05
4.71456e-05
4.71461e-05
4.71467e-05
4.71472e-05
4.71478e-05
4.71482e-05
4.71487e-05
4.7149e-05
4.71493e-05
4.71495e-05
4.71497e-05
4.71498e-05
4.71498e-05
4.71498e-05
4.71497e-05
4.71496e-05
4.71494e-05
4.71492e-05
4.71489e-05
4.71486e-05
4.71483e-05
4.71479e-05
4.71475e-05
4.71471e-05
4.71467e-05
4.71463e-05
4.71459e-05
4.71454e-05
4.7145e-05
4.71446e-05
4.71442e-05
4.71438e-05
4.71433e-05
4.71428e-05
4.71423e-05
4.71418e-05
4.71412e-05
4.71406e-05
4.71399e-05
4.71392e-05
4.71384e-05
4.71375e-05
4.71365e-05
4.71354e-05
4.71347e-05
4.71341e-05
4.71337e-05
4.71333e-05
4.7133e-05
4.71327e-05
4.71324e-05
4.71321e-05
4.71319e-05
4.71317e-05
4.71316e-05
4.71315e-05
4.71313e-05
4.71313e-05
4.71304e-05
6.63444e-05
6.63437e-05
6.63436e-05
6.63439e-05
6.63443e-05
6.63446e-05
6.63448e-05
6.6345e-05
6.63452e-05
6.63454e-05
6.63458e-05
6.63463e-05
6.63468e-05
6.63473e-05
6.63479e-05
6.63486e-05
6.63493e-05
6.63499e-05
6.63506e-05
6.63513e-05
6.6352e-05
6.63527e-05
6.63534e-05
6.6354e-05
6.63547e-05
6.63553e-05
6.63559e-05
6.63564e-05
6.6357e-05
6.63575e-05
6.6358e-05
6.63585e-05
6.63589e-05
6.63593e-05
6.63596e-05
6.636e-05
6.63603e-05
6.63605e-05
6.63607e-05
6.63609e-05
6.63611e-05
6.63612e-05
6.63612e-05
6.63612e-05
6.63609e-05
6.63605e-05
6.63604e-05
6.63604e-05
6.63606e-05
6.63607e-05
6.63609e-05
6.6361e-05
6.63612e-05
6.63613e-05
6.63615e-05
6.63616e-05
6.63619e-05
6.63623e-05
6.63627e-05
6.63633e-05
6.63639e-05
6.63646e-05
6.63653e-05
6.63661e-05
6.63668e-05
6.63674e-05
6.6368e-05
6.63686e-05
6.6369e-05
6.63694e-05
6.63696e-05
6.63698e-05
6.63699e-05
6.63699e-05
6.63698e-05
6.63697e-05
6.63695e-05
6.63692e-05
6.63689e-05
6.63686e-05
6.63682e-05
6.63677e-05
6.63672e-05
6.63667e-05
6.63662e-05
6.63657e-05
6.63651e-05
6.63645e-05
6.6364e-05
6.63634e-05
6.63629e-05
6.63623e-05
6.63617e-05
6.63611e-05
6.63605e-05
6.63598e-05
6.63591e-05
6.63583e-05
6.63575e-05
6.63566e-05
6.63556e-05
6.63546e-05
6.63535e-05
6.63523e-05
6.63509e-05
6.63499e-05
6.63492e-05
6.63486e-05
6.63481e-05
6.63477e-05
6.63473e-05
6.63469e-05
6.63466e-05
6.63463e-05
6.63461e-05
6.63459e-05
6.63458e-05
6.63456e-05
6.63457e-05
6.63449e-05
8.41502e-05
8.4149e-05
8.41485e-05
8.41488e-05
8.41492e-05
8.41497e-05
8.415e-05
8.41503e-05
8.41506e-05
8.4151e-05
8.41515e-05
8.4152e-05
8.41526e-05
8.41533e-05
8.41541e-05
8.41548e-05
8.41556e-05
8.41564e-05
8.41573e-05
8.41581e-05
8.41589e-05
8.41597e-05
8.41605e-05
8.41613e-05
8.4162e-05
8.41628e-05
8.41635e-05
8.41641e-05
8.41648e-05
8.41654e-05
8.41659e-05
8.41665e-05
8.4167e-05
8.41674e-05
8.41678e-05
8.41682e-05
8.41685e-05
8.41688e-05
8.41691e-05
8.41693e-05
8.41695e-05
8.41696e-05
8.41696e-05
8.41696e-05
8.41694e-05
8.4169e-05
8.41689e-05
8.41689e-05
8.4169e-05
8.41692e-05
8.41694e-05
8.41695e-05
8.41697e-05
8.41699e-05
8.41701e-05
8.41703e-05
8.41707e-05
8.41712e-05
8.41717e-05
8.41724e-05
8.41732e-05
8.4174e-05
8.41749e-05
8.41757e-05
8.41766e-05
8.41773e-05
8.4178e-05
8.41786e-05
8.41791e-05
8.41795e-05
8.41797e-05
8.41799e-05
8.418e-05
8.418e-05
8.41799e-05
8.41797e-05
8.41794e-05
8.4179e-05
8.41786e-05
8.41782e-05
8.41777e-05
8.41772e-05
8.41766e-05
8.4176e-05
8.41753e-05
8.41747e-05
8.4174e-05
8.41733e-05
8.41726e-05
8.41719e-05
8.41713e-05
8.41706e-05
8.41699e-05
8.41692e-05
8.41684e-05
8.41675e-05
8.41666e-05
8.41657e-05
8.41647e-05
8.41636e-05
8.41624e-05
8.41612e-05
8.416e-05
8.41586e-05
8.41571e-05
8.41559e-05
8.4155e-05
8.41543e-05
8.41537e-05
8.41532e-05
8.41528e-05
8.41523e-05
8.4152e-05
8.41517e-05
8.41514e-05
8.41513e-05
8.41512e-05
8.4151e-05
8.41511e-05
8.41506e-05
9.9437e-05
9.94354e-05
9.94345e-05
9.94346e-05
9.94351e-05
9.94356e-05
9.94361e-05
9.94365e-05
9.9437e-05
9.94374e-05
9.9438e-05
9.94387e-05
9.94394e-05
9.94402e-05
9.9441e-05
9.94419e-05
9.94428e-05
9.94437e-05
9.94446e-05
9.94456e-05
9.94465e-05
9.94474e-05
9.94483e-05
9.94491e-05
9.945e-05
9.94508e-05
9.94516e-05
9.94523e-05
9.9453e-05
9.94537e-05
9.94543e-05
9.94549e-05
9.94554e-05
9.94559e-05
9.94564e-05
9.94568e-05
9.94572e-05
9.94575e-05
9.94578e-05
9.9458e-05
9.94582e-05
9.94583e-05
9.94584e-05
9.94584e-05
9.94583e-05
9.94579e-05
9.94577e-05
9.94577e-05
9.94578e-05
9.9458e-05
9.94582e-05
9.94584e-05
9.94586e-05
9.94588e-05
9.9459e-05
9.94594e-05
9.94598e-05
9.94604e-05
9.94611e-05
9.94619e-05
9.94628e-05
9.94638e-05
9.94647e-05
9.94657e-05
9.94665e-05
9.94674e-05
9.94681e-05
9.94687e-05
9.94692e-05
9.94696e-05
9.94699e-05
9.947e-05
9.947e-05
9.947e-05
9.94698e-05
9.94696e-05
9.94692e-05
9.94688e-05
9.94683e-05
9.94678e-05
9.94672e-05
9.94666e-05
9.94659e-05
9.94652e-05
9.94645e-05
9.94637e-05
9.94629e-05
9.94621e-05
9.94614e-05
9.94606e-05
9.94598e-05
9.9459e-05
9.94582e-05
9.94573e-05
9.94564e-05
9.94555e-05
9.94544e-05
9.94533e-05
9.94521e-05
9.94508e-05
9.94496e-05
9.94482e-05
9.94468e-05
9.94454e-05
9.94438e-05
9.94425e-05
9.94414e-05
9.94406e-05
9.944e-05
9.94394e-05
9.94389e-05
9.94385e-05
9.94381e-05
9.94378e-05
9.94376e-05
9.94374e-05
9.94374e-05
9.94373e-05
9.94374e-05
9.94373e-05
0.000112033
0.000112031
0.000112029
0.000112029
0.00011203
0.00011203
0.000112031
0.000112031
0.000112032
0.000112033
0.000112033
0.000112034
0.000112035
0.000112036
0.000112037
0.000112038
0.000112039
0.00011204
0.000112041
0.000112042
0.000112043
0.000112044
0.000112045
0.000112046
0.000112046
0.000112047
0.000112048
0.000112049
0.00011205
0.00011205
0.000112051
0.000112052
0.000112052
0.000112053
0.000112053
0.000112054
0.000112054
0.000112054
0.000112055
0.000112055
0.000112055
0.000112055
0.000112055
0.000112056
0.000112055
0.000112055
0.000112055
0.000112055
0.000112055
0.000112055
0.000112055
0.000112056
0.000112056
0.000112056
0.000112056
0.000112057
0.000112057
0.000112058
0.000112059
0.00011206
0.000112061
0.000112062
0.000112063
0.000112064
0.000112065
0.000112066
0.000112066
0.000112067
0.000112067
0.000112068
0.000112068
0.000112068
0.000112068
0.000112068
0.000112068
0.000112068
0.000112067
0.000112067
0.000112066
0.000112065
0.000112065
0.000112064
0.000112063
0.000112063
0.000112062
0.000112061
0.00011206
0.000112059
0.000112058
0.000112057
0.000112057
0.000112056
0.000112055
0.000112054
0.000112053
0.000112052
0.00011205
0.000112049
0.000112048
0.000112046
0.000112045
0.000112044
0.000112042
0.000112041
0.000112039
0.000112038
0.000112036
0.000112036
0.000112035
0.000112034
0.000112034
0.000112033
0.000112033
0.000112033
0.000112032
0.000112032
0.000112032
0.000112032
0.000112032
0.000112033
0.000122193
0.00012219
0.000122189
0.000122188
0.000122189
0.000122189
0.00012219
0.000122191
0.000122192
0.000122192
0.000122193
0.000122194
0.000122195
0.000122196
0.000122197
0.000122198
0.000122199
0.0001222
0.000122201
0.000122202
0.000122203
0.000122204
0.000122205
0.000122206
0.000122207
0.000122208
0.000122209
0.00012221
0.000122211
0.000122212
0.000122212
0.000122213
0.000122214
0.000122214
0.000122215
0.000122215
0.000122215
0.000122216
0.000122216
0.000122216
0.000122217
0.000122217
0.000122217
0.000122217
0.000122217
0.000122217
0.000122216
0.000122216
0.000122216
0.000122217
0.000122217
0.000122217
0.000122217
0.000122218
0.000122218
0.000122219
0.000122219
0.00012222
0.000122221
0.000122222
0.000122223
0.000122224
0.000122225
0.000122226
0.000122227
0.000122228
0.000122229
0.00012223
0.00012223
0.00012223
0.000122231
0.000122231
0.000122231
0.00012223
0.00012223
0.00012223
0.000122229
0.000122229
0.000122228
0.000122227
0.000122227
0.000122226
0.000122225
0.000122224
0.000122223
0.000122222
0.000122221
0.00012222
0.000122219
0.000122218
0.000122217
0.000122217
0.000122216
0.000122214
0.000122213
0.000122212
0.000122211
0.000122209
0.000122208
0.000122206
0.000122205
0.000122203
0.000122202
0.0001222
0.000122198
0.000122197
0.000122196
0.000122195
0.000122194
0.000122193
0.000122193
0.000122192
0.000122192
0.000122192
0.000122192
0.000122192
0.000122192
0.000122192
0.000122192
0.000122193
0.000130294
0.000130292
0.00013029
0.00013029
0.00013029
0.00013029
0.000130291
0.000130292
0.000130293
0.000130294
0.000130295
0.000130296
0.000130297
0.000130298
0.000130299
0.0001303
0.000130301
0.000130302
0.000130303
0.000130304
0.000130306
0.000130307
0.000130308
0.000130309
0.00013031
0.000130311
0.000130312
0.000130313
0.000130313
0.000130314
0.000130315
0.000130316
0.000130316
0.000130317
0.000130318
0.000130318
0.000130318
0.000130319
0.000130319
0.000130319
0.00013032
0.00013032
0.00013032
0.00013032
0.00013032
0.00013032
0.00013032
0.00013032
0.00013032
0.00013032
0.00013032
0.00013032
0.00013032
0.000130321
0.000130321
0.000130322
0.000130323
0.000130324
0.000130325
0.000130326
0.000130327
0.000130328
0.00013033
0.000130331
0.000130332
0.000130332
0.000130333
0.000130334
0.000130334
0.000130334
0.000130335
0.000130335
0.000130334
0.000130334
0.000130334
0.000130333
0.000130333
0.000130332
0.000130331
0.000130331
0.00013033
0.000130329
0.000130328
0.000130327
0.000130326
0.000130325
0.000130324
0.000130323
0.000130322
0.000130321
0.00013032
0.000130319
0.000130318
0.000130317
0.000130315
0.000130314
0.000130313
0.000130311
0.000130309
0.000130308
0.000130306
0.000130304
0.000130303
0.000130301
0.0001303
0.000130298
0.000130297
0.000130296
0.000130295
0.000130294
0.000130294
0.000130293
0.000130293
0.000130293
0.000130293
0.000130293
0.000130293
0.000130293
0.000130293
0.000130294
0.000136704
0.000136701
0.000136699
0.000136699
0.000136699
0.000136699
0.0001367
0.000136701
0.000136702
0.000136703
0.000136704
0.000136705
0.000136706
0.000136707
0.000136708
0.00013671
0.000136711
0.000136712
0.000136713
0.000136714
0.000136716
0.000136717
0.000136718
0.000136719
0.00013672
0.000136721
0.000136722
0.000136723
0.000136724
0.000136725
0.000136726
0.000136726
0.000136727
0.000136728
0.000136728
0.000136729
0.000136729
0.000136729
0.00013673
0.00013673
0.00013673
0.000136731
0.000136731
0.000136731
0.000136731
0.000136731
0.000136731
0.00013673
0.00013673
0.000136731
0.000136731
0.000136731
0.000136731
0.000136732
0.000136733
0.000136733
0.000136734
0.000136735
0.000136737
0.000136738
0.000136739
0.00013674
0.000136742
0.000136743
0.000136743
0.000136744
0.000136745
0.000136745
0.000136746
0.000136746
0.000136746
0.000136746
0.000136746
0.000136746
0.000136745
0.000136745
0.000136744
0.000136743
0.000136743
0.000136742
0.000136741
0.00013674
0.000136739
0.000136738
0.000136737
0.000136736
0.000136735
0.000136734
0.000136733
0.000136731
0.00013673
0.000136729
0.000136728
0.000136727
0.000136725
0.000136724
0.000136722
0.00013672
0.000136719
0.000136717
0.000136715
0.000136713
0.000136712
0.00013671
0.000136709
0.000136707
0.000136706
0.000136705
0.000136704
0.000136703
0.000136703
0.000136702
0.000136702
0.000136702
0.000136702
0.000136702
0.000136702
0.000136702
0.000136703
0.000136704
0.000141733
0.000141731
0.000141729
0.000141728
0.000141728
0.000141728
0.000141729
0.00014173
0.000141731
0.000141732
0.000141733
0.000141734
0.000141735
0.000141737
0.000141738
0.000141739
0.00014174
0.000141742
0.000141743
0.000141744
0.000141745
0.000141747
0.000141748
0.000141749
0.00014175
0.000141751
0.000141752
0.000141753
0.000141754
0.000141755
0.000141756
0.000141757
0.000141757
0.000141758
0.000141759
0.000141759
0.00014176
0.00014176
0.00014176
0.000141761
0.000141761
0.000141761
0.000141761
0.000141761
0.000141762
0.000141762
0.000141761
0.000141761
0.000141761
0.000141761
0.000141761
0.000141762
0.000141762
0.000141763
0.000141764
0.000141765
0.000141766
0.000141767
0.000141768
0.00014177
0.000141771
0.000141772
0.000141773
0.000141774
0.000141775
0.000141776
0.000141777
0.000141777
0.000141777
0.000141777
0.000141777
0.000141777
0.000141777
0.000141777
0.000141776
0.000141776
0.000141775
0.000141774
0.000141773
0.000141773
0.000141772
0.000141771
0.00014177
0.000141768
0.000141767
0.000141766
0.000141765
0.000141764
0.000141763
0.000141761
0.00014176
0.000141759
0.000141758
0.000141756
0.000141755
0.000141753
0.000141751
0.000141749
0.000141748
0.000141746
0.000141744
0.000141742
0.000141741
0.000141739
0.000141737
0.000141736
0.000141735
0.000141733
0.000141733
0.000141732
0.000141731
0.000141731
0.000141731
0.000141731
0.000141731
0.000141731
0.000141731
0.000141731
0.000141732
0.000141733
0.000145634
0.000145632
0.00014563
0.000145629
0.000145629
0.00014563
0.00014563
0.000145631
0.000145632
0.000145633
0.000145634
0.000145636
0.000145637
0.000145638
0.00014564
0.000145641
0.000145642
0.000145644
0.000145645
0.000145646
0.000145647
0.000145649
0.00014565
0.000145651
0.000145652
0.000145653
0.000145655
0.000145656
0.000145657
0.000145657
0.000145658
0.000145659
0.00014566
0.000145661
0.000145661
0.000145662
0.000145662
0.000145663
0.000145663
0.000145663
0.000145664
0.000145664
0.000145664
0.000145664
0.000145664
0.000145664
0.000145664
0.000145664
0.000145664
0.000145664
0.000145664
0.000145665
0.000145665
0.000145666
0.000145667
0.000145668
0.000145669
0.000145671
0.000145672
0.000145674
0.000145675
0.000145676
0.000145677
0.000145678
0.000145679
0.00014568
0.00014568
0.000145681
0.000145681
0.000145681
0.000145681
0.000145681
0.00014568
0.00014568
0.000145679
0.000145679
0.000145678
0.000145677
0.000145676
0.000145675
0.000145674
0.000145673
0.000145672
0.000145671
0.00014567
0.000145669
0.000145667
0.000145666
0.000145665
0.000145664
0.000145662
0.000145661
0.00014566
0.000145658
0.000145656
0.000145654
0.000145653
0.000145651
0.000145649
0.000145647
0.000145645
0.000145643
0.000145641
0.00014564
0.000145638
0.000145637
0.000145636
0.000145634
0.000145634
0.000145633
0.000145632
0.000145632
0.000145632
0.000145632
0.000145632
0.000145632
0.000145632
0.000145633
0.000145633
0.000145635
0.000148608
0.000148606
0.000148604
0.000148603
0.000148603
0.000148603
0.000148604
0.000148605
0.000148606
0.000148607
0.000148608
0.000148609
0.000148611
0.000148612
0.000148613
0.000148615
0.000148616
0.000148618
0.000148619
0.00014862
0.000148622
0.000148623
0.000148624
0.000148625
0.000148627
0.000148628
0.000148629
0.00014863
0.000148631
0.000148632
0.000148633
0.000148634
0.000148634
0.000148635
0.000148636
0.000148636
0.000148637
0.000148637
0.000148638
0.000148638
0.000148638
0.000148639
0.000148639
0.000148639
0.000148639
0.000148639
0.000148639
0.000148639
0.000148639
0.000148639
0.000148639
0.00014864
0.00014864
0.000148641
0.000148642
0.000148644
0.000148645
0.000148647
0.000148648
0.00014865
0.000148651
0.000148652
0.000148653
0.000148654
0.000148655
0.000148655
0.000148656
0.000148656
0.000148656
0.000148656
0.000148656
0.000148656
0.000148656
0.000148655
0.000148654
0.000148654
0.000148653
0.000148652
0.000148651
0.00014865
0.000148649
0.000148648
0.000148647
0.000148645
0.000148644
0.000148643
0.000148642
0.00014864
0.000148639
0.000148638
0.000148636
0.000148635
0.000148633
0.000148632
0.00014863
0.000148628
0.000148626
0.000148624
0.000148622
0.00014862
0.000148618
0.000148616
0.000148614
0.000148613
0.000148611
0.00014861
0.000148609
0.000148608
0.000148607
0.000148606
0.000148606
0.000148605
0.000148605
0.000148605
0.000148605
0.000148606
0.000148606
0.000148607
0.000148607
0.000148609
0.000150811
0.000150809
0.000150807
0.000150806
0.000150806
0.000150806
0.000150807
0.000150808
0.000150809
0.00015081
0.000150811
0.000150812
0.000150814
0.000150815
0.000150816
0.000150818
0.000150819
0.000150821
0.000150822
0.000150824
0.000150825
0.000150826
0.000150828
0.000150829
0.00015083
0.000150831
0.000150832
0.000150834
0.000150835
0.000150836
0.000150836
0.000150837
0.000150838
0.000150839
0.00015084
0.00015084
0.000150841
0.000150841
0.000150842
0.000150842
0.000150842
0.000150843
0.000150843
0.000150843
0.000150843
0.000150843
0.000150843
0.000150843
0.000150843
0.000150843
0.000150844
0.000150844
0.000150845
0.000150846
0.000150847
0.000150849
0.00015085
0.000150852
0.000150853
0.000150855
0.000150856
0.000150857
0.000150858
0.000150859
0.00015086
0.00015086
0.000150861
0.000150861
0.000150861
0.000150861
0.000150861
0.00015086
0.00015086
0.000150859
0.000150858
0.000150858
0.000150857
0.000150856
0.000150855
0.000150854
0.000150853
0.000150851
0.00015085
0.000150849
0.000150848
0.000150846
0.000150845
0.000150844
0.000150842
0.000150841
0.000150839
0.000150838
0.000150836
0.000150834
0.000150832
0.00015083
0.000150828
0.000150826
0.000150824
0.000150822
0.00015082
0.000150818
0.000150817
0.000150815
0.000150814
0.000150812
0.000150811
0.00015081
0.000150809
0.000150809
0.000150808
0.000150808
0.000150808
0.000150808
0.000150808
0.000150809
0.000150809
0.00015081
0.00015081
0.000150812
0.000152367
0.000152365
0.000152363
0.000152362
0.000152362
0.000152362
0.000152363
0.000152364
0.000152365
0.000152366
0.000152367
0.000152368
0.00015237
0.000152371
0.000152373
0.000152374
0.000152376
0.000152377
0.000152379
0.00015238
0.000152381
0.000152383
0.000152384
0.000152385
0.000152387
0.000152388
0.000152389
0.00015239
0.000152391
0.000152392
0.000152393
0.000152394
0.000152395
0.000152396
0.000152396
0.000152397
0.000152398
0.000152398
0.000152399
0.000152399
0.000152399
0.0001524
0.0001524
0.0001524
0.000152401
0.000152401
0.000152401
0.0001524
0.0001524
0.000152401
0.000152401
0.000152402
0.000152402
0.000152404
0.000152405
0.000152407
0.000152409
0.00015241
0.000152412
0.000152413
0.000152414
0.000152415
0.000152416
0.000152417
0.000152418
0.000152418
0.000152418
0.000152418
0.000152418
0.000152418
0.000152418
0.000152417
0.000152417
0.000152416
0.000152415
0.000152414
0.000152413
0.000152412
0.000152411
0.00015241
0.000152409
0.000152408
0.000152407
0.000152405
0.000152404
0.000152403
0.000152401
0.0001524
0.000152398
0.000152397
0.000152395
0.000152394
0.000152392
0.00015239
0.000152388
0.000152385
0.000152383
0.000152381
0.000152379
0.000152377
0.000152375
0.000152373
0.000152372
0.000152371
0.000152369
0.000152368
0.000152367
0.000152366
0.000152365
0.000152364
0.000152364
0.000152364
0.000152364
0.000152364
0.000152364
0.000152365
0.000152365
0.000152366
0.000152366
0.000152368
0.000153374
0.000153372
0.00015337
0.00015337
0.000153369
0.00015337
0.00015337
0.000153371
0.000153372
0.000153373
0.000153374
0.000153376
0.000153377
0.000153379
0.00015338
0.000153382
0.000153383
0.000153385
0.000153386
0.000153388
0.000153389
0.00015339
0.000153392
0.000153393
0.000153394
0.000153396
0.000153397
0.000153398
0.000153399
0.0001534
0.000153401
0.000153402
0.000153403
0.000153404
0.000153404
0.000153405
0.000153406
0.000153406
0.000153407
0.000153407
0.000153407
0.000153408
0.000153408
0.000153408
0.000153409
0.000153409
0.000153409
0.000153409
0.000153409
0.000153409
0.000153409
0.00015341
0.000153411
0.000153413
0.000153414
0.000153416
0.000153418
0.00015342
0.000153421
0.000153422
0.000153423
0.000153424
0.000153425
0.000153426
0.000153426
0.000153426
0.000153426
0.000153426
0.000153426
0.000153426
0.000153426
0.000153425
0.000153424
0.000153424
0.000153423
0.000153422
0.000153421
0.00015342
0.000153419
0.000153417
0.000153416
0.000153415
0.000153414
0.000153412
0.000153411
0.00015341
0.000153408
0.000153407
0.000153405
0.000153404
0.000153402
0.0001534
0.000153398
0.000153396
0.000153394
0.000153391
0.000153389
0.000153387
0.000153385
0.000153383
0.000153381
0.00015338
0.000153378
0.000153377
0.000153376
0.000153374
0.000153373
0.000153372
0.000153372
0.000153371
0.000153371
0.000153371
0.000153371
0.000153371
0.000153372
0.000153372
0.000153373
0.000153373
0.000153374
0.000153376
0.00015391
0.000153908
0.000153907
0.000153906
0.000153906
0.000153906
0.000153907
0.000153908
0.000153909
0.00015391
0.000153911
0.000153912
0.000153914
0.000153915
0.000153917
0.000153918
0.00015392
0.000153921
0.000153923
0.000153924
0.000153926
0.000153927
0.000153929
0.00015393
0.000153931
0.000153933
0.000153934
0.000153935
0.000153936
0.000153937
0.000153938
0.000153939
0.00015394
0.000153941
0.000153941
0.000153942
0.000153943
0.000153943
0.000153944
0.000153944
0.000153945
0.000153945
0.000153945
0.000153946
0.000153946
0.000153946
0.000153946
0.000153946
0.000153946
0.000153947
0.000153947
0.000153948
0.00015395
0.000153951
0.000153953
0.000153955
0.000153956
0.000153958
0.000153959
0.000153961
0.000153962
0.000153962
0.000153963
0.000153963
0.000153964
0.000153964