/*--------------------------------*- C++ -*----------------------------------*\
  =========                 |
  \\      /  F ield         | OpenFOAM: The Open Source CFD Toolbox
   \\    /   O peration     | Website:  https://openfoam.org
    \\  /    A nd           | Version:  7
     \\/     M anipulation  |
\*---------------------------------------------------------------------------*/
FoamFile
{
    version     2.0;
    format      ascii;
    class       volScalarField;
    location    "1500";
    object      nut;
}
// * * * * * * * * * * * * * * * * * * * * * * * * * * * * * * * * * * * * * //

dimensions      [0 2 -1 0 0 0 0];

internalField   nonuniform List<scalar> 
24000
(
7.08375e-12
7.08388e-12
7.084e-12
7.08406e-12
7.08409e-12
7.0841e-12
7.0841e-12
7.0841e-12
7.08411e-12
7.08414e-12
7.08418e-12
7.08424e-12
7.0843e-12
7.08437e-12
7.08445e-12
7.08453e-12
7.08462e-12
7.08471e-12
7.0848e-12
7.08489e-12
7.08499e-12
7.08508e-12
7.08517e-12
7.08526e-12
7.08535e-12
7.08543e-12
7.08551e-12
7.08559e-12
7.08567e-12
7.08574e-12
7.08581e-12
7.08588e-12
7.08594e-12
7.086e-12
7.08605e-12
7.0861e-12
7.08614e-12
7.08618e-12
7.08622e-12
7.08625e-12
7.08627e-12
7.08628e-12
7.08627e-12
7.08625e-12
7.08619e-12
7.0861e-12
7.08609e-12
7.0861e-12
7.08613e-12
7.08616e-12
7.08619e-12
7.08622e-12
7.08624e-12
7.08626e-12
7.08627e-12
7.08629e-12
7.08632e-12
7.08636e-12
7.08641e-12
7.08648e-12
7.08656e-12
7.08665e-12
7.08674e-12
7.08684e-12
7.08694e-12
7.08703e-12
7.08712e-12
7.0872e-12
7.08727e-12
7.08733e-12
7.08738e-12
7.08741e-12
7.08743e-12
7.08744e-12
7.08744e-12
7.08743e-12
7.08741e-12
7.08739e-12
7.08735e-12
7.08731e-12
7.08726e-12
7.08721e-12
7.08715e-12
7.08709e-12
7.08702e-12
7.08695e-12
7.08687e-12
7.0868e-12
7.08673e-12
7.08666e-12
7.08659e-12
7.08653e-12
7.08645e-12
7.08638e-12
7.0863e-12
7.08622e-12
7.08613e-12
7.08603e-12
7.08593e-12
7.08581e-12
7.08569e-12
7.08553e-12
7.08538e-12
7.08518e-12
7.08496e-12
7.08483e-12
7.08474e-12
7.08467e-12
7.08461e-12
7.08456e-12
7.0845e-12
7.08445e-12
7.0844e-12
7.08436e-12
7.08432e-12
7.08429e-12
7.08427e-12
7.08421e-12
7.08424e-12
7.08389e-12
1.23183e-09
1.23186e-09
1.23188e-09
1.23189e-09
1.23189e-09
1.2319e-09
1.2319e-09
1.2319e-09
1.2319e-09
1.2319e-09
1.23191e-09
1.23192e-09
1.23193e-09
1.23194e-09
1.23196e-09
1.23197e-09
1.23198e-09
1.232e-09
1.23202e-09
1.23203e-09
1.23205e-09
1.23206e-09
1.23208e-09
1.2321e-09
1.23211e-09
1.23213e-09
1.23214e-09
1.23215e-09
1.23217e-09
1.23218e-09
1.23219e-09
1.2322e-09
1.23221e-09
1.23222e-09
1.23223e-09
1.23224e-09
1.23225e-09
1.23226e-09
1.23226e-09
1.23227e-09
1.23227e-09
1.23227e-09
1.23227e-09
1.23227e-09
1.23226e-09
1.23224e-09
1.23224e-09
1.23224e-09
1.23225e-09
1.23225e-09
1.23226e-09
1.23226e-09
1.23227e-09
1.23227e-09
1.23227e-09
1.23228e-09
1.23228e-09
1.23229e-09
1.2323e-09
1.23231e-09
1.23232e-09
1.23234e-09
1.23235e-09
1.23237e-09
1.23239e-09
1.23241e-09
1.23242e-09
1.23243e-09
1.23245e-09
1.23246e-09
1.23246e-09
1.23247e-09
1.23247e-09
1.23248e-09
1.23248e-09
1.23247e-09
1.23247e-09
1.23247e-09
1.23246e-09
1.23245e-09
1.23244e-09
1.23244e-09
1.23243e-09
1.23241e-09
1.2324e-09
1.23239e-09
1.23238e-09
1.23236e-09
1.23235e-09
1.23234e-09
1.23233e-09
1.23232e-09
1.2323e-09
1.23229e-09
1.23228e-09
1.23226e-09
1.23225e-09
1.23223e-09
1.23221e-09
1.23219e-09
1.23217e-09
1.23214e-09
1.23212e-09
1.23208e-09
1.23204e-09
1.23202e-09
1.23201e-09
1.23199e-09
1.23198e-09
1.23197e-09
1.23197e-09
1.23196e-09
1.23195e-09
1.23194e-09
1.23193e-09
1.23193e-09
1.23193e-09
1.23191e-09
1.23192e-09
1.23186e-09
2.63385e-08
2.63389e-08
2.63394e-08
2.63396e-08
2.63397e-08
2.63397e-08
2.63397e-08
2.63397e-08
2.63397e-08
2.63398e-08
2.634e-08
2.63402e-08
2.63404e-08
2.63407e-08
2.6341e-08
2.63413e-08
2.63416e-08
2.63419e-08
2.63423e-08
2.63426e-08
2.6343e-08
2.63433e-08
2.63436e-08
2.6344e-08
2.63443e-08
2.63446e-08
2.63449e-08
2.63452e-08
2.63455e-08
2.63458e-08
2.6346e-08
2.63463e-08
2.63465e-08
2.63467e-08
2.63469e-08
2.63471e-08
2.63472e-08
2.63474e-08
2.63475e-08
2.63476e-08
2.63477e-08
2.63478e-08
2.63477e-08
2.63477e-08
2.63474e-08
2.63471e-08
2.63471e-08
2.63471e-08
2.63472e-08
2.63473e-08
2.63474e-08
2.63475e-08
2.63476e-08
2.63477e-08
2.63477e-08
2.63478e-08
2.63479e-08
2.6348e-08
2.63482e-08
2.63485e-08
2.63488e-08
2.63491e-08
2.63495e-08
2.63498e-08
2.63502e-08
2.63505e-08
2.63509e-08
2.63512e-08
2.63514e-08
2.63516e-08
2.63518e-08
2.63519e-08
2.6352e-08
2.6352e-08
2.6352e-08
2.6352e-08
2.63519e-08
2.63518e-08
2.63517e-08
2.63515e-08
2.63514e-08
2.63512e-08
2.6351e-08
2.63507e-08
2.63505e-08
2.63502e-08
2.63499e-08
2.63497e-08
2.63494e-08
2.63491e-08
2.63489e-08
2.63486e-08
2.63484e-08
2.63481e-08
2.63478e-08
2.63475e-08
2.63472e-08
2.63468e-08
2.63464e-08
2.6346e-08
2.63455e-08
2.6345e-08
2.63444e-08
2.63437e-08
2.63429e-08
2.63424e-08
2.63421e-08
2.63418e-08
2.63416e-08
2.63414e-08
2.63412e-08
2.6341e-08
2.63408e-08
2.63406e-08
2.63405e-08
2.63404e-08
2.63403e-08
2.63401e-08
2.63402e-08
2.6339e-08
2.0161e-07
2.01614e-07
2.01618e-07
2.01619e-07
2.0162e-07
2.0162e-07
2.0162e-07
2.0162e-07
2.0162e-07
2.01621e-07
2.01622e-07
2.01624e-07
2.01625e-07
2.01627e-07
2.01629e-07
2.01632e-07
2.01634e-07
2.01637e-07
2.01639e-07
2.01642e-07
2.01645e-07
2.01647e-07
2.0165e-07
2.01652e-07
2.01655e-07
2.01657e-07
2.01659e-07
2.01661e-07
2.01664e-07
2.01666e-07
2.01667e-07
2.01669e-07
2.01671e-07
2.01673e-07
2.01674e-07
2.01675e-07
2.01677e-07
2.01678e-07
2.01679e-07
2.01679e-07
2.0168e-07
2.0168e-07
2.0168e-07
2.0168e-07
2.01678e-07
2.01675e-07
2.01675e-07
2.01676e-07
2.01676e-07
2.01677e-07
2.01678e-07
2.01679e-07
2.01679e-07
2.0168e-07
2.0168e-07
2.01681e-07
2.01682e-07
2.01683e-07
2.01684e-07
2.01686e-07
2.01688e-07
2.01691e-07
2.01693e-07
2.01696e-07
2.01699e-07
2.01702e-07
2.01704e-07
2.01706e-07
2.01708e-07
2.0171e-07
2.01711e-07
2.01712e-07
2.01712e-07
2.01713e-07
2.01713e-07
2.01712e-07
2.01712e-07
2.01711e-07
2.0171e-07
2.01709e-07
2.01707e-07
2.01706e-07
2.01704e-07
2.01702e-07
2.01701e-07
2.01699e-07
2.01696e-07
2.01694e-07
2.01692e-07
2.01691e-07
2.01689e-07
2.01687e-07
2.01685e-07
2.01683e-07
2.0168e-07
2.01678e-07
2.01676e-07
2.01673e-07
2.0167e-07
2.01667e-07
2.01663e-07
2.01659e-07
2.01655e-07
2.01649e-07
2.01643e-07
2.0164e-07
2.01637e-07
2.01635e-07
2.01634e-07
2.01632e-07
2.01631e-07
2.01629e-07
2.01628e-07
2.01627e-07
2.01626e-07
2.01625e-07
2.01624e-07
2.01623e-07
2.01623e-07
2.01614e-07
8.56971e-07
8.5699e-07
8.57008e-07
8.57017e-07
8.57022e-07
8.57023e-07
8.57023e-07
8.57023e-07
8.57024e-07
8.57027e-07
8.57031e-07
8.57037e-07
8.57044e-07
8.57052e-07
8.57061e-07
8.57071e-07
8.57081e-07
8.57091e-07
8.57102e-07
8.57112e-07
8.57123e-07
8.57134e-07
8.57144e-07
8.57154e-07
8.57164e-07
8.57173e-07
8.57183e-07
8.57192e-07
8.572e-07
8.57209e-07
8.57216e-07
8.57224e-07
8.57231e-07
8.57237e-07
8.57243e-07
8.57248e-07
8.57253e-07
8.57257e-07
8.57261e-07
8.57264e-07
8.57266e-07
8.57267e-07
8.57265e-07
8.57264e-07
8.57257e-07
8.57247e-07
8.57246e-07
8.57249e-07
8.57253e-07
8.57256e-07
8.5726e-07
8.57263e-07
8.57266e-07
8.57268e-07
8.57269e-07
8.57271e-07
8.57274e-07
8.57279e-07
8.57285e-07
8.57293e-07
8.57302e-07
8.57312e-07
8.57323e-07
8.57334e-07
8.57346e-07
8.57356e-07
8.57366e-07
8.57375e-07
8.57382e-07
8.57389e-07
8.57394e-07
8.57397e-07
8.57399e-07
8.574e-07
8.574e-07
8.57398e-07
8.57396e-07
8.57392e-07
8.57388e-07
8.57383e-07
8.57377e-07
8.57371e-07
8.57364e-07
8.57356e-07
8.57348e-07
8.5734e-07
8.57332e-07
8.57323e-07
8.57315e-07
8.57307e-07
8.57299e-07
8.57291e-07
8.57283e-07
8.57274e-07
8.57265e-07
8.57255e-07
8.57245e-07
8.57234e-07
8.57221e-07
8.57208e-07
8.57193e-07
8.57176e-07
8.57159e-07
8.57137e-07
8.57112e-07
8.57098e-07
8.57089e-07
8.57082e-07
8.57076e-07
8.57069e-07
8.57063e-07
8.57057e-07
8.57052e-07
8.57047e-07
8.57043e-07
8.57039e-07
8.57037e-07
8.57031e-07
8.57033e-07
8.56998e-07
2.45158e-06
2.45162e-06
2.45169e-06
2.45173e-06
2.45175e-06
2.45175e-06
2.45176e-06
2.45176e-06
2.45176e-06
2.45177e-06
2.45178e-06
2.4518e-06
2.45182e-06
2.45184e-06
2.45186e-06
2.45189e-06
2.45192e-06
2.45194e-06
2.45197e-06
2.452e-06
2.45203e-06
2.45206e-06
2.45208e-06
2.45211e-06
2.45214e-06
2.45216e-06
2.45219e-06
2.45221e-06
2.45224e-06
2.45226e-06
2.45228e-06
2.4523e-06
2.45232e-06
2.45233e-06
2.45235e-06
2.45236e-06
2.45237e-06
2.45239e-06
2.4524e-06
2.4524e-06
2.45241e-06
2.45241e-06
2.45241e-06
2.4524e-06
2.45238e-06
2.45236e-06
2.45235e-06
2.45236e-06
2.45237e-06
2.45238e-06
2.4524e-06
2.45241e-06
2.45241e-06
2.45242e-06
2.45242e-06
2.45243e-06
2.45244e-06
2.45245e-06
2.45247e-06
2.45249e-06
2.45251e-06
2.45254e-06
2.45257e-06
2.4526e-06
2.45263e-06
2.45266e-06
2.45268e-06
2.45271e-06
2.45273e-06
2.45274e-06
2.45276e-06
2.45276e-06
2.45277e-06
2.45277e-06
2.45277e-06
2.45276e-06
2.45276e-06
2.45275e-06
2.45273e-06
2.45272e-06
2.4527e-06
2.45268e-06
2.45267e-06
2.45264e-06
2.45262e-06
2.4526e-06
2.45258e-06
2.45255e-06
2.45253e-06
2.45251e-06
2.45249e-06
2.45247e-06
2.45244e-06
2.45242e-06
2.4524e-06
2.45237e-06
2.45234e-06
2.45231e-06
2.45228e-06
2.45224e-06
2.4522e-06
2.45215e-06
2.4521e-06
2.45205e-06
2.45198e-06
2.45194e-06
2.45192e-06
2.4519e-06
2.45189e-06
2.45187e-06
2.45186e-06
2.45184e-06
2.45183e-06
2.45181e-06
2.4518e-06
2.4518e-06
2.45179e-06
2.45177e-06
2.45178e-06
2.45169e-06
5.2858e-06
5.28587e-06
5.28601e-06
5.28612e-06
5.28619e-06
5.28622e-06
5.28624e-06
5.28625e-06
5.28626e-06
5.28628e-06
5.2863e-06
5.28634e-06
5.28638e-06
5.28642e-06
5.28647e-06
5.28652e-06
5.28658e-06
5.28663e-06
5.28669e-06
5.28675e-06
5.28681e-06
5.28686e-06
5.28692e-06
5.28697e-06
5.28703e-06
5.28708e-06
5.28713e-06
5.28717e-06
5.28722e-06
5.28726e-06
5.2873e-06
5.28734e-06
5.28738e-06
5.28741e-06
5.28744e-06
5.28747e-06
5.28749e-06
5.28752e-06
5.28753e-06
5.28755e-06
5.28756e-06
5.28757e-06
5.28755e-06
5.28754e-06
5.28751e-06
5.28745e-06
5.28744e-06
5.28746e-06
5.28749e-06
5.28751e-06
5.28754e-06
5.28756e-06
5.28757e-06
5.28759e-06
5.2876e-06
5.28761e-06
5.28763e-06
5.28766e-06
5.28769e-06
5.28774e-06
5.28779e-06
5.28784e-06
5.2879e-06
5.28796e-06
5.28802e-06
5.28808e-06
5.28813e-06
5.28817e-06
5.28821e-06
5.28824e-06
5.28826e-06
5.28828e-06
5.28829e-06
5.28829e-06
5.28828e-06
5.28827e-06
5.28825e-06
5.28823e-06
5.2882e-06
5.28817e-06
5.28814e-06
5.2881e-06
5.28806e-06
5.28802e-06
5.28797e-06
5.28793e-06
5.28788e-06
5.28783e-06
5.28779e-06
5.28774e-06
5.2877e-06
5.28766e-06
5.28761e-06
5.28756e-06
5.28751e-06
5.28745e-06
5.28739e-06
5.28733e-06
5.28726e-06
5.28719e-06
5.28711e-06
5.28701e-06
5.28692e-06
5.2868e-06
5.28666e-06
5.28659e-06
5.28654e-06
5.28651e-06
5.28649e-06
5.28646e-06
5.28643e-06
5.28641e-06
5.28638e-06
5.28636e-06
5.28634e-06
5.28632e-06
5.28631e-06
5.28628e-06
5.28628e-06
5.28615e-06
9.34156e-06
9.34159e-06
9.34181e-06
9.34203e-06
9.34219e-06
9.34229e-06
9.34235e-06
9.34239e-06
9.34242e-06
9.34246e-06
9.34251e-06
9.34257e-06
9.34263e-06
9.34271e-06
9.34279e-06
9.34288e-06
9.34297e-06
9.34306e-06
9.34316e-06
9.34325e-06
9.34335e-06
9.34344e-06
9.34354e-06
9.34363e-06
9.34371e-06
9.3438e-06
9.34388e-06
9.34396e-06
9.34403e-06
9.3441e-06
9.34417e-06
9.34424e-06
9.34429e-06
9.34435e-06
9.3444e-06
9.34444e-06
9.34448e-06
9.34452e-06
9.34455e-06
9.34457e-06
9.34459e-06
9.3446e-06
9.34458e-06
9.34457e-06
9.34451e-06
9.34442e-06
9.34439e-06
9.34441e-06
9.34446e-06
9.3445e-06
9.34455e-06
9.34459e-06
9.34462e-06
9.34465e-06
9.34467e-06
9.3447e-06
9.34474e-06
9.34478e-06
9.34484e-06
9.34492e-06
9.345e-06
9.34509e-06
9.34519e-06
9.34529e-06
9.34538e-06
9.34547e-06
9.34555e-06
9.34563e-06
9.34569e-06
9.34573e-06
9.34577e-06
9.34579e-06
9.3458e-06
9.3458e-06
9.34579e-06
9.34577e-06
9.34573e-06
9.34569e-06
9.34565e-06
9.34559e-06
9.34554e-06
9.34547e-06
9.3454e-06
9.34533e-06
9.34526e-06
9.34518e-06
9.3451e-06
9.34502e-06
9.34494e-06
9.34486e-06
9.34479e-06
9.34472e-06
9.34464e-06
9.34456e-06
9.34447e-06
9.34438e-06
9.34428e-06
9.34417e-06
9.34406e-06
9.34393e-06
9.3438e-06
9.34364e-06
9.34348e-06
9.34329e-06
9.34307e-06
9.34293e-06
9.34285e-06
9.3428e-06
9.34276e-06
9.34273e-06
9.34269e-06
9.34265e-06
9.34262e-06
9.34258e-06
9.34256e-06
9.34253e-06
9.34252e-06
9.34247e-06
9.34247e-06
9.34233e-06
1.44081e-05
1.4408e-05
1.44083e-05
1.44086e-05
1.44089e-05
1.44091e-05
1.44093e-05
1.44094e-05
1.44094e-05
1.44095e-05
1.44096e-05
1.44097e-05
1.44098e-05
1.44099e-05
1.441e-05
1.44102e-05
1.44103e-05
1.44104e-05
1.44106e-05
1.44107e-05
1.44109e-05
1.4411e-05
1.44111e-05
1.44113e-05
1.44114e-05
1.44115e-05
1.44116e-05
1.44118e-05
1.44119e-05
1.4412e-05
1.44121e-05
1.44122e-05
1.44123e-05
1.44123e-05
1.44124e-05
1.44125e-05
1.44125e-05
1.44126e-05
1.44126e-05
1.44127e-05
1.44127e-05
1.44127e-05
1.44127e-05
1.44127e-05
1.44126e-05
1.44125e-05
1.44124e-05
1.44124e-05
1.44125e-05
1.44125e-05
1.44126e-05
1.44127e-05
1.44127e-05
1.44128e-05
1.44128e-05
1.44129e-05
1.44129e-05
1.4413e-05
1.44131e-05
1.44132e-05
1.44134e-05
1.44135e-05
1.44136e-05
1.44138e-05
1.44139e-05
1.4414e-05
1.44141e-05
1.44142e-05
1.44143e-05
1.44144e-05
1.44144e-05
1.44145e-05
1.44145e-05
1.44145e-05
1.44144e-05
1.44144e-05
1.44144e-05
1.44143e-05
1.44142e-05
1.44142e-05
1.44141e-05
1.4414e-05
1.44139e-05
1.44138e-05
1.44136e-05
1.44135e-05
1.44134e-05
1.44133e-05
1.44132e-05
1.44131e-05
1.44129e-05
1.44128e-05
1.44127e-05
1.44126e-05
1.44125e-05
1.44123e-05
1.44122e-05
1.4412e-05
1.44119e-05
1.44117e-05
1.44115e-05
1.44112e-05
1.4411e-05
1.44107e-05
1.44104e-05
1.44102e-05
1.44101e-05
1.441e-05
1.44099e-05
1.44099e-05
1.44099e-05
1.44098e-05
1.44098e-05
1.44097e-05
1.44097e-05
1.44097e-05
1.44097e-05
1.44096e-05
1.44096e-05
1.44095e-05
2.02514e-05
2.02511e-05
2.02513e-05
2.02518e-05
2.02522e-05
2.02525e-05
2.02528e-05
2.0253e-05
2.02531e-05
2.02533e-05
2.02534e-05
2.02535e-05
2.02537e-05
2.02539e-05
2.0254e-05
2.02542e-05
2.02544e-05
2.02546e-05
2.02548e-05
2.0255e-05
2.02552e-05
2.02554e-05
2.02555e-05
2.02557e-05
2.02559e-05
2.02561e-05
2.02562e-05
2.02564e-05
2.02565e-05
2.02567e-05
2.02568e-05
2.02569e-05
2.02571e-05
2.02572e-05
2.02573e-05
2.02574e-05
2.02574e-05
2.02575e-05
2.02576e-05
2.02576e-05
2.02577e-05
2.02577e-05
2.02577e-05
2.02576e-05
2.02576e-05
2.02574e-05
2.02573e-05
2.02573e-05
2.02574e-05
2.02574e-05
2.02575e-05
2.02576e-05
2.02577e-05
2.02578e-05
2.02579e-05
2.0258e-05
2.02581e-05
2.02582e-05
2.02583e-05
2.02585e-05
2.02587e-05
2.02588e-05
2.0259e-05
2.02592e-05
2.02594e-05
2.02596e-05
2.02597e-05
2.02598e-05
2.02599e-05
2.026e-05
2.02601e-05
2.02601e-05
2.02601e-05
2.02601e-05
2.02601e-05
2.026e-05
2.02599e-05
2.02599e-05
2.02598e-05
2.02596e-05
2.02595e-05
2.02594e-05
2.02593e-05
2.02591e-05
2.02589e-05
2.02588e-05
2.02586e-05
2.02585e-05
2.02583e-05
2.02581e-05
2.0258e-05
2.02578e-05
2.02577e-05
2.02575e-05
2.02573e-05
2.02571e-05
2.02569e-05
2.02567e-05
2.02565e-05
2.02562e-05
2.0256e-05
2.02556e-05
2.02553e-05
2.0255e-05
2.02546e-05
2.02543e-05
2.02541e-05
2.02539e-05
2.02539e-05
2.02538e-05
2.02538e-05
2.02537e-05
2.02537e-05
2.02536e-05
2.02536e-05
2.02536e-05
2.02536e-05
2.02535e-05
2.02535e-05
2.02535e-05
2.66831e-05
2.66825e-05
2.66827e-05
2.66832e-05
2.66837e-05
2.66842e-05
2.66846e-05
2.66849e-05
2.66851e-05
2.66854e-05
2.66856e-05
2.66858e-05
2.6686e-05
2.66863e-05
2.66865e-05
2.66867e-05
2.6687e-05
2.66872e-05
2.66875e-05
2.66877e-05
2.6688e-05
2.66882e-05
2.66885e-05
2.66887e-05
2.66889e-05
2.66891e-05
2.66894e-05
2.66896e-05
2.66898e-05
2.66899e-05
2.66901e-05
2.66903e-05
2.66904e-05
2.66906e-05
2.66907e-05
2.66908e-05
2.66909e-05
2.6691e-05
2.66911e-05
2.66912e-05
2.66912e-05
2.66913e-05
2.66913e-05
2.66912e-05
2.66911e-05
2.66909e-05
2.66908e-05
2.66908e-05
2.66909e-05
2.66909e-05
2.66911e-05
2.66912e-05
2.66913e-05
2.66914e-05
2.66915e-05
2.66917e-05
2.66918e-05
2.6692e-05
2.66922e-05
2.66924e-05
2.66926e-05
2.66929e-05
2.66931e-05
2.66933e-05
2.66935e-05
2.66937e-05
2.66939e-05
2.66941e-05
2.66942e-05
2.66943e-05
2.66944e-05
2.66944e-05
2.66944e-05
2.66944e-05
2.66943e-05
2.66943e-05
2.66942e-05
2.66941e-05
2.66939e-05
2.66938e-05
2.66936e-05
2.66934e-05
2.66933e-05
2.66931e-05
2.66929e-05
2.66927e-05
2.66924e-05
2.66922e-05
2.6692e-05
2.66918e-05
2.66916e-05
2.66914e-05
2.66912e-05
2.6691e-05
2.66907e-05
2.66905e-05
2.66902e-05
2.66899e-05
2.66896e-05
2.66893e-05
2.6689e-05
2.66886e-05
2.66882e-05
2.66877e-05
2.66872e-05
2.66868e-05
2.66866e-05
2.66864e-05
2.66863e-05
2.66862e-05
2.66861e-05
2.66861e-05
2.6686e-05
2.6686e-05
2.6686e-05
2.66859e-05
2.6686e-05
2.66859e-05
2.66859e-05
2.6686e-05
3.35657e-05
3.35648e-05
3.35648e-05
3.35653e-05
3.3566e-05
3.35666e-05
3.35671e-05
3.35675e-05
3.35679e-05
3.35682e-05
3.35685e-05
3.35689e-05
3.35692e-05
3.35695e-05
3.35698e-05
3.35701e-05
3.35704e-05
3.35707e-05
3.35711e-05
3.35714e-05
3.35717e-05
3.3572e-05
3.35723e-05
3.35726e-05
3.35729e-05
3.35731e-05
3.35734e-05
3.35737e-05
3.35739e-05
3.35741e-05
3.35743e-05
3.35746e-05
3.35747e-05
3.35749e-05
3.35751e-05
3.35752e-05
3.35754e-05
3.35755e-05
3.35756e-05
3.35757e-05
3.35758e-05
3.35758e-05
3.35758e-05
3.35758e-05
3.35757e-05
3.35755e-05
3.35753e-05
3.35753e-05
3.35753e-05
3.35754e-05
3.35756e-05
3.35757e-05
3.35759e-05
3.3576e-05
3.35762e-05
3.35764e-05
3.35766e-05
3.35768e-05
3.35771e-05
3.35774e-05
3.35777e-05
3.35779e-05
3.35782e-05
3.35785e-05
3.35788e-05
3.3579e-05
3.35792e-05
3.35794e-05
3.35795e-05
3.35796e-05
3.35797e-05
3.35798e-05
3.35798e-05
3.35797e-05
3.35797e-05
3.35796e-05
3.35794e-05
3.35793e-05
3.35791e-05
3.35789e-05
3.35787e-05
3.35785e-05
3.35783e-05
3.35781e-05
3.35778e-05
3.35775e-05
3.35773e-05
3.3577e-05
3.35767e-05
3.35765e-05
3.35762e-05
3.3576e-05
3.35757e-05
3.35754e-05
3.35751e-05
3.35748e-05
3.35745e-05
3.35741e-05
3.35737e-05
3.35733e-05
3.35729e-05
3.35724e-05
3.35719e-05
3.35714e-05
3.35708e-05
3.35703e-05
3.357e-05
3.35697e-05
3.35696e-05
3.35694e-05
3.35694e-05
3.35693e-05
3.35693e-05
3.35692e-05
3.35692e-05
3.35692e-05
3.35693e-05
3.35692e-05
3.35691e-05
3.35696e-05
4.08e-05
4.07987e-05
4.07987e-05
4.07991e-05
4.07998e-05
4.08005e-05
4.08012e-05
4.08018e-05
4.08023e-05
4.08027e-05
4.08031e-05
4.08036e-05
4.0804e-05
4.08044e-05
4.08048e-05
4.08052e-05
4.08056e-05
4.0806e-05
4.08064e-05
4.08067e-05
4.08071e-05
4.08075e-05
4.08079e-05
4.08082e-05
4.08086e-05
4.08089e-05
4.08092e-05
4.08095e-05
4.08098e-05
4.08101e-05
4.08104e-05
4.08106e-05
4.08109e-05
4.08111e-05
4.08113e-05
4.08115e-05
4.08116e-05
4.08118e-05
4.08119e-05
4.0812e-05
4.08121e-05
4.08122e-05
4.08122e-05
4.08122e-05
4.08121e-05
4.08119e-05
4.08117e-05
4.08117e-05
4.08117e-05
4.08118e-05
4.08119e-05
4.08121e-05
4.08123e-05
4.08125e-05
4.08127e-05
4.0813e-05
4.08133e-05
4.08136e-05
4.08139e-05
4.08143e-05
4.08146e-05
4.0815e-05
4.08153e-05
4.08156e-05
4.08159e-05
4.08162e-05
4.08164e-05
4.08166e-05
4.08168e-05
4.08169e-05
4.0817e-05
4.0817e-05
4.0817e-05
4.08169e-05
4.08168e-05
4.08167e-05
4.08166e-05
4.08164e-05
4.08162e-05
4.08159e-05
4.08157e-05
4.08154e-05
4.08152e-05
4.08149e-05
4.08146e-05
4.08142e-05
4.08139e-05
4.08136e-05
4.08133e-05
4.08129e-05
4.08126e-05
4.08123e-05
4.0812e-05
4.08116e-05
4.08113e-05
4.08109e-05
4.08104e-05
4.081e-05
4.08095e-05
4.0809e-05
4.08085e-05
4.0808e-05
4.08075e-05
4.08069e-05
4.08062e-05
4.08056e-05
4.08051e-05
4.08048e-05
4.08046e-05
4.08045e-05
4.08044e-05
4.08043e-05
4.08043e-05
4.08043e-05
4.08043e-05
4.08043e-05
4.08043e-05
4.08043e-05
4.08042e-05
4.08049e-05
4.83134e-05
4.83119e-05
4.83117e-05
4.83121e-05
4.83128e-05
4.83136e-05
4.83144e-05
4.83151e-05
4.83157e-05
4.83163e-05
4.83168e-05
4.83174e-05
4.83179e-05
4.83184e-05
4.83189e-05
4.83194e-05
4.83199e-05
4.83204e-05
4.83209e-05
4.83213e-05
4.83218e-05
4.83222e-05
4.83227e-05
4.83231e-05
4.83235e-05
4.83239e-05
4.83243e-05
4.83247e-05
4.8325e-05
4.83254e-05
4.83257e-05
4.8326e-05
4.83262e-05
4.83265e-05
4.83267e-05
4.8327e-05
4.83272e-05
4.83274e-05
4.83275e-05
4.83277e-05
4.83278e-05
4.83279e-05
4.83279e-05
4.83279e-05
4.83278e-05
4.83276e-05
4.83274e-05
4.83274e-05
4.83274e-05
4.83274e-05
4.83276e-05
4.83278e-05
4.8328e-05
4.83283e-05
4.83286e-05
4.83289e-05
4.83293e-05
4.83297e-05
4.83301e-05
4.83305e-05
4.8331e-05
4.83314e-05
4.83318e-05
4.83321e-05
4.83325e-05
4.83327e-05
4.8333e-05
4.83332e-05
4.83334e-05
4.83335e-05
4.83335e-05
4.83335e-05
4.83335e-05
4.83334e-05
4.83333e-05
4.83332e-05
4.8333e-05
4.83328e-05
4.83325e-05
4.83322e-05
4.83319e-05
4.83316e-05
4.83313e-05
4.8331e-05
4.83306e-05
4.83302e-05
4.83298e-05
4.83294e-05
4.83291e-05
4.83287e-05
4.83283e-05
4.83279e-05
4.83275e-05
4.83271e-05
4.83266e-05
4.83261e-05
4.83256e-05
4.83251e-05
4.83245e-05
4.8324e-05
4.83234e-05
4.83228e-05
4.83222e-05
4.83215e-05
4.83207e-05
4.832e-05
4.83195e-05
4.83191e-05
4.83189e-05
4.83187e-05
4.83186e-05
4.83185e-05
4.83185e-05
4.83185e-05
4.83185e-05
4.83186e-05
4.83186e-05
4.83187e-05
4.83185e-05
4.83195e-05
5.60518e-05
5.60499e-05
5.60497e-05
5.605e-05
5.60508e-05
5.60516e-05
5.60524e-05
5.60533e-05
5.6054e-05
5.60547e-05
5.60554e-05
5.60561e-05
5.60567e-05
5.60573e-05
5.60579e-05
5.60585e-05
5.60591e-05
5.60597e-05
5.60603e-05
5.60609e-05
5.60614e-05
5.60619e-05
5.60624e-05
5.60629e-05
5.60634e-05
5.60639e-05
5.60644e-05
5.60648e-05
5.60652e-05
5.60656e-05
5.6066e-05
5.60663e-05
5.60666e-05
5.60669e-05
5.60672e-05
5.60675e-05
5.60677e-05
5.60679e-05
5.60681e-05
5.60683e-05
5.60684e-05
5.60686e-05
5.60686e-05
5.60687e-05
5.60686e-05
5.60684e-05
5.60682e-05
5.60681e-05
5.60681e-05
5.60682e-05
5.60683e-05
5.60685e-05
5.60688e-05
5.60691e-05
5.60695e-05
5.60699e-05
5.60704e-05
5.60709e-05
5.60714e-05
5.60719e-05
5.60724e-05
5.60729e-05
5.60733e-05
5.60737e-05
5.60741e-05
5.60744e-05
5.60746e-05
5.60748e-05
5.6075e-05
5.60751e-05
5.60751e-05
5.60751e-05
5.6075e-05
5.60749e-05
5.60748e-05
5.60746e-05
5.60744e-05
5.60741e-05
5.60738e-05
5.60735e-05
5.60731e-05
5.60728e-05
5.60724e-05
5.6072e-05
5.60716e-05
5.60711e-05
5.60707e-05
5.60702e-05
5.60698e-05
5.60693e-05
5.60689e-05
5.60684e-05
5.60679e-05
5.60674e-05
5.60669e-05
5.60663e-05
5.60657e-05
5.60651e-05
5.60644e-05
5.60637e-05
5.60631e-05
5.60624e-05
5.60617e-05
5.6061e-05
5.60602e-05
5.60594e-05
5.60588e-05
5.60584e-05
5.60581e-05
5.60579e-05
5.60577e-05
5.60577e-05
5.60576e-05
5.60577e-05
5.60577e-05
5.60578e-05
5.60579e-05
5.6058e-05
5.60578e-05
5.60592e-05
6.39736e-05
6.39714e-05
6.39711e-05
6.39714e-05
6.39721e-05
6.3973e-05
6.39739e-05
6.39749e-05
6.39757e-05
6.39766e-05
6.39774e-05
6.39781e-05
6.39789e-05
6.39797e-05
6.39804e-05
6.39811e-05
6.39818e-05
6.39825e-05
6.39832e-05
6.39838e-05
6.39845e-05
6.39851e-05
6.39857e-05
6.39863e-05
6.39868e-05
6.39874e-05
6.39879e-05
6.39884e-05
6.39889e-05
6.39893e-05
6.39898e-05
6.39902e-05
6.39905e-05
6.39909e-05
6.39912e-05
6.39915e-05
6.39918e-05
6.3992e-05
6.39922e-05
6.39924e-05
6.39926e-05
6.39928e-05
6.39928e-05
6.39929e-05
6.39929e-05
6.39926e-05
6.39924e-05
6.39924e-05
6.39924e-05
6.39924e-05
6.39926e-05
6.39928e-05
6.39931e-05
6.39935e-05
6.3994e-05
6.39946e-05
6.39951e-05
6.39957e-05
6.39963e-05
6.39969e-05
6.39974e-05
6.3998e-05
6.39984e-05
6.39989e-05
6.39992e-05
6.39995e-05
6.39998e-05
6.4e-05
6.40001e-05
6.40002e-05
6.40002e-05
6.40001e-05
6.4e-05
6.39999e-05
6.39997e-05
6.39995e-05
6.39992e-05
6.39989e-05
6.39985e-05
6.39982e-05
6.39978e-05
6.39973e-05
6.39969e-05
6.39964e-05
6.39959e-05
6.39954e-05
6.39949e-05
6.39944e-05
6.39939e-05
6.39933e-05
6.39928e-05
6.39923e-05
6.39917e-05
6.39911e-05
6.39905e-05
6.39898e-05
6.39891e-05
6.39883e-05
6.39876e-05
6.39869e-05
6.39861e-05
6.39854e-05
6.39847e-05
6.39839e-05
6.3983e-05
6.39822e-05
6.39816e-05
6.39811e-05
6.39807e-05
6.39805e-05
6.39803e-05
6.39803e-05
6.39803e-05
6.39803e-05
6.39804e-05
6.39805e-05
6.39806e-05
6.39808e-05
6.39806e-05
6.39823e-05
7.20466e-05
7.20442e-05
7.20437e-05
7.20441e-05
7.20448e-05
7.20457e-05
7.20467e-05
7.20477e-05
7.20487e-05
7.20496e-05
7.20505e-05
7.20514e-05
7.20523e-05
7.20532e-05
7.20541e-05
7.20549e-05
7.20557e-05
7.20565e-05
7.20573e-05
7.20581e-05
7.20588e-05
7.20595e-05
7.20602e-05
7.20609e-05
7.20615e-05
7.20622e-05
7.20627e-05
7.20633e-05
7.20639e-05
7.20644e-05
7.20648e-05
7.20653e-05
7.20657e-05
7.20661e-05
7.20665e-05
7.20668e-05
7.20671e-05
7.20674e-05
7.20677e-05
7.20679e-05
7.20681e-05
7.20683e-05
7.20684e-05
7.20685e-05
7.20684e-05
7.20682e-05
7.2068e-05
7.20679e-05
7.20679e-05
7.2068e-05
7.20682e-05
7.20685e-05
7.20688e-05
7.20693e-05
7.20699e-05
7.20706e-05
7.20712e-05
7.20719e-05
7.20726e-05
7.20732e-05
7.20738e-05
7.20744e-05
7.20749e-05
7.20753e-05
7.20757e-05
7.2076e-05
7.20762e-05
7.20763e-05
7.20764e-05
7.20765e-05
7.20765e-05
7.20764e-05
7.20762e-05
7.2076e-05
7.20758e-05
7.20755e-05
7.20752e-05
7.20748e-05
7.20744e-05
7.20739e-05
7.20735e-05
7.2073e-05
7.20725e-05
7.2072e-05
7.20714e-05
7.20708e-05
7.20702e-05
7.20697e-05
7.20691e-05
7.20685e-05
7.20679e-05
7.20672e-05
7.20666e-05
7.20659e-05
7.20651e-05
7.20643e-05
7.20635e-05
7.20627e-05
7.20618e-05
7.2061e-05
7.20603e-05
7.20595e-05
7.20587e-05
7.20579e-05
7.20569e-05
7.20561e-05
7.20554e-05
7.20549e-05
7.20546e-05
7.20543e-05
7.20542e-05
7.20541e-05
7.20541e-05
7.20542e-05
7.20543e-05
7.20544e-05
7.20546e-05
7.20549e-05
7.20547e-05
7.20567e-05
8.02456e-05
8.02429e-05
8.02424e-05
8.02427e-05
8.02435e-05
8.02444e-05
8.02454e-05
8.02465e-05
8.02476e-05
8.02486e-05
8.02497e-05
8.02507e-05
8.02517e-05
8.02527e-05
8.02537e-05
8.02547e-05
8.02556e-05
8.02565e-05
8.02574e-05
8.02583e-05
8.02591e-05
8.026e-05
8.02607e-05
8.02615e-05
8.02622e-05
8.02629e-05
8.02636e-05
8.02642e-05
8.02648e-05
8.02654e-05
8.0266e-05
8.02665e-05
8.02669e-05
8.02674e-05
8.02678e-05
8.02681e-05
8.02685e-05
8.02688e-05
8.02691e-05
8.02694e-05
8.02696e-05
8.02698e-05
8.02699e-05
8.027e-05
8.027e-05
8.02698e-05
8.02696e-05
8.02695e-05
8.02695e-05
8.02696e-05
8.02698e-05
8.02702e-05
8.02706e-05
8.02712e-05
8.02719e-05
8.02726e-05
8.02734e-05
8.02742e-05
8.02749e-05
8.02756e-05
8.02762e-05
8.02768e-05
8.02773e-05
8.02777e-05
8.0278e-05
8.02783e-05
8.02785e-05
8.02786e-05
8.02787e-05
8.02787e-05
8.02786e-05
8.02784e-05
8.02782e-05
8.0278e-05
8.02777e-05
8.02773e-05
8.02769e-05
8.02765e-05
8.0276e-05
8.02755e-05
8.0275e-05
8.02744e-05
8.02738e-05
8.02732e-05
8.02726e-05
8.0272e-05
8.02713e-05
8.02706e-05
8.027e-05
8.02693e-05
8.02686e-05
8.02679e-05
8.02671e-05
8.02663e-05
8.02654e-05
8.02645e-05
8.02636e-05
8.02627e-05
8.02618e-05
8.02609e-05
8.02601e-05
8.02593e-05
8.02585e-05
8.02577e-05
8.02567e-05
8.02558e-05
8.02551e-05
8.02546e-05
8.02542e-05
8.0254e-05
8.02539e-05
8.02538e-05
8.02539e-05
8.0254e-05
8.02541e-05
8.02544e-05
8.02546e-05
8.02549e-05
8.02547e-05
8.02571e-05
8.85506e-05
8.85476e-05
8.85471e-05
8.85475e-05
8.85483e-05
8.85492e-05
8.85503e-05
8.85515e-05
8.85526e-05
8.85537e-05
8.85549e-05
8.8556e-05
8.85572e-05
8.85583e-05
8.85594e-05
8.85605e-05
8.85616e-05
8.85626e-05
8.85637e-05
8.85646e-05
8.85656e-05
8.85665e-05
8.85674e-05
8.85682e-05
8.85691e-05
8.85698e-05
8.85706e-05
8.85713e-05
8.8572e-05
8.85726e-05
8.85732e-05
8.85738e-05
8.85743e-05
8.85748e-05
8.85752e-05
8.85756e-05
8.8576e-05
8.85763e-05
8.85766e-05
8.85769e-05
8.85772e-05
8.85774e-05
8.85776e-05
8.85777e-05
8.85777e-05
8.85775e-05
8.85773e-05
8.85772e-05
8.85772e-05
8.85774e-05
8.85776e-05
8.8578e-05
8.85786e-05
8.85793e-05
8.85801e-05
8.85809e-05
8.85818e-05
8.85826e-05
8.85834e-05
8.85841e-05
8.85847e-05
8.85853e-05
8.85857e-05
8.85861e-05
8.85864e-05
8.85866e-05
8.85867e-05
8.85868e-05
8.85868e-05
8.85867e-05
8.85866e-05
8.85863e-05
8.85861e-05
8.85857e-05
8.85854e-05
8.85849e-05
8.85845e-05
8.85839e-05
8.85834e-05
8.85828e-05
8.85822e-05
8.85816e-05
8.85809e-05
8.85802e-05
8.85795e-05
8.85788e-05
8.85781e-05
8.85773e-05
8.85766e-05
8.85758e-05
8.8575e-05
8.85742e-05
8.85733e-05
8.85723e-05
8.85714e-05
8.85703e-05
8.85693e-05
8.85684e-05
8.85674e-05
8.85665e-05
8.85657e-05
8.85648e-05
8.85641e-05
8.85633e-05
8.85623e-05
8.85615e-05
8.85608e-05
8.85602e-05
8.85599e-05
8.85597e-05
8.85596e-05
8.85596e-05
8.85596e-05
8.85598e-05
8.856e-05
8.85603e-05
8.85606e-05
8.8561e-05
8.85608e-05
8.85636e-05
9.69461e-05
9.69429e-05
9.69424e-05
9.69428e-05
9.69436e-05
9.69446e-05
9.69457e-05
9.69469e-05
9.69482e-05
9.69494e-05
9.69507e-05
9.69519e-05
9.69532e-05
9.69545e-05
9.69557e-05
9.69569e-05
9.69581e-05
9.69593e-05
9.69604e-05
9.69615e-05
9.69626e-05
9.69636e-05
9.69646e-05
9.69655e-05
9.69664e-05
9.69673e-05
9.69681e-05
9.69689e-05
9.69697e-05
9.69704e-05
9.6971e-05
9.69716e-05
9.69722e-05
9.69727e-05
9.69732e-05
9.69736e-05
9.6974e-05
9.69744e-05
9.69747e-05
9.6975e-05
9.69753e-05
9.69756e-05
9.69757e-05
9.69759e-05
9.69759e-05
9.69757e-05
9.69755e-05
9.69754e-05
9.69755e-05
9.69756e-05
9.69759e-05
9.69764e-05
9.69771e-05
9.69779e-05
9.69788e-05
9.69797e-05
9.69806e-05
9.69815e-05
9.69823e-05
9.6983e-05
9.69836e-05
9.69841e-05
9.69845e-05
9.69848e-05
9.6985e-05
9.69852e-05
9.69852e-05
9.69852e-05
9.69851e-05
9.69849e-05
9.69847e-05
9.69844e-05
9.6984e-05
9.69836e-05
9.69832e-05
9.69826e-05
9.69821e-05
9.69815e-05
9.69808e-05
9.69802e-05
9.69795e-05
9.69788e-05
9.6978e-05
9.69773e-05
9.69765e-05
9.69757e-05
9.69749e-05
9.69741e-05
9.69732e-05
9.69723e-05
9.69714e-05
9.69705e-05
9.69695e-05
9.69684e-05
9.69673e-05
9.69662e-05
9.69651e-05
9.69641e-05
9.69631e-05
9.69622e-05
9.69614e-05
9.69606e-05
9.69598e-05
9.69591e-05
9.69582e-05
9.69573e-05
9.69566e-05
9.69562e-05
9.69558e-05
9.69557e-05
9.69556e-05
9.69557e-05
9.69558e-05
9.6956e-05
9.69563e-05
9.69567e-05
9.6957e-05
9.69575e-05
9.69573e-05
9.69605e-05
0.00010542
0.000105417
0.000105416
0.000105417
0.000105417
0.000105418
0.00010542
0.000105421
0.000105422
0.000105424
0.000105425
0.000105426
0.000105428
0.000105429
0.00010543
0.000105432
0.000105433
0.000105434
0.000105436
0.000105437
0.000105438
0.000105439
0.00010544
0.000105441
0.000105442
0.000105443
0.000105444
0.000105445
0.000105446
0.000105447
0.000105447
0.000105448
0.000105449
0.000105449
0.00010545
0.00010545
0.000105451
0.000105451
0.000105451
0.000105452
0.000105452
0.000105452
0.000105452
0.000105453
0.000105453
0.000105452
0.000105452
0.000105452
0.000105452
0.000105452
0.000105453
0.000105453
0.000105454
0.000105455
0.000105456
0.000105457
0.000105458
0.000105459
0.000105459
0.00010546
0.000105461
0.000105461
0.000105461