/*--------------------------------*- C++ -*----------------------------------*\
  =========                 |
  \\      /  F ield         | OpenFOAM: The Open Source CFD Toolbox
   \\    /   O peration     | Website:  https://openfoam.org
    \\  /    A nd           | Version:  7
     \\/     M anipulation  |
\*---------------------------------------------------------------------------*/
FoamFile
{
    version     2.0;
    format      ascii;
    class       volScalarField;
    location    "1500";
    object      omega;
}
// * * * * * * * * * * * * * * * * * * * * * * * * * * * * * * * * * * * * * //

dimensions      [0 0 -1 0 0 0 0];

internalField   nonuniform List<scalar> 
24000
(
999.269
999.269
999.269
999.269
999.269
999.269
999.269
999.269
999.269
999.269
999.269
999.269
999.269
999.269
999.269
999.269
999.269
999.269
999.269
999.269
999.269
999.269
999.269
999.269
999.269
999.269
999.269
999.269
999.269
999.269
999.269
999.269
999.269
999.269
999.269
999.269
999.269
999.269
999.269
999.269
999.269
999.269
999.269
999.269
999.269
999.269
999.269
999.269
999.269
999.269
999.269
999.269
999.269
999.269
999.269
999.269
999.269
999.269
999.269
999.269
999.269
999.269
999.269
999.269
999.269
999.269
999.269
999.269
999.269
999.269
999.269
999.269
999.269
999.269
999.269
999.269
999.269
999.269
999.269
999.269
999.269
999.269
999.269
999.269
999.269
999.269
999.269
999.269
999.269
999.269
999.269
999.269
999.269
999.269
999.269
999.269
999.269
999.269
999.269
999.269
999.269
999.269
999.269
999.269
999.269
999.269
999.269
999.269
999.269
999.269
999.269
999.269
999.269
999.269
999.269
999.269
999.269
999.269
999.269
999.269
173.167
173.167
173.167
173.167
173.167
173.167
173.167
173.167
173.167
173.167
173.167
173.167
173.167
173.167
173.167
173.167
173.167
173.167
173.167
173.167
173.167
173.167
173.167
173.167
173.167
173.167
173.167
173.167
173.167
173.167
173.167
173.167
173.167
173.167
173.167
173.167
173.167
173.167
173.167
173.167
173.167
173.167
173.167
173.167
173.167
173.167
173.167
173.167
173.167
173.167
173.167
173.167
173.167
173.167
173.167
173.167
173.167
173.167
173.167
173.167
173.167
173.167
173.167
173.167
173.167
173.167
173.167
173.167
173.167
173.167
173.167
173.167
173.167
173.167
173.167
173.167
173.167
173.167
173.167
173.167
173.167
173.167
173.167
173.167
173.167
173.167
173.167
173.167
173.167
173.167
173.167
173.167
173.167
173.167
173.167
173.167
173.167
173.167
173.167
173.167
173.167
173.167
173.167
173.167
173.167
173.167
173.167
173.167
173.167
173.167
173.167
173.167
173.167
173.167
173.167
173.167
173.167
173.167
173.167
173.167
58.7854
58.7853
58.7853
58.7853
58.7853
58.7854
58.7854
58.7854
58.7854
58.7854
58.7854
58.7854
58.7854
58.7854
58.7854
58.7854
58.7854
58.7854
58.7854
58.7854
58.7854
58.7854
58.7854
58.7854
58.7854
58.7854
58.7854
58.7854
58.7854
58.7854
58.7854
58.7855
58.7855
58.7855
58.7855
58.7855
58.7855
58.7855
58.7855
58.7855
58.7855
58.7855
58.7855
58.7855
58.7855
58.7855
58.7855
58.7855
58.7855
58.7855
58.7854
58.7855
58.7855
58.7855
58.7855
58.7855
58.7855
58.7855
58.7855
58.7855
58.7855
58.7855
58.7855
58.7855
58.7855
58.7855
58.7855
58.7855
58.7855
58.7855
58.7855
58.7855
58.7855
58.7855
58.7855
58.7855
58.7855
58.7855
58.7855
58.7855
58.7855
58.7855
58.7855
58.7855
58.7855
58.7855
58.7855
58.7855
58.7855
58.7855
58.7855
58.7855
58.7855
58.7855
58.7855
58.7855
58.7855
58.7855
58.7855
58.7855
58.7855
58.7855
58.7855
58.7855
58.7855
58.7855
58.7854
58.7854
58.7854
58.7854
58.7854
58.7854
58.7854
58.7854
58.7854
58.7854
58.7854
58.7854
58.7854
58.7854
28.3829
28.3827
28.3826
28.3826
28.3826
28.3827
28.3827
28.3827
28.3827
28.3827
28.3827
28.3827
28.3827
28.3827
28.3827
28.3827
28.3828
28.3828
28.3828
28.3828
28.3828
28.3828
28.3828
28.3828
28.3828
28.3828
28.3828
28.3828
28.3828
28.3828
28.3828
28.3828
28.3828
28.3828
28.3828
28.3828
28.3829
28.3829
28.3829
28.3829
28.3829
28.3829
28.3829
28.3829
28.3829
28.3829
28.3829
28.3829
28.3828
28.3828
28.3828
28.3828
28.3828
28.3828
28.3828
28.3828
28.3829
28.3829
28.3829
28.3829
28.3829
28.3829
28.3829
28.3829
28.3829
28.3829
28.3829
28.3829
28.3829
28.3829
28.3829
28.3829
28.3829
28.3829
28.3829
28.3829
28.3829
28.3829
28.3829
28.3829
28.383
28.383
28.3829
28.3829
28.3829
28.3829
28.3829
28.3829
28.3829
28.3829
28.3829
28.3829
28.3829
28.3829
28.3829
28.3829
28.3829
28.3829
28.3829
28.3829
28.3829
28.3829
28.3829
28.3829
28.3829
28.3828
28.3828
28.3828
28.3828
28.3828
28.3828
28.3828
28.3828
28.3828
28.3828
28.3828
28.3828
28.3828
28.3828
28.3828
17.0345
17.0342
17.034
17.034
17.034
17.034
17.034
17.034
17.034
17.034
17.0341
17.0341
17.0341
17.0341
17.0341
17.0341
17.0341
17.0341
17.0341
17.0341
17.0341
17.0341
17.0341
17.0341
17.0341
17.0341
17.0342
17.0342
17.0342
17.0342
17.0342
17.0342
17.0342
17.0342
17.0342
17.0342
17.0342
17.0342
17.0342
17.0342
17.0342
17.0342
17.0343
17.0343
17.0343
17.0343
17.0343
17.0342
17.0342
17.0342
17.0342
17.0342
17.0342
17.0342
17.0342
17.0342
17.0342
17.0342
17.0342
17.0342
17.0342
17.0342
17.0342
17.0342
17.0343
17.0343
17.0343
17.0343
17.0343
17.0343
17.0343
17.0343
17.0343
17.0343
17.0343
17.0343
17.0343
17.0343
17.0343
17.0343
17.0343
17.0343
17.0343
17.0343
17.0343
17.0343
17.0343
17.0343
17.0343
17.0343
17.0343
17.0343
17.0343
17.0343
17.0343
17.0343
17.0343
17.0343
17.0343
17.0343
17.0343
17.0343
17.0343
17.0343
17.0343
17.0342
17.0342
17.0342
17.0341
17.0341
17.0341
17.0341
17.0341
17.0341
17.0341
17.0341
17.0341
17.0341
17.0341
17.0342
11.7911
11.7909
11.7907
11.7906
11.7905
11.7905
11.7905
11.7905
11.7905
11.7905
11.7906
11.7906
11.7906
11.7906
11.7906
11.7906
11.7906
11.7906
11.7906
11.7906
11.7906
11.7906
11.7906
11.7906
11.7906
11.7906
11.7906
11.7907
11.7907
11.7907
11.7907
11.7907
11.7907
11.7907
11.7907
11.7907
11.7907
11.7907
11.7907
11.7907
11.7907
11.7907
11.7907
11.7907
11.7908
11.7908
11.7908
11.7907
11.7907
11.7907
11.7907
11.7907
11.7907
11.7907
11.7907
11.7907
11.7907
11.7907
11.7907
11.7907
11.7907
11.7907
11.7907
11.7907
11.7907
11.7907
11.7907
11.7908
11.7908
11.7908
11.7908
11.7908
11.7908
11.7908
11.7908
11.7908
11.7908
11.7908
11.7908
11.7908
11.7908
11.7908
11.7908
11.7908
11.7908
11.7908
11.7908
11.7908
11.7908
11.7908
11.7908
11.7908
11.7908
11.7908
11.7908
11.7908
11.7908
11.7908
11.7908
11.7908
11.7908
11.7908
11.7908
11.7908
11.7908
11.7907
11.7907
11.7907
11.7906
11.7906
11.7906
11.7906
11.7906
11.7906
11.7906
11.7906
11.7906
11.7906
11.7906
11.7907
8.91631
8.91616
8.91595
8.91582
8.91576
8.91573
8.91572
8.91572
8.91572
8.91573
8.91574
8.91574
8.91575
8.91575
8.91576
8.91576
8.91577
8.91577
8.91577
8.91578
8.91578
8.91578
8.91579
8.91579
8.91579
8.9158
8.9158
8.9158
8.91581
8.91581
8.91582
8.91582
8.91582
8.91582
8.91583
8.91583
8.91583
8.91584
8.91584
8.91584
8.91585
8.91585
8.91587
8.91588
8.9159
8.91592
8.91591
8.9159
8.91588
8.91586
8.91584
8.91583
8.91582
8.91582
8.91582
8.91582
8.91582
8.91583
8.91583
8.91584
8.91584
8.91585
8.91585
8.91586
8.91586
8.91586
8.91587
8.91587
8.91588
8.91588
8.91589
8.91589
8.91589
8.9159
8.9159
8.9159
8.91591
8.91591
8.91591
8.91591
8.91591
8.91592
8.91592
8.91592
8.91592
8.91592
8.91592
8.91592
8.91591
8.91591
8.9159
8.9159
8.9159
8.91589
8.91589
8.91589
8.91588
8.91588
8.91588
8.91588
8.91588
8.91588
8.91588
8.9159
8.91591
8.9159
8.91587
8.91584
8.91581
8.91579
8.91578
8.91577
8.91576
8.91576
8.91576
8.91576
8.91576
8.91577
8.91578
8.91582
7.10206
7.10197
7.10179
7.10166
7.10158
7.10153
7.10151
7.1015
7.1015
7.1015
7.1015
7.1015
7.10151
7.10151
7.10151
7.10151
7.10152
7.10152
7.10152
7.10152
7.10152
7.10153
7.10153
7.10153
7.10153
7.10153
7.10153
7.10153
7.10154
7.10154
7.10154
7.10154
7.10154
7.10154
7.10154
7.10154
7.10154
7.10155
7.10155
7.10155
7.10155
7.10156
7.10157
7.10158
7.1016
7.10162
7.10162
7.10161
7.1016
7.10158
7.10156
7.10155
7.10154
7.10153
7.10153
7.10153
7.10153
7.10153
7.10153
7.10154
7.10154
7.10155
7.10155
7.10155
7.10156
7.10156
7.10156
7.10156
7.10157
7.10157
7.10157
7.10157
7.10157
7.10158
7.10158
7.10158
7.10158
7.10158
7.10159
7.10159
7.10159
7.10159
7.10159
7.10159
7.10159
7.1016
7.1016
7.1016
7.1016
7.10159
7.10159
7.10159
7.10158
7.10158
7.10158
7.10158
7.10157
7.10157
7.10157
7.10157
7.10157
7.10158
7.10158
7.1016
7.10162
7.10162
7.1016
7.10158
7.10155
7.10153
7.10152
7.10151
7.1015
7.10149
7.10149
7.10149
7.10149
7.1015
7.10152
7.10154
5.84046
5.84043
5.84028
5.84016
5.84008
5.84002
5.83999
5.83997
5.83996
5.83996
5.83996
5.83996
5.83996
5.83996
5.83996
5.83996
5.83996
5.83996
5.83996
5.83996
5.83996
5.83996
5.83996
5.83996
5.83996
5.83996
5.83996
5.83996
5.83996
5.83996
5.83996
5.83996
5.83996
5.83996
5.83996
5.83996
5.83996
5.83996
5.83996
5.83996
5.83996
5.83996
5.83997
5.83998
5.84
5.84002
5.84003
5.84002
5.84001
5.84
5.83998
5.83997
5.83995
5.83995
5.83994
5.83994
5.83994
5.83994
5.83994
5.83994
5.83995
5.83995
5.83995
5.83996
5.83996
5.83996
5.83996
5.83996
5.83996
5.83996
5.83996
5.83996
5.83996
5.83996
5.83996
5.83996
5.83997
5.83997
5.83997
5.83997
5.83997
5.83997
5.83997
5.83997
5.83998
5.83998
5.83998
5.83998
5.83998
5.83998
5.83998
5.83997
5.83997
5.83997
5.83997
5.83997
5.83997
5.83996
5.83996
5.83996
5.83996
5.83997
5.83998
5.83999
5.84002
5.84002
5.84001
5.84
5.83998
5.83996
5.83995
5.83994
5.83993
5.83992
5.83992
5.83992
5.83992
5.83993
5.83994
5.83994
4.91013
4.91013
4.91002
4.90992
4.90984
4.90979
4.90975
4.90973
4.90971
4.9097
4.90969
4.90969
4.90969
4.90969
4.90969
4.90969
4.90969
4.90969
4.90968
4.90968
4.90968
4.90968
4.90968
4.90968
4.90968
4.90968
4.90968
4.90967
4.90967
4.90967
4.90967
4.90967
4.90967
4.90967
4.90966
4.90966
4.90966
4.90966
4.90966
4.90966
4.90966
4.90966
4.90966
4.90967
4.90969
4.90971
4.90972
4.90972
4.90971
4.9097
4.90969
4.90967
4.90966
4.90965
4.90965
4.90964
4.90964
4.90964
4.90964
4.90964
4.90965
4.90965
4.90965
4.90965
4.90965
4.90965
4.90965
4.90965
4.90965
4.90965
4.90965
4.90965
4.90965
4.90965
4.90965
4.90965
4.90965
4.90965
4.90965
4.90965
4.90965
4.90965
4.90965
4.90965
4.90966
4.90966
4.90966
4.90966
4.90966
4.90966
4.90966
4.90966
4.90966
4.90965
4.90965
4.90965
4.90965
4.90965
4.90965
4.90965
4.90965
4.90965
4.90966
4.90968
4.9097
4.90971
4.9097
4.90969
4.90968
4.90967
4.90965
4.90964
4.90964
4.90963
4.90963
4.90963
4.90962
4.90963
4.90965
4.90964
4.19863
4.19865
4.19858
4.19849
4.19842
4.19837
4.19834
4.19831
4.19829
4.19828
4.19827
4.19826
4.19826
4.19826
4.19825
4.19825
4.19825
4.19825
4.19825
4.19824
4.19824
4.19824
4.19824
4.19824
4.19824
4.19823
4.19823
4.19823
4.19823
4.19823
4.19823
4.19822
4.19822
4.19822
4.19822
4.19821
4.19821
4.19821
4.19821
4.19821
4.19821
4.19821
4.19821
4.19821
4.19823
4.19825
4.19826
4.19826
4.19825
4.19825
4.19823
4.19822
4.19821
4.1982
4.1982
4.19819
4.19819
4.19819
4.19819
4.19819
4.19819
4.1982
4.1982
4.1982
4.1982
4.1982
4.1982
4.1982
4.1982
4.19819
4.19819
4.19819
4.19819
4.19819
4.19819
4.19819
4.19819
4.19819
4.19819
4.19819
4.19819
4.19819
4.19819
4.19819
4.19819
4.19819
4.19819
4.19819
4.19819
4.19819
4.19819
4.19819
4.19819
4.19819
4.19819
4.19818
4.19818
4.19818
4.19818
4.19818
4.19818
4.19818
4.19819
4.1982
4.19822
4.19823
4.19823
4.19823
4.19822
4.19821
4.1982
4.19819
4.19818
4.19818
4.19818
4.19817
4.19817
4.19818
4.1982
4.19817
3.6404
3.64044
3.64038
3.64032
3.64026
3.64021
3.64018
3.64015
3.64013
3.64012
3.6401
3.6401
3.64009
3.64009
3.64008
3.64008
3.64008
3.64007
3.64007
3.64007
3.64007
3.64007
3.64006
3.64006
3.64006
3.64006
3.64006
3.64005
3.64005
3.64005
3.64005
3.64005
3.64004
3.64004
3.64004
3.64004
3.64003
3.64003
3.64003
3.64003
3.64002
3.64002
3.64003
3.64003
3.64004
3.64006
3.64006
3.64007
3.64007
3.64006
3.64005
3.64004
3.64003
3.64003
3.64002
3.64002
3.64001
3.64001
3.64001
3.64001
3.64002
3.64002
3.64002
3.64002
3.64002
3.64002
3.64002
3.64002
3.64001
3.64001
3.64001
3.64001
3.64001
3.64001
3.64
3.64
3.64
3.64
3.64
3.64
3.64
3.64
3.64
3.64
3.64
3.64
3.64
3.64
3.64
3.64
3.64
3.64
3.64
3.64
3.64
3.63999
3.63999
3.63999
3.63999
3.63999
3.63999
3.63999
3.63999
3.64001
3.64002
3.64003
3.64003
3.64003
3.64003
3.64002
3.64001
3.64001
3.64
3.63999
3.63999
3.63999
3.63999
3.63999
3.64001
3.63998
3.19349
3.19353
3.19349
3.19344
3.19339
3.19335
3.19332
3.19329
3.19327
3.19326
3.19325
3.19324
3.19323
3.19323
3.19322
3.19322
3.19321
3.19321
3.19321
3.19321
3.1932
3.1932
3.1932
3.1932
3.1932
3.19319
3.19319
3.19319
3.19319
3.19319
3.19318
3.19318
3.19318
3.19318
3.19317
3.19317
3.19317
3.19317
3.19316
3.19316
3.19316
3.19316
3.19316
3.19316
3.19317
3.19318
3.19319
3.19319
3.19319
3.19319
3.19318
3.19318
3.19317
3.19316
3.19316
3.19315
3.19315
3.19315
3.19315
3.19315
3.19315
3.19315
3.19315
3.19315
3.19315
3.19315
3.19315
3.19315
3.19315
3.19315
3.19315
3.19314
3.19314
3.19314
3.19314
3.19314
3.19314
3.19313
3.19313
3.19313
3.19313
3.19313
3.19313
3.19313
3.19313
3.19313
3.19313
3.19313
3.19313
3.19313
3.19313
3.19313
3.19313
3.19313
3.19312
3.19312
3.19312
3.19311
3.19311
3.19311
3.19311
3.19311
3.19311
3.19312
3.19314
3.19315
3.19315
3.19315
3.19315
3.19314
3.19314
3.19313
3.19313
3.19312
3.19312
3.19312
3.19312
3.19312
3.19313
3.1931
2.82952
2.82956
2.82953
2.82949
2.82945
2.82942
2.82939
2.82937
2.82935
2.82933
2.82932
2.82931
2.8293
2.8293
2.82929
2.82929
2.82928
2.82928
2.82928
2.82928
2.82927
2.82927
2.82927
2.82927
2.82927
2.82926
2.82926
2.82926
2.82926
2.82925
2.82925
2.82925
2.82925
2.82925
2.82924
2.82924
2.82924
2.82924
2.82923
2.82923
2.82923
2.82923
2.82923
2.82923
2.82924
2.82925
2.82925
2.82926
2.82926
2.82925
2.82925
2.82924
2.82924
2.82923
2.82923
2.82923
2.82922
2.82922
2.82922
2.82922
2.82923
2.82923
2.82923
2.82923
2.82923
2.82923
2.82923
2.82922
2.82922
2.82922
2.82922
2.82922
2.82922
2.82921
2.82921
2.82921
2.82921
2.82921
2.82921
2.8292
2.8292
2.8292
2.8292
2.8292
2.8292
2.8292
2.8292
2.8292
2.8292
2.8292
2.8292
2.8292
2.82919
2.82919
2.82919
2.82919
2.82918
2.82918
2.82918
2.82917
2.82917
2.82917
2.82918
2.82918
2.82919
2.8292
2.8292
2.8292
2.8292
2.8292
2.82919
2.82919
2.82919
2.82918
2.82918
2.82918
2.82918
2.82918
2.8292
2.82916
2.52861
2.52865
2.52863
2.52859
2.52856
2.52853
2.52851
2.52849
2.52847
2.52846
2.52845
2.52844
2.52843
2.52842
2.52842
2.52841
2.52841
2.5284
2.5284
2.5284
2.5284
2.52839
2.52839
2.52839
2.52839
2.52839
2.52838
2.52838
2.52838
2.52838
2.52838
2.52837
2.52837
2.52837
2.52837
2.52837
2.52836
2.52836
2.52836
2.52836
2.52835
2.52835
2.52835
2.52836
2.52836
2.52837
2.52837
2.52838
2.52838
2.52837
2.52837
2.52837
2.52836
2.52836
2.52835
2.52835
2.52835
2.52835
2.52835
2.52835
2.52835
2.52836
2.52836
2.52836
2.52836
2.52836
2.52836
2.52835
2.52835
2.52835
2.52835
2.52835
2.52835
2.52834
2.52834
2.52834
2.52834
2.52834
2.52834
2.52833
2.52833
2.52833
2.52833
2.52833
2.52833
2.52833
2.52833
2.52833
2.52833
2.52833
2.52832
2.52832
2.52832
2.52832
2.52831
2.52831
2.52831
2.5283
2.5283
2.5283
2.52829
2.52829
2.52829
2.5283
2.52831
2.52832
2.52832
2.52832
2.52832
2.52831
2.52831
2.52831
2.5283
2.5283
2.5283
2.5283
2.5283
2.5283
2.52831
2.52828
2.27648
2.27652
2.2765
2.27647
2.27645
2.27642
2.2764
2.27638
2.27637
2.27635
2.27634
2.27634
2.27633
2.27632
2.27632
2.27631
2.27631
2.2763
2.2763
2.2763
2.27629
2.27629
2.27629
2.27629
2.27629
2.27628
2.27628
2.27628
2.27628
2.27628
2.27628
2.27627
2.27627
2.27627
2.27627
2.27627
2.27626
2.27626
2.27626
2.27626
2.27626
2.27626
2.27626
2.27626
2.27626
2.27627
2.27627
2.27627
2.27627
2.27627
2.27627
2.27627
2.27626
2.27626
2.27626
2.27626
2.27626
2.27626
2.27626
2.27626
2.27626
2.27626
2.27626
2.27626
2.27626
2.27626
2.27626
2.27626
2.27626
2.27626
2.27626
2.27626
2.27625
2.27625
2.27625
2.27625
2.27625
2.27625
2.27624
2.27624
2.27624
2.27624
2.27624
2.27624
2.27624
2.27623
2.27623
2.27623
2.27623
2.27623
2.27623
2.27623
2.27622
2.27622
2.27622
2.27621
2.27621
2.27621
2.2762
2.2762
2.27619
2.27619
2.27619
2.2762
2.27621
2.27621
2.27621
2.27621
2.27621
2.27621
2.27621
2.2762
2.2762
2.2762
2.2762
2.2762
2.2762
2.2762
2.27621
2.27617
2.06266
2.0627
2.06269
2.06267
2.06264
2.06262
2.0626
2.06259
2.06257
2.06256
2.06255
2.06254
2.06254
2.06253
2.06253
2.06252
2.06252
2.06251
2.06251
2.06251
2.0625
2.0625
2.0625
2.0625
2.0625
2.06249
2.06249
2.06249
2.06249
2.06249
2.06249
2.06249
2.06248
2.06248
2.06248
2.06248
2.06248
2.06248
2.06247
2.06247
2.06247
2.06247
2.06247
2.06247
2.06248
2.06248
2.06248
2.06249
2.06249
2.06248
2.06248
2.06248
2.06248
2.06248
2.06248
2.06248
2.06248
2.06248
2.06248
2.06248
2.06248
2.06248
2.06248
2.06248
2.06248
2.06248
2.06248
2.06248
2.06248
2.06248
2.06248
2.06248
2.06248
2.06248
2.06247
2.06247
2.06247
2.06247
2.06247
2.06247
2.06246
2.06246
2.06246
2.06246
2.06246
2.06246
2.06246
2.06245
2.06245
2.06245
2.06245
2.06245
2.06245
2.06244
2.06244
2.06243
2.06243
2.06242
2.06242
2.06241
2.06241
2.06241
2.06241
2.06241
2.06242
2.06242
2.06242
2.06242
2.06242
2.06242
2.06242
2.06241
2.06241
2.06241
2.06241
2.06241
2.06241
2.06241
2.06242
2.06238
1.87936
1.8794
1.87939
1.87937
1.87935
1.87933
1.87932
1.8793
1.87929
1.87928
1.87927
1.87926
1.87926
1.87925
1.87925
1.87924
1.87924
1.87923
1.87923
1.87923
1.87922
1.87922
1.87922
1.87922
1.87922
1.87922
1.87921
1.87921
1.87921
1.87921
1.87921
1.87921
1.87921
1.87921
1.8792
1.8792
1.8792
1.8792
1.8792
1.8792
1.8792
1.8792
1.8792
1.8792
1.8792
1.87921
1.87921
1.87921
1.87921
1.87921
1.87921
1.8792
1.8792
1.8792
1.8792
1.8792
1.87921
1.87921
1.87921
1.87921
1.87921
1.87921
1.87922
1.87922
1.87922
1.87922
1.87922
1.87922
1.87921
1.87921
1.87921
1.87921
1.87921
1.87921
1.87921
1.87921
1.8792
1.8792
1.8792
1.8792
1.8792
1.8792
1.8792
1.87919
1.87919
1.87919
1.87919
1.87919
1.87919
1.87919
1.87918
1.87918
1.87918
1.87917
1.87917
1.87916
1.87916
1.87915
1.87915
1.87914
1.87914
1.87914
1.87914
1.87914
1.87914
1.87914
1.87914
1.87914
1.87914
1.87914
1.87914
1.87914
1.87914
1.87913
1.87913
1.87913
1.87913
1.87913
1.87914
1.87911
1.72067
1.72071
1.7207
1.72068
1.72066
1.72065
1.72063
1.72062
1.72061
1.7206
1.72059
1.72059
1.72058
1.72057
1.72057
1.72056
1.72056
1.72056
1.72055
1.72055
1.72055
1.72055
1.72054
1.72054
1.72054
1.72054
1.72054
1.72054
1.72054
1.72053
1.72053
1.72053
1.72053
1.72053
1.72053
1.72053
1.72053
1.72053
1.72053
1.72053
1.72053
1.72053
1.72053
1.72053
1.72053
1.72053
1.72054
1.72054
1.72054
1.72054
1.72054
1.72053
1.72053
1.72054
1.72054
1.72054
1.72054
1.72054
1.72055
1.72055
1.72055
1.72055
1.72055
1.72055
1.72055
1.72055
1.72055
1.72055
1.72055
1.72055
1.72055
1.72055
1.72055
1.72055
1.72055
1.72055
1.72054
1.72054
1.72054
1.72054
1.72054
1.72054
1.72053
1.72053
1.72053
1.72053
1.72053
1.72053
1.72053
1.72053
1.72052
1.72052
1.72052
1.72051
1.72051
1.7205
1.7205
1.72049
1.72048
1.72048
1.72048
1.72047
1.72047
1.72047
1.72047
1.72048
1.72047
1.72047
1.72047
1.72047
1.72047
1.72047
1.72047
1.72046
1.72046
1.72046
1.72046
1.72046
1.72047
1.72044
1.58205
1.58208
1.58208
1.58206
1.58205
1.58203
1.58202
1.58201
1.582
1.58199
1.58198
1.58198
1.58197
1.58196
1.58196
1.58196
1.58195
1.58195
1.58195
1.58194
1.58194
1.58194
1.58194
1.58193
1.58193
1.58193
1.58193
1.58193
1.58193
1.58193
1.58193
1.58193
1.58193
1.58193
1.58192
1.58192
1.58192
1.58192
1.58192
1.58192
1.58192
1.58192
1.58192
1.58192
1.58193
1.58193
1.58193
1.58193
1.58193
1.58193
1.58193
1.58193
1.58193
1.58194
1.58194
1.58194
1.58194
1.58195
1.58195
1.58195
1.58195
1.58195
1.58196
1.58196
1.58196
1.58196
1.58196
1.58196
1.58196
1.58196
1.58196
1.58196
1.58195
1.58195
1.58195
1.58195
1.58195
1.58195
1.58195
1.58195
1.58195
1.58194
1.58194
1.58194
1.58194
1.58194
1.58194
1.58194
1.58193
1.58193
1.58193
1.58193
1.58192
1.58192
1.58191
1.58191
1.5819
1.58189
1.58189
1.58188
1.58188
1.58188
1.58187
1.58187
1.58188
1.58188
1.58187
1.58187
1.58187
1.58187
1.58187
1.58187
1.58186
1.58186
1.58186
1.58186
1.58186
1.58186
1.58187
1.58184
1.45997
1.46
1.46
1.45998
1.45997
1.45996
1.45994
1.45993
1.45993
1.45992
1.45991
1.4599
1.4599
1.45989
1.45989
1.45989
1.45988
1.45988
1.45988
1.45987
1.45987
1.45987
1.45987
1.45986
1.45986
1.45986
1.45986
1.45986
1.45986
1.45986
1.45986
1.45986
1.45986
1.45986
1.45986
1.45986
1.45986
1.45986
1.45986
1.45986
1.45986
1.45986
1.45986
1.45986
1.45986
1.45987
1.45987
1.45987
1.45987
1.45987
1.45987
1.45987
1.45987
1.45988
1.45988
1.45988
1.45989
1.45989
1.45989
1.45989
1.4599
1.4599
1.4599
1.4599
1.4599
1.4599
1.4599
1.4599
1.4599
1.4599
1.4599
1.4599
1.4599
1.4599
1.4599
1.4599
1.4599
1.45989
1.45989
1.45989
1.45989
1.45989
1.45989
1.45989
1.45989
1.45989
1.45988
1.45988
1.45988
1.45988
1.45988
1.45987
1.45987
1.45986
1.45986
1.45985
1.45984
1.45984
1.45983
1.45983
1.45982
1.45982
1.45982
1.45982
1.45982
1.45982
1.45982
1.45981
1.45981
1.45981
1.45981
1.45981
1.4598
1.4598
1.4598
1.4598
1.4598
1.4598
1.45981
1.45978
1.35165
1.35168
1.35168
1.35167
1.35165
1.35164
1.35163
1.35162
1.35161
1.35161
1.3516
1.35159
1.35159
1.35158
1.35158
1.35158
1.35157
1.35157
1.35157
1.35156
1.35156
1.35156
1.35156
1.35156
1.35156
1.35155
1.35155
1.35155
1.35155
1.35155
1.35155
1.35155
1.35155
1.35155
1.35155
1.35155
1.35155
1.35155
1.35155
1.35155
1.35155
1.35155
1.35155
1.35156
1.35156
1.35156
1.35157
1.35157
1.35157
1.35157
1.35157
1.35157
1.35157
1.35158
1.35158
1.35159
1.35159
1.35159
1.3516
1.3516
1.3516
1.3516
1.3516
1.3516
1.3516
1.3516
1.3516
1.35161
1.35161
1.35161
1.35161
1.3516
1.3516
1.3516
1.3516
1.3516
1.3516
1.3516
1.3516
1.3516
1.3516
1.3516
1.3516
1.3516
1.35159
1.35159
1.35159
1.35159
1.35159
1.35159
1.35158
1.35158
1.35157
1.35157
1.35156
1.35156
1.35155
1.35154
1.35154
1.35153
1.35153
1.35152
1.35152
1.35152
1.35152
1.35152
1.35152
1.35152
1.35151
1.35151
1.35151
1.35151
1.35151
1.35151
1.35151
1.3515
1.3515
1.3515
1.35151
1.35148
1.25489
1.25492
1.25491
1.2549
1.25489
1.25488
1.25487
1.25486
1.25486
1.25485
1.25484
1.25484
1.25483
1.25483
1.25482
1.25482
1.25482
1.25481
1.25481
1.25481
1.25481
1.2548
1.2548
1.2548
1.2548
1.2548
1.2548
1.2548
1.2548
1.2548
1.2548
1.2548
1.2548
1.2548
1.2548
1.2548
1.2548
1.2548
1.2548
1.2548
1.2548
1.2548
1.2548
1.2548
1.25481
1.25481
1.25481
1.25482
1.25482
1.25482
1.25482
1.25482
1.25483
1.25483
1.25484
1.25484
1.25484
1.25485
1.25485
1.25485
1.25485
1.25486
1.25486
1.25486
1.25486
1.25486
1.25486
1.25486
1.25486
1.25486
1.25486
1.25486
1.25486
1.25486
1.25486
1.25486
1.25486
1.25486
1.25486
1.25486
1.25486
1.25486
1.25486
1.25485
1.25485
1.25485
1.25485
1.25485
1.25485
1.25485
1.25484
1.25484
1.25483
1.25483
1.25482
1.25481
1.25481
1.2548
1.2548
1.25479
1.25479
1.25478
1.25478
1.25478
1.25478
1.25478
1.25478
1.25477
1.25477
1.25477
1.25477
1.25477
1.25476
1.25476
1.25476
1.25476
1.25476
1.25476
1.25476
1.25474
1.16791
1.16793
1.16792
1.16792
1.16791
1.1679
1.16789
1.16788
1.16787
1.16787
1.16786
1.16785
1.16785
1.16785
1.16784
1.16784
1.16784
1.16783
1.16783
1.16783
1.16782
1.16782
1.16782
1.16782
1.16782
1.16782
1.16782
1.16782
1.16782
1.16782
1.16782
1.16782
1.16782
1.16782
1.16782
1.16782
1.16782
1.16782
1.16782
1.16782
1.16782
1.16782
1.16783
1.16783
1.16783
1.16784
1.16784
1.16784
1.16784
1.16784
1.16785
1.16785
1.16786
1.16786
1.16787
1.16787
1.16787
1.16788
1.16788
1.16788
1.16788
1.16789
1.16789
1.16789
1.16789
1.16789
1.16789
1.16789
1.16789
1.16789
1.16789
1.16789
1.16789
1.16789
1.16789
1.16789
1.16789
1.16789
1.16789
1.16789
1.16789
1.16789
1.16789
1.16789
1.16789
1.16789
1.16789
1.16789
1.16788
1.16788
1.16788
1.16787
1.16787
1.16786
1.16785
1.16785
1.16784
1.16783
1.16783
1.16782
1.16782
1.16782
1.16781
1.16781
1.16781
1.16781
1.16781
1.16781
1.1678
1.1678
1.1678
1.1678
1.1678
1.1678
1.16779
1.16779
1.16779
1.16779
1.1678
1.16777
1.08926
1.08928
1.08927
1.08926
1.08926
1.08925
1.08924
1.08923
1.08922
1.08922
1.08921
1.08921
1.0892
1.0892
1.0892
1.08919
1.08919
1.08919
1.08918
1.08918
1.08918
1.08918
1.08918
1.08917
1.08917
1.08917
1.08917
1.08917
1.08917
1.08917
1.08917
1.08917
1.08917
1.08917
1.08917
1.08917
1.08918
1.08918
1.08918
1.08918
1.08918
1.08918
1.08918
1.08919
1.08919
1.0892
1.0892
1.0892
1.0892
1.08921
1.08921
1.08921
1.08922
1.08923
1.08923
1.08923
1.08924
1.08924
1.08924
1.08925
1.08925
1.08925
1.08925
1.08925
1.08925
1.08925
1.08925
1.08925
1.08926
1.08926
1.08926
1.08926
1.08926
1.08926
1.08926
1.08926
1.08926
1.08926
1.08926
1.08926
1.08926
1.08926
1.08926
1.08926
1.08925
1.08925
1.08925
1.08925
1.08925
1.08925
1.08924
1.08924
1.08923
1.08923
1.08922
1.08921
1.08921
1.0892
1.0892
1.08919
1.08919
1.08918
1.08918
1.08918
1.08918
1.08918
1.08918
1.08918
1.08917
1.08917
1.08917
1.08917
1.08917
1.08916
1.08916
1.08916
1.08916
1.08916
1.08916
1.08914
1.01776
1.01778
1.01778
1.01777
1.01776
1.01775
1.01775
1.01774
1.01773
1.01773
1.01772
1.01772
1.01771
1.01771
1.01771
1.0177
1.0177
1.0177
1.0177
1.01769
1.01769
1.01769
1.01769
1.01769
1.01768
1.01768
1.01768
1.01768
1.01768
1.01768
1.01768
1.01768
1.01768
1.01769
1.01769
1.01769
1.01769
1.01769
1.01769
1.01769
1.0177
1.0177
1.0177
1.0177
1.01771
1.01771
1.01771
1.01772
1.01772
1.01772
1.01773
1.01773
1.01774
1.01774
1.01775
1.01775
1.01776
1.01776
1.01776
1.01776
1.01777
1.01777
1.01777
1.01777
1.01777
1.01777
1.01777
1.01777
1.01777
1.01777
1.01777
1.01778
1.01778
1.01778
1.01778
1.01778
1.01778
1.01778
1.01778
1.01778
1.01778
1.01778
1.01778
1.01778
1.01778
1.01778
1.01778
1.01778
1.01777
1.01777
1.01777
1.01776
1.01775
1.01775
1.01774
1.01774
1.01773
1.01773
1.01772
1.01772
1.01771
1.01771
1.01771
1.01771
1.01771
1.0177
1.0177
1.0177
1.0177
1.0177
1.0177
1.01769
1.01769
1.01769
1.01769
1.01769
1.01769
1.01768
1.01769
1.01767
0.952458
0.95247
0.952467
0.95246
0.952453
0.952446
0.95244
0.952434
0.952428
0.952423
0.952418
0.952414
0.95241
0.952406
0.952403
0.9524
0.952397
0.952394
0.952392
0.95239
0.952388
0.952386
0.952384
0.952383
0.952382
0.952381
0.95238
0.95238
0.95238
0.95238
0.95238
0.952381
0.952382
0.952383
0.952384
0.952386
0.952387
0.952389
0.952391
0.952393
0.952395
0.952397
0.9524
0.952403
0.952407
0.952412
0.952415
0.952418
0.952421
0.952426
0.952431
0.952436
0.952442
0.952446
0.952451
0.952454
0.952457
0.95246
0.952462
0.952464
0.952466
0.952468
0.952469
0.95247
0.952471
0.952472
0.952473
0.952474
0.952475
0.952475
0.952476
0.952477
0.952478
0.952479
0.952479
0.95248
0.952481
0.952481
0.952481
0.952482
0.952482
0.952482
0.952482
0.952482
0.952482
0.952482
0.952482
0.952482
0.95248
0.952476
0.952472
0.952466
0.952461
0.952455
0.95245
0.952444
0.952439
0.952435
0.952431
0.952427
0.952423
0.95242
0.952418
0.952417
0.952417
0.952416
0.952415
0.952413
0.952411
0.952409
0.952407
0.952405
0.952403
0.952401
0.952399
0.952397
0.952395
0.952394
0.952396
0.952382
0.892531
0.892539
0.892536
0.89253
0.892523
0.892517
0.892511
0.892506
0.892501
0.892496
0.892492
0.892488
0.892484
0.892481
0.892478
0.892475
0.892472
0.89247
0.892467
0.892465
0.892463
0.892462
0.89246
0.892459
0.892458
0.892457
0.892456
0.892456
0.892456
0.892456
0.892457
0.892457
0.892458
0.89246
0.892461
0.892463
0.892465
0.892467
0.892469
0.892471
0.892473
0.892476
0.892478
0.892482
0.892486
0.892491
0.892495
0.892498
0.892501
0.892506
0.89251
0.892515
0.892519
0.892524
0.892527
0.892531
0.892533
0.892536
0.892538
0.89254
0.892542
0.892543
0.892545
0.892546
0.892547
0.892548
0.89255
0.892551
0.892552
0.892553
0.892554
0.892555
0.892556
0.892557
0.892558
0.892559
0.892559
0.89256
0.892561
0.892562
0.892562
0.892562
0.892563
0.892563
0.892563
0.892563
0.892564
0.892563
0.892562
0.892558
0.892554
0.892549
0.892544
0.892539
0.892535
0.89253
0.892526
0.892522
0.892518
0.892515
0.892512
0.892509
0.892507
0.892507
0.892507
0.892506
0.892505
0.892503
0.892501
0.892499
0.892496
0.892494
0.892492
0.89249
0.892488
0.892486
0.892484
0.892482
0.892483
0.892473
0.837308
0.837313
0.837309
0.837304
0.837298
0.837293
0.837288
0.837283
0.837279
0.837274
0.837271
0.837267
0.837264
0.83726
0.837257
0.837255
0.837252
0.83725
0.837248
0.837246
0.837244
0.837242
0.837241
0.83724
0.837239
0.837238
0.837238
0.837237
0.837237
0.837238
0.837238
0.837239
0.83724
0.837242
0.837243
0.837245
0.837247
0.837249
0.837251
0.837254
0.837256
0.837259
0.837262
0.837265
0.83727
0.837276
0.837279
0.837283
0.837285
0.837287
0.83729
0.837294
0.837297
0.837301
0.837304
0.837307
0.83731
0.837313
0.837315
0.837317
0.837319
0.83732
0.837322
0.837323
0.837325
0.837326
0.837328
0.837329
0.83733
0.837331
0.837333
0.837334
0.837335
0.837337
0.837338
0.837339
0.83734
0.837341
0.837342
0.837343
0.837344
0.837344
0.837345
0.837346
0.837346
0.837347
0.837347
0.837347
0.837346
0.837344
0.83734
0.837336
0.837333
0.837329
0.837325
0.837321
0.837318
0.837314
0.837311
0.837308
0.837305
0.837303
0.837301
0.837301
0.837302
0.837301
0.837299
0.837297
0.837295
0.837293
0.83729
0.837288
0.837285
0.837283
0.837281
0.837279
0.837277
0.837275
0.837275
0.837268
0.786224
0.786225
0.786221
0.786216
0.786211
0.786207
0.786202
0.786198
0.786195
0.786191
0.786187
0.786184
0.786181
0.786178
0.786176
0.786173
0.786171
0.786169
0.786167
0.786165
0.786163
0.786162
0.786161
0.78616
0.786159
0.786158
0.786158
0.786158
0.786158
0.786158
0.786159
0.78616
0.786161
0.786162
0.786164
0.786166
0.786168
0.78617
0.786173
0.786175
0.786178
0.786181
0.786184
0.786188
0.786193
0.786198
0.786202
0.786204
0.786204
0.786202
0.786202
0.786204
0.786207
0.786211
0.786214
0.786217
0.78622
0.786223
0.786225
0.786228
0.78623
0.786232
0.786233
0.786235
0.786237
0.786238
0.78624
0.786242
0.786243
0.786245
0.786246
0.786248
0.786249
0.786251
0.786253
0.786254
0.786255
0.786257
0.786258
0.786259
0.78626
0.786261
0.786262
0.786263
0.786264
0.786265
0.786266
0.786267
0.786267
0.786266
0.786265
0.786262
0.78626
0.786257
0.786254
0.786251
0.786248
0.786245
0.786243
0.78624
0.786238
0.786236
0.786234
0.786235
0.786235
0.786234
0.786232
0.786229
0.786227
0.786224
0.786221
0.786219
0.786216
0.786214
0.786212
0.78621
0.786208
0.786206
0.786206
0.786201
0.738799
0.738796
0.738791
0.738787
0.738784
0.73878
0.738777
0.738773
0.73877
0.738767
0.738764
0.738761
0.738759
0.738756
0.738754
0.738752
0.73875
0.738748
0.738746
0.738744
0.738743
0.738742
0.738741
0.73874
0.738739
0.738738
0.738738
0.738738
0.738738
0.738739
0.738739
0.73874
0.738742
0.738743
0.738745
0.738747
0.738749
0.738752
0.738755
0.738757
0.73876
0.738763
0.738767
0.73877
0.738776
0.738781
0.738785