/*--------------------------------*- C++ -*----------------------------------*\
  =========                 |
  \\      /  F ield         | OpenFOAM: The Open Source CFD Toolbox
   \\    /   O peration     | Website:  https://openfoam.org
    \\  /    A nd           | Version:  7
     \\/     M anipulation  |
\*---------------------------------------------------------------------------*/
FoamFile
{
    version     2.0;
    format      ascii;
    class       volVectorField;
    location    "1500";
    object      U;
}
// * * * * * * * * * * * * * * * * * * * * * * * * * * * * * * * * * * * * * //

dimensions      [0 1 -1 0 0 0 0];

internalField   nonuniform List<vector> 
24000
(
(0.00407037 3.54086e-09 -9.31608e-18)
(0.00407031 -3.95555e-09 -2.44559e-17)
(0.00407061 -7.65984e-10 -2.25295e-17)
(0.00407067 -6.43878e-10 -9.44129e-17)
(0.00407075 -4.82401e-10 -3.69121e-16)
(0.0040708 -2.29208e-10 -9.59532e-17)
(0.00407083 -1.4861e-10 -3.71648e-16)
(0.00407085 -7.70883e-11 -8.09148e-17)
(0.00407086 -3.59143e-11 -4.32158e-17)
(0.00407087 -1.34201e-11 -3.76131e-16)
(0.00407087 -1.50637e-12 -7.49461e-17)
(0.00407087 2.56652e-12 -6.72761e-17)
(0.00407088 1.8546e-12 -6.31726e-17)
(0.00407088 -1.93523e-12 -8.60417e-17)
(0.00407088 -7.6308e-12 -1.10451e-16)
(0.00407089 -1.43553e-11 -6.97636e-17)
(0.00407089 -2.14675e-11 -8.07881e-17)
(0.0040709 -2.85618e-11 -7.74267e-17)
(0.00407091 -3.53884e-11 -9.96817e-17)
(0.00407092 -4.17662e-11 -1.25039e-16)
(0.00407093 -4.75772e-11 -7.7752e-17)
(0.00407094 -5.2744e-11 -1.29495e-16)
(0.00407095 -5.72314e-11 -1.07685e-16)
(0.00407096 -6.11734e-11 -1.22139e-16)
(0.00407097 -6.4694e-11 -1.70008e-16)
(0.00407098 -6.8056e-11 -7.86919e-17)
(0.00407099 -7.12951e-11 -1.0082e-16)
(0.004071 -7.46393e-11 -9.01195e-17)
(0.00407102 -7.76818e-11 -1.27614e-16)
(0.00407103 -8.09631e-11 -1.82133e-16)
(0.00407104 -8.32408e-11 -8.15655e-17)
(0.00407106 -8.65809e-11 -9.49792e-17)
(0.00407107 -8.71594e-11 -9.19367e-17)
(0.00407108 -9.182e-11 -1.40343e-16)
(0.0040711 -8.80174e-11 -2.04225e-16)
(0.00407111 -9.75903e-11 -1.01636e-16)
(0.00407112 -8.02287e-11 -1.13881e-16)
(0.00407114 -1.04464e-10 -1.02353e-16)
(0.00407115 -4.60261e-11 -1.33928e-16)
(0.00407116 -1.1095e-10 -1.59519e-16)
(0.00407117 5.81656e-11 -1.28592e-16)
(0.00407118 -9.76822e-11 4.41291e-17)
(0.00407117 2.96368e-10 -9.07676e-17)
(0.00407115 6.27534e-11 -9.79866e-17)
(0.00407112 5.33168e-10 -8.93953e-17)
(0.00407103 6.83796e-10 -7.96823e-17)
(0.00407099 -2.17364e-10 1.70308e-16)
(0.004071 -1.81276e-11 -6.19896e-17)
(0.004071 -1.40611e-10 -7.28055e-17)
(0.00407101 -6.61013e-11 -6.68038e-17)
(0.00407103 -1.82027e-10 -6.11655e-17)
(0.00407105 -1.20795e-10 1.50483e-16)
(0.00407106 -9.38264e-11 -5.01962e-17)
(0.00407107 -6.68637e-11 1.00053e-16)
(0.00407108 -4.13451e-11 -9.70915e-17)
(0.00407109 -2.48025e-11 -3.20587e-17)
(0.00407109 -1.41322e-11 1.85067e-16)
(0.0040711 -9.62523e-12 -2.33348e-17)
(0.0040711 -1.04212e-11 1.35552e-16)
(0.0040711 -1.54065e-11 -7.30771e-17)
(0.00407111 -2.33599e-11 -1.87114e-17)
(0.00407112 -3.29652e-11 1.7852e-16)
(0.00407113 -4.30152e-11 -6.11429e-18)
(0.00407114 -5.25222e-11 1.34215e-16)
(0.00407115 -6.0735e-11 -7.3717e-17)
(0.00407116 -6.71842e-11 -1.29405e-17)
(0.00407117 -7.16369e-11 1.85762e-16)
(0.00407118 -7.40438e-11 -6.13419e-18)
(0.0040712 -7.4503e-11 1.52827e-16)
(0.00407121 -7.32021e-11 -7.65552e-17)
(0.00407122 -7.03618e-11 -2.59497e-18)
(0.00407123 -6.62937e-11 1.96178e-16)
(0.00407124 -6.12194e-11 4.0525e-18)
(0.00407125 -5.54791e-11 1.49327e-16)
(0.00407126 -4.91661e-11 -4.44422e-17)
(0.00407127 -4.2758e-11 1.21911e-17)
(0.00407127 -3.59199e-11 2.63997e-16)
(0.00407128 -2.97201e-11 1.11891e-17)
(0.00407128 -2.25437e-11 2.0292e-16)
(0.00407128 -1.74188e-11 -1.91078e-17)
(0.00407128 -8.93376e-12 -2.15869e-16)
(0.00407128 -6.21185e-12 -1.01579e-16)
(0.00407128 6.75058e-12 1.0834e-17)
(0.00407128 5.56826e-12 -2.81655e-16)
(0.00407128 2.77411e-11 -8.41288e-17)
(0.00407127 2.33861e-11 -1.97341e-16)
(0.00407127 4.30085e-11 -9.85903e-17)
(0.00407126 1.22824e-11 -1.18835e-17)
(0.00407126 -2.03827e-11 -2.98876e-16)
(0.00407126 -1.61076e-11 -8.78884e-17)
(0.00407126 -4.9517e-11 -2.04834e-16)
(0.00407126 -1.64172e-11 -1.03968e-16)
(0.00407126 -1.48476e-11 -1.29067e-17)
(0.00407126 -6.57457e-12 -2.3421e-16)
(0.00407126 -1.26047e-11 -9.64866e-17)
(0.00407125 4.53802e-12 -2.47422e-16)
(0.00407125 -1.88085e-11 -8.10685e-17)
(0.00407125 3.80335e-11 -1.62662e-17)
(0.00407125 -2.33889e-11 -2.08968e-16)
(0.00407123 1.41281e-10 -5.9509e-17)
(0.00407123 -3.3246e-12 -2.02987e-16)
(0.0040712 3.73528e-10 -7.55701e-17)
(0.00407116 1.70958e-10 -2.01878e-17)
(0.00407112 5.81823e-10 -2.96516e-16)
(0.00407102 8.00089e-10 -1.16348e-16)
(0.00407096 -2.36912e-10 -2.43484e-16)
(0.00407097 -4.53664e-11 -7.11208e-17)
(0.00407097 -1.18555e-10 -1.37478e-17)
(0.00407098 -1.41236e-10 -1.98807e-16)
(0.00407099 -8.78398e-11 -1.24314e-16)
(0.004071 -9.43754e-11 -2.43189e-16)
(0.004071 -3.37368e-11 -2.31845e-16)
(0.00407101 -9.35468e-11 -3.71338e-17)
(0.00407101 5.43225e-11 -2.72263e-16)
(0.00407102 -1.71234e-10 -7.25511e-17)
(0.004071 2.92435e-10 -2.99864e-16)
(0.00407104 -4.13802e-10 -2.26975e-16)
(0.00407097 1.07658e-09 -3.2241e-17)
(0.004071 -9.5416e-10 -2.31508e-16)
(0.0040709 3.93608e-09 -7.90416e-17)
(0.0122882 3.37167e-08 -2.66954e-17)
(0.0122879 -1.87276e-08 -7.3945e-17)
(0.0122886 -1.46206e-08 -6.87627e-17)
(0.0122888 -8.14939e-09 -2.90733e-16)
(0.012289 -6.41387e-09 -8.89286e-16)
(0.0122891 -3.85935e-09 -2.81007e-16)
(0.0122892 -2.46469e-09 -9.98403e-16)
(0.0122892 -1.54917e-09 -2.37501e-16)
(0.0122893 -9.5221e-10 -1.33382e-16)
(0.0122893 -6.10529e-10 -8.1908e-16)
(0.0122893 -4.25208e-10 -2.17485e-16)
(0.0122893 -3.47923e-10 -2.03538e-16)
(0.0122893 -3.42698e-10 -1.90663e-16)
(0.0122893 -3.8464e-10 -2.60931e-16)
(0.0122894 -4.56286e-10 -3.37985e-16)
(0.0122894 -5.44122e-10 -2.14496e-16)
(0.0122894 -6.38558e-10 -2.46175e-16)
(0.0122894 -7.33136e-10 -2.34505e-16)
(0.0122894 -8.23603e-10 -3.02188e-16)
(0.0122895 -9.07192e-10 -3.77894e-16)
(0.0122895 -9.81862e-10 -2.35804e-16)
(0.0122895 -1.04669e-09 -3.88596e-16)
(0.0122896 -1.10203e-09 -3.24473e-16)
(0.0122896 -1.14953e-09 -3.68341e-16)
(0.0122896 -1.19151e-09 -5.22506e-16)
(0.0122897 -1.23012e-09 -2.35755e-16)
(0.0122897 -1.26623e-09 -3.04737e-16)
(0.0122897 -1.30001e-09 -2.73069e-16)
(0.0122898 -1.32998e-09 -3.92979e-16)
(0.0122898 -1.3561e-09 -5.65923e-16)
(0.0122898 -1.37627e-09 -2.48355e-16)
(0.0122899 -1.39399e-09 -2.89269e-16)
(0.0122899 -1.40399e-09 -2.7582e-16)
(0.01229 -1.41756e-09 -4.27705e-16)
(0.01229 -1.41239e-09 -6.16523e-16)
(0.01229 -1.42335e-09 -3.07812e-16)
(0.0122901 -1.36733e-09 -3.44971e-16)
(0.0122901 -1.36948e-09 -3.07299e-16)
(0.0122902 -1.13287e-09 -4.0908e-16)
(0.0122902 -1.13039e-09 -4.84079e-16)
(0.0122902 -3.04726e-10 -3.87549e-16)
(0.0122902 -3.84814e-10 -2.71328e-16)
(0.0122902 2.03338e-09 -2.78972e-16)
(0.0122902 1.81425e-09 -2.95099e-16)
(0.0122901 5.86365e-09 -2.69592e-16)
(0.0122899 7.25934e-09 -2.39677e-16)
(0.0122898 9.52145e-10 -1.35657e-16)
(0.0122898 -2.11969e-10 -1.93508e-16)
(0.0122898 -9.37601e-10 -2.18421e-16)
(0.0122898 -1.00461e-09 -2.00789e-16)
(0.0122898 -1.79605e-09 -1.83492e-16)
(0.0122899 -1.67649e-09 -1.24531e-16)
(0.0122899 -1.35489e-09 -1.56419e-16)
(0.0122899 -1.06104e-09 -6.85736e-17)
(0.01229 -7.74442e-10 -3.91252e-16)
(0.01229 -5.70905e-10 -9.54713e-17)
(0.01229 -4.51649e-10 -2.95456e-17)
(0.01229 -4.14285e-10 -7.59137e-17)
(0.01229 -4.49636e-10 4.29529e-18)
(0.01229 -5.41415e-10 -1.22924e-16)
(0.0122901 -6.70808e-10 -5.07968e-17)
(0.0122901 -8.18213e-10 6.27226e-17)
(0.0122901 -9.65914e-10 -2.63054e-17)
(0.0122901 -1.09944e-09 3.24003e-17)
(0.0122902 -1.20847e-09 -3.49284e-16)
(0.0122902 -1.28659e-09 -3.52895e-17)
(0.0122902 -1.33111e-09 9.10887e-19)
(0.0122903 -1.34208e-09 -2.39693e-17)
(0.0122903 -1.32162e-09 5.75445e-17)
(0.0122904 -1.27326e-09 -4.29299e-16)
(0.0122904 -1.20124e-09 8.06295e-20)
(0.0122904 -1.1102e-09 1.15963e-16)
(0.0122905 -1.00469e-09 5.7496e-18)
(0.0122905 -8.89059e-10 6.85544e-17)
(0.0122905 -7.67096e-10 -1.81629e-16)
(0.0122905 -6.42529e-10 4.25701e-17)
(0.0122905 -5.17348e-10 1.14407e-16)
(0.0122906 -3.9524e-10 2.53606e-17)
(0.0122906 -2.74489e-10 1.43206e-16)
(0.0122906 -1.61562e-10 6.05788e-18)
(0.0122906 -4.40229e-11 -1.64688e-16)
(0.0122906 5.70621e-11 -1.03763e-16)
(0.0122906 1.9111e-10 3.2823e-17)
(0.0122906 2.83423e-10 -2.10828e-16)
(0.0122905 4.76593e-10 -5.6981e-16)
(0.0122905 5.68782e-10 -2.32324e-16)
(0.0122905 7.22633e-10 -3.73359e-16)
(0.0122905 4.96358e-10 -3.37454e-17)
(0.0122905 1.75853e-10 -2.69612e-16)
(0.0122905 3.81697e-11 -3.48763e-16)
(0.0122905 -2.05468e-10 -2.44609e-16)
(0.0122905 -5.01581e-11 -1.96335e-16)
(0.0122905 5.92812e-11 -3.97466e-17)
(0.0122905 1.25451e-10 -2.73882e-16)
(0.0122905 1.59955e-10 -4.15086e-16)
(0.0122905 2.34597e-10 -2.99961e-16)
(0.0122904 2.46136e-10 -3.81595e-16)
(0.0122904 4.95004e-10 -4.7076e-17)
(0.0122904 5.22679e-10 -2.5819e-16)
(0.0122904 1.36556e-09 -1.48281e-16)
(0.0122904 1.33245e-09 -2.49899e-16)
(0.0122903 3.72942e-09 -2.30766e-16)
(0.0122902 3.59754e-09 -6.07554e-17)
(0.0122901 7.38696e-09 -2.82667e-16)
(0.0122898 8.98377e-09 -3.14788e-16)
(0.0122896 1.66732e-09 -3.18105e-16)
(0.0122896 1.42397e-10 -2.19255e-16)
(0.0122896 -5.23584e-10 -3.98551e-17)
(0.0122896 -1.04253e-09 -2.54716e-16)
(0.0122897 -8.82748e-10 -4.80976e-16)
(0.0122897 -7.64857e-10 -3.10894e-16)
(0.0122897 -5.44099e-10 -3.33976e-16)
(0.0122897 -5.25515e-10 -1.05959e-16)
(0.0122897 -1.76059e-10 -2.53159e-16)
(0.0122897 -4.53555e-10 -1.79664e-16)
(0.0122897 7.39303e-10 -2.76194e-16)
(0.0122898 -3.73099e-10 -3.23343e-16)
(0.0122896 5.23844e-09 -9.34703e-17)
(0.0122897 -7.3612e-10 -2.6917e-16)
(0.0122894 3.41941e-08 -2.32453e-16)
(0.0206741 8.54249e-08 -2.69594e-17)
(0.0206735 -3.31982e-08 -1.29279e-16)
(0.0206742 -3.7181e-08 -1.18567e-16)
(0.0206746 -2.26579e-08 -5.15002e-16)
(0.0206748 -1.73269e-08 -7.44182e-16)
(0.020675 -1.10254e-08 -4.28849e-16)
(0.0206752 -7.16399e-09 -6.66752e-16)
(0.0206753 -4.65856e-09 -3.41079e-16)
(0.0206753 -3.01937e-09 -2.43722e-16)
(0.0206754 -2.05964e-09 -6.37149e-16)
(0.0206754 -1.53487e-09 -3.00887e-16)
(0.0206754 -1.30846e-09 -3.50457e-16)
(0.0206755 -1.28373e-09 -3.20216e-16)
(0.0206755 -1.39269e-09 -4.47122e-16)
(0.0206755 -1.58609e-09 -5.87912e-16)
(0.0206755 -1.82619e-09 -3.62928e-16)
(0.0206756 -2.08548e-09 -4.24136e-16)
(0.0206756 -2.34536e-09 -3.95772e-16)
(0.0206757 -2.59375e-09 -5.17143e-16)
(0.0206757 -2.82236e-09 -6.29073e-16)
(0.0206757 -3.02548e-09 -3.8979e-16)
(0.0206758 -3.2005e-09 -6.52143e-16)
(0.0206759 -3.34862e-09 -5.36186e-16)
(0.0206759 -3.47454e-09 -6.19836e-16)
(0.020676 -3.58464e-09 -9.08679e-16)
(0.020676 -3.68432e-09 -3.83186e-16)
(0.0206761 -3.77611e-09 -5.18705e-16)
(0.0206761 -3.85951e-09 -4.59669e-16)
(0.0206762 -3.93131e-09 -6.76186e-16)
(0.0206763 -3.98993e-09 -9.94923e-16)
(0.0206763 -4.0328e-09 -3.9561e-16)
(0.0206764 -4.06465e-09 -4.98564e-16)
(0.0206765 -4.0816e-09 -4.60988e-16)
(0.0206765 -4.09697e-09 -7.45677e-16)
(0.0206766 -4.08318e-09 -1.03337e-15)
(0.0206767 -4.07719e-09 -5.04912e-16)
(0.0206767 -3.95839e-09 -5.85097e-16)
(0.0206768 -3.88279e-09 -5.10753e-16)
(0.0206768 -3.37175e-09 -7.12382e-16)
(0.0206769 -3.14704e-09 -8.2086e-16)
(0.0206769 -1.30072e-09 -6.41978e-16)
(0.020677 -9.60705e-10 -6.10236e-16)
(0.0206769 4.67918e-09 -4.71196e-16)
(0.0206769 5.09576e-09 -4.97761e-16)
(0.0206768 1.51213e-08 -4.50437e-16)
(0.0206765 1.90394e-08 -3.9924e-16)
(0.0206763 4.62533e-09 -4.20638e-16)
(0.0206762 1.54152e-10 -3.3239e-16)
(0.0206762 -2.02828e-09 -3.67507e-16)
(0.0206763 -2.56834e-09 -3.33915e-16)
(0.0206763 -4.54489e-09 -3.04944e-16)
(0.0206764 -4.51991e-09 -3.49104e-16)
(0.0206764 -3.7843e-09 -2.67164e-16)
(0.0206765 -3.03176e-09 -2.60228e-16)
(0.0206765 -2.29879e-09 9.80959e-17)
(0.0206766 -1.76898e-09 -1.3857e-16)
(0.0206766 -1.46882e-09 -2.07456e-16)
(0.0206766 -1.39374e-09 -1.35059e-16)
(0.0206766 -1.51841e-09 -1.62036e-16)
(0.0206767 -1.797e-09 2.1556e-16)
(0.0206767 -2.17565e-09 -5.33738e-17)
(0.0206767 -2.59876e-09 -1.17592e-16)
(0.0206768 -3.01637e-09 -5.53383e-17)
(0.0206768 -3.38802e-09 -8.62369e-17)
(0.0206769 -3.68519e-09 3.22249e-17)
(0.020677 -3.89063e-09 -3.74778e-17)
(0.020677 -3.99741e-09 -1.32352e-16)
(0.0206771 -4.00653e-09 -4.8212e-17)
(0.0206772 -3.92472e-09 -6.26033e-17)
(0.0206772 -3.76247e-09 9.70315e-17)
(0.0206773 -3.53251e-09 3.90152e-17)
(0.0206773 -3.24846e-09 -2.84833e-17)
(0.0206774 -2.92355e-09 6.57181e-19)
(0.0206774 -2.57044e-09 -3.58205e-17)
(0.0206775 -2.20036e-09 5.24472e-16)
(0.0206775 -1.82342e-09 1.00993e-16)
(0.0206775 -1.44684e-09 -2.39433e-17)
(0.0206775 -1.07858e-09 3.19432e-17)
(0.0206775 -7.18832e-10 2.85065e-17)
(0.0206776 -3.77228e-10 3.96482e-16)
(0.0206776 -3.47395e-11 -5.80093e-17)
(0.0206776 2.76413e-10 8.75402e-17)
(0.0206775 6.47622e-10 8.94791e-17)
(0.0206775 9.44765e-10 -1.96812e-16)
(0.0206775 1.45149e-09 -3.77456e-17)
(0.0206775 1.76201e-09 -2.5081e-16)
(0.0206775 2.16541e-09 1.38059e-16)
(0.0206774 1.65962e-09 -3.48845e-17)
(0.0206774 8.535e-10 -2.94456e-16)
(0.0206774 4.09447e-10 -2.00988e-17)
(0.0206774 -2.03167e-10 -2.54614e-16)
(0.0206774 9.42577e-11 -5.57952e-17)
(0.0206774 3.94846e-10 -4.64914e-17)
(0.0206773 5.8262e-10 -2.9895e-16)
(0.0206773 7.13806e-10 1.00659e-16)
(0.0206773 8.96742e-10 -2.98549e-16)
(0.0206773 1.01995e-09 1.34323e-16)
(0.0206773 1.58206e-09 -6.62072e-17)
(0.0206772 1.88073e-09 -3.15213e-16)
(0.0206772 3.80016e-09 1.84802e-16)
(0.0206771 4.25144e-09 -2.78343e-16)
(0.020677 9.88948e-09 -5.31848e-17)
(0.0206769 1.04606e-08 -9.25984e-17)
(0.0206767 1.99373e-08 -3.36182e-16)
(0.0206763 2.41741e-08 1.74571e-17)
(0.020676 7.34412e-09 -3.62644e-16)
(0.020676 1.75898e-09 -3.17586e-17)
(0.0206759 -5.35512e-10 -5.56538e-17)
(0.020676 -2.08612e-09 -3.27191e-16)
(0.020676 -1.99499e-09 4.76029e-18)
(0.020676 -1.72913e-09 -3.44849e-16)
(0.020676 -1.31847e-09 -4.23554e-16)
(0.020676 -1.13581e-09 -1.55551e-16)
(0.020676 -5.89742e-10 -3.06311e-16)
(0.0206761 -7.63659e-10 -2.2499e-17)
(0.020676 1.25245e-09 -2.88351e-16)
(0.0206761 1.90214e-10 -4.11037e-16)
(0.0206759 1.14903e-08 -1.39022e-16)
(0.020676 1.66847e-09 -2.89353e-16)
(0.0206756 8.17904e-08 1.39594e-16)
(0.0291928 1.51282e-07 -3.81656e-17)
(0.029192 -4.06065e-08 -1.89842e-16)
(0.0291926 -6.3054e-08 -1.75204e-16)
(0.029193 -4.24639e-08 -7.49727e-16)
(0.0291933 -3.23172e-08 -7.23397e-16)
(0.0291936 -2.13413e-08 -5.40662e-16)
(0.0291938 -1.41502e-08 -5.88073e-16)
(0.0291939 -9.44756e-09 -3.93387e-16)
(0.029194 -6.36725e-09 -3.75374e-16)
(0.029194 -4.53586e-09 -5.33876e-16)
(0.0291941 -3.52663e-09 -3.27664e-16)
(0.0291941 -3.08169e-09 -5.12651e-16)
(0.0291942 -3.02221e-09 -4.46961e-16)
(0.0291942 -3.22081e-09 -6.58449e-16)
(0.0291943 -3.5835e-09 -9.27018e-16)
(0.0291943 -4.03736e-09 -5.01898e-16)
(0.0291944 -4.52894e-09 -6.28218e-16)
(0.0291944 -5.02187e-09 -5.59497e-16)
(0.0291945 -5.49235e-09 -7.60964e-16)
(0.0291945 -5.92383e-09 -1.01299e-15)
(0.0291946 -6.30529e-09 -3.54024e-16)
(0.0291947 -6.63173e-09 -1.24477e-15)
(0.0291948 -6.90568e-09 -7.19471e-16)
(0.0291948 -7.13625e-09 -8.47188e-16)
(0.0291949 -7.33551e-09 -1.35464e-15)
(0.029195 -7.5134e-09 -3.71666e-16)
(0.0291951 -7.67434e-09 -8.92346e-16)
(0.0291952 -7.81654e-09 -6.4396e-16)
(0.0291953 -7.93443e-09 -9.0491e-16)
(0.0291953 -8.02385e-09 -1.62013e-15)
(0.0291954 -8.08284e-09 -4.18871e-16)
(0.0291955 -8.11689e-09 -7.09411e-16)
(0.0291956 -8.12721e-09 -6.43861e-16)
(0.0291957 -8.12585e-09 -1.31356e-15)
(0.0291958 -8.08723e-09 -1.5664e-15)
(0.0291959 -8.03552e-09 -5.35695e-16)
(0.0291959 -7.82969e-09 -8.1345e-16)
(0.029196 -7.61185e-09 -6.99647e-16)
(0.0291961 -6.7613e-09 -9.55582e-16)
(0.0291962 -6.14438e-09 -1.17247e-15)
(0.0291962 -3.05233e-09 -8.70597e-16)
(0.0291963 -1.8802e-09 -9.47327e-16)
(0.0291962 7.73659e-09 -6.44875e-16)
(0.0291962 9.60185e-09 -7.13293e-16)
(0.029196 2.73094e-08 -6.25263e-16)
(0.0291957 3.48907e-08 -5.55998e-16)
(0.0291954 1.12114e-08 -7.13177e-16)
(0.0291954 1.65776e-09 -4.57384e-16)
(0.0291954 -2.97615e-09 -5.28403e-16)
(0.0291954 -4.45766e-09 -4.60729e-16)
(0.0291954 -8.04976e-09 -4.24913e-16)
(0.0291955 -8.36678e-09 -5.85422e-16)
(0.0291956 -7.22934e-09 -3.64643e-16)
(0.0291957 -5.91244e-09 -4.59811e-16)
(0.0291957 -4.61807e-09 -1.6517e-16)
(0.0291958 -3.67636e-09 -2.10966e-16)
(0.0291958 -3.16349e-09 -4.02917e-16)
(0.0291958 -3.07687e-09 -1.84242e-16)
(0.0291959 -3.36708e-09 -3.33269e-16)
(0.0291959 -3.94498e-09 1.97408e-17)
(0.029196 -4.70483e-09 -9.04534e-17)
(0.029196 -5.53852e-09 -2.9833e-16)
(0.0291961 -6.34933e-09 -7.65574e-17)
(0.0291962 -7.05997e-09 -2.04224e-16)
(0.0291963 -7.61641e-09 -5.4662e-17)
(0.0291963 -7.98699e-09 -6.22228e-17)
(0.0291964 -8.15978e-09 -2.93207e-16)
(0.0291965 -8.13826e-09 -6.58493e-17)
(0.0291966 -7.93682e-09 -1.72757e-16)
(0.0291967 -7.57711e-09 1.19396e-16)
(0.0291968 -7.08484e-09 4.10008e-17)
(0.0291969 -6.48708e-09 -1.71646e-16)
(0.0291969 -5.81057e-09 5.7561e-18)
(0.029197 -5.08022e-09 -1.43721e-16)
(0.029197 -4.3185e-09 1.82591e-16)
(0.0291971 -3.545e-09 1.09492e-16)
(0.0291971 -2.77493e-09 -1.54564e-16)
(0.0291971 -2.02206e-09 4.76563e-17)
(0.0291971 -1.29076e-09 -7.3768e-17)
(0.0291971 -5.93006e-10 1.87842e-16)
(0.0291971 9.4477e-11 -2.71857e-17)
(0.0291971 7.33119e-10 1.6552e-16)
(0.0291971 1.45522e-09 1.09554e-16)
(0.0291971 2.07396e-09 -2.14457e-16)
(0.0291971 3.02097e-09 -1.81712e-16)
(0.029197 3.67758e-09 -2.92101e-16)
(0.029197 4.43591e-09 -6.60179e-17)
(0.0291969 3.63177e-09 -6.57986e-17)
(0.0291969 2.21391e-09 -3.45347e-16)
(0.0291969 1.31147e-09 -1.01392e-16)
(0.0291968 2.02114e-10 -2.89451e-16)
(0.0291968 6.13023e-10 -1.18914e-16)
(0.0291968 1.1577e-09 -9.11922e-17)
(0.0291968 1.5286e-09 -3.56726e-16)
(0.0291968 1.81976e-09 -1.68106e-16)
(0.0291967 2.16593e-09 -3.29435e-16)
(0.0291967 2.49379e-09 -1.30042e-16)
(0.0291967 3.4675e-09 -1.11582e-16)
(0.0291966 4.24056e-09 -3.97619e-16)
(0.0291966 7.5017e-09 -7.60408e-17)
(0.0291965 8.87726e-09 -3.45809e-16)
(0.0291963 1.85429e-08 -1.88349e-16)
(0.0291961 2.06238e-08 -1.49638e-16)
(0.0291959 3.74542e-08 -4.29773e-16)
(0.0291954 4.5391e-08 -2.75694e-16)
(0.0291951 1.75407e-08 -4.46466e-16)
(0.0291949 5.74332e-09 -1.98003e-16)
(0.0291949 5.50723e-10 -1.00431e-16)
(0.0291949 -2.65956e-09 -4.23513e-16)
(0.0291949 -2.96962e-09 -2.85915e-16)
(0.0291949 -2.64699e-09 -4.34953e-16)
(0.0291949 -2.10481e-09 -5.0322e-16)
(0.0291949 -1.72318e-09 -1.63514e-16)
(0.0291949 -1.06876e-09 -3.76063e-16)
(0.0291949 -9.8136e-10 -1.18507e-16)
(0.0291949 1.73203e-09 -3.72744e-16)
(0.029195 1.36113e-09 -4.88626e-16)
(0.0291948 1.87868e-08 -1.47024e-16)
(0.0291948 6.92167e-09 -3.47665e-16)
(0.0291944 1.3887e-07 -1.34841e-16)
(0.0377126 2.23376e-07 -4.37455e-17)
(0.0377117 -3.80612e-08 -2.60016e-16)
(0.0377121 -8.58844e-08 -2.41046e-16)
(0.0377125 -6.45294e-08 -6.10396e-16)
(0.0377128 -4.98648e-08 -6.43997e-16)
(0.0377131 -3.40262e-08 -5.29384e-16)
(0.0377133 -2.30988e-08 -5.42651e-16)
(0.0377135 -1.58272e-08 -4.01643e-16)
(0.0377136 -1.10489e-08 -5.43437e-16)
(0.0377136 -8.17046e-09 -4.80695e-16)
(0.0377137 -6.56957e-09 -3.12966e-16)
(0.0377138 -5.85057e-09 -7.14865e-16)
(0.0377138 -5.74023e-09 -5.55313e-16)
(0.0377139 -6.042e-09 -9.22574e-16)
(0.037714 -6.60767e-09 -9.56559e-16)
(0.037714 -7.32095e-09 -5.7703e-16)
(0.0377141 -8.09582e-09 -8.8448e-16)
(0.0377142 -8.87322e-09 -7.14884e-16)
(0.0377143 -9.61413e-09 -1.0601e-15)
(0.0377143 -1.02915e-08 -1.04087e-15)
(0.0377144 -1.08872e-08 -5.85997e-16)
(0.0377145 -1.13936e-08 -8.83124e-16)
(0.0377146 -1.18147e-08 -8.30115e-16)
(0.0377147 -1.21652e-08 -7.52376e-16)
(0.0377148 -1.24641e-08 -1.14902e-15)
(0.0377149 -1.27268e-08 -5.32868e-16)
(0.037715 -1.29593e-08 -6.59528e-16)
(0.0377151 -1.31583e-08 -8.06011e-16)
(0.0377153 -1.3315e-08 -8.47082e-16)
(0.0377154 -1.34222e-08 -1.26839e-15)
(0.0377155 -1.34789e-08 -5.79181e-16)
(0.0377156 -1.34926e-08 -6.64534e-16)
(0.0377157 -1.34706e-08 -8.08953e-16)
(0.0377158 -1.34252e-08 -9.74154e-16)
(0.0377159 -1.33328e-08 -1.37814e-15)
(0.037716 -1.32044e-08 -7.51706e-16)
(0.0377161 -1.28751e-08 -7.55316e-16)
(0.0377162 -1.24672e-08 -8.53965e-16)
(0.0377163 -1.12094e-08 -9.19542e-16)
(0.0377164 -1.00884e-08 -1.15636e-15)
(0.0377164 -5.58089e-09 -1.03668e-15)
(0.0377165 -3.2727e-09 -9.49833e-16)
(0.0377165 1.07837e-08 -7.51578e-16)
(0.0377164 1.48176e-08 -9.61965e-16)
(0.0377163 4.12755e-08 -7.77657e-16)
(0.0377159 5.34819e-08 -7.09228e-16)
(0.0377156 2.05519e-08 -6.80437e-16)
(0.0377155 4.82881e-09 -5.21754e-16)
(0.0377155 -3.29068e-09 -7.262e-16)
(0.0377155 -6.24549e-09 -5.68732e-16)
(0.0377155 -1.18517e-08 -5.46029e-16)
(0.0377156 -1.28002e-08 -4.95024e-16)
(0.0377157 -1.14133e-08 -4.10416e-16)
(0.0377158 -9.54346e-09 -3.15583e-16)
(0.0377158 -7.6688e-09 -3.59461e-16)
(0.0377159 -6.30587e-09 -3.11392e-16)
(0.0377159 -5.60495e-09 -2.49145e-16)
(0.037716 -5.57186e-09 -1.84232e-16)
(0.037716 -6.12654e-09 -1.825e-16)
(0.0377161 -7.12419e-09 -2.08376e-17)
(0.0377162 -8.39255e-09 -1.51632e-16)
(0.0377163 -9.75731e-09 -1.5535e-16)
(0.0377163 -1.10637e-08 -5.3445e-17)
(0.0377165 -1.21895e-08 3.01112e-17)
(0.0377166 -1.30507e-08 1.44681e-17)
(0.0377167 -1.35994e-08 -1.14717e-16)
(0.0377168 -1.38192e-08 -1.4951e-16)
(0.0377169 -1.37184e-08 -4.28145e-17)
(0.037717 -1.33225e-08 5.68597e-17)
(0.0377171 -1.26683e-08 -4.15362e-18)
(0.0377172 -1.17988e-08 1.57494e-17)
(0.0377173 -1.0759e-08 2.02726e-17)
(0.0377174 -9.59305e-09 5.73364e-17)
(0.0377175 -8.34202e-09 6.96017e-17)
(0.0377175 -7.04291e-09 5.40503e-17)
(0.0377176 -5.72759e-09 7.57202e-17)
(0.0377176 -4.42161e-09 3.69041e-17)
(0.0377176 -3.14644e-09 1.07546e-16)
(0.0377176 -1.91168e-09 1.72092e-16)
(0.0377176 -7.32407e-10 -1.17206e-16)
(0.0377176 4.18836e-10 3.07663e-16)
(0.0377176 1.49822e-09 1.35032e-16)
(0.0377176 2.68025e-09 1.06403e-16)
(0.0377176 3.72942e-09 8.18477e-17)
(0.0377175 5.22854e-09 -3.62013e-16)
(0.0377175 6.34721e-09 5.09461e-18)
(0.0377174 7.55893e-09 -1.2636e-16)
(0.0377174 6.4929e-09 -1.12211e-16)
(0.0377173 4.41485e-09 -8.12577e-17)
(0.0377173 2.94797e-09 -3.70427e-16)
(0.0377172 1.24242e-09 1.74826e-17)
(0.0377172 1.71329e-09 -1.56616e-16)
(0.0377172 2.51313e-09 -1.51843e-16)
(0.0377172 3.12081e-09 -1.03532e-16)
(0.0377171 3.63187e-09 -3.94875e-16)
(0.0377171 4.21078e-09 -3.68546e-17)
(0.037717 4.82821e-09 -1.44973e-16)
(0.037717 6.32141e-09 -1.62502e-16)
(0.0377169 7.72253e-09 -1.68418e-16)
(0.0377168 1.25344e-08 -1.99722e-16)
(0.0377167 1.51702e-08 -6.58383e-17)
(0.0377166 2.93465e-08 -2.31006e-16)
(0.0377163 3.36537e-08 -2.14121e-16)
(0.037716 5.88775e-08 -2.20517e-16)
(0.0377155 7.13857e-08 -3.60652e-16)
(0.0377151 3.23251e-08 -2.0115e-16)
(0.0377149 1.29227e-08 -4.3229e-16)
(0.0377148 3.49702e-09 -1.74409e-16)
(0.0377147 -2.08608e-09 -2.12645e-16)
(0.0377147 -3.25584e-09 -3.5781e-16)
(0.0377147 -3.12039e-09 -2.2048e-16)
(0.0377147 -2.57787e-09 -2.04959e-16)
(0.0377147 -2.09191e-09 -9.96429e-17)
(0.0377147 -1.39996e-09 -1.38225e-16)
(0.0377147 -1.10365e-09 -2.20407e-16)
(0.0377147 2.30072e-09 -1.52028e-16)
(0.0377148 2.81018e-09 -1.95671e-16)
(0.0377145 2.66195e-08 -8.65055e-17)
(0.0377146 1.45077e-08 -1.1012e-16)
(0.0377141 1.98274e-07 -3.32591e-16)
(0.0459565 2.95453e-07 -1.80803e-17)
(0.0459555 -2.60386e-08 -3.35098e-16)
(0.0459557 -1.01606e-07 -2.89192e-16)
(0.045956 -8.54213e-08 -5.09392e-16)
(0.0459564 -6.81438e-08 -5.17014e-16)
(0.0459566 -4.81038e-08 -5.09582e-16)
(0.0459569 -3.35388e-08 -4.71885e-16)
(0.045957 -2.36055e-08 -3.85601e-16)
(0.0459572 -1.70237e-08 -4.18339e-16)
(0.0459573 -1.3004e-08 -4.11007e-16)
(0.0459573 -1.07408e-08 -2.81979e-16)
(0.0459574 -9.7018e-09 -6.59822e-16)
(0.0459575 -9.51816e-09 -6.06379e-16)
(0.0459576 -9.92122e-09 -9.21525e-16)
(0.0459576 -1.07036e-08 -1.014e-15)
(0.0459577 -1.17005e-08 -5.73372e-16)
(0.0459578 -1.27883e-08 -8.77611e-16)
(0.0459579 -1.38815e-08 -8.23803e-16)
(0.045958 -1.49229e-08 -1.1047e-15)
(0.0459581 -1.58728e-08 -1.12991e-15)
(0.0459582 -1.67047e-08 -9.01821e-16)
(0.0459583 -1.74074e-08 -9.08171e-16)
(0.0459585 -1.79869e-08 -8.81227e-16)
(0.0459586 -1.8464e-08 -9.52631e-16)
(0.0459587 -1.88652e-08 -1.04287e-15)
(0.0459588 -1.92117e-08 -7.76195e-16)
(0.0459589 -1.95111e-08 -9.61166e-16)
(0.0459591 -1.97578e-08 -9.95756e-16)
(0.0459592 -1.99391e-08 -1.07244e-15)
(0.0459593 -2.0045e-08 -1.15696e-15)
(0.0459594 -2.00753e-08 -8.50013e-16)
(0.0459596 -2.00409e-08 -1.03029e-15)
(0.0459597 -1.99557e-08 -1.0117e-15)
(0.0459598 -1.98354e-08 -1.25232e-15)
(0.0459599 -1.96558e-08 -1.34477e-15)
(0.04596 -1.942e-08 -1.03255e-15)
(0.0459601 -1.89295e-08 -1.08288e-15)
(0.0459603 -1.82964e-08 -1.02928e-15)
(0.0459604 -1.65761e-08 -1.15097e-15)
(0.0459605 -1.48845e-08 -1.20036e-15)
(0.0459605 -8.85719e-09 -1.14676e-15)
(0.0459606 -5.2137e-09 -9.4446e-16)
(0.0459606 1.35102e-08 -8.2192e-16)
(0.0459605 2.02574e-08 -9.22772e-16)
(0.0459604 5.60634e-08 -8.63613e-16)
(0.04596 7.36325e-08 -8.45966e-16)
(0.0459597 3.2143e-08 -3.73722e-16)
(0.0459596 9.87373e-09 -5.6093e-16)
(0.0459595 -2.53598e-09 -6.56731e-16)
(0.0459595 -7.50082e-09 -6.2302e-16)
(0.0459595 -1.54961e-08 -6.57663e-16)
(0.0459596 -1.73901e-08 -4.63288e-16)
(0.0459597 -1.60035e-08 -4.37478e-16)
(0.0459598 -1.37093e-08 -2.59522e-16)
(0.0459598 -1.13354e-08 -1.94157e-16)
(0.0459599 -9.62047e-09 -4.23783e-16)
(0.04596 -8.81061e-09 -7.84268e-17)
(0.04596 -8.92729e-09 -1.54828e-16)
(0.0459601 -9.85531e-09 8.38957e-17)
(0.0459602 -1.13854e-08 8.08556e-18)
(0.0459603 -1.32686e-08 -2.23614e-16)
(0.0459604 -1.52556e-08 -6.89775e-17)
(0.0459605 -1.71271e-08 -1.75684e-17)
(0.0459606 -1.87122e-08 1.42503e-16)
(0.0459607 -1.98948e-08 7.65811e-17)
(0.0459609 -2.06111e-08 -1.54147e-16)
(0.045961 -2.08419e-08 2.50384e-16)
(0.0459611 -2.06025e-08 -4.9788e-18)
(0.0459613 -1.99326e-08 3.32526e-16)
(0.0459614 -1.88875e-08 2.21562e-16)
(0.0459615 -1.75311e-08 -1.3098e-17)
(0.0459616 -1.59295e-08 1.23487e-16)
(0.0459617 -1.41475e-08 1.28037e-16)
(0.0459618 -1.22452e-08 3.78075e-16)
(0.0459618 -1.02768e-08 2.44792e-16)
(0.0459619 -8.28863e-09 5.01856e-17)
(0.0459619 -6.31859e-09 1.59735e-16)
(0.0459619 -4.39721e-09 1.75494e-16)
(0.045962 -2.54019e-09 3.25185e-16)
(0.045962 -7.66784e-10 2.24452e-16)
(0.045962 9.55369e-10 6.23187e-16)
(0.0459619 2.57653e-09 1.91258e-16)
(0.0459619 4.31481e-09 1.02791e-16)
(0.0459619 5.88883e-09 3.69439e-16)
(0.0459618 8.03286e-09 -3.32375e-16)
(0.0459618 9.71209e-09 4.00556e-16)
(0.0459617 1.14651e-08 -1.07607e-16)
(0.0459616 1.02065e-08 -1.40264e-16)
(0.0459616 7.4814e-09 1.62476e-16)
(0.0459615 5.39609e-09 -3.61922e-16)
(0.0459615 3.02768e-09 2.48069e-16)
(0.0459614 3.49741e-09 -1.52141e-16)
(0.0459614 4.53416e-09 -1.61352e-16)
(0.0459614 5.41494e-09 1.37168e-16)
(0.0459613 6.19947e-09 -3.76027e-16)
(0.0459613 7.08432e-09 2.08078e-16)
(0.0459612 8.06949e-09 -4.44078e-16)
(0.0459611 1.01826e-08 -1.59651e-16)
(0.0459611 1.23235e-08 5.52307e-17)
(0.0459609 1.88266e-08 -2.50384e-16)
(0.0459608 2.29495e-08 1.71026e-16)
(0.0459606 4.18741e-08 -2.46922e-16)
(0.0459604 4.89436e-08 -2.31286e-16)
(0.0459601 8.31355e-08 -3.68971e-17)
(0.0459595 1.00868e-07 -3.77934e-16)
(0.045959 5.11837e-08 3.91926e-17)
(0.0459588 2.35799e-08 -3.1297e-16)
(0.0459586 8.83678e-09 -2.11759e-16)
(0.0459585 1.50899e-10 -4.00085e-17)
(0.0459585 -2.4129e-09 -3.94124e-16)
(0.0459585 -2.82363e-09 1.79484e-16)
(0.0459585 -2.49548e-09 9.6818e-17)
(0.0459585 -2.09193e-09 -4.27666e-18)
(0.0459584 -1.46087e-09 5.98987e-17)
(0.0459585 -1.11965e-09 -4.28078e-16)
(0.0459584 2.97292e-09 2.19801e-16)
(0.0459585 4.3011e-09 7.60304e-17)
(0.0459583 3.45106e-08 4.8458e-18)
(0.0459583 2.3615e-08 8.13417e-17)
(0.0459578 2.55377e-07 -2.0448e-16)
(0.053588 3.62865e-07 6.59996e-17)
(0.053587 -6.71998e-09 -1.32989e-16)
(0.0535871 -1.08673e-07 -2.6277e-16)
(0.0535873 -1.02229e-07 -3.70986e-16)
(0.0535875 -8.51402e-08 -3.97085e-16)
(0.0535878 -6.23569e-08 -4.05147e-16)
(0.053588 -4.47827e-08 -3.93255e-16)
(0.0535882 -3.24084e-08 -3.44813e-16)
(0.0535883 -2.40839e-08 -3.41858e-16)
(0.0535884 -1.89131e-08 -3.44363e-16)
(0.0535885 -1.59522e-08 -2.38094e-16)
(0.0535886 -1.45533e-08 -8.222e-16)
(0.0535887 -1.42623e-08 -6.23343e-16)
(0.0535888 -1.47427e-08 -9.9904e-16)
(0.0535889 -1.57287e-08 -1.04057e-15)
(0.053589 -1.7005e-08 -4.26427e-16)
(0.0535891 -1.8408e-08 -9.69557e-16)
(0.0535892 -1.98233e-08 -9.05593e-16)
(0.0535893 -2.11733e-08 -1.36648e-15)
(0.0535894 -2.2404e-08 -1.1714e-15)
(0.0535895 -2.34793e-08 -1.12744e-15)
(0.0535897 -2.43836e-08 -9.31857e-16)
(0.0535898 -2.51245e-08 -9.10262e-16)
(0.0535899 -2.5729e-08 -1.2633e-15)
(0.05359 -2.6231e-08 -9.58742e-16)
(0.0535902 -2.66571e-08 -9.33489e-16)
(0.0535903 -2.70164e-08 -1.21781e-15)
(0.0535904 -2.73002e-08 -1.15693e-15)
(0.0535906 -2.74918e-08 -1.48773e-15)
(0.0535907 -2.75783e-08 -1.0901e-15)
(0.0535908 -2.75604e-08 -1.01875e-15)
(0.053591 -2.74539e-08 -1.29138e-15)
(0.0535911 -2.72793e-08 -1.20658e-15)
(0.0535912 -2.70578e-08 -1.43697e-15)
(0.0535914 -2.67636e-08 -1.30475e-15)
(0.0535915 -2.63962e-08 -1.20336e-15)
(0.0535916 -2.57176e-08 -1.35166e-15)
(0.0535917 -2.48391e-08 -1.19836e-15)
(0.0535918 -2.26298e-08 -1.3774e-15)
(0.0535919 -2.03412e-08 -1.239e-15)
(0.053592 -1.27718e-08 -1.22059e-15)
(0.0535921 -7.70084e-09 -8.90337e-16)
(0.0535921 1.57013e-08 -8.75156e-16)
(0.0535921 2.54754e-08 -9.34443e-16)
(0.0535919 7.08181e-08 -9.24857e-16)
(0.0535916 9.42579e-08 -9.54101e-16)
(0.0535912 4.52646e-08 -6.10313e-16)
(0.0535911 1.66659e-08 -5.95172e-16)
(0.053591 -4.30131e-10 -6.48207e-16)
(0.053591 -7.83444e-09 -6.71864e-16)
(0.053591 -1.85369e-08 -7.49778e-16)
(0.0535911 -2.16939e-08 -3.92383e-16)
(0.0535911 -2.06152e-08 -4.77251e-16)
(0.0535912 -1.81257e-08 -1.51444e-16)
(0.0535913 -1.54283e-08 -1.91112e-16)
(0.0535914 -1.35037e-08 -5.52367e-16)
(0.0535914 -1.27082e-08 -9.3676e-17)
(0.0535915 -1.30851e-08 -1.71483e-16)
(0.0535916 -1.4483e-08 7.2753e-17)
(0.0535917 -1.66255e-08 5.16868e-17)
(0.0535918 -1.91846e-08 -3.26611e-16)
(0.0535919 -2.18348e-08 5.86563e-17)
(0.053592 -2.42926e-08 1.94416e-18)
(0.0535921 -2.63394e-08 3.08677e-16)