/*--------------------------------*- C++ -*----------------------------------*\
  =========                 |
  \\      /  F ield         | OpenFOAM: The Open Source CFD Toolbox
   \\    /   O peration     | Website:  https://openfoam.org
    \\  /    A nd           | Version:  7
     \\/     M anipulation  |
\*---------------------------------------------------------------------------*/
FoamFile
{
    version     2.0;
    format      ascii;
    class       surfaceScalarField;
    location    "19000";
    object      phi;
}
// * * * * * * * * * * * * * * * * * * * * * * * * * * * * * * * * * * * * * //

dimensions      [0 3 -1 0 0 0 0];

internalField   nonuniform List<scalar> 
7821
(
0.000131717
1.85801e-10
0.000131717
2.24496e-10
0.000131717
2.46398e-10
0.000131717
2.5884e-10
0.000131717
2.66357e-10
0.000131717
2.72538e-10
0.000131717
2.79603e-10
0.000131717
2.88473e-10
0.000131717
2.99225e-10
0.000131717
3.11919e-10
0.000131717
3.26882e-10
0.000131718
3.44125e-10
0.000131718
3.62766e-10
0.000131718
3.8147e-10
0.000131718
3.99286e-10
0.000131718
4.15491e-10
0.000131718
4.29487e-10
0.000131718
4.41048e-10
0.000131718
4.49973e-10
0.000131718
4.56099e-10
0.000131718
4.59832e-10
0.000131718
4.61552e-10
0.000131718
4.61102e-10
0.000131718
4.58404e-10
0.000131718
4.53741e-10
0.000131718
4.477e-10
0.000131718
4.40898e-10
0.000131718
4.33166e-10
0.000131718
4.23882e-10
0.000131718
4.13212e-10
0.000131718
4.01677e-10
0.000131718
3.89446e-10
0.000131718
3.76456e-10
0.000131718
3.63259e-10
0.000131718
3.48796e-10
0.000131718
3.34153e-10
0.000131718
3.13286e-10
3.10405e-10
0.000136026
-3.99962e-11
0.000136026
5.98391e-11
0.000136026
1.13793e-10
0.000136026
1.56977e-10
0.000136026
1.85387e-10
0.000136026
2.02385e-10
0.000136026
2.13148e-10
0.000136026
2.21825e-10
0.000136026
2.31012e-10
0.000136026
2.41827e-10
0.000136026
2.54364e-10
0.000136026
2.68685e-10
0.000136026
2.85129e-10
0.000136027
3.03678e-10
0.000136027
3.23481e-10
0.000136027
3.4336e-10
0.000136027
3.6245e-10
0.000136027
3.80012e-10
0.000136027
3.9542e-10
0.000136027
4.08409e-10
0.000136027
4.18789e-10
0.000136027
4.26463e-10
0.000136027
4.31804e-10
0.000136027
4.35147e-10
0.000136027
4.36366e-10
0.000136027
4.35373e-10
0.000136027
4.32424e-10
0.000136027
4.281e-10
0.000136027
4.23012e-10
0.000136027
4.17021e-10
0.000136027
4.09517e-10
0.000136027
4.00599e-10
0.000136027
3.9074e-10
0.000136027
3.80122e-10
0.000136027
3.68676e-10
0.000136027
3.57079e-10
0.000136027
3.44026e-10
0.000136027
3.31862e-10
0.000136027
3.10456e-10
0.000136027
3.21515e-10
0.000136027
3.31512e-10
3.03547e-10
0.000140428
-4.61429e-10
0.000140428
-2.21381e-10
0.000140428
-5.9936e-11
0.000140428
3.12437e-11
0.000140428
6.94975e-11
0.000140428
1.02849e-10
0.000140428
1.28802e-10
0.000140429
1.46221e-10
0.000140429
1.58193e-10
0.000140429
1.68257e-10
0.000140429
1.78918e-10
0.000140429
1.91314e-10
0.000140429
2.05483e-10
0.000140429
2.21406e-10
0.000140429
2.39378e-10
0.000140429
2.59334e-10
0.000140429
2.8043e-10
0.000140429
3.01617e-10
0.000140429
3.22117e-10
0.000140429
3.41185e-10
0.000140429
3.58183e-10
0.000140429
3.72804e-10
0.000140429
3.84844e-10
0.000140429
3.94259e-10
0.000140429
4.01404e-10
0.000140429
4.06571e-10
0.000140429
4.09654e-10
0.000140429
4.1057e-10
0.000140429
4.09538e-10
0.000140429
4.07113e-10
0.000140429
4.03888e-10
0.000140429
3.99768e-10
0.000140429
3.94192e-10
0.000140429
3.87198e-10
0.000140429
3.79206e-10
0.000140429
3.70391e-10
0.000140429
3.60645e-10
0.000140429
3.50722e-10
0.000140429
3.39233e-10
0.000140429
3.29107e-10
0.000140429
3.09764e-10
0.000140429
3.16064e-10
0.000140429
3.34263e-10
0.000140429
3.43092e-10
0.000140429
3.25536e-10
0.000140429
2.51677e-10
0.000140429
1.66259e-10
0.000140429
8.50572e-11
0.000140429
8.0494e-12
0.000140429
-6.71177e-11
0.000140429
-1.41132e-10
0.000140429
-2.14128e-10
0.000140429
-2.83157e-10
0.000140429
-3.48764e-10
0.000140429
-3.97174e-10
0.000140429
-4.39784e-10
0.000140429
-4.21543e-10
0.000140429
-3.98916e-10
-2.09975e-10
0.000144927
-4.35004e-10
0.000144927
-1.96036e-10
0.000144927
-5.48033e-11
0.000144927
2.19954e-11
0.000144927
4.71509e-11
0.000144927
6.67737e-11
0.000144927
8.37076e-11
0.000144927
9.65652e-11
0.000144928
1.06572e-10
0.000144928
1.16013e-10
0.000144928
1.26804e-10
0.000144928
1.3986e-10
0.000144928
1.5505e-10
0.000144928
1.72177e-10
0.000144928
1.91422e-10
0.000144928
2.12648e-10
0.000144928
2.34989e-10
0.000144928
2.57473e-10
0.000144928
2.7939e-10
0.000144928
3.00004e-10
0.000144928
3.18664e-10
0.000144928
3.35026e-10
0.000144928
3.48862e-10
0.000144928
3.6015e-10
0.000144928
3.69227e-10
0.000144928
3.76357e-10
0.000144928
3.81461e-10
0.000144928
3.84455e-10
0.000144928
3.8551e-10
0.000144928
3.85131e-10
0.000144928
3.83894e-10
0.000144928
3.81764e-10
0.000144928
3.78242e-10
0.000144928
3.73312e-10
0.000144928
3.67343e-10
0.000144928
3.60499e-10
0.000144928
3.52609e-10
0.000144928
3.44438e-10
0.000144928
3.34667e-10
0.000144928
3.26194e-10
0.000144928
3.10406e-10
0.000144928
3.08571e-10
0.000144928
3.23704e-10
0.000144928
3.45844e-10
0.000144928
3.54774e-10
0.000144928
3.12546e-10
0.000144928
2.39731e-10
0.000144928
1.59551e-10
0.000144928
8.00423e-11
0.000144928
1.71393e-12
0.000144928
-7.54952e-11
0.000144928
-1.51529e-10
0.000144928
-2.2349e-10
0.000144928
-2.91937e-10
0.000144928
-3.43155e-10
0.000144928
-3.88801e-10
0.000144928
-3.71599e-10
0.000144928
-3.54269e-10
-1.53248e-10
0.000149526
-4.1856e-10
0.000149526
-1.69547e-10
0.000149526
-3.65701e-11
0.000149526
2.77717e-11
0.000149526
4.1584e-11
0.000149526
4.76624e-11
0.000149526
5.26634e-11
0.000149526
5.72088e-11
0.000149526
6.20891e-11
0.000149526
6.85548e-11
0.000149526
7.77405e-11
0.000149526
9.01597e-11
0.000149526
1.05419e-10
0.000149526
1.23057e-10
0.000149526
1.43071e-10
0.000149527
1.65219e-10
0.000149527
1.88582e-10
0.000149527
2.12208e-10
0.000149527
2.35436e-10
0.000149527
2.57527e-10
0.000149527
2.77816e-10
0.000149527
2.95933e-10
0.000149527
3.11623e-10
0.000149527
3.24852e-10
0.000149527
3.35925e-10
0.000149527
3.45096e-10
0.000149527
3.52329e-10
0.000149527
3.57532e-10
0.000149527
3.60801e-10
0.000149527
3.62581e-10
0.000149527
3.63436e-10
0.000149527
3.63396e-10
0.000149527
3.62027e-10
0.000149527
3.59272e-10
0.000149527
3.55452e-10
0.000149527
3.50717e-10
0.000149527
3.44825e-10
0.000149527
3.3849e-10
0.000149527
3.30571e-10
0.000149527
3.23541e-10
0.000149527
3.11673e-10
0.000149527
3.03731e-10
0.000149527
3.11402e-10
0.000149527
3.33505e-10
0.000149527
3.54961e-10
0.000149527
3.42211e-10
0.000149527
2.91959e-10
0.000149527
2.22348e-10
0.000149527
1.46266e-10
0.000149527
6.8245e-11
0.000149527
-9.98027e-12
0.000149527
-8.75912e-11
0.000149527
-1.61497e-10
0.000149527
-2.32101e-10
0.000149527
-2.85754e-10
0.000149527
-3.34089e-10
0.000149526
-3.18421e-10
0.000149526
-3.05972e-10
-9.84986e-11
0.000154228
-4.10647e-10
0.000154228
-1.48296e-10
0.000154227
-1.48357e-11
0.000154227
4.21207e-11
0.000154227
4.73576e-11
0.000154227
4.19519e-11
0.000154227
3.49192e-11
0.000154228
2.93686e-11
0.000154228
2.68509e-11
0.000154228
2.82491e-11
0.000154228
3.408e-11
0.000154228
4.44371e-11
0.000154228
5.86354e-11
0.000154228
7.59099e-11
0.000154228
9.60203e-11
0.000154228
1.18582e-10
0.000154228
1.42592e-10
0.000154228
1.67088e-10
0.000154228
1.91419e-10
0.000154228
2.14828e-10
0.000154228
2.36622e-10
0.000154228
2.56419e-10
0.000154228
2.7394e-10
0.000154228
2.8911e-10
0.000154228
3.02186e-10
0.000154228
3.13424e-10
0.000154228
3.2284e-10
0.000154228
3.30329e-10
0.000154228
3.35895e-10
0.000154228
3.39917e-10
0.000154228
3.42949e-10
0.000154228
3.45077e-10
0.000154228
3.4593e-10
0.000154228
3.45431e-10
0.000154228
3.43857e-10
0.000154228
3.41337e-10
0.000154228
3.37562e-10
0.000154228
3.3315e-10
0.000154228
3.27193e-10
0.000154228
3.21561e-10
0.000154228
3.13325e-10
0.000154228
3.02312e-10
0.000154228
3.02495e-10
0.000154228
3.1848e-10
0.000154229
3.41729e-10
0.000154229
3.48716e-10
0.000154228
3.21869e-10
0.000154228
2.68804e-10
0.000154228
2.01869e-10
0.000154228
1.28289e-10
0.000154228
5.18962e-11
0.000154228
-2.52973e-11
0.000154228
-9.97366e-11
0.000154228
-1.71461e-10
0.000154228
-2.26897e-10
0.000154228
-2.77347e-10
0.000154228
-2.63562e-10
0.000154228
-2.55639e-10
-4.5382e-11
0.000159035
-4.08755e-10
0.000159035
-1.34218e-10
0.000159035
4.32467e-12
0.000159035
5.89967e-11
0.000159035
5.91658e-11
0.000159035
4.5239e-11
0.000159035
2.78242e-11
0.000159035
1.2211e-11
0.000159035
1.28829e-12
0.000159035
-3.77769e-12
0.000159035
-2.72109e-12
0.000159035
4.27285e-12
0.000159035
1.62864e-11
0.000159035
3.22738e-11
0.000159035
5.17343e-11
0.000159035
7.41082e-11
0.000159035
9.82943e-11
0.000159035
1.23297e-10
0.000159035
1.48447e-10
0.000159035
1.7294e-10
0.000159035
1.96043e-10
0.000159035
2.1737e-10
0.000159035
2.36627e-10
0.000159035
2.53676e-10
0.000159035
2.68709e-10
0.000159035
2.81993e-10
0.000159035
2.93595e-10
0.000159035
3.0339e-10
0.000159035
3.11293e-10
0.000159035
3.17611e-10
0.000159035
3.22881e-10
0.000159035
3.27232e-10
0.000159035
3.30348e-10
0.000159036
3.32161e-10
0.000159036
3.32903e-10
0.000159036
3.32668e-10
0.000159036
3.31098e-10
0.000159036
3.28696e-10
0.000159036
3.24786e-10
0.000159036
3.20617e-10
0.000159036
3.15492e-10
0.000159036
3.03877e-10
0.000159036
2.98497e-10
0.000159036
3.06854e-10
0.000159036
3.25698e-10
0.000159036
3.42259e-10
0.000159036
3.34007e-10
0.000159036
2.98743e-10
0.000159035
2.44592e-10
0.000159035
1.79074e-10
0.000159035
1.07428e-10
0.000159035
3.28588e-11
0.000159035
-4.04676e-11
0.000159035
-1.12047e-10
0.000159035
-1.6841e-10
0.000159035
-2.20235e-10
0.000159035
-2.08512e-10
0.000159035
-2.05001e-10
6.20381e-12
0.00016395
-4.10422e-10
0.00016395
-1.26794e-10
0.00016395
1.79933e-11
0.00016395
7.3973e-11
0.00016395
7.24732e-11
0.00016395
5.32232e-11
0.00016395
2.79533e-11
0.00016395
3.61042e-12
0.00016395
-1.55118e-11
0.00016395
-2.75582e-11
0.000163951
-3.21312e-11
0.000163951
-2.94685e-11
0.000163951
-2.05877e-11
0.000163951
-6.72988e-12
0.000163951
1.13593e-11
0.000163951
3.29287e-11
0.000163951
5.67789e-11
0.000163951
8.18801e-11
0.000163951
1.07519e-10
0.000163951
1.32812e-10
0.000163951
1.56979e-10
0.000163951
1.79635e-10
0.000163951
2.00471e-10
0.000163951
2.19278e-10
0.000163951
2.36179e-10
0.000163951
2.51448e-10
0.000163951
2.6519e-10
0.000163951
2.77261e-10
0.000163951
2.87499e-10
0.000163951
2.9614e-10
0.000163951
3.03685e-10
0.000163951
3.10285e-10
0.000163951
3.15684e-10
0.000163951
3.1984e-10
0.000163951
3.22941e-10
0.000163951
3.25028e-10
0.000163951
3.25721e-10
0.000163951
3.2541e-10
0.000163951
3.23612e-10
0.000163951
3.21022e-10
0.000163951
3.18502e-10
0.000163951
3.07875e-10
0.000163951
2.99269e-10
0.000163951
3.009e-10
0.000163951
3.12893e-10
0.000163951
3.31406e-10
0.000163951
3.35026e-10
0.000163951
3.15207e-10
0.000163951
2.7479e-10
0.000163951
2.19584e-10
0.000163951
1.55042e-10
0.000163951
8.51318e-11
0.000163951
1.4559e-11
0.000163951
-5.55431e-11
0.000163951
-1.11877e-10
0.000163951
-1.64266e-10
0.000163951
-1.54637e-10
0.000163951
-1.55696e-10
5.59184e-11
0.000168978
-4.13689e-10
0.000168978
-1.2447e-10
0.000168978
2.54862e-11
0.000168978
8.44914e-11
0.000168978
8.39339e-11
0.000168978
6.22649e-11
0.000168978
3.18867e-11
0.000168978
8.66989e-13
0.000168978
-2.53307e-11
0.000168978
-4.40347e-11
0.000168978
-5.44417e-11
0.000168978
-5.66176e-11
0.000168978
-5.15137e-11
0.000168978
-4.0439e-11
0.000168978
-2.43313e-11
0.000168978
-4.1237e-12
0.000168978
1.89062e-11
0.000168978
4.37007e-11
0.000168978
6.94804e-11
0.000168978
9.52684e-11
0.000168978
1.20233e-10
0.000168978
1.43986e-10
0.000168978
1.66201e-10
0.000168978
1.86601e-10
0.000168978
2.05246e-10
0.000168978
2.22406e-10
0.000168978
2.38204e-10
0.000168979
2.52478e-10
0.000168979
2.65013e-10
0.000168979
2.7597e-10
0.000168979
2.85801e-10
0.000168979
2.94657e-10
0.000168979
3.02339e-10
0.000168979
3.08845e-10
0.000168979
3.14317e-10
0.000168979
3.18736e-10
0.000168979
3.21723e-10
0.000168979
3.23569e-10
0.000168979
3.23934e-10
0.000168979
3.2305e-10
0.000168979
3.22745e-10
0.000168979
3.13969e-10
0.000168979
3.04147e-10
0.000168979
3.00899e-10
0.000168979
3.06032e-10
0.000168979
3.21974e-10
0.000168979
3.31279e-10
0.000168979
3.22744e-10
0.000168979
2.94759e-10
0.000168979
2.50452e-10
0.000168979
1.94394e-10
0.000168978
1.30664e-10
0.000168978
6.42402e-11
0.000168978
-3.15881e-12
0.000168978
-5.8542e-11
0.000168978
-1.10706e-10
0.000168978
-1.03111e-10
0.000168978
-1.09136e-10
1.0312e-10
0.00017412
-4.17175e-10
0.00017412
-1.25487e-10
0.00017412
2.74212e-11
0.00017412
8.95757e-11
0.00017412
9.14893e-11
0.00017412
6.9659e-11
0.00017412
3.66853e-11
0.00017412
1.2635e-12
0.00017412
-3.03431e-11
0.00017412
-5.4733e-11
0.00017412
-7.05728e-11
0.00017412
-7.75982e-11
0.00017412
-7.65434e-11
0.00017412
-6.86446e-11
0.00017412
-5.49506e-11
0.00017412
-3.65369e-11
0.00017412
-1.47256e-11
0.00017412
9.40447e-12
0.00017412
3.49956e-11
0.00017412
6.09796e-11
0.00017412
8.64771e-11
0.00017412
1.11086e-10
0.00017412
1.34461e-10
0.00017412
1.56265e-10
0.00017412
1.76502e-10
0.00017412
1.95433e-10
0.00017412
2.13178e-10
0.00017412
2.29554e-10
0.00017412
2.44315e-10
0.00017412
2.57551e-10
0.00017412
2.69647e-10
0.00017412
2.80746e-10
0.00017412
2.907e-10
0.000174121
2.99542e-10
0.000174121
3.07368e-10
0.000174121
3.14105e-10
0.000174121
3.19396e-10
0.000174121
3.23446e-10
0.000174121
3.26008e-10
0.000174121
3.26947e-10
0.000174121
3.286e-10
0.00017412
3.22049e-10
0.00017412
3.12465e-10
0.00017412
3.06288e-10
0.00017412
3.05816e-10
0.00017412
3.17221e-10
0.00017412
3.27668e-10
0.00017412
3.25994e-10
0.00017412
3.07789e-10
0.00017412
2.73526e-10
0.00017412
2.26228e-10
0.00017412
1.69484e-10
0.00017412
1.08168e-10
0.00017412
4.44333e-11
0.00017412
-9.23057e-12
0.00017412
-6.05038e-11
0.00017412
-5.48665e-11
0.00017412
-6.64449e-11
1.47069e-10
0.000179379
-4.19988e-10
0.000179379
-1.2829e-10
0.000179379
2.50054e-11
0.000179379
8.93501e-11
0.000179379
9.42149e-11
0.000179379
7.36838e-11
0.000179379
4.01259e-11
0.000179379
2.43334e-12
0.000179379
-3.27275e-11
0.000179379
-6.14349e-11
0.000179379
-8.18376e-11
0.000179379
-9.32742e-11
0.000179379
-9.61613e-11
0.000179379
-9.15405e-11
0.000179379
-8.04736e-11
0.000179379
-6.41142e-11
0.000179379
-4.37893e-11
0.00017938
-2.05948e-11
0.00017938
4.53112e-12
0.00017938
3.04462e-11
0.00017938
5.62328e-11
0.00017938
8.14707e-11
0.00017938
1.0579e-10
0.00017938
1.288e-10
0.00017938
1.50463e-10
0.00017938
1.71031e-10
0.00017938
1.90601e-10
0.00017938
2.08965e-10
0.00017938
2.25853e-10
0.00017938
2.41295e-10
0.00017938
2.55611e-10
0.00017938
2.68926e-10
0.00017938
2.81126e-10
0.00017938
2.92268e-10
0.00017938
3.02411e-10
0.00017938
3.11437e-10
0.00017938
3.19021e-10
0.00017938
3.25297e-10
0.00017938
3.30073e-10
0.00017938
3.32934e-10
0.00017938
3.36394e-10
0.00017938
3.32169e-10
0.00017938
3.23747e-10
0.00017938
3.16295e-10
0.00017938
3.11907e-10
0.00017938
3.18525e-10
0.00017938
3.27372e-10
0.00017938
3.28832e-10
0.00017938
3.17322e-10
0.00017938
2.91296e-10
0.00017938
2.52077e-10
0.00017938
2.02367e-10
0.00017938
1.46583e-10
0.00017938
8.70976e-11
0.00017938
3.56671e-11
0.00017938
-1.42514e-11
0.00017938
-1.05576e-11
0.000179379
-2.84265e-11
1.87097e-10
0.000184759
-4.21594e-10
0.000184759
-1.31662e-10
0.000184759
1.95763e-11
0.000184759
8.45689e-11
0.000184759
9.20398e-11
0.000184759
7.34955e-11
0.000184759
4.0755e-11
0.000184759
2.5548e-12
0.000184759
-3.43944e-11
0.000184759
-6.59036e-11
0.000184759
-8.97099e-11
0.000184759
-1.04774e-10
0.000184759
-1.11163e-10
0.000184759
-1.0964e-10
0.000184759
-1.01181e-10
0.000184759
-8.69416e-11
0.000184759
-6.82157e-11
0.000184759
-4.61159e-11
0.000184759
-2.16511e-11
0.000184759
3.98904e-12
0.000184759
2.98626e-11
0.000184759
5.55334e-11
0.000184759
8.06064e-11
0.000184759
1.04638e-10
0.000184759
1.2756e-10
0.000184759
1.49625e-10
0.000184759
1.70897e-10
0.00018476
1.91128e-10
0.00018476
2.10025e-10
0.00018476
2.27572e-10
0.00018476
2.44038e-10
0.00018476
2.5953e-10
0.00018476
2.73941e-10
0.00018476
2.87331e-10
0.00018476
2.99735e-10
0.00018476
3.11013e-10
0.00018476
3.20863e-10
0.00018476
3.29356e-10
0.00018476
3.36346e-10
0.00018476
3.41205e-10
0.00018476
3.46396e-10
0.00018476
3.44457e-10
0.00018476
3.3772e-10
0.00018476
3.30233e-10
0.000184759
3.23571e-10
0.000184759
3.26084e-10
0.000184759
3.32084e-10
0.000184759
3.34028e-10
0.000184759
3.26364e-10
0.000184759
3.06368e-10
0.000184759
2.73891e-10
0.000184759
2.30614e-10
0.000184759
1.80246e-10
0.000184759
1.25173e-10
0.000184759
7.61757e-11
0.000184759
2.78152e-11
0.000184759
2.94547e-11
0.000184759
4.42919e-12
2.22707e-10
0.000190262
-4.21688e-10
0.000190262
-1.34722e-10
0.000190262
1.23524e-11
0.000190262
7.62517e-11
0.000190262
8.54437e-11
0.000190262
6.89395e-11
0.000190262
3.78216e-11
0.000190262
4.07365e-13
0.000190262
-3.68346e-11
0.000190262
-6.96865e-11
0.000190262
-9.56283e-11
0.000190262
-1.13325e-10
0.000190262
-1.22522e-10
0.000190262
-1.23674e-10
0.000190262
-1.17587e-10
0.000190262
-1.05337e-10
0.000190262
-8.81627e-11
0.000190262
-6.71924e-11
0.000190262
-4.34861e-11
0.000190262
-1.8249e-11
0.000190262
7.56866e-12
0.000190262
3.35237e-11
0.000190262
5.91998e-11
0.000190262
8.41014e-11
0.000190262
1.08136e-10
0.000190262
1.31562e-10
0.000190262
1.54414e-10
0.000190262
1.76394e-10
0.000190262
1.97169e-10
0.000190262
2.16698e-10
0.000190263
2.35229e-10
0.000190263
2.52847e-10
0.000190263
2.69422e-10
0.000190263
2.84996e-10
0.000190263
2.996e-10
0.000190263
3.13086e-10
0.000190263
3.25158e-10
0.000190263
3.35835e-10
0.000190262
3.45021e-10
0.000190262
3.51926e-10
0.000190262
3.58813e-10
0.000190262
3.59067e-10
0.000190262
3.54274e-10
0.000190262
3.47598e-10
0.000190262
3.40021e-10
0.000190262
3.39487e-10
0.000190262
3.42417e-10
0.000190262
3.43263e-10
0.000190262
3.37196e-10
0.000190262
3.21069e-10
0.000190262
2.93687e-10
0.000190262
2.55793e-10
0.000190262
2.1027e-10
0.000190262
1.59365e-10
0.000190262
1.12669e-10
0.000190262
6.5785e-11
0.000190262
6.5091e-11
0.000190262
3.1928e-11
2.53629e-10
0.000195891
-4.20107e-10
0.000195891
-1.36876e-10
0.000195891
4.33017e-12
0.000195891
6.54444e-11
0.000195891
7.51959e-11
0.000195891
6.03369e-11
0.000195891
3.11429e-11
0.000195891
-4.66765e-12
0.000195891
-4.10674e-11
0.000195891
-7.40009e-11
0.000195891
-1.00852e-10
0.000195891
-1.20106e-10
0.000195891
-1.31265e-10
0.000195891
-1.34489e-10
0.000195891
-1.30352e-10
0.000195891
-1.19788e-10
0.000195891
-1.03969e-10
0.000195891
-8.40407e-11
0.000195891
-6.10843e-11
0.000195891
-3.6289e-11
0.000195891
-1.05972e-11
0.000195892
1.55526e-11
0.000195892
4.1733e-11
0.000195892
6.74006e-11
0.000195892
9.24334e-11
0.000195892
1.17095e-10
0.000195892
1.41413e-10
0.000195892
1.65027e-10
0.000195892
1.87549e-10
0.000195892
2.0893e-10
0.000195892
2.2943e-10
0.000195892
2.49114e-10
0.000195892
2.67802e-10
0.000195892
2.85491e-10
0.000195892
3.02227e-10
0.000195892
3.17869e-10
0.000195892
3.32105e-10
0.000195892
3.44915e-10
0.000195892
3.5626e-10
0.000195892
3.65226e-10
0.000195892
3.73792e-10
0.000195892
3.76141e-10
0.000195892
3.73395e-10
0.000195892
3.6806e-10
0.000195891
3.60576e-10
0.000195891
3.58079e-10
0.000195891
3.58307e-10
0.000195891
3.57338e-10
0.000195891
3.5132e-10
0.000195891
3.3723e-10
0.000195891
3.13286e-10
0.000195891
2.795e-10
0.000195891
2.37929e-10
0.000195891
1.90609e-10
0.000195891
1.45779e-10
0.000195891
1.00014e-10
0.000195891
9.65206e-11
0.000195891
5.41381e-11
2.79819e-10
0.000201649
-4.16768e-10
0.00020165
-1.37738e-10
0.00020165
-3.73285e-12
0.00020165
5.30862e-11
0.00020165
6.21626e-11
0.00020165
4.82902e-11
0.00020165
2.09442e-11
0.00020165
-1.28635e-11
0.00020165
-4.76634e-11
0.00020165
-7.96908e-11
0.00020165
-1.06377e-10
0.00020165
-1.26147e-10
0.00020165
-1.38367e-10
0.00020165
-1.42952e-10
0.00020165
-1.40208e-10
0.00020165
-1.30888e-10
0.00020165
-1.16103e-10
0.00020165
-9.70165e-11
0.00020165
-7.46982e-11
0.00020165
-5.02919e-11
0.00020165
-2.47184e-11
0.00020165
1.60305e-12
0.00020165
2.8249e-11
0.00020165
5.46342e-11
0.00020165
8.0592e-11
0.00020165
1.06388e-10
0.00020165
1.32063e-10
0.00020165
1.57207e-10
0.00020165
1.81355e-10
0.00020165
2.04464e-10
0.00020165
2.26831e-10
0.00020165
2.48513e-10
0.00020165
2.69257e-10
0.00020165
2.88999e-10
0.00020165
3.07799e-10
0.00020165
3.25531e-10
0.00020165
3.41859e-10
0.00020165
3.56738e-10
0.00020165
3.70189e-10
0.00020165
3.81199e-10
0.00020165
3.9143e-10
0.00020165
3.95789e-10
0.00020165
3.95106e-10
0.00020165
3.9141e-10
0.00020165
3.84708e-10
0.00020165
3.81187e-10
0.00020165
3.79338e-10
0.00020165
3.76427e-10
0.00020165
3.69553e-10
0.00020165
3.56123e-10
0.000201649
3.34153e-10
0.000201649
3.03171e-10
0.000201649
2.64493e-10
0.000201649
2.19928e-10
0.000201649
1.76285e-10
0.000201649
1.31048e-10
0.000201649
1.24113e-10
0.000201649
7.13465e-11
3.01449e-10
0.00020754
-4.11629e-10
0.00020754
-1.37073e-10
0.00020754
-1.12911e-11
0.00020754
3.99544e-11
0.00020754
4.71838e-11
0.00020754
3.35282e-11
0.00020754
7.70535e-12
0.00020754
-2.40289e-11
0.00020754
-5.68111e-11
0.00020754
-8.72386e-11
0.00020754
-1.12896e-10
0.00020754
-1.3226e-10
0.00020754
-1.44667e-10
0.00020754
-1.49863e-10
0.00020754
-1.4788e-10
0.00020754
-1.39274e-10
0.00020754
-1.2511e-10
0.00020754
-1.06568e-10
0.00020754
-8.46823e-11
0.00020754
-6.05288e-11
0.00020754
-3.49907e-11
0.00020754
-8.45175e-12
0.00020754
1.86834e-11
0.00020754
4.57925e-11
0.00020754
7.26469e-11
0.00020754
9.95036e-11
0.00020754
1.26444e-10
0.00020754
1.53025e-10
0.00020754
1.78698e-10
0.00020754
2.03427e-10
0.00020754
2.27566e-10
0.00020754
2.5117e-10
0.00020754
2.73915e-10
0.00020754
2.95654e-10
0.00020754
3.1645e-10
0.00020754
3.36192e-10
0.00020754
3.5453e-10
0.00020754
3.71409e-10
0.00020754
3.86894e-10
0.00020754
3.99904e-10
0.00020754
4.11781e-10
0.00020754
4.18079e-10
0.00020754
4.19431e-10
0.00020754
4.17511e-10
0.00020754
4.12022e-10
0.00020754
4.08212e-10
0.00020754
4.04958e-10
0.00020754
4.0032e-10
0.00020754
3.92185e-10
0.00020754
3.78499e-10
0.00020754
3.57334e-10
0.00020754
3.27967e-10
0.00020754
2.91087e-10
0.000207539
2.48314e-10
0.000207539
2.05019e-10
0.000207539
1.59541e-10
0.000207539
1.48376e-10
0.000207539
8.40098e-11
3.18866e-10
0.000213565
-4.04674e-10
0.000213565
-1.34741e-10
0.000213565
-1.79676e-11
0.000213565
2.6659e-11
0.000213565
3.10085e-11
0.000213565
1.67953e-11
0.000213565
-7.9695e-12
0.000213565
-3.77883e-11
0.000213565
-6.84059e-11
0.000213565
-9.68116e-11
0.000213565
-1.20812e-10
0.000213565
-1.39015e-10
0.000213565
-1.50827e-10
0.000213565
-1.55902e-10
0.000213565
-1.54029e-10
0.000213565
-1.45569e-10
0.000213565
-1.31559e-10
0.000213565
-1.13192e-10
0.000213565
-9.14552e-11
0.000213565
-6.73482e-11
0.000213565
-4.1695e-11
0.000213565
-1.48268e-11
0.000213565
1.28788e-11
0.000213565
4.07658e-11
0.000213565
6.85306e-11
0.000213565
9.64117e-11
0.000213565
1.2455e-10
0.000213565
1.52492e-10
0.000213565
1.79613e-10
0.000213565
2.05882e-10
0.000213565
2.31709e-10
0.000213565
2.57157e-10
0.000213565
2.81845e-10
0.000213565
3.05531e-10
0.000213565
3.28258e-10
0.000213565
3.49923e-10
0.000213565
3.70183e-10
0.000213565
3.88984e-10
0.000213565
4.06418e-10
0.000213565
4.21358e-10
0.000213565
4.34858e-10
0.000213565
4.43031e-10
0.000213565
4.4636e-10
0.000213565
4.46255e-10
0.000213565
4.42226e-10
0.000213565
4.38658e-10
0.000213565
4.346e-10
0.000213565
4.28607e-10
0.000213565
4.19147e-10
0.000213565
4.04679e-10
0.000213565
3.8347e-10
0.000213564
3.5472e-10
0.000213564
3.18608e-10
0.000213564
2.76628e-10
0.000213564
2.32769e-10
0.000213564
1.86181e-10
0.000213564
1.69897e-10
0.000213564
9.27005e-11
3.32549e-10
0.000219728
-3.95907e-10
0.000219728
-1.30666e-10
0.000219728
-2.3509e-11
0.000219728
1.36641e-11
0.000219728
1.42697e-11
0.000219728
-1.21827e-12
0.000219728
-2.54477e-11
0.000219728
-5.36442e-11
0.000219728
-8.21403e-11
0.000219728
-1.08327e-10
0.000219728
-1.30265e-10
0.000219728
-1.46744e-10
0.000219728
-1.57306e-10
0.000219728
-1.61592e-10
0.000219728
-1.59204e-10
0.000219728
-1.50338e-10
0.000219728
-1.36001e-10
0.000219728
-1.17394e-10
0.000219728
-9.54659e-11
0.000219728
-7.11447e-11
0.000219728
-4.51685e-11
0.000219728
-1.78027e-11
0.000219728
1.06014e-11
0.000219728
3.93574e-11
0.000219728
6.80842e-11
0.000219728
9.69948e-11
0.000219728
1.26295e-10
0.000219728
1.55546e-10
0.000219728
1.84068e-10
0.000219728
2.11828e-10
0.000219728
2.39277e-10
0.000219728
2.66493e-10
0.000219728
2.93057e-10
0.000219728
3.18641e-10
0.000219728
3.43235e-10
0.000219728
3.6674e-10
0.000219728
3.88837e-10
0.000219728
4.09477e-10
0.000219728
4.28759e-10
0.000219728
4.45543e-10
0.000219728
4.60633e-10
0.000219728
4.70615e-10
0.000219728
4.75846e-10
0.000219728
4.77536e-10
0.000219728
4.75087e-10
0.000219727
4.72121e-10
0.000219727
4.67744e-10
0.000219727
4.60803e-10
0.000219727
4.50152e-10
0.000219727
4.34668e-10
0.000219727
4.12851e-10
0.000219727
3.83933e-10
0.000219727
3.47684e-10
0.000219727
3.05551e-10
0.000219727
2.60225e-10
0.000219727
2.11616e-10
0.000219727
1.89276e-10
0.000219727
9.80504e-11
3.43057e-10
0.000226031
-3.85348e-10
0.000226031
-1.24816e-10
0.000226031
-2.77465e-11
0.000226031
1.3179e-12
0.000226031
-2.51938e-12
0.000226031
-1.99122e-11
0.000226031
-4.41267e-11
0.000226031
-7.10539e-11
0.000226032
-9.75879e-11
0.000226032
-1.21525e-10
0.000226032
-1.41191e-10
0.000226032
-1.5557e-10
0.000226032
-1.64371e-10
0.000226032
-1.67289e-10
0.000226032
-1.63824e-10
0.000226032
-1.54051e-10
0.000226032
-1.38929e-10
0.000226032
-1.19653e-10
0.000226032
-9.71649e-11
0.000226032
-7.23299e-11
0.000226032
-4.57786e-11
0.000226032
-1.77039e-11
0.000226032
1.15604e-11
0.000226032
4.1303e-11
0.000226032
7.1074e-11
0.000226032
1.0106e-10
0.000226032
1.31526e-10
0.000226032
1.62062e-10
0.000226032
1.91965e-10
0.000226032
2.212e-10
0.000226032
2.50229e-10
0.000226032
2.79141e-10
0.000226031
3.07506e-10
0.000226031
3.34926e-10
0.000226031
3.61328e-10
0.000226031
3.86602e-10
0.000226031
4.10463e-10
0.000226031
4.32855e-10
0.000226031
4.5387e-10
0.000226031
4.72401e-10
0.000226031
4.89038e-10
0.000226031
5.00759e-10
0.000226031
5.07805e-10
0.000226031
5.11234e-10
0.000226031
5.10402e-10
0.000226031
5.08263e-10
0.000226031
5.03932e-10
0.000226031
4.96415e-10
0.000226031
4.84795e-10
0.000226031
4.68249e-10
0.000226031
4.45485e-10
0.000226031
4.15818e-10
0.000226031
3.78687e-10
0.000226031
3.35562e-10
0.000226031
2.87932e-10
0.000226031
2.36405e-10
0.000226031
2.0707e-10
0.000226031
1.00696e-10
3.5098e-10
0.000232479
-3.73039e-10
0.000232479
-1.1719e-10
0.000232479
-3.05669e-11
0.000232479
-1.01202e-11
0.000232479
-1.89568e-11
0.000232479
-3.87855e-11
0.000232479
-6.34615e-11
0.000232479
-8.94798e-11
0.000232479
-1.14271e-10
0.000232479
-1.36038e-10
0.000232479
-1.53372e-10
0.000232479
-1.65441e-10
0.000232479
-1.72114e-10
0.000232479
-1.73192e-10
0.000232479
-1.68173e-10
0.000232479
-1.57062e-10
0.000232479
-1.40747e-10
0.000232479
-1.20399e-10
0.000232479
-9.69781e-11
0.000232479
-7.13081e-11
0.000232479
-4.39006e-11
0.000232479
-1.48796e-11
0.000232479
1.54273e-11
0.000232479
4.62902e-11
0.000232479
7.72112e-11
0.000232479
1.08357e-10
0.000232479
1.4003e-10
0.000232479
1.7186e-10
0.000232479
2.03152e-10
0.000232479
2.33874e-10
0.000232479
2.64467e-10
0.000232479
2.95013e-10
0.000232479
3.25089e-10
0.000232479
3.54266e-10
0.000232479
3.8242e-10
0.000232479
4.09415e-10
0.000232479
4.34982e-10
0.000232479
4.59035e-10
0.000232479
4.81663e-10
0.000232479
5.01839e-10
0.000232479
5.19969e-10
0.000232479
5.3335e-10
0.000232479
5.42116e-10
0.000232479
5.47208e-10
0.000232479
5.4797e-10
0.000232479
5.46787e-10
0.000232479
5.42761e-10
0.000232479
5.34972e-10
0.000232479
5.22617e-10
0.000232478
5.05067e-10
0.000232478
4.81179e-10
0.000232478
4.50355e-10
0.000232478
4.11764e-10
0.000232478
3.66945e-10
0.000232478
3.16273e-10
0.000232478
2.60981e-10
0.000232478
2.23752e-10
0.000232478
1.01227e-10
3.56895e-10
0.000239073
-3.59038e-10
0.000239073
-1.07811e-10
0.000239073
-3.18938e-11
0.000239073
-2.04579e-11
0.000239073
-3.47343e-11
0.000239073
-5.74288e-11
0.000239073
-8.29731e-11
0.000239073
-1.0842e-10
0.000239073
-1.3171e-10
0.000239073
-1.51449e-10
0.000239073
-1.66492e-10
0.000239073
-1.76172e-10
0.000239074
-1.80487e-10
0.000239074
-1.7937e-10
0.000239074
-1.72413e-10
0.000239074
-1.59609e-10
0.000239074
-1.4176e-10
0.000239074
-1.19986e-10
0.000239074
-9.52829e-11
0.000239074
-6.84527e-11
0.000239074
-3.98977e-11
0.000239074
-9.68418e-12
0.000239073
2.18542e-11
0.000239073
5.39786e-11
0.000239073
8.61735e-11
0.000239073
1.18594e-10
0.000239073
1.51552e-10
0.000239073
1.84711e-10
0.000239073
2.17427e-10
0.000239073
2.49668e-10
0.000239073
2.81826e-10
0.000239073
3.13957e-10
0.000239073
3.45652e-10
0.000239073
3.76495e-10
0.000239073
4.06346e-10
0.000239073
4.35029e-10
0.000239073
4.62252e-10
0.000239073
4.87881e-10
0.000239073
5.12009e-10
0.000239073
5.33728e-10
0.000239073
5.53291e-10
0.000239073
5.68246e-10
0.000239073
5.78628e-10
0.000239073
5.85284e-10
0.000239073
5.87581e-10
0.000239073
5.87414e-10
0.000239073
5.83864e-10
0.000239073
5.76029e-10
0.000239073
5.63147e-10
0.000239073
5.44692e-10
0.000239073
5.19601e-10
0.000239073
4.8735e-10
0.000239073
4.46878e-10
0.000239073
3.99807e-10
0.000239073
3.45469e-10
0.000239073
2.85637e-10
0.000239073
2.39677e-10
0.000239073
1.00159e-10
3.61333e-10
0.000245818
-3.43422e-10
0.000245818
-9.67212e-11
0.000245818
-3.16772e-11
0.000245818
-2.95496e-11
0.000245818
-4.96132e-11
0.000245818
-7.55071e-11
0.000245818
-1.02247e-10
0.000245818
-1.27424e-10
0.000245818
-1.49457e-10
0.000245818
-1.67337e-10
0.000245818
-1.80188e-10
0.000245818
-1.87494e-10
0.000245818
-1.89338e-10
0.000245818
-1.85789e-10
0.000245818
-1.76603e-10
0.000245818
-1.61826e-10
0.000245818
-1.42168e-10
0.000245818
-1.18682e-10
0.000245818
-9.23885e-11
0.000245818
-6.40882e-11
0.000245818
-3.41026e-11
0.000245818
-2.4611e-12
0.000245818
3.04904e-11
0.000245818
6.40188e-11
0.000245818
9.76241e-11
0.000245818
1.31456e-10
0.000245818
1.65802e-10
0.000245818
2.00353e-10
0.000245818
2.34545e-10
0.000245818
2.68348e-10
0.000245818
3.02083e-10
0.000245818