/*--------------------------------*- C++ -*----------------------------------*\
  =========                 |
  \\      /  F ield         | OpenFOAM: The Open Source CFD Toolbox
   \\    /   O peration     | Website:  https://openfoam.org
    \\  /    A nd           | Version:  7
     \\/     M anipulation  |
\*---------------------------------------------------------------------------*/
FoamFile
{
    version     2.0;
    format      ascii;
    class       volVectorField;
    location    "19000";
    object      U;
}
// * * * * * * * * * * * * * * * * * * * * * * * * * * * * * * * * * * * * * //

dimensions      [0 1 -1 0 0 0 0];

internalField   nonuniform List<vector> 
3974
(
(0.123235 2.24738e-08 2.46271e-14)
(0.123235 2.60944e-08 2.46713e-14)
(0.123235 2.76899e-08 2.46155e-14)
(0.123235 2.85927e-08 2.46735e-14)
(0.123235 2.91478e-08 2.46191e-14)
(0.123235 2.96294e-08 2.46291e-14)
(0.123235 3.02263e-08 2.45889e-14)
(0.123235 3.10172e-08 2.45171e-14)
(0.123235 3.20072e-08 2.45633e-14)
(0.123235 3.32015e-08 2.44622e-14)
(0.123235 3.46305e-08 2.45433e-14)
(0.123235 3.62959e-08 2.45142e-14)
(0.123235 3.81076e-08 2.44132e-14)
(0.123235 3.99254e-08 2.45148e-14)
(0.123235 4.16492e-08 2.44442e-14)
(0.123236 4.3208e-08 2.4501e-14)
(0.123236 4.45437e-08 2.44858e-14)
(0.123236 4.56356e-08 2.44388e-14)
(0.123236 4.64616e-08 2.4502e-14)
(0.123236 4.70033e-08 2.44057e-14)
(0.123236 4.73035e-08 2.44403e-14)
(0.123236 4.74012e-08 2.44011e-14)
(0.123236 4.72788e-08 2.43551e-14)
(0.123236 4.69296e-08 2.44167e-14)
(0.123236 4.6384e-08 2.43579e-14)
(0.123236 4.57003e-08 2.44322e-14)
(0.123236 4.49394e-08 2.44123e-14)
(0.123236 4.40834e-08 2.43618e-14)
(0.123236 4.30707e-08 2.44293e-14)
(0.123236 4.19221e-08 2.43389e-14)
(0.123236 4.06912e-08 2.43842e-14)
(0.123236 3.93931e-08 2.44242e-14)
(0.123236 3.80211e-08 2.43351e-14)
(0.123236 3.6624e-08 2.44224e-14)
(0.123236 3.51118e-08 2.44541e-14)
(0.123236 3.35152e-08 2.43596e-14)
(0.123236 3.1527e-08 2.4416e-14)
(0.123236 2.97245e-08 2.4315e-14)
(0.124328 -2.69694e-09 2.51107e-14)
(0.124328 8.81042e-09 2.50437e-14)
(0.124328 1.52598e-08 2.50663e-14)
(0.124328 1.89951e-08 2.51078e-14)
(0.124328 2.15667e-08 2.50285e-14)
(0.124328 2.31092e-08 2.50868e-14)
(0.124328 2.40555e-08 2.50197e-14)
(0.124328 2.48127e-08 2.50536e-14)
(0.124328 2.56321e-08 2.50498e-14)
(0.124328 2.66186e-08 2.49454e-14)
(0.124328 2.77821e-08 2.49671e-14)
(0.124328 2.91297e-08 2.48986e-14)
(0.124328 3.06957e-08 2.49488e-14)
(0.124329 3.24809e-08 2.49581e-14)
(0.124329 3.43987e-08 2.48728e-14)
(0.124329 3.63235e-08 2.49158e-14)
(0.124329 3.81646e-08 2.48756e-14)
(0.124329 3.98487e-08 2.49164e-14)
(0.124329 4.1314e-08 2.49289e-14)
(0.124329 4.25365e-08 2.48481e-14)
(0.124329 4.34969e-08 2.48983e-14)
(0.124329 4.41822e-08 2.4837e-14)
(0.124329 4.4631e-08 2.48404e-14)
(0.124329 4.48795e-08 2.48406e-14)
(0.124329 4.49137e-08 2.47615e-14)
(0.124329 4.4725e-08 2.48057e-14)
(0.124329 4.434e-08 2.4789e-14)
(0.124329 4.38177e-08 2.48364e-14)
(0.124329 4.322e-08 2.48446e-14)
(0.124329 4.25315e-08 2.47564e-14)
(0.124329 4.16894e-08 2.48113e-14)
(0.124329 4.07064e-08 2.47544e-14)
(0.124329 3.96326e-08 2.478e-14)
(0.124329 3.84862e-08 2.48269e-14)
(0.124329 3.72616e-08 2.4789e-14)
(0.124329 3.60206e-08 2.48241e-14)
(0.124329 3.46422e-08 2.48543e-14)
(0.124329 3.33097e-08 2.48026e-14)
(0.124329 3.11661e-08 2.48212e-14)
(0.124329 3.15591e-08 2.4765e-14)
(0.124329 3.14229e-08 2.47859e-14)
(0.124329 2.67609e-08 2.4821e-14)
(0.125388 -4.77814e-08 2.55892e-14)
(0.125388 -2.23743e-08 2.54841e-14)
(0.125388 -4.79587e-09 2.55116e-14)
(0.125388 4.14111e-09 2.55453e-14)
(0.125388 8.50684e-09 2.55102e-14)
(0.125388 1.25594e-08 2.55418e-14)
(0.125388 1.54802e-08 2.5454e-14)
(0.125389 1.73127e-08 2.55036e-14)
(0.125389 1.85138e-08 2.54404e-14)
(0.125389 1.94904e-08 2.54897e-14)
(0.125389 2.05086e-08 2.54986e-14)
(0.125389 2.16862e-08 2.5365e-14)
(0.125389 2.30323e-08 2.5383e-14)
(0.125389 2.45508e-08 2.53055e-14)
(0.125389 2.62751e-08 2.53668e-14)
(0.125389 2.82019e-08 2.53913e-14)
(0.125389 3.02468e-08 2.52779e-14)
(0.125389 3.22994e-08 2.53251e-14)
(0.125389 3.42779e-08 2.52761e-14)
(0.125389 3.6108e-08 2.53365e-14)
(0.125389 3.77262e-08 2.53626e-14)
(0.125389 3.91039e-08 2.52441e-14)
(0.125389 4.02217e-08 2.53025e-14)
(0.125389 4.10731e-08 2.52217e-14)
(0.125389 4.16943e-08 2.52489e-14)
(0.125389 4.21168e-08 2.52694e-14)
(0.125389 4.23286e-08 2.51602e-14)
(0.125389 4.23213e-08 2.5204e-14)
(0.125389 4.21188e-08 2.51795e-14)
(0.125389 4.17783e-08 2.52435e-14)
(0.125389 4.13602e-08 2.52648e-14)
(0.125389 4.08526e-08 2.51483e-14)
(0.125389 4.01965e-08 2.5203e-14)
(0.125389 3.93981e-08 2.51423e-14)
(0.125389 3.85023e-08 2.519e-14)
(0.125389 3.75273e-08 2.52369e-14)
(0.125389 3.64648e-08 2.52238e-14)
(0.125389 3.53877e-08 2.52307e-14)
(0.125389 3.41576e-08 2.52475e-14)
(0.125389 3.30537e-08 2.52232e-14)
(0.125389 3.09699e-08 2.52271e-14)
(0.125389 3.21713e-08 2.51978e-14)
(0.125389 3.39159e-08 2.51929e-14)
(0.125389 3.28037e-08 2.52132e-14)
(0.125389 2.91229e-08 2.52022e-14)
(0.125389 2.10102e-08 2.52157e-14)
(0.125389 1.25275e-08 2.51941e-14)
(0.125389 4.64873e-09 2.52022e-14)
(0.125389 -2.80677e-09 2.52253e-14)
(0.125389 -1.01036e-08 2.52094e-14)
(0.125389 -1.73072e-08 2.5226e-14)
(0.125389 -2.44301e-08 2.52148e-14)
(0.125389 -3.11711e-08 2.52344e-14)
(0.125389 -3.75805e-08 2.52676e-14)
(0.125389 -4.22776e-08 2.52546e-14)
(0.125389 -4.63832e-08 2.52697e-14)
(0.125389 -4.4523e-08 2.52517e-14)
(0.125389 -4.1987e-08 2.52702e-14)
(0.125389 -2.39728e-08 2.52952e-14)
(0.126418 -4.46084e-08 2.60048e-14)
(0.126418 -2.10158e-08 2.58361e-14)
(0.126418 -6.19517e-09 2.59236e-14)
(0.126418 2.17975e-09 2.59439e-14)
(0.126418 5.28943e-09 2.59464e-14)
(0.126418 8.02617e-09 2.59744e-14)
(0.126418 1.02867e-08 2.58169e-14)
(0.126418 1.19025e-08 2.59281e-14)
(0.126418 1.30773e-08 2.58052e-14)
(0.126418 1.41059e-08 2.59367e-14)
(0.126418 1.52167e-08 2.59362e-14)
(0.126418 1.65173e-08 2.57651e-14)
(0.126418 1.80055e-08 2.58117e-14)
(0.126418 1.96724e-08 2.57128e-14)
(0.126418 2.15436e-08 2.57962e-14)
(0.126418 2.36096e-08 2.58156e-14)
(0.126418 2.57858e-08 2.56371e-14)
(0.126418 2.79722e-08 2.57396e-14)
(0.126418 3.00952e-08 2.56655e-14)
(0.126418 3.20806e-08 2.57696e-14)
(0.126418 3.38641e-08 2.57874e-14)
(0.126419 3.54128e-08 2.55988e-14)
(0.126419 3.67054e-08 2.57132e-14)
(0.126419 3.77391e-08 2.5614e-14)
(0.126419 3.85489e-08 2.56709e-14)
(0.126419 3.91622e-08 2.56903e-14)
(0.126419 3.95696e-08 2.55497e-14)
(0.126419 3.97626e-08 2.56111e-14)
(0.126419 3.97613e-08 2.55604e-14)
(0.126419 3.9619e-08 2.56623e-14)
(0.126419 3.93941e-08 2.56773e-14)
(0.126419 3.90801e-08 2.55331e-14)
(0.126419 3.86236e-08 2.56042e-14)
(0.126419 3.80255e-08 2.54885e-14)
(0.126419 3.73251e-08 2.56129e-14)
(0.126419 3.65395e-08 2.56513e-14)
(0.126419 3.56552e-08 2.56442e-14)
(0.126419 3.47493e-08 2.56329e-14)
(0.126419 3.36836e-08 2.56369e-14)
(0.126419 3.27615e-08 2.56295e-14)
(0.126419 3.09836e-08 2.56284e-14)
(0.126419 3.12892e-08 2.56175e-14)
(0.126419 3.31434e-08 2.55971e-14)
(0.126419 3.51292e-08 2.56036e-14)
(0.126419 3.49791e-08 2.56079e-14)
(0.126419 2.89343e-08 2.56162e-14)
(0.126419 2.07372e-08 2.56115e-14)
(0.126419 1.2463e-08 2.56033e-14)
(0.126419 4.51627e-09 2.5617e-14)
(0.126419 -3.22894e-09 2.56152e-14)
(0.126418 -1.08345e-08 2.5624e-14)
(0.126418 -1.8316e-08 2.56294e-14)
(0.126418 -2.53856e-08 2.56346e-14)
(0.126418 -3.21023e-08 2.56557e-14)
(0.126418 -3.70913e-08 2.56591e-14)
(0.126418 -4.15115e-08 2.56697e-14)
(0.126418 -3.97279e-08 2.56659e-14)
(0.126418 -3.77364e-08 2.56749e-14)
(0.126418 -1.81278e-08 2.56901e-14)
(0.127418 -4.24635e-08 2.64091e-14)
(0.127418 -1.82546e-08 2.63313e-14)
(0.127418 -4.80074e-09 2.63533e-14)
(0.127418 2.19837e-09 2.63539e-14)
(0.127418 4.08758e-09 2.63841e-14)
(0.127418 5.34108e-09 2.64072e-14)
(0.127418 6.4656e-09 2.63242e-14)
(0.127418 7.39679e-09 2.63658e-14)
(0.127418 8.2039e-09 2.63139e-14)
(0.127418 9.05182e-09 2.64094e-14)
(0.127418 1.00926e-08 2.63559e-14)
(0.127418 1.13996e-08 2.62265e-14)
(0.127418 1.2948e-08 2.62609e-14)
(0.127418 1.47062e-08 2.61747e-14)
(0.127418 1.66844e-08 2.62535e-14)
(0.127418 1.88644e-08 2.62231e-14)
(0.127418 2.11578e-08 2.61253e-14)
(0.127418 2.34694e-08 2.61714e-14)
(0.127418 2.57314e-08 2.61211e-14)
(0.127418 2.78704e-08 2.62379e-14)
(0.127418 2.98207e-08 2.61966e-14)
(0.127418 3.15466e-08 2.60839e-14)
(0.127418 3.30237e-08 2.61413e-14)
(0.127418 3.42498e-08 2.60686e-14)
(0.127419 3.52575e-08 2.61217e-14)
(0.127419 3.60725e-08 2.6096e-14)
(0.127419 3.66886e-08 2.59999e-14)
(0.127419 3.70973e-08 2.60349e-14)
(0.127419 3.73121e-08 2.60121e-14)
(0.127419 3.7381e-08 2.61034e-14)
(0.127419 3.73607e-08 2.60752e-14)
(0.127419 3.72512e-08 2.59711e-14)
(0.127419 3.70058e-08 2.60248e-14)
(0.127419 3.66205e-08 2.59757e-14)
(0.127419 3.61296e-08 2.6063e-14)
(0.127419 3.55488e-08 2.60635e-14)
(0.127419 3.48577e-08 2.60526e-14)
(0.127419 3.41313e-08 2.60239e-14)
(0.127419 3.32448e-08 2.60217e-14)
(0.127419 3.24732e-08 2.60274e-14)
(0.127419 3.10913e-08 2.6024e-14)
(0.127419 3.05534e-08 2.60281e-14)
(0.127419 3.17409e-08 2.59966e-14)
(0.127419 3.42315e-08 2.59919e-14)
(0.127419 3.6056e-08 2.60081e-14)
(0.127419 3.34052e-08 2.60129e-14)
(0.127419 2.71416e-08 2.60212e-14)
(0.127419 1.94799e-08 2.59899e-14)
(0.127419 1.15619e-08 2.60052e-14)
(0.127419 3.65025e-09 2.6015e-14)
(0.127419 -4.18525e-09 2.60189e-14)
(0.127418 -1.19121e-08 2.60374e-14)
(0.127418 -1.92369e-08 2.6031e-14)
(0.127418 -2.62126e-08 2.60429e-14)
(0.127418 -3.14708e-08 2.60586e-14)
(0.127418 -3.61831e-08 2.6066e-14)
(0.127418 -3.45315e-08 2.60724e-14)
(0.127418 -3.30518e-08 2.60774e-14)
(0.127418 -1.25271e-08 2.60817e-14)
(0.12839 -4.12955e-08 2.6843e-14)
(0.12839 -1.57367e-08 2.67736e-14)
(0.12839 -2.56658e-09 2.67816e-14)
(0.12839 3.37582e-09 2.67495e-14)
(0.12839 4.24334e-09 2.67671e-14)
(0.12839 4.20591e-09 2.68936e-14)
(0.12839 4.07665e-09 2.67764e-14)
(0.12839 4.0402e-09 2.67967e-14)
(0.12839 4.19287e-09 2.6767e-14)
(0.12839 4.62521e-09 2.69447e-14)
(0.12839 5.41272e-09 2.67475e-14)
(0.12839 6.5838e-09 2.66694e-14)
(0.12839 8.08394e-09 2.67613e-14)
(0.12839 9.85176e-09 2.66371e-14)
(0.12839 1.18758e-08 2.67128e-14)
(0.12839 1.41254e-08 2.66066e-14)
(0.12839 1.65051e-08 2.65706e-14)
(0.12839 1.89197e-08 2.65947e-14)
(0.12839 2.13044e-08 2.65672e-14)
(0.12839 2.35852e-08 2.67215e-14)
(0.12839 2.56942e-08 2.65827e-14)
(0.12839 2.75937e-08 2.65297e-14)
(0.12839 2.9257e-08 2.66048e-14)
(0.12839 3.06788e-08 2.65235e-14)
(0.12839 3.18879e-08 2.65838e-14)
(0.12839 3.29096e-08 2.64787e-14)
(0.12839 3.37426e-08 2.6443e-14)
(0.12839 3.43774e-08 2.65383e-14)
(0.12839 3.48189e-08 2.64517e-14)
(0.128391 3.51087e-08 2.65546e-14)
(0.128391 3.53024e-08 2.64509e-14)
(0.128391 3.54065e-08 2.641e-14)
(0.128391 3.53805e-08 2.6442e-14)
(0.128391 3.52175e-08 2.64216e-14)
(0.128391 3.49471e-08 2.65169e-14)
(0.128391 3.45834e-08 2.64632e-14)
(0.128391 3.40988e-08 2.64507e-14)
(0.128391 3.35604e-08 2.63871e-14)
(0.128391 3.28653e-08 2.64014e-14)
(0.128391 3.22325e-08 2.64218e-14)
(0.128391 3.12385e-08 2.64137e-14)
(0.128391 3.02287e-08 2.64327e-14)
(0.128391 3.05941e-08 2.63257e-14)
(0.128391 3.25906e-08 2.63797e-14)
(0.128391 3.50291e-08 2.64064e-14)
(0.128391 3.49799e-08 2.64051e-14)
(0.128391 3.1192e-08 2.64267e-14)
(0.128391 2.49885e-08 2.63678e-14)
(0.128391 1.77324e-08 2.63894e-14)
(0.128391 1.00603e-08 2.64126e-14)
(0.12839 2.25904e-09 2.64094e-14)
(0.12839 -5.53356e-09 2.64411e-14)
(0.12839 -1.29896e-08 2.64378e-14)
(0.12839 -2.01356e-08 2.64297e-14)
(0.12839 -2.56103e-08 2.64555e-14)
(0.12839 -3.05673e-08 2.64575e-14)
(0.12839 -2.90907e-08 2.64739e-14)
(0.12839 -2.80783e-08 2.64799e-14)
(0.12839 -7.1331e-09 2.64686e-14)
(0.129335 -4.08655e-08 2.71939e-14)
(0.129335 -1.39532e-08 2.72015e-14)
(0.129335 -4.10889e-10 2.71988e-14)
(0.129335 5.06373e-09 2.71289e-14)
(0.129335 5.24462e-09 2.7168e-14)
(0.129335 4.19699e-09 2.72158e-14)
(0.129335 2.9166e-09 2.72101e-14)
(0.129335 1.8342e-09 2.72176e-14)
(0.129335 1.16551e-09 2.72028e-14)
(0.129335 1.00071e-09 2.72511e-14)
(0.129335 1.36961e-09 2.71732e-14)
(0.129335 2.26277e-09 2.71086e-14)
(0.129335 3.59754e-09 2.71103e-14)
(0.129335 5.2818e-09 2.70687e-14)
(0.129335 7.27823e-09 2.70938e-14)
(0.129335 9.54004e-09 2.70344e-14)
(0.129335 1.19623e-08 2.70046e-14)
(0.129335 1.44472e-08 2.70124e-14)
(0.129335 1.69294e-08 2.69998e-14)
(0.129335 1.93316e-08 2.7068e-14)
(0.129335 2.15827e-08 2.70019e-14)
(0.129335 2.36442e-08 2.69656e-14)
(0.129335 2.54873e-08 2.69808e-14)
(0.129335 2.71017e-08 2.696e-14)
(0.129335 2.85099e-08 2.69647e-14)
(0.129335 2.97383e-08 2.69077e-14)
(0.129335 3.07911e-08 2.68815e-14)
(0.129336 3.16567e-08 2.68782e-14)
(0.129336 3.23311e-08 2.68809e-14)
(0.129336 3.28486e-08 2.69296e-14)
(0.129336 3.32637e-08 2.68742e-14)
(0.129336 3.35879e-08 2.68417e-14)
(0.129336 3.37869e-08 2.68515e-14)
(0.129336 3.38529e-08 2.68494e-14)
(0.129336 3.38113e-08 2.68923e-14)
(0.129336 3.36735e-08 2.68328e-14)
(0.129336 3.34057e-08 2.68408e-14)
(0.129336 3.30643e-08 2.68129e-14)
(0.129336 3.25701e-08 2.67804e-14)
(0.129336 3.20786e-08 2.6817e-14)
(0.129336 3.14239e-08 2.6797e-14)
(0.129336 3.02487e-08 2.68354e-14)
(0.129336 2.99357e-08 2.68066e-14)
(0.129336 3.11528e-08 2.67667e-14)
(0.129336 3.33559e-08 2.68068e-14)
(0.129336 3.47475e-08 2.67914e-14)
(0.129336 3.31457e-08 2.68297e-14)
(0.129336 2.876e-08 2.68e-14)
(0.129336 2.26619e-08 2.67801e-14)
(0.129336 1.56416e-08 2.68098e-14)
(0.129336 8.17791e-09 2.67938e-14)
(0.129335 5.38664e-10 2.6844e-14)
(0.129335 -6.89002e-09 2.6839e-14)
(0.129335 -1.40876e-08 2.68164e-14)
(0.129335 -1.97009e-08 2.68533e-14)
(0.129335 -2.48349e-08 2.6843e-14)
(0.129335 -2.35596e-08 2.68736e-14)
(0.129335 -2.29884e-08 2.68784e-14)
(0.129335 -1.89222e-09 2.68484e-14)
(0.130254 -4.09068e-08 2.7584e-14)
(0.130254 -1.29101e-08 2.76218e-14)
(0.130254 1.26602e-09 2.75979e-14)
(0.130254 6.73828e-09 2.74845e-14)
(0.130254 6.59754e-09 2.75258e-14)
(0.130254 4.86105e-09 2.76035e-14)
(0.130254 2.65721e-09 2.76359e-14)
(0.130254 6.11599e-10 2.76169e-14)
(0.130254 -9.13285e-10 2.76235e-14)
(0.130254 -1.77191e-09 2.76068e-14)
(0.130254 -1.93889e-09 2.75702e-14)
(0.130254 -1.44104e-09 2.75361e-14)
(0.130254 -3.78834e-10 2.74979e-14)
(0.130254 1.13063e-09 2.7487e-14)
(0.130254 3.02381e-09 2.74662e-14)
(0.130254 5.23502e-09 2.74367e-14)
(0.130254 7.64901e-09 2.74276e-14)
(0.130255 1.01644e-08 2.74133e-14)
(0.130255 1.27127e-08 2.74212e-14)
(0.130255 1.52098e-08 2.74149e-14)
(0.130255 1.75802e-08 2.73965e-14)
(0.130255 1.97856e-08 2.739e-14)
(0.130255 2.17956e-08 2.73816e-14)
(0.130255 2.3593e-08 2.7384e-14)
(0.130255 2.51935e-08 2.73403e-14)
(0.130255 2.66242e-08 2.73112e-14)
(0.130255 2.78943e-08 2.7311e-14)
(0.130255 2.89902e-08 2.72836e-14)
(0.130255 2.98992e-08 2.7302e-14)
(0.130255 3.06484e-08 2.73056e-14)
(0.130255 3.12899e-08 2.72756e-14)
(0.130255 3.18383e-08 2.72654e-14)
(0.130255 3.22651e-08 2.72446e-14)
(0.130255 3.25644e-08 2.72664e-14)
(0.130255 3.27573e-08 2.72572e-14)
(0.130255 3.28506e-08 2.71778e-14)
(0.130255 3.28071e-08 2.72302e-14)
(0.130255 3.26709e-08 2.7208e-14)
(0.130255 3.23853e-08 2.71495e-14)
(0.130255 3.20452e-08 2.72211e-14)
(0.130255 3.16745e-08 2.71719e-14)
(0.130255 3.05371e-08 2.7242e-14)
(0.130255 2.97854e-08 2.72135e-14)
(0.130255 3.02472e-08 2.71457e-14)
(0.130255 3.18122e-08 2.72145e-14)
(0.130255 3.3707e-08 2.7169e-14)
(0.130255 3.3638e-08 2.72366e-14)
(0.130255 3.09767e-08 2.7219e-14)
(0.130255 2.62654e-08 2.71609e-14)
(0.130255 2.02031e-08 2.72136e-14)
(0.130255 1.33531e-08 2.71691e-14)
(0.130255 6.0882e-09 2.72521e-14)
(0.130255 -1.14274e-09 2.7246e-14)
(0.130255 -8.25772e-09 2.71963e-14)
(0.130255 -1.39161e-08 2.72567e-14)
(0.130255 -1.91471e-08 2.72194e-14)
(0.130255 -1.80824e-08 2.72761e-14)
(0.130255 -1.79548e-08 2.72737e-14)
(0.130255 3.18663e-09 2.72168e-14)
(0.131149 -4.11924e-08 2.79797e-14)
(0.131149 -1.24664e-08 2.79559e-14)
(0.131149 2.31889e-09 2.7976e-14)
(0.131149 8.05207e-09 2.77906e-14)
(0.131149 7.90068e-09 2.79146e-14)
(0.131149 5.79067e-09 2.80093e-14)
(0.131149 2.94081e-09 2.7975e-14)
(0.131149 1.1501e-10 2.79943e-14)
(0.131149 -2.19062e-09 2.7951e-14)
(0.131149 -3.74921e-09 2.79535e-14)
(0.131149 -4.50505e-09 2.79543e-14)
(0.131149 -4.47796e-09 2.78698e-14)
(0.131149 -3.77013e-09 2.78773e-14)
(0.131149 -2.5124e-09 2.78168e-14)
(0.131149 -7.9092e-10 2.78322e-14)
(0.131149 1.30929e-09 2.78284e-14)
(0.131149 3.66376e-09 2.77592e-14)
(0.131149 6.16784e-09 2.77995e-14)
(0.131149 8.74723e-09 2.77533e-14)
(0.131149 1.13091e-08 2.77567e-14)
(0.131149 1.37728e-08 2.77805e-14)
(0.131149 1.60997e-08 2.77227e-14)
(0.131149 1.82582e-08 2.77639e-14)
(0.131149 2.0224e-08 2.77171e-14)
(0.131149 2.20058e-08 2.77058e-14)
(0.131149 2.3631e-08 2.77035e-14)
(0.131149 2.51116e-08 2.76507e-14)
(0.131149 2.64322e-08 2.76741e-14)
(0.131149 2.75737e-08 2.76359e-14)
(0.131149 2.85556e-08 2.76813e-14)
(0.131149 2.94259e-08 2.767e-14)
(0.131149 3.02e-08 2.75981e-14)
(0.131149 3.08556e-08 2.76229e-14)
(0.131149 3.13901e-08 2.75963e-14)
(0.131149 3.18202e-08 2.76094e-14)
(0.131149 3.21469e-08 2.75853e-14)
(0.131149 3.23318e-08 2.76305e-14)
(0.131149 3.24085e-08 2.75827e-14)
(0.131149 3.23371e-08 2.75941e-14)
(0.131149 3.21613e-08 2.76449e-14)
(0.131149 3.20286e-08 2.76158e-14)
(0.131149 3.10466e-08 2.76599e-14)
(0.131149 3.00846e-08 2.7604e-14)
(0.131149 2.99556e-08 2.75948e-14)
(0.131149 3.07914e-08 2.76436e-14)
(0.131149 3.25853e-08 2.76156e-14)
(0.131149 3.33624e-08 2.76532e-14)
(0.131149 3.20577e-08 2.76117e-14)
(0.131149 2.8697e-08 2.76091e-14)
(0.131149 2.37339e-08 2.7634e-14)
(0.131149 1.76902e-08 2.76126e-14)
(0.131149 1.09839e-08 2.76771e-14)
(0.131149 4.10767e-09 2.76357e-14)
(0.131149 -2.79273e-09 2.7652e-14)
(0.131149 -8.39915e-09 2.7677e-14)
(0.131149 -1.36448e-08 2.76644e-14)
(0.131149 -1.27876e-08 2.76888e-14)
(0.131149 -1.31322e-08 2.76568e-14)
(0.131149 8.04972e-09 2.76561e-14)
(0.13202 -4.15558e-08 2.84145e-14)
(0.13202 -1.24425e-08 2.82741e-14)
(0.13202 2.76388e-09 2.83307e-14)
(0.13202 8.83799e-09 2.82198e-14)
(0.13202 8.88481e-09 2.83059e-14)
(0.13202 6.66524e-09 2.84128e-14)
(0.13202 3.44109e-09 2.82956e-14)
(0.13202 6.21808e-11 2.83573e-14)
(0.13202 -2.87527e-09 2.82562e-14)
(0.13202 -5.06312e-09 2.82794e-14)
(0.13202 -6.39525e-09 2.83329e-14)
(0.13202 -6.86428e-09 2.81822e-14)
(0.13202 -6.55733e-09 2.82705e-14)
(0.13202 -5.60477e-09 2.8128e-14)
(0.13202 -4.10832e-09 2.81607e-14)
(0.13202 -2.16985e-09 2.82153e-14)
(0.13202 7.97164e-11 2.80721e-14)
(0.13202 2.53328e-09 2.8233e-14)
(0.13202 5.10912e-09 2.80646e-14)
(0.13202 7.70481e-09 2.80877e-14)
(0.13202 1.02346e-08 2.81595e-14)
(0.13202 1.2659e-08 2.80364e-14)
(0.13202 1.49445e-08 2.81275e-14)
(0.13202 1.70604e-08 2.80271e-14)
(0.13202 1.90094e-08 2.80732e-14)
(0.13202 2.08181e-08 2.80934e-14)
(0.13202 2.24993e-08 2.7973e-14)
(0.13202 2.40357e-08 2.81144e-14)
(0.13202 2.5404e-08 2.79543e-14)
(0.13202 2.66164e-08 2.80099e-14)
(0.13202 2.77149e-08 2.80614e-14)
(0.13202 2.87145e-08 2.79086e-14)
(0.13202 2.95981e-08 2.79826e-14)
(0.13202 3.03674e-08 2.79118e-14)
(0.13202 3.10343e-08 2.7944e-14)
(0.13202 3.1594e-08 2.79855e-14)
(0.13202 3.20093e-08 2.80149e-14)
(0.13202 3.23047e-08 2.79347e-14)
(0.13202 3.24518e-08 2.79968e-14)
(0.13202 3.24529e-08 2.8043e-14)
(0.13202 3.25259e-08 2.80483e-14)
(0.13202 3.17561e-08 2.8098e-14)
(0.13202 3.07588e-08 2.79684e-14)
(0.13202 3.02432e-08 2.80862e-14)
(0.13202 3.04366e-08 2.80457e-14)
(0.13202 3.18241e-08 2.8054e-14)
(0.13202 3.28974e-08 2.80953e-14)
(0.13202 3.24902e-08 2.79806e-14)
(0.13202 3.02589e-08 2.81028e-14)
(0.13202 2.63714e-08 2.81087e-14)
(0.13202 2.12156e-08 2.80471e-14)
(0.13202 1.51866e-08 2.80784e-14)
(0.13202 8.78614e-09 2.79996e-14)
(0.13202 2.21278e-09 2.80639e-14)
(0.13202 -3.25446e-09 2.80851e-14)
(0.13202 -8.43986e-09 2.81007e-14)
(0.13202 -7.78132e-09 2.81327e-14)
(0.13202 -8.64836e-09 2.80228e-14)
(0.13202 1.26236e-08 2.81123e-14)
(0.132867 -4.18863e-08 2.86956e-14)
(0.132867 -1.26673e-08 2.85588e-14)
(0.132867 2.706e-09 2.86219e-14)
(0.132867 9.06591e-09 2.8595e-14)
(0.132867 9.40713e-09 2.86538e-14)
(0.132867 7.2649e-09 2.87269e-14)
(0.132867 3.89692e-09 2.85781e-14)
(0.132867 1.92276e-10 2.86502e-14)
(0.132867 -3.19308e-09 2.85234e-14)
(0.132867 -5.88667e-09 2.85368e-14)
(0.132867 -7.72724e-09 2.86255e-14)
(0.132867 -8.66879e-09 2.84608e-14)
(0.132867 -8.7702e-09 2.85309e-14)
(0.132867 -8.14762e-09 2.83959e-14)
(0.132867 -6.909e-09 2.84313e-14)
(0.132867 -5.16766e-09 2.85108e-14)
(0.132867 -3.05708e-09 2.83527e-14)
(0.132867 -6.86206e-10 2.84587e-14)
(0.132867 1.85508e-09 2.83364e-14)
(0.132867 4.45577e-09 2.83466e-14)
(0.132867 7.02567e-09 2.84576e-14)
(0.132867 9.52361e-09 2.83157e-14)
(0.132867 1.19138e-08 2.84236e-14)
(0.132867 1.416e-08 2.82937e-14)
(0.132867 1.62599e-08 2.83107e-14)
(0.132867 1.82393e-08 2.83962e-14)
(0.132868 2.01092e-08 2.82655e-14)
(0.132868 2.18503e-08 2.83512e-14)
(0.132868 2.34367e-08 2.82342e-14)
(0.132868 2.48741e-08 2.82895e-14)
(0.132868 2.61975e-08 2.83588e-14)
(0.132868 2.74203e-08 2.81788e-14)
(0.132868 2.85301e-08 2.8281e-14)
(0.132868 2.95317e-08 2.8189e-14)
(0.132868 3.04326e-08 2.82152e-14)
(0.132868 3.12229e-08 2.83061e-14)
(0.132868 3.18685e-08 2.83108e-14)
(0.132868 3.2386e-08 2.82586e-14)
(0.132868 3.27541e-08 2.83506e-14)
(0.132868 3.29431e-08 2.83496e-14)
(0.132868 3.32022e-08 2.83883e-14)
(0.132868 3.26644e-08 2.83693e-14)
(0.132868 3.17485e-08 2.82996e-14)
(0.132868 3.10323e-08 2.83742e-14)
(0.132868 3.07466e-08 2.83676e-14)
(0.132868 3.16371e-08 2.83997e-14)
(0.132868 3.26461e-08 2.83686e-14)
(0.132868 3.27137e-08 2.83218e-14)
(0.132868 3.13054e-08 2.83884e-14)
(0.132868 2.83468e-08 2.83513e-14)
(0.132868 2.40521e-08 2.83937e-14)
(0.132868 1.87416e-08 2.83946e-14)
(0.132867 1.28869e-08 2.8323e-14)
(0.132867 6.71959e-09 2.8425e-14)
(0.132867 1.45747e-09 2.83996e-14)
(0.132867 -3.60953e-09 2.84505e-14)
(0.132867 -3.14349e-09 2.841e-14)
(0.132867 -4.59985e-09 2.83664e-14)
(0.132867 1.6835e-08 2.84376e-14)
(0.133692 -4.21157e-08 2.90115e-14)
(0.133692 -1.30009e-08 2.88522e-14)
(0.133692 2.28095e-09 2.89205e-14)
(0.133692 8.79045e-09 2.89625e-14)
(0.133692 9.42581e-09 2.89816e-14)
(0.133692 7.46567e-09 2.90305e-14)
(0.133692 4.12518e-09 2.89008e-14)
(0.133692 2.93203e-10 2.89547e-14)
(0.133692 -3.35349e-09 2.87744e-14)
(0.133692 -6.40294e-09 2.88696e-14)
(0.133692 -8.64583e-09 2.89318e-14)
(0.133692 -9.99561e-09 2.87855e-14)
(0.133692 -1.04761e-08 2.88307e-14)
(0.133692 -1.01788e-08 2.86557e-14)
(0.133692 -9.20757e-09 2.87599e-14)
(0.133692 -7.67982e-09 2.88215e-14)
(0.133692 -5.72754e-09 2.86151e-14)
(0.133692 -3.46128e-09 2.87591e-14)
(0.133692 -9.78676e-10 2.86583e-14)
(0.133693 1.60297e-09 2.86912e-14)
(0.133693 4.19025e-09 2.87709e-14)
(0.133693 6.74018e-09 2.86139e-14)
(0.133693 9.21443e-09 2.87295e-14)
(0.133693 1.15712e-08 2.85572e-14)
(0.133693 1.38051e-08 2.86494e-14)
(0.133693 1.5941e-08 2.87174e-14)
(0.133693 1.79872e-08 2.85336e-14)
(0.133693 1.9921e-08 2.8665e-14)
(0.133693 2.17145e-08 2.85382e-14)
(0.133693 2.3368e-08 2.8617e-14)
(0.133693 2.49103e-08 2.86729e-14)
(0.133693 2.63532e-08 2.84865e-14)
(0.133693 2.7686e-08 2.85893e-14)
(0.133693 2.89153e-08 2.84912e-14)
(0.133693 3.00454e-08 2.85628e-14)
(0.133693 3.1063e-08 2.86511e-14)
(0.133693 3.19369e-08 2.86545e-14)
(0.133693 3.26772e-08 2.85074e-14)
(0.133693 3.32671e-08 2.86886e-14)
(0.133693 3.36529e-08 2.86965e-14)
(0.133693 3.40875e-08 2.87378e-14)
(0.133693 3.37822e-08 2.87201e-14)
(0.133693 3.30167e-08 2.85582e-14)
(0.133693 3.22455e-08 2.87305e-14)
(0.133693 3.16557e-08 2.87274e-14)
(0.133693 3.20871e-08 2.87574e-14)
(0.133693 3.2843e-08 2.87266e-14)
(0.133693 3.30633e-08 2.85839e-14)
(0.133693 3.21691e-08 2.87439e-14)
(0.133693 2.99261e-08 2.87136e-14)
(0.133693 2.63832e-08 2.87519e-14)
(0.133693 2.17591e-08 2.87464e-14)
(0.133693 1.64641e-08 2.86207e-14)
(0.133693 1.07404e-08 2.87681e-14)
(0.133693 5.71976e-09 2.8767e-14)
(0.133692 8.05349e-10 2.8812e-14)
(0.133692 1.07534e-09 2.87778e-14)
(0.133692 -1.05097e-09 2.86661e-14)
(0.133692 2.0624e-08 2.88017e-14)
(0.134496 -4.22048e-08 2.93255e-14)
(0.134496 -1.33394e-08 2.92566e-14)
(0.134496 1.62059e-09 2.92417e-14)
(0.134496 8.10782e-09 2.93334e-14)
(0.134496 8.96862e-09 2.93156e-14)
(0.134496 7.2231e-09 2.9335e-14)
(0.134496 4.01866e-09 2.92682e-14)
(0.134496 2.13105e-10 2.92761e-14)
(0.134496 -3.52875e-09 2.92087e-14)
(0.134496 -6.78114e-09 2.92231e-14)
(0.134496 -9.30082e-09 2.92422e-14)
(0.134496 -1.09664e-08 2.91552e-14)
(0.134496 -1.17669e-08 2.91561e-14)
(0.134496 -1.17632e-08 2.90942e-14)
(0.134496 -1.10458e-08 2.91182e-14)
(0.134496 -9.72809e-09 2.91379e-14)
(0.134496 -7.93722e-09 2.90595e-14)
(0.134496 -5.7853e-09 2.90859e-14)
(0.134496 -3.3763e-09 2.90342e-14)
(0.134496 -8.30723e-10 2.90555e-14)
(0.134496 1.75636e-09 2.90912e-14)
(0.134496 4.34072e-09 2.90251e-14)
(0.134496 6.88158e-09 2.906e-14)
(0.134496 9.33186e-09 2.8999e-14)
(0.134496 1.16836e-08 2.90212e-14)
(0.134496 1.39621e-08 2.90451e-14)
(0.134496 1.61722e-08 2.8986e-14)
(0.134496 1.82867e-08 2.90028e-14)
(0.134496 2.02745e-08 2.89542e-14)
(0.134496 2.21326e-08 2.8979e-14)
(0.134496 2.3886e-08 2.89945e-14)
(0.134496 2.55443e-08 2.88958e-14)
(0.134496 2.7096e-08 2.89326e-14)
(0.134496 2.8547e-08 2.89048e-14)
(0.134496 2.99003e-08 2.89342e-14)
(0.134496 3.11411e-08 2.89366e-14)
(0.134496 3.22398e-08 2.89839e-14)
(0.134496 3.32006e-08 2.89571e-14)
(0.134496 3.40114e-08 2.89925e-14)
(0.134496 3.46002e-08 2.90395e-14)
(0.134496 3.52055e-08 2.90178e-14)
(0.134496 3.51248e-08 2.90493e-14)
(0.134496 3.45457e-08 2.90127e-14)
(0.134496 3.38221e-08 2.90477e-14)
(0.134496 3.30814e-08 2.90828e-14)
(0.134496 3.31517e-08 2.90443e-14)
(0.134496 3.35928e-08 2.9061e-14)
(0.134496 3.37579e-08 2.90478e-14)
(0.134496 3.3118e-08 2.90563e-14)
(0.134496 3.13633e-08 2.90676e-14)
(0.134496 2.84148e-08 2.90393e-14)
(0.134496 2.4389e-08 2.90808e-14)
(0.134496 1.96161e-08 2.9037e-14)
(0.134496 1.43306e-08 2.90832e-14)
(0.134496 9.55457e-09 2.91257e-14)
(0.134496 4.79882e-09 2.91027e-14)
(0.134496 4.85385e-09 2.91229e-14)
(0.134496 1.9649e-09 2.90963e-14)
(0.134496 2.39517e-08 2.91221e-14)
(0.135278 -4.2132e-08 2.96371e-14)
(0.135278 -1.36108e-08 2.96082e-14)
(0.135278 8.36851e-10 2.95659e-14)
(0.135278 7.12577e-09 2.96515e-14)
(0.135278 8.10377e-09 2.96399e-14)
(0.135278 6.55087e-09 2.96397e-14)
(0.135278 3.53471e-09 2.96181e-14)
(0.135278 -1.39876e-10 2.96003e-14)
(0.135278 -3.84436e-09 2.9569e-14)
(0.135278 -7.16119e-09 2.95825e-14)
(0.135278 -9.82982e-09 2.9549e-14)
(0.135278 -1.17046e-08 2.95118e-14)
(0.135278 -1.27456e-08 2.94906e-14)
(0.135278 -1.29824e-08 2.94671e-14)
(0.135278 -1.24847e-08 2.94844e-14)
(0.135278 -1.13544e-08 2.94532e-14)
(0.135278 -9.71226e-09 2.94258e-14)
(0.135278 -7.67183e-09 2.94234e-14)
(0.135278 -5.34085e-09 2.94063e-14)
(0.135278 -2.83978e-09 2.94296e-14)
(0.135278 -2.63706e-10 2.9411e-14)
(0.135278 2.34296e-09 2.9395e-14)
(0.135278 4.93773e-09 2.94006e-14)
(0.135278 7.46851e-09 2.93826e-14)
(0.135278 9.92472e-09 2.94009e-14)
(0.135278 1.23325e-08 2.93715e-14)
(0.135278 1.46947e-08 2.93549e-14)
(0.135278 1.6978e-08 2.93487e-14)
(0.135278 1.91469e-08 2.93351e-14)
(0.135278 2.11966e-08 2.93527e-14)
(0.135278 2.31518e-08 2.93173e-14)
(0.135278 2.50199e-08 2.92829e-14)
(0.135278 2.67856e-08 2.92841e-14)
(0.135278 2.84515e-08 2.92833e-14)
(0.135278 3.00215e-08 2.93102e-14)
(0.135278 3.14806e-08 2.92222e-14)
(0.135278 3.27989e-08 2.9323e-14)
(0.135278 3.39759e-08 2.93324e-14)
(0.135278 3.50049e-08 2.931e-14)
(0.135278 3.57998e-08 2.93905e-14)
(0.135278 3.65737e-08 2.92883e-14)
(0.135278 3.67073e-08 2.93829e-14)
(0.135278 3.63305e-08 2.93957e-14)
(0.135278 3.57213e-08 2.93745e-14)
(0.135278 3.49482e-08 2.94419e-14)
(0.135278 3.47706e-08 2.93202e-14)
(0.135278 3.49136e-08 2.9398e-14)
(0.135278 3.49153e-08 2.94396e-14)
(0.135278 3.43399e-08 2.93817e-14)
(0.135278 3.28693e-08 2.94261e-14)
(0.135278 3.03439e-08 2.9316e-14)
(0.135278 2.67947e-08 2.942e-14)
(0.135278 2.2467e-08 2.94276e-14)
(0.135278 1.75759e-08 2.94101e-14)
(0.135278 1.30148e-08 2.94883e-14)
(0.135278 8.39499e-09 2.93827e-14)
(0.135278 8.19776e-09 2.94701e-14)
(0.135278 4.44258e-09 2.94805e-14)
(0.135278 2.68028e-08 2.94513e-14)
(0.136039 -4.18861e-08 2.99436e-14)
(0.136039 -1.37679e-08 2.99496e-14)
(0.136039 1.70827e-11 2.98813e-14)
(0.136039 5.94567e-09 2.99952e-14)
(0.136039 6.91694e-09 2.99576e-14)
(0.136039 5.49963e-09 2.99413e-14)
(0.136039 2.6796e-09 2.99601e-14)
(0.136039 -8.0531e-10 2.99175e-14)
(0.136039 -4.37838e-09 2.99207e-14)
(0.136039 -7.64626e-09 2.99411e-14)
(0.136039 -1.03468e-08 2.98409e-14)
(0.136039 -1.23226e-08 2.98636e-14)
(0.136039 -1.35144e-08 2.98225e-14)
(0.136039 -1.39241e-08 2.98304e-14)
(0.136039 -1.35959e-08 2.98526e-14)
(0.136039 -1.26146e-08 2.97553e-14)
(0.136039 -1.10944e-08 2.97876e-14)
(0.136039 -9.15065e-09 2.97599e-14)
(0.136039 -6.89145e-09 2.97757e-14)
(0.136039 -4.43407e-09 2.98068e-14)
(0.136039 -1.87212e-09 2.97183e-14)
(0.136039 7.51158e-10 2.97599e-14)
(0.136039 3.3929e-09 2.97396e-14)
(0.136039 5.99648e-09 2.97557e-14)
(0.136039 8.5477e-09 2.97811e-14)
(0.136039 1.10733e-08 2.96838e-14)
(0.136039 1.35761e-08 2.9721e-14)
(0.136039 1.60174e-08 2.96927e-14)
(0.136039 1.83545e-08 2.97078e-14)
(0.136039 2.05829e-08 2.97305e-14)
(0.136039 2.27298e-08 2.96281e-14)
(0.136039 2.48012e-08 2.96574e-14)
(0.136039 2.67754e-08 2.96307e-14)
(0.136039 2.86496e-08 2.9654e-14)
(0.136039 3.04292e-08 2.96858e-14)
(0.136039 3.21009e-08 2.956e-14)
(0.136039 3.36322e-08 2.96211e-14)
(0.136039 3.50196e-08 2.973e-14)
(0.136039 3.62622e-08 2.96186e-14)
(0.136039 3.72631e-08 2.96822e-14)
(0.136039 3.82042e-08 2.96013e-14)
(0.136039 3.85427e-08 2.96729e-14)
(0.136039 3.83729e-08 2.9763e-14)
(0.136039 3.79174e-08 2.96872e-14)
(0.136039 3.71954e-08 2.97384e-14)
(0.136039 3.68736e-08 2.96374e-14)
(0.136039 3.67748e-08 2.96908e-14)
(0.136039 3.65775e-08 2.9795e-14)
(0.136039 3.59473e-08 2.96964e-14)
(0.136039 3.45993e-08 2.97231e-14)
(0.136039 3.23371e-08 2.96346e-14)
(0.136039 2.91315e-08 2.97154e-14)