/*--------------------------------*- C++ -*----------------------------------*\
  =========                 |
  \\      /  F ield         | OpenFOAM: The Open Source CFD Toolbox
   \\    /   O peration     | Website:  https://openfoam.org
    \\  /    A nd           | Version:  7
     \\/     M anipulation  |
\*---------------------------------------------------------------------------*/
FoamFile
{
    version     2.0;
    format      ascii;
    class       volVectorField;
    location    "500";
    object      U;
}
// * * * * * * * * * * * * * * * * * * * * * * * * * * * * * * * * * * * * * //

dimensions      [0 1 -1 0 0 0 0];

internalField   nonuniform List<vector> 
3974
(
(0.140128 5.56675e-07 -7.98872e-16)
(0.140129 6.06418e-07 -7.65314e-16)
(0.14013 7.0292e-07 -8.95314e-16)
(0.14013 7.34248e-07 -7.75153e-16)
(0.14013 7.12759e-07 -8.43432e-16)
(0.14013 6.57596e-07 -8.07005e-16)
(0.140131 5.81234e-07 -8.44639e-16)
(0.140131 4.92342e-07 -9.20962e-16)
(0.140131 3.97519e-07 -8.58313e-16)
(0.140131 3.02021e-07 -9.1257e-16)
(0.140131 2.10058e-07 -9.02387e-16)
(0.140131 1.24963e-07 -9.30947e-16)
(0.140131 4.93386e-08 -9.94329e-16)
(0.140131 -1.48254e-08 -9.18822e-16)
(0.140131 -6.60195e-08 -9.54053e-16)
(0.140131 -1.03051e-07 -9.01531e-16)
(0.140131 -1.24998e-07 -9.27454e-16)
(0.140131 -1.31236e-07 -1.00677e-15)
(0.140131 -1.21463e-07 -9.56743e-16)
(0.140131 -9.57674e-08 -1.0036e-15)
(0.140131 -5.47276e-08 -9.41857e-16)
(0.140131 5.03924e-10 -9.73024e-16)
(0.140131 6.81929e-08 -1.05629e-15)
(0.140131 1.46033e-07 -1.00166e-15)
(0.140131 2.31188e-07 -1.12809e-15)
(0.140131 3.20441e-07 -1.01524e-15)
(0.140131 4.10415e-07 -1.02792e-15)
(0.140131 4.97833e-07 -1.11604e-15)
(0.140131 5.79763e-07 -1.03845e-15)
(0.140131 6.53853e-07 -1.15416e-15)
(0.140131 7.18417e-07 -1.03543e-15)
(0.14013 7.72675e-07 -9.52015e-16)
(0.14013 8.16288e-07 -1.05623e-15)
(0.14013 8.5073e-07 -9.94948e-16)
(0.140129 8.74918e-07 -9.74143e-16)
(0.140129 9.01347e-07 -1.08485e-15)
(0.140129 9.00454e-07 -1.04676e-15)
(0.140128 1.07251e-06 -1.18069e-15)
(0.140766 6.80403e-07 -6.51251e-16)
(0.140767 5.71569e-07 -6.74594e-16)
(0.140768 4.76245e-07 -6.61713e-16)
(0.140767 5.9554e-07 -6.25634e-16)
(0.140767 7.01239e-07 -6.93879e-16)
(0.140767 7.23931e-07 -6.67959e-16)
(0.140767 6.98742e-07 -7.2712e-16)
(0.140767 6.42915e-07 -7.11979e-16)
(0.140767 5.67047e-07 -6.9843e-16)
(0.140767 4.79237e-07 -7.74361e-16)
(0.140767 3.85866e-07 -7.54444e-16)
(0.140767 2.9206e-07 -8.0553e-16)
(0.140767 2.01908e-07 -7.92634e-16)
(0.140767 1.18616e-07 -7.80451e-16)
(0.140767 4.46573e-08 -8.41216e-16)
(0.140767 -1.80935e-08 -8.06909e-16)
(0.140767 -6.82073e-08 -8.41115e-16)
(0.140767 -1.04533e-07 -8.06687e-16)
(0.140767 -1.26142e-07 -7.86869e-16)
(0.140767 -1.3235e-07 -8.66035e-16)
(0.140767 -1.22736e-07 -8.46519e-16)
(0.140767 -9.72305e-08 -8.91951e-16)
(0.140768 -5.62294e-08 -8.60023e-16)
(0.140768 -6.98883e-10 -8.37523e-16)
(0.140768 6.77917e-08 -9.10044e-16)
(0.140768 1.47044e-07 -8.9846e-16)
(0.140768 2.34257e-07 -9.58552e-16)
(0.140768 3.26176e-07 -9.20591e-16)
(0.140767 4.19322e-07 -8.907e-16)
(0.140767 5.10261e-07 -9.75605e-16)
(0.140767 5.95869e-07 -9.30771e-16)
(0.140767 6.73597e-07 -9.93931e-16)
(0.140767 7.41577e-07 -9.42322e-16)
(0.140767 7.98882e-07 -8.59174e-16)
(0.140767 8.45094e-07 -8.84015e-16)
(0.140766 8.81584e-07 -8.71602e-16)
(0.140766 9.07542e-07 -8.60307e-16)
(0.140766 9.34338e-07 -9.1452e-16)
(0.140765 9.36994e-07 -9.10537e-16)
(0.140765 1.08695e-06 -9.69119e-16)
(0.140766 1.28887e-06 -9.54412e-16)
(0.140766 1.46128e-06 -9.21708e-16)
(0.141324 9.72351e-07 -4.88388e-16)
(0.141324 7.75471e-07 -5.63885e-16)
(0.141325 6.31522e-07 -5.50965e-16)
(0.141324 5.97063e-07 -4.71371e-16)
(0.141323 5.64154e-07 -5.21659e-16)
(0.141322 6.82029e-07 -4.8994e-16)
(0.141321 7.38479e-07 -5.90949e-16)
(0.141321 7.36065e-07 -5.55689e-16)
(0.141321 7.00435e-07 -6.20068e-16)
(0.141321 6.39627e-07 -5.98447e-16)
(0.141321 5.61362e-07 -5.64031e-16)
(0.141321 4.72683e-07 -6.53758e-16)
(0.141321 3.79403e-07 -6.42605e-16)
(0.141321 2.86297e-07 -7.1282e-16)
(0.141321 1.97185e-07 -6.7744e-16)
(0.141321 1.15053e-07 -6.41141e-16)
(0.141321 4.21802e-08 -7.15451e-16)
(0.141321 -1.97167e-08 -6.88908e-16)
(0.141321 -6.9313e-08 -7.36733e-16)
(0.141321 -1.05509e-07 -6.99349e-16)
(0.141321 -1.27369e-07 -6.5632e-16)
(0.141321 -1.34132e-07 -7.36335e-16)
(0.141321 -1.25242e-07 -7.31036e-16)
(0.141321 -1.00445e-07 -7.95283e-16)
(0.141321 -5.99363e-08 -7.58138e-16)
(0.141321 -4.47877e-09 -7.09212e-16)
(0.141321 6.45271e-08 -7.9497e-16)
(0.141321 1.44986e-07 -7.84539e-16)
(0.141321 2.34118e-07 -8.50248e-16)
(0.141321 3.28612e-07 -8.12765e-16)
(0.141321 4.2486e-07 -7.61392e-16)
(0.141321 5.19245e-07 -8.34985e-16)
(0.141321 6.08437e-07 -8.12717e-16)
(0.141321 6.89675e-07 -8.86375e-16)
(0.141321 7.60909e-07 -8.32639e-16)
(0.141321 8.21067e-07 -7.55092e-16)
(0.141321 8.69673e-07 -7.45075e-16)
(0.14132 9.0798e-07 -7.44477e-16)
(0.14132 9.35584e-07 -7.4307e-16)
(0.14132 9.61859e-07 -7.70743e-16)
(0.14132 9.71248e-07 -7.77284e-16)
(0.141319 1.05066e-06 -8.02063e-16)
(0.141321 1.19407e-06 -8.08882e-16)
(0.141321 1.39884e-06 -7.93777e-16)
(0.141322 1.57328e-06 -7.94409e-16)
(0.141323 1.55362e-06 -7.78225e-16)
(0.141322 1.44819e-06 -7.9417e-16)
(0.141322 1.34278e-06 -7.99693e-16)
(0.141322 1.25647e-06 -7.92521e-16)
(0.141321 1.1818e-06 -7.99757e-16)
(0.141321 1.11019e-06 -7.77485e-16)
(0.14132 1.03783e-06 -7.7903e-16)
(0.14132 9.57798e-07 -7.66256e-16)
(0.141319 8.72039e-07 -7.55538e-16)
(0.141319 7.66183e-07 -7.67253e-16)
(0.141319 6.55516e-07 -7.53958e-16)
(0.141318 5.08605e-07 -7.62506e-16)
(0.141318 3.55108e-07 -7.50542e-16)
(0.141318 3.02662e-07 -7.28117e-16)
(0.141806 8.44271e-07 -3.63882e-16)
(0.141806 7.59867e-07 -4.80668e-16)
(0.141805 7.02942e-07 -4.39734e-16)
(0.141805 7.39865e-07 -4.00517e-16)
(0.141803 7.14979e-07 -3.90838e-16)
(0.141803 7.73669e-07 -3.58332e-16)
(0.141802 7.89746e-07 -4.93097e-16)
(0.141802 7.64413e-07 -4.4051e-16)
(0.141801 7.14908e-07 -5.29425e-16)
(0.141801 6.45863e-07 -4.64183e-16)
(0.141801 5.62903e-07 -4.30364e-16)
(0.141801 4.71748e-07 -5.65329e-16)
(0.141801 3.77407e-07 -5.23463e-16)
(0.141801 2.84138e-07 -6.24074e-16)
(0.141801 1.95386e-07 -5.47304e-16)
(0.141801 1.13834e-07 -5.04028e-16)
(0.141801 4.15143e-08 -6.26148e-16)
(0.141801 -2.00476e-08 -5.66925e-16)
(0.141801 -6.96508e-08 -6.56428e-16)
(0.141801 -1.06252e-07 -5.69245e-16)
(0.141801 -1.28901e-07 -5.24989e-16)
(0.141801 -1.36743e-07 -6.51097e-16)
(0.141801 -1.29065e-07 -6.13036e-16)
(0.141801 -1.05409e-07 -7.18305e-16)
(0.141801 -6.57457e-08 -6.2925e-16)
(0.141801 -1.06303e-08 -5.79922e-16)
(0.141801 5.87039e-08 -7.08934e-16)
(0.141802 1.40251e-07 -6.62264e-16)
(0.141802 2.31228e-07 -7.62471e-16)
(0.141802 3.2824e-07 -6.86874e-16)
(0.141802 4.2752e-07 -6.34483e-16)
(0.141802 5.25249e-07 -8.05039e-16)
(0.141802 6.17869e-07 -6.89293e-16)
(0.141801 7.02407e-07 -7.92911e-16)
(0.141801 7.76637e-07 -7.05587e-16)
(0.141801 8.39357e-07 -6.32268e-16)
(0.141801 8.90054e-07 -6.18945e-16)
(0.141801 9.2987e-07 -6.23914e-16)
(0.141801 9.58872e-07 -6.30715e-16)
(0.141801 9.84115e-07 -6.4553e-16)
(0.1418 1.00081e-06 -6.53798e-16)
(0.1418 1.01198e-06 -6.59529e-16)
(0.141801 1.09363e-06 -6.77019e-16)
(0.141801 1.27459e-06 -6.76227e-16)
(0.141803 1.44335e-06 -6.65019e-16)
(0.141804 1.49675e-06 -6.50068e-16)
(0.141804 1.45121e-06 -6.47515e-16)
(0.141804 1.37381e-06 -6.53438e-16)
(0.141804 1.29707e-06 -6.55579e-16)
(0.141804 1.22513e-06 -6.54363e-16)
(0.141803 1.15398e-06 -6.37315e-16)
(0.141803 1.08114e-06 -6.23379e-16)
(0.141803 9.99864e-07 -6.12449e-16)
(0.141802 9.12515e-07 -6.11444e-16)
(0.141802 8.03576e-07 -6.16645e-16)
(0.141802 6.9071e-07 -6.09965e-16)
(0.141801 5.32341e-07 -6.04176e-16)
(0.141801 3.80821e-07 -5.94982e-16)
(0.141801 2.38104e-07 -5.85727e-16)
(0.142218 6.94996e-07 -2.39589e-16)
(0.142218 7.85935e-07 -3.03766e-16)
(0.142218 8.13401e-07 -2.94529e-16)
(0.142217 8.44692e-07 -2.76166e-16)
(0.142216 8.20317e-07 -2.6478e-16)
(0.142215 8.55553e-07 -2.37699e-16)
(0.142215 8.47603e-07 -3.19113e-16)
(0.142214 8.02278e-07 -2.86668e-16)
(0.142214 7.38294e-07 -3.4157e-16)
(0.142214 6.59683e-07 -2.82338e-16)
(0.142214 5.70732e-07 -3.08281e-16)
(0.142214 4.76029e-07 -3.92227e-16)
(0.142214 3.79766e-07 -3.72942e-16)
(0.142214 2.8562e-07 -4.43742e-16)
(0.142214 1.96598e-07 -3.61808e-16)
(0.142214 1.15033e-07 -3.81151e-16)
(0.142214 4.26766e-08 -4.50109e-16)
(0.142214 -1.91538e-08 -4.24661e-16)
(0.142214 -6.93875e-08 -4.71668e-16)
(0.142214 -1.07031e-07 -3.90998e-16)
(0.142214 -1.31102e-07 -4.03066e-16)
(0.142214 -1.40629e-07 -4.76844e-16)
(0.142214 -1.34714e-07 -4.75314e-16)
(0.142214 -1.1267e-07 -5.36292e-16)
(0.142214 -7.42281e-08 -4.42602e-16)
(0.142214 -1.97252e-08 -4.5925e-16)
(0.142214 4.97621e-08 -5.37715e-16)
(0.142214 1.32296e-07 -5.12828e-16)
(0.142214 2.25066e-07 -5.74612e-16)
(0.142214 3.24556e-07 -5.14298e-16)
(0.142214 4.26813e-07 -5.19865e-16)
(0.142214 5.27785e-07 -5.70216e-16)
(0.142214 6.2368e-07 -5.46308e-16)
(0.142214 7.11307e-07 -6.13236e-16)
(0.142214 7.88278e-07 -5.14801e-16)
(0.142214 8.53276e-07 -4.9868e-16)
(0.142214 9.05777e-07 -5.02572e-16)
(0.142214 9.46825e-07 -5.12849e-16)
(0.142214 9.76961e-07 -5.27032e-16)
(0.142214 1.00118e-06 -5.32435e-16)
(0.142214 1.02203e-06 -5.40506e-16)
(0.142213 1.01109e-06 -5.32685e-16)
(0.142213 1.05705e-06 -5.56717e-16)
(0.142214 1.17002e-06 -5.67325e-16)
(0.142215 1.29992e-06 -5.45836e-16)
(0.142216 1.40838e-06 -5.29015e-16)
(0.142216 1.41852e-06 -5.12833e-16)
(0.142216 1.37447e-06 -5.16986e-16)
(0.142216 1.31441e-06 -5.25509e-16)
(0.142216 1.2504e-06 -5.17907e-16)
(0.142216 1.18308e-06 -5.0327e-16)
(0.142216 1.11208e-06 -4.7945e-16)
(0.142215 1.03131e-06 -4.64783e-16)
(0.142215 9.43757e-07 -4.73459e-16)
(0.142215 8.32895e-07 -4.7517e-16)
(0.142215 7.18845e-07 -4.71943e-16)
(0.142215 5.49428e-07 -4.56894e-16)
(0.142215 4.01601e-07 -4.44472e-16)
(0.142214 1.5056e-07 -4.46338e-16)
(0.142569 5.49438e-07 -1.39633e-16)
(0.142569 7.77918e-07 -1.45752e-16)
(0.142569 8.7491e-07 -1.49792e-16)
(0.142568 9.207e-07 -1.60231e-16)
(0.142568 9.03699e-07 -1.66131e-16)
(0.142567 9.26992e-07 -1.32494e-16)
(0.142567 9.03382e-07 -1.46856e-16)
(0.142566 8.42882e-07 -8.37878e-17)
(0.142566 7.66328e-07 -1.70906e-16)
(0.142566 6.7844e-07 -2.95532e-17)
(0.142566 5.83171e-07 -2.18048e-16)
(0.142565 4.84433e-07 -2.43161e-16)
(0.142565 3.85743e-07 -2.39798e-16)
(0.142565 2.90223e-07 -2.66483e-16)
(0.142565 2.0043e-07 -1.1341e-16)
(0.142565 1.18329e-07 -2.89659e-16)
(0.142565 4.5382e-08 -3.02889e-16)
(0.142565 -1.73072e-08 -2.86778e-16)
(0.142565 -6.87912e-08 -3.10574e-16)
(0.142565 -1.08111e-07 -1.44344e-16)
(0.142565 -1.34224e-07 -3.12559e-16)
(0.142565 -1.46016e-07 -3.32739e-16)
(0.142565 -1.42374e-07 -3.38888e-16)
(0.142565 -1.22356e-07 -3.7565e-16)
(0.142566 -8.54393e-08 -2.57909e-16)
(0.142566 -3.17427e-08 -3.66492e-16)
(0.142566 3.77971e-08 -3.91044e-16)
(0.142566 1.21283e-07 -3.22444e-16)
(0.142566 2.15838e-07 -4.05439e-16)
(0.142566 3.17791e-07 -3.20309e-16)
(0.142566 4.22966e-07 -4.35088e-16)
(0.142566 5.27062e-07 -4.27532e-16)
(0.142566 6.26039e-07 -4.11896e-16)
(0.142566 7.16498e-07 -4.40803e-16)
(0.142566 7.95904e-07 -2.75477e-16)
(0.142566 8.62851e-07 -3.70526e-16)
(0.142566 9.16829e-07 -3.98317e-16)
(0.142566 9.58812e-07 -4.06474e-16)
(0.142566 9.8978e-07 -4.33093e-16)
(0.142566 1.01311e-06 -4.27035e-16)
(0.142566 1.03583e-06 -4.36718e-16)
(0.142566 1.01871e-06 -4.16585e-16)
(0.142566 1.04349e-06 -4.86757e-16)
(0.142566 1.11901e-06 -4.61062e-16)
(0.142566 1.21645e-06 -4.31228e-16)
(0.142567 1.3312e-06 -4.15198e-16)
(0.142567 1.37045e-06 -3.8555e-16)
(0.142568 1.35415e-06 -3.78172e-16)
(0.142568 1.3126e-06 -4.01921e-16)
(0.142568 1.25947e-06 -3.84978e-16)
(0.142568 1.19844e-06 -3.74655e-16)
(0.142568 1.13114e-06 -3.41653e-16)
(0.142567 1.05234e-06 -3.21823e-16)
(0.142567 9.65813e-07 -3.4177e-16)
(0.142567 8.54102e-07 -3.3755e-16)
(0.142567 7.39745e-07 -3.39969e-16)
(0.142567 5.60151e-07 -3.15384e-16)
(0.142567 4.16271e-07 -2.9675e-16)
(0.142567 6.20389e-08 -3.12544e-16)
(0.142865 4.19847e-07 -3.51755e-17)
(0.142866 7.55048e-07 -1.07621e-17)
(0.142865 9.10154e-07 -1.49205e-17)
(0.142865 9.76317e-07 -6.01479e-17)
(0.142865 9.68866e-07 -6.39106e-17)
(0.142864 9.85252e-07 -3.35165e-17)
(0.142864 9.52204e-07 -3.36583e-18)
(0.142863 8.8163e-07 -4.96613e-18)
(0.142863 7.95481e-07 -1.59247e-17)
(0.142863 6.997e-07 -5.06478e-19)
(0.142863 5.98611e-07 -7.25758e-17)
(0.142863 4.95895e-07 -9.2571e-17)
(0.142863 3.94619e-07 -1.04236e-16)
(0.142863 2.97443e-07 -1.19451e-16)
(0.142863 2.06504e-07 -8.32143e-17)
(0.142862 1.23416e-07 -1.44567e-16)
(0.142862 4.93566e-08 -1.53756e-16)
(0.142862 -1.47696e-08 -1.59496e-16)
(0.142862 -6.812e-08 -1.61531e-16)
(0.142862 -1.09743e-07 -1.1464e-16)
(0.142862 -1.38506e-07 -1.69855e-16)
(0.142862 -1.53114e-07 -1.86639e-16)
(0.142863 -1.52209e-07 -2.1127e-16)
(0.142863 -1.34573e-07 -2.23909e-16)
(0.142863 -9.94168e-08 -1.67685e-16)
(0.142863 -4.66503e-08 -2.30075e-16)
(0.142863 2.29062e-08 -2.42665e-16)
(0.142863 1.07359e-07 -2.47339e-16)
(0.142863 2.03724e-07 -2.58581e-16)
(0.142863 3.08134e-07 -2.40062e-16)
(0.142863 4.16161e-07 -2.90311e-16)
(0.142864 5.23233e-07 -2.80866e-16)
(0.142864 6.25065e-07 -2.82996e-16)
(0.142864 7.18061e-07 -2.91216e-16)
(0.142864 7.99564e-07 -2.36802e-16)
(0.142864 8.68108e-07 -2.9928e-16)
(0.142864 9.23225e-07 -3.03485e-16)
(0.142863 9.65846e-07 -3.07005e-16)
(0.142863 9.97347e-07 -3.51142e-16)
(0.142863 1.0199e-06 -3.23494e-16)
(0.142863 1.04301e-06 -3.42501e-16)
(0.142863 1.02536e-06 -3.0465e-16)
(0.142863 1.03843e-06 -3.1149e-16)
(0.142863 1.09141e-06 -3.56528e-16)
(0.142864 1.16343e-06 -3.15065e-16)
(0.142864 1.26808e-06 -3.10307e-16)
(0.142865 1.31945e-06 -2.60951e-16)
(0.142865 1.32224e-06 -2.47485e-16)
(0.142865 1.29699e-06 -2.8415e-16)
(0.142865 1.2553e-06 -2.49907e-16)
(0.142865 1.20179e-06 -2.52856e-16)
(0.142865 1.13944e-06 -2.04821e-16)
(0.142865 1.06375e-06 -1.8298e-16)
(0.142865 9.79222e-07 -2.19375e-16)
(0.142865 8.67628e-07 -1.99359e-16)
(0.142865 7.53696e-07 -2.1584e-16)
(0.142865 5.65246e-07 -1.73954e-16)
(0.142865 4.24422e-07 -1.50499e-16)
(0.142865 -1.66025e-08 -1.89362e-16)
(0.143114 3.12408e-07 5.85791e-17)
(0.143115 7.27708e-07 1.29976e-16)
(0.143114 9.28081e-07 1.01822e-16)
(0.143114 1.01404e-06 6.37698e-18)
(0.143114 1.01708e-06 1.61373e-17)
(0.143114 1.03004e-06 6.36939e-17)
(0.143113 9.92137e-07 1.37985e-16)
(0.143113 9.15793e-07 1.10783e-16)
(0.143113 8.23195e-07 1.28764e-16)
(0.143113 7.21473e-07 7.49766e-17)
(0.143113 6.15621e-07 3.2049e-17)
(0.143112 5.09414e-07 4.98769e-17)
(0.143112 4.05688e-07 -3.51142e-18)
(0.143112 3.06763e-07 1.98821e-17)
(0.143112 2.14423e-07 -8.41083e-18)
(0.143112 1.29963e-07 -3.82475e-17)
(0.143112 5.43077e-08 -1.10814e-17)
(0.143112 -1.18124e-08 -5.19059e-17)
(0.143112 -6.76285e-08 -2.08229e-17)
(0.143112 -1.1216e-07 -3.95607e-17)
(0.143112 -1.44148e-07 -6.71123e-17)
(0.143112 -1.62078e-07 -4.71972e-17)
(0.143112 -1.64315e-07 -9.88384e-17)
(0.143112 -1.49345e-07 -8.07267e-17)
(0.143112 -1.16111e-07 -1.0235e-16)
(0.143113 -6.43273e-08 -1.2941e-16)
(0.143113 5.26969e-09 -1.0189e-16)
(0.143113 9.07464e-08 -1.44673e-16)
(0.143113 1.88968e-07 -1.21114e-16)
(0.143113 2.95829e-07 -1.61651e-16)
(0.143113 4.06621e-07 -1.83642e-16)
(0.143113 5.16494e-07 -1.39499e-16)
(0.143113 6.20918e-07 -1.76902e-16)
(0.143113 7.16125e-07 -1.51315e-16)
(0.143113 7.99363e-07 -1.6786e-16)
(0.143113 8.6914e-07 -2.58423e-16)
(0.143113 9.25057e-07 -2.10035e-16)
(0.143113 9.68035e-07 -2.11051e-16)
(0.143113 9.99795e-07 -2.88967e-16)
(0.143113 1.02167e-06 -2.133e-16)
(0.143113 1.0443e-06 -2.6115e-16)
(0.143113 1.02834e-06 -1.87185e-16)
(0.143113 1.03545e-06 -1.84949e-16)
(0.143114 1.07428e-06 -2.65832e-16)
(0.143114 1.12769e-06 -1.92776e-16)
(0.143114 1.21811e-06 -2.18699e-16)
(0.143114 1.27146e-06 -1.29658e-16)
(0.143115 1.28527e-06 -1.1505e-16)
(0.143115 1.27239e-06 -1.8348e-16)
(0.143115 1.241e-06 -1.03055e-16)
(0.143115 1.19515e-06 -1.41829e-16)
(0.143115 1.13833e-06 -5.89775e-17)
(0.143115 1.06646e-06 -4.98849e-17)
(0.143115 9.84677e-07 -1.11366e-16)
(0.143115 8.74017e-07 -5.39217e-17)
(0.143115 7.61089e-07 -1.05355e-16)
(0.143115 5.65394e-07 -2.30035e-17)
(0.143115 4.26187e-07 -6.39372e-18)
(0.143115 -8.23498e-08 -8.61988e-17)
(0.143322 2.28865e-07 1.77132e-16)
(0.143323 7.00978e-07 1.71437e-16)
(0.143323 9.33834e-07 1.92188e-16)
(0.143322 1.03703e-06 5.56133e-17)
(0.143322 1.05069e-06 1.14195e-16)
(0.143322 1.06258e-06 1.81214e-16)
(0.143322 1.02292e-06 1.76797e-16)
(0.143322 9.44097e-07 1.99638e-16)
(0.143321 8.47897e-07 1.59075e-16)
(0.143321 7.42317e-07 1.22237e-16)
(0.143321 6.33044e-07 1.22363e-16)
(0.143321 5.24107e-07 7.82161e-17)
(0.143321 4.18281e-07 7.36474e-17)
(0.143321 3.17666e-07 4.51131e-17)
(0.143321 2.23768e-07 4.30915e-17)
(0.143321 1.37619e-07 5.55499e-17)
(0.143321 5.99254e-08 1.77304e-17)
(0.143321 -8.71285e-09 2.55818e-17)
(0.143321 -6.75616e-08 5.81587e-18)
(0.143321 -1.1557e-07 1.72579e-17)
(0.143321 -1.51305e-07 2.33725e-17)
(0.143321 -1.72998e-07 -2.16876e-17)
(0.143321 -1.78707e-07 -1.35e-17)
(0.143321 -1.66607e-07 -5.19109e-17)
(0.143321 -1.35376e-07 -4.78863e-17)
(0.143321 -8.4558e-08 -3.89851e-17)
(0.143321 -1.48438e-08 -7.47451e-17)
(0.143322 7.17458e-08 -6.1456e-17)
(0.143322 1.71877e-07 -9.39343e-17)
(0.143322 2.8117e-07 -1.10357e-16)
(0.143322 3.94616e-07 -9.07587e-17)
(0.143322 5.07077e-07 -1.10389e-16)
(0.143322 6.13801e-07 -9.08247e-17)
(0.143322 7.10866e-07 -1.22776e-16)
(0.143322 7.95465e-07 -1.16667e-16)
(0.143322 8.66112e-07 -1.34279e-16)
(0.143322 9.22506e-07 -9.07747e-17)
(0.143322 9.65583e-07 -1.29443e-16)
(0.143322 9.97363e-07 -1.37564e-16)
(0.143322 1.01862e-06 -8.2029e-17)
(0.143322 1.04034e-06 -8.86797e-17)
(0.143323 1.02683e-06 -4.91338e-17)
(0.143323 1.03118e-06 -7.54245e-17)
(0.143323 1.0612e-06 -8.94073e-17)
(0.143323 1.10173e-06 -5.11977e-17)
(0.143323 1.17824e-06 -3.65861e-17)
(0.143323 1.22827e-06 2.372e-17)
(0.143324 1.2471e-06 -1.42936e-18)
(0.143324 1.2425e-06 6.66557e-18)
(0.143324 1.21941e-06 7.5042e-17)
(0.143324 1.18058e-06 6.19202e-17)
(0.143324 1.12932e-06 1.20805e-16)
(0.143324 1.06164e-06 6.84101e-17)
(0.143324 9.83059e-07 9.58709e-17)
(0.143325 8.73999e-07 1.11354e-16)
(0.143325 7.62516e-07 9.37206e-17)
(0.143325 5.61347e-07 1.53012e-16)
(0.143325 4.22267e-07 1.25807e-16)
(0.143325 -1.34753e-07 9.97745e-17)
(0.143495 1.68307e-07 3.48256e-16)
(0.143496 6.77523e-07 2.03169e-16)
(0.143496 9.31574e-07 2.58189e-16)
(0.143496 1.04883e-06 1.60023e-16)
(0.143496 1.07242e-06 2.282e-16)
(0.143496 1.08464e-06 3.08401e-16)
(0.143495 1.04521e-06 2.03306e-16)
(0.143495 9.6629e-07 2.74373e-16)
(0.143495 8.68827e-07 1.71449e-16)
(0.143495 7.61327e-07 1.61627e-16)
(0.143495 6.50029e-07 2.09632e-16)
(0.143495 5.3925e-07 9.17357e-17)
(0.143495 4.31803e-07 1.44793e-16)
(0.143494 3.2966e-07 5.60709e-17)
(0.143494 2.34125e-07 7.99244e-17)
(0.143494 1.46021e-07 1.44974e-16)
(0.143494 6.58946e-08 3.19862e-17)
(0.143494 -5.74375e-09 1.40618e-16)
(0.143494 -6.81452e-08 1.65224e-17)
(0.143494 -1.2014e-07 9.32495e-17)
(0.143494 -1.60079e-07 1.1174e-16)
(0.143494 -1.85897e-07 -1.18066e-17)
(0.143495 -1.9532e-07 1.00027e-16)
(0.143495 -1.86207e-07 -4.1819e-17)
(0.143495 -1.56983e-07 -1.72355e-17)
(0.143495 -1.0705e-07 5.03358e-17)
(0.143495 -3.71003e-08 -6.31521e-17)
(0.143495 5.07086e-08 4.28638e-18)
(0.143496 1.52798e-07 -7.76044e-17)
(0.143496 2.64482e-07 -6.66752e-17)
(0.143496 3.80434e-07 -3.79641e-19)
(0.143496 4.9524e-07 -9.41955e-17)
(0.143496 6.03938e-07 -2.25948e-17)
(0.143496 7.02494e-07 -1.04266e-16)
(0.143496 7.88078e-07 -3.35618e-17)
(0.143496 8.59244e-07 -2.49192e-17)
(0.143496 9.15814e-07 4.46488e-18)
(0.143496 9.58763e-07 -6.83129e-17)
(0.143496 9.90369e-07 -1.48827e-17)
(0.143496 1.01105e-06 8.02595e-17)
(0.143497 1.03169e-06 6.50587e-17)
(0.143497 1.02072e-06 1.22637e-16)
(0.143497 1.024e-06 4.34523e-18)
(0.143497 1.04861e-06 5.76472e-17)
(0.143497 1.08052e-06 8.50223e-17)
(0.143497 1.14498e-06 1.29902e-16)
(0.143497 1.1896e-06 1.64204e-16)
(0.143498 1.20959e-06 8.35976e-17)
(0.143498 1.20986e-06 1.55196e-16)
(0.143498 1.1929e-06 2.16749e-16)
(0.143498 1.16e-06 2.46732e-16)
(0.143498 1.11391e-06 2.59384e-16)
(0.143499 1.05046e-06 1.64984e-16)
(0.143499 9.75341e-07 2.40204e-16)
(0.143499 8.68401e-07 2.70308e-16)
(0.143499 7.58687e-07 2.74411e-16)
(0.143499 5.5387e-07 3.04172e-16)
(0.143499 4.1366e-07 2.33038e-16)
(0.143499 -1.74393e-07 2.70143e-16)
(0.14364 1.28465e-07 3.34088e-16)
(0.14364 6.58561e-07 1.93891e-16)
(0.14364 9.24463e-07 2.52867e-16)
(0.14364 1.05251e-06 2.37236e-16)
(0.14364 1.08484e-06 2.80008e-16)
(0.14364 1.0981e-06 3.28696e-16)
(0.14364 1.06013e-06 1.81665e-16)
(0.14364 9.82751e-07 2.66885e-16)
(0.143639 8.85823e-07 1.33856e-16)
(0.143639 7.78045e-07 1.10062e-16)
(0.143639 6.66016e-07 2.01712e-16)
(0.143639 5.54289e-07 6.6535e-17)
(0.143639 4.45746e-07 1.32121e-16)
(0.143639 3.42291e-07 3.0641e-17)
(0.143639 2.45091e-07 3.16293e-17)
(0.143639 1.54818e-07 1.34552e-16)
(0.143639 7.19076e-08 7.88362e-18)
(0.143639 -3.16197e-09 8.50824e-17)
(0.143639 -6.95768e-08 -1.4803e-17)
(0.143639 -1.25999e-07 3.20025e-18)
(0.143639 -1.70515e-07 9.57903e-17)
(0.143639 -2.00731e-07 -4.43821e-17)
(0.143639 -2.1402e-07 4.61967e-17)
(0.143639 -2.07924e-07 -8.01769e-17)
(0.143639 -1.80635e-07 -6.48634e-17)
(0.14364 -1.31456e-07 3.66898e-17)
(0.14364 -6.11251e-08 -9.26371e-17)
(0.14364 2.80121e-08 -7.97852e-19)
(0.14364 1.32091e-07 -1.09412e-16)
(0.14364 2.46092e-07 -1.10869e-16)
(0.14364 3.64368e-07 -4.12595e-18)
(0.14364 4.81238e-07 -1.13146e-16)
(0.143641 5.91566e-07 -2.4943e-17)
(0.143641 6.91237e-07 -1.27552e-16)
(0.143641 7.7744e-07 -1.21607e-16)
(0.143641 8.48798e-07 -1.06665e-17)
(0.143641 9.05275e-07 -3.20105e-18)
(0.143641 9.47904e-07 -4.72808e-17)
(0.143641 9.79185e-07 3.57244e-17)
(0.143641 9.99319e-07 3.71927e-17)
(0.143641 1.01886e-06 1.06881e-16)
(0.143641 1.01028e-06 8.35988e-17)
(0.143641 1.01336e-06 3.93683e-17)
(0.143642 1.03459e-06 1.22203e-16)
(0.143642 1.06082e-06 1.03135e-16)
(0.143642 1.11547e-06 1.89885e-16)
(0.143642 1.15433e-06 1.84987e-16)
(0.143642 1.17336e-06 1.21483e-16)
(0.143643 1.17601e-06 2.3081e-16)
(0.143643 1.16322e-06 2.48835e-16)
(0.143643 1.13502e-06 3.09717e-16)
(0.143643 1.0935e-06 2.99153e-16)
(0.143643 1.03411e-06 2.12272e-16)
(0.143644 9.62513e-07 3.2468e-16)
(0.143644 8.58086e-07 2.89644e-16)
(0.143644 7.50376e-07 3.48478e-16)
(0.143644 5.43713e-07 3.40001e-16)
(0.143644 4.01482e-07 2.97187e-16)
(0.143644 -2.02296e-07 3.55081e-16)
(0.14376 1.0651e-07 3.67075e-16)
(0.14376 6.4435e-07 2.4225e-16)
(0.14376 9.14683e-07 2.69034e-16)
(0.14376 1.05051e-06 2.9993e-16)
(0.14376 1.09018e-06 3.21817e-16)
(0.14376 1.10478e-06 3.54019e-16)
(0.14376 1.06897e-06 2.27943e-16)
(0.14376 9.94197e-07 2.78236e-16)
(0.14376 8.99105e-07 1.6925e-16)
(0.14376 7.92349e-07 1.6673e-16)
(0.143759 6.80693e-07 2.21994e-16)
(0.143759 5.68829e-07 9.90881e-17)
(0.143759 4.59696e-07 1.49683e-16)
(0.143759 3.5516e-07 6.26848e-17)
(0.143759 2.56294e-07 8.76659e-17)
(0.143759 1.63674e-07 1.52345e-16)
(0.143759 7.76774e-08 2.39966e-18)
(0.143759 -1.19689e-09 1.04346e-16)
(0.143759 -7.20163e-08 2.2579e-17)
(0.143759 -1.33224e-07 4.94948e-17)
(0.143759 -1.82601e-07 1.11123e-16)
(0.143759 -2.17392e-07 -7.35883e-18)
(0.143759 -2.34606e-07 5.66206e-17)
(0.143759 -2.31476e-07 -4.20166e-17)
(0.14376 -2.05991e-07 -1.78115e-17)
(0.14376 -1.57395e-07 5.53423e-17)
(0.14376 -8.65263e-08 -5.27113e-17)
(0.14376 4.03608e-09 1.09893e-17)
(0.14376 1.10105e-07 -1.07097e-16)
(0.143761 2.26312e-07 -4.59642e-17)
(0.143761 3.4669e-07 2.23102e-17)
(0.143761 4.65318e-07 -1.14597e-16)
(0.143761 5.76916e-07 -9.39803e-18)
(0.143761 6.77331e-07 -1.29599e-16)
(0.143761 7.63803e-07 -6.01258e-17)
(0.143761 8.35056e-07 4.01878e-17)
(0.143761 8.91209e-07 4.5518e-17)
(0.143761 9.33366e-07 -2.37618e-17)
(0.143762 9.64211e-07 9.48388e-17)
(0.143762 9.8384e-07 1.07122e-16)
(0.143762 1.00234e-06 1.67527e-16)
(0.143762 9.95936e-07 1.52968e-16)
(0.143762 9.99235e-07 8.14494e-17)
(0.143762 1.0183e-06 1.94696e-16)
(0.143762 1.04079e-06 1.97882e-16)
(0.143763 1.08767e-06 2.70291e-16)
(0.143763 1.12126e-06 2.66978e-16)
(0.143763 1.13837e-06 1.81801e-16)
(0.143763 1.14179e-06 3.03529e-16)
(0.143763 1.1316e-06 3.29446e-16)
(0.143764 1.10697e-06 3.90559e-16)
(0.143764 1.0693e-06 3.72434e-16)
(0.143764 1.01367e-06 2.67565e-16)
(0.143764 9.45536e-07 3.88355e-16)
(0.143764 8.43912e-07 3.8596e-16)
(0.143764 7.38373e-07 4.40321e-16)
(0.143765 5.31591e-07 4.2537e-16)
(0.143765 3.86837e-07 3.13667e-16)
(0.143765 -2.1964e-07 4.59998e-16)
(0.14386 9.9524e-08 4.04629e-16)
(0.14386 6.34624e-07 3.39425e-16)
(0.14386 9.03699e-07 3.20936e-16)
(0.14386 1.04472e-06 3.59281e-16)
(0.14386 1.09033e-06 3.72736e-16)
(0.14386 1.10629e-06 3.82283e-16)
(0.14386 1.073e-06 3.10768e-16)
(0.14386 1.00148e-06 3.19341e-16)
(0.14386 9.09109e-07 2.47557e-16)
(0.14386 8.0434e-07 2.45419e-16)
(0.14386 6.93932e-07 2.51258e-16)
(0.14386 5.82611e-07 1.85042e-16)
(0.14386 4.7333e-07 1.92752e-16)
(0.14386 3.67923e-07 1.53425e-16)
(0.14386 2.67402e-07 1.62948e-16)
(0.14386 1.72288e-07 1.82901e-16)
(0.14386 8.29499e-08 1.29764e-16)
(0.14386 -3.98911e-11 1.48113e-16)
(0.14386 -7.55782e-08 1.08185e-16)
(0.14386 -1.41842e-07 1.24752e-16)
(0.14386 -1.96268e-07 1.38267e-16)
(0.14386 -2.35716e-07 7.45709e-17)
(0.14386 -2.56828e-07 9.94375e-17)
(0.14386 -2.56542e-07 4.26089e-17)
(0.14386 -2.32681e-07 6.30083e-17)
(0.143861 -1.84476e-07 8.70072e-17)
(0.143861 -1.12917e-07 3.26178e-17)
(0.143861 -2.08579e-08 5.92875e-17)
(0.143861 8.71636e-08 2.17408e-17)
(0.143861 2.05422e-07 4.04006e-17)
(0.143861 3.27647e-07 5.98031e-17)
(0.143862 4.47703e-07 1.707e-17)
(0.143862 5.60208e-07 3.74185e-17)
(0.143862 6.61007e-07 5.40607e-18)
(0.143862 7.47427e-07 2.22298e-17)
(0.143862 8.18314e-07 3.09964e-17)
(0.143862 8.73951e-07 8.32547e-17)
(0.143862 9.1552e-07 7.44924e-17)
(0.143862 9.45858e-07 1.14666e-16)
(0.143863 9.65025e-07 1.65781e-16)
(0.143863 9.82591e-07 1.55695e-16)
(0.143863 9.78143e-07 1.96728e-16)
(0.143863 9.81864e-07 1.84417e-16)
(0.143863 9.99477e-07 2.30485e-16)
(0.143863 1.01948e-06 2.77621e-16)
(0.143863 1.06025e-06 2.75825e-16)
(0.143864 1.08934e-06 3.22181e-16)
(0.143864 1.1043e-06 2.97427e-16)
(0.143864 1.10756e-06 3.51209e-16)
(0.143864 1.09886e-06 4.06514e-16)
(0.143865 1.07683e-06 3.97824e-16)
(0.143865 1.04235e-06 4.31155e-16)
(0.143865 9.90109e-07 3.92481e-16)
(0.143865 9.25296e-07 4.2698e-16)
(0.143865 8.26691e-07 4.70206e-16)
(0.143865 7.23447e-07 4.55104e-16)
(0.143866 5.18161e-07 4.88949e-16)
(0.143866 3.70754e-07 4.85825e-16)
(0.143866 -2.2762e-07 5.15035e-16)
(0.143945 1.04746e-07 4.46663e-16)
(0.143945 6.28895e-07 4.22646e-16)
(0.143945 8.92494e-07 3.78753e-16)
(0.143945 1.03655e-06 4.26627e-16)
(0.143945 1.08681e-06 4.22957e-16)
(0.143945 1.10404e-06 4.12585e-16)
(0.143945 1.07338e-06 3.89343e-16)
(0.143945 1.00546e-06 3.62787e-16)
(0.143945 9.1637e-07 3.26884e-16)
(0.143945 8.14255e-07 3.24795e-16)
(0.143945 7.0574e-07 2.80172e-16)
(0.143945 5.95484e-07 2.55924e-16)
(0.143945 4.86408e-07 2.4272e-16)
(0.143945 3.80303e-07 2.30124e-16)
(0.143945 2.78134e-07 2.44939e-16)
(0.143944 1.80402e-07 2.15164e-16)
(0.143944 8.7514e-08 2.03031e-16)
(0.143944 1.63734e-10 1.99584e-16)
(0.143944 -8.03272e-08 1.91429e-16)
(0.143944 -1.51827e-07 2.05492e-16)
(0.143945 -2.11395e-07 1.68586e-16)
(0.143945 -2.55493e-07 1.53128e-16)
(0.143945 -2.80397e-07 1.49859e-16)
(0.143945 -2.82775e-07 1.3294e-16)
(0.143945 -2.60324e-07 1.50549e-16)
(0.143945 -2.12315e-07 1.22201e-16)
(0.143946 -1.39932e-07 1.14741e-16)
(0.143946 -4.63421e-08 1.1481e-16)
(0.143946 6.35506e-08 1.10073e-16)
(0.143946 1.83666e-07 1.29213e-16)
(0.143946 3.07451e-07 9.8565e-17)
(0.143946 4.28591e-07 9.36341e-17)
(0.143947 5.41642e-07 9.25877e-17)
(0.143947 6.42487e-07 8.76476e-17)
(0.143947 7.28567e-07 1.10593e-16)
(0.143947 7.98867e-07 2.79616e-17)
(0.143947 8.53835e-07 1.35973e-16)
(0.143947 8.94736e-07 1.74246e-16)
(0.143947 9.24525e-07 1.51062e-16)
(0.143948 9.43279e-07 2.34198e-16)
(0.143948 9.60023e-07 1.41618e-16)
(0.143948 9.57342e-07 2.50445e-16)
(0.143948 9.61573e-07 2.99817e-16)
(0.143948 9.78148e-07 2.80722e-16)
(0.143948 9.96455e-07 3.64158e-16)
(0.143948 1.03239e-06 2.76734e-16)
(0.143949 1.05782e-06 3.85806e-16)
(0.143949 1.07075e-06 4.33206e-16)
(0.143949 1.07341e-06 4.14382e-16)
(0.143949 1.06548e-06 4.95336e-16)
(0.14395 1.04533e-06 4.00851e-16)
(0.14395 1.01345e-06 4.98231e-16)
(0.14395 9.6426e-07 5.27544e-16)
(0.14395 9.02586e-07 4.87642e-16)
(0.14395 8.07163e-07 5.62509e-16)
(0.14395 7.06318e-07 4.64037e-16)
(0.143951 5.04016e-07 5.6192e-16)
(0.143951 3.5414e-07 6.21572e-16)
(0.143951 -2.27389e-07 5.83599e-16)
(0.144017 1.19699e-07 4.90176e-16)
(0.144017 6.26622e-07 4.98159e-16)
(0.144017 8.81742e-07 4.29868e-16)
(0.144017 1.02704e-06 5.05427e-16)
(0.144017 1.08083e-06 4.68283e-16)
(0.144017 1.09918e-06 4.42267e-16)
(0.144017 1.07114e-06 4.53596e-16)
(0.144017 1.00693e-06 3.99118e-16)
(0.144017 9.21435e-07 3.94059e-16)
(0.144017 8.22393e-07 4.02766e-16)
(0.144017 7.16205e-07 2.95864e-16)
(0.144017 6.07384e-07 3.2451e-16)
(0.144017 4.98766e-07 2.90034e-16)
(0.144017 3.92082e-07 3.03985e-16)
(0.144017 2.8826e-07 3.28873e-16)
(0.144017 1.87809e-07 2.35372e-16)
(0.144017 9.12093e-08 2.74757e-16)
(0.144017 -6.80091e-10 2.48772e-16)
(0.144017 -8.62761e-08 2.66556e-16)
(0.144017 -1.63102e-07 2.88208e-16)
(0.144017 -2.27817e-07 1.87631e-16)
(0.144017 -2.76474e-07 2.25094e-16)
(0.144017 -3.04999e-07 1.98644e-16)
(0.144017 -3.0982e-07 2.13171e-16)
(0.144018 -2.88553e-07 2.38907e-16)
(0.144018 -2.40554e-07 1.46014e-16)
(0.144018 -1.67245e-07 1.90505e-16)
(0.144018 -7.21338e-08 1.68092e-16)
(0.144018 3.95021e-08 1.90302e-16)
(0.144018 1.61241e-07 2.18551e-16)
(0.144019 2.86274e-07 1.24909e-16)
(0.144019 4.08149e-07 1.69424e-16)
(0.144019 5.214e-07 1.4641e-16)
(0.144019 6.2198e-07 1.67616e-16)
(0.144019 7.07467e-07 1.99258e-16)
(0.144019 7.76998e-07 8.2385e-17)
(0.144019 8.31183e-07 1.50678e-16)
(0.14402 8.71366e-07 2.83525e-16)