/*--------------------------------*- C++ -*----------------------------------*\
  =========                 |
  \\      /  F ield         | OpenFOAM: The Open Source CFD Toolbox
   \\    /   O peration     | Website:  https://openfoam.org
    \\  /    A nd           | Version:  7
     \\/     M anipulation  |
\*---------------------------------------------------------------------------*/
FoamFile
{
    version     2.0;
    format      ascii;
    class       volVectorField;
    location    "16500";
    object      U;
}
// * * * * * * * * * * * * * * * * * * * * * * * * * * * * * * * * * * * * * //

dimensions      [0 1 -1 0 0 0 0];

internalField   nonuniform List<vector> 
3974
(
(0.116731 2.5692e-08 2.19169e-14)
(0.116731 2.90307e-08 2.19446e-14)
(0.116731 3.00121e-08 2.19055e-14)
(0.116731 3.03382e-08 2.19517e-14)
(0.116731 3.0359e-08 2.1931e-14)
(0.116731 3.01385e-08 2.19413e-14)
(0.116731 3.00144e-08 2.19031e-14)
(0.116731 3.02221e-08 2.18439e-14)
(0.116731 3.07743e-08 2.19027e-14)
(0.116731 3.17124e-08 2.18795e-14)
(0.116731 3.29335e-08 2.18463e-14)
(0.116731 3.45246e-08 2.18116e-14)
(0.116731 3.62492e-08 2.17109e-14)
(0.116731 3.78574e-08 2.18163e-14)
(0.116731 3.9432e-08 2.17761e-14)
(0.116731 4.08785e-08 2.17853e-14)
(0.116732 4.20824e-08 2.17506e-14)
(0.116732 4.31654e-08 2.16619e-14)
(0.116732 4.39676e-08 2.17683e-14)
(0.116732 4.44307e-08 2.1676e-14)
(0.116732 4.48636e-08 2.17481e-14)
(0.116732 4.50082e-08 2.17329e-14)
(0.116732 4.49121e-08 2.16325e-14)
(0.116732 4.46879e-08 2.17424e-14)
(0.116732 4.42609e-08 2.16997e-14)
(0.116732 4.37454e-08 2.17081e-14)
(0.116732 4.316e-08 2.16966e-14)
(0.116732 4.24024e-08 2.16538e-14)
(0.116732 4.14424e-08 2.17114e-14)
(0.116732 4.05952e-08 2.16074e-14)
(0.116732 3.96473e-08 2.16489e-14)
(0.116732 3.83779e-08 2.17184e-14)
(0.116732 3.71225e-08 2.16169e-14)
(0.116732 3.59627e-08 2.16833e-14)
(0.116732 3.45201e-08 2.17259e-14)
(0.116732 3.29224e-08 2.16264e-14)
(0.116732 3.11392e-08 2.16784e-14)
(0.116732 2.93098e-08 2.15755e-14)
(0.117781 -8.50214e-10 2.23881e-14)
(0.117781 1.14234e-08 2.23479e-14)
(0.117781 1.81404e-08 2.23475e-14)
(0.117781 2.17231e-08 2.23747e-14)
(0.117781 2.37691e-08 2.23076e-14)
(0.117781 2.47902e-08 2.23484e-14)
(0.117782 2.5251e-08 2.23185e-14)
(0.117782 2.53789e-08 2.23448e-14)
(0.117782 2.55402e-08 2.23457e-14)
(0.117782 2.59104e-08 2.22417e-14)
(0.117782 2.66408e-08 2.23e-14)
(0.117782 2.77569e-08 2.22592e-14)
(0.117782 2.91202e-08 2.22548e-14)
(0.117782 3.08151e-08 2.22491e-14)
(0.117782 3.26134e-08 2.21601e-14)
(0.117782 3.4383e-08 2.2201e-14)
(0.117782 3.61216e-08 2.215e-14)
(0.117782 3.7693e-08 2.21728e-14)
(0.117782 3.90166e-08 2.21766e-14)
(0.117782 4.02112e-08 2.20982e-14)
(0.117782 4.1181e-08 2.21488e-14)
(0.117782 4.18487e-08 2.20825e-14)
(0.117782 4.24556e-08 2.21384e-14)
(0.117782 4.27643e-08 2.2154e-14)
(0.117782 4.2849e-08 2.20717e-14)
(0.117782 4.28124e-08 2.21167e-14)
(0.117782 4.25735e-08 2.20478e-14)
(0.117782 4.22201e-08 2.2099e-14)
(0.117782 4.18063e-08 2.21146e-14)
(0.117782 4.12581e-08 2.20378e-14)
(0.117782 4.05444e-08 2.20805e-14)
(0.117782 3.98522e-08 2.20095e-14)
(0.117782 3.90758e-08 2.20386e-14)
(0.117782 3.80073e-08 2.21064e-14)
(0.117782 3.68809e-08 2.20582e-14)
(0.117782 3.59196e-08 2.2073e-14)
(0.117782 3.46431e-08 2.21001e-14)
(0.117782 3.32846e-08 2.20512e-14)
(0.117782 3.13556e-08 2.20722e-14)
(0.117782 3.19557e-08 2.20184e-14)
(0.117782 3.17097e-08 2.20527e-14)
(0.117782 2.66856e-08 2.21058e-14)
(0.118799 -5.17941e-08 2.28223e-14)
(0.118799 -2.27291e-08 2.2741e-14)
(0.118799 -3.08254e-09 2.27813e-14)
(0.118799 6.45258e-09 2.27806e-14)
(0.118799 1.09467e-08 2.27791e-14)
(0.118799 1.49854e-08 2.2795e-14)
(0.118799 1.74822e-08 2.27102e-14)
(0.1188 1.88176e-08 2.27497e-14)
(0.1188 1.95638e-08 2.26906e-14)
(0.1188 2.0017e-08 2.27564e-14)
(0.1188 2.04587e-08 2.27767e-14)
(0.1188 2.10206e-08 2.26394e-14)
(0.1188 2.19185e-08 2.26992e-14)
(0.1188 2.32491e-08 2.26259e-14)
(0.1188 2.47685e-08 2.26607e-14)
(0.1188 2.65777e-08 2.26735e-14)
(0.1188 2.85284e-08 2.25552e-14)
(0.1188 3.0472e-08 2.25971e-14)
(0.1188 3.23948e-08 2.25115e-14)
(0.1188 3.41341e-08 2.25728e-14)
(0.1188 3.5615e-08 2.25936e-14)
(0.1188 3.69274e-08 2.249e-14)
(0.1188 3.80822e-08 2.25355e-14)
(0.1188 3.89919e-08 2.24756e-14)
(0.1188 3.98044e-08 2.25346e-14)
(0.1188 4.03026e-08 2.25664e-14)
(0.1188 4.05908e-08 2.24595e-14)
(0.1188 4.07645e-08 2.25036e-14)
(0.1188 4.07357e-08 2.24238e-14)
(0.1188 4.05697e-08 2.24965e-14)
(0.1188 4.0369e-08 2.25259e-14)
(0.1188 4.00705e-08 2.24146e-14)
(0.1188 3.95845e-08 2.24638e-14)
(0.1188 3.90582e-08 2.23746e-14)
(0.1188 3.84574e-08 2.24306e-14)
(0.1188 3.75954e-08 2.24979e-14)
(0.1188 3.66845e-08 2.24799e-14)
(0.1188 3.59104e-08 2.24663e-14)
(0.1188 3.47877e-08 2.24758e-14)
(0.1188 3.37021e-08 2.24541e-14)
(0.1188 3.18155e-08 2.24633e-14)
(0.1188 3.33755e-08 2.24365e-14)
(0.1188 3.52196e-08 2.24447e-14)
(0.1188 3.39002e-08 2.24823e-14)
(0.1188 2.99154e-08 2.24701e-14)
(0.1188 2.14096e-08 2.24784e-14)
(0.1188 1.25866e-08 2.24543e-14)
(0.1188 4.49544e-09 2.24613e-14)
(0.1188 -3.23339e-09 2.249e-14)
(0.1188 -1.07779e-08 2.24869e-14)
(0.1188 -1.81664e-08 2.25027e-14)
(0.1188 -2.55726e-08 2.24756e-14)
(0.1188 -3.26509e-08 2.24779e-14)
(0.1188 -3.93021e-08 2.24996e-14)
(0.1188 -4.41044e-08 2.2493e-14)
(0.1188 -4.83148e-08 2.25173e-14)
(0.118799 -4.5956e-08 2.2498e-14)
(0.118799 -4.33526e-08 2.25132e-14)
(0.118799 -2.28707e-08 2.25366e-14)
(0.119787 -4.84167e-08 2.32262e-14)
(0.119787 -2.13842e-08 2.30758e-14)
(0.119787 -4.66731e-09 2.31857e-14)
(0.119787 4.30292e-09 2.32095e-14)
(0.119787 7.43101e-09 2.31961e-14)
(0.119787 1.0109e-08 2.32084e-14)
(0.119787 1.19734e-08 2.30896e-14)
(0.119787 1.31329e-08 2.31596e-14)
(0.119787 1.38878e-08 2.3073e-14)
(0.119787 1.44819e-08 2.31789e-14)
(0.119787 1.5131e-08 2.3198e-14)
(0.119787 1.5809e-08 2.30363e-14)
(0.119787 1.68547e-08 2.3102e-14)
(0.119787 1.83947e-08 2.30037e-14)
(0.119787 2.00762e-08 2.30749e-14)
(0.119787 2.1996e-08 2.30862e-14)
(0.119787 2.41053e-08 2.29316e-14)
(0.119787 2.62271e-08 2.3007e-14)
(0.119787 2.83394e-08 2.28992e-14)
(0.119787 3.02868e-08 2.2985e-14)
(0.119788 3.19254e-08 2.3003e-14)
(0.119788 3.34104e-08 2.28624e-14)
(0.119788 3.47959e-08 2.29335e-14)
(0.119788 3.58993e-08 2.28019e-14)
(0.119788 3.6914e-08 2.29446e-14)
(0.119788 3.76656e-08 2.29712e-14)
(0.119788 3.81825e-08 2.28299e-14)
(0.119788 3.85846e-08 2.29022e-14)
(0.119788 3.8783e-08 2.27581e-14)
(0.119788 3.8868e-08 2.29072e-14)
(0.119788 3.89026e-08 2.29302e-14)
(0.119788 3.88152e-08 2.27852e-14)
(0.119788 3.8589e-08 2.28615e-14)
(0.119788 3.82357e-08 2.2749e-14)
(0.119788 3.78253e-08 2.28361e-14)
(0.119788 3.72222e-08 2.28941e-14)
(0.119788 3.6502e-08 2.28861e-14)
(0.119788 3.59282e-08 2.28528e-14)
(0.119788 3.5032e-08 2.28488e-14)
(0.119788 3.41788e-08 2.28454e-14)
(0.119788 3.2554e-08 2.28506e-14)
(0.119788 3.32161e-08 2.28403e-14)
(0.119788 3.53144e-08 2.28344e-14)
(0.119788 3.73479e-08 2.28571e-14)
(0.119788 3.70874e-08 2.28611e-14)
(0.119788 3.06265e-08 2.28648e-14)
(0.119788 2.19816e-08 2.28566e-14)
(0.119788 1.33848e-08 2.28433e-14)
(0.119787 5.09948e-09 2.28642e-14)
(0.119787 -2.91935e-09 2.28764e-14)
(0.119787 -1.07487e-08 2.28868e-14)
(0.119787 -1.85502e-08 2.28777e-14)
(0.119787 -2.60058e-08 2.28671e-14)
(0.119787 -3.30153e-08 2.28747e-14)
(0.119787 -3.81336e-08 2.28833e-14)
(0.119787 -4.26755e-08 2.29027e-14)
(0.119787 -4.04545e-08 2.29007e-14)
(0.119787 -3.84573e-08 2.2909e-14)
(0.119787 -1.62664e-08 2.29191e-14)
(0.120745 -4.61327e-08 2.36271e-14)
(0.120745 -1.85537e-08 2.35619e-14)
(0.120745 -3.32236e-09 2.36111e-14)
(0.120745 4.19128e-09 2.35991e-14)
(0.120745 5.9754e-09 2.36098e-14)
(0.120745 7.05604e-09 2.36123e-14)
(0.120745 7.80084e-09 2.35383e-14)
(0.120745 8.2766e-09 2.35877e-14)
(0.120745 8.67427e-09 2.35174e-14)
(0.120745 9.18466e-09 2.36297e-14)
(0.120745 9.84007e-09 2.35992e-14)
(0.120745 1.05868e-08 2.34701e-14)
(0.120745 1.17367e-08 2.35265e-14)
(0.120746 1.33611e-08 2.34435e-14)
(0.120746 1.51564e-08 2.3517e-14)
(0.120746 1.72436e-08 2.34812e-14)
(0.120746 1.9543e-08 2.33739e-14)
(0.120746 2.17835e-08 2.34387e-14)
(0.120746 2.40488e-08 2.33398e-14)
(0.120746 2.62243e-08 2.34322e-14)
(0.120746 2.80619e-08 2.33956e-14)
(0.120746 2.97574e-08 2.32991e-14)
(0.120746 3.13417e-08 2.33586e-14)
(0.120746 3.26621e-08 2.32875e-14)
(0.120746 3.39138e-08 2.33828e-14)
(0.120746 3.49112e-08 2.3361e-14)
(0.120746 3.56744e-08 2.32672e-14)
(0.120746 3.63178e-08 2.33158e-14)
(0.120746 3.67572e-08 2.32365e-14)
(0.120746 3.70877e-08 2.33576e-14)
(0.120746 3.74075e-08 2.33196e-14)
(0.120746 3.75689e-08 2.32108e-14)
(0.120746 3.75591e-08 2.32889e-14)
(0.120746 3.74115e-08 2.3186e-14)
(0.120746 3.7217e-08 2.32798e-14)
(0.120746 3.69002e-08 2.32888e-14)
(0.120746 3.64106e-08 2.32791e-14)
(0.120746 3.60226e-08 2.32294e-14)
(0.120746 3.5354e-08 2.32168e-14)
(0.120746 3.46966e-08 2.32296e-14)
(0.120746 3.34649e-08 2.32334e-14)
(0.120746 3.32491e-08 2.32354e-14)
(0.120746 3.47762e-08 2.32193e-14)
(0.120746 3.74421e-08 2.323e-14)
(0.120746 3.93482e-08 2.32465e-14)
(0.120746 3.64582e-08 2.32469e-14)
(0.120746 2.97161e-08 2.32505e-14)
(0.120746 2.16676e-08 2.32097e-14)
(0.120746 1.33582e-08 2.32339e-14)
(0.120746 5.09084e-09 2.32606e-14)
(0.120746 -3.05372e-09 2.32675e-14)
(0.120746 -1.10949e-08 2.32711e-14)
(0.120746 -1.88468e-08 2.32541e-14)
(0.120746 -2.61686e-08 2.32484e-14)
(0.120745 -3.15776e-08 2.32684e-14)
(0.120745 -3.64851e-08 2.32848e-14)
(0.120745 -3.44163e-08 2.32961e-14)
(0.120745 -3.30066e-08 2.33039e-14)
(0.120745 -9.90127e-09 2.32999e-14)
(0.121676 -4.48871e-08 2.40029e-14)
(0.121676 -1.59603e-08 2.39852e-14)
(0.121676 -1.15632e-09 2.40136e-14)
(0.121676 5.25051e-09 2.39804e-14)
(0.121676 5.90893e-09 2.39805e-14)
(0.121676 5.55883e-09 2.40475e-14)
(0.121676 5.01506e-09 2.3969e-14)
(0.121676 4.52663e-09 2.39977e-14)
(0.121676 4.30998e-09 2.39677e-14)
(0.121676 4.42597e-09 2.41223e-14)
(0.121676 4.88073e-09 2.3972e-14)
(0.121676 5.59735e-09 2.3914e-14)
(0.121676 6.74544e-09 2.39754e-14)
(0.121676 8.36783e-09 2.38857e-14)
(0.121676 1.0277e-08 2.39662e-14)
(0.121676 1.25026e-08 2.38504e-14)
(0.121676 1.49029e-08 2.37994e-14)
(0.121676 1.72389e-08 2.3882e-14)
(0.121676 1.96544e-08 2.37967e-14)
(0.121676 2.20704e-08 2.39203e-14)
(0.121676 2.41219e-08 2.37627e-14)
(0.121676 2.60181e-08 2.37232e-14)
(0.121676 2.78267e-08 2.37552e-14)
(0.121676 2.93504e-08 2.37172e-14)
(0.121676 3.08245e-08 2.38164e-14)
(0.121676 3.21033e-08 2.37256e-14)
(0.121676 3.3127e-08 2.36878e-14)
(0.121676 3.40129e-08 2.37216e-14)
(0.121676 3.47034e-08 2.36803e-14)
(0.121676 3.5323e-08 2.37958e-14)
(0.121676 3.59282e-08 2.36854e-14)
(0.121676 3.63175e-08 2.36342e-14)
(0.121676 3.65376e-08 2.37247e-14)
(0.121676 3.66306e-08 2.36289e-14)
(0.121676 3.66797e-08 2.37154e-14)
(0.121676 3.66445e-08 2.36736e-14)
(0.121676 3.64128e-08 2.36597e-14)
(0.121676 3.62417e-08 2.36127e-14)
(0.121676 3.57789e-08 2.35815e-14)
(0.121676 3.52914e-08 2.361e-14)
(0.121676 3.44708e-08 2.3611e-14)
(0.121676 3.37885e-08 2.36254e-14)
(0.121676 3.45321e-08 2.36113e-14)
(0.121676 3.67669e-08 2.36009e-14)
(0.121676 3.94635e-08 2.36295e-14)
(0.121676 3.93689e-08 2.36238e-14)
(0.121676 3.51687e-08 2.36397e-14)
(0.121676 2.85714e-08 2.36084e-14)
(0.121676 2.08958e-08 2.35996e-14)
(0.121676 1.27834e-08 2.36443e-14)
(0.121676 4.61558e-09 2.36444e-14)
(0.121676 -3.53644e-09 2.3659e-14)
(0.121676 -1.14434e-08 2.36422e-14)
(0.121676 -1.89731e-08 2.36203e-14)
(0.121676 -2.46648e-08 2.36519e-14)
(0.121676 -2.98621e-08 2.36632e-14)
(0.121676 -2.80421e-08 2.36874e-14)
(0.121676 -2.72027e-08 2.36972e-14)
(0.121676 -3.68475e-09 2.36763e-14)
(0.12258 -4.44829e-08 2.43854e-14)
(0.12258 -1.41467e-08 2.43915e-14)
(0.12258 9.53718e-10 2.44183e-14)
(0.12258 6.81607e-09 2.43393e-14)
(0.12258 6.71432e-09 2.43587e-14)
(0.12258 5.19921e-09 2.43865e-14)
(0.12258 3.43466e-09 2.43892e-14)
(0.12258 1.9176e-09 2.44101e-14)
(0.12258 9.01301e-10 2.43917e-14)
(0.12258 4.33996e-10 2.4449e-14)
(0.12258 4.86207e-10 2.43875e-14)
(0.12258 1.0159e-09 2.43392e-14)
(0.12258 2.07116e-09 2.43345e-14)
(0.12258 3.60421e-09 2.43026e-14)
(0.12258 5.55145e-09 2.43312e-14)
(0.12258 7.87729e-09 2.4267e-14)
(0.12258 1.03277e-08 2.42231e-14)
(0.12258 1.27756e-08 2.425e-14)
(0.12258 1.52985e-08 2.42156e-14)
(0.12258 1.78919e-08 2.42434e-14)
(0.12258 2.01484e-08 2.4175e-14)
(0.12258 2.22442e-08 2.41452e-14)
(0.12258 2.43066e-08 2.4165e-14)
(0.12258 2.60624e-08 2.41271e-14)
(0.12258 2.77617e-08 2.41766e-14)
(0.12258 2.9324e-08 2.41317e-14)
(0.12258 3.06112e-08 2.41063e-14)
(0.12258 3.17222e-08 2.41224e-14)
(0.12258 3.26725e-08 2.41016e-14)
(0.12258 3.35859e-08 2.41642e-14)
(0.12258 3.44744e-08 2.40919e-14)
(0.12258 3.51062e-08 2.40524e-14)
(0.12258 3.55706e-08 2.4091e-14)
(0.12258 3.59558e-08 2.40413e-14)
(0.12258 3.62775e-08 2.4084e-14)
(0.12258 3.65004e-08 2.40246e-14)
(0.12258 3.65103e-08 2.40328e-14)
(0.12258 3.65741e-08 2.39863e-14)
(0.12258 3.63265e-08 2.39446e-14)
(0.12258 3.59849e-08 2.39907e-14)
(0.12258 3.56207e-08 2.39818e-14)
(0.12258 3.47722e-08 2.40134e-14)
(0.12258 3.47846e-08 2.39969e-14)
(0.12258 3.62918e-08 2.39688e-14)
(0.12258 3.88945e-08 2.40142e-14)
(0.12258 4.04473e-08 2.39947e-14)
(0.12258 3.85674e-08 2.40272e-14)
(0.12258 3.38224e-08 2.39824e-14)
(0.12258 2.72831e-08 2.39721e-14)
(0.12258 1.97844e-08 2.40303e-14)
(0.12258 1.18891e-08 2.40166e-14)
(0.12258 3.83391e-09 2.40446e-14)
(0.12258 -4.03365e-09 2.40265e-14)
(0.12258 -1.16511e-08 2.39881e-14)
(0.12258 -1.75784e-08 2.40379e-14)
(0.12258 -2.30257e-08 2.40365e-14)
(0.12258 -2.14621e-08 2.4079e-14)
(0.12258 -2.11814e-08 2.40879e-14)
(0.12258 2.44017e-09 2.40454e-14)
(0.123458 -4.45588e-08 2.47529e-14)
(0.123458 -1.31123e-08 2.47936e-14)
(0.123458 2.51429e-09 2.47867e-14)
(0.123458 8.37935e-09 2.46773e-14)
(0.123458 7.85162e-09 2.4704e-14)
(0.123458 5.51282e-09 2.47689e-14)
(0.123458 2.78522e-09 2.48019e-14)
(0.123458 2.98533e-10 2.47899e-14)
(0.123458 -1.55922e-09 2.48029e-14)
(0.123458 -2.75616e-09 2.48055e-14)
(0.123458 -3.21534e-09 2.4773e-14)
(0.123458 -3.00676e-09 2.4751e-14)
(0.123458 -2.17835e-09 2.47088e-14)
(0.123458 -7.63441e-10 2.47033e-14)
(0.123458 1.16413e-09 2.46892e-14)
(0.123458 3.49082e-09 2.4657e-14)
(0.123458 5.93987e-09 2.46375e-14)
(0.123458 8.45614e-09 2.46147e-14)
(0.123458 1.10747e-08 2.46183e-14)
(0.123458 1.3813e-08 2.45941e-14)
(0.123458 1.62803e-08 2.45602e-14)
(0.123458 1.85777e-08 2.45578e-14)
(0.123458 2.08569e-08 2.45337e-14)
(0.123458 2.28471e-08 2.453e-14)
(0.123458 2.4777e-08 2.45153e-14)
(0.123458 2.65768e-08 2.45109e-14)
(0.123458 2.8117e-08 2.45154e-14)
(0.123458 2.94911e-08 2.45032e-14)
(0.123458 3.07247e-08 2.45088e-14)
(0.123458 3.19627e-08 2.45061e-14)
(0.123458 3.31262e-08 2.44737e-14)
(0.123458 3.39843e-08 2.44628e-14)
(0.123458 3.47096e-08 2.44572e-14)
(0.123458 3.54002e-08 2.44416e-14)
(0.123458 3.60078e-08 2.4431e-14)
(0.123458 3.64641e-08 2.43542e-14)
(0.123458 3.67377e-08 2.44044e-14)
(0.123458 3.70444e-08 2.43648e-14)
(0.123458 3.70145e-08 2.43007e-14)
(0.123458 3.69094e-08 2.43763e-14)
(0.123458 3.69092e-08 2.43421e-14)
(0.123458 3.60898e-08 2.44043e-14)
(0.123458 3.56192e-08 2.43855e-14)
(0.123458 3.63863e-08 2.43253e-14)
(0.123458 3.84317e-08 2.44071e-14)
(0.123458 4.06337e-08 2.43568e-14)
(0.123458 4.04883e-08 2.44239e-14)
(0.123458 3.75444e-08 2.43851e-14)
(0.123458 3.24144e-08 2.43325e-14)
(0.123458 2.58728e-08 2.44277e-14)
(0.123458 1.85593e-08 2.43813e-14)
(0.123458 1.08225e-08 2.44324e-14)
(0.123458 3.1214e-09 2.44073e-14)
(0.123458 -4.43648e-09 2.43469e-14)
(0.123458 -1.04827e-08 2.44317e-14)
(0.123458 -1.60943e-08 2.44016e-14)
(0.123458 -1.48491e-08 2.44772e-14)
(0.123458 -1.51091e-08 2.44745e-14)
(0.123458 8.50923e-09 2.44022e-14)
(0.124311 -4.49523e-08 2.51344e-14)
(0.124311 -1.27489e-08 2.51095e-14)
(0.124311 3.46938e-09 2.51391e-14)
(0.124311 9.55496e-09 2.49956e-14)
(0.124311 8.92201e-09 2.50675e-14)
(0.124311 6.09463e-09 2.51615e-14)
(0.124311 2.67779e-09 2.51224e-14)
(0.124311 -5.82311e-10 2.5157e-14)
(0.124311 -3.24082e-09 2.51193e-14)
(0.124311 -5.13652e-09 2.5155e-14)
(0.124311 -6.17688e-09 2.5146e-14)
(0.124311 -6.43524e-09 2.50664e-14)
(0.124311 -5.89448e-09 2.50697e-14)
(0.124311 -4.63978e-09 2.5009e-14)
(0.124311 -2.84755e-09 2.50353e-14)
(0.124311 -5.88267e-10 2.5035e-14)
(0.124312 1.87617e-09 2.49565e-14)
(0.124312 4.43574e-09 2.49673e-14)
(0.124312 7.09395e-09 2.49271e-14)
(0.124312 9.92003e-09 2.49324e-14)
(0.124312 1.25557e-08 2.49344e-14)
(0.124312 1.50526e-08 2.48765e-14)
(0.124312 1.75482e-08 2.48953e-14)
(0.124312 1.9766e-08 2.48418e-14)
(0.124312 2.19295e-08 2.48401e-14)
(0.124312 2.39693e-08 2.48786e-14)
(0.124312 2.5751e-08 2.48289e-14)
(0.124312 2.73774e-08 2.48724e-14)
(0.124312 2.8937e-08 2.48238e-14)
(0.124312 3.04725e-08 2.48406e-14)
(0.124312 3.18669e-08 2.48467e-14)
(0.124312 3.29945e-08 2.47799e-14)
(0.124312 3.40241e-08 2.48245e-14)
(0.124312 3.50281e-08 2.47528e-14)
(0.124312 3.591e-08 2.4768e-14)
(0.124312 3.65881e-08 2.47504e-14)
(0.124312 3.70998e-08 2.47915e-14)
(0.124312 3.76427e-08 2.4726e-14)
(0.124312 3.78958e-08 2.47381e-14)
(0.124312 3.8078e-08 2.47751e-14)
(0.124312 3.83708e-08 2.4772e-14)
(0.124312 3.76549e-08 2.48044e-14)
(0.124312 3.69261e-08 2.47569e-14)
(0.124312 3.7145e-08 2.47482e-14)
(0.124312 3.85064e-08 2.48229e-14)
(0.124312 4.07163e-08 2.47904e-14)
(0.124312 4.16302e-08 2.48471e-14)
(0.124312 4.01806e-08 2.47626e-14)
(0.124312 3.63921e-08 2.47598e-14)
(0.124312 3.09454e-08 2.48517e-14)
(0.124312 2.44709e-08 2.48193e-14)
(0.124312 1.72639e-08 2.483e-14)
(0.124312 9.891e-09 2.47727e-14)
(0.124312 2.51615e-09 2.47802e-14)
(0.124311 -3.54822e-09 2.48413e-14)
(0.124311 -9.22269e-09 2.48385e-14)
(0.124311 -8.32811e-09 2.48931e-14)
(0.124311 -9.19665e-09 2.48494e-14)
(0.124311 1.44525e-08 2.48278e-14)
(0.125141 -4.54432e-08 2.55515e-14)
(0.125141 -1.28394e-08 2.54114e-14)
(0.125141 3.77152e-09 2.54787e-14)
(0.125141 1.01778e-08 2.53684e-14)
(0.125141 9.61507e-09 2.54471e-14)
(0.125141 6.62295e-09 2.55865e-14)
(0.125141 2.84917e-09 2.54201e-14)
(0.125141 -1.00534e-09 2.55004e-14)
(0.125141 -4.36703e-09 2.54139e-14)
(0.125141 -6.90009e-09 2.55368e-14)
(0.125141 -8.5088e-09 2.55132e-14)
(0.125141 -9.21297e-09 2.53604e-14)
(0.125141 -8.98852e-09 2.54134e-14)
(0.125141 -7.99049e-09 2.52951e-14)
(0.125141 -6.37463e-09 2.53825e-14)
(0.125141 -4.24949e-09 2.54058e-14)
(0.125141 -1.82591e-09 2.52543e-14)
(0.125141 7.15452e-10 2.53534e-14)
(0.125141 3.442e-09 2.52174e-14)
(0.125141 6.33608e-09 2.52481e-14)
(0.125141 9.07294e-09 2.53045e-14)
(0.125141 1.17774e-08 2.51763e-14)
(0.125141 1.44465e-08 2.52501e-14)
(0.125141 1.68883e-08 2.51346e-14)
(0.125141 1.92877e-08 2.51583e-14)
(0.125141 2.15357e-08 2.52427e-14)
(0.125141 2.35569e-08 2.51204e-14)
(0.125141 2.54536e-08 2.52882e-14)
(0.125141 2.7318e-08 2.51215e-14)
(0.125141 2.91577e-08 2.5197e-14)
(0.125141 3.07851e-08 2.52144e-14)
(0.125141 3.22066e-08 2.50772e-14)
(0.125141 3.35202e-08 2.52065e-14)
(0.125141 3.4777e-08 2.50483e-14)
(0.125141 3.59884e-08 2.50846e-14)
(0.125141 3.69308e-08 2.51345e-14)
(0.125141 3.76642e-08 2.52307e-14)
(0.125141 3.84293e-08 2.5065e-14)
(0.125141 3.90227e-08 2.51294e-14)
(0.125141 3.94735e-08 2.51671e-14)
(0.125141 3.9952e-08 2.51891e-14)
(0.125141 3.94443e-08 2.51943e-14)
(0.125141 3.86764e-08 2.5103e-14)
(0.125141 3.85877e-08 2.51569e-14)
(0.125141 3.93228e-08 2.52393e-14)
(0.125141 4.11496e-08 2.52137e-14)
(0.125141 4.25177e-08 2.52236e-14)
(0.125141 4.20975e-08 2.51155e-14)
(0.125141 3.95267e-08 2.52055e-14)
(0.125141 3.51716e-08 2.52324e-14)
(0.125141 2.96042e-08 2.52475e-14)
(0.125141 2.31156e-08 2.52597e-14)
(0.125141 1.61693e-08 2.51171e-14)
(0.125141 9.08921e-09 2.51833e-14)
(0.125141 3.09688e-09 2.52355e-14)
(0.125141 -2.58329e-09 2.52637e-14)
(0.125141 -1.95668e-09 2.53203e-14)
(0.125141 -3.52492e-09 2.52043e-14)
(0.125141 2.01281e-08 2.5243e-14)
(0.125948 -4.59965e-08 2.5815e-14)
(0.125948 -1.32565e-08 2.56776e-14)
(0.125948 3.53273e-09 2.5748e-14)
(0.125948 1.0189e-08 2.57132e-14)
(0.125948 9.85972e-09 2.57664e-14)
(0.125948 6.89915e-09 2.58512e-14)
(0.125948 2.95797e-09 2.56739e-14)
(0.125948 -1.2857e-09 2.57753e-14)
(0.125948 -5.14595e-09 2.56583e-14)
(0.125948 -8.12538e-09 2.57106e-14)
(0.125948 -1.02645e-08 2.57833e-14)
(0.125948 -1.14244e-08 2.56197e-14)
(0.125948 -1.15311e-08 2.56946e-14)
(0.125948 -1.07899e-08 2.55368e-14)
(0.125948 -9.43097e-09 2.55896e-14)
(0.125948 -7.46813e-09 2.56824e-14)
(0.125948 -5.07294e-09 2.55142e-14)
(0.125948 -2.58884e-09 2.55927e-14)
(0.125948 1.82362e-10 2.54729e-14)
(0.125948 3.1002e-09 2.54952e-14)
(0.125948 5.88649e-09 2.55871e-14)
(0.125948 8.76042e-09 2.544e-14)
(0.125948 1.16073e-08 2.55327e-14)
(0.125948 1.42971e-08 2.53889e-14)
(0.125948 1.69345e-08 2.53996e-14)
(0.125948 1.93255e-08 2.55263e-14)
(0.125948 2.1606e-08 2.53705e-14)
(0.125948 2.38067e-08 2.54945e-14)
(0.125948 2.59092e-08 2.53743e-14)
(0.125948 2.80174e-08 2.54051e-14)
(0.125948 2.99026e-08 2.54956e-14)
(0.125948 3.16285e-08 2.53297e-14)
(0.125948 3.32333e-08 2.54552e-14)
(0.125948 3.47683e-08 2.53036e-14)
(0.125948 3.62596e-08 2.53281e-14)
(0.125948 3.74766e-08 2.54346e-14)
(0.125948 3.84965e-08 2.54364e-14)
(0.125948 3.94616e-08 2.53725e-14)
(0.125948 4.03452e-08 2.54726e-14)
(0.125948 4.10693e-08 2.54529e-14)
(0.125948 4.1765e-08 2.55166e-14)
(0.125948 4.14954e-08 2.54822e-14)
(0.125948 4.08002e-08 2.54128e-14)
(0.125948 4.05672e-08 2.54912e-14)
(0.125948 4.08576e-08 2.55049e-14)
(0.125948 4.21906e-08 2.55381e-14)
(0.125948 4.35827e-08 2.55266e-14)
(0.125948 4.37635e-08 2.54214e-14)
(0.125948 4.21351e-08 2.55075e-14)
(0.125948 3.87776e-08 2.55398e-14)
(0.125948 3.40953e-08 2.55724e-14)
(0.125948 2.83059e-08 2.55157e-14)
(0.125948 2.19092e-08 2.54378e-14)
(0.125948 1.52408e-08 2.55264e-14)
(0.125948 9.3734e-09 2.55326e-14)
(0.125948 3.78331e-09 2.55974e-14)
(0.125948 4.09711e-09 2.55841e-14)
(0.125948 1.72215e-09 2.55189e-14)
(0.125947 2.54904e-08 2.55854e-14)
(0.126732 -4.65363e-08 2.61086e-14)
(0.126732 -1.38074e-08 2.59878e-14)
(0.126732 2.88068e-09 2.6033e-14)
(0.126732 9.59489e-09 2.60449e-14)
(0.126732 9.56032e-09 2.60829e-14)
(0.126732 6.82682e-09 2.61426e-14)
(0.126732 2.8308e-09 2.59858e-14)
(0.126732 -1.59167e-09 2.60555e-14)
(0.126732 -5.75332e-09 2.59701e-14)
(0.126732 -9.1145e-09 2.60123e-14)
(0.126732 -1.16202e-08 2.60686e-14)
(0.126732 -1.30902e-08 2.58554e-14)
(0.126732 -1.3536e-08 2.59835e-14)
(0.126732 -1.30988e-08 2.58202e-14)
(0.126732 -1.19675e-08 2.59011e-14)
(0.126732 -1.02206e-08 2.59736e-14)
(0.126732 -7.9291e-09 2.57579e-14)
(0.126732 -5.43301e-09 2.58888e-14)
(0.126732 -2.65812e-09 2.57517e-14)
(0.126732 2.39093e-10 2.58204e-14)
(0.126732 3.08806e-09 2.58865e-14)
(0.126732 6.09873e-09 2.57601e-14)
(0.126732 9.09883e-09 2.58318e-14)
(0.126732 1.19939e-08 2.57091e-14)
(0.126732 1.48625e-08 2.57353e-14)
(0.126732 1.74212e-08 2.58279e-14)
(0.126732 1.99407e-08 2.56224e-14)
(0.126732 2.24417e-08 2.57759e-14)
(0.126732 2.47785e-08 2.56546e-14)
(0.126732 2.71344e-08 2.57304e-14)
(0.126732 2.92936e-08 2.5792e-14)
(0.126732 3.13102e-08 2.56565e-14)
(0.126732 3.31514e-08 2.57368e-14)
(0.126732 3.49555e-08 2.55472e-14)
(0.126732 3.67655e-08 2.56542e-14)
(0.126732 3.82556e-08 2.57567e-14)
(0.126732 3.96004e-08 2.5761e-14)
(0.126732 4.07957e-08 2.56801e-14)
(0.126732 4.19231e-08 2.57964e-14)
(0.126732 4.28704e-08 2.57995e-14)
(0.126732 4.3754e-08 2.58527e-14)
(0.126732 4.37775e-08 2.58221e-14)
(0.126732 4.32969e-08 2.57281e-14)
(0.126732 4.30393e-08 2.58341e-14)
(0.126732 4.3045e-08 2.58394e-14)
(0.126732 4.3923e-08 2.58739e-14)
(0.126732 4.50405e-08 2.58458e-14)
(0.126732 4.54861e-08 2.57388e-14)
(0.126732 4.45313e-08 2.58544e-14)
(0.126732 4.19886e-08 2.58727e-14)
(0.126732 3.80859e-08 2.59087e-14)
(0.126732 3.30037e-08 2.58648e-14)
(0.126732 2.71808e-08 2.57573e-14)
(0.126732 2.09287e-08 2.58679e-14)
(0.126732 1.5225e-08 2.58826e-14)
(0.126732 9.76766e-09 2.59404e-14)
(0.126732 9.83405e-09 2.5922e-14)
(0.126732 6.55256e-09 2.58037e-14)
(0.126732 3.04829e-08 2.5938e-14)
(0.127494 -4.698e-08 2.64028e-14)
(0.127494 -1.44661e-08 2.63447e-14)
(0.127494 1.90588e-09 2.63383e-14)
(0.127494 8.51633e-09 2.63737e-14)
(0.127494 8.77014e-09 2.64022e-14)
(0.127494 6.27879e-09 2.64344e-14)
(0.127494 2.30941e-09 2.63377e-14)
(0.127494 -2.10735e-09 2.6362e-14)
(0.127494 -6.32914e-09 2.63127e-14)
(0.127494 -9.90751e-09 2.63456e-14)
(0.127494 -1.26688e-08 2.63579e-14)
(0.127494 -1.44309e-08 2.62797e-14)
(0.127494 -1.51697e-08 2.62957e-14)
(0.127494 -1.49375e-08 2.6213e-14)
(0.127494 -1.40459e-08 2.62473e-14)
(0.127494 -1.24884e-08 2.62717e-14)
(0.127494 -1.0298e-08 2.61868e-14)
(0.127494 -7.84221e-09 2.62066e-14)
(0.127494 -5.11251e-09 2.61498e-14)
(0.127494 -2.21714e-09 2.61702e-14)
(0.127494 7.31557e-10 2.61927e-14)
(0.127494 3.87422e-09 2.61234e-14)
(0.127494 6.99216e-09 2.61524e-14)
(0.127494 1.00108e-08 2.60744e-14)
(0.127494 1.31035e-08 2.60942e-14)
(0.127494 1.5832e-08 2.61355e-14)
(0.127494 1.85734e-08 2.60519e-14)
(0.127494 2.14279e-08 2.60948e-14)
(0.127494 2.393e-08 2.60501e-14)
(0.127494 2.64818e-08 2.60771e-14)
(0.127494 2.90048e-08 2.60935e-14)
(0.127494 3.12459e-08 2.60104e-14)
(0.127494 3.33327e-08 2.60551e-14)
(0.127494 3.54714e-08 2.59853e-14)
(0.127494 3.7504e-08 2.6006e-14)
(0.127494 3.92582e-08 2.60206e-14)
(0.127494 4.09546e-08 2.60751e-14)
(0.127494 4.24011e-08 2.60532e-14)
(0.127494 4.37452e-08 2.6088e-14)
(0.127494 4.49449e-08 2.61341e-14)
(0.127494 4.60292e-08 2.61142e-14)
(0.127494 4.63291e-08 2.61369e-14)
(0.127494 4.61315e-08 2.60959e-14)
(0.127494 4.58804e-08 2.61316e-14)
(0.127494 4.57424e-08 2.617e-14)
(0.127494 4.63203e-08 2.61371e-14)
(0.127494 4.71035e-08 2.61571e-14)
(0.127494 4.75484e-08 2.61162e-14)
(0.127494 4.69918e-08 2.61602e-14)
(0.127494 4.50555e-08 2.62057e-14)
(0.127494 4.17715e-08 2.61735e-14)
(0.127494 3.72713e-08 2.61887e-14)
(0.127494 3.19983e-08 2.6143e-14)
(0.127494 2.61892e-08 2.61722e-14)
(0.127494 2.07381e-08 2.62238e-14)
(0.127494 1.53786e-08 2.62103e-14)
(0.127494 1.50877e-08 2.62432e-14)
(0.127494 1.09402e-08 2.6212e-14)
(0.127494 3.50694e-08 2.62444e-14)
(0.128235 -4.73069e-08 2.66968e-14)
(0.128235 -1.5114e-08 2.66821e-14)
(0.128235 7.37304e-10 2.66469e-14)
(0.128235 7.08134e-09 2.67074e-14)
(0.128235 7.50016e-09 2.67219e-14)
(0.128235 5.23977e-09 2.67265e-14)
(0.128235 1.40486e-09 2.66854e-14)
(0.128235 -2.89631e-09 2.66734e-14)
(0.128235 -7.0691e-09 2.66613e-14)
(0.128235 -1.07193e-08 2.66831e-14)
(0.128235 -1.35775e-08 2.66452e-14)
(0.128235 -1.54925e-08 2.66196e-14)
(0.128235 -1.64579e-08 2.66136e-14)
(0.128235 -1.64491e-08 2.65832e-14)
(0.128235 -1.57412e-08 2.66041e-14)
(0.128235 -1.43408e-08 2.65702e-14)
(0.128235 -1.22206e-08 2.65383e-14)
(0.128235 -9.80356e-09 2.65298e-14)
(0.128235 -7.14677e-09 2.65099e-14)
(0.128235 -4.21533e-09 2.65287e-14)
(0.128235 -1.13973e-09 2.6498e-14)
(0.128235 2.06118e-09 2.648e-14)
(0.128235 5.24066e-09 2.64788e-14)
(0.128235 8.40703e-09 2.64443e-14)
(0.128235 1.16529e-08 2.64602e-14)
(0.128235 1.46148e-08 2.64428e-14)
(0.128235 1.76019e-08 2.64199e-14)
(0.128235 2.07115e-08 2.64232e-14)
(0.128235 2.34334e-08 2.64112e-14)
(0.128235 2.61514e-08 2.64312e-14)
(0.128235 2.89712e-08 2.63954e-14)
(0.128235 3.15018e-08 2.63751e-14)
(0.128235 3.38548e-08 2.63796e-14)
(0.128235 3.62247e-08 2.63505e-14)
(0.128235 3.85188e-08 2.63705e-14)
(0.128235 4.05748e-08 2.62878e-14)
(0.128235 4.25504e-08 2.63998e-14)
(0.128235 4.43104e-08 2.6429e-14)
(0.128235 4.58788e-08 2.63942e-14)
(0.128235 4.72643e-08 2.64724e-14)
(0.128235 4.85584e-08 2.63643e-14)
(0.128235 4.91514e-08 2.64546e-14)
(0.128235 4.92552e-08 2.6472e-14)
(0.128235 4.90547e-08 2.64368e-14)
(0.128235 4.88772e-08 2.6507e-14)
(0.128235 4.92918e-08 2.63909e-14)
(0.128235 4.98079e-08 2.64775e-14)
(0.128235 5.01567e-08 2.65059e-14)
(0.128235 4.96908e-08 2.64761e-14)
(0.128235 4.81116e-08 2.6547e-14)
(0.128235 4.53253e-08 2.6429e-14)
(0.128235 4.13122e-08 2.6514e-14)
(0.128235 3.64863e-08 2.65239e-14)
(0.128235 3.11071e-08 2.64907e-14)
(0.128235 2.58972e-08 2.6571e-14)
(0.128235 2.05983e-08 2.64702e-14)
(0.128235 1.98854e-08 2.65709e-14)
(0.128235 1.48002e-08 2.65889e-14)
(0.128235 3.92913e-08 2.65568e-14)
(0.128955 -4.74714e-08 2.69872e-14)
(0.128955 -1.56922e-08 2.70106e-14)
(0.128955 -5.34978e-10 2.69478e-14)
(0.128955 5.37003e-09 2.70536e-14)
(0.128955 5.80312e-09 2.70358e-14)
(0.128955 3.72998e-09 2.70159e-14)
(0.128955 1.00849e-10 2.70185e-14)
(0.128955 -4.02251e-09 2.69748e-14)
(0.128955 -8.01471e-09 2.69928e-14)
(0.128955 -1.16059e-08 2.70209e-14)
(0.128956 -1.44948e-08 2.69179e-14)
(0.128956 -1.65067e-08 2.69547e-14)
(0.128956 -1.75779e-08 2.69274e-14)
(0.128956 -1.7647e-08 2.69384e-14)
(0.128956 -1.70589e-08 2.69625e-14)
(0.128956 -1.57906e-08 2.68566e-14)
(0.128956 -1.37445e-08 2.68833e-14)
(0.128956 -1.13498e-08 2.6849e-14)
(0.128956 -8.72621e-09 2.68628e-14)
(0.128956 -5.78925e-09 2.68891e-14)
(0.128956 -2.62792e-09 2.67897e-14)
(0.128956 6.60244e-10 2.68289e-14)
(0.128956 3.94116e-09 2.68009e-14)
(0.128956 7.18668e-09 2.68036e-14)
(0.128956 1.05786e-08 2.68267e-14)
(0.128956 1.38263e-08 2.67369e-14)
(0.128956 1.70055e-08 2.67749e-14)
(0.128956 2.03383e-08 2.67472e-14)
(0.128956 2.32434e-08 2.67625e-14)
(0.128956 2.61222e-08 2.67874e-14)
(0.128956 2.92597e-08 2.66839e-14)
(0.128956 3.20572e-08 2.67237e-14)
(0.128956 3.46869e-08 2.67007e-14)
(0.128956 3.73419e-08 2.67102e-14)
(0.128956 3.9884e-08 2.67368e-14)
(0.128956 4.21942e-08 2.66109e-14)
(0.128956 4.43819e-08 2.66817e-14)
(0.128956 4.64379e-08 2.67777e-14)
(0.128956 4.828e-08 2.66907e-14)
(0.128956 4.99364e-08 2.67474e-14)
(0.128956 5.1426e-08 2.66583e-14)
(0.128955 5.22462e-08 2.67261e-14)
(0.128955 5.26228e-08 2.68505e-14)
(0.128955 5.25384e-08 2.67293e-14)
(0.128955 5.24131e-08 2.67821e-14)
(0.128955 5.27569e-08 2.66896e-14)
(0.128955 5.30784e-08 2.67543e-14)
(0.128955 5.32554e-08 2.68925e-14)
(0.128955 5.27762e-08 2.67774e-14)
(0.128955 5.13769e-08 2.68259e-14)
(0.128955 4.89067e-08 2.67296e-14)
(0.128955 4.52825e-08 2.6793e-14)
(0.128955 4.08104e-08 2.69167e-14)
(0.128955 3.57661e-08 2.67961e-14)