/*--------------------------------*- C++ -*----------------------------------*\
  =========                 |
  \\      /  F ield         | OpenFOAM: The Open Source CFD Toolbox
   \\    /   O peration     | Website:  https://openfoam.org
    \\  /    A nd           | Version:  7
     \\/     M anipulation  |
\*---------------------------------------------------------------------------*/
FoamFile
{
    version     2.0;
    format      ascii;
    class       volScalarField;
    location    "3000";
    object      omega;
}
// * * * * * * * * * * * * * * * * * * * * * * * * * * * * * * * * * * * * * //

dimensions      [0 0 -1 0 0 0 0];

internalField   nonuniform List<scalar> 
4000
(
0.0278388
0.0278333
0.0278331
0.027834
0.0278352
0.0278364
0.0278375
0.0278386
0.0278397
0.0278406
0.0278416
0.0278425
0.0278434
0.0278443
0.0278451
0.0278459
0.0278467
0.0278475
0.0278483
0.027849
0.0278498
0.0278505
0.0278512
0.027852
0.0278527
0.0278534
0.0278541
0.0278548
0.0278555
0.0278562
0.0278569
0.0278576
0.0278583
0.0278589
0.0278596
0.0278603
0.0278609
0.0278616
0.0278623
0.0278629
0.0278636
0.0278642
0.0278649
0.0278656
0.0278662
0.0278596
0.0278551
0.0278534
0.0278532
0.0278536
0.0278543
0.027855
0.0278557
0.0278565
0.0278573
0.027858
0.0278587
0.0278595
0.0278602
0.0278609
0.0278616
0.0278623
0.0278629
0.0278636
0.0278642
0.0278649
0.0278655
0.0278661
0.0278667
0.0278673
0.0278679
0.0278684
0.027869
0.0278695
0.02787
0.0278705
0.027871
0.0278715
0.027872
0.0278724
0.0278729
0.0278733
0.0278737
0.0278741
0.0278745
0.0278749
0.0278753
0.0278757
0.027876
0.0278764
0.0278767
0.027877
0.0278773
0.0278777
0.027878
0.0278783
0.0278786
0.0278788
0.0278791
0.0278794
0.0278797
0.0278799
0.0278802
0.0278805
0.0278734
0.0278685
0.0278665
0.0278659
0.0278659
0.0278662
0.0278666
0.027867
0.0278674
0.0278678
0.0278682
0.0278686
0.0278691
0.0278695
0.02787
0.0278683
0.0279682
0.0279625
0.0279619
0.0279625
0.0279634
0.0279644
0.0279654
0.0279664
0.0279673
0.0279682
0.0279691
0.02797
0.0279708
0.0279716
0.0279723
0.0279731
0.0279738
0.0279746
0.0279753
0.027976
0.0279767
0.0279774
0.0279781
0.0279787
0.0279794
0.0279801
0.0279808
0.0279814
0.0279821
0.0279827
0.0279834
0.027984
0.0279847
0.0279853
0.0279859
0.0279866
0.0279872
0.0279878
0.0279885
0.0279891
0.0279897
0.0279903
0.0279909
0.0279916
0.0279922
0.0279909
0.0279888
0.0279871
0.0279861
0.0279857
0.0279856
0.0279858
0.0279861
0.0279865
0.027987
0.0279875
0.027988
0.0279885
0.0279891
0.0279896
0.0279902
0.0279907
0.0279913
0.0279918
0.0279924
0.0279929
0.0279935
0.027994
0.0279945
0.027995
0.0279955
0.027996
0.0279965
0.027997
0.0279975
0.0279979
0.0279984
0.0279988
0.0279992
0.0279996
0.028
0.0280004
0.0280008
0.0280012
0.0280015
0.0280019
0.0280022
0.0280025
0.0280029
0.0280032
0.0280035
0.0280038
0.028004
0.0280043
0.0280046
0.0280049
0.0280051
0.0280054
0.0280056
0.0280059
0.0280061
0.0280064
0.0280066
0.0280069
0.0280052
0.0280027
0.0280006
0.0279992
0.0279984
0.0279979
0.0279978
0.0279977
0.0279978
0.0279979
0.0279981
0.0279983
0.0279985
0.0279987
0.0279991
0.0279975
0.0282003
0.0281946
0.0281939
0.0281943
0.028195
0.0281959
0.0281967
0.0281976
0.0281984
0.0281993
0.0282001
0.0282008
0.0282016
0.0282023
0.028203
0.0282037
0.0282044
0.0282051
0.0282058
0.0282064
0.0282071
0.0282078
0.0282084
0.028209
0.0282097
0.0282103
0.0282109
0.0282116
0.0282122
0.0282128
0.0282134
0.028214
0.0282146
0.0282152
0.0282159
0.0282165
0.0282171
0.0282177
0.0282183
0.0282188
0.0282194
0.02822
0.0282206
0.0282212
0.0282218
0.0282219
0.0282214
0.0282207
0.02822
0.0282195
0.0282193
0.0282192
0.0282193
0.0282195
0.0282198
0.0282201
0.0282204
0.0282208
0.0282213
0.0282217
0.0282221
0.0282226
0.028223
0.0282235
0.028224
0.0282244
0.0282249
0.0282254
0.0282258
0.0282263
0.0282267
0.0282272
0.0282276
0.028228
0.0282284
0.0282289
0.0282293
0.0282296
0.02823
0.0282304
0.0282308
0.0282311
0.0282315
0.0282318
0.0282321
0.0282324
0.0282327
0.028233
0.0282333
0.0282336
0.0282339
0.0282341
0.0282344
0.0282346
0.0282349
0.0282351
0.0282354
0.0282356
0.0282358
0.028236
0.0282362
0.0282365
0.0282367
0.0282369
0.0282366
0.0282357
0.0282346
0.0282335
0.0282327
0.0282321
0.0282317
0.0282314
0.0282312
0.0282312
0.0282312
0.0282312
0.0282313
0.0282314
0.0282316
0.02823
0.0285324
0.0285265
0.0285258
0.0285261
0.0285268
0.0285275
0.0285283
0.0285291
0.0285299
0.0285306
0.0285313
0.0285321
0.0285328
0.0285334
0.0285341
0.0285348
0.0285354
0.0285361
0.0285367
0.0285373
0.0285379
0.0285386
0.0285392
0.0285398
0.0285404
0.028541
0.0285416
0.0285422
0.0285428
0.0285434
0.028544
0.0285446
0.0285451
0.0285457
0.0285463
0.0285469
0.0285475
0.028548
0.0285486
0.0285492
0.0285498
0.0285503
0.0285509
0.0285515
0.028552
0.0285525
0.0285527
0.0285526
0.0285524
0.0285522
0.0285521
0.0285521
0.0285521
0.0285522
0.0285524
0.0285527
0.0285529
0.0285532
0.0285536
0.0285539
0.0285543
0.0285547
0.0285551
0.0285555
0.0285559
0.0285563
0.0285567
0.0285571
0.0285575
0.0285579
0.0285583
0.0285587
0.0285591
0.0285595
0.0285599
0.0285603
0.0285606
0.028561
0.0285613
0.0285617
0.028562
0.0285623
0.0285626
0.0285629
0.0285632
0.0285635
0.0285638
0.0285641
0.0285643
0.0285646
0.0285648
0.0285651
0.0285653
0.0285655
0.0285658
0.028566
0.0285662
0.0285664
0.0285666
0.0285668
0.028567
0.0285672
0.0285674
0.0285676
0.0285677
0.0285675
0.028567
0.0285665
0.0285659
0.0285654
0.028565
0.0285647
0.0285645
0.0285644
0.0285643
0.0285642
0.0285642
0.0285643
0.0285644
0.0285627
0.0289624
0.0289564
0.0289556
0.0289559
0.0289565
0.0289572
0.028958
0.0289587
0.0289594
0.0289601
0.0289608
0.0289615
0.0289622
0.0289628
0.0289634
0.0289641
0.0289647
0.0289653
0.0289659
0.0289665
0.0289671
0.0289677
0.0289683
0.0289689
0.0289695
0.0289701
0.0289706
0.0289712
0.0289718
0.0289724
0.0289729
0.0289735
0.0289741
0.0289746
0.0289752
0.0289758
0.0289763
0.0289769
0.0289774
0.028978
0.0289785
0.0289791
0.0289796
0.0289802
0.0289807
0.0289812
0.0289817
0.0289819
0.0289821
0.0289822
0.0289823
0.0289824
0.0289825
0.0289827
0.0289829
0.0289831
0.0289834
0.0289836
0.0289839
0.0289843
0.0289846
0.0289849
0.0289853
0.0289856
0.028986
0.0289864
0.0289868
0.0289871
0.0289875
0.0289879
0.0289882
0.0289886
0.028989
0.0289893
0.0289897
0.02899
0.0289904
0.0289907
0.028991
0.0289913
0.0289916
0.0289919
0.0289922
0.0289925
0.0289928
0.0289931
0.0289933
0.0289936
0.0289938
0.0289941
0.0289943
0.0289945
0.0289947
0.0289949
0.0289951
0.0289954
0.0289955
0.0289957
0.0289959
0.0289961
0.0289963
0.0289965
0.0289967
0.0289968
0.028997
0.028997
0.028997
0.0289968
0.0289965
0.0289963
0.028996
0.0289958
0.0289956
0.0289955
0.0289954
0.0289953
0.0289953
0.0289953
0.0289954
0.0289937
0.0294894
0.0294831
0.0294822
0.0294826
0.0294832
0.0294839
0.0294846
0.0294853
0.029486
0.0294867
0.0294874
0.029488
0.0294886
0.0294893
0.0294899
0.0294905
0.0294911
0.0294917
0.0294923
0.0294929
0.0294935
0.029494
0.0294946
0.0294952
0.0294958
0.0294963
0.0294969
0.0294975
0.029498
0.0294986
0.0294991
0.0294997
0.0295002
0.0295008
0.0295013
0.0295019
0.0295024
0.029503
0.0295035
0.029504
0.0295046
0.0295051
0.0295057
0.0295062
0.0295067
0.0295072
0.0295077
0.0295082
0.0295085
0.0295088
0.0295091
0.0295093
0.0295095
0.0295098
0.02951
0.0295103
0.0295106
0.0295109
0.0295112
0.0295115
0.0295118
0.0295121
0.0295125
0.0295128
0.0295132
0.0295135
0.0295139
0.0295142
0.0295146
0.0295149
0.0295153
0.0295156
0.029516
0.0295163
0.0295167
0.029517
0.0295173
0.0295176
0.0295179
0.0295182
0.0295185
0.0295188
0.0295191
0.0295194
0.0295196
0.0295199
0.0295201
0.0295204
0.0295206
0.0295208
0.0295211
0.0295213
0.0295215
0.0295217
0.0295219
0.0295221
0.0295223
0.0295224
0.0295226
0.0295228
0.029523
0.0295232
0.0295233
0.0295235
0.0295237
0.0295238
0.0295239
0.0295239
0.0295239
0.0295238
0.0295237
0.0295236
0.0295235
0.0295234
0.0295233
0.0295233
0.0295233
0.0295233
0.0295234
0.0295217
0.030113
0.0301065
0.0301056
0.0301059
0.0301065
0.0301072
0.0301079
0.0301086
0.0301093
0.03011
0.0301107
0.0301113
0.0301119
0.0301126
0.0301132
0.0301138
0.0301144
0.0301149
0.0301155
0.0301161
0.0301167
0.0301173
0.0301178
0.0301184
0.0301189
0.0301195
0.0301201
0.0301206
0.0301212
0.0301217
0.0301223
0.0301228
0.0301233
0.0301239
0.0301244
0.030125
0.0301255
0.030126
0.0301266
0.0301271
0.0301276
0.0301281
0.0301287
0.0301292
0.0301297
0.0301302
0.0301307
0.0301312
0.0301317
0.0301321
0.0301325
0.0301328
0.0301331
0.0301334
0.0301338
0.0301341
0.0301344
0.0301347
0.030135
0.0301354
0.0301357
0.0301361
0.0301364
0.0301368
0.0301371
0.0301375
0.0301378
0.0301382
0.0301385
0.0301389
0.0301392
0.0301396
0.0301399
0.0301402
0.0301406
0.0301409
0.0301412
0.0301415
0.0301418
0.0301421
0.0301424
0.0301427
0.0301429
0.0301432
0.0301435
0.0301437
0.030144
0.0301442
0.0301444
0.0301446
0.0301449
0.0301451
0.0301453
0.0301455
0.0301457
0.0301459
0.0301461
0.0301462
0.0301464
0.0301466
0.0301468
0.030147
0.0301471
0.0301473
0.0301475
0.0301477
0.0301478
0.0301479
0.030148
0.030148
0.030148
0.030148
0.030148
0.030148
0.0301481
0.0301481
0.0301481
0.0301481
0.0301483
0.0301466
0.030834
0.0308272
0.0308262
0.0308265
0.0308272
0.0308279
0.0308286
0.0308293
0.03083
0.0308307
0.0308314
0.030832
0.0308326
0.0308333
0.0308339
0.0308345
0.0308351
0.0308356
0.0308362
0.0308368
0.0308374
0.0308379
0.0308385
0.0308391
0.0308396
0.0308402
0.0308407
0.0308413
0.0308418
0.0308423
0.0308429
0.0308434
0.030844
0.0308445
0.030845
0.0308455
0.0308461
0.0308466
0.0308471
0.0308476
0.0308482
0.0308487
0.0308492
0.0308497
0.0308502
0.0308508
0.0308513
0.0308518
0.0308523
0.0308527
0.0308532
0.0308536
0.030854
0.0308544
0.0308548
0.0308551
0.0308555
0.0308559
0.0308562
0.0308566
0.030857
0.0308573
0.0308577
0.0308581
0.0308584
0.0308588
0.0308592
0.0308595
0.0308599
0.0308602
0.0308606
0.0308609
0.0308613
0.0308616
0.0308619
0.0308623
0.0308626
0.0308629
0.0308632
0.0308635
0.0308638
0.0308641
0.0308643
0.0308646
0.0308649
0.0308651
0.0308654
0.0308656
0.0308658
0.0308661
0.0308663
0.0308665
0.0308667
0.0308669
0.0308671
0.0308673
0.0308675
0.0308677
0.0308679
0.0308681
0.0308683
0.0308685
0.0308687
0.0308688
0.030869
0.0308692
0.0308694
0.0308695
0.0308697
0.0308698
0.0308699
0.03087
0.0308701
0.0308702
0.0308702
0.0308703
0.0308704
0.0308705
0.0308707
0.030869
0.0316538
0.0316466
0.0316456
0.0316459
0.0316466
0.0316473
0.031648
0.0316488
0.0316495
0.0316502
0.0316508
0.0316515
0.0316521
0.0316528
0.0316534
0.031654
0.0316546
0.0316552
0.0316557
0.0316563
0.0316569
0.0316574
0.031658
0.0316586
0.0316591
0.0316597
0.0316602
0.0316608
0.0316613
0.0316618
0.0316624
0.0316629
0.0316634
0.031664
0.0316645
0.031665
0.0316655
0.031666
0.0316666
0.0316671
0.0316676
0.0316681
0.0316686
0.0316692
0.0316697
0.0316702
0.0316707
0.0316712
0.0316717
0.0316722
0.0316727
0.0316732
0.0316736
0.031674
0.0316745
0.0316749
0.0316753
0.0316757
0.0316761
0.0316765
0.0316769
0.0316773
0.0316777
0.0316781
0.0316785
0.0316789
0.0316793
0.0316797
0.0316801
0.0316804
0.0316808
0.0316812
0.0316815
0.0316819
0.0316822
0.0316825
0.0316829
0.0316832
0.0316835
0.0316838
0.0316841
0.0316844
0.0316847
0.031685
0.0316853
0.0316855
0.0316858
0.031686
0.0316863
0.0316865
0.0316868
0.031687
0.0316872
0.0316874
0.0316876
0.0316879
0.0316881
0.0316883
0.0316885
0.0316887
0.0316889
0.0316891
0.0316893
0.0316895
0.0316897
0.0316899
0.0316901
0.0316903
0.0316905
0.0316906
0.0316908
0.031691
0.0316911
0.0316912
0.0316914
0.0316915
0.0316917
0.0316918
0.0316921
0.0316904
0.0325746
0.032567
0.032566
0.0325663
0.032567
0.0325677
0.0325684
0.0325692
0.0325699
0.0325706
0.0325713
0.032572
0.0325726
0.0325732
0.0325738
0.0325745
0.0325751
0.0325756
0.0325762
0.0325768
0.0325774
0.0325779
0.0325785
0.0325791
0.0325796
0.0325802
0.0325807
0.0325812
0.0325818
0.0325823
0.0325828
0.0325834
0.0325839
0.0325844
0.0325849
0.0325854
0.032586
0.0325865
0.032587
0.0325875
0.032588
0.0325885
0.0325891
0.0325896
0.0325901
0.0325906
0.0325911
0.0325917
0.0325922
0.0325927
0.0325932
0.0325937
0.0325942
0.0325947
0.0325951
0.0325956
0.0325961
0.0325965
0.032597
0.0325974
0.0325979
0.0325983
0.0325987
0.0325992
0.0325996
0.0326
0.0326004
0.0326008
0.0326012
0.0326016
0.032602
0.0326024
0.0326028
0.0326032
0.0326035
0.0326039
0.0326043
0.0326046
0.0326049
0.0326053
0.0326056
0.0326059
0.0326062
0.0326065
0.0326068
0.0326071
0.0326074
0.0326076
0.0326079
0.0326082
0.0326084
0.0326087
0.0326089
0.0326091
0.0326094
0.0326096
0.0326098
0.0326101
0.0326103
0.0326105
0.0326107
0.032611
0.0326112
0.0326114
0.0326116
0.0326118
0.0326121
0.0326123
0.0326125
0.0326127
0.0326129
0.0326131
0.0326133
0.0326135
0.0326137
0.0326139
0.0326141
0.0326143
0.0326146
0.032613
0.0335994
0.0335914
0.0335902
0.0335906
0.0335912
0.033592
0.0335928
0.0335935
0.0335942
0.0335949
0.0335956
0.0335963
0.0335969
0.0335976
0.0335982
0.0335988
0.0335994
0.0336
0.0336006
0.0336012
0.0336017
0.0336023
0.0336029
0.0336034
0.0336039
0.0336045
0.033605
0.0336056
0.0336061
0.0336066
0.0336071
0.0336077
0.0336082
0.0336087
0.0336092
0.0336097
0.0336102
0.0336108
0.0336113
0.0336118
0.0336123
0.0336128
0.0336134
0.0336139
0.0336144
0.0336149
0.0336155
0.033616
0.0336165
0.0336171
0.0336176
0.0336181
0.0336187
0.0336192
0.0336197
0.0336202
0.0336207
0.0336212
0.0336217
0.0336222
0.0336227
0.0336232
0.0336236
0.0336241
0.0336246
0.033625
0.0336255
0.0336259
0.0336264
0.0336268
0.0336272
0.0336277
0.0336281
0.0336285
0.0336289
0.0336293
0.0336297
0.03363
0.0336304
0.0336307
0.0336311
0.0336314
0.0336318
0.0336321
0.0336324
0.0336327
0.033633
0.0336333
0.0336336
0.0336339
0.0336342
0.0336345
0.0336347
0.033635
0.0336353
0.0336355
0.0336358
0.033636
0.0336363
0.0336365
0.0336368
0.033637
0.0336373
0.0336375
0.0336378
0.033638
0.0336383
0.0336385
0.0336388
0.033639
0.0336393
0.0336395
0.0336398
0.03364
0.0336403
0.0336405
0.0336407
0.0336409
0.0336413
0.0336397
0.0347318
0.0347233
0.0347221
0.0347224
0.0347231
0.0347238
0.0347246
0.0347254
0.0347261
0.0347268
0.0347275
0.0347282
0.0347288
0.0347294
0.0347301
0.0347307
0.0347313
0.0347319
0.0347324
0.034733
0.0347336
0.0347341
0.0347347
0.0347352
0.0347357
0.0347363
0.0347368
0.0347373
0.0347378
0.0347384
0.0347389
0.0347394
0.0347399
0.0347404
0.0347409
0.0347415
0.034742
0.0347425
0.034743
0.0347435
0.0347441
0.0347446
0.0347451
0.0347457
0.0347462
0.0347467
0.0347473
0.0347478
0.0347484
0.034749
0.0347495
0.0347501
0.0347507
0.0347512
0.0347518
0.0347523
0.0347529
0.0347534
0.034754
0.0347545
0.0347551
0.0347556
0.0347561
0.0347566
0.0347571
0.0347577
0.0347582
0.0347586
0.0347591
0.0347596
0.0347601
0.0347605
0.034761
0.0347614
0.0347619
0.0347623
0.0347627
0.0347631
0.0347635
0.0347639
0.0347643
0.0347647
0.0347651
0.0347654
0.0347658
0.0347661
0.0347664
0.0347668
0.0347671
0.0347674
0.0347677
0.034768
0.0347683
0.0347686
0.0347689
0.0347692
0.0347695
0.0347698
0.0347701
0.0347704
0.0347707
0.0347709
0.0347712
0.0347715
0.0347718
0.0347721
0.0347724
0.0347726
0.0347729
0.0347732
0.0347735
0.0347738
0.0347741
0.0347744
0.0347746
0.0347749
0.0347752
0.0347754
0.0347758
0.0347743
0.0359762
0.0359672
0.0359659
0.0359662
0.0359668
0.0359676
0.0359683
0.0359691
0.0359698
0.0359705
0.0359712
0.0359719
0.0359725
0.0359731
0.0359737
0.0359743
0.0359749
0.0359755
0.035976
0.0359766
0.0359771
0.0359777
0.0359782
0.0359787
0.0359793
0.0359798
0.0359803
0.0359808
0.0359813
0.0359818
0.0359823
0.0359828
0.0359834
0.0359839
0.0359844
0.0359849
0.0359854
0.0359859
0.0359865
0.035987
0.0359875
0.0359881
0.0359886
0.0359892
0.0359898
0.0359903
0.0359909
0.0359915
0.0359921
0.0359927
0.0359933
0.0359939
0.0359945
0.0359951
0.0359957
0.0359964
0.035997
0.0359976
0.0359982
0.0359988
0.0359994
0.0359999
0.0360005
0.0360011
0.0360017
0.0360022
0.0360028
0.0360033
0.0360039
0.0360044
0.0360049
0.0360054
0.0360059
0.0360064
0.0360069
0.0360074
0.0360078
0.0360083
0.0360087
0.0360092
0.0360096
0.03601
0.0360104
0.0360108
0.0360112
0.0360116
0.036012
0.0360124
0.0360127
0.0360131
0.0360134
0.0360138
0.0360141
0.0360145
0.0360148
0.0360151
0.0360155
0.0360158
0.0360161
0.0360164
0.0360167
0.0360171
0.0360174
0.0360177
0.036018
0.0360183
0.0360187
0.036019
0.0360193
0.0360196
0.03602
0.0360203
0.0360206
0.0360209
0.0360212
0.0360215
0.0360218
0.0360221
0.0360225
0.0360211
0.0373377
0.0373281
0.0373266
0.0373269
0.0373275
0.0373282
0.037329
0.0373297
0.0373304
0.0373311
0.0373317
0.0373323
0.037333
0.0373336
0.0373341
0.0373347
0.0373353
0.0373358
0.0373364
0.0373369
0.0373374
0.0373379
0.0373384
0.0373389
0.0373395
0.03734
0.0373405
0.037341
0.0373415
0.0373419
0.0373424
0.0373429
0.0373435
0.037344
0.0373445
0.037345
0.0373455
0.0373461
0.0373466
0.0373472
0.0373477
0.0373483
0.0373489
0.0373495
0.0373501
0.0373507
0.0373514
0.037352
0.0373526
0.0373533
0.037354
0.0373546
0.0373553
0.037356
0.0373566
0.0373573
0.037358
0.0373586
0.0373593
0.03736
0.0373606
0.0373613
0.0373619
0.0373626
0.0373632
0.0373638
0.0373644
0.037365
0.0373656
0.0373662
0.0373668
0.0373674
0.0373679
0.0373685
0.037369
0.0373695
0.03737
0.0373705
0.037371
0.0373715
0.037372
0.0373725
0.0373729
0.0373734
0.0373738
0.0373743
0.0373747
0.0373751
0.0373755
0.0373759
0.0373763
0.0373767
0.0373771
0.0373775
0.0373779
0.0373782
0.0373786
0.037379
0.0373793
0.0373797
0.0373801
0.0373804
0.0373808
0.0373812
0.0373815
0.0373819
0.0373822
0.0373826
0.037383
0.0373833
0.0373837
0.037384
0.0373844
0.0373847
0.0373851
0.0373854
0.0373857
0.037386
0.0373864
0.0373851
0.0388218
0.0388116
0.03881
0.0388101
0.0388107
0.0388114
0.0388121
0.0388128
0.0388134
0.0388141
0.0388147
0.0388153
0.0388158
0.0388164
0.0388169
0.0388175
0.038818
0.0388185
0.038819
0.0388195
0.03882
0.0388205
0.038821
0.0388215
0.0388219
0.0388224
0.0388229
0.0388234
0.0388239
0.0388243
0.0388248
0.0388253
0.0388258
0.0388263
0.0388269
0.0388274
0.038828
0.0388285
0.0388291
0.0388297
0.0388303
0.0388309
0.0388316
0.0388322
0.0388329
0.0388336
0.0388343
0.038835
0.0388357
0.0388364
0.0388372
0.0388379
0.0388386
0.0388394
0.0388401
0.0388409
0.0388416
0.0388424
0.0388431
0.0388439
0.0388446
0.0388453
0.038846
0.0388468
0.0388475
0.0388481
0.0388488
0.0388495
0.0388502
0.0388508
0.0388515
0.0388521
0.0388527
0.0388533
0.0388539
0.0388545
0.0388551
0.0388556
0.0388562
0.0388567
0.0388573
0.0388578
0.0388583
0.0388588
0.0388593
0.0388598
0.0388603
0.0388607
0.0388612
0.0388617
0.0388621
0.0388625
0.038863
0.0388634
0.0388638
0.0388643
0.0388647
0.0388651
0.0388655
0.0388659
0.0388663
0.0388668
0.0388672
0.0388676
0.038868
0.0388684
0.0388688
0.0388692
0.0388696
0.03887
0.0388704
0.0388708
0.0388711
0.0388715
0.0388719
0.0388722
0.0388725
0.0388728
0.0388732
0.038872
0.040435
0.0404241
0.0404222
0.0404223
0.0404228
0.0404234
0.040424
0.0404246
0.0404252
0.0404258
0.0404263
0.0404269
0.0404274
0.0404279
0.0404284
0.0404288
0.0404293
0.0404298
0.0404302
0.0404307
0.0404312
0.0404316
0.0404321
0.0404325
0.040433
0.0404334
0.0404339
0.0404343
0.0404348
0.0404353
0.0404358
0.0404363
0.0404368
0.0404373
0.0404378
0.0404384
0.040439
0.0404396
0.0404403
0.0404409
0.0404416
0.0404423
0.040443
0.0404438
0.0404445
0.0404453
0.0404461
0.0404469
0.0404477
0.0404485
0.0404493
0.0404501
0.040451
0.0404518
0.0404527
0.0404535
0.0404543
0.0404552
0.040456
0.0404568
0.0404577
0.0404585
0.0404593
0.0404601
0.0404608
0.0404616
0.0404624
0.0404631
0.0404639
0.0404646
0.0404653
0.040466
0.0404667
0.0404674
0.0404681
0.0404687
0.0404693
0.04047
0.0404706
0.0404712
0.0404718
0.0404724
0.0404729
0.0404735
0.040474
0.0404746
0.0404751
0.0404756
0.0404762
0.0404767
0.0404772
0.0404777
0.0404782
0.0404787
0.0404791
0.0404796
0.0404801
0.0404805
0.040481
0.0404815
0.0404819
0.0404824
0.0404829
0.0404833
0.0404838
0.0404842
0.0404847
0.0404851
0.0404855
0.040486
0.0404864
0.0404868
0.0404872
0.0404876
0.0404879
0.0404882
0.0404885
0.0404888
0.0404891
0.0404881
0.042184
0.0421723
0.0421702
0.0421701
0.0421705
0.042171
0.0421716
0.0421721
0.0421726
0.0421731
0.0421735
0.042174
0.0421744
0.0421748
0.0421753
0.0421757
0.0421761
0.0421765
0.0421769
0.0421773
0.0421777
0.0421781
0.0421785
0.042179
0.0421794
0.0421798
0.0421802
0.0421807
0.0421811
0.0421816
0.0421821
0.0421826
0.0421832
0.0421837
0.0421843
0.042185
0.0421856
0.0421863
0.042187
0.0421878
0.0421886
0.0421894
0.0421902
0.0421911
0.0421919
0.0421928
0.0421937
0.0421946
0.0421956
0.0421965
0.0421974
0.0421984
0.0421993
0.0422003
0.0422012
0.0422022
0.0422031
0.0422041
0.042205
0.0422059
0.0422068
0.0422077
0.0422086
0.0422095
0.0422104
0.0422113
0.0422121
0.042213
0.0422138
0.0422146
0.0422154
0.0422162
0.0422169
0.0422177
0.0422184
0.0422191
0.0422198
0.0422205
0.0422212
0.0422219
0.0422225
0.0422232
0.0422238
0.0422244
0.0422251
0.0422257
0.0422263
0.0422268
0.0422274
0.042228
0.0422285
0.0422291
0.0422297
0.0422302
0.0422307
0.0422313
0.0422318
0.0422323
0.0422328
0.0422333
0.0422339
0.0422344
0.0422349
0.0422354
0.0422359
0.0422364
0.0422369
0.0422373
0.0422378
0.0422383
0.0422387
0.0422391
0.0422395
0.0422398
0.0422402
0.0422404
0.0422407
0.0422408
0.0422411
0.0422402
0.0440763
0.0440638
0.0440614
0.0440611
0.0440614
0.0440618
0.0440622
0.0440626
0.044063
0.0440633
0.0440637
0.0440641
0.0440644
0.0440647
0.0440651
0.0440654
0.0440658
0.0440661
0.0440665
0.0440668
0.0440672
0.0440675
0.0440679
0.0440683
0.0440687
0.0440691
0.0440695
0.0440699
0.0440704
0.0440709
0.0440714
0.044072
0.0440726
0.0440732
0.0440739
0.0440746
0.0440754
0.0440762
0.044077
0.0440779
0.0440789
0.0440798
0.0440808
0.0440818
0.0440828
0.0440838
0.0440849
0.0440859
0.044087
0.0440881
0.0440892
0.0440903
0.0440913
0.0440924
0.0440935
0.0440946
0.0440956
0.0440967
0.0440978
0.0440988
0.0440998
0.0441008
0.0441018
0.0441028
0.0441038
0.0441048
0.0441057
0.0441066
0.0441075
0.0441084
0.0441093
0.0441102
0.044111
0.0441118
0.0441126
0.0441134
0.0441142
0.044115
0.0441157
0.0441165
0.0441172
0.0441179
0.0441186
0.0441193
0.04412
0.0441207
0.0441213
0.044122
0.0441226
0.0441232
0.0441238
0.0441245
0.0441251
0.0441257
0.0441263
0.0441268
0.0441274
0.044128
0.0441286
0.0441291
0.0441297
0.0441303
0.0441308
0.0441314
0.0441319
0.0441325
0.044133
0.0441335
0.044134
0.0441345
0.0441349
0.0441353
0.0441356
0.0441359
0.0441361
0.0441363
0.0441364
0.0441365
0.0441366
0.0441357
0.04612
0.0461066
0.0461038
0.0461033
0.0461034
0.0461037
0.0461039
0.0461042
0.0461044
0.0461047
0.0461049
0.0461051
0.0461054
0.0461056
0.0461059
0.0461061
0.0461064
0.0461067
0.046107
0.0461073
0.0461076
0.0461079
0.0461082
0.0461086
0.046109
0.0461093
0.0461097
0.0461102
0.0461107
0.0461112
0.0461118
0.0461124
0.0461131
0.0461139
0.0461147
0.0461156
0.0461165
0.0461175
0.0461186
0.0461196
0.0461207
0.0461219
0.046123
0.0461242
0.0461254
0.0461267
0.0461279
0.0461291
0.0461304
0.0461316
0.0461329
0.0461341
0.0461353
0.0461366
0.0461378
0.046139
0.0461402
0.0461414
0.0461426
0.0461437
0.0461449
0.046146
0.0461471
0.0461482
0.0461493
0.0461503
0.0461514
0.0461524
0.0461534
0.0461544
0.0461554
0.0461563
0.0461572
0.0461581
0.046159
0.0461599
0.0461608
0.0461616
0.0461624
0.0461632
0.046164
0.0461648
0.0461656
0.0461663
0.0461671
0.0461678
0.0461685
0.0461692
0.0461699
0.0461706
0.0461713
0.046172
0.0461727
0.0461733
0.046174
0.0461746
0.0461752
0.0461759
0.0461765
0.0461771
0.0461777
0.0461784
0.046179
0.0461796
0.0461802
0.0461807
0.0461813
0.0461818
0.0461823
0.0461827
0.0461831
0.0461834
0.0461836
0.0461838
0.0461838
0.0461838
0.0461838
0.0461837
0.0461836
0.0461828
0.0483236
0.0483092
0.048306
0.0483053
0.0483052
0.0483052
0.0483053
0.0483054
0.0483055
0.0483056
0.0483057
0.0483058
0.0483059
0.0483061
0.0483062
0.0483064
0.0483066
0.0483068
0.0483071
0.0483073
0.0483076
0.0483079
0.0483082
0.0483085
0.0483089
0.0483092
0.0483097
0.0483102
0.0483107
0.0483113
0.048312
0.0483128
0.0483137
0.0483147
0.0483157
0.0483168
0.048318
0.0483192
0.0483205
0.0483218
0.0483231
0.0483245
0.0483259
0.0483273
0.0483288
0.0483302
0.0483316
0.0483331
0.0483345
0.048336
0.0483374
0.0483388
0.0483402
0.0483416
0.048343
0.0483444
0.0483457
0.048347
0.0483483
0.0483496
0.0483509
0.0483521
0.0483534
0.0483546
0.0483558
0.0483569
0.0483581
0.0483592
0.0483603
0.0483614
0.0483624
0.0483634
0.0483645
0.0483654
0.0483664
0.0483674
0.0483683
0.0483692
0.0483701
0.048371
0.0483719
0.0483727
0.0483735
0.0483744
0.0483752
0.048376
0.0483768
0.0483775
0.0483783
0.048379
0.0483798
0.0483805
0.0483812
0.0483819
0.0483827
0.0483834
0.048384
0.0483847
0.0483854
0.0483861
0.0483868
0.0483874
0.0483881
0.0483887
0.0483893
0.0483899
0.0483905
0.048391
0.0483914
0.0483918
0.048392
0.0483921
0.0483921
0.0483921
0.0483919
0.0483917
0.0483914
0.048391
0.0483906
0.04839
0.0506961
0.0506807
0.0506771
0.0506761
0.0506758
0.0506756
0.0506755
0.0506754
0.0506753
0.0506753
0.0506752
0.0506752
0.0506753
0.0506753
0.0506754
0.0506755
0.0506756
0.0506758
0.050676
0.0506762
0.0506764
0.0506767
0.050677
0.0506773
0.0506776
0.0506781
0.0506786
0.0506791
0.0506798
0.0506806
0.0506816
0.0506826
0.0506838
0.050685
0.0506864
0.0506878
0.0506892
0.0506908
0.0506924
0.050694
0.0506956
0.0506973
0.0506989
0.0507006
0.0507023
0.050704
0.0507057
0.0507073
0.050709
0.0507106
0.0507123
0.0507139
0.0507155
0.050717
0.0507186
0.0507201
0.0507216
0.0507231
0.0507245
0.050726
0.0507274
0.0507287
0.0507301
0.0507314
0.0507327
0.0507339
0.0507352
0.0507364
0.0507376
0.0507387
0.0507399
0.050741
0.0507421
0.0507432
0.0507442
0.0507452
0.0507462
0.0507472
0.0507482
0.0507492
0.0507501
0.050751
0.0507519
0.0507528
0.0507537
0.0507545
0.0507554
0.0507562
0.050757
0.0507578
0.0507586
0.0507594
0.0507602
0.050761
0.0507617
0.0507625
0.0507632
0.050764
0.0507647
0.0507654
0.0507661
0.0507668
0.0507675
0.0507682
0.0507689
0.0507695
0.05077
0.0507704
0.0507707
0.0507708
0.0507708
0.0507706
0.0507703
0.0507699
0.0507694
0.0507688
0.0507682
0.0507676
0.0507668
0.0507662
0.0532472
0.0532307
0.0532267
0.0532254
0.0532248
0.0532244
0.0532241
0.0532238
0.0532236
0.0532234
0.0532232
0.0532231
0.053223
0.053223
0.053223
0.0532231
0.0532232
0.0532233
0.0532234
0.0532236
0.0532239
0.0532241
0.0532244
0.0532247
0.0532251
0.0532257
0.0532263
0.0532271
0.053228
0.0532291
0.0532304
0.0532318
0.0532334
0.053235
0.0532368
0.0532386
0.0532405
0.0532424
0.0532443
0.0532463
0.0532483
0.0532503
0.0532523
0.0532542
0.0532562
0.0532582
0.0532601
0.053262
0.0532639
0.0532658
0.0532676
0.0532694
0.0532712
0.0532729
0.0532746
0.0532763
0.053278
0.0532796
0.0532812
0.0532827
0.0532843
0.0532857
0.0532872
0.0532886
0.05329
0.0532914
0.0532927
0.053294
0.0532953
0.0532965
0.0532978
0.053299
0.0533001
0.0533013
0.0533024
0.0533035
0.0533046
0.0533056
0.0533067
0.0533077
0.0533087
0.0533097
0.0533106
0.0533116
0.0533125
0.0533134
0.0533143
0.0533152
0.0533161
0.053317
0.0533178
0.0533187
0.0533195
0.0533203
0.0533211
0.0533219
0.0533227
0.0533235
0.0533243
0.0533251
0.0533258
0.0533266
0.0533273
0.053328
0.0533286
0.0533291
0.0533295
0.0533297
0.0533297
0.0533295
0.0533291
0.0533284
0.0533277
0.0533268
0.0533259
0.0533249
0.0533238
0.0533228
0.0533216
0.0533211
0.055987
0.0559693
0.0559648
0.0559632
0.0559624
0.0559618
0.0559612
0.0559608
0.0559604
0.0559601
0.0559599
0.0559597
0.0559595
0.0559595
0.0559594
0.0559594
0.0559595
0.0559596
0.0559598
0.05596
0.0559602
0.0559605
0.0559608
0.0559612
0.0559617
0.0559624
0.0559633
0.0559645
0.0559659
0.0559675
0.0559692
0.0559712
0.0559733
0.0559755
0.0559777
0.05598
0.0559824
0.0559848
0.0559871
0.0559895
0.0559919
0.0559942
0.0559966
0.0559989
0.0560011
0.0560034
0.0560056
0.0560077
0.0560099
0.0560119
0.056014
0.056016
0.056018
0.0560199
0.0560217
0.0560236
0.0560254
0.0560271
0.0560288
0.0560305
0.0560322
0.0560338
0.0560353
0.0560368
0.0560383
0.0560398
0.0560412
0.0560426
0.056044
0.0560453
0.0560466
0.0560478
0.0560491
0.0560503
0.0560515
0.0560527
0.0560538
0.0560549
0.056056
0.0560571
0.0560581
0.0560592
0.0560602
0.0560612
0.0560622
0.0560632
0.0560641
0.0560651
0.056066
0.0560669
0.0560678
0.0560687
0.0560696
0.0560704
0.0560713
0.0560722
0.056073
0.0560738
0.0560746
0.0560755
0.0560763
0.0560771
0.0560778
0.0560784
0.056079
0.0560793
0.0560794
0.0560792
0.0560787
0.0560779
0.0560768
0.0560755
0.0560742
0.0560727
0.0560712
0.0560696
0.0560681
0.0560667
0.0560651
0.0560647
0.0589258
0.0589071
0.0589021
0.0589003
0.0588992
0.0588984
0.0588977
0.0588971
0.0588966
0.0588963
0.0588959
0.0588957
0.0588955
0.0588955
0.0588954
0.0588954
0.0588955
0.0588957
0.0588958
0.0588961
0.0588964
0.0588967
0.0588971
0.0588976
0.0588984
0.0588995
0.0589009
0.0589026
0.0589046
0.0589069
0.0589094
0.0589121
0.0589149
0.0589177
0.0589206
0.0589235
0.0589264
0.0589293
0.0589321
0.058935
0.0589377
0.0589405
0.0589431
0.0589458
0.0589483
0.0589508
0.0589533
0.0589557
0.058958
0.0589603
0.0589626
0.0589648
0.0589669
0.058969
0.058971
0.058973
0.0589749
0.0589768
0.0589786
0.0589804
0.0589821
0.0589838
0.0589855
0.0589871
0.0589886
0.0589902
0.0589917
0.0589931
0.0589946
0.058996
0.0589973
0.0589987
0.059
0.0590012
0.0590025
0.0590037
0.0590049
0.0590061
0.0590072
0.0590083
0.0590094
0.0590105
0.0590116
0.0590127
0.0590137
0.0590147
0.0590157
0.0590167
0.0590177
0.0590186
0.0590196
0.0590205
0.0590214
0.0590223
0.0590232
0.0590241
0.059025
0.0590259
0.0590267
0.0590276
0.0590284
0.0590292
0.0590299
0.0590305
0.0590307
0.0590307
0.0590303
0.0590294
0.059028
0.0590263
0.0590243
0.0590222
0.05902
0.0590178
0.0590157
0.0590136
0.0590116
0.0590097
0.0590076
0.0590074
0.062075
0.0620552
0.0620498
0.0620476
0.0620463
0.0620454
0.0620446
0.0620439
0.0620434
0.062043
0.0620427
0.0620425
0.0620423
0.0620423
0.0620423
0.0620424
0.0620425
0.0620427
0.062043
0.0620433
0.0620436
0.062044
0.0620446
0.0620454
0.0620467
0.0620484
0.0620506
0.0620533
0.0620563
0.0620596
0.062063
0.0620666
0.0620702
0.0620738
0.0620774
0.0620809
0.0620844
0.0620878
0.0620911
0.0620944
0.0620976
0.0621007
0.0621037
0.0621066
0.0621095
0.0621122
0.0621149
0.0621175
0.0621201
0.0621226
0.062125
0.0621273
0.0621296
0.0621318
0.0621339
0.062136
0.0621381
0.06214
0.062142
0.0621438
0.0621456
0.0621474
0.0621491
0.0621508
0.0621525
0.0621541
0.0621556
0.0621571
0.0621586
0.0621601
0.0621615
0.0621629
0.0621642
0.0621655
0.0621668
0.0621681
0.0621693
0.0621705
0.0621717
0.0621729
0.0621741
0.0621752
0.0621763