/*--------------------------------*- C++ -*----------------------------------*\
  =========                 |
  \\      /  F ield         | OpenFOAM: The Open Source CFD Toolbox
   \\    /   O peration     | Website:  https://openfoam.org
    \\  /    A nd           | Version:  7
     \\/     M anipulation  |
\*---------------------------------------------------------------------------*/
FoamFile
{
    version     2.0;
    format      ascii;
    class       volVectorField;
    location    "18500";
    object      U;
}
// * * * * * * * * * * * * * * * * * * * * * * * * * * * * * * * * * * * * * //

dimensions      [0 1 -1 0 0 0 0];

internalField   nonuniform List<vector> 
4000
(
(0.145231 -2.15897e-08 3.4474e-14)
(0.145231 -2.59491e-08 3.44552e-14)
(0.145231 -2.92728e-08 3.43884e-14)
(0.145231 -3.21774e-08 3.43828e-14)
(0.145231 -3.48301e-08 3.43363e-14)
(0.145231 -3.72732e-08 3.43139e-14)
(0.145231 -3.95235e-08 3.43469e-14)
(0.145231 -4.15603e-08 3.43516e-14)
(0.145231 -4.33715e-08 3.43429e-14)
(0.145231 -4.4979e-08 3.43892e-14)
(0.145231 -4.63936e-08 3.43693e-14)
(0.145231 -4.76168e-08 3.42826e-14)
(0.145231 -4.86679e-08 3.42958e-14)
(0.145231 -4.95589e-08 3.42268e-14)
(0.145231 -5.02966e-08 3.42522e-14)
(0.145231 -5.09001e-08 3.42362e-14)
(0.145231 -5.13863e-08 3.41511e-14)
(0.145231 -5.17738e-08 3.41714e-14)
(0.145231 -5.20618e-08 3.41133e-14)
(0.145231 -5.22468e-08 3.41546e-14)
(0.145231 -5.23373e-08 3.41479e-14)
(0.145231 -5.23213e-08 3.41832e-14)
(0.145231 -5.21998e-08 3.41874e-14)
(0.145231 -5.1971e-08 3.41773e-14)
(0.145231 -5.16218e-08 3.42043e-14)
(0.145231 -5.11721e-08 3.41638e-14)
(0.145231 -5.06441e-08 3.41431e-14)
(0.145231 -5.00458e-08 3.41448e-14)
(0.145231 -4.94008e-08 3.41394e-14)
(0.145231 -4.87267e-08 3.41774e-14)
(0.145231 -4.8027e-08 3.41457e-14)
(0.145231 -4.73157e-08 3.41216e-14)
(0.145231 -4.65878e-08 3.4123e-14)
(0.145231 -4.58178e-08 3.41075e-14)
(0.14523 -4.49742e-08 3.41509e-14)
(0.14523 -4.39926e-08 3.4107e-14)
(0.14523 -4.27884e-08 3.40784e-14)
(0.14523 -4.12369e-08 3.40655e-14)
(0.14523 -3.91328e-08 3.40426e-14)
(0.14523 -3.61918e-08 3.40889e-14)
(0.14523 -3.19819e-08 3.40971e-14)
(0.14523 -2.58692e-08 3.40877e-14)
(0.14523 -1.66628e-08 3.40616e-14)
(0.14523 -2.48686e-09 3.40557e-14)
(0.14523 2.03779e-08 3.40529e-14)
(0.14523 4.41971e-08 3.40464e-14)
(0.14523 5.94155e-08 3.40537e-14)
(0.14523 6.86212e-08 3.40385e-14)
(0.14523 7.42204e-08 3.4037e-14)
(0.14523 7.73617e-08 3.4033e-14)
(0.14523 7.88419e-08 3.4025e-14)
(0.14523 7.91799e-08 3.40175e-14)
(0.14523 7.87045e-08 3.40115e-14)
(0.14523 7.76473e-08 3.40036e-14)
(0.14523 7.61923e-08 3.39976e-14)
(0.14523 7.44555e-08 3.40197e-14)
(0.14523 7.24973e-08 3.40319e-14)
(0.14523 7.03881e-08 3.40236e-14)
(0.14523 6.81955e-08 3.40299e-14)
(0.14523 6.59393e-08 3.4025e-14)
(0.14523 6.3635e-08 3.40457e-14)
(0.14523 6.12943e-08 3.40599e-14)
(0.14523 5.89294e-08 3.40544e-14)
(0.14523 5.65596e-08 3.40546e-14)
(0.14523 5.4184e-08 3.40501e-14)
(0.14523 5.18083e-08 3.40686e-14)
(0.14523 4.94494e-08 3.40964e-14)
(0.14523 4.71068e-08 3.4088e-14)
(0.14523 4.47854e-08 3.40794e-14)
(0.14523 4.24872e-08 3.4082e-14)
(0.14523 4.02195e-08 3.4108e-14)
(0.14523 3.79745e-08 3.41209e-14)
(0.14523 3.57327e-08 3.41219e-14)
(0.14523 3.3487e-08 3.41299e-14)
(0.14523 3.12418e-08 3.41282e-14)
(0.14523 2.89956e-08 3.41434e-14)
(0.14523 2.67233e-08 3.4172e-14)
(0.14523 2.44206e-08 3.41584e-14)
(0.14523 2.20726e-08 3.41552e-14)
(0.14523 1.96702e-08 3.41397e-14)
(0.14523 1.72216e-08 3.41379e-14)
(0.14523 1.4713e-08 3.41738e-14)
(0.14523 1.21283e-08 3.41835e-14)
(0.14523 9.46476e-09 3.4191e-14)
(0.14523 6.71756e-09 3.42226e-14)
(0.14523 3.87893e-09 3.42352e-14)
(0.14523 9.41813e-10 3.42615e-14)
(0.14523 -2.08837e-09 3.42607e-14)
(0.14523 -5.20963e-09 3.4256e-14)
(0.14523 -8.4189e-09 3.42754e-14)
(0.14523 -1.16997e-08 3.42916e-14)
(0.14523 -1.50488e-08 3.43182e-14)
(0.14523 -1.84324e-08 3.43191e-14)
(0.14523 -2.17977e-08 3.43166e-14)
(0.14523 -2.50963e-08 3.43275e-14)
(0.14523 -2.82397e-08 3.43324e-14)
(0.14523 -3.1084e-08 3.43519e-14)
(0.14523 -3.34306e-08 3.43431e-14)
(0.145231 -3.50119e-08 3.43418e-14)
(0.145231 -3.53893e-08 3.4375e-14)
(0.145231 -3.39168e-08 3.43955e-14)
(0.145231 -2.94102e-08 3.44156e-14)
(0.145231 -1.99552e-08 3.44051e-14)
(0.145231 -1.80887e-09 3.44019e-14)
(0.145231 1.73195e-08 3.44152e-14)
(0.145231 2.79116e-08 3.44231e-14)
(0.145231 3.25932e-08 3.4436e-14)
(0.145231 3.38187e-08 3.44257e-14)
(0.145231 3.2773e-08 3.44188e-14)
(0.145231 3.02798e-08 3.4437e-14)
(0.145231 2.68627e-08 3.44408e-14)
(0.145231 2.28784e-08 3.44486e-14)
(0.145231 1.85706e-08 3.44346e-14)
(0.145231 1.41279e-08 3.44337e-14)
(0.145231 9.69935e-09 3.4469e-14)
(0.145231 5.38411e-09 3.4476e-14)
(0.145231 1.25295e-09 3.448e-14)
(0.145231 -2.74428e-09 3.44678e-14)
(0.145231 -7.33919e-09 3.44636e-14)
(0.145231 -1.44919e-08 3.44788e-14)
(0.145218 -2.71898e-08 3.44446e-14)
(0.145218 -3.22304e-08 3.44187e-14)
(0.145218 -3.4651e-08 3.42043e-14)
(0.145218 -3.63089e-08 3.431e-14)
(0.145218 -3.77385e-08 3.42383e-14)
(0.145218 -3.90701e-08 3.43477e-14)
(0.145218 -4.03301e-08 3.45169e-14)
(0.145218 -4.1492e-08 3.43757e-14)
(0.145218 -4.25402e-08 3.44162e-14)
(0.145218 -4.34808e-08 3.44996e-14)
(0.145218 -4.43091e-08 3.43925e-14)
(0.145218 -4.50236e-08 3.4305e-14)
(0.145218 -4.56348e-08 3.42734e-14)
(0.145218 -4.6145e-08 3.42272e-14)
(0.145218 -4.65534e-08 3.4212e-14)
(0.145218 -4.68705e-08 3.41954e-14)
(0.145218 -4.7106e-08 3.41514e-14)
(0.145218 -4.72768e-08 3.41363e-14)
(0.145218 -4.73816e-08 3.41055e-14)
(0.145218 -4.7412e-08 3.41036e-14)
(0.145218 -4.73663e-08 3.40411e-14)
(0.145218 -4.72334e-08 3.42131e-14)
(0.145218 -4.70119e-08 3.41562e-14)
(0.145218 -4.66901e-08 3.41448e-14)
(0.145218 -4.62526e-08 3.42152e-14)
(0.145218 -4.572e-08 3.41165e-14)
(0.145218 -4.51071e-08 3.41143e-14)
(0.145218 -4.44169e-08 3.41202e-14)
(0.145218 -4.36774e-08 3.41306e-14)
(0.145218 -4.29103e-08 3.42607e-14)
(0.145218 -4.21125e-08 3.41194e-14)
(0.145218 -4.12956e-08 3.41226e-14)
(0.145218 -4.04465e-08 3.41216e-14)
(0.145218 -3.95392e-08 3.41281e-14)
(0.145218 -3.85431e-08 3.4199e-14)
(0.145218 -3.73844e-08 3.41093e-14)
(0.145218 -3.59711e-08 3.40924e-14)
(0.145218 -3.41716e-08 3.40842e-14)
(0.145218 -3.17915e-08 3.40763e-14)
(0.145218 -2.85438e-08 3.42108e-14)
(0.145218 -2.40023e-08 3.41612e-14)
(0.145218 -1.75787e-08 3.41396e-14)
(0.145218 -8.26039e-09 3.41176e-14)
(0.145217 5.24868e-09 3.41109e-14)
(0.145217 2.52243e-08 3.41087e-14)
(0.145217 4.61484e-08 3.4104e-14)
(0.145217 6.08382e-08 3.41034e-14)
(0.145217 7.03789e-08 3.40966e-14)
(0.145217 7.64013e-08 3.40952e-14)
(0.145217 7.98961e-08 3.40939e-14)
(0.145217 8.16287e-08 3.40899e-14)
(0.145217 8.21322e-08 3.4087e-14)
(0.145217 8.17507e-08 3.40822e-14)
(0.145217 8.07177e-08 3.40757e-14)
(0.145217 7.92319e-08 3.40665e-14)
(0.145217 7.7413e-08 3.40804e-14)
(0.145217 7.53239e-08 3.40912e-14)
(0.145217 7.30491e-08 3.40946e-14)
(0.145217 7.06592e-08 3.40993e-14)
(0.145217 6.81784e-08 3.40977e-14)
(0.145217 6.56327e-08 3.41154e-14)
(0.145217 6.30283e-08 3.41319e-14)
(0.145217 6.03865e-08 3.41377e-14)
(0.145217 5.77295e-08 3.41386e-14)
(0.145217 5.50495e-08 3.41335e-14)
(0.145217 5.23653e-08 3.41535e-14)
(0.145217 4.96901e-08 3.41746e-14)
(0.145217 4.70223e-08 3.4178e-14)
(0.145217 4.43727e-08 3.4177e-14)
(0.145217 4.17395e-08 3.41744e-14)
(0.145217 3.91342e-08 3.41897e-14)
(0.145217 3.65526e-08 3.42056e-14)
(0.145217 3.39751e-08 3.42139e-14)
(0.145217 3.13913e-08 3.42221e-14)
(0.145217 2.88093e-08 3.42199e-14)
(0.145217 2.62344e-08 3.42311e-14)
(0.145217 2.36337e-08 3.42478e-14)
(0.145217 2.10107e-08 3.42516e-14)
(0.145217 1.83493e-08 3.42505e-14)
(0.145217 1.56397e-08 3.42356e-14)
(0.145217 1.28922e-08 3.41909e-14)
(0.145217 1.00936e-08 3.4231e-14)
(0.145217 7.23222e-09 3.42381e-14)
(0.145217 4.31021e-09 3.42265e-14)
(0.145218 1.32436e-09 3.42712e-14)
(0.145218 -1.73936e-09 3.42536e-14)
(0.145218 -4.87921e-09 3.42996e-14)
(0.145218 -8.08924e-09 3.43052e-14)
(0.145218 -1.13594e-08 3.42861e-14)
(0.145218 -1.4681e-08 3.43238e-14)
(0.145218 -1.80491e-08 3.43047e-14)
(0.145218 -2.14426e-08 3.43364e-14)
(0.145218 -2.48177e-08 3.43419e-14)
(0.145218 -2.81258e-08 3.43293e-14)
(0.145218 -3.13145e-08 3.43449e-14)
(0.145218 -3.42848e-08 3.43205e-14)
(0.145218 -3.68878e-08 3.43744e-14)
(0.145218 -3.89289e-08 3.43619e-14)
(0.145218 -4.01414e-08 3.43474e-14)
(0.145218 -4.01081e-08 3.43917e-14)
(0.145218 -3.82149e-08 3.43714e-14)
(0.145218 -3.34448e-08 3.44113e-14)
(0.145218 -2.44711e-08 3.44066e-14)
(0.145218 -8.99137e-09 3.43894e-14)
(0.145218 7.5164e-09 3.44147e-14)
(0.145218 1.79084e-08 3.43941e-14)
(0.145218 2.33189e-08 3.44271e-14)
(0.145218 2.54468e-08 3.44258e-14)
(0.145218 2.5331e-08 3.44108e-14)
(0.145218 2.37735e-08 3.44416e-14)
(0.145218 2.13231e-08 3.44166e-14)
(0.145218 1.83669e-08 3.44157e-14)
(0.145218 1.51806e-08 3.44066e-14)
(0.145218 1.19828e-08 3.44026e-14)
(0.145218 8.94264e-09 3.44627e-14)
(0.145218 6.17579e-09 3.44229e-14)
(0.145218 3.75996e-09 3.44167e-14)
(0.145218 1.45177e-09 3.44168e-14)
(0.145218 -2.79928e-09 3.44097e-14)
(0.145218 -1.47566e-08 3.44506e-14)
(0.145194 -3.26841e-08 3.4425e-14)
(0.145194 -3.82853e-08 3.43887e-14)
(0.145194 -3.96999e-08 3.43257e-14)
(0.145194 -4.00377e-08 3.42918e-14)
(0.145194 -4.01854e-08 3.42691e-14)
(0.145194 -4.03494e-08 3.43085e-14)
(0.145194 -4.0564e-08 3.43521e-14)
(0.145194 -4.08084e-08 3.43502e-14)
(0.145194 -4.10559e-08 3.43588e-14)
(0.145194 -4.12933e-08 3.43841e-14)
(0.145194 -4.14996e-08 3.43391e-14)
(0.145194 -4.16733e-08 3.42855e-14)
(0.145194 -4.18238e-08 3.42444e-14)
(0.145194 -4.19256e-08 3.42027e-14)
(0.145194 -4.19785e-08 3.41737e-14)
(0.145194 -4.19915e-08 3.41527e-14)
(0.145194 -4.19613e-08 3.41257e-14)
(0.145194 -4.1907e-08 3.41056e-14)
(0.145194 -4.18248e-08 3.40818e-14)
(0.145194 -4.16975e-08 3.4067e-14)
(0.145194 -4.15147e-08 3.40379e-14)
(0.145194 -4.12639e-08 3.40826e-14)
(0.145194 -4.09494e-08 3.41033e-14)
(0.145194 -4.0539e-08 3.41074e-14)
(0.145194 -4.00124e-08 3.41537e-14)
(0.145194 -3.93987e-08 3.41265e-14)
(0.145194 -3.87023e-08 3.4114e-14)
(0.145194 -3.79264e-08 3.41219e-14)
(0.145194 -3.71059e-08 3.41225e-14)
(0.145194 -3.62556e-08 3.41765e-14)
(0.145194 -3.53737e-08 3.41572e-14)
(0.145194 -3.44673e-08 3.41404e-14)
(0.145194 -3.3523e-08 3.41472e-14)
(0.145194 -3.25184e-08 3.41364e-14)
(0.145194 -3.14133e-08 3.41936e-14)
(0.145194 -3.01341e-08 3.41587e-14)
(0.145194 -2.85789e-08 3.41338e-14)
(0.145193 -2.66202e-08 3.41227e-14)
(0.145193 -2.40773e-08 3.41029e-14)
(0.145193 -2.06601e-08 3.41657e-14)
(0.145193 -1.59742e-08 3.41887e-14)
(0.145193 -9.51686e-09 3.41811e-14)
(0.145193 -4.52886e-10 3.41676e-14)
(0.145193 1.20475e-08 3.41667e-14)
(0.145193 2.9223e-08 3.41665e-14)
(0.145193 4.73902e-08 3.41608e-14)
(0.145193 6.13582e-08 3.41587e-14)
(0.145193 7.11143e-08 3.41555e-14)
(0.145193 7.75637e-08 3.41603e-14)
(0.145193 8.147e-08 3.41605e-14)
(0.145193 8.35208e-08 3.41555e-14)
(0.145193 8.42461e-08 3.41526e-14)
(0.145193 8.39951e-08 3.41488e-14)
(0.145193 8.30195e-08 3.41439e-14)
(0.145193 8.1529e-08 3.41295e-14)
(0.145193 7.96536e-08 3.41649e-14)
(0.145193 7.74668e-08 3.41678e-14)
(0.145193 7.50583e-08 3.41701e-14)
(0.145193 7.24996e-08 3.41743e-14)
(0.145193 6.98193e-08 3.41696e-14)
(0.145193 6.70574e-08 3.41979e-14)
(0.145193 6.4223e-08 3.42189e-14)
(0.145193 6.13354e-08 3.4225e-14)
(0.145193 5.84162e-08 3.42231e-14)
(0.145193 5.5469e-08 3.42149e-14)
(0.145193 5.25105e-08 3.42532e-14)
(0.145193 4.95466e-08 3.42746e-14)
(0.145193 4.6585e-08 3.42746e-14)
(0.145193 4.36413e-08 3.42722e-14)
(0.145193 4.07112e-08 3.4263e-14)
(0.145193 3.78062e-08 3.42834e-14)
(0.145193 3.49197e-08 3.4301e-14)
(0.145193 3.20348e-08 3.43096e-14)
(0.145193 2.9145e-08 3.4318e-14)
(0.145193 2.62587e-08 3.43115e-14)
(0.145193 2.33804e-08 3.4328e-14)
(0.145193 2.04876e-08 3.43449e-14)
(0.145193 1.75747e-08 3.43519e-14)
(0.145193 1.46238e-08 3.43515e-14)
(0.145193 1.16382e-08 3.43305e-14)
(0.145193 8.62269e-09 3.42644e-14)
(0.145193 5.55991e-09 3.43588e-14)
(0.145193 2.45235e-09 3.42894e-14)
(0.145193 -7.03993e-10 3.42386e-14)
(0.145193 -3.91367e-09 3.43736e-14)
(0.145193 -7.17697e-09 3.42888e-14)
(0.145193 -1.04968e-08 3.44109e-14)
(0.145193 -1.38607e-08 3.43408e-14)
(0.145193 -1.72607e-08 3.43031e-14)
(0.145194 -2.06859e-08 3.44189e-14)
(0.145194 -2.41203e-08 3.42221e-14)
(0.145194 -2.75489e-08 3.43766e-14)
(0.145194 -3.09194e-08 3.43559e-14)
(0.145194 -3.41728e-08 3.43301e-14)
(0.145194 -3.72552e-08 3.43721e-14)
(0.145194 -4.00682e-08 3.43125e-14)
(0.145194 -4.24735e-08 3.44987e-14)
(0.145194 -4.42712e-08 3.4381e-14)
(0.145194 -4.5214e-08 3.43311e-14)
(0.145194 -4.49126e-08 3.44498e-14)
(0.145194 -4.28146e-08 3.43195e-14)
(0.145194 -3.8111e-08 3.44852e-14)
(0.145194 -2.99231e-08 3.44054e-14)
(0.145194 -1.69792e-08 3.43717e-14)
(0.145194 -2.93128e-09 3.44066e-14)
(0.145194 7.10042e-09 3.43616e-14)
(0.145194 1.31588e-08 3.44881e-14)
(0.145194 1.62199e-08 3.44177e-14)
(0.145194 1.71116e-08 3.4387e-14)
(0.145194 1.65722e-08 3.44517e-14)
(0.145194 1.51629e-08 3.43353e-14)
(0.145194 1.32969e-08 3.43915e-14)
(0.145194 1.12762e-08 3.43851e-14)
(0.145194 9.35795e-09 3.43714e-14)
(0.145194 7.73819e-09 3.44461e-14)
(0.145194 6.55379e-09 3.43535e-14)
(0.145194 5.88337e-09 3.43471e-14)
(0.145194 5.2952e-09 3.43657e-14)
(0.145194 1.45524e-09 3.43527e-14)
(0.145194 -1.51188e-08 3.44224e-14)
(0.145159 -3.79714e-08 3.43737e-14)
(0.145159 -4.40659e-08 3.43567e-14)
(0.145159 -4.43974e-08 3.43296e-14)
(0.145159 -4.33217e-08 3.43078e-14)
(0.145159 -4.21032e-08 3.42887e-14)
(0.145159 -4.10366e-08 3.42968e-14)
(0.145159 -4.01569e-08 3.43151e-14)
(0.145159 -3.94272e-08 3.43129e-14)
(0.145159 -3.88227e-08 3.43074e-14)
(0.145159 -3.83229e-08 3.43029e-14)
(0.145159 -3.78822e-08 3.42749e-14)
(0.145159 -3.74927e-08 3.42363e-14)
(0.145159 -3.71476e-08 3.41979e-14)
(0.145159 -3.68231e-08 3.416e-14)
(0.145159 -3.65037e-08 3.41269e-14)
(0.145159 -3.6196e-08 3.41065e-14)
(0.145159 -3.58974e-08 3.40896e-14)
(0.145159 -3.56201e-08 3.40713e-14)
(0.145159 -3.53524e-08 3.40497e-14)
(0.145159 -3.50718e-08 3.40304e-14)
(0.145159 -3.47597e-08 3.40142e-14)
(0.145159 -3.44042e-08 3.40362e-14)
(0.145159 -3.40002e-08 3.4062e-14)
(0.145159 -3.35004e-08 3.40806e-14)
(0.145159 -3.28959e-08 3.41136e-14)
(0.145159 -3.22179e-08 3.41244e-14)
(0.145159 -3.14552e-08 3.41289e-14)
(0.145159 -3.05993e-08 3.41363e-14)
(0.145159 -2.97042e-08 3.41429e-14)
(0.145159 -2.87878e-08 3.41708e-14)
(0.145159 -2.78387e-08 3.41765e-14)
(0.145159 -2.68771e-08 3.41754e-14)
(0.145159 -2.58785e-08 3.41759e-14)
(0.145159 -2.4817e-08 3.41737e-14)
(0.145159 -2.36541e-08 3.41951e-14)
(0.145159 -2.23084e-08 3.41915e-14)
(0.145159 -2.06865e-08 3.41802e-14)
(0.145159 -1.86616e-08 3.41713e-14)
(0.145159 -1.6062e-08 3.41653e-14)
(0.145159 -1.26197e-08 3.41954e-14)
(0.145159 -7.96683e-09 3.42152e-14)
(0.145159 -1.67205e-09 3.4219e-14)
(0.145159 6.89284e-09 3.42138e-14)
(0.145159 1.82447e-08 3.42264e-14)
(0.145159 3.29729e-08 3.42265e-14)
(0.145159 4.85729e-08 3.42163e-14)
(0.145159 6.14179e-08 3.42164e-14)
(0.145159 7.10151e-08 3.42158e-14)
(0.145159 7.77068e-08 3.4236e-14)
(0.145159 8.19745e-08 3.4233e-14)
(0.145159 8.43604e-08 3.42207e-14)
(0.145159 8.53449e-08 3.4218e-14)
(0.145159 8.52741e-08 3.42142e-14)
(0.145159 8.43986e-08 3.4214e-14)
(0.145159 8.29449e-08 3.41847e-14)
(0.145159 8.10524e-08 3.43211e-14)
(0.145159 7.88004e-08 3.42586e-14)
(0.145159 7.6288e-08 3.42488e-14)
(0.145159 7.35935e-08 3.42553e-14)
(0.145159 7.07488e-08 3.42375e-14)
(0.145159 6.78097e-08 3.42714e-14)
(0.145159 6.47737e-08 3.43139e-14)
(0.145159 6.16627e-08 3.4317e-14)
(0.145159 5.85222e-08 3.431e-14)
(0.145159 5.53445e-08 3.42897e-14)
(0.145159 5.21423e-08 3.44395e-14)
(0.145159 4.89225e-08 3.43808e-14)
(0.145159 4.57004e-08 3.43742e-14)
(0.145159 4.24983e-08 3.43693e-14)
(0.145159 3.93025e-08 3.43458e-14)
(0.145159 3.61277e-08 3.44789e-14)
(0.145159 3.29755e-08 3.44054e-14)
(0.145159 2.98221e-08 3.44111e-14)
(0.145159 2.66538e-08 3.44217e-14)
(0.145159 2.34877e-08 3.43993e-14)
(0.145159 2.03478e-08 3.45231e-14)
(0.145159 1.71923e-08 3.44495e-14)
(0.145159 1.40144e-08 3.4457e-14)
(0.145159 1.08065e-08 3.44564e-14)
(0.145159 7.56725e-09 3.44248e-14)
(0.145159 4.31265e-09 3.4385e-14)
(0.145159 1.02084e-09 3.43601e-14)
(0.145159 -2.30991e-09 3.42979e-14)
(0.145159 -5.67447e-09 3.42767e-14)
(0.145159 -9.07954e-09 3.42412e-14)
(0.145159 -1.25246e-08 3.44255e-14)
(0.145159 -1.59982e-08 3.42805e-14)
(0.145159 -1.94977e-08 3.43373e-14)
(0.145159 -2.30136e-08 3.42622e-14)
(0.145159 -2.6519e-08 3.43391e-14)
(0.145159 -3.00149e-08 3.44489e-14)
(0.145159 -3.34689e-08 3.43311e-14)
(0.145159 -3.68181e-08 3.43324e-14)
(0.145159 -4.00207e-08 3.42737e-14)
(0.145159 -4.30138e-08 3.42749e-14)
(0.145159 -4.56877e-08 3.44736e-14)
(0.145159 -4.79183e-08 3.4395e-14)
(0.145159 -4.95269e-08 3.43411e-14)
(0.145159 -5.02729e-08 3.42178e-14)
(0.145159 -4.98153e-08 3.43464e-14)
(0.145159 -4.7681e-08 3.45079e-14)
(0.145159 -4.32339e-08 3.43708e-14)
(0.145159 -3.59258e-08 3.43717e-14)
(0.145159 -2.51299e-08 3.43465e-14)
(0.145159 -1.33025e-08 3.43555e-14)
(0.145159 -4.00769e-09 3.44961e-14)
(0.145159 2.33984e-09 3.43026e-14)
(0.145159 6.18142e-09 3.43675e-14)
(0.145159 8.06442e-09 3.43138e-14)
(0.145159 8.58719e-09 3.43271e-14)
(0.145159 8.27654e-09 3.44241e-14)
(0.145159 7.55993e-09 3.44074e-14)
(0.145159 6.77132e-09 3.43701e-14)
(0.145159 6.18668e-09 3.42965e-14)
(0.145159 6.03095e-09 3.43289e-14)
(0.145159 6.46697e-09 3.44039e-14)
(0.145159 7.5785e-09 3.43242e-14)
(0.145159 8.76546e-09 3.43144e-14)
(0.145159 5.47467e-09 3.4206e-14)
(0.145159 -1.54589e-08 3.43276e-14)
(0.145114 -4.29463e-08 3.43894e-14)
(0.145114 -4.94639e-08 3.43146e-14)
(0.145114 -4.86579e-08 3.43294e-14)
(0.145114 -4.61117e-08 3.43208e-14)
(0.145114 -4.34446e-08 3.42978e-14)
(0.145114 -4.10663e-08 3.42936e-14)
(0.145114 -3.9032e-08 3.42904e-14)
(0.145114 -3.7286e-08 3.42722e-14)
(0.145114 -3.57855e-08 3.42551e-14)
(0.145114 -3.45076e-08 3.42343e-14)
(0.145114 -3.33945e-08 3.42002e-14)
(0.145114 -3.2413e-08 3.4168e-14)
(0.145114 -3.15585e-08 3.41346e-14)
(0.145114 -3.07971e-08 3.41029e-14)
(0.145114 -3.01014e-08 3.40687e-14)
(0.145114 -2.94611e-08 3.40571e-14)
(0.145114 -2.88927e-08 3.40514e-14)
(0.145114 -2.8397e-08 3.40338e-14)
(0.145114 -2.79518e-08 3.40116e-14)
(0.145114 -2.7529e-08 3.39897e-14)
(0.145114 -2.7101e-08 3.39839e-14)
(0.145114 -2.66567e-08 3.40078e-14)
(0.145114 -2.61806e-08 3.40383e-14)
(0.145114 -2.56156e-08 3.40685e-14)
(0.145114 -2.49466e-08 3.41047e-14)
(0.145114 -2.42065e-08 3.41318e-14)
(0.145114 -2.33777e-08 3.41495e-14)
(0.145114 -2.24702e-08 3.41574e-14)
(0.145114 -2.15287e-08 3.41651e-14)
(0.145114 -2.05751e-08 3.41858e-14)
(0.145114 -1.95953e-08 3.42005e-14)
(0.145114 -1.85926e-08 3.42085e-14)
(0.145114 -1.75745e-08 3.42069e-14)
(0.145114 -1.65127e-08 3.42063e-14)
(0.145114 -1.53467e-08 3.4219e-14)
(0.145114 -1.40089e-08 3.42287e-14)
(0.145114 -1.24013e-08 3.42305e-14)
(0.145114 -1.03944e-08 3.42232e-14)
(0.145114 -7.84778e-09 3.42209e-14)
(0.145114 -4.49771e-09 3.42384e-14)
(0.145114 -1.7408e-11 3.42507e-14)
(0.145114 5.92854e-09 3.42587e-14)
(0.145114 1.3838e-08 3.42575e-14)
(0.145114 2.40089e-08 3.42992e-14)
(0.145114 3.66339e-08 3.42871e-14)
(0.145114 4.99555e-08 3.42671e-14)
(0.145114 6.14351e-08 3.42738e-14)
(0.145114 7.04638e-08 3.42759e-14)
(0.145114 7.7077e-08 3.43381e-14)
(0.145114 8.15225e-08 3.43114e-14)
(0.145114 8.41634e-08 3.42822e-14)
(0.145114 8.53905e-08 3.42866e-14)
(0.145114 8.5504e-08 3.42786e-14)
(0.145114 8.47532e-08 3.42941e-14)
(0.145114 8.3361e-08 3.42198e-14)
(0.145114 8.14817e-08 3.42994e-14)
(0.145114 7.92051e-08 3.43231e-14)
(0.145114 7.6625e-08 3.43288e-14)
(0.145114 7.38334e-08 3.43468e-14)
(0.145114 7.08628e-08 3.42884e-14)
(0.145114 6.7767e-08 3.4357e-14)
(0.145114 6.45683e-08 3.44032e-14)
(0.145114 6.12843e-08 3.4409e-14)
(0.145114 5.7944e-08 3.43974e-14)
(0.145114 5.45668e-08 3.43462e-14)
(0.145114 5.11586e-08 3.44289e-14)
(0.145114 4.77195e-08 3.44776e-14)
(0.145114 4.42758e-08 3.447e-14)
(0.145114 4.08523e-08 3.44729e-14)
(0.145114 3.74272e-08 3.44107e-14)
(0.145114 3.40165e-08 3.44851e-14)
(0.145114 3.06277e-08 3.45173e-14)
(0.145114 2.72311e-08 3.45149e-14)
(0.145114 2.38199e-08 3.45354e-14)
(0.145114 2.04175e-08 3.44645e-14)
(0.145114 1.70418e-08 3.45172e-14)
(0.145114 1.36547e-08 3.45514e-14)
(0.145114 1.02488e-08 3.45628e-14)
(0.145114 6.80792e-09 3.45679e-14)
(0.145114 3.34511e-09 3.45013e-14)
(0.145114 -1.21029e-10 3.45386e-14)
(0.145114 -3.61398e-09 3.44969e-14)
(0.145114 -7.13695e-09 3.44693e-14)
(0.145114 -1.06907e-08 3.44443e-14)
(0.145114 -1.42637e-08 3.44534e-14)
(0.145114 -1.78631e-08 3.45495e-14)
(0.145114 -2.14813e-08 3.45243e-14)
(0.145114 -2.50874e-08 3.44863e-14)
(0.145114 -2.86908e-08 3.44761e-14)
(0.145114 -3.22725e-08 3.44695e-14)
(0.145114 -3.58099e-08 3.45503e-14)
(0.145114 -3.92746e-08 3.45027e-14)
(0.145114 -4.26049e-08 3.44738e-14)
(0.145114 -4.57475e-08 3.44742e-14)
(0.145114 -4.86476e-08 3.44497e-14)
(0.145114 -5.12073e-08 3.45225e-14)
(0.145114 -5.3297e-08 3.44982e-14)
(0.145114 -5.47386e-08 3.44629e-14)
(0.145114 -5.5351e-08 3.44577e-14)
(0.145114 -5.48373e-08 3.44533e-14)
(0.145114 -5.27626e-08 3.45625e-14)
(0.145114 -4.86785e-08 3.45316e-14)
(0.145114 -4.22419e-08 3.44858e-14)
(0.145114 -3.31994e-08 3.44818e-14)
(0.145114 -2.32746e-08 3.44464e-14)
(0.145114 -1.49254e-08 3.45194e-14)
(0.145114 -8.65466e-09 3.44971e-14)
(0.145114 -4.32917e-09 3.44782e-14)
(0.145114 -1.62845e-09 3.45068e-14)
(0.145114 -1.01742e-10 3.44811e-14)
(0.145114 6.92761e-10 3.45232e-14)
(0.145114 1.16188e-09 3.45488e-14)
(0.145114 1.64011e-09 3.45013e-14)
(0.145114 2.42862e-09 3.44955e-14)
(0.145114 3.79233e-09 3.44564e-14)
(0.145114 5.8972e-09 3.45249e-14)
(0.145114 8.83891e-09 3.44821e-14)
(0.145114 1.18844e-08 3.44419e-14)
(0.145114 9.31793e-09 3.4425e-14)
(0.145114 -1.56925e-08 3.43917e-14)
(0.14506 -4.75047e-08 3.44151e-14)
(0.14506 -5.43629e-08 3.43869e-14)
(0.14506 -5.23582e-08 3.4358e-14)
(0.14506 -4.82763e-08 3.43323e-14)
(0.14506 -4.41145e-08 3.4295e-14)
(0.14506 -4.0379e-08 3.42932e-14)
(0.14506 -3.71347e-08 3.42673e-14)
(0.14506 -3.43194e-08 3.42231e-14)
(0.14506 -3.18901e-08 3.41985e-14)
(0.14506 -2.981e-08 3.41608e-14)
(0.14506 -2.79977e-08 3.41099e-14)
(0.14506 -2.64148e-08 3.40861e-14)
(0.14506 -2.50302e-08 3.40576e-14)
(0.14506 -2.38206e-08 3.40358e-14)
(0.14506 -2.27492e-08 3.39987e-14)
(0.14506 -2.17926e-08 3.40104e-14)
(0.14506 -2.09568e-08 3.40179e-14)
(0.14506 -2.02482e-08 3.39933e-14)
(0.14506 -1.96376e-08 3.39686e-14)
(0.145059 -1.90894e-08 3.39429e-14)
(0.145059 -1.85715e-08 3.39559e-14)
(0.145059 -1.80627e-08 3.39967e-14)
(0.145059 -1.75324e-08 3.40325e-14)
(0.145059 -1.69136e-08 3.40741e-14)
(0.145059 -1.62004e-08 3.41189e-14)
(0.145059 -1.54269e-08 3.41562e-14)
(0.145059 -1.45728e-08 3.41805e-14)
(0.145059 -1.36261e-08 3.41834e-14)
(0.145059 -1.26539e-08 3.41935e-14)
(0.145059 -1.16809e-08 3.42173e-14)
(0.145059 -1.0689e-08 3.42357e-14)
(0.145059 -9.71173e-09 3.42487e-14)
(0.145059 -8.73109e-09 3.42399e-14)
(0.145059 -7.7142e-09 3.42412e-14)
(0.145059 -6.61481e-09 3.4256e-14)
(0.145059 -5.34683e-09 3.42768e-14)
(0.145059 -3.83208e-09 3.42877e-14)
(0.145059 -1.94896e-09 3.4275e-14)
(0.145059 4.42918e-10 3.42766e-14)
(0.145059 3.57783e-09 3.4293e-14)
(0.145059 7.75174e-09 3.42946e-14)
(0.145059 1.32443e-08 3.42938e-14)
(0.145059 2.04021e-08 3.42937e-14)
(0.145059 2.93824e-08 3.43726e-14)
(0.145059 4.01888e-08 3.434e-14)
(0.145059 5.15208e-08 3.43058e-14)
(0.145059 6.15586e-08 3.43636e-14)
(0.145059 6.97498e-08 3.43265e-14)
(0.145059 7.5984e-08 3.44691e-14)
(0.145059 8.03519e-08 3.4386e-14)
(0.145059 8.30677e-08 3.4332e-14)
(0.145059 8.44328e-08 3.44345e-14)
(0.145059 8.46968e-08 3.43401e-14)
(0.145059 8.40523e-08 3.43391e-14)
(0.145059 8.27312e-08 3.41985e-14)
(0.145059 8.08946e-08 3.44142e-14)
(0.145059 7.86147e-08 3.4447e-14)
(0.145059 7.59859e-08 3.4403e-14)
(0.145059 7.31159e-08 3.45167e-14)
(0.145059 7.00512e-08 3.43337e-14)
(0.145059 6.68638e-08 3.44504e-14)
(0.145059 6.3541e-08 3.45393e-14)
(0.145059 6.00943e-08 3.44939e-14)
(0.145059 5.65971e-08 3.4583e-14)
(0.145059 5.30631e-08 3.43891e-14)
(0.145059 4.94858e-08 3.45803e-14)
(0.145059 4.58661e-08 3.46108e-14)
(0.145059 4.22409e-08 3.45642e-14)
(0.145059 3.86249e-08 3.46587e-14)
(0.145059 3.50015e-08 3.44174e-14)
(0.145059 3.13938e-08 3.46943e-14)
(0.145059 2.77939e-08 3.46207e-14)
(0.145059 2.41891e-08 3.46188e-14)
(0.145059 2.05809e-08 3.46755e-14)
(0.145059 1.69725e-08 3.44835e-14)
(0.145059 1.33928e-08 3.46285e-14)
(0.145059 9.79583e-09 3.47081e-14)
(0.145059 6.18145e-09 3.46655e-14)
(0.145059 2.55471e-09 3.47671e-14)
(0.145059 -1.09509e-09 3.45152e-14)
(0.145059 -4.75082e-09 3.46643e-14)
(0.145059 -8.42083e-09 3.46462e-14)
(0.145059 -1.20951e-08 3.46165e-14)
(0.145059 -1.58063e-08 3.46575e-14)
(0.145059 -1.95423e-08 3.46165e-14)
(0.145059 -2.32674e-08 3.48101e-14)
(0.145059 -2.69897e-08 3.46701e-14)
(0.145059 -3.07014e-08 3.46131e-14)
(0.145059 -3.43874e-08 3.46537e-14)
(0.145059 -3.80138e-08 3.46094e-14)
(0.145059 -4.15682e-08 3.46886e-14)
(0.145059 -4.50291e-08 3.46465e-14)
(0.145059 -4.83379e-08 3.45929e-14)
(0.145059 -5.14262e-08 3.46892e-14)
(0.145059 -5.42332e-08 3.45882e-14)
(0.145059 -5.66696e-08 3.46624e-14)
(0.145059 -5.86296e-08 3.46225e-14)
(0.145059 -5.99617e-08 3.45739e-14)
(0.145059 -6.04864e-08 3.46234e-14)
(0.145059 -5.99491e-08 3.45858e-14)
(0.145059 -5.8014e-08 3.47316e-14)
(0.145059 -5.4338e-08 3.46456e-14)
(0.145059 -4.87175e-08 3.45818e-14)
(0.145059 -4.11061e-08 3.46258e-14)
(0.145059 -3.27573e-08 3.45764e-14)
(0.14506 -2.53839e-08 3.46464e-14)
(0.14506 -1.94382e-08 3.46074e-14)
(0.14506 -1.49197e-08 3.45707e-14)
(0.14506 -1.16265e-08 3.46352e-14)
(0.14506 -9.24724e-09 3.45955e-14)
(0.14506 -7.42879e-09 3.46397e-14)
(0.14506 -5.80008e-09 3.46791e-14)
(0.14506 -4.03052e-09 3.46015e-14)
(0.14506 -1.8341e-09 3.46151e-14)
(0.14506 1.06615e-09 3.45594e-14)
(0.14506 4.87561e-09 3.4715e-14)
(0.14506 9.7056e-09 3.47335e-14)
(0.14506 1.46812e-08 3.45313e-14)
(0.14506 1.30626e-08 3.45951e-14)
(0.14506 -1.57029e-08 3.44743e-14)
(0.144996 -5.14947e-08 3.44195e-14)
(0.144996 -5.86201e-08 3.44472e-14)
(0.144996 -5.53669e-08 3.43879e-14)
(0.144996 -4.97075e-08 3.43364e-14)
(0.144996 -4.40026e-08 3.42709e-14)
(0.144996 -3.8868e-08 3.42985e-14)
(0.144996 -3.43827e-08 3.42295e-14)
(0.144996 -3.04757e-08 3.41512e-14)
(0.144996 -2.70939e-08 3.41388e-14)
(0.144996 -2.41862e-08 3.40748e-14)
(0.144996 -2.16708e-08 3.39948e-14)
(0.144996 -1.94703e-08 3.39984e-14)
(0.144995 -1.75577e-08 3.39689e-14)
(0.144995 -1.5908e-08 3.39656e-14)
(0.144995 -1.44637e-08 3.39176e-14)
(0.144995 -1.31996e-08 3.39831e-14)
(0.144995 -1.21129e-08 3.39964e-14)
(0.144995 -1.12065e-08 3.39453e-14)
(0.144995 -1.04507e-08 3.39217e-14)
(0.144995 -9.80138e-09 3.38877e-14)
(0.144995 -9.22721e-09 3.39459e-14)
(0.144995 -8.67888e-09 3.40107e-14)
(0.144995 -8.1257e-09 3.40429e-14)
(0.144995 -7.50005e-09 3.40991e-14)
(0.144995 -6.77132e-09 3.4155e-14)
(0.144995 -5.96748e-09 3.42042e-14)
(0.144995 -5.0875e-09 3.42236e-14)
(0.144995 -4.13327e-09 3.42087e-14)
(0.144995 -3.16678e-09 3.42336e-14)
(0.144995 -2.21973e-09 3.42658e-14)
(0.144995 -1.27548e-09 3.42836e-14)
(0.144995 -3.54456e-10 3.42968e-14)
(0.144995 5.43977e-10 3.42693e-14)
(0.144995 1.45504e-09 3.42816e-14)
(0.144995 2.42253e-09 3.43047e-14)
(0.144995 3.52059e-09 3.43413e-14)
(0.144995 4.85223e-09 3.4353e-14)
(0.144995 6.5309e-09 3.43207e-14)
(0.144995 8.66505e-09 3.43365e-14)
(0.144995 1.14896e-08 3.43603e-14)
(0.144995 1.52565e-08 3.43405e-14)
(0.144995 2.0173e-08 3.43235e-14)
(0.144995 2.65107e-08 3.43137e-14)
(0.144995 3.43311e-08 3.43506e-14)
(0.144995 4.35339e-08 3.43408e-14)
(0.144995 5.31204e-08 3.43296e-14)
(0.144995 6.17673e-08 3.43436e-14)
(0.144995 6.89841e-08 3.43522e-14)
(0.144995 7.45976e-08 3.44145e-14)
(0.144995 7.86514e-08 3.43874e-14)
(0.144995 8.12671e-08 3.43655e-14)
(0.144995 8.26281e-08 3.43772e-14)
(0.144995 8.29351e-08 3.43782e-14)
(0.144995 8.23512e-08 3.44011e-14)
(0.144995 8.10782e-08 3.43375e-14)
(0.144995 7.92727e-08 3.44015e-14)
(0.144995 7.69957e-08 3.44442e-14)
(0.144995 7.43451e-08 3.44643e-14)
(0.144995 7.143e-08 3.44897e-14)
(0.144995 6.8302e-08 3.44393e-14)
(0.144995 6.5024e-08 3.45031e-14)
(0.144995 6.16061e-08 3.45517e-14)
(0.144995 5.80601e-08 3.45642e-14)
(0.144995 5.44377e-08 3.45582e-14)
(0.144995 5.07715e-08 3.45172e-14)
(0.144995 4.70583e-08 3.45854e-14)
(0.144995 4.33013e-08 3.46348e-14)
(0.144995 3.95301e-08 3.46377e-14)
(0.144995 3.57595e-08 3.46461e-14)
(0.144995 3.19722e-08 3.45918e-14)
(0.144995 2.81927e-08 3.46645e-14)
(0.144995 2.44199e-08 3.46985e-14)
(0.144995 2.06421e-08 3.47011e-14)
(0.144995 1.687e-08 3.47237e-14)
(0.144995 1.30982e-08 3.46566e-14)
(0.144995 9.33918e-09 3.47082e-14)
(0.144995 5.56493e-09 3.47449e-14)
(0.144995 1.79099e-09 3.47606e-14)
(0.144995 -1.99984e-09 3.47673e-14)
(0.144995 -5.81356e-09 3.47091e-14)
(0.144995 -9.62523e-09 3.47473e-14)
(0.144995 -1.34397e-08 3.47592e-14)
(0.144995 -1.72599e-08 3.47372e-14)
(0.144995 -2.11003e-08 3.47402e-14)
(0.144995 -2.49396e-08 3.4724e-14)
(0.144995 -2.87819e-08 3.47703e-14)
(0.144995 -3.2609e-08 3.47509e-14)
(0.144995 -3.63872e-08 3.47125e-14)
(0.144995 -4.0127e-08 3.47164e-14)
(0.144995 -4.37883e-08 3.47002e-14)
(0.144995 -4.73531e-08 3.47443e-14)
(0.144995 -5.07962e-08 3.47235e-14)
(0.144995 -5.40547e-08 3.46847e-14)
(0.144995 -5.707e-08 3.46856e-14)
(0.144995 -5.97851e-08 3.46709e-14)
(0.144995 -6.21292e-08 3.47115e-14)
(0.144995 -6.39808e-08 3.46934e-14)
(0.144995 -6.51977e-08 3.46601e-14)
(0.144995 -6.56621e-08 3.46661e-14)
(0.144995 -6.51589e-08 3.46579e-14)
(0.144995 -6.3389e-08 3.47164e-14)
(0.144995 -6.01354e-08 3.46943e-14)
(0.144995 -5.5255e-08 3.46537e-14)
(0.144995 -4.88161e-08 3.46572e-14)
(0.144995 -4.17652e-08 3.46421e-14)
(0.144995 -3.5303e-08 3.46745e-14)
(0.144995 -2.97979e-08 3.46622e-14)
(0.144995 -2.5273e-08 3.46359e-14)
(0.144995 -2.15964e-08 3.46698e-14)
(0.144996 -1.85398e-08 3.46322e-14)
(0.144996 -1.58254e-08 3.46456e-14)