/*--------------------------------*- C++ -*----------------------------------*\
  =========                 |
  \\      /  F ield         | OpenFOAM: The Open Source CFD Toolbox
   \\    /   O peration     | Website:  https://openfoam.org
    \\  /    A nd           | Version:  7
     \\/     M anipulation  |
\*---------------------------------------------------------------------------*/
FoamFile
{
    version     2.0;
    format      ascii;
    class       volScalarField;
    location    "7000";
    object      k;
}
// * * * * * * * * * * * * * * * * * * * * * * * * * * * * * * * * * * * * * //

dimensions      [0 2 -2 0 0 0 0];

internalField   nonuniform List<scalar> 
24000
(
8.1452e-09
8.14558e-09
8.14573e-09
8.14569e-09
8.14553e-09
8.14533e-09
8.14512e-09
8.14492e-09
8.14474e-09
8.14457e-09
8.14444e-09
8.14433e-09
8.14424e-09
8.14417e-09
8.14412e-09
8.14409e-09
8.14407e-09
8.14407e-09
8.14407e-09
8.14409e-09
8.14411e-09
8.14414e-09
8.14418e-09
8.14422e-09
8.14426e-09
8.14431e-09
8.14436e-09
8.14441e-09
8.14446e-09
8.14452e-09
8.14457e-09
8.14462e-09
8.14467e-09
8.14473e-09
8.14478e-09
8.14483e-09
8.14487e-09
8.14492e-09
8.14497e-09
8.14501e-09
8.14505e-09
8.14509e-09
8.14513e-09
8.14516e-09
8.14519e-09
8.14521e-09
8.14524e-09
8.14526e-09
8.14528e-09
8.1453e-09
8.14532e-09
8.14533e-09
8.14535e-09
8.14537e-09
8.14538e-09
8.14539e-09
8.1454e-09
8.1454e-09
8.14539e-09
8.14538e-09
8.14536e-09
8.14533e-09
8.1453e-09
8.14526e-09
8.14521e-09
8.14517e-09
8.14512e-09
8.14507e-09
8.14502e-09
8.14498e-09
8.14493e-09
8.14488e-09
8.14484e-09
8.1448e-09
8.14476e-09
8.14472e-09
8.14469e-09
8.14466e-09
8.14463e-09
8.1446e-09
8.14458e-09
8.14455e-09
8.14453e-09
8.14451e-09
8.1445e-09
8.14448e-09
8.14447e-09
8.14445e-09
8.14445e-09
8.14444e-09
8.14443e-09
8.14442e-09
8.14441e-09
8.1444e-09
8.14439e-09
8.14439e-09
8.14438e-09
8.14438e-09
8.14439e-09
8.14439e-09
8.1444e-09
8.14442e-09
8.14444e-09
8.14446e-09
8.14448e-09
8.1445e-09
8.14453e-09
8.14456e-09
8.14459e-09
8.14463e-09
8.14466e-09
8.1447e-09
8.14473e-09
8.14476e-09
8.14479e-09
8.14482e-09
8.14484e-09
8.14486e-09
8.1449e-09
8.14479e-09
2.61946e-07
2.61958e-07
2.61963e-07
2.61962e-07
2.61957e-07
2.6195e-07
2.61943e-07
2.61937e-07
2.61931e-07
2.61926e-07
2.61921e-07
2.61918e-07
2.61915e-07
2.61913e-07
2.61911e-07
2.6191e-07
2.6191e-07
2.61909e-07
2.6191e-07
2.6191e-07
2.61911e-07
2.61912e-07
2.61913e-07
2.61914e-07
2.61916e-07
2.61917e-07
2.61919e-07
2.6192e-07
2.61922e-07
2.61924e-07
2.61926e-07
2.61927e-07
2.61929e-07
2.61931e-07
2.61932e-07
2.61934e-07
2.61935e-07
2.61937e-07
2.61938e-07
2.6194e-07
2.61941e-07
2.61942e-07
2.61944e-07
2.61945e-07
2.61945e-07
2.61946e-07
2.61947e-07
2.61948e-07
2.61948e-07
2.61949e-07
2.6195e-07
2.6195e-07
2.61951e-07
2.61951e-07
2.61952e-07
2.61952e-07
2.61952e-07
2.61952e-07
2.61952e-07
2.61952e-07
2.61951e-07
2.6195e-07
2.61949e-07
2.61948e-07
2.61946e-07
2.61945e-07
2.61943e-07
2.61942e-07
2.6194e-07
2.61939e-07
2.61937e-07
2.61936e-07
2.61934e-07
2.61933e-07
2.61932e-07
2.61931e-07
2.61929e-07
2.61928e-07
2.61927e-07
2.61927e-07
2.61926e-07
2.61925e-07
2.61924e-07
2.61924e-07
2.61923e-07
2.61923e-07
2.61922e-07
2.61922e-07
2.61922e-07
2.61921e-07
2.61921e-07
2.61921e-07
2.6192e-07
2.6192e-07
2.6192e-07
2.6192e-07
2.6192e-07
2.6192e-07
2.6192e-07
2.6192e-07
2.6192e-07
2.61921e-07
2.61921e-07
2.61922e-07
2.61923e-07
2.61923e-07
2.61924e-07
2.61925e-07
2.61926e-07
2.61927e-07
2.61928e-07
2.6193e-07
2.61931e-07
2.61932e-07
2.61933e-07
2.61934e-07
2.61934e-07
2.61935e-07
2.61936e-07
2.61933e-07
1.90136e-06
1.90145e-06
1.90148e-06
1.90147e-06
1.90144e-06
1.90139e-06
1.90134e-06
1.90129e-06
1.90125e-06
1.90121e-06
1.90118e-06
1.90115e-06
1.90113e-06
1.90112e-06
1.90111e-06
1.9011e-06
1.9011e-06
1.90109e-06
1.9011e-06
1.9011e-06
1.9011e-06
1.90111e-06
1.90112e-06
1.90113e-06
1.90114e-06
1.90115e-06
1.90116e-06
1.90117e-06
1.90119e-06
1.9012e-06
1.90121e-06
1.90122e-06
1.90124e-06
1.90125e-06
1.90126e-06
1.90127e-06
1.90128e-06
1.90129e-06
1.9013e-06
1.90131e-06
1.90132e-06
1.90133e-06
1.90134e-06
1.90135e-06
1.90136e-06
1.90136e-06
1.90137e-06
1.90137e-06
1.90138e-06
1.90138e-06
1.90139e-06
1.90139e-06
1.90139e-06
1.9014e-06
1.9014e-06
1.9014e-06
1.9014e-06
1.9014e-06
1.9014e-06
1.9014e-06
1.9014e-06
1.90139e-06
1.90138e-06
1.90137e-06
1.90136e-06
1.90135e-06
1.90134e-06
1.90133e-06
1.90132e-06
1.90131e-06
1.9013e-06
1.90128e-06
1.90127e-06
1.90127e-06
1.90126e-06
1.90125e-06
1.90124e-06
1.90123e-06
1.90123e-06
1.90122e-06
1.90121e-06
1.90121e-06
1.9012e-06
1.9012e-06
1.90119e-06
1.90119e-06
1.90119e-06
1.90118e-06
1.90118e-06
1.90118e-06
1.90118e-06
1.90118e-06
1.90117e-06
1.90117e-06
1.90117e-06
1.90117e-06
1.90117e-06
1.90117e-06
1.90117e-06
1.90117e-06
1.90117e-06
1.90118e-06
1.90118e-06
1.90119e-06
1.90119e-06
1.9012e-06
1.9012e-06
1.90121e-06
1.90122e-06
1.90122e-06
1.90123e-06
1.90124e-06
1.90125e-06
1.90126e-06
1.90126e-06
1.90127e-06
1.90128e-06
1.90128e-06
1.90129e-06
1.90126e-06
7.01365e-06
7.01397e-06
7.01409e-06
7.01404e-06
7.01391e-06
7.01374e-06
7.01356e-06
7.01338e-06
7.01323e-06
7.01309e-06
7.01298e-06
7.01288e-06
7.01281e-06
7.01275e-06
7.01271e-06
7.01268e-06
7.01267e-06
7.01266e-06
7.01267e-06
7.01268e-06
7.0127e-06
7.01273e-06
7.01276e-06
7.0128e-06
7.01283e-06
7.01287e-06
7.01292e-06
7.01296e-06
7.013e-06
7.01305e-06
7.01309e-06
7.01314e-06
7.01318e-06
7.01323e-06
7.01327e-06
7.01331e-06
7.01335e-06
7.01339e-06
7.01343e-06
7.01347e-06
7.01351e-06
7.01354e-06
7.01357e-06
7.0136e-06
7.01362e-06
7.01364e-06
7.01366e-06
7.01368e-06
7.0137e-06
7.01371e-06
7.01373e-06
7.01375e-06
7.01376e-06
7.01377e-06
7.01379e-06
7.01379e-06
7.0138e-06
7.0138e-06
7.01379e-06
7.01378e-06
7.01376e-06
7.01374e-06
7.01371e-06
7.01368e-06
7.01364e-06
7.0136e-06
7.01356e-06
7.01352e-06
7.01348e-06
7.01344e-06
7.0134e-06
7.01336e-06
7.01332e-06
7.01329e-06
7.01325e-06
7.01322e-06
7.01319e-06
7.01317e-06
7.01314e-06
7.01312e-06
7.0131e-06
7.01308e-06
7.01306e-06
7.01304e-06
7.01303e-06
7.01301e-06
7.013e-06
7.01299e-06
7.01299e-06
7.01298e-06
7.01297e-06
7.01296e-06
7.01295e-06
7.01295e-06
7.01294e-06
7.01293e-06
7.01293e-06
7.01293e-06
7.01293e-06
7.01294e-06
7.01295e-06
7.01296e-06
7.01298e-06
7.013e-06
7.01302e-06
7.01304e-06
7.01306e-06
7.01309e-06
7.01311e-06
7.01314e-06
7.01317e-06
7.0132e-06
7.01323e-06
7.01326e-06
7.01328e-06
7.01331e-06
7.01333e-06
7.01334e-06
7.01338e-06
7.01328e-06
1.77835e-05
1.77843e-05
1.77845e-05
1.77844e-05
1.7784e-05
1.77836e-05
1.77831e-05
1.77827e-05
1.77823e-05
1.7782e-05
1.77817e-05
1.77815e-05
1.77813e-05
1.77812e-05
1.77811e-05
1.7781e-05
1.7781e-05
1.7781e-05
1.7781e-05
1.7781e-05
1.77811e-05
1.77811e-05
1.77812e-05
1.77813e-05
1.77814e-05
1.77815e-05
1.77816e-05
1.77817e-05
1.77818e-05
1.77819e-05
1.7782e-05
1.77822e-05
1.77823e-05
1.77824e-05
1.77825e-05
1.77826e-05
1.77827e-05
1.77828e-05
1.77829e-05
1.7783e-05
1.77831e-05
1.77831e-05
1.77832e-05
1.77833e-05
1.77833e-05
1.77834e-05
1.77834e-05
1.77835e-05
1.77835e-05
1.77836e-05
1.77836e-05
1.77836e-05
1.77837e-05
1.77837e-05
1.77837e-05
1.77838e-05
1.77838e-05
1.77838e-05
1.77838e-05
1.77837e-05
1.77837e-05
1.77836e-05
1.77835e-05
1.77835e-05
1.77834e-05
1.77833e-05
1.77832e-05
1.77831e-05
1.7783e-05
1.77829e-05
1.77828e-05
1.77827e-05
1.77826e-05
1.77825e-05
1.77824e-05
1.77823e-05
1.77823e-05
1.77822e-05
1.77821e-05
1.77821e-05
1.7782e-05
1.7782e-05
1.77819e-05
1.77819e-05
1.77819e-05
1.77818e-05
1.77818e-05
1.77818e-05
1.77818e-05
1.77817e-05
1.77817e-05
1.77817e-05
1.77817e-05
1.77817e-05
1.77816e-05
1.77816e-05
1.77816e-05
1.77816e-05
1.77816e-05
1.77817e-05
1.77817e-05
1.77817e-05
1.77818e-05
1.77818e-05
1.77818e-05
1.77819e-05
1.7782e-05
1.7782e-05
1.77821e-05
1.77822e-05
1.77822e-05
1.77823e-05
1.77824e-05
1.77824e-05
1.77825e-05
1.77826e-05
1.77826e-05
1.77827e-05
1.77827e-05
1.77825e-05
3.47988e-05
3.48002e-05
3.48005e-05
3.48002e-05
3.47996e-05
3.47988e-05
3.47979e-05
3.47972e-05
3.47965e-05
3.47959e-05
3.47954e-05
3.47949e-05
3.47946e-05
3.47944e-05
3.47942e-05
3.47941e-05
3.4794e-05
3.4794e-05
3.47941e-05
3.47941e-05
3.47942e-05
3.47944e-05
3.47945e-05
3.47947e-05
3.47949e-05
3.4795e-05
3.47952e-05
3.47954e-05
3.47956e-05
3.47958e-05
3.4796e-05
3.47963e-05
3.47965e-05
3.47967e-05
3.47968e-05
3.4797e-05
3.47972e-05
3.47974e-05
3.47976e-05
3.47977e-05
3.47979e-05
3.4798e-05
3.47982e-05
3.47983e-05
3.47984e-05
3.47985e-05
3.47986e-05
3.47987e-05
3.47988e-05
3.47988e-05
3.47989e-05
3.4799e-05
3.47991e-05
3.47991e-05
3.47992e-05
3.47992e-05
3.47992e-05
3.47992e-05
3.47992e-05
3.47991e-05
3.4799e-05
3.47989e-05
3.47988e-05
3.47986e-05
3.47984e-05
3.47982e-05
3.47981e-05
3.47979e-05
3.47977e-05
3.47975e-05
3.47973e-05
3.47971e-05
3.4797e-05
3.47968e-05
3.47967e-05
3.47965e-05
3.47964e-05
3.47963e-05
3.47962e-05
3.47961e-05
3.4796e-05
3.47959e-05
3.47958e-05
3.47957e-05
3.47956e-05
3.47956e-05
3.47955e-05
3.47955e-05
3.47955e-05
3.47954e-05
3.47954e-05
3.47954e-05
3.47953e-05
3.47953e-05
3.47952e-05
3.47952e-05
3.47952e-05
3.47952e-05
3.47952e-05
3.47953e-05
3.47953e-05
3.47954e-05
3.47955e-05
3.47955e-05
3.47956e-05
3.47957e-05
3.47959e-05
3.4796e-05
3.47961e-05
3.47962e-05
3.47964e-05
3.47965e-05
3.47966e-05
3.47968e-05
3.47969e-05
3.4797e-05
3.47971e-05
3.47971e-05
3.47973e-05
3.47968e-05
5.58582e-05
5.58602e-05
5.58606e-05
5.58601e-05
5.5859e-05
5.58578e-05
5.58566e-05
5.58555e-05
5.58545e-05
5.58536e-05
5.58529e-05
5.58523e-05
5.58518e-05
5.58515e-05
5.58512e-05
5.58511e-05
5.5851e-05
5.5851e-05
5.58511e-05
5.58512e-05
5.58514e-05
5.58516e-05
5.58518e-05
5.5852e-05
5.58523e-05
5.58526e-05
5.58529e-05
5.58532e-05
5.58535e-05
5.58538e-05
5.58541e-05
5.58544e-05
5.58547e-05
5.5855e-05
5.58553e-05
5.58555e-05
5.58558e-05
5.58561e-05
5.58563e-05
5.58566e-05
5.58568e-05
5.5857e-05
5.58572e-05
5.58574e-05
5.58576e-05
5.58577e-05
5.58578e-05
5.5858e-05
5.58581e-05
5.58582e-05
5.58583e-05
5.58584e-05
5.58585e-05
5.58586e-05
5.58587e-05
5.58587e-05
5.58587e-05
5.58587e-05
5.58586e-05
5.58585e-05
5.58584e-05
5.58582e-05
5.5858e-05
5.58577e-05
5.58575e-05
5.58572e-05
5.58569e-05
5.58566e-05
5.58564e-05
5.58561e-05
5.58558e-05
5.58555e-05
5.58553e-05
5.58551e-05
5.58548e-05
5.58546e-05
5.58545e-05
5.58543e-05
5.58541e-05
5.5854e-05
5.58538e-05
5.58537e-05
5.58536e-05
5.58535e-05
5.58534e-05
5.58533e-05
5.58532e-05
5.58532e-05
5.58531e-05
5.5853e-05
5.5853e-05
5.58529e-05
5.58529e-05
5.58528e-05
5.58528e-05
5.58528e-05
5.58527e-05
5.58527e-05
5.58528e-05
5.58528e-05
5.58529e-05
5.5853e-05
5.58531e-05
5.58533e-05
5.58534e-05
5.58536e-05
5.58538e-05
5.58539e-05
5.58541e-05
5.58543e-05
5.58545e-05
5.58547e-05
5.58549e-05
5.58551e-05
5.58553e-05
5.58554e-05
5.58555e-05
5.58556e-05
5.58559e-05
5.58551e-05
7.74381e-05
7.74406e-05
7.74411e-05
7.74404e-05
7.74391e-05
7.74375e-05
7.7436e-05
7.74346e-05
7.74333e-05
7.74322e-05
7.74313e-05
7.74306e-05
7.74301e-05
7.74296e-05
7.74294e-05
7.74292e-05
7.74291e-05
7.74292e-05
7.74293e-05
7.74294e-05
7.74297e-05
7.74299e-05
7.74302e-05
7.74306e-05
7.74309e-05
7.74313e-05
7.74317e-05
7.7432e-05
7.74324e-05
7.74328e-05
7.74332e-05
7.74336e-05
7.7434e-05
7.74343e-05
7.74347e-05
7.7435e-05
7.74354e-05
7.74357e-05
7.7436e-05
7.74363e-05
7.74366e-05
7.74369e-05
7.74371e-05
7.74374e-05
7.74376e-05
7.74378e-05
7.7438e-05
7.74381e-05
7.74383e-05
7.74384e-05
7.74385e-05
7.74387e-05
7.74388e-05
7.74389e-05
7.7439e-05
7.7439e-05
7.7439e-05
7.74389e-05
7.74388e-05
7.74387e-05
7.74385e-05
7.74383e-05
7.7438e-05
7.74376e-05
7.74373e-05
7.74369e-05
7.74366e-05
7.74362e-05
7.74359e-05
7.74355e-05
7.74352e-05
7.74348e-05
7.74345e-05
7.74342e-05
7.74339e-05
7.74337e-05
7.74335e-05
7.74332e-05
7.7433e-05
7.74328e-05
7.74327e-05
7.74325e-05
7.74324e-05
7.74322e-05
7.74321e-05
7.7432e-05
7.74319e-05
7.74318e-05
7.74318e-05
7.74317e-05
7.74316e-05
7.74316e-05
7.74315e-05
7.74314e-05
7.74314e-05
7.74313e-05
7.74313e-05
7.74313e-05
7.74314e-05
7.74314e-05
7.74316e-05
7.74317e-05
7.74319e-05
7.7432e-05
7.74322e-05
7.74325e-05
7.74327e-05
7.7433e-05
7.74332e-05
7.74335e-05
7.74337e-05
7.7434e-05
7.74342e-05
7.74344e-05
7.74346e-05
7.74348e-05
7.7435e-05
7.74351e-05
7.74354e-05
7.74345e-05
9.70108e-05
9.70135e-05
9.70141e-05
9.70133e-05
9.70118e-05
9.70101e-05
9.70084e-05
9.70068e-05
9.70054e-05
9.70041e-05
9.70031e-05
9.70023e-05
9.70017e-05
9.70013e-05
9.7001e-05
9.70008e-05
9.70008e-05
9.70008e-05
9.7001e-05
9.70012e-05
9.70014e-05
9.70018e-05
9.70021e-05
9.70025e-05
9.70029e-05
9.70034e-05
9.70038e-05
9.70043e-05
9.70047e-05
9.70052e-05
9.70057e-05
9.70061e-05
9.70066e-05
9.7007e-05
9.70074e-05
9.70078e-05
9.70082e-05
9.70086e-05
9.70089e-05
9.70093e-05
9.70096e-05
9.70099e-05
9.70102e-05
9.70105e-05
9.70107e-05
9.70109e-05
9.70111e-05
9.70113e-05
9.70115e-05
9.70117e-05
9.70118e-05
9.7012e-05
9.70121e-05
9.70122e-05
9.70123e-05
9.70123e-05
9.70123e-05
9.70122e-05
9.70121e-05
9.70119e-05
9.70116e-05
9.70113e-05
9.70109e-05
9.70106e-05
9.70101e-05
9.70097e-05
9.70093e-05
9.70089e-05
9.70084e-05
9.7008e-05
9.70076e-05
9.70072e-05
9.70069e-05
9.70065e-05
9.70062e-05
9.70059e-05
9.70056e-05
9.70054e-05
9.70052e-05
9.70049e-05
9.70047e-05
9.70046e-05
9.70044e-05
9.70042e-05
9.70041e-05
9.7004e-05
9.70039e-05
9.70038e-05
9.70037e-05
9.70036e-05
9.70036e-05
9.70035e-05
9.70034e-05
9.70033e-05
9.70033e-05
9.70032e-05
9.70032e-05
9.70032e-05
9.70033e-05
9.70034e-05
9.70035e-05
9.70037e-05
9.70039e-05
9.70042e-05
9.70044e-05
9.70047e-05
9.7005e-05
9.70053e-05
9.70056e-05
9.70059e-05
9.70062e-05
9.70065e-05
9.70067e-05
9.7007e-05
9.70072e-05
9.70074e-05
9.70076e-05
9.70077e-05
9.70081e-05
9.70071e-05
0.000113612
0.000113615
0.000113616
0.000113615
0.000113613
0.000113612
0.00011361
0.000113608
0.000113607
0.000113605
0.000113604
0.000113603
0.000113603
0.000113602
0.000113602
0.000113602
0.000113602
0.000113602
0.000113602
0.000113602
0.000113603
0.000113603
0.000113604
0.000113604
0.000113604
0.000113605
0.000113605
0.000113606
0.000113606
0.000113607
0.000113607
0.000113608
0.000113608
0.000113609
0.000113609
0.00011361
0.00011361
0.000113611
0.000113611
0.000113611
0.000113612
0.000113612
0.000113612
0.000113613
0.000113613
0.000113613
0.000113614
0.000113614
0.000113614
0.000113614
0.000113614
0.000113614
0.000113615
0.000113615
0.000113615
0.000113615
0.000113615
0.000113615
0.000113614
0.000113614
0.000113614
0.000113613
0.000113613
0.000113613
0.000113612
0.000113612
0.000113611
0.000113611
0.00011361
0.00011361
0.000113609
0.000113609
0.000113608
0.000113608
0.000113608
0.000113607
0.000113607
0.000113607
0.000113607
0.000113606
0.000113606
0.000113606
0.000113606
0.000113606
0.000113605
0.000113605
0.000113605
0.000113605
0.000113605
0.000113605
0.000113605
0.000113605
0.000113605
0.000113605
0.000113605
0.000113604
0.000113604
0.000113605
0.000113605
0.000113605
0.000113605
0.000113605
0.000113605
0.000113606
0.000113606
0.000113606
0.000113607
0.000113607
0.000113607
0.000113608
0.000113608
0.000113608
0.000113609
0.000113609
0.000113609
0.000113609
0.00011361
0.00011361
0.00011361
0.000113609
0.000127251
0.000127254
0.000127254
0.000127254
0.000127252
0.00012725
0.000127249
0.000127247
0.000127245
0.000127244
0.000127243
0.000127242
0.000127242
0.000127241
0.000127241
0.000127241
0.000127241
0.000127241
0.000127241
0.000127241
0.000127242
0.000127242
0.000127242
0.000127243
0.000127243
0.000127244
0.000127245
0.000127245
0.000127246
0.000127246
0.000127247
0.000127247
0.000127248
0.000127248
0.000127249
0.000127249
0.00012725
0.00012725
0.000127251
0.000127251
0.000127251
0.000127252
0.000127252
0.000127253
0.000127253
0.000127253
0.000127253
0.000127254
0.000127254
0.000127254
0.000127254
0.000127254
0.000127254
0.000127254
0.000127255
0.000127254
0.000127254
0.000127254
0.000127254
0.000127254
0.000127253
0.000127253
0.000127252
0.000127252
0.000127251
0.000127251
0.00012725
0.00012725
0.000127249
0.000127249
0.000127248
0.000127248
0.000127247
0.000127247
0.000127247
0.000127246
0.000127246
0.000127246
0.000127246
0.000127245
0.000127245
0.000127245
0.000127245
0.000127244
0.000127244
0.000127244
0.000127244
0.000127244
0.000127244
0.000127244
0.000127244
0.000127244
0.000127243
0.000127243
0.000127243
0.000127243
0.000127243
0.000127243
0.000127243
0.000127244
0.000127244
0.000127244
0.000127244
0.000127245
0.000127245
0.000127245
0.000127246
0.000127246
0.000127247
0.000127247
0.000127247
0.000127248
0.000127248
0.000127248
0.000127248
0.000127249
0.000127249
0.000127249
0.000127249
0.000127249
0.000138316
0.000138318
0.000138319
0.000138318
0.000138317
0.000138315
0.000138314
0.000138312
0.00013831
0.000138309
0.000138308
0.000138307
0.000138307
0.000138306
0.000138306
0.000138306
0.000138306
0.000138306
0.000138306
0.000138306
0.000138307
0.000138307
0.000138308
0.000138308
0.000138309
0.000138309
0.00013831
0.000138311
0.000138311
0.000138312
0.000138312
0.000138313
0.000138314
0.000138314
0.000138315
0.000138315
0.000138316
0.000138316
0.000138316
0.000138317
0.000138317
0.000138318
0.000138318
0.000138318
0.000138319
0.000138319
0.000138319
0.000138319
0.00013832
0.00013832
0.00013832
0.00013832
0.00013832
0.00013832
0.00013832
0.00013832
0.00013832
0.00013832
0.00013832
0.000138319
0.000138319
0.000138318
0.000138318
0.000138317
0.000138317
0.000138316
0.000138316
0.000138315
0.000138315
0.000138314
0.000138314
0.000138313
0.000138313
0.000138312
0.000138312
0.000138311
0.000138311
0.000138311
0.000138311
0.00013831
0.00013831
0.00013831
0.00013831
0.000138309
0.000138309
0.000138309
0.000138309
0.000138309
0.000138309
0.000138309
0.000138309
0.000138309
0.000138308
0.000138308
0.000138308
0.000138308
0.000138308
0.000138308
0.000138309
0.000138309
0.000138309
0.000138309
0.00013831
0.00013831
0.00013831
0.000138311
0.000138311
0.000138312
0.000138312
0.000138312
0.000138313
0.000138313
0.000138313
0.000138314
0.000138314
0.000138314
0.000138314
0.000138315
0.000138315
0.000138314
0.000147269
0.00014727
0.00014727
0.00014727
0.000147269
0.000147267
0.000147266
0.000147264
0.000147263
0.000147261
0.00014726
0.000147259
0.000147259
0.000147258
0.000147258
0.000147258
0.000147258
0.000147258
0.000147258
0.000147259
0.000147259
0.00014726
0.00014726
0.000147261
0.000147261
0.000147262
0.000147263
0.000147263
0.000147264
0.000147264
0.000147265
0.000147266
0.000147266
0.000147267
0.000147267
0.000147268
0.000147268
0.000147269
0.000147269
0.00014727
0.00014727
0.000147271
0.000147271
0.000147271
0.000147272
0.000147272
0.000147272
0.000147273
0.000147273
0.000147273
0.000147273
0.000147273
0.000147273
0.000147273
0.000147273
0.000147273
0.000147273
0.000147273
0.000147273
0.000147272
0.000147272
0.000147271
0.000147271
0.00014727
0.000147269
0.000147269
0.000147268
0.000147268
0.000147267
0.000147266
0.000147266
0.000147265
0.000147265
0.000147265
0.000147264
0.000147264
0.000147263
0.000147263
0.000147263
0.000147263
0.000147262
0.000147262
0.000147262
0.000147262
0.000147262
0.000147261
0.000147261
0.000147261
0.000147261
0.000147261
0.000147261
0.000147261
0.000147261
0.000147261
0.000147261
0.000147261
0.000147261
0.000147261
0.000147261
0.000147261
0.000147261
0.000147262
0.000147262
0.000147262
0.000147263
0.000147263
0.000147264
0.000147264
0.000147265
0.000147265
0.000147265
0.000147266
0.000147266
0.000147266
0.000147267
0.000147267
0.000147267
0.000147267
0.000147267
0.000147267
0.000154524
0.000154525
0.000154525
0.000154525
0.000154524
0.000154522
0.000154521
0.000154519
0.000154518
0.000154517
0.000154516
0.000154515
0.000154514
0.000154514
0.000154514
0.000154514
0.000154514
0.000154514
0.000154514
0.000154515
0.000154515
0.000154515
0.000154516
0.000154517
0.000154517
0.000154518
0.000154519
0.000154519
0.00015452
0.00015452
0.000154521
0.000154522
0.000154522
0.000154523
0.000154524
0.000154524
0.000154525
0.000154525
0.000154526
0.000154526
0.000154527
0.000154527
0.000154527
0.000154528
0.000154528
0.000154528
0.000154529
0.000154529
0.000154529
0.000154529
0.00015453
0.00015453
0.00015453
0.00015453
0.00015453
0.00015453
0.000154529
0.000154529
0.000154529
0.000154528
0.000154528
0.000154527
0.000154526
0.000154526
0.000154525
0.000154525
0.000154524
0.000154523
0.000154523
0.000154522
0.000154522
0.000154521
0.000154521
0.00015452
0.00015452
0.000154519
0.000154519
0.000154519
0.000154518
0.000154518
0.000154518
0.000154518
0.000154517
0.000154517
0.000154517
0.000154517
0.000154517
0.000154517
0.000154517
0.000154516
0.000154516
0.000154516
0.000154516
0.000154516
0.000154516
0.000154516
0.000154516
0.000154516
0.000154517
0.000154517
0.000154517
0.000154517
0.000154518
0.000154518
0.000154519
0.000154519
0.00015452
0.00015452
0.00015452
0.000154521
0.000154521
0.000154522
0.000154522
0.000154522
0.000154522
0.000154523
0.000154523
0.000154523
0.000154523
0.000154523
0.000160425
0.000160425
0.000160425
0.000160425
0.000160424
0.000160422
0.000160421
0.00016042
0.000160419
0.000160417
0.000160416
0.000160416
0.000160415
0.000160415
0.000160415
0.000160414
0.000160414
0.000160415
0.000160415
0.000160415
0.000160416
0.000160416
0.000160417
0.000160417
0.000160418
0.000160419
0.000160419
0.00016042
0.000160421
0.000160421
0.000160422
0.000160423
0.000160423
0.000160424
0.000160425
0.000160425
0.000160426
0.000160426
0.000160427
0.000160427
0.000160428
0.000160428
0.000160429
0.000160429
0.000160429
0.00016043
0.00016043
0.00016043
0.00016043
0.000160431
0.000160431
0.000160431
0.000160431
0.000160431
0.000160431
0.000160431
0.00016043
0.00016043
0.00016043
0.000160429
0.000160428
0.000160428
0.000160427
0.000160427
0.000160426
0.000160425
0.000160425
0.000160424
0.000160423
0.000160423
0.000160422
0.000160422
0.000160421
0.000160421
0.00016042
0.00016042
0.00016042
0.000160419
0.000160419
0.000160419
0.000160419
0.000160418
0.000160418
0.000160418
0.000160418
0.000160418
0.000160417
0.000160417
0.000160417
0.000160417
0.000160417
0.000160417
0.000160417
0.000160417
0.000160417
0.000160417
0.000160417
0.000160417
0.000160417
0.000160418
0.000160418
0.000160418
0.000160419
0.000160419
0.00016042
0.00016042
0.00016042
0.000160421
0.000160421
0.000160422
0.000160422
0.000160422
0.000160423
0.000160423
0.000160423
0.000160424
0.000160424
0.000160424
0.000160424
0.000160424
0.00016524
0.00016524
0.00016524
0.000165239
0.000165238
0.000165237
0.000165236
0.000165235
0.000165234
0.000165233
0.000165232
0.000165231
0.000165231
0.00016523
0.00016523
0.00016523
0.00016523
0.00016523
0.00016523
0.000165231
0.000165231
0.000165232
0.000165232
0.000165233
0.000165234
0.000165234
0.000165235
0.000165236
0.000165236
0.000165237
0.000165238
0.000165239
0.000165239
0.00016524
0.00016524
0.000165241
0.000165242
0.000165242
0.000165243
0.000165243
0.000165244
0.000165244
0.000165245
0.000165245
0.000165245
0.000165246
0.000165246
0.000165246
0.000165246
0.000165247
0.000165247
0.000165247
0.000165247
0.000165247
0.000165247
0.000165246
0.000165246
0.000165246
0.000165245
0.000165245
0.000165244
0.000165243
0.000165243
0.000165242
0.000165241
0.000165241
0.00016524
0.000165239
0.000165239
0.000165238
0.000165238
0.000165237
0.000165237
0.000165236
0.000165236
0.000165235
0.000165235
0.000165235
0.000165234
0.000165234
0.000165234
0.000165234
0.000165233
0.000165233
0.000165233
0.000165233
0.000165233
0.000165233
0.000165232
0.000165232
0.000165232
0.000165232
0.000165232
0.000165232
0.000165232
0.000165232
0.000165232
0.000165232
0.000165233
0.000165233
0.000165233
0.000165234
0.000165234
0.000165235
0.000165235
0.000165236
0.000165236
0.000165237
0.000165237
0.000165237
0.000165238
0.000165238
0.000165238
0.000165239
0.000165239
0.000165239
0.000165239
0.000165239
0.00016524
0.00016524
0.00016918
0.00016918
0.000169179
0.000169179
0.000169178
0.000169177
0.000169176
0.000169174
0.000169173
0.000169173
0.000169172
0.000169171
0.000169171
0.00016917
0.00016917
0.00016917
0.00016917
0.00016917
0.000169171
0.000169171
0.000169172
0.000169172
0.000169173
0.000169173
0.000169174
0.000169175
0.000169175
0.000169176
0.000169177
0.000169178
0.000169178
0.000169179
0.00016918
0.00016918
0.000169181
0.000169182
0.000169182
0.000169183
0.000169183
0.000169184
0.000169184
0.000169185
0.000169185
0.000169185
0.000169186
0.000169186
0.000169187
0.000169187
0.000169187
0.000169187
0.000169187
0.000169188
0.000169188
0.000169187
0.000169187
0.000169187
0.000169186
0.000169186
0.000169185
0.000169185
0.000169184
0.000169183
0.000169183
0.000169182
0.000169181
0.000169181
0.00016918
0.000169179
0.000169179
0.000169178
0.000169178
0.000169177
0.000169177
0.000169176
0.000169176
0.000169175
0.000169175
0.000169175
0.000169174
0.000169174
0.000169174
0.000169174
0.000169173
0.000169173
0.000169173
0.000169173
0.000169173
0.000169172
0.000169172
0.000169172
0.000169172
0.000169172
0.000169172
0.000169172
0.000169172
0.000169172
0.000169172
0.000169172
0.000169173
0.000169173
0.000169174
0.000169174
0.000169174
0.000169175
0.000169175
0.000169176
0.000169176
0.000169177
0.000169177
0.000169178
0.000169178
0.000169178
0.000169179
0.000169179
0.000169179
0.000169179
0.000169179
0.00016918
0.00016918
0.00016918
0.000172408
0.000172407
0.000172406
0.000172406
0.000172405
0.000172404
0.000172403
0.000172402
0.000172401
0.0001724
0.000172399
0.000172399
0.000172398
0.000172398
0.000172398
0.000172398
0.000172398
0.000172398
0.000172399
0.000172399
0.000172399
0.0001724
0.000172401
0.000172401
0.000172402
0.000172402
0.000172403
0.000172404
0.000172405
0.000172405
0.000172406
0.000172407
0.000172407
0.000172408
0.000172409
0.000172409
0.00017241
0.000172411
0.000172411
0.000172412
0.000172412
0.000172413
0.000172413
0.000172414
0.000172414
0.000172414
0.000172415
0.000172415
0.000172415
0.000172415
0.000172415
0.000172416
0.000172416
0.000172415
0.000172415
0.000172415
0.000172414
0.000172414
0.000172413
0.000172412
0.000172412
0.000172411
0.00017241
0.00017241
0.000172409
0.000172408
0.000172408
0.000172407
0.000172406
0.000172406
0.000172405
0.000172405
0.000172404
0.000172404
0.000172403
0.000172403
0.000172403
0.000172402
0.000172402
0.000172402
0.000172401
0.000172401
0.000172401
0.000172401
0.000172401
0.0001724
0.0001724
0.0001724
0.0001724
0.0001724
0.0001724
0.000172399
0.000172399
0.000172399
0.000172399
0.0001724
0.0001724
0.0001724
0.0001724
0.000172401
0.000172401
0.000172402
0.000172402
0.000172403
0.000172403
0.000172404
0.000172404
0.000172404
0.000172405
0.000172405
0.000172406
0.000172406
0.000172406
0.000172406
0.000172407
0.000172407
0.000172407
0.000172407
0.000172407
0.000172408
0.000175049
0.000175049
0.000175048
0.000175047
0.000175046
0.000175045
0.000175044
0.000175043
0.000175042
0.000175042
0.000175041
0.000175041
0.00017504
0.00017504
0.00017504
0.00017504
0.00017504
0.00017504
0.000175041
0.000175041
0.000175041
0.000175042
0.000175043
0.000175043
0.000175044
0.000175045
0.000175045
0.000175046
0.000175047
0.000175047
0.000175048
0.000175049
0.00017505
0.00017505
0.000175051
0.000175052
0.000175052
0.000175053
0.000175053
0.000175054
0.000175054
0.000175055
0.000175055
0.000175056
0.000175056
0.000175056
0.000175057
0.000175057
0.000175057
0.000175058
0.000175058
0.000175058
0.000175058
0.000175057
0.000175057
0.000175057
0.000175056
0.000175055
0.000175055
0.000175054
0.000175053
0.000175053
0.000175052
0.000175051
0.000175051
0.00017505
0.000175049
0.000175049
0.000175048
0.000175048
0.000175047
0.000175047
0.000175046
0.000175046
0.000175045
0.000175045
0.000175045
0.000175044
0.000175044
0.000175044
0.000175043
0.000175043
0.000175043
0.000175043
0.000175042
0.000175042
0.000175042
0.000175042
0.000175042
0.000175041
0.000175041
0.000175041
0.000175041
0.000175041
0.000175041
0.000175041
0.000175042
0.000175042
0.000175042
0.000175043
0.000175043
0.000175044
0.000175044
0.000175045
0.000175045
0.000175046
0.000175046
0.000175046
0.000175047
0.000175047
0.000175047
0.000175048
0.000175048
0.000175048
0.000175048
0.000175049
0.000175049
0.000175049
0.000175049
0.000175049
0.000177204
0.000177203
0.000177202
0.000177201
0.000177201
0.0001772
0.000177199
0.000177198
0.000177197
0.000177197
0.000177196
0.000177196
0.000177196
0.000177195
0.000177195
0.000177195
0.000177195
0.000177196
0.000177196
0.000177196
0.000177197
0.000177198
0.000177198
0.000177199
0.000177199
0.0001772
0.000177201
0.000177202
0.000177202
0.000177203
0.000177204
0.000177204
0.000177205
0.000177206
0.000177206
0.000177207
0.000177208
0.000177208
0.000177209
0.000177209
0.00017721
0.00017721
0.000177211
0.000177211
0.000177212
0.000177212
0.000177212
0.000177213
0.000177213
0.000177213
0.000177213
0.000177213
0.000177213
0.000177213
0.000177212
0.000177212
0.000177211
0.000177211
0.00017721
0.000177209
0.000177208
0.000177208
0.000177207
0.000177206
0.000177206
0.000177205
0.000177205
0.000177204
0.000177203
0.000177203
0.000177202
0.000177202
0.000177201
0.000177201
0.000177201
0.0001772
0.0001772
0.0001772
0.000177199
0.000177199
0.000177199
0.000177198
0.000177198
0.000177198
0.000177198
0.000177197
0.000177197
0.000177197
0.000177197
0.000177197
0.000177197
0.000177196
0.000177196
0.000177196
0.000177197
0.000177197
0.000177197
0.000177197
0.000177198
0.000177198
0.000177199
0.000177199
0.0001772
0.0001772
0.000177201
0.000177201
0.000177201
0.000177202
0.000177202
0.000177202
0.000177203
0.000177203
0.000177203
0.000177203
0.000177204
0.000177204
0.000177204
0.000177204
0.000177204
0.000177205
0.000178951
0.00017895
0.000178949
0.000178948
0.000178947
0.000178946
0.000178945
0.000178944
0.000178944
0.000178943
0.000178943
0.000178943
0.000178942
0.000178942
0.000178942
0.000178942
0.000178943
0.000178943
0.000178943
0.000178944
0.000178944
0.000178945
0.000178945
0.000178946
0.000178947
0.000178947
0.000178948
0.000178949
0.000178949
0.00017895
0.000178951
0.000178952
0.000178952
0.000178953
0.000178954
0.000178954
0.000178955
0.000178955
0.000178956
0.000178957
0.000178957
0.000178958
0.000178958
0.000178958
0.000178959
0.000178959
0.00017896
0.00017896
0.00017896
0.00017896
0.00017896
0.00017896
0.00017896
0.00017896
0.000178959
0.000178959
0.000178958
0.000178957
0.000178957
0.000178956
0.000178955
0.000178954
0.000178954
0.000178953
0.000178953
0.000178952
0.000178951