/*--------------------------------*- C++ -*----------------------------------*\
  =========                 |
  \\      /  F ield         | OpenFOAM: The Open Source CFD Toolbox
   \\    /   O peration     | Website:  https://openfoam.org
    \\  /    A nd           | Version:  7
     \\/     M anipulation  |
\*---------------------------------------------------------------------------*/
FoamFile
{
    version     2.0;
    format      ascii;
    class       volScalarField;
    location    "7000";
    object      nut;
}
// * * * * * * * * * * * * * * * * * * * * * * * * * * * * * * * * * * * * * //

dimensions      [0 2 -1 0 0 0 0];

internalField   nonuniform List<scalar> 
24000
(
8.15116e-12
8.15154e-12
8.15169e-12
8.15165e-12
8.1515e-12
8.1513e-12
8.15108e-12
8.15088e-12
8.1507e-12
8.15054e-12
8.1504e-12
8.15029e-12
8.1502e-12
8.15013e-12
8.15008e-12
8.15005e-12
8.15003e-12
8.15003e-12
8.15003e-12
8.15005e-12
8.15007e-12
8.1501e-12
8.15014e-12
8.15018e-12
8.15022e-12
8.15027e-12
8.15032e-12
8.15037e-12
8.15042e-12
8.15048e-12
8.15053e-12
8.15058e-12
8.15064e-12
8.15069e-12
8.15074e-12
8.15079e-12
8.15084e-12
8.15088e-12
8.15093e-12
8.15097e-12
8.15101e-12
8.15105e-12
8.15109e-12
8.15112e-12
8.15115e-12
8.15118e-12
8.1512e-12
8.15122e-12
8.15124e-12
8.15126e-12
8.15128e-12
8.1513e-12
8.15131e-12
8.15133e-12
8.15134e-12
8.15135e-12
8.15136e-12
8.15136e-12
8.15135e-12
8.15134e-12
8.15132e-12
8.15129e-12
8.15126e-12
8.15122e-12
8.15118e-12
8.15113e-12
8.15108e-12
8.15103e-12
8.15099e-12
8.15094e-12
8.15089e-12
8.15085e-12
8.1508e-12
8.15076e-12
8.15072e-12
8.15069e-12
8.15065e-12
8.15062e-12
8.15059e-12
8.15056e-12
8.15054e-12
8.15052e-12
8.15049e-12
8.15047e-12
8.15046e-12
8.15044e-12
8.15043e-12
8.15042e-12
8.15041e-12
8.1504e-12
8.15039e-12
8.15038e-12
8.15037e-12
8.15036e-12
8.15035e-12
8.15035e-12
8.15034e-12
8.15034e-12
8.15035e-12
8.15035e-12
8.15037e-12
8.15038e-12
8.1504e-12
8.15042e-12
8.15044e-12
8.15046e-12
8.15049e-12
8.15052e-12
8.15055e-12
8.15059e-12
8.15062e-12
8.15066e-12
8.15069e-12
8.15072e-12
8.15075e-12
8.15078e-12
8.15081e-12
8.15082e-12
8.15087e-12
8.15075e-12
1.51239e-09
1.51247e-09
1.51249e-09
1.51248e-09
1.51246e-09
1.51242e-09
1.51238e-09
1.51234e-09
1.51231e-09
1.51228e-09
1.51225e-09
1.51223e-09
1.51222e-09
1.5122e-09
1.51219e-09
1.51219e-09
1.51218e-09
1.51218e-09
1.51218e-09
1.51219e-09
1.51219e-09
1.5122e-09
1.5122e-09
1.51221e-09
1.51222e-09
1.51223e-09
1.51224e-09
1.51225e-09
1.51226e-09
1.51227e-09
1.51228e-09
1.51229e-09
1.5123e-09
1.51231e-09
1.51232e-09
1.51233e-09
1.51233e-09
1.51234e-09
1.51235e-09
1.51236e-09
1.51237e-09
1.51237e-09
1.51238e-09
1.51239e-09
1.51239e-09
1.5124e-09
1.5124e-09
1.5124e-09
1.51241e-09
1.51241e-09
1.51242e-09
1.51242e-09
1.51242e-09
1.51243e-09
1.51243e-09
1.51243e-09
1.51243e-09
1.51243e-09
1.51243e-09
1.51243e-09
1.51242e-09
1.51242e-09
1.51241e-09
1.5124e-09
1.5124e-09
1.51239e-09
1.51238e-09
1.51237e-09
1.51236e-09
1.51235e-09
1.51234e-09
1.51234e-09
1.51233e-09
1.51232e-09
1.51231e-09
1.51231e-09
1.5123e-09
1.51229e-09
1.51229e-09
1.51228e-09
1.51228e-09
1.51227e-09
1.51227e-09
1.51227e-09
1.51226e-09
1.51226e-09
1.51226e-09
1.51226e-09
1.51225e-09
1.51225e-09
1.51225e-09
1.51225e-09
1.51225e-09
1.51225e-09
1.51224e-09
1.51224e-09
1.51224e-09
1.51224e-09
1.51224e-09
1.51224e-09
1.51225e-09
1.51225e-09
1.51225e-09
1.51226e-09
1.51226e-09
1.51226e-09
1.51227e-09
1.51228e-09
1.51228e-09
1.51229e-09
1.51229e-09
1.5123e-09
1.51231e-09
1.51231e-09
1.51232e-09
1.51232e-09
1.51233e-09
1.51233e-09
1.51234e-09
1.51232e-09
3.22969e-08
3.22984e-08
3.22989e-08
3.22988e-08
3.22981e-08
3.22973e-08
3.22965e-08
3.22957e-08
3.2295e-08
3.22944e-08
3.22938e-08
3.22934e-08
3.2293e-08
3.22928e-08
3.22926e-08
3.22924e-08
3.22924e-08
3.22924e-08
3.22924e-08
3.22924e-08
3.22925e-08
3.22927e-08
3.22928e-08
3.2293e-08
3.22931e-08
3.22933e-08
3.22935e-08
3.22937e-08
3.22939e-08
3.22941e-08
3.22944e-08
3.22946e-08
3.22948e-08
3.2295e-08
3.22952e-08
3.22954e-08
3.22956e-08
3.22957e-08
3.22959e-08
3.22961e-08
3.22963e-08
3.22964e-08
3.22965e-08
3.22967e-08
3.22968e-08
3.22969e-08
3.2297e-08
3.22971e-08
3.22971e-08
3.22972e-08
3.22973e-08
3.22974e-08
3.22974e-08
3.22975e-08
3.22975e-08
3.22976e-08
3.22976e-08
3.22976e-08
3.22976e-08
3.22975e-08
3.22974e-08
3.22973e-08
3.22972e-08
3.2297e-08
3.22969e-08
3.22967e-08
3.22965e-08
3.22963e-08
3.22961e-08
3.22959e-08
3.22958e-08
3.22956e-08
3.22954e-08
3.22952e-08
3.22951e-08
3.22949e-08
3.22948e-08
3.22947e-08
3.22946e-08
3.22945e-08
3.22944e-08
3.22943e-08
3.22942e-08
3.22941e-08
3.2294e-08
3.2294e-08
3.22939e-08
3.22939e-08
3.22939e-08
3.22938e-08
3.22938e-08
3.22937e-08
3.22937e-08
3.22937e-08
3.22936e-08
3.22936e-08
3.22936e-08
3.22936e-08
3.22936e-08
3.22936e-08
3.22937e-08
3.22937e-08
3.22938e-08
3.22939e-08
3.2294e-08
3.22941e-08
3.22942e-08
3.22943e-08
3.22944e-08
3.22946e-08
3.22947e-08
3.22948e-08
3.2295e-08
3.22951e-08
3.22952e-08
3.22953e-08
3.22954e-08
3.22955e-08
3.22957e-08
3.22952e-08
2.45861e-07
2.45871e-07
2.45875e-07
2.45873e-07
2.45868e-07
2.45862e-07
2.45856e-07
2.4585e-07
2.45845e-07
2.4584e-07
2.45836e-07
2.45833e-07
2.4583e-07
2.45828e-07
2.45827e-07
2.45826e-07
2.45825e-07
2.45825e-07
2.45826e-07
2.45826e-07
2.45827e-07
2.45828e-07
2.45829e-07
2.4583e-07
2.45831e-07
2.45833e-07
2.45834e-07
2.45836e-07
2.45837e-07
2.45839e-07
2.4584e-07
2.45842e-07
2.45843e-07
2.45845e-07
2.45846e-07
2.45848e-07
2.45849e-07
2.45851e-07
2.45852e-07
2.45853e-07
2.45854e-07
2.45856e-07
2.45857e-07
2.45858e-07
2.45858e-07
2.45859e-07
2.4586e-07
2.4586e-07
2.45861e-07
2.45861e-07
2.45862e-07
2.45863e-07
2.45863e-07
2.45864e-07
2.45864e-07
2.45864e-07
2.45864e-07
2.45864e-07
2.45864e-07
2.45864e-07
2.45863e-07
2.45862e-07
2.45861e-07
2.4586e-07
2.45859e-07
2.45858e-07
2.45856e-07
2.45855e-07
2.45853e-07
2.45852e-07
2.4585e-07
2.45849e-07
2.45848e-07
2.45847e-07
2.45846e-07
2.45844e-07
2.45843e-07
2.45843e-07
2.45842e-07
2.45841e-07
2.4584e-07
2.4584e-07
2.45839e-07
2.45838e-07
2.45838e-07
2.45837e-07
2.45837e-07
2.45837e-07
2.45836e-07
2.45836e-07
2.45836e-07
2.45836e-07
2.45835e-07
2.45835e-07
2.45835e-07
2.45835e-07
2.45834e-07
2.45834e-07
2.45835e-07
2.45835e-07
2.45835e-07
2.45836e-07
2.45836e-07
2.45837e-07
2.45837e-07
2.45838e-07
2.45839e-07
2.4584e-07
2.45841e-07
2.45842e-07
2.45843e-07
2.45844e-07
2.45845e-07
2.45846e-07
2.45847e-07
2.45848e-07
2.45848e-07
2.45849e-07
2.4585e-07
2.45846e-07
1.03319e-06
1.03322e-06
1.03323e-06
1.03322e-06
1.0332e-06
1.03317e-06
1.03315e-06
1.03312e-06
1.0331e-06
1.03308e-06
1.03307e-06
1.03306e-06
1.03304e-06
1.03304e-06
1.03303e-06
1.03303e-06
1.03303e-06
1.03303e-06
1.03303e-06
1.03303e-06
1.03303e-06
1.03304e-06
1.03304e-06
1.03305e-06
1.03305e-06
1.03306e-06
1.03306e-06
1.03307e-06
1.03308e-06
1.03308e-06
1.03309e-06
1.03309e-06
1.0331e-06
1.03311e-06
1.03311e-06
1.03312e-06
1.03312e-06
1.03313e-06
1.03313e-06
1.03314e-06
1.03314e-06
1.03315e-06
1.03315e-06
1.03316e-06
1.03316e-06
1.03316e-06
1.03317e-06
1.03317e-06
1.03317e-06
1.03317e-06
1.03317e-06
1.03318e-06
1.03318e-06
1.03318e-06
1.03318e-06
1.03318e-06
1.03318e-06
1.03318e-06
1.03318e-06
1.03318e-06
1.03318e-06
1.03317e-06
1.03317e-06
1.03317e-06
1.03316e-06
1.03315e-06
1.03315e-06
1.03314e-06
1.03314e-06
1.03313e-06
1.03313e-06
1.03312e-06
1.03312e-06
1.03311e-06
1.03311e-06
1.0331e-06
1.0331e-06
1.03309e-06
1.03309e-06
1.03309e-06
1.03309e-06
1.03308e-06
1.03308e-06
1.03308e-06
1.03308e-06
1.03307e-06
1.03307e-06
1.03307e-06
1.03307e-06
1.03307e-06
1.03307e-06
1.03307e-06
1.03307e-06
1.03307e-06
1.03306e-06
1.03306e-06
1.03306e-06
1.03306e-06
1.03306e-06
1.03306e-06
1.03307e-06
1.03307e-06
1.03307e-06
1.03307e-06
1.03308e-06
1.03308e-06
1.03308e-06
1.03308e-06
1.03309e-06
1.03309e-06
1.0331e-06
1.0331e-06
1.03311e-06
1.03311e-06
1.03311e-06
1.03312e-06
1.03312e-06
1.03312e-06
1.03313e-06
1.03311e-06
2.90858e-06
2.90864e-06
2.90864e-06
2.9086e-06
2.90854e-06
2.90847e-06
2.9084e-06
2.90834e-06
2.90828e-06
2.90823e-06
2.90819e-06
2.90816e-06
2.90813e-06
2.90811e-06
2.9081e-06
2.90809e-06
2.90809e-06
2.90809e-06
2.90809e-06
2.9081e-06
2.90811e-06
2.90812e-06
2.90813e-06
2.90814e-06
2.90816e-06
2.90817e-06
2.90819e-06
2.90821e-06
2.90822e-06
2.90824e-06
2.90826e-06
2.90827e-06
2.90829e-06
2.9083e-06
2.90832e-06
2.90833e-06
2.90835e-06
2.90836e-06
2.90838e-06
2.90839e-06
2.9084e-06
2.90841e-06
2.90842e-06
2.90843e-06
2.90844e-06
2.90845e-06
2.90845e-06
2.90846e-06
2.90846e-06
2.90847e-06
2.90848e-06
2.90848e-06
2.90849e-06
2.90849e-06
2.9085e-06
2.9085e-06
2.9085e-06
2.9085e-06
2.9085e-06
2.90849e-06
2.90848e-06
2.90847e-06
2.90846e-06
2.90845e-06
2.90844e-06
2.90842e-06
2.90841e-06
2.90839e-06
2.90837e-06
2.90836e-06
2.90834e-06
2.90833e-06
2.90832e-06
2.9083e-06
2.90829e-06
2.90828e-06
2.90827e-06
2.90826e-06
2.90825e-06
2.90825e-06
2.90824e-06
2.90823e-06
2.90823e-06
2.90822e-06
2.90821e-06
2.90821e-06
2.90821e-06
2.9082e-06
2.9082e-06
2.9082e-06
2.9082e-06
2.90819e-06
2.90819e-06
2.90819e-06
2.90818e-06
2.90818e-06
2.90818e-06
2.90818e-06
2.90818e-06
2.90819e-06
2.90819e-06
2.9082e-06
2.9082e-06
2.90821e-06
2.90821e-06
2.90822e-06
2.90823e-06
2.90824e-06
2.90825e-06
2.90826e-06
2.90827e-06
2.90828e-06
2.9083e-06
2.90831e-06
2.90831e-06
2.90832e-06
2.90833e-06
2.90834e-06
2.90835e-06
2.9083e-06
6.16728e-06
6.16736e-06
6.1673e-06
6.1672e-06
6.16707e-06
6.16693e-06
6.1668e-06
6.16667e-06
6.16655e-06
6.16646e-06
6.16638e-06
6.16631e-06
6.16626e-06
6.16622e-06
6.1662e-06
6.16618e-06
6.16618e-06
6.16618e-06
6.16619e-06
6.16621e-06
6.16623e-06
6.16625e-06
6.16627e-06
6.1663e-06
6.16633e-06
6.16636e-06
6.1664e-06
6.16643e-06
6.16646e-06
6.1665e-06
6.16653e-06
6.16656e-06
6.1666e-06
6.16663e-06
6.16666e-06
6.16669e-06
6.16671e-06
6.16674e-06
6.16677e-06
6.16679e-06
6.16681e-06
6.16684e-06
6.16686e-06
6.16687e-06
6.16689e-06
6.1669e-06
6.16691e-06
6.16692e-06
6.16693e-06
6.16694e-06
6.16695e-06
6.16696e-06
6.16697e-06
6.16698e-06
6.16699e-06
6.16699e-06
6.167e-06
6.16699e-06
6.16699e-06
6.16698e-06
6.16696e-06
6.16694e-06
6.16692e-06
6.16689e-06
6.16686e-06
6.16684e-06
6.1668e-06
6.16677e-06
6.16674e-06
6.16671e-06
6.16669e-06
6.16666e-06
6.16663e-06
6.16661e-06
6.16658e-06
6.16656e-06
6.16654e-06
6.16652e-06
6.16651e-06
6.16649e-06
6.16648e-06
6.16646e-06
6.16645e-06
6.16644e-06
6.16643e-06
6.16642e-06
6.16642e-06
6.16641e-06
6.16641e-06
6.1664e-06
6.1664e-06
6.16639e-06
6.16639e-06
6.16638e-06
6.16638e-06
6.16637e-06
6.16637e-06
6.16637e-06
6.16638e-06
6.16638e-06
6.16639e-06
6.1664e-06
6.16641e-06
6.16643e-06
6.16644e-06
6.16646e-06
6.16647e-06
6.16649e-06
6.16651e-06
6.16653e-06
6.16655e-06
6.16658e-06
6.1666e-06
6.16662e-06
6.16664e-06
6.16665e-06
6.16667e-06
6.16668e-06
6.16671e-06
6.16659e-06
1.07498e-05
1.07499e-05
1.07497e-05
1.07495e-05
1.07493e-05
1.0749e-05
1.07488e-05
1.07486e-05
1.07484e-05
1.07483e-05
1.07481e-05
1.0748e-05
1.07479e-05
1.07479e-05
1.07479e-05
1.07478e-05
1.07478e-05
1.07478e-05
1.07478e-05
1.07479e-05
1.07479e-05
1.07479e-05
1.0748e-05
1.0748e-05
1.07481e-05
1.07481e-05
1.07482e-05
1.07483e-05
1.07483e-05
1.07484e-05
1.07484e-05
1.07485e-05
1.07485e-05
1.07486e-05
1.07486e-05
1.07487e-05
1.07487e-05
1.07488e-05
1.07488e-05
1.07489e-05
1.07489e-05
1.07489e-05
1.0749e-05
1.0749e-05
1.0749e-05
1.0749e-05
1.0749e-05
1.07491e-05
1.07491e-05
1.07491e-05
1.07491e-05
1.07491e-05
1.07491e-05
1.07491e-05
1.07492e-05
1.07492e-05
1.07492e-05
1.07492e-05
1.07492e-05
1.07491e-05
1.07491e-05
1.07491e-05
1.0749e-05
1.0749e-05
1.07489e-05
1.07489e-05
1.07488e-05
1.07488e-05
1.07487e-05
1.07487e-05
1.07486e-05
1.07486e-05
1.07486e-05
1.07485e-05
1.07485e-05
1.07484e-05
1.07484e-05
1.07484e-05
1.07484e-05
1.07483e-05
1.07483e-05
1.07483e-05
1.07483e-05
1.07483e-05
1.07482e-05
1.07482e-05
1.07482e-05
1.07482e-05
1.07482e-05
1.07482e-05
1.07482e-05
1.07482e-05
1.07482e-05
1.07482e-05
1.07482e-05
1.07481e-05
1.07481e-05
1.07481e-05
1.07482e-05
1.07482e-05
1.07482e-05
1.07482e-05
1.07482e-05
1.07482e-05
1.07483e-05
1.07483e-05
1.07483e-05
1.07483e-05
1.07484e-05
1.07484e-05
1.07485e-05
1.07485e-05
1.07485e-05
1.07486e-05
1.07486e-05
1.07486e-05
1.07486e-05
1.07487e-05
1.07487e-05
1.07485e-05
1.64192e-05
1.64193e-05
1.64191e-05
1.64187e-05
1.64184e-05
1.64181e-05
1.64177e-05
1.64174e-05
1.64172e-05
1.6417e-05
1.64168e-05
1.64166e-05
1.64165e-05
1.64164e-05
1.64164e-05
1.64164e-05
1.64163e-05
1.64164e-05
1.64164e-05
1.64164e-05
1.64165e-05
1.64165e-05
1.64166e-05
1.64167e-05
1.64168e-05
1.64168e-05
1.64169e-05
1.6417e-05
1.64171e-05
1.64172e-05
1.64172e-05
1.64173e-05
1.64174e-05
1.64175e-05
1.64176e-05
1.64176e-05
1.64177e-05
1.64178e-05
1.64178e-05
1.64179e-05
1.64179e-05
1.6418e-05
1.6418e-05
1.64181e-05
1.64181e-05
1.64181e-05
1.64182e-05
1.64182e-05
1.64182e-05
1.64182e-05
1.64182e-05
1.64183e-05
1.64183e-05
1.64183e-05
1.64183e-05
1.64183e-05
1.64183e-05
1.64183e-05
1.64183e-05
1.64183e-05
1.64182e-05
1.64182e-05
1.64181e-05
1.6418e-05
1.6418e-05
1.64179e-05
1.64178e-05
1.64178e-05
1.64177e-05
1.64176e-05
1.64175e-05
1.64175e-05
1.64174e-05
1.64174e-05
1.64173e-05
1.64173e-05
1.64172e-05
1.64172e-05
1.64171e-05
1.64171e-05
1.64171e-05
1.6417e-05
1.6417e-05
1.6417e-05
1.64169e-05
1.64169e-05
1.64169e-05
1.64169e-05
1.64169e-05
1.64169e-05
1.64169e-05
1.64169e-05
1.64168e-05
1.64168e-05
1.64168e-05
1.64168e-05
1.64168e-05
1.64168e-05
1.64168e-05
1.64169e-05
1.64169e-05
1.64169e-05
1.64169e-05
1.6417e-05
1.6417e-05
1.6417e-05
1.64171e-05
1.64171e-05
1.64172e-05
1.64172e-05
1.64173e-05
1.64173e-05
1.64174e-05
1.64174e-05
1.64175e-05
1.64175e-05
1.64175e-05
1.64176e-05
1.64176e-05
1.64173e-05
2.2939e-05
2.29392e-05
2.29389e-05
2.29384e-05
2.2938e-05
2.29375e-05
2.29371e-05
2.29367e-05
2.29364e-05
2.29361e-05
2.29358e-05
2.29357e-05
2.29355e-05
2.29354e-05
2.29353e-05
2.29353e-05
2.29353e-05
2.29353e-05
2.29353e-05
2.29354e-05
2.29355e-05
2.29356e-05
2.29356e-05
2.29357e-05
2.29359e-05
2.2936e-05
2.29361e-05
2.29362e-05
2.29363e-05
2.29364e-05
2.29365e-05
2.29366e-05
2.29368e-05
2.29369e-05
2.2937e-05
2.29371e-05
2.29372e-05
2.29372e-05
2.29373e-05
2.29374e-05
2.29375e-05
2.29376e-05
2.29376e-05
2.29377e-05
2.29377e-05
2.29378e-05
2.29378e-05
2.29378e-05
2.29378e-05
2.29379e-05
2.29379e-05
2.29379e-05
2.29379e-05
2.2938e-05
2.2938e-05
2.2938e-05
2.2938e-05
2.2938e-05
2.29379e-05
2.29379e-05
2.29378e-05
2.29378e-05
2.29377e-05
2.29376e-05
2.29375e-05
2.29374e-05
2.29373e-05
2.29372e-05
2.29371e-05
2.2937e-05
2.29369e-05
2.29368e-05
2.29368e-05
2.29367e-05
2.29366e-05
2.29365e-05
2.29365e-05
2.29364e-05
2.29364e-05
2.29363e-05
2.29363e-05
2.29362e-05
2.29362e-05
2.29361e-05
2.29361e-05
2.29361e-05
2.29361e-05
2.29361e-05
2.2936e-05
2.2936e-05
2.2936e-05
2.2936e-05
2.2936e-05
2.2936e-05
2.2936e-05
2.29359e-05
2.29359e-05
2.2936e-05
2.2936e-05
2.2936e-05
2.2936e-05
2.29361e-05
2.29361e-05
2.29362e-05
2.29362e-05
2.29363e-05
2.29363e-05
2.29364e-05
2.29364e-05
2.29365e-05
2.29366e-05
2.29366e-05
2.29367e-05
2.29368e-05
2.29368e-05
2.29369e-05
2.29369e-05
2.2937e-05
2.29371e-05
2.29367e-05
3.01298e-05
3.013e-05
3.01296e-05
3.01291e-05
3.01285e-05
3.0128e-05
3.01275e-05
3.0127e-05
3.01266e-05
3.01262e-05
3.0126e-05
3.01257e-05
3.01255e-05
3.01254e-05
3.01253e-05
3.01253e-05
3.01253e-05
3.01253e-05
3.01253e-05
3.01254e-05
3.01255e-05
3.01256e-05
3.01257e-05
3.01259e-05
3.0126e-05
3.01262e-05
3.01263e-05
3.01265e-05
3.01266e-05
3.01268e-05
3.01269e-05
3.01271e-05
3.01272e-05
3.01273e-05
3.01275e-05
3.01276e-05
3.01277e-05
3.01279e-05
3.0128e-05
3.01281e-05
3.01282e-05
3.01283e-05
3.01283e-05
3.01284e-05
3.01285e-05
3.01285e-05
3.01286e-05
3.01286e-05
3.01287e-05
3.01287e-05
3.01287e-05
3.01287e-05
3.01288e-05
3.01288e-05
3.01288e-05
3.01288e-05
3.01288e-05
3.01288e-05
3.01287e-05
3.01287e-05
3.01286e-05
3.01285e-05
3.01284e-05
3.01283e-05
3.01282e-05
3.0128e-05
3.01279e-05
3.01278e-05
3.01277e-05
3.01275e-05
3.01274e-05
3.01273e-05
3.01272e-05
3.01271e-05
3.0127e-05
3.01269e-05
3.01268e-05
3.01267e-05
3.01267e-05
3.01266e-05
3.01265e-05
3.01265e-05
3.01264e-05
3.01264e-05
3.01264e-05
3.01263e-05
3.01263e-05
3.01263e-05
3.01263e-05
3.01262e-05
3.01262e-05
3.01262e-05
3.01262e-05
3.01262e-05
3.01261e-05
3.01261e-05
3.01261e-05
3.01262e-05
3.01262e-05
3.01262e-05
3.01263e-05
3.01263e-05
3.01264e-05
3.01264e-05
3.01265e-05
3.01266e-05
3.01267e-05
3.01267e-05
3.01268e-05
3.01269e-05
3.0127e-05
3.01271e-05
3.01271e-05
3.01272e-05
3.01273e-05
3.01274e-05
3.01274e-05
3.01275e-05
3.01276e-05
3.01272e-05
3.78656e-05
3.78658e-05
3.78653e-05
3.78647e-05
3.78641e-05
3.78634e-05
3.78629e-05
3.78623e-05
3.78619e-05
3.78615e-05
3.78611e-05
3.78609e-05
3.78607e-05
3.78605e-05
3.78604e-05
3.78604e-05
3.78604e-05
3.78604e-05
3.78605e-05
3.78606e-05
3.78607e-05
3.78608e-05
3.7861e-05
3.78611e-05
3.78613e-05
3.78615e-05
3.78617e-05
3.78619e-05
3.78621e-05
3.78622e-05
3.78624e-05
3.78626e-05
3.78628e-05
3.7863e-05
3.78631e-05
3.78633e-05
3.78635e-05
3.78636e-05
3.78638e-05
3.78639e-05
3.7864e-05
3.78641e-05
3.78642e-05
3.78643e-05
3.78644e-05
3.78645e-05
3.78646e-05
3.78646e-05
3.78647e-05
3.78647e-05
3.78647e-05
3.78648e-05
3.78648e-05
3.78648e-05
3.78648e-05
3.78648e-05
3.78648e-05
3.78648e-05
3.78647e-05
3.78646e-05
3.78645e-05
3.78644e-05
3.78643e-05
3.78641e-05
3.7864e-05
3.78638e-05
3.78637e-05
3.78635e-05
3.78634e-05
3.78632e-05
3.78631e-05
3.78629e-05
3.78628e-05
3.78627e-05
3.78625e-05
3.78624e-05
3.78623e-05
3.78622e-05
3.78621e-05
3.78621e-05
3.7862e-05
3.78619e-05
3.78618e-05
3.78618e-05
3.78617e-05
3.78617e-05
3.78617e-05
3.78616e-05
3.78616e-05
3.78616e-05
3.78616e-05
3.78615e-05
3.78615e-05
3.78615e-05
3.78615e-05
3.78615e-05
3.78615e-05
3.78615e-05
3.78615e-05
3.78616e-05
3.78616e-05
3.78617e-05
3.78618e-05
3.78619e-05
3.7862e-05
3.78621e-05
3.78622e-05
3.78622e-05
3.78623e-05
3.78624e-05
3.78625e-05
3.78626e-05
3.78627e-05
3.78628e-05
3.78629e-05
3.7863e-05
3.78631e-05
3.78631e-05
3.78633e-05
3.78629e-05
4.60585e-05
4.60585e-05
4.6058e-05
4.60573e-05
4.60566e-05
4.6056e-05
4.60554e-05
4.60548e-05
4.60543e-05
4.60539e-05
4.60535e-05
4.60532e-05
4.6053e-05
4.60528e-05
4.60527e-05
4.60527e-05
4.60527e-05
4.60527e-05
4.60528e-05
4.60529e-05
4.60531e-05
4.60532e-05
4.60534e-05
4.60536e-05
4.60538e-05
4.6054e-05
4.60543e-05
4.60545e-05
4.60547e-05
4.6055e-05
4.60552e-05
4.60554e-05
4.60557e-05
4.60559e-05
4.60561e-05
4.60563e-05
4.60565e-05
4.60567e-05
4.60568e-05
4.6057e-05
4.60572e-05
4.60573e-05
4.60575e-05
4.60576e-05
4.60577e-05
4.60578e-05
4.60579e-05
4.60579e-05
4.6058e-05
4.60581e-05
4.60581e-05
4.60581e-05
4.60581e-05
4.60582e-05
4.60582e-05
4.60581e-05
4.60581e-05
4.60581e-05
4.6058e-05
4.60579e-05
4.60578e-05
4.60576e-05
4.60575e-05
4.60573e-05
4.60571e-05
4.60569e-05
4.60567e-05
4.60565e-05
4.60564e-05
4.60562e-05
4.6056e-05
4.60558e-05
4.60557e-05
4.60555e-05
4.60554e-05
4.60552e-05
4.60551e-05
4.6055e-05
4.60549e-05
4.60548e-05
4.60547e-05
4.60546e-05
4.60545e-05
4.60544e-05
4.60544e-05
4.60543e-05
4.60543e-05
4.60542e-05
4.60542e-05
4.60542e-05
4.60541e-05
4.60541e-05
4.6054e-05
4.6054e-05
4.6054e-05
4.6054e-05
4.6054e-05
4.6054e-05
4.60541e-05
4.60542e-05
4.60542e-05
4.60543e-05
4.60544e-05
4.60545e-05
4.60547e-05
4.60548e-05
4.60549e-05
4.6055e-05
4.60551e-05
4.60553e-05
4.60554e-05
4.60555e-05
4.60556e-05
4.60557e-05
4.60558e-05
4.60559e-05
4.6056e-05
4.60561e-05
4.60562e-05
4.60559e-05
5.4646e-05
5.46458e-05
5.46452e-05
5.46445e-05
5.46438e-05
5.46431e-05
5.46425e-05
5.46419e-05
5.46414e-05
5.4641e-05
5.46406e-05
5.46403e-05
5.46401e-05
5.46399e-05
5.46398e-05
5.46398e-05
5.46398e-05
5.46399e-05
5.464e-05
5.46401e-05
5.46403e-05
5.46405e-05
5.46407e-05
5.46409e-05
5.46412e-05
5.46414e-05
5.46417e-05
5.4642e-05
5.46423e-05
5.46425e-05
5.46428e-05
5.46431e-05
5.46434e-05
5.46436e-05
5.46439e-05
5.46441e-05
5.46444e-05
5.46446e-05
5.46448e-05
5.4645e-05
5.46452e-05
5.46454e-05
5.46455e-05
5.46457e-05
5.46459e-05
5.4646e-05
5.46461e-05
5.46462e-05
5.46462e-05
5.46463e-05
5.46463e-05
5.46464e-05
5.46464e-05
5.46464e-05
5.46464e-05
5.46464e-05
5.46463e-05
5.46462e-05
5.46461e-05
5.4646e-05
5.46459e-05
5.46457e-05
5.46455e-05
5.46453e-05
5.46451e-05
5.46449e-05
5.46446e-05
5.46444e-05
5.46442e-05
5.4644e-05
5.46438e-05
5.46436e-05
5.46434e-05
5.46432e-05
5.4643e-05
5.46428e-05
5.46427e-05
5.46426e-05
5.46424e-05
5.46423e-05
5.46422e-05
5.4642e-05
5.46419e-05
5.46419e-05
5.46418e-05
5.46417e-05
5.46417e-05
5.46416e-05
5.46416e-05
5.46415e-05
5.46415e-05
5.46414e-05
5.46414e-05
5.46414e-05
5.46414e-05
5.46414e-05
5.46414e-05
5.46414e-05
5.46415e-05
5.46416e-05
5.46417e-05
5.46418e-05
5.46419e-05
5.4642e-05
5.46422e-05
5.46424e-05
5.46425e-05
5.46426e-05
5.46428e-05
5.46429e-05
5.4643e-05
5.46432e-05
5.46433e-05
5.46434e-05
5.46436e-05
5.46437e-05
5.46438e-05
5.46439e-05
5.4644e-05
5.46438e-05
6.35828e-05
6.35824e-05
6.35817e-05
6.3581e-05
6.35803e-05
6.35796e-05
6.3579e-05
6.35784e-05
6.35779e-05
6.35775e-05
6.35772e-05
6.35769e-05
6.35767e-05
6.35765e-05
6.35764e-05
6.35764e-05
6.35765e-05
6.35765e-05
6.35767e-05
6.35768e-05
6.35771e-05
6.35773e-05
6.35775e-05
6.35778e-05
6.35781e-05
6.35784e-05
6.35787e-05
6.3579e-05
6.35793e-05
6.35797e-05
6.358e-05
6.35803e-05
6.35806e-05
6.35809e-05
6.35812e-05
6.35815e-05
6.35818e-05
6.35821e-05
6.35823e-05
6.35826e-05
6.35828e-05
6.3583e-05
6.35832e-05
6.35834e-05
6.35836e-05
6.35838e-05
6.35839e-05
6.3584e-05
6.35841e-05
6.35842e-05
6.35842e-05
6.35843e-05
6.35843e-05
6.35843e-05
6.35843e-05
6.35842e-05
6.35841e-05
6.3584e-05
6.35839e-05
6.35837e-05
6.35835e-05
6.35833e-05
6.35831e-05
6.35828e-05
6.35826e-05
6.35824e-05
6.35821e-05
6.35818e-05
6.35815e-05
6.35813e-05
6.35811e-05
6.35809e-05
6.35806e-05
6.35804e-05
6.35802e-05
6.358e-05
6.35798e-05
6.35797e-05
6.35795e-05
6.35793e-05
6.35792e-05
6.3579e-05
6.35789e-05
6.35788e-05
6.35787e-05
6.35787e-05
6.35786e-05
6.35785e-05
6.35785e-05
6.35784e-05
6.35783e-05
6.35783e-05
6.35782e-05
6.35782e-05
6.35782e-05
6.35782e-05
6.35782e-05
6.35783e-05
6.35784e-05
6.35785e-05
6.35786e-05
6.35788e-05
6.35789e-05
6.35791e-05
6.35793e-05
6.35795e-05
6.35797e-05
6.35798e-05
6.358e-05
6.35801e-05
6.35803e-05
6.35804e-05
6.35806e-05
6.35807e-05
6.35809e-05
6.3581e-05
6.35811e-05
6.35812e-05
6.35813e-05
6.35813e-05
7.28356e-05
7.28348e-05
7.2834e-05
7.28333e-05
7.28326e-05
7.2832e-05
7.28314e-05
7.28309e-05
7.28304e-05
7.283e-05
7.28297e-05
7.28295e-05
7.28293e-05
7.28292e-05
7.28291e-05
7.28291e-05
7.28292e-05
7.28293e-05
7.28295e-05
7.28297e-05
7.28299e-05
7.28302e-05
7.28305e-05
7.28308e-05
7.28311e-05
7.28315e-05
7.28319e-05
7.28322e-05
7.28326e-05
7.28329e-05
7.28333e-05
7.28337e-05
7.28341e-05
7.28344e-05
7.28347e-05
7.28351e-05
7.28354e-05
7.28357e-05
7.2836e-05
7.28363e-05
7.28366e-05
7.28369e-05
7.28371e-05
7.28373e-05
7.28375e-05
7.28377e-05
7.28379e-05
7.2838e-05
7.28381e-05
7.28382e-05
7.28383e-05
7.28383e-05
7.28383e-05
7.28383e-05
7.28383e-05
7.28382e-05
7.28381e-05
7.28379e-05
7.28378e-05
7.28376e-05
7.28373e-05
7.28371e-05
7.28368e-05
7.28365e-05
7.28362e-05
7.28359e-05
7.28356e-05
7.28353e-05
7.2835e-05
7.28347e-05
7.28345e-05
7.28342e-05
7.2834e-05
7.28337e-05
7.28335e-05
7.28332e-05
7.2833e-05
7.28328e-05
7.28327e-05
7.28325e-05
7.28323e-05
7.28321e-05
7.2832e-05
7.28319e-05
7.28318e-05
7.28317e-05
7.28316e-05
7.28315e-05
7.28314e-05
7.28313e-05
7.28312e-05
7.28312e-05
7.28311e-05
7.28311e-05
7.28311e-05
7.28311e-05
7.28312e-05
7.28312e-05
7.28313e-05
7.28315e-05
7.28317e-05
7.28319e-05
7.2832e-05
7.28323e-05
7.28325e-05
7.28327e-05
7.28329e-05
7.28331e-05
7.28333e-05
7.28335e-05
7.28337e-05
7.28338e-05
7.2834e-05
7.28342e-05
7.28344e-05
7.28345e-05
7.28346e-05
7.28347e-05
7.28348e-05
7.28351e-05
8.23794e-05
8.23782e-05
8.23773e-05
8.23766e-05
8.23759e-05
8.23753e-05
8.23748e-05
8.23743e-05
8.23739e-05
8.23736e-05
8.23734e-05
8.23732e-05
8.23731e-05
8.2373e-05
8.2373e-05
8.2373e-05
8.23732e-05
8.23733e-05
8.23735e-05
8.23738e-05
8.23741e-05
8.23744e-05
8.23747e-05
8.2375e-05
8.23754e-05
8.23758e-05
8.23763e-05
8.23767e-05
8.2377e-05
8.23775e-05
8.23779e-05
8.23783e-05
8.23787e-05
8.23791e-05
8.23795e-05
8.23799e-05
8.23803e-05
8.23807e-05
8.2381e-05
8.23813e-05
8.23816e-05
8.23819e-05
8.23822e-05
8.23825e-05
8.23827e-05
8.23829e-05
8.23831e-05
8.23833e-05
8.23834e-05
8.23836e-05
8.23836e-05
8.23837e-05
8.23837e-05
8.23837e-05
8.23836e-05
8.23834e-05
8.23833e-05
8.23831e-05
8.23829e-05
8.23826e-05
8.23823e-05
8.2382e-05
8.23817e-05
8.23813e-05
8.2381e-05
8.23807e-05
8.23803e-05
8.238e-05
8.23796e-05
8.23793e-05
8.2379e-05
8.23787e-05
8.23784e-05
8.23782e-05
8.23779e-05
8.23776e-05
8.23774e-05
8.23771e-05
8.23769e-05
8.23767e-05
8.23765e-05
8.23763e-05
8.23761e-05
8.2376e-05
8.23759e-05
8.23758e-05
8.23757e-05
8.23756e-05
8.23754e-05
8.23753e-05
8.23753e-05
8.23752e-05
8.23751e-05
8.23751e-05
8.23751e-05
8.23752e-05
8.23752e-05
8.23753e-05
8.23755e-05
8.23757e-05
8.23759e-05
8.23761e-05
8.23764e-05
8.23766e-05
8.23769e-05
8.23772e-05
8.23774e-05
8.23777e-05
8.23779e-05
8.23781e-05
8.23782e-05
8.23784e-05
8.23786e-05
8.23789e-05
8.2379e-05
8.23792e-05
8.23793e-05
8.23795e-05
8.23795e-05
8.23801e-05
9.21957e-05
9.21941e-05
9.21931e-05
9.21923e-05
9.21916e-05
9.21911e-05
9.21906e-05
9.21903e-05
9.219e-05
9.21897e-05
9.21896e-05
9.21895e-05
9.21894e-05
9.21894e-05
9.21895e-05
9.21896e-05
9.21898e-05
9.219e-05
9.21903e-05
9.21906e-05
9.21909e-05
9.21913e-05
9.21916e-05
9.2192e-05
9.21924e-05
9.21929e-05
9.21934e-05
9.21938e-05
9.21943e-05
9.21947e-05
9.21952e-05
9.21957e-05
9.21961e-05
9.21966e-05
9.2197e-05
9.21975e-05
9.21979e-05
9.21983e-05
9.21987e-05
9.2199e-05
9.21994e-05
9.21998e-05
9.22001e-05
9.22004e-05
9.22007e-05
9.22009e-05
9.22011e-05
9.22013e-05
9.22015e-05
9.22017e-05
9.22018e-05
9.22018e-05
9.22018e-05
9.22017e-05
9.22016e-05
9.22014e-05
9.22012e-05
9.22009e-05
9.22006e-05
9.22003e-05
9.21999e-05
9.21995e-05
9.21992e-05
9.21988e-05
9.21984e-05
9.2198e-05
9.21976e-05
9.21972e-05
9.21968e-05
9.21964e-05
9.21961e-05
9.21958e-05
9.21955e-05
9.21952e-05
9.21948e-05
9.21945e-05
9.21943e-05
9.2194e-05
9.21938e-05
9.21935e-05
9.21933e-05
9.21931e-05
9.21929e-05
9.21927e-05
9.21926e-05
9.21925e-05
9.21923e-05
9.21922e-05
9.2192e-05
9.21919e-05
9.21918e-05
9.21917e-05
9.21917e-05
9.21917e-05
9.21917e-05
9.21918e-05
9.21919e-05
9.2192e-05
9.21922e-05
9.21925e-05
9.21928e-05
9.2193e-05
9.21933e-05
9.21936e-05
9.21939e-05
9.21943e-05
9.21946e-05
9.21949e-05
9.21951e-05
9.21953e-05
9.21955e-05
9.21957e-05
9.2196e-05
9.21962e-05
9.21964e-05
9.21966e-05
9.21967e-05
9.21969e-05
9.21969e-05
9.21978e-05
0.000102271
0.000102269
0.000102268
0.000102267
0.000102266
0.000102266
0.000102265
0.000102265
0.000102265
0.000102265
0.000102265
0.000102265
0.000102265
0.000102265
0.000102265
0.000102265
0.000102266
0.000102266
0.000102266
0.000102267
0.000102267
0.000102267
0.000102268
0.000102268
0.000102269
0.000102269
0.00010227
0.00010227
0.000102271
0.000102271
0.000102272
0.000102272
0.000102273
0.000102273
0.000102274
0.000102274
0.000102275
0.000102275
0.000102276
0.000102276
0.000102276
0.000102277
0.000102277
0.000102277
0.000102278
0.000102278
0.000102278
0.000102279
0.000102279
0.000102279
0.000102279
0.000102279
0.000102279
0.000102279
0.000102279
0.000102278
0.000102278
0.000102278
0.000102277
0.000102277
0.000102277
0.000102276
0.000102276
0.000102275
0.000102275
0.000102274
0.000102274
0.000102273
0.000102273
0.000102273
0.000102272
0.000102272
0.000102271
0.000102271
0.000102271
0.00010227
0.00010227
0.00010227
0.00010227
0.000102269
0.000102269
0.000102269
0.000102269
0.000102268
0.000102268
0.000102268
0.000102268
0.000102268
0.000102268
0.000102267
0.000102267
0.000102267
0.000102267
0.000102267
0.000102267
0.000102267
0.000102268
0.000102268
0.000102268
0.000102268
0.000102269
0.000102269
0.000102269
0.00010227
0.00010227
0.00010227
0.000102271
0.000102271
0.000102271
0.000102272
0.000102272
0.000102272
0.000102272
0.000102273
0.000102273
0.000102273
0.000102273
0.000102274
0.000102273
0.000102275
0.000112596
0.000112593
0.000112592
0.000112591
0.00011259
0.00011259
0.00011259
0.00011259
0.00011259
0.00011259
0.00011259
0.00011259
0.00011259
0.00011259
0.00011259
0.000112591
0.000112591
0.000112591
0.000112592
0.000112592
0.000112593
0.000112593
0.000112594
0.000112594
0.000112595
0.000112595
0.000112596
0.000112596
0.000112597
0.000112597
0.000112598
0.000112598
0.000112599
0.0001126
0.0001126
0.000112601
0.000112601
0.000112602
0.000112602
0.000112603
0.000112603
0.000112603
0.000112604
0.000112604
0.000112605
0.000112605
0.000112605
0.000112605
0.000112606
0.000112606
0.000112606
0.000112606
0.000112606
0.000112606
0.000112605
0.000112605
0.000112605
0.000112604
0.000112604
0.000112603
0.000112603
0.000112602
0.000112602
0.000112601
0.000112601
0.0001126
0.0001126
0.000112599
0.000112598
0.000112598
0.000112598
0.000112597
0.000112597
0.000112596
0.000112596
0.000112596
0.000112595
0.000112595
0.000112595
0.000112594
0.000112594
0.000112594
0.000112594
0.000112593
0.000112593
0.000112593
0.000112593
0.000112593
0.000112592
0.000112592
0.000112592
0.000112592
0.000112592
0.000112592
0.000112592
0.000112592
0.000112593
0.000112593
0.000112593
0.000112594
0.000112594
0.000112594
0.000112595
0.000112595
0.000112596
0.000112596
0.000112597
0.000112597
0.000112597
0.000112598
0.000112598
0.000112598
0.000112598
0.000112599
0.000112599
0.000112599
0.000112599
0.0001126
0.0001126
0.000112601
0.000123164
0.000123161
0.000123159
0.000123158
0.000123158
0.000123157
0.000123157
0.000123157
0.000123157
0.000123157
0.000123158
0.000123158
0.000123158
0.000123158
0.000123159
0.000123159
0.00012316
0.00012316
0.000123161
0.000123161
0.000123162
0.000123162
0.000123163
0.000123163
0.000123164
0.000123164
0.000123165
0.000123166
0.000123166
0.000123167
0.000123168
0.000123168
0.000123169
0.000123169
0.00012317
0.000123171
0.000123171
0.000123172
0.000123172
0.000123173
0.000123173
0.000123174
0.000123174
0.000123174
0.000123175
0.000123175
0.000123175
0.000123176
0.000123176
0.000123176
0.000123176
0.000123176
0.000123176
0.000123176
0.000123175
0.000123175
0.000123174
0.000123174
0.000123173
0.000123172
0.000123172
0.000123171
0.00012317
0.00012317
0.000123169