/*--------------------------------*- C++ -*----------------------------------*\
  =========                 |
  \\      /  F ield         | OpenFOAM: The Open Source CFD Toolbox
   \\    /   O peration     | Website:  https://openfoam.org
    \\  /    A nd           | Version:  7
     \\/     M anipulation  |
\*---------------------------------------------------------------------------*/
FoamFile
{
    version     2.0;
    format      ascii;
    class       surfaceScalarField;
    location    "7000";
    object      phi;
}
// * * * * * * * * * * * * * * * * * * * * * * * * * * * * * * * * * * * * * //

dimensions      [0 3 -1 0 0 0 0];

internalField   nonuniform List<scalar> 
47680
(
2.20077e-06
-3.4842e-13
2.20078e-06
-7.43341e-12
2.20078e-06
-8.76835e-12
2.20079e-06
-5.82346e-12
2.20079e-06
-1.69896e-12
2.20079e-06
2.03677e-12
2.20078e-06
4.82257e-12
2.20078e-06
6.63846e-12
2.20077e-06
7.61156e-12
2.20076e-06
7.93103e-12
2.20075e-06
7.79098e-12
2.20075e-06
7.32887e-12
2.20074e-06
6.65635e-12
2.20073e-06
5.87653e-12
2.20073e-06
5.06361e-12
2.20073e-06
4.24395e-12
2.20072e-06
3.4184e-12
2.20072e-06
2.62034e-12
2.20072e-06
1.8749e-12
2.20072e-06
1.15667e-12
2.20072e-06
4.59164e-13
2.20072e-06
-1.9597e-13
2.20072e-06
-7.91971e-13
2.20072e-06
-1.31004e-12
2.20072e-06
-1.7537e-12
2.20072e-06
-2.15398e-12
2.20072e-06
-2.53483e-12
2.20073e-06
-2.89573e-12
2.20073e-06
-3.21022e-12
2.20073e-06
-3.46909e-12
2.20074e-06
-3.69721e-12
2.20074e-06
-3.91785e-12
2.20075e-06
-4.12069e-12
2.20075e-06
-4.28544e-12
2.20075e-06
-4.38825e-12
2.20076e-06
-4.46588e-12
2.20076e-06
-4.52568e-12
2.20077e-06
-4.59699e-12
2.20077e-06
-4.54654e-12
2.20078e-06
-4.4763e-12
2.20078e-06
-4.15001e-12
2.20079e-06
-3.84261e-12
2.20079e-06
-3.10479e-12
2.20079e-06
-2.17199e-12
2.20079e-06
-1.09608e-12
2.20079e-06
3.99926e-13
2.20079e-06
8.29779e-13
2.20079e-06
9.10522e-13
2.20079e-06
7.132e-13
2.20079e-06
1.08779e-13
2.20079e-06
-2.73775e-13
2.20079e-06
-6.33591e-13
2.20079e-06
-9.41742e-13
2.20079e-06
-1.16976e-12
2.20079e-06
-1.32878e-12
2.20079e-06
-1.39645e-12
2.2008e-06
-1.36338e-12
2.2008e-06
-1.26244e-12
2.2008e-06
-1.09915e-12
2.2008e-06
-8.47788e-13
2.2008e-06
-5.05582e-13
2.2008e-06
-1.15161e-13
2.2008e-06
2.79647e-13
2.2008e-06
6.77132e-13
2.2008e-06
1.06652e-12
2.2008e-06
1.41249e-12
2.20079e-06
1.6989e-12
2.20079e-06
1.92166e-12
2.20079e-06
2.09932e-12
2.20079e-06
2.27097e-12
2.20079e-06
2.4186e-12
2.20078e-06
2.48886e-12
2.20078e-06
2.48981e-12
2.20078e-06
2.45641e-12
2.20078e-06
2.40543e-12
2.20077e-06
2.35645e-12
2.20077e-06
2.29715e-12
2.20077e-06
2.19697e-12
2.20077e-06
2.06436e-12
2.20077e-06
1.91518e-12
2.20076e-06
1.75146e-12
2.20076e-06
1.59661e-12
2.20076e-06
1.46291e-12
2.20076e-06
1.35183e-12
2.20076e-06
1.18351e-12
2.20076e-06
9.75226e-13
2.20076e-06
6.58137e-13
2.20076e-06
3.93321e-13
2.20076e-06
2.44631e-13
2.20076e-06
1.43812e-13
2.20076e-06
1.40875e-13
2.20076e-06
9.65364e-14
2.20076e-06
4.19721e-14
2.20076e-06
-1.38038e-14
2.20076e-06
-1.18325e-13
2.20076e-06
-2.36985e-13
2.20076e-06
-4.02129e-13
2.20076e-06
-5.24015e-13
2.20076e-06
-6.87357e-13
2.20076e-06
-6.35631e-13
2.20076e-06
-6.68049e-13
2.20076e-06
-3.25171e-13
2.20076e-06
1.00122e-13
2.20076e-06
7.13706e-13
2.20076e-06
1.61061e-12
2.20075e-06
1.70753e-12
2.20075e-06
1.47334e-12
2.20075e-06
9.17732e-13
2.20075e-06
2.02659e-13
2.20075e-06
-5.15e-13
2.20075e-06
-1.17668e-12
2.20076e-06
-1.71265e-12
2.20076e-06
-2.15508e-12
2.20076e-06
-2.41603e-12
2.20076e-06
-2.57576e-12
2.20077e-06
-2.56152e-12
2.20077e-06
-1.9596e-12
2.20077e-06
-2.30352e-12
2.20077e-06
-9.39426e-13
2.86401e-12
6.79987e-06
-6.99758e-12
6.79989e-06
-2.96312e-11
6.79991e-06
-3.26966e-11
6.79993e-06
-2.06279e-11
6.79993e-06
-4.48896e-12
6.79992e-06
9.91037e-12
6.79991e-06
2.05732e-11
6.79989e-06
2.7455e-11
6.79986e-06
3.10788e-11
6.79984e-06
3.21771e-11
6.79982e-06
3.14886e-11
6.79979e-06
2.95525e-11
6.79977e-06
2.68012e-11
6.79976e-06
2.36257e-11
6.79974e-06
2.03149e-11
6.79973e-06
1.69878e-11
6.79972e-06
1.36611e-11
6.79971e-06
1.0444e-11
6.7997e-06
7.42571e-12
6.7997e-06
4.53466e-12
6.7997e-06
1.74751e-12
6.7997e-06
-8.69252e-13
6.7997e-06
-3.25187e-12
6.79971e-06
-5.33202e-12
6.79971e-06
-7.12418e-12
6.79972e-06
-8.73611e-12
6.79973e-06
-1.02549e-11
6.79974e-06
-1.16836e-11
6.79975e-06
-1.29387e-11
6.79976e-06
-1.39831e-11
6.79977e-06
-1.48957e-11
6.79978e-06
-1.57582e-11
6.79979e-06
-1.65465e-11
6.7998e-06
-1.71876e-11
6.79982e-06
-1.76103e-11
6.79983e-06
-1.79174e-11
6.79984e-06
-1.81684e-11
6.79986e-06
-1.84145e-11
6.79987e-06
-1.82858e-11
6.79989e-06
-1.7991e-11
6.7999e-06
-1.68846e-11
6.79991e-06
-1.56809e-11
6.79992e-06
-1.304e-11
6.79993e-06
-9.63096e-12
6.79993e-06
-5.53774e-12
6.79993e-06
-1.71717e-13
6.79993e-06
1.92095e-12
6.79993e-06
2.50907e-12
6.79993e-06
1.96911e-12
6.79993e-06
1.94261e-14
6.79993e-06
-1.40436e-12
6.79993e-06
-2.69184e-12
6.79993e-06
-3.79957e-12
6.79994e-06
-4.62142e-12
6.79994e-06
-5.17291e-12
6.79995e-06
-5.37485e-12
6.79995e-06
-5.19046e-12
6.79995e-06
-4.72497e-12
6.79996e-06
-4.00645e-12
6.79996e-06
-2.95727e-12
6.79996e-06
-1.57053e-12
6.79996e-06
1.99754e-15
6.79996e-06
1.59521e-12
6.79996e-06
3.18221e-12
6.79995e-06
4.72072e-12
6.79995e-06
6.08975e-12
6.79994e-06
7.22435e-12
6.79994e-06
8.11041e-12
6.79993e-06
8.81434e-12
6.79992e-06
9.46903e-12
6.79991e-06
1.00194e-11
6.79991e-06
1.02903e-11
6.7999e-06
1.02974e-11
6.79989e-06
1.01574e-11
6.79988e-06
9.94241e-12
6.79988e-06
9.72395e-12
6.79987e-06
9.46687e-12
6.79986e-06
9.06647e-12
6.79986e-06
8.54272e-12
6.79985e-06
7.95024e-12
6.79984e-06
7.30823e-12
6.79984e-06
6.69228e-12
6.79983e-06
6.15476e-12
6.79983e-06
5.68559e-12
6.79983e-06
5.0357e-12
6.79982e-06
4.21003e-12
6.79982e-06
3.01692e-12
6.79982e-06
1.9752e-12
6.79982e-06
1.33461e-12
6.79982e-06
9.21778e-13
6.79982e-06
8.45576e-13
6.79982e-06
6.75382e-13
6.79981e-06
4.60783e-13
6.79981e-06
2.20043e-13
6.79981e-06
-1.88622e-13
6.79982e-06
-6.96621e-13
6.79982e-06
-1.35527e-12
6.79982e-06
-1.9362e-12
6.79982e-06
-2.59466e-12
6.79982e-06
-2.62451e-12
6.79982e-06
-2.79106e-12
6.79983e-06
-1.75876e-12
6.79983e-06
-3.13847e-13
6.79982e-06
1.88401e-12
6.79982e-06
4.96912e-12
6.79982e-06
5.59812e-12
6.79981e-06
4.85751e-12
6.79981e-06
2.93745e-12
6.79981e-06
3.68998e-13
6.79981e-06
-2.28422e-12
6.79982e-06
-4.75219e-12
6.79982e-06
-6.78889e-12
6.79983e-06
-8.45757e-12
6.79984e-06
-9.48998e-12
6.79984e-06
-1.014e-11
6.79985e-06
-1.00848e-11
6.79986e-06
-8.07513e-12
6.79986e-06
-9.21235e-12
6.79987e-06
-3.42179e-12
6.805e-12
1.1709e-05
-2.6339e-11
1.1709e-05
-6.7656e-11
1.1709e-05
-6.9276e-11
1.1709e-05
-4.10999e-11
1.1709e-05
-5.35344e-12
1.1709e-05
2.60265e-11
1.1709e-05
4.90784e-11
1.1709e-05
6.3804e-11
1.17089e-05
7.14061e-11
1.17089e-05
7.34932e-11
1.17088e-05
7.16631e-11
1.17088e-05
6.71032e-11
1.17088e-05
6.07613e-11
1.17087e-05
5.34802e-11
1.17087e-05
4.58955e-11
1.17087e-05
3.82972e-11
1.17087e-05
3.07389e-11
1.17087e-05
2.34315e-11
1.17087e-05
1.6556e-11
1.17087e-05
9.99874e-12
1.17086e-05
3.71124e-12
1.17087e-05
-2.18617e-12
1.17087e-05
-7.55711e-12
1.17087e-05
-1.22626e-11
1.17087e-05
-1.63339e-11
1.17087e-05
-1.9989e-11
1.17087e-05
-2.3409e-11
1.17087e-05
-2.66089e-11
1.17087e-05
-2.9433e-11
1.17087e-05
-3.18021e-11
1.17088e-05
-3.38594e-11
1.17088e-05
-3.57697e-11
1.17088e-05
-3.75056e-11
1.17088e-05
-3.89206e-11
1.17088e-05
-3.98846e-11
1.17089e-05
-4.05772e-11
1.17089e-05
-4.11514e-11
1.17089e-05
-4.16623e-11
1.17089e-05
-4.14622e-11
1.1709e-05
-4.0813e-11
1.1709e-05
-3.86058e-11
1.1709e-05
-3.59928e-11
1.1709e-05
-3.05389e-11
1.1709e-05
-2.33904e-11
1.1709e-05
-1.4621e-11
1.1709e-05
-3.44502e-12
1.1709e-05
1.73065e-12
1.1709e-05
3.54535e-12
1.1709e-05
2.80406e-12
1.1709e-05
-8.3351e-13
1.17091e-05
-3.76915e-12
1.17091e-05
-6.4069e-12
1.17091e-05
-8.66941e-12
1.17091e-05
-1.03452e-11
1.17091e-05
-1.1427e-11
1.17091e-05
-1.17464e-11
1.17091e-05
-1.12191e-11
1.17091e-05
-1.00453e-11
1.17091e-05
-8.29802e-12
1.17091e-05
-5.83867e-12
1.17091e-05
-2.66243e-12
1.17091e-05
9.12951e-13
1.17091e-05
4.53237e-12
1.17091e-05
8.11087e-12
1.17091e-05
1.15492e-11
1.17091e-05
1.46063e-11
1.17091e-05
1.71418e-11
1.17091e-05
1.91269e-11
1.1709e-05
2.06972e-11
1.1709e-05
2.21166e-11
1.1709e-05
2.32867e-11
1.1709e-05
2.38688e-11
1.1709e-05
2.38821e-11
1.1709e-05
2.35535e-11
1.1709e-05
2.30444e-11
1.17089e-05
2.25112e-11
1.17089e-05
2.1894e-11
1.17089e-05
2.09856e-11
1.17089e-05
1.98099e-11
1.17089e-05
1.84802e-11
1.17089e-05
1.70519e-11
1.17089e-05
1.56697e-11
1.17089e-05
1.44496e-11
1.17089e-05
1.33553e-11
1.17089e-05
1.19147e-11
1.17089e-05
1.00703e-11
1.17089e-05
7.49234e-12
1.17088e-05
5.17793e-12
1.17088e-05
3.67288e-12
1.17088e-05
2.71302e-12
1.17088e-05
2.44514e-12
1.17088e-05
2.06021e-12
1.17088e-05
1.57835e-12
1.17088e-05
1.008e-12
1.17088e-05
8.49252e-14
1.17088e-05
-1.11108e-12
1.17088e-05
-2.62548e-12
1.17088e-05
-4.07273e-12
1.17088e-05
-5.62439e-12
1.17088e-05
-6.04869e-12
1.17089e-05
-6.56817e-12
1.17089e-05
-4.78529e-12
1.17089e-05
-1.99416e-12
1.17089e-05
2.45759e-12
1.17089e-05
8.63487e-12
1.17088e-05
1.03183e-11
1.17088e-05
9.01613e-12
1.17088e-05
5.20481e-12
1.17088e-05
-6.63536e-14
1.17088e-05
-5.64387e-12
1.17089e-05
-1.08814e-11
1.17089e-05
-1.52595e-11
1.17089e-05
-1.88388e-11
1.17089e-05
-2.11302e-11
1.17089e-05
-2.2594e-11
1.17089e-05
-2.25068e-11
1.17089e-05
-1.8587e-11
1.17089e-05
-2.07269e-11
1.17089e-05
-7.36884e-12
7.19016e-12
1.6918e-05
-6.5427e-11
1.69181e-05
-1.22277e-10
1.69181e-05
-1.14725e-10
1.69181e-05
-6.26047e-11
1.69181e-05
-4.35218e-13
1.69181e-05
5.31271e-11
1.69181e-05
9.2105e-11
1.6918e-05
1.16716e-10
1.6918e-05
1.2911e-10
1.69179e-05
1.32065e-10
1.69178e-05
1.2829e-10
1.69178e-05
1.1983e-10
1.69177e-05
1.08315e-10
1.69177e-05
9.51752e-11
1.69177e-05
8.15132e-11
1.69176e-05
6.78652e-11
1.69176e-05
5.43468e-11
1.69176e-05
4.12824e-11
1.69176e-05
2.89661e-11
1.69176e-05
1.72571e-11
1.69176e-05
6.08457e-12
1.69176e-05
-4.37873e-12
1.69176e-05
-1.39108e-11
1.69176e-05
-2.22842e-11
1.69176e-05
-2.95575e-11
1.69176e-05
-3.60856e-11
1.69176e-05
-4.21572e-11
1.69177e-05
-4.78078e-11
1.69177e-05
-5.28132e-11
1.69177e-05
-5.70393e-11
1.69177e-05
-6.06915e-11
1.69178e-05
-6.40334e-11
1.69178e-05
-6.70479e-11
1.69178e-05
-6.95118e-11
1.69179e-05
-7.12298e-11
1.69179e-05
-7.24687e-11
1.69179e-05
-7.34929e-11
1.69179e-05
-7.43552e-11
1.6918e-05
-7.41006e-11
1.6918e-05
-7.30166e-11
1.6918e-05
-6.94859e-11
1.69181e-05
-6.50655e-11
1.69181e-05
-5.61211e-11
1.69181e-05
-4.42589e-11
1.69181e-05
-2.95117e-11
1.69181e-05
-1.09711e-11
1.69181e-05
-1.30122e-12
1.69181e-05
2.69789e-12
1.69181e-05
2.18927e-12
1.69181e-05
-3.12291e-12
1.69182e-05
-7.78237e-12
1.69182e-05
-1.20151e-11
1.69182e-05
-1.56286e-11
1.69182e-05
-1.82859e-11
1.69182e-05
-1.99197e-11
1.69182e-05
-2.02359e-11
1.69182e-05
-1.90852e-11
1.69182e-05
-1.67747e-11
1.69182e-05
-1.34411e-11
1.69182e-05
-8.89524e-12
1.69182e-05
-3.14964e-12
1.69182e-05
3.2614e-12
1.69182e-05
9.73399e-12
1.69182e-05
1.60877e-11
1.69182e-05
2.21421e-11
1.69182e-05
2.75113e-11
1.69182e-05
3.19646e-11
1.69181e-05
3.54568e-11
1.69181e-05
3.82108e-11
1.69181e-05
4.06376e-11
1.69181e-05
4.2595e-11
1.69181e-05
4.35655e-11
1.6918e-05
4.35694e-11
1.6918e-05
4.29595e-11
1.6918e-05
4.20133e-11
1.6918e-05
4.10003e-11
1.6918e-05
3.98414e-11
1.6918e-05
3.82078e-11
1.69179e-05
3.61218e-11
1.69179e-05
3.37692e-11
1.69179e-05
3.12606e-11
1.69179e-05
2.88201e-11
1.69179e-05
2.66382e-11
1.69179e-05
2.46434e-11
1.69179e-05
2.21011e-11
1.69179e-05
1.88506e-11
1.69178e-05
1.44271e-11
1.69178e-05
1.03825e-11
1.69178e-05
7.64244e-12
1.69178e-05
5.88549e-12
1.69178e-05
5.27786e-12
1.69178e-05
4.57174e-12
1.69178e-05
3.70983e-12
1.69178e-05
2.65167e-12
1.69178e-05
9.81607e-13
1.69178e-05
-1.22699e-12
1.69178e-05
-4.00165e-12
1.69178e-05
-6.77672e-12
1.69178e-05
-9.70415e-12
1.69178e-05
-1.09723e-11
1.69178e-05
-1.2215e-11
1.69178e-05
-9.86229e-12
1.69179e-05
-5.66914e-12
1.69179e-05
1.3788e-12
1.69179e-05
1.12078e-11
1.69178e-05
1.44212e-11
1.69178e-05
1.26959e-11
1.69178e-05
6.74477e-12
1.69178e-05
-1.76877e-12
1.69178e-05
-1.09824e-11
1.69179e-05
-1.9726e-11
1.69179e-05
-2.71097e-11
1.69179e-05
-3.3156e-11
1.69179e-05
-3.71364e-11
1.69179e-05
-3.97088e-11
1.69179e-05
-3.96342e-11
1.69179e-05
-3.35345e-11
1.6918e-05
-3.67355e-11
1.6918e-05
-1.25539e-11
-8.96296e-13
2.23477e-05
-1.2905e-10
2.23478e-05
-1.91034e-10
2.23479e-05
-1.63051e-10
2.23479e-05
-7.96546e-11
2.23479e-05
1.37515e-11
2.23478e-05
9.27393e-11
2.23478e-05
1.49702e-10
2.23477e-05
1.85264e-10
2.23476e-05
2.02698e-10
2.23476e-05
2.06132e-10
2.23475e-05
1.99546e-10
2.23474e-05
1.85971e-10
2.23474e-05
1.67838e-10
2.23473e-05
1.47264e-10
2.23473e-05
1.25911e-10
2.23472e-05
1.04625e-10
2.23472e-05
8.36067e-11
2.23472e-05
6.32921e-11
2.23472e-05
4.41066e-11
2.23471e-05
2.59102e-11
2.23471e-05
8.61724e-12
2.23471e-05
-7.55372e-12
2.23472e-05
-2.22891e-11
2.23472e-05
-3.52667e-11
2.23472e-05
-4.65901e-11
2.23472e-05
-5.67623e-11
2.23472e-05
-6.61744e-11
2.23473e-05
-7.48928e-11
2.23473e-05
-8.26399e-11
2.23473e-05
-8.92164e-11
2.23474e-05
-9.48774e-11
2.23474e-05
-9.99965e-11
2.23474e-05
-1.04584e-10
2.23475e-05
-1.08342e-10
2.23475e-05
-1.11015e-10
2.23475e-05
-1.12965e-10
2.23476e-05
-1.1457e-10
2.23476e-05
-1.15871e-10
2.23477e-05
-1.15597e-10
2.23477e-05
-1.14048e-10
2.23478e-05
-1.09078e-10
2.23478e-05
-1.02588e-10
2.23478e-05
-8.97171e-11
2.23479e-05
-7.24897e-11
2.23479e-05
-5.08627e-11
2.23479e-05
-2.38311e-11
2.23479e-05
-8.40172e-12
2.23479e-05
-1.14816e-12
2.23479e-05
-7.57959e-13
2.23479e-05
-7.41654e-12
2.23479e-05
-1.37339e-11
2.23479e-05
-1.95946e-11
2.23479e-05
-2.458e-11
2.23479e-05
-2.82057e-11
2.23479e-05
-3.02949e-11
2.2348e-05
-3.03898e-11
2.2348e-05
-2.8263e-11
2.2348e-05
-2.43361e-11
2.2348e-05
-1.88269e-11
2.2348e-05
-1.15114e-11
2.2348e-05
-2.44624e-12
2.2348e-05
7.56951e-12
2.2348e-05
1.764e-11
2.2348e-05
2.746e-11
2.23479e-05
3.67465e-11
2.23479e-05
4.49533e-11
2.23479e-05
5.17588e-11
2.23479e-05
5.71054e-11
2.23479e-05
6.13115e-11
2.23478e-05
6.49391e-11
2.23478e-05
6.77941e-11
2.23478e-05
6.91912e-11
2.23478e-05
6.91596e-11
2.23477e-05
6.81783e-11
2.23477e-05
6.66571e-11
2.23477e-05
6.50055e-11
2.23477e-05
6.31262e-11
2.23476e-05
6.05599e-11
2.23476e-05
5.73279e-11
2.23476e-05
5.37019e-11
2.23476e-05
4.98601e-11
2.23476e-05
4.61088e-11
2.23475e-05
4.27103e-11
2.23475e-05
3.95511e-11
2.23475e-05
3.561e-11
2.23475e-05
3.05993e-11
2.23475e-05
2.39392e-11
2.23475e-05
1.77842e-11
2.23475e-05
1.34847e-11
2.23475e-05
1.0693e-11
2.23475e-05
9.58196e-12
2.23475e-05
8.43502e-12
2.23475e-05
7.06835e-12
2.23475e-05
5.34839e-12
2.23475e-05
2.67869e-12
2.23475e-05
-8.85284e-13
2.23475e-05
-5.34367e-12
2.23475e-05
-9.93369e-12
2.23475e-05
-1.47639e-11
2.23475e-05
-1.7414e-11
2.23475e-05
-1.98588e-11
2.23475e-05
-1.73023e-11
2.23475e-05
-1.18841e-11
2.23475e-05
-2.18919e-12
2.23475e-05
1.1534e-11
2.23475e-05
1.6653e-11
2.23475e-05
1.47865e-11
2.23475e-05
6.7255e-12
2.23475e-05
-5.24087e-12
2.23475e-05
-1.84803e-11
2.23475e-05
-3.11853e-11
2.23475e-05
-4.20155e-11
2.23476e-05
-5.09243e-11
2.23476e-05
-5.69435e-11
2.23476e-05
-6.08836e-11
2.23476e-05
-6.08915e-11
2.23476e-05
-5.25409e-11
2.23477e-05
-5.68103e-11
2.23477e-05
-1.85251e-11
-2.17799e-11
2.78144e-05
-2.13386e-10
2.78145e-05
-2.66658e-10
2.78145e-05
-2.07241e-10
2.78145e-05
-8.8055e-11
2.78145e-05
3.80291e-11
2.78145e-05
1.4297e-10
2.78144e-05
2.18184e-10
2.78143e-05
2.64772e-10
2.78142e-05
2.8711e-10
2.78141e-05
2.90679e-10
2.78141e-05
2.80719e-10
2.7814e-05
2.61272e-10
2.78139e-05
2.35613e-10
2.78139e-05
2.06598e-10
2.78138e-05
1.76503e-10
2.78138e-05
1.46527e-10
2.78137e-05
1.1696e-10
2.78137e-05
8.83511e-11
2.78137e-05
6.12728e-11
2.78137e-05
3.56216e-11
2.78137e-05
1.13127e-11
2.78137e-05
-1.14001e-11
2.78137e-05
-3.2111e-11
2.78137e-05
-5.04049e-11
2.78137e-05
-6.64529e-11
2.78137e-05
-8.09012e-11
2.78138e-05
-9.42151e-11
2.78138e-05
-1.06504e-10
2.78138e-05
-1.17456e-10
2.78139e-05
-1.26797e-10
2.78139e-05
-1.34815e-10
2.7814e-05
-1.42012e-10
2.7814e-05
-1.4843e-10
2.7814e-05
-1.53705e-10
2.78141e-05
-1.57529e-10
2.78141e-05
-1.60368e-10
2.78142e-05
-1.62702e-10
2.78142e-05
-1.64546e-10
2.78143e-05
-1.64323e-10
2.78143e-05
-1.62353e-10
2.78144e-05
-1.55954e-10
2.78144e-05
-1.47291e-10
2.78145e-05
-1.3032e-10
2.78145e-05
-1.07437e-10
2.78145e-05
-7.8466e-11
2.78145e-05
-4.22766e-11
2.78146e-05
-2.00942e-11
2.78146e-05
-8.5638e-12
2.78146e-05
-6.4801e-12
2.78146e-05
-1.39195e-11
2.78146e-05
-2.15777e-11
2.78146e-05
-2.88836e-11
2.78146e-05
-3.50977e-11
2.78146e-05
-3.95545e-11
2.78146e-05
-4.19128e-11
2.78146e-05
-4.15148e-11
2.78147e-05
-3.80514e-11
2.78147e-05
-3.20675e-11
2.78147e-05
-2.38709e-11
2.78147e-05
-1.32194e-11
2.78147e-05
-2.49686e-13
2.78147e-05
1.39377e-11
2.78146e-05
2.81351e-11
2.78146e-05
4.19034e-11
2.78146e-05
5.48388e-11
2.78146e-05
6.62347e-11
2.78146e-05
7.56903e-11
2.78145e-05
8.31394e-11
2.78145e-05
8.89956e-11
2.78145e-05
9.39562e-11
2.78145e-05
9.77693e-11
2.78144e-05
9.96069e-11
2.78144e-05
9.95258e-11
2.78144e-05
9.81169e-11
2.78143e-05
9.59302e-11
2.78143e-05
9.35297e-11
2.78143e-05
9.07979e-11
2.78143e-05
8.71422e-11
2.78142e-05
8.25957e-11
2.78142e-05
7.75289e-11
2.78142e-05
7.2187e-11
2.78142e-05
6.69475e-11
2.78141e-05
6.21367e-11
2.78141e-05
5.75964e-11
2.78141e-05
5.20086e-11
2.78141e-05
4.49551e-11
2.78141e-05
3.57843e-11
2.78141e-05
2.72654e-11
2.78141e-05
2.11739e-11
2.78141e-05
1.71539e-11
2.78141e-05
1.53804e-11
2.7814e-05
1.36603e-11
2.7814e-05
1.16505e-11
2.7814e-05
9.08e-12
2.7814e-05
5.15001e-12
2.7814e-05
-1.00244e-13
2.7814e-05
-6.63434e-12
2.7814e-05
-1.34895e-11
2.7814e-05
-2.07217e-11
2.78141e-05
-2.52905e-11
2.78141e-05
-2.94297e-11
2.78141e-05
-2.71151e-11
2.78141e-05
-2.07902e-11
2.78141e-05
-8.60957e-12
2.78141e-05
9.01444e-12
2.78141e-05
1.63249e-11
2.78141e-05
1.47103e-11
2.78141e-05
4.83255e-12
2.78141e-05
-1.04666e-11
2.78141e-05
-2.77772e-11
2.78141e-05
-4.45863e-11
2.78141e-05
-5.90549e-11
2.78142e-05
-7.10546e-11
2.78142e-05
-7.93766e-11
2.78142e-05
-8.49122e-11
2.78142e-05
-8.5105e-11
2.78143e-05
-7.46404e-11
2.78143e-05
-7.98893e-11
2.78143e-05
-2.52034e-11
-5.54631e-11
3.3093e-05
-3.03644e-10
3.3093e-05
-3.39539e-10
3.30931e-05
-2.42841e-10
3.30931e-05
-8.71985e-11
3.3093e-05
6.97933e-11
3.3093e-05
1.98765e-10
3.30929e-05
2.90943e-10
3.30928e-05
3.47881e-10
3.30927e-05
3.74866e-10
3.30926e-05
3.78539e-10
3.30926e-05
3.65223e-10
3.30925e-05
3.39878e-10
3.30924e-05
3.06597e-10
3.30923e-05
2.68972e-10
3.30923e-05
2.29903e-10
3.30922e-05
1.90945e-10
3.30922e-05
1.52477e-10
3.30922e-05
1.15166e-10
3.30922e-05
7.97426e-11
3.30922e-05
4.61818e-11
3.30922e-05
1.44181e-11
3.30922e-05
-1.5266e-11
3.30922e-05
-4.23657e-11
3.30922e-05
-6.6389e-11
3.30922e-05
-8.76045e-11
3.30922e-05
-1.06767e-10
3.30923e-05
-1.24372e-10
3.30923e-05
-1.40587e-10
3.30923e-05
-1.55085e-10
3.30924e-05
-1.67492e-10
3.30924e-05
-1.78141e-10
3.30925e-05
-1.87676e-10
3.30925e-05
-1.96163e-10
3.30926e-05
-2.03157e-10
3.30926e-05
-2.08328e-10
3.30927e-05
-2.12257e-10
3.30927e-05
-2.15497e-10
3.30928e-05
-2.18021e-10
3.30928e-05
-2.17975e-10
3.30929e-05
-2.1571e-10
3.30929e-05
-2.08008e-10
3.3093e-05
-1.97232e-10
3.3093e-05
-1.76229e-10
3.30931e-05
-1.47737e-10
3.30931e-05
-1.11359e-10
3.30931e-05
-6.57656e-11
3.30931e-05
-3.61774e-11
3.30931e-05
-1.95437e-11
3.30932e-05
-1.49811e-11
3.30932e-05
-2.25082e-11
3.30932e-05
-3.09999e-11
3.30932e-05
-3.93842e-11
3.30932e-05
-4.65463e-11
3.30932e-05
-5.15976e-11
3.30932e-05
-5.39749e-11
3.30932e-05
-5.27939e-11
3.30932e-05
-4.76778e-11
3.30932e-05
-3.93037e-11
3.30933e-05
-2.80687e-11
3.30933e-05
-1.37308e-11
3.30932e-05
3.45933e-12
3.30932e-05
2.20809e-11
3.30932e-05
4.06285e-11
3.30932e-05
5.85401e-11
3.30932e-05
7.5283e-11
3.30932e-05
9.0002e-11
3.30931e-05
1.0224e-10
3.30931e-05
1.11921e-10
3.30931e-05
1.19539e-10
3.30931e-05
1.25902e-10
3.3093e-05
1.30692e-10
3.3093e-05
1.32978e-10
3.3093e-05
1.32865e-10
3.30929e-05
1.31034e-10
3.30929e-05
1.28169e-10
3.30929e-05
1.24989e-10
3.30928e-05
1.21346e-10
3.30928e-05
1.16524e-10
3.30928e-05
1.10596e-10
3.30927e-05
1.04038e-10
3.30927e-05
9.71429e-11
3.30927e-05
9.0335e-11
3.30927e-05
8.3997e-11
3.30926e-05
7.79283e-11
3.30926e-05
7.05235e-11
3.30926e-05
6.12551e-11
3.30926e-05
4.94467e-11
3.30926e-05
3.84594e-11
3.30926e-05
3.04539e-11
3.30926e-05
2.50717e-11
3.30926e-05
2.24927e-11
3.30926e-05
2.00624e-11
3.30926e-05
1.72544e-11
3.30925e-05
1.36302e-11
3.30925e-05
8.18434e-12
3.30925e-05
9.54779e-13
3.30925e-05
-7.97748e-12
3.30925e-05
-1.74668e-11
3.30926e-05
-2.75109e-11
3.30926e-05
-3.44491e-11
3.30926e-05
-4.07024e-11
3.30926e-05
-3.90513e-11
3.30926e-05
-3.2173e-11
3.30926e-05
-1.77688e-11
3.30926e-05
3.63326e-12
3.30926e-05
1.33632e-11
3.30926e-05
1.24575e-11
3.30926e-05
1.25338e-12
3.30926e-05
-1.69858e-11
3.30926e-05
-3.81039e-11
3.30927e-05
-5.88621e-11
3.30927e-05
-7.6925e-11
3.30927e-05
-9.20879e-11
3.30927e-05
-1.0289e-10
3.30927e-05
-1.10213e-10
3.30928e-05
-1.10723e-10
3.30928e-05
-9.84893e-11
3.30928e-05
-1.04385e-10
3.30928e-05
-3.33213e-11
-9.52288e-11
3.80385e-05
-3.81941e-10
3.80385e-05
-4.00674e-10
3.80385e-05
-2.68444e-10
3.80385e-05
-7.92152e-11
3.80385e-05
1.05086e-10
3.80384e-05
2.54881e-10
3.80384e-05
3.61838e-10
3.80383e-05
4.27986e-10
3.80382e-05
4.59307e-10
3.80381e-05
4.63313e-10
3.8038e-05
4.47127e-10
3.8038e-05
4.16461e-10
3.80379e-05
3.76157e-10
3.80378e-05
3.30494e-10
3.80378e-05
2.82952e-10
3.80377e-05
2.35395e-10
3.80377e-05
1.88304e-10
3.80377e-05
1.42467e-10
3.80377e-05
9.87769e-11
3.80376e-05
5.73253e-11
3.80376e-05
1.8087e-11
3.80376e-05
-1.86215e-11
3.80377e-05
-5.21844e-11
3.80377e-05
-8.20712e-11
3.80377e-05
-1.08673e-10
3.80377e-05
-1.32794e-10
3.80377e-05
-1.54915e-10
3.80378e-05
-1.75269e-10
3.80378e-05
-1.93517e-10
3.80379e-05
-2.09184e-10
3.80379e-05
-2.2267e-10
3.8038e-05
-2.34775e-10
3.8038e-05
-2.45538e-10
3.80381e-05
-2.54429e-10
3.80381e-05
-2.61144e-10
3.80382e-05
-2.66384e-10
3.80382e-05
-2.7073e-10
3.80383e-05
-2.74094e-10
3.80383e-05
-2.74396e-10
3.80384e-05
-2.72029e-10
3.80384e-05
-2.63233e-10
3.80385e-05
-2.50512e-10
3.80385e-05
-2.25717e-10
3.80386e-05
-1.91896e-10
3.80386e-05
-1.48323e-10
3.80387e-05
-9.33787e-11
3.80387e-05
-5.60592e-11
3.80387e-05
-3.37723e-11
3.80387e-05
-2.60746e-11
3.80387e-05
-3.29853e-11
3.80387e-05
-4.17017e-11
3.80387e-05
-5.06698e-11
3.80387e-05
-5.83899e-11
3.80388e-05
-6.37067e-11
3.80388e-05
-6.57789e-11
3.80388e-05
-6.34892e-11
3.80388e-05
-5.64293e-11
3.80388e-05
-4.54214e-11
3.80388e-05
-3.09442e-11
3.80388e-05
-1.27731e-11
3.80388e-05
8.69582e-12
3.80388e-05
3.17279e-11
3.80388e-05
5.45681e-11
3.80387e-05
7.65531e-11
3.80387e-05
9.70207e-11
3.80387e-05
1.14996e-10
3.80387e-05
1.29995e-10
3.80386e-05
1.41921e-10
3.80386e-05
1.51319e-10
3.80386e-05
1.59082e-10
3.80385e-05
1.64823e-10
3.80385e-05
1.67555e-10
3.80385e-05
1.67452e-10
3.80384e-05
1.65258e-10
3.80384e-05
1.61773e-10
3.80384e-05
1.57854e-10
3.80383e-05
1.53303e-10
3.80383e-05
1.47308e-10
3.80383e-05
1.40024e-10
3.80383e-05
1.32031e-10
3.80382e-05
1.23632e-10
3.80382e-05
1.15262e-10
3.80382e-05
1.07356e-10
3.80382e-05
9.96785e-11
3.80381e-05
9.03641e-11
3.80381e-05
7.88202e-11
3.80381e-05
6.43837e-11
3.80381e-05
5.09514e-11
3.80381e-05
4.10041e-11
3.80381e-05
3.41796e-11
3.80381e-05
3.06741e-11
3.80381e-05
2.73948e-11
3.80381e-05
2.36159e-11
3.8038e-05
1.87188e-11
3.8038e-05
1.15084e-11
3.8038e-05
2.04503e-12
3.8038e-05
-9.54681e-12
3.8038e-05
-2.19666e-11
3.80381e-05
-3.51422e-11
3.80381e-05
-4.47948e-11
3.80381e-05
-5.34817e-11
3.80381e-05
-5.2844e-11
3.80381e-05
-4.57321e-11
3.80381e-05
-2.9371e-11
3.80381e-05
-4.34496e-12
3.80381e-05
7.98542e-12
3.80381e-05
8.23509e-12
3.80381e-05
-3.72775e-12
3.80381e-05
-2.43519e-11
3.80382e-05
-4.87918e-11
3.80382e-05
-7.3116e-11
3.80382e-05
-9.45398e-11
3.80382e-05
-1.12799e-10
3.80382e-05
-1.26156e-10
3.80383e-05
-1.35395e-10
3.80383e-05
-1.36344e-10
3.80383e-05
-1.22835e-10
3.80383e-05
-1.28731e-10
3.80383e-05
-4.38332e-11
-1.32237e-10
4.2623e-05
-4.36585e-10
4.2623e-05
-4.43053e-10
4.2623e-05
-2.82962e-10
4.2623e-05
-6.59964e-11
4.2623e-05
1.41009e-10
4.26229e-05
3.08001e-10
4.26229e-05
4.27213e-10
4.26228e-05
5.01164e-10
4.26227e-05
5.36383e-10
4.26226e-05
5.40966e-10
4.26226e-05
5.22532e-10
4.26225e-05
4.87383e-10
4.26224e-05
4.4102e-10
4.26224e-05
3.88326e-10
4.26223e-05
3.33252e-10
4.26223e-05
2.77902e-10
4.26222e-05
2.22868e-10
4.26222e-05
1.69076e-10
4.26222e-05
1.17571e-10
4.26222e-05
6.85856e-11
4.26222e-05
2.21609e-11
4.26222e-05
-2.13341e-11
4.26222e-05
-6.11745e-11
4.26222e-05
-9.685e-11
4.26222e-05
-1.28877e-10
4.26223e-05
-1.58034e-10
4.26223e-05
-1.84754e-10
4.26223e-05
-2.09336e-10
4.26224e-05
-2.3141e-10
4.26224e-05
-2.50435e-10
4.26224e-05
-2.66921e-10
4.26225e-05
-2.81787e-10
4.26225e-05
-2.94978e-10
4.26226e-05
-3.05902e-10
4.26226e-05
-3.14353e-10
4.26227e-05
-3.2114e-10
4.26228e-05
-3.26791e-10
4.26228e-05
-3.31158e-10
4.26229e-05
-3.32004e-10
4.26229e-05
-3.2976e-10
4.2623e-05
-3.20117e-10
4.2623e-05
-3.05682e-10
4.26231e-05
-2.77418e-10
4.26231e-05
-2.3866e-10
4.26232e-05
-1.8823e-10
4.26232e-05
-1.24153e-10
4.26232e-05
-7.90318e-11
4.26233e-05
-5.08112e-11
4.26233e-05
-3.95096e-11
4.26233e-05
-4.5185e-11
4.26233e-05
-5.35079e-11
4.26233e-05
-6.25061e-11
4.26233e-05
-7.03123e-11
4.26233e-05
-7.54662e-11
4.26233e-05
-7.68109e-11
4.26233e-05
-7.30159e-11
4.26234e-05
-6.36993e-11
4.26234e-05
-4.98449e-11
4.26234e-05
-3.2004e-11
4.26234e-05
-9.98718e-12
4.26233e-05
1.56408e-11
4.26233e-05
4.28649e-11
4.26233e-05
6.97461e-11
4.26233e-05
9.55426e-11
4.26233e-05
1.19471e-10
4.26233e-05
1.40482e-10
4.26232e-05
1.58096e-10
4.26232e-05
1.72175e-10
4.26232e-05
1.8328e-10
4.26231e-05
1.92358e-10
4.26231e-05
1.98968e-10
4.26231e-05
2.02118e-10
4.2623e-05
2.02065e-10
4.2623e-05
1.99593e-10
4.2623e-05
1.95587e-10
4.26229e-05
1.91007e-10
4.26229e-05
1.85582e-10
4.26229e-05
1.78447e-10
4.26228e-05
1.69891e-10
4.26228e-05
1.60588e-10
4.26228e-05
1.50794e-10
4.26228e-05
1.40932e-10
4.26227e-05
1.31474e-10
4.26227e-05
1.22157e-10
4.26227e-05
1.109e-10
4.26227e-05
9.71089e-11
4.26227e-05
8.01558e-11
4.26226e-05
6.43897e-11
4.26226e-05
5.25377e-11
4.26226e-05
4.42303e-11
4.26226e-05
3.96969e-11
4.26226e-05
3.54283e-11
4.26226e-05
3.04911e-11
4.26226e-05
2.40865e-11
4.26226e-05
1.48638e-11
4.26226e-05
2.93057e-12
4.26226e-05
-1.15566e-11
4.26226e-05
-2.71666e-11
4.26226e-05
-4.37334e-11
4.26226e-05
-5.63611e-11
4.26226e-05
-6.77205e-11
4.26226e-05
-6.83699e-11
4.26227e-05
-6.12792e-11
4.26227e-05
-4.31703e-11
4.26227e-05
-1.46411e-11
4.26227e-05
4.33407e-13
4.26227e-05
2.21731e-12
4.26227e-05
-9.96172e-12
4.26227e-05
-3.23601e-11
4.26227e-05
-5.95128e-11
4.26227e-05
-8.68808e-11
4.26227e-05
-1.11309e-10
4.26228e-05
-1.32487e-10
4.26228e-05
-1.48358e-10
4.26228e-05
-1.59552e-10
4.26228e-05
-1.61009e-10
4.26229e-05
-1.46767e-10
4.26229e-05
-1.51791e-10
4.26229e-05
-5.70382e-11
-1.6117e-10
4.68886e-05
-4.64247e-10
4.68886e-05
-4.62743e-10
4.68886e-05
-2.84559e-10
4.68886e-05
-4.76603e-11
4.68886e-05
1.76606e-10
4.68885e-05
3.56942e-10
4.68885e-05
4.85756e-10
4.68884e-05
5.65933e-10
4.68883e-05
6.04421e-10
4.68882e-05
6.0964e-10
4.68882e-05
5.89457e-10
4.68881e-05
5.50639e-10
4.68881e-05
4.99262e-10
4.6888e-05
4.40682e-10
4.6888e-05
3.79176e-10
4.68879e-05
3.17007e-10
4.68879e-05
2.54908e-10
4.68879e-05
1.93948e-10
4.68878e-05
1.35296e-10
4.68878e-05
7.93384e-11
4.68878e-05
2.62188e-11
4.68878e-05
-2.36178e-11
4.68878e-05
-6.93722e-11
4.68879e-05
-1.1062e-10
4.68879e-05
-1.47976e-10
4.68879e-05
-1.82111e-10
4.68879e-05
-2.13397e-10
4.6888e-05
-2.42174e-10
4.6888e-05
-2.68037e-10
4.6888e-05
-2.90454e-10
4.68881e-05
-3.10069e-10
4.68881e-05
-3.27822e-10
4.68882e-05
-3.43512e-10
4.68882e-05
-3.56558e-10
4.68883e-05
-3.66933e-10
4.68883e-05
-3.75496e-10
4.68884e-05
-3.82638e-10
4.68884e-05
-3.88158e-10
4.68885e-05
-3.89735e-10
4.68886e-05
-3.87842e-10
4.68886e-05
-3.77603e-10
4.68887e-05
-3.61721e-10
4.68887e-05
-3.30341e-10
4.68888e-05
-2.8705e-10
4.68888e-05
-2.30126e-10
4.68889e-05
-1.57206e-10
4.68889e-05
-1.04383e-10
4.68889e-05
-7.01526e-11
4.68889e-05
-5.49577e-11
4.68889e-05
-5.89135e-11
4.68889e-05
-6.62893e-11
4.6889e-05
-7.47626e-11
4.6889e-05
-8.21234e-11
4.6889e-05
-8.65862e-11
4.6889e-05
-8.66733e-11
4.6889e-05
-8.08913e-11
4.6889e-05
-6.89588e-11
4.6889e-05
-5.20388e-11
4.6889e-05
-3.07488e-11
4.6889e-05
-4.9552e-12
4.6889e-05
2.46047e-11
4.6889e-05
5.56908e-11
4.6889e-05
8.6246e-11
4.68889e-05
1.15468e-10
4.68889e-05
1.42469e-10
4.68889e-05
1.66187e-10
4.68889e-05
1.86176e-10
4.68888e-05
2.02233e-10
4.68888e-05
2.14883e-10
4.68888e-05
2.25105e-10
4.68887e-05
2.32439e-10
4.68887e-05
2.35938e-10
4.68887e-05
2.35955e-10
4.68886e-05
2.33287e-10
4.68886e-05
2.28872e-10
4.68886e-05
2.2372e-10
4.68885e-05
2.17461e-10
4.68885e-05
2.09231e-10
4.68885e-05
1.99515e-10
4.68884e-05
1.89047e-10
4.68884e-05
1.78001e-10
4.68884e-05
1.66756e-10
4.68884e-05
1.55804e-10
4.68883e-05
1.44851e-10
4.68883e-05
1.3166e-10
4.68883e-05
1.15712e-10
4.68883e-05
9.64217e-11
4.68883e-05
7.84882e-11
4.68883e-05
6.48078e-11
4.68882e-05
5.50027e-11
4.68882e-05
4.93494e-11
4.68882e-05
4.39465e-11
4.68882e-05
3.76517e-11
4.68882e-05
2.94927e-11
4.68882e-05
1.8003e-11
4.68882e-05
3.35801e-12
4.68882e-05
-1.42629e-11
4.68882e-05
-3.33121e-11
4.68882e-05
-5.34956e-11
4.68882e-05
-6.93036e-11
4.68883e-05
-8.3517e-11
4.68883e-05
-8.56525e-11
4.68883e-05
-7.87542e-11
4.68883e-05
-5.9021e-11
4.68883e-05
-2.70431e-11
4.68883e-05
-9.09836e-12
4.68883e-05
-5.47827e-12
4.68884e-05
-1.73974e-11
4.68884e-05
-4.09623e-11
4.68884e-05
-7.01728e-11
4.68884e-05
-1.00007e-10
4.68884e-05
-1.27029e-10
4.68884e-05
-1.50872e-10
4.68884e-05
-1.69116e-10
4.68885e-05
-1.82213e-10
4.68885e-05
-1.84176e-10
4.68885e-05
-1.69706e-10
4.68885e-05
-1.72918e-10
4.68885e-05
-7.24265e-11
-1.80913e-10
5.08983e-05
-4.67263e-10
5.08983e-05
-4.59252e-10
5.08983e-05
-2.71614e-10
5.08983e-05
-2.30314e-11
5.08982e-05
2.12497e-10
5.08982e-05
4.02071e-10
5.08981e-05
5.3771e-10
5.08981e-05
6.22395e-10
5.0898e-05
6.63307e-10
5.08979e-05
6.68953e-10