/*--------------------------------*- C++ -*----------------------------------*\
  =========                 |
  \\      /  F ield         | OpenFOAM: The Open Source CFD Toolbox
   \\    /   O peration     | Website:  https://openfoam.org
    \\  /    A nd           | Version:  7
     \\/     M anipulation  |
\*---------------------------------------------------------------------------*/
FoamFile
{
    version     2.0;
    format      ascii;
    class       volVectorField;
    location    "7000";
    object      U;
}
// * * * * * * * * * * * * * * * * * * * * * * * * * * * * * * * * * * * * * //

dimensions      [0 1 -1 0 0 0 0];

internalField   nonuniform List<vector> 
24000
(
(0.00434805 6.49837e-11 3.10479e-16)
(0.00434806 -1.03277e-10 2.94833e-16)
(0.00434808 -1.32494e-10 2.99114e-16)
(0.0043481 -9.79395e-11 2.27818e-16)
(0.00434811 -4.36438e-11 -8.87161e-17)
(0.0043481 6.82519e-12 2.12743e-16)
(0.0043481 4.48548e-11 -7.12557e-17)
(0.00434809 7.02974e-11 2.26139e-16)
(0.00434807 8.44139e-11 2.74216e-16)
(0.00434806 8.98171e-11 -2.56654e-17)
(0.00434804 8.9332e-11 2.44101e-16)
(0.00434802 8.45845e-11 2.55027e-16)
(0.00434801 7.70822e-11 2.58615e-16)
(0.004348 6.83496e-11 2.38495e-16)
(0.00434799 5.93023e-11 1.99066e-16)
(0.00434798 5.00734e-11 2.53458e-16)
(0.00434797 4.04368e-11 2.47486e-16)
(0.00434796 3.11801e-11 2.44094e-16)
(0.00434796 2.27709e-11 2.17783e-16)
(0.00434796 1.4369e-11 1.7136e-16)
(0.00434796 5.96438e-12 2.35077e-16)
(0.00434796 -1.88807e-12 2.06896e-16)
(0.00434796 -9.00892e-12 2.19607e-16)
(0.00434796 -1.50525e-11 1.99296e-16)
(0.00434796 -2.0096e-11 1.4121e-16)
(0.00434797 -2.47425e-11 2.3324e-16)
(0.00434797 -2.93652e-11 2.14872e-16)
(0.00434798 -3.38812e-11 2.2785e-16)
(0.00434798 -3.76419e-11 1.96774e-16)
(0.00434799 -4.05782e-11 1.35226e-16)
(0.004348 -4.328e-11 2.20915e-16)
(0.004348 -4.62078e-11 1.92256e-16)
(0.00434801 -4.887e-11 2.07667e-16)
(0.00434802 -5.10897e-11 1.76107e-16)
(0.00434803 -5.20168e-11 1.2441e-16)
(0.00434804 -5.31346e-11 2.21819e-16)
(0.00434805 -5.34468e-11 1.98012e-16)
(0.00434805 -5.52154e-11 2.12244e-16)
(0.00434806 -5.29935e-11 1.89924e-16)
(0.00434807 -5.31399e-11 1.43312e-16)
(0.00434808 -4.56174e-11 1.73835e-16)
(0.00434809 -4.26296e-11 4.88036e-16)
(0.0043481 -2.91642e-11 2.2437e-16)
(0.0043481 -1.35609e-11 2.16622e-16)
(0.0043481 3.67113e-13 2.26597e-16)
(0.00434811 2.86921e-11 2.40047e-16)
(0.0043481 2.58747e-11 4.44435e-16)
(0.0043481 2.42314e-11 2.59579e-16)
(0.0043481 1.91036e-11 2.53933e-16)
(0.0043481 4.92436e-12 2.59351e-16)
(0.0043481 3.23892e-13 2.63744e-16)
(0.0043481 -6.16964e-12 4.86896e-16)
(0.0043481 -1.11803e-11 2.73913e-16)
(0.0043481 -1.49049e-11 4.70112e-16)
(0.00434811 -1.77547e-11 2.22732e-16)
(0.00434811 -1.92945e-11 2.95115e-16)
(0.00434811 -1.93886e-11 4.42902e-16)
(0.00434811 -1.88721e-11 2.92239e-16)
(0.00434812 -1.76416e-11 4.57903e-16)
(0.00434812 -1.50591e-11 2.14139e-16)
(0.00434812 -1.10745e-11 2.95492e-16)
(0.00434812 -6.46723e-12 5.38193e-16)
(0.00434812 -1.9245e-12 3.08553e-16)
(0.00434812 2.87042e-12 4.7397e-16)
(0.00434812 7.78291e-12 2.45059e-16)
(0.00434812 1.20598e-11 3.20538e-16)
(0.00434811 1.55606e-11 5.2648e-16)
(0.00434811 1.82418e-11 3.2065e-16)
(0.00434811 2.03918e-11 5.08773e-16)
(0.0043481 2.28512e-11 2.17056e-16)
(0.0043481 2.51097e-11 3.1616e-16)
(0.00434809 2.5957e-11 5.28289e-16)
(0.00434809 2.58605e-11 3.2381e-16)
(0.00434808 2.55282e-11 5.40239e-16)
(0.00434808 2.50326e-11 2.65559e-16)
(0.00434807 2.47317e-11 3.26031e-16)
(0.00434807 2.42568e-11 4.65679e-16)
(0.00434806 2.29862e-11 3.2559e-16)
(0.00434806 2.12807e-11 5.4164e-16)
(0.00434805 1.94653e-11 2.4207e-16)
(0.00434805 1.72894e-11 2.34882e-17)
(0.00434805 1.54492e-11 2.2115e-16)
(0.00434804 1.3815e-11 3.20175e-16)
(0.00434804 1.29467e-11 2.22726e-17)
(0.00434804 1.0387e-11 2.49625e-16)
(0.00434804 7.98113e-12 5.21564e-17)
(0.00434804 2.98088e-12 2.48852e-16)
(0.00434803 -3.07843e-13 3.07622e-16)
(0.00434803 -1.24943e-12 7.9295e-17)
(0.00434803 -2.55648e-12 1.74364e-16)
(0.00434803 -1.47931e-12 7.39447e-17)
(0.00434803 -2.32738e-12 1.94369e-16)
(0.00434803 -3.05119e-12 2.94247e-16)
(0.00434803 -3.3872e-12 5.91165e-19)
(0.00434803 -5.01042e-12 1.9543e-16)
(0.00434803 -5.78047e-12 -2.2952e-17)
(0.00434803 -8.2291e-12 1.88043e-16)
(0.00434804 -7.94201e-12 2.93946e-16)
(0.00434804 -1.07578e-11 -2.85948e-18)
(0.00434804 -6.0035e-12 2.4028e-16)
(0.00434804 -7.20446e-12 4.0836e-17)
(0.00434804 2.14885e-12 2.11287e-16)
(0.00434804 1.02284e-11 3.09887e-16)
(0.00434804 1.99576e-11 6.63423e-17)
(0.00434804 3.87305e-11 2.30075e-16)
(0.00434803 3.43684e-11 3.68886e-17)
(0.00434803 2.98539e-11 2.34049e-16)
(0.00434803 1.89769e-11 3.00137e-16)
(0.00434803 6.87925e-12 1.25112e-16)
(0.00434803 -4.17135e-12 2.24883e-16)
(0.00434803 -1.4248e-11 1.28645e-16)
(0.00434803 -2.16623e-11 1.79385e-17)
(0.00434804 -2.8237e-11 2.88293e-16)
(0.00434804 -3.12814e-11 2.37424e-17)
(0.00434805 -3.26955e-11 2.39567e-16)
(0.00434805 -3.31469e-11 9.8766e-17)
(0.00434806 -1.98909e-11 2.57297e-17)
(0.00434806 -2.54701e-11 2.86503e-16)
(0.00434806 -2.15392e-11 1.18706e-16)
(0.00434806 9.72795e-11 2.54654e-16)
(0.0131243 -1.45642e-10 9.41134e-16)
(0.0131243 -1.52013e-09 8.90955e-16)
(0.0131244 -1.76705e-09 9.03511e-16)
(0.0131244 -1.15755e-09 6.83229e-16)
(0.0131245 -3.17271e-10 2.88691e-17)
(0.0131244 4.40126e-10 6.5363e-16)
(0.0131244 1.00365e-09 2.42383e-16)
(0.0131244 1.36983e-09 6.94875e-16)
(0.0131243 1.56501e-09 8.27688e-16)
(0.0131243 1.62768e-09 1.85154e-16)
(0.0131242 1.5971e-09 7.46959e-16)
(0.0131242 1.5012e-09 7.69625e-16)
(0.0131242 1.36271e-09 7.8219e-16)
(0.0131241 1.20244e-09 7.20834e-16)
(0.0131241 1.03544e-09 5.99411e-16)
(0.0131241 8.6717e-10 7.5874e-16)
(0.013124 6.98039e-10 7.44986e-16)
(0.013124 5.34544e-10 7.38926e-16)
(0.013124 3.81642e-10 6.58641e-16)
(0.013124 2.34508e-10 5.22287e-16)
(0.013124 9.18618e-11 7.12403e-16)
(0.013124 -4.20917e-11 6.27404e-16)
(0.013124 -1.63926e-10 6.66756e-16)
(0.013124 -2.69876e-10 6.04343e-16)
(0.013124 -3.60796e-10 4.2371e-16)
(0.013124 -4.42798e-10 7.16005e-16)
(0.013124 -5.20668e-10 6.46196e-16)
(0.0131241 -5.94279e-10 6.89025e-16)
(0.0131241 -6.58543e-10 5.9638e-16)
(0.0131241 -7.11547e-10 4.06418e-16)
(0.0131241 -7.58203e-10 6.80428e-16)
(0.0131241 -8.03119e-10 5.83424e-16)
(0.0131242 -8.44372e-10 6.28585e-16)
(0.0131242 -8.7776e-10 5.24883e-16)
(0.0131242 -8.98979e-10 3.77106e-16)
(0.0131242 -9.14633e-10 6.70758e-16)
(0.0131243 -9.27267e-10 5.83036e-16)
(0.0131243 -9.4089e-10 6.38927e-16)
(0.0131243 -9.31819e-10 5.71717e-16)
(0.0131243 -9.16229e-10 4.26997e-16)
(0.0131244 -8.52245e-10 5.26537e-16)
(0.0131244 -7.88269e-10 6.73632e-16)
(0.0131244 -6.40311e-10 6.74107e-16)
(0.0131244 -4.52929e-10 6.57928e-16)
(0.0131244 -2.32611e-10 6.84932e-16)
(0.0131245 6.38525e-11 7.25461e-16)
(0.0131244 1.56798e-10 7.82804e-16)
(0.0131244 1.7494e-10 7.79069e-16)
(0.0131244 1.35927e-10 7.67638e-16)
(0.0131244 1.79678e-11 7.8516e-16)
(0.0131244 -6.00023e-11 7.99335e-16)
(0.0131244 -1.31706e-10 8.6997e-16)
(0.0131245 -1.93465e-10 8.21358e-16)
(0.0131245 -2.39143e-10 9.37299e-16)
(0.0131245 -2.70671e-10 6.34363e-16)
(0.0131245 -2.83627e-10 8.95219e-16)
(0.0131245 -2.76215e-10 9.40316e-16)
(0.0131245 -2.54829e-10 8.76981e-16)
(0.0131245 -2.20579e-10 9.65044e-16)
(0.0131245 -1.68532e-10 7.4036e-16)
(0.0131245 -9.82253e-11 8.96115e-16)
(0.0131245 -1.81964e-11 9.90467e-16)
(0.0131245 6.2794e-11 9.24375e-16)
(0.0131245 1.44099e-10 1.0153e-15)
(0.0131245 2.23501e-10 6.82435e-16)
(0.0131245 2.94089e-10 9.7176e-16)
(0.0131245 3.52482e-10 1.08463e-15)
(0.0131245 3.97934e-10 9.63692e-16)
(0.0131244 4.34206e-10 1.07004e-15)
(0.0131244 4.68984e-10 6.13079e-16)
(0.0131244 4.98625e-10 9.57336e-16)
(0.0131244 5.1282e-10 1.02399e-15)
(0.0131244 5.12976e-10 9.73564e-16)
(0.0131244 5.06e-10 1.04856e-15)
(0.0131244 4.95459e-10 7.58022e-16)
(0.0131243 4.85183e-10 9.954e-16)
(0.0131243 4.72794e-10 1.03084e-15)
(0.0131243 4.5224e-10 9.77779e-16)
(0.0131243 4.25153e-10 1.05209e-15)
(0.0131243 3.94618e-10 6.82528e-16)
(0.0131243 3.61269e-10 7.88673e-16)
(0.0131243 3.2961e-10 6.61119e-16)
(0.0131243 3.02311e-10 9.69617e-16)
(0.0131243 2.79138e-10 7.13477e-16)
(0.0131242 2.45018e-10 8.46088e-16)
(0.0131242 2.02126e-10 7.54426e-16)
(0.0131242 1.38147e-10 6.44777e-16)
(0.0131242 8.43016e-11 9.36209e-16)
(0.0131242 5.33222e-11 6.91597e-16)
(0.0131242 3.2979e-11 6.47794e-16)
(0.0131242 3.1509e-11 6.38409e-16)
(0.0131242 2.26198e-11 7.14257e-16)
(0.0131242 1.14992e-11 8.91811e-16)
(0.0131242 -2.80966e-13 6.56845e-16)
(0.0131242 -2.14213e-11 5.28382e-16)
(0.0131242 -4.64151e-11 6.89459e-16)
(0.0131242 -7.97543e-11 6.66388e-16)
(0.0131242 -1.06287e-10 8.8734e-16)
(0.0131242 -1.38716e-10 6.54131e-16)
(0.0131242 -1.31548e-10 6.31925e-16)
(0.0131242 -1.3715e-10 7.08944e-16)
(0.0131242 -7.08196e-11 7.42744e-16)
(0.0131242 1.38924e-11 9.39517e-16)
(0.0131242 1.38256e-10 7.50299e-16)
(0.0131242 3.14286e-10 7.42053e-16)
(0.0131242 3.37428e-10 6.94238e-16)
(0.0131242 2.90216e-10 7.15989e-16)
(0.0131242 1.79455e-10 9.08444e-16)
(0.0131242 3.59424e-11 7.21283e-16)
(0.0131242 -1.08804e-10 6.29575e-16)
(0.0131242 -2.42184e-10 7.42565e-16)
(0.0131242 -3.5077e-10 6.50411e-16)
(0.0131242 -4.39896e-10 8.78531e-16)
(0.0131243 -4.92999e-10 7.08142e-16)
(0.0131243 -5.25916e-10 6.09463e-16)
(0.0131243 -5.21451e-10 7.23418e-16)
(0.0131243 -4.03477e-10 6.58468e-16)
(0.0131243 -4.73199e-10 8.7317e-16)
(0.0131243 -1.76253e-10 7.23216e-16)
(0.0131243 5.34579e-10 6.06265e-16)
(0.0220775 -1.29965e-09 1.60051e-15)
(0.0220775 -4.48126e-09 1.49545e-15)
(0.0220776 -4.82431e-09 1.5186e-15)
(0.0220777 -2.98056e-09 1.10688e-15)
(0.0220777 -5.62635e-10 8.09537e-16)
(0.0220777 1.58029e-09 1.16558e-15)
(0.0220776 3.16172e-09 8.99776e-16)
(0.0220776 4.17796e-09 1.23685e-15)
(0.0220775 4.70883e-09 1.38086e-15)
(0.0220774 4.86386e-09 1.0413e-15)
(0.0220773 4.75275e-09 1.31918e-15)
(0.0220773 4.45607e-09 1.28674e-15)
(0.0220772 4.03828e-09 1.31785e-15)
(0.0220771 3.55729e-09 1.2076e-15)
(0.0220771 3.05616e-09 1.01139e-15)
(0.022077 2.55322e-09 1.27041e-15)
(0.022077 2.05131e-09 1.24102e-15)
(0.022077 1.56611e-09 1.24487e-15)
(0.0220769 1.11042e-09 1.10174e-15)
(0.0220769 6.74678e-10 8.76817e-16)
(0.0220769 2.55351e-10 1.22698e-15)
(0.0220769 -1.38208e-10 1.05163e-15)
(0.0220769 -4.96447e-10 1.13298e-15)
(0.0220769 -8.09523e-10 1.00507e-15)
(0.022077 -1.07962e-09 6.94409e-16)
(0.022077 -1.3224e-09 1.25522e-15)
(0.022077 -1.55063e-09 1.06333e-15)
(0.022077 -1.76496e-09 1.1617e-15)
(0.0220771 -1.95345e-09 9.86383e-16)
(0.0220771 -2.1107e-09 6.63247e-16)
(0.0220771 -2.24787e-09 1.1977e-15)
(0.0220772 -2.37669e-09 9.74041e-16)
(0.0220772 -2.49426e-09 1.06457e-15)
(0.0220772 -2.5898e-09 8.53017e-16)
(0.0220773 -2.65353e-09 6.41594e-16)
(0.0220773 -2.69948e-09 1.14427e-15)
(0.0220774 -2.7375e-09 9.16978e-16)
(0.0220774 -2.77302e-09 1.07071e-15)
(0.0220775 -2.75587e-09 9.38856e-16)
(0.0220775 -2.71074e-09 6.90076e-16)
(0.0220775 -2.55102e-09 8.98752e-16)
(0.0220776 -2.37065e-09 9.86201e-16)
(0.0220776 -1.98378e-09 1.13335e-15)
(0.0220776 -1.48238e-09 1.11439e-15)
(0.0220777 -8.74322e-10 1.15732e-15)
(0.0220777 -8.99232e-11 1.22351e-15)
(0.0220777 2.35656e-10 1.19156e-15)
(0.0220777 3.33321e-10 1.30661e-15)
(0.0220777 2.60629e-10 1.28931e-15)
(0.0220777 -1.58297e-11 1.32574e-15)
(0.0220777 -2.25119e-10 1.35192e-15)
(0.0220777 -4.12947e-10 1.30131e-15)
(0.0220777 -5.74423e-10 1.37305e-15)
(0.0220777 -6.94165e-10 1.36444e-15)
(0.0220777 -7.73432e-10 1.7384e-15)
(0.0220777 -8.00638e-10 1.53654e-15)
(0.0220777 -7.70265e-10 1.41288e-15)
(0.0220778 -6.97304e-10 1.46765e-15)
(0.0220778 -5.86213e-10 1.44946e-15)
(0.0220778 -4.26062e-10 1.57757e-15)
(0.0220778 -2.1618e-10 1.53988e-15)
(0.0220778 2.11495e-11 1.48103e-15)
(0.0220778 2.6151e-10 1.54478e-15)
(0.0220778 5.0028e-10 1.53437e-15)
(0.0220777 7.31011e-10 1.71958e-15)
(0.0220777 9.36241e-10 1.66358e-15)
(0.0220777 1.10628e-09 1.59759e-15)
(0.0220777 1.23915e-09 1.61951e-15)
(0.0220777 1.34458e-09 1.59026e-15)
(0.0220777 1.44173e-09 1.80364e-15)
(0.0220776 1.52281e-09 1.64405e-15)
(0.0220776 1.56276e-09 1.57905e-15)
(0.0220776 1.5636e-09 1.63213e-15)
(0.0220776 1.54213e-09 1.61491e-15)
(0.0220775 1.50915e-09 1.9768e-15)
(0.0220775 1.47534e-09 1.7133e-15)
(0.0220775 1.43571e-09 1.58356e-15)
(0.0220775 1.37529e-09 1.63746e-15)
(0.0220774 1.2965e-09 1.61905e-15)
(0.0220774 1.20742e-09 1.91917e-15)
(0.0220774 1.11125e-09 1.57474e-15)
(0.0220774 1.01869e-09 1.69351e-15)
(0.0220774 9.37733e-10 1.66505e-15)
(0.0220773 8.66172e-10 1.36915e-15)
(0.0220773 7.69019e-10 1.80197e-15)
(0.0220773 6.44835e-10 1.43658e-15)
(0.0220773 4.67854e-10 1.8295e-15)
(0.0220773 3.11986e-10 1.60049e-15)
(0.0220773 2.14303e-10 1.33745e-15)
(0.0220773 1.51996e-10 1.42354e-15)
(0.0220773 1.38343e-10 1.25656e-15)
(0.0220773 1.1292e-10 1.83922e-15)
(0.0220773 8.07086e-11 1.52889e-15)
(0.0220773 4.37372e-11 1.27808e-15)
(0.0220773 -1.76594e-11 1.44545e-15)
(0.0220773 -9.5479e-11 1.28944e-15)
(0.0220773 -1.94907e-10 1.64651e-15)
(0.0220773 -2.85719e-10 1.5189e-15)
(0.0220773 -3.85323e-10 1.27862e-15)
(0.0220773 -3.98324e-10 1.71864e-15)
(0.0220773 -4.25086e-10 1.34907e-15)
(0.0220773 -2.81698e-10 1.59027e-15)
(0.0220773 -7.3922e-11 1.61195e-15)
(0.0220773 2.47218e-10 1.35784e-15)
(0.0220773 6.92433e-10 1.72619e-15)
(0.0220773 7.93411e-10 1.32337e-15)
(0.0220773 6.88504e-10 1.56506e-15)
(0.0220773 4.10143e-10 1.54472e-15)
(0.0220773 3.45201e-11 1.30999e-15)
(0.0220773 -3.56248e-10 1.76807e-15)
(0.0220773 -7.20351e-10 1.38982e-15)
(0.0220773 -1.02213e-09 1.24582e-15)
(0.0220773 -1.26875e-09 1.50376e-15)
(0.0220774 -1.42297e-09 1.35137e-15)
(0.0220774 -1.5205e-09 1.63577e-15)
(0.0220774 -1.51137e-09 1.397e-15)
(0.0220774 -1.22336e-09 1.25533e-15)
(0.0220774 -1.38508e-09 1.49532e-15)
(0.0220775 -4.96589e-10 1.34083e-15)
(0.0220775 8.4098e-10 1.61903e-15)
(0.0311628 -4.10079e-09 2.24401e-15)
(0.0311629 -9.11783e-09 2.10561e-15)
(0.031163 -9.03719e-09 2.13861e-15)
(0.031163 -5.19686e-09 1.56311e-15)
(0.031163 -4.4037e-10 1.53322e-15)
(0.031163 3.70008e-09 1.75711e-15)
(0.0311629 6.72737e-09 1.64915e-15)
(0.0311629 8.64999e-09 1.85543e-15)
(0.0311627 9.63106e-09 1.92803e-15)
(0.0311626 9.88447e-09 1.78648e-15)
(0.0311625 9.62066e-09 1.95525e-15)
(0.0311624 8.99696e-09 1.79844e-15)
(0.0311623 8.13872e-09 1.866e-15)
(0.0311623 7.15669e-09 1.6797e-15)
(0.0311622 6.13505e-09 1.33748e-15)
(0.0311621 5.11314e-09 1.96561e-15)
(0.0311621 4.09867e-09 1.71215e-15)
(0.031162 3.11836e-09 1.75781e-15)
(0.031162 2.19547e-09 1.52531e-15)
(0.031162 1.31656e-09 1.16751e-15)
(0.031162 4.75571e-10 1.71054e-15)
(0.031162 -3.12666e-10 1.45686e-15)
(0.031162 -1.03045e-09 1.62961e-15)
(0.031162 -1.65978e-09 1.47605e-15)
(0.031162 -2.20494e-09 1.08118e-15)
(0.0311621 -2.69422e-09 1.89921e-15)
(0.0311621 -3.15096e-09 1.56027e-15)
(0.0311621 -3.57735e-09 1.64976e-15)
(0.0311622 -3.95415e-09 1.2713e-15)
(0.0311622 -4.27095e-09 1.01785e-15)
(0.0311623 -4.5455e-09 1.65683e-15)
(0.0311623 -4.7989e-09 1.44264e-15)
(0.0311624 -5.0285e-09 1.52449e-15)
(0.0311624 -5.21569e-09 1.27762e-15)
(0.0311625 -5.34428e-09 9.36125e-16)
(0.0311625 -5.43656e-09 1.79309e-15)
(0.0311626 -5.51309e-09 1.40575e-15)
(0.0311627 -5.57933e-09 1.51268e-15)
(0.0311627 -5.55533e-09 1.19894e-15)
(0.0311628 -5.46935e-09 8.81296e-16)
(0.0311628 -5.18538e-09 1.31446e-15)
(0.0311629 -4.84078e-09 1.30669e-15)
(0.0311629 -4.13226e-09 1.62348e-15)
(0.031163 -3.19982e-09 1.58529e-15)
(0.031163 -2.04909e-09 1.6511e-15)
(0.031163 -5.94802e-10 1.73346e-15)
(0.031163 1.11639e-10 1.59174e-15)
(0.031163 3.74859e-10 1.86002e-15)
(0.031163 2.96311e-10 1.80532e-15)
(0.031163 -1.57543e-10 1.88149e-15)
(0.0311631 -5.35775e-10 1.91924e-15)
(0.0311631 -8.75942e-10 1.71987e-15)
(0.0311631 -1.16686e-09 1.94021e-15)
(0.0311631 -1.38171e-09 1.83366e-15)
(0.0311631 -1.51782e-09 2.16711e-15)
(0.0311631 -1.55292e-09 2.13744e-15)
(0.0311631 -1.47589e-09 1.87535e-15)
(0.0311632 -1.31199e-09 2.07819e-15)
(0.0311632 -1.07119e-09 1.93991e-15)
(0.0311632 -7.36723e-10 2.1941e-15)
(0.0311632 -3.08564e-10 2.17474e-15)
(0.0311632 1.71649e-10 1.97237e-15)
(0.0311632 6.57226e-10 2.18234e-15)
(0.0311632 1.13586e-09 2.06273e-15)
(0.0311631 1.59413e-09 2.38132e-15)
(0.0311631 2.00109e-09 2.33161e-15)
(0.0311631 2.33849e-09 2.15079e-15)
(0.0311631 2.60265e-09 2.30611e-15)
(0.031163 2.81134e-09 2.12936e-15)
(0.031163 2.99807e-09 2.2723e-15)
(0.031163 3.15067e-09 2.31833e-15)
(0.0311629 3.22633e-09 2.12512e-15)
(0.0311629 3.22716e-09 2.31139e-15)
(0.0311628 3.18206e-09 2.18483e-15)
(0.0311628 3.11247e-09 2.48834e-15)
(0.0311628 3.03895e-09 2.40583e-15)
(0.0311627 2.95433e-09 2.12574e-15)
(0.0311627 2.83208e-09 2.31775e-15)
(0.0311627 2.67473e-09 2.18677e-15)
(0.0311627 2.49695e-09 2.43483e-15)
(0.0311626 2.30664e-09 2.30695e-15)
(0.0311626 2.12211e-09 2.41421e-15)
(0.0311626 1.95858e-09 2.34113e-15)
(0.0311626 1.81064e-09 2.01257e-15)
(0.0311625 1.61856e-09 2.23752e-15)
(0.0311625 1.37241e-09 2.07137e-15)
(0.0311625 1.03227e-09 2.29548e-15)
(0.0311625 7.24727e-10 2.24431e-15)
(0.0311625 5.21512e-10 1.95673e-15)
(0.0311625 3.92155e-10 1.95518e-15)
(0.0311625 3.52681e-10 1.84518e-15)
(0.0311625 3.00895e-10 2.12699e-15)
(0.0311625 2.36564e-10 2.14948e-15)
(0.0311625 1.59008e-10 1.87819e-15)
(0.0311625 3.48982e-11 1.96728e-15)
(0.0311625 -1.27543e-10 1.84864e-15)
(0.0311625 -3.32236e-10 2.08175e-15)
(0.0311625 -5.31915e-10 2.14573e-15)
(0.0311625 -7.43581e-10 1.88228e-15)
(0.0311625 -8.15621e-10 2.0867e-15)
(0.0311625 -8.93034e-10 1.93675e-15)
(0.0311625 -6.78071e-10 2.24576e-15)
(0.0311625 -3.26223e-10 2.27839e-15)
(0.0311625 2.4547e-10 1.95255e-15)
(0.0311625 1.03672e-09 2.11265e-15)
(0.0311625 1.26871e-09 1.92293e-15)
(0.0311625 1.10984e-09 2.12725e-15)
(0.0311625 6.22169e-10 2.17228e-15)
(0.0311625 -5.93751e-11 1.89038e-15)
(0.0311625 -7.86159e-10 2.22807e-15)
(0.0311625 -1.47062e-09 1.98015e-15)
(0.0311625 -2.04473e-09 1.85629e-15)
(0.0311626 -2.51375e-09 2.18294e-15)
(0.0311626 -2.81691e-09 1.96819e-15)
(0.0311626 -3.01104e-09 2.23074e-15)
(0.0311626 -2.99985e-09 2.01779e-15)
(0.0311627 -2.50123e-09 1.87424e-15)
(0.0311627 -2.76816e-09 2.17204e-15)
(0.0311627 -9.59711e-10 1.95556e-15)
(0.0311627 5.35758e-10 2.14892e-15)
(0.0402138 -9.26771e-09 2.883e-15)
(0.040214 -1.53712e-08 2.70379e-15)
(0.0402141 -1.3874e-08 2.74347e-15)
(0.0402141 -7.24737e-09 2.2149e-15)
(0.0402141 4.61329e-10 2.30776e-15)
(0.0402141 7.04779e-09 2.4241e-15)
(0.040214 1.18173e-08 2.39163e-15)
(0.0402139 1.48096e-08 2.52395e-15)
(0.0402138 1.62955e-08 2.58309e-15)
(0.0402136 1.66189e-08 2.49001e-15)
(0.0402135 1.61131e-08 2.63215e-15)
(0.0402134 1.50305e-08 2.26843e-15)
(0.0402133 1.35722e-08 2.42926e-15)
(0.0402132 1.1914e-08 2.0994e-15)
(0.0402131 1.01925e-08 2.00204e-15)
(0.040213 8.47519e-09 2.39438e-15)
(0.0402129 6.77736e-09 2.11895e-15)
(0.0402129 5.13714e-09 2.27269e-15)
(0.0402129 3.59017e-09 1.87875e-15)
(0.0402128 2.12151e-09 1.78332e-15)
(0.0402128 7.22949e-10 2.31741e-15)
(0.0402128 -5.85729e-10 2.12517e-15)
(0.0402128 -1.77777e-09 2.18038e-15)
(0.0402129 -2.82569e-09 2.22845e-15)
(0.0402129 -3.73732e-09 1.81051e-15)
(0.0402129 -4.55549e-09 2.42845e-15)
(0.040213 -5.31465e-09 2.26671e-15)
(0.040213 -6.01964e-09 2.18484e-15)
(0.0402131 -6.64486e-09 2.14152e-15)
(0.0402131 -7.17386e-09 1.70918e-15)
(0.0402132 -7.63005e-09 2.32191e-15)
(0.0402132 -8.04508e-09 2.15357e-15)
(0.0402133 -8.41821e-09 2.03968e-15)
(0.0402134 -8.72337e-09 1.96088e-15)
(0.0402134 -8.93776e-09 1.63367e-15)
(0.0402135 -9.0927e-09 2.24195e-15)
(0.0402136 -9.22044e-09 2.0748e-15)
(0.0402137 -9.32584e-09 2.02504e-15)
(0.0402137 -9.29738e-09 2.04568e-15)
(0.0402138 -9.1647e-09 1.71187e-15)
(0.0402139 -8.73946e-09 1.83317e-15)
(0.0402139 -8.19665e-09 1.96391e-15)
(0.040214 -7.11034e-09 2.18341e-15)
(0.0402141 -5.66416e-09 2.05837e-15)
(0.0402141 -3.85846e-09 2.17692e-15)
(0.0402141 -1.59815e-09 2.24531e-15)
(0.0402142 -3.71303e-10 2.30663e-15)
(0.0402142 1.63741e-10 2.47558e-15)
(0.0402142 1.36932e-10 2.27922e-15)
(0.0402142 -4.75701e-10 2.45117e-15)
(0.0402142 -1.03089e-09 2.48552e-15)
(0.0402142 -1.53834e-09 2.45193e-15)
(0.0402142 -1.97019e-09 2.55105e-15)
(0.0402142 -2.28625e-09 2.66528e-15)
(0.0402143 -2.47553e-09 2.78675e-15)
(0.0402143 -2.50134e-09 2.69878e-15)
(0.0402143 -2.34514e-09 2.6414e-15)
(0.0402143 -2.04338e-09 2.73522e-15)
(0.0402143 -1.61348e-09 2.74647e-15)
(0.0402143 -1.03425e-09 2.86576e-15)
(0.0402143 -3.08558e-10 2.78602e-15)
(0.0402143 4.9773e-10 2.77521e-15)
(0.0402143 1.31034e-09 2.86373e-15)
(0.0402143 2.10554e-09 2.92454e-15)
(0.0402143 2.86059e-09 3.06631e-15)
(0.0402142 3.52903e-09 2.96085e-15)
(0.0402142 4.08313e-09 3.07211e-15)
(0.0402142 4.51772e-09 3.0502e-15)
(0.0402141 4.85993e-09 2.9988e-15)
(0.0402141 5.15854e-09 3.02975e-15)
(0.040214 5.39678e-09 2.95991e-15)
(0.040214 5.51406e-09 2.99529e-15)
(0.040214 5.51261e-09 3.03642e-15)
(0.0402139 5.43423e-09 3.07859e-15)
(0.0402139 5.31313e-09 3.05214e-15)
(0.0402138 5.18282e-09 3.05429e-15)
(0.0402138 5.03427e-09 2.97255e-15)
(0.0402137 4.82815e-09 3.0429e-15)
(0.0402137 4.56658e-09 3.0911e-15)
(0.0402137 4.27221e-09 3.1601e-15)
(0.0402136 3.95931e-09 3.32367e-15)
(0.0402136 3.65461e-09 3.09717e-15)
(0.0402136 3.38081e-09 3.00677e-15)
(0.0402135 3.12866e-09 2.95679e-15)
(0.0402135 2.8105e-09 2.62513e-15)
(0.0402135 2.40437e-09 3.03149e-15)
(0.0402135 1.85741e-09 2.78406e-15)
(0.0402134 1.35482e-09 2.8788e-15)
(0.0402134 1.00981e-09 2.87608e-15)
(0.0402134 7.87994e-10 2.57403e-15)
(0.0402134 7.0641e-10 2.77377e-15)
(0.0402134 6.1694e-10 2.73284e-15)
(0.0402134 5.08619e-10 2.75805e-15)
(0.0402134 3.73877e-10 2.7806e-15)
(0.0402134 1.62645e-10 2.56951e-15)
(0.0402134 -1.18391e-10 2.74791e-15)
(0.0402134 -4.70744e-10 2.58171e-15)
(0.0402134 -8.28079e-10 2.7642e-15)
(0.0402134 -1.20382e-09 2.78746e-15)
(0.0402134 -1.38639e-09 2.65405e-15)
(0.0402134 -1.55864e-09 2.8573e-15)
(0.0402134 -1.30171e-09 2.77086e-15)
(0.0402135 -8.13377e-10 2.93273e-15)
(0.0402135 2.74428e-11 2.84829e-15)
(0.0402135 1.20413e-09 2.70764e-15)
(0.0402135 1.61168e-09 2.85091e-15)
(0.0402135 1.42158e-09 2.77507e-15)
(0.0402135 7.13909e-10 2.79119e-15)
(0.0402135 -3.11871e-10 2.78232e-15)
(0.0402135 -1.4314e-09 2.64471e-15)
(0.0402135 -2.4979e-09 2.85774e-15)
(0.0402135 -3.40151e-09 2.82828e-15)
(0.0402135 -4.14191e-09 2.93408e-15)
(0.0402136 -4.63407e-09 2.89094e-15)
(0.0402136 -4.95307e-09 2.66468e-15)
(0.0402137 -4.94594e-09 2.92778e-15)
(0.0402137 -4.22002e-09 2.86396e-15)
(0.0402137 -4.59518e-09 2.92011e-15)
(0.0402138 -1.52287e-09 2.8873e-15)
(0.0402137 -9.20922e-10 2.78677e-15)
(0.0488953 -1.69159e-08 3.55481e-15)
(0.0488954 -2.28125e-08 3.1152e-15)
(0.0488955 -1.86502e-08 3.33423e-15)
(0.0488956 -8.59382e-09 3.13042e-15)
(0.0488956 2.39445e-09 3.09656e-15)
(0.0488955 1.16235e-08 3.11327e-15)
(0.0488954 1.8257e-08 3.11244e-15)
(0.0488953 2.23783e-08 3.19728e-15)
(0.0488951 2.43732e-08 3.19743e-15)
(0.048895 2.4726e-08 3.19016e-15)
(0.0488948 2.3901e-08 3.29848e-15)
(0.0488947 2.22539e-08 2.96917e-15)
(0.0488945 2.00703e-08 3.02295e-15)
(0.0488944 1.75987e-08 2.74925e-15)
(0.0488943 1.50356e-08 2.6013e-15)
(0.0488943 1.24832e-08 3.02274e-15)
(0.0488942 9.96535e-09 2.74303e-15)
(0.0488941 7.53169e-09 2.80525e-15)
(0.0488941 5.23188e-09 2.43309e-15)
(0.0488941 3.05276e-09 2.36056e-15)
(0.0488941 9.85208e-10 2.60951e-15)
(0.0488941 -9.46984e-10 2.68605e-15)
(0.0488941 -2.70788e-09 2.74872e-15)
(0.0488941 -4.26033e-09 2.65911e-15)
(0.0488941 -5.61747e-09 2.56039e-15)
(0.0488942 -6.83726e-09 2.7943e-15)
(0.0488942 -7.96349e-09 2.6088e-15)
(0.0488943 -9.00482e-09 2.65995e-15)
(0.0488943 -9.93132e-09 2.52584e-15)
(0.0488944 -1.07194e-08 2.4144e-15)
(0.0488945 -1.13965e-08 2.66386e-15)
(0.0488945 -1.2006e-08 2.52501e-15)
(0.0488946 -1.25507e-08 2.51352e-15)
(0.0488947 -1.29975e-08 2.37681e-15)
(0.0488948 -1.33178e-08 2.28537e-15)
(0.0488948 -1.35527e-08 2.59852e-15)
(0.0488949 -1.37455e-08 2.45704e-15)
(0.048895 -1.38996e-08 2.48162e-15)
(0.0488951 -1.38719e-08 2.43705e-15)
(0.0488952 -1.3693e-08 2.38333e-15)
(0.0488953 -1.31214e-08 2.3957e-15)
(0.0488954 -1.23621e-08 2.75154e-15)
(0.0488954 -1.08679e-08 2.75614e-15)
(0.0488955 -8.86078e-09 2.71364e-15)
(0.0488956 -6.33162e-09 2.75316e-15)
(0.0488956 -3.17502e-09 2.75066e-15)
(0.0488956 -1.3106e-09 3.106e-15)
(0.0488956 -3.93034e-10 3.08721e-15)
(0.0488956 -2.90108e-10 2.99936e-15)
(0.0488957 -1.01333e-09 3.04871e-15)
(0.0488957 -1.72485e-09 3.0325e-15)
(0.0488957 -2.39189e-09 3.28047e-15)
(0.0488957 -2.95845e-09 3.16059e-15)
(0.0488957 -3.36805e-09 3.50322e-15)
(0.0488957 -3.59609e-09 3.42088e-15)
(0.0488958 -3.58755e-09 3.24301e-15)
(0.0488958 -3.31553e-09 3.48817e-15)
(0.0488958 -2.82821e-09 3.38773e-15)
(0.0488958 -2.15185e-09 3.5057e-15)
(0.0488958 -1.26265e-09 3.55088e-15)
(0.0488958 -1.69574e-10 3.36011e-15)
(0.0488958 1.03288e-09 3.49661e-15)
(0.0488958 2.23943e-09 3.53275e-15)
(0.0488958 3.41281e-09 3.8221e-15)
(0.0488957 4.51885e-09 3.76531e-15)
(0.0488957 5.49471e-09 3.54436e-15)
(0.0488957 6.3038e-09 3.77129e-15)
(0.0488956 6.93994e-09 3.78453e-15)
(0.0488956 7.43995e-09 3.9304e-15)
(0.0488955 7.86734e-09 3.74038e-15)
(0.0488955 8.20002e-09 3.58639e-15)
(0.0488954 8.36149e-09 3.88106e-15)
(0.0488954 8.35553e-09 3.75279e-15)
(0.0488953 8.23602e-09 3.87309e-15)
(0.0488953 8.05124e-09 3.89658e-15)
(0.0488952 7.84976e-09 3.67795e-15)
(0.0488952 7.6209e-09 3.74861e-15)
(0.0488951 7.31185e-09 3.75492e-15)
(0.0488951 6.92492e-09 3.88982e-15)
(0.048895 6.49196e-09 3.87234e-15)
(0.048895 6.03446e-09 4.4397e-15)
(0.0488949 5.58711e-09 3.6567e-15)
(0.0488949 5.17961e-09 3.67081e-15)
(0.0488949 4.7983e-09 3.8592e-15)
(0.0488948 4.32592e-09 3.26067e-15)
(0.0488948 3.72693e-09 4.0693e-15)
(0.0488948 2.9388e-09 3.46411e-15)
(0.0488948 2.20823e-09 3.52364e-15)
(0.0488948 1.69228e-09 3.73723e-15)
(0.0488947 1.35537e-09 3.23727e-15)
(0.0488947 1.21483e-09 3.84244e-15)
(0.0488947 1.07469e-09 3.39573e-15)
(0.0488947 9.09232e-10 3.37449e-15)
(0.0488947 6.99062e-10 3.63641e-15)
(0.0488947 3.74673e-10 2.8926e-15)
(0.0488947 -5.93595e-11 3.64093e-15)
(0.0488947 -6.0135e-10 3.24326e-15)
(0.0488947 -1.16467e-09 3.3907e-15)
(0.0488947 -1.75777e-09 3.63357e-15)
(0.0488947 -2.10721e-09 3.2268e-15)
(0.0488947 -2.42547e-09 3.75229e-15)
(0.0488948 -2.17031e-09 3.56905e-15)
(0.0488948 -1.57315e-09 3.57846e-15)
(0.0488948 -4.71455e-10 3.6792e-15)
(0.0488948 1.10082e-09 3.32023e-15)
(0.0488948 1.71758e-09 3.85482e-15)
(0.0488948 1.53238e-09 3.25576e-15)
(0.0488948 6.23006e-10 3.41577e-15)
(0.0488948 -7.50359e-10 3.63394e-15)
(0.0488948 -2.28434e-09 3.26378e-15)
(0.0488948 -3.76349e-09 3.857e-15)
(0.0488949 -5.02923e-09 3.74879e-15)
(0.0488949 -6.07302e-09 3.68815e-15)
(0.0488949 -6.7859e-09 3.77071e-15)
(0.048895 -7.25492e-09 3.44072e-15)
(0.048895 -7.26128e-09 3.77517e-15)
(0.0488951 -6.31199e-09 3.81356e-15)
(0.0488951 -6.79372e-09 3.67067e-15)
(0.0488951 -2.15339e-09 3.7769e-15)
(0.0488951 -3.74281e-09 3.39478e-15)
(0.0568314 -2.59996e-08 4.23287e-15)
(0.0568315 -3.05482e-08 4.02107e-15)
(0.0568316 -2.2762e-08 3.93732e-15)
(0.0568316 -8.97452e-09 3.86464e-15)
(0.0568316 5.26458e-09 3.80461e-15)
(0.0568315 1.70447e-08 3.78096e-15)
(0.0568314 2.54757e-08 3.78795e-15)
(0.0568313 3.06872e-08 3.84042e-15)
(0.0568311 3.31674e-08 3.85442e-15)
(0.056831 3.35291e-08 3.83535e-15)
(0.0568308 3.23573e-08 3.921e-15)
(0.0568307 3.01064e-08 3.51923e-15)
(0.0568306 2.71469e-08 3.59576e-15)
(0.0568305 2.38026e-08 3.25832e-15)
(0.0568304 2.03334e-08 3.1824e-15)
(0.0568303 1.6878e-08 3.6568e-15)
(0.0568302 1.34697e-08 3.11111e-15)
(0.0568301 1.01693e-08 3.31817e-15)
(0.0568301 7.04195e-09 2.93064e-15)
(0.0568301 4.08045e-09 2.91688e-15)
(0.0568301 1.27665e-09 2.98083e-15)
(0.0568301 -1.34278e-09 3.19946e-15)
(0.0568301 -3.73232e-09 3.28111e-15)
(0.0568301 -5.84593e-09 3.00263e-15)
(0.0568301 -7.70501e-09 3.22613e-15)
(0.0568302 -9.38059e-09 3.22935e-15)
(0.0568302 -1.09219e-08 2.84552e-15)
(0.0568303 -1.23428e-08 3.08975e-15)
(0.0568303 -1.36113e-08 2.76562e-15)
(0.0568304 -1.46947e-08 3.05352e-15)
(0.0568305 -1.56239e-08 3.08384e-15)
(0.0568306 -1.6456e-08 2.84069e-15)
(0.0568306 -1.71971e-08 2.95566e-15)
(0.0568307 -1.7807e-08 2.75306e-15)
(0.0568308 -1.82528e-08 2.89115e-15)
(0.0568309 -1.85866e-08 3.00406e-15)
(0.056831 -1.8861e-08 2.67413e-15)
(0.0568311 -1.90759e-08 2.89046e-15)
(0.0568312 -1.90588e-08 2.79264e-15)
(0.0568313 -1.88427e-08 2.99895e-15)
(0.0568314 -1.81323e-08 2.94467e-15)
(0.0568314 -1.71555e-08 3.25601e-15)
(0.0568315 -1.52499e-08 3.30062e-15)
(0.0568316 -1.26725e-08 3.31722e-15)
(0.0568317 -9.39676e-09 3.26856e-15)
(0.0568317 -5.30168e-09 3.23842e-15)
(0.0568317 -2.71785e-09 3.60906e-15)
(0.0568318 -1.32243e-09 3.64369e-15)
(0.0568318 -1.00647e-09 3.59936e-15)
(0.0568318 -1.77301e-09 3.5995e-15)
(0.0568318 -2.59638e-09 3.53954e-15)
(0.0568318 -3.39355e-09 3.79937e-15)
(0.0568319 -4.07238e-09 3.72693e-15)
(0.0568319 -4.55608e-09 4.07289e-15)
(0.0568319 -4.80067e-09 4.03592e-15)
(0.0568319 -4.72943e-09 3.70482e-15)
(0.0568319 -4.3074e-09 4.03116e-15)
(0.0568319 -3.59543e-09 3.98472e-15)
(0.056832 -2.62884e-09 4.21917e-15)
(0.056832 -1.3831e-09 4.18961e-15)
(0.056832 1.23148e-10 3.84853e-15)
(0.0568319 1.76384e-09 4.19887e-15)
(0.0568319 3.40238e-09 4.13406e-15)
(0.0568319 4.98812e-09 4.42187e-15)
(0.0568319 6.47417e-09 4.40059e-15)
(0.0568318 7.78188e-09 4.05338e-15)
(0.0568318 8.86759e-09 4.5271e-15)
(0.0568317 9.72425e-09 4.37454e-15)
(0.0568317 1.03978e-08 4.54005e-15)
(0.0568316 1.09643e-08 4.45503e-15)
(0.0568316 1.13953e-08 4.11906e-15)
(0.0568315 1.1602e-08 4.48472e-15)
(0.0568315 1.15917e-08 4.37645e-15)
(0.0568314 1.14285e-08 4.62478e-15)
(0.0568314 1.11747e-08 4.57413e-15)
(0.0568313 1.08949e-08 4.19709e-15)
(0.0568312 1.05761e-08 4.48709e-15)
(0.0568312 1.01524e-08 4.4033e-15)
(0.0568311 9.62823e-09 4.66705e-15)
(0.0568311 9.04575e-09 4.53498e-15)
(0.0568311 8.43265e-09 4.95399e-15)
(0.056831 7.82976e-09 4.58976e-15)
(0.056831 7.27292e-09 4.36297e-15)
(0.0568309 6.74408e-09 4.65221e-15)
(0.0568309 6.09634e-09 4.26906e-15)
(0.0568309 5.28151e-09 4.57268e-15)