/*--------------------------------*- C++ -*----------------------------------*\
  =========                 |
  \\      /  F ield         | OpenFOAM: The Open Source CFD Toolbox
   \\    /   O peration     | Website:  https://openfoam.org
    \\  /    A nd           | Version:  7
     \\/     M anipulation  |
\*---------------------------------------------------------------------------*/
FoamFile
{
    version     2.0;
    format      ascii;
    class       volVectorField;
    location    "7000";
    object      wallShearStress;
}
// * * * * * * * * * * * * * * * * * * * * * * * * * * * * * * * * * * * * * //

dimensions      [0 2 -2 0 0 0 0];

internalField   uniform (0 0 0);

boundaryField
{
    bottomWall
    {
        type            calculated;
        value           nonuniform List<vector> 
120
(
(-6.87236e-05 -1.36948e-12 -4.90731e-18)
(-6.87237e-05 6.17647e-12 -4.66001e-18)
(-6.8724e-05 8.12553e-12 -4.72768e-18)
(-6.87244e-05 6.06399e-12 -3.6008e-18)
(-6.87245e-05 9.19756e-13 1.40221e-18)
(-6.87244e-05 -1.47717e-12 -3.36253e-18)
(-6.87244e-05 -2.27861e-12 1.12624e-18)
(-6.87242e-05 -5.48146e-12 -3.57426e-18)
(-6.87239e-05 -5.77895e-12 -4.33415e-18)
(-6.87237e-05 -5.89282e-12 4.05657e-19)
(-6.87234e-05 -7.21593e-12 -3.85816e-18)
(-6.87231e-05 -5.78255e-12 -4.03086e-18)
(-6.87229e-05 -4.29111e-12 -4.08757e-18)
(-6.87228e-05 -4.10708e-12 -3.76956e-18)
(-6.87226e-05 -3.91641e-12 -3.14636e-18)
(-6.87225e-05 -3.72192e-12 -4.00606e-18)
(-6.87223e-05 -3.51884e-12 -3.91167e-18)
(-6.87221e-05 -1.99043e-12 -3.85805e-18)
(-6.87221e-05 -4.79877e-13 -3.44219e-18)
(-6.87221e-05 -3.02814e-13 -2.70845e-18)
(-6.87221e-05 -1.25694e-13 -3.71553e-18)
(-6.87221e-05 3.97895e-14 -3.27012e-18)
(-6.87221e-05 1.89855e-13 -3.47102e-18)
(-6.87221e-05 3.17218e-13 -3.14999e-18)
(-6.87221e-05 1.75684e-12 -2.23191e-18)
(-6.87223e-05 1.85476e-12 -3.6865e-18)
(-6.87223e-05 1.95218e-12 -3.39618e-18)
(-6.87225e-05 2.04735e-12 -3.60131e-18)
(-6.87225e-05 2.1266e-12 -3.11013e-18)
(-6.87226e-05 3.52182e-12 -2.13733e-18)
(-6.87228e-05 2.24542e-12 -3.4917e-18)
(-6.87228e-05 2.30712e-12 -3.03872e-18)
(-6.87229e-05 3.69656e-12 -3.2823e-18)
(-6.87231e-05 3.74334e-12 -2.78348e-18)
(-6.87232e-05 3.76288e-12 -1.96638e-18)
(-6.87234e-05 3.78643e-12 -3.50598e-18)
(-6.87236e-05 2.45968e-12 -3.1297e-18)
(-6.87236e-05 2.49695e-12 -3.35464e-18)
(-6.87237e-05 3.78346e-12 -3.00186e-18)
(-6.87239e-05 3.78654e-12 -2.26513e-18)
(-6.8724e-05 3.62801e-12 -2.74757e-18)
(-6.87242e-05 3.56505e-12 -7.7137e-18)
(-6.87244e-05 1.94794e-12 -3.5463e-18)
(-6.87244e-05 2.85784e-13 -3.42384e-18)
(-6.87244e-05 1.3256e-12 -3.5815e-18)
(-6.87245e-05 -6.04661e-13 -3.79409e-18)
(-6.87244e-05 -1.87862e-12 -7.02456e-18)
(-6.87244e-05 -5.10656e-13 -4.1028e-18)
(-6.87244e-05 -4.02592e-13 -4.01356e-18)
(-6.87244e-05 -1.03777e-13 -4.0992e-18)
(-6.87244e-05 -6.82575e-15 -4.16863e-18)
(-6.87244e-05 1.3002e-13 -7.69569e-18)
(-6.87244e-05 2.35615e-13 -4.32936e-18)
(-6.87244e-05 1.64744e-12 -7.4304e-18)
(-6.87245e-05 1.7075e-12 -3.52041e-18)
(-6.87245e-05 4.06615e-13 -4.66447e-18)
(-6.87245e-05 4.08598e-13 -7.00033e-18)
(-6.87245e-05 1.73105e-12 -4.61901e-18)
(-6.87247e-05 1.70511e-12 -7.23743e-18)
(-6.87247e-05 3.17358e-13 -3.3846e-18)
(-6.87247e-05 2.33386e-13 -4.67043e-18)
(-6.87247e-05 1.36291e-13 -8.50647e-18)
(-6.87247e-05 4.05572e-14 -4.87687e-18)
(-6.87247e-05 -6.04916e-14 -7.49138e-18)
(-6.87247e-05 -1.64018e-13 -3.87331e-18)
(-6.87247e-05 -1.58748e-12 -5.0663e-18)
(-6.87245e-05 -1.66126e-12 -8.32133e-18)
(-6.87245e-05 -3.8443e-13 -5.06807e-18)
(-6.87245e-05 -1.76307e-12 -8.04147e-18)
(-6.87244e-05 -1.8149e-12 -3.4307e-18)
(-6.87244e-05 -1.8625e-12 -4.9971e-18)
(-6.87242e-05 -1.88035e-12 -8.34993e-18)
(-6.87242e-05 -1.87832e-12 -5.11801e-18)
(-6.8724e-05 -1.87132e-12 -8.5388e-18)
(-6.8724e-05 -1.86087e-12 -4.19732e-18)
(-6.87239e-05 -1.85453e-12 -5.15312e-18)
(-6.87239e-05 -1.84452e-12 -7.36034e-18)
(-6.87237e-05 -1.81775e-12 -5.14615e-18)
(-6.87237e-05 -1.78181e-12 -8.56095e-18)
(-6.87236e-05 -1.74355e-12 -3.82606e-18)
(-6.87236e-05 -3.64359e-13 -3.71245e-19)
(-6.87236e-05 -1.65891e-12 -3.49541e-18)
(-6.87234e-05 -1.62447e-12 -5.06056e-18)
(-6.87234e-05 -2.72841e-13 -3.52032e-19)
(-6.87234e-05 -2.18897e-13 -3.94547e-18)
(-6.87234e-05 -1.68195e-13 -8.24363e-19)
(-6.87234e-05 -1.39615e-12 -3.93326e-18)
(-6.87232e-05 -1.32685e-12 -4.86215e-18)
(-6.87232e-05 2.63307e-14 -1.25331e-18)
(-6.87232e-05 5.38756e-14 -2.75593e-18)
(-6.87232e-05 3.11752e-14 -1.16874e-18)
(-6.87232e-05 4.90475e-14 -3.07212e-18)
(-6.87232e-05 6.43012e-14 -4.65075e-18)
(-6.87232e-05 7.13823e-14 -9.34372e-21)
(-6.87232e-05 1.0559e-13 -3.08889e-18)
(-6.87232e-05 1.21818e-13 3.6277e-19)
(-6.87232e-05 1.50675e-12 -2.97213e-18)
(-6.87234e-05 1.5007e-12 -4.64599e-18)
(-6.87234e-05 2.26711e-13 4.51958e-20)
(-6.87234e-05 1.26519e-13 -3.79777e-18)
(-6.87234e-05 1.51828e-13 -6.45438e-19)
(-6.87234e-05 -4.52852e-14 -3.33952e-18)
(-6.87234e-05 -2.15555e-13 -4.89795e-18)
(-6.87234e-05 -4.20589e-13 -1.04858e-18)
(-6.87234e-05 -2.14955e-12 -3.63647e-18)
(-6.87232e-05 -2.05762e-12 -5.83047e-19)
(-6.87232e-05 -6.29145e-13 -3.69929e-18)
(-6.87232e-05 -3.99922e-13 -4.74385e-18)
(-6.87232e-05 -1.44974e-13 -1.97747e-18)
(-6.87232e-05 8.79076e-14 -3.55441e-18)
(-6.87232e-05 3.00264e-13 -2.03331e-18)
(-6.87232e-05 1.78985e-12 -2.83529e-19)
(-6.87234e-05 1.9284e-12 -4.55665e-18)
(-6.87234e-05 1.99256e-12 -3.75263e-19)
(-6.87236e-05 2.02236e-12 -3.7865e-18)
(-6.87236e-05 2.03188e-12 -1.56106e-18)
(-6.87237e-05 1.75252e-12 -4.06673e-19)
(-6.87237e-05 5.3676e-13 -4.52835e-18)
(-6.87237e-05 4.5392e-13 -1.87622e-18)
(-6.87237e-05 -3.38342e-12 -4.02496e-18)
)
;
    }
    topWall
    {
        type            calculated;
        value           nonuniform List<vector> 
120
(
(-6.89157e-05 1.86502e-12 -4.87515e-18)
(-6.89159e-05 -4.21403e-12 -1.04733e-18)
(-6.8916e-05 -4.52403e-12 -1.7532e-18)
(-6.89162e-05 -9.77695e-13 -3.3292e-18)
(-6.8916e-05 1.50958e-12 -9.69741e-19)
(-6.8916e-05 3.86216e-12 -2.87776e-18)
(-6.89157e-05 7.27575e-12 -3.07282e-19)
(-6.89154e-05 7.74124e-12 -4.91091e-18)
(-6.89151e-05 7.97704e-12 -3.03189e-18)
(-6.89148e-05 9.38455e-12 -7.57606e-19)
(-6.89143e-05 9.33061e-12 -4.78278e-18)
(-6.8914e-05 7.85567e-12 -1.71147e-18)
(-6.89137e-05 6.34484e-12 -5.54206e-18)
(-6.89135e-05 6.15193e-12 -2.28464e-18)
(-6.89132e-05 7.28648e-12 -6.48062e-18)
(-6.89129e-05 5.74559e-12 -6.33625e-18)
(-6.89127e-05 4.21178e-12 -2.54891e-18)
(-6.89126e-05 4.00099e-12 -6.1489e-18)
(-6.89124e-05 3.81506e-12 -2.69984e-18)
(-6.89123e-05 3.63895e-12 -6.70045e-18)
(-6.89121e-05 2.15605e-12 -4.54692e-18)
(-6.89121e-05 1.99884e-12 -6.43607e-18)
(-6.8912e-05 1.87832e-12 3.84635e-19)
(-6.8912e-05 4.15239e-13 -2.88558e-18)
(-6.8912e-05 1.62309e-12 -5.44338e-18)
(-6.89118e-05 1.57799e-12 -3.39336e-18)
(-6.89118e-05 1.6746e-13 -3.2681e-18)
(-6.89118e-05 1.08552e-13 6.23441e-19)
(-6.89118e-05 4.60237e-14 -2.71942e-18)
(-6.89118e-05 -1.66969e-14 -5.01189e-18)
(-6.89118e-05 -6.54131e-14 -3.3121e-18)
(-6.89118e-05 -1.12506e-13 -3.30653e-18)
(-6.89118e-05 -1.66649e-13 7.70467e-19)
(-6.89118e-05 -1.54386e-12 -2.70631e-18)
(-6.8912e-05 -1.57111e-12 -5.03522e-18)
(-6.8912e-05 -2.62533e-13 -3.38815e-18)
(-6.8912e-05 -2.92591e-13 -3.40416e-18)
(-6.8912e-05 -1.66375e-12 2.64331e-18)
(-6.89121e-05 -1.70991e-12 -2.73815e-18)
(-6.89121e-05 -4.22243e-13 -5.14207e-18)
(-6.89121e-05 -1.78525e-12 1.31185e-18)
(-6.89123e-05 -1.80691e-12 -3.64738e-18)
(-6.89123e-05 -1.83738e-12 2.29205e-18)
(-6.89124e-05 -1.87317e-12 -5.82882e-18)
(-6.89124e-05 -1.90823e-12 -2.45095e-19)
(-6.89126e-05 -1.93606e-12 2.14237e-18)
(-6.89126e-05 -1.94875e-12 -3.6899e-18)
(-6.89127e-05 -1.95424e-12 2.02777e-18)
(-6.89127e-05 -1.9714e-12 -5.63825e-18)
(-6.89129e-05 -1.99031e-12 1.13064e-18)
(-6.89129e-05 -1.98872e-12 1.12053e-18)
(-6.89131e-05 -1.97506e-12 -3.60595e-18)
(-6.89131e-05 -1.96455e-12 2.4845e-18)
(-6.89132e-05 -1.95567e-12 -2.87991e-18)
(-6.89132e-05 -1.94797e-12 2.99432e-18)
(-6.89134e-05 -1.94119e-12 3.81043e-18)
(-6.89134e-05 -1.92761e-12 -2.85622e-18)
(-6.89135e-05 -1.90693e-12 2.16107e-18)
(-6.89135e-05 -1.87942e-12 -2.84324e-18)
(-6.89137e-05 -1.84659e-12 2.8032e-18)
(-6.89137e-05 -4.94088e-13 3.38912e-18)
(-6.89137e-05 -1.82313e-12 -2.80901e-18)
(-6.89138e-05 -1.81558e-12 2.42274e-18)
(-6.89138e-05 -1.80398e-12 -4.29223e-18)
(-6.8914e-05 -1.78863e-12 2.04122e-18)
(-6.8914e-05 -4.32054e-13 3.65548e-18)
(-6.8914e-05 -1.74407e-12 -3.06002e-18)
(-6.89142e-05 -1.7327e-12 1.55077e-18)
(-6.89142e-05 -3.9342e-13 -2.91263e-18)
(-6.89142e-05 -1.72143e-12 2.95354e-18)
(-6.89143e-05 -1.71031e-12 3.78754e-18)
(-6.89143e-05 -3.61589e-13 -3.37228e-18)
(-6.89143e-05 -1.68412e-12 2.79498e-18)
(-6.89145e-05 -1.67294e-12 -2.87818e-18)
(-6.89145e-05 -3.22046e-13 3.55901e-18)
(-6.89145e-05 -3.05453e-13 4.37955e-18)
(-6.89145e-05 -1.62863e-12 -2.63592e-18)
(-6.89146e-05 -1.62598e-12 3.59734e-18)
(-6.89146e-05 -2.9171e-13 -2.81798e-18)
(-6.89146e-05 -2.85775e-13 2.43882e-18)
(-6.89146e-05 -1.61585e-12 -1.92882e-18)
(-6.89148e-05 -1.61699e-12 1.95523e-18)
(-6.89148e-05 -2.84835e-13 -1.8253e-18)
(-6.89148e-05 -2.89805e-13 -2.976e-18)
(-6.89148e-05 -1.633e-12 2.67195e-18)
(-6.89149e-05 -1.6393e-12 -2.10977e-18)
(-6.89149e-05 -3.06125e-13 1.96173e-18)
(-6.89149e-05 -3.03561e-13 -1.74681e-18)
(-6.89149e-05 -1.63359e-12 -2.97872e-18)
(-6.89151e-05 -1.62941e-12 2.02082e-18)
(-6.89151e-05 -2.91025e-13 -2.33804e-18)
(-6.89151e-05 -2.85518e-13 1.36736e-18)
(-6.89151e-05 -1.62112e-12 -2.12364e-18)
(-6.89153e-05 -1.6238e-12 -3.20656e-18)
(-6.89153e-05 -2.99469e-13 9.90225e-19)
(-6.89153e-05 -2.97361e-13 -2.78245e-18)
(-6.89153e-05 -1.63186e-12 9.92061e-19)
(-6.89154e-05 -1.58612e-12 -2.25635e-18)
(-6.89154e-05 -2.58999e-13 -3.53952e-18)
(-6.89154e-05 -1.95138e-13 1.22281e-18)
(-6.89154e-05 -2.09118e-13 -2.6884e-18)
(-6.89154e-05 -1.66264e-12 1.21792e-18)
(-6.89156e-05 -1.65183e-12 -2.43321e-18)
(-6.89156e-05 -3.27585e-13 -3.56418e-18)
(-6.89156e-05 -3.37569e-13 3.01109e-18)
(-6.89156e-05 -1.70172e-12 -2.66309e-18)
(-6.89157e-05 -1.73228e-12 1.54972e-18)
(-6.89157e-05 -4.26356e-13 -2.38123e-18)
(-6.89157e-05 -1.79431e-12 -3.52404e-18)
(-6.89159e-05 -1.8116e-12 1.05014e-18)
(-6.89159e-05 -4.9638e-13 -2.79548e-18)
(-6.89159e-05 -1.82354e-12 -3.92731e-18)
(-6.8916e-05 -1.82658e-12 -3.95278e-18)
(-6.8916e-05 -4.24416e-13 -4.2715e-18)
(-6.8916e-05 -3.4033e-13 1.11215e-18)
(-6.8916e-05 -2.23798e-13 -2.88941e-18)
(-6.8916e-05 1.43859e-13 -4.03714e-18)
(-6.8916e-05 8.23083e-14 -3.99946e-18)
(-6.8916e-05 1.69429e-12 -4.21627e-18)
(-6.89159e-05 5.4687e-12 2.37685e-18)
)
;
    }
    sides1_half0
    {
        type            cyclic;
    }
    sides1_half1
    {
        type            cyclic;
    }
    sides2_half0
    {
        type            cyclic;
    }
    sides2_half1
    {
        type            cyclic;
    }
    inout1_half0
    {
        type            cyclic;
    }
    inout1_half1
    {
        type            cyclic;
    }
    inout2_half0
    {
        type            cyclic;
    }
    inout2_half1
    {
        type            cyclic;
    }
}


// ************************************************************************* //
