/*--------------------------------*- C++ -*----------------------------------*\
  =========                 |
  \\      /  F ield         | OpenFOAM: The Open Source CFD Toolbox
   \\    /   O peration     | Website:  https://openfoam.org
    \\  /    A nd           | Version:  7
     \\/     M anipulation  |
\*---------------------------------------------------------------------------*/
FoamFile
{
    version     2.0;
    format      ascii;
    class       volScalarField;
    location    "3500";
    object      omega;
}
// * * * * * * * * * * * * * * * * * * * * * * * * * * * * * * * * * * * * * //

dimensions      [0 0 -1 0 0 0 0];

internalField   nonuniform List<scalar> 
4000
(
0.0259948
0.0259897
0.02599
0.0259914
0.0259928
0.0259943
0.0259957
0.025997
0.0259983
0.0259996
0.0260008
0.0260021
0.0260033
0.0260046
0.0260058
0.026007
0.0260081
0.0260093
0.0260103
0.0260114
0.0260124
0.0260133
0.0260143
0.0260151
0.026016
0.0260168
0.0260176
0.0260184
0.0260191
0.0260198
0.0260205
0.0260212
0.0260218
0.0260225
0.0260231
0.0260237
0.0260242
0.0260248
0.0260253
0.0260258
0.0260263
0.0260268
0.0260273
0.0260278
0.0260274
0.0260188
0.0260137
0.0260119
0.0260117
0.0260119
0.0260123
0.0260128
0.0260133
0.0260138
0.0260144
0.0260149
0.0260154
0.026016
0.0260166
0.0260171
0.0260177
0.0260182
0.0260188
0.0260193
0.0260198
0.0260204
0.0260209
0.0260214
0.0260219
0.0260223
0.0260228
0.0260233
0.0260238
0.0260242
0.0260247
0.0260252
0.0260256
0.0260261
0.0260266
0.026027
0.0260275
0.026028
0.0260284
0.0260289
0.0260294
0.0260298
0.0260303
0.0260308
0.0260313
0.0260318
0.0260323
0.0260327
0.0260332
0.0260337
0.0260342
0.0260347
0.0260352
0.0260357
0.0260362
0.0260367
0.0260372
0.0260377
0.0260383
0.0260379
0.0260294
0.0260244
0.0260228
0.0260226
0.026023
0.0260236
0.0260242
0.0260249
0.0260256
0.0260263
0.026027
0.0260278
0.0260285
0.0260293
0.0260301
0.0260261
0.0261144
0.026109
0.0261089
0.0261099
0.0261111
0.0261124
0.0261136
0.0261148
0.026116
0.0261172
0.0261184
0.0261195
0.0261207
0.0261219
0.026123
0.0261242
0.0261253
0.0261263
0.0261274
0.0261284
0.0261293
0.0261303
0.0261311
0.026132
0.0261328
0.0261336
0.0261344
0.0261351
0.0261358
0.0261365
0.0261372
0.0261378
0.0261384
0.026139
0.0261396
0.0261402
0.0261407
0.0261413
0.0261418
0.0261423
0.0261427
0.0261432
0.0261436
0.0261441
0.0261443
0.0261417
0.0261386
0.0261363
0.0261349
0.0261343
0.026134
0.0261339
0.026134
0.0261342
0.0261344
0.0261347
0.026135
0.0261354
0.0261358
0.0261361
0.0261366
0.026137
0.0261374
0.0261378
0.0261382
0.0261386
0.026139
0.0261394
0.0261398
0.0261402
0.0261406
0.026141
0.0261414
0.0261418
0.0261422
0.0261426
0.026143
0.0261434
0.0261439
0.0261443
0.0261447
0.0261451
0.0261455
0.0261459
0.0261464
0.0261468
0.0261472
0.0261477
0.0261481
0.0261486
0.026149
0.0261495
0.0261499
0.0261504
0.0261508
0.0261513
0.0261517
0.0261522
0.0261527
0.0261532
0.0261536
0.0261541
0.0261546
0.0261549
0.0261524
0.0261493
0.0261471
0.0261459
0.0261454
0.0261453
0.0261454
0.0261456
0.0261459
0.0261464
0.0261468
0.0261473
0.0261479
0.0261485
0.0261492
0.0261453
0.0263265
0.026321
0.0263207
0.0263215
0.0263225
0.0263236
0.0263247
0.0263258
0.0263269
0.026328
0.0263291
0.0263302
0.0263313
0.0263324
0.0263335
0.0263345
0.0263356
0.0263366
0.0263376
0.0263386
0.0263395
0.0263404
0.0263412
0.0263421
0.0263428
0.0263436
0.0263443
0.026345
0.0263457
0.0263464
0.026347
0.0263476
0.0263482
0.0263488
0.0263494
0.0263499
0.0263504
0.0263509
0.0263514
0.0263519
0.0263523
0.0263528
0.0263532
0.0263536
0.026354
0.0263534
0.026352
0.0263505
0.0263493
0.0263484
0.0263479
0.0263475
0.0263473
0.0263472
0.0263473
0.0263473
0.0263475
0.0263477
0.0263479
0.0263481
0.0263484
0.0263487
0.026349
0.0263493
0.0263496
0.02635
0.0263503
0.0263506
0.0263509
0.0263513
0.0263516
0.0263519
0.0263523
0.0263526
0.026353
0.0263533
0.0263537
0.026354
0.0263544
0.0263548
0.0263551
0.0263555
0.0263559
0.0263563
0.0263567
0.0263571
0.0263575
0.0263579
0.0263583
0.0263587
0.0263591
0.0263595
0.0263599
0.0263604
0.0263608
0.0263612
0.0263617
0.0263621
0.0263626
0.026363
0.0263635
0.0263639
0.0263644
0.0263648
0.0263643
0.026363
0.0263616
0.0263605
0.0263598
0.0263593
0.0263592
0.0263591
0.0263592
0.0263594
0.0263597
0.02636
0.0263604
0.0263609
0.0263614
0.0263576
0.026629
0.0266234
0.0266231
0.0266237
0.0266247
0.0266256
0.0266266
0.0266276
0.0266286
0.0266296
0.0266306
0.0266316
0.0266326
0.0266337
0.0266347
0.0266357
0.0266367
0.0266377
0.0266387
0.0266396
0.0266405
0.0266413
0.0266421
0.0266429
0.0266437
0.0266444
0.0266451
0.0266458
0.0266465
0.0266471
0.0266477
0.0266483
0.0266489
0.0266494
0.02665
0.0266505
0.026651
0.0266515
0.0266519
0.0266524
0.0266528
0.0266532
0.0266536
0.026654
0.0266544
0.0266544
0.026654
0.0266533
0.0266526
0.0266519
0.0266513
0.0266509
0.0266506
0.0266504
0.0266503
0.0266503
0.0266503
0.0266504
0.0266505
0.0266507
0.0266508
0.026651
0.0266513
0.0266515
0.0266517
0.026652
0.0266522
0.0266525
0.0266528
0.026653
0.0266533
0.0266536
0.0266539
0.0266542
0.0266545
0.0266548
0.0266551
0.0266554
0.0266558
0.0266561
0.0266564
0.0266568
0.0266571
0.0266575
0.0266578
0.0266582
0.0266586
0.026659
0.0266593
0.0266597
0.0266601
0.0266605
0.0266609
0.0266613
0.0266617
0.0266622
0.0266626
0.026663
0.0266634
0.0266639
0.0266643
0.0266647
0.0266652
0.0266656
0.0266657
0.0266654
0.0266649
0.0266642
0.0266637
0.0266633
0.026663
0.0266629
0.0266629
0.026663
0.0266631
0.0266634
0.0266637
0.026664
0.0266645
0.0266605
0.0270205
0.0270148
0.0270143
0.0270149
0.0270158
0.0270167
0.0270176
0.0270185
0.0270194
0.0270203
0.0270213
0.0270222
0.0270232
0.0270242
0.0270252
0.0270261
0.0270271
0.027028
0.027029
0.0270298
0.0270307
0.0270315
0.0270323
0.027033
0.0270338
0.0270345
0.0270351
0.0270358
0.0270364
0.027037
0.0270376
0.0270382
0.0270387
0.0270393
0.0270398
0.0270403
0.0270408
0.0270412
0.0270417
0.0270421
0.0270425
0.0270429
0.0270433
0.0270437
0.027044
0.0270443
0.0270443
0.0270441
0.0270438
0.0270434
0.027043
0.0270427
0.0270424
0.0270422
0.0270421
0.027042
0.027042
0.027042
0.027042
0.0270421
0.0270422
0.0270424
0.0270425
0.0270427
0.0270429
0.0270431
0.0270433
0.0270435
0.0270437
0.027044
0.0270442
0.0270444
0.0270447
0.027045
0.0270452
0.0270455
0.0270458
0.0270461
0.0270464
0.0270467
0.027047
0.0270473
0.0270477
0.027048
0.0270484
0.0270487
0.0270491
0.0270494
0.0270498
0.0270502
0.0270506
0.0270509
0.0270513
0.0270517
0.0270521
0.0270525
0.0270529
0.0270533
0.0270538
0.0270542
0.0270546
0.027055
0.0270555
0.0270559
0.0270562
0.0270564
0.0270563
0.0270561
0.0270559
0.0270556
0.0270555
0.0270554
0.0270554
0.0270554
0.0270556
0.0270557
0.0270559
0.0270562
0.0270566
0.0270526
0.0275003
0.0274944
0.0274938
0.0274944
0.0274952
0.0274961
0.0274969
0.0274978
0.0274986
0.0274995
0.0275004
0.0275013
0.0275022
0.0275031
0.0275041
0.027505
0.027506
0.0275069
0.0275077
0.0275086
0.0275094
0.0275102
0.0275109
0.0275117
0.0275124
0.027513
0.0275137
0.0275143
0.0275149
0.0275155
0.0275161
0.0275166
0.0275171
0.0275177
0.0275181
0.0275186
0.0275191
0.0275195
0.0275199
0.0275204
0.0275208
0.0275211
0.0275215
0.0275219
0.0275222
0.0275225
0.0275227
0.0275228
0.0275227
0.0275226
0.0275224
0.0275222
0.027522
0.0275219
0.0275218
0.0275217
0.0275217
0.0275217
0.0275217
0.0275218
0.0275218
0.0275219
0.0275221
0.0275222
0.0275224
0.0275225
0.0275227
0.0275229
0.0275231
0.0275233
0.0275235
0.0275238
0.027524
0.0275242
0.0275245
0.0275248
0.027525
0.0275253
0.0275256
0.0275259
0.0275262
0.0275265
0.0275268
0.0275272
0.0275275
0.0275278
0.0275282
0.0275285
0.0275289
0.0275293
0.0275296
0.02753
0.0275304
0.0275308
0.0275312
0.0275316
0.027532
0.0275324
0.0275328
0.0275332
0.0275337
0.0275341
0.0275345
0.027535
0.0275354
0.0275357
0.0275359
0.027536
0.027536
0.027536
0.027536
0.027536
0.027536
0.0275361
0.0275362
0.0275364
0.0275366
0.0275369
0.0275373
0.0275332
0.0280685
0.0280624
0.0280618
0.0280623
0.0280631
0.0280639
0.0280647
0.0280655
0.0280663
0.0280671
0.028068
0.0280689
0.0280698
0.0280707
0.0280716
0.0280725
0.0280734
0.0280742
0.0280751
0.0280759
0.0280767
0.0280774
0.0280782
0.0280789
0.0280795
0.0280802
0.0280808
0.0280814
0.028082
0.0280825
0.0280831
0.0280836
0.0280841
0.0280846
0.0280851
0.0280855
0.028086
0.0280864
0.0280868
0.0280872
0.0280876
0.0280879
0.0280883
0.0280886
0.028089
0.0280893
0.0280895
0.0280897
0.0280898
0.0280899
0.0280899
0.0280898
0.0280898
0.0280897
0.0280896
0.0280896
0.0280896
0.0280896
0.0280897
0.0280897
0.0280898
0.0280899
0.02809
0.0280901
0.0280903
0.0280904
0.0280906
0.0280908
0.028091
0.0280912
0.0280914
0.0280916
0.0280918
0.0280921
0.0280923
0.0280926
0.0280929
0.0280931
0.0280934
0.0280937
0.028094
0.0280943
0.0280947
0.028095
0.0280953
0.0280957
0.028096
0.0280964
0.0280967
0.0280971
0.0280975
0.0280979
0.0280983
0.0280987
0.0280991
0.0280995
0.0280999
0.0281003
0.0281007
0.0281011
0.0281016
0.028102
0.0281024
0.0281029
0.0281033
0.0281037
0.028104
0.0281043
0.0281045
0.0281046
0.0281048
0.0281049
0.0281051
0.0281052
0.0281054
0.0281056
0.0281058
0.028106
0.0281065
0.0281024
0.0287261
0.0287196
0.028719
0.0287195
0.0287202
0.028721
0.0287218
0.0287226
0.0287233
0.0287241
0.0287249
0.0287258
0.0287266
0.0287275
0.0287284
0.0287293
0.0287301
0.028731
0.0287318
0.0287326
0.0287333
0.028734
0.0287347
0.0287354
0.0287361
0.0287367
0.0287373
0.0287379
0.0287384
0.028739
0.0287395
0.02874
0.0287405
0.0287409
0.0287414
0.0287418
0.0287422
0.0287427
0.028743
0.0287434
0.0287438
0.0287441
0.0287445
0.0287448
0.0287451
0.0287454
0.0287457
0.028746
0.0287462
0.0287463
0.0287464
0.0287465
0.0287465
0.0287465
0.0287466
0.0287466
0.0287466
0.0287467
0.0287468
0.0287468
0.0287469
0.028747
0.0287472
0.0287473
0.0287475
0.0287476
0.0287478
0.028748
0.0287482
0.0287484
0.0287486
0.0287488
0.0287491
0.0287493
0.0287496
0.0287499
0.0287501
0.0287504
0.0287507
0.028751
0.0287514
0.0287517
0.028752
0.0287523
0.0287527
0.0287531
0.0287534
0.0287538
0.0287542
0.0287545
0.0287549
0.0287553
0.0287557
0.0287561
0.0287565
0.028757
0.0287574
0.0287578
0.0287582
0.0287587
0.0287591
0.0287595
0.02876
0.0287604
0.0287609
0.0287613
0.0287617
0.0287621
0.0287624
0.0287627
0.0287629
0.0287632
0.0287634
0.0287636
0.0287639
0.0287641
0.0287644
0.0287647
0.0287651
0.0287611
0.0294745
0.0294678
0.029467
0.0294675
0.0294682
0.0294689
0.0294697
0.0294705
0.0294712
0.029472
0.0294728
0.0294736
0.0294744
0.0294753
0.0294761
0.029477
0.0294778
0.0294786
0.0294794
0.0294801
0.0294808
0.0294815
0.0294822
0.0294829
0.0294835
0.0294841
0.0294847
0.0294852
0.0294857
0.0294863
0.0294868
0.0294872
0.0294877
0.0294882
0.0294886
0.029489
0.0294894
0.0294898
0.0294902
0.0294905
0.0294909
0.0294912
0.0294916
0.0294919
0.0294922
0.0294925
0.0294928
0.0294931
0.0294933
0.0294935
0.0294937
0.0294939
0.029494
0.0294941
0.0294942
0.0294943
0.0294944
0.0294945
0.0294946
0.0294947
0.0294949
0.029495
0.0294951
0.0294953
0.0294955
0.0294957
0.0294959
0.0294961
0.0294963
0.0294965
0.0294968
0.029497
0.0294973
0.0294976
0.0294978
0.0294981
0.0294984
0.0294987
0.0294991
0.0294994
0.0294997
0.0295001
0.0295004
0.0295008
0.0295012
0.0295015
0.0295019
0.0295023
0.0295027
0.0295031
0.0295035
0.0295039
0.0295043
0.0295048
0.0295052
0.0295056
0.0295061
0.0295065
0.029507
0.0295074
0.0295079
0.0295083
0.0295088
0.0295092
0.0295097
0.0295101
0.0295106
0.029511
0.0295114
0.0295118
0.0295121
0.0295125
0.0295128
0.0295131
0.0295134
0.0295137
0.029514
0.0295143
0.0295148
0.0295108
0.0303161
0.030309
0.0303082
0.0303086
0.0303093
0.03031
0.0303107
0.0303114
0.0303122
0.0303129
0.0303137
0.0303145
0.0303153
0.0303161
0.0303169
0.0303177
0.0303185
0.0303193
0.03032
0.0303208
0.0303215
0.0303221
0.0303228
0.0303234
0.030324
0.0303245
0.0303251
0.0303256
0.0303261
0.0303266
0.0303271
0.0303276
0.030328
0.0303284
0.0303288
0.0303293
0.0303296
0.03033
0.0303304
0.0303307
0.0303311
0.0303314
0.0303317
0.0303321
0.0303324
0.0303327
0.030333
0.0303333
0.0303335
0.0303338
0.030334
0.0303343
0.0303345
0.0303346
0.0303348
0.030335
0.0303351
0.0303353
0.0303355
0.0303356
0.0303358
0.030336
0.0303362
0.0303364
0.0303366
0.0303368
0.0303371
0.0303373
0.0303376
0.0303378
0.0303381
0.0303384
0.0303387
0.030339
0.0303393
0.0303396
0.03034
0.0303403
0.0303407
0.030341
0.0303414
0.0303418
0.0303421
0.0303425
0.0303429
0.0303433
0.0303438
0.0303442
0.0303446
0.030345
0.0303455
0.0303459
0.0303464
0.0303468
0.0303473
0.0303477
0.0303482
0.0303486
0.0303491
0.0303496
0.0303501
0.0303505
0.030351
0.0303515
0.030352
0.0303524
0.0303529
0.0303534
0.0303538
0.0303543
0.0303547
0.0303551
0.0303554
0.0303558
0.0303562
0.0303565
0.0303569
0.0303572
0.0303577
0.0303538
0.0312537
0.0312463
0.0312453
0.0312457
0.0312463
0.031247
0.0312477
0.0312484
0.0312491
0.0312498
0.0312505
0.0312513
0.0312521
0.0312529
0.0312536
0.0312544
0.0312552
0.0312559
0.0312566
0.0312573
0.031258
0.0312586
0.0312592
0.0312598
0.0312604
0.0312609
0.0312614
0.0312619
0.0312624
0.0312629
0.0312634
0.0312638
0.0312642
0.0312646
0.031265
0.0312654
0.0312658
0.0312662
0.0312665
0.0312669
0.0312672
0.0312675
0.0312679
0.0312682
0.0312685
0.0312688
0.0312692
0.0312695
0.0312698
0.0312701
0.0312703
0.0312706
0.0312709
0.0312711
0.0312714
0.0312716
0.0312718
0.031272
0.0312723
0.0312725
0.0312727
0.031273
0.0312732
0.0312735
0.0312738
0.031274
0.0312743
0.0312746
0.0312749
0.0312752
0.0312756
0.0312759
0.0312762
0.0312766
0.0312769
0.0312773
0.0312777
0.0312781
0.0312784
0.0312788
0.0312793
0.0312797
0.0312801
0.0312805
0.031281
0.0312814
0.0312818
0.0312823
0.0312828
0.0312832
0.0312837
0.0312842
0.0312847
0.0312851
0.0312856
0.0312861
0.0312866
0.0312871
0.0312876
0.0312881
0.0312886
0.0312891
0.0312896
0.0312901
0.0312906
0.0312911
0.0312916
0.0312921
0.0312926
0.031293
0.0312935
0.031294
0.0312944
0.0312948
0.0312952
0.0312956
0.031296
0.0312964
0.0312969
0.031293
0.032291
0.0322832
0.0322821
0.0322824
0.032283
0.0322836
0.0322842
0.0322849
0.0322855
0.0322862
0.0322869
0.0322876
0.0322883
0.0322891
0.0322898
0.0322906
0.0322913
0.032292
0.0322927
0.0322933
0.0322939
0.0322945
0.0322951
0.0322957
0.0322962
0.0322967
0.0322972
0.0322977
0.0322981
0.0322986
0.032299
0.0322994
0.0322998
0.0323002
0.0323006
0.032301
0.0323014
0.0323017
0.0323021
0.0323024
0.0323028
0.0323031
0.0323035
0.0323038
0.0323042
0.0323045
0.0323048
0.0323052
0.0323055
0.0323059
0.0323062
0.0323065
0.0323068
0.0323071
0.0323074
0.0323077
0.032308
0.0323083
0.0323086
0.0323089
0.0323092
0.0323095
0.0323099
0.0323102
0.0323105
0.0323109
0.0323112
0.0323116
0.0323119
0.0323123
0.0323127
0.032313
0.0323134
0.0323138
0.0323143
0.0323147
0.0323151
0.0323155
0.032316
0.0323164
0.0323169
0.0323173
0.0323178
0.0323183
0.0323188
0.0323193
0.0323198
0.0323203
0.0323208
0.0323213
0.0323218
0.0323223
0.0323228
0.0323233
0.0323238
0.0323244
0.0323249
0.0323254
0.0323259
0.0323265
0.032327
0.0323275
0.0323281
0.0323286
0.0323291
0.0323297
0.0323302
0.0323307
0.0323312
0.0323317
0.0323322
0.0323327
0.0323332
0.0323336
0.0323341
0.0323345
0.0323349
0.0323353
0.0323359
0.032332
0.0334321
0.0334238
0.0334225
0.0334227
0.0334232
0.0334238
0.0334244
0.033425
0.0334256
0.0334262
0.0334268
0.0334275
0.0334282
0.0334289
0.0334296
0.0334303
0.033431
0.0334316
0.0334322
0.0334329
0.0334334
0.033434
0.0334345
0.033435
0.0334355
0.033436
0.0334365
0.0334369
0.0334374
0.0334378
0.0334382
0.0334386
0.033439
0.0334393
0.0334397
0.0334401
0.0334405
0.0334408
0.0334412
0.0334416
0.0334419
0.0334423
0.0334427
0.0334431
0.0334434
0.0334438
0.0334442
0.0334446
0.033445
0.0334453
0.0334457
0.0334461
0.0334465
0.0334469
0.0334472
0.0334476
0.033448
0.0334484
0.0334487
0.0334491
0.0334495
0.0334499
0.0334503
0.0334507
0.0334511
0.0334515
0.0334519
0.0334523
0.0334528
0.0334532
0.0334536
0.0334541
0.0334545
0.033455
0.0334555
0.033456
0.0334565
0.033457
0.0334575
0.033458
0.0334585
0.033459
0.0334595
0.03346
0.0334606
0.0334611
0.0334617
0.0334622
0.0334628
0.0334633
0.0334639
0.0334644
0.033465
0.0334656
0.0334661
0.0334667
0.0334672
0.0334678
0.0334684
0.0334689
0.0334695
0.0334701
0.0334706
0.0334712
0.0334717
0.0334723
0.0334729
0.0334734
0.033474
0.0334745
0.033475
0.0334755
0.033476
0.0334765
0.033477
0.0334774
0.0334779
0.0334782
0.0334788
0.033475
0.0346817
0.0346729
0.0346714
0.0346715
0.034672
0.0346725
0.034673
0.0346735
0.034674
0.0346746
0.0346751
0.0346757
0.0346764
0.034677
0.0346777
0.0346783
0.0346789
0.0346795
0.0346801
0.0346806
0.0346812
0.0346817
0.0346822
0.0346827
0.0346831
0.0346836
0.034684
0.0346844
0.0346848
0.0346852
0.0346856
0.034686
0.0346863
0.0346867
0.0346871
0.0346875
0.0346879
0.0346883
0.0346887
0.0346891
0.0346895
0.0346899
0.0346903
0.0346907
0.0346911
0.0346916
0.034692
0.0346924
0.0346929
0.0346933
0.0346938
0.0346942
0.0346947
0.0346952
0.0346956
0.0346961
0.0346965
0.034697
0.0346975
0.0346979
0.0346984
0.0346989
0.0346993
0.0346998
0.0347003
0.0347008
0.0347013
0.0347018
0.0347023
0.0347028
0.0347033
0.0347038
0.0347044
0.0347049
0.0347055
0.034706
0.0347066
0.0347071
0.0347077
0.0347083
0.0347089
0.0347094
0.03471
0.0347106
0.0347112
0.0347118
0.0347124
0.034713
0.0347136
0.0347142
0.0347148
0.0347154
0.034716
0.0347166
0.0347172
0.0347178
0.0347185
0.0347191
0.0347197
0.0347203
0.0347209
0.0347215
0.0347221
0.0347227
0.0347233
0.0347238
0.0347244
0.034725
0.0347256
0.0347262
0.0347267
0.0347272
0.0347277
0.0347282
0.0347287
0.0347291
0.0347296
0.0347299
0.0347305
0.0347268
0.0360453
0.0360359
0.0360342
0.0360342
0.0360345
0.0360349
0.0360353
0.0360357
0.0360362
0.0360366
0.0360371
0.0360376
0.0360382
0.0360388
0.0360393
0.0360399
0.0360405
0.036041
0.0360415
0.036042
0.0360425
0.036043
0.0360434
0.0360438
0.0360443
0.0360447
0.0360451
0.0360454
0.0360458
0.0360462
0.0360466
0.0360469
0.0360473
0.0360477
0.0360481
0.0360485
0.0360489
0.0360494
0.0360498
0.0360503
0.0360507
0.0360512
0.0360517
0.0360522
0.0360527
0.0360532
0.0360537
0.0360542
0.0360547
0.0360553
0.0360558
0.0360564
0.0360569
0.0360574
0.036058
0.0360585
0.0360591
0.0360597
0.0360602
0.0360608
0.0360613
0.0360619
0.0360625
0.036063
0.0360636
0.0360642
0.0360648
0.0360654
0.036066
0.0360666
0.0360672
0.0360678
0.0360684
0.036069
0.0360696
0.0360703
0.0360709
0.0360715
0.0360722
0.0360728
0.0360735
0.0360741
0.0360748
0.0360754
0.0360761
0.0360767
0.0360774
0.036078
0.0360787
0.0360794
0.03608
0.0360807
0.0360813
0.036082
0.0360827
0.0360833
0.036084
0.0360846
0.0360853
0.0360859
0.0360865
0.0360872
0.0360878
0.0360885
0.0360891
0.0360897
0.0360903
0.0360909
0.0360915
0.0360921
0.0360927
0.0360932
0.0360937
0.0360942
0.0360946
0.0360951
0.0360954
0.0360958
0.0360963
0.0360926
0.0375288
0.0375186
0.0375167
0.0375166
0.0375167
0.037517
0.0375173
0.0375176
0.0375179
0.0375183
0.0375187
0.0375191
0.0375196
0.0375201
0.0375206
0.0375211
0.0375215
0.037522
0.0375225
0.0375229
0.0375233
0.0375237
0.0375241
0.0375245
0.0375249
0.0375253
0.0375256
0.037526
0.0375263
0.0375267
0.0375271
0.0375275
0.0375279
0.0375283
0.0375287
0.0375292
0.0375297
0.0375302
0.0375307
0.0375312
0.0375318
0.0375323
0.0375329
0.0375335
0.0375341
0.0375347
0.0375353
0.0375359
0.0375366
0.0375372
0.0375378
0.0375385
0.0375391
0.0375398
0.0375405
0.0375411
0.0375418
0.0375424
0.0375431
0.0375438
0.0375444
0.0375451
0.0375458
0.0375464
0.0375471
0.0375478
0.0375485
0.0375492
0.0375498
0.0375505
0.0375512
0.0375519
0.0375526
0.0375533
0.037554
0.0375548
0.0375555
0.0375562
0.0375569
0.0375576
0.0375583
0.0375591
0.0375598
0.0375605
0.0375612
0.037562
0.0375627
0.0375634
0.0375641
0.0375648
0.0375656
0.0375663
0.037567
0.0375677
0.0375684
0.0375691
0.0375698
0.0375705
0.0375712
0.0375719
0.0375726
0.0375732
0.0375739
0.0375746
0.0375752
0.0375759
0.0375765
0.0375772
0.0375778
0.0375784
0.0375789
0.0375795
0.0375799
0.0375804
0.0375808
0.0375811
0.0375814
0.0375817
0.0375822
0.0375785
0.0391386
0.0391278
0.0391256
0.0391252
0.0391252
0.0391253
0.0391255
0.0391256
0.0391258
0.0391261
0.0391263
0.0391267
0.039127
0.0391274
0.0391278
0.0391282
0.0391286
0.039129
0.0391294
0.0391298
0.0391302
0.0391305
0.0391309
0.0391312
0.0391316
0.0391319
0.0391322
0.0391326
0.0391329
0.0391333
0.0391337
0.0391341
0.0391346
0.039135
0.0391355
0.0391361
0.0391367
0.0391373
0.0391379
0.0391385
0.0391392
0.0391399
0.0391406
0.0391413
0.039142
0.0391428
0.0391435
0.0391443
0.039145
0.0391458
0.0391466
0.0391473
0.0391481
0.0391489
0.0391497
0.0391504
0.0391512
0.039152
0.0391528
0.0391536
0.0391543
0.0391551
0.0391559
0.0391567
0.0391575
0.0391583
0.039159
0.0391598
0.0391606
0.0391614
0.0391622
0.039163
0.0391638
0.0391646
0.0391654
0.0391662
0.039167
0.0391678
0.0391686
0.0391694
0.0391702
0.039171
0.0391718
0.0391726
0.0391733
0.0391741
0.0391749
0.0391757
0.0391765
0.0391773
0.039178
0.0391788
0.0391796
0.0391803
0.0391811
0.0391818
0.0391826
0.0391833
0.0391841
0.0391848
0.0391855
0.0391862
0.039187
0.0391877
0.0391884
0.039189
0.0391897
0.0391904
0.039191
0.0391916
0.0391921
0.0391926
0.039193
0.0391934
0.0391937
0.0391939
0.0391941
0.0391942
0.0391946
0.039191
0.0408819
0.0408703
0.0408677
0.0408671
0.0408669
0.0408669
0.0408669
0.0408669
0.0408669
0.040867
0.0408672
0.0408674
0.0408676
0.0408679
0.0408682
0.0408686
0.0408689
0.0408692
0.0408695
0.0408699
0.0408702
0.0408705
0.0408708
0.0408711
0.0408714
0.0408717
0.040872
0.0408723
0.0408727
0.0408731
0.0408735
0.040874
0.0408746
0.0408752
0.0408758
0.0408765
0.0408772
0.040878
0.0408787
0.0408795
0.0408804
0.0408812
0.0408821
0.040883
0.0408838
0.0408847
0.0408856
0.0408865
0.0408874
0.0408884
0.0408893
0.0408902
0.0408911
0.040892
0.0408929
0.0408938
0.0408947
0.0408957
0.0408966
0.0408975
0.0408984
0.0408993
0.0409002
0.0409011
0.040902
0.0409029
0.0409038
0.0409046
0.0409055
0.0409064
0.0409073
0.0409082
0.0409091
0.04091
0.0409109
0.0409118
0.0409127
0.0409135
0.0409144
0.0409153
0.0409162
0.0409171
0.0409179
0.0409188
0.0409197
0.0409205
0.0409214
0.0409222
0.0409231
0.0409239
0.0409247
0.0409256
0.0409264
0.0409272
0.040928
0.0409288
0.0409296
0.0409304
0.0409312
0.0409319
0.0409327
0.0409335
0.0409342
0.040935
0.0409357
0.0409364
0.0409371
0.0409377
0.0409383
0.0409388
0.0409393
0.0409397
0.04094
0.0409402
0.0409404
0.0409405
0.0409405
0.0409405
0.0409406
0.040937
0.0427663
0.0427538
0.0427509
0.04275
0.0427496
0.0427493
0.0427491
0.042749
0.0427489
0.0427488
0.0427488
0.0427489
0.0427491
0.0427492
0.0427495
0.0427497
0.0427499
0.0427502
0.0427504
0.0427507
0.042751
0.0427512
0.0427515
0.0427517
0.042752
0.0427523
0.0427526
0.042753
0.0427534
0.0427539
0.0427544
0.0427551
0.0427558
0.0427565
0.0427573
0.0427582
0.0427591
0.0427601
0.0427611
0.0427621
0.0427631
0.0427642
0.0427652
0.0427663
0.0427674
0.0427684
0.0427695
0.0427706
0.0427717
0.0427728
0.0427738
0.0427749
0.042776
0.0427771
0.0427781
0.0427792
0.0427802
0.0427813
0.0427823
0.0427833
0.0427844
0.0427854
0.0427864
0.0427874
0.0427885
0.0427895
0.0427905
0.0427915
0.0427925
0.0427935
0.0427945
0.0427955
0.0427965
0.0427974
0.0427984
0.0427994
0.0428004
0.0428013
0.0428023
0.0428033
0.0428042
0.0428052
0.0428061
0.0428071
0.042808
0.0428089
0.0428098
0.0428107
0.0428117
0.0428126
0.0428134
0.0428143
0.0428152
0.0428161
0.0428169
0.0428178
0.0428186
0.0428194
0.0428203
0.0428211
0.0428219
0.0428227
0.0428235
0.0428243
0.042825
0.0428257
0.0428264
0.042827
0.0428275
0.042828
0.0428283
0.0428285
0.0428286
0.0428286
0.0428286
0.0428284
0.0428282
0.042828
0.0428279
0.0428244
0.0447999
0.0447865
0.0447831
0.044782
0.0447814
0.0447809
0.0447805
0.0447801
0.0447798
0.0447796
0.0447795
0.0447795
0.0447795
0.0447796
0.0447797
0.0447799
0.04478
0.0447802
0.0447804
0.0447806
0.0447808
0.0447811
0.0447813
0.0447815
0.0447818
0.0447821
0.0447825
0.0447829
0.0447834
0.0447841
0.0447848
0.0447856
0.0447866
0.0447876
0.0447887
0.0447898
0.044791
0.0447922
0.0447934
0.0447947
0.044796
0.0447973
0.0447986
0.0447999
0.0448011
0.0448024
0.0448037
0.044805
0.0448063
0.0448075
0.0448088
0.04481
0.0448113
0.0448125
0.0448137
0.0448149
0.0448161
0.0448173
0.0448185
0.0448197
0.0448208
0.044822
0.0448231
0.0448243
0.0448254
0.0448265
0.0448277
0.0448288
0.0448299
0.044831
0.0448321
0.0448332
0.0448343
0.0448354
0.0448364
0.0448375
0.0448386
0.0448396
0.0448407
0.0448417
0.0448427
0.0448438
0.0448448
0.0448458
0.0448468
0.0448478
0.0448488
0.0448497
0.0448507
0.0448517
0.0448526
0.0448535
0.0448545
0.0448554
0.0448563
0.0448572
0.0448581
0.0448589
0.0448598
0.0448607
0.0448615
0.0448623
0.0448632
0.044864
0.0448647
0.0448654
0.044866
0.0448666
0.044867
0.0448672
0.0448673
0.0448673
0.0448671
0.0448668
0.0448664
0.044866
0.0448655
0.0448649
0.0448646
0.0448611
0.0469915
0.0469771
0.0469733
0.0469719
0.046971
0.0469703
0.0469696
0.0469691
0.0469686
0.0469683
0.046968
0.0469679
0.0469678
0.0469678
0.0469678
0.0469679
0.046968
0.0469681
0.0469683
0.0469685
0.0469686
0.0469688
0.046969
0.0469693
0.0469696
0.0469699
0.0469704
0.046971
0.0469717
0.0469726
0.0469737
0.0469748
0.0469761
0.0469774
0.0469788
0.0469803
0.0469818
0.0469834
0.0469849
0.0469865
0.0469881
0.0469896
0.0469912
0.0469927
0.0469943
0.0469958
0.0469973
0.0469988
0.0470003
0.0470018
0.0470032
0.0470046
0.047006
0.0470074
0.0470088
0.0470102
0.0470115
0.0470129
0.0470142
0.0470155
0.0470168
0.0470181
0.0470194
0.0470206
0.0470219
0.0470231
0.0470243
0.0470256
0.0470268
0.047028
0.0470292
0.0470304
0.0470316
0.0470327
0.0470339
0.0470351
0.0470362
0.0470373
0.0470385
0.0470396
0.0470407
0.0470418
0.0470429
0.047044
0.047045
0.0470461
0.0470471
0.0470481
0.0470492
0.0470502
0.0470512
0.0470522
0.0470531
0.0470541
0.047055
0.047056
0.0470569
0.0470578
0.0470587
0.0470596
0.0470605
0.0470614
0.0470622
0.047063
0.0470637
0.0470644
0.0470649
0.0470652
0.0470654
0.0470653
0.047065
0.0470646
0.047064
0.0470633
0.0470626
0.0470617
0.0470609
0.04706
0.0470593
0.0470558
0.0493502
0.0493348
0.0493306
0.0493288
0.0493277
0.0493267
0.0493259
0.0493252
0.0493246
0.0493241
0.0493237
0.0493234
0.0493233
0.0493232
0.0493232
0.0493232
0.0493233
0.0493234
0.0493235
0.0493236
0.0493238
0.049324
0.0493242
0.0493245
0.0493248
0.0493253
0.049326
0.0493269
0.049328
0.0493292
0.0493307
0.0493323
0.049334
0.0493358
0.0493377
0.0493396
0.0493415
0.0493434
0.0493453
0.0493472
0.0493491
0.049351
0.0493529
0.0493547
0.0493565
0.0493583
0.04936
0.0493617
0.0493634
0.0493651
0.0493667
0.0493683
0.0493699
0.0493715
0.049373
0.0493745
0.049376
0.0493775
0.049379
0.0493804
0.0493819
0.0493833
0.0493847
0.049386
0.0493874
0.0493888
0.0493901
0.0493914
0.0493928
0.0493941
0.0493954
0.0493966
0.0493979
0.0493992
0.0494004
0.0494017
0.0494029
0.0494041
0.0494053
0.0494065
0.0494077
0.0494088
0.04941
0.0494111
0.0494122
0.0494134
0.0494145
0.0494155
0.0494166
0.0494177
0.0494187
0.0494197
0.0494208
0.0494218
0.0494227
0.0494237
0.0494247
0.0494256
0.0494266
0.0494275
0.0494284
0.0494293
0.0494302
0.0494309
0.0494316
0.0494321
0.0494324
0.0494324
0.0494321
0.0494315
0.0494307
0.0494297
0.0494286
0.0494274
0.0494261
0.0494248
0.0494236
0.0494223
0.0494213
0.0494179
0.0518858
0.0518694
0.0518648
0.0518627
0.0518613
0.0518602
0.0518592
0.0518583
0.0518575
0.0518569
0.0518565
0.0518561
0.0518559
0.0518557
0.0518557
0.0518557
0.0518557
0.0518558
0.0518559
0.0518561
0.0518563
0.0518565
0.0518567
0.0518571
0.0518576
0.0518584
0.0518594
0.0518608
0.0518624
0.0518642
0.0518663
0.0518685
0.0518708
0.0518731
0.0518755
0.0518779
0.0518803
0.0518827
0.051885
0.0518873
0.0518895
0.0518917
0.0518939
0.051896
0.051898
0.0519001
0.051902
0.051904
0.0519059
0.0519077
0.0519096
0.0519113
0.0519131
0.0519148
0.0519165
0.0519182
0.0519198
0.0519215
0.0519231
0.0519246
0.0519262
0.0519277
0.0519292
0.0519307
0.0519322
0.0519337
0.0519351
0.0519365
0.0519379
0.0519393
0.0519407
0.0519421
0.0519434
0.0519448
0.0519461
0.0519474
0.0519487
0.05195
0.0519513
0.0519525
0.0519538
0.051955
0.0519562
0.0519574
0.0519586
0.0519597
0.0519609
0.051962
0.0519631
0.0519642
0.0519653
0.0519664
0.0519674
0.0519685
0.0519695
0.0519705
0.0519715
0.0519725
0.0519734
0.0519744
0.0519753
0.0519763
0.0519771
0.0519777
0.0519782
0.0519784
0.0519783
0.0519777
0.0519768
0.0519755
0.0519739
0.0519722
0.0519704
0.0519686
0.0519667
0.051965
0.0519633
0.0519616
0.0519602
0.0519569
0.0546087
0.0545913
0.0545862
0.0545839
0.0545823
0.054581
0.0545798
0.0545788
0.0545779
0.0545773
0.0545767
0.0545764
0.0545761
0.054576
0.0545759
0.0545759
0.054576
0.0545761
0.0545762
0.0545764
0.0545766
0.0545769
0.0545772
0.0545778
0.0545786
0.0545799
0.0545815
0.0545836
0.054586
0.0545886
0.0545914
0.0545944
0.0545974
0.0546004
0.0546034
0.0546063
0.0546092
0.054612
0.0546148
0.0546174
0.05462
0.0546226
0.054625
0.0546274
0.0546297
0.054632
0.0546342
0.0546363
0.0546384
0.0546405
0.0546425
0.0546444
0.0546464
0.0546482
0.0546501
0.0546519
0.0546537
0.0546554
0.0546571
0.0546588
0.0546605
0.0546621
0.0546637
0.0546653
0.0546669
0.0546684
0.05467
0.0546715
0.054673
0.0546745
0.0546759
0.0546774
0.0546788
0.0546802
0.0546816
0.054683
0.0546843
0.0546857
0.054687
0.0546883
0.0546896
0.0546909
0.0546921
0.0546934
0.0546946
0.0546958
0.054697
0.0546982
0.0546993
0.0547005
0.0547016
0.0547027
0.0547038
0.0547048
0.0547059
0.0547069
0.0547079
0.0547089
0.0547099
0.0547109
0.0547119
0.0547128
0.0547135
0.0547139
0.0547141
0.0547138
0.0547129
0.0547114
0.0547095
0.0547071
0.0547046
0.054702
0.0546994
0.0546969
0.0546945
0.0546922
0.0546901
0.0546881
0.0546863
0.0546832
0.0575297
0.0575114
0.0575058
0.0575033
0.0575015
0.0575
0.0574987
0.0574976
0.0574968
0.0574961
0.0574956
0.0574952
0.057495
0.0574949
0.0574948
0.0574949
0.057495
0.0574952
0.0574954
0.0574956
0.0574959
0.0574962
0.0574968
0.0574977
0.0574992
0.0575012
0.0575039
0.0575069
0.0575104
0.0575141
0.0575179
0.0575217
0.0575255
0.0575292
0.0575328
0.0575364
0.0575398
0.057543
0.0575462
0.0575492
0.0575522
0.057555
0.0575577
0.0575604
0.0575629
0.0575654
0.0575678
0.0575701
0.0575724
0.0575746
0.0575768
0.0575789
0.0575809
0.0575829
0.0575849
0.0575868
0.0575887
0.0575905
0.0575924
0.0575941
0.0575959
0.0575976
0.0575993
0.057601
0.0576027
0.0576043
0.0576059
0.0576075
0.0576091
0.0576106
0.0576121
0.0576136
0.0576151
0.0576166
0.0576181
0.0576195
0.0576209
0.0576223
0.0576237
0.057625
0.0576264
0.0576277
0.057629
0.0576303