/*--------------------------------*- C++ -*----------------------------------*\
  =========                 |
  \\      /  F ield         | OpenFOAM: The Open Source CFD Toolbox
   \\    /   O peration     | Website:  https://openfoam.org
    \\  /    A nd           | Version:  7
     \\/     M anipulation  |
\*---------------------------------------------------------------------------*/
FoamFile
{
    version     2.0;
    format      ascii;
    class       volVectorField;
    location    "1500";
    object      U;
}
// * * * * * * * * * * * * * * * * * * * * * * * * * * * * * * * * * * * * * //

dimensions      [0 1 -1 0 0 0 0];

internalField   nonuniform List<vector> 
4026
(
(0.129389 8.51835e-09 -1.24742e-16)
(0.129389 -8.23554e-08 -9.41364e-17)
(0.12939 -1.81386e-07 -5.22661e-17)
(0.12939 -2.16947e-07 -1.80436e-16)
(0.12939 -2.31747e-07 -2.16076e-16)
(0.12939 -2.2741e-07 -1.65258e-16)
(0.12939 -2.13119e-07 -8.80796e-17)
(0.12939 -1.95972e-07 -3.23762e-17)
(0.12939 -1.78809e-07 6.57103e-17)
(0.12939 -1.63439e-07 1.58394e-16)
(0.12939 -1.50585e-07 2.3294e-16)
(0.12939 -1.40389e-07 2.52567e-16)
(0.12939 -1.32755e-07 2.70835e-16)
(0.12939 -1.27478e-07 2.83883e-16)
(0.12939 -1.24307e-07 8.99842e-17)
(0.12939 -1.22961e-07 2.5639e-16)
(0.12939 -1.23135e-07 2.92789e-16)
(0.12939 -1.24509e-07 3.06717e-16)
(0.12939 -1.26764e-07 3.12696e-16)
(0.12939 -1.29587e-07 9.5354e-17)
(0.12939 -1.32678e-07 3.40589e-16)
(0.12939 -1.3576e-07 7.0727e-17)
(0.12939 -1.38601e-07 1.55877e-16)
(0.12939 -1.41035e-07 2.78907e-16)
(0.12939 -1.42969e-07 6.77008e-17)
(0.12939 -1.44376e-07 2.51397e-16)
(0.12939 -1.45268e-07 3.01424e-16)
(0.12939 -1.45675e-07 2.63806e-16)
(0.12939 -1.45632e-07 2.86559e-16)
(0.12939 -1.45169e-07 1.98429e-17)
(0.12939 -1.44347e-07 2.05419e-16)
(0.12939 -1.43209e-07 2.61045e-16)
(0.12939 -1.41868e-07 2.26829e-16)
(0.12939 -1.40339e-07 1.83494e-16)
(0.12939 -1.38735e-07 -2.73996e-17)
(0.12939 -1.36882e-07 1.00673e-16)
(0.12939 -1.34645e-07 1.96712e-16)
(0.12939 -1.31549e-07 1.5552e-16)
(0.12939 -1.25847e-07 1.21055e-16)
(0.12939 -1.18167e-07 -1.15367e-16)
(0.12939 -9.68983e-08 -1.02665e-17)
(0.12939 -7.78685e-08 -5.87775e-17)
(0.12939 1.19723e-08 -1.26788e-17)
(0.12939 4.39252e-08 -3.15753e-17)
(0.12939 4.79361e-07 -3.95467e-17)
(0.129388 1.00831e-06 -2.93403e-16)
(0.129388 5.70012e-07 -2.87885e-16)
(0.129388 3.08823e-07 -3.17323e-16)
(0.129388 1.82918e-07 -3.26527e-16)
(0.129388 1.00123e-07 -3.18007e-16)
(0.129388 4.72153e-08 -3.34329e-16)
(0.129388 9.72446e-09 -3.28228e-16)
(0.129388 -2.15916e-08 -3.30804e-16)
(0.129388 -4.84312e-08 -3.01584e-16)
(0.129388 -7.58202e-08 -2.65351e-16)
(0.129388 -9.89648e-08 -2.63642e-16)
(0.129388 -1.22696e-07 -2.42474e-16)
(0.129388 -1.34881e-07 -2.32136e-16)
(0.129388 -1.33898e-07 -2.02358e-16)
(0.129388 -1.14694e-07 -1.71953e-16)
(0.129388 -3.45972e-08 -1.86715e-16)
(0.13043 -3.46142e-08 3.95698e-17)
(0.13043 -1.13024e-07 7.56539e-17)
(0.13043 -2.03551e-07 1.08563e-16)
(0.13043 -2.32215e-07 -2.32114e-17)
(0.13043 -2.42879e-07 -8.65782e-17)
(0.13043 -2.36469e-07 -4.95264e-17)
(0.130431 -2.20807e-07 3.08651e-17)
(0.130431 -2.02605e-07 9.71639e-17)
(0.130431 -1.84514e-07 1.79047e-16)
(0.130431 -1.68265e-07 2.62054e-16)
(0.130431 -1.54571e-07 3.37748e-16)
(0.130431 -1.43574e-07 3.72298e-16)
(0.130431 -1.3518e-07 3.95898e-16)
(0.130431 -1.29177e-07 4.15878e-16)
(0.130431 -1.25313e-07 2.65842e-16)
(0.130431 -1.23303e-07 4.34754e-16)
(0.130431 -1.22843e-07 4.44458e-16)
(0.130431 -1.2362e-07 4.50993e-16)
(0.130431 -1.25318e-07 4.58778e-16)
(0.130431 -1.27628e-07 2.90516e-16)
(0.130431 -1.30257e-07 4.66235e-16)
(0.130431 -1.32931e-07 2.64062e-16)
(0.130431 -1.35422e-07 3.41614e-16)
(0.130431 -1.37565e-07 4.17879e-16)
(0.130431 -1.39266e-07 2.41232e-16)
(0.130431 -1.40493e-07 4.20865e-16)
(0.130431 -1.41257e-07 4.17212e-16)
(0.130431 -1.41581e-07 4.27177e-16)
(0.13043 -1.41503e-07 4.5667e-16)
(0.13043 -1.41052e-07 2.45036e-16)
(0.13043 -1.40289e-07 3.73505e-16)
(0.13043 -1.39259e-07 3.88018e-16)
(0.13043 -1.38082e-07 3.77316e-16)
(0.13043 -1.36772e-07 3.53812e-16)
(0.13043 -1.35457e-07 1.52942e-16)
(0.13043 -1.33961e-07 3.23474e-16)
(0.13043 -1.32189e-07 3.16208e-16)
(0.13043 -1.29633e-07 3.1983e-16)
(0.13043 -1.2471e-07 2.84629e-16)
(0.13043 -1.17811e-07 9.91555e-17)
(0.13043 -9.81008e-08 1.60627e-16)
(0.13043 -8.00394e-08 8.56999e-17)
(0.13043 5.54354e-09 1.48297e-16)
(0.13043 3.72165e-08 1.60863e-16)
(0.13043 4.52309e-07 1.51919e-16)
(0.130429 9.79925e-07 -1.05515e-16)
(0.130429 5.65323e-07 -1.0679e-16)
(0.130429 3.10098e-07 -1.18461e-16)
(0.130429 1.84188e-07 -1.45323e-16)
(0.130429 1.01209e-07 -1.4192e-16)
(0.130429 4.79575e-08 -1.42458e-16)
(0.130429 1.00341e-08 -1.40045e-16)
(0.130429 -2.19307e-08 -1.45031e-16)
(0.130429 -4.95702e-08 -1.27229e-16)
(0.130429 -7.80896e-08 -9.9993e-17)
(0.130429 -1.02465e-07 -8.43641e-17)
(0.130429 -1.28501e-07 -6.48924e-17)
(0.130429 -1.42675e-07 -5.24277e-17)
(0.130429 -1.48129e-07 -3.65418e-17)
(0.130429 -1.32995e-07 -1.20568e-17)
(0.130429 -6.82273e-08 -8.95879e-18)
(0.131433 -7.96592e-08 2.17655e-16)
(0.131433 -1.43717e-07 2.5218e-16)
(0.131433 -2.24649e-07 2.68785e-16)
(0.131433 -2.47212e-07 2.16457e-17)
(0.131433 -2.53925e-07 3.11615e-17)
(0.131433 -2.45376e-07 8.74804e-17)
(0.131433 -2.28264e-07 1.76725e-16)
(0.131433 -2.0895e-07 2.47102e-16)
(0.131433 -1.89893e-07 3.17853e-16)
(0.131433 -1.72737e-07 3.89699e-16)
(0.131433 -1.58179e-07 4.62608e-16)
(0.131433 -1.46356e-07 4.98713e-16)
(0.131433 -1.37174e-07 5.26015e-16)
(0.131433 -1.30418e-07 5.41993e-16)
(0.131434 -1.25829e-07 4.9102e-16)
(0.131434 -1.23122e-07 5.67339e-16)
(0.131433 -1.21995e-07 5.88348e-16)
(0.131433 -1.22137e-07 5.97372e-16)
(0.131433 -1.2324e-07 5.96479e-16)
(0.131433 -1.25e-07 5.29679e-16)
(0.131433 -1.27128e-07 5.55659e-16)
(0.131433 -1.29357e-07 5.04812e-16)
(0.131433 -1.31464e-07 5.66564e-16)
(0.131433 -1.33283e-07 5.64393e-16)
(0.131433 -1.3472e-07 5.12791e-16)
(0.131433 -1.35741e-07 5.61549e-16)
(0.131433 -1.36354e-07 5.46895e-16)
(0.131433 -1.3658e-07 5.88126e-16)
(0.131433 -1.36457e-07 5.80547e-16)
(0.131433 -1.36013e-07 5.16456e-16)
(0.131433 -1.35314e-07 5.283e-16)
(0.131433 -1.34407e-07 4.97701e-16)
(0.131433 -1.33413e-07 5.36919e-16)
(0.131433 -1.3235e-07 4.98268e-16)
(0.131433 -1.3136e-07 4.27032e-16)
(0.131433 -1.30267e-07 4.63835e-16)
(0.131433 -1.29019e-07 4.41513e-16)
(0.131433 -1.27074e-07 4.83217e-16)
(0.131433 -1.23029e-07 4.31803e-16)
(0.131433 -1.17022e-07 3.39138e-16)
(0.131433 -9.91037e-08 3.61971e-16)
(0.131433 -8.21541e-08 3.15737e-16)
(0.131433 -1.97263e-09 3.50253e-16)
(0.131433 2.99439e-08 3.50557e-16)
(0.131433 4.08081e-07 3.47254e-16)
(0.131432 9.31511e-07 8.34524e-17)
(0.131432 5.61022e-07 7.69712e-17)
(0.131432 3.15148e-07 7.82086e-17)
(0.131431 1.88659e-07 2.3024e-17)
(0.131431 1.04679e-07 3.54402e-17)
(0.131431 5.04666e-08 5.04129e-17)
(0.131431 1.1732e-08 5.23034e-17)
(0.131431 -2.11181e-08 4.34071e-17)
(0.131431 -4.97307e-08 5.64344e-17)
(0.131431 -7.95176e-08 7.35015e-17)
(0.131431 -1.05264e-07 9.72027e-17)
(0.131431 -1.33752e-07 1.16417e-16)
(0.131432 -1.50124e-07 1.28626e-16)
(0.131432 -1.62234e-07 1.35634e-16)
(0.131432 -1.51695e-07 1.5376e-16)
(0.131432 -1.03335e-07 1.68389e-16)
(0.1324 -1.27204e-07 4.50805e-16)
(0.1324 -1.72479e-07 4.32146e-16)
(0.1324 -2.44528e-07 3.41135e-16)
(0.1324 -2.61808e-07 2.94714e-16)
(0.1324 -2.64778e-07 8.89876e-17)
(0.132401 -2.54093e-07 2.55595e-16)
(0.132401 -2.35491e-07 3.48876e-16)
(0.132401 -2.15021e-07 4.16961e-16)
(0.132401 -1.94964e-07 4.78295e-16)
(0.132401 -1.76876e-07 5.39262e-16)
(0.132401 -1.61428e-07 6.07781e-16)
(0.132401 -1.48754e-07 6.31787e-16)
(0.132401 -1.38758e-07 6.61084e-16)
(0.132401 -1.31221e-07 6.66146e-16)
(0.132401 -1.25879e-07 6.99759e-16)
(0.132401 -1.22443e-07 7.34127e-16)
(0.132401 -1.20614e-07 7.35384e-16)
(0.132401 -1.20086e-07 7.45198e-16)
(0.132401 -1.20554e-07 7.29766e-16)
(0.132401 -1.21722e-07 7.62019e-16)
(0.132401 -1.23308e-07 6.67332e-16)
(0.132401 -1.2505e-07 7.34924e-16)
(0.132401 -1.26727e-07 8.33199e-16)
(0.132401 -1.2818e-07 7.06983e-16)
(0.132401 -1.29314e-07 7.71243e-16)
(0.1324 -1.30092e-07 7.22052e-16)
(0.1324 -1.3052e-07 6.66531e-16)
(0.1324 -1.30621e-07 7.50719e-16)
(0.1324 -1.30431e-07 6.9531e-16)
(0.1324 -1.2998e-07 7.80179e-16)
(0.1324 -1.29337e-07 6.9511e-16)
(0.1324 -1.2855e-07 6.12205e-16)
(0.1324 -1.27746e-07 6.88721e-16)
(0.1324 -1.26947e-07 6.24102e-16)
(0.1324 -1.26308e-07 6.81637e-16)
(0.1324 -1.25655e-07 6.26547e-16)
(0.1324 -1.2498e-07 5.6357e-16)
(0.1324 -1.23713e-07 6.95083e-16)
(0.1324 -1.2064e-07 5.61385e-16)
(0.1324 -1.15639e-07 5.66099e-16)
(0.1324 -9.97446e-08 6.22185e-16)
(0.1324 -8.40741e-08 5.57835e-16)
(0.1324 -1.03503e-08 5.62944e-16)
(0.1324 2.20733e-08 5.37462e-16)
(0.1324 3.55446e-07 5.22761e-16)
(0.132399 8.68652e-07 2.76489e-16)
(0.132399 5.50458e-07 2.62468e-16)
(0.132399 3.19398e-07 2.7676e-16)
(0.132399 1.9438e-07 2.40499e-16)
(0.132399 1.09698e-07 2.15208e-16)
(0.132399 5.43171e-08 2.49076e-16)
(0.132399 1.45505e-08 2.47475e-16)
(0.132399 -1.93474e-08 2.32848e-16)
(0.132399 -4.9065e-08 2.47731e-16)
(0.132399 -8.02309e-08 2.53593e-16)
(0.132399 -1.07473e-07 2.85606e-16)
(0.132399 -1.38544e-07 3.01486e-16)
(0.132399 -1.57319e-07 3.1064e-16)
(0.132399 -1.76299e-07 3.23215e-16)
(0.132399 -1.70628e-07 3.26218e-16)
(0.132399 -1.42174e-07 3.50575e-16)
(0.133333 -1.76545e-07 6.00587e-16)
(0.133333 -2.01493e-07 6.10495e-16)
(0.133333 -2.63859e-07 5.98261e-16)
(0.133333 -2.75956e-07 4.77814e-16)
(0.133333 -2.75299e-07 4.25651e-16)
(0.133334 -2.62511e-07 4.76833e-16)
(0.133334 -2.42407e-07 5.46927e-16)
(0.133334 -2.20755e-07 6.04492e-16)
(0.133334 -1.99676e-07 6.57211e-16)
(0.133334 -1.80634e-07 7.08067e-16)
(0.133334 -1.64279e-07 7.72161e-16)
(0.133334 -1.50734e-07 7.66216e-16)
(0.133334 -1.39901e-07 8.00678e-16)
(0.133334 -1.31558e-07 7.88636e-16)
(0.133334 -1.25436e-07 8.88949e-16)
(0.133334 -1.21244e-07 9.1437e-16)
(0.133334 -1.18682e-07 8.8134e-16)
(0.133334 -1.17448e-07 8.95206e-16)
(0.133334 -1.17246e-07 8.57395e-16)
(0.133334 -1.17785e-07 9.56149e-16)
(0.133334 -1.18789e-07 8.73981e-16)
(0.133334 -1.20004e-07 9.6033e-16)
(0.133334 -1.21213e-07 1.00675e-15)
(0.133334 -1.22261e-07 9.24946e-16)
(0.133333 -1.23053e-07 1.11311e-15)
(0.133333 -1.23553e-07 9.69959e-16)
(0.133333 -1.23766e-07 8.88762e-16)
(0.133333 -1.23714e-07 9.36078e-16)
(0.133333 -1.23434e-07 8.97794e-16)
(0.133333 -1.22961e-07 1.01593e-15)
(0.133333 -1.22363e-07 9.46442e-16)
(0.133333 -1.21695e-07 8.3206e-16)
(0.133333 -1.21089e-07 8.74859e-16)
(0.133333 -1.20569e-07 8.2784e-16)
(0.133333 -1.20305e-07 9.32659e-16)
(0.133333 -1.20127e-07 8.77378e-16)
(0.133333 -1.20075e-07 7.89241e-16)
(0.133333 -1.19548e-07 8.36513e-16)
(0.133333 -1.17541e-07 7.75652e-16)
(0.133333 -1.1366e-07 8.12814e-16)
(0.133333 -1.00015e-07 7.87351e-16)
(0.133333 -8.58126e-08 7.88779e-16)
(0.133333 -1.94609e-08 7.76284e-16)
(0.133333 1.32566e-08 7.16278e-16)
(0.133333 2.99649e-07 7.07642e-16)
(0.133332 7.9651e-07 4.75808e-16)
(0.133332 5.31199e-07 4.48318e-16)
(0.133332 3.19753e-07 4.78e-16)
(0.133332 1.99293e-07 4.36358e-16)
(0.133332 1.15137e-07 4.16441e-16)
(0.133332 5.88968e-08 4.55237e-16)
(0.133332 1.81243e-08 4.43035e-16)
(0.133332 -1.68586e-08 4.2221e-16)
(0.133332 -4.7741e-08 4.47416e-16)
(0.133332 -8.03501e-08 4.37593e-16)
(0.133332 -1.09181e-07 4.84959e-16)
(0.133332 -1.42938e-07 4.89036e-16)
(0.133332 -1.64298e-07 4.92661e-16)
(0.133332 -1.90331e-07 5.16816e-16)
(0.133332 -1.89779e-07 5.05427e-16)
(0.133332 -1.82487e-07 5.42476e-16)
(0.134233 -2.27037e-07 8.05606e-16)
(0.134233 -2.31518e-07 7.84949e-16)
(0.134233 -2.83195e-07 7.66562e-16)
(0.134233 -2.89857e-07 7.05277e-16)
(0.134233 -2.85523e-07 6.97181e-16)
(0.134233 -2.70625e-07 7.2282e-16)
(0.134233 -2.49008e-07 7.64557e-16)
(0.134233 -2.26154e-07 8.08348e-16)
(0.134233 -2.04034e-07 8.52095e-16)
(0.134233 -1.84022e-07 8.93377e-16)
(0.134233 -1.6674e-07 9.53721e-16)
(0.134233 -1.52306e-07 8.86689e-16)
(0.134233 -1.40615e-07 9.45708e-16)
(0.134233 -1.31443e-07 9.03292e-16)
(0.134233 -1.24516e-07 1.00209e-15)
(0.134233 -1.19539e-07 1.08471e-15)
(0.134233 -1.16215e-07 1.01397e-15)
(0.134233 -1.14245e-07 1.04928e-15)
(0.134233 -1.13337e-07 9.73446e-16)
(0.134233 -1.13209e-07 1.08238e-15)
(0.134233 -1.13592e-07 1.03931e-15)
(0.134233 -1.14238e-07 1.12352e-15)
(0.134233 -1.14939e-07 1.18675e-15)
(0.134233 -1.15539e-07 1.12578e-15)
(0.134233 -1.15949e-07 1.19829e-15)
(0.134233 -1.16132e-07 1.17044e-15)
(0.134233 -1.16093e-07 1.09428e-15)
(0.134233 -1.15855e-07 1.1296e-15)
(0.134233 -1.15458e-07 1.09549e-15)
(0.134233 -1.14938e-07 1.19728e-15)
(0.134233 -1.14371e-07 1.14014e-15)
(0.134233 -1.13813e-07 1.03477e-15)
(0.134232 -1.13402e-07 1.05916e-15)
(0.134232 -1.13169e-07 1.02549e-15)
(0.134232 -1.13297e-07 1.11082e-15)
(0.134232 -1.13621e-07 1.08385e-15)
(0.134232 -1.14234e-07 9.98675e-16)
(0.134232 -1.14507e-07 1.03632e-15)
(0.134232 -1.13654e-07 9.81349e-16)
(0.134232 -1.11004e-07 9.77182e-16)
(0.134232 -9.98264e-08 9.86404e-16)
(0.134232 -8.73038e-08 1.02115e-15)
(0.134232 -2.90819e-08 9.8094e-16)
(0.134232 3.2963e-09 8.72496e-16)
(0.134232 2.4315e-07 8.76748e-16)
(0.134231 7.19081e-07 6.88479e-16)
(0.134231 5.03859e-07 6.30878e-16)
(0.134232 3.14731e-07 6.92762e-16)
(0.134232 2.01708e-07 6.77153e-16)
(0.134232 1.19786e-07 6.10658e-16)
(0.134232 6.34341e-08 6.77549e-16)
(0.134231 2.19475e-08 6.3406e-16)
(0.134231 -1.40067e-08 6.1122e-16)
(0.134231 -4.60241e-08 6.58655e-16)
(0.134231 -8.00823e-08 6.21087e-16)
(0.134231 -1.10556e-07 7.00932e-16)
(0.134231 -1.47069e-07 6.73526e-16)
(0.134232 -1.71176e-07 6.74928e-16)
(0.134232 -2.04398e-07 7.29704e-16)
(0.134232 -2.0925e-07 6.81394e-16)
(0.134232 -2.23357e-07 7.51144e-16)
(0.1351 -2.78115e-07 1.01896e-15)
(0.1351 -2.62685e-07 9.57001e-16)
(0.1351 -3.02908e-07 9.36882e-16)
(0.1351 -3.03757e-07 9.26539e-16)
(0.1351 -2.95555e-07 9.64683e-16)
(0.1351 -2.7847e-07 9.7576e-16)
(0.1351 -2.5531e-07 9.94352e-16)
(0.1351 -2.31229e-07 1.0262e-15)
(0.1351 -2.08049e-07 1.06058e-15)
(0.1351 -1.8705e-07 1.09254e-15)
(0.1351 -1.68828e-07 1.1498e-15)
(0.1351 -1.53486e-07 9.9636e-16)
(0.1351 -1.40919e-07 1.1039e-15)
(0.1351 -1.30896e-07 9.56703e-16)
(0.1351 -1.2314e-07 1.11961e-15)
(0.1351 -1.17354e-07 1.28606e-15)
(0.1351 -1.13239e-07 1.08015e-15)
(0.1351 -1.105e-07 1.21152e-15)
(0.1351 -1.08853e-07 1.03361e-15)
(0.1351 -1.08022e-07 1.19972e-15)
(0.1351 -1.07745e-07 1.20045e-15)
(0.1351 -1.07783e-07 1.28224e-15)
(0.1351 -1.07931e-07 1.37809e-15)
(0.1351 -1.08043e-07 1.31134e-15)
(0.1351 -1.08028e-07 1.36893e-15)
(0.1351 -1.07852e-07 1.35166e-15)
(0.1351 -1.07521e-07 1.27763e-15)
(0.1351 -1.0706e-07 1.33405e-15)
(0.1351 -1.06511e-07 1.28728e-15)
(0.1351 -1.05918e-07 1.36369e-15)
(0.1351 -1.05358e-07 1.31576e-15)
(0.135099 -1.04893e-07 1.2141e-15)
(0.135099 -1.04669e-07 1.26707e-15)
(0.135099 -1.04723e-07 1.21815e-15)
(0.135099 -1.05253e-07 1.28869e-15)
(0.135099 -1.06102e-07 1.2704e-15)
(0.135099 -1.07414e-07 1.18652e-15)
(0.135099 -1.0854e-07 1.25469e-15)
(0.135099 -1.08923e-07 1.18215e-15)
(0.135099 -1.07612e-07 1.15664e-15)
(0.135099 -9.91054e-08 1.19257e-15)
(0.135099 -8.84956e-08 1.15683e-15)
(0.135099 -3.90075e-08 1.16445e-15)
(0.135099 -7.8708e-09 1.02068e-15)
(0.135099 1.87194e-07 1.06738e-15)
(0.135098 6.39194e-07 9.25877e-16)
(0.135098 4.69975e-07 9.07827e-16)
(0.135099 3.04065e-07 9.34339e-16)
(0.135099 2.00607e-07 8.90699e-16)
(0.135099 1.22649e-07 9.0139e-16)
(0.135099 6.71772e-08 9.31611e-16)
(0.135099 2.54829e-08 9.15475e-16)
(0.135099 -1.11835e-08 9.11833e-16)
(0.135098 -4.42117e-08 8.87189e-16)
(0.135098 -7.96612e-08 9.05986e-16)
(0.135098 -1.11787e-07 9.43775e-16)
(0.135098 -1.51088e-07 9.48879e-16)
(0.135099 -1.78078e-07 9.69684e-16)
(0.135099 -2.18569e-07 9.57444e-16)
(0.135099 -2.29138e-07 9.48101e-16)
(0.135099 -2.64375e-07 9.94043e-16)
(0.135935 -3.29331e-07 1.19965e-15)
(0.135935 -2.94905e-07 1.10689e-15)
(0.135935 -3.23195e-07 1.07824e-15)
(0.135935 -3.17874e-07 1.14995e-15)
(0.135935 -3.05536e-07 1.23894e-15)
(0.135935 -2.86121e-07 1.22317e-15)
(0.135935 -2.61356e-07 1.22914e-15)
(0.135936 -2.3601e-07 1.25562e-15)
(0.135936 -2.11747e-07 1.28004e-15)
(0.135936 -1.89745e-07 1.30286e-15)
(0.135936 -1.70565e-07 1.35414e-15)
(0.135936 -1.54301e-07 1.25707e-15)
(0.135936 -1.40838e-07 1.3075e-15)
(0.135936 -1.29945e-07 1.25967e-15)
(0.135936 -1.21338e-07 1.29618e-15)
(0.135936 -1.14718e-07 1.45678e-15)
(0.135936 -1.09786e-07 1.38694e-15)
(0.135936 -1.06251e-07 1.40761e-15)
(0.135935 -1.03833e-07 1.33711e-15)
(0.135935 -1.02263e-07 1.38867e-15)
(0.135935 -1.01288e-07 1.36297e-15)
(0.135935 -1.00676e-07 1.50831e-15)
(0.135935 -1.00232e-07 1.62788e-15)
(0.135935 -9.98102e-08 1.47711e-15)
(0.135935 -9.93265e-08 1.59075e-15)
(0.135935 -9.87476e-08 1.51409e-15)
(0.135935 -9.80818e-08 1.44229e-15)
(0.135935 -9.73567e-08 1.63341e-15)
(0.135935 -9.66199e-08 1.46411e-15)
(0.135935 -9.59186e-08 1.58333e-15)
(0.135935 -9.53375e-08 1.47589e-15)
(0.135935 -9.49446e-08 1.37305e-15)
(0.135935 -9.48919e-08 1.46892e-15)
(0.135934 -9.52252e-08 1.40027e-15)
(0.135934 -9.61595e-08 1.47615e-15)
(0.135934 -9.75467e-08 1.43384e-15)
(0.135934 -9.95867e-08 1.35486e-15)
(0.135934 -1.0161e-07 1.55714e-15)
(0.135934 -1.03303e-07 1.36673e-15)
(0.135934 -1.03438e-07 1.34515e-15)
(0.135934 -9.77887e-08 1.4027e-15)
(0.135934 -8.93389e-08 1.28385e-15)
(0.135934 -4.90471e-08 1.33601e-15)
(0.135934 -2.01892e-08 1.22467e-15)
(0.135934 1.32445e-07 1.28581e-15)
(0.135933 5.58725e-07 1.17067e-15)
(0.135933 4.31189e-07 1.18198e-15)
(0.135934 2.88247e-07 1.22778e-15)
(0.135934 1.95626e-07 1.07532e-15)
(0.135934 1.23076e-07 1.23505e-15)
(0.135934 6.95126e-08 1.17918e-15)
(0.135934 2.82354e-08 1.19276e-15)
(0.135934 -8.7746e-09 1.21206e-15)
(0.135934 -4.26077e-08 1.10776e-15)
(0.135934 -7.93311e-08 1.16806e-15)
(0.135934 -1.13075e-07 1.19409e-15)
(0.135934 -1.55158e-07 1.21947e-15)
(0.135934 -1.8514e-07 1.26532e-15)
(0.135934 -2.32921e-07 1.17588e-15)
(0.135934 -2.49527e-07 1.21274e-15)
(0.135934 -3.05327e-07 1.23012e-15)
(0.136739 -3.80353e-07 1.45653e-15)
(0.136739 -3.28011e-07 1.3315e-15)
(0.136739 -3.4412e-07 1.33982e-15)
(0.136739 -3.32359e-07 1.34772e-15)
(0.13674 -3.15606e-07 1.43589e-15)
(0.13674 -2.93674e-07 1.44902e-15)
(0.13674 -2.67207e-07 1.46685e-15)
(0.13674 -2.40543e-07 1.49292e-15)
(0.13674 -2.15167e-07 1.50699e-15)
(0.13674 -1.9214e-07 1.52112e-15)
(0.13674 -1.71988e-07 1.57816e-15)
(0.13674 -1.54784e-07 1.49698e-15)
(0.13674 -1.4041e-07 1.52481e-15)
(0.13674 -1.28627e-07 1.49526e-15)
(0.13674 -1.19149e-07 1.49451e-15)
(0.13674 -1.11674e-07 1.57741e-15)
(0.13674 -1.05902e-07 1.58379e-15)
(0.13674 -1.01544e-07 1.61096e-15)
(0.13674 -9.83239e-08 1.58054e-15)
(0.13674 -9.59822e-08 1.59863e-15)
(0.136739 -9.42726e-08 1.5247e-15)
(0.136739 -9.29718e-08 1.58949e-15)
(0.136739 -9.18918e-08 1.70126e-15)
(0.136739 -9.08939e-08 1.6095e-15)
(0.136739 -8.98967e-08 1.65197e-15)
(0.136739 -8.88697e-08 1.64519e-15)
(0.136739 -8.78241e-08 1.5959e-15)
(0.136739 -8.67914e-08 1.67975e-15)
(0.136739 -8.58245e-08 1.60709e-15)
(0.136739 -8.49769e-08 1.65116e-15)
(0.136739 -8.43405e-08 1.59809e-15)
(0.136739 -8.39904e-08 1.52495e-15)
(0.136739 -8.40872e-08 1.61025e-15)
(0.136738 -8.46857e-08 1.54046e-15)
(0.136738 -8.6019e-08 1.57688e-15)
(0.136738 -8.79504e-08 1.55594e-15)
(0.136738 -9.07377e-08 1.50976e-15)
(0.136738 -9.3698e-08 1.61505e-15)
(0.136738 -9.67653e-08 1.50109e-15)
(0.136738 -9.84454e-08 1.45417e-15)
(0.136738 -9.58208e-08 1.5259e-15)
(0.136738 -8.97865e-08 1.37195e-15)
(0.136738 -5.90267e-08 1.42993e-15)
(0.136738 -3.35197e-08 1.40881e-15)
(0.136738 7.92724e-08 1.44217e-15)
(0.136737 4.78878e-07 1.29849e-15)
(0.136737 3.88955e-07 1.35856e-15)
(0.136738 2.68133e-07 1.31516e-15)
(0.136738 1.86902e-07 1.21635e-15)
(0.136738 1.20789e-07 1.32915e-15)
(0.136738 7.00377e-08 1.30865e-15)
(0.136738 2.98157e-08 1.36546e-15)
(0.136738 -7.11497e-09 1.40843e-15)
(0.136738 -4.14919e-08 1.29128e-15)
(0.136738 -7.93254e-08 1.35945e-15)
(0.136738 -1.14618e-07 1.32172e-15)
(0.136738 -1.5944e-07 1.39198e-15)
(0.136738 -1.92496e-07 1.4567e-15)
(0.136738 -2.47533e-07 1.35995e-15)
(0.136738 -2.70482e-07 1.3938e-15)
(0.136738 -3.46094e-07 1.36416e-15)
(0.137513 -4.30937e-07 1.68842e-15)
(0.137513 -3.61813e-07 1.60949e-15)
(0.137513 -3.65654e-07 1.58661e-15)
(0.137513 -3.47287e-07 1.56739e-15)
(0.137513 -3.25873e-07 1.64195e-15)
(0.137513 -3.01223e-07 1.67385e-15)
(0.137513 -2.72939e-07 1.70971e-15)
(0.137513 -2.44887e-07 1.70822e-15)
(0.137513 -2.18355e-07 1.73295e-15)
(0.137513 -1.94281e-07 1.74406e-15)
(0.137513 -1.73138e-07 1.79693e-15)
(0.137513 -1.54981e-07 1.70337e-15)
(0.137513 -1.39679e-07 1.74816e-15)
(0.137513 -1.26991e-07 1.70806e-15)
(0.137513 -1.16624e-07 1.6922e-15)
(0.137513 -1.08274e-07 1.79395e-15)
(0.137513 -1.0164e-07 1.77568e-15)
(0.137513 -9.64332e-08 1.80419e-15)
(0.137513 -9.23846e-08 1.79806e-15)
(0.137513 -8.92395e-08 1.79839e-15)
(0.137513 -8.67606e-08 1.75806e-15)
(0.137513 -8.47329e-08 1.83177e-15)
(0.137513 -8.29766e-08 1.85226e-15)
(0.137513 -8.13592e-08 1.79319e-15)
(0.137513 -7.98032e-08 1.82301e-15)
(0.137513 -7.82819e-08 1.87499e-15)
(0.137513 -7.68097e-08 1.80405e-15)
(0.137513 -7.5423e-08 1.83033e-15)
(0.137513 -7.41809e-08 1.87917e-15)
(0.137512 -7.31444e-08 1.81888e-15)
(0.137512 -7.24134e-08 1.78961e-15)
(0.137512 -7.20714e-08 1.73524e-15)
(0.137512 -7.22888e-08 1.75983e-15)
(0.137512 -7.31309e-08 1.73163e-15)
(0.137512 -7.48499e-08 1.85241e-15)
(0.137512 -7.73235e-08 1.83968e-15)
(0.137512 -8.08692e-08 1.81227e-15)
(0.137512 -8.47958e-08 1.76536e-15)
(0.137512 -8.92926e-08 1.69375e-15)
(0.137512 -9.26096e-08 1.64388e-15)
(0.137512 -9.31566e-08 1.67212e-15)
(0.137512 -8.97944e-08 1.52281e-15)
(0.137512 -6.87895e-08 1.55716e-15)
(0.137512 -4.7673e-08 1.57843e-15)
(0.137512 2.79057e-08 1.59992e-15)
(0.137511 4.00431e-07 1.5149e-15)
(0.137511 3.44446e-07 1.56349e-15)
(0.137511 2.44671e-07 1.52594e-15)
(0.137511 1.74882e-07 1.39258e-15)
(0.137512 1.15826e-07 1.50444e-15)
(0.137512 6.85806e-08 1.51617e-15)
(0.137512 2.99799e-08 1.5707e-15)
(0.137512 -6.45236e-09 1.6112e-15)
(0.137512 -4.10913e-08 1.45466e-15)
(0.137512 -7.98441e-08 1.54808e-15)
(0.137512 -1.16589e-07 1.53714e-15)
(0.137512 -1.6408e-07 1.59613e-15)
(0.137512 -2.00271e-07 1.65496e-15)
(0.137512 -2.62473e-07 1.51003e-15)
(0.137512 -2.92051e-07 1.59579e-15)
(0.137512 -3.86607e-07 1.57035e-15)
(0.138256 -4.80895e-07 1.86091e-15)
(0.138256 -3.96127e-07 1.83061e-15)
(0.138257 -3.87719e-07 1.83794e-15)
(0.138257 -3.62675e-07 1.74488e-15)
(0.138257 -3.36408e-07 1.88727e-15)
(0.138257 -3.08849e-07 1.90275e-15)
(0.138257 -2.78623e-07 1.95944e-15)
(0.138257 -2.49101e-07 1.91403e-15)
(0.138257 -2.21368e-07 1.94647e-15)
(0.138257 -1.96217e-07 1.96794e-15)
(0.138257 -1.74065e-07 1.93556e-15)
(0.138257 -1.54939e-07 1.86321e-15)
(0.138257 -1.38697e-07 1.88921e-15)
(0.138257 -1.25089e-07 1.89553e-15)
(0.138257 -1.13818e-07 1.88467e-15)
(0.138257 -1.04576e-07 1.9402e-15)
(0.138257 -9.70604e-08 1.96854e-15)
(0.138257 -9.09847e-08 1.99737e-15)
(0.138257 -8.60825e-08 2.00217e-15)
(0.138257 -8.21057e-08 2.00042e-15)
(0.138257 -7.88251e-08 1.96956e-15)
(0.138257 -7.60346e-08 2.01094e-15)
(0.138257 -7.35625e-08 2.01133e-15)
(0.138257 -7.1283e-08 1.97971e-15)
(0.138257 -6.91236e-08 2.01546e-15)
(0.138257 -6.70612e-08 2.00452e-15)
(0.138256 -6.51146e-08 1.98664e-15)
(0.138256 -6.33257e-08 1.97632e-15)
(0.138256 -6.17606e-08 1.97112e-15)
(0.138256 -6.04887e-08 1.99584e-15)
(0.138256 -5.96191e-08 1.96564e-15)
(0.138256 -5.9245e-08 1.93317e-15)
(0.138256 -5.95476e-08 1.91576e-15)
(0.138256 -6.06046e-08 1.91349e-15)
(0.138256 -6.26886e-08 1.94344e-15)
(0.138256 -6.5694e-08 1.92891e-15)
(0.138256 -7.00004e-08 1.92227e-15)
(0.138255 -7.49143e-08 1.91618e-15)
(0.138255 -8.08842e-08 1.87005e-15)
(0.138255 -8.59216e-08 1.84196e-15)
(0.138255 -8.97634e-08 1.82282e-15)
(0.138255 -8.93248e-08 1.7428e-15)
(0.138255 -7.81964e-08 1.72438e-15)
(0.138255 -6.24346e-08 1.79643e-15)
(0.138255 -2.14816e-08 1.77224e-15)
(0.138255 3.23911e-07 1.71906e-15)
(0.138255 2.98573e-07 1.68812e-15)
(0.138255 2.18753e-07 1.70575e-15)
(0.138255 1.60162e-07 1.63095e-15)
(0.138255 1.0845e-07 1.67063e-15)
(0.138255 6.51757e-08 1.72022e-15)
(0.138255 2.86392e-08 1.69916e-15)
(0.138255 -6.92691e-09 1.71161e-15)
(0.138255 -4.15592e-08 1.66371e-15)
(0.138255 -8.10366e-08 1.69668e-15)
(0.138255 -1.19129e-07 1.73971e-15)
(0.138255 -1.69199e-07 1.72365e-15)
(0.138255 -2.08566e-07 1.75249e-15)
(0.138255 -2.77799e-07 1.71569e-15)
(0.138256 -3.14251e-07 1.74159e-15)
(0.138256 -4.26808e-07 1.77017e-15)
(0.138971 -5.30062e-07 2.04138e-15)
(0.138971 -4.30778e-07 2.03221e-15)
(0.138971 -4.1021e-07 2.03749e-15)
(0.138971 -3.7849e-07 2.00413e-15)
(0.138971 -3.47239e-07 2.07259e-15)
(0.138971 -3.16607e-07 2.13198e-15)
(0.138971 -2.84319e-07 2.08369e-15)
(0.138971 -2.53245e-07 2.06507e-15)
(0.138972 -2.24258e-07 2.19445e-15)
(0.138972 -1.98e-07 2.15062e-15)
(0.138972 -1.7482e-07 2.03254e-15)
(0.138972 -1.54713e-07 2.00818e-15)
(0.138972 -1.37518e-07 2.04016e-15)
(0.138972 -1.22979e-07 2.07909e-15)
(0.138972 -1.10792e-07 2.06825e-15)
(0.138971 -1.00645e-07 2.13642e-15)
(0.138971 -9.22327e-08 2.16587e-15)
(0.138971 -8.527e-08 2.18708e-15)
(0.138971 -7.94929e-08 2.20342e-15)
(0.138971 -7.46594e-08 2.18648e-15)
(0.138971 -7.05479e-08 2.16331e-15)
(0.138971 -6.69612e-08 2.20069e-15)
(0.138971 -6.37361e-08 2.19008e-15)
(0.138971 -6.07538e-08 2.14757e-15)
(0.138971 -5.7947e-08 2.19408e-15)
(0.138971 -5.52974e-08 2.13857e-15)
(0.138971 -5.28283e-08 2.12367e-15)
(0.138971 -5.05878e-08 2.12282e-15)
(0.138971 -4.86496e-08 2.12192e-15)
(0.138971 -4.7093e-08 2.15538e-15)
(0.13897 -4.60368e-08 2.11879e-15)
(0.13897 -4.55855e-08 2.0903e-15)
(0.13897 -4.59322e-08 2.0771e-15)
(0.13897 -4.71687e-08 2.07256e-15)
(0.13897 -4.95892e-08 2.12427e-15)
(0.13897 -5.31081e-08 2.08571e-15)
(0.13897 -5.81685e-08 2.07756e-15)
(0.13897 -6.40814e-08 2.0683e-15)
(0.13897 -7.15565e-08 2.03516e-15)
(0.13897 -7.83874e-08 2.01779e-15)
(0.13897 -8.56225e-08 1.98479e-15)
(0.13897 -8.83474e-08 1.95045e-15)
(0.13897 -8.71254e-08 1.90471e-15)
(0.13897 -7.75818e-08 1.94229e-15)
(0.13897 -6.8739e-08 1.9509e-15)
(0.138969 2.49711e-07 1.93587e-15)
(0.138969 2.52043e-07 1.80607e-15)
(0.138969 1.91153e-07 1.89556e-15)
(0.13897 1.43369e-07 1.91006e-15)
(0.13897 9.90556e-08 1.86234e-15)
(0.13897 6.00146e-08 1.94142e-15)
(0.13897 2.58451e-08 1.82143e-15)
(0.13897 -8.56807e-09 1.82277e-15)
(0.13897 -4.29659e-08 1.87861e-15)
(0.13897 -8.29896e-08 1.86558e-15)
(0.13897 -1.22327e-07 1.95655e-15)
(0.13897 -1.74878e-07 1.84483e-15)
(0.13897 -2.17452e-07 1.86053e-15)
(0.13897 -2.93542e-07 1.91307e-15)
(0.13897 -3.37074e-07 1.90559e-15)
(0.13897 -4.66636e-07 1.98288e-15)
(0.139656 -5.78281e-07 2.23876e-15)
(0.139656 -4.65595e-07 2.22856e-15)
(0.139657 -4.33011e-07 2.23767e-15)
(0.139657 -3.94668e-07 2.25827e-15)
(0.139657 -3.58361e-07 2.19333e-15)
(0.139657 -3.24522e-07 2.33345e-15)
(0.139657 -2.90069e-07 2.21488e-15)
(0.139657 -2.57365e-07 2.19562e-15)
(0.139657 -2.27074e-07 2.27423e-15)
(0.139657 -1.9968e-07 2.09632e-15)
(0.139657 -1.75455e-07 2.123e-15)
(0.139657 -1.54355e-07 2.15485e-15)
(0.139657 -1.36201e-07 2.20354e-15)
(0.139657 -1.20723e-07 2.2688e-15)
(0.139657 -1.07611e-07 2.23862e-15)
(0.139657 -9.65492e-08 2.35251e-15)
(0.139657 -8.72295e-08 2.37042e-15)
(0.139657 -7.9366e-08 2.38639e-15)
(0.139657 -7.26973e-08 2.41061e-15)
(0.139657 -6.69862e-08 2.366e-15)
(0.139657 -6.20184e-08 2.36746e-15)
(0.139657 -5.76056e-08 2.38806e-15)
(0.139657 -5.35931e-08 2.3739e-15)
(0.139657 -4.98694e-08 2.32261e-15)
(0.139657 -4.63734e-08 2.38932e-15)
(0.139657 -4.30914e-08 2.26704e-15)
(0.139656 -4.0052e-08 2.26689e-15)
(0.139656 -3.73101e-08 2.27427e-15)
(0.139656 -3.49479e-08 2.27821e-15)
(0.139656 -3.30548e-08 2.29812e-15)
(0.139656 -3.17609e-08 2.28025e-15)
(0.139656 -3.11831e-08 2.25118e-15)
(0.139656 -3.15276e-08 2.24194e-15)
(0.139656 -3.29019e-08 2.23692e-15)
(0.139656 -3.56236e-08 2.31714e-15)
(0.139656 -3.96296e-08 2.21623e-15)
(0.139655 -4.54283e-08 2.22942e-15)
(0.139655 -5.23425e-08 2.22321e-15)
(0.139655 -6.13424e-08 2.20014e-15)
(0.139655 -7.00291e-08 2.22423e-15)
(0.139655 -8.073e-08 2.1533e-15)
(0.139655 -8.68409e-08 2.15845e-15)
(0.139655 -9.54713e-08 2.08147e-15)
(0.139655 -9.28952e-08 2.14894e-15)
(0.139655 -1.13726e-07 2.12921e-15)
(0.139655 1.78146e-07 2.07976e-15)
(0.139655 2.0542e-07 1.98021e-15)
(0.139655 1.62517e-07 2.03796e-15)
(0.139655 1.25097e-07 2.14381e-15)
(0.139655 8.80897e-08 2.04306e-15)
(0.139655 5.3389e-08 2.09069e-15)
(0.139655 2.17593e-08 1.99694e-15)
(0.139655 -1.13062e-08 1.95737e-15)
(0.139655 -4.52992e-08 2.10021e-15)
(0.139655 -8.57238e-08 2.03118e-15)
(0.139655 -1.26222e-07 2.1024e-15)
(0.139655 -1.81157e-07 2.01858e-15)
(0.139656 -2.26964e-07 1.99156e-15)
(0.139656 -3.09704e-07 2.13101e-15)
(0.139656 -3.60479e-07 2.06619e-15)
(0.139656 -5.0601e-07 2.12675e-15)
(0.140314 -6.25387e-07 2.37138e-15)
(0.140314 -5.00402e-07 2.41632e-15)
(0.140314 -4.55996e-07 2.3976e-15)
(0.140314 -4.11123e-07 2.41148e-15)
(0.140314 -3.69736e-07 2.28871e-15)
(0.140314 -3.32594e-07 2.47995e-15)
(0.140314 -2.95894e-07 2.32458e-15)
(0.140314 -2.61495e-07 2.35052e-15)
(0.140314 -2.29857e-07 2.3877e-15)
(0.140314 -2.01301e-07 2.22724e-15)
(0.140314 -1.76017e-07 2.25395e-15)
(0.140314 -1.53918e-07 2.32275e-15)
(0.140314 -1.348e-07 2.37911e-15)
(0.140314 -1.1838e-07 2.4705e-15)
(0.140314 -1.04341e-07 2.48623e-15)
(0.140314 -9.236e-08 2.50886e-15)
(0.140314 -8.21264e-08 2.57361e-15)
(0.140314 -7.33534e-08 2.5973e-15)
(0.140314 -6.5781e-08 2.62546e-15)
(0.140314 -5.91762e-08 2.63294e-15)
(0.140314 -5.33314e-08 2.59169e-15)
(0.140314 -4.80668e-08 2.59103e-15)
(0.140314 -4.32363e-08 2.54607e-15)
(0.140314 -3.87361e-08 2.50346e-15)
(0.140314 -3.45114e-08 2.52662e-15)
(0.140314 -3.05537e-08 2.44525e-15)
(0.140314 -2.68977e-08 2.43492e-15)
(0.140314 -2.36051e-08 2.43257e-15)
(0.140314 -2.07674e-08 2.4436e-15)
(0.140313 -1.84849e-08 2.46537e-15)
(0.140313 -1.68998e-08 2.42626e-15)
(0.140313 -1.61427e-08 2.41879e-15)
(0.140313 -1.64341e-08 2.40997e-15)