/*--------------------------------*- C++ -*----------------------------------*\
  =========                 |
  \\      /  F ield         | OpenFOAM: The Open Source CFD Toolbox
   \\    /   O peration     | Website:  https://openfoam.org
    \\  /    A nd           | Version:  7
     \\/     M anipulation  |
\*---------------------------------------------------------------------------*/
FoamFile
{
    version     2.0;
    format      ascii;
    class       volVectorField;
    location    "16500";
    object      U;
}
// * * * * * * * * * * * * * * * * * * * * * * * * * * * * * * * * * * * * * //

dimensions      [0 1 -1 0 0 0 0];

internalField   nonuniform List<vector> 
4000
(
(0.145231 -2.17762e-08 3.16146e-14)
(0.145231 -2.61472e-08 3.15961e-14)
(0.145231 -2.94797e-08 3.15365e-14)
(0.145231 -3.23924e-08 3.15448e-14)
(0.145231 -3.50531e-08 3.14842e-14)
(0.145231 -3.7504e-08 3.14502e-14)
(0.145231 -3.97619e-08 3.14964e-14)
(0.145231 -4.1806e-08 3.14964e-14)
(0.145231 -4.36241e-08 3.14854e-14)
(0.145231 -4.52379e-08 3.15252e-14)
(0.145231 -4.66582e-08 3.15243e-14)
(0.145231 -4.78864e-08 3.14336e-14)
(0.145231 -4.89418e-08 3.14398e-14)
(0.145231 -4.98362e-08 3.13643e-14)
(0.145231 -5.05764e-08 3.13887e-14)
(0.145231 -5.11813e-08 3.13733e-14)
(0.145231 -5.1668e-08 3.12876e-14)
(0.145231 -5.20549e-08 3.13096e-14)
(0.145231 -5.23411e-08 3.12516e-14)
(0.145231 -5.25232e-08 3.12903e-14)
(0.145231 -5.26096e-08 3.12799e-14)
(0.145231 -5.25883e-08 3.13138e-14)
(0.145231 -5.24602e-08 3.13132e-14)
(0.145231 -5.22238e-08 3.12987e-14)
(0.145231 -5.18657e-08 3.13225e-14)
(0.145231 -5.1406e-08 3.12949e-14)
(0.145231 -5.08668e-08 3.12786e-14)
(0.145231 -5.02563e-08 3.12792e-14)
(0.14523 -4.95981e-08 3.12735e-14)
(0.14523 -4.89098e-08 3.13043e-14)
(0.14523 -4.8195e-08 3.12737e-14)
(0.14523 -4.74676e-08 3.12493e-14)
(0.14523 -4.6723e-08 3.1242e-14)
(0.14523 -4.59355e-08 3.12413e-14)
(0.14523 -4.50737e-08 3.12654e-14)
(0.14523 -4.40733e-08 3.12304e-14)
(0.14523 -4.28499e-08 3.12022e-14)
(0.14523 -4.12787e-08 3.11985e-14)
(0.14523 -3.91544e-08 3.11837e-14)
(0.14523 -3.61931e-08 3.122e-14)
(0.14523 -3.19627e-08 3.12199e-14)
(0.14523 -2.58294e-08 3.12054e-14)
(0.14523 -1.66026e-08 3.11833e-14)
(0.14523 -2.40753e-09 3.11882e-14)
(0.14523 2.04722e-08 3.1194e-14)
(0.14523 4.43057e-08 3.11894e-14)
(0.14523 5.95415e-08 3.11972e-14)
(0.14523 6.87653e-08 3.11772e-14)
(0.14523 7.43821e-08 3.11812e-14)
(0.14523 7.754e-08 3.11862e-14)
(0.14523 7.90356e-08 3.11801e-14)
(0.14523 7.93881e-08 3.1172e-14)
(0.14523 7.89259e-08 3.11605e-14)
(0.14523 7.78808e-08 3.11591e-14)
(0.14523 7.64367e-08 3.11416e-14)
(0.14523 7.47094e-08 3.11646e-14)
(0.14523 7.27596e-08 3.12085e-14)
(0.14523 7.06575e-08 3.11858e-14)
(0.14523 6.84707e-08 3.11599e-14)
(0.14523 6.6219e-08 3.11463e-14)
(0.14523 6.39181e-08 3.11559e-14)
(0.14523 6.15796e-08 3.11763e-14)
(0.14523 5.92157e-08 3.11812e-14)
(0.14523 5.68458e-08 3.11814e-14)
(0.14523 5.4469e-08 3.11776e-14)
(0.14523 5.20911e-08 3.12003e-14)
(0.14523 4.9729e-08 3.12259e-14)
(0.14523 4.73822e-08 3.12185e-14)
(0.14523 4.50558e-08 3.12344e-14)
(0.14523 4.27517e-08 3.12213e-14)
(0.14523 4.04773e-08 3.12373e-14)
(0.14523 3.8225e-08 3.12792e-14)
(0.14523 3.59752e-08 3.12755e-14)
(0.14523 3.3721e-08 3.12629e-14)
(0.14523 3.14667e-08 3.12642e-14)
(0.14523 2.92111e-08 3.12914e-14)
(0.14523 2.69289e-08 3.13318e-14)
(0.14523 2.46162e-08 3.13244e-14)
(0.14523 2.22578e-08 3.13164e-14)
(0.14523 1.9845e-08 3.13091e-14)
(0.14523 1.73859e-08 3.13053e-14)
(0.14523 1.48668e-08 3.13322e-14)
(0.14523 1.22716e-08 3.13394e-14)
(0.14523 9.59762e-09 3.13518e-14)
(0.14523 6.84014e-09 3.13923e-14)
(0.14523 3.9914e-09 3.14082e-14)
(0.14523 1.04438e-09 3.14254e-14)
(0.14523 -1.99548e-09 3.14091e-14)
(0.14523 -5.12617e-09 3.13951e-14)
(0.14523 -8.34462e-09 3.14124e-14)
(0.14523 -1.16343e-08 3.14201e-14)
(0.14523 -1.49921e-08 3.14369e-14)
(0.14523 -1.8384e-08 3.14284e-14)
(0.14523 -2.17574e-08 3.14311e-14)
(0.14523 -2.50638e-08 3.14583e-14)
(0.14523 -2.82147e-08 3.14781e-14)
(0.14523 -3.10662e-08 3.15134e-14)
(0.14523 -3.34199e-08 3.15127e-14)
(0.14523 -3.50079e-08 3.15114e-14)
(0.14523 -3.53919e-08 3.15303e-14)
(0.14523 -3.39257e-08 3.15308e-14)
(0.14523 -2.94255e-08 3.15444e-14)
(0.14523 -1.99779e-08 3.15272e-14)
(0.14523 -1.84287e-09 3.1517e-14)
(0.14523 1.72738e-08 3.15413e-14)
(0.145231 2.7858e-08 3.15478e-14)
(0.145231 3.25332e-08 3.15686e-14)
(0.145231 3.37523e-08 3.15564e-14)
(0.145231 3.27e-08 3.15442e-14)
(0.145231 3.02e-08 3.15651e-14)
(0.145231 2.6776e-08 3.15607e-14)
(0.145231 2.27846e-08 3.15588e-14)
(0.145231 1.84694e-08 3.15485e-14)
(0.145231 1.40194e-08 3.1549e-14)
(0.145231 9.5834e-09 3.15846e-14)
(0.145231 5.2607e-09 3.15981e-14)
(0.145231 1.1221e-09 3.15984e-14)
(0.145231 -2.88282e-09 3.15861e-14)
(0.145231 -7.48795e-09 3.15887e-14)
(0.145231 -1.46592e-08 3.16104e-14)
(0.145218 -2.73768e-08 3.15812e-14)
(0.145218 -3.24289e-08 3.1561e-14)
(0.145218 -3.48582e-08 3.14594e-14)
(0.145218 -3.65241e-08 3.14716e-14)
(0.145218 -3.79616e-08 3.1402e-14)
(0.145218 -3.9301e-08 3.14941e-14)
(0.145218 -4.05685e-08 3.16138e-14)
(0.145218 -4.17375e-08 3.15313e-14)
(0.145218 -4.27925e-08 3.15583e-14)
(0.145218 -4.37393e-08 3.15895e-14)
(0.145218 -4.45732e-08 3.15303e-14)
(0.145218 -4.52926e-08 3.14536e-14)
(0.145218 -4.59079e-08 3.14123e-14)
(0.145218 -4.64215e-08 3.13591e-14)
(0.145218 -4.68322e-08 3.13418e-14)
(0.145218 -4.71507e-08 3.13254e-14)
(0.145218 -4.73865e-08 3.1283e-14)
(0.145218 -4.75566e-08 3.12696e-14)
(0.145218 -4.76596e-08 3.12389e-14)
(0.145218 -4.76869e-08 3.12354e-14)
(0.145218 -4.7637e-08 3.1171e-14)
(0.145218 -4.74987e-08 3.13408e-14)
(0.145218 -4.72707e-08 3.12822e-14)
(0.145218 -4.69411e-08 3.12651e-14)
(0.145218 -4.64946e-08 3.13354e-14)
(0.145218 -4.5952e-08 3.124e-14)
(0.145218 -4.5328e-08 3.12491e-14)
(0.145218 -4.46255e-08 3.12541e-14)
(0.145218 -4.38728e-08 3.12111e-14)
(0.145218 -4.30914e-08 3.13891e-14)
(0.145218 -4.22786e-08 3.12432e-14)
(0.145218 -4.14457e-08 3.12453e-14)
(0.145218 -4.05798e-08 3.12429e-14)
(0.145218 -3.9655e-08 3.12521e-14)
(0.145218 -3.86408e-08 3.13282e-14)
(0.145218 -3.74635e-08 3.12216e-14)
(0.145218 -3.6031e-08 3.11665e-14)
(0.145218 -3.42119e-08 3.1214e-14)
(0.145217 -3.18119e-08 3.11646e-14)
(0.145217 -2.85442e-08 3.12912e-14)
(0.145217 -2.39824e-08 3.12806e-14)
(0.145217 -1.75386e-08 3.12598e-14)
(0.145217 -8.20055e-09 3.12446e-14)
(0.145217 5.32699e-09 3.1246e-14)
(0.145217 2.53175e-08 3.12498e-14)
(0.145217 4.62562e-08 3.12476e-14)
(0.145217 6.09633e-08 3.12452e-14)
(0.145217 7.05221e-08 3.12369e-14)
(0.145217 7.6562e-08 3.12397e-14)
(0.145217 8.00734e-08 3.12435e-14)
(0.145217 8.18215e-08 3.12408e-14)
(0.145217 8.23394e-08 3.12357e-14)
(0.145217 8.19711e-08 3.12273e-14)
(0.145217 8.09502e-08 3.12195e-14)
(0.145217 7.94752e-08 3.12114e-14)
(0.145217 7.76659e-08 3.12316e-14)
(0.145217 7.55851e-08 3.12548e-14)
(0.145217 7.33174e-08 3.12501e-14)
(0.145217 7.09333e-08 3.12384e-14)
(0.145217 6.8457e-08 3.12258e-14)
(0.145217 6.59147e-08 3.1234e-14)
(0.145217 6.33124e-08 3.12538e-14)
(0.145217 6.06716e-08 3.12634e-14)
(0.145217 5.80146e-08 3.12664e-14)
(0.145217 5.53334e-08 3.12625e-14)
(0.145217 5.26471e-08 3.12803e-14)
(0.145217 4.99686e-08 3.12997e-14)
(0.145217 4.72967e-08 3.13069e-14)
(0.145217 4.46422e-08 3.13141e-14)
(0.145217 4.20032e-08 3.13097e-14)
(0.145217 3.93913e-08 3.13224e-14)
(0.145217 3.68024e-08 3.13507e-14)
(0.145217 3.4217e-08 3.13621e-14)
(0.145217 3.16247e-08 3.13643e-14)
(0.145217 2.90338e-08 3.13653e-14)
(0.145217 2.64495e-08 3.13875e-14)
(0.145217 2.3839e-08 3.14132e-14)
(0.145217 2.12059e-08 3.14187e-14)
(0.145217 1.85343e-08 3.14176e-14)
(0.145217 1.58144e-08 3.14067e-14)
(0.145217 1.30564e-08 3.13577e-14)
(0.145217 1.02473e-08 3.14069e-14)
(0.145217 7.37553e-09 3.1407e-14)
(0.145217 4.44317e-09 3.13994e-14)
(0.145217 1.44709e-09 3.14555e-14)
(0.145217 -1.6267e-09 3.14422e-14)
(0.145217 -4.77643e-09 3.14906e-14)
(0.145217 -7.99611e-09 3.14582e-14)
(0.145217 -1.12757e-08 3.14195e-14)
(0.145217 -1.46064e-08 3.1446e-14)
(0.145217 -1.79834e-08 3.14227e-14)
(0.145218 -2.13855e-08 3.1473e-14)
(0.145218 -2.4769e-08 3.14605e-14)
(0.145218 -2.80851e-08 3.14452e-14)
(0.145218 -3.12816e-08 3.14756e-14)
(0.145218 -3.42596e-08 3.14648e-14)
(0.145218 -3.68699e-08 3.15276e-14)
(0.145218 -3.8918e-08 3.15323e-14)
(0.145218 -4.01375e-08 3.15184e-14)
(0.145218 -4.01109e-08 3.15425e-14)
(0.145218 -3.82243e-08 3.1516e-14)
(0.145218 -3.34611e-08 3.15647e-14)
(0.145218 -2.44953e-08 3.15424e-14)
(0.145218 -9.02686e-09 3.15145e-14)
(0.145218 7.46964e-09 3.15572e-14)
(0.145218 1.78539e-08 3.15362e-14)
(0.145218 2.32579e-08 3.15762e-14)
(0.145218 2.53795e-08 3.15561e-14)
(0.145218 2.52572e-08 3.15257e-14)
(0.145218 2.3693e-08 3.15542e-14)
(0.145218 2.12357e-08 3.15232e-14)
(0.145218 1.82724e-08 3.15147e-14)
(0.145218 1.50788e-08 3.1516e-14)
(0.145218 1.18737e-08 3.15128e-14)
(0.145218 8.82616e-09 3.1571e-14)
(0.145218 6.05189e-09 3.15522e-14)
(0.145218 3.62863e-09 3.15493e-14)
(0.145218 1.31272e-09 3.15435e-14)
(0.145218 -2.94859e-09 3.1539e-14)
(0.145218 -1.49244e-08 3.15833e-14)
(0.145194 -3.28714e-08 3.15623e-14)
(0.145194 -3.8484e-08 3.15291e-14)
(0.145194 -3.99072e-08 3.14729e-14)
(0.145194 -4.02529e-08 3.1459e-14)
(0.145194 -4.04084e-08 3.14288e-14)
(0.145194 -4.05801e-08 3.14555e-14)
(0.145194 -4.0802e-08 3.15085e-14)
(0.145194 -4.10535e-08 3.14972e-14)
(0.145194 -4.13076e-08 3.1499e-14)
(0.145194 -4.15511e-08 3.15118e-14)
(0.145194 -4.17628e-08 3.14827e-14)
(0.145194 -4.19412e-08 3.14273e-14)
(0.145194 -4.20957e-08 3.13776e-14)
(0.145194 -4.22007e-08 3.13296e-14)
(0.145194 -4.22558e-08 3.1299e-14)
(0.145194 -4.22701e-08 3.12793e-14)
(0.145194 -4.22401e-08 3.12543e-14)
(0.145194 -4.2185e-08 3.12355e-14)
(0.145194 -4.21008e-08 3.12118e-14)
(0.145194 -4.19704e-08 3.11958e-14)
(0.145194 -4.17833e-08 3.11653e-14)
(0.145194 -4.1527e-08 3.12101e-14)
(0.145194 -4.12058e-08 3.12269e-14)
(0.145194 -4.07877e-08 3.12271e-14)
(0.145194 -4.0252e-08 3.12697e-14)
(0.145194 -3.96282e-08 3.12554e-14)
(0.145194 -3.89206e-08 3.12473e-14)
(0.145194 -3.81325e-08 3.12542e-14)
(0.145194 -3.72988e-08 3.12551e-14)
(0.145194 -3.64342e-08 3.13012e-14)
(0.145194 -3.55372e-08 3.12823e-14)
(0.145193 -3.46148e-08 3.12652e-14)
(0.145193 -3.36539e-08 3.1264e-14)
(0.145193 -3.26319e-08 3.12695e-14)
(0.145193 -3.15088e-08 3.13064e-14)
(0.145193 -3.02111e-08 3.12802e-14)
(0.145193 -2.86368e-08 3.12576e-14)
(0.145193 -2.66588e-08 3.12581e-14)
(0.145193 -2.40962e-08 3.12467e-14)
(0.145193 -2.06591e-08 3.12958e-14)
(0.145193 -1.59533e-08 3.13103e-14)
(0.145193 -9.47627e-09 3.13072e-14)
(0.145193 -3.93037e-10 3.13007e-14)
(0.145193 1.21254e-08 3.1305e-14)
(0.145193 2.9316e-08 3.1309e-14)
(0.145193 4.74978e-08 3.1306e-14)
(0.145193 6.14828e-08 3.13017e-14)
(0.145193 7.12566e-08 3.1296e-14)
(0.145193 7.77234e-08 3.13019e-14)
(0.145193 8.16462e-08 3.13066e-14)
(0.145193 8.37125e-08 3.13036e-14)
(0.145193 8.44522e-08 3.12978e-14)
(0.145193 8.42143e-08 3.12913e-14)
(0.145193 8.32507e-08 3.12862e-14)
(0.145193 8.1771e-08 3.1278e-14)
(0.145193 7.99052e-08 3.13106e-14)
(0.145193 7.77266e-08 3.13306e-14)
(0.145193 7.53251e-08 3.13249e-14)
(0.145193 7.27722e-08 3.1316e-14)
(0.145193 7.00964e-08 3.13007e-14)
(0.145193 6.73378e-08 3.13173e-14)
(0.145193 6.45056e-08 3.13397e-14)
(0.145193 6.1619e-08 3.13502e-14)
(0.145193 5.86997e-08 3.13545e-14)
(0.145193 5.57514e-08 3.13473e-14)
(0.145193 5.27906e-08 3.13769e-14)
(0.145193 4.98236e-08 3.13956e-14)
(0.145193 4.68579e-08 3.14021e-14)
(0.145193 4.39093e-08 3.14074e-14)
(0.145193 4.09735e-08 3.14009e-14)
(0.145193 3.8062e-08 3.14188e-14)
(0.145193 3.51683e-08 3.14449e-14)
(0.145193 3.22756e-08 3.146e-14)
(0.145193 2.93774e-08 3.14662e-14)
(0.145193 2.64822e-08 3.14632e-14)
(0.145193 2.35946e-08 3.14986e-14)
(0.145193 2.06921e-08 3.15201e-14)
(0.145193 1.77692e-08 3.15241e-14)
(0.145193 1.48082e-08 3.15229e-14)
(0.145193 1.18123e-08 3.15043e-14)
(0.145193 8.78639e-09 3.13725e-14)
(0.145193 5.71321e-09 3.15431e-14)
(0.145193 2.59528e-09 3.1474e-14)
(0.145193 -5.71366e-10 3.14284e-14)
(0.145193 -3.79122e-09 3.14943e-14)
(0.145193 -7.06453e-09 3.14802e-14)
(0.145193 -1.03942e-08 3.15413e-14)
(0.145193 -1.37677e-08 3.151e-14)
(0.145193 -1.71771e-08 3.14268e-14)
(0.145193 -2.06113e-08 3.14904e-14)
(0.145193 -2.40546e-08 3.1433e-14)
(0.145193 -2.74919e-08 3.15659e-14)
(0.145193 -3.08707e-08 3.14942e-14)
(0.145193 -3.41322e-08 3.14438e-14)
(0.145193 -3.72223e-08 3.15538e-14)
(0.145193 -4.00429e-08 3.1401e-14)
(0.145193 -4.24556e-08 3.1537e-14)
(0.145193 -4.42605e-08 3.15445e-14)
(0.145194 -4.52103e-08 3.15128e-14)
(0.145194 -4.49158e-08 3.15769e-14)
(0.145194 -4.28247e-08 3.1504e-14)
(0.145194 -3.81284e-08 3.16261e-14)
(0.145194 -2.99487e-08 3.15561e-14)
(0.145194 -1.70156e-08 3.14975e-14)
(0.145194 -2.97867e-09 3.16224e-14)
(0.145194 7.04495e-09 3.14236e-14)
(0.145194 1.30967e-08 3.15825e-14)
(0.145194 1.61514e-08 3.1547e-14)
(0.145194 1.70367e-08 3.14876e-14)
(0.145194 1.64906e-08 3.16167e-14)
(0.145194 1.50746e-08 3.14385e-14)
(0.145194 1.32015e-08 3.14787e-14)
(0.145194 1.11736e-08 3.1486e-14)
(0.145194 9.24815e-09 3.14651e-14)
(0.145194 7.62105e-09 3.15587e-14)
(0.145194 6.42928e-09 3.15308e-14)
(0.145194 5.75146e-09 3.1503e-14)
(0.145194 5.15557e-09 3.1504e-14)
(0.145194 1.30535e-09 3.14935e-14)
(0.145194 -1.52871e-08 3.1567e-14)
(0.145159 -3.81589e-08 3.15171e-14)
(0.145159 -4.42647e-08 3.14936e-14)
(0.145159 -4.46048e-08 3.14725e-14)
(0.145159 -4.35369e-08 3.14606e-14)
(0.145159 -4.2326e-08 3.14394e-14)
(0.145159 -4.12669e-08 3.14416e-14)
(0.145159 -4.03943e-08 3.14585e-14)
(0.145159 -3.96715e-08 3.14516e-14)
(0.145159 -3.90734e-08 3.1443e-14)
(0.145159 -3.85795e-08 3.14379e-14)
(0.145159 -3.81442e-08 3.14134e-14)
(0.145159 -3.77593e-08 3.13715e-14)
(0.145159 -3.7418e-08 3.13254e-14)
(0.145159 -3.70964e-08 3.12823e-14)
(0.145159 -3.67791e-08 3.12492e-14)
(0.145159 -3.64725e-08 3.12315e-14)
(0.145159 -3.6174e-08 3.12172e-14)
(0.145159 -3.58957e-08 3.11995e-14)
(0.145159 -3.5626e-08 3.11773e-14)
(0.145159 -3.53421e-08 3.11568e-14)
(0.145159 -3.50256e-08 3.11395e-14)
(0.145159 -3.46645e-08 3.11602e-14)
(0.145159 -3.42539e-08 3.1184e-14)
(0.145159 -3.37461e-08 3.12018e-14)
(0.145159 -3.31326e-08 3.12379e-14)
(0.145159 -3.24444e-08 3.12545e-14)
(0.145159 -3.16705e-08 3.12611e-14)
(0.145159 -3.08023e-08 3.12671e-14)
(0.145159 -2.9894e-08 3.12728e-14)
(0.145159 -2.89634e-08 3.12974e-14)
(0.145159 -2.79992e-08 3.1303e-14)
(0.145159 -2.70217e-08 3.12974e-14)
(0.145159 -2.60065e-08 3.12932e-14)
(0.145159 -2.49277e-08 3.12946e-14)
(0.145159 -2.37469e-08 3.13155e-14)
(0.145159 -2.23828e-08 3.13186e-14)
(0.145159 -2.0742e-08 3.13128e-14)
(0.145159 -1.8698e-08 3.13098e-14)
(0.145159 -1.6079e-08 3.13052e-14)
(0.145159 -1.26171e-08 3.13269e-14)
(0.145159 -7.9447e-09 3.13432e-14)
(0.145159 -1.63059e-09 3.13539e-14)
(0.145159 6.9531e-09 3.13533e-14)
(0.145159 1.83227e-08 3.1367e-14)
(0.145159 3.30663e-08 3.13705e-14)
(0.145159 4.8681e-08 3.13632e-14)
(0.145159 6.15424e-08 3.13592e-14)
(0.145159 7.11567e-08 3.13537e-14)
(0.145159 7.78655e-08 3.13718e-14)
(0.145159 8.21495e-08 3.13755e-14)
(0.145159 8.45507e-08 3.13675e-14)
(0.145159 8.55495e-08 3.13588e-14)
(0.145159 8.54919e-08 3.13532e-14)
(0.145159 8.46282e-08 3.13522e-14)
(0.145159 8.31853e-08 3.1335e-14)
(0.145159 8.13022e-08 3.13791e-14)
(0.145159 7.90584e-08 3.14181e-14)
(0.145159 7.6553e-08 3.14068e-14)
(0.145159 7.38641e-08 3.1398e-14)
(0.145159 7.10239e-08 3.1367e-14)
(0.145159 6.80882e-08 3.14442e-14)
(0.145159 6.50542e-08 3.14336e-14)
(0.145159 6.19442e-08 3.14432e-14)
(0.145159 5.88036e-08 3.14481e-14)
(0.145159 5.56248e-08 3.14286e-14)
(0.145159 5.24204e-08 3.15155e-14)
(0.145159 4.91976e-08 3.14993e-14)
(0.145159 4.59714e-08 3.1501e-14)
(0.145159 4.27644e-08 3.15065e-14)
(0.145159 3.9563e-08 3.14895e-14)
(0.145159 3.63817e-08 3.15643e-14)
(0.145159 3.32224e-08 3.1554e-14)
(0.145159 3.00612e-08 3.15678e-14)
(0.145159 2.68845e-08 3.15719e-14)
(0.145159 2.37096e-08 3.15524e-14)
(0.145159 2.05605e-08 3.15932e-14)
(0.145159 1.73955e-08 3.16442e-14)
(0.145159 1.42078e-08 3.16391e-14)
(0.145159 1.09898e-08 3.16362e-14)
(0.145159 7.74029e-09 3.1606e-14)
(0.145159 4.47538e-09 3.15632e-14)
(0.145159 1.17324e-09 3.14918e-14)
(0.145159 -2.1678e-09 3.14906e-14)
(0.145159 -5.5426e-09 3.14698e-14)
(0.145159 -8.95777e-09 3.14381e-14)
(0.145159 -1.24127e-08 3.15495e-14)
(0.145159 -1.58962e-08 3.15248e-14)
(0.145159 -1.94052e-08 3.14864e-14)
(0.145159 -2.29304e-08 3.14467e-14)
(0.145159 -2.64449e-08 3.1448e-14)
(0.145159 -2.99497e-08 3.15528e-14)
(0.145159 -3.34122e-08 3.14658e-14)
(0.145159 -3.67697e-08 3.14716e-14)
(0.145159 -3.99803e-08 3.14517e-14)
(0.145159 -4.29813e-08 3.14549e-14)
(0.145159 -4.56627e-08 3.15092e-14)
(0.145159 -4.79007e-08 3.15344e-14)
(0.145159 -4.95166e-08 3.14978e-14)
(0.145159 -5.02697e-08 3.15039e-14)
(0.145159 -4.98191e-08 3.15195e-14)
(0.145159 -4.7692e-08 3.15652e-14)
(0.145159 -4.32524e-08 3.15668e-14)
(0.145159 -3.59526e-08 3.14999e-14)
(0.145159 -2.51671e-08 3.14208e-14)
(0.145159 -1.33502e-08 3.14527e-14)
(0.145159 -4.06387e-09 3.16622e-14)
(0.145159 2.2766e-09 3.15019e-14)
(0.145159 6.11165e-09 3.14836e-14)
(0.145159 7.98822e-09 3.136e-14)
(0.145159 8.50443e-09 3.14315e-14)
(0.145159 8.18705e-09 3.1542e-14)
(0.145159 7.46353e-09 3.15045e-14)
(0.145159 6.66785e-09 3.1462e-14)
(0.145159 6.07602e-09 3.14465e-14)
(0.145159 5.91303e-09 3.14752e-14)
(0.145159 6.34174e-09 3.15993e-14)
(0.145159 7.44592e-09 3.1478e-14)
(0.145159 8.62519e-09 3.14692e-14)
(0.145159 5.32421e-09 3.14077e-14)
(0.145159 -1.56275e-08 3.14249e-14)
(0.145114 -4.31338e-08 3.15299e-14)
(0.145114 -4.96626e-08 3.14453e-14)
(0.145114 -4.88651e-08 3.14644e-14)
(0.145114 -4.63266e-08 3.14628e-14)
(0.145114 -4.36669e-08 3.14415e-14)
(0.145114 -4.12959e-08 3.14357e-14)
(0.145114 -3.92686e-08 3.1426e-14)
(0.145114 -3.75293e-08 3.14031e-14)
(0.145114 -3.60351e-08 3.13851e-14)
(0.145114 -3.47629e-08 3.13639e-14)
(0.145114 -3.36548e-08 3.13332e-14)
(0.145114 -3.26778e-08 3.12988e-14)
(0.145114 -3.18268e-08 3.12573e-14)
(0.145114 -3.10683e-08 3.12211e-14)
(0.145114 -3.03744e-08 3.11901e-14)
(0.145114 -2.97351e-08 3.11825e-14)
(0.145114 -2.91666e-08 3.11796e-14)
(0.145114 -2.86698e-08 3.11611e-14)
(0.145114 -2.82223e-08 3.11374e-14)
(0.145114 -2.77963e-08 3.11134e-14)
(0.145114 -2.73637e-08 3.11071e-14)
(0.145114 -2.69137e-08 3.11298e-14)
(0.145114 -2.64309e-08 3.11589e-14)
(0.145114 -2.58579e-08 3.11897e-14)
(0.145114 -2.51798e-08 3.12304e-14)
(0.145114 -2.44295e-08 3.12625e-14)
(0.145114 -2.35895e-08 3.1282e-14)
(0.145114 -2.26697e-08 3.12876e-14)
(0.145114 -2.17149e-08 3.12935e-14)
(0.145114 -2.07472e-08 3.13125e-14)
(0.145114 -1.97524e-08 3.1328e-14)
(0.145114 -1.87337e-08 3.13307e-14)
(0.145114 -1.76991e-08 3.13248e-14)
(0.145114 -1.66202e-08 3.13252e-14)
(0.145114 -1.54365e-08 3.1343e-14)
(0.145114 -1.40804e-08 3.13597e-14)
(0.145114 -1.24542e-08 3.13664e-14)
(0.145114 -1.04283e-08 3.13617e-14)
(0.145114 -7.86256e-09 3.13597e-14)
(0.145114 -4.49327e-09 3.13731e-14)
(0.145114 6.22217e-12 3.13853e-14)
(0.145114 5.9711e-09 3.14107e-14)
(0.145114 1.3899e-08 3.1405e-14)
(0.145114 2.40873e-08 3.14355e-14)
(0.145114 3.67279e-08 3.14315e-14)
(0.145114 5.00644e-08 3.14155e-14)
(0.145114 6.15599e-08 3.14174e-14)
(0.145114 7.06051e-08 3.14106e-14)
(0.145114 7.72348e-08 3.14603e-14)
(0.145114 8.16963e-08 3.14494e-14)
(0.145114 8.43523e-08 3.14286e-14)
(0.145114 8.55936e-08 3.14159e-14)
(0.145114 8.57201e-08 3.14117e-14)
(0.145114 8.49811e-08 3.14175e-14)
(0.145114 8.35994e-08 3.13721e-14)
(0.145114 8.17295e-08 3.14665e-14)
(0.145114 7.9461e-08 3.15101e-14)
(0.145114 7.68877e-08 3.14899e-14)
(0.145114 7.41017e-08 3.14901e-14)
(0.145114 7.11355e-08 3.14106e-14)
(0.145114 6.8043e-08 3.14714e-14)
(0.145114 6.48464e-08 3.15344e-14)
(0.145114 6.15633e-08 3.15396e-14)
(0.145114 5.8223e-08 3.15444e-14)
(0.145114 5.48447e-08 3.14923e-14)
(0.145114 5.14343e-08 3.15744e-14)
(0.145114 4.79922e-08 3.16015e-14)
(0.145114 4.45444e-08 3.15982e-14)
(0.145114 4.11161e-08 3.16079e-14)
(0.145114 3.76854e-08 3.15676e-14)
(0.145114 3.42683e-08 3.16174e-14)
(0.145114 3.08725e-08 3.16781e-14)
(0.145114 2.74682e-08 3.16809e-14)
(0.145114 2.40487e-08 3.16834e-14)
(0.145114 2.06375e-08 3.16137e-14)
(0.145114 1.72527e-08 3.16996e-14)
(0.145114 1.38562e-08 3.1769e-14)
(0.145114 1.04405e-08 3.17598e-14)
(0.145114 6.98963e-09 3.17551e-14)
(0.145114 3.51669e-09 3.16914e-14)
(0.145114 4.03335e-11 3.17246e-14)
(0.145114 -3.46286e-09 3.16954e-14)
(0.145114 -6.99605e-09 3.16568e-14)
(0.145114 -1.05599e-08 3.16669e-14)
(0.145114 -1.4143e-08 3.16354e-14)
(0.145114 -1.77522e-08 3.17212e-14)
(0.145114 -2.13801e-08 3.16851e-14)
(0.145114 -2.49957e-08 3.16362e-14)
(0.145114 -2.86084e-08 3.16066e-14)
(0.145114 -3.21992e-08 3.15926e-14)
(0.145114 -3.57453e-08 3.16391e-14)
(0.145114 -3.92186e-08 3.16278e-14)
(0.145114 -4.25571e-08 3.15986e-14)
(0.145114 -4.57078e-08 3.16068e-14)
(0.145114 -4.86156e-08 3.15866e-14)
(0.145114 -5.1183e-08 3.16556e-14)
(0.145114 -5.32801e-08 3.16322e-14)
(0.145114 -5.47289e-08 3.16241e-14)
(0.145114 -5.53484e-08 3.16542e-14)
(0.145114 -5.4842e-08 3.16417e-14)
(0.145114 -5.27746e-08 3.16885e-14)
(0.145114 -4.86981e-08 3.16494e-14)
(0.145114 -4.22698e-08 3.16099e-14)
(0.145114 -3.32372e-08 3.15952e-14)
(0.145114 -2.33226e-08 3.15945e-14)
(0.145114 -1.4982e-08 3.16605e-14)
(0.145114 -8.71875e-09 3.16249e-14)
(0.145114 -4.40007e-09 3.15827e-14)
(0.145114 -1.70591e-09 3.15788e-14)
(0.145114 -1.85765e-10 3.15956e-14)
(0.145114 6.02054e-10 3.16519e-14)
(0.145114 1.06434e-09 3.16628e-14)
(0.145114 1.53558e-09 3.16063e-14)
(0.145114 2.31701e-09 3.15773e-14)
(0.145114 3.67354e-09 3.15686e-14)
(0.145114 5.7712e-09 3.16578e-14)
(0.145114 8.70562e-09 3.16539e-14)
(0.145114 1.17435e-08 3.16021e-14)
(0.145114 9.16693e-09 3.15944e-14)
(0.145114 -1.58614e-08 3.15511e-14)
(0.14506 -4.76921e-08 3.15562e-14)
(0.14506 -5.45614e-08 3.14955e-14)
(0.14506 -5.25651e-08 3.14811e-14)
(0.14506 -4.84907e-08 3.14664e-14)
(0.14506 -4.43363e-08 3.14338e-14)
(0.14506 -4.06078e-08 3.14333e-14)
(0.14506 -3.73703e-08 3.13938e-14)
(0.14506 -3.45614e-08 3.13447e-14)
(0.14506 -3.21382e-08 3.13225e-14)
(0.14506 -3.00635e-08 3.12834e-14)
(0.145059 -2.82561e-08 3.12423e-14)
(0.145059 -2.66774e-08 3.1217e-14)
(0.145059 -2.52962e-08 3.11749e-14)
(0.145059 -2.40892e-08 3.11497e-14)
(0.145059 -2.30195e-08 3.11214e-14)
(0.145059 -2.20637e-08 3.11385e-14)
(0.145059 -2.12276e-08 3.11481e-14)
(0.145059 -2.05177e-08 3.1119e-14)
(0.145059 -1.99048e-08 3.10918e-14)
(0.145059 -1.93531e-08 3.1062e-14)
(0.145059 -1.88306e-08 3.10758e-14)
(0.145059 -1.8316e-08 3.11173e-14)
(0.145059 -1.77788e-08 3.11519e-14)
(0.145059 -1.7152e-08 3.11946e-14)
(0.145059 -1.64297e-08 3.12464e-14)
(0.145059 -1.56459e-08 3.12883e-14)
(0.145059 -1.47805e-08 3.13151e-14)
(0.145059 -1.38216e-08 3.13146e-14)
(0.145059 -1.28361e-08 3.13215e-14)
(0.145059 -1.1849e-08 3.13432e-14)
(0.145059 -1.08421e-08 3.13674e-14)
(0.145059 -9.84916e-09 3.13711e-14)
(0.145059 -8.85209e-09 3.1357e-14)
(0.145059 -7.81817e-09 3.13586e-14)
(0.145059 -6.7012e-09 3.13828e-14)
(0.145059 -5.41519e-09 3.14114e-14)
(0.145059 -3.88203e-09 3.14248e-14)
(0.145059 -1.98024e-09 3.14125e-14)
(0.145059 4.30492e-10 3.14168e-14)
(0.145059 3.58431e-09 3.1431e-14)
(0.145059 7.77704e-09 3.14338e-14)
(0.145059 1.32882e-08 3.14436e-14)
(0.145059 2.04639e-08 3.14527e-14)
(0.145059 2.94614e-08 3.15704e-14)
(0.145059 4.02836e-08 3.14821e-14)
(0.145059 5.16306e-08 3.14575e-14)
(0.145059 6.16839e-08 3.14557e-14)
(0.145059 6.9891e-08 3.1462e-14)
(0.145059 7.61412e-08 3.15972e-14)
(0.145059 8.05247e-08 3.15188e-14)
(0.145059 8.32552e-08 3.14804e-14)
(0.145059 8.46342e-08 3.15188e-14)
(0.145059 8.4911e-08 3.14655e-14)
(0.145059 8.42781e-08 3.14712e-14)
(0.145059 8.29675e-08 3.13959e-14)
(0.145059 8.114e-08 3.15391e-14)
(0.145059 7.88682e-08 3.15808e-14)
(0.145059 7.6246e-08 3.15712e-14)
(0.145059 7.33816e-08 3.15539e-14)
(0.145059 7.03213e-08 3.1357e-14)
(0.145059 6.7137e-08 3.16203e-14)
(0.145059 6.38162e-08 3.16157e-14)
(0.145059 6.03705e-08 3.16366e-14)
(0.145059 5.68732e-08 3.16821e-14)
(0.145059 5.3338e-08 3.14914e-14)
(0.145059 4.97586e-08 3.17205e-14)
(0.145059 4.61359e-08 3.16964e-14)
(0.145059 4.25068e-08 3.16943e-14)
(0.145059 3.8886e-08 3.18019e-14)
(0.145059 3.52571e-08 3.16203e-14)
(0.145059 3.1643e-08 3.17931e-14)
(0.145059 2.80361e-08 3.17713e-14)
(0.145059 2.44237e-08 3.17953e-14)
(0.145059 2.08074e-08 3.17744e-14)
(0.145059 1.71903e-08 3.16811e-14)
(0.145059 1.36015e-08 3.18053e-14)
(0.145059 9.99517e-09 3.18636e-14)
(0.145059 6.37112e-09 3.18762e-14)
(0.145059 2.73449e-09 3.18536e-14)
(0.145059 -9.25352e-10 3.17102e-14)
(0.145059 -4.59121e-09 3.18602e-14)
(0.145059 -8.27136e-09 3.18453e-14)
(0.145059 -1.19557e-08 3.18059e-14)
(0.145059 -1.5677e-08 3.1865e-14)
(0.145059 -1.94229e-08 3.18195e-14)
(0.145059 -2.31579e-08 3.18774e-14)
(0.145059 -2.68897e-08 3.18322e-14)
(0.145059 -3.06109e-08 3.17638e-14)
(0.145059 -3.43062e-08 3.18429e-14)
(0.145059 -3.79415e-08 3.17348e-14)
(0.145059 -4.15045e-08 3.18403e-14)
(0.145059 -4.4974e-08 3.17443e-14)
(0.145059 -4.8291e-08 3.17107e-14)
(0.145059 -5.13873e-08 3.18225e-14)
(0.145059 -5.42021e-08 3.17282e-14)
(0.145059 -5.6646e-08 3.18462e-14)
(0.145059 -5.86134e-08 3.17606e-14)
(0.145059 -5.99528e-08 3.17244e-14)
(0.145059 -6.04848e-08 3.18426e-14)
(0.145059 -5.99547e-08 3.17635e-14)
(0.145059 -5.8027e-08 3.18651e-14)
(0.145059 -5.43587e-08 3.17595e-14)
(0.145059 -4.87465e-08 3.17022e-14)
(0.145059 -4.11446e-08 3.17895e-14)
(0.145059 -3.28056e-08 3.16929e-14)
(0.145059 -2.54409e-08 3.18194e-14)
(0.145059 -1.95029e-08 3.17164e-14)
(0.145059 -1.49916e-08 3.16673e-14)
(0.145059 -1.1705e-08 3.17239e-14)
(0.145059 -9.33246e-09 3.16939e-14)
(0.145059 -7.5207e-09 3.17655e-14)
(0.145059 -5.89877e-09 3.18564e-14)
(0.14506 -4.13611e-09 3.1723e-14)
(0.14506 -1.9467e-09 3.17695e-14)
(0.14506 9.46475e-10 3.16687e-14)
(0.14506 4.7488e-09 3.17454e-14)
(0.14506 9.5716e-09 3.17896e-14)
(0.14506 1.45397e-08 3.17011e-14)
(0.14506 1.29111e-08 3.171e-14)
(0.14506 -1.5872e-08 3.16373e-14)
(0.144995 -5.16818e-08 3.15638e-14)
(0.144995 -5.88182e-08 3.15135e-14)
(0.144995 -5.55732e-08 3.14944e-14)
(0.144995 -4.99212e-08 3.14668e-14)
(0.144995 -4.42234e-08 3.14126e-14)
(0.144995 -3.90957e-08 3.14385e-14)
(0.144995 -3.46169e-08 3.13436e-14)
(0.144995 -3.07162e-08 3.1261e-14)
(0.144995 -2.73402e-08 3.12572e-14)
(0.144995 -2.44377e-08 3.11867e-14)
(0.144995 -2.1927e-08 3.11382e-14)
(0.144995 -1.97305e-08 3.11344e-14)
(0.144995 -1.7821e-08 3.10724e-14)
(0.144995 -1.61737e-08 3.10731e-14)
(0.144995 -1.47309e-08 3.10398e-14)
(0.144995 -1.34674e-08 3.1116e-14)
(0.144995 -1.23803e-08 3.11291e-14)
(0.144995 -1.14724e-08 3.10685e-14)
(0.144995 -1.0714e-08 3.10415e-14)
(0.144995 -1.00611e-08 3.09952e-14)
(0.144995 -9.48223e-09 3.10559e-14)
(0.144995 -8.92803e-09 3.113e-14)
(0.144995 -8.36788e-09 3.11614e-14)
(0.144995 -7.73414e-09 3.1219e-14)
(0.144995 -6.99622e-09 3.12865e-14)
(0.144995 -6.18212e-09 3.13333e-14)
(0.144995 -5.29087e-09 3.13611e-14)
(0.144995 -4.32436e-09 3.13426e-14)
(0.144995 -3.34469e-09 3.13585e-14)
(0.144995 -2.38357e-09 3.13912e-14)
(0.144995 -1.42444e-09 3.14308e-14)
(0.144995 -4.87794e-10 3.14221e-14)
(0.144995 4.2692e-10 3.13848e-14)
(0.144995 1.35485e-09 3.13938e-14)
(0.144995 2.33972e-09 3.14327e-14)
(0.144995 3.45559e-09 3.14798e-14)
(0.144995 4.80539e-09 3.14914e-14)
(0.144995 6.50245e-09 3.14566e-14)
(0.144995 8.65514e-09 3.14891e-14)
(0.144995 1.14982e-08 3.15021e-14)
(0.144995 1.52836e-08 3.148e-14)
(0.144995 2.02183e-08 3.14822e-14)
(0.144995 2.65737e-08 3.147e-14)
(0.144995 3.44109e-08 3.14959e-14)
(0.144995 4.36296e-08 3.14943e-14)
(0.144995 5.32311e-08 3.14864e-14)
(0.144995 6.18932e-08 3.14952e-14)
(0.144995 6.91254e-08 3.14924e-14)
(0.144995 7.47543e-08 3.15412e-14)
(0.144995 7.88231e-08 3.15337e-14)
(0.144995 8.14532e-08 3.15209e-14)
(0.144995 8.28277e-08 3.15112e-14)
(0.144995 8.31473e-08 3.15147e-14)
(0.144995 8.25748e-08 3.15286e-14)
(0.144995 8.1312e-08 3.14941e-14)
(0.144995 7.95155e-08 3.1582e-14)
(0.144995 7.72464e-08 3.16302e-14)
(0.144995 7.46023e-08 3.16223e-14)
(0.144995 7.16927e-08 3.16318e-14)
(0.144995 6.8569e-08 3.1566e-14)
(0.144995 6.5294e-08 3.16325e-14)
(0.144995 6.18782e-08 3.1698e-14)
(0.144995 5.83331e-08 3.1707e-14)
(0.144995 5.47106e-08 3.17134e-14)
(0.144995 5.10433e-08 3.16651e-14)
(0.144995 4.7328e-08 3.17366e-14)
(0.144995 4.3568e-08 3.17651e-14)
(0.144995 3.97929e-08 3.17704e-14)
(0.144995 3.60175e-08 3.17867e-14)
(0.144995 3.22247e-08 3.17554e-14)
(0.144995 2.8439e-08 3.18043e-14)
(0.144995 2.46592e-08 3.18642e-14)
(0.144995 2.08738e-08 3.18706e-14)
(0.144995 1.70937e-08 3.18736e-14)
(0.144995 1.33134e-08 3.18064e-14)
(0.144995 9.54537e-09 3.18801e-14)
(0.144995 5.7618e-09 3.19548e-14)
(0.144995 1.97828e-09 3.1952e-14)
(0.144995 -1.82234e-09 3.19491e-14)
(0.144995 -5.64599e-09 3.18952e-14)
(0.144995 -9.4677e-09 3.19462e-14)
(0.144995 -1.32922e-08 3.19513e-14)
(0.144995 -1.71225e-08 3.19278e-14)
(0.144995 -2.09728e-08 3.19563e-14)
(0.144995 -2.4822e-08 3.19173e-14)
(0.144995 -2.8674e-08 3.19421e-14)
(0.144995 -3.25107e-08 3.19165e-14)
(0.144995 -3.62982e-08 3.18638e-14)
(0.144995 -4.00471e-08 3.18542e-14)
(0.144995 -4.37173e-08 3.18236e-14)
(0.144995 -4.72907e-08 3.18365e-14)
(0.144995 -5.07422e-08 3.18243e-14)
(0.144995 -5.40089e-08 3.17966e-14)
(0.144995 -5.70322e-08 3.18184e-14)
(0.144995 -5.97551e-08 3.17969e-14)
(0.144995 -6.21067e-08 3.18327e-14)
(0.144995 -6.39657e-08 3.18185e-14)
(0.144995 -6.51899e-08 3.17943e-14)
(0.144995 -6.56616e-08 3.183e-14)
(0.144995 -6.51657e-08 3.18132e-14)
(0.144995 -6.34031e-08 3.18419e-14)
(0.144995 -6.01573e-08 3.18155e-14)
(0.144995 -5.52851e-08 3.17714e-14)
(0.144995 -4.88553e-08 3.17637e-14)
(0.144995 -4.18138e-08 3.17498e-14)
(0.144995 -3.53603e-08 3.17796e-14)
(0.144995 -2.98632e-08 3.17626e-14)
(0.144995 -2.53456e-08 3.1728e-14)
(0.144995 -2.16759e-08 3.1745e-14)
(0.144995 -1.86261e-08 3.17374e-14)
(0.144995 -1.59184e-08 3.1772e-14)
(0.144995 -1.32116e-08 3.18042e-14)