/*--------------------------------*- C++ -*----------------------------------*\
  =========                 |
  \\      /  F ield         | OpenFOAM: The Open Source CFD Toolbox
   \\    /   O peration     | Website:  https://openfoam.org
    \\  /    A nd           | Version:  7
     \\/     M anipulation  |
\*---------------------------------------------------------------------------*/
FoamFile
{
    version     2.0;
    format      ascii;
    class       surfaceScalarField;
    location    "19000";
    object      phi;
}
// * * * * * * * * * * * * * * * * * * * * * * * * * * * * * * * * * * * * * //

dimensions      [0 3 -1 0 0 0 0];

internalField   nonuniform List<scalar> 
47680
(
2.0155e-06
-3.14345e-14
2.01551e-06
-6.51379e-12
2.01552e-06
-7.61389e-12
2.01552e-06
-4.58937e-12
2.01552e-06
-5.05013e-13
2.01552e-06
3.01255e-12
2.01551e-06
5.63371e-12
2.01551e-06
7.3404e-12
2.0155e-06
8.27721e-12
2.01549e-06
8.51553e-12
2.01548e-06
8.12525e-12
2.01547e-06
7.45592e-12
2.01547e-06
6.81135e-12
2.01546e-06
6.02257e-12
2.01546e-06
5.25817e-12
2.01545e-06
4.53333e-12
2.01545e-06
3.60718e-12
2.01545e-06
2.85949e-12
2.01544e-06
2.09985e-12
2.01544e-06
1.24182e-12
2.01544e-06
5.2988e-13
2.01544e-06
-9.95805e-14
2.01544e-06
-7.20793e-13
2.01544e-06
-1.39684e-12
2.01545e-06
-1.95557e-12
2.01545e-06
-2.28934e-12
2.01545e-06
-2.71298e-12
2.01545e-06
-3.18425e-12
2.01546e-06
-3.42702e-12
2.01546e-06
-3.64434e-12
2.01546e-06
-4.01449e-12
2.01547e-06
-4.27708e-12
2.01547e-06
-4.37967e-12
2.01548e-06
-4.49084e-12
2.01548e-06
-4.68657e-12
2.01549e-06
-4.80276e-12
2.01549e-06
-4.7841e-12
2.0155e-06
-4.8606e-12
2.0155e-06
-4.85392e-12
2.01551e-06
-4.89808e-12
2.01551e-06
-4.48995e-12
2.01552e-06
-4.00908e-12
2.01552e-06
-3.16333e-12
2.01552e-06
-2.28728e-12
2.01552e-06
-1.22762e-12
2.01552e-06
4.6375e-13
2.01552e-06
1.00356e-12
2.01552e-06
1.06981e-12
2.01552e-06
7.31328e-13
2.01552e-06
1.06467e-13
2.01552e-06
-2.97117e-13
2.01552e-06
-7.13201e-13
2.01552e-06
-1.04962e-12
2.01552e-06
-1.3147e-12
2.01552e-06
-1.50321e-12
2.01552e-06
-1.65827e-12
2.01553e-06
-1.69149e-12
2.01553e-06
-1.59046e-12
2.01553e-06
-1.3647e-12
2.01553e-06
-1.11875e-12
2.01553e-06
-8.18228e-13
2.01553e-06
-4.09868e-13
2.01553e-06
1.3233e-14
2.01553e-06
4.2918e-13
2.01553e-06
7.9728e-13
2.01553e-06
1.09351e-12
2.01553e-06
1.43456e-12
2.01553e-06
1.75445e-12
2.01552e-06
1.90701e-12
2.01552e-06
2.0621e-12
2.01552e-06
2.11863e-12
2.01552e-06
2.19768e-12
2.01552e-06
2.27291e-12
2.01551e-06
2.22208e-12
2.01551e-06
2.27962e-12
2.01551e-06
2.29774e-12
2.01551e-06
2.14463e-12
2.0155e-06
1.93825e-12
2.0155e-06
1.8113e-12
2.0155e-06
1.67869e-12
2.0155e-06
1.50303e-12
2.0155e-06
1.39929e-12
2.0155e-06
1.32847e-12
2.0155e-06
1.15279e-12
2.0155e-06
9.29879e-13
2.01549e-06
7.12155e-13
2.01549e-06
2.65255e-13
2.01549e-06
-8.4199e-14
2.01549e-06
-1.65699e-13
2.01549e-06
-1.61511e-13
2.01549e-06
-2.74888e-14
2.01549e-06
-5.62933e-15
2.01549e-06
-4.39515e-14
2.01549e-06
-1.39786e-13
2.0155e-06
-3.07502e-13
2.0155e-06
-4.11996e-13
2.0155e-06
-5.74224e-13
2.0155e-06
-6.99182e-13
2.0155e-06
-8.04046e-13
2.0155e-06
-7.07553e-13
2.0155e-06
-6.96092e-13
2.0155e-06
-2.3155e-13
2.0155e-06
1.32058e-13
2.0155e-06
9.07464e-13
2.0155e-06
2.06934e-12
2.01549e-06
2.16248e-12
2.01549e-06
1.94064e-12
2.01549e-06
1.27982e-12
2.01549e-06
4.35728e-13
2.01549e-06
-3.52404e-13
2.01549e-06
-1.04249e-12
2.01549e-06
-1.5346e-12
2.0155e-06
-1.96413e-12
2.0155e-06
-2.2448e-12
2.0155e-06
-2.44307e-12
2.0155e-06
-2.36976e-12
2.0155e-06
-1.76101e-12
2.01551e-06
-2.02634e-12
2.01551e-06
-3.40995e-13
3.20855e-12
6.22747e-06
-5.0238e-12
6.22749e-06
-2.58946e-11
6.22751e-06
-2.81431e-11
6.22752e-06
-1.57728e-11
6.22752e-06
1.61529e-13
6.22751e-06
1.37761e-11
6.22749e-06
2.37911e-11
6.22747e-06
3.02685e-11
6.22745e-06
3.37502e-11
6.22742e-06
3.44216e-11
6.22739e-06
3.27677e-11
6.22737e-06
3.01039e-11
6.22735e-06
2.73826e-11
6.22733e-06
2.42251e-11
6.22732e-06
2.11181e-11
6.2273e-06
1.80793e-11
6.22729e-06
1.44467e-11
6.22728e-06
1.13481e-11
6.22728e-06
8.27109e-12
6.22727e-06
4.91412e-12
6.22727e-06
2.01829e-12
6.22727e-06
-5.60865e-13
6.22728e-06
-3.09474e-12
6.22728e-06
-5.72177e-12
6.22729e-06
-7.899e-12
6.22729e-06
-9.33357e-12
6.2273e-06
-1.1004e-11
6.22731e-06
-1.28161e-11
6.22732e-06
-1.3889e-11
6.22733e-06
-1.48064e-11
6.22735e-06
-1.61526e-11
6.22736e-06
-1.71547e-11
6.22737e-06
-1.76159e-11
6.22739e-06
-1.80798e-11
6.2274e-06
-1.87998e-11
6.22741e-06
-1.92564e-11
6.22743e-06
-1.92561e-11
6.22744e-06
-1.94989e-11
6.22746e-06
-1.9562e-11
6.22747e-06
-1.96526e-11
6.22749e-06
-1.82183e-11
6.2275e-06
-1.63386e-11
6.22751e-06
-1.33567e-11
6.22752e-06
-1.0141e-11
6.22752e-06
-6.0839e-12
6.22752e-06
-4.02636e-14
6.22752e-06
2.5064e-12
6.22752e-06
3.05416e-12
6.22752e-06
2.04514e-12
6.22752e-06
-7.66206e-15
6.22752e-06
-1.50579e-12
6.22752e-06
-3.00141e-12
6.22752e-06
-4.25599e-12
6.22753e-06
-5.2216e-12
6.22753e-06
-5.89952e-12
6.22754e-06
-6.40637e-12
6.22754e-06
-6.45518e-12
6.22755e-06
-5.98678e-12
6.22755e-06
-5.07299e-12
6.22755e-06
-4.03962e-12
6.22755e-06
-2.78331e-12
6.22756e-06
-1.15444e-12
6.22755e-06
5.35706e-13
6.22755e-06
2.17771e-12
6.22755e-06
3.6428e-12
6.22755e-06
4.86043e-12
6.22754e-06
6.18818e-12
6.22754e-06
7.40239e-12
6.22753e-06
8.04985e-12
6.22752e-06
8.61661e-12
6.22752e-06
8.86632e-12
6.22751e-06
9.16407e-12
6.2275e-06
9.42665e-12
6.2275e-06
9.28167e-12
6.22749e-06
9.41857e-12
6.22748e-06
9.42175e-12
6.22747e-06
8.85272e-12
6.22747e-06
8.06316e-12
6.22746e-06
7.51628e-12
6.22746e-06
7.00044e-12
6.22745e-06
6.35257e-12
6.22745e-06
5.90993e-12
6.22744e-06
5.58172e-12
6.22744e-06
4.89691e-12
6.22744e-06
4.03789e-12
6.22743e-06
3.06243e-12
6.22743e-06
1.38696e-12
6.22743e-06
1.30405e-13
6.22743e-06
-2.40114e-13
6.22743e-06
-2.4596e-13
6.22743e-06
1.72027e-13
6.22743e-06
2.53377e-13
6.22743e-06
9.50256e-14
6.22743e-06
-2.7481e-13
6.22743e-06
-8.87136e-13
6.22743e-06
-1.36141e-12
6.22744e-06
-2.00021e-12
6.22744e-06
-2.56821e-12
6.22744e-06
-3.01628e-12
6.22744e-06
-2.8769e-12
6.22744e-06
-2.8765e-12
6.22745e-06
-1.45171e-12
6.22745e-06
-1.63734e-13
6.22744e-06
2.66179e-12
6.22744e-06
6.75012e-12
6.22743e-06
7.41578e-12
6.22743e-06
6.65029e-12
6.22743e-06
4.35186e-12
6.22743e-06
1.32997e-12
6.22743e-06
-1.56536e-12
6.22743e-06
-4.11933e-12
6.22743e-06
-6.01655e-12
6.22744e-06
-7.62369e-12
6.22745e-06
-8.73659e-12
6.22745e-06
-9.55085e-12
6.22746e-06
-9.32515e-12
6.22747e-06
-7.26676e-12
6.22747e-06
-8.0439e-12
6.22747e-06
-1.29502e-12
8.49151e-12
1.07241e-05
-2.06118e-11
1.07241e-05
-5.89836e-11
1.07241e-05
-5.91301e-11
1.07241e-05
-3.0337e-11
1.07241e-05
4.89e-12
1.07241e-05
3.464e-11
1.07241e-05
5.62856e-11
1.0724e-05
7.01761e-11
1.0724e-05
7.74584e-11
1.07239e-05
7.8399e-11
1.07239e-05
7.44444e-11
1.07239e-05
6.84175e-11
1.07238e-05
6.2049e-11
1.07238e-05
5.48837e-11
1.07238e-05
4.7765e-11
1.07238e-05
4.06841e-11
1.07237e-05
3.25462e-11
1.07237e-05
2.53974e-11
1.07237e-05
1.838e-11
1.07237e-05
1.09038e-11
1.07237e-05
4.30578e-12
1.07237e-05
-1.63215e-12
1.07237e-05
-7.43496e-12
1.07237e-05
-1.32342e-11
1.07237e-05
-1.80451e-11
1.07237e-05
-2.14261e-11
1.07238e-05
-2.51724e-11
1.07238e-05
-2.91549e-11
1.07238e-05
-3.17263e-11
1.07238e-05
-3.38724e-11
1.07238e-05
-3.67023e-11
1.07238e-05
-3.88611e-11
1.07239e-05
-3.99751e-11
1.07239e-05
-4.10605e-11
1.07239e-05
-4.25873e-11
1.07239e-05
-4.36015e-11
1.0724e-05
-4.36943e-11
1.0724e-05
-4.41851e-11
1.0724e-05
-4.44322e-11
1.0724e-05
-4.45472e-11
1.07241e-05
-4.15576e-11
1.07241e-05
-3.74616e-11
1.07241e-05
-3.14117e-11
1.07241e-05
-2.46598e-11
1.07241e-05
-1.59205e-11
1.07241e-05
-3.35337e-12
1.07241e-05
2.84805e-12
1.07241e-05
4.60953e-12
1.07241e-05
2.95556e-12
1.07241e-05
-9.17254e-13
1.07241e-05
-4.01162e-12
1.07241e-05
-7.10116e-12
1.07241e-05
-9.74541e-12
1.07241e-05
-1.17466e-11
1.07242e-05
-1.31204e-11
1.07242e-05
-1.40579e-11
1.07242e-05
-1.39923e-11
1.07242e-05
-1.28078e-11
1.07242e-05
-1.07052e-11
1.07242e-05
-8.28089e-12
1.07242e-05
-5.34233e-12
1.07242e-05
-1.65667e-12
1.07242e-05
2.15211e-12
1.07242e-05
5.81901e-12
1.07242e-05
9.11382e-12
1.07242e-05
1.1908e-11
1.07242e-05
1.48444e-11
1.07242e-05
1.74784e-11
1.07241e-05
1.89649e-11
1.07241e-05
2.01704e-11
1.07241e-05
2.07559e-11
1.07241e-05
2.1398e-11
1.07241e-05
2.19373e-11
1.07241e-05
2.16755e-11
1.07241e-05
2.18401e-11
1.07241e-05
2.17179e-11
1.0724e-05
2.04912e-11
1.0724e-05
1.87646e-11
1.0724e-05
1.74749e-11
1.0724e-05
1.63398e-11
1.0724e-05
1.49615e-11
1.0724e-05
1.39233e-11
1.0724e-05
1.31056e-11
1.0724e-05
1.15811e-11
1.0724e-05
9.67487e-12
1.0724e-05
7.31082e-12
1.0724e-05
3.70063e-12
1.0724e-05
1.12793e-12
1.0724e-05
2.58822e-13
1.0724e-05
1.83294e-13
1.0724e-05
9.41627e-13
1.0724e-05
1.08407e-12
1.0724e-05
7.13788e-13
1.0724e-05
-9.20381e-14
1.0724e-05
-1.39401e-12
1.0724e-05
-2.53884e-12
1.0724e-05
-3.99584e-12
1.0724e-05
-5.37497e-12
1.0724e-05
-6.48277e-12
1.0724e-05
-6.54416e-12
1.0724e-05
-6.72381e-12
1.0724e-05
-4.18997e-12
1.0724e-05
-1.63998e-12
1.0724e-05
4.22907e-12
1.0724e-05
1.2592e-11
1.0724e-05
1.43891e-11
1.0724e-05
1.29331e-11
1.0724e-05
8.32737e-12
1.0724e-05
2.1487e-12
1.0724e-05
-3.88951e-12
1.0724e-05
-9.27886e-12
1.0724e-05
-1.33896e-11
1.0724e-05
-1.68261e-11
1.0724e-05
-1.93046e-11
1.0724e-05
-2.11693e-11
1.0724e-05
-2.07998e-11
1.0724e-05
-1.67234e-11
1.0724e-05
-1.80188e-11
1.0724e-05
-2.97886e-12
1.15441e-11
1.55009e-05
-5.3171e-11
1.5501e-05
-1.06514e-10
1.5501e-05
-9.70196e-11
1.5501e-05
-4.38506e-11
1.5501e-05
1.73504e-11
1.5501e-05
6.82643e-11
1.55009e-05
1.04902e-10
1.55009e-05
1.28197e-10
1.55008e-05
1.40023e-10
1.55007e-05
1.40599e-10
1.55007e-05
1.3314e-10
1.55006e-05
1.22383e-10
1.55006e-05
1.10771e-10
1.55005e-05
9.79196e-11
1.55005e-05
8.50036e-11
1.55005e-05
7.20628e-11
1.55004e-05
5.76133e-11
1.55004e-05
4.46926e-11
1.55004e-05
3.20903e-11
1.55004e-05
1.89175e-11
1.55004e-05
7.11151e-12
1.55004e-05
-3.6481e-12
1.55004e-05
-1.41096e-11
1.55004e-05
-2.42075e-11
1.55004e-05
-3.25855e-11
1.55004e-05
-3.87921e-11
1.55005e-05
-4.54485e-11
1.55005e-05
-5.23913e-11
1.55005e-05
-5.7164e-11
1.55005e-05
-6.1089e-11
1.55006e-05
-6.5818e-11
1.55006e-05
-6.94669e-11
1.55006e-05
-7.1544e-11
1.55007e-05
-7.36031e-11
1.55007e-05
-7.61833e-11
1.55007e-05
-7.79054e-11
1.55008e-05
-7.81864e-11
1.55008e-05
-7.90439e-11
1.55008e-05
-7.95905e-11
1.55009e-05
-7.96923e-11
1.55009e-05
-7.46343e-11
1.55009e-05
-6.76761e-11
1.5501e-05
-5.80015e-11
1.5501e-05
-4.67832e-11
1.5501e-05
-3.19887e-11
1.5501e-05
-1.11282e-11
1.5501e-05
3.46372e-13
1.5501e-05
4.3012e-12
1.5501e-05
2.37951e-12
1.5501e-05
-3.30387e-12
1.5501e-05
-8.238e-12
1.5501e-05
-1.32742e-11
1.5501e-05
-1.76362e-11
1.5501e-05
-2.08789e-11
1.55011e-05
-2.3032e-11
1.55011e-05
-2.43459e-11
1.55011e-05
-2.38949e-11
1.55011e-05
-2.15499e-11
1.55011e-05
-1.77173e-11
1.55011e-05
-1.32452e-11
1.55011e-05
-7.83091e-12
1.55011e-05
-1.22864e-12
1.55011e-05
5.52835e-12
1.55011e-05
1.19796e-11
1.55011e-05
1.7818e-11
1.55011e-05
2.28476e-11
1.55011e-05
2.79753e-11
1.5501e-05
3.24885e-11
1.5501e-05
3.51177e-11
1.5501e-05
3.71586e-11
1.5501e-05
3.8215e-11
1.5501e-05
3.93151e-11
1.5501e-05
4.02005e-11
1.55009e-05
3.97902e-11
1.55009e-05
3.9868e-11
1.55009e-05
3.94284e-11
1.55009e-05
3.73055e-11
1.55009e-05
3.43121e-11
1.55009e-05
3.19593e-11
1.55008e-05
3.00015e-11
1.55008e-05
2.76645e-11
1.55008e-05
2.57622e-11
1.55008e-05
2.41855e-11
1.55008e-05
2.1484e-11
1.55008e-05
1.81129e-11
1.55008e-05
1.36562e-11
1.55008e-05
7.51044e-12
1.55008e-05
3.41094e-12
1.55008e-05
1.85393e-12
1.55008e-05
1.59098e-12
1.55008e-05
2.66004e-12
1.55008e-05
2.80168e-12
1.55008e-05
2.10638e-12
1.55008e-05
7.23922e-13
1.55008e-05
-1.49726e-12
1.55008e-05
-3.634e-12
1.55008e-05
-6.28871e-12
1.55008e-05
-8.8837e-12
1.55008e-05
-1.1061e-11
1.55008e-05
-1.17233e-11
1.55008e-05
-1.24478e-11
1.55008e-05
-8.9437e-12
1.55008e-05
-5.05281e-12
1.55008e-05
4.58052e-12
1.55008e-05
1.81769e-11
1.55008e-05
2.15292e-11
1.55008e-05
1.9423e-11
1.55008e-05
1.21501e-11
1.55008e-05
2.22629e-12
1.55008e-05
-7.64231e-12
1.55008e-05
-1.6592e-11
1.55008e-05
-2.35623e-11
1.55008e-05
-2.93605e-11
1.55008e-05
-3.37007e-11
1.55008e-05
-3.70557e-11
1.55009e-05
-3.66151e-11
1.55009e-05
-3.0149e-11
1.55009e-05
-3.18329e-11
1.55009e-05
-5.33804e-12
7.81158e-12
2.05011e-05
-1.07731e-10
2.05012e-05
-1.66771e-10
2.05012e-05
-1.36291e-10
2.05012e-05
-5.1035e-11
2.05012e-05
4.08992e-11
2.05012e-05
1.16253e-10
2.05011e-05
1.6992e-10
2.0501e-05
2.03756e-10
2.05009e-05
2.20249e-10
2.05009e-05
2.19412e-10
2.05008e-05
2.07327e-10
2.05007e-05
1.90992e-10
2.05006e-05
1.72633e-10
2.05006e-05
1.52208e-10
2.05005e-05
1.31761e-10
2.05005e-05
1.11209e-10
2.05005e-05
8.8786e-11
2.05005e-05
6.85073e-11
2.05004e-05
4.87959e-11
2.05004e-05
2.85059e-11
2.05004e-05
1.01168e-11
2.05004e-05
-6.87627e-12
2.05004e-05
-2.33116e-11
2.05004e-05
-3.86257e-11
2.05005e-05
-5.13546e-11
2.05005e-05
-6.12583e-11
2.05005e-05
-7.16235e-11
2.05005e-05
-8.22392e-11
2.05006e-05
-8.98922e-11
2.05006e-05
-9.61136e-11
2.05007e-05
-1.03043e-10
2.05007e-05
-1.08421e-10
2.05007e-05
-1.11788e-10
2.05008e-05
-1.15217e-10
2.05008e-05
-1.19049e-10
2.05009e-05
-1.21598e-10
2.05009e-05
-1.22526e-10
2.05009e-05
-1.23949e-10
2.0501e-05
-1.24579e-10
2.0501e-05
-1.24564e-10
2.05011e-05
-1.16963e-10
2.05011e-05
-1.06799e-10
2.05012e-05
-9.33386e-11
2.05012e-05
-7.69322e-11
2.05012e-05
-5.50212e-11
2.05012e-05
-2.45104e-11
2.05012e-05
-6.32966e-12
2.05012e-05
8.82863e-13
2.05012e-05
-6.2676e-13
2.05012e-05
-7.73565e-12
2.05012e-05
-1.44983e-11
2.05013e-05
-2.16529e-11
2.05013e-05
-2.78918e-11
2.05013e-05
-3.24191e-11
2.05013e-05
-3.53064e-11
2.05013e-05
-3.68071e-11
2.05013e-05
-3.55612e-11
2.05013e-05
-3.15495e-11
2.05013e-05
-2.54532e-11
2.05013e-05
-1.82693e-11
2.05013e-05
-9.56651e-12
2.05013e-05
7.72123e-13
2.05013e-05
1.12076e-11
2.05013e-05
2.10903e-11
2.05013e-05
3.01128e-11
2.05013e-05
3.79846e-11
2.05013e-05
4.5802e-11
2.05013e-05
5.25434e-11
2.05012e-05
5.65413e-11
2.05012e-05
5.95742e-11
2.05012e-05
6.12317e-11
2.05012e-05
6.28995e-11
2.05011e-05
6.41779e-11
2.05011e-05
6.35618e-11
2.05011e-05
6.33818e-11
2.05011e-05
6.2369e-11
2.0501e-05
5.9127e-11
2.0501e-05
5.45833e-11
2.0501e-05
5.0908e-11
2.0501e-05
4.79975e-11
2.0501e-05
4.44998e-11
2.0501e-05
4.146e-11
2.05009e-05
3.88372e-11
2.05009e-05
3.46233e-11
2.05009e-05
2.93749e-11
2.05009e-05
2.21243e-11
2.05009e-05
1.3094e-11
2.05009e-05
7.49341e-12
2.05009e-05
5.02219e-12
2.05009e-05
4.37722e-12
2.05009e-05
5.63535e-12
2.05009e-05
5.63258e-12
2.05009e-05
4.48035e-12
2.05009e-05
2.40749e-12
2.05009e-05
-9.53942e-13
2.05009e-05
-4.42033e-12
2.05009e-05
-8.67123e-12
2.05009e-05
-1.29009e-11
2.05009e-05
-1.662e-11
2.05009e-05
-1.84104e-11
2.05009e-05
-2.0205e-11
2.05009e-05
-1.609e-11
2.05009e-05
-1.1003e-11
2.05009e-05
2.8644e-12
2.05009e-05
2.21748e-11
2.05009e-05
2.7265e-11
2.05009e-05
2.47664e-11
2.05009e-05
1.48122e-11
2.05009e-05
9.81372e-13
2.05009e-05
-1.30132e-11
2.05009e-05
-2.59628e-11
2.05009e-05
-3.6227e-11
2.0501e-05
-4.47752e-11
2.0501e-05
-5.14309e-11
2.0501e-05
-5.67074e-11
2.0501e-05
-5.62704e-11
2.0501e-05
-4.71955e-11
2.0501e-05
-4.91177e-11
2.0501e-05
-8.00154e-12
-6.93626e-12
2.55806e-05
-1.82582e-10
2.55806e-05
-2.33027e-10
2.55807e-05
-1.70638e-10
2.55807e-05
-4.8533e-11
2.55806e-05
7.63957e-11
2.55806e-05
1.77012e-10
2.55805e-05
2.48109e-10
2.55804e-05
2.92736e-10
2.55803e-05
3.13467e-10
2.55802e-05
3.1126e-10
2.55801e-05
2.94137e-10
2.55801e-05
2.70742e-10
2.558e-05
2.44313e-10
2.55799e-05
2.14879e-10
2.55799e-05
1.85644e-10
2.55798e-05
1.56099e-10
2.55798e-05
1.24483e-10
2.55798e-05
9.56589e-11
2.55797e-05
6.76702e-11
2.55797e-05
3.92161e-11
2.55797e-05
1.31831e-11
2.55797e-05
-1.12338e-11
2.55797e-05
-3.46807e-11
2.55798e-05
-5.57397e-11
2.55798e-05
-7.34042e-11
2.55798e-05
-8.78145e-11
2.55798e-05
-1.02564e-10
2.55799e-05
-1.17422e-10
2.55799e-05
-1.28533e-10
2.558e-05
-1.37447e-10
2.558e-05
-1.46734e-10
2.558e-05
-1.54014e-10
2.55801e-05
-1.59041e-10
2.55801e-05
-1.6421e-10
2.55802e-05
-1.69412e-10
2.55802e-05
-1.72976e-10
2.55803e-05
-1.75089e-10
2.55804e-05
-1.77255e-10
2.55804e-05
-1.77749e-10
2.55805e-05
-1.77525e-10
2.55805e-05
-1.68179e-10
2.55806e-05
-1.55005e-10
2.55806e-05
-1.36808e-10
2.55806e-05
-1.14542e-10
2.55807e-05
-8.47792e-11
2.55807e-05
-4.3683e-11
2.55807e-05
-1.77063e-11
2.55807e-05
-6.28204e-12
2.55807e-05
-6.48398e-12
2.55807e-05
-1.43621e-11
2.55807e-05
-2.27694e-11
2.55807e-05
-3.20352e-11
2.55808e-05
-4.01227e-11
2.55808e-05
-4.58047e-11
2.55808e-05
-4.92774e-11
2.55808e-05
-5.06748e-11
2.55808e-05
-4.81472e-11
2.55808e-05
-4.20178e-11
2.55808e-05
-3.32489e-11
2.55808e-05
-2.27735e-11
2.55808e-05
-1.00579e-11
2.55808e-05
4.66163e-12
2.55808e-05
1.92638e-11
2.55808e-05
3.30045e-11
2.55808e-05
4.56997e-11
2.55808e-05
5.6881e-11
2.55807e-05
6.7725e-11
2.55807e-05
7.6879e-11
2.55807e-05
8.23696e-11
2.55807e-05
8.6515e-11
2.55806e-05
8.89166e-11
2.55806e-05
9.12722e-11
2.55806e-05
9.29608e-11
2.55806e-05
9.20442e-11
2.55805e-05
9.14019e-11
2.55805e-05
8.95514e-11
2.55805e-05
8.50457e-11
2.55805e-05
7.8771e-11
2.55804e-05
7.36608e-11
2.55804e-05
6.97898e-11
2.55804e-05
6.4932e-11
2.55804e-05
6.04935e-11
2.55804e-05
5.65594e-11
2.55803e-05
5.0538e-11
2.55803e-05
4.30441e-11
2.55803e-05
3.36118e-11
2.55803e-05
2.18646e-11
2.55803e-05
1.38396e-11
2.55803e-05
1.0023e-11
2.55803e-05
8.71885e-12
2.55803e-05
9.94844e-12
2.55803e-05
9.57797e-12
2.55803e-05
7.84638e-12
2.55803e-05
5.00333e-12
2.55803e-05
2.74202e-13
2.55803e-05
-4.85695e-12
2.55803e-05
-1.10745e-11
2.55803e-05
-1.73244e-11
2.55803e-05
-2.30609e-11
2.55803e-05
-2.65577e-11
2.55803e-05
-3.00071e-11
2.55803e-05
-2.57321e-11
2.55803e-05
-1.97057e-11
2.55803e-05
-2.51221e-12
2.55803e-05
2.23772e-11
2.55803e-05
3.03088e-11
2.55803e-05
2.80307e-11
2.55803e-05
1.57414e-11
2.55803e-05
-1.72613e-12
2.55803e-05
-1.97679e-11
2.55803e-05
-3.68722e-11
2.55804e-05
-5.06177e-11
2.55804e-05
-6.21674e-11
2.55804e-05
-7.15741e-11
2.55804e-05
-7.91702e-11
2.55804e-05
-7.87375e-11
2.55805e-05
-6.69781e-11
2.55805e-05
-6.90046e-11
2.55805e-05
-1.05726e-11
-3.37427e-11
3.05437e-05
-2.65535e-10
3.05438e-05
-2.96591e-10
3.05438e-05
-1.95574e-10
3.05438e-05
-3.58526e-11
3.05437e-05
1.2093e-10
3.05437e-05
2.45399e-10
3.05436e-05
3.33123e-10
3.05435e-05
3.88112e-10
3.05434e-05
4.12321e-10
3.05433e-05
4.0894e-10
3.05432e-05
3.87116e-10
3.05431e-05
3.55774e-10
3.0543e-05
3.20953e-10
3.0543e-05
2.82157e-10
3.05429e-05
2.43367e-10
3.05429e-05
2.04319e-10
3.05428e-05
1.62992e-10
3.05428e-05
1.24743e-10
3.05428e-05
8.78441e-11
3.05428e-05
5.09887e-11
3.05428e-05
1.66843e-11
3.05428e-05
-1.6282e-11
3.05428e-05
-4.73067e-11
3.05428e-05
-7.41175e-11
3.05428e-05
-9.71465e-11
3.05429e-05
-1.16785e-10
3.05429e-05
-1.36368e-10
3.05429e-05
-1.55848e-10
3.0543e-05
-1.70834e-10
3.0543e-05
-1.82641e-10
3.05431e-05
-1.94296e-10
3.05431e-05
-2.03648e-10
3.05432e-05
-2.10788e-10
3.05432e-05
-2.18041e-10
3.05433e-05
-2.2491e-10
3.05433e-05
-2.29781e-10
3.05434e-05
-2.33097e-10
3.05434e-05
-2.35998e-10
3.05435e-05
-2.36748e-10
3.05436e-05
-2.36439e-10
3.05436e-05
-2.25837e-10
3.05437e-05
-2.10302e-10
3.05437e-05
-1.86889e-10
3.05438e-05
-1.58419e-10
3.05438e-05
-1.20383e-10
3.05438e-05
-6.81451e-11
3.05438e-05
-3.40078e-11
3.05439e-05
-1.739e-11
3.05439e-05
-1.49854e-11
3.05439e-05
-2.31581e-11
3.05439e-05
-3.29921e-11
3.05439e-05
-4.39173e-11
3.05439e-05
-5.36329e-11
3.05439e-05
-6.01908e-11
3.05439e-05
-6.40506e-11
3.0544e-05
-6.49899e-11
3.0544e-05
-6.06965e-11
3.0544e-05
-5.21958e-11
3.0544e-05
-4.05576e-11
3.0544e-05
-2.6347e-11
3.0544e-05
-8.80513e-12
3.0544e-05
1.06286e-11
3.0544e-05
2.9249e-11
3.0544e-05
4.69941e-11
3.05439e-05
6.36588e-11
3.05439e-05
7.84077e-11
3.05439e-05
9.23915e-11
3.05439e-05
1.03954e-10
3.05438e-05
1.10966e-10
3.05438e-05
1.1633e-10
3.05438e-05
1.19928e-10
3.05437e-05
1.23105e-10
3.05437e-05
1.24895e-10
3.05437e-05
1.23539e-10
3.05436e-05
1.22234e-10
3.05436e-05
1.19341e-10
3.05436e-05
1.13572e-10
3.05436e-05
1.05809e-10
3.05435e-05
9.93804e-11
3.05435e-05
9.43854e-11
3.05435e-05
8.79141e-11
3.05435e-05
8.18587e-11
3.05434e-05
7.64102e-11
3.05434e-05
6.86385e-11
3.05434e-05
5.86929e-11
3.05434e-05
4.7504e-11
3.05434e-05
3.33727e-11
3.05434e-05
2.23201e-11
3.05434e-05
1.68285e-11
3.05434e-05
1.45195e-11
3.05434e-05
1.54182e-11
3.05434e-05
1.46809e-11
3.05434e-05
1.23063e-11
3.05434e-05
8.35987e-12
3.05433e-05
1.99558e-12
3.05433e-05
-5.10587e-12
3.05434e-05
-1.35855e-11
3.05434e-05
-2.21585e-11
3.05434e-05
-3.03421e-11
3.05434e-05
-3.60932e-11
3.05434e-05
-4.17211e-11
3.05434e-05
-3.79518e-11
3.05434e-05
-3.13036e-11
3.05434e-05
-1.13656e-11
3.05434e-05
1.85432e-11
3.05434e-05
3.00556e-11
3.05434e-05
2.89136e-11
3.05434e-05
1.4942e-11
3.05434e-05
-5.80152e-12
3.05434e-05
-2.75478e-11
3.05434e-05
-4.81724e-11
3.05435e-05
-6.53413e-11
3.05435e-05
-8.03438e-11
3.05435e-05
-9.29596e-11
3.05435e-05
-1.03176e-10
3.05435e-05
-1.02582e-10
3.05436e-05
-8.824e-11
3.05436e-05
-9.02244e-11
3.05436e-05
-1.38702e-11
-6.73887e-11
3.52425e-05
-3.39146e-10
3.52425e-05
-3.4958e-10
3.52425e-05
-2.09952e-10
3.52425e-05
-1.49572e-11
3.52425e-05
1.70007e-10
3.52424e-05
3.15469e-10
3.52423e-05
4.18376e-10
3.52422e-05
4.82733e-10
3.52421e-05
5.09388e-10
3.5242e-05
5.04926e-10
3.52419e-05
4.7913e-10
3.52418e-05
4.40519e-10
3.52418e-05
3.97954e-10
3.52417e-05
3.50088e-10
3.52416e-05
3.01731e-10
3.52416e-05
2.53286e-10
3.52415e-05
2.02312e-10
3.52415e-05
1.54835e-10
3.52415e-05
1.09051e-10
3.52415e-05
6.34987e-11
3.52415e-05
2.0507e-11
3.52415e-05
-2.12438e-11
3.52415e-05
-5.97305e-11
3.52415e-05
-9.23035e-11
3.52415e-05
-1.21165e-10
3.52416e-05
-1.46643e-10
3.52416e-05
-1.71209e-10
3.52416e-05
-1.95048e-10
3.52417e-05
-2.1415e-10
3.52417e-05
-2.29307e-10
3.52418e-05
-2.43248e-10
3.52418e-05
-2.54934e-10
3.52419e-05
-2.64736e-10
3.52419e-05
-2.74341e-10
3.5242e-05
-2.83005e-10
3.52421e-05
-2.8951e-10
3.52421e-05
-2.94093e-10
3.52422e-05
-2.98128e-10
3.52422e-05
-2.99572e-10
3.52423e-05
-2.98906e-10
3.52424e-05
-2.86634e-10
3.52424e-05
-2.69237e-10
3.52425e-05
-2.41727e-10
3.52425e-05
-2.07239e-10
3.52426e-05
-1.6075e-10
3.52426e-05
-9.71242e-11
3.52426e-05
-5.48658e-11
3.52426e-05
-3.22469e-11
3.52426e-05
-2.60592e-11
3.52427e-05
-3.42078e-11
3.52427e-05
-4.46803e-11
3.52427e-05
-5.66996e-11
3.52427e-05
-6.77656e-11
3.52427e-05
-7.47821e-11
3.52427e-05
-7.88195e-11
3.52427e-05
-7.88617e-11
3.52427e-05
-7.23571e-11
3.52428e-05
-6.1505e-11
3.52428e-05
-4.64822e-11
3.52428e-05
-2.81315e-11
3.52428e-05
-5.69894e-12
3.52428e-05
1.82822e-11
3.52427e-05
4.05044e-11
3.52427e-05
6.23028e-11
3.52427e-05
8.30658e-11
3.52427e-05
1.01413e-10
3.52427e-05
1.18426e-10
3.52426e-05
1.32225e-10
3.52426e-05
1.40733e-10
3.52426e-05
1.47452e-10
3.52425e-05
1.52673e-10
3.52425e-05
1.5664e-10
3.52425e-05
1.58212e-10
3.52424e-05
1.56358e-10
3.52424e-05
1.54201e-10
3.52424e-05
1.50152e-10
3.52423e-05
1.43317e-10
3.52423e-05
1.34865e-10
3.52423e-05
1.27346e-10
3.52423e-05
1.20692e-10
3.52422e-05
1.12332e-10
3.52422e-05
1.04523e-10
3.52422e-05
9.7451e-11
3.52422e-05
8.8001e-11
3.52422e-05
7.54877e-11
3.52421e-05
6.2242e-11
3.52421e-05
4.6402e-11
3.52421e-05
3.28268e-11
3.52421e-05
2.52171e-11
3.52421e-05
2.15184e-11
3.52421e-05
2.17755e-11
3.52421e-05
2.0604e-11
3.52421e-05
1.74865e-11
3.52421e-05
1.21572e-11
3.52421e-05
3.92426e-12
3.52421e-05
-5.4179e-12
3.52421e-05
-1.63651e-11
3.52421e-05
-2.74843e-11
3.52421e-05
-3.85064e-11
3.52421e-05
-4.7e-11
3.52421e-05
-5.52283e-11
3.52421e-05
-5.24254e-11
3.52421e-05
-4.5389e-11
3.52422e-05
-2.28069e-11
3.52422e-05
1.17868e-11
3.52422e-05
2.65625e-11
3.52422e-05
2.71284e-11
3.52422e-05
1.26551e-11
3.52422e-05
-1.06994e-11
3.52422e-05
-3.55373e-11
3.52422e-05
-5.90168e-11
3.52422e-05
-7.9598e-11
3.52422e-05
-9.84255e-11
3.52423e-05
-1.14624e-10
3.52423e-05
-1.27083e-10
3.52423e-05
-1.25911e-10
3.52423e-05
-1.09813e-10
3.52423e-05
-1.11643e-10
3.52423e-05
-1.9548e-11
-9.94456e-11
3.96274e-05
-3.90751e-10
3.96274e-05
-3.8508e-10
3.96274e-05
-2.13309e-10
3.96274e-05
1.13661e-11
3.96273e-05
2.20061e-10
3.96273e-05
3.83582e-10
3.96272e-05
4.9914e-10
3.96271e-05
5.71186e-10
3.9627e-05
5.99559e-10
3.96269e-05
5.94464e-10
3.96268e-05
5.65531e-10
3.96268e-05
5.21153e-10
3.96267e-05
4.71912e-10
3.96266e-05
4.15532e-10
3.96266e-05
3.58294e-10
3.96265e-05
3.00848e-10
3.96265e-05
2.40659e-10
3.96264e-05
1.84639e-10
3.96264e-05
1.30365e-10
3.96264e-05
7.59909e-11
3.96264e-05
2.47752e-11
3.96264e-05
-2.55582e-11
3.96264e-05
-7.15401e-11
3.96264e-05
-1.09476e-10
3.96265e-05
-1.44047e-10
3.96265e-05
-1.75815e-10
3.96265e-05
-2.05834e-10
3.96266e-05
-2.33811e-10
3.96266e-05
-2.56645e-10
3.96267e-05
-2.75232e-10
3.96267e-05
-2.91865e-10
3.96268e-05
-3.06371e-10
3.96268e-05
-3.19462e-10
3.96269e-05
-3.31515e-10
3.96269e-05
-3.41769e-10
3.9627e-05
-3.49566e-10
3.9627e-05
-3.55658e-10
3.96271e-05
-3.61839e-10
3.96272e-05
-3.6411e-10
3.96272e-05
-3.62807e-10
3.96273e-05
-3.49598e-10
3.96274e-05
-3.30793e-10
3.96274e-05
-2.99372e-10
3.96275e-05
-2.59065e-10
3.96275e-05
-2.04084e-10
3.96275e-05
-1.298e-10
3.96276e-05
-7.96894e-11
3.96276e-05
-5.03767e-11
3.96276e-05
-3.96599e-11
3.96276e-05
-4.69489e-11
3.96276e-05
-5.78505e-11
3.96276e-05
-7.06738e-11
3.96277e-05
-8.2127e-11
3.96277e-05
-8.90081e-11
3.96277e-05
-9.23346e-11
3.96277e-05
-9.08665e-11
3.96277e-05
-8.24653e-11
3.96277e-05
-6.95513e-11
3.96277e-05
-5.07084e-11
3.96277e-05
-2.79406e-11
3.96277e-05
-8.55885e-13
3.96277e-05
2.78333e-11
3.96277e-05
5.32789e-11
3.96277e-05
7.85927e-11
3.96277e-05
1.03429e-10
3.96276e-05
1.25201e-10
3.96276e-05
1.44939e-10
3.96276e-05
1.60688e-10
3.96275e-05
1.70662e-10
3.96275e-05
1.78933e-10
3.96275e-05
1.85269e-10
3.96274e-05
1.8966e-10
3.96274e-05
1.9158e-10
3.96274e-05
1.89343e-10
3.96274e-05
1.86103e-10
3.96273e-05
1.80903e-10
3.96273e-05
1.73442e-10
3.96273e-05
1.64845e-10
3.96272e-05
1.5621e-10
3.96272e-05
1.47682e-10
3.96272e-05
1.37338e-10
3.96272e-05
1.27742e-10
3.96271e-05
1.19019e-10
3.96271e-05
1.0778e-10
3.96271e-05
9.32357e-11
3.96271e-05
7.81502e-11
3.96271e-05
6.05071e-11
3.96271e-05
4.46598e-11
3.9627e-05
3.475e-11
3.9627e-05
2.94285e-11
3.9627e-05
2.88026e-11
3.9627e-05
2.69239e-11
3.9627e-05
2.28593e-11
3.9627e-05
1.60654e-11
3.9627e-05
5.79858e-12
3.9627e-05
-6.03e-12
3.9627e-05
-1.9571e-11
3.9627e-05
-3.34227e-11
3.9627e-05
-4.76932e-11
3.9627e-05
-5.93702e-11
3.96271e-05
-7.05242e-11
3.96271e-05
-6.87592e-11
3.96271e-05
-6.14119e-11
3.96271e-05
-3.70945e-11
3.96271e-05
2.18775e-12
3.96271e-05
2.06733e-11
3.96271e-05
2.25363e-11
3.96271e-05
8.51991e-12
3.96271e-05
-1.59081e-11
3.96271e-05
-4.29605e-11
3.96272e-05
-6.9041e-11
3.96272e-05
-9.32865e-11
3.96272e-05
-1.16062e-10
3.96272e-05
-1.35295e-10
3.96272e-05
-1.494e-10
3.96272e-05
-1.47884e-10
3.96273e-05
-1.31108e-10
3.96273e-05
-1.3192e-10
3.96273e-05
-2.77882e-11
-1.24265e-10
4.37207e-05
-4.15888e-10
4.37207e-05
-3.98396e-10
4.37207e-05
-2.04211e-10
4.37206e-05
4.24543e-11
4.37206e-05
2.69763e-10
4.37205e-05
4.47873e-10
4.37204e-05
5.73214e-10
4.37204e-05
6.50718e-10
4.37203e-05
6.80405e-10
4.37202e-05
6.75086e-10
4.37201e-05
6.43689e-10
4.372e-05
5.94747e-10
4.372e-05
5.39997e-10
4.37199e-05
4.7651e-10
4.37199e-05
4.11397e-10
4.37198e-05
3.45597e-10
4.37198e-05
2.76885e-10
4.37198e-05
2.12852e-10
4.37197e-05
1.50554e-10
4.37197e-05
8.77635e-11
4.37197e-05
2.88923e-11
4.37197e-05
-2.93148e-11
4.37197e-05
-8.22378e-11
4.37198e-05
-1.25246e-10
4.37198e-05
-1.6494e-10
4.37198e-05
-2.03475e-10
4.37198e-05
-2.39716e-10
4.37199e-05
-2.70853e-10
4.37199e-05
-2.97368e-10
4.372e-05
-3.1996e-10
4.372e-05
-3.39347e-10
4.37201e-05
-3.56384e-10
4.37201e-05
-3.73405e-10
4.37202e-05
-3.88587e-10
4.37202e-05
-4.00125e-10
4.37203e-05
-4.09148e-10
4.37203e-05
-4.172e-10
4.37204e-05
-4.25115e-10
4.37205e-05
-4.27867e-10
4.37205e-05
-4.2687e-10
4.37206e-05
-4.13724e-10
4.37207e-05
-3.93891e-10
4.37207e-05
-3.58286e-10
4.37208e-05
-3.12347e-10
4.37208e-05
-2.498e-10
4.37209e-05
-1.65768e-10
4.37209e-05
-1.0734e-10
4.37209e-05
-7.12491e-11
4.37209e-05
-5.55115e-11
4.37209e-05
-6.08231e-11
4.37209e-05
-7.21367e-11
4.3721e-05
-8.53462e-11
4.3721e-05
-9.6288e-11
4.3721e-05
-1.02447e-10
4.3721e-05
-1.04308e-10
4.3721e-05
-1.0075e-10
4.3721e-05
-9.07703e-11
4.3721e-05
-7.60608e-11
4.3721e-05
-5.30865e-11
4.3721e-05
-2.49339e-11
4.3721e-05
6.82034e-12
4.3721e-05
3.91667e-11
4.3721e-05
6.70846e-11
4.3721e-05
9.57484e-11
4.3721e-05
1.24711e-10
4.37209e-05
1.49496e-10
4.37209e-05
1.71503e-10
4.37209e-05
1.8885e-10
4.37208e-05
2.00327e-10
4.37208e-05
2.10348e-10
4.37208e-05
2.1731e-10
4.37208e-05
2.21698e-10
4.37207e-05
2.23567e-10
4.37207e-05
2.20898e-10
4.37207e-05
2.1716e-10
4.37206e-05
2.11009e-10
4.37206e-05
2.0363e-10
4.37206e-05
1.95012e-10
4.37205e-05
1.84822e-10
4.37205e-05
1.74582e-10
4.37205e-05
1.62373e-10
4.37205e-05
1.51048e-10
4.37204e-05
1.40695e-10
4.37204e-05
1.27619e-10
4.37204e-05
1.11451e-10
4.37204e-05
9.47738e-11
4.37204e-05
7.50221e-11
4.37204e-05
5.69876e-11
4.37203e-05
4.49835e-11
4.37203e-05
3.80005e-11
4.37203e-05
3.63349e-11
4.37203e-05
3.35106e-11
4.37203e-05
2.82414e-11
4.37203e-05
1.9869e-11
4.37203e-05
7.40499e-12
4.37203e-05
-7.15459e-12
4.37203e-05
-2.33336e-11
4.37203e-05
-4.0128e-11
4.37203e-05
-5.81414e-11
4.37204e-05
-7.34001e-11
4.37204e-05
-8.77021e-11
4.37204e-05
-8.68824e-11
4.37204e-05
-7.92813e-11
4.37204e-05
-5.36816e-11
4.37204e-05
-1.01456e-11
4.37204e-05
1.22691e-11
4.37204e-05
1.58506e-11
4.37205e-05
3.22004e-12
4.37205e-05
-2.10909e-11
4.37205e-05
-4.95951e-11
4.37205e-05
-7.80884e-11
4.37205e-05
-1.06492e-10
4.37205e-05
-1.33166e-10
4.37205e-05
-1.54737e-10
4.37205e-05
-1.70168e-10
4.37206e-05
-1.68547e-10
4.37206e-05
-1.51064e-10
4.37206e-05
-1.50013e-10
4.37206e-05
-3.83488e-11
-1.40109e-10
4.75727e-05
-4.15303e-10
4.75727e-05
-3.88176e-10
4.75726e-05
-1.8081e-10
4.75726e-05
7.8986e-11
4.75726e-05
3.1933e-10
4.75725e-05
5.07902e-10
4.75724e-05
6.40146e-10
4.75724e-05
7.20426e-10
4.75723e-05
7.51152e-10
4.75722e-05
7.46138e-10
4.75721e-05
7.12645e-10
4.75721e-05
6.5957e-10
4.7572e-05
6.00368e-10
4.7572e-05
5.31881e-10