/*--------------------------------*- C++ -*----------------------------------*\
  =========                 |
  \\      /  F ield         | OpenFOAM: The Open Source CFD Toolbox
   \\    /   O peration     | Website:  https://openfoam.org
    \\  /    A nd           | Version:  7
     \\/     M anipulation  |
\*---------------------------------------------------------------------------*/
FoamFile
{
    version     2.0;
    format      ascii;
    class       volVectorField;
    location    "19000";
    object      U;
}
// * * * * * * * * * * * * * * * * * * * * * * * * * * * * * * * * * * * * * //

dimensions      [0 1 -1 0 0 0 0];

internalField   nonuniform List<vector> 
24000
(
(0.00398203 5.94484e-11 8.30118e-16)
(0.00398204 -9.08738e-11 8.11498e-16)
(0.00398205 -1.18159e-10 8.14945e-16)
(0.00398207 -8.2503e-11 7.47084e-16)
(0.00398207 -2.79801e-11 3.91817e-16)
(0.00398207 1.83728e-11 7.20617e-16)
(0.00398206 5.47649e-11 4.24158e-16)
(0.00398205 7.85374e-11 7.36999e-16)
(0.00398203 9.21561e-11 7.84807e-16)
(0.00398201 9.80855e-11 4.73081e-16)
(0.003982 9.39893e-11 7.56078e-16)
(0.00398198 8.53646e-11 7.64648e-16)
(0.00398197 8.00414e-11 7.68189e-16)
(0.00398195 7.001e-11 7.4332e-16)
(0.00398194 6.12876e-11 7.26347e-16)
(0.00398193 5.48729e-11 7.58872e-16)
(0.00398192 4.19234e-11 7.45427e-16)
(0.00398192 3.49696e-11 7.50209e-16)
(0.00398191 2.62517e-11 7.26011e-16)
(0.00398191 1.462e-11 6.72198e-16)
(0.00398191 7.08452e-12 7.58392e-16)
(0.00398191 1.91129e-13 7.1194e-16)
(0.00398191 -6.50522e-12 7.26216e-16)
(0.00398191 -1.57258e-11 7.0232e-16)
(0.00398191 -2.32148e-11 6.46689e-16)
(0.00398192 -2.54262e-11 7.38355e-16)
(0.00398192 -3.10705e-11 7.1837e-16)
(0.00398193 -3.79247e-11 7.30866e-16)
(0.00398194 -3.90939e-11 6.97381e-16)
(0.00398194 -4.10044e-11 6.31302e-16)
(0.00398195 -4.7563e-11 7.27714e-16)
(0.00398196 -5.10697e-11 7.0767e-16)
(0.00398197 -5.146e-11 7.2576e-16)
(0.00398198 -5.25988e-11 6.89652e-16)
(0.00398199 -5.59007e-11 6.21299e-16)
(0.00398199 -5.74118e-11 7.28082e-16)
(0.003982 -5.57821e-11 7.09756e-16)
(0.00398201 -5.83776e-11 7.15634e-16)
(0.00398202 -5.60402e-11 6.8644e-16)
(0.00398203 -5.87865e-11 6.38223e-16)
(0.00398204 -4.98538e-11 6.72244e-16)
(0.00398205 -4.47514e-11 8.60342e-16)
(0.00398206 -2.87191e-11 7.26387e-16)
(0.00398206 -1.44912e-11 7.2182e-16)
(0.00398207 -1.27432e-12 7.35171e-16)
(0.00398207 3.12952e-11 7.4849e-16)
(0.00398207 2.9222e-11 9.8242e-16)
(0.00398206 2.74088e-11 7.69937e-16)
(0.00398206 1.89502e-11 7.58387e-16)
(0.00398206 5.281e-12 7.63052e-16)
(0.00398206 1.6614e-13 7.69403e-16)
(0.00398206 -7.35496e-12 9.77521e-16)
(0.00398206 -1.21016e-11 7.79529e-16)
(0.00398207 -1.64972e-11 9.28153e-16)
(0.00398207 -1.94398e-11 7.78316e-16)
(0.00398207 -2.27662e-11 7.94679e-16)
(0.00398208 -2.39471e-11 9.52142e-16)
(0.00398208 -2.34871e-11 8.04343e-16)
(0.00398208 -2.06513e-11 1.02735e-15)
(0.00398208 -1.8353e-11 7.65137e-16)
(0.00398209 -1.54258e-11 8.19376e-16)
(0.00398209 -1.02384e-11 1.00014e-15)
(0.00398209 -5.22877e-12 8.17162e-16)
(0.00398209 5.54827e-14 1.04507e-15)
(0.00398209 4.56526e-12 8.11167e-16)
(0.00398208 7.53924e-12 8.29169e-16)
(0.00398208 1.21173e-11 1.04549e-15)
(0.00398208 1.69695e-11 8.28125e-16)
(0.00398208 1.77792e-11 1.03388e-15)
(0.00398207 2.07001e-11 7.92512e-16)
(0.00398207 2.07456e-11 8.39068e-16)
(0.00398206 2.1969e-11 9.86613e-16)
(0.00398206 2.35931e-11 8.38096e-16)
(0.00398205 2.17171e-11 9.73797e-16)
(0.00398205 2.39594e-11 7.78067e-16)
(0.00398204 2.49627e-11 8.4903e-16)
(0.00398204 2.23163e-11 9.79287e-16)
(0.00398204 1.93089e-11 8.43824e-16)
(0.00398203 1.85403e-11 1.05739e-15)
(0.00398203 1.6729e-11 7.93428e-16)
(0.00398203 1.37733e-11 6.01826e-16)
(0.00398202 1.30402e-11 7.36e-16)
(0.00398202 1.27777e-11 8.37454e-16)
(0.00398202 1.03722e-11 5.3353e-16)
(0.00398202 6.92256e-12 7.34569e-16)
(0.00398201 6.15052e-12 4.81839e-16)
(0.00398201 -1.05337e-12 7.04408e-16)
(0.00398201 -7.01395e-12 8.10004e-16)
(0.00398201 -6.77303e-12 6.16688e-16)
(0.00398201 -6.84092e-12 7.30144e-16)
(0.00398201 -3.30342e-12 5.36446e-16)
(0.00398201 -3.40282e-12 7.51633e-16)
(0.00398201 -3.78347e-12 8.16904e-16)
(0.00398201 -5.01822e-12 5.18962e-16)
(0.00398201 -8.12559e-12 7.30282e-16)
(0.00398202 -8.20262e-12 6.29847e-16)
(0.00398202 -1.07861e-11 7.57129e-16)
(0.00398202 -1.09172e-11 8.24659e-16)
(0.00398202 -1.26215e-11 6.20934e-16)
(0.00398202 -7.19111e-12 7.21604e-16)
(0.00398202 -8.05899e-12 5.96496e-16)
(0.00398202 4.50643e-12 7.55443e-16)
(0.00398202 1.00291e-11 8.23164e-16)
(0.00398202 2.23585e-11 6.12193e-16)
(0.00398202 4.53013e-11 7.6204e-16)
(0.00398201 3.95184e-11 6.41351e-16)
(0.00398201 3.66288e-11 6.94051e-16)
(0.00398201 2.36172e-11 8.07824e-16)
(0.00398201 9.26807e-12 6.30009e-16)
(0.00398201 -2.98144e-12 7.472e-16)
(0.00398201 -1.38637e-11 6.12994e-16)
(0.00398201 -2.00644e-11 5.91447e-16)
(0.00398201 -2.68083e-11 7.97773e-16)
(0.00398202 -3.00234e-11 6.33754e-16)
(0.00398202 -3.19159e-11 7.28569e-16)
(0.00398203 -3.06692e-11 5.67454e-16)
(0.00398203 -1.74096e-11 6.02171e-16)
(0.00398203 -2.36526e-11 8.0137e-16)
(0.00398204 -9.73466e-12 6.4879e-16)
(0.00398203 9.71312e-11 7.55282e-16)
(0.0120195 -7.11381e-11 2.51291e-15)
(0.0120196 -1.33127e-09 2.45305e-15)
(0.0120196 -1.53159e-09 2.46281e-15)
(0.0120196 -9.06492e-10 2.25513e-15)
(0.0120197 -7.52434e-11 1.53942e-15)
(0.0120196 6.38979e-10 2.19e-15)
(0.0120196 1.16896e-09 1.60939e-15)
(0.0120196 1.51349e-09 2.23631e-15)
(0.0120195 1.70173e-09 2.37201e-15)
(0.0120195 1.74661e-09 1.87689e-15)
(0.0120194 1.66517e-09 2.29476e-15)
(0.0120194 1.52861e-09 2.31062e-15)
(0.0120193 1.39438e-09 2.32318e-15)
(0.0120193 1.23285e-09 2.24662e-15)
(0.0120193 1.07624e-09 2.19796e-15)
(0.0120192 9.25629e-10 2.29803e-15)
(0.0120192 7.37597e-10 2.25285e-15)
(0.0120192 5.83061e-10 2.26852e-15)
(0.0120192 4.27053e-10 2.1959e-15)
(0.0120192 2.52621e-10 2.03527e-15)
(0.0120192 1.06244e-10 2.29056e-15)
(0.0120192 -2.30256e-11 2.14205e-15)
(0.0120192 -1.5093e-10 2.1981e-15)
(0.0120192 -2.8832e-10 2.12063e-15)
(0.0120192 -4.01585e-10 1.95037e-15)
(0.0120192 -4.71262e-10 2.22847e-15)
(0.0120192 -5.57751e-10 2.17204e-15)
(0.0120192 -6.5299e-10 2.21001e-15)
(0.0120193 -7.0382e-10 2.10146e-15)
(0.0120193 -7.49107e-10 1.89829e-15)
(0.0120193 -8.23118e-10 2.19702e-15)
(0.0120193 -8.76246e-10 2.13683e-15)
(0.0120193 -8.97786e-10 2.19453e-15)
(0.0120194 -9.20725e-10 2.0781e-15)
(0.0120194 -9.60004e-10 1.87321e-15)
(0.0120194 -9.83533e-10 2.20326e-15)
(0.0120195 -9.8133e-10 2.15383e-15)
(0.0120195 -9.95556e-10 2.16732e-15)
(0.0120195 -9.95792e-10 2.07363e-15)
(0.0120195 -1.00233e-09 1.92962e-15)
(0.0120196 -9.21994e-10 2.03552e-15)
(0.0120196 -8.2246e-10 2.19578e-15)
(0.0120196 -6.53425e-10 2.19118e-15)
(0.0120196 -4.7722e-10 2.18375e-15)
(0.0120196 -2.59514e-10 2.22247e-15)
(0.0120196 7.55712e-11 2.2631e-15)
(0.0120196 1.91543e-10 2.34952e-15)
(0.0120196 2.06381e-10 2.32187e-15)
(0.0120196 1.39899e-10 2.2952e-15)
(0.0120196 1.7281e-11 2.30808e-15)
(0.0120196 -6.49044e-11 2.32732e-15)
(0.0120196 -1.47874e-10 2.38077e-15)
(0.0120196 -2.15978e-10 2.35093e-15)
(0.0120197 -2.69022e-10 2.4319e-15)
(0.0120197 -3.06919e-10 2.39633e-15)
(0.0120197 -3.37227e-10 2.41055e-15)
(0.0120197 -3.43062e-10 2.47401e-15)
(0.0120197 -3.21398e-10 2.42635e-15)
(0.0120197 -2.75154e-10 2.49301e-15)
(0.0120197 -2.24174e-10 2.35144e-15)
(0.0120197 -1.61878e-10 2.48028e-15)
(0.0120197 -7.83414e-11 2.56077e-15)
(0.0120197 8.31223e-12 2.4637e-15)
(0.0120197 9.31369e-11 2.54446e-15)
(0.0120197 1.6826e-10 2.13804e-15)
(0.0120197 2.29375e-10 2.51545e-15)
(0.0120197 2.98844e-10 2.55965e-15)
(0.0120197 3.63172e-10 2.49762e-15)
(0.0120197 3.95126e-10 2.56099e-15)
(0.0120197 4.25834e-10 2.25066e-15)
(0.0120196 4.37839e-10 2.5426e-15)
(0.0120196 4.53844e-10 2.59042e-15)
(0.0120196 4.6845e-10 2.5295e-15)
(0.0120196 4.59142e-10 2.57188e-15)
(0.0120196 4.69662e-10 2.43451e-15)
(0.0120196 4.72455e-10 2.56717e-15)
(0.0120196 4.41431e-10 2.60038e-15)
(0.0120195 3.99639e-10 2.54726e-15)
(0.0120195 3.73232e-10 2.61168e-15)
(0.0120195 3.46241e-10 2.29787e-15)
(0.0120195 3.11041e-10 2.40284e-15)
(0.0120195 2.8947e-10 2.35343e-15)
(0.0120195 2.7438e-10 2.53207e-15)
(0.0120195 2.38452e-10 2.2834e-15)
(0.0120195 1.9348e-10 2.12152e-15)
(0.0120195 1.47355e-10 2.28583e-15)
(0.0120195 5.72539e-11 2.05749e-15)
(0.0120195 -1.25129e-11 2.44611e-15)
(0.0120195 -2.98939e-11 2.2689e-15)
(0.0120195 -2.87007e-11 2.07501e-15)
(0.0120195 -2.88276e-12 2.24071e-15)
(0.0120195 1.63985e-12 2.35346e-15)
(0.0120195 -6.39361e-12 2.47673e-15)
(0.0120195 -2.61174e-11 2.22478e-15)
(0.0120195 -5.94896e-11 2.12303e-15)
(0.0120195 -8.19391e-11 2.26232e-15)
(0.0120195 -1.14562e-10 2.28676e-15)
(0.0120195 -1.41331e-10 2.49026e-15)
(0.0120195 -1.62116e-10 2.26365e-15)
(0.0120195 -1.45986e-10 2.32801e-15)
(0.0120195 -1.42292e-10 2.2225e-15)
(0.0120195 -5.27194e-11 2.14661e-15)
(0.0120195 2.09459e-11 2.48794e-15)
(0.0120195 1.78053e-10 2.26311e-15)
(0.0120195 4.07306e-10 2.15319e-15)
(0.0120195 4.30983e-10 2.29597e-15)
(0.0120195 3.84924e-10 2.21021e-15)
(0.0120195 2.53211e-10 2.44267e-15)
(0.0120195 8.39548e-11 2.25942e-15)
(0.0120195 -7.48541e-11 2.29033e-15)
(0.0120195 -2.13562e-10 2.22235e-15)
(0.0120195 -3.1381e-10 2.1685e-15)
(0.0120195 -4.00141e-10 2.41661e-15)
(0.0120195 -4.57449e-10 2.27436e-15)
(0.0120195 -4.98191e-10 2.11945e-15)
(0.0120195 -4.82417e-10 2.28222e-15)
(0.0120195 -3.63047e-10 2.19607e-15)
(0.0120195 -4.14716e-10 2.42913e-15)
(0.0120196 -5.78113e-11 2.30239e-15)
(0.0120195 6.08061e-10 2.38497e-15)
(0.0202204 -9.71129e-10 4.25791e-15)
(0.0202205 -3.91113e-09 4.12376e-15)
(0.0202206 -4.14139e-09 4.14468e-15)
(0.0202206 -2.25641e-09 3.75994e-15)
(0.0202206 1.29527e-10 3.37726e-15)
(0.0202206 2.15811e-09 3.75616e-15)
(0.0202205 3.64367e-09 3.46741e-15)
(0.0202205 4.60132e-09 3.83109e-15)
(0.0202204 5.1113e-09 3.98305e-15)
(0.0202203 5.19893e-09 3.61772e-15)
(0.0202202 4.94385e-09 3.92532e-15)
(0.0202201 4.53983e-09 3.88257e-15)
(0.0202201 4.12278e-09 3.91453e-15)
(0.02022 3.64778e-09 3.77698e-15)
(0.02022 3.17917e-09 3.70807e-15)
(0.0202199 2.71633e-09 3.88453e-15)
(0.0202199 2.17145e-09 3.78869e-15)
(0.0202198 1.7011e-09 3.82221e-15)
(0.0202198 1.2362e-09 3.69366e-15)
(0.0202198 7.33525e-10 3.43855e-15)
(0.0202198 2.96134e-10 3.87707e-15)
(0.0202198 -9.45719e-11 3.56226e-15)
(0.0202198 -4.77869e-10 3.71095e-15)
(0.0202198 -8.70208e-10 3.53479e-15)
(0.0202198 -1.1952e-09 3.26298e-15)
(0.0202198 -1.41452e-09 3.7589e-15)
(0.0202199 -1.66527e-09 3.65502e-15)
(0.0202199 -1.93517e-09 3.72634e-15)
(0.0202199 -2.10001e-09 3.50986e-15)
(0.02022 -2.23987e-09 3.16615e-15)
(0.02022 -2.4375e-09 3.70733e-15)
(0.02022 -2.58592e-09 3.5796e-15)
(0.0202201 -2.65696e-09 3.70093e-15)
(0.0202201 -2.72626e-09 3.47086e-15)
(0.0202202 -2.83219e-09 3.13722e-15)
(0.0202202 -2.90152e-09 3.72488e-15)
(0.0202203 -2.90264e-09 3.63881e-15)
(0.0202203 -2.93694e-09 3.66155e-15)
(0.0202204 -2.95076e-09 3.48595e-15)
(0.0202204 -2.96112e-09 3.2511e-15)
(0.0202204 -2.75194e-09 3.44705e-15)
(0.0202205 -2.47058e-09 3.53765e-15)
(0.0202205 -2.03555e-09 3.6877e-15)
(0.0202206 -1.56222e-09 3.68018e-15)
(0.0202206 -9.58022e-10 3.74663e-15)
(0.0202206 -7.4817e-11 3.81429e-15)
(0.0202206 3.19423e-10 3.79182e-15)
(0.0202206 4.11621e-10 3.9057e-15)
(0.0202206 2.71918e-10 3.86916e-15)
(0.0202206 -2.04652e-11 3.89259e-15)
(0.0202206 -2.40793e-10 3.9242e-15)
(0.0202206 -4.59367e-10 3.86765e-15)
(0.0202206 -6.44326e-10 3.95239e-15)
(0.0202206 -7.85643e-10 3.95311e-15)
(0.0202206 -8.84355e-10 4.38223e-15)
(0.0202206 -9.55886e-10 4.08361e-15)
(0.0202207 -9.59249e-10 3.99636e-15)
(0.0202207 -8.85638e-10 4.07993e-15)
(0.0202207 -7.47145e-10 4.04138e-15)
(0.0202207 -5.8937e-10 4.2598e-15)
(0.0202207 -3.97681e-10 4.19346e-15)
(0.0202207 -1.5233e-10 4.10138e-15)
(0.0202207 1.02011e-10 4.14051e-15)
(0.0202207 3.48332e-10 4.1234e-15)
(0.0202207 5.68489e-10 4.41845e-15)
(0.0202207 7.52891e-10 4.26113e-15)
(0.0202207 9.51398e-10 4.14349e-15)
(0.0202206 1.13143e-09 4.19814e-15)
(0.0202206 1.22966e-09 4.18225e-15)
(0.0202206 1.31291e-09 4.57392e-15)
(0.0202206 1.35113e-09 4.30344e-15)
(0.0202206 1.39524e-09 4.20378e-15)
(0.0202205 1.4331e-09 4.25564e-15)
(0.0202205 1.41311e-09 4.1911e-15)
(0.0202205 1.43029e-09 4.54647e-15)
(0.0202205 1.42772e-09 4.34114e-15)
(0.0202204 1.34335e-09 4.23932e-15)
(0.0202204 1.22579e-09 4.28619e-15)
(0.0202204 1.14191e-09 4.24713e-15)
(0.0202204 1.06477e-09 4.58501e-15)
(0.0202204 9.69298e-10 4.19992e-15)
(0.0202204 9.01785e-10 4.29857e-15)
(0.0202203 8.50589e-10 4.28795e-15)
(0.0202203 7.47927e-10 4.03135e-15)
(0.0202203 6.19497e-10 4.37635e-15)
(0.0202203 4.69161e-10 4.02235e-15)
(0.0202203 2.20784e-10 4.11235e-15)
(0.0202203 3.6784e-11 4.14104e-15)
(0.0202203 -1.97868e-11 3.95887e-15)
(0.0202203 -2.12524e-11 4.31947e-15)
(0.0202203 3.75001e-11 3.94539e-15)
(0.0202203 4.9128e-11 4.23526e-15)
(0.0202203 2.49207e-11 4.19787e-15)
(0.0202203 -3.04757e-11 3.92561e-15)
(0.0202203 -1.20598e-10 4.31262e-15)
(0.0202203 -1.94026e-10 3.9507e-15)
(0.0202203 -2.9014e-10 4.35662e-15)
(0.0202203 -3.7808e-10 4.1977e-15)
(0.0202203 -4.46703e-10 3.94679e-15)
(0.0202203 -4.34695e-10 4.15963e-15)
(0.0202203 -4.36794e-10 3.93168e-15)
(0.0202203 -2.37951e-10 4.19541e-15)
(0.0202203 -5.06308e-11 4.20166e-15)
(0.0202203 3.6439e-10 3.95611e-15)
(0.0202203 9.58597e-10 4.25496e-15)
(0.0202203 1.06733e-09 3.99525e-15)
(0.0202203 9.56069e-10 4.08924e-15)
(0.0202203 6.21947e-10 4.14133e-15)
(0.0202203 1.8038e-10 3.91372e-15)
(0.0202203 -2.451e-10 4.15999e-15)
(0.0202203 -6.21013e-10 3.89025e-15)
(0.0202203 -9.03098e-10 3.79626e-15)
(0.0202203 -1.14052e-09 4.08916e-15)
(0.0202203 -1.30714e-09 3.94836e-15)
(0.0202204 -1.42995e-09 4.16872e-15)
(0.0202204 -1.39756e-09 3.97823e-15)
(0.0202204 -1.10125e-09 3.84638e-15)
(0.0202204 -1.20706e-09 4.11552e-15)
(0.0202204 -1.86933e-10 3.97533e-15)
(0.0202204 1.10729e-09 4.25434e-15)
(0.0285525 -3.25712e-09 5.99486e-15)
(0.0285526 -7.94498e-09 5.81947e-15)
(0.0285527 -7.68802e-09 5.85097e-15)
(0.0285527 -3.76983e-09 5.35832e-15)
(0.0285527 9.11787e-10 5.22934e-15)
(0.0285527 4.84116e-09 5.42156e-15)
(0.0285526 7.6849e-09 5.30387e-15)
(0.0285525 9.5011e-09 5.51598e-15)
(0.0285524 1.04406e-08 5.61136e-15)
(0.0285523 1.05273e-08 5.4515e-15)
(0.0285521 9.98147e-09 5.64045e-15)
(0.028552 9.16691e-09 5.46741e-15)
(0.0285519 8.30473e-09 5.53915e-15)
(0.0285519 7.35032e-09 5.31311e-15)
(0.0285518 6.38963e-09 5.25821e-15)
(0.0285517 5.43131e-09 5.49314e-15)
(0.0285517 4.34324e-09 5.33064e-15)
(0.0285516 3.37987e-09 5.40735e-15)
(0.0285516 2.43696e-09 5.19516e-15)
(0.0285516 1.44062e-09 4.95721e-15)
(0.0285516 5.55583e-10 5.43959e-15)
(0.0285516 -2.44591e-10 5.08967e-15)
(0.0285516 -1.02498e-09 5.27674e-15)
(0.0285516 -1.79462e-09 4.77198e-15)
(0.0285516 -2.43265e-09 4.70815e-15)
(0.0285516 -2.89038e-09 5.35635e-15)
(0.0285517 -3.39079e-09 5.18294e-15)
(0.0285517 -3.91861e-09 5.28363e-15)
(0.0285518 -4.26834e-09 5.03412e-15)
(0.0285518 -4.55866e-09 4.60301e-15)
(0.0285519 -4.92785e-09 5.27931e-15)
(0.0285519 -5.21082e-09 5.11588e-15)
(0.028552 -5.3622e-09 5.24889e-15)
(0.028552 -5.51168e-09 4.98543e-15)
(0.0285521 -5.71168e-09 4.53265e-15)
(0.0285522 -5.84353e-09 5.26338e-15)
(0.0285522 -5.85057e-09 4.97701e-15)
(0.0285523 -5.91342e-09 5.20239e-15)
(0.0285524 -5.95841e-09 4.61242e-15)
(0.0285524 -5.97078e-09 4.47426e-15)
(0.0285525 -5.57366e-09 4.93119e-15)
(0.0285525 -5.03215e-09 4.91099e-15)
(0.0285526 -4.25766e-09 5.23477e-15)
(0.0285526 -3.37757e-09 5.19978e-15)
(0.0285527 -2.22839e-09 5.30925e-15)
(0.0285527 -5.931e-10 5.39764e-15)
(0.0285527 2.5004e-10 5.26254e-15)
(0.0285527 5.0802e-10 5.5351e-15)
(0.0285527 3.14084e-10 5.47225e-15)
(0.0285527 -1.70432e-10 5.51741e-15)
(0.0285527 -5.69269e-10 5.55453e-15)
(0.0285527 -9.6921e-10 5.36009e-15)
(0.0285527 -1.31337e-09 5.5917e-15)
(0.0285528 -1.5721e-09 5.51063e-15)
(0.0285528 -1.74753e-09 5.82429e-15)
(0.0285528 -1.86249e-09 5.7305e-15)
(0.0285528 -1.84389e-09 5.54155e-15)
(0.0285528 -1.67802e-09 5.77554e-15)
(0.0285528 -1.39345e-09 5.6303e-15)
(0.0285529 -1.06409e-09 5.90243e-15)
(0.0285529 -6.6508e-10 5.9014e-15)
(0.0285529 -1.7049e-10 5.66152e-15)
(0.0285529 3.38698e-10 5.85679e-15)
(0.0285529 8.27512e-10 5.73884e-15)
(0.0285528 1.26772e-09 6.1324e-15)
(0.0285528 1.6434e-09 5.99862e-15)
(0.0285528 2.03344e-09 5.73787e-15)
(0.0285528 2.3806e-09 5.93906e-15)
(0.0285527 2.57923e-09 5.8263e-15)
(0.0285527 2.73695e-09 6.10648e-15)
(0.0285527 2.81576e-09 6.06954e-15)
(0.0285526 2.90014e-09 5.83575e-15)
(0.0285526 2.96941e-09 6.02496e-15)
(0.0285526 2.93626e-09 5.8394e-15)
(0.0285525 2.95179e-09 6.08613e-15)
(0.0285525 2.92876e-09 6.1041e-15)
(0.0285525 2.76618e-09 5.88558e-15)
(0.0285525 2.53757e-09 6.06751e-15)
(0.0285524 2.36269e-09 5.90804e-15)
(0.0285524 2.21181e-09 6.11511e-15)
(0.0285524 2.03096e-09 5.98122e-15)
(0.0285524 1.89054e-09 6.06872e-15)
(0.0285523 1.77757e-09 6.05223e-15)
(0.0285523 1.57415e-09 5.77402e-15)
(0.0285523 1.31985e-09 5.86438e-15)
(0.0285523 9.90639e-10 5.74459e-15)
(0.0285523 5.14195e-10 5.80198e-15)
(0.0285523 1.87818e-10 5.85412e-15)
(0.0285523 7.20669e-11 5.64464e-15)
(0.0285523 5.96999e-11 5.79498e-15)
(0.0285523 1.53493e-10 5.6497e-15)
(0.0285523 1.70149e-10 5.93022e-15)
(0.0285523 1.19606e-10 5.91764e-15)
(0.0285522 1.27558e-11 5.63403e-15)
(0.0285522 -1.58392e-10 5.75744e-15)
(0.0285522 -3.14614e-10 5.63602e-15)
(0.0285523 -5.11012e-10 5.7817e-15)
(0.0285523 -6.99727e-10 5.90496e-15)
(0.0285523 -8.53184e-10 5.64425e-15)
(0.0285523 -8.77727e-10 5.85319e-15)
(0.0285523 -9.11899e-10 5.6195e-15)
(0.0285523 -6.02549e-10 5.8434e-15)
(0.0285523 -2.78889e-10 5.9103e-15)
(0.0285523 4.88908e-10 5.64416e-15)
(0.0285523 1.57014e-09 5.90925e-15)
(0.0285523 1.81229e-09 5.68781e-15)
(0.0285523 1.62858e-09 5.75474e-15)
(0.0285523 1.03687e-09 5.85866e-15)
(0.0285523 2.39224e-10 5.5822e-15)
(0.0285523 -5.44615e-10 5.76428e-15)
(0.0285523 -1.24686e-09 5.53808e-15)
(0.0285523 -1.78719e-09 5.46013e-15)
(0.0285523 -2.2376e-09 5.83017e-15)
(0.0285523 -2.56668e-09 5.63988e-15)
(0.0285524 -2.81625e-09 5.7982e-15)
(0.0285524 -2.77183e-09 5.64567e-15)
(0.0285524 -2.25011e-09 5.54132e-15)
(0.0285524 -2.40287e-09 5.87653e-15)
(0.0285525 -3.94456e-10 5.66202e-15)
(0.0285525 1.15616e-09 5.92591e-15)
(0.0368909 -7.61003e-09 7.72271e-15)
(0.036891 -1.34145e-08 7.5042e-15)
(0.0368911 -1.16757e-08 7.54733e-15)
(0.0368912 -4.90044e-09 7.22454e-15)
(0.0368911 2.66515e-09 7.13189e-15)
(0.0368911 8.93082e-09 7.02274e-15)
(0.036891 1.34161e-08 7.12184e-15)
(0.0368908 1.62535e-08 7.25565e-15)
(0.0368907 1.76691e-08 7.33837e-15)
(0.0368906 1.76478e-08 7.24861e-15)
(0.0368904 1.66815e-08 7.40354e-15)
(0.0368903 1.53754e-08 7.01276e-15)
(0.0368902 1.39085e-08 7.18431e-15)
(0.0368901 1.22724e-08 6.80296e-15)
(0.03689 1.06392e-08 6.83822e-15)
(0.0368899 8.99933e-09 7.15567e-15)
(0.0368898 7.18838e-09 6.81715e-15)
(0.0368898 5.56185e-09 7.00831e-15)
(0.0368897 3.97718e-09 6.64226e-15)
(0.0368897 2.33087e-09 6.51099e-15)
(0.0368897 8.49482e-10 7.1169e-15)
(0.0368897 -5.06504e-10 6.8198e-15)
(0.0368897 -1.82371e-09 6.93389e-15)
(0.0368897 -3.0773e-09 6.91021e-15)
(0.0368898 -4.11641e-09 6.51072e-15)
(0.0368898 -4.90198e-09 7.09471e-15)
(0.0368899 -5.73573e-09 7.01691e-15)
(0.0368899 -6.59803e-09 6.87495e-15)
(0.03689 -7.20362e-09 6.81689e-15)
(0.03689 -7.70002e-09 6.38172e-15)
(0.0368901 -8.27767e-09 7.00958e-15)
(0.0368902 -8.72398e-09 6.92304e-15)
(0.0368902 -8.9877e-09 6.8471e-15)
(0.0368903 -9.25217e-09 6.76885e-15)
(0.0368904 -9.56753e-09 6.29485e-15)
(0.0368905 -9.77739e-09 6.9611e-15)
(0.0368905 -9.83578e-09 6.9443e-15)
(0.0368906 -9.94567e-09 6.78005e-15)
(0.0368907 -9.9989e-09 6.69178e-15)
(0.0368908 -1.00047e-08 6.38544e-15)
(0.0368909 -9.35143e-09 6.5151e-15)
(0.0368909 -8.49131e-09 6.642e-15)
(0.036891 -7.36092e-09 6.85939e-15)
(0.0368911 -5.99622e-09 6.69713e-15)
(0.0368911 -4.17925e-09 6.90247e-15)
(0.0368911 -1.63484e-09 6.98804e-15)
(0.0368912 -1.83036e-10 7.08366e-15)
(0.0368912 3.4721e-10 7.23062e-15)
(0.0368912 1.52765e-10 7.07351e-15)
(0.0368912 -5.01072e-10 7.17289e-15)
(0.0368912 -1.08967e-09 7.18987e-15)
(0.0368912 -1.699e-09 7.1735e-15)
(0.0368912 -2.2275e-09 7.28031e-15)
(0.0368912 -2.61691e-09 7.42652e-15)
(0.0368913 -2.87084e-09 7.48312e-15)
(0.0368913 -3.0168e-09 7.35899e-15)
(0.0368913 -2.94187e-09 7.42649e-15)
(0.0368913 -2.63454e-09 7.52365e-15)
(0.0368913 -2.14786e-09 7.57331e-15)
(0.0368914 -1.57871e-09 7.66124e-15)
(0.0368914 -8.91526e-10 7.57559e-15)
(0.0368914 -6.09779e-11 7.5377e-15)
(0.0368914 7.8549e-10 7.62148e-15)
(0.0368913 1.58967e-09 7.68511e-15)
(0.0368913 2.31976e-09 7.85799e-15)
(0.0368913 2.95218e-09 7.71407e-15)
(0.0368913 3.58959e-09 7.6484e-15)
(0.0368912 4.1458e-09 7.73031e-15)
(0.0368912 4.47255e-09 7.80753e-15)
(0.0368912 4.72272e-09 7.78028e-15)
(0.0368911 4.8537e-09 7.80109e-15)
(0.0368911 4.98922e-09 7.80766e-15)
(0.036891 5.09741e-09 7.84495e-15)
(0.036891 5.04729e-09 7.82377e-15)
(0.0368909 5.04643e-09 7.90904e-15)
(0.0368909 4.97964e-09 7.82667e-15)
(0.0368909 4.71517e-09 7.85627e-15)
(0.0368908 4.34265e-09 7.89609e-15)
(0.0368908 4.04561e-09 7.92462e-15)
(0.0368908 3.80413e-09 7.91551e-15)
(0.0368907 3.51647e-09 8.06432e-15)
(0.0368907 3.27568e-09 7.83395e-15)
(0.0368907 3.07224e-09 7.80593e-15)
(0.0368906 2.73245e-09 7.83159e-15)
(0.0368906 2.3108e-09 7.49194e-15)
(0.0368906 1.71122e-09 7.77952e-15)
(0.0368906 9.51069e-10 7.58519e-15)
(0.0368906 4.92099e-10 7.57692e-15)
(0.0368906 3.00984e-10 7.64551e-15)
(0.0368906 2.62038e-10 7.33435e-15)
(0.0368906 3.83333e-10 7.68949e-15)
(0.0368906 3.93769e-10 7.60636e-15)
(0.0368906 3.04345e-10 7.63293e-15)
(0.0368905 1.34489e-10 7.67074e-15)
(0.0368905 -1.39945e-10 7.23863e-15)
(0.0368905 -4.124e-10 7.67014e-15)
(0.0368905 -7.48813e-10 7.49202e-15)
(0.0368906 -1.0806e-09 7.59857e-15)
(0.0368906 -1.36417e-09 7.66377e-15)
(0.0368906 -1.47329e-09 7.49495e-15)
(0.0368906 -1.58557e-09 7.64863e-15)
(0.0368906 -1.19207e-09 7.35768e-15)
(0.0368906 -7.37417e-10 7.61382e-15)
(0.0368906 4.59902e-10 7.64336e-15)
(0.0368906 2.10737e-09 7.60458e-15)
(0.0368906 2.49688e-09 7.70177e-15)
(0.0368906 2.25002e-09 7.52393e-15)
(0.0368906 1.38173e-09 7.57007e-15)
(0.0368906 1.91302e-10 7.57241e-15)
(0.0368906 -1.00107e-09 7.44055e-15)
(0.0368906 -2.09186e-09 7.49729e-15)
(0.0368906 -2.94635e-09 7.50277e-15)
(0.0368907 -3.65524e-09 7.6457e-15)
(0.0368907 -4.19413e-09 7.65693e-15)
(0.0368907 -4.61463e-09 7.50994e-15)
(0.0368908 -4.56765e-09 7.60805e-15)
(0.0368908 -3.7921e-09 7.61873e-15)
(0.0368908 -3.97578e-09 7.7159e-15)
(0.0368908 -6.5439e-10 7.66968e-15)
(0.0368908 2.43994e-10 7.59e-15)
(0.0449684 -1.42814e-08 9.44361e-15)
(0.0449685 -1.98971e-08 9.1198e-15)
(0.0449686 -1.55039e-08 9.21218e-15)
(0.0449687 -5.21988e-09 9.08372e-15)
(0.0449686 5.64159e-09 8.98146e-15)
(0.0449685 1.44573e-08 8.92834e-15)
(0.0449684 2.0705e-08 8.89855e-15)
(0.0449683 2.46345e-08 8.97766e-15)
(0.0449681 2.65105e-08 9.00588e-15)
(0.0449679 2.63849e-08 9.00591e-15)
(0.0449678 2.49226e-08 9.13411e-15)
(0.0449676 2.2922e-08 8.76319e-15)
(0.0449675 2.06916e-08 8.8313e-15)
(0.0449674 1.82182e-08 8.49847e-15)
(0.0449673 1.57575e-08 8.44147e-15)
(0.0449672 1.32678e-08 8.79881e-15)
(0.0449671 1.05815e-08 8.48985e-15)
(0.0449671 8.14899e-09 8.60253e-15)
(0.044967 5.78274e-09 8.2745e-15)
(0.044967 3.35528e-09 8.15903e-15)
(0.044967 1.15068e-09 8.44081e-15)
(0.044967 -8.92883e-10 8.52014e-15)
(0.044967 -2.86993e-09 8.58878e-15)
(0.044967 -4.68274e-09 8.4335e-15)
(0.0449671 -6.19187e-09 8.31732e-15)
(0.0449671 -7.39085e-09 8.57059e-15)
(0.0449672 -8.63524e-09 8.43971e-15)
(0.0449672 -9.90031e-09 8.39752e-15)
(0.0449673 -1.08267e-08 8.27195e-15)
(0.0449674 -1.15752e-08 8.19789e-15)
(0.0449674 -1.23854e-08 8.4782e-15)
(0.0449675 -1.30149e-08 8.33978e-15)
(0.0449676 -1.34254e-08 8.37167e-15)
(0.0449677 -1.3847e-08 8.27335e-15)
(0.0449678 -1.42901e-08 8.06651e-15)
(0.0449679 -1.45889e-08 8.35922e-15)
(0.0449679 -1.47343e-08 8.29484e-15)
(0.044968 -1.49105e-08 8.29092e-15)
(0.0449681 -1.49643e-08 8.04703e-15)
(0.0449682 -1.49525e-08 8.06306e-15)
(0.0449683 -1.41256e-08 8.12737e-15)
(0.0449684 -1.29448e-08 8.34048e-15)
(0.0449685 -1.13381e-08 8.48001e-15)
(0.0449686 -9.41102e-09 8.57159e-15)
(0.0449686 -6.83686e-09 8.51084e-15)
(0.0449687 -3.26913e-09 8.5428e-15)
(0.0449687 -1.07251e-09 8.77833e-15)
(0.0449687 -1.67017e-10 8.90242e-15)
(0.0449687 -2.85078e-10 8.82006e-15)
(0.0449687 -1.04747e-09 8.83837e-15)
(0.0449687 -1.81491e-09 8.78155e-15)
(0.0449688 -2.64683e-09 8.91303e-15)
(0.0449688 -3.3672e-09 8.94113e-15)
(0.0449688 -3.88302e-09 9.31684e-15)
(0.0449688 -4.20487e-09 9.15579e-15)
(0.0449688 -4.35707e-09 8.96606e-15)
(0.0449689 -4.18008e-09 9.3154e-15)
(0.0449689 -3.68084e-09 9.24044e-15)
(0.0449689 -2.9448e-09 9.52163e-15)
(0.0449689 -2.07149e-09 9.38284e-15)
(0.0449689 -1.019e-09 9.20204e-15)
(0.0449689 2.23414e-10 9.47486e-15)
(0.0449689 1.47663e-09 9.35402e-15)
(0.0449689 2.65286e-09 9.673e-15)
(0.0449689 3.73099e-09 9.60702e-15)
(0.0449688 4.67619e-09 9.36402e-15)
(0.0449688 5.6049e-09 9.7607e-15)
(0.0449688 6.39833e-09 9.48878e-15)
(0.0449687 6.87144e-09 9.66226e-15)
(0.0449687 7.22822e-09 9.70472e-15)
(0.0449686 7.41984e-09 9.47348e-15)
(0.0449686 7.61683e-09 9.90524e-15)
(0.0449685 7.77246e-09 9.62802e-15)
(0.0449685 7.69906e-09 9.69762e-15)
(0.0449684 7.66267e-09 9.66506e-15)
(0.0449684 7.52473e-09 9.50169e-15)
(0.0449683 7.1387e-09 9.81881e-15)
(0.0449683 6.59085e-09 9.68227e-15)
(0.0449682 6.14995e-09 9.78591e-15)
(0.0449682 5.81728e-09 9.66471e-15)
(0.0449682 5.40438e-09 1.02593e-14)
(0.0449681 5.0357e-09 9.60803e-15)
(0.0449681 4.71319e-09 9.52944e-15)
(0.0449681 4.1999e-09 9.80777e-15)
(0.044968 3.56826e-09 9.34624e-15)
(0.044968 2.75789e-09 9.90861e-15)
(0.044968 1.71109e-09 9.16238e-15)
(0.044968 1.01246e-09 9.30139e-15)
(0.044968 7.06978e-10 9.5763e-15)
(0.044968 6.1771e-10 9.21315e-15)
(0.044968 7.49351e-10 9.67523e-15)
(0.044968 7.30213e-10 9.18044e-15)
(0.0449679 5.87481e-10 9.33152e-15)
(0.0449679 3.49665e-10 9.66557e-15)
(0.0449679 -4.91743e-11 8.96601e-15)
(0.0449679 -4.72122e-10 9.62166e-15)
(0.0449679 -9.88298e-10 9.2347e-15)
(0.0449679 -1.50478e-09 9.28952e-15)
(0.044968 -1.96746e-09 9.62201e-15)
(0.044968 -2.21858e-09 9.02826e-15)
(0.044968 -2.46752e-09 9.59524e-15)
(0.044968 -2.02955e-09 9.09196e-15)
(0.044968 -1.46423e-09 9.30489e-15)
(0.044968 7.3754e-11 9.57947e-15)
(0.044968 2.29712e-09 9.27951e-15)
(0.044968 2.96271e-09 9.69374e-15)
(0.044968 2.70166e-09 9.21581e-15)
(0.044968 1.57106e-09 9.27986e-15)
(0.044968 -9.67822e-13 9.48444e-15)
(0.044968 -1.61038e-09 9.10895e-15)
(0.044968 -3.12878e-09 9.46038e-15)
(0.0449681 -4.33125e-09 9.48029e-15)
(0.0449681 -5.32584e-09 9.44288e-15)
(0.0449681 -6.11776e-09 9.60681e-15)
(0.0449682 -6.75438e-09 9.03024e-15)
(0.0449682 -6.71197e-09 9.71354e-15)
(0.0449682 -5.66592e-09 9.63029e-15)
(0.0449683 -5.86579e-09 9.5362e-15)
(0.0449683 -9.00387e-10 9.59508e-15)
(0.0449683 -1.9137e-09 9.23664e-15)
(0.0524535 -2.25034e-08 1.11087e-14)
(0.0524536 -2.66837e-08 1.08549e-14)
(0.0524537 -1.85578e-08 1.08171e-14)
(0.0524537 -4.43557e-09 1.07708e-14)
(0.0524537 9.71624e-09 1.06894e-14)
(0.0524536 2.10456e-08 1.06021e-14)
(0.0524534 2.9036e-08 1.05648e-14)
(0.0524533 3.4045e-08 1.06058e-14)
(0.0524531 3.63179e-08 1.06391e-14)
(0.0524529 3.60185e-08 1.06383e-14)
(0.0524528 3.40527e-08 1.07579e-14)
(0.0524526 3.13217e-08 1.0185e-14)
(0.0524525 2.82585e-08 1.03908e-14)
(0.0524523 2.48428e-08 1.00036e-14)
(0.0524522 2.14357e-08 9.97839e-15)
(0.0524521 1.80114e-08 1.05512e-14)
(0.0524521 1.43637e-08 9.98692e-15)
(0.052452 1.09977e-08 1.00969e-14)
(0.052452 7.75303e-09 9.61153e-15)
(0.0524519 4.50186e-09 9.7191e-15)
(0.0524519 1.49107e-09 9.77816e-15)
(0.0524519 -1.3794e-09 1.00932e-14)
(0.052452 -4.10084e-09 1.0136e-14)
(0.052452 -6.4935e-09 9.84021e-15)
(0.052452 -8.52247e-09 9.98572e-15)
(0.0524521 -1.02113e-08 1.00026e-14)
(0.0524521 -1.19216e-08 9.63317e-15)
(0.0524522 -1.36456e-08 9.82559e-15)
(0.0524522 -1.4948e-08 9.70677e-15)
(0.0524523 -1.59722e-08 9.84748e-15)
(0.0524524 -1.70188e-08 9.91086e-15)
(0.0524525 -1.78463e-08 9.42463e-15)
(0.0524526 -1.84434e-08 9.78297e-15)
(0.0524527 -1.90584e-08 9.54414e-15)
(0.0524528 -1.96658e-08 9.7017e-15)
(0.0524529 -2.00835e-08 9.73815e-15)
(0.052453 -2.03456e-08 9.48746e-15)
(0.0524531 -2.05849e-08 9.70055e-15)
(0.0524532 -2.06447e-08 9.38272e-15)
(0.0524533 -2.06267e-08 9.62702e-15)
(0.0524534 -1.96059e-08 9.66616e-15)
(0.0524535 -1.81608e-08 9.9829e-15)
(0.0524535 -1.60772e-08 1.00073e-14)
(0.0524536 -1.35368e-08 9.99372e-15)
(0.0524537 -1.01485e-08 1.0021e-14)
(0.0524537 -5.48133e-09 1.00104e-14)
(0.0524538 -2.48031e-09 1.043e-14)
(0.0524538 -1.08943e-09 1.04393e-14)
(0.0524538 -1.00125e-09 1.04341e-14)
(0.0524538 -1.82461e-09 1.03606e-14)
(0.0524538 -2.75492e-09 1.02718e-14)
(0.0524539 -3.77237e-09 1.05599e-14)
(0.0524539 -4.67231e-09 1.04888e-14)
(0.0524539 -5.29378e-09 1.08626e-14)
(0.0524539 -5.66852e-09 1.07844e-14)
(0.052454 -5.79475e-09 1.04339e-14)
(0.052454 -5.46248e-09 1.0863e-14)
(0.052454 -4.73279e-09 1.08094e-14)
(0.052454 -3.7249e-09 1.11092e-14)
(0.052454 -2.49891e-09 1.10312e-14)
(0.052454 -9.80007e-10 1.06713e-14)
(0.052454 7.2624e-10 1.10243e-14)
(0.052454 2.3894e-09 1.09622e-14)
(0.052454 3.96668e-09 1.12651e-14)
(0.052454 5.43197e-09 1.1245e-14)
(0.0524539 6.72719e-09 1.08538e-14)
(0.0524539 7.97052e-09 1.11928e-14)
(0.0524538 9.01027e-09 1.11181e-14)
(0.0524538 9.63657e-09 1.14211e-14)
(0.0524537 1.01103e-08 1.138e-14)
(0.0524537 1.04106e-08 1.09758e-14)
(0.0524536 1.0686e-08 1.13628e-14)
(0.0524536 1.08565e-08 1.12421e-14)
(0.0524535 1.07448e-08 1.14662e-14)
(0.0524535 1.06528e-08 1.13735e-14)
(0.0524534 1.04194e-08 1.10126e-14)
(0.0524534 9.90278e-09 1.14181e-14)
(0.0524533 9.18877e-09 1.13081e-14)
(0.0524533 8.60552e-09 1.15758e-14)
(0.0524532 8.16761e-09 1.13714e-14)
(0.0524532 7.60709e-09 1.16583e-14)
(0.0524532 7.08587e-09 1.13938e-14)
(0.0524531 6.6196e-09 1.12374e-14)
(0.0524531 5.93508e-09 1.17138e-14)
(0.0524531 5.06386e-09 1.12498e-14)
(0.052453 4.01029e-09 1.13606e-14)