/*--------------------------------*- C++ -*----------------------------------*\
  =========                 |
  \\      /  F ield         | OpenFOAM: The Open Source CFD Toolbox
   \\    /   O peration     | Website:  https://openfoam.org
    \\  /    A nd           | Version:  7
     \\/     M anipulation  |
\*---------------------------------------------------------------------------*/
FoamFile
{
    version     2.0;
    format      ascii;
    class       volVectorField;
    location    "5000";
    object      U;
}
// * * * * * * * * * * * * * * * * * * * * * * * * * * * * * * * * * * * * * //

dimensions      [0 1 -1 0 0 0 0];

internalField   nonuniform List<vector> 
3974
(
(0.116789 3.3541e-08 6.06191e-15)
(0.116789 3.71522e-08 6.11064e-15)
(0.116789 3.77896e-08 5.9913e-15)
(0.116789 3.7509e-08 6.08501e-15)
(0.116789 3.67744e-08 6.05468e-15)
(0.116789 3.59176e-08 6.05447e-15)
(0.116789 3.51981e-08 6.03502e-15)
(0.116789 3.48028e-08 5.92923e-15)
(0.116789 3.48411e-08 6.0251e-15)
(0.116789 3.53411e-08 6.00224e-15)
(0.116789 3.6254e-08 6.02065e-15)
(0.116789 3.74725e-08 5.99459e-15)
(0.116789 3.88609e-08 5.87644e-15)
(0.116789 4.02862e-08 5.96989e-15)
(0.116789 4.16398e-08 5.9211e-15)
(0.116789 4.28471e-08 5.95207e-15)
(0.116789 4.38648e-08 5.95391e-15)
(0.116789 4.46741e-08 5.92388e-15)
(0.116789 4.52718e-08 5.97725e-15)
(0.116789 4.56633e-08 5.88244e-15)
(0.116789 4.58589e-08 5.91946e-15)
(0.116789 4.58708e-08 5.91519e-15)
(0.116789 4.57125e-08 5.80108e-15)
(0.116789 4.53986e-08 5.89495e-15)
(0.11679 4.49436e-08 5.81834e-15)
(0.11679 4.43621e-08 5.87196e-15)
(0.11679 4.36678e-08 5.85466e-15)
(0.11679 4.28729e-08 5.72153e-15)
(0.11679 4.19862e-08 5.88093e-15)
(0.11679 4.10154e-08 5.79343e-15)
(0.11679 3.99607e-08 5.84846e-15)
(0.11679 3.88244e-08 5.91212e-15)
(0.11679 3.7591e-08 5.81073e-15)
(0.11679 3.62637e-08 5.88167e-15)
(0.11679 3.47855e-08 5.93948e-15)
(0.11679 3.31633e-08 5.84726e-15)
(0.11679 3.13822e-08 5.9097e-15)
(0.11679 2.83633e-08 5.81153e-15)
(0.117838 1.63977e-09 6.38775e-15)
(0.117838 1.72691e-08 6.33311e-15)
(0.117838 2.61724e-08 6.34502e-15)
(0.117839 2.98083e-08 6.39012e-15)
(0.117839 3.15654e-08 6.2898e-15)
(0.117839 3.20265e-08 6.33638e-15)
(0.117839 3.17549e-08 6.30096e-15)
(0.117839 3.12335e-08 6.31722e-15)
(0.117839 3.07787e-08 6.33119e-15)
(0.117839 3.05987e-08 6.22997e-15)
(0.117839 3.08135e-08 6.28228e-15)
(0.117839 3.14596e-08 6.24647e-15)
(0.117839 3.24971e-08 6.27465e-15)
(0.117839 3.38281e-08 6.28431e-15)
(0.117839 3.53256e-08 6.17336e-15)
(0.117839 3.68632e-08 6.21416e-15)
(0.117839 3.83365e-08 6.14765e-15)
(0.117839 3.96727e-08 6.20505e-15)
(0.117839 4.08291e-08 6.24141e-15)
(0.117839 4.17862e-08 6.1716e-15)
(0.117839 4.25401e-08 6.21449e-15)
(0.117839 4.30952e-08 6.15451e-15)
(0.117839 4.34605e-08 6.1801e-15)
(0.117839 4.36474e-08 6.19804e-15)
(0.117839 4.36685e-08 6.08059e-15)
(0.117839 4.35371e-08 6.1316e-15)
(0.117839 4.32671e-08 6.08051e-15)
(0.117839 4.28723e-08 6.1133e-15)
(0.117839 4.23653e-08 6.13093e-15)
(0.117839 4.17577e-08 6.05311e-15)
(0.117839 4.10577e-08 6.11072e-15)
(0.117839 4.02722e-08 6.05601e-15)
(0.117839 3.94009e-08 6.09028e-15)
(0.117839 3.8446e-08 6.15276e-15)
(0.117839 3.73894e-08 6.10734e-15)
(0.117839 3.62438e-08 6.12706e-15)
(0.117839 3.49165e-08 6.16444e-15)
(0.117839 3.35847e-08 6.11902e-15)
(0.117839 3.164e-08 6.15201e-15)
(0.117839 3.11521e-08 6.10535e-15)
(0.117839 2.97353e-08 6.13406e-15)
(0.117839 2.34125e-08 6.16633e-15)
(0.118856 -6.07487e-08 6.68015e-15)
(0.118856 -2.47158e-08 6.60025e-15)
(0.118856 -5.16856e-10 6.64131e-15)
(0.118856 1.19917e-08 6.67206e-15)
(0.118856 1.84384e-08 6.63056e-15)
(0.118856 2.2654e-08 6.67292e-15)
(0.118856 2.50616e-08 6.55482e-15)
(0.118856 2.59769e-08 6.5989e-15)
(0.118856 2.60714e-08 6.55442e-15)
(0.118856 2.58612e-08 6.59272e-15)
(0.118856 2.56768e-08 6.62122e-15)
(0.118856 2.57331e-08 6.5035e-15)
(0.118856 2.61534e-08 6.54906e-15)
(0.118856 2.69782e-08 6.48976e-15)
(0.118856 2.81737e-08 6.54129e-15)
(0.118856 2.96504e-08 6.56781e-15)
(0.118856 3.12897e-08 6.41216e-15)
(0.118856 3.29717e-08 6.46941e-15)
(0.118857 3.45965e-08 6.3881e-15)
(0.118857 3.6093e-08 6.46917e-15)
(0.118857 3.7419e-08 6.52023e-15)
(0.118857 3.85545e-08 6.42427e-15)
(0.118857 3.94945e-08 6.4626e-15)
(0.118857 4.02423e-08 6.3899e-15)
(0.118857 4.08057e-08 6.4473e-15)
(0.118857 4.11951e-08 6.47764e-15)
(0.118857 4.1422e-08 6.33161e-15)
(0.118857 4.14988e-08 6.37721e-15)
(0.118857 4.14384e-08 6.30671e-15)
(0.118857 4.12538e-08 6.36864e-15)
(0.118857 4.09568e-08 6.40441e-15)
(0.118857 4.05582e-08 6.2835e-15)
(0.118857 4.00656e-08 6.35343e-15)
(0.118857 3.94853e-08 6.298e-15)
(0.118857 3.88161e-08 6.3415e-15)
(0.118857 3.80606e-08 6.40072e-15)
(0.118857 3.71983e-08 6.38693e-15)
(0.118857 3.62495e-08 6.38193e-15)
(0.118857 3.50953e-08 6.3981e-15)
(0.118857 3.40281e-08 6.37969e-15)
(0.118857 3.21175e-08 6.39999e-15)
(0.118857 3.30335e-08 6.38247e-15)
(0.118857 3.40013e-08 6.38578e-15)
(0.118857 3.11968e-08 6.40206e-15)
(0.118857 2.57166e-08 6.38473e-15)
(0.118857 1.71768e-08 6.40275e-15)
(0.118857 8.72187e-09 6.38298e-15)
(0.118856 8.37457e-10 6.38328e-15)
(0.118856 -6.74159e-09 6.4031e-15)
(0.118856 -1.42336e-08 6.38998e-15)
(0.118856 -2.16913e-08 6.40494e-15)
(0.118856 -2.91279e-08 6.38e-15)
(0.118856 -3.62432e-08 6.38463e-15)
(0.118856 -4.30657e-08 6.41681e-15)
(0.118856 -4.82808e-08 6.40601e-15)
(0.118856 -5.28629e-08 6.42135e-15)
(0.118856 -5.15435e-08 6.40107e-15)
(0.118856 -4.91605e-08 6.41705e-15)
(0.118856 -3.29282e-08 6.44715e-15)
(0.119843 -5.72168e-08 6.94722e-15)
(0.119843 -2.36056e-08 6.79741e-15)
(0.119843 -2.63299e-09 6.911e-15)
(0.119843 9.03968e-09 6.91234e-15)
(0.119843 1.40535e-08 6.91335e-15)
(0.119843 1.72253e-08 6.95886e-15)
(0.119843 1.92034e-08 6.76992e-15)
(0.119843 2.0074e-08 6.87352e-15)
(0.119843 2.02782e-08 6.80001e-15)
(0.119843 2.02344e-08 6.88279e-15)
(0.119843 2.02379e-08 6.90386e-15)
(0.119843 2.04859e-08 6.67677e-15)
(0.119843 2.10911e-08 6.8255e-15)
(0.119843 2.20894e-08 6.73299e-15)
(0.119843 2.34477e-08 6.82733e-15)
(0.119843 2.5081e-08 6.84617e-15)
(0.119843 2.68767e-08 6.62906e-15)
(0.119843 2.87202e-08 6.7367e-15)
(0.119843 3.05153e-08 6.6394e-15)
(0.119843 3.21927e-08 6.75137e-15)
(0.119843 3.37099e-08 6.79436e-15)
(0.119843 3.50463e-08 6.66071e-15)
(0.119843 3.61954e-08 6.72264e-15)
(0.119843 3.71591e-08 6.62606e-15)
(0.119843 3.79439e-08 6.72933e-15)
(0.119843 3.85588e-08 6.75303e-15)
(0.119843 3.90141e-08 6.54062e-15)
(0.119843 3.93212e-08 6.63581e-15)
(0.119843 3.94921e-08 6.501e-15)
(0.119843 3.95388e-08 6.6431e-15)
(0.119844 3.94722e-08 6.67449e-15)
(0.119844 3.93024e-08 6.52585e-15)
(0.119844 3.90362e-08 6.61166e-15)
(0.119844 3.86792e-08 6.48997e-15)
(0.119844 3.82297e-08 6.61155e-15)
(0.119844 3.76902e-08 6.65836e-15)
(0.119844 3.70387e-08 6.65654e-15)
(0.119844 3.63003e-08 6.63515e-15)
(0.119844 3.53432e-08 6.63516e-15)
(0.119844 3.45017e-08 6.6336e-15)
(0.119844 3.28713e-08 6.64911e-15)
(0.119844 3.33748e-08 6.65046e-15)
(0.119844 3.49311e-08 6.63941e-15)
(0.119844 3.56751e-08 6.6425e-15)
(0.119843 3.39809e-08 6.641e-15)
(0.119843 2.6979e-08 6.65294e-15)
(0.119843 1.83877e-08 6.65154e-15)
(0.119843 9.8793e-09 6.63608e-15)
(0.119843 1.67743e-09 6.64147e-15)
(0.119843 -6.34867e-09 6.64458e-15)
(0.119843 -1.4266e-08 6.6561e-15)
(0.119843 -2.21064e-08 6.65101e-15)
(0.119843 -2.95904e-08 6.64223e-15)
(0.119843 -3.67539e-08 6.65747e-15)
(0.119843 -4.22897e-08 6.66052e-15)
(0.119843 -4.72235e-08 6.67246e-15)
(0.119843 -4.60086e-08 6.67043e-15)
(0.119843 -4.42927e-08 6.67673e-15)
(0.119843 -2.62793e-08 6.69404e-15)
(0.1208 -5.45848e-08 7.20972e-15)
(0.1208 -2.1154e-08 7.15196e-15)
(0.1208 -2.03265e-09 7.21354e-15)
(0.1208 8.21208e-09 7.18439e-15)
(0.1208 1.18444e-08 7.1968e-15)
(0.1208 1.35686e-08 7.25328e-15)
(0.1208 1.4538e-08 7.13871e-15)
(0.1208 1.4875e-08 7.16779e-15)
(0.1208 1.48513e-08 7.12327e-15)
(0.1208 1.47517e-08 7.202e-15)
(0.1208 1.47957e-08 7.17238e-15)
(0.1208 1.51377e-08 7.07204e-15)
(0.1208 1.58645e-08 7.12342e-15)
(0.1208 1.69967e-08 7.05427e-15)
(0.120801 1.84949e-08 7.14287e-15)
(0.120801 2.02731e-08 7.11077e-15)
(0.120801 2.22214e-08 6.97095e-15)
(0.120801 2.42283e-08 7.03852e-15)
(0.120801 2.61998e-08 6.95282e-15)
(0.120801 2.80671e-08 7.06914e-15)
(0.120801 2.97874e-08 7.05622e-15)
(0.120801 3.13384e-08 6.96271e-15)
(0.120801 3.2712e-08 7.00066e-15)
(0.120801 3.39081e-08 6.93737e-15)
(0.120801 3.49316e-08 7.03881e-15)
(0.120801 3.57899e-08 7.01516e-15)
(0.120801 3.64918e-08 6.88285e-15)
(0.120801 3.70476e-08 6.92697e-15)
(0.120801 3.7468e-08 6.84597e-15)
(0.120801 3.7764e-08 6.96151e-15)
(0.120801 3.79455e-08 6.93291e-15)
(0.120801 3.80219e-08 6.82109e-15)
(0.120801 3.7999e-08 6.90158e-15)
(0.120801 3.78818e-08 6.84563e-15)
(0.120801 3.7668e-08 6.91216e-15)
(0.120801 3.73598e-08 6.92099e-15)
(0.120801 3.69342e-08 6.91829e-15)
(0.120801 3.64186e-08 6.87846e-15)
(0.120801 3.56805e-08 6.87219e-15)
(0.120801 3.50382e-08 6.88469e-15)
(0.120801 3.37955e-08 6.8981e-15)
(0.120801 3.36698e-08 6.91356e-15)
(0.120801 3.49017e-08 6.89169e-15)
(0.120801 3.67968e-08 6.88433e-15)
(0.120801 3.75347e-08 6.89609e-15)
(0.120801 3.3618e-08 6.90488e-15)
(0.120801 2.66009e-08 6.91658e-15)
(0.120801 1.84517e-08 6.88492e-15)
(0.120801 1.01103e-08 6.88244e-15)
(0.120801 1.80194e-09 6.89821e-15)
(0.120801 -6.42753e-09 6.90809e-15)
(0.120801 -1.45784e-08 6.91821e-15)
(0.120801 -2.23725e-08 6.89391e-15)
(0.1208 -2.98397e-08 6.90063e-15)
(0.1208 -3.56854e-08 6.91449e-15)
(0.1208 -4.09615e-08 6.92379e-15)
(0.1208 -3.99159e-08 6.93488e-15)
(0.1208 -3.88558e-08 6.93251e-15)
(0.1208 -1.96263e-08 6.9432e-15)
(0.12173 -5.28668e-08 7.46584e-15)
(0.12173 -1.86976e-08 7.44827e-15)
(0.12173 -3.07163e-10 7.52398e-15)
(0.12173 8.66277e-09 7.4472e-15)
(0.12173 1.10806e-08 7.48379e-15)
(0.12173 1.14476e-08 7.55076e-15)
(0.12173 1.12044e-08 7.46056e-15)
(0.12173 1.06788e-08 7.50181e-15)
(0.12173 1.01229e-08 7.43234e-15)
(0.12173 9.72865e-09 7.56244e-15)
(0.12173 9.6356e-09 7.42102e-15)
(0.12173 9.94189e-09 7.38033e-15)
(0.12173 1.06968e-08 7.44843e-15)
(0.12173 1.1897e-08 7.36641e-15)
(0.12173 1.34893e-08 7.46311e-15)
(0.12173 1.53816e-08 7.35273e-15)
(0.12173 1.74622e-08 7.29244e-15)
(0.12173 1.96201e-08 7.36379e-15)
(0.12173 2.17614e-08 7.27645e-15)
(0.12173 2.38169e-08 7.38933e-15)
(0.12173 2.57422e-08 7.295e-15)
(0.12173 2.75131e-08 7.25617e-15)
(0.12173 2.91188e-08 7.35978e-15)
(0.12173 3.05572e-08 7.24404e-15)
(0.12173 3.18307e-08 7.43978e-15)
(0.121731 3.29448e-08 7.25434e-15)
(0.121731 3.39069e-08 7.19494e-15)
(0.121731 3.47254e-08 7.20548e-15)
(0.121731 3.54097e-08 7.16022e-15)
(0.121731 3.59696e-08 7.3089e-15)
(0.121731 3.64141e-08 7.17211e-15)
(0.121731 3.67512e-08 7.13012e-15)
(0.121731 3.69861e-08 7.22256e-15)
(0.121731 3.7123e-08 7.15168e-15)
(0.121731 3.71588e-08 7.22973e-15)
(0.121731 3.70955e-08 7.17832e-15)
(0.121731 3.69093e-08 7.17373e-15)
(0.121731 3.66277e-08 7.10063e-15)
(0.121731 3.61266e-08 7.10749e-15)
(0.121731 3.56749e-08 7.13647e-15)
(0.121731 3.48305e-08 7.14618e-15)
(0.121731 3.43311e-08 7.17482e-15)
(0.121731 3.49744e-08 7.11406e-15)
(0.121731 3.68189e-08 7.12847e-15)
(0.121731 3.8634e-08 7.15365e-15)
(0.121731 3.73912e-08 7.15718e-15)
(0.121731 3.26792e-08 7.18108e-15)
(0.121731 2.57814e-08 7.11343e-15)
(0.12173 1.79317e-08 7.12484e-15)
(0.12173 9.73227e-09 7.15526e-15)
(0.12173 1.43705e-09 7.16055e-15)
(0.12173 -6.86072e-09 7.18502e-15)
(0.12173 -1.48538e-08 7.16743e-15)
(0.12173 -2.25473e-08 7.14499e-15)
(0.12173 -2.86605e-08 7.17133e-15)
(0.12173 -3.42423e-08 7.1749e-15)
(0.12173 -3.34187e-08 7.19847e-15)
(0.12173 -3.29904e-08 7.20339e-15)
(0.12173 -1.29998e-08 7.19136e-15)
(0.122633 -5.18617e-08 7.72279e-15)
(0.122633 -1.68416e-08 7.73804e-15)
(0.122633 1.51857e-09 7.77263e-15)
(0.122633 9.74211e-09 7.68204e-15)
(0.122633 1.12571e-08 7.70205e-15)
(0.122633 1.04908e-08 7.77855e-15)
(0.122633 9.06626e-09 7.7583e-15)
(0.122633 7.54474e-09 7.74884e-15)
(0.122633 6.25671e-09 7.73177e-15)
(0.122633 5.36948e-09 7.77303e-15)
(0.122633 4.96928e-09 7.71718e-15)
(0.122633 5.10298e-09 7.68166e-15)
(0.122633 5.77944e-09 7.68894e-15)
(0.122633 6.96651e-09 7.66353e-15)
(0.122633 8.59206e-09 7.7048e-15)
(0.122633 1.05533e-08 7.64225e-15)
(0.122633 1.27331e-08 7.59768e-15)
(0.122633 1.50178e-08 7.61182e-15)
(0.122633 1.73118e-08 7.57706e-15)
(0.122633 1.9544e-08 7.63219e-15)
(0.122633 2.16675e-08 7.58057e-15)
(0.122633 2.36552e-08 7.54863e-15)
(0.122633 2.54935e-08 7.55227e-15)
(0.122633 2.71771e-08 7.53883e-15)
(0.122633 2.8706e-08 7.59829e-15)
(0.122633 3.00832e-08 7.543e-15)
(0.122633 3.13139e-08 7.49673e-15)
(0.122633 3.24047e-08 7.49162e-15)
(0.122633 3.33634e-08 7.45653e-15)
(0.122633 3.41984e-08 7.51398e-15)
(0.122634 3.49172e-08 7.45506e-15)
(0.122634 3.55268e-08 7.43099e-15)
(0.122634 3.60314e-08 7.46383e-15)
(0.122634 3.64342e-08 7.44547e-15)
(0.122634 3.67315e-08 7.47352e-15)
(0.122634 3.69245e-08 7.41351e-15)
(0.122634 3.69895e-08 7.42456e-15)
(0.122634 3.69516e-08 7.38867e-15)
(0.122634 3.6701e-08 7.34563e-15)
(0.122634 3.64448e-08 7.39151e-15)
(0.122634 3.5966e-08 7.39187e-15)
(0.122634 3.53467e-08 7.43805e-15)
(0.122633 3.54608e-08 7.41463e-15)
(0.122633 3.68356e-08 7.37509e-15)
(0.122633 3.88266e-08 7.41786e-15)
(0.122633 3.92699e-08 7.40826e-15)
(0.122633 3.6744e-08 7.44754e-15)
(0.122633 3.15495e-08 7.41395e-15)
(0.122633 2.4723e-08 7.37273e-15)
(0.122633 1.7052e-08 7.41962e-15)
(0.122633 8.98927e-09 7.41253e-15)
(0.122633 7.55699e-10 7.45393e-15)
(0.122633 -7.28614e-09 7.42816e-15)
(0.122633 -1.5096e-08 7.39562e-15)
(0.122633 -2.14083e-08 7.43324e-15)
(0.122633 -2.72374e-08 7.42462e-15)
(0.122633 -2.66701e-08 7.46438e-15)
(0.122633 -2.68646e-08 7.46425e-15)
(0.122633 -6.37966e-09 7.44145e-15)
(0.12351 -5.1331e-08 7.98339e-15)
(0.12351 -1.56524e-08 8.02577e-15)
(0.12351 2.99214e-09 8.0144e-15)
(0.12351 1.0927e-08 7.89228e-15)
(0.12351 1.18907e-08 7.93368e-15)
(0.12351 1.02777e-08 8.02402e-15)
(0.12351 7.84619e-09 8.05131e-15)
(0.12351 5.35867e-09 8.01987e-15)
(0.12351 3.26321e-09 8.02193e-15)
(0.12351 1.76032e-09 8.01108e-15)
(0.12351 9.22077e-10 7.99193e-15)
(0.12351 7.63125e-10 7.97464e-15)
(0.12351 1.25885e-09 7.94663e-15)
(0.12351 2.34911e-09 7.95044e-15)
(0.12351 3.94123e-09 7.93458e-15)
(0.12351 5.91881e-09 7.90745e-15)
(0.12351 8.15642e-09 7.89144e-15)
(0.12351 1.05356e-08 7.87388e-15)
(0.12351 1.2957e-08 7.86854e-15)
(0.123511 1.53466e-08 7.86625e-15)
(0.123511 1.76542e-08 7.84265e-15)
(0.123511 1.9849e-08 7.83654e-15)
(0.123511 2.19137e-08 7.81272e-15)
(0.123511 2.38397e-08 7.82447e-15)
(0.123511 2.56237e-08 7.8369e-15)
(0.123511 2.7266e-08 7.80887e-15)
(0.123511 2.8769e-08 7.78976e-15)
(0.123511 3.01374e-08 7.75571e-15)
(0.123511 3.1377e-08 7.74754e-15)
(0.123511 3.24944e-08 7.7352e-15)
(0.123511 3.34957e-08 7.71761e-15)
(0.123511 3.43865e-08 7.72331e-15)
(0.123511 3.51698e-08 7.72507e-15)
(0.123511 3.58479e-08 7.73247e-15)
(0.123511 3.6416e-08 7.71926e-15)
(0.123511 3.68747e-08 7.63103e-15)
(0.123511 3.72004e-08 7.67762e-15)
(0.123511 3.74149e-08 7.65253e-15)
(0.123511 3.74243e-08 7.57302e-15)
(0.123511 3.73754e-08 7.65647e-15)
(0.123511 3.72194e-08 7.63192e-15)
(0.123511 3.6659e-08 7.71053e-15)
(0.123511 3.64253e-08 7.68174e-15)
(0.123511 3.72579e-08 7.61721e-15)
(0.123511 3.89424e-08 7.69382e-15)
(0.123511 4.01916e-08 7.65459e-15)
(0.123511 3.93233e-08 7.72218e-15)
(0.123511 3.58426e-08 7.68976e-15)
(0.123511 3.03296e-08 7.61412e-15)
(0.123511 2.35221e-08 7.69902e-15)
(0.123511 1.59779e-08 7.6611e-15)
(0.123511 8.03192e-09 7.73063e-15)
(0.12351 1.10368e-10 7.70612e-15)
(0.12351 -7.68683e-09 7.64168e-15)
(0.12351 -1.41117e-08 7.70534e-15)
(0.12351 -2.01152e-08 7.66961e-15)
(0.12351 -1.98198e-08 7.7394e-15)
(0.12351 -2.06514e-08 7.73693e-15)
(0.12351 2.0966e-10 7.68384e-15)
(0.124363 -5.10652e-08 8.25964e-15)
(0.124363 -1.50242e-08 8.22986e-15)
(0.124363 3.92993e-09 8.24996e-15)
(0.124363 1.18533e-08 8.03072e-15)
(0.124363 1.25764e-08 8.19499e-15)
(0.124363 1.04154e-08 8.30395e-15)
(0.124363 7.22034e-09 8.26037e-15)
(0.124363 3.90629e-09 8.27185e-15)
(0.124363 1.03846e-09 8.22127e-15)
(0.124363 -1.11682e-09 8.24273e-15)
(0.124363 -2.46636e-09 8.25688e-15)
(0.124363 -3.00294e-09 8.17485e-15)
(0.124363 -2.77068e-09 8.1907e-15)
(0.124363 -1.85123e-09 8.14827e-15)
(0.124363 -3.55885e-10 8.15547e-15)
(0.124363 1.58503e-09 8.16457e-15)
(0.124363 3.83653e-09 8.09166e-15)
(0.124363 6.27375e-09 8.13261e-15)
(0.124363 8.79287e-09 8.07033e-15)
(0.124363 1.13156e-08 8.10238e-15)
(0.124363 1.37877e-08 8.10002e-15)
(0.124363 1.61744e-08 8.03533e-15)
(0.124363 1.84542e-08 8.05669e-15)
(0.124363 2.06146e-08 8.02032e-15)
(0.124363 2.26486e-08 8.07567e-15)
(0.124363 2.45533e-08 8.06914e-15)
(0.124363 2.63282e-08 7.99226e-15)
(0.124363 2.79755e-08 8.0247e-15)
(0.124363 2.94986e-08 7.95284e-15)
(0.124363 3.09023e-08 7.95991e-15)
(0.124363 3.21908e-08 7.97612e-15)
(0.124363 3.33684e-08 7.92433e-15)
(0.124363 3.44366e-08 7.98479e-15)
(0.124363 3.53965e-08 7.93287e-15)
(0.124363 3.62424e-08 7.9632e-15)
(0.124363 3.69739e-08 7.91904e-15)
(0.124363 3.75678e-08 7.94728e-15)
(0.124363 3.80416e-08 7.89745e-15)
(0.124363 3.83173e-08 7.86972e-15)
(0.124363 3.84893e-08 7.94557e-15)
(0.124363 3.8619e-08 7.94587e-15)
(0.124363 3.82267e-08 8.00874e-15)
(0.124363 3.7838e-08 7.93698e-15)
(0.124363 3.82215e-08 7.93635e-15)
(0.124363 3.94247e-08 7.9885e-15)
(0.124363 4.08701e-08 7.97529e-15)
(0.124363 4.10434e-08 8.01227e-15)
(0.124363 3.89977e-08 7.94957e-15)
(0.124363 3.48327e-08 7.92696e-15)
(0.124363 2.90741e-08 8.00697e-15)
(0.124363 2.22657e-08 7.9857e-15)
(0.124363 1.4805e-08 8.02055e-15)
(0.124363 7.16711e-09 7.96476e-15)
(0.124363 -4.85494e-10 7.97132e-15)
(0.124363 -6.92956e-09 7.99361e-15)
(0.124363 -1.30289e-08 7.98889e-15)
(0.124363 -1.30059e-08 8.03118e-15)
(0.124363 -1.45109e-08 7.99503e-15)
(0.124363 6.7048e-09 8.00442e-15)
(0.125191 -5.09082e-08 8.56506e-15)
(0.125191 -1.48022e-08 8.42309e-15)
(0.125191 4.3129e-09 8.5164e-15)
(0.125191 1.23268e-08 8.36338e-15)
(0.125191 1.30288e-08 8.4598e-15)
(0.125191 1.05835e-08 8.61151e-15)
(0.125191 6.88037e-09 8.45665e-15)
(0.125191 2.936e-09 8.55207e-15)
(0.125191 -5.90041e-10 8.40445e-15)
(0.125191 -3.35752e-09 8.44868e-15)
(0.125192 -5.22961e-09 8.51538e-15)
(0.125192 -6.18394e-09 8.35753e-15)
(0.125192 -6.26758e-09 8.45885e-15)
(0.125192 -5.5736e-09 8.33032e-15)
(0.125192 -4.22666e-09 8.35975e-15)
(0.125192 -2.36897e-09 8.42074e-15)
(0.125192 -1.44595e-10 8.27409e-15)
(0.125192 2.31495e-09 8.3985e-15)
(0.125192 4.90075e-09 8.25294e-15)
(0.125192 7.53009e-09 8.29695e-15)
(0.125192 1.01444e-08 8.35916e-15)
(0.125192 1.27044e-08 8.21876e-15)
(0.125192 1.51843e-08 8.29512e-15)
(0.125192 1.75672e-08 8.20232e-15)
(0.125192 1.98423e-08 8.30663e-15)
(0.125192 2.20029e-08 8.32879e-15)
(0.125192 2.40455e-08 8.17977e-15)
(0.125192 2.59692e-08 8.29366e-15)
(0.125192 2.77751e-08 8.14638e-15)
(0.125192 2.94656e-08 8.20247e-15)
(0.125192 3.10431e-08 8.23656e-15)
(0.125192 3.251e-08 8.10912e-15)
(0.125192 3.38665e-08 8.21387e-15)
(0.125192 3.51122e-08 8.12053e-15)
(0.125192 3.62404e-08 8.16324e-15)
(0.125192 3.72495e-08 8.2008e-15)
(0.125192 3.81167e-08 8.20352e-15)
(0.125192 3.8855e-08 8.12366e-15)
(0.125192 3.94005e-08 8.1974e-15)
(0.125192 3.98061e-08 8.24617e-15)
(0.125192 4.01949e-08 8.25276e-15)
(0.125192 4.00278e-08 8.27255e-15)
(0.125192 3.96409e-08 8.17455e-15)
(0.125192 3.97301e-08 8.22769e-15)
(0.125192 4.04656e-08 8.30652e-15)
(0.125192 4.17629e-08 8.28671e-15)
(0.125192 4.24523e-08 8.29188e-15)
(0.125192 4.14435e-08 8.1906e-15)
(0.125192 3.84696e-08 8.22706e-15)
(0.125192 3.37868e-08 8.35299e-15)
(0.125192 2.78307e-08 8.30352e-15)
(0.125192 2.09973e-08 8.30437e-15)
(0.125192 1.37777e-08 8.20103e-15)
(0.125192 6.38783e-09 8.26062e-15)
(0.125192 1.27487e-11 8.35712e-15)
(0.125192 -6.10714e-09 8.30071e-15)
(0.125191 -6.34914e-09 8.31408e-15)
(0.125191 -8.58115e-09 8.23543e-15)
(0.125191 1.30227e-08 8.30196e-15)
(0.125997 -5.07553e-08 8.72637e-15)
(0.125997 -1.48329e-08 8.58029e-15)
(0.125997 4.21611e-09 8.64123e-15)
(0.125997 1.22876e-08 8.61903e-15)
(0.125997 1.30826e-08 8.68696e-15)
(0.125997 1.05515e-08 8.76892e-15)
(0.125997 6.56932e-09 8.61428e-15)
(0.125997 2.20471e-09 8.68781e-15)
(0.125997 -1.82128e-09 8.55681e-15)
(0.125997 -5.10398e-09 8.58566e-15)
(0.125997 -7.4549e-09 8.68329e-15)
(0.125997 -8.8212e-09 8.50888e-15)
(0.125997 -9.23803e-09 8.58829e-15)
(0.125997 -8.79862e-09 8.47939e-15)
(0.125997 -7.63391e-09 8.49852e-15)
(0.125997 -5.89391e-09 8.5928e-15)
(0.125997 -3.72988e-09 8.42718e-15)
(0.125997 -1.27907e-09 8.5364e-15)
(0.125997 1.34494e-09 8.38459e-15)
(0.125997 4.05519e-09 8.44297e-15)
(0.125997 6.78892e-09 8.52763e-15)
(0.125997 9.50241e-09 8.36464e-15)
(0.125997 1.21654e-08 8.46508e-15)
(0.125997 1.47566e-08 8.35788e-15)
(0.125997 1.72611e-08 8.41588e-15)
(0.125997 1.96683e-08 8.49476e-15)
(0.125997 2.19712e-08 8.34043e-15)
(0.125997 2.4166e-08 8.44515e-15)
(0.125997 2.62508e-08 8.29922e-15)
(0.125997 2.82258e-08 8.31325e-15)
(0.125997 3.00911e-08 8.41406e-15)
(0.125997 3.18472e-08 8.26191e-15)
(0.125997 3.34927e-08 8.39439e-15)
(0.125998 3.50256e-08 8.26927e-15)
(0.125997 3.64383e-08 8.31404e-15)
(0.125997 3.77276e-08 8.39244e-15)
(0.125997 3.8871e-08 8.37688e-15)
(0.125997 3.98771e-08 8.31401e-15)
(0.125997 4.06937e-08 8.3835e-15)
(0.125997 4.13425e-08 8.40068e-15)
(0.125997 4.1974e-08 8.46644e-15)
(0.125997 4.20567e-08 8.46165e-15)
(0.125997 4.17816e-08 8.37305e-15)
(0.125997 4.17314e-08 8.46054e-15)
(0.125997 4.21045e-08 8.45571e-15)
(0.125997 4.31127e-08 8.50853e-15)
(0.125997 4.39494e-08 8.47729e-15)
(0.125997 4.35861e-08 8.4056e-15)
(0.125997 4.15451e-08 8.4603e-15)
(0.125997 3.7839e-08 8.47819e-15)
(0.125997 3.27478e-08 8.52284e-15)
(0.125997 2.6612e-08 8.49061e-15)
(0.125997 1.99003e-08 8.40828e-15)
(0.125997 1.28633e-08 8.50174e-15)
(0.125997 6.62921e-09 8.46859e-15)
(0.125997 5.51475e-10 8.52978e-15)
(0.125997 5.23128e-11 8.50479e-15)
(0.125997 -2.97333e-09 8.44687e-15)
(0.125997 1.90782e-08 8.54173e-15)
(0.12678 -5.0542e-08 8.91249e-15)
(0.12678 -1.49888e-08 8.78642e-15)
(0.12678 3.75167e-09 8.82583e-15)
(0.12678 1.17627e-08 8.85633e-15)
(0.12678 1.2671e-08 8.89172e-15)
(0.12678 1.01777e-08 8.94613e-15)
(0.12678 6.09734e-09 8.78284e-15)
(0.12678 1.50609e-09 8.87677e-15)
(0.12678 -2.84825e-09 8.72511e-15)
(0.12678 -6.5161e-09 8.79728e-15)
(0.12678 -9.26119e-09 8.86585e-15)
(0.12678 -1.09937e-08 8.71266e-15)
(0.12678 -1.17266e-08 8.77018e-15)
(0.12678 -1.15432e-08 8.64602e-15)
(0.12678 -1.05733e-08 8.71857e-15)
(0.12678 -8.96965e-09 8.78301e-15)
(0.12678 -6.88765e-09 8.63487e-15)
(0.12678 -4.46844e-09 8.71152e-15)
(0.12678 -1.82913e-09 8.60011e-15)
(0.12678 9.39881e-10 8.64498e-15)
(0.12678 3.77218e-09 8.71874e-15)
(0.12678 6.62004e-09 8.54869e-15)
(0.12678 9.44892e-09 8.65392e-15)
(0.12678 1.22333e-08 8.49613e-15)
(0.12678 1.49541e-08 8.61859e-15)
(0.126781 1.75967e-08 8.68107e-15)
(0.126781 2.01507e-08 8.51646e-15)
(0.126781 2.26088e-08 8.62181e-15)
(0.126781 2.49665e-08 8.50896e-15)
(0.126781 2.72211e-08 8.53923e-15)
(0.126781 2.93705e-08 8.61291e-15)
(0.126781 3.14133e-08 8.48138e-15)
(0.126781 3.33461e-08 8.57072e-15)
(0.126781 3.51654e-08 8.40858e-15)
(0.126781 3.68623e-08 8.52342e-15)
(0.126781 3.8432e-08 8.61061e-15)
(0.126781 3.98525e-08 8.6031e-15)
(0.126781 4.11277e-08 8.52412e-15)
(0.126781 4.22151e-08 8.62226e-15)
(0.126781 4.31133e-08 8.63498e-15)
(0.12678 4.39782e-08 8.69438e-15)
(0.12678 4.43177e-08 8.67898e-15)
(0.12678 4.42232e-08 8.50889e-15)
(0.12678 4.41611e-08 8.68876e-15)
(0.12678 4.43049e-08 8.69538e-15)
(0.12678 4.50131e-08 8.74197e-15)
(0.12678 4.57823e-08 8.71348e-15)
(0.12678 4.57483e-08 8.57957e-15)
(0.12678 4.436e-08 8.70515e-15)
(0.12678 4.14553e-08 8.70961e-15)
(0.12678 3.7157e-08 8.75644e-15)
(0.12678 3.1718e-08 8.73198e-15)
(0.12678 2.55511e-08 8.55675e-15)
(0.12678 1.89199e-08 8.72854e-15)
(0.12678 1.28742e-08 8.72242e-15)
(0.12678 6.88186e-09 8.77203e-15)
(0.12678 6.12626e-09 8.74839e-15)
(0.12678 2.22996e-09 8.66487e-15)
(0.12678 2.47968e-08 8.78015e-15)
(0.127541 -5.02314e-08 9.10649e-15)
(0.127541 -1.51751e-08 9.04262e-15)
(0.127541 3.03346e-09 9.03355e-15)
(0.127541 1.08252e-08 9.12035e-15)
(0.127541 1.17975e-08 9.11027e-15)
(0.127541 9.39626e-09 9.13568e-15)
(0.127541 5.34272e-09 9.0721e-15)
(0.127541 6.84023e-10 9.084e-15)
(0.127541 -3.83684e-09 9.0175e-15)
(0.127541 -7.74852e-09 9.03198e-15)
(0.127541 -1.07788e-08 9.05679e-15)
(0.127541 -1.28022e-08 8.96856e-15)
(0.127541 -1.38045e-08 8.98072e-15)
(0.127542 -1.38526e-08 8.94057e-15)
(0.127542 -1.30683e-08 8.96131e-15)
(0.127542 -1.16022e-08 8.98161e-15)
(0.127542 -9.61012e-09 8.89517e-15)
(0.127542 -7.23479e-09 8.92103e-15)
(0.127542 -4.59514e-09 8.85158e-15)
(0.127542 -1.7837e-09 8.89229e-15)
(0.127542 1.13041e-09 8.91988e-15)
(0.127542 4.09614e-09 8.83794e-15)
(0.127542 7.07525e-09 8.87442e-15)
(0.127542 1.00383e-08 8.8322e-15)
(0.127542 1.2962e-08 8.85714e-15)
(0.127542 1.58282e-08 8.88086e-15)
(0.127542 1.86227e-08 8.81489e-15)
(0.127542 2.13351e-08 8.83577e-15)
(0.127542 2.39577e-08 8.7776e-15)
(0.127542 2.64852e-08 8.79291e-15)
(0.127542 2.89132e-08 8.8224e-15)
(0.127542 3.1238e-08 8.7449e-15)
(0.127542 3.34543e-08 8.78878e-15)
(0.127542 3.55571e-08 8.74466e-15)
(0.127542 3.75359e-08 8.77044e-15)
(0.127542 3.93844e-08 8.77352e-15)
(0.127542 4.10806e-08 8.81814e-15)
(0.127542 4.26244e-08 8.78531e-15)
(0.127542 4.39804e-08 8.82212e-15)
(0.127542 4.51312e-08 8.86663e-15)
(0.127542 4.62245e-08 8.85298e-15)
(0.127542 4.68191e-08 8.88808e-15)
(0.127542 4.69438e-08 8.84362e-15)
(0.127542 4.69627e-08 8.88065e-15)
(0.127542 4.70028e-08 8.92682e-15)
(0.127542 4.74683e-08 8.90559e-15)
(0.127542 4.80759e-08 8.93118e-15)
(0.127542 4.8152e-08 8.89158e-15)
(0.127542 4.7167e-08 8.9049e-15)
(0.127541 4.48616e-08 8.94395e-15)
(0.127541 4.12289e-08 8.92224e-15)
(0.127541 3.64272e-08 8.95155e-15)
(0.127541 3.07914e-08 8.90659e-15)
(0.127541 2.4579e-08 8.93097e-15)
(0.127541 1.87397e-08 8.96576e-15)
(0.127541 1.28517e-08 8.94399e-15)
(0.127541 1.18274e-08 8.9742e-15)
(0.127541 6.97441e-09 8.94076e-15)
(0.127541 3.01226e-08 8.98255e-15)
(0.128281 -4.98041e-08 9.30347e-15)
(0.128281 -1.53267e-08 9.28366e-15)
(0.128281 2.16005e-09 9.24757e-15)
(0.128281 9.56448e-09 9.32416e-15)
(0.128281 1.05094e-08 9.33047e-15)
(0.128281 8.19905e-09 9.33072e-15)
(0.128281 4.24365e-09 9.31103e-15)
(0.128281 -3.65097e-10 9.29623e-15)
(0.128281 -4.91489e-09 9.26483e-15)
(0.128281 -8.93503e-09 9.27822e-15)
(0.128281 -1.21327e-08 9.24954e-15)
(0.128281 -1.4354e-08 9.21596e-15)
(0.128281 -1.55578e-08 9.20497e-15)
(0.128281 -1.57912e-08 9.1947e-15)
(0.128281 -1.51635e-08 9.21436e-15)
(0.128281 -1.38189e-08 9.18119e-15)
(0.128281 -1.19103e-08 9.14852e-15)
(0.128281 -9.57942e-09 9.14657e-15)
(0.128281 -6.9449e-09 9.1267e-15)
(0.128281 -4.09995e-09 9.15219e-15)
(0.128282 -1.11515e-09 9.12526e-15)
(0.128282 1.95615e-09 9.10257e-15)
(0.128282 5.0727e-09 9.10248e-15)
(0.128282 8.20161e-09 9.09046e-15)
(0.128282 1.13161e-08 9.11342e-15)
(0.128282 1.43943e-08 9.08533e-15)
(0.128282 1.74187e-08 9.06761e-15)
(0.128282 2.03755e-08 9.06327e-15)
(0.128282 2.32541e-08 9.04153e-15)
(0.128282 2.60466e-08 9.05955e-15)
(0.128282 2.87461e-08 9.0343e-15)
(0.128282 3.13466e-08 9.01235e-15)
(0.128282 3.3841e-08 9.02071e-15)
(0.128282 3.62224e-08 9.00992e-15)
(0.128282 3.8479e-08 9.03284e-15)
(0.128282 4.06028e-08 8.94154e-15)
(0.128282 4.25717e-08 9.04526e-15)
(0.128282 4.43816e-08 9.06379e-15)
(0.128282 4.60027e-08 9.03084e-15)
(0.128282 4.74061e-08 9.10678e-15)
(0.128281 4.87249e-08 9.00481e-15)
(0.128281 4.95695e-08 9.10667e-15)
(0.128281 4.99318e-08 9.11195e-15)
(0.128281 5.00935e-08 9.08506e-15)
(0.128281 5.01318e-08 9.16703e-15)
(0.128281 5.04376e-08 9.06236e-15)
(0.128281 5.0869e-08 9.15592e-15)
(0.128281 5.09262e-08 9.1659e-15)
(0.128281 5.01515e-08 9.11822e-15)
(0.128281 4.82529e-08 9.19008e-15)
(0.128281 4.51351e-08 9.08254e-15)
(0.128281 4.08718e-08 9.1777e-15)
(0.128281 3.5712e-08 9.20648e-15)
(0.128281 2.98939e-08 9.15088e-15)
(0.128281 2.42488e-08 9.21589e-15)
(0.128281 1.84579e-08 9.10862e-15)
(0.128281 1.7136e-08 9.20771e-15)
(0.128281 1.12323e-08 9.22196e-15)
(0.128281 3.5021e-08 9.19728e-15)
(0.129 -4.92509e-08 9.50056e-15)
(0.129 -1.5402e-08 9.51879e-15)
(0.129 1.20925e-09 9.45644e-15)
(0.129 8.06846e-09 9.57677e-15)
(0.129 8.87493e-09 9.5476e-15)
(0.129 6.61605e-09 9.52629e-15)
(0.129 2.78539e-09 9.54445e-15)
(0.129 -1.69739e-09 9.50418e-15)
(0.129 -6.16958e-09 9.50833e-15)
(0.129 -1.01801e-08 9.52993e-15)
(0.129 -1.34313e-08 9.43231e-15)
(0.129 -1.57511e-08 9.46304e-15)
(0.129 -1.7076e-08 9.43068e-15)
(0.129 -1.74331e-08 9.44877e-15)
(0.129 -1.69171e-08 9.47313e-15)
(0.129 -1.5663e-08 9.37074e-15)
(0.129001 -1.3818e-08 9.40093e-15)
(0.129001 -1.15202e-08 9.37336e-15)
(0.129001 -8.8864e-09 9.38716e-15)
(0.129001 -6.00861e-09 9.41593e-15)
(0.129001 -2.95755e-09 9.32075e-15)
(0.129001 2.12264e-10 9.35699e-15)
(0.129001 3.4575e-09 9.32994e-15)
(0.129001 6.74254e-09 9.34855e-15)
(0.129001 1.00375e-08 9.37819e-15)
(0.129001 1.33174e-08 9.28081e-15)
(0.129001 1.65616e-08 9.32027e-15)
(0.129001 1.97531e-08 9.29213e-15)
(0.129001 2.28786e-08 9.30459e-15)
(0.129001 2.59274e-08 9.33148e-15)
(0.129001 2.88903e-08 9.23562e-15)
(0.129001 3.17591e-08 9.27419e-15)
(0.129001 3.45248e-08 9.25381e-15)
(0.129001 3.71787e-08 9.27254e-15)
(0.129001 3.97075e-08 9.29941e-15)
(0.129001 4.21014e-08 9.16731e-15)
(0.129001 4.43382e-08 9.23202e-15)
(0.129001 4.64103e-08 9.31933e-15)
(0.129001 4.82916e-08 9.23008e-15)
(0.129001 4.99453e-08 9.28765e-15)
(0.129 5.14868e-08 9.20416e-15)
(0.129 5.25749e-08 9.283e-15)
(0.129 5.31806e-08 9.36501e-15)
(0.129 5.35224e-08 9.28141e-15)
(0.129 5.36341e-08 9.34856e-15)
(0.129 5.38633e-08 9.2667e-15)
(0.129 5.41482e-08 9.33801e-15)
(0.129 5.41273e-08 9.45195e-15)
(0.129 5.34309e-08 9.32438e-15)
(0.129 5.17786e-08 9.37819e-15)
(0.129 4.90259e-08 9.29107e-15)
(0.129 4.51829e-08 9.36164e-15)
(0.129 4.04157e-08 9.46074e-15)
(0.129 3.49372e-08 9.36234e-15)
(0.129 2.9447e-08 9.40539e-15)
(0.129 2.3721e-08 9.32025e-15)
(0.129 2.20547e-08 9.39832e-15)