/*--------------------------------*- C++ -*----------------------------------*\
  =========                 |
  \\      /  F ield         | OpenFOAM: The Open Source CFD Toolbox
   \\    /   O peration     | Website:  https://openfoam.org
    \\  /    A nd           | Version:  7
     \\/     M anipulation  |
\*---------------------------------------------------------------------------*/
FoamFile
{
    version     2.0;
    format      ascii;
    class       volScalarField;
    location    "17000";
    object      k;
}
// * * * * * * * * * * * * * * * * * * * * * * * * * * * * * * * * * * * * * //

dimensions      [0 2 -2 0 0 0 0];

internalField   nonuniform List<scalar> 
4000
(
9.42826e-05
9.42827e-05
9.42829e-05
9.4283e-05
9.42832e-05
9.42833e-05
9.42835e-05
9.42836e-05
9.42837e-05
9.42839e-05
9.4284e-05
9.42841e-05
9.42842e-05
9.42843e-05
9.42844e-05
9.42845e-05
9.42846e-05
9.42847e-05
9.42848e-05
9.42848e-05
9.42849e-05
9.4285e-05
9.42851e-05
9.42851e-05
9.42852e-05
9.42852e-05
9.42853e-05
9.42853e-05
9.42854e-05
9.42854e-05
9.42855e-05
9.42855e-05
9.42856e-05
9.42856e-05
9.42856e-05
9.42856e-05
9.42857e-05
9.42857e-05
9.42857e-05
9.42857e-05
9.42857e-05
9.42857e-05
9.42857e-05
9.42857e-05
9.42857e-05
9.42858e-05
9.42859e-05
9.4286e-05
9.42861e-05
9.42862e-05
9.42863e-05
9.42864e-05
9.42865e-05
9.42866e-05
9.42866e-05
9.42867e-05
9.42868e-05
9.42869e-05
9.42869e-05
9.4287e-05
9.4287e-05
9.4287e-05
9.42871e-05
9.42871e-05
9.42871e-05
9.42872e-05
9.42872e-05
9.42872e-05
9.42872e-05
9.42872e-05
9.42872e-05
9.42871e-05
9.42871e-05
9.42871e-05
9.42871e-05
9.4287e-05
9.4287e-05
9.42869e-05
9.42869e-05
9.42868e-05
9.42867e-05
9.42867e-05
9.42866e-05
9.42865e-05
9.42864e-05
9.42863e-05
9.42862e-05
9.42861e-05
9.4286e-05
9.42859e-05
9.42858e-05
9.42856e-05
9.42855e-05
9.42854e-05
9.42852e-05
9.42851e-05
9.42849e-05
9.42848e-05
9.42846e-05
9.42845e-05
9.42843e-05
9.42841e-05
9.4284e-05
9.42838e-05
9.42837e-05
9.42836e-05
9.42835e-05
9.42835e-05
9.42834e-05
9.42833e-05
9.42833e-05
9.42832e-05
9.42831e-05
9.4283e-05
9.42829e-05
9.42828e-05
9.42827e-05
9.42826e-05
9.42825e-05
9.42824e-05
9.44076e-05
9.44077e-05
9.44079e-05
9.4408e-05
9.44082e-05
9.44083e-05
9.44085e-05
9.44086e-05
9.44087e-05
9.44089e-05
9.4409e-05
9.44091e-05
9.44092e-05
9.44093e-05
9.44094e-05
9.44095e-05
9.44096e-05
9.44097e-05
9.44098e-05
9.44099e-05
9.441e-05
9.441e-05
9.44101e-05
9.44102e-05
9.44103e-05
9.44103e-05
9.44104e-05
9.44105e-05
9.44105e-05
9.44106e-05
9.44106e-05
9.44107e-05
9.44107e-05
9.44108e-05
9.44108e-05
9.44109e-05
9.44109e-05
9.44109e-05
9.4411e-05
9.4411e-05
9.4411e-05
9.44111e-05
9.44111e-05
9.44111e-05
9.44111e-05
9.44111e-05
9.44112e-05
9.44113e-05
9.44114e-05
9.44115e-05
9.44115e-05
9.44116e-05
9.44117e-05
9.44118e-05
9.44119e-05
9.4412e-05
9.4412e-05
9.44121e-05
9.44122e-05
9.44122e-05
9.44123e-05
9.44123e-05
9.44123e-05
9.44124e-05
9.44124e-05
9.44124e-05
9.44124e-05
9.44125e-05
9.44125e-05
9.44125e-05
9.44124e-05
9.44124e-05
9.44124e-05
9.44124e-05
9.44124e-05
9.44123e-05
9.44123e-05
9.44122e-05
9.44122e-05
9.44121e-05
9.4412e-05
9.4412e-05
9.44119e-05
9.44118e-05
9.44117e-05
9.44116e-05
9.44115e-05
9.44114e-05
9.44113e-05
9.44112e-05
9.44111e-05
9.4411e-05
9.44109e-05
9.44107e-05
9.44106e-05
9.44104e-05
9.44103e-05
9.44101e-05
9.441e-05
9.44098e-05
9.44097e-05
9.44095e-05
9.44093e-05
9.44092e-05
9.4409e-05
9.44089e-05
9.44088e-05
9.44087e-05
9.44086e-05
9.44085e-05
9.44084e-05
9.44083e-05
9.44082e-05
9.44081e-05
9.4408e-05
9.44079e-05
9.44078e-05
9.44077e-05
9.44075e-05
9.44074e-05
9.4624e-05
9.46242e-05
9.46243e-05
9.46245e-05
9.46246e-05
9.46248e-05
9.46249e-05
9.4625e-05
9.46252e-05
9.46253e-05
9.46254e-05
9.46255e-05
9.46256e-05
9.46257e-05
9.46259e-05
9.4626e-05
9.46261e-05
9.46262e-05
9.46263e-05
9.46264e-05
9.46265e-05
9.46266e-05
9.46266e-05
9.46267e-05
9.46268e-05
9.46269e-05
9.4627e-05
9.46271e-05
9.46271e-05
9.46272e-05
9.46273e-05
9.46274e-05
9.46274e-05
9.46275e-05
9.46275e-05
9.46276e-05
9.46277e-05
9.46277e-05
9.46278e-05
9.46278e-05
9.46279e-05
9.46279e-05
9.46279e-05
9.4628e-05
9.4628e-05
9.4628e-05
9.46281e-05
9.46281e-05
9.46282e-05
9.46283e-05
9.46283e-05
9.46284e-05
9.46285e-05
9.46286e-05
9.46287e-05
9.46287e-05
9.46288e-05
9.46289e-05
9.46289e-05
9.4629e-05
9.4629e-05
9.46291e-05
9.46291e-05
9.46292e-05
9.46292e-05
9.46292e-05
9.46292e-05
9.46292e-05
9.46292e-05
9.46292e-05
9.46292e-05
9.46292e-05
9.46292e-05
9.46292e-05
9.46291e-05
9.46291e-05
9.46291e-05
9.4629e-05
9.4629e-05
9.46289e-05
9.46288e-05
9.46288e-05
9.46287e-05
9.46286e-05
9.46285e-05
9.46284e-05
9.46283e-05
9.46282e-05
9.46281e-05
9.4628e-05
9.46279e-05
9.46278e-05
9.46276e-05
9.46275e-05
9.46274e-05
9.46272e-05
9.46271e-05
9.46269e-05
9.46268e-05
9.46266e-05
9.46265e-05
9.46263e-05
9.46261e-05
9.4626e-05
9.46258e-05
9.46256e-05
9.46255e-05
9.46254e-05
9.46252e-05
9.46251e-05
9.4625e-05
9.46249e-05
9.46248e-05
9.46246e-05
9.46245e-05
9.46244e-05
9.46243e-05
9.46241e-05
9.4624e-05
9.46239e-05
9.49269e-05
9.4927e-05
9.49271e-05
9.49273e-05
9.49274e-05
9.49276e-05
9.49277e-05
9.49278e-05
9.49279e-05
9.49281e-05
9.49282e-05
9.49283e-05
9.49284e-05
9.49286e-05
9.49287e-05
9.49288e-05
9.49289e-05
9.4929e-05
9.49291e-05
9.49292e-05
9.49294e-05
9.49295e-05
9.49296e-05
9.49297e-05
9.49298e-05
9.49299e-05
9.493e-05
9.49301e-05
9.49302e-05
9.49302e-05
9.49303e-05
9.49304e-05
9.49305e-05
9.49306e-05
9.49307e-05
9.49307e-05
9.49308e-05
9.49309e-05
9.4931e-05
9.4931e-05
9.49311e-05
9.49311e-05
9.49312e-05
9.49312e-05
9.49313e-05
9.49313e-05
9.49314e-05
9.49314e-05
9.49315e-05
9.49316e-05
9.49316e-05
9.49317e-05
9.49318e-05
9.49318e-05
9.49319e-05
9.4932e-05
9.4932e-05
9.49321e-05
9.49322e-05
9.49322e-05
9.49323e-05
9.49323e-05
9.49323e-05
9.49324e-05
9.49324e-05
9.49324e-05
9.49324e-05
9.49324e-05
9.49324e-05
9.49324e-05
9.49324e-05
9.49324e-05
9.49324e-05
9.49324e-05
9.49323e-05
9.49323e-05
9.49322e-05
9.49322e-05
9.49321e-05
9.49321e-05
9.4932e-05
9.49319e-05
9.49319e-05
9.49318e-05
9.49317e-05
9.49316e-05
9.49315e-05
9.49314e-05
9.49313e-05
9.49312e-05
9.4931e-05
9.49309e-05
9.49308e-05
9.49307e-05
9.49305e-05
9.49304e-05
9.49302e-05
9.49301e-05
9.49299e-05
9.49298e-05
9.49296e-05
9.49294e-05
9.49293e-05
9.49291e-05
9.49289e-05
9.49288e-05
9.49286e-05
9.49284e-05
9.49283e-05
9.49281e-05
9.4928e-05
9.49278e-05
9.49277e-05
9.49276e-05
9.49274e-05
9.49273e-05
9.49271e-05
9.4927e-05
9.49269e-05
9.49267e-05
9.53117e-05
9.53118e-05
9.53119e-05
9.5312e-05
9.53122e-05
9.53123e-05
9.53124e-05
9.53126e-05
9.53127e-05
9.53128e-05
9.5313e-05
9.53131e-05
9.53132e-05
9.53134e-05
9.53135e-05
9.53136e-05
9.53137e-05
9.53139e-05
9.5314e-05
9.53141e-05
9.53142e-05
9.53144e-05
9.53145e-05
9.53146e-05
9.53147e-05
9.53148e-05
9.5315e-05
9.53151e-05
9.53152e-05
9.53153e-05
9.53154e-05
9.53155e-05
9.53156e-05
9.53157e-05
9.53158e-05
9.53159e-05
9.5316e-05
9.53161e-05
9.53162e-05
9.53163e-05
9.53163e-05
9.53164e-05
9.53165e-05
9.53166e-05
9.53166e-05
9.53167e-05
9.53167e-05
9.53168e-05
9.53168e-05
9.53169e-05
9.5317e-05
9.5317e-05
9.53171e-05
9.53171e-05
9.53172e-05
9.53173e-05
9.53173e-05
9.53174e-05
9.53174e-05
9.53175e-05
9.53175e-05
9.53176e-05
9.53176e-05
9.53176e-05
9.53176e-05
9.53176e-05
9.53177e-05
9.53177e-05
9.53177e-05
9.53176e-05
9.53176e-05
9.53176e-05
9.53176e-05
9.53175e-05
9.53175e-05
9.53175e-05
9.53174e-05
9.53174e-05
9.53173e-05
9.53172e-05
9.53172e-05
9.53171e-05
9.5317e-05
9.53169e-05
9.53168e-05
9.53167e-05
9.53166e-05
9.53165e-05
9.53164e-05
9.53163e-05
9.53162e-05
9.5316e-05
9.53159e-05
9.53158e-05
9.53156e-05
9.53155e-05
9.53153e-05
9.53152e-05
9.5315e-05
9.53149e-05
9.53147e-05
9.53145e-05
9.53144e-05
9.53142e-05
9.5314e-05
9.53138e-05
9.53136e-05
9.53134e-05
9.53133e-05
9.53131e-05
9.53129e-05
9.53128e-05
9.53126e-05
9.53125e-05
9.53123e-05
9.53121e-05
9.5312e-05
9.53118e-05
9.53117e-05
9.53115e-05
9.57746e-05
9.57747e-05
9.57749e-05
9.5775e-05
9.57751e-05
9.57752e-05
9.57754e-05
9.57755e-05
9.57757e-05
9.57758e-05
9.57759e-05
9.57761e-05
9.57762e-05
9.57763e-05
9.57765e-05
9.57766e-05
9.57768e-05
9.57769e-05
9.5777e-05
9.57772e-05
9.57773e-05
9.57775e-05
9.57776e-05
9.57777e-05
9.57779e-05
9.5778e-05
9.57782e-05
9.57783e-05
9.57784e-05
9.57785e-05
9.57787e-05
9.57788e-05
9.57789e-05
9.5779e-05
9.57792e-05
9.57793e-05
9.57794e-05
9.57795e-05
9.57796e-05
9.57797e-05
9.57798e-05
9.57799e-05
9.578e-05
9.57801e-05
9.57802e-05
9.57802e-05
9.57803e-05
9.57804e-05
9.57804e-05
9.57805e-05
9.57805e-05
9.57806e-05
9.57806e-05
9.57807e-05
9.57808e-05
9.57808e-05
9.57809e-05
9.57809e-05
9.57809e-05
9.5781e-05
9.5781e-05
9.5781e-05
9.57811e-05
9.57811e-05
9.57811e-05
9.57811e-05
9.57811e-05
9.57811e-05
9.57811e-05
9.57811e-05
9.5781e-05
9.5781e-05
9.5781e-05
9.57809e-05
9.57809e-05
9.57808e-05
9.57808e-05
9.57807e-05
9.57806e-05
9.57806e-05
9.57805e-05
9.57804e-05
9.57803e-05
9.57802e-05
9.57801e-05
9.578e-05
9.57799e-05
9.57798e-05
9.57797e-05
9.57795e-05
9.57794e-05
9.57793e-05
9.57791e-05
9.5779e-05
9.57789e-05
9.57787e-05
9.57785e-05
9.57784e-05
9.57782e-05
9.57781e-05
9.57779e-05
9.57777e-05
9.57775e-05
9.57774e-05
9.57772e-05
9.5777e-05
9.57768e-05
9.57766e-05
9.57764e-05
9.57762e-05
9.57761e-05
9.57759e-05
9.57757e-05
9.57755e-05
9.57753e-05
9.57752e-05
9.5775e-05
9.57748e-05
9.57747e-05
9.57745e-05
9.63124e-05
9.63125e-05
9.63127e-05
9.63128e-05
9.63129e-05
9.63131e-05
9.63132e-05
9.63133e-05
9.63135e-05
9.63136e-05
9.63138e-05
9.63139e-05
9.63141e-05
9.63142e-05
9.63144e-05
9.63145e-05
9.63147e-05
9.63149e-05
9.6315e-05
9.63152e-05
9.63153e-05
9.63155e-05
9.63157e-05
9.63158e-05
9.6316e-05
9.63161e-05
9.63163e-05
9.63164e-05
9.63166e-05
9.63167e-05
9.63169e-05
9.6317e-05
9.63172e-05
9.63173e-05
9.63175e-05
9.63176e-05
9.63177e-05
9.63178e-05
9.6318e-05
9.63181e-05
9.63182e-05
9.63183e-05
9.63184e-05
9.63185e-05
9.63186e-05
9.63187e-05
9.63188e-05
9.63189e-05
9.63189e-05
9.6319e-05
9.6319e-05
9.63191e-05
9.63191e-05
9.63192e-05
9.63192e-05
9.63193e-05
9.63193e-05
9.63193e-05
9.63194e-05
9.63194e-05
9.63194e-05
9.63194e-05
9.63194e-05
9.63195e-05
9.63195e-05
9.63194e-05
9.63194e-05
9.63194e-05
9.63194e-05
9.63194e-05
9.63193e-05
9.63193e-05
9.63192e-05
9.63192e-05
9.63191e-05
9.63191e-05
9.6319e-05
9.63189e-05
9.63189e-05
9.63188e-05
9.63187e-05
9.63186e-05
9.63185e-05
9.63184e-05
9.63183e-05
9.63182e-05
9.6318e-05
9.63179e-05
9.63178e-05
9.63176e-05
9.63175e-05
9.63174e-05
9.63172e-05
9.63171e-05
9.63169e-05
9.63168e-05
9.63166e-05
9.63164e-05
9.63163e-05
9.63161e-05
9.63159e-05
9.63158e-05
9.63156e-05
9.63154e-05
9.63152e-05
9.6315e-05
9.63148e-05
9.63146e-05
9.63144e-05
9.63142e-05
9.6314e-05
9.63138e-05
9.63136e-05
9.63134e-05
9.63133e-05
9.63131e-05
9.63129e-05
9.63127e-05
9.63125e-05
9.63123e-05
9.69223e-05
9.69224e-05
9.69225e-05
9.69226e-05
9.69228e-05
9.69229e-05
9.69231e-05
9.69232e-05
9.69234e-05
9.69235e-05
9.69237e-05
9.69238e-05
9.6924e-05
9.69242e-05
9.69243e-05
9.69245e-05
9.69247e-05
9.69249e-05
9.69251e-05
9.69252e-05
9.69254e-05
9.69256e-05
9.69258e-05
9.6926e-05
9.69261e-05
9.69263e-05
9.69265e-05
9.69267e-05
9.69268e-05
9.6927e-05
9.69272e-05
9.69273e-05
9.69275e-05
9.69277e-05
9.69278e-05
9.6928e-05
9.69281e-05
9.69283e-05
9.69284e-05
9.69286e-05
9.69287e-05
9.69288e-05
9.69289e-05
9.6929e-05
9.69291e-05
9.69292e-05
9.69293e-05
9.69294e-05
9.69295e-05
9.69295e-05
9.69296e-05
9.69296e-05
9.69297e-05
9.69297e-05
9.69298e-05
9.69298e-05
9.69298e-05
9.69299e-05
9.69299e-05
9.69299e-05
9.69299e-05
9.69299e-05
9.69299e-05
9.69299e-05
9.69299e-05
9.69298e-05
9.69298e-05
9.69298e-05
9.69297e-05
9.69297e-05
9.69297e-05
9.69296e-05
9.69295e-05
9.69295e-05
9.69294e-05
9.69293e-05
9.69292e-05
9.69292e-05
9.69291e-05
9.6929e-05
9.69289e-05
9.69288e-05
9.69287e-05
9.69285e-05
9.69284e-05
9.69283e-05
9.69282e-05
9.6928e-05
9.69279e-05
9.69277e-05
9.69276e-05
9.69275e-05
9.69273e-05
9.69271e-05
9.6927e-05
9.69268e-05
9.69266e-05
9.69265e-05
9.69263e-05
9.69261e-05
9.69259e-05
9.69258e-05
9.69256e-05
9.69254e-05
9.69252e-05
9.6925e-05
9.69248e-05
9.69246e-05
9.69244e-05
9.69242e-05
9.6924e-05
9.69238e-05
9.69236e-05
9.69233e-05
9.69231e-05
9.69229e-05
9.69227e-05
9.69225e-05
9.69224e-05
9.69222e-05
9.76016e-05
9.76017e-05
9.76018e-05
9.7602e-05
9.76021e-05
9.76023e-05
9.76024e-05
9.76026e-05
9.76028e-05
9.76029e-05
9.76031e-05
9.76033e-05
9.76035e-05
9.76037e-05
9.76039e-05
9.76041e-05
9.76043e-05
9.76045e-05
9.76047e-05
9.76049e-05
9.76051e-05
9.76053e-05
9.76055e-05
9.76057e-05
9.76059e-05
9.76061e-05
9.76063e-05
9.76065e-05
9.76067e-05
9.76069e-05
9.76071e-05
9.76073e-05
9.76074e-05
9.76076e-05
9.76078e-05
9.7608e-05
9.76081e-05
9.76083e-05
9.76084e-05
9.76086e-05
9.76087e-05
9.76089e-05
9.7609e-05
9.76091e-05
9.76092e-05
9.76093e-05
9.76094e-05
9.76095e-05
9.76096e-05
9.76096e-05
9.76097e-05
9.76097e-05
9.76098e-05
9.76098e-05
9.76098e-05
9.76099e-05
9.76099e-05
9.76099e-05
9.76099e-05
9.76099e-05
9.76099e-05
9.76099e-05
9.76099e-05
9.76098e-05
9.76098e-05
9.76098e-05
9.76097e-05
9.76097e-05
9.76096e-05
9.76096e-05
9.76095e-05
9.76094e-05
9.76093e-05
9.76093e-05
9.76092e-05
9.76091e-05
9.7609e-05
9.76089e-05
9.76088e-05
9.76087e-05
9.76086e-05
9.76084e-05
9.76083e-05
9.76082e-05
9.7608e-05
9.76079e-05
9.76078e-05
9.76076e-05
9.76075e-05
9.76073e-05
9.76072e-05
9.7607e-05
9.76068e-05
9.76067e-05
9.76065e-05
9.76063e-05
9.76062e-05
9.7606e-05
9.76058e-05
9.76056e-05
9.76054e-05
9.76052e-05
9.7605e-05
9.76048e-05
9.76046e-05
9.76044e-05
9.76042e-05
9.7604e-05
9.76038e-05
9.76036e-05
9.76034e-05
9.76032e-05
9.76029e-05
9.76027e-05
9.76025e-05
9.76023e-05
9.76021e-05
9.76019e-05
9.76017e-05
9.76015e-05
9.83483e-05
9.83484e-05
9.83485e-05
9.83487e-05
9.83488e-05
9.8349e-05
9.83492e-05
9.83493e-05
9.83495e-05
9.83497e-05
9.83499e-05
9.83501e-05
9.83503e-05
9.83506e-05
9.83508e-05
9.8351e-05
9.83512e-05
9.83514e-05
9.83517e-05
9.83519e-05
9.83521e-05
9.83524e-05
9.83526e-05
9.83528e-05
9.8353e-05
9.83533e-05
9.83535e-05
9.83537e-05
9.83539e-05
9.83541e-05
9.83544e-05
9.83546e-05
9.83548e-05
9.8355e-05
9.83552e-05
9.83553e-05
9.83555e-05
9.83557e-05
9.83559e-05
9.8356e-05
9.83562e-05
9.83563e-05
9.83564e-05
9.83566e-05
9.83567e-05
9.83568e-05
9.83569e-05
9.83569e-05
9.8357e-05
9.83571e-05
9.83571e-05
9.83572e-05
9.83572e-05
9.83572e-05
9.83572e-05
9.83573e-05
9.83573e-05
9.83573e-05
9.83572e-05
9.83572e-05
9.83572e-05
9.83572e-05
9.83571e-05
9.83571e-05
9.8357e-05
9.8357e-05
9.83569e-05
9.83569e-05
9.83568e-05
9.83567e-05
9.83566e-05
9.83565e-05
9.83564e-05
9.83563e-05
9.83562e-05
9.83561e-05
9.8356e-05
9.83559e-05
9.83558e-05
9.83557e-05
9.83555e-05
9.83554e-05
9.83553e-05
9.83551e-05
9.8355e-05
9.83548e-05
9.83547e-05
9.83545e-05
9.83543e-05
9.83542e-05
9.8354e-05
9.83538e-05
9.83537e-05
9.83535e-05
9.83533e-05
9.83531e-05
9.83529e-05
9.83528e-05
9.83526e-05
9.83524e-05
9.83522e-05
9.8352e-05
9.83518e-05
9.83516e-05
9.83514e-05
9.83511e-05
9.83509e-05
9.83507e-05
9.83505e-05
9.83503e-05
9.83501e-05
9.83498e-05
9.83496e-05
9.83494e-05
9.83492e-05
9.8349e-05
9.83488e-05
9.83485e-05
9.83483e-05
9.83482e-05
9.91603e-05
9.91604e-05
9.91606e-05
9.91607e-05
9.91609e-05
9.91611e-05
9.91613e-05
9.91615e-05
9.91617e-05
9.91619e-05
9.91622e-05
9.91624e-05
9.91626e-05
9.91629e-05
9.91631e-05
9.91634e-05
9.91636e-05
9.91639e-05
9.91641e-05
9.91644e-05
9.91646e-05
9.91649e-05
9.91651e-05
9.91654e-05
9.91656e-05
9.91659e-05
9.91661e-05
9.91664e-05
9.91666e-05
9.91669e-05
9.91671e-05
9.91673e-05
9.91675e-05
9.91677e-05
9.91679e-05
9.91681e-05
9.91683e-05
9.91685e-05
9.91687e-05
9.91689e-05
9.9169e-05
9.91692e-05
9.91693e-05
9.91694e-05
9.91695e-05
9.91696e-05
9.91697e-05
9.91698e-05
9.91698e-05
9.91699e-05
9.91699e-05
9.917e-05
9.917e-05
9.917e-05
9.917e-05
9.917e-05
9.917e-05
9.917e-05
9.91699e-05
9.91699e-05
9.91699e-05
9.91698e-05
9.91698e-05
9.91697e-05
9.91696e-05
9.91695e-05
9.91695e-05
9.91694e-05
9.91693e-05
9.91692e-05
9.91691e-05
9.9169e-05
9.91689e-05
9.91688e-05
9.91686e-05
9.91685e-05
9.91684e-05
9.91683e-05
9.91681e-05
9.9168e-05
9.91678e-05
9.91677e-05
9.91675e-05
9.91674e-05
9.91672e-05
9.91671e-05
9.91669e-05
9.91667e-05
9.91665e-05
9.91664e-05
9.91662e-05
9.9166e-05
9.91658e-05
9.91656e-05
9.91654e-05
9.91652e-05
9.91651e-05
9.91649e-05
9.91647e-05
9.91645e-05
9.91642e-05
9.9164e-05
9.91638e-05
9.91636e-05
9.91634e-05
9.91632e-05
9.9163e-05
9.91627e-05
9.91625e-05
9.91623e-05
9.91621e-05
9.91619e-05
9.91616e-05
9.91614e-05
9.91612e-05
9.9161e-05
9.91607e-05
9.91605e-05
9.91603e-05
9.91602e-05
0.000100036
0.000100036
0.000100036
0.000100036
0.000100037
0.000100037
0.000100037
0.000100037
0.000100038
0.000100038
0.000100038
0.000100038
0.000100039
0.000100039
0.000100039
0.000100039
0.00010004
0.00010004
0.00010004
0.000100041
0.000100041
0.000100041
0.000100041
0.000100042
0.000100042
0.000100042
0.000100042
0.000100043
0.000100043
0.000100043
0.000100044
0.000100044
0.000100044
0.000100044
0.000100044
0.000100045
0.000100045
0.000100045
0.000100045
0.000100045
0.000100046
0.000100046
0.000100046
0.000100046
0.000100046
0.000100046
0.000100046
0.000100046
0.000100046
0.000100046
0.000100046
0.000100046
0.000100046
0.000100046
0.000100046
0.000100046
0.000100046
0.000100046
0.000100046
0.000100046
0.000100046
0.000100046
0.000100046
0.000100046
0.000100046
0.000100046
0.000100046
0.000100045
0.000100045
0.000100045
0.000100045
0.000100045
0.000100045
0.000100045
0.000100045
0.000100044
0.000100044
0.000100044
0.000100044
0.000100044
0.000100044
0.000100044
0.000100043
0.000100043
0.000100043
0.000100043
0.000100043
0.000100042
0.000100042
0.000100042
0.000100042
0.000100042
0.000100042
0.000100041
0.000100041
0.000100041
0.000100041
0.000100041
0.00010004
0.00010004
0.00010004
0.00010004
0.000100039
0.000100039
0.000100039
0.000100039
0.000100039
0.000100038
0.000100038
0.000100038
0.000100038
0.000100037
0.000100037
0.000100037
0.000100037
0.000100037
0.000100036
0.000100036
0.000100036
0.000100036
0.000100974
0.000100974
0.000100974
0.000100974
0.000100974
0.000100975
0.000100975
0.000100975
0.000100975
0.000100976
0.000100976
0.000100976
0.000100977
0.000100977
0.000100977
0.000100978
0.000100978
0.000100978
0.000100979
0.000100979
0.000100979
0.000100979
0.00010098
0.00010098
0.00010098
0.000100981
0.000100981
0.000100981
0.000100981
0.000100982
0.000100982
0.000100982
0.000100983
0.000100983
0.000100983
0.000100983
0.000100983
0.000100984
0.000100984
0.000100984
0.000100984
0.000100984
0.000100984
0.000100984
0.000100984
0.000100985
0.000100985
0.000100985
0.000100985
0.000100985
0.000100985
0.000100985
0.000100985
0.000100985
0.000100985
0.000100985
0.000100985
0.000100985
0.000100984
0.000100984
0.000100984
0.000100984
0.000100984
0.000100984
0.000100984
0.000100984
0.000100984
0.000100984
0.000100983
0.000100983
0.000100983
0.000100983
0.000100983
0.000100983
0.000100983
0.000100982
0.000100982
0.000100982
0.000100982
0.000100982
0.000100982
0.000100981
0.000100981
0.000100981
0.000100981
0.000100981
0.00010098
0.00010098
0.00010098
0.00010098
0.00010098
0.000100979
0.000100979
0.000100979
0.000100979
0.000100979
0.000100978
0.000100978
0.000100978
0.000100978
0.000100978
0.000100977
0.000100977
0.000100977
0.000100977
0.000100976
0.000100976
0.000100976
0.000100976
0.000100975
0.000100975
0.000100975
0.000100975
0.000100975
0.000100974
0.000100974
0.000100974
0.000100974
0.000100974
0.000100973
0.000101972
0.000101972
0.000101972
0.000101973
0.000101973
0.000101973
0.000101973
0.000101974
0.000101974
0.000101974
0.000101975
0.000101975
0.000101975
0.000101976
0.000101976
0.000101976
0.000101977
0.000101977
0.000101977
0.000101978
0.000101978
0.000101978
0.000101979
0.000101979
0.000101979
0.00010198
0.00010198
0.00010198
0.000101981
0.000101981
0.000101981
0.000101981
0.000101982
0.000101982
0.000101982
0.000101982
0.000101982
0.000101983
0.000101983
0.000101983
0.000101983
0.000101983
0.000101983
0.000101983
0.000101983
0.000101984
0.000101984
0.000101984
0.000101984
0.000101984
0.000101984
0.000101984
0.000101984
0.000101983
0.000101983
0.000101983
0.000101983
0.000101983
0.000101983
0.000101983
0.000101983
0.000101983
0.000101983
0.000101983
0.000101982
0.000101982
0.000101982
0.000101982
0.000101982
0.000101982
0.000101982
0.000101981
0.000101981
0.000101981
0.000101981
0.000101981
0.000101981
0.00010198
0.00010198
0.00010198
0.00010198
0.00010198
0.000101979
0.000101979
0.000101979
0.000101979
0.000101979
0.000101978
0.000101978
0.000101978
0.000101978
0.000101978
0.000101977
0.000101977
0.000101977
0.000101977
0.000101977
0.000101976
0.000101976
0.000101976
0.000101976
0.000101975
0.000101975
0.000101975
0.000101975
0.000101974
0.000101974
0.000101974
0.000101974
0.000101974
0.000101973
0.000101973
0.000101973
0.000101973
0.000101972
0.000101972
0.000101972
0.000101972
0.000101972
0.000101972
0.000103029
0.000103029
0.00010303
0.00010303
0.00010303
0.000103031
0.000103031
0.000103031
0.000103032
0.000103032
0.000103033
0.000103033
0.000103033
0.000103034
0.000103034
0.000103034
0.000103035
0.000103035
0.000103035
0.000103036
0.000103036
0.000103037
0.000103037
0.000103037
0.000103038
0.000103038
0.000103038
0.000103039
0.000103039
0.000103039
0.000103039
0.00010304
0.00010304
0.00010304
0.00010304
0.000103041
0.000103041
0.000103041
0.000103041
0.000103041
0.000103041
0.000103041
0.000103041
0.000103041
0.000103042
0.000103042
0.000103042
0.000103042
0.000103042
0.000103041
0.000103041
0.000103041
0.000103041
0.000103041
0.000103041
0.000103041
0.000103041
0.000103041
0.000103041
0.000103041
0.000103041
0.00010304
0.00010304
0.00010304
0.00010304
0.00010304
0.00010304
0.00010304
0.000103039
0.000103039
0.000103039
0.000103039
0.000103039
0.000103039
0.000103038
0.000103038
0.000103038
0.000103038
0.000103038
0.000103037
0.000103037
0.000103037
0.000103037
0.000103037
0.000103036
0.000103036
0.000103036
0.000103036
0.000103036
0.000103035
0.000103035
0.000103035
0.000103035
0.000103034
0.000103034
0.000103034
0.000103034
0.000103034
0.000103033
0.000103033
0.000103033
0.000103033
0.000103032
0.000103032
0.000103032
0.000103032
0.000103031
0.000103031
0.000103031
0.000103031
0.000103031
0.00010303
0.00010303
0.00010303
0.00010303
0.00010303
0.000103029
0.000103029
0.000103029
0.000103029
0.000104144
0.000104145
0.000104145
0.000104145
0.000104146
0.000104146
0.000104147
0.000104147
0.000104147
0.000104148
0.000104148
0.000104149
0.000104149
0.000104149
0.00010415
0.00010415
0.000104151
0.000104151
0.000104151
0.000104152
0.000104152
0.000104153
0.000104153
0.000104153
0.000104154
0.000104154
0.000104154
0.000104155
0.000104155
0.000104155
0.000104155
0.000104156
0.000104156
0.000104156
0.000104156
0.000104157
0.000104157
0.000104157
0.000104157
0.000104157
0.000104157
0.000104157
0.000104157
0.000104157
0.000104157
0.000104157
0.000104157
0.000104157
0.000104157
0.000104157
0.000104157
0.000104157
0.000104157
0.000104157
0.000104157
0.000104157
0.000104156
0.000104156
0.000104156
0.000104156
0.000104156
0.000104156
0.000104156
0.000104155
0.000104155
0.000104155
0.000104155
0.000104155
0.000104155
0.000104154
0.000104154
0.000104154
0.000104154
0.000104154
0.000104154
0.000104153
0.000104153
0.000104153
0.000104153
0.000104153
0.000104152
0.000104152
0.000104152
0.000104152
0.000104151
0.000104151
0.000104151
0.000104151
0.000104151
0.00010415
0.00010415
0.00010415
0.00010415
0.000104149
0.000104149
0.000104149
0.000104149
0.000104149
0.000104148
0.000104148
0.000104148
0.000104148
0.000104147
0.000104147
0.000104147
0.000104147
0.000104146
0.000104146
0.000104146
0.000104146
0.000104145
0.000104145
0.000104145
0.000104145
0.000104145
0.000104145
0.000104144
0.000104144
0.000104144
0.000104144
0.000105316
0.000105317
0.000105317
0.000105317
0.000105318
0.000105318
0.000105319
0.000105319
0.000105319
0.00010532
0.00010532
0.000105321
0.000105321
0.000105322
0.000105322
0.000105323
0.000105323
0.000105323
0.000105324
0.000105324
0.000105325
0.000105325
0.000105325
0.000105326
0.000105326
0.000105326
0.000105327
0.000105327
0.000105327
0.000105328
0.000105328
0.000105328
0.000105328
0.000105329
0.000105329
0.000105329
0.000105329
0.000105329
0.000105329
0.000105329
0.000105329
0.000105329
0.000105329
0.000105329
0.000105329
0.000105329
0.000105329
0.000105329
0.000105329
0.000105329
0.000105329
0.000105329
0.000105329
0.000105329
0.000105328
0.000105328
0.000105328
0.000105328
0.000105328
0.000105328
0.000105328
0.000105327
0.000105327
0.000105327
0.000105327
0.000105327
0.000105327
0.000105326
0.000105326
0.000105326
0.000105326
0.000105326
0.000105325
0.000105325
0.000105325
0.000105325
0.000105325
0.000105324
0.000105324
0.000105324
0.000105324
0.000105324
0.000105323
0.000105323
0.000105323
0.000105323
0.000105322
0.000105322
0.000105322
0.000105322
0.000105321
0.000105321
0.000105321
0.000105321
0.000105321
0.00010532
0.00010532
0.00010532
0.00010532
0.000105319
0.000105319
0.000105319
0.000105319
0.000105318
0.000105318
0.000105318
0.000105318
0.000105317
0.000105317
0.000105317
0.000105317
0.000105317
0.000105317
0.000105316
0.000105316
0.000105316
0.000105316
0.000105316
0.000105316
0.000105316
0.000106543
0.000106543
0.000106544
0.000106544
0.000106545
0.000106545
0.000106546
0.000106546
0.000106547
0.000106547
0.000106548
0.000106548
0.000106549
0.000106549
0.000106549
0.00010655
0.00010655
0.000106551
0.000106551
0.000106552
0.000106552
0.000106552
0.000106553
0.000106553
0.000106554
0.000106554
0.000106554
0.000106554
0.000106555
0.000106555
0.000106555
0.000106556
0.000106556
0.000106556
0.000106556
0.000106556
0.000106556
0.000106556
0.000106556
0.000106556
0.000106556
0.000106556
0.000106556
0.000106556
0.000106556
0.000106556
0.000106556
0.000106556
0.000106556
0.000106556
0.000106556
0.000106556
0.000106555
0.000106555
0.000106555
0.000106555
0.000106555
0.000106555
0.000106554
0.000106554
0.000106554
0.000106554
0.000106554
0.000106554
0.000106553
0.000106553
0.000106553
0.000106553
0.000106553
0.000106552
0.000106552
0.000106552
0.000106552
0.000106552
0.000106551
0.000106551
0.000106551
0.000106551
0.000106551
0.00010655
0.00010655
0.00010655
0.00010655
0.000106549
0.000106549
0.000106549
0.000106549
0.000106549
0.000106548
0.000106548
0.000106548
0.000106548
0.000106547
0.000106547
0.000106547
0.000106547
0.000106546
0.000106546
0.000106546
0.000106546
0.000106546
0.000106545
0.000106545
0.000106545
0.000106545
0.000106544
0.000106544
0.000106544
0.000106544
0.000106543
0.000106543
0.000106543
0.000106543
0.000106543
0.000106543
0.000106543
0.000106543
0.000106543
0.000106543
0.000106543
0.000107824
0.000107824
0.000107825
0.000107825
0.000107826
0.000107826
0.000107827
0.000107827
0.000107828
0.000107828
0.000107829
0.000107829
0.00010783
0.00010783
0.000107831
0.000107831
0.000107831
0.000107832
0.000107832
0.000107833
0.000107833
0.000107834
0.000107834
0.000107834
0.000107835
0.000107835
0.000107835
0.000107836
0.000107836
0.000107836
0.000107836
0.000107836
0.000107837
0.000107837
0.000107837
0.000107837
0.000107837
0.000107837
0.000107837
0.000107837
0.000107837
0.000107837
0.000107837
0.000107837
0.000107837
0.000107837
0.000107836
0.000107836
0.000107836
0.000107836
0.000107836
0.000107836
0.000107836
0.000107835
0.000107835
0.000107835
0.000107835
0.000107835
0.000107835
0.000107834
0.000107834
0.000107834
0.000107834
0.000107834
0.000107834
0.000107833
0.000107833
0.000107833
0.000107833
0.000107833
0.000107832
0.000107832
0.000107832
0.000107832
0.000107832
0.000107831
0.000107831
0.000107831
0.000107831
0.00010783
0.00010783
0.00010783
0.00010783
0.00010783
0.000107829
0.000107829
0.000107829
0.000107829
0.000107828
0.000107828
0.000107828
0.000107828
0.000107827
0.000107827
0.000107827
0.000107827
0.000107827
0.000107826
0.000107826
0.000107826
0.000107826
0.000107825
0.000107825
0.000107825
0.000107825
0.000107824
0.000107824
0.000107824
0.000107824
0.000107824
0.000107823
0.000107823
0.000107823
0.000107823
0.000107823
0.000107823
0.000107823
0.000107823
0.000107823
0.000107823
0.000109157
0.000109157
0.000109158
0.000109158
0.000109159
0.000109159
0.00010916
0.00010916
0.000109161
0.000109161
0.000109162
0.000109162
0.000109163
0.000109163
0.000109164
0.000109164
0.000109165
0.000109165
0.000109166
0.000109166
0.000109166
0.000109167
0.000109167
0.000109168
0.000109168
0.000109168
0.000109168
0.000109169
0.000109169
0.000109169
0.000109169
0.00010917
0.00010917
0.00010917
0.00010917
0.00010917
0.00010917
0.00010917
0.00010917
0.00010917
0.00010917
0.000109169
0.000109169
0.000109169
0.000109169
0.000109169
0.000109169
0.000109169
0.000109169
0.000109168
0.000109168
0.000109168
0.000109168
0.000109168
0.000109168
0.000109167
0.000109167
0.000109167
0.000109167
0.000109167
0.000109167
0.000109166
0.000109166
0.000109166
0.000109166
0.000109166
0.000109165
0.000109165
0.000109165
0.000109165
0.000109165
0.000109164
0.000109164
0.000109164
0.000109164
0.000109164
0.000109163
0.000109163
0.000109163
0.000109163
0.000109162
0.000109162
0.000109162
0.000109162
0.000109162
0.000109161
0.000109161
0.000109161
0.000109161
0.00010916
0.00010916
0.00010916
0.00010916
0.00010916
0.000109159
0.000109159
0.000109159
0.000109159
0.000109158
0.000109158
0.000109158
0.000109158
0.000109157
0.000109157
0.000109157
0.000109157
0.000109156
0.000109156
0.000109156
0.000109156
0.000109156
0.000109156
0.000109156
0.000109156
0.000109156
0.000109156
0.000109156
0.000109156
0.000109156
0.000109156
0.00011054
0.000110541
0.000110542
0.000110542
0.000110543
0.000110543
0.000110544
0.000110544
0.000110545
0.000110545
0.000110546
0.000110546
0.000110547
0.000110547
0.000110548
0.000110548
0.000110549
0.000110549
0.00011055
0.00011055
0.00011055
0.000110551
0.000110551
0.000110551
0.000110552
0.000110552
0.000110552
0.000110552
0.000110553
0.000110553
0.000110553
0.000110553
0.000110553
0.000110553
0.000110553
0.000110553
0.000110553
0.000110553
0.000110553
0.000110553
0.000110553
0.000110553
0.000110552
0.000110552
0.000110552
0.000110552
0.000110552
0.000110552
0.000110552
0.000110551
0.000110551
0.000110551
0.000110551
0.000110551
0.000110551
0.00011055
0.00011055
0.00011055
0.00011055
0.00011055
0.000110549
0.000110549