/*--------------------------------*- C++ -*----------------------------------*\
  =========                 |
  \\      /  F ield         | OpenFOAM: The Open Source CFD Toolbox
   \\    /   O peration     | Website:  https://openfoam.org
    \\  /    A nd           | Version:  7
     \\/     M anipulation  |
\*---------------------------------------------------------------------------*/
FoamFile
{
    version     2.0;
    format      ascii;
    class       surfaceScalarField;
    location    "17000";
    object      phi;
}
// * * * * * * * * * * * * * * * * * * * * * * * * * * * * * * * * * * * * * //

dimensions      [0 3 -1 0 0 0 0];

internalField   nonuniform List<scalar> 
7846
(
0.000784091
-1.75819e-10
0.000784091
-2.21792e-10
0.000784091
-2.49179e-10
0.000784091
-2.70992e-10
0.000784091
-2.91208e-10
0.000784091
-3.10764e-10
0.000784091
-3.29657e-10
0.000784091
-3.47749e-10
0.000784091
-3.64911e-10
0.000784091
-3.8105e-10
0.000784091
-3.96119e-10
0.000784091
-4.10094e-10
0.00078409
-4.22966e-10
0.00078409
-4.34757e-10
0.00078409
-4.45516e-10
0.00078409
-4.55302e-10
0.00078409
-4.64175e-10
0.00078409
-4.72177e-10
0.00078409
-4.79321e-10
0.00078409
-4.85588e-10
0.00078409
-4.90936e-10
0.00078409
-4.95303e-10
0.00078409
-4.98617e-10
0.00078409
-5.00836e-10
0.00078409
-5.01973e-10
0.00078409
-5.02094e-10
0.00078409
-5.01311e-10
0.00078409
-4.99763e-10
0.00078409
-4.97591e-10
0.000784089
-4.94911e-10
0.000784089
-4.91793e-10
0.000784089
-4.8824e-10
0.000784089
-4.84173e-10
0.000784089
-4.79394e-10
0.000784089
-4.73555e-10
0.000784089
-4.66092e-10
0.000784089
-4.56143e-10
0.000784089
-4.42455e-10
0.000784089
-4.23189e-10
0.000784089
-3.95748e-10
0.000784089
-3.5615e-10
0.000784089
-2.98823e-10
0.000784089
-2.13283e-10
0.000784088
-8.4663e-11
0.000784088
1.22888e-10
0.000784088
3.46764e-10
0.000784088
4.97338e-10
0.000784088
5.91338e-10
0.000784088
6.50438e-10
0.000784088
6.85503e-10
0.000784088
7.04304e-10
0.000784088
7.12004e-10
0.000784088
7.11906e-10
0.000784088
7.06289e-10
0.000784088
6.96769e-10
0.000784088
6.84504e-10
0.000784088
6.70317e-10
0.000784088
6.54789e-10
0.000784088
6.38326e-10
0.000784088
6.21203e-10
0.000784088
6.03585e-10
0.000784088
5.85561e-10
0.000784088
5.67179e-10
0.000784088
5.48465e-10
0.000784088
5.2942e-10
0.000784088
5.10042e-10
0.000784088
4.90333e-10
0.000784088
4.70297e-10
0.000784088
4.49922e-10
0.000784088
4.29206e-10
0.000784088
4.08169e-10
0.000784088
3.86836e-10
0.000784088
3.65208e-10
0.000784088
3.43272e-10
0.000784088
3.21008e-10
0.000784088
2.98401e-10
0.000784088
2.75421e-10
0.000784088
2.52013e-10
0.000784088
2.281e-10
0.000784088
2.03619e-10
0.000784089
1.78525e-10
0.000784089
1.52775e-10
0.000784089
1.26317e-10
0.000784089
9.9097e-11
0.000784089
7.10753e-11
0.000784089
4.22351e-11
0.000784089
1.25825e-11
0.000784089
-1.78668e-11
0.000784089
-4.90874e-11
0.000784089
-8.10185e-11
0.000784089
-1.13542e-10
0.000784089
-1.46468e-10
0.000784089
-1.79513e-10
0.00078409
-2.12268e-10
0.00078409
-2.44138e-10
0.00078409
-2.74251e-10
0.00078409
-3.0135e-10
0.00078409
-3.23612e-10
0.00078409
-3.38457e-10
0.00078409
-3.41884e-10
0.00078409
-3.28231e-10
0.00078409
-2.86843e-10
0.00078409
-2.02603e-10
0.00078409
-3.91939e-11
0.00078409
1.41024e-10
0.00078409
2.48448e-10
0.00078409
3.00207e-10
0.00078409
3.18429e-10
0.000784091
3.1439e-10
0.000784091
2.96218e-10
0.000784091
2.69384e-10
0.000784091
2.37478e-10
0.000784091
2.03083e-10
0.000784091
1.68115e-10
0.000784091
1.34057e-10
0.000784091
1.02006e-10
0.000784091
7.29323e-11
0.000784091
4.62557e-11
0.000784091
1.03036e-11
-7.91738e-11
0.000765992
-2.1436e-10
0.000765992
-2.66096e-10
0.000765992
-2.83283e-10
0.000765992
-2.91821e-10
0.000765992
-2.99363e-10
0.000765992
-3.07659e-10
0.000765992
-3.16707e-10
0.000765992
-3.26234e-10
0.000765992
-3.35959e-10
0.000765992
-3.45647e-10
0.000765992
-3.55128e-10
0.000765992
-3.64267e-10
0.000765992
-3.72966e-10
0.000765992
-3.81168e-10
0.000765992
-3.88858e-10
0.000765992
-3.96039e-10
0.000765991
-4.02714e-10
0.000765991
-4.08875e-10
0.000765991
-4.14485e-10
0.000765991
-4.1948e-10
0.000765991
-4.23773e-10
0.000765991
-4.2725e-10
0.000765991
-4.29786e-10
0.000765991
-4.31301e-10
0.000765991
-4.3178e-10
0.000765991
-4.31279e-10
0.000765991
-4.29904e-10
0.000765991
-4.27792e-10
0.000765991
-4.25081e-10
0.000765991
-4.21881e-10
0.00076599
-4.18252e-10
0.00076599
-4.14173e-10
0.00076599
-4.09528e-10
0.00076599
-4.04077e-10
0.00076599
-3.97428e-10
0.00076599
-3.88977e-10
0.00076599
-3.77823e-10
0.00076599
-3.62676e-10
0.00076599
-3.4169e-10
0.00076599
-3.12307e-10
0.00076599
-2.7074e-10
0.00076599
-2.11869e-10
0.00076599
-1.26826e-10
0.000765989
-5.51353e-12
0.000765989
1.73158e-10
0.000765989
3.67356e-10
0.000765989
5.11816e-10
0.000765989
6.08899e-10
0.000765989
6.72156e-10
0.000765989
7.10601e-10
0.000765989
7.31611e-10
0.000765989
7.40424e-10
0.000765989
7.40517e-10
0.000765989
7.34317e-10
0.000765989
7.23562e-10
0.000765989
7.09511e-10
0.000765989
6.93076e-10
0.000765989
6.7491e-10
0.000765989
6.55489e-10
0.000765989
6.35146e-10
0.000765989
6.14096e-10
0.000765989
5.9247e-10
0.000765989
5.70359e-10
0.000765989
5.47827e-10
0.000765989
5.24909e-10
0.000765989
5.01622e-10
0.000765989
4.77989e-10
0.000765989
4.5403e-10
0.000765989
4.29749e-10
0.000765989
4.05153e-10
0.000765989
3.8027e-10
0.000765989
3.55134e-10
0.000765989
3.29758e-10
0.000765989
3.04138e-10
0.000765989
2.78268e-10
0.000765989
2.52143e-10
0.000765989
2.25746e-10
0.000765989
1.99033e-10
0.00076599
1.71942e-10
0.00076599
1.44422e-10
0.00076599
1.16441e-10
0.00076599
8.79718e-11
0.00076599
5.89771e-11
0.00076599
2.94173e-11
0.00076599
-7.31734e-13
0.00076599
-3.14635e-11
0.00076599
-6.2744e-11
0.00076599
-9.45323e-11
0.00076599
-1.26777e-10
0.00076599
-1.59387e-10
0.00076599
-1.92202e-10
0.00076599
-2.24996e-10
0.000765991
-2.57444e-10
0.000765991
-2.89093e-10
0.000765991
-3.19305e-10
0.000765991
-3.47172e-10
0.000765991
-3.71413e-10
0.000765991
-3.90216e-10
0.000765991
-4.01054e-10
0.000765991
-4.00124e-10
0.000765991
-3.82213e-10
0.000765991
-3.3826e-10
0.000765991
-2.57886e-10
0.000765991
-1.19545e-10
0.000765991
3.52862e-11
0.000765991
1.41555e-10
0.000765992
2.02078e-10
0.000765992
2.30945e-10
0.000765992
2.3769e-10
0.000765992
2.30168e-10
0.000765992
2.1406e-10
0.000765992
1.93283e-10
0.000765992
1.70758e-10
0.000765992
1.48726e-10
0.000765992
1.29022e-10
0.000765992
1.13015e-10
0.000765992
1.0199e-10
0.000765992
9.43648e-11
0.000765992
6.74407e-11
-6.54198e-11
0.000748248
-2.54034e-10
0.000748248
-3.10921e-10
0.000748248
-3.17127e-10
0.000748248
-3.11563e-10
0.000748248
-3.0568e-10
0.000748248
-3.0205e-10
0.000748248
-3.00668e-10
0.000748248
-3.01104e-10
0.000748248
-3.02906e-10
0.000748248
-3.05689e-10
0.000748248
-3.09153e-10
0.000748248
-3.13056e-10
0.000748248
-3.17206e-10
0.000748248
-3.21474e-10
0.000748248
-3.2578e-10
0.000748248
-3.30069e-10
0.000748248
-3.34295e-10
0.000748248
-3.38396e-10
0.000748248
-3.4229e-10
0.000748248
-3.45864e-10
0.000748248
-3.48982e-10
0.000748248
-3.51471e-10
0.000748248
-3.53143e-10
0.000748247
-3.53873e-10
0.000748247
-3.53617e-10
0.000748247
-3.52423e-10
0.000748247
-3.50395e-10
0.000748247
-3.47672e-10
0.000748247
-3.44393e-10
0.000748247
-3.40671e-10
0.000748247
-3.36561e-10
0.000748247
-3.32033e-10
0.000748247
-3.26941e-10
0.000748247
-3.21015e-10
0.000748247
-3.13837e-10
0.000748246
-3.04779e-10
0.000748246
-2.92926e-10
0.000748246
-2.7699e-10
0.000748246
-2.5517e-10
0.000748246
-2.25028e-10
0.000748246
-1.8309e-10
0.000748246
-1.24876e-10
0.000748246
-4.32739e-11
0.000748246
6.82768e-11
0.000748246
2.21069e-10
0.000748246
3.87122e-10
0.000748246
5.20874e-10
0.000748246
6.17844e-10
0.000748246
6.84419e-10
0.000748246
7.26594e-10
0.000748246
7.50526e-10
0.000748246
7.61172e-10
0.000748246
7.62086e-10
0.000748246
7.55841e-10
0.000748246
7.44315e-10
0.000748246
7.28887e-10
0.000748246
7.1057e-10
0.000748246
6.90104e-10
0.000748246
6.68042e-10
0.000748245
6.4478e-10
0.000748245
6.20584e-10
0.000748245
5.95633e-10
0.000748245
5.70062e-10
0.000748245
5.43979e-10
0.000748245
5.17452e-10
0.000748246
4.90519e-10
0.000748246
4.63222e-10
0.000748246
4.35598e-10
0.000748246
4.07668e-10
0.000748246
3.79447e-10
0.000748246
3.50972e-10
0.000748246
3.22286e-10
0.000748246
2.93413e-10
0.000748246
2.64358e-10
0.000748246
2.35126e-10
0.000748246
2.05725e-10
0.000748246
1.76149e-10
0.000748246
1.46364e-10
0.000748246
1.1632e-10
0.000748246
8.59798e-11
0.000748246
5.53253e-11
0.000748246
2.43433e-11
0.000748246
-6.98798e-12
0.000748246
-3.86945e-11
0.000748246
-7.07855e-11
0.000748246
-1.03233e-10
0.000748247
-1.35978e-10
0.000748247
-1.68958e-10
0.000748247
-2.02098e-10
0.000748247
-2.35274e-10
0.000748247
-2.68296e-10
0.000748247
-3.00903e-10
0.000748247
-3.32742e-10
0.000748247
-3.6333e-10
0.000748247
-3.92002e-10
0.000748247
-4.17845e-10
0.000748247
-4.39594e-10
0.000748247
-4.55509e-10
0.000748247
-4.63203e-10
0.000748247
-4.59205e-10
0.000748247
-4.38942e-10
0.000748248
-3.95092e-10
0.000748248
-3.20784e-10
0.000748248
-2.04261e-10
0.000748248
-7.30625e-11
0.000748248
2.76325e-11
0.000748248
9.38883e-11
0.000748248
1.32718e-10
0.000748248
1.50742e-10
0.000748248
1.54706e-10
0.000748248
1.5014e-10
0.000748248
1.41193e-10
0.000748248
1.31112e-10
0.000748248
1.2248e-10
0.000748248
1.17494e-10
0.000748248
1.17802e-10
0.000748248
1.24989e-10
0.000748248
1.36577e-10
0.000748248
1.19396e-10
-5.46497e-11
0.000730858
-2.94004e-10
0.000730858
-3.55551e-10
0.000730858
-3.50331e-10
0.000730858
-3.30027e-10
0.000730858
-3.0998e-10
0.000730858
-2.93686e-10
0.000730858
-2.81198e-10
0.000730858
-2.71938e-10
0.000730858
-2.65282e-10
0.000730858
-2.60683e-10
0.000730858
-2.57703e-10
0.000730858
-2.55981e-10
0.000730858
-2.55236e-10
0.000730858
-2.55263e-10
0.000730858
-2.55915e-10
0.000730858
-2.57079e-10
0.000730858
-2.58659e-10
0.000730857
-2.60547e-10
0.000730857
-2.6261e-10
0.000730857
-2.64686e-10
0.000730857
-2.66583e-10
0.000730857
-2.68059e-10
0.000730857
-2.68854e-10
0.000730857
-2.68788e-10
0.000730857
-2.67788e-10
0.000730857
-2.65892e-10
0.000730857
-2.63212e-10
0.000730857
-2.59891e-10
0.000730857
-2.56078e-10
0.000730856
-2.51894e-10
0.000730856
-2.47402e-10
0.000730856
-2.42568e-10
0.000730856
-2.37233e-10
0.000730856
-2.31104e-10
0.000730856
-2.23749e-10
0.000730856
-2.14531e-10
0.000730856
-2.02542e-10
0.000730856
-1.86521e-10
0.000730856
-1.6475e-10
0.000730856
-1.34961e-10
0.000730855
-9.40523e-11
0.000730855
-3.82249e-11
0.000730855
3.80163e-11
0.000730855
1.38763e-10
0.000730855
2.6931e-10
0.000730855
4.10241e-10
0.000730855
5.30078e-10
0.000730855
6.22416e-10
0.000730855
6.89239e-10
0.000730855
7.33695e-10
0.000730855
7.60166e-10
0.000730855
7.72801e-10
0.000730855
7.74913e-10
0.000730855
7.69068e-10
0.000730855
7.57221e-10
0.000730855
7.4085e-10
0.000730855
7.21063e-10
0.000730855
6.9869e-10
0.000730855
6.74362e-10
0.000730855
6.48543e-10
0.000730855
6.21551e-10
0.000730855
5.9361e-10
0.000730855
5.64906e-10
0.000730855
5.35593e-10
0.000730855
5.05772e-10
0.000730855
4.75505e-10
0.000730855
4.44851e-10
0.000730855
4.13868e-10
0.000730855
3.82589e-10
0.000730855
3.51041e-10
0.000730855
3.19269e-10
0.000730855
2.87325e-10
0.000730855
2.55244e-10
0.000730855
2.23041e-10
0.000730855
1.90731e-10
0.000730855
1.58331e-10
0.000730855
1.25847e-10
0.000730856
9.32547e-11
0.000730856
6.05157e-11
0.000730856
2.76045e-11
0.000730856
-5.48373e-12
0.000730856
-3.8746e-11
0.000730856
-7.21882e-11
0.000730856
-1.05824e-10
0.000730856
-1.39647e-10
0.000730856
-1.73612e-10
0.000730856
-2.0764e-10
0.000730856
-2.41648e-10
0.000730856
-2.75539e-10
0.000730856
-3.09157e-10
0.000730856
-3.42285e-10
0.000730856
-3.74638e-10
0.000730857
-4.05842e-10
0.000730857
-4.35394e-10
0.000730857
-4.6262e-10
0.000730857
-4.86624e-10
0.000730857
-5.0619e-10
0.000730857
-5.19695e-10
0.000730857
-5.24955e-10
0.000730857
-5.18901e-10
0.000730857
-4.97655e-10
0.000730857
-4.55498e-10
0.000730857
-3.87993e-10
0.000730857
-2.8937e-10
0.000730857
-1.78531e-10
0.000730857
-8.64173e-11
0.000730858
-1.87814e-11
0.000730858
2.70899e-11
0.000730858
5.50725e-11
0.000730858
7.02487e-11
0.000730858
7.74652e-11
0.000730858
8.07767e-11
0.000730858
8.36052e-11
0.000730858
8.88089e-11
0.000730858
9.89195e-11
0.000730858
1.1585e-10
0.000730858
1.41484e-10
0.000730858
1.72592e-10
0.000730858
1.66332e-10
-4.62165e-11
0.000713818
-3.33398e-10
0.000713818
-3.98968e-10
0.000713818
-3.81973e-10
0.000713818
-3.46479e-10
0.000713818
-3.11694e-10
0.000713818
-2.82099e-10
0.000713818
-2.57876e-10
0.000713818
-2.3834e-10
0.000713818
-2.22707e-10
0.000713818
-2.10268e-10
0.000713818
-2.0044e-10
0.000713818
-1.92743e-10
0.000713818
-1.86799e-10
0.000713817
-1.82327e-10
0.000713817
-1.79109e-10
0.000713817
-1.7697e-10
0.000713817
-1.7577e-10
0.000713817
-1.75353e-10
0.000713817
-1.7554e-10
0.000713817
-1.76112e-10
0.000713817
-1.76816e-10
0.000713817
-1.7733e-10
0.000713817
-1.77307e-10
0.000713817
-1.76503e-10
0.000713816
-1.74808e-10
0.000713816
-1.7226e-10
0.000713816
-1.68981e-10
0.000713816
-1.6513e-10
0.000713816
-1.60873e-10
0.000713816
-1.56348e-10
0.000713816
-1.51637e-10
0.000713816
-1.46711e-10
0.000713816
-1.41405e-10
0.000713816
-1.35416e-10
0.000713816
-1.28306e-10
0.000713815
-1.19442e-10
0.000713815
-1.07931e-10
0.000713815
-9.25603e-11
0.000713815
-7.17139e-11
0.000713815
-4.33187e-11
0.000713815
-4.65287e-12
0.000713815
4.7437e-11
0.000713815
1.17088e-10
0.000713815
2.06718e-10
0.000713815
3.18158e-10
0.000713815
4.37318e-10
0.000713815
5.42138e-10
0.000713815
6.26385e-10
0.000713815
6.89944e-10
0.000713815
7.34077e-10
0.000713815
7.6153e-10
0.000713815
7.75398e-10
0.000713815
7.78463e-10
0.000713815
7.73069e-10
0.000713815
7.61113e-10
0.000713815
7.44095e-10
0.000713815
7.23178e-10
0.000713815
6.9926e-10
0.000713815
6.7304e-10
0.000713815
6.4504e-10
0.000713815
6.15623e-10
0.000713815
5.85063e-10
0.000713815
5.53592e-10
0.000713815
5.2141e-10
0.000713815
4.88652e-10
0.000713815
4.55403e-10
0.000713815
4.21742e-10
0.000713815
3.87746e-10
0.000713815
3.53462e-10
0.000713815
3.18925e-10
0.000713815
2.84188e-10
0.000713815
2.49316e-10
0.000713815
2.14356e-10
0.000713815
1.79331e-10
0.000713815
1.44262e-10
0.000713815
1.09177e-10
0.000713815
7.40905e-11
0.000713815
3.89884e-11
0.000713815
3.84317e-12
0.000713815
-3.13605e-11
0.000713815
-6.66133e-11
0.000713815
-1.01895e-10
0.000713815
-1.37196e-10
0.000713816
-1.72517e-10
0.000713816
-2.07841e-10
0.000713816
-2.43104e-10
0.000713816
-2.78213e-10
0.000713816
-3.13069e-10
0.000713816
-3.47548e-10
0.000713816
-3.81469e-10
0.000713816
-4.14586e-10
0.000713816
-4.46602e-10
0.000713816
-4.77126e-10
0.000713816
-5.05644e-10
0.000713816
-5.31487e-10
0.000713816
-5.53794e-10
0.000713816
-5.71424e-10
0.000713817
-5.82902e-10
0.000713817
-5.86285e-10
0.000713817
-5.78931e-10
0.000713817
-5.57633e-10
0.000713817
-5.18017e-10
0.000713817
-4.57288e-10
0.000713817
-3.73118e-10
0.000713817
-2.79026e-10
0.000713817
-1.96387e-10
0.000713817
-1.3066e-10
0.000713817
-8.11215e-11
0.000713817
-4.56703e-11
0.000713818
-2.07469e-11
0.000713818
-2.43176e-12
0.000713818
1.29402e-11
0.000713818
2.87436e-11
0.000713818
4.79735e-11
0.000713818
7.34174e-11
0.000713818
1.07206e-10
0.000713818
1.51513e-10
0.000713818
2.02519e-10
0.000713818
2.08643e-10
-3.94483e-11
0.000697124
-3.71134e-10
0.000697124
-4.39944e-10
0.000697124
-4.10794e-10
0.000697124
-3.59754e-10
0.000697124
-3.09819e-10
0.000697124
-2.66461e-10
0.000697124
-2.30025e-10
0.000697124
-1.99756e-10
0.000697124
-1.74725e-10
0.000697124
-1.54072e-10
0.000697124
-1.37072e-10
0.000697124
-1.23122e-10
0.000697124
-1.11751e-10
0.000697124
-1.02593e-10
0.000697124
-9.5356e-11
0.000697123
-8.98085e-11
0.000697123
-8.57651e-11
0.000697123
-8.30256e-11
0.000697123
-8.13623e-11
0.000697123
-8.04996e-11
0.000697123
-8.01178e-11
0.000697123
-7.97978e-11
0.000697123
-7.90865e-11
0.000697123
-7.76657e-11
0.000697123
-7.53856e-11
0.000697122
-7.22855e-11
0.000697122
-6.8511e-11
0.000697122
-6.4249e-11
0.000697122
-5.96929e-11
0.000697122
-5.50106e-11
0.000697122
-5.03074e-11
0.000697122
-4.55715e-11
0.000697122
-4.06389e-11
0.000697122
-3.52068e-11
0.000697122
-2.88357e-11
0.000697121
-2.09025e-11
0.000697121
-1.05367e-11
0.000697121
3.42112e-12
0.000697121
2.24765e-11
0.000697121
4.85052e-11
0.000697121
8.38688e-11
0.000697121
1.31153e-10
0.000697121
1.93418e-10
0.000697121
2.71963e-10
0.000697121
3.66722e-10
0.000697121
4.67068e-10
0.000697121
5.57118e-10
0.000697121
6.3139e-10
0.000697121
6.88954e-10
0.000697121
7.30101e-10
0.000697121
7.56436e-10
0.000697121
7.70108e-10
0.000697121
7.73266e-10
0.000697121
7.67881e-10
0.000697121
7.55663e-10
0.000697121
7.38035e-10
0.000697121
7.1615e-10
0.000697121
6.90931e-10
0.000697121
6.63116e-10
0.000697121
6.33262e-10
0.000697121
6.01772e-10
0.000697121
5.68957e-10
0.000697121
5.35095e-10
0.000697121
5.00421e-10
0.000697121
4.65102e-10
0.000697121
4.29249e-10
0.000697121
3.92958e-10
0.000697121
3.56324e-10
0.000697121
3.19407e-10
0.000697121
2.8225e-10
0.000697121
2.44914e-10
0.000697121
2.07475e-10
0.000697121
1.69994e-10
0.000697121
1.32504e-10
0.000697121
9.50288e-11
0.000697121
5.76013e-11
0.000697121
2.0246e-11
0.000697121
-1.70398e-11
0.000697121
-5.42755e-11
0.000697122
-9.1466e-11
0.000697122
-1.28587e-10
0.000697122
-1.65601e-10
0.000697122
-2.02485e-10
0.000697122
-2.39228e-10
0.000697122
-2.758e-10
0.000697122
-3.12124e-10
0.000697122
-3.48096e-10
0.000697122
-3.83601e-10
0.000697122
-4.18492e-10
0.000697122
-4.52558e-10
0.000697122
-4.85535e-10
0.000697122
-5.17114e-10
0.000697122
-5.46893e-10
0.000697122
-5.74356e-10
0.000697123
-5.98848e-10
0.000697123
-6.19559e-10
0.000697123
-6.35436e-10
0.000697123
-6.45179e-10
0.000697123
-6.47097e-10
0.000697123
-6.38981e-10
0.000697123
-6.18231e-10
0.000697123
-5.81535e-10
0.000697123
-5.27184e-10
0.000697123
-4.54729e-10
0.000697123
-3.74173e-10
0.000697123
-3.00559e-10
0.000697123
-2.38467e-10
0.000697124
-1.8787e-10
0.000697124
-1.47513e-10
0.000697124
-1.14861e-10
0.000697124
-8.68161e-11
0.000697124
-6.02032e-11
0.000697124
-3.18503e-11
0.000697124
1.23666e-12
0.000697124
4.19978e-11
0.000697124
9.27126e-11
0.000697124
1.55816e-10
0.000697124
2.27076e-10
0.000697124
2.47194e-10
-3.33479e-11
0.000680772
-4.05771e-10
0.000680772
-4.76989e-10
0.000680773
-4.35285e-10
0.000680773
-3.68403e-10
0.000680773
-3.03041e-10
0.000680772
-2.45639e-10
0.000680772
-1.9671e-10
0.000680772
-1.55433e-10
0.000680772
-1.20749e-10
0.000680772
-9.16534e-11
0.000680772
-6.72865e-11
0.000680772
-4.6928e-11
0.000680772
-3.00077e-11
0.000680772
-1.60764e-11
0.000680772
-4.76897e-12
0.000680772
4.20381e-12
0.000680772
1.10683e-11
0.000680772
1.60682e-11
0.000680771
1.94737e-11
0.000680771
2.16196e-11
0.000680771
2.29001e-11
0.000680771
2.38494e-11
0.000680771
2.50475e-11
0.000680771
2.68985e-11
0.000680771
2.95994e-11
0.000680771
3.30998e-11
0.000680771
3.72171e-11
0.000680771
4.17215e-11
0.00068077
4.63761e-11
0.00068077
5.0973e-11
0.00068077
5.53724e-11
0.00068077
5.9563e-11
0.00068077
6.36988e-11
0.00068077
6.80806e-11
0.00068077
7.31448e-11
0.00068077
7.95058e-11
0.00068077
8.80105e-11
0.00068077
9.97666e-11
0.000680769
1.16174e-10
0.000680769
1.38923e-10
0.000680769
1.70053e-10
0.000680769
2.11674e-10
0.000680769
2.66019e-10
0.000680769
3.33659e-10
0.000680769
4.13547e-10
0.000680769
4.97437e-10
0.000680769
5.73548e-10
0.000680769
6.3716e-10
0.000680769
6.87075e-10
0.000680769
7.23184e-10
0.000680769
7.4643e-10
0.000680769
7.58283e-10
0.000680769
7.60336e-10
0.000680769
7.5416e-10
0.000680769
7.41202e-10
0.000680769
7.22732e-10
0.000680769
6.9983e-10
0.000680769
6.73392e-10
0.000680769
6.44157e-10
0.000680769
6.12692e-10
0.000680769
5.79419e-10
0.000680769
5.44677e-10
0.000680769
5.08774e-10
0.000680769
4.71973e-10
0.000680769
4.34469e-10
0.000680769
3.96392e-10
0.000680769
3.57857e-10
0.000680769
3.18971e-10
0.000680769
2.79809e-10
0.000680769
2.4042e-10
0.000680769
2.00868e-10
0.00068077
1.61245e-10
0.00068077
1.21625e-10
0.00068077
8.20473e-11
0.00068077
4.25372e-11
0.00068077
3.13133e-12
0.00068077
-3.61365e-11
0.00068077
-7.52599e-11
0.00068077
-1.1425e-10
0.00068077
-1.531e-10
0.00068077
-1.91771e-10
0.00068077
-2.3021e-10
0.00068077
-2.68383e-10
0.00068077
-3.06268e-10
0.00068077
-3.43823e-10
0.00068077
-3.80959e-10
0.00068077
-4.17562e-10
0.00068077
-4.53503e-10
0.000680771
-4.88612e-10
0.000680771
-5.22655e-10
0.000680771
-5.55351e-10
0.000680771
-5.86379e-10
0.000680771
-6.15332e-10
0.000680771
-6.41696e-10
0.000680771
-6.64841e-10
0.000680771
-6.84016e-10
0.000680771
-6.98265e-10
0.000680771
-7.06478e-10
0.000680771
-7.07221e-10
0.000680771
-6.98704e-10
0.000680771
-6.78862e-10
0.000680771
-6.45187e-10
0.000680771
-5.96662e-10
0.000680772
-5.3381e-10
0.000680772
-4.64207e-10
0.000680772
-3.98617e-10
0.000680772
-3.40715e-10
0.000680772
-2.9061e-10
0.000680772
-2.47318e-10
0.000680772
-2.0884e-10
0.000680772
-1.72628e-10
0.000680772
-1.35926e-10
0.000680772
-9.57992e-11
0.000680772
-4.93364e-11
0.000680772
6.47044e-12
0.000680772
7.39794e-11
0.000680772
1.55861e-10
0.000680772
2.4764e-10
0.000680772
2.83406e-10
-2.64594e-11
0.000664758
-4.35491e-10
0.000664759
-5.08331e-10
0.000664759
-4.5373e-10
0.000664759
-3.70797e-10
0.000664759
-2.89872e-10
0.000664758
-2.18329e-10
0.000664758
-1.56831e-10
0.000664758
-1.04486e-10
0.000664758
-6.00956e-11
0.000664758
-2.25178e-11
0.000664758
9.2379e-12
0.000664758
3.60063e-11
0.000664758
5.84556e-11
0.000664758
7.71199e-11
0.000664758
9.24337e-11
0.000664758
1.04741e-10
0.000664758
1.14305e-10
0.000664758
1.21409e-10
0.000664757
1.2636e-10
0.000664757
1.29551e-10
0.000664757
1.31458e-10
0.000664757
1.32753e-10
0.000664757
1.34165e-10
0.000664757
1.36197e-10
0.000664757
1.391e-10
0.000664757
1.42802e-10
0.000664757
1.47063e-10
0.000664756
1.5159e-10
0.000664756
1.56085e-10
0.000664756
1.60287e-10
0.000664756
1.64012e-10
0.000664756
1.6722e-10
0.000664756
1.70052e-10
0.000664756
1.72806e-10
0.000664756
1.75919e-10
0.000664756
1.80002e-10
0.000664755
1.85884e-10
0.000664755
1.94631e-10
0.000664755
2.07547e-10
0.000664755
2.26162e-10
0.000664755
2.52236e-10
0.000664755
2.87496e-10
0.000664755
3.33557e-10
0.000664755
3.90528e-10
0.000664755
4.56901e-10
0.000664755
5.26149e-10
0.000664755
5.89299e-10
0.000664755
6.42263e-10
0.000664755
6.83771e-10
0.000664755
7.13564e-10
0.000664755
7.32248e-10
0.000664755
7.40872e-10
0.000664755
7.40628e-10
0.000664755
7.3274e-10
0.000664755
7.18391e-10
0.000664755
6.98668e-10
0.000664755
6.74531e-10
0.000664755
6.46812e-10
0.000664755
6.1621e-10
0.000664755
5.8328e-10
0.000664755
5.48442e-10
0.000664755
5.12044e-10
0.000664755
4.74408e-10
0.000664755
4.35816e-10
0.000664755
3.96481e-10
0.000664755
3.5655e-10
0.000664755
3.16148e-10
0.000664755
2.75394e-10
0.000664755
2.34375e-10
0.000664755
1.93145e-10
0.000664756
1.51772e-10
0.000664756
1.10356e-10
0.000664756
6.8986e-11
0.000664756
2.77066e-11
0.000664756
-1.34576e-11
0.000664756
-5.44667e-11
0.000664756
-9.52798e-11
0.000664756
-1.35882e-10
0.000664756
-1.76276e-10
0.000664756
-2.16445e-10
0.000664756
-2.56335e-10
0.000664756
-2.95881e-10
0.000664756
-3.35037e-10
0.000664756
-3.73775e-10
0.000664756
-4.12041e-10
0.000664756
-4.49734e-10
0.000664756
-4.86728e-10
0.000664757
-5.22883e-10
0.000664757
-5.58009e-10
0.000664757
-5.91852e-10
0.000664757
-6.24116e-10
0.000664757
-6.5447e-10
0.000664757
-6.82502e-10
0.000664757
-7.07708e-10
0.000664757
-7.29483e-10
0.000664757
-7.47146e-10
0.000664757
-7.59839e-10
0.000664757
-7.66653e-10
0.000664757
-7.66407e-10
0.000664757
-7.57717e-10
0.000664757
-7.38976e-10
0.000664757
-7.08261e-10
0.000664758
-6.64972e-10
0.000664758
-6.101e-10
0.000664758
-5.49462e-10
0.000664758
-4.908e-10
0.000664758
-4.36987e-10
0.000664758
-3.88061e-10
0.000664758
-3.43044e-10
0.000664758
-3.00151e-10
0.000664758
-2.57122e-10
0.000664758
-2.11466e-10
0.000664758
-1.60441e-10
0.000664758
-1.01233e-10
0.000664758
-3.08125e-11
0.000664759
5.32065e-11
0.000664759
1.53709e-10
0.000664758
2.66154e-10
0.000664758
3.19199e-10
-1.68895e-11
0.000649077
-4.5819e-10
0.000649077
-5.31979e-10
0.000649077
-4.64269e-10
0.000649077
-3.65225e-10
0.000649077
-2.68771e-10
0.000649077
-1.83189e-10
0.000649077
-1.09266e-10
0.000649077
-4.60136e-11
0.000649077
7.91435e-12
0.000649077
5.38045e-11
0.000649077
9.27755e-11
0.000649077
1.25776e-10
0.000649077
1.53572e-10
0.000649076
1.76781e-10
0.000649076
1.95902e-10
0.000649076
2.1133e-10
0.000649076
2.23363e-10
0.000649076
2.32317e-10
0.000649076
2.38521e-10
0.000649076
2.4243e-10
0.000649076
2.44607e-10
0.000649076
2.45883e-10
0.000649075
2.47167e-10
0.000649075
2.49071e-10
0.000649075
2.51908e-10
0.000649075
2.55568e-10
0.000649075
2.59727e-10
0.000649075
2.64005e-10
0.000649075
2.68021e-10
0.000649075
2.71444e-10
0.000649075
2.74041e-10
0.000649074
2.75738e-10
0.000649074
2.76665e-10
0.000649074
2.77126e-10
0.000649074
2.77565e-10
0.000649074
2.78603e-10
0.000649074
2.81064e-10
0.000649074
2.85984e-10
0.000649074
2.94593e-10
0.000649074
3.0828e-10
0.000649074
3.28583e-10
0.000649074
3.56919e-10
0.000649073
3.9446e-10
0.000649073
4.41021e-10
0.000649073
4.94935e-10
0.000649073
5.50952e-10
0.000649073
6.02085e-10
0.000649073
6.44769e-10
0.000649073
6.77707e-10
0.000649073
7.00579e-10
0.000649073
7.13814e-10
0.000649073
7.18219e-10
0.000649073
7.14729e-10
0.000649073
7.04315e-10
0.000649074
6.87934e-10
0.000649074
6.66496e-10
0.000649074
6.40834e-10
0.000649074
6.11685e-10
0.000649074
5.7969e-10
0.000649074
5.45367e-10
0.000649074
5.09116e-10
0.000649074
4.71277e-10
0.000649074
4.32171e-10
0.000649074
3.92087e-10
0.000649074
3.51249e-10
0.000649074
3.09811e-10
0.000649074
2.67901e-10
0.000649074
2.25648e-10
0.000649074
1.8315e-10
0.000649074
1.40465e-10
0.000649074
9.76595e-11
0.000649074
5.48408e-11
0.000649074
1.21088e-11
0.000649074
-3.04889e-11
0.000649074
-7.29276e-11
0.000649074
-1.15165e-10
0.000649075
-1.57155e-10
0.000649075
-1.98874e-10
0.000649075
-2.40318e-10
0.000649075
-2.81459e-10
0.000649075
-3.22234e-10
0.000649075
-3.62565e-10
0.000649075
-4.02399e-10
0.000649075
-4.417e-10
0.000649075
-4.80403e-10
0.000649075
-5.18395e-10
0.000649075
-5.55539e-10
0.000649075
-5.91683e-10
0.000649075
-6.26622e-10
0.000649075
-6.60085e-10
0.000649075
-6.91762e-10
0.000649076
-7.21316e-10
0.000649076
-7.48328e-10
0.000649076
-7.72303e-10
0.000649076
-7.92667e-10
0.000649076
-8.0881e-10
0.000649076
-8.19973e-10
0.000649076
-8.25459e-10
0.000649076
-8.24325e-10
0.000649076
-8.15585e-10
0.000649076
-7.98031e-10
0.000649076
-7.70128e-10
0.000649076
-7.31505e-10
0.000649076
-6.83352e-10
0.000649076
-6.30172e-10
0.000649076
-5.77445e-10
0.000649077
-5.27323e-10
0.000649077
-4.79699e-10
0.000649077
-4.33515e-10
0.000649077
-3.8703e-10
0.000649077
-3.38095e-10
0.000649077
-2.8435e-10
0.000649077
-2.23164e-10
0.000649077
-1.51803e-10
0.000649077
-6.72279e-11
0.000649077
3.29514e-11
0.000649077
1.51824e-10
0.000649077
2.84966e-10
0.000649077
3.56848e-10
-2.42656e-12
0.000633723
-4.71628e-10
0.000633723
-5.45855e-10
0.000633723
-4.65016e-10
0.000633723
-3.50007e-10
0.000633723
-2.38276e-10
0.000633723
-1.38982e-10
0.000633723
-5.30058e-11
0.000633723
2.07625e-11
0.000633723
8.38347e-11
0.000633723
1.3765e-10
0.000633723
1.83459e-10
0.000633723
2.22326e-10
0.000633723
2.55114e-10
0.000633722
2.82521e-10
0.000633722
3.05108e-10
0.000633722
3.23317e-10
0.000633722
3.37474e-10
0.000633722
3.47919e-10
0.000633722
3.54994e-10
0.000633722
3.59207e-10
0.000633722
3.61212e-10
0.000633722
3.62029e-10
0.000633721
3.62776e-10
0.000633721
3.64187e-10
0.000633721
3.66649e-10
0.000633721
3.69985e-10
0.000633721
3.73756e-10
0.000633721
3.77459e-10
0.000633721
3.80602e-10
0.000633721
3.82776e-10
0.00063372
3.83692e-10
0.00063372
3.83248e-10
0.00063372
3.81572e-10
0.00063372
3.78982e-10
0.00063372
3.75951e-10
0.00063372
3.73124e-10
0.00063372
3.71343e-10
0.00063372
3.71629e-10
0.00063372
3.75158e-10
0.00063372
3.83209e-10
0.00063372
3.97136e-10
0.00063372
4.18124e-10
0.000633719
4.47018e-10
0.000633719
4.83467e-10
0.000633719
5.25794e-10
0.000633719
5.6973e-10
0.000633719
6.09734e-10
0.000633719
6.42674e-10
0.000633719
6.67249e-10
0.000633719
6.83085e-10
0.000633719
6.90501e-10
0.000633719
6.90158e-10
0.000633719
6.82832e-10
0.00063372
6.69322e-10
0.00063372
6.50417e-10
0.00063372
6.26884e-10
0.00063372
5.99431e-10
0.00063372
5.68698e-10
0.00063372
5.35257e-10
0.00063372
4.9958e-10
0.00063372
4.62035e-10
0.00063372
4.22931e-10
0.00063372
3.82581e-10
0.00063372
3.41273e-10
0.00063372
2.99232e-10
0.00063372
2.56609e-10
0.00063372
2.13529e-10
0.00063372
1.70128e-10
0.00063372
1.26514e-10
0.00063372
8.27437e-11
0.00063372
3.88816e-11
0.00063372
-4.96135e-12
0.00063372
-4.86795e-11
0.000633721
-9.22239e-11
0.000633721
-1.35569e-10
0.000633721
-1.7867e-10
0.000633721
-2.21473e-10
0.000633721
-2.63952e-10
0.000633721
-3.06094e-10
0.000633721
-3.47869e-10
0.000633721
-3.89202e-10
0.000633721
-4.30004e-10
0.000633721
-4.70214e-10
0.000633721
-5.09794e-10
0.000633721
-5.48666e-10
0.000633721
-5.86706e-10
0.000633721
-6.23764e-10
0.000633721
-6.59677e-10
0.000633722
-6.94228e-10
0.000633722
-7.27135e-10
0.000633722
-7.58077e-10
0.000633722
-7.86705e-10
0.000633722
-8.12595e-10
0.000633722
-8.35263e-10
0.000633722
-8.54159e-10
0.000633722
-8.68749e-10
0.000633722
-8.78371e-10
0.000633722
-8.82546e-10
0.000633722
-8.80557e-10
0.000633722
-8.7182e-10
0.000633722
-8.55468e-10
0.000633722
-8.30193e-10
0.000633722
-7.95707e-10
0.000633722
-7.5328e-10
0.000633723
-7.06416e-10
0.000633723
-6.5878e-10
0.000633723
-6.11844e-10
0.000633723
-5.65318e-10
0.000633723
-5.18037e-10
0.000633723
-4.68247e-10
0.000633723
-4.13821e-10
0.000633723
-3.52447e-10
0.000633723
-2.81549e-10
0.000633723
-1.9844e-10
0.000633723
-1.00077e-10
0.000633723
1.5931e-11
0.000633723
1.52875e-10
0.000633723
3.06641e-10
0.000633723
3.9881e-10
1.92908e-11
0.000618691
-4.73616e-10
0.000618691
-5.47964e-10
0.000618691
-4.54214e-10
0.000618691
-3.23642e-10
0.000618691
-1.97143e-10
0.000618691
-8.47129e-11
0.000618691
1.27043e-11
0.000618691
9.6365e-11
0.000618691
1.67964e-10
0.000618691
2.29105e-10
0.000618691