/*--------------------------------*- C++ -*----------------------------------*\
  =========                 |
  \\      /  F ield         | OpenFOAM: The Open Source CFD Toolbox
   \\    /   O peration     | Website:  https://openfoam.org
    \\  /    A nd           | Version:  7
     \\/     M anipulation  |
\*---------------------------------------------------------------------------*/
FoamFile
{
    version     2.0;
    format      ascii;
    class       volScalarField;
    location    "4000";
    object      k;
}
// * * * * * * * * * * * * * * * * * * * * * * * * * * * * * * * * * * * * * //

dimensions      [0 2 -2 0 0 0 0];

internalField   nonuniform List<scalar> 
24000
(
8.11995e-09
8.12015e-09
8.12017e-09
8.12005e-09
8.11986e-09
8.11966e-09
8.11946e-09
8.11928e-09
8.11913e-09
8.11901e-09
8.11891e-09
8.11884e-09
8.11879e-09
8.11875e-09
8.11873e-09
8.11873e-09
8.11873e-09
8.11874e-09
8.11877e-09
8.1188e-09
8.11883e-09
8.11887e-09
8.11892e-09
8.11897e-09
8.11902e-09
8.11908e-09
8.11913e-09
8.11918e-09
8.11924e-09
8.11929e-09
8.11935e-09
8.1194e-09
8.11946e-09
8.11951e-09
8.11956e-09
8.11961e-09
8.11966e-09
8.11971e-09
8.11975e-09
8.1198e-09
8.11984e-09
8.11988e-09
8.11992e-09
8.11995e-09
8.11998e-09
8.12001e-09
8.12003e-09
8.12005e-09
8.12006e-09
8.12008e-09
8.1201e-09
8.12012e-09
8.12014e-09
8.12015e-09
8.12017e-09
8.12018e-09
8.12018e-09
8.12018e-09
8.12017e-09
8.12014e-09
8.12012e-09
8.12008e-09
8.12003e-09
8.11998e-09
8.11993e-09
8.11987e-09
8.11981e-09
8.11976e-09
8.1197e-09
8.11964e-09
8.11959e-09
8.11954e-09
8.11949e-09
8.11945e-09
8.11941e-09
8.11937e-09
8.11934e-09
8.11931e-09
8.11928e-09
8.11926e-09
8.11924e-09
8.11922e-09
8.1192e-09
8.11918e-09
8.11917e-09
8.11916e-09
8.11915e-09
8.11914e-09
8.11913e-09
8.11912e-09
8.11912e-09
8.11911e-09
8.1191e-09
8.1191e-09
8.1191e-09
8.1191e-09
8.1191e-09
8.11911e-09
8.11912e-09
8.11913e-09
8.11916e-09
8.11918e-09
8.11921e-09
8.11925e-09
8.11928e-09
8.11931e-09
8.11935e-09
8.11938e-09
8.11942e-09
8.11945e-09
8.11949e-09
8.11953e-09
8.11957e-09
8.11961e-09
8.11964e-09
8.11967e-09
8.11969e-09
8.11972e-09
8.11973e-09
8.11969e-09
2.61137e-07
2.61143e-07
2.61144e-07
2.6114e-07
2.61134e-07
2.61127e-07
2.61121e-07
2.61115e-07
2.6111e-07
2.61106e-07
2.61103e-07
2.61101e-07
2.61099e-07
2.61098e-07
2.61097e-07
2.61097e-07
2.61097e-07
2.61098e-07
2.61099e-07
2.61099e-07
2.61101e-07
2.61102e-07
2.61103e-07
2.61105e-07
2.61107e-07
2.61108e-07
2.6111e-07
2.61112e-07
2.61114e-07
2.61115e-07
2.61117e-07
2.61119e-07
2.61121e-07
2.61122e-07
2.61124e-07
2.61126e-07
2.61127e-07
2.61129e-07
2.6113e-07
2.61132e-07
2.61133e-07
2.61134e-07
2.61135e-07
2.61137e-07
2.61138e-07
2.61138e-07
2.61139e-07
2.6114e-07
2.6114e-07
2.61141e-07
2.61141e-07
2.61142e-07
2.61143e-07
2.61143e-07
2.61144e-07
2.61144e-07
2.61144e-07
2.61144e-07
2.61143e-07
2.61143e-07
2.61142e-07
2.61141e-07
2.61139e-07
2.61138e-07
2.61136e-07
2.61134e-07
2.61132e-07
2.6113e-07
2.61128e-07
2.61127e-07
2.61125e-07
2.61123e-07
2.61122e-07
2.6112e-07
2.61119e-07
2.61118e-07
2.61117e-07
2.61116e-07
2.61115e-07
2.61114e-07
2.61114e-07
2.61113e-07
2.61112e-07
2.61112e-07
2.61111e-07
2.61111e-07
2.61111e-07
2.61111e-07
2.6111e-07
2.6111e-07
2.6111e-07
2.6111e-07
2.61109e-07
2.61109e-07
2.61109e-07
2.61109e-07
2.61109e-07
2.61109e-07
2.6111e-07
2.6111e-07
2.61111e-07
2.61112e-07
2.61113e-07
2.61114e-07
2.61115e-07
2.61116e-07
2.61117e-07
2.61118e-07
2.61119e-07
2.61121e-07
2.61122e-07
2.61123e-07
2.61124e-07
2.61126e-07
2.61127e-07
2.61128e-07
2.61128e-07
2.61129e-07
2.6113e-07
2.61128e-07
1.89552e-06
1.89556e-06
1.89557e-06
1.89554e-06
1.8955e-06
1.89545e-06
1.8954e-06
1.89536e-06
1.89533e-06
1.8953e-06
1.89527e-06
1.89526e-06
1.89525e-06
1.89524e-06
1.89523e-06
1.89523e-06
1.89523e-06
1.89524e-06
1.89524e-06
1.89525e-06
1.89526e-06
1.89527e-06
1.89528e-06
1.89529e-06
1.8953e-06
1.89531e-06
1.89533e-06
1.89534e-06
1.89535e-06
1.89536e-06
1.89538e-06
1.89539e-06
1.8954e-06
1.89541e-06
1.89543e-06
1.89544e-06
1.89545e-06
1.89546e-06
1.89547e-06
1.89548e-06
1.89549e-06
1.8955e-06
1.89551e-06
1.89552e-06
1.89552e-06
1.89553e-06
1.89554e-06
1.89554e-06
1.89554e-06
1.89555e-06
1.89555e-06
1.89556e-06
1.89556e-06
1.89556e-06
1.89557e-06
1.89557e-06
1.89557e-06
1.89557e-06
1.89557e-06
1.89556e-06
1.89556e-06
1.89555e-06
1.89554e-06
1.89552e-06
1.89551e-06
1.8955e-06
1.89549e-06
1.89547e-06
1.89546e-06
1.89545e-06
1.89543e-06
1.89542e-06
1.89541e-06
1.8954e-06
1.89539e-06
1.89538e-06
1.89537e-06
1.89537e-06
1.89536e-06
1.89536e-06
1.89535e-06
1.89535e-06
1.89534e-06
1.89534e-06
1.89534e-06
1.89533e-06
1.89533e-06
1.89533e-06
1.89533e-06
1.89532e-06
1.89532e-06
1.89532e-06
1.89532e-06
1.89532e-06
1.89532e-06
1.89532e-06
1.89532e-06
1.89532e-06
1.89532e-06
1.89533e-06
1.89533e-06
1.89534e-06
1.89535e-06
1.89535e-06
1.89536e-06
1.89537e-06
1.89538e-06
1.89538e-06
1.89539e-06
1.8954e-06
1.89541e-06
1.89542e-06
1.89543e-06
1.89544e-06
1.89545e-06
1.89545e-06
1.89546e-06
1.89546e-06
1.89547e-06
1.89546e-06
6.99248e-06
6.99265e-06
6.99265e-06
6.99255e-06
6.99238e-06
6.99221e-06
6.99204e-06
6.99189e-06
6.99176e-06
6.99166e-06
6.99158e-06
6.99151e-06
6.99147e-06
6.99144e-06
6.99143e-06
6.99142e-06
6.99143e-06
6.99144e-06
6.99146e-06
6.99149e-06
6.99152e-06
6.99155e-06
6.99159e-06
6.99163e-06
6.99168e-06
6.99172e-06
6.99177e-06
6.99182e-06
6.99186e-06
6.99191e-06
6.99196e-06
6.992e-06
6.99205e-06
6.99209e-06
6.99214e-06
6.99218e-06
6.99222e-06
6.99226e-06
6.9923e-06
6.99234e-06
6.99237e-06
6.99241e-06
6.99244e-06
6.99247e-06
6.99249e-06
6.99252e-06
6.99253e-06
6.99255e-06
6.99256e-06
6.99258e-06
6.9926e-06
6.99261e-06
6.99263e-06
6.99264e-06
6.99265e-06
6.99266e-06
6.99266e-06
6.99266e-06
6.99265e-06
6.99263e-06
6.99261e-06
6.99257e-06
6.99253e-06
6.99249e-06
6.99245e-06
6.9924e-06
6.99235e-06
6.9923e-06
6.99225e-06
6.9922e-06
6.99216e-06
6.99212e-06
6.99208e-06
6.99204e-06
6.992e-06
6.99197e-06
6.99194e-06
6.99192e-06
6.99189e-06
6.99187e-06
6.99186e-06
6.99184e-06
6.99183e-06
6.99181e-06
6.9918e-06
6.99179e-06
6.99178e-06
6.99178e-06
6.99177e-06
6.99176e-06
6.99176e-06
6.99175e-06
6.99174e-06
6.99174e-06
6.99174e-06
6.99174e-06
6.99174e-06
6.99175e-06
6.99176e-06
6.99177e-06
6.99179e-06
6.99181e-06
6.99184e-06
6.99187e-06
6.9919e-06
6.99193e-06
6.99195e-06
6.99198e-06
6.99201e-06
6.99205e-06
6.99208e-06
6.99211e-06
6.99215e-06
6.99218e-06
6.99221e-06
6.99223e-06
6.99225e-06
6.99227e-06
6.99228e-06
6.99225e-06
1.77324e-05
1.77328e-05
1.77328e-05
1.77325e-05
1.77321e-05
1.77317e-05
1.77312e-05
1.77309e-05
1.77306e-05
1.77303e-05
1.77301e-05
1.773e-05
1.77299e-05
1.77298e-05
1.77298e-05
1.77297e-05
1.77298e-05
1.77298e-05
1.77298e-05
1.77299e-05
1.773e-05
1.77301e-05
1.77302e-05
1.77303e-05
1.77304e-05
1.77305e-05
1.77306e-05
1.77307e-05
1.77308e-05
1.7731e-05
1.77311e-05
1.77312e-05
1.77313e-05
1.77314e-05
1.77315e-05
1.77316e-05
1.77317e-05
1.77318e-05
1.77319e-05
1.7732e-05
1.77321e-05
1.77322e-05
1.77323e-05
1.77323e-05
1.77324e-05
1.77324e-05
1.77325e-05
1.77325e-05
1.77326e-05
1.77326e-05
1.77326e-05
1.77327e-05
1.77327e-05
1.77328e-05
1.77328e-05
1.77328e-05
1.77328e-05
1.77328e-05
1.77328e-05
1.77327e-05
1.77327e-05
1.77326e-05
1.77325e-05
1.77324e-05
1.77323e-05
1.77321e-05
1.7732e-05
1.77319e-05
1.77318e-05
1.77317e-05
1.77315e-05
1.77314e-05
1.77313e-05
1.77312e-05
1.77312e-05
1.77311e-05
1.7731e-05
1.7731e-05
1.77309e-05
1.77308e-05
1.77308e-05
1.77308e-05
1.77307e-05
1.77307e-05
1.77307e-05
1.77306e-05
1.77306e-05
1.77306e-05
1.77306e-05
1.77306e-05
1.77306e-05
1.77305e-05
1.77305e-05
1.77305e-05
1.77305e-05
1.77305e-05
1.77305e-05
1.77305e-05
1.77306e-05
1.77306e-05
1.77306e-05
1.77307e-05
1.77308e-05
1.77308e-05
1.77309e-05
1.7731e-05
1.77311e-05
1.77311e-05
1.77312e-05
1.77313e-05
1.77314e-05
1.77315e-05
1.77315e-05
1.77316e-05
1.77317e-05
1.77317e-05
1.77318e-05
1.77318e-05
1.77319e-05
1.77318e-05
3.4708e-05
3.47087e-05
3.47086e-05
3.4708e-05
3.47073e-05
3.47065e-05
3.47057e-05
3.4705e-05
3.47045e-05
3.4704e-05
3.47036e-05
3.47034e-05
3.47032e-05
3.47031e-05
3.4703e-05
3.4703e-05
3.47031e-05
3.47031e-05
3.47032e-05
3.47034e-05
3.47035e-05
3.47037e-05
3.47039e-05
3.47041e-05
3.47043e-05
3.47045e-05
3.47047e-05
3.47049e-05
3.47051e-05
3.47053e-05
3.47055e-05
3.47057e-05
3.47059e-05
3.47061e-05
3.47063e-05
3.47065e-05
3.47067e-05
3.47069e-05
3.47071e-05
3.47072e-05
3.47074e-05
3.47075e-05
3.47077e-05
3.47078e-05
3.47079e-05
3.4708e-05
3.47081e-05
3.47082e-05
3.47083e-05
3.47083e-05
3.47084e-05
3.47085e-05
3.47085e-05
3.47086e-05
3.47087e-05
3.47087e-05
3.47087e-05
3.47087e-05
3.47086e-05
3.47085e-05
3.47084e-05
3.47082e-05
3.4708e-05
3.47078e-05
3.47076e-05
3.47074e-05
3.47072e-05
3.4707e-05
3.47067e-05
3.47065e-05
3.47063e-05
3.47061e-05
3.47059e-05
3.47058e-05
3.47056e-05
3.47055e-05
3.47054e-05
3.47052e-05
3.47051e-05
3.4705e-05
3.4705e-05
3.47049e-05
3.47048e-05
3.47048e-05
3.47047e-05
3.47047e-05
3.47046e-05
3.47046e-05
3.47046e-05
3.47045e-05
3.47045e-05
3.47045e-05
3.47045e-05
3.47045e-05
3.47044e-05
3.47044e-05
3.47045e-05
3.47045e-05
3.47045e-05
3.47046e-05
3.47047e-05
3.47048e-05
3.47049e-05
3.47051e-05
3.47052e-05
3.47053e-05
3.47055e-05
3.47056e-05
3.47058e-05
3.47059e-05
3.47061e-05
3.47062e-05
3.47064e-05
3.47065e-05
3.47066e-05
3.47067e-05
3.47068e-05
3.47069e-05
3.4707e-05
3.47068e-05
5.57315e-05
5.57326e-05
5.57324e-05
5.57315e-05
5.57303e-05
5.57291e-05
5.5728e-05
5.57271e-05
5.57262e-05
5.57256e-05
5.57251e-05
5.57247e-05
5.57245e-05
5.57243e-05
5.57243e-05
5.57243e-05
5.57243e-05
5.57245e-05
5.57246e-05
5.57248e-05
5.5725e-05
5.57253e-05
5.57256e-05
5.57259e-05
5.57262e-05
5.57265e-05
5.57268e-05
5.57271e-05
5.57274e-05
5.57277e-05
5.5728e-05
5.57284e-05
5.57287e-05
5.57289e-05
5.57292e-05
5.57295e-05
5.57298e-05
5.573e-05
5.57303e-05
5.57305e-05
5.57308e-05
5.5731e-05
5.57312e-05
5.57314e-05
5.57315e-05
5.57317e-05
5.57318e-05
5.57319e-05
5.5732e-05
5.57321e-05
5.57323e-05
5.57324e-05
5.57325e-05
5.57325e-05
5.57326e-05
5.57326e-05
5.57326e-05
5.57326e-05
5.57325e-05
5.57323e-05
5.57321e-05
5.57319e-05
5.57316e-05
5.57313e-05
5.5731e-05
5.57306e-05
5.57303e-05
5.573e-05
5.57297e-05
5.57293e-05
5.5729e-05
5.57288e-05
5.57285e-05
5.57282e-05
5.5728e-05
5.57278e-05
5.57276e-05
5.57275e-05
5.57273e-05
5.57272e-05
5.57271e-05
5.5727e-05
5.57269e-05
5.57268e-05
5.57267e-05
5.57267e-05
5.57266e-05
5.57266e-05
5.57265e-05
5.57265e-05
5.57264e-05
5.57264e-05
5.57263e-05
5.57263e-05
5.57263e-05
5.57263e-05
5.57263e-05
5.57264e-05
5.57265e-05
5.57266e-05
5.57267e-05
5.57269e-05
5.57271e-05
5.57273e-05
5.57275e-05
5.57277e-05
5.57279e-05
5.57281e-05
5.57283e-05
5.57286e-05
5.57288e-05
5.5729e-05
5.57292e-05
5.57294e-05
5.57296e-05
5.57298e-05
5.57299e-05
5.573e-05
5.57301e-05
5.57298e-05
7.72914e-05
7.72926e-05
7.72924e-05
7.72912e-05
7.72898e-05
7.72883e-05
7.72869e-05
7.72857e-05
7.72847e-05
7.72839e-05
7.72833e-05
7.72828e-05
7.72825e-05
7.72824e-05
7.72823e-05
7.72824e-05
7.72825e-05
7.72827e-05
7.72829e-05
7.72832e-05
7.72835e-05
7.72838e-05
7.72842e-05
7.72845e-05
7.72849e-05
7.72853e-05
7.72857e-05
7.72861e-05
7.72865e-05
7.72869e-05
7.72873e-05
7.72877e-05
7.72881e-05
7.72885e-05
7.72888e-05
7.72892e-05
7.72895e-05
7.72898e-05
7.72901e-05
7.72904e-05
7.72907e-05
7.7291e-05
7.72913e-05
7.72915e-05
7.72917e-05
7.72919e-05
7.72921e-05
7.72922e-05
7.72923e-05
7.72925e-05
7.72926e-05
7.72928e-05
7.72929e-05
7.7293e-05
7.7293e-05
7.72931e-05
7.72931e-05
7.7293e-05
7.72928e-05
7.72926e-05
7.72923e-05
7.7292e-05
7.72916e-05
7.72912e-05
7.72908e-05
7.72904e-05
7.72899e-05
7.72895e-05
7.72891e-05
7.72887e-05
7.72883e-05
7.7288e-05
7.72876e-05
7.72873e-05
7.7287e-05
7.72868e-05
7.72865e-05
7.72863e-05
7.72861e-05
7.7286e-05
7.72858e-05
7.72857e-05
7.72856e-05
7.72855e-05
7.72854e-05
7.72854e-05
7.72853e-05
7.72852e-05
7.72852e-05
7.72851e-05
7.72851e-05
7.7285e-05
7.7285e-05
7.72849e-05
7.72849e-05
7.72849e-05
7.7285e-05
7.7285e-05
7.72851e-05
7.72853e-05
7.72855e-05
7.72857e-05
7.72859e-05
7.72862e-05
7.72865e-05
7.72868e-05
7.72871e-05
7.72874e-05
7.72876e-05
7.72879e-05
7.72882e-05
7.72885e-05
7.72888e-05
7.7289e-05
7.72892e-05
7.72894e-05
7.72896e-05
7.72897e-05
7.72899e-05
7.72895e-05
9.68638e-05
9.6865e-05
9.68647e-05
9.68635e-05
9.68618e-05
9.68601e-05
9.68586e-05
9.68572e-05
9.68561e-05
9.68552e-05
9.68546e-05
9.68541e-05
9.68538e-05
9.68536e-05
9.68536e-05
9.68537e-05
9.68539e-05
9.68541e-05
9.68544e-05
9.68547e-05
9.68551e-05
9.68555e-05
9.68559e-05
9.68564e-05
9.68568e-05
9.68573e-05
9.68578e-05
9.68583e-05
9.68587e-05
9.68592e-05
9.68597e-05
9.68601e-05
9.68605e-05
9.6861e-05
9.68614e-05
9.68618e-05
9.68622e-05
9.68625e-05
9.68629e-05
9.68632e-05
9.68635e-05
9.68639e-05
9.68641e-05
9.68644e-05
9.68647e-05
9.68649e-05
9.68651e-05
9.68652e-05
9.68654e-05
9.68656e-05
9.68657e-05
9.68659e-05
9.6866e-05
9.68661e-05
9.68662e-05
9.68662e-05
9.68661e-05
9.6866e-05
9.68658e-05
9.68655e-05
9.68652e-05
9.68648e-05
9.68643e-05
9.68638e-05
9.68633e-05
9.68628e-05
9.68623e-05
9.68618e-05
9.68613e-05
9.68609e-05
9.68604e-05
9.686e-05
9.68596e-05
9.68593e-05
9.68589e-05
9.68587e-05
9.68584e-05
9.68582e-05
9.68579e-05
9.68578e-05
9.68576e-05
9.68575e-05
9.68573e-05
9.68572e-05
9.68571e-05
9.68571e-05
9.6857e-05
9.68569e-05
9.68569e-05
9.68568e-05
9.68567e-05
9.68567e-05
9.68566e-05
9.68566e-05
9.68566e-05
9.68566e-05
9.68566e-05
9.68567e-05
9.68569e-05
9.68571e-05
9.68573e-05
9.68576e-05
9.68579e-05
9.68582e-05
9.68586e-05
9.68589e-05
9.68592e-05
9.68596e-05
9.68599e-05
9.68603e-05
9.68606e-05
9.68609e-05
9.68612e-05
9.68615e-05
9.68618e-05
9.6862e-05
9.68621e-05
9.68623e-05
9.68624e-05
9.68621e-05
0.000113484
0.000113485
0.000113485
0.000113483
0.000113482
0.00011348
0.000113478
0.000113477
0.000113476
0.000113475
0.000113474
0.000113474
0.000113473
0.000113473
0.000113473
0.000113473
0.000113474
0.000113474
0.000113474
0.000113475
0.000113475
0.000113475
0.000113476
0.000113476
0.000113477
0.000113477
0.000113478
0.000113479
0.000113479
0.00011348
0.00011348
0.000113481
0.000113481
0.000113482
0.000113482
0.000113482
0.000113483
0.000113483
0.000113484
0.000113484
0.000113484
0.000113485
0.000113485
0.000113485
0.000113486
0.000113486
0.000113486
0.000113486
0.000113486
0.000113487
0.000113487
0.000113487
0.000113487
0.000113487
0.000113487
0.000113487
0.000113487
0.000113487
0.000113487
0.000113486
0.000113486
0.000113485
0.000113485
0.000113484
0.000113484
0.000113483
0.000113483
0.000113482
0.000113481
0.000113481
0.00011348
0.00011348
0.00011348
0.000113479
0.000113479
0.000113479
0.000113478
0.000113478
0.000113478
0.000113478
0.000113477
0.000113477
0.000113477
0.000113477
0.000113477
0.000113477
0.000113477
0.000113477
0.000113477
0.000113477
0.000113477
0.000113476
0.000113476
0.000113476
0.000113476
0.000113476
0.000113476
0.000113477
0.000113477
0.000113477
0.000113477
0.000113478
0.000113478
0.000113478
0.000113479
0.000113479
0.00011348
0.00011348
0.00011348
0.000113481
0.000113481
0.000113481
0.000113482
0.000113482
0.000113482
0.000113482
0.000113483
0.000113483
0.000113483
0.000113483
0.000127158
0.000127158
0.000127158
0.000127157
0.000127155
0.000127153
0.000127152
0.00012715
0.000127149
0.000127148
0.000127147
0.000127147
0.000127147
0.000127147
0.000127147
0.000127147
0.000127147
0.000127147
0.000127148
0.000127148
0.000127149
0.000127149
0.00012715
0.00012715
0.000127151
0.000127151
0.000127152
0.000127153
0.000127153
0.000127154
0.000127154
0.000127155
0.000127155
0.000127156
0.000127156
0.000127157
0.000127157
0.000127158
0.000127158
0.000127158
0.000127159
0.000127159
0.00012716
0.00012716
0.00012716
0.00012716
0.000127161
0.000127161
0.000127161
0.000127161
0.000127161
0.000127161
0.000127162
0.000127162
0.000127162
0.000127162
0.000127162
0.000127161
0.000127161
0.000127161
0.00012716
0.00012716
0.000127159
0.000127158
0.000127158
0.000127157
0.000127156
0.000127156
0.000127155
0.000127155
0.000127154
0.000127154
0.000127153
0.000127153
0.000127153
0.000127152
0.000127152
0.000127152
0.000127151
0.000127151
0.000127151
0.000127151
0.000127151
0.000127151
0.000127151
0.00012715
0.00012715
0.00012715
0.00012715
0.00012715
0.00012715
0.00012715
0.00012715
0.00012715
0.00012715
0.00012715
0.00012715
0.00012715
0.00012715
0.000127151
0.000127151
0.000127151
0.000127152
0.000127152
0.000127153
0.000127153
0.000127154
0.000127154
0.000127154
0.000127155
0.000127155
0.000127156
0.000127156
0.000127156
0.000127156
0.000127157
0.000127157
0.000127157
0.000127157
0.000127157
0.000138271
0.000138272
0.000138271
0.00013827
0.000138268
0.000138267
0.000138265
0.000138264
0.000138263
0.000138262
0.000138261
0.00013826
0.00013826
0.00013826
0.00013826
0.00013826
0.000138261
0.000138261
0.000138261
0.000138262
0.000138262
0.000138263
0.000138264
0.000138264
0.000138265
0.000138265
0.000138266
0.000138267
0.000138267
0.000138268
0.000138268
0.000138269
0.00013827
0.00013827
0.000138271
0.000138271
0.000138272
0.000138272
0.000138272
0.000138273
0.000138273
0.000138274
0.000138274
0.000138274
0.000138275
0.000138275
0.000138275
0.000138275
0.000138276
0.000138276
0.000138276
0.000138276
0.000138276
0.000138276
0.000138276
0.000138276
0.000138276
0.000138276
0.000138275
0.000138275
0.000138274
0.000138274
0.000138273
0.000138272
0.000138272
0.000138271
0.00013827
0.00013827
0.000138269
0.000138268
0.000138268
0.000138267
0.000138267
0.000138267
0.000138266
0.000138266
0.000138266
0.000138265
0.000138265
0.000138265
0.000138265
0.000138264
0.000138264
0.000138264
0.000138264
0.000138264
0.000138264
0.000138264
0.000138264
0.000138264
0.000138264
0.000138264
0.000138264
0.000138264
0.000138264
0.000138264
0.000138264
0.000138264
0.000138264
0.000138264
0.000138265
0.000138265
0.000138266
0.000138266
0.000138267
0.000138267
0.000138268
0.000138268
0.000138268
0.000138269
0.000138269
0.00013827
0.00013827
0.00013827
0.000138271
0.000138271
0.000138271
0.000138271
0.000138271
0.000138271
0.000147284
0.000147284
0.000147283
0.000147282
0.000147281
0.000147279
0.000147278
0.000147276
0.000147275
0.000147274
0.000147273
0.000147273
0.000147273
0.000147273
0.000147273
0.000147273
0.000147273
0.000147274
0.000147274
0.000147275
0.000147275
0.000147276
0.000147276
0.000147277
0.000147278
0.000147278
0.000147279
0.00014728
0.00014728
0.000147281
0.000147282
0.000147282
0.000147283
0.000147283
0.000147284
0.000147284
0.000147285
0.000147285
0.000147286
0.000147286
0.000147287
0.000147287
0.000147287
0.000147288
0.000147288
0.000147288
0.000147289
0.000147289
0.000147289
0.000147289
0.000147289
0.00014729
0.00014729
0.00014729
0.00014729
0.000147289
0.000147289
0.000147289
0.000147288
0.000147288
0.000147287
0.000147286
0.000147286
0.000147285
0.000147284
0.000147284
0.000147283
0.000147282
0.000147282
0.000147281
0.000147281
0.00014728
0.00014728
0.000147279
0.000147279
0.000147278
0.000147278
0.000147278
0.000147278
0.000147277
0.000147277
0.000147277
0.000147277
0.000147277
0.000147277
0.000147277
0.000147277
0.000147276
0.000147276
0.000147276
0.000147276
0.000147276
0.000147276
0.000147276
0.000147276
0.000147276
0.000147276
0.000147277
0.000147277
0.000147277
0.000147278
0.000147278
0.000147279
0.000147279
0.00014728
0.00014728
0.000147281
0.000147281
0.000147282
0.000147282
0.000147282
0.000147283
0.000147283
0.000147283
0.000147284
0.000147284
0.000147284
0.000147284
0.000147284
0.000147284
0.000154611
0.00015461
0.000154609
0.000154608
0.000154607
0.000154605
0.000154604
0.000154602
0.000154601
0.0001546
0.0001546
0.000154599
0.000154599
0.000154599
0.000154599
0.000154599
0.0001546
0.0001546
0.000154601
0.000154601
0.000154602
0.000154602
0.000154603
0.000154604
0.000154604
0.000154605
0.000154606
0.000154606
0.000154607
0.000154608
0.000154608
0.000154609
0.00015461
0.00015461
0.000154611
0.000154611
0.000154612
0.000154612
0.000154613
0.000154613
0.000154614
0.000154614
0.000154614
0.000154615
0.000154615
0.000154615
0.000154616
0.000154616
0.000154616
0.000154616
0.000154616
0.000154617
0.000154617
0.000154617
0.000154617
0.000154616
0.000154616
0.000154616
0.000154615
0.000154614
0.000154614
0.000154613
0.000154612
0.000154612
0.000154611
0.00015461
0.000154609
0.000154609
0.000154608
0.000154607
0.000154607
0.000154606
0.000154606
0.000154605
0.000154605
0.000154605
0.000154604
0.000154604
0.000154604
0.000154604
0.000154603
0.000154603
0.000154603
0.000154603
0.000154603
0.000154603
0.000154603
0.000154603
0.000154603
0.000154603
0.000154602
0.000154602
0.000154602
0.000154602
0.000154602
0.000154603
0.000154603
0.000154603
0.000154603
0.000154604
0.000154604
0.000154605
0.000154605
0.000154606
0.000154606
0.000154607
0.000154607
0.000154608
0.000154608
0.000154609
0.000154609
0.000154609
0.00015461
0.00015461
0.00015461
0.000154611
0.000154611
0.000154611
0.000154611
0.000154611
0.000160591
0.00016059
0.000160589
0.000160588
0.000160587
0.000160585
0.000160584
0.000160583
0.000160581
0.000160581
0.00016058
0.00016058
0.000160579
0.000160579
0.000160579
0.00016058
0.00016058
0.000160581
0.000160581
0.000160582
0.000160582
0.000160583
0.000160584
0.000160584
0.000160585
0.000160586
0.000160586
0.000160587
0.000160588
0.000160588
0.000160589
0.00016059
0.00016059
0.000160591
0.000160592
0.000160592
0.000160593
0.000160593
0.000160594
0.000160594
0.000160595
0.000160595
0.000160595
0.000160596
0.000160596
0.000160596
0.000160597
0.000160597
0.000160597
0.000160597
0.000160598
0.000160598
0.000160598
0.000160598
0.000160597
0.000160597
0.000160597
0.000160596
0.000160596
0.000160595
0.000160594
0.000160593
0.000160593
0.000160592
0.000160591
0.00016059
0.00016059
0.000160589
0.000160588
0.000160588
0.000160587
0.000160587
0.000160586
0.000160586
0.000160585
0.000160585
0.000160585
0.000160584
0.000160584
0.000160584
0.000160584
0.000160584
0.000160583
0.000160583
0.000160583
0.000160583
0.000160583
0.000160583
0.000160583
0.000160583
0.000160583
0.000160583
0.000160583
0.000160583
0.000160583
0.000160583
0.000160583
0.000160583
0.000160584
0.000160584
0.000160585
0.000160585
0.000160586
0.000160586
0.000160587
0.000160587
0.000160588
0.000160589
0.000160589
0.000160589
0.00016059
0.00016059
0.00016059
0.000160591
0.000160591
0.000160591
0.000160591
0.000160592
0.000160592
0.000160592
0.000165494
0.000165493
0.000165492
0.000165491
0.000165489
0.000165488
0.000165487
0.000165485
0.000165484
0.000165484
0.000165483
0.000165483
0.000165482
0.000165482
0.000165483
0.000165483
0.000165483
0.000165484
0.000165484
0.000165485
0.000165485
0.000165486
0.000165487
0.000165487
0.000165488
0.000165489
0.00016549
0.00016549
0.000165491
0.000165492
0.000165493
0.000165493
0.000165494
0.000165495
0.000165495
0.000165496
0.000165496
0.000165497
0.000165497
0.000165498
0.000165498
0.000165499
0.000165499
0.000165499
0.0001655
0.0001655
0.0001655
0.000165501
0.000165501
0.000165501
0.000165501
0.000165501
0.000165501
0.000165501
0.000165501
0.0001655
0.0001655
0.000165499
0.000165499
0.000165498
0.000165497
0.000165496
0.000165496
0.000165495
0.000165494
0.000165493
0.000165493
0.000165492
0.000165491
0.000165491
0.00016549
0.00016549
0.000165489
0.000165489
0.000165488
0.000165488
0.000165488
0.000165487
0.000165487
0.000165487
0.000165487
0.000165487
0.000165486
0.000165486
0.000165486
0.000165486
0.000165486
0.000165486
0.000165486
0.000165486
0.000165486
0.000165486
0.000165486
0.000165486
0.000165486
0.000165486
0.000165486
0.000165487
0.000165487
0.000165487
0.000165488
0.000165489
0.000165489
0.00016549
0.00016549
0.000165491
0.000165491
0.000165492
0.000165492
0.000165493
0.000165493
0.000165493
0.000165494
0.000165494
0.000165494
0.000165494
0.000165495
0.000165495
0.000165495
0.000165495
0.000169529
0.000169528
0.000169526
0.000169525
0.000169524
0.000169522
0.000169521
0.00016952
0.000169519
0.000169518
0.000169518
0.000169518
0.000169517
0.000169517
0.000169517
0.000169518
0.000169518
0.000169519
0.000169519
0.00016952
0.00016952
0.000169521
0.000169522
0.000169522
0.000169523
0.000169524
0.000169525
0.000169525
0.000169526
0.000169527
0.000169528
0.000169528
0.000169529
0.00016953
0.00016953
0.000169531
0.000169532
0.000169532
0.000169533
0.000169533
0.000169534
0.000169534
0.000169534
0.000169535
0.000169535
0.000169535
0.000169536
0.000169536
0.000169536
0.000169536
0.000169537
0.000169537
0.000169537
0.000169536
0.000169536
0.000169536
0.000169535
0.000169534
0.000169534
0.000169533
0.000169532
0.000169531
0.00016953
0.00016953
0.000169529
0.000169528
0.000169527
0.000169527
0.000169526
0.000169525
0.000169525
0.000169524
0.000169524
0.000169524
0.000169523
0.000169523
0.000169522
0.000169522
0.000169522
0.000169522
0.000169521
0.000169521
0.000169521
0.000169521
0.000169521
0.000169521
0.000169521
0.000169521
0.00016952
0.00016952
0.00016952
0.00016952
0.00016952
0.00016952
0.00016952
0.000169521
0.000169521
0.000169521
0.000169522
0.000169522
0.000169523
0.000169524
0.000169524
0.000169525
0.000169525
0.000169526
0.000169526
0.000169527
0.000169527
0.000169528
0.000169528
0.000169528
0.000169529
0.000169529
0.000169529
0.000169529
0.00016953
0.00016953
0.00016953
0.00016953
0.000172858
0.000172856
0.000172855
0.000172853
0.000172852
0.000172851
0.000172849
0.000172849
0.000172848
0.000172847
0.000172847
0.000172846
0.000172846
0.000172846
0.000172846
0.000172846
0.000172847
0.000172847
0.000172848
0.000172849
0.000172849
0.00017285
0.000172851
0.000172851
0.000172852
0.000172853
0.000172854
0.000172854
0.000172855
0.000172856
0.000172857
0.000172857
0.000172858
0.000172859
0.000172859
0.00017286
0.000172861
0.000172861
0.000172862
0.000172862
0.000172863
0.000172863
0.000172864
0.000172864
0.000172864
0.000172865
0.000172865
0.000172865
0.000172865
0.000172866
0.000172866
0.000172866
0.000172866
0.000172865
0.000172865
0.000172864
0.000172864
0.000172863
0.000172862
0.000172861
0.00017286
0.00017286
0.000172859
0.000172858
0.000172857
0.000172857
0.000172856
0.000172855
0.000172855
0.000172854
0.000172854
0.000172853
0.000172853
0.000172852
0.000172852
0.000172851
0.000172851
0.000172851
0.000172851
0.00017285
0.00017285
0.00017285
0.00017285
0.00017285
0.00017285
0.000172849
0.000172849
0.000172849
0.000172849
0.000172849
0.000172849
0.000172849
0.000172849
0.000172849
0.000172849
0.000172849
0.00017285
0.00017285
0.000172851
0.000172851
0.000172852
0.000172852
0.000172853
0.000172854
0.000172854
0.000172855
0.000172855
0.000172856
0.000172856
0.000172857
0.000172857
0.000172857
0.000172858
0.000172858
0.000172858
0.000172858
0.000172858
0.000172858
0.000172858
0.000172859
0.000175606
0.000175605
0.000175603
0.000175601
0.0001756
0.000175599
0.000175598
0.000175597
0.000175596
0.000175596
0.000175595
0.000175595
0.000175595
0.000175595
0.000175595
0.000175595
0.000175596
0.000175596
0.000175597
0.000175597
0.000175598
0.000175599
0.000175599
0.0001756
0.000175601
0.000175602
0.000175602
0.000175603
0.000175604
0.000175605
0.000175605
0.000175606
0.000175607
0.000175608
0.000175608
0.000175609
0.000175609
0.00017561
0.000175611
0.000175611
0.000175612
0.000175612
0.000175612
0.000175613
0.000175613
0.000175614
0.000175614
0.000175614
0.000175614
0.000175615
0.000175615
0.000175615
0.000175614
0.000175614
0.000175614
0.000175613
0.000175612
0.000175611
0.000175611
0.00017561
0.000175609
0.000175608
0.000175607
0.000175606
0.000175606
0.000175605
0.000175604
0.000175604
0.000175603
0.000175603
0.000175602
0.000175602
0.000175601
0.000175601
0.0001756
0.0001756
0.0001756
0.000175599
0.000175599
0.000175599
0.000175599
0.000175599
0.000175598
0.000175598
0.000175598
0.000175598
0.000175598
0.000175598
0.000175598
0.000175597
0.000175597
0.000175597
0.000175597
0.000175598
0.000175598
0.000175598
0.000175599
0.000175599
0.0001756
0.0001756
0.000175601
0.000175601
0.000175602
0.000175602
0.000175603
0.000175604
0.000175604
0.000175605
0.000175605
0.000175605
0.000175606
0.000175606
0.000175606
0.000175606
0.000175606
0.000175607
0.000175607
0.000175607
0.000175607
0.000175607
0.000177873
0.000177871
0.00017787
0.000177868
0.000177867
0.000177866
0.000177865
0.000177864
0.000177863
0.000177863
0.000177862
0.000177862
0.000177862
0.000177862
0.000177862
0.000177862
0.000177863
0.000177863
0.000177864
0.000177864
0.000177865
0.000177866
0.000177867
0.000177867
0.000177868
0.000177869
0.00017787
0.00017787
0.000177871
0.000177872
0.000177873
0.000177873
0.000177874
0.000177875
0.000177875
0.000177876
0.000177877
0.000177877
0.000177878
0.000177878
0.000177879
0.000177879
0.00017788
0.00017788
0.000177881
0.000177881
0.000177881
0.000177882
0.000177882
0.000177882
0.000177882
0.000177882
0.000177882
0.000177881
0.000177881
0.00017788
0.000177879
0.000177878
0.000177877
0.000177876
0.000177876
0.000177875
0.000177874
0.000177873
0.000177873
0.000177872
0.000177871
0.000177871
0.00017787
0.00017787
0.000177869
0.000177869
0.000177868
0.000177868
0.000177867
0.000177867
0.000177867
0.000177866
0.000177866
0.000177866
0.000177866
0.000177866
0.000177865
0.000177865
0.000177865
0.000177865
0.000177865
0.000177865
0.000177865
0.000177864
0.000177864
0.000177864
0.000177864
0.000177865
0.000177865
0.000177865
0.000177866
0.000177866
0.000177867
0.000177867
0.000177868
0.000177869
0.000177869
0.00017787
0.00017787
0.000177871
0.000177871
0.000177872
0.000177872
0.000177872
0.000177873
0.000177873
0.000177873
0.000177873
0.000177873
0.000177873
0.000177874
0.000177874
0.000177874
0.000177874
0.000179736
0.000179734
0.000179733
0.000179731
0.00017973
0.000179728
0.000179728
0.000179727
0.000179726
0.000179726
0.000179725
0.000179725
0.000179725
0.000179725
0.000179725
0.000179725
0.000179726
0.000179726
0.000179727
0.000179728
0.000179728
0.000179729
0.00017973
0.00017973
0.000179731
0.000179732
0.000179733
0.000179734
0.000179734
0.000179735
0.000179736
0.000179737
0.000179737
0.000179738
0.000179739
0.000179739
0.00017974
0.000179741
0.000179741
0.000179742
0.000179742
0.000179743
0.000179743
0.000179744
0.000179744
0.000179744
0.000179745
0.000179745
0.000179745
0.000179745
0.000179745
0.000179745
0.000179745
0.000179744
0.000179743
0.000179743
0.000179742
0.000179741
0.00017974
0.000179739
0.000179738
0.000179738
0.000179737
0.000179736