/*--------------------------------*- C++ -*----------------------------------*\
  =========                 |
  \\      /  F ield         | OpenFOAM: The Open Source CFD Toolbox
   \\    /   O peration     | Website:  https://openfoam.org
    \\  /    A nd           | Version:  7
     \\/     M anipulation  |
\*---------------------------------------------------------------------------*/
FoamFile
{
    version     2.0;
    format      ascii;
    class       volScalarField;
    location    "4000";
    object      nut;
}
// * * * * * * * * * * * * * * * * * * * * * * * * * * * * * * * * * * * * * //

dimensions      [0 2 -1 0 0 0 0];

internalField   nonuniform List<scalar> 
24000
(
8.1259e-12
8.1261e-12
8.12611e-12
8.12599e-12
8.12581e-12
8.1256e-12
8.1254e-12
8.12522e-12
8.12507e-12
8.12495e-12
8.12485e-12
8.12478e-12
8.12473e-12
8.12469e-12
8.12468e-12
8.12467e-12
8.12467e-12
8.12469e-12
8.12471e-12
8.12474e-12
8.12478e-12
8.12482e-12
8.12486e-12
8.12491e-12
8.12496e-12
8.12502e-12
8.12507e-12
8.12513e-12
8.12518e-12
8.12524e-12
8.12529e-12
8.12535e-12
8.1254e-12
8.12545e-12
8.1255e-12
8.12555e-12
8.1256e-12
8.12565e-12
8.1257e-12
8.12574e-12
8.12578e-12
8.12582e-12
8.12586e-12
8.12589e-12
8.12593e-12
8.12595e-12
8.12597e-12
8.12599e-12
8.12601e-12
8.12603e-12
8.12605e-12
8.12606e-12
8.12608e-12
8.1261e-12
8.12611e-12
8.12612e-12
8.12612e-12
8.12612e-12
8.12611e-12
8.12609e-12
8.12606e-12
8.12602e-12
8.12598e-12
8.12593e-12
8.12587e-12
8.12582e-12
8.12576e-12
8.1257e-12
8.12564e-12
8.12559e-12
8.12553e-12
8.12548e-12
8.12544e-12
8.12539e-12
8.12535e-12
8.12531e-12
8.12528e-12
8.12525e-12
8.12522e-12
8.1252e-12
8.12518e-12
8.12516e-12
8.12514e-12
8.12513e-12
8.12511e-12
8.1251e-12
8.12509e-12
8.12508e-12
8.12507e-12
8.12507e-12
8.12506e-12
8.12505e-12
8.12505e-12
8.12504e-12
8.12504e-12
8.12504e-12
8.12504e-12
8.12505e-12
8.12506e-12
8.12508e-12
8.1251e-12
8.12513e-12
8.12516e-12
8.12519e-12
8.12523e-12
8.12526e-12
8.12529e-12
8.12532e-12
8.12536e-12
8.1254e-12
8.12544e-12
8.12548e-12
8.12552e-12
8.12555e-12
8.12558e-12
8.12561e-12
8.12564e-12
8.12566e-12
8.12568e-12
8.12564e-12
1.50774e-09
1.50778e-09
1.50778e-09
1.50776e-09
1.50772e-09
1.50768e-09
1.50765e-09
1.50761e-09
1.50759e-09
1.50756e-09
1.50754e-09
1.50753e-09
1.50752e-09
1.50752e-09
1.50751e-09
1.50751e-09
1.50751e-09
1.50751e-09
1.50752e-09
1.50752e-09
1.50753e-09
1.50754e-09
1.50755e-09
1.50756e-09
1.50757e-09
1.50758e-09
1.50759e-09
1.5076e-09
1.50761e-09
1.50762e-09
1.50763e-09
1.50764e-09
1.50765e-09
1.50766e-09
1.50767e-09
1.50767e-09
1.50768e-09
1.50769e-09
1.5077e-09
1.50771e-09
1.50772e-09
1.50772e-09
1.50773e-09
1.50774e-09
1.50774e-09
1.50775e-09
1.50775e-09
1.50776e-09
1.50776e-09
1.50776e-09
1.50777e-09
1.50777e-09
1.50777e-09
1.50778e-09
1.50778e-09
1.50778e-09
1.50778e-09
1.50778e-09
1.50778e-09
1.50777e-09
1.50777e-09
1.50776e-09
1.50775e-09
1.50774e-09
1.50773e-09
1.50772e-09
1.50771e-09
1.5077e-09
1.50769e-09
1.50768e-09
1.50767e-09
1.50766e-09
1.50765e-09
1.50764e-09
1.50764e-09
1.50763e-09
1.50762e-09
1.50762e-09
1.50761e-09
1.50761e-09
1.50761e-09
1.5076e-09
1.5076e-09
1.5076e-09
1.50759e-09
1.50759e-09
1.50759e-09
1.50759e-09
1.50759e-09
1.50758e-09
1.50758e-09
1.50758e-09
1.50758e-09
1.50758e-09
1.50758e-09
1.50758e-09
1.50758e-09
1.50758e-09
1.50758e-09
1.50759e-09
1.50759e-09
1.5076e-09
1.5076e-09
1.50761e-09
1.50761e-09
1.50762e-09
1.50763e-09
1.50763e-09
1.50764e-09
1.50765e-09
1.50765e-09
1.50766e-09
1.50767e-09
1.50767e-09
1.50768e-09
1.50769e-09
1.50769e-09
1.50769e-09
1.5077e-09
1.50769e-09
3.22004e-08
3.22011e-08
3.22012e-08
3.22007e-08
3.22e-08
3.21991e-08
3.21984e-08
3.21977e-08
3.21971e-08
3.21966e-08
3.21962e-08
3.21959e-08
3.21957e-08
3.21956e-08
3.21955e-08
3.21955e-08
3.21955e-08
3.21956e-08
3.21956e-08
3.21958e-08
3.21959e-08
3.21961e-08
3.21963e-08
3.21965e-08
3.21967e-08
3.21969e-08
3.21971e-08
3.21973e-08
3.21975e-08
3.21977e-08
3.2198e-08
3.21982e-08
3.21984e-08
3.21986e-08
3.21988e-08
3.2199e-08
3.21992e-08
3.21994e-08
3.21995e-08
3.21997e-08
3.21999e-08
3.22e-08
3.22002e-08
3.22003e-08
3.22004e-08
3.22005e-08
3.22006e-08
3.22007e-08
3.22008e-08
3.22008e-08
3.22009e-08
3.2201e-08
3.2201e-08
3.22011e-08
3.22012e-08
3.22012e-08
3.22012e-08
3.22012e-08
3.22012e-08
3.22011e-08
3.22009e-08
3.22008e-08
3.22006e-08
3.22004e-08
3.22002e-08
3.22e-08
3.21998e-08
3.21995e-08
3.21993e-08
3.21991e-08
3.21989e-08
3.21987e-08
3.21985e-08
3.21983e-08
3.21982e-08
3.2198e-08
3.21979e-08
3.21978e-08
3.21977e-08
3.21976e-08
3.21975e-08
3.21974e-08
3.21973e-08
3.21973e-08
3.21972e-08
3.21972e-08
3.21971e-08
3.21971e-08
3.21971e-08
3.2197e-08
3.2197e-08
3.2197e-08
3.2197e-08
3.21969e-08
3.21969e-08
3.21969e-08
3.21969e-08
3.2197e-08
3.2197e-08
3.21971e-08
3.21972e-08
3.21973e-08
3.21974e-08
3.21975e-08
3.21977e-08
3.21978e-08
3.21979e-08
3.21981e-08
3.21982e-08
3.21984e-08
3.21985e-08
3.21987e-08
3.21988e-08
3.2199e-08
3.21991e-08
3.21992e-08
3.21993e-08
3.21994e-08
3.21995e-08
3.21993e-08
2.4519e-07
2.45195e-07
2.45195e-07
2.45191e-07
2.45185e-07
2.45179e-07
2.45173e-07
2.45168e-07
2.45164e-07
2.4516e-07
2.45157e-07
2.45155e-07
2.45154e-07
2.45153e-07
2.45152e-07
2.45152e-07
2.45152e-07
2.45153e-07
2.45153e-07
2.45154e-07
2.45155e-07
2.45157e-07
2.45158e-07
2.4516e-07
2.45161e-07
2.45163e-07
2.45164e-07
2.45166e-07
2.45168e-07
2.45169e-07
2.45171e-07
2.45172e-07
2.45174e-07
2.45175e-07
2.45177e-07
2.45178e-07
2.4518e-07
2.45181e-07
2.45182e-07
2.45184e-07
2.45185e-07
2.45186e-07
2.45187e-07
2.45188e-07
2.45189e-07
2.4519e-07
2.4519e-07
2.45191e-07
2.45191e-07
2.45192e-07
2.45193e-07
2.45193e-07
2.45194e-07
2.45194e-07
2.45194e-07
2.45195e-07
2.45195e-07
2.45195e-07
2.45194e-07
2.45194e-07
2.45193e-07
2.45192e-07
2.4519e-07
2.45189e-07
2.45187e-07
2.45186e-07
2.45184e-07
2.45182e-07
2.4518e-07
2.45179e-07
2.45177e-07
2.45176e-07
2.45174e-07
2.45173e-07
2.45172e-07
2.45171e-07
2.4517e-07
2.45169e-07
2.45168e-07
2.45168e-07
2.45167e-07
2.45166e-07
2.45166e-07
2.45165e-07
2.45165e-07
2.45165e-07
2.45164e-07
2.45164e-07
2.45164e-07
2.45164e-07
2.45163e-07
2.45163e-07
2.45163e-07
2.45163e-07
2.45163e-07
2.45163e-07
2.45163e-07
2.45163e-07
2.45163e-07
2.45164e-07
2.45165e-07
2.45165e-07
2.45166e-07
2.45167e-07
2.45168e-07
2.45169e-07
2.4517e-07
2.45171e-07
2.45172e-07
2.45174e-07
2.45175e-07
2.45176e-07
2.45177e-07
2.45178e-07
2.45179e-07
2.4518e-07
2.45181e-07
2.45181e-07
2.45182e-07
2.45181e-07
1.03083e-06
1.03085e-06
1.03084e-06
1.03082e-06
1.0308e-06
1.03078e-06
1.03075e-06
1.03073e-06
1.03071e-06
1.0307e-06
1.03069e-06
1.03068e-06
1.03067e-06
1.03067e-06
1.03067e-06
1.03067e-06
1.03067e-06
1.03067e-06
1.03068e-06
1.03068e-06
1.03068e-06
1.03069e-06
1.03069e-06
1.0307e-06
1.03071e-06
1.03071e-06
1.03072e-06
1.03073e-06
1.03073e-06
1.03074e-06
1.03075e-06
1.03075e-06
1.03076e-06
1.03076e-06
1.03077e-06
1.03078e-06
1.03078e-06
1.03079e-06
1.03079e-06
1.0308e-06
1.0308e-06
1.03081e-06
1.03081e-06
1.03081e-06
1.03082e-06
1.03082e-06
1.03082e-06
1.03083e-06
1.03083e-06
1.03083e-06
1.03083e-06
1.03083e-06
1.03084e-06
1.03084e-06
1.03084e-06
1.03084e-06
1.03084e-06
1.03084e-06
1.03084e-06
1.03084e-06
1.03083e-06
1.03083e-06
1.03082e-06
1.03082e-06
1.03081e-06
1.0308e-06
1.0308e-06
1.03079e-06
1.03078e-06
1.03078e-06
1.03077e-06
1.03076e-06
1.03076e-06
1.03075e-06
1.03075e-06
1.03074e-06
1.03074e-06
1.03074e-06
1.03073e-06
1.03073e-06
1.03073e-06
1.03073e-06
1.03072e-06
1.03072e-06
1.03072e-06
1.03072e-06
1.03072e-06
1.03072e-06
1.03072e-06
1.03072e-06
1.03071e-06
1.03071e-06
1.03071e-06
1.03071e-06
1.03071e-06
1.03071e-06
1.03071e-06
1.03071e-06
1.03072e-06
1.03072e-06
1.03072e-06
1.03072e-06
1.03073e-06
1.03073e-06
1.03074e-06
1.03074e-06
1.03074e-06
1.03075e-06
1.03075e-06
1.03076e-06
1.03076e-06
1.03077e-06
1.03077e-06
1.03077e-06
1.03078e-06
1.03078e-06
1.03078e-06
1.03079e-06
1.03079e-06
1.03078e-06
2.90347e-06
2.90349e-06
2.90345e-06
2.9034e-06
2.90333e-06
2.90326e-06
2.9032e-06
2.90314e-06
2.9031e-06
2.90306e-06
2.90303e-06
2.90301e-06
2.903e-06
2.90299e-06
2.90299e-06
2.90299e-06
2.90299e-06
2.903e-06
2.90301e-06
2.90302e-06
2.90303e-06
2.90304e-06
2.90306e-06
2.90308e-06
2.90309e-06
2.90311e-06
2.90313e-06
2.90315e-06
2.90316e-06
2.90318e-06
2.9032e-06
2.90321e-06
2.90323e-06
2.90325e-06
2.90326e-06
2.90328e-06
2.90329e-06
2.9033e-06
2.90332e-06
2.90333e-06
2.90334e-06
2.90335e-06
2.90336e-06
2.90337e-06
2.90338e-06
2.90339e-06
2.90339e-06
2.9034e-06
2.9034e-06
2.90341e-06
2.90342e-06
2.90342e-06
2.90343e-06
2.90343e-06
2.90344e-06
2.90344e-06
2.90344e-06
2.90344e-06
2.90343e-06
2.90342e-06
2.90341e-06
2.9034e-06
2.90339e-06
2.90337e-06
2.90335e-06
2.90333e-06
2.90332e-06
2.9033e-06
2.90328e-06
2.90326e-06
2.90325e-06
2.90323e-06
2.90322e-06
2.9032e-06
2.90319e-06
2.90318e-06
2.90317e-06
2.90316e-06
2.90315e-06
2.90315e-06
2.90314e-06
2.90313e-06
2.90313e-06
2.90313e-06
2.90312e-06
2.90312e-06
2.90312e-06
2.90311e-06
2.90311e-06
2.90311e-06
2.90311e-06
2.9031e-06
2.9031e-06
2.9031e-06
2.9031e-06
2.9031e-06
2.9031e-06
2.9031e-06
2.90311e-06
2.90311e-06
2.90312e-06
2.90313e-06
2.90314e-06
2.90315e-06
2.90316e-06
2.90317e-06
2.90318e-06
2.90319e-06
2.9032e-06
2.90322e-06
2.90323e-06
2.90324e-06
2.90325e-06
2.90327e-06
2.90328e-06
2.90329e-06
2.90329e-06
2.9033e-06
2.9033e-06
2.90328e-06
6.15925e-06
6.15925e-06
6.15914e-06
6.15901e-06
6.15887e-06
6.15874e-06
6.15861e-06
6.1585e-06
6.15841e-06
6.15834e-06
6.15829e-06
6.15825e-06
6.15822e-06
6.15821e-06
6.1582e-06
6.15821e-06
6.15822e-06
6.15823e-06
6.15825e-06
6.15827e-06
6.1583e-06
6.15833e-06
6.15836e-06
6.1584e-06
6.15843e-06
6.15846e-06
6.1585e-06
6.15853e-06
6.15857e-06
6.1586e-06
6.15864e-06
6.15867e-06
6.1587e-06
6.15873e-06
6.15876e-06
6.15879e-06
6.15882e-06
6.15885e-06
6.15887e-06
6.1589e-06
6.15892e-06
6.15894e-06
6.15896e-06
6.15898e-06
6.159e-06
6.15901e-06
6.15902e-06
6.15903e-06
6.15903e-06
6.15904e-06
6.15905e-06
6.15907e-06
6.15908e-06
6.15909e-06
6.15909e-06
6.1591e-06
6.1591e-06
6.15909e-06
6.15908e-06
6.15907e-06
6.15904e-06
6.15902e-06
6.15899e-06
6.15895e-06
6.15892e-06
6.15888e-06
6.15885e-06
6.15881e-06
6.15878e-06
6.15874e-06
6.15871e-06
6.15868e-06
6.15865e-06
6.15862e-06
6.1586e-06
6.15858e-06
6.15856e-06
6.15854e-06
6.15853e-06
6.15851e-06
6.1585e-06
6.15849e-06
6.15848e-06
6.15848e-06
6.15847e-06
6.15846e-06
6.15846e-06
6.15845e-06
6.15845e-06
6.15845e-06
6.15844e-06
6.15844e-06
6.15844e-06
6.15843e-06
6.15843e-06
6.15843e-06
6.15844e-06
6.15844e-06
6.15845e-06
6.15846e-06
6.15848e-06
6.15849e-06
6.15851e-06
6.15853e-06
6.15856e-06
6.15858e-06
6.1586e-06
6.15862e-06
6.15864e-06
6.15866e-06
6.15869e-06
6.15871e-06
6.15874e-06
6.15876e-06
6.15878e-06
6.1588e-06
6.15881e-06
6.15883e-06
6.15884e-06
6.15878e-06
1.07395e-05
1.07395e-05
1.07393e-05
1.07391e-05
1.07388e-05
1.07386e-05
1.07384e-05
1.07382e-05
1.07381e-05
1.0738e-05
1.07379e-05
1.07378e-05
1.07378e-05
1.07378e-05
1.07378e-05
1.07378e-05
1.07378e-05
1.07378e-05
1.07379e-05
1.07379e-05
1.07379e-05
1.0738e-05
1.07381e-05
1.07381e-05
1.07382e-05
1.07382e-05
1.07383e-05
1.07383e-05
1.07384e-05
1.07385e-05
1.07385e-05
1.07386e-05
1.07386e-05
1.07387e-05
1.07387e-05
1.07388e-05
1.07388e-05
1.07389e-05
1.07389e-05
1.07389e-05
1.0739e-05
1.0739e-05
1.0739e-05
1.07391e-05
1.07391e-05
1.07391e-05
1.07391e-05
1.07391e-05
1.07391e-05
1.07392e-05
1.07392e-05
1.07392e-05
1.07392e-05
1.07392e-05
1.07392e-05
1.07392e-05
1.07392e-05
1.07392e-05
1.07392e-05
1.07392e-05
1.07391e-05
1.07391e-05
1.07391e-05
1.0739e-05
1.07389e-05
1.07389e-05
1.07388e-05
1.07388e-05
1.07387e-05
1.07386e-05
1.07386e-05
1.07385e-05
1.07385e-05
1.07385e-05
1.07384e-05
1.07384e-05
1.07384e-05
1.07383e-05
1.07383e-05
1.07383e-05
1.07383e-05
1.07382e-05
1.07382e-05
1.07382e-05
1.07382e-05
1.07382e-05
1.07382e-05
1.07382e-05
1.07382e-05
1.07382e-05
1.07382e-05
1.07382e-05
1.07382e-05
1.07382e-05
1.07382e-05
1.07382e-05
1.07382e-05
1.07382e-05
1.07382e-05
1.07382e-05
1.07382e-05
1.07383e-05
1.07383e-05
1.07383e-05
1.07384e-05
1.07384e-05
1.07384e-05
1.07385e-05
1.07385e-05
1.07385e-05
1.07386e-05
1.07386e-05
1.07387e-05
1.07387e-05
1.07387e-05
1.07388e-05
1.07388e-05
1.07388e-05
1.07388e-05
1.07387e-05
1.64083e-05
1.64083e-05
1.6408e-05
1.64076e-05
1.64073e-05
1.64069e-05
1.64067e-05
1.64064e-05
1.64062e-05
1.6406e-05
1.64059e-05
1.64058e-05
1.64058e-05
1.64058e-05
1.64058e-05
1.64058e-05
1.64058e-05
1.64058e-05
1.64059e-05
1.6406e-05
1.6406e-05
1.64061e-05
1.64062e-05
1.64063e-05
1.64064e-05
1.64065e-05
1.64065e-05
1.64066e-05
1.64067e-05
1.64068e-05
1.64069e-05
1.6407e-05
1.6407e-05
1.64071e-05
1.64072e-05
1.64072e-05
1.64073e-05
1.64074e-05
1.64074e-05
1.64075e-05
1.64076e-05
1.64076e-05
1.64076e-05
1.64077e-05
1.64077e-05
1.64078e-05
1.64078e-05
1.64078e-05
1.64078e-05
1.64078e-05
1.64078e-05
1.64079e-05
1.64079e-05
1.64079e-05
1.64079e-05
1.64079e-05
1.64079e-05
1.64079e-05
1.64079e-05
1.64078e-05
1.64078e-05
1.64077e-05
1.64076e-05
1.64076e-05
1.64075e-05
1.64074e-05
1.64073e-05
1.64072e-05
1.64071e-05
1.6407e-05
1.6407e-05
1.64069e-05
1.64068e-05
1.64068e-05
1.64067e-05
1.64067e-05
1.64066e-05
1.64066e-05
1.64065e-05
1.64065e-05
1.64065e-05
1.64065e-05
1.64064e-05
1.64064e-05
1.64064e-05
1.64064e-05
1.64064e-05
1.64064e-05
1.64064e-05
1.64064e-05
1.64064e-05
1.64064e-05
1.64063e-05
1.64063e-05
1.64063e-05
1.64063e-05
1.64064e-05
1.64064e-05
1.64064e-05
1.64064e-05
1.64065e-05
1.64065e-05
1.64066e-05
1.64066e-05
1.64067e-05
1.64067e-05
1.64068e-05
1.64068e-05
1.64069e-05
1.64069e-05
1.6407e-05
1.6407e-05
1.64071e-05
1.64071e-05
1.64072e-05
1.64072e-05
1.64073e-05
1.64073e-05
1.64073e-05
1.64072e-05
2.29297e-05
2.29297e-05
2.29294e-05
2.29289e-05
2.29284e-05
2.2928e-05
2.29276e-05
2.29273e-05
2.2927e-05
2.29268e-05
2.29267e-05
2.29266e-05
2.29265e-05
2.29265e-05
2.29265e-05
2.29265e-05
2.29265e-05
2.29266e-05
2.29267e-05
2.29268e-05
2.29269e-05
2.2927e-05
2.29271e-05
2.29272e-05
2.29273e-05
2.29274e-05
2.29276e-05
2.29277e-05
2.29278e-05
2.29279e-05
2.2928e-05
2.29281e-05
2.29282e-05
2.29283e-05
2.29284e-05
2.29285e-05
2.29286e-05
2.29287e-05
2.29288e-05
2.29289e-05
2.29289e-05
2.2929e-05
2.29291e-05
2.29291e-05
2.29292e-05
2.29292e-05
2.29293e-05
2.29293e-05
2.29293e-05
2.29293e-05
2.29293e-05
2.29294e-05
2.29294e-05
2.29294e-05
2.29294e-05
2.29294e-05
2.29294e-05
2.29294e-05
2.29293e-05
2.29293e-05
2.29292e-05
2.29291e-05
2.2929e-05
2.29289e-05
2.29288e-05
2.29287e-05
2.29286e-05
2.29284e-05
2.29283e-05
2.29282e-05
2.29281e-05
2.2928e-05
2.29279e-05
2.29279e-05
2.29278e-05
2.29277e-05
2.29276e-05
2.29276e-05
2.29275e-05
2.29275e-05
2.29275e-05
2.29274e-05
2.29274e-05
2.29274e-05
2.29274e-05
2.29274e-05
2.29273e-05
2.29273e-05
2.29273e-05
2.29273e-05
2.29273e-05
2.29273e-05
2.29273e-05
2.29273e-05
2.29273e-05
2.29273e-05
2.29273e-05
2.29273e-05
2.29274e-05
2.29274e-05
2.29275e-05
2.29275e-05
2.29276e-05
2.29277e-05
2.29277e-05
2.29278e-05
2.29279e-05
2.29279e-05
2.2928e-05
2.29281e-05
2.29281e-05
2.29282e-05
2.29283e-05
2.29284e-05
2.29284e-05
2.29285e-05
2.29285e-05
2.29286e-05
2.29286e-05
2.29284e-05
3.01252e-05
3.01252e-05
3.01247e-05
3.01242e-05
3.01236e-05
3.01231e-05
3.01227e-05
3.01223e-05
3.0122e-05
3.01217e-05
3.01216e-05
3.01214e-05
3.01213e-05
3.01213e-05
3.01213e-05
3.01213e-05
3.01214e-05
3.01215e-05
3.01216e-05
3.01217e-05
3.01218e-05
3.0122e-05
3.01221e-05
3.01223e-05
3.01224e-05
3.01226e-05
3.01228e-05
3.01229e-05
3.01231e-05
3.01232e-05
3.01234e-05
3.01235e-05
3.01237e-05
3.01238e-05
3.01239e-05
3.0124e-05
3.01242e-05
3.01243e-05
3.01244e-05
3.01245e-05
3.01246e-05
3.01247e-05
3.01248e-05
3.01248e-05
3.01249e-05
3.0125e-05
3.0125e-05
3.0125e-05
3.0125e-05
3.01251e-05
3.01251e-05
3.01251e-05
3.01252e-05
3.01252e-05
3.01252e-05
3.01252e-05
3.01252e-05
3.01251e-05
3.01251e-05
3.0125e-05
3.01249e-05
3.01248e-05
3.01246e-05
3.01245e-05
3.01244e-05
3.01242e-05
3.01241e-05
3.01239e-05
3.01238e-05
3.01236e-05
3.01235e-05
3.01234e-05
3.01233e-05
3.01232e-05
3.01231e-05
3.0123e-05
3.01229e-05
3.01228e-05
3.01228e-05
3.01227e-05
3.01227e-05
3.01226e-05
3.01226e-05
3.01226e-05
3.01225e-05
3.01225e-05
3.01225e-05
3.01225e-05
3.01225e-05
3.01224e-05
3.01224e-05
3.01224e-05
3.01224e-05
3.01224e-05
3.01224e-05
3.01224e-05
3.01224e-05
3.01225e-05
3.01225e-05
3.01226e-05
3.01227e-05
3.01227e-05
3.01228e-05
3.01229e-05
3.0123e-05
3.01231e-05
3.01232e-05
3.01233e-05
3.01234e-05
3.01234e-05
3.01235e-05
3.01236e-05
3.01237e-05
3.01238e-05
3.01239e-05
3.0124e-05
3.0124e-05
3.01241e-05
3.01241e-05
3.0124e-05
3.78696e-05
3.78695e-05
3.7869e-05
3.78684e-05
3.78678e-05
3.78672e-05
3.78667e-05
3.78663e-05
3.7866e-05
3.78657e-05
3.78655e-05
3.78653e-05
3.78652e-05
3.78652e-05
3.78652e-05
3.78653e-05
3.78653e-05
3.78655e-05
3.78656e-05
3.78657e-05
3.78659e-05
3.78661e-05
3.78663e-05
3.78664e-05
3.78666e-05
3.78668e-05
3.7867e-05
3.78672e-05
3.78674e-05
3.78676e-05
3.78678e-05
3.7868e-05
3.78682e-05
3.78684e-05
3.78685e-05
3.78687e-05
3.78688e-05
3.7869e-05
3.78691e-05
3.78693e-05
3.78694e-05
3.78695e-05
3.78696e-05
3.78697e-05
3.78698e-05
3.78699e-05
3.78699e-05
3.787e-05
3.787e-05
3.787e-05
3.787e-05
3.78701e-05
3.78701e-05
3.78701e-05
3.78701e-05
3.78701e-05
3.78701e-05
3.787e-05
3.78699e-05
3.78698e-05
3.78697e-05
3.78695e-05
3.78694e-05
3.78692e-05
3.7869e-05
3.78689e-05
3.78687e-05
3.78685e-05
3.78683e-05
3.78682e-05
3.7868e-05
3.78678e-05
3.78677e-05
3.78676e-05
3.78674e-05
3.78673e-05
3.78672e-05
3.78671e-05
3.78671e-05
3.7867e-05
3.78669e-05
3.78669e-05
3.78668e-05
3.78668e-05
3.78668e-05
3.78667e-05
3.78667e-05
3.78667e-05
3.78667e-05
3.78667e-05
3.78666e-05
3.78666e-05
3.78666e-05
3.78666e-05
3.78666e-05
3.78666e-05
3.78667e-05
3.78667e-05
3.78668e-05
3.78669e-05
3.7867e-05
3.78671e-05
3.78672e-05
3.78673e-05
3.78674e-05
3.78675e-05
3.78677e-05
3.78678e-05
3.78679e-05
3.7868e-05
3.78681e-05
3.78682e-05
3.78683e-05
3.78684e-05
3.78685e-05
3.78686e-05
3.78686e-05
3.78687e-05
3.78687e-05
3.78687e-05
4.6076e-05
4.60757e-05
4.60752e-05
4.60745e-05
4.60739e-05
4.60733e-05
4.60728e-05
4.60723e-05
4.6072e-05
4.60717e-05
4.60715e-05
4.60713e-05
4.60712e-05
4.60712e-05
4.60712e-05
4.60713e-05
4.60714e-05
4.60715e-05
4.60717e-05
4.60719e-05
4.60721e-05
4.60723e-05
4.60725e-05
4.60727e-05
4.6073e-05
4.60732e-05
4.60735e-05
4.60737e-05
4.6074e-05
4.60742e-05
4.60744e-05
4.60747e-05
4.60749e-05
4.60751e-05
4.60753e-05
4.60755e-05
4.60757e-05
4.60759e-05
4.6076e-05
4.60762e-05
4.60764e-05
4.60765e-05
4.60766e-05
4.60768e-05
4.60769e-05
4.6077e-05
4.6077e-05
4.60771e-05
4.60771e-05
4.60772e-05
4.60772e-05
4.60772e-05
4.60773e-05
4.60773e-05
4.60773e-05
4.60772e-05
4.60772e-05
4.60771e-05
4.6077e-05
4.60768e-05
4.60767e-05
4.60765e-05
4.60763e-05
4.60761e-05
4.60759e-05
4.60757e-05
4.60755e-05
4.60752e-05
4.6075e-05
4.60748e-05
4.60746e-05
4.60745e-05
4.60743e-05
4.60741e-05
4.6074e-05
4.60739e-05
4.60737e-05
4.60736e-05
4.60735e-05
4.60734e-05
4.60734e-05
4.60733e-05
4.60732e-05
4.60732e-05
4.60732e-05
4.60731e-05
4.60731e-05
4.60731e-05
4.6073e-05
4.6073e-05
4.6073e-05
4.6073e-05
4.6073e-05
4.60729e-05
4.6073e-05
4.6073e-05
4.6073e-05
4.60731e-05
4.60732e-05
4.60733e-05
4.60734e-05
4.60735e-05
4.60737e-05
4.60738e-05
4.6074e-05
4.60741e-05
4.60743e-05
4.60744e-05
4.60745e-05
4.60746e-05
4.60748e-05
4.60749e-05
4.6075e-05
4.60751e-05
4.60752e-05
4.60753e-05
4.60754e-05
4.60755e-05
4.60755e-05
4.60756e-05
5.46829e-05
5.46824e-05
5.46818e-05
5.46811e-05
5.46805e-05
5.46799e-05
5.46794e-05
5.4679e-05
5.46786e-05
5.46783e-05
5.46781e-05
5.46779e-05
5.46779e-05
5.46778e-05
5.46779e-05
5.4678e-05
5.46781e-05
5.46783e-05
5.46785e-05
5.46787e-05
5.4679e-05
5.46792e-05
5.46795e-05
5.46797e-05
5.468e-05
5.46803e-05
5.46806e-05
5.46809e-05
5.46812e-05
5.46815e-05
5.46818e-05
5.4682e-05
5.46823e-05
5.46826e-05
5.46828e-05
5.46831e-05
5.46833e-05
5.46835e-05
5.46837e-05
5.46839e-05
5.46841e-05
5.46843e-05
5.46845e-05
5.46846e-05
5.46847e-05
5.46849e-05
5.46849e-05
5.4685e-05
5.46851e-05
5.46851e-05
5.46852e-05
5.46852e-05
5.46852e-05
5.46852e-05
5.46852e-05
5.46852e-05
5.46851e-05
5.46849e-05
5.46848e-05
5.46846e-05
5.46844e-05
5.46842e-05
5.4684e-05
5.46837e-05
5.46835e-05
5.46832e-05
5.4683e-05
5.46827e-05
5.46825e-05
5.46823e-05
5.4682e-05
5.46818e-05
5.46816e-05
5.46814e-05
5.46813e-05
5.46811e-05
5.46809e-05
5.46808e-05
5.46807e-05
5.46806e-05
5.46805e-05
5.46804e-05
5.46804e-05
5.46803e-05
5.46802e-05
5.46802e-05
5.46801e-05
5.46801e-05
5.46801e-05
5.468e-05
5.468e-05
5.468e-05
5.468e-05
5.468e-05
5.468e-05
5.468e-05
5.46801e-05
5.46802e-05
5.46803e-05
5.46804e-05
5.46806e-05
5.46807e-05
5.46809e-05
5.46811e-05
5.46813e-05
5.46815e-05
5.46816e-05
5.46818e-05
5.46819e-05
5.46821e-05
5.46822e-05
5.46824e-05
5.46825e-05
5.46826e-05
5.46828e-05
5.46829e-05
5.4683e-05
5.46831e-05
5.46831e-05
5.46833e-05
6.36462e-05
6.36454e-05
6.36447e-05
6.3644e-05
6.36434e-05
6.36428e-05
6.36423e-05
6.36419e-05
6.36416e-05
6.36413e-05
6.36411e-05
6.3641e-05
6.36409e-05
6.3641e-05
6.3641e-05
6.36412e-05
6.36414e-05
6.36416e-05
6.36418e-05
6.36421e-05
6.36424e-05
6.36426e-05
6.3643e-05
6.36433e-05
6.36436e-05
6.3644e-05
6.36443e-05
6.36446e-05
6.3645e-05
6.36453e-05
6.36456e-05
6.3646e-05
6.36463e-05
6.36466e-05
6.36469e-05
6.36472e-05
6.36474e-05
6.36477e-05
6.3648e-05
6.36482e-05
6.36484e-05
6.36486e-05
6.36488e-05
6.3649e-05
6.36492e-05
6.36493e-05
6.36494e-05
6.36495e-05
6.36496e-05
6.36497e-05
6.36497e-05
6.36498e-05
6.36498e-05
6.36498e-05
6.36497e-05
6.36496e-05
6.36495e-05
6.36494e-05
6.36492e-05
6.36489e-05
6.36487e-05
6.36484e-05
6.36482e-05
6.36479e-05
6.36476e-05
6.36473e-05
6.3647e-05
6.36467e-05
6.36464e-05
6.36462e-05
6.36459e-05
6.36457e-05
6.36454e-05
6.36452e-05
6.3645e-05
6.36448e-05
6.36447e-05
6.36445e-05
6.36444e-05
6.36443e-05
6.36441e-05
6.3644e-05
6.3644e-05
6.36439e-05
6.36438e-05
6.36438e-05
6.36437e-05
6.36437e-05
6.36436e-05
6.36436e-05
6.36435e-05
6.36435e-05
6.36435e-05
6.36435e-05
6.36435e-05
6.36436e-05
6.36437e-05
6.36438e-05
6.36439e-05
6.36441e-05
6.36443e-05
6.36445e-05
6.36447e-05
6.36449e-05
6.36451e-05
6.36454e-05
6.36456e-05
6.36457e-05
6.36459e-05
6.36461e-05
6.36462e-05
6.36464e-05
6.36465e-05
6.36467e-05
6.36468e-05
6.3647e-05
6.36471e-05
6.36472e-05
6.36471e-05
6.36477e-05
7.29336e-05
7.29323e-05
7.29315e-05
7.29309e-05
7.29303e-05
7.29298e-05
7.29293e-05
7.2929e-05
7.29287e-05
7.29285e-05
7.29283e-05
7.29282e-05
7.29282e-05
7.29283e-05
7.29284e-05
7.29286e-05
7.29288e-05
7.29291e-05
7.29294e-05
7.29297e-05
7.293e-05
7.29304e-05
7.29307e-05
7.29311e-05
7.29315e-05
7.29318e-05
7.29322e-05
7.29326e-05
7.2933e-05
7.29334e-05
7.29338e-05
7.29342e-05
7.29345e-05
7.29349e-05
7.29352e-05
7.29356e-05
7.29359e-05
7.29362e-05
7.29365e-05
7.29368e-05
7.2937e-05
7.29373e-05
7.29375e-05
7.29377e-05
7.29379e-05
7.29381e-05
7.29382e-05
7.29384e-05
7.29385e-05
7.29385e-05
7.29386e-05
7.29386e-05
7.29387e-05
7.29386e-05
7.29386e-05
7.29384e-05
7.29383e-05
7.2938e-05
7.29378e-05
7.29375e-05
7.29372e-05
7.29369e-05
7.29366e-05
7.29362e-05
7.29359e-05
7.29356e-05
7.29352e-05
7.29349e-05
7.29346e-05
7.29343e-05
7.2934e-05
7.29337e-05
7.29335e-05
7.29332e-05
7.2933e-05
7.29328e-05
7.29326e-05
7.29324e-05
7.29323e-05
7.29321e-05
7.2932e-05
7.29319e-05
7.29318e-05
7.29317e-05
7.29316e-05
7.29315e-05
7.29314e-05
7.29314e-05
7.29313e-05
7.29313e-05
7.29312e-05
7.29312e-05
7.29312e-05
7.29312e-05
7.29312e-05
7.29313e-05
7.29314e-05
7.29316e-05
7.29318e-05
7.2932e-05
7.29322e-05
7.29325e-05
7.29327e-05
7.2933e-05
7.29333e-05
7.29335e-05
7.29337e-05
7.29339e-05
7.29342e-05
7.29343e-05
7.29345e-05
7.29347e-05
7.29349e-05
7.2935e-05
7.29352e-05
7.29353e-05
7.29354e-05
7.29356e-05
7.29355e-05
7.29363e-05
8.25213e-05
8.25197e-05
8.25188e-05
8.25181e-05
8.25176e-05
8.25171e-05
8.25167e-05
8.25165e-05
8.25162e-05
8.25161e-05
8.2516e-05
8.2516e-05
8.2516e-05
8.25161e-05
8.25163e-05
8.25165e-05
8.25168e-05
8.25172e-05
8.25175e-05
8.25179e-05
8.25182e-05
8.25186e-05
8.2519e-05
8.25195e-05
8.25199e-05
8.25203e-05
8.25208e-05
8.25212e-05
8.25217e-05
8.25221e-05
8.25225e-05
8.25229e-05
8.25234e-05
8.25238e-05
8.25242e-05
8.25245e-05
8.25249e-05
8.25253e-05
8.25256e-05
8.25259e-05
8.25262e-05
8.25265e-05
8.25268e-05
8.25271e-05
8.25273e-05
8.25275e-05
8.25277e-05
8.25278e-05
8.25279e-05
8.2528e-05
8.25281e-05
8.25282e-05
8.25282e-05
8.25281e-05
8.2528e-05
8.25278e-05
8.25276e-05
8.25273e-05
8.2527e-05
8.25266e-05
8.25263e-05
8.25259e-05
8.25255e-05
8.25251e-05
8.25247e-05
8.25244e-05
8.2524e-05
8.25236e-05
8.25233e-05
8.25229e-05
8.25226e-05
8.25223e-05
8.2522e-05
8.25217e-05
8.25215e-05
8.25212e-05
8.2521e-05
8.25208e-05
8.25206e-05
8.25205e-05
8.25203e-05
8.25202e-05
8.252e-05
8.25199e-05
8.25198e-05
8.25197e-05
8.25197e-05
8.25196e-05
8.25195e-05
8.25194e-05
8.25194e-05
8.25193e-05
8.25193e-05
8.25194e-05
8.25194e-05
8.25195e-05
8.25197e-05
8.25199e-05
8.25201e-05
8.25204e-05
8.25207e-05
8.2521e-05
8.25213e-05
8.25216e-05
8.25219e-05
8.25222e-05
8.25225e-05
8.25227e-05
8.2523e-05
8.25232e-05
8.25234e-05
8.25236e-05
8.25238e-05
8.25239e-05
8.25241e-05
8.25243e-05
8.25244e-05
8.25246e-05
8.25244e-05
8.25256e-05
9.23922e-05
9.23901e-05
9.23891e-05
9.23884e-05
9.2388e-05
9.23876e-05
9.23873e-05
9.23871e-05
9.2387e-05
9.23869e-05
9.23869e-05
9.23869e-05
9.2387e-05
9.23872e-05
9.23875e-05
9.23878e-05
9.23882e-05
9.23886e-05
9.2389e-05
9.23894e-05
9.23898e-05
9.23903e-05
9.23907e-05
9.23912e-05
9.23917e-05
9.23922e-05
9.23927e-05
9.23932e-05
9.23936e-05
9.23941e-05
9.23946e-05
9.23951e-05
9.23956e-05
9.2396e-05
9.23965e-05
9.23969e-05
9.23973e-05
9.23977e-05
9.23981e-05
9.23985e-05
9.23988e-05
9.23992e-05
9.23995e-05
9.23998e-05
9.24e-05
9.24003e-05
9.24005e-05
9.24007e-05
9.24008e-05
9.24009e-05
9.2401e-05
9.2401e-05
9.2401e-05
9.24009e-05
9.24007e-05
9.24005e-05
9.24002e-05
9.23998e-05
9.23994e-05
9.2399e-05
9.23985e-05
9.23981e-05
9.23976e-05
9.23972e-05
9.23968e-05
9.23963e-05
9.23959e-05
9.23955e-05
9.23951e-05
9.23948e-05
9.23944e-05
9.23941e-05
9.23937e-05
9.23934e-05
9.23931e-05
9.23929e-05
9.23926e-05
9.23924e-05
9.23922e-05
9.2392e-05
9.23918e-05
9.23917e-05
9.23915e-05
9.23914e-05
9.23913e-05
9.23911e-05
9.2391e-05
9.23909e-05
9.23909e-05
9.23908e-05
9.23907e-05
9.23907e-05
9.23907e-05
9.23907e-05
9.23908e-05
9.2391e-05
9.23912e-05
9.23914e-05
9.23917e-05
9.2392e-05
9.23924e-05
9.23928e-05
9.23931e-05
9.23935e-05
9.23939e-05
9.23942e-05
9.23945e-05
9.23948e-05
9.23951e-05
9.23953e-05
9.23956e-05
9.23958e-05
9.2396e-05
9.23962e-05
9.23964e-05
9.23965e-05
9.23967e-05
9.23969e-05
9.23967e-05
9.23982e-05
0.000102534
0.000102532
0.00010253
0.00010253
0.000102529
0.000102529
0.000102529
0.000102529
0.000102529
0.000102529
0.000102529
0.000102529
0.000102529
0.000102529
0.00010253
0.00010253
0.000102531
0.000102531
0.000102532
0.000102532
0.000102532
0.000102533
0.000102534
0.000102534
0.000102535
0.000102535
0.000102536
0.000102536
0.000102537
0.000102537
0.000102538
0.000102538
0.000102539
0.000102539
0.00010254
0.00010254
0.000102541
0.000102541
0.000102542
0.000102542
0.000102543
0.000102543
0.000102543
0.000102544
0.000102544
0.000102544
0.000102544
0.000102545
0.000102545
0.000102545
0.000102545
0.000102545
0.000102545
0.000102545
0.000102545
0.000102544
0.000102544
0.000102543
0.000102543
0.000102542
0.000102542
0.000102541
0.000102541
0.00010254
0.00010254
0.000102539
0.000102539
0.000102538
0.000102538
0.000102537
0.000102537
0.000102537
0.000102536
0.000102536
0.000102536
0.000102535
0.000102535
0.000102535
0.000102535
0.000102534
0.000102534
0.000102534
0.000102534
0.000102534
0.000102534
0.000102533
0.000102533
0.000102533
0.000102533
0.000102533
0.000102533
0.000102533
0.000102533
0.000102533
0.000102533
0.000102533
0.000102534
0.000102534
0.000102534
0.000102535
0.000102535
0.000102536
0.000102536
0.000102536
0.000102537
0.000102537
0.000102538
0.000102538
0.000102538
0.000102539
0.000102539
0.000102539
0.000102539
0.000102539
0.00010254
0.00010254
0.00010254
0.00010254
0.00010254
0.000102542
0.000112939
0.000112936
0.000112934
0.000112934
0.000112933
0.000112933
0.000112933
0.000112933
0.000112933
0.000112933
0.000112933
0.000112934
0.000112934
0.000112934
0.000112935
0.000112935
0.000112936
0.000112936
0.000112937
0.000112937
0.000112938
0.000112939
0.000112939
0.00011294
0.00011294
0.000112941
0.000112942
0.000112942
0.000112943
0.000112943
0.000112944
0.000112945
0.000112945
0.000112946
0.000112946
0.000112947
0.000112947
0.000112948
0.000112948
0.000112949
0.000112949
0.00011295
0.00011295
0.00011295
0.000112951
0.000112951
0.000112951
0.000112951
0.000112952
0.000112952
0.000112952
0.000112952
0.000112952
0.000112951
0.000112951
0.000112951
0.00011295
0.000112949
0.000112949
0.000112948
0.000112948
0.000112947
0.000112946
0.000112946
0.000112945
0.000112945
0.000112944
0.000112944
0.000112943
0.000112943
0.000112942
0.000112942
0.000112942
0.000112941
0.000112941
0.000112941
0.00011294
0.00011294
0.00011294
0.000112939
0.000112939
0.000112939
0.000112939
0.000112939
0.000112938
0.000112938
0.000112938
0.000112938
0.000112938
0.000112938
0.000112938
0.000112938
0.000112938
0.000112938
0.000112938
0.000112938
0.000112939
0.000112939
0.00011294
0.00011294
0.000112941
0.000112941
0.000112942
0.000112942
0.000112943
0.000112943
0.000112944
0.000112944
0.000112944
0.000112945
0.000112945
0.000112945
0.000112945
0.000112946
0.000112946
0.000112946
0.000112946
0.000112946
0.000112946
0.000112949
0.000123601
0.000123598
0.000123596
0.000123596
0.000123595
0.000123595
0.000123595
0.000123595
0.000123596
0.000123596
0.000123596
0.000123596
0.000123597
0.000123597
0.000123598
0.000123598
0.000123599
0.0001236
0.0001236
0.000123601
0.000123602
0.000123602
0.000123603
0.000123604
0.000123604
0.000123605
0.000123606
0.000123606
0.000123607
0.000123608
0.000123608
0.000123609
0.000123609
0.00012361
0.000123611
0.000123611
0.000123612
0.000123612
0.000123613
0.000123613
0.000123614
0.000123614
0.000123615
0.000123615
0.000123615
0.000123616
0.000123616
0.000123616
0.000123617
0.000123617
0.000123617
0.000123617
0.000123616
0.000123616
0.000123616
0.000123615
0.000123614
0.000123613
0.000123613
0.000123612
0.000123611
0.000123611
0.00012361
0.000123609
0.000123609
0.000123608