/*--------------------------------*- C++ -*----------------------------------*\
  =========                 |
  \\      /  F ield         | OpenFOAM: The Open Source CFD Toolbox
   \\    /   O peration     | Website:  https://openfoam.org
    \\  /    A nd           | Version:  7
     \\/     M anipulation  |
\*---------------------------------------------------------------------------*/
FoamFile
{
    version     2.0;
    format      ascii;
    class       surfaceScalarField;
    location    "4000";
    object      phi;
}
// * * * * * * * * * * * * * * * * * * * * * * * * * * * * * * * * * * * * * //

dimensions      [0 3 -1 0 0 0 0];

internalField   nonuniform List<scalar> 
47680
(
2.19602e-06
-1.51305e-11
2.19602e-06
3.14061e-12
2.19602e-06
1.25941e-12
2.19602e-06
2.33682e-12
2.19601e-06
5.29762e-12
2.196e-06
7.23979e-12
2.196e-06
8.51346e-12
2.19599e-06
8.95757e-12
2.19598e-06
8.81384e-12
2.19597e-06
8.29193e-12
2.19596e-06
7.54302e-12
2.19596e-06
6.67739e-12
2.19595e-06
5.75982e-12
2.19595e-06
4.82487e-12
2.19594e-06
3.89067e-12
2.19594e-06
2.97277e-12
2.19594e-06
2.08922e-12
2.19593e-06
1.25663e-12
2.19593e-06
4.8606e-13
2.19593e-06
-2.19767e-13
2.19594e-06
-8.60842e-13
2.19594e-06
-1.43751e-12
2.19594e-06
-1.95072e-12
2.19594e-06
-2.40227e-12
2.19594e-06
-2.79613e-12
2.19595e-06
-3.13849e-12
2.19595e-06
-3.43622e-12
2.19595e-06
-3.69531e-12
2.19596e-06
-3.9203e-12
2.19596e-06
-4.1142e-12
2.19597e-06
-4.28037e-12
2.19597e-06
-4.42105e-12
2.19598e-06
-4.54031e-12
2.19598e-06
-4.6394e-12
2.19598e-06
-4.72099e-12
2.19599e-06
-4.78109e-12
2.19599e-06
-4.8221e-12
2.196e-06
-4.82531e-12
2.196e-06
-4.80377e-12
2.19601e-06
-4.68716e-12
2.19601e-06
-4.56912e-12
2.19602e-06
-4.13447e-12
2.19602e-06
-3.96335e-12
2.19602e-06
-2.75104e-12
2.19603e-06
-2.61947e-12
2.19603e-06
-9.42412e-13
2.19603e-06
1.45008e-12
2.19602e-06
1.61441e-12
2.19602e-06
1.57608e-12
2.19602e-06
7.28982e-13
2.19602e-06
4.7774e-13
2.19602e-06
-1.27606e-14
2.19602e-06
-4.83772e-13
2.19602e-06
-8.75484e-13
2.19602e-06
-1.18663e-12
2.19603e-06
-1.37595e-12
2.19603e-06
-1.42992e-12
2.19603e-06
-1.3402e-12
2.19603e-06
-1.11274e-12
2.19603e-06
-7.67642e-13
2.19603e-06
-3.37298e-13
2.19603e-06
1.40571e-13
2.19603e-06
6.29261e-13
2.19603e-06
1.0995e-12
2.19603e-06
1.52997e-12
2.19603e-06
1.90816e-12
2.19602e-06
2.22736e-12
2.19602e-06
2.48464e-12
2.19602e-06
2.67861e-12
2.19602e-06
2.8107e-12
2.19601e-06
2.88432e-12
2.19601e-06
2.90546e-12
2.19601e-06
2.88207e-12
2.196e-06
2.82226e-12
2.196e-06
2.73311e-12
2.196e-06
2.62052e-12
2.196e-06
2.48767e-12
2.19599e-06
2.33861e-12
2.19599e-06
2.17356e-12
2.19599e-06
1.99844e-12
2.19599e-06
1.80793e-12
2.19599e-06
1.61484e-12
2.19598e-06
1.39517e-12
2.19598e-06
1.18401e-12
2.19598e-06
9.13763e-13
2.19598e-06
6.60672e-13
2.19598e-06
3.47164e-13
2.19598e-06
2.15002e-13
2.19598e-06
1.97451e-13
2.19598e-06
1.81468e-13
2.19598e-06
2.55743e-13
2.19598e-06
1.57722e-13
2.19598e-06
4.40099e-14
2.19598e-06
-9.22967e-14
2.19598e-06
-2.49828e-13
2.19598e-06
-4.26678e-13
2.19598e-06
-6.1538e-13
2.19598e-06
-8.32595e-13
2.19598e-06
-1.01986e-12
2.19599e-06
-1.26194e-12
2.19599e-06
-1.26565e-12
2.19599e-06
-1.55271e-12
2.19599e-06
-9.31938e-13
2.19599e-06
-1.22241e-12
2.19599e-06
-3.38834e-13
2.19599e-06
1.96485e-12
2.19599e-06
1.91656e-12
2.19598e-06
1.55815e-12
2.19598e-06
8.52954e-13
2.19598e-06
-2.38684e-14
2.19598e-06
-8.05887e-13
2.19599e-06
-1.52294e-12
2.19599e-06
-2.0059e-12
2.19599e-06
-2.44011e-12
2.19599e-06
-2.39733e-12
2.196e-06
-2.70246e-12
2.196e-06
-1.31095e-12
2.196e-06
-3.45735e-12
2.196e-06
2.79158e-12
-1.06101e-11
6.78519e-06
-5.39246e-11
6.7852e-06
1.08669e-12
6.78519e-06
4.85317e-12
6.78518e-06
1.07101e-11
6.78517e-06
2.21679e-11
6.78514e-06
3.00013e-11
6.78512e-06
3.47929e-11
6.78509e-06
3.64051e-11
6.78506e-06
3.5711e-11
6.78504e-06
3.35322e-11
6.78502e-06
3.04618e-11
6.785e-06
2.69262e-11
6.78498e-06
2.31867e-11
6.78496e-06
1.93866e-11
6.78495e-06
1.56062e-11
6.78494e-06
1.19111e-11
6.78494e-06
8.36618e-12
6.78493e-06
5.02925e-12
6.78493e-06
1.93542e-12
6.78493e-06
-9.0394e-13
6.78493e-06
-3.48697e-12
6.78494e-06
-5.81137e-12
6.78494e-06
-7.87787e-12
6.78495e-06
-9.69537e-12
6.78496e-06
-1.12803e-11
6.78497e-06
-1.26578e-11
6.78498e-06
-1.38547e-11
6.78499e-06
-1.48948e-11
6.785e-06
-1.5795e-11
6.78502e-06
-1.65692e-11
6.78503e-06
-1.7229e-11
6.78504e-06
-1.77864e-11
6.78506e-06
-1.82552e-11
6.78507e-06
-1.86443e-11
6.78508e-06
-1.89614e-11
6.7851e-06
-1.91989e-11
6.78511e-06
-1.93511e-11
6.78513e-06
-1.9384e-11
6.78514e-06
-1.92798e-11
6.78516e-06
-1.89083e-11
6.78517e-06
-1.83695e-11
6.78518e-06
-1.69651e-11
6.7852e-06
-1.60059e-11
6.7852e-06
-1.20299e-11
6.78521e-06
-1.09689e-11
6.78522e-06
-5.05146e-12
6.78522e-06
3.35952e-12
6.78521e-06
5.00008e-12
6.78521e-06
5.0072e-12
6.78521e-06
2.41631e-12
6.78521e-06
1.34161e-12
6.78521e-06
-3.1613e-13
6.78521e-06
-2.00369e-12
6.78521e-06
-3.42636e-12
6.78521e-06
-4.53747e-12
6.78522e-06
-5.18772e-12
6.78522e-06
-5.31082e-12
6.78522e-06
-4.87491e-12
6.78523e-06
-3.905e-12
6.78523e-06
-2.48322e-12
6.78523e-06
-7.39445e-13
6.78523e-06
1.1772e-12
6.78523e-06
3.12531e-12
6.78522e-06
4.98889e-12
6.78522e-06
6.68763e-12
6.78521e-06
8.1738e-12
6.7852e-06
9.42186e-12
6.7852e-06
1.04209e-11
6.78519e-06
1.11676e-11
6.78518e-06
1.16677e-11
6.78517e-06
1.19359e-11
6.78516e-06
1.19969e-11
6.78515e-06
1.18818e-11
6.78514e-06
1.1623e-11
6.78513e-06
1.12489e-11
6.78513e-06
1.0782e-11
6.78512e-06
1.02369e-11
6.78511e-06
9.62882e-12
6.7851e-06
8.96378e-12
6.7851e-06
8.25678e-12
6.78509e-06
7.50104e-12
6.78509e-06
6.72564e-12
6.78508e-06
5.87322e-12
6.78508e-06
5.02419e-12
6.78508e-06
3.99928e-12
6.78507e-06
2.98945e-12
6.78507e-06
1.81263e-12
6.78507e-06
1.21876e-12
6.78507e-06
1.05172e-12
6.78507e-06
9.69489e-13
6.78507e-06
1.15853e-12
6.78507e-06
8.3334e-13
6.78507e-06
3.88907e-13
6.78507e-06
-1.46961e-13
6.78507e-06
-7.82466e-13
6.78507e-06
-1.50236e-12
6.78507e-06
-2.30682e-12
6.78507e-06
-3.1998e-12
6.78508e-06
-4.0745e-12
6.78508e-06
-5.02295e-12
6.78508e-06
-5.36731e-12
6.78509e-06
-6.30364e-12
6.78509e-06
-4.57976e-12
6.7851e-06
-5.37613e-12
6.7851e-06
-2.32114e-12
6.78509e-06
5.37493e-12
6.78509e-06
6.1058e-12
6.78509e-06
4.98424e-12
6.78509e-06
2.56664e-12
6.78509e-06
-5.36506e-13
6.78509e-06
-3.45763e-12
6.78509e-06
-6.06217e-12
6.7851e-06
-8.02577e-12
6.78511e-06
-9.44207e-12
6.78511e-06
-9.80221e-12
6.78512e-06
-1.00748e-11
6.78513e-06
-6.70211e-12
6.78513e-06
-1.14544e-11
6.78513e-06
6.63647e-12
-3.53297e-11
1.16837e-05
-1.12162e-10
1.16837e-05
-1.29287e-11
1.16837e-05
9.07974e-12
1.16837e-05
2.68884e-11
1.16837e-05
5.22262e-11
1.16837e-05
6.97908e-11
1.16836e-05
8.0026e-11
1.16836e-05
8.32678e-11
1.16835e-05
8.14212e-11
1.16835e-05
7.62941e-11
1.16834e-05
6.9201e-11
1.16834e-05
6.10806e-11
1.16834e-05
5.25174e-11
1.16834e-05
4.384e-11
1.16833e-05
3.52373e-11
1.16833e-05
2.68565e-11
1.16833e-05
1.88358e-11
1.16833e-05
1.12907e-11
1.16833e-05
4.28893e-12
1.16833e-05
-2.14826e-12
1.16833e-05
-8.00838e-12
1.16833e-05
-1.32824e-11
1.16833e-05
-1.797e-11
1.16833e-05
-2.20908e-11
1.16833e-05
-2.5683e-11
1.16834e-05
-2.88041e-11
1.16834e-05
-3.15145e-11
1.16834e-05
-3.38661e-11
1.16834e-05
-3.58983e-11
1.16834e-05
-3.7641e-11
1.16835e-05
-3.9121e-11
1.16835e-05
-4.03678e-11
1.16835e-05
-4.1411e-11
1.16835e-05
-4.22751e-11
1.16836e-05
-4.2973e-11
1.16836e-05
-4.35002e-11
1.16836e-05
-4.38296e-11
1.16836e-05
-4.39213e-11
1.16837e-05
-4.36824e-11
1.16837e-05
-4.29526e-11
1.16837e-05
-4.17203e-11
1.16837e-05
-3.89606e-11
1.16837e-05
-3.65865e-11
1.16838e-05
-2.87816e-11
1.16838e-05
-2.58146e-11
1.16838e-05
-1.36996e-11
1.16838e-05
3.50592e-12
1.16838e-05
8.41542e-12
1.16838e-05
8.96995e-12
1.16838e-05
4.32185e-12
1.16838e-05
2.0026e-12
1.16838e-05
-1.27521e-12
1.16838e-05
-4.69921e-12
1.16838e-05
-7.62754e-12
1.16838e-05
-9.87809e-12
1.16838e-05
-1.11322e-11
1.16838e-05
-1.12228e-11
1.16838e-05
-1.00819e-11
1.16838e-05
-7.76761e-12
1.16838e-05
-4.47124e-12
1.16838e-05
-4.85569e-13
1.16838e-05
3.85569e-12
1.16838e-05
8.24022e-12
1.16838e-05
1.24138e-11
1.16838e-05
1.62022e-11
1.16838e-05
1.95022e-11
1.16838e-05
2.22599e-11
1.16837e-05
2.44542e-11
1.16837e-05
2.6079e-11
1.16837e-05
2.71505e-11
1.16837e-05
2.7703e-11
1.16837e-05
2.77919e-11
1.16837e-05
2.74885e-11
1.16837e-05
2.68633e-11
1.16836e-05
2.59812e-11
1.16836e-05
2.48934e-11
1.16836e-05
2.3636e-11
1.16836e-05
2.22395e-11
1.16836e-05
2.07245e-11
1.16836e-05
1.91193e-11
1.16836e-05
1.742e-11
1.16836e-05
1.56705e-11
1.16836e-05
1.3781e-11
1.16835e-05
1.18717e-11
1.16835e-05
9.6395e-12
1.16835e-05
7.38728e-12
1.16835e-05
4.84413e-12
1.16835e-05
3.41057e-12
1.16835e-05
2.87918e-12
1.16835e-05
2.63033e-12
1.16835e-05
2.89882e-12
1.16835e-05
2.24133e-12
1.16835e-05
1.26757e-12
1.16835e-05
6.8477e-14
1.16835e-05
-1.37574e-12
1.16835e-05
-3.03651e-12
1.16835e-05
-4.93362e-12
1.16835e-05
-7.02632e-12
1.16835e-05
-9.18169e-12
1.16835e-05
-1.13879e-11
1.16835e-05
-1.25993e-11
1.16836e-05
-1.4576e-11
1.16836e-05
-1.1737e-11
1.16836e-05
-1.31435e-11
1.16836e-05
-7.09379e-12
1.16836e-05
8.01072e-12
1.16836e-05
1.07433e-11
1.16836e-05
8.90148e-12
1.16836e-05
4.1493e-12
1.16836e-05
-2.14406e-12
1.16836e-05
-8.29373e-12
1.16836e-05
-1.37527e-11
1.16836e-05
-1.80739e-11
1.16836e-05
-2.09412e-11
1.16836e-05
-2.21846e-11
1.16836e-05
-2.20221e-11
1.16836e-05
-1.66354e-11
1.16836e-05
-2.33052e-11
1.16836e-05
9.28541e-12
-6.93809e-11
1.68818e-05
-1.8684e-10
1.68819e-05
-4.06553e-11
1.68819e-05
1.27096e-11
1.68818e-05
5.26931e-11
1.68818e-05
9.72192e-11
1.68817e-05
1.27827e-10
1.68817e-05
1.44919e-10
1.68816e-05
1.49861e-10
1.68815e-05
1.46011e-10
1.68815e-05
1.36485e-10
1.68814e-05
1.2357e-10
1.68814e-05
1.08892e-10
1.68813e-05
9.34764e-11
1.68813e-05
7.79061e-11
1.68813e-05
6.25196e-11
1.68813e-05
4.75705e-11
1.68812e-05
3.32881e-11
1.68812e-05
1.98563e-11
1.68812e-05
7.37917e-12
1.68812e-05
-4.10671e-12
1.68812e-05
-1.45711e-11
1.68812e-05
-2.39896e-11
1.68813e-05
-3.23593e-11
1.68813e-05
-3.97136e-11
1.68813e-05
-4.61231e-11
1.68813e-05
-5.16897e-11
1.68813e-05
-5.6522e-11
1.68814e-05
-6.07108e-11
1.68814e-05
-6.43252e-11
1.68814e-05
-6.74166e-11
1.68815e-05
-7.00351e-11
1.68815e-05
-7.22341e-11
1.68815e-05
-7.40668e-11
1.68816e-05
-7.55801e-11
1.68816e-05
-7.67949e-11
1.68816e-05
-7.77145e-11
1.68817e-05
-7.82862e-11
1.68817e-05
-7.84619e-11
1.68817e-05
-7.80579e-11
1.68818e-05
-7.68771e-11
1.68818e-05
-7.47523e-11
1.68818e-05
-7.03253e-11
1.68819e-05
-6.60368e-11
1.68819e-05
-5.36343e-11
1.68819e-05
-4.78582e-11
1.68819e-05
-2.80795e-11
1.68819e-05
-2.5288e-14
1.68819e-05
9.98642e-12
1.68819e-05
1.20377e-11
1.68819e-05
5.49716e-12
1.68819e-05
1.81182e-12
1.68819e-05
-3.31691e-12
1.68819e-05
-8.74146e-12
1.68819e-05
-1.34425e-11
1.68819e-05
-1.69863e-11
1.68819e-05
-1.88216e-11
1.68819e-05
-1.86365e-11
1.6882e-05
-1.63111e-11
1.6882e-05
-1.19609e-11
1.6882e-05
-5.93311e-12
1.6882e-05
1.24966e-12
1.6882e-05
9.00028e-12
1.68819e-05
1.67747e-11
1.68819e-05
2.41349e-11
1.68819e-05
3.07825e-11
1.68819e-05
3.6545e-11
1.68819e-05
4.13363e-11
1.68819e-05
4.51222e-11
1.68818e-05
4.78997e-11
1.68818e-05
4.96992e-11
1.68818e-05
5.05846e-11
1.68818e-05
5.06545e-11
1.68818e-05
5.00333e-11
1.68817e-05
4.88478e-11
1.68817e-05
4.7211e-11
1.68817e-05
4.5215e-11
1.68817e-05
4.2927e-11
1.68816e-05
4.04023e-11
1.68816e-05
3.76816e-11
1.68816e-05
3.48107e-11
1.68816e-05
3.17938e-11
1.68816e-05
2.86887e-11
1.68816e-05
2.53734e-11
1.68816e-05
2.20033e-11
1.68816e-05
1.81433e-11
1.68816e-05
1.4203e-11
1.68815e-05
9.83497e-12
1.68815e-05
7.17013e-12
1.68815e-05
5.99993e-12
1.68815e-05
5.42461e-12
1.68815e-05
5.67883e-12
1.68815e-05
4.57794e-12
1.68815e-05
2.89536e-12
1.68815e-05
7.72761e-13
1.68815e-05
-1.82161e-12
1.68815e-05
-4.85116e-12
1.68815e-05
-8.36234e-12
1.68815e-05
-1.22526e-11
1.68815e-05
-1.63506e-11
1.68816e-05
-2.04802e-11
1.68816e-05
-2.31951e-11
1.68816e-05
-2.6731e-11
1.68816e-05
-2.30547e-11
1.68816e-05
-2.52253e-11
1.68816e-05
-1.57653e-11
1.68816e-05
7.95251e-12
1.68816e-05
1.38749e-11
1.68816e-05
1.178e-11
1.68816e-05
4.47534e-12
1.68816e-05
-5.56672e-12
1.68816e-05
-1.56846e-11
1.68816e-05
-2.47334e-11
1.68816e-05
-3.20628e-11
1.68817e-05
-3.68292e-11
1.68817e-05
-3.92447e-11
1.68817e-05
-3.853e-11
1.68817e-05
-3.094e-11
1.68817e-05
-3.89704e-11
1.68817e-05
9.96829e-12
-1.10396e-10
2.23006e-05
-2.74227e-10
2.23007e-05
-7.91614e-11
2.23007e-05
1.68932e-11
2.23006e-05
8.9233e-11
2.23006e-05
1.57507e-10
2.23005e-05
2.03414e-10
2.23004e-05
2.28057e-10
2.23003e-05
2.34387e-10
2.23003e-05
2.27562e-10
2.23002e-05
2.12224e-10
2.23001e-05
1.91818e-10
2.23001e-05
1.6879e-10
2.23e-05
1.44696e-10
2.23e-05
1.2043e-10
2.22999e-05
9.65136e-11
2.22999e-05
7.33278e-11
2.22999e-05
5.11987e-11
2.22999e-05
3.03837e-11
2.22999e-05
1.1025e-11
2.22999e-05
-6.81888e-12
2.22999e-05
-2.30927e-11
2.22999e-05
-3.77467e-11
2.22999e-05
-5.07722e-11
2.22999e-05
-6.22169e-11
2.23e-05
-7.21925e-11
2.23e-05
-8.08579e-11
2.23e-05
-8.8379e-11
2.23001e-05
-9.4897e-11
2.23001e-05
-1.00515e-10
2.23001e-05
-1.05313e-10
2.23002e-05
-1.09369e-10
2.23002e-05
-1.12768e-10
2.23003e-05
-1.15593e-10
2.23003e-05
-1.17919e-10
2.23003e-05
-1.19781e-10
2.23004e-05
-1.21191e-10
2.23004e-05
-1.22074e-10
2.23005e-05
-1.22366e-10
2.23005e-05
-1.21793e-10
2.23006e-05
-1.20102e-10
2.23006e-05
-1.16961e-10
2.23006e-05
-1.10653e-10
2.23007e-05
-1.04094e-10
2.23007e-05
-8.6616e-11
2.23007e-05
-7.73038e-11
2.23008e-05
-4.88677e-11
2.23008e-05
-8.60774e-12
2.23008e-05
8.13497e-12
2.23008e-05
1.28759e-11
2.23008e-05
5.03297e-12
2.23008e-05
1.87161e-13
2.23008e-05
-6.76112e-12
2.23008e-05
-1.41917e-11
2.23008e-05
-2.06961e-11
2.23008e-05
-2.54829e-11
2.23008e-05
-2.77064e-11
2.23008e-05
-2.68708e-11
2.23008e-05
-2.28002e-11
2.23008e-05
-1.5692e-11
2.23008e-05
-6.09643e-12
2.23008e-05
5.17489e-12
2.23008e-05
1.72239e-11
2.23008e-05
2.92245e-11
2.23008e-05
4.05207e-11
2.23008e-05
5.06724e-11
2.23007e-05
5.94295e-11
2.23007e-05
6.66733e-11
2.23007e-05
7.23595e-11
2.23007e-05
7.6493e-11
2.23006e-05
7.91237e-11
2.23006e-05
8.03526e-11
2.23006e-05
8.03343e-11
2.23005e-05
7.92571e-11
2.23005e-05
7.73153e-11
2.23005e-05
7.46836e-11
2.23005e-05
7.15044e-11
2.23004e-05
6.7885e-11
2.23004e-05
6.39136e-11
2.23004e-05
5.96574e-11
2.23004e-05
5.51846e-11
2.23004e-05
5.05107e-11
2.23003e-05
4.5709e-11
2.23003e-05
4.06238e-11
2.23003e-05
3.54418e-11
2.23003e-05
2.95929e-11
2.23003e-05
2.35843e-11
2.23003e-05
1.70039e-11
2.23003e-05
1.274e-11
2.23003e-05
1.06315e-11
2.23003e-05
9.52827e-12
2.23003e-05
9.62794e-12
2.23003e-05
7.96213e-12
2.23003e-05
5.40641e-12
2.23003e-05
2.11097e-12
2.23003e-05
-1.97104e-12
2.23003e-05
-6.81153e-12
2.23003e-05
-1.24762e-11
2.23003e-05
-1.87957e-11
2.23003e-05
-2.55254e-11
2.23003e-05
-3.2293e-11
2.23003e-05
-3.72037e-11
2.23003e-05
-4.28834e-11
2.23003e-05
-3.88433e-11
2.23003e-05
-4.2003e-11
2.23004e-05
-2.90363e-11
2.23004e-05
3.82586e-12
2.23004e-05
1.39108e-11
2.23004e-05
1.22848e-11
2.23004e-05
2.61456e-12
2.23004e-05
-1.13081e-11
2.23004e-05
-2.57408e-11
2.23004e-05
-3.88173e-11
2.23004e-05
-4.95576e-11
2.23004e-05
-5.65753e-11
2.23005e-05
-6.03241e-11
2.23005e-05
-5.90953e-11
2.23005e-05
-4.91395e-11
2.23005e-05
-5.80147e-11
2.23005e-05
8.479e-12
-1.57303e-10
2.77571e-05
-3.66583e-10
2.77572e-05
-1.21789e-10
2.77572e-05
2.39837e-11
2.77571e-05
1.35417e-10
2.7757e-05
2.29974e-10
2.7757e-05
2.9198e-10
2.77569e-05
3.24158e-10
2.77568e-05
3.31445e-10
2.77567e-05
3.20941e-10
2.77566e-05
2.98869e-10
2.77565e-05
2.69891e-10
2.77564e-05
2.37331e-10
2.77564e-05
2.0333e-10
2.77563e-05
1.69135e-10
2.77563e-05
1.35479e-10
2.77563e-05
1.02885e-10
2.77562e-05
7.17846e-11
2.77562e-05
4.25082e-11
2.77562e-05
1.52383e-11
2.77562e-05
-9.93829e-12
2.77562e-05
-3.29354e-11
2.77563e-05
-5.36708e-11
2.77563e-05
-7.21208e-11
2.77563e-05
-8.83456e-11
2.77563e-05
-1.02501e-10
2.77564e-05
-1.14809e-10
2.77564e-05
-1.25502e-10
2.77564e-05
-1.34773e-10
2.77565e-05
-1.42765e-10
2.77565e-05
-1.49592e-10
2.77566e-05
-1.55361e-10
2.77566e-05
-1.60191e-10
2.77567e-05
-1.64204e-10
2.77567e-05
-1.67507e-10
2.77568e-05
-1.70154e-10
2.77568e-05
-1.72166e-10
2.77569e-05
-1.73449e-10
2.77569e-05
-1.73921e-10
2.7757e-05
-1.73219e-10
2.7757e-05
-1.71021e-10
2.77571e-05
-1.66834e-10
2.77571e-05
-1.58567e-10
2.77572e-05
-1.4956e-10
2.77572e-05
-1.26819e-10
2.77572e-05
-1.1351e-10
2.77573e-05
-7.59198e-11
2.77573e-05
-2.27564e-11
2.77573e-05
1.9733e-12
2.77573e-05
1.06208e-11
2.77573e-05
2.36298e-12
2.77573e-05
-3.14887e-12
2.77573e-05
-1.16225e-11
2.77573e-05
-2.08272e-11
2.77573e-05
-2.89422e-11
2.77573e-05
-3.47402e-11
2.77573e-05
-3.70333e-11
2.77573e-05
-3.51198e-11
2.77574e-05
-2.87723e-11
2.77574e-05
-1.8295e-11
2.77574e-05
-4.47788e-12
2.77573e-05
1.15419e-11
2.77573e-05
2.85176e-11
2.77573e-05
4.53135e-11
2.77573e-05
6.10421e-11
2.77573e-05
7.51163e-11
2.77572e-05
8.72082e-11
2.77572e-05
9.71691e-11
2.77572e-05
1.0495e-10
2.77572e-05
1.10564e-10
2.77571e-05
1.14087e-10
2.77571e-05
1.15662e-10
2.7757e-05
1.15503e-10
2.7757e-05
1.13871e-10
2.7757e-05
1.11033e-10
2.77569e-05
1.07235e-10
2.77569e-05
1.02674e-10
2.77569e-05
9.75046e-11
2.77569e-05
9.18531e-11
2.77568e-05
8.5818e-11
2.77568e-05
7.94947e-11
2.77568e-05
7.29124e-11
2.77568e-05
6.61604e-11
2.77567e-05
5.90506e-11
2.77567e-05
5.17983e-11
2.77567e-05
4.36981e-11
2.77567e-05
3.53444e-11
2.77567e-05
2.62685e-11
2.77567e-05
2.01043e-11
2.77567e-05
1.67797e-11
2.77567e-05
1.4934e-11
2.77567e-05
1.47138e-11
2.77567e-05
1.23589e-11
2.77567e-05
8.78197e-12
2.77567e-05
4.0918e-12
2.77567e-05
-1.78836e-12
2.77567e-05
-8.85027e-12
2.77567e-05
-1.71712e-11
2.77567e-05
-2.65019e-11
2.77567e-05
-3.64899e-11
2.77567e-05
-4.65446e-11
2.77567e-05
-5.42844e-11
2.77567e-05
-6.26484e-11
2.77568e-05
-5.877e-11
2.77568e-05
-6.31694e-11
2.77568e-05
-4.68422e-11
2.77568e-05
-4.80812e-12
2.77568e-05
1.01407e-11
2.77568e-05
9.80001e-12
2.77568e-05
-1.70138e-12
2.77568e-05
-1.92274e-11
2.77568e-05
-3.79255e-11
2.77568e-05
-5.5143e-11
2.77569e-05
-6.94594e-11
2.77569e-05
-7.89493e-11
2.77569e-05
-8.41475e-11
2.77569e-05
-8.253e-11
2.7757e-05
-7.0237e-11
2.7757e-05
-7.94272e-11
2.7757e-05
4.85807e-12
-2.07189e-10
3.30267e-05
-4.50875e-10
3.30268e-05
-1.60972e-10
3.30268e-05
3.50078e-11
3.30267e-05
1.87383e-10
3.30266e-05
3.08347e-10
3.30265e-05
3.85952e-10
3.30264e-05
4.25204e-10
3.30263e-05
4.33199e-10
3.30262e-05
4.18898e-10
3.30262e-05
3.89986e-10
3.30261e-05
3.52266e-10
3.3026e-05
3.0991e-10
3.30259e-05
2.65648e-10
3.30259e-05
2.211e-10
3.30258e-05
1.77236e-10
3.30258e-05
1.34745e-10
3.30258e-05
9.41743e-11
3.30258e-05
5.59258e-11
3.30258e-05
2.02257e-11
3.30258e-05
-1.28041e-11
3.30258e-05
-4.30413e-11
3.30258e-05
-7.0366e-11
3.30258e-05
-9.4727e-11
3.30258e-05
-1.16192e-10
3.30259e-05
-1.34957e-10
3.30259e-05
-1.51308e-10
3.3026e-05
-1.6554e-10
3.3026e-05
-1.77903e-10
3.3026e-05
-1.88579e-10
3.30261e-05
-1.97711e-10
3.30261e-05
-2.0544e-10
3.30262e-05
-2.11925e-10
3.30262e-05
-2.17324e-10
3.30263e-05
-2.2178e-10
3.30264e-05
-2.25368e-10
3.30264e-05
-2.28122e-10
3.30265e-05
-2.29932e-10
3.30265e-05
-2.30693e-10
3.30266e-05
-2.29963e-10
3.30266e-05
-2.27342e-10
3.30267e-05
-2.22185e-10
3.30267e-05
-2.12024e-10
3.30268e-05
-2.00573e-10
3.30268e-05
-1.72642e-10
3.30269e-05
-1.55169e-10
3.30269e-05
-1.08385e-10
3.30269e-05
-4.21768e-11
3.3027e-05
-8.63897e-12
3.3027e-05
4.97875e-12
3.3027e-05
-2.68138e-12
3.3027e-05
-8.16992e-12
3.3027e-05
-1.76568e-11
3.3027e-05
-2.82086e-11
3.3027e-05
-3.7557e-11
3.3027e-05
-4.39932e-11
3.3027e-05
-4.59661e-11
3.3027e-05
-4.25669e-11
3.3027e-05
-3.35333e-11
3.3027e-05
-1.92968e-11
3.3027e-05
-9.05002e-13
3.3027e-05
2.0169e-11
3.3027e-05
4.23254e-11
3.3027e-05
6.41217e-11
3.3027e-05
8.4447e-11
3.30269e-05
1.02575e-10
3.30269e-05
1.18109e-10
3.30269e-05
1.30875e-10
3.30268e-05
1.40819e-10
3.30268e-05
1.47967e-10
3.30267e-05
1.52416e-10
3.30267e-05
1.54351e-10
3.30267e-05
1.54047e-10
3.30266e-05
1.51837e-10
3.30266e-05
1.48064e-10
3.30266e-05
1.43041e-10
3.30265e-05
1.37024e-10
3.30265e-05
1.30217e-10
3.30265e-05
1.22783e-10
3.30264e-05
1.14857e-10
3.30264e-05
1.06562e-10
3.30264e-05
9.79431e-11
3.30264e-05
8.91083e-11
3.30263e-05
7.98382e-11
3.30263e-05
7.03753e-11
3.30263e-05
5.98825e-11
3.30263e-05
4.90304e-11
3.30263e-05
3.72946e-11
3.30263e-05
2.9021e-11
3.30263e-05
2.42555e-11
3.30263e-05
2.14731e-11
3.30262e-05
2.0766e-11
3.30262e-05
1.76017e-11
3.30262e-05
1.28716e-11
3.30262e-05
6.59498e-12
3.30262e-05
-1.35293e-12
3.30262e-05
-1.09876e-11
3.30262e-05
-2.23845e-11
3.30263e-05
-3.51962e-11
3.30263e-05
-4.89319e-11
3.30263e-05
-6.27639e-11
3.30263e-05
-7.38109e-11
3.30263e-05
-8.52629e-11
3.30263e-05
-8.19944e-11
3.30264e-05
-8.78467e-11
3.30264e-05
-6.84465e-11
3.30264e-05
-1.75226e-11
3.30264e-05
2.74181e-12
3.30264e-05
4.4752e-12
3.30264e-05
-8.09659e-12
3.30264e-05
-2.86267e-11
3.30264e-05
-5.12068e-11
3.30265e-05
-7.23837e-11
3.30265e-05
-9.02347e-11
3.30265e-05
-1.02288e-10
3.30265e-05
-1.09052e-10
3.30266e-05
-1.07226e-10
3.30266e-05
-9.28825e-11
3.30266e-05
-1.01769e-10
3.30266e-05
-1.10989e-12
-2.535e-10
3.79646e-05
-5.14053e-10
3.79646e-05
-1.89707e-10
3.79646e-05
5.01095e-11
3.79645e-05
2.40728e-10
3.79644e-05
3.8633e-10
3.79643e-05
4.78243e-10
3.79642e-05
5.23915e-10
3.79641e-05
5.32583e-10
3.7964e-05
5.14869e-10
3.7964e-05
4.79698e-10
3.79639e-05
4.33847e-10
3.79638e-05
3.82239e-10
3.79637e-05
3.28144e-10
3.79637e-05
2.73552e-10
3.79636e-05
2.19694e-10
3.79636e-05
1.67443e-10
3.79636e-05
1.17475e-10
3.79636e-05
7.02671e-11
3.79636e-05
2.60907e-11
3.79636e-05
-1.48909e-11
3.79636e-05
-5.25132e-11
3.79636e-05
-8.661e-11
3.79636e-05
-1.17095e-10
3.79636e-05
-1.44034e-10
3.79637e-05
-1.67656e-10
3.79637e-05
-1.88303e-10
3.79638e-05
-2.06331e-10
3.79638e-05
-2.22037e-10
3.79639e-05
-2.35638e-10
3.79639e-05
-2.47308e-10
3.7964e-05
-2.57219e-10
3.7964e-05
-2.65567e-10
3.79641e-05
-2.72549e-10
3.79641e-05
-2.78344e-10
3.79642e-05
-2.83051e-10
3.79642e-05
-2.86713e-10
3.79643e-05
-2.89206e-10
3.79644e-05
-2.90408e-10
3.79644e-05
-2.89801e-10
3.79645e-05
-2.86908e-10
3.79645e-05
-2.80936e-10
3.79646e-05
-2.69054e-10
3.79646e-05
-2.55306e-10
3.79647e-05
-2.22433e-10
3.79647e-05
-2.0087e-10
3.79648e-05
-1.45165e-10
3.79648e-05
-6.61416e-11
3.79648e-05
-2.33763e-11
3.79648e-05
-3.9871e-12
3.79648e-05
-1.0084e-11
3.79648e-05
-1.47784e-11
3.79648e-05
-2.46235e-11
3.79649e-05
-3.59451e-11
3.79649e-05
-4.59958e-11
3.79649e-05
-5.25714e-11
3.79649e-05
-5.37669e-11
3.79649e-05
-4.84904e-11
3.79649e-05
-3.64718e-11
3.79649e-05
-1.82869e-11
3.79649e-05
4.7579e-12
3.79649e-05
3.08669e-11
3.79649e-05
5.81158e-11
3.79648e-05
8.47852e-11
3.79648e-05
1.09566e-10
3.79648e-05
1.31616e-10
3.79647e-05
1.50483e-10
3.79647e-05
1.65973e-10
3.79647e-05
1.78031e-10
3.79646e-05
1.86689e-10
3.79646e-05
1.92064e-10
3.79646e-05
1.94378e-10
3.79645e-05
1.93961e-10
3.79645e-05
1.91213e-10
3.79644e-05
1.86549e-10
3.79644e-05
1.80343e-10
3.79644e-05
1.72908e-10
3.79643e-05
1.6449e-10
3.79643e-05
1.55293e-10
3.79643e-05
1.45482e-10
3.79642e-05
1.35213e-10
3.79642e-05
1.24546e-10
3.79642e-05
1.13607e-10
3.79642e-05
1.0215e-10
3.79641e-05
9.0443e-11
3.79641e-05
7.75247e-11
3.79641e-05
6.41294e-11
3.79641e-05
4.9674e-11
3.79641e-05
3.9174e-11
3.79641e-05
3.28119e-11
3.79641e-05
2.89352e-11
3.79641e-05
2.75894e-11
3.79641e-05
2.34981e-11
3.79641e-05
1.74843e-11
3.79641e-05
9.44056e-12
3.79641e-05
-8.20483e-13
3.79641e-05
-1.33339e-11
3.79641e-05
-2.81532e-11
3.79641e-05
-4.48075e-11
3.79641e-05
-6.26422e-11
3.79641e-05
-8.05775e-11
3.79641e-05
-9.52403e-11
3.79641e-05
-1.10026e-10
3.79642e-05
-1.07684e-10
3.79642e-05
-1.15136e-10
3.79642e-05
-9.2978e-11
3.79642e-05
-3.35657e-11
3.79643e-05
-7.73301e-12
3.79643e-05
-3.25361e-12
3.79643e-05
-1.60664e-11
3.79643e-05
-3.88223e-11
3.79643e-05
-6.46723e-11
3.79643e-05
-8.93991e-11
3.79643e-05
-1.1057e-10
3.79644e-05
-1.25148e-10
3.79644e-05
-1.33576e-10
3.79644e-05
-1.31726e-10
3.79644e-05
-1.15815e-10
3.79644e-05
-1.23629e-10
3.79645e-05
-9.71709e-12
-2.89699e-10
4.25424e-05
-5.49074e-10
4.25424e-05
-2.02275e-10
4.25424e-05
7.06071e-11
4.25424e-05
2.93191e-10
4.25423e-05
4.60105e-10
4.25422e-05
5.64482e-10
4.25421e-05
6.15765e-10
4.2542e-05
6.25109e-10
4.25419e-05
6.04546e-10
4.25418e-05
5.63999e-10
4.25418e-05
5.11028e-10
4.25417e-05
4.51163e-10
4.25416e-05
3.88137e-10
4.25416e-05
3.24284e-10
4.25415e-05
2.61099e-10
4.25415e-05
1.99657e-10
4.25415e-05
1.40768e-10
4.25415e-05
8.49882e-11
4.25415e-05
3.26352e-11
4.25415e-05
-1.6084e-11
4.25415e-05
-6.09537e-11
4.25415e-05
-1.01754e-10
4.25415e-05
-1.38357e-10
4.25415e-05
-1.70816e-10
4.25416e-05
-1.99386e-10
4.25416e-05
-2.24455e-10
4.25416e-05
-2.46429e-10
4.25417e-05
-2.65644e-10
4.25417e-05
-2.82347e-10
4.25418e-05
-2.96738e-10
4.25418e-05
-3.09016e-10
4.25419e-05
-3.19414e-10
4.25419e-05
-3.28165e-10
4.2542e-05
-3.35483e-10
4.25421e-05
-3.41488e-10
4.25421e-05
-3.46234e-10
4.25422e-05
-3.49584e-10
4.25422e-05
-3.514e-10
4.25423e-05
-3.51092e-10
4.25424e-05
-3.48113e-10
4.25424e-05
-3.41522e-10
4.25425e-05
-3.28152e-10
4.25425e-05
-3.12331e-10
4.25426e-05
-2.74851e-10
4.25426e-05
-2.49427e-10
4.25427e-05
-1.85225e-10
4.25427e-05
-9.38012e-11
4.25427e-05
-4.16952e-11
4.25427e-05
-1.6023e-11
4.25427e-05
-1.97603e-11
4.25428e-05
-2.29122e-11
4.25428e-05
-3.23935e-11
4.25428e-05
-4.38e-11
4.25428e-05
-5.38899e-11
4.25428e-05
-5.99806e-11
4.25428e-05
-5.98536e-11
4.25428e-05
-5.22813e-11
4.25428e-05
-3.70235e-11
4.25428e-05
-1.48152e-11
4.25428e-05
1.27869e-11
4.25428e-05
4.36992e-11
4.25428e-05
7.57199e-11
4.25427e-05
1.069e-10
4.25427e-05
1.35776e-10
4.25427e-05
1.61416e-10
4.25426e-05
1.83335e-10
4.25426e-05
2.01327e-10
4.25426e-05
2.15338e-10
4.25425e-05
2.25403e-10
4.25425e-05
2.31653e-10
4.25425e-05
2.3434e-10
4.25424e-05
2.33842e-10
4.25424e-05
2.30617e-10
4.25423e-05
2.25143e-10
4.25423e-05
2.17849e-10
4.25423e-05
2.09095e-10
4.25422e-05
1.99165e-10
4.25422e-05
1.88299e-10
4.25422e-05
1.7669e-10
4.25421e-05
1.64523e-10
4.25421e-05
1.51875e-10
4.25421e-05
1.38891e-10
4.25421e-05
1.253e-10
4.2542e-05
1.11393e-10
4.2542e-05
9.6093e-11
4.2542e-05
8.0187e-11
4.2542e-05
6.30284e-11
4.2542e-05
5.02622e-11
4.2542e-05
4.22157e-11
4.2542e-05
3.71341e-11
4.25419e-05
3.50204e-11
4.25419e-05
2.98813e-11
4.25419e-05
2.24365e-11
4.25419e-05
1.24292e-11
4.25419e-05
-3.97998e-13
4.25419e-05
-1.60849e-11
4.25419e-05
-3.4635e-11
4.2542e-05
-5.54245e-11
4.2542e-05
-7.76133e-11
4.2542e-05
-9.98574e-11
4.2542e-05
-1.18312e-10
4.2542e-05
-1.36549e-10
4.25421e-05
-1.35317e-10
4.25421e-05
-1.44453e-10
4.25421e-05
-1.19797e-10
4.25421e-05
-5.22717e-11
4.25422e-05
-2.07464e-11
4.25422e-05
-1.30042e-11
4.25422e-05
-2.52844e-11
4.25422e-05
-4.94449e-11
4.25422e-05
-7.78404e-11
4.25422e-05
-1.0556e-10
4.25422e-05
-1.29696e-10
4.25423e-05
-1.46639e-10
4.25423e-05
-1.56764e-10
4.25423e-05
-1.55025e-10
4.25423e-05
-1.38104e-10
4.25423e-05
-1.43967e-10
4.25424e-05
-2.07744e-11
-3.13031e-10
4.68021e-05
-5.55683e-10
4.68021e-05
-1.95502e-10
4.68021e-05
9.89238e-11
4.6802e-05
3.45114e-10
4.6802e-05
5.28657e-10
4.68019e-05
6.43042e-10
4.68018e-05
6.98856e-10
4.68017e-05
7.08721e-10
4.68016e-05
6.85778e-10
4.68016e-05
6.40716e-10
4.68015e-05
5.81685e-10
4.68014e-05
5.14685e-10
4.68014e-05
4.43809e-10
4.68013e-05
3.71691e-10
4.68013e-05
3.00079e-10
4.68013e-05
2.3025e-10
4.68012e-05
1.63153e-10
4.68012e-05
9.94181e-11
4.68012e-05
3.94072e-11
4.68012e-05
-1.66269e-11
4.68012e-05
-6.84114e-11
4.68012e-05
-1.15666e-10
4.68013e-05
-1.58216e-10
4.68013e-05
-1.96095e-10
4.68013e-05
-2.29576e-10
4.68014e-05
-2.59083e-10
4.68014e-05
-2.85058e-10
4.68014e-05
-3.0787e-10
4.68015e-05
-3.27786e-10
4.68015e-05
-3.45025e-10
4.68016e-05
-3.59813e-10
4.68016e-05
-3.72412e-10
4.68017e-05
-3.83094e-10
4.68017e-05
-3.921e-10
4.68018e-05
-3.9957e-10
4.68019e-05
-4.05569e-10
4.68019e-05
-4.09947e-10
4.6802e-05
-4.12552e-10
4.6802e-05
-4.12722e-10
4.68021e-05
-4.09853e-10
4.68022e-05
-4.02852e-10
4.68022e-05
-3.88243e-10
4.68023e-05
-3.70603e-10
4.68023e-05
-3.28874e-10
4.68024e-05
-2.99904e-10
4.68024e-05
-2.27673e-10
4.68025e-05
-1.24311e-10
4.68025e-05
-6.29477e-11
4.68025e-05
-3.0734e-11
4.68025e-05
-3.15299e-11
4.68025e-05
-3.24814e-11
4.68025e-05
-4.08714e-11
4.68025e-05
-5.16073e-11
4.68025e-05
-6.09637e-11
4.68026e-05
-6.58289e-11
4.68026e-05
-6.3741e-11
4.68026e-05
-5.34056e-11
4.68026e-05
-3.46574e-11
4.68025e-05
-8.40418e-12
4.68025e-05
2.35677e-11
4.68025e-05
5.8932e-11
4.68025e-05
9.52671e-11
4.68025e-05
1.30453e-10
4.68025e-05
1.62919e-10
4.68024e-05
1.91684e-10
4.68024e-05
2.1625e-10
4.68024e-05
2.36414e-10
4.68023e-05
2.52122e-10
4.68023e-05
2.63412e-10
4.68022e-05
2.70424e-10
4.68022e-05
2.73433e-10
4.68022e-05
2.72854e-10
4.68021e-05
2.69198e-10
4.68021e-05
2.62993e-10
4.6802e-05
2.54715e-10
4.6802e-05
2.4476e-10
4.6802e-05
2.33444e-10
4.68019e-05
2.21035e-10
4.68019e-05
2.07754e-10
4.68019e-05
1.93809e-10
4.68019e-05
1.79295e-10
4.68018e-05
1.64372e-10
4.68018e-05
1.48748e-10
4.68018e-05
1.32737e-10
4.68018e-05
1.15149e-10
4.68018e-05
9.68158e-11
4.68017e-05
7.70211e-11
4.68017e-05
6.20084e-11
4.68017e-05
5.22503e-11
4.68017e-05
4.58992e-11
4.68017e-05
4.29135e-11
4.68017e-05
3.65971e-11
4.68017e-05
2.75427e-11
4.68017e-05
1.53371e-11
4.68017e-05
-3.41409e-13
4.68017e-05
-1.9512e-11
4.68017e-05
-4.20922e-11
4.68017e-05
-6.72716e-11
4.68017e-05
-9.40094e-11
4.68017e-05
-1.20684e-10
4.68018e-05
-1.43012e-10
4.68018e-05
-1.64717e-10
4.68018e-05
-1.64668e-10
4.68019e-05
-1.75512e-10
4.68019e-05
-1.48527e-10
4.68019e-05
-7.3154e-11
4.68019e-05
-3.58669e-11
4.68019e-05
-2.44782e-11
4.68019e-05
-3.55647e-11
4.6802e-05
-6.03559e-11
4.6802e-05
-9.05519e-11
4.6802e-05
-1.20637e-10
4.6802e-05
-1.47292e-10
4.6802e-05
-1.66337e-10
4.6802e-05
-1.78114e-10
4.68021e-05
-1.76542e-10
4.68021e-05
-1.59142e-10
4.68021e-05
-1.62167e-10
4.68021e-05
-3.35206e-11
-3.24184e-10
5.08065e-05
-5.37799e-10
5.08065e-05
-1.69272e-10
5.08065e-05
1.37122e-10
5.08064e-05
3.98236e-10
5.08063e-05
5.9288e-10
5.08063e-05
7.14207e-10
5.08062e-05
7.73097e-10
5.08061e-05
7.83046e-10
5.08061e-05
7.57942e-10
5.0806e-05
7.09014e-10
5.08059e-05
6.44837e-10