/*--------------------------------*- C++ -*----------------------------------*\
  =========                 |
  \\      /  F ield         | OpenFOAM: The Open Source CFD Toolbox
   \\    /   O peration     | Website:  https://openfoam.org
    \\  /    A nd           | Version:  7
     \\/     M anipulation  |
\*---------------------------------------------------------------------------*/
FoamFile
{
    version     2.0;
    format      ascii;
    class       volScalarField;
    location    "2000";
    object      omega;
}
// * * * * * * * * * * * * * * * * * * * * * * * * * * * * * * * * * * * * * //

dimensions      [0 0 -1 0 0 0 0];

internalField   nonuniform List<scalar> 
3974
(
0.682251
0.682262
0.682268
0.682273
0.682277
0.68228
0.682283
0.682286
0.682288
0.68229
0.682292
0.682294
0.682295
0.682297
0.682298
0.682299
0.682301
0.682302
0.682303
0.682304
0.682305
0.682307
0.682308
0.682309
0.68231
0.682312
0.682313
0.682314
0.682316
0.682317
0.682318
0.68232
0.682321
0.682322
0.682324
0.682325
0.682326
0.682329
0.644396
0.644402
0.644407
0.644414
0.644419
0.644423
0.644427
0.64443
0.644433
0.644436
0.644438
0.64444
0.644442
0.644444
0.644446
0.644447
0.644449
0.64445
0.644451
0.644453
0.644454
0.644455
0.644457
0.644458
0.644459
0.644461
0.644462
0.644463
0.644465
0.644466
0.644467
0.644469
0.64447
0.644472
0.644473
0.644474
0.644476
0.644477
0.644479
0.644481
0.644485
0.644485
0.608958
0.608953
0.608958
0.608962
0.608967
0.608972
0.608976
0.608981
0.608984
0.608988
0.608991
0.608993
0.608996
0.608998
0.609
0.609002
0.609004
0.609006
0.609007
0.609009
0.60901
0.609012
0.609013
0.609015
0.609016
0.609018
0.609019
0.60902
0.609022
0.609023
0.609025
0.609026
0.609028
0.609029
0.609031
0.609032
0.609034
0.609035
0.609037
0.609038
0.60904
0.609042
0.609044
0.609046
0.609036
0.609027
0.609021
0.609016
0.609012
0.609009
0.609006
0.609003
0.609001
0.608999
0.608998
0.608996
0.608995
0.608994
0.608996
0.5757
0.575694
0.575695
0.575699
0.575703
0.575708
0.575712
0.575717
0.575721
0.575724
0.575727
0.57573
0.575733
0.575735
0.575737
0.57574
0.575742
0.575744
0.575745
0.575747
0.575749
0.575751
0.575752
0.575754
0.575755
0.575757
0.575759
0.57576
0.575762
0.575763
0.575765
0.575767
0.575768
0.57577
0.575772
0.575773
0.575775
0.575777
0.575778
0.57578
0.575781
0.575783
0.575784
0.575786
0.575781
0.575775
0.57577
0.575765
0.575762
0.575759
0.575757
0.575755
0.575753
0.575751
0.57575
0.575749
0.575748
0.575747
0.575751
0.544417
0.54441
0.54441
0.544413
0.544417
0.544422
0.544427
0.544431
0.544435
0.544439
0.544442
0.544445
0.544448
0.544451
0.544454
0.544456
0.544458
0.544461
0.544463
0.544465
0.544467
0.544469
0.54447
0.544472
0.544474
0.544476
0.544478
0.544479
0.544481
0.544483
0.544485
0.544487
0.544488
0.54449
0.544492
0.544494
0.544496
0.544497
0.544499
0.544501
0.544503
0.544505
0.544506
0.544507
0.544505
0.5445
0.544496
0.544492
0.544489
0.544487
0.544485
0.544483
0.544481
0.54448
0.544479
0.544478
0.544478
0.544476
0.544482
0.514939
0.51493
0.51493
0.514933
0.514936
0.514941
0.514945
0.51495
0.514954
0.514958
0.514962
0.514965
0.514969
0.514972
0.514975
0.514977
0.51498
0.514983
0.514985
0.514987
0.51499
0.514992
0.514994
0.514996
0.514998
0.515
0.515002
0.515004
0.515006
0.515008
0.51501
0.515012
0.515014
0.515016
0.515018
0.51502
0.515022
0.515024
0.515026
0.515028
0.515029
0.515031
0.515033
0.515034
0.515033
0.515031
0.515027
0.515024
0.515022
0.51502
0.515018
0.515016
0.515015
0.515014
0.515013
0.515013
0.515012
0.515011
0.515019
0.487114
0.487104
0.487103
0.487105
0.487109
0.487113
0.487117
0.487122
0.487126
0.487131
0.487135
0.487138
0.487142
0.487145
0.487149
0.487152
0.487155
0.487157
0.48716
0.487163
0.487165
0.487168
0.48717
0.487173
0.487175
0.487177
0.487179
0.487182
0.487184
0.487186
0.487188
0.487191
0.487193
0.487195
0.487197
0.487199
0.487201
0.487203
0.487206
0.487208
0.48721
0.487212
0.487214
0.487215
0.487215
0.487214
0.487212
0.48721
0.487208
0.487206
0.487205
0.487203
0.487202
0.487201
0.487201
0.4872
0.4872
0.487199
0.487208
0.46081
0.460797
0.460796
0.460798
0.460801
0.460805
0.46081
0.460814
0.460819
0.460823
0.460827
0.460831
0.460835
0.460839
0.460843
0.460846
0.460849
0.460853
0.460856
0.460858
0.460861
0.460864
0.460867
0.460869
0.460872
0.460875
0.460877
0.46088
0.460882
0.460885
0.460887
0.46089
0.460892
0.460894
0.460897
0.460899
0.460901
0.460904
0.460906
0.460908
0.46091
0.460913
0.460915
0.460917
0.460918
0.460917
0.460916
0.460915
0.460914
0.460912
0.460911
0.46091
0.46091
0.460909
0.460909
0.460908
0.460909
0.460907
0.460918
0.435909
0.435894
0.435893
0.435895
0.435898
0.435902
0.435906
0.435911
0.435915
0.43592
0.435924
0.435928
0.435933
0.435937
0.435941
0.435944
0.435948
0.435951
0.435955
0.435958
0.435961
0.435964
0.435967
0.43597
0.435973
0.435976
0.435979
0.435982
0.435984
0.435987
0.43599
0.435992
0.435995
0.435998
0.436
0.436003
0.436005
0.436008
0.43601
0.436013
0.436015
0.436018
0.43602
0.436022
0.436024
0.436024
0.436024
0.436024
0.436023
0.436022
0.436022
0.436021
0.436021
0.436021
0.43602
0.43602
0.436021
0.436019
0.436032
0.41231
0.412294
0.412292
0.412294
0.412297
0.412301
0.412305
0.412309
0.412314
0.412318
0.412323
0.412327
0.412332
0.412336
0.41234
0.412344
0.412348
0.412352
0.412356
0.412359
0.412363
0.412366
0.412369
0.412373
0.412376
0.412379
0.412382
0.412385
0.412388
0.412391
0.412394
0.412397
0.4124
0.412403
0.412406
0.412408
0.412411
0.412414
0.412417
0.412419
0.412422
0.412424
0.412427
0.412429
0.412431
0.412433
0.412434
0.412434
0.412434
0.412434
0.412434
0.412434
0.412433
0.412433
0.412434
0.412434
0.412435
0.412432
0.412447
0.389923
0.389905
0.389903
0.389905
0.389908
0.389912
0.389916
0.38992
0.389925
0.389929
0.389934
0.389938
0.389943
0.389947
0.389952
0.389956
0.38996
0.389964
0.389968
0.389972
0.389976
0.38998
0.389983
0.389987
0.38999
0.389994
0.389997
0.390001
0.390004
0.390007
0.39001
0.390014
0.390017
0.39002
0.390023
0.390026
0.390029
0.390032
0.390035
0.390038
0.39004
0.390043
0.390046
0.390048
0.390051
0.390053
0.390054
0.390055
0.390056
0.390057
0.390057
0.390057
0.390057
0.390058
0.390058
0.390058
0.39006
0.390057
0.390074
0.368669
0.368649
0.368647
0.368649
0.368652
0.368656
0.36866
0.368664
0.368669
0.368673
0.368678
0.368682
0.368687
0.368692
0.368696
0.368701
0.368705
0.36871
0.368714
0.368718
0.368722
0.368726
0.36873
0.368734
0.368737
0.368741
0.368745
0.368749
0.368752
0.368756
0.368759
0.368763
0.368766
0.368769
0.368773
0.368776
0.368779
0.368782
0.368785
0.368788
0.368791
0.368794
0.368797
0.3688
0.368803
0.368805
0.368807
0.368809
0.36881
0.368811
0.368812
0.368813
0.368813
0.368814
0.368815
0.368815
0.368817
0.368814
0.368832
0.348477
0.348456
0.348454
0.348456
0.348459
0.348463
0.348467
0.348471
0.348476
0.34848
0.348485
0.348489
0.348494
0.348499
0.348504
0.348508
0.348513
0.348517
0.348522
0.348526
0.34853
0.348535
0.348539
0.348543
0.348547
0.348551
0.348555
0.348559
0.348563
0.348567
0.34857
0.348574
0.348578
0.348581
0.348585
0.348588
0.348592
0.348595
0.348598
0.348602
0.348605
0.348608
0.348611
0.348614
0.348617
0.34862
0.348622
0.348624
0.348626
0.348628
0.348629
0.34863
0.348631
0.348633
0.348634
0.348634
0.348636
0.348634
0.348653
0.329286
0.329263
0.329261
0.329263
0.329267
0.329271
0.329275
0.329279
0.329284
0.329288
0.329293
0.329297
0.329302
0.329307
0.329312
0.329317
0.329321
0.329326
0.329331
0.329335
0.32934
0.329344
0.329349
0.329353
0.329357
0.329361
0.329366
0.32937
0.329374
0.329378
0.329382
0.329386
0.32939
0.329393
0.329397
0.329401
0.329405
0.329408
0.329412
0.329415
0.329419
0.329422
0.329425
0.329428
0.329432
0.329435
0.329437
0.32944
0.329442
0.329444
0.329446
0.329448
0.329449
0.329451
0.329452
0.329453
0.329455
0.329453
0.329473
0.311041
0.311016
0.311014
0.311017
0.31102
0.311024
0.311029
0.311033
0.311037
0.311042
0.311046
0.311051
0.311056
0.311061
0.311066
0.311071
0.311075
0.31108
0.311085
0.31109
0.311094
0.311099
0.311104
0.311108
0.311113
0.311117
0.311122
0.311126
0.31113
0.311135
0.311139
0.311143
0.311147
0.311151
0.311155
0.311159
0.311163
0.311167
0.31117
0.311174
0.311178
0.311181
0.311185
0.311188
0.311191
0.311195
0.311198
0.311201
0.311203
0.311206
0.311208
0.31121
0.311212
0.311214
0.311215
0.311217
0.311219
0.311217
0.311238
0.293691
0.293666
0.293664
0.293666
0.29367
0.293674
0.293679
0.293683
0.293688
0.293692
0.293697
0.293702
0.293707
0.293711
0.293716
0.293721
0.293726
0.293731
0.293736
0.293741
0.293746
0.293751
0.293755
0.29376
0.293765
0.293769
0.293774
0.293778
0.293783
0.293787
0.293792
0.293796
0.293801
0.293805
0.293809
0.293813
0.293817
0.293821
0.293825
0.293829
0.293833
0.293836
0.29384
0.293844
0.293847
0.293851
0.293854
0.293857
0.29386
0.293863
0.293866
0.293868
0.29387
0.293872
0.293874
0.293876
0.293879
0.293876
0.293899
0.277195
0.277168
0.277166
0.277168
0.277173
0.277177
0.277181
0.277186
0.277191
0.277195
0.2772
0.277205
0.27721
0.277215
0.27722
0.277225
0.27723
0.277235
0.27724
0.277245
0.27725
0.277254
0.277259
0.277264
0.277269
0.277274
0.277279
0.277283
0.277288
0.277293
0.277297
0.277302
0.277306
0.277311
0.277315
0.277319
0.277324
0.277328
0.277332
0.277336
0.27734
0.277344
0.277348
0.277352
0.277355
0.277359
0.277362
0.277366
0.277369
0.277372
0.277375
0.277378
0.27738
0.277383
0.277385
0.277387
0.27739
0.277388
0.277411
0.261511
0.261484
0.261481
0.261484
0.261488
0.261493
0.261497
0.261502
0.261507
0.261511
0.261516
0.261521
0.261526
0.261531
0.261536
0.261541
0.261546
0.261551
0.261556
0.261561
0.261566
0.261571
0.261576
0.261581
0.261586
0.261591
0.261596
0.261601
0.261606
0.261611
0.261615
0.26162
0.261625
0.261629
0.261634
0.261638
0.261643
0.261647
0.261652
0.261656
0.26166
0.261664
0.261668
0.261672
0.261676
0.261679
0.261683
0.261687
0.26169
0.261693
0.261697
0.2617
0.261702
0.261705
0.261708
0.26171
0.261713
0.261711
0.261735
0.246604
0.246576
0.246573
0.246577
0.246581
0.246586
0.246591
0.246595
0.2466
0.246605
0.24661
0.246615
0.24662
0.246625
0.24663
0.246635
0.24664
0.246645
0.24665
0.246655
0.246661
0.246666
0.246671
0.246676
0.246681
0.246686
0.246691
0.246696
0.246701
0.246706
0.246711
0.246716
0.24672
0.246725
0.24673
0.246734
0.246739
0.246743
0.246748
0.246752
0.246757
0.246761
0.246765
0.246769
0.246773
0.246777
0.246781
0.246784
0.246788
0.246791
0.246795
0.246798
0.246801
0.246804
0.246807
0.246809
0.246813
0.246811
0.246836
0.232443
0.232414
0.232411
0.232414
0.232419
0.232424
0.232429
0.232433
0.232438
0.232443
0.232448
0.232453
0.232458
0.232463
0.232468
0.232474
0.232479
0.232484
0.232489
0.232494
0.232499
0.232505
0.23251
0.232515
0.23252
0.232525
0.23253
0.232535
0.23254
0.232545
0.23255
0.232555
0.23256
0.232565
0.23257
0.232575
0.232579
0.232584
0.232589
0.232593
0.232597
0.232602
0.232606
0.23261
0.232614
0.232618
0.232622
0.232626
0.23263
0.232634
0.232637
0.232641
0.232644
0.232647
0.23265
0.232653
0.232656
0.232655
0.23268
0.218996
0.218966
0.218964
0.218967
0.218971
0.218976
0.218981
0.218987
0.218992
0.218997
0.219002
0.219007
0.219012
0.219017
0.219022
0.219027
0.219032
0.219038
0.219043
0.219048
0.219053
0.219058
0.219064
0.219069
0.219074
0.219079
0.219084
0.219089
0.219095
0.2191
0.219105
0.21911
0.219115
0.21912
0.219125
0.21913
0.219134
0.219139
0.219144
0.219148
0.219153
0.219157
0.219162
0.219166
0.21917
0.219174
0.219178
0.219182
0.219186
0.21919
0.219194
0.219197
0.219201
0.219204
0.219207
0.21921
0.219214
0.219212
0.219238
0.206236
0.206206
0.206204
0.206207
0.206212
0.206217
0.206222
0.206227
0.206232
0.206237
0.206242
0.206247
0.206252
0.206258
0.206263
0.206268
0.206273
0.206278
0.206284
0.206289
0.206294
0.206299
0.206305
0.20631
0.206315
0.20632
0.206325
0.206331
0.206336
0.206341
0.206346
0.206351
0.206356
0.206361
0.206366
0.206371
0.206376
0.206381
0.206386
0.20639
0.206395
0.2064
0.206404
0.206408
0.206413
0.206417
0.206421
0.206425
0.206429
0.206433
0.206437
0.20644
0.206444
0.206447
0.206451
0.206454
0.206458
0.206456
0.206482
0.194138
0.194108
0.194105
0.194109
0.194113
0.194119
0.194124
0.194129
0.194134
0.194139
0.194144
0.194149
0.194155
0.19416
0.194165
0.19417
0.194175
0.194181
0.194186
0.194191
0.194196
0.194202
0.194207
0.194212
0.194217
0.194223
0.194228
0.194233
0.194238
0.194243
0.194249
0.194254
0.194259
0.194264
0.194269
0.194274
0.194279
0.194284
0.194289
0.194293
0.194298
0.194303
0.194307
0.194312
0.194316
0.19432
0.194325
0.194329
0.194333
0.194337
0.194341
0.194344
0.194348
0.194351
0.194355
0.194358
0.194362
0.194361
0.194386
0.182677
0.182647
0.182644
0.182648
0.182652
0.182658
0.182663
0.182668
0.182673
0.182678
0.182684
0.182689
0.182694
0.182699
0.182704
0.18271
0.182715
0.18272
0.182725
0.182731
0.182736
0.182741
0.182746
0.182752
0.182757
0.182762
0.182767
0.182772
0.182778
0.182783
0.182788
0.182793
0.182798
0.182803
0.182809
0.182814
0.182819
0.182823
0.182828
0.182833
0.182838
0.182842
0.182847
0.182852
0.182856
0.18286
0.182865
0.182869
0.182873
0.182877
0.182881
0.182885
0.182888
0.182892
0.182895
0.182899
0.182903
0.182902
0.182927
0.171831
0.1718
0.171797
0.171801
0.171806
0.171811
0.171816
0.171821
0.171827
0.171832
0.171837
0.171842
0.171847
0.171853
0.171858
0.171863
0.171868
0.171873
0.171879
0.171884
0.171889
0.171894
0.1719
0.171905
0.17191
0.171915
0.17192
0.171926
0.171931
0.171936
0.171941
0.171946
0.171951
0.171957
0.171962
0.171967
0.171972
0.171977
0.171981
0.171986
0.171991
0.171996
0.172
0.172005
0.172009
0.172014
0.172018
0.172022
0.172026
0.17203
0.172034
0.172038
0.172042
0.172046
0.172049
0.172053
0.172057
0.172056
0.172081
0.161575
0.161545
0.161542
0.161546
0.161551
0.161556
0.161561
0.161566
0.161572
0.161577
0.161582
0.161587
0.161592
0.161598
0.161603
0.161608
0.161613
0.161618
0.161624
0.161629
0.161634
0.161639
0.161644
0.16165
0.161655
0.16166
0.161665
0.16167
0.161675
0.161681
0.161686
0.161691
0.161696
0.161701
0.161706
0.161711
0.161716
0.161721
0.161726
0.161731
0.161735
0.16174
0.161745
0.161749
0.161754
0.161758
0.161763
0.161767
0.161771
0.161775
0.161779
0.161783
0.161787
0.16179
0.161794
0.161797
0.161801
0.161801
0.161825
0.151891
0.151861
0.151858
0.151861
0.151866
0.151871
0.151877
0.151882
0.151887
0.151892
0.151897
0.151903
0.151908
0.151913
0.151918
0.151923
0.151928
0.151933
0.151939
0.151944
0.151949
0.151954
0.151959
0.151964
0.151969
0.151975
0.15198
0.151985
0.15199
0.151995
0.152
0.152005
0.15201
0.152015
0.15202
0.152025
0.15203
0.152035
0.15204
0.152045
0.15205
0.152054
0.152059
0.152063
0.152068
0.152072
0.152077
0.152081
0.152085
0.152089
0.152093
0.152097
0.152101
0.152104
0.152108
0.152111
0.152116
0.152115
0.152139
0.142755
0.142725
0.142723
0.142726
0.142731
0.142736
0.142741
0.142746
0.142751
0.142757
0.142762
0.142767
0.142772
0.142777
0.142782
0.142787
0.142792
0.142798
0.142803
0.142808
0.142813
0.142818
0.142823
0.142828
0.142833
0.142838
0.142843
0.142848
0.142853
0.142858
0.142863
0.142868
0.142873
0.142878
0.142883
0.142888
0.142893
0.142898
0.142903
0.142908
0.142912
0.142917
0.142921
0.142926
0.14293
0.142935
0.142939
0.142943
0.142947
0.142952
0.142956
0.142959
0.142963
0.142967
0.142971
0.142974
0.142978
0.142977
0.143001
0.134148
0.134118
0.134116
0.134119
0.134124
0.134129
0.134134
0.134139
0.134144
0.134149
0.134155
0.13416
0.134165
0.13417
0.134175
0.13418
0.134185
0.13419
0.134195
0.1342
0.134205
0.13421
0.134215
0.13422
0.134225
0.13423
0.134235
0.13424
0.134245
0.13425
0.134255
0.13426
0.134264
0.134269
0.134274
0.134279
0.134284
0.134289
0.134293
0.134298
0.134303
0.134307
0.134312
0.134316
0.134321
0.134325
0.134329
0.134334
0.134338
0.134342
0.134346
0.13435
0.134353
0.134357
0.134361
0.134364
0.134368
0.134368
0.134391
0.126048
0.12602
0.126017
0.12602
0.126025
0.12603
0.126035
0.12604
0.126045
0.12605
0.126055
0.12606
0.126065
0.12607
0.126075
0.12608
0.126085
0.12609
0.126095
0.1261
0.126105
0.12611
0.126115
0.126119
0.126124
0.126129
0.126134
0.126139
0.126144
0.126149
0.126154
0.126158
0.126163
0.126168
0.126173
0.126178
0.126182
0.126187
0.126192
0.126196
0.126201
0.126205
0.12621
0.126214
0.126219
0.126223
0.126227
0.126231
0.126235
0.126239
0.126243
0.126247
0.126251
0.126254
0.126258
0.126261
0.126265
0.126265
0.126287
0.118437
0.118409
0.118406
0.118409
0.118414
0.118419
0.118424
0.118429
0.118434
0.118439
0.118444
0.118449
0.118453
0.118458
0.118463
0.118468
0.118473
0.118478
0.118482
0.118487
0.118492
0.118497
0.118502
0.118506
0.118511
0.118516
0.118521
0.118526
0.11853
0.118535
0.11854
0.118545
0.118549
0.118554
0.118559
0.118563
0.118568
0.118573
0.118577
0.118582
0.118586
0.118591
0.118595
0.118599
0.118604
0.118608
0.118612
0.118616
0.11862
0.118624
0.118628
0.118632
0.118635
0.118639
0.118642
0.118646
0.11865
0.11865
0.118671
0.111292
0.111265
0.111263
0.111266
0.111271
0.111275
0.11128
0.111285
0.11129
0.111295
0.111299
0.111304
0.111309
0.111314
0.111318
0.111323
0.111328
0.111333
0.111337
0.111342
0.111347
0.111351
0.111356
0.111361
0.111365
0.11137
0.111375
0.111379
0.111384
0.111389
0.111393
0.111398
0.111402
0.111407
0.111412
0.111416
0.111421
0.111425
0.11143
0.111434
0.111438
0.111443
0.111447
0.111451
0.111455
0.11146
0.111464
0.111468
0.111472
0.111475
0.111479
0.111483
0.111487
0.11149
0.111494
0.111497
0.111501
0.111501
0.111521
0.104596
0.104569
0.104567
0.10457
0.104574
0.104579
0.104584
0.104589
0.104593
0.104598
0.104603
0.104607
0.104612
0.104617
0.104621
0.104626
0.10463
0.104635
0.10464
0.104644
0.104649
0.104653
0.104658
0.104662
0.104667
0.104671
0.104676
0.10468
0.104685
0.104689
0.104694
0.104698
0.104703
0.104707
0.104712
0.104716
0.10472
0.104725
0.104729
0.104733
0.104738
0.104742
0.104746
0.10475
0.104754
0.104758
0.104762
0.104766
0.10477
0.104774
0.104778
0.104781
0.104785
0.104788
0.104792
0.104795
0.104799
0.104799
0.104818
0.0983264
0.0983008
0.0982986
0.0983017
0.098306
0.0983105
0.0983151
0.0983197
0.0983243
0.0983288
0.0983334
0.0983379
0.0983424
0.0983468
0.0983513
0.0983558
0.0983602
0.0983647
0.0983691
0.0983736
0.098378
0.0983824
0.0983868
0.0983912
0.0983955
0.0983999
0.0984042
0.0984086
0.0984129
0.0984173
0.0984216
0.0984259
0.0984303
0.0984346
0.0984389
0.0984432
0.0984474
0.0984516
0.0984559
0.09846
0.0984642
0.0984683
0.0984723
0.0984763
0.0984803
0.0984842
0.0984881
0.0984919
0.0984956
0.0984993
0.0985029
0.0985065
0.09851
0.0985134
0.0985167
0.0985198
0.0985234
0.0985237
0.0985423
0.0924647
0.0924401
0.092438
0.092441
0.0924452
0.0924496
0.092454
0.0924585
0.0924629
0.0924673
0.0924717
0.092476
0.0924804
0.0924847
0.092489
0.0924933
0.0924976
0.0925019
0.0925062
0.0925105
0.0925148
0.092519
0.0925233
0.0925275
0.0925317
0.0925359
0.0925401
0.0925443
0.0925485
0.0925527
0.0925569
0.092561
0.0925652
0.0925694
0.0925735
0.0925776
0.0925818
0.0925858
0.0925899
0.0925939
0.0925979
0.0926019
0.0926058
0.0926097
0.0926136
0.0926174
0.0926211
0.0926248
0.0926284
0.092632
0.0926355
0.092639
0.0926424
0.0926457
0.0926489
0.092652
0.0926555
0.0926559
0.0926734
0.0869911
0.0869674
0.0869654
0.0869683
0.0869723
0.0869766
0.0869809
0.0869852
0.0869895
0.0869937
0.0869979
0.0870021
0.0870063
0.0870105
0.0870146
0.0870188
0.087023
0.0870271
0.0870312
0.0870354
0.0870395
0.0870436
0.0870476
0.0870517
0.0870558
0.0870598
0.0870638
0.0870679
0.0870719
0.0870759
0.0870799
0.0870839
0.0870879
0.0870919
0.0870959
0.0870999
0.0871039
0.0871078
0.0871117
0.0871156
0.0871195
0.0871233
0.0871271
0.0871308
0.0871345
0.0871382
0.0871418
0.0871454
0.0871489
0.0871524
0.0871558
0.0871591
0.0871624
0.0871656
0.0871688
0.0871717
0.0871751
0.0871756
0.0871922
0.081886
0.0818633
0.0818615
0.0818643
0.0818681
0.0818722
0.0818764
0.0818805
0.0818846
0.0818887
0.0818927
0.0818968
0.0819008
0.0819048
0.0819088
0.0819128
0.0819168
0.0819207
0.0819247
0.0819287
0.0819326
0.0819365
0.0819404
0.0819443
0.0819482
0.0819521
0.081956
0.0819598
0.0819637
0.0819675
0.0819714
0.0819752
0.0819791
0.0819829
0.0819867
0.0819905
0.0819943
0.0819981
0.0820019
0.0820056
0.0820093
0.082013
0.0820166
0.0820202
0.0820238
0.0820273
0.0820308
0.0820343
0.0820377
0.082041
0.0820443
0.0820475
0.0820507
0.0820538
0.0820568
0.0820597
0.082063
0.0820636
0.0820791
0.0771303
0.0771087
0.0771069
0.0771096
0.0771133
0.0771172
0.0771212
0.0771252
0.0771291
0.077133
0.0771369
0.0771408
0.0771446
0.0771484
0.0771523
0.0771561
0.0771599
0.0771637
0.0771675
0.0771713
0.0771751
0.0771788
0.0771826
0.0771863
0.07719
0.0771937
0.0771974
0.0772011
0.0772048
0.0772085
0.0772121
0.0772158
0.0772195
0.0772231
0.0772268
0.0772304
0.077234
0.0772377
0.0772412
0.0772448
0.0772484
0.0772519
0.0772554
0.0772588
0.0772623
0.0772657
0.077269
0.0772723
0.0772756
0.0772788
0.077282
0.0772851
0.0772881
0.0772911
0.0772941
0.0772969
0.0773
0.0773007
0.0773152
0.0727051
0.0726846
0.0726829
0.0726855
0.0726891
0.0726928
0.0726966
0.0727004
0.0727042
0.0727079
0.0727116
0.0727153
0.072719
0.0727226
0.0727263
0.0727299
0.0727336
0.0727372
0.0727408
0.0727444
0.072748
0.0727516
0.0727552
0.0727587
0.0727623
0.0727658
0.0727693
0.0727728
0.0727763
0.0727798
0.0727834
0.0727868
0.0727903
0.0727938
0.0727973
0.0728008
0.0728042
0.0728077
0.0728111
0.0728145
0.0728179
0.0728213
0.0728246
0.0728279
0.0728312
0.0728344
0.0728376
0.0728408
0.0728439
0.072847
0.0728501
0.0728531
0.072856
0.0728589
0.0728617
0.0728644
0.0728674
0.0728682
0.0728817
0.0685922
0.0685727
0.0685711
0.0685736
0.068577
0.0685806
0.0685842
0.0685878
0.0685914
0.0685949
0.0685985
0.068602
0.0686055
0.068609
0.0686125
0.0686159
0.0686194
0.0686228
0.0686263
0.0686297
0.0686331
0.0686365
0.0686399
0.0686433
0.0686467
0.06865
0.0686533
0.0686567
0.06866
0.0686633
0.0686667
0.06867
0.0686733
0.0686766
0.0686799
0.0686832
0.0686865
0.0686898
0.068693
0.0686963
0.0686995
0.0687027
0.0687059
0.068709
0.0687122
0.0687153
0.0687183
0.0687214
0.0687243
0.0687273
0.0687302
0.0687331
0.0687359
0.0687387
0.0687414
0.068744
0.0687468
0.0687477
0.0687602
0.0647734
0.064755
0.0647536
0.0647559
0.0647591
0.0647625
0.064766
0.0647694
0.0647728
0.0647762
0.0647795
0.0647829
0.0647862
0.0647895
0.0647928
0.0647961
0.0647994
0.0648026
0.0648059
0.0648091
0.0648124
0.0648156
0.0648188
0.064822
0.0648252
0.0648284
0.0648316
0.0648347
0.0648379
0.064841
0.0648442
0.0648473
0.0648504
0.0648536
0.0648567
0.0648598
0.0648629
0.064866
0.0648691
0.0648722
0.0648753
0.0648783
0.0648813
0.0648843
0.0648873
0.0648902
0.0648932
0.0648961
0.0648989
0.0649017
0.0649045
0.0649072
0.0649099
0.0649126
0.0649152
0.0649177
0.0649204
0.0649213
0.0649329
0.0612315
0.0612141
0.0612127
0.061215
0.061218
0.0612213
0.0612245
0.0612277
0.061231
0.0612342
0.0612373
0.0612405
0.0612437
0.0612468
0.0612499
0.061253
0.0612561
0.0612592
0.0612623
0.0612654
0.0612684
0.0612715
0.0612745
0.0612775
0.0612805
0.0612835
0.0612865
0.0612895
0.0612925
0.0612955
0.0612984
0.0613014
0.0613044
0.0613073
0.0613103
0.0613132
0.0613162
0.0613191
0.061322
0.0613249
0.0613278
0.0613307
0.0613336
0.0613364
0.0613392
0.061342
0.0613448
0.0613475
0.0613502
0.0613529
0.0613556
0.0613582
0.0613607
0.0613633
0.0613657
0.0613681
0.0613707
0.0613717
0.0613824
0.0579495
0.0579332
0.0579319
0.057934
0.0579369
0.0579399
0.057943
0.0579461
0.0579491
0.0579521
0.0579551
0.0579581
0.0579611
0.057964
0.057967
0.0579699
0.0579728
0.0579757
0.0579786
0.0579815
0.0579844
0.0579873
0.0579902
0.057993
0.0579958
0.0579987
0.0580015
0.0580043
0.0580071
0.0580099
0.0580127
0.0580155
0.0580183
0.0580211
0.0580238
0.0580266
0.0580294
0.0580321
0.0580349
0.0580376
0.0580404
0.0580431
0.0580458
0.0580485
0.0580511
0.0580538
0.0580564
0.058059
0.0580616
0.0580641
0.0580666
0.0580691
0.0580716
0.058074
0.0580763
0.0580786
0.0580811
0.058082
0.0580919
0.0549113
0.0548959
0.0548948
0.0548968
0.0548995
0.0549023
0.0549052
0.0549081
0.054911
0.0549138
0.0549166
0.0549194
0.0549222
0.054925
0.0549278
0.0549305
0.0549333
0.054936
0.0549388
0.0549415
0.0549442
0.0549469
0.0549496
0.0549523
0.0549549
0.0549576
0.0549602
0.0549629
0.0549655
0.0549681
0.0549707
0.0549734
0.054976
0.0549786
0.0549812
0.0549838
0.0549864
0.054989
0.0549916
0.0549942
0.0549967
0.0549993
0.0550019
0.0550044
0.0550069
0.0550094
0.0550119
0.0550143
0.0550168
0.0550192
0.0550215
0.0550239
0.0550262
0.0550285
0.0550307
0.0550329
0.0550352
0.0550362
0.0550453
0.0521013
0.052087
0.0520859
0.0520878
0.0520903
0.052093
0.0520957
0.0520984
0.0521011
0.0521037
0.0521064
0.052109
0.0521116
0.0521143
0.0521168
0.0521194
0.052122
0.0521246
0.0521271
0.0521297
0.0521322
0.0521348
0.0521373
0.0521398
0.0521423
0.0521448
0.0521472
0.0521497
0.0521522
0.0521546
0.0521571
0.0521595
0.052162
0.0521644
0.0521669
0.0521693
0.0521718
0.0521742
0.0521766
0.0521791
0.0521815
0.0521839
0.0521863
0.0521886
0.052191
0.0521934
0.0521957
0.052198
0.0522003
0.0522026
0.0522048
0.052207
0.0522092
0.0522114
0.0522135
0.0522156
0.0522178
0.0522188
0.0522271
0.0495048
0.0494914
0.0494904
0.0494922
0.0494945
0.0494971
0.0494996
0.0495021
0.0495046
0.0495071
0.0495096
0.0495121
0.0495145
0.0495169
0.0495194
0.0495218
0.0495242
0.0495266
0.049529
0.0495314
0.0495337
0.0495361
0.0495385
0.0495408
0.0495431
0.0495455
0.0495478
0.0495501
0.0495524
0.0495547
0.049557
0.0495593
0.0495615
0.0495638
0.0495661
0.0495684
0.0495707
0.049573
0.0495752
0.0495775
0.0495797
0.049582
0.0495842
0.0495865
0.0495887
0.0495909
0.0495931
0.0495953
0.0495974
0.0495996
0.0496017
0.0496038
0.0496058
0.0496079
0.0496099
0.0496119
0.0496139
0.049615
0.0496225
0.0471077
0.0470952
0.0470943
0.0470959
0.0470982
0.0471005
0.0471029
0.0471052
0.0471075
0.0471099
0.0471122
0.0471145
0.0471168
0.047119
0.0471213
0.0471235
0.0471258
0.047128
0.0471303
0.0471325
0.0471347
0.0471369
0.0471391
0.0471413
0.0471434
0.0471456
0.0471478
0.0471499
0.0471521
0.0471542
0.0471563
0.0471585
0.0471606
0.0471627
0.0471648
0.047167
0.0471691
0.0471712
0.0471733
0.0471755
0.0471776
0.0471797
0.0471818
0.0471838
0.0471859
0.047188
0.0471901
0.0471921
0.0471941
0.0471961
0.0471981
0.0472001
0.047202
0.047204
0.0472059
0.0472077
0.0472097
0.0472107
0.0472176
0.0448967
0.0448851
0.0448843
0.0448858
0.0448878
0.04489
0.0448922
0.0448944
0.0448966
0.0448987
0.0449009
0.044903
0.0449051
0.0449072
0.0449093
0.0449114
0.0449135
0.0449156
0.0449177
0.0449197
0.0449218
0.0449238
0.0449259
0.0449279
0.0449299
0.0449319
0.0449339
0.0449359
0.0449379
0.0449399
0.0449419
0.0449439
0.0449458
0.0449478
0.0449498
0.0449518
0.0449538
0.0449557
0.0449577
0.0449597
0.0449616
0.0449636
0.0449655
0.0449675
0.0449694
0.0449714
0.0449733
0.0449752
0.0449771
0.044979
0.0449809
0.0449827
0.0449845
0.0449863
0.0449881
0.0449899
0.0449917
0.0449927
0.044999
0.0428593
0.0428486
0.0428478
0.0428492
0.0428511
0.0428531
0.0428551
0.0428571
0.0428592
0.0428612
0.0428631
0.0428651
0.0428671
0.042869
0.042871
0.0428729
0.0428748
0.0428768
0.0428787
0.0428806
0.0428825
0.0428844
0.0428863
0.0428882
0.04289
0.0428919
0.0428938
0.0428956
0.0428975
0.0428993
0.0429011
0.042903
0.0429048
0.0429067
0.0429085
0.0429103
0.0429122
0.042914
0.0429158
0.0429176
0.0429195
0.0429213
0.0429231
0.0429249
0.0429267
0.0429285
0.0429303
0.0429321
0.0429339
0.0429356
0.0429374
0.0429391
0.0429408
0.0429425
0.0429442
0.0429459
0.0429476
0.0429486
0.0429543
0.0409838
0.0409738
0.0409731
0.0409744
0.0409761
0.040978
0.0409799
0.0409817
0.0409836
0.0409854
0.0409873
0.0409891
0.0409909
0.0409927
0.0409945
0.0409963
0.0409981
0.0409999
0.0410016
0.0410034
0.0410051
0.0410069
0.0410086
0.0410104
0.0410121
0.0410138
0.0410156
0.0410173
0.041019
0.0410207
0.0410224
0.0410241
0.0410258
0.0410275
0.0410292
0.0410309
0.0410326
0.0410343
0.041036
0.0410376
0.0410393
0.041041
0.0410427
0.0410444
0.0410461
0.0410478
0.0410494
0.0410511
0.0410527
0.0410544
0.041056
0.0410576
0.0410593
0.0410608
0.0410624
0.041064
0.0410656
0.0410666
0.0410717
0.0392592
0.03925
0.0392493
0.0392505
0.0392521
0.0392538
0.0392555
0.0392572
0.0392589
0.0392606
0.0392623
0.039264
0.0392656
0.0392673
0.039269
0.0392706
0.0392722
0.0392739
0.0392755
0.0392771
0.0392788
0.0392804
0.039282
0.0392836
0.0392852
0.0392868
0.0392884
0.0392899
0.0392915
0.0392931
0.0392947
0.0392962
0.0392978
0.0392994
0.0393009
0.0393025
0.0393041
0.0393056
0.0393072
0.0393087
0.0393103
0.0393119
0.0393134
0.039315
0.0393166
0.0393181
0.0393197
0.0393212
0.0393228
0.0393243
0.0393258
0.0393273
0.0393288
0.0393303
0.0393318
0.0393333
0.0393348
0.0393357
0.0393404
0.0376754
0.0376669
0.0376662
0.0376673
0.0376688
0.0376703
0.0376719
0.0376734
0.037675
0.0376766
0.0376781
0.0376796
0.0376812
0.0376827
0.0376842
0.0376857
0.0376872
0.0376887
0.0376902
0.0376917
0.0376932
0.0376947
0.0376962
0.0376976
0.0376991
0.0377006
0.037702
0.0377035
0.0377049
0.0377064
0.0377078
0.0377092
0.0377107
0.0377121
0.0377136
0.037715
0.0377165
0.0377179
0.0377193
0.0377208
0.0377222
0.0377237
0.0377251
0.0377266
0.037728
0.0377295
0.0377309
0.0377323
0.0377338
0.0377352
0.0377366
0.037738
0.0377394
0.0377408
0.0377422
0.0377435
0.037745
0.0377459
0.0377501
0.0362229
0.036215
0.0362144
0.0362154
0.0362167
0.0362182
0.0362196
0.036221
0.0362224
0.0362238
0.0362253
0.0362267
0.0362281
0.0362294
0.0362308
0.0362322
0.0362336
0.036235
0.0362363
0.0362377
0.036239
0.0362404
0.0362418
0.0362431
0.0362445
0.0362458
0.0362471
0.0362485
0.0362498
0.0362511
0.0362525
0.0362538
0.0362551
0.0362564
0.0362578
0.0362591
0.0362604
0.0362617
0.0362631
0.0362644
0.0362657
0.0362671
0.0362684
0.0362697
0.0362711
0.0362724
0.0362737
0.0362751
0.0362764
0.0362777
0.036279
0.0362803
0.0362816
0.0362829
0.0362842
0.0362855
0.0362868
0.0362877
0.0362915
0.0348931
0.0348859
0.0348853
0.0348862
0.0348874
0.0348887
0.03489
0.0348913
0.0348926
0.0348939
0.0348952
0.0348964
0.0348977
0.034899
0.0349002
0.0349015
0.0349027
0.034904
0.0349052
0.0349065
0.0349077
0.0349089
0.0349102
0.0349114
0.0349126
0.0349139
0.0349151
0.0349163
0.0349175
0.0349188
0.03492
0.0349212
0.0349224
0.0349236
0.0349248
0.0349261
0.0349273
0.0349285
0.0349297
0.0349309
0.0349322
0.0349334
0.0349346
0.0349358
0.0349371
0.0349383
0.0349395
0.0349408
0.034942
0.0349432
0.0349444
0.0349457
0.0349469
0.0349481
0.0349493
0.0349505
0.0349517
0.0349525
0.034956
0.0336782
0.0336716
0.0336711
0.0336719
0.033673
0.0336741
0.0336753
0.0336764
0.0336776
0.0336788