/*--------------------------------*- C++ -*----------------------------------*\
  =========                 |
  \\      /  F ield         | OpenFOAM: The Open Source CFD Toolbox
   \\    /   O peration     | Website:  https://openfoam.org
    \\  /    A nd           | Version:  7
     \\/     M anipulation  |
\*---------------------------------------------------------------------------*/
FoamFile
{
    version     2.0;
    format      ascii;
    class       volScalarField;
    location    "17500";
    object      k;
}
// * * * * * * * * * * * * * * * * * * * * * * * * * * * * * * * * * * * * * //

dimensions      [0 2 -2 0 0 0 0];

internalField   nonuniform List<scalar> 
4037
(
0.000166702
0.000166702
0.000166702
0.000166702
0.000166702
0.000166703
0.000166703
0.000166703
0.000166703
0.000166703
0.000166704
0.000166704
0.000166704
0.000166704
0.000166705
0.000166705
0.000166705
0.000166706
0.000166706
0.000166707
0.000166707
0.000166707
0.000166708
0.000166708
0.000166709
0.000166709
0.00016671
0.00016671
0.000166711
0.000166711
0.000166712
0.000166712
0.000166713
0.000166713
0.000166714
0.000166714
0.000166715
0.000166715
0.000166716
0.000166716
0.000166717
0.000166717
0.000166718
0.000166718
0.000166719
0.000166719
0.000166719
0.00016672
0.00016672
0.000166721
0.000166721
0.000166721
0.000166722
0.000166722
0.000166723
0.000166723
0.000166723
0.000166723
0.000166724
0.000166724
0.000166724
0.000166725
0.000166725
0.000166725
0.000166725
0.000166725
0.000166726
0.000166726
0.000166726
0.000166726
0.000166726
0.000166726
0.000166726
0.000166726
0.000166726
0.000166726
0.000166726
0.000167224
0.000167223
0.000167221
0.00016722
0.000167219
0.000167217
0.000167216
0.000167215
0.000167214
0.000167214
0.000167213
0.000167212
0.000167212
0.000167211
0.000167211
0.00016721
0.00016721
0.00016721
0.000167209
0.000167209
0.000167209
0.000167209
0.000167209
0.000167208
0.000167208
0.000167208
0.000167208
0.000167209
0.000167209
0.000167209
0.000167209
0.000167209
0.00016721
0.00016721
0.00016721
0.00016721
0.000167211
0.000167211
0.000167211
0.000167212
0.000167212
0.000167213
0.000167213
0.000167213
0.000167214
0.000167214
0.000167215
0.000167215
0.000167216
0.000167216
0.000167217
0.000167217
0.000167218
0.000167218
0.000167219
0.000167219
0.00016722
0.00016722
0.000167221
0.000167221
0.000167222
0.000167222
0.000167223
0.000167223
0.000167224
0.000167224
0.000167225
0.000167225
0.000167225
0.000167226
0.000167226
0.000167227
0.000167227
0.000167228
0.000167228
0.000167228
0.000167229
0.000167229
0.000167229
0.00016723
0.00016723
0.00016723
0.000167231
0.000167231
0.000167231
0.000167231
0.000167232
0.000167232
0.000167232
0.000167232
0.000167232
0.000167232
0.000167233
0.000167233
0.000167233
0.000167233
0.000167233
0.000167233
0.000167233
0.000167233
0.000167233
0.000167233
0.000167233
0.000167232
0.000167232
0.000167232
0.000167231
0.000167231
0.000167231
0.00016723
0.00016723
0.000167229
0.000167229
0.000167228
0.000167228
0.000167227
0.000167226
0.000167226
0.000167225
0.000167225
0.000167639
0.000167638
0.000167637
0.000167635
0.000167634
0.000167632
0.000167631
0.00016763
0.000167629
0.000167629
0.000167628
0.000167627
0.000167627
0.000167626
0.000167626
0.000167625
0.000167625
0.000167624
0.000167624
0.000167624
0.000167624
0.000167624
0.000167624
0.000167623
0.000167623
0.000167623
0.000167624
0.000167624
0.000167624
0.000167624
0.000167624
0.000167625
0.000167625
0.000167625
0.000167626
0.000167626
0.000167626
0.000167627
0.000167627
0.000167628
0.000167628
0.000167628
0.000167629
0.000167629
0.00016763
0.00016763
0.000167631
0.000167631
0.000167631
0.000167632
0.000167632
0.000167633
0.000167633
0.000167634
0.000167634
0.000167635
0.000167635
0.000167636
0.000167636
0.000167637
0.000167637
0.000167638
0.000167638
0.000167639
0.000167639
0.00016764
0.00016764
0.000167641
0.000167641
0.000167642
0.000167642
0.000167643
0.000167643
0.000167643
0.000167644
0.000167644
0.000167644
0.000167645
0.000167645
0.000167645
0.000167646
0.000167646
0.000167646
0.000167647
0.000167647
0.000167647
0.000167647
0.000167648
0.000167648
0.000167648
0.000167648
0.000167648
0.000167648
0.000167648
0.000167649
0.000167649
0.000167649
0.000167649
0.000167649
0.000167649
0.000167649
0.000167649
0.000167648
0.000167648
0.000167648
0.000167647
0.000167647
0.000167647
0.000167646
0.000167646
0.000167645
0.000167645
0.000167644
0.000167644
0.000167643
0.000167643
0.000167642
0.000167641
0.000167641
0.00016764
0.000167957
0.000167956
0.000167954
0.000167953
0.000167951
0.00016795
0.000167949
0.000167948
0.000167947
0.000167946
0.000167945
0.000167945
0.000167944
0.000167943
0.000167943
0.000167943
0.000167942
0.000167942
0.000167942
0.000167942
0.000167941
0.000167941
0.000167941
0.000167941
0.000167941
0.000167941
0.000167941
0.000167942
0.000167942
0.000167942
0.000167942
0.000167943
0.000167943
0.000167943
0.000167944
0.000167944
0.000167945
0.000167945
0.000167945
0.000167946
0.000167946
0.000167947
0.000167947
0.000167948
0.000167948
0.000167949
0.000167949
0.00016795
0.00016795
0.00016795
0.000167951
0.000167951
0.000167952
0.000167952
0.000167953
0.000167953
0.000167954
0.000167954
0.000167955
0.000167955
0.000167956
0.000167956
0.000167957
0.000167957
0.000167958
0.000167958
0.000167959
0.000167959
0.00016796
0.00016796
0.00016796
0.000167961
0.000167961
0.000167962
0.000167962
0.000167962
0.000167963
0.000167963
0.000167963
0.000167964
0.000167964
0.000167964
0.000167965
0.000167965
0.000167965
0.000167965
0.000167966
0.000167966
0.000167966
0.000167966
0.000167966
0.000167966
0.000167967
0.000167967
0.000167967
0.000167967
0.000167967
0.000167967
0.000167967
0.000167967
0.000167967
0.000167967
0.000167967
0.000167966
0.000167966
0.000167966
0.000167965
0.000167965
0.000167964
0.000167964
0.000167963
0.000167963
0.000167962
0.000167962
0.000167961
0.000167961
0.00016796
0.00016796
0.000167959
0.000167959
0.000168171
0.000168169
0.000168167
0.000168166
0.000168164
0.000168163
0.000168162
0.000168161
0.00016816
0.000168159
0.000168158
0.000168157
0.000168157
0.000168156
0.000168156
0.000168155
0.000168155
0.000168155
0.000168154
0.000168154
0.000168154
0.000168154
0.000168154
0.000168154
0.000168154
0.000168154
0.000168154
0.000168154
0.000168155
0.000168155
0.000168155
0.000168156
0.000168156
0.000168157
0.000168157
0.000168157
0.000168158
0.000168158
0.000168159
0.000168159
0.00016816
0.00016816
0.000168161
0.000168161
0.000168162
0.000168162
0.000168163
0.000168163
0.000168164
0.000168164
0.000168165
0.000168165
0.000168166
0.000168166
0.000168167
0.000168167
0.000168168
0.000168168
0.000168169
0.000168169
0.00016817
0.00016817
0.00016817
0.000168171
0.000168171
0.000168172
0.000168172
0.000168173
0.000168173
0.000168174
0.000168174
0.000168174
0.000168175
0.000168175
0.000168176
0.000168176
0.000168176
0.000168177
0.000168177
0.000168177
0.000168178
0.000168178
0.000168178
0.000168178
0.000168179
0.000168179
0.000168179
0.000168179
0.000168179
0.00016818
0.00016818
0.00016818
0.00016818
0.00016818
0.00016818
0.00016818
0.00016818
0.00016818
0.00016818
0.00016818
0.00016818
0.00016818
0.00016818
0.00016818
0.000168179
0.000168179
0.000168179
0.000168178
0.000168178
0.000168177
0.000168177
0.000168176
0.000168176
0.000168175
0.000168175
0.000168174
0.000168173
0.000168173
0.000168172
0.000168172
0.00016827
0.000168269
0.000168267
0.000168265
0.000168264
0.000168262
0.000168261
0.00016826
0.000168259
0.000168258
0.000168257
0.000168256
0.000168256
0.000168255
0.000168255
0.000168254
0.000168254
0.000168254
0.000168254
0.000168253
0.000168253
0.000168253
0.000168253
0.000168253
0.000168253
0.000168253
0.000168254
0.000168254
0.000168254
0.000168255
0.000168255
0.000168255
0.000168256
0.000168256
0.000168257
0.000168257
0.000168258
0.000168258
0.000168259
0.000168259
0.00016826
0.00016826
0.000168261
0.000168261
0.000168262
0.000168262
0.000168263
0.000168263
0.000168264
0.000168264
0.000168265
0.000168265
0.000168266
0.000168266
0.000168267
0.000168267
0.000168268
0.000168268
0.000168269
0.000168269
0.00016827
0.00016827
0.00016827
0.000168271
0.000168271
0.000168272
0.000168272
0.000168273
0.000168273
0.000168273
0.000168274
0.000168274
0.000168275
0.000168275
0.000168275
0.000168276
0.000168276
0.000168276
0.000168277
0.000168277
0.000168277
0.000168278
0.000168278
0.000168278
0.000168278
0.000168279
0.000168279
0.000168279
0.000168279
0.000168279
0.000168279
0.00016828
0.00016828
0.00016828
0.00016828
0.00016828
0.00016828
0.00016828
0.00016828
0.00016828
0.00016828
0.00016828
0.00016828
0.00016828
0.000168279
0.000168279
0.000168278
0.000168278
0.000168278
0.000168277
0.000168277
0.000168276
0.000168275
0.000168275
0.000168274
0.000168274
0.000168273
0.000168273
0.000168272
0.000168272
0.000168246
0.000168244
0.000168243
0.000168241
0.000168239
0.000168238
0.000168236
0.000168235
0.000168234
0.000168233
0.000168232
0.000168232
0.000168231
0.00016823
0.00016823
0.00016823
0.000168229
0.000168229
0.000168229
0.000168229
0.000168229
0.000168229
0.000168229
0.000168229
0.000168229
0.000168229
0.000168229
0.000168229
0.00016823
0.00016823
0.000168231
0.000168231
0.000168232
0.000168232
0.000168233
0.000168233
0.000168234
0.000168234
0.000168235
0.000168235
0.000168236
0.000168236
0.000168237
0.000168237
0.000168238
0.000168238
0.000168239
0.000168239
0.00016824
0.00016824
0.000168241
0.000168241
0.000168242
0.000168242
0.000168243
0.000168243
0.000168244
0.000168244
0.000168245
0.000168245
0.000168246
0.000168246
0.000168247
0.000168247
0.000168247
0.000168248
0.000168248
0.000168249
0.000168249
0.00016825
0.00016825
0.00016825
0.000168251
0.000168251
0.000168251
0.000168252
0.000168252
0.000168252
0.000168253
0.000168253
0.000168253
0.000168253
0.000168254
0.000168254
0.000168254
0.000168254
0.000168255
0.000168255
0.000168255
0.000168255
0.000168255
0.000168255
0.000168256
0.000168256
0.000168256
0.000168256
0.000168256
0.000168256
0.000168256
0.000168256
0.000168256
0.000168256
0.000168256
0.000168256
0.000168255
0.000168255
0.000168254
0.000168254
0.000168253
0.000168253
0.000168252
0.000168252
0.000168251
0.000168251
0.00016825
0.00016825
0.000168249
0.000168248
0.000168248
0.000168247
0.000168086
0.000168084
0.000168082
0.00016808
0.000168079
0.000168077
0.000168076
0.000168074
0.000168073
0.000168072
0.000168072
0.000168071
0.00016807
0.00016807
0.000168069
0.000168069
0.000168068
0.000168068
0.000168068
0.000168068
0.000168068
0.000168068
0.000168068
0.000168068
0.000168068
0.000168068
0.000168069
0.000168069
0.000168069
0.00016807
0.00016807
0.000168071
0.000168071
0.000168072
0.000168072
0.000168073
0.000168074
0.000168074
0.000168075
0.000168075
0.000168076
0.000168076
0.000168077
0.000168077
0.000168078
0.000168079
0.000168079
0.00016808
0.00016808
0.000168081
0.000168081
0.000168082
0.000168082
0.000168083
0.000168083
0.000168083
0.000168084
0.000168084
0.000168085
0.000168085
0.000168086
0.000168086
0.000168087
0.000168087
0.000168087
0.000168088
0.000168088
0.000168089
0.000168089
0.000168089
0.00016809
0.00016809
0.00016809
0.000168091
0.000168091
0.000168091
0.000168092
0.000168092
0.000168092
0.000168093
0.000168093
0.000168093
0.000168093
0.000168094
0.000168094
0.000168094
0.000168094
0.000168095
0.000168095
0.000168095
0.000168095
0.000168095
0.000168095
0.000168095
0.000168095
0.000168095
0.000168096
0.000168096
0.000168096
0.000168096
0.000168096
0.000168096
0.000168096
0.000168095
0.000168095
0.000168095
0.000168094
0.000168094
0.000168093
0.000168093
0.000168092
0.000168092
0.000168091
0.00016809
0.00016809
0.000168089
0.000168089
0.000168088
0.000168087
0.000168087
0.000167775
0.000167773
0.000167771
0.000167769
0.000167767
0.000167766
0.000167764
0.000167763
0.000167762
0.000167761
0.00016776
0.000167759
0.000167759
0.000167758
0.000167758
0.000167757
0.000167757
0.000167757
0.000167757
0.000167757
0.000167757
0.000167757
0.000167757
0.000167757
0.000167757
0.000167757
0.000167757
0.000167758
0.000167758
0.000167759
0.000167759
0.00016776
0.00016776
0.000167761
0.000167761
0.000167762
0.000167763
0.000167763
0.000167764
0.000167764
0.000167765
0.000167766
0.000167766
0.000167767
0.000167767
0.000167768
0.000167768
0.000167769
0.000167769
0.00016777
0.00016777
0.000167771
0.000167771
0.000167772
0.000167772
0.000167773
0.000167773
0.000167774
0.000167774
0.000167775
0.000167775
0.000167775
0.000167776
0.000167776
0.000167777
0.000167777
0.000167777
0.000167778
0.000167778
0.000167779
0.000167779
0.000167779
0.00016778
0.00016778
0.00016778
0.000167781
0.000167781
0.000167781
0.000167781
0.000167782
0.000167782
0.000167782
0.000167782
0.000167783
0.000167783
0.000167783
0.000167783
0.000167783
0.000167784
0.000167784
0.000167784
0.000167784
0.000167784
0.000167784
0.000167784
0.000167784
0.000167784
0.000167785
0.000167785
0.000167785
0.000167785
0.000167785
0.000167784
0.000167784
0.000167784
0.000167784
0.000167783
0.000167783
0.000167782
0.000167782
0.000167781
0.000167781
0.00016778
0.000167779
0.000167779
0.000167778
0.000167778
0.000167777
0.000167776
0.000167776
0.000167296
0.000167294
0.000167292
0.00016729
0.000167288
0.000167286
0.000167285
0.000167284
0.000167282
0.000167282
0.000167281
0.00016728
0.000167279
0.000167279
0.000167278
0.000167278
0.000167278
0.000167277
0.000167277
0.000167277
0.000167277
0.000167277
0.000167277
0.000167277
0.000167278
0.000167278
0.000167278
0.000167278
0.000167279
0.000167279
0.00016728
0.00016728
0.000167281
0.000167282
0.000167282
0.000167283
0.000167284
0.000167284
0.000167285
0.000167285
0.000167286
0.000167287
0.000167287
0.000167288
0.000167288
0.000167289
0.00016729
0.00016729
0.000167291
0.000167291
0.000167292
0.000167292
0.000167293
0.000167293
0.000167293
0.000167294
0.000167294
0.000167295
0.000167295
0.000167296
0.000167296
0.000167296
0.000167297
0.000167297
0.000167298
0.000167298
0.000167298
0.000167299
0.000167299
0.000167299
0.0001673
0.0001673
0.0001673
0.000167301
0.000167301
0.000167301
0.000167302
0.000167302
0.000167302
0.000167302
0.000167303
0.000167303
0.000167303
0.000167303
0.000167304
0.000167304
0.000167304
0.000167304
0.000167304
0.000167304
0.000167305
0.000167305
0.000167305
0.000167305
0.000167305
0.000167305
0.000167305
0.000167305
0.000167305
0.000167305
0.000167305
0.000167305
0.000167305
0.000167305
0.000167305
0.000167304
0.000167304
0.000167304
0.000167303
0.000167303
0.000167302
0.000167301
0.000167301
0.0001673
0.0001673
0.000167299
0.000167299
0.000167298
0.000167297
0.000167297
0.000166627
0.000166625
0.000166623
0.000166621
0.000166619
0.000166618
0.000166616
0.000166615
0.000166614
0.000166613
0.000166612
0.000166611
0.00016661
0.00016661
0.000166609
0.000166609
0.000166609
0.000166608
0.000166608
0.000166608
0.000166608
0.000166608
0.000166609
0.000166609
0.000166609
0.000166609
0.00016661
0.00016661
0.00016661
0.000166611
0.000166611
0.000166612
0.000166613
0.000166613
0.000166614
0.000166615
0.000166615
0.000166616
0.000166616
0.000166617
0.000166618
0.000166618
0.000166619
0.00016662
0.00016662
0.000166621
0.000166621
0.000166622
0.000166622
0.000166623
0.000166623
0.000166624
0.000166624
0.000166625
0.000166625
0.000166626
0.000166626
0.000166626
0.000166627
0.000166627
0.000166628
0.000166628
0.000166628
0.000166629
0.000166629
0.00016663
0.00016663
0.00016663
0.000166631
0.000166631
0.000166631
0.000166632
0.000166632
0.000166632
0.000166632
0.000166633
0.000166633
0.000166633
0.000166633
0.000166634
0.000166634
0.000166634
0.000166634
0.000166635
0.000166635
0.000166635
0.000166635
0.000166635
0.000166636
0.000166636
0.000166636
0.000166636
0.000166636
0.000166636
0.000166636
0.000166636
0.000166636
0.000166636
0.000166636
0.000166637
0.000166637
0.000166636
0.000166636
0.000166636
0.000166636
0.000166636
0.000166635
0.000166635
0.000166634
0.000166634
0.000166633
0.000166633
0.000166632
0.000166632
0.000166631
0.000166631
0.00016663
0.000166629
0.000166629
0.000166629
0.000165744
0.000165742
0.000165739
0.000165738
0.000165736
0.000165734
0.000165733
0.000165731
0.00016573
0.000165729
0.000165728
0.000165727
0.000165727
0.000165726
0.000165726
0.000165725
0.000165725
0.000165725
0.000165725
0.000165725
0.000165725
0.000165725
0.000165725
0.000165725
0.000165725
0.000165726
0.000165726
0.000165726
0.000165727
0.000165727
0.000165728
0.000165728
0.000165729
0.00016573
0.00016573
0.000165731
0.000165732
0.000165732
0.000165733
0.000165734
0.000165734
0.000165735
0.000165736
0.000165736
0.000165737
0.000165737
0.000165738
0.000165739
0.000165739
0.000165739
0.00016574
0.00016574
0.000165741
0.000165741
0.000165742
0.000165742
0.000165743
0.000165743
0.000165743
0.000165744
0.000165744
0.000165745
0.000165745
0.000165745
0.000165746
0.000165746
0.000165746
0.000165747
0.000165747
0.000165747
0.000165748
0.000165748
0.000165748
0.000165748
0.000165749
0.000165749
0.000165749
0.000165749
0.00016575
0.00016575
0.00016575
0.00016575
0.000165751
0.000165751
0.000165751
0.000165751
0.000165751
0.000165752
0.000165752
0.000165752
0.000165752
0.000165752
0.000165752
0.000165752
0.000165752
0.000165752
0.000165753
0.000165753
0.000165753
0.000165753
0.000165753
0.000165753
0.000165753
0.000165752
0.000165752
0.000165752
0.000165752
0.000165751
0.000165751
0.00016575
0.00016575
0.000165749
0.000165749
0.000165748
0.000165748
0.000165747
0.000165746
0.000165746
0.000165745
0.000165745
0.000164614
0.000164612
0.00016461
0.000164608
0.000164606
0.000164604
0.000164603
0.000164601
0.0001646
0.000164599
0.000164598
0.000164597
0.000164596
0.000164596
0.000164595
0.000164595
0.000164595
0.000164595
0.000164594
0.000164594
0.000164594
0.000164595
0.000164595
0.000164595
0.000164595
0.000164596
0.000164596
0.000164596
0.000164597
0.000164597
0.000164598
0.000164599
0.000164599
0.0001646
0.000164601
0.000164601
0.000164602
0.000164603
0.000164603
0.000164604
0.000164605
0.000164605
0.000164606
0.000164606
0.000164607
0.000164608
0.000164608
0.000164609
0.000164609
0.00016461
0.00016461
0.000164611
0.000164611
0.000164612
0.000164612
0.000164612
0.000164613
0.000164613
0.000164614
0.000164614
0.000164614
0.000164615
0.000164615
0.000164615
0.000164616
0.000164616
0.000164616
0.000164617
0.000164617
0.000164617
0.000164617
0.000164618
0.000164618
0.000164618
0.000164619
0.000164619
0.000164619
0.000164619
0.000164619
0.00016462
0.00016462
0.00016462
0.00016462
0.000164621
0.000164621
0.000164621
0.000164621
0.000164621
0.000164621
0.000164621
0.000164622
0.000164622
0.000164622
0.000164622
0.000164622
0.000164622
0.000164622
0.000164622
0.000164622
0.000164622
0.000164622
0.000164622
0.000164622
0.000164622
0.000164622
0.000164622
0.000164622
0.000164621
0.000164621
0.00016462
0.00016462
0.000164619
0.000164619
0.000164618
0.000164618
0.000164617
0.000164616
0.000164616
0.000164615
0.000164615
0.000163198
0.000163197
0.000163195
0.000163193
0.000163191
0.000163189
0.000163188
0.000163186
0.000163185
0.000163184
0.000163183
0.000163182
0.000163181
0.000163181
0.00016318
0.00016318
0.00016318
0.000163179
0.000163179
0.000163179
0.000163179
0.00016318
0.00016318
0.00016318
0.00016318
0.000163181
0.000163181
0.000163182
0.000163182
0.000163182
0.000163183
0.000163184
0.000163184
0.000163185
0.000163186
0.000163186
0.000163187
0.000163188
0.000163188
0.000163189
0.00016319
0.00016319
0.000163191
0.000163192
0.000163192
0.000163193
0.000163193
0.000163194
0.000163194
0.000163195
0.000163195
0.000163196
0.000163196
0.000163197
0.000163197
0.000163197
0.000163198
0.000163198
0.000163199
0.000163199
0.000163199
0.0001632
0.0001632
0.0001632
0.000163201
0.000163201
0.000163201
0.000163201
0.000163202
0.000163202
0.000163202
0.000163203
0.000163203
0.000163203
0.000163203
0.000163203
0.000163204
0.000163204
0.000163204
0.000163204
0.000163205
0.000163205
0.000163205
0.000163205
0.000163205
0.000163206
0.000163206
0.000163206
0.000163206
0.000163206
0.000163206
0.000163206
0.000163206
0.000163207
0.000163207
0.000163207
0.000163207
0.000163207
0.000163207
0.000163207
0.000163207
0.000163207
0.000163207
0.000163207
0.000163207
0.000163207
0.000163206
0.000163206
0.000163206
0.000163205
0.000163205
0.000163204
0.000163204
0.000163203
0.000163203
0.000163202
0.000163201
0.000163201
0.0001632
0.0001632
0.000161451
0.000161449
0.000161447
0.000161445
0.000161443
0.000161442
0.00016144
0.000161439
0.000161437
0.000161436
0.000161435
0.000161434
0.000161433
0.000161433
0.000161432
0.000161432
0.000161432
0.000161431
0.000161431
0.000161432
0.000161432
0.000161432
0.000161432
0.000161432
0.000161433
0.000161433
0.000161433
0.000161434
0.000161434
0.000161435
0.000161435
0.000161436
0.000161437
0.000161437
0.000161438
0.000161439
0.000161439
0.00016144
0.000161441
0.000161441
0.000161442
0.000161443
0.000161443
0.000161444
0.000161444
0.000161445
0.000161446
0.000161446
0.000161447
0.000161447
0.000161448
0.000161448
0.000161448
0.000161449
0.000161449
0.00016145
0.00016145
0.00016145
0.000161451
0.000161451
0.000161451
0.000161452
0.000161452
0.000161452
0.000161453
0.000161453
0.000161453
0.000161453
0.000161454
0.000161454
0.000161454
0.000161454
0.000161455
0.000161455
0.000161455
0.000161455
0.000161456
0.000161456
0.000161456
0.000161456
0.000161456
0.000161457
0.000161457
0.000161457
0.000161457
0.000161457
0.000161457
0.000161458
0.000161458
0.000161458
0.000161458
0.000161458
0.000161458
0.000161458
0.000161458
0.000161458
0.000161459
0.000161459
0.000161459
0.000161459
0.000161459
0.000161459
0.000161459
0.000161459
0.000161459
0.000161458
0.000161458
0.000161458
0.000161457
0.000161457
0.000161457
0.000161456
0.000161456
0.000161455
0.000161455
0.000161454
0.000161453
0.000161453
0.000161452
0.000161452
0.00015931
0.000159309
0.000159307
0.000159305
0.000159303
0.000159302
0.0001593
0.000159299
0.000159297
0.000159296
0.000159295
0.000159294
0.000159293
0.000159293
0.000159292
0.000159292
0.000159291
0.000159291
0.000159291
0.000159291
0.000159291
0.000159292
0.000159292
0.000159292
0.000159293
0.000159293
0.000159293
0.000159294
0.000159294
0.000159295
0.000159295
0.000159296
0.000159296
0.000159297
0.000159298
0.000159298
0.000159299
0.0001593
0.0001593
0.000159301
0.000159302
0.000159302
0.000159303
0.000159304
0.000159304
0.000159305
0.000159305
0.000159306
0.000159306
0.000159307
0.000159307
0.000159308
0.000159308
0.000159308
0.000159309
0.000159309
0.00015931
0.00015931
0.00015931
0.000159311
0.000159311
0.000159311
0.000159311
0.000159312
0.000159312
0.000159312
0.000159312
0.000159313
0.000159313
0.000159313
0.000159313
0.000159314
0.000159314
0.000159314
0.000159314
0.000159315
0.000159315
0.000159315
0.000159315
0.000159315
0.000159316
0.000159316
0.000159316
0.000159316
0.000159316
0.000159317
0.000159317
0.000159317
0.000159317
0.000159317
0.000159317
0.000159317
0.000159317
0.000159317
0.000159318
0.000159318
0.000159318
0.000159318
0.000159318
0.000159318
0.000159318
0.000159318
0.000159318
0.000159318
0.000159318
0.000159318
0.000159317
0.000159317
0.000159317
0.000159316
0.000159316
0.000159316
0.000159315
0.000159315
0.000159314
0.000159314
0.000159313
0.000159313
0.000159312
0.000159312
0.000156703
0.000156701
0.0001567
0.000156698
0.000156696
0.000156694
0.000156693
0.000156691
0.00015669
0.000156688
0.000156687
0.000156686
0.000156686
0.000156685
0.000156684
0.000156684
0.000156684
0.000156684
0.000156684
0.000156684
0.000156684
0.000156684
0.000156684
0.000156685
0.000156685
0.000156685
0.000156686
0.000156686
0.000156687
0.000156687
0.000156688
0.000156688
0.000156689
0.00015669
0.00015669
0.000156691
0.000156691
0.000156692
0.000156693
0.000156693
0.000156694
0.000156695
0.000156695
0.000156696
0.000156696
0.000156697
0.000156697
0.000156698
0.000156698
0.000156699
0.000156699
0.0001567
0.0001567
0.000156701
0.000156701
0.000156701
0.000156702
0.000156702
0.000156702
0.000156703
0.000156703
0.000156703
0.000156703
0.000156704
0.000156704
0.000156704
0.000156704
0.000156705
0.000156705
0.000156705
0.000156705
0.000156706
0.000156706
0.000156706
0.000156706
0.000156706
0.000156707
0.000156707
0.000156707
0.000156707
0.000156707
0.000156708
0.000156708
0.000156708
0.000156708
0.000156708
0.000156708
0.000156708
0.000156709
0.000156709
0.000156709
0.000156709
0.000156709
0.000156709
0.000156709
0.000156709
0.000156709
0.00015671
0.00015671
0.00015671
0.00015671
0.00015671
0.00015671
0.00015671
0.00015671
0.000156709
0.000156709
0.000156709
0.000156709
0.000156708
0.000156708
0.000156708
0.000156707
0.000156707
0.000156706
0.000156706
0.000156705
0.000156705
0.000156704
0.000156704
0.000153533
0.000153531
0.00015353
0.000153528
0.000153527
0.000153525
0.000153523
0.000153522
0.00015352
0.000153519
0.000153518
0.000153517
0.000153516
0.000153515
0.000153514
0.000153514
0.000153514
0.000153514
0.000153514
0.000153514
0.000153514
0.000153514
0.000153515
0.000153515
0.000153515
0.000153516
0.000153516
0.000153517
0.000153517
0.000153517
0.000153518
0.000153519
0.000153519
0.00015352
0.00015352
0.000153521
0.000153522
0.000153522
0.000153523
0.000153523
0.000153524
0.000153525
0.000153525
0.000153526
0.000153526
0.000153527
0.000153527
0.000153528
0.000153528
0.000153529
0.000153529
0.00015353
0.00015353
0.00015353
0.000153531
0.000153531
0.000153531
0.000153532
0.000153532
0.000153532
0.000153533
0.000153533
0.000153533
0.000153533
0.000153534
0.000153534
0.000153534
0.000153534
0.000153534
0.000153535
0.000153535
0.000153535
0.000153535
0.000153535
0.000153536
0.000153536
0.000153536
0.000153536
0.000153536
0.000153537
0.000153537
0.000153537
0.000153537
0.000153537
0.000153538
0.000153538
0.000153538
0.000153538
0.000153538
0.000153538
0.000153538
0.000153538
0.000153538
0.000153539
0.000153539
0.000153539
0.000153539
0.000153539
0.000153539
0.000153539
0.000153539
0.000153539
0.000153539
0.000153539
0.000153539
0.000153539
0.000153539
0.000153539
0.000153538
0.000153538
0.000153538
0.000153537
0.000153537
0.000153537
0.000153536
0.000153536
0.000153535
0.000153535
0.000153534
0.000153534
0.00014968
0.000149679
0.000149678
0.000149676
0.000149674
0.000149673
0.000149671
0.000149669
0.000149668
0.000149666
0.000149665
0.000149664
0.000149663
0.000149662
0.000149662
0.000149661
0.000149661
0.000149661
0.000149661
0.000149661
0.000149661
0.000149662
0.000149662
0.000149662
0.000149663
0.000149663
0.000149663
0.000149664
0.000149664
0.000149665
0.000149665
0.000149666
0.000149666
0.000149667
0.000149668
0.000149668
0.000149669
0.000149669
0.00014967
0.00014967
0.000149671
0.000149672
0.000149672
0.000149673
0.000149673
0.000149674
0.000149674
0.000149675
0.000149675
0.000149676
0.000149676
0.000149676
0.000149677
0.000149677
0.000149677
0.000149678
0.000149678
0.000149678
0.000149679
0.000149679
0.000149679
0.000149679
0.00014968
0.00014968
0.00014968
0.00014968
0.000149681
0.000149681
0.000149681
0.000149681
0.000149681
0.000149682
0.000149682
0.000149682
0.000149682
0.000149682
0.000149683
0.000149683
0.000149683
0.000149683
0.000149683
0.000149683
0.000149684
0.000149684
0.000149684
0.000149684
0.000149684
0.000149684
0.000149684
0.000149685
0.000149685
0.000149685
0.000149685
0.000149685
0.000149685
0.000149685
0.000149685
0.000149685
0.000149685
0.000149685
0.000149685
0.000149685
0.000149685
0.000149685
0.000149685
0.000149685
0.000149685
0.000149685
0.000149685
0.000149685
0.000149684
0.000149684
0.000149684
0.000149683
0.000149683
0.000149682
0.000149682
0.000149681
0.000149681
0.00014968
0.00014499
0.000144989
0.000144988
0.000144987
0.000144985
0.000144983
0.000144981
0.000144979
0.000144978
0.000144976
0.000144975
0.000144974
0.000144973
0.000144972
0.000144972
0.000144971
0.000144971
0.000144971
0.000144971
0.000144971
0.000144971
0.000144972
0.000144972
0.000144972
0.000144973
0.000144973
0.000144974
0.000144974
0.000144974
0.000144975
0.000144975
0.000144976
0.000144976
0.000144977
0.000144977
0.000144978
0.000144979
0.000144979
0.00014498
0.00014498
0.000144981
0.000144981
0.000144982
0.000144982
0.000144983
0.000144983
0.000144984
0.000144984
0.000144985
0.000144985
0.000144985
0.000144986
0.000144986
0.000144987
0.000144987
0.000144987
0.000144987
0.000144988
0.000144988
0.000144988
0.000144988
0.000144989
0.000144989
0.000144989
0.000144989
0.00014499
0.00014499
0.00014499
0.00014499
0.00014499
0.000144991
0.000144991
0.000144991
0.000144991
0.000144991
0.000144992
0.000144992
0.000144992
0.000144992
0.000144992
0.000144992
0.000144993
0.000144993
0.000144993
0.000144993
0.000144993
0.000144993
0.000144993
0.000144994
0.000144994
0.000144994
0.000144994
0.000144994
0.000144994
0.000144994
0.000144994
0.000144994
0.000144994
0.000144995
0.000144995
0.000144995
0.000144995
0.000144995
0.000144995
0.000144995
0.000144995
0.000144994
0.000144994
0.000144994
0.000144994
0.000144994
0.000144993
0.000144993
0.000144993
0.000144992
0.000144992
0.000144991
0.000144991
0.00014499
0.00014499
0.000139265
0.000139265
0.000139264
0.000139263
0.000139261
0.000139259
0.000139257
0.000139255
0.000139254
0.000139252
0.000139251
0.00013925
0.000139249
0.000139248
0.000139247
0.000139247
0.000139247
0.000139247
0.000139247
0.000139247
0.000139247
0.000139247
0.000139248
0.000139248
0.000139248
0.000139249
0.000139249
0.00013925
0.00013925
0.000139251
0.000139251
0.000139251
0.000139252
0.000139252
0.000139253
0.000139253
0.000139254
0.000139254
0.000139255
0.000139255
0.000139256
0.000139257
0.000139257
0.000139257
0.000139258
0.000139258
0.000139259
0.000139259
0.00013926
0.00013926
0.00013926
0.000139261
0.000139261
0.000139261
0.000139262
0.000139262
0.000139262
0.000139263
0.000139263
0.000139263
0.000139263
0.000139264
0.000139264
0.000139264
0.000139264
0.000139264
0.000139265
0.000139265
0.000139265
0.000139265
0.000139265
0.000139266
0.000139266
0.000139266
0.000139266
0.000139266
0.000139266
0.000139267
0.000139267
0.000139267
0.000139267
0.000139267
0.000139267
0.000139268
0.000139268
0.000139268
0.000139268
0.000139268
0.000139268
0.000139268
0.000139268
0.000139269
0.000139269
0.000139269
0.000139269
0.000139269
0.000139269
0.000139269
0.000139269
0.000139269
0.000139269
0.000139269
0.000139269
0.000139269
0.000139269