/*--------------------------------*- C++ -*----------------------------------*\
  =========                 |
  \\      /  F ield         | OpenFOAM: The Open Source CFD Toolbox
   \\    /   O peration     | Website:  https://openfoam.org
    \\  /    A nd           | Version:  7
     \\/     M anipulation  |
\*---------------------------------------------------------------------------*/
FoamFile
{
    version     2.0;
    format      ascii;
    class       surfaceScalarField;
    location    "17000";
    object      phi;
}
// * * * * * * * * * * * * * * * * * * * * * * * * * * * * * * * * * * * * * //

dimensions      [0 3 -1 0 0 0 0];

internalField   nonuniform List<scalar> 
7920
(
0.000136862
-6.14855e-10
0.000136862
-5.3841e-10
0.000136862
-4.69195e-10
0.000136862
-4.04783e-10
0.000136862
-3.43637e-10
0.000136862
-2.85438e-10
0.000136862
-2.30416e-10
0.000136862
-1.78445e-10
0.000136862
-1.29005e-10
0.000136862
-8.16596e-11
0.000136861
-3.62966e-11
0.000136861
6.85769e-12
0.000136861
4.79759e-11
0.000136861
8.79679e-11
0.000136861
1.27321e-10
0.000136861
1.65547e-10
0.000136861
2.02003e-10
0.000136861
2.36792e-10
0.000136861
2.70471e-10
0.000136861
3.03068e-10
0.000136861
3.34128e-10
0.000136861
3.63387e-10
0.000136861
3.9093e-10
0.000136861
4.1707e-10
0.000136861
4.42004e-10
0.000136861
4.65231e-10
0.000136861
4.85998e-10
0.000136861
5.04425e-10
0.000136861
5.21104e-10
0.000136861
5.3627e-10
0.000136861
5.50027e-10
0.000136861
5.62444e-10
0.000136861
5.73273e-10
0.000136861
5.82403e-10
0.000136861
5.90221e-10
0.000136861
5.9708e-10
0.000136861
6.03088e-10
0.000136861
6.08286e-10
0.000136861
6.12762e-10
0.000136861
6.16591e-10
0.000136861
6.19547e-10
0.000136861
6.21258e-10
0.000136861
6.21818e-10
0.000136861
6.21782e-10
0.000136861
6.21414e-10
0.000136861
6.20502e-10
0.000136861
6.18929e-10
0.000136861
6.16876e-10
0.000136861
6.14587e-10
0.000136861
6.12032e-10
0.000136861
6.08873e-10
0.000136861
6.05083e-10
0.000136861
6.0116e-10
0.000136861
5.97395e-10
0.000136861
5.93645e-10
0.000136861
5.89805e-10
0.000136861
5.85916e-10
0.000136861
5.81892e-10
0.000136861
5.77497e-10
0.000136861
5.72833e-10
0.000136861
5.68256e-10
0.000136861
5.6378e-10
0.000136861
5.59097e-10
0.000136861
5.54165e-10
0.000136861
5.49367e-10
0.000136861
5.44952e-10
0.000136861
5.40877e-10
0.000136861
5.37021e-10
0.000136861
5.33337e-10
0.000136861
5.29666e-10
0.000136861
5.2555e-10
0.000136861
5.20138e-10
0.000136861
5.1213e-10
0.000136861
5.01411e-10
0.000136861
4.83757e-10
0.000136861
4.66406e-10
4.10694e-10
0.000132546
-8.161e-10
0.000132546
-1.11129e-09
0.000132546
-1.36223e-09
0.000132546
-1.56133e-09
0.000132546
-1.70901e-09
0.000132546
-1.81065e-09
0.000132546
-1.86997e-09
0.000132546
-1.89151e-09
0.000132546
-1.88051e-09
0.000132546
-1.84267e-09
0.000132546
-1.78333e-09
0.000132546
-1.70753e-09
0.000132546
-1.62028e-09
0.000132546
-1.52599e-09
0.000132546
-1.42816e-09
0.000132546
-1.32893e-09
0.000132546
-1.2305e-09
0.000132546
-1.1341e-09
0.000132546
-1.04241e-09
0.000132546
-9.55961e-10
0.000132546
-8.77331e-10
0.000132546
-8.06757e-10
0.000132546
-7.47378e-10
0.000132546
-6.69161e-10
0.000132546
-5.74913e-10
0.000132546
-4.99704e-10
0.000132546
-4.33535e-10
0.000132546
-3.71265e-10
0.000132546
-3.11663e-10
0.000132546
-2.547e-10
0.000132546
-2.00664e-10
0.000132546
-1.49377e-10
0.000132546
-1.00386e-10
0.000132546
-5.34662e-11
0.000132546
-8.63899e-12
0.000132546
3.39342e-11
0.000132546
7.45135e-11
0.000132546
1.13957e-10
0.000132546
1.52649e-10
0.000132546
1.90029e-10
0.000132546
2.25477e-10
0.000132546
2.59186e-10
0.000132546
2.91762e-10
0.000132546
3.23182e-10
0.000132546
3.52924e-10
0.000132546
3.80759e-10
0.000132546
4.0689e-10
0.000132546
4.31653e-10
0.000132546
4.55145e-10
0.000132545
4.76826e-10
0.000132545
4.96041e-10
0.000132545
5.12999e-10
0.000132545
5.2832e-10
0.000132545
5.42201e-10
0.000132545
5.54686e-10
0.000132545
5.6584e-10
0.000132545
5.75476e-10
0.000132545
5.83556e-10
0.000132545
5.90425e-10
0.000132545
5.96359e-10
0.000132545
6.01533e-10
0.000132545
6.0601e-10
0.000132545
6.09759e-10
0.000132545
6.12825e-10
0.000132545
6.15048e-10
0.000132545
6.16121e-10
0.000132545
6.16165e-10
0.000132545
6.15708e-10
0.000132545
6.15011e-10
0.000132545
6.13844e-10
0.000132546
6.12016e-10
0.000132546
6.09707e-10
0.000132546
6.07186e-10
0.000132546
6.04399e-10
0.000132546
6.01063e-10
0.000132546
5.97213e-10
0.000132546
5.93294e-10
0.000132546
5.89567e-10
0.000132546
5.85859e-10
0.000132546
5.82019e-10
0.000132546
5.78123e-10
0.000132546
5.74132e-10
0.000132546
5.69855e-10
0.000132546
5.65404e-10
0.000132546
5.61073e-10
0.000132546
5.56778e-10
0.000132546
5.52243e-10
0.000132546
5.4752e-10
0.000132546
5.42962e-10
0.000132546
5.38777e-10
0.000132546
5.3489e-10
0.000132546
5.31136e-10
0.000132546
5.2748e-10
0.000132546
5.23818e-10
0.000132546
5.19746e-10
0.000132546
5.14437e-10
0.000132546
5.06504e-10
0.000132546
4.9615e-10
0.000132546
4.78463e-10
0.000132546
4.62598e-10
0.000132546
4.03568e-10
0.000132546
3.23195e-10
0.000132546
2.87939e-10
0.000132546
2.68497e-10
0.000132546
2.51644e-10
0.000132546
2.38046e-10
0.000132546
2.27622e-10
0.000132546
2.20105e-10
0.000132546
2.14884e-10
0.000132546
2.10764e-10
0.000132546
2.06873e-10
0.000132546
2.01952e-10
0.000132546
1.95864e-10
0.000132546
1.83722e-10
0.000132546
1.67337e-10
0.000132546
1.28733e-10
0.000132546
8.39104e-11
0.000132546
-2.8271e-11
0.000132546
-1.75207e-10
-4.41003e-10
0.00012832
-8.09906e-10
0.00012832
-1.10429e-09
0.00012832
-1.35709e-09
0.00012832
-1.55882e-09
0.00012832
-1.70943e-09
0.00012832
-1.81357e-09
0.00012832
-1.87449e-09
0.00012832
-1.89672e-09
0.00012832
-1.88574e-09
0.00012832
-1.8475e-09
0.00012832
-1.78759e-09
0.00012832
-1.7112e-09
0.00012832
-1.62338e-09
0.00012832
-1.52852e-09
0.00012832
-1.42998e-09
0.00012832
-1.32993e-09
0.00012832
-1.23075e-09
0.00012832
-1.13368e-09
0.00012832
-1.04125e-09
0.00012832
-9.53996e-10
0.00012832
-8.74558e-10
0.00012832
-8.02276e-10
0.00012832
-7.42189e-10
0.00012832
-6.6284e-10
0.00012832
-5.6274e-10
0.00012832
-4.81198e-10
0.00012832
-4.11914e-10
0.00012832
-3.48366e-10
0.00012832
-2.88304e-10
0.00012832
-2.31267e-10
0.00012832
-1.7726e-10
0.00012832
-1.25908e-10
0.00012832
-7.67816e-11
0.00012832
-2.98356e-11
0.00012832
1.48173e-11
0.00012832
5.71466e-11
0.00012832
9.75377e-11
0.00012832
1.36762e-10
0.00012832
1.75063e-10
0.00012832
2.11843e-10
0.00012832
2.46549e-10
0.00012832
2.79461e-10
0.00012832
3.11174e-10
0.00012832
3.41599e-10
0.00012832
3.70194e-10
0.00012832
3.96804e-10
0.00012832
4.21725e-10
0.00012832
4.45263e-10
0.00012832
4.67382e-10
0.00012832
4.87549e-10
0.00012832
5.05281e-10
0.00012832
5.20867e-10
0.00012832
5.34905e-10
0.00012832
5.47552e-10
0.00012832
5.58784e-10
0.00012832
5.68641e-10
0.00012832
5.7703e-10
0.00012832
5.8404e-10
0.00012832
5.89966e-10
0.00012832
5.94974e-10
0.00012832
5.99296e-10
0.00012832
6.03018e-10
0.00012832
6.05977e-10
0.00012832
6.08187e-10
0.00012832
6.09609e-10
0.00012832
6.10037e-10
0.00012832
6.09571e-10
0.00012832
6.0865e-10
0.00012832
6.0753e-10
0.00012832
6.06029e-10
0.00012832
6.03902e-10
0.00012832
6.0129e-10
0.00012832
5.98473e-10
0.00012832
5.95387e-10
0.00012832
5.91828e-10
0.00012832
5.87908e-10
0.00012832
5.83993e-10
0.00012832
5.80269e-10
0.00012832
5.7654e-10
0.00012832
5.72631e-10
0.00012832
5.68656e-10
0.00012832
5.64657e-10
0.00012832
5.60497e-10
0.00012832
5.56266e-10
0.00012832
5.52159e-10
0.00012832
5.48003e-10
0.00012832
5.43589e-10
0.00012832
5.39074e-10
0.00012832
5.34756e-10
0.00012832
5.30781e-10
0.00012832
5.27052e-10
0.00012832
5.23372e-10
0.00012832
5.19719e-10
0.00012832
5.16046e-10
0.00012832
5.12008e-10
0.00012832
5.06798e-10
0.00012832
4.98985e-10
0.00012832
4.88928e-10
0.00012832
4.71822e-10
0.00012832
4.55171e-10
0.00012832
4.08678e-10
0.00012832
3.32359e-10
0.00012832
2.80314e-10
0.00012832
2.51987e-10
0.00012832
2.33645e-10
0.00012832
2.2076e-10
0.00012832
2.11274e-10
0.00012832
2.04549e-10
0.00012832
1.99897e-10
0.00012832
1.96139e-10
0.00012832
1.92494e-10
0.00012832
1.87632e-10
0.00012832
1.81388e-10
0.00012832
1.68862e-10
0.00012832
1.52149e-10
0.00012832
1.13072e-10
0.00012832
6.8136e-11
0.00012832
-4.33745e-11
0.00012832
-1.90995e-10
-4.47093e-10
0.000124181
-7.99095e-10
0.000124181
-1.09045e-09
0.000124181
-1.34496e-09
0.000124181
-1.54977e-09
0.000124181
-1.7037e-09
0.000124181
-1.81059e-09
0.000124181
-1.87334e-09
0.000124181
-1.89649e-09
0.000124181
-1.88581e-09
0.000124181
-1.8475e-09
0.000124181
-1.78738e-09
0.000124181
-1.71079e-09
0.000124181
-1.62282e-09
0.000124181
-1.52779e-09
0.000124181
-1.42889e-09
0.000124181
-1.32835e-09
0.000124181
-1.22874e-09
0.000124181
-1.13125e-09
0.000124181
-1.03826e-09
0.000124181
-9.50339e-10
0.000124181
-8.70192e-10
0.000124181
-7.96694e-10
0.000124181
-7.3492e-10
0.000124181
-6.58783e-10
0.000124181
-5.61877e-10
0.000124181
-4.76851e-10
0.000124181
-4.02872e-10
0.000124181
-3.35906e-10
0.000124181
-2.73726e-10
0.000124181
-2.15384e-10
0.000124181
-1.60421e-10
0.000124181
-1.08231e-10
0.000124181
-5.83991e-11
0.000124181
-1.0995e-11
0.000124181
3.38485e-11
0.000124181
7.6279e-11
0.000124181
1.16819e-10
0.000124181
1.56127e-10
0.000124181
1.94284e-10
0.000124181
2.30686e-10
0.000124181
2.64908e-10
0.000124181
2.97293e-10
0.000124181
3.28355e-10
0.000124181
3.57935e-10
0.000124181
3.85543e-10
0.000124181
4.11136e-10
0.000124181
4.35055e-10
0.000124181
4.57504e-10
0.000124181
4.78303e-10
0.000124181
4.96998e-10
0.000124181
5.13349e-10
0.000124181
5.27689e-10
0.000124181
5.40531e-10
0.000124181
5.51994e-10
0.000124181
5.61994e-10
0.00012418
5.70532e-10
0.00012418
5.7764e-10
0.00012418
5.8358e-10
0.00012418
5.88592e-10
0.000124181
5.92698e-10
0.000124181
5.9616e-10
0.000124181
5.99089e-10
0.000124181
6.01199e-10
0.000124181
6.02482e-10
0.000124181
6.03067e-10
0.000124181
6.02873e-10
0.000124181
6.0193e-10
0.000124181
6.00519e-10
0.000124181
5.98884e-10
0.000124181
5.96959e-10
0.000124181
5.94501e-10
0.000124181
5.91557e-10
0.000124181
5.88382e-10
0.000124181
5.84945e-10
0.000124181
5.81147e-10
0.000124181
5.77168e-10
0.000124181
5.73263e-10
0.000124181
5.69504e-10
0.000124181
5.65688e-10
0.000124181
5.61649e-10
0.000124181
5.57545e-10
0.000124181
5.53519e-10
0.000124181
5.4949e-10
0.000124181
5.45475e-10
0.000124181
5.41549e-10
0.000124181
5.37496e-10
0.000124181
5.33201e-10
0.000124181
5.28913e-10
0.000124181
5.24845e-10
0.000124181
5.21055e-10
0.000124181
5.1744e-10
0.000124181
5.13803e-10
0.000124181
5.10142e-10
0.000124181
5.06458e-10
0.000124181
5.02449e-10
0.000124181
4.97328e-10
0.000124181
4.89681e-10
0.000124181
4.79874e-10
0.000124181
4.63787e-10
0.000124181
4.45385e-10
0.000124181
4.12278e-10
0.000124181
3.51064e-10
0.000124181
2.91106e-10
0.000124181
2.51424e-10
0.000124181
2.26964e-10
0.000124181
2.11635e-10
0.000124181
2.01226e-10
0.000124181
1.94125e-10
0.000124181
1.89231e-10
0.000124181
1.85256e-10
0.000124181
1.81436e-10
0.000124181
1.76297e-10
0.000124181
1.69594e-10
0.000124181
1.56438e-10
0.000124181
1.39206e-10
0.000124181
9.96088e-11
0.000124181
5.44777e-11
0.000124181
-5.60381e-11
0.000124181
-2.0368e-10
-4.50138e-10
0.000120125
-7.84224e-10
0.000120125
-1.06993e-09
0.000120125
-1.32514e-09
0.000120125
-1.53323e-09
0.000120125
-1.69095e-09
0.000120125
-1.80104e-09
0.000120125
-1.86601e-09
0.000120125
-1.89051e-09
0.000120125
-1.88055e-09
0.000120125
-1.84259e-09
0.000120125
-1.78266e-09
0.000120125
-1.70627e-09
0.000120125
-1.61857e-09
0.000120125
-1.52375e-09
0.000120125
-1.42483e-09
0.000120125
-1.32415e-09
0.000120125
-1.22442e-09
0.000120125
-1.12678e-09
0.000120125
-1.03341e-09
0.000120125
-9.44964e-10
0.000120125
-8.64207e-10
0.000120125
-7.89879e-10
0.000120125
-7.26135e-10
0.000120125
-6.53184e-10
0.000120125
-5.63009e-10
0.000120125
-4.79022e-10
0.000120125
-4.02175e-10
0.000120125
-3.31732e-10
0.000120125
-2.6677e-10
0.000120125
-2.06349e-10
0.000120125
-1.49678e-10
0.000120125
-9.60262e-11
0.000120125
-4.50393e-11
0.000120125
3.16138e-12
0.000120125
4.85095e-11
0.000120125
9.13565e-11
0.000120125
1.32343e-10
0.000120125
1.71983e-10
0.000120125
2.10192e-10
0.000120125
2.46408e-10
0.000120125
2.80376e-10
0.000120125
3.12471e-10
0.000120125
3.43056e-10
0.000120125
3.71911e-10
0.000120125
3.98682e-10
0.000120124
4.23464e-10
0.000120124
4.46573e-10
0.000120124
4.68039e-10
0.000120124
4.87555e-10
0.000120124
5.04838e-10
0.000120124
5.19937e-10
0.000120124
5.33177e-10
0.000120124
5.44914e-10
0.000120124
5.55229e-10
0.000120124
5.64011e-10
0.000120124
5.71228e-10
0.000120124
5.77056e-10
0.000120124
5.81949e-10
0.000120124
5.86082e-10
0.000120124
5.89318e-10
0.000120124
5.91919e-10
0.000120124
5.94015e-10
0.000120124
5.95226e-10
0.000120124
5.95541e-10
0.000120124
5.95285e-10
0.000120124
5.94515e-10
0.000120124
5.9314e-10
0.000120124
5.91226e-10
0.000120125
5.88992e-10
0.000120125
5.86562e-10
0.000120125
5.83743e-10
0.000120125
5.80442e-10
0.000120125
5.76855e-10
0.000120125
5.73034e-10
0.000120125
5.6901e-10
0.000120125
5.65003e-10
0.000120125
5.61114e-10
0.000120125
5.57276e-10
0.000120125
5.53308e-10
0.000120125
5.49093e-10
0.000120125
5.44841e-10
0.000120125
5.40793e-10
0.000120125
5.36907e-10
0.000120125
5.33086e-10
0.000120125
5.29285e-10
0.000120125
5.25307e-10
0.000120125
5.21153e-10
0.000120125
5.17122e-10
0.000120125
5.13315e-10
0.000120125
5.09685e-10
0.000120125
5.06139e-10
0.000120125
5.02517e-10
0.000120125
4.98849e-10
0.000120125
4.9517e-10
0.000120125
4.91192e-10
0.000120125
4.86148e-10
0.000120125
4.78708e-10
0.000120125
4.69135e-10
0.000120125
4.54265e-10
0.000120125
4.34207e-10
0.000120125
4.1087e-10
0.000120125
3.67512e-10
0.000120125
3.09694e-10
0.000120125
2.62517e-10
0.000120125
2.30783e-10
0.000120125
2.10824e-10
0.000120125
1.97768e-10
0.000120125
1.89106e-10
0.000120125
1.83126e-10
0.000120125
1.78326e-10
0.000120125
1.73881e-10
0.000120125
1.68102e-10
0.000120125
1.60629e-10
0.000120125
1.46592e-10
0.000120125
1.28634e-10
0.000120125
8.84551e-11
0.000120125
4.30391e-11
0.000120125
-6.61845e-11
0.000120125
-2.13168e-10
-4.50261e-10
0.000116148
-7.65246e-10
0.000116148
-1.04303e-09
0.000116148
-1.29754e-09
0.000116148
-1.50873e-09
0.000116148
-1.67062e-09
0.000116148
-1.78442e-09
0.000116148
-1.85214e-09
0.000116148
-1.87852e-09
0.000116148
-1.86983e-09
0.000116148
-1.83272e-09
0.000116148
-1.77343e-09
0.000116148
-1.69767e-09
0.000116148
-1.61063e-09
0.000116148
-1.51637e-09
0.000116148
-1.41777e-09
0.000116148
-1.31729e-09
0.000116148
-1.21776e-09
0.000116148
-1.12021e-09
0.000116148
-1.02664e-09
0.000116148
-9.37827e-10
0.000116148
-8.56567e-10
0.000116148
-7.8167e-10
0.000116148
-7.16099e-10
0.000116148
-6.45157e-10
0.000116148
-5.61862e-10
0.000116148
-4.81957e-10
0.000116148
-4.05121e-10
0.000116148
-3.32674e-10
0.000116148
-2.65349e-10
0.000116148
-2.0272e-10
0.000116148
-1.43996e-10
0.000116148
-8.85466e-11
0.000116148
-3.61643e-11
0.000116148
1.30295e-11
0.000116148
5.91036e-11
0.000116148
1.02616e-10
0.000116148
1.44277e-10
0.000116148
1.84422e-10
0.000116148
2.22814e-10
0.000116148
2.58993e-10
0.000116148
2.92897e-10
0.000116148
3.24884e-10
0.000116148
3.55117e-10
0.000116148
3.83346e-10
0.000116148
4.09422e-10
0.000116148
4.33578e-10
0.000116148
4.56029e-10
0.000116148
4.7658e-10
0.000116148
4.94846e-10
0.000116148
5.10802e-10
0.000116148
5.24802e-10
0.000116148
5.37091e-10
0.000116148
5.47801e-10
0.000116148
5.56987e-10
0.000116148
5.64559e-10
0.000116148
5.70478e-10
0.000116148
5.75068e-10
0.000116148
5.78959e-10
0.000116148
5.82246e-10
0.000116148
5.84637e-10
0.000116148
5.86376e-10
0.000116148
5.87602e-10
0.000116148
5.87882e-10
0.000116148
5.87222e-10
0.000116148
5.86157e-10
0.000116148
5.8487e-10
0.000116148
5.83104e-10
0.000116148
5.80675e-10
0.000116148
5.77787e-10
0.000116148
5.7479e-10
0.000116148
5.71578e-10
0.000116148
5.6789e-10
0.000116148
5.63849e-10
0.000116148
5.59635e-10
0.000116148
5.55425e-10
0.000116148
5.51428e-10
0.000116148
5.4755e-10
0.000116148
5.4359e-10
0.000116148
5.39419e-10
0.000116148
5.35007e-10
0.000116148
5.30616e-10
0.000116148
5.26569e-10
0.000116148
5.22826e-10
0.000116148
5.19152e-10
0.000116148
5.15415e-10
0.000116148
5.115e-10
0.000116148
5.07525e-10
0.000116148
5.03787e-10
0.000116148
5.00242e-10
0.000116148
4.96747e-10
0.000116148
4.93235e-10
0.000116148
4.89614e-10
0.000116148
4.85956e-10
0.000116148
4.8231e-10
0.000116148
4.78371e-10
0.000116148
4.73397e-10
0.000116148
4.66195e-10
0.000116148
4.56861e-10
0.000116148
4.43213e-10
0.000116148
4.22091e-10
0.000116148
4.04696e-10
0.000116148
3.77152e-10
0.000116148
3.27897e-10
0.000116148
2.79127e-10
0.000116148
2.41993e-10
0.000116148
2.16957e-10
0.000116148
2.00261e-10
0.000116148
1.89144e-10
0.000116148
1.81372e-10
0.000116148
1.75215e-10
0.000116148
1.69729e-10
0.000116148
1.62966e-10
0.000116148
1.54435e-10
0.000116148
1.39291e-10
0.000116148
1.20412e-10
0.000116148
7.95943e-11
0.000116148
3.38157e-11
0.000116148
-7.38171e-11
0.000116148
-2.19528e-10
-4.47255e-10
0.000112248
-7.4181e-10
0.000112248
-1.00992e-09
0.000112248
-1.26235e-09
0.000112248
-1.47619e-09
0.000112248
-1.64245e-09
0.000112248
-1.76042e-09
0.000112248
-1.83148e-09
0.000112248
-1.86041e-09
0.000112247
-1.85363e-09
0.000112247
-1.81793e-09
0.000112247
-1.75978e-09
0.000112247
-1.68508e-09
0.000112247
-1.59907e-09
0.000112247
-1.50569e-09
0.000112247
-1.40773e-09
0.000112247
-1.30778e-09
0.000112247
-1.20871e-09
0.000112247
-1.11145e-09
0.000112247
-1.01788e-09
0.000112247
-9.28866e-10
0.000112247
-8.47212e-10
0.000112247
-7.71905e-10
0.000112247
-7.04812e-10
0.000112247
-6.34759e-10
0.000112247
-5.57009e-10
0.000112247
-4.8234e-10
0.000112247
-4.07941e-10
0.000112247
-3.35525e-10
0.000112247
-2.66997e-10
0.000112247
-2.02633e-10
0.000112247
-1.41978e-10
0.000112247
-8.47573e-11
0.000112247
-3.09891e-11
0.000112247
1.9232e-11
0.000112247
6.6137e-11
0.000112247
1.10463e-10
0.000112247
1.5293e-10
0.000112247
1.93661e-10
0.000112247
2.32299e-10
0.000112247
2.68541e-10
0.000112247
3.0251e-10
0.000112247
3.34496e-10
0.000112247
3.6445e-10
0.000112247
3.92147e-10
0.000112247
4.17669e-10
0.000112247
4.41345e-10
0.000112247
4.63221e-10
0.000112247
4.82886e-10
0.000112247
4.99949e-10
0.000112247
5.14698e-10
0.000112247
5.27759e-10
0.000112247
5.39224e-10
0.000112247
5.48964e-10
0.000112247
5.57024e-10
0.000112247
5.63399e-10
0.000112247
5.68082e-10
0.000112247
5.71517e-10
0.000112247
5.74453e-10
0.000112247
5.7691e-10
0.000112247
5.78474e-10
0.000112247
5.79351e-10
0.000112247
5.79682e-10
0.000112247
5.79025e-10
0.000112247
5.77425e-10
0.000112247
5.75607e-10
0.000112247
5.73853e-10
0.000112247
5.71719e-10
0.000112247
5.68773e-10
0.000112247
5.65214e-10
0.000112247
5.61622e-10
0.000112247
5.57978e-10
0.000112247
5.53862e-10
0.000112247
5.49341e-10
0.000112247
5.44753e-10
0.000112247
5.40412e-10
0.000112247
5.36453e-10
0.000112247
5.32569e-10
0.000112247
5.28451e-10
0.000112247
5.24054e-10
0.000112247
5.19453e-10
0.000112247
5.14969e-10
0.000112247
5.10953e-10
0.000112248
5.07327e-10
0.000112248
5.03731e-10
0.000112248
5.00004e-10
0.000112248
4.96158e-10
0.000112248
4.92407e-10
0.000112248
4.8898e-10
0.000112248
4.8569e-10
0.000112248
4.82311e-10
0.000112248
4.7882e-10
0.000112248
4.7521e-10
0.000112248
4.71599e-10
0.000112248
4.68018e-10
0.000112248
4.64128e-10
0.000112248
4.59222e-10
0.000112248
4.52282e-10
0.000112248
4.43194e-10
0.000112248
4.30653e-10
0.000112248
4.09149e-10
0.000112248
3.9493e-10
0.000112248
3.79396e-10
0.000112248
3.41175e-10
0.000112248
2.95873e-10
0.000112248
2.5665e-10
0.000112248
2.27657e-10
0.000112248
2.07307e-10
0.000112248
1.93351e-10
0.000112248
1.83363e-10
0.000112248
1.75485e-10
0.000112248
1.6863e-10
0.000112248
1.60597e-10
0.000112248
1.50779e-10
0.000112248
1.34355e-10
0.000112248
1.14391e-10
0.000112248
7.28999e-11
0.000112248
2.67071e-11
0.000112248
-7.90158e-11
0.000112248
-2.2295e-10
-4.40919e-10
0.000108419
-7.13501e-10
0.000108419
-9.70586e-10
0.000108419
-1.21979e-09
0.000108419
-1.43577e-09
0.000108419
-1.60644e-09
0.000108419
-1.72898e-09
0.000108419
-1.804e-09
0.000108419
-1.83619e-09
0.000108419
-1.83201e-09
0.000108419
-1.79834e-09
0.000108419
-1.74183e-09
0.000108419
-1.66862e-09
0.000108419
-1.58397e-09
0.000108419
-1.49175e-09
0.000108419
-1.39475e-09
0.000108419
-1.29561e-09
0.000108419
-1.19721e-09
0.000108418
-1.10041e-09
0.000108418
-1.00703e-09
0.000108418
-9.17993e-10
0.000108418
-8.36056e-10
0.000108418
-7.60425e-10
0.000108418
-6.92116e-10
0.000108418
-6.22201e-10
0.000108418
-5.48353e-10
0.000108418
-4.78752e-10
0.000108418
-4.08226e-10
0.000108418
-3.37678e-10
0.000108418
-2.69363e-10
0.000108418
-2.04137e-10
0.000108418
-1.42094e-10
0.000108418
-8.34826e-11
0.000108418
-2.85826e-11
0.000108418
2.25427e-11
0.000108418
7.02579e-11
0.000108418
1.15421e-10
0.000108418
1.58706e-10
0.000108418
2.00007e-10
0.000108418
2.3889e-10
0.000108418
2.75241e-10
0.000108418
3.09327e-10
0.000108418
3.4133e-10
0.000108418
3.7104e-10
0.000108418
3.98298e-10
0.000108418
4.23395e-10
0.000108418
4.46678e-10
0.000108418
4.67988e-10
0.000108418
4.86765e-10
0.000108418
5.02705e-10
0.000108418
5.16402e-10
0.000108418
5.28666e-10
0.000108418
5.39393e-10
0.000108418
5.48195e-10
0.000108418
5.55131e-10
0.000108418
5.60344e-10
0.000108418
5.63894e-10
0.000108418
5.66282e-10
0.000108418
5.68296e-10
0.000108418
5.69913e-10
0.000108418
5.70663e-10
0.000108418
5.70687e-10
0.000108418
5.70121e-10
0.000108418
5.68558e-10
0.000108418
5.66089e-10
0.000108418
5.63581e-10
0.000108418
5.61384e-10
0.000108418
5.58882e-10
0.000108418
5.5543e-10
0.000108418
5.51232e-10
0.000108418
5.47054e-10
0.000108418
5.42934e-10
0.000108419
5.38344e-10
0.000108419
5.33342e-10
0.000108419
5.28423e-10
0.000108419
5.24001e-10
0.000108419
5.20083e-10
0.000108419
5.16162e-10
0.000108419
5.11876e-10
0.000108419
5.07265e-10
0.000108419
5.0252e-10
0.000108419
4.9801e-10
0.000108419
4.94057e-10
0.000108419
4.90497e-10
0.000108419
4.86896e-10
0.000108419
4.83141e-10
0.000108419
4.79387e-10
0.000108419
4.75887e-10
0.000108419
4.72767e-10
0.000108419
4.69712e-10
0.000108419
4.66446e-10
0.000108419
4.62992e-10
0.000108419
4.59433e-10
0.000108419
4.55921e-10
0.000108419
4.5244e-10
0.000108419
4.48607e-10
0.000108419
4.4378e-10
0.000108419
4.37114e-10
0.000108419
4.28272e-10
0.000108419
4.16668e-10
0.000108419
3.95353e-10
0.000108419
3.82669e-10
0.000108419
3.75337e-10
0.000108419
3.47888e-10
0.000108419
3.09163e-10
0.000108419
2.71162e-10
0.000108419
2.4023e-10
0.000108419
2.17066e-10
0.000108419
2.00457e-10
0.000108419
1.88194e-10
0.000108419
1.78448e-10
0.000108419
1.70025e-10
0.000108419
1.60532e-10
0.000108419
1.49283e-10
0.000108419
1.31479e-10
0.000108419
1.10322e-10
0.000108419
6.81608e-11
0.000108419
2.15318e-11
0.000108419
-8.19343e-11
0.000108419
-2.23718e-10
-4.31177e-10
0.000104658
-6.79982e-10
0.000104658
-9.24899e-10
0.000104658
-1.17002e-09
0.000104658
-1.3877e-09
0.000104658
-1.56277e-09
0.000104658
-1.69025e-09
0.000104658
-1.76985e-09
0.000104658
-1.80603e-09
0.000104657
-1.80515e-09
0.000104657
-1.7741e-09
0.000104657
-1.71975e-09
0.000104657
-1.64843e-09
0.000104657
-1.56544e-09
0.000104657
-1.47461e-09
0.000104657
-1.37885e-09
0.000104657
-1.28079e-09
0.000104657
-1.18318e-09
0.000104657
-1.08696e-09
0.000104657
-9.93964e-10
0.000104657
-9.05087e-10
0.000104657
-8.22982e-10
0.000104657
-7.4707e-10
0.000104657
-6.77792e-10
0.000104657
-6.07616e-10
0.000104657
-5.36274e-10
0.000104657
-4.7093e-10
0.000104657
-4.04776e-10
0.000104657
-3.37355e-10
0.000104657
-2.70537e-10
0.000104657
-2.05481e-10
0.000104657
-1.42884e-10
0.000104657
-8.35443e-11
0.000104657
-2.79651e-11
0.000104657
2.3807e-11
0.000104657
7.21887e-11
0.000104657
1.18073e-10
0.000104657
1.62055e-10
0.000104657
2.03818e-10
0.000104657
2.42894e-10
0.000104657
2.79342e-10
0.000104657
3.13507e-10
0.000104657
3.45465e-10
0.000104657
3.7493e-10
0.000104657
4.01845e-10
0.000104657
4.26623e-10
0.000104657
4.49526e-10
0.000104657
4.70209e-10
0.000104657
4.88085e-10
0.000104657
5.03022e-10
0.000104657
5.15845e-10
0.000104657
5.27413e-10
0.000104657
5.37427e-10
0.000104657
5.45303e-10
0.000104657
5.51139e-10
0.000104657
5.55261e-10
0.000104657
5.57815e-10
0.000104657
5.59271e-10
0.000104657
5.60369e-10
0.000104657
5.61112e-10
0.000104657
5.61061e-10
0.000104657
5.60264e-10
0.000104657
5.58826e-10
0.000104657
5.56419e-10
0.000104657
5.53178e-10
0.000104657
5.5004e-10
0.000104657
5.47388e-10
0.000104657
5.44494e-10
0.000104657
5.40569e-10
0.000104657
5.35818e-10
0.000104657
5.31092e-10
0.000104657
5.26455e-10
0.000104657
5.21355e-10
0.000104657
5.15898e-10
0.000104657
5.10707e-10
0.000104657
5.06225e-10
0.000104657
5.02314e-10
0.000104657
4.98327e-10
0.000104657
4.93893e-10
0.000104658
4.89125e-10
0.000104658
4.8431e-10
0.000104658
4.79855e-10
0.000104658
4.75986e-10
0.000104658
4.72428e-10
0.000104658
4.68749e-10
0.000104658
4.6495e-10
0.000104658
4.61307e-10
0.000104658
4.58056e-10
0.000104658
4.55206e-10
0.000104658
4.52364e-10
0.000104658
4.49226e-10
0.000104658
4.45855e-10
0.000104658
4.42413e-10
0.000104658
4.39066e-10
0.000104658
4.3572e-10
0.000104658
4.31955e-10
0.000104658
4.27222e-10
0.000104658
4.20833e-10
0.000104658
4.12226e-10
0.000104658
4.01382e-10
0.000104658
3.80661e-10
0.000104658
3.68694e-10
0.000104658
3.66498e-10
0.000104658
3.48156e-10
0.000104658
3.172e-10
0.000104658
2.82905e-10
0.000104658
2.52238e-10
0.000104658
2.27623e-10
0.000104658
2.09022e-10
0.000104658
1.94776e-10
0.000104658
1.83248e-10
0.000104658
1.7321e-10
0.000104658
1.62186e-10
0.000104658
1.49469e-10
0.000104658
1.30277e-10
0.000104658
1.0789e-10
0.000104658
6.51078e-11
0.000104658
1.80436e-11
0.000104658
-8.27914e-11
0.000104658
-2.2218e-10
-4.18097e-10
0.00010096
-6.41055e-10
0.00010096
-8.72739e-10
0.00010096
-1.11319e-09
0.00010096
-1.33228e-09
0.00010096
-1.5118e-09
0.00010096
-1.64457e-09
0.00010096
-1.72938e-09
0.00010096
-1.77024e-09
0.00010096
-1.77331e-09
0.00010096
-1.74546e-09
0.000100959
-1.69375e-09
0.000100959
-1.62466e-09
0.000100959
-1.54356e-09
0.000100959
-1.45433e-09
0.000100959
-1.36004e-09
0.000100959
-1.26327e-09
0.000100959
-1.16654e-09
0.000100959
-1.07097e-09
0.000100959
-9.78532e-10
0.000100959
-8.8999e-10
0.000100959
-8.0784e-10
0.000100959
-7.3168e-10
0.000100959
-6.61614e-10
0.000100959
-5.91037e-10
0.000100959
-5.21226e-10
0.000100959
-4.59178e-10
0.000100959
-3.97244e-10
0.000100959
-3.33569e-10
0.000100959
-2.69192e-10
0.000100959
-2.05303e-10
0.000100959
-1.43115e-10
0.000100959
-8.38692e-11
0.000100959
-2.81936e-11
0.000100959
2.38613e-11
0.000100959
7.26525e-11
0.000100959
1.1901e-10
0.000100959
1.63439e-10
0.000100959
2.05474e-10
0.000100959
2.44642e-10
0.000100959
2.81114e-10
0.000100959
3.15235e-10
0.000100959
3.4702e-10
0.000100959
3.76217e-10
0.000100959
4.02873e-10
0.000100959
4.27391e-10
0.000100959
4.49861e-10
0.000100959
4.6981e-10
0.000100959
4.86777e-10
0.000100959
5.00867e-10
0.000100959
5.12991e-10
0.000100959
5.23908e-10
0.000100959
5.33174e-10
0.000100959
5.40128e-10
0.000100959
5.44927e-10
0.000100959
5.48069e-10
0.000100959
5.49774e-10
0.000100959
5.50396e-10
0.000100959
5.50562e-10
0.000100959
5.50391e-10
0.000100959
5.49559e-10
0.000100959
5.47996e-10
0.000100959
5.45743e-10
0.000100959
5.42577e-10
0.000100959
5.38676e-10
0.000100959
5.34954e-10
0.000100959
5.31803e-10
0.000100959
5.2848e-10
0.000100959
5.24139e-10
0.000100959
5.18955e-10
0.000100959
5.13743e-10
0.000100959
5.08563e-10
0.000100959
5.02947e-10
0.000100959
4.97092e-10
0.00010096
4.91684e-10
0.00010096
4.87125e-10
0.00010096
4.83156e-10
0.00010096
4.79079e-10
0.00010096
4.74553e-10
0.00010096
4.6972e-10
0.00010096
4.64929e-10
0.00010096
4.60606e-10
0.00010096
4.56834e-10
0.00010096
4.53222e-10
0.00010096
4.49419e-10
0.00010096
4.45577e-10
0.00010096
4.42052e-10
0.00010096
4.39014e-10
0.00010096
4.36374e-10
0.00010096
4.3372e-10
0.00010096
4.30741e-10
0.00010096
4.27519e-10
0.00010096
4.24278e-10
0.00010096
4.21166e-10
0.00010096
4.1799e-10
0.00010096
4.14309e-10
0.00010096
4.09691e-10
0.00010096
4.03573e-10
0.00010096
3.95184e-10
0.00010096
3.8495e-10
0.00010096
3.65069e-10
0.00010096
3.535e-10
0.00010096
3.54266e-10
0.00010096
3.42931e-10
0.00010096
3.19541e-10
0.00010096
2.9036e-10
0.00010096
2.61841e-10
0.00010096
2.37285e-10
0.00010096
2.17643e-10
0.00010096
2.01979e-10
0.00010096
1.88957e-10
0.00010096
1.7741e-10
0.00010096
1.64913e-10
0.00010096
1.508e-10
0.00010096
1.30309e-10
0.00010096
1.06741e-10
0.00010096
6.3437e-11
0.00010096
1.59514e-11
0.00010096
-8.18581e-11
0.00010096
-2.18727e-10
-4.01877e-10
9.73204e-05
-5.96681e-10
9.73203e-05
-8.14048e-10
9.73203e-05
-1.04941e-09
9.73202e-05
-1.26985e-09
9.73201e-05
-1.45397e-09
9.73201e-05
-1.59246e-09
9.732e-05
-1.68306e-09
9.732e-05
-1.72922e-09
9.732e-05
-1.7368e-09
9.73199e-05
-1.71268e-09
9.73199e-05
-1.66401e-09
9.73199e-05
-1.59746e-09
9.73198e-05
-1.5184e-09
9.73198e-05
-1.43091e-09
9.73198e-05
-1.33829e-09
9.73198e-05
-1.24295e-09
9.73198e-05
-1.14717e-09
9.73197e-05
-1.05232e-09
9.73197e-05
-9.60553e-10
9.73197e-05
-8.72509e-10
9.73197e-05
-7.90449e-10
9.73197e-05
-7.1409e-10
9.73196e-05
-6.4339e-10
9.73196e-05
-5.72448e-10
9.73196e-05
-5.03596e-10
9.73196e-05
-4.43994e-10
9.73196e-05
-3.85781e-10
9.73196e-05
-3.25959e-10
9.73196e-05
-2.64587e-10
9.73196e-05
-2.027e-10
9.73196e-05
-1.41862e-10
9.73196e-05
-8.35602e-11
9.73196e-05
-2.84314e-11
9.73196e-05
2.34579e-11
9.73196e-05
7.23066e-11
9.73196e-05
1.18781e-10
9.73196e-05
1.63302e-10
9.73196e-05
2.05347e-10
9.73196e-05
2.44458e-10
9.73196e-05
2.8082e-10
9.73196e-05
3.14713e-10
9.73196e-05
3.46157e-10
9.73196e-05
3.7504e-10
9.73196e-05
4.01479e-10
9.73196e-05
4.25741e-10
9.73196e-05
4.47674e-10
9.73196e-05
4.6677e-10
9.73196e-05
4.8284e-10
9.73196e-05
4.96246e-10
9.73196e-05
5.07818e-10
9.73196e-05
5.18072e-10
9.73196e-05
5.26512e-10
9.73196e-05
5.32557e-10
9.73196e-05
5.36427e-10
9.73196e-05
5.38718e-10
9.73196e-05
5.397e-10
9.73197e-05
5.39566e-10
9.73197e-05
5.38793e-10
9.73197e-05
5.37678e-10
9.73197e-05
5.36091e-10
9.73197e-05
5.33832e-10
9.73197e-05
5.30841e-10
9.73197e-05
5.27015e-10
9.73198e-05
5.2257e-10
9.73198e-05
5.18308e-10
9.73198e-05
5.14602e-10
9.73198e-05
5.10807e-10