/*--------------------------------*- C++ -*----------------------------------*\
  =========                 |
  \\      /  F ield         | OpenFOAM: The Open Source CFD Toolbox
   \\    /   O peration     | Website:  https://openfoam.org
    \\  /    A nd           | Version:  7
     \\/     M anipulation  |
\*---------------------------------------------------------------------------*/
FoamFile
{
    version     2.0;
    format      ascii;
    class       volScalarField;
    location    "20000";
    object      nut;
}
// * * * * * * * * * * * * * * * * * * * * * * * * * * * * * * * * * * * * * //

dimensions      [0 2 -1 0 0 0 0];

internalField   nonuniform List<scalar> 
4037
(
0.00027343
0.000273436
0.000273441
0.000273445
0.000273449
0.000273451
0.000273454
0.000273456
0.000273458
0.00027346
0.000273462
0.000273463
0.000273465
0.000273467
0.000273468
0.000273469
0.00027347
0.000273472
0.000273473
0.000273474
0.000273476
0.000273477
0.000273477
0.000273479
0.00027348
0.000273481
0.000273482
0.000273483
0.000273484
0.000273485
0.000273486
0.000273487
0.000273489
0.000273489
0.000273491
0.000273492
0.000273492
0.000273494
0.000273494
0.000273496
0.000273497
0.000273498
0.000273499
0.000273499
0.000273501
0.000273501
0.000273502
0.000273503
0.000273504
0.000273505
0.000273506
0.000273507
0.000273508
0.000273508
0.000273509
0.00027351
0.00027351
0.000273511
0.000273512
0.000273513
0.000273513
0.000273514
0.000273514
0.000273515
0.000273515
0.000273516
0.000273516
0.000273516
0.000273516
0.000273517
0.000273517
0.000273517
0.000273517
0.000273518
0.000273518
0.000273517
0.000273519
0.000259477
0.000259469
0.000259466
0.000259465
0.000259465
0.000259465
0.000259465
0.000259464
0.000259465
0.000259464
0.000259464
0.000259464
0.000259464
0.000259465
0.000259465
0.000259465
0.000259466
0.000259466
0.000259466
0.000259466
0.000259467
0.000259467
0.000259467
0.000259466
0.00025948
0.00025949
0.000259495
0.0002595
0.000259504
0.000259507
0.000259509
0.000259512
0.000259514
0.000259516
0.000259518
0.000259519
0.000259521
0.000259523
0.000259524
0.000259526
0.000259527
0.000259528
0.000259529
0.00025953
0.000259532
0.000259533
0.000259534
0.000259535
0.000259536
0.000259537
0.000259538
0.000259539
0.000259541
0.000259541
0.000259543
0.000259544
0.000259544
0.000259546
0.000259546
0.000259548
0.000259548
0.00025955
0.000259551
0.000259552
0.000259553
0.000259553
0.000259555
0.000259555
0.000259556
0.000259557
0.000259558
0.000259559
0.00025956
0.000259561
0.000259562
0.000259562
0.000259563
0.000259564
0.000259565
0.000259566
0.000259566
0.000259567
0.000259567
0.000259568
0.000259569
0.000259569
0.00025957
0.00025957
0.000259571
0.000259571
0.000259571
0.000259571
0.000259572
0.000259572
0.000259572
0.000259572
0.000259573
0.000259573
0.000259573
0.000259572
0.000259575
0.00025955
0.00025954
0.000259535
0.000259532
0.000259529
0.000259527
0.000259524
0.000259522
0.00025952
0.000259518
0.000259516
0.000259514
0.000259512
0.00025951
0.000259508
0.000259506
0.000259504
0.000259501
0.000259504
0.000245925
0.000245916
0.000245913
0.000245912
0.000245911
0.000245911
0.00024591
0.00024591
0.00024591
0.00024591
0.00024591
0.00024591
0.00024591
0.00024591
0.000245911
0.000245911
0.000245912
0.000245912
0.000245912
0.000245912
0.000245913
0.000245913
0.000245913
0.000245912
0.000245919
0.000245926
0.000245932
0.000245936
0.00024594
0.000245943
0.000245946
0.000245948
0.00024595
0.000245952
0.000245954
0.000245956
0.000245957
0.000245959
0.00024596
0.000245962
0.000245963
0.000245964
0.000245965
0.000245967
0.000245968
0.000245969
0.00024597
0.000245971
0.000245972
0.000245973
0.000245974
0.000245976
0.000245977
0.000245977
0.000245978
0.00024598
0.000245981
0.000245981
0.000245982
0.000245984
0.000245984
0.000245985
0.000245986
0.000245987
0.000245988
0.000245989
0.00024599
0.000245991
0.000245992
0.000245993
0.000245993
0.000245994
0.000245995
0.000245996
0.000245997
0.000245997
0.000245998
0.000245999
0.000246
0.000246
0.000246001
0.000246002
0.000246002
0.000246003
0.000246003
0.000246004
0.000246004
0.000246005
0.000246005
0.000246006
0.000246006
0.000246006
0.000246007
0.000246007
0.000246007
0.000246007
0.000246007
0.000246007
0.000246007
0.000246007
0.000246009
0.000245998
0.000245988
0.000245983
0.000245979
0.000245975
0.000245973
0.00024597
0.000245968
0.000245966
0.000245964
0.000245962
0.00024596
0.000245958
0.000245956
0.000245954
0.000245952
0.000245951
0.000245948
0.000245952
0.000232729
0.00023272
0.000232717
0.000232715
0.000232714
0.000232714
0.000232713
0.000232713
0.000232713
0.000232713
0.000232713
0.000232713
0.000232713
0.000232713
0.000232713
0.000232714
0.000232714
0.000232714
0.000232715
0.000232715
0.000232715
0.000232715
0.000232716
0.000232715
0.000232718
0.000232723
0.000232727
0.000232731
0.000232735
0.000232737
0.00023274
0.000232742
0.000232744
0.000232746
0.000232748
0.00023275
0.000232751
0.000232753
0.000232754
0.000232756
0.000232757
0.000232758
0.000232759
0.000232761
0.000232762
0.000232763
0.000232764
0.000232765
0.000232766
0.000232767
0.000232768
0.000232769
0.00023277
0.000232771
0.000232772
0.000232773
0.000232774
0.000232775
0.000232776
0.000232777
0.000232778
0.000232779
0.00023278
0.00023278
0.000232781
0.000232782
0.000232783
0.000232784
0.000232785
0.000232786
0.000232786
0.000232787
0.000232788
0.000232789
0.000232789
0.00023279
0.000232791
0.000232792
0.000232792
0.000232793
0.000232794
0.000232794
0.000232795
0.000232795
0.000232796
0.000232796
0.000232797
0.000232797
0.000232797
0.000232798
0.000232798
0.000232798
0.000232799
0.000232799
0.000232799
0.0002328
0.0002328
0.0002328
0.0002328
0.0002328
0.000232801
0.000232796
0.00023279
0.000232784
0.00023278
0.000232777
0.000232775
0.000232772
0.00023277
0.000232768
0.000232766
0.000232764
0.000232762
0.00023276
0.000232758
0.000232757
0.000232755
0.000232754
0.000232751
0.000232755
0.000219869
0.00021986
0.000219857
0.000219855
0.000219854
0.000219853
0.000219853
0.000219852
0.000219852
0.000219852
0.000219852
0.000219852
0.000219852
0.000219852
0.000219852
0.000219853
0.000219853
0.000219854
0.000219854
0.000219854
0.000219854
0.000219855
0.000219855
0.000219855
0.000219856
0.000219859
0.000219862
0.000219865
0.000219868
0.000219871
0.000219873
0.000219875
0.000219877
0.000219879
0.00021988
0.000219882
0.000219884
0.000219885
0.000219886
0.000219888
0.000219889
0.00021989
0.000219892
0.000219893
0.000219894
0.000219895
0.000219896
0.000219897
0.000219898
0.000219899
0.0002199
0.000219901
0.000219902
0.000219903
0.000219904
0.000219904
0.000219905
0.000219906
0.000219907
0.000219908
0.000219909
0.00021991
0.000219911
0.000219911
0.000219912
0.000219913
0.000219914
0.000219915
0.000219916
0.000219916
0.000219917
0.000219918
0.000219919
0.000219919
0.00021992
0.000219921
0.000219921
0.000219922
0.000219923
0.000219923
0.000219924
0.000219924
0.000219925
0.000219925
0.000219926
0.000219926
0.000219927
0.000219927
0.000219928
0.000219928
0.000219928
0.000219929
0.000219929
0.000219929
0.000219929
0.000219929
0.00021993
0.00021993
0.00021993
0.00021993
0.000219931
0.000219929
0.000219925
0.000219921
0.000219917
0.000219914
0.000219912
0.000219909
0.000219907
0.000219905
0.000219904
0.000219902
0.0002199
0.000219899
0.000219897
0.000219895
0.000219894
0.000219893
0.00021989
0.000219894
0.000207327
0.000207319
0.000207315
0.000207313
0.000207312
0.000207311
0.000207311
0.00020731
0.00020731
0.00020731
0.00020731
0.00020731
0.00020731
0.00020731
0.00020731
0.000207311
0.000207311
0.000207311
0.000207312
0.000207312
0.000207312
0.000207313
0.000207313
0.000207313
0.000207313
0.000207315
0.000207317
0.00020732
0.000207322
0.000207324
0.000207326
0.000207328
0.00020733
0.000207331
0.000207333
0.000207334
0.000207336
0.000207337
0.000207339
0.00020734
0.000207341
0.000207342
0.000207343
0.000207344
0.000207346
0.000207347
0.000207348
0.000207349
0.00020735
0.00020735
0.000207352
0.000207352
0.000207353
0.000207354
0.000207355
0.000207356
0.000207357
0.000207358
0.000207358
0.000207359
0.00020736
0.000207361
0.000207362
0.000207363
0.000207363
0.000207364
0.000207365
0.000207366
0.000207367
0.000207367
0.000207368
0.000207368
0.000207369
0.00020737
0.000207371
0.000207371
0.000207372
0.000207372
0.000207373
0.000207373
0.000207374
0.000207375
0.000207375
0.000207376
0.000207376
0.000207377
0.000207377
0.000207377
0.000207378
0.000207378
0.000207378
0.000207379
0.000207379
0.000207379
0.000207379
0.000207379
0.000207379
0.000207379
0.00020738
0.00020738
0.00020738
0.000207379
0.000207377
0.000207375
0.000207372
0.000207369
0.000207367
0.000207365
0.000207363
0.000207362
0.00020736
0.000207358
0.000207357
0.000207355
0.000207354
0.000207352
0.000207351
0.00020735
0.000207348
0.000207351
0.000195088
0.00019508
0.000195076
0.000195074
0.000195073
0.000195072
0.000195072
0.000195071
0.000195071
0.000195071
0.000195071
0.000195071
0.000195071
0.000195071
0.000195071
0.000195072
0.000195072
0.000195072
0.000195072
0.000195073
0.000195073
0.000195073
0.000195074
0.000195074
0.000195074
0.000195075
0.000195076
0.000195078
0.00019508
0.000195081
0.000195083
0.000195085
0.000195087
0.000195088
0.000195089
0.000195091
0.000195092
0.000195093
0.000195095
0.000195096
0.000195097
0.000195098
0.000195099
0.0001951
0.000195101
0.000195102
0.000195103
0.000195104
0.000195105
0.000195106
0.000195107
0.000195108
0.000195108
0.000195109
0.00019511
0.000195111
0.000195112
0.000195113
0.000195113
0.000195114
0.000195115
0.000195116
0.000195116
0.000195117
0.000195118
0.000195119
0.000195119
0.00019512
0.000195121
0.000195121
0.000195122
0.000195123
0.000195123
0.000195124
0.000195125
0.000195125
0.000195126
0.000195126
0.000195127
0.000195127
0.000195128
0.000195128
0.000195129
0.000195129
0.00019513
0.00019513
0.00019513
0.000195131
0.000195131
0.000195132
0.000195132
0.000195132
0.000195132
0.000195132
0.000195133
0.000195133
0.000195133
0.000195133
0.000195133
0.000195133
0.000195133
0.000195133
0.000195132
0.00019513
0.000195128
0.000195126
0.000195124
0.000195123
0.000195121
0.00019512
0.000195118
0.000195117
0.000195115
0.000195114
0.000195113
0.000195111
0.00019511
0.000195109
0.000195107
0.00019511
0.000183136
0.000183129
0.000183126
0.000183124
0.000183122
0.000183122
0.000183121
0.00018312
0.00018312
0.00018312
0.00018312
0.00018312
0.00018312
0.00018312
0.00018312
0.00018312
0.000183121
0.000183121
0.000183121
0.000183122
0.000183122
0.000183122
0.000183122
0.000183123
0.000183123
0.000183123
0.000183124
0.000183125
0.000183127
0.000183128
0.00018313
0.000183131
0.000183132
0.000183134
0.000183135
0.000183136
0.000183137
0.000183139
0.00018314
0.000183141
0.000183142
0.000183143
0.000183144
0.000183145
0.000183146
0.000183147
0.000183148
0.000183149
0.00018315
0.000183151
0.000183151
0.000183152
0.000183153
0.000183154
0.000183155
0.000183155
0.000183156
0.000183157
0.000183158
0.000183158
0.000183159
0.00018316
0.00018316
0.000183161
0.000183162
0.000183162
0.000183163
0.000183164
0.000183164
0.000183165
0.000183166
0.000183166
0.000183167
0.000183167
0.000183168
0.000183168
0.000183169
0.000183169
0.00018317
0.00018317
0.000183171
0.000183171
0.000183172
0.000183172
0.000183173
0.000183173
0.000183173
0.000183174
0.000183174
0.000183174
0.000183174
0.000183175
0.000183175
0.000183175
0.000183175
0.000183175
0.000183175
0.000183176
0.000183176
0.000183176
0.000183176
0.000183176
0.000183175
0.000183174
0.000183173
0.000183171
0.00018317
0.000183169
0.000183167
0.000183166
0.000183165
0.000183163
0.000183162
0.000183161
0.00018316
0.000183159
0.000183158
0.000183157
0.000183155
0.000183158
0.000171461
0.000171454
0.000171451
0.000171449
0.000171448
0.000171447
0.000171446
0.000171446
0.000171445
0.000171445
0.000171445
0.000171445
0.000171445
0.000171445
0.000171445
0.000171445
0.000171445
0.000171446
0.000171446
0.000171446
0.000171447
0.000171447
0.000171447
0.000171447
0.000171447
0.000171448
0.000171448
0.000171449
0.00017145
0.000171451
0.000171453
0.000171454
0.000171455
0.000171456
0.000171457
0.000171458
0.00017146
0.000171461
0.000171462
0.000171463
0.000171464
0.000171465
0.000171466
0.000171467
0.000171467
0.000171468
0.000171469
0.00017147
0.000171471
0.000171472
0.000171472
0.000171473
0.000171474
0.000171475
0.000171475
0.000171476
0.000171477
0.000171478
0.000171478
0.000171479
0.00017148
0.00017148
0.000171481
0.000171481
0.000171482
0.000171483
0.000171483
0.000171484
0.000171484
0.000171485
0.000171485
0.000171486
0.000171487
0.000171487
0.000171488
0.000171488
0.000171488
0.000171489
0.000171489
0.00017149
0.00017149
0.000171491
0.000171491
0.000171491
0.000171492
0.000171492
0.000171492
0.000171493
0.000171493
0.000171493
0.000171493
0.000171494
0.000171494
0.000171494
0.000171494
0.000171494
0.000171494
0.000171495
0.000171495
0.000171495
0.000171495
0.000171495
0.000171494
0.000171494
0.000171493
0.000171492
0.000171491
0.00017149
0.000171489
0.000171488
0.000171487
0.000171485
0.000171484
0.000171483
0.000171482
0.000171481
0.00017148
0.00017148
0.000171478
0.000171481
0.000160051
0.000160044
0.000160041
0.000160039
0.000160039
0.000160037
0.000160036
0.000160036
0.000160035
0.000160036
0.000160035
0.000160036
0.000160035
0.000160034
0.000160035
0.000160035
0.000160035
0.000160036
0.000160036
0.000160036
0.000160036
0.000160036
0.000160036
0.000160036
0.000160038
0.000160038
0.000160038
0.000160039
0.000160039
0.00016004
0.000160042
0.000160042
0.000160043
0.000160045
0.000160046
0.000160046
0.000160047
0.000160049
0.000160049
0.00016005
0.000160051
0.000160051
0.000160053
0.000160054
0.000160054
0.000160055
0.000160055
0.000160058
0.000160058
0.000160059
0.000160059
0.000160059
0.00016006
0.000160062
0.000160062
0.000160063
0.000160063
0.000160064
0.000160064
0.000160064
0.000160066
0.000160067
0.000160067
0.000160067
0.000160068
0.000160068
0.000160069
0.000160069
0.000160071
0.000160071
0.000160071
0.000160072
0.000160072
0.000160072
0.000160073
0.000160073
0.000160073
0.000160073
0.000160075
0.000160075
0.000160076
0.000160076
0.000160076
0.000160076
0.000160077
0.000160077
0.000160077
0.000160077
0.000160077
0.000160077
0.000160077
0.000160079
0.000160079
0.000160079
0.000160079
0.00016008
0.00016008
0.00016008
0.00016008
0.00016008
0.00016008
0.00016008
0.00016008
0.000160079
0.000160079
0.000160077
0.000160077
0.000160077
0.000160075
0.000160074
0.000160074
0.000160073
0.000160071
0.00016007
0.00016007
0.000160069
0.000160069
0.000160067
0.000160066
0.000160069
0.000148897
0.00014889
0.000148888
0.000148886
0.000148885
0.000148883
0.000148883
0.000148882
0.000148882
0.000148881
0.000148882
0.000148881
0.000148881
0.000148882
0.000148881
0.000148881
0.000148882
0.000148882
0.000148882
0.000148882
0.000148882
0.000148883
0.000148883
0.000148883
0.000148883
0.000148884
0.000148884
0.000148884
0.000148885
0.000148885
0.000148887
0.000148887
0.000148888
0.000148889
0.00014889
0.000148891
0.000148892
0.000148892
0.000148893
0.000148895
0.000148895
0.000148896
0.000148896
0.000148897
0.000148899
0.000148899
0.0001489
0.0001489
0.000148901
0.000148902
0.000148903
0.000148903
0.000148904
0.000148904
0.000148905
0.000148906
0.000148907
0.000148907
0.000148907
0.000148908
0.000148908
0.000148908
0.00014891
0.00014891
0.000148911
0.000148911
0.000148911
0.000148912
0.000148912
0.000148912
0.000148914
0.000148914
0.000148915
0.000148915
0.000148915
0.000148915
0.000148916
0.000148916
0.000148916
0.000148916
0.000148918
0.000148918
0.000148918
0.000148918
0.000148919
0.000148919
0.000148919
0.000148919
0.000148919
0.000148919
0.000148919
0.000148919
0.00014892
0.00014892
0.00014892
0.000148921
0.000148921
0.000148921
0.000148921
0.000148921
0.000148921
0.000148921
0.000148921
0.000148921
0.000148921
0.000148919
0.000148919
0.000148919
0.000148918
0.000148918
0.000148916
0.000148915
0.000148915
0.000148914
0.000148914
0.000148912
0.000148912
0.000148911
0.000148909
0.000148913
0.000137991
0.000137986
0.000137983
0.000137982
0.00013798
0.000137979
0.000137979
0.000137978
0.000137978
0.000137977
0.000137977
0.000137977
0.000137977
0.000137977
0.000137976
0.000137977
0.000137977
0.000137977
0.000137977
0.000137977
0.000137978
0.000137978
0.000137978
0.000137978
0.000137978
0.000137979
0.000137979
0.000137979
0.00013798
0.00013798
0.00013798
0.000137982
0.000137983
0.000137983
0.000137984
0.000137984
0.000137986
0.000137987
0.000137987
0.000137988
0.000137988
0.00013799
0.00013799
0.000137991
0.000137991
0.000137992
0.000137994
0.000137994
0.000137994
0.000137995
0.000137995
0.000137996
0.000137997
0.000137998
0.000137998
0.000137998
0.000137999
0.000138
0.000138
0.000138001
0.000138001
0.000138001
0.000138002
0.000138002
0.000138003
0.000138004
0.000138004
0.000138004
0.000138004
0.000138005
0.000138005
0.000138005
0.000138007
0.000138007
0.000138007
0.000138007
0.000138008
0.000138008
0.000138008
0.000138008
0.000138008
0.000138009
0.000138009
0.00013801
0.00013801
0.00013801
0.000138011
0.000138011
0.000138011
0.000138011
0.000138011
0.000138011
0.000138011
0.000138011
0.000138011
0.000138011
0.000138011
0.000138011
0.000138012
0.000138012
0.000138012
0.000138012
0.000138011
0.000138011
0.000138011
0.000138011
0.000138011
0.00013801
0.00013801
0.00013801
0.000138009
0.000138008
0.000138007
0.000138007
0.000138006
0.000138006
0.000138005
0.000138005
0.000138003
0.000138005
0.00012733
0.000127326
0.000127323
0.000127322
0.000127321
0.000127319
0.000127319
0.000127318
0.000127318
0.000127317
0.000127317
0.000127317
0.000127316
0.000127317
0.000127316
0.000127316
0.000127317
0.000127317
0.000127317
0.000127317
0.000127317
0.000127317
0.000127317
0.000127317
0.000127318
0.000127319
0.000127319
0.000127319
0.00012732
0.00012732
0.00012732
0.000127321
0.000127321
0.000127322
0.000127323
0.000127324
0.000127324
0.000127325
0.000127325
0.000127326
0.000127328
0.000127328
0.000127328
0.000127329
0.000127329
0.000127331
0.000127331
0.000127332
0.000127332
0.000127332
0.000127334
0.000127334
0.000127335
0.000127335
0.000127335
0.000127336
0.000127337
0.000127337
0.000127337
0.000127338
0.000127338
0.000127338
0.00012734
0.00012734
0.00012734
0.00012734
0.00012734
0.000127341
0.000127341
0.000127342
0.000127342
0.000127343
0.000127343
0.000127343
0.000127343
0.000127343
0.000127344
0.000127344
0.000127344
0.000127345
0.000127345
0.000127346
0.000127346
0.000127346
0.000127346
0.000127346
0.000127346
0.000127346
0.000127346
0.000127347
0.000127347
0.000127347
0.000127347
0.000127347
0.000127348
0.000127348
0.000127348
0.000127348
0.000127348
0.000127348
0.000127348
0.000127348
0.000127348
0.000127348
0.000127348
0.000127348
0.000127348
0.000127347
0.000127346
0.000127346
0.000127345
0.000127345
0.000127344
0.000127344
0.000127343
0.000127343
0.000127343
0.000127342
0.000127341
0.000127342
0.000116912
0.000116908
0.000116905
0.000116904
0.000116903
0.000116902
0.0001169
0.0001169
0.000116899
0.000116899
0.000116899
0.000116899
0.000116898
0.000116898
0.000116898
0.000116898
0.000116898
0.000116898
0.000116898
0.000116899
0.000116899
0.000116899
0.000116899
0.000116899
0.000116899
0.0001169
0.0001169
0.0001169
0.000116901
0.000116901
0.000116901
0.000116902
0.000116902
0.000116904
0.000116904
0.000116905
0.000116905
0.000116905
0.000116906
0.000116907
0.000116908
0.000116908
0.000116909
0.000116909
0.000116909
0.000116911
0.000116911
0.000116912
0.000116912
0.000116912
0.000116913
0.000116914
0.000116914
0.000116914
0.000116915
0.000116916
0.000116916
0.000116916
0.000116917
0.000116917
0.000116917
0.000116918
0.000116918
0.000116919
0.000116919
0.000116919
0.000116919
0.000116919
0.000116921
0.000116921
0.000116921
0.000116921
0.000116921
0.000116921
0.000116922
0.000116922
0.000116922
0.000116923
0.000116923
0.000116923
0.000116923
0.000116924
0.000116924
0.000116924
0.000116924
0.000116924
0.000116924
0.000116924
0.000116924
0.000116925
0.000116925
0.000116926
0.000116926
0.000116926
0.000116926
0.000116926
0.000116926
0.000116926
0.000116926
0.000116926
0.000116926
0.000116926
0.000116926
0.000116926
0.000116926
0.000116926
0.000116925
0.000116925
0.000116925
0.000116925
0.000116924
0.000116924
0.000116924
0.000116922
0.000116922
0.000116922
0.000116921
0.000116921
0.00011692
0.000116922
0.000106734
0.000106731
0.000106729
0.000106728
0.000106726
0.000106725
0.000106724
0.000106723
0.000106723
0.000106722
0.000106722
0.000106722
0.000106721
0.000106722
0.000106721
0.000106721
0.000106721
0.000106721
0.000106721
0.000106721
0.000106722
0.000106722
0.000106722
0.000106722
0.000106722
0.000106722
0.000106723
0.000106723
0.000106723
0.000106724
0.000106724
0.000106724
0.000106725
0.000106726
0.000106726
0.000106727
0.000106727
0.000106728
0.000106728
0.000106729
0.00010673
0.00010673
0.000106731
0.000106731
0.000106731
0.000106732
0.000106733
0.000106733
0.000106734
0.000106734
0.000106735
0.000106735
0.000106735
0.000106736
0.000106736
0.000106737
0.000106737
0.000106737
0.000106738
0.000106738
0.000106738
0.000106739
0.000106739
0.000106739
0.00010674
0.00010674
0.00010674
0.00010674
0.000106741
0.000106741
0.000106741
0.000106742
0.000106742
0.000106742
0.000106742
0.000106742
0.000106742
0.000106743
0.000106743
0.000106743
0.000106744
0.000106744
0.000106744
0.000106744
0.000106744
0.000106744
0.000106744
0.000106744
0.000106744
0.000106745
0.000106745
0.000106745
0.000106745
0.000106746
0.000106746
0.000106746
0.000106746
0.000106746
0.000106746
0.000106746
0.000106746
0.000106746
0.000106746
0.000106746
0.000106746
0.000106746
0.000106745
0.000106745
0.000106745
0.000106745
0.000106744
0.000106744
0.000106744
0.000106743
0.000106743
0.000106743
0.000106742
0.000106741
0.000106741
0.000106742
9.6801e-05
9.67982e-05
9.67959e-05
9.67949e-05
9.67938e-05
9.67928e-05
9.67918e-05
9.67909e-05
9.67906e-05
9.67899e-05
9.67892e-05
9.67892e-05
9.67887e-05
9.67883e-05
9.6788e-05
9.67878e-05
9.67882e-05
9.67881e-05
9.67881e-05
9.67882e-05
9.67883e-05
9.67884e-05
9.67885e-05
9.67887e-05
9.67889e-05
9.67892e-05
9.67894e-05
9.67897e-05
9.679e-05
9.67903e-05
9.67912e-05
9.67916e-05
9.67919e-05
9.67923e-05
9.67927e-05
9.67931e-05
9.67935e-05
9.67939e-05
9.67949e-05
9.67953e-05
9.67957e-05
9.67961e-05
9.67965e-05
9.67968e-05
9.67977e-05
9.67981e-05
9.67984e-05
9.67987e-05
9.6799e-05
9.67999e-05
9.68002e-05
9.68005e-05
9.68007e-05
9.68009e-05
9.68018e-05
9.6802e-05
9.68022e-05
9.68024e-05
9.68026e-05
9.68034e-05
9.68036e-05
9.68038e-05
9.68039e-05
9.68041e-05
9.68043e-05
9.68044e-05
9.68052e-05
9.68053e-05
9.68055e-05
9.68056e-05
9.68058e-05
9.68059e-05
9.68061e-05
9.68062e-05
9.68069e-05
9.68071e-05
9.68072e-05
9.68073e-05
9.68074e-05
9.68076e-05
9.68077e-05
9.68078e-05
9.68079e-05
9.6808e-05
9.68081e-05
9.68082e-05
9.68083e-05
9.68084e-05
9.68085e-05
9.68091e-05
9.68092e-05
9.68093e-05
9.68093e-05
9.68094e-05
9.68095e-05
9.68095e-05
9.68096e-05
9.68096e-05
9.68096e-05
9.68096e-05
9.68097e-05
9.68096e-05
9.68096e-05
9.68096e-05
9.68096e-05
9.68095e-05
9.68094e-05
9.68092e-05
9.6809e-05
9.68088e-05
9.68085e-05
9.68083e-05
9.6808e-05
9.68077e-05
9.68074e-05
9.68071e-05
9.68067e-05
9.68064e-05
9.68054e-05
9.68064e-05
8.71165e-05
8.71143e-05
8.71129e-05
8.71115e-05
8.711e-05
8.71091e-05
8.71086e-05
8.71078e-05
8.71069e-05
8.71062e-05
8.71061e-05
8.71055e-05
8.71051e-05
8.71047e-05
8.71044e-05
8.71047e-05
8.71045e-05
8.71045e-05
8.71045e-05
8.71045e-05
8.71046e-05
8.71047e-05
8.71049e-05
8.71051e-05
8.71053e-05
8.71055e-05
8.71057e-05
8.7106e-05
8.71062e-05
8.71065e-05
8.71073e-05
8.71076e-05
8.71079e-05
8.71083e-05
8.71086e-05
8.7109e-05
8.71094e-05
8.71097e-05
8.71106e-05
8.71109e-05
8.71113e-05
8.71116e-05
8.71119e-05
8.71122e-05
8.7113e-05
8.71133e-05
8.71136e-05
8.71139e-05
8.71147e-05
8.71149e-05
8.71152e-05
8.71154e-05
8.71156e-05
8.71163e-05
8.71165e-05
8.71167e-05
8.71169e-05
8.71171e-05
8.71173e-05
8.71179e-05
8.71181e-05
8.71182e-05
8.71184e-05
8.71185e-05
8.71187e-05
8.71193e-05
8.71194e-05
8.71196e-05
8.71197e-05
8.71198e-05
8.712e-05
8.71201e-05
8.71202e-05
8.71203e-05
8.71209e-05
8.7121e-05
8.71211e-05
8.71213e-05
8.71214e-05
8.71215e-05
8.71216e-05
8.71217e-05
8.71218e-05
8.71219e-05
8.7122e-05
8.71221e-05
8.71221e-05
8.71222e-05
8.71223e-05
8.71223e-05
8.71224e-05
8.7123e-05
8.7123e-05
8.71231e-05
8.71231e-05
8.71232e-05
8.71232e-05
8.71233e-05
8.71233e-05
8.71233e-05
8.71233e-05
8.71233e-05
8.71233e-05
8.71233e-05
8.71233e-05
8.71232e-05
8.71231e-05
8.7123e-05
8.71228e-05
8.71226e-05
8.71224e-05
8.71222e-05
8.7122e-05
8.71217e-05
8.71214e-05
8.71212e-05
8.71208e-05
8.71206e-05
8.71197e-05
8.71205e-05
7.76909e-05
7.76891e-05
7.76876e-05
7.76864e-05
7.76852e-05
7.76843e-05
7.76834e-05
7.76826e-05
7.76818e-05
7.76815e-05
7.76809e-05
7.76804e-05
7.76799e-05
7.76796e-05
7.76793e-05
7.76791e-05
7.7679e-05
7.7679e-05
7.7679e-05
7.7679e-05
7.76795e-05
7.76796e-05
7.76798e-05
7.76799e-05
7.76801e-05
7.76803e-05
7.76806e-05
7.76808e-05
7.7681e-05
7.76813e-05
7.76815e-05
7.76818e-05
7.76825e-05
7.76828e-05
7.76831e-05
7.76834e-05
7.76837e-05
7.7684e-05
7.76843e-05
7.7685e-05
7.76854e-05
7.76857e-05
7.7686e-05
7.76862e-05
7.76869e-05
7.76872e-05
7.76874e-05
7.76877e-05
7.76879e-05
7.76885e-05
7.76887e-05
7.7689e-05
7.76891e-05
7.76893e-05
7.76899e-05
7.76901e-05
7.76902e-05
7.76904e-05
7.76905e-05
7.76911e-05
7.76912e-05
7.76914e-05
7.76915e-05
7.76916e-05
7.76917e-05
7.76918e-05
7.76924e-05
7.76925e-05
7.76926e-05
7.76927e-05
7.76928e-05
7.76929e-05
7.7693e-05
7.76931e-05
7.76932e-05
7.76933e-05
7.76934e-05
7.76939e-05
7.7694e-05
7.76941e-05
7.76942e-05
7.76943e-05
7.76944e-05
7.76945e-05
7.76945e-05
7.76946e-05
7.76947e-05
7.76947e-05
7.76948e-05
7.76949e-05
7.76949e-05
7.7695e-05
7.7695e-05
7.76951e-05
7.76951e-05
7.76952e-05
7.76952e-05
7.76953e-05
7.76953e-05
7.76953e-05
7.76953e-05
7.76953e-05
7.76953e-05
7.76953e-05
7.76953e-05
7.76952e-05
7.76952e-05
7.76951e-05
7.76949e-05
7.76948e-05
7.7695e-05
7.76949e-05
7.76946e-05
7.76944e-05
7.76942e-05
7.76939e-05
7.76937e-05
7.76934e-05
7.76927e-05
7.76933e-05
6.85367e-05
6.8535e-05
6.85338e-05
6.85328e-05
6.85317e-05
6.85309e-05
6.85301e-05
6.85293e-05
6.85286e-05
6.85279e-05
6.85273e-05
6.85269e-05
6.85265e-05
6.85261e-05
6.85259e-05
6.85257e-05
6.85256e-05
6.85256e-05
6.85256e-05
6.85256e-05
6.85257e-05
6.85258e-05
6.8526e-05
6.85261e-05
6.85263e-05
6.85265e-05
6.85267e-05
6.85272e-05
6.85274e-05
6.85276e-05
6.85279e-05
6.85281e-05
6.85283e-05
6.85286e-05
6.85292e-05
6.85295e-05
6.85297e-05
6.853e-05
6.85303e-05
6.85305e-05
6.85311e-05
6.85314e-05
6.85316e-05
6.85319e-05
6.85321e-05
6.85327e-05
6.85329e-05
6.85331e-05
6.85333e-05
6.85335e-05
6.8534e-05
6.85342e-05
6.85344e-05
6.85345e-05
6.85347e-05
6.85351e-05
6.85353e-05
6.85354e-05
6.85355e-05
6.85356e-05
6.85358e-05
6.85362e-05
6.85363e-05
6.85364e-05
6.85365e-05
6.85366e-05
6.85367e-05
6.85368e-05
6.85369e-05
6.85373e-05
6.85374e-05
6.85375e-05
6.85376e-05
6.85377e-05
6.85378e-05
6.85379e-05
6.85379e-05
6.8538e-05
6.85381e-05
6.85382e-05
6.85383e-05
6.85384e-05
6.85385e-05
6.85385e-05
6.85386e-05
6.85387e-05
6.85387e-05
6.85388e-05
6.85388e-05
6.85392e-05
6.85392e-05
6.85393e-05
6.85393e-05
6.85394e-05
6.85394e-05
6.85395e-05
6.85395e-05
6.85395e-05
6.85396e-05
6.85396e-05
6.85396e-05
6.85396e-05
6.85396e-05
6.85396e-05
6.85396e-05
6.85396e-05
6.85395e-05
6.85394e-05
6.85393e-05
6.85392e-05
6.85391e-05
6.8539e-05
6.85388e-05
6.85386e-05
6.85384e-05
6.85382e-05
6.8538e-05
6.85377e-05
6.85375e-05
6.85376e-05
5.96723e-05
5.96714e-05
5.96702e-05
5.96692e-05
5.96682e-05
5.96672e-05
5.96664e-05
5.96657e-05
5.9665e-05
5.96644e-05
5.96636e-05
5.96631e-05
5.96628e-05
5.96625e-05
5.96623e-05
5.96621e-05
5.9662e-05
5.9662e-05
5.9662e-05
5.9662e-05
5.96621e-05
5.96622e-05
5.96624e-05
5.96625e-05
5.96629e-05
5.96631e-05
5.96633e-05
5.96634e-05
5.96636e-05
5.96638e-05
5.96642e-05
5.96644e-05
5.96646e-05
5.96649e-05
5.96651e-05
5.96653e-05
5.96658e-05
5.9666e-05
5.96662e-05
5.96665e-05
5.96667e-05
5.96669e-05
5.96674e-05
5.96676e-05
5.96678e-05
5.9668e-05
5.96682e-05
5.96686e-05
5.96688e-05
5.9669e-05
5.96691e-05
5.96693e-05
5.96697e-05
5.96698e-05
5.96699e-05
5.96701e-05
5.96702e-05
5.96706e-05
5.96707e-05
5.96708e-05
5.96709e-05
5.9671e-05
5.96711e-05
5.96712e-05
5.96715e-05
5.96716e-05
5.96717e-05
5.96717e-05
5.96718e-05
5.96719e-05
5.9672e-05
5.96721e-05
5.96721e-05
5.96722e-05
5.96723e-05
5.96724e-05
5.96724e-05
5.96725e-05
5.96726e-05
5.96729e-05
5.9673e-05
5.96731e-05
5.96731e-05
5.96732e-05
5.96732e-05
5.96733e-05
5.96734e-05
5.96734e-05
5.96734e-05
5.96735e-05
5.96735e-05
5.96736e-05
5.96736e-05
5.96737e-05
5.96737e-05
5.96738e-05
5.96738e-05
5.96738e-05
5.96738e-05
5.96739e-05
5.96739e-05
5.96739e-05
5.96739e-05
5.96739e-05
5.96739e-05
5.96738e-05
5.96738e-05
5.96738e-05
5.96737e-05
5.96736e-05
5.96735e-05
5.96734e-05
5.96733e-05
5.96731e-05
5.96729e-05
5.96727e-05
5.96726e-05
5.96724e-05
5.96722e-05
5.96719e-05
5.1123e-05
5.11224e-05
5.11215e-05
5.11205e-05
5.11195e-05
5.11185e-05
5.11178e-05
5.11171e-05
5.11163e-05
5.11157e-05
5.11152e-05
5.11148e-05
5.11145e-05
5.11141e-05
5.11139e-05
5.11137e-05
5.11137e-05
5.11136e-05
5.11137e-05
5.11137e-05
5.11138e-05
5.11139e-05
5.1114e-05
5.11143e-05
5.11144e-05
5.11146e-05
5.11147e-05
5.11149e-05
5.11152e-05
5.11154e-05
5.11155e-05
5.11157e-05
5.11159e-05
5.11162e-05
5.11164e-05
5.11166e-05
5.11168e-05
5.1117e-05
5.11172e-05
5.11176e-05
5.11178e-05
5.11179e-05
5.11181e-05
5.11183e-05
5.11187e-05
5.11188e-05
5.1119e-05
5.11192e-05
5.11193e-05
5.11196e-05
5.11198e-05
5.11199e-05
5.112e-05
5.11201e-05
5.11204e-05
5.11206e-05
5.11207e-05
5.11208e-05
5.11208e-05
5.11209e-05
5.11212e-05
5.11213e-05
5.11214e-05
5.11215e-05
5.11215e-05
5.11216e-05
5.11217e-05
5.11217e-05
5.11218e-05
5.11219e-05
5.11219e-05
5.1122e-05
5.11221e-05
5.11223e-05
5.11224e-05
5.11225e-05
5.11225e-05
5.11226e-05
5.11226e-05
5.11227e-05
5.11228e-05
5.11228e-05
5.11229e-05
5.1123e-05
5.1123e-05
5.11231e-05
5.11231e-05
5.11231e-05
5.11232e-05
5.11232e-05
5.11233e-05
5.11233e-05
5.11233e-05
5.11234e-05
5.11234e-05
5.11235e-05
5.11235e-05
5.11235e-05
5.11235e-05
5.11236e-05
5.11236e-05
5.11236e-05
5.11236e-05
5.11234e-05
5.11234e-05
5.11234e-05
5.11233e-05