/*--------------------------------*- C++ -*----------------------------------*\
  =========                 |
  \\      /  F ield         | OpenFOAM: The Open Source CFD Toolbox
   \\    /   O peration     | Website:  https://openfoam.org
    \\  /    A nd           | Version:  7
     \\/     M anipulation  |
\*---------------------------------------------------------------------------*/
FoamFile
{
    version     2.0;
    format      ascii;
    class       surfaceScalarField;
    location    "20000";
    object      phi;
}
// * * * * * * * * * * * * * * * * * * * * * * * * * * * * * * * * * * * * * //

dimensions      [0 3 -1 0 0 0 0];

internalField   nonuniform List<scalar> 
7920
(
0.000129677
-6.35332e-10
0.000129677
-5.49698e-10
0.000129677
-4.74555e-10
0.000129677
-4.04181e-10
0.000129677
-3.37855e-10
0.000129677
-2.77437e-10
0.000129677
-2.19921e-10
0.000129677
-1.63593e-10
0.000129677
-1.10341e-10
0.000129677
-6.1883e-11
0.000129677
-1.38906e-11
0.000129677
3.37752e-11
0.000129677
7.91087e-11
0.000129677
1.23475e-10
0.000129677
1.65441e-10
0.000129677
2.04955e-10
0.000129676
2.42854e-10
0.000129676
2.79568e-10
0.000129676
3.16539e-10
0.000129676
3.51854e-10
0.000129676
3.83693e-10
0.000129676
4.13293e-10
0.000129676
4.42068e-10
0.000129676
4.70111e-10
0.000129676
4.96679e-10
0.000129676
5.20536e-10
0.000129676
5.43157e-10
0.000129676
5.65674e-10
0.000129676
5.84119e-10
0.000129676
6.01019e-10
0.000129676
6.17245e-10
0.000129676
6.3091e-10
0.000129676
6.43716e-10
0.000129676
6.56204e-10
0.000129676
6.68036e-10
0.000129676
6.76857e-10
0.000129676
6.84565e-10
0.000129676
6.91842e-10
0.000129676
6.98376e-10
0.000129676
7.04996e-10
0.000129676
7.11102e-10
0.000129676
7.16454e-10
0.000129676
7.20959e-10
0.000129676
7.24116e-10
0.000129676
7.25652e-10
0.000129676
7.27208e-10
0.000129676
7.28856e-10
0.000129676
7.29933e-10
0.000129676
7.30198e-10
0.000129676
7.29949e-10
0.000129676
7.2992e-10
0.000129676
7.30323e-10
0.000129676
7.28767e-10
0.000129676
7.25063e-10
0.000129676
7.22053e-10
0.000129676
7.17845e-10
0.000129676
7.13334e-10
0.000129676
7.0983e-10
0.000129677
7.04849e-10
0.000129677
6.98252e-10
0.000129677
6.90536e-10
0.000129677
6.83493e-10
0.000129677
6.75787e-10
0.000129677
6.67992e-10
0.000129677
6.61541e-10
0.000129677
6.54688e-10
0.000129677
6.46182e-10
0.000129677
6.37038e-10
0.000129677
6.29764e-10
0.000129677
6.2209e-10
0.000129677
6.11968e-10
0.000129677
5.99599e-10
0.000129677
5.84355e-10
0.000129677
5.66144e-10
0.000129677
5.40488e-10
0.000129677
5.13827e-10
4.45294e-10
0.000125572
-1.03524e-09
0.000125572
-1.38463e-09
0.000125572
-1.67335e-09
0.000125572
-1.89157e-09
0.000125572
-2.04131e-09
0.000125572
-2.13456e-09
0.000125572
-2.17957e-09
0.000125572
-2.18201e-09
0.000125572
-2.14865e-09
0.000125572
-2.08751e-09
0.000125572
-2.00604e-09
0.000125572
-1.90814e-09
0.000125572
-1.7992e-09
0.000125572
-1.68603e-09
0.000125572
-1.57143e-09
0.000125572
-1.45541e-09
0.000125572
-1.34153e-09
0.000125572
-1.22975e-09
0.000125572
-1.12337e-09
0.000125572
-1.02317e-09
0.000125572
-9.32193e-10
0.000125572
-8.52148e-10
0.000125572
-7.83113e-10
0.000125572
-6.95037e-10
0.000125572
-5.91468e-10
0.000125572
-5.07836e-10
0.000125572
-4.35738e-10
0.000125572
-3.67856e-10
0.000125572
-3.03428e-10
0.000125572
-2.44465e-10
0.000125572
-1.88177e-10
0.000125572
-1.32669e-10
0.000125572
-7.97762e-11
0.000125572
-3.17445e-11
0.000125572
1.55535e-11
0.000125572
6.23097e-11
0.000125572
1.07181e-10
0.000125572
1.50902e-10
0.000125572
1.92019e-10
0.000125572
2.30478e-10
0.000125572
2.66804e-10
0.000125572
3.0192e-10
0.000125572
3.37934e-10
0.000125572
3.71615e-10
0.000125572
4.01498e-10
0.000125572
4.29951e-10
0.000125572
4.56911e-10
0.000125572
4.83064e-10
0.000125572
5.07931e-10
0.000125572
5.30021e-10
0.000125572
5.51147e-10
0.000125572
5.71909e-10
0.000125572
5.88759e-10
0.000125572
6.04248e-10
0.000125572
6.19039e-10
0.000125572
6.31481e-10
0.000125572
6.42974e-10
0.000125572
6.54388e-10
0.000125572
6.65423e-10
0.000125572
6.73103e-10
0.000125572
6.79652e-10
0.000125572
6.86198e-10
0.000125572
6.91808e-10
0.000125572
6.97835e-10
0.000125572
7.03441e-10
0.000125572
7.08425e-10
0.000125572
7.12707e-10
0.000125572
7.15115e-10
0.000125572
7.16297e-10
0.000125572
7.17376e-10
0.000125572
7.18995e-10
0.000125572
7.20192e-10
0.000125572
7.20076e-10
0.000125572
7.19658e-10
0.000125572
7.19629e-10
0.000125572
7.20088e-10
0.000125572
7.18484e-10
0.000125572
7.14886e-10
0.000125572
7.11804e-10
0.000125572
7.07619e-10
0.000125572
7.03656e-10
0.000125572
7.00602e-10
0.000125572
6.95732e-10
0.000125572
6.89154e-10
0.000125572
6.8197e-10
0.000125572
6.75093e-10
0.000125572
6.67455e-10
0.000125572
6.59885e-10
0.000125572
6.53395e-10
0.000125572
6.46963e-10
0.000125572
6.38588e-10
0.000125572
6.2985e-10
0.000125572
6.22839e-10
0.000125572
6.14781e-10
0.000125572
6.04947e-10
0.000125572
5.93354e-10
0.000125572
5.78625e-10
0.000125572
5.60951e-10
0.000125572
5.356e-10
0.000125572
5.10692e-10
0.000125572
4.38579e-10
0.000125572
3.44967e-10
0.000125572
3.00001e-10
0.000125572
2.6995e-10
0.000125572
2.43187e-10
0.000125572
2.21022e-10
0.000125572
2.01694e-10
0.000125572
1.86229e-10
0.000125572
1.74028e-10
0.000125572
1.62622e-10
0.000125572
1.51803e-10
0.000125572
1.41869e-10
0.000125572
1.30629e-10
0.000125572
1.10985e-10
0.000125572
8.77028e-11
0.000125572
4.01326e-11
0.000125572
-1.32454e-11
0.000125572
-1.41199e-10
0.000125572
-3.09672e-10
-6.06167e-10
0.000121552
-1.02681e-09
0.000121552
-1.37588e-09
0.000121552
-1.66792e-09
0.000121552
-1.88918e-09
0.000121552
-2.04151e-09
0.000121552
-2.13697e-09
0.000121552
-2.18321e-09
0.000121552
-2.18645e-09
0.000121552
-2.15292e-09
0.000121552
-2.0908e-09
0.000121552
-2.00869e-09
0.000121552
-1.91007e-09
0.000121552
-1.80059e-09
0.000121552
-1.68657e-09
0.000121552
-1.57055e-09
0.000121552
-1.45393e-09
0.000121552
-1.33914e-09
0.000121552
-1.22624e-09
0.000121552
-1.11947e-09
0.000121552
-1.01861e-09
0.000121552
-9.27143e-10
0.000121552
-8.45296e-10
0.000121552
-7.75056e-10
0.000121552
-6.85722e-10
0.000121552
-5.77041e-10
0.000121552
-4.87336e-10
0.000121552
-4.11752e-10
0.000121552
-3.43061e-10
0.000121552
-2.78303e-10
0.000121552
-2.19163e-10
0.000121552
-1.6328e-10
0.000121552
-1.07793e-10
0.000121552
-5.47396e-11
0.000121552
-6.51733e-12
0.000121552
4.06651e-11
0.000121552
8.69706e-11
0.000121552
1.31463e-10
0.000121552
1.7501e-10
0.000121552
2.15616e-10
0.000121552
2.52966e-10
0.000121552
2.88299e-10
0.000121552
3.22369e-10
0.000121552
3.57564e-10
0.000121552
3.89704e-10
0.000121552
4.17752e-10
0.000121552
4.4504e-10
0.000121552
4.70501e-10
0.000121552
4.95314e-10
0.000121552
5.18468e-10
0.000121552
5.38847e-10
0.000121552
5.58537e-10
0.000121552
5.7739e-10
0.000121552
5.93017e-10
0.000121552
6.07234e-10
0.000121552
6.20022e-10
0.000121552
6.31281e-10
0.000121552
6.41815e-10
0.000121552
6.52225e-10
0.000121552
6.62026e-10
0.000121552
6.68623e-10
0.000121552
6.74242e-10
0.000121552
6.79654e-10
0.000121552
6.84361e-10
0.000121552
6.89617e-10
0.000121552
6.94937e-10
0.000121552
6.99511e-10
0.000121552
7.03237e-10
0.000121552
7.04867e-10
0.000121552
7.0554e-10
0.000121552
7.06167e-10
0.000121552
7.07775e-10
0.000121552
7.08984e-10
0.000121552
7.0847e-10
0.000121552
7.07901e-10
0.000121552
7.0785e-10
0.000121552
7.07994e-10
0.000121552
7.06106e-10
0.000121552
7.02833e-10
0.000121552
6.99489e-10
0.000121552
6.95511e-10
0.000121552
6.92213e-10
0.000121552
6.89531e-10
0.000121552
6.84644e-10
0.000121552
6.78015e-10
0.000121552
6.71446e-10
0.000121552
6.64523e-10
0.000121552
6.56902e-10
0.000121552
6.49488e-10
0.000121552
6.42981e-10
0.000121552
6.37027e-10
0.000121552
6.28896e-10
0.000121552
6.20445e-10
0.000121552
6.13681e-10
0.000121552
6.05669e-10
0.000121552
5.96265e-10
0.000121552
5.8538e-10
0.000121552
5.71123e-10
0.000121552
5.53915e-10
0.000121552
5.29153e-10
0.000121552
5.03634e-10
0.000121552
4.45327e-10
0.000121552
3.5655e-10
0.000121552
2.94484e-10
0.000121552
2.5562e-10
0.000121552
2.27609e-10
0.000121552
2.06514e-10
0.000121552
1.87927e-10
0.000121552
1.73158e-10
0.000121552
1.621e-10
0.000121552
1.51116e-10
0.000121552
1.40607e-10
0.000121552
1.30436e-10
0.000121552
1.18749e-10
0.000121552
9.91299e-11
0.000121552
7.56219e-11
0.000121552
2.74995e-11
0.000121552
-2.59313e-11
0.000121552
-1.53523e-10
0.000121552
-3.23423e-10
-6.10548e-10
0.000117613
-1.01357e-09
0.000117613
-1.3604e-09
0.000117613
-1.65537e-09
0.000117613
-1.8799e-09
0.000117613
-2.03525e-09
0.000117613
-2.13311e-09
0.000117613
-2.18076e-09
0.000117613
-2.18476e-09
0.000117613
-2.15136e-09
0.000117613
-2.089e-09
0.000117613
-2.00661e-09
0.000117613
-1.90773e-09
0.000117613
-1.79802e-09
0.000117613
-1.68363e-09
0.000117613
-1.56656e-09
0.000117613
-1.44937e-09
0.000117613
-1.33425e-09
0.000117613
-1.22074e-09
0.000117613
-1.11331e-09
0.000117613
-1.01222e-09
0.000117613
-9.20703e-10
0.000117613
-8.37096e-10
0.000117613
-7.64571e-10
0.000117613
-6.78773e-10
0.000117613
-5.74095e-10
0.000117613
-4.81342e-10
0.000117613
-4.00942e-10
0.000117613
-3.29311e-10
0.000117613
-2.62584e-10
0.000117613
-2.02127e-10
0.000117613
-1.45269e-10
0.000117613
-8.86202e-11
0.000117613
-3.52333e-11
0.000117613
1.33474e-11
0.000117613
6.11624e-11
0.000117613
1.07758e-10
0.000117613
1.52036e-10
0.000117613
1.95541e-10
0.000117613
2.35809e-10
0.000117613
2.72242e-10
0.000117613
3.0682e-10
0.000117613
3.40425e-10
0.000117613
3.74988e-10
0.000117613
4.05824e-10
0.000117613
4.32205e-10
0.000117613
4.58094e-10
0.000117613
4.82623e-10
0.000117613
5.06316e-10
0.000117613
5.2766e-10
0.000117613
5.46428e-10
0.000117613
5.64747e-10
0.000117613
5.81821e-10
0.000117613
5.96433e-10
0.000117613
6.09438e-10
0.000117613
6.20285e-10
0.000117613
6.30243e-10
0.000117613
6.39817e-10
0.000117613
6.49249e-10
0.000117613
6.57681e-10
0.000117613
6.63336e-10
0.000117613
6.67927e-10
0.000117613
6.72172e-10
0.000117613
6.75968e-10
0.000117613
6.80302e-10
0.000117613
6.85338e-10
0.000117613
6.89371e-10
0.000117613
6.9252e-10
0.000117613
6.9333e-10
0.000117613
6.9306e-10
0.000117613
6.93639e-10
0.000117613
6.95348e-10
0.000117613
6.96027e-10
0.000117613
6.95376e-10
0.000117613
6.94773e-10
0.000117613
6.94322e-10
0.000117613
6.94042e-10
0.000117613
6.91687e-10
0.000117613
6.88775e-10
0.000117613
6.85554e-10
0.000117613
6.81713e-10
0.000117613
6.78906e-10
0.000117613
6.76743e-10
0.000117613
6.71642e-10
0.000117613
6.64962e-10
0.000117613
6.58814e-10
0.000117613
6.51838e-10
0.000117613
6.4425e-10
0.000117613
6.36925e-10
0.000117613
6.30404e-10
0.000117613
6.24699e-10
0.000117613
6.17236e-10
0.000117613
6.09024e-10
0.000117613
6.02427e-10
0.000117613
5.94826e-10
0.000117613
5.85794e-10
0.000117613
5.7556e-10
0.000117613
5.61969e-10
0.000117613
5.45163e-10
0.000117613
5.21136e-10
0.000117613
4.9389e-10
0.000117613
4.50519e-10
0.000117613
3.7819e-10
0.000117613
3.0808e-10
0.000117613
2.5767e-10
0.000117613
2.23789e-10
0.000117613
2.00363e-10
0.000117613
1.80657e-10
0.000117613
1.65703e-10
0.000117613
1.54682e-10
0.000117613
1.43471e-10
0.000117613
1.32961e-10
0.000117613
1.22343e-10
0.000117613
1.09955e-10
0.000117613
8.99218e-11
0.000117613
6.58261e-11
0.000117613
1.72777e-11
0.000117613
-3.62105e-11
0.000117613
-1.63276e-10
0.000117613
-3.33732e-10
-6.11375e-10
0.000113752
-9.96064e-10
0.000113752
-1.33815e-09
0.000113752
-1.63477e-09
0.000113752
-1.86292e-09
0.000113752
-2.02152e-09
0.000113752
-2.12221e-09
0.000113752
-2.17182e-09
0.000113752
-2.17666e-09
0.000113752
-2.14377e-09
0.000113752
-2.08198e-09
0.000113752
-1.99975e-09
0.000113752
-1.90081e-09
0.000113752
-1.79118e-09
0.000113752
-1.67688e-09
0.000113752
-1.55938e-09
0.000113752
-1.44181e-09
0.000113752
-1.32698e-09
0.000113752
-1.21332e-09
0.000113752
-1.10508e-09
0.000113752
-1.00391e-09
0.000113752
-9.12435e-10
0.000113752
-8.27505e-10
0.000113752
-7.52404e-10
0.000113752
-6.70057e-10
0.000113752
-5.72689e-10
0.000113752
-4.8154e-10
0.000113752
-3.98908e-10
0.000113752
-3.24149e-10
0.000113752
-2.54862e-10
0.000113752
-1.92515e-10
0.000113752
-1.3344e-10
0.000113752
-7.49394e-11
0.000113752
-2.09453e-11
0.000113752
2.82217e-11
0.000113752
7.70447e-11
0.000113752
1.24472e-10
0.000113752
1.68962e-10
0.000113752
2.12261e-10
0.000113752
2.5229e-10
0.000113752
2.88241e-10
0.000113752
3.22342e-10
0.000113752
3.55744e-10
0.000113752
3.89785e-10
0.000113752
4.19736e-10
0.000113752
4.44625e-10
0.000113752
4.69017e-10
0.000113752
4.92894e-10
0.000113752
5.15551e-10
0.000113752
5.352e-10
0.000113752
5.52636e-10
0.000113752
5.69636e-10
0.000113752
5.84948e-10
0.000113752
5.98273e-10
0.000113752
6.10339e-10
0.000113752
6.19923e-10
0.000113752
6.2834e-10
0.000113752
6.36586e-10
0.000113752
6.45013e-10
0.000113752
6.52267e-10
0.000113752
6.56878e-10
0.000113752
6.6028e-10
0.000113752
6.63318e-10
0.000113752
6.6657e-10
0.000113752
6.70223e-10
0.000113752
6.74417e-10
0.000113752
6.77648e-10
0.000113752
6.80202e-10
0.000113752
6.80449e-10
0.000113752
6.7921e-10
0.000113752
6.79654e-10
0.000113752
6.81511e-10
0.000113752
6.81666e-10
0.000113752
6.80905e-10
0.000113752
6.80031e-10
0.000113752
6.78694e-10
0.000113752
6.78232e-10
0.000113752
6.75658e-10
0.000113752
6.72631e-10
0.000113752
6.69787e-10
0.000113752
6.66369e-10
0.000113752
6.63947e-10
0.000113752
6.62063e-10
0.000113752
6.56729e-10
0.000113752
6.50127e-10
0.000113752
6.44291e-10
0.000113752
6.37115e-10
0.000113752
6.29626e-10
0.000113752
6.22306e-10
0.000113752
6.15762e-10
0.000113752
6.10179e-10
0.000113752
6.03529e-10
0.000113752
5.95734e-10
0.000113752
5.89205e-10
0.000113752
5.82424e-10
0.000113752
5.73711e-10
0.000113752
5.63775e-10
0.000113752
5.50979e-10
0.000113752
5.34804e-10
0.000113752
5.11867e-10
0.000113752
4.82672e-10
0.000113752
4.50055e-10
0.000113752
3.97027e-10
0.000113752
3.29443e-10
0.000113752
2.71635e-10
0.000113752
2.30693e-10
0.000113752
2.02525e-10
0.000113752
1.80177e-10
0.000113752
1.64038e-10
0.000113752
1.52018e-10
0.000113752
1.39962e-10
0.000113752
1.28895e-10
0.000113752
1.17499e-10
0.000113752
1.04172e-10
0.000113752
8.3441e-11
0.000113752
5.8673e-11
0.000113752
9.56044e-12
0.000113752
-4.39873e-11
0.000113752
-1.70337e-10
0.000113752
-3.40851e-10
-6.08836e-10
0.000109966
-9.7433e-10
0.000109966
-1.30941e-09
0.000109966
-1.60606e-09
0.000109966
-1.83739e-09
0.000109966
-1.99943e-09
0.000109966
-2.10376e-09
0.000109966
-2.15616e-09
0.000109966
-2.16224e-09
0.000109966
-2.13006e-09
0.000109966
-2.06941e-09
0.000109966
-1.98777e-09
0.000109966
-1.88905e-09
0.000109966
-1.78022e-09
0.000109966
-1.66641e-09
0.000109966
-1.54901e-09
0.000109966
-1.43167e-09
0.000109966
-1.31724e-09
0.000109966
-1.2034e-09
0.000109966
-1.09483e-09
0.000109966
-9.93957e-10
0.000109966
-9.02263e-10
0.000109966
-8.16215e-10
0.000109966
-7.38739e-10
0.000109966
-6.58572e-10
0.000109966
-5.68496e-10
0.000109966
-4.82152e-10
0.000109966
-4.00573e-10
0.000109966
-3.24297e-10
0.000109966
-2.52939e-10
0.000109966
-1.88297e-10
0.000109966
-1.26791e-10
0.000109966
-6.64328e-11
0.000109966
-1.11481e-11
0.000109966
3.89135e-11
0.000109966
8.87361e-11
0.000109966
1.37048e-10
0.000109966
1.82049e-10
0.000109966
2.25582e-10
0.000109966
2.65132e-10
0.000109966
3.0063e-10
0.000109966
3.34889e-10
0.000109966
3.68426e-10
0.000109966
4.01948e-10
0.000109966
4.30984e-10
0.000109966
4.54474e-10
0.000109966
4.77683e-10
0.000109966
5.01012e-10
0.000109966
5.22898e-10
0.000109966
5.41209e-10
0.000109966
5.57092e-10
0.000109966
5.72735e-10
0.000109966
5.86513e-10
0.000109966
5.98477e-10
0.000109966
6.09936e-10
0.000109966
6.18462e-10
0.000109966
6.25045e-10
0.000109966
6.32049e-10
0.000109966
6.39489e-10
0.000109966
6.45332e-10
0.000109966
6.48861e-10
0.000109966
6.51244e-10
0.000109966
6.53075e-10
0.000109966
6.55901e-10
0.000109966
6.59019e-10
0.000109966
6.62178e-10
0.000109966
6.64359e-10
0.000109966
6.65977e-10
0.000109966
6.65925e-10
0.000109966
6.64317e-10
0.000109966
6.64389e-10
0.000109966
6.66088e-10
0.000109966
6.65918e-10
0.000109966
6.64856e-10
0.000109966
6.63369e-10
0.000109966
6.61244e-10
0.000109966
6.60676e-10
0.000109966
6.57767e-10
0.000109966
6.54592e-10
0.000109966
6.52417e-10
0.000109966
6.49678e-10
0.000109966
6.47554e-10
0.000109966
6.45266e-10
0.000109966
6.39933e-10
0.000109966
6.33676e-10
0.000109966
6.27728e-10
0.000109966
6.204e-10
0.000109966
6.1318e-10
0.000109966
6.05715e-10
0.000109966
5.99148e-10
0.000109966
5.93637e-10
0.000109966
5.87755e-10
0.000109966
5.80747e-10
0.000109966
5.74435e-10
0.000109966
5.68411e-10
0.000109967
5.60196e-10
0.000109967
5.50531e-10
0.000109967
5.38358e-10
0.000109967
5.22687e-10
0.000109967
5.00991e-10
0.000109967
4.70398e-10
0.000109967
4.44299e-10
0.000109967
4.08491e-10
0.000109967
3.5005e-10
0.000109967
2.91166e-10
0.000109967
2.44792e-10
0.000109966
2.11219e-10
0.000109966
1.8576e-10
0.000109966
1.67725e-10
0.000109966
1.53787e-10
0.000109966
1.40349e-10
0.000109966
1.28249e-10
0.000109966
1.15751e-10
0.000109966
1.01269e-10
0.000109966
7.96875e-11
0.000109966
5.4152e-11
0.000109967
4.35712e-12
0.000109967
-4.95958e-11
0.000109967
-1.75046e-10
0.000109967
-3.44468e-10
-6.02616e-10
0.000106252
-9.48106e-10
0.000106252
-1.27442e-09
0.000106252
-1.56944e-09
0.000106252
-1.80271e-09
0.000106252
-1.96876e-09
0.000106252
-2.0778e-09
0.000106252
-2.13339e-09
0.000106252
-2.1413e-09
0.000106252
-2.11051e-09
0.000106252
-2.05114e-09
0.000106251
-1.97039e-09
0.000106251
-1.87259e-09
0.000106251
-1.76542e-09
0.000106251
-1.65238e-09
0.000106251
-1.53556e-09
0.000106251
-1.4191e-09
0.000106251
-1.30456e-09
0.000106251
-1.19074e-09
0.000106251
-1.08271e-09
0.000106251
-9.82377e-10
0.000106251
-8.90084e-10
0.000106251
-8.02914e-10
0.000106251
-7.2363e-10
0.000106251
-6.44205e-10
0.000106251
-5.60046e-10
0.000106251
-4.79944e-10
0.000106251
-4.01944e-10
0.000106251
-3.26659e-10
0.000106251
-2.54421e-10
0.000106251
-1.87398e-10
0.000106251
-1.23695e-10
0.000106251
-6.20902e-11
0.000106251
-5.31082e-12
0.000106251
4.61885e-11
0.000106251
9.70036e-11
0.000106251
1.45824e-10
0.000106251
1.91503e-10
0.000106251
2.35681e-10
0.000106251
2.74693e-10
0.000106251
3.09812e-10
0.000106251
3.44357e-10
0.000106251
3.78297e-10
0.000106251
4.11437e-10
0.000106251
4.39428e-10
0.000106251
4.61574e-10
0.000106251
4.83747e-10
0.000106251
5.07065e-10
0.000106251
5.28305e-10
0.000106251
5.4519e-10
0.000106251
5.59343e-10
0.000106251
5.736e-10
0.000106251
5.86318e-10
0.000106251
5.97334e-10
0.000106251
6.08015e-10
0.000106251
6.15157e-10
0.000106251
6.20138e-10
0.000106251
6.26175e-10
0.000106251
6.3264e-10
0.000106251
6.36753e-10
0.000106251
6.39299e-10
0.000106251
6.40815e-10
0.000106251
6.41431e-10
0.000106251
6.43746e-10
0.000106251
6.46359e-10
0.000106251
6.48558e-10
0.000106251
6.49459e-10
0.000106251
6.49865e-10
0.000106251
6.49591e-10
0.000106251
6.48155e-10
0.000106251
6.47977e-10
0.000106251
6.49224e-10
0.000106251
6.485e-10
0.000106251
6.46963e-10
0.000106251
6.44796e-10
0.000106251
6.4199e-10
0.000106251
6.41193e-10
0.000106251
6.38046e-10
0.000106251
6.35166e-10
0.000106252
6.33817e-10
0.000106252
6.3158e-10
0.000106252
6.29498e-10
0.000106252
6.26651e-10
0.000106252
6.21402e-10
0.000106252
6.155e-10
0.000106252
6.09167e-10
0.000106252
6.01789e-10
0.000106252
5.94786e-10
0.000106252
5.87188e-10
0.000106252
5.80659e-10
0.000106252
5.75229e-10
0.000106252
5.70275e-10
0.000106252
5.64329e-10
0.000106252
5.58534e-10
0.000106252
5.52718e-10
0.000106252
5.45092e-10
0.000106252
5.36288e-10
0.000106252
5.24312e-10
0.000106252
5.08647e-10
0.000106252
4.88239e-10
0.000106252
4.5733e-10
0.000106252
4.34747e-10
0.000106252
4.11971e-10
0.000106252
3.65167e-10
0.000106252
3.10499e-10
0.000106252
2.62049e-10
0.000106252
2.24078e-10
0.000106252
1.95882e-10
0.000106252
1.75516e-10
0.000106252
1.59083e-10
0.000106252
1.44292e-10
0.000106252
1.30819e-10
0.000106252
1.16568e-10
0.000106252
1.0076e-10
0.000106252
7.86121e-11
0.000106252
5.21476e-11
0.000106252
1.59228e-12
0.000106252
-5.31097e-11
0.000106252
-1.77438e-10
0.000106252
-3.44566e-10
-5.92688e-10
0.000102604
-9.16808e-10
0.000102604
-1.23308e-09
0.000102604
-1.52496e-09
0.000102604
-1.75887e-09
0.000102604
-1.92956e-09
0.000102604
-2.04445e-09
0.000102604
-2.10327e-09
0.000102604
-2.11378e-09
0.000102604
-2.08518e-09
0.000102604
-2.02732e-09
0.000102604
-1.94773e-09
0.000102604
-1.8517e-09
0.000102604
-1.74687e-09
0.000102604
-1.63461e-09
0.000102604
-1.51887e-09
0.000102604
-1.40397e-09
0.000102604
-1.28896e-09
0.000102604
-1.17554e-09
0.000102604
-1.06905e-09
0.000102604
-9.688e-10
0.000102604
-8.75323e-10
0.000102604
-7.87393e-10
0.000102604
-7.07177e-10
0.000102604
-6.274e-10
0.000102604
-5.47236e-10
0.000102604
-4.7356e-10
0.000102604
-4.00712e-10
0.000102604
-3.28256e-10
0.000102604
-2.56909e-10
0.000102604
-1.88089e-10
0.000102604
-1.22343e-10
0.000102604
-6.04583e-11
0.000102604
-2.49171e-12
0.000102604
5.09333e-11
0.000102604
1.02491e-10
0.000102604
1.51343e-10
0.000102604
1.97968e-10
0.000102604
2.42468e-10
0.000102604
2.80941e-10
0.000102604
3.16211e-10
0.000102604
3.50689e-10
0.000102604
3.85247e-10
0.000102604
4.1822e-10
0.000102604
4.44964e-10
0.000102604
4.66135e-10
0.000102604
4.87215e-10
0.000102604
5.1097e-10
0.000102604
5.3171e-10
0.000102604
5.46626e-10
0.000102604
5.59259e-10
0.000102604
5.72171e-10
0.000102604
5.84017e-10
0.000102604
5.94835e-10
0.000102604
6.04286e-10
0.000102604
6.09582e-10
0.000102604
6.1349e-10
0.000102604
6.18694e-10
0.000102604
6.24107e-10
0.000102604
6.26333e-10
0.000102604
6.28263e-10
0.000102604
6.29024e-10
0.000102604
6.28361e-10
0.000102604
6.30232e-10
0.000102604
6.32005e-10
0.000102604
6.33214e-10
0.000102604
6.32836e-10
0.000102604
6.31845e-10
0.000102604
6.31706e-10
0.000102604
6.30645e-10
0.000102604
6.30175e-10
0.000102604
6.30968e-10
0.000102604
6.29444e-10
0.000102604
6.27298e-10
0.000102604
6.24321e-10
0.000102604
6.20917e-10
0.000102604
6.1987e-10
0.000102604
6.1665e-10
0.000102604
6.14668e-10
0.000102604
6.14006e-10
0.000102604
6.11949e-10
0.000102604
6.09843e-10
0.000102604
6.06496e-10
0.000102604
6.01317e-10
0.000102604
5.95483e-10
0.000102604
5.88936e-10
0.000102604
5.81418e-10
0.000102604
5.74307e-10
0.000102604
5.66773e-10
0.000102604
5.60405e-10
0.000102604
5.55111e-10
0.000102604
5.5149e-10
0.000102604
5.46805e-10
0.000102604
5.41292e-10
0.000102604
5.35471e-10
0.000102604
5.28675e-10
0.000102605
5.20965e-10
0.000102605
5.08809e-10
0.000102605
4.93068e-10
0.000102605
4.73802e-10
0.000102605
4.43203e-10
0.000102605
4.22297e-10
0.000102605
4.08441e-10
0.000102605
3.73327e-10
0.000102605
3.26245e-10
0.000102605
2.78572e-10
0.000102605
2.38286e-10
0.000102605
2.08798e-10
0.000102605
1.8571e-10
0.000102604
1.66947e-10
0.000102604
1.51185e-10
0.000102604
1.35922e-10
0.000102604
1.19269e-10
0.000102604
1.02169e-10
0.000102604
7.99274e-11
0.000102604
5.25274e-11
0.000102604
1.12059e-12
0.000102604
-5.472e-11
0.000102604
-1.77538e-10
0.000102604
-3.41721e-10
-5.79012e-10
9.90206e-05
-8.80332e-10
9.90206e-05
-1.18522e-09
9.90205e-05
-1.47222e-09
9.90205e-05
-1.70612e-09
9.90204e-05
-1.88237e-09
9.90204e-05
-2.00377e-09
9.90203e-05
-2.06583e-09
9.90203e-05
-2.07985e-09
9.90203e-05
-2.05397e-09
9.90202e-05
-1.99811e-09
9.90202e-05
-1.91997e-09
9.90202e-05
-1.82656e-09
9.90202e-05
-1.72474e-09
9.90201e-05
-1.61287e-09
9.90201e-05
-1.49895e-09
9.90201e-05
-1.38624e-09
9.90201e-05
-1.27031e-09
9.90201e-05
-1.1578e-09
9.90201e-05
-1.05374e-09
9.902e-05
-9.53262e-10
9.902e-05
-8.57913e-10
9.902e-05
-7.6926e-10
9.902e-05
-6.89254e-10
9.902e-05
-6.08246e-10
9.902e-05
-5.30389e-10
9.90199e-05
-4.63052e-10
9.90199e-05
-3.95865e-10
9.90199e-05
-3.27386e-10
9.90199e-05
-2.58495e-10
9.90199e-05
-1.88463e-10
9.90199e-05
-1.21106e-10
9.90199e-05
-6.03954e-11
9.90199e-05
-1.45913e-12
9.90199e-05
5.41083e-11
9.90199e-05
1.05729e-10
9.90199e-05
1.5406e-10
9.90199e-05
2.0211e-10
9.90199e-05
2.46389e-10
9.90199e-05
2.83902e-10
9.90199e-05
3.19763e-10
9.90199e-05
3.54061e-10
9.90199e-05
3.89867e-10
9.90199e-05
4.22297e-10
9.90199e-05
4.47111e-10
9.90199e-05
4.67859e-10
9.90199e-05
4.8841e-10
9.90199e-05
5.13037e-10
9.90199e-05
5.32766e-10
9.90199e-05
5.45218e-10
9.90199e-05
5.56798e-10
9.90199e-05
5.68385e-10
9.90199e-05
5.79346e-10
9.90199e-05
5.9085e-10
9.90199e-05
5.98625e-10
9.90199e-05
6.01594e-10
9.90199e-05
6.05141e-10
9.90199e-05
6.09335e-10
9.902e-05
6.13496e-10
9.902e-05
6.13868e-10
9.902e-05
6.15656e-10
9.902e-05
6.15636e-10
9.902e-05
6.13822e-10
9.902e-05
6.15483e-10
9.902e-05
6.15908e-10
9.90201e-05
6.15827e-10
9.90201e-05
6.141e-10
9.90201e-05
6.11868e-10
9.90201e-05
6.1264e-10
9.90201e-05
6.12082e-10
9.90201e-05
6.11059e-10
9.90202e-05
6.11356e-10
9.90202e-05
6.08724e-10
9.90202e-05
6.05905e-10
9.90202e-05
6.01942e-10
9.90203e-05
5.98104e-10
9.90203e-05
5.96849e-10
9.90203e-05
5.93463e-10
9.90203e-05
5.93205e-10
9.90203e-05
5.93253e-10
9.90204e-05
5.90923e-10
9.90204e-05
5.88925e-10
9.90204e-05
5.84752e-10
9.90204e-05
5.79567e-10
9.90205e-05
5.73777e-10
9.90205e-05
5.67081e-10
9.90205e-05
5.59376e-10
9.90205e-05
5.51878e-10
9.90205e-05
5.44592e-10
9.90206e-05
5.38509e-10
9.90206e-05
5.33458e-10
9.90206e-05
5.31899e-10
9.90206e-05
5.28504e-10
9.90206e-05
5.22419e-10
9.90207e-05
5.16757e-10
9.90207e-05
5.11285e-10
9.90207e-05
5.04501e-10
9.90207e-05
4.92037e-10
9.90207e-05
4.76035e-10
9.90207e-05
4.576e-10
9.90208e-05
4.27783e-10
9.90208e-05
4.07774e-10
9.90208e-05
3.99745e-10
9.90208e-05
3.74747e-10
9.90208e-05
3.36611e-10
9.90208e-05
2.9127e-10
9.90207e-05
2.50948e-10
9.90207e-05
2.22745e-10
9.90207e-05
1.97096e-10
9.90207e-05
1.76219e-10
9.90207e-05
1.59932e-10
9.90207e-05
1.4278e-10
9.90207e-05
1.23366e-10
9.90207e-05
1.0514e-10
9.90207e-05
8.34429e-11
9.90207e-05
5.47682e-11
9.90207e-05
2.43686e-12
9.90207e-05
-5.50119e-11
9.90207e-05
-1.75668e-10
9.90207e-05
-3.35937e-10
-5.61559e-10
9.5496e-05
-8.385e-10
9.54959e-05
-1.1297e-09
9.54959e-05
-1.41016e-09
9.54958e-05
-1.64636e-09
9.54957e-05
-1.82882e-09
9.54957e-05
-1.95425e-09
9.54957e-05
-2.02116e-09
9.54956e-05
-2.03962e-09
9.54956e-05
-2.01714e-09
9.54955e-05
-1.96392e-09
9.54955e-05
-1.88784e-09
9.54955e-05
-1.79829e-09
9.54955e-05
-1.69745e-09
9.54954e-05
-1.58759e-09
9.54954e-05
-1.47676e-09
9.54954e-05
-1.36415e-09
9.54954e-05
-1.24902e-09
9.54953e-05
-1.13901e-09
9.54953e-05
-1.03583e-09
9.54953e-05
-9.34563e-10
9.54953e-05
-8.36832e-10
9.54953e-05
-7.48008e-10
9.54952e-05
-6.69441e-10
9.54952e-05
-5.88491e-10
9.54952e-05
-5.12152e-10
9.54952e-05
-4.48769e-10
9.54952e-05
-3.86563e-10
9.54952e-05
-3.2239e-10
9.54952e-05
-2.56749e-10
9.54952e-05
-1.87511e-10
9.54952e-05
-1.19581e-10
9.54952e-05
-5.99179e-11
9.54952e-05
-2.02298e-12
9.54952e-05
5.56843e-11
9.54952e-05
1.08299e-10
9.54952e-05
1.5562e-10
9.54952e-05
2.03428e-10
9.54952e-05
2.46416e-10
9.54952e-05
2.84881e-10
9.54952e-05
3.21862e-10
9.54952e-05
3.55932e-10
9.54952e-05
3.91323e-10
9.54952e-05
4.21953e-10
9.54952e-05
4.46653e-10
9.54952e-05
4.67718e-10
9.54952e-05
4.88231e-10
9.54952e-05
5.1211e-10
9.54952e-05
5.29389e-10
9.54952e-05
5.4139e-10
9.54952e-05
5.52852e-10
9.54952e-05
5.62942e-10
9.54952e-05
5.73187e-10
9.54952e-05
5.83627e-10
9.54952e-05
5.88897e-10
9.54952e-05
5.91771e-10
9.54952e-05
5.95857e-10
9.54952e-05
5.98836e-10
9.54952e-05
6.01488e-10
9.54953e-05
5.99721e-10
9.54953e-05
5.99675e-10
9.54953e-05
5.9856e-10
9.54953e-05
5.98324e-10
9.54953e-05
6.00171e-10
9.54953e-05
5.98712e-10
9.54954e-05
5.97139e-10
9.54954e-05
5.93669e-10
9.54954e-05
5.90488e-10
9.54954e-05
5.90859e-10
9.54954e-05
5.90632e-10
9.54955e-05
5.91139e-10
9.54955e-05
5.90938e-10
9.54955e-05
5.8676e-10
9.54955e-05
5.83351e-10
9.54956e-05
5.78148e-10
9.54956e-05
5.73882e-10
9.54956e-05
5.72467e-10
9.54956e-05
5.69225e-10
9.54956e-05
5.69324e-10
9.54957e-05
5.69661e-10
9.54957e-05
5.69043e-10
9.54957e-05
5.67379e-10
9.54957e-05
5.6155e-10
9.54958e-05
5.5656e-10
9.54958e-05
5.51056e-10
9.54958e-05
5.43922e-10
9.54958e-05
5.35982e-10
9.54959e-05
5.28095e-10
9.54959e-05
5.21096e-10
9.54959e-05
5.15379e-10
9.54959e-05
5.10746e-10
9.54959e-05
5.09813e-10
9.5496e-05
5.07315e-10
9.5496e-05
5.01989e-10
9.5496e-05
4.97028e-10
9.5496e-05
4.9362e-10
9.5496e-05
4.87339e-10
9.54961e-05
4.73828e-10
9.54961e-05
4.57513e-10
9.54961e-05
4.39777e-10
9.54961e-05
4.11272e-10
9.54961e-05
3.91941e-10
9.54961e-05
3.87329e-10
9.54961e-05
3.70053e-10
9.54961e-05
3.40325e-10
9.54961e-05
2.99543e-10
9.54961e-05
2.61494e-10
9.54961e-05
2.35265e-10
9.54961e-05
2.09168e-10
9.54961e-05
1.86889e-10
9.54961e-05
1.68276e-10
9.54961e-05
1.48961e-10
9.54961e-05
1.29317e-10
9.54961e-05
1.10696e-10
9.54961e-05
8.80994e-11
9.54961e-05
5.7216e-11
9.54961e-05
3.93592e-12
9.54961e-05
-5.2863e-11
9.5496e-05
-1.71492e-10
9.5496e-05
-3.28683e-10
-5.40391e-10
9.20258e-05
-7.89433e-10
9.20258e-05
-1.06557e-09
9.20257e-05
-1.34052e-09
9.20256e-05
-1.57986e-09
9.20256e-05
-1.76837e-09
9.20255e-05
-1.89634e-09
9.20255e-05
-1.96966e-09
9.20254e-05
-1.99342e-09
9.20254e-05
-1.97509e-09
9.20253e-05
-1.92531e-09
9.20253e-05
-1.8519e-09
9.20253e-05
-1.76566e-09
9.20252e-05
-1.66536e-09
9.20252e-05
-1.55974e-09
9.20252e-05
-1.45089e-09
9.20252e-05
-1.33781e-09
9.20251e-05
-1.22616e-09
9.20251e-05
-1.11837e-09
9.20251e-05
-1.01411e-09
9.20251e-05
-9.11132e-10
9.20251e-05
-8.13145e-10
9.2025e-05
-7.25811e-10
9.2025e-05
-6.47625e-10
9.2025e-05
-5.67909e-10
9.2025e-05
-4.92909e-10
9.2025e-05
-4.31094e-10
9.20249e-05
-3.72578e-10
9.20249e-05
-3.12382e-10
9.20249e-05
-2.50122e-10
9.20249e-05
-1.85311e-10
9.20249e-05
-1.1807e-10
9.20249e-05
-5.73171e-11
9.20249e-05
-2.30235e-12
9.20249e-05
5.55236e-11
9.20249e-05
1.09548e-10
9.20249e-05
1.57431e-10
9.20249e-05
2.03186e-10
9.20249e-05
2.43641e-10
9.20249e-05
2.8329e-10
9.20249e-05
3.21757e-10
9.20249e-05
3.57635e-10
9.20249e-05
3.90499e-10
9.20249e-05
4.17841e-10
9.20249e-05
4.42485e-10
9.20249e-05
4.64619e-10
9.20249e-05
4.87572e-10
9.20249e-05
5.08706e-10
9.20249e-05
5.22134e-10
9.20249e-05
5.3374e-10
9.2025e-05
5.45924e-10
9.2025e-05
5.56422e-10
9.2025e-05
5.6639e-10
9.2025e-05
5.73729e-10
9.2025e-05
5.75462e-10
9.2025e-05
5.7887e-10
9.2025e-05
5.83988e-10
9.2025e-05
5.87784e-10
9.2025e-05
5.88691e-10
9.20251e-05
5.84134e-10
9.20251e-05
5.80894e-10
9.20251e-05