/*--------------------------------*- C++ -*----------------------------------*\
  =========                 |
  \\      /  F ield         | OpenFOAM: The Open Source CFD Toolbox
   \\    /   O peration     | Website:  https://openfoam.org
    \\  /    A nd           | Version:  7
     \\/     M anipulation  |
\*---------------------------------------------------------------------------*/
FoamFile
{
    version     2.0;
    format      ascii;
    class       volScalarField;
    location    "96500";
    object      nut;
}
// * * * * * * * * * * * * * * * * * * * * * * * * * * * * * * * * * * * * * //

dimensions      [0 2 -1 0 0 0 0];

internalField   nonuniform List<scalar> 
600
(
3.20876e-18
5.63719e-16
1.19098e-14
9.25379e-14
4.25049e-13
1.42491e-12
3.88235e-12
9.14098e-12
1.93183e-11
3.75739e-11
6.84321e-11
1.18166e-10
1.95254e-10
3.10912e-10
4.79717e-10
7.20333e-10
1.05635e-09
1.51722e-09
2.13941e-09
2.96756e-09
4.05599e-09
5.47021e-09
7.28872e-09
9.60496e-09
1.25295e-08
1.61925e-08
2.07461e-08
2.63675e-08
3.32616e-08
4.16644e-08
5.18466e-08
6.41162e-08
7.8823e-08
9.63609e-08
1.17172e-07
1.41751e-07
1.70644e-07
2.04455e-07
2.43846e-07
2.89539e-07
3.42314e-07
4.03011e-07
4.72525e-07
5.51805e-07
6.41849e-07
7.43698e-07
8.5843e-07
9.87146e-07
1.13097e-06
1.29103e-06
1.46844e-06
1.66432e-06
1.87975e-06
2.11576e-06
2.37336e-06
2.65348e-06
2.95699e-06
3.28468e-06
3.63728e-06
4.01543e-06
4.41969e-06
4.85055e-06
5.30839e-06
5.79357e-06
6.30632e-06
6.84686e-06
7.41532e-06
8.01178e-06
8.63628e-06
9.28884e-06
9.9694e-06
1.06779e-05
1.14143e-05
1.21785e-05
1.29703e-05
1.37896e-05
1.46362e-05
1.55101e-05
1.6411e-05
1.72844e-05
1.81661e-05
1.90732e-05
2.00088e-05
2.09737e-05
2.19684e-05
2.29932e-05
2.40486e-05
2.51349e-05
2.62524e-05
2.74016e-05
2.85827e-05
2.97961e-05
3.10421e-05
3.23211e-05
3.36333e-05
3.49791e-05
3.63588e-05
3.77727e-05
3.92211e-05
4.07043e-05
4.22226e-05
4.37764e-05
4.53658e-05
4.69911e-05
4.86523e-05
5.03495e-05
5.20833e-05
5.38541e-05
5.5662e-05
5.75074e-05
5.93905e-05
6.13115e-05
6.32707e-05
6.52682e-05
6.73043e-05
6.93792e-05
7.14932e-05
7.36464e-05
7.58391e-05
7.80715e-05
8.03438e-05
8.26562e-05
8.50088e-05
8.7402e-05
8.98359e-05
9.23106e-05
9.48265e-05
9.73836e-05
9.99822e-05
0.000102622
0.000105304
0.000108028
0.000110795
0.000113603
0.000116454
0.000119348
0.000122284
0.000125264
0.000128287
0.000131353
0.000134462
0.000137615
0.000140812
0.000144052
0.000147336
0.000150665
0.000154038
0.000157455
0.000160916
0.000164422
0.000167973
0.000171568
0.000175208
0.000178893
0.000182623
0.000186398
0.000190218
0.000194083
0.000197993
0.000201948
0.000205949
0.000209994
0.000214085
0.000218221
0.000222403
0.000226629
0.000230901
0.000235218
0.00023958
0.000243987
0.000248439
0.000252936
0.000257477
0.000262064
0.000266694
0.00027137
0.000276089
0.000280853
0.000285661
0.000290512
0.000295407
0.000300346
0.000305327
0.000310352
0.000315419
0.000320529
0.000325681
0.000330875
0.000336111
0.000341388
0.000346705
0.000352064
0.000357462
0.000362901
0.000368379
0.000373896
0.000379451
0.000385045
0.000390676
0.000396345
0.00040205
0.000407792
0.000413569
0.000419382
0.000425229
0.000431111
0.000437027
0.000442977
0.000448961
0.000454981
0.000461037
0.000467132
0.00047327
0.000479456
0.000485698
0.000492006
0.000498395
0.000504884
0.000511498
0.000518265
0.00052522
0.000532403
0.000539849
0.000547593
0.000555647
0.000563991
0.000572542
0.000581119
0.00058939
0.000596809
0.00060389
0.000610996
0.000618125
0.000625276
0.000632449
0.000639641
0.000646852
0.00065408
0.000661325
0.000668585
0.000675859
0.000683145
0.000690443
0.000697751
0.000705067
0.000712391
0.000719721
0.000727056
0.000734395
0.000741735
0.000749076
0.000756416
0.000763754
0.000771088
0.000778417
0.000785738
0.000793051
0.000800354
0.000807645
0.000814921
0.000822182
0.000829425
0.000836648
0.000843848
0.000851024
0.000858172
0.00086529
0.000872375
0.000879423
0.000886431
0.000893395
0.00090031
0.000907172
0.000913976
0.000920716
0.000927385
0.000933977
0.000940484
0.000946898
0.000953209
0.000959407
0.000965481
0.000971418
0.000977206
0.000982828
0.000988271
0.000993515
0.000998543
0.00100334
0.00100787
0.00101212
0.00101607
0.00101969
0.00102296
0.00102584
0.00102831
0.00103035
0.00103191
0.00103299
0.00103354
0.00103354
0.00103299
0.00103191
0.00103035
0.00102831
0.00102584
0.00102296
0.00101969
0.00101607
0.00101212
0.00100787
0.00100334
0.000998543
0.000993515
0.000988271
0.000982828
0.000977206
0.000971418
0.000965481
0.000959407
0.000953209
0.000946898
0.000940484
0.000933977
0.000927385
0.000920716
0.000913976
0.000907172
0.00090031
0.000893395
0.000886431
0.000879423
0.000872375
0.00086529
0.000858172
0.000851024
0.000843848
0.000836648
0.000829425
0.000822182
0.000814921
0.000807645
0.000800354
0.000793051
0.000785738
0.000778417
0.000771088
0.000763754
0.000756416
0.000749076
0.000741735
0.000734395
0.000727056
0.000719721
0.000712391
0.000705067
0.000697751
0.000690443
0.000683145
0.000675859
0.000668585
0.000661325
0.00065408
0.000646852
0.000639641
0.000632449
0.000625276
0.000618125
0.000610996
0.00060389
0.000596809
0.00058939
0.000581119
0.000572542
0.000563991
0.000555647
0.000547593
0.000539849
0.000532403
0.00052522
0.000518265
0.000511498
0.000504884
0.000498395
0.000492006
0.000485698
0.000479456
0.00047327
0.000467132
0.000461037
0.000454981
0.000448961
0.000442977
0.000437027
0.000431111
0.000425229
0.000419382
0.000413569
0.000407792
0.00040205
0.000396345
0.000390676
0.000385045
0.000379451
0.000373896
0.000368379
0.000362901
0.000357462
0.000352064
0.000346705
0.000341388
0.000336111
0.000330875
0.000325681
0.000320529
0.000315419
0.000310352
0.000305327
0.000300346
0.000295407
0.000290512
0.000285661
0.000280853
0.000276089
0.00027137
0.000266694
0.000262064
0.000257477
0.000252936
0.000248439
0.000243987
0.00023958
0.000235218
0.000230901
0.000226629
0.000222403
0.000218221
0.000214085
0.000209994
0.000205949
0.000201948
0.000197993
0.000194083
0.000190218
0.000186398
0.000182623
0.000178893
0.000175208
0.000171568
0.000167973
0.000164422
0.000160916
0.000157455
0.000154038
0.000150665
0.000147336
0.000144052
0.000140812
0.000137615
0.000134462
0.000131353
0.000128287
0.000125264
0.000122284
0.000119348
0.000116454
0.000113603
0.000110795
0.000108028
0.000105304
0.000102622
9.99822e-05
9.73836e-05
9.48265e-05
9.23106e-05
8.98359e-05
8.7402e-05
8.50088e-05
8.26562e-05
8.03438e-05
7.80715e-05
7.58391e-05
7.36464e-05
7.14932e-05
6.93792e-05
6.73043e-05
6.52682e-05
6.32707e-05
6.13115e-05
5.93905e-05
5.75074e-05
5.5662e-05
5.38541e-05
5.20833e-05
5.03495e-05
4.86523e-05
4.69911e-05
4.53658e-05
4.37764e-05
4.22226e-05
4.07043e-05
3.92211e-05
3.77727e-05
3.63588e-05
3.49791e-05
3.36333e-05
3.23211e-05
3.10421e-05
2.97961e-05
2.85827e-05
2.74016e-05
2.62524e-05
2.51349e-05
2.40486e-05
2.29932e-05
2.19684e-05
2.09737e-05
2.00088e-05
1.90732e-05
1.81661e-05
1.72844e-05
1.6411e-05
1.55101e-05
1.46362e-05
1.37896e-05
1.29703e-05
1.21785e-05
1.14143e-05
1.06779e-05
9.9694e-06
9.28884e-06
8.63628e-06
8.01178e-06
7.41532e-06
6.84686e-06
6.30632e-06
5.79357e-06
5.30839e-06
4.85055e-06
4.41969e-06
4.01543e-06
3.63728e-06
3.28468e-06
2.95699e-06
2.65348e-06
2.37336e-06
2.11576e-06
1.87975e-06
1.66432e-06
1.46844e-06
1.29103e-06
1.13097e-06
9.87146e-07
8.5843e-07
7.43698e-07
6.41849e-07
5.51804e-07
4.72524e-07
4.03011e-07
3.42314e-07
2.89539e-07
2.43846e-07
2.04455e-07
1.70644e-07
1.41751e-07
1.17172e-07
9.63609e-08
7.8823e-08
6.41162e-08
5.18466e-08
4.16644e-08
3.32616e-08
2.63675e-08
2.07461e-08
1.61925e-08
1.25295e-08
9.60496e-09
7.28872e-09
5.47021e-09
4.05599e-09
2.96756e-09
2.1394e-09
1.51722e-09
1.05635e-09
7.20333e-10
4.79717e-10
3.10912e-10
1.95254e-10
1.18166e-10
6.8432e-11
3.75739e-11
1.93183e-11
9.14099e-12
3.88235e-12
1.42491e-12
4.25047e-13
9.25377e-14
1.19098e-14
5.63719e-16
3.20875e-18
)
;

boundaryField
{
    bottomWall
    {
        type            nutUWallFunction;
        Cmu             0.09;
        kappa           0.41;
        E               9.8;
        value           uniform 0;
    }
    topWall
    {
        type            nutUWallFunction;
        Cmu             0.09;
        kappa           0.41;
        E               9.8;
        value           uniform 0;
    }
    sides1_half0
    {
        type            empty;
    }
    sides1_half1
    {
        type            empty;
    }
    sides2_half0
    {
        type            empty;
    }
    sides2_half1
    {
        type            empty;
    }
    inout1_half0
    {
        type            cyclic;
    }
    inout1_half1
    {
        type            cyclic;
    }
    inout2_half0
    {
        type            cyclic;
    }
    inout2_half1
    {
        type            cyclic;
    }
}


// ************************************************************************* //
