/*--------------------------------*- C++ -*----------------------------------*\
  =========                 |
  \\      /  F ield         | OpenFOAM: The Open Source CFD Toolbox
   \\    /   O peration     | Website:  https://openfoam.org
    \\  /    A nd           | Version:  7
     \\/     M anipulation  |
\*---------------------------------------------------------------------------*/
FoamFile
{
    version     2.0;
    format      ascii;
    class       volScalarField;
    location    "96500";
    object      omega;
}
// * * * * * * * * * * * * * * * * * * * * * * * * * * * * * * * * * * * * * //

dimensions      [0 0 -1 0 0 0 0];

internalField   nonuniform List<scalar> 
600
(
268606
45904.1
15419.8
7232.62
4084.63
2587.06
1769.24
1277.8
961.116
745.932
593.51
481.874
397.838
333.114
282.289
241.711
208.844
181.887
159.53
140.806
124.986
111.514
99.9603
89.9876
81.3292
73.7717
67.1429
61.3026
56.1359
51.5476
47.4587
43.8029
40.5246
37.5765
34.9184
32.5159
30.3395
28.3636
26.5661
24.9278
23.4318
22.0634
20.8095
19.6588
18.601
17.6271
16.7291
15.8998
15.1327
14.4221
13.7627
13.15
12.5797
12.0479
11.5513
11.0868
10.6515
10.2429
9.85868
9.49682
9.15543
8.83282
8.52745
8.23795
7.96309
7.70175
7.45291
7.21567
6.98921
6.77279
6.56574
6.36747
6.17742
5.9951
5.82007
5.65192
5.49026
5.33478
5.18514
5.04099
4.90196
4.76775
4.63811
4.51281
4.39164
4.27442
4.16096
4.0511
3.94469
3.84159
3.74166
3.64478
3.55083
3.45971
3.37131
3.28554
3.2023
3.12151
3.04308
2.96694
2.893
2.82121
2.75147
2.68374
2.61795
2.55403
2.49193
2.43159
2.37295
2.31596
2.26057
2.20674
2.1544
2.10352
2.05405
2.00595
1.95917
1.91368
1.86944
1.8264
1.78453
1.7438
1.70416
1.6656
1.62807
1.59154
1.55598
1.52137
1.48767
1.45486
1.42291
1.39179
1.36148
1.33196
1.30319
1.27517
1.24786
1.22125
1.19531
1.17003
1.14538
1.12135
1.09791
1.07506
1.05277
1.03103
1.00982
0.989128
0.968936
0.949231
0.929998
0.911224
0.892897
0.875004
0.857532
0.840469
0.823804
0.807526
0.791623
0.776087
0.760905
0.746069
0.731569
0.717396
0.703541
0.689995
0.676749
0.663796
0.651128
0.638737
0.626616
0.614757
0.603154
0.591799
0.580687
0.56981
0.559162
0.548739
0.538532
0.528538
0.518751
0.509164
0.499773
0.490573
0.481559
0.472727
0.464071
0.455586
0.44727
0.439117
0.431123
0.423284
0.415596
0.408055
0.400659
0.393402
0.386281
0.379294
0.372436
0.365704
0.359095
0.352606
0.346234
0.339976
0.333829
0.327789
0.321855
0.316024
0.310292
0.304658
0.299118
0.293671
0.288313
0.283044
0.27786
0.272759
0.267741
0.262802
0.257943
0.253161
0.248457
0.24383
0.23928
0.234808
0.230414
0.226099
0.221864
0.217707
0.213628
0.20962
0.205679
0.201802
0.197988
0.194235
0.190543
0.186909
0.183334
0.179815
0.176351
0.172943
0.169587
0.166284
0.163033
0.159833
0.156682
0.153581
0.150527
0.147522
0.144563
0.14165
0.138783
0.135962
0.133184
0.130451
0.127762
0.125115
0.122512
0.119952
0.117434
0.114958
0.112525
0.110134
0.107785
0.105478
0.103213
0.100991
0.0988122
0.0966759
0.094583
0.0925339
0.0905291
0.0885692
0.0866548
0.0847866
0.0829653
0.081192
0.0794674
0.0777926
0.0761688
0.074597
0.0730787
0.0716151
0.0702077
0.0688581
0.067568
0.066339
0.0651732
0.0640725
0.0630391
0.0620751
0.0611831
0.0603655
0.0596251
0.0589647
0.0583876
0.0578969
0.0574962
0.0571893
0.0569802
0.0568733
0.0568733
0.0569802
0.0571893
0.0574962
0.0578969
0.0583876
0.0589647
0.0596251
0.0603655
0.0611831
0.0620751
0.0630391
0.0640725
0.0651732
0.066339
0.067568
0.0688581
0.0702077
0.0716151
0.0730787
0.074597
0.0761688
0.0777926
0.0794674
0.081192
0.0829653
0.0847866
0.0866548
0.0885692
0.0905291
0.0925339
0.094583
0.0966759
0.0988122
0.100991
0.103213
0.105478
0.107785
0.110134
0.112525
0.114958
0.117434
0.119952
0.122512
0.125115
0.127762
0.130451
0.133184
0.135962
0.138783
0.14165
0.144563
0.147522
0.150527
0.153581
0.156682
0.159833
0.163033
0.166284
0.169587
0.172943
0.176351
0.179815
0.183334
0.186909
0.190543
0.194235
0.197988
0.201802
0.205679
0.20962
0.213628
0.217707
0.221864
0.226099
0.230414
0.234808
0.23928
0.24383
0.248457
0.253161
0.257943
0.262802
0.267741
0.272759
0.27786
0.283044
0.288313
0.293671
0.299118
0.304658
0.310292
0.316024
0.321855
0.327789
0.333829
0.339976
0.346234
0.352606
0.359095
0.365704
0.372436
0.379294
0.386281
0.393402
0.400659
0.408055
0.415596
0.423284
0.431123
0.439117
0.44727
0.455586
0.464071
0.472727
0.481559
0.490573
0.499773
0.509164
0.518751
0.528538
0.538532
0.548739
0.559162
0.56981
0.580687
0.591799
0.603154
0.614757
0.626616
0.638737
0.651128
0.663796
0.676749
0.689995
0.703541
0.717396
0.731569
0.746069
0.760905
0.776087
0.791623
0.807526
0.823804
0.840469
0.857532
0.875004
0.892897
0.911224
0.929998
0.949231
0.968936
0.989128
1.00982
1.03103
1.05277
1.07506
1.09791
1.12135
1.14538
1.17003
1.19531
1.22125
1.24786
1.27517
1.30319
1.33196
1.36148
1.39179
1.42291
1.45486
1.48767
1.52137
1.55598
1.59154
1.62807
1.6656
1.70416
1.7438
1.78453
1.8264
1.86944
1.91368
1.95917
2.00595
2.05405
2.10352
2.1544
2.20674
2.26057
2.31596
2.37295
2.43159
2.49193
2.55403
2.61795
2.68374
2.75147
2.82121
2.893
2.96694
3.04308
3.12151
3.2023
3.28554
3.37131
3.45971
3.55083
3.64478
3.74166
3.84159
3.94469
4.0511
4.16096
4.27442
4.39164
4.51281
4.63811
4.76775
4.90196
5.04099
5.18514
5.33478
5.49026
5.65192
5.82007
5.9951
6.17742
6.36747
6.56574
6.77279
6.98921
7.21567
7.45291
7.70175
7.96309
8.23795
8.52745
8.83281
9.15543
9.49682
9.85868
10.2429
10.6515
11.0868
11.5513
12.0479
12.5797
13.15
13.7627
14.4221
15.1327
15.8998
16.7291
17.6271
18.601
19.6588
20.8095
22.0634
23.4318
24.9278
26.5661
28.3636
30.3395
32.5159
34.9184
37.5765
40.5246
43.8029
47.4587
51.5476
56.1359
61.3026
67.1429
73.7717
81.3292
89.9876
99.9603
111.514
124.986
140.806
159.53
181.887
208.844
241.711
282.289
333.114
397.837
481.874
593.51
745.933
961.115
1277.8
1769.24
2587.06
4084.63
7232.63
15419.8
45904.1
268606
)
;

boundaryField
{
    bottomWall
    {
        beta1           0.075;
        blended         0;
        type            omegaWallFunction;
        value           uniform 268606;
    }
    topWall
    {
        beta1           0.075;
        blended         0;
        type            omegaWallFunction;
        value           uniform 268606;
    }
    sides1_half0
    {
        type            empty;
    }
    sides1_half1
    {
        type            empty;
    }
    sides2_half0
    {
        type            empty;
    }
    sides2_half1
    {
        type            empty;
    }
    inout1_half0
    {
        type            cyclic;
    }
    inout1_half1
    {
        type            cyclic;
    }
    inout2_half0
    {
        type            cyclic;
    }
    inout2_half1
    {
        type            cyclic;
    }
}


// ************************************************************************* //
