/*--------------------------------*- C++ -*----------------------------------*\
  =========                 |
  \\      /  F ield         | OpenFOAM: The Open Source CFD Toolbox
   \\    /   O peration     | Website:  https://openfoam.org
    \\  /    A nd           | Version:  7
     \\/     M anipulation  |
\*---------------------------------------------------------------------------*/
FoamFile
{
    version     2.0;
    format      ascii;
    class       surfaceScalarField;
    location    "96500";
    object      phi;
}
// * * * * * * * * * * * * * * * * * * * * * * * * * * * * * * * * * * * * * //

dimensions      [0 3 -1 0 0 0 0];

internalField   nonuniform List<scalar> 
599
(
-3.0429e-16
-2.53309e-16
-2.39898e-16
-2.16466e-16
-2.24949e-16
-2.26637e-16
-2.10801e-16
-2.40533e-16
-2.01272e-16
-2.1381e-16
-2.39718e-16
-2.21091e-16
-2.24581e-16
-2.0968e-16
-2.37659e-16
-2.34072e-16
-2.21654e-16
-1.88886e-16
-1.99865e-16
-2.1027e-16
-2.19843e-16
-1.93768e-16
-2.27076e-16
-2.06387e-16
-2.31427e-16
-2.34543e-16
-2.05275e-16
-1.81712e-16
-2.33348e-16
-1.97115e-16
-2.04456e-16
-2.51707e-16
-1.72671e-16
-1.95302e-16
-9.74185e-17
-6.71049e-17
-3.20263e-17
1.45882e-17
3.91404e-17
8.78621e-17
7.37566e-17
8.58091e-17
1.10698e-16
1.32617e-16
1.39675e-16
1.18208e-16
8.73798e-17
1.00427e-16
7.11359e-17
1.52461e-16
1.47056e-16
1.64303e-16
1.75991e-16
1.09567e-16
1.35418e-16
1.56683e-16
1.1292e-16
1.40445e-16
8.85596e-17
2.96677e-17
-3.1376e-17
-1.81331e-17
-7.24126e-17
-1.0796e-16
-1.58519e-16
-1.2121e-16
-5.44814e-17
-3.04397e-17
-1.3763e-17
3.87651e-17
4.22527e-17
1.17832e-16
9.25739e-17
3.51287e-17
8.09455e-17
1.47596e-16
1.15448e-16
1.34089e-16
1.03326e-16
1.29532e-16
7.64464e-17
2.56051e-17
9.67634e-17
7.03487e-17
-1.1662e-17
-3.02971e-17
-1.21429e-17
-1.79063e-17
2.36616e-17
4.70088e-17
3.22859e-17
6.67788e-17
7.74277e-17
5.97935e-17
4.2564e-17
4.73084e-17
9.51105e-17
5.94534e-17
8.15801e-17
1.40481e-17
3.49778e-17
4.48636e-17
4.6824e-17
5.0126e-17
3.27046e-17
3.71195e-17
7.52395e-18
5.1175e-17
6.27905e-17
7.60579e-17
1.2075e-16
1.10095e-16
1.20264e-16
6.67156e-17
7.16395e-17
9.80135e-17
1.18112e-16
8.63791e-17
7.35461e-17
8.36102e-17
9.71572e-17
8.23366e-17
1.0226e-16
1.34743e-16
1.43653e-16
1.0729e-16
1.20648e-16
1.14627e-16
8.43081e-17
9.46647e-17
1.14963e-16
1.32068e-16
1.32058e-16
1.387e-16
1.353e-16
1.13588e-16
6.22221e-17
9.24995e-17
8.82308e-17
8.50455e-17
9.55265e-17
1.39426e-16
1.24315e-16
1.32378e-16
1.08532e-16
1.04789e-16
1.02324e-16
1.01649e-16
6.56961e-17
1.21794e-16
1.15763e-16
1.31885e-16
1.60283e-16
1.73344e-16
1.42485e-16
1.28414e-16
1.37398e-16
9.92765e-17
1.42331e-16
1.95628e-16
2.09704e-16
2.56573e-16
2.4436e-16
2.60836e-16
2.38484e-16
2.21925e-16
2.60628e-16
2.32814e-16
2.32723e-16
1.92262e-16
1.86933e-16
1.98977e-16
2.37478e-16
2.45101e-16
2.628e-16
2.36576e-16
2.50979e-16
2.42214e-16
2.82174e-16
2.71945e-16
3.03396e-16
2.51352e-16
2.39673e-16
2.18676e-16
1.84181e-16
2.172e-16
1.76937e-16
1.5719e-16
1.65246e-16
1.65723e-16
1.57879e-16
1.69578e-16
1.71355e-16
1.69014e-16
1.65398e-16
1.71842e-16
1.92401e-16
1.62525e-16
1.71971e-16
1.95746e-16
1.20823e-16
1.33132e-16
1.06718e-16
1.39665e-16
1.3947e-16
1.61117e-16
1.41325e-16
1.89159e-16
1.86366e-16
1.42733e-16
1.28548e-16
1.263e-16
6.76919e-17
2.68078e-17
2.9793e-18
1.24365e-17
5.14017e-17
1.61919e-18
-6.00717e-18
-2.44224e-17
-3.36559e-17
-3.67303e-17
-6.33201e-17
-9.91198e-17
-8.33495e-17
-9.7143e-17
-9.6302e-17
-6.26939e-17
-7.14468e-17
-6.13395e-17
-1.02213e-16
-1.08645e-16
-1.21137e-16
-9.17331e-17
-1.04493e-16
-1.33427e-16
-1.05027e-16
-8.61516e-17
-1.05532e-16
-1.20381e-16
-1.40284e-16
-1.59532e-16
-1.59738e-16
-1.68137e-16
-1.75e-16
-1.90606e-16
-2.21094e-16
-2.35407e-16
-2.31238e-16
-2.17129e-16
-1.89001e-16
-2.14437e-16
-2.12952e-16
-2.02113e-16
-1.6433e-16
-1.75139e-16
-1.96133e-16
-2.01126e-16
-2.2791e-16
-1.97957e-16
-2.43864e-16
-2.33588e-16
-2.42727e-16
-2.77198e-16
-2.55795e-16
-2.53471e-16
-2.50301e-16
-2.27511e-16
-1.95743e-16
-1.74363e-16
-2.33174e-16
-2.45763e-16
-2.8169e-16
-2.39308e-16
-2.97333e-16
-3.07376e-16
-2.95541e-16
-2.90438e-16
-2.98285e-16
-3.15253e-16
-3.22346e-16
-3.04988e-16
-2.96392e-16
-2.76821e-16
-2.99074e-16
-2.61517e-16
-2.86011e-16
-2.36054e-16
-2.60429e-16
-2.69483e-16
-2.82754e-16
-2.7033e-16
-2.34292e-16
-2.28539e-16
-2.12331e-16
-2.25986e-16
-1.6419e-16
-1.95194e-16
-1.92999e-16
-1.82431e-16
-1.86842e-16
-1.77371e-16
-1.53968e-16
-1.56663e-16
-1.63623e-16
-1.70281e-16
-1.90016e-16
-1.52831e-16
-2.02545e-16
-1.7247e-16
-2.11156e-16
-2.65706e-16
-2.41406e-16
-2.32255e-16
-2.50967e-16
-2.70332e-16
-2.66665e-16
-2.41767e-16
-2.04949e-16
-2.40117e-16
-2.21038e-16
-2.34963e-16
-2.05668e-16
-1.97899e-16
-2.4412e-16
-2.34054e-16
-1.89149e-16
-1.70978e-16
-1.7055e-16
-1.80846e-16
-1.59961e-16
-1.67452e-16
-1.64325e-16
-1.59954e-16
-2.02467e-16
-1.71143e-16
-1.95357e-16
-1.88042e-16
-2.1657e-16
-2.51762e-16
-2.12908e-16
-2.22056e-16
-2.148e-16
-1.92183e-16
-2.04374e-16
-2.13089e-16
-2.51372e-16
-2.43877e-16
-2.22339e-16
-2.15269e-16
-2.33439e-16
-2.41598e-16
-2.29069e-16
-2.04377e-16
-1.67486e-16
-1.77835e-16
-1.9602e-16
-2.361e-16
-2.38288e-16
-2.03304e-16
-2.21465e-16
-2.00807e-16
-1.92711e-16
-2.06064e-16
-2.27398e-16
-1.97754e-16
-2.30936e-16
-2.10451e-16
-2.02257e-16
-1.58109e-16
-1.72164e-16
-1.59956e-16
-1.70814e-16
-1.3731e-16
-1.88769e-16
-1.75798e-16
-1.45821e-16
-1.76547e-16
-1.47415e-16
-1.96988e-16
-2.22226e-16
-2.21399e-16
-2.21998e-16
-1.84059e-16
-1.61794e-16
-1.35105e-16
-1.63364e-16
-1.1362e-16
-9.1168e-17
-1.01479e-16
-1.08643e-16
-1.50323e-16
-1.55982e-16
-1.20984e-16
-1.38006e-16
-1.31593e-16
-1.57991e-16
-1.33727e-16
-1.07749e-16
-1.3442e-16
-1.19405e-16
-1.1836e-16
-1.39931e-16
-1.24756e-16
-9.98e-17
-8.12078e-17
-8.54012e-17
-1.15719e-16
-9.63784e-17
-5.94709e-17
-7.17214e-17
-7.14119e-17
-4.04561e-17
-3.52452e-17
-2.70009e-18
-1.10817e-17
-3.8003e-17
-6.3522e-17
-4.41325e-17
-4.4011e-17
-4.63925e-17
-2.15252e-17
-5.30102e-18
-2.36838e-17
-3.68501e-17
-4.01745e-17
-7.19373e-17
-7.20245e-17
-8.78923e-17
-7.47994e-17
-8.52816e-17
-1.00277e-16
-9.38691e-17
-7.62473e-17
-9.04735e-17
-6.10064e-17
-5.43707e-17
-7.35834e-17
-6.29313e-17
-4.64984e-17
-4.2788e-17
-3.47601e-17
1.68405e-17
2.06264e-17
5.02405e-17
7.65541e-17
2.25504e-17
3.12634e-17
2.47452e-17
-2.24933e-17
7.71386e-18
-3.12025e-17
8.72116e-19
4.69354e-18
6.73746e-19
-7.46023e-18
1.00872e-17
-1.59069e-17
1.13156e-17
3.34269e-18
5.05626e-17
4.76874e-17
3.94194e-17
6.95023e-18
-1.27186e-17
-3.68671e-17
-2.3828e-17
-3.85624e-17
-5.14086e-17
-2.46608e-17
-4.44706e-17
-1.00392e-16
-8.11295e-17
-8.47069e-17
-8.0424e-17
-1.09464e-16
-4.79287e-17
-1.0236e-16
-1.07222e-16
-7.76006e-17
-7.91201e-17
-1.19768e-16
-8.59386e-17
-1.3599e-16
-1.28848e-16
-1.24962e-16
-7.71762e-17
-1.11582e-16
-5.47939e-17
-1.16179e-16
-1.15137e-16
-1.15103e-16
-8.46714e-17
-7.33832e-17
-3.33975e-17
-1.03637e-16
-7.94213e-17
-6.00668e-17
-6.01854e-17
-8.91977e-17
-1.06316e-16
-9.8218e-17
-8.22789e-17
-7.24686e-17
-1.09311e-16
-7.66562e-17
-7.8408e-17
-5.93161e-17
-2.11834e-18
-4.34225e-17
-9.70206e-18
8.27847e-18
4.03325e-17
-8.78185e-18
-4.23786e-17
-3.18825e-17
8.17227e-18
2.84533e-17
6.53608e-17
9.66812e-17
1.32272e-16
1.19316e-16
1.64394e-16
1.4418e-16
1.84997e-16
8.7412e-17
1.24302e-16
8.95038e-17
6.76477e-17
8.05237e-17
7.61096e-17
6.9736e-17
2.53683e-17
-6.347e-18
5.53122e-17
1.18354e-17
-1.35342e-17
3.4456e-17
5.38131e-17
2.69005e-17
3.89605e-17
-3.38885e-17
7.97667e-17
2.26288e-17
1.65494e-17
1.03062e-16
1.33042e-16
1.37426e-16
6.39714e-17
8.97486e-17
1.52424e-16
1.79208e-16
1.72907e-16
1.23719e-16
5.8987e-17
5.44365e-17
9.55651e-17
3.75552e-17
6.16822e-17
8.05213e-17
2.93901e-17
4.41789e-17
1.2411e-18
-6.58726e-17
-1.073e-16
-7.57012e-17
-3.39344e-18
-2.43654e-17
-5.48417e-17
-1.13541e-16
-1.3632e-16
-1.29892e-16
-1.43455e-16
-1.43601e-16
-1.53265e-16
-1.0553e-16
-1.4613e-16
-8.4906e-17
-1.25916e-16
-1.56204e-16
-1.24491e-16
-1.33678e-16
-1.18131e-16
-6.39036e-17
-4.51428e-17
-4.53322e-17
-7.4267e-17
-6.90843e-17
-7.32831e-17
-8.06725e-17
-3.32788e-17
-1.10382e-17
-1.72299e-17
1.72134e-18
-1.34498e-17
8.22815e-18
-1.4625e-17
-4.06773e-18
3.17517e-18
)
;

boundaryField
{
    bottomWall
    {
        type            calculated;
        value           uniform 0;
    }
    topWall
    {
        type            calculated;
        value           uniform 0;
    }
    sides1_half0
    {
        type            empty;
        value           nonuniform 0();
    }
    sides1_half1
    {
        type            empty;
        value           nonuniform 0();
    }
    sides2_half0
    {
        type            empty;
        value           nonuniform 0();
    }
    sides2_half1
    {
        type            empty;
        value           nonuniform 0();
    }
    inout1_half0
    {
        type            cyclic;
        value           nonuniform List<scalar> 
300
(
7.13253e-09
2.18399e-08
3.72297e-08
5.33269e-08
7.01567e-08
8.77457e-08
1.06121e-07
1.25311e-07
1.45344e-07
1.66251e-07
1.88062e-07
2.1081e-07
2.34527e-07
2.59249e-07
2.85009e-07
3.11844e-07
3.39792e-07
3.68891e-07
3.99182e-07
4.30706e-07
4.63504e-07
4.97621e-07
5.33102e-07
5.69992e-07
6.0834e-07
6.48194e-07
6.89605e-07
7.32623e-07
7.77302e-07
8.23695e-07
8.71856e-07
9.21843e-07
9.73711e-07
1.02752e-06
1.08332e-06
1.14118e-06
1.20116e-06
1.26331e-06
1.32769e-06
1.39436e-06
1.46338e-06
1.5348e-06
1.60868e-06
1.68507e-06
1.76402e-06
1.84558e-06
1.92979e-06
2.01669e-06
2.10633e-06
2.19873e-06
2.29393e-06
2.39195e-06
2.49282e-06
2.59654e-06
2.70315e-06
2.81264e-06
2.92503e-06
3.04032e-06
3.15852e-06
3.27962e-06
3.40362e-06
3.53053e-06
3.66035e-06
3.79306e-06
3.92869e-06
4.06721e-06
4.20865e-06
4.35299e-06
4.50026e-06
4.65046e-06
4.80361e-06
4.95971e-06
5.11879e-06
5.28087e-06
5.44598e-06
5.61414e-06
5.78539e-06
5.95975e-06
6.13727e-06
6.31805e-06
6.50221e-06
6.68982e-06
6.88092e-06
7.07556e-06
7.27377e-06
7.47561e-06
7.68112e-06
7.89035e-06
8.10335e-06
8.32017e-06
8.54087e-06
8.7655e-06
8.99412e-06
9.2268e-06
9.46358e-06
9.70455e-06
9.94975e-06
1.01993e-05
1.04532e-05
1.07115e-05
1.09744e-05
1.12419e-05
1.1514e-05
1.17909e-05
1.20727e-05
1.23593e-05
1.2651e-05
1.29478e-05
1.32497e-05
1.3557e-05
1.38696e-05
1.41876e-05
1.45113e-05
1.48406e-05
1.51756e-05
1.55165e-05
1.58634e-05
1.62164e-05
1.65755e-05
1.69409e-05
1.73128e-05
1.76912e-05
1.80762e-05
1.8468e-05
1.88667e-05
1.92724e-05
1.96852e-05
2.01054e-05
2.05329e-05
2.09679e-05
2.14107e-05
2.18612e-05
2.23197e-05
2.27863e-05
2.32612e-05
2.37445e-05
2.42363e-05
2.47368e-05
2.52461e-05
2.57645e-05
2.62921e-05
2.68291e-05
2.73756e-05
2.79317e-05
2.84978e-05
2.90738e-05
2.96602e-05
3.02569e-05
3.08642e-05
3.14824e-05
3.21115e-05
3.27518e-05
3.34035e-05
3.40668e-05
3.47419e-05
3.5429e-05
3.61284e-05
3.68402e-05
3.75647e-05
3.83021e-05
3.90526e-05
3.98165e-05
4.0594e-05
4.13853e-05
4.21907e-05
4.30105e-05
4.38449e-05
4.46942e-05
4.55586e-05
4.64384e-05
4.73339e-05
4.82454e-05
4.9173e-05
5.01172e-05
5.10783e-05
5.20564e-05
5.3052e-05
5.40653e-05
5.50967e-05
5.61464e-05
5.72149e-05
5.83023e-05
5.94091e-05
6.05356e-05
6.16822e-05
6.28491e-05
6.40368e-05
6.52457e-05
6.6476e-05
6.77282e-05
6.90027e-05
7.02998e-05
7.16199e-05
7.29635e-05
7.43309e-05
7.57226e-05
7.7139e-05
7.85805e-05
8.00476e-05
8.15407e-05
8.30602e-05
8.46066e-05
8.61804e-05
8.77821e-05
8.9412e-05
9.10708e-05
9.27589e-05
9.44768e-05
9.6225e-05
9.8004e-05
9.98144e-05
0.000101657
0.000103531
0.000105439
0.00010738
0.000109355
0.000111365
0.00011341
0.00011549
0.000117607
0.00011976
0.000121951
0.000124179
0.000126446
0.000128751
0.000131095
0.000133478
0.000135902
0.000138367
0.000140874
0.000143423
0.000146016
0.000148654
0.000151337
0.000154066
0.000156841
0.000159663
0.000162534
0.000165453
0.000168421
0.00017144
0.00017451
0.000177632
0.000180805
0.000184033
0.000187314
0.00019065
0.000194042
0.00019749
0.000200995
0.000204558
0.00020818
0.000211861
0.000215603
0.000219406
0.000223271
0.000227199
0.00023119
0.000235246
0.000239367
0.000243554
0.000247808
0.000252129
0.000256519
0.000260978
0.000265507
0.000270106
0.000274777
0.000279519
0.000284335
0.000289224
0.000294188
0.000299226
0.000304339
0.000309529
0.000314795
0.000320139
0.000325561
0.00033106
0.000336639
0.000342296
0.000348033
0.00035385
0.000359747
0.000365724
0.000371781
0.000377919
0.000384138
0.000390437
0.000396816
0.000403276
0.000409815
0.000416433
0.00042313
0.000429904
0.000436756
0.000443683
0.000450685
0.00045776
0.000464907
)
;
    }
    inout1_half1
    {
        type            cyclic;
        value           nonuniform List<scalar> 
300
(
-7.13253e-09
-2.18399e-08
-3.72297e-08
-5.33269e-08
-7.01567e-08
-8.77457e-08
-1.06121e-07
-1.25311e-07
-1.45344e-07
-1.66251e-07
-1.88062e-07
-2.1081e-07
-2.34527e-07
-2.59249e-07
-2.85009e-07
-3.11844e-07
-3.39792e-07
-3.68891e-07
-3.99182e-07
-4.30706e-07
-4.63504e-07
-4.97621e-07
-5.33102e-07
-5.69992e-07
-6.0834e-07
-6.48194e-07
-6.89605e-07
-7.32623e-07
-7.77302e-07
-8.23695e-07
-8.71856e-07
-9.21843e-07
-9.73711e-07
-1.02752e-06
-1.08332e-06
-1.14118e-06
-1.20116e-06
-1.26331e-06
-1.32769e-06
-1.39436e-06
-1.46338e-06
-1.5348e-06
-1.60868e-06
-1.68507e-06
-1.76402e-06
-1.84558e-06
-1.92979e-06
-2.01669e-06
-2.10633e-06
-2.19873e-06
-2.29393e-06
-2.39195e-06
-2.49282e-06
-2.59654e-06
-2.70315e-06
-2.81264e-06
-2.92503e-06
-3.04032e-06
-3.15852e-06
-3.27962e-06
-3.40362e-06
-3.53053e-06
-3.66035e-06
-3.79306e-06
-3.92869e-06
-4.06721e-06
-4.20865e-06
-4.35299e-06
-4.50026e-06
-4.65046e-06
-4.80361e-06
-4.95971e-06
-5.11879e-06
-5.28087e-06
-5.44598e-06
-5.61414e-06
-5.78539e-06
-5.95975e-06
-6.13727e-06
-6.31805e-06
-6.50221e-06
-6.68982e-06
-6.88092e-06
-7.07556e-06
-7.27377e-06
-7.47561e-06
-7.68112e-06
-7.89035e-06
-8.10335e-06
-8.32017e-06
-8.54087e-06
-8.7655e-06
-8.99412e-06
-9.2268e-06
-9.46358e-06
-9.70455e-06
-9.94975e-06
-1.01993e-05
-1.04532e-05
-1.07115e-05
-1.09744e-05
-1.12419e-05
-1.1514e-05
-1.17909e-05
-1.20727e-05
-1.23593e-05
-1.2651e-05
-1.29478e-05
-1.32497e-05
-1.3557e-05
-1.38696e-05
-1.41876e-05
-1.45113e-05
-1.48406e-05
-1.51756e-05
-1.55165e-05
-1.58634e-05
-1.62164e-05
-1.65755e-05
-1.69409e-05
-1.73128e-05
-1.76912e-05
-1.80762e-05
-1.8468e-05
-1.88667e-05
-1.92724e-05
-1.96852e-05
-2.01054e-05
-2.05329e-05
-2.09679e-05
-2.14107e-05
-2.18612e-05
-2.23197e-05
-2.27863e-05
-2.32612e-05
-2.37445e-05
-2.42363e-05
-2.47368e-05
-2.52461e-05
-2.57645e-05
-2.62921e-05
-2.68291e-05
-2.73756e-05
-2.79317e-05
-2.84978e-05
-2.90738e-05
-2.96602e-05
-3.02569e-05
-3.08642e-05
-3.14824e-05
-3.21115e-05
-3.27518e-05
-3.34035e-05
-3.40668e-05
-3.47419e-05
-3.5429e-05
-3.61284e-05
-3.68402e-05
-3.75647e-05
-3.83021e-05
-3.90526e-05
-3.98165e-05
-4.0594e-05
-4.13853e-05
-4.21907e-05
-4.30105e-05
-4.38449e-05
-4.46942e-05
-4.55586e-05
-4.64384e-05
-4.73339e-05
-4.82454e-05
-4.9173e-05
-5.01172e-05
-5.10783e-05
-5.20564e-05
-5.3052e-05
-5.40653e-05
-5.50967e-05
-5.61464e-05
-5.72149e-05
-5.83023e-05
-5.94091e-05
-6.05356e-05
-6.16822e-05
-6.28491e-05
-6.40368e-05
-6.52457e-05
-6.6476e-05
-6.77282e-05
-6.90027e-05
-7.02998e-05
-7.16199e-05
-7.29635e-05
-7.43309e-05
-7.57226e-05
-7.7139e-05
-7.85805e-05
-8.00476e-05
-8.15407e-05
-8.30602e-05
-8.46066e-05
-8.61804e-05
-8.77821e-05
-8.9412e-05
-9.10708e-05
-9.27589e-05
-9.44768e-05
-9.6225e-05
-9.8004e-05
-9.98144e-05
-0.000101657
-0.000103531
-0.000105439
-0.00010738
-0.000109355
-0.000111365
-0.00011341
-0.00011549
-0.000117607
-0.00011976
-0.000121951
-0.000124179
-0.000126446
-0.000128751
-0.000131095
-0.000133478
-0.000135902
-0.000138367
-0.000140874
-0.000143423
-0.000146016
-0.000148654
-0.000151337
-0.000154066
-0.000156841
-0.000159663
-0.000162534
-0.000165453
-0.000168421
-0.00017144
-0.00017451
-0.000177632
-0.000180805
-0.000184033
-0.000187314
-0.00019065
-0.000194042
-0.00019749
-0.000200995
-0.000204558
-0.00020818
-0.000211861
-0.000215603
-0.000219406
-0.000223271
-0.000227199
-0.00023119
-0.000235246
-0.000239367
-0.000243554
-0.000247808
-0.000252129
-0.000256519
-0.000260978
-0.000265507
-0.000270106
-0.000274777
-0.000279519
-0.000284335
-0.000289224
-0.000294188
-0.000299226
-0.000304339
-0.000309529
-0.000314795
-0.000320139
-0.000325561
-0.00033106
-0.000336639
-0.000342296
-0.000348033
-0.00035385
-0.000359747
-0.000365724
-0.000371781
-0.000377919
-0.000384138
-0.000390437
-0.000396816
-0.000403276
-0.000409815
-0.000416433
-0.00042313
-0.000429904
-0.000436756
-0.000443683
-0.000450685
-0.00045776
-0.000464907
)
;
    }
    inout2_half0
    {
        type            cyclic;
        value           nonuniform List<scalar> 
300
(
0.000464907
0.00045776
0.000450685
0.000443683
0.000436756
0.000429904
0.00042313
0.000416433
0.000409815
0.000403276
0.000396816
0.000390437
0.000384138
0.000377919
0.000371781
0.000365724
0.000359747
0.00035385
0.000348033
0.000342296
0.000336639
0.00033106
0.000325561
0.000320139
0.000314796
0.000309529
0.000304339
0.000299226
0.000294188
0.000289224
0.000284335
0.00027952
0.000274777
0.000270106
0.000265507
0.000260978
0.000256519
0.000252129
0.000247808
0.000243554
0.000239367
0.000235246
0.00023119
0.000227199
0.000223271
0.000219406
0.000215603
0.000211861
0.00020818
0.000204558
0.000200995
0.000197489
0.000194042
0.00019065
0.000187314
0.000184033
0.000180805
0.000177632
0.00017451
0.00017144
0.000168421
0.000165453
0.000162534
0.000159663
0.000156841
0.000154066
0.000151337
0.000148654
0.000146016
0.000143423
0.000140874
0.000138367
0.000135902
0.000133478
0.000131095
0.000128751
0.000126446
0.000124179
0.000121951
0.00011976
0.000117607
0.00011549
0.00011341
0.000111365
0.000109355
0.00010738
0.000105439
0.000103531
0.000101657
9.98144e-05
9.8004e-05
9.6225e-05
9.44768e-05
9.27589e-05
9.10708e-05
8.9412e-05
8.77821e-05
8.61804e-05
8.46067e-05
8.30602e-05
8.15407e-05
8.00476e-05
7.85806e-05
7.7139e-05
7.57226e-05
7.43309e-05
7.29635e-05
7.16199e-05
7.02997e-05
6.90027e-05
6.77282e-05
6.6476e-05
6.52457e-05
6.40368e-05
6.28491e-05
6.16822e-05
6.05356e-05
5.94091e-05
5.83023e-05
5.72149e-05
5.61464e-05
5.50967e-05
5.40653e-05
5.3052e-05
5.20565e-05
5.10783e-05
5.01173e-05
4.9173e-05
4.82453e-05
4.73339e-05
4.64384e-05
4.55586e-05
4.46942e-05
4.38449e-05
4.30105e-05
4.21907e-05
4.13853e-05
4.0594e-05
3.98165e-05
3.90526e-05
3.83021e-05
3.75647e-05
3.68402e-05
3.61284e-05
3.5429e-05
3.47419e-05
3.40668e-05
3.34035e-05
3.27518e-05
3.21115e-05
3.14824e-05
3.08642e-05
3.02569e-05
2.96602e-05
2.90738e-05
2.84977e-05
2.79317e-05
2.73756e-05
2.68291e-05
2.62921e-05
2.57646e-05
2.52461e-05
2.47368e-05
2.42363e-05
2.37445e-05
2.32612e-05
2.27863e-05
2.23197e-05
2.18612e-05
2.14107e-05
2.09679e-05
2.05329e-05
2.01054e-05
1.96852e-05
1.92724e-05
1.88667e-05
1.8468e-05
1.80762e-05
1.76912e-05
1.73128e-05
1.69409e-05
1.65755e-05
1.62163e-05
1.58634e-05
1.55165e-05
1.51756e-05
1.48406e-05
1.45113e-05
1.41877e-05
1.38696e-05
1.3557e-05
1.32497e-05
1.29478e-05
1.2651e-05
1.23593e-05
1.20727e-05
1.17909e-05
1.1514e-05
1.12419e-05
1.09744e-05
1.07115e-05
1.04532e-05
1.01993e-05
9.94976e-06
9.70454e-06
9.46359e-06
9.22679e-06
8.99413e-06
8.7655e-06
8.54087e-06
8.32018e-06
8.10335e-06
7.89036e-06
7.68112e-06
7.47562e-06
7.27377e-06
7.07556e-06
6.88092e-06
6.68982e-06
6.5022e-06
6.31805e-06
6.13727e-06
5.95975e-06
5.78539e-06
5.61414e-06
5.44598e-06
5.28088e-06
5.11879e-06
4.95971e-06
4.8036e-06
4.65046e-06
4.50026e-06
4.35299e-06
4.20865e-06
4.06721e-06
3.92868e-06
3.79306e-06
3.66034e-06
3.53053e-06
3.40363e-06
3.27961e-06
3.15852e-06
3.04032e-06
2.92503e-06
2.81264e-06
2.70315e-06
2.59654e-06
2.49282e-06
2.39195e-06
2.29393e-06
2.19873e-06
2.10633e-06
2.01669e-06
1.92979e-06
1.84558e-06
1.76402e-06
1.68507e-06
1.60868e-06
1.5348e-06
1.46338e-06
1.39436e-06
1.32769e-06
1.26331e-06
1.20116e-06
1.14118e-06
1.08333e-06
1.02752e-06
9.73713e-07
9.21844e-07
8.71854e-07
8.23695e-07
7.77301e-07
7.32624e-07
6.89607e-07
6.48194e-07
6.08338e-07
5.69994e-07
5.33101e-07
4.97622e-07
4.63503e-07
4.30708e-07
3.99182e-07
3.68891e-07
3.39791e-07
3.11845e-07
2.85007e-07
2.59249e-07
2.34528e-07
2.1081e-07
1.88062e-07
1.6625e-07
1.45344e-07
1.25311e-07
1.06121e-07
8.77457e-08
7.01568e-08
5.33266e-08
3.72298e-08
2.18399e-08
7.13252e-09
)
;
    }
    inout2_half1
    {
        type            cyclic;
        value           nonuniform List<scalar> 
300
(
-0.000464907
-0.00045776
-0.000450685
-0.000443683
-0.000436756
-0.000429904
-0.00042313
-0.000416433
-0.000409815
-0.000403276
-0.000396816
-0.000390437
-0.000384138
-0.000377919
-0.000371781
-0.000365724
-0.000359747
-0.00035385
-0.000348033
-0.000342296
-0.000336639
-0.00033106
-0.000325561
-0.000320139
-0.000314796
-0.000309529
-0.000304339
-0.000299226
-0.000294188
-0.000289224
-0.000284335
-0.00027952
-0.000274777
-0.000270106
-0.000265507
-0.000260978
-0.000256519
-0.000252129
-0.000247808
-0.000243554
-0.000239367
-0.000235246
-0.00023119
-0.000227199
-0.000223271
-0.000219406
-0.000215603
-0.000211861
-0.00020818
-0.000204558
-0.000200995
-0.000197489
-0.000194042
-0.00019065
-0.000187314
-0.000184033
-0.000180805
-0.000177632
-0.00017451
-0.00017144
-0.000168421
-0.000165453
-0.000162534
-0.000159663
-0.000156841
-0.000154066
-0.000151337
-0.000148654
-0.000146016
-0.000143423
-0.000140874
-0.000138367
-0.000135902
-0.000133478
-0.000131095
-0.000128751
-0.000126446
-0.000124179
-0.000121951
-0.00011976
-0.000117607
-0.00011549
-0.00011341
-0.000111365
-0.000109355
-0.00010738
-0.000105439
-0.000103531
-0.000101657
-9.98144e-05
-9.8004e-05
-9.6225e-05
-9.44768e-05
-9.27589e-05
-9.10708e-05
-8.9412e-05
-8.77821e-05
-8.61804e-05
-8.46067e-05
-8.30602e-05
-8.15407e-05
-8.00476e-05
-7.85806e-05
-7.7139e-05
-7.57226e-05
-7.43309e-05
-7.29635e-05
-7.16199e-05
-7.02997e-05
-6.90027e-05
-6.77282e-05
-6.6476e-05
-6.52457e-05
-6.40368e-05
-6.28491e-05
-6.16822e-05
-6.05356e-05
-5.94091e-05
-5.83023e-05
-5.72149e-05
-5.61464e-05
-5.50967e-05
-5.40653e-05
-5.3052e-05
-5.20565e-05
-5.10783e-05
-5.01173e-05
-4.9173e-05
-4.82453e-05
-4.73339e-05
-4.64384e-05
-4.55586e-05
-4.46942e-05
-4.38449e-05
-4.30105e-05
-4.21907e-05
-4.13853e-05
-4.0594e-05
-3.98165e-05
-3.90526e-05
-3.83021e-05
-3.75647e-05
-3.68402e-05
-3.61284e-05
-3.5429e-05
-3.47419e-05
-3.40668e-05
-3.34035e-05
-3.27518e-05
-3.21115e-05
-3.14824e-05
-3.08642e-05
-3.02569e-05
-2.96602e-05
-2.90738e-05
-2.84977e-05
-2.79317e-05
-2.73756e-05
-2.68291e-05
-2.62921e-05
-2.57646e-05
-2.52461e-05
-2.47368e-05
-2.42363e-05
-2.37445e-05
-2.32612e-05
-2.27863e-05
-2.23197e-05
-2.18612e-05
-2.14107e-05
-2.09679e-05
-2.05329e-05
-2.01054e-05
-1.96852e-05
-1.92724e-05
-1.88667e-05
-1.8468e-05
-1.80762e-05
-1.76912e-05
-1.73128e-05
-1.69409e-05
-1.65755e-05
-1.62163e-05
-1.58634e-05
-1.55165e-05
-1.51756e-05
-1.48406e-05
-1.45113e-05
-1.41877e-05
-1.38696e-05
-1.3557e-05
-1.32497e-05
-1.29478e-05
-1.2651e-05
-1.23593e-05
-1.20727e-05
-1.17909e-05
-1.1514e-05
-1.12419e-05
-1.09744e-05
-1.07115e-05
-1.04532e-05
-1.01993e-05
-9.94976e-06
-9.70454e-06
-9.46359e-06
-9.22679e-06
-8.99413e-06
-8.7655e-06
-8.54087e-06
-8.32018e-06
-8.10335e-06
-7.89036e-06
-7.68112e-06
-7.47562e-06
-7.27377e-06
-7.07556e-06
-6.88092e-06
-6.68982e-06
-6.5022e-06
-6.31805e-06
-6.13727e-06
-5.95975e-06
-5.78539e-06
-5.61414e-06
-5.44598e-06
-5.28088e-06
-5.11879e-06
-4.95971e-06
-4.8036e-06
-4.65046e-06
-4.50026e-06
-4.35299e-06
-4.20865e-06
-4.06721e-06
-3.92868e-06
-3.79306e-06
-3.66034e-06
-3.53053e-06
-3.40363e-06
-3.27961e-06
-3.15852e-06
-3.04032e-06
-2.92503e-06
-2.81264e-06
-2.70315e-06
-2.59654e-06
-2.49282e-06
-2.39195e-06
-2.29393e-06
-2.19873e-06
-2.10633e-06
-2.01669e-06
-1.92979e-06
-1.84558e-06
-1.76402e-06
-1.68507e-06
-1.60868e-06
-1.5348e-06
-1.46338e-06
-1.39436e-06
-1.32769e-06
-1.26331e-06
-1.20116e-06
-1.14118e-06
-1.08333e-06
-1.02752e-06
-9.73713e-07
-9.21844e-07
-8.71854e-07
-8.23695e-07
-7.77301e-07
-7.32624e-07
-6.89607e-07
-6.48194e-07
-6.08338e-07
-5.69994e-07
-5.33101e-07
-4.97622e-07
-4.63503e-07
-4.30708e-07
-3.99182e-07
-3.68891e-07
-3.39791e-07
-3.11845e-07
-2.85007e-07
-2.59249e-07
-2.34528e-07
-2.1081e-07
-1.88062e-07
-1.6625e-07
-1.45344e-07
-1.25311e-07
-1.06121e-07
-8.77457e-08
-7.01568e-08
-5.33266e-08
-3.72298e-08
-2.18399e-08
-7.13252e-09
)
;
    }
}


// ************************************************************************* //
