/*--------------------------------*- C++ -*----------------------------------*\
  =========                 |
  \\      /  F ield         | OpenFOAM: The Open Source CFD Toolbox
   \\    /   O peration     | Website:  https://openfoam.org
    \\  /    A nd           | Version:  7
     \\/     M anipulation  |
\*---------------------------------------------------------------------------*/
FoamFile
{
    version     2.0;
    format      ascii;
    class       volVectorField;
    location    "96500";
    object      U;
}
// * * * * * * * * * * * * * * * * * * * * * * * * * * * * * * * * * * * * * //

dimensions      [0 1 -1 0 0 0 0];

internalField   nonuniform List<vector> 
600
(
(0.000231037 -1.03408e-14 0)
(0.000696625 -1.36742e-14 0)
(0.00116936 -1.42092e-14 0)
(0.00164937 -1.28658e-14 0)
(0.00213674 -1.17246e-14 0)
(0.00263159 -1.04307e-14 0)
(0.00313405 -1.17613e-14 0)
(0.00364421 -1.05897e-14 0)
(0.0041622 -1.16401e-14 0)
(0.00468815 -1.05478e-14 0)
(0.00522215 -1.11456e-14 0)
(0.00576435 -1.08021e-14 0)
(0.00631486 -1.17003e-14 0)
(0.00687381 -1.02849e-14 0)
(0.00744133 -1.13378e-14 0)
(0.00801753 -1.21653e-14 0)
(0.00860256 -1.2045e-14 0)
(0.00919653 -1.03979e-14 0)
(0.00979959 -9.70745e-15 0)
(0.0104119 -1.01934e-14 0)
(0.0110335 -1.02154e-14 0)
(0.0116646 -9.72801e-15 0)
(0.0123053 -1.05672e-14 0)
(0.0129557 -1.12623e-14 0)
(0.013616 -1.02718e-14 0)
(0.0142863 -1.17254e-14 0)
(0.0149667 -1.09063e-14 0)
(0.0156573 -1.05631e-14 0)
(0.0163582 -9.25117e-15 0)
(0.0170696 -1.0886e-14 0)
(0.0177916 -9.7424e-15 0)
(0.0185241 -1.20855e-14 0)
(0.0192673 -9.76684e-15 0)
(0.0200213 -9.82421e-15 0)
(0.020786 -7.32528e-15 0)
(0.0215615 -4.32643e-15 0)
(0.0223479 -3.10741e-15 0)
(0.0231449 -2.62374e-17 0)
(0.0239527 1.63738e-15 0)
(0.024771 2.61253e-15 0)
(0.0255998 2.66764e-15 0)
(0.0264388 4.14612e-15 0)
(0.027288 3.92254e-15 0)
(0.0281469 5.20551e-15 0)
(0.0290153 7.58186e-15 0)
(0.0298928 6.25679e-15 0)
(0.0307791 5.72377e-15 0)
(0.0316735 3.6793e-15 0)
(0.0325757 4.02652e-15 0)
(0.0334851 6.55425e-15 0)
(0.0344009 6.15687e-15 0)
(0.0353226 8.02961e-15 0)
(0.0362495 8.73672e-15 0)
(0.0371808 7.99483e-15 0)
(0.0381157 7.04937e-15 0)
(0.0390535 6.47427e-15 0)
(0.0399932 5.44145e-15 0)
(0.0409342 6.28072e-15 0)
(0.0418756 6.48009e-15 0)
(0.0428166 4.191e-15 0)
(0.0437564 -7.54977e-17 0)
(0.0446942 -5.07716e-16 0)
(0.0456294 -2.21688e-15 0)
(0.0465611 -4.23839e-15 0)
(0.0474888 -4.31543e-15 0)
(0.0484119 -7.74556e-15 0)
(0.0493297 -4.01868e-15 0)
(0.0502418 -2.883e-15 0)
(0.0511477 -9.92853e-16 0)
(0.052047 4.4952e-16 0)
(0.0529393 1.75695e-15 0)
(0.0538242 4.42783e-15 0)
(0.0547016 5.38188e-15 0)
(0.0555711 4.64155e-15 0)
(0.0564327 1.86977e-15 0)
(0.0572861 5.36885e-15 0)
(0.0581312 6.05797e-15 0)
(0.0589679 4.99402e-15 0)
(0.0597963 5.77317e-15 0)
(0.0606168 6.4975e-15 0)
(0.0614302 5.87361e-15 0)
(0.0622367 1.65544e-15 0)
(0.0630361 2.77527e-15 0)
(0.0638285 1.90899e-15 0)
(0.0646137 2.75034e-15 0)
(0.0653917 -2.30033e-15 0)
(0.0661625 1.78228e-16 0)
(0.066926 -1.93182e-15 0)
(0.0676821 6.18499e-17 0)
(0.068431 2.93859e-15 0)
(0.0691725 1.17482e-15 0)
(0.0699067 2.35253e-15 0)
(0.0706337 3.32699e-15 0)
(0.0713535 3.23534e-15 0)
(0.0720661 3.01282e-15 0)
(0.0727716 1.4956e-15 0)
(0.07347 3.49994e-15 0)
(0.0741613 3.38617e-15 0)
(0.0748458 4.13048e-15 0)
(0.0755234 2.50745e-15 0)
(0.0761942 1.53657e-15 0)
(0.0768583 2.18084e-15 0)
(0.0775158 1.08913e-15 0)
(0.0781668 2.63673e-15 0)
(0.0788114 3.10274e-15 0)
(0.0794497 6.77679e-16 0)
(0.0800817 1.13447e-15 0)
(0.0807076 1.49739e-15 0)
(0.0813275 2.99095e-15 0)
(0.0819415 4.46477e-15 0)
(0.0825497 4.95382e-15 0)
(0.0831521 5.08949e-15 0)
(0.083749 6.57022e-15 0)
(0.0843403 3.33716e-15 0)
(0.0849263 3.71883e-15 0)
(0.0855069 4.35303e-15 0)
(0.0860824 5.99491e-15 0)
(0.0866528 4.16034e-15 0)
(0.0872181 4.16576e-15 0)
(0.0877786 3.5359e-15 0)
(0.0883343 6.0601e-15 0)
(0.0888853 4.88243e-15 0)
(0.0894318 4.72462e-15 0)
(0.0899737 5.43023e-15 0)
(0.0905112 6.71808e-15 0)
(0.0910444 6.11981e-15 0)
(0.0915734 6.04001e-15 0)
(0.0920982 6.08275e-15 0)
(0.0926191 4.34399e-15 0)
(0.093136 5.44061e-15 0)
(0.093649 4.87952e-15 0)
(0.0941582 6.30467e-15 0)
(0.0946637 6.81867e-15 0)
(0.0951657 6.12248e-15 0)
(0.0956641 7.66369e-15 0)
(0.096159 6.0066e-15 0)
(0.0966506 3.45001e-15 0)
(0.0971389 4.17376e-15 0)
(0.0976239 4.80475e-15 0)
(0.0981058 4.27489e-15 0)
(0.0985846 4.51781e-15 0)
(0.0990604 6.84157e-15 0)
(0.0995332 6.62288e-15 0)
(0.100003 6.16074e-15 0)
(0.10047 6.26333e-15 0)
(0.100935 4.79142e-15 0)
(0.101396 6.02237e-15 0)
(0.101856 4.87098e-15 0)
(0.102312 4.37105e-15 0)
(0.102766 4.03172e-15 0)
(0.103218 6.44268e-15 0)
(0.103667 6.03239e-15 0)
(0.104114 7.81512e-15 0)
(0.104558 7.67278e-15 0)
(0.105001 8.6118e-15 0)
(0.105441 7.06216e-15 0)
(0.105879 6.91593e-15 0)
(0.106315 5.87496e-15 0)
(0.106748 6.31535e-15 0)
(0.10718 7.63513e-15 0)
(0.10761 1.06444e-14 0)
(0.108038 1.14244e-14 0)
(0.108464 1.18873e-14 0)
(0.108889 1.24502e-14 0)
(0.109311 1.2206e-14 0)
(0.109732 1.1973e-14 0)
(0.110151 1.2656e-14 0)
(0.110569 1.23804e-14 0)
(0.110985 1.18341e-14 0)
(0.111399 1.15185e-14 0)
(0.111812 1.0078e-14 0)
(0.112223 8.98839e-15 0)
(0.112632 1.13023e-14 0)
(0.113041 1.12577e-14 0)
(0.113447 1.24055e-14 0)
(0.113853 1.25074e-14 0)
(0.114257 1.2071e-14 0)
(0.11466 1.22216e-14 0)
(0.115061 1.30677e-14 0)
(0.115461 1.34017e-14 0)
(0.11586 1.45309e-14 0)
(0.116258 1.32092e-14 0)
(0.116654 1.22959e-14 0)
(0.117049 1.1711e-14 0)
(0.117443 1.05764e-14 0)
(0.117836 9.7017e-15 0)
(0.118228 1.03871e-14 0)
(0.118619 8.30812e-15 0)
(0.119008 7.45235e-15 0)
(0.119397 9.40297e-15 0)
(0.119785 7.78816e-15 0)
(0.120171 8.621e-15 0)
(0.120557 7.90779e-15 0)
(0.120941 8.98587e-15 0)
(0.121325 8.33431e-15 0)
(0.121707 7.94456e-15 0)
(0.122089 9.4621e-15 0)
(0.122469 9.43059e-15 0)
(0.122849 7.89771e-15 0)
(0.123228 9.35048e-15 0)
(0.123606 8.22158e-15 0)
(0.123983 7.50282e-15 0)
(0.124359 5.38593e-15 0)
(0.124734 6.48823e-15 0)
(0.125108 7.45839e-15 0)
(0.125482 7.70017e-15 0)
(0.125854 7.54065e-15 0)
(0.126226 8.4901e-15 0)
(0.126596 1.03433e-14 0)
(0.126966 6.97194e-15 0)
(0.127335 6.90239e-15 0)
(0.127703 6.59821e-15 0)
(0.128071 4.58142e-15 0)
(0.128437 3.0138e-15 0)
(0.128802 8.50645e-16 0)
(0.129167 3.28145e-16 0)
(0.12953 1.60676e-15 0)
(0.129892 1.71517e-15 0)
(0.130254 1.96824e-16 0)
(0.130614 -1.66427e-15 0)
(0.130972 -1.94682e-15 0)
(0.13133 -2.306e-15 0)
(0.131685 -3.0248e-15 0)
(0.132039 -3.66114e-15 0)
(0.132391 -4.38057e-15 0)
(0.132741 -4.64561e-15 0)
(0.133089 -4.63462e-15 0)
(0.133435 -4.26985e-15 0)
(0.133779 -2.61385e-15 0)
(0.13412 -3.74648e-15 0)
(0.134461 -5.05075e-15 0)
(0.1348 -4.51328e-15 0)
(0.135137 -5.16599e-15 0)
(0.135474 -5.8141e-15 0)
(0.135808 -4.91454e-15 0)
(0.136142 -6.30303e-15 0)
(0.136473 -6.64851e-15 0)
(0.136803 -5.93452e-15 0)
(0.137132 -4.4583e-15 0)
(0.137459 -5.75961e-15 0)
(0.137784 -5.82994e-15 0)
(0.138108 -6.47161e-15 0)
(0.13843 -8.74119e-15 0)
(0.138749 -7.81442e-15 0)
(0.139068 -9.08917e-15 0)
(0.139384 -8.33681e-15 0)
(0.139698 -1.13896e-14 0)
(0.14001 -1.10569e-14 0)
(0.14032 -1.07415e-14 0)
(0.140628 -1.1318e-14 0)
(0.140933 -9.49405e-15 0)
(0.141236 -1.06165e-14 0)
(0.141537 -1.01576e-14 0)
(0.141836 -9.64026e-15 0)
(0.142131 -9.78249e-15 0)
(0.142425 -7.8596e-15 0)
(0.142715 -8.76394e-15 0)
(0.143003 -1.01909e-14 0)
(0.143287 -1.09932e-14 0)
(0.143569 -1.06166e-14 0)
(0.143848 -1.15279e-14 0)
(0.144123 -1.13726e-14 0)
(0.144395 -1.12553e-14 0)
(0.144664 -1.31312e-14 0)
(0.144929 -1.28302e-14 0)
(0.14519 -1.28192e-14 0)
(0.145448 -1.22734e-14 0)
(0.145702 -1.22336e-14 0)
(0.145951 -1.00461e-14 0)
(0.146197 -9.75154e-15 0)
(0.146438 -9.26129e-15 0)
(0.146674 -1.20689e-14 0)
(0.146906 -1.36239e-14 0)
(0.147133 -1.29695e-14 0)
(0.147355 -1.3007e-14 0)
(0.147571 -1.52707e-14 0)
(0.147782 -1.55947e-14 0)
(0.147988 -1.48758e-14 0)
(0.148188 -1.38819e-14 0)
(0.148382 -1.62739e-14 0)
(0.14857 -1.5719e-14 0)
(0.148751 -1.55336e-14 0)
(0.148926 -1.50891e-14 0)
(0.149093 -1.35205e-14 0)
(0.149254 -1.50293e-14 0)
(0.149407 -1.27983e-14 0)
(0.149552 -1.38072e-14 0)
(0.14969 -1.33858e-14 0)
(0.149819 -1.22547e-14 0)
(0.14994 -1.3024e-14 0)
(0.150052 -1.37845e-14 0)
(0.150154 -1.31405e-14 0)
(0.150247 -1.34541e-14 0)
(0.15033 -1.02732e-14 0)
(0.150402 -1.18286e-14 0)
(0.150464 -1.08639e-14 0)
(0.150514 -9.43112e-15 0)
(0.150553 -9.00151e-15 0)
(0.150579 -9.60196e-15 0)
(0.150593 -1.05975e-14 0)
(0.150593 -8.86027e-15 0)
(0.150579 -1.03734e-14 0)
(0.150553 -7.12199e-15 0)
(0.150514 -7.9399e-15 0)
(0.150464 -7.62109e-15 0)
(0.150402 -9.11848e-15 0)
(0.15033 -9.86722e-15 0)
(0.150247 -6.88358e-15 0)
(0.150154 -1.01872e-14 0)
(0.150052 -8.45562e-15 0)
(0.14994 -9.01363e-15 0)
(0.149819 -1.33375e-14 0)
(0.14969 -1.26764e-14 0)
(0.149552 -1.10749e-14 0)
(0.149407 -1.26173e-14 0)
(0.149254 -1.33543e-14 0)
(0.149093 -1.28131e-14 0)
(0.148926 -1.37116e-14 0)
(0.148751 -9.93674e-15 0)
(0.14857 -1.14045e-14 0)
(0.148382 -1.23778e-14 0)
(0.148188 -1.09795e-14 0)
(0.147988 -1.02181e-14 0)
(0.147782 -9.80072e-15 0)
(0.147571 -1.13562e-14 0)
(0.147355 -1.0794e-14 0)
(0.147133 -1.07602e-14 0)
(0.146906 -8.82201e-15 0)
(0.146674 -9.12422e-15 0)
(0.146438 -9.09056e-15 0)
(0.146197 -7.77847e-15 0)
(0.145951 -8.79567e-15 0)
(0.145702 -7.08267e-15 0)
(0.145448 -8.29885e-15 0)
(0.14519 -9.01111e-15 0)
(0.144929 -8.84009e-15 0)
(0.144664 -9.43311e-15 0)
(0.144395 -1.05064e-14 0)
(0.144123 -9.16732e-15 0)
(0.143848 -1.21091e-14 0)
(0.143569 -1.11565e-14 0)
(0.143287 -1.06959e-14 0)
(0.143003 -1.09154e-14 0)
(0.142715 -1.01241e-14 0)
(0.142425 -9.56047e-15 0)
(0.142131 -9.75829e-15 0)
(0.141836 -1.13155e-14 0)
(0.141537 -1.32413e-14 0)
(0.141236 -1.1592e-14 0)
(0.140933 -1.08154e-14 0)
(0.140628 -1.15758e-14 0)
(0.14032 -1.15011e-14 0)
(0.14001 -1.20842e-14 0)
(0.139698 -1.09865e-14 0)
(0.139384 -9.05948e-15 0)
(0.139068 -8.35487e-15 0)
(0.138749 -9.95793e-15 0)
(0.13843 -1.17955e-14 0)
(0.138108 -1.14817e-14 0)
(0.137784 -1.04294e-14 0)
(0.137459 -1.05753e-14 0)
(0.137132 -1.01804e-14 0)
(0.136803 -1.04765e-14 0)
(0.136473 -8.69238e-15 0)
(0.136142 -1.09755e-14 0)
(0.135808 -1.1177e-14 0)
(0.135474 -1.0128e-14 0)
(0.135137 -1.09837e-14 0)
(0.1348 -1.01497e-14 0)
(0.134461 -9.42846e-15 0)
(0.13412 -8.27413e-15 0)
(0.133779 -7.5548e-15 0)
(0.133435 -8.69237e-15 0)
(0.133089 -7.77745e-15 0)
(0.132741 -8.10716e-15 0)
(0.132391 -8.86082e-15 0)
(0.132039 -7.96902e-15 0)
(0.131685 -8.55472e-15 0)
(0.13133 -7.65491e-15 0)
(0.130972 -9.36407e-15 0)
(0.130614 -9.86789e-15 0)
(0.130254 -1.07846e-14 0)
(0.129892 -1.07395e-14 0)
(0.12953 -1.00323e-14 0)
(0.129167 -9.05332e-15 0)
(0.128802 -8.24418e-15 0)
(0.128437 -7.2667e-15 0)
(0.128071 -6.79917e-15 0)
(0.127703 -4.12495e-15 0)
(0.127335 -5.29959e-15 0)
(0.126966 -4.67174e-15 0)
(0.126596 -6.98358e-15 0)
(0.126226 -7.69775e-15 0)
(0.125854 -7.11788e-15 0)
(0.125482 -5.67685e-15 0)
(0.125108 -6.69797e-15 0)
(0.124734 -7.35838e-15 0)
(0.124359 -7.30723e-15 0)
(0.123983 -6.59104e-15 0)
(0.123606 -5.03045e-15 0)
(0.123228 -7.29023e-15 0)
(0.122849 -5.2388e-15 0)
(0.122469 -6.8335e-15 0)
(0.122089 -6.64556e-15 0)
(0.121707 -5.50174e-15 0)
(0.121325 -4.86873e-15 0)
(0.120941 -4.518e-15 0)
(0.120557 -5.90266e-15 0)
(0.120171 -4.32823e-15 0)
(0.119785 -3.94799e-15 0)
(0.119397 -3.67994e-15 0)
(0.119008 -3.72831e-15 0)
(0.118619 -2.39031e-15 0)
(0.118228 -1.87104e-15 0)
(0.117836 -1.66018e-15 0)
(0.117443 4.23004e-16 0)
(0.117049 -1.6217e-15 0)
(0.116654 -2.56275e-15 0)
(0.116258 -2.26013e-15 0)
(0.11586 -2.23112e-15 0)
(0.115461 -3.21719e-15 0)
(0.115061 -1.62856e-15 0)
(0.11466 3.54143e-16 0)
(0.114257 -1.0809e-15 0)
(0.113853 -1.61939e-15 0)
(0.113447 -1.38198e-15 0)
(0.113041 -3.33258e-15 0)
(0.112632 -3.02541e-15 0)
(0.112223 -4.26195e-15 0)
(0.111812 -4.29844e-15 0)
(0.111399 -3.35051e-15 0)
(0.110985 -4.68884e-15 0)
(0.110569 -4.89796e-15 0)
(0.110151 -4.83449e-15 0)
(0.109732 -4.28563e-15 0)
(0.109311 -3.21715e-15 0)
(0.108889 -3.28656e-15 0)
(0.108464 -2.9936e-15 0)
(0.108038 -3.91715e-15 0)
(0.10761 -2.50943e-15 0)
(0.10718 -1.7289e-15 0)
(0.106748 -2.20844e-15 0)
(0.106315 -6.25978e-16 0)
(0.105879 8.24971e-16 0)
(0.105441 2.19497e-15 0)
(0.105001 3.22e-15 0)
(0.104558 3.71436e-15 0)
(0.104114 1.47393e-15 0)
(0.103667 5.64213e-16 0)
(0.103218 5.78175e-16 0)
(0.102766 -2.49967e-16 0)
(0.102312 -8.158e-16 0)
(0.101856 -2.67489e-16 0)
(0.101396 9.7588e-17 0)
(0.100935 1.3186e-16 0)
(0.10047 -2.57177e-16 0)
(0.100003 3.12318e-17 0)
(0.0995332 -2.82899e-16 0)
(0.0990604 2.93686e-16 0)
(0.0985846 8.00384e-16 0)
(0.0981058 1.13741e-15 0)
(0.0976239 2.86434e-15 0)
(0.0971389 2.37178e-15 0)
(0.0966506 1.84279e-15 0)
(0.096159 -7.82094e-16 0)
(0.0956641 -1.17292e-15 0)
(0.0951657 -2.68274e-15 0)
(0.0946637 -2.65539e-16 0)
(0.0941582 -2.57874e-15 0)
(0.093649 -1.74079e-15 0)
(0.093136 -5.4578e-16 0)
(0.0926191 -3.60919e-15 0)
(0.0920982 -4.4867e-15 0)
(0.0915734 -3.71648e-15 0)
(0.0910444 -5.18097e-15 0)
(0.0905112 -4.71791e-15 0)
(0.0899737 -4.3305e-15 0)
(0.0894318 -3.16217e-15 0)
(0.0888853 -7.38169e-15 0)
(0.0883343 -4.64267e-15 0)
(0.0877786 -3.97861e-15 0)
(0.0872181 -5.47999e-15 0)
(0.0866528 -4.71045e-15 0)
(0.0860824 -5.63573e-15 0)
(0.0855069 -6.78437e-15 0)
(0.0849263 -5.05539e-15 0)
(0.0843403 -5.76763e-15 0)
(0.083749 -4.55796e-15 0)
(0.0831521 -3.98753e-15 0)
(0.0825497 -4.28565e-15 0)
(0.0819415 -6.26472e-15 0)
(0.0813275 -4.03638e-15 0)
(0.0807076 -5.93749e-15 0)
(0.0800817 -4.75585e-15 0)
(0.0794497 -3.21177e-15 0)
(0.0788114 -1.90102e-15 0)
(0.0781668 -6.02552e-15 0)
(0.0775158 -3.37439e-15 0)
(0.0768583 -3.18064e-15 0)
(0.0761942 -3.48215e-15 0)
(0.0755234 -4.81124e-15 0)
(0.0748458 -4.94503e-15 0)
(0.0741613 -4.40048e-15 0)
(0.07347 -3.45428e-15 0)
(0.0727716 -4.19727e-15 0)
(0.0720661 -5.42765e-15 0)
(0.0713535 -3.98265e-15 0)
(0.0706337 -3.19088e-15 0)
(0.0699067 -1.79767e-15 0)
(0.0691725 -2.10937e-15 0)
(0.068431 -1.58194e-15 0)
(0.0676821 -2.23615e-16 0)
(0.066926 -7.19147e-17 0)
(0.0661625 2.06666e-15 0)
(0.0653917 -2.46672e-15 0)
(0.0646137 -1.13643e-15 0)
(0.0638285 -7.41988e-16 0)
(0.0630361 1.54571e-15 0)
(0.0622367 5.75675e-16 0)
(0.0614302 3.91613e-15 0)
(0.0606168 6.59093e-15 0)
(0.0597963 6.43225e-15 0)
(0.0589679 7.72481e-15 0)
(0.0581312 7.52438e-15 0)
(0.0572861 8.91036e-15 0)
(0.0564327 6.39416e-15 0)
(0.0555711 6.70066e-15 0)
(0.0547016 5.68984e-15 0)
(0.0538242 2.78387e-15 0)
(0.0529393 2.93812e-15 0)
(0.052047 3.7039e-15 0)
(0.0511477 3.62179e-15 0)
(0.0502418 3.17861e-15 0)
(0.0493297 7.08269e-16 0)
(0.0484119 -5.54211e-16 0)
(0.0474888 2.75074e-15 0)
(0.0465611 -1.05688e-15 0)
(0.0456294 1.02464e-15 0)
(0.0446942 3.80317e-15 0)
(0.0437564 2.91554e-16 0)
(0.0428166 4.72198e-16 0)
(0.0418756 -1.06763e-16 0)
(0.0409342 2.20856e-15 0)
(0.0399932 1.85466e-15 0)
(0.0390535 3.79587e-16 0)
(0.0381157 4.0302e-15 0)
(0.0371808 5.92057e-15 0)
(0.0362495 5.29868e-15 0)
(0.0353226 5.40078e-15 0)
(0.0344009 4.67093e-15 0)
(0.0334851 6.29479e-15 0)
(0.0325757 8.75703e-15 0)
(0.0316735 8.87467e-15 0)
(0.0307791 6.1781e-15 0)
(0.0298928 4.33839e-15 0)
(0.0290153 2.35185e-15 0)
(0.0281469 2.68573e-15 0)
(0.027288 3.79499e-15 0)
(0.0264388 2.89394e-15 0)
(0.0255998 3.95604e-15 0)
(0.024771 2.61124e-15 0)
(0.0239527 3.40171e-15 0)
(0.0231449 6.89379e-16 0)
(0.0223479 -2.40934e-15 0)
(0.0215615 -4.89358e-15 0)
(0.020786 -5.19134e-15 0)
(0.0200213 -8.82858e-16 0)
(0.0192673 -1.60366e-16 0)
(0.0185241 -1.98332e-15 0)
(0.0177916 -5.60907e-15 0)
(0.0170696 -5.78628e-15 0)
(0.0163582 -7.31719e-15 0)
(0.0156573 -6.43468e-15 0)
(0.0149667 -6.54214e-15 0)
(0.0142863 -8.98379e-15 0)
(0.013616 -5.45848e-15 0)
(0.0129557 -6.64178e-15 0)
(0.0123053 -5.17502e-15 0)
(0.0116646 -5.8078e-15 0)
(0.0110335 -5.55178e-15 0)
(0.0104119 -7.62816e-15 0)
(0.00979959 -6.76745e-15 0)
(0.00919653 -5.79521e-15 0)
(0.00860256 -4.4576e-15 0)
(0.00801753 -2.20439e-15 0)
(0.00744133 -3.13685e-15 0)
(0.00687381 -2.77719e-15 0)
(0.00631486 -3.74942e-15 0)
(0.00576435 -3.8772e-15 0)
(0.00522215 -3.56082e-15 0)
(0.00468815 -2.59757e-15 0)
(0.00416221 -1.00202e-15 0)
(0.00364421 -2.22622e-15 0)
(0.00313405 3.47062e-16 0)
(0.00263159 -7.34883e-16 0)
(0.00213674 7.66123e-16 0)
(0.00164937 -9.64523e-16 0)
(0.00116937 -2.01331e-16 0)
(0.000696625 9.37054e-17 0)
(0.000231037 -1.50224e-16 0)
)
;

boundaryField
{
    bottomWall
    {
        type            noSlip;
    }
    topWall
    {
        type            noSlip;
    }
    sides1_half0
    {
        type            empty;
    }
    sides1_half1
    {
        type            empty;
    }
    sides2_half0
    {
        type            empty;
    }
    sides2_half1
    {
        type            empty;
    }
    inout1_half0
    {
        type            cyclic;
    }
    inout1_half1
    {
        type            cyclic;
    }
    inout2_half0
    {
        type            cyclic;
    }
    inout2_half1
    {
        type            cyclic;
    }
}


// ************************************************************************* //
