/*--------------------------------*- C++ -*----------------------------------*\
  =========                 |
  \\      /  F ield         | OpenFOAM: The Open Source CFD Toolbox
   \\    /   O peration     | Website:  https://openfoam.org
    \\  /    A nd           | Version:  7
     \\/     M anipulation  |
\*---------------------------------------------------------------------------*/
FoamFile
{
    version     2.0;
    format      ascii;
    class       volScalarField;
    location    "18000";
    object      nut;
}
// * * * * * * * * * * * * * * * * * * * * * * * * * * * * * * * * * * * * * //

dimensions      [0 2 -1 0 0 0 0];

internalField   nonuniform List<scalar> 
3963
(
0.0012845
0.00128477
0.00128483
0.00128484
0.00128485
0.00128485
0.00128485
0.00128485
0.00128485
0.00128484
0.00128484
0.00128483
0.00128482
0.00128481
0.0012848
0.00128479
0.00128478
0.00128476
0.00128475
0.00128473
0.00128472
0.00128379
0.0012837
0.00128361
0.00128357
0.00128354
0.00128351
0.0012835
0.00128348
0.00128347
0.00128345
0.00128344
0.00128342
0.00128341
0.00128339
0.00128339
0.00128331
0.00122997
0.00123021
0.00123028
0.0012303
0.0012303
0.0012303
0.0012303
0.00123029
0.00123029
0.00123028
0.00123027
0.00123026
0.00123025
0.00123024
0.00123023
0.00123021
0.0012302
0.00123018
0.00123017
0.00123015
0.00123008
0.0012309
0.0012312
0.00123056
0.00123047
0.00123038
0.00123035
0.00122994
0.00122969
0.00122954
0.00122944
0.00122937
0.00122931
0.00122926
0.00122922
0.00122918
0.00122915
0.00122912
0.00122909
0.00122907
0.00122904
0.00122903
0.00122893
0.00117772
0.00117793
0.00117799
0.001178
0.00117801
0.001178
0.001178
0.00117799
0.00117798
0.00117798
0.00117796
0.00117795
0.00117794
0.00117793
0.00117791
0.0011779
0.00117788
0.00117787
0.00117785
0.00117784
0.00117778
0.00117809
0.00117831
0.00117923
0.00117958
0.00117969
0.00117972
0.00117974
0.00117975
0.00117976
0.00117976
0.00117976
0.00117975
0.00117975
0.00117974
0.00117973
0.00117972
0.00117971
0.0011797
0.00117969
0.00117968
0.00117966
0.00117965
0.00117963
0.00117962
0.00117961
0.00117959
0.00117958
0.00117956
0.00117954
0.00117953
0.00117951
0.0011795
0.00117948
0.00117947
0.00117945
0.00117944
0.00117942
0.00117941
0.0011794
0.00117938
0.00117937
0.00117935
0.00117934
0.00117933
0.00117931
0.0011793
0.00117929
0.00117928
0.00117927
0.00117925
0.00117924
0.00117923
0.00117922
0.0011792
0.00117919
0.00117918
0.00117917
0.00117916
0.00117915
0.00117914
0.00117913
0.00117911
0.0011791
0.00117909
0.00117908
0.00117907
0.00117906
0.00117905
0.00117904
0.00117903
0.00117902
0.00117901
0.001179
0.00117899
0.00117898
0.00117897
0.00117896
0.00117894
0.00117896
0.00117859
0.00117838
0.00117825
0.00117819
0.00117798
0.00117777
0.0011776
0.00117748
0.00117738
0.0011773
0.00117723
0.00117717
0.00117712
0.00117708
0.00117703
0.001177
0.00117696
0.00117692
0.0011769
0.0011768
0.00112768
0.00112786
0.0011279
0.00112792
0.00112792
0.00112791
0.00112791
0.0011279
0.00112789
0.00112788
0.00112787
0.00112785
0.00112784
0.00112783
0.00112781
0.0011278
0.00112778
0.00112776
0.00112775
0.00112773
0.00112769
0.00112779
0.00112792
0.00112835
0.00112871
0.00112892
0.00112903
0.0011291
0.00112915
0.00112918
0.00112921
0.00112922
0.00112924
0.00112925
0.00112925
0.00112925
0.00112926
0.00112925
0.00112925
0.00112925
0.00112924
0.00112924
0.00112923
0.00112922
0.00112921
0.0011292
0.00112919
0.00112918
0.00112917
0.00112916
0.00112915
0.00112914
0.00112913
0.00112912
0.00112911
0.00112909
0.00112908
0.00112907
0.00112906
0.00112905
0.00112904
0.00112903
0.00112902
0.00112901
0.00112899
0.00112898
0.00112897
0.00112896
0.00112895
0.00112894
0.00112893
0.00112892
0.00112891
0.0011289
0.00112889
0.00112889
0.00112888
0.00112887
0.00112886
0.00112885
0.00112884
0.00112883
0.00112882
0.00112881
0.0011288
0.00112879
0.00112878
0.00112877
0.00112876
0.00112876
0.00112875
0.00112874
0.00112873
0.00112872
0.00112871
0.0011287
0.00112869
0.00112868
0.00112867
0.00112868
0.00112854
0.00112838
0.00112825
0.00112817
0.00112804
0.00112789
0.00112774
0.00112762
0.00112751
0.00112742
0.00112735
0.00112728
0.00112722
0.00112717
0.00112712
0.00112707
0.00112703
0.00112699
0.00112696
0.00112686
0.00107978
0.00107993
0.00107997
0.00107998
0.00107998
0.00107997
0.00107996
0.00107996
0.00107995
0.00107993
0.00107992
0.00107991
0.00107989
0.00107988
0.00107986
0.00107985
0.00107983
0.00107982
0.0010798
0.00107978
0.00107975
0.00107978
0.00107983
0.00108003
0.00108028
0.00108047
0.00108061
0.00108071
0.00108078
0.00108083
0.00108087
0.0010809
0.00108092
0.00108094
0.00108096
0.00108097
0.00108098
0.00108099
0.00108099
0.00108099
0.00108099
0.00108099
0.00108099
0.00108099
0.00108099
0.00108098
0.00108098
0.00108097
0.00108096
0.00108095
0.00108095
0.00108094
0.00108093
0.00108092
0.00108092
0.00108091
0.0010809
0.00108089
0.00108088
0.00108087
0.00108086
0.00108086
0.00108085
0.00108084
0.00108083
0.00108082
0.00108081
0.00108081
0.0010808
0.00108079
0.00108078
0.00108077
0.00108077
0.00108076
0.00108075
0.00108074
0.00108073
0.00108073
0.00108072
0.00108071
0.0010807
0.0010807
0.00108069
0.00108068
0.00108067
0.00108066
0.00108066
0.00108065
0.00108064
0.00108063
0.00108063
0.00108062
0.00108061
0.0010806
0.0010806
0.00108059
0.00108058
0.00108057
0.00108056
0.00108056
0.00108051
0.00108041
0.00108032
0.00108024
0.00108015
0.00108004
0.00107993
0.00107982
0.00107972
0.00107964
0.00107956
0.00107949
0.00107943
0.00107937
0.00107932
0.00107927
0.00107923
0.00107918
0.00107915
0.00107905
0.00103396
0.00103409
0.00103412
0.00103412
0.00103412
0.00103411
0.00103411
0.0010341
0.00103409
0.00103407
0.00103406
0.00103405
0.00103403
0.00103402
0.001034
0.00103399
0.00103397
0.00103396
0.00103394
0.00103393
0.0010339
0.0010339
0.00103391
0.001034
0.00103414
0.00103428
0.00103441
0.0010345
0.00103458
0.00103464
0.00103469
0.00103472
0.00103475
0.00103478
0.0010348
0.00103482
0.00103483
0.00103485
0.00103486
0.00103486
0.00103487
0.00103487
0.00103487
0.00103487
0.00103487
0.00103487
0.00103487
0.00103487
0.00103486
0.00103486
0.00103486
0.00103485
0.00103485
0.00103484
0.00103484
0.00103483
0.00103482
0.00103482
0.00103481
0.0010348
0.0010348
0.00103479
0.00103478
0.00103478
0.00103477
0.00103476
0.00103476
0.00103475
0.00103475
0.00103474
0.00103473
0.00103473
0.00103472
0.00103471
0.00103471
0.0010347
0.00103469
0.00103469
0.00103468
0.00103468
0.00103467
0.00103466
0.00103466
0.00103465
0.00103464
0.00103464
0.00103463
0.00103462
0.00103462
0.00103461
0.0010346
0.0010346
0.00103459
0.00103458
0.00103458
0.00103457
0.00103456
0.00103456
0.00103455
0.00103455
0.00103453
0.00103447
0.00103441
0.00103435
0.00103428
0.00103421
0.00103412
0.00103404
0.00103395
0.00103388
0.0010338
0.00103374
0.00103368
0.00103362
0.00103357
0.00103352
0.00103348
0.00103344
0.00103341
0.00103331
0.000990139
0.000990256
0.000990278
0.000990279
0.000990274
0.000990268
0.000990259
0.00099025
0.000990239
0.000990228
0.000990215
0.000990202
0.000990189
0.000990174
0.00099016
0.000990145
0.00099013
0.000990115
0.000990099
0.000990083
0.000990064
0.000990051
0.000990048
0.000990079
0.000990149
0.000990239
0.00099033
0.000990411
0.00099048
0.000990538
0.000990585
0.000990625
0.000990658
0.000990687
0.000990711
0.000990732
0.000990749
0.000990764
0.000990776
0.000990786
0.000990794
0.0009908
0.000990805
0.000990809
0.000990811
0.000990812
0.000990813
0.000990812
0.000990811
0.000990809
0.000990807
0.000990804
0.000990801
0.000990798
0.000990794
0.00099079
0.000990786
0.000990781
0.000990777
0.000990773
0.000990768
0.000990763
0.000990758
0.000990753
0.000990748
0.000990743
0.000990738
0.000990733
0.000990729
0.000990724
0.000990719
0.000990714
0.000990709
0.000990704
0.000990699
0.000990694
0.000990689
0.000990683
0.000990678
0.000990673
0.000990668
0.000990662
0.000990657
0.000990652
0.000990647
0.000990641
0.000990635
0.00099063
0.000990625
0.000990619
0.000990613
0.000990608
0.000990602
0.000990597
0.000990591
0.000990585
0.000990579
0.000990574
0.000990567
0.000990564
0.000990553
0.000990527
0.000990488
0.000990444
0.000990396
0.000990342
0.000990282
0.000990217
0.00099015
0.000990086
0.000990024
0.000989966
0.000989911
0.00098986
0.000989812
0.000989766
0.000989723
0.000989681
0.000989652
0.000989556
0.000948249
0.000948352
0.00094837
0.000948369
0.000948363
0.000948356
0.000948348
0.000948339
0.000948329
0.000948317
0.000948306
0.000948293
0.00094828
0.000948267
0.000948253
0.000948239
0.000948225
0.00094821
0.000948195
0.000948181
0.000948164
0.000948149
0.000948138
0.000948144
0.000948172
0.000948221
0.00094828
0.000948339
0.000948394
0.000948443
0.000948486
0.000948523
0.000948555
0.000948583
0.000948607
0.000948628
0.000948646
0.000948662
0.000948675
0.000948686
0.000948696
0.000948703
0.00094871
0.000948715
0.000948719
0.000948722
0.000948724
0.000948725
0.000948725
0.000948725
0.000948725
0.000948724
0.000948722
0.000948721
0.000948719
0.000948716
0.000948713
0.00094871
0.000948707
0.000948704
0.000948701
0.000948697
0.000948694
0.00094869
0.000948687
0.000948683
0.000948679
0.000948675
0.000948672
0.000948669
0.000948665
0.000948661
0.000948657
0.000948653
0.000948649
0.000948645
0.000948641
0.000948637
0.000948632
0.000948628
0.000948624
0.00094862
0.000948615
0.000948611
0.000948607
0.000948602
0.000948598
0.000948593
0.000948589
0.000948584
0.000948579
0.000948574
0.00094857
0.000948565
0.00094856
0.000948555
0.00094855
0.000948545
0.00094854
0.000948536
0.00094853
0.000948516
0.000948494
0.000948464
0.000948431
0.000948393
0.00094835
0.000948303
0.000948252
0.000948201
0.00094815
0.0009481
0.000948053
0.000948008
0.000947964
0.000947923
0.000947883
0.000947844
0.000947818
0.000947727
0.000908209
0.0009083
0.000908316
0.000908314
0.000908308
0.000908301
0.000908293
0.000908284
0.000908275
0.000908265
0.000908254
0.000908242
0.00090823
0.000908218
0.000908205
0.000908192
0.000908179
0.000908165
0.000908151
0.000908137
0.000908122
0.000908108
0.000908095
0.000908089
0.000908096
0.000908117
0.00090815
0.000908188
0.000908228
0.000908265
0.0009083
0.000908331
0.000908359
0.000908384
0.000908406
0.000908425
0.000908443
0.000908458
0.000908471
0.000908483
0.000908492
0.000908501
0.000908508
0.000908514
0.000908518
0.000908522
0.000908525
0.000908527
0.000908529
0.00090853
0.00090853
0.00090853
0.00090853
0.000908529
0.000908528
0.000908527
0.000908525
0.000908523
0.000908522
0.00090852
0.000908517
0.000908515
0.000908512
0.00090851
0.000908507
0.000908505
0.000908502
0.000908499
0.000908497
0.000908494
0.000908492
0.000908489
0.000908485
0.000908482
0.000908479
0.000908476
0.000908473
0.00090847
0.000908466
0.000908463
0.00090846
0.000908456
0.000908453
0.000908449
0.000908446
0.000908442
0.000908438
0.000908434
0.000908431
0.000908427
0.000908423
0.000908419
0.000908415
0.00090841
0.000908406
0.000908402
0.000908398
0.000908394
0.00090839
0.000908386
0.000908381
0.000908374
0.000908361
0.000908342
0.00090832
0.000908294
0.000908264
0.000908229
0.000908192
0.000908152
0.000908112
0.000908072
0.000908033
0.000907994
0.000907957
0.00090792
0.000907885
0.00090785
0.000907826
0.000907742
0.00086994
0.000870021
0.000870035
0.000870033
0.000870028
0.000870021
0.000870014
0.000870006
0.000869998
0.000869988
0.000869979
0.000869968
0.000869957
0.000869946
0.000869934
0.000869922
0.00086991
0.000869898
0.000869885
0.000869872
0.000869859
0.000869845
0.000869832
0.000869822
0.000869818
0.000869824
0.000869838
0.00086986
0.000869885
0.000869911
0.000869936
0.00086996
0.000869983
0.000870003
0.000870022
0.000870039
0.000870054
0.000870068
0.00087008
0.000870091
0.0008701
0.000870108
0.000870115
0.000870121
0.000870126
0.00087013
0.000870133
0.000870136
0.000870138
0.000870139
0.000870141
0.000870141
0.000870141
0.000870142
0.000870142
0.000870141
0.00087014
0.000870139
0.000870138
0.000870137
0.000870135
0.000870134
0.000870132
0.00087013
0.000870129
0.000870127
0.000870125
0.000870123
0.000870121
0.000870119
0.000870117
0.000870115
0.000870113
0.000870111
0.000870108
0.000870106
0.000870103
0.000870101
0.000870098
0.000870096
0.000870093
0.00087009
0.000870087
0.000870084
0.000870081
0.000870078
0.000870075
0.000870072
0.000870069
0.000870066
0.000870063
0.000870059
0.000870056
0.000870052
0.000870049
0.000870046
0.000870042
0.000870039
0.000870035
0.000870032
0.000870028
0.000870023
0.000870015
0.000870004
0.000869989
0.000869971
0.00086995
0.000869926
0.000869899
0.00086987
0.000869839
0.000869807
0.000869776
0.000869744
0.000869712
0.000869681
0.000869651
0.00086962
0.0008696
0.000869524
0.000833363
0.000833435
0.000833448
0.000833446
0.000833442
0.000833436
0.00083343
0.000833423
0.000833416
0.000833408
0.000833399
0.00083339
0.00083338
0.00083337
0.000833359
0.000833349
0.000833338
0.000833327
0.000833315
0.000833303
0.000833291
0.000833279
0.000833267
0.000833256
0.000833247
0.000833244
0.000833247
0.000833257
0.00083327
0.000833286
0.000833303
0.00083332
0.000833337
0.000833352
0.000833367
0.00083338
0.000833393
0.000833405
0.000833415
0.000833424
0.000833432
0.00083344
0.000833446
0.000833451
0.000833456
0.00083346
0.000833463
0.000833466
0.000833468
0.00083347
0.000833472
0.000833473
0.000833473
0.000833474
0.000833474
0.000833474
0.000833474
0.000833473
0.000833473
0.000833472
0.000833471
0.00083347
0.000833469
0.000833468
0.000833467
0.000833466
0.000833465
0.000833464
0.000833462
0.000833461
0.00083346
0.000833458
0.000833457
0.000833455
0.000833453
0.000833451
0.000833449
0.000833447
0.000833445
0.000833443
0.000833441
0.000833439
0.000833437
0.000833434
0.000833432
0.00083343
0.000833427
0.000833425
0.000833422
0.00083342
0.000833417
0.000833414
0.000833411
0.000833408
0.000833405
0.000833402
0.0008334
0.000833397
0.000833394
0.00083339
0.000833387
0.000833384
0.000833379
0.000833372
0.000833362
0.00083335
0.000833336
0.000833319
0.0008333
0.000833279
0.000833256
0.000833231
0.000833206
0.000833181
0.000833155
0.000833129
0.000833104
0.000833078
0.000833061
0.000832992
0.000798398
0.000798463
0.000798474
0.000798474
0.00079847
0.000798466
0.000798461
0.000798456
0.000798449
0.000798442
0.000798435
0.000798427
0.000798418
0.000798409
0.0007984
0.00079839
0.000798381
0.000798371
0.00079836
0.00079835
0.000798339
0.000798328
0.000798317
0.000798306
0.000798296
0.000798289
0.000798286
0.000798287
0.000798293
0.0007983
0.00079831
0.000798321
0.000798332
0.000798343
0.000798354
0.000798364
0.000798374
0.000798383
0.000798391
0.000798398
0.000798405
0.000798411
0.000798416
0.000798421
0.000798425
0.000798429
0.000798432
0.000798435
0.000798437
0.000798439
0.00079844
0.000798441
0.000798442
0.000798443
0.000798443
0.000798443
0.000798444
0.000798444
0.000798444
0.000798443
0.000798443
0.000798442
0.000798442
0.000798441
0.00079844
0.00079844
0.000798439
0.000798438
0.000798437
0.000798437
0.000798436
0.000798435
0.000798433
0.000798432
0.000798431
0.00079843
0.000798428
0.000798427
0.000798425
0.000798424
0.000798422
0.00079842
0.000798418
0.000798417
0.000798415
0.000798413
0.000798411
0.000798409
0.000798407
0.000798405
0.000798402
0.0007984
0.000798398
0.000798395
0.000798393
0.00079839
0.000798388
0.000798386
0.000798383
0.00079838
0.000798378
0.000798375
0.000798372
0.000798367
0.00079836
0.000798352
0.000798343
0.000798332
0.000798318
0.000798303
0.000798286
0.000798267
0.000798248
0.000798228
0.000798208
0.000798187
0.000798166
0.000798144
0.000798131
0.000798069
0.000764968
0.000765026
0.000765037
0.000765037
0.000765034
0.000765031
0.000765028
0.000765023
0.000765018
0.000765012
0.000765006
0.000764999
0.000764992
0.000764984
0.000764976
0.000764968
0.000764959
0.00076495
0.000764941
0.000764932
0.000764923
0.000764913
0.000764903
0.000764892
0.000764883
0.000764874
0.000764868
0.000764865
0.000764864
0.000764867
0.000764871
0.000764877
0.000764883
0.00076489
0.000764897
0.000764904
0.00076491
0.000764917
0.000764923
0.000764929
0.000764934
0.000764938
0.000764943
0.000764947
0.00076495
0.000764953
0.000764956
0.000764958
0.00076496
0.000764961
0.000764963
0.000764964
0.000764965
0.000764966
0.000764966
0.000764966
0.000764967
0.000764967
0.000764967
0.000764967
0.000764967
0.000764967
0.000764966
0.000764966
0.000764966
0.000764965
0.000764965
0.000764965
0.000764964
0.000764964
0.000764963
0.000764962
0.000764962
0.000764961
0.00076496
0.000764959
0.000764958
0.000764957
0.000764956
0.000764955
0.000764953
0.000764952
0.00076495
0.000764949
0.000764948
0.000764946
0.000764944
0.000764943
0.000764941
0.00076494
0.000764938
0.000764936
0.000764934
0.000764932
0.00076493
0.000764928
0.000764926
0.000764924
0.000764922
0.000764919
0.000764917
0.000764915
0.000764912
0.000764909
0.000764905
0.0007649
0.000764893
0.000764885
0.000764876
0.000764865
0.000764853
0.000764839
0.000764825
0.000764809
0.000764794
0.000764777
0.00076476
0.000764742
0.000764732
0.000764677
0.000732995
0.000733047
0.000733057
0.000733058
0.000733057
0.000733055
0.000733052
0.000733049
0.000733045
0.00073304
0.000733035
0.00073303
0.000733023
0.000733016
0.000733009
0.000733002
0.000732995
0.000732988
0.00073298
0.000732972
0.000732963
0.000732955
0.000732946
0.000732936
0.000732927
0.000732919
0.000732911
0.000732905
0.000732902
0.000732901
0.000732901
0.000732903
0.000732905
0.000732909
0.000732913
0.000732917
0.000732921
0.000732925
0.000732929
0.000732933
0.000732937
0.00073294
0.000732943
0.000732946
0.000732948
0.000732951
0.000732953
0.000732955
0.000732956
0.000732957
0.000732959
0.000732959
0.00073296
0.000732961
0.000732962
0.000732962
0.000732962
0.000732963
0.000732963
0.000732963
0.000732963
0.000732963
0.000732963
0.000732963
0.000732963
0.000732963
0.000732963
0.000732963
0.000732962
0.000732962
0.000732962
0.000732961
0.000732961
0.00073296
0.00073296
0.000732959
0.000732958
0.000732958
0.000732957
0.000732956
0.000732955
0.000732954
0.000732953
0.000732952
0.000732951
0.00073295
0.000732948
0.000732947
0.000732946
0.000732944
0.000732943
0.000732941
0.00073294
0.000732938
0.000732936
0.000732935
0.000732933
0.000732931
0.00073293
0.000732928
0.000732926
0.000732924
0.000732922
0.00073292
0.000732917
0.000732913
0.000732909
0.000732903
0.000732897
0.000732889
0.00073288
0.00073287
0.00073286
0.000732848
0.000732836
0.000732823
0.00073281
0.000732795
0.000732788
0.000732739
0.000702405
0.00070245
0.00070246
0.000702462
0.000702461
0.000702461
0.000702459
0.000702457
0.000702454
0.00070245
0.000702446
0.000702442
0.000702436
0.000702431
0.000702425
0.000702419
0.000702413
0.000702406
0.000702399
0.000702393
0.000702385
0.000702377
0.00070237
0.000702361
0.000702353
0.000702345
0.000702337
0.000702331
0.000702326
0.000702322
0.00070232
0.000702319
0.000702319
0.00070232
0.000702321
0.000702323
0.000702325
0.000702327
0.000702329
0.000702331
0.000702334
0.000702336
0.000702338
0.00070234
0.000702341
0.000702343
0.000702345
0.000702346
0.000702347
0.000702348
0.000702349
0.000702349
0.00070235
0.000702351
0.000702351
0.000702352
0.000702352
0.000702353
0.000702353
0.000702353
0.000702353
0.000702353
0.000702353
0.000702354
0.000702354
0.000702354
0.000702354
0.000702354
0.000702354
0.000702354
0.000702354
0.000702353
0.000702353
0.000702353
0.000702353
0.000702352
0.000702352
0.000702351
0.000702351
0.00070235
0.000702349
0.000702349
0.000702348
0.000702347
0.000702346
0.000702345
0.000702344
0.000702343
0.000702342
0.000702341
0.00070234
0.000702339
0.000702337
0.000702336
0.000702334
0.000702333
0.000702332
0.000702331
0.000702329
0.000702328
0.000702326
0.000702325
0.000702323
0.000702321
0.000702319
0.000702316
0.000702313
0.00070231
0.000702305
0.0007023
0.000702293
0.000702286
0.000702278
0.00070227
0.000702261
0.000702251
0.00070224
0.000702228
0.000702223
0.00070218
0.000673124
0.000673163
0.000673173
0.000673175
0.000673175
0.000673175
0.000673175
0.000673174
0.000673172
0.000673169
0.000673166
0.000673162
0.000673158
0.000673153
0.000673148
0.000673143
0.000673138
0.000673132
0.000673127
0.000673121
0.000673115
0.000673108
0.000673101
0.000673094
0.000673087
0.000673079
0.000673072
0.000673065
0.000673059
0.000673055
0.000673051
0.000673048
0.000673046
0.000673045
0.000673045
0.000673045
0.000673045
0.000673046
0.000673046
0.000673047
0.000673048
0.000673049
0.00067305
0.000673051
0.000673052
0.000673053
0.000673054
0.000673055
0.000673056
0.000673057
0.000673057
0.000673058
0.000673058
0.000673059
0.000673059
0.000673059
0.00067306
0.00067306
0.000673061
0.000673061
0.000673061
0.000673061
0.000673062
0.000673062
0.000673062
0.000673062
0.000673062
0.000673062
0.000673062
0.000673063
0.000673063
0.000673063
0.000673063
0.000673062
0.000673062
0.000673062
0.000673062
0.000673062
0.000673061
0.000673061
0.00067306
0.00067306
0.000673059
0.000673059
0.000673058
0.000673057
0.000673057
0.000673056
0.000673055
0.000673054
0.000673053
0.000673052
0.000673051
0.00067305
0.000673049
0.000673048
0.000673047
0.000673046
0.000673045
0.000673043
0.000673042
0.000673041
0.00067304
0.000673038
0.000673037
0.000673035
0.000673033
0.00067303
0.000673027
0.000673023
0.000673018
0.000673013
0.000673007
0.000673001
0.000672994
0.000672987
0.000672979
0.000672969
0.000672966
0.000672928
0.000645081
0.000645115
0.000645124
0.000645127
0.000645128
0.000645129
0.000645129
0.000645128
0.000645127
0.000645125
0.000645123
0.00064512
0.000645117
0.000645113
0.000645109
0.000645104
0.0006451
0.000645096
0.000645091
0.000645086
0.00064508
0.000645075
0.000645069
0.000645062
0.000645056
0.00064505
0.000645043
0.000645036
0.000645031
0.000645025
0.000645021
0.000645017
0.000645014
0.000645012
0.00064501
0.000645009
0.000645008
0.000645007
0.000645007
0.000645006
0.000645007
0.000645007
0.000645007
0.000645007
0.000645008
0.000645008
0.000645009
0.000645009
0.00064501
0.00064501
0.00064501
0.00064501
0.000645011
0.000645011
0.000645012
0.000645012
0.000645012
0.000645013
0.000645013
0.000645013
0.000645014
0.000645014
0.000645014
0.000645014
0.000645015
0.000645015
0.000645015
0.000645015
0.000645016
0.000645016
0.000645016
0.000645016
0.000645016
0.000645016
0.000645016
0.000645016
0.000645016
0.000645016
0.000645016
0.000645016
0.000645015
0.000645015
0.000645014
0.000645014
0.000645014
0.000645013
0.000645013
0.000645012
0.000645012
0.000645011
0.00064501
0.000645009
0.000645009
0.000645008
0.000645007
0.000645006
0.000645005
0.000645005
0.000645004
0.000645002
0.000645001
0.000645
0.000644999
0.000644998
0.000644997
0.000644996
0.000644994
0.000644992
0.00064499
0.000644987
0.000644984
0.00064498
0.000644976
0.000644971
0.000644966
0.000644961
0.000644955
0.000644947
0.000644944
0.000644912
0.000618208
0.000618238
0.000618246
0.000618249
0.00061825
0.000618251
0.000618252
0.000618252
0.000618252
0.000618251
0.000618249
0.000618247
0.000618244
0.000618241
0.000618238
0.000618234
0.000618231
0.000618227
0.000618223
0.000618219
0.000618214
0.000618209
0.000618204
0.000618199
0.000618193
0.000618187
0.000618182
0.000618176
0.00061817
0.000618165
0.00061816
0.000618156
0.000618153
0.000618149
0.000618147
0.000618144
0.000618143
0.000618141
0.00061814
0.000618139
0.000618138
0.000618138
0.000618137
0.000618137
0.000618137
0.000618137
0.000618137
0.000618137
0.000618138
0.000618138
0.000618138
0.000618138
0.000618138
0.000618138
0.000618139
0.000618139
0.000618139
0.00061814
0.00061814
0.00061814
0.000618141
0.000618141
0.000618141
0.000618142
0.000618142
0.000618142
0.000618142
0.000618143
0.000618143
0.000618143
0.000618144
0.000618144
0.000618144
0.000618144
0.000618144
0.000618145
0.000618145
0.000618145
0.000618145
0.000618145
0.000618144
0.000618144
0.000618144
0.000618144
0.000618143
0.000618143
0.000618143
0.000618142
0.000618142
0.000618141
0.000618141
0.00061814
0.00061814
0.000618139
0.000618138
0.000618138
0.000618137
0.000618137
0.000618136
0.000618135
0.000618134
0.000618133
0.000618132
0.000618132
0.000618131
0.00061813
0.000618128
0.000618127
0.000618125
0.000618123
0.000618121
0.000618118
0.000618115
0.000618112
0.000618108
0.000618104
0.000618099
0.000618093
0.000618092
0.000618064
0.00059244
0.000592465
0.000592472
0.000592475
0.000592477
0.000592479
0.00059248
0.00059248
0.00059248
0.00059248
0.000592479
0.000592477
0.000592475
0.000592472
0.00059247
0.000592467
0.000592464
0.000592461
0.000592458
0.000592454
0.00059245
0.000592446
0.000592442
0.000592437
0.000592432
0.000592428
0.000592422
0.000592417
0.000592412
0.000592407
0.000592403
0.000592398
0.000592394
0.000592391
0.000592388
0.000592385
0.000592382
0.00059238
0.000592379
0.000592377
0.000592376
0.000592375
0.000592374
0.000592374
0.000592373
0.000592373
0.000592373
0.000592373
0.000592373
0.000592373
0.000592373
0.000592373
0.000592373
0.000592373
0.000592373
0.000592373
0.000592374
0.000592374
0.000592374
0.000592375
0.000592375
0.000592375
0.000592376
0.000592376
0.000592376
0.000592377
0.000592377
0.000592377
0.000592378
0.000592378
0.000592379
0.000592379
0.000592379
0.00059238
0.00059238
0.00059238
0.00059238
0.00059238
0.00059238
0.000592381
0.00059238
0.00059238
0.00059238
0.00059238
0.00059238
0.00059238
0.00059238
0.000592379
0.000592379
0.000592379
0.000592378
0.000592378
0.000592377
0.000592377
0.000592376
0.000592376
0.000592376
0.000592375
0.000592375
0.000592374
0.000592373
0.000592373
0.000592372
0.000592371
0.000592371
0.00059237
0.000592369
0.000592368
0.000592367
0.000592365
0.000592363
0.000592362
0.00059236
0.000592357
0.000592354
0.000592351
0.000592347
0.000592342
0.000592341
0.000592318
0.000567713
0.000567734
0.00056774
0.000567743
0.000567745
0.000567747
0.000567748
0.000567749
0.00056775
0.00056775
0.000567749
0.000567748
0.000567746
0.000567744
0.000567742
0.00056774
0.000567737
0.000567735
0.000567732
0.000567729
0.000567726
0.000567723
0.000567719
0.000567715
0.000567711
0.000567707
0.000567702
0.000567698
0.000567693
0.000567689
0.000567684
0.00056768
0.000567676
0.000567672
0.000567669
0.000567666
0.000567663
0.000567661
0.000567659
0.000567657
0.000567656
0.000567655
0.000567654
0.000567653
0.000567652
0.000567652
0.000567651
0.000567651
0.000567651
0.000567651
0.00056765
0.00056765
0.000567651
0.000567651
0.000567651
0.000567651
0.000567651
0.000567652
0.000567652
0.000567652
0.000567653
0.000567653
0.000567654
0.000567654
0.000567654
0.000567655
0.000567655
0.000567655
0.000567656
0.000567656
0.000567657
0.000567657
0.000567658
0.000567658
0.000567658
0.000567659
0.000567659
0.000567659
0.000567659
0.00056766
0.00056766
0.00056766
0.00056766
0.00056766
0.00056766
0.00056766
0.000567659
0.000567659
0.000567659
0.000567659
0.000567659
0.000567658
0.000567658
0.000567658
0.000567657
0.000567657
0.000567657
0.000567656
0.000567656
0.000567656
0.000567655
0.000567655
0.000567654
0.000567654
0.000567653
0.000567653
0.000567652
0.000567651
0.00056765
0.000567649
0.000567648
0.000567647
0.000567645
0.000567643
0.000567641
0.000567638
0.000567636
0.000567632
0.000567631
0.000567611
0.000543968
0.000543985
0.00054399
0.000543993
0.000543995
0.000543997
0.000543998
0.000543999
0.000544
0.000544
0.000544
0.000543999
0.000543998
0.000543996
0.000543995
0.000543993
0.000543991
0.000543989
0.000543987
0.000543984
0.000543982
0.000543979
0.000543976
0.000543973
0.000543969
0.000543966
0.000543962
0.000543958
0.000543954
0.00054395
0.000543946
0.000543941
0.000543938
0.000543934
0.000543931
0.000543928
0.000543925
0.000543922
0.00054392
0.000543918
0.000543917
0.000543915
0.000543914
0.000543913
0.000543913
0.000543912
0.000543912
0.000543911
0.000543911
0.000543911
0.000543911
0.000543911
0.000543911
0.000543911
0.000543911
0.000543911
0.000543911
0.000543912
0.000543912
0.000543913
0.000543913
0.000543913
0.000543914
0.000543914
0.000543915
0.000543915
0.000543915
0.000543916
0.000543916
0.000543917
0.000543918
0.000543918
0.000543918
0.000543919
0.000543919
0.00054392
0.00054392
0.00054392
0.000543921
0.000543921
0.000543921
0.000543921
0.000543921
0.000543921
0.000543921
0.000543921
0.000543922
0.000543921
0.000543921
0.000543921
0.000543921
0.000543921
0.000543921
0.000543921
0.00054392
0.00054392
0.00054392
0.00054392
0.00054392
0.000543919
0.000543919
0.000543919
0.000543918
0.000543918
0.000543917
0.000543917
0.000543917
0.000543916
0.000543915
0.000543915
0.000543914
0.000543913
0.000543912
0.00054391
0.000543908
0.000543906
0.000543904
0.000543901
0.000543901
0.000543884
0.000521147
0.00052116
0.000521164
0.000521167
0.000521169
0.000521171
0.000521172
0.000521173
0.000521174
0.000521175
0.000521175
0.000521174
0.000521173
0.000521172
0.000521171
0.000521169
0.000521168
0.000521166
0.000521164
0.000521162
0.00052116
0.000521158
0.000521155
0.000521153
0.00052115
0.000521147
0.000521143
0.00052114
0.000521136
0.000521133
0.000521129
0.000521125
0.000521121
0.000521118
0.000521115
0.000521112
0.000521109
0.000521107
0.000521105
0.000521103
0.000521101
0.0005211
0.000521099
0.000521098
0.000521097
0.000521097
0.000521096
0.000521096
0.000521095
0.000521095
0.000521095
0.000521095
0.000521095
0.000521095
0.000521095
0.000521096
0.000521096
0.000521097
0.000521097
0.000521097
0.000521098
0.000521098
0.000521099
0.000521099
0.0005211
0.0005211
0.0005211
0.000521101
0.000521102
0.000521102
0.000521103
0.000521103
0.000521104
0.000521104
0.000521105
0.000521105
0.000521106
0.000521106
0.000521106
0.000521107
0.000521107
0.000521107
0.000521107
0.000521108
0.000521108
0.000521108
0.000521108
0.000521108
0.000521108
0.000521108
0.000521108
0.000521108
0.000521108
0.000521108
0.000521108
0.000521108
0.000521107
0.000521107
0.000521107
0.000521107
0.000521107
0.000521107
0.000521106
0.000521106
0.000521106
0.000521106
0.000521105
0.000521105
0.000521105
0.000521104
0.000521103
0.000521103
0.000521102
0.000521101
0.000521099
0.000521098
0.000521096
0.000521093
0.000521093
0.000521079
0.000499195
0.000499205
0.000499209
0.000499211
0.000499213
0.000499214
0.000499216
0.000499217
0.000499218
0.000499219
0.000499219
0.000499218
0.000499217
0.000499217
0.000499216
0.000499215
0.000499213
0.000499212
0.000499211
0.000499209
0.000499208
0.000499206
0.000499204
0.000499201
0.000499199
0.000499196
0.000499193
0.00049919
0.000499187
0.000499184
0.00049918
0.000499177
0.000499173
0.00049917
0.000499167