/*--------------------------------*- C++ -*----------------------------------*\
  =========                 |
  \\      /  F ield         | OpenFOAM: The Open Source CFD Toolbox
   \\    /   O peration     | Website:  https://openfoam.org
    \\  /    A nd           | Version:  7
     \\/     M anipulation  |
\*---------------------------------------------------------------------------*/
FoamFile
{
    version     2.0;
    format      ascii;
    class       surfaceScalarField;
    location    "18000";
    object      phi;
}
// * * * * * * * * * * * * * * * * * * * * * * * * * * * * * * * * * * * * * //

dimensions      [0 3 -1 0 0 0 0];

internalField   nonuniform List<scalar> 
7768
(
0.000358118
-4.51433e-10
0.000358118
-6.14073e-10
0.000358119
-5.17655e-10
0.000358119
-3.69438e-10
0.000358119
-2.34256e-10
0.000358119
-1.21731e-10
0.000358119
-2.95431e-11
0.00035812
4.704e-11
0.00035812
1.12362e-10
0.00035812
1.69522e-10
0.00035812
2.20497e-10
0.00035812
2.66599e-10
0.00035812
3.08759e-10
0.000358121
3.47424e-10
0.000358121
3.83177e-10
0.000358121
4.16353e-10
0.000358121
4.49789e-10
0.000358121
4.82578e-10
0.000358121
5.32716e-10
0.000358121
5.92744e-10
7.5005e-10
0.000358114
-4.78968e-10
0.000358115
-5.32689e-10
0.000358115
-5.4111e-10
0.000358115
-5.2873e-10
0.000358116
-5.06682e-10
0.000358116
-4.75191e-10
0.000358116
-4.33744e-10
0.000358116
-3.80789e-10
0.000358116
-3.14626e-10
0.000358117
-2.30761e-10
0.000358117
-1.27083e-10
0.000358117
6.87831e-12
0.000358117
1.71361e-10
0.000358118
3.86805e-10
0.000358118
7.55622e-10
3.64206e-10
0.000348977
-6.54721e-10
0.000348977
-8.03295e-10
0.000348977
-7.00225e-10
0.000348977
-5.52098e-10
0.000348978
-4.18676e-10
0.000348978
-3.0743e-10
0.000348978
-2.1544e-10
0.000348978
-1.3788e-10
0.000348978
-7.05735e-11
0.000348978
-1.07184e-11
0.000348979
4.34825e-11
0.000348979
9.33136e-11
0.000348979
1.39675e-10
0.000348979
1.82896e-10
0.000348979
2.23449e-10
0.000348979
2.61582e-10
0.00034898
3.00603e-10
0.00034898
3.39119e-10
0.00034898
4.00049e-10
0.00034898
4.71123e-10
0.00034898
6.67786e-10
0.00034898
8.9785e-10
1.06056e-09
0.000348972
-6.16253e-10
0.000348972
-6.37227e-10
0.000348972
-5.98822e-10
0.000348973
-6.93874e-10
0.000348973
-8.46223e-10
0.000348973
-8.63024e-10
0.000348974
-8.39044e-10
0.000348974
-8.04808e-10
0.000348974
-7.65202e-10
0.000348974
-7.1923e-10
0.000348975
-6.65819e-10
0.000348975
-6.03067e-10
0.000348975
-5.2916e-10
0.000348975
-4.3951e-10
0.000348976
-3.32169e-10
0.000348976
-1.96565e-10
0.000348976
-3.30461e-11
0.000348976
1.76178e-10
0.000348976
5.4119e-10
1.51763e-10
0.000340031
-8.43319e-10
0.000340031
-9.87636e-10
0.000340031
-8.80246e-10
0.000340032
-7.30651e-10
0.000340032
-5.97608e-10
0.000340032
-4.87118e-10
0.000340032
-3.95324e-10
0.000340032
-3.17016e-10
0.000340033
-2.48023e-10
0.000340033
-1.85742e-10
0.000340033
-1.28524e-10
0.000340033
-7.51567e-11
0.000340033
-2.48392e-11
0.000340033
2.267e-11
0.000340034
6.77811e-11
0.000340034
1.10651e-10
0.000340034
1.54782e-10
0.000340034
1.98776e-10
0.000340034
2.65305e-10
0.000340034
3.47566e-10
0.000340034
4.93975e-10
0.000340035
7.21379e-10
0.000340035
1.01885e-09
0.000340034
1.24333e-09
0.000340034
1.26092e-09
0.000340034
1.20171e-09
0.000340034
1.14205e-09
0.000340034
1.09263e-09
0.000340033
1.05165e-09
0.000340033
1.01631e-09
0.000340033
9.84861e-10
0.000340033
9.55987e-10
0.000340033
9.2887e-10
0.000340033
9.03279e-10
0.000340032
8.79158e-10
0.000340032
8.56152e-10
0.000340032
8.33925e-10
0.000340032
8.12679e-10
0.000340032
7.92806e-10
0.000340032
7.74258e-10
0.000340032
7.56651e-10
0.000340032
7.3965e-10
0.000340032
7.23126e-10
0.000340031
7.06936e-10
0.000340031
6.907e-10
0.000340031
6.7405e-10
0.000340031
6.56782e-10
0.000340031
6.38681e-10
0.000340031
6.19443e-10
0.000340031
5.98853e-10
0.000340031
5.76888e-10
0.000340031
5.53341e-10
0.000340031
5.27829e-10
0.00034003
5.00507e-10
0.00034003
4.72004e-10
0.00034003
4.42554e-10
0.00034003
4.11805e-10
0.00034003
3.79596e-10
0.00034003
3.4643e-10
0.00034003
3.12801e-10
0.00034003
2.78631e-10
0.00034003
2.43762e-10
0.00034003
2.08459e-10
0.00034003
1.73092e-10
0.00034003
1.37828e-10
0.00034003
1.02689e-10
0.000340029
6.75304e-11
0.000340029
3.21251e-11
0.000340029
-3.42257e-12
0.000340029
-3.8593e-11
0.000340029
-7.30791e-11
0.000340029
-1.07124e-10
0.000340029
-1.41017e-10
0.000340029
-1.74643e-10
0.000340029
-2.07776e-10
0.000340029
-2.40447e-10
0.000340029
-2.72689e-10
0.000340029
-3.04362e-10
0.000340029
-3.35429e-10
0.000340028
-3.65894e-10
0.000340028
-3.9563e-10
0.000340028
-4.24624e-10
0.000340028
-4.52983e-10
0.000340028
-4.80569e-10
0.000340028
-5.07053e-10
0.000340028
-5.32273e-10
0.000340028
-5.56168e-10
0.000340028
-5.78608e-10
0.000340028
-5.99362e-10
0.000340028
-6.17992e-10
0.000340028
-6.34089e-10
0.000340028
-6.47353e-10
0.000340028
-6.57374e-10
0.000340027
-6.63295e-10
0.000340027
-6.64454e-10
0.000340027
-6.58469e-10
0.000340027
-6.44162e-10
0.000340027
-6.16483e-10
0.000340027
-5.62217e-10
0.000340027
-6.47884e-10
0.000340027
-7.89082e-10
0.000340028
-7.97341e-10
0.000340028
-7.52355e-10
0.000340028
-8.47504e-10
0.000340028
-1.01587e-09
0.000340028
-1.05475e-09
0.000340028
-1.04001e-09
0.000340029
-1.00745e-09
0.000340029
-9.65544e-10
0.000340029
-9.15614e-10
0.000340029
-8.57734e-10
0.000340029
-7.90714e-10
0.00034003
-7.13273e-10
0.00034003
-6.21159e-10
0.00034003
-5.12889e-10
0.00034003
-3.78093e-10
0.00034003
-2.17753e-10
0.00034003
-1.71574e-11
0.000340031
3.40272e-10
-4.43358e-11
0.000331277
-1.00669e-09
0.000331277
-1.155e-09
0.000331277
-1.04959e-09
0.000331278
-9.00382e-10
0.000331278
-7.67659e-10
0.000331278
-6.57661e-10
0.000331278
-5.66046e-10
0.000331278
-4.87216e-10
0.000331279
-4.1689e-10
0.000331279
-3.52529e-10
0.000331279
-2.92585e-10
0.000331279
-2.35974e-10
0.000331279
-1.82055e-10
0.000331279
-1.30649e-10
0.000331279
-8.13543e-11
0.00033128
-3.4083e-11
0.00033128
1.45945e-11
0.00033128
6.36992e-11
0.00033128
1.32215e-10
0.00033128
2.23343e-10
0.00033128
3.19517e-10
0.000331281
4.95368e-10
0.000331281
7.77634e-10
0.000331281
1.06685e-09
0.000331281
1.24237e-09
0.000331281
1.28131e-09
0.000331281
1.2589e-09
0.000331281
1.22002e-09
0.000331281
1.18058e-09
0.00033128
1.14401e-09
0.00033128
1.11031e-09
0.00033128
1.07874e-09
0.00033128
1.04884e-09
0.00033128
1.02058e-09
0.00033128
9.93891e-10
0.00033128
9.68328e-10
0.00033128
9.43601e-10
0.000331279
9.20026e-10
0.000331279
8.97909e-10
0.000331279
8.77073e-10
0.000331279
8.5716e-10
0.000331279
8.37904e-10
0.000331279
8.1918e-10
0.000331279
8.00825e-10
0.000331279
7.82481e-10
0.000331279
7.63812e-10
0.000331279
7.44641e-10
0.000331279
7.24787e-10
0.000331278
7.03959e-10
0.000331278
6.81918e-10
0.000331278
6.5861e-10
0.000331278
6.33842e-10
0.000331278
6.07297e-10
0.000331278
5.79128e-10
0.000331278
5.49882e-10
0.000331278
5.19685e-10
0.000331278
4.88192e-10
0.000331278
4.55409e-10
0.000331278
4.21876e-10
0.000331278
3.87917e-10
0.000331277
3.53425e-10
0.000331277
3.18399e-10
0.000331277
2.83046e-10
0.000331277
2.47583e-10
0.000331277
2.12204e-10
0.000331277
1.76988e-10
0.000331277
1.41766e-10
0.000331277
1.06381e-10
0.000331277
7.10432e-11
0.000331277
3.61467e-11
0.000331277
1.7893e-12
0.000331277
-3.22741e-11
0.000331277
-6.61827e-11
0.000331277
-9.97498e-11
0.000331276
-1.32827e-10
0.000331276
-1.65467e-10
0.000331276
-1.97612e-10
0.000331276
-2.2916e-10
0.000331276
-2.60173e-10
0.000331276
-2.90608e-10
0.000331276
-3.20255e-10
0.000331276
-3.49121e-10
0.000331276
-3.77362e-10
0.000331276
-4.0488e-10
0.000331276
-4.31374e-10
0.000331276
-4.56624e-10
0.000331276
-4.80523e-10
0.000331275
-5.03037e-10
0.000331275
-5.23963e-10
0.000331275
-5.42773e-10
0.000331275
-5.59085e-10
0.000331275
-5.72671e-10
0.000331275
-5.83113e-10
0.000331275
-5.89625e-10
0.000331275
-5.91633e-10
0.000331275
-5.875e-10
0.000331275
-5.75725e-10
0.000331275
-5.5773e-10
0.000331275
-5.1855e-10
0.000331275
-6.20099e-10
0.000331275
-7.92031e-10
0.000331275
-8.3829e-10
0.000331275
-8.22985e-10
0.000331275
-9.13344e-10
0.000331275
-1.07047e-09
0.000331275
-1.1289e-09
0.000331275
-1.1375e-09
0.000331275
-1.12221e-09
0.000331275
-1.09145e-09
0.000331275
-1.0484e-09
0.000331276
-9.9465e-10
0.000331276
-9.30199e-10
0.000331276
-8.54686e-10
0.000331276
-7.64544e-10
0.000331276
-6.59048e-10
0.000331276
-5.28332e-10
0.000331276
-3.74063e-10
0.000331277
-1.84792e-10
0.000331277
1.61235e-10
-2.16268e-10
0.000322711
-1.13948e-09
0.000322711
-1.29682e-09
0.000322711
-1.20011e-09
0.000322712
-1.05546e-09
0.000322712
-9.24809e-10
0.000322712
-8.15927e-10
0.000322712
-7.24822e-10
0.000322712
-6.45829e-10
0.000322712
-5.74603e-10
0.000322713
-5.08589e-10
0.000322713
-4.46301e-10
0.000322713
-3.86842e-10
0.000322713
-3.29763e-10
0.000322713
-2.74924e-10
0.000322713
-2.21908e-10
0.000322713
-1.70665e-10
0.000322714
-1.18038e-10
0.000322714
-6.43489e-11
0.000322714
4.34189e-12
0.000322714
1.00417e-10
0.000322714
1.64676e-10
0.000322714
2.83701e-10
0.000322715
5.00335e-10
0.000322715
7.70275e-10
0.000322715
1.03789e-09
0.000322715
1.18832e-09
0.000322715
1.24197e-09
0.000322715
1.24564e-09
0.000322715
1.22923e-09
0.000322715
1.20588e-09
0.000322715
1.18028e-09
0.000322715
1.15381e-09
0.000322715
1.12718e-09
0.000322715
1.10104e-09
0.000322715
1.07571e-09
0.000322715
1.05094e-09
0.000322715
1.02655e-09
0.000322714
1.00304e-09
0.000322714
9.80764e-10
0.000322714
9.59482e-10
0.000322714
9.3888e-10
0.000322714
9.18802e-10
0.000322714
8.99178e-10
0.000322714
8.79837e-10
0.000322714
8.60462e-10
0.000322714
8.40793e-10
0.000322714
8.20681e-10
0.000322714
7.99955e-10
0.000322714
7.78336e-10
0.000322713
7.55597e-10
0.000322713
7.31633e-10
0.000322713
7.06217e-10
0.000322713
6.79145e-10
0.000322713
6.50651e-10
0.000322713
6.21184e-10
0.000322713
5.90711e-10
0.000322713
5.58897e-10
0.000322713
5.2592e-10
0.000322713
4.92366e-10
0.000322713
4.58406e-10
0.000322713
4.23887e-10
0.000322713
3.8897e-10
0.000322713
3.53869e-10
0.000322712
3.18634e-10
0.000322712
2.83418e-10
0.000322712
2.48363e-10
0.000322712
2.13301e-10
0.000322712
1.78096e-10
0.000322712
1.43079e-10
0.000322712
1.08619e-10
0.000322712
7.46181e-11
0.000322712
4.07553e-11
0.000322712
6.9936e-12
0.000322712
-2.63997e-11
0.000322712
-5.92994e-11
0.000322712
-9.17552e-11
0.000322712
-1.23659e-10
0.000322711
-1.54957e-10
0.000322711
-1.85802e-10
0.000322711
-2.1611e-10
0.000322711
-2.45585e-10
0.000322711
-2.74235e-10
0.000322711
-3.02267e-10
0.000322711
-3.29615e-10
0.000322711
-3.55999e-10
0.000322711
-3.81178e-10
0.000322711
-4.05021e-10
0.000322711
-4.27554e-10
0.000322711
-4.48577e-10
0.000322711
-4.67502e-10
0.000322711
-4.83992e-10
0.00032271
-4.97888e-10
0.00032271
-5.0873e-10
0.00032271
-5.15779e-10
0.00032271
-5.18582e-10
0.00032271
-5.16202e-10
0.00032271
-5.07032e-10
0.00032271
-4.96384e-10
0.00032271
-4.71304e-10
0.00032271
-5.63121e-10
0.00032271
-7.25175e-10
0.00032271
-7.96468e-10
0.00032271
-8.16419e-10
0.00032271
-9.10294e-10
0.00032271
-1.05274e-09
0.00032271
-1.12026e-09
0.00032271
-1.1491e-09
0.00032271
-1.15483e-09
0.00032271
-1.14202e-09
0.00032271
-1.11328e-09
0.00032271
-1.07067e-09
0.00032271
-1.01498e-09
0.00032271
-9.46716e-10
0.00032271
-8.63081e-10
0.00032271
-7.64264e-10
0.00032271
-6.41119e-10
0.000322711
-4.96032e-10
0.000322711
-3.20841e-10
0.000322711
9.97618e-12
-3.59654e-10
0.000314329
-1.23973e-09
0.000314329
-1.4086e-09
0.00031433
-1.32595e-09
0.00031433
-1.19066e-09
0.00031433
-1.06508e-09
0.00031433
-9.58919e-10
0.00031433
-8.69205e-10
0.00031433
-7.90682e-10
0.00031433
-7.19132e-10
0.000314331
-6.51993e-10
0.000314331
-5.87851e-10
0.000314331
-5.26037e-10
0.000314331
-4.66301e-10
0.000314331
-4.08527e-10
0.000314331
-3.52299e-10
0.000314331
-2.97579e-10
0.000314331
-2.41598e-10
0.000314332
-1.83973e-10
0.000314332
-1.15771e-10
0.000314332
-1.85265e-11
0.000314332
2.97041e-11
0.000314332
1.04401e-10
0.000314332
2.50973e-10
0.000314333
4.61844e-10
0.000314333
7.47837e-10
0.000314333
9.73059e-10
0.000314333
1.10497e-09
0.000314333
1.16765e-09
0.000314333
1.19096e-09
0.000314333
1.1942e-09
0.000314333
1.18702e-09
0.000314333
1.17377e-09
0.000314333
1.15689e-09
0.000314333
1.13812e-09
0.000314333
1.11851e-09
0.000314333
1.09826e-09
0.000314333
1.07744e-09
0.000314333
1.05675e-09
0.000314333
1.0367e-09
0.000314333
1.01712e-09
0.000314333
9.97744e-10
0.000314333
9.78546e-10
0.000314333
9.59564e-10
0.000314333
9.40649e-10
0.000314333
9.21538e-10
0.000314333
9.02068e-10
0.000314333
8.8214e-10
0.000314333
8.61572e-10
0.000314333
8.40101e-10
0.000314332
8.17537e-10
0.000314332
7.93726e-10
0.000314332
7.68373e-10
0.000314332
7.41394e-10
0.000314332
7.13165e-10
0.000314332
6.84049e-10
0.000314332
6.53862e-10
0.000314332
6.22269e-10
0.000314332
5.89575e-10
0.000314332
5.564e-10
0.000314332
5.2282e-10
0.000314332
4.88648e-10
0.000314332
4.54161e-10
0.000314332
4.19625e-10
0.000314332
3.84963e-10
0.000314331
3.50241e-10
0.000314331
3.15648e-10
0.000314331
2.81025e-10
0.000314331
2.46211e-10
0.000314331
2.11642e-10
0.000314331
1.77749e-10
0.000314331
1.44317e-10
0.000314331
1.10914e-10
0.000314331
7.75208e-11
0.000314331
4.44562e-11
0.000314331
1.18861e-11
0.000314331
-2.0208e-11
0.000314331
-5.17245e-11
0.000314331
-8.26574e-11
0.000314331
-1.13197e-10
0.00031433
-1.43233e-10
0.00031433
-1.72418e-10
0.00031433
-2.0076e-10
0.00031433
-2.285e-10
0.00031433
-2.55579e-10
0.00031433
-2.81722e-10
0.00031433
-3.06707e-10
0.00031433
-3.30416e-10
0.00031433
-3.52889e-10
0.00031433
-3.73905e-10
0.00031433
-3.92863e-10
0.00031433
-4.09483e-10
0.00031433
-4.23651e-10
0.000314329
-4.34852e-10
0.000314329
-4.42394e-10
0.000314329
-4.4595e-10
0.000314329
-4.45181e-10
0.000314329
-4.38558e-10
0.000314329
-4.33415e-10
0.000314329
-4.20097e-10
0.000314329
-4.99054e-10
0.000314329
-6.3721e-10
0.000314329
-7.13776e-10
0.000314329
-7.57119e-10
0.000314329
-8.56354e-10
0.000314329
-9.87498e-10
0.000314329
-1.05756e-09
0.000314329
-1.09893e-09
0.000314329
-1.1219e-09
0.000314328
-1.12726e-09
0.000314328
-1.11553e-09
0.000314329
-1.08791e-09
0.000314329
-1.04519e-09
0.000314329
-9.88234e-10
0.000314329
-9.14868e-10
0.000314329
-8.26139e-10
0.000314329
-7.13719e-10
0.000314329
-5.807e-10
0.000314329
-4.22136e-10
0.000314329
-1.10074e-10
-4.72337e-10
0.000306128
-1.30771e-09
0.000306128
-1.48911e-09
0.000306128
-1.42413e-09
0.000306128
-1.30244e-09
0.000306128
-1.18535e-09
0.000306128
-1.08415e-09
0.000306129
-9.97228e-10
0.000306129
-9.2013e-10
0.000306129
-8.49013e-10
0.000306129
-7.81397e-10
0.000306129
-7.15997e-10
0.000306129
-6.52405e-10
0.000306129
-5.9055e-10
0.00030613
-5.30352e-10
0.00030613
-4.71438e-10
0.00030613
-4.13765e-10
0.00030613
-3.55004e-10
0.00030613
-2.94146e-10
0.00030613
-2.26542e-10
0.00030613
-1.30854e-10
0.00030613
-8.88842e-11
0.00030613
-4.31007e-11
0.000306131
4.68269e-11
0.000306131
1.91072e-10
0.000306131
4.4743e-10
0.000306132
6.99759e-10
0.000306132
8.87081e-10
0.000306132
1.00589e-09
0.000306132
1.07483e-09
0.000306132
1.1126e-09
0.000306132
1.13136e-09
0.000306132
1.13792e-09
0.000306132
1.13641e-09
0.000306132
1.12976e-09
0.000306132
1.11994e-09
0.000306132
1.10777e-09
0.000306132
1.09367e-09
0.000306132
1.07855e-09
0.000306132
1.06315e-09
0.000306132
1.04745e-09
0.000306132
1.03129e-09
0.000306132
1.01478e-09
0.000306132
9.98079e-10
0.000306132
9.81108e-10
0.000306132
9.63661e-10
0.000306132
9.45683e-10
0.000306132
9.27138e-10
0.000306132
9.07834e-10
0.000306132
8.87517e-10
0.000306132
8.66056e-10
0.000306132
8.43262e-10
0.000306132
8.18764e-10
0.000306132
7.92592e-10
0.000306131
7.65266e-10
0.000306131
7.371e-10
0.000306131
7.078e-10
0.000306131
6.77036e-10
0.000306131
6.45163e-10
0.000306131
6.1281e-10
0.000306131
5.80033e-10
0.000306131
5.46635e-10
0.000306131
5.12948e-10
0.000306131
4.79297e-10
0.000306131
4.45545e-10
0.000306131
4.11673e-10
0.000306131
3.7788e-10
0.000306131
3.43999e-10
0.000306131
3.09831e-10
0.000306131
2.7588e-10
0.000306131
2.42687e-10
0.00030613
2.1001e-10
0.00030613
1.77322e-10
0.00030613
1.44547e-10
0.00030613
1.12008e-10
0.00030613
7.99507e-11
0.00030613
4.84041e-11
0.00030613
1.74207e-11
0.00030613
-1.30268e-11
0.00030613
-4.31096e-11
0.00030613
-7.27055e-11
0.00030613
-1.01462e-10
0.00030613
-1.29392e-10
0.00030613
-1.56752e-10
0.00030613
-1.83466e-10
0.000306129
-2.0924e-10
0.000306129
-2.33898e-10
0.000306129
-2.57378e-10
0.000306129
-2.79694e-10
0.000306129
-3.00583e-10
0.000306129
-3.19478e-10
0.000306129
-3.36166e-10
0.000306129
-3.50546e-10
0.000306129
-3.62049e-10
0.000306129
-3.70043e-10
0.000306129
-3.7431e-10
0.000306129
-3.74995e-10
0.000306129
-3.7076e-10
0.000306129
-3.69824e-10
0.000306129
-3.65536e-10
0.000306128
-4.34081e-10
0.000306128
-5.4802e-10
0.000306128
-6.17961e-10
0.000306128
-6.70417e-10
0.000306128
-7.70646e-10
0.000306128
-8.92558e-10
0.000306128
-9.6189e-10
0.000306128
-1.00898e-09
0.000306128
-1.04285e-09
0.000306128
-1.06251e-09
0.000306128
-1.06644e-09
0.000306128
-1.05435e-09
0.000306128
-1.02625e-09
0.000306128
-9.82807e-10
0.000306128
-9.22138e-10
0.000306128
-8.45914e-10
0.000306128
-7.46618e-10
0.000306128
-6.27979e-10
0.000306128
-4.88125e-10
0.000306128
-1.97867e-10
-5.53978e-10
0.000298103
-1.34526e-09
0.000298104
-1.53943e-09
0.000298104
-1.49424e-09
0.000298104
-1.38936e-09
0.000298104
-1.28385e-09
0.000298104
-1.19004e-09
0.000298104
-1.10761e-09
0.000298104
-1.03314e-09
0.000298104
-9.63382e-10
0.000298104
-8.96052e-10
0.000298104
-8.30082e-10
0.000298105
-7.65339e-10
0.000298105
-7.01917e-10
0.000298105
-6.39799e-10
0.000298105
-5.78713e-10
0.000298105
-5.18611e-10
0.000298105
-4.57608e-10
0.000298105
-3.9421e-10
0.000298105
-3.27123e-10
0.000298105
-2.34569e-10
0.000298105
-1.93937e-10
0.000298106
-1.64551e-10
0.000298106
-1.14148e-10
0.000298106
-2.74622e-11
0.000298106
1.78322e-10
0.000298107
4.203e-10
0.000298107
6.32441e-10
0.000298107
7.91338e-10
0.000298107
9.00929e-10
0.000298107
9.73946e-10
0.000298107
1.02165e-09
0.000298108
1.05171e-09
0.000298108
1.06928e-09
0.000298108
1.07821e-09
0.000298108
1.08133e-09
0.000298108
1.08013e-09
0.000298108
1.07537e-09
0.000298108
1.06821e-09
0.000298108
1.05963e-09
0.000298108
1.04983e-09
0.000298108
1.03876e-09
0.000298108
1.02665e-09
0.000298108
1.01383e-09
0.000298108
1.00029e-09
0.000298108
9.85898e-10
0.000298108
9.70701e-10
0.000298108
9.54733e-10
0.000298108
9.37787e-10
0.000298108
9.19626e-10
0.000298108
9.00191e-10
0.000298107
8.7927e-10
0.000298107
8.56448e-10
0.000298107
8.31844e-10
0.000298107
8.06085e-10
0.000298107
7.79468e-10
0.000298107
7.51661e-10
0.000298107
7.22344e-10
0.000298107
6.9185e-10
0.000298107
6.60789e-10
0.000298107
6.29261e-10
0.000298107
5.9709e-10
0.000298107
5.64601e-10
0.000298107
5.32163e-10
0.000298107
4.99646e-10
0.000298107
4.66978e-10
0.000298107
4.34323e-10
0.000298107
4.0149e-10
0.000298107
3.68244e-10
0.000298107
3.35127e-10
0.000298107
3.02793e-10
0.000298106
2.71043e-10
0.000298106
2.393e-10
0.000298106
2.07393e-10
0.000298106
1.75605e-10
0.000298106
1.44263e-10
0.000298106
1.13444e-10
0.000298106
8.31386e-11
0.000298106
5.33145e-11
0.000298106
2.38521e-11
0.000298106
-5.13423e-12
0.000298106
-3.33219e-11
0.000298106
-6.07257e-11
0.000298106
-8.76017e-11
0.000298106
-1.13848e-10
0.000298106
-1.39137e-10
0.000298105
-1.63346e-10
0.000298105
-1.86491e-10
0.000298105
-2.08535e-10
0.000298105
-2.29172e-10
0.000298105
-2.47904e-10
0.000298105
-2.64583e-10
0.000298105
-2.79094e-10
0.000298105
-2.90831e-10
0.000298105
-2.99232e-10
0.000298105
-3.04164e-10
0.000298105
-3.06138e-10
0.000298105
-3.04072e-10
0.000298105
-3.06425e-10
0.000298105
-3.08736e-10
0.000298105
-3.69626e-10
0.000298104
-4.63829e-10
0.000298104
-5.23106e-10
0.000298104
-5.7465e-10
0.000298104
-6.69863e-10
0.000298104
-7.8211e-10
0.000298104
-8.486e-10
0.000298104
-8.96605e-10
0.000298104
-9.35365e-10
0.000298104
-9.63936e-10
0.000298104
-9.79761e-10
0.000298103
-9.81147e-10
0.000298103
-9.66989e-10
0.000298103
-9.37348e-10
0.000298103
-8.90266e-10
0.000298103
-8.2774e-10
0.000298103
-7.42984e-10
0.000298103
-6.40246e-10
0.000298103
-5.20535e-10
0.000298103
-2.54462e-10
-6.05839e-10
0.000290252
-1.35538e-09
0.000290252
-1.5622e-09
0.000290252
-1.53784e-09
0.000290253
-1.45184e-09
0.000290253
-1.36034e-09
0.000290253
-1.2761e-09
0.000290253
-1.1999e-09
0.000290253
-1.1294e-09
0.000290253
-1.06201e-09
0.000290253
-9.95797e-10
0.000290253
-9.29992e-10
0.000290253
-8.64743e-10
0.000290253
-8.00294e-10
0.000290253
-7.36742e-10
0.000290254
-6.7397e-10
0.000290254
-6.11938e-10
0.000290254
-5.49182e-10
0.000290254
-4.83877e-10
0.000290254
-4.172e-10
0.000290254
-3.28473e-10
0.000290254
-2.87157e-10
0.000290254
-2.65703e-10
0.000290254
-2.39961e-10
0.000290255
-1.96134e-10
0.000290255
-4.33696e-11
0.000290255
1.66743e-10
0.000290255
3.77182e-10
0.000290256
5.55621e-10
0.000290256
6.93807e-10
0.000290256
7.96471e-10
0.000290256
8.71364e-10
0.000290256
9.25164e-10
0.000290256
9.63039e-10
0.000290256
9.89227e-10
0.000290256
1.00712e-09
0.000290256
1.01872e-09
0.000290257
1.02515e-09
0.000290257
1.02772e-09
0.000290257
1.02766e-09
0.000290257
1.02537e-09
0.000290257
1.02095e-09
0.000290257
1.01476e-09
0.000290257
1.00723e-09
0.000290257
9.98466e-10
0.000290257
9.88402e-10
0.000290257
9.77177e-10
0.000290257
9.64886e-10
0.000290257
9.51312e-10
0.000290257
9.36246e-10
0.000290257
9.19695e-10
0.000290257
9.01449e-10
0.000290257
8.81095e-10
0.000290257
8.58811e-10
0.000290257
8.35274e-10
0.000290256
8.10788e-10
0.000290256
7.85057e-10
0.000290256
7.57776e-10
0.000290256
7.29199e-10
0.000290256
6.99903e-10
0.000290256
6.70071e-10
0.000290256
6.39574e-10
0.000290256
6.08685e-10
0.000290256
5.77785e-10
0.000290256
5.46817e-10
0.000290256
5.15689e-10
0.000290256
4.84484e-10
0.000290256
4.52983e-10
0.000290256
4.20937e-10
0.000290256
3.88901e-10
0.000290256
3.57616e-10
0.000290256
3.2697e-10
0.000290256
2.96374e-10
0.000290256
2.65561e-10
0.000290256
2.34759e-10
0.000290256
2.04341e-10
0.000290255
1.74414e-10
0.000290255
1.44935e-10
0.000290255
1.15894e-10
0.000290255
8.72183e-11
0.000290255
5.89941e-11
0.000290255
3.15074e-11
0.000290255
4.75416e-12
0.000290255
-2.15155e-11
0.000290255
-4.71838e-11
0.000290255
-7.18857e-11
0.000290255
-9.55435e-11
0.000290255
-1.18241e-10
0.000290255
-1.39887e-10
0.000290255
-1.60146e-10
0.000290255
-1.78619e-10
0.000290254
-1.95203e-10
0.000290254
-2.09751e-10
0.000290254
-2.21642e-10
0.000290254
-2.30399e-10
0.000290254
-2.35936e-10
0.000290254
-2.39039e-10
0.000290254
-2.38895e-10
0.000290254
-2.43855e-10
0.000290254
-2.50866e-10
0.000290254
-3.06037e-10
0.000290254
-3.85499e-10
0.000290254
-4.346e-10
0.000290254
-4.80325e-10
0.000290253
-5.65994e-10
0.000290253
-6.67019e-10
0.000290253
-7.28795e-10
0.000290253
-7.74503e-10
0.000290253
-8.1351e-10
0.000290253
-8.45861e-10
0.000290253
-8.68988e-10
0.000290253
-8.80336e-10
0.000290253
-8.77773e-10
0.000290253
-8.60614e-10
0.000290252
-8.26598e-10
0.000290252
-7.77755e-10
0.000290252
-7.07936e-10
0.000290252
-6.21752e-10
0.000290252
-5.22879e-10
0.000290252
-2.8262e-10
-6.30549e-10
0.000282571
-1.34189e-09
0.000282571
-1.56104e-09
0.000282571
-1.55784e-09
0.000282571
-1.49183e-09
0.000282571
-1.41595e-09
0.000282572
-1.34298e-09
0.000282572
-1.27455e-09
0.000282572
-1.20929e-09
0.000282572
-1.14529e-09
0.000282572
-1.08103e-09
0.000282572
-1.01611e-09
0.000282572
-9.50976e-10
0.000282572
-8.86012e-10
0.000282572
-8.21482e-10
0.000282572
-7.5747e-10
0.000282572
-6.93958e-10
0.000282572
-6.29877e-10
0.000282573
-5.63209e-10
0.000282573
-4.96869e-10
0.000282573
-4.12089e-10
0.000282573
-3.69526e-10
0.000282573
-3.50933e-10
0.000282573
-3.389e-10
0.000282573
-3.23537e-10
0.000282573
-2.16634e-10
0.000282573
-4.62445e-11
0.000282574
1.4488e-10
0.000282574
3.24316e-10
0.000282574
4.76682e-10
0.000282574
5.99578e-10
0.000282575
6.96185e-10
0.000282575
7.70866e-10
0.000282575
8.27806e-10
0.000282575
8.71008e-10
0.000282575
9.04e-10
0.000282575
9.29064e-10
0.000282575
9.47519e-10
0.000282575
9.60832e-10
0.000282575
9.70363e-10
0.000282575
9.76702e-10
0.000282575
9.80095e-10
0.000282575
9.80984e-10
0.000282575
9.79883e-10
0.000282576
9.76983e-10
0.000282576
9.72307e-10
0.000282576
9.66064e-10
0.000282576
9.58387e-10
0.000282576
9.49059e-10
0.000282576
9.37909e-10
0.000282576
9.24992e-10
0.000282576
9.10128e-10
0.000282576
8.92957e-10
0.000282576
8.73686e-10
0.000282575
8.52976e-10
0.000282575
8.31164e-10
0.000282575
8.08047e-10
0.000282575
7.83329e-10
0.000282575
7.57159e-10
0.000282575
7.30073e-10
0.000282575
7.02366e-10
0.000282575
6.73961e-10
0.000282575
6.45048e-10
0.000282575
6.16e-10
0.000282575
5.86876e-10
0.000282575
5.57585e-10
0.000282575
5.28106e-10
0.000282575
4.9819e-10
0.000282575
4.67611e-10
0.000282575
4.36914e-10
0.000282575
4.06891e-10
0.000282575
3.7753e-10
0.000282575
3.48258e-10
0.000282575
3.1874e-10
0.000282575
2.89143e-10
0.000282575
2.59846e-10
0.000282575
2.30967e-10
0.000282575
2.02468e-10
0.000282574
1.74378e-10
0.000282574
1.46646e-10
0.000282574
1.19315e-10
0.000282574
9.26525e-11
0.000282574
6.6676e-11
0.000282574
4.11433e-11
0.000282574
1.61738e-11
0.000282574
-7.84892e-12
0.000282574
-3.08736e-11
0.000282574
-5.30147e-11
0.000282574
-7.41315e-11
0.000282574
-9.38988e-11
0.000282574
-1.12025e-10
0.000282574
-1.28425e-10
0.000282574
-1.42901e-10
0.000282574
-1.54857e-10
0.000282573
-1.63907e-10
0.000282573
-1.69984e-10
0.000282573
-1.74062e-10
0.000282573
-1.75581e-10
0.000282573
-1.82611e-10
0.000282573
-1.92935e-10
0.000282573
-2.43592e-10
0.000282573
-3.12328e-10
0.000282573
-3.53462e-10
0.000282573
-3.92141e-10
0.000282573
-4.66167e-10
0.000282573
-5.54707e-10
0.000282572
-6.10179e-10
0.000282572
-6.51489e-10
0.000282572
-6.87564e-10
0.000282572
-7.19605e-10
0.000282572
-7.45706e-10
0.000282572
-7.63071e-10
0.000282572
-7.68896e-10
0.000282572
-7.61854e-10
0.000282572
-7.39313e-10
0.000282572
-7.0314e-10
0.000282571
-6.47756e-10
0.000282571
-5.77953e-10
0.000282571
-4.99881e-10
0.000282571
-2.86318e-10
-6.31776e-10
0.000275057
-1.30912e-09
0.000275057
-1.54013e-09
0.000275057
-1.55789e-09
0.000275057
-1.51226e-09
0.000275057
-1.45285e-09
0.000275057
-1.3923e-09
0.000275057
-1.33285e-09
0.000275057
-1.27391e-09
0.000275057
-1.21418e-09
0.000275057
-1.15263e-09
0.000275057
-1.08928e-09
0.000275057
-1.0248e-09
0.000275058
-9.59782e-10
0.000275058
-8.94688e-10
0.000275058
-8.29828e-10
0.000275058
-7.65225e-10
0.000275058
-7.00172e-10
0.000275058
-6.32584e-10
0.000275058
-5.66541e-10
0.000275058
-4.85501e-10
0.000275058
-4.41738e-10
0.000275058
-4.23264e-10
0.000275058
-4.17657e-10
0.000275058
-4.19106e-10
0.000275058
-3.47545e-10
0.000275059
-2.15806e-10
0.000275059
-5.26514e-11
0.000275059
1.14458e-10
0.000275059
2.67905e-10
0.000275059
4.00554e-10
0.00027506
5.11372e-10
0.00027506
6.01879e-10
0.00027506
6.74654e-10
0.00027506
7.32941e-10
0.00027506
7.79968e-10
0.00027506
8.17974e-10
0.00027506
8.48338e-10
0.000275061
8.7258e-10
0.000275061
8.92114e-10
0.000275061
9.07637e-10
0.000275061
9.19504e-10
0.000275061
9.28212e-10
0.000275061
9.34314e-10
0.000275061
9.38065e-10
0.000275061
9.39565e-10
0.000275061
9.3907e-10
0.000275061
9.36728e-10
0.000275061
9.32337e-10
0.000275061
9.25768e-10
0.000275061
9.17097e-10
0.000275061
9.06197e-10
0.000275061
8.92807e-10
0.000275061
8.77134e-10
0.000275061
8.59779e-10
0.000275061
8.41124e-10
0.000275061
8.21084e-10
0.000275061
7.99373e-10
0.000275061
7.76026e-10
0.000275061
7.51551e-10
0.000275061
7.26355e-10
0.000275061
7.00412e-10
0.000275061
6.73807e-10
0.000275061
6.46899e-10
0.000275061
6.19878e-10
0.000275061
5.92672e-10
0.000275061
5.65148e-10
0.000275061
5.37042e-10
0.000275061
5.08172e-10
0.000275061
4.79063e-10
0.000275061
4.50523e-10
0.00027506
4.22626e-10
0.00027506
3.94837e-10
0.00027506
3.66783e-10
0.00027506
3.38583e-10
0.00027506
3.10582e-10
0.00027506
2.82901e-10
0.00027506
2.55538e-10
0.00027506
2.2856e-10
0.00027506
2.01906e-10
0.00027506
1.75584e-10
0.00027506
1.49861e-10
0.00027506
1.2478e-10
0.00027506
1.0011e-10
0.00027506
7.59626e-11
0.00027506
5.27076e-11
0.00027506
3.03857e-11
0.00027506
8.90172e-12
0.00027506
-1.15635e-11
0.000275059
-3.07424e-11
0.000275059
-4.84481e-11
0.000275059
-6.45694e-11
0.000275059
-7.88581e-11
0.000275059
-9.07811e-11
0.000275059
-1.00051e-10
0.000275059
-1.06591e-10
0.000275059
-1.115e-10
0.000275059
-1.14428e-10
0.000275059
-1.2309e-10
0.000275059
-1.35742e-10
0.000275059
-1.82642e-10
0.000275059
-2.43487e-10
0.000275059
-2.79005e-10
0.000275059
-3.11369e-10
0.000275058
-3.73721e-10
0.000275058
-4.49484e-10
0.000275058
-4.97624e-10
0.000275058
-5.33265e-10
0.000275058
-5.64458e-10
0.000275058
-5.93338e-10
0.000275058
-6.18929e-10
0.000275058
-6.38674e-10
0.000275058
-6.4953e-10
0.000275057
-6.4977e-10
0.000275057
-6.3648e-10
0.000275057
-6.1128e-10
0.000275057
-5.69139e-10
0.000275057
-5.14856e-10
0.000275057
-4.56908e-10
0.000275057
-2.70253e-10
-6.13846e-10
0.000267706
-1.26161e-09
0.000267706
-1.50385e-09
0.000267706
-1.54206e-09
0.000267706
-1.51663e-09
0.000267706
-1.47395e-09
0.000267706
-1.4264e-09
0.000267706
-1.37672e-09
0.000267706
-1.32487e-09
0.000267706
-1.27012e-09
0.000267706
-1.21191e-09
0.000267706
-1.15067e-09
0.000267706
-1.08731e-09
0.000267706
-1.02262e-09
0.000267707
-9.57322e-10
0.000267707
-8.91941e-10
0.000267707
-8.26565e-10
0.000267707
-7.60816e-10
0.000267707
-6.92643e-10
0.000267707
-6.26871e-10
0.000267707
-5.49201e-10
0.000267707
-5.04461e-10
0.000267707
-4.84763e-10
0.000267707
-4.81108e-10
0.000267707
-4.90938e-10
0.000267707
-4.44356e-10
0.000267707
-3.45618e-10
0.000267708
-2.12284e-10
0.000267708
-6.50426e-11
0.000267708
7.96926e-11
0.000267708
2.12673e-10
0.000267708
3.29837e-10
0.000267708
4.30086e-10
0.000267709
5.1423e-10
0.000267709
5.84452e-10
0.000267709
6.43337e-10
0.000267709
6.92791e-10
0.000267709
7.34093e-10
0.000267709
7.68713e-10
0.000267709
7.98021e-10
0.000267709
8.22726e-10
0.000267709
8.43238e-10
0.00026771
8.60066e-10
0.00026771
8.73752e-10
0.00026771
8.84594e-10
0.00026771
8.92749e-10
0.00026771
8.98491e-10
0.00026771
9.01956e-10
0.00026771
9.02981e-10
0.00026771
9.01474e-10
0.00026771
8.975e-10
0.00026771
8.91004e-10
0.00026771
8.8185e-10
0.00026771