/*--------------------------------*- C++ -*----------------------------------*\
  =========                 |
  \\      /  F ield         | OpenFOAM: The Open Source CFD Toolbox
   \\    /   O peration     | Website:  https://openfoam.org
    \\  /    A nd           | Version:  7
     \\/     M anipulation  |
\*---------------------------------------------------------------------------*/
FoamFile
{
    version     2.0;
    format      ascii;
    class       volScalarField;
    location    "4000";
    object      omega;
}
// * * * * * * * * * * * * * * * * * * * * * * * * * * * * * * * * * * * * * //

dimensions      [0 0 -1 0 0 0 0];

internalField   nonuniform List<scalar> 
4000
(
0.0263002
0.0262949
0.0262954
0.026297
0.0262987
0.0263003
0.0263019
0.0263034
0.0263048
0.0263062
0.0263075
0.0263088
0.02631
0.0263113
0.0263125
0.0263138
0.026315
0.0263162
0.0263174
0.0263186
0.0263197
0.0263208
0.0263219
0.0263229
0.0263239
0.0263249
0.0263258
0.0263267
0.0263275
0.0263284
0.0263292
0.0263299
0.0263307
0.0263314
0.0263321
0.0263328
0.0263334
0.0263341
0.0263347
0.0263353
0.0263359
0.0263364
0.026337
0.0263375
0.0263368
0.0263273
0.0263219
0.0263202
0.0263201
0.0263205
0.026321
0.0263215
0.0263221
0.0263227
0.0263233
0.0263239
0.0263245
0.026325
0.0263256
0.0263262
0.0263268
0.0263274
0.0263279
0.0263285
0.0263291
0.0263297
0.0263303
0.0263308
0.0263314
0.0263319
0.0263324
0.026333
0.0263335
0.026334
0.0263345
0.026335
0.0263355
0.026336
0.0263364
0.0263369
0.0263374
0.0263379
0.0263384
0.0263389
0.0263394
0.0263399
0.0263404
0.0263409
0.0263414
0.0263418
0.0263423
0.0263428
0.0263433
0.0263439
0.0263444
0.0263449
0.0263454
0.0263459
0.0263464
0.0263469
0.0263474
0.0263479
0.0263485
0.0263478
0.0263383
0.0263329
0.0263313
0.0263313
0.0263317
0.0263323
0.026333
0.0263337
0.0263345
0.0263352
0.0263359
0.0263367
0.0263374
0.0263382
0.026339
0.0263336
0.0264232
0.0264176
0.0264176
0.0264187
0.0264202
0.0264216
0.026423
0.0264244
0.0264257
0.026427
0.0264282
0.0264294
0.0264306
0.0264318
0.0264329
0.0264341
0.0264353
0.0264364
0.0264375
0.0264387
0.0264398
0.0264408
0.0264419
0.0264429
0.0264438
0.0264448
0.0264456
0.0264465
0.0264473
0.0264481
0.0264489
0.0264496
0.0264504
0.0264511
0.0264517
0.0264524
0.026453
0.0264536
0.0264542
0.0264548
0.0264553
0.0264559
0.0264564
0.0264569
0.026457
0.026454
0.0264504
0.026448
0.0264466
0.026446
0.0264458
0.0264459
0.026446
0.0264463
0.0264465
0.0264469
0.0264472
0.0264476
0.026448
0.0264484
0.0264488
0.0264493
0.0264497
0.0264502
0.0264506
0.0264511
0.0264516
0.026452
0.0264525
0.0264529
0.0264534
0.0264538
0.0264543
0.0264547
0.0264552
0.0264556
0.026456
0.0264565
0.0264569
0.0264573
0.0264578
0.0264582
0.0264586
0.0264591
0.0264595
0.02646
0.0264604
0.0264609
0.0264613
0.0264618
0.0264622
0.0264627
0.0264631
0.0264636
0.0264641
0.0264646
0.026465
0.0264655
0.026466
0.0264665
0.026467
0.0264674
0.0264679
0.0264681
0.026465
0.0264615
0.0264592
0.0264579
0.0264574
0.0264573
0.0264574
0.0264577
0.0264581
0.0264585
0.026459
0.0264595
0.0264601
0.0264606
0.0264613
0.0264562
0.02664
0.0266343
0.0266341
0.026635
0.0266362
0.0266375
0.0266387
0.0266399
0.0266411
0.0266423
0.0266434
0.0266446
0.0266457
0.0266468
0.0266479
0.026649
0.0266501
0.0266512
0.0266523
0.0266533
0.0266544
0.0266554
0.0266564
0.0266574
0.0266583
0.0266592
0.02666
0.0266609
0.0266617
0.0266624
0.0266632
0.0266639
0.0266646
0.0266652
0.0266659
0.0266665
0.0266671
0.0266677
0.0266683
0.0266688
0.0266693
0.0266698
0.0266703
0.0266708
0.0266712
0.0266704
0.0266688
0.0266671
0.0266658
0.0266649
0.0266643
0.026664
0.0266639
0.0266638
0.0266639
0.026664
0.0266642
0.0266644
0.0266646
0.0266649
0.0266652
0.0266655
0.0266659
0.0266662
0.0266666
0.0266669
0.0266673
0.0266677
0.0266681
0.0266685
0.0266688
0.0266692
0.0266696
0.02667
0.0266703
0.0266707
0.0266711
0.0266715
0.0266719
0.0266723
0.0266726
0.026673
0.0266734
0.0266738
0.0266742
0.0266747
0.0266751
0.0266755
0.0266759
0.0266763
0.0266767
0.0266772
0.0266776
0.0266781
0.0266785
0.0266789
0.0266794
0.0266798
0.0266803
0.0266807
0.0266812
0.0266817
0.0266821
0.0266825
0.0266817
0.0266802
0.0266785
0.0266773
0.0266765
0.026676
0.0266758
0.0266758
0.0266759
0.0266762
0.0266764
0.0266768
0.0266772
0.0266776
0.0266781
0.0266731
0.0269486
0.0269428
0.0269425
0.0269433
0.0269443
0.0269454
0.0269465
0.0269477
0.0269487
0.0269498
0.0269509
0.0269519
0.0269529
0.026954
0.026955
0.0269561
0.0269571
0.0269581
0.0269592
0.0269602
0.0269612
0.0269622
0.0269631
0.0269641
0.026965
0.0269658
0.0269666
0.0269674
0.0269682
0.0269689
0.0269696
0.0269703
0.026971
0.0269716
0.0269723
0.0269728
0.0269734
0.026974
0.0269745
0.026975
0.0269756
0.026976
0.0269765
0.026977
0.0269774
0.0269774
0.0269768
0.026976
0.0269751
0.0269744
0.0269738
0.0269734
0.0269731
0.026973
0.0269729
0.0269729
0.0269729
0.026973
0.0269732
0.0269733
0.0269735
0.0269738
0.026974
0.0269743
0.0269745
0.0269748
0.0269751
0.0269754
0.0269758
0.0269761
0.0269764
0.0269767
0.026977
0.0269774
0.0269777
0.026978
0.0269784
0.0269787
0.0269791
0.0269794
0.0269798
0.0269801
0.0269805
0.0269809
0.0269812
0.0269816
0.026982
0.0269824
0.0269828
0.0269832
0.0269836
0.026984
0.0269844
0.0269848
0.0269853
0.0269857
0.0269861
0.0269865
0.026987
0.0269874
0.0269879
0.0269883
0.0269888
0.0269892
0.0269892
0.0269887
0.0269879
0.0269872
0.0269865
0.026986
0.0269857
0.0269856
0.0269856
0.0269857
0.0269858
0.026986
0.0269863
0.0269866
0.0269871
0.026982
0.0273476
0.0273417
0.0273413
0.027342
0.0273429
0.0273439
0.027345
0.027346
0.027347
0.0273479
0.0273489
0.0273499
0.0273509
0.0273518
0.0273528
0.0273538
0.0273548
0.0273558
0.0273568
0.0273578
0.0273587
0.0273597
0.0273606
0.0273615
0.0273623
0.0273631
0.0273639
0.0273647
0.0273654
0.0273661
0.0273668
0.0273675
0.0273681
0.0273687
0.0273693
0.0273699
0.0273704
0.027371
0.0273715
0.027372
0.0273725
0.0273729
0.0273734
0.0273738
0.0273742
0.0273745
0.0273745
0.0273742
0.0273738
0.0273733
0.0273729
0.0273726
0.0273723
0.0273721
0.027372
0.027372
0.0273719
0.027372
0.027372
0.0273721
0.0273723
0.0273724
0.0273726
0.0273728
0.027373
0.0273732
0.0273735
0.0273737
0.027374
0.0273743
0.0273746
0.0273748
0.0273751
0.0273754
0.0273757
0.027376
0.0273763
0.0273766
0.027377
0.0273773
0.0273776
0.027378
0.0273783
0.0273787
0.027379
0.0273794
0.0273797
0.0273801
0.0273805
0.0273809
0.0273813
0.0273817
0.0273821
0.0273825
0.0273829
0.0273833
0.0273837
0.0273841
0.0273845
0.027385
0.0273854
0.0273858
0.0273863
0.0273867
0.027387
0.0273871
0.0273869
0.0273865
0.0273862
0.0273859
0.0273857
0.0273855
0.0273855
0.0273855
0.0273856
0.0273858
0.027386
0.0273862
0.0273866
0.0273815
0.0278365
0.0278303
0.0278299
0.0278305
0.0278314
0.0278323
0.0278333
0.0278342
0.0278351
0.027836
0.0278369
0.0278378
0.0278388
0.0278397
0.0278406
0.0278415
0.0278425
0.0278434
0.0278444
0.0278453
0.0278462
0.0278471
0.027848
0.0278489
0.0278497
0.0278505
0.0278512
0.027852
0.0278527
0.0278533
0.027854
0.0278546
0.0278552
0.0278558
0.0278564
0.0278569
0.0278575
0.027858
0.0278585
0.027859
0.0278594
0.0278599
0.0278603
0.0278607
0.0278611
0.0278615
0.0278617
0.0278617
0.0278616
0.0278614
0.0278612
0.027861
0.0278609
0.0278607
0.0278606
0.0278605
0.0278605
0.0278605
0.0278606
0.0278606
0.0278607
0.0278608
0.027861
0.0278611
0.0278613
0.0278615
0.0278617
0.027862
0.0278622
0.0278624
0.0278627
0.0278629
0.0278632
0.0278635
0.0278637
0.027864
0.0278643
0.0278646
0.0278649
0.0278652
0.0278656
0.0278659
0.0278662
0.0278666
0.0278669
0.0278672
0.0278676
0.027868
0.0278683
0.0278687
0.0278691
0.0278695
0.0278699
0.0278703
0.0278707
0.0278711
0.0278715
0.0278719
0.0278724
0.0278728
0.0278732
0.0278736
0.0278741
0.0278745
0.0278749
0.0278752
0.0278753
0.0278753
0.0278752
0.0278752
0.0278751
0.0278751
0.0278751
0.0278751
0.0278752
0.0278754
0.0278756
0.0278758
0.0278761
0.027871
0.0284153
0.028409
0.0284084
0.028409
0.0284098
0.0284107
0.0284116
0.0284125
0.0284133
0.0284142
0.028415
0.0284159
0.0284167
0.0284176
0.0284185
0.0284194
0.0284203
0.0284212
0.0284221
0.028423
0.0284239
0.0284247
0.0284256
0.0284264
0.0284272
0.0284279
0.0284287
0.0284294
0.02843
0.0284307
0.0284313
0.0284319
0.0284325
0.0284331
0.0284336
0.0284341
0.0284346
0.0284351
0.0284356
0.0284361
0.0284365
0.0284369
0.0284374
0.0284378
0.0284381
0.0284385
0.0284388
0.028439
0.0284391
0.0284391
0.0284391
0.0284391
0.028439
0.0284389
0.0284389
0.0284389
0.0284389
0.0284389
0.0284389
0.028439
0.0284391
0.0284392
0.0284393
0.0284395
0.0284396
0.0284398
0.02844
0.0284402
0.0284404
0.0284407
0.0284409
0.0284411
0.0284414
0.0284416
0.0284419
0.0284422
0.0284425
0.0284428
0.0284431
0.0284434
0.0284437
0.028444
0.0284444
0.0284447
0.028445
0.0284454
0.0284457
0.0284461
0.0284465
0.0284469
0.0284472
0.0284476
0.028448
0.0284484
0.0284488
0.0284493
0.0284497
0.0284501
0.0284505
0.0284509
0.0284514
0.0284518
0.0284523
0.0284527
0.0284531
0.0284535
0.0284538
0.028454
0.0284542
0.0284543
0.0284544
0.0284544
0.0284545
0.0284547
0.0284548
0.028455
0.0284552
0.0284554
0.0284558
0.0284507
0.0290851
0.0290785
0.0290778
0.0290784
0.0290791
0.02908
0.0290808
0.0290816
0.0290824
0.0290832
0.029084
0.0290848
0.0290857
0.0290865
0.0290873
0.0290882
0.029089
0.0290899
0.0290908
0.0290916
0.0290925
0.0290933
0.0290941
0.0290949
0.0290956
0.0290964
0.0290971
0.0290977
0.0290984
0.029099
0.0290996
0.0291002
0.0291007
0.0291013
0.0291018
0.0291023
0.0291028
0.0291033
0.0291037
0.0291042
0.0291046
0.029105
0.0291054
0.0291058
0.0291062
0.0291065
0.0291069
0.0291071
0.0291074
0.0291075
0.0291076
0.0291077
0.0291077
0.0291078
0.0291078
0.0291078
0.0291079
0.0291079
0.029108
0.0291081
0.0291082
0.0291083
0.0291085
0.0291086
0.0291088
0.029109
0.0291092
0.0291094
0.0291096
0.0291098
0.0291101
0.0291103
0.0291106
0.0291108
0.0291111
0.0291114
0.0291117
0.029112
0.0291123
0.0291126
0.0291129
0.0291133
0.0291136
0.029114
0.0291143
0.0291147
0.029115
0.0291154
0.0291158
0.0291162
0.0291166
0.029117
0.0291174
0.0291178
0.0291182
0.0291186
0.0291191
0.0291195
0.0291199
0.0291204
0.0291208
0.0291213
0.0291217
0.0291222
0.0291226
0.029123
0.0291234
0.0291238
0.0291241
0.0291243
0.0291245
0.0291247
0.0291249
0.0291251
0.0291253
0.0291255
0.0291258
0.029126
0.0291264
0.0291214
0.0298474
0.0298405
0.0298397
0.0298402
0.029841
0.0298417
0.0298425
0.0298433
0.0298441
0.0298448
0.0298456
0.0298463
0.0298471
0.0298479
0.0298487
0.0298495
0.0298503
0.0298511
0.029852
0.0298528
0.0298536
0.0298544
0.0298552
0.0298559
0.0298566
0.0298573
0.029858
0.0298586
0.0298592
0.0298598
0.0298604
0.029861
0.0298615
0.029862
0.0298625
0.029863
0.0298635
0.0298639
0.0298644
0.0298648
0.0298652
0.0298656
0.029866
0.0298664
0.0298668
0.0298671
0.0298675
0.0298678
0.0298681
0.0298683
0.0298685
0.0298687
0.0298688
0.0298689
0.029869
0.0298691
0.0298692
0.0298694
0.0298695
0.0298696
0.0298697
0.0298699
0.0298701
0.0298702
0.0298704
0.0298706
0.0298709
0.0298711
0.0298713
0.0298716
0.0298718
0.0298721
0.0298724
0.0298726
0.0298729
0.0298732
0.0298736
0.0298739
0.0298742
0.0298745
0.0298749
0.0298752
0.0298756
0.0298759
0.0298763
0.0298767
0.0298771
0.0298775
0.0298779
0.0298783
0.0298787
0.0298791
0.0298795
0.02988
0.0298804
0.0298809
0.0298813
0.0298817
0.0298822
0.0298826
0.0298831
0.0298836
0.029884
0.0298845
0.029885
0.0298854
0.0298859
0.0298863
0.0298867
0.029887
0.0298873
0.0298876
0.0298879
0.0298882
0.0298885
0.0298887
0.029889
0.0298893
0.0298897
0.0298847
0.0307045
0.0306973
0.0306964
0.0306968
0.0306975
0.0306983
0.030699
0.0306997
0.0307004
0.0307011
0.0307019
0.0307026
0.0307033
0.030704
0.0307048
0.0307056
0.0307063
0.0307071
0.0307079
0.0307087
0.0307095
0.0307102
0.030711
0.0307117
0.0307124
0.030713
0.0307137
0.0307143
0.0307148
0.0307154
0.030716
0.0307165
0.030717
0.0307175
0.030718
0.0307184
0.0307189
0.0307193
0.0307197
0.0307202
0.0307206
0.030721
0.0307214
0.0307217
0.0307221
0.0307225
0.0307228
0.0307232
0.0307235
0.0307238
0.0307241
0.0307243
0.0307245
0.0307247
0.0307249
0.0307251
0.0307253
0.0307255
0.0307256
0.0307258
0.030726
0.0307262
0.0307264
0.0307266
0.0307269
0.0307271
0.0307273
0.0307276
0.0307279
0.0307281
0.0307284
0.0307287
0.030729
0.0307293
0.0307297
0.03073
0.0307303
0.0307307
0.030731
0.0307314
0.0307318
0.0307322
0.0307325
0.0307329
0.0307333
0.0307337
0.0307342
0.0307346
0.030735
0.0307354
0.0307359
0.0307363
0.0307368
0.0307372
0.0307377
0.0307381
0.0307386
0.0307391
0.0307396
0.03074
0.0307405
0.030741
0.0307415
0.030742
0.0307425
0.0307429
0.0307434
0.0307439
0.0307443
0.0307447
0.0307451
0.0307455
0.0307459
0.0307462
0.0307465
0.0307469
0.0307472
0.0307475
0.030748
0.0307431
0.0316594
0.0316518
0.0316508
0.0316512
0.0316518
0.0316525
0.0316531
0.0316538
0.0316545
0.0316551
0.0316558
0.0316565
0.0316571
0.0316578
0.0316585
0.0316593
0.03166
0.0316608
0.0316615
0.0316623
0.031663
0.0316637
0.0316644
0.0316651
0.0316657
0.0316663
0.0316669
0.0316675
0.0316681
0.0316686
0.0316691
0.0316696
0.0316701
0.0316706
0.031671
0.0316715
0.0316719
0.0316724
0.0316728
0.0316732
0.0316736
0.031674
0.0316744
0.0316748
0.0316752
0.0316756
0.0316759
0.0316763
0.0316767
0.031677
0.0316773
0.0316776
0.0316779
0.0316782
0.0316784
0.0316787
0.0316789
0.0316792
0.0316794
0.0316797
0.0316799
0.0316802
0.0316804
0.0316807
0.031681
0.0316813
0.0316816
0.0316819
0.0316822
0.0316825
0.0316828
0.0316832
0.0316835
0.0316839
0.0316842
0.0316846
0.031685
0.0316854
0.0316858
0.0316862
0.0316866
0.031687
0.0316874
0.0316878
0.0316883
0.0316887
0.0316892
0.0316896
0.0316901
0.0316906
0.031691
0.0316915
0.031692
0.0316925
0.031693
0.0316935
0.031694
0.0316945
0.031695
0.0316955
0.031696
0.0316965
0.031697
0.0316975
0.031698
0.0316985
0.031699
0.0316995
0.0317
0.0317005
0.0317009
0.0317014
0.0317018
0.0317022
0.0317026
0.0317029
0.0317033
0.0317037
0.0317042
0.0316993
0.0327156
0.0327076
0.0327065
0.0327067
0.0327073
0.0327079
0.0327085
0.0327091
0.0327097
0.0327103
0.0327109
0.0327115
0.0327121
0.0327128
0.0327134
0.0327141
0.0327148
0.0327155
0.0327162
0.0327169
0.0327176
0.0327183
0.032719
0.0327196
0.0327202
0.0327208
0.0327213
0.0327219
0.0327224
0.0327229
0.0327234
0.0327239
0.0327243
0.0327248
0.0327252
0.0327257
0.0327261
0.0327265
0.032727
0.0327274
0.0327278
0.0327282
0.0327286
0.032729
0.0327294
0.0327298
0.0327302
0.0327306
0.032731
0.0327314
0.0327318
0.0327322
0.0327325
0.0327329
0.0327332
0.0327335
0.0327338
0.0327342
0.0327345
0.0327348
0.0327351
0.0327354
0.0327358
0.0327361
0.0327364
0.0327368
0.0327371
0.0327375
0.0327379
0.0327382
0.0327386
0.032739
0.0327394
0.0327398
0.0327402
0.0327407
0.0327411
0.0327415
0.032742
0.0327424
0.0327429
0.0327433
0.0327438
0.0327443
0.0327447
0.0327452
0.0327457
0.0327462
0.0327467
0.0327472
0.0327477
0.0327483
0.0327488
0.0327493
0.0327498
0.0327504
0.0327509
0.0327514
0.0327519
0.0327525
0.032753
0.0327536
0.0327541
0.0327546
0.0327552
0.0327557
0.0327562
0.0327568
0.0327573
0.0327578
0.0327583
0.0327588
0.0327592
0.0327597
0.0327601
0.0327605
0.0327609
0.0327613
0.0327618
0.0327571
0.0338773
0.0338689
0.0338676
0.0338677
0.0338682
0.0338687
0.0338692
0.0338697
0.0338703
0.0338708
0.0338713
0.0338719
0.0338724
0.033873
0.0338736
0.0338742
0.0338749
0.0338755
0.0338762
0.0338769
0.0338775
0.0338781
0.0338787
0.0338793
0.0338799
0.0338804
0.0338809
0.0338814
0.0338819
0.0338824
0.0338829
0.0338833
0.0338838
0.0338842
0.0338847
0.0338851
0.0338855
0.033886
0.0338864
0.0338868
0.0338873
0.0338877
0.0338882
0.0338886
0.0338891
0.0338895
0.0338899
0.0338904
0.0338908
0.0338913
0.0338917
0.0338921
0.0338926
0.033893
0.0338934
0.0338938
0.0338942
0.0338946
0.033895
0.0338954
0.0338958
0.0338962
0.0338966
0.033897
0.0338974
0.0338978
0.0338982
0.0338987
0.0338991
0.0338995
0.0339
0.0339004
0.0339009
0.0339014
0.0339018
0.0339023
0.0339028
0.0339033
0.0339038
0.0339043
0.0339048
0.0339053
0.0339059
0.0339064
0.0339069
0.0339074
0.033908
0.0339085
0.0339091
0.0339096
0.0339102
0.0339108
0.0339113
0.0339119
0.0339124
0.033913
0.0339136
0.0339141
0.0339147
0.0339153
0.0339159
0.0339164
0.033917
0.0339176
0.0339181
0.0339187
0.0339193
0.0339198
0.0339204
0.0339209
0.0339214
0.0339219
0.0339224
0.0339229
0.0339234
0.0339238
0.0339242
0.0339246
0.0339251
0.0339204
0.0351493
0.0351404
0.0351388
0.0351388
0.0351392
0.0351396
0.03514
0.0351404
0.0351409
0.0351413
0.0351418
0.0351422
0.0351427
0.0351432
0.0351438
0.0351443
0.0351449
0.0351455
0.0351461
0.0351467
0.0351473
0.0351479
0.0351484
0.035149
0.0351495
0.03515
0.0351505
0.035151
0.0351514
0.0351519
0.0351523
0.0351528
0.0351532
0.0351536
0.0351541
0.0351545
0.035155
0.0351554
0.0351559
0.0351564
0.0351568
0.0351573
0.0351578
0.0351583
0.0351588
0.0351593
0.0351598
0.0351603
0.0351608
0.0351613
0.0351618
0.0351624
0.0351629
0.0351634
0.0351638
0.0351643
0.0351648
0.0351653
0.0351658
0.0351663
0.0351668
0.0351672
0.0351677
0.0351682
0.0351687
0.0351692
0.0351697
0.0351702
0.0351707
0.0351712
0.0351718
0.0351723
0.0351728
0.0351734
0.0351739
0.0351744
0.035175
0.0351756
0.0351761
0.0351767
0.0351773
0.0351778
0.0351784
0.035179
0.0351796
0.0351802
0.0351808
0.0351814
0.035182
0.0351826
0.0351832
0.0351838
0.0351844
0.035185
0.0351856
0.0351862
0.0351868
0.0351874
0.0351881
0.0351887
0.0351893
0.0351899
0.0351905
0.0351911
0.0351917
0.0351923
0.0351929
0.0351935
0.035194
0.0351946
0.0351952
0.0351957
0.0351962
0.0351967
0.0351971
0.0351976
0.0351979
0.0351983
0.0351989
0.0351943
0.0365369
0.0365274
0.0365256
0.0365254
0.0365256
0.0365259
0.0365262
0.0365265
0.0365269
0.0365272
0.0365276
0.0365279
0.0365283
0.0365288
0.0365292
0.0365297
0.0365302
0.0365308
0.0365313
0.0365318
0.0365324
0.0365329
0.0365334
0.0365339
0.0365344
0.0365348
0.0365353
0.0365357
0.0365361
0.0365366
0.036537
0.0365374
0.0365379
0.0365383
0.0365388
0.0365393
0.0365398
0.0365403
0.0365408
0.0365413
0.0365419
0.0365424
0.036543
0.0365435
0.0365441
0.0365447
0.0365453
0.0365459
0.0365464
0.036547
0.0365476
0.0365482
0.0365488
0.0365494
0.03655
0.0365506
0.0365512
0.0365518
0.0365523
0.0365529
0.0365535
0.0365541
0.0365546
0.0365552
0.0365558
0.0365564
0.036557
0.0365576
0.0365582
0.0365588
0.0365594
0.03656
0.0365606
0.0365612
0.0365618
0.0365624
0.0365631
0.0365637
0.0365643
0.036565
0.0365656
0.0365662
0.0365669
0.0365675
0.0365682
0.0365688
0.0365695
0.0365701
0.0365708
0.0365715
0.0365721
0.0365728
0.0365734
0.0365741
0.0365747
0.0365754
0.0365761
0.0365767
0.0365774
0.036578
0.0365787
0.0365793
0.03658
0.0365806
0.0365812
0.0365819
0.0365825
0.0365831
0.0365837
0.0365843
0.0365848
0.0365854
0.0365859
0.0365863
0.0365868
0.0365872
0.0365875
0.0365878
0.0365883
0.0365838
0.0380459
0.0380358
0.0380337
0.0380334
0.0380334
0.0380335
0.0380337
0.0380339
0.0380341
0.0380343
0.0380346
0.0380348
0.0380351
0.0380355
0.0380358
0.0380362
0.0380367
0.0380371
0.0380376
0.0380381
0.0380386
0.038039
0.0380395
0.0380399
0.0380404
0.0380408
0.0380412
0.0380416
0.038042
0.0380424
0.0380429
0.0380433
0.0380438
0.0380443
0.0380448
0.0380453
0.0380459
0.0380464
0.038047
0.0380477
0.0380483
0.0380489
0.0380496
0.0380503
0.0380509
0.0380516
0.0380523
0.038053
0.0380537
0.0380544
0.0380551
0.0380558
0.0380565
0.0380572
0.0380579
0.0380586
0.0380592
0.0380599
0.0380606
0.0380613
0.038062
0.0380627
0.0380633
0.038064
0.0380647
0.0380654
0.0380661
0.0380668
0.0380674
0.0380681
0.0380688
0.0380695
0.0380702
0.0380709
0.0380716
0.0380723
0.038073
0.0380737
0.0380744
0.0380751
0.0380758
0.0380766
0.0380773
0.038078
0.0380787
0.0380794
0.0380801
0.0380809
0.0380816
0.0380823
0.038083
0.0380837
0.0380844
0.0380851
0.0380858
0.0380865
0.0380872
0.0380879
0.0380886
0.0380893
0.03809
0.0380907
0.0380914
0.0380921
0.0380927
0.0380934
0.0380941
0.0380947
0.0380953
0.0380959
0.0380964
0.038097
0.0380974
0.0380979
0.0380982
0.0380985
0.0380988
0.038099
0.0380995
0.038095
0.0396829
0.0396721
0.0396697
0.0396691
0.039669
0.0396689
0.0396689
0.039669
0.039669
0.0396691
0.0396692
0.0396694
0.0396696
0.0396698
0.0396701
0.0396704
0.0396708
0.0396711
0.0396715
0.039672
0.0396724
0.0396728
0.0396732
0.0396736
0.0396739
0.0396743
0.0396747
0.0396751
0.0396755
0.0396759
0.0396764
0.0396769
0.0396774
0.039678
0.0396786
0.0396792
0.0396799
0.0396805
0.0396813
0.039682
0.0396828
0.0396835
0.0396843
0.0396851
0.0396859
0.0396867
0.0396875
0.0396883
0.0396892
0.03969
0.0396908
0.0396916
0.0396924
0.0396933
0.0396941
0.0396949
0.0396957
0.0396965
0.0396973
0.0396981
0.0396989
0.0396997
0.0397005
0.0397012
0.039702
0.0397028
0.0397036
0.0397044
0.0397052
0.0397059
0.0397067
0.0397075
0.0397083
0.0397091
0.0397099
0.0397107
0.0397114
0.0397122
0.039713
0.0397138
0.0397146
0.0397154
0.0397162
0.039717
0.0397177
0.0397185
0.0397193
0.0397201
0.0397209
0.0397216
0.0397224
0.0397232
0.039724
0.0397247
0.0397255
0.0397262
0.039727
0.0397277
0.0397285
0.0397292
0.0397299
0.0397307
0.0397314
0.0397321
0.0397328
0.0397335
0.0397342
0.0397348
0.0397354
0.039736
0.0397365
0.039737
0.0397374
0.0397377
0.039738
0.0397382
0.0397383
0.0397384
0.0397387
0.0397344
0.0414549
0.0414433
0.0414405
0.0414397
0.0414393
0.0414391
0.0414389
0.0414388
0.0414387
0.0414386
0.0414386
0.0414386
0.0414387
0.0414388
0.041439
0.0414392
0.0414395
0.0414398
0.0414401
0.0414405
0.0414408
0.0414412
0.0414415
0.0414419
0.0414422
0.0414426
0.0414429
0.0414433
0.0414437
0.0414442
0.0414447
0.0414453
0.0414459
0.0414466
0.0414473
0.0414481
0.0414489
0.0414497
0.0414506
0.0414515
0.0414524
0.0414534
0.0414543
0.0414553
0.0414562
0.0414572
0.0414582
0.0414591
0.0414601
0.0414611
0.041462
0.041463
0.0414639
0.0414649
0.0414658
0.0414668
0.0414677
0.0414686
0.0414696
0.0414705
0.0414714
0.0414723
0.0414732
0.0414741
0.041475
0.0414759
0.0414768
0.0414777
0.0414786
0.0414794
0.0414803
0.0414812
0.0414821
0.0414829
0.0414838
0.0414847
0.0414856
0.0414864
0.0414873
0.0414882
0.041489
0.0414899
0.0414908
0.0414916
0.0414925
0.0414933
0.0414942
0.041495
0.0414959
0.0414967
0.0414975
0.0414984
0.0414992
0.0415
0.0415008
0.0415016
0.0415024
0.0415032
0.041504
0.0415048
0.0415055
0.0415063
0.0415071
0.0415078
0.0415086
0.0415093
0.04151
0.0415106
0.0415112
0.0415117
0.0415121
0.0415125
0.0415128
0.041513
0.0415131
0.0415131
0.0415131
0.041513
0.0415131
0.0415088
0.0433693
0.0433569
0.0433538
0.0433526
0.043352
0.0433516
0.0433512
0.0433509
0.0433506
0.0433503
0.0433502
0.04335
0.04335
0.04335
0.0433501
0.0433502
0.0433504
0.0433507
0.0433509
0.0433512
0.0433515
0.0433518
0.0433521
0.0433524
0.0433527
0.0433531
0.0433534
0.0433539
0.0433544
0.0433549
0.0433555
0.0433562
0.043357
0.0433579
0.0433588
0.0433598
0.0433608
0.0433619
0.0433629
0.043364
0.0433652
0.0433663
0.0433675
0.0433686
0.0433698
0.0433709
0.043372
0.0433732
0.0433743
0.0433754
0.0433766
0.0433777
0.0433788
0.0433799
0.043381
0.043382
0.0433831
0.0433842
0.0433852
0.0433863
0.0433873
0.0433883
0.0433894
0.0433904
0.0433914
0.0433924
0.0433934
0.0433944
0.0433954
0.0433964
0.0433973
0.0433983
0.0433993
0.0434003
0.0434012
0.0434022
0.0434031
0.0434041
0.0434051
0.043406
0.0434069
0.0434079
0.0434088
0.0434097
0.0434107
0.0434116
0.0434125
0.0434134
0.0434143
0.0434152
0.0434161
0.043417
0.0434179
0.0434187
0.0434196
0.0434204
0.0434213
0.0434221
0.043423
0.0434238
0.0434246
0.0434254
0.0434262
0.043427
0.0434277
0.0434285
0.0434291
0.0434297
0.0434302
0.0434307
0.0434309
0.0434311
0.0434312
0.0434312
0.043431
0.0434308
0.0434306
0.0434303
0.0434302
0.0434259
0.0454344
0.045421
0.0454174
0.045416
0.0454151
0.0454144
0.0454138
0.0454133
0.0454129
0.0454125
0.0454121
0.0454119
0.0454117
0.0454116
0.0454116
0.0454116
0.0454118
0.0454119
0.0454121
0.0454124
0.0454126
0.0454129
0.0454131
0.0454134
0.0454137
0.0454141
0.0454145
0.045415
0.0454156
0.0454163
0.0454172
0.0454181
0.0454191
0.0454202
0.0454214
0.0454227
0.0454239
0.0454253
0.0454266
0.045428
0.0454294
0.0454307
0.0454321
0.0454335
0.0454348
0.0454362
0.0454375
0.0454389
0.0454402
0.0454415
0.0454428
0.0454441
0.0454453
0.0454466
0.0454478
0.0454491
0.0454503
0.0454515
0.0454526
0.0454538
0.045455
0.0454561
0.0454573
0.0454584
0.0454595
0.0454607
0.0454618
0.0454629
0.045464
0.0454651
0.0454661
0.0454672
0.0454683
0.0454693
0.0454704
0.0454714
0.0454725
0.0454735
0.0454746
0.0454756
0.0454766
0.0454776
0.0454786
0.0454796
0.0454806
0.0454816
0.0454826
0.0454836
0.0454845
0.0454855
0.0454864
0.0454874
0.0454883
0.0454892
0.0454901
0.045491
0.0454919
0.0454928
0.0454937
0.0454945
0.0454954
0.0454962
0.0454971
0.0454979
0.0454986
0.0454993
0.0454999
0.0455004
0.0455008
0.045501
0.0455011
0.045501
0.0455007
0.0455004
0.0454999
0.0454994
0.0454989
0.0454983
0.0454979
0.0454937
0.0476585
0.0476443
0.0476402
0.0476385
0.0476373
0.0476364
0.0476356
0.0476348
0.0476342
0.0476336
0.0476332
0.0476328
0.0476325
0.0476323
0.0476322
0.0476322
0.0476322
0.0476323
0.0476325
0.0476327
0.0476329
0.0476331
0.0476334
0.0476336
0.047634
0.0476344
0.0476349
0.0476356
0.0476364
0.0476374
0.0476385
0.0476398
0.0476411
0.0476426
0.0476441
0.0476457
0.0476474
0.047649
0.0476507
0.0476523
0.047654
0.0476557
0.0476573
0.0476589
0.0476605
0.0476621
0.0476637
0.0476652
0.0476667
0.0476682
0.0476697
0.0476711
0.0476726
0.047674
0.0476754
0.0476767
0.0476781
0.0476794
0.0476808
0.0476821
0.0476834
0.0476846
0.0476859
0.0476871
0.0476884
0.0476896
0.0476908
0.047692
0.0476932
0.0476944
0.0476956
0.0476968
0.0476979
0.0476991
0.0477002
0.0477014
0.0477025
0.0477036
0.0477047
0.0477058
0.0477069
0.047708
0.0477091
0.0477102
0.0477112
0.0477123
0.0477133
0.0477143
0.0477154
0.0477164
0.0477174
0.0477184
0.0477193
0.0477203
0.0477213
0.0477222
0.0477231
0.0477241
0.047725
0.0477259
0.0477268
0.0477276
0.0477285
0.0477293
0.04773
0.0477307
0.0477312
0.0477315
0.0477316
0.0477314
0.0477311
0.0477306
0.04773
0.0477292
0.0477284
0.0477275
0.0477265
0.0477256
0.0477249
0.0477208
0.050051
0.0500357
0.0500312
0.0500292
0.0500277
0.0500265
0.0500255
0.0500246
0.0500238
0.0500231
0.0500225
0.050022
0.0500216
0.0500213
0.0500211
0.0500211
0.0500211
0.0500211
0.0500212
0.0500214
0.0500216
0.0500218
0.0500221
0.0500224
0.0500228
0.0500234
0.0500241
0.0500251
0.0500262
0.0500276
0.0500292
0.0500309
0.0500327
0.0500346
0.0500366
0.0500386
0.0500406
0.0500427
0.0500447
0.0500467
0.0500487
0.0500507
0.0500526
0.0500545
0.0500563
0.0500581
0.0500599
0.0500617
0.0500634
0.0500651
0.0500667
0.0500684
0.05007
0.0500715
0.0500731
0.0500746
0.0500761
0.0500776
0.050079
0.0500805
0.0500819
0.0500833
0.0500847
0.050086
0.0500874
0.0500887
0.05009
0.0500913
0.0500926
0.0500939
0.0500952
0.0500965
0.0500977
0.0500989
0.0501002
0.0501014
0.0501026
0.0501038
0.050105
0.0501062
0.0501073
0.0501085
0.0501096
0.0501108
0.0501119
0.050113
0.0501141
0.0501152
0.0501162
0.0501173
0.0501183
0.0501194
0.0501204
0.0501214
0.0501224
0.0501234
0.0501244
0.0501253
0.0501263
0.0501272
0.0501281
0.050129
0.0501299
0.0501307
0.0501313
0.0501318
0.050132
0.050132
0.0501317
0.050131
0.0501302
0.0501291
0.0501279
0.0501266
0.0501253
0.0501239
0.0501226
0.0501213
0.0501202
0.0501162
0.0526213
0.0526051
0.0526002
0.0525978
0.0525961
0.0525946
0.0525934
0.0525923
0.0525913
0.0525905
0.0525898
0.0525892
0.0525888
0.0525884
0.0525882
0.0525881
0.0525881
0.0525882
0.0525883
0.0525884
0.0525886
0.0525889
0.0525891
0.0525895
0.0525901
0.052591
0.0525921
0.0525935
0.0525952
0.0525972
0.0525993
0.0526016
0.052604
0.0526065
0.052609
0.0526115
0.052614
0.0526165
0.0526189
0.0526213
0.0526236
0.0526259
0.0526281
0.0526302
0.0526324
0.0526344
0.0526364
0.0526384
0.0526403
0.0526422
0.052644
0.0526458
0.0526476
0.0526493
0.052651
0.0526527
0.0526543
0.0526559
0.0526575
0.052659
0.0526606
0.0526621
0.0526636
0.052665
0.0526665
0.0526679
0.0526693
0.0526707
0.0526721
0.0526735
0.0526749
0.0526762
0.0526776
0.0526789
0.0526802
0.0526815
0.0526828
0.052684
0.0526853
0.0526865
0.0526877
0.052689
0.0526902
0.0526914
0.0526925
0.0526937
0.0526948
0.052696
0.0526971
0.0526982
0.0526993
0.0527004
0.0527014
0.0527025
0.0527035
0.0527045
0.0527055
0.0527065
0.0527075
0.0527085
0.0527094
0.0527104
0.0527112
0.0527118
0.0527123
0.0527125
0.0527123
0.0527117
0.0527106
0.0527093
0.0527076
0.0527058
0.052704
0.0527021
0.0527002
0.0526983
0.0526966
0.0526949
0.0526934
0.0526895
0.0553797
0.0553626
0.0553572
0.0553545
0.0553525
0.0553509
0.0553495
0.0553482
0.0553472
0.0553463
0.0553455
0.0553449
0.0553444
0.055344
0.0553438
0.0553437
0.0553437
0.0553438
0.0553439
0.0553441
0.0553443
0.0553446
0.055345
0.0553456
0.0553465
0.0553478
0.0553496
0.0553517
0.0553542
0.0553569
0.0553599
0.0553629
0.055366
0.0553691
0.0553722
0.0553753
0.0553782
0.0553812
0.055384
0.0553867
0.0553894
0.055392
0.0553945
0.0553969
0.0553993
0.0554016
0.0554038
0.055406
0.0554081
0.0554101
0.0554121
0.0554141
0.055416
0.0554178
0.0554197
0.0554215
0.0554232
0.0554249
0.0554266
0.0554283
0.0554299
0.0554315
0.0554331
0.0554347
0.0554362
0.0554378
0.0554393
0.0554408
0.0554422
0.0554437
0.0554451
0.0554466
0.055448
0.0554493
0.0554507
0.0554521
0.0554534
0.0554548
0.0554561
0.0554574
0.0554587
0.0554599
0.0554612
0.0554624
0.0554636
0.0554649
0.055466
0.0554672
0.0554684
0.0554695
0.0554706
0.0554718
0.0554729
0.0554739
0.055475
0.0554761
0.0554771
0.0554781
0.0554791
0.0554801
0.0554811
0.055482
0.0554827
0.0554831
0.0554832
0.0554829
0.0554819
0.0554804
0.0554784
0.055476
0.0554734
0.0554707
0.0554681
0.0554655
0.0554631
0.0554607
0.0554585
0.0554565
0.0554547
0.055451
0.0583369
0.0583188
0.058313
0.05831
0.0583078
0.058306
0.0583045
0.0583032
0.0583021
0.0583012
0.0583004
0.0582998
0.0582993
0.058299
0.0582988
0.0582987
0.0582988
0.0582989
0.0582991
0.0582993
0.0582996
0.0583
0.0583005
0.0583015
0.0583031
0.0583052
0.0583079
0.0583111
0.0583146
0.0583184
0.0583222
0.0583261
0.05833
0.0583338
0.0583375
0.0583412
0.0583446
0.058348
0.0583512
0.0583544
0.0583573
0.0583602
0.058363
0.0583657
0.0583682
0.0583707
0.0583731
0.0583755
0.0583777
0.0583799
0.0583821
0.0583842
0.0583862
0.0583882
0.0583901
0.058392
0.0583939
0.0583957
0.0583975
0.0583993
0.058401
0.0584027
0.0584044
0.058406
0.0584076
0.0584092
0.0584108
0.0584124
0.0584139
0.0584154
0.058417
0.0584184
0.0584199
0.0584214
0.0584228
0.0584242
0.0584256
0.058427
0.0584284
0.0584297
0.058431
0.0584323
0.0584336
0.0584349
0.0584362
0.0584374