/*--------------------------------*- C++ -*----------------------------------*\
  =========                 |
  \\      /  F ield         | OpenFOAM: The Open Source CFD Toolbox
   \\    /   O peration     | Website:  https://openfoam.org
    \\  /    A nd           | Version:  7
     \\/     M anipulation  |
\*---------------------------------------------------------------------------*/
FoamFile
{
    version     2.0;
    format      ascii;
    class       surfaceScalarField;
    location    "4000";
    object      phi;
}
// * * * * * * * * * * * * * * * * * * * * * * * * * * * * * * * * * * * * * //

dimensions      [0 3 -1 0 0 0 0];

internalField   nonuniform List<scalar> 
7846
(
0.000741096
-3.79922e-10
0.000741096
-4.22044e-10
0.000741096
-4.32541e-10
0.000741096
-4.3546e-10
0.000741096
-4.38323e-10
0.000741096
-4.4082e-10
0.000741096
-4.4314e-10
0.000741096
-4.44983e-10
0.000741096
-4.46154e-10
0.000741096
-4.46591e-10
0.000741096
-4.4625e-10
0.000741096
-4.45124e-10
0.000741096
-4.43241e-10
0.000741096
-4.40654e-10
0.000741096
-4.37446e-10
0.000741096
-4.33713e-10
0.000741096
-4.29547e-10
0.000741096
-4.25016e-10
0.000741096
-4.20143e-10
0.000741096
-4.14892e-10
0.000741096
-4.09177e-10
0.000741096
-4.02873e-10
0.000741096
-3.95864e-10
0.000741096
-3.88078e-10
0.000741096
-3.79522e-10
0.000741096
-3.70287e-10
0.000741096
-3.60547e-10
0.000741095
-3.50527e-10
0.000741095
-3.40485e-10
0.000741095
-3.30679e-10
0.000741095
-3.2135e-10
0.000741095
-3.12697e-10
0.000741095
-3.04866e-10
0.000741095
-2.9793e-10
0.000741095
-2.91872e-10
0.000741095
-2.86573e-10
0.000741095
-2.81787e-10
0.000741095
-2.77134e-10
0.000741095
-2.72083e-10
0.000741094
-2.66019e-10
0.000741094
-2.58219e-10
0.000741094
-2.48256e-10
0.000741094
-2.34845e-10
0.000741094
-2.15501e-10
0.000741094
-1.44799e-10
0.000741094
1.16973e-10
0.000741094
4.82514e-10
0.000741094
7.35113e-10
0.000741094
8.79629e-10
0.000741094
9.68023e-10
0.000741094
1.01962e-09
0.000741094
1.04576e-09
0.000741094
1.05467e-09
0.000741094
1.05133e-09
0.000741094
1.03912e-09
0.000741094
1.02047e-09
0.000741094
9.97094e-10
0.000741094
9.7024e-10
0.000741094
9.40834e-10
0.000741094
9.09572e-10
0.000741094
8.76994e-10
0.000741094
8.43521e-10
0.000741094
8.09485e-10
0.000741093
7.75141e-10
0.000741093
7.40676e-10
0.000741093
7.06215e-10
0.000741093
6.7183e-10
0.000741093
6.37552e-10
0.000741093
6.03377e-10
0.000741093
5.69279e-10
0.000741093
5.35219e-10
0.000741093
5.01148e-10
0.000741093
4.67012e-10
0.000741093
4.32755e-10
0.000741093
3.98319e-10
0.000741093
3.63643e-10
0.000741093
3.28664e-10
0.000741093
2.93317e-10
0.000741093
2.57533e-10
0.000741093
2.21246e-10
0.000741093
1.84385e-10
0.000741094
1.46885e-10
0.000741094
1.08682e-10
0.000741094
6.97151e-11
0.000741094
2.99319e-11
0.000741094
-1.07159e-11
0.000741094
-5.22679e-11
0.000741094
-9.47554e-11
0.000741094
-1.38198e-10
0.000741094
-1.82603e-10
0.000741094
-2.27958e-10
0.000741094
-2.74227e-10
0.000741094
-3.2134e-10
0.000741094
-3.69181e-10
0.000741094
-4.17572e-10
0.000741094
-4.66253e-10
0.000741094
-5.14856e-10
0.000741094
-5.62887e-10
0.000741094
-6.09754e-10
0.000741094
-6.54732e-10
0.000741094
-6.97331e-10
0.000741095
-7.36124e-10
0.000741095
-7.68416e-10
0.000741095
-7.48486e-10
0.000741095
-5.36244e-10
0.000741095
-2.18465e-10
0.000741095
-1.14115e-11
0.000741095
9.00861e-11
0.000741095
1.38291e-10
0.000741095
1.52776e-10
0.000741095
1.45081e-10
0.000741095
1.23582e-10
0.000741096
9.33785e-11
0.000741096
5.79284e-11
0.000741096
1.96898e-11
0.000741096
-1.96659e-11
0.000741096
-5.91487e-11
0.000741096
-9.97732e-11
0.000741096
-1.55405e-10
-2.68555e-10
0.000723979
-5.07205e-10
0.000723979
-5.56897e-10
0.000723979
-5.45396e-10
0.00072398
-5.25639e-10
0.00072398
-5.06532e-10
0.00072398
-4.88888e-10
0.00072398
-4.73469e-10
0.00072398
-4.59784e-10
0.00072398
-4.47389e-10
0.00072398
-4.36007e-10
0.00072398
-4.25381e-10
0.00072398
-4.15301e-10
0.00072398
-4.05616e-10
0.00072398
-3.9623e-10
0.00072398
-3.87101e-10
0.00072398
-3.78232e-10
0.000723979
-3.69643e-10
0.000723979
-3.61347e-10
0.000723979
-3.5331e-10
0.000723979
-3.45433e-10
0.000723979
-3.37553e-10
0.000723979
-3.29457e-10
0.000723979
-3.20936e-10
0.000723979
-3.11838e-10
0.000723979
-3.02106e-10
0.000723979
-2.91792e-10
0.000723979
-2.81049e-10
0.000723979
-2.70093e-10
0.000723979
-2.59179e-10
0.000723978
-2.48566e-10
0.000723978
-2.38488e-10
0.000723978
-2.29141e-10
0.000723978
-2.20655e-10
0.000723978
-2.13088e-10
0.000723978
-2.06402e-10
0.000723978
-2.00452e-10
0.000723978
-1.94963e-10
0.000723978
-1.89524e-10
0.000723978
-1.83571e-10
0.000723978
-1.76425e-10
0.000723978
-1.67249e-10
0.000723977
-1.55262e-10
0.000723977
-1.38564e-10
0.000723977
-1.13048e-10
0.000723977
-4.8059e-11
0.000723977
1.6309e-10
0.000723977
4.73048e-10
0.000723977
7.15056e-10
0.000723977
8.70037e-10
0.000723977
9.69828e-10
0.000723977
1.03061e-09
0.000723977
1.06379e-09
0.000723977
1.07788e-09
0.000723977
1.07824e-09
0.000723977
1.06856e-09
0.000723977
1.05144e-09
0.000723977
1.02878e-09
0.000723977
1.00197e-09
0.000723977
9.72039e-10
0.000723977
9.39789e-10
0.000723977
9.05832e-10
0.000723977
8.70649e-10
0.000723977
8.34617e-10
0.000723977
7.98028e-10
0.000723977
7.61098e-10
0.000723977
7.23979e-10
0.000723977
6.86773e-10
0.000723977
6.49533e-10
0.000723977
6.12283e-10
0.000723977
5.75023e-10
0.000723977
5.37736e-10
0.000723977
5.00394e-10
0.000723977
4.62963e-10
0.000723977
4.25402e-10
0.000723977
3.87666e-10
0.000723977
3.49705e-10
0.000723977
3.11468e-10
0.000723977
2.72898e-10
0.000723977
2.33937e-10
0.000723977
1.94529e-10
0.000723977
1.54616e-10
0.000723977
1.14143e-10
0.000723977
7.30612e-11
0.000723977
3.13261e-11
0.000723977
-1.1099e-11
0.000723977
-5.42427e-11
0.000723977
-9.81238e-11
0.000723977
-1.4275e-10
0.000723977
-1.88117e-10
0.000723977
-2.34203e-10
0.000723977
-2.80967e-10
0.000723977
-3.28346e-10
0.000723977
-3.7624e-10
0.000723977
-4.24508e-10
0.000723977
-4.72951e-10
0.000723978
-5.21294e-10
0.000723978
-5.6916e-10
0.000723978
-6.1605e-10
0.000723978
-6.61339e-10
0.000723978
-7.0421e-10
0.000723978
-7.43828e-10
0.000723978
-7.78136e-10
0.000723978
-8.0278e-10
0.000723978
-7.86772e-10
0.000723978
-6.22999e-10
0.000723978
-3.58253e-10
0.000723978
-1.58755e-10
0.000723978
-4.31598e-11
0.000723979
2.07553e-11
0.000723979
4.94964e-11
0.000723979
5.47493e-11
0.000723979
4.5245e-11
0.000723979
2.65248e-11
0.000723979
2.35653e-12
0.000723979
-2.4593e-11
0.000723979
-5.26028e-11
0.000723979
-8.08609e-11
0.000723979
-1.12333e-10
0.000723979
-1.73383e-10
-3.3661e-10
0.000707198
-6.34846e-10
0.000707198
-6.81325e-10
0.000707198
-6.494e-10
0.000707198
-6.07911e-10
0.000707198
-5.67374e-10
0.000707199
-5.29842e-10
0.000707199
-4.96694e-10
0.000707199
-4.67376e-10
0.000707199
-4.41277e-10
0.000707199
-4.1793e-10
0.000707198
-3.96871e-10
0.000707198
-3.77699e-10
0.000707198
-3.6009e-10
0.000707198
-3.438e-10
0.000707198
-3.28669e-10
0.000707198
-3.14609e-10
0.000707198
-3.01575e-10
0.000707198
-2.89521e-10
0.000707198
-2.78361e-10
0.000707198
-2.67926e-10
0.000707198
-2.57968e-10
0.000707198
-2.48178e-10
0.000707198
-2.3824e-10
0.000707198
-2.27919e-10
0.000707198
-2.17091e-10
0.000707197
-2.05774e-10
0.000707197
-1.94106e-10
0.000707197
-1.82305e-10
0.000707197
-1.70632e-10
0.000707197
-1.59353e-10
0.000707197
-1.48706e-10
0.000707197
-1.38885e-10
0.000707197
-1.30014e-10
0.000707197
-1.22138e-10
0.000707197
-1.152e-10
0.000707197
-1.09032e-10
0.000707196
-1.03332e-10
0.000707196
-9.76538e-11
0.000707196
-9.13887e-11
0.000707196
-8.37771e-11
0.000707196
-7.3834e-11
0.000707196
-6.03964e-11
0.000707196
-4.10806e-11
0.000707196
-1.06649e-11
0.000707196
5.16062e-11
0.000707196
2.21094e-10
0.000707196
4.74867e-10
0.000707196
6.94508e-10
0.000707196
8.50957e-10
0.000707196
9.58322e-10
0.000707196
1.02727e-09
0.000707196
1.06755e-09
0.000707196
1.08722e-09
0.000707196
1.09179e-09
0.000707196
1.08512e-09
0.000707196
1.07003e-09
0.000707196
1.04858e-09
0.000707196
1.02229e-09
0.000707196
9.92309e-10
0.000707196
9.59535e-10
0.000707196
9.24655e-10
0.000707196
8.88212e-10
0.000707195
8.5063e-10
0.000707195
8.12236e-10
0.000707195
7.73278e-10
0.000707195
7.33937e-10
0.000707195
6.94339e-10
0.000707195
6.54564e-10
0.000707195
6.14663e-10
0.000707195
5.74657e-10
0.000707195
5.34554e-10
0.000707195
4.94346e-10
0.000707195
4.54017e-10
0.000707195
4.13542e-10
0.000707195
3.72888e-10
0.000707196
3.32019e-10
0.000707196
2.90893e-10
0.000707196
2.49464e-10
0.000707196
2.07685e-10
0.000707196
1.65507e-10
0.000707196
1.22887e-10
0.000707196
7.97808e-11
0.000707196
3.61533e-11
0.000707196
-8.02485e-12
0.000707196
-5.27738e-11
0.000707196
-9.81036e-11
0.000707196
-1.44013e-10
0.000707196
-1.90488e-10
0.000707196
-2.37499e-10
0.000707196
-2.85e-10
0.000707196
-3.32924e-10
0.000707196
-3.81178e-10
0.000707196
-4.2964e-10
0.000707196
-4.78147e-10
0.000707196
-5.26481e-10
0.000707196
-5.7436e-10
0.000707196
-6.21401e-10
0.000707196
-6.67104e-10
0.000707196
-7.10799e-10
0.000707197
-7.51562e-10
0.000707197
-7.88194e-10
0.000707197
-8.18138e-10
0.000707197
-8.359e-10
0.000707197
-8.20355e-10
0.000707197
-6.95672e-10
0.000707197
-4.84152e-10
0.000707197
-3.03591e-10
0.000707197
-1.82523e-10
0.000707197
-1.06357e-10
0.000707197
-6.40212e-11
0.000707198
-4.54132e-11
0.000707198
-4.21742e-11
0.000707198
-4.85736e-11
0.000707198
-6.06032e-11
0.000707198
-7.54049e-11
0.000707198
-9.1225e-11
0.000707198
-1.07484e-10
0.000707198
-1.29094e-10
0.000707198
-1.95693e-10
-4.13125e-10
0.000690751
-7.60279e-10
0.000690751
-7.9947e-10
0.000690751
-7.45784e-10
0.000690751
-6.81978e-10
0.000690751
-6.19837e-10
0.000690751
-5.6242e-10
0.000690751
-5.11503e-10
0.000690751
-4.66475e-10
0.000690751
-4.26593e-10
0.000690751
-3.91208e-10
0.000690751
-3.59657e-10
0.000690751
-3.31349e-10
0.000690751
-3.05788e-10
0.000690751
-2.82585e-10
0.000690751
-2.61464e-10
0.000690751
-2.42252e-10
0.000690751
-2.24841e-10
0.000690751
-2.09129e-10
0.00069075
-1.94974e-10
0.00069075
-1.82137e-10
0.00069075
-1.70279e-10
0.00069075
-1.58977e-10
0.00069075
-1.47802e-10
0.00069075
-1.36422e-10
0.00069075
-1.24649e-10
0.00069075
-1.1247e-10
0.00069075
-1.00021e-10
0.00069075
-8.75312e-11
0.00069075
-7.52786e-11
0.000690749
-6.35447e-11
0.000690749
-5.25814e-11
0.000690749
-4.25859e-11
0.000690749
-3.36816e-11
0.000690749
-2.59018e-11
0.000690749
-1.91744e-11
0.000690749
-1.33067e-11
0.000690749
-7.96812e-12
0.000690749
-2.67635e-12
0.000690749
3.22776e-12
0.000690748
1.05868e-11
0.000690748
2.05207e-11
0.000690748
3.44992e-11
0.000690748
5.51608e-11
0.000690748
8.80864e-11
0.000690748
1.47577e-10
0.000690748
2.8462e-10
0.000690748
4.89258e-10
0.000690748
6.80866e-10
0.000690748
8.2988e-10
0.000690748
9.3887e-10
0.000690748
1.01286e-09
0.000690748
1.05882e-09
0.000690748
1.08357e-09
0.000690748
1.09227e-09
0.000690748
1.08878e-09
0.000690748
1.07599e-09
0.000690748
1.05607e-09
0.000690748
1.03067e-09
0.000690748
1.00103e-09
0.000690748
9.68134e-10
0.000690748
9.32742e-10
0.000690748
8.95452e-10
0.000690748
8.56733e-10
0.000690748
8.16951e-10
0.000690748
7.76382e-10
0.000690748
7.35235e-10
0.000690748
6.93661e-10
0.000690748
6.51765e-10
0.000690748
6.09622e-10
0.000690748
5.67278e-10
0.000690748
5.24762e-10
0.000690748
4.82085e-10
0.000690748
4.3925e-10
0.000690748
3.96245e-10
0.000690748
3.53053e-10
0.000690748
3.09649e-10
0.000690748
2.66001e-10
0.000690748
2.22074e-10
0.000690748
1.7783e-10
0.000690748
1.33234e-10
0.000690748
8.82497e-11
0.000690748
4.28485e-11
0.000690748
-2.99302e-12
0.000690748
-4.92891e-11
0.000690748
-9.60439e-11
0.000690748
-1.4325e-10
0.000690748
-1.90886e-10
0.000690748
-2.38918e-10
0.000690749
-2.87293e-10
0.000690749
-3.35941e-10
0.000690749
-3.84769e-10
0.000690749
-4.33661e-10
0.000690749
-4.8247e-10
0.000690749
-5.31015e-10
0.000690749
-5.79067e-10
0.000690749
-6.26341e-10
0.000690749
-6.72455e-10
0.000690749
-7.16913e-10
0.000690749
-7.59018e-10
0.000690749
-7.97764e-10
0.000690749
-8.31675e-10
0.000690749
-8.57929e-10
0.000690749
-8.70647e-10
0.000690749
-8.55131e-10
0.000690749
-7.59875e-10
0.000690749
-5.94111e-10
0.00069075
-4.3775e-10
0.00069075
-3.19717e-10
0.00069075
-2.36869e-10
0.00069075
-1.83685e-10
0.00069075
-1.52755e-10
0.00069075
-1.36895e-10
0.00069075
-1.30639e-10
0.00069075
-1.29954e-10
0.00069075
-1.31887e-10
0.00069075
-1.34701e-10
0.00069075
-1.38063e-10
0.00069075
-1.48735e-10
0.00069075
-2.18901e-10
-4.89869e-10
0.000674634
-8.8018e-10
0.000674634
-9.10771e-10
0.000674634
-8.34364e-10
0.000674634
-7.47303e-10
0.000674635
-6.63068e-10
0.000674635
-5.85603e-10
0.000674635
-5.16845e-10
0.000674635
-4.5607e-10
0.000674635
-4.02395e-10
0.000674634
-3.54984e-10
0.000674634
-3.12974e-10
0.000674634
-2.7558e-10
0.000674634
-2.42135e-10
0.000674634
-2.12105e-10
0.000674634
-1.85102e-10
0.000674634
-1.60869e-10
0.000674634
-1.39236e-10
0.000674634
-1.20051e-10
0.000674634
-1.03118e-10
0.000674634
-8.81209e-11
0.000674634
-7.46236e-11
0.000674634
-6.20758e-11
0.000674633
-4.99169e-11
0.000674633
-3.77149e-11
0.000674633
-2.52101e-11
0.000674633
-1.23718e-11
0.000674633
6.56829e-13
0.000674633
1.36209e-11
0.000674633
2.62118e-11
0.000674633
3.81203e-11
0.000674633
4.90744e-11
0.000674633
5.88659e-11
0.000674632
6.73704e-11
0.000674632
7.45631e-11
0.000674632
8.05338e-11
0.000674632
8.55005e-11
0.000674632
8.9826e-11
0.000674632
9.40332e-11
0.000674632
9.8832e-11
0.000674632
1.05142e-10
0.000674632
1.14189e-10
0.000674632
1.27645e-10
0.000674631
1.48214e-10
0.000674631
1.81288e-10
0.000674631
2.36944e-10
0.000674631
3.4888e-10
0.000674631
5.13167e-10
0.000674631
6.75843e-10
0.000674631
8.11307e-10
0.000674631
9.16106e-10
0.000674631
9.91016e-10
0.000674631
1.04012e-09
0.000674631
1.06852e-09
0.000674631
1.08063e-09
0.000674631
1.08e-09
0.000674631
1.06946e-09
0.000674631
1.05118e-09
0.000674631
1.02687e-09
0.000674631
9.97841e-10
0.000674631
9.65136e-10
0.000674631
9.29573e-10
0.000674631
8.91797e-10
0.000674631
8.52317e-10
0.000674631
8.1153e-10
0.000674631
7.69741e-10
0.000674631
7.27184e-10
0.000674631
6.84032e-10
0.000674631
6.40417e-10
0.000674631
5.96433e-10
0.000674631
5.5215e-10
0.000674631
5.07616e-10
0.000674631
4.62863e-10
0.000674631
4.17908e-10
0.000674631
3.72756e-10
0.000674632
3.27403e-10
0.000674632
2.81834e-10
0.000674632
2.36029e-10
0.000674632
1.89964e-10
0.000674632
1.43611e-10
0.000674632
9.69442e-11
0.000674632
4.99402e-11
0.000674632
2.58132e-12
0.000674632
-4.51424e-11
0.000674632
-9.32311e-11
0.000674632
-1.41673e-10
0.000674632
-1.90445e-10
0.000674632
-2.39506e-10
0.000674632
-2.88802e-10
0.000674632
-3.38258e-10
0.000674632
-3.87782e-10
0.000674632
-4.37256e-10
0.000674632
-4.86542e-10
0.000674632
-5.35471e-10
0.000674632
-5.83848e-10
0.000674632
-6.31432e-10
0.000674632
-6.77945e-10
0.000674632
-7.2301e-10
0.000674633
-7.66158e-10
0.000674633
-8.0668e-10
0.000674633
-8.43542e-10
0.000674633
-8.75107e-10
0.000674633
-8.98475e-10
0.000674633
-9.07934e-10
0.000674633
-8.92991e-10
0.000674633
-8.19375e-10
0.000674633
-6.90169e-10
0.000674633
-5.58506e-10
0.000674633
-4.49234e-10
0.000674633
-3.65127e-10
0.000674633
-3.0482e-10
0.000674634
-2.63707e-10
0.000674634
-2.36226e-10
0.000674634
-2.17591e-10
0.000674634
-2.04012e-10
0.000674634
-1.92593e-10
0.000674634
-1.81697e-10
0.000674634
-1.71226e-10
0.000674634
-1.69636e-10
0.000674634
-2.40714e-10
-5.62674e-10
0.000658846
-9.91698e-10
0.000658846
-1.01334e-09
0.000658846
-9.13825e-10
0.000658846
-8.02787e-10
0.000658846
-6.96008e-10
0.000658846
-5.98345e-10
0.000658846
-5.11734e-10
0.000658846
-4.35272e-10
0.000658846
-3.67906e-10
0.000658846
-3.08596e-10
0.000658846
-2.56272e-10
0.000658846
-2.09955e-10
0.000658846
-1.68804e-10
0.000658845
-1.32138e-10
0.000658845
-9.94607e-11
0.000658845
-7.0431e-11
0.000658845
-4.48245e-11
0.000658845
-2.24386e-11
0.000658845
-3.02702e-12
0.000658845
1.3803e-11
0.000658845
2.85948e-11
0.000658845
4.20428e-11
0.000658845
5.48572e-11
0.000658844
6.7581e-11
0.000658844
8.05449e-11
0.000658844
9.37887e-11
0.000658844
1.07144e-10
0.000658844
1.20312e-10
0.000658844
1.32939e-10
0.000658844
1.44675e-10
0.000658844
1.5522e-10
0.000658844
1.64348e-10
0.000658844
1.71934e-10
0.000658843
1.77963e-10
0.000658843
1.82546e-10
0.000658843
1.85932e-10
0.000658843
1.88521e-10
0.000658843
1.90882e-10
0.000658843
1.93777e-10
0.000658843
1.98192e-10
0.000658843
2.05428e-10
0.000658843
2.17265e-10
0.000658843
2.36345e-10
0.000658842
2.67572e-10
0.000658842
3.18209e-10
0.000658842
4.10252e-10
0.000658842
5.42163e-10
0.000658842
6.77801e-10
0.000658842
7.96656e-10
0.000658842
8.92902e-10
0.000658842
9.6478e-10
0.000658842
1.01404e-09
0.000658842
1.04407e-09
0.000658842
1.0583e-09
0.000658842
1.05978e-09
0.000658842
1.05108e-09
0.000658842
1.03429e-09
0.000658843
1.01107e-09
0.000658843
9.82765e-10
0.000658843
9.50445e-10
0.000658843
9.14959e-10
0.000658843
8.76986e-10
0.000658843
8.37062e-10
0.000658843
7.95609e-10
0.000658843
7.52955e-10
0.000658843
7.09355e-10
0.000658843
6.65002e-10
0.000658843
6.20049e-10
0.000658843
5.74611e-10
0.000658843
5.28776e-10
0.000658843
4.82611e-10
0.000658843
4.36166e-10
0.000658843
3.89473e-10
0.000658843
3.42552e-10
0.000658843
2.95409e-10
0.000658843
2.48044e-10
0.000658843
2.00446e-10
0.000658843
1.526e-10
0.000658843
1.04491e-10
0.000658843
5.6101e-11
0.000658843
7.41926e-12
0.000658843
-4.15605e-11
0.000658843
-9.08356e-11
0.000658843
-1.40392e-10
0.000658843
-1.90204e-10
0.000658843
-2.40231e-10
0.000658843
-2.90415e-10
0.000658843
-3.40682e-10
0.000658843
-3.90937e-10
0.000658844
-4.41064e-10
0.000658844
-4.90925e-10
0.000658844
-5.40358e-10
0.000658844
-5.89175e-10
0.000658844
-6.37167e-10
0.000658844
-6.84088e-10
0.000658844
-7.29669e-10
0.000658844
-7.73549e-10
0.000658844
-8.15306e-10
0.000658844
-8.54246e-10
0.000658844
-8.89362e-10
0.000658844
-9.18965e-10
0.000658844
-9.40202e-10
0.000658844
-9.47821e-10
0.000658844
-9.34134e-10
0.000658844
-8.76519e-10
0.000658844
-7.75505e-10
0.000658844
-6.66271e-10
0.000658845
-5.68442e-10
0.000658845
-4.87052e-10
0.000658845
-4.23171e-10
0.000658845
-3.7443e-10
0.000658845
-3.36891e-10
0.000658845
-3.06658e-10
0.000658845
-2.80402e-10
0.000658845
-2.55426e-10
0.000658845
-2.30288e-10
0.000658845
-2.051e-10
0.000658845
-1.89814e-10
0.000658845
-2.58812e-10
-6.28553e-10
0.000643381
-1.09223e-09
0.000643381
-1.10491e-09
0.000643381
-9.82299e-10
0.000643381
-8.46925e-10
0.000643381
-7.17374e-10
0.000643381
-5.99516e-10
0.000643381
-4.95187e-10
0.000643381
-4.03254e-10
0.000643381
-3.22456e-10
0.000643381
-2.51527e-10
0.000643381
-1.89181e-10
0.000643381
-1.3424e-10
0.000643381
-8.56854e-11
0.000643381
-4.26932e-11
0.00064338
-4.65631e-12
0.00064338
2.88436e-11
0.00064338
5.80823e-11
0.00064338
8.33071e-11
0.00064338
1.04809e-10
0.00064338
1.23061e-10
0.00064338
1.38719e-10
0.00064338
1.52643e-10
0.00064338
1.65716e-10
0.00064338
1.786e-10
0.000643379
1.917e-10
0.000643379
2.05049e-10
0.000643379
2.18429e-10
0.000643379
2.3148e-10
0.000643379
2.4378e-10
0.000643379
2.54927e-10
0.000643379
2.64583e-10
0.000643379
2.72504e-10
0.000643379
2.78564e-10
0.000643378
2.82764e-10
0.000643378
2.85245e-10
0.000643378
2.86296e-10
0.000643378
2.86364e-10
0.000643378
2.8607e-10
0.000643378
2.86229e-10
0.000643378
2.87886e-10
0.000643378
2.92388e-10
0.000643378
3.01553e-10
0.000643378
3.17885e-10
0.000643378
3.45685e-10
0.000643377
3.90294e-10
0.000643377
4.65974e-10
0.000643377
5.71911e-10
0.000643377
6.83562e-10
0.000643377
7.85058e-10
0.000643377
8.70166e-10
0.000643377
9.35957e-10
0.000643377
9.82617e-10
0.000643377
1.01212e-09
0.000643378
1.02691e-09
0.000643378
1.02943e-09
0.000643378
1.02189e-09
0.000643378
1.00617e-09
0.000643378
9.83851e-10
0.000643378
9.56227e-10
0.000643378
9.24354e-10
0.000643378
8.8909e-10
0.000643378
8.51123e-10
0.000643378
8.11003e-10
0.000643378
7.69167e-10
0.000643378
7.25957e-10
0.000643378
6.81642e-10
0.000643378
6.36434e-10
0.000643378
5.905e-10
0.000643378
5.43971e-10
0.000643378
4.96953e-10
0.000643378
4.4953e-10
0.000643378
4.01765e-10
0.000643378
3.53705e-10
0.000643378
3.05383e-10
0.000643378
2.56817e-10
0.000643378
2.08017e-10
0.000643378
1.58983e-10
0.000643378
1.0971e-10
0.000643378
6.01916e-11
0.000643378
1.04227e-11
0.000643378
-3.95982e-11
0.000643378
-8.98656e-11
0.000643378
-1.40364e-10
0.000643379
-1.91067e-10
0.000643379
-2.41934e-10
0.000643379
-2.92909e-10
0.000643379
-3.43916e-10
0.000643379
-3.94863e-10
0.000643379
-4.45636e-10
0.000643379
-4.96096e-10
0.000643379
-5.46084e-10
0.000643379
-5.95417e-10
0.000643379
-6.43887e-10
0.000643379
-6.91275e-10
0.000643379
-7.37327e-10
0.000643379
-7.81794e-10
0.000643379
-8.24338e-10
0.000643379
-8.64605e-10
0.000643379
-9.01945e-10
0.000643379
-9.35437e-10
0.000643379
-9.63425e-10
0.000643379
-9.83164e-10
0.00064338
-9.89972e-10
0.00064338
-9.7809e-10
0.00064338
-9.3257e-10
0.00064338
-8.53006e-10
0.00064338
-7.62813e-10
0.00064338
-6.76828e-10
0.00064338
-6.00362e-10
0.00064338
-5.35549e-10
0.00064338
-4.81483e-10
0.00064338
-4.35551e-10
0.00064338
-3.94742e-10
0.00064338
-3.56281e-10
0.000643381
-3.17771e-10
0.000643381
-2.78035e-10
0.000643381
-2.37358e-10
0.000643381
-2.06953e-10
0.000643381
-2.70736e-10
-6.84848e-10
0.000628236
-1.17928e-09
0.000628236
-1.18312e-09
0.000628236
-1.03774e-09
0.000628236
-8.78031e-10
0.000628236
-7.25787e-10
0.000628236
-5.87971e-10
0.000628236
-4.66272e-10
0.000628236
-3.59285e-10
0.000628236
-2.65506e-10
0.000628236
-1.8342e-10
0.000628236
-1.11512e-10
0.000628236
-4.83988e-11
0.000628236
7.11372e-12
0.000628235
5.59947e-11
0.000628235
9.89573e-11
0.000628235
1.36495e-10
0.000628235
1.68926e-10
0.000628235
1.96538e-10
0.000628235
2.19657e-10
0.000628235
2.38836e-10
0.000628235
2.54849e-10
0.000628235
2.68748e-10
0.000628234
2.81615e-10
0.000628234
2.94245e-10
0.000628234
3.07115e-10
0.000628234
3.20226e-10
0.000628234
3.33288e-10
0.000628234
3.45847e-10
0.000628234
3.57395e-10
0.000628234
3.6746e-10
0.000628234
3.75661e-10
0.000628233
3.81739e-10
0.000628233
3.85572e-10
0.000628233
3.8719e-10
0.000628233
3.86776e-10
0.000628233
3.84673e-10
0.000628233
3.81388e-10
0.000628233
3.77602e-10
0.000628233
3.74187e-10
0.000628233
3.72238e-10
0.000628233
3.73131e-10
0.000628233
3.78668e-10
0.000628232
3.91178e-10
0.000628232
4.14354e-10
0.000628232
4.52188e-10
0.000628232
5.13889e-10
0.000628232
5.98708e-10
0.000628232
6.89595e-10
0.000628232
7.74381e-10
0.000628232
8.47285e-10
0.000628232
9.05061e-10
0.000628232
9.47007e-10
0.000628232
9.7408e-10
0.000628232
9.87896e-10
0.000628232
9.90293e-10
0.000628233
9.83076e-10
0.000628233
9.67876e-10
0.000628233
9.46112e-10
0.000628233
9.18988e-10
0.000628233
8.87512e-10
0.000628233
8.52514e-10
0.000628233
8.14673e-10
0.000628233
7.74534e-10
0.000628233
7.32537e-10
0.000628233
6.89028e-10
0.000628233
6.44284e-10
0.000628233
5.98527e-10
0.000628233
5.51935e-10
0.000628233
5.04653e-10
0.000628233
4.56799e-10
0.000628233
4.08468e-10
0.000628233
3.59738e-10
0.000628233
3.10666e-10
0.000628233
2.61298e-10
0.000628233
2.11662e-10
0.000628233
1.61778e-10
0.000628233
1.11655e-10
0.000628233
6.12983e-11
0.000628233
1.07116e-11
0.000628233
-4.01008e-11
0.000628234
-9.11295e-11
0.000628234
-1.42358e-10
0.000628234
-1.93759e-10
0.000628234
-2.45293e-10
0.000628234
-2.96906e-10
0.000628234
-3.48526e-10
0.000628234
-4.00063e-10
0.000628234
-4.51405e-10
0.000628234
-5.02419e-10
0.000628234
-5.52948e-10
0.000628234
-6.02807e-10
0.000628234
-6.51796e-10
0.000628234
-6.99686e-10
0.000628234
-7.46247e-10
0.000628234
-7.91221e-10
0.000628234
-8.34384e-10
0.000628234
-8.75425e-10
0.000628234
-9.14086e-10
0.000628235
-9.49784e-10
0.000628235
-9.81744e-10
0.000628235
-1.00841e-09
0.000628235
-1.02715e-09
0.000628235
-1.03385e-09
0.000628235
-1.02413e-09
0.000628235
-9.88022e-10
0.000628235
-9.2478e-10
0.000628235
-8.50123e-10
0.000628235
-7.75014e-10
0.000628235
-7.04171e-10
0.000628235
-6.39929e-10
0.000628235
-5.82168e-10
0.000628235
-5.29207e-10
0.000628236
-4.78775e-10
0.000628236
-4.28637e-10
0.000628236
-3.76727e-10
0.000628236
-3.22167e-10
0.000628236
-2.6535e-10
0.000628236
-2.18491e-10
0.000628236
-2.73907e-10
-7.28966e-10
0.000613406
-1.25043e-09
0.000613406
-1.24574e-09
0.000613406
-1.07814e-09
0.000613406
-8.9446e-10
0.000613406
-7.19935e-10
0.000613406
-5.62681e-10
0.000613406
-4.24208e-10
0.000613406
-3.02814e-10
0.000613406
-1.96717e-10
0.000613406
-1.04131e-10
0.000613406
-2.3301e-11
0.000613406
4.73648e-11
0.000613406
1.0924e-10
0.000613406
1.63437e-10
0.000613406
2.10771e-10
0.000613405
2.51805e-10
0.000613405
2.86894e-10
0.000613405
3.16352e-10
0.000613405
3.40532e-10
0.000613405
3.60063e-10
0.000613405
3.75842e-10
0.000613405
3.89143e-10
0.000613405
4.01281e-10
0.000613404
4.13194e-10
0.000613404
4.25431e-10
0.000613404
4.3793e-10
0.000613404
4.50287e-10
0.000613404
4.61926e-10
0.000613404
4.72225e-10
0.000613404
4.80631e-10
0.000613404
4.86719e-10
0.000613404
4.90217e-10
0.000613403
4.91027e-10
0.000613403
4.89222e-10
0.000613403
4.85051e-10
0.000613403
4.78926e-10
0.000613403
4.71431e-10
0.000613403
4.63316e-10
0.000613403
4.55515e-10
0.000613403
4.49167e-10
0.000613403
4.45662e-10
0.000613403
4.46752e-10
0.000613403
4.5458e-10
0.000613403
4.72276e-10
0.000613402
5.0286e-10
0.000613402
5.52253e-10
0.000613402
6.19575e-10
0.000613402
6.92647e-10
0.000613402
7.62068e-10
0.000613402
8.22773e-10
0.000613403
8.71632e-10
0.000613403
9.07527e-10
0.000613403
9.30758e-10
0.000613403
9.4232e-10
0.000613403
9.43538e-10
0.000613403
9.35829e-10
0.000613403
9.20548e-10
0.000613403
8.98928e-10
0.000613403
8.7205e-10
0.000613403
8.40842e-10
0.000613403
8.06082e-10
0.000613403
7.68417e-10
0.000613403
7.28375e-10
0.000613403
6.86383e-10
0.000613403
6.42783e-10
0.000613403
5.97851e-10
0.000613403
5.51813e-10
0.000613403
5.04853e-10
0.000613403
4.57121e-10
0.000613403
4.08747e-10
0.000613403
3.59835e-10
0.000613403
3.1047e-10
0.000613404
2.60722e-10
0.000613404
2.10644e-10
0.000613404
1.60274e-10
0.000613404
1.0964e-10
0.000613404
5.87616e-11
0.000613404
7.65212e-12
0.000613404
-4.36757e-11
0.000613404
-9.52076e-11
0.000613404
-1.46924e-10
0.000613404
-1.98798e-10
0.000613404
-2.50791e-10
0.000613404
-3.02851e-10
0.000613404
-3.54911e-10
0.000613404
-4.06884e-10
0.000613404
-4.58666e-10
0.000613404
-5.10128e-10
0.000613404
-5.61117e-10
0.000613404
-6.11456e-10
0.000613405
-6.6094e-10
0.000613405
-7.09347e-10
0.000613405
-7.56429e-10
0.000613405
-8.01945e-10
0.000613405
-8.4563e-10
0.000613405
-8.87292e-10
0.000613405
-9.26652e-10
0.000613405
-9.63573e-10
0.000613405
-9.9756e-10
0.000613405
-1.02805e-09
0.000613405
-1.05361e-09
0.000613405
-1.07173e-09
0.000613405
-1.07878e-09
0.000613405
-1.0714e-09
0.000613405
-1.04285e-09
0.000613405
-9.92126e-10
0.000613405
-9.29836e-10
0.000613405
-8.63972e-10
0.000613406
-7.98377e-10
0.000613406
-7.35157e-10
0.000613406
-6.74514e-10
0.000613406
-6.15349e-10
0.000613406
-5.55938e-10
0.000613406
-4.94515e-10
0.000613406
-4.29319e-10
0.000613406
-3.59771e-10
0.000613406
-2.86279e-10
0.000613406
-2.21767e-10
0.000613406
-2.65734e-10
-7.58373e-10
0.000598887
-1.30347e-09
0.000598887
-1.29074e-09
0.000598887
-1.10174e-09
0.000598887
-8.94788e-10
0.000598887
-6.9874e-10
0.000598887
-5.22873e-10
0.000598887
-3.6849e-10
0.000598887
-2.33573e-10
0.000598887
-1.16039e-10
0.000598887
-1.38098e-11
0.000598887
7.51186e-11
0.000598887
1.52553e-10
0.000598886
2.20047e-10
0.000598886
2.78854e-10
0.000598886
3.29888e-10
0.000598886
3.73775e-10
0.000598886
4.10895e-10
0.000598886
4.41582e-10
0.000598886
4.66192e-10
0.000598886
4.85428e-10
0.000598885
5.00311e-10
0.000598885
5.12378e-10
0.000598885
5.23215e-10
0.000598885
5.3391e-10
0.000598885
5.45085e-10
0.000598885
5.56566e-10
0.000598885
5.67792e-10
0.000598885
5.78021e-10
0.000598885
5.86495e-10
0.000598884
5.92569e-10
0.000598884
5.95777e-10
0.000598884
5.95855e-10
0.000598884
5.92749e-10
0.000598884
5.86606e-10
0.000598884
5.77761e-10
0.000598884
5.66724e-10
0.000598884
5.54167e-10
0.000598884
5.40923e-10
0.000598884
5.27991e-10
0.000598884
5.16549e-10
0.000598883
5.07986e-10
0.000598883
5.03987e-10
0.000598883
5.06504e-10
0.000598883
5.18172e-10
0.000598883
5.41295e-10
0.000598883
5.79652e-10
0.000598883
6.32215e-10
0.000598883
6.9002e-10
0.000598883
7.45688e-10
0.000598883
7.94859e-10
0.000598883
8.34688e-10
0.000598883
8.63915e-10
0.000598883
8.82456e-10
0.000598883
8.90877e-10
0.000598884
8.90105e-10
0.000598884
8.81222e-10
0.000598884
8.65326e-10
0.000598884
8.43458e-10
0.000598884
8.1656e-10
0.000598884
7.85462e-10
0.000598884
7.50875e-10
0.000598884
7.13397e-10
0.000598884
6.73524e-10
0.000598884
6.31661e-10
0.000598884
5.88136e-10
0.000598884
5.43218e-10
0.000598884
4.97129e-10
0.000598884
4.50053e-10
0.000598884
4.02145e-10
0.000598884
3.53537e-10
0.000598884
3.04339e-10
0.000598884
2.54646e-10
0.000598884
2.04531e-10
0.000598885
1.54056e-10
0.000598885
1.03266e-10
0.000598885
5.21975e-11
0.000598885
8.76914e-13
0.000598885
-5.06733e-11
0.000598885
-1.02432e-10
0.000598885
-1.54376e-10
0.000598885
-2.06476e-10
0.000598885
-2.58696e-10
0.000598885
-3.10984e-10
0.000598885
-3.6328e-10
0.000598885
-4.15501e-10
0.000598885
-4.67551e-10
0.000598885
-5.19307e-10
0.000598885
-5.70625e-10
0.000598885
-6.21335e-10
0.000598886
-6.7124e-10
0.000598886
-7.20114e-10
0.000598886
-7.67713e-10
0.000598886
-8.13768e-10
0.000598886
-8.58028e-10
0.000598886
-9.00219e-10
0.000598886
-9.40182e-10
0.000598886
-9.7767e-10
0.000598886
-1.0127e-09
0.000598886
-1.04488e-09
0.000598886
-1.07392e-09
0.000598886
-1.09857e-09
0.000598886
-1.11635e-09
0.000598886
-1.12401e-09
0.000598886
-1.11901e-09
0.000598886
-1.09668e-09
0.000598886
-1.05566e-09
0.000598886
-1.00302e-09
0.000598886
-9.44527e-10
0.000598887
-8.83127e-10
0.000598887
-8.20546e-10
0.000598887
-7.57051e-10
0.000598887
-6.91881e-10
0.000598887
-6.23701e-10
0.000598887
-5.51127e-10
0.000598887
-4.72651e-10
0.000598887
-3.87958e-10
0.000598887
-2.97359e-10
0.000598887
-2.14175e-10
0.000598887
-2.43756e-10
-7.70703e-10
0.000584673
-1.33651e-09
0.000584673
-1.31647e-09
0.000584673
-1.10717e-09
0.000584673
-8.77982e-10
0.000584673
-6.61512e-10
0.000584673
-4.68164e-10
0.000584673