/*--------------------------------*- C++ -*----------------------------------*\
  =========                 |
  \\      /  F ield         | OpenFOAM: The Open Source CFD Toolbox
   \\    /   O peration     | Website:  https://openfoam.org
    \\  /    A nd           | Version:  7
     \\/     M anipulation  |
\*---------------------------------------------------------------------------*/
FoamFile
{
    version     2.0;
    format      ascii;
    class       volScalarField;
    location    "4500";
    object      nut;
}
// * * * * * * * * * * * * * * * * * * * * * * * * * * * * * * * * * * * * * //

dimensions      [0 2 -1 0 0 0 0];

internalField   nonuniform List<scalar> 
4000
(
0.00346951
0.00347021
0.00347015
0.00346994
0.00346972
0.0034695
0.00346929
0.0034691
0.00346891
0.00346873
0.00346855
0.00346838
0.00346822
0.00346806
0.0034679
0.00346774
0.00346758
0.00346743
0.00346728
0.00346712
0.00346697
0.00346683
0.00346668
0.00346654
0.00346641
0.00346628
0.00346615
0.00346603
0.00346592
0.0034658
0.0034657
0.00346559
0.00346549
0.00346539
0.0034653
0.00346521
0.00346512
0.00346503
0.00346495
0.00346487
0.00346479
0.00346472
0.00346464
0.00346457
0.00346468
0.00346595
0.00346666
0.00346687
0.00346689
0.00346684
0.00346677
0.00346669
0.00346661
0.00346654
0.00346646
0.00346638
0.00346631
0.00346623
0.00346616
0.00346609
0.00346601
0.00346594
0.00346587
0.00346579
0.00346572
0.00346564
0.00346557
0.0034655
0.00346543
0.00346535
0.00346528
0.00346522
0.00346515
0.00346508
0.00346501
0.00346495
0.00346488
0.00346482
0.00346475
0.00346469
0.00346462
0.00346456
0.00346449
0.00346443
0.00346436
0.0034643
0.00346423
0.00346417
0.0034641
0.00346404
0.00346397
0.0034639
0.00346383
0.00346377
0.0034637
0.00346363
0.00346356
0.00346349
0.00346342
0.00346335
0.00346328
0.00346321
0.00346313
0.00346324
0.00346451
0.0034652
0.00346541
0.00346541
0.00346535
0.00346526
0.00346517
0.00346507
0.00346497
0.00346487
0.00346477
0.00346467
0.00346457
0.00346447
0.00346436
0.00346512
0.00345815
0.00345889
0.0034589
0.00345875
0.00345856
0.00345837
0.00345818
0.00345801
0.00345783
0.00345767
0.0034575
0.00345735
0.00345719
0.00345704
0.00345689
0.00345675
0.0034566
0.00345645
0.00345631
0.00345617
0.00345602
0.00345588
0.00345575
0.00345561
0.00345549
0.00345536
0.00345524
0.00345513
0.00345502
0.00345491
0.00345481
0.00345471
0.00345461
0.00345452
0.00345443
0.00345434
0.00345426
0.00345418
0.0034541
0.00345402
0.00345395
0.00345388
0.00345381
0.00345374
0.00345374
0.00345415
0.00345462
0.00345494
0.00345511
0.00345519
0.00345521
0.00345521
0.00345519
0.00345515
0.00345512
0.00345507
0.00345503
0.00345498
0.00345493
0.00345488
0.00345483
0.00345477
0.00345471
0.00345466
0.0034546
0.00345454
0.00345448
0.00345442
0.00345436
0.0034543
0.00345424
0.00345418
0.00345412
0.00345407
0.00345401
0.00345395
0.00345389
0.00345384
0.00345378
0.00345372
0.00345367
0.00345361
0.00345355
0.00345349
0.00345343
0.00345338
0.00345332
0.00345326
0.0034532
0.00345314
0.00345307
0.00345301
0.00345295
0.00345289
0.00345282
0.00345276
0.0034527
0.00345263
0.00345257
0.0034525
0.00345243
0.00345237
0.0034523
0.00345229
0.00345269
0.00345316
0.00345347
0.00345363
0.00345369
0.0034537
0.00345367
0.00345363
0.00345358
0.00345352
0.00345345
0.00345338
0.0034533
0.00345323
0.00345314
0.00345385
0.00343773
0.00343847
0.00343851
0.00343839
0.00343823
0.00343807
0.00343791
0.00343775
0.0034376
0.00343744
0.0034373
0.00343715
0.00343701
0.00343687
0.00343674
0.0034366
0.00343646
0.00343633
0.00343619
0.00343606
0.00343592
0.00343579
0.00343566
0.00343554
0.00343542
0.0034353
0.00343519
0.00343508
0.00343497
0.00343487
0.00343478
0.00343468
0.00343459
0.00343451
0.00343442
0.00343434
0.00343426
0.00343419
0.00343411
0.00343404
0.00343397
0.00343391
0.00343384
0.00343378
0.00343374
0.00343385
0.00343406
0.00343429
0.00343446
0.00343457
0.00343465
0.00343468
0.0034347
0.0034347
0.00343469
0.00343468
0.00343466
0.00343463
0.0034346
0.00343457
0.00343453
0.00343449
0.00343445
0.00343441
0.00343436
0.00343431
0.00343427
0.00343422
0.00343417
0.00343412
0.00343407
0.00343402
0.00343397
0.00343392
0.00343387
0.00343382
0.00343377
0.00343372
0.00343367
0.00343362
0.00343357
0.00343352
0.00343347
0.00343342
0.00343336
0.00343331
0.00343326
0.0034332
0.00343315
0.00343309
0.00343303
0.00343298
0.00343292
0.00343286
0.0034328
0.00343274
0.00343268
0.00343262
0.00343256
0.0034325
0.00343244
0.00343237
0.00343231
0.00343226
0.00343237
0.00343258
0.00343279
0.00343295
0.00343305
0.0034331
0.00343312
0.00343312
0.0034331
0.00343307
0.00343303
0.00343298
0.00343292
0.00343287
0.0034328
0.00343349
0.00340877
0.00340951
0.00340955
0.00340945
0.00340932
0.00340918
0.00340904
0.0034089
0.00340876
0.00340863
0.0034085
0.00340837
0.00340824
0.00340811
0.00340799
0.00340786
0.00340773
0.00340761
0.00340748
0.00340736
0.00340723
0.00340711
0.00340699
0.00340687
0.00340676
0.00340665
0.00340654
0.00340644
0.00340634
0.00340625
0.00340616
0.00340607
0.00340599
0.00340591
0.00340583
0.00340575
0.00340568
0.00340561
0.00340554
0.00340547
0.00340541
0.00340535
0.00340529
0.00340523
0.00340518
0.00340519
0.00340526
0.00340537
0.00340549
0.00340558
0.00340566
0.00340571
0.00340574
0.00340576
0.00340577
0.00340577
0.00340576
0.00340575
0.00340574
0.00340572
0.00340569
0.00340567
0.00340564
0.0034056
0.00340557
0.00340553
0.0034055
0.00340546
0.00340542
0.00340538
0.00340534
0.00340529
0.00340525
0.00340521
0.00340517
0.00340512
0.00340508
0.00340504
0.00340499
0.00340494
0.0034049
0.00340485
0.00340481
0.00340476
0.00340471
0.00340466
0.00340461
0.00340456
0.00340451
0.00340446
0.0034044
0.00340435
0.00340429
0.00340424
0.00340418
0.00340413
0.00340407
0.00340401
0.00340396
0.0034039
0.00340384
0.00340378
0.00340372
0.00340366
0.00340366
0.00340372
0.00340382
0.00340392
0.00340401
0.00340406
0.00340409
0.00340411
0.0034041
0.00340409
0.00340406
0.00340403
0.00340399
0.00340395
0.00340389
0.00340457
0.00337187
0.0033726
0.00337266
0.00337257
0.00337246
0.00337234
0.00337221
0.00337209
0.00337197
0.00337184
0.00337173
0.00337161
0.00337149
0.00337138
0.00337126
0.00337115
0.00337103
0.00337092
0.0033708
0.00337069
0.00337057
0.00337046
0.00337034
0.00337024
0.00337013
0.00337003
0.00336993
0.00336984
0.00336975
0.00336966
0.00336957
0.00336949
0.00336942
0.00336934
0.00336927
0.0033692
0.00336913
0.00336907
0.003369
0.00336894
0.00336888
0.00336883
0.00336877
0.00336872
0.00336867
0.00336864
0.00336864
0.00336868
0.00336874
0.0033688
0.00336885
0.00336889
0.00336893
0.00336895
0.00336896
0.00336897
0.00336897
0.00336897
0.00336896
0.00336895
0.00336894
0.00336892
0.0033689
0.00336887
0.00336885
0.00336882
0.00336879
0.00336875
0.00336872
0.00336869
0.00336865
0.00336862
0.00336858
0.00336854
0.0033685
0.00336847
0.00336843
0.00336839
0.00336835
0.0033683
0.00336826
0.00336822
0.00336818
0.00336813
0.00336809
0.00336804
0.00336799
0.00336794
0.0033679
0.00336785
0.0033678
0.00336775
0.00336769
0.00336764
0.00336759
0.00336754
0.00336748
0.00336743
0.00336737
0.00336731
0.00336726
0.0033672
0.00336714
0.00336709
0.00336705
0.00336704
0.00336707
0.00336711
0.00336715
0.00336718
0.00336721
0.00336722
0.00336722
0.00336721
0.00336719
0.00336717
0.00336714
0.0033671
0.00336706
0.00336772
0.00332767
0.00332841
0.00332847
0.0033284
0.00332829
0.00332818
0.00332807
0.00332797
0.00332786
0.00332775
0.00332764
0.00332754
0.00332743
0.00332733
0.00332723
0.00332712
0.00332702
0.00332691
0.00332681
0.0033267
0.00332659
0.00332649
0.00332638
0.00332628
0.00332619
0.00332609
0.003326
0.00332592
0.00332583
0.00332575
0.00332568
0.0033256
0.00332553
0.00332546
0.0033254
0.00332533
0.00332527
0.00332521
0.00332515
0.0033251
0.00332504
0.00332499
0.00332494
0.00332489
0.00332484
0.0033248
0.00332478
0.00332478
0.00332479
0.00332482
0.00332484
0.00332487
0.00332489
0.00332491
0.00332492
0.00332493
0.00332493
0.00332493
0.00332493
0.00332492
0.00332491
0.0033249
0.00332488
0.00332486
0.00332484
0.00332481
0.00332479
0.00332476
0.00332473
0.0033247
0.00332467
0.00332464
0.00332461
0.00332457
0.00332454
0.0033245
0.00332447
0.00332443
0.00332439
0.00332435
0.00332431
0.00332427
0.00332423
0.00332419
0.00332415
0.0033241
0.00332406
0.00332401
0.00332396
0.00332392
0.00332387
0.00332382
0.00332377
0.00332372
0.00332367
0.00332362
0.00332356
0.00332351
0.00332346
0.0033234
0.00332335
0.00332329
0.00332324
0.00332318
0.00332313
0.0033231
0.00332308
0.00332308
0.00332308
0.00332309
0.0033231
0.0033231
0.00332309
0.00332308
0.00332306
0.00332304
0.00332301
0.00332298
0.00332294
0.00332358
0.00327685
0.00327759
0.00327766
0.00327759
0.0032775
0.00327741
0.00327731
0.00327721
0.00327711
0.00327702
0.00327692
0.00327683
0.00327674
0.00327664
0.00327655
0.00327646
0.00327636
0.00327627
0.00327617
0.00327607
0.00327597
0.00327588
0.00327578
0.00327569
0.0032756
0.00327552
0.00327544
0.00327536
0.00327528
0.00327521
0.00327514
0.00327507
0.003275
0.00327494
0.00327488
0.00327482
0.00327477
0.00327471
0.00327466
0.00327461
0.00327456
0.00327451
0.00327446
0.00327442
0.00327437
0.00327433
0.0032743
0.00327428
0.00327427
0.00327427
0.00327427
0.00327428
0.00327429
0.0032743
0.0032743
0.00327431
0.00327431
0.00327431
0.0032743
0.00327429
0.00327428
0.00327427
0.00327425
0.00327424
0.00327422
0.0032742
0.00327417
0.00327415
0.00327412
0.00327409
0.00327406
0.00327403
0.003274
0.00327397
0.00327394
0.0032739
0.00327387
0.00327383
0.0032738
0.00327376
0.00327372
0.00327368
0.00327364
0.0032736
0.00327356
0.00327352
0.00327347
0.00327343
0.00327338
0.00327334
0.00327329
0.00327324
0.00327319
0.00327314
0.00327309
0.00327304
0.00327299
0.00327294
0.00327289
0.00327283
0.00327278
0.00327272
0.00327267
0.00327261
0.00327256
0.00327251
0.00327248
0.00327245
0.00327243
0.00327241
0.0032724
0.00327239
0.00327237
0.00327235
0.00327233
0.00327231
0.00327228
0.00327225
0.0032722
0.00327282
0.00322009
0.00322081
0.00322089
0.00322084
0.00322076
0.00322067
0.00322059
0.0032205
0.00322042
0.00322033
0.00322025
0.00322016
0.00322008
0.00322
0.00321992
0.00321983
0.00321975
0.00321966
0.00321957
0.00321948
0.00321939
0.00321931
0.00321922
0.00321914
0.00321906
0.00321898
0.00321891
0.00321884
0.00321877
0.0032187
0.00321864
0.00321858
0.00321852
0.00321846
0.0032184
0.00321835
0.0032183
0.00321825
0.0032182
0.00321816
0.00321811
0.00321807
0.00321802
0.00321798
0.00321794
0.0032179
0.00321787
0.00321784
0.00321781
0.0032178
0.00321779
0.00321778
0.00321778
0.00321777
0.00321777
0.00321777
0.00321776
0.00321775
0.00321775
0.00321774
0.00321772
0.00321771
0.00321769
0.00321768
0.00321766
0.00321763
0.00321761
0.00321759
0.00321756
0.00321753
0.0032175
0.00321748
0.00321744
0.00321741
0.00321738
0.00321735
0.00321731
0.00321728
0.00321724
0.0032172
0.00321716
0.00321713
0.00321709
0.00321704
0.003217
0.00321696
0.00321692
0.00321687
0.00321683
0.00321678
0.00321673
0.00321669
0.00321664
0.00321659
0.00321654
0.00321649
0.00321644
0.00321639
0.00321633
0.00321628
0.00321623
0.00321618
0.00321612
0.00321607
0.00321601
0.00321596
0.00321591
0.00321587
0.00321584
0.00321581
0.00321578
0.00321575
0.00321573
0.0032157
0.00321567
0.00321564
0.00321561
0.00321558
0.00321553
0.00321612
0.00315804
0.00315876
0.00315885
0.00315881
0.00315874
0.00315866
0.00315859
0.00315851
0.00315844
0.00315836
0.00315829
0.00315822
0.00315814
0.00315807
0.003158
0.00315792
0.00315784
0.00315777
0.00315769
0.00315761
0.00315753
0.00315745
0.00315737
0.0031573
0.00315723
0.00315716
0.00315709
0.00315703
0.00315697
0.00315691
0.00315685
0.00315679
0.00315674
0.00315669
0.00315664
0.00315659
0.00315655
0.0031565
0.00315646
0.00315641
0.00315637
0.00315633
0.00315629
0.00315625
0.00315621
0.00315618
0.00315614
0.00315611
0.00315608
0.00315605
0.00315603
0.00315602
0.003156
0.00315599
0.00315598
0.00315597
0.00315595
0.00315594
0.00315593
0.00315591
0.0031559
0.00315588
0.00315586
0.00315584
0.00315582
0.0031558
0.00315577
0.00315575
0.00315572
0.00315569
0.00315566
0.00315563
0.0031556
0.00315557
0.00315553
0.0031555
0.00315546
0.00315543
0.00315539
0.00315535
0.00315531
0.00315527
0.00315523
0.00315519
0.00315515
0.00315511
0.00315506
0.00315502
0.00315497
0.00315492
0.00315488
0.00315483
0.00315478
0.00315473
0.00315468
0.00315463
0.00315458
0.00315453
0.00315448
0.00315443
0.00315437
0.00315432
0.00315427
0.00315421
0.00315416
0.0031541
0.00315405
0.003154
0.00315396
0.00315392
0.00315388
0.00315384
0.00315381
0.00315378
0.00315374
0.00315371
0.00315367
0.00315364
0.00315359
0.00315414
0.00309137
0.00309209
0.00309219
0.00309216
0.0030921
0.00309203
0.00309197
0.0030919
0.00309184
0.00309177
0.00309171
0.00309164
0.00309158
0.00309152
0.00309145
0.00309139
0.00309132
0.00309125
0.00309118
0.00309111
0.00309104
0.00309097
0.0030909
0.00309084
0.00309077
0.00309071
0.00309065
0.0030906
0.00309054
0.00309049
0.00309044
0.00309039
0.00309034
0.0030903
0.00309025
0.00309021
0.00309017
0.00309012
0.00309008
0.00309004
0.00309001
0.00308997
0.00308993
0.00308989
0.00308986
0.00308982
0.00308978
0.00308975
0.00308972
0.00308969
0.00308966
0.00308964
0.00308961
0.00308959
0.00308957
0.00308955
0.00308954
0.00308952
0.0030895
0.00308948
0.00308946
0.00308944
0.00308941
0.00308939
0.00308936
0.00308934
0.00308931
0.00308928
0.00308925
0.00308922
0.00308919
0.00308916
0.00308913
0.00308909
0.00308906
0.00308902
0.00308898
0.00308894
0.00308891
0.00308887
0.00308883
0.00308878
0.00308874
0.0030887
0.00308866
0.00308861
0.00308857
0.00308852
0.00308847
0.00308843
0.00308838
0.00308833
0.00308828
0.00308823
0.00308818
0.00308813
0.00308808
0.00308803
0.00308798
0.00308792
0.00308787
0.00308782
0.00308776
0.00308771
0.00308766
0.0030876
0.00308755
0.0030875
0.00308745
0.0030874
0.00308736
0.00308731
0.00308727
0.00308723
0.00308719
0.00308716
0.00308712
0.00308708
0.00308703
0.00308755
0.00302072
0.00302144
0.00302154
0.00302152
0.00302147
0.00302142
0.00302136
0.00302131
0.00302125
0.0030212
0.00302115
0.00302109
0.00302104
0.00302099
0.00302093
0.00302087
0.00302081
0.00302075
0.00302069
0.00302063
0.00302057
0.00302051
0.00302045
0.00302039
0.00302033
0.00302028
0.00302023
0.00302018
0.00302013
0.00302008
0.00302004
0.00302
0.00301996
0.00301991
0.00301987
0.00301984
0.0030198
0.00301976
0.00301972
0.00301968
0.00301965
0.00301961
0.00301957
0.00301954
0.0030195
0.00301947
0.00301943
0.00301939
0.00301936
0.00301933
0.0030193
0.00301927
0.00301924
0.00301921
0.00301918
0.00301916
0.00301913
0.00301911
0.00301908
0.00301906
0.00301903
0.00301901
0.00301898
0.00301895
0.00301892
0.00301889
0.00301886
0.00301883
0.0030188
0.00301876
0.00301873
0.00301869
0.00301866
0.00301862
0.00301858
0.00301854
0.0030185
0.00301846
0.00301842
0.00301838
0.00301834
0.0030183
0.00301825
0.00301821
0.00301816
0.00301812
0.00301807
0.00301802
0.00301797
0.00301793
0.00301788
0.00301783
0.00301778
0.00301773
0.00301768
0.00301763
0.00301757
0.00301752
0.00301747
0.00301742
0.00301736
0.00301731
0.00301726
0.0030172
0.00301715
0.00301709
0.00301704
0.00301699
0.00301694
0.00301689
0.00301684
0.00301679
0.00301675
0.0030167
0.00301666
0.00301662
0.00301658
0.00301655
0.00301649
0.00301697
0.00294669
0.00294741
0.00294753
0.00294752
0.00294748
0.00294744
0.00294739
0.00294735
0.0029473
0.00294726
0.00294722
0.00294717
0.00294713
0.00294709
0.00294704
0.00294699
0.00294694
0.00294689
0.00294684
0.00294678
0.00294673
0.00294668
0.00294663
0.00294658
0.00294653
0.00294648
0.00294644
0.00294639
0.00294635
0.00294631
0.00294627
0.00294623
0.0029462
0.00294616
0.00294613
0.00294609
0.00294605
0.00294602
0.00294598
0.00294595
0.00294591
0.00294587
0.00294584
0.0029458
0.00294577
0.00294573
0.00294569
0.00294566
0.00294562
0.00294558
0.00294555
0.00294551
0.00294548
0.00294545
0.00294541
0.00294538
0.00294535
0.00294532
0.00294529
0.00294526
0.00294523
0.0029452
0.00294516
0.00294513
0.0029451
0.00294506
0.00294503
0.00294499
0.00294496
0.00294492
0.00294488
0.00294484
0.0029448
0.00294476
0.00294472
0.00294468
0.00294464
0.0029446
0.00294455
0.00294451
0.00294447
0.00294442
0.00294437
0.00294433
0.00294428
0.00294423
0.00294419
0.00294414
0.00294409
0.00294404
0.00294399
0.00294394
0.00294389
0.00294383
0.00294378
0.00294373
0.00294368
0.00294363
0.00294357
0.00294352
0.00294347
0.00294341
0.00294336
0.00294331
0.00294325
0.0029432
0.00294314
0.00294309
0.00294304
0.00294299
0.00294294
0.00294289
0.00294284
0.0029428
0.00294276
0.00294272
0.00294268
0.00294264
0.00294259
0.00294303
0.00286989
0.0028706
0.00287072
0.00287073
0.0028707
0.00287067
0.00287064
0.00287061
0.00287057
0.00287054
0.00287051
0.00287047
0.00287044
0.0028704
0.00287037
0.00287033
0.00287029
0.00287025
0.0028702
0.00287016
0.00287011
0.00287007
0.00287002
0.00286998
0.00286994
0.0028699
0.00286986
0.00286982
0.00286979
0.00286975
0.00286972
0.00286969
0.00286965
0.00286962
0.00286959
0.00286955
0.00286952
0.00286948
0.00286945
0.00286941
0.00286938
0.00286934
0.0028693
0.00286927
0.00286923
0.00286919
0.00286915
0.00286911
0.00286907
0.00286903
0.00286899
0.00286896
0.00286892
0.00286888
0.00286884
0.00286881
0.00286877
0.00286873
0.0028687
0.00286866
0.00286862
0.00286859
0.00286855
0.00286851
0.00286847
0.00286844
0.0028684
0.00286836
0.00286832
0.00286828
0.00286823
0.00286819
0.00286815
0.00286811
0.00286806
0.00286802
0.00286797
0.00286793
0.00286788
0.00286784
0.00286779
0.00286774
0.00286769
0.00286764
0.0028676
0.00286755
0.0028675
0.00286745
0.0028674
0.00286734
0.00286729
0.00286724
0.00286719
0.00286714
0.00286708
0.00286703
0.00286698
0.00286693
0.00286687
0.00286682
0.00286677
0.00286671
0.00286666
0.00286661
0.00286655
0.0028665
0.00286645
0.00286639
0.00286634
0.00286629
0.00286624
0.00286619
0.00286615
0.0028661
0.00286606
0.00286602
0.00286598
0.00286595
0.0028659
0.00286631
0.00279085
0.00279155
0.00279169
0.00279171
0.0027917
0.00279168
0.00279166
0.00279164
0.00279161
0.00279159
0.00279157
0.00279155
0.00279152
0.0027915
0.00279147
0.00279144
0.00279141
0.00279137
0.00279134
0.0027913
0.00279126
0.00279123
0.00279119
0.00279115
0.00279112
0.00279109
0.00279105
0.00279102
0.00279099
0.00279096
0.00279093
0.0027909
0.00279087
0.00279084
0.00279081
0.00279078
0.00279074
0.00279071
0.00279067
0.00279064
0.0027906
0.00279056
0.00279052
0.00279048
0.00279044
0.0027904
0.00279036
0.00279031
0.00279027
0.00279023
0.00279019
0.00279014
0.0027901
0.00279006
0.00279002
0.00278997
0.00278993
0.00278989
0.00278985
0.00278981
0.00278977
0.00278972
0.00278968
0.00278964
0.0027896
0.00278955
0.00278951
0.00278947
0.00278942
0.00278938
0.00278933
0.00278929
0.00278924
0.0027892
0.00278915
0.0027891
0.00278905
0.00278901
0.00278896
0.00278891
0.00278886
0.00278881
0.00278876
0.00278871
0.00278866
0.00278861
0.00278856
0.0027885
0.00278845
0.0027884
0.00278835
0.00278829
0.00278824
0.00278819
0.00278814
0.00278808
0.00278803
0.00278798
0.00278792
0.00278787
0.00278782
0.00278776
0.00278771
0.00278766
0.0027876
0.00278755
0.0027875
0.00278745
0.00278739
0.00278734
0.0027873
0.00278725
0.0027872
0.00278716
0.00278712
0.00278709
0.00278705
0.00278702
0.00278698
0.00278736
0.0027101
0.0027108
0.00271095
0.00271098
0.00271098
0.00271098
0.00271097
0.00271096
0.00271095
0.00271094
0.00271092
0.00271091
0.0027109
0.00271088
0.00271086
0.00271084
0.00271082
0.00271079
0.00271076
0.00271073
0.0027107
0.00271067
0.00271064
0.00271062
0.00271059
0.00271056
0.00271053
0.00271051
0.00271048
0.00271045
0.00271043
0.0027104
0.00271037
0.00271034
0.00271031
0.00271028
0.00271024
0.00271021
0.00271017
0.00271013
0.00271009
0.00271005
0.00271
0.00270996
0.00270991
0.00270987
0.00270982
0.00270978
0.00270973
0.00270968
0.00270964
0.00270959
0.00270954
0.00270949
0.00270945
0.0027094
0.00270935
0.00270931
0.00270926
0.00270921
0.00270917
0.00270912
0.00270907
0.00270903
0.00270898
0.00270893
0.00270889
0.00270884
0.00270879
0.00270874
0.0027087
0.00270865
0.0027086
0.00270855
0.0027085
0.00270845
0.0027084
0.00270835
0.0027083
0.00270825
0.00270819
0.00270814
0.00270809
0.00270804
0.00270799
0.00270793
0.00270788
0.00270783
0.00270777
0.00270772
0.00270767
0.00270761
0.00270756
0.00270751
0.00270745
0.0027074
0.00270735
0.00270729
0.00270724
0.00270719
0.00270713
0.00270708
0.00270703
0.00270698
0.00270692
0.00270687
0.00270682
0.00270677
0.00270672
0.00270667
0.00270663
0.00270658
0.00270654
0.0027065
0.00270647
0.00270644
0.00270641
0.00270639
0.00270635
0.0027067
0.00262812
0.00262883
0.00262899
0.00262903
0.00262904
0.00262905
0.00262906
0.00262906
0.00262906
0.00262906
0.00262906
0.00262905
0.00262905
0.00262904
0.00262903
0.00262902
0.002629
0.00262898
0.00262896
0.00262894
0.00262892
0.00262889
0.00262887
0.00262885
0.00262883
0.0026288
0.00262878
0.00262876
0.00262874
0.00262871
0.00262869
0.00262866
0.00262863
0.0026286
0.00262857
0.00262853
0.00262849
0.00262845
0.00262841
0.00262837
0.00262832
0.00262828
0.00262823
0.00262818
0.00262813
0.00262808
0.00262803
0.00262798
0.00262793
0.00262788
0.00262782
0.00262777
0.00262772
0.00262767
0.00262762
0.00262757
0.00262751
0.00262746
0.00262741
0.00262736
0.00262731
0.00262726
0.00262721
0.00262716
0.00262711
0.00262706
0.00262701
0.00262696
0.0026269
0.00262685
0.0026268
0.00262675
0.0026267
0.00262665
0.00262659
0.00262654
0.00262649
0.00262644
0.00262638
0.00262633
0.00262628
0.00262622
0.00262617
0.00262612
0.00262606
0.00262601
0.00262596
0.0026259
0.00262585
0.00262579
0.00262574
0.00262569
0.00262563
0.00262558
0.00262553
0.00262547
0.00262542
0.00262537
0.00262531
0.00262526
0.00262521
0.00262516
0.0026251
0.00262505
0.002625
0.00262495
0.0026249
0.00262485
0.0026248
0.00262476
0.00262472
0.00262468
0.00262464
0.00262461
0.00262458
0.00262456
0.00262454
0.00262453
0.0026245
0.00262481
0.00254538
0.00254608
0.00254625
0.00254631
0.00254633
0.00254636
0.00254637
0.00254639
0.0025464
0.00254641
0.00254641
0.00254642
0.00254642
0.00254642
0.00254642
0.00254642
0.00254641
0.0025464
0.00254638
0.00254637
0.00254635
0.00254633
0.00254631
0.0025463
0.00254628
0.00254626
0.00254624
0.00254622
0.0025462
0.00254618
0.00254615
0.00254613
0.00254609
0.00254606
0.00254602
0.00254598
0.00254594
0.00254589
0.00254585
0.0025458
0.00254575
0.00254569
0.00254564
0.00254559
0.00254553
0.00254548
0.00254542
0.00254536
0.00254531
0.00254525
0.0025452
0.00254514
0.00254508
0.00254503
0.00254497
0.00254491
0.00254486
0.0025448
0.00254475
0.00254469
0.00254464
0.00254459
0.00254453
0.00254448
0.00254442
0.00254437
0.00254431
0.00254426
0.00254421
0.00254415
0.0025441
0.00254404
0.00254399
0.00254394
0.00254388
0.00254383
0.00254377
0.00254372
0.00254367
0.00254361
0.00254356
0.0025435
0.00254345
0.00254339
0.00254334
0.00254328
0.00254323
0.00254318
0.00254312
0.00254307
0.00254301
0.00254296
0.00254291
0.00254285
0.0025428
0.00254275
0.00254269
0.00254264
0.00254259
0.00254254
0.00254249
0.00254243
0.00254238
0.00254233
0.00254228
0.00254223
0.00254218
0.00254214
0.0025421
0.00254206
0.00254202
0.00254199
0.00254196
0.00254194
0.00254192
0.00254191
0.0025419
0.00254189
0.00254188
0.00254216
0.00246228
0.00246297
0.00246316
0.00246323
0.00246327
0.0024633
0.00246333
0.00246335
0.00246338
0.0024634
0.00246341
0.00246343
0.00246344
0.00246345
0.00246345
0.00246345
0.00246345
0.00246344
0.00246343
0.00246342
0.00246341
0.0024634
0.00246339
0.00246337
0.00246336
0.00246334
0.00246333
0.00246331
0.00246329
0.00246326
0.00246324
0.00246321
0.00246317
0.00246313
0.00246309
0.00246304
0.00246299
0.00246294
0.00246288
0.00246283
0.00246277
0.00246271
0.00246265
0.00246259
0.00246253
0.00246247
0.00246241
0.00246234
0.00246228
0.00246222
0.00246216
0.0024621
0.00246204
0.00246198
0.00246192
0.00246186
0.0024618
0.00246174
0.00246168
0.00246162
0.00246157
0.00246151
0.00246145
0.00246139
0.00246134
0.00246128
0.00246122
0.00246117
0.00246111
0.00246106
0.002461
0.00246094
0.00246089
0.00246083
0.00246078
0.00246072
0.00246067
0.00246061
0.00246056
0.0024605
0.00246045
0.00246039
0.00246034
0.00246028
0.00246023
0.00246017
0.00246012
0.00246006
0.00246001
0.00245996
0.0024599
0.00245985
0.00245979
0.00245974
0.00245969
0.00245964
0.00245959
0.00245953
0.00245948
0.00245943
0.00245938
0.00245933
0.00245928
0.00245923
0.00245918
0.00245914
0.00245909
0.00245905
0.00245901
0.00245898
0.00245895
0.00245893
0.00245891
0.0024589
0.0024589
0.0024589
0.0024589
0.00245891
0.0024589
0.00245916
0.00237921
0.0023799
0.00238009
0.00238017
0.00238023
0.00238027
0.00238031
0.00238034
0.00238037
0.0023804
0.00238043
0.00238045
0.00238047
0.00238048
0.00238049
0.0023805
0.0023805
0.0023805
0.00238049
0.00238049
0.00238048
0.00238047
0.00238046
0.00238045
0.00238044
0.00238043
0.00238041
0.00238039
0.00238037
0.00238034
0.00238031
0.00238027
0.00238023
0.00238018
0.00238013
0.00238007
0.00238002
0.00237995
0.00237989
0.00237983
0.00237976
0.0023797
0.00237963
0.00237956
0.00237949
0.00237943
0.00237936
0.00237929
0.00237923
0.00237916
0.00237909
0.00237903
0.00237897
0.0023789
0.00237884
0.00237878
0.00237871
0.00237865
0.00237859
0.00237853
0.00237847
0.00237841
0.00237835
0.00237829
0.00237823
0.00237817
0.00237812
0.00237806
0.002378
0.00237794
0.00237789
0.00237783
0.00237777
0.00237771
0.00237766
0.0023776
0.00237755
0.00237749
0.00237743
0.00237738
0.00237732
0.00237727
0.00237721
0.00237716
0.0023771
0.00237705
0.002377
0.00237694
0.00237689
0.00237684
0.00237678
0.00237673
0.00237668
0.00237663
0.00237657
0.00237652
0.00237647
0.00237642
0.00237637
0.00237632
0.00237627
0.00237623
0.00237618
0.00237613
0.00237608
0.00237604
0.002376
0.00237596
0.00237593
0.00237591
0.00237589
0.00237588
0.00237588
0.00237589
0.00237589
0.00237591
0.00237592
0.00237595
0.00237595
0.00237619
0.00229652
0.00229719
0.00229739
0.00229749
0.00229755
0.00229761
0.00229765
0.0022977
0.00229773
0.00229777
0.0022978
0.00229783
0.00229785
0.00229787
0.00229789
0.0022979
0.0022979
0.0022979
0.0022979
0.0022979
0.0022979
0.00229789
0.00229788
0.00229788
0.00229787
0.00229785
0.00229784
0.00229781
0.00229778
0.00229775
0.00229771
0.00229766
0.00229761
0.00229755
0.00229749
0.00229742
0.00229735
0.00229728
0.00229721
0.00229714
0.00229706
0.00229699
0.00229692
0.00229684
0.00229677
0.0022967
0.00229662
0.00229655
0.00229648
0.00229641
0.00229634
0.00229627
0.00229621
0.00229614
0.00229607
0.00229601
0.00229594
0.00229588
0.00229582
0.00229575
0.00229569
0.00229563
0.00229557
0.00229551
0.00229545
0.00229539
0.00229533
0.00229527
0.00229521
0.00229516
0.0022951
0.00229504
0.00229498
0.00229493
0.00229487
0.00229481
0.00229476
0.0022947
0.00229465
0.00229459
0.00229454
0.00229448
0.00229443
0.00229437
0.00229432
0.00229427
0.00229421
0.00229416
0.00229411
0.00229406
0.002294
0.00229395
0.0022939
0.00229385
0.0022938
0.00229375
0.0022937
0.00229365
0.00229361
0.00229356
0.00229351
0.00229346
0.00229342
0.00229337
0.00229333
0.00229329
0.00229326
0.00229323
0.00229321
0.0022932
0.0022932
0.00229321
0.00229322
0.00229324
0.00229327
0.00229329
0.00229333
0.00229336
0.00229338
0.0022936
0.00221451
0.00221517
0.00221538
0.00221548
0.00221555
0.00221562
0.00221567
0.00221572
0.00221577
0.00221581
0.00221584
0.00221587
0.0022159
0.00221592
0.00221594
0.00221595
0.00221596
0.00221597
0.00221597
0.00221597
0.00221597
0.00221596
0.00221596
0.00221595
0.00221594
0.00221592
0.0022159
0.00221587
0.00221584
0.00221579
0.00221574
0.00221568
0.00221561
0.00221554
0.00221547
0.00221539
0.00221531
0.00221523
0.00221515
0.00221506
0.00221498
0.0022149
0.00221482
0.00221474
0.00221466
0.00221458
0.00221451
0.00221443
0.00221436
0.00221429
0.00221421
0.00221414
0.00221407
0.002214
0.00221394
0.00221387
0.0022138
0.00221374
0.00221367
0.00221361
0.00221355
0.00221349
0.00221342
0.00221336
0.0022133
0.00221324
0.00221318
0.00221312
0.00221307
0.00221301
0.00221295
0.00221289
0.00221284
0.00221278
0.00221272
0.00221267
0.00221261
0.00221256
0.0022125
0.00221245
0.00221239
0.00221234
0.00221229
0.00221224
0.00221218
0.00221213
0.00221208
0.00221203
0.00221198
0.00221193
0.00221188
0.00221183
0.00221178
0.00221173
0.00221168
0.00221163
0.00221159
0.00221154
0.00221149
0.00221145
0.0022114
0.00221136
0.00221131
0.00221127
0.00221123
0.0022112
0.00221118
0.00221116
0.00221116
0.00221117
0.00221118
0.00221121
0.00221124
0.00221128
0.00221133
0.00221137
0.00221142
0.00221147
0.0022115
0.0022117
0.00213346
0.00213412
0.00213432
0.00213443
0.00213451
0.00213458
0.00213464
0.0021347
0.00213475
0.00213479
0.00213483
0.00213486
0.00213489
0.00213491
0.00213493
0.00213495
0.00213496
0.00213496
0.00213497
0.00213497
0.00213497
0.00213496
0.00213496
0.00213495
0.00213493
0.00213491
0.00213488
0.00213484
0.00213479
0.00213473
0.00213467
0.00213459
0.00213451
0.00213442
0.00213434
0.00213425
0.00213415
0.00213406
0.00213397
0.00213388
0.00213379
0.00213371
0.00213362
0.00213353
0.00213345
0.00213337
0.00213329
0.00213321
0.00213314
0.00213306
0.00213299
0.00213292
0.00213284
0.00213277
0.00213271
0.00213264
0.00213257
0.00213251
0.00213244
0.00213238
0.00213232
0.00213225
0.00213219
0.00213213
0.00213207
0.00213201
0.00213195
0.0021319
0.00213184
0.00213178
0.00213172
0.00213167
0.00213161
0.00213156
0.0021315
0.00213145
0.00213139
0.00213134
0.00213129
0.00213123
0.00213118
0.00213113
0.00213108
0.00213103
0.00213098
0.00213092
0.00213087
0.00213083
0.00213078
0.00213073
0.00213068
0.00213063
0.00213059
0.00213054
0.00213049
0.00213045
0.0021304
0.00213036
0.00213031
0.00213027
0.00213023
0.00213018
0.00213014
0.00213011
0.00213008
0.00213006
0.00213005
0.00213005
0.00213006
0.00213009
0.00213013
0.00213018
0.00213024
0.0021303
0.00213036
0.00213042
0.00213048
0.00213054
0.00213059
0.00213077
0.00205363
0.00205426
0.00205447
0.00205459
0.00205467
0.00205474
0.00205481
0.00205486
0.00205491
0.00205496
0.002055
0.00205503
0.00205506
0.00205509
0.0020551
0.00205512
0.00205513
0.00205514
0.00205514
0.00205514
0.00205514
0.00205513
0.00205513
0.00205511
0.00205509
0.00205506
0.00205502
0.00205496
0.00205489
0.00205482
0.00205473
0.00205464
0.00205454
0.00205444
0.00205434
0.00205423
0.00205413
0.00205403
0.00205393
0.00205384
0.00205374
0.00205365
0.00205356
0.00205347
0.00205339
0.0020533
0.00205322
0.00205314
0.00205306
0.00205299
0.00205291