/*--------------------------------*- C++ -*----------------------------------*\
  =========                 |
  \\      /  F ield         | OpenFOAM: The Open Source CFD Toolbox
   \\    /   O peration     | Website:  https://openfoam.org
    \\  /    A nd           | Version:  7
     \\/     M anipulation  |
\*---------------------------------------------------------------------------*/
FoamFile
{
    version     2.0;
    format      ascii;
    class       volScalarField;
    location    "4500";
    object      omega;
}
// * * * * * * * * * * * * * * * * * * * * * * * * * * * * * * * * * * * * * //

dimensions      [0 0 -1 0 0 0 0];

internalField   nonuniform List<scalar> 
4000
(
0.026435
0.0264296
0.0264301
0.0264317
0.0264335
0.0264352
0.0264368
0.0264384
0.0264398
0.0264413
0.0264426
0.026444
0.0264453
0.0264465
0.0264478
0.026449
0.0264503
0.0264515
0.0264527
0.0264539
0.0264551
0.0264562
0.0264573
0.0264584
0.0264595
0.0264605
0.0264615
0.0264624
0.0264633
0.0264642
0.0264651
0.0264659
0.0264667
0.0264675
0.0264682
0.0264689
0.0264696
0.0264703
0.0264709
0.0264715
0.0264722
0.0264727
0.0264733
0.0264739
0.026473
0.0264631
0.0264577
0.026456
0.0264559
0.0264563
0.0264569
0.0264575
0.0264581
0.0264588
0.0264594
0.02646
0.0264606
0.0264612
0.0264618
0.0264624
0.026463
0.0264636
0.0264642
0.0264648
0.0264653
0.0264659
0.0264665
0.0264671
0.0264677
0.0264682
0.0264688
0.0264693
0.0264699
0.0264704
0.0264709
0.0264714
0.0264719
0.0264725
0.026473
0.0264735
0.026474
0.0264745
0.026475
0.0264755
0.0264759
0.0264764
0.0264769
0.0264774
0.0264779
0.0264785
0.026479
0.0264795
0.02648
0.0264805
0.026481
0.0264815
0.026482
0.0264825
0.026483
0.0264836
0.0264841
0.0264846
0.0264851
0.0264843
0.0264744
0.0264689
0.0264673
0.0264672
0.0264677
0.0264684
0.0264691
0.0264698
0.0264706
0.0264713
0.0264721
0.0264728
0.0264736
0.0264744
0.0264752
0.0264692
0.0265592
0.0265535
0.0265534
0.0265547
0.0265561
0.0265576
0.0265591
0.0265605
0.0265619
0.0265632
0.0265645
0.0265658
0.026567
0.0265682
0.0265694
0.0265705
0.0265717
0.0265729
0.026574
0.0265752
0.0265763
0.0265774
0.0265785
0.0265795
0.0265806
0.0265815
0.0265825
0.0265834
0.0265843
0.0265851
0.0265859
0.0265867
0.0265875
0.0265882
0.0265889
0.0265896
0.0265903
0.0265909
0.0265916
0.0265922
0.0265928
0.0265933
0.0265939
0.0265944
0.0265945
0.0265912
0.0265876
0.026585
0.0265837
0.0265831
0.026583
0.026583
0.0265832
0.0265835
0.0265838
0.0265841
0.0265845
0.0265849
0.0265853
0.0265858
0.0265862
0.0265866
0.0265871
0.0265876
0.0265881
0.0265885
0.026589
0.0265895
0.02659
0.0265905
0.0265909
0.0265914
0.0265918
0.0265923
0.0265928
0.0265932
0.0265937
0.0265941
0.0265946
0.026595
0.0265954
0.0265959
0.0265963
0.0265968
0.0265972
0.0265977
0.0265981
0.0265986
0.0265991
0.0265995
0.0266
0.0266005
0.0266009
0.0266014
0.0266019
0.0266023
0.0266028
0.0266033
0.0266038
0.0266043
0.0266048
0.0266053
0.0266058
0.0266058
0.0266026
0.0265989
0.0265964
0.0265951
0.0265946
0.0265945
0.0265947
0.026595
0.0265954
0.0265958
0.0265963
0.0265969
0.0265974
0.026598
0.0265986
0.026593
0.0267778
0.0267719
0.0267717
0.0267727
0.0267739
0.0267752
0.0267765
0.0267778
0.0267791
0.0267803
0.0267815
0.0267826
0.0267838
0.0267849
0.026786
0.0267871
0.0267882
0.0267893
0.0267904
0.0267915
0.0267926
0.0267936
0.0267947
0.0267957
0.0267967
0.0267976
0.0267985
0.0267994
0.0268003
0.0268011
0.0268019
0.0268026
0.0268034
0.0268041
0.0268047
0.0268054
0.026806
0.0268067
0.0268073
0.0268078
0.0268084
0.0268089
0.0268095
0.02681
0.0268103
0.0268094
0.0268077
0.026806
0.0268046
0.0268037
0.0268032
0.0268029
0.0268027
0.0268027
0.0268028
0.026803
0.0268032
0.0268034
0.0268037
0.026804
0.0268043
0.0268046
0.0268049
0.0268053
0.0268057
0.026806
0.0268064
0.0268068
0.0268072
0.0268076
0.026808
0.0268084
0.0268088
0.0268092
0.0268096
0.02681
0.0268104
0.0268108
0.0268112
0.0268116
0.026812
0.0268124
0.0268128
0.0268132
0.0268136
0.026814
0.0268145
0.0268149
0.0268153
0.0268157
0.0268162
0.0268166
0.026817
0.0268175
0.0268179
0.0268184
0.0268188
0.0268193
0.0268198
0.0268202
0.0268207
0.0268211
0.0268216
0.0268219
0.0268211
0.0268194
0.0268176
0.0268163
0.0268155
0.026815
0.0268148
0.0268148
0.026815
0.0268152
0.0268155
0.0268158
0.0268162
0.0268166
0.0268171
0.0268116
0.0270887
0.0270827
0.0270824
0.0270832
0.0270843
0.0270854
0.0270866
0.0270878
0.0270889
0.02709
0.0270911
0.0270922
0.0270933
0.0270943
0.0270954
0.0270964
0.0270974
0.0270985
0.0270995
0.0271006
0.0271016
0.0271026
0.0271036
0.0271046
0.0271055
0.0271064
0.0271073
0.0271082
0.027109
0.0271098
0.0271105
0.0271112
0.0271119
0.0271126
0.0271133
0.0271139
0.0271145
0.0271151
0.0271157
0.0271162
0.0271168
0.0271173
0.0271178
0.0271183
0.0271187
0.0271187
0.0271181
0.0271172
0.0271163
0.0271155
0.0271149
0.0271145
0.0271143
0.0271141
0.0271141
0.0271141
0.0271141
0.0271142
0.0271144
0.0271146
0.0271148
0.027115
0.0271153
0.0271155
0.0271158
0.0271161
0.0271164
0.0271168
0.0271171
0.0271174
0.0271178
0.0271181
0.0271185
0.0271188
0.0271192
0.0271195
0.0271199
0.0271202
0.0271206
0.0271209
0.0271213
0.0271217
0.027122
0.0271224
0.0271228
0.0271232
0.0271236
0.027124
0.0271244
0.0271248
0.0271252
0.0271256
0.027126
0.0271264
0.0271269
0.0271273
0.0271277
0.0271282
0.0271286
0.0271291
0.0271295
0.02713
0.0271304
0.0271308
0.0271308
0.0271302
0.0271294
0.0271285
0.0271278
0.0271273
0.027127
0.0271269
0.0271268
0.0271269
0.0271271
0.0271273
0.0271276
0.0271279
0.0271283
0.0271228
0.0274905
0.0274844
0.027484
0.0274847
0.0274857
0.0274867
0.0274878
0.0274889
0.0274899
0.0274909
0.0274919
0.0274929
0.0274939
0.0274949
0.0274959
0.0274969
0.0274979
0.0274989
0.0274999
0.0275008
0.0275018
0.0275028
0.0275038
0.0275047
0.0275056
0.0275065
0.0275073
0.0275081
0.0275089
0.0275097
0.0275104
0.0275111
0.0275118
0.0275124
0.027513
0.0275136
0.0275142
0.0275148
0.0275153
0.0275159
0.0275164
0.0275169
0.0275174
0.0275178
0.0275183
0.0275185
0.0275185
0.0275182
0.0275177
0.0275173
0.0275168
0.0275165
0.0275162
0.027516
0.0275159
0.0275159
0.0275159
0.0275159
0.027516
0.0275161
0.0275162
0.0275164
0.0275166
0.0275168
0.027517
0.0275173
0.0275175
0.0275178
0.0275181
0.0275184
0.0275187
0.027519
0.0275193
0.0275196
0.0275199
0.0275202
0.0275205
0.0275209
0.0275212
0.0275215
0.0275219
0.0275222
0.0275226
0.0275229
0.0275233
0.0275236
0.027524
0.0275244
0.0275248
0.0275252
0.0275256
0.027526
0.0275264
0.0275268
0.0275272
0.0275276
0.027528
0.0275285
0.0275289
0.0275293
0.0275298
0.0275302
0.0275306
0.0275311
0.0275313
0.0275313
0.0275311
0.0275307
0.0275303
0.02753
0.0275297
0.0275296
0.0275295
0.0275296
0.0275297
0.0275298
0.02753
0.0275303
0.0275306
0.0275251
0.0279828
0.0279765
0.027976
0.0279766
0.0279775
0.0279785
0.0279795
0.0279804
0.0279814
0.0279823
0.0279833
0.0279842
0.0279851
0.0279861
0.027987
0.0279879
0.0279888
0.0279898
0.0279907
0.0279917
0.0279926
0.0279936
0.0279945
0.0279954
0.0279962
0.0279971
0.0279979
0.0279987
0.0279994
0.0280001
0.0280008
0.0280015
0.0280021
0.0280028
0.0280034
0.028004
0.0280045
0.0280051
0.0280056
0.0280061
0.0280066
0.0280071
0.0280075
0.028008
0.0280084
0.0280088
0.028009
0.028009
0.0280089
0.0280087
0.0280085
0.0280083
0.0280081
0.0280079
0.0280078
0.0280078
0.0280078
0.0280078
0.0280078
0.0280079
0.028008
0.0280081
0.0280083
0.0280085
0.0280086
0.0280089
0.0280091
0.0280093
0.0280096
0.0280098
0.0280101
0.0280103
0.0280106
0.0280109
0.0280112
0.0280115
0.0280118
0.0280121
0.0280124
0.0280127
0.0280131
0.0280134
0.0280137
0.0280141
0.0280144
0.0280148
0.0280152
0.0280155
0.0280159
0.0280163
0.0280167
0.0280171
0.0280175
0.0280179
0.0280183
0.0280187
0.0280191
0.0280195
0.0280199
0.0280204
0.0280208
0.0280213
0.0280217
0.0280221
0.0280225
0.0280228
0.0280229
0.0280228
0.0280227
0.0280226
0.0280225
0.0280224
0.0280224
0.0280225
0.0280226
0.0280227
0.0280229
0.0280231
0.0280235
0.0280179
0.0285656
0.0285591
0.0285585
0.0285591
0.0285599
0.0285608
0.0285617
0.0285626
0.0285635
0.0285644
0.0285653
0.0285662
0.028567
0.0285679
0.0285688
0.0285696
0.0285705
0.0285714
0.0285723
0.0285732
0.0285741
0.028575
0.0285759
0.0285768
0.0285776
0.0285784
0.0285792
0.0285799
0.0285806
0.0285813
0.028582
0.0285826
0.0285832
0.0285838
0.0285844
0.028585
0.0285855
0.028586
0.0285865
0.028587
0.0285875
0.028588
0.0285884
0.0285888
0.0285893
0.0285896
0.0285899
0.0285902
0.0285903
0.0285903
0.0285902
0.0285902
0.0285901
0.02859
0.02859
0.02859
0.02859
0.02859
0.0285901
0.0285901
0.0285902
0.0285904
0.0285905
0.0285906
0.0285908
0.028591
0.0285912
0.0285914
0.0285917
0.0285919
0.0285922
0.0285924
0.0285927
0.028593
0.0285932
0.0285935
0.0285938
0.0285941
0.0285944
0.0285947
0.0285951
0.0285954
0.0285957
0.0285961
0.0285964
0.0285968
0.0285971
0.0285975
0.0285979
0.0285983
0.0285987
0.0285991
0.0285995
0.0285999
0.0286003
0.0286007
0.0286011
0.0286015
0.028602
0.0286024
0.0286028
0.0286033
0.0286037
0.0286042
0.0286046
0.028605
0.0286052
0.0286054
0.0286055
0.0286056
0.0286057
0.0286057
0.0286058
0.0286059
0.0286061
0.0286062
0.0286064
0.0286066
0.028607
0.0286015
0.02924
0.0292332
0.0292325
0.0292331
0.0292338
0.0292347
0.0292355
0.0292364
0.0292372
0.029238
0.0292388
0.0292396
0.0292405
0.0292413
0.0292421
0.0292429
0.0292438
0.0292446
0.0292455
0.0292464
0.0292472
0.0292481
0.0292489
0.0292497
0.0292505
0.0292513
0.029252
0.0292527
0.0292534
0.0292541
0.0292547
0.0292553
0.0292559
0.0292565
0.0292571
0.0292576
0.0292581
0.0292586
0.0292591
0.0292596
0.02926
0.0292605
0.0292609
0.0292613
0.0292617
0.0292621
0.0292625
0.0292627
0.029263
0.0292631
0.0292632
0.0292633
0.0292634
0.0292634
0.0292634
0.0292635
0.0292635
0.0292636
0.0292637
0.0292638
0.0292639
0.029264
0.0292641
0.0292643
0.0292645
0.0292647
0.0292649
0.0292651
0.0292653
0.0292656
0.0292658
0.0292661
0.0292663
0.0292666
0.0292669
0.0292672
0.0292675
0.0292678
0.0292681
0.0292684
0.0292688
0.0292691
0.0292694
0.0292698
0.0292702
0.0292705
0.0292709
0.0292713
0.0292717
0.029272
0.0292724
0.0292729
0.0292733
0.0292737
0.0292741
0.0292745
0.029275
0.0292754
0.0292758
0.0292763
0.0292767
0.0292772
0.0292776
0.0292781
0.0292785
0.0292789
0.0292793
0.0292797
0.0292799
0.0292801
0.0292803
0.0292805
0.0292807
0.0292809
0.0292811
0.0292813
0.0292815
0.0292818
0.0292821
0.0292767
0.0300075
0.0300005
0.0299997
0.0300001
0.0300009
0.0300016
0.0300024
0.0300032
0.030004
0.0300048
0.0300055
0.0300063
0.030007
0.0300078
0.0300086
0.0300094
0.0300102
0.030011
0.0300118
0.0300126
0.0300135
0.0300143
0.0300151
0.0300158
0.0300166
0.0300173
0.030018
0.0300187
0.0300194
0.03002
0.0300206
0.0300212
0.0300218
0.0300223
0.0300228
0.0300233
0.0300238
0.0300243
0.0300248
0.0300253
0.0300257
0.0300261
0.0300266
0.030027
0.0300274
0.0300278
0.0300281
0.0300285
0.0300288
0.030029
0.0300292
0.0300294
0.0300295
0.0300297
0.0300298
0.0300299
0.03003
0.0300301
0.0300302
0.0300304
0.0300305
0.0300307
0.0300308
0.030031
0.0300312
0.0300314
0.0300317
0.0300319
0.0300321
0.0300324
0.0300327
0.0300329
0.0300332
0.0300335
0.0300338
0.0300341
0.0300344
0.0300348
0.0300351
0.0300354
0.0300358
0.0300361
0.0300365
0.0300369
0.0300372
0.0300376
0.030038
0.0300384
0.0300388
0.0300392
0.0300396
0.0300401
0.0300405
0.0300409
0.0300414
0.0300418
0.0300422
0.0300427
0.0300432
0.0300436
0.0300441
0.0300445
0.030045
0.0300455
0.0300459
0.0300464
0.0300468
0.0300472
0.0300476
0.030048
0.0300483
0.0300485
0.0300488
0.0300491
0.0300493
0.0300496
0.0300499
0.0300502
0.0300506
0.0300452
0.0308705
0.0308632
0.0308622
0.0308626
0.0308633
0.030864
0.0308647
0.0308654
0.0308662
0.0308669
0.0308676
0.0308683
0.030869
0.0308697
0.0308704
0.0308712
0.0308719
0.0308727
0.0308735
0.0308743
0.0308751
0.0308759
0.0308766
0.0308774
0.0308781
0.0308788
0.0308794
0.0308801
0.0308807
0.0308813
0.0308819
0.0308824
0.030883
0.0308835
0.030884
0.0308845
0.030885
0.0308854
0.0308859
0.0308863
0.0308868
0.0308872
0.0308876
0.030888
0.0308884
0.0308888
0.0308892
0.0308896
0.0308899
0.0308902
0.0308905
0.0308908
0.030891
0.0308912
0.0308914
0.0308916
0.0308918
0.030892
0.0308921
0.0308923
0.0308925
0.0308927
0.0308929
0.0308932
0.0308934
0.0308936
0.0308939
0.0308942
0.0308944
0.0308947
0.030895
0.0308953
0.0308956
0.030896
0.0308963
0.0308966
0.030897
0.0308973
0.0308977
0.030898
0.0308984
0.0308988
0.0308992
0.0308996
0.0309
0.0309004
0.0309008
0.0309012
0.0309017
0.0309021
0.0309025
0.030903
0.0309034
0.0309039
0.0309044
0.0309048
0.0309053
0.0309058
0.0309062
0.0309067
0.0309072
0.0309077
0.0309082
0.0309087
0.0309091
0.0309096
0.0309101
0.0309106
0.030911
0.0309114
0.0309118
0.0309122
0.0309125
0.0309128
0.0309132
0.0309135
0.0309138
0.0309141
0.0309146
0.0309093
0.0318319
0.0318242
0.0318232
0.0318235
0.031824
0.0318247
0.0318253
0.031826
0.0318267
0.0318273
0.031828
0.0318286
0.0318293
0.0318299
0.0318306
0.0318313
0.031832
0.0318328
0.0318335
0.0318342
0.031835
0.0318357
0.0318364
0.0318371
0.0318378
0.0318385
0.0318391
0.0318397
0.0318403
0.0318409
0.0318414
0.0318419
0.0318425
0.031843
0.0318434
0.0318439
0.0318444
0.0318448
0.0318453
0.0318457
0.0318462
0.0318466
0.031847
0.0318474
0.0318479
0.0318483
0.0318487
0.0318491
0.0318494
0.0318498
0.0318501
0.0318505
0.0318508
0.031851
0.0318513
0.0318516
0.0318518
0.0318521
0.0318523
0.0318526
0.0318529
0.0318531
0.0318534
0.0318537
0.0318539
0.0318542
0.0318545
0.0318548
0.0318552
0.0318555
0.0318558
0.0318562
0.0318565
0.0318569
0.0318572
0.0318576
0.031858
0.0318584
0.0318588
0.0318592
0.0318596
0.03186
0.0318604
0.0318609
0.0318613
0.0318618
0.0318622
0.0318627
0.0318631
0.0318636
0.0318641
0.0318645
0.031865
0.0318655
0.031866
0.0318665
0.031867
0.0318675
0.031868
0.0318685
0.031869
0.0318695
0.03187
0.0318705
0.0318711
0.0318716
0.0318721
0.0318726
0.0318731
0.0318735
0.031874
0.0318744
0.0318748
0.0318752
0.0318756
0.031876
0.0318763
0.0318766
0.0318771
0.031872
0.0328953
0.0328873
0.032886
0.0328862
0.0328867
0.0328873
0.0328878
0.0328884
0.032889
0.0328896
0.0328902
0.0328908
0.0328914
0.032892
0.0328926
0.0328932
0.0328939
0.0328946
0.0328953
0.032896
0.0328967
0.0328973
0.032898
0.0328987
0.0328993
0.0328999
0.0329005
0.0329011
0.0329017
0.0329022
0.0329027
0.0329032
0.0329037
0.0329042
0.0329047
0.0329051
0.0329056
0.032906
0.0329065
0.0329069
0.0329074
0.0329078
0.0329083
0.0329087
0.0329091
0.0329096
0.03291
0.0329104
0.0329108
0.0329113
0.0329117
0.032912
0.0329124
0.0329128
0.0329131
0.0329135
0.0329138
0.0329141
0.0329145
0.0329148
0.0329151
0.0329154
0.0329158
0.0329161
0.0329164
0.0329168
0.0329172
0.0329175
0.0329179
0.0329183
0.0329187
0.0329191
0.0329195
0.0329199
0.0329203
0.0329207
0.0329211
0.0329216
0.032922
0.0329225
0.0329229
0.0329234
0.0329239
0.0329243
0.0329248
0.0329253
0.0329258
0.0329263
0.0329268
0.0329273
0.0329278
0.0329283
0.0329288
0.0329294
0.0329299
0.0329304
0.0329309
0.0329315
0.032932
0.0329326
0.0329331
0.0329336
0.0329342
0.0329347
0.0329353
0.0329358
0.0329363
0.0329369
0.0329374
0.0329379
0.0329384
0.0329389
0.0329393
0.0329398
0.0329402
0.0329406
0.032941
0.0329413
0.0329418
0.0329368
0.0340649
0.0340564
0.0340549
0.034055
0.0340554
0.0340559
0.0340564
0.0340569
0.0340574
0.0340579
0.0340584
0.0340589
0.0340594
0.0340599
0.0340605
0.0340611
0.0340617
0.0340623
0.0340629
0.0340636
0.0340642
0.0340649
0.0340655
0.0340661
0.0340667
0.0340673
0.0340678
0.0340684
0.0340689
0.0340694
0.0340699
0.0340704
0.0340708
0.0340713
0.0340718
0.0340722
0.0340727
0.0340732
0.0340736
0.0340741
0.0340746
0.034075
0.0340755
0.034076
0.0340765
0.0340769
0.0340774
0.0340779
0.0340783
0.0340788
0.0340793
0.0340797
0.0340802
0.0340806
0.034081
0.0340815
0.0340819
0.0340823
0.0340827
0.0340831
0.0340835
0.0340839
0.0340843
0.0340847
0.0340851
0.0340856
0.034086
0.0340864
0.0340869
0.0340873
0.0340877
0.0340882
0.0340887
0.0340891
0.0340896
0.0340901
0.0340906
0.0340911
0.0340916
0.0340921
0.0340926
0.0340931
0.0340936
0.0340941
0.0340947
0.0340952
0.0340958
0.0340963
0.0340968
0.0340974
0.034098
0.0340985
0.0340991
0.0340996
0.0341002
0.0341008
0.0341013
0.0341019
0.0341025
0.0341031
0.0341036
0.0341042
0.0341048
0.0341053
0.0341059
0.0341065
0.034107
0.0341076
0.0341082
0.0341087
0.0341092
0.0341097
0.0341102
0.0341107
0.0341111
0.0341115
0.0341119
0.0341123
0.0341129
0.0341079
0.0353453
0.0353363
0.0353347
0.0353346
0.0353349
0.0353352
0.0353356
0.035336
0.0353364
0.0353368
0.0353372
0.0353377
0.0353381
0.0353386
0.035339
0.0353396
0.0353401
0.0353407
0.0353412
0.0353418
0.0353424
0.035343
0.0353436
0.0353441
0.0353447
0.0353452
0.0353457
0.0353462
0.0353467
0.0353472
0.0353477
0.0353481
0.0353486
0.0353491
0.0353495
0.03535
0.0353505
0.035351
0.0353515
0.035352
0.0353525
0.035353
0.0353535
0.0353541
0.0353546
0.0353551
0.0353557
0.0353562
0.0353567
0.0353573
0.0353578
0.0353583
0.0353588
0.0353594
0.0353599
0.0353604
0.0353609
0.0353614
0.0353619
0.0353624
0.0353629
0.0353634
0.0353638
0.0353643
0.0353648
0.0353653
0.0353658
0.0353663
0.0353669
0.0353674
0.0353679
0.0353684
0.035369
0.0353695
0.03537
0.0353706
0.0353711
0.0353717
0.0353722
0.0353728
0.0353734
0.035374
0.0353745
0.0353751
0.0353757
0.0353763
0.0353769
0.0353775
0.0353781
0.0353787
0.0353793
0.0353799
0.0353805
0.0353811
0.0353817
0.0353823
0.035383
0.0353836
0.0353842
0.0353848
0.0353854
0.035386
0.0353866
0.0353872
0.0353878
0.0353884
0.035389
0.0353896
0.0353902
0.0353908
0.0353913
0.0353918
0.0353923
0.0353928
0.0353933
0.0353937
0.035394
0.0353944
0.0353949
0.0353901
0.0367421
0.0367325
0.0367306
0.0367303
0.0367304
0.0367307
0.0367309
0.0367312
0.0367315
0.0367318
0.0367321
0.0367324
0.0367328
0.0367331
0.0367335
0.036734
0.0367344
0.0367349
0.0367354
0.036736
0.0367365
0.036737
0.0367376
0.0367381
0.0367386
0.0367391
0.0367395
0.03674
0.0367405
0.0367409
0.0367414
0.0367418
0.0367423
0.0367428
0.0367433
0.0367438
0.0367443
0.0367448
0.0367454
0.036746
0.0367465
0.0367471
0.0367477
0.0367483
0.0367489
0.0367495
0.0367501
0.0367507
0.0367514
0.036752
0.0367526
0.0367532
0.0367538
0.0367545
0.0367551
0.0367557
0.0367563
0.0367569
0.0367574
0.036758
0.0367586
0.0367592
0.0367598
0.0367604
0.036761
0.0367615
0.0367621
0.0367627
0.0367633
0.0367639
0.0367645
0.0367651
0.0367657
0.0367664
0.036767
0.0367676
0.0367682
0.0367688
0.0367695
0.0367701
0.0367707
0.0367714
0.036772
0.0367727
0.0367733
0.036774
0.0367746
0.0367753
0.0367759
0.0367766
0.0367772
0.0367779
0.0367786
0.0367792
0.0367799
0.0367805
0.0367812
0.0367818
0.0367825
0.0367831
0.0367838
0.0367844
0.0367851
0.0367857
0.0367864
0.036787
0.0367876
0.0367882
0.0367888
0.0367894
0.03679
0.0367905
0.036791
0.0367915
0.0367919
0.0367923
0.0367926
0.0367929
0.0367934
0.0367887
0.0382609
0.0382507
0.0382485
0.038248
0.038248
0.038248
0.0382481
0.0382483
0.0382484
0.0382486
0.0382488
0.038249
0.0382492
0.0382495
0.0382498
0.0382502
0.0382506
0.038251
0.0382514
0.0382519
0.0382524
0.0382528
0.0382533
0.0382538
0.0382542
0.0382547
0.0382551
0.0382555
0.038256
0.0382564
0.0382569
0.0382574
0.0382579
0.0382584
0.0382589
0.0382595
0.0382601
0.0382607
0.0382613
0.038262
0.0382626
0.0382633
0.038264
0.0382647
0.0382654
0.0382661
0.0382668
0.0382676
0.0382683
0.038269
0.0382697
0.0382705
0.0382712
0.0382719
0.0382726
0.0382733
0.038274
0.0382747
0.0382754
0.0382761
0.0382768
0.0382775
0.0382782
0.0382788
0.0382795
0.0382802
0.0382809
0.0382816
0.0382823
0.038283
0.0382836
0.0382843
0.038285
0.0382857
0.0382864
0.0382871
0.0382878
0.0382885
0.0382892
0.0382899
0.0382906
0.0382913
0.0382921
0.0382928
0.0382935
0.0382942
0.0382949
0.0382956
0.0382963
0.0382971
0.0382978
0.0382985
0.0382992
0.0382999
0.0383006
0.0383013
0.038302
0.0383027
0.0383034
0.0383041
0.0383048
0.0383055
0.0383062
0.0383069
0.0383075
0.0383082
0.0383088
0.0383095
0.0383101
0.0383107
0.0383112
0.0383117
0.0383122
0.0383126
0.038313
0.0383133
0.0383136
0.0383138
0.0383142
0.0383095
0.0399083
0.0398974
0.0398949
0.0398942
0.0398939
0.0398938
0.0398937
0.0398937
0.0398937
0.0398937
0.0398938
0.0398939
0.039894
0.0398941
0.0398944
0.0398946
0.0398949
0.0398953
0.0398956
0.039896
0.0398964
0.0398969
0.0398973
0.0398977
0.0398981
0.0398985
0.0398989
0.0398993
0.0398998
0.0399002
0.0399007
0.0399012
0.0399018
0.0399024
0.039903
0.0399036
0.0399043
0.0399051
0.0399058
0.0399066
0.0399074
0.0399082
0.039909
0.0399099
0.0399107
0.0399115
0.0399124
0.0399132
0.0399141
0.0399149
0.0399158
0.0399166
0.0399174
0.0399183
0.0399191
0.0399199
0.0399208
0.0399216
0.0399224
0.0399232
0.039924
0.0399248
0.0399256
0.0399264
0.0399271
0.0399279
0.0399287
0.0399295
0.0399303
0.0399311
0.0399318
0.0399326
0.0399334
0.0399342
0.039935
0.0399357
0.0399365
0.0399373
0.0399381
0.0399389
0.0399397
0.0399404
0.0399412
0.039942
0.0399428
0.0399436
0.0399444
0.0399451
0.0399459
0.0399467
0.0399475
0.0399482
0.039949
0.0399497
0.0399505
0.0399513
0.039952
0.0399528
0.0399535
0.0399542
0.039955
0.0399557
0.0399564
0.0399571
0.0399578
0.0399585
0.0399592
0.0399599
0.0399605
0.039961
0.0399616
0.039962
0.0399624
0.0399627
0.039963
0.0399632
0.0399633
0.0399634
0.0399637
0.0399591
0.0416913
0.0416796
0.0416767
0.0416758
0.0416752
0.0416749
0.0416746
0.0416744
0.0416742
0.0416741
0.041674
0.041674
0.041674
0.041674
0.0416741
0.0416743
0.0416745
0.0416748
0.0416751
0.0416754
0.0416758
0.0416761
0.0416765
0.0416769
0.0416772
0.0416776
0.041678
0.0416784
0.0416789
0.0416794
0.0416799
0.0416805
0.0416812
0.0416819
0.0416826
0.0416834
0.0416843
0.0416852
0.0416861
0.041687
0.041688
0.041689
0.0416899
0.0416909
0.0416919
0.0416929
0.0416939
0.0416949
0.0416959
0.0416969
0.0416979
0.0416989
0.0416998
0.0417008
0.0417018
0.0417027
0.0417037
0.0417046
0.0417055
0.0417065
0.0417074
0.0417083
0.0417092
0.0417101
0.041711
0.0417119
0.0417128
0.0417137
0.0417145
0.0417154
0.0417163
0.0417172
0.041718
0.0417189
0.0417198
0.0417207
0.0417215
0.0417224
0.0417233
0.0417241
0.041725
0.0417258
0.0417267
0.0417275
0.0417284
0.0417292
0.0417301
0.0417309
0.0417318
0.0417326
0.0417334
0.0417343
0.0417351
0.0417359
0.0417367
0.0417375
0.0417383
0.0417391
0.0417399
0.0417407
0.0417414
0.0417422
0.041743
0.0417437
0.0417445
0.0417452
0.0417459
0.0417465
0.0417471
0.0417476
0.041748
0.0417484
0.0417486
0.0417488
0.0417489
0.0417489
0.0417489
0.0417488
0.0417489
0.0417444
0.0436173
0.0436048
0.0436015
0.0436002
0.0435995
0.0435989
0.0435984
0.043598
0.0435976
0.0435973
0.0435971
0.0435969
0.0435968
0.0435967
0.0435967
0.0435968
0.0435969
0.0435971
0.0435974
0.0435976
0.0435979
0.0435982
0.0435985
0.0435989
0.0435992
0.0435996
0.0436
0.0436004
0.0436009
0.0436015
0.0436022
0.0436029
0.0436037
0.0436046
0.0436056
0.0436066
0.0436076
0.0436087
0.0436099
0.043611
0.0436122
0.0436134
0.0436146
0.0436157
0.0436169
0.0436181
0.0436193
0.0436204
0.0436216
0.0436227
0.0436239
0.043625
0.0436261
0.0436273
0.0436284
0.0436294
0.0436305
0.0436316
0.0436326
0.0436337
0.0436347
0.0436358
0.0436368
0.0436378
0.0436388
0.0436398
0.0436408
0.0436418
0.0436428
0.0436438
0.0436447
0.0436457
0.0436467
0.0436476
0.0436486
0.0436496
0.0436505
0.0436515
0.0436524
0.0436534
0.0436543
0.0436552
0.0436562
0.0436571
0.043658
0.0436589
0.0436598
0.0436607
0.0436616
0.0436625
0.0436634
0.0436643
0.0436652
0.043666
0.0436669
0.0436678
0.0436686
0.0436694
0.0436703
0.0436711
0.0436719
0.0436727
0.0436735
0.0436743
0.0436751
0.0436758
0.0436765
0.0436771
0.0436776
0.043678
0.0436782
0.0436784
0.0436785
0.0436784
0.0436783
0.043678
0.0436778
0.0436774
0.0436773
0.0436729
0.0456944
0.0456811
0.0456773
0.0456757
0.0456747
0.0456738
0.0456731
0.0456725
0.0456719
0.0456715
0.0456711
0.0456708
0.0456705
0.0456703
0.0456702
0.0456702
0.0456703
0.0456704
0.0456706
0.0456708
0.045671
0.0456713
0.0456716
0.0456719
0.0456722
0.0456726
0.045673
0.0456735
0.0456742
0.0456749
0.0456758
0.0456767
0.0456778
0.045679
0.0456802
0.0456815
0.0456828
0.0456842
0.0456856
0.045687
0.0456884
0.0456898
0.0456912
0.0456926
0.045694
0.0456954
0.0456968
0.0456981
0.0456995
0.0457008
0.0457021
0.0457034
0.0457047
0.0457059
0.0457072
0.0457084
0.0457096
0.0457108
0.045712
0.0457132
0.0457144
0.0457155
0.0457167
0.0457178
0.0457189
0.04572
0.0457211
0.0457222
0.0457233
0.0457244
0.0457255
0.0457265
0.0457276
0.0457287
0.0457297
0.0457308
0.0457318
0.0457328
0.0457339
0.0457349
0.0457359
0.0457369
0.0457379
0.0457389
0.0457399
0.0457409
0.0457418
0.0457428
0.0457438
0.0457447
0.0457457
0.0457466
0.0457475
0.0457485
0.0457494
0.0457503
0.0457512
0.045752
0.0457529
0.0457538
0.0457546
0.0457555
0.0457563
0.0457571
0.0457579
0.0457586
0.0457592
0.0457597
0.04576
0.0457602
0.0457603
0.0457602
0.0457599
0.0457595
0.0457591
0.0457586
0.045758
0.0457573
0.0457569
0.0457526
0.0479311
0.0479169
0.0479127
0.0479107
0.0479094
0.0479083
0.0479073
0.0479065
0.0479058
0.0479052
0.0479046
0.0479041
0.0479038
0.0479035
0.0479033
0.0479032
0.0479032
0.0479033
0.0479034
0.0479035
0.0479038
0.047904
0.0479043
0.0479046
0.0479049
0.0479053
0.0479059
0.0479066
0.0479075
0.0479085
0.0479096
0.0479109
0.0479123
0.0479138
0.0479154
0.047917
0.0479187
0.0479204
0.0479221
0.0479238
0.0479255
0.0479272
0.0479289
0.0479305
0.0479322
0.0479338
0.0479353
0.0479369
0.0479384
0.04794
0.0479414
0.0479429
0.0479443
0.0479458
0.0479472
0.0479485
0.0479499
0.0479512
0.0479526
0.0479539
0.0479552
0.0479564
0.0479577
0.0479589
0.0479602
0.0479614
0.0479626
0.0479638
0.047965
0.0479662
0.0479674
0.0479685
0.0479697
0.0479708
0.047972
0.0479731
0.0479742
0.0479753
0.0479764
0.0479775
0.0479786
0.0479797
0.0479808
0.0479818
0.0479829
0.0479839
0.047985
0.047986
0.047987
0.047988
0.047989
0.04799
0.047991
0.047992
0.0479929
0.0479939
0.0479948
0.0479957
0.0479966
0.0479975
0.0479984
0.0479993
0.0480002
0.048001
0.0480017
0.0480023
0.0480028
0.0480031
0.0480032
0.0480031
0.0480027
0.0480022
0.0480015
0.0480007
0.0479999
0.047999
0.047998
0.047997
0.0479963
0.0479921
0.0503366
0.0503214
0.0503167
0.0503144
0.0503128
0.0503114
0.0503103
0.0503092
0.0503083
0.0503075
0.0503069
0.0503063
0.0503058
0.0503054
0.0503052
0.050305
0.050305
0.050305
0.0503051
0.0503052
0.0503054
0.0503056
0.0503059
0.0503062
0.0503066
0.0503072
0.050308
0.050309
0.0503102
0.0503116
0.0503132
0.0503149
0.0503168
0.0503187
0.0503208
0.0503228
0.0503249
0.050327
0.050329
0.0503311
0.0503331
0.0503351
0.0503371
0.050339
0.0503409
0.0503427
0.0503445
0.0503463
0.050348
0.0503497
0.0503514
0.050353
0.0503546
0.0503562
0.0503577
0.0503593
0.0503608
0.0503622
0.0503637
0.0503651
0.0503665
0.0503679
0.0503693
0.0503707
0.050372
0.0503733
0.0503746
0.0503759
0.0503772
0.0503785
0.0503798
0.050381
0.0503823
0.0503835
0.0503847
0.0503859
0.0503871
0.0503883
0.0503895
0.0503907
0.0503918
0.050393
0.0503941
0.0503952
0.0503964
0.0503975
0.0503986
0.0503996
0.0504007
0.0504018
0.0504028
0.0504039
0.0504049
0.0504059
0.0504069
0.0504079
0.0504089
0.0504098
0.0504108
0.0504117
0.0504126
0.0504135
0.0504144
0.0504152
0.0504158
0.0504163
0.0504165
0.0504165
0.0504161
0.0504155
0.0504146
0.0504135
0.0504123
0.050411
0.0504096
0.0504082
0.0504069
0.0504055
0.0504045
0.0504003
0.0529203
0.0529042
0.052899
0.0528964
0.0528945
0.0528929
0.0528915
0.0528903
0.0528892
0.0528883
0.0528875
0.0528869
0.0528863
0.0528859
0.0528856
0.0528854
0.0528853
0.0528853
0.0528854
0.0528855
0.0528857
0.052886
0.0528863
0.0528867
0.0528873
0.0528881
0.0528893
0.0528908
0.0528925
0.0528945
0.0528967
0.052899
0.0529014
0.0529039
0.0529065
0.052909
0.0529115
0.052914
0.0529165
0.0529189
0.0529213
0.0529236
0.0529258
0.052928
0.0529301
0.0529322
0.0529343
0.0529362
0.0529382
0.05294
0.0529419
0.0529437
0.0529455
0.0529472
0.0529489
0.0529505
0.0529522
0.0529538
0.0529553
0.0529569
0.0529584
0.0529599
0.0529614
0.0529629
0.0529643
0.0529657
0.0529672
0.0529685
0.0529699
0.0529713
0.0529726
0.052974
0.0529753
0.0529766
0.0529779
0.0529792
0.0529805
0.0529817
0.052983
0.0529842
0.0529854
0.0529866
0.0529878
0.052989
0.0529902
0.0529914
0.0529925
0.0529936
0.0529948
0.0529959
0.0529969
0.052998
0.0529991
0.0530001
0.0530012
0.0530022
0.0530032
0.0530042
0.0530052
0.0530062
0.0530071
0.0530081
0.0530089
0.0530095
0.05301
0.0530102
0.05301
0.0530093
0.0530083
0.0530069
0.0530053
0.0530035
0.0530016
0.0529996
0.0529977
0.0529959
0.0529941
0.0529924
0.0529909
0.0529869
0.0556925
0.0556754
0.0556698
0.0556669
0.0556647
0.0556629
0.0556613
0.05566
0.0556588
0.0556578
0.0556569
0.0556562
0.0556556
0.0556552
0.0556549
0.0556547
0.0556546
0.0556546
0.0556547
0.0556549
0.0556551
0.0556553
0.0556557
0.0556563
0.0556573
0.0556586
0.0556604
0.0556626
0.0556651
0.0556678
0.0556708
0.0556739
0.055677
0.0556801
0.0556832
0.0556863
0.0556893
0.0556923
0.0556952
0.055698
0.0557007
0.0557033
0.0557058
0.0557082
0.0557106
0.0557129
0.0557152
0.0557173
0.0557194
0.0557215
0.0557235
0.0557255
0.0557274
0.0557292
0.0557311
0.0557328
0.0557346
0.0557363
0.055738
0.0557397
0.0557413
0.0557429
0.0557445
0.055746
0.0557476
0.0557491
0.0557506
0.055752
0.0557535
0.0557549
0.0557564
0.0557578
0.0557592
0.0557606
0.0557619
0.0557633
0.0557646
0.0557659
0.0557672
0.0557685
0.0557698
0.0557711
0.0557723
0.0557736
0.0557748
0.055776
0.0557772
0.0557784
0.0557795
0.0557807
0.0557818
0.0557829
0.055784
0.0557851
0.0557862
0.0557872
0.0557883
0.0557893
0.0557903
0.0557913
0.0557923
0.0557932
0.0557939
0.0557943
0.0557944
0.055794
0.0557931
0.0557916
0.0557895
0.0557871
0.0557845
0.0557819
0.0557792
0.0557767
0.0557742
0.0557718
0.0557696
0.0557675
0.0557657
0.055762
0.0586637
0.0586457
0.0586397
0.0586364
0.058634
0.0586321
0.0586304
0.0586289
0.0586277
0.0586267
0.0586258
0.0586251
0.0586245
0.0586241
0.0586238
0.0586236
0.0586236
0.0586237
0.0586238
0.058624
0.0586243
0.0586246
0.0586252
0.0586262
0.0586278
0.0586299
0.0586326
0.0586358
0.0586394
0.0586431
0.058647
0.0586509
0.0586548
0.0586586
0.0586624
0.058666
0.0586695
0.0586729
0.0586762
0.0586793
0.0586824
0.0586853
0.0586881
0.0586907
0.0586933
0.0586958
0.0586983
0.0587006
0.0587029
0.0587051
0.0587072
0.0587093
0.0587113
0.0587133
0.0587153
0.0587172
0.058719
0.0587208
0.0587226
0.0587243
0.0587261
0.0587278
0.0587294
0.058731
0.0587327
0.0587343
0.0587358
0.0587374
0.0587389
0.0587404
0.0587419
0.0587434
0.0587448
0.0587463
0.0587477
0.0587491
0.0587505
0.0587519
0.0587532
0.0587546
0.0587559
0.0587572
0.0587585
0.0587598
0.058761