/*--------------------------------*- C++ -*----------------------------------*\
  =========                 |
  \\      /  F ield         | OpenFOAM: The Open Source CFD Toolbox
   \\    /   O peration     | Website:  https://openfoam.org
    \\  /    A nd           | Version:  7
     \\/     M anipulation  |
\*---------------------------------------------------------------------------*/
FoamFile
{
    version     2.0;
    format      ascii;
    class       surfaceScalarField;
    location    "4500";
    object      phi;
}
// * * * * * * * * * * * * * * * * * * * * * * * * * * * * * * * * * * * * * //

dimensions      [0 3 -1 0 0 0 0];

internalField   nonuniform List<scalar> 
7846
(
0.000740378
-2.36272e-10
0.000740378
-2.8256e-10
0.000740378
-3.01537e-10
0.000740378
-3.1391e-10
0.000740378
-3.25852e-10
0.000740378
-3.37463e-10
0.000740378
-3.48801e-10
0.000740378
-3.59588e-10
0.000740378
-3.69642e-10
0.000740378
-3.78892e-10
0.000740378
-3.87305e-10
0.000740378
-3.9489e-10
0.000740378
-4.01681e-10
0.000740378
-4.07732e-10
0.000740378
-4.13106e-10
0.000740378
-4.17873e-10
0.000740378
-4.22092e-10
0.000740378
-4.25804e-10
0.000740378
-4.29018e-10
0.000740378
-4.31697e-10
0.000740378
-4.33763e-10
0.000740378
-4.35107e-10
0.000740377
-4.35628e-10
0.000740377
-4.35266e-10
0.000740377
-4.34026e-10
0.000740377
-4.31994e-10
0.000740377
-4.29322e-10
0.000740377
-4.26209e-10
0.000740377
-4.22875e-10
0.000740377
-4.19536e-10
0.000740377
-4.16377e-10
0.000740377
-4.13537e-10
0.000740377
-4.11083e-10
0.000740377
-4.08993e-10
0.000740377
-4.07124e-10
0.000740377
-4.05185e-10
0.000740376
-4.02687e-10
0.000740376
-3.98905e-10
0.000740376
-3.92787e-10
0.000740376
-3.82927e-10
0.000740376
-3.67307e-10
0.000740376
-3.43393e-10
0.000740376
-3.06093e-10
0.000740376
-2.4736e-10
0.000740376
-1.25362e-10
0.000740376
1.26712e-10
0.000740376
4.17494e-10
0.000740376
6.11799e-10
0.000740376
7.23003e-10
0.000740376
7.89319e-10
0.000740376
8.26268e-10
0.000740376
8.43188e-10
0.000740376
8.46577e-10
0.000740376
8.40467e-10
0.000740376
8.27623e-10
0.000740376
8.10016e-10
0.000740376
7.89041e-10
0.000740375
7.65698e-10
0.000740375
7.40705e-10
0.000740375
7.14585e-10
0.000740375
6.87724e-10
0.000740375
6.60416e-10
0.000740375
6.32893e-10
0.000740375
6.05346e-10
0.000740375
5.77927e-10
0.000740375
5.50755e-10
0.000740375
5.23915e-10
0.000740375
4.97458e-10
0.000740375
4.71397e-10
0.000740375
4.45717e-10
0.000740375
4.20375e-10
0.000740375
3.95308e-10
0.000740375
3.70439e-10
0.000740375
3.45683e-10
0.000740375
3.20946e-10
0.000740375
2.96138e-10
0.000740375
2.71164e-10
0.000740375
2.45932e-10
0.000740375
2.20352e-10
0.000740375
1.94335e-10
0.000740375
1.67794e-10
0.000740375
1.40644e-10
0.000740376
1.12804e-10
0.000740376
8.41966e-11
0.000740376
5.47478e-11
0.000740376
2.43911e-11
0.000740376
-6.93114e-12
0.000740376
-3.92647e-11
0.000740376
-7.26391e-11
0.000740376
-1.07062e-10
0.000740376
-1.42509e-10
0.000740376
-1.78919e-10
0.000740376
-2.16168e-10
0.000740376
-2.54057e-10
0.000740376
-2.92273e-10
0.000740376
-3.3035e-10
0.000740376
-3.67608e-10
0.000740376
-4.03063e-10
0.000740376
-4.3536e-10
0.000740376
-4.62508e-10
0.000740377
-4.81938e-10
0.000740377
-4.88443e-10
0.000740377
-4.73778e-10
0.000740377
-3.95805e-10
0.000740377
-1.87372e-10
0.000740377
6.05458e-11
0.000740377
2.13256e-10
0.000740377
2.84513e-10
0.000740377
3.12861e-10
0.000740377
3.14096e-10
0.000740377
2.97794e-10
0.000740377
2.70656e-10
0.000740377
2.36897e-10
0.000740377
1.99446e-10
0.000740378
1.60429e-10
0.000740378
1.21315e-10
0.000740378
8.29795e-11
0.000740378
4.38947e-11
0.000740377
-1.10796e-11
-1.24286e-10
0.000723284
-3.37504e-10
0.000723284
-3.90339e-10
0.000723284
-3.91085e-10
0.000723284
-3.83741e-10
0.000723284
-3.76699e-10
0.000723284
-3.71076e-10
0.000723284
-3.67282e-10
0.000723284
-3.64858e-10
0.000723284
-3.63409e-10
0.000723284
-3.62674e-10
0.000723284
-3.62437e-10
0.000723284
-3.62539e-10
0.000723284
-3.62867e-10
0.000723284
-3.63342e-10
0.000723284
-3.63912e-10
0.000723284
-3.64549e-10
0.000723284
-3.65236e-10
0.000723284
-3.65947e-10
0.000723284
-3.6663e-10
0.000723283
-3.6719e-10
0.000723283
-3.67483e-10
0.000723283
-3.6733e-10
0.000723283
-3.66558e-10
0.000723283
-3.65047e-10
0.000723283
-3.62756e-10
0.000723283
-3.59745e-10
0.000723283
-3.56152e-10
0.000723283
-3.52172e-10
0.000723283
-3.48022e-10
0.000723283
-3.43912e-10
0.000723283
-3.40023e-10
0.000723283
-3.36477e-10
0.000723283
-3.33324e-10
0.000723282
-3.30516e-10
0.000723282
-3.27879e-10
0.000723282
-3.25086e-10
0.000723282
-3.21615e-10
0.000723282
-3.16701e-10
0.000723282
-3.09266e-10
0.000723282
-2.97871e-10
0.000723282
-2.80499e-10
0.000723282
-2.5459e-10
0.000723282
-2.15368e-10
0.000723282
-1.55829e-10
0.000723282
-4.86186e-11
0.000723282
1.59714e-10
0.000723282
4.12678e-10
0.000723282
6.01959e-10
0.000723282
7.21885e-10
0.000723282
7.97113e-10
0.000723282
8.41091e-10
0.000723281
8.63252e-10
0.000723281
8.70359e-10
0.000723281
8.66746e-10
0.000723281
8.55407e-10
0.000723281
8.38478e-10
0.000723281
8.17494e-10
0.000723281
7.93565e-10
0.000723281
7.67509e-10
0.000723281
7.3993e-10
0.000723281
7.11285e-10
0.000723281
6.81927e-10
0.000723281
6.52135e-10
0.000723281
6.22135e-10
0.000723281
5.92108e-10
0.000723281
5.62194e-10
0.000723281
5.32497e-10
0.000723281
5.03081e-10
0.000723281
4.73977e-10
0.000723281
4.45182e-10
0.000723281
4.1667e-10
0.000723281
3.88393e-10
0.000723281
3.60288e-10
0.000723281
3.32284e-10
0.000723281
3.04302e-10
0.000723281
2.76262e-10
0.000723281
2.48083e-10
0.000723281
2.19685e-10
0.000723281
1.90988e-10
0.000723281
1.61917e-10
0.000723281
1.32396e-10
0.000723281
1.02355e-10
0.000723281
7.17283e-11
0.000723281
4.04536e-11
0.000723282
8.47675e-12
0.000723282
-2.42483e-11
0.000723282
-5.77561e-11
0.000723282
-9.20668e-11
0.000723282
-1.27182e-10
0.000723282
-1.63077e-10
0.000723282
-1.99697e-10
0.000723282
-2.36943e-10
0.000723282
-2.74657e-10
0.000723282
-3.12607e-10
0.000723282
-3.50448e-10
0.000723282
-3.87692e-10
0.000723282
-4.23639e-10
0.000723282
-4.57307e-10
0.000723282
-4.87335e-10
0.000723282
-5.11754e-10
0.000723282
-5.27973e-10
0.000723282
-5.31079e-10
0.000723282
-5.13836e-10
0.000723283
-4.48546e-10
0.000723283
-2.81359e-10
0.000723283
-6.82845e-11
0.000723283
8.29302e-11
0.000723283
1.67101e-10
0.000723283
2.0932e-10
0.000723283
2.23425e-10
0.000723283
2.19192e-10
0.000723283
2.03701e-10
0.000723283
1.81584e-10
0.000723283
1.56094e-10
0.000723283
1.29626e-10
0.000723283
1.03776e-10
0.000723283
7.93328e-11
0.000723283
5.2651e-11
0.000723283
-4.82407e-12
-1.68246e-10
0.000706528
-4.38568e-10
0.000706528
-4.90715e-10
0.000706528
-4.74009e-10
0.000706528
-4.47284e-10
0.000706528
-4.21351e-10
0.000706528
-3.98431e-10
0.000706528
-3.79315e-10
0.000706528
-3.63441e-10
0.000706528
-3.50247e-10
0.000706528
-3.39293e-10
0.000706528
-3.30187e-10
0.000706528
-3.22607e-10
0.000706528
-3.16293e-10
0.000706528
-3.11035e-10
0.000706528
-3.06671e-10
0.000706528
-3.0308e-10
0.000706528
-3.00168e-10
0.000706528
-2.97844e-10
0.000706528
-2.95999e-10
0.000706528
-2.94473e-10
0.000706528
-2.93051e-10
0.000706528
-2.91472e-10
0.000706528
-2.89481e-10
0.000706527
-2.8689e-10
0.000706527
-2.83611e-10
0.000706527
-2.7968e-10
0.000706527
-2.75231e-10
0.000706527
-2.70462e-10
0.000706527
-2.65596e-10
0.000706527
-2.6085e-10
0.000706527
-2.56402e-10
0.000706527
-2.52372e-10
0.000706527
-2.48795e-10
0.000706527
-2.45604e-10
0.000706527
-2.42603e-10
0.000706526
-2.39437e-10
0.000706526
-2.35557e-10
0.000706526
-2.30171e-10
0.000706526
-2.22185e-10
0.000706526
-2.10151e-10
0.000706526
-1.92072e-10
0.000706526
-1.65403e-10
0.000706526
-1.2578e-10
0.000706526
-6.6996e-11
0.000706526
2.85256e-11
0.000706526
1.99318e-10
0.000706526
4.12288e-10
0.000706526
5.87829e-10
0.000706526
7.1053e-10
0.000706526
7.92443e-10
0.000706526
8.43097e-10
0.000706526
8.70807e-10
0.000706526
8.82115e-10
0.000706526
8.81506e-10
0.000706526
8.72161e-10
0.000706526
8.56381e-10
0.000706526
8.3584e-10
0.000706526
8.1177e-10
0.000706526
7.85086e-10
0.000706526
7.56478e-10
0.000706525
7.26475e-10
0.000706525
6.95488e-10
0.000706525
6.63844e-10
0.000706525
6.31804e-10
0.000706525
5.99578e-10
0.000706525
5.67328e-10
0.000706525
5.35175e-10
0.000706525
5.03199e-10
0.000706525
4.71445e-10
0.000706525
4.39925e-10
0.000706525
4.08627e-10
0.000706525
3.77517e-10
0.000706525
3.46548e-10
0.000706526
3.1566e-10
0.000706526
2.8479e-10
0.000706526
2.5387e-10
0.000706526
2.2283e-10
0.000706526
1.91602e-10
0.000706526
1.60119e-10
0.000706526
1.28315e-10
0.000706526
9.61296e-11
0.000706526
6.35047e-11
0.000706526
3.03886e-11
0.000706526
-3.26377e-12
0.000706526
-3.74893e-11
0.000706526
-7.23139e-11
0.000706526
-1.0775e-10
0.000706526
-1.43794e-10
0.000706526
-1.80421e-10
0.000706526
-2.17578e-10
0.000706526
-2.55178e-10
0.000706526
-2.93093e-10
0.000706526
-3.31136e-10
0.000706526
-3.69046e-10
0.000706526
-4.0646e-10
0.000706526
-4.42878e-10
0.000706527
-4.77604e-10
0.000706527
-5.09676e-10
0.000706527
-5.37761e-10
0.000706527
-5.59947e-10
0.000706527
-5.7367e-10
0.000706527
-5.74414e-10
0.000706527
-5.55707e-10
0.000706527
-4.996e-10
0.000706527
-3.67096e-10
0.000706527
-1.90705e-10
0.000706527
-4.93811e-11
0.000706527
4.20599e-11
0.000706527
9.62187e-11
0.000706528
1.23118e-10
0.000706528
1.3153e-10
0.000706528
1.28425e-10
0.000706528
1.18702e-10
0.000706528
1.05902e-10
0.000706528
9.26775e-11
0.000706528
8.07417e-11
0.000706528
7.07684e-11
0.000706528
5.70588e-11
0.000706528
-2.64883e-12
-2.18063e-10
0.000690108
-5.37541e-10
0.000690109
-5.8611e-10
0.000690109
-5.50899e-10
0.000690109
-5.04192e-10
0.000690109
-4.59012e-10
0.000690109
-4.18554e-10
0.000690109
-3.8387e-10
0.000690109
-3.54309e-10
0.000690109
-3.29157e-10
0.000690109
-3.07799e-10
0.000690109
-2.89667e-10
0.000690109
-2.74276e-10
0.000690109
-2.61217e-10
0.000690109
-2.50151e-10
0.000690108
-2.40807e-10
0.000690108
-2.3297e-10
0.000690108
-2.26474e-10
0.000690108
-2.21166e-10
0.000690108
-2.16877e-10
0.000690108
-2.1338e-10
0.000690108
-2.10382e-10
0.000690108
-2.07527e-10
0.000690108
-2.04464e-10
0.000690108
-2.00931e-10
0.000690108
-1.9679e-10
0.000690108
-1.9206e-10
0.000690107
-1.86878e-10
0.000690107
-1.81458e-10
0.000690107
-1.7604e-10
0.000690107
-1.70857e-10
0.000690107
-1.66095e-10
0.000690107
-1.61875e-10
0.000690107
-1.58226e-10
0.000690107
-1.55069e-10
0.000690107
-1.52187e-10
0.000690107
-1.49205e-10
0.000690107
-1.45548e-10
0.000690106
-1.4041e-10
0.000690106
-1.32687e-10
0.000690106
-1.20939e-10
0.000690106
-1.0322e-10
0.000690106
-7.70598e-11
0.000690106
-3.85743e-11
0.000690106
1.76273e-11
0.000690106
1.02815e-10
0.000690106
2.43039e-10
0.000690106
4.1923e-10
0.000690106
5.75642e-10
0.000690106
6.94367e-10
0.000690106
7.78758e-10
0.000690106
8.34057e-10
0.000690106
8.66535e-10
0.000690106
8.81896e-10
0.000690106
8.84433e-10
0.000690106
8.77359e-10
0.000690106
8.63072e-10
0.000690106
8.43352e-10
0.000690106
8.19533e-10
0.000690106
7.92625e-10
0.000690106
7.63398e-10
0.000690106
7.32447e-10
0.000690106
7.00241e-10
0.000690106
6.67153e-10
0.000690106
6.3348e-10
0.000690106
5.99459e-10
0.000690106
5.65274e-10
0.000690106
5.31063e-10
0.000690106
4.96921e-10
0.000690106
4.62907e-10
0.000690106
4.29048e-10
0.000690106
3.95344e-10
0.000690106
3.61777e-10
0.000690106
3.28312e-10
0.000690106
2.94905e-10
0.000690106
2.61503e-10
0.000690106
2.28052e-10
0.000690106
1.94495e-10
0.000690106
1.60774e-10
0.000690106
1.26833e-10
0.000690106
9.26194e-11
0.000690106
5.80837e-11
0.000690106
2.31814e-11
0.000690106
-1.2125e-11
0.000690106
-4.78652e-11
0.000690106
-8.40588e-11
0.000690106
-1.20713e-10
0.000690106
-1.57819e-10
0.000690106
-1.95351e-10
0.000690107
-2.33257e-10
0.000690107
-2.7146e-10
0.000690107
-3.09845e-10
0.000690107
-3.48256e-10
0.000690107
-3.8648e-10
0.000690107
-4.24237e-10
0.000690107
-4.61151e-10
0.000690107
-4.96728e-10
0.000690107
-5.30287e-10
0.000690107
-5.60914e-10
0.000690107
-5.87333e-10
0.000690107
-6.07733e-10
0.000690107
-6.19652e-10
0.000690107
-6.19038e-10
0.000690107
-6.00209e-10
0.000690107
-5.51495e-10
0.000690107
-4.4632e-10
0.000690107
-3.0305e-10
0.000690108
-1.76677e-10
0.000690108
-8.44004e-11
0.000690108
-2.22053e-11
0.000690108
1.5755e-11
0.000690108
3.63231e-11
0.000690108
4.57419e-11
0.000690108
4.88431e-11
0.000690108
4.92977e-11
0.000690108
4.99508e-11
0.000690108
5.25957e-11
0.000690108
5.77894e-11
0.000690108
5.79369e-11
0.000690108
-2.15938e-12
-2.68116e-10
0.000674022
-6.31944e-10
0.000674022
-6.75816e-10
0.000674022
-6.21304e-10
0.000674022
-5.53842e-10
0.000674022
-4.8891e-10
0.000674022
-4.30604e-10
0.000674022
-3.8011e-10
0.000674022
-3.36661e-10
0.000674022
-2.99393e-10
0.000674022
-2.67512e-10
0.000674022
-2.4027e-10
0.000674022
-2.17016e-10
0.000674022
-1.97192e-10
0.000674022
-1.80326e-10
0.000674022
-1.66037e-10
0.000674022
-1.54019e-10
0.000674022
-1.44036e-10
0.000674022
-1.35873e-10
0.000674021
-1.29304e-10
0.000674021
-1.24031e-10
0.000674021
-1.19673e-10
0.000674021
-1.15766e-10
0.000674021
-1.11848e-10
0.000674021
-1.07574e-10
0.000674021
-1.02755e-10
0.000674021
-9.73988e-11
0.000674021
-9.16606e-11
0.000674021
-8.57816e-11
0.00067402
-8.0035e-11
0.00067402
-7.46777e-11
0.00067402
-6.99151e-11
0.00067402
-6.58752e-11
0.00067402
-6.25866e-11
0.00067402
-5.99581e-11
0.00067402
-5.77575e-11
0.00067402
-5.55868e-11
0.00067402
-5.28519e-11
0.00067402
-4.87299e-11
0.00067402
-4.21174e-11
0.000674019
-3.15926e-11
0.000674019
-1.52845e-11
0.000674019
9.15379e-12
0.000674019
4.51153e-11
0.000674019
9.71638e-11
0.000674019
1.7257e-10
0.000674019
2.88196e-10
0.000674019
4.3273e-10
0.000674019
5.67988e-10
0.000674019
6.77486e-10
0.000674019
7.59756e-10
0.000674019
8.16609e-10
0.000674019
8.52064e-10
0.000674019
8.70561e-10
0.000674019
8.75862e-10
0.000674019
8.70987e-10
0.000674019
8.583e-10
0.000674019
8.3962e-10
0.000674019
8.16341e-10
0.000674019
7.89538e-10
0.000674019
7.60048e-10
0.000674019
7.28524e-10
0.000674019
6.95484e-10
0.000674019
6.61342e-10
0.000674019
6.26429e-10
0.000674019
5.91006e-10
0.000674019
5.55279e-10
0.000674019
5.19402e-10
0.000674019
4.83485e-10
0.000674019
4.47599e-10
0.000674019
4.11784e-10
0.000674019
3.76054e-10
0.000674019
3.40405e-10
0.000674019
3.04814e-10
0.000674019
2.6925e-10
0.000674019
2.33674e-10
0.000674019
1.98043e-10
0.000674019
1.62312e-10
0.000674019
1.26435e-10
0.000674019
9.03671e-11
0.00067402
5.40668e-11
0.00067402
1.74967e-11
0.00067402
-1.93746e-11
0.00067402
-5.65711e-11
0.00067402
-9.41076e-11
0.00067402
-1.31987e-10
0.00067402
-1.70198e-10
0.00067402
-2.08714e-10
0.00067402
-2.47484e-10
0.00067402
-2.86435e-10
0.00067402
-3.25465e-10
0.00067402
-3.64433e-10
0.00067402
-4.03158e-10
0.00067402
-4.41407e-10
0.00067402
-4.78884e-10
0.00067402
-5.15208e-10
0.00067402
-5.49901e-10
0.00067402
-5.82312e-10
0.00067402
-6.116e-10
0.00067402
-6.3657e-10
0.000674021
-6.55559e-10
0.000674021
-6.66266e-10
0.000674021
-6.65117e-10
0.000674021
-6.4723e-10
0.000674021
-6.04912e-10
0.000674021
-5.20714e-10
0.000674021
-4.051e-10
0.000674021
-2.95383e-10
0.000674021
-2.07209e-10
0.000674021
-1.41269e-10
0.000674021
-9.50295e-11
0.000674021
-6.37872e-11
0.000674022
-4.24398e-11
0.000674022
-2.65712e-11
0.000674022
-1.2597e-11
0.000674022
2.39555e-12
0.000674022
2.02147e-11
0.000674022
4.13163e-11
0.000674022
5.64146e-11
0.000674022
-1.66227e-12
-3.15401e-10
0.000658265
-7.19545e-10
0.000658265
-7.58203e-10
0.000658265
-6.83963e-10
0.000658265
-5.95147e-10
0.000658265
-5.10043e-10
0.000658265
-4.33653e-10
0.000658265
-3.672e-10
0.000658265
-3.09771e-10
0.000658265
-2.60337e-10
0.000658265
-2.1792e-10
0.000658265
-1.81588e-10
0.000658265
-1.50519e-10
0.000658265
-1.24005e-10
0.000658265
-1.01441e-10
0.000658264
-8.23324e-11
0.000658264
-6.6287e-11
0.000658264
-5.29977e-11
0.000658264
-4.21902e-11
0.000658264
-3.35841e-11
0.000658264
-2.68062e-11
0.000658264
-2.13816e-11
0.000658264
-1.67199e-11
0.000658264
-1.22294e-11
0.000658264
-7.47522e-12
0.000658263
-2.21176e-12
0.000658263
3.54914e-12
0.000658263
9.61997e-12
0.000658263
1.5714e-11
0.000658263
2.15108e-11
0.000658263
2.67147e-11
0.000658263
3.10935e-11
0.000658263
3.45055e-11
0.000658263
3.69219e-11
0.000658263
3.84447e-11
0.000658262
3.93257e-11
0.000658262
3.9987e-11
0.000658262
4.1046e-11
0.000658262
4.33419e-11
0.000658262
4.79771e-11
0.000658262
5.63473e-11
0.000658262
7.02375e-11
0.000658262
9.18413e-11
0.000658262
1.24091e-10
0.000658262
1.70768e-10
0.000658262
2.36611e-10
0.000658262
3.32161e-10
0.000658262
4.50215e-10
0.000658262
5.64664e-10
0.000658262
6.61845e-10
0.000658262
7.38205e-10
0.000658262
7.93377e-10
0.000658262
8.29473e-10
0.000658262
8.49601e-10
0.000658262
8.56773e-10
0.000658262
8.53627e-10
0.000658262
8.42355e-10
0.000658262
8.24715e-10
0.000658262
8.02101e-10
0.000658262
7.75616e-10
0.000658262
7.46132e-10
0.000658262
7.14342e-10
0.000658262
6.80803e-10
0.000658262
6.4596e-10
0.000658262
6.10171e-10
0.000658262
5.73719e-10
0.000658262
5.36827e-10
0.000658262
4.99662e-10
0.000658262
4.62349e-10
0.000658262
4.24969e-10
0.000658262
3.87576e-10
0.000658262
3.50196e-10
0.000658262
3.12835e-10
0.000658262
2.75485e-10
0.000658262
2.38127e-10
0.000658262
2.00733e-10
0.000658262
1.63273e-10
0.000658262
1.25713e-10
0.000658262
8.80166e-11
0.000658262
5.01521e-11
0.000658262
1.20887e-11
0.000658262
-2.61992e-11
0.000658262
-6.47307e-11
0.000658262
-1.03517e-10
0.000658262
-1.42557e-10
0.000658263
-1.81839e-10
0.000658263
-2.21334e-10
0.000658263
-2.60996e-10
0.000658263
-3.00754e-10
0.000658263
-3.40514e-10
0.000658263
-3.80147e-10
0.000658263
-4.19492e-10
0.000658263
-4.58344e-10
0.000658263
-4.96451e-10
0.000658263
-5.33508e-10
0.000658263
-5.69133e-10
0.000658263
-6.02873e-10
0.000658263
-6.34121e-10
0.000658263
-6.62128e-10
0.000658263
-6.85807e-10
0.000658263
-7.03677e-10
0.000658263
-7.13643e-10
0.000658263
-7.12575e-10
0.000658263
-6.96342e-10
0.000658264
-6.5977e-10
0.000658264
-5.91667e-10
0.000658264
-4.98217e-10
0.000658264
-4.0451e-10
0.000658264
-3.23235e-10
0.000658264
-2.57035e-10
0.000658264
-2.05437e-10
0.000658264
-1.65523e-10
0.000658264
-1.33406e-10
0.000658264
-1.05296e-10
0.000658264
-7.78864e-11
0.000658265
-4.83317e-11
0.000658265
-1.48923e-11
0.000658265
2.2808e-11
0.000658265
5.40332e-11
0.000658265
6.79497e-13
-3.57593e-10
0.000642833
-7.98169e-10
0.000642833
-8.31315e-10
0.000642833
-7.37196e-10
0.000642833
-6.26693e-10
0.000642833
-5.21198e-10
0.000642833
-4.26658e-10
0.000642833
-3.44267e-10
0.000642833
-2.72934e-10
0.000642833
-2.11446e-10
0.000642833
-1.58629e-10
0.000642833
-1.13363e-10
0.000642832
-7.46571e-11
0.000642832
-4.16466e-11
0.000642832
-1.35935e-11
0.000642832
1.01055e-11
0.000642832
2.99326e-11
0.000642832
4.62595e-11
0.000642832
5.94173e-11
0.000642832
6.97374e-11
0.000642832
7.76696e-11
0.000642832
8.37906e-11
0.000642832
8.88379e-11
0.000642831
9.35541e-11
0.000642831
9.84748e-11
0.000642831
1.03902e-10
0.000642831
1.09804e-10
0.000642831
1.1594e-10
0.000642831
1.21956e-10
0.000642831
1.27467e-10
0.000642831
1.32123e-10
0.000642831
1.35657e-10
0.00064283
1.37912e-10
0.00064283
1.3886e-10
0.00064283
1.38618e-10
0.00064283
1.37465e-10
0.00064283
1.35856e-10
0.00064283
1.34437e-10
0.00064283
1.34069e-10
0.00064283
1.35858e-10
0.00064283
1.4117e-10
0.00064283
1.51701e-10
0.00064283
1.69481e-10
0.000642829
1.97033e-10
0.000642829
2.37444e-10
0.000642829
2.9383e-10
0.000642829
3.72561e-10
0.000642829
4.68588e-10
0.000642829
5.63824e-10
0.000642829
6.47458e-10
0.000642829
7.15414e-10
0.000642829
7.66218e-10
0.000642829
8.00647e-10
0.000642829
8.20664e-10
0.000642829
8.28497e-10
0.000642829
8.26302e-10
0.00064283
8.15988e-10
0.00064283
7.99169e-10
0.00064283
7.77171e-10
0.00064283
7.51074e-10
0.00064283
7.21755e-10
0.00064283
6.89922e-10
0.00064283
6.5615e-10
0.00064283
6.20903e-10
0.00064283
5.84557e-10
0.00064283
5.47412e-10
0.00064283
5.09701e-10
0.00064283
4.71605e-10
0.00064283
4.33255e-10
0.00064283
3.94746e-10
0.00064283
3.56139e-10
0.00064283
3.17473e-10
0.00064283
2.78763e-10
0.00064283
2.40014e-10
0.00064283
2.01216e-10
0.00064283
1.62356e-10
0.00064283
1.23413e-10
0.00064283
8.43628e-11
0.00064283
4.51825e-11
0.00064283
5.84946e-12
0.00064283
-3.36557e-11
0.00064283
-7.3347e-11
0.00064283
-1.13232e-10
0.00064283
-1.53307e-10
0.00064283
-1.9356e-10
0.000642831
-2.33963e-10
0.000642831
-2.74469e-10
0.000642831
-3.15016e-10
0.000642831
-3.55512e-10
0.000642831
-3.95842e-10
0.000642831
-4.35856e-10
0.000642831
-4.75369e-10
0.000642831
-5.14157e-10
0.000642831
-5.51949e-10
0.000642831
-5.88435e-10
0.000642831
-6.23234e-10
0.000642831
-6.55929e-10
0.000642831
-6.85962e-10
0.000642831
-7.12701e-10
0.000642831
-7.35185e-10
0.000642831
-7.52149e-10
0.000642831
-7.61728e-10
0.000642831
-7.61172e-10
0.000642831
-7.47007e-10
0.000642832
-7.15682e-10
0.000642832
-6.60112e-10
0.000642832
-5.84102e-10
0.000642832
-5.04549e-10
0.000642832
-4.3113e-10
0.000642832
-3.66868e-10
0.000642832
-3.12275e-10
0.000642832
-2.65643e-10
0.000642832
-2.24117e-10
0.000642832
-1.84566e-10
0.000642832
-1.44073e-10
0.000642832
-9.99566e-11
0.000642833
-5.06232e-11
0.000642833
4.25335e-12
0.000642833
5.27532e-11
0.000642833
6.94781e-12
-3.92467e-10
0.000627721
-8.65614e-10
0.000627721
-8.93085e-10
0.000627721
-7.79165e-10
0.000627721
-6.46925e-10
0.000627721
-5.21076e-10
0.000627721
-4.08545e-10
0.000627721
-3.10453e-10
0.000627721
-2.25501e-10
0.000627721
-1.52268e-10
0.000627721
-8.93689e-11
0.000627721
-3.54936e-11
0.000627721
1.05232e-11
0.000627721
4.96996e-11
0.000627721
8.29068e-11
0.000627721
1.10857e-10
0.000627721
1.34118e-10
0.00062772
1.53122e-10
0.00062772
1.68251e-10
0.00062772
1.79881e-10
0.00062772
1.88539e-10
0.00062772
1.9491e-10
0.00062772
1.99903e-10
0.00062772
2.04438e-10
0.00062772
2.09161e-10
0.00062772
2.14431e-10
0.000627719
2.20173e-10
0.000627719
2.26067e-10
0.000627719
2.31663e-10
0.000627719
2.36489e-10
0.000627719
2.4013e-10
0.000627719
2.42277e-10
0.000627719
2.42757e-10
0.000627719
2.41551e-10
0.000627719
2.38803e-10
0.000627719
2.34831e-10
0.000627718
2.30134e-10
0.000627718
2.25401e-10
0.000627718
2.21523e-10
0.000627718
2.19613e-10
0.000627718
2.21014e-10
0.000627718
2.27335e-10
0.000627718
2.40444e-10
0.000627718
2.6251e-10
0.000627718
2.96033e-10
0.000627718
3.43073e-10
0.000627718
4.07314e-10
0.000627718
4.8488e-10
0.000627718
5.62941e-10
0.000627718
6.33064e-10
0.000627718
6.91366e-10
0.000627718
7.35972e-10
0.000627718
7.66861e-10
0.000627718
7.85145e-10
0.000627718
7.92373e-10
0.000627718
7.90207e-10
0.000627718
7.80231e-10
0.000627718
7.63849e-10
0.000627718
7.4227e-10
0.000627718
7.16508e-10
0.000627718
6.87405e-10
0.000627718
6.55658e-10
0.000627718
6.21842e-10
0.000627718
5.86426e-10
0.000627718
5.49791e-10
0.000627718
5.12242e-10
0.000627718
4.74022e-10
0.000627718
4.35316e-10
0.000627718
3.96263e-10
0.000627718
3.56963e-10
0.000627718
3.17486e-10
0.000627719
2.77879e-10
0.000627719
2.38168e-10
0.000627719
1.98365e-10
0.000627719
1.58473e-10
0.000627719
1.18487e-10
0.000627719
7.8397e-11
0.000627719
3.81898e-11
0.000627719
-2.14789e-12
0.000627719
-4.26282e-11
0.000627719
-8.32599e-11
0.000627719
-1.24046e-10
0.000627719
-1.64982e-10
0.000627719
-2.06053e-10
0.000627719
-2.47232e-10
0.000627719
-2.88477e-10
0.000627719
-3.29727e-10
0.000627719
-3.709e-10
0.000627719
-4.11887e-10
0.000627719
-4.52552e-10
0.000627719
-4.92724e-10
0.00062772
-5.32198e-10
0.00062772
-5.70729e-10
0.00062772
-6.0803e-10
0.00062772
-6.43785e-10
0.00062772
-6.77619e-10
0.00062772
-7.09155e-10
0.00062772
-7.37891e-10
0.00062772
-7.63335e-10
0.00062772
-7.84661e-10
0.00062772
-8.00859e-10
0.00062772
-8.10301e-10
0.00062772
-8.1054e-10
0.00062772
-7.98642e-10
0.00062772
-7.72128e-10
0.00062772
-7.26528e-10
0.00062772
-6.64188e-10
0.00062772
-5.9654e-10
0.000627721
-5.30698e-10
0.000627721
-4.69336e-10
0.000627721
-4.13239e-10
0.000627721
-3.61378e-10
0.000627721
-3.1164e-10
0.000627721
-2.61464e-10
0.000627721
-2.08338e-10
0.000627721
-1.49797e-10
0.000627721
-8.44397e-11
0.000627721
-1.19445e-11
0.000627721
5.48734e-11
0.000627721
1.94459e-11
-4.17719e-10
0.000612926
-9.19671e-10
0.000612926
-9.41462e-10
0.000612926
-8.08047e-10
0.000612926
-6.54315e-10
0.000612926
-5.08437e-10
0.000612926
-3.78335e-10
0.000612926
-2.65023e-10
0.000612926
-1.66966e-10
0.000612926
-8.2511e-11
0.000612925
-1.00475e-11
0.000612925
5.19318e-11
0.000612925
1.04767e-10
0.000612925
1.49631e-10
0.000612925
1.87525e-10
0.000612925
2.19269e-10
0.000612925
2.45512e-10
0.000612925
2.66739e-10
0.000612925
2.83378e-10
0.000612925
2.95836e-10
0.000612924
3.04717e-10
0.000612924
3.10817e-10
0.000612924
3.15249e-10
0.000612924
3.19141e-10
0.000612924
3.23259e-10
0.000612924
3.28016e-10
0.000612924
3.33266e-10
0.000612924
3.38568e-10
0.000612923
3.43349e-10
0.000612923
3.47024e-10
0.000612923
3.49099e-10
0.000612923
3.49224e-10
0.000612923
3.47216e-10
0.000612923
3.43079e-10
0.000612923
3.37002e-10
0.000612923
3.29363e-10
0.000612923
3.20723e-10
0.000612923
3.11826e-10
0.000612922
3.03608e-10
0.000612922
2.97195e-10
0.000612922
2.9391e-10
0.000612922
2.95284e-10
0.000612922
3.03033e-10
0.000612922
3.19024e-10
0.000612922
3.45274e-10
0.000612922
3.83143e-10
0.000612922
4.34616e-10
0.000612922
4.96509e-10
0.000612922
5.59448e-10
0.000612922
6.16818e-10
0.000612922
6.65171e-10
0.000612922
7.02607e-10
0.000612922
7.28696e-10
0.000612922
7.43989e-10
0.000612922
7.49513e-10
0.000612922
7.46498e-10
0.000612922
7.36203e-10
0.000612922
7.19809e-10
0.000612922
6.98368e-10
0.000612922
6.72797e-10
0.000612922
6.43879e-10
0.000612923
6.12275e-10
0.000612923
5.78536e-10
0.000612923
5.43123e-10
0.000612923
5.06411e-10
0.000612923
4.68703e-10
0.000612923
4.3024e-10
0.000612923
3.91209e-10
0.000612923
3.5175e-10
0.000612923
3.11969e-10
0.000612923
2.71939e-10
0.000612923
2.31713e-10
0.000612923
1.91325e-10
0.000612923
1.50795e-10
0.000612923
1.10135e-10
0.000612923
6.9348e-11
0.000612923
2.84333e-11
0.000612923
-1.26125e-11
0.000612923
-5.37932e-11
0.000612923
-9.51113e-11
0.000612923
-1.36565e-10
0.000612923
-1.78148e-10
0.000612924
-2.19843e-10
0.000612924
-2.61624e-10
0.000612924
-3.03451e-10
0.000612924
-3.45269e-10
0.000612924
-3.87001e-10
0.000612924
-4.28549e-10
0.000612924
-4.69787e-10
0.000612924
-5.10558e-10
0.000612924
-5.50672e-10
0.000612924
-5.89903e-10
0.000612924
-6.27987e-10
0.000612924
-6.6462e-10
0.000612924
-6.99482e-10
0.000612924
-7.32203e-10
0.000612924
-7.62449e-10
0.000612924
-7.89779e-10
0.000612924
-8.13861e-10
0.000612924
-8.34015e-10
0.000612925
-8.49522e-10
0.000612925
-8.58997e-10
0.000612925
-8.602e-10
0.000612925
-8.50615e-10
0.000612925
-8.28505e-10
0.000612925
-7.91024e-10
0.000612925
-7.39446e-10
0.000612925
-6.81494e-10
0.000612925
-6.22255e-10
0.000612925
-5.63796e-10
0.000612925
-5.06799e-10
0.000612925
-4.50538e-10
0.000612925
-3.93369e-10
0.000612925
-3.33169e-10
0.000612926
-2.6779e-10
0.000612926
-1.94986e-10
0.000612926
-1.13562e-10
0.000612926
-2.31363e-11
0.000612926
6.28908e-11
0.000612926
4.05891e-11
-4.31007e-10
0.000598441
-9.58236e-10
0.000598441
-9.7454e-10
0.000598441
-8.22191e-10
0.000598441
-6.47521e-10
0.000598441
-4.82246e-10
0.000598441
-3.35273e-10
0.000598441
-2.07477e-10
0.000598441
-9.70665e-11
0.000598441
-2.13291e-12
0.000598441
7.91743e-11
0.000598441
1.48566e-10
0.00059844
2.07561e-10
0.00059844
2.57483e-10
0.00059844
2.99465e-10
0.00059844
3.34428e-10
0.00059844
3.631e-10
0.00059844
3.8601e-10
0.00059844
4.03619e-10
0.00059844
4.16353e-10
0.000598439
4.24885e-10
0.000598439
4.30127e-10
0.000598439
4.33431e-10
0.000598439
4.3617e-10
0.000598439
4.39241e-10
0.000598439
4.43106e-10
0.000598439
4.475e-10
0.000598439
4.51821e-10
0.000598439
4.5533e-10
0.000598438
4.57308e-10
0.000598438
4.57173e-10
0.000598438
4.54535e-10
0.000598438
4.49224e-10
0.000598438
4.41289e-10
0.000598438
4.30991e-10
0.000598438
4.18792e-10
0.000598438
4.05335e-10
0.000598438
3.91443e-10
0.000598438
3.78101e-10
0.000598438
3.66461e-10
0.000598437
3.5783e-10
0.000598437
3.53666e-10
0.000598437
3.55544e-10
0.000598437
3.6508e-10
0.000598437
3.83894e-10
0.000598437
4.12872e-10
0.000598437
4.52937e-10
0.000598437
5.0136e-10
0.000598437
5.51076e-10
0.000598437
5.96806e-10
0.000598437
6.35555e-10
0.000598437
6.65554e-10
0.000598437
6.86201e-10
0.000598437
6.97709e-10
0.000598437
7.00735e-10
0.000598438
6.96171e-10
0.000598438
6.84992e-10
0.000598438
6.68161e-10
0.000598438
6.46569e-10
0.000598438
6.21018e-10
0.000598438
5.92211e-10
0.000598438
5.60755e-10
0.000598438
5.27167e-10
0.000598438
4.91882e-10
0.000598438
4.55259e-10
0.000598438
4.17591e-10
0.000598438
3.7911e-10
0.000598438
3.4e-10
0.000598438
3.00399e-10
0.000598438
2.60412e-10
0.000598438
2.20115e-10
0.000598438
1.79564e-10
0.000598438
1.38797e-10
0.000598438
9.78423e-11
0.000598439
5.67166e-11
0.000598439
1.54315e-11
0.000598439
-2.60057e-11
0.000598439
-6.75902e-11
0.000598439
-1.09317e-10
0.000598439
-1.5118e-10
0.000598439
-1.93167e-10
0.000598439
-2.35262e-10
0.000598439
-2.77438e-10
0.000598439
-3.19657e-10
0.000598439
-3.61868e-10
0.000598439
-4.04002e-10
0.000598439
-4.45967e-10
0.000598439
-4.8765e-10
0.000598439
-5.28908e-10
0.000598439
-5.69567e-10
0.000598439
-6.09416e-10
0.000598439
-6.48209e-10
0.00059844
-6.85662e-10
0.00059844
-7.21456e-10
0.00059844
-7.55263e-10
0.00059844
-7.86716e-10
0.00059844
-8.15532e-10
0.00059844
-8.41323e-10
0.00059844
-8.63944e-10
0.00059844
-8.82864e-10
0.00059844
-8.97705e-10
0.00059844
-9.07323e-10
0.00059844
-9.09577e-10
0.00059844
-9.02246e-10
0.00059844
-8.84148e-10
0.00059844
-8.53419e-10
0.00059844
-8.10371e-10
0.00059844
-7.60117e-10
0.00059844
-7.06162e-10
0.000598441
-6.49945e-10
0.000598441
-5.91897e-10
0.000598441
-5.3138e-10
0.000598441
-4.67036e-10
0.000598441
-3.97059e-10
0.000598441
-3.19611e-10
0.000598441
-2.3264e-10
0.000598441
-1.35145e-10
0.000598441
-2.66008e-11
0.000598441
7.93369e-11
0.000598441
7.27541e-11
-4.30063e-10
0.000584262
-9.79459e-10
0.000584262
-9.90713e-10
0.000584262
-8.20271e-10
0.000584262
-6.25537e-10
0.000584262
-4.41816e-10
0.000584262
-2.78959e-10
0.000584262
-1.37676e-10
0.000584262
-1.58975e-11
0.000584261
8.85591e-11
0.000584261
1.77795e-10