/*--------------------------------*- C++ -*----------------------------------*\
  =========                 |
  \\      /  F ield         | OpenFOAM: The Open Source CFD Toolbox
   \\    /   O peration     | Website:  https://openfoam.org
    \\  /    A nd           | Version:  7
     \\/     M anipulation  |
\*---------------------------------------------------------------------------*/
FoamFile
{
    version     2.0;
    format      ascii;
    class       volVectorField;
    location    "4500";
    object      U;
}
// * * * * * * * * * * * * * * * * * * * * * * * * * * * * * * * * * * * * * //

dimensions      [0 1 -1 0 0 0 0];

internalField   nonuniform List<vector> 
4000
(
(0.145289 -1.8531e-08 1.16167e-14)
(0.145289 -2.28159e-08 1.16002e-14)
(0.145289 -2.53678e-08 1.15389e-14)
(0.145289 -2.76651e-08 1.15661e-14)
(0.145289 -2.9852e-08 1.14991e-14)
(0.145289 -3.1892e-08 1.14547e-14)
(0.145289 -3.37893e-08 1.14818e-14)
(0.14529 -3.55311e-08 1.14727e-14)
(0.14529 -3.71124e-08 1.14455e-14)
(0.14529 -3.85363e-08 1.14796e-14)
(0.145289 -3.98091e-08 1.14737e-14)
(0.145289 -4.09401e-08 1.13841e-14)
(0.145289 -4.19406e-08 1.13954e-14)
(0.145289 -4.28228e-08 1.13273e-14)
(0.145289 -4.3599e-08 1.13544e-14)
(0.145289 -4.42809e-08 1.13394e-14)
(0.145289 -4.48788e-08 1.1255e-14)
(0.145289 -4.54002e-08 1.12795e-14)
(0.145289 -4.58488e-08 1.12311e-14)
(0.145289 -4.62239e-08 1.12756e-14)
(0.145289 -4.65206e-08 1.12694e-14)
(0.145289 -4.67318e-08 1.13123e-14)
(0.145289 -4.68503e-08 1.13152e-14)
(0.145289 -4.68731e-08 1.13095e-14)
(0.145289 -4.6803e-08 1.13337e-14)
(0.145289 -4.66501e-08 1.13069e-14)
(0.145289 -4.64303e-08 1.12932e-14)
(0.145289 -4.61642e-08 1.12937e-14)
(0.145289 -4.58739e-08 1.12915e-14)
(0.145289 -4.55815e-08 1.13137e-14)
(0.145289 -4.53061e-08 1.12788e-14)
(0.145289 -4.50626e-08 1.12685e-14)
(0.145289 -4.48587e-08 1.12668e-14)
(0.145289 -4.46938e-08 1.12584e-14)
(0.145289 -4.45552e-08 1.12892e-14)
(0.145289 -4.44158e-08 1.12525e-14)
(0.145289 -4.42291e-08 1.12052e-14)
(0.145289 -4.39244e-08 1.11871e-14)
(0.145289 -4.33987e-08 1.11723e-14)
(0.145289 -4.25129e-08 1.12366e-14)
(0.145289 -4.10658e-08 1.1227e-14)
(0.145289 -3.88051e-08 1.12227e-14)
(0.145289 -3.52099e-08 1.12012e-14)
(0.145289 -2.92894e-08 1.11846e-14)
(0.145289 -1.58562e-08 1.11711e-14)
(0.145289 1.0927e-08 1.11607e-14)
(0.145289 4.13668e-08 1.11698e-14)
(0.145289 6.14774e-08 1.11588e-14)
(0.145289 7.20787e-08 1.11557e-14)
(0.145289 7.82132e-08 1.11562e-14)
(0.145289 8.15566e-08 1.11514e-14)
(0.145289 8.29992e-08 1.11497e-14)
(0.145289 8.31654e-08 1.11415e-14)
(0.145289 8.24417e-08 1.11367e-14)
(0.145289 8.10938e-08 1.11277e-14)
(0.145289 7.93104e-08 1.11416e-14)
(0.145289 7.72246e-08 1.11547e-14)
(0.145289 7.49307e-08 1.11425e-14)
(0.145289 7.2496e-08 1.11306e-14)
(0.145289 6.99685e-08 1.11216e-14)
(0.145289 6.73831e-08 1.11387e-14)
(0.145289 6.47665e-08 1.11684e-14)
(0.145289 6.21395e-08 1.11621e-14)
(0.145289 5.95192e-08 1.11582e-14)
(0.145289 5.69195e-08 1.11465e-14)
(0.145289 5.43513e-08 1.11693e-14)
(0.145289 5.1822e-08 1.11879e-14)
(0.145289 4.9336e-08 1.11874e-14)
(0.145289 4.68938e-08 1.11881e-14)
(0.145289 4.44932e-08 1.11896e-14)
(0.145289 4.21291e-08 1.12144e-14)
(0.145289 3.97945e-08 1.12342e-14)
(0.145289 3.74807e-08 1.12297e-14)
(0.145289 3.51786e-08 1.12433e-14)
(0.145289 3.28783e-08 1.12306e-14)
(0.145289 3.05699e-08 1.12454e-14)
(0.145289 2.82433e-08 1.12621e-14)
(0.145289 2.58889e-08 1.12647e-14)
(0.145289 2.3497e-08 1.12697e-14)
(0.145289 2.10579e-08 1.12671e-14)
(0.145289 1.85626e-08 1.12709e-14)
(0.145289 1.60017e-08 1.13077e-14)
(0.145289 1.33663e-08 1.13168e-14)
(0.145289 1.06478e-08 1.13216e-14)
(0.145289 7.8379e-09 1.13512e-14)
(0.145289 4.92887e-09 1.13638e-14)
(0.145289 1.91372e-09 1.1396e-14)
(0.145289 -1.21345e-09 1.13975e-14)
(0.145289 -4.45707e-09 1.13998e-14)
(0.145289 -7.8195e-09 1.14307e-14)
(0.145289 -1.13002e-08 1.14458e-14)
(0.145289 -1.48947e-08 1.14613e-14)
(0.145289 -1.85928e-08 1.14544e-14)
(0.145289 -2.23763e-08 1.14491e-14)
(0.145289 -2.62159e-08 1.14743e-14)
(0.145289 -3.00666e-08 1.14854e-14)
(0.145289 -3.38616e-08 1.15107e-14)
(0.145289 -3.75032e-08 1.15e-14)
(0.145289 -4.08568e-08 1.14889e-14)
(0.145289 -4.37229e-08 1.15e-14)
(0.145289 -4.58457e-08 1.15083e-14)
(0.145289 -4.6694e-08 1.15449e-14)
(0.145289 -4.52593e-08 1.15473e-14)
(0.145289 -3.63257e-08 1.15424e-14)
(0.145289 -1.40233e-08 1.15483e-14)
(0.145289 1.19885e-08 1.15462e-14)
(0.145289 2.7769e-08 1.15606e-14)
(0.145289 3.41711e-08 1.15485e-14)
(0.145289 3.62649e-08 1.15423e-14)
(0.145289 3.57483e-08 1.15608e-14)
(0.145289 3.35297e-08 1.15616e-14)
(0.145289 3.02481e-08 1.15702e-14)
(0.145289 2.63028e-08 1.15605e-14)
(0.145289 2.19704e-08 1.15643e-14)
(0.145289 1.74504e-08 1.15871e-14)
(0.145289 1.28829e-08 1.159e-14)
(0.145289 8.35763e-09 1.15964e-14)
(0.145289 3.82363e-09 1.15871e-14)
(0.145289 -1.62243e-09 1.15898e-14)
(0.145289 -1.02066e-08 1.1609e-14)
(0.145275 -2.86228e-08 1.15991e-14)
(0.145275 -3.36802e-08 1.15817e-14)
(0.145275 -3.47312e-08 1.14248e-14)
(0.145275 -3.49877e-08 1.14923e-14)
(0.145275 -3.52328e-08 1.14235e-14)
(0.145275 -3.5542e-08 1.15065e-14)
(0.145275 -3.59331e-08 1.15607e-14)
(0.145275 -3.63658e-08 1.15131e-14)
(0.145275 -3.68098e-08 1.15326e-14)
(0.145275 -3.72482e-08 1.16605e-14)
(0.145275 -3.76687e-08 1.1501e-14)
(0.145275 -3.80635e-08 1.14212e-14)
(0.145275 -3.84289e-08 1.13842e-14)
(0.145275 -3.87635e-08 1.13378e-14)
(0.145275 -3.9068e-08 1.13248e-14)
(0.145275 -3.93443e-08 1.13097e-14)
(0.145275 -3.95946e-08 1.12685e-14)
(0.145275 -3.98195e-08 1.12594e-14)
(0.145275 -4.0017e-08 1.1236e-14)
(0.145275 -4.01805e-08 1.1238e-14)
(0.145275 -4.02992e-08 1.11796e-14)
(0.145275 -4.0359e-08 1.13007e-14)
(0.145275 -4.03464e-08 1.13023e-14)
(0.145275 -4.02527e-08 1.12878e-14)
(0.145275 -4.00761e-08 1.13606e-14)
(0.145275 -3.98239e-08 1.12653e-14)
(0.145275 -3.95105e-08 1.12762e-14)
(0.145275 -3.91552e-08 1.12817e-14)
(0.145275 -3.87799e-08 1.1289e-14)
(0.145275 -3.84055e-08 1.13614e-14)
(0.145275 -3.80502e-08 1.12628e-14)
(0.145275 -3.77268e-08 1.1223e-14)
(0.145275 -3.74412e-08 1.12816e-14)
(0.145275 -3.71895e-08 1.12336e-14)
(0.145275 -3.69557e-08 1.13547e-14)
(0.145275 -3.67088e-08 1.12543e-14)
(0.145275 -3.63979e-08 1.12315e-14)
(0.145275 -3.59483e-08 1.12113e-14)
(0.145275 -3.52533e-08 1.12208e-14)
(0.145275 -3.417e-08 1.13597e-14)
(0.145274 -3.24964e-08 1.13161e-14)
(0.145274 -2.9978e-08 1.12828e-14)
(0.145274 -2.61241e-08 1.12651e-14)
(0.145274 -2.02292e-08 1.12499e-14)
(0.145274 -8.94499e-09 1.12384e-14)
(0.145274 1.41015e-08 1.12295e-14)
(0.145274 4.15694e-08 1.12297e-14)
(0.145274 6.09114e-08 1.12254e-14)
(0.145274 7.25496e-08 1.12258e-14)
(0.145274 7.96569e-08 1.12266e-14)
(0.145274 8.36951e-08 1.12233e-14)
(0.145274 8.56293e-08 1.12222e-14)
(0.145274 8.61345e-08 1.12168e-14)
(0.145274 8.56312e-08 1.12113e-14)
(0.145274 8.44071e-08 1.12043e-14)
(0.145274 8.26671e-08 1.12141e-14)
(0.145274 8.05569e-08 1.12263e-14)
(0.145274 7.8182e-08 1.1223e-14)
(0.145274 7.56189e-08 1.1216e-14)
(0.145274 7.29237e-08 1.12074e-14)
(0.145274 7.01385e-08 1.12176e-14)
(0.145274 6.72956e-08 1.12377e-14)
(0.145274 6.44206e-08 1.12446e-14)
(0.145274 6.15341e-08 1.12446e-14)
(0.145274 5.86528e-08 1.1239e-14)
(0.145274 5.57898e-08 1.12545e-14)
(0.145274 5.29544e-08 1.12754e-14)
(0.145274 5.01523e-08 1.12877e-14)
(0.145274 4.73857e-08 1.12944e-14)
(0.145274 4.46539e-08 1.1296e-14)
(0.145274 4.19533e-08 1.13143e-14)
(0.145274 3.92784e-08 1.13307e-14)
(0.145274 3.66222e-08 1.13342e-14)
(0.145274 3.39768e-08 1.13377e-14)
(0.145274 3.13337e-08 1.13339e-14)
(0.145274 2.86843e-08 1.1349e-14)
(0.145274 2.60199e-08 1.13663e-14)
(0.145274 2.33318e-08 1.13752e-14)
(0.145274 2.06114e-08 1.13803e-14)
(0.145274 1.78507e-08 1.13732e-14)
(0.145274 1.50414e-08 1.13333e-14)
(0.145274 1.21759e-08 1.13813e-14)
(0.145274 9.24666e-09 1.13864e-14)
(0.145274 6.24684e-09 1.13781e-14)
(0.145274 3.17001e-09 1.14139e-14)
(0.145274 1.057e-11 1.13851e-14)
(0.145274 -3.2361e-09 1.14438e-14)
(0.145274 -6.57327e-09 1.14549e-14)
(0.145274 -1.00024e-08 1.14436e-14)
(0.145274 -1.35228e-08 1.14851e-14)
(0.145274 -1.71303e-08 1.14793e-14)
(0.145274 -2.08167e-08 1.15049e-14)
(0.145274 -2.4568e-08 1.14948e-14)
(0.145274 -2.83624e-08 1.14763e-14)
(0.145275 -3.21667e-08 1.15138e-14)
(0.145275 -3.59329e-08 1.14838e-14)
(0.145275 -3.95916e-08 1.15453e-14)
(0.145275 -4.30437e-08 1.15345e-14)
(0.145275 -4.61531e-08 1.15081e-14)
(0.145275 -4.87208e-08 1.15225e-14)
(0.145275 -5.04889e-08 1.15022e-14)
(0.145275 -5.09538e-08 1.15679e-14)
(0.145275 -4.93887e-08 1.15701e-14)
(0.145275 -4.24127e-08 1.15549e-14)
(0.145275 -2.36157e-08 1.15705e-14)
(0.145275 -2.95309e-10 1.15436e-14)
(0.145275 1.50539e-08 1.15699e-14)
(0.145275 2.28971e-08 1.15538e-14)
(0.145275 2.64457e-08 1.15379e-14)
(0.145275 2.71944e-08 1.15791e-14)
(0.145275 2.61375e-08 1.15418e-14)
(0.145275 2.39757e-08 1.15461e-14)
(0.145275 2.11538e-08 1.15438e-14)
(0.145275 1.79803e-08 1.15373e-14)
(0.145275 1.46809e-08 1.15709e-14)
(0.145275 1.14087e-08 1.15446e-14)
(0.145275 8.24797e-09 1.15574e-14)
(0.145275 4.94233e-09 1.15572e-14)
(0.145275 -6.76713e-10 1.15554e-14)
(0.145275 -1.45067e-08 1.15907e-14)
(0.145249 -3.87608e-08 1.15863e-14)
(0.145249 -4.41293e-08 1.1566e-14)
(0.145249 -4.33716e-08 1.15054e-14)
(0.145249 -4.16762e-08 1.14894e-14)
(0.145249 -4.00396e-08 1.14581e-14)
(0.145249 -3.86259e-08 1.14799e-14)
(0.145249 -3.74944e-08 1.15161e-14)
(0.145249 -3.65934e-08 1.14997e-14)
(0.145249 -3.58739e-08 1.14906e-14)
(0.145249 -3.53008e-08 1.15033e-14)
(0.145249 -3.48436e-08 1.14701e-14)
(0.145249 -3.44784e-08 1.14129e-14)
(0.145249 -3.41866e-08 1.13678e-14)
(0.145249 -3.39538e-08 1.13262e-14)
(0.145249 -3.37693e-08 1.13e-14)
(0.145249 -3.36257e-08 1.12823e-14)
(0.145249 -3.35172e-08 1.12594e-14)
(0.145249 -3.34382e-08 1.12455e-14)
(0.145249 -3.33806e-08 1.1228e-14)
(0.145249 -3.33317e-08 1.1217e-14)
(0.145249 -3.32738e-08 1.11907e-14)
(0.145249 -3.31854e-08 1.1243e-14)
(0.145249 -3.30452e-08 1.1259e-14)
(0.145249 -3.28381e-08 1.12654e-14)
(0.145249 -3.25578e-08 1.13068e-14)
(0.145249 -3.2209e-08 1.12929e-14)
(0.145248 -3.18051e-08 1.1287e-14)
(0.145248 -3.13654e-08 1.12936e-14)
(0.145248 -3.09118e-08 1.12985e-14)
(0.145248 -3.04653e-08 1.13361e-14)
(0.145248 -3.00437e-08 1.13121e-14)
(0.145248 -2.96588e-08 1.13085e-14)
(0.145248 -2.93149e-08 1.13114e-14)
(0.145248 -2.90059e-08 1.13068e-14)
(0.145248 -2.87133e-08 1.13494e-14)
(0.145248 -2.84028e-08 1.13217e-14)
(0.145248 -2.80207e-08 1.12807e-14)
(0.145248 -2.7489e-08 1.12689e-14)
(0.145248 -2.66987e-08 1.12604e-14)
(0.145248 -2.55051e-08 1.13407e-14)
(0.145248 -2.37069e-08 1.13424e-14)
(0.145248 -2.10474e-08 1.13383e-14)
(0.145248 -1.70674e-08 1.1327e-14)
(0.145248 -1.11109e-08 1.13186e-14)
(0.145248 -1.01075e-09 1.13088e-14)
(0.145248 1.7833e-08 1.12988e-14)
(0.145248 4.11027e-08 1.12958e-14)
(0.145248 5.94744e-08 1.12928e-14)
(0.145248 7.17757e-08 1.12997e-14)
(0.145248 7.97312e-08 1.13017e-14)
(0.145248 8.45002e-08 1.12972e-14)
(0.145248 8.70016e-08 1.12957e-14)
(0.145248 8.79178e-08 1.12915e-14)
(0.145248 8.76978e-08 1.12871e-14)
(0.145248 8.66531e-08 1.12769e-14)
(0.145248 8.50069e-08 1.12992e-14)
(0.145248 8.292e-08 1.13098e-14)
(0.145248 8.05097e-08 1.13097e-14)
(0.145248 7.78625e-08 1.13054e-14)
(0.145248 7.50433e-08 1.12922e-14)
(0.145248 7.21012e-08 1.13104e-14)
(0.145248 6.90745e-08 1.13256e-14)
(0.145248 6.59934e-08 1.13363e-14)
(0.145248 6.28823e-08 1.13392e-14)
(0.145248 5.97607e-08 1.13304e-14)
(0.145248 5.66438e-08 1.13487e-14)
(0.145248 5.35427e-08 1.13765e-14)
(0.145248 5.04647e-08 1.13924e-14)
(0.145248 4.74135e-08 1.14013e-14)
(0.145248 4.43896e-08 1.14018e-14)
(0.145248 4.13911e-08 1.14285e-14)
(0.145248 3.8414e-08 1.14449e-14)
(0.145248 3.54526e-08 1.14462e-14)
(0.145248 3.25006e-08 1.14462e-14)
(0.145248 2.95507e-08 1.14407e-14)
(0.145248 2.65955e-08 1.1474e-14)
(0.145248 2.36277e-08 1.14831e-14)
(0.145248 2.06396e-08 1.14918e-14)
(0.145248 1.76239e-08 1.14959e-14)
(0.145248 1.45737e-08 1.14797e-14)
(0.145248 1.1482e-08 1.14003e-14)
(0.145248 8.34256e-09 1.15153e-14)
(0.145248 5.14937e-09 1.14517e-14)
(0.145248 1.89713e-09 1.14304e-14)
(0.145248 -1.4187e-09 1.14912e-14)
(0.145248 -4.80172e-09 1.13734e-14)
(0.145248 -8.25429e-09 1.155e-14)
(0.145248 -1.17772e-08 1.15035e-14)
(0.145248 -1.53691e-08 1.14778e-14)
(0.145248 -1.90264e-08 1.15357e-14)
(0.145248 -2.27417e-08 1.14597e-14)
(0.145248 -2.65037e-08 1.15788e-14)
(0.145248 -3.0295e-08 1.15301e-14)
(0.145248 -3.40908e-08 1.14896e-14)
(0.145248 -3.78554e-08 1.15542e-14)
(0.145248 -4.15392e-08 1.14496e-14)
(0.145248 -4.50719e-08 1.1672e-14)
(0.145248 -4.83557e-08 1.15672e-14)
(0.145248 -5.12554e-08 1.15128e-14)
(0.145248 -5.35755e-08 1.1608e-14)
(0.145248 -5.50568e-08 1.15177e-14)
(0.145248 -5.52254e-08 1.15888e-14)
(0.145248 -5.34006e-08 1.15889e-14)
(0.145248 -4.73792e-08 1.15604e-14)
(0.145248 -3.25183e-08 1.17054e-14)
(0.145248 -1.30825e-08 1.15514e-14)
(0.145248 1.66463e-09 1.16014e-14)
(0.145248 1.06048e-08 1.15615e-14)
(0.145249 1.55116e-08 1.15221e-14)
(0.145249 1.75885e-08 1.15972e-14)
(0.145249 1.77942e-08 1.14897e-14)
(0.145249 1.68483e-08 1.15322e-14)
(0.145249 1.52353e-08 1.15357e-14)
(0.145249 1.32975e-08 1.15183e-14)
(0.145249 1.12887e-08 1.15806e-14)
(0.145249 9.37484e-09 1.14744e-14)
(0.145249 7.62955e-09 1.15274e-14)
(0.145249 5.58433e-09 1.1536e-14)
(0.145249 -2.99002e-10 1.15244e-14)
(0.145249 -1.92212e-08 1.15883e-14)
(0.145212 -4.88289e-08 1.15575e-14)
(0.145212 -5.39168e-08 1.15454e-14)
(0.145212 -5.13539e-08 1.1521e-14)
(0.145212 -4.7711e-08 1.1505e-14)
(0.145212 -4.41786e-08 1.14807e-14)
(0.145212 -4.10269e-08 1.14781e-14)
(0.145212 -3.83519e-08 1.14871e-14)
(0.145212 -3.60936e-08 1.14709e-14)
(0.145212 -3.4188e-08 1.14522e-14)
(0.145212 -3.25824e-08 1.14445e-14)
(0.145212 -3.12289e-08 1.14178e-14)
(0.145212 -3.00872e-08 1.13768e-14)
(0.145212 -2.91242e-08 1.13357e-14)
(0.145212 -2.83123e-08 1.12984e-14)
(0.145212 -2.76301e-08 1.12685e-14)
(0.145212 -2.70606e-08 1.12531e-14)
(0.145211 -2.6591e-08 1.1242e-14)
(0.145211 -2.6209e-08 1.12304e-14)
(0.145211 -2.59007e-08 1.12145e-14)
(0.145211 -2.56469e-08 1.11987e-14)
(0.145211 -2.54224e-08 1.11842e-14)
(0.145211 -2.51969e-08 1.12067e-14)
(0.145211 -2.49402e-08 1.12313e-14)
(0.145211 -2.46303e-08 1.12517e-14)
(0.145211 -2.42559e-08 1.12878e-14)
(0.145211 -2.38196e-08 1.13051e-14)
(0.145211 -2.33348e-08 1.13129e-14)
(0.145211 -2.28216e-08 1.13188e-14)
(0.145211 -2.2303e-08 1.13231e-14)
(0.145211 -2.18011e-08 1.13436e-14)
(0.145211 -2.1334e-08 1.13467e-14)
(0.145211 -2.09134e-08 1.13488e-14)
(0.145211 -2.05425e-08 1.13495e-14)
(0.145211 -2.02139e-08 1.13502e-14)
(0.145211 -1.99068e-08 1.13701e-14)
(0.145211 -1.95846e-08 1.1368e-14)
(0.145211 -1.91912e-08 1.13486e-14)
(0.145211 -1.86465e-08 1.13379e-14)
(0.145211 -1.78403e-08 1.1336e-14)
(0.145211 -1.66279e-08 1.13652e-14)
(0.145211 -1.48117e-08 1.13808e-14)
(0.145211 -1.21393e-08 1.1397e-14)
(0.145211 -8.19682e-09 1.13908e-14)
(0.145211 -2.40314e-09 1.13948e-14)
(0.145211 6.62755e-09 1.13834e-14)
(0.145211 2.20506e-08 1.13681e-14)
(0.145211 4.14064e-08 1.13667e-14)
(0.145211 5.80765e-08 1.1363e-14)
(0.145211 7.02949e-08 1.13849e-14)
(0.145211 7.87262e-08 1.13843e-14)
(0.145211 8.40931e-08 1.1373e-14)
(0.145211 8.71377e-08 1.13742e-14)
(0.145211 8.84857e-08 1.13686e-14)
(0.145211 8.85853e-08 1.13637e-14)
(0.145211 8.77616e-08 1.13417e-14)
(0.145211 8.62524e-08 1.1422e-14)
(0.145211 8.42319e-08 1.14065e-14)
(0.145211 8.1829e-08 1.14027e-14)
(0.145211 7.91406e-08 1.14007e-14)
(0.145211 7.62397e-08 1.13731e-14)
(0.145211 7.31829e-08 1.13982e-14)
(0.145211 7.0014e-08 1.14315e-14)
(0.145211 6.67683e-08 1.1437e-14)
(0.145211 6.34737e-08 1.14399e-14)
(0.145211 6.01524e-08 1.14154e-14)
(0.145211 5.68219e-08 1.14462e-14)
(0.145211 5.3495e-08 1.14888e-14)
(0.145211 5.01806e-08 1.15028e-14)
(0.145211 4.68838e-08 1.15117e-14)
(0.145211 4.36065e-08 1.15048e-14)
(0.145211 4.03483e-08 1.1536e-14)
(0.145211 3.71065e-08 1.15702e-14)
(0.145211 3.3877e-08 1.15661e-14)
(0.145211 3.06546e-08 1.15618e-14)
(0.145211 2.74335e-08 1.15451e-14)
(0.145211 2.42077e-08 1.15758e-14)
(0.145211 2.09707e-08 1.16166e-14)
(0.145211 1.77162e-08 1.16141e-14)
(0.145211 1.44382e-08 1.16169e-14)
(0.145211 1.11307e-08 1.15875e-14)
(0.145211 7.78807e-09 1.1546e-14)
(0.145211 4.40533e-09 1.15162e-14)
(0.145211 9.77983e-10 1.14712e-14)
(0.145211 -2.49772e-09 1.14183e-14)
(0.145211 -6.02458e-09 1.14924e-14)
(0.145211 -9.60425e-09 1.15208e-14)
(0.145211 -1.32369e-08 1.15344e-14)
(0.145211 -1.69211e-08 1.15066e-14)
(0.145211 -2.06528e-08 1.14979e-14)
(0.145211 -2.44256e-08 1.14764e-14)
(0.145211 -2.82295e-08 1.15847e-14)
(0.145211 -3.20499e-08 1.15395e-14)
(0.145211 -3.5867e-08 1.15332e-14)
(0.145211 -3.96536e-08 1.14515e-14)
(0.145211 -4.33723e-08 1.14217e-14)
(0.145211 -4.69734e-08 1.16171e-14)
(0.145211 -5.03875e-08 1.1538e-14)
(0.145211 -5.35203e-08 1.15363e-14)
(0.145211 -5.62406e-08 1.14676e-14)
(0.145211 -5.8361e-08 1.15179e-14)
(0.145211 -5.96286e-08 1.16205e-14)
(0.145211 -5.96133e-08 1.15549e-14)
(0.145211 -5.77062e-08 1.15517e-14)
(0.145211 -5.24827e-08 1.15025e-14)
(0.145211 -4.07381e-08 1.15666e-14)
(0.145211 -2.48681e-08 1.16012e-14)
(0.145211 -1.14214e-08 1.15499e-14)
(0.145211 -2.09908e-09 1.1532e-14)
(0.145211 3.82388e-09 1.14123e-14)
(0.145211 7.1249e-09 1.15448e-14)
(0.145211 8.5973e-09 1.15862e-14)
(0.145211 8.91502e-09 1.15255e-14)
(0.145211 8.57389e-09 1.15374e-14)
(0.145211 7.93971e-09 1.15124e-14)
(0.145211 7.29011e-09 1.14702e-14)
(0.145211 6.80178e-09 1.15626e-14)
(0.145211 6.53622e-09 1.15624e-14)
(0.145211 5.82512e-09 1.15233e-14)
(0.145211 -2.16666e-10 1.15036e-14)
(0.145211 -2.4308e-08 1.14579e-14)
(0.145164 -5.85594e-08 1.15849e-14)
(0.145164 -6.32034e-08 1.15141e-14)
(0.145164 -5.87431e-08 1.15309e-14)
(0.145164 -5.30645e-08 1.15239e-14)
(0.145164 -4.75832e-08 1.14965e-14)
(0.145164 -4.26626e-08 1.14837e-14)
(0.145164 -3.84178e-08 1.14691e-14)
(0.145164 -3.47791e-08 1.1438e-14)
(0.145164 -3.16678e-08 1.14119e-14)
(0.145164 -2.90137e-08 1.13886e-14)
(0.145164 -2.67512e-08 1.13563e-14)
(0.145164 -2.48237e-08 1.13243e-14)
(0.145164 -2.31828e-08 1.12886e-14)
(0.145164 -2.17884e-08 1.12574e-14)
(0.145164 -2.06076e-08 1.12271e-14)
(0.145164 -1.96147e-08 1.12219e-14)
(0.145164 -1.87894e-08 1.12239e-14)
(0.145164 -1.81133e-08 1.1214e-14)
(0.145164 -1.75668e-08 1.11976e-14)
(0.145164 -1.71236e-08 1.11781e-14)
(0.145164 -1.67502e-08 1.11734e-14)
(0.145164 -1.64063e-08 1.11948e-14)
(0.145164 -1.60514e-08 1.12222e-14)
(0.145164 -1.56557e-08 1.12535e-14)
(0.145164 -1.52029e-08 1.1294e-14)
(0.145164 -1.46939e-08 1.13264e-14)
(0.145164 -1.41433e-08 1.13469e-14)
(0.145164 -1.35732e-08 1.13531e-14)
(0.145164 -1.3009e-08 1.13586e-14)
(0.145164 -1.24749e-08 1.13745e-14)
(0.145164 -1.19901e-08 1.13871e-14)
(0.145164 -1.15669e-08 1.13948e-14)
(0.145164 -1.12082e-08 1.1393e-14)
(0.145164 -1.09054e-08 1.13929e-14)
(0.145164 -1.0636e-08 1.14055e-14)
(0.145164 -1.03615e-08 1.14148e-14)
(0.145163 -1.00234e-08 1.14144e-14)
(0.145163 -9.54024e-09 1.14062e-14)
(0.145163 -8.80157e-09 1.14048e-14)
(0.145163 -7.66402e-09 1.14207e-14)
(0.145163 -5.93635e-09 1.1433e-14)
(0.145163 -3.3767e-09 1.14725e-14)
(0.145163 3.78996e-10 1.14598e-14)
(0.145163 5.82819e-09 1.14902e-14)
(0.145163 1.38598e-08 1.14621e-14)
(0.145163 2.65506e-08 1.14348e-14)
(0.145163 4.2475e-08 1.14505e-14)
(0.145163 5.70716e-08 1.14367e-14)
(0.145163 6.85805e-08 1.1498e-14)
(0.145163 7.70186e-08 1.14748e-14)
(0.145163 8.27075e-08 1.14476e-14)
(0.145163 8.61579e-08 1.14635e-14)
(0.145163 8.78824e-08 1.14488e-14)
(0.145163 8.82909e-08 1.14394e-14)
(0.145163 8.77005e-08 1.13802e-14)
(0.145163 8.63528e-08 1.14666e-14)
(0.145163 8.44302e-08 1.1503e-14)
(0.145163 8.20703e-08 1.14994e-14)
(0.145163 7.93783e-08 1.15096e-14)
(0.145163 7.6435e-08 1.14384e-14)
(0.145163 7.33032e-08 1.15143e-14)
(0.145163 7.00326e-08 1.15381e-14)
(0.145163 6.66625e-08 1.15435e-14)
(0.145163 6.32245e-08 1.15453e-14)
(0.145163 5.97436e-08 1.1487e-14)
(0.145163 5.62394e-08 1.15532e-14)
(0.145163 5.27264e-08 1.16232e-14)
(0.145163 4.92148e-08 1.16187e-14)
(0.145163 4.57113e-08 1.16249e-14)
(0.145163 4.22193e-08 1.15969e-14)
(0.145163 3.87394e-08 1.16566e-14)
(0.145163 3.52704e-08 1.17019e-14)
(0.145163 3.18097e-08 1.16903e-14)
(0.145163 2.83533e-08 1.1686e-14)
(0.145163 2.48967e-08 1.1632e-14)
(0.145163 2.14352e-08 1.17113e-14)
(0.145163 1.79634e-08 1.17323e-14)
(0.145163 1.44763e-08 1.174e-14)
(0.145163 1.09688e-08 1.17407e-14)
(0.145163 7.43624e-09 1.16757e-14)
(0.145163 3.87422e-09 1.17094e-14)
(0.145163 2.78966e-10 1.16697e-14)
(0.145163 -3.3526e-09 1.16431e-14)
(0.145163 -7.0227e-09 1.16658e-14)
(0.145163 -1.07324e-08 1.16507e-14)
(0.145163 -1.44816e-08 1.16981e-14)
(0.145163 -1.82685e-08 1.16803e-14)
(0.145164 -2.20891e-08 1.16628e-14)
(0.145164 -2.59373e-08 1.16681e-14)
(0.145164 -2.9804e-08 1.16544e-14)
(0.145164 -3.36764e-08 1.17397e-14)
(0.145164 -3.75376e-08 1.17192e-14)
(0.145164 -4.13653e-08 1.16723e-14)
(0.145164 -4.51306e-08 1.16546e-14)
(0.145164 -4.87955e-08 1.16497e-14)
(0.145164 -5.23109e-08 1.17073e-14)
(0.145164 -5.56102e-08 1.16944e-14)
(0.145164 -5.86048e-08 1.16709e-14)
(0.145164 -6.11706e-08 1.16697e-14)
(0.145164 -6.31328e-08 1.16452e-14)
(0.145164 -6.4252e-08 1.17396e-14)
(0.145164 -6.41466e-08 1.16987e-14)
(0.145164 -6.22888e-08 1.16744e-14)
(0.145164 -5.77482e-08 1.16998e-14)
(0.145164 -4.83928e-08 1.16782e-14)
(0.145164 -3.55711e-08 1.17417e-14)
(0.145164 -2.37639e-08 1.16987e-14)
(0.145164 -1.46542e-08 1.16537e-14)
(0.145164 -8.15335e-09 1.16599e-14)
(0.145164 -3.87372e-09 1.16564e-14)
(0.145164 -1.24191e-09 1.17185e-14)
(0.145164 3.14685e-10 1.17384e-14)
(0.145164 1.26537e-09 1.16859e-14)
(0.145164 1.97831e-09 1.16608e-14)
(0.145164 2.74479e-09 1.16308e-14)
(0.145164 3.74691e-09 1.16872e-14)
(0.145164 5.03506e-09 1.17123e-14)
(0.145164 5.76042e-09 1.16601e-14)
(0.145164 -2.12761e-10 1.16437e-14)
(0.145164 -2.92447e-08 1.1596e-14)
(0.145106 -6.77181e-08 1.16242e-14)
(0.145106 -7.1858e-08 1.15861e-14)
(0.145106 -6.5439e-08 1.15659e-14)
(0.145106 -5.7649e-08 1.1544e-14)
(0.145106 -5.01677e-08 1.1502e-14)
(0.145106 -4.34477e-08 1.14915e-14)
(0.145106 -3.76114e-08 1.14515e-14)
(0.145106 -3.25759e-08 1.13963e-14)
(0.145106 -2.82472e-08 1.13672e-14)
(0.145106 -2.45369e-08 1.1329e-14)
(0.145106 -2.13613e-08 1.12842e-14)
(0.145106 -1.8647e-08 1.12623e-14)
(0.145106 -1.63307e-08 1.12283e-14)
(0.145106 -1.43587e-08 1.12069e-14)
(0.145106 -1.26872e-08 1.11741e-14)
(0.145106 -1.12815e-08 1.11933e-14)
(0.145106 -1.01143e-08 1.12111e-14)
(0.145106 -9.16105e-09 1.11958e-14)
(0.145106 -8.39648e-09 1.11771e-14)
(0.145106 -7.78708e-09 1.1152e-14)
(0.145106 -7.29031e-09 1.11661e-14)
(0.145106 -6.85401e-09 1.12024e-14)
(0.145106 -6.42599e-09 1.12317e-14)
(0.145106 -5.96767e-09 1.1276e-14)
(0.145106 -5.45729e-09 1.13254e-14)
(0.145106 -4.89561e-09 1.1366e-14)
(0.145106 -4.29925e-09 1.13952e-14)
(0.145106 -3.6941e-09 1.13954e-14)
(0.145106 -3.10939e-09 1.14048e-14)
(0.145106 -2.57236e-09 1.14232e-14)
(0.145106 -2.10469e-09 1.14393e-14)
(0.145106 -1.71971e-09 1.14488e-14)
(0.145106 -1.42027e-09 1.14391e-14)
(0.145106 -1.19681e-09 1.14383e-14)
(0.145106 -1.02522e-09 1.14514e-14)
(0.145106 -8.64649e-10 1.14693e-14)
(0.145106 -6.54665e-10 1.14829e-14)
(0.145106 -3.12253e-10 1.14726e-14)
(0.145106 2.72856e-10 1.14752e-14)
(0.145106 1.24165e-09 1.14927e-14)
(0.145106 2.77716e-09 1.14945e-14)
(0.145106 5.10694e-09 1.15652e-14)
(0.145106 8.54663e-09 1.1525e-14)
(0.145106 1.3512e-08 1.1579e-14)
(0.145106 2.05786e-08 1.15356e-14)
(0.145106 3.10636e-08 1.14928e-14)
(0.145106 4.4092e-08 1.14957e-14)
(0.145106 5.65535e-08 1.15116e-14)
(0.145106 6.69384e-08 1.16414e-14)
(0.145106 7.49479e-08 1.15634e-14)
(0.145106 8.06238e-08 1.15128e-14)
(0.145106 8.42605e-08 1.15694e-14)
(0.145106 8.62335e-08 1.15278e-14)
(0.145106 8.68841e-08 1.15073e-14)
(0.145106 8.6499e-08 1.1421e-14)
(0.145106 8.53094e-08 1.15972e-14)
(0.145106 8.34963e-08 1.16415e-14)
(0.145106 8.12009e-08 1.15934e-14)
(0.145106 7.85332e-08 1.15858e-14)
(0.145106 7.55794e-08 1.15029e-14)
(0.145106 7.24075e-08 1.16162e-14)
(0.145106 6.90716e-08 1.16514e-14)
(0.145106 6.56148e-08 1.16452e-14)
(0.145106 6.20717e-08 1.16396e-14)
(0.145106 5.84698e-08 1.15476e-14)
(0.145106 5.48306e-08 1.16775e-14)
(0.145106 5.11702e-08 1.17242e-14)
(0.145106 4.75002e-08 1.17383e-14)
(0.145106 4.38286e-08 1.17773e-14)
(0.145106 4.01599e-08 1.16117e-14)
(0.145106 3.64961e-08 1.18419e-14)
(0.145106 3.28374e-08 1.18098e-14)
(0.145106 2.91823e-08 1.18135e-14)
(0.145106 2.55283e-08 1.1841e-14)
(0.145106 2.18721e-08 1.16587e-14)
(0.145106 1.82099e-08 1.18272e-14)
(0.145106 1.45378e-08 1.19575e-14)
(0.145106 1.08518e-08 1.18581e-14)
(0.145106 7.14799e-09 1.18523e-14)
(0.145106 3.42277e-09 1.17075e-14)
(0.145106 -3.27015e-10 1.18521e-14)
(0.145106 -4.10389e-09 1.18372e-14)
(0.145106 -7.90958e-09 1.17992e-14)
(0.145106 -1.17448e-08 1.1857e-14)
(0.145106 -1.56092e-08 1.1817e-14)
(0.145106 -1.95006e-08 1.18777e-14)
(0.145106 -2.34153e-08 1.18397e-14)
(0.145106 -2.73475e-08 1.18008e-14)
(0.145106 -3.12885e-08 1.1849e-14)
(0.145106 -3.52269e-08 1.18103e-14)
(0.145106 -3.91475e-08 1.18873e-14)
(0.145106 -4.3031e-08 1.18427e-14)
(0.145106 -4.68532e-08 1.17942e-14)
(0.145106 -5.05838e-08 1.18817e-14)
(0.145106 -5.41847e-08 1.17847e-14)
(0.145106 -5.76089e-08 1.18614e-14)
(0.145106 -6.07935e-08 1.18254e-14)
(0.145106 -6.36582e-08 1.17857e-14)
(0.145106 -6.60884e-08 1.18293e-14)
(0.145106 -6.7926e-08 1.17854e-14)
(0.145106 -6.89501e-08 1.19099e-14)
(0.145106 -6.88265e-08 1.18254e-14)
(0.145106 -6.7106e-08 1.17787e-14)
(0.145106 -6.31699e-08 1.18944e-14)
(0.145106 -5.56395e-08 1.1802e-14)
(0.145106 -4.52973e-08 1.18601e-14)
(0.145106 -3.51596e-08 1.18057e-14)
(0.145106 -2.66465e-08 1.17628e-14)
(0.145106 -1.99724e-08 1.18657e-14)
(0.145106 -1.50178e-08 1.17779e-14)
(0.145106 -1.1414e-08 1.18912e-14)
(0.145106 -8.71343e-09 1.18879e-14)
(0.145106 -6.50309e-09 1.18027e-14)
(0.145106 -4.43478e-09 1.1856e-14)
(0.145106 -2.21749e-09 1.17388e-14)
(0.145106 3.28202e-10 1.18018e-14)
(0.145106 3.24348e-09 1.18989e-14)
(0.145106 5.52163e-09 1.17672e-14)
(0.145106 -1.20822e-10 1.18196e-14)
(0.145106 -3.37778e-08 1.16917e-14)
(0.145039 -7.60889e-08 1.16438e-14)
(0.145039 -7.96892e-08 1.16627e-14)
(0.145039 -7.12838e-08 1.16002e-14)
(0.145039 -6.13349e-08 1.15595e-14)
(0.145039 -5.18196e-08 1.14922e-14)
(0.145039 -4.3283e-08 1.15098e-14)
(0.145039 -3.58471e-08 1.14237e-14)
(0.145039 -2.94127e-08 1.13379e-14)
(0.145039 -2.38685e-08 1.13206e-14)
(0.145039 -1.91071e-08 1.12597e-14)
(0.145039 -1.50264e-08 1.11937e-14)
(0.145039 -1.15359e-08 1.11984e-14)
(0.145039 -8.55693e-09 1.11523e-14)
(0.145039 -6.02247e-09 1.11525e-14)
(0.145039 -3.87774e-09 1.11096e-14)
(0.145039 -2.07893e-09 1.11786e-14)
(0.145039 -5.92068e-10 1.12092e-14)
(0.145039 6.13191e-10 1.11704e-14)
(0.145039 1.56753e-09 1.11529e-14)
(0.145039 2.31205e-09 1.11166e-14)
(0.145039 2.8991e-09 1.11772e-14)
(0.145039 3.39444e-09 1.12369e-14)
(0.145039 3.86411e-09 1.12588e-14)
(0.145039 4.3563e-09 1.13287e-14)
(0.145039 4.8983e-09 1.13895e-14)
(0.145039 5.48843e-09 1.14269e-14)
(0.145039 6.1059e-09 1.14646e-14)
(0.145039 6.71929e-09 1.1441e-14)
(0.145039 7.29385e-09 1.14676e-14)
(0.145039 7.79776e-09 1.14909e-14)
(0.145039 8.20625e-09 1.15052e-14)
(0.145038 8.50441e-09 1.15107e-14)
(0.145038 8.68928e-09 1.14818e-14)
(0.145038 8.77169e-09 1.14865e-14)
(0.145038 8.77787e-09 1.1507e-14)
(0.145038 8.75137e-09 1.15323e-14)
(0.145038 8.75518e-09 1.15557e-14)
(0.145038 8.87412e-09 1.15327e-14)
(0.145038 9.21837e-09 1.15468e-14)
(0.145038 9.92613e-09 1.1579e-14)
(0.145038 1.11715e-08 1.15551e-14)
(0.145038 1.31657e-08 1.1568e-14)
(0.145038 1.61806e-08 1.15483e-14)
(0.145038 2.05575e-08 1.15781e-14)
(0.145038 2.66734e-08 1.15556e-14)
(0.145038 3.53352e-08 1.15363e-14)
(0.145038 4.59563e-08 1.15576e-14)
(0.145038 5.64006e-08 1.15479e-14)
(0.145038 6.54573e-08 1.16086e-14)
(0.145038 7.27206e-08 1.15841e-14)
(0.145038 7.80766e-08 1.1562e-14)
(0.145038 8.16559e-08 1.15842e-14)
(0.145038 8.3706e-08 1.1578e-14)
(0.145038 8.44879e-08 1.15759e-14)
(0.145038 8.42426e-08 1.15261e-14)
(0.145038 8.31771e-08 1.16085e-14)
(0.145038 8.14618e-08 1.16544e-14)
(0.145038 7.92345e-08 1.16625e-14)
(0.145038 7.66055e-08 1.16811e-14)
(0.145038 7.36629e-08 1.16192e-14)
(0.145038 7.04777e-08 1.16948e-14)
(0.145038 6.71068e-08 1.17261e-14)
(0.145038 6.35961e-08 1.17354e-14)
(0.145038 5.99825e-08 1.17375e-14)
(0.145038 5.62953e-08 1.1685e-14)
(0.145038 5.25575e-08 1.17558e-14)
(0.145038 4.87866e-08 1.1824e-14)
(0.145038 4.49955e-08 1.18205e-14)
(0.145038 4.1193e-08 1.18288e-14)
(0.145038 3.73849e-08 1.18091e-14)
(0.145038 3.35745e-08 1.18652e-14)
(0.145038 2.97629e-08 1.19137e-14)
(0.145038 2.59499e-08 1.19078e-14)
(0.145038 2.21343e-08 1.19022e-14)
(0.145038 1.83138e-08 1.18509e-14)
(0.145038 1.4486e-08 1.19177e-14)
(0.145038 1.06479e-08 1.19512e-14)
(0.145038 6.79669e-09 1.19634e-14)
(0.145038 2.92956e-09 1.19638e-14)
(0.145038 -9.55973e-10 1.19043e-14)
(0.145038 -4.8619e-09 1.19572e-14)
(0.145038 -8.78952e-09 1.1955e-14)
(0.145038 -1.27393e-08 1.19325e-14)
(0.145038 -1.67104e-08 1.19518e-14)
(0.145038 -2.0701e-08 1.19315e-14)
(0.145038 -2.47073e-08 1.19623e-14)
(0.145039 -2.87237e-08 1.19472e-14)
(0.145039 -3.27422e-08 1.19151e-14)
(0.145039 -3.67522e-08 1.19213e-14)
(0.145039 -4.074e-08 1.19107e-14)
(0.145039 -4.4688e-08 1.19413e-14)
(0.145039 -4.85748e-08 1.1929e-14)
(0.145039 -5.23744e-08 1.18949e-14)
(0.145039 -5.60557e-08 1.18918e-14)
(0.145039 -5.95808e-08 1.18768e-14)
(0.145039 -6.29058e-08 1.19119e-14)
(0.145039 -6.59722e-08 1.19071e-14)
(0.145039 -6.87106e-08 1.18738e-14)
(0.145039 -7.10179e-08 1.18812e-14)
(0.145039 -7.2756e-08 1.186e-14)
(0.145039 -7.37262e-08 1.19064e-14)
(0.145039 -7.3636e-08 1.18869e-14)
(0.145039 -7.21074e-08 1.18595e-14)
(0.145039 -6.87198e-08 1.18806e-14)
(0.145039 -6.25977e-08 1.18661e-14)
(0.145039 -5.42163e-08 1.18878e-14)
(0.145039 -4.5602e-08 1.18751e-14)
(0.145039 -3.7861e-08 1.18464e-14)
(0.145039 -3.13012e-08 1.18635e-14)