/*--------------------------------*- C++ -*----------------------------------*\
  =========                 |
  \\      /  F ield         | OpenFOAM: The Open Source CFD Toolbox
   \\    /   O peration     | Website:  https://openfoam.org
    \\  /    A nd           | Version:  7
     \\/     M anipulation  |
\*---------------------------------------------------------------------------*/
FoamFile
{
    version     2.0;
    format      ascii;
    class       volScalarField;
    location    "1000";
    object      k;
}
// * * * * * * * * * * * * * * * * * * * * * * * * * * * * * * * * * * * * * //

dimensions      [0 2 -2 0 0 0 0];

internalField   nonuniform List<scalar> 
4037
(
0.000112431
0.000112437
0.000112443
0.000112448
0.000112452
0.000112455
0.000112457
0.00011246
0.000112462
0.000112464
0.000112466
0.000112468
0.000112469
0.000112471
0.000112472
0.000112474
0.000112475
0.000112476
0.000112477
0.000112479
0.00011248
0.000112481
0.000112482
0.000112483
0.000112484
0.000112484
0.000112485
0.000112486
0.000112487
0.000112487
0.000112488
0.000112489
0.000112489
0.00011249
0.00011249
0.000112491
0.000112491
0.000112492
0.000112492
0.000112493
0.000112493
0.000112494
0.000112494
0.000112495
0.000112495
0.000112495
0.000112496
0.000112496
0.000112496
0.000112497
0.000112497
0.000112497
0.000112498
0.000112498
0.000112498
0.000112498
0.000112499
0.000112499
0.000112499
0.000112499
0.000112499
0.000112499
0.000112499
0.0001125
0.0001125
0.0001125
0.0001125
0.0001125
0.0001125
0.0001125
0.000112501
0.000112501
0.000112501
0.000112502
0.000112502
0.000112502
0.000112504
0.000116066
0.000116057
0.000116056
0.000116056
0.000116057
0.000116058
0.000116058
0.000116059
0.000116059
0.00011606
0.00011606
0.00011606
0.000116061
0.000116061
0.000116062
0.000116062
0.000116063
0.000116063
0.000116063
0.000116064
0.000116064
0.000116064
0.000116065
0.000116065
0.000116082
0.000116093
0.0001161
0.000116106
0.00011611
0.000116113
0.000116116
0.000116119
0.000116121
0.000116123
0.000116125
0.000116127
0.000116129
0.000116131
0.000116132
0.000116134
0.000116135
0.000116136
0.000116137
0.000116139
0.00011614
0.000116141
0.000116142
0.000116143
0.000116143
0.000116144
0.000116145
0.000116146
0.000116147
0.000116147
0.000116148
0.000116149
0.000116149
0.00011615
0.00011615
0.000116151
0.000116151
0.000116152
0.000116152
0.000116153
0.000116153
0.000116154
0.000116154
0.000116154
0.000116155
0.000116155
0.000116156
0.000116156
0.000116156
0.000116157
0.000116157
0.000116157
0.000116158
0.000116158
0.000116158
0.000116158
0.000116158
0.000116159
0.000116159
0.000116159
0.000116159
0.000116159
0.000116159
0.000116159
0.00011616
0.00011616
0.00011616
0.00011616
0.00011616
0.00011616
0.000116161
0.000116161
0.000116161
0.000116162
0.000116162
0.000116162
0.000116166
0.000116133
0.000116121
0.000116117
0.000116115
0.000116113
0.000116112
0.00011611
0.000116109
0.000116108
0.000116107
0.000116106
0.000116105
0.000116105
0.000116104
0.000116103
0.000116102
0.000116101
0.000116099
0.000116105
0.000119677
0.000119668
0.000119666
0.000119666
0.000119666
0.000119667
0.000119667
0.000119668
0.000119668
0.000119668
0.000119669
0.000119669
0.00011967
0.00011967
0.00011967
0.000119671
0.000119671
0.000119672
0.000119672
0.000119672
0.000119673
0.000119673
0.000119673
0.000119673
0.000119681
0.000119688
0.000119695
0.0001197
0.000119704
0.000119707
0.00011971
0.000119713
0.000119715
0.000119717
0.000119719
0.000119721
0.000119723
0.000119724
0.000119726
0.000119727
0.000119728
0.00011973
0.000119731
0.000119732
0.000119733
0.000119734
0.000119735
0.000119736
0.000119737
0.000119738
0.000119738
0.000119739
0.00011974
0.00011974
0.000119741
0.000119742
0.000119742
0.000119743
0.000119743
0.000119744
0.000119744
0.000119745
0.000119745
0.000119746
0.000119746
0.000119747
0.000119747
0.000119747
0.000119748
0.000119748
0.000119749
0.000119749
0.000119749
0.00011975
0.00011975
0.00011975
0.000119751
0.000119751
0.000119751
0.000119751
0.000119751
0.000119752
0.000119752
0.000119752
0.000119752
0.000119752
0.000119752
0.000119753
0.000119753
0.000119753
0.000119753
0.000119753
0.000119753
0.000119754
0.000119754
0.000119754
0.000119755
0.000119755
0.000119755
0.000119755
0.000119758
0.000119746
0.000119735
0.000119728
0.000119725
0.000119722
0.000119721
0.000119719
0.000119718
0.000119717
0.000119716
0.000119715
0.000119714
0.000119713
0.000119712
0.000119711
0.00011971
0.000119709
0.000119707
0.000119713
0.000123198
0.000123189
0.000123187
0.000123187
0.000123187
0.000123187
0.000123188
0.000123188
0.000123189
0.000123189
0.000123189
0.00012319
0.00012319
0.00012319
0.000123191
0.000123191
0.000123191
0.000123192
0.000123192
0.000123193
0.000123193
0.000123193
0.000123194
0.000123193
0.000123196
0.0001232
0.000123204
0.000123208
0.000123211
0.000123214
0.000123217
0.000123219
0.000123221
0.000123223
0.000123225
0.000123226
0.000123228
0.00012323
0.000123231
0.000123232
0.000123233
0.000123235
0.000123236
0.000123237
0.000123238
0.000123239
0.00012324
0.00012324
0.000123241
0.000123242
0.000123243
0.000123243
0.000123244
0.000123245
0.000123245
0.000123246
0.000123246
0.000123247
0.000123247
0.000123248
0.000123248
0.000123249
0.000123249
0.00012325
0.00012325
0.000123251
0.000123251
0.000123251
0.000123252
0.000123252
0.000123253
0.000123253
0.000123253
0.000123254
0.000123254
0.000123254
0.000123255
0.000123255
0.000123255
0.000123255
0.000123256
0.000123256
0.000123256
0.000123256
0.000123256
0.000123256
0.000123257
0.000123257
0.000123257
0.000123257
0.000123257
0.000123257
0.000123258
0.000123258
0.000123258
0.000123258
0.000123259
0.000123259
0.00012326
0.00012326
0.000123261
0.000123258
0.000123252
0.000123247
0.000123244
0.000123242
0.00012324
0.000123238
0.000123237
0.000123236
0.000123235
0.000123234
0.000123233
0.000123232
0.000123231
0.00012323
0.000123229
0.000123228
0.000123226
0.000123232
0.000126607
0.000126599
0.000126597
0.000126597
0.000126597
0.000126597
0.000126597
0.000126597
0.000126598
0.000126598
0.000126598
0.000126599
0.000126599
0.000126599
0.0001266
0.0001266
0.000126601
0.000126601
0.000126601
0.000126602
0.000126602
0.000126602
0.000126603
0.000126603
0.000126603
0.000126605
0.000126607
0.000126609
0.000126612
0.000126614
0.000126616
0.000126618
0.000126619
0.000126621
0.000126623
0.000126624
0.000126625
0.000126627
0.000126628
0.000126629
0.00012663
0.000126631
0.000126632
0.000126633
0.000126634
0.000126635
0.000126636
0.000126636
0.000126637
0.000126638
0.000126639
0.000126639
0.00012664
0.00012664
0.000126641
0.000126642
0.000126642
0.000126643
0.000126643
0.000126644
0.000126644
0.000126644
0.000126645
0.000126645
0.000126646
0.000126646
0.000126647
0.000126647
0.000126647
0.000126648
0.000126648
0.000126649
0.000126649
0.000126649
0.00012665
0.00012665
0.00012665
0.00012665
0.000126651
0.000126651
0.000126651
0.000126651
0.000126652
0.000126652
0.000126652
0.000126652
0.000126652
0.000126652
0.000126653
0.000126653
0.000126653
0.000126653
0.000126653
0.000126654
0.000126654
0.000126654
0.000126655
0.000126655
0.000126655
0.000126656
0.000126657
0.000126656
0.000126654
0.000126652
0.00012665
0.000126648
0.000126646
0.000126645
0.000126644
0.000126643
0.000126642
0.000126641
0.00012664
0.000126639
0.000126638
0.000126637
0.000126636
0.000126636
0.000126634
0.000126639
0.000129885
0.000129878
0.000129875
0.000129875
0.000129875
0.000129875
0.000129875
0.000129875
0.000129875
0.000129876
0.000129876
0.000129876
0.000129877
0.000129877
0.000129877
0.000129878
0.000129878
0.000129878
0.000129879
0.000129879
0.00012988
0.00012988
0.00012988
0.00012988
0.000129881
0.000129881
0.000129882
0.000129883
0.000129884
0.000129885
0.000129887
0.000129888
0.000129889
0.00012989
0.000129892
0.000129893
0.000129894
0.000129895
0.000129896
0.000129897
0.000129898
0.000129899
0.0001299
0.0001299
0.000129901
0.000129902
0.000129903
0.000129903
0.000129904
0.000129905
0.000129905
0.000129906
0.000129906
0.000129907
0.000129907
0.000129908
0.000129908
0.000129909
0.000129909
0.00012991
0.00012991
0.000129911
0.000129911
0.000129912
0.000129912
0.000129912
0.000129913
0.000129913
0.000129914
0.000129914
0.000129914
0.000129915
0.000129915
0.000129915
0.000129916
0.000129916
0.000129916
0.000129917
0.000129917
0.000129917
0.000129917
0.000129918
0.000129918
0.000129918
0.000129918
0.000129918
0.000129919
0.000129919
0.000129919
0.000129919
0.000129919
0.000129919
0.00012992
0.00012992
0.00012992
0.000129921
0.000129921
0.000129921
0.000129922
0.000129922
0.000129923
0.000129923
0.000129923
0.000129923
0.000129922
0.000129921
0.00012992
0.000129919
0.000129918
0.000129917
0.000129917
0.000129916
0.000129915
0.000129915
0.000129914
0.000129913
0.000129912
0.000129912
0.000129909
0.000129915
0.000133009
0.000133002
0.000133
0.000132999
0.000132999
0.000132999
0.000132999
0.000132999
0.000133
0.000133
0.000133
0.000133
0.000133001
0.000133001
0.000133002
0.000133002
0.000133002
0.000133003
0.000133003
0.000133003
0.000133004
0.000133004
0.000133004
0.000133005
0.000133005
0.000133005
0.000133005
0.000133005
0.000133005
0.000133006
0.000133006
0.000133007
0.000133008
0.000133009
0.00013301
0.00013301
0.000133011
0.000133012
0.000133013
0.000133014
0.000133014
0.000133015
0.000133016
0.000133016
0.000133017
0.000133018
0.000133018
0.000133019
0.000133019
0.00013302
0.000133021
0.000133021
0.000133022
0.000133022
0.000133023
0.000133023
0.000133023
0.000133024
0.000133024
0.000133025
0.000133025
0.000133025
0.000133026
0.000133026
0.000133027
0.000133027
0.000133028
0.000133028
0.000133028
0.000133029
0.000133029
0.00013303
0.00013303
0.00013303
0.000133031
0.000133031
0.000133031
0.000133031
0.000133032
0.000133032
0.000133032
0.000133032
0.000133033
0.000133033
0.000133033
0.000133033
0.000133033
0.000133034
0.000133034
0.000133034
0.000133034
0.000133034
0.000133035
0.000133035
0.000133035
0.000133036
0.000133036
0.000133036
0.000133037
0.000133037
0.000133038
0.000133038
0.000133039
0.000133039
0.000133039
0.000133039
0.000133039
0.000133039
0.000133039
0.000133038
0.000133038
0.000133037
0.000133037
0.000133036
0.000133035
0.000133035
0.000133034
0.000133033
0.000133032
0.000133037
0.000135956
0.00013595
0.000135948
0.000135947
0.000135947
0.000135946
0.000135946
0.000135947
0.000135947
0.000135947
0.000135947
0.000135948
0.000135948
0.000135948
0.000135949
0.000135949
0.00013595
0.00013595
0.00013595
0.000135951
0.000135951
0.000135951
0.000135951
0.000135952
0.000135952
0.000135952
0.000135951
0.000135951
0.000135951
0.000135951
0.000135951
0.000135951
0.000135952
0.000135952
0.000135953
0.000135953
0.000135954
0.000135954
0.000135955
0.000135955
0.000135956
0.000135956
0.000135957
0.000135957
0.000135958
0.000135958
0.000135959
0.000135959
0.00013596
0.00013596
0.000135961
0.000135961
0.000135961
0.000135962
0.000135962
0.000135963
0.000135963
0.000135964
0.000135964
0.000135964
0.000135965
0.000135965
0.000135965
0.000135966
0.000135966
0.000135967
0.000135967
0.000135967
0.000135968
0.000135968
0.000135969
0.000135969
0.000135969
0.00013597
0.00013597
0.00013597
0.000135971
0.000135971
0.000135971
0.000135972
0.000135972
0.000135972
0.000135972
0.000135973
0.000135973
0.000135973
0.000135973
0.000135973
0.000135974
0.000135974
0.000135974
0.000135974
0.000135975
0.000135975
0.000135975
0.000135975
0.000135976
0.000135976
0.000135976
0.000135977
0.000135977
0.000135978
0.000135979
0.000135979
0.00013598
0.000135981
0.000135981
0.000135981
0.000135981
0.000135981
0.000135981
0.000135981
0.000135981
0.00013598
0.00013598
0.000135979
0.000135979
0.000135978
0.000135977
0.000135981
0.0001387
0.000138694
0.000138692
0.000138691
0.000138691
0.000138691
0.000138691
0.000138691
0.000138691
0.000138691
0.000138692
0.000138692
0.000138692
0.000138693
0.000138693
0.000138694
0.000138694
0.000138694
0.000138695
0.000138695
0.000138695
0.000138696
0.000138696
0.000138696
0.000138696
0.000138696
0.000138696
0.000138696
0.000138695
0.000138695
0.000138694
0.000138694
0.000138694
0.000138694
0.000138694
0.000138694
0.000138695
0.000138695
0.000138695
0.000138696
0.000138696
0.000138696
0.000138697
0.000138697
0.000138697
0.000138698
0.000138698
0.000138698
0.000138699
0.000138699
0.000138699
0.0001387
0.0001387
0.000138701
0.000138701
0.000138701
0.000138702
0.000138702
0.000138702
0.000138703
0.000138703
0.000138703
0.000138704
0.000138704
0.000138705
0.000138705
0.000138705
0.000138706
0.000138706
0.000138707
0.000138707
0.000138707
0.000138708
0.000138708
0.000138708
0.000138709
0.000138709
0.000138709
0.00013871
0.00013871
0.00013871
0.000138711
0.000138711
0.000138711
0.000138711
0.000138711
0.000138712
0.000138712
0.000138712
0.000138712
0.000138713
0.000138713
0.000138713
0.000138713
0.000138714
0.000138714
0.000138714
0.000138715
0.000138715
0.000138715
0.000138716
0.000138716
0.000138717
0.000138718
0.000138719
0.00013872
0.00013872
0.000138721
0.000138722
0.000138722
0.000138722
0.000138722
0.000138722
0.000138722
0.000138721
0.000138721
0.00013872
0.00013872
0.000138719
0.000138723
0.000141213
0.000141207
0.000141206
0.000141205
0.000141204
0.000141204
0.000141204
0.000141204
0.000141205
0.000141205
0.000141205
0.000141206
0.000141206
0.000141206
0.000141207
0.000141207
0.000141208
0.000141208
0.000141208
0.000141209
0.000141209
0.000141209
0.000141209
0.00014121
0.00014121
0.00014121
0.00014121
0.000141209
0.000141208
0.000141208
0.000141207
0.000141207
0.000141206
0.000141206
0.000141206
0.000141206
0.000141206
0.000141206
0.000141206
0.000141206
0.000141206
0.000141206
0.000141207
0.000141207
0.000141207
0.000141207
0.000141207
0.000141208
0.000141208
0.000141208
0.000141208
0.000141209
0.000141209
0.000141209
0.00014121
0.00014121
0.00014121
0.000141211
0.000141211
0.000141211
0.000141212
0.000141212
0.000141212
0.000141213
0.000141213
0.000141214
0.000141214
0.000141214
0.000141215
0.000141215
0.000141216
0.000141216
0.000141216
0.000141217
0.000141217
0.000141217
0.000141218
0.000141218
0.000141218
0.000141219
0.000141219
0.000141219
0.000141219
0.00014122
0.00014122
0.00014122
0.00014122
0.000141221
0.000141221
0.000141221
0.000141221
0.000141222
0.000141222
0.000141222
0.000141222
0.000141223
0.000141223
0.000141223
0.000141224
0.000141224
0.000141224
0.000141225
0.000141225
0.000141226
0.000141227
0.000141228
0.000141229
0.00014123
0.000141231
0.000141231
0.000141231
0.000141232
0.000141232
0.000141232
0.000141232
0.000141231
0.000141231
0.000141231
0.00014123
0.000141234
0.000143463
0.000143458
0.000143456
0.000143455
0.000143455
0.000143455
0.000143455
0.000143455
0.000143455
0.000143455
0.000143456
0.000143456
0.000143456
0.000143457
0.000143457
0.000143458
0.000143458
0.000143459
0.000143459
0.000143459
0.000143459
0.00014346
0.00014346
0.00014346
0.00014346
0.00014346
0.00014346
0.00014346
0.000143459
0.000143458
0.000143458
0.000143457
0.000143457
0.000143456
0.000143456
0.000143455
0.000143455
0.000143455
0.000143455
0.000143455
0.000143455
0.000143455
0.000143455
0.000143455
0.000143455
0.000143455
0.000143455
0.000143455
0.000143455
0.000143455
0.000143456
0.000143456
0.000143456
0.000143456
0.000143456
0.000143457
0.000143457
0.000143457
0.000143458
0.000143458
0.000143458
0.000143459
0.000143459
0.000143459
0.00014346
0.00014346
0.000143461
0.000143461
0.000143461
0.000143462
0.000143462
0.000143463
0.000143463
0.000143463
0.000143464
0.000143464
0.000143464
0.000143465
0.000143465
0.000143465
0.000143466
0.000143466
0.000143466
0.000143466
0.000143467
0.000143467
0.000143467
0.000143467
0.000143468
0.000143468
0.000143468
0.000143469
0.000143469
0.000143469
0.000143469
0.00014347
0.00014347
0.00014347
0.00014347
0.000143471
0.000143471
0.000143471
0.000143472
0.000143472
0.000143473
0.000143474
0.000143475
0.000143476
0.000143477
0.000143477
0.000143478
0.000143478
0.000143479
0.000143479
0.000143479
0.000143479
0.000143478
0.000143478
0.000143477
0.000143482
0.000145413
0.000145409
0.000145407
0.000145406
0.000145406
0.000145406
0.000145406
0.000145406
0.000145406
0.000145407
0.000145407
0.000145407
0.000145408
0.000145408
0.000145409
0.000145409
0.00014541
0.00014541
0.00014541
0.000145411
0.000145411
0.000145411
0.000145411
0.000145412
0.000145412
0.000145412
0.000145412
0.000145411
0.000145411
0.00014541
0.000145409
0.000145409
0.000145408
0.000145407
0.000145407
0.000145406
0.000145406
0.000145405
0.000145405
0.000145405
0.000145405
0.000145404
0.000145404
0.000145404
0.000145404
0.000145404
0.000145404
0.000145404
0.000145404
0.000145404
0.000145404
0.000145405
0.000145405
0.000145405
0.000145405
0.000145405
0.000145406
0.000145406
0.000145406
0.000145406
0.000145407
0.000145407
0.000145407
0.000145408
0.000145408
0.000145409
0.000145409
0.000145409
0.00014541
0.00014541
0.000145411
0.000145411
0.000145411
0.000145412
0.000145412
0.000145412
0.000145413
0.000145413
0.000145414
0.000145414
0.000145414
0.000145414
0.000145415
0.000145415
0.000145415
0.000145416
0.000145416
0.000145416
0.000145416
0.000145417
0.000145417
0.000145417
0.000145417
0.000145418
0.000145418
0.000145418
0.000145418
0.000145419
0.000145419
0.000145419
0.000145419
0.00014542
0.00014542
0.00014542
0.000145421
0.000145422
0.000145422
0.000145423
0.000145424
0.000145425
0.000145426
0.000145426
0.000145427
0.000145427
0.000145427
0.000145427
0.000145427
0.000145427
0.000145426
0.00014543
0.000147023
0.000147019
0.000147017
0.000147017
0.000147016
0.000147016
0.000147016
0.000147016
0.000147017
0.000147017
0.000147018
0.000147018
0.000147019
0.000147019
0.00014702
0.00014702
0.00014702
0.000147021
0.000147021
0.000147021
0.000147021
0.000147022
0.000147022
0.000147022
0.000147022
0.000147022
0.000147022
0.000147022
0.000147022
0.000147021
0.00014702
0.00014702
0.000147019
0.000147018
0.000147017
0.000147017
0.000147016
0.000147016
0.000147015
0.000147015
0.000147014
0.000147014
0.000147014
0.000147014
0.000147013
0.000147013
0.000147013
0.000147013
0.000147013
0.000147013
0.000147013
0.000147013
0.000147013
0.000147014
0.000147014
0.000147014
0.000147014
0.000147014
0.000147015
0.000147015
0.000147015
0.000147015
0.000147016
0.000147016
0.000147017
0.000147017
0.000147017
0.000147018
0.000147018
0.000147019
0.000147019
0.000147019
0.00014702
0.00014702
0.000147021
0.000147021
0.000147021
0.000147022
0.000147022
0.000147022
0.000147023
0.000147023
0.000147023
0.000147024
0.000147024
0.000147024
0.000147025
0.000147025
0.000147025
0.000147025
0.000147026
0.000147026
0.000147026
0.000147026
0.000147027
0.000147027
0.000147027
0.000147027
0.000147027
0.000147028
0.000147028
0.000147028
0.000147028
0.000147028
0.000147028
0.000147029
0.00014703
0.000147031
0.000147031
0.000147032
0.000147033
0.000147033
0.000147034
0.000147034
0.000147034
0.000147035
0.000147035
0.000147035
0.000147034
0.000147038
0.000148244
0.00014824
0.000148238
0.000148237
0.000148237
0.000148237
0.000148237
0.000148237
0.000148238
0.000148238
0.000148239
0.000148239
0.00014824
0.00014824
0.000148241
0.000148241
0.000148242
0.000148242
0.000148242
0.000148242
0.000148243
0.000148243
0.000148243
0.000148243
0.000148243
0.000148243
0.000148244
0.000148243
0.000148243
0.000148243
0.000148242
0.000148241
0.000148241
0.00014824
0.000148239
0.000148238
0.000148237
0.000148237
0.000148236
0.000148236
0.000148235
0.000148235
0.000148234
0.000148234
0.000148234
0.000148234
0.000148233
0.000148233
0.000148233
0.000148233
0.000148233
0.000148233
0.000148233
0.000148233
0.000148233
0.000148234
0.000148234
0.000148234
0.000148234
0.000148235
0.000148235
0.000148235
0.000148235
0.000148236
0.000148236
0.000148237
0.000148237
0.000148237
0.000148238
0.000148238
0.000148239
0.000148239
0.000148239
0.00014824
0.00014824
0.000148241
0.000148241
0.000148241
0.000148242
0.000148242
0.000148243
0.000148243
0.000148243
0.000148244
0.000148244
0.000148244
0.000148244
0.000148245
0.000148245
0.000148245
0.000148246
0.000148246
0.000148246
0.000148246
0.000148246
0.000148247
0.000148247
0.000148247
0.000148247
0.000148247
0.000148247
0.000148247
0.000148247
0.000148247
0.000148247
0.000148248
0.000148248
0.000148249
0.00014825
0.00014825
0.000148251
0.000148251
0.000148252
0.000148252
0.000148253
0.000148253
0.000148253
0.000148253
0.000148253
0.000148256
0.000149017
0.000149013
0.000149012
0.000149011
0.000149011
0.000149011
0.000149011
0.000149012
0.000149012
0.000149013
0.000149013
0.000149014
0.000149014
0.000149015
0.000149015
0.000149015
0.000149016
0.000149016
0.000149016
0.000149016
0.000149017
0.000149017
0.000149017
0.000149017
0.000149017
0.000149017
0.000149018
0.000149018
0.000149017
0.000149017
0.000149017
0.000149016
0.000149015
0.000149014
0.000149014
0.000149013
0.000149012
0.000149011
0.000149011
0.00014901
0.000149009
0.000149009
0.000149008
0.000149008
0.000149008
0.000149007
0.000149007
0.000149007
0.000149007
0.000149007
0.000149006
0.000149006
0.000149006
0.000149007
0.000149007
0.000149007
0.000149007
0.000149007
0.000149007
0.000149008
0.000149008
0.000149008
0.000149009
0.000149009
0.000149009
0.00014901
0.00014901
0.00014901
0.000149011
0.000149011
0.000149012
0.000149012
0.000149012
0.000149013
0.000149013
0.000149014
0.000149014
0.000149015
0.000149015
0.000149015
0.000149016
0.000149016
0.000149016
0.000149017
0.000149017
0.000149018
0.000149018
0.000149018
0.000149018
0.000149019
0.000149019
0.000149019
0.000149019
0.00014902
0.00014902
0.00014902
0.00014902
0.00014902
0.00014902
0.00014902
0.00014902
0.00014902
0.00014902
0.00014902
0.00014902
0.00014902
0.00014902
0.00014902
0.000149021
0.000149022
0.000149022
0.000149023
0.000149023
0.000149024
0.000149024
0.000149024
0.000149024
0.000149025
0.000149024
0.000149028
0.000149274
0.000149271
0.000149269
0.000149268
0.000149268
0.000149268
0.000149269
0.000149269
0.00014927
0.00014927
0.000149271
0.000149271
0.000149272
0.000149272
0.000149273
0.000149273
0.000149273
0.000149273
0.000149274
0.000149274
0.000149274
0.000149274
0.000149275
0.000149275
0.000149275
0.000149275
0.000149275
0.000149275
0.000149275
0.000149275
0.000149274
0.000149274
0.000149273
0.000149272
0.000149272
0.000149271
0.00014927
0.000149269
0.000149269
0.000149268
0.000149267
0.000149267
0.000149266
0.000149266
0.000149265
0.000149265
0.000149264
0.000149264
0.000149264
0.000149264
0.000149264
0.000149264
0.000149264
0.000149264
0.000149264
0.000149264
0.000149264
0.000149264
0.000149264
0.000149265
0.000149265
0.000149265
0.000149265
0.000149266
0.000149266
0.000149267
0.000149267
0.000149267
0.000149268
0.000149268
0.000149269
0.000149269
0.000149269
0.00014927
0.00014927
0.000149271
0.000149271
0.000149272
0.000149272
0.000149272
0.000149273
0.000149273
0.000149274
0.000149274
0.000149274
0.000149275
0.000149275
0.000149275
0.000149276
0.000149276
0.000149276
0.000149276
0.000149277
0.000149277
0.000149277
0.000149277
0.000149277
0.000149277
0.000149277
0.000149277
0.000149277
0.000149276
0.000149276
0.000149276
0.000149276
0.000149276
0.000149276
0.000149276
0.000149276
0.000149277
0.000149277
0.000149278
0.000149278
0.000149278
0.000149279
0.000149279
0.000149279
0.00014928
0.00014928
0.000149283
0.00014893
0.000148927
0.000148925
0.000148924
0.000148924
0.000148924
0.000148925
0.000148926
0.000148927
0.000148927
0.000148928
0.000148928
0.000148928
0.000148929
0.000148929
0.000148929
0.00014893
0.00014893
0.00014893
0.00014893
0.000148931
0.000148931
0.000148931
0.000148931
0.000148931
0.000148931
0.000148932
0.000148932
0.000148932
0.000148931
0.000148931
0.000148931
0.00014893
0.000148929
0.000148929
0.000148928
0.000148927
0.000148926
0.000148926
0.000148925
0.000148924
0.000148924
0.000148923
0.000148922
0.000148922
0.000148921
0.000148921
0.000148921
0.00014892
0.00014892
0.00014892
0.00014892
0.00014892
0.00014892
0.00014892
0.00014892
0.00014892
0.00014892
0.000148921
0.000148921
0.000148921
0.000148921
0.000148922
0.000148922
0.000148922
0.000148923
0.000148923
0.000148924
0.000148924
0.000148924
0.000148925
0.000148925
0.000148926
0.000148926
0.000148927
0.000148927
0.000148927
0.000148928
0.000148928
0.000148929
0.000148929
0.00014893
0.00014893
0.00014893
0.000148931
0.000148931
0.000148932
0.000148932
0.000148932
0.000148932
0.000148933
0.000148933
0.000148933
0.000148933
0.000148933
0.000148933
0.000148933
0.000148933
0.000148933
0.000148933
0.000148932
0.000148932
0.000148932
0.000148931
0.000148931
0.000148931
0.000148931
0.000148931
0.000148931
0.000148931
0.000148931
0.000148932
0.000148932
0.000148932
0.000148933
0.000148933
0.000148933
0.000148934
0.000148934
0.000148937
0.00014788
0.000147877
0.000147876
0.000147875
0.000147875
0.000147875
0.000147876
0.000147877
0.000147878
0.000147878
0.000147879
0.000147879
0.00014788
0.00014788
0.00014788
0.00014788
0.000147881
0.000147881
0.000147881
0.000147881
0.000147881
0.000147882
0.000147882
0.000147882
0.000147882
0.000147882
0.000147882
0.000147882
0.000147883
0.000147882
0.000147882
0.000147882
0.000147881
0.000147881
0.00014788
0.000147879
0.000147879
0.000147878
0.000147877
0.000147876
0.000147876
0.000147875
0.000147874
0.000147874
0.000147873
0.000147873
0.000147872
0.000147872
0.000147872
0.000147871
0.000147871
0.000147871
0.000147871
0.000147871
0.000147871
0.000147871
0.000147871
0.000147871
0.000147872
0.000147872
0.000147872
0.000147872
0.000147873
0.000147873
0.000147873
0.000147874
0.000147874
0.000147874
0.000147875
0.000147875
0.000147876
0.000147876
0.000147877
0.000147877
0.000147878
0.000147878
0.000147878
0.000147879
0.000147879
0.00014788
0.00014788
0.000147881
0.000147881
0.000147881
0.000147882
0.000147882
0.000147883
0.000147883
0.000147883
0.000147883
0.000147884
0.000147884
0.000147884
0.000147884
0.000147884
0.000147884
0.000147884
0.000147884
0.000147883
0.000147883
0.000147883
0.000147883
0.000147882
0.000147882
0.000147881
0.000147881
0.00014788
0.00014788
0.00014788
0.00014788
0.00014788
0.000147881
0.000147881
0.000147881
0.000147881
0.000147882
0.000147882
0.000147883
0.000147883
0.000147885
0.000145994
0.000145991
0.00014599
0.000145989
0.00014599
0.00014599
0.000145991
0.000145992
0.000145993
0.000145993
0.000145994
0.000145994
0.000145994
0.000145995
0.000145995
0.000145995
0.000145995
0.000145995
0.000145996
0.000145996
0.000145996
0.000145996
0.000145996
0.000145996
0.000145997
0.000145997
0.000145997
0.000145997
0.000145997
0.000145997
0.000145997
0.000145997
0.000145997
0.000145996
0.000145995
0.000145995
0.000145994
0.000145993
0.000145993
0.000145992
0.000145991
0.00014599
0.00014599
0.000145989
0.000145988
0.000145988
0.000145987
0.000145987
0.000145987
0.000145987
0.000145986
0.000145986
0.000145986
0.000145986
0.000145986
0.000145986
0.000145986
0.000145986
0.000145987
0.000145987
0.000145987
0.000145987
0.000145988
0.000145988
0.000145988
0.000145989
0.000145989
0.000145989
0.00014599
0.00014599
0.000145991
0.000145991
0.000145992
0.000145992
0.000145992
0.000145993
0.000145993
0.000145994
0.000145994
0.000145995
0.000145995
0.000145996
0.000145996
0.000145997
0.000145997
0.000145997
0.000145998
0.000145998
0.000145998
0.000145999
0.000145999
0.000145999
0.000145999
0.000145999
0.000145999
0.000145999
0.000145999
0.000145998
0.000145998
0.000145998
0.000145997
0.000145997
0.000145996
0.000145996
0.000145995
0.000145995
0.000145994
0.000145994
0.000145993
0.000145993
0.000145993
0.000145994
0.000145994
0.000145994
0.000145994
0.000145995
0.000145995
0.000145995
0.000145996
0.000145998
0.000143107
0.000143105
0.000143104
0.000143103
0.000143104
0.000143104
0.000143105
0.000143106
0.000143107
0.000143107
0.000143108
0.000143108
0.000143108
0.000143108
0.000143109
0.000143109
0.000143109
0.000143109
0.000143109
0.000143109
0.00014311
0.00014311
0.00014311
0.00014311
0.00014311
0.000143111
0.000143111
0.000143111
0.000143111
0.000143111
0.000143111
0.000143111
0.000143111
0.00014311
0.00014311
0.000143109
0.000143109
0.000143108
0.000143107
0.000143106
0.000143106
0.000143105
0.000143104
0.000143104
0.000143103
0.000143102
0.000143102
0.000143102
0.000143101
0.000143101
0.000143101
0.000143101
0.0001431
0.0001431
0.0001431
0.0001431
0.000143101
0.000143101
0.000143101
0.000143101
0.000143101
0.000143102
0.000143102
0.000143102
0.000143103
0.000143103
0.000143103
0.000143104
0.000143104
0.000143104
0.000143105
0.000143105
0.000143106
0.000143106
0.000143107
0.000143107
0.000143108
0.000143108
0.000143109
0.000143109
0.00014311
0.00014311
0.00014311
0.000143111
0.000143111
0.000143112
0.000143112
0.000143112
0.000143113
0.000143113
0.000143113
0.000143113
0.000143113
0.000143113
0.000143113
0.000143113
0.000143113
0.000143112
0.000143112
0.000143112
0.000143111
0.000143111
0.00014311
0.000143109
0.000143109
0.000143108
0.000143107
0.000143107
0.000143106
0.000143106
0.000143106
0.000143106
0.000143106
0.000143106
0.000143106
0.000143107
0.000143107
0.000143107
0.000143108
0.00014311
0.000139011
0.000139009
0.000139008
0.000139008
0.000139008
0.000139009
0.00013901
0.000139011
0.000139012
0.000139012
0.000139012
0.000139012
0.000139013
0.000139013
0.000139013
0.000139013
0.000139013
0.000139013
0.000139014
0.000139014
0.000139014
0.000139014
0.000139014
0.000139015
0.000139015
0.000139015
0.000139015
0.000139015
0.000139016
0.000139016
0.000139016
0.000139016
0.000139015
0.000139015
0.000139015
0.000139014
0.000139013
0.000139013
0.000139012
0.000139011
0.000139011
0.00013901
0.000139009
0.000139009
0.000139008
0.000139008
0.000139007
0.000139007
0.000139006
0.000139006
0.000139006
0.000139006
0.000139005
0.000139005
0.000139005
0.000139005
0.000139005
0.000139006
0.000139006
0.000139006
0.000139006
0.000139006
0.000139007
0.000139007
0.000139007
0.000139008
0.000139008
0.000139008
0.000139009
0.000139009
0.00013901
0.00013901
0.000139011
0.000139011
0.000139011
0.000139012
0.000139012
0.000139013
0.000139013
0.000139014
0.000139014
0.000139015
0.000139015
0.000139016
0.000139016
0.000139017
0.000139017
0.000139017
0.000139017
0.000139018
0.000139018
0.000139018
0.000139018
0.000139018
0.000139018
0.000139017
0.000139017
0.000139017
0.000139016
0.000139016
0.000139015
0.000139015
0.000139014
0.000139013
0.000139012
0.000139012
0.000139011
0.00013901