/*--------------------------------*- C++ -*----------------------------------*\
  =========                 |
  \\      /  F ield         | OpenFOAM: The Open Source CFD Toolbox
   \\    /   O peration     | Website:  https://openfoam.org
    \\  /    A nd           | Version:  7
     \\/     M anipulation  |
\*---------------------------------------------------------------------------*/
FoamFile
{
    version     2.0;
    format      ascii;
    class       volScalarField;
    location    "50000";
    object      k;
}
// * * * * * * * * * * * * * * * * * * * * * * * * * * * * * * * * * * * * * //

dimensions      [0 2 -2 0 0 0 0];

internalField   nonuniform List<scalar> 
100
(
6.26405e-08
1.90622e-06
1.38619e-05
4.43911e-05
8.11079e-05
0.000109535
0.000128737
0.00014148
0.00015002
0.000155792
0.000159677
0.000162229
0.000163801
0.000164628
0.000164869
0.000164636
0.000164009
0.000163044
0.000161784
0.000160259
0.000158494
0.000156504
0.000154303
0.000151901
0.000149303
0.000146516
0.000143541
0.000140383
0.000137041
0.000133518
0.000129813
0.000125928
0.000121865
0.000117624
0.00011321
0.000108629
0.000103887
9.89974e-05
9.39747e-05
8.88415e-05
8.36277e-05
7.83738e-05
7.31343e-05
6.79814e-05
6.30106e-05
5.8347e-05
5.41514e-05
5.06254e-05
4.801e-05
4.65722e-05
4.65749e-05
4.8009e-05
5.06141e-05
5.41256e-05
5.83045e-05
6.29509e-05
6.79047e-05
7.30418e-05
7.82669e-05
8.35079e-05
8.87107e-05
9.38347e-05
9.88498e-05
0.000103734
0.000108471
0.00011305
0.000117462
0.000121702
0.000125767
0.000129654
0.000133363
0.00013689
0.000140237
0.000143402
0.000146384
0.00014918
0.000151787
0.0001542
0.000156412
0.000158414
0.000160194
0.000161733
0.00016301
0.000163994
0.000164643
0.000164899
0.000164686
0.000163892
0.00016236
0.000159857
0.000156032
0.000150339
0.000141902
0.000129297
0.000110266
8.19962e-05
4.52284e-05
1.43961e-05
2.655e-06
4.79733e-06
)
;

boundaryField
{
    bottomWall
    {
        type            kqRWallFunction;
        value           uniform 6.26405e-08;
    }
    topWall
    {
        type            fixedValue;
        value           uniform 7.48078e-05;
    }
    sides1_half0
    {
        type            empty;
    }
    sides1_half1
    {
        type            empty;
    }
    sides2_half0
    {
        type            empty;
    }
    sides2_half1
    {
        type            empty;
    }
    inout1_half0
    {
        type            cyclic;
    }
    inout1_half1
    {
        type            cyclic;
    }
    inout2_half0
    {
        type            cyclic;
    }
    inout2_half1
    {
        type            cyclic;
    }
}


// ************************************************************************* //
