/*--------------------------------*- C++ -*----------------------------------*\
  =========                 |
  \\      /  F ield         | OpenFOAM: The Open Source CFD Toolbox
   \\    /   O peration     | Website:  https://openfoam.org
    \\  /    A nd           | Version:  7
     \\/     M anipulation  |
\*---------------------------------------------------------------------------*/
FoamFile
{
    version     2.0;
    format      ascii;
    class       volScalarField;
    location    "50000";
    object      omega;
}
// * * * * * * * * * * * * * * * * * * * * * * * * * * * * * * * * * * * * * //

dimensions      [0 0 -1 0 0 0 0];

internalField   nonuniform List<scalar> 
100
(
251.932
43.7465
15.8457
8.68479
5.73737
4.12301
3.1249
2.46335
2.00119
1.66431
1.4101
1.21273
1.05581
0.928533
0.823555
0.735706
0.66127
0.597509
0.542368
0.494279
0.452022
0.414639
0.381365
0.351585
0.324796
0.300585
0.27861
0.258584
0.240266
0.223452
0.207966
0.19366
0.180404
0.168086
0.156612
0.145897
0.135871
0.126473
0.117652
0.109368
0.101592
0.0943058
0.0875058
0.0812054
0.0754389
0.0702676
0.0657867
0.0621306
0.0594763
0.0580359
0.0580375
0.0594723
0.0621139
0.0657523
0.0702121
0.0753595
0.0811
0.0873727
0.0941428
0.101397
0.109139
0.117386
0.126167
0.135522
0.145501
0.156164
0.167582
0.179836
0.193023
0.207253
0.222653
0.239372
0.257583
0.277489
0.29933
0.323389
0.350006
0.37959
0.412639
0.449764
0.491722
0.539464
0.594196
0.657473
0.731331
0.818481
0.922603
1.04881
1.20439
1.40003
1.65195
1.98573
2.44357
3.09888
4.08762
5.68697
8.6043
15.6725
43.1862
248.527
)
;

boundaryField
{
    bottomWall
    {
        beta1           0.075;
        blended         0;
        type            omegaWallFunction;
        value           uniform 251.932;
    }
    topWall
    {
        beta1           0.075;
        blended         0;
        type            omegaWallFunction;
        value           uniform 248.527;
    }
    sides1_half0
    {
        type            empty;
    }
    sides1_half1
    {
        type            empty;
    }
    sides2_half0
    {
        type            empty;
    }
    sides2_half1
    {
        type            empty;
    }
    inout1_half0
    {
        type            cyclic;
    }
    inout1_half1
    {
        type            cyclic;
    }
    inout2_half0
    {
        type            cyclic;
    }
    inout2_half1
    {
        type            cyclic;
    }
}


// ************************************************************************* //
