/*--------------------------------*- C++ -*----------------------------------*\
  =========                 |
  \\      /  F ield         | OpenFOAM: The Open Source CFD Toolbox
   \\    /   O peration     | Website:  https://openfoam.org
    \\  /    A nd           | Version:  7
     \\/     M anipulation  |
\*---------------------------------------------------------------------------*/
FoamFile
{
    version     2.0;
    format      ascii;
    class       volVectorField;
    location    "50000";
    object      U;
}
// * * * * * * * * * * * * * * * * * * * * * * * * * * * * * * * * * * * * * //

dimensions      [0 1 -1 0 0 0 0];

internalField   nonuniform List<vector> 
100
(
(0.00779469 -1.08242e-14 0)
(0.0236633 -9.6254e-14 0)
(0.0398641 -7.5397e-14 0)
(0.0549171 -2.81812e-14 0)
(0.0671104 -1.50611e-14 0)
(0.0764366 -5.46447e-15 0)
(0.0837073 -3.52876e-16 0)
(0.0895886 1.35286e-15 0)
(0.0945084 1.33643e-14 0)
(0.0987373 1.52325e-14 0)
(0.102452 2.18696e-14 0)
(0.105771 1.87781e-14 0)
(0.10878 2.38405e-14 0)
(0.111538 2.57325e-14 0)
(0.114091 2.61276e-14 0)
(0.116472 2.00673e-14 0)
(0.11871 1.8182e-14 0)
(0.120824 2.13933e-14 0)
(0.122831 1.97005e-14 0)
(0.124746 1.57297e-14 0)
(0.126579 2.06956e-14 0)
(0.12834 1.49054e-14 0)
(0.130036 1.27764e-14 0)
(0.131674 1.22127e-14 0)
(0.133259 1.65985e-14 0)
(0.134796 1.29477e-14 0)
(0.136289 1.51783e-14 0)
(0.13774 1.39264e-14 0)
(0.139154 1.44369e-14 0)
(0.140531 1.87118e-14 0)
(0.141873 1.92908e-14 0)
(0.143183 1.75388e-14 0)
(0.14446 2.01985e-14 0)
(0.145705 2.09847e-14 0)
(0.146918 1.72703e-14 0)
(0.1481 1.87313e-14 0)
(0.149248 1.92911e-14 0)
(0.150363 2.19114e-14 0)
(0.151441 2.2411e-14 0)
(0.152481 2.41139e-14 0)
(0.153478 2.59469e-14 0)
(0.15443 2.74269e-14 0)
(0.155329 2.89066e-14 0)
(0.15617 2.5055e-14 0)
(0.156943 2.30357e-14 0)
(0.157636 2.41256e-14 0)
(0.158235 2.4977e-14 0)
(0.158721 2.07573e-14 0)
(0.159072 2.2735e-14 0)
(0.159261 2.17919e-14 0)
(0.159261 2.21883e-14 0)
(0.159072 2.23227e-14 0)
(0.158723 2.40217e-14 0)
(0.158239 2.21939e-14 0)
(0.157642 2.12683e-14 0)
(0.156952 1.94489e-14 0)
(0.156183 1.50631e-14 0)
(0.155346 1.37036e-14 0)
(0.15445 1.37744e-14 0)
(0.153502 1.07934e-14 0)
(0.152508 1.04581e-14 0)
(0.151472 8.76304e-15 0)
(0.150397 1.09797e-14 0)
(0.149287 1.1945e-14 0)
(0.148142 1.2745e-14 0)
(0.146964 1.08076e-14 0)
(0.145754 1.35023e-14 0)
(0.144513 1.40367e-14 0)
(0.14324 1.15963e-14 0)
(0.141934 1.09599e-14 0)
(0.140595 7.71802e-15 0)
(0.139222 5.64338e-15 0)
(0.137812 7.2332e-15 0)
(0.136364 8.24477e-15 0)
(0.134875 9.66564e-15 0)
(0.133341 9.90934e-15 0)
(0.13176 1.11055e-14 0)
(0.130126 6.69232e-15 0)
(0.128434 3.22767e-15 0)
(0.126677 5.24545e-15 0)
(0.124848 5.9824e-15 0)
(0.122938 7.37257e-15 0)
(0.120934 1.0402e-14 0)
(0.118825 1.35449e-14 0)
(0.116593 3.795e-15 0)
(0.114216 4.63632e-15 0)
(0.111669 4.13538e-16 0)
(0.108918 -1.72381e-15 0)
(0.105917 1.01866e-14 0)
(0.102605 7.99391e-15 0)
(0.0989003 3.43515e-15 0)
(0.0946828 -1.91153e-15 0)
(0.089777 -1.02251e-14 0)
(0.0839133 -3.68717e-15 0)
(0.0766647 -9.78476e-15 0)
(0.0673632 -1.93406e-14 0)
(0.0551827 -7.64173e-15 0)
(0.0400953 -1.26445e-14 0)
(0.0238117 -3.19462e-14 0)
(0.00784917 1.51567e-15 0)
)
;

boundaryField
{
    bottomWall
    {
        type            noSlip;
    }
    topWall
    {
        type            noSlip;
    }
    sides1_half0
    {
        type            empty;
    }
    sides1_half1
    {
        type            empty;
    }
    sides2_half0
    {
        type            empty;
    }
    sides2_half1
    {
        type            empty;
    }
    inout1_half0
    {
        type            cyclic;
    }
    inout1_half1
    {
        type            cyclic;
    }
    inout2_half0
    {
        type            cyclic;
    }
    inout2_half1
    {
        type            cyclic;
    }
}


// ************************************************************************* //
