/*--------------------------------*- C++ -*----------------------------------*\
  =========                 |
  \\      /  F ield         | OpenFOAM: The Open Source CFD Toolbox
   \\    /   O peration     | Website:  https://openfoam.org
    \\  /    A nd           | Version:  7
     \\/     M anipulation  |
\*---------------------------------------------------------------------------*/
FoamFile
{
    version     2.0;
    format      ascii;
    class       volScalarField;
    location    "2500";
    object      omega;
}
// * * * * * * * * * * * * * * * * * * * * * * * * * * * * * * * * * * * * * //

dimensions      [0 0 -1 0 0 0 0];

internalField   nonuniform List<scalar> 
4000
(
0.027088
0.0270838
0.0270835
0.027084
0.0270847
0.0270854
0.0270861
0.0270868
0.0270874
0.0270881
0.0270888
0.0270894
0.0270901
0.0270907
0.0270913
0.0270919
0.0270926
0.0270932
0.0270938
0.0270944
0.027095
0.0270956
0.0270962
0.0270968
0.0270975
0.0270981
0.0270987
0.0270993
0.0270999
0.0271004
0.027101
0.0271016
0.0271022
0.0271028
0.0271034
0.027104
0.0271045
0.0271051
0.0271057
0.0271062
0.0271068
0.0271073
0.0271079
0.0271084
0.0271092
0.0271053
0.0271022
0.0271008
0.0271004
0.0271005
0.0271008
0.0271012
0.0271017
0.0271021
0.0271026
0.027103
0.0271035
0.0271039
0.0271044
0.0271048
0.0271052
0.0271056
0.027106
0.0271064
0.0271068
0.0271072
0.0271075
0.0271079
0.0271082
0.0271085
0.0271088
0.0271091
0.0271094
0.0271097
0.02711
0.0271102
0.0271105
0.0271107
0.027111
0.0271112
0.0271114
0.0271117
0.0271119
0.0271121
0.0271123
0.0271125
0.0271127
0.0271129
0.0271131
0.0271133
0.0271135
0.0271137
0.0271139
0.0271141
0.0271143
0.0271146
0.0271148
0.027115
0.0271152
0.0271154
0.0271156
0.0271159
0.0271161
0.0271166
0.0271123
0.0271089
0.0271072
0.0271066
0.0271065
0.0271066
0.0271068
0.0271071
0.0271073
0.0271077
0.027108
0.0271083
0.0271086
0.027109
0.0271093
0.0271096
0.0272024
0.0271981
0.0271975
0.0271978
0.0271983
0.0271989
0.0271995
0.0272
0.0272006
0.0272012
0.0272018
0.0272024
0.0272029
0.0272035
0.0272041
0.0272047
0.0272052
0.0272058
0.0272064
0.0272069
0.0272075
0.0272081
0.0272086
0.0272092
0.0272098
0.0272103
0.0272109
0.0272115
0.027212
0.0272126
0.0272131
0.0272137
0.0272143
0.0272148
0.0272154
0.0272159
0.0272165
0.027217
0.0272175
0.0272181
0.0272186
0.0272191
0.0272197
0.0272202
0.0272208
0.0272204
0.0272193
0.0272183
0.0272175
0.0272171
0.027217
0.027217
0.0272171
0.0272173
0.0272176
0.0272178
0.0272181
0.0272184
0.0272187
0.027219
0.0272193
0.0272197
0.02722
0.0272203
0.0272206
0.0272209
0.0272211
0.0272214
0.0272217
0.027222
0.0272222
0.0272225
0.0272227
0.0272229
0.0272232
0.0272234
0.0272236
0.0272238
0.027224
0.0272242
0.0272244
0.0272245
0.0272247
0.0272249
0.0272251
0.0272252
0.0272254
0.0272256
0.0272257
0.0272259
0.027226
0.0272262
0.0272264
0.0272265
0.0272267
0.0272269
0.0272271
0.0272272
0.0272274
0.0272276
0.0272278
0.027228
0.0272282
0.0272285
0.0272278
0.0272264
0.0272251
0.0272241
0.0272235
0.0272231
0.0272229
0.0272228
0.0272228
0.0272229
0.027223
0.0272231
0.0272233
0.0272235
0.0272237
0.027224
0.0274126
0.0274082
0.0274075
0.0274078
0.0274082
0.0274086
0.0274091
0.0274096
0.0274101
0.0274106
0.0274112
0.0274117
0.0274122
0.0274127
0.0274133
0.0274138
0.0274143
0.0274148
0.0274154
0.0274159
0.0274164
0.027417
0.0274175
0.027418
0.0274186
0.0274191
0.0274196
0.0274202
0.0274207
0.0274213
0.0274218
0.0274223
0.0274228
0.0274234
0.0274239
0.0274244
0.027425
0.0274255
0.027426
0.0274265
0.027427
0.0274275
0.027428
0.0274285
0.0274291
0.0274294
0.0274293
0.0274291
0.0274288
0.0274285
0.0274284
0.0274283
0.0274283
0.0274284
0.0274285
0.0274287
0.0274288
0.0274291
0.0274293
0.0274295
0.0274297
0.02743
0.0274302
0.0274304
0.0274307
0.0274309
0.0274312
0.0274314
0.0274316
0.0274318
0.027432
0.0274322
0.0274324
0.0274326
0.0274328
0.027433
0.0274331
0.0274333
0.0274334
0.0274336
0.0274338
0.0274339
0.027434
0.0274342
0.0274343
0.0274345
0.0274346
0.0274347
0.0274349
0.027435
0.0274351
0.0274353
0.0274354
0.0274355
0.0274357
0.0274358
0.027436
0.0274361
0.0274363
0.0274364
0.0274366
0.0274368
0.0274369
0.0274372
0.0274372
0.0274369
0.0274363
0.0274358
0.0274353
0.0274348
0.0274345
0.0274343
0.0274342
0.0274342
0.0274342
0.0274342
0.0274343
0.0274344
0.0274345
0.0274347
0.0277156
0.027711
0.0277103
0.0277105
0.0277109
0.0277113
0.0277118
0.0277122
0.0277127
0.0277132
0.0277137
0.0277141
0.0277146
0.0277151
0.0277156
0.0277161
0.0277166
0.0277171
0.0277176
0.0277181
0.0277187
0.0277192
0.0277197
0.0277202
0.0277207
0.0277212
0.0277217
0.0277223
0.0277228
0.0277233
0.0277238
0.0277243
0.0277248
0.0277253
0.0277259
0.0277264
0.0277269
0.0277274
0.0277279
0.0277284
0.0277289
0.0277294
0.0277299
0.0277303
0.0277308
0.0277313
0.0277316
0.0277318
0.0277319
0.0277319
0.0277319
0.0277319
0.027732
0.0277321
0.0277322
0.0277323
0.0277324
0.0277326
0.0277328
0.027733
0.0277332
0.0277334
0.0277336
0.0277337
0.0277339
0.0277341
0.0277343
0.0277345
0.0277347
0.0277349
0.027735
0.0277352
0.0277354
0.0277355
0.0277357
0.0277358
0.027736
0.0277361
0.0277362
0.0277364
0.0277365
0.0277366
0.0277367
0.0277368
0.0277369
0.027737
0.0277372
0.0277373
0.0277374
0.0277375
0.0277376
0.0277377
0.0277378
0.0277379
0.0277381
0.0277382
0.0277383
0.0277385
0.0277386
0.0277387
0.0277389
0.027739
0.0277392
0.0277394
0.0277395
0.0277395
0.0277395
0.0277393
0.027739
0.0277388
0.0277386
0.0277385
0.0277383
0.0277383
0.0277382
0.0277382
0.0277383
0.0277383
0.0277384
0.0277385
0.0281094
0.0281046
0.0281039
0.0281041
0.0281045
0.0281049
0.0281053
0.0281058
0.0281062
0.0281067
0.0281071
0.0281076
0.0281081
0.0281086
0.028109
0.0281095
0.02811
0.0281105
0.028111
0.0281115
0.028112
0.0281125
0.028113
0.0281135
0.028114
0.0281145
0.028115
0.0281155
0.028116
0.0281165
0.028117
0.0281175
0.028118
0.0281185
0.028119
0.0281195
0.02812
0.0281205
0.028121
0.0281215
0.028122
0.0281225
0.028123
0.0281234
0.0281239
0.0281244
0.0281248
0.0281251
0.0281254
0.0281257
0.0281259
0.028126
0.0281262
0.0281263
0.0281265
0.0281266
0.0281268
0.028127
0.0281271
0.0281273
0.0281275
0.0281277
0.0281278
0.028128
0.0281282
0.0281284
0.0281285
0.0281287
0.0281288
0.028129
0.0281291
0.0281293
0.0281294
0.0281296
0.0281297
0.0281298
0.0281299
0.02813
0.0281302
0.0281303
0.0281304
0.0281305
0.0281306
0.0281307
0.0281308
0.0281309
0.0281309
0.028131
0.0281311
0.0281312
0.0281313
0.0281314
0.0281315
0.0281316
0.0281318
0.0281319
0.028132
0.0281321
0.0281322
0.0281324
0.0281325
0.0281327
0.0281328
0.028133
0.0281331
0.0281333
0.0281333
0.0281334
0.0281333
0.0281333
0.0281332
0.0281332
0.0281331
0.0281331
0.0281331
0.0281331
0.0281332
0.0281332
0.0281333
0.0281334
0.0285929
0.0285879
0.0285871
0.0285873
0.0285877
0.0285881
0.0285886
0.0285891
0.0285895
0.02859
0.0285904
0.0285909
0.0285914
0.0285919
0.0285924
0.0285928
0.0285933
0.0285938
0.0285943
0.0285948
0.0285953
0.0285958
0.0285963
0.0285968
0.0285973
0.0285978
0.0285983
0.0285988
0.0285993
0.0285998
0.0286003
0.0286008
0.0286013
0.0286018
0.0286023
0.0286028
0.0286033
0.0286038
0.0286043
0.0286047
0.0286052
0.0286057
0.0286062
0.0286066
0.0286071
0.0286075
0.028608
0.0286084
0.0286088
0.0286091
0.0286094
0.0286097
0.0286099
0.0286102
0.0286104
0.0286106
0.0286108
0.028611
0.0286112
0.0286114
0.0286115
0.0286117
0.0286119
0.0286121
0.0286123
0.0286124
0.0286126
0.0286127
0.0286129
0.028613
0.0286132
0.0286133
0.0286134
0.0286135
0.0286137
0.0286138
0.0286139
0.028614
0.0286141
0.0286142
0.0286143
0.0286144
0.0286145
0.0286145
0.0286146
0.0286147
0.0286148
0.0286149
0.028615
0.0286151
0.0286152
0.0286153
0.0286154
0.0286155
0.0286156
0.0286157
0.0286158
0.0286159
0.028616
0.0286162
0.0286163
0.0286165
0.0286166
0.0286168
0.0286169
0.0286171
0.0286172
0.0286174
0.0286175
0.0286175
0.0286176
0.0286176
0.0286177
0.0286177
0.0286178
0.0286178
0.0286179
0.028618
0.0286181
0.0286183
0.029166
0.0291606
0.0291599
0.0291601
0.0291605
0.029161
0.0291614
0.0291619
0.0291624
0.0291629
0.0291634
0.0291639
0.0291644
0.0291649
0.0291654
0.0291659
0.0291663
0.0291668
0.0291673
0.0291678
0.0291684
0.0291689
0.0291694
0.0291699
0.0291704
0.0291709
0.0291714
0.0291719
0.0291724
0.0291729
0.0291734
0.0291739
0.0291744
0.0291749
0.0291754
0.0291759
0.0291764
0.0291768
0.0291773
0.0291778
0.0291783
0.0291787
0.0291792
0.0291797
0.0291801
0.0291806
0.029181
0.0291814
0.0291819
0.0291822
0.0291826
0.0291829
0.0291833
0.0291835
0.0291838
0.0291841
0.0291843
0.0291845
0.0291848
0.029185
0.0291852
0.0291854
0.0291856
0.0291858
0.0291859
0.0291861
0.0291863
0.0291864
0.0291866
0.0291867
0.0291869
0.029187
0.0291871
0.0291872
0.0291873
0.0291875
0.0291876
0.0291877
0.0291878
0.0291879
0.029188
0.029188
0.0291881
0.0291882
0.0291883
0.0291884
0.0291885
0.0291886
0.0291887
0.0291888
0.0291889
0.029189
0.0291891
0.0291892
0.0291893
0.0291894
0.0291895
0.0291897
0.0291898
0.0291899
0.0291901
0.0291902
0.0291904
0.0291905
0.0291907
0.0291909
0.029191
0.0291912
0.0291914
0.0291915
0.0291917
0.0291918
0.0291919
0.029192
0.0291921
0.0291923
0.0291924
0.0291925
0.0291926
0.0291928
0.0298293
0.0298236
0.0298228
0.0298231
0.0298235
0.029824
0.0298245
0.0298251
0.0298256
0.0298261
0.0298266
0.0298271
0.0298276
0.0298282
0.0298287
0.0298292
0.0298297
0.0298302
0.0298307
0.0298313
0.0298318
0.0298323
0.0298328
0.0298333
0.0298338
0.0298343
0.0298349
0.0298354
0.0298359
0.0298364
0.0298369
0.0298374
0.0298379
0.0298384
0.0298389
0.0298394
0.0298399
0.0298403
0.0298408
0.0298413
0.0298418
0.0298422
0.0298427
0.0298432
0.0298436
0.0298441
0.0298445
0.0298449
0.0298454
0.0298458
0.0298461
0.0298465
0.0298469
0.0298472
0.0298475
0.0298478
0.0298481
0.0298483
0.0298486
0.0298488
0.0298491
0.0298493
0.0298495
0.0298497
0.0298499
0.0298501
0.0298503
0.0298504
0.0298506
0.0298507
0.0298509
0.029851
0.0298512
0.0298513
0.0298514
0.0298515
0.0298516
0.0298518
0.0298519
0.029852
0.0298521
0.0298522
0.0298523
0.0298524
0.0298525
0.0298526
0.0298527
0.0298528
0.0298529
0.029853
0.0298531
0.0298532
0.0298533
0.0298534
0.0298535
0.0298537
0.0298538
0.029854
0.0298541
0.0298542
0.0298544
0.0298546
0.0298547
0.0298549
0.0298551
0.0298553
0.0298555
0.0298557
0.0298559
0.0298561
0.0298562
0.0298564
0.0298566
0.0298568
0.029857
0.0298571
0.0298573
0.0298575
0.0298576
0.0298579
0.0305845
0.0305784
0.0305776
0.0305778
0.0305783
0.0305789
0.0305794
0.03058
0.0305806
0.0305811
0.0305817
0.0305822
0.0305828
0.0305833
0.0305838
0.0305844
0.0305849
0.0305855
0.030586
0.0305865
0.030587
0.0305876
0.0305881
0.0305886
0.0305892
0.0305897
0.0305902
0.0305907
0.0305912
0.0305917
0.0305922
0.0305928
0.0305933
0.0305938
0.0305943
0.0305947
0.0305952
0.0305957
0.0305962
0.0305967
0.0305972
0.0305976
0.0305981
0.0305985
0.030599
0.0305994
0.0305999
0.0306003
0.0306007
0.0306011
0.0306015
0.0306019
0.0306023
0.0306027
0.030603
0.0306033
0.0306036
0.0306039
0.0306042
0.0306045
0.0306047
0.030605
0.0306052
0.0306054
0.0306057
0.0306059
0.0306061
0.0306062
0.0306064
0.0306066
0.0306068
0.0306069
0.0306071
0.0306072
0.0306073
0.0306075
0.0306076
0.0306077
0.0306079
0.030608
0.0306081
0.0306082
0.0306083
0.0306084
0.0306086
0.0306087
0.0306088
0.0306089
0.030609
0.0306092
0.0306093
0.0306094
0.0306096
0.0306097
0.0306098
0.03061
0.0306101
0.0306103
0.0306105
0.0306106
0.0306108
0.030611
0.0306112
0.0306114
0.0306116
0.0306118
0.030612
0.0306122
0.0306125
0.0306127
0.0306129
0.0306131
0.0306134
0.0306136
0.0306138
0.030614
0.0306142
0.0306145
0.0306147
0.030615
0.0314338
0.0314274
0.0314264
0.0314267
0.0314273
0.0314279
0.0314285
0.0314291
0.0314296
0.0314302
0.0314308
0.0314314
0.031432
0.0314325
0.0314331
0.0314337
0.0314342
0.0314348
0.0314353
0.0314359
0.0314364
0.031437
0.0314375
0.0314381
0.0314386
0.0314391
0.0314397
0.0314402
0.0314407
0.0314412
0.0314417
0.0314422
0.0314428
0.0314433
0.0314438
0.0314443
0.0314447
0.0314452
0.0314457
0.0314462
0.0314467
0.0314471
0.0314476
0.0314481
0.0314485
0.0314489
0.0314494
0.0314498
0.0314502
0.0314507
0.0314511
0.0314515
0.0314519
0.0314522
0.0314526
0.0314529
0.0314533
0.0314536
0.0314539
0.0314542
0.0314545
0.0314548
0.031455
0.0314553
0.0314555
0.0314557
0.031456
0.0314562
0.0314564
0.0314566
0.0314567
0.0314569
0.0314571
0.0314573
0.0314574
0.0314576
0.0314577
0.0314579
0.031458
0.0314582
0.0314583
0.0314585
0.0314586
0.0314588
0.0314589
0.031459
0.0314592
0.0314593
0.0314595
0.0314596
0.0314598
0.03146
0.0314601
0.0314603
0.0314605
0.0314606
0.0314608
0.031461
0.0314612
0.0314614
0.0314616
0.0314618
0.031462
0.0314623
0.0314625
0.0314627
0.031463
0.0314632
0.0314635
0.0314637
0.031464
0.0314642
0.0314645
0.0314648
0.031465
0.0314653
0.0314655
0.0314658
0.031466
0.0314665
0.0323804
0.0323735
0.0323725
0.0323728
0.0323734
0.032374
0.0323746
0.0323753
0.0323759
0.0323765
0.0323772
0.0323778
0.0323784
0.032379
0.0323796
0.0323801
0.0323807
0.0323813
0.0323819
0.0323824
0.032383
0.0323835
0.0323841
0.0323846
0.0323852
0.0323857
0.0323862
0.0323868
0.0323873
0.0323878
0.0323883
0.0323889
0.0323894
0.0323899
0.0323904
0.0323909
0.0323914
0.0323919
0.0323923
0.0323928
0.0323933
0.0323938
0.0323942
0.0323947
0.0323951
0.0323956
0.032396
0.0323965
0.0323969
0.0323973
0.0323977
0.0323981
0.0323985
0.0323989
0.0323993
0.0323997
0.0324
0.0324004
0.0324007
0.032401
0.0324014
0.0324017
0.032402
0.0324022
0.0324025
0.0324028
0.032403
0.0324033
0.0324035
0.0324037
0.0324039
0.0324042
0.0324044
0.0324046
0.0324048
0.0324049
0.0324051
0.0324053
0.0324055
0.0324057
0.0324059
0.032406
0.0324062
0.0324064
0.0324066
0.0324067
0.0324069
0.0324071
0.0324073
0.0324075
0.0324077
0.0324079
0.0324081
0.0324083
0.0324085
0.0324087
0.0324089
0.0324091
0.0324094
0.0324096
0.0324098
0.0324101
0.0324103
0.0324106
0.0324108
0.0324111
0.0324114
0.0324117
0.0324119
0.0324122
0.0324125
0.0324128
0.0324131
0.0324134
0.0324137
0.032414
0.0324143
0.0324146
0.0324148
0.0324154
0.0334281
0.0334206
0.0334196
0.0334199
0.0334205
0.0334212
0.0334218
0.0334225
0.0334232
0.0334238
0.0334245
0.0334251
0.0334257
0.0334263
0.0334269
0.0334275
0.0334281
0.0334287
0.0334293
0.0334299
0.0334304
0.033431
0.0334315
0.0334321
0.0334326
0.0334332
0.0334337
0.0334342
0.0334348
0.0334353
0.0334358
0.0334363
0.0334368
0.0334373
0.0334378
0.0334383
0.0334388
0.0334393
0.0334398
0.0334403
0.0334408
0.0334412
0.0334417
0.0334422
0.0334426
0.0334431
0.0334435
0.033444
0.0334444
0.0334449
0.0334453
0.0334457
0.0334461
0.0334466
0.033447
0.0334474
0.0334477
0.0334481
0.0334485
0.0334488
0.0334492
0.0334495
0.0334498
0.0334502
0.0334505
0.0334508
0.0334511
0.0334513
0.0334516
0.0334519
0.0334521
0.0334524
0.0334526
0.0334529
0.0334531
0.0334533
0.0334536
0.0334538
0.033454
0.0334542
0.0334545
0.0334547
0.0334549
0.0334551
0.0334553
0.0334556
0.0334558
0.033456
0.0334562
0.0334565
0.0334567
0.0334569
0.0334572
0.0334574
0.0334577
0.0334579
0.0334582
0.0334584
0.0334587
0.033459
0.0334593
0.0334595
0.0334598
0.0334601
0.0334604
0.0334607
0.033461
0.0334613
0.0334617
0.033462
0.0334623
0.0334626
0.033463
0.0334633
0.0334636
0.033464
0.0334643
0.0334646
0.0334649
0.0334656
0.0345814
0.0345733
0.0345722
0.0345725
0.0345731
0.0345738
0.0345745
0.0345752
0.0345759
0.0345765
0.0345772
0.0345778
0.0345785
0.0345791
0.0345797
0.0345803
0.0345809
0.0345815
0.0345821
0.0345827
0.0345832
0.0345838
0.0345843
0.0345849
0.0345854
0.034586
0.0345865
0.034587
0.0345876
0.0345881
0.0345886
0.0345891
0.0345896
0.0345901
0.0345906
0.0345911
0.0345916
0.0345921
0.0345926
0.0345931
0.0345935
0.034594
0.0345945
0.034595
0.0345955
0.0345959
0.0345964
0.0345969
0.0345973
0.0345978
0.0345983
0.0345987
0.0345992
0.0345996
0.0346
0.0346005
0.0346009
0.0346013
0.0346017
0.0346021
0.0346025
0.0346029
0.0346032
0.0346036
0.0346039
0.0346043
0.0346046
0.0346049
0.0346053
0.0346056
0.0346059
0.0346062
0.0346065
0.0346068
0.0346071
0.0346073
0.0346076
0.0346079
0.0346082
0.0346084
0.0346087
0.034609
0.0346092
0.0346095
0.0346098
0.03461
0.0346103
0.0346106
0.0346109
0.0346111
0.0346114
0.0346117
0.034612
0.0346123
0.0346126
0.0346129
0.0346132
0.0346135
0.0346138
0.0346141
0.0346145
0.0346148
0.0346151
0.0346155
0.0346158
0.0346161
0.0346165
0.0346168
0.0346172
0.0346175
0.0346179
0.0346183
0.0346186
0.034619
0.0346194
0.0346197
0.0346201
0.0346204
0.0346207
0.0346215
0.0358455
0.0358368
0.0358355
0.0358358
0.0358365
0.0358372
0.0358379
0.0358386
0.0358393
0.0358399
0.0358406
0.0358412
0.0358418
0.0358425
0.0358431
0.0358437
0.0358442
0.0358448
0.0358454
0.035846
0.0358465
0.0358471
0.0358476
0.0358482
0.0358487
0.0358492
0.0358497
0.0358503
0.0358508
0.0358513
0.0358518
0.0358523
0.0358528
0.0358533
0.0358538
0.0358543
0.0358548
0.0358553
0.0358558
0.0358563
0.0358568
0.0358573
0.0358578
0.0358583
0.0358588
0.0358593
0.0358598
0.0358603
0.0358608
0.0358613
0.0358618
0.0358623
0.0358628
0.0358632
0.0358637
0.0358642
0.0358647
0.0358651
0.0358656
0.035866
0.0358665
0.0358669
0.0358673
0.0358677
0.0358681
0.0358685
0.0358689
0.0358693
0.0358697
0.0358701
0.0358704
0.0358708
0.0358711
0.0358715
0.0358718
0.0358722
0.0358725
0.0358728
0.0358732
0.0358735
0.0358738
0.0358741
0.0358745
0.0358748
0.0358751
0.0358754
0.0358758
0.0358761
0.0358764
0.0358768
0.0358771
0.0358774
0.0358778
0.0358781
0.0358785
0.0358788
0.0358792
0.0358795
0.0358799
0.0358803
0.0358806
0.035881
0.0358814
0.0358818
0.0358822
0.0358825
0.0358829
0.0358833
0.0358837
0.0358841
0.0358845
0.0358849
0.0358853
0.0358857
0.0358861
0.0358865
0.0358869
0.0358872
0.0358875
0.0358885
0.0372262
0.0372169
0.0372155
0.0372158
0.0372164
0.0372171
0.0372178
0.0372185
0.0372191
0.0372198
0.0372204
0.037221
0.0372216
0.0372222
0.0372228
0.0372234
0.0372239
0.0372245
0.0372251
0.0372256
0.0372261
0.0372267
0.0372272
0.0372277
0.0372282
0.0372287
0.0372293
0.0372298
0.0372303
0.0372308
0.0372313
0.0372318
0.0372323
0.0372328
0.0372333
0.0372338
0.0372343
0.0372348
0.0372353
0.0372358
0.0372364
0.0372369
0.0372374
0.037238
0.0372385
0.037239
0.0372396
0.0372401
0.0372407
0.0372412
0.0372418
0.0372423
0.0372429
0.0372434
0.037244
0.0372445
0.037245
0.0372456
0.0372461
0.0372466
0.0372471
0.0372476
0.0372481
0.0372485
0.037249
0.0372495
0.0372499
0.0372504
0.0372508
0.0372513
0.0372517
0.0372521
0.0372525
0.0372529
0.0372533
0.0372537
0.0372541
0.0372545
0.0372549
0.0372553
0.0372557
0.0372561
0.0372565
0.0372569
0.0372573
0.0372577
0.0372581
0.0372585
0.0372588
0.0372592
0.0372596
0.03726
0.0372604
0.0372608
0.0372613
0.0372617
0.0372621
0.0372625
0.0372629
0.0372633
0.0372637
0.0372642
0.0372646
0.037265
0.0372654
0.0372659
0.0372663
0.0372667
0.0372672
0.0372676
0.0372681
0.0372685
0.0372689
0.0372693
0.0372698
0.0372702
0.0372705
0.0372709
0.0372712
0.0372723
0.0387302
0.0387202
0.0387186
0.0387188
0.0387194
0.03872
0.0387207
0.0387213
0.038722
0.0387226
0.0387232
0.0387237
0.0387243
0.0387249
0.0387254
0.0387259
0.0387265
0.038727
0.0387275
0.038728
0.0387285
0.038729
0.0387295
0.03873
0.0387305
0.038731
0.0387315
0.038732
0.0387325
0.038733
0.0387335
0.038734
0.0387345
0.038735
0.0387355
0.038736
0.0387365
0.0387371
0.0387376
0.0387382
0.0387388
0.0387393
0.0387399
0.0387405
0.0387411
0.0387418
0.0387424
0.038743
0.0387436
0.0387442
0.0387449
0.0387455
0.0387461
0.0387467
0.0387473
0.038748
0.0387486
0.0387492
0.0387498
0.0387504
0.0387509
0.0387515
0.0387521
0.0387526
0.0387532
0.0387537
0.0387542
0.0387548
0.0387553
0.0387558
0.0387563
0.0387568
0.0387573
0.0387578
0.0387583
0.0387587
0.0387592
0.0387597
0.0387601
0.0387606
0.0387611
0.0387615
0.038762
0.0387625
0.0387629
0.0387634
0.0387638
0.0387643
0.0387647
0.0387652
0.0387657
0.0387661
0.0387666
0.0387671
0.0387675
0.038768
0.0387685
0.0387689
0.0387694
0.0387699
0.0387703
0.0387708
0.0387713
0.0387718
0.0387722
0.0387727
0.0387732
0.0387737
0.0387742
0.0387746
0.0387751
0.0387756
0.038776
0.0387765
0.0387769
0.0387773
0.0387777
0.0387781
0.0387783
0.0387796
0.0403646
0.0403538
0.0403519
0.0403521
0.0403526
0.0403532
0.0403538
0.0403543
0.0403549
0.0403554
0.040356
0.0403565
0.040357
0.0403575
0.040358
0.0403585
0.0403589
0.0403594
0.0403599
0.0403604
0.0403608
0.0403613
0.0403618
0.0403623
0.0403627
0.0403632
0.0403637
0.0403641
0.0403646
0.0403651
0.0403656
0.0403661
0.0403666
0.0403671
0.0403677
0.0403682
0.0403688
0.0403694
0.04037
0.0403706
0.0403713
0.0403719
0.0403726
0.0403733
0.040374
0.0403747
0.0403754
0.0403761
0.0403768
0.0403776
0.0403783
0.040379
0.0403797
0.0403805
0.0403812
0.0403819
0.0403826
0.0403833
0.040384
0.0403847
0.0403853
0.040386
0.0403866
0.0403873
0.0403879
0.0403886
0.0403892
0.0403898
0.0403904
0.040391
0.0403916
0.0403922
0.0403927
0.0403933
0.0403939
0.0403944
0.040395
0.0403955
0.0403961
0.0403966
0.0403971
0.0403977
0.0403982
0.0403987
0.0403993
0.0403998
0.0404003
0.0404009
0.0404014
0.0404019
0.0404024
0.040403
0.0404035
0.040404
0.0404046
0.0404051
0.0404056
0.0404061
0.0404067
0.0404072
0.0404077
0.0404082
0.0404088
0.0404093
0.0404098
0.0404104
0.0404109
0.0404114
0.0404119
0.0404124
0.0404129
0.0404134
0.0404139
0.0404143
0.0404147
0.0404151
0.0404155
0.0404158
0.0404159
0.0404174
0.0421372
0.0421255
0.0421233
0.0421233
0.0421237
0.0421242
0.0421247
0.0421252
0.0421257
0.0421261
0.0421266
0.042127
0.0421274
0.0421279
0.0421283
0.0421287
0.0421291
0.0421295
0.04213
0.0421304
0.0421308
0.0421313
0.0421317
0.0421321
0.0421326
0.042133
0.0421335
0.0421339
0.0421344
0.0421349
0.0421354
0.0421359
0.0421364
0.042137
0.0421376
0.0421382
0.0421389
0.0421396
0.0421403
0.042141
0.0421418
0.0421425
0.0421433
0.0421442
0.042145
0.0421458
0.0421466
0.0421475
0.0421483
0.0421492
0.04215
0.0421509
0.0421517
0.0421526
0.0421534
0.0421542
0.0421551
0.0421559
0.0421567
0.0421575
0.0421582
0.042159
0.0421598
0.0421605
0.0421612
0.042162
0.0421627
0.0421634
0.0421641
0.0421648
0.0421655
0.0421661
0.0421668
0.0421675
0.0421681
0.0421687
0.0421694
0.04217
0.0421706
0.0421713
0.0421719
0.0421725
0.0421731
0.0421737
0.0421743
0.0421749
0.0421755
0.0421761
0.0421767
0.0421773
0.0421779
0.0421785
0.0421791
0.0421797
0.0421803
0.0421809
0.0421815
0.042182
0.0421826
0.0421832
0.0421838
0.0421844
0.042185
0.0421855
0.0421861
0.0421867
0.0421872
0.0421878
0.0421884
0.0421889
0.0421894
0.0421899
0.0421903
0.0421907
0.0421911
0.0421914
0.0421917
0.0421919
0.0421919
0.0421935
0.0440563
0.0440436
0.0440411
0.0440409
0.0440412
0.0440416
0.0440419
0.0440423
0.0440426
0.044043
0.0440433
0.0440437
0.044044
0.0440443
0.0440447
0.044045
0.0440454
0.0440457
0.0440461
0.0440465
0.0440469
0.0440473
0.0440477
0.0440481
0.0440485
0.0440489
0.0440493
0.0440498
0.0440503
0.0440508
0.0440513
0.0440519
0.0440525
0.0440532
0.0440539
0.0440546
0.0440554
0.0440562
0.0440571
0.044058
0.0440589
0.0440598
0.0440608
0.0440617
0.0440627
0.0440637
0.0440647
0.0440657
0.0440667
0.0440678
0.0440688
0.0440698
0.0440707
0.0440717
0.0440727
0.0440737
0.0440746
0.0440756
0.0440765
0.0440774
0.0440783
0.0440792
0.04408
0.0440809
0.0440818
0.0440826
0.0440834
0.0440842
0.044085
0.0440858
0.0440866
0.0440873
0.0440881
0.0440889
0.0440896
0.0440903
0.044091
0.0440918
0.0440925
0.0440932
0.0440939
0.0440946
0.0440953
0.044096
0.0440966
0.0440973
0.044098
0.0440987
0.0440993
0.0441
0.0441007
0.0441013
0.044102
0.0441026
0.0441033
0.0441039
0.0441046
0.0441052
0.0441059
0.0441065
0.0441071
0.0441078
0.0441084
0.044109
0.0441096
0.0441103
0.0441109
0.0441115
0.044112
0.0441125
0.044113
0.0441135
0.0441138
0.0441142
0.0441144
0.0441146
0.0441147
0.0441148
0.0441146
0.0441164
0.0461308
0.0461171
0.0461143
0.0461138
0.0461139
0.0461141
0.0461143
0.0461145
0.0461147
0.046115
0.0461152
0.0461154
0.0461156
0.0461159
0.0461161
0.0461164
0.0461167
0.046117
0.0461173
0.0461177
0.046118
0.0461184
0.0461187
0.0461191
0.0461195
0.0461199
0.0461204
0.0461209
0.0461214
0.0461219
0.0461226
0.0461232
0.046124
0.0461248
0.0461257
0.0461266
0.0461276
0.0461286
0.0461297
0.0461308
0.0461319
0.046133
0.0461342
0.0461354
0.0461366
0.0461378
0.046139
0.0461402
0.0461414
0.0461426
0.0461437
0.0461449
0.0461461
0.0461472
0.0461483
0.0461495
0.0461506
0.0461516
0.0461527
0.0461537
0.0461548
0.0461558
0.0461568
0.0461577
0.0461587
0.0461597
0.0461606
0.0461615
0.0461624
0.0461633
0.0461642
0.046165
0.0461659
0.0461667
0.0461676
0.0461684
0.0461692
0.04617
0.0461708
0.0461716
0.0461724
0.0461732
0.0461739
0.0461747
0.0461754
0.0461762
0.0461769
0.0461777
0.0461784
0.0461792
0.0461799
0.0461806
0.0461813
0.0461821
0.0461828
0.0461835
0.0461842
0.0461849
0.0461856
0.0461863
0.0461869
0.0461876
0.0461883
0.046189
0.0461896
0.0461903
0.0461909
0.0461915
0.046192
0.0461925
0.0461929
0.0461932
0.0461935
0.0461936
0.0461937
0.0461937
0.0461936
0.0461935
0.046193
0.0461948
0.0483703
0.0483555
0.0483522
0.0483515
0.0483514
0.0483514
0.0483514
0.0483515
0.0483516
0.0483516
0.0483517
0.0483518
0.048352
0.0483521
0.0483523
0.0483525
0.0483527
0.048353
0.0483533
0.0483536
0.0483539
0.0483542
0.0483546
0.0483549
0.0483553
0.0483558
0.0483563
0.0483568
0.0483574
0.0483581
0.0483589
0.0483598
0.0483607
0.0483618
0.0483629
0.0483641
0.0483653
0.0483666
0.048368
0.0483694
0.0483708
0.0483722
0.0483736
0.0483751
0.0483765
0.0483779
0.0483794
0.0483808
0.0483822
0.0483836
0.048385
0.0483863
0.0483877
0.048389
0.0483903
0.0483916
0.0483928
0.048394
0.0483952
0.0483964
0.0483976
0.0483987
0.0483998
0.0484009
0.048402
0.0484031
0.0484041
0.0484052
0.0484062
0.0484072
0.0484081
0.0484091
0.04841
0.048411
0.0484119
0.0484128
0.0484137
0.0484146
0.0484155
0.0484164
0.0484172
0.0484181
0.0484189
0.0484198
0.0484206
0.0484214
0.0484222
0.0484231
0.0484239
0.0484247
0.0484255
0.0484262
0.048427
0.0484278
0.0484286
0.0484293
0.0484301
0.0484308
0.0484316
0.0484323
0.048433
0.0484338
0.0484345
0.0484352
0.0484359
0.0484366
0.0484372
0.0484377
0.0484382
0.0484385
0.0484388
0.0484389
0.0484388
0.0484387
0.0484385
0.0484381
0.0484377
0.0484373
0.0484365
0.0484385
0.0507848
0.0507688
0.0507651
0.0507641
0.0507638
0.0507636
0.0507634
0.0507633
0.0507632
0.0507631
0.0507631
0.0507631
0.0507632
0.0507632
0.0507634
0.0507635
0.0507637
0.0507639
0.0507642
0.0507644
0.0507648
0.0507651
0.0507654
0.0507658
0.0507663
0.0507668
0.0507674
0.050768
0.0507688
0.0507698
0.0507708
0.050772
0.0507733
0.0507747
0.0507762
0.0507777
0.0507794
0.050781
0.0507827
0.0507845
0.0507862
0.0507879
0.0507897
0.0507914
0.0507931
0.0507948
0.0507965
0.0507982
0.0507998
0.0508014
0.050803
0.0508046
0.0508061
0.0508076
0.0508091
0.0508105
0.0508119
0.0508133
0.0508147
0.050816
0.0508173
0.0508185
0.0508198
0.050821
0.0508222
0.0508234
0.0508245
0.0508257
0.0508268
0.0508279
0.0508289
0.05083
0.050831
0.0508321
0.0508331
0.0508341
0.0508351
0.050836
0.050837
0.050838
0.0508389
0.0508398
0.0508407
0.0508417
0.0508426
0.0508434
0.0508443
0.0508452
0.0508461
0.0508469
0.0508478
0.0508486
0.0508495
0.0508503
0.0508511
0.0508519
0.0508527
0.0508535
0.0508543
0.0508551
0.0508559
0.0508566
0.0508574
0.0508581
0.0508588
0.0508595
0.05086
0.0508604
0.0508607
0.0508608
0.0508607
0.0508604
0.05086
0.0508594
0.0508588
0.050858
0.0508572
0.0508564
0.0508552
0.0508572
0.0533849
0.0533677
0.0533635
0.0533623
0.0533617
0.0533613
0.0533609
0.0533606
0.0533604
0.0533602
0.0533601
0.05336
0.05336
0.0533601
0.0533601
0.0533603
0.0533604
0.0533606
0.0533609
0.0533612
0.0533615
0.0533619
0.0533623
0.0533627
0.0533632
0.0533639
0.0533647
0.0533656
0.0533667
0.0533681
0.0533696
0.0533712
0.053373
0.0533749
0.0533768
0.0533789
0.053381
0.0533831
0.0533852
0.0533873
0.0533894
0.0533915
0.0533936
0.0533957
0.0533977
0.0533997
0.0534017
0.0534036
0.0534055
0.0534073
0.0534091
0.0534109
0.0534126
0.0534143
0.0534159
0.0534175
0.0534191
0.0534206
0.0534221
0.0534235
0.053425
0.0534264
0.0534277
0.0534291
0.0534304
0.0534316
0.0534329
0.0534341
0.0534353
0.0534365
0.0534377
0.0534388
0.05344
0.0534411
0.0534422
0.0534432
0.0534443
0.0534454
0.0534464
0.0534474
0.0534484
0.0534494
0.0534504
0.0534514
0.0534523
0.0534533
0.0534542
0.0534552
0.0534561
0.053457
0.0534579
0.0534588
0.0534597
0.0534606
0.0534614
0.0534623
0.0534631
0.053464
0.0534648
0.0534656
0.0534664
0.0534673
0.053468
0.0534688
0.0534694
0.0534699
0.0534703
0.0534704
0.0534703
0.0534699
0.0534692
0.0534684
0.0534674
0.0534662
0.053465
0.0534638
0.0534625
0.0534613
0.0534595
0.0534617
0.0561817
0.0561633
0.0561587
0.0561572
0.0561563
0.0561558
0.0561553
0.0561548
0.0561545
0.0561543
0.0561541
0.056154
0.0561539
0.056154
0.056154
0.0561542
0.0561544
0.0561546
0.0561549
0.0561553
0.0561556
0.056156
0.0561565
0.0561571
0.0561578
0.0561587
0.0561599
0.0561613
0.056163
0.0561649
0.056167
0.0561694
0.0561718
0.0561743
0.0561769
0.0561795
0.0561821
0.0561848
0.0561874
0.0561899
0.0561925
0.056195
0.0561974
0.0561998
0.0562021
0.0562044
0.0562067
0.0562088
0.0562109
0.056213
0.056215
0.0562169
0.0562188
0.0562207
0.0562225
0.0562242
0.0562259
0.0562276
0.0562292
0.0562308
0.0562323
0.0562339
0.0562353
0.0562368
0.0562382
0.0562395
0.0562409
0.0562422
0.0562435
0.0562448
0.056246
0.0562472
0.0562484
0.0562496
0.0562508
0.0562519
0.0562531
0.0562542
0.0562553
0.0562564
0.0562574
0.0562585
0.0562595
0.0562606
0.0562616
0.0562626
0.0562636
0.0562646
0.0562655
0.0562665
0.0562675
0.0562684
0.0562693
0.0562702
0.0562711
0.056272
0.0562729
0.0562738
0.0562746
0.0562755
0.0562764
0.0562772
0.056278
0.0562786
0.0562791
0.0562794
0.0562793
0.0562789
0.0562781
0.0562769
0.0562754
0.0562737
0.0562719
0.0562701
0.0562682
0.0562663
0.0562645
0.0562629
0.0562606
0.0562629
0.059187
0.0591674
0.0591624
0.0591606
0.0591596
0.0591588
0.0591582
0.0591578
0.0591574
0.0591571
0.059157
0.0591569
0.0591569
0.0591569
0.0591571
0.0591573
0.0591576
0.0591579
0.0591583
0.0591587
0.0591591
0.0591596
0.0591602
0.059161
0.0591621
0.0591636
0.0591654
0.0591676
0.0591702
0.059173
0.059176
0.0591792
0.0591824
0.0591857
0.059189
0.0591923
0.0591955
0.0591987
0.0592018
0.0592049
0.0592078
0.0592107
0.0592135
0.0592162
0.0592188
0.0592214
0.0592239
0.0592263
0.0592286
0.0592308
0.059233
0.0592351
0.0592372
0.0592392
0.0592411
0.059243
0.0592448
0.0592466
0.0592483
0.05925
0.0592517
0.0592533
0.0592548
0.0592563
0.0592578
0.0592593
0.0592607
0.0592621
0.0592635
0.0592648
0.0592661
0.0592674
0.0592687
0.0592699
0.0592711
0.0592723
0.0592735
0.0592747
0.0592758
0.059277
0.0592781
0.0592792