/*--------------------------------*- C++ -*----------------------------------*\
  =========                 |
  \\      /  F ield         | OpenFOAM: The Open Source CFD Toolbox
   \\    /   O peration     | Website:  https://openfoam.org
    \\  /    A nd           | Version:  7
     \\/     M anipulation  |
\*---------------------------------------------------------------------------*/
FoamFile
{
    version     2.0;
    format      ascii;
    class       volVectorField;
    location    "500";
    object      U;
}
// * * * * * * * * * * * * * * * * * * * * * * * * * * * * * * * * * * * * * //

dimensions      [0 1 -1 0 0 0 0];

internalField   nonuniform List<vector> 
4000
(
(0.139723 1.52304e-06 1.20035e-15)
(0.139723 1.51416e-06 1.17401e-15)
(0.139723 1.48994e-06 1.10224e-15)
(0.139723 1.45873e-06 1.07918e-15)
(0.139723 1.42044e-06 1.01308e-15)
(0.139723 1.37538e-06 9.9018e-16)
(0.139723 1.32468e-06 1.02924e-15)
(0.139723 1.2692e-06 1.02783e-15)
(0.139723 1.20976e-06 1.01516e-15)
(0.139723 1.14705e-06 1.04695e-15)
(0.139723 1.08158e-06 1.02744e-15)
(0.139723 1.01373e-06 9.42453e-16)
(0.139723 9.43688e-07 9.5109e-16)
(0.139722 8.71477e-07 8.93202e-16)
(0.139722 7.9697e-07 9.21827e-16)
(0.139722 7.19918e-07 9.1061e-16)
(0.139722 6.39974e-07 8.37273e-16)
(0.139722 5.56738e-07 8.58171e-16)
(0.139722 4.69804e-07 8.09031e-16)
(0.139722 3.78802e-07 8.44936e-16)
(0.139722 2.83457e-07 8.34846e-16)
(0.139722 1.83638e-07 8.78204e-16)
(0.139721 7.94133e-08 8.69178e-16)
(0.139721 -2.88813e-08 8.56801e-16)
(0.139721 -1.40591e-07 8.74521e-16)
(0.139721 -2.54701e-07 8.33356e-16)
(0.139721 -3.69821e-07 8.10595e-16)
(0.13972 -4.84202e-07 8.14583e-16)
(0.13972 -5.95771e-07 8.18683e-16)
(0.13972 -7.02198e-07 8.43807e-16)
(0.13972 -8.00962e-07 7.99178e-16)
(0.13972 -8.89436e-07 7.69835e-16)
(0.139719 -9.64971e-07 7.69657e-16)
(0.139719 -1.02497e-06 7.63466e-16)
(0.139719 -1.06695e-06 7.81964e-16)
(0.139719 -1.08861e-06 7.41427e-16)
(0.139719 -1.0878e-06 7.07275e-16)
(0.139719 -1.06254e-06 7.01449e-16)
(0.139719 -1.01092e-06 6.99621e-16)
(0.139719 -9.30927e-07 7.18523e-16)
(0.139719 -8.20068e-07 7.03888e-16)
(0.139719 -6.75003e-07 6.89202e-16)
(0.139719 -4.90725e-07 6.64516e-16)
(0.139719 -2.6475e-07 6.58586e-16)
(0.13972 -3.68314e-08 6.48701e-16)
(0.13972 2.03329e-08 6.32012e-16)
(0.13972 -7.18354e-08 6.15522e-16)
(0.13972 -1.17637e-07 5.94972e-16)
(0.13972 -1.09604e-07 5.88006e-16)
(0.139721 -8.62449e-08 5.8476e-16)
(0.139721 -5.5187e-08 5.78102e-16)
(0.139721 -2.11722e-08 5.64782e-16)
(0.139721 1.2124e-08 5.56928e-16)
(0.139721 4.2328e-08 5.56683e-16)
(0.139721 6.76107e-08 5.44559e-16)
(0.139722 8.65983e-08 5.55909e-16)
(0.139722 9.83224e-08 5.62027e-16)
(0.139722 1.02165e-07 5.61393e-16)
(0.139722 9.78273e-08 5.63157e-16)
(0.139722 8.52968e-08 5.62608e-16)
(0.139722 6.48219e-08 5.78042e-16)
(0.139722 3.68821e-08 5.87391e-16)
(0.139722 2.15844e-09 5.79686e-16)
(0.139722 -3.8499e-08 5.85088e-16)
(0.139722 -8.4108e-08 5.84722e-16)
(0.139722 -1.33594e-07 6.07153e-16)
(0.139722 -1.85832e-07 6.17533e-16)
(0.139722 -2.39695e-07 6.2583e-16)
(0.139722 -2.94103e-07 6.26993e-16)
(0.139722 -3.48066e-07 6.36214e-16)
(0.139722 -4.00736e-07 6.58894e-16)
(0.139722 -4.51432e-07 6.64733e-16)
(0.139722 -4.99679e-07 6.69499e-16)
(0.139722 -5.45211e-07 6.75624e-16)
(0.139722 -5.87977e-07 6.92161e-16)
(0.139722 -6.28124e-07 7.24023e-16)
(0.139722 -6.65967e-07 7.39373e-16)
(0.139722 -7.01947e-07 7.49588e-16)
(0.139722 -7.36581e-07 7.59354e-16)
(0.139722 -7.70399e-07 7.6418e-16)
(0.139722 -8.03882e-07 7.80358e-16)
(0.139722 -8.37403e-07 8.22907e-16)
(0.139722 -8.71164e-07 8.41475e-16)
(0.139722 -9.05143e-07 8.67083e-16)
(0.139722 -9.39058e-07 9.13969e-16)
(0.139722 -9.72329e-07 9.45247e-16)
(0.139722 -1.00407e-06 9.87247e-16)
(0.139722 -1.03308e-06 1.00043e-15)
(0.139723 -1.05787e-06 1.01878e-15)
(0.139723 -1.07667e-06 1.06546e-15)
(0.139723 -1.08749e-06 1.09399e-15)
(0.139723 -1.08814e-06 1.13475e-15)
(0.139723 -1.07632e-06 1.13777e-15)
(0.139723 -1.04966e-06 1.1407e-15)
(0.139723 -1.00575e-06 1.16304e-15)
(0.139723 -9.42198e-07 1.16601e-15)
(0.139723 -8.56608e-07 1.1827e-15)
(0.139723 -7.46534e-07 1.17733e-15)
(0.139723 -6.09366e-07 1.18215e-15)
(0.139723 -4.41965e-07 1.20164e-15)
(0.139723 -2.40369e-07 1.204e-15)
(0.139723 9.99662e-10 1.22116e-15)
(0.139723 2.85121e-07 1.20972e-15)
(0.139723 5.72586e-07 1.19382e-15)
(0.139723 6.90377e-07 1.20478e-15)
(0.139723 6.59259e-07 1.20238e-15)
(0.139723 6.75563e-07 1.20807e-15)
(0.139723 7.46429e-07 1.19179e-15)
(0.139723 8.32711e-07 1.18921e-15)
(0.139723 9.26135e-07 1.20713e-15)
(0.139723 1.0213e-06 1.20835e-15)
(0.139723 1.1139e-06 1.20349e-15)
(0.139723 1.201e-06 1.18471e-15)
(0.139723 1.2803e-06 1.1833e-15)
(0.139723 1.35003e-06 1.20719e-15)
(0.139723 1.4089e-06 1.20674e-15)
(0.139723 1.45597e-06 1.20428e-15)
(0.139723 1.4904e-06 1.18728e-15)
(0.139723 1.51137e-06 1.18211e-15)
(0.139723 1.51995e-06 1.20406e-15)
(0.139709 1.51426e-06 1.16324e-15)
(0.139709 1.52703e-06 1.13306e-15)
(0.139709 1.51479e-06 1.02851e-15)
(0.139709 1.49041e-06 9.7645e-16)
(0.139709 1.45699e-06 9.4508e-16)
(0.139709 1.41517e-06 1.02882e-15)
(0.139709 1.36654e-06 1.08271e-15)
(0.139709 1.31212e-06 1.04591e-15)
(0.139709 1.25294e-06 1.07104e-15)
(0.139709 1.18996e-06 1.09287e-15)
(0.139709 1.124e-06 1.03087e-15)
(0.139709 1.05568e-06 9.56489e-16)
(0.139708 9.85476e-07 9.2628e-16)
(0.139708 9.13663e-07 8.88722e-16)
(0.139708 8.40338e-07 8.82681e-16)
(0.139708 7.65424e-07 8.72114e-16)
(0.139708 6.88685e-07 8.35769e-16)
(0.139708 6.09756e-07 8.2681e-16)
(0.139708 5.28174e-07 8.0141e-16)
(0.139708 4.43422e-07 8.00855e-16)
(0.139708 3.54984e-07 7.50887e-16)
(0.139708 2.62399e-07 8.65978e-16)
(0.139707 1.65342e-07 8.62777e-16)
(0.139707 6.37149e-08 8.43729e-16)
(0.139707 -4.22666e-08 9.47838e-16)
(0.139707 -1.51995e-07 8.06146e-16)
(0.139707 -2.64429e-07 8.09232e-16)
(0.139706 -3.78085e-07 8.14752e-16)
(0.139706 -4.91064e-07 8.32954e-16)
(0.139706 -6.01105e-07 8.99608e-16)
(0.139706 -7.05663e-07 8.04509e-16)
(0.139706 -8.01997e-07 7.55275e-16)
(0.139705 -8.87267e-07 7.9649e-16)
(0.139705 -9.5863e-07 7.16983e-16)
(0.139705 -1.01332e-06 9.57034e-16)
(0.139705 -1.04874e-06 7.70708e-16)
(0.139705 -1.06245e-06 7.62937e-16)
(0.139705 -1.05221e-06 7.53575e-16)
(0.139705 -1.01593e-06 6.74528e-16)
(0.139705 -9.51514e-07 8.29847e-16)
(0.139705 -8.56624e-07 7.95073e-16)
(0.139705 -7.28504e-07 7.67657e-16)
(0.139705 -5.63989e-07 7.45894e-16)
(0.139705 -3.63375e-07 7.34976e-16)
(0.139706 -1.59482e-07 7.23091e-16)
(0.139706 -9.96654e-08 7.07129e-16)
(0.139706 -1.66029e-07 6.89188e-16)
(0.139706 -1.99879e-07 6.72175e-16)
(0.139706 -1.95173e-07 6.63498e-16)
(0.139707 -1.73998e-07 6.57692e-16)
(0.139707 -1.4291e-07 6.50444e-16)
(0.139707 -1.07311e-07 6.41678e-16)
(0.139707 -7.12638e-08 6.32476e-16)
(0.139707 -3.74087e-08 6.24492e-16)
(0.139707 -7.75485e-09 6.15058e-16)
(0.139708 1.61757e-08 6.24852e-16)
(0.139708 3.32856e-08 6.34143e-16)
(0.139708 4.28423e-08 6.37224e-16)
(0.139708 4.4443e-08 6.38242e-16)
(0.139708 3.79834e-08 6.35302e-16)
(0.139708 2.36275e-08 6.4523e-16)
(0.139708 1.77707e-09 6.5533e-16)
(0.139708 -2.69613e-08 6.58603e-16)
(0.139708 -6.1811e-08 6.62061e-16)
(0.139708 -1.01864e-07 6.63862e-16)
(0.139708 -1.4612e-07 6.80988e-16)
(0.139708 -1.93532e-07 6.98525e-16)
(0.139709 -2.43047e-07 7.10948e-16)
(0.139709 -2.93656e-07 7.16722e-16)
(0.139709 -3.44436e-07 7.20758e-16)
(0.139709 -3.94585e-07 7.35918e-16)
(0.139708 -4.43463e-07 7.47943e-16)
(0.139708 -4.90607e-07 7.55423e-16)
(0.139708 -5.35746e-07 7.6355e-16)
(0.139708 -5.78801e-07 7.7386e-16)
(0.139708 -6.19869e-07 7.97764e-16)
(0.139708 -6.59194e-07 8.19041e-16)
(0.139708 -6.97132e-07 8.32464e-16)
(0.139708 -7.341e-07 8.39419e-16)
(0.139708 -7.7052e-07 8.38803e-16)
(0.139708 -8.06765e-07 8.15965e-16)
(0.139708 -8.43097e-07 8.63191e-16)
(0.139708 -8.79614e-07 8.80632e-16)
(0.139708 -9.162e-07 8.94334e-16)
(0.139708 -9.52489e-07 9.45052e-16)
(0.139708 -9.87835e-07 9.445e-16)
(0.139709 -1.0213e-06 1.0148e-15)
(0.139709 -1.05165e-06 1.02545e-15)
(0.139709 -1.07737e-06 1.02975e-15)
(0.139709 -1.0967e-06 1.09856e-15)
(0.139709 -1.10767e-06 1.10255e-15)
(0.139709 -1.10813e-06 1.16274e-15)
(0.139709 -1.09584e-06 1.16136e-15)
(0.139709 -1.06851e-06 1.14787e-15)
(0.139709 -1.02384e-06 1.18011e-15)
(0.139709 -9.59555e-07 1.13782e-15)
(0.139709 -8.7342e-07 1.18367e-15)
(0.139709 -7.63201e-07 1.18356e-15)
(0.139709 -6.26568e-07 1.17748e-15)
(0.139709 -4.60861e-07 1.20252e-15)
(0.139709 -2.62957e-07 1.18668e-15)
(0.139709 -2.93243e-08 1.22277e-15)
(0.139709 2.40072e-07 1.21562e-15)
(0.139709 5.12609e-07 1.18933e-15)
(0.139709 6.40596e-07 1.22312e-15)
(0.139709 6.41654e-07 1.19522e-15)
(0.139709 6.74742e-07 1.20644e-15)
(0.139709 7.45725e-07 1.18818e-15)
(0.139709 8.32046e-07 1.16981e-15)
(0.139709 9.26629e-07 1.1869e-15)
(0.139709 1.02353e-06 1.1661e-15)
(0.139709 1.11814e-06 1.15828e-15)
(0.139709 1.20732e-06 1.14939e-15)
(0.139709 1.28852e-06 1.14379e-15)
(0.139709 1.35972e-06 1.17785e-15)
(0.139709 1.41919e-06 1.1538e-15)
(0.139709 1.46546e-06 1.14941e-15)
(0.139709 1.4965e-06 1.14288e-15)
(0.139709 1.50933e-06 1.13396e-15)
(0.139709 1.50498e-06 1.17179e-15)
(0.139684 1.51005e-06 1.13854e-15)
(0.139684 1.54019e-06 1.09899e-15)
(0.139684 1.53755e-06 1.0391e-15)
(0.139684 1.52117e-06 1.00634e-15)
(0.139684 1.49324e-06 9.71342e-16)
(0.139684 1.45476e-06 9.98763e-16)
(0.139684 1.40809e-06 1.03657e-15)
(0.139684 1.35456e-06 1.02315e-15)
(0.139684 1.2955e-06 1.02202e-15)
(0.139684 1.23217e-06 1.03212e-15)
(0.139683 1.16565e-06 9.94209e-16)
(0.139683 1.09686e-06 9.40103e-16)
(0.139683 1.02653e-06 9.02236e-16)
(0.139683 9.55175e-07 8.69218e-16)
(0.139683 8.8311e-07 8.51645e-16)
(0.139683 8.10415e-07 8.39838e-16)
(0.139683 7.36951e-07 8.1969e-16)
(0.139683 6.62373e-07 8.051e-16)
(0.139683 5.86154e-07 7.85374e-16)
(0.139683 5.07618e-07 7.73534e-16)
(0.139682 4.26003e-07 7.52881e-16)
(0.139682 3.40519e-07 8.14763e-16)
(0.139682 2.50443e-07 8.24359e-16)
(0.139682 1.5525e-07 8.26719e-16)
(0.139682 5.47246e-08 8.64146e-16)
(0.139682 -5.09205e-08 8.37639e-16)
(0.139681 -1.60971e-07 8.25066e-16)
(0.139681 -2.74188e-07 8.38417e-16)
(0.139681 -3.88821e-07 8.52931e-16)
(0.139681 -5.02662e-07 8.96053e-16)
(0.139681 -6.13124e-07 8.64964e-16)
(0.13968 -7.17342e-07 8.44401e-16)
(0.13968 -8.12286e-07 8.51263e-16)
(0.13968 -8.94877e-07 8.52295e-16)
(0.13968 -9.62088e-07 8.88329e-16)
(0.13968 -1.01103e-06 8.60241e-16)
(0.13968 -1.03903e-06 8.30765e-16)
(0.13968 -1.04364e-06 8.27795e-16)
(0.13968 -1.02263e-06 8.30514e-16)
(0.13968 -9.73918e-07 8.62881e-16)
(0.13968 -8.95466e-07 8.57562e-16)
(0.13968 -7.85333e-07 8.41734e-16)
(0.13968 -6.42257e-07 8.24517e-16)
(0.13968 -4.70455e-07 8.14965e-16)
(0.139681 -2.9689e-07 8.00815e-16)
(0.139681 -2.26864e-07 7.81865e-16)
(0.139681 -2.58313e-07 7.63164e-16)
(0.139681 -2.80821e-07 7.47337e-16)
(0.139681 -2.76972e-07 7.40678e-16)
(0.139682 -2.57175e-07 7.33567e-16)
(0.139682 -2.264e-07 7.24346e-16)
(0.139682 -1.89831e-07 7.16989e-16)
(0.139682 -1.51619e-07 7.07737e-16)
(0.139682 -1.14634e-07 6.98774e-16)
(0.139682 -8.10785e-08 6.8758e-16)
(0.139683 -5.26378e-08 7.08134e-16)
(0.139683 -3.05511e-08 7.14785e-16)
(0.139683 -1.56746e-08 7.16896e-16)
(0.139683 -8.5198e-09 7.16104e-16)
(0.139683 -9.28617e-09 7.0947e-16)
(0.139683 -1.78938e-08 7.24089e-16)
(0.139683 -3.4017e-08 7.37278e-16)
(0.139683 -5.71193e-08 7.43969e-16)
(0.139683 -8.64916e-08 7.47604e-16)
(0.139683 -1.21293e-07 7.45217e-16)
(0.139683 -1.60589e-07 7.62249e-16)
(0.139683 -2.03402e-07 7.83728e-16)
(0.139683 -2.48747e-07 7.9827e-16)
(0.139683 -2.95679e-07 8.05831e-16)
(0.139683 -3.43332e-07 8.04574e-16)
(0.139683 -3.90955e-07 8.19461e-16)
(0.139683 -4.37944e-07 8.3537e-16)
(0.139683 -4.83853e-07 8.44117e-16)
(0.139683 -5.28415e-07 8.52055e-16)
(0.139683 -5.7153e-07 8.56509e-16)
(0.139683 -6.13255e-07 8.86469e-16)
(0.139683 -6.53775e-07 9.0593e-16)
(0.139683 -6.9337e-07 9.19514e-16)
(0.139683 -7.32368e-07 9.25054e-16)
(0.139683 -7.71092e-07 9.14936e-16)
(0.139683 -8.0981e-07 8.59536e-16)
(0.139683 -8.48678e-07 9.19654e-16)
(0.139683 -8.87692e-07 9.17262e-16)
(0.139683 -9.2664e-07 9.22042e-16)
(0.139683 -9.6507e-07 1.00186e-15)
(0.139683 -1.00226e-06 9.2811e-16)
(0.139683 -1.03723e-06 1.09444e-15)
(0.139684 -1.06869e-06 1.05139e-15)
(0.139684 -1.09511e-06 1.03694e-15)
(0.139684 -1.11474e-06 1.21531e-15)
(0.139684 -1.12562e-06 1.03014e-15)
(0.139684 -1.12567e-06 1.2909e-15)
(0.139684 -1.11269e-06 1.18199e-15)
(0.139684 -1.0845e-06 1.14654e-15)
(0.139684 -1.03891e-06 1.20108e-15)
(0.139684 -9.738e-07 1.14854e-15)
(0.139684 -8.87136e-07 1.1797e-15)
(0.139684 -7.76941e-07 1.18466e-15)
(0.139684 -6.41247e-07 1.16979e-15)
(0.139684 -4.77996e-07 1.30421e-15)
(0.139684 -2.85131e-07 1.16678e-15)
(0.139684 -6.12196e-08 1.28696e-15)
(0.139684 1.89688e-07 1.21525e-15)
(0.139684 4.4073e-07 1.1694e-15)
(0.139684 5.86359e-07 1.22421e-15)
(0.139684 6.28393e-07 1.1394e-15)
(0.139684 6.77472e-07 1.31706e-15)
(0.139684 7.50907e-07 1.17931e-15)
(0.139684 8.37962e-07 1.14625e-15)
(0.139684 9.33279e-07 1.17388e-15)
(0.139684 1.03125e-06 1.07607e-15)
(0.139684 1.12728e-06 1.12257e-15)
(0.139684 1.21803e-06 1.11679e-15)
(0.139684 1.30074e-06 1.10219e-15)
(0.139684 1.37315e-06 1.1623e-15)
(0.139684 1.43308e-06 1.05879e-15)
(0.139684 1.47863e-06 1.09793e-15)
(0.139684 1.50684e-06 1.10362e-15)
(0.139684 1.51407e-06 1.09034e-15)
(0.139684 1.49734e-06 1.15125e-15)
(0.139648 1.51205e-06 1.09816e-15)
(0.139648 1.55304e-06 1.06435e-15)
(0.139648 1.55998e-06 1.03483e-15)
(0.139648 1.55179e-06 1.0107e-15)
(0.139648 1.52935e-06 9.86577e-16)
(0.139648 1.49412e-06 9.91099e-16)
(0.139648 1.44922e-06 1.00414e-15)
(0.139648 1.39637e-06 9.92877e-16)
(0.139648 1.33724e-06 9.81576e-16)
(0.139648 1.27341e-06 9.74643e-16)
(0.139648 1.20624e-06 9.46522e-16)
(0.139648 1.13694e-06 9.07254e-16)
(0.139648 1.06648e-06 8.71395e-16)
(0.139647 9.95632e-07 8.41445e-16)
(0.139647 9.24902e-07 8.20911e-16)
(0.139647 8.54517e-07 8.11248e-16)
(0.139647 7.84421e-07 8.005e-16)
(0.139647 7.14271e-07 7.85577e-16)
(0.139647 6.4346e-07 7.66693e-16)
(0.139647 5.71143e-07 7.50941e-16)
(0.139647 4.96299e-07 7.42474e-16)
(0.139647 4.17802e-07 7.74735e-16)
(0.139646 3.34523e-07 7.98699e-16)
(0.139646 2.45509e-07 8.16625e-16)
(0.139646 1.50115e-07 8.47965e-16)
(0.139646 4.81782e-08 8.55784e-16)
(0.139646 -5.98954e-08 8.61199e-16)
(0.139645 -1.73083e-07 8.70638e-16)
(0.139645 -2.89754e-07 8.8395e-16)
(0.139645 -4.07723e-07 9.11018e-16)
(0.139645 -5.24335e-07 9.14113e-16)
(0.139645 -6.36586e-07 9.11849e-16)
(0.139644 -7.41248e-07 9.1196e-16)
(0.139644 -8.35003e-07 9.13342e-16)
(0.139644 -9.1457e-07 9.34601e-16)
(0.139644 -9.76814e-07 9.32042e-16)
(0.139644 -1.01883e-06 9.17196e-16)
(0.139644 -1.038e-06 9.06478e-16)
(0.139644 -1.03201e-06 9.03723e-16)
(0.139644 -9.98863e-07 9.17899e-16)
(0.139644 -9.36831e-07 9.18698e-16)
(0.139644 -8.44771e-07 9.13324e-16)
(0.139644 -7.22885e-07 9.00271e-16)
(0.139645 -5.77446e-07 8.99611e-16)
(0.139645 -4.30481e-07 8.80627e-16)
(0.139645 -3.5608e-07 8.5501e-16)
(0.139645 -3.59837e-07 8.34567e-16)
(0.139646 -3.67742e-07 8.20255e-16)
(0.139646 -3.59954e-07 8.21833e-16)
(0.139646 -3.39111e-07 8.12273e-16)
(0.139646 -3.07727e-07 7.991e-16)
(0.139646 -2.69954e-07 7.94171e-16)
(0.139646 -2.29644e-07 7.84442e-16)
(0.139647 -1.89723e-07 7.75994e-16)
(0.139647 -1.52523e-07 7.56972e-16)
(0.139647 -1.19864e-07 7.84055e-16)
(0.139647 -9.31145e-08 8.05972e-16)
(0.139647 -7.32498e-08 8.00797e-16)
(0.139647 -6.08851e-08 7.97816e-16)
(0.139647 -5.63108e-08 7.82238e-16)
(0.139648 -5.95263e-08 8.49147e-16)
(0.139648 -7.02762e-08 8.30079e-16)
(0.139648 -8.80879e-08 8.35525e-16)
(0.139648 -1.12313e-07 8.38245e-16)
(0.139648 -1.42168e-07 8.23795e-16)
(0.139648 -1.7678e-07 8.48726e-16)
(0.139648 -2.15229e-07 8.7483e-16)
(0.139648 -2.56592e-07 8.89168e-16)
(0.139648 -2.99981e-07 8.97298e-16)
(0.139648 -3.44587e-07 8.84915e-16)
(0.139648 -3.89705e-07 9.51411e-16)
(0.139648 -4.34767e-07 9.2887e-16)
(0.139648 -4.7935e-07 9.3648e-16)
(0.139648 -5.23192e-07 9.44219e-16)
(0.139648 -5.6618e-07 9.37842e-16)
(0.139648 -6.08341e-07 9.68279e-16)
(0.139648 -6.49809e-07 1.00186e-15)
(0.139648 -6.90799e-07 1.01069e-15)
(0.139648 -7.31555e-07 1.01381e-15)
(0.139648 -7.7231e-07 9.95593e-16)
(0.139648 -8.13232e-07 9.67151e-16)
(0.139648 -8.54375e-07 9.48559e-16)
(0.139648 -8.9563e-07 9.25699e-16)
(0.139648 -9.36692e-07 8.60204e-16)
(0.139648 -9.7702e-07 9.47602e-16)
(0.139648 -1.01582e-06 1.13605e-15)
(0.139648 -1.05204e-06 1.0736e-15)
(0.139648 -1.08437e-06 1.04387e-15)
(0.139648 -1.11124e-06 1.04833e-15)
(0.139648 -1.13092e-06 1.06382e-15)
(0.139648 -1.14145e-06 1.22275e-15)
(0.139648 -1.14082e-06 1.11234e-15)
(0.139648 -1.12691e-06 1.1654e-15)
(0.139648 -1.09762e-06 1.14972e-15)
(0.139648 -1.05092e-06 1.12604e-15)
(0.139648 -9.84862e-07 1.18608e-15)
(0.139648 -8.9762e-07 1.10174e-15)
(0.139648 -7.87514e-07 1.14762e-15)
(0.139648 -6.52974e-07 1.11197e-15)
(0.139648 -4.92569e-07 1.17441e-15)
(0.139648 -3.05266e-07 1.25794e-15)
(0.139648 -9.12738e-08 1.17726e-15)
(0.139648 1.43154e-07 1.18588e-15)
(0.139649 3.76008e-07 1.15986e-15)
(0.139649 5.33026e-07 1.17808e-15)
(0.139649 6.08475e-07 1.26197e-15)
(0.139649 6.76518e-07 1.19657e-15)
(0.139649 7.56971e-07 1.145e-15)
(0.139649 8.47004e-07 1.1207e-15)
(0.139649 9.43849e-07 1.07841e-15)
(0.139649 1.04306e-06 1.15318e-15)
(0.139649 1.14042e-06 1.13159e-15)
(0.139649 1.23261e-06 1.09242e-15)
(0.139649 1.31673e-06 1.07696e-15)
(0.139649 1.39028e-06 1.00177e-15)
(0.139649 1.45073e-06 1.17595e-15)
(0.139649 1.49583e-06 1.06335e-15)
(0.139648 1.52174e-06 1.06947e-15)
(0.139648 1.52471e-06 1.05804e-15)
(0.139648 1.49942e-06 9.82556e-16)
(0.139603 1.52009e-06 1.10099e-15)
(0.139603 1.56962e-06 1.01961e-15)
(0.139603 1.5845e-06 1.02834e-15)
(0.139603 1.58344e-06 1.01738e-15)
(0.139603 1.5659e-06 9.97078e-16)
(0.139603 1.53359e-06 9.93317e-16)
(0.139603 1.49017e-06 9.85728e-16)
(0.139603 1.43772e-06 9.63481e-16)
(0.139603 1.37828e-06 9.45182e-16)
(0.139603 1.31375e-06 9.25548e-16)
(0.139603 1.2458e-06 8.97113e-16)
(0.139602 1.17591e-06 8.66917e-16)
(0.139602 1.10532e-06 8.34116e-16)
(0.139602 1.03504e-06 8.08407e-16)
(0.139602 9.6574e-07 7.88638e-16)
(0.139602 8.97796e-07 7.86768e-16)
(0.139602 8.31212e-07 7.83922e-16)
(0.139602 7.65626e-07 7.66993e-16)
(0.139602 7.00337e-07 7.46778e-16)
(0.139602 6.34304e-07 7.28903e-16)
(0.139602 5.66239e-07 7.32178e-16)
(0.139601 4.94661e-07 7.63075e-16)
(0.139601 4.18022e-07 7.92207e-16)
(0.139601 3.34929e-07 8.20603e-16)
(0.139601 2.44314e-07 8.55818e-16)
(0.139601 1.45643e-07 8.82084e-16)
(0.1396 3.90409e-08 9.01035e-16)
(0.1396 -7.46543e-08 9.10636e-16)
(0.1396 -1.93894e-07 9.24003e-16)
(0.1396 -3.16477e-07 9.49243e-16)
(0.1396 -4.39652e-07 9.66765e-16)
(0.139599 -5.60246e-07 9.76373e-16)
(0.139599 -6.74815e-07 9.75953e-16)
(0.139599 -7.798e-07 9.79771e-16)
(0.139599 -8.7167e-07 9.9735e-16)
(0.139599 -9.47056e-07 1.00723e-15)
(0.139599 -1.00285e-06 1.00122e-15)
(0.139599 -1.0363e-06 9.86685e-16)
(0.139599 -1.04503e-06 9.82904e-16)
(0.139599 -1.02712e-06 9.88634e-16)
(0.139599 -9.81175e-07 9.85426e-16)
(0.139599 -9.06698e-07 9.85415e-16)
(0.139599 -8.04901e-07 9.73235e-16)
(0.1396 -6.82832e-07 9.96011e-16)
(0.1396 -5.58455e-07 9.61074e-16)
(0.1396 -4.83952e-07 9.24349e-16)
(0.1396 -4.67694e-07 9.02003e-16)
(0.139601 -4.61164e-07 8.90603e-16)
(0.139601 -4.46611e-07 9.12354e-16)
(0.139601 -4.22393e-07 8.93163e-16)
(0.139601 -3.88941e-07 8.72835e-16)
(0.139601 -3.4917e-07 8.73696e-16)
(0.139601 -3.06382e-07 8.62487e-16)
(0.139602 -2.63387e-07 8.53799e-16)
(0.139602 -2.22545e-07 8.09809e-16)
(0.139602 -1.85762e-07 8.83477e-16)
(0.139602 -1.54512e-07 8.9535e-16)
(0.139602 -1.29869e-07 8.88057e-16)
(0.139602 -1.1254e-07 8.83219e-16)
(0.139602 -1.02899e-07 8.47806e-16)
(0.139603 -1.01014e-07 9.00378e-16)
(0.139603 -1.06692e-07 9.33118e-16)
(0.139603 -1.19517e-07 9.31646e-16)
(0.139603 -1.38892e-07 9.36372e-16)
(0.139603 -1.64086e-07 8.90142e-16)
(0.139603 -1.94275e-07 9.43938e-16)
(0.139603 -2.28594e-07 9.71408e-16)
(0.139603 -2.66172e-07 9.82356e-16)
(0.139603 -3.06175e-07 9.91645e-16)
(0.139603 -3.47843e-07 9.55854e-16)
(0.139603 -3.90516e-07 1.00418e-15)
(0.139603 -4.3366e-07 1.03322e-15)
(0.139603 -4.76877e-07 1.03192e-15)
(0.139603 -5.19913e-07 1.04053e-15)
(0.139603 -5.62647e-07 1.01118e-15)
(0.139603 -6.05079e-07 1.06717e-15)
(0.139603 -6.47301e-07 1.09383e-15)
(0.139603 -6.89465e-07 1.10472e-15)
(0.139603 -7.31743e-07 1.10379e-15)
(0.139603 -7.7428e-07 1.06835e-15)
(0.139603 -8.17148e-07 1.09769e-15)
(0.139603 -8.60302e-07 1.06853e-15)
(0.139603 -9.03535e-07 1.06693e-15)
(0.139603 -9.46444e-07 1.10367e-15)
(0.139603 -9.88402e-07 1.12218e-15)
(0.139603 -1.02854e-06 1.19046e-15)
(0.139603 -1.06575e-06 1.18196e-15)
(0.139603 -1.09866e-06 1.1709e-15)
(0.139603 -1.12572e-06 1.18987e-15)
(0.139603 -1.14517e-06 1.21192e-15)
(0.139603 -1.1551e-06 1.29554e-15)
(0.139603 -1.15353e-06 1.29506e-15)
(0.139603 -1.13845e-06 1.27165e-15)
(0.139603 -1.10787e-06 1.27145e-15)
(0.139603 -1.0599e-06 1.26825e-15)
(0.139603 -9.9278e-07 1.31873e-15)
(0.139603 -9.04925e-07 1.27001e-15)
(0.139603 -7.9496e-07 1.25703e-15)
(0.139603 -6.61713e-07 1.27188e-15)
(0.139603 -5.04344e-07 1.25963e-15)
(0.139603 -3.2268e-07 1.32133e-15)
(0.139603 -1.18096e-07 1.30732e-15)
(0.139603 1.02261e-07 1.28133e-15)
(0.139604 3.20378e-07 1.26787e-15)
(0.139604 4.83973e-07 1.25429e-15)
(0.139604 5.84655e-07 1.31304e-15)
(0.139604 6.71077e-07 1.2738e-15)
(0.139604 7.61047e-07 1.23008e-15)
(0.139604 8.56145e-07 1.22976e-15)
(0.139604 9.55816e-07 1.19736e-15)
(0.139604 1.05698e-06 1.26057e-15)
(0.139604 1.15607e-06 1.25993e-15)
(0.139604 1.24995e-06 1.20094e-15)
(0.139604 1.33566e-06 1.17676e-15)
(0.139604 1.41059e-06 1.16195e-15)
(0.139603 1.47186e-06 1.22643e-15)
(0.139603 1.51696e-06 1.22254e-15)
(0.139603 1.5412e-06 1.17823e-15)
(0.139603 1.54061e-06 1.15397e-15)
(0.139603 1.50798e-06 1.12265e-15)
(0.13955 1.53393e-06 1.11809e-15)
(0.13955 1.5909e-06 1.059e-15)
(0.13955 1.61212e-06 1.04288e-15)
(0.139549 1.61688e-06 1.02639e-15)
(0.139549 1.60335e-06 1.00414e-15)
(0.139549 1.57337e-06 1.00236e-15)
(0.139549 1.53096e-06 9.73214e-16)
(0.139549 1.47852e-06 9.32577e-16)
(0.139549 1.41846e-06 9.11354e-16)
(0.139549 1.35299e-06 8.79141e-16)
(0.139549 1.28409e-06 8.46306e-16)
(0.139549 1.21352e-06 8.24865e-16)
(0.139549 1.14279e-06 7.9127e-16)
(0.139549 1.07312e-06 7.72706e-16)
(0.139549 1.00536e-06 7.54958e-16)
(0.139548 9.40008e-07 7.70243e-16)
(0.139548 8.77103e-07 7.74129e-16)
(0.139548 8.16248e-07 7.48125e-16)
(0.139548 7.56619e-07 7.25882e-16)
(0.139548 6.96965e-07 7.04961e-16)
(0.139548 6.35709e-07 7.29354e-16)
(0.139548 5.70996e-07 7.74773e-16)
(0.139547 5.00837e-07 8.04697e-16)
(0.139547 4.23393e-07 8.41259e-16)
(0.139547 3.3716e-07 8.84717e-16)
(0.139547 2.41248e-07 9.23298e-16)
(0.139547 1.35529e-07 9.52161e-16)
(0.139546 2.0693e-08 9.56913e-16)
(0.139546 -1.01751e-07 9.71096e-16)
(0.139546 -2.29542e-07 1.00199e-15)
(0.139546 -3.59789e-07 1.02784e-15)
(0.139546 -4.8912e-07 1.0449e-15)
(0.139546 -6.13852e-07 1.04095e-15)
(0.139545 -7.30174e-07 1.05279e-15)
(0.139545 -8.3431e-07 1.0746e-15)
(0.139545 -9.22667e-07 1.09417e-15)
(0.139545 -9.91961e-07 1.09011e-15)
(0.139545 -1.03931e-06 1.06648e-15)
(0.139545 -1.06232e-06 1.06968e-15)
(0.139545 -1.05916e-06 1.07255e-15)
(0.139545 -1.02868e-06 1.05642e-15)
(0.139546 -9.70898e-07 1.04654e-15)
(0.139546 -8.87645e-07 1.03822e-15)
(0.139546 -7.85995e-07 1.08863e-15)
(0.139546 -6.80626e-07 1.03502e-15)
(0.139546 -6.08568e-07 9.86077e-16)
(0.139547 -5.78644e-07 9.63989e-16)
(0.139547 -5.59594e-07 9.56711e-16)
(0.139547 -5.37169e-07 1.01421e-15)
(0.139547 -5.07926e-07 9.70119e-16)
(0.139548 -4.71014e-07 9.42307e-16)
(0.139548 -4.28284e-07 9.84391e-16)
(0.139548 -3.82427e-07 9.37061e-16)
(0.139548 -3.36027e-07 9.25632e-16)
(0.139548 -2.91393e-07 8.59359e-16)
(0.139548 -2.50466e-07 9.75078e-16)
(0.139549 -2.14786e-07 9.8647e-16)
(0.139549 -1.85506e-07 9.73892e-16)
(0.139549 -1.63408e-07 9.63838e-16)
(0.139549 -1.48932e-07 8.98751e-16)
(0.139549 -1.42208e-07 1.05738e-15)
(0.139549 -1.43092e-07 1.06923e-15)
(0.139549 -1.51215e-07 1.0292e-15)
(0.139549 -1.66024e-07 1.06373e-15)
(0.139549 -1.86828e-07 9.53875e-16)
(0.139549 -2.1285e-07 1.10138e-15)
(0.139549 -2.43268e-07 1.0704e-15)
(0.139549 -2.77258e-07 1.07483e-15)
(0.139549 -3.14035e-07 1.12243e-15)
(0.139549 -3.52885e-07 1.01465e-15)
(0.139549 -3.93189e-07 1.12281e-15)
(0.139549 -4.34447e-07 1.17175e-15)
(0.139549 -4.76286e-07 1.12982e-15)
(0.139549 -5.1846e-07 1.12878e-15)
(0.139549 -5.60843e-07 1.02519e-15)
(0.139549 -6.03413e-07 1.22228e-15)
(0.139549 -6.46224e-07 1.18945e-15)
(0.139549 -6.89373e-07 1.19679e-15)
(0.139549 -7.32959e-07 1.19292e-15)
(0.139549 -7.77047e-07 1.12368e-15)
(0.139549 -8.21616e-07 1.22178e-15)
(0.139549 -8.66526e-07 1.20334e-15)
(0.139549 -9.11471e-07 1.19422e-15)
(0.139549 -9.55956e-07 1.30695e-15)
(0.139549 -9.99267e-07 1.25068e-15)
(0.13955 -1.04046e-06 1.33045e-15)
(0.13955 -1.07837e-06 1.30428e-15)
(0.13955 -1.11159e-06 1.28741e-15)
(0.13955 -1.13855e-06 1.34593e-15)
(0.13955 -1.15749e-06 1.33184e-15)
(0.13955 -1.16654e-06 1.46227e-15)
(0.13955 -1.16378e-06 1.39783e-15)
(0.13955 -1.1473e-06 1.36924e-15)
(0.13955 -1.11522e-06 1.41354e-15)
(0.13955 -1.06581e-06 1.37627e-15)
(0.13955 -9.97523e-07 1.47761e-15)
(0.13955 -9.08998e-07 1.38513e-15)
(0.13955 -7.99176e-07 1.35246e-15)
(0.13955 -6.67263e-07 1.48423e-15)
(0.13955 -5.12944e-07 1.36186e-15)
(0.13955 -3.36713e-07 1.43112e-15)
(0.13955 -1.40699e-07 1.39883e-15)
(0.13955 6.78337e-08 1.35965e-15)
(0.13955 2.74117e-07 1.43829e-15)
(0.13955 4.41103e-07 1.35149e-15)
(0.13955 5.60079e-07 1.44802e-15)
(0.13955 6.62474e-07 1.35415e-15)
(0.13955 7.62689e-07 1.30398e-15)
(0.13955 8.64226e-07 1.34432e-15)
(0.13955 9.67946e-07 1.30412e-15)
(0.13955 1.07195e-06 1.40977e-15)
(0.13955 1.1734e-06 1.38204e-15)
(0.13955 1.26942e-06 1.29144e-15)
(0.13955 1.35713e-06 1.29018e-15)
(0.13955 1.43384e-06 1.24033e-15)
(0.13955 1.49637e-06 1.31334e-15)
(0.13955 1.54205e-06 1.34989e-15)
(0.13955 1.56531e-06 1.25969e-15)
(0.13955 1.56187e-06 1.29763e-15)
(0.13955 1.52243e-06 1.1806e-15)
(0.139488 1.55346e-06 1.12467e-15)
(0.139488 1.61705e-06 1.07886e-15)
(0.139488 1.64327e-06 1.06018e-15)
(0.139488 1.65258e-06 1.03573e-15)
(0.139488 1.64203e-06 1.0069e-15)
(0.139488 1.61362e-06 1.02144e-15)
(0.139488 1.57162e-06 9.57732e-16)
(0.139488 1.51872e-06 8.94463e-16)
(0.139488 1.45766e-06 8.8177e-16)
(0.139488 1.39098e-06 8.29191e-16)
(0.139487 1.32093e-06 7.91621e-16)
(0.139487 1.24958e-06 7.8689e-16)
(0.139487 1.17868e-06 7.38934e-16)
(0.139487 1.10967e-06 7.3807e-16)
(0.139487 1.04357e-06 7.20014e-16)
(0.139487 9.80971e-07 7.70078e-16)
(0.139487 9.21936e-07 7.74332e-16)
(0.139487 8.66e-07 7.24852e-16)
(0.139487 8.12197e-07 7.05118e-16)
(0.139487 7.59036e-07 6.75754e-16)
(0.139486 7.04635e-07 7.42249e-16)
(0.139486 6.46743e-07 8.13907e-16)
(0.139486 5.82906e-07 8.33409e-16)
(0.139486 5.10819e-07 8.79071e-16)
(0.139486 4.28536e-07 9.33092e-16)
(0.139486 3.34823e-07 9.80169e-16)
(0.139485 2.29327e-07 1.01588e-15)
(0.139485 1.12632e-07 1.00487e-15)
(0.139485 -1.37378e-08 1.02408e-15)
(0.139485 -1.47413e-07 1.06812e-15)
(0.139485 -2.85316e-07 1.09844e-15)
(0.139484 -4.23834e-07 1.11776e-15)
(0.139484 -5.59026e-07 1.10121e-15)
(0.139484 -6.86815e-07 1.14133e-15)
(0.139484 -8.0318e-07 1.16935e-15)
(0.139484 -9.04319e-07 1.1976e-15)
(0.139484 -9.86787e-07 1.18842e-15)
(0.139484 -1.0476e-06 1.14118e-15)
(0.139484 -1.08435e-06 1.17273e-15)
(0.139484 -1.09529e-06 1.16971e-15)
(0.139484 -1.07948e-06 1.12609e-15)
(0.139484 -1.03727e-06 1.10293e-15)
(0.139485 -9.70853e-07 1.08397e-15)
(0.139485 -8.8691e-07 1.10376e-15)
(0.139485 -7.97497e-07 1.07105e-15)
(0.139485 -7.29237e-07 1.0397e-15)
(0.139486 -6.90416e-07 1.02158e-15)
(0.139486 -6.61204e-07 1.01605e-15)
(0.139486 -6.30889e-07 1.03818e-15)
(0.139486 -5.95717e-07 1.02095e-15)
(0.139486 -5.54285e-07 1.00552e-15)
(0.139487 -5.07705e-07 1.00885e-15)
(0.139487 -4.58141e-07 1.00178e-15)
(0.139487 -4.07921e-07 9.99239e-16)
(0.139487 -3.59258e-07 9.67929e-16)
(0.139487 -3.14085e-07 1.04131e-15)
(0.139487 -2.7398e-07 1.05738e-15)
(0.139487 -2.4015e-07 1.05229e-15)
(0.139488 -2.13432e-07 1.0495e-15)
(0.139488 -1.94319e-07 1.02358e-15)
(0.139488 -1.82984e-07 1.08019e-15)
(0.139488 -1.79325e-07 1.11253e-15)
(0.139488 -1.83008e-07 1.11124e-15)
(0.139488 -1.93513e-07 1.11627e-15)
(0.139488 -2.10185e-07 1.07482e-15)
(0.139488 -2.3228e-07 1.1304e-15)
(0.139488 -2.59018e-07 1.1534e-15)
(0.139488 -2.89615e-07 1.16302e-15)
(0.139488 -3.23329e-07 1.17138e-15)
(0.139488 -3.59487e-07 1.14119e-15)
(0.139488 -3.9751e-07 1.19402e-15)
(0.139488 -4.36931e-07 1.21824e-15)
(0.139488 -4.77399e-07 1.21613e-15)
(0.139488 -5.18678e-07 1.22321e-15)
(0.139488 -5.6064e-07 1.19624e-15)
(0.139488 -6.03243e-07 1.24515e-15)
(0.139488 -6.46503e-07 1.273e-15)
(0.139488 -6.90467e-07 1.28506e-15)
(0.139488 -7.35167e-07 1.28282e-15)
(0.139488 -7.80588e-07 1.25448e-15)
(0.139488 -8.26622e-07 1.29579e-15)
(0.139488 -8.73035e-07 1.30725e-15)
(0.139488 -9.19427e-07 1.30334e-15)
(0.139488 -9.65211e-07 1.33665e-15)
(0.139488 -1.00959e-06 1.34433e-15)
(0.139488 -1.05155e-06 1.3892e-15)
(0.139488 -1.08987e-06 1.39661e-15)
(0.139488 -1.12311e-06 1.38512e-15)
(0.139488 -1.14967e-06 1.41149e-15)
(0.139489 -1.16782e-06 1.41748e-15)
(0.139489 -1.17572e-06 1.46864e-15)
(0.139489 -1.17153e-06 1.47236e-15)
(0.139489 -1.15342e-06 1.45034e-15)
(0.139489 -1.11966e-06 1.45955e-15)
(0.139489 -1.06867e-06 1.4482e-15)
(0.139489 -9.99101e-07 1.47318e-15)
(0.139489 -9.09847e-07 1.45451e-15)
(0.139489 -8.00153e-07 1.42722e-15)
(0.139489 -6.69568e-07 1.43237e-15)
(0.139489 -5.18225e-07 1.42577e-15)
(0.139489 -3.471e-07 1.46282e-15)
(0.139489 -1.5875e-07 1.45036e-15)
(0.139489 3.98721e-08 1.41838e-15)
(0.139489 2.36606e-07 1.42436e-15)
(0.139489 4.04906e-07 1.40184e-15)
(0.139489 5.3677e-07 1.42606e-15)
(0.139489 6.52251e-07 1.39706e-15)
(0.139489 7.62327e-07 1.36073e-15)
(0.139489 8.7093e-07 1.36998e-15)
(0.139489 9.79596e-07 1.35699e-15)