/*--------------------------------*- C++ -*----------------------------------*\
  =========                 |
  \\      /  F ield         | OpenFOAM: The Open Source CFD Toolbox
   \\    /   O peration     | Website:  https://openfoam.org
    \\  /    A nd           | Version:  7
     \\/     M anipulation  |
\*---------------------------------------------------------------------------*/
FoamFile
{
    version     2.0;
    format      ascii;
    class       volScalarField;
    location    "0";
    object      Cz;
}
// * * * * * * * * * * * * * * * * * * * * * * * * * * * * * * * * * * * * * //

dimensions      [0 1 0 0 0 0 0];

internalField   nonuniform List<scalar> 
100
(
0
0
0
0
0
0
0
0
-2.89121e-19
0
4.0726e-18
0
0
6.64432e-18
0
0
0
0
0
0
0
0
0
0
2.09387e-18
0
0
-2.89121e-19
0
0
0
-2.89121e-19
-2.89121e-19
0
0
0
0
0
0
0
0
0
-5.20882e-18
0
0
0
0
0
0
0
5.02932e-18
-2.62174e-18
0
0
0
0
0
-3.3815e-18
-2.89121e-19
1.98767e-18
0
-4.3101e-18
0
2.33892e-18
0
0
0
0
0
0
0
0
0
0
0
0
0
0
0
4.63665e-18
0
-7.74215e-18
3.0811e-18
0
0
0
0
0
0
0
0
0
0
0
0
0
0
0
0
0
)
;

boundaryField
{
    bottomWall
    {
        type            calculated;
        value           uniform 0;
    }
    topWall
    {
        type            calculated;
        value           uniform 0;
    }
    sides1_half0
    {
        type            empty;
    }
    sides1_half1
    {
        type            empty;
    }
    sides2_half0
    {
        type            empty;
    }
    sides2_half1
    {
        type            empty;
    }
    inout1_half0
    {
        type            cyclic;
    }
    inout1_half1
    {
        type            cyclic;
    }
    inout2_half0
    {
        type            cyclic;
    }
    inout2_half1
    {
        type            cyclic;
    }
}


// ************************************************************************* //
