/*--------------------------------*- C++ -*----------------------------------*\
  =========                 |
  \\      /  F ield         | OpenFOAM: The Open Source CFD Toolbox
   \\    /   O peration     | Website:  https://openfoam.org
    \\  /    A nd           | Version:  7
     \\/     M anipulation  |
\*---------------------------------------------------------------------------*/
FoamFile
{
    version     2.0;
    format      ascii;
    class       volScalarField;
    location    "4000";
    object      k;
}
// * * * * * * * * * * * * * * * * * * * * * * * * * * * * * * * * * * * * * //

dimensions      [0 2 -2 0 0 0 0];

internalField   nonuniform List<scalar> 
4000
(
9.31978e-05
9.31963e-05
9.31964e-05
9.31967e-05
9.31971e-05
9.31975e-05
9.31978e-05
9.31982e-05
9.31985e-05
9.31989e-05
9.31992e-05
9.31995e-05
9.31998e-05
9.32001e-05
9.32004e-05
9.32008e-05
9.32011e-05
9.32014e-05
9.32017e-05
9.32019e-05
9.32022e-05
9.32025e-05
9.32028e-05
9.32031e-05
9.32033e-05
9.32036e-05
9.32038e-05
9.32041e-05
9.32043e-05
9.32046e-05
9.32048e-05
9.3205e-05
9.32053e-05
9.32055e-05
9.32057e-05
9.3206e-05
9.32062e-05
9.32064e-05
9.32067e-05
9.32069e-05
9.32071e-05
9.32073e-05
9.32075e-05
9.32077e-05
9.32077e-05
9.32054e-05
9.32041e-05
9.32037e-05
9.32038e-05
9.3204e-05
9.32042e-05
9.32044e-05
9.32047e-05
9.3205e-05
9.32052e-05
9.32055e-05
9.32057e-05
9.3206e-05
9.32062e-05
9.32065e-05
9.32067e-05
9.32069e-05
9.32071e-05
9.32074e-05
9.32076e-05
9.32078e-05
9.3208e-05
9.32082e-05
9.32084e-05
9.32085e-05
9.32087e-05
9.32089e-05
9.3209e-05
9.32092e-05
9.32093e-05
9.32095e-05
9.32096e-05
9.32097e-05
9.32098e-05
9.321e-05
9.32101e-05
9.32102e-05
9.32103e-05
9.32104e-05
9.32105e-05
9.32106e-05
9.32107e-05
9.32108e-05
9.32109e-05
9.32109e-05
9.3211e-05
9.32111e-05
9.32112e-05
9.32112e-05
9.32113e-05
9.32113e-05
9.32114e-05
9.32114e-05
9.32115e-05
9.32115e-05
9.32115e-05
9.32116e-05
9.32116e-05
9.32114e-05
9.3209e-05
9.32075e-05
9.32069e-05
9.32068e-05
9.32068e-05
9.32069e-05
9.3207e-05
9.3207e-05
9.32071e-05
9.32072e-05
9.32073e-05
9.32074e-05
9.32075e-05
9.32075e-05
9.32077e-05
9.32064e-05
9.33709e-05
9.33694e-05
9.33693e-05
9.33695e-05
9.33698e-05
9.33701e-05
9.33705e-05
9.33708e-05
9.33711e-05
9.33714e-05
9.33717e-05
9.3372e-05
9.33723e-05
9.33726e-05
9.33729e-05
9.33732e-05
9.33735e-05
9.33738e-05
9.33741e-05
9.33743e-05
9.33746e-05
9.33749e-05
9.33752e-05
9.33754e-05
9.33757e-05
9.33759e-05
9.33762e-05
9.33764e-05
9.33767e-05
9.33769e-05
9.33772e-05
9.33774e-05
9.33776e-05
9.33779e-05
9.33781e-05
9.33784e-05
9.33786e-05
9.33788e-05
9.3379e-05
9.33793e-05
9.33795e-05
9.33797e-05
9.33799e-05
9.33801e-05
9.33803e-05
9.33797e-05
9.33789e-05
9.33783e-05
9.33781e-05
9.3378e-05
9.3378e-05
9.33781e-05
9.33783e-05
9.33784e-05
9.33786e-05
9.33788e-05
9.3379e-05
9.33792e-05
9.33793e-05
9.33795e-05
9.33797e-05
9.33799e-05
9.33801e-05
9.33803e-05
9.33805e-05
9.33807e-05
9.33808e-05
9.3381e-05
9.33812e-05
9.33813e-05
9.33815e-05
9.33816e-05
9.33818e-05
9.33819e-05
9.3382e-05
9.33821e-05
9.33823e-05
9.33824e-05
9.33825e-05
9.33826e-05
9.33827e-05
9.33828e-05
9.33829e-05
9.3383e-05
9.33831e-05
9.33831e-05
9.33832e-05
9.33833e-05
9.33834e-05
9.33834e-05
9.33835e-05
9.33836e-05
9.33836e-05
9.33837e-05
9.33837e-05
9.33838e-05
9.33838e-05
9.33838e-05
9.33839e-05
9.33839e-05
9.33839e-05
9.3384e-05
9.3384e-05
9.33839e-05
9.33831e-05
9.33821e-05
9.33814e-05
9.3381e-05
9.33807e-05
9.33805e-05
9.33805e-05
9.33804e-05
9.33804e-05
9.33804e-05
9.33804e-05
9.33804e-05
9.33804e-05
9.33804e-05
9.33805e-05
9.33793e-05
9.36521e-05
9.36506e-05
9.36505e-05
9.36507e-05
9.36509e-05
9.36512e-05
9.36515e-05
9.36517e-05
9.3652e-05
9.36523e-05
9.36526e-05
9.36529e-05
9.36531e-05
9.36534e-05
9.36537e-05
9.3654e-05
9.36543e-05
9.36545e-05
9.36548e-05
9.36551e-05
9.36554e-05
9.36556e-05
9.36559e-05
9.36562e-05
9.36564e-05
9.36567e-05
9.36569e-05
9.36572e-05
9.36574e-05
9.36577e-05
9.36579e-05
9.36581e-05
9.36584e-05
9.36586e-05
9.36589e-05
9.36591e-05
9.36594e-05
9.36596e-05
9.36598e-05
9.36601e-05
9.36603e-05
9.36605e-05
9.36608e-05
9.3661e-05
9.36612e-05
9.36611e-05
9.36608e-05
9.36605e-05
9.36602e-05
9.36601e-05
9.366e-05
9.366e-05
9.36601e-05
9.36602e-05
9.36603e-05
9.36604e-05
9.36605e-05
9.36607e-05
9.36608e-05
9.3661e-05
9.36612e-05
9.36613e-05
9.36615e-05
9.36616e-05
9.36618e-05
9.36619e-05
9.36621e-05
9.36622e-05
9.36624e-05
9.36625e-05
9.36626e-05
9.36628e-05
9.36629e-05
9.3663e-05
9.36631e-05
9.36632e-05
9.36633e-05
9.36634e-05
9.36635e-05
9.36636e-05
9.36637e-05
9.36637e-05
9.36638e-05
9.36639e-05
9.3664e-05
9.3664e-05
9.36641e-05
9.36642e-05
9.36642e-05
9.36643e-05
9.36643e-05
9.36644e-05
9.36644e-05
9.36644e-05
9.36645e-05
9.36645e-05
9.36645e-05
9.36646e-05
9.36646e-05
9.36646e-05
9.36646e-05
9.36646e-05
9.36647e-05
9.36647e-05
9.36644e-05
9.36639e-05
9.36634e-05
9.36629e-05
9.36625e-05
9.36623e-05
9.36621e-05
9.3662e-05
9.36618e-05
9.36618e-05
9.36617e-05
9.36616e-05
9.36616e-05
9.36616e-05
9.36616e-05
9.36604e-05
9.40355e-05
9.4034e-05
9.40338e-05
9.4034e-05
9.40342e-05
9.40344e-05
9.40346e-05
9.40349e-05
9.40351e-05
9.40354e-05
9.40357e-05
9.40359e-05
9.40362e-05
9.40365e-05
9.40367e-05
9.4037e-05
9.40373e-05
9.40375e-05
9.40378e-05
9.40381e-05
9.40384e-05
9.40386e-05
9.40389e-05
9.40391e-05
9.40394e-05
9.40397e-05
9.40399e-05
9.40402e-05
9.40404e-05
9.40407e-05
9.40409e-05
9.40412e-05
9.40414e-05
9.40417e-05
9.40419e-05
9.40422e-05
9.40424e-05
9.40426e-05
9.40429e-05
9.40431e-05
9.40434e-05
9.40436e-05
9.40438e-05
9.40441e-05
9.40443e-05
9.40444e-05
9.40444e-05
9.40443e-05
9.40442e-05
9.40441e-05
9.4044e-05
9.4044e-05
9.4044e-05
9.4044e-05
9.40441e-05
9.40442e-05
9.40443e-05
9.40444e-05
9.40445e-05
9.40446e-05
9.40448e-05
9.40449e-05
9.4045e-05
9.40452e-05
9.40453e-05
9.40454e-05
9.40455e-05
9.40456e-05
9.40458e-05
9.40459e-05
9.4046e-05
9.40461e-05
9.40462e-05
9.40463e-05
9.40464e-05
9.40464e-05
9.40465e-05
9.40466e-05
9.40467e-05
9.40467e-05
9.40468e-05
9.40469e-05
9.40469e-05
9.4047e-05
9.4047e-05
9.40471e-05
9.40471e-05
9.40472e-05
9.40472e-05
9.40473e-05
9.40473e-05
9.40473e-05
9.40474e-05
9.40474e-05
9.40474e-05
9.40474e-05
9.40475e-05
9.40475e-05
9.40475e-05
9.40475e-05
9.40475e-05
9.40475e-05
9.40475e-05
9.40475e-05
9.40474e-05
9.40472e-05
9.40468e-05
9.40465e-05
9.40462e-05
9.40459e-05
9.40457e-05
9.40455e-05
9.40453e-05
9.40452e-05
9.40451e-05
9.4045e-05
9.40449e-05
9.40448e-05
9.40448e-05
9.40436e-05
9.45154e-05
9.45139e-05
9.45137e-05
9.45139e-05
9.4514e-05
9.45143e-05
9.45145e-05
9.45147e-05
9.45149e-05
9.45152e-05
9.45154e-05
9.45157e-05
9.45159e-05
9.45162e-05
9.45165e-05
9.45167e-05
9.4517e-05
9.45173e-05
9.45175e-05
9.45178e-05
9.45181e-05
9.45183e-05
9.45186e-05
9.45189e-05
9.45191e-05
9.45194e-05
9.45196e-05
9.45199e-05
9.45201e-05
9.45204e-05
9.45206e-05
9.45209e-05
9.45212e-05
9.45214e-05
9.45217e-05
9.45219e-05
9.45222e-05
9.45224e-05
9.45227e-05
9.45229e-05
9.45232e-05
9.45234e-05
9.45237e-05
9.45239e-05
9.45241e-05
9.45243e-05
9.45244e-05
9.45245e-05
9.45245e-05
9.45245e-05
9.45244e-05
9.45244e-05
9.45245e-05
9.45245e-05
9.45245e-05
9.45246e-05
9.45247e-05
9.45248e-05
9.45249e-05
9.4525e-05
9.45251e-05
9.45252e-05
9.45253e-05
9.45254e-05
9.45255e-05
9.45256e-05
9.45257e-05
9.45257e-05
9.45258e-05
9.45259e-05
9.4526e-05
9.45261e-05
9.45262e-05
9.45262e-05
9.45263e-05
9.45264e-05
9.45264e-05
9.45265e-05
9.45265e-05
9.45266e-05
9.45266e-05
9.45267e-05
9.45267e-05
9.45268e-05
9.45268e-05
9.45268e-05
9.45268e-05
9.45269e-05
9.45269e-05
9.45269e-05
9.45269e-05
9.4527e-05
9.4527e-05
9.4527e-05
9.4527e-05
9.4527e-05
9.4527e-05
9.4527e-05
9.4527e-05
9.4527e-05
9.4527e-05
9.4527e-05
9.4527e-05
9.4527e-05
9.45269e-05
9.45268e-05
9.45266e-05
9.45264e-05
9.45261e-05
9.45259e-05
9.45257e-05
9.45255e-05
9.45253e-05
9.45251e-05
9.4525e-05
9.45248e-05
9.45247e-05
9.45246e-05
9.45245e-05
9.45234e-05
9.50869e-05
9.50855e-05
9.50853e-05
9.50854e-05
9.50856e-05
9.50858e-05
9.5086e-05
9.50862e-05
9.50865e-05
9.50867e-05
9.50869e-05
9.50872e-05
9.50874e-05
9.50877e-05
9.50879e-05
9.50882e-05
9.50885e-05
9.50887e-05
9.5089e-05
9.50893e-05
9.50896e-05
9.50898e-05
9.50901e-05
9.50904e-05
9.50906e-05
9.50909e-05
9.50911e-05
9.50914e-05
9.50917e-05
9.50919e-05
9.50922e-05
9.50925e-05
9.50927e-05
9.5093e-05
9.50933e-05
9.50935e-05
9.50938e-05
9.5094e-05
9.50943e-05
9.50946e-05
9.50948e-05
9.5095e-05
9.50953e-05
9.50955e-05
9.50957e-05
9.5096e-05
9.50961e-05
9.50963e-05
9.50964e-05
9.50964e-05
9.50965e-05
9.50965e-05
9.50965e-05
9.50966e-05
9.50966e-05
9.50967e-05
9.50968e-05
9.50968e-05
9.50969e-05
9.5097e-05
9.5097e-05
9.50971e-05
9.50972e-05
9.50973e-05
9.50974e-05
9.50974e-05
9.50975e-05
9.50976e-05
9.50976e-05
9.50977e-05
9.50978e-05
9.50978e-05
9.50979e-05
9.50979e-05
9.5098e-05
9.5098e-05
9.5098e-05
9.50981e-05
9.50981e-05
9.50981e-05
9.50982e-05
9.50982e-05
9.50982e-05
9.50982e-05
9.50982e-05
9.50983e-05
9.50983e-05
9.50983e-05
9.50983e-05
9.50983e-05
9.50983e-05
9.50983e-05
9.50983e-05
9.50983e-05
9.50983e-05
9.50983e-05
9.50983e-05
9.50982e-05
9.50982e-05
9.50982e-05
9.50982e-05
9.50982e-05
9.50981e-05
9.50981e-05
9.50981e-05
9.5098e-05
9.50979e-05
9.50977e-05
9.50975e-05
9.50973e-05
9.50971e-05
9.5097e-05
9.50968e-05
9.50966e-05
9.50964e-05
9.50963e-05
9.50961e-05
9.5096e-05
9.50959e-05
9.50948e-05
9.57457e-05
9.57442e-05
9.57441e-05
9.57442e-05
9.57444e-05
9.57446e-05
9.57448e-05
9.5745e-05
9.57452e-05
9.57455e-05
9.57457e-05
9.57459e-05
9.57462e-05
9.57465e-05
9.57467e-05
9.5747e-05
9.57473e-05
9.57475e-05
9.57478e-05
9.57481e-05
9.57484e-05
9.57487e-05
9.57489e-05
9.57492e-05
9.57495e-05
9.57497e-05
9.575e-05
9.57503e-05
9.57506e-05
9.57508e-05
9.57511e-05
9.57514e-05
9.57516e-05
9.57519e-05
9.57522e-05
9.57525e-05
9.57527e-05
9.5753e-05
9.57533e-05
9.57535e-05
9.57538e-05
9.5754e-05
9.57543e-05
9.57545e-05
9.57547e-05
9.57549e-05
9.57551e-05
9.57553e-05
9.57555e-05
9.57556e-05
9.57557e-05
9.57557e-05
9.57558e-05
9.57559e-05
9.57559e-05
9.5756e-05
9.5756e-05
9.57561e-05
9.57562e-05
9.57562e-05
9.57563e-05
9.57563e-05
9.57564e-05
9.57564e-05
9.57565e-05
9.57566e-05
9.57566e-05
9.57567e-05
9.57567e-05
9.57567e-05
9.57568e-05
9.57568e-05
9.57568e-05
9.57569e-05
9.57569e-05
9.57569e-05
9.57569e-05
9.57569e-05
9.57569e-05
9.57569e-05
9.5757e-05
9.5757e-05
9.5757e-05
9.5757e-05
9.5757e-05
9.57569e-05
9.57569e-05
9.57569e-05
9.57569e-05
9.57569e-05
9.57569e-05
9.57569e-05
9.57569e-05
9.57568e-05
9.57568e-05
9.57568e-05
9.57568e-05
9.57567e-05
9.57567e-05
9.57567e-05
9.57566e-05
9.57566e-05
9.57565e-05
9.57565e-05
9.57564e-05
9.57564e-05
9.57563e-05
9.57562e-05
9.5756e-05
9.57559e-05
9.57557e-05
9.57555e-05
9.57554e-05
9.57552e-05
9.5755e-05
9.57549e-05
9.57547e-05
9.57546e-05
9.57545e-05
9.57534e-05
9.64876e-05
9.64862e-05
9.64861e-05
9.64862e-05
9.64864e-05
9.64866e-05
9.64868e-05
9.6487e-05
9.64873e-05
9.64875e-05
9.64877e-05
9.6488e-05
9.64883e-05
9.64885e-05
9.64888e-05
9.64891e-05
9.64894e-05
9.64896e-05
9.64899e-05
9.64902e-05
9.64905e-05
9.64908e-05
9.64911e-05
9.64914e-05
9.64916e-05
9.64919e-05
9.64922e-05
9.64925e-05
9.64928e-05
9.6493e-05
9.64933e-05
9.64936e-05
9.64939e-05
9.64942e-05
9.64945e-05
9.64947e-05
9.6495e-05
9.64953e-05
9.64955e-05
9.64958e-05
9.64961e-05
9.64963e-05
9.64966e-05
9.64968e-05
9.6497e-05
9.64972e-05
9.64974e-05
9.64976e-05
9.64978e-05
9.64979e-05
9.64981e-05
9.64982e-05
9.64983e-05
9.64983e-05
9.64984e-05
9.64985e-05
9.64985e-05
9.64986e-05
9.64986e-05
9.64987e-05
9.64987e-05
9.64987e-05
9.64988e-05
9.64988e-05
9.64989e-05
9.64989e-05
9.64989e-05
9.64989e-05
9.6499e-05
9.6499e-05
9.6499e-05
9.6499e-05
9.6499e-05
9.6499e-05
9.6499e-05
9.6499e-05
9.6499e-05
9.6499e-05
9.6499e-05
9.6499e-05
9.6499e-05
9.64989e-05
9.64989e-05
9.64989e-05
9.64989e-05
9.64988e-05
9.64988e-05
9.64988e-05
9.64988e-05
9.64987e-05
9.64987e-05
9.64987e-05
9.64986e-05
9.64986e-05
9.64985e-05
9.64985e-05
9.64985e-05
9.64984e-05
9.64984e-05
9.64983e-05
9.64983e-05
9.64982e-05
9.64982e-05
9.64981e-05
9.6498e-05
9.6498e-05
9.64979e-05
9.64978e-05
9.64977e-05
9.64975e-05
9.64974e-05
9.64972e-05
9.64971e-05
9.64969e-05
9.64968e-05
9.64966e-05
9.64965e-05
9.64963e-05
9.64962e-05
9.64952e-05
9.73091e-05
9.73077e-05
9.73076e-05
9.73077e-05
9.73079e-05
9.73081e-05
9.73084e-05
9.73086e-05
9.73089e-05
9.73091e-05
9.73094e-05
9.73096e-05
9.73099e-05
9.73102e-05
9.73105e-05
9.73108e-05
9.73111e-05
9.73114e-05
9.73117e-05
9.7312e-05
9.73123e-05
9.73126e-05
9.73129e-05
9.73132e-05
9.73135e-05
9.73138e-05
9.73141e-05
9.73143e-05
9.73146e-05
9.73149e-05
9.73152e-05
9.73155e-05
9.73158e-05
9.73161e-05
9.73164e-05
9.73167e-05
9.73169e-05
9.73172e-05
9.73175e-05
9.73178e-05
9.7318e-05
9.73183e-05
9.73185e-05
9.73187e-05
9.73189e-05
9.73192e-05
9.73194e-05
9.73195e-05
9.73197e-05
9.73199e-05
9.732e-05
9.73201e-05
9.73202e-05
9.73203e-05
9.73204e-05
9.73204e-05
9.73205e-05
9.73206e-05
9.73206e-05
9.73206e-05
9.73207e-05
9.73207e-05
9.73207e-05
9.73207e-05
9.73208e-05
9.73208e-05
9.73208e-05
9.73208e-05
9.73208e-05
9.73208e-05
9.73208e-05
9.73207e-05
9.73207e-05
9.73207e-05
9.73207e-05
9.73207e-05
9.73206e-05
9.73206e-05
9.73206e-05
9.73205e-05
9.73205e-05
9.73205e-05
9.73204e-05
9.73204e-05
9.73203e-05
9.73203e-05
9.73202e-05
9.73202e-05
9.73201e-05
9.73201e-05
9.732e-05
9.732e-05
9.73199e-05
9.73199e-05
9.73198e-05
9.73198e-05
9.73197e-05
9.73196e-05
9.73196e-05
9.73195e-05
9.73195e-05
9.73194e-05
9.73193e-05
9.73192e-05
9.73192e-05
9.73191e-05
9.7319e-05
9.73189e-05
9.73188e-05
9.73187e-05
9.73186e-05
9.73184e-05
9.73183e-05
9.73181e-05
9.7318e-05
9.73178e-05
9.73177e-05
9.73175e-05
9.73174e-05
9.73165e-05
9.82067e-05
9.82054e-05
9.82053e-05
9.82055e-05
9.82057e-05
9.82059e-05
9.82062e-05
9.82064e-05
9.82067e-05
9.8207e-05
9.82073e-05
9.82075e-05
9.82078e-05
9.82081e-05
9.82084e-05
9.82088e-05
9.82091e-05
9.82094e-05
9.82097e-05
9.821e-05
9.82104e-05
9.82107e-05
9.8211e-05
9.82113e-05
9.82116e-05
9.82119e-05
9.82122e-05
9.82125e-05
9.82128e-05
9.82131e-05
9.82134e-05
9.82137e-05
9.8214e-05
9.82143e-05
9.82146e-05
9.82149e-05
9.82152e-05
9.82154e-05
9.82157e-05
9.8216e-05
9.82162e-05
9.82165e-05
9.82167e-05
9.82169e-05
9.82171e-05
9.82173e-05
9.82175e-05
9.82177e-05
9.82179e-05
9.8218e-05
9.82182e-05
9.82183e-05
9.82184e-05
9.82185e-05
9.82185e-05
9.82186e-05
9.82187e-05
9.82187e-05
9.82187e-05
9.82188e-05
9.82188e-05
9.82188e-05
9.82188e-05
9.82188e-05
9.82188e-05
9.82188e-05
9.82188e-05
9.82188e-05
9.82187e-05
9.82187e-05
9.82187e-05
9.82186e-05
9.82186e-05
9.82186e-05
9.82185e-05
9.82185e-05
9.82184e-05
9.82184e-05
9.82183e-05
9.82183e-05
9.82182e-05
9.82181e-05
9.82181e-05
9.8218e-05
9.8218e-05
9.82179e-05
9.82178e-05
9.82178e-05
9.82177e-05
9.82176e-05
9.82176e-05
9.82175e-05
9.82174e-05
9.82174e-05
9.82173e-05
9.82172e-05
9.82171e-05
9.82171e-05
9.8217e-05
9.82169e-05
9.82168e-05
9.82167e-05
9.82166e-05
9.82166e-05
9.82165e-05
9.82164e-05
9.82163e-05
9.82162e-05
9.82161e-05
9.8216e-05
9.82158e-05
9.82157e-05
9.82156e-05
9.82154e-05
9.82153e-05
9.82152e-05
9.8215e-05
9.82149e-05
9.82148e-05
9.82139e-05
9.91774e-05
9.91762e-05
9.91761e-05
9.91763e-05
9.91765e-05
9.91768e-05
9.91771e-05
9.91774e-05
9.91777e-05
9.9178e-05
9.91783e-05
9.91786e-05
9.91789e-05
9.91792e-05
9.91796e-05
9.91799e-05
9.91802e-05
9.91806e-05
9.91809e-05
9.91813e-05
9.91816e-05
9.91819e-05
9.91823e-05
9.91826e-05
9.91829e-05
9.91832e-05
9.91835e-05
9.91838e-05
9.91842e-05
9.91845e-05
9.91848e-05
9.91851e-05
9.91854e-05
9.91857e-05
9.9186e-05
9.91863e-05
9.91866e-05
9.91868e-05
9.91871e-05
9.91874e-05
9.91876e-05
9.91878e-05
9.91881e-05
9.91883e-05
9.91885e-05
9.91886e-05
9.91888e-05
9.9189e-05
9.91891e-05
9.91893e-05
9.91894e-05
9.91895e-05
9.91896e-05
9.91897e-05
9.91897e-05
9.91898e-05
9.91898e-05
9.91899e-05
9.91899e-05
9.91899e-05
9.91899e-05
9.91899e-05
9.91899e-05
9.91899e-05
9.91899e-05
9.91898e-05
9.91898e-05
9.91898e-05
9.91897e-05
9.91897e-05
9.91896e-05
9.91896e-05
9.91895e-05
9.91895e-05
9.91894e-05
9.91893e-05
9.91893e-05
9.91892e-05
9.91891e-05
9.9189e-05
9.9189e-05
9.91889e-05
9.91888e-05
9.91887e-05
9.91887e-05
9.91886e-05
9.91885e-05
9.91884e-05
9.91883e-05
9.91882e-05
9.91882e-05
9.91881e-05
9.9188e-05
9.91879e-05
9.91878e-05
9.91877e-05
9.91876e-05
9.91875e-05
9.91874e-05
9.91873e-05
9.91873e-05
9.91872e-05
9.91871e-05
9.9187e-05
9.91869e-05
9.91868e-05
9.91866e-05
9.91865e-05
9.91864e-05
9.91863e-05
9.91862e-05
9.91861e-05
9.91859e-05
9.91858e-05
9.91857e-05
9.91855e-05
9.91854e-05
9.91853e-05
9.91852e-05
9.91844e-05
0.000100218
0.000100217
0.000100217
0.000100217
0.000100218
0.000100218
0.000100218
0.000100219
0.000100219
0.000100219
0.00010022
0.00010022
0.00010022
0.000100221
0.000100221
0.000100221
0.000100222
0.000100222
0.000100222
0.000100223
0.000100223
0.000100223
0.000100224
0.000100224
0.000100224
0.000100225
0.000100225
0.000100225
0.000100226
0.000100226
0.000100226
0.000100227
0.000100227
0.000100227
0.000100228
0.000100228
0.000100228
0.000100228
0.000100229
0.000100229
0.000100229
0.000100229
0.00010023
0.00010023
0.00010023
0.00010023
0.00010023
0.00010023
0.000100231
0.000100231
0.000100231
0.000100231
0.000100231
0.000100231
0.000100231
0.000100231
0.000100231
0.000100231
0.000100231
0.000100231
0.000100231
0.000100231
0.000100231
0.000100231
0.000100231
0.000100231
0.000100231
0.000100231
0.000100231
0.000100231
0.000100231
0.000100231
0.000100231
0.000100231
0.00010023
0.00010023
0.00010023
0.00010023
0.00010023
0.00010023
0.00010023
0.00010023
0.00010023
0.00010023
0.000100229
0.000100229
0.000100229
0.000100229
0.000100229
0.000100229
0.000100229
0.000100229
0.000100229
0.000100229
0.000100228
0.000100228
0.000100228
0.000100228
0.000100228
0.000100228
0.000100228
0.000100228
0.000100228
0.000100228
0.000100227
0.000100227
0.000100227
0.000100227
0.000100227
0.000100227
0.000100227
0.000100227
0.000100226
0.000100226
0.000100226
0.000100226
0.000100226
0.000100226
0.000100226
0.000100225
0.000101327
0.000101326
0.000101326
0.000101326
0.000101326
0.000101327
0.000101327
0.000101327
0.000101328
0.000101328
0.000101328
0.000101329
0.000101329
0.00010133
0.00010133
0.00010133
0.000101331
0.000101331
0.000101331
0.000101332
0.000101332
0.000101333
0.000101333
0.000101333
0.000101334
0.000101334
0.000101334
0.000101335
0.000101335
0.000101335
0.000101336
0.000101336
0.000101336
0.000101337
0.000101337
0.000101337
0.000101337
0.000101338
0.000101338
0.000101338
0.000101338
0.000101339
0.000101339
0.000101339
0.000101339
0.000101339
0.000101339
0.000101339
0.000101339
0.00010134
0.00010134
0.00010134
0.00010134
0.00010134
0.00010134
0.00010134
0.00010134
0.00010134
0.00010134
0.00010134
0.00010134
0.00010134
0.00010134
0.00010134
0.00010134
0.00010134
0.00010134
0.000101339
0.000101339
0.000101339
0.000101339
0.000101339
0.000101339
0.000101339
0.000101339
0.000101339
0.000101339
0.000101339
0.000101338
0.000101338
0.000101338
0.000101338
0.000101338
0.000101338
0.000101338
0.000101338
0.000101338
0.000101337
0.000101337
0.000101337
0.000101337
0.000101337
0.000101337
0.000101337
0.000101337
0.000101337
0.000101336
0.000101336
0.000101336
0.000101336
0.000101336
0.000101336
0.000101336
0.000101336
0.000101335
0.000101335
0.000101335
0.000101335
0.000101335
0.000101335
0.000101335
0.000101335
0.000101334
0.000101334
0.000101334
0.000101334
0.000101334
0.000101334
0.000101334
0.000101333
0.0001025
0.000102499
0.000102499
0.000102499
0.0001025
0.0001025
0.000102501
0.000102501
0.000102501
0.000102502
0.000102502
0.000102503
0.000102503
0.000102503
0.000102504
0.000102504
0.000102505
0.000102505
0.000102506
0.000102506
0.000102506
0.000102507
0.000102507
0.000102507
0.000102508
0.000102508
0.000102508
0.000102509
0.000102509
0.000102509
0.00010251
0.00010251
0.00010251
0.000102511
0.000102511
0.000102511
0.000102511
0.000102512
0.000102512
0.000102512
0.000102512
0.000102512
0.000102513
0.000102513
0.000102513
0.000102513
0.000102513
0.000102513
0.000102513
0.000102513
0.000102513
0.000102513
0.000102513
0.000102513
0.000102513
0.000102513
0.000102513
0.000102513
0.000102513
0.000102513
0.000102513
0.000102513
0.000102513
0.000102513
0.000102513
0.000102513
0.000102513
0.000102513
0.000102513
0.000102513
0.000102513
0.000102512
0.000102512
0.000102512
0.000102512
0.000102512
0.000102512
0.000102512
0.000102512
0.000102512
0.000102511
0.000102511
0.000102511
0.000102511
0.000102511
0.000102511
0.000102511
0.000102511
0.00010251
0.00010251
0.00010251
0.00010251
0.00010251
0.00010251
0.00010251
0.00010251
0.000102509
0.000102509
0.000102509
0.000102509
0.000102509
0.000102509
0.000102509
0.000102509
0.000102508
0.000102508
0.000102508
0.000102508
0.000102508
0.000102508
0.000102508
0.000102507
0.000102507
0.000102507
0.000102507
0.000102507
0.000102507
0.000102507
0.000102507
0.000102506
0.000103736
0.000103735
0.000103735
0.000103735
0.000103736
0.000103736
0.000103737
0.000103737
0.000103738
0.000103738
0.000103738
0.000103739
0.000103739
0.00010374
0.00010374
0.000103741
0.000103741
0.000103742
0.000103742
0.000103742
0.000103743
0.000103743
0.000103744
0.000103744
0.000103744
0.000103745
0.000103745
0.000103745
0.000103746
0.000103746
0.000103746
0.000103747
0.000103747
0.000103747
0.000103747
0.000103748
0.000103748
0.000103748
0.000103748
0.000103748
0.000103749
0.000103749
0.000103749
0.000103749
0.000103749
0.000103749
0.000103749
0.000103749
0.000103749
0.000103749
0.000103749
0.000103749
0.000103749
0.000103749
0.000103749
0.000103749
0.000103749
0.000103749
0.000103749
0.000103749
0.000103749
0.000103749
0.000103749
0.000103749
0.000103749
0.000103749
0.000103749
0.000103749
0.000103748
0.000103748
0.000103748
0.000103748
0.000103748
0.000103748
0.000103748
0.000103748
0.000103747
0.000103747
0.000103747
0.000103747
0.000103747
0.000103747
0.000103747
0.000103747
0.000103746
0.000103746
0.000103746
0.000103746
0.000103746
0.000103746
0.000103746
0.000103745
0.000103745
0.000103745
0.000103745
0.000103745
0.000103745
0.000103745
0.000103745
0.000103744
0.000103744
0.000103744
0.000103744
0.000103744
0.000103744
0.000103744
0.000103743
0.000103743
0.000103743
0.000103743
0.000103743
0.000103743
0.000103743
0.000103743
0.000103743
0.000103742
0.000103742
0.000103742
0.000103742
0.000103742
0.000105032
0.000105031
0.000105031
0.000105032
0.000105032
0.000105032
0.000105033
0.000105033
0.000105034
0.000105034
0.000105035
0.000105035
0.000105036
0.000105036
0.000105037
0.000105037
0.000105038
0.000105038
0.000105039
0.000105039
0.000105039
0.00010504
0.00010504
0.000105041
0.000105041
0.000105041
0.000105042
0.000105042
0.000105042
0.000105043
0.000105043
0.000105043
0.000105043
0.000105044
0.000105044
0.000105044
0.000105044
0.000105044
0.000105045
0.000105045
0.000105045
0.000105045
0.000105045
0.000105045
0.000105045
0.000105045
0.000105045
0.000105045
0.000105045
0.000105045
0.000105045
0.000105045
0.000105045
0.000105045
0.000105045
0.000105045
0.000105045
0.000105045
0.000105045
0.000105045
0.000105045
0.000105045
0.000105045
0.000105045
0.000105044
0.000105044
0.000105044
0.000105044
0.000105044
0.000105044
0.000105044
0.000105044
0.000105043
0.000105043
0.000105043
0.000105043
0.000105043
0.000105043
0.000105043
0.000105043
0.000105042
0.000105042
0.000105042
0.000105042
0.000105042
0.000105042
0.000105042
0.000105041
0.000105041
0.000105041
0.000105041
0.000105041
0.000105041
0.000105041
0.00010504
0.00010504
0.00010504
0.00010504
0.00010504
0.00010504
0.00010504
0.000105039
0.000105039
0.000105039
0.000105039
0.000105039
0.000105039
0.000105039
0.000105038
0.000105038
0.000105038
0.000105038
0.000105038
0.000105038
0.000105038
0.000105038
0.000105038
0.000105038
0.000105038
0.000105038
0.000106386
0.000106385
0.000106385
0.000106385
0.000106386
0.000106386
0.000106387
0.000106387
0.000106388
0.000106388
0.000106389
0.000106389
0.00010639
0.00010639
0.000106391
0.000106391
0.000106392
0.000106392
0.000106393
0.000106393
0.000106394
0.000106394
0.000106394
0.000106395
0.000106395
0.000106395
0.000106396
0.000106396
0.000106396
0.000106397
0.000106397
0.000106397
0.000106398
0.000106398
0.000106398
0.000106398
0.000106398
0.000106398
0.000106398
0.000106399
0.000106399
0.000106399
0.000106399
0.000106399
0.000106399
0.000106399
0.000106399
0.000106399
0.000106399
0.000106399
0.000106399
0.000106399
0.000106399
0.000106399
0.000106399
0.000106398
0.000106398
0.000106398
0.000106398
0.000106398
0.000106398
0.000106398
0.000106398
0.000106398
0.000106398
0.000106398
0.000106397
0.000106397
0.000106397
0.000106397
0.000106397
0.000106397
0.000106397
0.000106396
0.000106396
0.000106396
0.000106396
0.000106396
0.000106396
0.000106396
0.000106395
0.000106395
0.000106395
0.000106395
0.000106395
0.000106395
0.000106395
0.000106394
0.000106394
0.000106394
0.000106394
0.000106394
0.000106394
0.000106394
0.000106393
0.000106393
0.000106393
0.000106393
0.000106393
0.000106393
0.000106393
0.000106392
0.000106392
0.000106392
0.000106392
0.000106392
0.000106392
0.000106392
0.000106391
0.000106391
0.000106391
0.000106391
0.000106391
0.000106391
0.000106391
0.000106391
0.000106391
0.000106391
0.000106391
0.000106391
0.000107795
0.000107794
0.000107794
0.000107795
0.000107795
0.000107796
0.000107796
0.000107797
0.000107797
0.000107798
0.000107798
0.000107799
0.000107799
0.0001078
0.0001078
0.000107801
0.000107801
0.000107802
0.000107802
0.000107803
0.000107803
0.000107804
0.000107804
0.000107804
0.000107805
0.000107805
0.000107805
0.000107806
0.000107806
0.000107806
0.000107806
0.000107807
0.000107807
0.000107807
0.000107807
0.000107807
0.000107807
0.000107807
0.000107808
0.000107808
0.000107808
0.000107808
0.000107808
0.000107808
0.000107808
0.000107808
0.000107808
0.000107808
0.000107807
0.000107807
0.000107807
0.000107807
0.000107807
0.000107807
0.000107807
0.000107807
0.000107807
0.000107807
0.000107807
0.000107807
0.000107807
0.000107806
0.000107806
0.000107806
0.000107806
0.000107806
0.000107806
0.000107806
0.000107806
0.000107805
0.000107805
0.000107805
0.000107805
0.000107805
0.000107805
0.000107805
0.000107804
0.000107804
0.000107804
0.000107804
0.000107804
0.000107804
0.000107804
0.000107803
0.000107803
0.000107803
0.000107803
0.000107803
0.000107803
0.000107803
0.000107802
0.000107802
0.000107802
0.000107802
0.000107802
0.000107802
0.000107802
0.000107801
0.000107801
0.000107801
0.000107801
0.000107801
0.000107801
0.000107801
0.0001078
0.0001078
0.0001078
0.0001078
0.0001078
0.0001078
0.0001078
0.0001078
0.0001078
0.0001078
0.0001078
0.0001078
0.0001078
0.0001078
0.0001078
0.0001078
0.000109257
0.000109256
0.000109257
0.000109257
0.000109258
0.000109258
0.000109259
0.000109259
0.00010926
0.00010926
0.000109261
0.000109261
0.000109262
0.000109262
0.000109263
0.000109263
0.000109264
0.000109264
0.000109265
0.000109265
0.000109266
0.000109266
0.000109266
0.000109267
0.000109267
0.000109267
0.000109268
0.000109268
0.000109268
0.000109268
0.000109269
0.000109269
0.000109269
0.000109269
0.000109269
0.000109269
0.000109269
0.000109269
0.000109269
0.000109269
0.000109269
0.000109269
0.000109269
0.000109269
0.000109269
0.000109269
0.000109269
0.000109269
0.000109269
0.000109269
0.000109269
0.000109269
0.000109269
0.000109269
0.000109269
0.000109268
0.000109268
0.000109268
0.000109268
0.000109268
0.000109268
0.000109268
0.000109268
0.000109268
0.000109267
0.000109267
0.000109267
0.000109267
0.000109267
0.000109267
0.000109267
0.000109266
0.000109266
0.000109266
0.000109266
0.000109266
0.000109266
0.000109266
0.000109265
0.000109265
0.000109265
0.000109265
0.000109265
0.000109265
0.000109265
0.000109264
0.000109264
0.000109264
0.000109264
0.000109264
0.000109264
0.000109264
0.000109263
0.000109263
0.000109263
0.000109263
0.000109263
0.000109263
0.000109263
0.000109262
0.000109262
0.000109262
0.000109262
0.000109262
0.000109262
0.000109262
0.000109261
0.000109261
0.000109261
0.000109261
0.000109261
0.000109261
0.000109261
0.000109261
0.000109261
0.000109261
0.000109262
0.000109262
0.000109262
0.000109262
0.00011077
0.000110769
0.00011077
0.00011077
0.000110771
0.000110771
0.000110772
0.000110772
0.000110773
0.000110773
0.000110774
0.000110775
0.000110775
0.000110776
0.000110776
0.000110777
0.000110777
0.000110777
0.000110778
0.000110778
0.000110779
0.000110779
0.000110779
0.00011078
0.00011078
0.00011078
0.000110781
0.000110781
0.000110781
0.000110781
0.000110781
0.000110781
0.000110782
0.000110782
0.000110782
0.000110782
0.000110782
0.000110782
0.000110782
0.000110782
0.000110782
0.000110782
0.000110782
0.000110782
0.000110781
0.000110781
0.000110781
0.000110781
0.000110781
0.000110781
0.000110781
0.000110781
0.000110781
0.000110781
0.000110781
0.00011078
0.00011078
0.00011078
0.00011078
0.00011078
0.00011078
0.00011078
0.00011078
0.00011078
0.000110779
0.000110779
0.000110779
0.000110779
0.000110779
0.000110779
0.000110779
0.000110778
0.000110778
0.000110778
0.000110778
0.000110778
0.000110778
0.000110778
0.000110778
0.000110777
0.000110777
0.000110777
0.000110777
0.000110777
0.000110777
0.000110777
0.000110776
0.000110776
0.000110776
0.000110776
0.000110776
0.000110776
0.000110776
0.000110775
0.000110775
0.000110775
0.000110775
0.000110775
0.000110775
0.000110775
0.000110774
0.000110774
0.000110774
0.000110774
0.000110774
0.000110774
0.000110774
0.000110774
0.000110774
0.000110773
0.000110774
0.000110774
0.000110774
0.000110774
0.000110774
0.000110774
0.000110774
0.000110774
0.000110774
0.000110774
0.000112331
0.000112331
0.000112331
0.000112331
0.000112332
0.000112333
0.000112333
0.000112334
0.000112334
0.000112335
0.000112335
0.000112336
0.000112336
0.000112337
0.000112337
0.000112338
0.000112338
0.000112339
0.000112339
0.000112339
0.00011234
0.00011234
0.00011234
0.000112341
0.000112341
0.000112341
0.000112342
0.000112342
0.000112342
0.000112342
0.000112342
0.000112342
0.000112342
0.000112342
0.000112342
0.000112342
0.000112342
0.000112342
0.000112342
0.000112342
0.000112342
0.000112342
0.000112342
0.000112342
0.000112342
0.000112342
0.000112342
0.000112341
0.000112341
0.000112341
0.000112341
0.000112341
0.000112341
0.000112341
0.000112341
0.000112341
0.000112341
0.00011234
0.00011234
0.00011234
0.00011234
0.00011234
0.00011234
0.00011234
0.00011234
0.00011234