/*--------------------------------*- C++ -*----------------------------------*\
  =========                 |
  \\      /  F ield         | OpenFOAM: The Open Source CFD Toolbox
   \\    /   O peration     | Website:  https://openfoam.org
    \\  /    A nd           | Version:  7
     \\/     M anipulation  |
\*---------------------------------------------------------------------------*/
FoamFile
{
    version     2.0;
    format      ascii;
    class       surfaceScalarField;
    location    "20000";
    object      phi;
}
// * * * * * * * * * * * * * * * * * * * * * * * * * * * * * * * * * * * * * //

dimensions      [0 3 -1 0 0 0 0];

internalField   nonuniform List<scalar> 
7920
(
0.000136863
-6.14787e-10
0.000136863
-5.38356e-10
0.000136863
-4.69156e-10
0.000136863
-4.0476e-10
0.000136862
-3.43628e-10
0.000136862
-2.85443e-10
0.000136862
-2.30434e-10
0.000136862
-1.78474e-10
0.000136862
-1.29045e-10
0.000136862
-8.17125e-11
0.000136862
-3.63632e-11
0.000136862
6.77633e-12
0.000136862
4.78793e-11
0.000136862
8.7857e-11
0.000136862
1.27198e-10
0.000136862
1.65415e-10
0.000136862
2.01865e-10
0.000136862
2.36651e-10
0.000136862
2.70329e-10
0.000136862
3.02925e-10
0.000136862
3.33986e-10
0.000136862
3.63244e-10
0.000136862
3.90787e-10
0.000136862
4.16926e-10
0.000136862
4.41856e-10
0.000136862
4.6508e-10
0.000136862
4.85843e-10
0.000136862
5.04265e-10
0.000136862
5.2094e-10
0.000136862
5.36104e-10
0.000136862
5.49861e-10
0.000136862
5.6228e-10
0.000136862
5.73114e-10
0.000136862
5.8225e-10
0.000136862
5.90074e-10
0.000136862
5.96939e-10
0.000136862
6.02951e-10
0.000136862
6.08153e-10
0.000136862
6.12631e-10
0.000136862
6.16462e-10
0.000136862
6.19419e-10
0.000136862
6.21132e-10
0.000136862
6.21694e-10
0.000136862
6.21663e-10
0.000136862
6.213e-10
0.000136862
6.20394e-10
0.000136862
6.18828e-10
0.000136862
6.16781e-10
0.000136862
6.14496e-10
0.000136862
6.11942e-10
0.000136862
6.08782e-10
0.000136862
6.04989e-10
0.000136862
6.01061e-10
0.000136862
5.97292e-10
0.000136862
5.9354e-10
0.000136862
5.89701e-10
0.000136862
5.85818e-10
0.000136862
5.81803e-10
0.000136862
5.77421e-10
0.000136862
5.72772e-10
0.000136862
5.68213e-10
0.000136862
5.63754e-10
0.000136862
5.59087e-10
0.000136862
5.54168e-10
0.000136862
5.49382e-10
0.000136862
5.44975e-10
0.000136862
5.40907e-10
0.000136862
5.37057e-10
0.000136862
5.33377e-10
0.000136862
5.2971e-10
0.000136862
5.25597e-10
0.000136862
5.20188e-10
0.000136862
5.12182e-10
0.000136862
5.01464e-10
0.000136862
4.83809e-10
0.000136862
4.66459e-10
4.10739e-10
0.000132547
-8.16268e-10
0.000132547
-1.11146e-09
0.000132547
-1.36235e-09
0.000132547
-1.56136e-09
0.000132547
-1.70892e-09
0.000132547
-1.81045e-09
0.000132547
-1.86968e-09
0.000132547
-1.89116e-09
0.000132547
-1.88012e-09
0.000132547
-1.84226e-09
0.000132547
-1.78292e-09
0.000132547
-1.70713e-09
0.000132547
-1.61989e-09
0.000132547
-1.52562e-09
0.000132547
-1.42782e-09
0.000132547
-1.32861e-09
0.000132547
-1.23021e-09
0.000132547
-1.13383e-09
0.000132547
-1.04218e-09
0.000132547
-9.55758e-10
0.000132547
-8.77162e-10
0.000132547
-8.0662e-10
0.000132547
-7.4727e-10
0.000132547
-6.69073e-10
0.000132547
-5.74839e-10
0.000132547
-4.99645e-10
0.000132547
-4.33492e-10
0.000132547
-3.71239e-10
0.000132547
-3.11652e-10
0.000132547
-2.54703e-10
0.000132547
-2.0068e-10
0.000132547
-1.49404e-10
0.000132547
-1.00424e-10
0.000132547
-5.35163e-11
0.000132547
-8.70246e-12
0.000132547
3.38562e-11
0.000132547
7.44207e-11
0.000132546
1.13851e-10
0.000132546
1.5253e-10
0.000132546
1.89902e-10
0.000132546
2.25344e-10
0.000132546
2.5905e-10
0.000132546
2.91626e-10
0.000132546
3.23046e-10
0.000132546
3.52788e-10
0.000132546
3.80623e-10
0.000132546
4.06753e-10
0.000132546
4.31515e-10
0.000132546
4.55004e-10
0.000132546
4.76682e-10
0.000132546
4.95892e-10
0.000132546
5.12846e-10
0.000132546
5.28163e-10
0.000132546
5.42041e-10
0.000132546
5.54526e-10
0.000132546
5.65683e-10
0.000132546
5.75323e-10
0.000132546
5.83409e-10
0.000132546
5.90284e-10
0.000132546
5.96223e-10
0.000132546
6.01402e-10
0.000132546
6.05883e-10
0.000132546
6.09634e-10
0.000132546
6.12702e-10
0.000132546
6.14926e-10
0.000132546
6.16001e-10
0.000132546
6.16047e-10
0.000132546
6.15594e-10
0.000132546
6.14902e-10
0.000132546
6.13742e-10
0.000132546
6.11921e-10
0.000132546
6.09617e-10
0.000132546
6.071e-10
0.000132546
6.04314e-10
0.000132546
6.00977e-10
0.000132546
5.97123e-10
0.000132546
5.93198e-10
0.000132546
5.89467e-10
0.000132546
5.85755e-10
0.000132546
5.81916e-10
0.000132546
5.78024e-10
0.000132546
5.74043e-10
0.000132546
5.69778e-10
0.000132546
5.65344e-10
0.000132546
5.61031e-10
0.000132546
5.56754e-10
0.000132546
5.52235e-10
0.000132546
5.47526e-10
0.000132546
5.42979e-10
0.000132546
5.38803e-10
0.000132546
5.34923e-10
0.000132546
5.31174e-10
0.000132546
5.27521e-10
0.000132546
5.23861e-10
0.000132546
5.19792e-10
0.000132546
5.14485e-10
0.000132546
5.06552e-10
0.000132546
4.96199e-10
0.000132546
4.78511e-10
0.000132546
4.62646e-10
0.000132546
4.03607e-10
0.000132546
3.23224e-10
0.000132547
2.87969e-10
0.000132547
2.68531e-10
0.000132547
2.51682e-10
0.000132547
2.38089e-10
0.000132547
2.2767e-10
0.000132547
2.20157e-10
0.000132547
2.1494e-10
0.000132547
2.10824e-10
0.000132547
2.06935e-10
0.000132547
2.02014e-10
0.000132547
1.95926e-10
0.000132547
1.83779e-10
0.000132547
1.67385e-10
0.000132547
1.28764e-10
0.000132547
8.39168e-11
0.000132547
-2.83086e-11
0.000132547
-1.75317e-10
-4.41157e-10
0.000128321
-8.101e-10
0.000128321
-1.10449e-09
0.000128321
-1.35724e-09
0.000128321
-1.55887e-09
0.000128321
-1.70937e-09
0.000128321
-1.81338e-09
0.000128321
-1.87421e-09
0.000128321
-1.89637e-09
0.000128321
-1.88535e-09
0.000128321
-1.8471e-09
0.000128321
-1.78719e-09
0.000128321
-1.7108e-09
0.000128321
-1.62299e-09
0.000128321
-1.52815e-09
0.000128321
-1.42963e-09
0.000128321
-1.32961e-09
0.000128321
-1.23045e-09
0.000128321
-1.13341e-09
0.000128321
-1.04101e-09
0.000128321
-9.5379e-10
0.000128321
-8.74387e-10
0.000128321
-8.02136e-10
0.000128321
-7.42079e-10
0.000128321
-6.6275e-10
0.000128321
-5.62665e-10
0.000128321
-4.81138e-10
0.000128321
-4.1187e-10
0.000128321
-3.48338e-10
0.000128321
-2.88291e-10
0.000128321
-2.31269e-10
0.000128321
-1.77274e-10
0.000128321
-1.25933e-10
0.000128321
-7.6818e-11
0.000128321
-2.98835e-11
0.000128321
1.47565e-11
0.000128321
5.70719e-11
0.000128321
9.74486e-11
0.000128321
1.3666e-10
0.000128321
1.74949e-10
0.000128321
2.1172e-10
0.000128321
2.46421e-10
0.000128321
2.79331e-10
0.000128321
3.11043e-10
0.000128321
3.41468e-10
0.000128321
3.70064e-10
0.000128321
3.96674e-10
0.000128321
4.21594e-10
0.000128321
4.45131e-10
0.000128321
4.67248e-10
0.000128321
4.87411e-10
0.000128321
5.05139e-10
0.00012832
5.20721e-10
0.00012832
5.34754e-10
0.00012832
5.47399e-10
0.00012832
5.58631e-10
0.00012832
5.6849e-10
0.00012832
5.76883e-10
0.00012832
5.83899e-10
0.00012832
5.89831e-10
0.00012832
5.94845e-10
0.00012832
5.99171e-10
0.00012832
6.02897e-10
0.00012832
6.05858e-10
0.00012832
6.08069e-10
0.00012832
6.09493e-10
0.00012832
6.09923e-10
0.000128321
6.09459e-10
0.000128321
6.08542e-10
0.000128321
6.07428e-10
0.000128321
6.05932e-10
0.000128321
6.03812e-10
0.000128321
6.01206e-10
0.000128321
5.98392e-10
0.000128321
5.95308e-10
0.000128321
5.91747e-10
0.000128321
5.87822e-10
0.000128321
5.83901e-10
0.000128321
5.80171e-10
0.000128321
5.76438e-10
0.000128321
5.72529e-10
0.000128321
5.68558e-10
0.000128321
5.64567e-10
0.000128321
5.60421e-10
0.000128321
5.56207e-10
0.000128321
5.52118e-10
0.000128321
5.47981e-10
0.000128321
5.43583e-10
0.000128321
5.39083e-10
0.000128321
5.34777e-10
0.000128321
5.3081e-10
0.000128321
5.27086e-10
0.000128321
5.23411e-10
0.000128321
5.1976e-10
0.000128321
5.16089e-10
0.000128321
5.12052e-10
0.000128321
5.06843e-10
0.000128321
4.99031e-10
0.000128321
4.88973e-10
0.000128321
4.71866e-10
0.000128321
4.55213e-10
0.000128321
4.08715e-10
0.000128321
3.32387e-10
0.000128321
2.80339e-10
0.000128321
2.52015e-10
0.000128321
2.33678e-10
0.000128321
2.20797e-10
0.000128321
2.11316e-10
0.000128321
2.04596e-10
0.000128321
1.99949e-10
0.000128321
1.96194e-10
0.000128321
1.92551e-10
0.000128321
1.8769e-10
0.000128321
1.81445e-10
0.000128321
1.68914e-10
0.000128321
1.52194e-10
0.000128321
1.13099e-10
0.000128321
6.81378e-11
0.000128321
-4.3419e-11
0.000128321
-1.91116e-10
-4.47263e-10
0.000124182
-7.99314e-10
0.000124182
-1.09068e-09
0.000124182
-1.34514e-09
0.000124182
-1.54985e-09
0.000124182
-1.70365e-09
0.000124182
-1.81042e-09
0.000124182
-1.87307e-09
0.000124182
-1.89616e-09
0.000124182
-1.88543e-09
0.000124182
-1.8471e-09
0.000124182
-1.78698e-09
0.000124182
-1.71039e-09
0.000124182
-1.62244e-09
0.000124182
-1.52743e-09
0.000124182
-1.42855e-09
0.000124182
-1.32803e-09
0.000124182
-1.22844e-09
0.000124182
-1.13098e-09
0.000124182
-1.03802e-09
0.000124182
-9.50131e-10
0.000124182
-8.70017e-10
0.000124182
-7.96552e-10
0.000124182
-7.34807e-10
0.000124182
-6.58692e-10
0.000124182
-5.61803e-10
0.000124182
-4.76791e-10
0.000124182
-4.02829e-10
0.000124182
-3.35878e-10
0.000124182
-2.73713e-10
0.000124182
-2.15385e-10
0.000124182
-1.60434e-10
0.000124182
-1.08256e-10
0.000124182
-5.84341e-11
0.000124182
-1.1041e-11
0.000124181
3.37902e-11
0.000124181
7.62072e-11
0.000124181
1.16733e-10
0.000124181
1.56029e-10
0.000124181
1.94174e-10
0.000124181
2.30568e-10
0.000124181
2.64785e-10
0.000124181
2.97168e-10
0.000124181
3.28229e-10
0.000124181
3.5781e-10
0.000124181
3.85419e-10
0.000124181
4.11012e-10
0.000124181
4.3493e-10
0.000124181
4.57378e-10
0.000124181
4.78175e-10
0.000124181
4.96867e-10
0.000124181
5.13213e-10
0.000124181
5.27549e-10
0.000124181
5.40387e-10
0.000124181
5.51848e-10
0.000124181
5.61847e-10
0.000124181
5.70388e-10
0.000124181
5.775e-10
0.000124181
5.83445e-10
0.000124181
5.88463e-10
0.000124181
5.92575e-10
0.000124181
5.96041e-10
0.000124181
5.98974e-10
0.000124181
6.01086e-10
0.000124181
6.02371e-10
0.000124181
6.02957e-10
0.000124181
6.02764e-10
0.000124181
6.01824e-10
0.000124181
6.00417e-10
0.000124181
5.98786e-10
0.000124181
5.96867e-10
0.000124181
5.94417e-10
0.000124181
5.91477e-10
0.000124181
5.88306e-10
0.000124181
5.84871e-10
0.000124181
5.8107e-10
0.000124181
5.77087e-10
0.000124181
5.73175e-10
0.000124181
5.69409e-10
0.000124181
5.65588e-10
0.000124181
5.61548e-10
0.000124181
5.57447e-10
0.000124181
5.5343e-10
0.000124181
5.49414e-10
0.000124181
5.45416e-10
0.000124181
5.41509e-10
0.000124181
5.37475e-10
0.000124181
5.33198e-10
0.000124181
5.28925e-10
0.000124181
5.24868e-10
0.000124182
5.21086e-10
0.000124182
5.17477e-10
0.000124182
5.13843e-10
0.000124182
5.10183e-10
0.000124182
5.065e-10
0.000124182
5.02491e-10
0.000124182
4.9737e-10
0.000124182
4.89724e-10
0.000124182
4.79916e-10
0.000124182
4.63827e-10
0.000124182
4.45423e-10
0.000124182
4.12312e-10
0.000124182
3.51092e-10
0.000124182
2.9113e-10
0.000124182
2.51449e-10
0.000124182
2.26992e-10
0.000124182
2.11668e-10
0.000124182
2.01264e-10
0.000124182
1.94168e-10
0.000124182
1.89279e-10
0.000124182
1.85307e-10
0.000124182
1.81489e-10
0.000124182
1.76351e-10
0.000124182
1.69647e-10
0.000124182
1.56487e-10
0.000124182
1.39247e-10
0.000124182
9.96313e-11
0.000124182
5.44755e-11
0.000124182
-5.6089e-11
0.000124182
-2.03811e-10
-4.50325e-10
0.000120126
-7.8447e-10
0.000120126
-1.07019e-09
0.000120126
-1.32535e-09
0.000120126
-1.53333e-09
0.000120126
-1.69092e-09
0.000120126
-1.80088e-09
0.000120126
-1.86575e-09
0.000120126
-1.89018e-09
0.000120126
-1.88017e-09
0.000120126
-1.84219e-09
0.000120126
-1.78225e-09
0.000120126
-1.70587e-09
0.000120125
-1.61819e-09
0.000120125
-1.52338e-09
0.000120125
-1.42448e-09
0.000120125
-1.32382e-09
0.000120125
-1.22412e-09
0.000120125
-1.12651e-09
0.000120125
-1.03317e-09
0.000120125
-9.44752e-10
0.000120125
-8.64029e-10
0.000120125
-7.89734e-10
0.000120125
-7.26018e-10
0.000120125
-6.53091e-10
0.000120125
-5.62936e-10
0.000120125
-4.78964e-10
0.000120125
-4.02133e-10
0.000120125
-3.31705e-10
0.000120125
-2.66758e-10
0.000120125
-2.0635e-10
0.000120125
-1.49691e-10
0.000120125
-9.60501e-11
0.000120125
-4.50733e-11
0.000120125
3.11702e-12
0.000120125
4.84533e-11
0.000120125
9.12876e-11
0.000120125
1.3226e-10
0.000120125
1.71888e-10
0.000120125
2.10086e-10
0.000120125
2.46295e-10
0.000120125
2.80258e-10
0.000120125
3.12351e-10
0.000120125
3.42936e-10
0.000120125
3.71791e-10
0.000120125
3.98563e-10
0.000120125
4.23345e-10
0.000120125
4.46454e-10
0.000120125
4.67919e-10
0.000120125
4.87433e-10
0.000120125
5.04713e-10
0.000120125
5.19808e-10
0.000120125
5.33043e-10
0.000120125
5.44776e-10
0.000120125
5.55089e-10
0.000120125
5.63871e-10
0.000120125
5.71089e-10
0.000120125
5.76922e-10
0.000120125
5.8182e-10
0.000120125
5.8596e-10
0.000120125
5.89201e-10
0.000120125
5.91806e-10
0.000120125
5.93905e-10
0.000120125
5.95119e-10
0.000120125
5.95435e-10
0.000120125
5.95181e-10
0.000120125
5.94412e-10
0.000120125
5.9304e-10
0.000120125
5.91129e-10
0.000120125
5.889e-10
0.000120125
5.86476e-10
0.000120125
5.83664e-10
0.000120125
5.80368e-10
0.000120125
5.76785e-10
0.000120125
5.72965e-10
0.000120125
5.68938e-10
0.000120125
5.64926e-10
0.000120125
5.6103e-10
0.000120125
5.57185e-10
0.000120125
5.53211e-10
0.000120125
5.48994e-10
0.000120125
5.44743e-10
0.000120125
5.40703e-10
0.000120125
5.36831e-10
0.000120125
5.33027e-10
0.000120125
5.29246e-10
0.000120125
5.25288e-10
0.000120125
5.21152e-10
0.000120125
5.17137e-10
0.000120125
5.13341e-10
0.000120125
5.09719e-10
0.000120125
5.06178e-10
0.000120125
5.02557e-10
0.000120125
4.9889e-10
0.000120126
4.95211e-10
0.000120126
4.91233e-10
0.000120126
4.86188e-10
0.000120126
4.78747e-10
0.000120126
4.69173e-10
0.000120126
4.54301e-10
0.000120126
4.3424e-10
0.000120126
4.10902e-10
0.000120126
3.6754e-10
0.000120126
3.09717e-10
0.000120126
2.6254e-10
0.000120126
2.30808e-10
0.000120126
2.10853e-10
0.000120126
1.97802e-10
0.000120126
1.89145e-10
0.000120126
1.83169e-10
0.000120126
1.78373e-10
0.000120126
1.7393e-10
0.000120126
1.68152e-10
0.000120126
1.60678e-10
0.000120126
1.46637e-10
0.000120126
1.28672e-10
0.000120126
8.84738e-11
0.000120126
4.30333e-11
0.000120126
-6.62416e-11
0.000120126
-2.13309e-10
-4.50464e-10
0.000116149
-7.6552e-10
0.000116149
-1.04332e-09
0.000116149
-1.29778e-09
0.000116149
-1.50886e-09
0.000116149
-1.67061e-09
0.000116149
-1.78427e-09
0.000116149
-1.85188e-09
0.000116149
-1.87819e-09
0.000116149
-1.86946e-09
0.000116149
-1.83232e-09
0.000116149
-1.77303e-09
0.000116149
-1.69727e-09
0.000116149
-1.61025e-09
0.000116149
-1.516e-09
0.000116149
-1.41743e-09
0.000116149
-1.31696e-09
0.000116149
-1.21746e-09
0.000116149
-1.11994e-09
0.000116149
-1.0264e-09
0.000116149
-9.37612e-10
0.000116149
-8.56386e-10
0.000116149
-7.81522e-10
0.000116149
-7.1598e-10
0.000116149
-6.45062e-10
0.000116149
-5.61788e-10
0.000116149
-4.81901e-10
0.000116149
-4.0508e-10
0.000116149
-3.32648e-10
0.000116149
-2.65338e-10
0.000116149
-2.02722e-10
0.000116149
-1.44009e-10
0.000116149
-8.85705e-11
0.000116149
-3.61977e-11
0.000116149
1.29865e-11
0.000116149
5.90496e-11
0.000116149
1.0255e-10
0.000116149
1.44198e-10
0.000116149
1.84331e-10
0.000116149
2.22712e-10
0.000116149
2.58884e-10
0.000116149
2.92784e-10
0.000116149
3.24769e-10
0.000116149
3.55001e-10
0.000116149
3.83232e-10
0.000116149
4.09309e-10
0.000116149
4.33465e-10
0.000116149
4.55916e-10
0.000116149
4.76466e-10
0.000116149
4.9473e-10
0.000116149
5.10683e-10
0.000116149
5.24679e-10
0.000116149
5.36963e-10
0.000116149
5.47669e-10
0.000116149
5.56853e-10
0.000116149
5.64425e-10
0.000116149
5.70346e-10
0.000116149
5.7494e-10
0.000116149
5.78836e-10
0.000116149
5.82129e-10
0.000116149
5.84526e-10
0.000116149
5.86269e-10
0.000116149
5.87498e-10
0.000116149
5.8778e-10
0.000116149
5.87122e-10
0.000116149
5.86059e-10
0.000116149
5.84773e-10
0.000116149
5.83009e-10
0.000116149
5.80584e-10
0.000116149
5.77701e-10
0.000116149
5.7471e-10
0.000116149
5.71504e-10
0.000116149
5.67821e-10
0.000116149
5.63784e-10
0.000116149
5.5957e-10
0.000116149
5.55358e-10
0.000116149
5.51355e-10
0.000116149
5.4747e-10
0.000116149
5.43501e-10
0.000116149
5.39324e-10
0.000116149
5.34908e-10
0.000116149
5.3052e-10
0.000116149
5.26479e-10
0.000116149
5.2275e-10
0.000116149
5.19094e-10
0.000116149
5.15377e-10
0.000116149
5.11482e-10
0.000116149
5.07527e-10
0.000116149
5.03804e-10
0.000116149
5.00271e-10
0.000116149
4.96783e-10
0.000116149
4.93276e-10
0.000116149
4.89655e-10
0.000116149
4.85997e-10
0.000116149
4.8235e-10
0.000116149
4.7841e-10
0.000116149
4.73434e-10
0.000116149
4.66231e-10
0.000116149
4.56895e-10
0.000116149
4.43245e-10
0.000116149
4.2212e-10
0.000116149
4.04724e-10
0.000116149
3.77179e-10
0.000116149
3.2792e-10
0.000116149
2.79149e-10
0.000116149
2.42015e-10
0.000116149
2.16983e-10
0.000116149
2.00292e-10
0.000116149
1.89179e-10
0.000116149
1.81411e-10
0.000116149
1.75258e-10
0.000116149
1.69774e-10
0.000116149
1.63012e-10
0.000116149
1.5448e-10
0.000116149
1.39333e-10
0.000116149
1.20446e-10
0.000116149
7.96095e-11
0.000116149
3.38066e-11
0.000116149
-7.38798e-11
0.000116149
-2.19677e-10
-4.47474e-10
0.000112248
-7.42113e-10
0.000112248
-1.01025e-09
0.000112248
-1.26263e-09
0.000112248
-1.47635e-09
0.000112248
-1.64246e-09
0.000112248
-1.76029e-09
0.000112248
-1.83123e-09
0.000112248
-1.86008e-09
0.000112248
-1.85326e-09
0.000112248
-1.81754e-09
0.000112248
-1.75938e-09
0.000112248
-1.68468e-09
0.000112248
-1.59869e-09
0.000112248
-1.50532e-09
0.000112248
-1.40739e-09
0.000112248
-1.30745e-09
0.000112248
-1.20841e-09
0.000112248
-1.11118e-09
0.000112248
-1.01763e-09
0.000112248
-9.28648e-10
0.000112248
-8.47028e-10
0.000112248
-7.71754e-10
0.000112248
-7.0469e-10
0.000112248
-6.34662e-10
0.000112248
-5.56935e-10
0.000112248
-4.82285e-10
0.000112248
-4.07902e-10
0.000112248
-3.35501e-10
0.000112248
-2.66988e-10
0.000112248
-2.02636e-10
0.000112248
-1.41993e-10
0.000112248
-8.47815e-11
0.000112248
-3.1022e-11
0.000112248
1.919e-11
0.000112248
6.60847e-11
0.000112248
1.10399e-10
0.000112248
1.52855e-10
0.000112248
1.93573e-10
0.000112248
2.32201e-10
0.000112248
2.68437e-10
0.000112248
3.02402e-10
0.000112248
3.34386e-10
0.000112248
3.6434e-10
0.000112248
3.92038e-10
0.000112248
4.1756e-10
0.000112248
4.41237e-10
0.000112248
4.63113e-10
0.000112248
4.82778e-10
0.000112248
4.99839e-10
0.000112248
5.14585e-10
0.000112248
5.27642e-10
0.000112248
5.39103e-10
0.000112248
5.48839e-10
0.000112248
5.56896e-10
0.000112248
5.63271e-10
0.000112248
5.67956e-10
0.000112248
5.71395e-10
0.000112248
5.74336e-10
0.000112248
5.76799e-10
0.000112248
5.78369e-10
0.000112248
5.7925e-10
0.000112248
5.79585e-10
0.000112248
5.7893e-10
0.000112248
5.77331e-10
0.000112248
5.75514e-10
0.000112248
5.73761e-10
0.000112248
5.7163e-10
0.000112248
5.68687e-10
0.000112248
5.65133e-10
0.000112248
5.61547e-10
0.000112248
5.57909e-10
0.000112248
5.53798e-10
0.000112248
5.49281e-10
0.000112248
5.44693e-10
0.000112248
5.4035e-10
0.000112248
5.36385e-10
0.000112248
5.32492e-10
0.000112248
5.28366e-10
0.000112248
5.23961e-10
0.000112248
5.19356e-10
0.000112248
5.14873e-10
0.000112248
5.10864e-10
0.000112248
5.07252e-10
0.000112248
5.03674e-10
0.000112248
4.99967e-10
0.000112248
4.96143e-10
0.000112248
4.92411e-10
0.000112248
4.89001e-10
0.000112248
4.85722e-10
0.000112248
4.8235e-10
0.000112248
4.78862e-10
0.000112248
4.75252e-10
0.000112248
4.7164e-10
0.000112248
4.68056e-10
0.000112248
4.64164e-10
0.000112248
4.59257e-10
0.000112248
4.52314e-10
0.000112248
4.43225e-10
0.000112248
4.30681e-10
0.000112248
4.09174e-10
0.000112248
3.94954e-10
0.000112248
3.79421e-10
0.000112248
3.41198e-10
0.000112248
2.95893e-10
0.000112248
2.56671e-10
0.000112248
2.27681e-10
0.000112248
2.07334e-10
0.000112248
1.93383e-10
0.000112248
1.83399e-10
0.000112248
1.75524e-10
0.000112248
1.68672e-10
0.000112248
1.6064e-10
0.000112248
1.50821e-10
0.000112248
1.34393e-10
0.000112248
1.14422e-10
0.000112248
7.29118e-11
0.000112248
2.66952e-11
0.000112248
-7.90838e-11
0.000112248
-2.23107e-10
-4.41154e-10
0.00010842
-7.13834e-10
0.000108419
-9.70948e-10
0.000108419
-1.2201e-09
0.000108419
-1.43595e-09
0.000108419
-1.60646e-09
0.000108419
-1.72886e-09
0.000108419
-1.80376e-09
0.000108419
-1.83587e-09
0.000108419
-1.83164e-09
0.000108419
-1.79794e-09
0.000108419
-1.74143e-09
0.000108419
-1.66822e-09
0.000108419
-1.58359e-09
0.000108419
-1.49138e-09
0.000108419
-1.3944e-09
0.000108419
-1.29528e-09
0.000108419
-1.1969e-09
0.000108419
-1.10013e-09
0.000108419
-1.00678e-09
0.000108419
-9.17773e-10
0.000108419
-8.3587e-10
0.000108419
-7.60272e-10
0.000108419
-6.91993e-10
0.000108419
-6.22104e-10
0.000108419
-5.48279e-10
0.000108419
-4.78697e-10
0.000108419
-4.08188e-10
0.000108419
-3.37656e-10
0.000108419
-2.69355e-10
0.000108419
-2.04142e-10
0.000108419
-1.42109e-10
0.000108419
-8.35073e-11
0.000108419
-2.86153e-11
0.000108419
2.25018e-11
0.000108419
7.02075e-11
0.000108419
1.1536e-10
0.000108419
1.58634e-10
0.000108419
1.99923e-10
0.000108419
2.38797e-10
0.000108419
2.75142e-10
0.000108419
3.09224e-10
0.000108419
3.41225e-10
0.000108419
3.70935e-10
0.000108419
3.98194e-10
0.000108419
4.23292e-10
0.000108419
4.46575e-10
0.000108419
4.67886e-10
0.000108419
4.86662e-10
0.000108419
5.026e-10
0.000108419
5.16295e-10
0.000108419
5.28555e-10
0.000108419
5.39278e-10
0.000108419
5.48076e-10
0.000108419
5.5501e-10
0.000108419
5.60222e-10
0.000108419
5.63774e-10
0.000108419
5.66167e-10
0.000108419
5.68186e-10
0.000108419
5.69808e-10
0.000108419
5.70563e-10
0.000108419
5.70592e-10
0.000108419
5.70029e-10
0.000108419
5.68468e-10
0.000108419
5.66e-10
0.000108419
5.63494e-10
0.000108419
5.61298e-10
0.000108419
5.58798e-10
0.000108419
5.55349e-10
0.000108419
5.51156e-10
0.000108419
5.46984e-10
0.000108419
5.4287e-10
0.000108419
5.38285e-10
0.000108419
5.33286e-10
0.000108419
5.28368e-10
0.000108419
5.23943e-10
0.000108419
5.20018e-10
0.000108419
5.1609e-10
0.000108419
5.11793e-10
0.000108419
5.07174e-10
0.000108419
5.02425e-10
0.000108419
4.97916e-10
0.000108419
4.93969e-10
0.000108419
4.90423e-10
0.000108419
4.8684e-10
0.000108419
4.83106e-10
0.000108419
4.79374e-10
0.000108419
4.75893e-10
0.000108419
4.72789e-10
0.000108419
4.69746e-10
0.000108419
4.66486e-10
0.000108419
4.63034e-10
0.000108419
4.59475e-10
0.000108419
4.55961e-10
0.00010842
4.52477e-10
0.00010842
4.48641e-10
0.00010842
4.43812e-10
0.00010842
4.37143e-10
0.00010842
4.28299e-10
0.00010842
4.16692e-10
0.00010842
3.95374e-10
0.00010842
3.82689e-10
0.00010842
3.75359e-10
0.00010842
3.47909e-10
0.00010842
3.09182e-10
0.00010842
2.71181e-10
0.00010842
2.40251e-10
0.00010842
2.1709e-10
0.00010842
2.00485e-10
0.00010842
1.88226e-10
0.00010842
1.78483e-10
0.00010842
1.70063e-10
0.00010842
1.60571e-10
0.00010842
1.49322e-10
0.00010842
1.31514e-10
0.00010842
1.1035e-10
0.00010842
6.81696e-11
0.00010842
2.15173e-11
0.00010842
-8.20071e-11
0.00010842
-2.23882e-10
-4.31428e-10
0.000104658
-6.80344e-10
0.000104658
-9.25297e-10
0.000104658
-1.17037e-09
0.000104658
-1.38791e-09
0.000104658
-1.56282e-09
0.000104658
-1.69014e-09
0.000104658
-1.76962e-09
0.000104658
-1.80571e-09
0.000104658
-1.80478e-09
0.000104658
-1.77371e-09
0.000104658
-1.71935e-09
0.000104658
-1.64802e-09
0.000104658
-1.56505e-09
0.000104658
-1.47424e-09
0.000104658
-1.3785e-09
0.000104658
-1.28046e-09
0.000104658
-1.18287e-09
0.000104658
-1.08667e-09
0.000104658
-9.93711e-10
0.000104658
-9.04865e-10
0.000104658
-8.22794e-10
0.000104658
-7.46916e-10
0.000104658
-6.77667e-10
0.000104658
-6.07517e-10
0.000104658
-5.36199e-10
0.000104658
-4.70876e-10
0.000104658
-4.0474e-10
0.000104658
-3.37335e-10
0.000104658
-2.70531e-10
0.000104658
-2.05487e-10
0.000104658
-1.42901e-10
0.000104658
-8.35696e-11
0.000104658
-2.79977e-11
0.000104658
2.37672e-11
0.000104658
7.21402e-11
0.000104658
1.18015e-10
0.000104658
1.61986e-10
0.000104658
2.03738e-10
0.000104658
2.42806e-10
0.000104658
2.79247e-10
0.000104658
3.13408e-10
0.000104658
3.45365e-10
0.000104658
3.7483e-10
0.000104658
4.01746e-10
0.000104658
4.26525e-10
0.000104658
4.49429e-10
0.000104658
4.70112e-10
0.000104658
4.87988e-10
0.000104658
5.02923e-10
0.000104658
5.15744e-10
0.000104658
5.27309e-10
0.000104658
5.37319e-10
0.000104658
5.45191e-10
0.000104658
5.51024e-10
0.000104658
5.55146e-10
0.000104658
5.57702e-10
0.000104658
5.59161e-10
0.000104658
5.60264e-10
0.000104658
5.61013e-10
0.000104658
5.60967e-10
0.000104658
5.60174e-10
0.000104658
5.5874e-10
0.000104658
5.56335e-10
0.000104658
5.53096e-10
0.000104658
5.49959e-10
0.000104658
5.47307e-10
0.000104658
5.44415e-10
0.000104658
5.40493e-10
0.000104658
5.35747e-10
0.000104658
5.31027e-10
0.000104658
5.26395e-10
0.000104658
5.21301e-10
0.000104658
5.15847e-10
0.000104658
5.10656e-10
0.000104658
5.06172e-10
0.000104658
5.02254e-10
0.000104658
4.98258e-10
0.000104658
4.93814e-10
0.000104658
4.89037e-10
0.000104658
4.84217e-10
0.000104658
4.79762e-10
0.000104658
4.759e-10
0.000104658
4.72355e-10
0.000104658
4.68694e-10
0.000104658
4.64916e-10
0.000104658
4.61296e-10
0.000104658
4.58065e-10
0.000104658
4.55231e-10
0.000104658
4.52399e-10
0.000104658
4.49268e-10
0.000104658
4.45898e-10
0.000104658
4.42455e-10
0.000104658
4.39105e-10
0.000104658
4.35755e-10
0.000104658
4.31987e-10
0.000104658
4.27251e-10
0.000104658
4.20859e-10
0.000104658
4.1225e-10
0.000104658
4.01403e-10
0.000104659
3.80678e-10
0.000104659
3.6871e-10
0.000104659
3.66516e-10
0.000104659
3.48175e-10
0.000104659
3.17218e-10
0.000104659
2.82923e-10
0.000104658
2.52257e-10
0.000104658
2.27645e-10
0.000104658
2.09048e-10
0.000104658
1.94806e-10
0.000104658
1.83281e-10
0.000104658
1.73245e-10
0.000104658
1.62222e-10
0.000104658
1.49504e-10
0.000104658
1.30309e-10
0.000104658
1.07915e-10
0.000104658
6.51136e-11
0.000104658
1.80268e-11
0.000104658
-8.28688e-11
0.000104658
-2.2235e-10
-4.18362e-10
0.000100961
-6.41449e-10
0.00010096
-8.73174e-10
0.00010096
-1.11356e-09
0.00010096
-1.33252e-09
0.00010096
-1.51186e-09
0.00010096
-1.64448e-09
0.00010096
-1.72915e-09
0.00010096
-1.76992e-09
0.00010096
-1.77294e-09
0.00010096
-1.74506e-09
0.00010096
-1.69334e-09
0.00010096
-1.62425e-09
0.00010096
-1.54316e-09
0.00010096
-1.45395e-09
0.00010096
-1.35969e-09
0.00010096
-1.26294e-09
0.00010096
-1.16623e-09
0.00010096
-1.07069e-09
0.00010096
-9.78277e-10
0.00010096
-8.89768e-10
0.00010096
-8.07651e-10
0.00010096
-7.31525e-10
0.00010096
-6.61488e-10
0.00010096
-5.90938e-10
0.00010096
-5.21151e-10
0.00010096
-4.59125e-10
0.00010096
-3.97209e-10
0.00010096
-3.33551e-10
0.00010096
-2.69188e-10
0.00010096
-2.05311e-10
0.00010096
-1.43134e-10
0.00010096
-8.38951e-11
0.00010096
-2.8226e-11
0.00010096
2.38224e-11
0.00010096
7.26059e-11
0.00010096
1.18954e-10
0.00010096
1.63373e-10
0.00010096
2.05399e-10
0.00010096
2.44558e-10
0.00010096
2.81024e-10
0.00010096
3.15141e-10
0.00010096
3.46925e-10
0.00010096
3.76123e-10
0.00010096
4.02779e-10
0.00010096
4.27298e-10
0.00010096
4.49769e-10
0.00010096
4.69718e-10
0.00010096
4.86685e-10
0.00010096
5.00774e-10
0.00010096
5.12896e-10
0.00010096
5.2381e-10
0.00010096
5.33072e-10
0.00010096
5.40022e-10
0.00010096
5.44819e-10
0.00010096
5.47959e-10
0.00010096
5.49666e-10
0.00010096
5.50292e-10
0.00010096
5.50463e-10
0.00010096
5.50298e-10
0.00010096
5.49471e-10
0.00010096
5.47912e-10
0.00010096
5.45662e-10
0.00010096
5.42498e-10
0.00010096
5.38599e-10
0.00010096
5.34878e-10
0.00010096
5.31728e-10
0.00010096
5.28407e-10
0.00010096
5.24069e-10
0.00010096
5.18889e-10
0.00010096
5.13682e-10
0.00010096
5.08507e-10
0.00010096
5.02896e-10
0.00010096
4.97046e-10
0.00010096
4.91637e-10
0.00010096
4.87076e-10
0.00010096
4.831e-10
0.00010096
4.79014e-10
0.00010096
4.74478e-10
0.00010096
4.69635e-10
0.00010096
4.64838e-10
0.00010096
4.60514e-10
0.00010096
4.56749e-10
0.00010096
4.5315e-10
0.00010096
4.49366e-10
0.00010096
4.45546e-10
0.00010096
4.42043e-10
0.00010096
4.39025e-10
0.00010096
4.36401e-10
0.00010096
4.33758e-10
0.00010096
4.30784e-10
0.00010096
4.27563e-10
0.00010096
4.2432e-10
0.00010096
4.21204e-10
0.00010096
4.18023e-10
0.000100961
4.14338e-10
0.000100961
4.09716e-10
0.000100961
4.03595e-10
0.000100961
3.95204e-10
0.000100961
3.84967e-10
0.000100961
3.65082e-10
0.000100961
3.53513e-10
0.000100961
3.54281e-10
0.000100961
3.42947e-10
0.000100961
3.19557e-10
0.000100961
2.90376e-10
0.000100961
2.61858e-10
0.000100961
2.37305e-10
0.000100961
2.17666e-10
0.000100961
2.02005e-10
0.000100961
1.88986e-10
0.000100961
1.77442e-10
0.000100961
1.64946e-10
0.000100961
1.50832e-10
0.000100961
1.30338e-10
0.000100961
1.06763e-10
0.000100961
6.34398e-11
0.000100961
1.59326e-11
0.000100961
-8.19397e-11
0.000100961
-2.18902e-10
-4.02156e-10
9.7321e-05
-5.97107e-10
9.73209e-05
-8.14522e-10
9.73208e-05
-1.04982e-09
9.73208e-05
-1.27011e-09
9.73207e-05
-1.45405e-09
9.73207e-05
-1.59237e-09
9.73206e-05
-1.68285e-09
9.73206e-05
-1.7289e-09
9.73205e-05
-1.73643e-09
9.73205e-05
-1.71228e-09
9.73205e-05
-1.6636e-09
9.73205e-05
-1.59705e-09
9.73204e-05
-1.51801e-09
9.73204e-05
-1.43053e-09
9.73204e-05
-1.33793e-09
9.73204e-05
-1.24261e-09
9.73203e-05
-1.14686e-09
9.73203e-05
-1.05204e-09
9.73203e-05
-9.60298e-10
9.73203e-05
-8.72286e-10
9.73203e-05
-7.9026e-10
9.73203e-05
-7.13935e-10
9.73202e-05
-6.43264e-10
9.73202e-05
-5.72349e-10
9.73202e-05
-5.03522e-10
9.73202e-05
-4.43942e-10
9.73202e-05
-3.85748e-10
9.73202e-05
-3.25942e-10
9.73202e-05
-2.64585e-10
9.73202e-05
-2.0271e-10
9.73202e-05
-1.41882e-10
9.73202e-05
-8.35869e-11
9.73202e-05
-2.84638e-11
9.73202e-05
2.34199e-11
9.73202e-05
7.22619e-11
9.73202e-05
1.18729e-10
9.73202e-05
1.6324e-10
9.73202e-05
2.05276e-10
9.73202e-05
2.44379e-10
9.73202e-05
2.80735e-10
9.73202e-05
3.14624e-10
9.73202e-05
3.46068e-10
9.73202e-05
3.74951e-10
9.73202e-05
4.01391e-10
9.73202e-05
4.25653e-10
9.73202e-05
4.47587e-10
9.73202e-05
4.66683e-10
9.73202e-05
4.82753e-10
9.73202e-05
4.96158e-10
9.73202e-05
5.07728e-10
9.73202e-05
5.17979e-10
9.73202e-05
5.26415e-10
9.73202e-05
5.32457e-10
9.73202e-05
5.36325e-10
9.73202e-05
5.38615e-10
9.73202e-05
5.39599e-10
9.73202e-05
5.39468e-10
9.73203e-05
5.387e-10
9.73203e-05
5.3759e-10
9.73203e-05
5.36008e-10
9.73203e-05
5.33753e-10
9.73203e-05
5.30766e-10
9.73203e-05
5.26942e-10
9.73203e-05
5.22499e-10
9.73204e-05