/*--------------------------------*- C++ -*----------------------------------*\
  =========                 |
  \\      /  F ield         | OpenFOAM: The Open Source CFD Toolbox
   \\    /   O peration     | Website:  https://openfoam.org
    \\  /    A nd           | Version:  7
     \\/     M anipulation  |
\*---------------------------------------------------------------------------*/
FoamFile
{
    version     2.0;
    format      ascii;
    class       volScalarField;
    location    "98000";
    object      k;
}
// * * * * * * * * * * * * * * * * * * * * * * * * * * * * * * * * * * * * * //

dimensions      [0 2 -2 0 0 0 0];

internalField   nonuniform List<scalar> 
600
(
8.61889e-13
2.58769e-11
1.83646e-10
6.6929e-10
1.73616e-09
3.68632e-09
6.86879e-09
1.16803e-08
1.85671e-08
2.80275e-08
4.0615e-08
5.69411e-08
7.76792e-08
1.03569e-07
1.35419e-07
1.74112e-07
2.20611e-07
2.75962e-07
3.41299e-07
4.17849e-07
5.0694e-07
6.10004e-07
7.2858e-07
8.64325e-07
1.01901e-06
1.19455e-06
1.39295e-06
1.61639e-06
1.86716e-06
2.14769e-06
2.46056e-06
2.80847e-06
3.19426e-06
3.62089e-06
4.09146e-06
4.60914e-06
5.17722e-06
5.79905e-06
6.47803e-06
7.21755e-06
8.02101e-06
8.89175e-06
9.83298e-06
1.08478e-05
1.1939e-05
1.31092e-05
1.43607e-05
1.56953e-05
1.71145e-05
1.86192e-05
2.02097e-05
2.18858e-05
2.36465e-05
2.54905e-05
2.74154e-05
2.94185e-05
3.14962e-05
3.36445e-05
3.58587e-05
3.81338e-05
4.04641e-05
4.28439e-05
4.52669e-05
4.7727e-05
5.02177e-05
5.27326e-05
5.52655e-05
5.78102e-05
6.03606e-05
6.29112e-05
6.54564e-05
6.79912e-05
7.05108e-05
7.3011e-05
7.54877e-05
7.79373e-05
8.03566e-05
8.27428e-05
8.50933e-05
8.74075e-05
8.96855e-05
9.19262e-05
9.41282e-05
9.62899e-05
9.84101e-05
0.000100488
0.000102521
0.000104511
0.000106456
0.000108355
0.000110208
0.000112016
0.000113777
0.000115493
0.000117163
0.000118787
0.000120367
0.000121901
0.000123391
0.000124838
0.000126241
0.000127601
0.00012892
0.000130197
0.000131434
0.000132631
0.00013379
0.00013491
0.000135992
0.000137038
0.000138049
0.000139024
0.000139965
0.000140872
0.000141747
0.00014259
0.000143402
0.000144183
0.000144935
0.000145658
0.000146352
0.000147019
0.000147659
0.000148273
0.000148862
0.000149425
0.000149964
0.00015048
0.000150972
0.000151442
0.000151889
0.000152315
0.00015272
0.000153104
0.000153469
0.000153813
0.000154139
0.000154445
0.000154733
0.000155003
0.000155256
0.000155491
0.00015571
0.000155911
0.000156097
0.000156266
0.00015642
0.000156558
0.000156682
0.00015679
0.000156884
0.000156963
0.000157028
0.000157079
0.000157117
0.00015714
0.000157151
0.000157148
0.000157132
0.000157103
0.000157062
0.000157007
0.000156941
0.000156861
0.00015677
0.000156666
0.00015655
0.000156423
0.000156283
0.000156132
0.000155968
0.000155793
0.000155607
0.000155408
0.000155198
0.000154977
0.000154744
0.0001545
0.000154244
0.000153976
0.000153698
0.000153407
0.000153106
0.000152792
0.000152468
0.000152132
0.000151784
0.000151425
0.000151054
0.000150672
0.000150278
0.000149872
0.000149455
0.000149025
0.000148584
0.000148131
0.000147666
0.000147189
0.0001467
0.000146198
0.000145685
0.000145158
0.00014462
0.000144068
0.000143504
0.000142928
0.000142338
0.000141735
0.00014112
0.00014049
0.000139848
0.000139192
0.000138523
0.000137839
0.000137142
0.000136431
0.000135706
0.000134968
0.000134215
0.000133448
0.000132668
0.000131874
0.000131068
0.000130249
0.000129418
0.000128576
0.000127723
0.00012686
0.000125987
0.000125103
0.000124207
0.0001233
0.000122381
0.00012145
0.000120508
0.000119554
0.000118589
0.000117613
0.000116625
0.000115626
0.000114616
0.000113596
0.000112565
0.000111523
0.000110471
0.000109409
0.000108337
0.000107256
0.000106166
0.000105067
0.000103959
0.000102843
0.00010172
0.000100589
9.94513e-05
9.83076e-05
9.71581e-05
9.60035e-05
9.48444e-05
9.36816e-05
9.25156e-05
9.13473e-05
9.01774e-05
8.90069e-05
8.78367e-05
8.66676e-05
8.55007e-05
8.43372e-05
8.3178e-05
8.20245e-05
8.08778e-05
7.97393e-05
7.86104e-05
7.74925e-05
7.63871e-05
7.52958e-05
7.42203e-05
7.31623e-05
7.21236e-05
7.11061e-05
7.01118e-05
6.91426e-05
6.82006e-05
6.72881e-05
6.64073e-05
6.55605e-05
6.47502e-05
6.39788e-05
6.32489e-05
6.25632e-05
6.19244e-05
6.13353e-05
6.07989e-05
6.0318e-05
5.98959e-05
5.95357e-05
5.92406e-05
5.9014e-05
5.88594e-05
5.87802e-05
5.87802e-05
5.88594e-05
5.9014e-05
5.92406e-05
5.95357e-05
5.98959e-05
6.0318e-05
6.07989e-05
6.13353e-05
6.19244e-05
6.25632e-05
6.32489e-05
6.39788e-05
6.47502e-05
6.55605e-05
6.64073e-05
6.72881e-05
6.82006e-05
6.91426e-05
7.01118e-05
7.11061e-05
7.21236e-05
7.31623e-05
7.42203e-05
7.52958e-05
7.63871e-05
7.74925e-05
7.86104e-05
7.97393e-05
8.08778e-05
8.20245e-05
8.3178e-05
8.43372e-05
8.55007e-05
8.66676e-05
8.78367e-05
8.90069e-05
9.01774e-05
9.13473e-05
9.25156e-05
9.36816e-05
9.48444e-05
9.60035e-05
9.71581e-05
9.83076e-05
9.94513e-05
0.000100589
0.00010172
0.000102843
0.000103959
0.000105067
0.000106166
0.000107256
0.000108337
0.000109409
0.000110471
0.000111523
0.000112565
0.000113596
0.000114616
0.000115626
0.000116625
0.000117613
0.000118589
0.000119554
0.000120508
0.00012145
0.000122381
0.0001233
0.000124207
0.000125103
0.000125987
0.00012686
0.000127723
0.000128576
0.000129418
0.000130249
0.000131068
0.000131874
0.000132668
0.000133448
0.000134215
0.000134968
0.000135706
0.000136431
0.000137142
0.000137839
0.000138523
0.000139192
0.000139848
0.00014049
0.00014112
0.000141735
0.000142338
0.000142928
0.000143504
0.000144068
0.00014462
0.000145158
0.000145685
0.000146198
0.0001467
0.000147189
0.000147666
0.000148131
0.000148584
0.000149025
0.000149455
0.000149872
0.000150278
0.000150672
0.000151054
0.000151425
0.000151784
0.000152132
0.000152468
0.000152792
0.000153106
0.000153407
0.000153698
0.000153976
0.000154244
0.0001545
0.000154744
0.000154977
0.000155198
0.000155408
0.000155607
0.000155793
0.000155968
0.000156132
0.000156283
0.000156423
0.00015655
0.000156666
0.00015677
0.000156861
0.000156941
0.000157007
0.000157062
0.000157103
0.000157132
0.000157148
0.000157151
0.00015714
0.000157117
0.000157079
0.000157028
0.000156963
0.000156884
0.00015679
0.000156682
0.000156558
0.00015642
0.000156266
0.000156097
0.000155911
0.00015571
0.000155491
0.000155256
0.000155003
0.000154733
0.000154445
0.000154139
0.000153813
0.000153469
0.000153104
0.00015272
0.000152315
0.000151889
0.000151442
0.000150972
0.00015048
0.000149964
0.000149425
0.000148862
0.000148273
0.000147659
0.000147019
0.000146352
0.000145658
0.000144935
0.000144183
0.000143402
0.00014259
0.000141747
0.000140872
0.000139965
0.000139024
0.000138049
0.000137038
0.000135992
0.00013491
0.00013379
0.000132631
0.000131434
0.000130197
0.00012892
0.000127601
0.000126241
0.000124838
0.000123391
0.000121901
0.000120367
0.000118787
0.000117163
0.000115493
0.000113777
0.000112016
0.000110208
0.000108355
0.000106456
0.000104511
0.000102521
0.000100488
9.84101e-05
9.62899e-05
9.41282e-05
9.19262e-05
8.96855e-05
8.74075e-05
8.50933e-05
8.27428e-05
8.03566e-05
7.79373e-05
7.54877e-05
7.3011e-05
7.05108e-05
6.79912e-05
6.54564e-05
6.29112e-05
6.03606e-05
5.78102e-05
5.52655e-05
5.27326e-05
5.02177e-05
4.7727e-05
4.52669e-05
4.28439e-05
4.04641e-05
3.81338e-05
3.58587e-05
3.36445e-05
3.14962e-05
2.94185e-05
2.74154e-05
2.54905e-05
2.36465e-05
2.18858e-05
2.02097e-05
1.86192e-05
1.71145e-05
1.56953e-05
1.43607e-05
1.31092e-05
1.1939e-05
1.08478e-05
9.83298e-06
8.89175e-06
8.02101e-06
7.21755e-06
6.47803e-06
5.79905e-06
5.17722e-06
4.60914e-06
4.09146e-06
3.62089e-06
3.19426e-06
2.80847e-06
2.46056e-06
2.14769e-06
1.86716e-06
1.61639e-06
1.39295e-06
1.19455e-06
1.01901e-06
8.64325e-07
7.2858e-07
6.10004e-07
5.0694e-07
4.17849e-07
3.41299e-07
2.75962e-07
2.20611e-07
1.74112e-07
1.35419e-07
1.03569e-07
7.76793e-08
5.69411e-08
4.0615e-08
2.80275e-08
1.85671e-08
1.16803e-08
6.86879e-09
3.68632e-09
1.73616e-09
6.69289e-10
1.83646e-10
2.58769e-11
8.61889e-13
)
;

boundaryField
{
    bottomWall
    {
        type            kqRWallFunction;
        value           uniform 8.61889e-13;
    }
    topWall
    {
        type            kqRWallFunction;
        value           uniform 8.61889e-13;
    }
    sides1_half0
    {
        type            empty;
    }
    sides1_half1
    {
        type            empty;
    }
    sides2_half0
    {
        type            empty;
    }
    sides2_half1
    {
        type            empty;
    }
    inout1_half0
    {
        type            cyclic;
    }
    inout1_half1
    {
        type            cyclic;
    }
    inout2_half0
    {
        type            cyclic;
    }
    inout2_half1
    {
        type            cyclic;
    }
}


// ************************************************************************* //
