/*--------------------------------*- C++ -*----------------------------------*\
  =========                 |
  \\      /  F ield         | OpenFOAM: The Open Source CFD Toolbox
   \\    /   O peration     | Website:  https://openfoam.org
    \\  /    A nd           | Version:  7
     \\/     M anipulation  |
\*---------------------------------------------------------------------------*/
FoamFile
{
    version     2.0;
    format      ascii;
    class       volScalarField;
    location    "98000";
    object      nut;
}
// * * * * * * * * * * * * * * * * * * * * * * * * * * * * * * * * * * * * * //

dimensions      [0 2 -1 0 0 0 0];

internalField   nonuniform List<scalar> 
600
(
3.20875e-18
5.63717e-16
1.19097e-14
9.25376e-14
4.25047e-13
1.42491e-12
3.88233e-12
9.14095e-12
1.93183e-11
3.75738e-11
6.84319e-11
1.18166e-10
1.95254e-10
3.10911e-10
4.79715e-10
7.20331e-10
1.05634e-09
1.51722e-09
2.1394e-09
2.96755e-09
4.05598e-09
5.47019e-09
7.28869e-09
9.60493e-09
1.25295e-08
1.61925e-08
2.07461e-08
2.63674e-08
3.32615e-08
4.16643e-08
5.18464e-08
6.41161e-08
7.88227e-08
9.63606e-08
1.17172e-07
1.4175e-07
1.70643e-07
2.04454e-07
2.43846e-07
2.89538e-07
3.42313e-07
4.0301e-07
4.72523e-07
5.51803e-07
6.41847e-07
7.43696e-07
8.58427e-07
9.87143e-07
1.13097e-06
1.29102e-06
1.46844e-06
1.66432e-06
1.87974e-06
2.11576e-06
2.37336e-06
2.65347e-06
2.95698e-06
3.28467e-06
3.63727e-06
4.01542e-06
4.41968e-06
4.85053e-06
5.30838e-06
5.79355e-06
6.30631e-06
6.84684e-06
7.4153e-06
8.01176e-06
8.63626e-06
9.28881e-06
9.96938e-06
1.06779e-05
1.14143e-05
1.21784e-05
1.29702e-05
1.37895e-05
1.46362e-05
1.55101e-05
1.6411e-05
1.72844e-05
1.8166e-05
1.90731e-05
2.00087e-05
2.09736e-05
2.19683e-05
2.29932e-05
2.40485e-05
2.51348e-05
2.62524e-05
2.74015e-05
2.85826e-05
2.9796e-05
3.1042e-05
3.2321e-05
3.36332e-05
3.4979e-05
3.63587e-05
3.77726e-05
3.9221e-05
4.07042e-05
4.22225e-05
4.37762e-05
4.53657e-05
4.6991e-05
4.86521e-05
5.03494e-05
5.20832e-05
5.38539e-05
5.56619e-05
5.75073e-05
5.93904e-05
6.13114e-05
6.32705e-05
6.5268e-05
6.73041e-05
6.93791e-05
7.1493e-05
7.36462e-05
7.58389e-05
7.80713e-05
8.03436e-05
8.26559e-05
8.50086e-05
8.74018e-05
8.98356e-05
9.23104e-05
9.48262e-05
9.73833e-05
9.99819e-05
0.000102622
0.000105304
0.000108028
0.000110794
0.000113603
0.000116454
0.000119348
0.000122284
0.000125264
0.000128286
0.000131352
0.000134462
0.000137614
0.000140811
0.000144052
0.000147336
0.000150664
0.000154037
0.000157454
0.000160916
0.000164422
0.000167972
0.000171567
0.000175207
0.000178892
0.000182622
0.000186397
0.000190217
0.000194082
0.000197992
0.000201947
0.000205948
0.000209994
0.000214085
0.000218221
0.000222402
0.000226629
0.0002309
0.000235217
0.000239579
0.000243986
0.000248438
0.000252935
0.000257476
0.000262063
0.000266693
0.000271369
0.000276088
0.000280852
0.00028566
0.000290511
0.000295406
0.000300345
0.000305326
0.000310351
0.000315418
0.000320528
0.00032568
0.000330874
0.00033611
0.000341386
0.000346704
0.000352062
0.000357461
0.000362899
0.000368377
0.000373894
0.00037945
0.000385043
0.000390675
0.000396343
0.000402049
0.00040779
0.000413568
0.00041938
0.000425227
0.000431109
0.000437025
0.000442975
0.00044896
0.000454979
0.000461035
0.000467131
0.000473268
0.000479454
0.000485696
0.000492004
0.000498393
0.000504882
0.000511496
0.000518263
0.000525218
0.0005324
0.000539847
0.000547591
0.000555645
0.000563989
0.00057254
0.000581117
0.000589388
0.000596806
0.000603887
0.000610993
0.000618122
0.000625274
0.000632446
0.000639638
0.000646849
0.000654077
0.000661322
0.000668582
0.000675856
0.000683142
0.00069044
0.000697747
0.000705064
0.000712388
0.000719718
0.000727053
0.000734391
0.000741732
0.000749073
0.000756413
0.000763751
0.000771084
0.000778413
0.000785735
0.000793047
0.00080035
0.000807641
0.000814917
0.000822178
0.000829421
0.000836643
0.000843844
0.000851019
0.000858168
0.000865286
0.00087237
0.000879418
0.000886426
0.00089339
0.000900305
0.000907167
0.000913971
0.000920711
0.00092738
0.000933972
0.000940479
0.000946893
0.000953204
0.000959401
0.000965475
0.000971412
0.0009772
0.000982822
0.000988265
0.000993509
0.000998537
0.00100333
0.00100786
0.00101212
0.00101607
0.00101969
0.00102295
0.00102583
0.00102831
0.00103034
0.00103191
0.00103298
0.00103353
0.00103353
0.00103298
0.00103191
0.00103034
0.00102831
0.00102583
0.00102295
0.00101969
0.00101607
0.00101212
0.00100786
0.00100333
0.000998537
0.000993509
0.000988265
0.000982822
0.0009772
0.000971412
0.000965475
0.000959401
0.000953204
0.000946893
0.000940479
0.000933972
0.00092738
0.000920711
0.000913971
0.000907167
0.000900305
0.00089339
0.000886426
0.000879418
0.00087237
0.000865286
0.000858168
0.000851019
0.000843844
0.000836643
0.000829421
0.000822178
0.000814917
0.000807641
0.00080035
0.000793047
0.000785735
0.000778413
0.000771084
0.000763751
0.000756413
0.000749073
0.000741732
0.000734391
0.000727053
0.000719718
0.000712388
0.000705064
0.000697747
0.00069044
0.000683142
0.000675856
0.000668582
0.000661322
0.000654077
0.000646849
0.000639638
0.000632446
0.000625274
0.000618122
0.000610993
0.000603887
0.000596806
0.000589388
0.000581117
0.00057254
0.000563989
0.000555645
0.000547591
0.000539847
0.0005324
0.000525218
0.000518263
0.000511496
0.000504882
0.000498393
0.000492004
0.000485696
0.000479454
0.000473268
0.000467131
0.000461035
0.000454979
0.00044896
0.000442975
0.000437025
0.000431109
0.000425227
0.00041938
0.000413568
0.00040779
0.000402049
0.000396343
0.000390675
0.000385043
0.00037945
0.000373894
0.000368377
0.000362899
0.000357461
0.000352062
0.000346704
0.000341386
0.00033611
0.000330874
0.00032568
0.000320528
0.000315418
0.000310351
0.000305326
0.000300345
0.000295406
0.000290511
0.00028566
0.000280852
0.000276088
0.000271369
0.000266693
0.000262063
0.000257476
0.000252935
0.000248438
0.000243986
0.000239579
0.000235217
0.0002309
0.000226629
0.000222402
0.000218221
0.000214085
0.000209994
0.000205948
0.000201947
0.000197992
0.000194082
0.000190217
0.000186397
0.000182622
0.000178892
0.000175207
0.000171567
0.000167972
0.000164422
0.000160916
0.000157454
0.000154037
0.000150664
0.000147336
0.000144052
0.000140811
0.000137614
0.000134462
0.000131352
0.000128286
0.000125264
0.000122284
0.000119348
0.000116454
0.000113603
0.000110794
0.000108028
0.000105304
0.000102622
9.99819e-05
9.73833e-05
9.48262e-05
9.23104e-05
8.98356e-05
8.74018e-05
8.50086e-05
8.26559e-05
8.03436e-05
7.80713e-05
7.58389e-05
7.36462e-05
7.1493e-05
6.93791e-05
6.73041e-05
6.5268e-05
6.32705e-05
6.13114e-05
5.93904e-05
5.75073e-05
5.56619e-05
5.38539e-05
5.20832e-05
5.03494e-05
4.86521e-05
4.6991e-05
4.53657e-05
4.37762e-05
4.22225e-05
4.07042e-05
3.9221e-05
3.77726e-05
3.63587e-05
3.4979e-05
3.36332e-05
3.2321e-05
3.1042e-05
2.9796e-05
2.85826e-05
2.74015e-05
2.62524e-05
2.51348e-05
2.40485e-05
2.29932e-05
2.19683e-05
2.09736e-05
2.00087e-05
1.90731e-05
1.8166e-05
1.72844e-05
1.6411e-05
1.55101e-05
1.46362e-05
1.37895e-05
1.29702e-05
1.21784e-05
1.14143e-05
1.06779e-05
9.96938e-06
9.28881e-06
8.63626e-06
8.01176e-06
7.4153e-06
6.84684e-06
6.30631e-06
5.79355e-06
5.30838e-06
4.85053e-06
4.41968e-06
4.01542e-06
3.63727e-06
3.28467e-06
2.95698e-06
2.65347e-06
2.37336e-06
2.11576e-06
1.87974e-06
1.66431e-06
1.46844e-06
1.29102e-06
1.13097e-06
9.87143e-07
8.58427e-07
7.43696e-07
6.41847e-07
5.51803e-07
4.72523e-07
4.0301e-07
3.42313e-07
2.89539e-07
2.43846e-07
2.04454e-07
1.70643e-07
1.4175e-07
1.17172e-07
9.63606e-08
7.88227e-08
6.4116e-08
5.18464e-08
4.16643e-08
3.32615e-08
2.63674e-08
2.07461e-08
1.61925e-08
1.25295e-08
9.60494e-09
7.28869e-09
5.47019e-09
4.05598e-09
2.96755e-09
2.1394e-09
1.51722e-09
1.05634e-09
7.20331e-10
4.79715e-10
3.10911e-10
1.95254e-10
1.18166e-10
6.84318e-11
3.75738e-11
1.93183e-11
9.14096e-12
3.88234e-12
1.42491e-12
4.25046e-13
9.25374e-14
1.19098e-14
5.63717e-16
3.20874e-18
)
;

boundaryField
{
    bottomWall
    {
        type            nutUWallFunction;
        Cmu             0.09;
        kappa           0.41;
        E               9.8;
        value           uniform 0;
    }
    topWall
    {
        type            nutUWallFunction;
        Cmu             0.09;
        kappa           0.41;
        E               9.8;
        value           uniform 0;
    }
    sides1_half0
    {
        type            empty;
    }
    sides1_half1
    {
        type            empty;
    }
    sides2_half0
    {
        type            empty;
    }
    sides2_half1
    {
        type            empty;
    }
    inout1_half0
    {
        type            cyclic;
    }
    inout1_half1
    {
        type            cyclic;
    }
    inout2_half0
    {
        type            cyclic;
    }
    inout2_half1
    {
        type            cyclic;
    }
}


// ************************************************************************* //
