/*--------------------------------*- C++ -*----------------------------------*\
  =========                 |
  \\      /  F ield         | OpenFOAM: The Open Source CFD Toolbox
   \\    /   O peration     | Website:  https://openfoam.org
    \\  /    A nd           | Version:  7
     \\/     M anipulation  |
\*---------------------------------------------------------------------------*/
FoamFile
{
    version     2.0;
    format      ascii;
    class       volVectorField;
    location    "98000";
    object      U;
}
// * * * * * * * * * * * * * * * * * * * * * * * * * * * * * * * * * * * * * //

dimensions      [0 1 -1 0 0 0 0];

internalField   nonuniform List<vector> 
600
(
(0.000231037 3.13907e-15 0)
(0.000696625 2.28363e-14 0)
(0.00116936 1.66577e-14 0)
(0.00164937 1.79133e-14 0)
(0.00213674 1.69951e-14 0)
(0.00263159 1.7316e-14 0)
(0.00313405 1.7681e-14 0)
(0.00364421 1.6656e-14 0)
(0.0041622 1.47063e-14 0)
(0.00468814 1.48625e-14 0)
(0.00522215 1.57187e-14 0)
(0.00576435 1.40972e-14 0)
(0.00631486 1.54086e-14 0)
(0.00687381 1.5169e-14 0)
(0.00744132 1.47712e-14 0)
(0.00801753 1.2352e-14 0)
(0.00860256 1.35921e-14 0)
(0.00919653 1.34049e-14 0)
(0.00979959 1.26441e-14 0)
(0.0104119 1.4001e-14 0)
(0.0110335 1.45335e-14 0)
(0.0116646 1.51199e-14 0)
(0.0123053 1.46283e-14 0)
(0.0129557 1.50281e-14 0)
(0.013616 1.5238e-14 0)
(0.0142863 1.50952e-14 0)
(0.0149667 1.20461e-14 0)
(0.0156573 1.28181e-14 0)
(0.0163582 1.25001e-14 0)
(0.0170696 1.13084e-14 0)
(0.0177916 1.13466e-14 0)
(0.0185241 1.0456e-14 0)
(0.0192673 1.02943e-14 0)
(0.0200213 1.04326e-14 0)
(0.020786 1.30175e-14 0)
(0.0215615 1.14266e-14 0)
(0.0223478 1.15963e-14 0)
(0.0231449 1.24781e-14 0)
(0.0239526 1.39189e-14 0)
(0.024771 1.39272e-14 0)
(0.0255998 1.24132e-14 0)
(0.0264388 1.38117e-14 0)
(0.027288 1.06552e-14 0)
(0.0281469 1.16025e-14 0)
(0.0290153 1.41666e-14 0)
(0.0298928 1.4275e-14 0)
(0.0307791 1.60142e-14 0)
(0.0316735 1.64316e-14 0)
(0.0325757 1.86306e-14 0)
(0.0334851 1.59802e-14 0)
(0.0344009 1.72591e-14 0)
(0.0353226 1.59853e-14 0)
(0.0362495 1.51912e-14 0)
(0.0371808 1.3749e-14 0)
(0.0381157 1.20366e-14 0)
(0.0390534 1.15363e-14 0)
(0.0399932 9.85362e-15 0)
(0.0409342 1.21177e-14 0)
(0.0418756 1.29927e-14 0)
(0.0428166 1.35729e-14 0)
(0.0437564 1.5877e-14 0)
(0.0446942 1.4254e-14 0)
(0.0456294 1.17777e-14 0)
(0.0465611 1.03207e-14 0)
(0.0474888 9.33775e-15 0)
(0.0484119 8.47911e-15 0)
(0.0493297 6.79858e-15 0)
(0.0502418 6.06557e-15 0)
(0.0511477 4.33901e-15 0)
(0.052047 2.27444e-15 0)
(0.0529392 4.4709e-15 0)
(0.0538242 3.47223e-15 0)
(0.0547016 1.92774e-15 0)
(0.0555711 3.1052e-16 0)
(0.0564327 3.33366e-15 0)
(0.0572861 -9.6007e-16 0)
(0.0581312 1.48516e-15 0)
(0.0589679 9.65442e-16 0)
(0.0597962 -1.00437e-15 0)
(0.0606167 -3.35604e-16 0)
(0.0614302 -1.33482e-15 0)
(0.0622366 -2.6764e-15 0)
(0.0630361 -1.95362e-15 0)
(0.0638285 -9.83332e-16 0)
(0.0646137 -3.33479e-15 0)
(0.0653917 -4.38281e-15 0)
(0.0661625 -8.04663e-15 0)
(0.0669259 -5.73931e-15 0)
(0.0676821 -2.86845e-15 0)
(0.0684309 -2.62082e-15 0)
(0.0691725 -1.87974e-15 0)
(0.0699067 7.91992e-17 0)
(0.0706337 2.80918e-15 0)
(0.0713535 3.66768e-15 0)
(0.0720661 4.29971e-15 0)
(0.0727716 5.16065e-15 0)
(0.0734699 4.19972e-15 0)
(0.0741613 5.39725e-15 0)
(0.0748458 6.22972e-15 0)
(0.0755234 6.07372e-15 0)
(0.0761942 6.2812e-15 0)
(0.0768583 7.19363e-15 0)
(0.0775158 6.62777e-15 0)
(0.0781668 4.83536e-15 0)
(0.0788114 3.6161e-15 0)
(0.0794497 4.13398e-15 0)
(0.0800817 3.7897e-15 0)
(0.0807076 4.7786e-15 0)
(0.0813275 5.38118e-15 0)
(0.0819415 6.33178e-15 0)
(0.0825497 5.99279e-15 0)
(0.0831521 5.27491e-15 0)
(0.083749 3.94566e-15 0)
(0.0843403 3.05603e-15 0)
(0.0849263 3.41387e-15 0)
(0.0855069 2.33542e-15 0)
(0.0860824 3.41693e-15 0)
(0.0866528 3.76848e-15 0)
(0.0872181 3.80941e-15 0)
(0.0877786 3.31533e-15 0)
(0.0883343 4.534e-15 0)
(0.0888853 3.74335e-15 0)
(0.0894318 2.51875e-15 0)
(0.0899737 2.29524e-15 0)
(0.0905112 1.84179e-15 0)
(0.0910444 7.02315e-16 0)
(0.0915734 -5.54813e-16 0)
(0.0920982 -8.17332e-16 0)
(0.0926191 -1.18805e-15 0)
(0.0931359 9.0704e-16 0)
(0.093649 3.5735e-17 0)
(0.0941582 -2.32964e-15 0)
(0.0946637 -1.94057e-15 0)
(0.0951657 -1.93887e-15 0)
(0.0956641 -4.11621e-15 0)
(0.096159 -2.96798e-15 0)
(0.0966506 -3.65862e-15 0)
(0.0971389 -3.68577e-15 0)
(0.0976239 -5.15581e-15 0)
(0.0981058 -5.69181e-15 0)
(0.0985846 -6.62304e-15 0)
(0.0990604 -6.4337e-15 0)
(0.0995332 -7.16931e-15 0)
(0.100003 -6.36685e-15 0)
(0.10047 -6.2411e-15 0)
(0.100935 -6.6816e-15 0)
(0.101396 -8.01066e-15 0)
(0.101856 -9.49906e-15 0)
(0.102312 -9.19159e-15 0)
(0.102766 -9.04178e-15 0)
(0.103218 -9.90597e-15 0)
(0.103667 -1.04017e-14 0)
(0.104114 -1.00871e-14 0)
(0.104558 -9.49818e-15 0)
(0.105001 -1.10688e-14 0)
(0.105441 -1.0955e-14 0)
(0.105879 -1.34433e-14 0)
(0.106315 -1.26329e-14 0)
(0.106748 -1.27019e-14 0)
(0.10718 -1.2605e-14 0)
(0.10761 -1.15638e-14 0)
(0.108038 -1.26221e-14 0)
(0.108464 -1.27455e-14 0)
(0.108889 -1.01609e-14 0)
(0.109311 -1.14796e-14 0)
(0.109732 -1.16511e-14 0)
(0.110151 -1.39455e-14 0)
(0.110569 -1.32216e-14 0)
(0.110985 -1.45174e-14 0)
(0.111399 -1.39992e-14 0)
(0.111812 -1.39549e-14 0)
(0.112223 -1.36951e-14 0)
(0.112632 -1.39612e-14 0)
(0.113041 -1.48877e-14 0)
(0.113447 -1.47418e-14 0)
(0.113853 -1.65858e-14 0)
(0.114257 -1.61395e-14 0)
(0.11466 -1.61467e-14 0)
(0.115061 -1.60061e-14 0)
(0.115461 -1.52742e-14 0)
(0.11586 -1.33905e-14 0)
(0.116258 -1.40906e-14 0)
(0.116654 -1.30626e-14 0)
(0.117049 -1.26609e-14 0)
(0.117443 -1.1246e-14 0)
(0.117836 -1.16851e-14 0)
(0.118228 -1.24963e-14 0)
(0.118619 -9.89324e-15 0)
(0.119008 -9.82917e-15 0)
(0.119397 -1.00024e-14 0)
(0.119785 -9.16962e-15 0)
(0.120171 -9.80682e-15 0)
(0.120557 -1.03444e-14 0)
(0.120941 -9.4834e-15 0)
(0.121325 -8.96293e-15 0)
(0.121707 -9.75294e-15 0)
(0.122089 -9.99965e-15 0)
(0.122469 -1.13788e-14 0)
(0.122849 -1.03944e-14 0)
(0.123228 -8.79065e-15 0)
(0.123606 -8.61252e-15 0)
(0.123983 -8.9104e-15 0)
(0.124359 -8.24796e-15 0)
(0.124734 -8.3929e-15 0)
(0.125108 -9.13854e-15 0)
(0.125482 -8.09934e-15 0)
(0.125854 -9.09715e-15 0)
(0.126226 -8.63007e-15 0)
(0.126596 -9.46946e-15 0)
(0.126966 -8.83496e-15 0)
(0.127335 -8.21041e-15 0)
(0.127703 -8.0268e-15 0)
(0.128071 -6.35926e-15 0)
(0.128437 -5.24052e-15 0)
(0.128802 -4.63413e-15 0)
(0.129167 -5.85499e-15 0)
(0.12953 -4.33134e-15 0)
(0.129892 -5.48977e-15 0)
(0.130254 -6.42559e-15 0)
(0.130614 -7.27896e-15 0)
(0.130972 -6.79727e-15 0)
(0.13133 -7.32619e-15 0)
(0.131685 -7.67124e-15 0)
(0.132039 -8.28326e-15 0)
(0.132391 -7.27408e-15 0)
(0.132741 -5.25649e-15 0)
(0.133089 -6.60628e-15 0)
(0.133435 -5.37677e-15 0)
(0.133779 -5.97253e-15 0)
(0.13412 -6.75645e-15 0)
(0.134461 -6.02356e-15 0)
(0.1348 -6.30481e-15 0)
(0.135137 -6.82178e-15 0)
(0.135474 -6.84075e-15 0)
(0.135808 -6.22922e-15 0)
(0.136142 -5.01963e-15 0)
(0.136473 -6.43223e-15 0)
(0.136803 -5.20776e-15 0)
(0.137132 -6.20908e-15 0)
(0.137459 -6.91332e-15 0)
(0.137784 -7.44187e-15 0)
(0.138108 -5.99889e-15 0)
(0.13843 -5.68434e-15 0)
(0.138749 -6.09967e-15 0)
(0.139068 -6.17734e-15 0)
(0.139384 -6.07041e-15 0)
(0.139698 -6.67737e-15 0)
(0.14001 -6.58609e-15 0)
(0.14032 -7.92484e-15 0)
(0.140628 -6.92737e-15 0)
(0.140933 -7.15846e-15 0)
(0.141236 -7.49831e-15 0)
(0.141537 -8.36728e-15 0)
(0.141836 -7.43265e-15 0)
(0.142131 -8.25656e-15 0)
(0.142425 -7.98152e-15 0)
(0.142715 -8.6553e-15 0)
(0.143003 -8.41434e-15 0)
(0.143287 -7.99783e-15 0)
(0.143569 -6.12145e-15 0)
(0.143848 -5.01652e-15 0)
(0.144123 -5.97516e-15 0)
(0.144395 -4.94157e-15 0)
(0.144664 -4.31761e-15 0)
(0.144929 -4.99408e-15 0)
(0.14519 -4.18776e-15 0)
(0.145448 -1.49254e-15 0)
(0.145702 -2.2267e-15 0)
(0.145951 -2.88832e-15 0)
(0.146197 -3.61084e-15 0)
(0.146438 -2.43137e-15 0)
(0.146674 -2.57383e-15 0)
(0.146906 -4.15789e-15 0)
(0.147133 -3.7088e-15 0)
(0.147355 -3.09034e-15 0)
(0.147571 -2.98036e-15 0)
(0.147782 -1.32271e-15 0)
(0.147988 2.56189e-16 0)
(0.148188 -4.6237e-16 0)
(0.148382 -2.39737e-17 0)
(0.14857 -7.18797e-16 0)
(0.148751 -1.59251e-15 0)
(0.148926 -3.41708e-15 0)
(0.149093 -2.20622e-15 0)
(0.149254 -3.21397e-15 0)
(0.149407 -2.10359e-15 0)
(0.149552 -2.04544e-15 0)
(0.14969 -2.42131e-15 0)
(0.149819 -2.67705e-15 0)
(0.14994 -4.08158e-15 0)
(0.150052 -4.88695e-15 0)
(0.150154 -5.13122e-15 0)
(0.150247 -6.1194e-15 0)
(0.15033 -6.31036e-15 0)
(0.150402 -5.20638e-15 0)
(0.150464 -6.50606e-15 0)
(0.150514 -5.93942e-15 0)
(0.150553 -7.2277e-15 0)
(0.150579 -6.93958e-15 0)
(0.150593 -9.15061e-15 0)
(0.150593 -7.2851e-15 0)
(0.150579 -8.96719e-15 0)
(0.150553 -7.8057e-15 0)
(0.150514 -6.44386e-15 0)
(0.150464 -4.92193e-15 0)
(0.150402 -3.58574e-15 0)
(0.15033 -4.50737e-15 0)
(0.150247 -3.32624e-15 0)
(0.150154 -3.22251e-15 0)
(0.150052 -2.25577e-15 0)
(0.14994 2.04513e-16 0)
(0.149819 -7.84092e-16 0)
(0.14969 1.32379e-15 0)
(0.149552 1.12784e-15 0)
(0.149407 9.8576e-16 0)
(0.149254 -8.02291e-16 0)
(0.149093 -3.64438e-16 0)
(0.148926 -2.66827e-15 0)
(0.148751 -2.62375e-15 0)
(0.14857 -2.96129e-15 0)
(0.148382 -3.84861e-15 0)
(0.148188 -4.40576e-15 0)
(0.147988 -3.87947e-15 0)
(0.147782 -3.83093e-15 0)
(0.147571 -4.33845e-15 0)
(0.147355 -3.31314e-15 0)
(0.147133 -3.95509e-15 0)
(0.146906 -2.19343e-15 0)
(0.146674 -1.39149e-15 0)
(0.146438 -1.90883e-15 0)
(0.146197 -1.75172e-15 0)
(0.145951 -3.8244e-15 0)
(0.145702 -4.58919e-15 0)
(0.145448 -3.32827e-15 0)
(0.14519 -3.60746e-15 0)
(0.144929 -3.71991e-15 0)
(0.144664 -2.39057e-15 0)
(0.144395 -2.91224e-15 0)
(0.144123 -3.32444e-15 0)
(0.143848 -3.58585e-15 0)
(0.143569 -6.67613e-15 0)
(0.143287 -8.51888e-15 0)
(0.143003 -6.23361e-15 0)
(0.142715 -6.94764e-15 0)
(0.142425 -6.60282e-15 0)
(0.142131 -6.20868e-15 0)
(0.141836 -3.02411e-15 0)
(0.141537 -2.01198e-15 0)
(0.141236 -9.20574e-16 0)
(0.140933 -8.42148e-16 0)
(0.140628 -1.53248e-15 0)
(0.14032 -2.13145e-15 0)
(0.14001 -3.20069e-15 0)
(0.139698 -2.8612e-15 0)
(0.139384 -5.2015e-15 0)
(0.139068 -5.13686e-15 0)
(0.138749 -5.73673e-15 0)
(0.13843 -6.8695e-15 0)
(0.138108 -7.40263e-15 0)
(0.137784 -6.92566e-15 0)
(0.137459 -8.80091e-15 0)
(0.137132 -1.005e-14 0)
(0.136803 -9.58419e-15 0)
(0.136473 -9.63733e-15 0)
(0.136142 -9.88888e-15 0)
(0.135808 -9.08557e-15 0)
(0.135474 -8.83828e-15 0)
(0.135137 -8.34601e-15 0)
(0.1348 -1.01283e-14 0)
(0.134461 -9.87072e-15 0)
(0.13412 -9.21521e-15 0)
(0.133779 -8.33603e-15 0)
(0.133435 -8.06694e-15 0)
(0.133089 -8.10507e-15 0)
(0.132741 -7.96741e-15 0)
(0.132391 -7.61272e-15 0)
(0.132039 -6.98889e-15 0)
(0.131685 -5.04632e-15 0)
(0.13133 -4.10626e-15 0)
(0.130972 -4.08067e-15 0)
(0.130614 -3.19526e-15 0)
(0.130254 -4.80112e-15 0)
(0.129892 -5.225e-15 0)
(0.12953 -6.31799e-15 0)
(0.129167 -5.36351e-15 0)
(0.128802 -6.59455e-15 0)
(0.128437 -5.92962e-15 0)
(0.128071 -4.99043e-15 0)
(0.127703 -4.33904e-15 0)
(0.127335 -3.15936e-15 0)
(0.126966 -1.75887e-15 0)
(0.126596 -2.52832e-15 0)
(0.126226 -4.14237e-15 0)
(0.125854 -4.76684e-15 0)
(0.125482 -4.42936e-15 0)
(0.125108 -4.15873e-15 0)
(0.124734 -5.35892e-15 0)
(0.124359 -5.99499e-15 0)
(0.123983 -6.12456e-15 0)
(0.123606 -4.85285e-15 0)
(0.123228 -3.79776e-15 0)
(0.122849 -2.64982e-15 0)
(0.122469 -3.36469e-15 0)
(0.122089 -2.85961e-15 0)
(0.121707 -2.56283e-15 0)
(0.121325 -3.06546e-15 0)
(0.120941 -3.83688e-15 0)
(0.120557 -5.80064e-15 0)
(0.120171 -5.66365e-15 0)
(0.119785 -7.51502e-15 0)
(0.119397 -8.93411e-15 0)
(0.119008 -7.25711e-15 0)
(0.118619 -6.22034e-15 0)
(0.118228 -5.79534e-15 0)
(0.117836 -6.84035e-15 0)
(0.117443 -7.67424e-15 0)
(0.117049 -9.00055e-15 0)
(0.116654 -8.216e-15 0)
(0.116258 -8.93138e-15 0)
(0.11586 -9.60046e-15 0)
(0.115461 -7.62407e-15 0)
(0.115061 -7.20981e-15 0)
(0.11466 -6.95184e-15 0)
(0.114257 -6.71815e-15 0)
(0.113853 -6.52491e-15 0)
(0.113447 -6.95448e-15 0)
(0.113041 -7.26932e-15 0)
(0.112632 -7.03589e-15 0)
(0.112223 -5.6753e-15 0)
(0.111812 -5.97864e-15 0)
(0.111399 -6.75959e-15 0)
(0.110985 -7.7055e-15 0)
(0.110569 -8.0163e-15 0)
(0.110151 -7.7792e-15 0)
(0.109732 -8.22645e-15 0)
(0.109311 -7.02295e-15 0)
(0.108889 -7.65022e-15 0)
(0.108464 -7.80243e-15 0)
(0.108038 -8.19401e-15 0)
(0.10761 -9.54661e-15 0)
(0.10718 -9.86486e-15 0)
(0.106748 -1.05303e-14 0)
(0.106315 -9.27557e-15 0)
(0.105879 -1.06818e-14 0)
(0.105441 -1.04876e-14 0)
(0.105001 -1.21268e-14 0)
(0.104558 -1.15904e-14 0)
(0.104114 -1.12771e-14 0)
(0.103667 -1.01087e-14 0)
(0.103218 -9.22268e-15 0)
(0.102766 -9.76605e-15 0)
(0.102312 -9.10869e-15 0)
(0.101856 -8.557e-15 0)
(0.101396 -6.33262e-15 0)
(0.100935 -5.06734e-15 0)
(0.10047 -3.77744e-15 0)
(0.100003 -2.75757e-15 0)
(0.0995332 -2.44225e-15 0)
(0.0990604 -1.83134e-15 0)
(0.0985846 -1.5748e-15 0)
(0.0981058 -1.5606e-15 0)
(0.0976239 -2.60783e-15 0)
(0.0971389 -1.61414e-15 0)
(0.0966506 -2.50185e-15 0)
(0.096159 -2.25818e-15 0)
(0.0956641 -3.2587e-15 0)
(0.0951657 -4.56992e-15 0)
(0.0946637 -4.07667e-15 0)
(0.0941582 -4.33609e-15 0)
(0.093649 -3.80201e-15 0)
(0.0931359 -3.5464e-15 0)
(0.0926191 -3.68938e-15 0)
(0.0920982 -3.54832e-15 0)
(0.0915734 -3.2857e-15 0)
(0.0910444 -2.2369e-15 0)
(0.0905112 -2.50285e-15 0)
(0.0899737 -3.1133e-15 0)
(0.0894318 -3.93888e-15 0)
(0.0888853 -1.75909e-15 0)
(0.0883343 -2.252e-15 0)
(0.0877786 -4.09248e-15 0)
(0.0872181 -4.07656e-15 0)
(0.0866528 -3.95393e-15 0)
(0.0860824 -3.02978e-15 0)
(0.0855069 -3.69115e-15 0)
(0.0849263 -4.61114e-15 0)
(0.0843403 -4.30753e-15 0)
(0.083749 -3.65076e-15 0)
(0.0831521 -4.24911e-15 0)
(0.0825497 -3.95877e-15 0)
(0.0819415 -2.11367e-15 0)
(0.0813275 -2.00303e-15 0)
(0.0807076 -2.15341e-15 0)
(0.0800817 -4.15693e-15 0)
(0.0794497 -3.17942e-15 0)
(0.0788114 -3.2409e-15 0)
(0.0781668 -3.20567e-15 0)
(0.0775158 -4.89812e-15 0)
(0.0768583 -3.23951e-15 0)
(0.0761942 -3.92351e-15 0)
(0.0755234 -5.46999e-15 0)
(0.0748458 -6.62191e-15 0)
(0.0741613 -7.45882e-15 0)
(0.0734699 -6.58652e-15 0)
(0.0727716 -5.79978e-15 0)
(0.0720661 -5.9105e-15 0)
(0.0713535 -7.68486e-15 0)
(0.0706337 -7.43457e-15 0)
(0.0699067 -8.19353e-15 0)
(0.0691725 -9.36991e-15 0)
(0.0684309 -1.13575e-14 0)
(0.0676821 -1.00158e-14 0)
(0.0669259 -1.10599e-14 0)
(0.0661625 -9.90938e-15 0)
(0.0653917 -8.57608e-15 0)
(0.0646137 -6.09023e-15 0)
(0.0638285 -4.4484e-15 0)
(0.0630361 -4.85247e-15 0)
(0.0622366 -5.58274e-15 0)
(0.0614302 -7.69634e-15 0)
(0.0606167 -8.2222e-15 0)
(0.0597962 -1.1114e-14 0)
(0.0589679 -7.87942e-15 0)
(0.0581312 -4.8786e-15 0)
(0.0572861 -4.03488e-15 0)
(0.0564327 -4.84099e-15 0)
(0.0555711 -6.10476e-15 0)
(0.0547016 -5.69245e-15 0)
(0.0538242 -3.46311e-15 0)
(0.0529392 -3.0717e-15 0)
(0.052047 -3.29149e-15 0)
(0.0511477 -3.198e-15 0)
(0.0502418 -3.38905e-15 0)
(0.0493297 -3.0139e-15 0)
(0.0484119 -4.72462e-15 0)
(0.0474888 -7.49509e-15 0)
(0.0465611 -6.00205e-15 0)
(0.0456294 -7.55643e-15 0)
(0.0446942 -1.0529e-14 0)
(0.0437564 -8.69686e-15 0)
(0.0428166 -9.28573e-15 0)
(0.0418756 -1.0407e-14 0)
(0.0409342 -1.15233e-14 0)
(0.0399932 -1.22864e-14 0)
(0.0390534 -1.07405e-14 0)
(0.0381157 -9.75756e-15 0)
(0.0371808 -5.90754e-15 0)
(0.0362495 -5.07543e-15 0)
(0.0353226 -3.49569e-15 0)
(0.0344009 -2.87074e-15 0)
(0.0334851 -3.28323e-15 0)
(0.0325757 -8.69876e-16 0)
(0.0316735 1.18894e-15 0)
(0.0307791 -7.1363e-16 0)
(0.0298928 3.5044e-15 0)
(0.0290153 1.86865e-15 0)
(0.0281469 -7.93664e-17 0)
(0.027288 7.53658e-16 0)
(0.0264388 -2.20726e-15 0)
(0.0255998 -1.96369e-15 0)
(0.024771 -2.1125e-15 0)
(0.0239527 -3.33754e-15 0)
(0.0231449 -5.79204e-15 0)
(0.0223478 -4.11266e-15 0)
(0.0215615 -3.52332e-16 0)
(0.020786 2.4824e-15 0)
(0.0200213 2.31016e-15 0)
(0.0192673 -4.54726e-16 0)
(0.0185241 -2.48666e-15 0)
(0.0177916 -2.137e-15 0)
(0.0170696 -3.9928e-15 0)
(0.0163582 -4.29242e-15 0)
(0.0156573 -4.41621e-15 0)
(0.0149667 -3.61508e-15 0)
(0.0142863 -3.05217e-15 0)
(0.013616 -3.50029e-15 0)
(0.0129557 -4.19827e-15 0)
(0.0123053 -5.30644e-15 0)
(0.0116646 -4.25971e-15 0)
(0.0110335 -3.01138e-15 0)
(0.0104119 -3.29312e-15 0)
(0.00979959 -3.46387e-15 0)
(0.00919653 -1.6237e-15 0)
(0.00860256 -2.38379e-15 0)
(0.00801753 -3.55067e-15 0)
(0.00744132 -3.75386e-15 0)
(0.00687381 -1.44881e-15 0)
(0.00631486 -7.4008e-16 0)
(0.00576435 5.44155e-16 0)
(0.00522215 2.27212e-15 0)
(0.00468814 1.55825e-15 0)
(0.0041622 1.4697e-15 0)
(0.00364421 1.04756e-15 0)
(0.00313405 1.15537e-15 0)
(0.00263159 1.81069e-15 0)
(0.00213674 1.22753e-15 0)
(0.00164937 7.87552e-16 0)
(0.00116936 -1.26347e-15 0)
(0.000696625 6.6607e-17 0)
(0.000231037 2.0772e-16 0)
)
;

boundaryField
{
    bottomWall
    {
        type            noSlip;
    }
    topWall
    {
        type            noSlip;
    }
    sides1_half0
    {
        type            empty;
    }
    sides1_half1
    {
        type            empty;
    }
    sides2_half0
    {
        type            empty;
    }
    sides2_half1
    {
        type            empty;
    }
    inout1_half0
    {
        type            cyclic;
    }
    inout1_half1
    {
        type            cyclic;
    }
    inout2_half0
    {
        type            cyclic;
    }
    inout2_half1
    {
        type            cyclic;
    }
}


// ************************************************************************* //
