/*--------------------------------*- C++ -*----------------------------------*\
  =========                 |
  \\      /  F ield         | OpenFOAM: The Open Source CFD Toolbox
   \\    /   O peration     | Website:  https://openfoam.org
    \\  /    A nd           | Version:  7
     \\/     M anipulation  |
\*---------------------------------------------------------------------------*/
FoamFile
{
    version     2.0;
    format      ascii;
    class       volScalarField;
    location    "2500";
    object      omega;
}
// * * * * * * * * * * * * * * * * * * * * * * * * * * * * * * * * * * * * * //

dimensions      [0 0 -1 0 0 0 0];

internalField   nonuniform List<scalar> 
4026
(
0.609023
0.609024
0.609021
0.609019
0.609016
0.609014
0.609012
0.60901
0.609008
0.609006
0.609005
0.609003
0.609002
0.609001
0.609001
0.609
0.609
0.608999
0.608999
0.608999
0.608999
0.608999
0.608999
0.608999
0.609
0.609
0.609001
0.609001
0.609002
0.609002
0.609003
0.609003
0.609004
0.609004
0.609005
0.609006
0.609006
0.609007
0.609007
0.609008
0.609008
0.609009
0.60901
0.60901
0.609011
0.609043
0.609038
0.609033
0.609029
0.609026
0.609023
0.60902
0.609018
0.609016
0.609015
0.609013
0.609012
0.609011
0.60901
0.60901
0.609007
0.576639
0.576638
0.576636
0.576634
0.576632
0.57663
0.576628
0.576627
0.576625
0.576624
0.576623
0.576622
0.576621
0.576621
0.57662
0.57662
0.57662
0.576619
0.576619
0.57662
0.57662
0.57662
0.57662
0.576621
0.576621
0.576622
0.576622
0.576623
0.576624
0.576625
0.576625
0.576626
0.576627
0.576628
0.576628
0.576629
0.57663
0.576631
0.576631
0.576632
0.576633
0.576634
0.576634
0.576635
0.576637
0.576668
0.576662
0.576657
0.576653
0.57665
0.576647
0.576645
0.576643
0.576641
0.57664
0.576639
0.576637
0.576636
0.576636
0.576635
0.576634
0.546205
0.546202
0.5462
0.546198
0.546196
0.546195
0.546194
0.546193
0.546192
0.546191
0.54619
0.546189
0.546189
0.546189
0.546188
0.546188
0.546188
0.546188
0.546189
0.546189
0.546189
0.54619
0.54619
0.546191
0.546192
0.546192
0.546193
0.546194
0.546195
0.546196
0.546197
0.546198
0.546199
0.5462
0.5462
0.546201
0.546202
0.546203
0.546204
0.546205
0.546206
0.546207
0.546208
0.546209
0.546212
0.546238
0.546232
0.546228
0.546225
0.546222
0.546219
0.546217
0.546216
0.546214
0.546213
0.546212
0.546211
0.54621
0.54621
0.546209
0.54621
0.517545
0.51754
0.517538
0.517536
0.517535
0.517534
0.517533
0.517533
0.517532
0.517532
0.517531
0.517531
0.517531
0.517531
0.517531
0.517531
0.517531
0.517532
0.517532
0.517533
0.517533
0.517534
0.517535
0.517535
0.517536
0.517537
0.517538
0.517539
0.51754
0.517541
0.517542
0.517544
0.517545
0.517546
0.517547
0.517548
0.517549
0.51755
0.517552
0.517553
0.517554
0.517555
0.517556
0.517557
0.517561
0.517581
0.517575
0.517572
0.517569
0.517567
0.517565
0.517564
0.517562
0.517561
0.51756
0.51756
0.517559
0.517558
0.517558
0.517557
0.51756
0.490506
0.490499
0.490497
0.490496
0.490496
0.490495
0.490495
0.490494
0.490494
0.490494
0.490494
0.490494
0.490494
0.490494
0.490495
0.490495
0.490496
0.490496
0.490497
0.490498
0.490498
0.490499
0.4905
0.490501
0.490502
0.490503
0.490505
0.490506
0.490507
0.490508
0.49051
0.490511
0.490512
0.490514
0.490515
0.490516
0.490518
0.490519
0.49052
0.490521
0.490523
0.490524
0.490526
0.490526
0.490532
0.490546
0.490539
0.490536
0.490534
0.490533
0.490532
0.490531
0.49053
0.490529
0.490529
0.490528
0.490528
0.490528
0.490528
0.490527
0.490532
0.464955
0.464947
0.464944
0.464944
0.464943
0.464943
0.464943
0.464943
0.464943
0.464944
0.464944
0.464944
0.464945
0.464945
0.464946
0.464947
0.464947
0.464948
0.464949
0.46495
0.464951
0.464952
0.464953
0.464955
0.464956
0.464957
0.464958
0.46496
0.464961
0.464963
0.464964
0.464966
0.464967
0.464969
0.46497
0.464972
0.464973
0.464975
0.464976
0.464978
0.464979
0.464981
0.464982
0.464983
0.464991
0.464999
0.464991
0.464988
0.464987
0.464986
0.464985
0.464985
0.464984
0.464984
0.464984
0.464984
0.464984
0.464984
0.464984
0.464983
0.46499
0.440774
0.440764
0.440761
0.440761
0.440761
0.440761
0.440762
0.440762
0.440762
0.440763
0.440764
0.440764
0.440765
0.440766
0.440767
0.440768
0.440769
0.44077
0.440771
0.440772
0.440773
0.440775
0.440776
0.440777
0.440779
0.44078
0.440782
0.440784
0.440785
0.440787
0.440788
0.44079
0.440792
0.440793
0.440795
0.440797
0.440799
0.4408
0.440802
0.440804
0.440805
0.440807
0.440809
0.440809
0.440819
0.440822
0.440812
0.440809
0.440809
0.440808
0.440808
0.440808
0.440808
0.440808
0.440809
0.440809
0.440809
0.44081
0.44081
0.440809
0.440818
0.417859
0.417847
0.417844
0.417844
0.417845
0.417845
0.417846
0.417847
0.417848
0.417849
0.41785
0.417851
0.417852
0.417853
0.417854
0.417855
0.417856
0.417858
0.417859
0.41786
0.417862
0.417863
0.417865
0.417867
0.417868
0.41787
0.417872
0.417873
0.417875
0.417877
0.417879
0.417881
0.417883
0.417884
0.417886
0.417888
0.41789
0.417892
0.417894
0.417896
0.417898
0.417899
0.417902
0.417902
0.417913
0.417911
0.417899
0.417897
0.417897
0.417897
0.417897
0.417898
0.417898
0.417899
0.417899
0.4179
0.417901
0.417901
0.417902
0.417901
0.417911
0.396119
0.396105
0.396103
0.396103
0.396104
0.396105
0.396106
0.396107
0.396108
0.396109
0.39611
0.396112
0.396113
0.396114
0.396116
0.396117
0.396119
0.39612
0.396122
0.396123
0.396125
0.396127
0.396129
0.39613
0.396132
0.396134
0.396136
0.396138
0.39614
0.396142
0.396144
0.396146
0.396148
0.39615
0.396152
0.396154
0.396156
0.396158
0.39616
0.396162
0.396164
0.396166
0.396169
0.396169
0.396181
0.396176
0.396162
0.39616
0.39616
0.39616
0.396161
0.396162
0.396163
0.396164
0.396165
0.396166
0.396167
0.396168
0.396169
0.396168
0.39618
0.375473
0.375458
0.375455
0.375456
0.375457
0.375458
0.375459
0.375461
0.375462
0.375464
0.375465
0.375467
0.375468
0.37547
0.375472
0.375473
0.375475
0.375477
0.375479
0.375481
0.375482
0.375484
0.375486
0.375488
0.37549
0.375492
0.375495
0.375497
0.375499
0.375501
0.375503
0.375505
0.375508
0.37551
0.375512
0.375514
0.375516
0.375519
0.375521
0.375523
0.375525
0.375527
0.37553
0.37553
0.375544
0.375534
0.375519
0.375517
0.375517
0.375518
0.375519
0.37552
0.375522
0.375523
0.375524
0.375525
0.375527
0.375528
0.37553
0.375529
0.375542
0.35585
0.355833
0.355831
0.355831
0.355833
0.355834
0.355836
0.355838
0.355839
0.355841
0.355843
0.355845
0.355847
0.355849
0.35585
0.355852
0.355854
0.355856
0.355858
0.35586
0.355862
0.355865
0.355867
0.355869
0.355871
0.355873
0.355876
0.355878
0.35588
0.355883
0.355885
0.355887
0.35589
0.355892
0.355894
0.355897
0.355899
0.355902
0.355904
0.355906
0.355909
0.355911
0.355914
0.355914
0.355929
0.355916
0.355899
0.355897
0.355897
0.355898
0.3559
0.355901
0.355903
0.355905
0.355906
0.355908
0.355909
0.355911
0.355913
0.355912
0.355926
0.337186
0.337168
0.337166
0.337167
0.337168
0.33717
0.337172
0.337174
0.337176
0.337178
0.33718
0.337182
0.337184
0.337186
0.337188
0.337191
0.337193
0.337195
0.337197
0.337199
0.337202
0.337204
0.337206
0.337209
0.337211
0.337213
0.337216
0.337218
0.337221
0.337223
0.337226
0.337228
0.337231
0.337233
0.337236
0.337238
0.337241
0.337244
0.337246
0.337249
0.337251
0.337254
0.337257
0.337257
0.337273
0.337256
0.337239
0.337236
0.337237
0.337238
0.33724
0.337242
0.337244
0.337246
0.337247
0.337249
0.337251
0.337253
0.337255
0.337254
0.33727
0.319426
0.319407
0.319404
0.319405
0.319407
0.319409
0.319411
0.319413
0.319416
0.319418
0.31942
0.319422
0.319425
0.319427
0.319429
0.319432
0.319434
0.319436
0.319439
0.319441
0.319444
0.319446
0.319449
0.319451
0.319454
0.319456
0.319459
0.319461
0.319464
0.319467
0.319469
0.319472
0.319475
0.319477
0.31948
0.319483
0.319486
0.319488
0.319491
0.319494
0.319496
0.319499
0.319502
0.319502
0.319519
0.3195
0.319481
0.319478
0.319479
0.319481
0.319483
0.319485
0.319487
0.319489
0.319491
0.319493
0.319495
0.319497
0.3195
0.319499
0.319516
0.302518
0.302497
0.302495
0.302496
0.302498
0.3025
0.302503
0.302505
0.302508
0.30251
0.302513
0.302515
0.302518
0.30252
0.302523
0.302525
0.302528
0.30253
0.302533
0.302536
0.302538
0.302541
0.302543
0.302546
0.302549
0.302552
0.302554
0.302557
0.30256
0.302563
0.302565
0.302568
0.302571
0.302574
0.302577
0.30258
0.302582
0.302585
0.302588
0.302591
0.302594
0.302597
0.3026
0.3026
0.302618
0.302596
0.302575
0.302572
0.302574
0.302576
0.302578
0.30258
0.302583
0.302585
0.302588
0.30259
0.302592
0.302594
0.302597
0.302597
0.302614
0.286418
0.286396
0.286393
0.286395
0.286397
0.2864
0.286402
0.286405
0.286408
0.28641
0.286413
0.286416
0.286418
0.286421
0.286424
0.286427
0.286429
0.286432
0.286435
0.286437
0.28644
0.286443
0.286446
0.286449
0.286451
0.286454
0.286457
0.28646
0.286463
0.286466
0.286469
0.286472
0.286475
0.286478
0.286481
0.286484
0.286487
0.28649
0.286493
0.286496
0.286499
0.286501
0.286505
0.286505
0.286524
0.286499
0.286477
0.286474
0.286476
0.286478
0.286481
0.286483
0.286486
0.286489
0.286491
0.286494
0.286496
0.286499
0.286502
0.286501
0.28652
0.271085
0.271062
0.271059
0.271061
0.271063
0.271066
0.271069
0.271072
0.271075
0.271078
0.271081
0.271083
0.271086
0.271089
0.271092
0.271095
0.271098
0.271101
0.271104
0.271106
0.271109
0.271112
0.271115
0.271118
0.271121
0.271124
0.271127
0.27113
0.271133
0.271136
0.271139
0.271142
0.271145
0.271149
0.271152
0.271155
0.271158
0.271161
0.271164
0.271167
0.27117
0.271173
0.271177
0.271177
0.271196
0.271169
0.271146
0.271143
0.271145
0.271148
0.271151
0.271153
0.271156
0.271159
0.271162
0.271165
0.271167
0.27117
0.271173
0.271173
0.271192
0.256482
0.256459
0.256456
0.256458
0.256461
0.256464
0.256467
0.25647
0.256473
0.256476
0.256479
0.256482
0.256485
0.256488
0.256491
0.256494
0.256497
0.2565
0.256503
0.256506
0.256509
0.256512
0.256515
0.256518
0.256521
0.256525
0.256528
0.256531
0.256534
0.256537
0.25654
0.256543
0.256547
0.25655
0.256553
0.256556
0.256559
0.256563
0.256566
0.256569
0.256572
0.256575
0.256579
0.256579
0.256599
0.256569
0.256546
0.256543
0.256545
0.256548
0.256551
0.256554
0.256557
0.25656
0.256563
0.256566
0.256569
0.256572
0.256575
0.256575
0.256594
0.242578
0.242554
0.242551
0.242553
0.242556
0.242559
0.242562
0.242566
0.242569
0.242572
0.242575
0.242578
0.242582
0.242585
0.242588
0.242591
0.242594
0.242597
0.242601
0.242604
0.242607
0.24261
0.242613
0.242616
0.242619
0.242623
0.242626
0.242629
0.242632
0.242636
0.242639
0.242642
0.242645
0.242649
0.242652
0.242655
0.242659
0.242662
0.242665
0.242669
0.242672
0.242675
0.242679
0.242679
0.2427
0.242667
0.242643
0.24264
0.242642
0.242645
0.242648
0.242652
0.242655
0.242658
0.242661
0.242665
0.242668
0.242671
0.242674
0.242674
0.242694
0.229342
0.229317
0.229314
0.229316
0.229319
0.229322
0.229326
0.229329
0.229333
0.229336
0.229339
0.229343
0.229346
0.229349
0.229353
0.229356
0.229359
0.229362
0.229366
0.229369
0.229372
0.229375
0.229379
0.229382
0.229385
0.229388
0.229392
0.229395
0.229398
0.229402
0.229405
0.229408
0.229412
0.229415
0.229419
0.229422
0.229425
0.229429
0.229432
0.229435
0.229439
0.229442
0.229446
0.229446
0.229467
0.229432
0.229408
0.229405
0.229407
0.22941
0.229414
0.229417
0.229421
0.229424
0.229427
0.229431
0.229434
0.229437
0.229441
0.229441
0.229462
0.216745
0.21672
0.216717
0.216719
0.216722
0.216726
0.21673
0.216733
0.216737
0.21674
0.216744
0.216747
0.216751
0.216754
0.216757
0.216761
0.216764
0.216768
0.216771
0.216774
0.216778
0.216781
0.216784
0.216788
0.216791
0.216794
0.216798
0.216801
0.216805
0.216808
0.216811
0.216815
0.216818
0.216822
0.216825
0.216829
0.216832
0.216835
0.216839
0.216842
0.216846
0.216849
0.216853
0.216853
0.216874
0.216837
0.216812
0.21681
0.216812
0.216815
0.216819
0.216823
0.216826
0.21683
0.216833
0.216837
0.21684
0.216844
0.216848
0.216848
0.216868
0.204764
0.204738
0.204735
0.204738
0.204741
0.204745
0.204748
0.204752
0.204756
0.204759
0.204763
0.204766
0.20477
0.204774
0.204777
0.204781
0.204784
0.204788
0.204791
0.204794
0.204798
0.204801
0.204805
0.204808
0.204812
0.204815
0.204818
0.204822
0.204825
0.204829
0.204832
0.204836
0.204839
0.204843
0.204846
0.20485
0.204853
0.204857
0.20486
0.204864
0.204867
0.204871
0.204875
0.204875
0.204896
0.204857
0.204832
0.204829
0.204831
0.204835
0.204839
0.204842
0.204846
0.20485
0.204854
0.204857
0.204861
0.204864
0.204869
0.204869
0.20489
0.193374
0.193348
0.193345
0.193347
0.193351
0.193355
0.193358
0.193362
0.193366
0.19337
0.193373
0.193377
0.193381
0.193384
0.193388
0.193392
0.193395
0.193399
0.193402
0.193406
0.193409
0.193413
0.193416
0.19342
0.193423
0.193427
0.19343
0.193434
0.193437
0.193441
0.193444
0.193448
0.193451
0.193455
0.193458
0.193462
0.193465
0.193469
0.193473
0.193476
0.19348
0.193483
0.193487
0.193487
0.193509
0.193468
0.193442
0.193439
0.193442
0.193445
0.193449
0.193453
0.193457
0.193461
0.193465
0.193469
0.193473
0.193476
0.19348
0.193481
0.193502
0.182553
0.182527
0.182524
0.182526
0.18253
0.182534
0.182538
0.182542
0.182546
0.182549
0.182553
0.182557
0.182561
0.182564
0.182568
0.182572
0.182575
0.182579
0.182583
0.182586
0.18259
0.182593
0.182597
0.1826
0.182604
0.182607
0.182611
0.182614
0.182618
0.182622
0.182625
0.182629
0.182632
0.182636
0.182639
0.182643
0.182646
0.18265
0.182654
0.182657
0.182661
0.182664
0.182668
0.182669
0.18269
0.182647
0.182621
0.182618
0.182621
0.182625
0.182629
0.182633
0.182637
0.182641
0.182645
0.182649
0.182653
0.182656
0.182661
0.182661
0.182682
0.17228
0.172254
0.172251
0.172254
0.172257
0.172261
0.172265
0.172269
0.172273
0.172277
0.172281
0.172285
0.172289
0.172293
0.172296
0.1723
0.172304
0.172308
0.172311
0.172315
0.172318
0.172322
0.172326
0.172329
0.172333
0.172336
0.17234
0.172343
0.172347
0.172351
0.172354
0.172358
0.172361
0.172365
0.172368
0.172372
0.172376
0.172379
0.172383
0.172386
0.17239
0.172393
0.172398
0.172398
0.172419
0.172375
0.172348
0.172346
0.172348
0.172352
0.172357
0.172361
0.172365
0.172369
0.172373
0.172377
0.172381
0.172385
0.172389
0.17239
0.172411
0.162536
0.162509
0.162507
0.162509
0.162513
0.162517
0.162521
0.162526
0.16253
0.162534
0.162538
0.162542
0.162545
0.162549
0.162553
0.162557
0.162561
0.162564
0.162568
0.162572
0.162575
0.162579
0.162583
0.162586
0.16259
0.162593
0.162597
0.162601
0.162604
0.162608
0.162611
0.162615
0.162618
0.162622
0.162626
0.162629
0.162633
0.162636
0.16264
0.162643
0.162647
0.162651
0.162655
0.162655
0.162676
0.16263
0.162604
0.162601
0.162604
0.162608
0.162612
0.162616
0.162621
0.162625
0.162629
0.162633
0.162637
0.162641
0.162645
0.162646
0.162667
0.153301
0.153274
0.153272
0.153275
0.153279
0.153283
0.153287
0.153291
0.153295
0.153299
0.153303
0.153307
0.153311
0.153315
0.153319
0.153323
0.153327
0.15333
0.153334
0.153338
0.153342
0.153345
0.153349
0.153352
0.153356
0.15336
0.153363
0.153367
0.15337
0.153374
0.153377
0.153381
0.153385
0.153388
0.153392
0.153395
0.153399
0.153402
0.153406
0.15341
0.153413
0.153417
0.153421
0.153421
0.153441
0.153395
0.153369
0.153366
0.153369
0.153373
0.153377
0.153381
0.153386
0.15339
0.153394
0.153398
0.153402
0.153406
0.153411
0.153412
0.153432
0.144557
0.14453
0.144528
0.144531
0.144535
0.144539
0.144543
0.144547
0.144552
0.144556
0.14456
0.144564
0.144568
0.144572
0.144576
0.14458
0.144583
0.144587
0.144591
0.144595
0.144598
0.144602
0.144606
0.144609
0.144613
0.144616
0.14462
0.144624
0.144627
0.144631
0.144634
0.144638
0.144641
0.144645
0.144648
0.144652
0.144656
0.144659
0.144663
0.144666
0.14467
0.144673
0.144677
0.144678
0.144697
0.14465
0.144624
0.144621
0.144624
0.144628
0.144632
0.144637
0.144641
0.144645
0.144649
0.144654
0.144658
0.144662
0.144666
0.144667
0.144687
0.136285
0.136259
0.136257
0.13626
0.136264
0.136268
0.136272
0.136277
0.136281
0.136285
0.136289
0.136293
0.136297
0.136301
0.136305
0.136309
0.136313
0.136317
0.13632
0.136324
0.136328
0.136332
0.136335
0.136339
0.136342
0.136346
0.13635
0.136353
0.136357
0.13636
0.136364
0.136367
0.136371
0.136374
0.136378
0.136381
0.136385
0.136388
0.136392
0.136395
0.136399
0.136402
0.136406
0.136407
0.136426
0.136378
0.136352
0.136349
0.136352
0.136356
0.13636
0.136365
0.136369
0.136373
0.136377
0.136382
0.136386
0.13639
0.136394
0.136396
0.136415
0.128469
0.128444
0.128441
0.128444
0.128448
0.128453
0.128457
0.128461
0.128465
0.12847
0.128474
0.128478
0.128482
0.128486
0.12849
0.128494
0.128498
0.128501
0.128505
0.128509
0.128513
0.128516
0.12852
0.128524
0.128527
0.128531
0.128534
0.128538
0.128541
0.128545
0.128548
0.128552
0.128555
0.128559
0.128562
0.128566
0.128569
0.128573
0.128576
0.128579
0.128583
0.128586
0.12859
0.128591
0.128609
0.12856
0.128535
0.128532
0.128535
0.128539
0.128543
0.128548
0.128552
0.128556
0.128561
0.128565
0.128569
0.128573
0.128577
0.128579
0.128597
0.121091
0.121066
0.121064
0.121067
0.121071
0.121075
0.121079
0.121084
0.121088
0.121092
0.121096
0.1211
0.121104
0.121109
0.121112
0.121116
0.12112
0.121124
0.121128
0.121132
0.121135
0.121139
0.121143
0.121146
0.12115
0.121153
0.121157
0.12116
0.121164
0.121167
0.121171
0.121174
0.121177
0.121181
0.121184
0.121188
0.121191
0.121195
0.121198
0.121201
0.121205
0.121208
0.121212
0.121213
0.12123
0.121181
0.121156
0.121153
0.121156
0.12116
0.121164
0.121169
0.121173
0.121177
0.121181
0.121186
0.12119
0.121194
0.121198
0.1212
0.121218
0.114134
0.114109
0.114107
0.11411
0.114114
0.114119
0.114123
0.114127
0.114132
0.114136
0.11414
0.114144
0.114148
0.114152
0.114156
0.11416
0.114164
0.114168
0.114171
0.114175
0.114179
0.114182
0.114186
0.11419
0.114193
0.114197
0.1142
0.114203
0.114207
0.11421
0.114214
0.114217
0.114221
0.114224
0.114227
0.114231
0.114234
0.114237
0.114241
0.114244
0.114247
0.11425
0.114254
0.114255
0.114272
0.114222
0.114198
0.114195
0.114198
0.114202
0.114206
0.11421
0.114215
0.114219
0.114223
0.114227
0.114231
0.114235
0.11424
0.114241
0.114259
0.107581
0.107557
0.107555
0.107558
0.107562
0.107567
0.107571
0.107575
0.107579
0.107584
0.107588
0.107592
0.107596
0.1076
0.107604
0.107608
0.107611
0.107615
0.107619
0.107623
0.107626
0.10763
0.107633
0.107637
0.10764
0.107644
0.107647
0.107651
0.107654
0.107658
0.107661
0.107664
0.107668
0.107671
0.107674
0.107677
0.107681
0.107684
0.107687
0.10769
0.107694
0.107697
0.1077
0.107701
0.107717
0.107668
0.107644
0.107641
0.107644
0.107648
0.107652
0.107656
0.10766
0.107665
0.107669
0.107673
0.107677
0.107681
0.107685
0.107687
0.107703
0.101416
0.101393
0.101391
0.101394
0.101398
0.101402
0.101406
0.101411
0.101415
0.101419
0.101423
0.101427
0.101431
0.101435
0.101439
0.101443
0.101447
0.10145
0.101454
0.101458
0.101461
0.101465
0.101468
0.101472
0.101475
0.101479
0.101482
0.101485
0.101489
0.101492
0.101495
0.101499
0.101502
0.101505
0.101508
0.101511
0.101515
0.101518
0.101521
0.101524
0.101527
0.10153
0.101534
0.101535
0.10155
0.101501
0.101477
0.101475
0.101478
0.101481
0.101485
0.10149
0.101494
0.101498
0.101502
0.101506
0.10151
0.101514
0.101518
0.10152
0.101535
0.0956219
0.0955993
0.0955976
0.0956005
0.0956045
0.0956087
0.0956129
0.0956171
0.0956213
0.0956254
0.0956294
0.0956334
0.0956374
0.0956413
0.0956451
0.0956489
0.0956527
0.0956564
0.0956601
0.0956637
0.0956673
0.0956708
0.0956742
0.0956777
0.0956811
0.0956844
0.0956877
0.095691
0.0956943
0.0956975
0.0957007
0.0957039
0.0957071
0.0957102
0.0957134
0.0957165
0.0957196
0.0957227
0.0957257
0.0957288
0.0957318
0.0957348
0.0957381
0.0957393
0.0957536
0.0957044
0.0956814
0.0956794
0.0956821
0.0956858
0.0956897
0.0956937
0.0956977
0.0957017
0.0957056
0.0957095
0.0957134
0.0957172
0.0957213
0.0957233
0.0957382
0.0901827
0.0901607
0.0901591
0.0901621
0.090166
0.0901702
0.0901743
0.0901785
0.0901825
0.0901866
0.0901906
0.0901945
0.0901984
0.0902023
0.0902061
0.0902098
0.0902135
0.0902172
0.0902208
0.0902244
0.0902279
0.0902313
0.0902347
0.0902381
0.0902414
0.0902447
0.090248
0.0902512
0.0902544
0.0902576
0.0902607
0.0902638
0.0902669
0.09027
0.090273
0.0902761
0.0902791
0.0902821
0.090285
0.090288
0.090291
0.0902939
0.090297
0.0902982
0.0903116
0.0902629
0.0902406
0.0902386
0.0902412
0.0902449
0.0902487
0.0902526
0.0902565
0.0902604
0.0902642
0.0902681
0.0902719
0.0902756
0.0902796
0.0902816
0.0902957
0.0850821
0.085061
0.0850595
0.0850624
0.0850663
0.0850704
0.0850745
0.0850785
0.0850825
0.0850865
0.0850904
0.0850943
0.0850981
0.0851019
0.0851057
0.0851093
0.085113
0.0851166
0.0851201
0.0851236
0.0851271
0.0851305
0.0851338
0.0851371
0.0851404
0.0851436
0.0851468
0.08515
0.0851531
0.0851562
0.0851592
0.0851623
0.0851653
0.0851683
0.0851712
0.0851742
0.0851771
0.08518
0.0851829
0.0851857
0.0851886
0.0851914
0.0851944
0.0851957
0.0852082
0.08516
0.0851384
0.0851366
0.0851391
0.0851426
0.0851464
0.0851502
0.0851539
0.0851577
0.0851614
0.0851652
0.0851689
0.0851725
0.0851764
0.0851784
0.0851917
0.0803045
0.0802842
0.0802828
0.0802857
0.0802895
0.0802935
0.0802975
0.0803014
0.0803054
0.0803092
0.0803131
0.0803169
0.0803207
0.0803244
0.080328
0.0803317
0.0803352
0.0803388
0.0803422
0.0803457
0.0803491
0.0803524
0.0803557
0.0803589
0.0803621
0.0803652
0.0803684
0.0803714
0.0803745
0.0803775
0.0803805
0.0803834
0.0803863
0.0803892
0.0803921
0.0803949
0.0803978
0.0804006
0.0804034
0.0804061
0.0804089
0.0804116
0.0804145
0.0804158
0.0804274
0.0803799
0.0803591
0.0803573
0.0803598
0.0803632
0.0803668
0.0803705
0.0803741
0.0803778
0.0803814
0.080385
0.0803886
0.0803921
0.0803959
0.080398
0.0804104
0.0758342
0.0758146
0.0758134
0.0758162
0.0758199
0.0758238
0.0758277
0.0758316
0.0758354
0.0758392
0.075843
0.0758467
0.0758504
0.075854
0.0758576
0.0758611
0.0758646
0.0758681
0.0758715
0.0758748
0.0758782
0.0758814
0.0758846
0.0758878
0.0758909
0.075894
0.075897
0.0759
0.075903
0.0759059
0.0759088
0.0759116
0.0759145
0.0759173
0.07592
0.0759228
0.0759255
0.0759282
0.0759309
0.0759336
0.0759362
0.0759388
0.0759416
0.0759429
0.0759537
0.075907
0.075887
0.0758853
0.0758877
0.075891
0.0758945
0.075898
0.0759015
0.0759051
0.0759086
0.0759121
0.0759155
0.0759189
0.0759226
0.0759247
0.0759362
0.0716559
0.0716371
0.071636
0.0716388
0.0716424
0.0716462
0.07165
0.0716537
0.0716575
0.0716612
0.0716648
0.0716684
0.071672
0.0716756
0.0716791
0.0716825
0.0716859
0.0716893
0.0716926
0.0716959
0.0716991
0.0717023
0.0717054
0.0717085
0.0717115
0.0717145
0.0717175
0.0717204
0.0717232
0.0717261
0.0717289
0.0717317
0.0717344
0.0717371
0.0717398
0.0717425
0.0717451
0.0717477
0.0717503
0.0717528
0.0717554
0.0717579
0.0717605
0.0717619
0.0717719
0.071726
0.0717068
0.0717052
0.0717075
0.0717107
0.071714
0.0717174
0.0717208
0.0717242
0.0717276
0.071731
0.0717343
0.0717376
0.0717411
0.0717432
0.071754
0.0677545
0.0677366
0.0677356
0.0677383
0.0677418
0.0677455
0.0677492
0.0677528
0.0677565
0.06776
0.0677636
0.0677671
0.0677706
0.067774
0.0677774
0.0677808
0.0677841
0.0677874
0.0677906
0.0677938
0.0677969
0.0678
0.0678031
0.0678061
0.067809
0.0678119
0.0678148
0.0678176
0.0678204
0.0678231
0.0678258
0.0678285
0.0678312
0.0678338
0.0678364
0.067839
0.0678415
0.067844
0.0678465
0.0678489
0.0678514
0.0678538
0.0678563
0.0678576
0.0678668
0.067822
0.0678036
0.067802
0.0678043
0.0678073
0.0678105
0.0678138
0.0678171
0.0678204
0.0678236
0.0678268
0.0678301
0.0678332
0.0678366
0.0678387
0.0678486
0.0641156
0.0640986
0.0640976
0.0641003
0.0641037
0.0641072
0.0641108
0.0641143
0.0641178
0.0641213
0.0641247
0.0641282
0.0641315
0.0641349
0.0641381
0.0641414
0.0641446
0.0641478
0.0641509
0.064154
0.0641571
0.0641601
0.064163
0.0641659
0.0641688
0.0641716
0.0641744
0.0641771
0.0641798
0.0641825
0.0641851
0.0641877
0.0641902
0.0641927
0.0641952
0.0641977
0.0642001
0.0642026
0.0642049
0.0642073
0.0642096
0.0642119
0.0642143
0.0642157
0.0642241
0.0641803
0.0641627
0.0641613
0.0641634
0.0641663
0.0641694
0.0641726
0.0641757
0.0641788
0.064182
0.0641851
0.0641881
0.0641912
0.0641944
0.0641965
0.0642056
0.060725
0.0607088
0.0607079
0.0607105
0.0607137
0.0607172
0.0607206
0.060724
0.0607274
0.0607308
0.0607341
0.0607374
0.0607406
0.0607438
0.060747
0.0607502
0.0607533
0.0607564
0.0607594
0.0607624
0.0607653
0.0607682
0.0607711
0.0607739
0.0607767
0.0607794
0.0607821
0.0607847
0.0607873
0.0607899
0.0607924
0.0607949
0.0607974
0.0607998
0.0608022
0.0608046
0.0608069
0.0608092
0.0608115
0.0608138
0.060816
0.0608182
0.0608205
0.0608218
0.0608295
0.0607869
0.0607701
0.0607687
0.0607708
0.0607736
0.0607766
0.0607795
0.0607825
0.0607855
0.0607885
0.0607915
0.0607944
0.0607973
0.0608004
0.0608025
0.0608108
0.0575688
0.0575535
0.0575527
0.0575552
0.0575583
0.0575616
0.0575649
0.0575682
0.0575715
0.0575747
0.0575779
0.0575811
0.0575842
0.0575873
0.0575904
0.0575934
0.0575964
0.0575994
0.0576023
0.0576052
0.057608
0.0576108
0.0576136
0.0576163
0.057619
0.0576216
0.0576242
0.0576268
0.0576293
0.0576317
0.0576342
0.0576366
0.057639
0.0576413
0.0576436
0.0576459
0.0576481
0.0576503
0.0576525
0.0576547
0.0576568
0.0576589
0.0576611
0.0576624
0.0576694
0.0576279
0.057612
0.0576107
0.0576127
0.0576154
0.0576182
0.057621
0.0576239
0.0576267
0.0576296
0.0576324
0.0576352
0.057638
0.0576409
0.0576429
0.0576506
0.054634
0.0546195
0.0546188
0.0546212
0.0546242
0.0546274
0.0546305
0.0546337
0.0546368
0.0546399
0.054643
0.054646
0.054649
0.054652
0.054655
0.0546579
0.0546608
0.0546636
0.0546665
0.0546692
0.054672
0.0546747
0.0546773
0.0546799
0.0546825
0.0546851
0.0546876
0.05469
0.0546924
0.0546948
0.0546972
0.0546995
0.0547017
0.054704
0.0547062
0.0547084
0.0547105
0.0547126
0.0547147
0.0547168
0.0547188
0.0547208
0.0547229
0.0547242
0.0547305
0.0546903
0.0546752
0.054674
0.0546759
0.0546784
0.0546811
0.0546838
0.0546866
0.0546893
0.054692
0.0546947
0.0546973
0.0547
0.0547027
0.0547047
0.0547117
0.0519079
0.0518941
0.0518935
0.0518958
0.0518987
0.0519017
0.0519047
0.0519077
0.0519107
0.0519137
0.0519167
0.0519196
0.0519225
0.0519253
0.0519281
0.0519309
0.0519337
0.0519365
0.0519392
0.0519418
0.0519445
0.0519471
0.0519496
0.0519521
0.0519546
0.051957
0.0519594
0.0519618
0.0519641
0.0519664
0.0519687
0.0519709
0.0519731
0.0519752
0.0519773
0.0519794
0.0519815
0.0519835
0.0519855
0.0519874
0.0519894
0.0519913
0.0519932
0.0519946
0.0520003
0.0519614
0.0519471
0.051946
0.0519478
0.0519502
0.0519527
0.0519553
0.0519579
0.0519604
0.051963
0.0519655
0.0519681
0.0519706
0.0519732
0.0519751
0.0519815
0.0493782
0.0493653
0.0493647
0.0493669
0.0493696
0.0493725
0.0493754
0.0493783
0.0493811
0.049384
0.0493868
0.0493896
0.0493923
0.0493951
0.0493978
0.0494005
0.0494031
0.0494057
0.0494083
0.0494109
0.0494134
0.0494159
0.0494183
0.0494207
0.0494231
0.0494255
0.0494278
0.04943
0.0494323
0.0494344
0.0494366
0.0494387
0.0494408
0.0494429
0.0494449
0.0494469
0.0494489
0.0494508
0.0494527
0.0494546
0.0494564
0.0494582
0.0494601
0.0494614
0.0494665
0.049429
0.0494155
0.0494144
0.0494161
0.0494184
0.0494208
0.0494233
0.0494257
0.0494281
0.0494305
0.049433
0.0494354
0.0494377
0.0494402
0.0494421
0.0494478
0.0470335
0.0470213
0.0470208
0.0470229
0.0470255
0.0470283
0.047031
0.0470338
0.0470365
0.0470392
0.0470418
0.0470445
0.0470471
0.0470497
0.0470523
0.0470549
0.0470574
0.0470599
0.0470624
0.0470648
0.0470672
0.0470696
0.047072
0.0470743
0.0470765
0.0470788
0.047081
0.0470832
0.0470853
0.0470874
0.0470895
0.0470915
0.0470935
0.0470954
0.0470974
0.0470993
0.0471012
0.047103
0.0471048
0.0471066
0.0471084
0.0471101
0.0471118
0.0471131
0.0471177
0.0470815
0.0470689
0.0470679
0.0470695
0.0470716
0.0470739
0.0470762
0.0470785
0.0470808
0.0470831
0.0470854
0.0470876
0.0470899
0.0470922
0.047094
0.0470992
0.0448628
0.0448514
0.044851
0.0448529
0.0448554
0.044858
0.0448606
0.0448632
0.0448658
0.0448684
0.0448709
0.0448734
0.0448759
0.0448784
0.0448809
0.0448833
0.0448857
0.0448881
0.0448904
0.0448928
0.0448951
0.0448973
0.0448996
0.0449018
0.0449039
0.0449061
0.0449082
0.0449103
0.0449123
0.0449143
0.0449163
0.0449182
0.0449201
0.044922
0.0449239
0.0449257
0.0449275
0.0449292
0.0449309
0.0449326
0.0449343
0.044936
0.0449376
0.0449388
0.044943
0.0449082
0.0448963
0.0448954
0.0448969
0.0448989
0.0449011
0.0449032
0.0449054
0.0449076
0.0449097
0.0449119
0.044914
0.0449161
0.0449183
0.04492
0.0449247
0.0428559
0.0428452
0.0428448
0.0428466
0.042849
0.0428515
0.0428539
0.0428564
0.0428588
0.0428612
0.0428637
0.042866
0.0428684
0.0428708
0.0428731
0.0428754
0.0428777
0.0428799
0.0428822
0.0428844
0.0428866
0.0428887
0.0428909
0.042893
0.042895
0.0428971
0.0428991
0.0429011
0.042903
0.0429049
0.0429068
0.0429087
0.0429105
0.0429123
0.042914
0.0429158
0.0429175
0.0429191
0.0429208
0.0429224
0.042924
0.0429255
0.0429271
0.0429283
0.042932
0.0428987
0.0428875
0.0428866
0.0428881
0.04289
0.042892
0.042894
0.0428961
0.0428981
0.0429001
0.0429021
0.0429041
0.0429061
0.0429082
0.0429098
0.042914
0.041003
0.040993
0.0409926
0.0409944
0.0409966
0.0409989
0.0410013
0.0410036
0.0410059
0.0410082
0.0410104
0.0410127
0.0410149
0.0410172
0.0410194
0.0410215
0.0410237
0.0410259
0.041028
0.0410301
0.0410321
0.0410342
0.0410362
0.0410382
0.0410402
0.0410421
0.041044
0.0410459
0.0410478
0.0410496
0.0410514
0.0410532
0.0410549
0.0410566
0.0410583
0.0410599
0.0410615
0.0410631
0.0410647
0.0410662
0.0410677
0.0410692
0.0410707
0.0410719
0.0410752
0.0410433
0.0410328
0.041032
0.0410334
0.0410351
0.041037
0.0410389
0.0410408
0.0410428
0.0410446
0.0410465
0.0410484
0.0410503
0.0410522
0.0410538
0.0410575
0.0392951
0.0392858
0.0392855
0.0392872
0.0392892
0.0392914
0.0392936
0.0392958
0.039298
0.0393001
0.0393023
0.0393044
0.0393065
0.0393086
0.0393107
0.0393127
0.0393148
0.0393168
0.0393188
0.0393208
0.0393228
0.0393247
0.0393266
0.0393285
0.0393304
0.0393322
0.039334
0.0393358
0.0393376
0.0393393
0.039341
0.0393427
0.0393444
0.039346
0.0393476
0.0393491
0.0393507
0.0393522
0.0393537
0.0393551
0.0393566
0.039358
0.0393594
0.0393605
0.0393635
0.039333
0.0393232
0.0393225
0.0393237
0.0393254
0.0393272
0.039329
0.0393308
0.0393325
0.0393343
0.0393361
0.0393378
0.0393396
0.0393414
0.0393429
0.0393462
0.037724
0.0377153
0.037715
0.0377166
0.0377186
0.0377206
0.0377227
0.0377247
0.0377267
0.0377288
0.0377308
0.0377328
0.0377348
0.0377367
0.0377387
0.0377406
0.0377426
0.0377445
0.0377464
0.0377482
0.0377501
0.0377519
0.0377537
0.0377555
0.0377573
0.0377591
0.0377608
0.0377625
0.0377641
0.0377658
0.0377674
0.037769
0.0377706
0.0377721
0.0377736
0.0377751
0.0377766
0.037778
0.0377794
0.0377808
0.0377822
0.0377835
0.0377848
0.0377859
0.0377886
0.0377596
0.0377504
0.0377497
0.0377509
0.0377525
0.0377541
0.0377558
0.0377575
0.0377591
0.0377608
0.0377624
0.0377641