/*--------------------------------*- C++ -*----------------------------------*\
  =========                 |
  \\      /  F ield         | OpenFOAM: The Open Source CFD Toolbox
   \\    /   O peration     | Website:  https://openfoam.org
    \\  /    A nd           | Version:  7
     \\/     M anipulation  |
\*---------------------------------------------------------------------------*/
FoamFile
{
    version     2.0;
    format      ascii;
    class       volVectorField;
    location    "99500";
    object      C;
}
// * * * * * * * * * * * * * * * * * * * * * * * * * * * * * * * * * * * * * //

dimensions      [0 1 0 0 0 0 0];

internalField   nonuniform List<vector> 
600
(
(0.05 7.71795e-05 0)
(0.05 0.000232736 -4.79977e-18)
(0.05 0.000390708 0)
(0.05 0.000551131 0)
(0.05 0.000714044 0)
(0.05 0.000879486 -2.89121e-19)
(0.05 0.0010475 0)
(0.05 0.00121811 0)
(0.05 0.00139138 0)
(0.05 0.00156733 2.77721e-18)
(0.05 0.00174602 0)
(0.05 0.00192748 0)
(0.05 0.00211175 0)
(0.05 0.00229889 0)
(0.05 0.00248893 0)
(0.05 0.00268192 0)
(0.05 0.00287791 0)
(0.05 0.00307693 0)
(0.05 0.00327905 0)
(0.05 0.0034843 0)
(0.05 0.00369274 0)
(0.05 0.00390442 0)
(0.05 0.00411938 0)
(0.05 0.00433767 0)
(0.05 0.00455936 0)
(0.05 0.00478448 0)
(0.05 0.0050131 0)
(0.05 0.00524527 0)
(0.05 0.00548104 0)
(0.05 0.00572047 0)
(0.05 0.00596362 0)
(0.05 0.00621054 0)
(0.05 0.0064613 0)
(0.05 0.00671594 0)
(0.05 0.00697454 0)
(0.05 0.00723715 0)
(0.05 0.00750384 0)
(0.05 0.00777467 0)
(0.05 0.0080497 0)
(0.05 0.008329 0)
(0.05 0.00861263 0)
(0.05 0.00890067 0)
(0.05 0.00919318 0)
(0.05 0.00949022 0)
(0.05 0.00979188 0)
(0.05 0.0100982 0)
(0.05 0.0104093 0)
(0.05 0.0107252 0)
(0.05 0.0110461 0)
(0.05 0.0113719 2.89121e-19)
(0.05 0.0117027 3.2246e-18)
(0.05 0.0120387 0)
(0.05 0.0123799 0)
(0.05 0.0127265 -5.34285e-18)
(0.05 0.0130783 -5.26561e-18)
(0.05 0.0134357 -2.73933e-18)
(0.05 0.0137986 0)
(0.05 0.0141671 0)
(0.05 0.0145414 5.25739e-18)
(0.05 0.0149214 0)
(0.05 0.0153074 0)
(0.05 0.0156993 0)
(0.05 0.0160974 0)
(0.05 0.0165016 0)
(0.05 0.0169121 0)
(0.05 0.0173289 -2.89121e-19)
(0.05 0.0177522 0)
(0.05 0.0181821 0)
(0.05 0.0186187 0)
(0.05 0.019062 -4.52816e-18)
(0.05 0.0195123 -2.89121e-19)
(0.05 0.0199695 0)
(0.05 0.0204338 0)
(0.05 0.0209053 0)
(0.05 0.0213841 0)
(0.05 0.0218704 -2.89121e-19)
(0.05 0.0223642 0)
(0.05 0.0228657 0)
(0.05 0.0233749 0)
(0.05 0.0238921 0)
(0.05 0.0244173 -3.62346e-18)
(0.05 0.0249506 0)
(0.05 0.0254923 0)
(0.05 0.0260423 0)
(0.05 0.0266008 0)
(0.05 0.0271681 4.91992e-18)
(0.05 0.0277441 0)
(0.05 0.0283291 0)
(0.05 0.0289232 0)
(0.05 0.0295264 0)
(0.05 0.0301391 -4.57669e-18)
(0.05 0.0307612 0)
(0.05 0.031393 0)
(0.05 0.0320346 0)
(0.05 0.0326862 5.66432e-18)
(0.05 0.0333479 3.22476e-18)
(0.05 0.0340199 0)
(0.05 0.0347022 -2.85536e-18)
(0.05 0.0353952 0)
(0.05 0.036099 -2.77752e-18)
(0.05 0.0368136 -5.47897e-18)
(0.05 0.0375394 0)
(0.05 0.0382764 5.33031e-18)
(0.05 0.0390248 -2.91796e-18)
(0.05 0.0397849 0)
(0.05 0.0405568 0)
(0.05 0.0413406 0)
(0.05 0.0421366 0)
(0.05 0.042945 -2.74454e-18)
(0.05 0.0437659 4.84463e-18)
(0.05 0.0445996 0)
(0.05 0.0454461 0)
(0.05 0.0463059 0)
(0.05 0.047179 0)
(0.05 0.0480656 0)
(0.05 0.048966 0)
(0.05 0.0498803 0)
(0.05 0.0508089 0)
(0.05 0.0517519 0)
(0.05 0.0527095 0)
(0.05 0.053682 0)
(0.05 0.0546695 0)
(0.05 0.0556724 0)
(0.05 0.0566909 0)
(0.05 0.0577251 0)
(0.05 0.0587754 -5.29094e-18)
(0.05 0.0598421 -2.89121e-19)
(0.05 0.0609252 -2.89121e-19)
(0.05 0.0620252 0)
(0.05 0.0631423 0)
(0.05 0.0642767 0)
(0.05 0.0654287 -4.84943e-18)
(0.05 0.0665986 0)
(0.05 0.0677866 0)
(0.05 0.0689931 0)
(0.05 0.0702183 0)
(0.05 0.0714625 0)
(0.05 0.0727261 2.89121e-19)
(0.05 0.0740092 2.72948e-18)
(0.05 0.0753123 0)
(0.05 0.0766356 0)
(0.05 0.0779794 -3.18447e-18)
(0.05 0.0793441 0)
(0.05 0.08073 0)
(0.05 0.0821374 0)
(0.05 0.0835666 0)
(0.05 0.085018 2.70218e-18)
(0.05 0.0864919 2.89121e-19)
(0.05 0.0879887 -5.25797e-18)
(0.05 0.0895088 0)
(0.05 0.0910524 0)
(0.05 0.09262 0)
(0.05 0.0942119 0)
(0.05 0.0958286 -7.07755e-18)
(0.05 0.0974703 0)
(0.05 0.0991375 0)
(0.05 0.100831 0)
(0.05 0.10255 0)
(0.05 0.104296 0)
(0.05 0.106069 0)
(0.05 0.10787 0)
(0.05 0.109698 2.20441e-18)
(0.05 0.111555 -2.89121e-19)
(0.05 0.113441 0)
(0.05 0.115356 0)
(0.05 0.117301 0)
(0.05 0.119276 0)
(0.05 0.121282 0)
(0.05 0.123319 0)
(0.05 0.125387 0)
(0.05 0.127488 0)
(0.05 0.129621 0)
(0.05 0.131787 0)
(0.05 0.133987 0)
(0.05 0.136221 0)
(0.05 0.138489 0)
(0.05 0.140793 0)
(0.05 0.143133 0)
(0.05 0.145509 0)
(0.05 0.147922 0)
(0.05 0.150372 0)
(0.05 0.15286 0)
(0.05 0.155387 0)
(0.05 0.157953 0)
(0.05 0.160559 -5.9541e-18)
(0.05 0.163206 0)
(0.05 0.165893 0)
(0.05 0.168622 0)
(0.05 0.171394 2.81645e-18)
(0.05 0.174209 0)
(0.05 0.177067 0)
(0.05 0.179969 -2.89121e-19)
(0.05 0.182917 0)
(0.05 0.185911 0)
(0.05 0.18895 0)
(0.05 0.192038 0)
(0.05 0.195173 0)
(0.05 0.198356 0)
(0.05 0.201589 0)
(0.05 0.204872 0)
(0.05 0.208207 0)
(0.05 0.211593 0)
(0.05 0.215031 0)
(0.05 0.218523 -2.89121e-19)
(0.05 0.222069 0)
(0.05 0.22567 0)
(0.05 0.229327 0)
(0.05 0.233041 0)
(0.05 0.236812 0)
(0.05 0.240642 0)
(0.05 0.244532 0)
(0.05 0.248482 -5.89855e-18)
(0.05 0.252493 0)
(0.05 0.256566 0)
(0.05 0.260703 0)
(0.05 0.264903 0)
(0.05 0.269169 0)
(0.05 0.273501 0)
(0.05 0.277901 0)
(0.05 0.282369 -1.85697e-18)
(0.05 0.286906 -6.75378e-18)
(0.05 0.291513 0)
(0.05 0.296192 0)
(0.05 0.300944 0)
(0.05 0.305769 0)
(0.05 0.310669 0)
(0.05 0.315645 -1.69673e-18)
(0.05 0.320699 0)
(0.05 0.325831 0)
(0.05 0.331043 -2.97721e-18)
(0.05 0.336335 0)
(0.05 0.34171 0)
(0.05 0.347168 0)
(0.05 0.352711 -5.34409e-18)
(0.05 0.35834 0)
(0.05 0.364056 -3.02906e-18)
(0.05 0.369861 0)
(0.05 0.375756 0)
(0.05 0.381742 0)
(0.05 0.387822 0)
(0.05 0.393995 0)
(0.05 0.400265 0)
(0.05 0.406632 0)
(0.05 0.413098 0)
(0.05 0.419664 0)
(0.05 0.426332 -2.89121e-19)
(0.05 0.433103 0)
(0.05 0.43998 -2.89121e-19)
(0.05 0.446963 0)
(0.05 0.454055 0)
(0.05 0.461257 -2.89121e-19)
(0.05 0.46857 -4.40929e-18)
(0.05 0.475997 0)
(0.05 0.48354 0)
(0.05 0.491199 7.89435e-18)
(0.05 0.498978 0)
(0.05 0.506877 0)
(0.05 0.514898 0)
(0.05 0.523044 0)
(0.05 0.531317 0)
(0.05 0.539718 0)
(0.05 0.548249 0)
(0.05 0.556913 0)
(0.05 0.565712 0)
(0.05 0.574646 0)
(0.05 0.58372 0)
(0.05 0.592934 0)
(0.05 0.602292 0)
(0.05 0.611794 1.76338e-18)
(0.05 0.621444 0)
(0.05 0.631244 0)
(0.05 0.641196 0)
(0.05 0.651303 8.89531e-18)
(0.05 0.661566 0)
(0.05 0.671988 0)
(0.05 0.682573 0)
(0.05 0.693322 0)
(0.05 0.704237 0)
(0.05 0.715322 0)
(0.05 0.726579 0)
(0.05 0.738011 0)
(0.05 0.74962 0)
(0.05 0.761409 0)
(0.05 0.773381 0)
(0.05 0.785539 0)
(0.05 0.797886 0)
(0.05 0.810425 0)
(0.05 0.823158 0)
(0.05 0.836088 0)
(0.05 0.84922 0)
(0.05 0.862555 0)
(0.05 0.876097 0)
(0.05 0.88985 0)
(0.05 0.903815 -2.89121e-19)
(0.05 0.917998 0)
(0.05 0.932401 0)
(0.05 0.947027 -2.89121e-19)
(0.05 0.96188 0)
(0.05 0.976964 0)
(0.05 0.992282 -3.9474e-18)
(0.05 1.00772 0)
(0.05 1.02304 0)
(0.05 1.03812 0)
(0.05 1.05297 0)
(0.05 1.0676 4.46899e-18)
(0.05 1.082 0)
(0.05 1.09618 0)
(0.05 1.11015 0)
(0.05 1.1239 0)
(0.05 1.13744 0)
(0.05 1.15078 -2.89121e-19)
(0.05 1.16391 0)
(0.05 1.17684 0)
(0.05 1.18958 0)
(0.05 1.20211 0)
(0.05 1.21446 7.49182e-18)
(0.05 1.22662 0)
(0.05 1.23859 0)
(0.05 1.25038 0)
(0.05 1.26199 0)
(0.05 1.27342 0)
(0.05 1.28468 0)
(0.05 1.29576 3.14511e-18)
(0.05 1.30668 0)
(0.05 1.31743 0)
(0.05 1.32801 0)
(0.05 1.33843 0)
(0.05 1.3487 0)
(0.05 1.3588 0)
(0.05 1.36876 0)
(0.05 1.37856 0)
(0.05 1.38821 -2.89121e-19)
(0.05 1.39771 0)
(0.05 1.40707 0)
(0.05 1.41628 0)
(0.05 1.42535 0)
(0.05 1.43429 0)
(0.05 1.44309 0)
(0.05 1.45175 0)
(0.05 1.46028 0)
(0.05 1.46868 0)
(0.05 1.47696 0)
(0.05 1.4851 0)
(0.05 1.49312 -2.06267e-18)
(0.05 1.50102 0)
(0.05 1.5088 0)
(0.05 1.51646 4.00395e-18)
(0.05 1.524 0)
(0.05 1.53143 0)
(0.05 1.53874 0)
(0.05 1.54595 0)
(0.05 1.55304 0)
(0.05 1.56002 0)
(0.05 1.5669 0)
(0.05 1.57367 0)
(0.05 1.58034 0)
(0.05 1.5869 0)
(0.05 1.59337 -2.48945e-18)
(0.05 1.59974 0)
(0.05 1.606 0)
(0.05 1.61218 0)
(0.05 1.61826 0)
(0.05 1.62424 0)
(0.05 1.63014 0)
(0.05 1.63594 0)
(0.05 1.64166 0)
(0.05 1.64729 0)
(0.05 1.65283 0)
(0.05 1.65829 0)
(0.05 1.66366 0)
(0.05 1.66896 0)
(0.05 1.67417 0)
(0.05 1.6793 0)
(0.05 1.68435 0)
(0.05 1.68933 0)
(0.05 1.69423 0)
(0.05 1.69906 0)
(0.05 1.70381 0)
(0.05 1.70849 0)
(0.05 1.71309 -2.89121e-19)
(0.05 1.71763 0)
(0.05 1.7221 0)
(0.05 1.7265 0)
(0.05 1.73083 2.89121e-19)
(0.05 1.7351 0)
(0.05 1.7393 0)
(0.05 1.74343 0)
(0.05 1.74751 0)
(0.05 1.75152 0)
(0.05 1.75547 2.09008e-18)
(0.05 1.75936 -4.23607e-18)
(0.05 1.76319 0)
(0.05 1.76696 0)
(0.05 1.77067 0)
(0.05 1.77433 0)
(0.05 1.77793 0)
(0.05 1.78148 0)
(0.05 1.78497 0)
(0.05 1.78841 0)
(0.05 1.79179 0)
(0.05 1.79513 4.84515e-18)
(0.05 1.79841 0)
(0.05 1.80164 0)
(0.05 1.80483 0)
(0.05 1.80796 0)
(0.05 1.81105 0)
(0.05 1.81409 0)
(0.05 1.81708 0)
(0.05 1.82003 0)
(0.05 1.82293 -2.73979e-18)
(0.05 1.82579 0)
(0.05 1.82861 0)
(0.05 1.83138 0)
(0.05 1.83411 0)
(0.05 1.83679 0)
(0.05 1.83944 0)
(0.05 1.84205 0)
(0.05 1.84461 0)
(0.05 1.84714 0)
(0.05 1.84963 0)
(0.05 1.85208 0)
(0.05 1.85449 0)
(0.05 1.85687 0)
(0.05 1.85921 -5.13883e-18)
(0.05 1.86151 0)
(0.05 1.86378 0)
(0.05 1.86601 0)
(0.05 1.86821 0)
(0.05 1.87038 0)
(0.05 1.87251 0)
(0.05 1.87461 0)
(0.05 1.87668 0)
(0.05 1.87872 0)
(0.05 1.88072 0)
(0.05 1.8827 5.69168e-18)
(0.05 1.88464 -3.94673e-18)
(0.05 1.88656 0)
(0.05 1.88844 4.06115e-18)
(0.05 1.8903 2.20441e-18)
(0.05 1.89213 -4.46827e-18)
(0.05 1.89393 0)
(0.05 1.8957 0)
(0.05 1.89745 0)
(0.05 1.89917 0)
(0.05 1.90086 4.77968e-18)
(0.05 1.90253 0)
(0.05 1.90417 0)
(0.05 1.90579 0)
(0.05 1.90738 -2.52333e-18)
(0.05 1.90895 0)
(0.05 1.91049 -2.59322e-18)
(0.05 1.91201 0)
(0.05 1.91351 0)
(0.05 1.91498 0)
(0.05 1.91643 -3.02876e-18)
(0.05 1.91786 -5.55534e-18)
(0.05 1.91927 -2.89121e-19)
(0.05 1.92066 2.85552e-18)
(0.05 1.92202 0)
(0.05 1.92336 0)
(0.05 1.92469 0)
(0.05 1.92599 2.72948e-18)
(0.05 1.92727 8.89378e-18)
(0.05 1.92854 0)
(0.05 1.92978 -1.7184e-18)
(0.05 1.93101 6.3841e-18)
(0.05 1.93221 0)
(0.05 1.9334 0)
(0.05 1.93457 0)
(0.05 1.93572 0)
(0.05 1.93686 0)
(0.05 1.93797 0)
(0.05 1.93907 0)
(0.05 1.94016 0)
(0.05 1.94122 0)
(0.05 1.94227 0)
(0.05 1.94331 0)
(0.05 1.94433 0)
(0.05 1.94533 0)
(0.05 1.94632 0)
(0.05 1.94729 0)
(0.05 1.94825 0)
(0.05 1.94919 0)
(0.05 1.95012 0)
(0.05 1.95103 0)
(0.05 1.95193 0)
(0.05 1.95282 -2.29486e-18)
(0.05 1.95369 0)
(0.05 1.95455 0)
(0.05 1.9554 0)
(0.05 1.95623 2.42231e-18)
(0.05 1.95706 0)
(0.05 1.95786 0)
(0.05 1.95866 0)
(0.05 1.95944 5.11573e-18)
(0.05 1.96022 0)
(0.05 1.96098 0)
(0.05 1.96172 0)
(0.05 1.96246 0)
(0.05 1.96319 0)
(0.05 1.9639 0)
(0.05 1.9646 0)
(0.05 1.9653 0)
(0.05 1.96598 0)
(0.05 1.96665 0)
(0.05 1.96731 0)
(0.05 1.96797 0)
(0.05 1.96861 0)
(0.05 1.96924 0)
(0.05 1.96986 0)
(0.05 1.97047 0)
(0.05 1.97108 0)
(0.05 1.97167 0)
(0.05 1.97226 0)
(0.05 1.97283 0)
(0.05 1.9734 0)
(0.05 1.97396 0)
(0.05 1.97451 7.04463e-18)
(0.05 1.97505 -2.89121e-19)
(0.05 1.97558 0)
(0.05 1.97611 0)
(0.05 1.97663 0)
(0.05 1.97713 0)
(0.05 1.97764 2.06223e-18)
(0.05 1.97813 0)
(0.05 1.97862 0)
(0.05 1.97909 0)
(0.05 1.97957 -2.1749e-18)
(0.05 1.98003 -4.11923e-18)
(0.05 1.98049 0)
(0.05 1.98094 0)
(0.05 1.98138 0)
(0.05 1.98182 0)
(0.05 1.98225 0)
(0.05 1.98267 0)
(0.05 1.98309 0)
(0.05 1.9835 0)
(0.05 1.9839 -2.48891e-18)
(0.05 1.9843 0)
(0.05 1.98469 7.38405e-18)
(0.05 1.98508 0)
(0.05 1.98546 0)
(0.05 1.98583 2.66501e-18)
(0.05 1.9862 -2.991e-18)
(0.05 1.98656 0)
(0.05 1.98692 0)
(0.05 1.98727 0)
(0.05 1.98762 0)
(0.05 1.98796 0)
(0.05 1.9883 2.93548e-18)
(0.05 1.98863 0)
(0.05 1.98895 0)
(0.05 1.98927 0)
(0.05 1.98959 0)
(0.05 1.9899 0)
(0.05 1.99021 0)
(0.05 1.99051 0)
(0.05 1.99081 0)
(0.05 1.9911 0)
(0.05 1.99139 0)
(0.05 1.99167 0)
(0.05 1.99195 0)
(0.05 1.99223 0)
(0.05 1.9925 0)
(0.05 1.99276 0)
(0.05 1.99303 0)
(0.05 1.99328 0)
(0.05 1.99354 0)
(0.05 1.99379 0)
(0.05 1.99404 0)
(0.05 1.99428 0)
(0.05 1.99452 0)
(0.05 1.99475 0)
(0.05 1.99499 -2.20405e-18)
(0.05 1.99522 0)
(0.05 1.99544 2.89121e-19)
(0.05 1.99566 -4.58921e-18)
(0.05 1.99588 0)
(0.05 1.9961 0)
(0.05 1.99631 0)
(0.05 1.99652 2.13292e-18)
(0.05 1.99672 0)
(0.05 1.99692 0)
(0.05 1.99712 0)
(0.05 1.99732 0)
(0.05 1.99751 0)
(0.05 1.9977 0)
(0.05 1.99789 0)
(0.05 1.99807 0)
(0.05 1.99825 0)
(0.05 1.99843 0)
(0.05 1.99861 5.34253e-18)
(0.05 1.99878 0)
(0.05 1.99895 0)
(0.05 1.99912 2.89121e-19)
(0.05 1.99929 0)
(0.05 1.99945 0)
(0.05 1.99961 -3.34957e-18)
(0.05 1.99977 0)
(0.05 1.99992 0)
)
;

boundaryField
{
    bottomWall
    {
        type            calculated;
        value           uniform (0.05 0 0);
    }
    topWall
    {
        type            calculated;
        value           uniform (0.05 2 0);
    }
    sides1_half0
    {
        type            empty;
    }
    sides1_half1
    {
        type            empty;
    }
    sides2_half0
    {
        type            empty;
    }
    sides2_half1
    {
        type            empty;
    }
    inout1_half0
    {
        type            cyclic;
    }
    inout1_half1
    {
        type            cyclic;
    }
    inout2_half0
    {
        type            cyclic;
    }
    inout2_half1
    {
        type            cyclic;
    }
}


// ************************************************************************* //
