/*--------------------------------*- C++ -*----------------------------------*\
  =========                 |
  \\      /  F ield         | OpenFOAM: The Open Source CFD Toolbox
   \\    /   O peration     | Website:  https://openfoam.org
    \\  /    A nd           | Version:  7
     \\/     M anipulation  |
\*---------------------------------------------------------------------------*/
FoamFile
{
    version     2.0;
    format      ascii;
    class       volScalarField;
    location    "99500";
    object      nut;
}
// * * * * * * * * * * * * * * * * * * * * * * * * * * * * * * * * * * * * * //

dimensions      [0 2 -1 0 0 0 0];

internalField   nonuniform List<scalar> 
600
(
3.20874e-18
5.63716e-16
1.19097e-14
9.25373e-14
4.25046e-13
1.4249e-12
3.88232e-12
9.14092e-12
1.93182e-11
3.75737e-11
6.84317e-11
1.18166e-10
1.95253e-10
3.1091e-10
4.79714e-10
7.20329e-10
1.05634e-09
1.51721e-09
2.13939e-09
2.96754e-09
4.05597e-09
5.47018e-09
7.28867e-09
9.6049e-09
1.25295e-08
1.61924e-08
2.0746e-08
2.63673e-08
3.32614e-08
4.16642e-08
5.18463e-08
6.41159e-08
7.88225e-08
9.63603e-08
1.17172e-07
1.4175e-07
1.70643e-07
2.04454e-07
2.43845e-07
2.89538e-07
3.42312e-07
4.03008e-07
4.72522e-07
5.51801e-07
6.41845e-07
7.43694e-07
8.58425e-07
9.8714e-07
1.13096e-06
1.29102e-06
1.46843e-06
1.66431e-06
1.87974e-06
2.11575e-06
2.37335e-06
2.65347e-06
2.95697e-06
3.28466e-06
3.63726e-06
4.01541e-06
4.41967e-06
4.85052e-06
5.30837e-06
5.79354e-06
6.30629e-06
6.84683e-06
7.41528e-06
8.01174e-06
8.63624e-06
9.28879e-06
9.96936e-06
1.06779e-05
1.14143e-05
1.21784e-05
1.29702e-05
1.37895e-05
1.46362e-05
1.551e-05
1.6411e-05
1.72843e-05
1.8166e-05
1.90731e-05
2.00087e-05
2.09736e-05
2.19683e-05
2.29931e-05
2.40485e-05
2.51348e-05
2.62523e-05
2.74015e-05
2.85826e-05
2.97959e-05
3.1042e-05
3.23209e-05
3.36331e-05
3.49789e-05
3.63586e-05
3.77725e-05
3.92209e-05
4.07041e-05
4.22224e-05
4.37762e-05
4.53656e-05
4.69909e-05
4.8652e-05
5.03493e-05
5.20831e-05
5.38538e-05
5.56618e-05
5.75072e-05
5.93902e-05
6.13112e-05
6.32704e-05
6.52679e-05
6.7304e-05
6.93789e-05
7.14929e-05
7.36461e-05
7.58388e-05
7.80711e-05
8.03434e-05
8.26558e-05
8.50084e-05
8.74016e-05
8.98354e-05
9.23102e-05
9.4826e-05
9.73831e-05
9.99816e-05
0.000102622
0.000105304
0.000108028
0.000110794
0.000113603
0.000116454
0.000119347
0.000122284
0.000125263
0.000128286
0.000131352
0.000134461
0.000137614
0.000140811
0.000144051
0.000147336
0.000150664
0.000154037
0.000157454
0.000160915
0.000164421
0.000167972
0.000171567
0.000175207
0.000178892
0.000182622
0.000186397
0.000190216
0.000194081
0.000197992
0.000201947
0.000205947
0.000209993
0.000214084
0.00021822
0.000222401
0.000226628
0.0002309
0.000235217
0.000239578
0.000243985
0.000248437
0.000252934
0.000257476
0.000262062
0.000266693
0.000271368
0.000276087
0.000280851
0.000285659
0.00029051
0.000295405
0.000300344
0.000305325
0.00031035
0.000315417
0.000320527
0.000325679
0.000330873
0.000336108
0.000341385
0.000346703
0.000352061
0.00035746
0.000362898
0.000368376
0.000373893
0.000379449
0.000385042
0.000390674
0.000396342
0.000402047
0.000407789
0.000413566
0.000419379
0.000425226
0.000431108
0.000437024
0.000442974
0.000448958
0.000454978
0.000461034
0.000467129
0.000473267
0.000479453
0.000485694
0.000492002
0.000498391
0.000504881
0.000511494
0.000518261
0.000525217
0.000532399
0.000539845
0.000547589
0.000555643
0.000563986
0.000572537
0.000581114
0.000589386
0.000596804
0.000603885
0.000610991
0.00061812
0.000625271
0.000632444
0.000639636
0.000646847
0.000654075
0.00066132
0.00066858
0.000675853
0.00068314
0.000690437
0.000697745
0.000705061
0.000712385
0.000719716
0.00072705
0.000734389
0.000741729
0.00074907
0.00075641
0.000763748
0.000771082
0.00077841
0.000785732
0.000793044
0.000800347
0.000807638
0.000814914
0.000822175
0.000829417
0.00083664
0.000843841
0.000851016
0.000858164
0.000865282
0.000872367
0.000879415
0.000886423
0.000893386
0.000900301
0.000907163
0.000913967
0.000920707
0.000927376
0.000933968
0.000940475
0.000946888
0.000953199
0.000959397
0.000965471
0.000971408
0.000977195
0.000982818
0.00098826
0.000993504
0.000998532
0.00100332
0.00100786
0.00101211
0.00101606
0.00101968
0.00102295
0.00102583
0.0010283
0.00103033
0.0010319
0.00103297
0.00103352
0.00103352
0.00103297
0.0010319
0.00103033
0.0010283
0.00102583
0.00102295
0.00101968
0.00101606
0.00101211
0.00100786
0.00100332
0.000998532
0.000993504
0.00098826
0.000982818
0.000977195
0.000971408
0.000965471
0.000959397
0.000953199
0.000946888
0.000940475
0.000933968
0.000927376
0.000920707
0.000913967
0.000907163
0.000900301
0.000893386
0.000886423
0.000879415
0.000872367
0.000865282
0.000858164
0.000851016
0.000843841
0.00083664
0.000829417
0.000822175
0.000814914
0.000807638
0.000800347
0.000793044
0.000785732
0.00077841
0.000771082
0.000763748
0.00075641
0.00074907
0.000741729
0.000734389
0.00072705
0.000719716
0.000712385
0.000705061
0.000697745
0.000690437
0.00068314
0.000675853
0.00066858
0.00066132
0.000654075
0.000646847
0.000639636
0.000632444
0.000625271
0.00061812
0.000610991
0.000603885
0.000596804
0.000589386
0.000581114
0.000572537
0.000563986
0.000555643
0.000547589
0.000539845
0.000532399
0.000525217
0.000518261
0.000511494
0.000504881
0.000498391
0.000492002
0.000485694
0.000479453
0.000473267
0.000467129
0.000461034
0.000454978
0.000448958
0.000442974
0.000437024
0.000431108
0.000425226
0.000419379
0.000413566
0.000407789
0.000402047
0.000396342
0.000390674
0.000385042
0.000379449
0.000373893
0.000368376
0.000362898
0.00035746
0.000352061
0.000346703
0.000341385
0.000336108
0.000330873
0.000325679
0.000320527
0.000315417
0.00031035
0.000305325
0.000300344
0.000295405
0.00029051
0.000285659
0.000280851
0.000276087
0.000271368
0.000266693
0.000262062
0.000257476
0.000252934
0.000248437
0.000243985
0.000239578
0.000235217
0.0002309
0.000226628
0.000222401
0.00021822
0.000214084
0.000209993
0.000205947
0.000201947
0.000197992
0.000194081
0.000190216
0.000186397
0.000182622
0.000178892
0.000175207
0.000171567
0.000167972
0.000164421
0.000160915
0.000157454
0.000154037
0.000150664
0.000147336
0.000144051
0.000140811
0.000137614
0.000134461
0.000131352
0.000128286
0.000125263
0.000122284
0.000119347
0.000116454
0.000113603
0.000110794
0.000108028
0.000105304
0.000102622
9.99817e-05
9.73831e-05
9.4826e-05
9.23102e-05
8.98354e-05
8.74016e-05
8.50084e-05
8.26558e-05
8.03434e-05
7.80711e-05
7.58388e-05
7.36461e-05
7.14929e-05
6.93789e-05
6.7304e-05
6.52679e-05
6.32704e-05
6.13112e-05
5.93902e-05
5.75072e-05
5.56618e-05
5.38538e-05
5.20831e-05
5.03493e-05
4.8652e-05
4.69909e-05
4.53656e-05
4.37762e-05
4.22224e-05
4.07041e-05
3.92209e-05
3.77725e-05
3.63586e-05
3.49789e-05
3.36331e-05
3.23209e-05
3.1042e-05
2.97959e-05
2.85826e-05
2.74015e-05
2.62523e-05
2.51348e-05
2.40485e-05
2.29931e-05
2.19683e-05
2.09736e-05
2.00087e-05
1.90731e-05
1.8166e-05
1.72843e-05
1.6411e-05
1.551e-05
1.46362e-05
1.37895e-05
1.29702e-05
1.21784e-05
1.14143e-05
1.06779e-05
9.96936e-06
9.28879e-06
8.63624e-06
8.01174e-06
7.41528e-06
6.84683e-06
6.30629e-06
5.79354e-06
5.30837e-06
4.85052e-06
4.41967e-06
4.01541e-06
3.63726e-06
3.28466e-06
2.95697e-06
2.65347e-06
2.37335e-06
2.11575e-06
1.87974e-06
1.66431e-06
1.46843e-06
1.29102e-06
1.13096e-06
9.8714e-07
8.58424e-07
7.43694e-07
6.41845e-07
5.51801e-07
4.72522e-07
4.03008e-07
3.42312e-07
2.89538e-07
2.43845e-07
2.04454e-07
1.70643e-07
1.4175e-07
1.17172e-07
9.63603e-08
7.88225e-08
6.41159e-08
5.18463e-08
4.16642e-08
3.32614e-08
2.63673e-08
2.0746e-08
1.61924e-08
1.25295e-08
9.60491e-09
7.28867e-09
5.47018e-09
4.05597e-09
2.96754e-09
2.13939e-09
1.51721e-09
1.05634e-09
7.20328e-10
4.79714e-10
3.1091e-10
1.95253e-10
1.18166e-10
6.84316e-11
3.75737e-11
1.93182e-11
9.14094e-12
3.88233e-12
1.4249e-12
4.25045e-13
9.25372e-14
1.19097e-14
5.63716e-16
3.20873e-18
)
;

boundaryField
{
    bottomWall
    {
        type            nutUWallFunction;
        Cmu             0.09;
        kappa           0.41;
        E               9.8;
        value           uniform 0;
    }
    topWall
    {
        type            nutUWallFunction;
        Cmu             0.09;
        kappa           0.41;
        E               9.8;
        value           uniform 0;
    }
    sides1_half0
    {
        type            empty;
    }
    sides1_half1
    {
        type            empty;
    }
    sides2_half0
    {
        type            empty;
    }
    sides2_half1
    {
        type            empty;
    }
    inout1_half0
    {
        type            cyclic;
    }
    inout1_half1
    {
        type            cyclic;
    }
    inout2_half0
    {
        type            cyclic;
    }
    inout2_half1
    {
        type            cyclic;
    }
}


// ************************************************************************* //
