/*--------------------------------*- C++ -*----------------------------------*\
  =========                 |
  \\      /  F ield         | OpenFOAM: The Open Source CFD Toolbox
   \\    /   O peration     | Website:  https://openfoam.org
    \\  /    A nd           | Version:  7
     \\/     M anipulation  |
\*---------------------------------------------------------------------------*/
FoamFile
{
    version     2.0;
    format      ascii;
    class       surfaceScalarField;
    location    "99500";
    object      phi;
}
// * * * * * * * * * * * * * * * * * * * * * * * * * * * * * * * * * * * * * //

dimensions      [0 3 -1 0 0 0 0];

internalField   nonuniform List<scalar> 
599
(
4.50245e-16
3.75254e-16
4.0975e-16
4.17495e-16
4.23673e-16
4.13064e-16
4.41904e-16
4.19988e-16
4.40996e-16
4.3338e-16
4.54327e-16
3.98589e-16
3.80049e-16
3.65473e-16
3.86091e-16
3.26444e-16
3.16651e-16
2.91389e-16
2.70951e-16
2.78241e-16
2.95579e-16
3.23049e-16
3.24972e-16
2.86427e-16
3.10621e-16
2.86193e-16
2.74019e-16
3.03874e-16
2.56659e-16
2.66955e-16
2.77244e-16
2.61079e-16
3.21327e-16
3.15215e-16
3.18344e-16
3.54592e-16
4.60737e-16
4.44169e-16
4.33858e-16
4.18494e-16
3.87847e-16
3.78522e-16
3.27115e-16
3.57606e-16
3.28051e-16
3.33081e-16
3.17781e-16
3.43161e-16
3.83275e-16
4.02388e-16
3.5912e-16
3.88983e-16
4.3002e-16
4.2032e-16
3.65459e-16
2.83425e-16
2.27737e-16
2.39657e-16
1.94793e-16
2.26011e-16
3.01168e-16
3.3809e-16
3.00852e-16
3.48841e-16
2.98499e-16
3.0789e-16
2.23901e-16
1.55341e-16
1.29564e-16
1.02953e-16
1.5477e-16
9.72306e-17
1.34071e-16
8.01633e-17
1.43779e-16
1.88516e-16
1.2799e-16
7.55713e-17
4.76335e-17
4.20572e-17
8.41666e-17
1.71298e-16
8.76563e-17
1.07898e-16
1.33867e-16
3.30278e-17
1.25218e-16
1.88207e-16
1.57122e-16
2.01017e-16
1.22104e-16
9.56494e-17
8.0541e-17
7.55618e-17
8.0161e-17
9.31786e-17
1.11801e-16
7.3538e-17
5.53565e-17
4.49581e-17
2.07594e-17
2.60655e-17
-2.1441e-17
-1.41731e-17
3.04072e-17
2.98475e-17
5.52043e-17
7.84328e-17
1.0163e-16
1.00658e-16
9.88318e-17
9.68351e-17
6.64616e-17
8.37573e-17
6.28518e-17
7.02148e-17
4.84088e-17
1.86101e-17
4.28818e-17
1.60645e-17
4.48912e-17
4.48075e-17
1.56369e-17
-1.27362e-17
-1.98678e-17
-4.42969e-17
-4.53475e-17
-5.25265e-17
-8.52159e-17
-9.34925e-17
-4.6842e-17
-6.28117e-17
-7.81693e-17
-1.05907e-16
-8.72433e-17
-6.37727e-17
-6.77844e-17
-4.70173e-17
-6.2044e-17
-5.09528e-17
-7.45426e-17
-9.03006e-17
-7.77787e-17
-7.19483e-17
-7.15657e-17
-9.46078e-17
-1.03675e-16
-8.42828e-17
-7.39352e-17
-7.71115e-17
-6.36876e-17
-6.54424e-17
-1.23864e-16
-1.35798e-16
-1.17163e-16
-1.10339e-16
-9.57705e-17
-7.09753e-17
-7.98e-17
-1.07879e-16
-8.78281e-17
-8.29691e-17
-9.44257e-17
-1.10551e-16
-8.7638e-17
-8.91647e-17
-6.72774e-17
-5.41244e-17
-3.38174e-17
-2.00117e-18
-2.63389e-17
1.6639e-17
9.46036e-18
1.70387e-17
4.94898e-18
3.41009e-18
1.31361e-17
9.81924e-18
-4.13976e-17
-1.57056e-17
-1.98342e-17
-4.50894e-17
-3.71656e-17
2.96135e-17
5.26095e-17
7.99948e-17
7.90921e-17
7.36519e-17
5.35222e-17
8.37832e-17
1.20652e-16
1.17513e-16
1.21239e-16
7.93479e-17
4.53027e-17
5.96408e-17
7.62447e-17
1.18795e-16
1.05936e-16
1.31592e-16
1.55274e-16
1.076e-16
1.17415e-16
1.3365e-16
1.53042e-16
1.45384e-16
1.49872e-16
1.49531e-16
1.26857e-16
1.19806e-16
1.21538e-16
1.13757e-16
1.24994e-16
1.39651e-16
1.54377e-16
1.52906e-16
1.367e-16
1.25365e-16
8.79896e-17
7.8895e-17
1.03705e-16
6.32694e-17
1.18967e-16
7.46537e-17
4.52429e-17
8.17612e-17
1.10463e-16
1.05139e-16
1.17089e-16
1.63426e-16
1.67759e-16
2.18408e-16
2.31796e-16
2.20813e-16
2.12575e-16
2.15403e-16
1.76116e-16
2.35625e-16
2.76047e-16
2.85672e-16
2.5959e-16
2.60105e-16
2.74016e-16
2.97189e-16
3.16812e-16
2.92496e-16
3.06548e-16
2.66454e-16
2.69445e-16
2.92224e-16
2.96364e-16
2.6961e-16
2.61722e-16
2.28714e-16
2.16333e-16
1.98257e-16
1.91861e-16
2.05432e-16
2.45222e-16
2.08793e-16
1.9951e-16
1.79844e-16
1.44103e-16
1.43948e-16
1.72731e-16
1.80016e-16
1.67593e-16
1.42804e-16
1.12883e-16
7.83025e-17
8.14838e-17
4.86246e-17
3.92678e-17
6.50565e-17
1.09598e-16
8.26989e-17
7.34106e-17
7.35523e-17
1.04018e-16
9.35273e-17
1.28562e-16
1.22009e-16
1.3955e-16
1.29906e-16
1.17762e-16
1.25524e-16
1.20924e-16
8.22564e-17
1.27679e-16
1.51379e-16
1.72271e-16
1.90567e-16
1.85412e-16
1.9255e-16
1.71269e-16
1.4495e-16
1.43327e-16
1.76362e-16
1.79965e-16
1.54556e-16
1.83299e-16
1.61615e-16
1.74279e-16
1.72048e-16
1.95154e-16
1.83804e-16
1.76613e-16
2.0873e-16
2.16261e-16
2.48378e-16
2.29031e-16
2.83225e-16
3.10755e-16
3.08318e-16
3.19624e-16
3.21331e-16
3.28723e-16
2.94169e-16
3.22526e-16
3.21706e-16
3.00989e-16
2.57692e-16
2.69072e-16
2.78154e-16
2.7064e-16
2.79903e-16
2.56167e-16
2.38166e-16
2.73773e-16
2.96826e-16
2.79589e-16
2.93914e-16
2.86303e-16
2.61389e-16
2.69034e-16
2.64178e-16
2.67902e-16
2.6068e-16
2.83494e-16
2.83357e-16
2.57026e-16
2.64417e-16
2.47184e-16
2.43372e-16
2.68568e-16
2.62122e-16
2.62159e-16
2.91546e-16
2.97509e-16
2.99065e-16
2.69179e-16
2.161e-16
2.31902e-16
1.93934e-16
1.98691e-16
1.7281e-16
1.812e-16
1.72822e-16
1.92476e-16
1.32756e-16
1.21444e-16
8.391e-17
1.18007e-16
1.14877e-16
1.0859e-16
1.32904e-16
1.24121e-16
8.94471e-17
9.10989e-17
8.68545e-17
5.82768e-17
5.93085e-17
4.96184e-17
2.52961e-17
1.33188e-17
2.35371e-17
-1.77408e-18
-2.18364e-18
7.16241e-18
1.65502e-17
2.84998e-17
-4.24226e-18
-2.11724e-17
-3.66813e-17
3.39336e-18
2.22029e-17
-1.04265e-17
-4.87949e-17
-3.3268e-17
-3.94162e-17
-4.13279e-17
-3.58504e-17
-1.93705e-17
-2.76476e-17
-3.27512e-17
5.58214e-18
-3.87402e-17
-1.6983e-17
-7.08802e-18
-7.08651e-18
-7.17772e-18
2.76102e-17
6.5548e-17
7.40974e-17
1.12219e-16
9.01787e-17
1.25404e-16
1.49387e-16
2.05658e-16
1.98321e-16
2.02748e-16
1.87403e-16
1.86006e-16
1.49685e-16
1.54086e-16
1.74837e-16
1.87803e-16
1.57437e-16
1.7569e-16
1.72339e-16
2.03947e-16
1.97479e-16
1.71908e-16
1.43287e-16
1.79072e-16
1.83425e-16
1.82237e-16
1.7788e-16
1.78343e-16
1.61787e-16
1.27012e-16
1.69805e-16
1.38512e-16
1.48805e-16
1.05794e-16
9.64913e-17
1.10331e-16
1.55444e-16
1.85216e-16
1.6735e-16
1.81618e-16
1.43998e-16
1.4862e-16
1.78788e-16
1.66045e-16
1.57185e-16
1.67723e-16
1.59119e-16
1.38487e-16
1.39061e-16
1.44732e-16
1.60853e-16
1.54903e-16
1.75849e-16
1.80794e-16
1.90412e-16
1.3475e-16
1.36606e-16
1.54268e-16
1.44528e-16
1.40363e-16
1.19199e-16
1.62414e-16
1.58228e-16
1.36839e-16
1.83253e-16
1.79852e-16
1.51978e-16
1.56867e-16
1.98993e-16
1.65789e-16
1.65148e-16
1.75595e-16
2.02218e-16
2.09006e-16
2.29032e-16
2.07627e-16
1.90626e-16
1.75779e-16
1.73288e-16
1.87965e-16
1.76199e-16
1.52065e-16
1.15881e-16
1.5725e-16
1.28236e-16
1.17812e-16
1.27419e-16
1.16199e-16
1.09292e-16
9.61296e-17
7.70022e-17
5.56262e-17
7.0484e-17
5.41792e-17
6.14827e-17
6.21159e-17
8.10816e-17
4.31393e-17
6.32828e-17
1.99712e-17
5.17985e-17
6.04658e-17
4.89337e-17
2.71125e-17
6.77097e-18
-1.80316e-17
1.81294e-17
-4.00481e-18
-2.64984e-17
-7.13577e-17
-2.89903e-17
-1.18318e-16
-1.05741e-16
-7.2151e-17
-5.90868e-17
7.11399e-17
1.04262e-16
1.02031e-16
7.16066e-17
2.92206e-17
6.70548e-17
5.0257e-17
6.34815e-17
8.53298e-17
8.74114e-17
1.53852e-16
1.09771e-16
8.12825e-17
6.58263e-17
7.15733e-17
1.02757e-16
1.06348e-16
1.94922e-16
1.75078e-16
1.66071e-16
1.08248e-16
1.61343e-16
1.10385e-16
9.25576e-17
1.29093e-16
8.91468e-17
3.99825e-17
1.89806e-17
-3.50803e-17
-1.73631e-17
5.78698e-18
-2.2373e-17
-3.75266e-17
-2.27624e-17
-4.04852e-17
-3.28707e-17
-3.06219e-17
1.54883e-18
2.69247e-17
8.50592e-17
6.8502e-17
3.20254e-17
-3.61679e-18
2.46965e-17
-4.11456e-17
-2.15247e-17
3.00291e-18
-1.04147e-17
1.04383e-17
-3.20541e-17
-1.15517e-17
-6.99065e-17
-4.89672e-17
-2.10455e-17
-1.82216e-17
-1.02892e-17
7.15713e-18
3.04173e-17
3.1524e-17
3.32074e-17
6.98634e-17
4.94443e-17
1.91479e-17
1.5879e-17
3.02588e-17
1.39785e-17
3.99944e-17
3.18634e-17
1.76473e-17
1.28962e-17
1.46291e-17
2.38374e-17
2.35133e-17
4.7742e-18
-2.13532e-17
-4.79625e-17
-1.16357e-17
-2.08749e-17
5.99267e-18
1.12224e-17
8.1105e-19
5.52849e-19
4.39206e-18
)
;

boundaryField
{
    bottomWall
    {
        type            calculated;
        value           uniform 0;
    }
    topWall
    {
        type            calculated;
        value           uniform 0;
    }
    sides1_half0
    {
        type            empty;
        value           nonuniform 0();
    }
    sides1_half1
    {
        type            empty;
        value           nonuniform 0();
    }
    sides2_half0
    {
        type            empty;
        value           nonuniform 0();
    }
    sides2_half1
    {
        type            empty;
        value           nonuniform 0();
    }
    inout1_half0
    {
        type            cyclic;
        value           nonuniform List<scalar> 
300
(
7.13252e-09
2.18398e-08
3.72297e-08
5.33268e-08
7.01567e-08
8.77456e-08
1.06121e-07
1.25311e-07
1.45344e-07
1.66251e-07
1.88062e-07
2.1081e-07
2.34527e-07
2.59248e-07
2.85008e-07
3.11844e-07
3.39792e-07
3.68891e-07
3.99182e-07
4.30706e-07
4.63504e-07
4.97621e-07
5.33102e-07
5.69992e-07
6.0834e-07
6.48194e-07
6.89605e-07
7.32623e-07
7.77301e-07
8.23694e-07
8.71856e-07
9.21842e-07
9.73711e-07
1.02752e-06
1.08332e-06
1.14118e-06
1.20116e-06
1.26331e-06
1.32769e-06
1.39436e-06
1.46338e-06
1.5348e-06
1.60868e-06
1.68507e-06
1.76402e-06
1.84558e-06
1.92979e-06
2.01669e-06
2.10633e-06
2.19873e-06
2.29393e-06
2.39195e-06
2.49282e-06
2.59654e-06
2.70315e-06
2.81264e-06
2.92503e-06
3.04032e-06
3.15851e-06
3.27961e-06
3.40362e-06
3.53053e-06
3.66034e-06
3.79306e-06
3.92868e-06
4.06721e-06
4.20864e-06
4.35299e-06
4.50026e-06
4.65046e-06
4.8036e-06
4.95971e-06
5.11879e-06
5.28087e-06
5.44598e-06
5.61414e-06
5.78538e-06
5.95975e-06
6.13727e-06
6.31804e-06
6.5022e-06
6.68981e-06
6.88092e-06
7.07555e-06
7.27377e-06
7.47561e-06
7.68112e-06
7.89035e-06
8.10335e-06
8.32017e-06
8.54087e-06
8.7655e-06
8.99412e-06
9.22679e-06
9.46358e-06
9.70454e-06
9.94975e-06
1.01993e-05
1.04532e-05
1.07115e-05
1.09744e-05
1.12419e-05
1.1514e-05
1.17909e-05
1.20727e-05
1.23593e-05
1.2651e-05
1.29478e-05
1.32497e-05
1.3557e-05
1.38696e-05
1.41876e-05
1.45113e-05
1.48406e-05
1.51756e-05
1.55165e-05
1.58634e-05
1.62163e-05
1.65755e-05
1.69409e-05
1.73128e-05
1.76912e-05
1.80762e-05
1.8468e-05
1.88667e-05
1.92724e-05
1.96852e-05
2.01054e-05
2.05329e-05
2.09679e-05
2.14107e-05
2.18612e-05
2.23197e-05
2.27863e-05
2.32612e-05
2.37444e-05
2.42363e-05
2.47368e-05
2.52461e-05
2.57645e-05
2.62921e-05
2.68291e-05
2.73755e-05
2.79317e-05
2.84978e-05
2.90738e-05
2.96602e-05
3.02569e-05
3.08642e-05
3.14824e-05
3.21115e-05
3.27518e-05
3.34035e-05
3.40668e-05
3.47419e-05
3.5429e-05
3.61284e-05
3.68402e-05
3.75647e-05
3.83021e-05
3.90526e-05
3.98165e-05
4.0594e-05
4.13853e-05
4.21907e-05
4.30105e-05
4.38449e-05
4.46942e-05
4.55586e-05
4.64384e-05
4.73339e-05
4.82454e-05
4.9173e-05
5.01172e-05
5.10783e-05
5.20564e-05
5.3052e-05
5.40653e-05
5.50967e-05
5.61464e-05
5.72149e-05
5.83023e-05
5.94091e-05
6.05356e-05
6.16822e-05
6.28491e-05
6.40368e-05
6.52457e-05
6.6476e-05
6.77282e-05
6.90027e-05
7.02998e-05
7.16199e-05
7.29635e-05
7.43309e-05
7.57226e-05
7.7139e-05
7.85805e-05
8.00476e-05
8.15407e-05
8.30602e-05
8.46066e-05
8.61804e-05
8.77821e-05
8.9412e-05
9.10708e-05
9.27589e-05
9.44768e-05
9.6225e-05
9.8004e-05
9.98144e-05
0.000101657
0.000103531
0.000105439
0.00010738
0.000109355
0.000111365
0.00011341
0.00011549
0.000117607
0.00011976
0.000121951
0.000124179
0.000126446
0.000128751
0.000131095
0.000133478
0.000135902
0.000138367
0.000140874
0.000143423
0.000146016
0.000148654
0.000151337
0.000154066
0.000156841
0.000159663
0.000162534
0.000165453
0.000168421
0.00017144
0.00017451
0.000177631
0.000180805
0.000184033
0.000187314
0.00019065
0.000194042
0.00019749
0.000200995
0.000204558
0.00020818
0.000211861
0.000215603
0.000219406
0.000223271
0.000227199
0.00023119
0.000235246
0.000239367
0.000243554
0.000247808
0.000252129
0.000256519
0.000260978
0.000265507
0.000270106
0.000274777
0.000279519
0.000284335
0.000289224
0.000294188
0.000299226
0.000304339
0.000309529
0.000314795
0.000320139
0.000325561
0.00033106
0.000336639
0.000342296
0.000348033
0.00035385
0.000359747
0.000365724
0.000371781
0.000377919
0.000384138
0.000390437
0.000396816
0.000403276
0.000409815
0.000416433
0.00042313
0.000429904
0.000436756
0.000443683
0.000450685
0.00045776
0.000464907
)
;
    }
    inout1_half1
    {
        type            cyclic;
        value           nonuniform List<scalar> 
300
(
-7.13252e-09
-2.18398e-08
-3.72297e-08
-5.33268e-08
-7.01567e-08
-8.77456e-08
-1.06121e-07
-1.25311e-07
-1.45344e-07
-1.66251e-07
-1.88062e-07
-2.1081e-07
-2.34527e-07
-2.59248e-07
-2.85008e-07
-3.11844e-07
-3.39792e-07
-3.68891e-07
-3.99182e-07
-4.30706e-07
-4.63504e-07
-4.97621e-07
-5.33102e-07
-5.69992e-07
-6.0834e-07
-6.48194e-07
-6.89605e-07
-7.32623e-07
-7.77301e-07
-8.23694e-07
-8.71856e-07
-9.21842e-07
-9.73711e-07
-1.02752e-06
-1.08332e-06
-1.14118e-06
-1.20116e-06
-1.26331e-06
-1.32769e-06
-1.39436e-06
-1.46338e-06
-1.5348e-06
-1.60868e-06
-1.68507e-06
-1.76402e-06
-1.84558e-06
-1.92979e-06
-2.01669e-06
-2.10633e-06
-2.19873e-06
-2.29393e-06
-2.39195e-06
-2.49282e-06
-2.59654e-06
-2.70315e-06
-2.81264e-06
-2.92503e-06
-3.04032e-06
-3.15851e-06
-3.27961e-06
-3.40362e-06
-3.53053e-06
-3.66034e-06
-3.79306e-06
-3.92868e-06
-4.06721e-06
-4.20864e-06
-4.35299e-06
-4.50026e-06
-4.65046e-06
-4.8036e-06
-4.95971e-06
-5.11879e-06
-5.28087e-06
-5.44598e-06
-5.61414e-06
-5.78538e-06
-5.95975e-06
-6.13727e-06
-6.31804e-06
-6.5022e-06
-6.68981e-06
-6.88092e-06
-7.07555e-06
-7.27377e-06
-7.47561e-06
-7.68112e-06
-7.89035e-06
-8.10335e-06
-8.32017e-06
-8.54087e-06
-8.7655e-06
-8.99412e-06
-9.22679e-06
-9.46358e-06
-9.70454e-06
-9.94975e-06
-1.01993e-05
-1.04532e-05
-1.07115e-05
-1.09744e-05
-1.12419e-05
-1.1514e-05
-1.17909e-05
-1.20727e-05
-1.23593e-05
-1.2651e-05
-1.29478e-05
-1.32497e-05
-1.3557e-05
-1.38696e-05
-1.41876e-05
-1.45113e-05
-1.48406e-05
-1.51756e-05
-1.55165e-05
-1.58634e-05
-1.62163e-05
-1.65755e-05
-1.69409e-05
-1.73128e-05
-1.76912e-05
-1.80762e-05
-1.8468e-05
-1.88667e-05
-1.92724e-05
-1.96852e-05
-2.01054e-05
-2.05329e-05
-2.09679e-05
-2.14107e-05
-2.18612e-05
-2.23197e-05
-2.27863e-05
-2.32612e-05
-2.37444e-05
-2.42363e-05
-2.47368e-05
-2.52461e-05
-2.57645e-05
-2.62921e-05
-2.68291e-05
-2.73755e-05
-2.79317e-05
-2.84978e-05
-2.90738e-05
-2.96602e-05
-3.02569e-05
-3.08642e-05
-3.14824e-05
-3.21115e-05
-3.27518e-05
-3.34035e-05
-3.40668e-05
-3.47419e-05
-3.5429e-05
-3.61284e-05
-3.68402e-05
-3.75647e-05
-3.83021e-05
-3.90526e-05
-3.98165e-05
-4.0594e-05
-4.13853e-05
-4.21907e-05
-4.30105e-05
-4.38449e-05
-4.46942e-05
-4.55586e-05
-4.64384e-05
-4.73339e-05
-4.82454e-05
-4.9173e-05
-5.01172e-05
-5.10783e-05
-5.20564e-05
-5.3052e-05
-5.40653e-05
-5.50967e-05
-5.61464e-05
-5.72149e-05
-5.83023e-05
-5.94091e-05
-6.05356e-05
-6.16822e-05
-6.28491e-05
-6.40368e-05
-6.52457e-05
-6.6476e-05
-6.77282e-05
-6.90027e-05
-7.02998e-05
-7.16199e-05
-7.29635e-05
-7.43309e-05
-7.57226e-05
-7.7139e-05
-7.85805e-05
-8.00476e-05
-8.15407e-05
-8.30602e-05
-8.46066e-05
-8.61804e-05
-8.77821e-05
-8.9412e-05
-9.10708e-05
-9.27589e-05
-9.44768e-05
-9.6225e-05
-9.8004e-05
-9.98144e-05
-0.000101657
-0.000103531
-0.000105439
-0.00010738
-0.000109355
-0.000111365
-0.00011341
-0.00011549
-0.000117607
-0.00011976
-0.000121951
-0.000124179
-0.000126446
-0.000128751
-0.000131095
-0.000133478
-0.000135902
-0.000138367
-0.000140874
-0.000143423
-0.000146016
-0.000148654
-0.000151337
-0.000154066
-0.000156841
-0.000159663
-0.000162534
-0.000165453
-0.000168421
-0.00017144
-0.00017451
-0.000177631
-0.000180805
-0.000184033
-0.000187314
-0.00019065
-0.000194042
-0.00019749
-0.000200995
-0.000204558
-0.00020818
-0.000211861
-0.000215603
-0.000219406
-0.000223271
-0.000227199
-0.00023119
-0.000235246
-0.000239367
-0.000243554
-0.000247808
-0.000252129
-0.000256519
-0.000260978
-0.000265507
-0.000270106
-0.000274777
-0.000279519
-0.000284335
-0.000289224
-0.000294188
-0.000299226
-0.000304339
-0.000309529
-0.000314795
-0.000320139
-0.000325561
-0.00033106
-0.000336639
-0.000342296
-0.000348033
-0.00035385
-0.000359747
-0.000365724
-0.000371781
-0.000377919
-0.000384138
-0.000390437
-0.000396816
-0.000403276
-0.000409815
-0.000416433
-0.00042313
-0.000429904
-0.000436756
-0.000443683
-0.000450685
-0.00045776
-0.000464907
)
;
    }
    inout2_half0
    {
        type            cyclic;
        value           nonuniform List<scalar> 
300
(
0.000464907
0.00045776
0.000450685
0.000443683
0.000436756
0.000429904
0.00042313
0.000416433
0.000409815
0.000403276
0.000396816
0.000390437
0.000384138
0.000377919
0.000371781
0.000365724
0.000359747
0.00035385
0.000348033
0.000342296
0.000336639
0.00033106
0.000325561
0.000320139
0.000314796
0.000309529
0.000304339
0.000299226
0.000294188
0.000289224
0.000284335
0.00027952
0.000274777
0.000270106
0.000265507
0.000260978
0.000256519
0.000252129
0.000247808
0.000243554
0.000239367
0.000235246
0.00023119
0.000227199
0.000223271
0.000219406
0.000215603
0.000211861
0.00020818
0.000204558
0.000200995
0.000197489
0.000194042
0.00019065
0.000187314
0.000184033
0.000180805
0.000177631
0.00017451
0.00017144
0.000168421
0.000165453
0.000162534
0.000159663
0.000156841
0.000154066
0.000151337
0.000148654
0.000146016
0.000143423
0.000140874
0.000138367
0.000135902
0.000133478
0.000131095
0.000128751
0.000126446
0.000124179
0.000121951
0.00011976
0.000117607
0.00011549
0.00011341
0.000111365
0.000109355
0.00010738
0.000105439
0.000103531
0.000101657
9.98144e-05
9.8004e-05
9.6225e-05
9.44768e-05
9.27589e-05
9.10708e-05
8.9412e-05
8.77821e-05
8.61804e-05
8.46066e-05
8.30602e-05
8.15407e-05
8.00476e-05
7.85806e-05
7.7139e-05
7.57226e-05
7.43309e-05
7.29635e-05
7.16199e-05
7.02997e-05
6.90027e-05
6.77282e-05
6.6476e-05
6.52456e-05
6.40368e-05
6.28491e-05
6.16822e-05
6.05356e-05
5.94091e-05
5.83023e-05
5.72148e-05
5.61464e-05
5.50967e-05
5.40653e-05
5.3052e-05
5.20565e-05
5.10783e-05
5.01173e-05
4.9173e-05
4.82453e-05
4.73339e-05
4.64384e-05
4.55586e-05
4.46942e-05
4.38449e-05
4.30105e-05
4.21907e-05
4.13853e-05
4.0594e-05
3.98165e-05
3.90526e-05
3.83021e-05
3.75647e-05
3.68402e-05
3.61284e-05
3.5429e-05
3.47419e-05
3.40668e-05
3.34035e-05
3.27518e-05
3.21115e-05
3.14824e-05
3.08642e-05
3.02569e-05
2.96602e-05
2.90738e-05
2.84977e-05
2.79317e-05
2.73756e-05
2.68291e-05
2.62921e-05
2.57646e-05
2.52461e-05
2.47368e-05
2.42363e-05
2.37444e-05
2.32612e-05
2.27863e-05
2.23197e-05
2.18612e-05
2.14107e-05
2.09679e-05
2.05329e-05
2.01054e-05
1.96852e-05
1.92724e-05
1.88667e-05
1.8468e-05
1.80762e-05
1.76912e-05
1.73128e-05
1.69409e-05
1.65755e-05
1.62163e-05
1.58634e-05
1.55165e-05
1.51756e-05
1.48406e-05
1.45113e-05
1.41876e-05
1.38696e-05
1.3557e-05
1.32497e-05
1.29478e-05
1.2651e-05
1.23593e-05
1.20727e-05
1.17909e-05
1.1514e-05
1.12419e-05
1.09744e-05
1.07115e-05
1.04532e-05
1.01993e-05
9.94975e-06
9.70454e-06
9.46359e-06
9.22679e-06
8.99413e-06
8.76549e-06
8.54086e-06
8.32017e-06
8.10335e-06
7.89035e-06
7.68112e-06
7.47562e-06
7.27377e-06
7.07555e-06
6.88092e-06
6.68981e-06
6.5022e-06
6.31804e-06
6.13727e-06
5.95974e-06
5.78539e-06
5.61413e-06
5.44598e-06
5.28088e-06
5.11879e-06
4.9597e-06
4.8036e-06
4.65046e-06
4.50026e-06
4.35299e-06
4.20865e-06
4.06721e-06
3.92868e-06
3.79306e-06
3.66034e-06
3.53053e-06
3.40362e-06
3.27961e-06
3.15852e-06
3.04032e-06
2.92503e-06
2.81264e-06
2.70315e-06
2.59654e-06
2.49282e-06
2.39195e-06
2.29393e-06
2.19873e-06
2.10633e-06
2.01669e-06
1.92979e-06
1.84558e-06
1.76402e-06
1.68507e-06
1.60868e-06
1.5348e-06
1.46337e-06
1.39436e-06
1.32769e-06
1.26331e-06
1.20116e-06
1.14118e-06
1.08332e-06
1.02752e-06
9.73712e-07
9.21844e-07
8.71853e-07
8.23695e-07
7.77301e-07
7.32623e-07
6.89607e-07
6.48194e-07
6.08338e-07
5.69993e-07
5.33101e-07
4.97622e-07
4.63503e-07
4.30707e-07
3.99182e-07
3.68891e-07
3.3979e-07
3.11845e-07
2.85007e-07
2.59248e-07
2.34528e-07
2.1081e-07
1.88062e-07
1.6625e-07
1.45344e-07
1.25311e-07
1.06121e-07
8.77457e-08
7.01567e-08
5.33266e-08
3.72298e-08
2.18399e-08
7.13252e-09
)
;
    }
    inout2_half1
    {
        type            cyclic;
        value           nonuniform List<scalar> 
300
(
-0.000464907
-0.00045776
-0.000450685
-0.000443683
-0.000436756
-0.000429904
-0.00042313
-0.000416433
-0.000409815
-0.000403276
-0.000396816
-0.000390437
-0.000384138
-0.000377919
-0.000371781
-0.000365724
-0.000359747
-0.00035385
-0.000348033
-0.000342296
-0.000336639
-0.00033106
-0.000325561
-0.000320139
-0.000314796
-0.000309529
-0.000304339
-0.000299226
-0.000294188
-0.000289224
-0.000284335
-0.00027952
-0.000274777
-0.000270106
-0.000265507
-0.000260978
-0.000256519
-0.000252129
-0.000247808
-0.000243554
-0.000239367
-0.000235246
-0.00023119
-0.000227199
-0.000223271
-0.000219406
-0.000215603
-0.000211861
-0.00020818
-0.000204558
-0.000200995
-0.000197489
-0.000194042
-0.00019065
-0.000187314
-0.000184033
-0.000180805
-0.000177631
-0.00017451
-0.00017144
-0.000168421
-0.000165453
-0.000162534
-0.000159663
-0.000156841
-0.000154066
-0.000151337
-0.000148654
-0.000146016
-0.000143423
-0.000140874
-0.000138367
-0.000135902
-0.000133478
-0.000131095
-0.000128751
-0.000126446
-0.000124179
-0.000121951
-0.00011976
-0.000117607
-0.00011549
-0.00011341
-0.000111365
-0.000109355
-0.00010738
-0.000105439
-0.000103531
-0.000101657
-9.98144e-05
-9.8004e-05
-9.6225e-05
-9.44768e-05
-9.27589e-05
-9.10708e-05
-8.9412e-05
-8.77821e-05
-8.61804e-05
-8.46066e-05
-8.30602e-05
-8.15407e-05
-8.00476e-05
-7.85806e-05
-7.7139e-05
-7.57226e-05
-7.43309e-05
-7.29635e-05
-7.16199e-05
-7.02997e-05
-6.90027e-05
-6.77282e-05
-6.6476e-05
-6.52456e-05
-6.40368e-05
-6.28491e-05
-6.16822e-05
-6.05356e-05
-5.94091e-05
-5.83023e-05
-5.72148e-05
-5.61464e-05
-5.50967e-05
-5.40653e-05
-5.3052e-05
-5.20565e-05
-5.10783e-05
-5.01173e-05
-4.9173e-05
-4.82453e-05
-4.73339e-05
-4.64384e-05
-4.55586e-05
-4.46942e-05
-4.38449e-05
-4.30105e-05
-4.21907e-05
-4.13853e-05
-4.0594e-05
-3.98165e-05
-3.90526e-05
-3.83021e-05
-3.75647e-05
-3.68402e-05
-3.61284e-05
-3.5429e-05
-3.47419e-05
-3.40668e-05
-3.34035e-05
-3.27518e-05
-3.21115e-05
-3.14824e-05
-3.08642e-05
-3.02569e-05
-2.96602e-05
-2.90738e-05
-2.84977e-05
-2.79317e-05
-2.73756e-05
-2.68291e-05
-2.62921e-05
-2.57646e-05
-2.52461e-05
-2.47368e-05
-2.42363e-05
-2.37444e-05
-2.32612e-05
-2.27863e-05
-2.23197e-05
-2.18612e-05
-2.14107e-05
-2.09679e-05
-2.05329e-05
-2.01054e-05
-1.96852e-05
-1.92724e-05
-1.88667e-05
-1.8468e-05
-1.80762e-05
-1.76912e-05
-1.73128e-05
-1.69409e-05
-1.65755e-05
-1.62163e-05
-1.58634e-05
-1.55165e-05
-1.51756e-05
-1.48406e-05
-1.45113e-05
-1.41876e-05
-1.38696e-05
-1.3557e-05
-1.32497e-05
-1.29478e-05
-1.2651e-05
-1.23593e-05
-1.20727e-05
-1.17909e-05
-1.1514e-05
-1.12419e-05
-1.09744e-05
-1.07115e-05
-1.04532e-05
-1.01993e-05
-9.94975e-06
-9.70454e-06
-9.46359e-06
-9.22679e-06
-8.99413e-06
-8.76549e-06
-8.54086e-06
-8.32017e-06
-8.10335e-06
-7.89035e-06
-7.68112e-06
-7.47562e-06
-7.27377e-06
-7.07555e-06
-6.88092e-06
-6.68981e-06
-6.5022e-06
-6.31804e-06
-6.13727e-06
-5.95974e-06
-5.78539e-06
-5.61413e-06
-5.44598e-06
-5.28088e-06
-5.11879e-06
-4.9597e-06
-4.8036e-06
-4.65046e-06
-4.50026e-06
-4.35299e-06
-4.20865e-06
-4.06721e-06
-3.92868e-06
-3.79306e-06
-3.66034e-06
-3.53053e-06
-3.40362e-06
-3.27961e-06
-3.15852e-06
-3.04032e-06
-2.92503e-06
-2.81264e-06
-2.70315e-06
-2.59654e-06
-2.49282e-06
-2.39195e-06
-2.29393e-06
-2.19873e-06
-2.10633e-06
-2.01669e-06
-1.92979e-06
-1.84558e-06
-1.76402e-06
-1.68507e-06
-1.60868e-06
-1.5348e-06
-1.46337e-06
-1.39436e-06
-1.32769e-06
-1.26331e-06
-1.20116e-06
-1.14118e-06
-1.08332e-06
-1.02752e-06
-9.73712e-07
-9.21844e-07
-8.71853e-07
-8.23695e-07
-7.77301e-07
-7.32623e-07
-6.89607e-07
-6.48194e-07
-6.08338e-07
-5.69993e-07
-5.33101e-07
-4.97622e-07
-4.63503e-07
-4.30707e-07
-3.99182e-07
-3.68891e-07
-3.3979e-07
-3.11845e-07
-2.85007e-07
-2.59248e-07
-2.34528e-07
-2.1081e-07
-1.88062e-07
-1.6625e-07
-1.45344e-07
-1.25311e-07
-1.06121e-07
-8.77457e-08
-7.01567e-08
-5.33266e-08
-3.72298e-08
-2.18399e-08
-7.13252e-09
)
;
    }
}


// ************************************************************************* //
