/*--------------------------------*- C++ -*----------------------------------*\
  =========                 |
  \\      /  F ield         | OpenFOAM: The Open Source CFD Toolbox
   \\    /   O peration     | Website:  https://openfoam.org
    \\  /    A nd           | Version:  7
     \\/     M anipulation  |
\*---------------------------------------------------------------------------*/
FoamFile
{
    version     2.0;
    format      ascii;
    class       volVectorField;
    location    "99500";
    object      U;
}
// * * * * * * * * * * * * * * * * * * * * * * * * * * * * * * * * * * * * * //

dimensions      [0 1 -1 0 0 0 0];

internalField   nonuniform List<vector> 
600
(
(0.000231037 2.78142e-15 0)
(0.000696624 2.72049e-14 0)
(0.00116936 1.84708e-14 0)
(0.00164936 2.03951e-14 0)
(0.00213674 2.05321e-14 0)
(0.00263159 2.08936e-14 0)
(0.00313404 2.0814e-14 0)
(0.00364421 2.17969e-14 0)
(0.0041622 2.08582e-14 0)
(0.00468814 2.17643e-14 0)
(0.00522215 2.24588e-14 0)
(0.00576435 2.17068e-14 0)
(0.00631486 1.87677e-14 0)
(0.00687381 1.8641e-14 0)
(0.00744132 1.84768e-14 0)
(0.00801753 1.8513e-14 0)
(0.00860255 1.67481e-14 0)
(0.00919653 1.50886e-14 0)
(0.00979959 1.3361e-14 0)
(0.0104119 1.32071e-14 0)
(0.0110335 1.49424e-14 0)
(0.0116646 1.53372e-14 0)
(0.0123053 1.54725e-14 0)
(0.0129557 1.57238e-14 0)
(0.013616 1.42728e-14 0)
(0.0142863 1.61124e-14 0)
(0.0149667 1.40994e-14 0)
(0.0156573 1.39469e-14 0)
(0.0163582 1.47914e-14 0)
(0.0170696 1.31741e-14 0)
(0.0177915 1.32488e-14 0)
(0.0185241 1.33566e-14 0)
(0.0192673 1.41436e-14 0)
(0.0200213 1.54603e-14 0)
(0.020786 1.56524e-14 0)
(0.0215615 1.86797e-14 0)
(0.0223478 2.02414e-14 0)
(0.0231449 2.27999e-14 0)
(0.0239526 2.14182e-14 0)
(0.024771 2.00406e-14 0)
(0.0255998 1.99168e-14 0)
(0.0264388 1.96444e-14 0)
(0.0272879 1.64935e-14 0)
(0.0281469 1.63438e-14 0)
(0.0290153 1.82992e-14 0)
(0.0298928 1.55096e-14 0)
(0.030779 1.59958e-14 0)
(0.0316735 1.87682e-14 0)
(0.0325757 1.77427e-14 0)
(0.033485 1.87604e-14 0)
(0.0344009 1.96071e-14 0)
(0.0353226 1.83235e-14 0)
(0.0362495 2.12786e-14 0)
(0.0371808 2.21582e-14 0)
(0.0381157 1.8996e-14 0)
(0.0390534 1.74207e-14 0)
(0.0399932 1.45192e-14 0)
(0.0409342 1.1304e-14 0)
(0.0418756 1.14572e-14 0)
(0.0428166 1.12461e-14 0)
(0.0437564 1.32995e-14 0)
(0.0446942 1.54354e-14 0)
(0.0456293 1.62991e-14 0)
(0.0465611 1.65991e-14 0)
(0.0474888 1.66322e-14 0)
(0.0484119 1.60429e-14 0)
(0.0493297 1.43209e-14 0)
(0.0502418 8.36485e-15 0)
(0.0511477 7.83749e-15 0)
(0.0520469 5.92054e-15 0)
(0.0529392 7.42576e-15 0)
(0.0538242 7.47429e-15 0)
(0.0547016 5.53501e-15 0)
(0.0555711 6.28741e-15 0)
(0.0564327 6.15939e-15 0)
(0.057286 8.2774e-15 0)
(0.0581311 7.372e-15 0)
(0.0589679 5.29806e-15 0)
(0.0597962 3.29168e-15 0)
(0.0606167 1.99517e-15 0)
(0.0614301 2.51208e-15 0)
(0.0622366 6.23106e-15 0)
(0.0630361 6.34828e-15 0)
(0.0638285 5.02793e-15 0)
(0.0646137 7.12469e-15 0)
(0.0653917 2.84049e-15 0)
(0.0661625 5.29324e-15 0)
(0.0669259 6.81184e-15 0)
(0.0676821 7.5392e-15 0)
(0.0684309 8.04733e-15 0)
(0.0691725 9.08655e-15 0)
(0.0699067 5.0102e-15 0)
(0.0706337 3.83349e-15 0)
(0.0713535 4.67095e-15 0)
(0.0720661 3.20471e-15 0)
(0.0727715 4.38471e-15 0)
(0.0734699 5.01309e-15 0)
(0.0741613 4.7618e-15 0)
(0.0748458 3.60246e-15 0)
(0.0755234 2.78e-15 0)
(0.0761942 1.4336e-15 0)
(0.0768583 1.79666e-15 0)
(0.0775158 -8.18798e-16 0)
(0.0781668 -1.24497e-15 0)
(0.0788114 8.84902e-16 0)
(0.0794496 1.76376e-15 0)
(0.0800817 2.68901e-15 0)
(0.0807076 3.41592e-15 0)
(0.0813275 4.25997e-15 0)
(0.0819415 4.94718e-15 0)
(0.0825497 5.50276e-15 0)
(0.0831521 4.71816e-15 0)
(0.083749 4.15836e-15 0)
(0.0843403 3.80437e-15 0)
(0.0849263 3.46154e-15 0)
(0.0855069 3.82583e-15 0)
(0.0860824 2.26566e-15 0)
(0.0866527 1.78688e-15 0)
(0.0872181 2.32594e-15 0)
(0.0877786 1.2322e-15 0)
(0.0883343 1.39175e-15 0)
(0.0888853 1.61499e-15 0)
(0.0894317 1.97474e-15 0)
(0.0899737 -1.73955e-17 0)
(0.0905112 -3.86641e-16 0)
(0.0910444 -1.43701e-15 0)
(0.0915734 -2.37235e-15 0)
(0.0920982 -3.16037e-15 0)
(0.0926191 -3.43653e-15 0)
(0.0931359 -4.66772e-15 0)
(0.093649 -3.56719e-15 0)
(0.0941582 -3.80667e-15 0)
(0.0946637 -3.07876e-15 0)
(0.0951657 -4.64626e-15 0)
(0.0956641 -4.36807e-15 0)
(0.096159 -3.78051e-15 0)
(0.0966506 -3.38288e-15 0)
(0.0971388 -2.6744e-15 0)
(0.0976239 -3.25955e-15 0)
(0.0981058 -3.0095e-15 0)
(0.0985846 -2.68095e-15 0)
(0.0990604 -4.39776e-15 0)
(0.0995332 -4.12017e-15 0)
(0.100003 -3.19313e-15 0)
(0.10047 -4.4203e-15 0)
(0.100935 -3.75057e-15 0)
(0.101396 -4.72145e-15 0)
(0.101856 -4.86749e-15 0)
(0.102312 -2.97068e-15 0)
(0.102766 -3.72651e-15 0)
(0.103218 -3.57472e-15 0)
(0.103667 -3.21701e-15 0)
(0.104114 -4.33298e-15 0)
(0.104558 -6.26522e-15 0)
(0.105001 -6.31745e-15 0)
(0.105441 -5.91409e-15 0)
(0.105879 -5.13504e-15 0)
(0.106315 -4.24398e-15 0)
(0.106748 -4.24747e-15 0)
(0.10718 -5.43823e-15 0)
(0.10761 -4.13217e-15 0)
(0.108038 -5.25436e-15 0)
(0.108464 -3.52197e-15 0)
(0.108889 -4.93822e-15 0)
(0.109311 -5.77951e-15 0)
(0.109732 -3.81984e-15 0)
(0.110151 -3.49011e-15 0)
(0.110569 -2.61915e-15 0)
(0.110985 -2.48376e-15 0)
(0.111399 -4.17334e-16 0)
(0.111812 -1.7466e-15 0)
(0.112223 4.34285e-16 0)
(0.112632 1.35691e-16 0)
(0.113041 4.85474e-16 0)
(0.113447 1.33383e-16 0)
(0.113853 1.25844e-15 0)
(0.114257 2.93737e-16 0)
(0.11466 1.47882e-16 0)
(0.115061 -1.1956e-15 0)
(0.115461 -1.4402e-15 0)
(0.11586 -5.32024e-16 0)
(0.116258 -1.16786e-15 0)
(0.116654 -1.73431e-15 0)
(0.117049 -1.02273e-15 0)
(0.117443 2.25831e-15 0)
(0.117836 3.37184e-15 0)
(0.118228 3.71107e-15 0)
(0.118619 3.53904e-15 0)
(0.119008 2.76556e-15 0)
(0.119397 3.71991e-15 0)
(0.119785 5.16966e-15 0)
(0.120171 5.45283e-15 0)
(0.120557 5.91664e-15 0)
(0.120941 4.97379e-15 0)
(0.121325 3.23259e-15 0)
(0.121707 2.89046e-15 0)
(0.122089 3.2129e-15 0)
(0.122469 4.95092e-15 0)
(0.122849 5.99624e-15 0)
(0.123228 5.23816e-15 0)
(0.123606 7.50952e-15 0)
(0.123983 5.89129e-15 0)
(0.124359 6.2731e-15 0)
(0.124734 5.7179e-15 0)
(0.125108 7.38683e-15 0)
(0.125482 7.48225e-15 0)
(0.125854 7.14899e-15 0)
(0.126226 7.7222e-15 0)
(0.126596 7.08299e-15 0)
(0.126966 5.66639e-15 0)
(0.127335 6.38449e-15 0)
(0.127703 5.71357e-15 0)
(0.128071 6.5997e-15 0)
(0.128437 6.639e-15 0)
(0.128802 7.2842e-15 0)
(0.129167 8.1438e-15 0)
(0.12953 6.55613e-15 0)
(0.129892 6.48573e-15 0)
(0.130254 5.03519e-15 0)
(0.130614 4.74854e-15 0)
(0.130972 4.52834e-15 0)
(0.13133 4.71777e-15 0)
(0.131685 4.51482e-15 0)
(0.132039 4.73029e-15 0)
(0.132391 1.97948e-15 0)
(0.132741 3.33552e-15 0)
(0.133089 4.4749e-15 0)
(0.133435 5.87608e-15 0)
(0.133779 5.86995e-15 0)
(0.13412 6.48422e-15 0)
(0.134461 8.92041e-15 0)
(0.1348 9.97961e-15 0)
(0.135137 1.16285e-14 0)
(0.135474 1.16117e-14 0)
(0.135808 1.06087e-14 0)
(0.136142 1.01761e-14 0)
(0.136473 9.2349e-15 0)
(0.136803 1.06914e-14 0)
(0.137132 1.26717e-14 0)
(0.137459 1.41253e-14 0)
(0.137784 1.42622e-14 0)
(0.138108 1.27204e-14 0)
(0.13843 1.35221e-14 0)
(0.138749 1.48839e-14 0)
(0.139068 1.48538e-14 0)
(0.139384 1.5457e-14 0)
(0.139698 1.53048e-14 0)
(0.14001 1.45508e-14 0)
(0.14032 1.37686e-14 0)
(0.140628 1.33347e-14 0)
(0.140933 1.39445e-14 0)
(0.141236 1.42071e-14 0)
(0.141537 1.41291e-14 0)
(0.141836 1.25234e-14 0)
(0.142131 1.10493e-14 0)
(0.142425 1.11392e-14 0)
(0.142715 8.96203e-15 0)
(0.143003 1.03275e-14 0)
(0.143287 1.07321e-14 0)
(0.143569 1.06747e-14 0)
(0.143848 1.03117e-14 0)
(0.144123 9.55261e-15 0)
(0.144395 7.30483e-15 0)
(0.144664 7.8145e-15 0)
(0.144929 8.49731e-15 0)
(0.14519 8.57148e-15 0)
(0.145448 8.99956e-15 0)
(0.145702 7.76041e-15 0)
(0.145951 6.10212e-15 0)
(0.146197 4.68714e-15 0)
(0.146438 3.55522e-15 0)
(0.146674 3.01026e-15 0)
(0.146906 3.01897e-15 0)
(0.147133 2.89183e-15 0)
(0.147355 4.14353e-15 0)
(0.147571 4.81154e-15 0)
(0.147782 3.74596e-15 0)
(0.147988 2.80848e-15 0)
(0.148188 4.4808e-15 0)
(0.148382 5.61879e-15 0)
(0.14857 6.02122e-15 0)
(0.148751 5.47105e-15 0)
(0.148926 7.53178e-15 0)
(0.149093 7.29084e-15 0)
(0.149254 5.69134e-15 0)
(0.149407 6.12488e-15 0)
(0.149552 6.92103e-15 0)
(0.14969 4.55927e-15 0)
(0.149819 6.12677e-15 0)
(0.14994 6.60275e-15 0)
(0.150052 8.61186e-15 0)
(0.150154 8.62653e-15 0)
(0.150247 9.30843e-15 0)
(0.15033 1.04086e-14 0)
(0.150402 9.0712e-15 0)
(0.150464 7.87418e-15 0)
(0.150514 6.3719e-15 0)
(0.150553 8.72179e-15 0)
(0.150579 8.07481e-15 0)
(0.150593 1.03384e-14 0)
(0.150593 8.70341e-15 0)
(0.150579 8.57764e-15 0)
(0.150553 8.53777e-15 0)
(0.150514 8.66097e-15 0)
(0.150464 8.46234e-15 0)
(0.150402 9.42944e-15 0)
(0.15033 8.71201e-15 0)
(0.150247 9.28077e-15 0)
(0.150154 1.20314e-14 0)
(0.150052 1.10302e-14 0)
(0.14994 1.16268e-14 0)
(0.149819 1.31931e-14 0)
(0.14969 1.46561e-14 0)
(0.149552 1.63012e-14 0)
(0.149407 1.53069e-14 0)
(0.149254 1.60806e-14 0)
(0.149093 1.60004e-14 0)
(0.148926 1.56867e-14 0)
(0.148751 1.62581e-14 0)
(0.14857 1.62715e-14 0)
(0.148382 1.5776e-14 0)
(0.148188 1.40179e-14 0)
(0.147988 1.29204e-14 0)
(0.147782 1.40013e-14 0)
(0.147571 1.44564e-14 0)
(0.147355 1.27791e-14 0)
(0.147133 1.34025e-14 0)
(0.146906 1.20558e-14 0)
(0.146674 1.33465e-14 0)
(0.146438 1.44228e-14 0)
(0.146197 1.48297e-14 0)
(0.145951 1.44207e-14 0)
(0.145702 1.50175e-14 0)
(0.145448 1.34817e-14 0)
(0.14519 1.26085e-14 0)
(0.144929 1.35674e-14 0)
(0.144664 1.32067e-14 0)
(0.144395 1.27273e-14 0)
(0.144123 1.39936e-14 0)
(0.143848 1.34841e-14 0)
(0.143569 1.38689e-14 0)
(0.143287 1.27074e-14 0)
(0.143003 1.32094e-14 0)
(0.142715 1.19566e-14 0)
(0.142425 1.25469e-14 0)
(0.142131 1.31865e-14 0)
(0.141836 1.24341e-14 0)
(0.141537 1.46459e-14 0)
(0.141236 1.50474e-14 0)
(0.140933 1.5557e-14 0)
(0.140628 1.41415e-14 0)
(0.14032 1.15996e-14 0)
(0.14001 1.12643e-14 0)
(0.139698 1.13628e-14 0)
(0.139384 9.11356e-15 0)
(0.139068 9.3393e-15 0)
(0.138749 9.26151e-15 0)
(0.13843 8.05029e-15 0)
(0.138108 9.72056e-15 0)
(0.137784 7.42066e-15 0)
(0.137459 6.13468e-15 0)
(0.137132 4.83987e-15 0)
(0.136803 5.19672e-15 0)
(0.136473 5.59812e-15 0)
(0.136142 5.37874e-15 0)
(0.135808 5.59168e-15 0)
(0.135474 6.74039e-15 0)
(0.135137 5.80095e-15 0)
(0.1348 3.59026e-15 0)
(0.134461 5.00481e-15 0)
(0.13412 3.76992e-15 0)
(0.133779 3.24701e-15 0)
(0.133435 1.97259e-15 0)
(0.133089 2.20762e-15 0)
(0.132741 1.17614e-15 0)
(0.132391 4.32337e-16 0)
(0.132039 1.24451e-15 0)
(0.131685 -5.81922e-16 0)
(0.13133 4.21106e-17 0)
(0.130972 4.98216e-16 0)
(0.130614 6.62973e-16 0)
(0.130254 4.90188e-16 0)
(0.129892 -5.18207e-16 0)
(0.12953 -1.05052e-15 0)
(0.129167 -9.27435e-16 0)
(0.128802 8.92527e-16 0)
(0.128437 7.63658e-16 0)
(0.128071 -5.78294e-16 0)
(0.127703 -1.90835e-15 0)
(0.127335 -1.829e-15 0)
(0.126966 -3.42372e-15 0)
(0.126596 -2.34229e-15 0)
(0.126226 -1.96184e-15 0)
(0.125854 -9.70678e-16 0)
(0.125482 -1.8788e-15 0)
(0.125108 -1.02336e-15 0)
(0.124734 -3.02714e-17 0)
(0.124359 -2.03431e-15 0)
(0.123983 1.37282e-16 0)
(0.123606 -1.02427e-15 0)
(0.123228 1.58278e-16 0)
(0.122849 8.34383e-16 0)
(0.122469 2.2241e-15 0)
(0.122089 3.25539e-15 0)
(0.121707 5.01499e-15 0)
(0.121325 5.07006e-15 0)
(0.120941 5.55256e-15 0)
(0.120557 6.27891e-15 0)
(0.120171 9.18551e-15 0)
(0.119785 1.13864e-14 0)
(0.119397 1.03122e-14 0)
(0.119008 9.14954e-15 0)
(0.118619 9.3233e-15 0)
(0.118228 8.65065e-15 0)
(0.117836 8.49464e-15 0)
(0.117443 7.92874e-15 0)
(0.117049 9.18993e-15 0)
(0.116654 8.52564e-15 0)
(0.116258 8.60732e-15 0)
(0.11586 8.65009e-15 0)
(0.115461 9.50139e-15 0)
(0.115061 1.04192e-14 0)
(0.11466 9.28131e-15 0)
(0.114257 8.1929e-15 0)
(0.113853 8.44066e-15 0)
(0.113447 9.4039e-15 0)
(0.113041 9.47319e-15 0)
(0.112632 9.75373e-15 0)
(0.112223 9.50618e-15 0)
(0.111812 8.70648e-15 0)
(0.111399 6.1214e-15 0)
(0.110985 7.81511e-15 0)
(0.110569 7.56328e-15 0)
(0.110151 6.91488e-15 0)
(0.109732 7.19772e-15 0)
(0.109311 5.03627e-15 0)
(0.108889 5.89131e-15 0)
(0.108464 5.85503e-15 0)
(0.108038 7.76946e-15 0)
(0.10761 9.16791e-15 0)
(0.10718 7.54293e-15 0)
(0.106748 7.84972e-15 0)
(0.106315 8.04613e-15 0)
(0.105879 7.92392e-15 0)
(0.105441 8.35635e-15 0)
(0.105001 7.33966e-15 0)
(0.104558 8.67289e-15 0)
(0.104114 7.66013e-15 0)
(0.103667 6.83655e-15 0)
(0.103218 6.84043e-15 0)
(0.102766 7.787e-15 0)
(0.102312 6.82232e-15 0)
(0.101856 8.48557e-15 0)
(0.101396 8.34575e-15 0)
(0.100935 8.49664e-15 0)
(0.10047 9.30581e-15 0)
(0.100003 8.16165e-15 0)
(0.0995332 7.3109e-15 0)
(0.0990604 7.38601e-15 0)
(0.0985846 6.56498e-15 0)
(0.0981058 7.10894e-15 0)
(0.0976239 6.60122e-15 0)
(0.0971388 6.89563e-15 0)
(0.0966506 8.90368e-15 0)
(0.096159 7.53845e-15 0)
(0.0956641 7.43294e-15 0)
(0.0951657 8.91e-15 0)
(0.0946637 8.63559e-15 0)
(0.0941582 7.54232e-15 0)
(0.093649 8.71438e-15 0)
(0.0931359 9.20647e-15 0)
(0.0926191 8.62539e-15 0)
(0.0920982 8.07382e-15 0)
(0.0915734 9.07574e-15 0)
(0.0910444 1.07457e-14 0)
(0.0905112 1.09167e-14 0)
(0.0899737 1.13287e-14 0)
(0.0894317 9.40848e-15 0)
(0.0888853 9.20303e-15 0)
(0.0883343 9.25246e-15 0)
(0.0877786 9.14983e-15 0)
(0.0872181 8.78094e-15 0)
(0.0866527 8.49539e-15 0)
(0.0860824 5.9301e-15 0)
(0.0855069 6.53232e-15 0)
(0.0849263 7.81181e-15 0)
(0.0843403 5.64925e-15 0)
(0.083749 6.72982e-15 0)
(0.0831521 6.22272e-15 0)
(0.0825497 6.41143e-15 0)
(0.0819415 5.41728e-15 0)
(0.0813275 4.05791e-15 0)
(0.0807076 3.32926e-15 0)
(0.0800817 3.57824e-15 0)
(0.0794496 2.8392e-15 0)
(0.0788114 1.76154e-15 0)
(0.0781668 3.02152e-15 0)
(0.0775158 4.3431e-15 0)
(0.0768583 3.11671e-15 0)
(0.0761942 2.08633e-15 0)
(0.0755234 2.73233e-15 0)
(0.0748458 7.63102e-16 0)
(0.0741613 2.82833e-15 0)
(0.0734699 1.82403e-15 0)
(0.0727715 2.79239e-15 0)
(0.0720661 7.86957e-16 0)
(0.0713535 -7.34675e-16 0)
(0.0706337 -2.93018e-16 0)
(0.0699067 8.77958e-17 0)
(0.0691725 3.02858e-16 0)
(0.0684309 -1.50253e-15 0)
(0.0676821 -3.51871e-15 0)
(0.0669259 -4.6293e-15 0)
(0.0661625 -5.69038e-15 0)
(0.0653917 -3.91364e-15 0)
(0.0646137 -3.76763e-15 0)
(0.0638285 -8.50254e-16 0)
(0.0630361 4.29036e-15 0)
(0.0622366 4.22535e-15 0)
(0.0614301 4.27566e-15 0)
(0.0606167 2.38281e-15 0)
(0.0597962 3.98569e-15 0)
(0.0589679 2.89941e-15 0)
(0.0581311 1.78037e-15 0)
(0.057286 3.62958e-15 0)
(0.0564327 5.02891e-15 0)
(0.0555711 6.18907e-15 0)
(0.0547016 6.08025e-15 0)
(0.0538242 6.11196e-15 0)
(0.0529392 3.43594e-15 0)
(0.0520469 4.00672e-15 0)
(0.0511477 4.54799e-15 0)
(0.0502418 5.52878e-15 0)
(0.0493297 6.10986e-15 0)
(0.0484119 1.00024e-14 0)
(0.0474888 8.43196e-15 0)
(0.0465611 5.56818e-15 0)
(0.0456293 7.44821e-15 0)
(0.0446942 6.87323e-15 0)
(0.0437564 5.96767e-15 0)
(0.0428166 6.01212e-15 0)
(0.0418756 6.82705e-15 0)
(0.0409342 3.72441e-15 0)
(0.0399932 9.11167e-16 0)
(0.0390534 -8.67864e-16 0)
(0.0381157 6.01455e-16 0)
(0.0371808 8.3684e-17 0)
(0.0362495 -9.71225e-16 0)
(0.0353226 -2.08177e-15 0)
(0.0344009 -1.50008e-15 0)
(0.033485 -1.06311e-15 0)
(0.0325757 -1.33694e-15 0)
(0.0316735 -2.181e-15 0)
(0.030779 -1.44762e-15 0)
(0.0298928 6.61593e-16 0)
(0.0290153 2.01783e-15 0)
(0.0281469 4.52144e-15 0)
(0.0272879 1.11483e-15 0)
(0.0264388 1.43866e-15 0)
(0.0255998 -1.60669e-16 0)
(0.024771 -1.08731e-15 0)
(0.0239526 -6.81839e-16 0)
(0.0231449 -1.41025e-15 0)
(0.0223478 9.80497e-16 0)
(0.0215615 -5.41895e-16 0)
(0.020786 -6.71774e-16 0)
(0.0200213 -1.52349e-15 0)
(0.0192673 -2.49503e-15 0)
(0.0185241 -2.56371e-15 0)
(0.0177915 -2.20757e-15 0)
(0.0170696 -8.12849e-16 0)
(0.0163582 -1.4423e-15 0)
(0.0156573 -1.69309e-16 0)
(0.0149667 1.77653e-15 0)
(0.0142863 2.29506e-15 0)
(0.013616 8.98409e-16 0)
(0.0129557 2.89057e-15 0)
(0.0123053 3.64235e-15 0)
(0.0116646 8.83647e-16 0)
(0.0110335 1.35282e-15 0)
(0.0104119 1.35454e-15 0)
(0.00979958 1.6849e-15 0)
(0.00919653 1.83098e-15 0)
(0.00860255 1.45354e-15 0)
(0.00801753 1.23574e-15 0)
(0.00744132 2.50721e-16 0)
(0.00687381 -5.30502e-16 0)
(0.00631486 2.3689e-15 0)
(0.00576435 1.84079e-15 0)
(0.00522215 5.33449e-16 0)
(0.00468814 -5.15224e-17 0)
(0.0041622 -2.20545e-15 0)
(0.00364421 -9.51916e-16 0)
(0.00313405 -6.28468e-16 0)
(0.00263159 -9.32115e-16 0)
(0.00213674 8.04618e-16 0)
(0.00164936 8.76057e-16 0)
(0.00116936 -6.26762e-16 0)
(0.000696624 2.91353e-16 0)
(0.000231037 4.40907e-17 0)
)
;

boundaryField
{
    bottomWall
    {
        type            noSlip;
    }
    topWall
    {
        type            noSlip;
    }
    sides1_half0
    {
        type            empty;
    }
    sides1_half1
    {
        type            empty;
    }
    sides2_half0
    {
        type            empty;
    }
    sides2_half1
    {
        type            empty;
    }
    inout1_half0
    {
        type            cyclic;
    }
    inout1_half1
    {
        type            cyclic;
    }
    inout2_half0
    {
        type            cyclic;
    }
    inout2_half1
    {
        type            cyclic;
    }
}


// ************************************************************************* //
