/*--------------------------------*- C++ -*----------------------------------*\
  =========                 |
  \\      /  F ield         | OpenFOAM: The Open Source CFD Toolbox
   \\    /   O peration     | Website:  https://openfoam.org
    \\  /    A nd           | Version:  7
     \\/     M anipulation  |
\*---------------------------------------------------------------------------*/
FoamFile
{
    version     2.0;
    format      ascii;
    class       surfaceScalarField;
    location    "18000";
    object      phi;
}
// * * * * * * * * * * * * * * * * * * * * * * * * * * * * * * * * * * * * * //

dimensions      [0 3 -1 0 0 0 0];

internalField   nonuniform List<scalar> 
7920
(
0.000129677
-6.35184e-10
0.000129677
-5.49526e-10
0.000129677
-4.74366e-10
0.000129677
-4.03978e-10
0.000129676
-3.37641e-10
0.000129676
-2.77214e-10
0.000129676
-2.19691e-10
0.000129676
-1.63356e-10
0.000129676
-1.10099e-10
0.000129676
-6.16339e-11
0.000129676
-1.36328e-11
0.000129676
3.40453e-11
0.000129676
7.9396e-11
0.000129676
1.23785e-10
0.000129676
1.65777e-10
0.000129676
2.05319e-10
0.000129676
2.43239e-10
0.000129676
2.79967e-10
0.000129676
3.16938e-10
0.000129676
3.52238e-10
0.000129676
3.8405e-10
0.000129676
4.13612e-10
0.000129676
4.42338e-10
0.000129676
4.70327e-10
0.000129676
4.9684e-10
0.000129676
5.20644e-10
0.000129676
5.4322e-10
0.000129676
5.65702e-10
0.000129676
5.84124e-10
0.000129676
6.01014e-10
0.000129676
6.1724e-10
0.000129676
6.30912e-10
0.000129676
6.43731e-10
0.000129676
6.56232e-10
0.000129676
6.68076e-10
0.000129676
6.76906e-10
0.000129676
6.8462e-10
0.000129676
6.91899e-10
0.000129676
6.98433e-10
0.000129676
7.05052e-10
0.000129676
7.11154e-10
0.000129676
7.16502e-10
0.000129676
7.21003e-10
0.000129676
7.24157e-10
0.000129676
7.2569e-10
0.000129676
7.27243e-10
0.000129676
7.28889e-10
0.000129676
7.29962e-10
0.000129676
7.30223e-10
0.000129676
7.29969e-10
0.000129676
7.29935e-10
0.000129676
7.30331e-10
0.000129676
7.28768e-10
0.000129676
7.25056e-10
0.000129676
7.22039e-10
0.000129676
7.17823e-10
0.000129676
7.13304e-10
0.000129676
7.09792e-10
0.000129676
7.04803e-10
0.000129676
6.98198e-10
0.000129676
6.90475e-10
0.000129676
6.83423e-10
0.000129676
6.7571e-10
0.000129676
6.67906e-10
0.000129676
6.61446e-10
0.000129676
6.54583e-10
0.000129676
6.46068e-10
0.000129676
6.36914e-10
0.000129676
6.29629e-10
0.000129676
6.21945e-10
0.000129676
6.11813e-10
0.000129676
5.99435e-10
0.000129676
5.84182e-10
0.000129676
5.65963e-10
0.000129676
5.403e-10
0.000129676
5.13633e-10
4.45099e-10
0.000125572
-1.03525e-09
0.000125572
-1.38464e-09
0.000125572
-1.67338e-09
0.000125572
-1.89164e-09
0.000125572
-2.04143e-09
0.000125572
-2.13472e-09
0.000125572
-2.17977e-09
0.000125572
-2.18223e-09
0.000125572
-2.14887e-09
0.000125572
-2.08773e-09
0.000125572
-2.00625e-09
0.000125572
-1.90834e-09
0.000125572
-1.79938e-09
0.000125572
-1.68619e-09
0.000125572
-1.57156e-09
0.000125572
-1.45551e-09
0.000125572
-1.3416e-09
0.000125572
-1.22979e-09
0.000125572
-1.12339e-09
0.000125572
-1.02315e-09
0.000125572
-9.32149e-10
0.000125572
-8.52075e-10
0.000125572
-7.83012e-10
0.000125572
-6.94913e-10
0.000125572
-5.91327e-10
0.000125572
-5.07672e-10
0.000125572
-4.35557e-10
0.000125572
-3.67661e-10
0.000125572
-3.03222e-10
0.000125572
-2.44251e-10
0.000125572
-1.87956e-10
0.000125572
-1.32442e-10
0.000125572
-7.95438e-11
0.000125572
-3.15059e-11
0.000125572
1.58005e-11
0.000125572
6.25685e-11
0.000125572
1.07456e-10
0.000125571
1.512e-10
0.000125571
1.92344e-10
0.000125571
2.3083e-10
0.000125571
2.6718e-10
0.000125571
3.02313e-10
0.000125571
3.3833e-10
0.000125571
3.72e-10
0.000125571
4.01856e-10
0.000125571
4.30269e-10
0.000125571
4.57176e-10
0.000125571
4.83271e-10
0.000125571
5.08077e-10
0.000125571
5.30109e-10
0.000125571
5.51187e-10
0.000125571
5.71912e-10
0.000125571
5.8874e-10
0.000125571
6.0422e-10
0.000125571
6.19014e-10
0.000125571
6.31467e-10
0.000125571
6.42976e-10
0.000125571
6.54405e-10
0.000125571
6.65455e-10
0.000125571
6.73146e-10
0.000125571
6.79701e-10
0.000125571
6.86251e-10
0.000125571
6.91862e-10
0.000125571
6.97886e-10
0.000125571
7.03489e-10
0.000125571
7.0847e-10
0.000125571
7.12748e-10
0.000125571
7.15153e-10
0.000125571
7.16333e-10
0.000125571
7.17409e-10
0.000125571
7.19026e-10
0.000125571
7.2022e-10
0.000125571
7.201e-10
0.000125571
7.19678e-10
0.000125571
7.19644e-10
0.000125571
7.20097e-10
0.000125571
7.18486e-10
0.000125571
7.14882e-10
0.000125571
7.11793e-10
0.000125571
7.07601e-10
0.000125571
7.0363e-10
0.000125571
7.00569e-10
0.000125571
6.95692e-10
0.000125571
6.89106e-10
0.000125571
6.81915e-10
0.000125571
6.75031e-10
0.000125571
6.67385e-10
0.000125572
6.59807e-10
0.000125572
6.53309e-10
0.000125572
6.46868e-10
0.000125572
6.38484e-10
0.000125572
6.29736e-10
0.000125572
6.22715e-10
0.000125572
6.14647e-10
0.000125572
6.04803e-10
0.000125572
5.93201e-10
0.000125572
5.78464e-10
0.000125572
5.60782e-10
0.000125572
5.35425e-10
0.000125572
5.10511e-10
0.000125572
4.38397e-10
0.000125572
3.44785e-10
0.000125572
2.99816e-10
0.000125572
2.69762e-10
0.000125572
2.42995e-10
0.000125572
2.20828e-10
0.000125572
2.01498e-10
0.000125572
1.86033e-10
0.000125572
1.73832e-10
0.000125572
1.62428e-10
0.000125572
1.51612e-10
0.000125572
1.41682e-10
0.000125572
1.30448e-10
0.000125572
1.10813e-10
0.000125572
8.75416e-11
0.000125572
3.99882e-11
0.000125572
-1.33693e-11
0.000125572
-1.41292e-10
0.000125572
-3.09719e-10
-6.06189e-10
0.000121552
-1.0268e-09
0.000121552
-1.37587e-09
0.000121552
-1.66793e-09
0.000121552
-1.88923e-09
0.000121552
-2.04162e-09
0.000121552
-2.13713e-09
0.000121552
-2.18341e-09
0.000121552
-2.18667e-09
0.000121552
-2.15315e-09
0.000121552
-2.09102e-09
0.000121552
-2.0089e-09
0.000121552
-1.91027e-09
0.000121552
-1.80078e-09
0.000121552
-1.68673e-09
0.000121552
-1.57069e-09
0.000121552
-1.45403e-09
0.000121552
-1.33922e-09
0.000121552
-1.22629e-09
0.000121552
-1.11949e-09
0.000121552
-1.0186e-09
0.000121552
-9.27106e-10
0.000121552
-8.45231e-10
0.000121552
-7.74963e-10
0.000121552
-6.85605e-10
0.000121552
-5.76906e-10
0.000121552
-4.87178e-10
0.000121552
-4.11577e-10
0.000121552
-3.42873e-10
0.000121552
-2.78104e-10
0.000121552
-2.18957e-10
0.000121552
-1.63068e-10
0.000121551
-1.07575e-10
0.000121551
-5.45171e-11
0.000121551
-6.28891e-12
0.000121551
4.09015e-11
0.000121551
8.72183e-11
0.000121551
1.31727e-10
0.000121551
1.75296e-10
0.000121551
2.15928e-10
0.000121551
2.53306e-10
0.000121551
2.88666e-10
0.000121551
3.22755e-10
0.000121551
3.57957e-10
0.000121551
3.90088e-10
0.000121551
4.18111e-10
0.000121551
4.45357e-10
0.000121551
4.70763e-10
0.000121551
4.95511e-10
0.000121551
5.18599e-10
0.000121551
5.38916e-10
0.000121551
5.58554e-10
0.000121551
5.7737e-10
0.000121551
5.92975e-10
0.000121551
6.07185e-10
0.000121551
6.19978e-10
0.000121551
6.31252e-10
0.000121551
6.41804e-10
0.000121551
6.52232e-10
0.000121551
6.6205e-10
0.000121551
6.68659e-10
0.000121551
6.74287e-10
0.000121551
6.79703e-10
0.000121551
6.84411e-10
0.000121551
6.89665e-10
0.000121551
6.94982e-10
0.000121551
6.99554e-10
0.000121551
7.03276e-10
0.000121551
7.04904e-10
0.000121551
7.05574e-10
0.000121551
7.06199e-10
0.000121551
7.07804e-10
0.000121551
7.09011e-10
0.000121551
7.08494e-10
0.000121551
7.07921e-10
0.000121551
7.07865e-10
0.000121551
7.08004e-10
0.000121551
7.0611e-10
0.000121551
7.02832e-10
0.000121551
6.99481e-10
0.000121551
6.95497e-10
0.000121551
6.92192e-10
0.000121551
6.89503e-10
0.000121551
6.84609e-10
0.000121551
6.77974e-10
0.000121551
6.71398e-10
0.000121551
6.64468e-10
0.000121551
6.56839e-10
0.000121551
6.49418e-10
0.000121551
6.42904e-10
0.000121551
6.36941e-10
0.000121551
6.28801e-10
0.000121551
6.20341e-10
0.000121551
6.13567e-10
0.000121551
6.05545e-10
0.000121551
5.96132e-10
0.000121551
5.85238e-10
0.000121551
5.70973e-10
0.000121552
5.53758e-10
0.000121552
5.28989e-10
0.000121552
5.03465e-10
0.000121552
4.45156e-10
0.000121552
3.5638e-10
0.000121552
2.9431e-10
0.000121552
2.55444e-10
0.000121552
2.27429e-10
0.000121552
2.06332e-10
0.000121552
1.87743e-10
0.000121552
1.72973e-10
0.000121552
1.61915e-10
0.000121552
1.50933e-10
0.000121552
1.40426e-10
0.000121552
1.30259e-10
0.000121552
1.18578e-10
0.000121552
9.89666e-11
0.000121552
7.54692e-11
0.000121552
2.73634e-11
0.000121552
-2.60474e-11
0.000121552
-1.53608e-10
0.000121552
-3.2346e-10
-6.10557e-10
0.000117613
-1.01355e-09
0.000117613
-1.36037e-09
0.000117613
-1.65536e-09
0.000117613
-1.87994e-09
0.000117613
-2.03535e-09
0.000117613
-2.13326e-09
0.000117613
-2.18096e-09
0.000117613
-2.18497e-09
0.000117613
-2.15158e-09
0.000117613
-2.08922e-09
0.000117613
-2.00683e-09
0.000117613
-1.90793e-09
0.000117613
-1.7982e-09
0.000117613
-1.68379e-09
0.000117613
-1.5667e-09
0.000117613
-1.44948e-09
0.000117613
-1.33434e-09
0.000117613
-1.2208e-09
0.000117613
-1.11334e-09
0.000117613
-1.01222e-09
0.000117613
-9.20674e-10
0.000117613
-8.37038e-10
0.000117613
-7.64485e-10
0.000117613
-6.78663e-10
0.000117613
-5.73965e-10
0.000117613
-4.81189e-10
0.000117613
-4.00773e-10
0.000117613
-3.29128e-10
0.000117613
-2.62392e-10
0.000117613
-2.01929e-10
0.000117613
-1.45066e-10
0.000117613
-8.84121e-11
0.000117613
-3.50205e-11
0.000117613
1.35658e-11
0.000117613
6.13883e-11
0.000117612
1.07995e-10
0.000117612
1.52288e-10
0.000117612
1.95814e-10
0.000117612
2.36108e-10
0.000117612
2.7257e-10
0.000117612
3.07177e-10
0.000117612
3.40804e-10
0.000117612
3.75377e-10
0.000117612
4.06208e-10
0.000117612
4.32565e-10
0.000117612
4.58411e-10
0.000117612
4.82882e-10
0.000117612
5.06505e-10
0.000117612
5.27776e-10
0.000117612
5.46477e-10
0.000117612
5.64742e-10
0.000117612
5.81777e-10
0.000117612
5.96368e-10
0.000117612
6.09368e-10
0.000117612
6.20225e-10
0.000117612
6.30199e-10
0.000117612
6.39795e-10
0.000117612
6.49248e-10
0.000117612
6.57699e-10
0.000117612
6.63368e-10
0.000117612
6.67968e-10
0.000117612
6.72218e-10
0.000117612
6.76015e-10
0.000117612
6.80347e-10
0.000117612
6.85381e-10
0.000117612
6.89411e-10
0.000117612
6.92557e-10
0.000117612
6.93365e-10
0.000117612
6.93092e-10
0.000117612
6.9367e-10
0.000117612
6.95376e-10
0.000117612
6.96053e-10
0.000117612
6.95399e-10
0.000117612
6.94792e-10
0.000117612
6.94338e-10
0.000117612
6.94053e-10
0.000117612
6.91693e-10
0.000117612
6.88776e-10
0.000117612
6.85549e-10
0.000117613
6.81702e-10
0.000117613
6.78889e-10
0.000117613
6.76721e-10
0.000117613
6.71613e-10
0.000117613
6.64926e-10
0.000117613
6.58772e-10
0.000117613
6.5179e-10
0.000117613
6.44195e-10
0.000117613
6.36864e-10
0.000117613
6.30334e-10
0.000117613
6.24622e-10
0.000117613
6.17151e-10
0.000117613
6.08929e-10
0.000117613
6.02323e-10
0.000117613
5.94713e-10
0.000117613
5.85672e-10
0.000117613
5.75429e-10
0.000117613
5.6183e-10
0.000117613
5.45017e-10
0.000117613
5.20984e-10
0.000117613
4.93733e-10
0.000117613
4.50358e-10
0.000117613
3.78028e-10
0.000117613
3.07917e-10
0.000117613
2.57504e-10
0.000117613
2.23621e-10
0.000117613
2.00192e-10
0.000117613
1.80484e-10
0.000117613
1.65529e-10
0.000117613
1.54508e-10
0.000117613
1.43298e-10
0.000117613
1.3279e-10
0.000117613
1.22175e-10
0.000117613
1.09793e-10
0.000117613
8.97671e-11
0.000117613
6.56816e-11
0.000117613
1.71493e-11
0.000117613
-3.63193e-11
0.000117613
-1.63352e-10
0.000117613
-3.3376e-10
-6.1137e-10
0.000113752
-9.96025e-10
0.000113752
-1.3381e-09
0.000113752
-1.63475e-09
0.000113752
-1.86294e-09
0.000113752
-2.02161e-09
0.000113752
-2.12236e-09
0.000113752
-2.17201e-09
0.000113752
-2.17687e-09
0.000113752
-2.144e-09
0.000113752
-2.0822e-09
0.000113752
-1.99997e-09
0.000113752
-1.90102e-09
0.000113752
-1.79137e-09
0.000113752
-1.67704e-09
0.000113752
-1.55952e-09
0.000113752
-1.44192e-09
0.000113752
-1.32707e-09
0.000113752
-1.21338e-09
0.000113752
-1.10511e-09
0.000113752
-1.00391e-09
0.000113752
-9.12414e-10
0.000113752
-8.27455e-10
0.000113752
-7.52326e-10
0.000113752
-6.69953e-10
0.000113752
-5.72563e-10
0.000113752
-4.81392e-10
0.000113752
-3.98743e-10
0.000113752
-3.23971e-10
0.000113752
-2.54676e-10
0.000113752
-1.92324e-10
0.000113752
-1.33244e-10
0.000113752
-7.47404e-11
0.000113752
-2.07422e-11
0.000113752
2.84301e-11
0.000113752
7.72602e-11
0.000113752
1.24698e-10
0.000113752
1.69202e-10
0.000113752
2.12521e-10
0.000113752
2.52576e-10
0.000113752
2.88557e-10
0.000113752
3.22687e-10
0.000113752
3.56115e-10
0.000113752
3.9017e-10
0.000113752
4.20118e-10
0.000113752
4.44986e-10
0.000113752
4.69333e-10
0.000113752
4.93148e-10
0.000113752
5.15731e-10
0.000113752
5.35303e-10
0.000113752
5.52667e-10
0.000113752
5.69609e-10
0.000113752
5.84881e-10
0.000113752
5.98186e-10
0.000113752
6.1025e-10
0.000113752
6.19846e-10
0.000113752
6.28283e-10
0.000113752
6.36554e-10
0.000113752
6.45004e-10
0.000113752
6.52279e-10
0.000113752
6.56905e-10
0.000113752
6.60317e-10
0.000113752
6.6336e-10
0.000113752
6.66614e-10
0.000113752
6.70267e-10
0.000113752
6.74458e-10
0.000113752
6.77686e-10
0.000113752
6.80238e-10
0.000113752
6.80482e-10
0.000113752
6.79241e-10
0.000113752
6.79683e-10
0.000113752
6.81538e-10
0.000113752
6.81691e-10
0.000113752
6.80928e-10
0.000113752
6.80051e-10
0.000113752
6.78711e-10
0.000113752
6.78244e-10
0.000113752
6.75667e-10
0.000113752
6.72635e-10
0.000113752
6.69786e-10
0.000113752
6.66362e-10
0.000113752
6.63935e-10
0.000113752
6.62045e-10
0.000113752
6.56705e-10
0.000113752
6.50098e-10
0.000113752
6.44256e-10
0.000113752
6.37074e-10
0.000113752
6.29579e-10
0.000113752
6.22252e-10
0.000113752
6.157e-10
0.000113752
6.1011e-10
0.000113752
6.03452e-10
0.000113752
5.95648e-10
0.000113752
5.8911e-10
0.000113752
5.82321e-10
0.000113752
5.73599e-10
0.000113752
5.63654e-10
0.000113752
5.50851e-10
0.000113752
5.34669e-10
0.000113752
5.11726e-10
0.000113752
4.82526e-10
0.000113752
4.49905e-10
0.000113752
3.96875e-10
0.000113752
3.29289e-10
0.000113752
2.7148e-10
0.000113752
2.30535e-10
0.000113752
2.02365e-10
0.000113752
1.80015e-10
0.000113752
1.63875e-10
0.000113752
1.51854e-10
0.000113752
1.39799e-10
0.000113752
1.28734e-10
0.000113752
1.17341e-10
0.000113752
1.04019e-10
0.000113752
8.32945e-11
0.000113752
5.85362e-11
0.000113752
9.43961e-12
0.000113752
-4.40892e-11
0.000113752
-1.70405e-10
0.000113752
-3.40869e-10
-6.08818e-10
0.000109966
-9.74273e-10
0.000109966
-1.30934e-09
0.000109966
-1.60602e-09
0.000109966
-1.83741e-09
0.000109966
-1.99951e-09
0.000109966
-2.1039e-09
0.000109966
-2.15634e-09
0.000109966
-2.16245e-09
0.000109966
-2.13029e-09
0.000109966
-2.06963e-09
0.000109966
-1.98799e-09
0.000109966
-1.88926e-09
0.000109966
-1.78042e-09
0.000109966
-1.66658e-09
0.000109966
-1.54916e-09
0.000109966
-1.43179e-09
0.000109966
-1.31733e-09
0.000109966
-1.20347e-09
0.000109966
-1.09487e-09
0.000109966
-9.93971e-10
0.000109966
-9.02249e-10
0.000109966
-8.16172e-10
0.000109966
-7.38668e-10
0.000109966
-6.58474e-10
0.000109966
-5.68375e-10
0.000109966
-4.82009e-10
0.000109966
-4.00413e-10
0.000109966
-3.24125e-10
0.000109966
-2.5276e-10
0.000109966
-1.88113e-10
0.000109966
-1.26604e-10
0.000109966
-6.62426e-11
0.000109966
-1.09545e-11
0.000109966
3.9112e-11
0.000109966
8.89413e-11
0.000109966
1.37263e-10
0.000109966
1.82277e-10
0.000109966
2.2583e-10
0.000109966
2.65405e-10
0.000109966
3.00933e-10
0.000109966
3.35223e-10
0.000109966
3.68789e-10
0.000109966
4.02328e-10
0.000109966
4.31365e-10
0.000109966
4.54834e-10
0.000109966
4.77998e-10
0.000109966
5.01261e-10
0.000109966
5.23069e-10
0.000109966
5.41298e-10
0.000109966
5.57105e-10
0.000109966
5.72687e-10
0.000109966
5.86425e-10
0.000109966
5.9837e-10
0.000109966
6.09829e-10
0.000109966
6.1837e-10
0.000109966
6.24977e-10
0.000109966
6.32008e-10
0.000109966
6.39474e-10
0.000109966
6.45339e-10
0.000109966
6.48884e-10
0.000109966
6.51278e-10
0.000109966
6.53115e-10
0.000109966
6.55943e-10
0.000109966
6.5906e-10
0.000109966
6.62217e-10
0.000109966
6.64395e-10
0.000109966
6.66011e-10
0.000109966
6.65957e-10
0.000109966
6.64347e-10
0.000109966
6.64418e-10
0.000109966
6.66115e-10
0.000109966
6.65943e-10
0.000109966
6.64879e-10
0.000109966
6.6339e-10
0.000109966
6.61262e-10
0.000109966
6.60689e-10
0.000109966
6.57777e-10
0.000109966
6.54598e-10
0.000109966
6.52418e-10
0.000109966
6.49675e-10
0.000109966
6.47546e-10
0.000109966
6.45252e-10
0.000109966
6.39914e-10
0.000109966
6.33652e-10
0.000109966
6.27699e-10
0.000109966
6.20366e-10
0.000109966
6.13139e-10
0.000109966
6.05668e-10
0.000109966
5.99094e-10
0.000109966
5.93577e-10
0.000109966
5.87686e-10
0.000109966
5.8067e-10
0.000109966
5.7435e-10
0.000109966
5.68317e-10
0.000109966
5.60093e-10
0.000109966
5.5042e-10
0.000109966
5.3824e-10
0.000109966
5.22562e-10
0.000109966
5.0086e-10
0.000109966
4.70264e-10
0.000109966
4.44159e-10
0.000109966
4.08348e-10
0.000109966
3.49905e-10
0.000109966
2.9102e-10
0.000109966
2.44644e-10
0.000109966
2.11069e-10
0.000109966
1.85608e-10
0.000109966
1.67572e-10
0.000109966
1.53634e-10
0.000109966
1.40195e-10
0.000109966
1.28097e-10
0.000109966
1.15602e-10
0.000109966
1.01123e-10
0.000109966
7.95491e-11
0.000109966
5.40227e-11
0.000109966
4.24346e-12
0.000109966
-4.96911e-11
0.000109966
-1.75107e-10
0.000109966
-3.44477e-10
-6.02586e-10
0.000106251
-9.4803e-10
0.000106251
-1.27433e-09
0.000106251
-1.56938e-09
0.000106251
-1.80271e-09
0.000106251
-1.96883e-09
0.000106251
-2.07794e-09
0.000106251
-2.13357e-09
0.000106251
-2.14151e-09
0.000106251
-2.11073e-09
0.000106251
-2.05137e-09
0.000106251
-1.97061e-09
0.000106251
-1.8728e-09
0.000106251
-1.76562e-09
0.000106251
-1.65256e-09
0.000106251
-1.53571e-09
0.000106251
-1.41923e-09
0.000106251
-1.30466e-09
0.000106251
-1.19082e-09
0.000106251
-1.08276e-09
0.000106251
-9.82399e-10
0.000106251
-8.90077e-10
0.000106251
-8.02879e-10
0.000106251
-7.23566e-10
0.000106251
-6.44114e-10
0.000106251
-5.5993e-10
0.000106251
-4.79805e-10
0.000106251
-4.01788e-10
0.000106251
-3.26492e-10
0.000106251
-2.54248e-10
0.000106251
-1.87221e-10
0.000106251
-1.23516e-10
0.000106251
-6.1909e-11
0.000106251
-5.12658e-12
0.000106251
4.63771e-11
0.000106251
9.71985e-11
0.000106251
1.46028e-10
0.000106251
1.91719e-10
0.000106251
2.35916e-10
0.000106251
2.74953e-10
0.000106251
3.10102e-10
0.000106251
3.44681e-10
0.000106251
3.78652e-10
0.000106251
4.11812e-10
0.000106251
4.39807e-10
0.000106251
4.61932e-10
0.000106251
4.8406e-10
0.000106251
5.07309e-10
0.000106251
5.28466e-10
0.000106251
5.45264e-10
0.000106251
5.59337e-10
0.000106251
5.73532e-10
0.000106251
5.8621e-10
0.000106251
5.97209e-10
0.000106251
6.07892e-10
0.000106251
6.15052e-10
0.000106251
6.20059e-10
0.000106251
6.26126e-10
0.000106251
6.3262e-10
0.000106251
6.36755e-10
0.000106251
6.3932e-10
0.000106251
6.40846e-10
0.000106251
6.41469e-10
0.000106251
6.43786e-10
0.000106251
6.46398e-10
0.000106251
6.48595e-10
0.000106251
6.49493e-10
0.000106251
6.49897e-10
0.000106251
6.49621e-10
0.000106251
6.48183e-10
0.000106251
6.48004e-10
0.000106251
6.4925e-10
0.000106251
6.48524e-10
0.000106251
6.46986e-10
0.000106251
6.44816e-10
0.000106251
6.42008e-10
0.000106251
6.41208e-10
0.000106251
6.38058e-10
0.000106251
6.35175e-10
0.000106251
6.33822e-10
0.000106251
6.31581e-10
0.000106251
6.29494e-10
0.000106251
6.26643e-10
0.000106251
6.21388e-10
0.000106251
6.15482e-10
0.000106251
6.09143e-10
0.000106251
6.0176e-10
0.000106251
5.94752e-10
0.000106251
5.87148e-10
0.000106251
5.80613e-10
0.000106251
5.75176e-10
0.000106251
5.70214e-10
0.000106251
5.64261e-10
0.000106251
5.58457e-10
0.000106251
5.52633e-10
0.000106251
5.44999e-10
0.000106251
5.36187e-10
0.000106251
5.24204e-10
0.000106251
5.08532e-10
0.000106251
4.88118e-10
0.000106251
4.57205e-10
0.000106252
4.34617e-10
0.000106252
4.11838e-10
0.000106251
3.65031e-10
0.000106251
3.10362e-10
0.000106251
2.61911e-10
0.000106251
2.23938e-10
0.000106251
1.9574e-10
0.000106251
1.75373e-10
0.000106251
1.58939e-10
0.000106251
1.44148e-10
0.000106251
1.30676e-10
0.000106251
1.16427e-10
0.000106251
1.00623e-10
0.000106251
7.84813e-11
0.000106251
5.20255e-11
0.000106251
1.4855e-12
0.000106251
-5.31989e-11
0.000106251
-1.77491e-10
0.000106251
-3.44567e-10
-5.92647e-10
0.000102604
-9.16713e-10
0.000102604
-1.23297e-09
0.000102604
-1.52488e-09
0.000102604
-1.75885e-09
0.000102604
-1.92962e-09
0.000102604
-2.04458e-09
0.000102604
-2.10345e-09
0.000102604
-2.11399e-09
0.000102604
-2.0854e-09
0.000102604
-2.02755e-09
0.000102604
-1.94796e-09
0.000102604
-1.85192e-09
0.000102604
-1.74707e-09
0.000102604
-1.63479e-09
0.000102604
-1.51903e-09
0.000102604
-1.4041e-09
0.000102604
-1.28907e-09
0.000102604
-1.17562e-09
0.000102604
-1.0691e-09
0.000102604
-9.68828e-10
0.000102604
-8.75323e-10
0.000102604
-7.87364e-10
0.000102604
-7.07119e-10
0.000102604
-6.27315e-10
0.000102604
-5.47126e-10
0.000102604
-4.73426e-10
0.000102604
-4.00562e-10
0.000102604
-3.28095e-10
0.000102604
-2.56742e-10
0.000102604
-1.87919e-10
0.000102604
-1.22172e-10
0.000102604
-6.02858e-11
0.000102604
-2.31686e-12
0.000102604
5.11122e-11
0.000102604
1.02676e-10
0.000102604
1.51536e-10
0.000102603
1.98173e-10
0.000102603
2.42691e-10
0.000102603
2.81188e-10
0.000102603
3.16489e-10
0.000102603
3.51002e-10
0.000102603
3.85593e-10
0.000102603
4.18589e-10
0.000102603
4.45339e-10
0.000102603
4.66491e-10
0.000102603
4.87524e-10
0.000102603
5.11207e-10
0.000102603
5.3186e-10
0.000102603
5.46685e-10
0.000102603
5.59236e-10
0.000102603
5.72084e-10
0.000102603
5.8389e-10
0.000102603
5.94692e-10
0.000102603
6.04148e-10
0.000102603
6.09466e-10
0.000102603
6.13403e-10
0.000102603
6.18639e-10
0.000102603
6.24082e-10
0.000102603
6.26333e-10
0.000102603
6.28281e-10
0.000102604
6.29054e-10
0.000102604
6.28398e-10
0.000102604
6.3027e-10
0.000102604
6.32042e-10
0.000102604
6.3325e-10
0.000102604
6.32869e-10
0.000102604
6.31875e-10
0.000102604
6.31734e-10
0.000102604
6.30672e-10
0.000102604
6.30201e-10
0.000102604
6.30993e-10
0.000102604
6.29468e-10
0.000102604
6.2732e-10
0.000102604
6.24342e-10
0.000102604
6.20936e-10
0.000102604
6.19887e-10
0.000102604
6.16664e-10
0.000102604
6.14679e-10
0.000102604
6.14014e-10
0.000102604
6.11953e-10
0.000102604
6.09843e-10
0.000102604
6.06491e-10
0.000102604
6.01308e-10
0.000102604
5.95469e-10
0.000102604
5.88918e-10
0.000102604
5.81395e-10
0.000102604
5.74279e-10
0.000102604
5.6674e-10
0.000102604
5.60365e-10
0.000102604
5.55066e-10
0.000102604
5.51437e-10
0.000102604
5.46745e-10
0.000102604
5.41223e-10
0.000102604
5.35395e-10
0.000102604
5.2859e-10
0.000102604
5.20873e-10
0.000102604
5.0871e-10
0.000102604
4.92962e-10
0.000102604
4.73692e-10
0.000102604
4.43088e-10
0.000102604
4.22178e-10
0.000102604
4.08317e-10
0.000102604
3.73201e-10
0.000102604
3.26117e-10
0.000102604
2.78442e-10
0.000102604
2.38155e-10
0.000102604
2.08666e-10
0.000102604
1.85576e-10
0.000102604
1.66813e-10
0.000102604
1.5105e-10
0.000102604
1.35788e-10
0.000102604
1.19137e-10
0.000102604
1.02039e-10
0.000102604
7.98043e-11
0.000102604
5.24124e-11
0.000102604
1.0205e-12
0.000102604
-5.48031e-11
0.000102604
-1.77584e-10
0.000102604
-3.41714e-10
-5.78959e-10
9.90203e-05
-8.80218e-10
9.90202e-05
-1.18509e-09
9.90202e-05
-1.47212e-09
9.90201e-05
-1.70609e-09
9.90201e-05
-1.88242e-09
9.902e-05
-2.00389e-09
9.902e-05
-2.06601e-09
9.902e-05
-2.08005e-09
9.90199e-05
-2.05419e-09
9.90199e-05
-1.99834e-09
9.90199e-05
-1.9202e-09
9.90199e-05
-1.82678e-09
9.90198e-05
-1.72495e-09
9.90198e-05
-1.61306e-09
9.90198e-05
-1.49912e-09
9.90198e-05
-1.38638e-09
9.90198e-05
-1.27042e-09
9.90197e-05
-1.15789e-09
9.90197e-05
-1.05381e-09
9.90197e-05
-9.53296e-10
9.90197e-05
-8.57919e-10
9.90197e-05
-7.69237e-10
9.90197e-05
-6.89203e-10
9.90196e-05
-6.08167e-10
9.90196e-05
-5.30284e-10
9.90196e-05
-4.62923e-10
9.90196e-05
-3.9572e-10
9.90196e-05
-3.2723e-10
9.90196e-05
-2.58334e-10
9.90196e-05
-1.883e-10
9.90196e-05
-1.20943e-10
9.90196e-05
-6.02317e-11
9.90196e-05
-1.29356e-12
9.90196e-05
5.42774e-11
9.90196e-05
1.05903e-10
9.90196e-05
1.54243e-10
9.90196e-05
2.02303e-10
9.90196e-05
2.46599e-10
9.90196e-05
2.84136e-10
9.90196e-05
3.20029e-10
9.90196e-05
3.54363e-10
9.90196e-05
3.90204e-10
9.90196e-05
4.22661e-10
9.90196e-05
4.47481e-10
9.90196e-05
4.68211e-10
9.90196e-05
4.88713e-10
9.90196e-05
5.13266e-10
9.90196e-05
5.32904e-10
9.90196e-05
5.45262e-10
9.90196e-05
5.56758e-10
9.90196e-05
5.6828e-10
9.90196e-05
5.79202e-10
9.90196e-05
5.90692e-10
9.90196e-05
5.98476e-10
9.90196e-05
6.01468e-10
9.90196e-05
6.05048e-10
9.90196e-05
6.09276e-10
9.90196e-05
6.13468e-10
9.90196e-05
6.13865e-10
9.90196e-05
6.15673e-10
9.90197e-05
6.15665e-10
9.90197e-05
6.13857e-10
9.90197e-05
6.1552e-10
9.90197e-05
6.15944e-10
9.90197e-05
6.15861e-10
9.90197e-05
6.14132e-10
9.90198e-05
6.11897e-10
9.90198e-05
6.12667e-10
9.90198e-05
6.12108e-10
9.90198e-05
6.11084e-10
9.90198e-05
6.1138e-10
9.90199e-05
6.08748e-10
9.90199e-05
6.05928e-10
9.90199e-05
6.01963e-10
9.90199e-05
5.98123e-10
9.90199e-05
5.96867e-10
9.902e-05
5.93478e-10
9.902e-05
5.93219e-10
9.902e-05
5.93263e-10
9.902e-05
5.9093e-10
9.902e-05
5.88928e-10
9.90201e-05
5.84752e-10
9.90201e-05
5.79562e-10
9.90201e-05
5.73769e-10
9.90201e-05
5.67068e-10
9.90202e-05
5.59358e-10
9.90202e-05
5.51856e-10
9.90202e-05
5.44565e-10
9.90202e-05
5.38476e-10
9.90202e-05
5.3342e-10
9.90203e-05
5.31854e-10
9.90203e-05
5.28452e-10
9.90203e-05
5.22359e-10
9.90203e-05
5.16688e-10
9.90203e-05
5.11209e-10
9.90204e-05
5.04418e-10
9.90204e-05
4.91947e-10
9.90204e-05
4.75939e-10
9.90204e-05
4.57499e-10
9.90204e-05
4.27678e-10
9.90204e-05
4.07664e-10
9.90204e-05
3.9963e-10
9.90204e-05
3.7463e-10
9.90204e-05
3.36492e-10
9.90204e-05
2.9115e-10
9.90204e-05
2.50826e-10
9.90204e-05
2.22622e-10
9.90204e-05
1.96971e-10
9.90204e-05
1.76093e-10
9.90204e-05
1.59806e-10
9.90204e-05
1.42654e-10
9.90204e-05
1.23242e-10
9.90203e-05
1.05018e-10
9.90203e-05
8.33271e-11
9.90203e-05
5.466e-11
9.90203e-05
2.34327e-12
9.90203e-05
-5.50893e-11
9.90203e-05
-1.75708e-10
9.90203e-05
-3.35924e-10
-5.61494e-10
9.54956e-05
-8.38365e-10
9.54956e-05
-1.12955e-09
9.54955e-05
-1.41004e-09
9.54955e-05
-1.64631e-09
9.54954e-05
-1.82886e-09
9.54954e-05
-1.95436e-09
9.54953e-05
-2.02133e-09
9.54953e-05
-2.03983e-09
9.54952e-05
-2.01737e-09
9.54952e-05
-1.96415e-09
9.54952e-05
-1.88808e-09
9.54951e-05
-1.79851e-09
9.54951e-05
-1.69766e-09
9.54951e-05
-1.58779e-09
9.54951e-05
-1.47693e-09
9.54951e-05
-1.36429e-09
9.5495e-05
-1.24914e-09
9.5495e-05
-1.1391e-09
9.5495e-05
-1.0359e-09
9.5495e-05
-9.34603e-10
9.5495e-05
-8.36844e-10
9.54949e-05
-7.47991e-10
9.54949e-05
-6.69395e-10
9.54949e-05
-5.88417e-10
9.54949e-05
-5.12051e-10
9.54949e-05
-4.48646e-10
9.54949e-05
-3.86423e-10
9.54948e-05
-3.2224e-10
9.54948e-05
-2.56595e-10
9.54948e-05
-1.87356e-10
9.54948e-05
-1.19426e-10
9.54948e-05
-5.97632e-11
9.54948e-05
-1.86673e-12
9.54948e-05
5.58438e-11
9.54948e-05
1.08464e-10
9.54948e-05
1.55792e-10
9.54948e-05
2.0361e-10
9.54948e-05
2.46614e-10
9.54948e-05
2.85103e-10
9.54948e-05
3.22115e-10
9.54948e-05
3.56223e-10
9.54948e-05
3.91652e-10
9.54948e-05
4.2231e-10
9.54948e-05
4.47019e-10
9.54948e-05
4.68064e-10
9.54948e-05
4.88527e-10
9.54948e-05
5.12329e-10
9.54948e-05
5.29514e-10
9.54948e-05
5.41419e-10
9.54948e-05
5.52794e-10
9.54948e-05
5.6282e-10
9.54949e-05
5.73027e-10
9.54949e-05
5.83456e-10
9.54949e-05
5.88738e-10
9.54949e-05
5.91637e-10
9.54949e-05
5.95758e-10
9.54949e-05
5.98774e-10
9.54949e-05
6.01458e-10
9.54949e-05
5.99717e-10
9.54949e-05
5.9969e-10
9.5495e-05
5.98588e-10
9.5495e-05
5.98358e-10
9.5495e-05
6.00207e-10
9.5495e-05
5.98746e-10
9.5495e-05
5.97172e-10
9.5495e-05
5.93699e-10
9.54951e-05
5.90515e-10
9.54951e-05
5.90885e-10
9.54951e-05
5.90657e-10
9.54951e-05
5.91163e-10
9.54952e-05
5.90961e-10
9.54952e-05
5.86782e-10
9.54952e-05
5.83372e-10
9.54952e-05
5.78169e-10
9.54952e-05
5.73902e-10
9.54953e-05
5.72486e-10
9.54953e-05
5.69243e-10
9.54953e-05
5.6934e-10
9.54953e-05
5.69674e-10
9.54954e-05
5.69052e-10
9.54954e-05
5.67385e-10
9.54954e-05
5.61554e-10
9.54954e-05
5.5656e-10
9.54955e-05
5.51052e-10
9.54955e-05
5.43914e-10
9.54955e-05
5.3597e-10
9.54955e-05
5.28078e-10
9.54955e-05
5.21074e-10
9.54956e-05
5.15353e-10
9.54956e-05
5.10714e-10
9.54956e-05
5.09775e-10
9.54956e-05
5.0727e-10
9.54957e-05
5.01936e-10
9.54957e-05
4.96967e-10
9.54957e-05
4.93552e-10
9.54957e-05
4.87264e-10
9.54957e-05
4.73747e-10
9.54957e-05
4.57425e-10
9.54958e-05
4.39685e-10
9.54958e-05
4.11176e-10
9.54958e-05
3.91841e-10
9.54958e-05
3.87223e-10
9.54958e-05
3.69945e-10
9.54958e-05
3.40214e-10
9.54958e-05
2.99431e-10
9.54958e-05
2.6138e-10
9.54958e-05
2.3515e-10
9.54958e-05
2.09052e-10
9.54958e-05
1.86771e-10
9.54957e-05
1.68158e-10
9.54957e-05
1.48844e-10
9.54957e-05
1.29201e-10
9.54957e-05
1.10582e-10
9.54957e-05
8.79908e-11
9.54957e-05
5.71144e-11
9.54957e-05
3.84864e-12
9.54957e-05
-5.2935e-11
9.54957e-05
-1.71526e-10
9.54957e-05
-3.28663e-10
-5.40314e-10
9.20255e-05
-7.89277e-10
9.20255e-05
-1.06539e-09
9.20254e-05
-1.34038e-09
9.20253e-05
-1.5798e-09
9.20253e-05
-1.7684e-09
9.20252e-05
-1.89645e-09
9.20252e-05
-1.96983e-09
9.20251e-05
-1.99363e-09
9.20251e-05
-1.97532e-09
9.2025e-05
-1.92554e-09
9.2025e-05
-1.85213e-09
9.2025e-05
-1.76589e-09
9.20249e-05
-1.66558e-09
9.20249e-05
-1.55994e-09
9.20249e-05
-1.45107e-09
9.20248e-05
-1.33796e-09
9.20248e-05
-1.22628e-09
9.20248e-05
-1.11847e-09
9.20248e-05
-1.01419e-09
9.20248e-05
-9.11177e-10
9.20247e-05
-8.13162e-10
9.20247e-05
-7.25799e-10
9.20247e-05
-6.47584e-10
9.20247e-05
-5.6784e-10
9.20247e-05
-4.92813e-10
9.20246e-05
-4.30976e-10
9.20246e-05
-3.72443e-10
9.20246e-05
-3.12239e-10
9.20246e-05
-2.49975e-10
9.20246e-05
-1.85164e-10
9.20246e-05
-1.17923e-10
9.20246e-05
-5.71713e-11
9.20246e-05
-2.15537e-12
9.20246e-05
5.56735e-11
9.20246e-05
1.09702e-10
9.20246e-05
1.57592e-10
9.20246e-05
2.03357e-10
9.20246e-05
2.43827e-10
9.20246e-05
2.835e-10
9.20246e-05
3.21998e-10
9.20246e-05
3.57916e-10
9.20246e-05
3.90818e-10
9.20246e-05
4.18191e-10
9.20246e-05
4.42844e-10
9.20246e-05
4.64959e-10
9.20246e-05
4.8786e-10
9.20246e-05
5.08914e-10
9.20246e-05
5.22246e-10
9.20246e-05
5.33753e-10
9.20246e-05
5.4585e-10
9.20246e-05
5.56284e-10
9.20247e-05
5.66216e-10
9.20247e-05
5.73548e-10
9.20247e-05
5.75295e-10
9.20247e-05
5.78731e-10
9.20247e-05
5.83886e-10
9.20247e-05
5.87719e-10
9.20247e-05
5.8866e-10
9.20247e-05
5.84131e-10
9.20248e-05
5.8091e-10