/*--------------------------------*- C++ -*----------------------------------*\
  =========                 |
  \\      /  F ield         | OpenFOAM: The Open Source CFD Toolbox
   \\    /   O peration     | Website:  https://openfoam.org
    \\  /    A nd           | Version:  7
     \\/     M anipulation  |
\*---------------------------------------------------------------------------*/
FoamFile
{
    version     2.0;
    format      ascii;
    class       volVectorField;
    location    "19500";
    object      U;
}
// * * * * * * * * * * * * * * * * * * * * * * * * * * * * * * * * * * * * * //

dimensions      [0 1 -1 0 0 0 0];

internalField   nonuniform List<vector> 
3974
(
(0.11673 2.56217e-08 2.53332e-14)
(0.11673 2.89536e-08 2.53597e-14)
(0.11673 2.99303e-08 2.5287e-14)
(0.11673 3.02532e-08 2.53467e-14)
(0.11673 3.02721e-08 2.52597e-14)
(0.11673 3.00507e-08 2.52939e-14)
(0.11673 2.99263e-08 2.52399e-14)
(0.11673 3.01341e-08 2.51902e-14)
(0.11673 3.06865e-08 2.52484e-14)
(0.11673 3.16248e-08 2.52074e-14)
(0.11673 3.28461e-08 2.52091e-14)
(0.11673 3.44374e-08 2.51921e-14)
(0.11673 3.61621e-08 2.51408e-14)
(0.11673 3.77706e-08 2.51919e-14)
(0.11673 3.93458e-08 2.51148e-14)
(0.116731 4.07932e-08 2.51813e-14)
(0.116731 4.19982e-08 2.51452e-14)
(0.116731 4.30829e-08 2.51014e-14)
(0.116731 4.38872e-08 2.51515e-14)
(0.116731 4.43528e-08 2.5116e-14)
(0.116731 4.47887e-08 2.51338e-14)
(0.116731 4.49366e-08 2.51079e-14)
(0.116731 4.48443e-08 2.50664e-14)
(0.116731 4.46242e-08 2.51276e-14)
(0.116731 4.42015e-08 2.50482e-14)
(0.116731 4.36905e-08 2.51006e-14)
(0.116731 4.31099e-08 2.50672e-14)
(0.116731 4.23573e-08 2.49231e-14)
(0.116731 4.14024e-08 2.50869e-14)
(0.116731 4.05606e-08 2.50233e-14)
(0.116731 3.96182e-08 2.50549e-14)
(0.116731 3.83545e-08 2.50963e-14)
(0.116731 3.71047e-08 2.49965e-14)
(0.116731 3.59504e-08 2.50836e-14)
(0.116731 3.45129e-08 2.51362e-14)
(0.116731 3.29195e-08 2.50343e-14)
(0.116731 3.11397e-08 2.50859e-14)
(0.116731 2.93127e-08 2.49845e-14)
(0.11778 -8.94776e-10 2.5843e-14)
(0.11778 1.1367e-08 2.57851e-14)
(0.11778 1.80746e-08 2.57885e-14)
(0.11778 2.16501e-08 2.58148e-14)
(0.11778 2.36904e-08 2.57164e-14)
(0.117781 2.47076e-08 2.57724e-14)
(0.117781 2.51656e-08 2.57205e-14)
(0.117781 2.5292e-08 2.57334e-14)
(0.117781 2.54524e-08 2.57184e-14)
(0.117781 2.58222e-08 2.56318e-14)
(0.117781 2.65523e-08 2.5669e-14)
(0.117781 2.76683e-08 2.56156e-14)
(0.117781 2.90315e-08 2.56448e-14)
(0.117781 3.07264e-08 2.56598e-14)
(0.117781 3.25247e-08 2.55642e-14)
(0.117781 3.42945e-08 2.56071e-14)
(0.117781 3.60336e-08 2.5568e-14)
(0.117781 3.76058e-08 2.56024e-14)
(0.117781 3.89306e-08 2.56064e-14)
(0.117781 4.01268e-08 2.5528e-14)
(0.117781 4.10987e-08 2.55678e-14)
(0.117781 4.17689e-08 2.55162e-14)
(0.117781 4.23788e-08 2.55516e-14)
(0.117781 4.26908e-08 2.5566e-14)
(0.117781 4.27793e-08 2.54806e-14)
(0.117781 4.27468e-08 2.55333e-14)
(0.117781 4.25122e-08 2.54942e-14)
(0.117781 4.21634e-08 2.55155e-14)
(0.117781 4.17544e-08 2.55199e-14)
(0.117781 4.12111e-08 2.54275e-14)
(0.117781 4.05026e-08 2.54867e-14)
(0.117781 3.98158e-08 2.54582e-14)
(0.117781 3.90449e-08 2.54775e-14)
(0.117781 3.79821e-08 2.55194e-14)
(0.117781 3.68612e-08 2.54721e-14)
(0.117781 3.59054e-08 2.55027e-14)
(0.117781 3.46339e-08 2.55385e-14)
(0.117781 3.32798e-08 2.54857e-14)
(0.117781 3.13544e-08 2.55067e-14)
(0.117781 3.19562e-08 2.54552e-14)
(0.117781 3.17107e-08 2.54836e-14)
(0.117781 2.66875e-08 2.55084e-14)
(0.118798 -5.18057e-08 2.62894e-14)
(0.118798 -2.27574e-08 2.6216e-14)
(0.118798 -3.12482e-09 2.62639e-14)
(0.118798 6.39971e-09 2.62564e-14)
(0.118798 1.08852e-08 2.62439e-14)
(0.118798 1.49161e-08 2.6267e-14)
(0.118799 1.74065e-08 2.61486e-14)
(0.118799 1.87372e-08 2.62046e-14)
(0.118799 1.948e-08 2.6144e-14)
(0.118799 1.9931e-08 2.61802e-14)
(0.118799 2.03712e-08 2.61824e-14)
(0.118799 2.09322e-08 2.60611e-14)
(0.118799 2.18294e-08 2.6096e-14)
(0.118799 2.31595e-08 2.60259e-14)
(0.118799 2.46786e-08 2.60863e-14)
(0.118799 2.64876e-08 2.61162e-14)
(0.118799 2.84381e-08 2.5988e-14)
(0.118799 3.03818e-08 2.60283e-14)
(0.118799 3.2305e-08 2.59621e-14)
(0.118799 3.40451e-08 2.6031e-14)
(0.118799 3.55271e-08 2.60568e-14)
(0.118799 3.68411e-08 2.59355e-14)
(0.118799 3.7998e-08 2.59884e-14)
(0.118799 3.89102e-08 2.59059e-14)
(0.118799 3.97256e-08 2.5973e-14)
(0.118799 4.02273e-08 2.60097e-14)
(0.118799 4.05192e-08 2.5891e-14)
(0.118799 4.06969e-08 2.59485e-14)
(0.118799 4.06725e-08 2.58934e-14)
(0.118799 4.0511e-08 2.59406e-14)
(0.118799 4.03152e-08 2.59636e-14)
(0.118799 4.00216e-08 2.58348e-14)
(0.118799 3.95408e-08 2.58946e-14)
(0.118799 3.90198e-08 2.58618e-14)
(0.118799 3.84245e-08 2.59036e-14)
(0.118799 3.75681e-08 2.5944e-14)
(0.118799 3.66628e-08 2.59241e-14)
(0.118799 3.58941e-08 2.59252e-14)
(0.118799 3.47764e-08 2.59416e-14)
(0.118799 3.36953e-08 2.59174e-14)
(0.118799 3.18124e-08 2.59276e-14)
(0.118799 3.33739e-08 2.59042e-14)
(0.118799 3.5218e-08 2.59059e-14)
(0.118799 3.38985e-08 2.59219e-14)
(0.118799 2.99131e-08 2.5908e-14)
(0.118799 2.14071e-08 2.59279e-14)
(0.118799 1.25829e-08 2.59083e-14)
(0.118799 4.48995e-09 2.59101e-14)
(0.118799 -3.24099e-09 2.59348e-14)
(0.118799 -1.07875e-08 2.59217e-14)
(0.118799 -1.81776e-08 2.59355e-14)
(0.118799 -2.55848e-08 2.59142e-14)
(0.118799 -3.26635e-08 2.59244e-14)
(0.118799 -3.93143e-08 2.59538e-14)
(0.118799 -4.4116e-08 2.59347e-14)
(0.118799 -4.8325e-08 2.59399e-14)
(0.118798 -4.59654e-08 2.59131e-14)
(0.118798 -4.33606e-08 2.59295e-14)
(0.118798 -2.28807e-08 2.5963e-14)
(0.119786 -4.84292e-08 2.67256e-14)
(0.119786 -2.1412e-08 2.66211e-14)
(0.119786 -4.70752e-09 2.66915e-14)
(0.119786 4.25237e-09 2.67074e-14)
(0.119786 7.3722e-09 2.66897e-14)
(0.119786 1.00425e-08 2.67159e-14)
(0.119786 1.19002e-08 2.65762e-14)
(0.119786 1.30546e-08 2.66426e-14)
(0.119786 1.38056e-08 2.65558e-14)
(0.119786 1.43968e-08 2.66398e-14)
(0.119786 1.50439e-08 2.66327e-14)
(0.119786 1.57206e-08 2.64725e-14)
(0.119786 1.67652e-08 2.65317e-14)
(0.119786 1.83043e-08 2.64355e-14)
(0.119786 1.99851e-08 2.65408e-14)
(0.119786 2.19045e-08 2.6562e-14)
(0.119786 2.40134e-08 2.63522e-14)
(0.119786 2.61352e-08 2.64583e-14)
(0.119786 2.82479e-08 2.62832e-14)
(0.119787 3.01959e-08 2.64745e-14)
(0.119787 3.18356e-08 2.64978e-14)
(0.119787 3.33222e-08 2.63489e-14)
(0.119787 3.47097e-08 2.64146e-14)
(0.119787 3.58156e-08 2.63111e-14)
(0.119787 3.68333e-08 2.64079e-14)
(0.119787 3.75883e-08 2.64432e-14)
(0.119787 3.81089e-08 2.62931e-14)
(0.119787 3.85151e-08 2.63766e-14)
(0.119787 3.87178e-08 2.62887e-14)
(0.119787 3.88074e-08 2.63827e-14)
(0.119787 3.88467e-08 2.63984e-14)
(0.119787 3.87644e-08 2.6154e-14)
(0.119787 3.85433e-08 2.63132e-14)
(0.119787 3.81953e-08 2.62526e-14)
(0.119787 3.77903e-08 2.63454e-14)
(0.119787 3.71928e-08 2.63716e-14)
(0.119787 3.64781e-08 2.63599e-14)
(0.119787 3.59097e-08 2.63413e-14)
(0.119787 3.50186e-08 2.6343e-14)
(0.119787 3.41699e-08 2.6337e-14)
(0.119787 3.25489e-08 2.63431e-14)
(0.119787 3.32129e-08 2.63376e-14)
(0.119787 3.53115e-08 2.63243e-14)
(0.119787 3.73439e-08 2.63315e-14)
(0.119787 3.70818e-08 2.63345e-14)
(0.119787 3.06204e-08 2.63466e-14)
(0.119787 2.19746e-08 2.63433e-14)
(0.119787 1.33764e-08 2.63283e-14)
(0.119787 5.08942e-09 2.63404e-14)
(0.119786 -2.93106e-09 2.63441e-14)
(0.119786 -1.07617e-08 2.63528e-14)
(0.119786 -1.85641e-08 2.63489e-14)
(0.119786 -2.602e-08 2.63405e-14)
(0.119786 -3.3029e-08 2.63562e-14)
(0.119786 -3.81465e-08 2.63548e-14)
(0.119786 -4.26869e-08 2.63585e-14)
(0.119786 -4.04651e-08 2.63505e-14)
(0.119786 -3.84662e-08 2.63514e-14)
(0.119786 -1.62778e-08 2.63725e-14)
(0.120744 -4.61455e-08 2.71507e-14)
(0.120744 -1.85814e-08 2.70905e-14)
(0.120744 -3.36165e-09 2.71337e-14)
(0.120744 4.14221e-09 2.7134e-14)
(0.120744 5.9184e-09 2.71313e-14)
(0.120744 6.99157e-09 2.71579e-14)
(0.120744 7.72973e-09 2.70559e-14)
(0.120744 8.19996e-09 2.70985e-14)
(0.120744 8.5933e-09 2.70357e-14)
(0.120744 9.1004e-09 2.71298e-14)
(0.120744 9.75333e-09 2.70649e-14)
(0.120744 1.04982e-08 2.69461e-14)
(0.120744 1.16466e-08 2.6987e-14)
(0.120745 1.32698e-08 2.69079e-14)
(0.120745 1.50641e-08 2.70354e-14)
(0.120745 1.71507e-08 2.69901e-14)
(0.120745 1.94496e-08 2.68639e-14)
(0.120745 2.16899e-08 2.69085e-14)
(0.120745 2.39554e-08 2.6837e-14)
(0.120745 2.61315e-08 2.69547e-14)
(0.120745 2.79702e-08 2.69214e-14)
(0.120745 2.96672e-08 2.68079e-14)
(0.120745 3.12535e-08 2.68596e-14)
(0.120745 3.25765e-08 2.67729e-14)
(0.120745 3.38311e-08 2.68832e-14)
(0.120745 3.48318e-08 2.68605e-14)
(0.120745 3.55988e-08 2.67532e-14)
(0.120745 3.62462e-08 2.68312e-14)
(0.120745 3.66899e-08 2.67619e-14)
(0.120745 3.7025e-08 2.68534e-14)
(0.120745 3.73496e-08 2.68181e-14)
(0.120745 3.7516e-08 2.6696e-14)
(0.120745 3.75113e-08 2.67559e-14)
(0.120745 3.7369e-08 2.67184e-14)
(0.120745 3.71799e-08 2.68253e-14)
(0.120745 3.68686e-08 2.67986e-14)
(0.120745 3.63844e-08 2.6782e-14)
(0.120745 3.60017e-08 2.67442e-14)
(0.120745 3.53383e-08 2.67403e-14)
(0.120745 3.46854e-08 2.67493e-14)
(0.120745 3.34576e-08 2.67527e-14)
(0.120745 3.32442e-08 2.67604e-14)
(0.120745 3.4772e-08 2.67323e-14)
(0.120745 3.74369e-08 2.67362e-14)
(0.120745 3.93412e-08 2.67528e-14)
(0.120745 3.64497e-08 2.67602e-14)
(0.120745 2.97065e-08 2.67699e-14)
(0.120745 2.16568e-08 2.67344e-14)
(0.120745 1.33459e-08 2.67437e-14)
(0.120745 5.07717e-09 2.67606e-14)
(0.120745 -3.06852e-09 2.67653e-14)
(0.120745 -1.11104e-08 2.67741e-14)
(0.120745 -1.88624e-08 2.67405e-14)
(0.120745 -2.61837e-08 2.67564e-14)
(0.120744 -3.15919e-08 2.67698e-14)
(0.120744 -3.64978e-08 2.6773e-14)
(0.120744 -3.44281e-08 2.67789e-14)
(0.120744 -3.30167e-08 2.67623e-14)
(0.120744 -9.91378e-09 2.67789e-14)
(0.121675 -4.48998e-08 2.76062e-14)
(0.121675 -1.59878e-08 2.75422e-14)
(0.121675 -1.19502e-09 2.761e-14)
(0.121675 5.20246e-09 2.75455e-14)
(0.121675 5.85319e-09 2.75331e-14)
(0.121675 5.49581e-09 2.76189e-14)
(0.121675 4.94541e-09 2.75334e-14)
(0.121675 4.45129e-09 2.75466e-14)
(0.121675 4.22999e-09 2.75036e-14)
(0.121675 4.34228e-09 2.76415e-14)
(0.121675 4.79413e-09 2.74677e-14)
(0.121675 5.50846e-09 2.74034e-14)
(0.121675 6.65469e-09 2.74216e-14)
(0.121675 8.27558e-09 2.73808e-14)
(0.121675 1.01835e-08 2.75404e-14)
(0.121675 1.24082e-08 2.73913e-14)
(0.121675 1.48079e-08 2.7321e-14)
(0.121675 1.71436e-08 2.74262e-14)
(0.121675 1.95592e-08 2.73125e-14)
(0.121675 2.19757e-08 2.7507e-14)
(0.121675 2.40282e-08 2.73198e-14)
(0.121675 2.59258e-08 2.72754e-14)
(0.121675 2.77364e-08 2.73375e-14)
(0.121675 2.92626e-08 2.72449e-14)
(0.121675 3.07397e-08 2.7349e-14)
(0.121675 3.20218e-08 2.72541e-14)
(0.121675 3.30493e-08 2.72126e-14)
(0.121675 3.39392e-08 2.73053e-14)
(0.121675 3.46339e-08 2.72232e-14)
(0.121675 3.52582e-08 2.73623e-14)
(0.121675 3.58682e-08 2.72122e-14)
(0.121675 3.62624e-08 2.71574e-14)
(0.121675 3.64876e-08 2.71895e-14)
(0.121675 3.65859e-08 2.71696e-14)
(0.121675 3.66403e-08 2.72765e-14)
(0.121675 3.66106e-08 2.7215e-14)
(0.121675 3.63843e-08 2.71916e-14)
(0.121675 3.62185e-08 2.71585e-14)
(0.121675 3.57607e-08 2.7133e-14)
(0.121675 3.52777e-08 2.71588e-14)
(0.121675 3.44611e-08 2.71566e-14)
(0.121675 3.37817e-08 2.71763e-14)
(0.121675 3.45265e-08 2.71535e-14)
(0.121675 3.67609e-08 2.71366e-14)
(0.121675 3.94557e-08 2.71681e-14)
(0.121675 3.93591e-08 2.71682e-14)
(0.121675 3.51575e-08 2.71905e-14)
(0.121675 2.85587e-08 2.71233e-14)
(0.121675 2.08817e-08 2.71435e-14)
(0.121675 1.27681e-08 2.71751e-14)
(0.121675 4.59925e-09 2.71728e-14)
(0.121675 -3.55336e-09 2.71937e-14)
(0.121675 -1.14604e-08 2.71289e-14)
(0.121675 -1.89895e-08 2.7152e-14)
(0.121675 -2.46803e-08 2.71824e-14)
(0.121675 -2.98761e-08 2.71822e-14)
(0.121675 -2.80551e-08 2.72019e-14)
(0.121675 -2.72138e-08 2.71913e-14)
(0.121675 -3.69818e-09 2.71802e-14)
(0.122579 -4.44952e-08 2.79733e-14)
(0.122579 -1.41737e-08 2.79812e-14)
(0.122579 9.15623e-10 2.79951e-14)
(0.122579 6.76885e-09 2.79389e-14)
(0.122579 6.65951e-09 2.79411e-14)
(0.122579 5.13721e-09 2.79861e-14)
(0.122579 3.36604e-09 2.79822e-14)
(0.122579 1.84317e-09 2.79822e-14)
(0.122579 8.21969e-10 2.79554e-14)
(0.122579 3.50631e-10 2.79996e-14)
(0.122579 3.99565e-10 2.79055e-14)
(0.122579 9.26606e-10 2.78558e-14)
(0.122579 1.97967e-09 2.78599e-14)
(0.122579 3.51091e-09 2.78289e-14)
(0.122579 5.45667e-09 2.79028e-14)
(0.122579 7.78136e-09 2.78242e-14)
(0.122579 1.0231e-08 2.77727e-14)
(0.122579 1.26784e-08 2.77821e-14)
(0.122579 1.52013e-08 2.77631e-14)
(0.122579 1.77952e-08 2.78217e-14)
(0.122579 2.00526e-08 2.77589e-14)
(0.122579 2.21499e-08 2.7728e-14)
(0.122579 2.42143e-08 2.77219e-14)
(0.122579 2.59725e-08 2.76936e-14)
(0.122579 2.76747e-08 2.77436e-14)
(0.122579 2.92403e-08 2.76893e-14)
(0.122579 3.05311e-08 2.76657e-14)
(0.122579 3.16462e-08 2.76991e-14)
(0.122579 3.26008e-08 2.76645e-14)
(0.122579 3.35188e-08 2.77133e-14)
(0.122579 3.44121e-08 2.76498e-14)
(0.122579 3.50489e-08 2.76083e-14)
(0.122579 3.55183e-08 2.76175e-14)
(0.122579 3.59088e-08 2.76081e-14)
(0.122579 3.62357e-08 2.76723e-14)
(0.122579 3.6464e-08 2.75886e-14)
(0.122579 3.64793e-08 2.75938e-14)
(0.122579 3.65483e-08 2.75559e-14)
(0.122579 3.63058e-08 2.75256e-14)
(0.122579 3.59687e-08 2.7569e-14)
(0.122579 3.56085e-08 2.75538e-14)
(0.122579 3.47632e-08 2.75887e-14)
(0.122579 3.47773e-08 2.75601e-14)
(0.122579 3.62846e-08 2.75382e-14)
(0.122579 3.8886e-08 2.75855e-14)
(0.122579 4.04368e-08 2.75697e-14)
(0.122579 3.85551e-08 2.76069e-14)
(0.122579 3.38085e-08 2.75735e-14)
(0.122579 2.72677e-08 2.7547e-14)
(0.122579 1.97678e-08 2.75909e-14)
(0.122579 1.18716e-08 2.75743e-14)
(0.122579 3.81581e-09 2.76103e-14)
(0.122579 -4.05178e-09 2.75737e-14)
(0.122579 -1.16687e-08 2.75525e-14)
(0.122579 -1.7595e-08 2.75938e-14)
(0.122579 -2.30408e-08 2.75842e-14)
(0.122579 -2.14762e-08 2.7623e-14)
(0.122579 -2.11934e-08 2.76034e-14)
(0.122579 2.42599e-09 2.75812e-14)
(0.123457 -4.45706e-08 2.83811e-14)
(0.123457 -1.31386e-08 2.84145e-14)
(0.123457 2.47693e-09 2.83994e-14)
(0.123457 8.33292e-09 2.83091e-14)
(0.123457 7.79759e-09 2.83167e-14)
(0.123457 5.45158e-09 2.83818e-14)
(0.123457 2.71734e-09 2.8416e-14)
(0.123457 2.24716e-10 2.83981e-14)
(0.123457 -1.63816e-09 2.83923e-14)
(0.123457 -2.83942e-09 2.83677e-14)
(0.123457 -3.30221e-09 2.8314e-14)
(0.123457 -3.09661e-09 2.82963e-14)
(0.123457 -2.27071e-09 2.82638e-14)
(0.123457 -8.57892e-10 2.82631e-14)
(0.123457 1.06795e-09 2.82653e-14)
(0.123457 3.39328e-09 2.82305e-14)
(0.123457 5.84136e-09 2.82112e-14)
(0.123457 8.35707e-09 2.81909e-14)
(0.123457 1.09755e-08 2.82009e-14)
(0.123457 1.37142e-08 2.81924e-14)
(0.123457 1.61824e-08 2.81706e-14)
(0.123457 1.84812e-08 2.81669e-14)
(0.123457 2.07623e-08 2.81258e-14)
(0.123457 2.27549e-08 2.8127e-14)
(0.123457 2.46876e-08 2.81127e-14)
(0.123457 2.64907e-08 2.80991e-14)
(0.123457 2.80347e-08 2.81069e-14)
(0.123457 2.94128e-08 2.80981e-14)
(0.123457 3.06507e-08 2.8094e-14)
(0.123457 3.18933e-08 2.80871e-14)
(0.123457 3.30616e-08 2.80606e-14)
(0.123457 3.39245e-08 2.80488e-14)
(0.123457 3.4655e-08 2.80227e-14)
(0.123457 3.53508e-08 2.8035e-14)
(0.123457 3.59637e-08 2.80229e-14)
(0.123457 3.64253e-08 2.79394e-14)
(0.123457 3.67041e-08 2.79944e-14)
(0.123457 3.70159e-08 2.79628e-14)
(0.123457 3.6991e-08 2.79065e-14)
(0.123457 3.68905e-08 2.79848e-14)
(0.123457 3.68943e-08 2.7941e-14)
(0.123457 3.60783e-08 2.8004e-14)
(0.123457 3.56099e-08 2.7976e-14)
(0.123457 3.63778e-08 2.79316e-14)
(0.123457 3.84224e-08 2.80143e-14)
(0.123457 4.06226e-08 2.79622e-14)
(0.123457 4.04753e-08 2.80256e-14)
(0.123457 3.75297e-08 2.80013e-14)
(0.123457 3.23981e-08 2.79394e-14)
(0.123457 2.58553e-08 2.80144e-14)
(0.123457 1.85408e-08 2.79669e-14)
(0.123457 1.08035e-08 2.80328e-14)
(0.123457 3.10235e-09 2.80027e-14)
(0.123457 -4.45501e-09 2.79396e-14)
(0.123457 -1.05003e-08 2.80099e-14)
(0.123457 -1.61104e-08 2.79756e-14)
(0.123457 -1.48641e-08 2.80517e-14)
(0.123457 -1.5122e-08 2.80309e-14)
(0.123457 8.49446e-09 2.79691e-14)
(0.12431 -4.49635e-08 2.87984e-14)
(0.12431 -1.27744e-08 2.87588e-14)
(0.12431 3.43288e-09 2.87803e-14)
(0.12431 9.50937e-09 2.86168e-14)
(0.12431 8.86873e-09 2.87041e-14)
(0.12431 6.03407e-09 2.87882e-14)
(0.12431 2.61048e-09 2.8756e-14)
(0.12431 -6.55713e-10 2.87977e-14)
(0.12431 -3.31956e-09 2.87331e-14)
(0.12431 -5.21986e-09 2.87382e-14)
(0.12431 -6.26413e-09 2.87119e-14)
(0.12431 -6.52578e-09 2.86406e-14)
(0.12431 -5.98783e-09 2.86541e-14)
(0.12431 -4.73549e-09 2.86014e-14)
(0.12431 -2.94523e-09 2.86359e-14)
(0.124311 -6.8751e-10 2.86271e-14)
(0.124311 1.77578e-09 2.85536e-14)
(0.124311 4.33467e-09 2.85846e-14)
(0.124311 6.99267e-09 2.85445e-14)
(0.124311 9.81903e-09 2.85496e-14)
(0.124311 1.24555e-08 2.85705e-14)
(0.124311 1.49538e-08 2.85094e-14)
(0.124311 1.74513e-08 2.8508e-14)
(0.124311 1.96713e-08 2.84662e-14)
(0.124311 2.18378e-08 2.84727e-14)
(0.124311 2.38808e-08 2.84986e-14)
(0.124311 2.56662e-08 2.84525e-14)
(0.124311 2.72966e-08 2.84841e-14)
(0.124311 2.88605e-08 2.84295e-14)
(0.124311 3.04006e-08 2.84527e-14)
(0.124311 3.17998e-08 2.84616e-14)
(0.124311 3.29323e-08 2.83955e-14)
(0.124311 3.3967e-08 2.84098e-14)
(0.124311 3.49762e-08 2.83689e-14)
(0.124311 3.58633e-08 2.83684e-14)
(0.124311 3.65466e-08 2.83562e-14)
(0.124311 3.70635e-08 2.84099e-14)
(0.124311 3.76116e-08 2.83487e-14)
(0.124311 3.78696e-08 2.83583e-14)
(0.124311 3.80564e-08 2.84113e-14)
(0.124311 3.83532e-08 2.83973e-14)
(0.124311 3.76408e-08 2.84298e-14)
(0.124311 3.69146e-08 2.83703e-14)
(0.124311 3.71347e-08 2.84004e-14)
(0.124311 3.8496e-08 2.847e-14)
(0.124311 4.07046e-08 2.84266e-14)
(0.124311 4.16167e-08 2.84542e-14)
(0.124311 4.01653e-08 2.84037e-14)
(0.124311 3.63753e-08 2.83995e-14)
(0.124311 3.09273e-08 2.84514e-14)
(0.124311 2.44518e-08 2.84302e-14)
(0.124311 1.72443e-08 2.84742e-14)
(0.124311 9.87129e-09 2.84048e-14)
(0.124311 2.49692e-09 2.83969e-14)
(0.12431 -3.56656e-09 2.84413e-14)
(0.12431 -9.23955e-09 2.84369e-14)
(0.12431 -8.34376e-09 2.85044e-14)
(0.12431 -9.21016e-09 2.8439e-14)
(0.12431 1.44373e-08 2.84284e-14)
(0.12514 -4.54541e-08 2.92377e-14)
(0.12514 -1.28642e-08 2.90861e-14)
(0.12514 3.73599e-09 2.92191e-14)
(0.12514 1.01332e-08 2.90528e-14)
(0.12514 9.5626e-09 2.911e-14)
(0.12514 6.56306e-09 2.91951e-14)
(0.12514 2.78237e-09 2.90743e-14)
(0.12514 -1.07842e-09 2.91619e-14)
(0.12514 -4.44569e-09 2.90531e-14)
(0.12514 -6.98362e-09 2.91027e-14)
(0.12514 -8.59654e-09 2.91051e-14)
(0.12514 -9.30432e-09 2.8965e-14)
(0.12514 -9.08296e-09 2.90679e-14)
(0.12514 -8.08755e-09 2.89174e-14)
(0.12514 -6.4739e-09 2.90003e-14)
(0.12514 -4.35052e-09 2.90197e-14)
(0.12514 -1.92825e-09 2.88771e-14)
(0.12514 6.12289e-10 2.89981e-14)
(0.12514 3.33851e-09 2.88682e-14)
(0.12514 6.2328e-09 2.89336e-14)
(0.12514 8.97039e-09 2.89639e-14)
(0.12514 1.16762e-08 2.88312e-14)
(0.12514 1.43471e-08 2.89213e-14)
(0.12514 1.67912e-08 2.87883e-14)
(0.12514 1.91935e-08 2.88592e-14)
(0.12514 2.14447e-08 2.88937e-14)
(0.12514 2.34695e-08 2.87783e-14)
(0.12514 2.53703e-08 2.88622e-14)
(0.12514 2.72389e-08 2.87432e-14)
(0.125141 2.90832e-08 2.88265e-14)
(0.125141 3.07153e-08 2.88577e-14)
(0.125141 3.21418e-08 2.87249e-14)
(0.125141 3.34605e-08 2.87902e-14)
(0.125141 3.47224e-08 2.86824e-14)
(0.125141 3.5939e-08 2.87096e-14)
(0.125141 3.68866e-08 2.87635e-14)
(0.125141 3.76251e-08 2.88003e-14)
(0.125141 3.83953e-08 2.87115e-14)
(0.125141 3.89935e-08 2.88578e-14)
(0.12514 3.9449e-08 2.89007e-14)
(0.12514 3.99314e-08 2.88398e-14)
(0.12514 3.94274e-08 2.89159e-14)
(0.12514 3.86623e-08 2.87404e-14)
(0.12514 3.85753e-08 2.89004e-14)
(0.12514 3.93108e-08 2.89169e-14)
(0.12514 4.11368e-08 2.88795e-14)
(0.12514 4.25036e-08 2.88702e-14)
(0.12514 4.20818e-08 2.87803e-14)
(0.12514 3.95096e-08 2.88747e-14)
(0.12514 3.51531e-08 2.89089e-14)
(0.12514 2.95848e-08 2.88802e-14)
(0.12514 2.30956e-08 2.88869e-14)
(0.12514 1.61492e-08 2.87804e-14)
(0.12514 9.06952e-09 2.88285e-14)
(0.12514 3.07805e-09 2.88957e-14)
(0.12514 -2.6007e-09 2.88878e-14)
(0.12514 -1.97283e-09 2.89154e-14)
(0.12514 -3.53884e-09 2.88263e-14)
(0.12514 2.01126e-08 2.89023e-14)
(0.125947 -4.60073e-08 2.95258e-14)
(0.125947 -1.32806e-08 2.93705e-14)
(0.125947 3.49817e-09 2.94366e-14)
(0.125947 1.01454e-08 2.94217e-14)
(0.125947 9.80815e-09 2.94495e-14)
(0.125947 6.83999e-09 2.95204e-14)
(0.125947 2.89169e-09 2.93469e-14)
(0.125947 -1.35849e-09 2.94635e-14)
(0.125947 -5.22458e-09 2.93304e-14)
(0.125947 -8.20917e-09 2.93398e-14)
(0.125947 -1.03528e-08 2.94007e-14)
(0.125947 -1.15166e-08 2.92552e-14)
(0.125947 -1.16267e-08 2.93354e-14)
(0.125947 -1.08884e-08 2.91962e-14)
(0.125947 -9.53189e-09 2.92367e-14)
(0.125947 -7.57102e-09 2.93156e-14)
(0.125947 -5.17732e-09 2.91683e-14)
(0.125947 -2.69418e-09 2.92659e-14)
(0.125947 7.65828e-11 2.91539e-14)
(0.125947 2.99453e-09 2.91652e-14)
(0.125947 5.78148e-09 2.92722e-14)
(0.125947 8.65664e-09 2.91164e-14)
(0.125947 1.15053e-08 2.9188e-14)
(0.125947 1.41973e-08 2.90787e-14)
(0.125947 1.68376e-08 2.90973e-14)
(0.125947 1.92318e-08 2.9205e-14)
(0.125947 2.1516e-08 2.90674e-14)
(0.125947 2.37206e-08 2.91681e-14)
(0.125947 2.58274e-08 2.90157e-14)
(0.125947 2.79402e-08 2.90591e-14)
(0.125947 2.98301e-08 2.91627e-14)
(0.125947 3.1561e-08 2.90215e-14)
(0.125947 3.31709e-08 2.9099e-14)
(0.125947 3.4711e-08 2.89554e-14)
(0.125947 3.62074e-08 2.89736e-14)
(0.125947 3.74296e-08 2.90924e-14)
(0.125947 3.84546e-08 2.91056e-14)
(0.125947 3.94246e-08 2.90321e-14)
(0.125947 4.03131e-08 2.91414e-14)
(0.125947 4.10417e-08 2.91386e-14)
(0.125947 4.17414e-08 2.91898e-14)
(0.125947 4.14756e-08 2.91531e-14)
(0.125947 4.07834e-08 2.90812e-14)
(0.125947 4.05523e-08 2.91923e-14)
(0.125947 4.08437e-08 2.92043e-14)
(0.125947 4.21766e-08 2.92283e-14)
(0.125947 4.35678e-08 2.9188e-14)
(0.125947 4.37473e-08 2.91243e-14)
(0.125947 4.21175e-08 2.92033e-14)
(0.125947 3.87589e-08 2.91938e-14)
(0.125947 3.40756e-08 2.92372e-14)
(0.125947 2.82857e-08 2.92132e-14)
(0.125947 2.18889e-08 2.91106e-14)
(0.125947 1.52208e-08 2.91951e-14)
(0.125947 9.35429e-09 2.91851e-14)
(0.125947 3.76557e-09 2.9249e-14)
(0.125947 4.08067e-09 2.92491e-14)
(0.125947 1.70805e-09 2.91748e-14)
(0.125947 2.54749e-08 2.92386e-14)
(0.126731 -4.65471e-08 2.98331e-14)
(0.126731 -1.38308e-08 2.96645e-14)
(0.126731 2.84707e-09 2.97422e-14)
(0.126731 9.55232e-09 2.97881e-14)
(0.126731 9.50971e-09 2.9793e-14)
(0.126731 6.76845e-09 2.98388e-14)
(0.126731 2.76511e-09 2.9687e-14)
(0.126731 -1.66413e-09 2.97583e-14)
(0.126731 -5.8319e-09 2.96543e-14)
(0.126731 -9.19855e-09 2.96683e-14)
(0.126731 -1.1709e-08 2.97117e-14)
(0.126731 -1.31833e-08 2.95517e-14)
(0.126731 -1.36328e-08 2.96502e-14)
(0.126731 -1.31987e-08 2.94588e-14)
(0.126731 -1.20701e-08 2.95667e-14)
(0.126731 -1.03254e-08 2.96288e-14)
(0.126731 -8.03557e-09 2.95045e-14)
(0.126731 -5.5406e-09 2.95797e-14)
(0.126731 -2.76626e-09 2.94147e-14)
(0.126731 1.30954e-10 2.95216e-14)
(0.126731 2.98049e-09 2.95942e-14)
(0.126731 5.99232e-09 2.94205e-14)
(0.126731 8.99413e-09 2.95142e-14)
(0.126731 1.18914e-08 2.93517e-14)
(0.126731 1.47628e-08 2.94604e-14)
(0.126731 1.73247e-08 2.95321e-14)
(0.126731 1.98478e-08 2.94111e-14)
(0.126731 2.23528e-08 2.94893e-14)
(0.126731 2.46938e-08 2.93598e-14)
(0.126731 2.70543e-08 2.94015e-14)
(0.126731 2.92182e-08 2.94835e-14)
(0.126731 3.12398e-08 2.93631e-14)
(0.126731 3.3086e-08 2.94254e-14)
(0.126731 3.48952e-08 2.92294e-14)
(0.126731 3.67104e-08 2.9332e-14)
(0.126731 3.82056e-08 2.94445e-14)
(0.126731 3.95555e-08 2.94529e-14)
(0.126731 4.07557e-08 2.93335e-14)
(0.126731 4.18879e-08 2.94953e-14)
(0.126731 4.28397e-08 2.95073e-14)
(0.126731 4.37273e-08 2.95472e-14)
(0.126731 4.37546e-08 2.95125e-14)
(0.126731 4.32771e-08 2.93428e-14)
(0.126731 4.30219e-08 2.9542e-14)
(0.126731 4.3029e-08 2.95515e-14)
(0.126731 4.39073e-08 2.95867e-14)
(0.126731 4.50244e-08 2.95549e-14)
(0.126731 4.54692e-08 2.94671e-14)
(0.126731 4.45133e-08 2.95722e-14)
(0.126731 4.19696e-08 2.9567e-14)
(0.126731 3.80662e-08 2.96023e-14)
(0.126731 3.29834e-08 2.95732e-14)
(0.126731 2.71604e-08 2.94253e-14)
(0.126731 2.09087e-08 2.95618e-14)
(0.126731 1.52058e-08 2.95661e-14)
(0.126731 9.74977e-09 2.96211e-14)
(0.126731 9.81752e-09 2.96041e-14)
(0.126731 6.5385e-09 2.95139e-14)
(0.126731 3.04676e-08 2.96132e-14)
(0.127493 -4.6991e-08 3.01446e-14)
(0.127493 -1.44891e-08 3.00744e-14)
(0.127493 1.87309e-09 3.00668e-14)
(0.127493 8.47477e-09 3.01571e-14)
(0.127493 8.72051e-09 3.01373e-14)
(0.127493 6.22127e-09 3.01541e-14)
(0.127493 2.24437e-09 3.00583e-14)
(0.127493 -2.17941e-09 3.00873e-14)
(0.127493 -6.40763e-09 3.00291e-14)
(0.127493 -9.99178e-09 3.00241e-14)
(0.127493 -1.27582e-08 3.00289e-14)
(0.127493 -1.45248e-08 2.99653e-14)
(0.127493 -1.52676e-08 2.9982e-14)
(0.127493 -1.50389e-08 2.99129e-14)
(0.127493 -1.41503e-08 2.99306e-14)
(0.127493 -1.25952e-08 2.99512e-14)
(0.127493 -1.04066e-08 2.98889e-14)
(0.127493 -7.95209e-09 2.9914e-14)
(0.127493 -5.22308e-09 2.98716e-14)
(0.127493 -2.32783e-09 2.98925e-14)
(0.127493 6.21356e-10 2.99213e-14)
(0.127493 3.7651e-09 2.98425e-14)
(0.127493 6.88468e-09 2.98631e-14)
(0.127493 9.90555e-09 2.98193e-14)
(0.127493 1.30009e-08 2.9841e-14)
(0.127493 1.57325e-08 2.98656e-14)
(0.127493 1.84776e-08 2.97986e-14)
(0.127493 2.1336e-08 2.98306e-14)
(0.127493 2.38423e-08 2.97452e-14)
(0.127493 2.63987e-08 2.97769e-14)
(0.127493 2.89264e-08 2.98117e-14)
(0.127493 3.11725e-08 2.97527e-14)
(0.127493 3.32643e-08 2.97688e-14)
(0.127493 3.54082e-08 2.96876e-14)
(0.127493 3.74458e-08 2.97164e-14)
(0.127493 3.92051e-08 2.97344e-14)
(0.127493 4.09066e-08 2.97876e-14)
(0.127493 4.2358e-08 2.97555e-14)
(0.127493 4.37068e-08 2.98119e-14)
(0.127493 4.49109e-08 2.98595e-14)
(0.127493 4.59993e-08 2.98294e-14)
(0.127493 4.63029e-08 2.98488e-14)
(0.127493 4.61086e-08 2.98118e-14)
(0.127493 4.586e-08 2.98519e-14)
(0.127493 4.57239e-08 2.98998e-14)
(0.127493 4.63027e-08 2.98721e-14)
(0.127493 4.7086e-08 2.98971e-14)
(0.127493 4.75304e-08 2.98704e-14)
(0.127493 4.69732e-08 2.98959e-14)
(0.127493 4.50361e-08 2.99276e-14)
(0.127493 4.17516e-08 2.98936e-14)
(0.127493 3.7251e-08 2.99163e-14)
(0.127493 3.19779e-08 2.98613e-14)
(0.127493 2.61693e-08 2.98953e-14)
(0.127493 2.0719e-08 2.99358e-14)
(0.127493 1.53607e-08 2.99186e-14)
(0.127493 1.50713e-08 2.99496e-14)
(0.127493 1.09263e-08 2.99194e-14)
(0.127493 3.50543e-08 2.99411e-14)
(0.128234 -4.73183e-08 3.04566e-14)
(0.128234 -1.51369e-08 3.04311e-14)
(0.128234 7.05194e-10 3.03949e-14)
(0.128234 7.04071e-09 3.04848e-14)
(0.128234 7.4515e-09 3.04684e-14)
(0.128234 5.18314e-09 3.04679e-14)
(0.128234 1.34053e-09 3.04328e-14)
(0.128234 -2.9679e-09 3.04204e-14)
(0.128234 -7.14741e-09 3.03898e-14)
(0.128234 -1.08037e-08 3.0388e-14)
(0.128234 -1.36674e-08 3.0343e-14)
(0.128234 -1.55873e-08 3.03242e-14)
(0.128234 -1.6557e-08 3.03181e-14)
(0.128234 -1.65519e-08 3.02911e-14)
(0.128234 -1.58473e-08 3.03068e-14)
(0.128234 -1.44495e-08 3.02737e-14)
(0.128234 -1.23313e-08 3.02566e-14)
(0.128234 -9.91576e-09 3.02559e-14)
(0.128234 -7.25981e-09 3.02457e-14)
(0.128234 -4.3286e-09 3.02702e-14)
(0.128234 -1.25263e-09 3.02462e-14)
(0.128234 1.94926e-09 3.02213e-14)
(0.128234 5.13031e-09 3.02179e-14)
(0.128234 8.29881e-09 3.02067e-14)
(0.128234 1.15473e-08 3.02282e-14)
(0.128234 1.45124e-08 3.01971e-14)
(0.128234 1.7503e-08 3.01777e-14)
(0.128234 2.06165e-08 3.01777e-14)
(0.128234 2.33426e-08 3.01412e-14)
(0.128234 2.60651e-08 3.01627e-14)
(0.128234 2.88897e-08 3.01394e-14)
(0.128234 3.14252e-08 3.01252e-14)
(0.128234 3.37833e-08 3.0118e-14)
(0.128234 3.61583e-08 3.0085e-14)
(0.128234 3.84575e-08 3.01069e-14)
(0.128234 4.05185e-08 3.0024e-14)
(0.128234 4.24992e-08 3.01323e-14)
(0.128234 4.4264e-08 3.01578e-14)
(0.128234 4.5837e-08 3.01368e-14)
(0.128234 4.72269e-08 3.02154e-14)
(0.128234 4.85251e-08 3.01002e-14)
(0.128234 4.91219e-08 3.0188e-14)
(0.128234 4.92291e-08 3.02099e-14)
(0.128234 4.90313e-08 3.01761e-14)
(0.128234 4.88559e-08 3.02566e-14)
(0.128234 4.92718e-08 3.01466e-14)
(0.128234 4.97885e-08 3.02407e-14)
(0.128234 5.01374e-08 3.02811e-14)
(0.128234 4.96712e-08 3.02306e-14)
(0.128234 4.80916e-08 3.02932e-14)
(0.128234 4.53051e-08 3.01746e-14)
(0.128234 4.12918e-08 3.02645e-14)
(0.128234 3.64659e-08 3.02818e-14)
(0.128234 3.10872e-08 3.02386e-14)
(0.128234 2.58781e-08 3.03085e-14)
(0.128234 2.05806e-08 3.02044e-14)
(0.128234 1.98692e-08 3.03023e-14)
(0.128234 1.47868e-08 3.03143e-14)
(0.128234 3.92767e-08 3.02776e-14)
(0.128954 -4.74834e-08 3.07652e-14)
(0.128954 -1.5715e-08 3.07775e-14)
(0.128954 -5.66569e-10 3.07132e-14)
(0.128954 5.33022e-09 3.08405e-14)
(0.128955 5.75536e-09 3.07959e-14)
(0.128955 3.67422e-09 3.07757e-14)
(0.128955 3.72638e-11 3.07875e-14)
(0.128955 -4.09358e-09 3.07439e-14)
(0.128955 -8.09276e-09 3.07432e-14)
(0.128955 -1.16903e-08 3.07523e-14)
(0.128955 -1.45851e-08 3.06411e-14)
(0.128955 -1.66022e-08 3.0679e-14)
(0.128955 -1.76781e-08 3.06513e-14)
(0.128955 -1.77512e-08 3.06616e-14)
(0.128955 -1.71666e-08 3.0685e-14)
(0.128955 -1.59012e-08 3.05828e-14)
(0.128955 -1.38574e-08 3.06213e-14)
(0.128955 -1.14643e-08 3.05962e-14)
(0.128955 -8.84174e-09 3.06165e-14)
(0.128955 -5.90515e-09 3.06501e-14)
(0.128955 -2.74357e-09 3.05571e-14)
(0.128955 5.45475e-10 3.05942e-14)
(0.128955 3.82787e-09 3.05678e-14)
(0.128955 7.07545e-09 3.05879e-14)
(0.128955 1.04699e-08 3.0616e-14)
(0.128955 1.37207e-08 3.05144e-14)
(0.128955 1.69034e-08 3.05496e-14)
(0.128955 2.02401e-08 3.05207e-14)
(0.128955 2.31494e-08 3.05236e-14)
(0.128955 2.60327e-08 3.05489e-14)
(0.128955 2.91749e-08 3.04532e-14)
(0.128955 3.19774e-08 3.04943e-14)
(0.128955 3.46121e-08 3.04644e-14)
(0.128955 3.72722e-08 3.04695e-14)
(0.128955 3.98194e-08 3.04945e-14)
(0.128955 4.21347e-08 3.03669e-14)
(0.128955 4.43274e-08 3.04331e-14)
(0.128955 4.63881e-08 3.05946e-14)
(0.128955 4.82348e-08 3.04494e-14)
(0.128955 4.98957e-08 3.05082e-14)
(0.128955 5.13893e-08 3.04145e-14)
(0.128955 5.22132e-08 3.04801e-14)
(0.128955 5.25933e-08 3.0571e-14)
(0.128954 5.25118e-08 3.04915e-14)
(0.128954 5.23888e-08 3.05503e-14)
(0.128954 5.27343e-08 3.04641e-14)
(0.128954 5.30568e-08 3.0536e-14)
(0.128954 5.32344e-08 3.07104e-14)
(0.128954 5.27554e-08 3.05534e-14)
(0.128954 5.13562e-08 3.05955e-14)
(0.128954 4.88859e-08 3.04997e-14)