/*--------------------------------*- C++ -*----------------------------------*\
  =========                 |
  \\      /  F ield         | OpenFOAM: The Open Source CFD Toolbox
   \\    /   O peration     | Website:  https://openfoam.org
    \\  /    A nd           | Version:  7
     \\/     M anipulation  |
\*---------------------------------------------------------------------------*/
FoamFile
{
    version     2.0;
    format      ascii;
    class       surfaceScalarField;
    location    "19500";
    object      phi;
}
// * * * * * * * * * * * * * * * * * * * * * * * * * * * * * * * * * * * * * //

dimensions      [0 3 -1 0 0 0 0];

internalField   nonuniform List<scalar> 
7846
(
0.000784091
-1.75189e-10
0.000784091
-2.21146e-10
0.000784091
-2.48544e-10
0.000784091
-2.70375e-10
0.000784091
-2.90607e-10
0.000784091
-3.1018e-10
0.000784091
-3.29088e-10
0.000784091
-3.47196e-10
0.000784091
-3.64373e-10
0.000784091
-3.80528e-10
0.000784091
-3.95614e-10
0.000784091
-4.09606e-10
0.000784091
-4.22497e-10
0.000784091
-4.34309e-10
0.000784091
-4.45089e-10
0.000784091
-4.54898e-10
0.000784091
-4.63796e-10
0.000784091
-4.71824e-10
0.000784091
-4.78995e-10
0.000784091
-4.8529e-10
0.000784091
-4.90669e-10
0.000784091
-4.95066e-10
0.00078409
-4.98412e-10
0.00078409
-5.00664e-10
0.00078409
-5.01833e-10
0.00078409
-5.01987e-10
0.00078409
-5.01238e-10
0.00078409
-4.99724e-10
0.00078409
-4.97586e-10
0.00078409
-4.94939e-10
0.00078409
-4.91855e-10
0.00078409
-4.88337e-10
0.00078409
-4.84303e-10
0.00078409
-4.79558e-10
0.00078409
-4.73752e-10
0.00078409
-4.66322e-10
0.00078409
-4.56407e-10
0.000784089
-4.42753e-10
0.000784089
-4.23521e-10
0.000784089
-3.96114e-10
0.000784089
-3.56551e-10
0.000784089
-2.99257e-10
0.000784089
-2.13749e-10
0.000784089
-8.51511e-11
0.000784089
1.22418e-10
0.000784089
3.46317e-10
0.000784089
4.96876e-10
0.000784089
5.9085e-10
0.000784089
6.49923e-10
0.000784089
6.84965e-10
0.000784089
7.03745e-10
0.000784089
7.11428e-10
0.000784089
7.11315e-10
0.000784089
7.05686e-10
0.000784089
6.96156e-10
0.000784089
6.83883e-10
0.000784089
6.69691e-10
0.000784089
6.5416e-10
0.000784089
6.37695e-10
0.000784088
6.20573e-10
0.000784088
6.02958e-10
0.000784088
5.84937e-10
0.000784088
5.66562e-10
0.000784088
5.47855e-10
0.000784088
5.2882e-10
0.000784088
5.09452e-10
0.000784088
4.89757e-10
0.000784088
4.69735e-10
0.000784089
4.49377e-10
0.000784089
4.28679e-10
0.000784089
4.07663e-10
0.000784089
3.86351e-10
0.000784089
3.64747e-10
0.000784089
3.42836e-10
0.000784089
3.20599e-10
0.000784089
2.98019e-10
0.000784089
2.75069e-10
0.000784089
2.51691e-10
0.000784089
2.2781e-10
0.000784089
2.03361e-10
0.000784089
1.783e-10
0.000784089
1.52584e-10
0.000784089
1.2616e-10
0.000784089
9.89747e-11
0.000784089
7.09877e-11
0.000784089
4.21822e-11
0.000784089
1.25643e-11
0.00078409
-1.78507e-11
0.00078409
-4.90373e-11
0.00078409
-8.0935e-11
0.00078409
-1.13426e-10
0.00078409
-1.4632e-10
0.00078409
-1.79334e-10
0.00078409
-2.1206e-10
0.00078409
-2.43903e-10
0.00078409
-2.7399e-10
0.00078409
-3.01064e-10
0.00078409
-3.23305e-10
0.00078409
-3.3813e-10
0.00078409
-3.4154e-10
0.000784091
-3.27873e-10
0.000784091
-2.86471e-10
0.000784091
-2.0221e-10
0.000784091
-3.87415e-11
0.000784091
1.41536e-10
0.000784091
2.4898e-10
0.000784091
3.00743e-10
0.000784091
3.18966e-10
0.000784091
3.14927e-10
0.000784091
2.96753e-10
0.000784091
2.69917e-10
0.000784091
2.38007e-10
0.000784091
2.03606e-10
0.000784091
1.68631e-10
0.000784091
1.34562e-10
0.000784091
1.02498e-10
0.000784091
7.34058e-11
0.000784091
4.67093e-11
0.000784091
1.07554e-11
-7.86381e-11
0.000765992
-2.13724e-10
0.000765992
-2.65444e-10
0.000765993
-2.82644e-10
0.000765993
-2.912e-10
0.000765993
-2.98759e-10
0.000765993
-3.07072e-10
0.000765993
-3.16136e-10
0.000765993
-3.25679e-10
0.000765992
-3.3542e-10
0.000765992
-3.45125e-10
0.000765992
-3.54623e-10
0.000765992
-3.63781e-10
0.000765992
-3.72499e-10
0.000765992
-3.80722e-10
0.000765992
-3.88435e-10
0.000765992
-3.95639e-10
0.000765992
-4.0234e-10
0.000765992
-4.08527e-10
0.000765992
-4.14164e-10
0.000765992
-4.19188e-10
0.000765992
-4.23512e-10
0.000765992
-4.2702e-10
0.000765992
-4.29589e-10
0.000765992
-4.31136e-10
0.000765992
-4.31648e-10
0.000765991
-4.3118e-10
0.000765991
-4.29839e-10
0.000765991
-4.27761e-10
0.000765991
-4.25084e-10
0.000765991
-4.21919e-10
0.000765991
-4.18323e-10
0.000765991
-4.14279e-10
0.000765991
-4.09667e-10
0.000765991
-4.04249e-10
0.000765991
-3.97634e-10
0.000765991
-3.89216e-10
0.000765991
-3.78095e-10
0.000765991
-3.62981e-10
0.00076599
-3.42029e-10
0.00076599
-3.12679e-10
0.00076599
-2.71143e-10
0.00076599
-2.12303e-10
0.00076599
-1.27287e-10
0.00076599
-5.99239e-12
0.00076599
1.72695e-10
0.00076599
3.66912e-10
0.00076599
5.1136e-10
0.00076599
6.08418e-10
0.00076599
6.71648e-10
0.00076599
7.10068e-10
0.00076599
7.31057e-10
0.00076599
7.39852e-10
0.00076599
7.39929e-10
0.00076599
7.33716e-10
0.00076599
7.22951e-10
0.00076599
7.08892e-10
0.00076599
6.92451e-10
0.00076599
6.74282e-10
0.00076599
6.54859e-10
0.00076599
6.34517e-10
0.00076599
6.13468e-10
0.00076599
5.91847e-10
0.00076599
5.69741e-10
0.00076599
5.47217e-10
0.00076599
5.24308e-10
0.00076599
5.01032e-10
0.00076599
4.77412e-10
0.00076599
4.53467e-10
0.00076599
4.29204e-10
0.00076599
4.04626e-10
0.00076599
3.79763e-10
0.00076599
3.54648e-10
0.00076599
3.29296e-10
0.00076599
3.03701e-10
0.00076599
2.77857e-10
0.00076599
2.5176e-10
0.00076599
2.25392e-10
0.00076599
1.98709e-10
0.00076599
1.71649e-10
0.00076599
1.44161e-10
0.00076599
1.16214e-10
0.00076599
8.77781e-11
0.00076599
5.88176e-11
0.00076599
2.92922e-11
0.000765991
-8.22279e-13
0.000765991
-3.15194e-11
0.000765991
-6.27653e-11
0.000765991
-9.45193e-11
0.000765991
-1.26731e-10
0.000765991
-1.59306e-10
0.000765991
-1.92089e-10
0.000765991
-2.24851e-10
0.000765991
-2.57269e-10
0.000765991
-2.88888e-10
0.000765991
-3.19072e-10
0.000765991
-3.46913e-10
0.000765991
-3.71129e-10
0.000765992
-3.8991e-10
0.000765992
-4.00727e-10
0.000765992
-3.99778e-10
0.000765992
-3.8185e-10
0.000765992
-3.37878e-10
0.000765992
-2.57478e-10
0.000765992
-1.19081e-10
0.000765992
3.58074e-11
0.000765992
1.42098e-10
0.000765992
2.02626e-10
0.000765992
2.31493e-10
0.000765992
2.38237e-10
0.000765992
2.30712e-10
0.000765992
2.14601e-10
0.000765993
1.9382e-10
0.000765993
1.71288e-10
0.000765993
1.49248e-10
0.000765993
1.29532e-10
0.000765993
1.13511e-10
0.000765993
1.02468e-10
0.000765992
9.48244e-11
0.000765992
6.78993e-11
-6.48778e-11
0.000748249
-2.53395e-10
0.000748249
-3.10266e-10
0.000748249
-3.16484e-10
0.000748249
-3.10938e-10
0.000748249
-3.05073e-10
0.000748249
-3.0146e-10
0.000748249
-3.00095e-10
0.000748249
-3.00547e-10
0.000748249
-3.02366e-10
0.000748249
-3.05167e-10
0.000748249
-3.08649e-10
0.000748249
-3.12571e-10
0.000748249
-3.16741e-10
0.000748249
-3.21031e-10
0.000748249
-3.2536e-10
0.000748249
-3.29674e-10
0.000748249
-3.33925e-10
0.000748249
-3.38054e-10
0.000748249
-3.41977e-10
0.000748248
-3.4558e-10
0.000748248
-3.48729e-10
0.000748248
-3.51249e-10
0.000748248
-3.52953e-10
0.000748248
-3.53716e-10
0.000748248
-3.53494e-10
0.000748248
-3.52334e-10
0.000748248
-3.5034e-10
0.000748248
-3.47651e-10
0.000748248
-3.44407e-10
0.000748248
-3.40718e-10
0.000748248
-3.36643e-10
0.000748248
-3.32148e-10
0.000748247
-3.2709e-10
0.000748247
-3.21198e-10
0.000748247
-3.14053e-10
0.000748247
-3.05028e-10
0.000748247
-2.93207e-10
0.000748247
-2.77304e-10
0.000748247
-2.55516e-10
0.000748247
-2.25405e-10
0.000748247
-1.83497e-10
0.000748247
-1.25312e-10
0.000748247
-4.37331e-11
0.000748247
6.78033e-11
0.000748246
2.20606e-10
0.000748246
3.86676e-10
0.000748246
5.2042e-10
0.000748246
6.17369e-10
0.000748246
6.83918e-10
0.000748246
7.26069e-10
0.000748246
7.49978e-10
0.000748246
7.60605e-10
0.000748246
7.61503e-10
0.000748246
7.55245e-10
0.000748246
7.43708e-10
0.000748246
7.28272e-10
0.000748246
7.09948e-10
0.000748246
6.89478e-10
0.000748246
6.67414e-10
0.000748246
6.44152e-10
0.000748246
6.19959e-10
0.000748246
5.95011e-10
0.000748246
5.69446e-10
0.000748246
5.4337e-10
0.000748246
5.16852e-10
0.000748246
4.89931e-10
0.000748246
4.62646e-10
0.000748246
4.35037e-10
0.000748246
4.07124e-10
0.000748246
3.78921e-10
0.000748246
3.50466e-10
0.000748246
3.21801e-10
0.000748246
2.92951e-10
0.000748246
2.63921e-10
0.000748246
2.34716e-10
0.000748247
2.05342e-10
0.000748247
1.75795e-10
0.000748247
1.4604e-10
0.000748247
1.16027e-10
0.000748247
8.57189e-11
0.000748247
5.50972e-11
0.000748247
2.41486e-11
0.000748247
-7.14871e-12
0.000748247
-3.8821e-11
0.000748247
-7.08775e-11
0.000748247
-1.0329e-10
0.000748247
-1.36001e-10
0.000748247
-1.68947e-10
0.000748247
-2.02053e-10
0.000748247
-2.35196e-10
0.000748248
-2.68185e-10
0.000748248
-3.00761e-10
0.000748248
-3.32569e-10
0.000748248
-3.63127e-10
0.000748248
-3.91772e-10
0.000748248
-4.17588e-10
0.000748248
-4.39312e-10
0.000748248
-4.55203e-10
0.000748248
-4.62875e-10
0.000748248
-4.58857e-10
0.000748248
-4.38574e-10
0.000748248
-3.94702e-10
0.000748248
-3.20365e-10
0.000748248
-2.03791e-10
0.000748249
-7.2539e-11
0.000748249
2.81821e-11
0.000748249
9.44463e-11
0.000748249
1.33277e-10
0.000748249
1.51299e-10
0.000748249
1.5526e-10
0.000748249
1.5069e-10
0.000748249
1.41737e-10
0.000748249
1.31649e-10
0.000748249
1.23008e-10
0.000748249
1.18011e-10
0.000748249
1.18304e-10
0.000748249
1.25474e-10
0.000748249
1.37042e-10
0.000748249
1.19861e-10
-5.41024e-11
0.000730859
-2.93362e-10
0.000730859
-3.54893e-10
0.000730859
-3.49685e-10
0.000730859
-3.29399e-10
0.000730859
-3.09371e-10
0.000730859
-2.93095e-10
0.000730859
-2.80624e-10
0.000730859
-2.71381e-10
0.000730859
-2.64743e-10
0.000730859
-2.60162e-10
0.000730859
-2.57201e-10
0.000730859
-2.55499e-10
0.000730859
-2.54775e-10
0.000730859
-2.54825e-10
0.000730859
-2.55501e-10
0.000730858
-2.5669e-10
0.000730858
-2.58296e-10
0.000730858
-2.60212e-10
0.000730858
-2.62304e-10
0.000730858
-2.6441e-10
0.000730858
-2.66338e-10
0.000730858
-2.67846e-10
0.000730858
-2.68674e-10
0.000730858
-2.68641e-10
0.000730858
-2.67675e-10
0.000730858
-2.65813e-10
0.000730858
-2.63167e-10
0.000730857
-2.59881e-10
0.000730857
-2.56102e-10
0.000730857
-2.51952e-10
0.000730857
-2.47494e-10
0.000730857
-2.42694e-10
0.000730857
-2.37393e-10
0.000730857
-2.31297e-10
0.000730857
-2.23974e-10
0.000730857
-2.1479e-10
0.000730857
-2.02832e-10
0.000730857
-1.86843e-10
0.000730856
-1.65103e-10
0.000730856
-1.35344e-10
0.000730856
-9.44637e-11
0.000730856
-3.86622e-11
0.000730856
3.75578e-11
0.000730856
1.38292e-10
0.000730856
2.68845e-10
0.000730856
4.09789e-10
0.000730856
5.29623e-10
0.000730856
6.21943e-10
0.000730856
6.88744e-10
0.000730856
7.33177e-10
0.000730856
7.59626e-10
0.000730856
7.72241e-10
0.000730856
7.74336e-10
0.000730856
7.68477e-10
0.000730856
7.56619e-10
0.000730856
7.4024e-10
0.000730856
7.20446e-10
0.000730856
6.98069e-10
0.000730856
6.73739e-10
0.000730856
6.4792e-10
0.000730856
6.20929e-10
0.000730856
5.92992e-10
0.000730856
5.64294e-10
0.000730856
5.34987e-10
0.000730856
5.05176e-10
0.000730856
4.7492e-10
0.000730856
4.44278e-10
0.000730856
4.1331e-10
0.000730856
3.82048e-10
0.000730856
3.50518e-10
0.000730856
3.18765e-10
0.000730856
2.86842e-10
0.000730856
2.54785e-10
0.000730856
2.22607e-10
0.000730856
1.90322e-10
0.000730856
1.5795e-10
0.000730856
1.25495e-10
0.000730856
9.29322e-11
0.000730856
6.02241e-11
0.000730856
2.73447e-11
0.000730856
-5.71093e-12
0.000730857
-3.894e-11
0.000730857
-7.23485e-11
0.000730857
-1.0595e-10
0.000730857
-1.39739e-10
0.000730857
-1.7367e-10
0.000730857
-2.07663e-10
0.000730857
-2.41638e-10
0.000730857
-2.75495e-10
0.000730857
-3.0908e-10
0.000730857
-3.42175e-10
0.000730857
-3.74496e-10
0.000730857
-4.0567e-10
0.000730857
-4.35192e-10
0.000730857
-4.62391e-10
0.000730858
-4.86367e-10
0.000730858
-5.05908e-10
0.000730858
-5.19389e-10
0.000730858
-5.24626e-10
0.000730858
-5.18551e-10
0.000730858
-4.97283e-10
0.000730858
-4.55101e-10
0.000730858
-3.87567e-10
0.000730858
-2.88897e-10
0.000730858
-1.78009e-10
0.000730858
-8.58664e-11
0.000730858
-1.82176e-11
0.000730859
2.76574e-11
0.000730859
5.56391e-11
0.000730859
7.0812e-11
0.000730859
7.80237e-11
0.000730859
8.13289e-11
0.000730859
8.41497e-11
0.000730859
8.93438e-11
0.000730859
9.94424e-11
0.000730859
1.16358e-10
0.000730859
1.41975e-10
0.000730859
1.73064e-10
0.000730859
1.66804e-10
-4.56647e-11
0.000713819
-3.32754e-10
0.000713819
-3.98308e-10
0.000713819
-3.81325e-10
0.000713819
-3.45849e-10
0.000713819
-3.11083e-10
0.000713819
-2.81507e-10
0.000713819
-2.57301e-10
0.000713819
-2.37784e-10
0.000713819
-2.22169e-10
0.000713819
-2.09749e-10
0.000713819
-1.99941e-10
0.000713818
-1.92265e-10
0.000713818
-1.86343e-10
0.000713818
-1.81894e-10
0.000713818
-1.787e-10
0.000713818
-1.76587e-10
0.000713818
-1.75414e-10
0.000713818
-1.75026e-10
0.000713818
-1.75243e-10
0.000713818
-1.75845e-10
0.000713818
-1.76581e-10
0.000713818
-1.77127e-10
0.000713818
-1.77137e-10
0.000713817
-1.76366e-10
0.000713817
-1.74706e-10
0.000713817
-1.72192e-10
0.000713817
-1.68947e-10
0.000713817
-1.65131e-10
0.000713817
-1.60908e-10
0.000713817
-1.56418e-10
0.000713817
-1.5174e-10
0.000713817
-1.46848e-10
0.000713817
-1.41575e-10
0.000713817
-1.3562e-10
0.000713816
-1.28542e-10
0.000713816
-1.1971e-10
0.000713816
-1.08231e-10
0.000713816
-9.28906e-11
0.000713816
-7.2074e-11
0.000713816
-4.37076e-11
0.000713816
-5.06867e-12
0.000713816
4.69971e-11
0.000713816
1.16629e-10
0.000713816
2.06247e-10
0.000713816
3.1769e-10
0.000713816
4.36859e-10
0.000713816
5.41677e-10
0.000713816
6.25911e-10
0.000713816
6.89452e-10
0.000713816
7.33564e-10
0.000713816
7.60996e-10
0.000713816
7.74845e-10
0.000713816
7.77894e-10
0.000713816
7.72486e-10
0.000713816
7.60518e-10
0.000713816
7.43492e-10
0.000713816
7.22567e-10
0.000713816
6.98645e-10
0.000713816
6.72423e-10
0.000713816
6.44422e-10
0.000713816
6.15007e-10
0.000713816
5.8445e-10
0.000713816
5.52985e-10
0.000713816
5.2081e-10
0.000713816
4.88061e-10
0.000713816
4.54823e-10
0.000713816
4.21175e-10
0.000713816
3.87193e-10
0.000713816
3.52926e-10
0.000713816
3.18407e-10
0.000713816
2.83689e-10
0.000713816
2.48838e-10
0.000713816
2.13901e-10
0.000713816
1.789e-10
0.000713816
1.43858e-10
0.000713816
1.088e-10
0.000713816
7.37417e-11
0.000713816
3.86693e-11
0.000713816
3.55461e-12
0.000713816
-3.16175e-11
0.000713816
-6.6838e-11
0.000713816
-1.02087e-10
0.000713816
-1.37354e-10
0.000713816
-1.72642e-10
0.000713816
-2.07931e-10
0.000713817
-2.43161e-10
0.000713817
-2.78236e-10
0.000713817
-3.13058e-10
0.000713817
-3.47504e-10
0.000713817
-3.81391e-10
0.000713817
-4.14476e-10
0.000713817
-4.4646e-10
0.000713817
-4.76954e-10
0.000713817
-5.05443e-10
0.000713817
-5.31258e-10
0.000713817
-5.53538e-10
0.000713817
-5.71142e-10
0.000713817
-5.82596e-10
0.000713817
-5.85955e-10
0.000713818
-5.78578e-10
0.000713818
-5.57258e-10
0.000713818
-5.17616e-10
0.000713818
-4.56857e-10
0.000713818
-3.72645e-10
0.000713818
-2.78508e-10
0.000713818
-1.95839e-10
0.000713818
-1.30095e-10
0.000713818
-8.05494e-11
0.000713818
-4.50971e-11
0.000713818
-2.01761e-11
0.000713818
-1.86559e-12
0.000713819
1.35e-11
0.000713819
2.92952e-11
0.000713819
4.8515e-11
0.000713819
7.39465e-11
0.000713819
1.07721e-10
0.000713819
1.5201e-10
0.000713819
2.02998e-10
0.000713819
2.09121e-10
-3.88927e-11
0.000697125
-3.7049e-10
0.000697125
-4.39284e-10
0.000697125
-4.10144e-10
0.000697125
-3.59123e-10
0.000697125
-3.09207e-10
0.000697125
-2.65868e-10
0.000697125
-2.29451e-10
0.000697125
-1.99201e-10
0.000697125
-1.74189e-10
0.000697125
-1.53556e-10
0.000697125
-1.36576e-10
0.000697125
-1.22649e-10
0.000697125
-1.113e-10
0.000697125
-1.02166e-10
0.000697124
-9.49545e-11
0.000697124
-8.94336e-11
0.000697124
-8.5418e-11
0.000697124
-8.27074e-11
0.000697124
-8.10741e-11
0.000697124
-8.02424e-11
0.000697124
-7.98925e-11
0.000697124
-7.96051e-11
0.000697124
-7.89271e-11
0.000697124
-7.754e-11
0.000697124
-7.52941e-11
0.000697123
-7.22284e-11
0.000697123
-6.84885e-11
0.000697123
-6.4261e-11
0.000697123
-5.97393e-11
0.000697123
-5.50912e-11
0.000697123
-5.04219e-11
0.000697123
-4.57194e-11
0.000697123
-4.082e-11
0.000697123
-3.54205e-11
0.000697123
-2.90815e-11
0.000697122
-2.11798e-11
0.000697122
-1.08449e-11
0.000697122
3.08291e-12
0.000697122
2.21093e-11
0.000697122
4.81105e-11
0.000697122
8.34486e-11
0.000697122
1.30711e-10
0.000697122
1.92957e-10
0.000697122
2.71491e-10
0.000697122
3.6625e-10
0.000697122
4.66602e-10
0.000697122
5.5665e-10
0.000697122
6.30913e-10
0.000697122
6.88462e-10
0.000697122
7.29592e-10
0.000697122
7.55908e-10
0.000697122
7.69562e-10
0.000697122
7.72704e-10
0.000697122
7.67305e-10
0.000697122
7.55076e-10
0.000697122
7.3744e-10
0.000697122
7.15547e-10
0.000697122
6.90324e-10
0.000697122
6.62506e-10
0.000697122
6.32652e-10
0.000697122
6.01163e-10
0.000697122
5.68352e-10
0.000697122
5.34496e-10
0.000697122
4.99828e-10
0.000697122
4.64519e-10
0.000697122
4.28676e-10
0.000697122
3.92398e-10
0.000697122
3.55778e-10
0.000697122
3.18877e-10
0.000697122
2.81738e-10
0.000697122
2.44421e-10
0.000697122
2.07003e-10
0.000697122
1.69545e-10
0.000697122
1.32079e-10
0.000697122
9.463e-11
0.000697122
5.72295e-11
0.000697122
1.99025e-11
0.000697122
-1.73541e-11
0.000697122
-5.45595e-11
0.000697122
-9.17187e-11
0.000697123
-1.28808e-10
0.000697123
-1.65789e-10
0.000697123
-2.0264e-10
0.000697123
-2.3935e-10
0.000697123
-2.75888e-10
0.000697123
-3.12179e-10
0.000697123
-3.48117e-10
0.000697123
-3.83588e-10
0.000697123
-4.18445e-10
0.000697123
-4.52479e-10
0.000697123
-4.85425e-10
0.000697123
-5.16972e-10
0.000697123
-5.46721e-10
0.000697123
-5.74154e-10
0.000697123
-5.98618e-10
0.000697124
-6.19303e-10
0.000697124
-6.35154e-10
0.000697124
-6.44871e-10
0.000697124
-6.46765e-10
0.000697124
-6.38626e-10
0.000697124
-6.17852e-10
0.000697124
-5.81131e-10
0.000697124
-5.26749e-10
0.000697124
-4.54256e-10
0.000697124
-3.7366e-10
0.000697124
-3.00016e-10
0.000697124
-2.37904e-10
0.000697124
-1.87297e-10
0.000697125
-1.46937e-10
0.000697125
-1.14286e-10
0.000697125
-8.62441e-11
0.000697125
-5.96373e-11
0.000697125
-3.12926e-11
0.000697125
1.78406e-12
0.000697125
4.25327e-11
0.000697125
9.32327e-11
0.000697125
1.56319e-10
0.000697125
2.27561e-10
0.000697125
2.47677e-10
-3.27894e-11
0.000680773
-4.05128e-10
0.000680773
-4.7633e-10
0.000680773
-4.34637e-10
0.000680774
-3.67772e-10
0.000680774
-3.0243e-10
0.000680773
-2.45047e-10
0.000680773
-1.96137e-10
0.000680773
-1.5488e-10
0.000680773
-1.20216e-10
0.000680773
-9.11411e-11
0.000680773
-6.67956e-11
0.000680773
-4.64596e-11
0.000680773
-2.9563e-11
0.000680773
-1.56564e-11
0.000680773
-4.37499e-12
0.000680773
4.57056e-12
0.000680773
1.14067e-11
0.000680773
1.63771e-11
0.000680772
1.97521e-11
0.000680772
2.18666e-11
0.000680772
2.31149e-11
0.000680772
2.40313e-11
0.000680772
2.51958e-11
0.000680772
2.70128e-11
0.000680772
2.96795e-11
0.000680772
3.31454e-11
0.000680772
3.72281e-11
0.000680772
4.1698e-11
0.000680771
4.63182e-11
0.000680771
5.0881e-11
0.000680771
5.52467e-11
0.000680771
5.9404e-11
0.000680771
6.3507e-11
0.000680771
6.78566e-11
0.000680771
7.28892e-11
0.000680771
7.92192e-11
0.000680771
8.76939e-11
0.000680771
9.94207e-11
0.00068077
1.158e-10
0.00068077
1.38523e-10
0.00068077
1.69629e-10
0.00068077
2.11228e-10
0.00068077
2.65557e-10
0.00068077
3.33186e-10
0.00068077
4.13071e-10
0.00068077
4.96963e-10
0.00068077
5.73074e-10
0.00068077
6.36678e-10
0.00068077
6.86582e-10
0.00068077
7.22676e-10
0.00068077
7.45906e-10
0.00068077
7.57743e-10
0.00068077
7.59782e-10
0.00068077
7.53593e-10
0.00068077
7.40623e-10
0.00068077
7.22146e-10
0.00068077
6.99236e-10
0.00068077
6.72794e-10
0.00068077
6.43556e-10
0.00068077
6.12091e-10
0.00068077
5.7882e-10
0.00068077
5.44082e-10
0.00068077
5.08184e-10
0.00068077
4.7139e-10
0.00068077
4.33894e-10
0.00068077
3.95828e-10
0.00068077
3.57306e-10
0.00068077
3.18434e-10
0.00068077
2.79288e-10
0.00068077
2.39916e-10
0.00068077
2.00384e-10
0.000680771
1.60782e-10
0.000680771
1.21184e-10
0.000680771
8.16306e-11
0.000680771
4.21458e-11
0.000680771
2.76662e-12
0.000680771
-3.64733e-11
0.000680771
-7.55677e-11
0.000680771
-1.14527e-10
0.000680771
-1.53346e-10
0.000680771
-1.91986e-10
0.000680771
-2.30393e-10
0.000680771
-2.68533e-10
0.000680771
-3.06385e-10
0.000680771
-3.43907e-10
0.000680771
-3.8101e-10
0.000680771
-4.17579e-10
0.000680771
-4.53487e-10
0.000680772
-4.88564e-10
0.000680772
-5.22574e-10
0.000680772
-5.55239e-10
0.000680772
-5.86235e-10
0.000680772
-6.15158e-10
0.000680772
-6.41493e-10
0.000680772
-6.6461e-10
0.000680772
-6.83758e-10
0.000680772
-6.97982e-10
0.000680772
-7.06169e-10
0.000680772
-7.06888e-10
0.000680772
-6.98347e-10
0.000680772
-6.78481e-10
0.000680772
-6.4478e-10
0.000680772
-5.96225e-10
0.000680773
-5.33339e-10
0.000680773
-4.63699e-10
0.000680773
-3.98079e-10
0.000680773
-3.40157e-10
0.000680773
-2.90039e-10
0.000680773
-2.46741e-10
0.000680773
-2.08262e-10
0.000680773
-1.72053e-10
0.000680773
-1.35356e-10
0.000680773
-9.52371e-11
0.000680773
-4.87844e-11
0.000680773
7.01009e-12
0.000680773
7.45042e-11
0.000680773
1.56369e-10
0.000680773
2.4813e-10
0.000680773
2.83895e-10
-2.58992e-11
0.00066476
-4.34851e-10
0.00066476
-5.07675e-10
0.00066476
-4.53084e-10
0.00066476
-3.70169e-10
0.00066476
-2.89263e-10
0.00066476
-2.17739e-10
0.000664759
-1.56262e-10
0.000664759
-1.03936e-10
0.000664759
-5.95664e-11
0.000664759
-2.201e-11
0.000664759
9.72349e-12
0.000664759
3.64687e-11
0.000664759
5.88936e-11
0.000664759
7.75324e-11
0.000664759
9.28196e-11
0.000664759
1.05099e-10
0.000664759
1.14634e-10
0.000664759
1.21709e-10
0.000664758
1.26628e-10
0.000664758
1.29787e-10
0.000664758
1.31662e-10
0.000664758
1.32924e-10
0.000664758
1.34302e-10
0.000664758
1.363e-10
0.000664758
1.39169e-10
0.000664758
1.42836e-10
0.000664758
1.47062e-10
0.000664757
1.51554e-10
0.000664757
1.56015e-10
0.000664757
1.60184e-10
0.000664757
1.63876e-10
0.000664757
1.67051e-10
0.000664757
1.6985e-10
0.000664757
1.72572e-10
0.000664757
1.75654e-10
0.000664757
1.79707e-10
0.000664757
1.8556e-10
0.000664756
1.94278e-10
0.000664756
2.07168e-10
0.000664756
2.25757e-10
0.000664756
2.51808e-10
0.000664756
2.87047e-10
0.000664756
3.33093e-10
0.000664756
3.90052e-10
0.000664756
4.56422e-10
0.000664756
5.25671e-10
0.000664756
5.88818e-10
0.000664756
6.41777e-10
0.000664756
6.83275e-10
0.000664756
7.13056e-10
0.000664756
7.31727e-10
0.000664756
7.40337e-10
0.000664756
7.4008e-10
0.000664756
7.32181e-10
0.000664756
7.17822e-10
0.000664756
6.9809e-10
0.000664756
6.73947e-10
0.000664756
6.46224e-10
0.000664756
6.1562e-10
0.000664756
5.8269e-10
0.000664756
5.47853e-10
0.000664756
5.11459e-10
0.000664756
4.73828e-10
0.000664756
4.35243e-10
0.000664756
3.95917e-10
0.000664756
3.55997e-10
0.000664756
3.15607e-10
0.000664756
2.74867e-10
0.000664756
2.33864e-10
0.000664757
1.92651e-10
0.000664757
1.51297e-10
0.000664757
1.09902e-10
0.000664757
6.85547e-11
0.000664757
2.72989e-11
0.000664757
-1.38402e-11
0.000664757
-5.48229e-11
0.000664757
-9.56084e-11
0.000664757
-1.36182e-10
0.000664757
-1.76547e-10
0.000664757
-2.16684e-10
0.000664757
-2.56543e-10
0.000664757
-2.96058e-10
0.000664757
-3.35182e-10
0.000664757
-3.73887e-10
0.000664757
-4.1212e-10
0.000664757
-4.49779e-10
0.000664758
-4.86741e-10
0.000664758
-5.22863e-10
0.000664758
-5.57957e-10
0.000664758
-5.91768e-10
0.000664758
-6.24e-10
0.000664758
-6.54324e-10
0.000664758
-6.82326e-10
0.000664758
-7.07503e-10
0.000664758
-7.29251e-10
0.000664758
-7.46887e-10
0.000664758
-7.59554e-10
0.000664758
-7.66343e-10
0.000664758
-7.66073e-10
0.000664758
-7.57359e-10
0.000664758
-7.38593e-10
0.000664759
-7.07852e-10
0.000664759
-6.64535e-10
0.000664759
-6.09631e-10
0.000664759
-5.48959e-10
0.000664759
-4.90269e-10
0.000664759
-4.36435e-10
0.000664759
-3.87494e-10
0.000664759
-3.4247e-10
0.000664759
-2.99574e-10
0.000664759
-2.56546e-10
0.000664759
-2.10894e-10
0.000664759
-1.59876e-10
0.000664759
-1.00678e-10
0.00066476
-3.02697e-11
0.00066476
5.37348e-11
0.00066476
1.54221e-10
0.00066476
2.66648e-10
0.00066476
3.19691e-10
-1.63289e-11
0.000649078
-4.57553e-10
0.000649078
-5.31327e-10
0.000649078
-4.63628e-10
0.000649078
-3.646e-10
0.000649078
-2.68165e-10
0.000649078
-1.82603e-10
0.000649078
-1.087e-10
0.000649078
-4.54683e-11
0.000649078
8.43851e-12
0.000649078
5.43067e-11
0.000649078
9.32549e-11
0.000649078
1.26231e-10
0.000649078
1.54003e-10
0.000649078
1.77185e-10
0.000649077
1.96279e-10
0.000649077
2.11679e-10
0.000649077
2.23683e-10
0.000649077
2.32606e-10
0.000649077
2.38779e-10
0.000649077
2.42656e-10
0.000649077
2.448e-10
0.000649077
2.46043e-10
0.000649077
2.47293e-10
0.000649076
2.49162e-10
0.000649076
2.51965e-10
0.000649076
2.5559e-10
0.000649076
2.59715e-10
0.000649076
2.63959e-10
0.000649076
2.6794e-10
0.000649076
2.7133e-10
0.000649076
2.73893e-10
0.000649076
2.75558e-10
0.000649075
2.76453e-10
0.000649075
2.76882e-10
0.000649075
2.77292e-10
0.000649075
2.78299e-10
0.000649075
2.80732e-10
0.000649075
2.85624e-10
0.000649075
2.94207e-10
0.000649075
3.07871e-10
0.000649075
3.28151e-10
0.000649075
3.56469e-10
0.000649075
3.93994e-10
0.000649075
4.40545e-10
0.000649074
4.94453e-10
0.000649074
5.50469e-10
0.000649074
6.016e-10
0.000649074
6.44279e-10
0.000649074
6.7721e-10
0.000649074
7.00072e-10
0.000649074
7.13295e-10
0.000649075
7.17689e-10
0.000649075
7.14187e-10
0.000649075
7.03763e-10
0.000649075
6.87373e-10
0.000649075
6.65928e-10
0.000649075
6.4026e-10
0.000649075
6.11108e-10
0.000649075
5.7911e-10
0.000649075
5.44787e-10
0.000649075
5.08539e-10
0.000649075
4.70704e-10
0.000649075
4.31602e-10
0.000649075
3.91526e-10
0.000649075
3.50697e-10
0.000649075
3.09269e-10
0.000649075
2.67371e-10
0.000649075
2.25133e-10
0.000649075
1.82651e-10
0.000649075
1.39983e-10
0.000649075
9.71963e-11
0.000649075
5.43982e-11
0.000649075
1.16881e-11
0.000649075
-3.08861e-11
0.000649076
-7.33001e-11
0.000649076
-1.15512e-10
0.000649076
-1.57474e-10
0.000649076
-1.99165e-10
0.000649076
-2.40579e-10
0.000649076
-2.8169e-10
0.000649076
-3.22435e-10
0.000649076
-3.62735e-10
0.000649076
-4.02536e-10
0.000649076
-4.41805e-10
0.000649076
-4.80476e-10
0.000649076
-5.18435e-10
0.000649076
-5.55547e-10
0.000649076
-5.91659e-10
0.000649076
-6.26565e-10
0.000649077
-6.59997e-10
0.000649077
-6.91644e-10
0.000649077
-7.21167e-10
0.000649077
-7.48149e-10
0.000649077
-7.72096e-10
0.000649077
-7.92433e-10
0.000649077
-8.08548e-10
0.000649077
-8.19686e-10
0.000649077
-8.25147e-10
0.000649077
-8.23989e-10
0.000649077
-8.15225e-10
0.000649077
-7.97647e-10
0.000649077
-7.69718e-10
0.000649077
-7.31068e-10
0.000649077
-6.82884e-10
0.000649077
-6.29673e-10
0.000649078
-5.76919e-10
0.000649078
-5.26776e-10
0.000649078
-4.79137e-10
0.000649078
-4.32944e-10
0.000649078
-3.86455e-10
0.000649078
-3.3752e-10
0.000649078
-2.83778e-10
0.000649078
-2.22599e-10
0.000649078
-1.51247e-10
0.000649078
-6.66836e-11
0.000649078
3.34816e-11
0.000649078
1.52337e-10
0.000649078
2.85463e-10
0.000649078
3.57342e-10
-1.86719e-12
0.000633724
-4.70997e-10
0.000633724
-5.4521e-10
0.000633724
-4.6438e-10
0.000633724
-3.49387e-10
0.000633724
-2.37676e-10
0.000633724
-1.38401e-10
0.000633724
-5.24455e-11
0.000633724
2.1302e-11
0.000633724
8.43526e-11
0.000633724
1.38146e-10
0.000633724
1.83932e-10
0.000633724
2.22774e-10
0.000633724
2.55536e-10
0.000633724
2.82916e-10
0.000633723
3.05476e-10
0.000633723
3.23656e-10
0.000633723
3.37783e-10
0.000633723
3.48198e-10
0.000633723
3.5524e-10
0.000633723
3.59422e-10
0.000633723
3.61393e-10
0.000633723
3.62177e-10
0.000633723
3.6289e-10
0.000633722
3.64267e-10
0.000633722
3.66695e-10
0.000633722
3.69996e-10
0.000633722
3.73733e-10
0.000633722
3.77401e-10
0.000633722
3.8051e-10
0.000633722
3.82651e-10
0.000633722
3.83534e-10
0.000633722
3.83058e-10
0.000633721
3.8135e-10
0.000633721
3.78729e-10
0.000633721
3.75669e-10
0.000633721
3.72813e-10
0.000633721
3.71005e-10
0.000633721
3.71264e-10
0.000633721
3.74768e-10
0.000633721
3.82796e-10
0.000633721
3.96702e-10
0.000633721
4.17672e-10
0.000633721
4.46552e-10
0.000633721
4.8299e-10
0.000633721
5.25311e-10
0.000633721
5.69244e-10
0.000633721
6.09245e-10
0.000633721
6.42181e-10
0.000633721
6.6675e-10
0.000633721
6.82578e-10
0.000633721
6.89984e-10
0.000633721
6.89632e-10
0.000633721
6.82297e-10
0.000633721
6.68777e-10
0.000633721
6.49865e-10
0.000633721
6.26325e-10
0.000633721
5.98868e-10
0.000633721
5.68132e-10
0.000633721
5.34689e-10
0.000633721
4.99013e-10
0.000633721
4.61469e-10
0.000633721
4.2237e-10
0.000633721
3.82025e-10
0.000633721
3.40725e-10
0.000633721
2.98693e-10
0.000633721
2.5608e-10
0.000633721
2.13012e-10
0.000633721
1.69626e-10
0.000633721
1.26027e-10
0.000633721
8.2274e-11
0.000633721
3.84307e-11
0.000633722
-5.39198e-12
0.000633722
-4.90885e-11
0.000633722
-9.26097e-11
0.000633722
-1.35931e-10
0.000633722
-1.79006e-10
0.000633722
-2.21782e-10
0.000633722
-2.64233e-10
0.000633722
-3.06347e-10
0.000633722
-3.48091e-10
0.000633722
-3.89394e-10
0.000633722
-4.30165e-10
0.000633722
-4.70344e-10
0.000633722
-5.09892e-10
0.000633722
-5.48732e-10
0.000633722
-5.8674e-10
0.000633723
-6.23766e-10
0.000633723
-6.59648e-10
0.000633723
-6.94167e-10
0.000633723
-7.27043e-10
0.000633723
-7.57954e-10
0.000633723
-7.86553e-10
0.000633723
-8.12414e-10
0.000633723
-8.35053e-10
0.000633723
-8.53922e-10
0.000633723
-8.68486e-10
0.000633723
-8.78082e-10
0.000633723
-8.82233e-10
0.000633723
-8.8022e-10
0.000633723
-8.71458e-10
0.000633723
-8.55083e-10
0.000633723
-8.29783e-10
0.000633724
-7.9527e-10
0.000633724
-7.52814e-10
0.000633724
-7.05923e-10
0.000633724
-6.58261e-10
0.000633724
-6.11304e-10
0.000633724
-5.64762e-10
0.000633724
-5.17472e-10
0.000633724
-4.67676e-10
0.000633724
-4.1325e-10
0.000633724
-3.51878e-10
0.000633724
-2.80985e-10
0.000633724
-1.97885e-10
0.000633724
-9.95333e-11
0.000633724
1.6461e-11
0.000633724
1.53389e-10
0.000633724
3.07138e-10
0.000633724
3.99303e-10
1.98471e-11
0.000618692
-4.72994e-10
0.000618692
-5.47327e-10
0.000618692
-4.53586e-10
0.000618692
-3.2303e-10
0.000618692
-1.9655e-10
0.000618692
-8.41394e-11
0.000618692
1.32575e-11
0.000618692
9.68973e-11
0.000618692
1.68475e-10
0.000618692
2.29593e-10
0.000618692
2.8164e-10
0.000618692