# y+ ()       
# Time        	patch         	min           	max           	average       
20000         	bottomWall	5.243120e-01	5.243217e-01	5.243176e-01
20000         	topWall	5.287163e-01	5.287332e-01	5.287253e-01
