/*--------------------------------*- C++ -*----------------------------------*\
  =========                 |
  \\      /  F ield         | OpenFOAM: The Open Source CFD Toolbox
   \\    /   O peration     | Website:  https://openfoam.org
    \\  /    A nd           | Version:  7
     \\/     M anipulation  |
\*---------------------------------------------------------------------------*/
FoamFile
{
    version     2.0;
    format      ascii;
    class       volScalarField;
    location    "1500";
    object      omega;
}
// * * * * * * * * * * * * * * * * * * * * * * * * * * * * * * * * * * * * * //

dimensions      [0 0 -1 0 0 0 0];

internalField   nonuniform List<scalar> 
4026
(
0.578514
0.5785
0.578497
0.578496
0.578496
0.578495
0.578495
0.578494
0.578494
0.578493
0.578493
0.578492
0.578491
0.578491
0.57849
0.578489
0.578489
0.578488
0.578487
0.578487
0.578487
0.578486
0.578486
0.578486
0.578486
0.578486
0.578486
0.578487
0.578488
0.578489
0.57849
0.578491
0.578493
0.578495
0.578497
0.578499
0.578502
0.578505
0.578508
0.578511
0.578514
0.578518
0.578522
0.578524
0.578537
0.578587
0.57858
0.578577
0.578576
0.578575
0.578573
0.578573
0.578572
0.578571
0.57857
0.57857
0.578569
0.578569
0.578569
0.578567
0.578579
0.544561
0.544543
0.544539
0.544539
0.544539
0.544539
0.544539
0.544539
0.54454
0.54454
0.54454
0.54454
0.54454
0.544539
0.544539
0.544539
0.544539
0.544539
0.544539
0.544539
0.544538
0.544538
0.544538
0.544539
0.544539
0.544539
0.544539
0.54454
0.544541
0.544542
0.544543
0.544544
0.544546
0.544548
0.54455
0.544552
0.544555
0.544557
0.54456
0.544563
0.544566
0.54457
0.544574
0.544576
0.544592
0.544632
0.544622
0.544622
0.544622
0.544622
0.544622
0.544622
0.544622
0.544623
0.544623
0.544623
0.544623
0.544623
0.544624
0.544621
0.544636
0.512588
0.512568
0.512564
0.512564
0.512564
0.512565
0.512566
0.512567
0.512568
0.512569
0.512569
0.51257
0.51257
0.512571
0.512571
0.512572
0.512572
0.512572
0.512573
0.512573
0.512573
0.512573
0.512574
0.512574
0.512574
0.512575
0.512576
0.512576
0.512577
0.512578
0.512579
0.512581
0.512582
0.512584
0.512586
0.512588
0.512591
0.512593
0.512596
0.512599
0.512602
0.512605
0.512609
0.51261
0.51263
0.512664
0.512649
0.512648
0.51265
0.512652
0.512653
0.512654
0.512655
0.512656
0.512656
0.512657
0.512658
0.512658
0.51266
0.512657
0.512675
0.482437
0.482415
0.482411
0.482411
0.482412
0.482414
0.482415
0.482417
0.482418
0.48242
0.482421
0.482422
0.482424
0.482425
0.482426
0.482427
0.482427
0.482428
0.482429
0.48243
0.48243
0.482431
0.482432
0.482432
0.482433
0.482434
0.482435
0.482435
0.482436
0.482438
0.482439
0.48244
0.482442
0.482444
0.482446
0.482448
0.48245
0.482452
0.482455
0.482458
0.482461
0.482464
0.482468
0.482468
0.48249
0.48252
0.4825
0.482499
0.482501
0.482504
0.482506
0.482508
0.482509
0.482511
0.482512
0.482514
0.482515
0.482516
0.482518
0.482516
0.482535
0.453966
0.453942
0.453938
0.453939
0.453941
0.453943
0.453945
0.453947
0.453949
0.453951
0.453953
0.453955
0.453957
0.453959
0.45396
0.453962
0.453963
0.453964
0.453965
0.453967
0.453968
0.453969
0.45397
0.453971
0.453972
0.453973
0.453974
0.453975
0.453976
0.453977
0.453979
0.45398
0.453982
0.453984
0.453986
0.453988
0.45399
0.453992
0.453995
0.453998
0.454001
0.454004
0.454008
0.454007
0.454032
0.454056
0.454033
0.45403
0.454033
0.454036
0.454039
0.454041
0.454043
0.454046
0.454048
0.45405
0.454052
0.454053
0.454056
0.454054
0.454076
0.427051
0.427025
0.427022
0.427023
0.427026
0.427028
0.427031
0.427034
0.427037
0.427039
0.427042
0.427045
0.427047
0.427049
0.427051
0.427053
0.427055
0.427057
0.427059
0.42706
0.427062
0.427063
0.427065
0.427066
0.427067
0.427069
0.42707
0.427071
0.427073
0.427074
0.427076
0.427077
0.427079
0.427081
0.427083
0.427085
0.427087
0.42709
0.427092
0.427095
0.427098
0.427101
0.427105
0.427104
0.42713
0.427151
0.427124
0.42712
0.427122
0.427125
0.427128
0.427131
0.427134
0.427137
0.42714
0.427142
0.427145
0.427147
0.42715
0.427148
0.427173
0.401586
0.401558
0.401555
0.401557
0.40156
0.401564
0.401567
0.40157
0.401574
0.401577
0.40158
0.401583
0.401586
0.401589
0.401592
0.401594
0.401597
0.401599
0.401601
0.401604
0.401606
0.401607
0.401609
0.401611
0.401613
0.401614
0.401616
0.401618
0.401619
0.401621
0.401623
0.401624
0.401626
0.401628
0.40163
0.401632
0.401635
0.401637
0.401639
0.401642
0.401645
0.401647
0.401652
0.40165
0.401678
0.401694
0.401665
0.40166
0.401662
0.401665
0.401668
0.401672
0.401675
0.401678
0.401681
0.401684
0.401687
0.40169
0.401694
0.401692
0.401718
0.377477
0.377448
0.377444
0.377447
0.377451
0.377455
0.377459
0.377463
0.377467
0.377471
0.377475
0.377478
0.377482
0.377485
0.377488
0.377492
0.377495
0.377497
0.3775
0.377503
0.377505
0.377508
0.37751
0.377512
0.377514
0.377516
0.377518
0.37752
0.377522
0.377524
0.377526
0.377527
0.377529
0.377532
0.377534
0.377536
0.377538
0.37754
0.377543
0.377546
0.377548
0.377551
0.377555
0.377553
0.377583
0.377594
0.377562
0.377557
0.377558
0.377561
0.377565
0.377568
0.377572
0.377575
0.377579
0.377582
0.377586
0.377589
0.377593
0.377591
0.37762
0.354644
0.354613
0.354609
0.354612
0.354616
0.354621
0.354626
0.35463
0.354635
0.354639
0.354644
0.354648
0.354652
0.354656
0.354659
0.354663
0.354667
0.35467
0.354673
0.354676
0.354679
0.354682
0.354685
0.354687
0.35469
0.354692
0.354694
0.354696
0.354699
0.354701
0.354703
0.354705
0.354707
0.354709
0.354712
0.354714
0.354716
0.354719
0.354721
0.354724
0.354727
0.354729
0.354733
0.354731
0.354762
0.354767
0.354734
0.354728
0.354729
0.354732
0.354736
0.35474
0.354743
0.354747
0.354751
0.354755
0.354759
0.354762
0.354767
0.354765
0.354795
0.333014
0.332981
0.332977
0.332981
0.332985
0.332991
0.332996
0.333001
0.333006
0.333011
0.333016
0.33302
0.333025
0.333029
0.333033
0.333038
0.333042
0.333045
0.333049
0.333053
0.333056
0.333059
0.333062
0.333065
0.333068
0.333071
0.333073
0.333076
0.333078
0.333081
0.333083
0.333086
0.333088
0.33309
0.333093
0.333095
0.333098
0.3331
0.333103
0.333105
0.333108
0.33311
0.333115
0.333112
0.333144
0.333143
0.333108
0.333102
0.333104
0.333107
0.33311
0.333114
0.333118
0.333122
0.333126
0.33313
0.333134
0.333138
0.333143
0.333141
0.333173
0.312524
0.31249
0.312486
0.31249
0.312495
0.312501
0.312506
0.312512
0.312517
0.312523
0.312528
0.312533
0.312538
0.312543
0.312548
0.312552
0.312557
0.312561
0.312565
0.312569
0.312573
0.312576
0.31258
0.312583
0.312586
0.312589
0.312592
0.312595
0.312598
0.312601
0.312603
0.312606
0.312609
0.312611
0.312614
0.312616
0.312619
0.312621
0.312624
0.312627
0.312629
0.312632
0.312636
0.312633
0.312666
0.312659
0.312622
0.312617
0.312618
0.312621
0.312625
0.312629
0.312633
0.312637
0.312642
0.312646
0.31265
0.312654
0.312659
0.312658
0.312691
0.293119
0.293084
0.29308
0.293084
0.29309
0.293096
0.293102
0.293108
0.293113
0.293119
0.293125
0.29313
0.293136
0.293141
0.293146
0.293151
0.293156
0.293161
0.293165
0.29317
0.293174
0.293178
0.293182
0.293185
0.293189
0.293192
0.293196
0.293199
0.293202
0.293205
0.293208
0.293211
0.293213
0.293216
0.293219
0.293222
0.293224
0.293227
0.29323
0.293232
0.293235
0.293238
0.293242
0.293238
0.293272
0.293258
0.293221
0.293215
0.293217
0.29322
0.293224
0.293228
0.293233
0.293237
0.293241
0.293246
0.29325
0.293254
0.29326
0.293258
0.293293
0.27475
0.274713
0.27471
0.274714
0.27472
0.274726
0.274733
0.274739
0.274745
0.274751
0.274757
0.274763
0.274769
0.274774
0.27478
0.274785
0.27479
0.274796
0.2748
0.274805
0.27481
0.274814
0.274818
0.274822
0.274826
0.27483
0.274834
0.274837
0.27484
0.274844
0.274847
0.27485
0.274853
0.274856
0.274859
0.274862
0.274864
0.274867
0.27487
0.274873
0.274876
0.274878
0.274882
0.274879
0.274913
0.274892
0.274854
0.274848
0.27485
0.274854
0.274858
0.274862
0.274867
0.274871
0.274876
0.27488
0.274885
0.274889
0.274895
0.274894
0.274929
0.257372
0.257334
0.257331
0.257335
0.257341
0.257348
0.257354
0.257361
0.257367
0.257374
0.25738
0.257386
0.257392
0.257398
0.257404
0.25741
0.257415
0.257421
0.257426
0.257431
0.257436
0.257441
0.257445
0.25745
0.257454
0.257458
0.257462
0.257465
0.257469
0.257473
0.257476
0.257479
0.257482
0.257486
0.257489
0.257492
0.257495
0.257497
0.2575
0.257503
0.257506
0.257509
0.257513
0.257509
0.257544
0.257516
0.257477
0.257471
0.257473
0.257477
0.257482
0.257486
0.257491
0.257496
0.257501
0.257505
0.25751
0.257515
0.257521
0.257519
0.257555
0.240944
0.240906
0.240903
0.240907
0.240913
0.24092
0.240927
0.240934
0.24094
0.240947
0.240954
0.24096
0.240966
0.240973
0.240979
0.240985
0.24099
0.240996
0.241002
0.241007
0.241012
0.241017
0.241022
0.241027
0.241031
0.241035
0.24104
0.241044
0.241047
0.241051
0.241055
0.241058
0.241062
0.241065
0.241068
0.241071
0.241074
0.241077
0.24108
0.241083
0.241086
0.241089
0.241093
0.241089
0.241124
0.241089
0.241049
0.241044
0.241047
0.241051
0.241056
0.24106
0.241065
0.24107
0.241075
0.24108
0.241085
0.24109
0.241096
0.241094
0.241131
0.22543
0.225392
0.225388
0.225393
0.225399
0.225406
0.225413
0.22542
0.225427
0.225434
0.22544
0.225447
0.225454
0.22546
0.225466
0.225473
0.225479
0.225484
0.22549
0.225496
0.225501
0.225506
0.225512
0.225516
0.225521
0.225526
0.22553
0.225534
0.225538
0.225542
0.225546
0.22555
0.225553
0.225557
0.22556
0.225564
0.225567
0.22557
0.225573
0.225576
0.225579
0.225581
0.225586
0.225582
0.225617
0.225575
0.225535
0.22553
0.225533
0.225537
0.225542
0.225547
0.225552
0.225557
0.225563
0.225568
0.225573
0.225578
0.225584
0.225582
0.225619
0.210795
0.210756
0.210753
0.210758
0.210764
0.210771
0.210778
0.210785
0.210792
0.210799
0.210806
0.210813
0.21082
0.210826
0.210833
0.210839
0.210845
0.210851
0.210857
0.210863
0.210869
0.210874
0.210879
0.210885
0.210889
0.210894
0.210899
0.210903
0.210907
0.210912
0.210916
0.210919
0.210923
0.210927
0.21093
0.210934
0.210937
0.21094
0.210943
0.210946
0.210949
0.210952
0.210956
0.210953
0.210987
0.210939
0.210899
0.210894
0.210897
0.210902
0.210907
0.210912
0.210918
0.210923
0.210928
0.210933
0.210939
0.210943
0.21095
0.210949
0.210985
0.197006
0.196968
0.196964
0.196969
0.196976
0.196983
0.19699
0.196997
0.197004
0.197011
0.197018
0.197025
0.197032
0.197039
0.197045
0.197052
0.197058
0.197064
0.19707
0.197076
0.197082
0.197088
0.197093
0.197098
0.197103
0.197108
0.197113
0.197118
0.197122
0.197126
0.19713
0.197134
0.197138
0.197142
0.197146
0.197149
0.197153
0.197156
0.197159
0.197162
0.197165
0.197168
0.197172
0.197169
0.197203
0.197148
0.197109
0.197104
0.197107
0.197112
0.197118
0.197123
0.197128
0.197134
0.197139
0.197145
0.19715
0.197155
0.197161
0.19716
0.197197
0.184033
0.183995
0.183991
0.183996
0.184003
0.18401
0.184017
0.184024
0.184031
0.184039
0.184046
0.184053
0.184059
0.184066
0.184073
0.184079
0.184086
0.184092
0.184098
0.184104
0.18411
0.184116
0.184121
0.184127
0.184132
0.184137
0.184142
0.184147
0.184151
0.184155
0.18416
0.184164
0.184168
0.184172
0.184175
0.184179
0.184182
0.184186
0.184189
0.184192
0.184195
0.184198
0.184202
0.184199
0.184232
0.184172
0.184133
0.184129
0.184132
0.184137
0.184143
0.184148
0.184154
0.18416
0.184165
0.18417
0.184176
0.184181
0.184187
0.184187
0.184223
0.171844
0.171807
0.171804
0.171809
0.171815
0.171822
0.171829
0.171837
0.171844
0.171851
0.171858
0.171865
0.171872
0.171879
0.171885
0.171892
0.171898
0.171905
0.171911
0.171917
0.171923
0.171929
0.171934
0.17194
0.171945
0.17195
0.171955
0.17196
0.171964
0.171969
0.171973
0.171977
0.171981
0.171985
0.171989
0.171992
0.171996
0.171999
0.172003
0.172006
0.172009
0.172012
0.172016
0.172013
0.172046
0.171981
0.171942
0.171938
0.171942
0.171947
0.171953
0.171958
0.171964
0.171969
0.171975
0.171981
0.171986
0.171991
0.171998
0.171997
0.172032
0.160411
0.160374
0.160371
0.160376
0.160383
0.16039
0.160397
0.160404
0.160411
0.160418
0.160425
0.160432
0.160439
0.160446
0.160453
0.160459
0.160466
0.160472
0.160478
0.160484
0.16049
0.160496
0.160502
0.160507
0.160512
0.160518
0.160523
0.160527
0.160532
0.160536
0.160541
0.160545
0.160549
0.160553
0.160557
0.16056
0.160564
0.160567
0.160571
0.160574
0.160577
0.16058
0.160584
0.160581
0.160613
0.160544
0.160506
0.160502
0.160506
0.160511
0.160517
0.160523
0.160529
0.160534
0.16054
0.160545
0.160551
0.160556
0.160563
0.160562
0.160597
0.149704
0.149668
0.149665
0.14967
0.149677
0.149684
0.149691
0.149698
0.149705
0.149712
0.149719
0.149726
0.149732
0.149739
0.149746
0.149752
0.149759
0.149765
0.149771
0.149777
0.149783
0.149789
0.149794
0.1498
0.149805
0.14981
0.149815
0.14982
0.149825
0.149829
0.149834
0.149838
0.149842
0.149846
0.149849
0.149853
0.149857
0.14986
0.149863
0.149866
0.14987
0.149872
0.149876
0.149873
0.149905
0.149833
0.149796
0.149792
0.149796
0.149802
0.149807
0.149813
0.149819
0.149824
0.14983
0.149835
0.149841
0.149846
0.149853
0.149852
0.149886
0.139693
0.139658
0.139656
0.139661
0.139667
0.139674
0.139681
0.139688
0.139695
0.139702
0.139709
0.139715
0.139722
0.139729
0.139735
0.139742
0.139748
0.139754
0.13976
0.139766
0.139772
0.139778
0.139783
0.139789
0.139794
0.139799
0.139804
0.139809
0.139813
0.139818
0.139822
0.139826
0.13983
0.139834
0.139838
0.139841
0.139845
0.139848
0.139852
0.139855
0.139858
0.13986
0.139864
0.139862
0.139892
0.139819
0.139782
0.139779
0.139783
0.139788
0.139794
0.139799
0.139805
0.13981
0.139816
0.139821
0.139827
0.139832
0.139838
0.139838
0.139871
0.13035
0.130316
0.130313
0.130318
0.130325
0.130331
0.130338
0.130345
0.130352
0.130359
0.130365
0.130372
0.130379
0.130385
0.130391
0.130398
0.130404
0.13041
0.130416
0.130422
0.130428
0.130433
0.130439
0.130444
0.130449
0.130454
0.130459
0.130464
0.130468
0.130473
0.130477
0.130481
0.130485
0.130489
0.130492
0.130496
0.130499
0.130503
0.130506
0.130509
0.130512
0.130515
0.130518
0.130516
0.130545
0.13047
0.130435
0.130432
0.130436
0.130441
0.130447
0.130452
0.130458
0.130463
0.130469
0.130474
0.130479
0.130485
0.130491
0.130491
0.130522
0.121644
0.121611
0.121609
0.121613
0.12162
0.121626
0.121633
0.12164
0.121646
0.121653
0.121659
0.121666
0.121672
0.121678
0.121685
0.121691
0.121697
0.121703
0.121709
0.121714
0.12172
0.121725
0.121731
0.121736
0.121741
0.121746
0.121751
0.121755
0.12176
0.121764
0.121768
0.121772
0.121776
0.12178
0.121783
0.121787
0.12179
0.121794
0.121797
0.1218
0.121803
0.121805
0.121809
0.121807
0.121834
0.121759
0.121726
0.121722
0.121726
0.121731
0.121737
0.121742
0.121748
0.121753
0.121758
0.121764
0.121769
0.121774
0.12178
0.12178
0.12181
0.113545
0.113513
0.113511
0.113516
0.113522
0.113529
0.113535
0.113541
0.113548
0.113554
0.113561
0.113567
0.113573
0.113579
0.113585
0.113591
0.113597
0.113603
0.113609
0.113614
0.11362
0.113625
0.11363
0.113635
0.11364
0.113645
0.113649
0.113654
0.113658
0.113662
0.113666
0.11367
0.113674
0.113678
0.113681
0.113685
0.113688
0.113691
0.113694
0.113697
0.1137
0.113702
0.113706
0.113704
0.11373
0.113656
0.113623
0.11362
0.113624
0.113629
0.113634
0.113639
0.113645
0.11365
0.113655
0.11366
0.113665
0.11367
0.113676
0.113677
0.113705
0.106023
0.105994
0.105992
0.105996
0.106002
0.106008
0.106014
0.106021
0.106027
0.106033
0.106039
0.106045
0.106051
0.106057
0.106063
0.106069
0.106074
0.10608
0.106086
0.106091
0.106096
0.106101
0.106106
0.106111
0.106116
0.10612
0.106125
0.106129
0.106133
0.106137
0.106141
0.106145
0.106149
0.106152
0.106156
0.106159
0.106162
0.106165
0.106168
0.106171
0.106174
0.106176
0.106179
0.106178
0.106202
0.106129
0.106098
0.106095
0.106099
0.106104
0.106109
0.106114
0.106119
0.106124
0.106129
0.106134
0.106139
0.106144
0.106149
0.10615
0.106177
0.0990495
0.099021
0.0990193
0.0990236
0.0990293
0.0990353
0.0990413
0.0990473
0.0990533
0.0990592
0.0990651
0.0990709
0.0990767
0.0990824
0.099088
0.0990935
0.099099
0.0991043
0.0991096
0.0991147
0.0991198
0.0991247
0.0991295
0.0991342
0.0991388
0.0991432
0.0991475
0.0991516
0.0991556
0.0991595
0.0991633
0.0991669
0.0991704
0.0991738
0.0991771
0.0991803
0.0991833
0.0991862
0.099189
0.0991917
0.0991944
0.0991967
0.0991998
0.0991983
0.0992209
0.0991499
0.0991205
0.0991177
0.0991211
0.0991257
0.0991306
0.0991356
0.0991405
0.0991454
0.0991502
0.099155
0.0991598
0.0991644
0.0991698
0.0991706
0.0991954
0.0925927
0.0925658
0.0925642
0.0925684
0.0925739
0.0925796
0.0925853
0.0925911
0.0925968
0.0926025
0.0926081
0.0926137
0.0926192
0.0926247
0.09263
0.0926353
0.0926405
0.0926456
0.0926507
0.0926556
0.0926604
0.0926651
0.0926697
0.0926742
0.0926786
0.0926828
0.0926869
0.0926909
0.0926947
0.0926984
0.092702
0.0927055
0.0927089
0.0927121
0.0927152
0.0927182
0.0927211
0.0927239
0.0927266
0.0927292
0.0927317
0.0927339
0.0927368
0.0927356
0.0927565
0.0926878
0.0926599
0.0926573
0.0926605
0.092665
0.0926697
0.0926744
0.0926791
0.0926838
0.0926885
0.0926931
0.0926977
0.0927021
0.0927071
0.0927081
0.0927312
0.0866233
0.086598
0.0865966
0.0866006
0.0866058
0.0866112
0.0866167
0.0866222
0.0866276
0.086633
0.0866384
0.0866437
0.086649
0.0866542
0.0866593
0.0866643
0.0866693
0.0866741
0.0866789
0.0866836
0.0866882
0.0866927
0.0866971
0.0867013
0.0867055
0.0867095
0.0867134
0.0867172
0.0867208
0.0867244
0.0867278
0.0867311
0.0867343
0.0867374
0.0867403
0.0867432
0.0867459
0.0867486
0.0867511
0.0867536
0.086756
0.0867581
0.0867608
0.0867597
0.0867791
0.086713
0.0866867
0.0866843
0.0866874
0.0866916
0.0866961
0.0867006
0.0867051
0.0867095
0.086714
0.0867184
0.0867227
0.086727
0.0867318
0.0867329
0.0867543
0.0811117
0.081088
0.0810867
0.0810905
0.0810955
0.0811006
0.0811058
0.081111
0.0811162
0.0811213
0.0811264
0.0811315
0.0811364
0.0811414
0.0811462
0.081151
0.0811557
0.0811603
0.0811648
0.0811693
0.0811736
0.0811779
0.081182
0.0811861
0.08119
0.0811938
0.0811975
0.0812011
0.0812046
0.0812079
0.0812112
0.0812143
0.0812173
0.0812202
0.081223
0.0812257
0.0812283
0.0812308
0.0812332
0.0812355
0.0812377
0.0812398
0.0812423
0.0812414
0.0812592
0.0811961
0.0811713
0.0811692
0.0811721
0.0811761
0.0811803
0.0811846
0.0811888
0.0811931
0.0811973
0.0812014
0.0812056
0.0812096
0.0812141
0.0812153
0.0812351
0.076029
0.0760067
0.0760056
0.0760092
0.0760139
0.0760188
0.0760237
0.0760286
0.0760335
0.0760383
0.0760432
0.0760479
0.0760526
0.0760573
0.0760619
0.0760664
0.0760708
0.0760752
0.0760795
0.0760837
0.0760878
0.0760918
0.0760957
0.0760995
0.0761032
0.0761068
0.0761103
0.0761137
0.0761169
0.0761201
0.0761231
0.0761261
0.0761289
0.0761317
0.0761343
0.0761368
0.0761393
0.0761416
0.0761439
0.076146
0.0761481
0.07615
0.0761523
0.0761516
0.0761679
0.076108
0.0760848
0.0760828
0.0760856
0.0760894
0.0760934
0.0760974
0.0761014
0.0761054
0.0761094
0.0761133
0.0761172
0.076121
0.0761253
0.0761266
0.0761448
0.0713467
0.0713259
0.0713249
0.0713284
0.0713328
0.0713374
0.071342
0.0713466
0.0713512
0.0713558
0.0713603
0.0713648
0.0713692
0.0713736
0.0713779
0.0713821
0.0713863
0.0713904
0.0713945
0.0713984
0.0714023
0.071406
0.0714097
0.0714133
0.0714168
0.0714202
0.0714234
0.0714266
0.0714297
0.0714326
0.0714355
0.0714382
0.0714409
0.0714435
0.0714459
0.0714483
0.0714506
0.0714528
0.0714549
0.0714569
0.0714588
0.0714606
0.0714628
0.0714621
0.071477
0.0714204
0.0713988
0.071397
0.0713996
0.0714032
0.0714069
0.0714107
0.0714145
0.0714183
0.071422
0.0714257
0.0714294
0.071433
0.071437
0.0714383
0.0714549
0.0670373
0.0670181
0.0670172
0.0670204
0.0670245
0.0670288
0.0670332
0.0670375
0.0670418
0.0670461
0.0670503
0.0670545
0.0670587
0.0670628
0.0670668
0.0670708
0.0670747
0.0670786
0.0670824
0.0670861
0.0670897
0.0670932
0.0670967
0.0671
0.0671033
0.0671064
0.0671095
0.0671125
0.0671153
0.0671181
0.0671208
0.0671233
0.0671258
0.0671282
0.0671305
0.0671327
0.0671348
0.0671369
0.0671388
0.0671407
0.0671425
0.0671441
0.0671461
0.0671456
0.067159
0.0671059
0.0670859
0.0670842
0.0670866
0.06709
0.0670935
0.0670971
0.0671006
0.0671041
0.0671077
0.0671111
0.0671146
0.067118
0.0671217
0.067123
0.0671382
0.0630743
0.0630565
0.0630557
0.0630588
0.0630626
0.0630667
0.0630707
0.0630748
0.0630788
0.0630828
0.0630868
0.0630907
0.0630946
0.0630984
0.0631022
0.0631059
0.0631096
0.0631132
0.0631167
0.0631201
0.0631235
0.0631268
0.06313
0.0631332
0.0631362
0.0631392
0.063142
0.0631448
0.0631474
0.06315
0.0631525
0.0631549
0.0631572
0.0631594
0.0631615
0.0631636
0.0631656
0.0631674
0.0631692
0.063171
0.0631726
0.0631742
0.063176
0.0631756
0.0631877
0.063138
0.0631194
0.0631179
0.0631202
0.0631233
0.0631266
0.0631299
0.0631333
0.0631366
0.0631398
0.0631431
0.0631464
0.0631495
0.063153
0.0631543
0.0631681
0.0594324
0.0594159
0.0594152
0.059418
0.0594216
0.0594254
0.0594292
0.0594329
0.0594367
0.0594404
0.0594441
0.0594478
0.0594514
0.059455
0.0594585
0.059462
0.0594654
0.0594687
0.059472
0.0594752
0.0594784
0.0594814
0.0594844
0.0594873
0.0594902
0.0594929
0.0594956
0.0594981
0.0595006
0.059503
0.0595053
0.0595075
0.0595097
0.0595117
0.0595137
0.0595156
0.0595174
0.0595191
0.0595208
0.0595224
0.0595239
0.0595253
0.0595269
0.0595267
0.0595375
0.0594912
0.0594741
0.0594727
0.0594748
0.0594778
0.0594808
0.0594839
0.059487
0.0594901
0.0594932
0.0594962
0.0594992
0.0595022
0.0595054
0.0595068
0.0595192
0.0560871
0.0560719
0.0560713
0.056074
0.0560773
0.0560808
0.0560843
0.0560878
0.0560913
0.0560948
0.0560982
0.0561016
0.056105
0.0561083
0.0561116
0.0561148
0.056118
0.0561211
0.0561241
0.0561271
0.05613
0.0561329
0.0561357
0.0561384
0.056141
0.0561435
0.056146
0.0561484
0.0561507
0.0561529
0.056155
0.0561571
0.056159
0.0561609
0.0561627
0.0561645
0.0561661
0.0561677
0.0561692
0.0561707
0.0561721
0.0561734
0.0561749
0.0561747
0.0561843
0.0561414
0.0561256
0.0561243
0.0561263
0.0561291
0.0561319
0.0561348
0.0561377
0.0561405
0.0561434
0.0561462
0.0561491
0.0561518
0.0561548
0.0561562
0.0561673
0.0530156
0.0530017
0.0530011
0.0530036
0.0530067
0.0530099
0.0530132
0.0530164
0.0530197
0.0530229
0.0530261
0.0530292
0.0530323
0.0530354
0.0530384
0.0530414
0.0530444
0.0530473
0.0530501
0.0530528
0.0530556
0.0530582
0.0530608
0.0530633
0.0530657
0.0530681
0.0530703
0.0530725
0.0530747
0.0530767
0.0530787
0.0530805
0.0530824
0.0530841
0.0530858
0.0530874
0.0530889
0.0530903
0.0530917
0.0530931
0.0530943
0.0530955
0.0530968
0.0530967
0.0531053
0.0530655
0.053051
0.0530499
0.0530518
0.0530543
0.053057
0.0530596
0.0530623
0.053065
0.0530676
0.0530702
0.0530729
0.0530754
0.0530782
0.0530796
0.0530895
0.0501962
0.0501835
0.050183
0.0501853
0.0501882
0.0501912
0.0501942
0.0501972
0.0502002
0.0502031
0.0502061
0.050209
0.0502119
0.0502147
0.0502175
0.0502203
0.050223
0.0502257
0.0502283
0.0502308
0.0502333
0.0502358
0.0502382
0.0502405
0.0502427
0.0502449
0.050247
0.050249
0.050251
0.0502529
0.0502547
0.0502564
0.0502581
0.0502597
0.0502612
0.0502626
0.050264
0.0502654
0.0502666
0.0502679
0.050269
0.0502701
0.0502713
0.0502712
0.0502788
0.050242
0.0502287
0.0502277
0.0502295
0.0502318
0.0502343
0.0502368
0.0502392
0.0502417
0.0502442
0.0502466
0.050249
0.0502514
0.050254
0.0502553
0.0502642
0.0476087
0.0475971
0.0475967
0.0475988
0.0476014
0.0476042
0.047607
0.0476097
0.0476125
0.0476152
0.0476179
0.0476206
0.0476233
0.0476259
0.0476285
0.0476311
0.0476336
0.047636
0.0476385
0.0476408
0.0476431
0.0476454
0.0476476
0.0476497
0.0476518
0.0476538
0.0476557
0.0476576
0.0476594
0.0476611
0.0476628
0.0476644
0.0476659
0.0476674
0.0476688
0.0476701
0.0476714
0.0476726
0.0476737
0.0476748
0.0476759
0.0476768
0.0476779
0.0476779
0.0476845
0.0476507
0.0476385
0.0476376
0.0476392
0.0476414
0.0476437
0.047646
0.0476483
0.0476505
0.0476528
0.0476551
0.0476573
0.0476595
0.0476619
0.0476632
0.0476711
0.0452342
0.0452235
0.0452232
0.0452251
0.0452276
0.0452301
0.0452327
0.0452352
0.0452378
0.0452403
0.0452428
0.0452453
0.0452477
0.0452501
0.0452525
0.0452549
0.0452572
0.0452595
0.0452617
0.0452639
0.045266
0.0452681
0.0452701
0.0452721
0.045274
0.0452758
0.0452776
0.0452793
0.045281
0.0452826
0.0452841
0.0452856
0.045287
0.0452883
0.0452896
0.0452908
0.0452919
0.045293
0.0452941
0.0452951
0.045296
0.0452969
0.0452979
0.0452979
0.0453037
0.0452725
0.0452613
0.0452606
0.0452621
0.0452641
0.0452662
0.0452683
0.0452704
0.0452725
0.0452746
0.0452767
0.0452788
0.0452809
0.045283
0.0452843
0.0452914
0.043055
0.0430453
0.043045
0.0430468
0.043049
0.0430514
0.0430537
0.0430561
0.0430584
0.0430607
0.043063
0.0430653
0.0430676
0.0430698
0.043072
0.0430742
0.0430763
0.0430784
0.0430805
0.0430825
0.0430845
0.0430864
0.0430883
0.0430901
0.0430918
0.0430935
0.0430952
0.0430967
0.0430983
0.0430997
0.0431011
0.0431024
0.0431037
0.0431049
0.0431061
0.0431072
0.0431083
0.0431093
0.0431102
0.0431111
0.043112
0.0431127
0.0431136
0.0431137
0.0431187
0.0430899
0.0430798
0.0430791
0.0430805
0.0430823
0.0430843
0.0430863
0.0430882
0.0430902
0.0430921
0.043094
0.043096
0.0430979
0.0430999
0.0431011
0.0431073
0.041055
0.0410462
0.0410459
0.0410476
0.0410497
0.0410518
0.041054
0.0410561
0.0410583
0.0410604
0.0410625
0.0410646
0.0410667
0.0410688
0.0410708
0.0410728
0.0410748
0.0410767
0.0410786
0.0410804
0.0410823
0.041084
0.0410857
0.0410874
0.041089
0.0410906
0.0410921
0.0410935
0.0410949
0.0410963
0.0410976
0.0410988
0.0411
0.0411011
0.0411021
0.0411031
0.0411041
0.041105
0.0411059
0.0411067
0.0411074
0.0411082
0.0411089
0.041109
0.0411134
0.0410868
0.0410776
0.041077
0.0410783
0.04108
0.0410818
0.0410836
0.0410854
0.0410872
0.041089
0.0410908
0.0410926
0.0410943
0.0410962
0.0410974
0.0411029
0.0392193
0.0392113
0.039211
0.0392126
0.0392145
0.0392164
0.0392184
0.0392204
0.0392224
0.0392243
0.0392263
0.0392282
0.0392301
0.039232
0.0392339
0.0392358
0.0392376
0.0392393
0.0392411
0.0392428
0.0392445
0.0392461
0.0392477
0.0392492
0.0392507
0.0392521
0.0392535
0.0392549
0.0392561
0.0392574
0.0392586
0.0392597
0.0392607
0.0392618
0.0392627
0.0392637
0.0392645
0.0392653
0.0392661
0.0392669
0.0392675
0.0392682
0.0392689
0.039269
0.0392728
0.0392482
0.0392398
0.0392393
0.0392405
0.039242
0.0392437
0.0392454
0.039247
0.0392487
0.0392504
0.039252
0.0392537
0.0392553
0.039257
0.0392581
0.039263
0.0375342
0.0375269
0.0375267
0.0375281
0.0375298
0.0375316
0.0375334
0.0375353
0.0375371
0.0375389
0.0375407
0.0375425
0.0375442
0.037546
0.0375477
0.0375494
0.0375511
0.0375527
0.0375543
0.0375559
0.0375574
0.0375589
0.0375604
0.0375618
0.0375632
0.0375645
0.0375658
0.037567
0.0375682
0.0375693
0.0375704
0.0375714
0.0375724
0.0375733
0.0375742
0.0375751
0.0375759
0.0375766
0.0375773
0.037578
0.0375786
0.0375792
0.0375798
0.0375799
0.0375832
0.0375604
0.0375528
0.0375523
0.0375534
0.0375549
0.0375564
0.0375579
0.0375595
0.037561
0.0375625
0.0375641
0.0375656
0.0375671
0.0375687
0.0375698
0.037574
0.0359872
0.0359805
0.0359803
0.0359816
0.0359832
0.0359849
0.0359866
0.0359882
0.0359899
0.0359916
0.0359932
0.0359948
0.0359965
0.0359981
0.0359997
0.0360012
0.0360028
0.0360043
0.0360058
0.0360072
0.0360086
0.03601
0.0360114
0.0360127
0.0360139
0.0360152
0.0360164
0.0360175
0.0360186
0.0360196
0.0360206
0.0360216
0.0360225
0.0360233
0.0360241
0.0360249
0.0360256
0.0360263
0.036027
0.0360276
0.0360281
0.0360286
0.0360292
0.0360293
0.0360321
0.036011
0.036004
0.0360036
0.0360046
0.036006
0.0360074
0.0360088
0.0360102
0.0360117
0.0360131
0.0360145
0.0360159
0.0360173
0.0360187
0.0360198
0.0360235
0.0345669
0.0345608
0.0345607
0.0345619
0.0345633
0.0345649
0.0345664
0.0345679
0.0345695
0.034571
0.0345725
0.034574
0.0345755
0.034577
0.0345785
0.0345799
0.0345813
0.0345827
0.0345841
0.0345854
0.0345868
0.034588
0.0345893
0.0345905
0.0345917
0.0345928
0.0345939
0.0345949
0.0345959
0.0345969
0.0345978
0.0345987
0.0345995
0.0346003
0.0346011
0.0346018
0.0346024
0.0346031
0.0346037
0.0346042
0.0346047
0.0346052
0.0346057
0.0346058
0.0346082
0.0345885
0.0345822
0.0345818
0.0345828
0.034584
0.0345853
0.0345866
0.0345879
0.0345892
0.0345905
0.0345918
0.0345931
0.0345944
0.0345958
0.0345968
0.0346001
0.0332631
0.0332575
0.0332574
0.0332585
0.0332599
0.0332613
0.0332627
0.0332641
0.0332655
0.0332669
0.0332683
0.0332697
0.0332711
0.0332724
0.0332738
0.0332751
0.0332764
0.0332777
0.033279
0.0332803
0.0332815
0.0332827
0.0332838
0.0332849
0.033286
0.0332871
0.0332881
0.0332891
0.03329
0.0332909
0.0332917
0.0332926
0.0332933
0.0332941
0.0332947
0.0332954
0.033296
0.0332966
0.0332971
0.0332976
0.0332981
0.0332985
0.0332989
0.0332991
0.0333011
0.0332827
0.0332769
0.0332766
0.0332775
0.0332787
0.0332799
0.0332811
0.0332823
0.0332835
0.0332847
0.0332859
0.0332871
0.0332883
0.0332895
0.0332905
0.0332934
0.0320664
0.0320614
0.0320613
0.0320623
0.0320635
0.0320648
0.0320661
0.0320674
0.0320687
0.03207
0.0320713
0.0320726
0.0320739
0.0320751
0.0320764
0.0320776
0.0320788
0.03208
0.0320812
0.0320824
0.0320835
0.0320846
0.0320857
0.0320867
0.0320877
0.0320887
0.0320897
0.0320906
0.0320914
0.0320923
0.0320931
0.0320938
0.0320945
0.0320952
0.0320959
0.0320965
0.032097
0.0320976
0.032098
0.0320985
0.0320989
0.0320993
0.0320997
0.0320999
0.0321016
0.0320842
0.032079
0.0320788
0.0320796
0.0320806
0.0320817
0.0320829
0.032084
0.0320851
0.0320862
0.0320873
0.0320884
0.0320895
0.0320907
0.0320916
0.0320941
0.0309686
0.030964
0.0309639
0.0309649
0.030966
0.0309672
0.0309684
0.0309696
0.0309708
0.030972
0.0309732
0.0309743
0.0309755
0.0309767
0.0309779
0.030979
0.0309801
0.0309813
0.0309824
0.0309834
0.0309845
0.0309855
0.0309865
0.0309875
0.0309884
0.0309893
0.0309902
0.0309911
0.0309919
0.0309927
0.0309934
0.0309941
0.0309948
0.0309954
0.030996
0.0309966
0.0309971
0.0309976
0.0309981
0.0309985
0.0309989
0.0309992
0.0309996
0.0309998
0.0310012
0.0309848
0.0309801
0.0309798
0.0309806
0.0309816
0.0309826
0.0309836
0.0309847
0.0309857
0.0309867
0.0309877
0.0309888
0.0309898
0.0309909
0.0309917
0.0309939
0.0299621
0.0299579
0.0299579
0.0299587
0.0299598
0.0299609
0.029962
0.0299631
0.0299642
0.0299653
0.0299664
0.0299675
0.0299686
0.0299697
0.0299707
0.0299718
0.0299729
0.0299739
0.0299749
0.0299759
0.0299769
0.0299779
0.0299788
0.0299797
0.0299806
0.0299815
0.0299823
0.0299831
0.0299839
0.0299846
0.0299853
0.029986
0.0299866
0.0299872
0.0299877
0.0299883
0.0299888
0.0299892
0.0299897
0.0299901
0.0299904
0.0299908
0.0299911
0.0299913
0.0299925
0.0299769
0.0299726
0.0299724
0.0299731
0.029974
0.0299749
0.0299759
0.0299768
0.0299778
0.0299787
0.0299797
0.0299807
0.0299816
0.0299826
0.0299834
0.0299854
0.0290403
0.0290365
0.0290365
0.0290372
0.0290382
0.0290392
0.0290402
0.0290412
0.0290423
0.0290433
0.0290443
0.0290453
0.0290464
0.0290474
0.0290484
0.0290494
0.0290504
0.0290513