/*--------------------------------*- C++ -*----------------------------------*\
  =========                 |
  \\      /  F ield         | OpenFOAM: The Open Source CFD Toolbox
   \\    /   O peration     | Website:  https://openfoam.org
    \\  /    A nd           | Version:  7
     \\/     M anipulation  |
\*---------------------------------------------------------------------------*/
FoamFile
{
    version     2.0;
    format      ascii;
    class       surfaceScalarField;
    location    "1500";
    object      phi;
}
// * * * * * * * * * * * * * * * * * * * * * * * * * * * * * * * * * * * * * //

dimensions      [0 3 -1 0 0 0 0];

internalField   nonuniform List<scalar> 
7859
(
0.000136925
-5.98353e-11
0.000136925
-8.73626e-10
0.000136925
-1.76432e-09
0.000136925
-2.09947e-09
0.000136925
-2.26059e-09
0.000136926
-2.253e-09
0.000136926
-2.15733e-09
0.000136926
-2.03495e-09
0.000136926
-1.91122e-09
0.000136926
-1.80248e-09
0.000136926
-1.71528e-09
0.000136926
-1.65095e-09
0.000136926
-1.60833e-09
0.000136926
-1.58467e-09
0.000136926
-1.5765e-09
0.000136926
-1.58012e-09
0.000136926
-1.59198e-09
0.000136926
-1.60891e-09
0.000136926
-1.62815e-09
0.000136926
-1.64734e-09
0.000136926
-1.66456e-09
0.000136926
-1.67838e-09
0.000136926
-1.68789e-09
0.000136926
-1.69255e-09
0.000136926
-1.69212e-09
0.000136926
-1.68646e-09
0.000136926
-1.67547e-09
0.000136926
-1.65906e-09
0.000136926
-1.63738e-09
0.000136926
-1.61084e-09
0.000136926
-1.58047e-09
0.000136926
-1.5474e-09
0.000136926
-1.51361e-09
0.000136926
-1.4801e-09
0.000136926
-1.44884e-09
0.000136926
-1.4189e-09
0.000136926
-1.38964e-09
0.000136926
-1.35693e-09
0.000136926
-1.30494e-09
0.000136926
-1.23924e-09
0.000136926
-1.05305e-09
0.000136926
-8.91423e-10
0.000136926
-8.23825e-11
0.000136926
1.92681e-10
4.15097e-09
0.000136923
9.50185e-09
0.000136923
5.56044e-09
0.000136923
3.20726e-09
0.000136923
2.01994e-09
0.000136923
1.2188e-09
0.000136923
6.88727e-10
0.000136923
2.97326e-10
0.000136923
-3.79201e-11
0.000136923
-3.31805e-10
0.000136923
-6.29773e-10
0.000136923
-8.87268e-10
0.000136924
-1.14725e-09
0.000136924
-1.30028e-09
0.000136924
-1.32674e-09
0.000136924
-1.19256e-09
-4.72229e-10
0.000141306
-4.8109e-10
0.000141306
-1.18095e-09
0.000141306
-1.9786e-09
0.000141306
-2.25493e-09
0.000141306
-2.37958e-09
0.000141306
-2.35286e-09
0.000141307
-2.24431e-09
0.000141307
-2.11193e-09
0.000141307
-1.9793e-09
0.000141307
-1.86206e-09
0.000141307
-1.7666e-09
0.000141307
-1.69425e-09
0.000141307
-1.64387e-09
0.000141307
-1.61281e-09
0.000141307
-1.59768e-09
0.000141307
-1.59486e-09
0.000141307
-1.60085e-09
0.000141307
-1.61252e-09
0.000141307
-1.62709e-09
0.000141307
-1.64221e-09
0.000141307
-1.65595e-09
0.000141307
-1.66684e-09
0.000141307
-1.67391e-09
0.000141307
-1.67657e-09
0.000141307
-1.67454e-09
0.000141307
-1.66764e-09
0.000141307
-1.65575e-09
0.000141307
-1.6388e-09
0.000141307
-1.61697e-09
0.000141307
-1.59068e-09
0.000141307
-1.56097e-09
0.000141307
-1.52899e-09
0.000141307
-1.49671e-09
0.000141307
-1.46515e-09
0.000141307
-1.43637e-09
0.000141307
-1.40942e-09
0.000141307
-1.38406e-09
0.000141307
-1.35585e-09
0.000141307
-1.3106e-09
0.000141307
-1.25163e-09
0.000141307
-1.07996e-09
0.000141307
-9.26981e-10
0.000141307
-1.61752e-10
0.000141307
1.1215e-10
3.80106e-09
0.000141304
9.15712e-09
0.000141304
5.5329e-09
0.000141304
3.23924e-09
0.000141304
2.04682e-09
0.000141304
1.23945e-09
0.000141304
7.0265e-10
0.000141304
3.04773e-10
0.000141304
-3.82348e-11
0.000141304
-3.40915e-10
0.000141304
-6.50525e-10
0.000141304
-9.20544e-10
0.000141304
-1.20313e-09
0.000141304
-1.37605e-09
0.000141305
-1.46429e-09
0.000141305
-1.37256e-09
-7.91904e-10
0.000145774
-9.22163e-10
0.000145774
-1.4645e-09
0.000145774
-2.18253e-09
0.000145774
-2.40751e-09
0.000145775
-2.49709e-09
0.000145775
-2.45081e-09
0.000145775
-2.32874e-09
0.000145775
-2.18581e-09
0.000145775
-2.04389e-09
0.000145775
-1.91784e-09
0.000145775
-1.81385e-09
0.000145775
-1.73321e-09
0.000145775
-1.6748e-09
0.000145775
-1.63606e-09
0.000145775
-1.61365e-09
0.000145775
-1.60405e-09
0.000145775
-1.60383e-09
0.000145775
-1.60987e-09
0.000145775
-1.61943e-09
0.000145775
-1.63014e-09
0.000145775
-1.64006e-09
0.000145775
-1.64773e-09
0.000145775
-1.6521e-09
0.000145775
-1.65257e-09
0.000145775
-1.64879e-09
0.000145775
-1.64055e-09
0.000145775
-1.62774e-09
0.000145775
-1.61029e-09
0.000145775
-1.5884e-09
0.000145775
-1.56252e-09
0.000145775
-1.5337e-09
0.000145775
-1.50309e-09
0.000145775
-1.47267e-09
0.000145775
-1.44347e-09
0.000145775
-1.41766e-09
0.000145775
-1.39428e-09
0.000145775
-1.37349e-09
0.000145775
-1.35057e-09
0.000145775
-1.31308e-09
0.000145775
-1.26197e-09
0.000145775
-1.10704e-09
0.000145775
-9.6419e-10
0.000145775
-2.52964e-10
0.000145775
2.36232e-11
3.33739e-09
0.000145773
8.65647e-09
0.000145773
5.47248e-09
0.000145773
3.28368e-09
0.000145773
2.09403e-09
0.000145773
1.2779e-09
0.000145773
7.30625e-10
0.000145773
3.23602e-10
0.000145773
-2.89316e-11
0.000145773
-3.41746e-10
0.000145773
-6.64093e-10
0.000145773
-9.47809e-10
0.000145773
-1.25426e-09
0.000145773
-1.44895e-09
0.000145773
-1.60104e-09
0.000145773
-1.55534e-09
-1.14981e-09
0.000150333
-1.38201e-09
0.000150333
-1.74459e-09
0.000150333
-2.37876e-09
0.000150333
-2.55589e-09
0.000150334
-2.61183e-09
0.000150334
-2.54607e-09
0.000150334
-2.41012e-09
0.000150334
-2.25622e-09
0.000150334
-2.10469e-09
0.000150334
-1.96954e-09
0.000150334
-1.85677e-09
0.000150334
-1.76758e-09
0.000150334
-1.70089e-09
0.000150334
-1.65417e-09
0.000150334
-1.62419e-09
0.000150334
-1.60749e-09
0.000150334
-1.6007e-09
0.000150334
-1.60076e-09
0.000150334
-1.60493e-09
0.000150334
-1.61088e-09
0.000150334
-1.61666e-09
0.000150334
-1.62077e-09
0.000150334
-1.62218e-09
0.000150334
-1.62021e-09
0.000150334
-1.6145e-09
0.000150334
-1.6048e-09
0.000150334
-1.59099e-09
0.000150334
-1.57303e-09
0.000150334
-1.55114e-09
0.000150334
-1.52578e-09
0.000150334
-1.49804e-09
0.000150334
-1.46904e-09
0.000150334
-1.44081e-09
0.000150334
-1.41438e-09
0.000150334
-1.39201e-09
0.000150334
-1.37275e-09
0.000150334
-1.35721e-09
0.000150334
-1.34036e-09
0.000150334
-1.31167e-09
0.000150334
-1.26962e-09
0.000150334
-1.13368e-09
0.000150334
-1.00269e-09
0.000150334
-3.54661e-10
0.000150334
-7.52776e-11
2.81937e-09
0.000150332
8.04758e-09
0.000150332
5.34201e-09
0.000150332
3.30755e-09
0.000150332
2.14363e-09
0.000150332
1.32539e-09
0.000150332
7.68043e-10
0.000150332
3.51007e-10
0.000150332
-1.19255e-11
0.000150332
-3.35706e-10
0.000150332
-6.71559e-10
0.000150332
-9.69933e-10
0.000150332
-1.30132e-09
0.000150332
-1.51955e-09
0.000150332
-1.73738e-09
0.000150332
-1.74018e-09
-1.52695e-09
0.000154985
-1.8554e-09
0.000154985
-2.03046e-09
0.000154985
-2.5722e-09
0.000154985
-2.70089e-09
0.000154986
-2.72346e-09
0.000154986
-2.63821e-09
0.000154986
-2.48815e-09
0.000154986
-2.32295e-09
0.000154986
-2.1615e-09
0.000154986
-2.017e-09
0.000154986
-1.8952e-09
0.000154986
-1.79723e-09
0.000154986
-1.722e-09
0.000154986
-1.66703e-09
0.000154986
-1.62917e-09
0.000154986
-1.60504e-09
0.000154986
-1.59135e-09
0.000154986
-1.58506e-09
0.000154986
-1.58349e-09
0.000154986
-1.58431e-09
0.000154986
-1.58558e-09
0.000154986
-1.58582e-09
0.000154986
-1.58395e-09
0.000154986
-1.57928e-09
0.000154986
-1.57141e-09
0.000154986
-1.56008e-09
0.000154986
-1.54517e-09
0.000154986
-1.52664e-09
0.000154986
-1.50476e-09
0.000154985
-1.48e-09
0.000154985
-1.45346e-09
0.000154985
-1.42629e-09
0.000154985
-1.40053e-09
0.000154985
-1.37722e-09
0.000154985
-1.35874e-09
0.000154985
-1.34415e-09
0.000154985
-1.3345e-09
0.000154985
-1.32452e-09
0.000154985
-1.30568e-09
0.000154985
-1.27391e-09
0.000154985
-1.15919e-09
0.000154985
-1.04207e-09
0.000154985
-4.65126e-10
0.000154985
-1.87064e-10
2.27915e-09
0.000154983
7.37224e-09
0.000154984
5.1363e-09
0.000154984
3.29014e-09
0.000154984
2.17866e-09
0.000154984
1.37141e-09
0.000154984
8.08659e-10
0.000154983
3.83017e-10
0.000154983
1.00306e-11
0.000154983
-3.24837e-10
0.000154983
-6.74501e-10
0.000154983
-9.88191e-10
0.000154984
-1.34533e-09
0.000154984
-1.58868e-09
0.000154984
-1.87379e-09
0.000154984
-1.92767e-09
-1.91336e-09
0.000159732
-2.33677e-09
0.000159732
-2.32562e-09
0.000159732
-2.76704e-09
0.000159732
-2.84445e-09
0.000159732
-2.83249e-09
0.000159732
-2.72727e-09
0.000159732
-2.56278e-09
0.000159733
-2.38595e-09
0.000159733
-2.21429e-09
0.000159733
-2.06018e-09
0.000159733
-1.92912e-09
0.000159733
-1.82213e-09
0.000159733
-1.7381e-09
0.000159733
-1.67462e-09
0.000159733
-1.62859e-09
0.000159733
-1.59672e-09
0.000159733
-1.57578e-09
0.000159733
-1.56278e-09
0.000159733
-1.55509e-09
0.000159733
-1.55041e-09
0.000159733
-1.54681e-09
0.000159732
-1.54281e-09
0.000159732
-1.53733e-09
0.000159732
-1.52966e-09
0.000159732
-1.51937e-09
0.000159732
-1.5062e-09
0.000159732
-1.49002e-09
0.000159732
-1.47083e-09
0.000159732
-1.44891e-09
0.000159732
-1.42477e-09
0.000159732
-1.39953e-09
0.000159732
-1.37435e-09
0.000159732
-1.35129e-09
0.000159732
-1.33142e-09
0.000159732
-1.31722e-09
0.000159732
-1.30781e-09
0.000159732
-1.30468e-09
0.000159732
-1.30235e-09
0.000159732
-1.29441e-09
0.000159732
-1.27417e-09
0.000159732
-1.18284e-09
0.000159732
-1.08184e-09
0.000159732
-5.82508e-10
0.000159732
-3.13014e-10
1.73389e-09
0.00015973
6.66177e-09
0.00015973
4.86469e-09
0.00015973
3.22322e-09
0.00015973
2.18694e-09
0.00015973
1.40614e-09
0.00015973
8.45718e-10
0.00015973
4.15014e-10
0.00015973
3.36331e-11
0.00015973
-3.1163e-10
0.00015973
-6.74876e-10
0.00015973
-1.00417e-09
0.00015973
-1.38756e-09
0.00015973
-1.65742e-09
0.00015973
-2.01089e-09
0.000159731
-2.11865e-09
-2.3034e-09
0.000164575
-2.82137e-09
0.000164575
-2.63048e-09
0.000164576
-2.96599e-09
0.000164576
-2.98868e-09
0.000164576
-2.94001e-09
0.000164576
-2.81372e-09
0.000164576
-2.63423e-09
0.000164576
-2.44536e-09
0.000164576
-2.26318e-09
0.000164576
-2.0992e-09
0.000164576
-1.95863e-09
0.000164576
-1.84237e-09
0.000164576
-1.74931e-09
0.000164576
-1.67705e-09
0.000164576
-1.62257e-09
0.000164576
-1.58264e-09
0.000164576
-1.5541e-09
0.000164576
-1.53405e-09
0.000164576
-1.51987e-09
0.000164576
-1.50929e-09
0.000164576
-1.50044e-09
0.000164576
-1.49183e-09
0.000164576
-1.48238e-09
0.000164576
-1.47137e-09
0.000164576
-1.45836e-09
0.000164576
-1.4431e-09
0.000164576
-1.42546e-09
0.000164576
-1.40545e-09
0.000164576
-1.3834e-09
0.000164576
-1.35984e-09
0.000164575
-1.33592e-09
0.000164575
-1.31283e-09
0.000164575
-1.29265e-09
0.000164575
-1.27649e-09
0.000164575
-1.26694e-09
0.000164575
-1.26315e-09
0.000164575
-1.26714e-09
0.000164575
-1.27321e-09
0.000164575
-1.27716e-09
0.000164575
-1.26972e-09
0.000164575
-1.20385e-09
0.000164575
-1.12145e-09
0.000164575
-7.04947e-10
0.000164575
-4.53143e-10
1.19264e-09
0.000164573
5.93774e-09
0.000164574
4.54131e-09
0.000164574
3.10763e-09
0.000164574
2.16217e-09
0.000164574
1.42216e-09
0.000164574
8.73121e-10
0.000164574
4.42396e-10
0.000164574
5.54102e-11
0.000164574
-2.98782e-10
0.000164574
-6.74839e-10
0.000164574
-1.01965e-09
0.000164574
-1.42944e-09
0.000164574
-1.72696e-09
0.000164574
-2.14934e-09
0.000164574
-2.31395e-09
-2.69403e-09
0.000169518
-3.3056e-09
0.000169518
-2.94394e-09
0.000169518
-3.17026e-09
0.000169518
-3.13526e-09
0.000169518
-3.04729e-09
0.000169518
-2.89831e-09
0.000169519
-2.70298e-09
0.000169519
-2.50152e-09
0.000169519
-2.30844e-09
0.000169519
-2.13428e-09
0.000169519
-1.98395e-09
0.000169519
-1.85819e-09
0.000169519
-1.75584e-09
0.000169519
-1.67455e-09
0.000169519
-1.61133e-09
0.000169519
-1.56303e-09
0.000169519
-1.52657e-09
0.000169519
-1.4991e-09
0.000169519
-1.47804e-09
0.000169519
-1.46119e-09
0.000169518
-1.44669e-09
0.000169518
-1.43307e-09
0.000169518
-1.41927e-09
0.000169518
-1.40457e-09
0.000169518
-1.38852e-09
0.000169518
-1.37086e-09
0.000169518
-1.3515e-09
0.000169518
-1.33048e-09
0.000169518
-1.30815e-09
0.000169518
-1.28509e-09
0.000169518
-1.26247e-09
0.000169518
-1.2415e-09
0.000169518
-1.22432e-09
0.000169518
-1.21205e-09
0.000169518
-1.20744e-09
0.000169517
-1.2097e-09
0.000169517
-1.22135e-09
0.000169517
-1.23651e-09
0.000169517
-1.25331e-09
0.000169517
-1.25993e-09
0.000169517
-1.22147e-09
0.000169517
-1.16027e-09
0.000169518
-8.30638e-10
0.000169518
-6.06464e-10
6.6034e-10
0.000169516
5.21429e-09
0.000169516
4.18019e-09
0.000169516
2.94932e-09
0.000169516
2.10318e-09
0.000169516
1.41525e-09
0.000169516
8.86295e-10
0.000169516
4.61203e-10
0.000169516
7.21331e-11
0.000169516
-2.88921e-10
0.000169516
-6.76552e-10
0.000169516
-1.03644e-09
0.000169516
-1.47245e-09
0.000169516
-1.79857e-09
0.000169517
-2.28987e-09
0.000169517
-2.51426e-09
-3.08363e-09
0.000174561
-3.78675e-09
0.000174561
-3.26433e-09
0.000174561
-3.38004e-09
0.000174561
-3.28524e-09
0.000174562
-3.15545e-09
0.000174562
-2.98191e-09
0.000174562
-2.76965e-09
0.000174562
-2.55488e-09
0.000174562
-2.35044e-09
0.000174562
-2.16578e-09
0.000174562
-2.0054e-09
0.000174562
-1.86989e-09
0.000174562
-1.75802e-09
0.000174562
-1.66744e-09
0.000174562
-1.59521e-09
0.000174562
-1.53825e-09
0.000174562
-1.49354e-09
0.000174562
-1.45829e-09
0.000174562
-1.42999e-09
0.000174562
-1.40648e-09
0.000174562
-1.38592e-09
0.000174562
-1.36689e-09
0.000174561
-1.34834e-09
0.000174561
-1.32955e-09
0.000174561
-1.31009e-09
0.000174561
-1.28971e-09
0.000174561
-1.26834e-09
0.000174561
-1.24605e-09
0.000174561
-1.22324e-09
0.000174561
-1.20052e-09
0.000174561
-1.17911e-09
0.000174561
-1.16025e-09
0.000174561
-1.14611e-09
0.000174561
-1.13788e-09
0.000174561
-1.13844e-09
0.00017456
-1.14707e-09
0.00017456
-1.16685e-09
0.00017456
-1.19177e-09
0.00017456
-1.22232e-09
0.00017456
-1.24422e-09
0.00017456
-1.23496e-09
0.00017456
-1.19765e-09
0.00017456
-9.57851e-10
0.000174561
-7.71298e-10
1.39954e-10
0.000174559
4.50048e-09
0.000174559
3.79326e-09
0.000174559
2.75634e-09
0.000174559
2.01246e-09
0.000174559
1.38422e-09
0.000174559
8.82604e-10
0.000174559
4.6857e-10
0.000174559
8.11757e-11
0.000174559
-2.84333e-10
0.000174559
-6.81983e-10
0.000174559
-1.05625e-09
0.000174559
-1.51803e-09
0.00017456
-1.87344e-09
0.00017456
-2.43319e-09
0.00017456
-2.7201e-09
-3.47131e-09
0.000179707
-4.26278e-09
0.000179707
-3.58993e-09
0.000179707
-3.59483e-09
0.000179707
-3.43906e-09
0.000179707
-3.26533e-09
0.000179707
-3.06534e-09
0.000179708
-2.8349e-09
0.000179708
-2.60601e-09
0.000179708
-2.38966e-09
0.000179708
-2.19412e-09
0.000179708
-2.02341e-09
0.000179708
-1.87789e-09
0.000179708
-1.75626e-09
0.000179708
-1.65614e-09
0.000179708
-1.57465e-09
0.000179708
-1.50874e-09
0.000179708
-1.45547e-09
0.000179708
-1.41211e-09
0.000179707
-1.3762e-09
0.000179707
-1.34563e-09
0.000179707
-1.31861e-09
0.000179707
-1.29376e-09
0.000179707
-1.27004e-09
0.000179707
-1.24676e-09
0.000179707
-1.22349e-09
0.000179707
-1.20002e-09
0.000179707
-1.1763e-09
0.000179707
-1.15245e-09
0.000179707
-1.12891e-09
0.000179707
-1.10633e-09
0.000179706
-1.08597e-09
0.000179706
-1.06913e-09
0.000179706
-1.05801e-09
0.000179706
-1.05388e-09
0.000179706
-1.05975e-09
0.000179706
-1.07504e-09
0.000179706
-1.10335e-09
0.000179706
-1.1386e-09
0.000179706
-1.18371e-09
0.000179706
-1.22205e-09
0.000179706
-1.24362e-09
0.000179706
-1.23289e-09
0.000179706
-1.08494e-09
0.000179706
-9.45536e-10
-3.66356e-10
0.000179704
3.80226e-09
0.000179705
3.39002e-09
0.000179705
2.53697e-09
0.000179705
1.89459e-09
0.000179705
1.33029e-09
0.000179705
8.61339e-10
0.000179705
4.62947e-10
0.000179705
8.07618e-11
0.000179705
-2.86755e-10
0.000179705
-6.92729e-10
0.000179705
-1.08051e-09
0.000179705
-1.5674e-09
0.000179705
-1.95265e-09
0.000179706
-2.5799e-09
0.000179706
-2.93178e-09
-3.85645e-09
0.000184957
-4.73203e-09
0.000184957
-3.91903e-09
0.000184957
-3.81378e-09
0.000184958
-3.59665e-09
0.000184958
-3.37741e-09
0.000184958
-3.14922e-09
0.000184958
-2.89937e-09
0.000184958
-2.65548e-09
0.000184958
-2.42663e-09
0.000184958
-2.2198e-09
0.000184958
-2.03844e-09
0.000184958
-1.88267e-09
0.000184958
-1.75104e-09
0.000184958
-1.64117e-09
0.000184958
-1.55017e-09
0.000184958
-1.47505e-09
0.000184958
-1.41293e-09
0.000184958
-1.36113e-09
0.000184958
-1.31726e-09
0.000184958
-1.27925e-09
0.000184958
-1.24538e-09
0.000184958
-1.21428e-09
0.000184957
-1.18497e-09
0.000184957
-1.15677e-09
0.000184957
-1.12929e-09
0.000184957
-1.10233e-09
0.000184957
-1.07588e-09
0.000184957
-1.05012e-09
0.000184957
-1.02553e-09
0.000184957
-1.00283e-09
0.000184957
-9.83312e-10
0.000184957
-9.68327e-10
0.000184956
-9.60144e-10
0.000184956
-9.60101e-10
0.000184956
-9.71366e-10
0.000184956
-9.93494e-10
0.000184956
-1.03065e-09
0.000184956
-1.07674e-09
0.000184956
-1.13714e-09
0.000184956
-1.19302e-09
0.000184956
-1.24682e-09
0.000184956
-1.26532e-09
0.000184956
-1.21036e-09
0.000184956
-1.12684e-09
-8.56731e-10
0.000184955
3.12376e-09
0.000184955
2.97782e-09
0.000184955
2.29871e-09
0.000184955
1.75499e-09
0.000184955
1.25632e-09
0.000184955
8.23406e-10
0.000184955
4.44081e-10
0.000184955
7.0069e-11
0.000184955
-2.97238e-10
0.000184955
-7.09894e-10
0.000184956
-1.1103e-09
0.000184956
-1.62152e-09
0.000184956
-2.037e-09
0.000184956
-2.7304e-09
0.000184956
-3.14935e-09
-4.23849e-09
0.000190314
-5.19295e-09
0.000190314
-4.25001e-09
0.000190314
-4.03586e-09
0.000190314
-3.75758e-09
0.000190314
-3.49178e-09
0.000190315
-3.23395e-09
0.000190315
-2.96355e-09
0.000190315
-2.70379e-09
0.000190315
-2.46186e-09
0.000190315
-2.24333e-09
0.000190315
-2.05102e-09
0.000190315
-1.88475e-09
0.000190315
-1.74292e-09
0.000190315
-1.62308e-09
0.000190315
-1.52236e-09
0.000190315
-1.4378e-09
0.000190315
-1.36656e-09
0.000190315
-1.30602e-09
0.000190314
-1.25385e-09
0.000190314
-1.20804e-09
0.000190314
-1.16692e-09
0.000190314
-1.12918e-09
0.000190314
-1.09385e-09
0.000190314
-1.0603e-09
0.000190314
-1.02816e-09
0.000190314
-9.9728e-10
0.000190314
-9.67703e-10
0.000190314
-9.39646e-10
0.000190313
-9.13658e-10
0.000190313
-8.9051e-10
0.000190313
-8.71563e-10
0.000190313
-8.58213e-10
0.000190313
-8.52802e-10
0.000190313
-8.56757e-10
0.000190313
-8.73415e-10
0.000190313
-9.0249e-10
0.000190313
-9.48728e-10
0.000190313
-1.00608e-09
0.000190313
-1.08235e-09
0.000190313
-1.15679e-09
0.000190313
-1.24401e-09
0.000190313
-1.29426e-09
0.000190313
-1.33263e-09
0.000190313
-1.31275e-09
-1.32939e-09
0.000190311
2.46812e-09
0.000190312
2.56241e-09
0.000190312
2.04798e-09
0.000190312
1.59913e-09
0.000190312
1.16599e-09
0.000190312
7.70869e-10
0.000190312
4.12834e-10
0.000190312
4.91968e-11
0.000190312
-3.16111e-10
0.000190312
-7.34017e-10
0.000190312
-1.14626e-09
0.000190312
-1.68097e-09
0.000190312
-2.12701e-09
0.000190313
-2.88488e-09
0.000190313
-3.37259e-09
-4.61673e-09
0.000195779
-5.64405e-09
0.000195779
-4.58124e-09
0.000195779
-4.25992e-09
0.000195779
-3.92113e-09
0.00019578
-3.60826e-09
0.00019578
-3.31967e-09
0.00019578
-3.02776e-09
0.00019578
-2.75137e-09
0.00019578
-2.49579e-09
0.00019578
-2.26518e-09
0.00019578
-2.06166e-09
0.00019578
-1.88467e-09
0.00019578
-1.73246e-09
0.00019578
-1.60249e-09
0.00019578
-1.49186e-09
0.00019578
-1.39766e-09
0.00019578
-1.31706e-09
0.00019578
-1.24752e-09
0.00019578
-1.18675e-09
0.000195779
-1.13281e-09
0.000195779
-1.08407e-09
0.000195779
-1.03927e-09
0.000195779
-9.97496e-10
0.000195779
-9.58154e-10
0.000195779
-9.2092e-10
0.000195779
-8.8568e-10
0.000195779
-8.52534e-10
0.000195779
-8.21763e-10
0.000195778
-7.93977e-10
0.000195778
-7.70017e-10
0.000195778
-7.51304e-10
0.000195778
-7.39303e-10
0.000195778
-7.36432e-10
0.000195778
-7.44221e-10
0.000195778
-7.66188e-10
0.000195778
-8.02231e-10
0.000195778
-8.57688e-10
0.000195778
-9.26615e-10
0.000195777
-1.01927e-09
0.000195777
-1.11315e-09
0.000195777
-1.23474e-09
0.000195777
-1.3191e-09
0.000195778
-1.45038e-09
0.000195778
-1.50083e-09
-1.78257e-09
0.000195776
1.83792e-09
0.000195777
2.14842e-09
0.000195777
1.79011e-09
0.000195777
1.43202e-09
0.000195777
1.06325e-09
0.000195777
7.06478e-10
0.000195777
3.70884e-10
0.000195777
1.90287e-11
0.000195777
-3.43022e-10
0.000195777
-7.65076e-10
0.000195777
-1.18854e-09
0.000195777
-1.74596e-09
0.000195777
-2.22286e-09
0.000195778
-3.04325e-09
0.000195778
-3.60098e-09
-4.9903e-09
0.000201354
-6.08371e-09
0.000201354
-4.91104e-09
0.000201355
-4.48473e-09
0.000201355
-4.08644e-09
0.000201355
-3.72642e-09
0.000201355
-3.40627e-09
0.000201355
-3.09214e-09
0.000201355
-2.79849e-09
0.000201355
-2.5288e-09
0.000201355
-2.28578e-09
0.000201355
-2.07081e-09
0.000201355
-1.88296e-09
0.000201355
-1.72023e-09
0.000201355
-1.57999e-09
0.000201355
-1.45934e-09
0.000201355
-1.35533e-09
0.000201355
-1.26519e-09
0.000201355
-1.18642e-09
0.000201355
-1.11679e-09
0.000201355
-1.0544e-09
0.000201355
-9.9769e-10
0.000201355
-9.45457e-10
0.000201354
-8.96834e-10
0.000201354
-8.5127e-10
0.000201354
-8.08489e-10
0.000201354
-7.68433e-10
0.000201354
-7.31263e-10
0.000201354
-6.97327e-10
0.000201354
-6.67309e-10
0.000201354
-6.42123e-10
0.000201354
-6.23259e-10
0.000201353
-6.1226e-10
0.000201353
-6.11629e-10
0.000201353
-6.23016e-10
0.000201353
-6.50128e-10
0.000201353
-6.93075e-10
0.000201353
-7.57794e-10
0.000201353
-8.38519e-10
0.000201353
-9.47915e-10
0.000201353
-1.06201e-09
0.000201353
-1.21866e-09
0.000201353
-1.33927e-09
0.000201353
-1.56235e-09
0.000201353
-1.68865e-09
-2.21452e-09
0.000201351
1.23543e-09
0.000201352
1.73974e-09
0.000201352
1.52953e-09
0.000201352
1.25808e-09
0.000201352
9.51953e-10
0.000201352
6.33259e-10
0.000201352
3.20423e-10
0.000201353
-1.89684e-11
0.000201353
-3.77055e-10
0.000201353
-8.02535e-10
0.000201353
-1.23685e-09
0.000201353
-1.81631e-09
0.000201353
-2.32437e-09
0.000201353
-3.20511e-09
0.000201353
-3.83372e-09
-5.3581e-09
0.000207042
-6.5102e-09
0.000207042
-5.23762e-09
0.000207042
-4.70897e-09
0.000207042
-4.25246e-09
0.000207042
-3.8456e-09
0.000207043
-3.49345e-09
0.000207043
-3.15661e-09
0.000207043
-2.84526e-09
0.000207043
-2.56114e-09
0.000207043
-2.30548e-09
0.000207043
-2.07892e-09
0.000207043
-1.88009e-09
0.000207043
-1.70677e-09
0.000207043
-1.55621e-09
0.000207043
-1.42544e-09
0.000207043
-1.31153e-09
0.000207043
-1.21172e-09
0.000207042
-1.12354e-09
0.000207042
-1.04482e-09
0.000207042
-9.73716e-10
0.000207042
-9.08733e-10
0.000207042
-8.48715e-10
0.000207042
-7.92852e-10
0.000207042
-7.40645e-10
0.000207042
-6.91876e-10
0.000207042
-6.46544e-10
0.000207042
-6.0488e-10
0.000207041
-5.67309e-10
0.000207041
-5.34593e-10
0.000207041
-5.07727e-10
0.000207041
-4.88281e-10
0.000207041
-4.77882e-10
0.000207041
-4.7913e-10
0.000207041
-4.93807e-10
0.000207041
-5.25821e-10
0.00020704
-5.75521e-10
0.00020704
-6.49449e-10
0.00020704
-7.42091e-10
0.00020704
-8.68454e-10
0.00020704
-1.00341e-09
0.00020704
-1.19554e-09
0.00020704
-1.35425e-09
0.00020704
-1.66737e-09
0.00020704
-1.8739e-09
-2.62353e-09
0.000207039
6.62638e-10
0.000207039
1.33969e-09
0.00020704
1.26988e-09
0.00020704
1.08108e-09
0.00020704
8.35566e-10
0.00020704
5.5422e-10
0.00020704
2.63866e-10
0.00020704
-6.29641e-11
0.00020704
-4.16877e-10
0.00020704
-8.45446e-10
0.00020704
-1.29052e-09
0.00020704
-1.89146e-09
0.00020704
-2.43101e-09
0.000207041
-3.36976e-09
0.000207041
-4.06967e-09
-5.7188e-09
0.000212844
-6.92166e-09
0.000212844
-5.55907e-09
0.000212844
-4.93123e-09
0.000212844
-4.41806e-09
0.000212844
-3.96504e-09
0.000212844
-3.58074e-09
0.000212845
-3.22096e-09
0.000212845
-2.89167e-09
0.000212845
-2.59292e-09
0.000212845
-2.32453e-09
0.000212845
-2.08633e-09
0.000212845
-1.87651e-09
0.000212845
-1.69261e-09
0.000212845
-1.53173e-09
0.000212845
-1.39083e-09
0.000212845
-1.26698e-09
0.000212844
-1.15742e-09
0.000212844
-1.05971e-09
0.000212844
-9.71733e-10
0.000212844
-8.91701e-10
0.000212844
-8.18172e-10
0.000212844
-7.50052e-10
0.000212844
-6.86588e-10
0.000212844
-6.27342e-10
0.000212844
-5.72153e-10
0.000212844
-5.2109e-10
0.000212843
-4.74459e-10
0.000212843
-4.32769e-10
0.000212843
-3.96866e-10
0.000212843
-3.67837e-10
0.000212843
-3.47334e-10
0.000212843
-3.37084e-10
0.000212843
-3.39791e-10
0.000212842
-3.57386e-10
0.000212842
-3.93984e-10
0.000212842
-4.50204e-10
0.000212842
-5.33191e-10
0.000212842
-6.37761e-10
0.000212842
-7.81182e-10
0.000212842
-9.37485e-10
0.000212842
-1.16524e-09
0.000212842
-1.36363e-09
0.000212842
-1.76439e-09
0.000212842
-2.05437e-09
-3.00796e-09
0.000212841
1.21275e-10
0.000212841
9.51207e-10
0.000212842
1.01426e-09
0.000212842
9.04194e-10
0.000212842
7.17131e-10
0.000212842
4.72141e-10
0.000212842
2.03625e-10
0.000212842
-1.10971e-10
0.000212842
-4.60904e-10
0.000212842
-8.92564e-10
0.000212842
-1.34856e-09
0.000212842
-1.97057e-09
0.000212842
-2.54197e-09
0.000212843
-3.53626e-09
0.000212843
-4.30746e-09
-6.07086e-09
0.000218762
-7.3161e-09
0.000218762
-5.87335e-09
0.000218762
-5.15e-09
0.000218763
-4.582e-09
0.000218763
-4.08382e-09
0.000218763
-3.66751e-09
0.000218763
-3.28481e-09
0.000218763
-2.93755e-09
0.000218763
-2.62415e-09
0.000218763
-2.34306e-09
0.000218763
-2.09328e-09
0.000218763
-1.87258e-09
0.000218763
-1.67818e-09
0.000218763
-1.50706e-09
0.000218763
-1.35611e-09
0.000218763
-1.22235e-09
0.000218763
-1.10304e-09
0.000218763
-9.9575e-10
0.000218763
-8.9841e-10
0.000218763
-8.09285e-10
0.000218762
-7.26993e-10
0.000218762
-6.50499e-10
0.000218762
-5.79112e-10
0.000218762
-5.12456e-10
0.000218762
-4.50439e-10
0.000218762
-3.93203e-10
0.000218762
-3.41135e-10
0.000218762
-2.94834e-10
0.000218761
-2.55241e-10
0.000218761
-2.23538e-10
0.000218761
-2.01472e-10
0.000218761
-1.90879e-10
0.000218761
-1.94574e-10
0.000218761
-2.14652e-10
0.000218761
-2.55448e-10
0.00021876
-3.17874e-10
0.00021876
-4.09677e-10
0.00021876
-5.26081e-10
0.00021876
-6.8651e-10
0.00021876
-8.64485e-10
0.00021876
-1.12775e-09
0.00021876
-1.36702e-09
0.00021876
-1.85248e-09
0.00021876
-2.22797e-09
-3.36626e-09
0.000218759
-3.87207e-10
0.00021876
5.76868e-10
0.00021876
7.65261e-10
0.00021876
7.30079e-10
0.00021876
5.99223e-10
0.00021876
3.89477e-10
0.00021876
1.41949e-10
0.00021876
-1.61016e-10
0.00021876
-5.07455e-10
0.00021876
-9.42477e-10
0.000218761
-1.40976e-09
0.000218761
-2.05256e-09
0.000218761
-2.65617e-09
0.000218761
-3.70341e-09
0.000218761
-4.54547e-09
-6.41254e-09
0.000224799
-7.69147e-09
0.000224799
-6.17836e-09
0.000224799
-5.3637e-09
0.000224799
-4.74295e-09
0.0002248
-4.20096e-09
0.0002248
-3.75306e-09
0.0002248
-3.3477e-09
0.0002248
-2.98262e-09
0.0002248
-2.65474e-09
0.0002248
-2.36112e-09
0.0002248
-2.09997e-09
0.0002248
-1.86857e-09
0.0002248
-1.66388e-09
0.0002248
-1.48271e-09
0.0002248
-1.32185e-09
0.0002248
-1.1783e-09
0.0002248
-1.0493e-09
0.0002248
-9.32448e-10
0.000224799
-8.25707e-10
0.000224799
-7.2739e-10
0.000224799
-6.36172e-10
0.000224799
-5.51083e-10
0.000224799
-4.71494e-10
0.000224799
-3.97098e-10
0.000224799
-3.27873e-10
0.000224799
-2.64041e-10
0.000224799
-2.06077e-10
0.000224798
-1.54678e-10
0.000224798
-1.10882e-10
0.000224798
-7.59799e-11
0.000224798
-5.18191e-11
0.000224798
-4.03532e-11
0.000224798
-4.45218e-11
0.000224798
-6.65953e-11
0.000224797
-1.11137e-10
0.000224797
-1.79379e-10
0.000224797
-2.79665e-10
0.000224797
-4.07703e-10
0.000224797
-5.84948e-10
0.000224797
-7.84756e-10
0.000224797
-1.08313e-09
0.000224797
-1.36415e-09
0.000224797
-1.9308e-09
0.000224797
-2.39275e-09
-3.69702e-09
0.000224796
-8.61666e-10
0.000224797
2.18915e-10
0.000224797
5.25075e-10
0.000224797
5.60938e-10
0.000224797
4.83972e-10
0.000224797
3.08301e-10
0.000224797
8.08206e-11
0.000224797
-2.11267e-10
0.000224797
-5.54882e-10
0.000224797
-9.93725e-10
0.000224797
-1.47281e-09
0.000224798
-2.13621e-09
0.000224798
-2.77236e-09
0.000224798
-3.86986e-09
0.000224798
-4.7819e-09
-6.74196e-09
0.000230956
-8.04569e-09
0.000230957
-6.4719e-09
0.000230957
-5.57067e-09
0.000230957
-4.89955e-09
0.000230957
-4.3154e-09
0.000230957
-3.83662e-09
0.000230957
-3.40906e-09
0.000230957
-3.02655e-09
0.000230957
-2.68451e-09
0.000230957
-2.37869e-09
0.000230957
-2.10648e-09
0.000230957
-1.86471e-09
0.000230957
-1.65002e-09
0.000230957
-1.45907e-09
0.000230957
-1.28855e-09
0.000230957
-1.1354e-09
0.000230957
-9.96868e-10
0.000230957
-8.70553e-10
0.000230957
-7.54443e-10
0.000230957
-6.46901e-10
0.000230957
-5.46659e-10
0.000230957
-4.52809e-10
0.000230957
-3.64791e-10
0.000230957
-2.82365e-10
0.000230957
-2.05588e-10
0.000230956
-1.34765e-10
0.000230956
-7.04655e-11
0.000230956
-1.34893e-11
0.000230956
3.5018e-11
0.000230956
7.36547e-11
0.000230956
1.00461e-10
0.000230956
1.13356e-10
0.000230955
1.09267e-10
0.000230955
8.57324e-11
0.000230955
3.79552e-11
0.000230955
-3.56445e-11
0.000230955
-1.43993e-10
0.000230955
-2.83361e-10
0.000230955
-4.77092e-10
0.000230954
-6.98721e-10
0.000230954
-1.03153e-09
0.000230954
-1.35478e-09
0.000230954
-1.99863e-09
0.000230955
-2.5469e-09
-3.99891e-09
0.000230954
-1.30129e-09
0.000230954
-1.20747e-10
0.000230955
2.95529e-10
0.000230955
3.98581e-10
0.000230955
3.73108e-10
0.000230955
2.30306e-10
0.000230955
2.19084e-11
0.000230955
-2.60119e-10
0.000230955
-6.01669e-10
0.000230955
-1.04489e-09
0.000230955
-1.53639e-09
0.000230955
-2.22023e-09
0.000230955
-2.88921e-09
0.000230956
-4.03414e-09
0.000230956
-5.01483e-09
-7.05719e-09
0.000237237
-8.37672e-09
0.000237238
-6.75181e-09
0.000237238
-5.76925e-09
0.000237238
-5.05041e-09
0.000237238
-4.42605e-09
0.000237238
-3.91736e-09
0.000237238
-3.46829e-09
0.000237238
-3.0689e-09
0.000237238
-2.71319e-09
0.000237238
-2.39565e-09
0.000237238
-2.11285e-09
0.000237238
-1.86113e-09
0.000237238
-1.63686e-09
0.000237238
-1.4365e-09
0.000237238
-1.25666e-09
0.000237238
-1.0942e-09
0.000237238
-9.46364e-10
0.000237238
-8.10754e-10
0.000237238
-6.85382e-10
0.000237238
-5.68654e-10
0.000237238
-4.59356e-10
0.000237238
-3.56641e-10
0.000237238
-2.6002e-10
0.000237238
-1.69326e-10
0.000237237
-8.46936e-11
0.000237237
-6.51954e-12
0.000237237
6.45298e-11
0.000237237
1.27545e-10
0.000237237
1.81267e-10
0.000237237
2.24173e-10
0.000237237
2.54186e-10
0.000237236
2.69086e-10
0.000237236
2.65658e-10
0.000237236
2.41238e-10
0.000237236
1.90787e-10
0.000237236
1.12354e-10
0.000237236
-3.55581e-12
0.000237236
-1.5385e-10
0.000237235
-3.63598e-10
0.000237235
-6.06857e-10
0.000237235
-9.73155e-10
0.000237235
-1.33872e-09
0.000237235
-2.05534e-09
0.000237235
-2.68875e-09
-4.27081e-09
0.000237235
-1.70557e-09
0.000237235
-4.40544e-10
0.000237236