/*--------------------------------*- C++ -*----------------------------------*\
  =========                 |
  \\      /  F ield         | OpenFOAM: The Open Source CFD Toolbox
   \\    /   O peration     | Website:  https://openfoam.org
    \\  /    A nd           | Version:  7
     \\/     M anipulation  |
\*---------------------------------------------------------------------------*/
FoamFile
{
    version     2.0;
    format      ascii;
    class       volScalarField;
    location    "3500";
    object      k;
}
// * * * * * * * * * * * * * * * * * * * * * * * * * * * * * * * * * * * * * //

dimensions      [0 2 -2 0 0 0 0];

internalField   nonuniform List<scalar> 
24000
(
6.78079e-09
6.78082e-09
6.78073e-09
6.78055e-09
6.78034e-09
6.78013e-09
6.77996e-09
6.77981e-09
6.77969e-09
6.7796e-09
6.77954e-09
6.77949e-09
6.77947e-09
6.77946e-09
6.77947e-09
6.77949e-09
6.77952e-09
6.77956e-09
6.77961e-09
6.77966e-09
6.77972e-09
6.77978e-09
6.77984e-09
6.7799e-09
6.77996e-09
6.78002e-09
6.78008e-09
6.78013e-09
6.78019e-09
6.78025e-09
6.7803e-09
6.78036e-09
6.78041e-09
6.78046e-09
6.78051e-09
6.78056e-09
6.78061e-09
6.78065e-09
6.7807e-09
6.78075e-09
6.7808e-09
6.78084e-09
6.78088e-09
6.78092e-09
6.78095e-09
6.78097e-09
6.78099e-09
6.78101e-09
6.78102e-09
6.78104e-09
6.78106e-09
6.78108e-09
6.7811e-09
6.78111e-09
6.78113e-09
6.78114e-09
6.78114e-09
6.78114e-09
6.78114e-09
6.78112e-09
6.78109e-09
6.78106e-09
6.78102e-09
6.78097e-09
6.78092e-09
6.78087e-09
6.78081e-09
6.78076e-09
6.7807e-09
6.78065e-09
6.7806e-09
6.78056e-09
6.78051e-09
6.78047e-09
6.78044e-09
6.78041e-09
6.78038e-09
6.78035e-09
6.78033e-09
6.78031e-09
6.78029e-09
6.78028e-09
6.78026e-09
6.78025e-09
6.78024e-09
6.78023e-09
6.78022e-09
6.78021e-09
6.78021e-09
6.7802e-09
6.78019e-09
6.78019e-09
6.78018e-09
6.78018e-09
6.78018e-09
6.78018e-09
6.78018e-09
6.78019e-09
6.7802e-09
6.78021e-09
6.78023e-09
6.78025e-09
6.78028e-09
6.7803e-09
6.78033e-09
6.78035e-09
6.78038e-09
6.78041e-09
6.78044e-09
6.78047e-09
6.7805e-09
6.78053e-09
6.78057e-09
6.78059e-09
6.78062e-09
6.78064e-09
6.78065e-09
6.78066e-09
6.78065e-09
6.78065e-09
2.04352e-07
2.04353e-07
2.0435e-07
2.04345e-07
2.04338e-07
2.04332e-07
2.04327e-07
2.04322e-07
2.04319e-07
2.04316e-07
2.04314e-07
2.04313e-07
2.04312e-07
2.04312e-07
2.04312e-07
2.04313e-07
2.04314e-07
2.04315e-07
2.04316e-07
2.04318e-07
2.0432e-07
2.04322e-07
2.04323e-07
2.04325e-07
2.04327e-07
2.04329e-07
2.04331e-07
2.04332e-07
2.04334e-07
2.04336e-07
2.04337e-07
2.04339e-07
2.04341e-07
2.04342e-07
2.04344e-07
2.04345e-07
2.04347e-07
2.04348e-07
2.04349e-07
2.04351e-07
2.04352e-07
2.04354e-07
2.04355e-07
2.04356e-07
2.04357e-07
2.04358e-07
2.04358e-07
2.04359e-07
2.04359e-07
2.0436e-07
2.0436e-07
2.04361e-07
2.04361e-07
2.04362e-07
2.04362e-07
2.04363e-07
2.04363e-07
2.04363e-07
2.04362e-07
2.04362e-07
2.04361e-07
2.0436e-07
2.04359e-07
2.04358e-07
2.04356e-07
2.04354e-07
2.04353e-07
2.04351e-07
2.04349e-07
2.04348e-07
2.04346e-07
2.04345e-07
2.04344e-07
2.04343e-07
2.04341e-07
2.04341e-07
2.0434e-07
2.04339e-07
2.04338e-07
2.04338e-07
2.04337e-07
2.04337e-07
2.04336e-07
2.04336e-07
2.04335e-07
2.04335e-07
2.04335e-07
2.04335e-07
2.04334e-07
2.04334e-07
2.04334e-07
2.04334e-07
2.04334e-07
2.04334e-07
2.04334e-07
2.04334e-07
2.04334e-07
2.04334e-07
2.04334e-07
2.04335e-07
2.04335e-07
2.04336e-07
2.04337e-07
2.04337e-07
2.04338e-07
2.04339e-07
2.0434e-07
2.04341e-07
2.04341e-07
2.04342e-07
2.04343e-07
2.04344e-07
2.04345e-07
2.04346e-07
2.04347e-07
2.04347e-07
2.04348e-07
2.04348e-07
2.04348e-07
2.04348e-07
1.48352e-06
1.48352e-06
1.4835e-06
1.48346e-06
1.48342e-06
1.48337e-06
1.48333e-06
1.4833e-06
1.48327e-06
1.48326e-06
1.48324e-06
1.48323e-06
1.48323e-06
1.48323e-06
1.48323e-06
1.48323e-06
1.48324e-06
1.48325e-06
1.48326e-06
1.48327e-06
1.48328e-06
1.48329e-06
1.48331e-06
1.48332e-06
1.48333e-06
1.48335e-06
1.48336e-06
1.48337e-06
1.48338e-06
1.4834e-06
1.48341e-06
1.48342e-06
1.48343e-06
1.48344e-06
1.48345e-06
1.48347e-06
1.48348e-06
1.48349e-06
1.4835e-06
1.48351e-06
1.48352e-06
1.48353e-06
1.48354e-06
1.48354e-06
1.48355e-06
1.48356e-06
1.48356e-06
1.48356e-06
1.48357e-06
1.48357e-06
1.48357e-06
1.48358e-06
1.48358e-06
1.48359e-06
1.48359e-06
1.48359e-06
1.48359e-06
1.48359e-06
1.48359e-06
1.48359e-06
1.48358e-06
1.48357e-06
1.48356e-06
1.48355e-06
1.48354e-06
1.48353e-06
1.48352e-06
1.48351e-06
1.4835e-06
1.48349e-06
1.48347e-06
1.48346e-06
1.48345e-06
1.48345e-06
1.48344e-06
1.48343e-06
1.48343e-06
1.48342e-06
1.48341e-06
1.48341e-06
1.48341e-06
1.4834e-06
1.4834e-06
1.4834e-06
1.48339e-06
1.48339e-06
1.48339e-06
1.48339e-06
1.48339e-06
1.48339e-06
1.48338e-06
1.48338e-06
1.48338e-06
1.48338e-06
1.48338e-06
1.48338e-06
1.48338e-06
1.48338e-06
1.48339e-06
1.48339e-06
1.48339e-06
1.4834e-06
1.4834e-06
1.48341e-06
1.48341e-06
1.48342e-06
1.48343e-06
1.48343e-06
1.48344e-06
1.48345e-06
1.48345e-06
1.48346e-06
1.48347e-06
1.48347e-06
1.48348e-06
1.48348e-06
1.48348e-06
1.48349e-06
1.48349e-06
1.48348e-06
5.4868e-06
5.48682e-06
5.48674e-06
5.48659e-06
5.48642e-06
5.48626e-06
5.48612e-06
5.486e-06
5.48591e-06
5.48584e-06
5.48579e-06
5.48575e-06
5.48574e-06
5.48573e-06
5.48574e-06
5.48575e-06
5.48578e-06
5.48581e-06
5.48584e-06
5.48589e-06
5.48594e-06
5.48599e-06
5.48604e-06
5.48608e-06
5.48613e-06
5.48618e-06
5.48622e-06
5.48627e-06
5.48632e-06
5.48636e-06
5.48641e-06
5.48645e-06
5.48649e-06
5.48653e-06
5.48657e-06
5.48661e-06
5.48665e-06
5.48669e-06
5.48673e-06
5.48676e-06
5.4868e-06
5.48684e-06
5.48687e-06
5.4869e-06
5.48692e-06
5.48694e-06
5.48696e-06
5.48697e-06
5.48698e-06
5.487e-06
5.48701e-06
5.48703e-06
5.48704e-06
5.48706e-06
5.48707e-06
5.48708e-06
5.48708e-06
5.48708e-06
5.48707e-06
5.48706e-06
5.48704e-06
5.48701e-06
5.48698e-06
5.48694e-06
5.4869e-06
5.48685e-06
5.48681e-06
5.48677e-06
5.48672e-06
5.48668e-06
5.48664e-06
5.48661e-06
5.48657e-06
5.48654e-06
5.48651e-06
5.48649e-06
5.48646e-06
5.48644e-06
5.48643e-06
5.48641e-06
5.4864e-06
5.48638e-06
5.48637e-06
5.48636e-06
5.48635e-06
5.48634e-06
5.48634e-06
5.48633e-06
5.48633e-06
5.48632e-06
5.48632e-06
5.48631e-06
5.48631e-06
5.4863e-06
5.4863e-06
5.4863e-06
5.4863e-06
5.48631e-06
5.48632e-06
5.48633e-06
5.48634e-06
5.48636e-06
5.48638e-06
5.4864e-06
5.48643e-06
5.48645e-06
5.48647e-06
5.48649e-06
5.48651e-06
5.48654e-06
5.48656e-06
5.48659e-06
5.48662e-06
5.48664e-06
5.48666e-06
5.48667e-06
5.48668e-06
5.48669e-06
5.48669e-06
5.48668e-06
1.40272e-05
1.40272e-05
1.4027e-05
1.40266e-05
1.40262e-05
1.40258e-05
1.40254e-05
1.40251e-05
1.40249e-05
1.40247e-05
1.40246e-05
1.40245e-05
1.40245e-05
1.40245e-05
1.40245e-05
1.40245e-05
1.40246e-05
1.40247e-05
1.40248e-05
1.40249e-05
1.4025e-05
1.40251e-05
1.40252e-05
1.40254e-05
1.40255e-05
1.40256e-05
1.40257e-05
1.40258e-05
1.40259e-05
1.4026e-05
1.40262e-05
1.40263e-05
1.40264e-05
1.40265e-05
1.40266e-05
1.40267e-05
1.40268e-05
1.40269e-05
1.40269e-05
1.4027e-05
1.40271e-05
1.40272e-05
1.40273e-05
1.40274e-05
1.40274e-05
1.40275e-05
1.40275e-05
1.40276e-05
1.40276e-05
1.40276e-05
1.40277e-05
1.40277e-05
1.40277e-05
1.40278e-05
1.40278e-05
1.40278e-05
1.40278e-05
1.40278e-05
1.40278e-05
1.40278e-05
1.40277e-05
1.40276e-05
1.40276e-05
1.40275e-05
1.40274e-05
1.40273e-05
1.40271e-05
1.4027e-05
1.40269e-05
1.40268e-05
1.40267e-05
1.40266e-05
1.40265e-05
1.40265e-05
1.40264e-05
1.40263e-05
1.40263e-05
1.40262e-05
1.40262e-05
1.40261e-05
1.40261e-05
1.40261e-05
1.40261e-05
1.4026e-05
1.4026e-05
1.4026e-05
1.4026e-05
1.4026e-05
1.40259e-05
1.40259e-05
1.40259e-05
1.40259e-05
1.40259e-05
1.40259e-05
1.40259e-05
1.40259e-05
1.40259e-05
1.40259e-05
1.40259e-05
1.40259e-05
1.4026e-05
1.4026e-05
1.40261e-05
1.40261e-05
1.40262e-05
1.40262e-05
1.40263e-05
1.40264e-05
1.40264e-05
1.40265e-05
1.40265e-05
1.40266e-05
1.40267e-05
1.40267e-05
1.40268e-05
1.40268e-05
1.40268e-05
1.40269e-05
1.40268e-05
1.40268e-05
2.78892e-05
2.78892e-05
2.78888e-05
2.7888e-05
2.78872e-05
2.78865e-05
2.78858e-05
2.78853e-05
2.78849e-05
2.78845e-05
2.78843e-05
2.78842e-05
2.78841e-05
2.78841e-05
2.78841e-05
2.78842e-05
2.78843e-05
2.78845e-05
2.78847e-05
2.78849e-05
2.78851e-05
2.78853e-05
2.78856e-05
2.78858e-05
2.78861e-05
2.78863e-05
2.78865e-05
2.78867e-05
2.78869e-05
2.78871e-05
2.78873e-05
2.78875e-05
2.78877e-05
2.78879e-05
2.78881e-05
2.78883e-05
2.78885e-05
2.78887e-05
2.78888e-05
2.7889e-05
2.78892e-05
2.78893e-05
2.78895e-05
2.78896e-05
2.78897e-05
2.78898e-05
2.78899e-05
2.789e-05
2.789e-05
2.78901e-05
2.78902e-05
2.78903e-05
2.78903e-05
2.78904e-05
2.78904e-05
2.78905e-05
2.78905e-05
2.78905e-05
2.78904e-05
2.78903e-05
2.78902e-05
2.78901e-05
2.78899e-05
2.78898e-05
2.78896e-05
2.78894e-05
2.78891e-05
2.78889e-05
2.78887e-05
2.78885e-05
2.78884e-05
2.78882e-05
2.7888e-05
2.78879e-05
2.78877e-05
2.78876e-05
2.78875e-05
2.78874e-05
2.78873e-05
2.78873e-05
2.78872e-05
2.78871e-05
2.78871e-05
2.7887e-05
2.7887e-05
2.7887e-05
2.78869e-05
2.78869e-05
2.78869e-05
2.78868e-05
2.78868e-05
2.78868e-05
2.78868e-05
2.78868e-05
2.78868e-05
2.78868e-05
2.78868e-05
2.78868e-05
2.78868e-05
2.78869e-05
2.7887e-05
2.78871e-05
2.78872e-05
2.78873e-05
2.78874e-05
2.78875e-05
2.78876e-05
2.78877e-05
2.78878e-05
2.78879e-05
2.7888e-05
2.78882e-05
2.78883e-05
2.78884e-05
2.78885e-05
2.78885e-05
2.78886e-05
2.78886e-05
2.78886e-05
2.78886e-05
4.57197e-05
4.57197e-05
4.57189e-05
4.57177e-05
4.57165e-05
4.57154e-05
4.57144e-05
4.57136e-05
4.5713e-05
4.57126e-05
4.57123e-05
4.57121e-05
4.5712e-05
4.5712e-05
4.5712e-05
4.57122e-05
4.57124e-05
4.57126e-05
4.57129e-05
4.57132e-05
4.57136e-05
4.57139e-05
4.57143e-05
4.57147e-05
4.5715e-05
4.57154e-05
4.57157e-05
4.5716e-05
4.57164e-05
4.57167e-05
4.5717e-05
4.57173e-05
4.57176e-05
4.57179e-05
4.57182e-05
4.57184e-05
4.57187e-05
4.5719e-05
4.57192e-05
4.57195e-05
4.57197e-05
4.572e-05
4.57202e-05
4.57204e-05
4.57206e-05
4.57208e-05
4.57209e-05
4.5721e-05
4.57211e-05
4.57212e-05
4.57213e-05
4.57214e-05
4.57215e-05
4.57216e-05
4.57216e-05
4.57217e-05
4.57217e-05
4.57217e-05
4.57216e-05
4.57214e-05
4.57213e-05
4.57211e-05
4.57208e-05
4.57205e-05
4.57202e-05
4.57199e-05
4.57196e-05
4.57193e-05
4.5719e-05
4.57187e-05
4.57184e-05
4.57181e-05
4.57179e-05
4.57176e-05
4.57174e-05
4.57173e-05
4.57171e-05
4.5717e-05
4.57168e-05
4.57167e-05
4.57166e-05
4.57166e-05
4.57165e-05
4.57164e-05
4.57164e-05
4.57163e-05
4.57162e-05
4.57162e-05
4.57162e-05
4.57161e-05
4.57161e-05
4.5716e-05
4.5716e-05
4.5716e-05
4.5716e-05
4.5716e-05
4.5716e-05
4.5716e-05
4.57161e-05
4.57162e-05
4.57163e-05
4.57165e-05
4.57166e-05
4.57168e-05
4.5717e-05
4.57171e-05
4.57173e-05
4.57175e-05
4.57176e-05
4.57178e-05
4.5718e-05
4.57182e-05
4.57184e-05
4.57185e-05
4.57186e-05
4.57188e-05
4.57188e-05
4.57189e-05
4.57189e-05
4.57188e-05
6.47322e-05
6.47321e-05
6.4731e-05
6.47295e-05
6.4728e-05
6.47265e-05
6.47253e-05
6.47243e-05
6.47236e-05
6.4723e-05
6.47226e-05
6.47224e-05
6.47223e-05
6.47224e-05
6.47225e-05
6.47227e-05
6.4723e-05
6.47233e-05
6.47237e-05
6.47241e-05
6.47246e-05
6.47251e-05
6.47256e-05
6.4726e-05
6.47265e-05
6.4727e-05
6.47274e-05
6.47278e-05
6.47283e-05
6.47287e-05
6.47291e-05
6.47295e-05
6.47299e-05
6.47302e-05
6.47306e-05
6.47309e-05
6.47313e-05
6.47316e-05
6.47319e-05
6.47323e-05
6.47326e-05
6.47329e-05
6.47332e-05
6.47335e-05
6.47337e-05
6.47339e-05
6.47341e-05
6.47342e-05
6.47343e-05
6.47345e-05
6.47346e-05
6.47347e-05
6.47349e-05
6.4735e-05
6.4735e-05
6.47351e-05
6.47351e-05
6.4735e-05
6.47349e-05
6.47347e-05
6.47344e-05
6.47341e-05
6.47338e-05
6.47334e-05
6.4733e-05
6.47326e-05
6.47322e-05
6.47318e-05
6.47314e-05
6.4731e-05
6.47306e-05
6.47303e-05
6.473e-05
6.47297e-05
6.47294e-05
6.47292e-05
6.4729e-05
6.47288e-05
6.47287e-05
6.47285e-05
6.47284e-05
6.47283e-05
6.47282e-05
6.47281e-05
6.4728e-05
6.4728e-05
6.47279e-05
6.47278e-05
6.47278e-05
6.47277e-05
6.47277e-05
6.47276e-05
6.47276e-05
6.47276e-05
6.47275e-05
6.47276e-05
6.47276e-05
6.47276e-05
6.47277e-05
6.47279e-05
6.4728e-05
6.47282e-05
6.47284e-05
6.47287e-05
6.47289e-05
6.47291e-05
6.47294e-05
6.47296e-05
6.47298e-05
6.47301e-05
6.47303e-05
6.47305e-05
6.47308e-05
6.47309e-05
6.47311e-05
6.47312e-05
6.47313e-05
6.47314e-05
6.47314e-05
6.47313e-05
8.25549e-05
8.25546e-05
8.25533e-05
8.25516e-05
8.25498e-05
8.25482e-05
8.25468e-05
8.25457e-05
8.25449e-05
8.25443e-05
8.25439e-05
8.25436e-05
8.25436e-05
8.25436e-05
8.25438e-05
8.25441e-05
8.25444e-05
8.25448e-05
8.25453e-05
8.25458e-05
8.25464e-05
8.2547e-05
8.25476e-05
8.25482e-05
8.25487e-05
8.25493e-05
8.25498e-05
8.25503e-05
8.25508e-05
8.25513e-05
8.25518e-05
8.25523e-05
8.25527e-05
8.25532e-05
8.25536e-05
8.2554e-05
8.25544e-05
8.25547e-05
8.25551e-05
8.25555e-05
8.25559e-05
8.25562e-05
8.25566e-05
8.25569e-05
8.25572e-05
8.25574e-05
8.25576e-05
8.25578e-05
8.25579e-05
8.25581e-05
8.25582e-05
8.25584e-05
8.25585e-05
8.25586e-05
8.25587e-05
8.25587e-05
8.25587e-05
8.25586e-05
8.25584e-05
8.25582e-05
8.25578e-05
8.25575e-05
8.25571e-05
8.25566e-05
8.25561e-05
8.25556e-05
8.25551e-05
8.25546e-05
8.25541e-05
8.25537e-05
8.25533e-05
8.25529e-05
8.25525e-05
8.25521e-05
8.25518e-05
8.25516e-05
8.25513e-05
8.25511e-05
8.2551e-05
8.25508e-05
8.25507e-05
8.25506e-05
8.25504e-05
8.25503e-05
8.25503e-05
8.25502e-05
8.25501e-05
8.255e-05
8.255e-05
8.25499e-05
8.25498e-05
8.25498e-05
8.25497e-05
8.25497e-05
8.25497e-05
8.25497e-05
8.25498e-05
8.25498e-05
8.255e-05
8.25501e-05
8.25503e-05
8.25506e-05
8.25509e-05
8.25511e-05
8.25514e-05
8.25517e-05
8.2552e-05
8.25522e-05
8.25525e-05
8.25528e-05
8.25531e-05
8.25534e-05
8.25536e-05
8.25538e-05
8.2554e-05
8.25542e-05
8.25543e-05
8.25543e-05
8.25543e-05
8.25543e-05
9.80477e-05
9.80471e-05
9.80458e-05
9.80439e-05
9.8042e-05
9.80403e-05
9.80388e-05
9.80377e-05
9.80368e-05
9.80361e-05
9.80357e-05
9.80355e-05
9.80355e-05
9.80356e-05
9.80358e-05
9.80361e-05
9.80365e-05
9.8037e-05
9.80375e-05
9.80381e-05
9.80388e-05
9.80395e-05
9.80402e-05
9.80408e-05
9.80415e-05
9.80421e-05
9.80427e-05
9.80433e-05
9.80438e-05
9.80444e-05
9.80449e-05
9.80455e-05
9.8046e-05
9.80465e-05
9.80469e-05
9.80474e-05
9.80478e-05
9.80482e-05
9.80486e-05
9.8049e-05
9.80495e-05
9.80499e-05
9.80502e-05
9.80506e-05
9.80509e-05
9.80512e-05
9.80514e-05
9.80516e-05
9.80518e-05
9.80519e-05
9.80521e-05
9.80522e-05
9.80524e-05
9.80525e-05
9.80525e-05
9.80525e-05
9.80525e-05
9.80523e-05
9.80521e-05
9.80518e-05
9.80514e-05
9.80509e-05
9.80504e-05
9.80499e-05
9.80494e-05
9.80488e-05
9.80482e-05
9.80477e-05
9.80471e-05
9.80466e-05
9.80462e-05
9.80457e-05
9.80453e-05
9.80449e-05
9.80446e-05
9.80443e-05
9.80441e-05
9.80438e-05
9.80437e-05
9.80435e-05
9.80433e-05
9.80432e-05
9.80431e-05
9.8043e-05
9.80429e-05
9.80428e-05
9.80427e-05
9.80426e-05
9.80426e-05
9.80425e-05
9.80424e-05
9.80424e-05
9.80423e-05
9.80423e-05
9.80423e-05
9.80423e-05
9.80424e-05
9.80425e-05
9.80426e-05
9.80428e-05
9.80431e-05
9.80434e-05
9.80437e-05
9.8044e-05
9.80444e-05
9.80447e-05
9.8045e-05
9.80453e-05
9.80456e-05
9.80459e-05
9.80462e-05
9.80465e-05
9.80468e-05
9.8047e-05
9.80472e-05
9.80474e-05
9.80475e-05
9.80476e-05
9.80475e-05
9.80476e-05
0.000111004
0.000111003
0.000111002
0.000111
0.000110998
0.000110996
0.000110995
0.000110993
0.000110993
0.000110992
0.000110992
0.000110991
0.000110991
0.000110991
0.000110992
0.000110992
0.000110993
0.000110993
0.000110994
0.000110994
0.000110995
0.000110996
0.000110997
0.000110997
0.000110998
0.000110999
0.000110999
0.000111
0.000111001
0.000111001
0.000111002
0.000111002
0.000111003
0.000111003
0.000111004
0.000111004
0.000111005
0.000111005
0.000111006
0.000111006
0.000111007
0.000111007
0.000111008
0.000111008
0.000111008
0.000111009
0.000111009
0.000111009
0.000111009
0.000111009
0.000111009
0.00011101
0.00011101
0.00011101
0.00011101
0.00011101
0.00011101
0.00011101
0.000111009
0.000111009
0.000111008
0.000111008
0.000111007
0.000111007
0.000111006
0.000111006
0.000111005
0.000111004
0.000111004
0.000111003
0.000111003
0.000111002
0.000111002
0.000111001
0.000111001
0.000111001
0.000111
0.000111
0.000111
0.000111
0.000111
0.000111
0.000110999
0.000110999
0.000110999
0.000110999
0.000110999
0.000110999
0.000110999
0.000110999
0.000110999
0.000110999
0.000110999
0.000110999
0.000110999
0.000110999
0.000110999
0.000110999
0.000110999
0.000110999
0.000111
0.000111
0.000111
0.000111001
0.000111001
0.000111001
0.000111002
0.000111002
0.000111002
0.000111003
0.000111003
0.000111003
0.000111004
0.000111004
0.000111004
0.000111004
0.000111004
0.000111004
0.000111004
0.000111005
0.000121656
0.000121655
0.000121653
0.000121651
0.000121649
0.000121648
0.000121646
0.000121645
0.000121644
0.000121644
0.000121643
0.000121643
0.000121643
0.000121643
0.000121643
0.000121644
0.000121644
0.000121645
0.000121646
0.000121646
0.000121647
0.000121648
0.000121649
0.00012165
0.00012165
0.000121651
0.000121652
0.000121652
0.000121653
0.000121654
0.000121654
0.000121655
0.000121656
0.000121656
0.000121657
0.000121657
0.000121658
0.000121658
0.000121659
0.000121659
0.00012166
0.00012166
0.00012166
0.000121661
0.000121661
0.000121661
0.000121662
0.000121662
0.000121662
0.000121662
0.000121663
0.000121663
0.000121663
0.000121663
0.000121663
0.000121663
0.000121663
0.000121662
0.000121662
0.000121661
0.000121661
0.00012166
0.00012166
0.000121659
0.000121658
0.000121658
0.000121657
0.000121657
0.000121656
0.000121655
0.000121655
0.000121654
0.000121654
0.000121653
0.000121653
0.000121653
0.000121653
0.000121652
0.000121652
0.000121652
0.000121652
0.000121652
0.000121651
0.000121651
0.000121651
0.000121651
0.000121651
0.000121651
0.000121651
0.000121651
0.000121651
0.000121651
0.000121651
0.000121651
0.000121651
0.000121651
0.000121651
0.000121651
0.000121651
0.000121651
0.000121652
0.000121652
0.000121653
0.000121653
0.000121653
0.000121654
0.000121654
0.000121655
0.000121655
0.000121655
0.000121656
0.000121656
0.000121656
0.000121656
0.000121657
0.000121657
0.000121657
0.000121657
0.000121657
0.000121657
0.000130367
0.000130365
0.000130363
0.000130361
0.000130359
0.000130358
0.000130356
0.000130355
0.000130354
0.000130354
0.000130353
0.000130353
0.000130353
0.000130353
0.000130354
0.000130354
0.000130355
0.000130355
0.000130356
0.000130357
0.000130357
0.000130358
0.000130359
0.00013036
0.000130361
0.000130362
0.000130362
0.000130363
0.000130364
0.000130365
0.000130365
0.000130366
0.000130367
0.000130367
0.000130368
0.000130368
0.000130369
0.000130369
0.00013037
0.00013037
0.000130371
0.000130371
0.000130372
0.000130372
0.000130372
0.000130373
0.000130373
0.000130373
0.000130373
0.000130374
0.000130374
0.000130374
0.000130374
0.000130374
0.000130374
0.000130374
0.000130374
0.000130373
0.000130373
0.000130372
0.000130372
0.000130371
0.00013037
0.00013037
0.000130369
0.000130368
0.000130368
0.000130367
0.000130366
0.000130366
0.000130365
0.000130365
0.000130364
0.000130364
0.000130364
0.000130363
0.000130363
0.000130363
0.000130362
0.000130362
0.000130362
0.000130362
0.000130362
0.000130362
0.000130362
0.000130361
0.000130361
0.000130361
0.000130361
0.000130361
0.000130361
0.000130361
0.000130361
0.000130361
0.000130361
0.000130361
0.000130361
0.000130361
0.000130362
0.000130362
0.000130362
0.000130363
0.000130363
0.000130364
0.000130364
0.000130364
0.000130365
0.000130365
0.000130366
0.000130366
0.000130366
0.000130367
0.000130367
0.000130367
0.000130367
0.000130367
0.000130368
0.000130368
0.000130367
0.000130368
0.000137492
0.00013749
0.000137489
0.000137487
0.000137485
0.000137483
0.000137482
0.00013748
0.00013748
0.000137479
0.000137479
0.000137479
0.000137479
0.000137479
0.000137479
0.00013748
0.00013748
0.000137481
0.000137482
0.000137482
0.000137483
0.000137484
0.000137485
0.000137486
0.000137487
0.000137488
0.000137488
0.000137489
0.00013749
0.000137491
0.000137491
0.000137492
0.000137493
0.000137493
0.000137494
0.000137495
0.000137495
0.000137496
0.000137496
0.000137497
0.000137497
0.000137498
0.000137498
0.000137498
0.000137499
0.000137499
0.0001375
0.0001375
0.0001375
0.0001375
0.0001375
0.0001375
0.0001375
0.0001375
0.0001375
0.0001375
0.0001375
0.000137499
0.000137499
0.000137498
0.000137498
0.000137497
0.000137496
0.000137496
0.000137495
0.000137494
0.000137493
0.000137493
0.000137492
0.000137492
0.000137491
0.00013749
0.00013749
0.00013749
0.000137489
0.000137489
0.000137489
0.000137488
0.000137488
0.000137488
0.000137488
0.000137488
0.000137487
0.000137487
0.000137487
0.000137487
0.000137487
0.000137487
0.000137487
0.000137487
0.000137487
0.000137487
0.000137487
0.000137487
0.000137487
0.000137487
0.000137487
0.000137487
0.000137487
0.000137488
0.000137488
0.000137489
0.000137489
0.00013749
0.00013749
0.00013749
0.000137491
0.000137491
0.000137492
0.000137492
0.000137492
0.000137493
0.000137493
0.000137493
0.000137493
0.000137493
0.000137493
0.000137494
0.000137493
0.000137494
0.000143339
0.000143337
0.000143335
0.000143333
0.000143331
0.000143329
0.000143328
0.000143327
0.000143326
0.000143326
0.000143325
0.000143325
0.000143325
0.000143325
0.000143326
0.000143326
0.000143327
0.000143327
0.000143328
0.000143329
0.00014333
0.000143331
0.000143332
0.000143333
0.000143334
0.000143335
0.000143335
0.000143336
0.000143337
0.000143338
0.000143339
0.000143339
0.00014334
0.000143341
0.000143341
0.000143342
0.000143342
0.000143343
0.000143343
0.000143344
0.000143344
0.000143345
0.000143345
0.000143346
0.000143346
0.000143347
0.000143347
0.000143347
0.000143347
0.000143348
0.000143348
0.000143348
0.000143348
0.000143348
0.000143348
0.000143347
0.000143347
0.000143346
0.000143346
0.000143345
0.000143345
0.000143344
0.000143343
0.000143342
0.000143342
0.000143341
0.00014334
0.00014334
0.000143339
0.000143338
0.000143338
0.000143337
0.000143337
0.000143336
0.000143336
0.000143336
0.000143335
0.000143335
0.000143335
0.000143335
0.000143334
0.000143334
0.000143334
0.000143334
0.000143334
0.000143334
0.000143334
0.000143334
0.000143333
0.000143333
0.000143333
0.000143333
0.000143333
0.000143333
0.000143333
0.000143333
0.000143334
0.000143334
0.000143334
0.000143335
0.000143335
0.000143336
0.000143336
0.000143337
0.000143337
0.000143338
0.000143338
0.000143338
0.000143339
0.000143339
0.000143339
0.00014334
0.00014334
0.00014334
0.00014334
0.00014334
0.00014334
0.00014334
0.00014334
0.000143341
0.000148154
0.000148152
0.00014815
0.000148148
0.000148146
0.000148145
0.000148143
0.000148142
0.000148141
0.000148141
0.000148141
0.00014814
0.00014814
0.000148141
0.000148141
0.000148142
0.000148142
0.000148143
0.000148144
0.000148144
0.000148145
0.000148146
0.000148147
0.000148148
0.000148149
0.00014815
0.000148151
0.000148152
0.000148153
0.000148153
0.000148154
0.000148155
0.000148156
0.000148156
0.000148157
0.000148158
0.000148158
0.000148159
0.000148159
0.00014816
0.00014816
0.000148161
0.000148161
0.000148162
0.000148162
0.000148163
0.000148163
0.000148163
0.000148164
0.000148164
0.000148164
0.000148164
0.000148164
0.000148164
0.000148164
0.000148163
0.000148163
0.000148162
0.000148161
0.000148161
0.00014816
0.000148159
0.000148159
0.000148158
0.000148157
0.000148156
0.000148156
0.000148155
0.000148154
0.000148154
0.000148153
0.000148153
0.000148152
0.000148152
0.000148151
0.000148151
0.000148151
0.00014815
0.00014815
0.00014815
0.00014815
0.00014815
0.00014815
0.000148149
0.000148149
0.000148149
0.000148149
0.000148149
0.000148149
0.000148149
0.000148149
0.000148148
0.000148148
0.000148148
0.000148149
0.000148149
0.000148149
0.000148149
0.00014815
0.00014815
0.000148151
0.000148151
0.000148152
0.000148152
0.000148153
0.000148153
0.000148154
0.000148154
0.000148154
0.000148155
0.000148155
0.000148155
0.000148155
0.000148156
0.000148156
0.000148156
0.000148156
0.000148156
0.000148156
0.000148156
0.000152134
0.000152132
0.00015213
0.000152127
0.000152126
0.000152124
0.000152123
0.000152122
0.000152121
0.00015212
0.00015212
0.00015212
0.00015212
0.00015212
0.000152121
0.000152121
0.000152122
0.000152123
0.000152123
0.000152124
0.000152125
0.000152126
0.000152127
0.000152128
0.000152129
0.00015213
0.000152131
0.000152132
0.000152133
0.000152133
0.000152134
0.000152135
0.000152136
0.000152136
0.000152137
0.000152138
0.000152138
0.000152139
0.00015214
0.00015214
0.000152141
0.000152141
0.000152142
0.000152142
0.000152143
0.000152143
0.000152143
0.000152144
0.000152144
0.000152144
0.000152144
0.000152144
0.000152144
0.000152144
0.000152144
0.000152143
0.000152143
0.000152142
0.000152141
0.00015214
0.00015214
0.000152139
0.000152138
0.000152137
0.000152137
0.000152136
0.000152135
0.000152135
0.000152134
0.000152133
0.000152133
0.000152132
0.000152132
0.000152131
0.000152131
0.000152131
0.00015213
0.00015213
0.00015213
0.00015213
0.00015213
0.000152129
0.000152129
0.000152129
0.000152129
0.000152129
0.000152129
0.000152129
0.000152128
0.000152128
0.000152128
0.000152128
0.000152128
0.000152128
0.000152128
0.000152129
0.000152129
0.000152129
0.00015213
0.00015213
0.000152131
0.000152131
0.000152132
0.000152132
0.000152133
0.000152133
0.000152134
0.000152134
0.000152134
0.000152135
0.000152135
0.000152135
0.000152135
0.000152135
0.000152136
0.000152136
0.000152136
0.000152136
0.000152136
0.000152136
0.000155432
0.000155429
0.000155427
0.000155425
0.000155423
0.000155421
0.00015542
0.000155419
0.000155418
0.000155418
0.000155418
0.000155418
0.000155418
0.000155418
0.000155418
0.000155419
0.000155419
0.00015542
0.000155421
0.000155422
0.000155423
0.000155424
0.000155425
0.000155426
0.000155427
0.000155428
0.000155429
0.000155429
0.00015543
0.000155431
0.000155432
0.000155433
0.000155433
0.000155434
0.000155435
0.000155436
0.000155436
0.000155437
0.000155437
0.000155438
0.000155439
0.000155439
0.00015544
0.00015544
0.000155441
0.000155441
0.000155441
0.000155442
0.000155442
0.000155442
0.000155442
0.000155442
0.000155442
0.000155442
0.000155441
0.000155441
0.00015544
0.000155439
0.000155439
0.000155438
0.000155437
0.000155436
0.000155436
0.000155435
0.000155434
0.000155433
0.000155433
0.000155432
0.000155431
0.000155431
0.00015543
0.00015543
0.000155429
0.000155429
0.000155428
0.000155428
0.000155428
0.000155428
0.000155427
0.000155427
0.000155427
0.000155427
0.000155427
0.000155426
0.000155426
0.000155426
0.000155426
0.000155426
0.000155426
0.000155426
0.000155426
0.000155425
0.000155425
0.000155426
0.000155426
0.000155426
0.000155426
0.000155427
0.000155427
0.000155428
0.000155428
0.000155429
0.000155429
0.00015543
0.00015543
0.000155431
0.000155431
0.000155432
0.000155432
0.000155432
0.000155432
0.000155433
0.000155433
0.000155433
0.000155433
0.000155433
0.000155433
0.000155433
0.000155433
0.000155434
0.000158167
0.000158164
0.000158162
0.00015816
0.000158158
0.000158157
0.000158155
0.000158154
0.000158154
0.000158153
0.000158153
0.000158153
0.000158153
0.000158153
0.000158154
0.000158154
0.000158155
0.000158155
0.000158156
0.000158157
0.000158158
0.000158159
0.00015816
0.000158161
0.000158162
0.000158163
0.000158164
0.000158165
0.000158166
0.000158167
0.000158167
0.000158168
0.000158169
0.00015817
0.00015817
0.000158171
0.000158172
0.000158172
0.000158173
0.000158174
0.000158174
0.000158175
0.000158175
0.000158176
0.000158176
0.000158177
0.000158177
0.000158177
0.000158178
0.000158178
0.000158178
0.000158178
0.000158178
0.000158177
0.000158177
0.000158176
0.000158175
0.000158175
0.000158174
0.000158173
0.000158172
0.000158171
0.000158171
0.00015817
0.000158169
0.000158169
0.000158168
0.000158167
0.000158167
0.000158166
0.000158166
0.000158165
0.000158165
0.000158164
0.000158164
0.000158163
0.000158163
0.000158163
0.000158163
0.000158162
0.000158162
0.000158162
0.000158162
0.000158162
0.000158162
0.000158161
0.000158161
0.000158161
0.000158161
0.000158161
0.000158161
0.000158161
0.000158161
0.000158161
0.000158161
0.000158161
0.000158162
0.000158162
0.000158163
0.000158163
0.000158164
0.000158164
0.000158165
0.000158165
0.000158166
0.000158166
0.000158167
0.000158167
0.000158167
0.000158168
0.000158168
0.000158168
0.000158168
0.000158168
0.000158168
0.000158168
0.000158168
0.000158168
0.000158168
0.000158169
0.000160434
0.000160432
0.000160429
0.000160427
0.000160426
0.000160424
0.000160423
0.000160422
0.000160421
0.000160421
0.000160421
0.00016042
0.000160421
0.000160421
0.000160421
0.000160422
0.000160422
0.000160423
0.000160424
0.000160425
0.000160425
0.000160426
0.000160428
0.000160429
0.00016043
0.000160431
0.000160431
0.000160432
0.000160433
0.000160434
0.000160435
0.000160436
0.000160437
0.000160437
0.000160438
0.000160439
0.00016044
0.00016044
0.000160441
0.000160441
0.000160442
0.000160443
0.000160443
0.000160444
0.000160444
0.000160445
0.000160445
0.000160445
0.000160446
0.000160446
0.000160446
0.000160446
0.000160445
0.000160445
0.000160444
0.000160444
0.000160443
0.000160442
0.000160441
0.00016044
0.000160439
0.000160439
0.000160438
0.000160437
0.000160437
0.000160436
0.000160435
0.000160435
0.000160434
0.000160434
0.000160433
0.000160433
0.000160432
0.000160432
0.000160431
0.000160431
0.000160431
0.000160431
0.00016043
0.00016043
0.00016043
0.00016043
0.00016043
0.000160429
0.000160429
0.000160429
0.000160429
0.000160429
0.000160428
0.000160428
0.000160428
0.000160428
0.000160428
0.000160428
0.000160429
0.000160429
0.00016043
0.00016043
0.000160431
0.000160431
0.000160432
0.000160432
0.000160433
0.000160433
0.000160434
0.000160434
0.000160434
0.000160435
0.000160435
0.000160435
0.000160435
0.000160435
0.000160436
0.000160436
0.000160436
0.000160436
0.000160436
0.000160436
0.000160435
0.000160436
0.000162308
0.000162306
0.000162304
0.000162302
0.0001623
0.000162298
0.000162297
0.000162296
0.000162296
0.000162295
0.000162295
0.000162295
0.000162295
0.000162295
0.000162296
0.000162296
0.000162297
0.000162297
0.000162298
0.000162299
0.0001623
0.000162301
0.000162302
0.000162303
0.000162304
0.000162305
0.000162306
0.000162307
0.000162308
0.000162309
0.000162309
0.00016231
0.000162311
0.000162312
0.000162313
0.000162313
0.000162314
0.000162315
0.000162315
0.000162316
0.000162317
0.000162317
0.000162318
0.000162318
0.000162319
0.000162319
0.00016232
0.00016232
0.00016232
0.00016232
0.00016232
0.00016232
0.00016232
0.000162319
0.000162318
0.000162318
0.000162317
0.000162316
0.000162315
0.000162314
0.000162314
0.000162313
0.000162312
0.000162311
0.000162311
0.00016231
0.00016231