/*--------------------------------*- C++ -*----------------------------------*\
  =========                 |
  \\      /  F ield         | OpenFOAM: The Open Source CFD Toolbox
   \\    /   O peration     | Website:  https://openfoam.org
    \\  /    A nd           | Version:  7
     \\/     M anipulation  |
\*---------------------------------------------------------------------------*/
FoamFile
{
    version     2.0;
    format      ascii;
    class       volScalarField;
    location    "3500";
    object      nut;
}
// * * * * * * * * * * * * * * * * * * * * * * * * * * * * * * * * * * * * * //

dimensions      [0 2 -1 0 0 0 0];

internalField   nonuniform List<scalar> 
24000
(
6.78575e-12
6.78579e-12
6.78569e-12
6.78551e-12
6.7853e-12
6.7851e-12
6.78492e-12
6.78477e-12
6.78465e-12
6.78456e-12
6.7845e-12
6.78445e-12
6.78443e-12
6.78443e-12
6.78443e-12
6.78445e-12
6.78448e-12
6.78452e-12
6.78457e-12
6.78462e-12
6.78468e-12
6.78474e-12
6.7848e-12
6.78486e-12
6.78492e-12
6.78498e-12
6.78504e-12
6.7851e-12
6.78515e-12
6.78521e-12
6.78526e-12
6.78532e-12
6.78537e-12
6.78542e-12
6.78547e-12
6.78552e-12
6.78557e-12
6.78562e-12
6.78567e-12
6.78571e-12
6.78576e-12
6.7858e-12
6.78584e-12
6.78588e-12
6.78591e-12
6.78594e-12
6.78595e-12
6.78597e-12
6.78599e-12
6.786e-12
6.78602e-12
6.78604e-12
6.78606e-12
6.78608e-12
6.78609e-12
6.7861e-12
6.78611e-12
6.78611e-12
6.7861e-12
6.78608e-12
6.78606e-12
6.78602e-12
6.78598e-12
6.78593e-12
6.78588e-12
6.78583e-12
6.78578e-12
6.78572e-12
6.78567e-12
6.78562e-12
6.78557e-12
6.78552e-12
6.78548e-12
6.78544e-12
6.7854e-12
6.78537e-12
6.78534e-12
6.78532e-12
6.78529e-12
6.78527e-12
6.78526e-12
6.78524e-12
6.78523e-12
6.78521e-12
6.7852e-12
6.78519e-12
6.78518e-12
6.78518e-12
6.78517e-12
6.78516e-12
6.78516e-12
6.78515e-12
6.78515e-12
6.78514e-12
6.78514e-12
6.78514e-12
6.78514e-12
6.78515e-12
6.78516e-12
6.78517e-12
6.78519e-12
6.78521e-12
6.78524e-12
6.78527e-12
6.78529e-12
6.78532e-12
6.78534e-12
6.78537e-12
6.7854e-12
6.78543e-12
6.78546e-12
6.7855e-12
6.78553e-12
6.78556e-12
6.78558e-12
6.7856e-12
6.78561e-12
6.78562e-12
6.78562e-12
6.78561e-12
1.18017e-09
1.18018e-09
1.18016e-09
1.18013e-09
1.18009e-09
1.18006e-09
1.18003e-09
1.18e-09
1.17998e-09
1.17997e-09
1.17995e-09
1.17995e-09
1.17994e-09
1.17994e-09
1.17994e-09
1.17995e-09
1.17995e-09
1.17996e-09
1.17997e-09
1.17998e-09
1.17999e-09
1.18e-09
1.18001e-09
1.18002e-09
1.18003e-09
1.18004e-09
1.18005e-09
1.18006e-09
1.18007e-09
1.18008e-09
1.18009e-09
1.1801e-09
1.18011e-09
1.18012e-09
1.18012e-09
1.18013e-09
1.18014e-09
1.18015e-09
1.18016e-09
1.18017e-09
1.18017e-09
1.18018e-09
1.18019e-09
1.1802e-09
1.1802e-09
1.18021e-09
1.18021e-09
1.18021e-09
1.18021e-09
1.18022e-09
1.18022e-09
1.18022e-09
1.18023e-09
1.18023e-09
1.18023e-09
1.18023e-09
1.18023e-09
1.18023e-09
1.18023e-09
1.18023e-09
1.18023e-09
1.18022e-09
1.18021e-09
1.1802e-09
1.1802e-09
1.18019e-09
1.18018e-09
1.18017e-09
1.18016e-09
1.18015e-09
1.18014e-09
1.18013e-09
1.18013e-09
1.18012e-09
1.18011e-09
1.18011e-09
1.1801e-09
1.1801e-09
1.18009e-09
1.18009e-09
1.18009e-09
1.18008e-09
1.18008e-09
1.18008e-09
1.18008e-09
1.18008e-09
1.18007e-09
1.18007e-09
1.18007e-09
1.18007e-09
1.18007e-09
1.18007e-09
1.18007e-09
1.18007e-09
1.18007e-09
1.18007e-09
1.18007e-09
1.18007e-09
1.18007e-09
1.18007e-09
1.18008e-09
1.18008e-09
1.18008e-09
1.18009e-09
1.18009e-09
1.1801e-09
1.1801e-09
1.18011e-09
1.18011e-09
1.18012e-09
1.18012e-09
1.18013e-09
1.18013e-09
1.18014e-09
1.18014e-09
1.18015e-09
1.18015e-09
1.18015e-09
1.18015e-09
1.18015e-09
2.52514e-08
2.52515e-08
2.52511e-08
2.52504e-08
2.52497e-08
2.52489e-08
2.52483e-08
2.52477e-08
2.52473e-08
2.52469e-08
2.52467e-08
2.52465e-08
2.52465e-08
2.52464e-08
2.52465e-08
2.52465e-08
2.52466e-08
2.52468e-08
2.5247e-08
2.52472e-08
2.52474e-08
2.52476e-08
2.52478e-08
2.52481e-08
2.52483e-08
2.52485e-08
2.52487e-08
2.52489e-08
2.52491e-08
2.52494e-08
2.52496e-08
2.52498e-08
2.525e-08
2.52501e-08
2.52503e-08
2.52505e-08
2.52507e-08
2.52509e-08
2.5251e-08
2.52512e-08
2.52514e-08
2.52515e-08
2.52517e-08
2.52518e-08
2.52519e-08
2.5252e-08
2.52521e-08
2.52522e-08
2.52522e-08
2.52523e-08
2.52524e-08
2.52524e-08
2.52525e-08
2.52526e-08
2.52526e-08
2.52526e-08
2.52527e-08
2.52527e-08
2.52526e-08
2.52526e-08
2.52525e-08
2.52523e-08
2.52522e-08
2.5252e-08
2.52518e-08
2.52516e-08
2.52514e-08
2.52512e-08
2.5251e-08
2.52508e-08
2.52507e-08
2.52505e-08
2.52503e-08
2.52502e-08
2.525e-08
2.52499e-08
2.52498e-08
2.52497e-08
2.52496e-08
2.52496e-08
2.52495e-08
2.52494e-08
2.52494e-08
2.52493e-08
2.52493e-08
2.52493e-08
2.52492e-08
2.52492e-08
2.52492e-08
2.52492e-08
2.52491e-08
2.52491e-08
2.52491e-08
2.52491e-08
2.52491e-08
2.52491e-08
2.52491e-08
2.52491e-08
2.52491e-08
2.52492e-08
2.52493e-08
2.52494e-08
2.52494e-08
2.52495e-08
2.52496e-08
2.52497e-08
2.52498e-08
2.52499e-08
2.525e-08
2.52502e-08
2.52503e-08
2.52504e-08
2.52505e-08
2.52506e-08
2.52507e-08
2.52508e-08
2.52508e-08
2.52509e-08
2.52508e-08
2.52508e-08
1.93753e-07
1.93753e-07
1.9375e-07
1.93745e-07
1.93739e-07
1.93733e-07
1.93728e-07
1.93724e-07
1.93721e-07
1.93719e-07
1.93717e-07
1.93716e-07
1.93715e-07
1.93715e-07
1.93715e-07
1.93716e-07
1.93717e-07
1.93718e-07
1.93719e-07
1.93721e-07
1.93722e-07
1.93724e-07
1.93726e-07
1.93727e-07
1.93729e-07
1.93731e-07
1.93732e-07
1.93734e-07
1.93736e-07
1.93737e-07
1.93739e-07
1.9374e-07
1.93742e-07
1.93743e-07
1.93744e-07
1.93746e-07
1.93747e-07
1.93748e-07
1.9375e-07
1.93751e-07
1.93752e-07
1.93753e-07
1.93755e-07
1.93756e-07
1.93756e-07
1.93757e-07
1.93758e-07
1.93758e-07
1.93758e-07
1.93759e-07
1.9376e-07
1.9376e-07
1.93761e-07
1.93761e-07
1.93761e-07
1.93762e-07
1.93762e-07
1.93762e-07
1.93762e-07
1.93761e-07
1.9376e-07
1.93759e-07
1.93758e-07
1.93757e-07
1.93755e-07
1.93754e-07
1.93752e-07
1.93751e-07
1.93749e-07
1.93748e-07
1.93747e-07
1.93745e-07
1.93744e-07
1.93743e-07
1.93742e-07
1.93741e-07
1.9374e-07
1.9374e-07
1.93739e-07
1.93738e-07
1.93738e-07
1.93738e-07
1.93737e-07
1.93737e-07
1.93736e-07
1.93736e-07
1.93736e-07
1.93736e-07
1.93736e-07
1.93735e-07
1.93735e-07
1.93735e-07
1.93735e-07
1.93735e-07
1.93735e-07
1.93735e-07
1.93735e-07
1.93735e-07
1.93735e-07
1.93736e-07
1.93736e-07
1.93737e-07
1.93738e-07
1.93738e-07
1.93739e-07
1.9374e-07
1.9374e-07
1.93741e-07
1.93742e-07
1.93743e-07
1.93744e-07
1.93745e-07
1.93746e-07
1.93746e-07
1.93747e-07
1.93748e-07
1.93748e-07
1.93748e-07
1.93748e-07
1.93748e-07
8.27813e-07
8.27808e-07
8.27792e-07
8.27769e-07
8.27744e-07
8.27721e-07
8.27701e-07
8.27684e-07
8.27671e-07
8.27661e-07
8.27654e-07
8.2765e-07
8.27648e-07
8.27648e-07
8.27649e-07
8.27651e-07
8.27655e-07
8.2766e-07
8.27665e-07
8.27672e-07
8.27679e-07
8.27686e-07
8.27694e-07
8.27701e-07
8.27708e-07
8.27714e-07
8.27721e-07
8.27728e-07
8.27734e-07
8.27741e-07
8.27747e-07
8.27753e-07
8.27759e-07
8.27765e-07
8.27771e-07
8.27776e-07
8.27781e-07
8.27787e-07
8.27792e-07
8.27797e-07
8.27802e-07
8.27807e-07
8.27812e-07
8.27816e-07
8.27819e-07
8.27822e-07
8.27824e-07
8.27825e-07
8.27827e-07
8.27829e-07
8.27832e-07
8.27834e-07
8.27836e-07
8.27838e-07
8.27839e-07
8.2784e-07
8.27841e-07
8.27841e-07
8.27839e-07
8.27837e-07
8.27834e-07
8.2783e-07
8.27825e-07
8.2782e-07
8.27814e-07
8.27807e-07
8.27801e-07
8.27795e-07
8.27788e-07
8.27783e-07
8.27777e-07
8.27772e-07
8.27767e-07
8.27762e-07
8.27758e-07
8.27754e-07
8.27751e-07
8.27748e-07
8.27746e-07
8.27744e-07
8.27742e-07
8.2774e-07
8.27739e-07
8.27737e-07
8.27736e-07
8.27735e-07
8.27734e-07
8.27733e-07
8.27732e-07
8.27731e-07
8.27731e-07
8.2773e-07
8.2773e-07
8.27729e-07
8.27729e-07
8.27729e-07
8.27729e-07
8.2773e-07
8.27731e-07
8.27733e-07
8.27735e-07
8.27738e-07
8.27741e-07
8.27744e-07
8.27747e-07
8.2775e-07
8.27753e-07
8.27756e-07
8.27759e-07
8.27763e-07
8.27767e-07
8.27771e-07
8.27774e-07
8.27778e-07
8.2778e-07
8.27783e-07
8.27784e-07
8.27785e-07
8.27784e-07
8.27783e-07
2.38646e-06
2.38643e-06
2.38637e-06
2.3863e-06
2.38623e-06
2.38617e-06
2.38611e-06
2.38607e-06
2.38604e-06
2.38601e-06
2.38599e-06
2.38598e-06
2.38598e-06
2.38598e-06
2.38598e-06
2.38599e-06
2.386e-06
2.38601e-06
2.38603e-06
2.38605e-06
2.38607e-06
2.38609e-06
2.38611e-06
2.38613e-06
2.38615e-06
2.38617e-06
2.38619e-06
2.3862e-06
2.38622e-06
2.38624e-06
2.38626e-06
2.38627e-06
2.38629e-06
2.3863e-06
2.38632e-06
2.38633e-06
2.38635e-06
2.38636e-06
2.38638e-06
2.38639e-06
2.3864e-06
2.38642e-06
2.38643e-06
2.38644e-06
2.38645e-06
2.38645e-06
2.38646e-06
2.38646e-06
2.38647e-06
2.38647e-06
2.38648e-06
2.38648e-06
2.38649e-06
2.3865e-06
2.3865e-06
2.3865e-06
2.3865e-06
2.3865e-06
2.3865e-06
2.38649e-06
2.38648e-06
2.38647e-06
2.38646e-06
2.38644e-06
2.38643e-06
2.38641e-06
2.38639e-06
2.38637e-06
2.38636e-06
2.38634e-06
2.38633e-06
2.38631e-06
2.3863e-06
2.38629e-06
2.38627e-06
2.38627e-06
2.38626e-06
2.38625e-06
2.38624e-06
2.38624e-06
2.38623e-06
2.38623e-06
2.38622e-06
2.38622e-06
2.38622e-06
2.38621e-06
2.38621e-06
2.38621e-06
2.38621e-06
2.3862e-06
2.3862e-06
2.3862e-06
2.3862e-06
2.3862e-06
2.3862e-06
2.3862e-06
2.3862e-06
2.3862e-06
2.3862e-06
2.38621e-06
2.38622e-06
2.38622e-06
2.38623e-06
2.38624e-06
2.38625e-06
2.38626e-06
2.38626e-06
2.38627e-06
2.38628e-06
2.38629e-06
2.3863e-06
2.38631e-06
2.38632e-06
2.38633e-06
2.38634e-06
2.38634e-06
2.38635e-06
2.38635e-06
2.38635e-06
2.38634e-06
5.19158e-06
5.19149e-06
5.19135e-06
5.1912e-06
5.19106e-06
5.19093e-06
5.19082e-06
5.19073e-06
5.19066e-06
5.19061e-06
5.19058e-06
5.19056e-06
5.19055e-06
5.19056e-06
5.19057e-06
5.19059e-06
5.19061e-06
5.19064e-06
5.19067e-06
5.19071e-06
5.19075e-06
5.1908e-06
5.19084e-06
5.19088e-06
5.19092e-06
5.19096e-06
5.191e-06
5.19104e-06
5.19107e-06
5.19111e-06
5.19114e-06
5.19118e-06
5.19121e-06
5.19124e-06
5.19127e-06
5.1913e-06
5.19133e-06
5.19136e-06
5.19138e-06
5.19141e-06
5.19144e-06
5.19146e-06
5.19149e-06
5.19151e-06
5.19152e-06
5.19154e-06
5.19155e-06
5.19155e-06
5.19156e-06
5.19157e-06
5.19158e-06
5.19159e-06
5.19161e-06
5.19162e-06
5.19162e-06
5.19163e-06
5.19163e-06
5.19163e-06
5.19162e-06
5.1916e-06
5.19158e-06
5.19156e-06
5.19153e-06
5.1915e-06
5.19147e-06
5.19143e-06
5.1914e-06
5.19136e-06
5.19133e-06
5.19129e-06
5.19126e-06
5.19123e-06
5.19121e-06
5.19118e-06
5.19116e-06
5.19114e-06
5.19112e-06
5.19111e-06
5.19109e-06
5.19108e-06
5.19107e-06
5.19107e-06
5.19106e-06
5.19105e-06
5.19104e-06
5.19104e-06
5.19103e-06
5.19103e-06
5.19103e-06
5.19102e-06
5.19102e-06
5.19101e-06
5.19101e-06
5.19101e-06
5.19101e-06
5.19101e-06
5.19101e-06
5.19102e-06
5.19102e-06
5.19103e-06
5.19105e-06
5.19106e-06
5.19108e-06
5.19109e-06
5.19111e-06
5.19113e-06
5.19114e-06
5.19116e-06
5.19118e-06
5.1912e-06
5.19122e-06
5.19124e-06
5.19126e-06
5.19128e-06
5.1913e-06
5.19131e-06
5.19132e-06
5.19132e-06
5.19132e-06
5.1913e-06
9.25688e-06
9.25673e-06
9.25647e-06
9.2562e-06
9.25596e-06
9.25575e-06
9.25557e-06
9.25543e-06
9.25532e-06
9.25524e-06
9.25519e-06
9.25516e-06
9.25515e-06
9.25516e-06
9.25518e-06
9.25521e-06
9.25526e-06
9.25531e-06
9.25537e-06
9.25543e-06
9.25551e-06
9.25558e-06
9.25566e-06
9.25573e-06
9.2558e-06
9.25587e-06
9.25593e-06
9.25599e-06
9.25605e-06
9.25611e-06
9.25617e-06
9.25623e-06
9.25629e-06
9.25634e-06
9.25639e-06
9.25644e-06
9.25648e-06
9.25653e-06
9.25657e-06
9.25662e-06
9.25666e-06
9.2567e-06
9.25674e-06
9.25678e-06
9.2568e-06
9.25683e-06
9.25684e-06
9.25685e-06
9.25686e-06
9.25688e-06
9.2569e-06
9.25691e-06
9.25693e-06
9.25695e-06
9.25696e-06
9.25696e-06
9.25696e-06
9.25696e-06
9.25694e-06
9.25692e-06
9.25688e-06
9.25684e-06
9.25679e-06
9.25674e-06
9.25668e-06
9.25662e-06
9.25656e-06
9.25651e-06
9.25645e-06
9.25639e-06
9.25634e-06
9.25629e-06
9.25625e-06
9.25621e-06
9.25617e-06
9.25614e-06
9.25611e-06
9.25608e-06
9.25606e-06
9.25605e-06
9.25603e-06
9.25602e-06
9.256e-06
9.25599e-06
9.25598e-06
9.25597e-06
9.25597e-06
9.25596e-06
9.25595e-06
9.25595e-06
9.25594e-06
9.25593e-06
9.25593e-06
9.25592e-06
9.25592e-06
9.25592e-06
9.25593e-06
9.25594e-06
9.25595e-06
9.25597e-06
9.25599e-06
9.25602e-06
9.25604e-06
9.25607e-06
9.2561e-06
9.25613e-06
9.25615e-06
9.25618e-06
9.25621e-06
9.25625e-06
9.25628e-06
9.25632e-06
9.25635e-06
9.25638e-06
9.2564e-06
9.25642e-06
9.25644e-06
9.25645e-06
9.25644e-06
9.2564e-06
1.43964e-05
1.43962e-05
1.43958e-05
1.43954e-05
1.43951e-05
1.43948e-05
1.43945e-05
1.43943e-05
1.43942e-05
1.43941e-05
1.4394e-05
1.4394e-05
1.4394e-05
1.4394e-05
1.4394e-05
1.43941e-05
1.43941e-05
1.43942e-05
1.43943e-05
1.43944e-05
1.43945e-05
1.43946e-05
1.43947e-05
1.43949e-05
1.4395e-05
1.43951e-05
1.43952e-05
1.43953e-05
1.43953e-05
1.43954e-05
1.43955e-05
1.43956e-05
1.43957e-05
1.43958e-05
1.43958e-05
1.43959e-05
1.4396e-05
1.43961e-05
1.43961e-05
1.43962e-05
1.43962e-05
1.43963e-05
1.43964e-05
1.43964e-05
1.43965e-05
1.43965e-05
1.43965e-05
1.43965e-05
1.43965e-05
1.43966e-05
1.43966e-05
1.43966e-05
1.43966e-05
1.43967e-05
1.43967e-05
1.43967e-05
1.43967e-05
1.43967e-05
1.43966e-05
1.43966e-05
1.43965e-05
1.43965e-05
1.43964e-05
1.43963e-05
1.43962e-05
1.43962e-05
1.43961e-05
1.4396e-05
1.43959e-05
1.43958e-05
1.43957e-05
1.43957e-05
1.43956e-05
1.43955e-05
1.43955e-05
1.43954e-05
1.43954e-05
1.43954e-05
1.43953e-05
1.43953e-05
1.43953e-05
1.43953e-05
1.43952e-05
1.43952e-05
1.43952e-05
1.43952e-05
1.43952e-05
1.43952e-05
1.43952e-05
1.43952e-05
1.43952e-05
1.43951e-05
1.43951e-05
1.43951e-05
1.43951e-05
1.43951e-05
1.43951e-05
1.43952e-05
1.43952e-05
1.43952e-05
1.43952e-05
1.43953e-05
1.43953e-05
1.43954e-05
1.43954e-05
1.43954e-05
1.43955e-05
1.43955e-05
1.43956e-05
1.43956e-05
1.43957e-05
1.43957e-05
1.43958e-05
1.43958e-05
1.43958e-05
1.43959e-05
1.43959e-05
1.43959e-05
1.43959e-05
1.43958e-05
2.0392e-05
2.03917e-05
2.03912e-05
2.03907e-05
2.03902e-05
2.03898e-05
2.03895e-05
2.03893e-05
2.03891e-05
2.03889e-05
2.03888e-05
2.03888e-05
2.03888e-05
2.03888e-05
2.03889e-05
2.03889e-05
2.0389e-05
2.03891e-05
2.03893e-05
2.03894e-05
2.03896e-05
2.03897e-05
2.03899e-05
2.039e-05
2.03902e-05
2.03903e-05
2.03905e-05
2.03906e-05
2.03907e-05
2.03909e-05
2.0391e-05
2.03911e-05
2.03912e-05
2.03913e-05
2.03914e-05
2.03915e-05
2.03916e-05
2.03917e-05
2.03918e-05
2.03919e-05
2.0392e-05
2.03921e-05
2.03922e-05
2.03922e-05
2.03923e-05
2.03923e-05
2.03924e-05
2.03924e-05
2.03924e-05
2.03924e-05
2.03924e-05
2.03925e-05
2.03925e-05
2.03925e-05
2.03925e-05
2.03925e-05
2.03925e-05
2.03925e-05
2.03925e-05
2.03924e-05
2.03924e-05
2.03923e-05
2.03922e-05
2.03921e-05
2.03919e-05
2.03918e-05
2.03917e-05
2.03916e-05
2.03915e-05
2.03914e-05
2.03913e-05
2.03912e-05
2.03911e-05
2.0391e-05
2.03909e-05
2.03909e-05
2.03908e-05
2.03907e-05
2.03907e-05
2.03907e-05
2.03906e-05
2.03906e-05
2.03906e-05
2.03906e-05
2.03905e-05
2.03905e-05
2.03905e-05
2.03905e-05
2.03905e-05
2.03905e-05
2.03905e-05
2.03904e-05
2.03904e-05
2.03904e-05
2.03904e-05
2.03904e-05
2.03905e-05
2.03905e-05
2.03905e-05
2.03905e-05
2.03906e-05
2.03906e-05
2.03907e-05
2.03908e-05
2.03908e-05
2.03909e-05
2.03909e-05
2.0391e-05
2.0391e-05
2.03911e-05
2.03912e-05
2.03912e-05
2.03913e-05
2.03913e-05
2.03914e-05
2.03914e-05
2.03915e-05
2.03915e-05
2.03915e-05
2.03914e-05
2.70666e-05
2.70662e-05
2.70656e-05
2.7065e-05
2.70645e-05
2.7064e-05
2.70636e-05
2.70633e-05
2.70631e-05
2.70629e-05
2.70628e-05
2.70628e-05
2.70628e-05
2.70628e-05
2.70629e-05
2.7063e-05
2.70631e-05
2.70633e-05
2.70634e-05
2.70636e-05
2.70638e-05
2.7064e-05
2.70643e-05
2.70645e-05
2.70647e-05
2.70649e-05
2.7065e-05
2.70652e-05
2.70654e-05
2.70656e-05
2.70657e-05
2.70659e-05
2.7066e-05
2.70662e-05
2.70663e-05
2.70665e-05
2.70666e-05
2.70667e-05
2.70668e-05
2.70669e-05
2.70671e-05
2.70672e-05
2.70673e-05
2.70674e-05
2.70674e-05
2.70675e-05
2.70675e-05
2.70676e-05
2.70676e-05
2.70676e-05
2.70677e-05
2.70677e-05
2.70677e-05
2.70677e-05
2.70678e-05
2.70678e-05
2.70677e-05
2.70677e-05
2.70677e-05
2.70676e-05
2.70675e-05
2.70674e-05
2.70672e-05
2.70671e-05
2.7067e-05
2.70668e-05
2.70667e-05
2.70665e-05
2.70664e-05
2.70662e-05
2.70661e-05
2.7066e-05
2.70658e-05
2.70657e-05
2.70656e-05
2.70656e-05
2.70655e-05
2.70654e-05
2.70654e-05
2.70653e-05
2.70653e-05
2.70652e-05
2.70652e-05
2.70652e-05
2.70651e-05
2.70651e-05
2.70651e-05
2.70651e-05
2.70651e-05
2.70651e-05
2.7065e-05
2.7065e-05
2.7065e-05
2.7065e-05
2.7065e-05
2.7065e-05
2.7065e-05
2.70651e-05
2.70651e-05
2.70652e-05
2.70652e-05
2.70653e-05
2.70654e-05
2.70655e-05
2.70655e-05
2.70656e-05
2.70657e-05
2.70657e-05
2.70658e-05
2.70659e-05
2.7066e-05
2.7066e-05
2.70661e-05
2.70662e-05
2.70662e-05
2.70663e-05
2.70663e-05
2.70664e-05
2.70663e-05
2.70664e-05
3.42925e-05
3.42919e-05
3.42913e-05
3.42906e-05
3.42901e-05
3.42896e-05
3.42891e-05
3.42888e-05
3.42886e-05
3.42884e-05
3.42883e-05
3.42882e-05
3.42882e-05
3.42883e-05
3.42884e-05
3.42885e-05
3.42887e-05
3.42889e-05
3.42891e-05
3.42893e-05
3.42896e-05
3.42898e-05
3.42901e-05
3.42904e-05
3.42906e-05
3.42909e-05
3.42911e-05
3.42913e-05
3.42916e-05
3.42918e-05
3.4292e-05
3.42922e-05
3.42924e-05
3.42926e-05
3.42927e-05
3.42929e-05
3.42931e-05
3.42932e-05
3.42934e-05
3.42935e-05
3.42937e-05
3.42938e-05
3.4294e-05
3.42941e-05
3.42942e-05
3.42943e-05
3.42943e-05
3.42944e-05
3.42944e-05
3.42944e-05
3.42945e-05
3.42945e-05
3.42945e-05
3.42946e-05
3.42946e-05
3.42946e-05
3.42945e-05
3.42945e-05
3.42944e-05
3.42943e-05
3.42942e-05
3.4294e-05
3.42939e-05
3.42937e-05
3.42935e-05
3.42933e-05
3.42932e-05
3.4293e-05
3.42928e-05
3.42926e-05
3.42925e-05
3.42923e-05
3.42922e-05
3.4292e-05
3.42919e-05
3.42918e-05
3.42917e-05
3.42916e-05
3.42916e-05
3.42915e-05
3.42914e-05
3.42914e-05
3.42913e-05
3.42913e-05
3.42913e-05
3.42912e-05
3.42912e-05
3.42912e-05
3.42912e-05
3.42911e-05
3.42911e-05
3.42911e-05
3.42911e-05
3.42911e-05
3.42911e-05
3.42911e-05
3.42911e-05
3.42912e-05
3.42912e-05
3.42913e-05
3.42914e-05
3.42915e-05
3.42916e-05
3.42917e-05
3.42918e-05
3.42919e-05
3.4292e-05
3.42921e-05
3.42921e-05
3.42922e-05
3.42923e-05
3.42924e-05
3.42925e-05
3.42926e-05
3.42926e-05
3.42927e-05
3.42927e-05
3.42928e-05
3.42927e-05
3.42929e-05
4.19798e-05
4.1979e-05
4.19783e-05
4.19776e-05
4.1977e-05
4.19765e-05
4.19761e-05
4.19758e-05
4.19755e-05
4.19753e-05
4.19752e-05
4.19752e-05
4.19752e-05
4.19753e-05
4.19754e-05
4.19756e-05
4.19758e-05
4.1976e-05
4.19763e-05
4.19766e-05
4.19769e-05
4.19772e-05
4.19775e-05
4.19779e-05
4.19782e-05
4.19785e-05
4.19788e-05
4.1979e-05
4.19793e-05
4.19796e-05
4.19798e-05
4.19801e-05
4.19803e-05
4.19806e-05
4.19808e-05
4.1981e-05
4.19812e-05
4.19814e-05
4.19816e-05
4.19818e-05
4.1982e-05
4.19822e-05
4.19823e-05
4.19825e-05
4.19826e-05
4.19827e-05
4.19828e-05
4.19829e-05
4.19829e-05
4.19829e-05
4.1983e-05
4.1983e-05
4.19831e-05
4.19831e-05
4.19831e-05
4.19831e-05
4.1983e-05
4.19829e-05
4.19828e-05
4.19827e-05
4.19825e-05
4.19824e-05
4.19822e-05
4.1982e-05
4.19818e-05
4.19815e-05
4.19813e-05
4.19811e-05
4.19809e-05
4.19807e-05
4.19805e-05
4.19803e-05
4.19801e-05
4.19799e-05
4.19798e-05
4.19797e-05
4.19796e-05
4.19795e-05
4.19794e-05
4.19793e-05
4.19792e-05
4.19792e-05
4.19791e-05
4.19791e-05
4.1979e-05
4.1979e-05
4.1979e-05
4.19789e-05
4.19789e-05
4.19789e-05
4.19788e-05
4.19788e-05
4.19788e-05
4.19788e-05
4.19788e-05
4.19788e-05
4.19789e-05
4.19789e-05
4.1979e-05
4.19791e-05
4.19792e-05
4.19793e-05
4.19795e-05
4.19796e-05
4.19797e-05
4.19798e-05
4.19799e-05
4.198e-05
4.19801e-05
4.19802e-05
4.19803e-05
4.19804e-05
4.19805e-05
4.19806e-05
4.19807e-05
4.19808e-05
4.19808e-05
4.19809e-05
4.19808e-05
4.19812e-05
5.00649e-05
5.00638e-05
5.00631e-05
5.00624e-05
5.00618e-05
5.00613e-05
5.00609e-05
5.00606e-05
5.00603e-05
5.00602e-05
5.00601e-05
5.00601e-05
5.00602e-05
5.00603e-05
5.00604e-05
5.00606e-05
5.00609e-05
5.00611e-05
5.00614e-05
5.00618e-05
5.00621e-05
5.00625e-05
5.00629e-05
5.00633e-05
5.00637e-05
5.00641e-05
5.00644e-05
5.00647e-05
5.00651e-05
5.00654e-05
5.00657e-05
5.0066e-05
5.00663e-05
5.00666e-05
5.00669e-05
5.00671e-05
5.00674e-05
5.00676e-05
5.00679e-05
5.00681e-05
5.00683e-05
5.00686e-05
5.00688e-05
5.00689e-05
5.00691e-05
5.00693e-05
5.00694e-05
5.00694e-05
5.00695e-05
5.00695e-05
5.00696e-05
5.00696e-05
5.00697e-05
5.00697e-05
5.00697e-05
5.00696e-05
5.00695e-05
5.00694e-05
5.00693e-05
5.00691e-05
5.00689e-05
5.00687e-05
5.00685e-05
5.00682e-05
5.0068e-05
5.00677e-05
5.00675e-05
5.00672e-05
5.0067e-05
5.00667e-05
5.00665e-05
5.00663e-05
5.00661e-05
5.00659e-05
5.00657e-05
5.00656e-05
5.00654e-05
5.00653e-05
5.00652e-05
5.00651e-05
5.0065e-05
5.0065e-05
5.00649e-05
5.00648e-05
5.00648e-05
5.00647e-05
5.00647e-05
5.00646e-05
5.00646e-05
5.00646e-05
5.00645e-05
5.00645e-05
5.00645e-05
5.00645e-05
5.00645e-05
5.00645e-05
5.00646e-05
5.00647e-05
5.00648e-05
5.00649e-05
5.0065e-05
5.00652e-05
5.00654e-05
5.00655e-05
5.00657e-05
5.00658e-05
5.00659e-05
5.00661e-05
5.00662e-05
5.00663e-05
5.00664e-05
5.00665e-05
5.00666e-05
5.00667e-05
5.00668e-05
5.00669e-05
5.00669e-05
5.0067e-05
5.00668e-05
5.00675e-05
5.85022e-05
5.85008e-05
5.84999e-05
5.84993e-05
5.84987e-05
5.84983e-05
5.84979e-05
5.84976e-05
5.84974e-05
5.84973e-05
5.84972e-05
5.84973e-05
5.84974e-05
5.84975e-05
5.84977e-05
5.8498e-05
5.84983e-05
5.84986e-05
5.84989e-05
5.84993e-05
5.84997e-05
5.85002e-05
5.85007e-05
5.85011e-05
5.85015e-05
5.8502e-05
5.85024e-05
5.85028e-05
5.85032e-05
5.85036e-05
5.85039e-05
5.85043e-05
5.85046e-05
5.8505e-05
5.85053e-05
5.85056e-05
5.85059e-05
5.85062e-05
5.85065e-05
5.85068e-05
5.85071e-05
5.85073e-05
5.85076e-05
5.85078e-05
5.8508e-05
5.85082e-05
5.85083e-05
5.85084e-05
5.85085e-05
5.85086e-05
5.85086e-05
5.85087e-05
5.85087e-05
5.85087e-05
5.85087e-05
5.85086e-05
5.85085e-05
5.85083e-05
5.85081e-05
5.85079e-05
5.85077e-05
5.85074e-05
5.85072e-05
5.85069e-05
5.85066e-05
5.85063e-05
5.8506e-05
5.85057e-05
5.85054e-05
5.85051e-05
5.85049e-05
5.85046e-05
5.85044e-05
5.85042e-05
5.8504e-05
5.85038e-05
5.85037e-05
5.85035e-05
5.85034e-05
5.85033e-05
5.85032e-05
5.85031e-05
5.8503e-05
5.85029e-05
5.85029e-05
5.85028e-05
5.85027e-05
5.85027e-05
5.85026e-05
5.85026e-05
5.85026e-05
5.85025e-05
5.85025e-05
5.85025e-05
5.85025e-05
5.85026e-05
5.85027e-05
5.85028e-05
5.85029e-05
5.85031e-05
5.85033e-05
5.85034e-05
5.85036e-05
5.85038e-05
5.8504e-05
5.85042e-05
5.85043e-05
5.85045e-05
5.85046e-05
5.85047e-05
5.85048e-05
5.8505e-05
5.85051e-05
5.85052e-05
5.85053e-05
5.85054e-05
5.85054e-05
5.85055e-05
5.85053e-05
5.85062e-05
6.72587e-05
6.72568e-05
6.72558e-05
6.72552e-05
6.72547e-05
6.72543e-05
6.7254e-05
6.72537e-05
6.72536e-05
6.72535e-05
6.72535e-05
6.72536e-05
6.72538e-05
6.7254e-05
6.72542e-05
6.72545e-05
6.72549e-05
6.72552e-05
6.72556e-05
6.72561e-05
6.72566e-05
6.72571e-05
6.72576e-05
6.72581e-05
6.72586e-05
6.72591e-05
6.72596e-05
6.72601e-05
6.72605e-05
6.7261e-05
6.72614e-05
6.72618e-05
6.72622e-05
6.72626e-05
6.7263e-05
6.72634e-05
6.72637e-05
6.72641e-05
6.72644e-05
6.72648e-05
6.72651e-05
6.72654e-05
6.72657e-05
6.7266e-05
6.72662e-05
6.72664e-05
6.72666e-05
6.72667e-05
6.72668e-05
6.72669e-05
6.7267e-05
6.7267e-05
6.7267e-05
6.7267e-05
6.7267e-05
6.72668e-05
6.72667e-05
6.72665e-05
6.72662e-05
6.7266e-05
6.72657e-05
6.72654e-05
6.72651e-05
6.72648e-05
6.72644e-05
6.72641e-05
6.72637e-05
6.72634e-05
6.72631e-05
6.72628e-05
6.72625e-05
6.72622e-05
6.72619e-05
6.72617e-05
6.72615e-05
6.72613e-05
6.72611e-05
6.72609e-05
6.72608e-05
6.72607e-05
6.72606e-05
6.72604e-05
6.72603e-05
6.72603e-05
6.72602e-05
6.72601e-05
6.726e-05
6.726e-05
6.72599e-05
6.72598e-05
6.72598e-05
6.72597e-05
6.72597e-05
6.72597e-05
6.72598e-05
6.72599e-05
6.726e-05
6.72601e-05
6.72603e-05
6.72605e-05
6.72607e-05
6.72609e-05
6.72612e-05
6.72614e-05
6.72616e-05
6.72618e-05
6.7262e-05
6.72622e-05
6.72623e-05
6.72625e-05
6.72626e-05
6.72627e-05
6.72628e-05
6.72629e-05
6.7263e-05
6.72631e-05
6.72632e-05
6.72633e-05
6.7263e-05
6.72643e-05
7.63101e-05
7.63078e-05
7.63068e-05
7.63061e-05
7.63057e-05
7.63054e-05
7.63051e-05
7.63049e-05
7.63048e-05
7.63048e-05
7.63049e-05
7.63051e-05
7.63053e-05
7.63056e-05
7.63059e-05
7.63063e-05
7.63067e-05
7.63071e-05
7.63075e-05
7.63081e-05
7.63086e-05
7.63092e-05
7.63098e-05
7.63104e-05
7.63109e-05
7.63115e-05
7.6312e-05
7.63126e-05
7.63131e-05
7.63136e-05
7.63141e-05
7.63146e-05
7.63151e-05
7.63155e-05
7.6316e-05
7.63164e-05
7.63168e-05
7.63172e-05
7.63176e-05
7.6318e-05
7.63183e-05
7.63187e-05
7.63191e-05
7.63194e-05
7.63197e-05
7.63199e-05
7.63201e-05
7.63203e-05
7.63204e-05
7.63205e-05
7.63206e-05
7.63206e-05
7.63207e-05
7.63206e-05
7.63205e-05
7.63203e-05
7.63201e-05
7.63198e-05
7.63195e-05
7.63192e-05
7.63189e-05
7.63185e-05
7.63181e-05
7.63178e-05
7.63174e-05
7.6317e-05
7.63166e-05
7.63163e-05
7.63159e-05
7.63156e-05
7.63152e-05
7.63149e-05
7.63146e-05
7.63144e-05
7.63141e-05
7.63139e-05
7.63137e-05
7.63135e-05
7.63133e-05
7.63132e-05
7.63131e-05
7.63129e-05
7.63128e-05
7.63127e-05
7.63126e-05
7.63125e-05
7.63124e-05
7.63123e-05
7.63123e-05
7.63122e-05
7.63121e-05
7.63121e-05
7.63121e-05
7.63121e-05
7.63122e-05
7.63123e-05
7.63124e-05
7.63126e-05
7.63128e-05
7.63131e-05
7.63134e-05
7.63136e-05
7.63139e-05
7.63142e-05
7.63145e-05
7.63147e-05
7.63149e-05
7.63151e-05
7.63153e-05
7.63154e-05
7.63156e-05
7.63157e-05
7.63158e-05
7.63159e-05
7.6316e-05
7.63161e-05
7.63162e-05
7.63163e-05
7.6316e-05
7.63176e-05
8.56394e-05
8.56366e-05
8.56355e-05
8.56349e-05
8.56345e-05
8.56342e-05
8.5634e-05
8.56339e-05
8.56339e-05
8.5634e-05
8.56342e-05
8.56344e-05
8.56347e-05
8.56351e-05
8.56355e-05
8.56359e-05
8.56364e-05
8.56368e-05
8.56374e-05
8.56379e-05
8.56386e-05
8.56392e-05
8.56399e-05
8.56405e-05
8.56412e-05
8.56418e-05
8.56424e-05
8.5643e-05
8.56436e-05
8.56441e-05
8.56447e-05
8.56452e-05
8.56458e-05
8.56463e-05
8.56468e-05
8.56473e-05
8.56478e-05
8.56482e-05
8.56487e-05
8.56491e-05
8.56495e-05
8.565e-05
8.56504e-05
8.56507e-05
8.56511e-05
8.56514e-05
8.56516e-05
8.56518e-05
8.5652e-05
8.56521e-05
8.56522e-05
8.56522e-05
8.56522e-05
8.56521e-05
8.56519e-05
8.56517e-05
8.56514e-05
8.5651e-05
8.56507e-05
8.56503e-05
8.56499e-05
8.56494e-05
8.5649e-05
8.56486e-05
8.56482e-05
8.56477e-05
8.56473e-05
8.56469e-05
8.56465e-05
8.56461e-05
8.56458e-05
8.56454e-05
8.56451e-05
8.56448e-05
8.56445e-05
8.56443e-05
8.56441e-05
8.56439e-05
8.56437e-05
8.56435e-05
8.56433e-05
8.56432e-05
8.56431e-05
8.56429e-05
8.56428e-05
8.56427e-05
8.56426e-05
8.56425e-05
8.56424e-05
8.56423e-05
8.56422e-05
8.56422e-05
8.56422e-05
8.56422e-05
8.56424e-05
8.56425e-05
8.56427e-05
8.5643e-05
8.56433e-05
8.56436e-05
8.56439e-05
8.56442e-05
8.56446e-05
8.56449e-05
8.56452e-05
8.56455e-05
8.56457e-05
8.56459e-05
8.56461e-05
8.56463e-05
8.56465e-05
8.56466e-05
8.56467e-05
8.56469e-05
8.5647e-05
8.56471e-05
8.56471e-05
8.56473e-05
8.56468e-05
8.56489e-05
9.52344e-05
9.52312e-05
9.52299e-05
9.52293e-05
9.5229e-05
9.52288e-05
9.52287e-05
9.52287e-05
9.52287e-05
9.52289e-05
9.52292e-05
9.52296e-05
9.523e-05
9.52304e-05
9.52309e-05
9.52314e-05
9.52319e-05
9.52325e-05
9.52331e-05
9.52337e-05
9.52344e-05
9.52351e-05
9.52358e-05
9.52366e-05
9.52373e-05
9.5238e-05
9.52386e-05
9.52393e-05
9.52399e-05
9.52406e-05
9.52412e-05
9.52418e-05
9.52424e-05
9.5243e-05
9.52436e-05
9.52441e-05
9.52446e-05
9.52451e-05
9.52456e-05
9.52461e-05
9.52466e-05
9.52471e-05
9.52476e-05
9.5248e-05
9.52484e-05
9.52487e-05
9.5249e-05
9.52492e-05
9.52494e-05
9.52496e-05
9.52497e-05
9.52497e-05
9.52496e-05
9.52495e-05
9.52492e-05
9.52489e-05
9.52485e-05
9.5248e-05
9.52475e-05
9.52471e-05
9.52466e-05
9.52461e-05
9.52456e-05
9.52451e-05
9.52446e-05
9.52442e-05
9.52437e-05
9.52432e-05
9.52428e-05
9.52424e-05
9.5242e-05
9.52416e-05
9.52413e-05
9.52409e-05
9.52406e-05
9.52404e-05
9.52401e-05
9.52399e-05
9.52397e-05
9.52395e-05
9.52393e-05
9.52392e-05
9.5239e-05
9.52389e-05
9.52387e-05
9.52386e-05
9.52385e-05
9.52383e-05
9.52382e-05
9.52381e-05
9.5238e-05
9.5238e-05
9.5238e-05
9.52381e-05
9.52383e-05
9.52385e-05
9.52388e-05
9.52391e-05
9.52395e-05
9.52398e-05
9.52402e-05
9.52406e-05
9.5241e-05
9.52414e-05
9.52418e-05
9.52421e-05
9.52424e-05
9.52426e-05
9.52429e-05
9.52431e-05
9.52432e-05
9.52434e-05
9.52435e-05
9.52436e-05
9.52437e-05
9.52438e-05
9.52439e-05
9.52441e-05
9.52435e-05
9.52461e-05
0.000105087
0.000105084
0.000105082
0.000105082
0.000105082
0.000105081
0.000105081
0.000105081
0.000105082
0.000105082
0.000105082
0.000105083
0.000105083
0.000105084
0.000105084
0.000105085
0.000105086
0.000105086
0.000105087
0.000105087
0.000105088
0.000105089
0.00010509
0.000105091
0.000105091
0.000105092
0.000105093
0.000105094
0.000105094
0.000105095
0.000105096
0.000105096
0.000105097
0.000105098
0.000105098
0.000105099
0.0001051
0.0001051
0.000105101
0.000105101
0.000105102
0.000105102
0.000105103
0.000105103
0.000105104
0.000105104
0.000105104
0.000105105
0.000105105
0.000105105
0.000105105
0.000105105
0.000105105
0.000105105
0.000105104
0.000105104
0.000105103
0.000105103
0.000105102
0.000105102
0.000105101
0.000105101
0.0001051
0.000105099
0.000105099
0.000105098
0.000105098
0.000105097
0.000105097
0.000105096
0.000105096
0.000105096
0.000105095
0.000105095
0.000105095
0.000105094
0.000105094
0.000105094
0.000105093
0.000105093
0.000105093
0.000105093
0.000105093
0.000105093
0.000105092
0.000105092
0.000105092
0.000105092
0.000105092
0.000105092
0.000105092
0.000105092
0.000105092
0.000105092
0.000105092
0.000105092
0.000105093
0.000105093
0.000105094
0.000105094
0.000105095
0.000105095
0.000105095
0.000105096
0.000105096
0.000105097
0.000105097
0.000105097
0.000105098
0.000105098
0.000105098
0.000105098
0.000105098
0.000105098
0.000105098
0.000105099
0.000105099
0.000105099
0.000105098
0.000105101
0.000115194
0.00011519
0.000115188
0.000115188
0.000115188
0.000115188
0.000115188
0.000115188
0.000115188
0.000115188
0.000115189
0.000115189
0.00011519
0.000115191
0.000115191
0.000115192
0.000115193
0.000115193
0.000115194
0.000115195
0.000115196
0.000115197
0.000115198
0.000115198
0.000115199
0.0001152
0.000115201
0.000115202
0.000115202
0.000115203
0.000115204
0.000115205
0.000115205
0.000115206
0.000115207
0.000115207
0.000115208
0.000115209
0.000115209
0.00011521
0.000115211
0.000115211
0.000115212
0.000115212
0.000115213
0.000115213
0.000115214
0.000115214
0.000115214
0.000115214
0.000115214
0.000115214
0.000115214
0.000115214
0.000115213
0.000115212
0.000115212
0.000115211
0.00011521
0.00011521
0.000115209
0.000115208