/*--------------------------------*- C++ -*----------------------------------*\
  =========                 |
  \\      /  F ield         | OpenFOAM: The Open Source CFD Toolbox
   \\    /   O peration     | Website:  https://openfoam.org
    \\  /    A nd           | Version:  7
     \\/     M anipulation  |
\*---------------------------------------------------------------------------*/
FoamFile
{
    version     2.0;
    format      ascii;
    class       volScalarField;
    location    "3500";
    object      omega;
}
// * * * * * * * * * * * * * * * * * * * * * * * * * * * * * * * * * * * * * //

dimensions      [0 0 -1 0 0 0 0];

internalField   nonuniform List<scalar> 
24000
(
999.269
999.269
999.269
999.269
999.269
999.269
999.269
999.269
999.269
999.269
999.269
999.269
999.269
999.269
999.269
999.269
999.269
999.269
999.269
999.269
999.269
999.269
999.269
999.269
999.269
999.269
999.269
999.269
999.269
999.269
999.269
999.269
999.269
999.269
999.269
999.269
999.269
999.269
999.269
999.269
999.269
999.269
999.269
999.269
999.269
999.269
999.269
999.269
999.269
999.269
999.269
999.269
999.269
999.269
999.269
999.269
999.269
999.269
999.269
999.269
999.269
999.269
999.269
999.269
999.269
999.269
999.269
999.269
999.269
999.269
999.269
999.269
999.269
999.269
999.269
999.269
999.269
999.269
999.269
999.269
999.269
999.269
999.269
999.269
999.269
999.269
999.269
999.269
999.269
999.269
999.269
999.269
999.269
999.269
999.269
999.269
999.269
999.269
999.269
999.269
999.269
999.269
999.269
999.269
999.269
999.269
999.269
999.269
999.269
999.269
999.269
999.269
999.269
999.269
999.269
999.269
999.269
999.269
999.269
999.269
173.154
173.154
173.154
173.154
173.154
173.154
173.154
173.154
173.154
173.154
173.154
173.154
173.154
173.154
173.154
173.154
173.154
173.154
173.154
173.154
173.154
173.154
173.154
173.154
173.154
173.154
173.154
173.154
173.154
173.154
173.154
173.154
173.154
173.154
173.154
173.154
173.154
173.154
173.154
173.154
173.154
173.154
173.154
173.154
173.154
173.154
173.154
173.154
173.154
173.154
173.154
173.154
173.154
173.154
173.154
173.154
173.154
173.154
173.154
173.154
173.154
173.154
173.154
173.154
173.154
173.154
173.154
173.154
173.154
173.154
173.154
173.154
173.154
173.154
173.154
173.154
173.154
173.154
173.154
173.154
173.154
173.154
173.154
173.154
173.154
173.154
173.154
173.154
173.154
173.154
173.154
173.154
173.154
173.154
173.154
173.154
173.154
173.154
173.154
173.154
173.154
173.154
173.154
173.154
173.154
173.154
173.154
173.154
173.154
173.154
173.154
173.154
173.154
173.154
173.154
173.154
173.154
173.154
173.154
173.154
58.7499
58.7499
58.7499
58.7499
58.7499
58.7499
58.7499
58.7499
58.7499
58.7499
58.7499
58.7499
58.7499
58.7499
58.7499
58.7499
58.7499
58.7499
58.7499
58.7499
58.7499
58.7499
58.7499
58.7499
58.7499
58.7499
58.7499
58.7499
58.7499
58.7499
58.7499
58.7499
58.7499
58.7499
58.7499
58.7499
58.7499
58.7499
58.7499
58.7499
58.7499
58.7499
58.7499
58.7499
58.7499
58.7499
58.7499
58.7499
58.7499
58.7499
58.7499
58.7499
58.7499
58.7499
58.7499
58.7499
58.7499
58.7499
58.7499
58.7499
58.7499
58.7499
58.7499
58.7499
58.7499
58.7499
58.7499
58.7499
58.7499
58.7499
58.7499
58.7499
58.7499
58.7499
58.7499
58.7499
58.7499
58.7499
58.7499
58.7499
58.7499
58.7499
58.7499
58.7499
58.7499
58.7499
58.7499
58.7499
58.7499
58.7499
58.7499
58.7499
58.7499
58.7499
58.7499
58.7499
58.7499
58.7499
58.7499
58.7499
58.7499
58.7499
58.7499
58.7499
58.7499
58.7499
58.7499
58.7499
58.7499
58.7499
58.7499
58.7499
58.7499
58.7499
58.7499
58.7499
58.7499
58.7499
58.7499
58.7499
28.3185
28.3186
28.3187
28.3187
28.3186
28.3186
28.3186
28.3186
28.3186
28.3186
28.3186
28.3186
28.3186
28.3186
28.3186
28.3186
28.3186
28.3186
28.3186
28.3186
28.3186
28.3186
28.3186
28.3186
28.3186
28.3186
28.3186
28.3186
28.3186
28.3186
28.3186
28.3186
28.3186
28.3186
28.3186
28.3186
28.3186
28.3186
28.3186
28.3186
28.3186
28.3186
28.3186
28.3187
28.3187
28.3187
28.3187
28.3187
28.3187
28.3187
28.3187
28.3187
28.3187
28.3187
28.3187
28.3187
28.3187
28.3187
28.3187
28.3187
28.3187
28.3187
28.3187
28.3187
28.3187
28.3187
28.3187
28.3187
28.3187
28.3187
28.3187
28.3187
28.3187
28.3187
28.3187
28.3187
28.3186
28.3186
28.3186
28.3186
28.3186
28.3186
28.3186
28.3186
28.3186
28.3186
28.3186
28.3186
28.3186
28.3186
28.3186
28.3186
28.3186
28.3186
28.3186
28.3186
28.3186
28.3186
28.3186
28.3186
28.3186
28.3186
28.3186
28.3186
28.3186
28.3186
28.3186
28.3186
28.3186
28.3186
28.3186
28.3186
28.3186
28.3186
28.3186
28.3186
28.3186
28.3186
28.3187
28.3186
16.9449
16.945
16.945
16.945
16.945
16.945
16.945
16.945
16.945
16.945
16.945
16.945
16.945
16.945
16.945
16.945
16.945
16.945
16.945
16.945
16.945
16.945
16.945
16.945
16.945
16.945
16.945
16.945
16.945
16.945
16.945
16.945
16.945
16.945
16.945
16.945
16.945
16.945
16.945
16.945
16.945
16.945
16.945
16.945
16.9451
16.9451
16.9451
16.9451
16.9451
16.9451
16.9451
16.9451
16.9451
16.9451
16.9451
16.9451
16.9451
16.9451
16.9451
16.9451
16.9451
16.9451
16.9451
16.9451
16.9451
16.9451
16.9451
16.9451
16.9451
16.9451
16.9451
16.9451
16.9451
16.9451
16.945
16.945
16.945
16.945
16.945
16.945
16.945
16.945
16.945
16.945
16.945
16.945
16.945
16.945
16.945
16.945
16.945
16.945
16.945
16.945
16.945
16.945
16.945
16.945
16.945
16.945
16.945
16.945
16.945
16.945
16.945
16.945
16.945
16.945
16.945
16.945
16.945
16.945
16.945
16.945
16.945
16.945
16.945
16.945
16.9451
16.9451
11.6865
11.6866
11.6867
11.6867
11.6867
11.6867
11.6867
11.6867
11.6867
11.6867
11.6867
11.6867
11.6867
11.6867
11.6867
11.6866
11.6866
11.6866
11.6866
11.6866
11.6866
11.6866
11.6866
11.6866
11.6866
11.6866
11.6866
11.6866
11.6866
11.6867
11.6867
11.6867
11.6867
11.6867
11.6867
11.6867
11.6867
11.6867
11.6867
11.6867
11.6867
11.6867
11.6867
11.6867
11.6867
11.6867
11.6867
11.6867
11.6867
11.6867
11.6867
11.6867
11.6868
11.6868
11.6868
11.6868
11.6868
11.6868
11.6868
11.6868
11.6867
11.6867
11.6867
11.6867
11.6867
11.6867
11.6867
11.6867
11.6867
11.6867
11.6867
11.6867
11.6867
11.6867
11.6867
11.6867
11.6867
11.6867
11.6867
11.6867
11.6867
11.6867
11.6867
11.6867
11.6867
11.6867
11.6867
11.6867
11.6867
11.6867
11.6867
11.6867
11.6867
11.6867
11.6867
11.6867
11.6867
11.6867
11.6867
11.6867
11.6867
11.6867
11.6867
11.6867
11.6867
11.6867
11.6867
11.6867
11.6867
11.6867
11.6867
11.6867
11.6867
11.6867
11.6867
11.6867
11.6867
11.6867
11.6867
11.6867
8.80652
8.80665
8.80674
8.80677
8.80678
8.80678
8.80678
8.80678
8.80678
8.80678
8.80677
8.80677
8.80676
8.80676
8.80675
8.80675
8.80674
8.80674
8.80674
8.80673
8.80673
8.80673
8.80673
8.80673
8.80673
8.80673
8.80673
8.80673
8.80673
8.80673
8.80673
8.80673
8.80674
8.80674
8.80674
8.80674
8.80675
8.80675
8.80675
8.80676
8.80676
8.80676
8.80677
8.80677
8.80678
8.80679
8.80679
8.8068
8.80681
8.80681
8.80681
8.80681
8.80681
8.80681
8.80681
8.80681
8.80681
8.80681
8.80681
8.80681
8.80681
8.8068
8.8068
8.8068
8.8068
8.8068
8.8068
8.8068
8.8068
8.8068
8.8068
8.80679
8.80679
8.80679
8.80679
8.80679
8.80679
8.80678
8.80678
8.80678
8.80678
8.80678
8.80678
8.80678
8.80677
8.80677
8.80677
8.80677
8.80677
8.80677
8.80677
8.80677
8.80677
8.80677
8.80676
8.80676
8.80676
8.80676
8.80676
8.80677
8.80677
8.80677
8.80677
8.80677
8.80678
8.80678
8.80679
8.80679
8.80679
8.80679
8.80679
8.80679
8.80679
8.80679
8.80679
8.80679
8.80679
8.80679
8.80679
8.80681
6.99287
6.99297
6.99306
6.9931
6.99311
6.99312
6.99312
6.99312
6.99312
6.99312
6.99312
6.99312
6.99312
6.99311
6.99311
6.99311
6.9931
6.9931
6.99309
6.99309
6.99309
6.99308
6.99308
6.99308
6.99308
6.99308
6.99307
6.99307
6.99307
6.99307
6.99307
6.99307
6.99307
6.99307
6.99307
6.99307
6.99308
6.99308
6.99308
6.99308
6.99308
6.99308
6.99309
6.99309
6.9931
6.9931
6.99311
6.99311
6.99312
6.99312
6.99312
6.99312
6.99312
6.99312
6.99312
6.99312
6.99312
6.99312
6.99312
6.99312
6.99312
6.99311
6.99311
6.99311
6.99311
6.99311
6.99311
6.99311
6.99311
6.99311
6.99311
6.99311
6.99311
6.99311
6.99311
6.99311
6.99311
6.99311
6.99311
6.99311
6.99311
6.99311
6.9931
6.9931
6.9931
6.9931
6.9931
6.9931
6.9931
6.9931
6.9931
6.9931
6.9931
6.9931
6.99309
6.99309
6.99309
6.99309
6.9931
6.9931
6.9931
6.9931
6.9931
6.9931
6.99311
6.99311
6.99312
6.99312
6.99312
6.99312
6.99312
6.99312
6.99312
6.99312
6.99312
6.99311
6.99311
6.99311
6.99312
6.99314
5.7344
5.73446
5.73453
5.73456
5.73458
5.73459
5.73459
5.7346
5.7346
5.7346
5.7346
5.7346
5.7346
5.7346
5.73459
5.73459
5.73459
5.73458
5.73458
5.73458
5.73457
5.73457
5.73456
5.73456
5.73456
5.73456
5.73455
5.73455
5.73455
5.73455
5.73454
5.73454
5.73454
5.73454
5.73454
5.73454
5.73454
5.73454
5.73454
5.73454
5.73454
5.73454
5.73454
5.73455
5.73455
5.73455
5.73456
5.73456
5.73457
5.73457
5.73457
5.73457
5.73457
5.73457
5.73457
5.73457
5.73457
5.73457
5.73456
5.73456
5.73456
5.73456
5.73456
5.73456
5.73456
5.73456
5.73456
5.73456
5.73456
5.73456
5.73456
5.73456
5.73456
5.73456
5.73456
5.73456
5.73456
5.73457
5.73457
5.73457
5.73456
5.73456
5.73456
5.73456
5.73456
5.73456
5.73456
5.73456
5.73456
5.73456
5.73456
5.73456
5.73456
5.73456
5.73456
5.73456
5.73456
5.73456
5.73456
5.73456
5.73456
5.73456
5.73456
5.73456
5.73457
5.73457
5.73458
5.73458
5.73458
5.73458
5.73458
5.73458
5.73458
5.73458
5.73457
5.73457
5.73457
5.73457
5.73457
5.73459
4.80815
4.80819
4.80824
4.80827
4.80829
4.80829
4.8083
4.8083
4.8083
4.80831
4.80831
4.80831
4.80831
4.80831
4.8083
4.8083
4.8083
4.80829
4.80829
4.80829
4.80828
4.80828
4.80827
4.80827
4.80827
4.80826
4.80826
4.80826
4.80825
4.80825
4.80825
4.80825
4.80824
4.80824
4.80824
4.80824
4.80824
4.80824
4.80823
4.80823
4.80823
4.80823
4.80823
4.80823
4.80824
4.80824
4.80824
4.80825
4.80825
4.80825
4.80826
4.80826
4.80826
4.80826
4.80825
4.80825
4.80825
4.80825
4.80825
4.80824
4.80824
4.80824
4.80824
4.80824
4.80824
4.80824
4.80824
4.80824
4.80824
4.80824
4.80824
4.80825
4.80825
4.80825
4.80825
4.80825
4.80825
4.80825
4.80825
4.80825
4.80825
4.80825
4.80825
4.80825
4.80825
4.80825
4.80825
4.80825
4.80825
4.80825
4.80825
4.80825
4.80825
4.80825
4.80825
4.80825
4.80825
4.80825
4.80825
4.80825
4.80825
4.80825
4.80825
4.80826
4.80826
4.80826
4.80827
4.80827
4.80827
4.80827
4.80827
4.80827
4.80827
4.80827
4.80827
4.80826
4.80826
4.80826
4.80826
4.80827
4.10115
4.10118
4.10121
4.10123
4.10124
4.10124
4.10125
4.10125
4.10125
4.10125
4.10125
4.10125
4.10125
4.10125
4.10125
4.10125
4.10124
4.10124
4.10124
4.10123
4.10123
4.10123
4.10122
4.10122
4.10122
4.10121
4.10121
4.1012
4.1012
4.1012
4.10119
4.10119
4.10119
4.10119
4.10118
4.10118
4.10118
4.10118
4.10118
4.10117
4.10117
4.10117
4.10117
4.10117
4.10117
4.10117
4.10118
4.10118
4.10118
4.10118
4.10119
4.10119
4.10119
4.10119
4.10118
4.10118
4.10118
4.10118
4.10118
4.10117
4.10117
4.10117
4.10117
4.10117
4.10117
4.10117
4.10117
4.10117
4.10117
4.10117
4.10117
4.10117
4.10118
4.10118
4.10118
4.10118
4.10118
4.10118
4.10118
4.10118
4.10119
4.10119
4.10119
4.10119
4.10119
4.10119
4.10119
4.10119
4.10119
4.10119
4.10119
4.10118
4.10118
4.10118
4.10118
4.10118
4.10119
4.10119
4.10119
4.10119
4.10119
4.10119
4.10119
4.10119
4.10119
4.1012
4.1012
4.1012
4.1012
4.1012
4.1012
4.1012
4.1012
4.1012
4.1012
4.1012
4.1012
4.10119
4.1012
4.1012
3.54761
3.54763
3.54765
3.54766
3.54766
3.54766
3.54766
3.54766
3.54766
3.54766
3.54766
3.54766
3.54766
3.54766
3.54766
3.54766
3.54765
3.54765
3.54765
3.54764
3.54764
3.54764
3.54763
3.54763
3.54763
3.54762
3.54762
3.54761
3.54761
3.54761
3.5476
3.5476
3.5476
3.54759
3.54759
3.54759
3.54759
3.54758
3.54758
3.54758
3.54758
3.54758
3.54757
3.54757
3.54757
3.54757
3.54758
3.54758
3.54758
3.54758
3.54758
3.54758
3.54758
3.54758
3.54758
3.54758
3.54758
3.54758
3.54757
3.54757
3.54757
3.54757
3.54757
3.54756
3.54756
3.54756
3.54756
3.54757
3.54757
3.54757
3.54757
3.54757
3.54757
3.54757
3.54758
3.54758
3.54758
3.54758
3.54758
3.54758
3.54758
3.54758
3.54759
3.54759
3.54759
3.54759
3.54759
3.54759
3.54759
3.54759
3.54759
3.54759
3.54759
3.54759
3.54759
3.54759
3.54759
3.54759
3.54759
3.54759
3.54759
3.54759
3.54759
3.54759
3.54759
3.5476
3.5476
3.5476
3.5476
3.5476
3.5476
3.5476
3.5476
3.5476
3.5476
3.5476
3.5476
3.54759
3.5476
3.54759
3.10546
3.10548
3.10549
3.10549
3.10549
3.10549
3.10549
3.10548
3.10548
3.10548
3.10548
3.10548
3.10548
3.10548
3.10547
3.10547
3.10547
3.10547
3.10547
3.10546
3.10546
3.10546
3.10545
3.10545
3.10545
3.10544
3.10544
3.10543
3.10543
3.10543
3.10542
3.10542
3.10542
3.10541
3.10541
3.10541
3.10541
3.1054
3.1054
3.1054
3.1054
3.10539
3.10539
3.10539
3.10539
3.10539
3.10539
3.10539
3.10539
3.1054
3.1054
3.1054
3.1054
3.1054
3.10539
3.10539
3.10539
3.10539
3.10538
3.10538
3.10538
3.10538
3.10538
3.10538
3.10538
3.10538
3.10538
3.10538
3.10538
3.10538
3.10538
3.10538
3.10538
3.10539
3.10539
3.10539
3.10539
3.10539
3.10539
3.10539
3.1054
3.1054
3.1054
3.1054
3.1054
3.1054
3.1054
3.1054
3.1054
3.1054
3.1054
3.1054
3.1054
3.1054
3.1054
3.1054
3.1054
3.1054
3.1054
3.1054
3.1054
3.1054
3.1054
3.1054
3.10541
3.10541
3.10541
3.10541
3.10541
3.10541
3.10541
3.10541
3.10541
3.10541
3.10541
3.10541
3.10541
3.1054
3.10541
3.10539
2.74628
2.7463
2.74631
2.7463
2.7463
2.74629
2.74629
2.74628
2.74628
2.74628
2.74627
2.74627
2.74627
2.74627
2.74626
2.74626
2.74626
2.74626
2.74626
2.74625
2.74625
2.74625
2.74624
2.74624
2.74624
2.74623
2.74623
2.74623
2.74622
2.74622
2.74622
2.74622
2.74621
2.74621
2.74621
2.7462
2.7462
2.7462
2.74619
2.74619
2.74619
2.74619
2.74618
2.74618
2.74618
2.74618
2.74618
2.74618
2.74618
2.74618
2.74618
2.74618
2.74618
2.74618
2.74618
2.74618
2.74618
2.74617
2.74617
2.74617
2.74617
2.74617
2.74616
2.74616
2.74616
2.74616
2.74616
2.74616
2.74617
2.74617
2.74617
2.74617
2.74617
2.74617
2.74617
2.74618
2.74618
2.74618
2.74618
2.74618
2.74618
2.74618
2.74619
2.74619
2.74619
2.74619
2.74619
2.74619
2.74619
2.74619
2.74619
2.74619
2.74619
2.74619
2.74619
2.74619
2.74619
2.74619
2.74619
2.74619
2.74619
2.74619
2.74619
2.74619
2.74619
2.7462
2.7462
2.7462
2.7462
2.7462
2.7462
2.7462
2.7462
2.7462
2.7462
2.7462
2.74619
2.74619
2.7462
2.74617
2.45015
2.45017
2.45017
2.45017
2.45016
2.45015
2.45014
2.45013
2.45013
2.45012
2.45012
2.45012
2.45011
2.45011
2.45011
2.45011
2.4501
2.4501
2.4501
2.4501
2.4501
2.45009
2.45009
2.45009
2.45008
2.45008
2.45008
2.45008
2.45007
2.45007
2.45007
2.45006
2.45006
2.45006
2.45005
2.45005
2.45005
2.45005
2.45004
2.45004
2.45004
2.45003
2.45003
2.45003
2.45003
2.45003
2.45003
2.45003
2.45003
2.45003
2.45003
2.45003
2.45003
2.45003
2.45003
2.45002
2.45002
2.45002
2.45002
2.45001
2.45001
2.45001
2.45001
2.45001
2.45001
2.45001
2.45001
2.45001
2.45001
2.45001
2.45001
2.45002
2.45002
2.45002
2.45002
2.45002
2.45002
2.45002
2.45003
2.45003
2.45003
2.45003
2.45003
2.45003
2.45003
2.45003
2.45003
2.45003
2.45003
2.45003
2.45003
2.45003
2.45003
2.45004
2.45004
2.45004
2.45004
2.45004
2.45004
2.45004
2.45004
2.45004
2.45004
2.45004
2.45004
2.45004
2.45004
2.45004
2.45004
2.45004
2.45004
2.45004
2.45004
2.45004
2.45004
2.45004
2.45004
2.45003
2.45004
2.45001
2.20276
2.20279
2.20278
2.20277
2.20276
2.20275
2.20274
2.20274
2.20273
2.20272
2.20272
2.20271
2.20271
2.20271
2.2027
2.2027
2.2027
2.2027
2.20269
2.20269
2.20269
2.20269
2.20268
2.20268
2.20268
2.20268
2.20267
2.20267
2.20267
2.20267
2.20266
2.20266
2.20266
2.20265
2.20265
2.20265
2.20265
2.20264
2.20264
2.20264
2.20264
2.20263
2.20263
2.20263
2.20263
2.20263
2.20262
2.20262
2.20262
2.20262
2.20262
2.20262
2.20262
2.20262
2.20262
2.20262
2.20262
2.20261
2.20261
2.20261
2.20261
2.20261
2.20261
2.20261
2.20261
2.20261
2.20261
2.20261
2.20261
2.20261
2.20261
2.20261
2.20261
2.20262
2.20262
2.20262
2.20262
2.20262
2.20262
2.20262
2.20263
2.20263
2.20263
2.20263
2.20263
2.20263
2.20263
2.20263
2.20263
2.20263
2.20263
2.20263
2.20263
2.20263
2.20263
2.20263
2.20263
2.20263
2.20263
2.20263
2.20263
2.20263
2.20263
2.20263
2.20263
2.20263
2.20263
2.20264
2.20264
2.20264
2.20264
2.20264
2.20263
2.20263
2.20263
2.20263
2.20263
2.20263
2.20263
2.2026
1.99363
1.99366
1.99366
1.99365
1.99363
1.99362
1.99361
1.9936
1.9936
1.99359
1.99358
1.99358
1.99357
1.99357
1.99356
1.99356
1.99356
1.99356
1.99356
1.99355
1.99355
1.99355
1.99355
1.99354
1.99354
1.99354
1.99354
1.99354
1.99353
1.99353
1.99353
1.99352
1.99352
1.99352
1.99352
1.99351
1.99351
1.99351
1.99351
1.9935
1.9935
1.9935
1.9935
1.99349
1.99349
1.99349
1.99349
1.99349
1.99349
1.99349
1.99349
1.99349
1.99349
1.99348
1.99348
1.99348
1.99348
1.99348
1.99348
1.99348
1.99348
1.99347
1.99347
1.99347
1.99347
1.99347
1.99348
1.99348
1.99348
1.99348
1.99348
1.99348
1.99348
1.99348
1.99349
1.99349
1.99349
1.99349
1.99349
1.99349
1.99349
1.99349
1.9935
1.9935
1.9935
1.9935
1.9935
1.9935
1.9935
1.9935
1.9935
1.9935
1.9935
1.9935
1.9935
1.9935
1.9935
1.9935
1.9935
1.9935
1.9935
1.9935
1.9935
1.9935
1.9935
1.9935
1.9935
1.9935
1.9935
1.9935
1.9935
1.9935
1.9935
1.99349
1.99349
1.99349
1.99349
1.99349
1.9935
1.99346
1.81495
1.81499
1.81498
1.81497
1.81496
1.81495
1.81494
1.81493
1.81492
1.81491
1.8149
1.8149
1.81489
1.81489
1.81488
1.81488
1.81488
1.81487
1.81487
1.81487
1.81487
1.81486
1.81486
1.81486
1.81486
1.81486
1.81485
1.81485
1.81485
1.81485
1.81485
1.81484
1.81484
1.81484
1.81484
1.81483
1.81483
1.81483
1.81483
1.81482
1.81482
1.81482
1.81482
1.81481
1.81481
1.81481
1.81481
1.81481
1.81481
1.81481
1.81481
1.81481
1.8148
1.8148
1.8148
1.8148
1.8148
1.8148
1.8148
1.8148
1.8148
1.8148
1.8148
1.8148
1.8148
1.8148
1.8148
1.8148
1.8148
1.8148
1.8148
1.8148
1.81481
1.81481
1.81481
1.81481
1.81481
1.81481
1.81481
1.81482
1.81482
1.81482
1.81482
1.81482
1.81482
1.81482
1.81482
1.81482
1.81482
1.81482
1.81482
1.81482
1.81482
1.81482
1.81482
1.81482
1.81482
1.81482
1.81482
1.81482
1.81482
1.81482
1.81482
1.81482
1.81482
1.81482
1.81482
1.81482
1.81482
1.81482
1.81481
1.81481
1.81481
1.81481
1.81481
1.81481
1.81481
1.81481
1.81481
1.81478
1.66081
1.66085
1.66084
1.66083
1.66082
1.66081
1.6608
1.66079
1.66078
1.66077
1.66076
1.66075
1.66075
1.66074
1.66074
1.66073
1.66073
1.66073
1.66073
1.66072
1.66072
1.66072
1.66072
1.66072
1.66072
1.66071
1.66071
1.66071
1.66071
1.66071
1.6607
1.6607
1.6607
1.6607
1.66069
1.66069
1.66069
1.66069
1.66069
1.66068
1.66068
1.66068
1.66068
1.66067
1.66067
1.66067
1.66067
1.66067
1.66067
1.66067
1.66067
1.66067
1.66066
1.66066
1.66066
1.66066
1.66066
1.66066
1.66066
1.66066
1.66066
1.66066
1.66066
1.66066
1.66066
1.66066
1.66066
1.66067
1.66067
1.66067
1.66067
1.66067
1.66067
1.66067
1.66068
1.66068
1.66068
1.66068
1.66068
1.66068
1.66068
1.66068
1.66068
1.66069
1.66069
1.66069
1.66069
1.66069
1.66069
1.66069
1.66069
1.66069
1.66069
1.66069
1.66069
1.66069
1.66069
1.66069
1.66069
1.66068
1.66068
1.66068
1.66068
1.66068
1.66068
1.66068
1.66068
1.66068
1.66067
1.66067
1.66067
1.66067
1.66067
1.66067
1.66067
1.66067
1.66067
1.66066
1.66067
1.66063
1.52667
1.52671
1.5267
1.52669
1.52668
1.52667
1.52666
1.52665
1.52664
1.52663
1.52662
1.52661
1.52661
1.5266
1.52659
1.52659
1.52659
1.52659
1.52658
1.52658
1.52658
1.52658
1.52658
1.52657
1.52657
1.52657
1.52657
1.52657
1.52656
1.52656
1.52656
1.52656
1.52656
1.52656
1.52655
1.52655
1.52655
1.52655
1.52654
1.52654
1.52654
1.52654
1.52654
1.52653
1.52653
1.52653
1.52653
1.52653
1.52653
1.52653
1.52653
1.52652
1.52652
1.52652
1.52652
1.52652
1.52652
1.52652
1.52652
1.52652
1.52653
1.52653
1.52653
1.52653
1.52653
1.52653
1.52653
1.52653
1.52654
1.52654
1.52654
1.52654
1.52654
1.52654
1.52654
1.52655
1.52655
1.52655
1.52655
1.52655
1.52655
1.52655
1.52655
1.52655
1.52655
1.52655
1.52656
1.52656
1.52656
1.52656
1.52656
1.52656
1.52656
1.52656
1.52656
1.52655
1.52655
1.52655
1.52655
1.52655
1.52655
1.52654
1.52654
1.52654
1.52654
1.52654
1.52654
1.52654
1.52653
1.52653
1.52653
1.52653
1.52653
1.52653
1.52653
1.52652
1.52652
1.52652
1.52653
1.52649
1.409
1.40903
1.40903
1.40902
1.409
1.40899
1.40898
1.40897
1.40896
1.40896
1.40895
1.40894
1.40893
1.40893
1.40892
1.40892
1.40891
1.40891
1.40891
1.40891
1.4089
1.4089
1.4089
1.4089
1.4089
1.4089
1.40889
1.40889
1.40889
1.40889
1.40889
1.40889
1.40888
1.40888
1.40888
1.40888
1.40888
1.40888
1.40887
1.40887
1.40887
1.40887
1.40887
1.40886
1.40886
1.40886
1.40886
1.40886
1.40886
1.40886
1.40886
1.40885
1.40885
1.40885
1.40885
1.40886
1.40886
1.40886
1.40886
1.40886
1.40886
1.40886
1.40887
1.40887
1.40887
1.40887
1.40887
1.40887
1.40888
1.40888
1.40888
1.40888
1.40888
1.40888
1.40888
1.40889
1.40889
1.40889
1.40889
1.40889
1.40889
1.40889
1.40889
1.40889
1.40889
1.40889
1.40889
1.4089
1.4089
1.4089
1.4089
1.4089
1.4089
1.40889
1.40889
1.40889
1.40889
1.40889
1.40888
1.40888
1.40888
1.40888
1.40887
1.40887
1.40887
1.40887
1.40887
1.40887
1.40886
1.40886
1.40886
1.40886
1.40886
1.40886
1.40886
1.40885
1.40885
1.40885
1.40886
1.40882
1.30502
1.30505
1.30505
1.30504
1.30502
1.30501
1.305
1.30499
1.30498
1.30498
1.30497
1.30496
1.30495
1.30495
1.30494
1.30494
1.30493
1.30493
1.30493
1.30492
1.30492
1.30492
1.30492
1.30492
1.30492
1.30491
1.30491
1.30491
1.30491
1.30491
1.30491
1.30491
1.3049
1.3049
1.3049
1.3049
1.3049
1.3049
1.30489
1.30489
1.30489
1.30489
1.30489
1.30489
1.30488
1.30488
1.30488
1.30488
1.30488
1.30488
1.30488
1.30488
1.30488
1.30488
1.30488
1.30488
1.30488
1.30489
1.30489
1.30489
1.30489
1.3049
1.3049
1.3049
1.3049
1.3049
1.30491
1.30491
1.30491
1.30491
1.30491
1.30491
1.30492
1.30492
1.30492
1.30492
1.30492
1.30492
1.30492
1.30492
1.30493
1.30493
1.30493
1.30493
1.30493
1.30493
1.30493
1.30493
1.30493
1.30493
1.30493
1.30493
1.30493
1.30493
1.30492
1.30492
1.30492
1.30492
1.30491
1.30491
1.30491
1.3049
1.3049
1.3049
1.30489
1.30489
1.30489
1.30489
1.30489
1.30489
1.30488
1.30488
1.30488
1.30488
1.30488
1.30488
1.30487
1.30487
1.30488
1.30484
1.21252
1.21255
1.21255
1.21253
1.21252
1.21251
1.2125
1.21249
1.21249
1.21248
1.21247
1.21246
1.21245
1.21245
1.21244
1.21244
1.21243
1.21243
1.21243
1.21243
1.21242
1.21242
1.21242
1.21242
1.21242
1.21242
1.21241
1.21241
1.21241
1.21241
1.21241
1.21241
1.21241
1.21241
1.2124
1.2124
1.2124
1.2124
1.2124
1.2124
1.21239
1.21239
1.21239
1.21239
1.21239
1.21239
1.21239
1.21239
1.21238
1.21238
1.21238
1.21238
1.21239
1.21239
1.21239
1.21239
1.2124
1.2124
1.2124
1.21241
1.21241
1.21241
1.21242
1.21242
1.21242
1.21242
1.21242
1.21243
1.21243
1.21243
1.21243
1.21243
1.21244
1.21244
1.21244
1.21244
1.21244
1.21244
1.21244
1.21244
1.21244
1.21245
1.21245
1.21245
1.21245
1.21245
1.21245
1.21245
1.21245
1.21245
1.21245
1.21245
1.21244
1.21244
1.21244
1.21244
1.21243
1.21243
1.21242
1.21242
1.21242
1.21241
1.21241
1.21241
1.2124
1.2124
1.2124
1.2124
1.21239
1.21239
1.21239
1.21239
1.21239
1.21238
1.21238
1.21238
1.21238
1.21238
1.21238
1.21235
1.12972
1.12975
1.12975
1.12974
1.12973
1.12972
1.12971
1.1297
1.12969
1.12969
1.12968
1.12967
1.12966
1.12966
1.12965
1.12965
1.12964
1.12964
1.12964
1.12963
1.12963
1.12963
1.12963
1.12963
1.12963
1.12963
1.12962
1.12962
1.12962
1.12962
1.12962
1.12962
1.12962
1.12962
1.12961
1.12961
1.12961
1.12961
1.12961
1.12961
1.12961
1.1296
1.1296
1.1296
1.1296
1.1296
1.1296
1.1296
1.1296
1.1296
1.1296
1.1296
1.1296
1.12961
1.12961
1.12962
1.12962
1.12963
1.12963
1.12963
1.12964
1.12964
1.12964
1.12965
1.12965
1.12965
1.12965
1.12966
1.12966
1.12966
1.12966
1.12966
1.12966
1.12967
1.12967
1.12967
1.12967
1.12967
1.12967
1.12967
1.12967
1.12967
1.12968
1.12968
1.12968
1.12968
1.12968
1.12968
1.12968
1.12968
1.12968
1.12967
1.12967
1.12967
1.12966
1.12966
1.12965
1.12965
1.12964
1.12964
1.12963
1.12963
1.12962
1.12962
1.12962
1.12961
1.12961
1.12961
1.12961
1.12961
1.1296
1.1296
1.1296
1.1296
1.1296
1.12959
1.12959
1.12959
1.1296
1.12956
1.0552
1.05523
1.05522
1.05521
1.0552
1.05519
1.05519
1.05518
1.05517
1.05516
1.05515
1.05515
1.05514
1.05513
1.05513
1.05512
1.05512
1.05512
1.05511
1.05511
1.05511
1.05511
1.05511
1.05511
1.0551
1.0551
1.0551
1.0551
1.0551
1.0551
1.0551
1.0551
1.0551
1.05509
1.05509
1.05509
1.05509
1.05509
1.05509
1.05509
1.05509
1.05509
1.05508
1.05508
1.05508
1.05508
1.05508
1.05508
1.05508
1.05508
1.05508
1.05509
1.05509
1.0551
1.0551
1.05511
1.05512
1.05512
1.05513
1.05513
1.05513
1.05514
1.05514
1.05514
1.05515
1.05515
1.05515
1.05515
1.05516
1.05516
1.05516
1.05516
1.05516
1.05517
1.05517
1.05517
1.05517
1.05517
1.05517
1.05517
1.05517
1.05517
1.05518
1.05518
1.05518
1.05518
1.05518
1.05518
1.05518
1.05518
1.05517
1.05517
1.05516
1.05516
1.05515
1.05515
1.05514
1.05513
1.05513
1.05512
1.05512
1.05511
1.05511
1.0551
1.0551
1.0551
1.0551
1.05509
1.05509
1.05509
1.05509
1.05508
1.05508
1.05508
1.05508
1.05508
1.05508
1.05507
1.05508
1.05505
0.987765
0.98779
0.987787
0.987778
0.987768
0.987759
0.987751
0.987744
0.987737
0.987729
0.987721
0.987714
0.987707
0.987701
0.987696
0.987692
0.987689
0.987685
0.987683
0.98768
0.987678
0.987677
0.987675
0.987674
0.987672
0.987671
0.98767
0.987669
0.987668
0.987667
0.987667
0.987666
0.987665
0.987664
0.987663
0.987662
0.987661
0.98766
0.987659
0.987658
0.987657
0.987656
0.987655
0.987654
0.987653
0.987652
0.987651
0.987651
0.987651
0.987653
0.987658
0.987665
0.987674
0.987682
0.987691
0.987698
0.987705
0.987711
0.987716
0.987721
0.987725
0.987729
0.987733
0.987736
0.987739
0.987742
0.987745
0.987748
0.98775
0.987752
0.987754
0.987756
0.987757
0.987759
0.98776
0.987762
0.987763
0.987764
0.987765
0.987766
0.987767
0.987767
0.987768
0.987769
0.987769
0.98777
0.98777
0.987771
0.987769
0.987767
0.987762
0.987756
0.987749
0.987741
0.987734
0.987726
0.987719
0.987712
0.987705
0.987699
0.987694
0.987689
0.987684
0.98768
0.987676
0.987673
0.98767
0.987667
0.987665
0.987662
0.98766
0.987658
0.987656
0.987654
0.987652
0.98765
0.987648
0.987646
0.98765
0.987623
0.92645
0.926473
0.926471
0.926462
0.926453
0.926445
0.926437
0.92643
0.926423
0.926416
0.926408
0.926401
0.926395
0.926389
0.926385
0.926381
0.926377
0.926374
0.926371
0.926369
0.926367
0.926365
0.926364
0.926362
0.926361
0.92636
0.926359
0.926358
0.926358
0.926357
0.926356
0.926355
0.926355
0.926354
0.926353
0.926352
0.926352
0.926351
0.92635
0.926349
0.926348
0.926347
0.926346
0.926346
0.926345
0.926344
0.926343
0.926344
0.926345
0.926349
0.926358
0.926369
0.926381
0.926392
0.926402
0.92641
0.926418
0.926424
0.92643
0.926435
0.92644
0.926444
0.926448
0.926451
0.926455
0.926458
0.926461
0.926463
0.926465
0.926468
0.92647
0.926471
0.926473
0.926475
0.926476
0.926477
0.926479
0.92648
0.926481
0.926482
0.926483
0.926483
0.926484
0.926485
0.926485
0.926486
0.926486
0.926486
0.926484
0.926479
0.926471
0.926463
0.926453
0.926443
0.926434
0.926425
0.926417
0.926409
0.926402
0.926396
0.92639
0.926384
0.926379
0.926375
0.926371
0.926368
0.926365
0.926362
0.92636
0.926357
0.926355
0.926353
0.92635
0.926348
0.926346
0.926344
0.926342
0.92634
0.926343
0.926318
0.87045
0.870471
0.870469
0.87046
0.870452
0.870444
0.870437
0.87043
0.870424
0.870417
0.87041
0.870403
0.870397
0.870392
0.870387
0.870383
0.87038
0.870377
0.870374
0.870372
0.87037
0.870369
0.870367
0.870366
0.870365
0.870364
0.870363
0.870362
0.870362
0.870361
0.87036
0.87036
0.870359
0.870359
0.870358
0.870357
0.870357
0.870356
0.870356
0.870355
0.870354
0.870353
0.870353
0.870352
0.870351
0.870351
0.87035
0.870352
0.870354
0.870363
0.870378
0.870394
0.870409
0.870422
0.870432
0.870441
0.870449
0.870456
0.870462
0.870467
0.870472
0.870477
0.870481
0.870484
0.870487
0.870491
0.870493
0.870496
0.870498
0.870501
0.870503
0.870504
0.870506
0.870508
0.870509
0.87051
0.870512
0.870513
0.870514
0.870515
0.870516
0.870516
0.870517
0.870518
0.870518
0.870519
0.87052
0.870518
0.870513
0.870505
0.870494
0.870482
0.87047
0.870459
0.870448
0.870438
0.870429
0.87042
0.870413
0.870406
0.8704
0.870394
0.870389
0.870385
0.870381
0.870377
0.870374
0.870372
0.87037
0.870367
0.870365
0.870362
0.87036
0.870357
0.870355
0.870353
0.870351
0.870348
0.870352
0.870328
0.819091
0.81911
0.819107
0.8191
0.819091
0.819084
0.819078
0.819071
0.819065
0.819059
0.819052
0.819046
0.81904
0.819035
0.819031
0.819027
0.819024
0.819021
0.819019
0.819017
0.819015
0.819013
0.819012
0.819011
0.81901
0.819009
0.819008
0.819007
0.819007
0.819006
0.819006
0.819005
0.819005
0.819005
0.819004
0.819004
0.819003
0.819003
0.819002
0.819002
0.819001
0.819001
0.819
0.819
0.818999
0.818999
0.818998
0.819002
0.819007
0.819024
0.819047
0.819068
0.819085
0.819098
0.819109
0.819118
0.819126
0.819133
0.819139
0.819144
0.819149
0.819153
0.819157
0.819161
0.819164
0.819167
0.81917
0.819173
0.819175
0.819177
0.819179
0.819181
0.819183
0.819185
0.819186
0.819187
0.819189
0.81919
0.819191
0.819192
0.819193
0.819193
0.819194
0.819195
0.819195
0.819196
0.819198
0.819193
0.819184
0.819171
0.819156
0.819141
0.819126
0.819112
0.8191
0.81909
0.81908
0.819071
0.819064
0.819057
0.81905
0.819045
0.81904
0.819035
0.819031
0.819028
0.819026
0.819023
0.819021
0.819018
0.819016
0.819013
0.81901
0.819008
0.819005
0.819003
0.819001
0.818998
0.819001
0.81898
0.771806
0.771823
0.77182
0.771813
0.771806
0.771799
0.771793
0.771787
0.771781
0.771775
0.771769
0.771763
0.771758
0.771753
0.771749
0.771746
0.771743
0.77174
0.771738
0.771736
0.771734
0.771733
0.771731
0.77173
0.771729
0.771729
0.771728
0.771727
0.771727
0.771726
0.771726
0.771726
0.771726
0.771725
0.771725
0.771725
0.771724
0.771724
0.771724
0.771723
0.771723
0.771723
0.771722
0.771722
0.771721
0.771722
0.771721
0.771729
0.771738
0.771768
0.771801
0.771825
0.771842
0.771855
0.771866
0.771874
0.771882
0.771888
0.771894
0.771899
0.771904
0.771908
0.771912
0.771916
0.771919
0.771922
0.771925
0.771927
0.77193
0.771932
0.771934
0.771936
0.771937
0.771939
0.771941
0.771942
0.771943
0.771944
0.771945
0.771946
0.771947
0.771948
0.771949
0.77195
0.77195
0.77195
0.771954
0.771942
0.771928
0.771909
0.771889
0.77187
0.771853
0.771838
0.771826
0.771815
0.771805
0.771796
0.771788
0.771781
0.771775
0.77177
0.771765
0.77176
0.771756
0.771754
0.771752
0.77175
0.771747
0.771744
0.771741
0.771738
0.771736
0.771733
0.77173
0.771728
0.771726
0.771723
0.771725
0.771706
0.728117
0.728132
0.728129
0.728122
0.728115
0.728109
0.728103
0.728098
0.728092
0.728087
0.728081
0.728075
0.728071
0.728066
0.728063
0.72806
0.728057
0.728054
0.728052
0.72805
0.728049
0.728048
0.728047
0.728046
0.728045
0.728044
0.728044
0.728043
0.728043
0.728043
0.728042
0.728042
0.728042
0.728042
0.728042
0.728042
0.728042
0.728041
0.728041
0.728041