/*--------------------------------*- C++ -*----------------------------------*\
  =========                 |
  \\      /  F ield         | OpenFOAM: The Open Source CFD Toolbox
   \\    /   O peration     | Website:  https://openfoam.org
    \\  /    A nd           | Version:  7
     \\/     M anipulation  |
\*---------------------------------------------------------------------------*/
FoamFile
{
    version     2.0;
    format      ascii;
    class       surfaceScalarField;
    location    "3500";
    object      phi;
}
// * * * * * * * * * * * * * * * * * * * * * * * * * * * * * * * * * * * * * //

dimensions      [0 3 -1 0 0 0 0];

internalField   nonuniform List<scalar> 
47680
(
2.00335e-06
-1.74842e-11
2.00334e-06
7.06847e-12
2.00334e-06
6.8316e-12
2.00333e-06
7.72743e-12
2.00332e-06
9.9359e-12
2.00331e-06
1.07846e-11
2.0033e-06
1.10202e-11
2.00329e-06
1.05869e-11
2.00328e-06
9.76274e-12
2.00327e-06
8.7256e-12
2.00326e-06
7.57063e-12
2.00326e-06
6.35903e-12
2.00325e-06
5.13569e-12
2.00325e-06
3.94022e-12
2.00324e-06
2.80614e-12
2.00324e-06
1.76135e-12
2.00324e-06
8.2485e-13
2.00324e-06
-1.33618e-16
2.00324e-06
-7.24136e-13
2.00324e-06
-1.36485e-12
2.00324e-06
-1.93752e-12
2.00325e-06
-2.44932e-12
2.00325e-06
-2.89973e-12
2.00325e-06
-3.2875e-12
2.00326e-06
-3.61497e-12
2.00326e-06
-3.88953e-12
2.00327e-06
-4.12094e-12
2.00327e-06
-4.31817e-12
2.00327e-06
-4.48828e-12
2.00328e-06
-4.63656e-12
2.00328e-06
-4.76765e-12
2.00329e-06
-4.88509e-12
2.00329e-06
-4.99005e-12
2.0033e-06
-5.08305e-12
2.0033e-06
-5.15788e-12
2.00331e-06
-5.21383e-12
2.00331e-06
-5.23615e-12
2.00332e-06
-5.23082e-12
2.00332e-06
-5.16487e-12
2.00333e-06
-5.04669e-12
2.00333e-06
-4.8235e-12
2.00334e-06
-4.40659e-12
2.00334e-06
-3.98134e-12
2.00335e-06
-2.74885e-12
2.00335e-06
-2.26372e-12
2.00335e-06
-1.94813e-13
2.00335e-06
1.76842e-12
2.00334e-06
1.78567e-12
2.00334e-06
1.51468e-12
2.00334e-06
4.45897e-13
2.00334e-06
5.62467e-14
2.00334e-06
-5.22376e-13
2.00334e-06
-1.03322e-12
2.00335e-06
-1.42699e-12
2.00335e-06
-1.71301e-12
2.00335e-06
-1.86102e-12
2.00335e-06
-1.86779e-12
2.00335e-06
-1.73456e-12
2.00335e-06
-1.47373e-12
2.00335e-06
-1.1076e-12
2.00336e-06
-6.65126e-13
2.00336e-06
-1.77813e-13
2.00336e-06
3.22976e-13
2.00335e-06
8.09775e-13
2.00335e-06
1.26028e-12
2.00335e-06
1.65772e-12
2.00335e-06
1.99205e-12
2.00335e-06
2.25823e-12
2.00335e-06
2.4563e-12
2.00334e-06
2.58965e-12
2.00334e-06
2.66417e-12
2.00334e-06
2.68693e-12
2.00333e-06
2.66498e-12
2.00333e-06
2.60483e-12
2.00333e-06
2.51211e-12
2.00333e-06
2.39193e-12
2.00332e-06
2.24793e-12
2.00332e-06
2.085e-12
2.00332e-06
1.90518e-12
2.00332e-06
1.71359e-12
2.00332e-06
1.5078e-12
2.00332e-06
1.29788e-12
2.00332e-06
1.06646e-12
2.00331e-06
8.37254e-13
2.00331e-06
5.68431e-13
2.00331e-06
2.97099e-13
2.00331e-06
1.45882e-14
2.00331e-06
-7.51207e-14
2.00331e-06
-6.53736e-14
2.00331e-06
-3.26009e-14
2.00331e-06
3.81228e-14
2.00331e-06
-6.01435e-14
2.00331e-06
-1.76394e-13
2.00331e-06
-3.06939e-13
2.00331e-06
-4.55812e-13
2.00332e-06
-6.1175e-13
2.00332e-06
-7.97171e-13
2.00332e-06
-9.83326e-13
2.00332e-06
-1.18719e-12
2.00332e-06
-1.34066e-12
2.00332e-06
-1.37245e-12
2.00332e-06
-1.40431e-12
2.00332e-06
-7.52722e-13
2.00332e-06
-6.65622e-13
2.00332e-06
6.39705e-13
2.00332e-06
2.55848e-12
2.00332e-06
2.41554e-12
2.00332e-06
1.88688e-12
2.00332e-06
1.03069e-12
2.00332e-06
6.84208e-14
2.00332e-06
-7.54289e-13
2.00332e-06
-1.44784e-12
2.00332e-06
-1.8726e-12
2.00332e-06
-2.18608e-12
2.00332e-06
-2.04559e-12
2.00333e-06
-2.08207e-12
2.00333e-06
-5.43982e-13
2.00333e-06
-2.30163e-12
2.00332e-06
5.8976e-12
-1.18442e-11
6.18994e-06
-5.8709e-11
6.18994e-06
1.60028e-11
6.18992e-06
2.66764e-11
6.18989e-06
3.17172e-11
6.18986e-06
4.01761e-11
6.18983e-06
4.37717e-11
6.18979e-06
4.45088e-11
6.18976e-06
4.26717e-11
6.18973e-06
3.92739e-11
6.18971e-06
3.50423e-11
6.18968e-06
3.03636e-11
6.18966e-06
2.54784e-11
6.18965e-06
2.0562e-11
6.18964e-06
1.57662e-11
6.18963e-06
1.12185e-11
6.18962e-06
7.02127e-12
6.18962e-06
3.24298e-12
6.18962e-06
-1.00624e-13
6.18962e-06
-3.03977e-12
6.18963e-06
-5.63112e-12
6.18963e-06
-7.93094e-12
6.18964e-06
-9.97039e-12
6.18965e-06
-1.17575e-11
6.18966e-06
-1.32962e-11
6.18967e-06
-1.4601e-11
6.18968e-06
-1.57006e-11
6.1897e-06
-1.66305e-11
6.18971e-06
-1.74231e-11
6.18972e-06
-1.81048e-11
6.18974e-06
-1.86959e-11
6.18975e-06
-1.9213e-11
6.18977e-06
-1.96718e-11
6.18978e-06
-2.00769e-11
6.1898e-06
-2.04327e-11
6.18981e-06
-2.07222e-11
6.18983e-06
-2.09398e-11
6.18984e-06
-2.10379e-11
6.18986e-06
-2.10308e-11
6.18987e-06
-2.07966e-11
6.18989e-06
-2.03794e-11
6.1899e-06
-1.95184e-11
6.18992e-06
-1.80745e-11
6.18993e-06
-1.62895e-11
6.18994e-06
-1.2093e-11
6.18995e-06
-9.76309e-12
6.18995e-06
-2.46278e-12
6.18995e-06
4.75939e-12
6.18994e-06
5.73834e-12
6.18994e-06
4.88739e-12
6.18994e-06
1.43862e-12
6.18994e-06
-2.05986e-13
6.18994e-06
-2.23326e-12
6.18994e-06
-4.10726e-12
6.18995e-06
-5.56129e-12
6.18995e-06
-6.59503e-12
6.18996e-06
-7.09904e-12
6.18996e-06
-7.04669e-12
6.18997e-06
-6.44457e-12
6.18997e-06
-5.34417e-12
6.18997e-06
-3.83701e-12
6.18998e-06
-2.04016e-12
6.18998e-06
-8.05545e-14
6.18997e-06
1.91882e-12
6.18997e-06
3.85038e-12
6.18997e-06
5.62673e-12
6.18996e-06
7.18495e-12
6.18995e-06
8.48756e-12
6.18995e-06
9.51794e-12
6.18994e-06
1.02766e-11
6.18993e-06
1.07783e-11
6.18992e-06
1.10464e-11
6.18991e-06
1.11091e-11
6.18991e-06
1.09946e-11
6.1899e-06
1.07298e-11
6.18989e-06
1.03384e-11
6.18988e-06
9.84064e-12
6.18988e-06
9.25301e-12
6.18987e-06
8.5936e-12
6.18986e-06
7.87256e-12
6.18986e-06
7.10572e-12
6.18985e-06
6.29224e-12
6.18985e-06
5.45564e-12
6.18985e-06
4.55407e-12
6.18984e-06
3.64397e-12
6.18984e-06
2.61206e-12
6.18984e-06
1.54697e-12
6.18984e-06
4.70229e-13
6.18984e-06
2.97516e-14
6.18984e-06
-1.77002e-14
6.18984e-06
7.40995e-14
6.18984e-06
2.7997e-13
6.18984e-06
-4.06085e-14
6.18984e-06
-4.846e-13
6.18984e-06
-9.96392e-13
6.18984e-06
-1.58984e-12
6.18984e-06
-2.23756e-12
6.18984e-06
-3.00644e-12
6.18985e-06
-3.80585e-12
6.18985e-06
-4.69142e-12
6.18985e-06
-5.37657e-12
6.18986e-06
-5.72101e-12
6.18986e-06
-5.83733e-12
6.18987e-06
-3.86488e-12
6.18987e-06
-3.31421e-12
6.18987e-06
1.22564e-12
6.18986e-06
7.89813e-12
6.18986e-06
8.16765e-12
6.18985e-06
6.42725e-12
6.18985e-06
3.43178e-12
6.18985e-06
-2.64725e-14
6.18985e-06
-3.11968e-12
6.18986e-06
-5.65612e-12
6.18986e-06
-7.40995e-12
6.18987e-06
-8.37571e-12
6.18988e-06
-8.37541e-12
6.18988e-06
-7.59262e-12
6.18988e-06
-3.83828e-12
6.18989e-06
-6.60129e-12
6.18988e-06
1.71357e-11
-3.74151e-11
1.06596e-05
-1.15079e-10
1.06596e-05
2.05424e-11
1.06595e-05
5.7372e-11
1.06595e-05
7.32797e-11
1.06594e-05
9.1788e-11
1.06594e-05
1.00028e-10
1.06593e-05
1.01307e-10
1.06593e-05
9.69006e-11
1.06592e-05
8.90206e-11
1.06592e-05
7.92991e-11
1.06591e-05
6.86196e-11
1.06591e-05
5.75157e-11
1.06591e-05
4.63723e-11
1.06591e-05
3.55191e-11
1.0659e-05
2.52292e-11
1.0659e-05
1.5718e-11
1.0659e-05
7.12983e-12
1.0659e-05
-4.92819e-13
1.0659e-05
-7.20026e-12
1.0659e-05
-1.30964e-11
1.06591e-05
-1.82983e-11
1.06591e-05
-2.28835e-11
1.06591e-05
-2.68873e-11
1.06591e-05
-3.03351e-11
1.06591e-05
-3.32682e-11
1.06591e-05
-3.57495e-11
1.06592e-05
-3.78536e-11
1.06592e-05
-3.96481e-11
1.06592e-05
-4.11875e-11
1.06592e-05
-4.25161e-11
1.06593e-05
-4.3669e-11
1.06593e-05
-4.4681e-11
1.06593e-05
-4.55696e-11
1.06593e-05
-4.63446e-11
1.06594e-05
-4.69807e-11
1.06594e-05
-4.7463e-11
1.06594e-05
-4.77022e-11
1.06594e-05
-4.77105e-11
1.06595e-05
-4.72417e-11
1.06595e-05
-4.63786e-11
1.06595e-05
-4.4534e-11
1.06595e-05
-4.1568e-11
1.06596e-05
-3.75675e-11
1.06596e-05
-2.91016e-11
1.06596e-05
-2.34955e-11
1.06596e-05
-8.50062e-12
1.06596e-05
6.76158e-12
1.06596e-05
1.0204e-11
1.06596e-05
8.92186e-12
1.06596e-05
2.40035e-12
1.06596e-05
-1.23056e-12
1.06596e-05
-5.37422e-12
1.06596e-05
-9.26628e-12
1.06596e-05
-1.2314e-11
1.06596e-05
-1.44347e-11
1.06596e-05
-1.53944e-11
1.06596e-05
-1.51172e-11
1.06596e-05
-1.36169e-11
1.06596e-05
-1.10136e-11
1.06596e-05
-7.52048e-12
1.06596e-05
-3.40452e-12
1.06596e-05
1.04493e-12
1.06596e-05
5.55369e-12
1.06596e-05
9.88351e-12
1.06596e-05
1.38442e-11
1.06596e-05
1.73004e-11
1.06596e-05
2.01721e-11
1.06596e-05
2.24275e-11
1.06596e-05
2.40716e-11
1.06596e-05
2.51383e-11
1.06595e-05
2.56813e-11
1.06595e-05
2.57645e-11
1.06595e-05
2.54519e-11
1.06595e-05
2.48048e-11
1.06595e-05
2.38785e-11
1.06595e-05
2.27207e-11
1.06595e-05
2.13701e-11
1.06595e-05
1.98653e-11
1.06594e-05
1.82322e-11
1.06594e-05
1.65024e-11
1.06594e-05
1.468e-11
1.06594e-05
1.28029e-11
1.06594e-05
1.08041e-11
1.06594e-05
8.7704e-12
1.06594e-05
6.50858e-12
1.06594e-05
4.15178e-12
1.06594e-05
1.79774e-12
1.06594e-05
6.82326e-13
1.06594e-05
4.27934e-13
1.06594e-05
5.46159e-13
1.06594e-05
8.94221e-13
1.06594e-05
2.61989e-13
1.06594e-05
-6.94841e-13
1.06594e-05
-1.83323e-12
1.06594e-05
-3.17393e-12
1.06594e-05
-4.67957e-12
1.06594e-05
-6.47345e-12
1.06594e-05
-8.38298e-12
1.06594e-05
-1.0505e-11
1.06594e-05
-1.22165e-11
1.06594e-05
-1.33132e-11
1.06594e-05
-1.36962e-11
1.06594e-05
-1.01599e-11
1.06594e-05
-8.78502e-12
1.06594e-05
3.37187e-13
1.06594e-05
1.38474e-11
1.06594e-05
1.55451e-11
1.06594e-05
1.23877e-11
1.06594e-05
6.38599e-12
1.06594e-05
-7.24645e-13
1.06594e-05
-7.28039e-12
1.06594e-05
-1.26317e-11
1.06594e-05
-1.65221e-11
1.06595e-05
-1.84374e-11
1.06595e-05
-1.88973e-11
1.06595e-05
-1.64726e-11
1.06595e-05
-1.03579e-11
1.06595e-05
-1.23172e-11
1.06595e-05
3.02232e-11
-6.94419e-11
1.54083e-05
-1.79366e-10
1.54083e-05
2.01181e-11
1.54082e-05
9.69073e-11
1.54082e-05
1.33364e-10
1.54081e-05
1.65641e-10
1.5408e-05
1.80085e-10
1.54079e-05
1.81624e-10
1.54078e-05
1.73249e-10
1.54078e-05
1.58842e-10
1.54077e-05
1.41251e-10
1.54077e-05
1.22047e-10
1.54076e-05
1.02163e-10
1.54076e-05
8.22665e-11
1.54075e-05
6.29192e-11
1.54075e-05
4.45783e-11
1.54075e-05
2.75982e-11
1.54075e-05
1.22206e-11
1.54075e-05
-1.46811e-12
1.54075e-05
-1.35178e-11
1.54075e-05
-2.40758e-11
1.54075e-05
-3.33363e-11
1.54076e-05
-4.14518e-11
1.54076e-05
-4.85167e-11
1.54076e-05
-5.46042e-11
1.54076e-05
-5.97995e-11
1.54077e-05
-6.42127e-11
1.54077e-05
-6.79652e-11
1.54077e-05
-7.11677e-11
1.54078e-05
-7.39091e-11
1.54078e-05
-7.62622e-11
1.54078e-05
-7.82905e-11
1.54079e-05
-8.0052e-11
1.54079e-05
-8.15872e-11
1.54079e-05
-8.29205e-11
1.5408e-05
-8.40244e-11
1.5408e-05
-8.4876e-11
1.5408e-05
-8.53355e-11
1.54081e-05
-8.53982e-11
1.54081e-05
-8.46662e-11
1.54082e-05
-8.32418e-11
1.54082e-05
-8.01527e-11
1.54082e-05
-7.52438e-11
1.54083e-05
-6.83389e-11
1.54083e-05
-5.45815e-11
1.54083e-05
-4.44199e-11
1.54083e-05
-1.98218e-11
1.54083e-05
5.74247e-12
1.54083e-05
1.33562e-11
1.54083e-05
1.23018e-11
1.54083e-05
2.54285e-12
1.54083e-05
-3.50001e-12
1.54083e-05
-1.02216e-11
1.54083e-05
-1.65563e-11
1.54083e-05
-2.15548e-11
1.54083e-05
-2.49477e-11
1.54084e-05
-2.6327e-11
1.54084e-05
-2.55344e-11
1.54084e-05
-2.25972e-11
1.54084e-05
-1.77395e-11
1.54084e-05
-1.13495e-11
1.54084e-05
-3.9113e-12
1.54084e-05
4.05783e-12
1.54084e-05
1.20744e-11
1.54084e-05
1.97241e-11
1.54084e-05
2.66797e-11
1.54083e-05
3.27134e-11
1.54083e-05
3.76955e-11
1.54083e-05
4.15766e-11
1.54083e-05
4.43735e-11
1.54083e-05
4.61492e-11
1.54082e-05
4.69998e-11
1.54082e-05
4.70386e-11
1.54082e-05
4.63808e-11
1.54082e-05
4.51382e-11
1.54082e-05
4.34113e-11
1.54081e-05
4.12877e-11
1.54081e-05
3.88395e-11
1.54081e-05
3.61328e-11
1.54081e-05
3.32162e-11
1.54081e-05
3.01401e-11
1.54081e-05
2.69167e-11
1.54081e-05
2.36003e-11
1.5408e-05
2.00964e-11
1.5408e-05
1.65211e-11
1.5408e-05
1.25933e-11
1.5408e-05
8.48811e-12
1.5408e-05
4.40638e-12
1.5408e-05
2.25958e-12
1.5408e-05
1.57931e-12
1.5408e-05
1.62439e-12
1.5408e-05
2.07056e-12
1.5408e-05
1.04651e-12
1.5408e-05
-5.83966e-13
1.5408e-05
-2.58642e-12
1.5408e-05
-4.98602e-12
1.5408e-05
-7.74706e-12
1.5408e-05
-1.10529e-11
1.5408e-05
-1.46396e-11
1.5408e-05
-1.86244e-11
1.54081e-05
-2.19798e-11
1.54081e-05
-2.4386e-11
1.54081e-05
-2.5403e-11
1.54081e-05
-2.03604e-11
1.54081e-05
-1.79597e-11
1.54081e-05
-3.4009e-12
1.54081e-05
1.83962e-11
1.54081e-05
2.26541e-11
1.54081e-05
1.83491e-11
1.54081e-05
8.91826e-12
1.54081e-05
-2.58969e-12
1.54081e-05
-1.34638e-11
1.54081e-05
-2.2395e-11
1.54081e-05
-2.90261e-11
1.54081e-05
-3.2216e-11
1.54081e-05
-3.32634e-11
1.54081e-05
-2.87977e-11
1.54082e-05
-1.99196e-11
1.54082e-05
-1.96972e-11
1.54082e-05
4.34105e-11
-1.03448e-10
2.03803e-05
-2.44685e-10
2.03803e-05
1.81625e-11
2.03803e-05
1.44909e-10
2.03802e-05
2.11458e-10
2.03801e-05
2.60814e-10
2.038e-05
2.82405e-10
2.03799e-05
2.83595e-10
2.03798e-05
2.69769e-10
2.03797e-05
2.46875e-10
2.03796e-05
2.19203e-10
2.03796e-05
1.89158e-10
2.03795e-05
1.58156e-10
2.03795e-05
1.27211e-10
2.03794e-05
9.71604e-11
2.03794e-05
6.86725e-11
2.03794e-05
4.22529e-11
2.03794e-05
1.82523e-11
2.03794e-05
-3.17449e-12
2.03794e-05
-2.205e-11
2.03794e-05
-3.85472e-11
2.03794e-05
-5.29413e-11
2.03794e-05
-6.54883e-11
2.03795e-05
-7.63811e-11
2.03795e-05
-8.57747e-11
2.03795e-05
-9.38189e-11
2.03796e-05
-1.00682e-10
2.03796e-05
-1.06537e-10
2.03797e-05
-1.11538e-10
2.03797e-05
-1.15814e-10
2.03797e-05
-1.19469e-10
2.03798e-05
-1.22599e-10
2.03798e-05
-1.25292e-10
2.03799e-05
-1.27621e-10
2.03799e-05
-1.29637e-10
2.038e-05
-1.3132e-10
2.038e-05
-1.32645e-10
2.03801e-05
-1.33416e-10
2.03801e-05
-1.33596e-10
2.03802e-05
-1.32616e-10
2.03802e-05
-1.30563e-10
2.03803e-05
-1.26061e-10
2.03803e-05
-1.18894e-10
2.03803e-05
-1.08578e-10
2.03804e-05
-8.88054e-11
2.03804e-05
-7.3051e-11
2.03804e-05
-3.74747e-11
2.03804e-05
8.49393e-14
2.03804e-05
1.35425e-11
2.03804e-05
1.37338e-11
2.03804e-05
1.07264e-12
2.03804e-05
-7.44387e-12
2.03804e-05
-1.69419e-11
2.03804e-05
-2.58942e-11
2.03805e-05
-3.29851e-11
2.03805e-05
-3.76542e-11
2.03805e-05
-3.9266e-11
2.03805e-05
-3.75539e-11
2.03805e-05
-3.25647e-11
2.03805e-05
-2.46641e-11
2.03805e-05
-1.44715e-11
2.03805e-05
-2.75206e-12
2.03805e-05
9.69194e-12
2.03805e-05
2.21181e-11
2.03805e-05
3.38975e-11
2.03805e-05
4.45427e-11
2.03804e-05
5.37222e-11
2.03804e-05
6.12521e-11
2.03804e-05
6.70714e-11
2.03804e-05
7.12136e-11
2.03803e-05
7.37824e-11
2.03803e-05
7.49273e-11
2.03803e-05
7.48232e-11
2.03803e-05
7.36511e-11
2.03802e-05
7.15861e-11
2.03802e-05
6.87882e-11
2.03802e-05
6.53968e-11
2.03802e-05
6.15274e-11
2.03801e-05
5.72816e-11
2.03801e-05
5.27364e-11
2.03801e-05
4.79632e-11
2.03801e-05
4.29842e-11
2.03801e-05
3.78694e-11
2.03801e-05
3.2499e-11
2.038e-05
2.70131e-11
2.038e-05
2.1041e-11
2.038e-05
1.47931e-11
2.038e-05
8.59126e-12
2.038e-05
5.06195e-12
2.038e-05
3.69612e-12
2.038e-05
3.51431e-12
2.038e-05
3.96626e-12
2.038e-05
2.46481e-12
2.038e-05
2.08585e-14
2.038e-05
-3.07356e-12
2.038e-05
-6.84842e-12
2.038e-05
-1.12821e-11
2.038e-05
-1.66187e-11
2.038e-05
-2.24931e-11
2.038e-05
-2.90097e-11
2.03801e-05
-3.46955e-11
2.03801e-05
-3.90462e-11
2.03801e-05
-4.11911e-11
2.03801e-05
-3.49354e-11
2.03801e-05
-3.14771e-11
2.03801e-05
-1.10443e-11
2.03801e-05
1.99117e-11
2.03801e-05
2.77878e-11
2.03801e-05
2.29512e-11
2.03801e-05
1.01239e-11
2.03801e-05
-6.07813e-12
2.03801e-05
-2.17359e-11
2.03801e-05
-3.47389e-11
2.03802e-05
-4.44945e-11
2.03802e-05
-4.92373e-11
2.03802e-05
-5.0886e-11
2.03802e-05
-4.42493e-11
2.03802e-05
-3.21983e-11
2.03802e-05
-2.86705e-11
2.03802e-05
5.54967e-11
-1.36983e-10
2.54339e-05
-3.03423e-10
2.54339e-05
2.01025e-11
2.54338e-05
2.01228e-10
2.54337e-05
3.04025e-10
2.54336e-05
3.72467e-10
2.54335e-05
4.01464e-10
2.54334e-05
4.01644e-10
2.54333e-05
3.8125e-10
2.54332e-05
3.485e-10
2.54331e-05
3.09213e-10
2.5433e-05
2.66694e-10
2.54329e-05
2.229e-10
2.54329e-05
1.79237e-10
2.54329e-05
1.36857e-10
2.54328e-05
9.66596e-11
2.54328e-05
5.93075e-11
2.54328e-05
2.52656e-11
2.54328e-05
-5.22129e-12
2.54328e-05
-3.21223e-11
2.54328e-05
-5.56139e-11
2.54329e-05
-7.6042e-11
2.54329e-05
-9.37802e-11
2.54329e-05
-1.0915e-10
2.54329e-05
-1.22419e-10
2.5433e-05
-1.33823e-10
2.5433e-05
-1.43596e-10
2.54331e-05
-1.51966e-10
2.54331e-05
-1.59129e-10
2.54332e-05
-1.65253e-10
2.54332e-05
-1.70478e-10
2.54333e-05
-1.74932e-10
2.54333e-05
-1.7874e-10
2.54334e-05
-1.82012e-10
2.54334e-05
-1.84838e-10
2.54335e-05
-1.87214e-10
2.54336e-05
-1.8912e-10
2.54336e-05
-1.90306e-10
2.54337e-05
-1.90691e-10
2.54337e-05
-1.89525e-10
2.54338e-05
-1.86848e-10
2.54338e-05
-1.80879e-10
2.54339e-05
-1.71297e-10
2.54339e-05
-1.57289e-10
2.5434e-05
-1.31115e-10
2.5434e-05
-1.09084e-10
2.5434e-05
-6.17228e-11
2.5434e-05
-1.10721e-11
2.54341e-05
9.67066e-12
2.54341e-05
1.22932e-11
2.54341e-05
-2.52924e-12
2.54341e-05
-1.32181e-11
2.54341e-05
-2.53916e-11
2.54341e-05
-3.68846e-11
2.54341e-05
-4.59858e-11
2.54341e-05
-5.17587e-11
2.54341e-05
-5.32982e-11
2.54341e-05
-5.02111e-11
2.54341e-05
-4.25798e-11
2.54342e-05
-3.09494e-11
2.54342e-05
-1.62162e-11
2.54342e-05
5.30963e-13
2.54341e-05
1.81652e-11
2.54341e-05
3.56535e-11
2.54341e-05
5.21322e-11
2.54341e-05
6.69437e-11
2.54341e-05
7.96494e-11
2.5434e-05
9.00128e-11
2.5434e-05
9.79668e-11
2.5434e-05
1.03569e-10
2.54339e-05
1.06971e-10
2.54339e-05
1.08383e-10
2.54339e-05
1.08048e-10
2.54338e-05
1.06223e-10
2.54338e-05
1.03155e-10
2.54338e-05
9.90722e-11
2.54337e-05
9.41756e-11
2.54337e-05
8.86332e-11
2.54337e-05
8.25866e-11
2.54337e-05
7.61445e-11
2.54337e-05
6.94036e-11
2.54336e-05
6.23967e-11
2.54336e-05
5.52098e-11
2.54336e-05
4.76961e-11
2.54336e-05
4.00208e-11
2.54336e-05
3.17186e-11
2.54336e-05
2.30341e-11
2.54336e-05
1.4412e-11
2.54336e-05
9.19739e-12
2.54336e-05
6.8879e-12
2.54336e-05
6.29754e-12
2.54335e-05
6.63093e-12
2.54335e-05
4.56135e-12
2.54335e-05
1.17843e-12
2.54335e-05
-3.21689e-12
2.54335e-05
-8.67191e-12
2.54336e-05
-1.51887e-11
2.54336e-05
-2.30622e-11
2.54336e-05
-3.1815e-11
2.54336e-05
-4.14994e-11
2.54336e-05
-5.01748e-11
2.54336e-05
-5.70864e-11
2.54336e-05
-6.08777e-11
2.54337e-05
-5.38231e-11
2.54337e-05
-4.9413e-11
2.54337e-05
-2.3006e-11
2.54337e-05
1.75075e-11
2.54337e-05
2.98909e-11
2.54337e-05
2.53453e-11
2.54337e-05
9.57082e-12
2.54337e-05
-1.11724e-11
2.54337e-05
-3.16735e-11
2.54337e-05
-4.89322e-11
2.54337e-05
-6.19889e-11
2.54337e-05
-6.84814e-11
2.54338e-05
-7.07412e-11
2.54338e-05
-6.19817e-11
2.54338e-05
-4.65717e-11
2.54338e-05
-3.8815e-11
2.54338e-05
6.57047e-11
-1.67537e-10
3.03753e-05
-3.46322e-10
3.03753e-05
3.06155e-11
3.03752e-05
2.64015e-10
3.03751e-05
4.04383e-10
3.0375e-05
4.92151e-10
3.03748e-05
5.28331e-10
3.03747e-05
5.27174e-10
3.03746e-05
4.99903e-10
3.03745e-05
4.56958e-10
3.03744e-05
4.0562e-10
3.03743e-05
3.50079e-10
3.03742e-05
2.92845e-10
3.03742e-05
2.35751e-10
3.03741e-05
1.80289e-10
3.03741e-05
1.27607e-10
3.03741e-05
7.85378e-11
3.03741e-05
3.36666e-11
3.03741e-05
-6.6589e-12
3.03741e-05
-4.23376e-11
3.03741e-05
-7.35322e-11
3.03741e-05
-1.0064e-10
3.03742e-05
-1.24143e-10
3.03742e-05
-1.44502e-10
3.03742e-05
-1.62108e-10
3.03743e-05
-1.77297e-10
3.03743e-05
-1.90375e-10
3.03744e-05
-2.0162e-10
3.03744e-05
-2.11274e-10
3.03745e-05
-2.19541e-10
3.03745e-05
-2.26597e-10
3.03746e-05
-2.32605e-10
3.03747e-05
-2.3773e-10
3.03747e-05
-2.4212e-10
3.03748e-05
-2.45906e-10
3.03748e-05
-2.49111e-10
3.03749e-05
-2.51722e-10
3.0375e-05
-2.53444e-10
3.0375e-05
-2.54145e-10
3.03751e-05
-2.529e-10
3.03752e-05
-2.49684e-10
3.03752e-05
-2.42318e-10
3.03753e-05
-2.30346e-10
3.03753e-05
-2.12617e-10
3.03754e-05
-1.80003e-10
3.03754e-05
-1.51417e-10
3.03755e-05
-9.20251e-11
3.03755e-05
-2.77583e-11
3.03755e-05
1.3638e-12
3.03755e-05
7.59025e-12
3.03755e-05
-8.40173e-12
3.03755e-05
-2.0669e-11
3.03755e-05
-3.51355e-11
3.03755e-05
-4.88597e-11
3.03755e-05
-5.96857e-11
3.03755e-05
-6.62434e-11
3.03756e-05
-6.73339e-11
3.03756e-05
-6.2443e-11
3.03756e-05
-5.17118e-11
3.03756e-05
-3.58956e-11
3.03756e-05
-1.61948e-11
3.03756e-05
5.96284e-12
3.03756e-05
2.91178e-11
3.03756e-05
5.19448e-11
3.03755e-05
7.33489e-11
3.03755e-05
9.2507e-11
3.03755e-05
1.08879e-10
3.03754e-05
1.22181e-10
3.03754e-05
1.32342e-10
3.03754e-05
1.3945e-10
3.03753e-05
1.43702e-10
3.03753e-05
1.45373e-10
3.03753e-05
1.44776e-10
3.03752e-05
1.42241e-10
3.03752e-05
1.38092e-10
3.03752e-05
1.32627e-10
3.03751e-05
1.26112e-10
3.03751e-05
1.18769e-10
3.03751e-05
1.10786e-10
3.0375e-05
1.02304e-10
3.0375e-05
9.34465e-11
3.0375e-05
8.42586e-11
3.0375e-05
7.4843e-11
3.0375e-05
6.50276e-11
3.03749e-05
5.50001e-11
3.03749e-05
4.4204e-11
3.03749e-05
3.29099e-11
3.03749e-05
2.16808e-11
3.03749e-05
1.45592e-11
3.03749e-05
1.10873e-11
3.03749e-05
9.9106e-12
3.03749e-05
9.99042e-12
3.03749e-05
7.2608e-12
3.03749e-05
2.82248e-12
3.03749e-05
-3.06294e-12
3.03749e-05
-1.04801e-11
3.03749e-05
-1.94553e-11
3.03749e-05
-3.03174e-11
3.03749e-05
-4.24565e-11
3.03749e-05
-5.58351e-11
3.0375e-05
-6.8035e-11
3.0375e-05
-7.80084e-11
3.0375e-05
-8.38862e-11
3.0375e-05
-7.64445e-11
3.0375e-05
-7.12567e-11
3.03751e-05
-3.90152e-11
3.03751e-05
1.11201e-11
3.03751e-05
2.87155e-11
3.03751e-05
2.53657e-11
3.03751e-05
7.40843e-12
3.03751e-05
-1.73394e-11
3.03751e-05
-4.23825e-11
3.03751e-05
-6.37928e-11
3.03751e-05
-8.01532e-11
3.03751e-05
-8.85142e-11
3.03752e-05
-9.14613e-11
3.03752e-05
-8.07656e-11
3.03752e-05
-6.21466e-11
3.03752e-05
-4.94244e-11
3.03752e-05
7.33619e-11
-1.90756e-10
3.50566e-05
-3.64939e-10
3.50566e-05
5.31069e-11
3.50566e-05
3.30687e-10
3.50565e-05
5.05562e-10
3.50563e-05
6.11328e-10
3.50562e-05
6.54195e-10
3.50561e-05
6.51795e-10
3.5056e-05
6.18132e-10
3.50559e-05
5.65633e-10
3.50558e-05
5.02851e-10
3.50557e-05
4.34774e-10
3.50556e-05
3.64454e-10
3.50555e-05
2.94152e-10
3.50555e-05
2.25717e-10
3.50555e-05
1.6056e-10
3.50554e-05
9.96953e-11
3.50554e-05
4.38393e-11
3.50554e-05
-6.54998e-12
3.50554e-05
-5.12942e-11
3.50555e-05
-9.05308e-11
3.50555e-05
-1.24686e-10
3.50555e-05
-1.54333e-10
3.50556e-05
-1.8005e-10
3.50556e-05
-2.02348e-10
3.50556e-05
-2.21664e-10
3.50557e-05
-2.38372e-10
3.50557e-05
-2.52801e-10
3.50558e-05
-2.65236e-10
3.50558e-05
-2.75917e-10
3.50559e-05
-2.85059e-10
3.5056e-05
-2.92859e-10
3.5056e-05
-2.99521e-10
3.50561e-05
-3.05232e-10
3.50562e-05
-3.10162e-10
3.50562e-05
-3.14358e-10
3.50563e-05
-3.17821e-10
3.50564e-05
-3.20215e-10
3.50564e-05
-3.21369e-10
3.50565e-05
-3.20189e-10
3.50566e-05
-3.16582e-10
3.50566e-05
-3.07989e-10
3.50567e-05
-2.93805e-10
3.50567e-05
-2.72533e-10
3.50568e-05
-2.33709e-10
3.50568e-05
-1.98642e-10
3.50569e-05
-1.27403e-10
3.50569e-05
-4.94482e-11
3.50569e-05
-1.1233e-11
3.50569e-05
-3.87706e-13
3.50569e-05
-1.64878e-11
3.50569e-05
-2.95596e-11
3.5057e-05
-4.57178e-11
3.5057e-05
-6.11664e-11
3.5057e-05
-7.32525e-11
3.5057e-05
-8.0143e-11
3.5057e-05
-8.03494e-11
3.5057e-05
-7.32624e-11
3.5057e-05
-5.91153e-11
3.5057e-05
-3.88988e-11
3.5057e-05
-1.41231e-11
3.5057e-05
1.34571e-11
3.5057e-05
4.20742e-11
3.5057e-05
7.01404e-11
3.5057e-05
9.63542e-11
3.50569e-05
1.19746e-10
3.50569e-05
1.39687e-10
3.50569e-05
1.55854e-10
3.50568e-05
1.68175e-10
3.50568e-05
1.76763e-10
3.50568e-05
1.81863e-10
3.50567e-05
1.83805e-10
3.50567e-05
1.82968e-10
3.50566e-05
1.7975e-10
3.50566e-05
1.74545e-10
3.50566e-05
1.67718e-10
3.50565e-05
1.59596e-10
3.50565e-05
1.50456e-10
3.50565e-05
1.40528e-10
3.50564e-05
1.29989e-10
3.50564e-05
1.18988e-10
3.50564e-05
1.07586e-10
3.50564e-05
9.59011e-11
3.50564e-05
8.37398e-11
3.50563e-05
7.13109e-11
3.50563e-05
5.79709e-11
3.50563e-05
4.40083e-11
3.50563e-05
3.00926e-11
3.50563e-05
2.09305e-11
3.50563e-05
1.61361e-11
3.50563e-05
1.42225e-11
3.50563e-05
1.3919e-11
3.50563e-05
1.04323e-11
3.50563e-05
4.81916e-12
3.50563e-05
-2.74343e-12
3.50563e-05
-1.23904e-11
3.50563e-05
-2.41676e-11
3.50563e-05
-3.84085e-11
3.50563e-05
-5.43446e-11
3.50563e-05
-7.18168e-11
3.50563e-05
-8.79237e-11
3.50564e-05
-1.01308e-10
3.50564e-05
-1.09584e-10
3.50564e-05
-1.02088e-10
3.50564e-05
-9.63029e-11
3.50565e-05
-5.84838e-11
3.50565e-05
1.15206e-12
3.50565e-05
2.44878e-11
3.50565e-05
2.32094e-11
3.50565e-05
3.99535e-12
3.50565e-05
-2.3968e-11
3.50565e-05
-5.29832e-11
3.50565e-05
-7.82046e-11
3.50565e-05
-9.77216e-11
3.50566e-05
-1.07983e-10
3.50566e-05
-1.11746e-10
3.50566e-05
-9.93807e-11
3.50566e-05
-7.7988e-11
3.50566e-05
-5.96852e-11
3.50566e-05
7.79812e-11
-2.02289e-10
3.94277e-05
-3.5544e-10
3.94277e-05
9.01414e-11
3.94276e-05
4.00248e-10
3.94275e-05
6.0335e-10
3.94274e-05
7.2443e-10
3.94273e-05
7.73149e-10
3.94272e-05
7.69754e-10
3.94271e-05
7.30588e-10
3.9427e-05
6.69713e-10
3.94269e-05
5.96709e-10
3.94268e-05
5.17236e-10
3.94267e-05
4.34844e-10
3.94267e-05
3.52211e-10
3.94266e-05
2.71536e-10
3.94266e-05
1.94496e-10
3.94265e-05
1.22292e-10
3.94265e-05
5.57806e-11
3.94265e-05
-4.46631e-12
3.94265e-05
-5.81908e-11
3.94266e-05
-1.05497e-10
3.94266e-05
-1.46823e-10
3.94266e-05
-1.82801e-10
3.94266e-05
-2.14103e-10
3.94267e-05
-2.41341e-10
3.94267e-05
-2.65035e-10
3.94268e-05
-2.85625e-10
3.94268e-05
-3.0349e-10
3.94269e-05
-3.18952e-10
3.94269e-05
-3.3229e-10
3.9427e-05
-3.43752e-10
3.94271e-05
-3.53574e-10
3.94271e-05
-3.61996e-10
3.94272e-05
-3.69241e-10
3.94272e-05
-3.75513e-10
3.94273e-05
-3.80882e-10
3.94274e-05
-3.85361e-10
3.94274e-05
-3.88582e-10
3.94275e-05
-3.90341e-10
3.94276e-05
-3.89393e-10
3.94277e-05
-3.85583e-10
3.94277e-05
-3.7599e-10
3.94278e-05
-3.59859e-10
3.94278e-05
-3.35345e-10
3.94279e-05
-2.90698e-10
3.9428e-05
-2.49449e-10
3.9428e-05
-1.66796e-10
3.9428e-05
-7.53667e-11
3.9428e-05
-2.76839e-11
3.9428e-05
-1.14528e-11
3.94281e-05
-2.66888e-11
3.94281e-05
-3.97315e-11
3.94281e-05
-5.68424e-11
3.94281e-05
-7.33496e-11
3.94281e-05
-8.60684e-11
3.94281e-05
-9.27036e-11
3.94281e-05
-9.15099e-11
3.94281e-05
-8.18325e-11
3.94281e-05
-6.40374e-11
3.94281e-05
-3.93693e-11
3.94281e-05
-9.63748e-12
3.94281e-05
2.31086e-11
3.94281e-05
5.68431e-11
3.94281e-05
8.97659e-11
3.94281e-05
1.20411e-10
3.9428e-05
1.47693e-10
3.9428e-05
1.70911e-10
3.9428e-05
1.89715e-10
3.94279e-05
2.04032e-10
3.94279e-05
2.14e-10
3.94279e-05
2.19903e-10
3.94278e-05
2.22118e-10
3.94278e-05
2.21081e-10
3.94278e-05
2.17248e-10
3.94277e-05
2.11071e-10
3.94277e-05
2.02975e-10
3.94276e-05
1.93341e-10
3.94276e-05
1.82494e-10
3.94276e-05
1.70705e-10
3.94276e-05
1.58183e-10
3.94275e-05
1.45106e-10
3.94275e-05
1.31546e-10
3.94275e-05
1.17642e-10
3.94275e-05
1.03179e-10
3.94274e-05
8.83872e-11
3.94274e-05
7.25401e-11
3.94274e-05
5.59357e-11
3.94274e-05
3.93366e-11
3.94274e-05
2.80795e-11
3.94274e-05
2.18665e-11
3.94274e-05
1.9104e-11
3.94274e-05
1.83005e-11
3.94274e-05
1.39489e-11
3.94274e-05
7.01838e-12
3.94274e-05
-2.42973e-12
3.94274e-05
-1.45874e-11
3.94274e-05
-2.95012e-11
3.94274e-05
-4.74741e-11
3.94274e-05
-6.75484e-11
3.94274e-05
-8.94123e-11
3.94275e-05
-1.09682e-10
3.94275e-05
-1.26693e-10
3.94275e-05
-1.37554e-10
3.94275e-05
-1.30231e-10
3.94276e-05
-1.23995e-10
3.94276e-05
-8.08611e-11
3.94276e-05
-1.19052e-11
3.94276e-05
1.75468e-11
3.94276e-05
1.91028e-11
3.94276e-05
-4.29662e-13
3.94276e-05
-3.071e-11
3.94276e-05
-6.29659e-11
3.94276e-05
-9.14855e-11
3.94277e-05
-1.13877e-10
3.94277e-05
-1.2597e-10
3.94277e-05
-1.30664e-10
3.94277e-05
-1.16899e-10
3.94277e-05
-9.33151e-11
3.94277e-05
-6.88824e-11
3.94277e-05
7.96464e-11
-2.00599e-10
4.35097e-05
-3.19378e-10
4.35096e-05
1.42808e-10
4.35095e-05
4.73469e-10
4.35094e-05
6.96805e-10
4.35093e-05
8.29356e-10
4.35092e-05
8.82548e-10
4.35091e-05
8.7821e-10
4.3509e-05
8.34405e-10
4.35089e-05
7.66414e-10
4.35088e-05
6.84576e-10
4.35087e-05
5.95088e-10
4.35087e-05
5.01934e-10
4.35086e-05
4.0818e-10
4.35086e-05
3.16346e-10
4.35085e-05
2.28359e-10
4.35085e-05
1.45606e-10
4.35085e-05
6.90839e-11
4.35085e-05
-5.24339e-13
4.35085e-05
-6.28819e-11
4.35085e-05
-1.18052e-10
4.35085e-05
-1.66469e-10
4.35086e-05
-2.08798e-10
4.35086e-05
-2.45774e-10
4.35086e-05
-2.78082e-10
4.35087e-05
-3.06311e-10
4.35087e-05
-3.30958e-10
4.35088e-05
-3.52443e-10
4.35088e-05
-3.71126e-10
4.35089e-05
-3.87318e-10
4.35089e-05
-4.01305e-10
4.3509e-05
-4.13355e-10
4.35091e-05
-4.23745e-10
4.35091e-05
-4.32728e-10
4.35092e-05
-4.40537e-10
4.35093e-05
-4.47261e-10
4.35093e-05
-4.52925e-10
4.35094e-05
-4.57132e-10
4.35095e-05
-4.59658e-10
4.35095e-05
-4.59119e-10
4.35096e-05
-4.55312e-10
4.35097e-05
-4.44966e-10
4.35097e-05
-4.2719e-10
4.35098e-05
-3.99777e-10
4.35099e-05
-3.49754e-10
4.35099e-05
-3.02742e-10
4.351e-05
-2.09199e-10
4.351e-05
-1.04654e-10
4.351e-05
-4.73882e-11
4.351e-05
-2.52681e-11
4.351e-05
-3.88487e-11
4.351e-05
-5.10653e-11
4.351e-05
-6.83273e-11
4.35101e-05
-8.51095e-11
4.35101e-05
-9.76891e-11
4.35101e-05
-1.03346e-10
4.35101e-05
-1.00143e-10
4.35101e-05
-8.74448e-11
4.35101e-05
-6.58006e-11
4.35101e-05
-3.67184e-11
4.35101e-05
-2.2837e-12
4.35101e-05
3.52092e-11
4.35101e-05
7.35385e-11
4.351e-05
1.10754e-10
4.351e-05
1.45276e-10
4.351e-05
1.75941e-10
4.351e-05
2.02003e-10
4.35099e-05
2.23092e-10
4.35099e-05
2.39142e-10
4.35098e-05
2.5031e-10
4.35098e-05
2.56913e-10
4.35098e-05
2.59367e-10
4.35097e-05
2.58149e-10
4.35097e-05
2.53765e-10
4.35097e-05
2.46713e-10
4.35096e-05
2.37466e-10
4.35096e-05
2.26449e-10
4.35096e-05
2.14029e-10
4.35095e-05
2.00511e-10
4.35095e-05
1.86136e-10
4.35095e-05
1.71104e-10
4.35095e-05
1.55503e-10
4.35094e-05
1.39487e-10
4.35094e-05
1.22827e-10
4.35094e-05
1.05771e-10
4.35094e-05
8.75131e-11
4.35094e-05
6.83519e-11
4.35094e-05
4.91298e-11
4.35094e-05
3.57873e-11
4.35093e-05
2.81196e-11
4.35093e-05
2.44383e-11
4.35093e-05
2.30334e-11
4.35093e-05
1.76909e-11
4.35093e-05
9.26093e-12
4.35093e-05
-2.3249e-12
4.35093e-05
-1.73095e-11
4.35093e-05
-3.57097e-11
4.35094e-05
-5.77565e-11
4.35094e-05
-8.22659e-11
4.35094e-05
-1.0875e-10
4.35094e-05
-1.33344e-10
4.35094e-05
-1.54094e-10
4.35095e-05
-1.67616e-10
4.35095e-05
-1.60586e-10
4.35095e-05
-1.53992e-10
4.35096e-05
-1.05742e-10
4.35096e-05
-2.76142e-11
4.35096e-05
8.22274e-12
4.35096e-05
1.32332e-11
4.35096e-05
-5.76273e-12
4.35096e-05
-3.74628e-11
4.35096e-05
-7.21626e-11
4.35096e-05
-1.03364e-10
4.35096e-05
-1.28239e-10
4.35096e-05
-1.41997e-10
4.35097e-05
-1.47678e-10
4.35097e-05
-1.32733e-10
4.35097e-05
-1.07556e-10
4.35097e-05
-7.65196e-11
4.35097e-05
7.90685e-11
-1.86997e-10
4.73521e-05
-2.61723e-10
4.7352e-05
2.10107e-10
4.73519e-05
5.51471e-10
4.73518e-05
7.86948e-10
4.73517e-05
9.26429e-10
4.73516e-05
9.8212e-10
4.73515e-05
9.76477e-10
4.73514e-05
9.28597e-10
4.73513e-05
8.5453e-10
4.73513e-05