/*--------------------------------*- C++ -*----------------------------------*\
  =========                 |
  \\      /  F ield         | OpenFOAM: The Open Source CFD Toolbox
   \\    /   O peration     | Website:  https://openfoam.org
    \\  /    A nd           | Version:  7
     \\/     M anipulation  |
\*---------------------------------------------------------------------------*/
FoamFile
{
    version     2.0;
    format      ascii;
    class       volVectorField;
    location    "3500";
    object      U;
}
// * * * * * * * * * * * * * * * * * * * * * * * * * * * * * * * * * * * * * //

dimensions      [0 1 -1 0 0 0 0];

internalField   nonuniform List<vector> 
24000
(
(0.00395801 -3.83837e-10 1.02141e-16)
(0.00395803 3.18761e-10 9.89473e-17)
(0.003958 5.02447e-11 1.01369e-16)
(0.00395799 9.20792e-11 4.52283e-17)
(0.00395797 1.14142e-10 -2.11266e-16)
(0.00395795 1.21816e-10 3.03775e-17)
(0.00395793 1.2723e-10 -2.32571e-16)
(0.00395791 1.2267e-10 4.01685e-17)
(0.00395789 1.13914e-10 7.95628e-17)
(0.00395787 1.02319e-10 -1.93109e-16)
(0.00395785 8.90882e-11 4.96292e-17)
(0.00395784 7.50133e-11 5.03338e-17)
(0.00395783 6.06721e-11 5.27587e-17)
(0.00395782 4.6534e-11 2.90426e-17)
(0.00395781 3.30082e-11 5.29793e-18)
(0.00395781 2.05162e-11 3.9952e-17)
(0.0039578 9.47806e-12 2.77934e-17)
(0.0039578 7.65092e-14 3.01999e-17)
(0.0039578 -7.89467e-12 4.92417e-18)
(0.00395781 -1.48953e-11 -2.53314e-17)
(0.00395781 -2.13219e-11 3.80627e-17)
(0.00395781 -2.73638e-11 -5.68023e-18)
(0.00395782 -3.291e-11 1.14897e-17)
(0.00395783 -3.77687e-11 -4.62757e-18)
(0.00395783 -4.18391e-11 -5.84891e-17)
(0.00395784 -4.51781e-11 3.14094e-17)
(0.00395785 -4.79229e-11 8.02183e-18)
(0.00395786 -5.02305e-11 1.08527e-17)
(0.00395787 -5.2218e-11 -2.00615e-17)
(0.00395787 -5.39719e-11 -6.70466e-17)
(0.00395788 -5.5563e-11 1.94871e-17)
(0.00395789 -5.70603e-11 -1.52413e-17)
(0.0039579 -5.84559e-11 -1.93778e-18)
(0.00395791 -5.98355e-11 -3.99341e-17)
(0.00395792 -6.09314e-11 -9.31304e-17)
(0.00395793 -6.18427e-11 1.16592e-17)
(0.00395794 -6.20831e-11 -7.6714e-18)
(0.00395795 -6.18979e-11 -1.57319e-18)
(0.00395796 -6.07854e-11 -3.37474e-17)
(0.00395797 -5.82287e-11 -8.58365e-17)
(0.00395798 -5.58602e-11 -4.79372e-17)
(0.00395799 -4.60857e-11 2.10948e-16)
(0.003958 -4.52629e-11 1.15785e-17)
(0.00395801 -1.61867e-11 9.77232e-18)
(0.00395801 -2.10564e-11 2.29042e-17)
(0.00395802 1.99191e-11 3.30826e-17)
(0.00395801 5.23411e-11 1.86263e-16)
(0.00395801 3.56309e-11 5.41438e-17)
(0.00395801 3.37157e-11 4.58696e-17)
(0.003958 6.64007e-12 5.25505e-17)
(0.003958 6.94048e-12 5.64096e-17)
(0.003958 -5.45463e-12 2.45486e-16)
(0.00395801 -1.294e-11 7.31406e-17)
(0.00395801 -1.91889e-11 3.22617e-16)
(0.00395801 -2.38899e-11 7.26701e-18)
(0.00395802 -2.6638e-11 7.79413e-17)
(0.00395802 -2.7577e-11 2.84493e-16)
(0.00395802 -2.66688e-11 8.81995e-17)
(0.00395803 -2.4065e-11 2.38174e-16)
(0.00395803 -2.00368e-11 1.96746e-17)
(0.00395803 -1.49301e-11 9.47048e-17)
(0.00395803 -9.13719e-12 3.36676e-16)
(0.00395803 -3.04331e-12 9.48943e-17)
(0.00395803 2.97158e-12 3.30859e-16)
(0.00395803 8.64412e-12 2.41916e-17)
(0.00395803 1.37359e-11 1.18598e-16)
(0.00395802 1.8098e-11 2.61345e-16)
(0.00395802 2.16508e-11 1.09752e-16)
(0.00395801 2.43516e-11 2.97921e-16)
(0.00395801 2.62559e-11 4.08183e-17)
(0.003958 2.74154e-11 1.17302e-16)
(0.003958 2.79478e-11 3.00409e-16)
(0.00395799 2.79259e-11 1.13065e-16)
(0.00395799 2.74382e-11 2.69683e-16)
(0.00395798 2.65442e-11 8.70303e-17)
(0.00395798 2.53021e-11 1.19921e-16)
(0.00395797 2.37234e-11 2.50504e-16)
(0.00395797 2.18909e-11 1.22876e-16)
(0.00395796 1.97651e-11 2.82418e-16)
(0.00395796 1.75216e-11 7.23726e-17)
(0.00395796 1.49042e-11 -1.27892e-16)
(0.00395795 1.2443e-11 7.39107e-17)
(0.00395795 9.26261e-12 1.32618e-16)
(0.00395795 6.58756e-12 -9.49802e-17)
(0.00395795 2.60148e-12 5.2069e-17)
(0.00395795 -6.79521e-13 -1.76694e-16)
(0.00395795 -5.04619e-12 1.74723e-17)
(0.00395795 -4.75554e-12 1.09266e-16)
(0.00395795 -3.51843e-12 -9.8544e-17)
(0.00395795 -2.92608e-12 3.05798e-17)
(0.00395795 -7.56767e-13 -1.36278e-16)
(0.00395795 -3.39199e-12 1.21989e-17)
(0.00395795 -4.82758e-12 8.46522e-17)
(0.00395795 -6.55705e-12 -1.4175e-16)
(0.00395795 -8.3936e-12 2.10638e-17)
(0.00395795 -9.91781e-12 -1.39442e-16)
(0.00395795 -1.18608e-11 1.14248e-17)
(0.00395795 -1.34856e-11 8.60134e-17)
(0.00395796 -1.49004e-11 -1.93679e-16)
(0.00395796 -1.64954e-11 -4.6013e-19)
(0.00395796 -1.28321e-11 -1.10087e-16)
(0.00395796 -1.58639e-11 6.48092e-18)
(0.00395797 3.49705e-12 8.99577e-17)
(0.00395797 -1.67618e-12 -8.94772e-17)
(0.00395797 2.3824e-11 2.27938e-17)
(0.00395796 6.27929e-11 -1.32323e-16)
(0.00395796 4.45626e-11 3.1324e-17)
(0.00395795 3.59959e-11 8.93345e-17)
(0.00395795 1.97501e-11 -1.57513e-16)
(0.00395795 3.30813e-12 -2.01443e-17)
(0.00395795 -8.01947e-12 -1.62712e-16)
(0.00395795 -2.04355e-11 -1.25603e-16)
(0.00395796 -2.19652e-11 7.86308e-17)
(0.00395796 -3.41564e-11 -1.53112e-16)
(0.00395796 -1.55479e-11 3.37175e-17)
(0.00395797 -4.61896e-11 -2.01139e-16)
(0.00395797 3.69819e-11 -1.9474e-16)
(0.00395798 -9.65274e-11 9.17008e-17)
(0.00395797 1.99474e-10 -1.10402e-16)
(0.00395797 -2.97113e-10 1.85695e-17)
(0.0119471 -3.40357e-09 3.11031e-16)
(0.0119471 1.26167e-09 2.97308e-16)
(0.0119471 1.42749e-09 3.06948e-16)
(0.011947 1.58792e-09 1.37715e-16)
(0.011947 2.04116e-09 -4.56692e-16)
(0.0119469 2.21562e-09 1.00305e-16)
(0.0119469 2.25982e-09 -2.69818e-16)
(0.0119468 2.1695e-09 1.27731e-16)
(0.0119467 1.99917e-09 2.38255e-16)
(0.0119467 1.78579e-09 -3.91939e-16)
(0.0119466 1.54864e-09 1.60168e-16)
(0.0119466 1.30014e-09 1.50767e-16)
(0.0119466 1.04948e-09 1.59791e-16)
(0.0119465 8.04722e-10 8.70634e-17)
(0.0119465 5.7267e-10 2.09924e-17)
(0.0119465 3.58853e-10 1.19335e-16)
(0.0119465 1.66994e-10 8.14135e-17)
(0.0119465 -2.27903e-12 9.10126e-17)
(0.0119465 -1.50878e-10 1.38814e-17)
(0.0119465 -2.82234e-10 -8.0931e-17)
(0.0119465 -3.99464e-10 1.10165e-16)
(0.0119465 -5.04004e-10 -1.4692e-17)
(0.0119465 -5.95888e-10 3.65517e-17)
(0.0119466 -6.75019e-10 -1.68232e-17)
(0.0119466 -7.41943e-10 -1.7294e-16)
(0.0119466 -7.98125e-10 1.01486e-16)
(0.0119466 -8.45511e-10 3.06468e-17)
(0.0119467 -8.85896e-10 3.66833e-17)
(0.0119467 -9.20708e-10 -5.43532e-17)
(0.0119467 -9.51045e-10 -1.97747e-16)
(0.0119467 -9.77769e-10 6.50871e-17)
(0.0119468 -1.00172e-09 -4.31034e-17)
(0.0119468 -1.02301e-09 -4.55896e-18)
(0.0119468 -1.04179e-09 -1.19209e-16)
(0.0119468 -1.05697e-09 -2.83216e-16)
(0.0119469 -1.06828e-09 3.07187e-17)
(0.0119469 -1.0729e-09 -1.95726e-17)
(0.0119469 -1.07192e-09 -1.85784e-18)
(0.011947 -1.05849e-09 -1.03701e-16)
(0.011947 -1.03514e-09 -2.58541e-16)
(0.011947 -9.88567e-10 -1.4227e-16)
(0.0119471 -9.07282e-10 2.79124e-17)
(0.0119471 -8.15222e-10 3.09552e-17)
(0.0119471 -5.75325e-10 3.02108e-17)
(0.0119471 -4.65947e-10 6.93346e-17)
(0.0119471 -5.40193e-11 1.01102e-16)
(0.0119471 3.37669e-10 1.74251e-16)
(0.0119471 3.53401e-10 1.5717e-16)
(0.0119471 2.95329e-10 1.38946e-16)
(0.0119471 8.86636e-11 1.59259e-16)
(0.0119471 5.2655e-12 1.7213e-16)
(0.0119471 -1.08803e-10 2.81262e-16)
(0.0119471 -2.11993e-10 2.14213e-16)
(0.0119471 -2.91143e-10 3.16538e-16)
(0.0119471 -3.48375e-10 1.33797e-16)
(0.0119471 -3.77558e-10 2.3984e-16)
(0.0119472 -3.77903e-10 2.91281e-16)
(0.0119472 -3.49699e-10 2.60766e-16)
(0.0119472 -2.95555e-10 3.3625e-16)
(0.0119472 -2.20035e-10 1.7221e-17)
(0.0119472 -1.29097e-10 2.90396e-16)
(0.0119472 -2.91934e-11 3.59009e-16)
(0.0119472 7.32515e-11 2.79539e-16)
(0.0119472 1.72718e-10 3.69552e-16)
(0.0119472 2.64592e-10 2.53786e-16)
(0.0119472 3.4553e-10 3.57621e-16)
(0.0119471 4.13487e-10 3.83738e-16)
(0.0119471 4.67538e-10 3.25471e-16)
(0.0119471 5.07635e-10 4.45388e-16)
(0.0119471 5.34538e-10 2.69072e-16)
(0.0119471 5.49425e-10 3.61526e-16)
(0.0119471 5.53725e-10 4.39444e-16)
(0.0119471 5.48884e-10 3.34235e-16)
(0.011947 5.36278e-10 4.18615e-16)
(0.011947 5.17052e-10 2.5475e-16)
(0.011947 4.92211e-10 3.66934e-16)
(0.011947 4.62608e-10 4.02847e-16)
(0.011947 4.2915e-10 3.67025e-16)
(0.011947 3.92294e-10 4.62769e-16)
(0.011947 3.53001e-10 1.53382e-16)
(0.0119469 3.11006e-10 1.99949e-16)
(0.0119469 2.6795e-10 9.16465e-17)
(0.0119469 2.20896e-10 4.03028e-16)
(0.0119469 1.73858e-10 1.16892e-16)
(0.0119469 1.19412e-10 7.17191e-17)
(0.0119469 6.38326e-11 1.08319e-16)
(0.0119469 7.02789e-12 -1.34625e-17)
(0.0119469 -1.21539e-11 3.28751e-16)
(0.0119469 -1.10391e-11 9.53836e-17)
(0.0119469 -4.38616e-12 -1.06425e-17)
(0.0119469 8.78365e-12 2.83019e-17)
(0.0119469 -1.02912e-11 1.22449e-16)
(0.0119469 -3.40923e-11 2.58005e-16)
(0.0119469 -6.07254e-11 1.17203e-17)
(0.0119469 -9.11792e-11 -8.37715e-17)
(0.0119469 -1.23455e-10 2.34825e-17)
(0.0119469 -1.61703e-10 5.38933e-17)
(0.0119469 -2.00351e-10 2.62294e-16)
(0.0119469 -2.43011e-10 3.88122e-17)
(0.0119469 -2.74336e-10 -6.78536e-17)
(0.011947 -2.84383e-10 8.03871e-17)
(0.011947 -2.87653e-10 8.72328e-17)
(0.011947 -1.6415e-10 2.76825e-16)
(0.011947 -1.40476e-10 8.2778e-17)
(0.011947 1.21032e-10 8.88741e-17)
(0.011947 4.98419e-10 3.05494e-17)
(0.011947 4.80534e-10 9.32956e-17)
(0.0119469 3.73488e-10 2.70306e-16)
(0.0119469 2.0269e-10 7.3904e-17)
(0.0119469 1.00267e-11 3.61292e-17)
(0.0119469 -1.57055e-10 6.27538e-17)
(0.0119469 -2.94839e-10 3.03503e-18)
(0.011947 -3.84894e-10 2.42786e-16)
(0.011947 -4.40328e-10 1.039e-16)
(0.011947 -4.27501e-10 -6.17014e-17)
(0.011947 -4.04361e-10 5.38849e-17)
(0.011947 -1.52134e-10 3.30562e-17)
(0.011947 -4.01232e-10 2.84536e-16)
(0.011947 1.08676e-09 8.46549e-17)
(0.011947 -2.31338e-09 1.74356e-16)
(0.0200988 -8.41062e-09 5.48966e-16)
(0.0200989 2.00071e-09 4.91631e-16)
(0.0200988 3.98862e-09 5.16231e-16)
(0.0200988 4.81975e-09 2.2094e-16)
(0.0200987 6.07568e-09 -2.40023e-17)
(0.0200986 6.61972e-09 2.03487e-16)
(0.0200984 6.71928e-09 -1.67884e-17)
(0.0200983 6.43564e-09 2.66945e-16)
(0.0200982 5.91833e-09 3.85441e-16)
(0.0200982 5.27681e-09 8.35744e-17)
(0.0200981 4.5694e-09 3.18183e-16)
(0.020098 3.83196e-09 2.45377e-16)
(0.020098 3.09067e-09 2.69615e-16)
(0.0200979 2.36808e-09 1.38745e-16)
(0.0200979 1.6831e-09 4.67867e-17)
(0.0200979 1.05077e-09 2.05252e-16)
(0.0200978 4.81049e-10 1.2654e-16)
(0.0200978 -2.35859e-11 1.52474e-16)
(0.0200979 -4.67415e-10 1.49776e-17)
(0.0200979 -8.58401e-10 -1.58794e-16)
(0.0200979 -1.20471e-09 1.81177e-16)
(0.0200979 -1.51112e-09 -2.74406e-17)
(0.0200979 -1.77924e-09 7.17988e-17)
(0.020098 -2.01002e-09 -4.88945e-17)
(0.020098 -2.20589e-09 -2.83673e-16)
(0.020098 -2.37116e-09 2.09142e-16)
(0.0200981 -2.51102e-09 5.96999e-17)
(0.0200981 -2.63029e-09 7.14257e-17)
(0.0200982 -2.73278e-09 -8.49535e-17)
(0.0200982 -2.82155e-09 -3.23794e-16)
(0.0200982 -2.89899e-09 1.51745e-16)
(0.0200983 -2.96742e-09 -8.44611e-17)
(0.0200983 -3.02778e-09 -1.9289e-18)
(0.0200984 -3.0806e-09 -2.13482e-16)
(0.0200984 -3.12369e-09 -4.73269e-16)
(0.0200985 -3.15601e-09 5.42468e-17)
(0.0200985 -3.17102e-09 -3.09237e-17)
(0.0200986 -3.17029e-09 4.93057e-18)
(0.0200986 -3.13609e-09 -1.94024e-16)
(0.0200987 -3.07507e-09 -4.45744e-16)
(0.0200987 -2.94655e-09 -2.2123e-16)
(0.0200988 -2.73675e-09 -1.07816e-16)
(0.0200988 -2.46498e-09 5.16029e-17)
(0.0200989 -1.85896e-09 5.07235e-17)
(0.0200989 -1.49489e-09 1.19575e-16)
(0.0200989 -4.29328e-10 1.74329e-16)
(0.0200989 6.31868e-10 1.39855e-16)
(0.0200989 8.08294e-10 2.56889e-16)
(0.0200989 6.88878e-10 2.32252e-16)
(0.0200989 1.99297e-10 2.7076e-16)
(0.0200989 -4.93106e-11 2.94091e-16)
(0.0200989 -3.44169e-10 2.72344e-16)
(0.0200989 -6.19153e-10 3.52948e-16)
(0.0200989 -8.32862e-10 3.36605e-16)
(0.0200989 -9.83556e-10 5.03093e-16)
(0.0200989 -1.05528e-09 4.31176e-16)
(0.020099 -1.04364e-09 3.49773e-16)
(0.020099 -9.49632e-10 4.31503e-16)
(0.020099 -7.81118e-10 4.09764e-16)
(0.020099 -5.52063e-10 5.80413e-16)
(0.020099 -2.80103e-10 5.21869e-16)
(0.020099 1.55377e-11 4.08748e-16)
(0.020099 3.16424e-10 4.62399e-16)
(0.020099 6.0648e-10 4.41017e-16)
(0.020099 8.72747e-10 8.07057e-16)
(0.020099 1.1059e-09 6.29193e-16)
(0.0200989 1.30033e-09 4.76908e-16)
(0.0200989 1.45373e-09 5.40652e-16)
(0.0200989 1.56631e-09 5.48261e-16)
(0.0200989 1.64024e-09 7.07042e-16)
(0.0200988 1.67909e-09 6.46412e-16)
(0.0200988 1.68714e-09 5.24228e-16)
(0.0200988 1.66863e-09 5.52462e-16)
(0.0200987 1.62758e-09 5.4319e-16)
(0.0200987 1.56762e-09 9.13493e-16)
(0.0200987 1.49186e-09 6.33266e-16)
(0.0200987 1.40277e-09 5.48235e-16)
(0.0200986 1.30306e-09 6.13966e-16)
(0.0200986 1.19433e-09 6.17899e-16)
(0.0200986 1.07885e-09 9.5702e-16)
(0.0200986 9.56697e-10 5.01596e-16)
(0.0200986 8.30889e-10 7.4554e-16)
(0.0200986 6.96021e-10 6.88376e-16)
(0.0200986 5.59277e-10 3.50101e-16)
(0.0200985 4.05516e-10 9.37633e-16)
(0.0200985 2.4603e-10 3.72221e-16)
(0.0200985 8.60501e-11 5.70168e-16)
(0.0200985 1.72083e-11 5.69461e-16)
(0.0200985 7.02614e-12 2.99837e-16)
(0.0200985 1.93276e-11 5.41208e-16)
(0.0200985 4.7393e-11 2.5237e-16)
(0.0200985 1.33668e-12 4.8233e-16)
(0.0200985 -6.46941e-11 4.52906e-16)
(0.0200985 -1.41435e-10 1.91613e-16)
(0.0200985 -2.3081e-10 6.2703e-16)
(0.0200985 -3.29342e-10 2.285e-16)
(0.0200985 -4.4634e-10 6.20582e-16)
(0.0200986 -5.68927e-10 4.58082e-16)
(0.0200986 -7.05009e-10 2.21697e-16)
(0.0200986 -8.10972e-10 6.30233e-16)
(0.0200986 -8.70612e-10 3.10457e-16)
(0.0200986 -8.8786e-10 5.04599e-16)
(0.0200986 -6.13459e-10 4.91882e-16)
(0.0200986 -5.23823e-10 2.47797e-16)
(0.0200986 1.36486e-10 4.8923e-16)
(0.0200986 1.10273e-09 2.34383e-16)
(0.0200986 1.16936e-09 5.02369e-16)
(0.0200986 9.21128e-10 4.65101e-16)
(0.0200986 4.85789e-10 2.21607e-16)
(0.0200986 -1.98525e-11 4.0019e-16)
(0.0200986 -4.76999e-10 2.35298e-16)
(0.0200986 -8.49392e-10 1.48507e-16)
(0.0200986 -1.11373e-09 4.27902e-16)
(0.0200986 -1.24869e-09 2.9142e-16)
(0.0200987 -1.26607e-09 6.96206e-16)
(0.0200987 -1.11724e-09 2.87163e-16)
(0.0200987 -6.32786e-10 2.2228e-16)
(0.0200987 -9.01033e-10 5.01182e-16)
(0.0200987 2.34791e-09 3.10254e-16)
(0.0200987 -5.28608e-09 7.12327e-16)
(0.0283818 -1.46424e-08 7.56401e-16)
(0.0283819 2.18303e-09 6.86219e-16)
(0.0283818 7.55386e-09 7.26484e-16)
(0.0283817 9.91835e-09 2.80748e-16)
(0.0283816 1.23611e-08 2.48311e-16)
(0.0283814 1.34578e-08 3.3064e-16)
(0.0283813 1.36028e-08 2.94818e-16)
(0.0283812 1.29939e-08 4.54297e-16)
(0.028381 1.19248e-08 5.10647e-16)
(0.0283809 1.06126e-08 3.7696e-16)
(0.0283808 9.17566e-09 5.26235e-16)
(0.0283807 7.68461e-09 3.2465e-16)
(0.0283806 6.19047e-09 3.84744e-16)
(0.0283806 4.73654e-09 1.67623e-16)
(0.0283805 3.35852e-09 8.95758e-17)
(0.0283805 2.08439e-09 4.75256e-16)
(0.0283805 9.32839e-10 1.48378e-16)
(0.0283805 -9.03784e-11 2.15148e-16)
(0.0283805 -9.90859e-10 -7.92353e-18)
(0.0283805 -1.78135e-09 -2.99351e-16)
(0.0283805 -2.47702e-09 4.24868e-16)
(0.0283806 -3.08863e-09 -2.24301e-16)
(0.0283806 -3.62183e-09 1.35839e-16)
(0.0283806 -4.08095e-09 -1.84502e-16)
(0.0283807 -4.47187e-09 -3.5306e-16)
(0.0283807 -4.80308e-09 4.54985e-16)
(0.0283808 -5.08421e-09 -7.99911e-17)
(0.0283808 -5.32402e-09 1.22205e-16)
(0.0283809 -5.52954e-09 -2.88805e-16)
(0.028381 -5.7065e-09 -4.44513e-16)
(0.028381 -5.85969e-09 3.62542e-16)
(0.0283811 -5.99356e-09 -3.92138e-16)
(0.0283812 -6.11074e-09 1.31026e-17)
(0.0283812 -6.21267e-09 -3.97062e-16)
(0.0283813 -6.29656e-09 -6.02197e-16)
(0.0283814 -6.36045e-09 2.68283e-16)
(0.0283814 -6.39305e-09 -4.88154e-17)
(0.0283815 -6.39517e-09 2.77634e-17)
(0.0283816 -6.33501e-09 -3.85831e-16)
(0.0283816 -6.22251e-09 -5.53218e-16)
(0.0283817 -5.98027e-09 -2.54867e-16)
(0.0283818 -5.59448e-09 -2.2992e-16)
(0.0283818 -5.06219e-09 9.91197e-17)
(0.0283819 -3.96963e-09 6.45509e-17)
(0.0283819 -3.20878e-09 1.79561e-16)
(0.028382 -1.26347e-09 2.53801e-16)
(0.028382 7.29681e-10 9.71436e-17)
(0.028382 1.23502e-09 3.72622e-16)
(0.028382 1.09347e-09 3.1816e-16)
(0.0283819 2.7384e-10 3.91252e-16)
(0.028382 -2.034e-10 4.21536e-16)
(0.028382 -7.39149e-10 2.70443e-16)
(0.028382 -1.24307e-09 5.05567e-16)
(0.028382 -1.63884e-09 3.70645e-16)
(0.028382 -1.91142e-09 6.67737e-16)
(0.028382 -2.03009e-09 5.94303e-16)
(0.028382 -1.9839e-09 3.94953e-16)
(0.0283821 -1.77498e-09 6.15548e-16)
(0.0283821 -1.41966e-09 4.7907e-16)
(0.0283821 -9.46726e-10 7.97828e-16)
(0.0283821 -3.92238e-10 7.24792e-16)
(0.0283821 2.04961e-10 4.77954e-16)
(0.0283821 8.08343e-10 6.6151e-16)
(0.0283821 1.38627e-09 5.18465e-16)
(0.028382 1.91362e-09 8.74828e-16)
(0.028382 2.37262e-09 8.52836e-16)
(0.028382 2.753e-09 5.61465e-16)
(0.028382 3.05068e-09 7.67823e-16)
(0.0283819 3.26661e-09 6.68309e-16)
(0.0283819 3.40546e-09 9.87175e-16)
(0.0283818 3.47442e-09 9.02029e-16)
(0.0283818 3.48201e-09 6.14514e-16)
(0.0283818 3.43688e-09 7.83338e-16)
(0.0283817 3.34733e-09 6.66769e-16)
(0.0283817 3.2208e-09 8.69196e-16)
(0.0283816 3.06374e-09 8.72239e-16)
(0.0283816 2.88149e-09 6.81226e-16)
(0.0283816 2.67906e-09 8.77784e-16)
(0.0283816 2.46009e-09 7.73215e-16)
(0.0283815 2.22853e-09 1.01539e-15)
(0.0283815 1.98517e-09 7.73939e-16)
(0.0283815 1.73461e-09 9.21897e-16)
(0.0283815 1.46872e-09 9.38251e-16)
(0.0283815 1.19775e-09 5.73166e-16)
(0.0283814 8.97982e-10 7.4268e-16)
(0.0283814 5.85117e-10 5.6649e-16)
(0.0283814 2.73685e-10 7.71082e-16)
(0.0283814 1.19946e-10 7.83054e-16)
(0.0283814 7.96722e-11 4.86973e-16)
(0.0283814 9.12903e-11 6.97605e-16)
(0.0283814 1.32736e-10 4.35788e-16)
(0.0283814 5.13909e-11 6.33322e-16)
(0.0283814 -7.47092e-11 6.15499e-16)
(0.0283814 -2.2641e-10 3.45252e-16)
(0.0283814 -4.06123e-10 5.24556e-16)
(0.0283814 -6.09884e-10 3.83509e-16)
(0.0283814 -8.53031e-10 5.53082e-16)
(0.0283814 -1.1138e-09 6.41377e-16)
(0.0283814 -1.40357e-09 3.86042e-16)
(0.0283815 -1.64083e-09 5.65961e-16)
(0.0283815 -1.80101e-09 4.9945e-16)
(0.0283815 -1.85949e-09 6.75385e-16)
(0.0283815 -1.42412e-09 6.98724e-16)
(0.0283815 -1.23767e-09 3.97628e-16)
(0.0283816 -6.4298e-11 5.88963e-16)
(0.0283816 1.67477e-09 3.93236e-16)
(0.0283815 1.93987e-09 5.76019e-16)
(0.0283815 1.55203e-09 6.38754e-16)
(0.0283815 7.82395e-10 3.4986e-16)
(0.0283815 -1.3714e-10 5.22902e-16)
(0.0283815 -9.92749e-10 3.64538e-16)
(0.0283815 -1.69108e-09 2.98055e-16)
(0.0283816 -2.20411e-09 6.53044e-16)
(0.0283816 -2.4507e-09 4.62028e-16)
(0.0283816 -2.52277e-09 6.07268e-16)
(0.0283816 -2.18248e-09 4.6119e-16)
(0.0283817 -1.44067e-09 4.09455e-16)
(0.0283817 -1.55645e-09 7.60542e-16)
(0.0283817 3.70649e-09 5.27707e-16)
(0.0283817 -8.68492e-09 7.31527e-16)
(0.0366735 -2.13348e-08 9.64553e-16)
(0.0366736 1.94934e-09 8.66882e-16)
(0.0366736 1.19629e-08 9.29934e-16)
(0.0366734 1.69043e-08 6.64284e-16)
(0.0366733 2.0905e-08 5.69567e-16)
(0.0366731 2.26848e-08 4.28906e-16)
(0.0366729 2.2829e-08 5.6811e-16)
(0.0366727 2.17437e-08 6.80488e-16)
(0.0366726 1.9913e-08 7.31739e-16)
(0.0366724 1.76902e-08 6.45176e-16)
(0.0366723 1.52712e-08 7.68006e-16)
(0.0366722 1.27718e-08 3.60489e-16)
(0.0366721 1.02746e-08 5.15445e-16)
(0.036672 7.84858e-09 1.42866e-16)
(0.036672 5.54958e-09 1.60058e-16)
(0.0366719 3.42021e-09 4.55787e-16)
(0.0366719 1.48967e-09 1.19893e-16)
(0.0366719 -2.30713e-10 2.8701e-16)
(0.0366719 -1.74533e-09 -8.92697e-17)
(0.0366719 -3.07054e-09 -1.33186e-16)
(0.036672 -4.22973e-09 4.105e-16)
(0.036672 -5.24275e-09 1.94629e-16)
(0.036672 -6.1232e-09 2.5982e-16)
(0.0366721 -6.88178e-09 2.83694e-16)
(0.0366722 -7.52992e-09 -3.64938e-17)
(0.0366722 -8.08137e-09 5.41918e-16)
(0.0366723 -8.55088e-09 3.97135e-16)
(0.0366724 -8.9516e-09 2.04211e-16)
(0.0366724 -9.29436e-09 1.51927e-16)
(0.0366725 -9.58791e-09 -1.95138e-16)
(0.0366726 -9.84013e-09 4.07902e-16)
(0.0366727 -1.00582e-08 2.08512e-16)
(0.0366728 -1.02475e-08 7.64269e-17)
(0.0366728 -1.04116e-08 2.93127e-17)
(0.0366729 -1.05479e-08 -3.37818e-16)
(0.036673 -1.06538e-08 2.8166e-16)
(0.0366731 -1.07125e-08 2.33048e-16)
(0.0366732 -1.07226e-08 7.54684e-17)
(0.0366733 -1.06356e-08 2.85784e-17)
(0.0366734 -1.0462e-08 -3.09532e-16)
(0.0366734 -1.0084e-08 -1.80037e-16)
(0.0366735 -9.48447e-09 5.48791e-18)
(0.0366736 -8.63064e-09 2.21217e-16)
(0.0366737 -6.96377e-09 4.83489e-17)
(0.0366737 -5.6865e-09 2.62411e-16)
(0.0366738 -2.69705e-09 3.35867e-16)
(0.0366738 4.28521e-10 4.00331e-16)
(0.0366738 1.44015e-09 5.48532e-16)
(0.0366738 1.36511e-09 3.72126e-16)
(0.0366738 2.25747e-10 5.30732e-16)
(0.0366738 -5.06569e-10 5.47246e-16)
(0.0366738 -1.31787e-09 6.15874e-16)
(0.0366738 -2.08169e-09 7.07057e-16)
(0.0366738 -2.68555e-09 7.41536e-16)
(0.0366738 -3.09021e-09 6.96694e-16)
(0.0366739 -3.24477e-09 7.28145e-16)
(0.0366739 -3.12869e-09 7.775e-16)
(0.0366739 -2.74552e-09 8.47608e-16)
(0.0366739 -2.12396e-09 8.77103e-16)
(0.0366739 -1.31323e-09 1.0106e-15)
(0.0366739 -3.74601e-10 9.02118e-16)
(0.0366739 6.27042e-10 9.16935e-16)
(0.0366739 1.63136e-09 9.1502e-16)
(0.0366739 2.58688e-09 9.21544e-16)
(0.0366739 3.45321e-09 1.10325e-15)
(0.0366738 4.20264e-09 1.03201e-15)
(0.0366738 4.81945e-09 9.50012e-16)
(0.0366738 5.29809e-09 1.03674e-15)
(0.0366737 5.64097e-09 1.14191e-15)
(0.0366737 5.85622e-09 1.09731e-15)
(0.0366736 5.95594e-09 1.12986e-15)
(0.0366736 5.9543e-09 1.044e-15)
(0.0366735 5.86589e-09 1.06174e-15)
(0.0366735 5.70475e-09 1.12475e-15)
(0.0366734 5.48367e-09 1.04609e-15)
(0.0366734 5.21375e-09 1.06956e-15)
(0.0366733 4.9042e-09 1.1299e-15)
(0.0366733 4.5632e-09 1.18804e-15)
(0.0366732 4.19697e-09 1.27913e-15)
(0.0366732 3.81155e-09 1.29359e-15)
(0.0366732 3.40858e-09 1.36266e-15)
(0.0366732 2.99426e-09 1.18796e-15)
(0.0366731 2.55786e-09 1.14865e-15)
(0.0366731 2.11225e-09 1.10118e-15)
(0.0366731 1.62483e-09 8.47103e-16)
(0.0366731 1.11506e-09 1.07978e-15)
(0.0366731 6.09011e-10 8.00953e-16)
(0.0366731 3.33635e-10 9.77332e-16)
(0.0366731 2.38279e-10 9.80738e-16)
(0.0366731 2.36056e-10 5.4249e-16)
(0.0366731 2.83847e-10 9.40428e-16)
(0.0366731 1.59213e-10 4.3588e-16)
(0.036673 -4.18371e-11 7.72243e-16)
(0.036673 -2.91984e-10 8.04963e-16)
(0.0366731 -5.9379e-10 3.69084e-16)
(0.0366731 -9.44146e-10 8.62745e-16)
(0.0366731 -1.36451e-09 7.61691e-16)
(0.0366731 -1.8236e-09 8.22414e-16)
(0.0366731 -2.33338e-09 8.69632e-16)
(0.0366731 -2.76918e-09 7.12957e-16)
(0.0366731 -3.09151e-09 1.02894e-15)
(0.0366732 -3.23627e-09 8.57125e-16)
(0.0366732 -2.66026e-09 8.98391e-16)
(0.0366732 -2.36506e-09 8.67467e-16)
(0.0366732 -6.1612e-10 7.47651e-16)
(0.0366732 2.01047e-09 8.68234e-16)
(0.0366732 2.58971e-09 7.72341e-16)
(0.0366732 2.11043e-09 7.96527e-16)
(0.0366732 9.87143e-10 7.94162e-16)
(0.0366732 -3.9973e-10 7.03821e-16)
(0.0366732 -1.72177e-09 8.01559e-16)
(0.0366733 -2.81094e-09 8.17542e-16)
(0.0366733 -3.62326e-09 9.4403e-16)
(0.0366733 -4.01299e-09 9.4464e-16)
(0.0366733 -4.14601e-09 7.82559e-16)
(0.0366734 -3.58886e-09 9.33777e-16)
(0.0366734 -2.54688e-09 9.65203e-16)
(0.0366734 -2.3813e-09 1.08412e-15)
(0.0366734 4.99896e-09 1.05636e-15)
(0.0366734 -1.21373e-08 7.17587e-16)
(0.0447106 -2.77639e-08 1.21636e-15)
(0.0447106 1.77913e-09 1.01368e-15)
(0.0447106 1.72018e-08 1.14029e-15)
(0.0447104 2.55821e-08 9.99014e-16)
(0.0447103 3.14362e-08 8.98645e-16)
(0.04471 3.39624e-08 8.21977e-16)
(0.0447098 3.40379e-08 8.58081e-16)
(0.0447096 3.23374e-08 9.18673e-16)
(0.0447094 2.95679e-08 9.15715e-16)
(0.0447093 2.62355e-08 9.18788e-16)
(0.0447091 2.26256e-08 1.00861e-15)
(0.044709 1.89062e-08 6.46683e-16)
(0.0447089 1.51974e-08 6.92078e-16)
(0.0447088 1.1598e-08 3.64002e-16)
(0.0447088 8.1862e-09 2.96994e-16)
(0.0447087 5.02015e-09 6.46202e-16)
(0.0447087 2.14043e-09 3.44309e-16)
(0.0447087 -4.33559e-10 3.99503e-16)
(0.0447087 -2.70206e-09 8.20798e-17)
(0.0447087 -4.68303e-09 3.05758e-17)
(0.0447088 -6.40779e-09 2.95255e-16)
(0.0447088 -7.90768e-09 3.65082e-16)
(0.0447089 -9.20798e-09 4.29409e-16)
(0.0447089 -1.03294e-08 2.6102e-16)
(0.044709 -1.1291e-08 2.5986e-16)
(0.0447091 -1.21129e-08 5.123e-16)
(0.0447091 -1.2815e-08 3.09159e-16)
(0.0447092 -1.34152e-08 2.55091e-16)
(0.0447093 -1.3928e-08 6.44689e-17)
(0.0447094 -1.43657e-08 1.30885e-17)
(0.0447095 -1.47395e-08 3.22957e-16)
(0.0447096 -1.506e-08 1.31751e-16)
(0.0447097 -1.5336e-08 1.13193e-16)
(0.0447098 -1.55747e-08 1.01549e-17)
(0.0447099 -1.57745e-08 -5.82081e-17)
(0.04471 -1.5933e-08 2.38555e-16)
(0.0447101 -1.60279e-08 1.07064e-16)
(0.0447102 -1.60534e-08 9.4696e-17)
(0.0447103 -1.59435e-08 -2.00063e-18)
(0.0447104 -1.57053e-08 -4.8955e-17)
(0.0447105 -1.51802e-08 -2.8599e-17)
(0.0447106 -1.43424e-08 2.31526e-16)
(0.0447107 -1.3127e-08 3.76956e-16)
(0.0447107 -1.08298e-08 4.53387e-16)
(0.0447108 -8.94774e-09 4.01811e-16)
(0.0447109 -4.8049e-09 4.24666e-16)
(0.0447109 -4.05925e-10 9.17118e-16)
(0.0447109 1.27487e-09 7.46912e-16)
(0.0447109 1.38396e-09 9.5738e-16)
(0.0447109 -1.667e-11 7.14723e-16)
(0.0447109 -9.91324e-10 6.71328e-16)
(0.0447109 -2.08358e-09 1.01653e-15)
(0.0447109 -3.11255e-09 9.25817e-16)
(0.044711 -3.92797e-09 1.20033e-15)
(0.044711 -4.45652e-09 1.08308e-15)
(0.044711 -4.62207e-09 8.48885e-16)
(0.044711 -4.39183e-09 1.04254e-15)
(0.0447111 -3.7719e-09 1.09394e-15)
(0.0447111 -2.80713e-09 1.36088e-15)
(0.0447111 -1.57252e-09 1.27572e-15)
(0.0447111 -1.60224e-10 1.05421e-15)
(0.0447111 1.33371e-09 1.19357e-15)
(0.044711 2.82074e-09 1.19403e-15)
(0.044711 4.22635e-09 1.27991e-15)
(0.044711 5.49322e-09 1.3439e-15)
(0.0447109 6.58275e-09 1.19943e-15)
(0.0447109 7.47387e-09 1.58674e-15)
(0.0447108 8.16e-09 1.31519e-15)
(0.0447108 8.64566e-09 1.65643e-15)
(0.0447107 8.94352e-09 1.57018e-15)
(0.0447107 9.0715e-09 1.33153e-15)
(0.0447106 9.05056e-09 1.68359e-15)
(0.0447106 8.90233e-09 1.36244e-15)
(0.0447105 8.64798e-09 1.50924e-15)
(0.0447104 8.30676e-09 1.47705e-15)
(0.0447104 7.89554e-09 1.28531e-15)
(0.0447103 7.42844e-09 1.62523e-15)
(0.0447103 6.91753e-09 1.49479e-15)
(0.0447103 6.37204e-09 1.66482e-15)
(0.0447102 5.80032e-09 1.56534e-15)
(0.0447102 5.20511e-09 1.93077e-15)
(0.0447101 4.59421e-09 1.11589e-15)
(0.0447101 3.95423e-09 1.38943e-15)
(0.0447101 3.30046e-09 1.58502e-15)
(0.0447101 2.59103e-09 1.05811e-15)
(0.0447101 1.8489e-09 1.75549e-15)
(0.04471 1.11253e-09 9.24942e-16)
(0.04471 6.81328e-10 1.19227e-15)
(0.04471 5.03559e-10 1.44903e-15)
(0.04471 4.69702e-10 1.05756e-15)
(0.04471 5.12423e-10 1.4676e-15)
(0.04471 3.35809e-10 8.46132e-16)
(0.04471 4.66972e-11 9.65044e-16)
(0.04471 -3.23822e-10 1.22443e-15)
(0.04471 -7.79196e-10 5.60869e-16)
(0.04471 -1.31827e-09 1.52556e-15)
(0.04471 -1.96835e-09 9.81025e-16)
(0.04471 -2.68764e-09 1.04596e-15)
(0.0447101 -3.4848e-09 1.31821e-15)
(0.0447101 -4.18926e-09 9.09167e-16)
(0.0447101 -4.73925e-09 1.48844e-15)
(0.0447101 -5.02409e-09 9.95825e-16)
(0.0447102 -4.3464e-09 1.11212e-15)
(0.0447102 -3.94768e-09 1.32907e-15)
(0.0447102 -1.59937e-09 9.35803e-16)
(0.0447103 1.97568e-09 1.35147e-15)
(0.0447102 2.97032e-09 7.9725e-16)
(0.0447102 2.47701e-09 1.00273e-15)
(0.0447102 1.02706e-09 1.22294e-15)
(0.0447102 -8.33494e-10 8.85641e-16)
(0.0447103 -2.64849e-09 1.27627e-15)
(0.0447103 -4.16343e-09 1.31403e-15)
(0.0447103 -5.30354e-09 1.25485e-15)
(0.0447103 -5.86168e-09 1.37833e-15)
(0.0447104 -6.05546e-09 8.26825e-16)
(0.0447104 -5.28005e-09 1.41837e-15)
(0.0447104 -3.90403e-09 1.4885e-15)
(0.0447105 -3.35647e-09 1.41874e-15)
(0.0447105 6.13184e-09 1.53877e-15)
(0.0447105 -1.54058e-08 1.09989e-15)
(0.0521642 -3.30303e-08 1.5395e-15)
(0.0521643 2.23051e-09 1.41168e-15)
(0.0521642 2.31723e-08 1.39101e-15)
(0.0521641 3.53911e-08 1.30468e-15)
(0.0521639 4.32259e-08 1.20362e-15)
(0.0521637 4.64993e-08 1.12939e-15)
(0.0521634 4.64532e-08 1.13299e-15)
(0.0521632 4.4063e-08 1.16035e-15)
(0.052163 4.02667e-08 1.17245e-15)
(0.0521629 3.57235e-08 1.16641e-15)
(0.0521627 3.08108e-08 1.23658e-15)
(0.0521626 2.57524e-08 8.03724e-16)
(0.0521625 2.071e-08 8.79703e-16)
(0.0521624 1.58155e-08 4.96609e-16)
(0.0521623 1.11714e-08 4.70761e-16)
(0.0521623 6.85204e-09 9.03418e-16)
(0.0521623 2.91009e-09 4.48541e-16)
(0.0521622 -6.25157e-10 5.25598e-16)
(0.0521623 -3.74746e-09 3.05214e-17)
(0.0521623 -6.4743e-09 2.06899e-16)
(0.0521623 -8.8433e-09 2.61641e-16)
(0.0521624 -1.08977e-08 5.1869e-16)
(0.0521624 -1.26766e-08 6.01566e-16)
(0.0521625 -1.4213e-08 1.93582e-16)
(0.0521626 -1.55354e-08 5.25705e-16)
(0.0521626 -1.6671e-08 5.74122e-16)
(0.0521627 -1.7645e-08 2.35251e-16)
(0.0521628 -1.84796e-08 3.0823e-16)
(0.0521629 -1.91932e-08 6.9084e-17)
(0.052163 -1.98018e-08 2.29709e-16)
(0.0521631 -2.03199e-08 3.41989e-16)
(0.0521632 -2.0762e-08 8.03475e-17)
(0.0521633 -2.1141e-08 1.56304e-16)
(0.0521634 -2.14679e-08 2.85002e-17)
(0.0521635 -2.17436e-08 2.11168e-16)
(0.0521636 -2.19663e-08 2.71164e-16)
(0.0521637 -2.21086e-08 -9.23824e-17)
(0.0521638 -2.21598e-08 1.1599e-16)
(0.0521639 -2.20358e-08 -3.86414e-17)
(0.052164 -2.17376e-08 1.81499e-16)
(0.0521642 -2.10667e-08 1.55227e-16)
(0.0521643 -1.99845e-08 5.12651e-16)
(0.0521644 -1.83927e-08 5.28742e-16)
(0.0521644 -1.54458e-08 5.05939e-16)
(0.0521645 -1.29117e-08 5.47374e-16)
(0.0521646 -7.5657e-09 5.29301e-16)
(0.0521646 -1.81533e-09 9.1036e-16)
(0.0521646 6.63373e-10 9.12757e-16)
(0.0521647 1.08045e-09 8.93288e-16)
(0.0521647 -4.8851e-10 8.78378e-16)
(0.0521647 -1.65687e-09 7.98341e-16)
(0.0521647 -3.00416e-09 1.17431e-15)
(0.0521647 -4.27785e-09 1.10043e-15)
(0.0521647 -5.28566e-09 1.37797e-15)
(0.0521648 -5.91299e-09 1.31608e-15)
(0.0521648 -6.05483e-09 9.34995e-16)
(0.0521648 -5.66536e-09 1.37169e-15)
(0.0521648 -4.75512e-09 1.2868e-15)
(0.0521648 -3.38856e-09 1.56089e-15)
(0.0521648 -1.67025e-09 1.52712e-15)
(0.0521648 2.73834e-10 1.16282e-15)
(0.0521648 2.31389e-09 1.56743e-15)
(0.0521648 4.33145e-09 1.40104e-15)
(0.0521648 6.228e-09 1.64123e-15)
(0.0521647 7.92909e-09 1.63132e-15)
(0.0521647 9.38535e-09 1.30644e-15)
(0.0521646 1.05706e-08 1.64447e-15)
(0.0521646 1.14779e-08 1.57663e-15)
(0.0521645 1.21144e-08 1.91434e-15)
(0.0521644 1.24977e-08 1.86133e-15)
(0.0521644 1.2652e-08 1.47527e-15)
(0.0521643 1.26054e-08 1.78146e-15)
(0.0521643 1.23872e-08 1.62666e-15)
(0.0521642 1.20262e-08 1.90494e-15)
(0.0521641 1.15487e-08 1.83831e-15)
(0.0521641 1.09781e-08 1.43495e-15)
(0.052164 1.0334e-08 1.84571e-15)
(0.052164 9.63281e-09 1.75212e-15)
(0.0521639 8.88704e-09 2.07494e-15)
(0.0521639 8.10767e-09 1.88808e-15)
(0.0521638 7.29859e-09 2.38338e-15)
(0.0521638 6.46924e-09 1.8435e-15)
(0.0521638 5.60358e-09 1.6777e-15)
(0.0521638 4.71931e-09 1.97142e-15)