/*--------------------------------*- C++ -*----------------------------------*\
  =========                 |
  \\      /  F ield         | OpenFOAM: The Open Source CFD Toolbox
   \\    /   O peration     | Website:  https://openfoam.org
    \\  /    A nd           | Version:  7
     \\/     M anipulation  |
\*---------------------------------------------------------------------------*/
FoamFile
{
    version     2.0;
    format      ascii;
    class       volScalarField;
    location    "19500";
    object      k;
}
// * * * * * * * * * * * * * * * * * * * * * * * * * * * * * * * * * * * * * //

dimensions      [0 2 -2 0 0 0 0];

internalField   nonuniform List<scalar> 
4000
(
8.94974e-05
8.94975e-05
8.94977e-05
8.94978e-05
8.94979e-05
8.9498e-05
8.94981e-05
8.94982e-05
8.94983e-05
8.94984e-05
8.94985e-05
8.94986e-05
8.94987e-05
8.94987e-05
8.94988e-05
8.94989e-05
8.94989e-05
8.9499e-05
8.9499e-05
8.94991e-05
8.94991e-05
8.94992e-05
8.94992e-05
8.94992e-05
8.94993e-05
8.94993e-05
8.94993e-05
8.94993e-05
8.94993e-05
8.94993e-05
8.94993e-05
8.94994e-05
8.94994e-05
8.94994e-05
8.94994e-05
8.94994e-05
8.94994e-05
8.94993e-05
8.94993e-05
8.94993e-05
8.94993e-05
8.94993e-05
8.94993e-05
8.94993e-05
8.94992e-05
8.94993e-05
8.94994e-05
8.94995e-05
8.94995e-05
8.94996e-05
8.94997e-05
8.94998e-05
8.94999e-05
8.94999e-05
8.95e-05
8.95001e-05
8.95001e-05
8.95002e-05
8.95003e-05
8.95003e-05
8.95004e-05
8.95004e-05
8.95005e-05
8.95005e-05
8.95005e-05
8.95006e-05
8.95006e-05
8.95006e-05
8.95006e-05
8.95006e-05
8.95006e-05
8.95006e-05
8.95006e-05
8.95006e-05
8.95006e-05
8.95006e-05
8.95006e-05
8.95006e-05
8.95006e-05
8.95005e-05
8.95005e-05
8.95005e-05
8.95004e-05
8.95004e-05
8.95003e-05
8.95003e-05
8.95002e-05
8.95001e-05
8.95001e-05
8.95e-05
8.94999e-05
8.94998e-05
8.94997e-05
8.94996e-05
8.94995e-05
8.94994e-05
8.94993e-05
8.94992e-05
8.94991e-05
8.9499e-05
8.94988e-05
8.94987e-05
8.94986e-05
8.94984e-05
8.94983e-05
8.94983e-05
8.94982e-05
8.94982e-05
8.94981e-05
8.94981e-05
8.9498e-05
8.9498e-05
8.94979e-05
8.94978e-05
8.94977e-05
8.94976e-05
8.94975e-05
8.94974e-05
8.94973e-05
8.94973e-05
8.96037e-05
8.96039e-05
8.9604e-05
8.96041e-05
8.96042e-05
8.96044e-05
8.96045e-05
8.96046e-05
8.96047e-05
8.96048e-05
8.96049e-05
8.9605e-05
8.9605e-05
8.96051e-05
8.96052e-05
8.96053e-05
8.96053e-05
8.96054e-05
8.96054e-05
8.96055e-05
8.96055e-05
8.96056e-05
8.96056e-05
8.96057e-05
8.96057e-05
8.96058e-05
8.96058e-05
8.96058e-05
8.96058e-05
8.96059e-05
8.96059e-05
8.96059e-05
8.96059e-05
8.9606e-05
8.9606e-05
8.9606e-05
8.9606e-05
8.9606e-05
8.9606e-05
8.9606e-05
8.9606e-05
8.9606e-05
8.9606e-05
8.9606e-05
8.9606e-05
8.9606e-05
8.96061e-05
8.96061e-05
8.96062e-05
8.96063e-05
8.96064e-05
8.96064e-05
8.96065e-05
8.96066e-05
8.96066e-05
8.96067e-05
8.96068e-05
8.96068e-05
8.96069e-05
8.96069e-05
8.9607e-05
8.9607e-05
8.96071e-05
8.96071e-05
8.96071e-05
8.96072e-05
8.96072e-05
8.96072e-05
8.96072e-05
8.96072e-05
8.96073e-05
8.96073e-05
8.96073e-05
8.96073e-05
8.96073e-05
8.96072e-05
8.96072e-05
8.96072e-05
8.96072e-05
8.96071e-05
8.96071e-05
8.96071e-05
8.9607e-05
8.9607e-05
8.96069e-05
8.96069e-05
8.96068e-05
8.96068e-05
8.96067e-05
8.96066e-05
8.96065e-05
8.96064e-05
8.96064e-05
8.96063e-05
8.96062e-05
8.96061e-05
8.9606e-05
8.96058e-05
8.96057e-05
8.96056e-05
8.96055e-05
8.96053e-05
8.96052e-05
8.96051e-05
8.96049e-05
8.96048e-05
8.96048e-05
8.96047e-05
8.96046e-05
8.96045e-05
8.96045e-05
8.96044e-05
8.96043e-05
8.96042e-05
8.96041e-05
8.9604e-05
8.96039e-05
8.96038e-05
8.96037e-05
8.96036e-05
8.97851e-05
8.97852e-05
8.97854e-05
8.97855e-05
8.97856e-05
8.97857e-05
8.97858e-05
8.97859e-05
8.9786e-05
8.97861e-05
8.97862e-05
8.97863e-05
8.97864e-05
8.97865e-05
8.97866e-05
8.97867e-05
8.97867e-05
8.97868e-05
8.97869e-05
8.9787e-05
8.9787e-05
8.97871e-05
8.97871e-05
8.97872e-05
8.97873e-05
8.97873e-05
8.97874e-05
8.97874e-05
8.97874e-05
8.97875e-05
8.97875e-05
8.97876e-05
8.97876e-05
8.97876e-05
8.97877e-05
8.97877e-05
8.97877e-05
8.97878e-05
8.97878e-05
8.97878e-05
8.97878e-05
8.97878e-05
8.97879e-05
8.97879e-05
8.97879e-05
8.97879e-05
8.97879e-05
8.9788e-05
8.9788e-05
8.97881e-05
8.97881e-05
8.97882e-05
8.97883e-05
8.97883e-05
8.97884e-05
8.97885e-05
8.97885e-05
8.97886e-05
8.97886e-05
8.97887e-05
8.97887e-05
8.97888e-05
8.97888e-05
8.97888e-05
8.97889e-05
8.97889e-05
8.97889e-05
8.97889e-05
8.9789e-05
8.9789e-05
8.9789e-05
8.9789e-05
8.9789e-05
8.9789e-05
8.9789e-05
8.97889e-05
8.97889e-05
8.97889e-05
8.97889e-05
8.97888e-05
8.97888e-05
8.97888e-05
8.97887e-05
8.97887e-05
8.97886e-05
8.97886e-05
8.97885e-05
8.97884e-05
8.97884e-05
8.97883e-05
8.97882e-05
8.97881e-05
8.9788e-05
8.97879e-05
8.97878e-05
8.97877e-05
8.97876e-05
8.97875e-05
8.97874e-05
8.97873e-05
8.97872e-05
8.9787e-05
8.97869e-05
8.97867e-05
8.97866e-05
8.97865e-05
8.97864e-05
8.97862e-05
8.97861e-05
8.97861e-05
8.9786e-05
8.97859e-05
8.97858e-05
8.97857e-05
8.97855e-05
8.97854e-05
8.97853e-05
8.97852e-05
8.97851e-05
8.9785e-05
9.00373e-05
9.00374e-05
9.00376e-05
9.00377e-05
9.00378e-05
9.00379e-05
9.00381e-05
9.00382e-05
9.00383e-05
9.00384e-05
9.00385e-05
9.00386e-05
9.00387e-05
9.00388e-05
9.00389e-05
9.0039e-05
9.0039e-05
9.00391e-05
9.00392e-05
9.00393e-05
9.00394e-05
9.00395e-05
9.00395e-05
9.00396e-05
9.00397e-05
9.00397e-05
9.00398e-05
9.00399e-05
9.00399e-05
9.004e-05
9.00401e-05
9.00401e-05
9.00402e-05
9.00402e-05
9.00403e-05
9.00403e-05
9.00404e-05
9.00404e-05
9.00405e-05
9.00405e-05
9.00405e-05
9.00406e-05
9.00406e-05
9.00406e-05
9.00407e-05
9.00407e-05
9.00407e-05
9.00407e-05
9.00408e-05
9.00408e-05
9.00409e-05
9.00409e-05
9.0041e-05
9.00411e-05
9.00411e-05
9.00412e-05
9.00412e-05
9.00413e-05
9.00413e-05
9.00414e-05
9.00414e-05
9.00414e-05
9.00415e-05
9.00415e-05
9.00415e-05
9.00416e-05
9.00416e-05
9.00416e-05
9.00416e-05
9.00416e-05
9.00416e-05
9.00416e-05
9.00416e-05
9.00416e-05
9.00416e-05
9.00416e-05
9.00415e-05
9.00415e-05
9.00415e-05
9.00414e-05
9.00414e-05
9.00413e-05
9.00413e-05
9.00412e-05
9.00412e-05
9.00411e-05
9.00411e-05
9.0041e-05
9.00409e-05
9.00408e-05
9.00408e-05
9.00407e-05
9.00406e-05
9.00405e-05
9.00404e-05
9.00403e-05
9.00402e-05
9.004e-05
9.00399e-05
9.00398e-05
9.00397e-05
9.00395e-05
9.00394e-05
9.00393e-05
9.00391e-05
9.0039e-05
9.00388e-05
9.00387e-05
9.00386e-05
9.00384e-05
9.00383e-05
9.00382e-05
9.00381e-05
9.0038e-05
9.00378e-05
9.00377e-05
9.00376e-05
9.00375e-05
9.00373e-05
9.00372e-05
9.03568e-05
9.03569e-05
9.03571e-05
9.03572e-05
9.03573e-05
9.03574e-05
9.03575e-05
9.03577e-05
9.03578e-05
9.03579e-05
9.0358e-05
9.03581e-05
9.03582e-05
9.03583e-05
9.03584e-05
9.03585e-05
9.03586e-05
9.03587e-05
9.03588e-05
9.03589e-05
9.0359e-05
9.03591e-05
9.03592e-05
9.03593e-05
9.03594e-05
9.03595e-05
9.03596e-05
9.03597e-05
9.03598e-05
9.03598e-05
9.03599e-05
9.036e-05
9.03601e-05
9.03601e-05
9.03602e-05
9.03603e-05
9.03603e-05
9.03604e-05
9.03605e-05
9.03605e-05
9.03606e-05
9.03606e-05
9.03607e-05
9.03607e-05
9.03608e-05
9.03608e-05
9.03608e-05
9.03609e-05
9.03609e-05
9.03609e-05
9.0361e-05
9.0361e-05
9.03611e-05
9.03611e-05
9.03612e-05
9.03612e-05
9.03613e-05
9.03613e-05
9.03614e-05
9.03614e-05
9.03614e-05
9.03615e-05
9.03615e-05
9.03615e-05
9.03615e-05
9.03615e-05
9.03615e-05
9.03616e-05
9.03616e-05
9.03616e-05
9.03615e-05
9.03615e-05
9.03615e-05
9.03615e-05
9.03615e-05
9.03615e-05
9.03614e-05
9.03614e-05
9.03614e-05
9.03613e-05
9.03613e-05
9.03612e-05
9.03612e-05
9.03611e-05
9.0361e-05
9.0361e-05
9.03609e-05
9.03608e-05
9.03607e-05
9.03607e-05
9.03606e-05
9.03605e-05
9.03604e-05
9.03603e-05
9.03602e-05
9.03601e-05
9.03599e-05
9.03598e-05
9.03597e-05
9.03596e-05
9.03594e-05
9.03593e-05
9.03592e-05
9.0359e-05
9.03589e-05
9.03587e-05
9.03586e-05
9.03584e-05
9.03583e-05
9.03581e-05
9.0358e-05
9.03578e-05
9.03577e-05
9.03575e-05
9.03574e-05
9.03573e-05
9.03571e-05
9.0357e-05
9.03568e-05
9.03567e-05
9.07405e-05
9.07406e-05
9.07407e-05
9.07408e-05
9.0741e-05
9.07411e-05
9.07412e-05
9.07413e-05
9.07415e-05
9.07416e-05
9.07417e-05
9.07418e-05
9.07419e-05
9.07421e-05
9.07422e-05
9.07423e-05
9.07424e-05
9.07426e-05
9.07427e-05
9.07428e-05
9.07429e-05
9.0743e-05
9.07431e-05
9.07433e-05
9.07434e-05
9.07435e-05
9.07436e-05
9.07437e-05
9.07438e-05
9.07439e-05
9.0744e-05
9.07441e-05
9.07442e-05
9.07443e-05
9.07444e-05
9.07445e-05
9.07445e-05
9.07446e-05
9.07447e-05
9.07448e-05
9.07448e-05
9.07449e-05
9.0745e-05
9.0745e-05
9.07451e-05
9.07451e-05
9.07452e-05
9.07452e-05
9.07453e-05
9.07453e-05
9.07453e-05
9.07454e-05
9.07454e-05
9.07455e-05
9.07455e-05
9.07455e-05
9.07456e-05
9.07456e-05
9.07456e-05
9.07456e-05
9.07457e-05
9.07457e-05
9.07457e-05
9.07457e-05
9.07457e-05
9.07457e-05
9.07457e-05
9.07457e-05
9.07457e-05
9.07457e-05
9.07457e-05
9.07457e-05
9.07457e-05
9.07456e-05
9.07456e-05
9.07456e-05
9.07455e-05
9.07455e-05
9.07454e-05
9.07454e-05
9.07453e-05
9.07453e-05
9.07452e-05
9.07451e-05
9.07451e-05
9.0745e-05
9.07449e-05
9.07448e-05
9.07447e-05
9.07446e-05
9.07445e-05
9.07444e-05
9.07443e-05
9.07442e-05
9.07441e-05
9.0744e-05
9.07439e-05
9.07437e-05
9.07436e-05
9.07435e-05
9.07433e-05
9.07432e-05
9.07431e-05
9.07429e-05
9.07427e-05
9.07426e-05
9.07424e-05
9.07423e-05
9.07421e-05
9.07419e-05
9.07418e-05
9.07416e-05
9.07415e-05
9.07413e-05
9.07411e-05
9.0741e-05
9.07408e-05
9.07407e-05
9.07405e-05
9.07404e-05
9.11856e-05
9.11858e-05
9.11859e-05
9.1186e-05
9.11861e-05
9.11863e-05
9.11864e-05
9.11865e-05
9.11867e-05
9.11868e-05
9.11869e-05
9.11871e-05
9.11872e-05
9.11873e-05
9.11875e-05
9.11876e-05
9.11878e-05
9.11879e-05
9.11881e-05
9.11882e-05
9.11883e-05
9.11885e-05
9.11886e-05
9.11887e-05
9.11889e-05
9.1189e-05
9.11891e-05
9.11893e-05
9.11894e-05
9.11895e-05
9.11896e-05
9.11897e-05
9.11899e-05
9.119e-05
9.11901e-05
9.11902e-05
9.11903e-05
9.11904e-05
9.11905e-05
9.11906e-05
9.11907e-05
9.11908e-05
9.11908e-05
9.11909e-05
9.1191e-05
9.1191e-05
9.11911e-05
9.11911e-05
9.11912e-05
9.11912e-05
9.11912e-05
9.11913e-05
9.11913e-05
9.11913e-05
9.11914e-05
9.11914e-05
9.11914e-05
9.11914e-05
9.11914e-05
9.11915e-05
9.11915e-05
9.11915e-05
9.11915e-05
9.11915e-05
9.11915e-05
9.11915e-05
9.11915e-05
9.11914e-05
9.11914e-05
9.11914e-05
9.11914e-05
9.11913e-05
9.11913e-05
9.11913e-05
9.11912e-05
9.11912e-05
9.11911e-05
9.11911e-05
9.1191e-05
9.1191e-05
9.11909e-05
9.11908e-05
9.11907e-05
9.11907e-05
9.11906e-05
9.11905e-05
9.11904e-05
9.11903e-05
9.11902e-05
9.11901e-05
9.119e-05
9.11899e-05
9.11898e-05
9.11897e-05
9.11895e-05
9.11894e-05
9.11893e-05
9.11891e-05
9.1189e-05
9.11889e-05
9.11887e-05
9.11886e-05
9.11884e-05
9.11883e-05
9.11881e-05
9.11879e-05
9.11878e-05
9.11876e-05
9.11874e-05
9.11872e-05
9.11871e-05
9.11869e-05
9.11867e-05
9.11865e-05
9.11864e-05
9.11862e-05
9.1186e-05
9.11859e-05
9.11857e-05
9.11856e-05
9.169e-05
9.16901e-05
9.16903e-05
9.16904e-05
9.16905e-05
9.16907e-05
9.16908e-05
9.16909e-05
9.16911e-05
9.16913e-05
9.16914e-05
9.16916e-05
9.16917e-05
9.16919e-05
9.1692e-05
9.16922e-05
9.16924e-05
9.16925e-05
9.16927e-05
9.16929e-05
9.1693e-05
9.16932e-05
9.16933e-05
9.16935e-05
9.16937e-05
9.16938e-05
9.1694e-05
9.16941e-05
9.16943e-05
9.16944e-05
9.16945e-05
9.16947e-05
9.16948e-05
9.1695e-05
9.16951e-05
9.16952e-05
9.16953e-05
9.16955e-05
9.16956e-05
9.16957e-05
9.16958e-05
9.16959e-05
9.16959e-05
9.1696e-05
9.16961e-05
9.16962e-05
9.16962e-05
9.16963e-05
9.16963e-05
9.16964e-05
9.16964e-05
9.16964e-05
9.16964e-05
9.16965e-05
9.16965e-05
9.16965e-05
9.16965e-05
9.16965e-05
9.16965e-05
9.16965e-05
9.16965e-05
9.16965e-05
9.16965e-05
9.16965e-05
9.16965e-05
9.16964e-05
9.16964e-05
9.16964e-05
9.16964e-05
9.16963e-05
9.16963e-05
9.16962e-05
9.16962e-05
9.16961e-05
9.16961e-05
9.1696e-05
9.16959e-05
9.16959e-05
9.16958e-05
9.16957e-05
9.16957e-05
9.16956e-05
9.16955e-05
9.16954e-05
9.16953e-05
9.16952e-05
9.16951e-05
9.1695e-05
9.16949e-05
9.16948e-05
9.16947e-05
9.16945e-05
9.16944e-05
9.16943e-05
9.16941e-05
9.1694e-05
9.16939e-05
9.16937e-05
9.16936e-05
9.16934e-05
9.16933e-05
9.16931e-05
9.1693e-05
9.16928e-05
9.16926e-05
9.16924e-05
9.16923e-05
9.16921e-05
9.16919e-05
9.16917e-05
9.16915e-05
9.16913e-05
9.16912e-05
9.1691e-05
9.16908e-05
9.16906e-05
9.16904e-05
9.16903e-05
9.16901e-05
9.16899e-05
9.22516e-05
9.22517e-05
9.22519e-05
9.2252e-05
9.22522e-05
9.22523e-05
9.22525e-05
9.22526e-05
9.22528e-05
9.2253e-05
9.22532e-05
9.22533e-05
9.22535e-05
9.22537e-05
9.22539e-05
9.22541e-05
9.22543e-05
9.22545e-05
9.22546e-05
9.22548e-05
9.2255e-05
9.22552e-05
9.22554e-05
9.22556e-05
9.22557e-05
9.22559e-05
9.22561e-05
9.22563e-05
9.22564e-05
9.22566e-05
9.22568e-05
9.22569e-05
9.22571e-05
9.22572e-05
9.22574e-05
9.22575e-05
9.22577e-05
9.22578e-05
9.22579e-05
9.2258e-05
9.22581e-05
9.22582e-05
9.22583e-05
9.22584e-05
9.22585e-05
9.22586e-05
9.22586e-05
9.22587e-05
9.22587e-05
9.22588e-05
9.22588e-05
9.22588e-05
9.22588e-05
9.22588e-05
9.22588e-05
9.22589e-05
9.22588e-05
9.22588e-05
9.22588e-05
9.22588e-05
9.22588e-05
9.22588e-05
9.22588e-05
9.22587e-05
9.22587e-05
9.22587e-05
9.22586e-05
9.22586e-05
9.22585e-05
9.22585e-05
9.22584e-05
9.22583e-05
9.22583e-05
9.22582e-05
9.22581e-05
9.22581e-05
9.2258e-05
9.22579e-05
9.22578e-05
9.22577e-05
9.22576e-05
9.22575e-05
9.22574e-05
9.22573e-05
9.22572e-05
9.22571e-05
9.2257e-05
9.22569e-05
9.22568e-05
9.22566e-05
9.22565e-05
9.22564e-05
9.22562e-05
9.22561e-05
9.2256e-05
9.22558e-05
9.22557e-05
9.22555e-05
9.22554e-05
9.22552e-05
9.2255e-05
9.22549e-05
9.22547e-05
9.22545e-05
9.22543e-05
9.22542e-05
9.2254e-05
9.22538e-05
9.22536e-05
9.22534e-05
9.22532e-05
9.2253e-05
9.22528e-05
9.22526e-05
9.22524e-05
9.22522e-05
9.2252e-05
9.22519e-05
9.22517e-05
9.22515e-05
9.28688e-05
9.28689e-05
9.2869e-05
9.28692e-05
9.28694e-05
9.28695e-05
9.28697e-05
9.28699e-05
9.28701e-05
9.28703e-05
9.28705e-05
9.28707e-05
9.28709e-05
9.28711e-05
9.28713e-05
9.28715e-05
9.28718e-05
9.2872e-05
9.28722e-05
9.28724e-05
9.28726e-05
9.28728e-05
9.2873e-05
9.28732e-05
9.28734e-05
9.28736e-05
9.28738e-05
9.2874e-05
9.28742e-05
9.28744e-05
9.28746e-05
9.28748e-05
9.28749e-05
9.28751e-05
9.28753e-05
9.28754e-05
9.28756e-05
9.28757e-05
9.28759e-05
9.2876e-05
9.28761e-05
9.28762e-05
9.28763e-05
9.28764e-05
9.28765e-05
9.28765e-05
9.28766e-05
9.28766e-05
9.28767e-05
9.28767e-05
9.28767e-05
9.28767e-05
9.28767e-05
9.28767e-05
9.28767e-05
9.28767e-05
9.28767e-05
9.28767e-05
9.28767e-05
9.28766e-05
9.28766e-05
9.28766e-05
9.28765e-05
9.28765e-05
9.28764e-05
9.28764e-05
9.28763e-05
9.28762e-05
9.28762e-05
9.28761e-05
9.2876e-05
9.2876e-05
9.28759e-05
9.28758e-05
9.28757e-05
9.28756e-05
9.28755e-05
9.28754e-05
9.28753e-05
9.28752e-05
9.28751e-05
9.2875e-05
9.28749e-05
9.28748e-05
9.28747e-05
9.28745e-05
9.28744e-05
9.28743e-05
9.28741e-05
9.2874e-05
9.28739e-05
9.28737e-05
9.28736e-05
9.28734e-05
9.28733e-05
9.28731e-05
9.28729e-05
9.28728e-05
9.28726e-05
9.28724e-05
9.28723e-05
9.28721e-05
9.28719e-05
9.28717e-05
9.28715e-05
9.28714e-05
9.28712e-05
9.2871e-05
9.28708e-05
9.28706e-05
9.28704e-05
9.28702e-05
9.287e-05
9.28698e-05
9.28696e-05
9.28694e-05
9.28692e-05
9.2869e-05
9.28688e-05
9.28687e-05
9.35399e-05
9.35401e-05
9.35403e-05
9.35404e-05
9.35406e-05
9.35408e-05
9.3541e-05
9.35413e-05
9.35415e-05
9.35417e-05
9.35419e-05
9.35422e-05
9.35424e-05
9.35426e-05
9.35429e-05
9.35431e-05
9.35434e-05
9.35436e-05
9.35438e-05
9.35441e-05
9.35443e-05
9.35446e-05
9.35448e-05
9.3545e-05
9.35453e-05
9.35455e-05
9.35457e-05
9.35459e-05
9.35461e-05
9.35463e-05
9.35465e-05
9.35467e-05
9.35469e-05
9.35471e-05
9.35473e-05
9.35474e-05
9.35476e-05
9.35477e-05
9.35479e-05
9.3548e-05
9.35481e-05
9.35482e-05
9.35483e-05
9.35484e-05
9.35485e-05
9.35485e-05
9.35486e-05
9.35486e-05
9.35487e-05
9.35487e-05
9.35487e-05
9.35487e-05
9.35487e-05
9.35487e-05
9.35487e-05
9.35486e-05
9.35486e-05
9.35486e-05
9.35485e-05
9.35485e-05
9.35484e-05
9.35484e-05
9.35483e-05
9.35482e-05
9.35482e-05
9.35481e-05
9.3548e-05
9.35479e-05
9.35479e-05
9.35478e-05
9.35477e-05
9.35476e-05
9.35475e-05
9.35474e-05
9.35473e-05
9.35472e-05
9.35471e-05
9.3547e-05
9.35468e-05
9.35467e-05
9.35466e-05
9.35465e-05
9.35464e-05
9.35462e-05
9.35461e-05
9.35459e-05
9.35458e-05
9.35457e-05
9.35455e-05
9.35454e-05
9.35452e-05
9.35451e-05
9.35449e-05
9.35447e-05
9.35446e-05
9.35444e-05
9.35442e-05
9.35441e-05
9.35439e-05
9.35437e-05
9.35435e-05
9.35433e-05
9.35431e-05
9.3543e-05
9.35428e-05
9.35426e-05
9.35424e-05
9.35422e-05
9.3542e-05
9.35417e-05
9.35415e-05
9.35413e-05
9.35411e-05
9.35409e-05
9.35407e-05
9.35405e-05
9.35403e-05
9.35402e-05
9.354e-05
9.35398e-05
9.42639e-05
9.42641e-05
9.42643e-05
9.42645e-05
9.42647e-05
9.42649e-05
9.42652e-05
9.42654e-05
9.42657e-05
9.42659e-05
9.42662e-05
9.42665e-05
9.42667e-05
9.4267e-05
9.42673e-05
9.42675e-05
9.42678e-05
9.42681e-05
9.42683e-05
9.42686e-05
9.42689e-05
9.42691e-05
9.42694e-05
9.42696e-05
9.42699e-05
9.42701e-05
9.42704e-05
9.42706e-05
9.42708e-05
9.42711e-05
9.42713e-05
9.42715e-05
9.42717e-05
9.42719e-05
9.42721e-05
9.42722e-05
9.42724e-05
9.42725e-05
9.42727e-05
9.42728e-05
9.42729e-05
9.4273e-05
9.42731e-05
9.42732e-05
9.42732e-05
9.42733e-05
9.42733e-05
9.42733e-05
9.42734e-05
9.42734e-05
9.42734e-05
9.42734e-05
9.42733e-05
9.42733e-05
9.42733e-05
9.42732e-05
9.42732e-05
9.42731e-05
9.42731e-05
9.4273e-05
9.4273e-05
9.42729e-05
9.42728e-05
9.42727e-05
9.42726e-05
9.42725e-05
9.42724e-05
9.42724e-05
9.42723e-05
9.42721e-05
9.4272e-05
9.42719e-05
9.42718e-05
9.42717e-05
9.42716e-05
9.42715e-05
9.42713e-05
9.42712e-05
9.42711e-05
9.42709e-05
9.42708e-05
9.42707e-05
9.42705e-05
9.42704e-05
9.42702e-05
9.42701e-05
9.42699e-05
9.42698e-05
9.42696e-05
9.42694e-05
9.42693e-05
9.42691e-05
9.42689e-05
9.42688e-05
9.42686e-05
9.42684e-05
9.42682e-05
9.4268e-05
9.42679e-05
9.42677e-05
9.42675e-05
9.42673e-05
9.42671e-05
9.42669e-05
9.42667e-05
9.42665e-05
9.42663e-05
9.42661e-05
9.42659e-05
9.42657e-05
9.42654e-05
9.42652e-05
9.4265e-05
9.42648e-05
9.42646e-05
9.42644e-05
9.42643e-05
9.42641e-05
9.42639e-05
9.42638e-05
9.50395e-05
9.50397e-05
9.50399e-05
9.50402e-05
9.50404e-05
9.50407e-05
9.5041e-05
9.50413e-05
9.50415e-05
9.50418e-05
9.50421e-05
9.50424e-05
9.50427e-05
9.5043e-05
9.50433e-05
9.50436e-05
9.50439e-05
9.50442e-05
9.50445e-05
9.50448e-05
9.50451e-05
9.50454e-05
9.50457e-05
9.5046e-05
9.50462e-05
9.50465e-05
9.50467e-05
9.5047e-05
9.50472e-05
9.50475e-05
9.50477e-05
9.50479e-05
9.50481e-05
9.50483e-05
9.50485e-05
9.50487e-05
9.50488e-05
9.5049e-05
9.50491e-05
9.50492e-05
9.50493e-05
9.50494e-05
9.50495e-05
9.50495e-05
9.50496e-05
9.50496e-05
9.50496e-05
9.50496e-05
9.50496e-05
9.50496e-05
9.50496e-05
9.50496e-05
9.50496e-05
9.50495e-05
9.50495e-05
9.50494e-05
9.50493e-05
9.50493e-05
9.50492e-05
9.50491e-05
9.5049e-05
9.50489e-05
9.50488e-05
9.50487e-05
9.50486e-05
9.50485e-05
9.50484e-05
9.50483e-05
9.50482e-05
9.50481e-05
9.50479e-05
9.50478e-05
9.50477e-05
9.50476e-05
9.50474e-05
9.50473e-05
9.50472e-05
9.5047e-05
9.50469e-05
9.50467e-05
9.50466e-05
9.50464e-05
9.50463e-05
9.50461e-05
9.50459e-05
9.50458e-05
9.50456e-05
9.50454e-05
9.50453e-05
9.50451e-05
9.50449e-05
9.50447e-05
9.50446e-05
9.50444e-05
9.50442e-05
9.5044e-05
9.50438e-05
9.50436e-05
9.50434e-05
9.50432e-05
9.5043e-05
9.50428e-05
9.50426e-05
9.50424e-05
9.50422e-05
9.5042e-05
9.50418e-05
9.50416e-05
9.50413e-05
9.50411e-05
9.50409e-05
9.50407e-05
9.50405e-05
9.50403e-05
9.50401e-05
9.50399e-05
9.50398e-05
9.50396e-05
9.50395e-05
9.50394e-05
9.58658e-05
9.5866e-05
9.58663e-05
9.58665e-05
9.58668e-05
9.58671e-05
9.58675e-05
9.58678e-05
9.58681e-05
9.58684e-05
9.58688e-05
9.58691e-05
9.58694e-05
9.58698e-05
9.58701e-05
9.58704e-05
9.58707e-05
9.58711e-05
9.58714e-05
9.58717e-05
9.5872e-05
9.58723e-05
9.58726e-05
9.58729e-05
9.58732e-05
9.58735e-05
9.58738e-05
9.5874e-05
9.58743e-05
9.58745e-05
9.58748e-05
9.5875e-05
9.58752e-05
9.58754e-05
9.58756e-05
9.58757e-05
9.58759e-05
9.5876e-05
9.58761e-05
9.58762e-05
9.58763e-05
9.58764e-05
9.58764e-05
9.58764e-05
9.58765e-05
9.58765e-05
9.58765e-05
9.58765e-05
9.58765e-05
9.58764e-05
9.58764e-05
9.58763e-05
9.58763e-05
9.58762e-05
9.58762e-05
9.58761e-05
9.5876e-05
9.58759e-05
9.58758e-05
9.58757e-05
9.58756e-05
9.58755e-05
9.58754e-05
9.58753e-05
9.58752e-05
9.5875e-05
9.58749e-05
9.58748e-05
9.58746e-05
9.58745e-05
9.58744e-05
9.58742e-05
9.58741e-05
9.58739e-05
9.58738e-05
9.58736e-05
9.58735e-05
9.58733e-05
9.58732e-05
9.5873e-05
9.58729e-05
9.58727e-05
9.58725e-05
9.58724e-05
9.58722e-05
9.5872e-05
9.58718e-05
9.58717e-05
9.58715e-05
9.58713e-05
9.58711e-05
9.58709e-05
9.58707e-05
9.58705e-05
9.58703e-05
9.58701e-05
9.58699e-05
9.58697e-05
9.58695e-05
9.58693e-05
9.58691e-05
9.58689e-05
9.58687e-05
9.58685e-05
9.58683e-05
9.58681e-05
9.58678e-05
9.58676e-05
9.58674e-05
9.58672e-05
9.5867e-05
9.58668e-05
9.58666e-05
9.58664e-05
9.58662e-05
9.58661e-05
9.58659e-05
9.58658e-05
9.58656e-05
9.58656e-05
9.67417e-05
9.6742e-05
9.67423e-05
9.67426e-05
9.6743e-05
9.67433e-05
9.67437e-05
9.6744e-05
9.67444e-05
9.67447e-05
9.67451e-05
9.67455e-05
9.67458e-05
9.67462e-05
9.67466e-05
9.67469e-05
9.67473e-05
9.67476e-05
9.6748e-05
9.67483e-05
9.67486e-05
9.6749e-05
9.67493e-05
9.67496e-05
9.67499e-05
9.67502e-05
9.67505e-05
9.67507e-05
9.6751e-05
9.67512e-05
9.67515e-05
9.67517e-05
9.67519e-05
9.67521e-05
9.67523e-05
9.67524e-05
9.67525e-05
9.67526e-05
9.67527e-05
9.67528e-05
9.67529e-05
9.67529e-05
9.67529e-05
9.67529e-05
9.67529e-05
9.67529e-05
9.67529e-05
9.67529e-05
9.67528e-05
9.67528e-05
9.67527e-05
9.67527e-05
9.67526e-05
9.67525e-05
9.67524e-05
9.67523e-05
9.67522e-05
9.67521e-05
9.6752e-05
9.67519e-05
9.67518e-05
9.67516e-05
9.67515e-05
9.67514e-05
9.67512e-05
9.67511e-05
9.6751e-05
9.67508e-05
9.67507e-05
9.67505e-05
9.67504e-05
9.67502e-05
9.67501e-05
9.67499e-05
9.67498e-05
9.67496e-05
9.67494e-05
9.67493e-05
9.67491e-05
9.67489e-05
9.67488e-05
9.67486e-05
9.67484e-05
9.67482e-05
9.6748e-05
9.67479e-05
9.67477e-05
9.67475e-05
9.67473e-05
9.67471e-05
9.67469e-05
9.67467e-05
9.67465e-05
9.67463e-05
9.67461e-05
9.67459e-05
9.67457e-05
9.67455e-05
9.67453e-05
9.67451e-05
9.67449e-05
9.67446e-05
9.67444e-05
9.67442e-05
9.6744e-05
9.67438e-05
9.67435e-05
9.67433e-05
9.67431e-05
9.67429e-05
9.67427e-05
9.67425e-05
9.67423e-05
9.67422e-05
9.6742e-05
9.67419e-05
9.67417e-05
9.67416e-05
9.67415e-05
9.67415e-05
9.76665e-05
9.76669e-05
9.76672e-05
9.76676e-05
9.7668e-05
9.76684e-05
9.76688e-05
9.76691e-05
9.76695e-05
9.76699e-05
9.76703e-05
9.76707e-05
9.76711e-05
9.76715e-05
9.76719e-05
9.76723e-05
9.76727e-05
9.7673e-05
9.76734e-05
9.76738e-05
9.76741e-05
9.76744e-05
9.76748e-05
9.76751e-05
9.76754e-05
9.76757e-05
9.7676e-05
9.76763e-05
9.76765e-05
9.76768e-05
9.7677e-05
9.76772e-05
9.76774e-05
9.76776e-05
9.76777e-05
9.76778e-05
9.76779e-05
9.7678e-05
9.76781e-05
9.76781e-05
9.76782e-05
9.76782e-05
9.76782e-05
9.76782e-05
9.76781e-05
9.76781e-05
9.7678e-05
9.7678e-05
9.76779e-05
9.76778e-05
9.76777e-05
9.76777e-05
9.76776e-05
9.76775e-05
9.76774e-05
9.76772e-05
9.76771e-05
9.7677e-05
9.76769e-05
9.76767e-05
9.76766e-05
9.76765e-05
9.76763e-05
9.76762e-05
9.7676e-05
9.76759e-05
9.76757e-05
9.76756e-05
9.76754e-05
9.76753e-05
9.76751e-05
9.7675e-05
9.76748e-05
9.76746e-05
9.76745e-05
9.76743e-05
9.76741e-05
9.76739e-05
9.76738e-05
9.76736e-05
9.76734e-05
9.76732e-05
9.7673e-05
9.76728e-05
9.76726e-05
9.76725e-05
9.76723e-05
9.76721e-05
9.76719e-05
9.76717e-05
9.76715e-05
9.76713e-05
9.76711e-05
9.76709e-05
9.76706e-05
9.76704e-05
9.76702e-05
9.767e-05
9.76698e-05
9.76696e-05
9.76694e-05
9.76691e-05
9.76689e-05
9.76687e-05
9.76685e-05
9.76682e-05
9.7668e-05
9.76678e-05
9.76676e-05
9.76674e-05
9.76672e-05
9.7667e-05
9.76669e-05
9.76667e-05
9.76666e-05
9.76665e-05
9.76664e-05
9.76663e-05
9.76663e-05
9.76663e-05
9.86394e-05
9.86398e-05
9.86402e-05
9.86406e-05
9.8641e-05
9.86415e-05
9.86419e-05
9.86423e-05
9.86428e-05
9.86432e-05
9.86436e-05
9.8644e-05
9.86445e-05
9.86449e-05
9.86453e-05
9.86457e-05
9.86461e-05
9.86465e-05
9.86468e-05
9.86472e-05
9.86476e-05
9.86479e-05
9.86482e-05
9.86486e-05
9.86489e-05
9.86492e-05
9.86495e-05
9.86497e-05
9.865e-05
9.86502e-05
9.86504e-05
9.86506e-05
9.86508e-05
9.86509e-05
9.86511e-05
9.86511e-05
9.86512e-05
9.86513e-05
9.86513e-05
9.86513e-05
9.86513e-05
9.86513e-05
9.86513e-05
9.86512e-05
9.86511e-05
9.86511e-05
9.8651e-05
9.86509e-05
9.86508e-05
9.86507e-05
9.86506e-05
9.86505e-05
9.86504e-05
9.86503e-05
9.86501e-05
9.865e-05
9.86499e-05
9.86498e-05
9.86496e-05
9.86495e-05
9.86493e-05
9.86492e-05
9.8649e-05
9.86489e-05
9.86487e-05
9.86486e-05
9.86484e-05
9.86482e-05
9.86481e-05
9.86479e-05
9.86477e-05
9.86476e-05
9.86474e-05
9.86472e-05
9.8647e-05
9.86469e-05
9.86467e-05
9.86465e-05
9.86463e-05
9.86461e-05
9.86459e-05
9.86458e-05
9.86456e-05
9.86454e-05
9.86452e-05
9.8645e-05
9.86448e-05
9.86446e-05
9.86444e-05
9.86442e-05
9.8644e-05
9.86438e-05
9.86435e-05
9.86433e-05
9.86431e-05
9.86429e-05
9.86427e-05
9.86425e-05
9.86423e-05
9.8642e-05
9.86418e-05
9.86416e-05
9.86414e-05
9.86411e-05
9.86409e-05
9.86407e-05
9.86405e-05
9.86403e-05
9.86401e-05
9.86399e-05
9.86397e-05
9.86396e-05
9.86395e-05
9.86394e-05
9.86393e-05
9.86392e-05
9.86391e-05
9.86391e-05
9.86391e-05
9.86391e-05
9.96595e-05
9.966e-05
9.96604e-05
9.96609e-05
9.96613e-05
9.96618e-05
9.96623e-05
9.96627e-05
9.96632e-05
9.96636e-05
9.96641e-05
9.96645e-05
9.9665e-05
9.96654e-05
9.96658e-05
9.96663e-05
9.96667e-05
9.96671e-05
9.96674e-05
9.96678e-05
9.96682e-05
9.96685e-05
9.96689e-05
9.96692e-05
9.96695e-05
9.96698e-05
9.96701e-05
9.96703e-05
9.96706e-05
9.96708e-05
9.9671e-05
9.96711e-05
9.96713e-05
9.96714e-05
9.96714e-05
9.96715e-05
9.96715e-05
9.96715e-05
9.96715e-05
9.96715e-05
9.96715e-05
9.96714e-05
9.96713e-05
9.96713e-05
9.96712e-05
9.96711e-05
9.9671e-05
9.96709e-05
9.96708e-05
9.96706e-05
9.96705e-05
9.96704e-05
9.96703e-05
9.96701e-05
9.967e-05
9.96698e-05
9.96697e-05
9.96695e-05
9.96694e-05
9.96692e-05
9.96691e-05
9.96689e-05
9.96688e-05
9.96686e-05
9.96684e-05
9.96683e-05
9.96681e-05
9.96679e-05
9.96678e-05
9.96676e-05
9.96674e-05
9.96673e-05
9.96671e-05
9.96669e-05
9.96667e-05
9.96665e-05
9.96664e-05
9.96662e-05
9.9666e-05
9.96658e-05
9.96656e-05
9.96654e-05
9.96652e-05
9.9665e-05
9.96648e-05
9.96646e-05
9.96644e-05
9.96642e-05
9.9664e-05
9.96638e-05
9.96636e-05
9.96634e-05
9.96632e-05
9.96629e-05
9.96627e-05
9.96625e-05
9.96623e-05
9.96621e-05
9.96619e-05
9.96616e-05
9.96614e-05
9.96612e-05
9.9661e-05
9.96607e-05
9.96605e-05
9.96603e-05
9.96601e-05
9.96599e-05
9.96597e-05
9.96596e-05
9.96594e-05
9.96593e-05
9.96592e-05
9.96592e-05
9.96591e-05
9.96591e-05
9.96591e-05
9.96591e-05
9.96591e-05
9.96592e-05
0.000100726
0.000100727
0.000100727
0.000100728
0.000100728
0.000100729
0.000100729
0.00010073
0.00010073
0.00010073
0.000100731
0.000100731
0.000100732
0.000100732
0.000100733
0.000100733
0.000100734
0.000100734
0.000100734
0.000100735
0.000100735
0.000100735
0.000100736
0.000100736
0.000100736
0.000100737
0.000100737
0.000100737
0.000100737
0.000100738
0.000100738
0.000100738
0.000100738
0.000100738
0.000100738
0.000100738
0.000100738
0.000100738
0.000100738
0.000100738
0.000100738
0.000100738
0.000100738
0.000100738
0.000100737
0.000100737
0.000100737
0.000100737
0.000100737
0.000100737
0.000100737
0.000100736
0.000100736
0.000100736
0.000100736
0.000100736
0.000100736
0.000100736
0.000100735
0.000100735
0.000100735
0.000100735
0.000100735
0.000100735
0.000100734
0.000100734
0.000100734
0.000100734
0.000100734
0.000100734
0.000100733
0.000100733
0.000100733
0.000100733
0.000100733
0.000100732
0.000100732
0.000100732
0.000100732
0.000100732
0.000100732
0.000100731
0.000100731
0.000100731
0.000100731
0.000100731
0.00010073
0.00010073
0.00010073
0.00010073
0.00010073
0.000100729
0.000100729
0.000100729
0.000100729
0.000100728
0.000100728
0.000100728
0.000100728
0.000100728
0.000100727
0.000100727
0.000100727
0.000100727
0.000100726
0.000100726
0.000100726
0.000100726
0.000100726
0.000100726
0.000100726
0.000100725
0.000100725
0.000100725
0.000100725
0.000100725
0.000100726
0.000100726
0.000100726
0.000100726
0.000101838
0.000101839
0.000101839
0.00010184
0.00010184
0.000101841
0.000101841
0.000101842
0.000101842
0.000101843
0.000101843
0.000101844
0.000101844
0.000101845
0.000101845
0.000101846
0.000101846
0.000101846
0.000101847
0.000101847
0.000101847
0.000101848
0.000101848
0.000101848
0.000101849
0.000101849
0.000101849
0.000101849
0.00010185
0.00010185
0.00010185
0.00010185
0.00010185
0.00010185
0.00010185
0.00010185
0.00010185
0.00010185
0.00010185
0.00010185
0.000101849
0.000101849
0.000101849
0.000101849
0.000101849
0.000101849
0.000101849
0.000101849
0.000101848
0.000101848
0.000101848
0.000101848
0.000101848
0.000101848
0.000101847
0.000101847
0.000101847
0.000101847
0.000101847
0.000101847
0.000101846
0.000101846
0.000101846
0.000101846
0.000101846
0.000101846
0.000101845
0.000101845
0.000101845
0.000101845
0.000101845
0.000101845
0.000101844
0.000101844
0.000101844
0.000101844
0.000101844
0.000101844
0.000101843
0.000101843
0.000101843
0.000101843
0.000101843
0.000101842
0.000101842
0.000101842
0.000101842
0.000101842
0.000101841
0.000101841
0.000101841
0.000101841
0.000101841
0.00010184
0.00010184
0.00010184
0.00010184
0.000101839
0.000101839
0.000101839
0.000101839
0.000101839
0.000101838
0.000101838
0.000101838
0.000101838
0.000101838
0.000101837
0.000101837
0.000101837
0.000101837
0.000101837
0.000101837
0.000101837
0.000101837
0.000101837
0.000101838
0.000101838
0.000101838
0.000101838
0.000102995
0.000102996
0.000102996
0.000102997
0.000102997
0.000102998
0.000102998
0.000102999
0.000102999
0.000103
0.000103
0.000103001
0.000103001
0.000103002
0.000103002
0.000103002
0.000103003
0.000103003
0.000103004
0.000103004
0.000103004
0.000103005
0.000103005
0.000103005
0.000103005
0.000103006
0.000103006
0.000103006
0.000103006
0.000103006
0.000103006
0.000103006
0.000103006
0.000103006
0.000103006
0.000103006
0.000103006
0.000103006
0.000103006
0.000103006
0.000103005
0.000103005
0.000103005
0.000103005
0.000103005
0.000103005
0.000103005
0.000103004
0.000103004
0.000103004
0.000103004
0.000103004
0.000103004
0.000103004
0.000103003
0.000103003
0.000103003
0.000103003
0.000103003
0.000103003
0.000103002
0.000103002
0.000103002