/*--------------------------------*- C++ -*----------------------------------*\
  =========                 |
  \\      /  F ield         | OpenFOAM: The Open Source CFD Toolbox
   \\    /   O peration     | Website:  https://openfoam.org
    \\  /    A nd           | Version:  7
     \\/     M anipulation  |
\*---------------------------------------------------------------------------*/
FoamFile
{
    version     2.0;
    format      ascii;
    class       volVectorField;
    location    "19500";
    object      U;
}
// * * * * * * * * * * * * * * * * * * * * * * * * * * * * * * * * * * * * * //

dimensions      [0 1 -1 0 0 0 0];

internalField   nonuniform List<vector> 
4000
(
(0.145231 -2.17403e-08 3.58662e-14)
(0.145231 -2.60934e-08 3.58613e-14)
(0.145231 -2.94112e-08 3.58079e-14)
(0.145231 -3.23095e-08 3.5795e-14)
(0.145231 -3.49556e-08 3.57471e-14)
(0.145231 -3.73914e-08 3.5716e-14)
(0.145231 -3.96339e-08 3.57382e-14)
(0.145231 -4.16624e-08 3.57295e-14)
(0.145231 -4.34649e-08 3.57195e-14)
(0.145231 -4.50632e-08 3.57719e-14)
(0.145231 -4.64682e-08 3.57524e-14)
(0.145231 -4.76814e-08 3.56554e-14)
(0.145231 -4.87221e-08 3.56558e-14)
(0.145231 -4.96023e-08 3.55855e-14)
(0.145231 -5.03288e-08 3.56197e-14)
(0.145231 -5.09208e-08 3.56162e-14)
(0.145231 -5.13952e-08 3.55366e-14)
(0.145231 -5.17706e-08 3.55636e-14)
(0.145231 -5.20463e-08 3.55138e-14)
(0.145231 -5.22188e-08 3.55582e-14)
(0.145231 -5.22966e-08 3.55535e-14)
(0.145231 -5.22678e-08 3.55967e-14)
(0.145231 -5.21333e-08 3.56008e-14)
(0.145231 -5.18917e-08 3.55885e-14)
(0.145231 -5.15296e-08 3.5617e-14)
(0.145231 -5.10671e-08 3.55711e-14)
(0.145231 -5.05265e-08 3.55355e-14)
(0.145231 -4.99158e-08 3.55381e-14)
(0.145231 -4.92588e-08 3.55462e-14)
(0.145231 -4.8573e-08 3.55771e-14)
(0.145231 -4.78619e-08 3.55479e-14)
(0.145231 -4.71397e-08 3.55256e-14)
(0.145231 -4.64015e-08 3.55252e-14)
(0.145231 -4.56216e-08 3.5518e-14)
(0.145231 -4.47688e-08 3.55492e-14)
(0.145231 -4.37787e-08 3.55131e-14)
(0.14523 -4.25667e-08 3.54923e-14)
(0.14523 -4.10082e-08 3.54802e-14)
(0.14523 -3.88977e-08 3.54639e-14)
(0.14523 -3.59514e-08 3.54795e-14)
(0.14523 -3.1737e-08 3.54727e-14)
(0.14523 -2.56207e-08 3.54781e-14)
(0.14523 -1.64116e-08 3.54583e-14)
(0.14523 -2.2335e-09 3.54545e-14)
(0.14523 2.06339e-08 3.54462e-14)
(0.14523 4.44548e-08 3.54327e-14)
(0.14523 5.96727e-08 3.54091e-14)
(0.14523 6.88764e-08 3.53959e-14)
(0.14523 7.44725e-08 3.53952e-14)
(0.14523 7.76099e-08 3.53989e-14)
(0.14523 7.90852e-08 3.54027e-14)
(0.14523 7.94176e-08 3.54253e-14)
(0.14523 7.89357e-08 3.54105e-14)
(0.14523 7.78712e-08 3.53995e-14)
(0.14523 7.64082e-08 3.53967e-14)
(0.14523 7.46625e-08 3.54164e-14)
(0.14523 7.26948e-08 3.54372e-14)
(0.14523 7.05755e-08 3.5423e-14)
(0.14523 6.83722e-08 3.53997e-14)
(0.14523 6.61047e-08 3.53934e-14)
(0.14523 6.37887e-08 3.54125e-14)
(0.14523 6.14358e-08 3.5435e-14)
(0.14523 5.90583e-08 3.54353e-14)
(0.14523 5.66757e-08 3.54536e-14)
(0.14523 5.42871e-08 3.54419e-14)
(0.14523 5.18981e-08 3.54636e-14)
(0.14523 4.95259e-08 3.54834e-14)
(0.14523 4.71698e-08 3.54771e-14)
(0.14523 4.4835e-08 3.54814e-14)
(0.14523 4.25235e-08 3.54671e-14)
(0.14523 4.02425e-08 3.548e-14)
(0.14523 3.79845e-08 3.5493e-14)
(0.14523 3.57297e-08 3.54924e-14)
(0.14523 3.34714e-08 3.5509e-14)
(0.14523 3.12139e-08 3.55021e-14)
(0.14523 2.89557e-08 3.55252e-14)
(0.14523 2.66717e-08 3.555e-14)
(0.14523 2.43578e-08 3.55581e-14)
(0.14523 2.19989e-08 3.55726e-14)
(0.14523 1.95861e-08 3.55573e-14)
(0.14523 1.71277e-08 3.55521e-14)
(0.14523 1.46096e-08 3.55779e-14)
(0.14523 1.2016e-08 3.55771e-14)
(0.14523 9.34397e-09 3.55822e-14)
(0.14523 6.58881e-09 3.56172e-14)
(0.14523 3.74273e-09 3.563e-14)
(0.14523 7.98653e-10 3.56549e-14)
(0.14523 -2.238e-09 3.56447e-14)
(0.14523 -5.36524e-09 3.56353e-14)
(0.14523 -8.58002e-09 3.56531e-14)
(0.14523 -1.18658e-08 3.56549e-14)
(0.14523 -1.52196e-08 3.5683e-14)
(0.14523 -1.86073e-08 3.56839e-14)
(0.14523 -2.19764e-08 3.56874e-14)
(0.14523 -2.52783e-08 3.57208e-14)
(0.14523 -2.84247e-08 3.57362e-14)
(0.145231 -3.12716e-08 3.57637e-14)
(0.145231 -3.36206e-08 3.57582e-14)
(0.145231 -3.52038e-08 3.57479e-14)
(0.145231 -3.55829e-08 3.57652e-14)
(0.145231 -3.41119e-08 3.57625e-14)
(0.145231 -2.96063e-08 3.57787e-14)
(0.145231 -2.01518e-08 3.57732e-14)
(0.145231 -2.00413e-09 3.57712e-14)
(0.145231 1.71259e-08 3.57811e-14)
(0.145231 2.77185e-08 3.57779e-14)
(0.145231 3.24005e-08 3.57929e-14)
(0.145231 3.36264e-08 3.57883e-14)
(0.145231 3.25815e-08 3.579e-14)
(0.145231 3.00893e-08 3.58197e-14)
(0.145231 2.66736e-08 3.58368e-14)
(0.145231 2.26909e-08 3.58414e-14)
(0.145231 1.83849e-08 3.58295e-14)
(0.145231 1.39444e-08 3.58332e-14)
(0.145231 9.51832e-09 3.58616e-14)
(0.145231 5.2058e-09 3.58659e-14)
(0.145231 1.07766e-09 3.58612e-14)
(0.145231 -2.91615e-09 3.58349e-14)
(0.145231 -7.5064e-09 3.58245e-14)
(0.145231 -1.46512e-08 3.58551e-14)
(0.145218 -2.73401e-08 3.58421e-14)
(0.145218 -3.23743e-08 3.58238e-14)
(0.145218 -3.4789e-08 3.57236e-14)
(0.145218 -3.64406e-08 3.5732e-14)
(0.145218 -3.78635e-08 3.56529e-14)
(0.145218 -3.91879e-08 3.5752e-14)
(0.145218 -4.04401e-08 3.58549e-14)
(0.145218 -4.15937e-08 3.5755e-14)
(0.145218 -4.26332e-08 3.57925e-14)
(0.145218 -4.35646e-08 3.58805e-14)
(0.145218 -4.43833e-08 3.57742e-14)
(0.145218 -4.50878e-08 3.56791e-14)
(0.145218 -4.56885e-08 3.56382e-14)
(0.145218 -4.6188e-08 3.55894e-14)
(0.145218 -4.65852e-08 3.55794e-14)
(0.145218 -4.68908e-08 3.5571e-14)
(0.145218 -4.71145e-08 3.55343e-14)
(0.145218 -4.72733e-08 3.55272e-14)
(0.145218 -4.73658e-08 3.55028e-14)
(0.145218 -4.73836e-08 3.55048e-14)
(0.145218 -4.73253e-08 3.5446e-14)
(0.145218 -4.71795e-08 3.55723e-14)
(0.145218 -4.69452e-08 3.5571e-14)
(0.145218 -4.66105e-08 3.55539e-14)
(0.145218 -4.61601e-08 3.5623e-14)
(0.145218 -4.56148e-08 3.55207e-14)
(0.145218 -4.49894e-08 3.55054e-14)
(0.145218 -4.42868e-08 3.5504e-14)
(0.145218 -4.35353e-08 3.55277e-14)
(0.145218 -4.27564e-08 3.56651e-14)
(0.145218 -4.19474e-08 3.55154e-14)
(0.145218 -4.11196e-08 3.55232e-14)
(0.145218 -4.02602e-08 3.55214e-14)
(0.145218 -3.93431e-08 3.55323e-14)
(0.145218 -3.83378e-08 3.56036e-14)
(0.145218 -3.71706e-08 3.55054e-14)
(0.145218 -3.57494e-08 3.54552e-14)
(0.145218 -3.39429e-08 3.55043e-14)
(0.145218 -3.15566e-08 3.54948e-14)
(0.145218 -2.83035e-08 3.5563e-14)
(0.145218 -2.37575e-08 3.55348e-14)
(0.145218 -1.73301e-08 3.552e-14)
(0.145218 -8.00902e-09 3.55086e-14)
(0.145218 5.50238e-09 3.55049e-14)
(0.145218 2.54805e-08 3.5501e-14)
(0.145218 4.64063e-08 3.54922e-14)
(0.145218 6.10954e-08 3.5478e-14)
(0.145218 7.0634e-08 3.54667e-14)
(0.145218 7.66534e-08 3.54653e-14)
(0.145218 8.01443e-08 3.54683e-14)
(0.145218 8.1872e-08 3.54707e-14)
(0.145217 8.23698e-08 3.54768e-14)
(0.145217 8.19817e-08 3.54738e-14)
(0.145217 8.09414e-08 3.54696e-14)
(0.145217 7.94474e-08 3.54639e-14)
(0.145217 7.76198e-08 3.54811e-14)
(0.145217 7.55211e-08 3.54976e-14)
(0.145217 7.32362e-08 3.5494e-14)
(0.145217 7.08356e-08 3.54814e-14)
(0.145217 6.83434e-08 3.54724e-14)
(0.145217 6.5786e-08 3.54851e-14)
(0.145217 6.31694e-08 3.55036e-14)
(0.145217 6.0515e-08 3.5513e-14)
(0.145217 5.78453e-08 3.55218e-14)
(0.145217 5.51521e-08 3.55216e-14)
(0.145217 5.24548e-08 3.55412e-14)
(0.145217 4.97661e-08 3.55592e-14)
(0.145217 4.7085e-08 3.5562e-14)
(0.145217 4.4422e-08 3.55624e-14)
(0.145217 4.17755e-08 3.55578e-14)
(0.145217 3.91569e-08 3.55728e-14)
(0.145217 3.65622e-08 3.55891e-14)
(0.145217 3.39718e-08 3.55933e-14)
(0.145217 3.13754e-08 3.55978e-14)
(0.145217 2.87811e-08 3.5598e-14)
(0.145217 2.61941e-08 3.56183e-14)
(0.145217 2.35818e-08 3.56449e-14)
(0.145217 2.09474e-08 3.56591e-14)
(0.145217 1.82752e-08 3.56642e-14)
(0.145217 1.55553e-08 3.565e-14)
(0.145218 1.27978e-08 3.5594e-14)
(0.145218 9.98977e-09 3.56279e-14)
(0.145218 7.11948e-09 3.56269e-14)
(0.145218 4.18902e-09 3.56161e-14)
(0.145218 1.19522e-09 3.56536e-14)
(0.145218 -1.87596e-09 3.56329e-14)
(0.145218 -5.02276e-09 3.57037e-14)
(0.145218 -8.23926e-09 3.56884e-14)
(0.145218 -1.15154e-08 3.56561e-14)
(0.145218 -1.48425e-08 3.56894e-14)
(0.145218 -1.82156e-08 3.56499e-14)
(0.145218 -2.16137e-08 3.57142e-14)
(0.145218 -2.4993e-08 3.57143e-14)
(0.145218 -2.83048e-08 3.5697e-14)
(0.145218 -3.14968e-08 3.57516e-14)
(0.145218 -3.44702e-08 3.57307e-14)
(0.145218 -3.70757e-08 3.57801e-14)
(0.145218 -3.91191e-08 3.57747e-14)
(0.145218 -4.03335e-08 3.57527e-14)
(0.145218 -4.03018e-08 3.57809e-14)
(0.145218 -3.84099e-08 3.57468e-14)
(0.145218 -3.36407e-08 3.57722e-14)
(0.145218 -2.46672e-08 3.57694e-14)
(0.145218 -9.18623e-09 3.57549e-14)
(0.145218 7.32303e-09 3.5783e-14)
(0.145218 1.77156e-08 3.57532e-14)
(0.145218 2.31264e-08 3.57845e-14)
(0.145218 2.52547e-08 3.57871e-14)
(0.145218 2.51397e-08 3.57786e-14)
(0.145218 2.35833e-08 3.58188e-14)
(0.145218 2.11342e-08 3.57941e-14)
(0.145218 1.81796e-08 3.58008e-14)
(0.145218 1.49952e-08 3.57977e-14)
(0.145218 1.17996e-08 3.5795e-14)
(0.145218 8.76188e-09 3.58287e-14)
(0.145218 5.99778e-09 3.58007e-14)
(0.145218 3.585e-09 3.57923e-14)
(0.145218 1.28027e-09 3.57845e-14)
(0.145218 -2.96608e-09 3.57788e-14)
(0.145218 -1.49154e-08 3.58336e-14)
(0.145194 -3.28335e-08 3.58237e-14)
(0.145194 -3.84283e-08 3.57908e-14)
(0.145194 -3.9837e-08 3.57365e-14)
(0.145194 -4.01685e-08 3.57068e-14)
(0.145194 -4.03095e-08 3.56823e-14)
(0.145194 -4.04663e-08 3.57097e-14)
(0.145194 -4.06731e-08 3.57416e-14)
(0.145194 -4.09093e-08 3.57304e-14)
(0.145194 -4.1148e-08 3.57352e-14)
(0.145194 -4.13763e-08 3.57636e-14)
(0.145194 -4.1573e-08 3.5719e-14)
(0.145194 -4.17366e-08 3.56588e-14)
(0.145194 -4.18767e-08 3.56107e-14)
(0.145194 -4.19678e-08 3.55678e-14)
(0.145194 -4.20095e-08 3.55434e-14)
(0.145194 -4.20111e-08 3.55296e-14)
(0.145194 -4.19691e-08 3.55094e-14)
(0.145194 -4.19028e-08 3.54958e-14)
(0.145194 -4.18083e-08 3.54774e-14)
(0.145194 -4.16686e-08 3.54663e-14)
(0.145194 -4.14732e-08 3.54412e-14)
(0.145194 -4.12096e-08 3.54946e-14)
(0.145194 -4.08822e-08 3.55131e-14)
(0.145194 -4.0459e-08 3.55125e-14)
(0.145194 -3.99196e-08 3.55583e-14)
(0.145194 -3.92932e-08 3.55252e-14)
(0.145194 -3.85843e-08 3.54974e-14)
(0.145194 -3.77962e-08 3.55067e-14)
(0.145194 -3.69637e-08 3.55219e-14)
(0.145194 -3.61017e-08 3.55682e-14)
(0.145194 -3.52086e-08 3.55522e-14)
(0.145194 -3.42914e-08 3.55385e-14)
(0.145194 -3.33368e-08 3.55438e-14)
(0.145194 -3.23225e-08 3.55413e-14)
(0.145194 -3.12083e-08 3.55859e-14)
(0.145194 -2.99207e-08 3.55611e-14)
(0.145194 -2.83576e-08 3.55481e-14)
(0.145194 -2.6392e-08 3.5541e-14)
(0.145194 -2.38428e-08 3.55296e-14)
(0.145194 -2.04202e-08 3.55602e-14)
(0.145193 -1.57297e-08 3.55651e-14)
(0.145193 -9.26871e-09 3.55612e-14)
(0.145193 -2.01795e-10 3.55567e-14)
(0.145193 1.2301e-08 3.55595e-14)
(0.145193 2.94788e-08 3.55589e-14)
(0.145193 4.76474e-08 3.55505e-14)
(0.145193 6.16149e-08 3.55396e-14)
(0.145193 7.1369e-08 3.55303e-14)
(0.145193 7.78153e-08 3.55341e-14)
(0.145193 8.17176e-08 3.55384e-14)
(0.145193 8.37635e-08 3.55384e-14)
(0.145193 8.44831e-08 3.55391e-14)
(0.145193 8.42255e-08 3.55365e-14)
(0.145193 8.32425e-08 3.55329e-14)
(0.145193 8.17439e-08 3.55244e-14)
(0.145193 7.98596e-08 3.556e-14)
(0.145193 7.76633e-08 3.55751e-14)
(0.145193 7.52446e-08 3.55713e-14)
(0.145193 7.26752e-08 3.55597e-14)
(0.145193 6.99836e-08 3.55445e-14)
(0.145193 6.72099e-08 3.55636e-14)
(0.145193 6.43634e-08 3.55839e-14)
(0.145193 6.14633e-08 3.5595e-14)
(0.145193 5.85312e-08 3.56041e-14)
(0.145193 5.5571e-08 3.56042e-14)
(0.145193 5.25992e-08 3.5639e-14)
(0.145193 4.96219e-08 3.56529e-14)
(0.145193 4.6647e-08 3.56552e-14)
(0.145193 4.36899e-08 3.56557e-14)
(0.145193 4.07464e-08 3.56483e-14)
(0.145193 3.78282e-08 3.56723e-14)
(0.145193 3.49287e-08 3.56945e-14)
(0.145193 3.20309e-08 3.56987e-14)
(0.145193 2.91285e-08 3.56994e-14)
(0.145193 2.62299e-08 3.56927e-14)
(0.145193 2.33396e-08 3.57142e-14)
(0.145193 2.04352e-08 3.57461e-14)
(0.145193 1.7511e-08 3.57639e-14)
(0.145193 1.45493e-08 3.57671e-14)
(0.145193 1.15533e-08 3.57431e-14)
(0.145193 8.52792e-09 3.5654e-14)
(0.145193 5.45572e-09 3.56969e-14)
(0.145193 2.33924e-09 3.56752e-14)
(0.145193 -8.25544e-10 3.56424e-14)
(0.145193 -4.04315e-09 3.57092e-14)
(0.145193 -7.31389e-09 3.56731e-14)
(0.145194 -1.06406e-08 3.57833e-14)
(0.145194 -1.4011e-08 3.57304e-14)
(0.145194 -1.74169e-08 3.56649e-14)
(0.145194 -2.08476e-08 3.57084e-14)
(0.145194 -2.4287e-08 3.5661e-14)
(0.145194 -2.77202e-08 3.57291e-14)
(0.145194 -3.10948e-08 3.57452e-14)
(0.145194 -3.4352e-08 3.5688e-14)
(0.145194 -3.74376e-08 3.57716e-14)
(0.145194 -4.02536e-08 3.56419e-14)
(0.145194 -4.26614e-08 3.59121e-14)
(0.145194 -4.44613e-08 3.57892e-14)
(0.145194 -4.5406e-08 3.57441e-14)
(0.145194 -4.51061e-08 3.58485e-14)
(0.145194 -4.30093e-08 3.56791e-14)
(0.145194 -3.83064e-08 3.58519e-14)
(0.145194 -3.01186e-08 3.57641e-14)
(0.145194 -1.71736e-08 3.57237e-14)
(0.145194 -3.12427e-09 3.58419e-14)
(0.145194 6.90809e-09 3.57316e-14)
(0.145194 1.29669e-08 3.5787e-14)
(0.145194 1.60285e-08 3.57756e-14)
(0.145194 1.6921e-08 3.57568e-14)
(0.145194 1.63825e-08 3.5806e-14)
(0.145194 1.49746e-08 3.57701e-14)
(0.145194 1.31102e-08 3.57482e-14)
(0.145194 1.10914e-08 3.57653e-14)
(0.145194 9.17539e-09 3.57567e-14)
(0.145194 7.55811e-09 3.58731e-14)
(0.145194 6.37649e-09 3.57606e-14)
(0.145194 5.70916e-09 3.57429e-14)
(0.145194 5.1245e-09 3.57416e-14)
(0.145194 1.28928e-09 3.57347e-14)
(0.145194 -1.52767e-08 3.5808e-14)
(0.145159 -3.81196e-08 3.57651e-14)
(0.145159 -4.42077e-08 3.57518e-14)
(0.145159 -4.45333e-08 3.57299e-14)
(0.145159 -4.34513e-08 3.57134e-14)
(0.145159 -4.22261e-08 3.56925e-14)
(0.145159 -4.11523e-08 3.56942e-14)
(0.145159 -4.02648e-08 3.57036e-14)
(0.145159 -3.95269e-08 3.5694e-14)
(0.145159 -3.89136e-08 3.56849e-14)
(0.145159 -3.84047e-08 3.56807e-14)
(0.145159 -3.79544e-08 3.56518e-14)
(0.145159 -3.75549e-08 3.56083e-14)
(0.145159 -3.71995e-08 3.55654e-14)
(0.145159 -3.68642e-08 3.5528e-14)
(0.145159 -3.65337e-08 3.55003e-14)
(0.145159 -3.62146e-08 3.54872e-14)
(0.145159 -3.59043e-08 3.54763e-14)
(0.145159 -3.5615e-08 3.54626e-14)
(0.145159 -3.53352e-08 3.54449e-14)
(0.145159 -3.50421e-08 3.54286e-14)
(0.145159 -3.47174e-08 3.54164e-14)
(0.145159 -3.43492e-08 3.54433e-14)
(0.145159 -3.39325e-08 3.54677e-14)
(0.145159 -3.34199e-08 3.54815e-14)
(0.145159 -3.28027e-08 3.55109e-14)
(0.145159 -3.21121e-08 3.55179e-14)
(0.145159 -3.1337e-08 3.5515e-14)
(0.145159 -3.04689e-08 3.55198e-14)
(0.145159 -2.95619e-08 3.55307e-14)
(0.145159 -2.8634e-08 3.556e-14)
(0.145159 -2.76737e-08 3.55701e-14)
(0.145159 -2.67014e-08 3.55704e-14)
(0.145159 -2.56926e-08 3.55694e-14)
(0.145159 -2.46215e-08 3.55713e-14)
(0.145159 -2.34495e-08 3.55941e-14)
(0.145159 -2.20955e-08 3.55962e-14)
(0.145159 -2.04658e-08 3.55924e-14)
(0.145159 -1.8434e-08 3.55851e-14)
(0.145159 -1.58283e-08 3.55756e-14)
(0.145159 -1.23806e-08 3.55887e-14)
(0.145159 -7.72316e-09 3.55975e-14)
(0.145159 -1.42466e-09 3.56029e-14)
(0.145159 7.1432e-09 3.56036e-14)
(0.145159 1.84975e-08 3.56182e-14)
(0.145159 3.32277e-08 3.56192e-14)
(0.145159 4.8829e-08 3.5607e-14)
(0.145159 6.16735e-08 3.55982e-14)
(0.145159 7.12688e-08 3.55897e-14)
(0.145159 7.79575e-08 3.56073e-14)
(0.145159 8.22212e-08 3.56113e-14)
(0.145159 8.4602e-08 3.56051e-14)
(0.145159 8.55807e-08 3.5603e-14)
(0.145159 8.55034e-08 3.55979e-14)
(0.145159 8.46204e-08 3.55941e-14)
(0.145159 8.31586e-08 3.55759e-14)
(0.145159 8.12572e-08 3.56717e-14)
(0.145159 7.89957e-08 3.56661e-14)
(0.145159 7.64731e-08 3.56547e-14)
(0.145159 7.37678e-08 3.56394e-14)
(0.145159 7.09119e-08 3.56084e-14)
(0.145159 6.7961e-08 3.56353e-14)
(0.145159 6.49128e-08 3.56715e-14)
(0.145159 6.17893e-08 3.56823e-14)
(0.145159 5.86361e-08 3.56928e-14)
(0.145159 5.54453e-08 3.5683e-14)
(0.145159 5.22299e-08 3.57213e-14)
(0.145159 4.89968e-08 3.57627e-14)
(0.145159 4.57613e-08 3.57563e-14)
(0.145159 4.25459e-08 3.57555e-14)
(0.145159 3.93368e-08 3.57337e-14)
(0.145159 3.61488e-08 3.57674e-14)
(0.145159 3.29836e-08 3.5805e-14)
(0.145159 2.98174e-08 3.58078e-14)
(0.145159 2.66365e-08 3.58053e-14)
(0.145159 2.34581e-08 3.57785e-14)
(0.145159 2.03063e-08 3.58055e-14)
(0.145159 1.71392e-08 3.5852e-14)
(0.145159 1.39501e-08 3.58733e-14)
(0.145159 1.07315e-08 3.58751e-14)
(0.145159 7.48188e-09 3.58383e-14)
(0.145159 4.21742e-09 3.57813e-14)
(0.145159 9.16234e-10 3.57423e-14)
(0.145159 -2.4234e-09 3.5683e-14)
(0.145159 -5.79636e-09 3.56164e-14)
(0.145159 -9.20932e-09 3.56934e-14)
(0.145159 -1.26617e-08 3.57996e-14)
(0.145159 -1.61423e-08 3.56769e-14)
(0.145159 -1.96482e-08 3.5699e-14)
(0.145159 -2.317e-08 3.56171e-14)
(0.145159 -2.66808e-08 3.5682e-14)
(0.145159 -3.01817e-08 3.5818e-14)
(0.145159 -3.36402e-08 3.57026e-14)
(0.145159 -3.69936e-08 3.57094e-14)
(0.145159 -4.01998e-08 3.55967e-14)
(0.145159 -4.31962e-08 3.56745e-14)
(0.145159 -4.58729e-08 3.58378e-14)
(0.145159 -4.8106e-08 3.58051e-14)
(0.145159 -4.97168e-08 3.57523e-14)
(0.145159 -5.04645e-08 3.56776e-14)
(0.145159 -5.00084e-08 3.57414e-14)
(0.145159 -4.78751e-08 3.58829e-14)
(0.145159 -4.34287e-08 3.5769e-14)
(0.145159 -3.61205e-08 3.57318e-14)
(0.145159 -2.53237e-08 3.56589e-14)
(0.145159 -1.34949e-08 3.56661e-14)
(0.145159 -4.19934e-09 3.58713e-14)
(0.145159 2.14876e-09 3.57615e-14)
(0.145159 5.99095e-09 3.57186e-14)
(0.145159 7.87475e-09 3.57283e-14)
(0.145159 8.39857e-09 3.56972e-14)
(0.145159 8.08927e-09 3.5843e-14)
(0.145159 7.3743e-09 3.57885e-14)
(0.145159 6.58761e-09 3.57326e-14)
(0.145159 6.00519e-09 3.56749e-14)
(0.145159 5.85197e-09 3.57384e-14)
(0.145159 6.29079e-09 3.58329e-14)
(0.145159 7.40545e-09 3.57592e-14)
(0.145159 8.59596e-09 3.5709e-14)
(0.145159 5.30995e-09 3.5696e-14)
(0.145159 -1.56156e-08 3.56719e-14)
(0.145114 -4.3093e-08 3.57763e-14)
(0.145114 -4.96041e-08 3.57013e-14)
(0.145114 -4.87921e-08 3.57197e-14)
(0.145114 -4.62397e-08 3.57152e-14)
(0.145114 -4.35658e-08 3.56942e-14)
(0.145114 -4.11803e-08 3.56878e-14)
(0.145114 -3.91383e-08 3.56774e-14)
(0.145114 -3.73841e-08 3.5654e-14)
(0.145114 -3.5875e-08 3.56345e-14)
(0.145114 -3.45879e-08 3.56118e-14)
(0.145114 -3.34652e-08 3.55758e-14)
(0.145114 -3.24738e-08 3.55399e-14)
(0.145114 -3.16089e-08 3.55037e-14)
(0.145114 -3.08369e-08 3.54737e-14)
(0.145114 -3.01301e-08 3.54474e-14)
(0.145114 -2.94785e-08 3.54441e-14)
(0.145114 -2.88984e-08 3.54429e-14)
(0.145114 -2.83908e-08 3.54265e-14)
(0.145114 -2.79335e-08 3.54067e-14)
(0.145114 -2.74984e-08 3.53857e-14)
(0.145114 -2.70578e-08 3.53851e-14)
(0.145114 -2.6601e-08 3.5414e-14)
(0.145114 -2.61122e-08 3.54424e-14)
(0.145114 -2.55346e-08 3.54658e-14)
(0.145114 -2.4853e-08 3.54967e-14)
(0.145114 -2.41004e-08 3.55213e-14)
(0.145114 -2.32593e-08 3.55335e-14)
(0.145114 -2.23397e-08 3.55384e-14)
(0.145114 -2.13864e-08 3.55479e-14)
(0.145114 -2.04214e-08 3.55714e-14)
(0.145114 -1.94306e-08 3.55924e-14)
(0.145114 -1.84172e-08 3.56011e-14)
(0.145114 -1.7389e-08 3.55981e-14)
(0.145114 -1.63177e-08 3.56004e-14)
(0.145114 -1.51428e-08 3.56193e-14)
(0.145114 -1.37967e-08 3.56337e-14)
(0.145114 -1.21815e-08 3.564e-14)
(0.145114 -1.01677e-08 3.56326e-14)
(0.145114 -7.61501e-09 3.56261e-14)
(0.145114 -4.25964e-09 3.56347e-14)
(0.145114 2.25158e-10 3.56395e-14)
(0.145114 6.1748e-09 3.56491e-14)
(0.145114 1.40872e-08 3.565e-14)
(0.145114 2.42604e-08 3.56853e-14)
(0.145114 3.68873e-08 3.56795e-14)
(0.145114 5.02099e-08 3.56581e-14)
(0.145114 6.16891e-08 3.56554e-14)
(0.145114 7.0716e-08 3.56463e-14)
(0.145114 7.73262e-08 3.56972e-14)
(0.145114 8.17677e-08 3.5687e-14)
(0.145114 8.44036e-08 3.56675e-14)
(0.145114 8.56249e-08 3.56701e-14)
(0.145114 8.57317e-08 3.56575e-14)
(0.145114 8.49735e-08 3.56527e-14)
(0.145114 8.35731e-08 3.56045e-14)
(0.145114 8.16849e-08 3.57094e-14)
(0.145114 7.93988e-08 3.57459e-14)
(0.145114 7.68085e-08 3.57394e-14)
(0.145114 7.40061e-08 3.57246e-14)
(0.145114 7.10242e-08 3.56569e-14)
(0.145114 6.79167e-08 3.57253e-14)
(0.145114 6.47059e-08 3.57587e-14)
(0.145114 6.14094e-08 3.57707e-14)
(0.145114 5.80564e-08 3.57889e-14)
(0.145114 5.46662e-08 3.57414e-14)
(0.145114 5.12449e-08 3.58247e-14)
(0.145114 4.77925e-08 3.58629e-14)
(0.145114 4.43355e-08 3.58608e-14)
(0.145114 4.08987e-08 3.58642e-14)
(0.145114 3.74604e-08 3.58057e-14)
(0.145114 3.40365e-08 3.58714e-14)
(0.145114 3.06348e-08 3.59164e-14)
(0.145114 2.72254e-08 3.59155e-14)
(0.145114 2.38017e-08 3.59146e-14)
(0.145114 2.0387e-08 3.58426e-14)
(0.145114 1.69995e-08 3.58991e-14)
(0.145114 1.36009e-08 3.59584e-14)
(0.145114 1.01838e-08 3.59825e-14)
(0.145114 6.73227e-09 3.59856e-14)
(0.145114 3.25921e-09 3.59186e-14)
(0.145114 -2.16724e-10 3.59345e-14)
(0.145114 -3.71899e-09 3.58879e-14)
(0.145114 -7.25079e-09 3.58481e-14)
(0.145114 -1.08129e-08 3.58497e-14)
(0.145114 -1.43937e-08 3.58467e-14)
(0.145114 -1.80004e-08 3.59372e-14)
(0.145114 -2.16254e-08 3.58882e-14)
(0.145114 -2.52379e-08 3.58471e-14)
(0.145114 -2.88472e-08 3.5828e-14)
(0.145114 -3.24343e-08 3.58012e-14)
(0.145114 -3.59766e-08 3.58751e-14)
(0.145114 -3.94458e-08 3.5867e-14)
(0.145114 -4.27801e-08 3.58553e-14)
(0.145114 -4.59263e-08 3.587e-14)
(0.145114 -4.88296e-08 3.58566e-14)
(0.145114 -5.13922e-08 3.59154e-14)
(0.145114 -5.34843e-08 3.58946e-14)
(0.145114 -5.49279e-08 3.58683e-14)
(0.145114 -5.5542e-08 3.58733e-14)
(0.145114 -5.50297e-08 3.58475e-14)
(0.145114 -5.2956e-08 3.59026e-14)
(0.145114 -4.88724e-08 3.58821e-14)
(0.145114 -4.24357e-08 3.58439e-14)
(0.145114 -3.33924e-08 3.58426e-14)
(0.145114 -2.34664e-08 3.58281e-14)
(0.145114 -1.51162e-08 3.5877e-14)
(0.145114 -8.84471e-09 3.58411e-14)
(0.145114 -4.51848e-09 3.5831e-14)
(0.145114 -1.81687e-09 3.58735e-14)
(0.145114 -2.89046e-10 3.58378e-14)
(0.145114 5.06837e-10 3.59437e-14)
(0.145114 9.77616e-10 3.59345e-14)
(0.145114 1.4578e-09 3.58762e-14)
(0.145114 2.24856e-09 3.58569e-14)
(0.145114 3.6148e-09 3.58287e-14)
(0.145114 5.72252e-09 3.58933e-14)
(0.145114 8.6674e-09 3.58801e-14)
(0.145114 1.17165e-08 3.58312e-14)
(0.145114 9.15481e-09 3.58143e-14)
(0.145114 -1.58477e-08 3.57797e-14)
(0.14506 -4.76496e-08 3.57974e-14)
(0.14506 -5.45012e-08 3.576e-14)
(0.14506 -5.24905e-08 3.57391e-14)
(0.14506 -4.84023e-08 3.57186e-14)
(0.14506 -4.42339e-08 3.56882e-14)
(0.14506 -4.04912e-08 3.56862e-14)
(0.14506 -3.72392e-08 3.56523e-14)
(0.14506 -3.44156e-08 3.5604e-14)
(0.14506 -3.19777e-08 3.558e-14)
(0.14506 -2.98885e-08 3.554e-14)
(0.14506 -2.80667e-08 3.54885e-14)
(0.14506 -2.64739e-08 3.54601e-14)
(0.14506 -2.5079e-08 3.54271e-14)
(0.14506 -2.38588e-08 3.54088e-14)
(0.14506 -2.27764e-08 3.53842e-14)
(0.14506 -2.18086e-08 3.54071e-14)
(0.14506 -2.09612e-08 3.54161e-14)
(0.14506 -2.02408e-08 3.53845e-14)
(0.14506 -1.96182e-08 3.53617e-14)
(0.14506 -1.90577e-08 3.53322e-14)
(0.14506 -1.85274e-08 3.53547e-14)
(0.14506 -1.80061e-08 3.54053e-14)
(0.145059 -1.74633e-08 3.54377e-14)
(0.145059 -1.68319e-08 3.54685e-14)
(0.145059 -1.61063e-08 3.55071e-14)
(0.145059 -1.53204e-08 3.55447e-14)
(0.145059 -1.44541e-08 3.55621e-14)
(0.145059 -1.34955e-08 3.55609e-14)
(0.145059 -1.25117e-08 3.5571e-14)
(0.145059 -1.15274e-08 3.55975e-14)
(0.145059 -1.05245e-08 3.56281e-14)
(0.145059 -9.53682e-09 3.56395e-14)
(0.145059 -8.54621e-09 3.56284e-14)
(0.145059 -7.51992e-09 3.56319e-14)
(0.145059 -6.41171e-09 3.56573e-14)
(0.145059 -5.13558e-09 3.5681e-14)
(0.145059 -3.61334e-09 3.5696e-14)
(0.145059 -1.72347e-09 3.56816e-14)
(0.145059 6.74415e-10 3.56808e-14)
(0.145059 3.81455e-09 3.56957e-14)
(0.145059 7.99288e-09 3.56901e-14)
(0.145059 1.34891e-08 3.57393e-14)
(0.145059 2.06497e-08 3.56906e-14)
(0.145059 2.96322e-08 3.57667e-14)
(0.145059 4.04403e-08 3.57291e-14)
(0.145059 5.17732e-08 3.56972e-14)
(0.145059 6.18106e-08 3.56899e-14)
(0.145059 7e-08 3.56948e-14)
(0.145059 7.62312e-08 3.58329e-14)
(0.145059 8.05952e-08 3.57557e-14)
(0.145059 8.3306e-08 3.57186e-14)
(0.145059 8.46653e-08 3.57128e-14)
(0.145059 8.49226e-08 3.57145e-14)
(0.145059 8.42707e-08 3.57554e-14)
(0.145059 8.29414e-08 3.56242e-14)
(0.145059 8.10958e-08 3.58226e-14)
(0.145059 7.88064e-08 3.58236e-14)
(0.145059 7.61674e-08 3.58141e-14)
(0.145059 7.32867e-08 3.58428e-14)
(0.145059 7.02108e-08 3.56414e-14)
(0.145059 6.70116e-08 3.58677e-14)
(0.145059 6.36767e-08 3.58496e-14)
(0.145059 6.02176e-08 3.58541e-14)
(0.145059 5.67078e-08 3.58642e-14)
(0.145059 5.31608e-08 3.57936e-14)
(0.145059 4.95704e-08 3.60248e-14)
(0.145059 4.59375e-08 3.59562e-14)
(0.145059 4.22991e-08 3.59585e-14)
(0.145059 3.86699e-08 3.59494e-14)
(0.145059 3.50334e-08 3.58107e-14)
(0.145059 3.14125e-08 3.59857e-14)
(0.145059 2.77997e-08 3.60162e-14)
(0.145059 2.41823e-08 3.6017e-14)
(0.145059 2.05617e-08 3.60054e-14)
(0.145059 1.69411e-08 3.58527e-14)
(0.145059 1.33496e-08 3.60665e-14)
(0.145059 9.7412e-09 3.60616e-14)
(0.145059 6.11578e-09 3.60838e-14)
(0.145059 2.47843e-09 3.60809e-14)
(0.145059 -1.18154e-09 3.59795e-14)
(0.145059 -4.84698e-09 3.61224e-14)
(0.145059 -8.52622e-09 3.60379e-14)
(0.145059 -1.22092e-08 3.5996e-14)
(0.145059 -1.59287e-08 3.60451e-14)
(0.145059 -1.96724e-08 3.60084e-14)
(0.145059 -2.34048e-08 3.61402e-14)
(0.145059 -2.71339e-08 3.60382e-14)
(0.145059 -3.08518e-08 3.59749e-14)
(0.145059 -3.45437e-08 3.60594e-14)
(0.145059 -3.81754e-08 3.59552e-14)
(0.145059 -4.17346e-08 3.6092e-14)
(0.145059 -4.52e-08 3.60112e-14)
(0.145059 -4.85127e-08 3.59784e-14)
(0.145059 -5.16046e-08 3.60384e-14)
(0.145059 -5.44147e-08 3.60055e-14)
(0.145059 -5.68538e-08 3.6044e-14)
(0.145059 -5.88162e-08 3.59984e-14)
(0.145059 -6.01503e-08 3.59684e-14)
(0.145059 -6.06766e-08 3.60192e-14)
(0.145059 -6.01405e-08 3.59718e-14)
(0.145059 -5.82063e-08 3.60302e-14)
(0.14506 -5.45308e-08 3.59883e-14)
(0.14506 -4.89102e-08 3.59385e-14)
(0.14506 -4.12981e-08 3.60954e-14)
(0.14506 -3.29481e-08 3.59439e-14)
(0.14506 -2.55737e-08 3.59944e-14)
(0.14506 -1.9627e-08 3.59492e-14)
(0.14506 -1.51077e-08 3.59224e-14)
(0.14506 -1.18134e-08 3.60492e-14)
(0.14506 -9.43298e-09 3.59683e-14)
(0.14506 -7.61309e-09 3.60489e-14)
(0.14506 -5.98266e-09 3.61474e-14)
(0.14506 -4.21111e-09 3.59846e-14)
(0.14506 -2.0124e-09 3.59838e-14)
(0.14506 8.90424e-10 3.59183e-14)
(0.14506 4.70276e-09 3.6086e-14)
(0.14506 9.53596e-09 3.60657e-14)
(0.14506 1.45152e-08 3.59192e-14)
(0.14506 1.29014e-08 3.59318e-14)
(0.14506 -1.58563e-08 3.58566e-14)
(0.144996 -5.16374e-08 3.57969e-14)
(0.144996 -5.87563e-08 3.58184e-14)
(0.144996 -5.54971e-08 3.57584e-14)
(0.144996 -4.98314e-08 3.5718e-14)
(0.144996 -4.41198e-08 3.56706e-14)
(0.144996 -3.8978e-08 3.56975e-14)
(0.144996 -3.44849e-08 3.56177e-14)
(0.144996 -3.05698e-08 3.55279e-14)
(0.144996 -2.71794e-08 3.55212e-14)
(0.144996 -2.42627e-08 3.54573e-14)
(0.144996 -2.17378e-08 3.53861e-14)
(0.144996 -1.95275e-08 3.53774e-14)
(0.144996 -1.76047e-08 3.53317e-14)
(0.144996 -1.59444e-08 3.53384e-14)
(0.144996 -1.44892e-08 3.53061e-14)
(0.144996 -1.3214e-08 3.53927e-14)
(0.144995 -1.21158e-08 3.54017e-14)
(0.144995 -1.11976e-08 3.53235e-14)
(0.144995 -1.04299e-08 3.53082e-14)
(0.144995 -9.76847e-09 3.52581e-14)
(0.144995 -9.18205e-09 3.53387e-14)
(0.144995 -8.62136e-09 3.54239e-14)
(0.144995 -8.05578e-09 3.54514e-14)
(0.144995 -7.41775e-09 3.54912e-14)
(0.144995 -6.67669e-09 3.55414e-14)
(0.144995 -5.86064e-09 3.55968e-14)
(0.144995 -4.96864e-09 3.56049e-14)
(0.144995 -4.00262e-09 3.55828e-14)
(0.144995 -3.02464e-09 3.55995e-14)
(0.144995 -2.06643e-09 3.56373e-14)
(0.144995 -1.11143e-09 3.5684e-14)
(0.144995 -1.80103e-10 3.56875e-14)
(0.144995 7.28133e-10 3.56541e-14)
(0.144995 1.64845e-09 3.56648e-14)
(0.144995 2.62461e-09 3.5707e-14)
(0.144995 3.7307e-09 3.57445e-14)
(0.144995 5.06969e-09 3.57674e-14)
(0.144995 6.75499e-09 3.57273e-14)
(0.144995 8.89503e-09 3.57395e-14)
(0.144995 1.17247e-08 3.57764e-14)
(0.144995 1.5496e-08 3.57431e-14)
(0.144995 2.0416e-08 3.57214e-14)
(0.144995 2.67565e-08 3.57137e-14)
(0.144995 3.45789e-08 3.57446e-14)
(0.144995 4.37833e-08 3.57382e-14)
(0.144995 5.33704e-08 3.57192e-14)
(0.144995 6.20168e-08 3.57208e-14)
(0.144995 6.92318e-08 3.57196e-14)
(0.144995 7.48424e-08 3.57738e-14)
(0.144995 7.88923e-08 3.57664e-14)
(0.144995 8.15031e-08 3.57537e-14)
(0.144995 8.28582e-08 3.57589e-14)
(0.144995 8.31586e-08 3.57519e-14)
(0.144995 8.25672e-08 3.57535e-14)
(0.144995 8.1286e-08 3.57173e-14)
(0.144995 7.94716e-08 3.58153e-14)
(0.144995 7.71851e-08 3.58627e-14)
(0.144995 7.45243e-08 3.58685e-14)
(0.144995 7.15985e-08 3.58623e-14)
(0.144995 6.84593e-08 3.58051e-14)
(0.144995 6.51696e-08 3.58743e-14)
(0.144995 6.17397e-08 3.59096e-14)
(0.144995 5.81813e-08 3.59266e-14)
(0.144995 5.45463e-08 3.59469e-14)
(0.144995 5.08673e-08 3.59057e-14)
(0.144995 4.71411e-08 3.59804e-14)
(0.144995 4.3371e-08 3.6029e-14)
(0.144995 3.95866e-08 3.60346e-14)
(0.144995 3.58028e-08 3.60415e-14)
(0.144995 3.20025e-08 3.59904e-14)
(0.144995 2.82101e-08 3.60527e-14)
(0.144995 2.44244e-08 3.60951e-14)
(0.144995 2.0634e-08 3.61e-14)
(0.144995 1.68496e-08 3.61004e-14)
(0.144995 1.30658e-08 3.60324e-14)
(0.144995 9.29504e-09 3.60909e-14)
(0.144995 5.50945e-09 3.61465e-14)
(0.144995 1.72457e-09 3.61692e-14)
(0.144995 -2.07678e-09 3.61737e-14)
(0.144995 -5.90056e-09 3.61155e-14)
(0.144995 -9.72185e-09 3.61488e-14)
(0.144995 -1.35455e-08 3.61485e-14)
(0.144995 -1.73743e-08 3.61186e-14)
(0.144995 -2.12229e-08 3.61248e-14)
(0.144995 -2.50699e-08 3.61106e-14)
(0.144995 -2.89193e-08 3.61503e-14)
(0.144995 -3.27531e-08 3.61232e-14)
(0.144995 -3.65375e-08 3.60768e-14)
(0.144995 -4.0283e-08 3.6071e-14)
(0.144995 -4.39496e-08 3.60524e-14)
(0.144995 -4.75191e-08 3.60933e-14)
(0.144995 -5.09665e-08 3.60916e-14)
(0.144995 -5.42289e-08 3.60663e-14)
(0.144995 -5.72477e-08 3.61063e-14)
(0.144995 -5.99659e-08 3.60718e-14)
(0.144995 -6.23127e-08 3.60785e-14)
(0.144995 -6.41665e-08 3.6068e-14)
(0.144995 -6.53853e-08 3.60446e-14)
(0.144995 -6.58513e-08 3.60605e-14)
(0.144995 -6.53493e-08 3.6035e-14)
(0.144995 -6.35801e-08 3.60645e-14)
(0.144995 -6.03269e-08 3.60424e-14)
(0.144995 -5.54463e-08 3.60072e-14)
(0.144995 -4.90067e-08 3.60247e-14)
(0.144995 -4.19548e-08 3.59949e-14)
(0.144995 -3.54915e-08 3.60136e-14)
(0.144995 -2.99854e-08 3.60047e-14)
(0.144996 -2.54594e-08 3.59851e-14)
(0.144996 -2.17817e-08 3.60293e-14)
(0.144996 -1.87237e-08 3.60048e-14)
(0.144996 -1.60078e-08 3.60633e-14)
(0.144996 -1.32924e-08 3.60729e-14)