/*--------------------------------*- C++ -*----------------------------------*\
  =========                 |
  \\      /  F ield         | OpenFOAM: The Open Source CFD Toolbox
   \\    /   O peration     | Website:  https://openfoam.org
    \\  /    A nd           | Version:  7
     \\/     M anipulation  |
\*---------------------------------------------------------------------------*/
FoamFile
{
    version     2.0;
    format      ascii;
    class       volScalarField;
    location    "98500";
    object      k;
}
// * * * * * * * * * * * * * * * * * * * * * * * * * * * * * * * * * * * * * //

dimensions      [0 2 -2 0 0 0 0];

internalField   nonuniform List<scalar> 
600
(
8.61889e-13
2.58769e-11
1.83646e-10
6.69289e-10
1.73616e-09
3.68632e-09
6.86878e-09
1.16803e-08
1.85671e-08
2.80275e-08
4.0615e-08
5.6941e-08
7.76792e-08
1.03569e-07
1.35418e-07
1.74112e-07
2.20611e-07
2.75962e-07
3.41298e-07
4.17849e-07
5.0694e-07
6.10003e-07
7.28579e-07
8.64324e-07
1.01901e-06
1.19455e-06
1.39295e-06
1.61639e-06
1.86716e-06
2.14769e-06
2.46056e-06
2.80847e-06
3.19426e-06
3.62089e-06
4.09145e-06
4.60914e-06
5.17722e-06
5.79905e-06
6.47802e-06
7.21754e-06
8.02101e-06
8.89174e-06
9.83297e-06
1.08478e-05
1.1939e-05
1.31092e-05
1.43607e-05
1.56953e-05
1.71145e-05
1.86192e-05
2.02097e-05
2.18857e-05
2.36465e-05
2.54905e-05
2.74154e-05
2.94185e-05
3.14962e-05
3.36445e-05
3.58587e-05
3.81337e-05
4.04641e-05
4.28438e-05
4.52669e-05
4.7727e-05
5.02177e-05
5.27326e-05
5.52655e-05
5.78101e-05
6.03606e-05
6.29111e-05
6.54563e-05
6.79911e-05
7.05108e-05
7.30109e-05
7.54876e-05
7.79372e-05
8.03565e-05
8.27427e-05
8.50933e-05
8.74074e-05
8.96854e-05
9.19262e-05
9.41282e-05
9.62899e-05
9.841e-05
0.000100487
0.000102521
0.000104511
0.000106456
0.000108355
0.000110208
0.000112016
0.000113777
0.000115493
0.000117163
0.000118787
0.000120367
0.000121901
0.000123391
0.000124837
0.000126241
0.000127601
0.00012892
0.000130197
0.000131434
0.000132631
0.00013379
0.00013491
0.000135992
0.000137038
0.000138048
0.000139024
0.000139965
0.000140872
0.000141747
0.00014259
0.000143402
0.000144183
0.000144935
0.000145657
0.000146352
0.000147019
0.000147659
0.000148273
0.000148862
0.000149425
0.000149964
0.00015048
0.000150972
0.000151442
0.000151889
0.000152315
0.00015272
0.000153104
0.000153469
0.000153813
0.000154138
0.000154445
0.000154733
0.000155003
0.000155256
0.000155491
0.000155709
0.000155911
0.000156097
0.000156266
0.00015642
0.000156558
0.000156681
0.00015679
0.000156883
0.000156963
0.000157028
0.000157079
0.000157116
0.00015714
0.000157151
0.000157148
0.000157132
0.000157103
0.000157061
0.000157007
0.00015694
0.000156861
0.00015677
0.000156666
0.00015655
0.000156423
0.000156283
0.000156131
0.000155968
0.000155793
0.000155606
0.000155408
0.000155198
0.000154977
0.000154744
0.000154499
0.000154244
0.000153976
0.000153697
0.000153407
0.000153105
0.000152792
0.000152468
0.000152132
0.000151784
0.000151425
0.000151054
0.000150672
0.000150278
0.000149872
0.000149454
0.000149025
0.000148584
0.000148131
0.000147666
0.000147189
0.0001467
0.000146198
0.000145684
0.000145158
0.00014462
0.000144068
0.000143504
0.000142928
0.000142338
0.000141735
0.000141119
0.00014049
0.000139848
0.000139192
0.000138522
0.000137839
0.000137142
0.000136431
0.000135706
0.000134967
0.000134215
0.000133448
0.000132668
0.000131874
0.000131068
0.000130249
0.000129418
0.000128576
0.000127723
0.00012686
0.000125986
0.000125102
0.000124207
0.0001233
0.000122381
0.00012145
0.000120508
0.000119554
0.000118589
0.000117613
0.000116625
0.000115626
0.000114616
0.000113596
0.000112564
0.000111523
0.000110471
0.000109409
0.000108337
0.000107256
0.000106166
0.000105066
0.000103959
0.000102843
0.000101719
0.000100589
9.94512e-05
9.83074e-05
9.7158e-05
9.60034e-05
9.48443e-05
9.36814e-05
9.25155e-05
9.13472e-05
9.01773e-05
8.90068e-05
8.78365e-05
8.66675e-05
8.55006e-05
8.4337e-05
8.31779e-05
8.20243e-05
8.08777e-05
7.97392e-05
7.86102e-05
7.74923e-05
7.6387e-05
7.52957e-05
7.42202e-05
7.31622e-05
7.21235e-05
7.1106e-05
7.01117e-05
6.91425e-05
6.82005e-05
6.7288e-05
6.64072e-05
6.55604e-05
6.47501e-05
6.39787e-05
6.32488e-05
6.25631e-05
6.19243e-05
6.13352e-05
6.07987e-05
6.03179e-05
5.98958e-05
5.95356e-05
5.92405e-05
5.90139e-05
5.88592e-05
5.87801e-05
5.87801e-05
5.88592e-05
5.90139e-05
5.92405e-05
5.95356e-05
5.98958e-05
6.03179e-05
6.07987e-05
6.13352e-05
6.19243e-05
6.25631e-05
6.32488e-05
6.39787e-05
6.47501e-05
6.55604e-05
6.64072e-05
6.7288e-05
6.82005e-05
6.91425e-05
7.01117e-05
7.1106e-05
7.21235e-05
7.31622e-05
7.42202e-05
7.52957e-05
7.6387e-05
7.74923e-05
7.86102e-05
7.97392e-05
8.08777e-05
8.20243e-05
8.31779e-05
8.4337e-05
8.55006e-05
8.66675e-05
8.78365e-05
8.90068e-05
9.01773e-05
9.13472e-05
9.25155e-05
9.36814e-05
9.48443e-05
9.60034e-05
9.7158e-05
9.83074e-05
9.94512e-05
0.000100589
0.000101719
0.000102843
0.000103959
0.000105066
0.000106166
0.000107256
0.000108337
0.000109409
0.000110471
0.000111523
0.000112564
0.000113596
0.000114616
0.000115626
0.000116625
0.000117613
0.000118589
0.000119554
0.000120508
0.00012145
0.000122381
0.0001233
0.000124207
0.000125102
0.000125986
0.00012686
0.000127723
0.000128576
0.000129418
0.000130249
0.000131068
0.000131874
0.000132668
0.000133448
0.000134215
0.000134967
0.000135706
0.000136431
0.000137142
0.000137839
0.000138522
0.000139192
0.000139848
0.00014049
0.000141119
0.000141735
0.000142338
0.000142928
0.000143504
0.000144068
0.00014462
0.000145158
0.000145684
0.000146198
0.0001467
0.000147189
0.000147666
0.000148131
0.000148584
0.000149025
0.000149454
0.000149872
0.000150278
0.000150672
0.000151054
0.000151425
0.000151784
0.000152132
0.000152468
0.000152792
0.000153105
0.000153407
0.000153697
0.000153976
0.000154244
0.000154499
0.000154744
0.000154977
0.000155198
0.000155408
0.000155606
0.000155793
0.000155968
0.000156131
0.000156283
0.000156423
0.00015655
0.000156666
0.00015677
0.000156861
0.00015694
0.000157007
0.000157061
0.000157103
0.000157132
0.000157148
0.000157151
0.00015714
0.000157116
0.000157079
0.000157028
0.000156963
0.000156883
0.00015679
0.000156681
0.000156558
0.00015642
0.000156266
0.000156097
0.000155911
0.000155709
0.000155491
0.000155256
0.000155003
0.000154733
0.000154445
0.000154138
0.000153813
0.000153469
0.000153104
0.00015272
0.000152315
0.000151889
0.000151442
0.000150972
0.00015048
0.000149964
0.000149425
0.000148862
0.000148273
0.000147659
0.000147019
0.000146352
0.000145657
0.000144935
0.000144183
0.000143402
0.00014259
0.000141747
0.000140872
0.000139965
0.000139024
0.000138048
0.000137038
0.000135992
0.00013491
0.00013379
0.000132631
0.000131434
0.000130197
0.00012892
0.000127601
0.000126241
0.000124837
0.000123391
0.000121901
0.000120367
0.000118787
0.000117163
0.000115493
0.000113777
0.000112016
0.000110208
0.000108355
0.000106456
0.000104511
0.000102521
0.000100487
9.841e-05
9.62899e-05
9.41281e-05
9.19262e-05
8.96854e-05
8.74074e-05
8.50933e-05
8.27427e-05
8.03565e-05
7.79372e-05
7.54876e-05
7.30109e-05
7.05108e-05
6.79911e-05
6.54563e-05
6.29111e-05
6.03606e-05
5.78101e-05
5.52655e-05
5.27326e-05
5.02177e-05
4.7727e-05
4.52669e-05
4.28438e-05
4.04641e-05
3.81337e-05
3.58587e-05
3.36445e-05
3.14962e-05
2.94185e-05
2.74154e-05
2.54905e-05
2.36465e-05
2.18857e-05
2.02097e-05
1.86192e-05
1.71145e-05
1.56953e-05
1.43607e-05
1.31092e-05
1.1939e-05
1.08478e-05
9.83297e-06
8.89174e-06
8.021e-06
7.21754e-06
6.47802e-06
5.79905e-06
5.17722e-06
4.60914e-06
4.09145e-06
3.62089e-06
3.19426e-06
2.80847e-06
2.46056e-06
2.14769e-06
1.86716e-06
1.61639e-06
1.39295e-06
1.19454e-06
1.01901e-06
8.64324e-07
7.28579e-07
6.10003e-07
5.0694e-07
4.17849e-07
3.41298e-07
2.75962e-07
2.20611e-07
1.74112e-07
1.35418e-07
1.03569e-07
7.76792e-08
5.6941e-08
4.06149e-08
2.80275e-08
1.85671e-08
1.16803e-08
6.86878e-09
3.68632e-09
1.73615e-09
6.69289e-10
1.83646e-10
2.58769e-11
8.61888e-13
)
;

boundaryField
{
    bottomWall
    {
        type            kqRWallFunction;
        value           uniform 8.61889e-13;
    }
    topWall
    {
        type            kqRWallFunction;
        value           uniform 8.61888e-13;
    }
    sides1_half0
    {
        type            empty;
    }
    sides1_half1
    {
        type            empty;
    }
    sides2_half0
    {
        type            empty;
    }
    sides2_half1
    {
        type            empty;
    }
    inout1_half0
    {
        type            cyclic;
    }
    inout1_half1
    {
        type            cyclic;
    }
    inout2_half0
    {
        type            cyclic;
    }
    inout2_half1
    {
        type            cyclic;
    }
}


// ************************************************************************* //
