/*--------------------------------*- C++ -*----------------------------------*\
  =========                 |
  \\      /  F ield         | OpenFOAM: The Open Source CFD Toolbox
   \\    /   O peration     | Website:  https://openfoam.org
    \\  /    A nd           | Version:  7
     \\/     M anipulation  |
\*---------------------------------------------------------------------------*/
FoamFile
{
    version     2.0;
    format      ascii;
    class       volScalarField;
    location    "98500";
    object      nut;
}
// * * * * * * * * * * * * * * * * * * * * * * * * * * * * * * * * * * * * * //

dimensions      [0 2 -1 0 0 0 0];

internalField   nonuniform List<scalar> 
600
(
3.20875e-18
5.63717e-16
1.19097e-14
9.25375e-14
4.25047e-13
1.42491e-12
3.88233e-12
9.14094e-12
1.93182e-11
3.75738e-11
6.84318e-11
1.18166e-10
1.95253e-10
3.1091e-10
4.79715e-10
7.2033e-10
1.05634e-09
1.51722e-09
2.1394e-09
2.96755e-09
4.05598e-09
5.47019e-09
7.28869e-09
9.60492e-09
1.25295e-08
1.61925e-08
2.07461e-08
2.63674e-08
3.32614e-08
4.16643e-08
5.18464e-08
6.4116e-08
7.88226e-08
9.63605e-08
1.17172e-07
1.4175e-07
1.70643e-07
2.04454e-07
2.43845e-07
2.89538e-07
3.42313e-07
4.03009e-07
4.72523e-07
5.51802e-07
6.41846e-07
7.43696e-07
8.58426e-07
9.87142e-07
1.13096e-06
1.29102e-06
1.46843e-06
1.66431e-06
1.87974e-06
2.11576e-06
2.37335e-06
2.65347e-06
2.95698e-06
3.28467e-06
3.63727e-06
4.01542e-06
4.41968e-06
4.85053e-06
5.30838e-06
5.79355e-06
6.3063e-06
6.84684e-06
7.41529e-06
8.01175e-06
8.63626e-06
9.28881e-06
9.96937e-06
1.06779e-05
1.14143e-05
1.21784e-05
1.29702e-05
1.37895e-05
1.46362e-05
1.55101e-05
1.6411e-05
1.72844e-05
1.8166e-05
1.90731e-05
2.00087e-05
2.09736e-05
2.19683e-05
2.29931e-05
2.40485e-05
2.51348e-05
2.62523e-05
2.74015e-05
2.85826e-05
2.9796e-05
3.1042e-05
3.2321e-05
3.36332e-05
3.4979e-05
3.63587e-05
3.77726e-05
3.9221e-05
4.07042e-05
4.22225e-05
4.37762e-05
4.53656e-05
4.6991e-05
4.86521e-05
5.03493e-05
5.20832e-05
5.38539e-05
5.56619e-05
5.75073e-05
5.93903e-05
6.13113e-05
6.32705e-05
6.5268e-05
6.73041e-05
6.9379e-05
7.1493e-05
7.36462e-05
7.58389e-05
7.80713e-05
8.03435e-05
8.26559e-05
8.50085e-05
8.74017e-05
8.98356e-05
9.23103e-05
9.48261e-05
9.73832e-05
9.99818e-05
0.000102622
0.000105304
0.000108028
0.000110794
0.000113603
0.000116454
0.000119347
0.000122284
0.000125263
0.000128286
0.000131352
0.000134461
0.000137614
0.000140811
0.000144051
0.000147336
0.000150664
0.000154037
0.000157454
0.000160915
0.000164421
0.000167972
0.000171567
0.000175207
0.000178892
0.000182622
0.000186397
0.000190217
0.000194082
0.000197992
0.000201947
0.000205948
0.000209993
0.000214084
0.00021822
0.000222402
0.000226628
0.0002309
0.000235217
0.000239579
0.000243986
0.000248438
0.000252935
0.000257476
0.000262062
0.000266693
0.000271368
0.000276088
0.000280852
0.000285659
0.000290511
0.000295406
0.000300344
0.000305326
0.000310351
0.000315418
0.000320528
0.00032568
0.000330874
0.000336109
0.000341386
0.000346704
0.000352062
0.000357461
0.000362899
0.000368377
0.000373894
0.000379449
0.000385043
0.000390674
0.000396343
0.000402048
0.00040779
0.000413567
0.00041938
0.000425227
0.000431109
0.000437024
0.000442975
0.000448959
0.000454979
0.000461035
0.00046713
0.000473268
0.000479454
0.000485695
0.000492003
0.000498393
0.000504882
0.000511495
0.000518262
0.000525218
0.0005324
0.000539847
0.00054759
0.000555644
0.000563988
0.000572539
0.000581116
0.000589387
0.000596805
0.000603887
0.000610992
0.000618121
0.000625273
0.000632445
0.000639637
0.000646848
0.000654076
0.000661321
0.000668581
0.000675855
0.000683141
0.000690439
0.000697747
0.000705063
0.000712387
0.000719717
0.000727052
0.00073439
0.000741731
0.000749072
0.000756412
0.000763749
0.000771083
0.000778412
0.000785733
0.000793046
0.000800349
0.000807639
0.000814916
0.000822177
0.00082942
0.000836642
0.000843843
0.000851018
0.000858166
0.000865284
0.000872369
0.000879417
0.000886425
0.000893389
0.000900304
0.000907166
0.00091397
0.000920709
0.000927378
0.00093397
0.000940477
0.000946891
0.000953202
0.0009594
0.000965474
0.000971411
0.000977198
0.000982821
0.000988263
0.000993507
0.000998535
0.00100333
0.00100786
0.00101211
0.00101606
0.00101968
0.00102295
0.00102583
0.0010283
0.00103034
0.0010319
0.00103298
0.00103353
0.00103353
0.00103298
0.0010319
0.00103034
0.0010283
0.00102583
0.00102295
0.00101968
0.00101606
0.00101211
0.00100786
0.00100333
0.000998535
0.000993507
0.000988263
0.000982821
0.000977198
0.000971411
0.000965474
0.0009594
0.000953202
0.000946891
0.000940477
0.00093397
0.000927378
0.000920709
0.00091397
0.000907166
0.000900304
0.000893389
0.000886425
0.000879417
0.000872369
0.000865284
0.000858166
0.000851018
0.000843843
0.000836642
0.00082942
0.000822177
0.000814916
0.000807639
0.000800349
0.000793046
0.000785733
0.000778412
0.000771083
0.000763749
0.000756412
0.000749072
0.000741731
0.00073439
0.000727052
0.000719717
0.000712387
0.000705063
0.000697747
0.000690439
0.000683141
0.000675855
0.000668581
0.000661321
0.000654076
0.000646848
0.000639637
0.000632445
0.000625273
0.000618121
0.000610992
0.000603887
0.000596805
0.000589387
0.000581116
0.000572539
0.000563988
0.000555644
0.00054759
0.000539847
0.0005324
0.000525218
0.000518262
0.000511495
0.000504882
0.000498393
0.000492003
0.000485695
0.000479454
0.000473268
0.00046713
0.000461035
0.000454979
0.000448959
0.000442975
0.000437024
0.000431109
0.000425227
0.00041938
0.000413567
0.00040779
0.000402048
0.000396343
0.000390674
0.000385043
0.000379449
0.000373894
0.000368377
0.000362899
0.000357461
0.000352062
0.000346704
0.000341386
0.000336109
0.000330874
0.00032568
0.000320528
0.000315418
0.000310351
0.000305326
0.000300344
0.000295406
0.000290511
0.000285659
0.000280852
0.000276088
0.000271368
0.000266693
0.000262062
0.000257476
0.000252935
0.000248438
0.000243986
0.000239579
0.000235217
0.0002309
0.000226628
0.000222402
0.00021822
0.000214084
0.000209993
0.000205948
0.000201947
0.000197992
0.000194082
0.000190217
0.000186397
0.000182622
0.000178892
0.000175207
0.000171567
0.000167972
0.000164421
0.000160915
0.000157454
0.000154037
0.000150664
0.000147336
0.000144051
0.000140811
0.000137614
0.000134461
0.000131352
0.000128286
0.000125263
0.000122284
0.000119347
0.000116454
0.000113603
0.000110794
0.000108028
0.000105304
0.000102622
9.99818e-05
9.73832e-05
9.48261e-05
9.23103e-05
8.98356e-05
8.74017e-05
8.50085e-05
8.26559e-05
8.03435e-05
7.80713e-05
7.58389e-05
7.36462e-05
7.1493e-05
6.9379e-05
6.73041e-05
6.5268e-05
6.32705e-05
6.13113e-05
5.93903e-05
5.75073e-05
5.56619e-05
5.38539e-05
5.20832e-05
5.03493e-05
4.86521e-05
4.6991e-05
4.53656e-05
4.37762e-05
4.22225e-05
4.07042e-05
3.9221e-05
3.77726e-05
3.63587e-05
3.4979e-05
3.36332e-05
3.2321e-05
3.1042e-05
2.9796e-05
2.85826e-05
2.74015e-05
2.62523e-05
2.51348e-05
2.40485e-05
2.29931e-05
2.19683e-05
2.09736e-05
2.00087e-05
1.90731e-05
1.8166e-05
1.72844e-05
1.6411e-05
1.55101e-05
1.46362e-05
1.37895e-05
1.29702e-05
1.21784e-05
1.14143e-05
1.06779e-05
9.96937e-06
9.28881e-06
8.63626e-06
8.01175e-06
7.41529e-06
6.84684e-06
6.3063e-06
5.79355e-06
5.30838e-06
4.85053e-06
4.41968e-06
4.01542e-06
3.63727e-06
3.28467e-06
2.95698e-06
2.65347e-06
2.37335e-06
2.11576e-06
1.87974e-06
1.66431e-06
1.46843e-06
1.29102e-06
1.13096e-06
9.87142e-07
8.58426e-07
7.43695e-07
6.41846e-07
5.51802e-07
4.72523e-07
4.03009e-07
3.42313e-07
2.89538e-07
2.43845e-07
2.04454e-07
1.70643e-07
1.4175e-07
1.17172e-07
9.63605e-08
7.88226e-08
6.4116e-08
5.18464e-08
4.16643e-08
3.32614e-08
2.63674e-08
2.07461e-08
1.61925e-08
1.25295e-08
9.60493e-09
7.28869e-09
5.47019e-09
4.05598e-09
2.96755e-09
2.1394e-09
1.51721e-09
1.05634e-09
7.2033e-10
4.79715e-10
3.10911e-10
1.95254e-10
1.18166e-10
6.84318e-11
3.75738e-11
1.93183e-11
9.14095e-12
3.88233e-12
1.42491e-12
4.25046e-13
9.25374e-14
1.19098e-14
5.63717e-16
3.20874e-18
)
;

boundaryField
{
    bottomWall
    {
        type            nutUWallFunction;
        Cmu             0.09;
        kappa           0.41;
        E               9.8;
        value           uniform 0;
    }
    topWall
    {
        type            nutUWallFunction;
        Cmu             0.09;
        kappa           0.41;
        E               9.8;
        value           uniform 0;
    }
    sides1_half0
    {
        type            empty;
    }
    sides1_half1
    {
        type            empty;
    }
    sides2_half0
    {
        type            empty;
    }
    sides2_half1
    {
        type            empty;
    }
    inout1_half0
    {
        type            cyclic;
    }
    inout1_half1
    {
        type            cyclic;
    }
    inout2_half0
    {
        type            cyclic;
    }
    inout2_half1
    {
        type            cyclic;
    }
}


// ************************************************************************* //
