/*--------------------------------*- C++ -*----------------------------------*\
  =========                 |
  \\      /  F ield         | OpenFOAM: The Open Source CFD Toolbox
   \\    /   O peration     | Website:  https://openfoam.org
    \\  /    A nd           | Version:  7
     \\/     M anipulation  |
\*---------------------------------------------------------------------------*/
FoamFile
{
    version     2.0;
    format      ascii;
    class       surfaceScalarField;
    location    "98500";
    object      phi;
}
// * * * * * * * * * * * * * * * * * * * * * * * * * * * * * * * * * * * * * //

dimensions      [0 3 -1 0 0 0 0];

internalField   nonuniform List<scalar> 
599
(
-5.21952e-16
-4.08852e-16
-4.76184e-16
-3.6276e-16
-4.04744e-16
-3.21488e-16
-3.69319e-16
-3.10519e-16
-3.1007e-16
-2.51594e-16
-3.46627e-16
-2.62007e-16
-2.82849e-16
-2.28724e-16
-2.74002e-16
-1.57139e-16
-2.30261e-16
-1.98119e-16
-2.70489e-16
-1.75591e-16
-2.29175e-16
-1.76318e-16
-2.0796e-16
-1.85071e-16
-2.43668e-16
-2.29105e-16
-2.32739e-16
-1.87718e-16
-2.67153e-16
-1.84288e-16
-2.22963e-16
-2.113e-16
-2.09906e-16
-2.17397e-16
-1.36937e-16
-5.87645e-17
-1.42208e-16
-9.58013e-17
-1.21518e-16
-5.01951e-17
3.22104e-17
1.71178e-17
1.9736e-17
1.13571e-16
1.69873e-16
1.56871e-16
1.59622e-16
1.11204e-16
1.58408e-16
1.04705e-16
5.24786e-17
2.64919e-18
3.27637e-17
6.57248e-17
9.96478e-17
1.63698e-16
1.87363e-16
1.31498e-16
1.2221e-16
5.07486e-17
9.48833e-17
3.15226e-17
-2.76142e-17
8.31489e-17
7.30054e-17
-1.48006e-17
-7.87793e-17
-5.51616e-17
-5.51992e-17
8.15287e-18
-1.08428e-17
2.52024e-17
-6.76894e-17
-7.44575e-17
-7.63791e-17
-7.33829e-17
-6.03118e-17
-3.36117e-17
-6.14482e-17
-3.1695e-17
-5.80604e-17
-4.79993e-17
-1.26901e-16
-1.13215e-16
-1.00146e-16
-2.39865e-17
-6.09279e-17
-9.96774e-17
-9.03264e-17
-1.6464e-16
-1.46281e-16
-7.59272e-17
-9.85357e-17
-8.03686e-17
-1.07061e-16
-4.74558e-17
-1.01279e-16
-1.23351e-16
-1.4567e-16
-1.0631e-16
-7.86028e-17
-9.62041e-17
-9.72527e-17
-1.27457e-16
-1.74994e-16
-1.34281e-16
-1.18611e-16
-1.17357e-16
-9.06284e-17
-1.23024e-16
-1.39163e-16
-1.20782e-16
-1.54354e-16
-1.55091e-16
-1.81636e-16
-1.49434e-16
-2.1532e-16
-1.54215e-16
-1.9361e-16
-1.79433e-16
-1.68678e-16
-1.63634e-16
-1.54157e-16
-1.11343e-16
-1.54312e-16
-1.44258e-16
-9.74186e-17
-5.35255e-17
-6.45652e-17
-3.99469e-17
-8.38474e-17
-5.83789e-17
-8.39194e-17
-2.48619e-17
6.55927e-18
-2.3407e-17
4.68384e-18
-4.67459e-19
-5.39779e-17
-5.1908e-17
-4.89856e-17
-5.47452e-17
-1.20181e-16
-3.95557e-17
-6.50622e-17
-6.70758e-17
-5.67127e-17
-4.89977e-17
-6.07988e-17
-3.02903e-17
-5.65607e-17
-2.98408e-17
-1.18173e-17
-3.50008e-17
-2.64688e-17
-2.33398e-18
3.39118e-17
5.89995e-17
3.05326e-17
3.263e-17
4.88863e-17
6.25903e-17
5.30946e-17
5.33633e-17
4.66417e-17
5.22972e-17
5.01513e-17
5.22729e-17
7.33936e-17
1.13088e-16
9.43713e-17
5.21289e-17
2.39919e-17
6.19857e-17
-6.59879e-18
9.85154e-18
3.09365e-18
3.08467e-17
-5.72606e-18
1.7668e-17
2.80013e-17
2.9084e-17
4.6377e-17
5.24569e-17
2.65916e-17
2.31664e-17
-3.07216e-17
3.28435e-17
-3.3376e-18
4.309e-18
-1.60802e-17
9.6054e-18
1.64752e-18
2.0602e-17
9.22055e-18
5.49193e-17
-1.75127e-17
-6.33725e-18
-4.9533e-17
-3.54553e-17
-6.7426e-17
-6.40933e-17
-7.53912e-17
-5.87461e-17
-9.87288e-17
-2.73517e-17
-9.24948e-17
-4.17536e-17
-9.04905e-17
7.92619e-18
-7.49698e-17
1.88803e-17
-6.97908e-18
5.40393e-17
3.23028e-17
9.33596e-17
-2.75334e-18
2.01965e-17
-3.5871e-17
6.50165e-17
5.00317e-17
6.96684e-17
6.53225e-18
7.96157e-17
-9.53048e-18
2.57104e-17
-1.88828e-17
5.83943e-17
-8.50439e-18
3.58813e-17
-3.26763e-17
4.06456e-17
5.68399e-17
9.09714e-17
7.00267e-17
9.82525e-17
3.45169e-17
8.41079e-17
1.15981e-16
1.25815e-16
1.06575e-16
1.43251e-16
1.25545e-16
1.36496e-16
1.06176e-16
1.36861e-16
1.13984e-16
1.52935e-16
9.71497e-17
1.80496e-16
1.88651e-16
1.91104e-16
1.57529e-16
1.7625e-16
1.14696e-16
1.9919e-16
1.69006e-16
2.22553e-16
1.85189e-16
2.43083e-16
1.90045e-16
1.8891e-16
1.50929e-16
1.53359e-16
1.22668e-16
1.93413e-16
1.73805e-16
2.02325e-16
1.93167e-16
2.04832e-16
1.36067e-16
1.37026e-16
1.55211e-16
1.97424e-16
1.58487e-16
2.10429e-16
2.0429e-16
1.96816e-16
1.60826e-16
1.79219e-16
1.95476e-16
2.02008e-16
1.35047e-16
1.21266e-16
1.41811e-16
1.6772e-16
1.63261e-16
1.54161e-16
1.52734e-16
1.66767e-16
1.38159e-16
1.59e-16
1.25037e-16
1.76699e-16
1.73502e-16
2.19378e-16
2.0893e-16
2.60875e-16
2.16549e-16
2.14074e-16
1.7338e-16
1.68008e-16
1.33148e-16
1.67201e-16
1.81188e-16
2.12078e-16
1.74458e-16
2.03071e-16
1.66775e-16
1.68155e-16
1.60227e-16
2.00113e-16
1.71843e-16
2.09441e-16
1.9163e-16
2.11859e-16
1.81887e-16
1.27773e-16
1.46971e-16
1.2268e-16
1.09868e-16
1.42757e-16
1.17291e-16
1.50868e-16
8.68182e-17
9.90077e-17
9.73842e-17
1.34204e-16
1.19185e-16
1.44516e-16
1.3542e-16
1.63568e-16
1.9542e-16
2.4235e-16
2.12657e-16
2.51939e-16
2.0922e-16
2.21302e-16
1.67559e-16
1.91295e-16
1.79571e-16
2.19833e-16
1.64395e-16
2.15314e-16
1.80274e-16
2.28096e-16
1.92937e-16
2.23355e-16
2.26259e-16
2.70439e-16
2.46904e-16
3.02294e-16
2.74441e-16
3.37662e-16
2.83169e-16
3.13277e-16
3.11244e-16
3.63707e-16
3.96247e-16
4.1914e-16
4.43624e-16
4.26612e-16
3.8072e-16
4.11882e-16
3.79005e-16
3.91264e-16
3.42961e-16
3.75705e-16
2.86376e-16
3.18204e-16
3.17946e-16
2.89223e-16
2.71056e-16
3.25231e-16
3.05574e-16
3.08159e-16
3.35632e-16
3.24281e-16
3.17352e-16
3.07326e-16
3.43303e-16
3.57004e-16
3.48933e-16
3.88694e-16
3.56457e-16
3.93324e-16
3.65189e-16
3.95253e-16
3.97693e-16
4.21569e-16
3.94115e-16
4.08267e-16
3.98087e-16
4.24043e-16
4.38561e-16
4.44639e-16
4.38434e-16
5.07237e-16
4.67235e-16
4.7941e-16
4.61547e-16
4.17266e-16
4.15223e-16
4.4171e-16
4.2142e-16
4.62341e-16
4.51172e-16
4.46265e-16
4.67606e-16
4.49615e-16
4.47824e-16
4.52481e-16
4.58621e-16
4.44132e-16
4.36434e-16
4.77622e-16
4.21227e-16
4.17215e-16
4.0262e-16
4.35105e-16
4.08546e-16
3.99954e-16
4.20705e-16
4.01578e-16
4.26309e-16
4.25545e-16
3.94906e-16
3.96287e-16
3.31326e-16
3.48126e-16
3.09459e-16
3.28832e-16
2.6563e-16
2.92984e-16
3.06576e-16
2.91907e-16
2.28911e-16
2.6995e-16
2.53571e-16
2.85759e-16
2.55407e-16
2.92763e-16
2.34967e-16
2.79849e-16
2.63419e-16
2.6476e-16
2.34809e-16
2.8199e-16
2.99072e-16
3.15445e-16
3.17144e-16
3.36451e-16
3.21773e-16
3.65997e-16
3.59899e-16
3.8487e-16
4.1769e-16
4.16672e-16
4.25414e-16
4.30384e-16
3.85119e-16
4.31915e-16
3.72976e-16
4.29261e-16
3.77539e-16
4.2331e-16
3.12113e-16
3.73809e-16
3.32163e-16
3.77971e-16
3.41633e-16
3.3299e-16
3.06493e-16
3.31474e-16
3.09017e-16
2.96673e-16
2.80636e-16
2.73314e-16
2.2047e-16
2.53011e-16
1.6903e-16
2.06521e-16
1.79437e-16
2.2699e-16
1.84166e-16
2.40606e-16
2.58616e-16
2.83416e-16
2.15351e-16
2.18053e-16
2.35929e-16
2.67875e-16
2.65578e-16
2.66981e-16
2.36661e-16
2.56771e-16
2.1962e-16
2.45561e-16
2.11692e-16
2.54839e-16
2.4199e-16
2.54158e-16
2.81889e-16
2.70026e-16
2.78233e-16
2.80832e-16
2.7157e-16
2.92808e-16
2.62704e-16
2.71272e-16
2.904e-16
3.37435e-16
2.18429e-16
3.2842e-16
2.97866e-16
2.99464e-16
2.64814e-16
3.43328e-16
3.27078e-16
2.15043e-16
2.35615e-16
3.11544e-16
3.07447e-16
3.18968e-16
3.24446e-16
3.1374e-16
3.25354e-16
3.57328e-16
4.16287e-16
4.8382e-16
5.25908e-16
5.44282e-16
5.09546e-16
4.58226e-16
4.2856e-16
3.92254e-16
4.93782e-16
4.77154e-16
4.22202e-16
4.34627e-16
4.61809e-16
4.47906e-16
4.04813e-16
4.69041e-16
3.87694e-16
3.80668e-16
3.73387e-16
3.5832e-16
3.25068e-16
3.63035e-16
2.66038e-16
2.86273e-16
2.59555e-16
3.01153e-16
2.80681e-16
2.40242e-16
2.4192e-16
2.56155e-16
2.06906e-16
1.37894e-16
1.48779e-16
1.15376e-16
8.16684e-17
1.59499e-16
7.66751e-17
3.0974e-17
-1.39082e-17
9.26772e-17
9.9272e-17
6.63799e-17
7.93055e-17
1.0154e-16
1.10429e-16
1.17172e-16
1.05798e-16
1.20269e-16
7.05366e-17
2.92114e-17
2.81813e-17
3.51359e-17
5.66229e-17
5.75489e-17
8.46722e-17
6.13765e-17
7.79015e-17
6.94383e-17
1.89592e-17
2.13724e-17
5.94875e-17
5.16203e-17
7.34599e-17
6.74175e-17
8.20158e-17
6.01221e-17
4.44095e-17
1.9066e-17
-8.4915e-18
-9.55334e-18
-6.91902e-19
)
;

boundaryField
{
    bottomWall
    {
        type            calculated;
        value           uniform 0;
    }
    topWall
    {
        type            calculated;
        value           uniform 0;
    }
    sides1_half0
    {
        type            empty;
        value           nonuniform 0();
    }
    sides1_half1
    {
        type            empty;
        value           nonuniform 0();
    }
    sides2_half0
    {
        type            empty;
        value           nonuniform 0();
    }
    sides2_half1
    {
        type            empty;
        value           nonuniform 0();
    }
    inout1_half0
    {
        type            cyclic;
        value           nonuniform List<scalar> 
300
(
7.13252e-09
2.18399e-08
3.72297e-08
5.33268e-08
7.01567e-08
8.77457e-08
1.06121e-07
1.25311e-07
1.45344e-07
1.66251e-07
1.88062e-07
2.1081e-07
2.34527e-07
2.59248e-07
2.85008e-07
3.11844e-07
3.39792e-07
3.68891e-07
3.99182e-07
4.30706e-07
4.63504e-07
4.97621e-07
5.33102e-07
5.69992e-07
6.0834e-07
6.48194e-07
6.89605e-07
7.32623e-07
7.77302e-07
8.23694e-07
8.71856e-07
9.21843e-07
9.73711e-07
1.02752e-06
1.08332e-06
1.14118e-06
1.20116e-06
1.26331e-06
1.32769e-06
1.39436e-06
1.46338e-06
1.5348e-06
1.60868e-06
1.68507e-06
1.76402e-06
1.84558e-06
1.92979e-06
2.01669e-06
2.10633e-06
2.19873e-06
2.29393e-06
2.39195e-06
2.49282e-06
2.59654e-06
2.70315e-06
2.81264e-06
2.92503e-06
3.04032e-06
3.15852e-06
3.27962e-06
3.40362e-06
3.53053e-06
3.66035e-06
3.79306e-06
3.92868e-06
4.06721e-06
4.20864e-06
4.35299e-06
4.50026e-06
4.65046e-06
4.8036e-06
4.95971e-06
5.11879e-06
5.28087e-06
5.44598e-06
5.61414e-06
5.78538e-06
5.95975e-06
6.13727e-06
6.31805e-06
6.50221e-06
6.68982e-06
6.88092e-06
7.07556e-06
7.27377e-06
7.47561e-06
7.68112e-06
7.89035e-06
8.10335e-06
8.32017e-06
8.54087e-06
8.7655e-06
8.99412e-06
9.2268e-06
9.46358e-06
9.70455e-06
9.94975e-06
1.01993e-05
1.04532e-05
1.07115e-05
1.09744e-05
1.12419e-05
1.1514e-05
1.17909e-05
1.20727e-05
1.23593e-05
1.2651e-05
1.29478e-05
1.32497e-05
1.3557e-05
1.38696e-05
1.41876e-05
1.45113e-05
1.48406e-05
1.51756e-05
1.55165e-05
1.58634e-05
1.62164e-05
1.65755e-05
1.69409e-05
1.73128e-05
1.76912e-05
1.80762e-05
1.8468e-05
1.88667e-05
1.92724e-05
1.96852e-05
2.01054e-05
2.05329e-05
2.09679e-05
2.14107e-05
2.18612e-05
2.23197e-05
2.27863e-05
2.32612e-05
2.37444e-05
2.42363e-05
2.47368e-05
2.52461e-05
2.57645e-05
2.62921e-05
2.68291e-05
2.73756e-05
2.79317e-05
2.84978e-05
2.90738e-05
2.96602e-05
3.02569e-05
3.08642e-05
3.14824e-05
3.21115e-05
3.27518e-05
3.34035e-05
3.40668e-05
3.47419e-05
3.5429e-05
3.61284e-05
3.68402e-05
3.75647e-05
3.83021e-05
3.90526e-05
3.98165e-05
4.0594e-05
4.13853e-05
4.21907e-05
4.30105e-05
4.38449e-05
4.46942e-05
4.55586e-05
4.64384e-05
4.73339e-05
4.82454e-05
4.9173e-05
5.01172e-05
5.10783e-05
5.20564e-05
5.3052e-05
5.40653e-05
5.50967e-05
5.61464e-05
5.72149e-05
5.83023e-05
5.94091e-05
6.05356e-05
6.16822e-05
6.28491e-05
6.40368e-05
6.52457e-05
6.6476e-05
6.77282e-05
6.90027e-05
7.02998e-05
7.16199e-05
7.29635e-05
7.43309e-05
7.57226e-05
7.7139e-05
7.85805e-05
8.00476e-05
8.15407e-05
8.30602e-05
8.46066e-05
8.61804e-05
8.77821e-05
8.9412e-05
9.10708e-05
9.27589e-05
9.44768e-05
9.6225e-05
9.8004e-05
9.98144e-05
0.000101657
0.000103531
0.000105439
0.00010738
0.000109355
0.000111365
0.00011341
0.00011549
0.000117607
0.00011976
0.000121951
0.000124179
0.000126446
0.000128751
0.000131095
0.000133478
0.000135902
0.000138367
0.000140874
0.000143423
0.000146016
0.000148654
0.000151337
0.000154066
0.000156841
0.000159663
0.000162534
0.000165453
0.000168421
0.00017144
0.00017451
0.000177631
0.000180805
0.000184033
0.000187314
0.00019065
0.000194042
0.00019749
0.000200995
0.000204558
0.00020818
0.000211861
0.000215603
0.000219406
0.000223271
0.000227199
0.00023119
0.000235246
0.000239367
0.000243554
0.000247808
0.000252129
0.000256519
0.000260978
0.000265507
0.000270106
0.000274777
0.000279519
0.000284335
0.000289224
0.000294188
0.000299226
0.000304339
0.000309529
0.000314795
0.000320139
0.000325561
0.00033106
0.000336639
0.000342296
0.000348033
0.00035385
0.000359747
0.000365724
0.000371781
0.000377919
0.000384138
0.000390437
0.000396816
0.000403276
0.000409815
0.000416433
0.00042313
0.000429904
0.000436756
0.000443683
0.000450685
0.00045776
0.000464907
)
;
    }
    inout1_half1
    {
        type            cyclic;
        value           nonuniform List<scalar> 
300
(
-7.13252e-09
-2.18399e-08
-3.72297e-08
-5.33268e-08
-7.01567e-08
-8.77457e-08
-1.06121e-07
-1.25311e-07
-1.45344e-07
-1.66251e-07
-1.88062e-07
-2.1081e-07
-2.34527e-07
-2.59248e-07
-2.85008e-07
-3.11844e-07
-3.39792e-07
-3.68891e-07
-3.99182e-07
-4.30706e-07
-4.63504e-07
-4.97621e-07
-5.33102e-07
-5.69992e-07
-6.0834e-07
-6.48194e-07
-6.89605e-07
-7.32623e-07
-7.77302e-07
-8.23694e-07
-8.71856e-07
-9.21843e-07
-9.73711e-07
-1.02752e-06
-1.08332e-06
-1.14118e-06
-1.20116e-06
-1.26331e-06
-1.32769e-06
-1.39436e-06
-1.46338e-06
-1.5348e-06
-1.60868e-06
-1.68507e-06
-1.76402e-06
-1.84558e-06
-1.92979e-06
-2.01669e-06
-2.10633e-06
-2.19873e-06
-2.29393e-06
-2.39195e-06
-2.49282e-06
-2.59654e-06
-2.70315e-06
-2.81264e-06
-2.92503e-06
-3.04032e-06
-3.15852e-06
-3.27962e-06
-3.40362e-06
-3.53053e-06
-3.66035e-06
-3.79306e-06
-3.92868e-06
-4.06721e-06
-4.20864e-06
-4.35299e-06
-4.50026e-06
-4.65046e-06
-4.8036e-06
-4.95971e-06
-5.11879e-06
-5.28087e-06
-5.44598e-06
-5.61414e-06
-5.78538e-06
-5.95975e-06
-6.13727e-06
-6.31805e-06
-6.50221e-06
-6.68982e-06
-6.88092e-06
-7.07556e-06
-7.27377e-06
-7.47561e-06
-7.68112e-06
-7.89035e-06
-8.10335e-06
-8.32017e-06
-8.54087e-06
-8.7655e-06
-8.99412e-06
-9.2268e-06
-9.46358e-06
-9.70455e-06
-9.94975e-06
-1.01993e-05
-1.04532e-05
-1.07115e-05
-1.09744e-05
-1.12419e-05
-1.1514e-05
-1.17909e-05
-1.20727e-05
-1.23593e-05
-1.2651e-05
-1.29478e-05
-1.32497e-05
-1.3557e-05
-1.38696e-05
-1.41876e-05
-1.45113e-05
-1.48406e-05
-1.51756e-05
-1.55165e-05
-1.58634e-05
-1.62164e-05
-1.65755e-05
-1.69409e-05
-1.73128e-05
-1.76912e-05
-1.80762e-05
-1.8468e-05
-1.88667e-05
-1.92724e-05
-1.96852e-05
-2.01054e-05
-2.05329e-05
-2.09679e-05
-2.14107e-05
-2.18612e-05
-2.23197e-05
-2.27863e-05
-2.32612e-05
-2.37444e-05
-2.42363e-05
-2.47368e-05
-2.52461e-05
-2.57645e-05
-2.62921e-05
-2.68291e-05
-2.73756e-05
-2.79317e-05
-2.84978e-05
-2.90738e-05
-2.96602e-05
-3.02569e-05
-3.08642e-05
-3.14824e-05
-3.21115e-05
-3.27518e-05
-3.34035e-05
-3.40668e-05
-3.47419e-05
-3.5429e-05
-3.61284e-05
-3.68402e-05
-3.75647e-05
-3.83021e-05
-3.90526e-05
-3.98165e-05
-4.0594e-05
-4.13853e-05
-4.21907e-05
-4.30105e-05
-4.38449e-05
-4.46942e-05
-4.55586e-05
-4.64384e-05
-4.73339e-05
-4.82454e-05
-4.9173e-05
-5.01172e-05
-5.10783e-05
-5.20564e-05
-5.3052e-05
-5.40653e-05
-5.50967e-05
-5.61464e-05
-5.72149e-05
-5.83023e-05
-5.94091e-05
-6.05356e-05
-6.16822e-05
-6.28491e-05
-6.40368e-05
-6.52457e-05
-6.6476e-05
-6.77282e-05
-6.90027e-05
-7.02998e-05
-7.16199e-05
-7.29635e-05
-7.43309e-05
-7.57226e-05
-7.7139e-05
-7.85805e-05
-8.00476e-05
-8.15407e-05
-8.30602e-05
-8.46066e-05
-8.61804e-05
-8.77821e-05
-8.9412e-05
-9.10708e-05
-9.27589e-05
-9.44768e-05
-9.6225e-05
-9.8004e-05
-9.98144e-05
-0.000101657
-0.000103531
-0.000105439
-0.00010738
-0.000109355
-0.000111365
-0.00011341
-0.00011549
-0.000117607
-0.00011976
-0.000121951
-0.000124179
-0.000126446
-0.000128751
-0.000131095
-0.000133478
-0.000135902
-0.000138367
-0.000140874
-0.000143423
-0.000146016
-0.000148654
-0.000151337
-0.000154066
-0.000156841
-0.000159663
-0.000162534
-0.000165453
-0.000168421
-0.00017144
-0.00017451
-0.000177631
-0.000180805
-0.000184033
-0.000187314
-0.00019065
-0.000194042
-0.00019749
-0.000200995
-0.000204558
-0.00020818
-0.000211861
-0.000215603
-0.000219406
-0.000223271
-0.000227199
-0.00023119
-0.000235246
-0.000239367
-0.000243554
-0.000247808
-0.000252129
-0.000256519
-0.000260978
-0.000265507
-0.000270106
-0.000274777
-0.000279519
-0.000284335
-0.000289224
-0.000294188
-0.000299226
-0.000304339
-0.000309529
-0.000314795
-0.000320139
-0.000325561
-0.00033106
-0.000336639
-0.000342296
-0.000348033
-0.00035385
-0.000359747
-0.000365724
-0.000371781
-0.000377919
-0.000384138
-0.000390437
-0.000396816
-0.000403276
-0.000409815
-0.000416433
-0.00042313
-0.000429904
-0.000436756
-0.000443683
-0.000450685
-0.00045776
-0.000464907
)
;
    }
    inout2_half0
    {
        type            cyclic;
        value           nonuniform List<scalar> 
300
(
0.000464907
0.00045776
0.000450685
0.000443683
0.000436756
0.000429904
0.00042313
0.000416433
0.000409815
0.000403276
0.000396816
0.000390437
0.000384138
0.000377919
0.000371781
0.000365724
0.000359747
0.00035385
0.000348033
0.000342296
0.000336639
0.00033106
0.000325561
0.000320139
0.000314796
0.000309529
0.000304339
0.000299226
0.000294188
0.000289224
0.000284335
0.00027952
0.000274777
0.000270106
0.000265507
0.000260978
0.000256519
0.000252129
0.000247808
0.000243554
0.000239367
0.000235246
0.00023119
0.000227199
0.000223271
0.000219406
0.000215603
0.000211861
0.00020818
0.000204558
0.000200995
0.000197489
0.000194042
0.00019065
0.000187314
0.000184033
0.000180805
0.000177631
0.00017451
0.00017144
0.000168421
0.000165453
0.000162534
0.000159663
0.000156841
0.000154066
0.000151337
0.000148654
0.000146016
0.000143423
0.000140874
0.000138367
0.000135902
0.000133478
0.000131095
0.000128751
0.000126446
0.000124179
0.000121951
0.00011976
0.000117607
0.00011549
0.00011341
0.000111365
0.000109355
0.00010738
0.000105439
0.000103531
0.000101657
9.98144e-05
9.8004e-05
9.6225e-05
9.44768e-05
9.27589e-05
9.10708e-05
8.9412e-05
8.77821e-05
8.61804e-05
8.46066e-05
8.30602e-05
8.15407e-05
8.00476e-05
7.85806e-05
7.7139e-05
7.57226e-05
7.43309e-05
7.29635e-05
7.16199e-05
7.02997e-05
6.90027e-05
6.77282e-05
6.6476e-05
6.52457e-05
6.40368e-05
6.28491e-05
6.16822e-05
6.05356e-05
5.94091e-05
5.83023e-05
5.72149e-05
5.61464e-05
5.50967e-05
5.40653e-05
5.3052e-05
5.20565e-05
5.10783e-05
5.01173e-05
4.9173e-05
4.82453e-05
4.73339e-05
4.64384e-05
4.55586e-05
4.46942e-05
4.38449e-05
4.30105e-05
4.21907e-05
4.13853e-05
4.0594e-05
3.98165e-05
3.90526e-05
3.83021e-05
3.75647e-05
3.68402e-05
3.61284e-05
3.5429e-05
3.47419e-05
3.40668e-05
3.34035e-05
3.27518e-05
3.21115e-05
3.14824e-05
3.08642e-05
3.02569e-05
2.96602e-05
2.90738e-05
2.84977e-05
2.79317e-05
2.73756e-05
2.68291e-05
2.62921e-05
2.57646e-05
2.52461e-05
2.47368e-05
2.42363e-05
2.37444e-05
2.32612e-05
2.27863e-05
2.23197e-05
2.18612e-05
2.14107e-05
2.09679e-05
2.05329e-05
2.01054e-05
1.96852e-05
1.92724e-05
1.88667e-05
1.8468e-05
1.80762e-05
1.76912e-05
1.73128e-05
1.69409e-05
1.65755e-05
1.62163e-05
1.58634e-05
1.55165e-05
1.51756e-05
1.48406e-05
1.45113e-05
1.41876e-05
1.38696e-05
1.3557e-05
1.32497e-05
1.29478e-05
1.2651e-05
1.23593e-05
1.20727e-05
1.17909e-05
1.1514e-05
1.12419e-05
1.09744e-05
1.07115e-05
1.04532e-05
1.01993e-05
9.94975e-06
9.70454e-06
9.46359e-06
9.22679e-06
8.99413e-06
8.76549e-06
8.54086e-06
8.32018e-06
8.10335e-06
7.89035e-06
7.68112e-06
7.47562e-06
7.27377e-06
7.07555e-06
6.88092e-06
6.68982e-06
6.5022e-06
6.31805e-06
6.13727e-06
5.95974e-06
5.78539e-06
5.61414e-06
5.44598e-06
5.28088e-06
5.11879e-06
4.95971e-06
4.8036e-06
4.65046e-06
4.50026e-06
4.35299e-06
4.20865e-06
4.06721e-06
3.92868e-06
3.79306e-06
3.66034e-06
3.53053e-06
3.40362e-06
3.27961e-06
3.15852e-06
3.04032e-06
2.92503e-06
2.81264e-06
2.70315e-06
2.59654e-06
2.49282e-06
2.39195e-06
2.29393e-06
2.19873e-06
2.10633e-06
2.01669e-06
1.92979e-06
1.84558e-06
1.76402e-06
1.68507e-06
1.60868e-06
1.5348e-06
1.46337e-06
1.39436e-06
1.32769e-06
1.26331e-06
1.20116e-06
1.14118e-06
1.08333e-06
1.02752e-06
9.73712e-07
9.21844e-07
8.71854e-07
8.23695e-07
7.77301e-07
7.32623e-07
6.89607e-07
6.48194e-07
6.08338e-07
5.69994e-07
5.33101e-07
4.97622e-07
4.63503e-07
4.30707e-07
3.99182e-07
3.68891e-07
3.39791e-07
3.11845e-07
2.85007e-07
2.59249e-07
2.34528e-07
2.1081e-07
1.88062e-07
1.6625e-07
1.45344e-07
1.25311e-07
1.06121e-07
8.77457e-08
7.01568e-08
5.33266e-08
3.72298e-08
2.18399e-08
7.13252e-09
)
;
    }
    inout2_half1
    {
        type            cyclic;
        value           nonuniform List<scalar> 
300
(
-0.000464907
-0.00045776
-0.000450685
-0.000443683
-0.000436756
-0.000429904
-0.00042313
-0.000416433
-0.000409815
-0.000403276
-0.000396816
-0.000390437
-0.000384138
-0.000377919
-0.000371781
-0.000365724
-0.000359747
-0.00035385
-0.000348033
-0.000342296
-0.000336639
-0.00033106
-0.000325561
-0.000320139
-0.000314796
-0.000309529
-0.000304339
-0.000299226
-0.000294188
-0.000289224
-0.000284335
-0.00027952
-0.000274777
-0.000270106
-0.000265507
-0.000260978
-0.000256519
-0.000252129
-0.000247808
-0.000243554
-0.000239367
-0.000235246
-0.00023119
-0.000227199
-0.000223271
-0.000219406
-0.000215603
-0.000211861
-0.00020818
-0.000204558
-0.000200995
-0.000197489
-0.000194042
-0.00019065
-0.000187314
-0.000184033
-0.000180805
-0.000177631
-0.00017451
-0.00017144
-0.000168421
-0.000165453
-0.000162534
-0.000159663
-0.000156841
-0.000154066
-0.000151337
-0.000148654
-0.000146016
-0.000143423
-0.000140874
-0.000138367
-0.000135902
-0.000133478
-0.000131095
-0.000128751
-0.000126446
-0.000124179
-0.000121951
-0.00011976
-0.000117607
-0.00011549
-0.00011341
-0.000111365
-0.000109355
-0.00010738
-0.000105439
-0.000103531
-0.000101657
-9.98144e-05
-9.8004e-05
-9.6225e-05
-9.44768e-05
-9.27589e-05
-9.10708e-05
-8.9412e-05
-8.77821e-05
-8.61804e-05
-8.46066e-05
-8.30602e-05
-8.15407e-05
-8.00476e-05
-7.85806e-05
-7.7139e-05
-7.57226e-05
-7.43309e-05
-7.29635e-05
-7.16199e-05
-7.02997e-05
-6.90027e-05
-6.77282e-05
-6.6476e-05
-6.52457e-05
-6.40368e-05
-6.28491e-05
-6.16822e-05
-6.05356e-05
-5.94091e-05
-5.83023e-05
-5.72149e-05
-5.61464e-05
-5.50967e-05
-5.40653e-05
-5.3052e-05
-5.20565e-05
-5.10783e-05
-5.01173e-05
-4.9173e-05
-4.82453e-05
-4.73339e-05
-4.64384e-05
-4.55586e-05
-4.46942e-05
-4.38449e-05
-4.30105e-05
-4.21907e-05
-4.13853e-05
-4.0594e-05
-3.98165e-05
-3.90526e-05
-3.83021e-05
-3.75647e-05
-3.68402e-05
-3.61284e-05
-3.5429e-05
-3.47419e-05
-3.40668e-05
-3.34035e-05
-3.27518e-05
-3.21115e-05
-3.14824e-05
-3.08642e-05
-3.02569e-05
-2.96602e-05
-2.90738e-05
-2.84977e-05
-2.79317e-05
-2.73756e-05
-2.68291e-05
-2.62921e-05
-2.57646e-05
-2.52461e-05
-2.47368e-05
-2.42363e-05
-2.37444e-05
-2.32612e-05
-2.27863e-05
-2.23197e-05
-2.18612e-05
-2.14107e-05
-2.09679e-05
-2.05329e-05
-2.01054e-05
-1.96852e-05
-1.92724e-05
-1.88667e-05
-1.8468e-05
-1.80762e-05
-1.76912e-05
-1.73128e-05
-1.69409e-05
-1.65755e-05
-1.62163e-05
-1.58634e-05
-1.55165e-05
-1.51756e-05
-1.48406e-05
-1.45113e-05
-1.41876e-05
-1.38696e-05
-1.3557e-05
-1.32497e-05
-1.29478e-05
-1.2651e-05
-1.23593e-05
-1.20727e-05
-1.17909e-05
-1.1514e-05
-1.12419e-05
-1.09744e-05
-1.07115e-05
-1.04532e-05
-1.01993e-05
-9.94975e-06
-9.70454e-06
-9.46359e-06
-9.22679e-06
-8.99413e-06
-8.76549e-06
-8.54086e-06
-8.32018e-06
-8.10335e-06
-7.89035e-06
-7.68112e-06
-7.47562e-06
-7.27377e-06
-7.07555e-06
-6.88092e-06
-6.68982e-06
-6.5022e-06
-6.31805e-06
-6.13727e-06
-5.95974e-06
-5.78539e-06
-5.61414e-06
-5.44598e-06
-5.28088e-06
-5.11879e-06
-4.95971e-06
-4.8036e-06
-4.65046e-06
-4.50026e-06
-4.35299e-06
-4.20865e-06
-4.06721e-06
-3.92868e-06
-3.79306e-06
-3.66034e-06
-3.53053e-06
-3.40362e-06
-3.27961e-06
-3.15852e-06
-3.04032e-06
-2.92503e-06
-2.81264e-06
-2.70315e-06
-2.59654e-06
-2.49282e-06
-2.39195e-06
-2.29393e-06
-2.19873e-06
-2.10633e-06
-2.01669e-06
-1.92979e-06
-1.84558e-06
-1.76402e-06
-1.68507e-06
-1.60868e-06
-1.5348e-06
-1.46337e-06
-1.39436e-06
-1.32769e-06
-1.26331e-06
-1.20116e-06
-1.14118e-06
-1.08333e-06
-1.02752e-06
-9.73712e-07
-9.21844e-07
-8.71854e-07
-8.23695e-07
-7.77301e-07
-7.32623e-07
-6.89607e-07
-6.48194e-07
-6.08338e-07
-5.69994e-07
-5.33101e-07
-4.97622e-07
-4.63503e-07
-4.30707e-07
-3.99182e-07
-3.68891e-07
-3.39791e-07
-3.11845e-07
-2.85007e-07
-2.59249e-07
-2.34528e-07
-2.1081e-07
-1.88062e-07
-1.6625e-07
-1.45344e-07
-1.25311e-07
-1.06121e-07
-8.77457e-08
-7.01568e-08
-5.33266e-08
-3.72298e-08
-2.18399e-08
-7.13252e-09
)
;
    }
}


// ************************************************************************* //
