/*--------------------------------*- C++ -*----------------------------------*\
  =========                 |
  \\      /  F ield         | OpenFOAM: The Open Source CFD Toolbox
   \\    /   O peration     | Website:  https://openfoam.org
    \\  /    A nd           | Version:  7
     \\/     M anipulation  |
\*---------------------------------------------------------------------------*/
FoamFile
{
    version     2.0;
    format      ascii;
    class       volVectorField;
    location    "98500";
    object      U;
}
// * * * * * * * * * * * * * * * * * * * * * * * * * * * * * * * * * * * * * //

dimensions      [0 1 -1 0 0 0 0];

internalField   nonuniform List<vector> 
600
(
(0.000231037 3.20256e-15 0)
(0.000696624 -3.33794e-14 0)
(0.00116936 -1.97915e-14 0)
(0.00164937 -2.12615e-14 0)
(0.00213674 -1.83456e-14 0)
(0.00263159 -1.79146e-14 0)
(0.00313405 -1.75896e-14 0)
(0.00364421 -1.69746e-14 0)
(0.0041622 -1.56749e-14 0)
(0.00468814 -1.37624e-14 0)
(0.00522215 -1.51669e-14 0)
(0.00576435 -1.52535e-14 0)
(0.00631486 -1.33471e-14 0)
(0.00687381 -1.27709e-14 0)
(0.00744132 -1.33537e-14 0)
(0.00801753 -1.08593e-14 0)
(0.00860255 -8.84068e-15 0)
(0.00919653 -1.13262e-14 0)
(0.00979959 -1.19249e-14 0)
(0.0104119 -1.14312e-14 0)
(0.0110335 -9.8993e-15 0)
(0.0116646 -1.00798e-14 0)
(0.0123053 -1.00356e-14 0)
(0.0129557 -1.10031e-14 0)
(0.013616 -1.07765e-14 0)
(0.0142863 -1.25791e-14 0)
(0.0149667 -1.11023e-14 0)
(0.0156573 -9.58464e-15 0)
(0.0163582 -1.11388e-14 0)
(0.0170696 -1.15389e-14 0)
(0.0177916 -1.14381e-14 0)
(0.0185241 -9.42098e-15 0)
(0.0192673 -1.07223e-14 0)
(0.0200213 -1.00479e-14 0)
(0.020786 -8.48894e-15 0)
(0.0215615 -4.74393e-15 0)
(0.0223478 -5.80626e-15 0)
(0.0231449 -5.59746e-15 0)
(0.0239526 -5.28121e-15 0)
(0.024771 -3.53665e-15 0)
(0.0255998 1.23641e-15 0)
(0.0264388 1.27355e-15 0)
(0.027288 -1.39643e-15 0)
(0.0281469 3.87767e-15 0)
(0.0290153 8.62132e-15 0)
(0.0298928 7.24507e-15 0)
(0.030779 8.32749e-15 0)
(0.0316735 4.27391e-15 0)
(0.0325757 6.92629e-15 0)
(0.0334851 7.23695e-15 0)
(0.0344009 4.68083e-15 0)
(0.0353226 1.12416e-15 0)
(0.0362495 1.41088e-15 0)
(0.0371808 2.7485e-15 0)
(0.0381157 5.31599e-15 0)
(0.0390534 7.4863e-15 0)
(0.0399932 8.88506e-15 0)
(0.0409342 8.01926e-15 0)
(0.0418756 6.55063e-15 0)
(0.0428166 3.64591e-15 0)
(0.0437564 3.93102e-15 0)
(0.0446942 4.8545e-15 0)
(0.0456293 7.07256e-16 0)
(0.0465611 1.69718e-15 0)
(0.0474888 2.35145e-15 0)
(0.0484119 1.04437e-15 0)
(0.0493297 -1.80539e-15 0)
(0.0502418 -2.37792e-15 0)
(0.0511477 -1.97224e-15 0)
(0.052047 -9.07491e-16 0)
(0.0529392 9.33133e-17 0)
(0.0538242 4.2355e-16 0)
(0.0547016 -1.01707e-15 0)
(0.0555711 -2.22754e-15 0)
(0.0564327 -3.60899e-15 0)
(0.0572861 -3.04478e-15 0)
(0.0581312 -3.89702e-15 0)
(0.0589679 -1.47228e-15 0)
(0.0597962 -2.794e-15 0)
(0.0606167 -2.17851e-15 0)
(0.0614302 -1.36936e-15 0)
(0.0622366 -3.38554e-15 0)
(0.0630361 -3.80704e-15 0)
(0.0638285 -6.89882e-15 0)
(0.0646137 -5.12089e-15 0)
(0.0653917 -2.9112e-15 0)
(0.0661625 -1.73471e-15 0)
(0.0669259 -4.03683e-15 0)
(0.0676821 -6.03912e-15 0)
(0.0684309 -5.574e-15 0)
(0.0691725 -8.6596e-15 0)
(0.0699067 -5.49286e-15 0)
(0.0706337 -5.0511e-15 0)
(0.0713535 -4.91272e-15 0)
(0.0720661 -4.14874e-15 0)
(0.0727715 -4.33559e-15 0)
(0.0734699 -3.02019e-15 0)
(0.0741613 -5.49946e-15 0)
(0.0748458 -7.85972e-15 0)
(0.0755234 -6.30708e-15 0)
(0.0761942 -4.46687e-15 0)
(0.0768583 -5.36517e-15 0)
(0.0775158 -4.52086e-15 0)
(0.0781668 -4.62534e-15 0)
(0.0788114 -7.37534e-15 0)
(0.0794497 -8.25623e-15 0)
(0.0800817 -6.25166e-15 0)
(0.0807076 -6.17641e-15 0)
(0.0813275 -4.77209e-15 0)
(0.0819415 -5.54631e-15 0)
(0.0825497 -5.15704e-15 0)
(0.0831521 -7.22767e-15 0)
(0.083749 -7.17198e-15 0)
(0.0843403 -7.85349e-15 0)
(0.0849263 -7.88651e-15 0)
(0.0855069 -8.87095e-15 0)
(0.0860824 -9.38078e-15 0)
(0.0866528 -9.52985e-15 0)
(0.0872181 -7.76503e-15 0)
(0.0877786 -9.00946e-15 0)
(0.0883343 -7.7912e-15 0)
(0.0888853 -8.80055e-15 0)
(0.0894318 -7.23323e-15 0)
(0.0899737 -7.02982e-15 0)
(0.0905112 -6.60178e-15 0)
(0.0910444 -6.77317e-15 0)
(0.0915734 -5.87772e-15 0)
(0.0920982 -3.61914e-15 0)
(0.0926191 -3.26983e-15 0)
(0.0931359 -2.48922e-15 0)
(0.093649 -2.74679e-15 0)
(0.0941582 -3.97136e-15 0)
(0.0946637 -2.43277e-15 0)
(0.0951657 -3.21907e-15 0)
(0.0956641 2.35712e-17 0)
(0.096159 -1.26568e-15 0)
(0.0966506 1.10766e-16 0)
(0.0971388 -9.06999e-16 0)
(0.0976239 -1.13114e-15 0)
(0.0981058 -2.39428e-15 0)
(0.0985846 -2.23718e-15 0)
(0.0990604 -3.5086e-15 0)
(0.0995332 -3.42563e-15 0)
(0.100003 -4.64994e-15 0)
(0.10047 -2.34319e-15 0)
(0.100935 -2.48424e-15 0)
(0.101396 -3.16401e-15 0)
(0.101856 -3.00031e-15 0)
(0.102312 -3.2708e-15 0)
(0.102766 -1.48016e-15 0)
(0.103218 -1.70193e-15 0)
(0.103667 -2.61838e-15 0)
(0.104114 -2.78079e-16 0)
(0.104558 -8.7726e-16 0)
(0.105001 -1.28468e-15 0)
(0.105441 -3.00035e-16 0)
(0.105879 5.95833e-16 0)
(0.106315 2.47891e-15 0)
(0.106748 1.10035e-15 0)
(0.10718 1.8779e-15 0)
(0.10761 1.2633e-15 0)
(0.108038 3.84705e-15 0)
(0.108464 3.06271e-15 0)
(0.108889 3.07593e-15 0)
(0.109311 2.39285e-15 0)
(0.109732 2.05896e-15 0)
(0.110151 2.03214e-15 0)
(0.110569 2.80063e-15 0)
(0.110985 3.1235e-15 0)
(0.111399 4.52923e-15 0)
(0.111812 4.7753e-15 0)
(0.112223 3.38165e-15 0)
(0.112632 1.6138e-15 0)
(0.113041 2.46301e-15 0)
(0.113447 7.46626e-16 0)
(0.113853 1.16779e-15 0)
(0.114257 4.54043e-16 0)
(0.11466 8.00801e-16 0)
(0.115061 1.15003e-15 0)
(0.115461 1.13474e-15 0)
(0.11586 1.49806e-15 0)
(0.116258 1.5046e-15 0)
(0.116654 1.47586e-15 0)
(0.117049 2.23811e-15 0)
(0.117443 2.19145e-15 0)
(0.117836 5.24373e-16 0)
(0.118228 -6.74378e-16 0)
(0.118619 -7.70537e-17 0)
(0.119008 8.06264e-16 0)
(0.119397 -1.18023e-17 0)
(0.119785 -4.94278e-16 0)
(0.120171 1.24139e-15 0)
(0.120557 1.09453e-16 0)
(0.120941 9.18705e-16 0)
(0.121325 8.0428e-16 0)
(0.121707 1.02244e-15 0)
(0.122089 1.40479e-15 0)
(0.122469 -7.36219e-16 0)
(0.122849 -1.5237e-15 0)
(0.123228 -1.96551e-15 0)
(0.123606 -4.01891e-15 0)
(0.123983 -2.83558e-15 0)
(0.124359 -3.5451e-15 0)
(0.124734 -3.37508e-15 0)
(0.125108 -4.33254e-15 0)
(0.125482 -1.76937e-15 0)
(0.125854 -3.46014e-15 0)
(0.126226 -2.76578e-15 0)
(0.126596 -2.74243e-15 0)
(0.126966 -1.83802e-15 0)
(0.127335 -2.13911e-15 0)
(0.127703 -8.83582e-16 0)
(0.128071 -7.29669e-17 0)
(0.128437 1.75499e-15 0)
(0.128802 1.55134e-15 0)
(0.129167 3.68745e-15 0)
(0.12953 1.24331e-15 0)
(0.129892 1.32076e-15 0)
(0.130254 -8.04487e-17 0)
(0.130614 1.15888e-15 0)
(0.130972 2.62137e-15 0)
(0.13133 3.10404e-15 0)
(0.131685 8.98488e-16 0)
(0.132039 2.52399e-15 0)
(0.132391 2.11626e-15 0)
(0.132741 1.21865e-15 0)
(0.133089 -3.52455e-16 0)
(0.133435 8.13013e-16 0)
(0.133779 7.1787e-16 0)
(0.13412 8.21683e-16 0)
(0.134461 1.41718e-16 0)
(0.1348 7.09747e-16 0)
(0.135137 1.87611e-15 0)
(0.135474 3.62638e-15 0)
(0.135808 3.71453e-15 0)
(0.136142 3.86383e-15 0)
(0.136473 2.52504e-15 0)
(0.136803 3.02764e-15 0)
(0.137132 5.58557e-15 0)
(0.137459 6.24446e-15 0)
(0.137784 6.158e-15 0)
(0.138108 5.15599e-15 0)
(0.13843 7.18296e-15 0)
(0.138749 6.66996e-15 0)
(0.139068 6.21998e-15 0)
(0.139384 5.01324e-15 0)
(0.139698 6.47734e-15 0)
(0.14001 6.27829e-15 0)
(0.14032 6.70726e-15 0)
(0.140628 6.503e-15 0)
(0.140933 8.85078e-15 0)
(0.141236 9.34579e-15 0)
(0.141537 1.00456e-14 0)
(0.141836 7.80912e-15 0)
(0.142131 7.75965e-15 0)
(0.142425 7.6595e-15 0)
(0.142715 8.35235e-15 0)
(0.143003 1.0457e-14 0)
(0.143287 1.03008e-14 0)
(0.143569 1.18771e-14 0)
(0.143848 1.05448e-14 0)
(0.144123 9.74808e-15 0)
(0.144395 8.55967e-15 0)
(0.144664 8.11266e-15 0)
(0.144929 5.94175e-15 0)
(0.14519 7.28006e-15 0)
(0.145448 8.76524e-15 0)
(0.145702 9.65804e-15 0)
(0.145951 1.02071e-14 0)
(0.146197 8.59051e-15 0)
(0.146438 7.91469e-15 0)
(0.146674 6.15748e-15 0)
(0.146906 7.92449e-15 0)
(0.147133 7.7236e-15 0)
(0.147355 9.20878e-15 0)
(0.147571 9.83674e-15 0)
(0.147782 9.50458e-15 0)
(0.147988 9.33409e-15 0)
(0.148188 1.0756e-14 0)
(0.148382 8.1141e-15 0)
(0.14857 9.74298e-15 0)
(0.148751 9.50351e-15 0)
(0.148926 9.11959e-15 0)
(0.149093 6.08052e-15 0)
(0.149254 6.54686e-15 0)
(0.149407 7.46111e-15 0)
(0.149552 7.2154e-15 0)
(0.14969 8.77643e-15 0)
(0.149819 8.24637e-15 0)
(0.14994 7.8826e-15 0)
(0.150052 8.40657e-15 0)
(0.150154 7.39209e-15 0)
(0.150247 7.56032e-15 0)
(0.15033 6.77373e-15 0)
(0.150402 9.20493e-15 0)
(0.150464 1.08663e-14 0)
(0.150514 1.0209e-14 0)
(0.150553 1.1962e-14 0)
(0.150579 1.36614e-14 0)
(0.150593 1.1741e-14 0)
(0.150593 8.19337e-15 0)
(0.150579 8.98627e-15 0)
(0.150553 7.47318e-15 0)
(0.150514 7.18142e-15 0)
(0.150464 8.05607e-15 0)
(0.150402 9.53912e-15 0)
(0.15033 9.83521e-15 0)
(0.150247 9.79628e-15 0)
(0.150154 9.01542e-15 0)
(0.150052 9.32487e-15 0)
(0.14994 7.87581e-15 0)
(0.149819 8.23e-15 0)
(0.14969 9.04823e-15 0)
(0.149552 9.01213e-15 0)
(0.149407 9.70134e-15 0)
(0.149254 1.03296e-14 0)
(0.149093 9.96867e-15 0)
(0.148926 7.00593e-15 0)
(0.148751 8.28498e-15 0)
(0.14857 5.81134e-15 0)
(0.148382 6.20162e-15 0)
(0.148188 6.47202e-15 0)
(0.147988 5.88173e-15 0)
(0.147782 6.31367e-15 0)
(0.147571 5.52176e-15 0)
(0.147355 5.26458e-15 0)
(0.147133 4.9745e-15 0)
(0.146906 6.59828e-15 0)
(0.146674 6.53915e-15 0)
(0.146438 6.64362e-15 0)
(0.146197 7.32906e-15 0)
(0.145951 7.53168e-15 0)
(0.145702 9.01776e-15 0)
(0.145448 1.02511e-14 0)
(0.14519 1.24453e-14 0)
(0.144929 1.08769e-14 0)
(0.144664 1.19512e-14 0)
(0.144395 1.07195e-14 0)
(0.144123 9.80914e-15 0)
(0.143848 9.23126e-15 0)
(0.143569 9.83078e-15 0)
(0.143287 1.02852e-14 0)
(0.143003 9.4348e-15 0)
(0.142715 1.03962e-14 0)
(0.142425 1.04724e-14 0)
(0.142131 9.49627e-15 0)
(0.141836 1.07375e-14 0)
(0.141537 1.01402e-14 0)
(0.141236 1.21603e-14 0)
(0.140933 1.2554e-14 0)
(0.140628 1.2817e-14 0)
(0.14032 1.33394e-14 0)
(0.14001 1.50966e-14 0)
(0.139698 1.4166e-14 0)
(0.139384 1.5899e-14 0)
(0.139068 1.55143e-14 0)
(0.138749 1.48965e-14 0)
(0.13843 1.65115e-14 0)
(0.138108 1.88266e-14 0)
(0.137784 1.97595e-14 0)
(0.137459 2.21134e-14 0)
(0.137132 2.15377e-14 0)
(0.136803 1.97343e-14 0)
(0.136473 1.99965e-14 0)
(0.136142 2.02402e-14 0)
(0.135808 1.91257e-14 0)
(0.135474 1.84682e-14 0)
(0.135137 1.77779e-14 0)
(0.1348 1.69076e-14 0)
(0.134461 1.46969e-14 0)
(0.13412 1.61943e-14 0)
(0.133779 1.50901e-14 0)
(0.133435 1.37025e-14 0)
(0.133089 1.49337e-14 0)
(0.132741 1.63982e-14 0)
(0.132391 1.43879e-14 0)
(0.132039 1.62516e-14 0)
(0.131685 1.66352e-14 0)
(0.13133 1.59913e-14 0)
(0.130972 1.48293e-14 0)
(0.130614 1.69069e-14 0)
(0.130254 1.69739e-14 0)
(0.129892 1.72406e-14 0)
(0.12953 1.853e-14 0)
(0.129167 1.82477e-14 0)
(0.128802 1.87848e-14 0)
(0.128437 1.84763e-14 0)
(0.128071 2.00963e-14 0)
(0.127703 1.95762e-14 0)
(0.127335 2.08947e-14 0)
(0.126966 2.02087e-14 0)
(0.126596 2.04033e-14 0)
(0.126226 1.9977e-14 0)
(0.125854 2.01405e-14 0)
(0.125482 2.23919e-14 0)
(0.125108 2.21942e-14 0)
(0.124734 2.24149e-14 0)
(0.124359 2.46724e-14 0)
(0.123983 2.43082e-14 0)
(0.123606 2.37045e-14 0)
(0.123228 2.34595e-14 0)
(0.122849 2.23805e-14 0)
(0.122469 2.08279e-14 0)
(0.122089 2.14131e-14 0)
(0.121707 2.17212e-14 0)
(0.121325 2.18876e-14 0)
(0.120941 2.27663e-14 0)
(0.120557 2.17441e-14 0)
(0.120171 2.27243e-14 0)
(0.119785 2.25649e-14 0)
(0.119397 2.23403e-14 0)
(0.119008 2.21699e-14 0)
(0.118619 2.26008e-14 0)
(0.118228 2.2963e-14 0)
(0.117836 2.15791e-14 0)
(0.117443 2.26645e-14 0)
(0.117049 2.25962e-14 0)
(0.116654 2.04599e-14 0)
(0.116258 2.14834e-14 0)
(0.11586 2.06817e-14 0)
(0.115461 2.10714e-14 0)
(0.115061 1.9574e-14 0)
(0.11466 2.03816e-14 0)
(0.114257 2.06655e-14 0)
(0.113853 2.13249e-14 0)
(0.113447 2.19899e-14 0)
(0.113041 2.03262e-14 0)
(0.112632 2.0009e-14 0)
(0.112223 1.77582e-14 0)
(0.111812 1.74024e-14 0)
(0.111399 1.59207e-14 0)
(0.110985 1.69254e-14 0)
(0.110569 1.46626e-14 0)
(0.110151 1.35261e-14 0)
(0.109732 1.49473e-14 0)
(0.109311 1.43316e-14 0)
(0.108889 1.42431e-14 0)
(0.108464 1.17688e-14 0)
(0.108038 1.347e-14 0)
(0.10761 1.33999e-14 0)
(0.10718 1.33201e-14 0)
(0.106748 1.45365e-14 0)
(0.106315 1.24523e-14 0)
(0.105879 1.27367e-14 0)
(0.105441 1.36886e-14 0)
(0.105001 1.33002e-14 0)
(0.104558 1.23044e-14 0)
(0.104114 1.27011e-14 0)
(0.103667 1.53262e-14 0)
(0.103218 1.48133e-14 0)
(0.102766 1.67168e-14 0)
(0.102312 1.59216e-14 0)
(0.101856 1.58368e-14 0)
(0.101396 1.69679e-14 0)
(0.100935 1.81596e-14 0)
(0.10047 1.89941e-14 0)
(0.100003 2.03327e-14 0)
(0.0995332 2.09433e-14 0)
(0.0990604 2.05175e-14 0)
(0.0985846 2.23003e-14 0)
(0.0981058 2.00926e-14 0)
(0.0976239 2.05322e-14 0)
(0.0971388 1.93409e-14 0)
(0.0966506 1.98599e-14 0)
(0.096159 2.07642e-14 0)
(0.0956641 1.99945e-14 0)
(0.0951657 1.89435e-14 0)
(0.0946637 1.76823e-14 0)
(0.0941582 1.76337e-14 0)
(0.093649 1.6735e-14 0)
(0.0931359 1.80512e-14 0)
(0.0926191 1.69692e-14 0)
(0.0920982 1.58521e-14 0)
(0.0915734 1.65499e-14 0)
(0.0910444 1.50423e-14 0)
(0.0905112 1.53822e-14 0)
(0.0899737 1.50071e-14 0)
(0.0894318 1.32534e-14 0)
(0.0888853 1.21498e-14 0)
(0.0883343 1.10571e-14 0)
(0.0877786 1.13764e-14 0)
(0.0872181 9.00665e-15 0)
(0.0866528 1.09938e-14 0)
(0.0860824 9.64166e-15 0)
(0.0855069 1.00308e-14 0)
(0.0849263 1.04126e-14 0)
(0.0843403 1.27313e-14 0)
(0.083749 1.34582e-14 0)
(0.0831521 1.19701e-14 0)
(0.0825497 1.09213e-14 0)
(0.0819415 9.67013e-15 0)
(0.0813275 1.32033e-14 0)
(0.0807076 1.33091e-14 0)
(0.0800817 1.37213e-14 0)
(0.0794497 1.18875e-14 0)
(0.0788114 1.26963e-14 0)
(0.0781668 1.02749e-14 0)
(0.0775158 1.25124e-14 0)
(0.0768583 1.11854e-14 0)
(0.0761942 1.25466e-14 0)
(0.0755234 1.22943e-14 0)
(0.0748458 1.29258e-14 0)
(0.0741613 1.34506e-14 0)
(0.0734699 1.30487e-14 0)
(0.0727715 1.40983e-14 0)
(0.0720661 1.43028e-14 0)
(0.0713535 1.32068e-14 0)
(0.0706337 1.33939e-14 0)
(0.0699067 1.33431e-14 0)
(0.0691725 1.31343e-14 0)
(0.0684309 1.49418e-14 0)
(0.0676821 1.60919e-14 0)
(0.0669259 1.30824e-14 0)
(0.0661625 1.36508e-14 0)
(0.0653917 1.52746e-14 0)
(0.0646137 1.51998e-14 0)
(0.0638285 1.51585e-14 0)
(0.0630361 1.61521e-14 0)
(0.0622366 1.68122e-14 0)
(0.0614302 1.40101e-14 0)
(0.0606167 1.24276e-14 0)
(0.0597962 1.39852e-14 0)
(0.0589679 1.41775e-14 0)
(0.0581312 1.40715e-14 0)
(0.0572861 1.68796e-14 0)
(0.0564327 1.54996e-14 0)
(0.0555711 1.69959e-14 0)
(0.0547016 1.76194e-14 0)
(0.0538242 1.82619e-14 0)
(0.0529392 2.28106e-14 0)
(0.052047 2.44727e-14 0)
(0.0511477 2.80197e-14 0)
(0.0502418 2.71708e-14 0)
(0.0493297 2.41055e-14 0)
(0.0484119 2.1514e-14 0)
(0.0474888 2.09614e-14 0)
(0.0465611 2.24299e-14 0)
(0.0456293 2.48462e-14 0)
(0.0446942 2.38352e-14 0)
(0.0437564 2.18598e-14 0)
(0.0428166 2.1464e-14 0)
(0.0418756 2.24255e-14 0)
(0.0409342 2.09901e-14 0)
(0.0399932 2.18366e-14 0)
(0.0390534 2.19452e-14 0)
(0.0381157 1.80967e-14 0)
(0.0371808 1.82182e-14 0)
(0.0362495 1.78832e-14 0)
(0.0353226 1.87326e-14 0)
(0.0344009 1.59305e-14 0)
(0.0334851 1.58366e-14 0)
(0.0325757 1.295e-14 0)
(0.0316735 1.28645e-14 0)
(0.030779 1.44793e-14 0)
(0.0298928 1.3443e-14 0)
(0.0290153 1.35276e-14 0)
(0.0281469 1.21363e-14 0)
(0.0272879 1.23415e-14 0)
(0.0264388 1.17161e-14 0)
(0.0255998 7.83372e-15 0)
(0.024771 7.63433e-15 0)
(0.0239526 7.65862e-15 0)
(0.0231449 5.58686e-15 0)
(0.0223478 5.53424e-15 0)
(0.0215615 6.03303e-15 0)
(0.020786 1.76858e-15 0)
(0.0200213 9.32648e-16 0)
(0.0192673 2.33706e-15 0)
(0.0185241 4.81044e-15 0)
(0.0177916 4.56329e-15 0)
(0.0170696 2.59245e-15 0)
(0.0163582 4.96694e-15 0)
(0.0156573 5.97483e-15 0)
(0.0149667 6.05283e-15 0)
(0.0142863 4.38959e-15 0)
(0.013616 6.29821e-15 0)
(0.0129557 4.83678e-15 0)
(0.0123053 1.73024e-15 0)
(0.0116646 3.11522e-15 0)
(0.0110335 1.64994e-15 0)
(0.0104119 2.24143e-15 0)
(0.00979959 2.19277e-15 0)
(0.00919653 3.96122e-15 0)
(0.00860255 3.32317e-15 0)
(0.00801753 3.45864e-15 0)
(0.00744132 3.24528e-15 0)
(0.00687381 2.14472e-15 0)
(0.00631486 1.24365e-15 0)
(0.00576435 1.39601e-15 0)
(0.00522215 3.01377e-15 0)
(0.00468814 3.01606e-15 0)
(0.0041622 3.71414e-15 0)
(0.00364421 4.40478e-15 0)
(0.00313405 2.86796e-15 0)
(0.00263159 2.72281e-15 0)
(0.00213674 4.44301e-16 0)
(0.00164937 8.68693e-16 0)
(0.00116936 3.10681e-16 0)
(0.000696625 2.9032e-16 0)
(0.000231037 -1.98339e-17 0)
)
;

boundaryField
{
    bottomWall
    {
        type            noSlip;
    }
    topWall
    {
        type            noSlip;
    }
    sides1_half0
    {
        type            empty;
    }
    sides1_half1
    {
        type            empty;
    }
    sides2_half0
    {
        type            empty;
    }
    sides2_half1
    {
        type            empty;
    }
    inout1_half0
    {
        type            cyclic;
    }
    inout1_half1
    {
        type            cyclic;
    }
    inout2_half0
    {
        type            cyclic;
    }
    inout2_half1
    {
        type            cyclic;
    }
}


// ************************************************************************* //
