/*--------------------------------*- C++ -*----------------------------------*\
  =========                 |
  \\      /  F ield         | OpenFOAM: The Open Source CFD Toolbox
   \\    /   O peration     | Website:  https://openfoam.org
    \\  /    A nd           | Version:  7
     \\/     M anipulation  |
\*---------------------------------------------------------------------------*/
FoamFile
{
    version     2.0;
    format      ascii;
    class       volScalarField;
    location    "2500";
    object      k;
}
// * * * * * * * * * * * * * * * * * * * * * * * * * * * * * * * * * * * * * //

dimensions      [0 2 -2 0 0 0 0];

internalField   nonuniform List<scalar> 
4026
(
0.000155421
0.000155419
0.000155419
0.000155419
0.000155419
0.00015542
0.00015542
0.00015542
0.000155421
0.000155421
0.000155422
0.000155423
0.000155423
0.000155424
0.000155424
0.000155425
0.000155426
0.000155427
0.000155427
0.000155428
0.000155429
0.00015543
0.000155431
0.000155432
0.000155432
0.000155433
0.000155434
0.000155435
0.000155436
0.000155436
0.000155437
0.000155438
0.000155439
0.000155439
0.00015544
0.000155441
0.000155441
0.000155442
0.000155442
0.000155443
0.000155443
0.000155444
0.000155444
0.000155445
0.000155446
0.000155426
0.000155425
0.000155425
0.000155425
0.000155425
0.000155426
0.000155426
0.000155426
0.000155426
0.000155426
0.000155427
0.000155427
0.000155427
0.000155428
0.000155428
0.00015543
0.000154244
0.000154242
0.000154242
0.000154242
0.000154243
0.000154243
0.000154244
0.000154244
0.000154245
0.000154245
0.000154246
0.000154246
0.000154247
0.000154248
0.000154248
0.000154249
0.00015425
0.000154251
0.000154251
0.000154252
0.000154253
0.000154254
0.000154254
0.000154255
0.000154256
0.000154257
0.000154258
0.000154258
0.000154259
0.00015426
0.000154261
0.000154261
0.000154262
0.000154263
0.000154263
0.000154264
0.000154265
0.000154265
0.000154266
0.000154266
0.000154267
0.000154267
0.000154268
0.000154268
0.00015427
0.000154248
0.000154247
0.000154248
0.000154248
0.000154248
0.000154249
0.000154249
0.000154249
0.000154249
0.00015425
0.00015425
0.00015425
0.000154251
0.000154251
0.000154251
0.000154253
0.000152977
0.000152975
0.000152974
0.000152975
0.000152975
0.000152976
0.000152976
0.000152977
0.000152977
0.000152978
0.000152979
0.000152979
0.00015298
0.000152981
0.000152981
0.000152982
0.000152983
0.000152984
0.000152984
0.000152985
0.000152986
0.000152987
0.000152987
0.000152988
0.000152989
0.00015299
0.00015299
0.000152991
0.000152992
0.000152993
0.000152993
0.000152994
0.000152995
0.000152995
0.000152996
0.000152996
0.000152997
0.000152998
0.000152998
0.000152999
0.000152999
0.000152999
0.000153
0.000153
0.000153002
0.000152981
0.000152979
0.00015298
0.00015298
0.00015298
0.000152981
0.000152981
0.000152981
0.000152982
0.000152982
0.000152982
0.000152983
0.000152983
0.000152984
0.000152984
0.000152986
0.000151623
0.000151621
0.000151621
0.000151621
0.000151622
0.000151622
0.000151623
0.000151624
0.000151624
0.000151625
0.000151626
0.000151626
0.000151627
0.000151628
0.000151628
0.000151629
0.00015163
0.000151631
0.000151631
0.000151632
0.000151633
0.000151634
0.000151634
0.000151635
0.000151636
0.000151637
0.000151637
0.000151638
0.000151639
0.000151639
0.00015164
0.000151641
0.000151641
0.000151642
0.000151643
0.000151643
0.000151644
0.000151644
0.000151645
0.000151645
0.000151646
0.000151646
0.000151646
0.000151647
0.000151649
0.000151628
0.000151626
0.000151626
0.000151626
0.000151627
0.000151627
0.000151628
0.000151628
0.000151628
0.000151629
0.000151629
0.000151629
0.00015163
0.00015163
0.00015163
0.000151633
0.000150188
0.000150186
0.000150186
0.000150186
0.000150187
0.000150188
0.000150188
0.000150189
0.00015019
0.00015019
0.000150191
0.000150192
0.000150193
0.000150193
0.000150194
0.000150195
0.000150196
0.000150196
0.000150197
0.000150198
0.000150198
0.000150199
0.0001502
0.000150201
0.000150201
0.000150202
0.000150203
0.000150204
0.000150204
0.000150205
0.000150205
0.000150206
0.000150207
0.000150207
0.000150208
0.000150208
0.000150209
0.000150209
0.00015021
0.00015021
0.000150211
0.000150211
0.000150212
0.000150212
0.000150214
0.000150194
0.000150191
0.000150191
0.000150191
0.000150192
0.000150192
0.000150193
0.000150193
0.000150194
0.000150194
0.000150194
0.000150195
0.000150195
0.000150196
0.000150196
0.000150198
0.000148675
0.000148673
0.000148673
0.000148674
0.000148675
0.000148675
0.000148676
0.000148677
0.000148678
0.000148678
0.000148679
0.00014868
0.000148681
0.000148681
0.000148682
0.000148683
0.000148684
0.000148684
0.000148685
0.000148686
0.000148687
0.000148687
0.000148688
0.000148689
0.000148689
0.00014869
0.000148691
0.000148692
0.000148692
0.000148693
0.000148693
0.000148694
0.000148695
0.000148695
0.000148696
0.000148696
0.000148697
0.000148697
0.000148697
0.000148698
0.000148698
0.000148699
0.000148699
0.000148699
0.000148701
0.000148682
0.000148679
0.000148679
0.000148679
0.00014868
0.00014868
0.000148681
0.000148681
0.000148681
0.000148682
0.000148682
0.000148682
0.000148683
0.000148683
0.000148683
0.000148686
0.000147089
0.000147087
0.000147087
0.000147088
0.000147089
0.000147089
0.00014709
0.000147091
0.000147092
0.000147093
0.000147094
0.000147094
0.000147095
0.000147096
0.000147097
0.000147097
0.000147098
0.000147099
0.0001471
0.0001471
0.000147101
0.000147102
0.000147103
0.000147103
0.000147104
0.000147105
0.000147105
0.000147106
0.000147106
0.000147107
0.000147108
0.000147108
0.000147109
0.000147109
0.00014711
0.00014711
0.000147111
0.000147111
0.000147112
0.000147112
0.000147112
0.000147113
0.000147113
0.000147113
0.000147115
0.000147097
0.000147094
0.000147094
0.000147094
0.000147094
0.000147094
0.000147095
0.000147095
0.000147096
0.000147096
0.000147096
0.000147097
0.000147097
0.000147098
0.000147098
0.0001471
0.000145433
0.000145431
0.000145431
0.000145432
0.000145433
0.000145434
0.000145435
0.000145435
0.000145436
0.000145437
0.000145438
0.000145439
0.00014544
0.00014544
0.000145441
0.000145442
0.000145443
0.000145444
0.000145444
0.000145445
0.000145446
0.000145446
0.000145447
0.000145448
0.000145448
0.000145449
0.00014545
0.00014545
0.000145451
0.000145451
0.000145452
0.000145453
0.000145453
0.000145454
0.000145454
0.000145455
0.000145455
0.000145455
0.000145456
0.000145456
0.000145456
0.000145457
0.000145457
0.000145457
0.000145459
0.000145442
0.000145439
0.000145438
0.000145438
0.000145439
0.000145439
0.000145439
0.00014544
0.00014544
0.00014544
0.000145441
0.000145441
0.000145442
0.000145442
0.000145442
0.000145444
0.000143711
0.000143709
0.000143709
0.00014371
0.000143711
0.000143712
0.000143713
0.000143714
0.000143714
0.000143715
0.000143716
0.000143717
0.000143718
0.000143719
0.00014372
0.00014372
0.000143721
0.000143722
0.000143723
0.000143723
0.000143724
0.000143725
0.000143725
0.000143726
0.000143727
0.000143727
0.000143728
0.000143729
0.000143729
0.00014373
0.00014373
0.000143731
0.000143731
0.000143732
0.000143732
0.000143733
0.000143733
0.000143733
0.000143734
0.000143734
0.000143734
0.000143735
0.000143735
0.000143735
0.000143737
0.00014372
0.000143717
0.000143717
0.000143717
0.000143717
0.000143717
0.000143718
0.000143718
0.000143718
0.000143719
0.000143719
0.000143719
0.00014372
0.00014372
0.00014372
0.000143723
0.000141926
0.000141924
0.000141924
0.000141925
0.000141926
0.000141927
0.000141928
0.000141929
0.00014193
0.000141931
0.000141932
0.000141933
0.000141933
0.000141934
0.000141935
0.000141936
0.000141937
0.000141938
0.000141938
0.000141939
0.00014194
0.00014194
0.000141941
0.000141942
0.000141942
0.000141943
0.000141944
0.000141944
0.000141945
0.000141945
0.000141946
0.000141946
0.000141947
0.000141947
0.000141947
0.000141948
0.000141948
0.000141949
0.000141949
0.000141949
0.00014195
0.00014195
0.00014195
0.00014195
0.000141952
0.000141936
0.000141933
0.000141933
0.000141933
0.000141933
0.000141933
0.000141933
0.000141934
0.000141934
0.000141934
0.000141935
0.000141935
0.000141935
0.000141936
0.000141936
0.000141938
0.000140082
0.00014008
0.00014008
0.000140081
0.000140082
0.000140083
0.000140084
0.000140085
0.000140086
0.000140087
0.000140088
0.000140089
0.00014009
0.000140091
0.000140092
0.000140092
0.000140093
0.000140094
0.000140095
0.000140095
0.000140096
0.000140097
0.000140097
0.000140098
0.000140099
0.000140099
0.0001401
0.000140101
0.000140101
0.000140102
0.000140102
0.000140103
0.000140103
0.000140103
0.000140104
0.000140104
0.000140105
0.000140105
0.000140105
0.000140106
0.000140106
0.000140106
0.000140106
0.000140106
0.000140109
0.000140093
0.00014009
0.000140089
0.000140089
0.000140089
0.00014009
0.00014009
0.00014009
0.000140091
0.000140091
0.000140091
0.000140092
0.000140092
0.000140092
0.000140093
0.000140095
0.000138183
0.00013818
0.000138181
0.000138182
0.000138183
0.000138184
0.000138185
0.000138186
0.000138187
0.000138188
0.000138189
0.00013819
0.000138191
0.000138192
0.000138193
0.000138193
0.000138194
0.000138195
0.000138196
0.000138196
0.000138197
0.000138198
0.000138198
0.000138199
0.0001382
0.0001382
0.000138201
0.000138201
0.000138202
0.000138202
0.000138203
0.000138203
0.000138204
0.000138204
0.000138205
0.000138205
0.000138205
0.000138206
0.000138206
0.000138206
0.000138207
0.000138207
0.000138207
0.000138207
0.000138209
0.000138194
0.000138191
0.00013819
0.000138191
0.000138191
0.000138191
0.000138191
0.000138192
0.000138192
0.000138192
0.000138193
0.000138193
0.000138193
0.000138194
0.000138194
0.000138196
0.000136231
0.000136229
0.000136229
0.00013623
0.000136232
0.000136233
0.000136234
0.000136235
0.000136236
0.000136237
0.000136238
0.000136239
0.00013624
0.000136241
0.000136242
0.000136243
0.000136243
0.000136244
0.000136245
0.000136246
0.000136246
0.000136247
0.000136248
0.000136248
0.000136249
0.000136249
0.00013625
0.000136251
0.000136251
0.000136252
0.000136252
0.000136252
0.000136253
0.000136253
0.000136254
0.000136254
0.000136254
0.000136255
0.000136255
0.000136255
0.000136255
0.000136256
0.000136256
0.000136256
0.000136258
0.000136244
0.00013624
0.00013624
0.00013624
0.00013624
0.00013624
0.000136241
0.000136241
0.000136241
0.000136242
0.000136242
0.000136242
0.000136243
0.000136243
0.000136243
0.000136245
0.000134232
0.00013423
0.00013423
0.000134231
0.000134232
0.000134234
0.000134235
0.000134236
0.000134237
0.000134238
0.000134239
0.00013424
0.000134241
0.000134242
0.000134243
0.000134243
0.000134244
0.000134245
0.000134246
0.000134247
0.000134247
0.000134248
0.000134248
0.000134249
0.00013425
0.00013425
0.000134251
0.000134251
0.000134252
0.000134252
0.000134253
0.000134253
0.000134254
0.000134254
0.000134254
0.000134255
0.000134255
0.000134255
0.000134256
0.000134256
0.000134256
0.000134256
0.000134257
0.000134256
0.000134259
0.000134245
0.000134241
0.000134241
0.000134241
0.000134241
0.000134242
0.000134242
0.000134242
0.000134243
0.000134243
0.000134243
0.000134243
0.000134244
0.000134244
0.000134244
0.000134247
0.000132188
0.000132186
0.000132186
0.000132187
0.000132189
0.00013219
0.000132191
0.000132192
0.000132193
0.000132194
0.000132195
0.000132196
0.000132197
0.000132198
0.000132199
0.0001322
0.000132201
0.000132202
0.000132202
0.000132203
0.000132204
0.000132204
0.000132205
0.000132206
0.000132206
0.000132207
0.000132207
0.000132208
0.000132208
0.000132209
0.000132209
0.00013221
0.00013221
0.00013221
0.000132211
0.000132211
0.000132211
0.000132212
0.000132212
0.000132212
0.000132212
0.000132213
0.000132213
0.000132213
0.000132215
0.000132201
0.000132198
0.000132198
0.000132198
0.000132198
0.000132198
0.000132199
0.000132199
0.000132199
0.0001322
0.0001322
0.0001322
0.000132201
0.000132201
0.000132201
0.000132203
0.000130104
0.000130102
0.000130102
0.000130103
0.000130104
0.000130106
0.000130107
0.000130108
0.000130109
0.00013011
0.000130111
0.000130112
0.000130113
0.000130114
0.000130115
0.000130116
0.000130117
0.000130117
0.000130118
0.000130119
0.00013012
0.00013012
0.000130121
0.000130122
0.000130122
0.000130123
0.000130123
0.000130124
0.000130124
0.000130125
0.000130125
0.000130126
0.000130126
0.000130126
0.000130127
0.000130127
0.000130127
0.000130128
0.000130128
0.000130128
0.000130128
0.000130128
0.000130129
0.000130128
0.000130131
0.000130117
0.000130114
0.000130114
0.000130114
0.000130114
0.000130115
0.000130115
0.000130115
0.000130116
0.000130116
0.000130116
0.000130116
0.000130117
0.000130117
0.000130117
0.00013012
0.000127983
0.000127981
0.000127981
0.000127982
0.000127984
0.000127985
0.000127986
0.000127987
0.000127988
0.000127989
0.00012799
0.000127991
0.000127992
0.000127993
0.000127994
0.000127995
0.000127996
0.000127997
0.000127997
0.000127998
0.000127999
0.000128
0.000128
0.000128001
0.000128001
0.000128002
0.000128002
0.000128003
0.000128003
0.000128004
0.000128004
0.000128005
0.000128005
0.000128005
0.000128006
0.000128006
0.000128006
0.000128007
0.000128007
0.000128007
0.000128007
0.000128008
0.000128008
0.000128008
0.00012801
0.000127997
0.000127993
0.000127993
0.000127993
0.000127994
0.000127994
0.000127994
0.000127995
0.000127995
0.000127995
0.000127996
0.000127996
0.000127996
0.000127997
0.000127997
0.000127999
0.00012583
0.000125827
0.000125828
0.000125829
0.00012583
0.000125831
0.000125832
0.000125834
0.000125835
0.000125836
0.000125837
0.000125838
0.000125839
0.00012584
0.000125841
0.000125842
0.000125842
0.000125843
0.000125844
0.000125845
0.000125845
0.000125846
0.000125847
0.000125847
0.000125848
0.000125848
0.000125849
0.00012585
0.00012585
0.000125851
0.000125851
0.000125851
0.000125852
0.000125852
0.000125852
0.000125853
0.000125853
0.000125853
0.000125854
0.000125854
0.000125854
0.000125854
0.000125854
0.000125854
0.000125856
0.000125843
0.00012584
0.000125839
0.00012584
0.00012584
0.000125841
0.000125841
0.000125842
0.000125842
0.000125842
0.000125843
0.000125843
0.000125843
0.000125844
0.000125844
0.000125846
0.000123648
0.000123645
0.000123646
0.000123647
0.000123648
0.000123649
0.00012365
0.000123652
0.000123653
0.000123654
0.000123655
0.000123656
0.000123657
0.000123658
0.000123659
0.00012366
0.00012366
0.000123661
0.000123662
0.000123663
0.000123663
0.000123664
0.000123665
0.000123665
0.000123666
0.000123666
0.000123667
0.000123668
0.000123668
0.000123668
0.000123669
0.000123669
0.00012367
0.00012367
0.00012367
0.000123671
0.000123671
0.000123671
0.000123671
0.000123672
0.000123672
0.000123672
0.000123672
0.000123672
0.000123674
0.000123661
0.000123658
0.000123657
0.000123658
0.000123658
0.000123659
0.000123659
0.00012366
0.00012366
0.000123661
0.000123661
0.000123661
0.000123662
0.000123662
0.000123662
0.000123665
0.000121441
0.000121439
0.000121439
0.00012144
0.000121441
0.000121443
0.000121444
0.000121445
0.000121446
0.000121447
0.000121448
0.000121449
0.00012145
0.000121451
0.000121452
0.000121453
0.000121454
0.000121455
0.000121455
0.000121456
0.000121457
0.000121458
0.000121458
0.000121459
0.000121459
0.00012146
0.000121461
0.000121461
0.000121462
0.000121462
0.000121462
0.000121463
0.000121463
0.000121464
0.000121464
0.000121464
0.000121464
0.000121465
0.000121465
0.000121465
0.000121465
0.000121466
0.000121466
0.000121466
0.000121468
0.000121455
0.000121451
0.000121451
0.000121451
0.000121452
0.000121452
0.000121453
0.000121454
0.000121454
0.000121454
0.000121455
0.000121455
0.000121455
0.000121456
0.000121456
0.000121459
0.000119215
0.000119212
0.000119212
0.000119213
0.000119214
0.000119216
0.000119217
0.000119218
0.000119219
0.00011922
0.000119221
0.000119222
0.000119223
0.000119224
0.000119225
0.000119226
0.000119227
0.000119228
0.000119229
0.000119229
0.00011923
0.000119231
0.000119231
0.000119232
0.000119233
0.000119233
0.000119234
0.000119234
0.000119235
0.000119235
0.000119236
0.000119236
0.000119236
0.000119237
0.000119237
0.000119237
0.000119238
0.000119238
0.000119238
0.000119238
0.000119239
0.000119239
0.000119239
0.000119239
0.000119241
0.000119228
0.000119224
0.000119224
0.000119224
0.000119225
0.000119226
0.000119226
0.000119227
0.000119227
0.000119228
0.000119228
0.000119229
0.000119229
0.000119229
0.000119229
0.000119232
0.000116972
0.000116969
0.000116969
0.00011697
0.000116971
0.000116973
0.000116974
0.000116975
0.000116976
0.000116977
0.000116978
0.000116979
0.00011698
0.000116981
0.000116982
0.000116983
0.000116984
0.000116985
0.000116986
0.000116986
0.000116987
0.000116988
0.000116988
0.000116989
0.00011699
0.00011699
0.000116991
0.000116991
0.000116992
0.000116992
0.000116993
0.000116993
0.000116994
0.000116994
0.000116994
0.000116995
0.000116995
0.000116995
0.000116995
0.000116996
0.000116996
0.000116996
0.000116996
0.000116996
0.000116998
0.000116985
0.000116981
0.000116981
0.000116982
0.000116982
0.000116983
0.000116984
0.000116984
0.000116985
0.000116985
0.000116986
0.000116986
0.000116986
0.000116987
0.000116987
0.00011699
0.000114717
0.000114714
0.000114714
0.000114715
0.000114717
0.000114718
0.000114719
0.00011472
0.000114721
0.000114722
0.000114723
0.000114724
0.000114725
0.000114726
0.000114727
0.000114728
0.000114729
0.00011473
0.000114731
0.000114732
0.000114732
0.000114733
0.000114734
0.000114734
0.000114735
0.000114735
0.000114736
0.000114737
0.000114737
0.000114738
0.000114738
0.000114738
0.000114739
0.000114739
0.000114739
0.00011474
0.00011474
0.00011474
0.000114741
0.000114741
0.000114741
0.000114741
0.000114742
0.000114741
0.000114744
0.00011473
0.000114726
0.000114726
0.000114727
0.000114727
0.000114728
0.000114729
0.000114729
0.00011473
0.000114731
0.000114731
0.000114731
0.000114732
0.000114732
0.000114732
0.000114735
0.000112454
0.000112451
0.000112452
0.000112453
0.000112454
0.000112455
0.000112456
0.000112458
0.000112459
0.00011246
0.000112461
0.000112462
0.000112463
0.000112464
0.000112465
0.000112466
0.000112467
0.000112468
0.000112468
0.000112469
0.00011247
0.00011247
0.000112471
0.000112472
0.000112472
0.000112473
0.000112473
0.000112474
0.000112475
0.000112475
0.000112476
0.000112476
0.000112476
0.000112477
0.000112477
0.000112477
0.000112478
0.000112478
0.000112478
0.000112479
0.000112479
0.000112479
0.000112479
0.000112479
0.000112481
0.000112467
0.000112464
0.000112464
0.000112464
0.000112465
0.000112466
0.000112466
0.000112467
0.000112468
0.000112468
0.000112469
0.000112469
0.00011247
0.00011247
0.00011247
0.000112473
0.000110188
0.000110185
0.000110185
0.000110187
0.000110188
0.000110189
0.00011019
0.000110192
0.000110193
0.000110194
0.000110195
0.000110196
0.000110197
0.000110198
0.000110199
0.0001102
0.000110201
0.000110201
0.000110202
0.000110203
0.000110204
0.000110204
0.000110205
0.000110206
0.000110206
0.000110207
0.000110207
0.000110208
0.000110209
0.000110209
0.000110209
0.00011021
0.00011021
0.000110211
0.000110211
0.000110211
0.000110212
0.000110212
0.000110212
0.000110213
0.000110213
0.000110213
0.000110213
0.000110213
0.000110215
0.000110201
0.000110198
0.000110197
0.000110198
0.000110199
0.0001102
0.0001102
0.000110201
0.000110202
0.000110202
0.000110203
0.000110203
0.000110204
0.000110204
0.000110204
0.000110207
0.000107923
0.000107919
0.00010792
0.000107921
0.000107922
0.000107923
0.000107925
0.000107926
0.000107927
0.000107928
0.000107929
0.00010793
0.000107931
0.000107932
0.000107933
0.000107934
0.000107935
0.000107936
0.000107937
0.000107937
0.000107938
0.000107939
0.000107939
0.00010794
0.000107941
0.000107941
0.000107942
0.000107942
0.000107943
0.000107944
0.000107944
0.000107944
0.000107945
0.000107945
0.000107946
0.000107946
0.000107946
0.000107947
0.000107947
0.000107947
0.000107947
0.000107948
0.000107948
0.000107948
0.00010795
0.000107936
0.000107932
0.000107932
0.000107933
0.000107933
0.000107934
0.000107935
0.000107936
0.000107936
0.000107937
0.000107937
0.000107938
0.000107938
0.000107939
0.000107939
0.000107942
0.000105662
0.000105658
0.000105659
0.00010566
0.000105661
0.000105662
0.000105664
0.000105665
0.000105666
0.000105667
0.000105668
0.000105669
0.00010567
0.000105671
0.000105672
0.000105673
0.000105674
0.000105675
0.000105676
0.000105676
0.000105677
0.000105678
0.000105678
0.000105679
0.00010568
0.00010568
0.000105681
0.000105682
0.000105682
0.000105683
0.000105683
0.000105684
0.000105684
0.000105684
0.000105685
0.000105685
0.000105685
0.000105686
0.000105686
0.000105686
0.000105687
0.000105687
0.000105687
0.000105687
0.000105689
0.000105675
0.000105671
0.000105671
0.000105672
0.000105672
0.000105673
0.000105674
0.000105675
0.000105675
0.000105676
0.000105677
0.000105677
0.000105678
0.000105678
0.000105678
0.000105681
0.000103409
0.000103406
0.000103406
0.000103407
0.000103409
0.00010341
0.000103411
0.000103412
0.000103413
0.000103414
0.000103415
0.000103416
0.000103417
0.000103418
0.000103419
0.00010342
0.000103421
0.000103422
0.000103423
0.000103424
0.000103425
0.000103425
0.000103426
0.000103427
0.000103427
0.000103428
0.000103428
0.000103429
0.00010343
0.00010343
0.000103431
0.000103431
0.000103432
0.000103432
0.000103432
0.000103433
0.000103433
0.000103433
0.000103434
0.000103434
0.000103434
0.000103435
0.000103435
0.000103435
0.000103437
0.000103422
0.000103419
0.000103418
0.000103419
0.00010342
0.000103421
0.000103422
0.000103422
0.000103423
0.000103424
0.000103424
0.000103425
0.000103425
0.000103426
0.000103426
0.000103429
0.000101169
0.000101165
0.000101166
0.000101167
0.000101168
0.000101169
0.000101171
0.000101172
0.000101173
0.000101174
0.000101175
0.000101176
0.000101177
0.000101178
0.000101179
0.00010118
0.000101181
0.000101182
0.000101183
0.000101183
0.000101184
0.000101185
0.000101186
0.000101186
0.000101187
0.000101188
0.000101188
0.000101189
0.000101189
0.00010119
0.00010119
0.000101191
0.000101191
0.000101192
0.000101192
0.000101193
0.000101193
0.000101193
0.000101194
0.000101194
0.000101194
0.000101195
0.000101195
0.000101195
0.000101197
0.000101182
0.000101178
0.000101178
0.000101179
0.00010118
0.000101181
0.000101181
0.000101182
0.000101183
0.000101184
0.000101184
0.000101185
0.000101185
0.000101186
0.000101186
0.000101189
9.89444e-05
9.8941e-05
9.89413e-05
9.89424e-05
9.89437e-05
9.89449e-05
9.89461e-05
9.89473e-05
9.89484e-05
9.89495e-05
9.89505e-05
9.89515e-05
9.89525e-05
9.89535e-05
9.89545e-05
9.89555e-05
9.89564e-05
9.89573e-05
9.89581e-05
9.89589e-05
9.89597e-05
9.89604e-05
9.89611e-05
9.89618e-05
9.89624e-05
9.89631e-05
9.89637e-05
9.89643e-05
9.89649e-05
9.89655e-05
9.8966e-05
9.89665e-05
9.8967e-05
9.89674e-05
9.89678e-05
9.89683e-05
9.89686e-05
9.8969e-05
9.89694e-05
9.89697e-05
9.897e-05
9.89703e-05
9.89706e-05
9.89705e-05
9.89727e-05
9.89579e-05
9.8954e-05
9.89538e-05
9.89545e-05
9.89553e-05
9.89562e-05
9.8957e-05
9.89578e-05
9.89586e-05
9.89592e-05
9.89598e-05
9.89604e-05
9.8961e-05
9.89616e-05
9.89619e-05
9.89644e-05
9.67392e-05
9.67358e-05
9.67361e-05
9.67372e-05
9.67384e-05
9.67397e-05
9.67409e-05
9.6742e-05
9.67432e-05
9.67442e-05
9.67452e-05
9.67463e-05
9.67473e-05
9.67483e-05
9.67492e-05
9.67502e-05
9.67511e-05
9.6752e-05
9.67529e-05
9.67537e-05
9.67544e-05
9.67552e-05
9.67559e-05
9.67566e-05
9.67572e-05
9.67579e-05
9.67585e-05
9.67591e-05
9.67597e-05
9.67603e-05
9.67609e-05
9.67614e-05
9.67619e-05
9.67623e-05
9.67628e-05
9.67632e-05
9.67636e-05
9.6764e-05
9.67644e-05
9.67647e-05
9.67651e-05
9.67654e-05
9.67657e-05
9.67656e-05
9.67677e-05
9.67528e-05
9.67489e-05
9.67487e-05
9.67494e-05
9.67502e-05
9.67511e-05
9.6752e-05
9.67528e-05
9.67535e-05
9.67542e-05
9.67548e-05
9.67554e-05
9.6756e-05
9.67566e-05
9.67569e-05
9.67594e-05
9.45565e-05
9.45531e-05
9.45534e-05
9.45545e-05
9.45557e-05
9.45569e-05
9.45581e-05
9.45593e-05
9.45604e-05
9.45615e-05
9.45625e-05
9.45635e-05
9.45645e-05
9.45655e-05
9.45665e-05
9.45674e-05
9.45684e-05
9.45693e-05
9.45701e-05
9.4571e-05
9.45717e-05
9.45725e-05
9.45732e-05
9.45739e-05
9.45746e-05
9.45752e-05
9.45759e-05
9.45765e-05
9.45771e-05
9.45777e-05
9.45783e-05
9.45788e-05
9.45793e-05
9.45798e-05
9.45802e-05
9.45807e-05
9.45811e-05
9.45815e-05
9.45819e-05
9.45823e-05
9.45826e-05
9.45829e-05
9.45833e-05
9.45833e-05
9.45853e-05
9.45703e-05
9.45664e-05
9.45662e-05
9.45669e-05
9.45677e-05
9.45686e-05
9.45694e-05
9.45702e-05
9.4571e-05
9.45717e-05
9.45723e-05
9.45729e-05
9.45735e-05
9.45742e-05
9.45745e-05
9.45769e-05
9.23995e-05
9.2396e-05
9.23963e-05
9.23974e-05
9.23986e-05
9.23998e-05
9.2401e-05
9.24022e-05
9.24033e-05
9.24043e-05
9.24054e-05
9.24064e-05
9.24074e-05
9.24084e-05
9.24093e-05
9.24103e-05
9.24112e-05
9.24121e-05
9.2413e-05
9.24138e-05
9.24146e-05
9.24154e-05
9.24161e-05
9.24168e-05
9.24175e-05
9.24182e-05
9.24188e-05
9.24195e-05
9.24201e-05
9.24207e-05
9.24213e-05
9.24218e-05
9.24223e-05
9.24228e-05
9.24233e-05
9.24238e-05
9.24242e-05
9.24246e-05
9.2425e-05
9.24254e-05
9.24258e-05
9.24261e-05
9.24265e-05
9.24265e-05
9.24285e-05
9.24135e-05
9.24095e-05
9.24093e-05
9.241e-05
9.24108e-05
9.24117e-05
9.24125e-05
9.24133e-05
9.24141e-05
9.24148e-05
9.24154e-05
9.24161e-05
9.24167e-05
9.24173e-05
9.24176e-05
9.24199e-05
9.0271e-05
9.02674e-05
9.02677e-05
9.02687e-05
9.027e-05
9.02712e-05
9.02724e-05
9.02735e-05
9.02746e-05
9.02757e-05
9.02767e-05
9.02777e-05
9.02787e-05
9.02797e-05
9.02806e-05
9.02816e-05
9.02825e-05
9.02834e-05
9.02843e-05
9.02852e-05
9.0286e-05
9.02867e-05
9.02875e-05
9.02882e-05
9.02889e-05
9.02896e-05
9.02902e-05
9.02909e-05
9.02915e-05
9.02921e-05
9.02927e-05
9.02933e-05
9.02938e-05
9.02943e-05
9.02948e-05
9.02953e-05
9.02957e-05
9.02962e-05
9.02966e-05
9.0297e-05
9.02974e-05
9.02977e-05
9.02981e-05
9.02982e-05
9.03001e-05
9.02851e-05
9.02811e-05
9.02809e-05
9.02816e-05
9.02824e-05
9.02832e-05
9.02841e-05
9.02849e-05
9.02856e-05
9.02863e-05
9.0287e-05
9.02876e-05
9.02882e-05
9.02889e-05
9.02892e-05
9.02915e-05
8.81735e-05
8.817e-05
8.81702e-05
8.81712e-05
8.81724e-05
8.81736e-05
8.81748e-05
8.8176e-05
8.81771e-05
8.81781e-05
8.81791e-05
8.81801e-05
8.81811e-05
8.81821e-05
8.81831e-05
8.8184e-05
8.8185e-05
8.81859e-05
8.81868e-05
8.81876e-05
8.81884e-05
8.81892e-05
8.81899e-05
8.81906e-05
8.81914e-05
8.8192e-05
8.81927e-05
8.81934e-05
8.8194e-05
8.81947e-05
8.81953e-05
8.81958e-05
8.81964e-05
8.81969e-05
8.81974e-05
8.81979e-05
8.81984e-05
8.81988e-05
8.81993e-05
8.81997e-05
8.82001e-05
8.82005e-05
8.82008e-05
8.82009e-05
8.82028e-05
8.81878e-05
8.81838e-05
8.81836e-05
8.81843e-05
8.81851e-05
8.81859e-05
8.81868e-05
8.81876e-05
8.81883e-05
8.8189e-05
8.81897e-05
8.81903e-05
8.81909e-05
8.81916e-05
8.81919e-05
8.81941e-05
8.61096e-05
8.6106e-05
8.61063e-05
8.61073e-05
8.61085e-05
8.61097e-05
8.61108e-05
8.6112e-05
8.6113e-05
8.61141e-05
8.61151e-05
8.61161e-05
8.61171e-05
8.6118e-05
8.6119e-05
8.612e-05
8.61209e-05
8.61218e-05
8.61227e-05
8.61236e-05
8.61244e-05
8.61252e-05
8.61259e-05
8.61267e-05
8.61274e-05
8.61281e-05
8.61287e-05
8.61294e-05
8.61301e-05
8.61307e-05
8.61313e-05
8.61319e-05
8.61325e-05
8.6133e-05
8.61336e-05
8.61341e-05
8.61345e-05
8.6135e-05
8.61355e-05
8.61359e-05
8.61363e-05
8.61367e-05
8.61371e-05
8.61372e-05
8.6139e-05
8.61241e-05
8.61201e-05
8.61199e-05
8.61205e-05
8.61213e-05
8.61222e-05
8.6123e-05
8.61238e-05
8.61245e-05
8.61252e-05
8.61259e-05
8.61265e-05
8.61271e-05
8.61278e-05
8.61282e-05
8.61303e-05
8.40815e-05
8.40779e-05
8.40781e-05
8.40791e-05
8.40803e-05
8.40815e-05
8.40826e-05
8.40837e-05
8.40848e-05
8.40859e-05
8.40868e-05
8.40878e-05
8.40888e-05
8.40898e-05
8.40908e-05
8.40917e-05
8.40927e-05
8.40936e-05
8.40945e-05
8.40953e-05
8.40961e-05
8.40969e-05
8.40977e-05
8.40984e-05
8.40992e-05
8.40999e-05
8.41006e-05
8.41012e-05
8.41019e-05
8.41025e-05
8.41032e-05
8.41038e-05
8.41044e-05
8.41049e-05
8.41055e-05
8.4106e-05
8.41065e-05
8.4107e-05
8.41074e-05
8.41079e-05
8.41083e-05
8.41087e-05
8.41091e-05
8.41093e-05
8.4111e-05
8.40962e-05
8.40922e-05
8.4092e-05
8.40926e-05
8.40934e-05
8.40942e-05
8.4095e-05
8.40958e-05
8.40965e-05
8.40972e-05
8.40979e-05
8.40985e-05
8.40992e-05
8.40998e-05
8.41002e-05
8.41022e-05
8.20912e-05
8.20876e-05
8.20878e-05
8.20888e-05
8.20899e-05
8.20911e-05
8.20922e-05
8.20934e-05
8.20944e-05
8.20954e-05
8.20964e-05
8.20974e-05
8.20984e-05
8.20994e-05
8.21003e-05
8.21013e-05
8.21022e-05
8.21031e-05
8.2104e-05
8.21049e-05
8.21057e-05
8.21065e-05
8.21073e-05
8.2108e-05
8.21087e-05
8.21095e-05
8.21102e-05
8.21108e-05
8.21115e-05
8.21122e-05
8.21128e-05
8.21134e-05
8.2114e-05
8.21146e-05
8.21152e-05
8.21157e-05
8.21162e-05
8.21167e-05
8.21172e-05
8.21176e-05
8.21181e-05
8.21185e-05
8.21189e-05
8.21191e-05
8.21208e-05
8.21061e-05
8.21021e-05
8.21018e-05
8.21024e-05
8.21032e-05
8.2104e-05
8.21048e-05
8.21056e-05
8.21064e-05
8.21071e-05
8.21077e-05
8.21084e-05
8.2109e-05
8.21096e-05
8.211e-05
8.21119e-05
8.01406e-05
8.0137e-05
8.01372e-05
8.01381e-05
8.01393e-05
8.01404e-05
8.01415e-05
8.01426e-05
8.01437e-05
8.01447e-05
8.01457e-05
8.01467e-05
8.01476e-05
8.01486e-05
8.01495e-05
8.01505e-05
8.01514e-05
8.01524e-05
8.01532e-05
8.01541e-05
8.01549e-05
8.01557e-05
8.01565e-05
8.01573e-05
8.0158e-05
8.01587e-05
8.01594e-05
8.01601e-05
8.01608e-05
8.01615e-05
8.01621e-05
8.01628e-05
8.01634e-05
8.0164e-05
8.01645e-05
8.01651e-05
8.01656e-05
8.01661e-05
8.01666e-05
8.01671e-05
8.01675e-05
8.0168e-05
8.01684e-05
8.01686e-05
8.01702e-05
8.01556e-05
8.01516e-05
8.01514e-05
8.0152e-05
8.01527e-05
8.01535e-05
8.01543e-05
8.01551e-05
8.01559e-05
8.01566e-05
8.01572e-05
8.01578e-05
8.01585e-05
8.01591e-05
8.01595e-05
8.01613e-05
7.82314e-05
7.82278e-05
7.82279e-05
7.82289e-05
7.823e-05
7.82311e-05
7.82322e-05
7.82333e-05
7.82343e-05
7.82353e-05
7.82363e-05
7.82373e-05
7.82382e-05
7.82392e-05
7.82401e-05
7.82411e-05
7.8242e-05
7.82429e-05
7.82438e-05
7.82447e-05
7.82455e-05
7.82463e-05
7.82471e-05
7.82479e-05
7.82486e-05
7.82493e-05
7.825e-05
7.82507e-05
7.82514e-05
7.82521e-05
7.82528e-05
7.82534e-05
7.8254e-05
7.82546e-05
7.82552e-05
7.82558e-05
7.82563e-05
7.82568e-05
7.82573e-05
7.82578e-05
7.82583e-05
7.82587e-05
7.82592e-05
7.82595e-05
7.82609e-05
7.82466e-05
7.82426e-05
7.82423e-05
7.82429e-05
7.82436e-05
7.82444e-05
7.82452e-05
7.8246e-05
7.82467e-05
7.82474e-05
7.82481e-05
7.82487e-05
7.82493e-05
7.82499e-05
7.82504e-05
7.82521e-05
7.6365e-05
7.63614e-05
7.63615e-05
7.63625e-05
7.63636e-05
7.63647e-05
7.63658e-05
7.63669e-05
7.63679e-05
7.63689e-05
7.63698e-05
7.63708e-05
7.63717e-05
7.63727e-05
7.63736e-05
7.63746e-05
7.63755e-05
7.63764e-05
7.63773e-05
7.63782e-05
7.6379e-05
7.63798e-05
7.63806e-05
7.63814e-05