/*--------------------------------*- C++ -*----------------------------------*\
  =========                 |
  \\      /  F ield         | OpenFOAM: The Open Source CFD Toolbox
   \\    /   O peration     | Website:  https://openfoam.org
    \\  /    A nd           | Version:  7
     \\/     M anipulation  |
\*---------------------------------------------------------------------------*/
FoamFile
{
    version     2.0;
    format      ascii;
    class       volScalarField;
    location    "2500";
    object      nut;
}
// * * * * * * * * * * * * * * * * * * * * * * * * * * * * * * * * * * * * * //

dimensions      [0 2 -1 0 0 0 0];

internalField   nonuniform List<scalar> 
4026
(
0.000266362
0.000266359
0.00026636
0.000266361
0.000266363
0.000266365
0.000266366
0.000266368
0.00026637
0.000266371
0.000266373
0.000266374
0.000266376
0.000266377
0.000266379
0.00026638
0.000266382
0.000266383
0.000266385
0.000266386
0.000266388
0.000266389
0.00026639
0.000266392
0.000266393
0.000266394
0.000266395
0.000266396
0.000266398
0.000266399
0.0002664
0.000266401
0.000266402
0.000266403
0.000266404
0.000266404
0.000266405
0.000266406
0.000266407
0.000266408
0.000266408
0.000266409
0.000266409
0.00026641
0.000266412
0.00026636
0.000266362
0.000266364
0.000266367
0.000266369
0.00026637
0.000266372
0.000266373
0.000266375
0.000266376
0.000266377
0.000266378
0.000266379
0.00026638
0.00026638
0.000266385
0.000279454
0.000279451
0.000279452
0.000279454
0.000279455
0.000279457
0.000279459
0.000279461
0.000279462
0.000279464
0.000279465
0.000279467
0.000279468
0.00027947
0.000279471
0.000279473
0.000279474
0.000279476
0.000279477
0.000279478
0.00027948
0.000279481
0.000279482
0.000279483
0.000279485
0.000279486
0.000279487
0.000279488
0.000279489
0.00027949
0.000279491
0.000279492
0.000279492
0.000279493
0.000279494
0.000279495
0.000279496
0.000279496
0.000279497
0.000279497
0.000279498
0.000279498
0.000279499
0.000279499
0.000279501
0.000279446
0.000279447
0.000279451
0.000279453
0.000279456
0.000279458
0.00027946
0.000279461
0.000279463
0.000279464
0.000279465
0.000279466
0.000279467
0.000279468
0.000279468
0.000279472
0.000292893
0.000292891
0.000292892
0.000292893
0.000292895
0.000292897
0.000292899
0.0002929
0.000292902
0.000292903
0.000292905
0.000292906
0.000292908
0.000292909
0.000292911
0.000292912
0.000292913
0.000292915
0.000292916
0.000292917
0.000292918
0.000292919
0.00029292
0.000292922
0.000292923
0.000292924
0.000292925
0.000292925
0.000292926
0.000292927
0.000292928
0.000292929
0.000292929
0.00029293
0.000292931
0.000292931
0.000292932
0.000292932
0.000292933
0.000292933
0.000292934
0.000292934
0.000292934
0.000292934
0.000292936
0.00029288
0.000292881
0.000292884
0.000292887
0.00029289
0.000292892
0.000292894
0.000292896
0.000292897
0.000292898
0.0002929
0.000292901
0.000292902
0.000292903
0.000292903
0.000292906
0.000306701
0.0003067
0.000306701
0.000306703
0.000306705
0.000306706
0.000306708
0.00030671
0.000306711
0.000306713
0.000306714
0.000306715
0.000306717
0.000306718
0.000306719
0.000306721
0.000306722
0.000306723
0.000306724
0.000306725
0.000306726
0.000306727
0.000306728
0.000306729
0.00030673
0.000306731
0.000306732
0.000306732
0.000306733
0.000306734
0.000306734
0.000306735
0.000306735
0.000306736
0.000306736
0.000306737
0.000306737
0.000306737
0.000306738
0.000306738
0.000306738
0.000306738
0.000306738
0.000306738
0.000306739
0.000306685
0.000306685
0.000306688
0.000306691
0.000306693
0.000306696
0.000306698
0.000306699
0.000306701
0.000306702
0.000306703
0.000306704
0.000306705
0.000306706
0.000306707
0.000306709
0.000320902
0.000320903
0.000320904
0.000320906
0.000320908
0.000320909
0.000320911
0.000320913
0.000320914
0.000320915
0.000320917
0.000320918
0.000320919
0.00032092
0.000320921
0.000320923
0.000320924
0.000320925
0.000320926
0.000320926
0.000320927
0.000320928
0.000320929
0.000320929
0.00032093
0.000320931
0.000320931
0.000320932
0.000320932
0.000320933
0.000320933
0.000320933
0.000320934
0.000320934
0.000320934
0.000320934
0.000320935
0.000320935
0.000320935
0.000320935
0.000320935
0.000320935
0.000320934
0.000320934
0.000320934
0.000320883
0.000320884
0.000320886
0.000320888
0.000320891
0.000320893
0.000320894
0.000320896
0.000320897
0.000320898
0.0003209
0.0003209
0.000320901
0.000320902
0.000320903
0.000320903
0.000335522
0.000335525
0.000335527
0.000335528
0.00033553
0.000335532
0.000335533
0.000335534
0.000335536
0.000335537
0.000335538
0.000335539
0.00033554
0.000335541
0.000335542
0.000335543
0.000335544
0.000335545
0.000335546
0.000335546
0.000335547
0.000335547
0.000335548
0.000335548
0.000335549
0.000335549
0.000335549
0.00033555
0.00033555
0.00033555
0.00033555
0.00033555
0.00033555
0.00033555
0.00033555
0.00033555
0.00033555
0.00033555
0.000335549
0.000335549
0.000335549
0.000335549
0.000335548
0.000335548
0.000335546
0.000335499
0.000335501
0.000335503
0.000335505
0.000335506
0.000335508
0.00033551
0.000335511
0.000335512
0.000335513
0.000335514
0.000335515
0.000335516
0.000335516
0.000335517
0.000335516
0.000350588
0.000350592
0.000350595
0.000350596
0.000350598
0.0003506
0.000350601
0.000350602
0.000350603
0.000350604
0.000350605
0.000350606
0.000350607
0.000350608
0.000350608
0.000350609
0.00035061
0.00035061
0.000350611
0.000350611
0.000350611
0.000350612
0.000350612
0.000350612
0.000350612
0.000350612
0.000350612
0.000350612
0.000350612
0.000350612
0.000350612
0.000350612
0.000350611
0.000350611
0.000350611
0.00035061
0.00035061
0.000350609
0.000350609
0.000350608
0.000350607
0.000350607
0.000350606
0.000350606
0.000350602
0.00035056
0.000350563
0.000350565
0.000350566
0.000350568
0.000350569
0.00035057
0.000350571
0.000350572
0.000350573
0.000350573
0.000350574
0.000350575
0.000350575
0.000350576
0.000350573
0.000366127
0.000366134
0.000366137
0.000366139
0.00036614
0.000366142
0.000366143
0.000366144
0.000366145
0.000366146
0.000366146
0.000366147
0.000366147
0.000366148
0.000366148
0.000366149
0.000366149
0.000366149
0.00036615
0.00036615
0.000366149
0.000366149
0.000366149
0.000366149
0.000366149
0.000366149
0.000366148
0.000366148
0.000366147
0.000366147
0.000366146
0.000366146
0.000366145
0.000366144
0.000366144
0.000366143
0.000366142
0.000366141
0.00036614
0.000366139
0.000366138
0.000366137
0.000366136
0.000366136
0.00036613
0.000366093
0.000366099
0.0003661
0.000366101
0.000366102
0.000366103
0.000366104
0.000366105
0.000366105
0.000366106
0.000366106
0.000366106
0.000366106
0.000366106
0.000366107
0.000366103
0.00038217
0.00038218
0.000382183
0.000382185
0.000382186
0.000382187
0.000382188
0.000382189
0.00038219
0.00038219
0.000382191
0.000382191
0.000382191
0.000382191
0.000382192
0.000382192
0.000382192
0.000382191
0.000382191
0.000382191
0.00038219
0.00038219
0.000382189
0.000382189
0.000382188
0.000382188
0.000382187
0.000382186
0.000382185
0.000382184
0.000382183
0.000382182
0.000382181
0.00038218
0.000382179
0.000382178
0.000382176
0.000382175
0.000382174
0.000382172
0.000382171
0.000382169
0.000382167
0.000382167
0.000382159
0.000382129
0.000382137
0.000382138
0.000382139
0.000382139
0.00038214
0.00038214
0.000382141
0.000382141
0.000382141
0.000382141
0.000382141
0.000382141
0.00038214
0.000382141
0.000382135
0.000398747
0.00039876
0.000398764
0.000398765
0.000398767
0.000398768
0.000398768
0.000398769
0.000398769
0.000398769
0.000398769
0.000398769
0.000398769
0.000398769
0.000398769
0.000398768
0.000398768
0.000398767
0.000398767
0.000398766
0.000398765
0.000398764
0.000398763
0.000398762
0.000398761
0.00039876
0.000398759
0.000398757
0.000398756
0.000398755
0.000398753
0.000398752
0.00039875
0.000398748
0.000398747
0.000398745
0.000398743
0.000398741
0.00039874
0.000398738
0.000398736
0.000398734
0.000398731
0.000398731
0.000398721
0.000398697
0.000398708
0.00039871
0.00039871
0.00039871
0.00039871
0.00039871
0.00039871
0.000398709
0.000398709
0.000398709
0.000398708
0.000398708
0.000398707
0.000398708
0.000398699
0.000415891
0.000415907
0.000415911
0.000415913
0.000415914
0.000415914
0.000415915
0.000415915
0.000415915
0.000415915
0.000415914
0.000415914
0.000415913
0.000415913
0.000415912
0.000415911
0.00041591
0.000415909
0.000415908
0.000415907
0.000415905
0.000415904
0.000415902
0.000415901
0.000415899
0.000415898
0.000415896
0.000415894
0.000415892
0.00041589
0.000415888
0.000415886
0.000415884
0.000415882
0.000415879
0.000415877
0.000415875
0.000415873
0.00041587
0.000415868
0.000415865
0.000415863
0.00041586
0.000415859
0.000415846
0.00041583
0.000415844
0.000415846
0.000415846
0.000415846
0.000415845
0.000415845
0.000415844
0.000415843
0.000415843
0.000415842
0.000415841
0.00041584
0.000415838
0.00041584
0.000415828
0.000433634
0.000433654
0.000433659
0.00043366
0.000433661
0.000433661
0.000433661
0.000433661
0.000433661
0.00043366
0.000433659
0.000433658
0.000433657
0.000433656
0.000433655
0.000433653
0.000433652
0.00043365
0.000433649
0.000433647
0.000433645
0.000433643
0.000433641
0.000433638
0.000433636
0.000433634
0.000433632
0.000433629
0.000433627
0.000433624
0.000433621
0.000433619
0.000433616
0.000433613
0.00043361
0.000433607
0.000433604
0.000433601
0.000433598
0.000433595
0.000433592
0.000433589
0.000433585
0.000433585
0.000433568
0.000433561
0.000433578
0.000433581
0.000433581
0.00043358
0.000433579
0.000433578
0.000433577
0.000433576
0.000433574
0.000433573
0.000433571
0.00043357
0.000433568
0.000433569
0.000433554
0.000452012
0.000452035
0.000452041
0.000452042
0.000452042
0.000452042
0.000452042
0.000452041
0.00045204
0.000452039
0.000452038
0.000452036
0.000452034
0.000452033
0.000452031
0.000452029
0.000452027
0.000452025
0.000452022
0.00045202
0.000452017
0.000452014
0.000452012
0.000452009
0.000452006
0.000452003
0.000452
0.000451997
0.000451993
0.00045199
0.000451987
0.000451983
0.00045198
0.000451976
0.000451973
0.000451969
0.000451966
0.000451962
0.000451958
0.000451954
0.00045195
0.000451947
0.000451942
0.000451941
0.000451922
0.000451923
0.000451944
0.000451948
0.000451947
0.000451946
0.000451945
0.000451943
0.000451942
0.00045194
0.000451938
0.000451936
0.000451934
0.000451932
0.00045193
0.000451931
0.000451913
0.000471057
0.000471085
0.000471092
0.000471093
0.000471093
0.000471092
0.000471091
0.00047109
0.000471088
0.000471087
0.000471085
0.000471083
0.00047108
0.000471078
0.000471076
0.000471073
0.00047107
0.000471067
0.000471064
0.000471061
0.000471058
0.000471054
0.00047105
0.000471047
0.000471043
0.000471039
0.000471036
0.000471032
0.000471028
0.000471024
0.000471019
0.000471015
0.000471011
0.000471007
0.000471002
0.000470998
0.000470993
0.000470989
0.000470984
0.00047098
0.000470975
0.000470971
0.000470965
0.000470964
0.000470941
0.000470951
0.000470977
0.000470981
0.000470981
0.000470979
0.000470978
0.000470976
0.000470974
0.000470971
0.000470969
0.000470966
0.000470964
0.000470961
0.000470958
0.000470959
0.000470937
0.000490807
0.00049084
0.000490848
0.000490849
0.000490848
0.000490847
0.000490845
0.000490844
0.000490841
0.000490839
0.000490836
0.000490833
0.000490831
0.000490827
0.000490824
0.000490821
0.000490817
0.000490814
0.00049081
0.000490806
0.000490802
0.000490797
0.000490793
0.000490788
0.000490784
0.000490779
0.000490774
0.00049077
0.000490765
0.00049076
0.000490755
0.00049075
0.000490744
0.000490739
0.000490734
0.000490729
0.000490723
0.000490718
0.000490713
0.000490707
0.000490702
0.000490696
0.00049069
0.000490689
0.000490661
0.000490682
0.000490712
0.000490718
0.000490717
0.000490715
0.000490713
0.00049071
0.000490708
0.000490705
0.000490702
0.000490699
0.000490695
0.000490692
0.000490688
0.00049069
0.000490664
0.000511298
0.000511336
0.000511344
0.000511345
0.000511344
0.000511342
0.00051134
0.000511338
0.000511335
0.000511332
0.000511328
0.000511325
0.000511321
0.000511317
0.000511313
0.000511309
0.000511304
0.0005113
0.000511295
0.00051129
0.000511285
0.00051128
0.000511274
0.000511269
0.000511263
0.000511258
0.000511252
0.000511246
0.000511241
0.000511235
0.000511229
0.000511222
0.000511216
0.00051121
0.000511204
0.000511198
0.000511191
0.000511185
0.000511179
0.000511172
0.000511166
0.00051116
0.000511152
0.000511151
0.000511118
0.00051115
0.000511186
0.000511192
0.000511191
0.000511189
0.000511186
0.000511183
0.00051118
0.000511177
0.000511173
0.000511169
0.000511165
0.000511162
0.000511157
0.000511158
0.000511128
0.000532564
0.000532609
0.000532618
0.000532618
0.000532617
0.000532614
0.000532611
0.000532608
0.000532604
0.0005326
0.000532596
0.000532592
0.000532587
0.000532582
0.000532577
0.000532572
0.000532567
0.000532562
0.000532556
0.00053255
0.000532544
0.000532537
0.000532531
0.000532524
0.000532518
0.000532511
0.000532505
0.000532498
0.000532491
0.000532484
0.000532477
0.00053247
0.000532462
0.000532455
0.000532448
0.000532441
0.000532433
0.000532426
0.000532419
0.000532411
0.000532404
0.000532396
0.000532388
0.000532386
0.000532349
0.000532391
0.000532433
0.000532441
0.00053244
0.000532437
0.000532434
0.00053243
0.000532426
0.000532422
0.000532418
0.000532413
0.000532409
0.000532405
0.000532399
0.0005324
0.000532366
0.000554643
0.000554694
0.000554704
0.000554704
0.000554702
0.000554699
0.000554695
0.000554691
0.000554686
0.000554682
0.000554676
0.000554671
0.000554665
0.00055466
0.000554654
0.000554648
0.000554641
0.000554635
0.000554628
0.000554621
0.000554614
0.000554606
0.000554599
0.000554591
0.000554583
0.000554575
0.000554568
0.00055456
0.000554552
0.000554543
0.000554535
0.000554527
0.000554518
0.00055451
0.000554502
0.000554493
0.000554485
0.000554476
0.000554468
0.000554459
0.00055445
0.000554442
0.000554432
0.00055443
0.000554387
0.000554442
0.000554491
0.000554499
0.000554498
0.000554495
0.000554491
0.000554487
0.000554482
0.000554478
0.000554472
0.000554467
0.000554462
0.000554457
0.000554451
0.000554452
0.000554413
0.000577568
0.000577627
0.000577638
0.000577638
0.000577634
0.00057763
0.000577626
0.000577621
0.000577616
0.00057761
0.000577603
0.000577597
0.00057759
0.000577584
0.000577577
0.000577569
0.000577562
0.000577554
0.000577546
0.000577538
0.00057753
0.000577521
0.000577512
0.000577503
0.000577494
0.000577485
0.000577476
0.000577467
0.000577458
0.000577448
0.000577439
0.000577429
0.000577419
0.00057741
0.0005774
0.00057739
0.00057738
0.000577371
0.000577361
0.000577351
0.000577341
0.000577332
0.00057732
0.000577318
0.000577269
0.000577336
0.000577393
0.000577402
0.000577401
0.000577397
0.000577393
0.000577388
0.000577383
0.000577377
0.000577371
0.000577366
0.00057736
0.000577354
0.000577346
0.000577348
0.000577303
0.000601374
0.000601441
0.000601453
0.000601453
0.000601449
0.000601444
0.000601438
0.000601432
0.000601426
0.000601419
0.000601412
0.000601404
0.000601396
0.000601388
0.00060138
0.000601372
0.000601363
0.000601354
0.000601345
0.000601335
0.000601325
0.000601316
0.000601305
0.000601295
0.000601285
0.000601274
0.000601264
0.000601253
0.000601243
0.000601232
0.000601221
0.00060121
0.000601199
0.000601188
0.000601177
0.000601166
0.000601154
0.000601143
0.000601132
0.000601121
0.00060111
0.000601099
0.000601086
0.000601083
0.000601029
0.000601109
0.000601173
0.000601184
0.000601182
0.000601178
0.000601173
0.000601167
0.000601161
0.000601155
0.000601149
0.000601142
0.000601135
0.000601129
0.00060112
0.000601121
0.000601072
0.000626094
0.000626169
0.000626182
0.000626181
0.000626177
0.000626171
0.000626164
0.000626157
0.00062615
0.000626141
0.000626133
0.000626124
0.000626115
0.000626106
0.000626096
0.000626087
0.000626077
0.000626066
0.000626056
0.000626045
0.000626034
0.000626022
0.000626011
0.000625999
0.000625987
0.000625975
0.000625963
0.000625951
0.000625939
0.000625927
0.000625914
0.000625902
0.000625889
0.000625877
0.000625864
0.000625851
0.000625839
0.000625826
0.000625814
0.000625801
0.000625788
0.000625776
0.000625761
0.000625758
0.000625698
0.000625791
0.000625864
0.000625877
0.000625875
0.000625869
0.000625863
0.000625857
0.000625851
0.000625843
0.000625836
0.000625828
0.000625821
0.000625813
0.000625804
0.000625805
0.00062575
0.000651756
0.000651841
0.000651856
0.000651854
0.000651848
0.000651841
0.000651834
0.000651825
0.000651817
0.000651807
0.000651797
0.000651787
0.000651777
0.000651766
0.000651756
0.000651744
0.000651733
0.000651721
0.000651709
0.000651697
0.000651684
0.000651671
0.000651658
0.000651645
0.000651631
0.000651618
0.000651604
0.000651591
0.000651577
0.000651563
0.000651549
0.000651535
0.000651521
0.000651506
0.000651492
0.000651478
0.000651464
0.00065145
0.000651435
0.000651421
0.000651407
0.000651393
0.000651377
0.000651372
0.000651306
0.000651414
0.000651496
0.00065151
0.000651508
0.000651502
0.000651495
0.000651488
0.00065148
0.000651472
0.000651464
0.000651455
0.000651447
0.000651438
0.000651428
0.000651429
0.000651368
0.000678389
0.000678483
0.0006785
0.000678498
0.000678491
0.000678483
0.000678474
0.000678464
0.000678454
0.000678443
0.000678432
0.000678421
0.000678409
0.000678397
0.000678385
0.000678372
0.000678359
0.000678346
0.000678332
0.000678318
0.000678304
0.000678289
0.000678274
0.000678259
0.000678244
0.000678229
0.000678214
0.000678199
0.000678183
0.000678168
0.000678152
0.000678136
0.00067812
0.000678104
0.000678088
0.000678072
0.000678056
0.00067804
0.000678024
0.000678008
0.000677992
0.000677977
0.000677959
0.000677953
0.000677881
0.000678003
0.000678096
0.000678111
0.000678108
0.000678102
0.000678094
0.000678086
0.000678077
0.000678068
0.000678059
0.000678049
0.00067804
0.00067803
0.000678019
0.00067802
0.000677953
0.000706015
0.000706121
0.000706139
0.000706136
0.000706128
0.000706119
0.000706108
0.000706098
0.000706086
0.000706074
0.000706061
0.000706048
0.000706035
0.000706021
0.000706007
0.000705993
0.000705979
0.000705964
0.000705948
0.000705933
0.000705917
0.0007059
0.000705884
0.000705867
0.00070585
0.000705833
0.000705816
0.000705799
0.000705781
0.000705764
0.000705746
0.000705729
0.000705711
0.000705693
0.000705675
0.000705657
0.00070564
0.000705622
0.000705604
0.000705587
0.000705569
0.000705551
0.000705532
0.000705525
0.000705446
0.000705584
0.000705687
0.000705704
0.000705701
0.000705693
0.000705684
0.000705675
0.000705665
0.000705655
0.000705645
0.000705634
0.000705624
0.000705613
0.000705601
0.000705601
0.000705528
0.000734655
0.000734772
0.000734791
0.000734788
0.000734779
0.000734768
0.000734757
0.000734744
0.000734731
0.000734718
0.000734703
0.000734689
0.000734674
0.000734659
0.000734643
0.000734627
0.000734611
0.000734594
0.000734577
0.000734559
0.000734542
0.000734523
0.000734505
0.000734486
0.000734467
0.000734449
0.00073443
0.00073441
0.000734391
0.000734372
0.000734352
0.000734333
0.000734313
0.000734293
0.000734273
0.000734253
0.000734234
0.000734214
0.000734195
0.000734175
0.000734155
0.000734136
0.000734114
0.000734107
0.00073402
0.000734175
0.000734289
0.000734307
0.000734304
0.000734295
0.000734285
0.000734275
0.000734264
0.000734253
0.000734241
0.00073423
0.000734218
0.000734206
0.000734192
0.000734192
0.000734113
0.000764323
0.000764451
0.000764472
0.000764468
0.000764458
0.000764446
0.000764433
0.000764419
0.000764404
0.000764389
0.000764373
0.000764357
0.00076434
0.000764323
0.000764306
0.000764288
0.00076427
0.000764251
0.000764232
0.000764213
0.000764193
0.000764173
0.000764152
0.000764132
0.000764111
0.00076409
0.000764069
0.000764048
0.000764026
0.000764005
0.000763983
0.000763962
0.00076394
0.000763918
0.000763896
0.000763874
0.000763853
0.000763831
0.000763809
0.000763788
0.000763766
0.000763745
0.000763721
0.000763712
0.000763619
0.00076379
0.000763916
0.000763936
0.000763932
0.000763922
0.000763911
0.000763899
0.000763887
0.000763875
0.000763862
0.000763849
0.000763836
0.000763823
0.000763808
0.000763808
0.000763722
0.000795026
0.000795167
0.00079519
0.000795185
0.000795173
0.000795159
0.000795144
0.000795129
0.000795113
0.000795096
0.000795078
0.00079506
0.000795041
0.000795023
0.000795003
0.000794984
0.000794964
0.000794943
0.000794922
0.000794901
0.000794879
0.000794857
0.000794834
0.000794811
0.000794788
0.000794765
0.000794742
0.000794719
0.000794696
0.000794672
0.000794648
0.000794624
0.0007946
0.000794576
0.000794552
0.000794528
0.000794504
0.00079448
0.000794457
0.000794433
0.000794409
0.000794386
0.00079436
0.00079435
0.000794249
0.000794438
0.000794577
0.000794598
0.000794593
0.000794582
0.000794569
0.000794557
0.000794543
0.00079453
0.000794515
0.000794501
0.000794487
0.000794473
0.000794456
0.000794455
0.000794364
0.000826766
0.00082692
0.000826944
0.000826938
0.000826925
0.00082691
0.000826893
0.000826876
0.000826858
0.000826839
0.000826819
0.0008268
0.000826779
0.000826759
0.000826737
0.000826716
0.000826694
0.000826671
0.000826648
0.000826625
0.000826601
0.000826576
0.000826552
0.000826527
0.000826502
0.000826476
0.000826451
0.000826425
0.0008264
0.000826374
0.000826348
0.000826322
0.000826296
0.000826269
0.000826243
0.000826217
0.00082619
0.000826164
0.000826138
0.000826112
0.000826086
0.000826061
0.000826033
0.000826021
0.000825914
0.00082612
0.000826272
0.000826295
0.000826289
0.000826277
0.000826263
0.000826248
0.000826234
0.000826218
0.000826203
0.000826187
0.000826171
0.000826156
0.000826138
0.000826136
0.000826039
0.000859536
0.000859703
0.000859729
0.000859723
0.000859708
0.000859691
0.000859673
0.000859654
0.000859634
0.000859613
0.000859591
0.000859569
0.000859547
0.000859524
0.000859501
0.000859478
0.000859454
0.000859429
0.000859404
0.000859378
0.000859352
0.000859325
0.000859298
0.000859271
0.000859244
0.000859216
0.000859189
0.000859161
0.000859133
0.000859105
0.000859076
0.000859048
0.000859019
0.00085899
0.000858962
0.000858933
0.000858905
0.000858876
0.000858848
0.00085882
0.000858791
0.000858763
0.000858733
0.000858719
0.000858606
0.00085883
0.000858996
0.000859021
0.000859014
0.000858999
0.000858984
0.000858968
0.000858952
0.000858935
0.000858918
0.000858901
0.000858883
0.000858866
0.000858847
0.000858844
0.000858741
0.000893321
0.000893503
0.00089353
0.000893523
0.000893506
0.000893487
0.000893467
0.000893446
0.000893424
0.000893401
0.000893378
0.000893354
0.00089333
0.000893305
0.00089328
0.000893254
0.000893228
0.000893201
0.000893174
0.000893146
0.000893117
0.000893088
0.000893059
0.00089303
0.000893
0.00089297
0.00089294
0.00089291
0.000892879
0.000892849
0.000892818
0.000892787
0.000892756
0.000892725
0.000892694
0.000892663
0.000892632
0.000892601
0.00089257
0.00089254
0.000892509
0.000892479
0.000892446
0.00089243
0.000892311
0.000892554
0.000892733
0.000892759
0.000892751
0.000892735
0.000892718
0.0008927
0.000892682
0.000892664
0.000892646
0.000892627
0.000892608
0.000892589
0.000892568
0.000892565
0.000892456
0.000928096
0.000928292
0.000928322
0.000928313
0.000928295
0.000928274
0.000928252
0.000928229
0.000928205
0.00092818
0.000928154
0.000928128
0.000928102
0.000928075
0.000928048
0.00092802
0.000927991
0.000927962
0.000927933
0.000927903
0.000927872
0.000927841
0.000927809
0.000927777
0.000927745
0.000927713
0.00092768
0.000927648
0.000927615
0.000927582
0.000927549
0.000927515
0.000927482
0.000927448
0.000927415
0.000927381
0.000927348
0.000927314
0.000927281
0.000927248
0.000927215
0.000927182
0.000927147
0.00092713
0.000927004
0.000927265
0.000927459
0.000927487
0.000927477
0.00092746
0.000927441
0.000927421
0.000927402
0.000927382
0.000927361
0.000927341
0.00092732
0.0009273
0.000927277
0.000927273
0.000927159
0.000963826
0.000964037
0.000964068
0.000964058
0.000964038
0.000964015
0.000963991
0.000963966
0.00096394
0.000963913
0.000963885
0.000963857
0.000963829
0.0009638
0.00096377
0.00096374
0.00096371
0.000963678
0.000963646
0.000963614
0.000963581
0.000963547
0.000963513
0.000963479
0.000963445
0.00096341
0.000963375
0.00096334
0.000963304
0.000963269
0.000963233
0.000963197
0.000963161
0.000963125
0.000963089
0.000963053
0.000963017
0.000962981
0.000962945
0.00096291
0.000962874
0.000962839
0.000962801
0.000962782
0.000962651
0.000962931
0.000963138
0.000963168
0.000963157
0.000963138
0.000963117
0.000963096
0.000963074
0.000963052
0.00096303
0.000963008
0.000962985
0.000962964
0.000962939
0.000962933
0.000962815
0.00100046
0.00100069
0.00100072
0.00100071
0.00100069
0.00100066
0.00100064
0.00100061
0.00100058
0.00100055
0.00100052
0.00100049
0.00100046
0.00100043
0.0010004
0.00100037
0.00100034
0.0010003
0.00100027
0.00100023
0.0010002
0.00100016
0.00100013
0.00100009
0.00100005
0.00100001
0.000999977
0.000999939
0.000999902
0.000999864
0.000999826
0.000999787
0.000999749
0.00099971
0.000999671
0.000999633
0.000999594
0.000999556
0.000999517
0.000999479
0.000999441
0.000999404
0.000999363
0.000999342
0.000999206
0.000999504
0.000999726
0.000999757
0.000999745
0.000999724
0.000999701
0.000999677
0.000999654
0.00099963
0.000999606
0.000999581
0.000999557
0.000999534
0.000999508
0.000999501
0.000999379
0.00103795
0.00103819
0.00103823
0.00103822
0.00103819
0.00103816
0.00103814
0.00103811
0.00103808
0.00103805
0.00103801
0.00103798
0.00103795
0.00103791
0.00103788
0.00103785
0.00103781
0.00103778
0.00103774
0.0010377
0.00103766
0.00103763
0.00103759
0.00103755
0.00103751
0.00103747
0.00103743
0.00103739
0.00103735
0.00103731
0.00103727
0.00103723
0.00103719
0.00103714
0.0010371
0.00103706
0.00103702
0.00103698
0.00103694
0.0010369
0.00103686
0.00103682
0.00103677
0.00103675
0.00103661
0.00103693
0.00103716
0.0010372
0.00103718
0.00103716
0.00103713
0.00103711
0.00103708
0.00103706
0.00103703
0.001037
0.00103698
0.00103695
0.00103693
0.00103692
0.00103679
0.00107622
0.00107648
0.00107651
0.0010765
0.00107647
0.00107644
0.00107641
0.00107638
0.00107635
0.00107631
0.00107628
0.00107625
0.00107621
0.00107617
0.00107614
0.0010761
0.00107607
0.00107603
0.00107599
0.00107595
0.00107591
0.00107587
0.00107583
0.00107579
0.00107574
0.0010757
0.00107566
0.00107562
0.00107557
0.00107553
0.00107549
0.00107545
0.0010754
0.00107536
0.00107531
0.00107527
0.00107523
0.00107518
0.00107514
0.0010751
0.00107505
0.00107501
0.00107497
0.00107494
0.0010748
0.00107513
0.00107538
0.00107541
0.0010754
0.00107537
0.00107535
0.00107532
0.00107529
0.00107526
0.00107523
0.00107521
0.00107518
0.00107515
0.00107512
0.00107511
0.00107498
0.00111518
0.00111545
0.00111549
0.00111547
0.00111545
0.00111542
0.00111538
0.00111535
0.00111531
0.00111528
0.00111524
0.00111521
0.00111517
0.00111513
0.00111509
0.00111505
0.00111501
0.00111497
0.00111493
0.00111489
0.00111485
0.00111481
0.00111476
0.00111472
0.00111468
0.00111463
0.00111459
0.00111454
0.0011145
0.00111445
0.00111441
0.00111436
0.00111432
0.00111427
0.00111422
0.00111418
0.00111413
0.00111408
0.00111404
0.00111399
0.00111395
0.0011139
0.00111385
0.00111383
0.00111368
0.00111403
0.00111429
0.00111433
0.00111431
0.00111428
0.00111425
0.00111422
0.00111419
0.00111416
0.00111413
0.0011141
0.00111407
0.00111404
0.00111401
0.001114
0.00111387
0.00115475
0.00115503
0.00115507
0.00115505
0.00115502
0.00115499
0.00115495
0.00115492
0.00115488
0.00115484
0.0011548
0.00115476
0.00115473
0.00115469
0.00115465
0.0011546
0.00115456
0.00115452
0.00115448
0.00115443
0.00115439
0.00115435
0.0011543
0.00115425
0.00115421
0.00115416
0.00115411
0.00115407
0.00115402
0.00115397
0.00115392
0.00115388
0.00115383
0.00115378
0.00115373
0.00115368
0.00115363
0.00115359
0.00115354
0.00115349
0.00115344
0.0011534
0.00115335
0.00115331
0.00115317
0.00115353
0.00115381
0.00115384
0.00115383
0.00115379
0.00115376
0.00115373
0.0011537
0.00115367
0.00115363
0.0011536
0.00115357
0.00115354
0.00115351
0.00115349
0.00115336
0.0011948
0.0011951
0.00119513
0.00119512
0.00119508
0.00119505
0.00119501
0.00119497
0.00119493
0.00119489
0.00119485
0.00119481
0.00119477
0.00119473
0.00119469
0.00119464
0.0011946
0.00119456
0.00119451
0.00119447
0.00119442
0.00119437
0.00119433
0.00119428
0.00119423
0.00119418
0.00119413
0.00119408
0.00119403
0.00119398
0.00119394
0.00119388
0.00119383
0.00119378
0.00119373
0.00119368
0.00119363
0.00119358
0.00119353
0.00119348
0.00119343
0.00119338
0.00119333
0.00119329
0.00119315
0.00119352
0.00119381
0.00119385
0.00119383
0.0011938
0.00119376
0.00119373
0.00119369
0.00119366
0.00119363
0.00119359
0.00119356
0.00119352
0.00119349
0.00119347
0.00119334
0.00123522
0.00123553
0.00123557
0.00123555
0.00123551
0.00123548
0.00123544
0.0012354
0.00123536
0.00123531
0.00123527
0.00123523
0.00123519
0.00123514
0.0012351
0.00123505
0.00123501
0.00123496
0.00123492
0.00123487
0.00123482
0.00123477
0.00123472
0.00123467
0.00123462
0.00123457
0.00123452
0.00123447
0.00123442
0.00123437
0.00123432
0.00123426
0.00123421
0.00123416
0.00123411
0.00123405
0.001234
0.00123395
0.0012339
0.00123384
0.00123379
0.00123374
0.00123368
0.00123365
0.0012335
0.00123389
0.00123419
0.00123423
0.00123421
0.00123417
0.00123413
0.0012341
0.00123406
0.00123402
0.00123399
0.00123395
0.00123392
0.00123388
0.00123384
0.00123382
0.00123369
0.00127588
0.00127619
0.00127623
0.00127621
0.00127618
0.00127614
0.0012761
0.00127605
0.00127601
0.00127597
0.00127592
0.00127588
0.00127583
0.00127579
0.00127574
0.0012757
0.00127565
0.0012756
0.00127555
0.00127551
0.00127546
0.00127541
0.00127536
0.0012753
0.00127525
0.0012752
0.00127515
0.00127509
0.00127504
0.00127499
0.00127493
0.00127488
0.00127483
0.00127477
0.00127472
0.00127466
0.00127461
0.00127455
0.0012745
0.00127445
0.00127439
0.00127434
0.00127428
0.00127424
0.0012741
0.00127449
0.00127481
0.00127485
0.00127482
0.00127478
0.00127474
0.0012747
0.00127467
0.00127463
0.00127459
0.00127455
0.00127451
0.00127448
0.00127444
0.00127441
0.00127429
0.00131662
0.00131695
0.00131699
0.00131697
0.00131693
0.00131689
0.00131684
0.0013168
0.00131676
0.00131671
0.00131666
0.00131662
0.00131657
0.00131652
0.00131648
0.00131643
0.00131638
0.00131633
0.00131628
0.00131623
0.00131618
0.00131613
0.00131608
0.00131603
0.00131597
0.00131592
0.00131587
0.00131581
0.00131576
0.0013157
0.00131565
0.00131559
0.00131554
0.00131548
0.00131542
0.00131537
0.00131531
0.00131526
0.0013152
0.00131514
0.00131509
0.00131503
0.00131498
0.00131493
0.00131479
0.0013152
0.00131552
0.00131556
0.00131553
0.00131549
0.00131545
0.00131541
0.00131537
0.00131532
0.00131528
0.00131524
0.0013152
0.00131516
0.00131512
0.0013151
0.00131497
0.0013573
0.00135764
0.00135768
0.00135766
0.00135762
0.00135757
0.00135753
0.00135748
0.00135744