/*--------------------------------*- C++ -*----------------------------------*\
  =========                 |
  \\      /  F ield         | OpenFOAM: The Open Source CFD Toolbox
   \\    /   O peration     | Website:  https://openfoam.org
    \\  /    A nd           | Version:  7
     \\/     M anipulation  |
\*---------------------------------------------------------------------------*/
FoamFile
{
    version     2.0;
    format      ascii;
    class       surfaceScalarField;
    location    "15500";
    object      phi;
}
// * * * * * * * * * * * * * * * * * * * * * * * * * * * * * * * * * * * * * //

dimensions      [0 3 -1 0 0 0 0];

internalField   nonuniform List<scalar> 
47680
(
2.19932e-06
1.98212e-12
2.19933e-06
-4.71004e-12
2.19934e-06
-8.45541e-12
2.19934e-06
-7.11765e-12
2.19935e-06
-3.41989e-12
2.19935e-06
4.64766e-13
2.19934e-06
3.5943e-12
2.19934e-06
5.76214e-12
2.19933e-06
7.04216e-12
2.19932e-06
7.60382e-12
2.19932e-06
7.64148e-12
2.19931e-06
7.31035e-12
2.1993e-06
6.72893e-12
2.1993e-06
6.00277e-12
2.19929e-06
5.21824e-12
2.19929e-06
4.41891e-12
2.19928e-06
3.61056e-12
2.19928e-06
2.81493e-12
2.19928e-06
2.06406e-12
2.19928e-06
1.34891e-12
2.19928e-06
6.54606e-13
2.19928e-06
-7.74472e-15
2.19928e-06
-6.19693e-13
2.19928e-06
-1.16116e-12
2.19928e-06
-1.62763e-12
2.19928e-06
-2.04008e-12
2.19928e-06
-2.42503e-12
2.19929e-06
-2.79208e-12
2.19929e-06
-3.12331e-12
2.19929e-06
-3.40053e-12
2.1993e-06
-3.63642e-12
2.1993e-06
-3.85825e-12
2.1993e-06
-4.06679e-12
2.19931e-06
-4.24741e-12
2.19931e-06
-4.36972e-12
2.19932e-06
-4.45583e-12
2.19932e-06
-4.50893e-12
2.19933e-06
-4.57673e-12
2.19933e-06
-4.53301e-12
2.19934e-06
-4.47373e-12
2.19934e-06
-4.14653e-12
2.19934e-06
-3.83912e-12
2.19935e-06
-3.0914e-12
2.19935e-06
-2.18671e-12
2.19935e-06
-1.09034e-12
2.19935e-06
4.14878e-13
2.19935e-06
7.94203e-13
2.19935e-06
8.61755e-13
2.19935e-06
6.53999e-13
2.19935e-06
6.44531e-14
2.19935e-06
-3.02673e-13
2.19935e-06
-6.47233e-13
2.19935e-06
-9.49455e-13
2.19935e-06
-1.1767e-12
2.19935e-06
-1.33377e-12
2.19935e-06
-1.40372e-12
2.19935e-06
-1.37118e-12
2.19936e-06
-1.25799e-12
2.19936e-06
-1.08233e-12
2.19936e-06
-8.30437e-13
2.19936e-06
-4.93457e-13
2.19936e-06
-1.02145e-13
2.19936e-06
2.97802e-13
2.19936e-06
6.92562e-13
2.19936e-06
1.07699e-12
2.19935e-06
1.42549e-12
2.19935e-06
1.71671e-12
2.19935e-06
1.9429e-12
2.19935e-06
2.1147e-12
2.19935e-06
2.26813e-12
2.19934e-06
2.40691e-12
2.19934e-06
2.48726e-12
2.19934e-06
2.49643e-12
2.19934e-06
2.46087e-12
2.19933e-06
2.40291e-12
2.19933e-06
2.34345e-12
2.19933e-06
2.28151e-12
2.19933e-06
2.18945e-12
2.19933e-06
2.06287e-12
2.19932e-06
1.91686e-12
2.19932e-06
1.75473e-12
2.19932e-06
1.59325e-12
2.19932e-06
1.44623e-12
2.19932e-06
1.32839e-12
2.19932e-06
1.16939e-12
2.19931e-06
9.78361e-13
2.19931e-06
6.72889e-13
2.19931e-06
4.07925e-13
2.19931e-06
2.53037e-13
2.19931e-06
1.44094e-13
2.19931e-06
1.36363e-13
2.19931e-06
8.83965e-14
2.19931e-06
2.09374e-14
2.19931e-06
-4.13311e-14
2.19931e-06
-1.40306e-13
2.19931e-06
-2.52305e-13
2.19931e-06
-4.11713e-13
2.19931e-06
-5.26193e-13
2.19932e-06
-6.94718e-13
2.19932e-06
-6.42513e-13
2.19932e-06
-6.69343e-13
2.19932e-06
-3.07147e-13
2.19932e-06
1.04746e-13
2.19932e-06
7.35548e-13
2.19931e-06
1.62655e-12
2.19931e-06
1.66826e-12
2.19931e-06
1.44179e-12
2.19931e-06
8.8915e-13
2.19931e-06
1.80237e-13
2.19931e-06
-5.29378e-13
2.19931e-06
-1.18747e-12
2.19931e-06
-1.71724e-12
2.19932e-06
-2.15185e-12
2.19932e-06
-2.40453e-12
2.19932e-06
-2.55323e-12
2.19932e-06
-2.5217e-12
2.19933e-06
-1.94969e-12
2.19933e-06
-2.03202e-12
2.19933e-06
-1.24377e-12
2.63148e-12
6.7954e-06
2.54019e-12
6.79542e-06
-2.06969e-11
6.79544e-06
-3.22945e-11
6.79546e-06
-2.59138e-11
6.79547e-06
-1.12212e-11
6.79547e-06
3.83519e-12
6.79546e-06
1.58421e-11
6.79544e-06
2.40867e-11
6.79541e-06
2.88932e-11
6.79539e-06
3.09274e-11
6.79537e-06
3.09303e-11
6.79535e-06
2.95027e-11
6.79533e-06
2.71067e-11
6.79531e-06
2.41451e-11
6.79529e-06
2.09501e-11
6.79528e-06
1.77005e-11
6.79527e-06
1.44354e-11
6.79526e-06
1.12316e-11
6.79525e-06
8.19581e-12
6.79525e-06
5.31074e-12
6.79525e-06
2.52905e-12
6.79525e-06
-1.16436e-13
6.79525e-06
-2.56036e-12
6.79525e-06
-4.7306e-12
6.79526e-06
-6.60926e-12
6.79526e-06
-8.27126e-12
6.79527e-06
-9.81101e-12
6.79528e-06
-1.12668e-11
6.79529e-06
-1.25832e-11
6.7953e-06
-1.36967e-11
6.79531e-06
-1.46442e-11
6.79532e-06
-1.55175e-11
6.79533e-06
-1.63319e-11
6.79535e-06
-1.70323e-11
6.79536e-06
-1.75272e-11
6.79537e-06
-1.78684e-11
6.79539e-06
-1.81015e-11
6.7954e-06
-1.83362e-11
6.79542e-06
-1.82329e-11
6.79543e-06
-1.79749e-11
6.79544e-06
-1.68721e-11
6.79545e-06
-1.56647e-11
6.79546e-06
-1.29972e-11
6.79547e-06
-9.67047e-12
6.79547e-06
-5.51297e-12
6.79548e-06
-1.18447e-13
6.79547e-06
1.80898e-12
6.79547e-06
2.32588e-12
6.79547e-06
1.74378e-12
6.79547e-06
-1.62797e-13
6.79547e-06
-1.52935e-12
6.79548e-06
-2.76187e-12
6.79548e-06
-3.84508e-12
6.79548e-06
-4.6594e-12
6.79549e-06
-5.20158e-12
6.79549e-06
-5.40658e-12
6.79549e-06
-5.21878e-12
6.7955e-06
-4.70759e-12
6.7955e-06
-3.94166e-12
6.7955e-06
-2.88699e-12
6.7955e-06
-1.51798e-12
6.7955e-06
5.56523e-14
6.7955e-06
1.66397e-12
6.7955e-06
3.24338e-12
6.7955e-06
4.76554e-12
6.79549e-06
6.14113e-12
6.79548e-06
7.29264e-12
6.79548e-06
8.18986e-12
6.79547e-06
8.87248e-12
6.79546e-06
9.4638e-12
6.79546e-06
9.98114e-12
6.79545e-06
1.02829e-11
6.79544e-06
1.03192e-11
6.79543e-06
1.0175e-11
6.79543e-06
9.93572e-12
6.79542e-06
9.68039e-12
6.79541e-06
9.41124e-12
6.7954e-06
9.0371e-12
6.7954e-06
8.53615e-12
6.79539e-06
7.95555e-12
6.79539e-06
7.31857e-12
6.79538e-06
6.67935e-12
6.79538e-06
6.09537e-12
6.79537e-06
5.60113e-12
6.79537e-06
4.98454e-12
6.79537e-06
4.22296e-12
6.79536e-06
3.07682e-12
6.79536e-06
2.03676e-12
6.79536e-06
1.37144e-12
6.79536e-06
9.24535e-13
6.79536e-06
8.26466e-13
6.79536e-06
6.38502e-13
6.79536e-06
3.7984e-13
6.79536e-06
1.13866e-13
6.79536e-06
-2.76172e-13
6.79536e-06
-7.58577e-13
6.79536e-06
-1.39421e-12
6.79536e-06
-1.95046e-12
6.79536e-06
-2.62181e-12
6.79537e-06
-2.65182e-12
6.79537e-06
-2.79465e-12
6.79537e-06
-1.70013e-12
6.79537e-06
-2.88241e-13
6.79537e-06
1.96595e-12
6.79536e-06
5.03115e-12
6.79536e-06
5.48208e-12
6.79536e-06
4.73957e-12
6.79536e-06
2.82556e-12
6.79536e-06
2.75482e-13
6.79536e-06
-2.35045e-12
6.79536e-06
-4.80369e-12
6.79537e-06
-6.82028e-12
6.79537e-06
-8.45827e-12
6.79538e-06
-9.45813e-12
6.79539e-06
-1.00571e-11
6.79539e-06
-9.95406e-12
6.7954e-06
-8.01036e-12
6.79541e-06
-8.28879e-12
6.79541e-06
-4.59564e-12
7.61144e-12
1.17013e-05
-4.22255e-12
1.17013e-05
-5.10285e-11
1.17013e-05
-7.0319e-11
1.17014e-05
-5.33575e-11
1.17014e-05
-2.02521e-11
1.17014e-05
1.27572e-11
1.17013e-05
3.87854e-11
1.17013e-05
5.64937e-11
1.17013e-05
6.66748e-11
1.17012e-05
7.08052e-11
1.17012e-05
7.04917e-11
1.17012e-05
6.70481e-11
1.17011e-05
6.14873e-11
1.17011e-05
5.46854e-11
1.17011e-05
4.73636e-11
1.1701e-05
3.99315e-11
1.1701e-05
3.25007e-11
1.1701e-05
2.52263e-11
1.1701e-05
1.83196e-11
1.1701e-05
1.17645e-11
1.1701e-05
5.47657e-12
1.1701e-05
-4.86919e-13
1.1701e-05
-5.99474e-12
1.1701e-05
-1.08947e-11
1.1701e-05
-1.51537e-11
1.1701e-05
-1.89242e-11
1.1701e-05
-2.24002e-11
1.17011e-05
-2.56647e-11
1.17011e-05
-2.86181e-11
1.17011e-05
-3.1134e-11
1.17011e-05
-3.32765e-11
1.17011e-05
-3.5224e-11
1.17011e-05
-3.70233e-11
1.17012e-05
-3.85669e-11
1.17012e-05
-3.96832e-11
1.17012e-05
-4.04523e-11
1.17012e-05
-4.09992e-11
1.17013e-05
-4.14912e-11
1.17013e-05
-4.13438e-11
1.17013e-05
-4.07715e-11
1.17013e-05
-3.85772e-11
1.17013e-05
-3.59549e-11
1.17014e-05
-3.04557e-11
1.17014e-05
-2.34511e-11
1.17014e-05
-1.45594e-11
1.17014e-05
-3.32969e-12
1.17014e-05
1.52184e-12
1.17014e-05
3.15581e-12
1.17014e-05
2.31478e-12
1.17014e-05
-1.24941e-12
1.17014e-05
-4.06846e-12
1.17014e-05
-6.59184e-12
1.17014e-05
-8.79888e-12
1.17014e-05
-1.04513e-11
1.17014e-05
-1.15069e-11
1.17014e-05
-1.18236e-11
1.17014e-05
-1.12795e-11
1.17014e-05
-1.00072e-11
1.17014e-05
-8.15633e-12
1.17014e-05
-5.6785e-12
1.17014e-05
-2.53746e-12
1.17014e-05
1.03575e-12
1.17014e-05
4.68346e-12
1.17014e-05
8.24787e-12
1.17014e-05
1.1654e-11
1.17014e-05
1.47215e-11
1.17014e-05
1.72901e-11
1.17014e-05
1.92965e-11
1.17014e-05
2.0822e-11
1.17014e-05
2.21139e-11
1.17014e-05
2.32138e-11
1.17013e-05
2.38531e-11
1.17013e-05
2.39246e-11
1.17013e-05
2.35915e-11
1.17013e-05
2.30347e-11
1.17013e-05
2.24263e-11
1.17013e-05
2.17808e-11
1.17013e-05
2.09206e-11
1.17013e-05
1.9794e-11
1.17012e-05
1.84903e-11
1.17012e-05
1.70702e-11
1.17012e-05
1.5641e-11
1.17012e-05
1.43278e-11
1.17012e-05
1.31813e-11
1.17012e-05
1.18089e-11
1.17012e-05
1.01034e-11
1.17012e-05
7.63039e-12
1.17012e-05
5.32265e-12
1.17012e-05
3.75995e-12
1.17012e-05
2.72076e-12
1.17012e-05
2.39899e-12
1.17012e-05
1.97073e-12
1.17012e-05
1.39952e-12
1.17012e-05
7.76722e-13
1.17012e-05
-1.10823e-13
1.17012e-05
-1.25082e-12
1.17012e-05
-2.71344e-12
1.17012e-05
-4.11184e-12
1.17012e-05
-5.68262e-12
1.17012e-05
-6.1077e-12
1.17012e-05
-6.57575e-12
1.17012e-05
-4.67233e-12
1.17012e-05
-1.92863e-12
1.17012e-05
2.63497e-12
1.17012e-05
8.77801e-12
1.17012e-05
1.01184e-11
1.17012e-05
8.77221e-12
1.17012e-05
4.95673e-12
1.17012e-05
-2.83758e-13
1.17012e-05
-5.80771e-12
1.17012e-05
-1.10137e-11
1.17012e-05
-1.53523e-11
1.17012e-05
-1.88658e-11
1.17012e-05
-2.10819e-11
1.17012e-05
-2.24255e-11
1.17012e-05
-2.22508e-11
1.17013e-05
-1.84133e-11
1.17013e-05
-1.89298e-11
1.17013e-05
-9.84286e-12
1.21069e-11
1.6907e-05
-2.51419e-11
1.69071e-05
-9.90287e-11
1.69071e-05
-1.20293e-10
1.69071e-05
-8.49724e-11
1.69071e-05
-2.62576e-11
1.69071e-05
3.04502e-11
1.69071e-05
7.4589e-11
1.6907e-05
1.04307e-10
1.6907e-05
1.21107e-10
1.69069e-05
1.27555e-10
1.69069e-05
1.26387e-10
1.69068e-05
1.19848e-10
1.69068e-05
1.0968e-10
1.69067e-05
9.73798e-11
1.69067e-05
8.41806e-11
1.69067e-05
7.0814e-11
1.69066e-05
5.75056e-11
1.69066e-05
4.4503e-11
1.69066e-05
3.21405e-11
1.69066e-05
2.04199e-11
1.69066e-05
9.22627e-12
1.69066e-05
-1.36172e-12
1.69066e-05
-1.11331e-11
1.69066e-05
-1.98391e-11
1.69066e-05
-2.74337e-11
1.69066e-05
-3.4167e-11
1.69067e-05
-4.03507e-11
1.69067e-05
-4.61242e-11
1.69067e-05
-5.13458e-11
1.69067e-05
-5.58192e-11
1.69067e-05
-5.96303e-11
1.69068e-05
-6.30583e-11
1.69068e-05
-6.61954e-11
1.69068e-05
-6.88789e-11
1.69069e-05
-7.08512e-11
1.69069e-05
-7.22241e-11
1.69069e-05
-7.32181e-11
1.6907e-05
-7.40586e-11
1.6907e-05
-7.38945e-11
1.6907e-05
-7.29346e-11
1.69071e-05
-6.9432e-11
1.69071e-05
-6.49988e-11
1.69071e-05
-5.59895e-11
1.69071e-05
-4.43283e-11
1.69071e-05
-2.9386e-11
1.69072e-05
-1.07671e-11
1.69072e-05
-1.61527e-12
1.69072e-05
2.04502e-12
1.69072e-05
1.34721e-12
1.69072e-05
-3.86551e-12
1.69072e-05
-8.34038e-12
1.69072e-05
-1.23867e-11
1.69072e-05
-1.59018e-11
1.69072e-05
-1.85085e-11
1.69072e-05
-2.00862e-11
1.69072e-05
-2.03814e-11
1.69072e-05
-1.91866e-11
1.69072e-05
-1.67047e-11
1.69072e-05
-1.31937e-11
1.69072e-05
-8.60899e-12
1.69072e-05
-2.92027e-12
1.69072e-05
3.48163e-12
1.69072e-05
9.99615e-12
1.69072e-05
1.63273e-11
1.69072e-05
2.23318e-11
1.69072e-05
2.77154e-11
1.69072e-05
3.2219e-11
1.69072e-05
3.57426e-11
1.69071e-05
3.84203e-11
1.69071e-05
4.06433e-11
1.69071e-05
4.24859e-11
1.69071e-05
4.35396e-11
1.69071e-05
4.36359e-11
1.6907e-05
4.30238e-11
1.6907e-05
4.20043e-11
1.6907e-05
4.08693e-11
1.6907e-05
3.96597e-11
1.6907e-05
3.80989e-11
1.6907e-05
3.60935e-11
1.69069e-05
3.37833e-11
1.69069e-05
3.12849e-11
1.69069e-05
2.87686e-11
1.69069e-05
2.64383e-11
1.69069e-05
2.4361e-11
1.69069e-05
2.19334e-11
1.69069e-05
1.8922e-11
1.69069e-05
1.46806e-11
1.69069e-05
1.06485e-11
1.69069e-05
7.80271e-12
1.69068e-05
5.9005e-12
1.69068e-05
5.18852e-12
1.69068e-05
4.40244e-12
1.69068e-05
3.39587e-12
1.69068e-05
2.25216e-12
1.69068e-05
6.38438e-13
1.69068e-05
-1.47315e-12
1.69068e-05
-4.15771e-12
1.69068e-05
-6.85447e-12
1.69068e-05
-9.8048e-12
1.69069e-05
-1.10713e-11
1.69069e-05
-1.22267e-11
1.69069e-05
-9.6852e-12
1.69069e-05
-5.54488e-12
1.69069e-05
1.68662e-12
1.69069e-05
1.14721e-11
1.69069e-05
1.41525e-11
1.69069e-05
1.23022e-11
1.69069e-05
6.31184e-12
1.69069e-05
-2.16354e-12
1.69069e-05
-1.12947e-11
1.69069e-05
-1.99877e-11
1.69069e-05
-2.73115e-11
1.69069e-05
-3.32446e-11
1.69069e-05
-3.70847e-11
1.69069e-05
-3.94421e-11
1.69069e-05
-3.92327e-11
1.6907e-05
-3.31994e-11
1.6907e-05
-3.39943e-11
1.6907e-05
-1.65797e-11
1.30639e-11
2.23335e-05
-6.68247e-11
2.23336e-05
-1.64671e-10
2.23336e-05
-1.76712e-10
2.23336e-05
-1.14471e-10
2.23336e-05
-2.4641e-11
2.23336e-05
5.93956e-11
2.23336e-05
1.24007e-10
2.23335e-05
1.67082e-10
2.23334e-05
1.91003e-10
2.23334e-05
1.99601e-10
2.23333e-05
1.9689e-10
2.23332e-05
1.86179e-10
2.23332e-05
1.70064e-10
2.23331e-05
1.50761e-10
2.23331e-05
1.30114e-10
2.2333e-05
1.09245e-10
2.2333e-05
8.85291e-11
2.2333e-05
6.83154e-11
2.2333e-05
4.90705e-11
2.23329e-05
3.08369e-11
2.23329e-05
1.34815e-11
2.23329e-05
-2.89193e-12
2.2333e-05
-1.79924e-11
2.2333e-05
-3.14673e-11
2.2333e-05
-4.32659e-11
2.2333e-05
-5.37521e-11
2.2333e-05
-6.33554e-11
2.2333e-05
-7.22755e-11
2.23331e-05
-8.03396e-11
2.23331e-05
-8.7281e-11
2.23331e-05
-9.31985e-11
2.23332e-05
-9.84774e-11
2.23332e-05
-1.03267e-10
2.23333e-05
-1.07356e-10
2.23333e-05
-1.10399e-10
2.23333e-05
-1.1255e-10
2.23334e-05
-1.14131e-10
2.23334e-05
-1.15418e-10
2.23335e-05
-1.15282e-10
2.23335e-05
-1.13909e-10
2.23335e-05
-1.08988e-10
2.23336e-05
-1.02485e-10
2.23336e-05
-8.95282e-11
2.23336e-05
-7.25467e-11
2.23337e-05
-5.06367e-11
2.23337e-05
-2.35076e-11
2.23337e-05
-8.82177e-12
2.23337e-05
-2.10527e-12
2.23337e-05
-2.02118e-12
2.23337e-05
-8.56317e-12
2.23337e-05
-1.4629e-11
2.23337e-05
-2.02285e-11
2.23337e-05
-2.50653e-11
2.23337e-05
-2.85988e-11
2.23337e-05
-3.05866e-11
2.23337e-05
-3.0627e-11
2.23338e-05
-2.84105e-11
2.23338e-05
-2.42221e-11
2.23338e-05
-1.84475e-11
2.23338e-05
-1.10693e-11
2.23338e-05
-2.08659e-12
2.23338e-05
7.91097e-12
2.23338e-05
1.80353e-11
2.23337e-05
2.78243e-11
2.23337e-05
3.70425e-11
2.23337e-05
4.5268e-11
2.23337e-05
5.21397e-11
2.23337e-05
5.75241e-11
2.23336e-05
6.16163e-11
2.23336e-05
6.49575e-11
2.23336e-05
6.76525e-11
2.23336e-05
6.91575e-11
2.23335e-05
6.92516e-11
2.23335e-05
6.82723e-11
2.23335e-05
6.66526e-11
2.23335e-05
6.48277e-11
2.23334e-05
6.28715e-11
2.23334e-05
6.0404e-11
2.23334e-05
5.72865e-11
2.23334e-05
5.37191e-11
2.23334e-05
4.98861e-11
2.23333e-05
4.60266e-11
2.23333e-05
4.24227e-11
2.23333e-05
3.91537e-11
2.23333e-05
3.53869e-11
2.23333e-05
3.07365e-11
2.23333e-05
2.43478e-11
2.23333e-05
1.82046e-11
2.23333e-05
1.37347e-11
2.23333e-05
1.07131e-11
2.23333e-05
9.43236e-12
2.23333e-05
8.15777e-12
2.23333e-05
6.5868e-12
2.23332e-05
4.74708e-12
2.23332e-05
2.15976e-12
2.23332e-05
-1.25843e-12
2.23332e-05
-5.58379e-12
2.23333e-05
-1.00634e-11
2.23333e-05
-1.49172e-11
2.23333e-05
-1.75587e-11
2.23333e-05
-1.98744e-11
2.23333e-05
-1.7054e-11
2.23333e-05
-1.16824e-11
2.23333e-05
-1.71574e-12
2.23333e-05
1.1966e-11
2.23333e-05
1.63471e-11
2.23333e-05
1.42352e-11
2.23333e-05
6.06892e-12
2.23333e-05
-5.85984e-12
2.23333e-05
-1.89897e-11
2.23333e-05
-3.16291e-11
2.23333e-05
-4.23807e-11
2.23333e-05
-5.11186e-11
2.23334e-05
-5.69069e-11
2.23334e-05
-6.05159e-11
2.23334e-05
-6.034e-11
2.23334e-05
-5.20007e-11
2.23334e-05
-5.31953e-11
2.23334e-05
-2.40513e-11
6.49968e-12
2.77974e-05
-1.31099e-10
2.77975e-05
-2.40416e-10
2.77975e-05
-2.30263e-10
2.77975e-05
-1.35176e-10
2.77975e-05
-1.25253e-11
2.77975e-05
9.91982e-11
2.77974e-05
1.84363e-10
2.77974e-05
2.40782e-10
2.77973e-05
2.71677e-10
2.77972e-05
2.82107e-10
2.77971e-05
2.77344e-10
2.7797e-05
2.61762e-10
2.7797e-05
2.38844e-10
2.77969e-05
2.11578e-10
2.77969e-05
1.8246e-10
2.77968e-05
1.53051e-10
2.77968e-05
1.2389e-10
2.77968e-05
9.5434e-11
2.77967e-05
6.829e-11
2.77967e-05
4.25674e-11
2.77967e-05
1.81387e-11
2.77967e-05
-4.86767e-12
2.77967e-05
-2.608e-11
2.77967e-05
-4.50473e-11
2.77968e-05
-6.17301e-11
2.77968e-05
-7.66105e-11
2.77968e-05
-9.02147e-11
2.77968e-05
-1.02798e-10
2.77969e-05
-1.14176e-10
2.77969e-05
-1.24009e-10
2.77969e-05
-1.32403e-10
2.7797e-05
-1.39853e-10
2.7797e-05
-1.46572e-10
2.77971e-05
-1.52296e-10
2.77971e-05
-1.56612e-10
2.77972e-05
-1.59725e-10
2.77972e-05
-1.62051e-10
2.77973e-05
-1.63903e-10
2.77973e-05
-1.63875e-10
2.77974e-05
-1.62135e-10
2.77974e-05
-1.55806e-10
2.77975e-05
-1.47142e-10
2.77975e-05
-1.30064e-10
2.77975e-05
-1.07452e-10
2.77976e-05
-7.81005e-11
2.77976e-05
-4.18039e-11
2.77976e-05
-2.06089e-11
2.77976e-05
-9.83822e-12
2.77976e-05
-8.19398e-12
2.77976e-05
-1.55129e-11
2.77976e-05
-2.28649e-11
2.77976e-05
-2.98436e-11
2.77976e-05
-3.58555e-11
2.77977e-05
-4.01653e-11
2.77977e-05
-4.2362e-11
2.77977e-05
-4.18616e-11
2.77977e-05
-3.82476e-11
2.77977e-05
-3.18986e-11
2.77977e-05
-2.33432e-11
2.77977e-05
-1.26078e-11
2.77977e-05
2.51414e-13
2.77977e-05
1.44117e-11
2.77977e-05
2.86756e-11
2.77977e-05
4.24032e-11
2.77976e-05
5.52546e-11
2.77976e-05
6.66735e-11
2.77976e-05
7.62076e-11
2.77976e-05
8.36958e-11
2.77975e-05
8.93957e-11
2.77975e-05
9.39897e-11
2.77975e-05
9.76025e-11
2.77975e-05
9.95707e-11
2.77974e-05
9.96425e-11
2.77974e-05
9.82426e-11
2.77974e-05
9.59353e-11
2.77973e-05
9.33088e-11
2.77973e-05
9.04737e-11
2.77973e-05
8.69444e-11
2.77973e-05
8.25439e-11
2.77972e-05
7.75462e-11
2.77972e-05
7.22074e-11
2.77972e-05
6.68283e-11
2.77972e-05
6.17606e-11
2.77972e-05
5.7091e-11
2.77971e-05
5.17511e-11
2.77971e-05
4.51918e-11
2.77971e-05
3.63813e-11
2.77971e-05
2.78603e-11
2.77971e-05
2.15179e-11
2.77971e-05
1.71711e-11
2.77971e-05
1.51516e-11
2.77971e-05
1.32523e-11
2.77971e-05
1.09792e-11
2.77971e-05
8.25899e-12
2.77971e-05
4.44319e-12
2.77971e-05
-6.09591e-13
2.77971e-05
-6.96992e-12
2.77971e-05
-1.3685e-11
2.77971e-05
-2.09368e-11
2.77971e-05
-2.5483e-11
2.77971e-05
-2.94508e-11
2.77971e-05
-2.6796e-11
2.77971e-05
-2.04988e-11
2.77971e-05
-7.93936e-12
2.77971e-05
9.66037e-12
2.77971e-05
1.60245e-11
2.77971e-05
1.40093e-11
2.77971e-05
3.93202e-12
2.77971e-05
-1.13398e-11
2.77971e-05
-2.85204e-11
2.77972e-05
-4.52583e-11
2.77972e-05
-5.96341e-11
2.77972e-05
-7.13948e-11
2.77972e-05
-7.93725e-11
2.77972e-05
-8.44519e-11
2.77973e-05
-8.44208e-11
2.77973e-05
-7.38704e-11
2.77973e-05
-7.56049e-11
2.77973e-05
-3.16309e-11
-1.18452e-11
3.3074e-05
-2.10048e-10
3.30741e-05
-3.1398e-10
3.30741e-05
-2.72594e-10
3.30741e-05
-1.43451e-10
3.30741e-05
9.66764e-12
3.3074e-05
1.46321e-10
3.3074e-05
2.50049e-10
3.30739e-05
3.18662e-10
3.30738e-05
3.5598e-10
3.30737e-05
3.68042e-10
3.30736e-05
3.61165e-10
3.30736e-05
3.40659e-10
3.30735e-05
3.10842e-10
3.30734e-05
2.75454e-10
3.30734e-05
2.37649e-10
3.30733e-05
1.99419e-10
3.30733e-05
1.61476e-10
3.30733e-05
1.24387e-10
3.30732e-05
8.8906e-11
3.30732e-05
5.52407e-11
3.30732e-05
2.32963e-11
3.30732e-05
-6.7696e-12
3.30732e-05
-3.45047e-11
3.30733e-05
-5.93709e-11
3.30733e-05
-8.13668e-11
3.30733e-05
-1.01078e-10
3.30733e-05
-1.19085e-10
3.30734e-05
-1.35694e-10
3.30734e-05
-1.50724e-10
3.30734e-05
-1.63761e-10
3.30735e-05
-1.74917e-10
3.30735e-05
-1.84806e-10
3.30736e-05
-1.93693e-10
3.30736e-05
-2.0126e-10
3.30737e-05
-2.07043e-10
3.30737e-05
-2.11321e-10
3.30738e-05
-2.14582e-10
3.30738e-05
-2.17151e-10
3.30739e-05
-2.1736e-10
3.30739e-05
-2.15375e-10
3.3074e-05
-2.07774e-10
3.3074e-05
-1.97023e-10
3.30741e-05
-1.75894e-10
3.30741e-05
-1.47676e-10
3.30742e-05
-1.1082e-10
3.30742e-05
-6.5123e-11
3.30742e-05
-3.6766e-11
3.30742e-05
-2.1112e-11
3.30742e-05
-1.7123e-11
3.30742e-05
-2.45414e-11
3.30742e-05
-3.26974e-11
3.30742e-05
-4.07059e-11
3.30743e-05
-4.76131e-11
3.30743e-05
-5.2453e-11
3.30743e-05
-5.46006e-11
3.30743e-05
-5.32612e-11
3.30743e-05
-4.79227e-11
3.30743e-05
-3.90747e-11
3.30743e-05
-2.73931e-11
3.30743e-05
-1.29576e-11
3.30743e-05
4.09413e-12
3.30743e-05
2.26848e-11
3.30743e-05
4.13135e-11
3.30743e-05
5.9176e-11
3.30742e-05
7.58224e-11
3.30742e-05
9.05692e-11
3.30742e-05
1.02891e-10
3.30742e-05
1.12607e-10
3.30741e-05
1.20027e-10
3.30741e-05
1.25951e-10
3.30741e-05
1.3051e-10
3.3074e-05
1.32945e-10
3.3074e-05
1.33004e-10
3.3074e-05
1.3119e-10
3.30739e-05
1.28187e-10
3.30739e-05
1.24732e-10
3.30739e-05
1.20965e-10
3.30739e-05
1.16297e-10
3.30738e-05
1.10537e-10
3.30738e-05
1.04048e-10
3.30738e-05
9.71466e-11
3.30737e-05
9.01748e-11
3.30737e-05
8.35405e-11
3.30737e-05
7.73361e-11
3.30737e-05
7.02626e-11
3.30737e-05
6.16226e-11
3.30737e-05
5.0248e-11
3.30736e-05
3.92273e-11
3.30736e-05
3.08825e-11
3.30736e-05
2.50728e-11
3.30736e-05
2.21707e-11
3.30736e-05
1.95105e-11
3.30736e-05
1.63862e-11
3.30736e-05
1.25912e-11
3.30736e-05
7.29581e-12
3.30736e-05
3.10388e-13
3.30736e-05
-8.4165e-12
3.30736e-05
-1.7739e-11
3.30736e-05
-2.77948e-11
3.30736e-05
-3.46934e-11
3.30736e-05
-4.07341e-11
3.30736e-05
-3.86683e-11
3.30737e-05
-3.17873e-11
3.30737e-05
-1.68815e-11
3.30737e-05
4.5311e-12
3.30737e-05
1.3111e-11
3.30737e-05
1.16277e-11
3.30737e-05
1.13521e-13
3.30737e-05
-1.81138e-11
3.30737e-05
-3.90919e-11
3.30737e-05
-5.97894e-11
3.30737e-05
-7.77536e-11
3.30738e-05
-9.26e-11
3.30738e-05
-1.02931e-10
3.30738e-05
-1.0968e-10
3.30738e-05
-1.09945e-10
3.30739e-05
-9.74885e-11
3.30739e-05
-9.97212e-11
3.30739e-05
-3.95456e-11
-4.20836e-11
3.80183e-05
-2.88318e-10
3.80183e-05
-3.75437e-10
3.80184e-05
-3.00677e-10
3.80184e-05
-1.40082e-10
3.80183e-05
3.90517e-11
3.80183e-05
1.96359e-10
3.80182e-05
3.15543e-10
3.80181e-05
3.94526e-10
3.80181e-05
4.37481e-10
3.8018e-05
4.51097e-10
3.80179e-05
4.42417e-10
3.80178e-05
4.17471e-10
3.80178e-05
3.81303e-10
3.80177e-05
3.38345e-10
3.80176e-05
2.92348e-10
3.80176e-05
2.45696e-10
3.80175e-05
1.99265e-10
3.80175e-05
1.53738e-10
3.80175e-05
1.1002e-10
3.80175e-05
6.84431e-11
3.80175e-05
2.89746e-11
3.80175e-05
-8.18918e-12
3.80175e-05
-4.25086e-11
3.80175e-05
-7.33847e-11
3.80175e-05
-1.00883e-10
3.80175e-05
-1.25658e-10
3.80176e-05
-1.48297e-10
3.80176e-05
-1.69143e-10
3.80176e-05
-1.88027e-10
3.80177e-05
-2.04466e-10
3.80177e-05
-2.18591e-10
3.80178e-05
-2.31141e-10
3.80178e-05
-2.42402e-10
3.80179e-05
-2.51987e-10
3.80179e-05
-2.59425e-10
3.8018e-05
-2.65084e-10
3.8018e-05
-2.69494e-10
3.80181e-05
-2.72954e-10
3.80182e-05
-2.73571e-10
3.80182e-05
-2.7153e-10
3.80183e-05
-2.62876e-10
3.80183e-05
-2.50228e-10
3.80184e-05
-2.25286e-10
3.80184e-05
-1.91727e-10
3.80184e-05
-1.47587e-10
3.80185e-05
-9.2561e-11
3.80185e-05
-5.67e-11
3.80185e-05
-3.55827e-11
3.80185e-05
-2.85797e-11
3.80185e-05
-3.54129e-11
3.80185e-05
-4.3796e-11
3.80186e-05
-5.23606e-11
3.80186e-05
-5.9774e-11
3.80186e-05
-6.48082e-11
3.80186e-05
-6.65824e-11
3.80186e-05
-6.4079e-11
3.80186e-05
-5.67219e-11
3.80186e-05
-4.51341e-11
3.80186e-05
-3.0136e-11
3.80186e-05
-1.18625e-11
3.80186e-05
9.44419e-12
3.80186e-05
3.24506e-11
3.80186e-05
5.53893e-11
3.80186e-05
7.73189e-11
3.80185e-05
9.76832e-11
3.80185e-05
1.15689e-10
3.80185e-05
1.30768e-10
3.80185e-05
1.4272e-10
3.80184e-05
1.51886e-10
3.80184e-05
1.59152e-10
3.80184e-05
1.64643e-10
3.80183e-05
1.67537e-10
3.80183e-05
1.67615e-10
3.80183e-05
1.65444e-10
3.80182e-05
1.61804e-10
3.80182e-05
1.57569e-10
3.80182e-05
1.52886e-10
3.80181e-05
1.47073e-10
3.80181e-05
1.39964e-10
3.80181e-05
1.32023e-10
3.8018e-05
1.23604e-10
3.8018e-05
1.15059e-10
3.8018e-05
1.06836e-10
3.8018e-05
9.90304e-11
3.8018e-05
9.01346e-11
3.80179e-05
7.93375e-11
3.80179e-05
6.53818e-11
3.80179e-05
5.18685e-11
3.80179e-05
4.14956e-11
3.80179e-05
3.41504e-11
3.80179e-05
3.02492e-11
3.80179e-05
2.66954e-11
3.80179e-05
2.25586e-11
3.80179e-05
1.74806e-11
3.80179e-05
1.04559e-11
3.80179e-05
1.26931e-12
3.80179e-05
-1.00981e-11
3.80179e-05
-2.23258e-11
3.80179e-05
-3.55006e-11
3.80179e-05
-4.50967e-11
3.80179e-05
-5.35337e-11
3.80179e-05
-5.24076e-11
3.80179e-05
-4.52535e-11
3.80179e-05
-2.82612e-11
3.80179e-05
-3.17784e-12
3.8018e-05
7.81066e-12
3.8018e-05
7.30242e-12
3.8018e-05
-5.08156e-12
3.8018e-05
-2.57111e-11
3.8018e-05
-5.00144e-11
3.8018e-05
-7.43055e-11
3.8018e-05
-9.56305e-11
3.8018e-05
-1.13491e-10
3.80181e-05
-1.26249e-10
3.80181e-05
-1.34817e-10
3.80181e-05
-1.35523e-10
3.80181e-05
-1.21623e-10
3.80182e-05
-1.23972e-10
3.80182e-05
-4.87591e-11
-7.79799e-11
4.26021e-05
-3.51551e-10
4.26021e-05
-4.19185e-10
4.26021e-05
-3.14912e-10
4.26021e-05
-1.27796e-10
4.26021e-05
7.24325e-11
4.2602e-05
2.46017e-10
4.2602e-05
3.7734e-10
4.26019e-05
4.64615e-10
4.26018e-05
5.12252e-10
4.26017e-05
5.27307e-10
4.26017e-05
5.17228e-10
4.26016e-05
4.88542e-10
4.26015e-05
4.46899e-10
4.26015e-05
3.97324e-10
4.26014e-05
3.44059e-10
4.26014e-05
2.898e-10
4.26013e-05
2.35576e-10
4.26013e-05
1.82202e-10
4.26013e-05
1.30723e-10
4.26013e-05
8.16107e-11
4.26013e-05
3.49238e-11
4.26013e-05
-9.08329e-12
4.26013e-05
-4.97833e-11
4.26013e-05
-8.65566e-11
4.26013e-05
-1.19559e-10
4.26013e-05
-1.49464e-10
4.26014e-05
-1.76812e-10
4.26014e-05
-2.01976e-10
4.26014e-05
-2.2479e-10
4.26015e-05
-2.44725e-10
4.26015e-05
-2.61966e-10
4.26016e-05
-2.77355e-10
4.26016e-05
-2.91144e-10
4.26017e-05
-3.02879e-10
4.26017e-05
-3.12143e-10
4.26018e-05
-3.19409e-10
4.26018e-05
-3.25183e-10
4.26019e-05
-3.29713e-10
4.26019e-05
-3.30924e-10
4.2602e-05
-3.29043e-10
4.2602e-05
-3.19594e-10
4.26021e-05
-3.05301e-10
4.26022e-05
-2.76873e-10
4.26022e-05
-2.3835e-10
4.26022e-05
-1.87286e-10
4.26023e-05
-1.23169e-10
4.26023e-05
-7.9707e-11
4.26023e-05
-5.28031e-11
4.26023e-05
-4.22982e-11
4.26023e-05
-4.79458e-11
4.26024e-05
-5.59685e-11
4.26024e-05
-6.45515e-11
4.26024e-05
-7.19977e-11
4.26024e-05
-7.67953e-11
4.26024e-05
-7.77798e-11
4.26024e-05
-7.37227e-11
4.26024e-05
-6.40351e-11
4.26024e-05
-4.95043e-11
4.26024e-05
-3.10844e-11
4.26024e-05
-8.96937e-12
4.26024e-05
1.6481e-11
4.26024e-05
4.36941e-11
4.26024e-05
7.06919e-11
4.26024e-05
9.64301e-11
4.26023e-05
1.20255e-10
4.26023e-05
1.41295e-10
4.26023e-05
1.58974e-10
4.26023e-05
1.73071e-10
4.26022e-05
1.8392e-10
4.26022e-05
1.92465e-10
4.26022e-05
1.98816e-10
4.26021e-05
2.02134e-10
4.26021e-05
2.02256e-10
4.26021e-05
1.99805e-10
4.2602e-05
1.95629e-10
4.2602e-05
1.90704e-10
4.2602e-05
1.85155e-10
4.26019e-05
1.7823e-10
4.26019e-05
1.69837e-10
4.26019e-05
1.60549e-10
4.26018e-05
1.50723e-10
4.26018e-05
1.40687e-10
4.26018e-05
1.30909e-10
4.26018e-05
1.21489e-10
4.26017e-05
1.10736e-10
4.26017e-05
9.77806e-11
4.26017e-05
8.13216e-11
4.26017e-05
6.54161e-11
4.26017e-05
5.30636e-11
4.26017e-05
4.41577e-11
4.26017e-05
3.9165e-11
4.26017e-05
3.45859e-11
4.26017e-05
2.92624e-11
4.26016e-05
2.26763e-11
4.26016e-05
1.36668e-11
4.26016e-05
2.02316e-12
4.26016e-05
-1.22318e-11
4.26017e-05
-2.76218e-11
4.26017e-05
-4.41718e-11
4.26017e-05
-5.67298e-11
4.26017e-05
-6.78045e-11
4.26017e-05
-6.78897e-11
4.26017e-05
-6.07124e-11
4.26017e-05
-4.18464e-11
4.26017e-05
-1.32099e-11
4.26017e-05
3.45414e-13
4.26018e-05
1.20287e-12
4.26018e-05
-1.1498e-11
4.26018e-05
-3.39199e-11
4.26018e-05
-6.09543e-11
4.26018e-05
-8.83278e-11
4.26018e-05
-1.12656e-10
4.26018e-05
-1.33348e-10
4.26019e-05
-1.48505e-10
4.26019e-05
-1.58962e-10
4.26019e-05
-1.60198e-10
4.26019e-05
-1.4538e-10
4.26019e-05
-1.47146e-10
4.2602e-05
-6.0041e-11
-1.11614e-10
4.68671e-05
-3.91952e-10
4.68672e-05
-4.42477e-10
4.68672e-05
-3.15818e-10
4.68671e-05
-1.08516e-10
4.68671e-05
1.07792e-10
4.68671e-05
2.93601e-10
4.6867e-05
4.33948e-10
4.68669e-05
5.27425e-10
4.68669e-05
5.78658e-10
4.68668e-05
5.94876e-10
4.68667e-05
5.83672e-10
4.68667e-05
5.519e-10
4.68666e-05
5.05705e-10
4.68666e-05
4.50579e-10
4.68665e-05
3.9112e-10
4.68665e-05
3.30234e-10
4.68664e-05
2.69102e-10
4.68664e-05
2.08682e-10
4.68664e-05
1.50133e-10
4.68664e-05
9.40679e-11
4.68664e-05
4.06689e-11
4.68664e-05
-9.72721e-12
4.68664e-05
-5.64203e-11
4.68664e-05
-9.88253e-11
4.68664e-05
-1.37195e-10
4.68664e-05
-1.72161e-10
4.68665e-05
-2.04176e-10
4.68665e-05
-2.33619e-10
4.68665e-05
-2.60327e-10
4.68666e-05
-2.83773e-10
4.68666e-05
-3.04227e-10
4.68667e-05
-3.22577e-10
4.68667e-05
-3.38979e-10
4.68668e-05
-3.52945e-10
4.68668e-05
-3.64186e-10
4.68669e-05
-3.73274e-10
4.68669e-05
-3.80618e-10
4.6867e-05
-3.86381e-10
4.6867e-05
-3.88362e-10
4.68671e-05
-3.86857e-10
4.68671e-05
-3.76874e-10
4.68672e-05
-3.61213e-10
4.68673e-05
-3.29654e-10
4.68673e-05
-2.86574e-10
4.68673e-05
-2.28971e-10
4.68674e-05
-1.56065e-10
4.68674e-05
-1.05076e-10
4.68674e-05
-7.22703e-11
4.68674e-05
-5.79577e-11
4.68675e-05
-6.19499e-11
4.68675e-05
-6.90794e-11
4.68675e-05
-7.71342e-11
4.68675e-05
-8.40803e-11
4.68675e-05
-8.81146e-11
4.68675e-05
-8.77881e-11
4.68675e-05
-8.1703e-11
4.68675e-05
-6.93299e-11
4.68675e-05
-5.16496e-11
4.68675e-05
-2.97403e-11
4.68675e-05
-3.85612e-12
4.68675e-05
2.552e-11
4.68675e-05
5.66156e-11
4.68675e-05
8.73036e-11
4.68675e-05
1.16469e-10
4.68674e-05
1.43375e-10
4.68674e-05
1.67114e-10
4.68674e-05
1.87143e-10
4.68674e-05
2.03206e-10
4.68673e-05
2.15597e-10
4.68673e-05
2.25277e-10
4.68673e-05
2.32355e-10
4.68672e-05
2.36017e-10
4.68672e-05
2.36187e-10
4.68672e-05
2.33526e-10
4.68671e-05
2.28922e-10
4.68671e-05
2.23409e-10
4.68671e-05
2.17056e-10
4.6867e-05
2.09065e-10
4.6867e-05
1.99475e-10
4.6867e-05
1.88972e-10
4.68669e-05
1.77878e-10
4.68669e-05
1.66468e-10
4.68669e-05
1.55213e-10
4.68669e-05
1.44197e-10
4.68668e-05
1.31589e-10
4.68668e-05
1.16532e-10
4.68668e-05
9.77114e-11
4.68668e-05
7.95736e-11
4.68668e-05
6.53361e-11
4.68668e-05
5.48752e-11
4.68668e-05
4.87127e-11
4.68668e-05
4.29734e-11
4.68667e-05
3.62756e-11
4.68667e-05
2.79389e-11
4.68667e-05
1.66761e-11
4.68667e-05
2.31326e-12
4.68667e-05
-1.50748e-11
4.68668e-05
-3.38699e-11
4.68668e-05
-5.40177e-11
4.68668e-05
-6.97475e-11
4.68668e-05
-8.3642e-11
4.68668e-05
-8.51351e-11
4.68668e-05
-7.81071e-11
4.68668e-05
-5.75011e-11
4.68669e-05
-2.53698e-11
4.68669e-05
-9.10678e-12
4.68669e-05
-6.56272e-12
4.68669e-05
-1.90904e-11
4.68669e-05
-4.27036e-11
4.68669e-05
-7.18284e-11
4.68669e-05
-1.01707e-10
4.68669e-05
-1.28615e-10
4.68669e-05
-1.51881e-10
4.6867e-05
-1.69314e-10
4.6867e-05
-1.8164e-10
4.6867e-05
-1.83419e-10
4.6867e-05
-1.68186e-10
4.68671e-05
-1.68506e-10
4.68671e-05
-7.34185e-11
-1.38109e-10
5.08764e-05
-4.08281e-10
5.08764e-05
-4.4468e-10
5.08764e-05
-3.03261e-10
5.08763e-05
-8.26506e-11
5.08763e-05
1.44581e-10
5.08762e-05
3.38771e-10
5.08762e-05
4.85248e-10
5.08761e-05
5.82904e-10
5.08761e-05