/*--------------------------------*- C++ -*----------------------------------*\
  =========                 |
  \\      /  F ield         | OpenFOAM: The Open Source CFD Toolbox
   \\    /   O peration     | Website:  https://openfoam.org
    \\  /    A nd           | Version:  7
     \\/     M anipulation  |
\*---------------------------------------------------------------------------*/
FoamFile
{
    version     2.0;
    format      ascii;
    class       volScalarField;
    location    "1000";
    object      k;
}
// * * * * * * * * * * * * * * * * * * * * * * * * * * * * * * * * * * * * * //

dimensions      [0 2 -2 0 0 0 0];

internalField   nonuniform List<scalar> 
3963
(
5.08826e-05
5.08851e-05
5.08859e-05
5.08864e-05
5.08867e-05
5.08871e-05
5.08875e-05
5.08878e-05
5.08882e-05
5.08885e-05
5.08888e-05
5.08891e-05
5.08894e-05
5.08897e-05
5.08899e-05
5.08902e-05
5.08904e-05
5.08906e-05
5.08908e-05
5.0891e-05
5.08913e-05
5.08673e-05
5.08681e-05
5.08684e-05
5.08689e-05
5.08694e-05
5.087e-05
5.08705e-05
5.08709e-05
5.08714e-05
5.08718e-05
5.08722e-05
5.08726e-05
5.08729e-05
5.08732e-05
5.08736e-05
5.08731e-05
5.08472e-05
5.08494e-05
5.08502e-05
5.08507e-05
5.08511e-05
5.08514e-05
5.08518e-05
5.08521e-05
5.08524e-05
5.08527e-05
5.0853e-05
5.08533e-05
5.08536e-05
5.08538e-05
5.08541e-05
5.08543e-05
5.08546e-05
5.08548e-05
5.0855e-05
5.08552e-05
5.0855e-05
5.08609e-05
5.08631e-05
5.08396e-05
5.084e-05
5.08401e-05
5.08402e-05
5.08383e-05
5.08376e-05
5.08373e-05
5.08373e-05
5.08375e-05
5.08377e-05
5.08379e-05
5.08382e-05
5.08384e-05
5.08387e-05
5.08389e-05
5.08392e-05
5.08394e-05
5.08396e-05
5.08399e-05
5.08394e-05
5.08506e-05
5.08524e-05
5.08531e-05
5.08536e-05
5.0854e-05
5.08543e-05
5.08546e-05
5.0855e-05
5.08553e-05
5.08555e-05
5.08558e-05
5.08561e-05
5.08564e-05
5.08566e-05
5.08569e-05
5.08571e-05
5.08573e-05
5.08575e-05
5.08577e-05
5.0858e-05
5.08578e-05
5.08603e-05
5.08621e-05
5.08681e-05
5.08701e-05
5.08703e-05
5.08701e-05
5.08698e-05
5.08695e-05
5.08693e-05
5.0869e-05
5.08687e-05
5.08684e-05
5.08681e-05
5.08678e-05
5.08675e-05
5.08672e-05
5.08669e-05
5.08666e-05
5.08663e-05
5.08661e-05
5.08658e-05
5.08655e-05
5.08652e-05
5.08649e-05
5.08646e-05
5.08642e-05
5.08639e-05
5.08636e-05
5.08633e-05
5.0863e-05
5.08627e-05
5.08623e-05
5.0862e-05
5.08617e-05
5.08613e-05
5.0861e-05
5.08607e-05
5.08603e-05
5.086e-05
5.08597e-05
5.08593e-05
5.0859e-05
5.08586e-05
5.08583e-05
5.0858e-05
5.08576e-05
5.08573e-05
5.08569e-05
5.08566e-05
5.08563e-05
5.0856e-05
5.08557e-05
5.08553e-05
5.0855e-05
5.08547e-05
5.08544e-05
5.08542e-05
5.08539e-05
5.08536e-05
5.08533e-05
5.08531e-05
5.08528e-05
5.08526e-05
5.08523e-05
5.08521e-05
5.08519e-05
5.08517e-05
5.08515e-05
5.08513e-05
5.08511e-05
5.0851e-05
5.08508e-05
5.08506e-05
5.08505e-05
5.08503e-05
5.08502e-05
5.08501e-05
5.085e-05
5.08498e-05
5.08481e-05
5.08473e-05
5.0847e-05
5.08469e-05
5.0846e-05
5.08451e-05
5.08446e-05
5.08443e-05
5.08441e-05
5.08441e-05
5.08441e-05
5.08441e-05
5.08442e-05
5.08443e-05
5.08444e-05
5.08445e-05
5.08447e-05
5.08447e-05
5.08449e-05
5.08444e-05
5.08996e-05
5.0901e-05
5.09016e-05
5.0902e-05
5.09024e-05
5.09027e-05
5.0903e-05
5.09033e-05
5.09036e-05
5.09039e-05
5.09041e-05
5.09044e-05
5.09047e-05
5.09049e-05
5.09052e-05
5.09054e-05
5.09056e-05
5.09059e-05
5.09061e-05
5.09063e-05
5.09063e-05
5.09073e-05
5.09084e-05
5.09115e-05
5.09139e-05
5.09153e-05
5.09159e-05
5.09162e-05
5.09163e-05
5.09164e-05
5.09164e-05
5.09163e-05
5.09163e-05
5.09161e-05
5.0916e-05
5.09159e-05
5.09157e-05
5.09156e-05
5.09154e-05
5.09152e-05
5.0915e-05
5.09148e-05
5.09146e-05
5.09144e-05
5.09142e-05
5.0914e-05
5.09137e-05
5.09135e-05
5.09133e-05
5.0913e-05
5.09128e-05
5.09125e-05
5.09122e-05
5.0912e-05
5.09117e-05
5.09114e-05
5.09111e-05
5.09108e-05
5.09105e-05
5.09102e-05
5.091e-05
5.09097e-05
5.09094e-05
5.09091e-05
5.09087e-05
5.09084e-05
5.09081e-05
5.09078e-05
5.09075e-05
5.09072e-05
5.09069e-05
5.09066e-05
5.09064e-05
5.09061e-05
5.09058e-05
5.09055e-05
5.09052e-05
5.0905e-05
5.09047e-05
5.09044e-05
5.09042e-05
5.09039e-05
5.09037e-05
5.09035e-05
5.09033e-05
5.0903e-05
5.09028e-05
5.09026e-05
5.09025e-05
5.09023e-05
5.09021e-05
5.09019e-05
5.09018e-05
5.09016e-05
5.09015e-05
5.09013e-05
5.09012e-05
5.09011e-05
5.0901e-05
5.09009e-05
5.09001e-05
5.08994e-05
5.08988e-05
5.08986e-05
5.0898e-05
5.08974e-05
5.08968e-05
5.08964e-05
5.08961e-05
5.08958e-05
5.08957e-05
5.08956e-05
5.08955e-05
5.08955e-05
5.08955e-05
5.08955e-05
5.08955e-05
5.08955e-05
5.08956e-05
5.0895e-05
5.10017e-05
5.10026e-05
5.10031e-05
5.10034e-05
5.10038e-05
5.10041e-05
5.10044e-05
5.10047e-05
5.1005e-05
5.10052e-05
5.10055e-05
5.10058e-05
5.1006e-05
5.10063e-05
5.10065e-05
5.10068e-05
5.1007e-05
5.10072e-05
5.10074e-05
5.10077e-05
5.10078e-05
5.10082e-05
5.10088e-05
5.10104e-05
5.10122e-05
5.10137e-05
5.10147e-05
5.10154e-05
5.10159e-05
5.10162e-05
5.10165e-05
5.10166e-05
5.10167e-05
5.10168e-05
5.10168e-05
5.10168e-05
5.10168e-05
5.10168e-05
5.10167e-05
5.10167e-05
5.10166e-05
5.10165e-05
5.10164e-05
5.10162e-05
5.10161e-05
5.1016e-05
5.10158e-05
5.10156e-05
5.10155e-05
5.10153e-05
5.10151e-05
5.10149e-05
5.10147e-05
5.10145e-05
5.10143e-05
5.1014e-05
5.10138e-05
5.10136e-05
5.10133e-05
5.10131e-05
5.10128e-05
5.10126e-05
5.10123e-05
5.1012e-05
5.10118e-05
5.10115e-05
5.10112e-05
5.1011e-05
5.10107e-05
5.10104e-05
5.10102e-05
5.10099e-05
5.10096e-05
5.10094e-05
5.10091e-05
5.10089e-05
5.10086e-05
5.10084e-05
5.10081e-05
5.10079e-05
5.10076e-05
5.10074e-05
5.10072e-05
5.1007e-05
5.10068e-05
5.10066e-05
5.10064e-05
5.10062e-05
5.1006e-05
5.10058e-05
5.10056e-05
5.10055e-05
5.10053e-05
5.10052e-05
5.1005e-05
5.10049e-05
5.10048e-05
5.10047e-05
5.10045e-05
5.10045e-05
5.10041e-05
5.10036e-05
5.10032e-05
5.10028e-05
5.10025e-05
5.1002e-05
5.10015e-05
5.10011e-05
5.10007e-05
5.10004e-05
5.10001e-05
5.09999e-05
5.09997e-05
5.09996e-05
5.09995e-05
5.09994e-05
5.09993e-05
5.09992e-05
5.09992e-05
5.09987e-05
5.11649e-05
5.11654e-05
5.11657e-05
5.11661e-05
5.11664e-05
5.11667e-05
5.1167e-05
5.11673e-05
5.11676e-05
5.11679e-05
5.11681e-05
5.11684e-05
5.11687e-05
5.11689e-05
5.11692e-05
5.11694e-05
5.11697e-05
5.11699e-05
5.11701e-05
5.11704e-05
5.11705e-05
5.11708e-05
5.11712e-05
5.1172e-05
5.11731e-05
5.11743e-05
5.11754e-05
5.11762e-05
5.11768e-05
5.11774e-05
5.11778e-05
5.11781e-05
5.11784e-05
5.11786e-05
5.11787e-05
5.11789e-05
5.1179e-05
5.11791e-05
5.11791e-05
5.11791e-05
5.11792e-05
5.11791e-05
5.11791e-05
5.11791e-05
5.1179e-05
5.1179e-05
5.11789e-05
5.11788e-05
5.11787e-05
5.11785e-05
5.11784e-05
5.11783e-05
5.11781e-05
5.1178e-05
5.11778e-05
5.11776e-05
5.11774e-05
5.11772e-05
5.1177e-05
5.11768e-05
5.11766e-05
5.11764e-05
5.11762e-05
5.1176e-05
5.11758e-05
5.11755e-05
5.11753e-05
5.11751e-05
5.11748e-05
5.11746e-05
5.11743e-05
5.11741e-05
5.11739e-05
5.11736e-05
5.11734e-05
5.11732e-05
5.11729e-05
5.11727e-05
5.11725e-05
5.11723e-05
5.1172e-05
5.11718e-05
5.11716e-05
5.11714e-05
5.11712e-05
5.1171e-05
5.11708e-05
5.11707e-05
5.11705e-05
5.11703e-05
5.11702e-05
5.117e-05
5.11699e-05
5.11697e-05
5.11696e-05
5.11695e-05
5.11693e-05
5.11692e-05
5.11691e-05
5.1169e-05
5.11688e-05
5.11686e-05
5.11682e-05
5.11679e-05
5.11676e-05
5.11673e-05
5.11669e-05
5.11665e-05
5.11662e-05
5.11658e-05
5.11655e-05
5.11653e-05
5.11651e-05
5.11649e-05
5.11647e-05
5.11645e-05
5.11644e-05
5.11642e-05
5.11641e-05
5.11638e-05
5.13982e-05
5.13983e-05
5.13985e-05
5.13988e-05
5.13991e-05
5.13994e-05
5.13997e-05
5.14001e-05
5.14004e-05
5.14006e-05
5.14009e-05
5.14012e-05
5.14015e-05
5.14017e-05
5.1402e-05
5.14023e-05
5.14026e-05
5.14028e-05
5.14031e-05
5.14033e-05
5.14035e-05
5.14037e-05
5.1404e-05
5.14045e-05
5.14052e-05
5.1406e-05
5.14069e-05
5.14077e-05
5.14083e-05
5.14089e-05
5.14094e-05
5.14099e-05
5.14102e-05
5.14106e-05
5.14108e-05
5.14111e-05
5.14113e-05
5.14114e-05
5.14116e-05
5.14117e-05
5.14118e-05
5.14119e-05
5.14119e-05
5.14119e-05
5.1412e-05
5.1412e-05
5.14119e-05
5.14119e-05
5.14119e-05
5.14118e-05
5.14117e-05
5.14116e-05
5.14115e-05
5.14114e-05
5.14113e-05
5.14112e-05
5.14111e-05
5.14109e-05
5.14108e-05
5.14106e-05
5.14104e-05
5.14103e-05
5.14101e-05
5.14099e-05
5.14097e-05
5.14095e-05
5.14093e-05
5.14091e-05
5.14089e-05
5.14087e-05
5.14085e-05
5.14083e-05
5.14081e-05
5.14078e-05
5.14076e-05
5.14074e-05
5.14072e-05
5.1407e-05
5.14068e-05
5.14066e-05
5.14064e-05
5.14062e-05
5.1406e-05
5.14058e-05
5.14056e-05
5.14055e-05
5.14053e-05
5.14051e-05
5.1405e-05
5.14048e-05
5.14047e-05
5.14045e-05
5.14044e-05
5.14042e-05
5.14041e-05
5.1404e-05
5.14039e-05
5.14037e-05
5.14036e-05
5.14035e-05
5.14034e-05
5.14032e-05
5.1403e-05
5.14028e-05
5.14026e-05
5.14023e-05
5.1402e-05
5.14017e-05
5.14014e-05
5.14011e-05
5.14008e-05
5.14006e-05
5.14003e-05
5.14001e-05
5.13999e-05
5.13997e-05
5.13995e-05
5.13994e-05
5.13992e-05
5.1399e-05
5.17112e-05
5.17108e-05
5.17109e-05
5.17112e-05
5.17115e-05
5.17119e-05
5.17122e-05
5.17125e-05
5.17128e-05
5.17132e-05
5.17135e-05
5.17138e-05
5.17141e-05
5.17144e-05
5.17147e-05
5.1715e-05
5.17153e-05
5.17155e-05
5.17158e-05
5.17161e-05
5.17163e-05
5.17166e-05
5.17168e-05
5.17171e-05
5.17176e-05
5.17182e-05
5.17188e-05
5.17195e-05
5.17201e-05
5.17207e-05
5.17212e-05
5.17217e-05
5.17221e-05
5.17225e-05
5.17228e-05
5.17232e-05
5.17234e-05
5.17237e-05
5.17239e-05
5.17241e-05
5.17242e-05
5.17243e-05
5.17245e-05
5.17246e-05
5.17246e-05
5.17247e-05
5.17247e-05
5.17248e-05
5.17248e-05
5.17247e-05
5.17247e-05
5.17247e-05
5.17246e-05
5.17246e-05
5.17245e-05
5.17244e-05
5.17243e-05
5.17242e-05
5.17241e-05
5.1724e-05
5.17238e-05
5.17237e-05
5.17236e-05
5.17234e-05
5.17233e-05
5.17231e-05
5.17229e-05
5.17228e-05
5.17226e-05
5.17224e-05
5.17222e-05
5.1722e-05
5.17219e-05
5.17217e-05
5.17215e-05
5.17213e-05
5.17211e-05
5.17209e-05
5.17207e-05
5.17206e-05
5.17204e-05
5.17202e-05
5.172e-05
5.17198e-05
5.17197e-05
5.17195e-05
5.17194e-05
5.17192e-05
5.1719e-05
5.17189e-05
5.17188e-05
5.17186e-05
5.17185e-05
5.17184e-05
5.17182e-05
5.17181e-05
5.1718e-05
5.17179e-05
5.17178e-05
5.17177e-05
5.17176e-05
5.17175e-05
5.17173e-05
5.17172e-05
5.1717e-05
5.17168e-05
5.17166e-05
5.17164e-05
5.17161e-05
5.17159e-05
5.17156e-05
5.17154e-05
5.17152e-05
5.17149e-05
5.17147e-05
5.17145e-05
5.17143e-05
5.17141e-05
5.17139e-05
5.17139e-05
5.21139e-05
5.21131e-05
5.21132e-05
5.21134e-05
5.21138e-05
5.21141e-05
5.21145e-05
5.21149e-05
5.21152e-05
5.21156e-05
5.21159e-05
5.21162e-05
5.21166e-05
5.21169e-05
5.21173e-05
5.21176e-05
5.21179e-05
5.21182e-05
5.21186e-05
5.21188e-05
5.21191e-05
5.21194e-05
5.21197e-05
5.212e-05
5.21203e-05
5.21207e-05
5.21212e-05
5.21217e-05
5.21223e-05
5.21228e-05
5.21233e-05
5.21238e-05
5.21242e-05
5.21247e-05
5.2125e-05
5.21254e-05
5.21257e-05
5.2126e-05
5.21262e-05
5.21265e-05
5.21267e-05
5.21269e-05
5.2127e-05
5.21272e-05
5.21273e-05
5.21274e-05
5.21275e-05
5.21275e-05
5.21276e-05
5.21276e-05
5.21276e-05
5.21276e-05
5.21276e-05
5.21276e-05
5.21276e-05
5.21275e-05
5.21275e-05
5.21274e-05
5.21273e-05
5.21272e-05
5.21271e-05
5.2127e-05
5.21269e-05
5.21268e-05
5.21267e-05
5.21265e-05
5.21264e-05
5.21263e-05
5.21261e-05
5.2126e-05
5.21258e-05
5.21257e-05
5.21255e-05
5.21253e-05
5.21252e-05
5.2125e-05
5.21248e-05
5.21247e-05
5.21245e-05
5.21244e-05
5.21242e-05
5.2124e-05
5.21239e-05
5.21237e-05
5.21236e-05
5.21234e-05
5.21233e-05
5.21231e-05
5.2123e-05
5.21228e-05
5.21227e-05
5.21226e-05
5.21224e-05
5.21223e-05
5.21222e-05
5.21221e-05
5.2122e-05
5.21219e-05
5.21218e-05
5.21217e-05
5.21216e-05
5.21215e-05
5.21214e-05
5.21213e-05
5.21211e-05
5.2121e-05
5.21209e-05
5.21207e-05
5.21205e-05
5.21203e-05
5.21201e-05
5.21199e-05
5.21197e-05
5.21195e-05
5.21193e-05
5.21192e-05
5.2119e-05
5.21188e-05
5.21185e-05
5.21188e-05
5.26171e-05
5.26158e-05
5.26158e-05
5.26162e-05
5.26165e-05
5.26169e-05
5.26174e-05
5.26178e-05
5.26182e-05
5.26186e-05
5.2619e-05
5.26193e-05
5.26197e-05
5.26201e-05
5.26205e-05
5.26209e-05
5.26212e-05
5.26216e-05
5.2622e-05
5.26223e-05
5.26226e-05
5.26229e-05
5.26232e-05
5.26235e-05
5.26239e-05
5.26242e-05
5.26246e-05
5.26251e-05
5.26255e-05
5.2626e-05
5.26264e-05
5.26269e-05
5.26273e-05
5.26277e-05
5.26281e-05
5.26285e-05
5.26288e-05
5.26291e-05
5.26294e-05
5.26297e-05
5.26299e-05
5.26301e-05
5.26303e-05
5.26305e-05
5.26307e-05
5.26308e-05
5.26309e-05
5.2631e-05
5.26311e-05
5.26312e-05
5.26312e-05
5.26312e-05
5.26313e-05
5.26313e-05
5.26313e-05
5.26312e-05
5.26312e-05
5.26312e-05
5.26311e-05
5.26311e-05
5.2631e-05
5.26309e-05
5.26308e-05
5.26308e-05
5.26307e-05
5.26306e-05
5.26304e-05
5.26303e-05
5.26302e-05
5.26301e-05
5.263e-05
5.26298e-05
5.26297e-05
5.26296e-05
5.26294e-05
5.26293e-05
5.26291e-05
5.2629e-05
5.26288e-05
5.26287e-05
5.26286e-05
5.26284e-05
5.26283e-05
5.26281e-05
5.2628e-05
5.26278e-05
5.26277e-05
5.26276e-05
5.26274e-05
5.26273e-05
5.26272e-05
5.26271e-05
5.26269e-05
5.26268e-05
5.26267e-05
5.26266e-05
5.26265e-05
5.26264e-05
5.26263e-05
5.26262e-05
5.26261e-05
5.2626e-05
5.2626e-05
5.26259e-05
5.26258e-05
5.26257e-05
5.26256e-05
5.26255e-05
5.26253e-05
5.26252e-05
5.26251e-05
5.26249e-05
5.26247e-05
5.26246e-05
5.26244e-05
5.26243e-05
5.26241e-05
5.26239e-05
5.26236e-05
5.26242e-05
5.32318e-05
5.323e-05
5.323e-05
5.32303e-05
5.32308e-05
5.32313e-05
5.32317e-05
5.32322e-05
5.32327e-05
5.32331e-05
5.32336e-05
5.3234e-05
5.32345e-05
5.32349e-05
5.32353e-05
5.32358e-05
5.32362e-05
5.32366e-05
5.3237e-05
5.32374e-05
5.32378e-05
5.32381e-05
5.32385e-05
5.32388e-05
5.32392e-05
5.32395e-05
5.32399e-05
5.32403e-05
5.32407e-05
5.32411e-05
5.32415e-05
5.32419e-05
5.32423e-05
5.32427e-05
5.32431e-05
5.32435e-05
5.32438e-05
5.32441e-05
5.32444e-05
5.32447e-05
5.3245e-05
5.32452e-05
5.32454e-05
5.32456e-05
5.32458e-05
5.3246e-05
5.32461e-05
5.32462e-05
5.32463e-05
5.32464e-05
5.32465e-05
5.32465e-05
5.32466e-05
5.32466e-05
5.32466e-05
5.32466e-05
5.32466e-05
5.32466e-05
5.32466e-05
5.32465e-05
5.32465e-05
5.32464e-05
5.32464e-05
5.32463e-05
5.32463e-05
5.32462e-05
5.32461e-05
5.3246e-05
5.32459e-05
5.32458e-05
5.32457e-05
5.32456e-05
5.32455e-05
5.32454e-05
5.32452e-05
5.32451e-05
5.3245e-05
5.32449e-05
5.32448e-05
5.32446e-05
5.32445e-05
5.32444e-05
5.32442e-05
5.32441e-05
5.3244e-05
5.32439e-05
5.32437e-05
5.32436e-05
5.32435e-05
5.32434e-05
5.32433e-05
5.32432e-05
5.3243e-05
5.32429e-05
5.32428e-05
5.32427e-05
5.32426e-05
5.32425e-05
5.32424e-05
5.32424e-05
5.32423e-05
5.32422e-05
5.32421e-05
5.32421e-05
5.3242e-05
5.32419e-05
5.32418e-05
5.32417e-05
5.32417e-05
5.32416e-05
5.32415e-05
5.32414e-05
5.32412e-05
5.32411e-05
5.3241e-05
5.32409e-05
5.32407e-05
5.32406e-05
5.32402e-05
5.32413e-05
5.39691e-05
5.39668e-05
5.39668e-05
5.39672e-05
5.39677e-05
5.39683e-05
5.39688e-05
5.39694e-05
5.39699e-05
5.39704e-05
5.39709e-05
5.39714e-05
5.39719e-05
5.39724e-05
5.3973e-05
5.39735e-05
5.39739e-05
5.39744e-05
5.39749e-05
5.39753e-05
5.39757e-05
5.39762e-05
5.39766e-05
5.3977e-05
5.39773e-05
5.39777e-05
5.39781e-05
5.39785e-05
5.39788e-05
5.39792e-05
5.39796e-05
5.398e-05
5.39804e-05
5.39808e-05
5.39811e-05
5.39815e-05
5.39818e-05
5.39822e-05
5.39825e-05
5.39827e-05
5.3983e-05
5.39832e-05
5.39834e-05
5.39837e-05
5.39838e-05
5.3984e-05
5.39841e-05
5.39843e-05
5.39844e-05
5.39845e-05
5.39846e-05
5.39846e-05
5.39847e-05
5.39847e-05
5.39848e-05
5.39848e-05
5.39848e-05
5.39848e-05
5.39848e-05
5.39848e-05
5.39847e-05
5.39847e-05
5.39847e-05
5.39846e-05
5.39846e-05
5.39845e-05
5.39845e-05
5.39844e-05
5.39843e-05
5.39843e-05
5.39842e-05
5.39841e-05
5.3984e-05
5.39839e-05
5.39838e-05
5.39837e-05
5.39836e-05
5.39835e-05
5.39834e-05
5.39833e-05
5.39832e-05
5.39831e-05
5.39829e-05
5.39828e-05
5.39827e-05
5.39826e-05
5.39825e-05
5.39824e-05
5.39823e-05
5.39822e-05
5.39821e-05
5.3982e-05
5.39819e-05
5.39818e-05
5.39817e-05
5.39816e-05
5.39815e-05
5.39814e-05
5.39813e-05
5.39812e-05
5.39812e-05
5.39811e-05
5.3981e-05
5.3981e-05
5.39809e-05
5.39808e-05
5.39808e-05
5.39807e-05
5.39807e-05
5.39806e-05
5.39805e-05
5.39805e-05
5.39804e-05
5.39803e-05
5.39802e-05
5.39801e-05
5.398e-05
5.398e-05
5.39795e-05
5.3981e-05
5.48401e-05
5.48373e-05
5.48372e-05
5.48377e-05
5.48383e-05
5.48389e-05
5.48396e-05
5.48402e-05
5.48408e-05
5.48414e-05
5.4842e-05
5.48426e-05
5.48432e-05
5.48438e-05
5.48443e-05
5.48449e-05
5.48455e-05
5.4846e-05
5.48465e-05
5.4847e-05
5.48475e-05
5.4848e-05
5.48484e-05
5.48489e-05
5.48493e-05
5.48497e-05
5.48501e-05
5.48505e-05
5.48509e-05
5.48513e-05
5.48517e-05
5.4852e-05
5.48524e-05
5.48528e-05
5.48531e-05
5.48535e-05
5.48538e-05
5.48541e-05
5.48544e-05
5.48547e-05
5.48549e-05
5.48552e-05
5.48554e-05
5.48556e-05
5.48558e-05
5.48559e-05
5.48561e-05
5.48562e-05
5.48563e-05
5.48564e-05
5.48565e-05
5.48566e-05
5.48566e-05
5.48567e-05
5.48567e-05
5.48567e-05
5.48568e-05
5.48568e-05
5.48568e-05
5.48568e-05
5.48568e-05
5.48568e-05
5.48568e-05
5.48567e-05
5.48567e-05
5.48567e-05
5.48566e-05
5.48566e-05
5.48565e-05
5.48565e-05
5.48564e-05
5.48563e-05
5.48563e-05
5.48562e-05
5.48561e-05
5.4856e-05
5.4856e-05
5.48559e-05
5.48558e-05
5.48557e-05
5.48556e-05
5.48555e-05
5.48554e-05
5.48553e-05
5.48552e-05
5.48551e-05
5.4855e-05
5.48549e-05
5.48548e-05
5.48547e-05
5.48546e-05
5.48545e-05
5.48545e-05
5.48544e-05
5.48543e-05
5.48542e-05
5.48541e-05
5.4854e-05
5.4854e-05
5.48539e-05
5.48538e-05
5.48537e-05
5.48537e-05
5.48536e-05
5.48536e-05
5.48535e-05
5.48535e-05
5.48534e-05
5.48534e-05
5.48534e-05
5.48533e-05
5.48533e-05
5.48532e-05
5.48532e-05
5.48532e-05
5.48531e-05
5.4853e-05
5.4853e-05
5.48526e-05
5.48545e-05
5.58554e-05
5.58521e-05
5.58519e-05
5.58525e-05
5.58532e-05
5.58539e-05
5.58547e-05
5.58554e-05
5.58561e-05
5.58568e-05
5.58575e-05
5.58581e-05
5.58588e-05
5.58594e-05
5.58601e-05
5.58607e-05
5.58614e-05
5.5862e-05
5.58625e-05
5.58631e-05
5.58636e-05
5.58642e-05
5.58647e-05
5.58652e-05
5.58657e-05
5.58661e-05
5.58666e-05
5.5867e-05
5.58674e-05
5.58678e-05
5.58682e-05
5.58686e-05
5.5869e-05
5.58693e-05
5.58697e-05
5.587e-05
5.58703e-05
5.58706e-05
5.58709e-05
5.58712e-05
5.58714e-05
5.58716e-05
5.58718e-05
5.5872e-05
5.58722e-05
5.58723e-05
5.58724e-05
5.58726e-05
5.58727e-05
5.58728e-05
5.58728e-05
5.58729e-05
5.5873e-05
5.5873e-05
5.58731e-05
5.58731e-05
5.58731e-05
5.58732e-05
5.58732e-05
5.58732e-05
5.58732e-05
5.58732e-05
5.58732e-05
5.58732e-05
5.58732e-05
5.58731e-05
5.58731e-05
5.58731e-05
5.58731e-05
5.5873e-05
5.5873e-05
5.58729e-05
5.58729e-05
5.58728e-05
5.58728e-05
5.58727e-05
5.58726e-05
5.58726e-05
5.58725e-05
5.58724e-05
5.58724e-05
5.58723e-05
5.58722e-05
5.58721e-05
5.5872e-05
5.58719e-05
5.58719e-05
5.58718e-05
5.58717e-05
5.58716e-05
5.58715e-05
5.58715e-05
5.58714e-05
5.58713e-05
5.58712e-05
5.58711e-05
5.58711e-05
5.5871e-05
5.58709e-05
5.58709e-05
5.58708e-05
5.58707e-05
5.58707e-05
5.58706e-05
5.58706e-05
5.58705e-05
5.58705e-05
5.58705e-05
5.58705e-05
5.58704e-05
5.58704e-05
5.58704e-05
5.58704e-05
5.58704e-05
5.58704e-05
5.58704e-05
5.58704e-05
5.58704e-05
5.58699e-05
5.58723e-05
5.70248e-05
5.7021e-05
5.70208e-05
5.70215e-05
5.70223e-05
5.70231e-05
5.70239e-05
5.70248e-05
5.70256e-05
5.70264e-05
5.70271e-05
5.70279e-05
5.70286e-05
5.70293e-05
5.70301e-05
5.70308e-05
5.70315e-05
5.70322e-05
5.70328e-05
5.70334e-05
5.7034e-05
5.70346e-05
5.70352e-05
5.70357e-05
5.70363e-05
5.70368e-05
5.70373e-05
5.70378e-05
5.70382e-05
5.70386e-05
5.7039e-05
5.70394e-05
5.70398e-05
5.70402e-05
5.70405e-05
5.70409e-05
5.70412e-05
5.70414e-05
5.70417e-05
5.70419e-05
5.70421e-05
5.70423e-05
5.70425e-05
5.70427e-05
5.70428e-05
5.70429e-05
5.70431e-05
5.70432e-05
5.70433e-05
5.70433e-05
5.70434e-05
5.70435e-05
5.70435e-05
5.70436e-05
5.70436e-05
5.70437e-05
5.70437e-05
5.70437e-05
5.70437e-05
5.70438e-05
5.70438e-05
5.70438e-05
5.70438e-05
5.70438e-05
5.70438e-05
5.70438e-05
5.70438e-05
5.70438e-05
5.70438e-05
5.70438e-05
5.70437e-05
5.70437e-05
5.70437e-05
5.70436e-05
5.70436e-05
5.70436e-05
5.70435e-05
5.70435e-05
5.70434e-05
5.70434e-05
5.70433e-05
5.70432e-05
5.70432e-05
5.70431e-05
5.7043e-05
5.7043e-05
5.70429e-05
5.70428e-05
5.70427e-05
5.70427e-05
5.70426e-05
5.70425e-05
5.70425e-05
5.70424e-05
5.70423e-05
5.70423e-05
5.70422e-05
5.70422e-05
5.70421e-05
5.7042e-05
5.7042e-05
5.70419e-05
5.70419e-05
5.70418e-05
5.70418e-05
5.70418e-05
5.70417e-05
5.70417e-05
5.70417e-05
5.70417e-05
5.70417e-05
5.70417e-05
5.70418e-05
5.70418e-05
5.70418e-05
5.70419e-05
5.70419e-05
5.7042e-05
5.70414e-05
5.70443e-05
5.83573e-05
5.8353e-05
5.83527e-05
5.83534e-05
5.83543e-05
5.83553e-05
5.83562e-05
5.83572e-05
5.83581e-05
5.8359e-05
5.83598e-05
5.83606e-05
5.83614e-05
5.83622e-05
5.8363e-05
5.83638e-05
5.83646e-05
5.83654e-05
5.83661e-05
5.83668e-05
5.83674e-05
5.83681e-05
5.83687e-05
5.83693e-05
5.83699e-05
5.83704e-05
5.8371e-05
5.83715e-05
5.8372e-05
5.83724e-05
5.83729e-05
5.83733e-05
5.83737e-05
5.8374e-05
5.83744e-05
5.83747e-05
5.8375e-05
5.83752e-05
5.83755e-05
5.83757e-05
5.83759e-05
5.8376e-05
5.83762e-05
5.83763e-05
5.83764e-05
5.83765e-05
5.83766e-05
5.83767e-05
5.83768e-05
5.83769e-05
5.83769e-05
5.8377e-05
5.8377e-05
5.83771e-05
5.83771e-05
5.83771e-05
5.83772e-05
5.83772e-05
5.83772e-05
5.83773e-05
5.83773e-05
5.83773e-05
5.83773e-05
5.83774e-05
5.83774e-05
5.83774e-05
5.83774e-05
5.83774e-05
5.83774e-05
5.83774e-05
5.83774e-05
5.83774e-05
5.83774e-05
5.83774e-05
5.83774e-05
5.83773e-05
5.83773e-05
5.83773e-05
5.83772e-05
5.83772e-05
5.83772e-05
5.83771e-05
5.83771e-05
5.8377e-05
5.8377e-05
5.83769e-05
5.83768e-05
5.83768e-05
5.83767e-05
5.83767e-05
5.83766e-05
5.83766e-05
5.83765e-05
5.83765e-05
5.83764e-05
5.83763e-05
5.83763e-05
5.83762e-05
5.83762e-05
5.83761e-05
5.83761e-05
5.83761e-05
5.8376e-05
5.8376e-05
5.8376e-05
5.83759e-05
5.83759e-05
5.83759e-05
5.83759e-05
5.83759e-05
5.8376e-05
5.8376e-05
5.83761e-05
5.83762e-05
5.83762e-05
5.83763e-05
5.83764e-05
5.83766e-05
5.83759e-05
5.83794e-05
5.98601e-05
5.98553e-05
5.9855e-05
5.98558e-05
5.98568e-05
5.98579e-05
5.98589e-05
5.98599e-05
5.98609e-05
5.98619e-05
5.98628e-05
5.98637e-05
5.98646e-05
5.98655e-05
5.98664e-05
5.98673e-05
5.98681e-05
5.98689e-05
5.98697e-05
5.98704e-05
5.98711e-05
5.98718e-05
5.98725e-05
5.98732e-05
5.98738e-05
5.98744e-05
5.9875e-05
5.98755e-05
5.98761e-05
5.98765e-05
5.9877e-05
5.98774e-05
5.98778e-05
5.98782e-05
5.98785e-05
5.98788e-05
5.98791e-05
5.98793e-05
5.98795e-05
5.98797e-05
5.98798e-05
5.988e-05
5.98801e-05
5.98802e-05
5.98803e-05
5.98804e-05
5.98804e-05
5.98805e-05
5.98806e-05
5.98806e-05
5.98807e-05
5.98807e-05
5.98808e-05
5.98808e-05
5.98808e-05
5.98809e-05
5.98809e-05
5.98809e-05
5.9881e-05
5.9881e-05
5.98811e-05
5.98811e-05
5.98811e-05
5.98812e-05
5.98812e-05
5.98812e-05
5.98813e-05
5.98813e-05
5.98813e-05
5.98813e-05
5.98813e-05
5.98813e-05
5.98814e-05
5.98814e-05
5.98814e-05
5.98814e-05
5.98813e-05
5.98813e-05
5.98813e-05
5.98813e-05
5.98813e-05
5.98812e-05
5.98812e-05
5.98812e-05
5.98811e-05
5.98811e-05
5.98811e-05
5.9881e-05
5.9881e-05
5.98809e-05
5.98809e-05
5.98808e-05
5.98808e-05
5.98808e-05
5.98807e-05
5.98807e-05
5.98806e-05
5.98806e-05
5.98806e-05
5.98805e-05
5.98805e-05
5.98805e-05
5.98804e-05
5.98804e-05
5.98804e-05
5.98804e-05
5.98804e-05
5.98804e-05
5.98804e-05
5.98805e-05
5.98805e-05
5.98806e-05
5.98807e-05
5.98808e-05
5.9881e-05
5.98811e-05
5.98812e-05
5.98815e-05
5.98808e-05
5.98848e-05
6.15389e-05
6.15336e-05
6.15334e-05
6.15342e-05
6.15353e-05
6.15365e-05
6.15376e-05
6.15388e-05
6.15399e-05
6.15409e-05
6.15419e-05
6.15429e-05
6.15438e-05
6.15448e-05
6.15457e-05
6.15467e-05
6.15476e-05
6.15484e-05
6.15493e-05
6.155e-05
6.15508e-05
6.15515e-05
6.15523e-05
6.1553e-05
6.15536e-05
6.15543e-05
6.15549e-05
6.15555e-05
6.1556e-05
6.15566e-05
6.1557e-05
6.15575e-05
6.15579e-05
6.15582e-05
6.15585e-05
6.15588e-05
6.1559e-05
6.15592e-05
6.15594e-05
6.15595e-05
6.15596e-05
6.15597e-05
6.15598e-05
6.15599e-05
6.15599e-05
6.156e-05
6.15601e-05
6.15601e-05
6.15601e-05
6.15602e-05
6.15602e-05
6.15603e-05
6.15603e-05
6.15603e-05
6.15604e-05
6.15604e-05
6.15604e-05
6.15605e-05
6.15605e-05
6.15606e-05
6.15606e-05
6.15607e-05
6.15607e-05
6.15608e-05
6.15608e-05
6.15609e-05
6.15609e-05
6.1561e-05
6.1561e-05
6.15611e-05
6.15611e-05
6.15611e-05
6.15612e-05
6.15612e-05
6.15612e-05
6.15612e-05
6.15612e-05
6.15612e-05
6.15612e-05
6.15612e-05
6.15612e-05
6.15612e-05
6.15612e-05
6.15612e-05
6.15612e-05
6.15611e-05
6.15611e-05
6.15611e-05
6.15611e-05
6.1561e-05
6.1561e-05
6.1561e-05
6.15609e-05
6.15609e-05
6.15609e-05
6.15609e-05
6.15608e-05
6.15608e-05
6.15608e-05
6.15607e-05
6.15607e-05
6.15607e-05
6.15607e-05
6.15607e-05
6.15607e-05
6.15607e-05
6.15607e-05
6.15608e-05
6.15608e-05
6.15609e-05
6.1561e-05
6.15611e-05
6.15613e-05
6.15614e-05
6.15616e-05
6.15618e-05
6.1562e-05
6.15623e-05
6.15616e-05
6.15661e-05
6.33975e-05
6.33917e-05
6.33914e-05
6.33924e-05
6.33936e-05
6.33948e-05
6.3396e-05
6.33973e-05
6.33984e-05
6.33996e-05
6.34006e-05
6.34017e-05
6.34027e-05
6.34037e-05
6.34047e-05
6.34057e-05
6.34066e-05
6.34076e-05
6.34084e-05
6.34093e-05
6.34101e-05
6.34108e-05
6.34116e-05
6.34123e-05
6.3413e-05
6.34137e-05
6.34143e-05
6.34149e-05
6.34155e-05
6.34161e-05
6.34165e-05
6.3417e-05
6.34174e-05
6.34177e-05
6.3418e-05
6.34182e-05
6.34184e-05
6.34185e-05
6.34186e-05
6.34187e-05
6.34188e-05
6.34188e-05
6.34189e-05
6.34189e-05
6.3419e-05
6.3419e-05
6.3419e-05
6.3419e-05
6.34191e-05
6.34191e-05
6.34191e-05
6.34192e-05
6.34192e-05
6.34193e-05
6.34193e-05
6.34193e-05
6.34194e-05
6.34195e-05
6.34195e-05
6.34196e-05
6.34196e-05
6.34197e-05
6.34198e-05
6.34198e-05
6.34199e-05
6.342e-05
6.342e-05
6.34201e-05
6.34202e-05
6.34202e-05
6.34203e-05
6.34204e-05
6.34204e-05
6.34204e-05
6.34205e-05
6.34205e-05
6.34206e-05
6.34206e-05
6.34206e-05
6.34206e-05
6.34206e-05
6.34206e-05
6.34206e-05
6.34206e-05
6.34206e-05
6.34206e-05
6.34206e-05
6.34206e-05
6.34206e-05
6.34206e-05
6.34206e-05
6.34206e-05
6.34205e-05
6.34205e-05
6.34205e-05
6.34205e-05
6.34205e-05
6.34205e-05
6.34205e-05
6.34204e-05
6.34204e-05
6.34204e-05
6.34204e-05
6.34205e-05
6.34205e-05
6.34205e-05
6.34206e-05
6.34206e-05
6.34207e-05
6.34209e-05
6.3421e-05
6.34212e-05
6.34214e-05
6.34216e-05
6.34219e-05
6.34221e-05
6.34223e-05
6.34228e-05
6.3422e-05
6.3427e-05
6.54372e-05
6.5431e-05
6.54307e-05
6.54317e-05
6.5433e-05
6.54343e-05
6.54356e-05
6.54369e-05
6.54382e-05
6.54394e-05
6.54405e-05
6.54416e-05
6.54427e-05
6.54437e-05
6.54448e-05
6.54458e-05
6.54468e-05
6.54477e-05
6.54486e-05
6.54495e-05
6.54503e-05
6.54511e-05
6.54519e-05
6.54526e-05
6.54533e-05
6.5454e-05
6.54547e-05
6.54553e-05
6.54559e-05
6.54565e-05
6.54569e-05
6.54573e-05
6.54577e-05
6.54579e-05
6.54582e-05
6.54583e-05
6.54584e-05
6.54585e-05
6.54586e-05
6.54586e-05
6.54586e-05
6.54587e-05
6.54587e-05
6.54587e-05
6.54587e-05
6.54587e-05
6.54587e-05
6.54588e-05
6.54588e-05
6.54588e-05
6.54588e-05
6.54589e-05
6.54589e-05
6.5459e-05
6.5459e-05
6.54591e-05
6.54592e-05
6.54592e-05
6.54593e-05
6.54594e-05
6.54595e-05
6.54596e-05
6.54597e-05
6.54597e-05
6.54598e-05
6.54599e-05
6.546e-05
6.54601e-05
6.54602e-05
6.54603e-05
6.54604e-05
6.54604e-05
6.54605e-05
6.54606e-05
6.54606e-05
6.54607e-05
6.54608e-05
6.54608e-05
6.54608e-05
6.54609e-05
6.54609e-05
6.54609e-05
6.5461e-05
6.5461e-05
6.5461e-05
6.5461e-05
6.5461e-05
6.5461e-05
6.5461e-05
6.5461e-05
6.5461e-05
6.5461e-05
6.5461e-05
6.5461e-05
6.5461e-05
6.5461e-05
6.5461e-05
6.5461e-05
6.5461e-05
6.5461e-05
6.5461e-05
6.5461e-05
6.54611e-05
6.54611e-05
6.54611e-05
6.54612e-05
6.54613e-05
6.54614e-05
6.54616e-05
6.54618e-05
6.5462e-05
6.54623e-05
6.54625e-05
6.54628e-05
6.54632e-05
6.54635e-05
6.54638e-05
6.54643e-05
6.54634e-05
6.5469e-05
6.76573e-05
6.76507e-05
6.76503e-05
6.76514e-05
6.76527e-05
6.76541e-05
6.76555e-05
6.76569e-05
6.76582e-05
6.76594e-05
6.76606e-05
6.76617e-05
6.76628e-05
6.76639e-05
6.7665e-05
6.76661e-05
6.76671e-05
6.7668e-05
6.7669e-05
6.76698e-05
6.76707e-05
6.76715e-05
6.76723e-05
6.7673e-05
6.76738e-05
6.76745e-05
6.76751e-05
6.76758e-05
6.76763e-05
6.76768e-05
6.76773e-05
6.76776e-05
6.76779e-05
6.76781e-05
6.76782e-05
6.76783e-05
6.76783e-05
6.76783e-05
6.76783e-05
6.76783e-05
6.76783e-05
6.76783e-05
6.76783e-05
6.76783e-05
6.76783e-05
6.76783e-05
6.76783e-05
6.76783e-05
6.76783e-05
6.76784e-05
6.76784e-05
6.76785e-05
6.76785e-05
6.76786e-05
6.76787e-05
6.76788e-05
6.76788e-05
6.76789e-05
6.7679e-05
6.76791e-05
6.76793e-05
6.76794e-05
6.76795e-05
6.76796e-05
6.76797e-05
6.76798e-05
6.768e-05
6.76801e-05
6.76802e-05
6.76803e-05
6.76804e-05
6.76805e-05
6.76806e-05
6.76807e-05
6.76808e-05
6.76809e-05
6.76809e-05
6.7681e-05
6.76811e-05
6.76811e-05
6.76812e-05
6.76812e-05
6.76813e-05
6.76813e-05
6.76813e-05
6.76813e-05
6.76814e-05
6.76814e-05
6.76814e-05
6.76814e-05
6.76814e-05
6.76814e-05
6.76815e-05
6.76815e-05
6.76815e-05
6.76815e-05
6.76815e-05
6.76815e-05
6.76816e-05
6.76816e-05
6.76816e-05
6.76816e-05
6.76817e-05
6.76818e-05
6.76818e-05
6.76819e-05
6.76821e-05
6.76823e-05
6.76825e-05
6.76828e-05
6.76831e-05
6.76834e-05
6.76838e-05
6.76842e-05
6.76846e-05
6.7685e-05
6.76854e-05
6.7686e-05
6.76851e-05
6.76911e-05
7.00545e-05
7.00475e-05
7.00471e-05
7.00482e-05
7.00496e-05
7.00511e-05
7.00525e-05
7.00539e-05
7.00552e-05
7.00565e-05
7.00577e-05
7.00589e-05
7.006e-05
7.00611e-05
7.00622e-05
7.00633e-05
7.00643e-05
7.00653e-05
7.00662e-05
7.00671e-05
7.00679e-05
7.00687e-05
7.00695e-05
7.00703e-05
7.0071e-05
7.00717e-05
7.00724e-05
7.0073e-05
7.00735e-05
7.0074e-05
7.00743e-05
7.00745e-05
7.00747e-05
7.00748e-05
7.00748e-05
7.00748e-05
7.00747e-05
7.00747e-05
7.00746e-05
7.00746e-05
7.00745e-05
7.00745e-05
7.00744e-05
7.00744e-05
7.00744e-05
7.00744e-05
7.00744e-05
7.00745e-05
7.00745e-05
7.00746e-05
7.00747e-05
7.00747e-05
7.00748e-05
7.00749e-05
7.0075e-05
7.00751e-05
7.00752e-05
7.00754e-05
7.00755e-05
7.00756e-05
7.00758e-05
7.00759e-05
7.00761e-05
7.00762e-05
7.00763e-05
7.00765e-05
7.00766e-05
7.00768e-05
7.00769e-05
7.0077e-05
7.00772e-05
7.00773e-05
7.00774e-05
7.00775e-05
7.00777e-05
7.00778e-05
7.00779e-05
7.0078e-05
7.0078e-05
7.00781e-05
7.00782e-05
7.00783e-05
7.00783e-05
7.00784e-05
7.00784e-05
7.00784e-05
7.00785e-05
7.00785e-05
7.00785e-05
7.00786e-05
7.00786e-05
7.00786e-05
7.00787e-05
7.00787e-05
7.00787e-05
7.00787e-05
7.00788e-05
7.00788e-05
7.00789e-05
7.00789e-05
7.0079e-05
7.0079e-05
7.00791e-05
7.00792e-05
7.00793e-05