/*--------------------------------*- C++ -*----------------------------------*\
  =========                 |
  \\      /  F ield         | OpenFOAM: The Open Source CFD Toolbox
   \\    /   O peration     | Website:  https://openfoam.org
    \\  /    A nd           | Version:  7
     \\/     M anipulation  |
\*---------------------------------------------------------------------------*/
FoamFile
{
    version     2.0;
    format      ascii;
    class       surfaceScalarField;
    location    "1000";
    object      phi;
}
// * * * * * * * * * * * * * * * * * * * * * * * * * * * * * * * * * * * * * //

dimensions      [0 3 -1 0 0 0 0];

internalField   nonuniform List<scalar> 
7768
(
0.0003378
7.04339e-09
0.0003378
6.09229e-09
0.000337799
5.08797e-09
0.000337799
4.29707e-09
0.000337799
3.60538e-09
0.000337799
3.05524e-09
0.000337799
2.6116e-09
0.000337799
2.24177e-09
0.000337799
1.92697e-09
0.000337799
1.65094e-09
0.000337798
1.40214e-09
0.000337798
1.17267e-09
0.000337798
9.56768e-10
0.000337798
7.50306e-10
0.000337798
5.49413e-10
0.000337798
3.51115e-10
0.000337798
1.48291e-10
0.000337798
-6.2121e-11
0.000337798
-3.18683e-10
0.000337798
-6.10812e-10
-1.45176e-09
0.000337801
-6.33793e-09
0.000337801
-7.22789e-09
0.000337801
-8.18577e-09
0.000337801
-8.7974e-09
0.000337801
-9.14096e-09
0.000337801
-9.22798e-09
0.000337801
-9.05934e-09
0.000337801
-8.62598e-09
0.000337801
-7.92759e-09
0.000337801
-6.94065e-09
0.000337801
-5.68043e-09
0.000337801
-4.08234e-09
0.000337801
-2.22361e-09
0.000337801
8.10345e-11
0.000337801
2.553e-09
5.52093e-09
0.000329839
7.54009e-09
0.000329838
6.49942e-09
0.000329838
5.37533e-09
0.000329838
4.50535e-09
0.000329838
3.75217e-09
0.000329838
3.16148e-09
0.000329837
2.69028e-09
0.000329837
2.30067e-09
0.000329837
1.97142e-09
0.000329837
1.68452e-09
0.000329837
1.42753e-09
0.000329837
1.19204e-09
0.000329837
9.71958e-10
0.000329837
7.6297e-10
0.000329837
5.61133e-10
0.000329837
3.63359e-10
0.000329837
1.63025e-10
0.000329837
-4.32076e-11
0.000329837
-2.85579e-10
0.000329837
-5.40342e-10
0.000329837
-1.16265e-09
0.000329836
-1.98849e-09
-2.92562e-09
0.000329838
-3.45857e-09
0.000329838
-4.55621e-09
0.000329838
-5.78437e-09
0.000329838
-6.16849e-09
0.000329839
-6.5727e-09
0.000329839
-7.60868e-09
0.000329839
-8.40193e-09
0.000329839
-8.9403e-09
0.000329839
-9.2535e-09
0.00032984
-9.32476e-09
0.00032984
-9.14622e-09
0.00032984
-8.70401e-09
0.00032984
-7.99636e-09
0.00032984
-6.99523e-09
0.00032984
-5.71818e-09
0.00032984
-4.08741e-09
0.00032984
-2.19413e-09
0.00032984
1.91872e-10
0.00032984
2.73348e-09
5.86381e-09
0.000322054
8.0488e-09
0.000322054
6.85537e-09
0.000322053
5.62244e-09
0.000322053
4.68638e-09
0.000322053
3.87974e-09
0.000322053
3.25329e-09
0.000322053
2.75759e-09
0.000322053
2.35028e-09
0.000322053
2.00802e-09
0.000322053
1.71132e-09
0.000322053
1.44691e-09
0.000322053
1.20593e-09
0.000322053
9.82049e-10
0.000322053
7.70789e-10
0.000322053
5.68195e-10
0.000322053
3.71109e-10
0.000322053
1.73626e-10
0.000322053
-2.79118e-11
0.000322053
-2.53146e-10
0.000322053
-4.8922e-10
0.000322052
-7.5036e-10
0.000322052
-1.28391e-09
0.000322051
-2.23081e-09
0.00032205
-3.06057e-09
0.00032205
-3.3926e-09
0.00032205
-3.45943e-09
0.000322049
-3.47714e-09
0.000322049
-3.53065e-09
0.000322049
-3.62212e-09
0.000322049
-3.7385e-09
0.000322049
-3.86847e-09
0.000322049
-4.00333e-09
0.000322048
-4.13582e-09
0.000322048
-4.25954e-09
0.000322048
-4.36859e-09
0.000322048
-4.45752e-09
0.000322048
-4.52147e-09
0.000322048
-4.55623e-09
0.000322048
-4.55847e-09
0.000322048
-4.52579e-09
0.000322048
-4.45682e-09
0.000322048
-4.35122e-09
0.000322047
-4.20955e-09
0.000322047
-4.03312e-09
0.000322047
-3.82368e-09
0.000322047
-3.58314e-09
0.000322047
-3.31329e-09
0.000322047
-3.01563e-09
0.000322047
-2.69138e-09
0.000322047
-2.34165e-09
0.000322048
-1.96764e-09
0.000322048
-1.57083e-09
0.000322048
-1.15314e-09
0.000322048
-7.17053e-10
0.000322048
-2.65661e-10
0.000322048
1.97366e-10
0.000322048
6.6783e-10
0.000322048
1.14106e-09
0.000322048
1.61201e-09
0.000322049
2.0754e-09
0.000322049
2.52587e-09
0.000322049
2.95818e-09
0.000322049
3.36742e-09
0.000322049
3.7492e-09
0.000322049
4.09986e-09
0.00032205
4.41668e-09
0.00032205
4.69804e-09
0.00032205
4.94357e-09
0.00032205
5.15418e-09
0.00032205
5.33209e-09
0.000322051
5.48074e-09
0.000322051
5.60459e-09
0.000322051
5.70883e-09
0.000322051
5.79903e-09
0.000322051
5.88066e-09
0.000322051
5.95859e-09
0.000322052
6.03659e-09
0.000322052
6.11685e-09
0.000322052
6.19952e-09
0.000322052
6.28246e-09
0.000322052
6.36103e-09
0.000322052
6.42814e-09
0.000322052
6.47443e-09
0.000322052
6.48869e-09
0.000322052
6.45836e-09
0.000322052
6.37029e-09
0.000322052
6.21145e-09
0.000322052
5.96977e-09
0.000322052
5.63495e-09
0.000322052
5.1992e-09
0.000322052
4.65783e-09
0.000322052
4.00979e-09
0.000322052
3.25796e-09
0.000322052
2.40978e-09
0.000322052
1.4763e-09
0.000322052
4.7705e-10
0.000322052
-5.70752e-10
0.000322052
-1.60267e-09
0.000322052
-2.61622e-09
0.000322052
-3.03842e-09
0.000322052
-3.60507e-09
0.000322052
-4.84544e-09
0.000322053
-5.93147e-09
0.000322053
-6.56184e-09
0.000322054
-7.15667e-09
0.000322054
-8.01233e-09
0.000322054
-8.6754e-09
0.000322054
-9.13933e-09
0.000322055
-9.41024e-09
0.000322055
-9.45607e-09
0.000322055
-9.26091e-09
0.000322055
-8.80535e-09
0.000322055
-8.08575e-09
0.000322055
-7.06909e-09
0.000322055
-5.77531e-09
0.000322055
-4.11265e-09
0.000322055
-2.18743e-09
0.000322055
2.79602e-10
0.000322055
2.88919e-09
6.23155e-09
0.00031444
8.56773e-09
0.000314439
7.18966e-09
0.000314439
5.83883e-09
0.000314439
4.84211e-09
0.000314439
3.98861e-09
0.000314439
3.33144e-09
0.000314439
2.81464e-09
0.000314439
2.39188e-09
0.000314439
2.03816e-09
0.000314439
1.73271e-09
0.000314439
1.46161e-09
0.000314439
1.21566e-09
0.000314439
9.88305e-10
0.000314439
7.7498e-10
0.000314439
5.71758e-10
0.000314439
3.75452e-10
0.000314439
1.8098e-10
0.000314439
-1.56549e-11
0.000314438
-2.242e-10
0.000314438
-4.46188e-10
0.000314438
-5.53816e-10
0.000314438
-8.80673e-10
0.000314437
-1.49296e-09
0.000314436
-2.16707e-09
0.000314436
-2.76324e-09
0.000314435
-3.04919e-09
0.000314435
-3.18768e-09
0.000314435
-3.30091e-09
0.000314434
-3.42276e-09
0.000314434
-3.55629e-09
0.000314434
-3.69716e-09
0.000314434
-3.83976e-09
0.000314434
-3.97847e-09
0.000314434
-4.10786e-09
0.000314433
-4.22265e-09
0.000314433
-4.31783e-09
0.000314433
-4.38876e-09
0.000314433
-4.43142e-09
0.000314433
-4.44253e-09
0.000314433
-4.41969e-09
0.000314433
-4.36148e-09
0.000314433
-4.26747e-09
0.000314433
-4.13807e-09
0.000314433
-3.97442e-09
0.000314433
-3.77812e-09
0.000314432
-3.55092e-09
0.000314432
-3.29454e-09
0.000314432
-3.01042e-09
0.000314432
-2.69979e-09
0.000314432
-2.36381e-09
0.000314433
-2.00368e-09
0.000314433
-1.62091e-09
0.000314433
-1.21738e-09
0.000314433
-7.9552e-10
0.000314433
-3.58295e-10
0.000314433
9.07577e-11
0.000314433
5.47604e-10
0.000314433
1.00777e-09
0.000314433
1.46641e-09
0.000314433
1.91847e-09
0.000314434
2.35877e-09
0.000314434
2.78229e-09
0.000314434
3.18427e-09
0.000314434
3.56046e-09
0.000314434
3.90728e-09
0.000314435
4.22205e-09
0.000314435
4.50316e-09
0.000314435
4.75015e-09
0.000314435
4.96383e-09
0.000314435
5.14626e-09
0.000314436
5.30066e-09
0.000314436
5.43128e-09
0.000314436
5.54306e-09
0.000314436
5.64134e-09
0.000314436
5.73135e-09
0.000314436
5.81778e-09
0.000314436
5.90428e-09
0.000314437
5.99293e-09
0.000314437
6.08384e-09
0.000314437
6.17489e-09
0.000314437
6.26149e-09
0.000314437
6.33665e-09
0.000314437
6.3911e-09
0.000314437
6.41373e-09
0.000314437
6.39209e-09
0.000314437
6.31305e-09
0.000314437
6.16359e-09
0.000314437
5.93162e-09
0.000314437
5.60675e-09
0.000314437
5.18103e-09
0.000314437
4.64964e-09
0.000314437
4.01133e-09
0.000314437
3.26885e-09
0.000314437
2.42951e-09
0.000314437
1.5043e-09
0.000314437
5.12865e-10
0.000314437
-5.27486e-10
0.000314437
-1.55638e-09
0.000314437
-2.57161e-09
0.000314437
-3.27877e-09
0.000314438
-4.04346e-09
0.000314438
-5.13298e-09
0.000314438
-6.11517e-09
0.000314439
-6.8408e-09
0.000314439
-7.55531e-09
0.000314439
-8.35823e-09
0.00031444
-8.94954e-09
0.00031444
-9.35697e-09
0.00031444
-9.58719e-09
0.00031444
-9.60511e-09
0.00031444
-9.39062e-09
0.00031444
-8.9197e-09
0.00031444
-8.18712e-09
0.000314441
-7.15479e-09
0.000314441
-5.84533e-09
0.000314441
-4.15241e-09
0.000314441
-2.1987e-09
0.000314441
3.4811e-10
0.000314441
3.01959e-09
6.59848e-09
0.00030699
9.08887e-09
0.00030699
7.51344e-09
0.000306989
6.03472e-09
0.000306989
4.97789e-09
0.000306989
4.08158e-09
0.000306989
3.39788e-09
0.000306989
2.86318e-09
0.000306989
2.42715e-09
0.000306989
2.06344e-09
0.000306989
1.75025e-09
0.000306989
1.47313e-09
0.000306989
1.22265e-09
0.000306989
9.92101e-10
0.000306989
7.76861e-10
0.000306989
5.73079e-10
0.000306989
3.77569e-10
0.000306989
1.86091e-10
0.000306989
-5.64792e-12
0.000306989
-1.99543e-10
0.000306989
-4.07812e-10
0.000306989
-4.54881e-10
0.000306988
-6.52946e-10
0.000306988
-1.05741e-09
0.000306987
-1.5673e-09
0.000306987
-2.19788e-09
0.000306986
-2.60715e-09
0.000306986
-2.84943e-09
0.000306986
-3.02793e-09
0.000306986
-3.18813e-09
0.000306985
-3.34492e-09
0.000306985
-3.50102e-09
0.000306985
-3.65452e-09
0.000306985
-3.80182e-09
0.000306985
-3.93869e-09
0.000306984
-4.06065e-09
0.000306984
-4.16318e-09
0.000306984
-4.24198e-09
0.000306984
-4.29321e-09
0.000306984
-4.31371e-09
0.000306984
-4.30112e-09
0.000306984
-4.25398e-09
0.000306984
-4.17177e-09
0.000306984
-4.0548e-09
0.000306983
-3.90407e-09
0.000306983
-3.72102e-09
0.000306983
-3.50729e-09
0.000306983
-3.26451e-09
0.000306983
-2.9941e-09
0.000306983
-2.69729e-09
0.000306983
-2.37525e-09
0.000306983
-2.02924e-09
0.000306983
-1.66074e-09
0.000306983
-1.27163e-09
0.000306983
-8.64246e-10
0.000306984
-4.41465e-10
0.000306984
-6.68564e-12
0.000306984
4.3622e-10
0.000306984
8.82965e-10
0.000306984
1.32892e-09
0.000306984
1.76921e-09
0.000306984
2.19891e-09
0.000306985
2.61315e-09
0.000306985
3.00737e-09
0.000306985
3.37744e-09
0.000306985
3.71989e-09
0.000306985
4.03211e-09
0.000306985
4.31246e-09
0.000306986
4.56043e-09
0.000306986
4.77673e-09
0.000306986
4.96325e-09
0.000306986
5.12301e-09
0.000306986
5.26001e-09
0.000306987
5.37894e-09
0.000306987
5.48489e-09
0.000306987
5.58285e-09
0.000306987
5.67731e-09
0.000306987
5.77174e-09
0.000306987
5.86812e-09
0.000306987
5.96653e-09
0.000306987
6.06483e-09
0.000306988
6.15851e-09
0.000306988
6.24067e-09
0.000306988
6.30219e-09
0.000306988
6.33209e-09
0.000306988
6.31803e-09
0.000306988
6.24699e-09
0.000306988
6.10602e-09
0.000306988
5.883e-09
0.000306988
5.56753e-09
0.000306988
5.15154e-09
0.000306988
4.63007e-09
0.000306988
4.00173e-09
0.000306988
3.26909e-09
0.000306988
2.43932e-09
0.000306988
1.5233e-09
0.000306988
5.40482e-10
0.000306988
-4.91812e-10
0.000306988
-1.51909e-09
0.000306988
-2.53545e-09
0.000306988
-3.3851e-09
0.000306988
-4.29013e-09
0.000306989
-5.3527e-09
0.000306989
-6.28984e-09
0.000306989
-7.05732e-09
0.000306989
-7.83588e-09
0.00030699
-8.62752e-09
0.00030699
-9.19023e-09
0.00030699
-9.56417e-09
0.00030699
-9.76304e-09
0.00030699
-9.75608e-09
0.00030699
-9.52298e-09
0.000306991
-9.0369e-09
0.000306991
-8.29182e-09
0.000306991
-7.24481e-09
0.000306991
-5.92156e-09
0.000306991
-4.20083e-09
0.000306991
-2.22288e-09
0.000306991
4.01266e-10
0.000306991
3.12716e-09
6.95302e-09
0.000299699
9.60446e-09
0.000299699
7.82947e-09
0.000299699
6.2172e-09
0.000299699
5.09965e-09
0.000299699
4.16275e-09
0.000299699
3.45553e-09
0.000299699
2.90554e-09
0.000299698
2.45812e-09
0.000299698
2.08572e-09
0.000299698
1.76564e-09
0.000299698
1.48308e-09
0.000299698
1.22841e-09
0.000299698
9.94875e-10
0.000299698
7.77806e-10
0.000299698
5.73463e-10
0.000299698
3.78692e-10
0.000299698
1.90049e-10
0.000299698
3.03489e-12
0.000299698
-1.78558e-10
0.000299698
-3.73223e-10
0.000299698
-4.01916e-10
0.000299698
-5.25522e-10
0.000299698
-7.9929e-10
0.000299698
-1.17368e-09
0.000299697
-1.74706e-09
0.000299697
-2.19899e-09
0.000299696
-2.50827e-09
0.000299696
-2.74093e-09
0.000299696
-2.93795e-09
0.000299696
-3.11888e-09
0.000299695
-3.2914e-09
0.000299695
-3.45684e-09
0.000299695
-3.61358e-09
0.000299695
-3.75863e-09
0.000299695
-3.8883e-09
0.000299694
-3.99859e-09
0.000299694
-4.08557e-09
0.000299694
-4.1456e-09
0.000299694
-4.17564e-09
0.000299694
-4.17336e-09
0.000299694
-4.1373e-09
0.000299694
-4.06687e-09
0.000299694
-3.96226e-09
0.000299693
-3.82436e-09
0.000299693
-3.65448e-09
0.000299693
-3.45416e-09
0.000299693
-3.22494e-09
0.000299693
-2.96823e-09
0.000299693
-2.68526e-09
0.000299693
-2.37723e-09
0.000299693
-2.0454e-09
0.000299693
-1.69127e-09
0.000299693
-1.31668e-09
0.000299693
-9.23919e-10
0.000299694
-5.15749e-10
0.000299694
-9.54389e-11
0.000299694
3.33295e-10
0.000299694
7.6635e-10
0.000299694
1.19929e-09
0.000299694
1.62747e-09
0.000299694
2.04615e-09
0.000299694
2.45068e-09
0.000299695
2.83665e-09
0.000299695
3.2001e-09
0.000299695
3.53768e-09
0.000299695
3.84682e-09
0.000299695
4.12589e-09
0.000299695
4.37436e-09
0.000299696
4.5928e-09
0.000299696
4.78296e-09
0.000299696
4.94766e-09
0.000299696
5.09064e-09
0.000299696
5.21635e-09
0.000299697
5.32958e-09
0.000299697
5.43509e-09
0.000299697
5.53713e-09
0.000299697
5.63898e-09
0.000299697
5.7425e-09
0.000299697
5.84771e-09
0.000299697
5.95248e-09
0.000299697
6.05236e-09
0.000299698
6.14056e-09
0.000299698
6.20811e-09
0.000299698
6.24419e-09
0.000299698
6.23663e-09
0.000299698
6.17255e-09
0.000299698
6.03909e-09
0.000299698
5.82422e-09
0.000299698
5.51749e-09
0.000299698
5.1108e-09
0.000299698
4.59908e-09
0.000299698
3.9808e-09
0.000299698
3.25834e-09
0.000299698
2.43873e-09
0.000299698
1.53267e-09
0.000299698
5.59231e-10
0.000299698
-4.64334e-10
0.000299698
-1.48951e-09
0.000299698
-2.50741e-09
0.000299698
-3.43234e-09
0.000299698
-4.42326e-09
0.000299698
-5.49723e-09
0.000299698
-6.43052e-09
0.000299699
-7.22493e-09
0.000299699
-8.03509e-09
0.000299699
-8.8258e-09
0.000299699
-9.38327e-09
0.000299699
-9.74278e-09
0.0002997
-9.92185e-09
0.0002997
-9.89599e-09
0.0002997
-9.64731e-09
0.0002997
-9.14793e-09
0.0002997
-8.392e-09
0.0002997
-7.33214e-09
0.0002997
-5.99769e-09
0.0002997
-4.25228e-09
0.0002997
-2.25498e-09
0.0002997
4.4279e-10
0.0002997
3.21461e-09
7.2896e-09
0.000292563
1.0108e-08
0.000292562
8.1366e-09
0.000292562
6.39009e-09
0.000292562
5.21232e-09
0.000292562
4.23645e-09
0.000292562
3.50783e-09
0.000292562
2.94443e-09
0.000292562
2.48708e-09
0.000292562
2.10698e-09
0.000292562
1.78068e-09
0.000292562
1.4931e-09
0.000292562
1.23449e-09
0.000292562
9.98078e-10
0.000292562
7.79193e-10
0.000292562
5.74219e-10
0.000292562
3.80059e-10
0.000292562
1.93984e-10
0.000292562
1.13932e-11
0.000292562
-1.60102e-10
0.000292562
-3.41841e-10
0.000292562
-3.70048e-10
0.000292562
-4.5319e-10
0.000292562
-6.46442e-10
0.000292561
-9.19505e-10
0.000292561
-1.40766e-09
0.000292561
-1.85262e-09
0.00029256
-2.1935e-09
0.00029256
-2.46256e-09
0.00029256
-2.68893e-09
0.00029256
-2.89094e-09
0.000292559
-3.0785e-09
0.000292559
-3.25518e-09
0.000292559
-3.42095e-09
0.000292559
-3.5739e-09
0.000292559
-3.71107e-09
0.000292558
-3.82895e-09
0.000292558
-3.92392e-09
0.000292558
-3.99256e-09
0.000292558
-4.03192e-09
0.000292558
-4.03973e-09
0.000292558
-4.01449e-09
0.000292558
-3.95555e-09
0.000292557
-3.86302e-09
0.000292557
-3.73766e-09
0.000292557
-3.58068e-09
0.000292557
-3.39352e-09
0.000292557
-3.17766e-09
0.000292557
-2.93447e-09
0.000292557
-2.6652e-09
0.000292557
-2.37106e-09
0.000292557
-2.05335e-09
0.000292557
-1.71354e-09
0.000292557
-1.35346e-09
0.000292557
-9.75322e-10
0.000292557
-5.81812e-10
0.000292557
-1.76062e-10
0.000292557
2.38366e-10
0.000292558
6.57546e-10
0.000292558
1.07724e-09
0.000292558
1.49301e-09
0.000292558
1.90033e-09
0.000292558
2.29475e-09
0.000292558
2.67204e-09
0.000292558
3.0284e-09
0.000292559
3.36059e-09
0.000292559
3.66613e-09
0.000292559
3.94342e-09
0.000292559
4.19186e-09
0.000292559
4.41196e-09
0.00029256
4.60531e-09
0.00029256
4.77451e-09
0.00029256
4.92308e-09
0.00029256
5.05517e-09
0.00029256
5.17531e-09
0.00029256
5.28798e-09
0.000292561
5.39718e-09
0.000292561
5.506e-09
0.000292561
5.61614e-09
0.000292561
5.72754e-09
0.000292561
5.83808e-09
0.000292561
5.94335e-09
0.000292561
6.03668e-09
0.000292561
6.10928e-09
0.000292561
6.1505e-09
0.000292561
6.14837e-09
0.000292562
6.0902e-09
0.000292562
5.96327e-09
0.000292562
5.75564e-09
0.000292562
5.45693e-09
0.000292562
5.05901e-09
0.000292562
4.55673e-09
0.000292562
3.94843e-09
0.000292562
3.23636e-09
0.000292562
2.42733e-09
0.000292562
1.53189e-09
0.000292562
5.68521e-10
0.000292562
-4.45604e-10
0.000292562
-1.46746e-09
0.000292562
-2.48642e-09
0.000292562
-3.45191e-09
0.000292562
-4.48986e-09
0.000292562
-5.58097e-09
0.000292562
-6.53034e-09
0.000292562
-7.34943e-09
0.000292562
-8.17513e-09
0.000292563
-8.9648e-09
0.000292563
-9.52672e-09
0.000292563
-9.88412e-09
0.000292563
-1.00535e-08
0.000292563
-1.00155e-08
0.000292563
-9.75538e-09
0.000292563
-9.24551e-09
0.000292563
-8.48109e-09
0.000292563
-7.41079e-09
0.000292564
-6.06815e-09
0.000292564
-4.30169e-09
0.000292564
-2.2904e-09
0.000292564
4.76098e-10
0.000292564
3.28454e-09
7.60555e-09
0.000285575
1.05938e-08
0.000285574
8.43212e-09
0.000285574
6.55494e-09
0.000285574
5.31931e-09
0.000285574
4.30646e-09
0.000285574
3.55812e-09
0.000285574
2.98266e-09
0.000285574
2.51636e-09
0.000285574
2.12925e-09
0.000285574
1.79716e-09
0.000285574
1.5048e-09
0.000285574
1.24238e-09
0.000285574
1.00311e-09
0.000285574
7.82349e-10
0.000285574
5.76608e-10
0.000285574
3.82867e-10
0.000285574
1.99012e-10
0.000285574
2.04435e-11
0.000285574
-1.42896e-10
0.000285574
-3.12873e-10
0.000285574
-3.47275e-10
0.000285574
-4.0976e-10
0.000285573
-5.5443e-10
0.000285573
-7.55291e-10
0.000285573
-1.15845e-09
0.000285573
-1.57219e-09
0.000285572
-1.91881e-09
0.000285572
-2.20679e-09
0.000285572
-2.45281e-09
0.000285572
-2.67071e-09
0.000285572
-2.87036e-09
0.000285571
-3.05642e-09
0.000285571
-3.22992e-09
0.000285571
-3.38982e-09
0.000285571
-3.53373e-09
0.000285571
-3.65857e-09
0.00028557
-3.76099e-09
0.00028557
-3.83773e-09
0.00028557
-3.88593e-09
0.00028557
-3.90334e-09
0.00028557
-3.88844e-09
0.00028557
-3.84051e-09
0.00028557
-3.75958e-09
0.00028557
-3.6463e-09
0.00028557
-3.50178e-09
0.000285569
-3.32737e-09
0.000285569
-3.12449e-09
0.000285569
-2.89449e-09
0.000285569
-2.63862e-09
0.000285569
-2.35812e-09
0.000285569
-2.05429e-09
0.000285569
-1.72862e-09
0.000285569
-1.38289e-09
0.000285569
-1.01928e-09
0.000285569
-6.4037e-10
0.00028557
-2.49164e-10
0.00028557
1.5092e-10
0.00028557
5.56131e-10
0.00028557
9.62428e-10
0.00028557
1.36557e-09
0.00028557
1.76125e-09
0.00028557
2.1452e-09
0.00028557
2.51342e-09
0.000285571
2.86224e-09
0.000285571
3.18857e-09
0.000285571
3.49e-09
0.000285571
3.76498e-09
0.000285571
4.0129e-09
0.000285571
4.23416e-09
0.000285572
4.43022e-09
0.000285572
4.60348e-09
0.000285572
4.75722e-09
0.000285572
4.89531e-09
0.000285572
5.022e-09
0.000285572
5.14146e-09
0.000285573
5.25744e-09
0.000285573
5.37281e-09
0.000285573
5.48911e-09
0.000285573
5.60617e-09
0.000285573
5.72183e-09
0.000285573
5.83177e-09
0.000285573
5.92942e-09
0.000285573
6.00614e-09
0.000285574
6.05151e-09
0.000285574
6.05379e-09
0.000285574
6.00048e-09
0.000285574
5.87907e-09
0.000285574
5.67776e-09
0.000285574
5.38625e-09
0.000285574
4.99645e-09
0.000285574
4.50317e-09
0.000285574
3.90466e-09
0.000285574
3.20302e-09
0.000285574
2.40485e-09
0.000285574
1.52052e-09
0.000285574
5.67857e-10
0.000285574
-4.36105e-10
0.000285574
-1.45317e-09
0.000285574
-2.4718e-09
0.000285574
-3.45923e-09
0.000285574
-4.51925e-09
0.000285574
-5.62171e-09
0.000285574
-6.59266e-09
0.000285574
-7.43587e-09
0.000285574
-8.26988e-09
0.000285575
-9.05613e-09
0.000285575
-9.62466e-09
0.000285575
-9.98622e-09
0.000285575
-1.01531e-08
0.000285575
-1.01087e-08
0.000285575
-9.84151e-09
0.000285575
-9.32428e-09
0.000285575
-8.55402e-09
0.000285575
-7.47596e-09
0.000285575
-6.12834e-09
0.000285575
-4.34474e-09
0.000285575
-2.32511e-09
0.000285575
5.04166e-10
0.000285575
3.33921e-09
7.89931e-09
0.00027873
1.10567e-08
0.000278729
8.71275e-09
0.000278729
6.71189e-09
0.000278729
5.42267e-09
0.000278729
4.37562e-09
0.000278729
3.60928e-09
0.000278729
3.02276e-09
0.000278729
2.54817e-09
0.000278729
2.15443e-09
0.000278729
1.81676e-09
0.000278729
1.51971e-09
0.000278729
1.25347e-09
0.000278729
1.01126e-09
0.000278729
7.88489e-10
0.000278729
5.81787e-10
0.000278729
3.88218e-10
0.000278729
2.06179e-10
0.000278729
3.11612e-11
0.000278729
-1.25688e-10
0.000278729
-2.85326e-10
0.000278729
-3.27723e-10
0.000278729
-3.80425e-10
0.000278729
-4.96305e-10
0.000278728
-6.46712e-10
0.000278728
-9.75509e-10
0.000278728
-1.35014e-09
0.000278728
-1.68687e-09
0.000278728
-1.97996e-09
0.000278727
-2.2363e-09
0.000278727
-2.46429e-09
0.000278727
-2.6724e-09
0.000278727
-2.86541e-09
0.000278727
-3.04493e-09
0.000278726
-3.21046e-09
0.000278726
-3.36008e-09
0.000278726
-3.49101e-09
0.000278726
-3.60011e-09
0.000278726
-3.68424e-09
0.000278726
-3.74061e-09
0.000278725
-3.76697e-09
0.000278725
-3.76177e-09
0.000278725
-3.72422e-09
0.000278725
-3.65426e-09
0.000278725
-3.55244e-09
0.000278725
-3.41979e-09
0.000278725
-3.25757e-09
0.000278725
-3.06715e-09
0.000278725
-2.84986e-09
0.000278725
-2.60697e-09
0.000278725
-2.33971e-09
0.000278725
-2.04942e-09
0.000278725
-1.73757e-09
0.000278725
-1.40594e-09
0.000278725
-1.05663e-09
0.000278725
-6.92139e-10
0.000278725
-3.15363e-10
0.000278725
7.04345e-11
0.000278725
4.61668e-10
0.000278725
8.54489e-10
0.000278725
1.24486e-09
0.000278725
1.62867e-09
0.000278726
2.00189e-09
0.000278726
2.36067e-09
0.000278726
2.70155e-09
0.000278726
3.02156e-09
0.000278726
3.31841e-09
0.000278726
3.59058e-09
0.000278727
3.83745e-09
0.000278727
4.05937e-09
0.000278727
4.25765e-09
0.000278727
4.43452e-09
0.000278727
4.59301e-09
0.000278727
4.73672e-09
0.000278728
4.86958e-09
0.000278728
4.99549e-09
0.000278728
5.11792e-09
0.000278728
5.23947e-09
0.000278728
5.3615e-09
0.000278728
5.48375e-09
0.000278728
5.60399e-09
0.000278728
5.71794e-09
0.000278729
5.81916e-09
0.000278729
5.89916e-09
0.000278729
5.94776e-09
0.000278729
5.95345e-09
0.000278729
5.90398e-09
0.000278729
5.78707e-09
0.000278729
5.59111e-09
0.000278729
5.30594e-09
0.000278729
4.92354e-09
0.000278729
4.43871e-09
0.000278729
3.84964e-09
0.000278729
3.15832e-09
0.000278729
2.37114e-09
0.00027873
1.49829e-09
0.00027873
5.56866e-10
0.00027873
-4.36234e-10
0.00027873
-1.44702e-09
0.00027873
-2.46337e-09
0.00027873
-3.46205e-09
0.00027873
-4.52886e-09
0.00027873
-5.63459e-09
0.00027873
-6.62499e-09
0.00027873
-7.49009e-09
0.00027873
-8.32893e-09
0.00027873
-9.10957e-09
0.00027873
-9.68341e-09
0.00027873
-1.00511e-08
0.00027873
-1.02196e-08
0.00027873
-1.01732e-08
0.00027873
-9.9024e-09
0.00027873
-9.38073e-09
0.00027873
-8.60724e-09
0.00027873
-7.52408e-09
0.00027873
-6.17468e-09
0.00027873
-4.378e-09
0.00027873
-2.35577e-09
0.00027873
5.29447e-10
0.00027873
3.3805e-09
8.16957e-09
0.000272022
1.14917e-08
0.000272022
8.97504e-09
0.000272022
6.86035e-09
0.000272022
5.52333e-09
0.000272022
4.44582e-09
0.000272022
3.66346e-09
0.000272022
3.06681e-09
0.000272022
2.58437e-09
0.000272022
2.18415e-09
0.000272022
1.84092e-09
0.000272022
1.53912e-09
0.000272022
1.26894e-09
0.000272022
1.02365e-09
0.000272022
7.98662e-10
0.000272022
5.90754e-10
0.000272022
3.97069e-10
0.000272022
2.1641e-10
0.000272022
4.44255e-11
0.000272022
-1.07348e-10
0.000272022
-2.58148e-10
0.000272022
-3.08404e-10
0.000272021
-3.56947e-10
0.000272021
-4.56001e-10
0.000272021
-5.70943e-10
0.000272021
-8.38113e-10
0.000272021
-1.1747e-09
0.000272021
-1.49407e-09
0.000272021
-1.78295e-09
0.00027202
-2.04198e-09
0.00027202
-2.27468e-09
0.00027202
-2.48762e-09
0.00027202
-2.68509e-09
0.00027202
-2.86882e-09
0.00027202
-3.03861e-09
0.000272019
-3.19282e-09
0.000272019
-3.3289e-09
0.000272019
-3.44383e-09
0.000272019
-3.53458e-09
0.000272019
-3.59836e-09
0.000272019
-3.63293e-09
0.000272019
-3.63668e-09
0.000272018
-3.60876e-09
0.000272018
-3.54903e-09
0.000272018
-3.45796e-09
0.000272018
-3.33647e-09
0.000272018
-3.18577e-09
0.000272018
-3.00718e-09
0.000272018
-2.80201e-09
0.000272018
-2.57154e-09
0.000272018
-2.31703e-09
0.000272018
-2.03981e-09
0.000272018
-1.74137e-09
0.000272018
-1.42346e-09
0.000272018
-1.08813e-09
0.000272018
-7.37795e-10
0.000272018
-3.7524e-10
0.000272018
-3.58757e-12
0.000272018
3.73743e-10
0.000272018
7.53089e-10
0.000272018
1.13061e-09
0.000272019
1.50241e-09
0.000272019
1.86465e-09
0.000272019
2.2137e-09
0.000272019
2.54626e-09
0.000272019
2.85954e-09
0.000272019
3.15134e-09
0.000272019
3.4202e-09
0.00027202
3.66553e-09
0.00027202
3.88761e-09
0.00027202
4.08763e-09
0.00027202
4.26764e-09
0.00027202
4.43045e-09
0.00027202
4.57938e-09
0.000272021
4.71806e-09
0.000272021
4.85009e-09
0.000272021
4.97863e-09
0.000272021
5.10603e-09
0.000272021
5.23345e-09
0.000272021
5.36046e-09
0.000272021
5.48481e-09
0.000272022
5.60221e-09
0.000272022
5.70632e-09
0.000272022
5.78884e-09
0.000272022
5.8398e-09
0.000272022
5.84795e-09
0.000272022
5.80134e-09
0.000272022
5.68792e-09
0.000272022
5.49633e-09
0.000272022
5.21658e-09
0.000272022
4.84076e-09
0.000272023
4.36373e-09
0.000272023
3.78365e-09
0.000272023
3.10242e-09
0.000272023
2.32622e-09
0.000272023
1.46507e-09
0.000272023
5.35312e-10
0.000272023
-4.46275e-10
0.000272023
-1.44935e-09
0.000272023
-2.46128e-09
0.000272023
-3.46441e-09
0.000272023
-4.52881e-09
0.000272023
-5.63076e-09
0.000272023
-6.63541e-09
0.000272023
-7.51832e-09
0.000272023
-8.35958e-09
0.000272023
-9.13294e-09
0.000272023
-9.70946e-09
0.000272023
-1.00826e-08
0.000272023
-1.02543e-08
0.000272023
-1.02084e-08
0.000272023
-9.93663e-09
0.000272023
-9.41291e-09
0.000272023
-8.63847e-09
0.000272023
-7.55268e-09
0.000272023
-6.20454e-09
0.000272023
-4.39883e-09
0.000272023
-2.37969e-09
0.000272023
5.53863e-10
0.000272023
3.40989e-09
8.41482e-09
0.000265448
1.18932e-08
0.000265448
9.2155e-09
0.000265448
6.99934e-09
0.000265448
5.62151e-09
0.000265448
4.5181e-09
0.000265448
3.7221e-09
0.000265447
3.11628e-09
0.000265447
2.62633e-09
0.000265447
2.21968e-09
0.000265447
1.87077e-09
0.000265447
1.56405e-09
0.000265447
1.28974e-09
0.000265447
1.04113e-09
0.000265447
8.13693e-10
0.000265447
6.043e-10
0.000265447
4.10184e-10
0.000265447
2.30454e-10
0.000265447
6.0968e-11
0.000265447
-8.69279e-11
0.000265447
-2.30353e-10
0.000265447
-2.87709e-10
0.000265447
-3.34804e-10
0.000265447
-4.24127e-10
0.000265447
-5.13271e-10
0.000265447
-7.302e-10
0.000265447
-1.03393e-09
0.000265447
-1.33399e-09
0.000265446
-1.61339e-09
0.000265446
-1.86962e-09
0.000265446
-2.10263e-09
0.000265446
-2.31718e-09
0.000265446
-2.51682e-09
0.000265446
-2.70308e-09
0.000265445
-2.87587e-09
0.000265445
-3.03366e-09
0.000265445
-3.174e-09
0.000265445
-3.29397e-09
0.000265445
-3.39057e-09
0.000265445
-3.461e-09
0.000265445
-3.503e-09
0.000265444
-3.51492e-09
0.000265444
-3.49584e-09
0.000265444
-3.44554e-09
0.000265444
-3.3644e-09
0.000265444
-3.25329e-09
0.000265444
-3.11335e-09
0.000265444
-2.94587e-09
0.000265444
-2.75215e-09
0.000265444
-2.53346e-09
0.000265444
-2.2911e-09
0.000265444
-2.0264e-09
0.000265444
-1.74087e-09
0.000265444
-1.43622e-09
0.000265444
-1.11446e-09
0.000265444
-7.7793e-10
0.000265444
-4.2931e-10
0.000265444
-7.15837e-11
0.000265444
2.91991e-10
0.000265444
6.57931e-10
0.000265444
1.02259e-09
0.000265444
1.38228e-09
0.000265445
1.73338e-09
0.000265445
2.07244e-09
0.000265445
2.39638e-09
0.000265445
2.70253e-09
0.000265445
2.98883e-09
0.000265445
3.25392e-09
0.000265445
3.49721e-09
0.000265446
3.71894e-09
0.000265446
3.92021e-09
0.000265446
4.1029e-09
0.000265446
4.26959e-09
0.000265446
4.42334e-09
0.000265446
4.56749e-09
0.000265447
4.70531e-09
0.000265447
4.83965e-09
0.000265447
4.97261e-09
0.000265447
5.10509e-09
0.000265447
5.23652e-09
0.000265447
5.36455e-09
0.000265447
5.4849e-09
0.000265447
5.59132e-09
0.000265448
5.67567e-09
0.000265448
5.7282e-09
0.000265448
5.73794e-09
0.000265448
5.69322e-09
0.000265448
5.58231e-09
0.000265448
5.3941e-09
0.000265448
5.11882e-09
0.000265448
4.74872e-09
0.000265448
4.27877e-09
0.000265448
3.70711e-09
0.000265449
3.03561e-09
0.000265449
2.27025e-09
0.000265449
1.4209e-09
0.000265449
5.0312e-10
0.000265449
-4.66374e-10
0.000265449
-1.46044e-09
0.000265449
-2.46577e-09
0.000265449
-3.46857e-09
0.000265449
-4.52486e-09
0.000265449
-5.61782e-09
0.000265449
-6.63098e-09
0.000265449
-7.52656e-09
0.000265449
-8.36777e-09
0.000265449
-9.13241e-09
0.000265449
-9.70869e-09
0.000265449
-1.00853e-08
0.000265449
-1.02599e-08
0.000265449
-1.02153e-08
0.000265449
-9.94417e-09
0.000265449
-9.42007e-09
0.000265449
-8.64651e-09
0.000265449
-7.56023e-09
0.000265449
-6.2161e-09
0.000265449
-4.4053e-09
0.000265449
-2.3948e-09
0.000265449
5.78857e-10
0.000265449
3.42852e-09
8.63328e-09
0.000259002
1.22559e-08
0.000259001
9.43058e-09
0.000259001
7.12769e-09
0.000259001
5.71692e-09
0.000259001
4.59284e-09
0.000259001
3.78592e-09
0.000259001
3.17202e-09
0.000259001
2.67493e-09
0.000259001
2.26182e-09
0.000259001
1.90706e-09
0.000259001
1.59519e-09
0.000259001
1.31649e-09
0.000259001
1.0643e-09
0.000259001
8.34141e-10
0.000259001
6.22968e-10
0.000259001
4.28095e-10
0.000259001
2.48852e-10
0.000259001
8.13305e-11
0.000259001
-6.37026e-11
0.000259001
-2.01108e-10
0.000259001
-2.64727e-10
0.000259001
-3.11568e-10
0.000259
-3.95337e-10
0.000259
-4.64478e-10
0.000259
-6.40113e-10
0.000259
-9.17536e-10
0.000259
-1.19953e-09
0.000259
-1.46727e-09
0.000259
-1.71731e-09
0.000259
-1.94737e-09
0.000258999
-2.16095e-09
0.000258999
-2.36086e-09
0.000258999
-2.54828e-09
0.000258999
-2.72301e-09
0.000258999
-2.88353e-09
0.000258999
-3.02741e-09
0.000258999
-3.15172e-09
0.000258998
-3.25346e-09
0.000258998
-3.32982e-09
0.000258998
-3.37849e-09
0.000258998
-3.39778e-09
0.000258998
-3.38671e-09
0.000258998
-3.34499e-09
0.000258998
-3.27296e-09
0.000258998
-3.17139e-09
0.000258998
-3.04141e-09
0.000258998
-2.88425e-09
0.000258998
-2.70122e-09
0.000258997
-2.49362e-09
0.000258997
-2.26274e-09
0.000258997
-2.00994e-09
0.000258997
-1.73674e-09
0.000258997
-1.44482e-09
0.000258997