/*--------------------------------*- C++ -*----------------------------------*\
  =========                 |
  \\      /  F ield         | OpenFOAM: The Open Source CFD Toolbox
   \\    /   O peration     | Website:  https://openfoam.org
    \\  /    A nd           | Version:  7
     \\/     M anipulation  |
\*---------------------------------------------------------------------------*/
FoamFile
{
    version     2.0;
    format      ascii;
    class       volScalarField;
    location    "3500";
    object      k;
}
// * * * * * * * * * * * * * * * * * * * * * * * * * * * * * * * * * * * * * //

dimensions      [0 2 -2 0 0 0 0];

internalField   nonuniform List<scalar> 
4037
(
0.000167878
0.000167878
0.000167878
0.000167878
0.000167878
0.000167879
0.000167879
0.000167879
0.000167879
0.00016788
0.00016788
0.000167881
0.000167881
0.000167881
0.000167882
0.000167882
0.000167883
0.000167883
0.000167884
0.000167884
0.000167885
0.000167885
0.000167886
0.000167886
0.000167886
0.000167887
0.000167887
0.000167888
0.000167888
0.000167889
0.000167889
0.00016789
0.00016789
0.000167891
0.000167891
0.000167892
0.000167892
0.000167893
0.000167893
0.000167894
0.000167894
0.000167894
0.000167895
0.000167895
0.000167895
0.000167896
0.000167896
0.000167896
0.000167897
0.000167897
0.000167897
0.000167898
0.000167898
0.000167898
0.000167898
0.000167899
0.000167899
0.000167899
0.000167899
0.000167899
0.000167899
0.0001679
0.0001679
0.0001679
0.0001679
0.0001679
0.0001679
0.0001679
0.0001679
0.0001679
0.0001679
0.0001679
0.0001679
0.0001679
0.0001679
0.0001679
0.0001679
0.000168304
0.000168303
0.000168302
0.0001683
0.000168299
0.000168298
0.000168297
0.000168296
0.000168295
0.000168295
0.000168294
0.000168293
0.000168293
0.000168293
0.000168292
0.000168292
0.000168292
0.000168292
0.000168292
0.000168292
0.000168292
0.000168292
0.000168292
0.000168292
0.000168293
0.000168293
0.000168294
0.000168294
0.000168294
0.000168295
0.000168295
0.000168295
0.000168296
0.000168296
0.000168296
0.000168297
0.000168297
0.000168298
0.000168298
0.000168299
0.000168299
0.0001683
0.0001683
0.000168301
0.000168301
0.000168302
0.000168302
0.000168303
0.000168303
0.000168304
0.000168304
0.000168305
0.000168305
0.000168306
0.000168306
0.000168307
0.000168307
0.000168307
0.000168308
0.000168308
0.000168309
0.000168309
0.00016831
0.00016831
0.000168311
0.000168311
0.000168311
0.000168312
0.000168312
0.000168312
0.000168313
0.000168313
0.000168313
0.000168314
0.000168314
0.000168314
0.000168314
0.000168315
0.000168315
0.000168315
0.000168315
0.000168316
0.000168316
0.000168316
0.000168316
0.000168316
0.000168316
0.000168316
0.000168316
0.000168316
0.000168317
0.000168317
0.000168317
0.000168317
0.000168317
0.000168317
0.000168317
0.000168316
0.000168316
0.000168316
0.000168316
0.000168315
0.000168314
0.000168314
0.000168313
0.000168313
0.000168313
0.000168313
0.000168312
0.000168312
0.000168311
0.000168311
0.00016831
0.00016831
0.000168309
0.000168309
0.000168308
0.000168308
0.000168307
0.000168307
0.000168624
0.000168623
0.000168621
0.00016862
0.000168619
0.000168618
0.000168616
0.000168615
0.000168615
0.000168614
0.000168613
0.000168613
0.000168612
0.000168612
0.000168611
0.000168611
0.000168611
0.000168611
0.000168611
0.000168611
0.000168611
0.000168611
0.000168611
0.000168611
0.000168612
0.000168613
0.000168613
0.000168613
0.000168614
0.000168614
0.000168615
0.000168615
0.000168616
0.000168616
0.000168617
0.000168617
0.000168618
0.000168618
0.000168619
0.000168619
0.00016862
0.00016862
0.000168621
0.000168621
0.000168622
0.000168622
0.000168623
0.000168623
0.000168624
0.000168624
0.000168625
0.000168625
0.000168626
0.000168626
0.000168627
0.000168627
0.000168627
0.000168628
0.000168628
0.000168629
0.000168629
0.00016863
0.00016863
0.000168631
0.000168631
0.000168631
0.000168632
0.000168632
0.000168633
0.000168633
0.000168633
0.000168633
0.000168634
0.000168634
0.000168634
0.000168635
0.000168635
0.000168635
0.000168635
0.000168636
0.000168636
0.000168636
0.000168636
0.000168636
0.000168636
0.000168636
0.000168637
0.000168637
0.000168637
0.000168637
0.000168637
0.000168637
0.000168637
0.000168637
0.000168637
0.000168637
0.000168637
0.000168637
0.000168637
0.000168637
0.000168637
0.000168636
0.000168635
0.000168634
0.000168634
0.000168633
0.000168633
0.000168633
0.000168632
0.000168632
0.000168631
0.000168631
0.00016863
0.00016863
0.000168629
0.000168629
0.000168628
0.000168628
0.000168627
0.000168627
0.000168842
0.000168841
0.000168839
0.000168837
0.000168836
0.000168835
0.000168834
0.000168833
0.000168832
0.000168831
0.00016883
0.00016883
0.000168829
0.000168829
0.000168829
0.000168828
0.000168828
0.000168828
0.000168828
0.000168828
0.000168828
0.000168828
0.000168829
0.000168829
0.000168829
0.00016883
0.00016883
0.000168831
0.000168831
0.000168832
0.000168833
0.000168833
0.000168834
0.000168834
0.000168835
0.000168835
0.000168836
0.000168836
0.000168837
0.000168837
0.000168838
0.000168839
0.000168839
0.00016884
0.00016884
0.000168841
0.000168841
0.000168842
0.000168842
0.000168843
0.000168843
0.000168844
0.000168844
0.000168845
0.000168845
0.000168846
0.000168846
0.000168846
0.000168847
0.000168847
0.000168848
0.000168848
0.000168849
0.000168849
0.00016885
0.00016885
0.00016885
0.000168851
0.000168851
0.000168851
0.000168852
0.000168852
0.000168852
0.000168852
0.000168853
0.000168853
0.000168853
0.000168853
0.000168854
0.000168854
0.000168854
0.000168854
0.000168854
0.000168855
0.000168855
0.000168855
0.000168855
0.000168855
0.000168855
0.000168855
0.000168855
0.000168855
0.000168855
0.000168855
0.000168855
0.000168855
0.000168855
0.000168855
0.000168855
0.000168855
0.000168855
0.000168854
0.000168853
0.000168853
0.000168852
0.000168852
0.000168851
0.000168851
0.00016885
0.00016885
0.000168849
0.000168849
0.000168848
0.000168848
0.000168847
0.000168847
0.000168846
0.000168846
0.000168845
0.000168845
0.000168951
0.00016895
0.000168948
0.000168946
0.000168945
0.000168943
0.000168942
0.000168941
0.00016894
0.000168939
0.000168938
0.000168938
0.000168937
0.000168937
0.000168937
0.000168937
0.000168936
0.000168936
0.000168936
0.000168936
0.000168937
0.000168937
0.000168937
0.000168937
0.000168938
0.000168938
0.000168939
0.00016894
0.00016894
0.000168941
0.000168941
0.000168942
0.000168943
0.000168943
0.000168944
0.000168944
0.000168945
0.000168946
0.000168946
0.000168947
0.000168947
0.000168948
0.000168949
0.000168949
0.00016895
0.00016895
0.000168951
0.000168951
0.000168952
0.000168952
0.000168953
0.000168953
0.000168954
0.000168954
0.000168955
0.000168955
0.000168956
0.000168956
0.000168956
0.000168957
0.000168957
0.000168958
0.000168958
0.000168959
0.000168959
0.000168959
0.00016896
0.00016896
0.00016896
0.000168961
0.000168961
0.000168961
0.000168961
0.000168962
0.000168962
0.000168962
0.000168962
0.000168963
0.000168963
0.000168963
0.000168963
0.000168964
0.000168964
0.000168964
0.000168964
0.000168964
0.000168964
0.000168964
0.000168964
0.000168964
0.000168964
0.000168964
0.000168964
0.000168964
0.000168964
0.000168964
0.000168964
0.000168964
0.000168964
0.000168964
0.000168964
0.000168964
0.000168963
0.000168962
0.000168962
0.000168961
0.000168961
0.00016896
0.00016896
0.000168959
0.000168959
0.000168958
0.000168957
0.000168957
0.000168956
0.000168956
0.000168955
0.000168955
0.000168954
0.000168954
0.000168943
0.000168941
0.000168939
0.000168938
0.000168936
0.000168935
0.000168933
0.000168932
0.000168931
0.00016893
0.00016893
0.000168929
0.000168928
0.000168928
0.000168928
0.000168928
0.000168928
0.000168928
0.000168928
0.000168928
0.000168928
0.000168928
0.000168929
0.000168929
0.000168929
0.00016893
0.00016893
0.000168931
0.000168932
0.000168933
0.000168933
0.000168934
0.000168935
0.000168935
0.000168936
0.000168937
0.000168937
0.000168938
0.000168938
0.000168939
0.00016894
0.00016894
0.000168941
0.000168942
0.000168942
0.000168943
0.000168943
0.000168944
0.000168944
0.000168945
0.000168945
0.000168946
0.000168946
0.000168947
0.000168947
0.000168948
0.000168948
0.000168948
0.000168949
0.000168949
0.00016895
0.00016895
0.000168951
0.000168951
0.000168951
0.000168952
0.000168952
0.000168952
0.000168953
0.000168953
0.000168953
0.000168953
0.000168954
0.000168954
0.000168954
0.000168954
0.000168955
0.000168955
0.000168955
0.000168955
0.000168956
0.000168956
0.000168956
0.000168956
0.000168956
0.000168956
0.000168956
0.000168956
0.000168956
0.000168956
0.000168956
0.000168956
0.000168956
0.000168956
0.000168956
0.000168956
0.000168956
0.000168956
0.000168956
0.000168956
0.000168956
0.000168956
0.000168955
0.000168955
0.000168954
0.000168953
0.000168953
0.000168952
0.000168952
0.000168951
0.000168951
0.00016895
0.000168949
0.000168949
0.000168948
0.000168948
0.000168947
0.000168947
0.000168946
0.000168946
0.000168808
0.000168806
0.000168804
0.000168802
0.000168801
0.000168799
0.000168798
0.000168797
0.000168795
0.000168795
0.000168794
0.000168793
0.000168793
0.000168792
0.000168792
0.000168792
0.000168792
0.000168792
0.000168792
0.000168792
0.000168793
0.000168793
0.000168793
0.000168794
0.000168794
0.000168795
0.000168795
0.000168796
0.000168797
0.000168797
0.000168798
0.000168799
0.0001688
0.0001688
0.000168801
0.000168802
0.000168802
0.000168803
0.000168804
0.000168804
0.000168805
0.000168806
0.000168806
0.000168807
0.000168808
0.000168808
0.000168809
0.000168809
0.00016881
0.00016881
0.000168811
0.000168811
0.000168812
0.000168812
0.000168813
0.000168813
0.000168813
0.000168814
0.000168814
0.000168815
0.000168815
0.000168816
0.000168816
0.000168816
0.000168817
0.000168817
0.000168817
0.000168818
0.000168818
0.000168818
0.000168819
0.000168819
0.000168819
0.000168819
0.000168819
0.00016882
0.00016882
0.00016882
0.00016882
0.000168821
0.000168821
0.000168821
0.000168821
0.000168821
0.000168821
0.000168821
0.000168821
0.000168822
0.000168822
0.000168822
0.000168822
0.000168822
0.000168822
0.000168822
0.000168822
0.000168822
0.000168822
0.000168822
0.000168821
0.000168821
0.000168821
0.000168821
0.000168821
0.00016882
0.000168819
0.000168819
0.000168818
0.000168818
0.000168817
0.000168816
0.000168816
0.000168815
0.000168815
0.000168814
0.000168813
0.000168813
0.000168812
0.000168812
0.000168811
0.000168811
0.000168535
0.000168533
0.000168531
0.000168529
0.000168527
0.000168525
0.000168524
0.000168522
0.000168521
0.00016852
0.00016852
0.000168519
0.000168519
0.000168518
0.000168518
0.000168518
0.000168518
0.000168518
0.000168518
0.000168518
0.000168519
0.000168519
0.000168519
0.00016852
0.00016852
0.000168521
0.000168521
0.000168522
0.000168523
0.000168524
0.000168524
0.000168525
0.000168526
0.000168527
0.000168528
0.000168528
0.000168529
0.00016853
0.00016853
0.000168531
0.000168532
0.000168533
0.000168533
0.000168534
0.000168535
0.000168535
0.000168536
0.000168536
0.000168537
0.000168537
0.000168538
0.000168538
0.000168539
0.000168539
0.00016854
0.00016854
0.00016854
0.000168541
0.000168541
0.000168542
0.000168542
0.000168542
0.000168543
0.000168543
0.000168544
0.000168544
0.000168544
0.000168544
0.000168545
0.000168545
0.000168545
0.000168545
0.000168546
0.000168546
0.000168546
0.000168546
0.000168547
0.000168547
0.000168547
0.000168547
0.000168547
0.000168547
0.000168548
0.000168548
0.000168548
0.000168548
0.000168548
0.000168548
0.000168548
0.000168548
0.000168548
0.000168548
0.000168548
0.000168548
0.000168548
0.000168548
0.000168548
0.000168548
0.000168548
0.000168548
0.000168548
0.000168548
0.000168547
0.000168547
0.000168546
0.000168546
0.000168545
0.000168544
0.000168544
0.000168543
0.000168543
0.000168542
0.000168541
0.000168541
0.00016854
0.000168539
0.000168539
0.000168538
0.000168538
0.000168538
0.000168109
0.000168107
0.000168104
0.000168102
0.0001681
0.000168099
0.000168097
0.000168096
0.000168095
0.000168094
0.000168093
0.000168092
0.000168092
0.000168092
0.000168091
0.000168091
0.000168091
0.000168091
0.000168092
0.000168092
0.000168092
0.000168093
0.000168093
0.000168094
0.000168094
0.000168095
0.000168095
0.000168096
0.000168097
0.000168097
0.000168098
0.000168099
0.0001681
0.000168101
0.000168102
0.000168102
0.000168103
0.000168104
0.000168105
0.000168105
0.000168106
0.000168107
0.000168107
0.000168108
0.000168109
0.000168109
0.00016811
0.000168111
0.000168111
0.000168112
0.000168112
0.000168112
0.000168113
0.000168113
0.000168114
0.000168114
0.000168115
0.000168115
0.000168115
0.000168116
0.000168116
0.000168117
0.000168117
0.000168117
0.000168118
0.000168118
0.000168118
0.000168119
0.000168119
0.000168119
0.000168119
0.000168119
0.00016812
0.00016812
0.00016812
0.00016812
0.00016812
0.000168121
0.000168121
0.000168121
0.000168121
0.000168121
0.000168122
0.000168122
0.000168122
0.000168122
0.000168122
0.000168122
0.000168122
0.000168122
0.000168122
0.000168122
0.000168122
0.000168122
0.000168122
0.000168122
0.000168122
0.000168122
0.000168122
0.000168122
0.000168122
0.000168122
0.000168121
0.000168121
0.00016812
0.00016812
0.000168119
0.000168118
0.000168118
0.000168117
0.000168117
0.000168116
0.000168115
0.000168115
0.000168114
0.000168113
0.000168113
0.000168112
0.000168111
0.000168112
0.000167513
0.000167511
0.000167509
0.000167506
0.000167504
0.000167502
0.000167501
0.000167499
0.000167498
0.000167497
0.000167497
0.000167496
0.000167496
0.000167495
0.000167495
0.000167495
0.000167495
0.000167495
0.000167496
0.000167496
0.000167496
0.000167497
0.000167497
0.000167498
0.000167498
0.000167499
0.0001675
0.0001675
0.000167501
0.000167502
0.000167503
0.000167503
0.000167504
0.000167505
0.000167506
0.000167507
0.000167508
0.000167508
0.000167509
0.00016751
0.000167511
0.000167511
0.000167512
0.000167513
0.000167513
0.000167514
0.000167515
0.000167515
0.000167516
0.000167516
0.000167517
0.000167517
0.000167518
0.000167518
0.000167518
0.000167519
0.000167519
0.00016752
0.00016752
0.00016752
0.000167521
0.000167521
0.000167521
0.000167522
0.000167522
0.000167522
0.000167523
0.000167523
0.000167523
0.000167523
0.000167524
0.000167524
0.000167524
0.000167524
0.000167524
0.000167525
0.000167525
0.000167525
0.000167525
0.000167525
0.000167526
0.000167526
0.000167526
0.000167526
0.000167526
0.000167526
0.000167526
0.000167526
0.000167526
0.000167526
0.000167526
0.000167526
0.000167526
0.000167526
0.000167526
0.000167526
0.000167526
0.000167526
0.000167526
0.000167526
0.000167526
0.000167526
0.000167526
0.000167525
0.000167525
0.000167524
0.000167524
0.000167523
0.000167522
0.000167522
0.000167521
0.00016752
0.00016752
0.000167519
0.000167519
0.000167518
0.000167517
0.000167517
0.000167516
0.000167516
0.000166728
0.000166725
0.000166723
0.00016672
0.000166718
0.000166716
0.000166715
0.000166713
0.000166712
0.000166711
0.00016671
0.00016671
0.00016671
0.000166709
0.000166709
0.000166709
0.000166709
0.000166709
0.00016671
0.00016671
0.00016671
0.000166711
0.000166711
0.000166712
0.000166713
0.000166713
0.000166714
0.000166714
0.000166715
0.000166716
0.000166717
0.000166718
0.000166719
0.000166719
0.00016672
0.000166721
0.000166722
0.000166723
0.000166723
0.000166724
0.000166725
0.000166726
0.000166727
0.000166727
0.000166728
0.000166729
0.000166729
0.00016673
0.00016673
0.000166731
0.000166731
0.000166732
0.000166732
0.000166732
0.000166733
0.000166733
0.000166734
0.000166734
0.000166734
0.000166735
0.000166735
0.000166735
0.000166736
0.000166736
0.000166736
0.000166737
0.000166737
0.000166737
0.000166737
0.000166738
0.000166738
0.000166738
0.000166738
0.000166738
0.000166739
0.000166739
0.000166739
0.000166739
0.000166739
0.00016674
0.00016674
0.00016674
0.00016674
0.00016674
0.00016674
0.00016674
0.00016674
0.00016674
0.00016674
0.00016674
0.00016674
0.00016674
0.00016674
0.00016674
0.00016674
0.00016674
0.00016674
0.00016674
0.00016674
0.00016674
0.00016674
0.00016674
0.00016674
0.00016674
0.000166739
0.000166739
0.000166738
0.000166737
0.000166737
0.000166736
0.000166736
0.000166735
0.000166734
0.000166734
0.000166733
0.000166732
0.000166732
0.000166731
0.00016673
0.00016673
0.000165727
0.000165724
0.000165722
0.000165719
0.000165717
0.000165715
0.000165713
0.000165712
0.000165711
0.00016571
0.000165709
0.000165709
0.000165708
0.000165708
0.000165708
0.000165708
0.000165708
0.000165708
0.000165709
0.000165709
0.000165709
0.00016571
0.000165711
0.000165711
0.000165712
0.000165712
0.000165713
0.000165714
0.000165714
0.000165715
0.000165716
0.000165717
0.000165718
0.000165719
0.00016572
0.00016572
0.000165721
0.000165722
0.000165723
0.000165724
0.000165724
0.000165725
0.000165726
0.000165727
0.000165727
0.000165728
0.000165728
0.000165729
0.00016573
0.00016573
0.00016573
0.000165731
0.000165731
0.000165732
0.000165732
0.000165733
0.000165733
0.000165733
0.000165734
0.000165734
0.000165734
0.000165735
0.000165735
0.000165735
0.000165736
0.000165736
0.000165736
0.000165736
0.000165737
0.000165737
0.000165737
0.000165737
0.000165737
0.000165737
0.000165738
0.000165738
0.000165738
0.000165738
0.000165738
0.000165738
0.000165739
0.000165739
0.000165739
0.000165739
0.000165739
0.000165739
0.000165739
0.000165739
0.000165739
0.000165739
0.000165739
0.000165739
0.000165739
0.000165739
0.000165739
0.000165739
0.000165739
0.000165739
0.000165739
0.000165739
0.000165739
0.000165739
0.000165739
0.000165739
0.000165738
0.000165738
0.000165737
0.000165737
0.000165736
0.000165735
0.000165735
0.000165734
0.000165734
0.000165733
0.000165732
0.000165732
0.000165731
0.00016573
0.00016573
0.00016573
0.00016448
0.000164478
0.000164475
0.000164472
0.00016447
0.000164468
0.000164466
0.000164465
0.000164464
0.000164463
0.000164462
0.000164462
0.000164461
0.000164461
0.000164461
0.000164461
0.000164461
0.000164462
0.000164462
0.000164462
0.000164463
0.000164463
0.000164464
0.000164465
0.000164465
0.000164466
0.000164467
0.000164467
0.000164468
0.000164469
0.00016447
0.00016447
0.000164471
0.000164472
0.000164473
0.000164474
0.000164475
0.000164475
0.000164476
0.000164477
0.000164478
0.000164478
0.000164479
0.00016448
0.000164481
0.000164481
0.000164482
0.000164482
0.000164483
0.000164483
0.000164484
0.000164484
0.000164485
0.000164485
0.000164486
0.000164486
0.000164486
0.000164487
0.000164487
0.000164487
0.000164488
0.000164488
0.000164488
0.000164489
0.000164489
0.000164489
0.000164489
0.000164489
0.00016449
0.00016449
0.00016449
0.00016449
0.00016449
0.000164491
0.000164491
0.000164491
0.000164491
0.000164491
0.000164491
0.000164492
0.000164492
0.000164492
0.000164492
0.000164492
0.000164492
0.000164492
0.000164492
0.000164492
0.000164492
0.000164492
0.000164492
0.000164492
0.000164492
0.000164492
0.000164492
0.000164492
0.000164492
0.000164492
0.000164492
0.000164492
0.000164492
0.000164492
0.000164492
0.000164492
0.000164491
0.000164491
0.000164491
0.00016449
0.00016449
0.000164489
0.000164488
0.000164488
0.000164487
0.000164486
0.000164486
0.000164485
0.000164484
0.000164484
0.000164483
0.000164483
0.00016295
0.000162947
0.000162944
0.000162942
0.00016294
0.000162938
0.000162936
0.000162935
0.000162933
0.000162932
0.000162932
0.000162931
0.000162931
0.000162931
0.000162931
0.000162931
0.000162931
0.000162931
0.000162932
0.000162932
0.000162933
0.000162933
0.000162934
0.000162935
0.000162935
0.000162936
0.000162936
0.000162937
0.000162938
0.000162939
0.000162939
0.00016294
0.000162941
0.000162942
0.000162943
0.000162943
0.000162944
0.000162945
0.000162946
0.000162947
0.000162947
0.000162948
0.000162949
0.00016295
0.00016295
0.000162951
0.000162952
0.000162952
0.000162953
0.000162953
0.000162954
0.000162954
0.000162954
0.000162955
0.000162955
0.000162955
0.000162956
0.000162956
0.000162956
0.000162957
0.000162957
0.000162957
0.000162958
0.000162958
0.000162958
0.000162958
0.000162959
0.000162959
0.000162959
0.000162959
0.000162959
0.00016296
0.00016296
0.00016296
0.00016296
0.00016296
0.00016296
0.000162961
0.000162961
0.000162961
0.000162961
0.000162961
0.000162961
0.000162961
0.000162961
0.000162962
0.000162962
0.000162962
0.000162962
0.000162962
0.000162962
0.000162962
0.000162962
0.000162962
0.000162962
0.000162962
0.000162962
0.000162962
0.000162962
0.000162962
0.000162961
0.000162961
0.000162961
0.000162961
0.000162961
0.000162961
0.00016296
0.00016296
0.000162959
0.000162959
0.000162958
0.000162957
0.000162957
0.000162956
0.000162956
0.000162955
0.000162954
0.000162954
0.000162953
0.000162953
0.000161089
0.000161086
0.000161083
0.000161081
0.000161078
0.000161076
0.000161075
0.000161073
0.000161072
0.000161071
0.000161071
0.00016107
0.00016107
0.00016107
0.00016107
0.00016107
0.00016107
0.00016107
0.000161071
0.000161071
0.000161072
0.000161072
0.000161073
0.000161074
0.000161074
0.000161075
0.000161076
0.000161076
0.000161077
0.000161078
0.000161078
0.000161079
0.00016108
0.000161081
0.000161082
0.000161082
0.000161083
0.000161084
0.000161085
0.000161086
0.000161086
0.000161087
0.000161088
0.000161089
0.000161089
0.00016109
0.00016109
0.000161091
0.000161091
0.000161092
0.000161092
0.000161093
0.000161093
0.000161094
0.000161094
0.000161094
0.000161095
0.000161095
0.000161095
0.000161096
0.000161096
0.000161096
0.000161096
0.000161097
0.000161097
0.000161097
0.000161097
0.000161098
0.000161098
0.000161098
0.000161098
0.000161098
0.000161098
0.000161099
0.000161099
0.000161099
0.000161099
0.000161099
0.000161099
0.000161099
0.0001611
0.0001611
0.0001611
0.0001611
0.0001611
0.0001611
0.0001611
0.0001611
0.0001611
0.0001611
0.0001611
0.0001611
0.0001611
0.0001611
0.0001611
0.0001611
0.0001611
0.0001611
0.0001611
0.0001611
0.0001611
0.0001611
0.0001611
0.0001611
0.0001611
0.000161099
0.000161099
0.000161099
0.000161098
0.000161098
0.000161097
0.000161096
0.000161096
0.000161095
0.000161095
0.000161094
0.000161093
0.000161093
0.000161092
0.000161092
0.000158839
0.000158836
0.000158833
0.00015883
0.000158828
0.000158826
0.000158824
0.000158823
0.000158822
0.000158821
0.00015882
0.00015882
0.000158819
0.000158819
0.000158819
0.000158819
0.00015882
0.00015882
0.00015882
0.000158821
0.000158821
0.000158822
0.000158823
0.000158824
0.000158824
0.000158825
0.000158826
0.000158826
0.000158827
0.000158827
0.000158828
0.000158829
0.00015883
0.00015883
0.000158831
0.000158832
0.000158833
0.000158833
0.000158834
0.000158835
0.000158836
0.000158836
0.000158837
0.000158838
0.000158839
0.000158839
0.00015884
0.00015884
0.000158841
0.000158841
0.000158842
0.000158842
0.000158843
0.000158843
0.000158843
0.000158844
0.000158844
0.000158844
0.000158844
0.000158845
0.000158845
0.000158845
0.000158846
0.000158846
0.000158846
0.000158846
0.000158847
0.000158847
0.000158847
0.000158847
0.000158847
0.000158847
0.000158847
0.000158848
0.000158848
0.000158848
0.000158848
0.000158848
0.000158848
0.000158848
0.000158849
0.000158849
0.000158849
0.000158849
0.000158849
0.000158849
0.000158849
0.000158849
0.000158849
0.000158849
0.000158849
0.000158849
0.000158849
0.000158849
0.000158849
0.000158849
0.000158849
0.000158849
0.000158849
0.000158849
0.000158849
0.000158849
0.000158849
0.000158849
0.000158849
0.000158849
0.000158848
0.000158848
0.000158847
0.000158847
0.000158846
0.000158846
0.000158845
0.000158845
0.000158844
0.000158844
0.000158843
0.000158842
0.000158841
0.000158842
0.000156125
0.000156122
0.000156119
0.000156116
0.000156114
0.000156112
0.00015611
0.000156109
0.000156108
0.000156107
0.000156106
0.000156106
0.000156106
0.000156106
0.000156106
0.000156106
0.000156106
0.000156106
0.000156107
0.000156107
0.000156108
0.000156109
0.000156109
0.00015611
0.000156111
0.000156111
0.000156112
0.000156113
0.000156113
0.000156114
0.000156114
0.000156115
0.000156116
0.000156117
0.000156117
0.000156118
0.000156119
0.00015612
0.00015612
0.000156121
0.000156122
0.000156122
0.000156123
0.000156124
0.000156125
0.000156125
0.000156126
0.000156126
0.000156127
0.000156127
0.000156128
0.000156128
0.000156128
0.000156129
0.000156129
0.000156129
0.00015613
0.00015613
0.00015613
0.00015613
0.000156131
0.000156131
0.000156131
0.000156132
0.000156132
0.000156132
0.000156132
0.000156132
0.000156133
0.000156133
0.000156133
0.000156133
0.000156133
0.000156133
0.000156133
0.000156133
0.000156134
0.000156134
0.000156134
0.000156134
0.000156134
0.000156134
0.000156134
0.000156135
0.000156135
0.000156135
0.000156135
0.000156135
0.000156135
0.000156135
0.000156135
0.000156135
0.000156135
0.000156135
0.000156135
0.000156135
0.000156135
0.000156135
0.000156135
0.000156135
0.000156135
0.000156135
0.000156135
0.000156135
0.000156135
0.000156134
0.000156134
0.000156134
0.000156133
0.000156133
0.000156132
0.000156132
0.000156131
0.000156131
0.00015613
0.00015613
0.000156129
0.000156129
0.000156128
0.000156128
0.000152854
0.000152851
0.000152848
0.000152846
0.000152843
0.000152841
0.00015284
0.000152838
0.000152837
0.000152836
0.000152835
0.000152835
0.000152835
0.000152835
0.000152835
0.000152835
0.000152835
0.000152836
0.000152836
0.000152837
0.000152837
0.000152838
0.000152839
0.000152839
0.00015284
0.000152841
0.000152841
0.000152842
0.000152842
0.000152843
0.000152844
0.000152844
0.000152845
0.000152846
0.000152846
0.000152847
0.000152848
0.000152848
0.000152849
0.00015285
0.000152851
0.000152851
0.000152852
0.000152853
0.000152853
0.000152854
0.000152854
0.000152855
0.000152855
0.000152856
0.000152856
0.000152857
0.000152857
0.000152857
0.000152858
0.000152858
0.000152858
0.000152858
0.000152859
0.000152859
0.000152859
0.00015286
0.00015286
0.00015286
0.00015286
0.00015286
0.000152861
0.000152861
0.000152861
0.000152861
0.000152861
0.000152861
0.000152862
0.000152862
0.000152862
0.000152862
0.000152862
0.000152862
0.000152862
0.000152862
0.000152863
0.000152863
0.000152863
0.000152863
0.000152863
0.000152863
0.000152863
0.000152863
0.000152863
0.000152863
0.000152863
0.000152863
0.000152863
0.000152863
0.000152863
0.000152863
0.000152863
0.000152863
0.000152863
0.000152863
0.000152863
0.000152863
0.000152863
0.000152863
0.000152863
0.000152863
0.000152863
0.000152862
0.000152862
0.000152862
0.000152861
0.000152861
0.00015286
0.00015286
0.000152859
0.000152859
0.000152858
0.000152858
0.000152857
0.000152857
0.000148907
0.000148904
0.000148901
0.000148898
0.000148896
0.000148894
0.000148892
0.000148891
0.00014889
0.000148889
0.000148888
0.000148888
0.000148888
0.000148888
0.000148888
0.000148888
0.000148888
0.000148889
0.000148889
0.00014889
0.00014889
0.000148891
0.000148892
0.000148892
0.000148893
0.000148894
0.000148894
0.000148895
0.000148895
0.000148896
0.000148896
0.000148897
0.000148898
0.000148898
0.000148899
0.0001489
0.0001489
0.000148901
0.000148901
0.000148902
0.000148903
0.000148903
0.000148904
0.000148905
0.000148905
0.000148906
0.000148907
0.000148907
0.000148908
0.000148908
0.000148908
0.000148909
0.000148909
0.000148909
0.00014891
0.00014891
0.00014891
0.000148911
0.000148911
0.000148911
0.000148911
0.000148912
0.000148912
0.000148912
0.000148912
0.000148912
0.000148913
0.000148913
0.000148913
0.000148913
0.000148913
0.000148913
0.000148913
0.000148914
0.000148914
0.000148914
0.000148914
0.000148914
0.000148914
0.000148914
0.000148915
0.000148915
0.000148915
0.000148915
0.000148915
0.000148915
0.000148915
0.000148915
0.000148915
0.000148915
0.000148915
0.000148915
0.000148915
0.000148915
0.000148915
0.000148915
0.000148915
0.000148915
0.000148915
0.000148915
0.000148915
0.000148915
0.000148915
0.000148915
0.000148915
0.000148915
0.000148915
0.000148915
0.000148914
0.000148914
0.000148914
0.000148913
0.000148913
0.000148912
0.000148912
0.000148911
0.000148911
0.00014891
0.000148909
0.000148909
0.00014413
0.000144127
0.000144125
0.000144122
0.00014412
0.000144118
0.000144116
0.000144115
0.000144114
0.000144113
0.000144112
0.000144112
0.000144112
0.000144111
0.000144112
0.000144112
0.000144112
0.000144112
0.000144113
0.000144113
0.000144114
0.000144115
0.000144115
0.000144116
0.000144117
0.000144117
0.000144118
0.000144118
0.000144119
0.000144119
0.00014412
0.00014412
0.000144121
0.000144122
0.000144122
0.000144123
0.000144123
0.000144124
0.000144125
0.000144125
0.000144126
0.000144127
0.000144127
0.000144128
0.000144128
0.000144129
0.00014413
0.00014413
0.00014413
0.000144131
0.000144131
0.000144132
0.000144132
0.000144132
0.000144133
0.000144133
0.000144133
0.000144133
0.000144134
0.000144134
0.000144134
0.000144134
0.000144135
0.000144135
0.000144135
0.000144135
0.000144135
0.000144136
0.000144136
0.000144136
0.000144136
0.000144136
0.000144136
0.000144136
0.000144136
0.000144137
0.000144137
0.000144137
0.000144137
0.000144137
0.000144137
0.000144137
0.000144137
0.000144138
0.000144138
0.000144138
0.000144138
0.000144138
0.000144138
0.000144138
0.000144138
0.000144138
0.000144138
0.000144138
0.000144138
0.000144138
0.000144138
0.000144138
0.000144138
0.000144138
0.000144138
0.000144138
0.000144138
0.000144138
0.000144138
0.000144138
0.000144138
0.000144138
0.000144137
0.000144137
0.000144137
0.000144136
0.000144136
0.000144135
0.000144135
0.000144134
0.000144134
0.000144133
0.000144133
0.000144133
0.000138329
0.000138327
0.000138324
0.000138322
0.000138319
0.000138317
0.000138316
0.000138314
0.000138313
0.000138312
0.000138312
0.000138311
0.000138311
0.000138311
0.000138311
0.000138311
0.000138312
0.000138312
0.000138313
0.000138313
0.000138314
0.000138314
0.000138315
0.000138316
0.000138316
0.000138317
0.000138317
0.000138318
0.000138318
0.000138319
0.000138319
0.00013832
0.00013832
0.000138321
0.000138321
0.000138322
0.000138322
0.000138323
0.000138324
0.000138324
0.000138325
0.000138325
0.000138326
0.000138327
0.000138327
0.000138328
0.000138328
0.000138329
0.000138329
0.000138329
0.00013833
0.00013833
0.000138331
0.000138331
0.000138331
0.000138331
0.000138332
0.000138332
0.000138332
0.000138332
0.000138333
0.000138333
0.000138333
0.000138333
0.000138334
0.000138334
0.000138334
0.000138334
0.000138334
0.000138334
0.000138334
0.000138335
0.000138335
0.000138335
0.000138335
0.000138335
0.000138335
0.000138335
0.000138335
0.000138336
0.000138336
0.000138336
0.000138336
0.000138336
0.000138336
0.000138336
0.000138336
0.000138336
0.000138336
0.000138337
0.000138337
0.000138337
0.000138337
0.000138337
0.000138337
0.000138337
0.000138337
0.000138337
0.000138337
0.000138337
0.000138337
0.000138337
0.000138337
0.000138337
0.000138337
0.000138337
0.000138336
0.000138336
0.000138336
0.000138336
0.000138336