/*--------------------------------*- C++ -*----------------------------------*\
  =========                 |
  \\      /  F ield         | OpenFOAM: The Open Source CFD Toolbox
   \\    /   O peration     | Website:  https://openfoam.org
    \\  /    A nd           | Version:  7
     \\/     M anipulation  |
\*---------------------------------------------------------------------------*/
FoamFile
{
    version     2.0;
    format      ascii;
    class       volScalarField;
    location    "3500";
    object      omega;
}
// * * * * * * * * * * * * * * * * * * * * * * * * * * * * * * * * * * * * * //

dimensions      [0 0 -1 0 0 0 0];

internalField   nonuniform List<scalar> 
4037
(
0.610787
0.610769
0.610756
0.610747
0.610741
0.610735
0.61073
0.610726
0.610722
0.610718
0.610715
0.610713
0.610711
0.610708
0.610707
0.610705
0.610703
0.610702
0.610701
0.6107
0.610698
0.610697
0.610697
0.610696
0.610695
0.610694
0.610694
0.610693
0.610692
0.610692
0.610691
0.610691
0.61069
0.61069
0.610689
0.610689
0.610688
0.610688
0.610687
0.610687
0.610686
0.610686
0.610685
0.610685
0.610684
0.610684
0.610683
0.610683
0.610682
0.610682
0.610681
0.610681
0.61068
0.61068
0.61068
0.610679
0.610679
0.610679
0.610678
0.610678
0.610678
0.610678
0.610677
0.610677
0.610677
0.610677
0.610677
0.610677
0.610677
0.610678
0.610678
0.610678
0.610678
0.610679
0.610679
0.61068
0.610677
0.645794
0.645804
0.645802
0.645798
0.645794
0.645791
0.645788
0.645785
0.645781
0.645778
0.645774
0.645771
0.645768
0.645766
0.645763
0.645762
0.64576
0.645759
0.645758
0.645757
0.645756
0.645755
0.645754
0.645756
0.645718
0.645694
0.645679
0.645668
0.64566
0.645653
0.645647
0.645642
0.645638
0.645634
0.645631
0.645628
0.645626
0.645623
0.645621
0.645619
0.645617
0.645616
0.645614
0.645613
0.645612
0.645611
0.64561
0.645609
0.645608
0.645607
0.645606
0.645605
0.645605
0.645604
0.645603
0.645603
0.645602
0.645601
0.645601
0.6456
0.645599
0.645599
0.645598
0.645598
0.645597
0.645596
0.645596
0.645595
0.645595
0.645594
0.645594
0.645593
0.645592
0.645592
0.645591
0.645591
0.64559
0.64559
0.645589
0.645589
0.645589
0.645588
0.645588
0.645587
0.645587
0.645587
0.645587
0.645587
0.645586
0.645586
0.645586
0.645586
0.645586
0.645587
0.645587
0.645587
0.645587
0.645587
0.645588
0.645589
0.645583
0.645644
0.645669
0.64568
0.645688
0.645694
0.6457
0.645705
0.645709
0.645713
0.645717
0.64572
0.645723
0.645726
0.645728
0.645731
0.645733
0.645735
0.645739
0.645731
0.683208
0.683221
0.68322
0.683216
0.683212
0.683208
0.683205
0.683201
0.683198
0.683194
0.68319
0.683186
0.683183
0.68318
0.683178
0.683176
0.683174
0.683172
0.683171
0.68317
0.683169
0.683168
0.683167
0.683169
0.68315
0.68313
0.683115
0.683103
0.683094
0.683087
0.683081
0.683076
0.683071
0.683067
0.683063
0.68306
0.683057
0.683055
0.683053
0.683051
0.683049
0.683047
0.683045
0.683044
0.683042
0.683041
0.68304
0.683039
0.683038
0.683037
0.683036
0.683035
0.683034
0.683033
0.683032
0.683032
0.683031
0.68303
0.683029
0.683029
0.683028
0.683027
0.683027
0.683026
0.683025
0.683025
0.683024
0.683023
0.683023
0.683022
0.683021
0.683021
0.68302
0.683019
0.683019
0.683018
0.683018
0.683017
0.683016
0.683016
0.683015
0.683015
0.683015
0.683014
0.683014
0.683014
0.683013
0.683013
0.683013
0.683013
0.683013
0.683013
0.683013
0.683013
0.683013
0.683013
0.683013
0.683013
0.683014
0.683015
0.68301
0.68304
0.683065
0.68308
0.68309
0.683097
0.683104
0.683109
0.683114
0.683118
0.683122
0.683126
0.683129
0.683132
0.683134
0.683137
0.683139
0.683141
0.683145
0.683136
0.723436
0.723452
0.723452
0.723448
0.723443
0.723439
0.723435
0.723432
0.723428
0.723423
0.723419
0.723415
0.723411
0.723408
0.723406
0.723403
0.723401
0.7234
0.723398
0.723397
0.723396
0.723395
0.723394
0.723395
0.723386
0.723373
0.723359
0.723349
0.72334
0.723332
0.723326
0.723321
0.723316
0.723312
0.723308
0.723304
0.723301
0.723299
0.723296
0.723294
0.723292
0.72329
0.723289
0.723287
0.723285
0.723284
0.723283
0.723281
0.72328
0.723279
0.723278
0.723277
0.723276
0.723275
0.723274
0.723273
0.723272
0.723271
0.723271
0.72327
0.723269
0.723268
0.723267
0.723267
0.723266
0.723265
0.723264
0.723264
0.723263
0.723262
0.723261
0.723261
0.72326
0.723259
0.723258
0.723258
0.723257
0.723257
0.723256
0.723255
0.723255
0.723254
0.723254
0.723253
0.723253
0.723253
0.723252
0.723252
0.723252
0.723252
0.723252
0.723252
0.723251
0.723252
0.723252
0.723252
0.723252
0.723252
0.723252
0.723253
0.72325
0.723264
0.723282
0.723297
0.723308
0.723316
0.723323
0.723328
0.723333
0.723338
0.723342
0.723345
0.723349
0.723352
0.723354
0.723357
0.723359
0.723361
0.723366
0.723355
0.766824
0.766842
0.766842
0.766837
0.766833
0.766828
0.766824
0.76682
0.766816
0.766811
0.766806
0.766802
0.766798
0.766795
0.766792
0.766789
0.766787
0.766785
0.766784
0.766782
0.766781
0.76678
0.766779
0.76678
0.766776
0.766767
0.766757
0.766748
0.76674
0.766733
0.766727
0.766721
0.766716
0.766712
0.766708
0.766705
0.766702
0.766699
0.766697
0.766694
0.766692
0.76669
0.766688
0.766687
0.766685
0.766683
0.766682
0.766681
0.766679
0.766678
0.766677
0.766676
0.766675
0.766674
0.766672
0.766671
0.76667
0.766669
0.766669
0.766668
0.766667
0.766666
0.766665
0.766664
0.766663
0.766662
0.766661
0.766661
0.76666
0.766659
0.766658
0.766657
0.766657
0.766656
0.766655
0.766654
0.766654
0.766653
0.766652
0.766652
0.766651
0.76665
0.76665
0.766649
0.766649
0.766649
0.766648
0.766648
0.766648
0.766647
0.766647
0.766647
0.766647
0.766647
0.766647
0.766647
0.766647
0.766647
0.766647
0.766648
0.766646
0.766652
0.766664
0.766676
0.766686
0.766694
0.766701
0.766707
0.766712
0.766717
0.766721
0.766724
0.766727
0.76673
0.766733
0.766736
0.766738
0.76674
0.766745
0.766732
0.813774
0.813794
0.813794
0.813789
0.813783
0.813778
0.813774
0.81377
0.813765
0.81376
0.813755
0.81375
0.813746
0.813742
0.813739
0.813736
0.813734
0.813732
0.81373
0.813729
0.813728
0.813727
0.813726
0.813726
0.813724
0.813719
0.813712
0.813705
0.813698
0.813691
0.813686
0.813681
0.813676
0.813672
0.813668
0.813665
0.813662
0.813659
0.813656
0.813654
0.813652
0.81365
0.813648
0.813646
0.813644
0.813643
0.813641
0.81364
0.813638
0.813637
0.813636
0.813634
0.813633
0.813632
0.813631
0.81363
0.813629
0.813627
0.813626
0.813625
0.813624
0.813623
0.813622
0.813621
0.81362
0.813619
0.813618
0.813618
0.813617
0.813616
0.813615
0.813614
0.813613
0.813612
0.813611
0.813611
0.81361
0.813609
0.813608
0.813608
0.813607
0.813607
0.813606
0.813605
0.813605
0.813604
0.813604
0.813604
0.813603
0.813603
0.813603
0.813603
0.813603
0.813603
0.813602
0.813602
0.813602
0.813603
0.813603
0.813603
0.813602
0.813605
0.813611
0.81362
0.813629
0.813636
0.813642
0.813648
0.813653
0.813657
0.813661
0.813665
0.813668
0.813671
0.813674
0.813676
0.813679
0.81368
0.813686
0.81367
0.864759
0.864781
0.864781
0.864776
0.86477
0.864764
0.864759
0.864755
0.86475
0.864744
0.864739
0.864734
0.864729
0.864725
0.864722
0.864719
0.864716
0.864714
0.864713
0.864711
0.86471
0.864709
0.864708
0.864708
0.864707
0.864704
0.8647
0.864694
0.864689
0.864683
0.864678
0.864674
0.864669
0.864665
0.864662
0.864659
0.864656
0.864653
0.86465
0.864648
0.864646
0.864644
0.864642
0.86464
0.864638
0.864636
0.864635
0.864633
0.864632
0.86463
0.864629
0.864627
0.864626
0.864625
0.864623
0.864622
0.864621
0.86462
0.864619
0.864617
0.864616
0.864615
0.864614
0.864613
0.864612
0.864611
0.86461
0.864609
0.864608
0.864607
0.864606
0.864605
0.864604
0.864603
0.864602
0.864601
0.864601
0.8646
0.864599
0.864598
0.864598
0.864597
0.864596
0.864596
0.864595
0.864595
0.864594
0.864594
0.864594
0.864593
0.864593
0.864593
0.864593
0.864592
0.864592
0.864592
0.864592
0.864592
0.864592
0.864593
0.864592
0.864593
0.864597
0.864603
0.864609
0.864615
0.864621
0.864626
0.864631
0.864635
0.864639
0.864642
0.864645
0.864648
0.86465
0.864653
0.864655
0.864657
0.864663
0.864645
0.920342
0.920365
0.920365
0.920359
0.920352
0.920346
0.920341
0.920336
0.920331
0.920325
0.920319
0.920314
0.920309
0.920305
0.920301
0.920298
0.920296
0.920293
0.920292
0.92029
0.920289
0.920288
0.920287
0.920287
0.920286
0.920285
0.920282
0.920278
0.920274
0.92027
0.920265
0.920261
0.920257
0.920254
0.92025
0.920247
0.920245
0.920242
0.920239
0.920237
0.920235
0.920233
0.920231
0.920229
0.920227
0.920225
0.920223
0.920222
0.92022
0.920218
0.920217
0.920216
0.920214
0.920213
0.920211
0.92021
0.920209
0.920207
0.920206
0.920205
0.920204
0.920202
0.920201
0.9202
0.920199
0.920198
0.920197
0.920196
0.920195
0.920194
0.920193
0.920192
0.920191
0.92019
0.920189
0.920188
0.920187
0.920186
0.920185
0.920184
0.920184
0.920183
0.920182
0.920182
0.920181
0.920181
0.92018
0.92018
0.920179
0.920179
0.920179
0.920178
0.920178
0.920178
0.920178
0.920178
0.920178
0.920178
0.920178
0.920178
0.920178
0.920178
0.92018
0.920183
0.920188
0.920193
0.920197
0.920202
0.920206
0.92021
0.920213
0.920216
0.920219
0.920222
0.920224
0.920226
0.920229
0.92023
0.920236
0.920216
0.981188
0.981213
0.981213
0.981206
0.981199
0.981192
0.981186
0.981181
0.981175
0.981169
0.981163
0.981157
0.981152
0.981148
0.981144
0.981141
0.981138
0.981136
0.981135
0.981133
0.981132
0.981131
0.98113
0.98113
0.981129
0.981128
0.981127
0.981124
0.981121
0.981118
0.981114
0.981111
0.981107
0.981104
0.981101
0.981098
0.981096
0.981093
0.981091
0.981088
0.981086
0.981084
0.981082
0.98108
0.981078
0.981076
0.981075
0.981073
0.981071
0.981069
0.981068
0.981066
0.981065
0.981063
0.981062
0.98106
0.981059
0.981058
0.981056
0.981055
0.981054
0.981052
0.981051
0.98105
0.981049
0.981047
0.981046
0.981045
0.981044
0.981043
0.981042
0.981041
0.98104
0.981039
0.981038
0.981037
0.981036
0.981035
0.981034
0.981033
0.981033
0.981032
0.981031
0.98103
0.98103
0.981029
0.981029
0.981028
0.981028
0.981027
0.981027
0.981027
0.981027
0.981026
0.981026
0.981026
0.981026
0.981026
0.981026
0.981026
0.981026
0.981026
0.981027
0.981029
0.981032
0.981035
0.981039
0.981042
0.981046
0.981049
0.981052
0.981055
0.981058
0.98106
0.981062
0.981064
0.981067
0.981068
0.981074
0.981052
1.0481
1.04812
1.04812
1.04812
1.04811
1.0481
1.04809
1.04809
1.04808
1.04807
1.04807
1.04806
1.04806
1.04805
1.04805
1.04805
1.04804
1.04804
1.04804
1.04804
1.04804
1.04804
1.04804
1.04803
1.04803
1.04803
1.04803
1.04803
1.04803
1.04803
1.04802
1.04802
1.04802
1.04802
1.04801
1.04801
1.04801
1.048
1.048
1.048
1.048
1.048
1.04799
1.04799
1.04799
1.04799
1.04799
1.04798
1.04798
1.04798
1.04798
1.04798
1.04798
1.04797
1.04797
1.04797
1.04797
1.04797
1.04797
1.04797
1.04796
1.04796
1.04796
1.04796
1.04796
1.04796
1.04796
1.04796
1.04795
1.04795
1.04795
1.04795
1.04795
1.04795
1.04795
1.04795
1.04795
1.04794
1.04794
1.04794
1.04794
1.04794
1.04794
1.04794
1.04794
1.04794
1.04794
1.04794
1.04794
1.04794
1.04794
1.04794
1.04794
1.04794
1.04794
1.04794
1.04794
1.04794
1.04793
1.04793
1.04793
1.04793
1.04794
1.04794
1.04794
1.04794
1.04794
1.04795
1.04795
1.04795
1.04795
1.04796
1.04796
1.04796
1.04796
1.04796
1.04797
1.04797
1.04797
1.04795
1.12203
1.12206
1.12206
1.12205
1.12204
1.12203
1.12202
1.12202
1.12201
1.122
1.122
1.12199
1.12199
1.12198
1.12198
1.12197
1.12197
1.12197
1.12197
1.12197
1.12196
1.12196
1.12196
1.12196
1.12196
1.12196
1.12196
1.12196
1.12196
1.12196
1.12195
1.12195
1.12195
1.12195
1.12195
1.12194
1.12194
1.12194
1.12194
1.12193
1.12193
1.12193
1.12193
1.12193
1.12192
1.12192
1.12192
1.12192
1.12192
1.12191
1.12191
1.12191
1.12191
1.12191
1.12191
1.1219
1.1219
1.1219
1.1219
1.1219
1.1219
1.1219
1.12189
1.12189
1.12189
1.12189
1.12189
1.12189
1.12189
1.12189
1.12188
1.12188
1.12188
1.12188
1.12188
1.12188
1.12188
1.12188
1.12188
1.12188
1.12187
1.12187
1.12187
1.12187
1.12187
1.12187
1.12187
1.12187
1.12187
1.12187
1.12187
1.12187
1.12187
1.12187
1.12187
1.12187
1.12187
1.12187
1.12187
1.12187
1.12187
1.12187
1.12187
1.12187
1.12187
1.12187
1.12187
1.12187
1.12188
1.12188
1.12188
1.12188
1.12188
1.12189
1.12189
1.12189
1.12189
1.12189
1.1219
1.12187
1.20415
1.20418
1.20418
1.20417
1.20416
1.20415
1.20414
1.20414
1.20413
1.20412
1.20411
1.20411
1.2041
1.2041
1.20409
1.20409
1.20409
1.20409
1.20409
1.20408
1.20408
1.20408
1.20408
1.20408
1.20408
1.20408
1.20408
1.20408
1.20408
1.20408
1.20407
1.20407
1.20407
1.20407
1.20407
1.20407
1.20406
1.20406
1.20406
1.20406
1.20405
1.20405
1.20405
1.20405
1.20405
1.20404
1.20404
1.20404
1.20404
1.20404
1.20404
1.20403
1.20403
1.20403
1.20403
1.20403
1.20402
1.20402
1.20402
1.20402
1.20402
1.20402
1.20402
1.20401
1.20401
1.20401
1.20401
1.20401
1.20401
1.20401
1.20401
1.204
1.204
1.204
1.204
1.204
1.204
1.204
1.204
1.204
1.204
1.20399
1.20399
1.20399
1.20399
1.20399
1.20399
1.20399
1.20399
1.20399
1.20399
1.20399
1.20399
1.20399
1.20399
1.20399
1.20399
1.20399
1.20399
1.20399
1.20399
1.20399
1.20399
1.20399
1.20399
1.20399
1.20399
1.20399
1.20399
1.20399
1.204
1.204
1.204
1.204
1.204
1.204
1.204
1.204
1.20401
1.20398
1.29588
1.29591
1.29591
1.2959
1.29589
1.29588
1.29588
1.29587
1.29586
1.29585
1.29585
1.29584
1.29584
1.29583
1.29583
1.29582
1.29582
1.29582
1.29582
1.29582
1.29582
1.29582
1.29581
1.29581
1.29581
1.29581
1.29581
1.29581
1.29581
1.29581
1.29581
1.29581
1.29581
1.2958
1.2958
1.2958
1.2958
1.2958
1.2958
1.29579
1.29579
1.29579
1.29579
1.29579
1.29578
1.29578
1.29578
1.29578
1.29578
1.29577
1.29577
1.29577
1.29577
1.29577
1.29576
1.29576
1.29576
1.29576
1.29576
1.29576
1.29575
1.29575
1.29575
1.29575
1.29575
1.29575
1.29575
1.29574
1.29574
1.29574
1.29574
1.29574
1.29574
1.29574
1.29574
1.29574
1.29573
1.29573
1.29573
1.29573
1.29573
1.29573
1.29573
1.29573
1.29573
1.29573
1.29573
1.29573
1.29573
1.29573
1.29572
1.29572
1.29572
1.29572
1.29572
1.29572
1.29572
1.29572
1.29572
1.29572
1.29572
1.29572
1.29572
1.29572
1.29572
1.29572
1.29572
1.29572
1.29573
1.29573
1.29573
1.29573
1.29573
1.29573
1.29573
1.29573
1.29573
1.29573
1.29574
1.29571
1.39899
1.39902
1.39902
1.39901
1.399
1.39899
1.39898
1.39898
1.39897
1.39896
1.39895
1.39895
1.39894
1.39894
1.39893
1.39893
1.39893
1.39893
1.39893
1.39893
1.39892
1.39892
1.39892
1.39892
1.39892
1.39892
1.39892
1.39892
1.39892
1.39892
1.39892
1.39892
1.39892
1.39891
1.39891
1.39891
1.39891
1.39891
1.39891
1.3989
1.3989
1.3989
1.3989
1.3989
1.39889
1.39889
1.39889
1.39889
1.39889
1.39888
1.39888
1.39888
1.39888
1.39888
1.39887
1.39887
1.39887
1.39887
1.39887
1.39887
1.39886
1.39886
1.39886
1.39886
1.39886
1.39886
1.39885
1.39885
1.39885
1.39885
1.39885
1.39885
1.39885
1.39885
1.39884
1.39884
1.39884
1.39884
1.39884
1.39884
1.39884
1.39884
1.39884
1.39884
1.39884
1.39884
1.39884
1.39884
1.39883
1.39883
1.39883
1.39883
1.39883
1.39883
1.39883
1.39883
1.39883
1.39883
1.39883
1.39883
1.39883
1.39883
1.39883
1.39883
1.39883
1.39883
1.39883
1.39883
1.39883
1.39883
1.39883
1.39883
1.39884
1.39884
1.39884
1.39884
1.39884
1.39884
1.39885
1.39882
1.51566
1.5157
1.51569
1.51568
1.51567
1.51566
1.51565
1.51564
1.51564
1.51563
1.51562
1.51562
1.51561
1.51561
1.5156
1.5156
1.5156
1.5156
1.5156
1.5156
1.5156
1.51559
1.51559
1.51559
1.51559
1.51559
1.51559
1.51559
1.51559
1.51559
1.51559
1.51559
1.51559
1.51558
1.51558
1.51558
1.51558
1.51558
1.51558
1.51557
1.51557
1.51557
1.51557
1.51557
1.51557
1.51556
1.51556
1.51556
1.51556
1.51556
1.51555
1.51555
1.51555
1.51555
1.51555
1.51554
1.51554
1.51554
1.51554
1.51554
1.51553
1.51553
1.51553
1.51553
1.51553
1.51553
1.51553
1.51552
1.51552
1.51552
1.51552
1.51552
1.51552
1.51552
1.51552
1.51552
1.51551
1.51551
1.51551
1.51551
1.51551
1.51551
1.51551
1.51551
1.51551
1.51551
1.51551
1.51551
1.51551
1.51551
1.51551
1.51551
1.5155
1.5155
1.5155
1.5155
1.5155
1.5155
1.5155
1.5155
1.5155
1.5155
1.5155
1.5155
1.5155
1.5155
1.5155
1.5155
1.5155
1.5155
1.5155
1.5155
1.5155
1.5155
1.51551
1.51551
1.51551
1.51551
1.51552
1.51548
1.64865
1.64868
1.64868
1.64867
1.64866
1.64865
1.64864
1.64863
1.64862
1.64861
1.64861
1.6486
1.6486
1.64859
1.64859
1.64859
1.64859
1.64858
1.64858
1.64858
1.64858
1.64858
1.64858
1.64858
1.64858
1.64858
1.64858
1.64858
1.64858
1.64857
1.64857
1.64857
1.64857
1.64857
1.64857
1.64857
1.64857
1.64856
1.64856
1.64856
1.64856
1.64856
1.64856
1.64855
1.64855
1.64855
1.64855
1.64854
1.64854
1.64854
1.64854
1.64854
1.64853
1.64853
1.64853
1.64853
1.64853
1.64852
1.64852
1.64852
1.64852
1.64852
1.64852
1.64851
1.64851
1.64851
1.64851
1.64851
1.64851
1.64851
1.64851
1.6485
1.6485
1.6485
1.6485
1.6485
1.6485
1.6485
1.6485
1.6485
1.6485
1.6485
1.6485
1.6485
1.64849
1.64849
1.64849
1.64849
1.64849
1.64849
1.64849
1.64849
1.64849
1.64849
1.64849
1.64849
1.64849
1.64849
1.64849
1.64849
1.64849
1.64849
1.64849
1.64849
1.64849
1.64849
1.64849
1.64849
1.64849
1.64849
1.64849
1.64849
1.64849
1.64849
1.64849
1.64849
1.64849
1.64849
1.6485
1.64847
1.80144
1.80148
1.80147
1.80146
1.80145
1.80144
1.80143
1.80142
1.80142
1.80141
1.8014
1.8014
1.8014
1.80139
1.80139
1.80139
1.80139
1.80138
1.80138
1.80138
1.80138
1.80138
1.80138
1.80138
1.80138
1.80138
1.80138
1.80137
1.80137
1.80137
1.80137
1.80137
1.80137
1.80137
1.80137
1.80137
1.80136
1.80136
1.80136
1.80136
1.80136
1.80136
1.80135
1.80135
1.80135
1.80135
1.80135
1.80134
1.80134
1.80134
1.80134
1.80133
1.80133
1.80133
1.80133
1.80133
1.80132
1.80132
1.80132
1.80132
1.80132
1.80132
1.80131
1.80131
1.80131
1.80131
1.80131
1.80131
1.80131
1.80131
1.8013
1.8013
1.8013
1.8013
1.8013
1.8013
1.8013
1.8013
1.8013
1.8013
1.8013
1.8013
1.80129
1.80129
1.80129
1.80129
1.80129
1.80129
1.80129
1.80129
1.80129
1.80129
1.80129
1.80129
1.80129
1.80129
1.80129
1.80129
1.80129
1.80129
1.80129
1.80129
1.80129
1.80129
1.80129
1.80129
1.80129
1.80129
1.80129
1.80129
1.80129
1.80129
1.80129
1.80129
1.80129
1.80129
1.80129
1.80129
1.8013
1.80126
1.97855
1.97858
1.97858
1.97857
1.97856
1.97855
1.97854
1.97853
1.97853
1.97852
1.97852
1.97851
1.97851
1.9785
1.9785
1.9785
1.9785
1.9785
1.9785
1.9785
1.97849
1.97849
1.97849
1.97849
1.97849
1.97849
1.97849
1.97849
1.97848
1.97848
1.97848
1.97848
1.97848
1.97848
1.97848
1.97848
1.97847
1.97847
1.97847
1.97847
1.97847
1.97847
1.97846
1.97846
1.97846
1.97846
1.97846
1.97845
1.97845
1.97845
1.97845
1.97844
1.97844
1.97844
1.97844
1.97844
1.97843
1.97843
1.97843
1.97843
1.97843
1.97843
1.97842
1.97842
1.97842
1.97842
1.97842
1.97842
1.97842
1.97842
1.97841
1.97841
1.97841
1.97841
1.97841
1.97841
1.97841
1.97841
1.97841
1.97841
1.97841
1.97841
1.97841
1.97841
1.97841
1.97841
1.97841
1.9784
1.9784
1.9784
1.9784
1.9784
1.9784
1.9784
1.9784
1.9784
1.9784
1.9784
1.9784
1.9784
1.9784
1.9784
1.9784
1.9784
1.9784
1.9784
1.9784
1.9784
1.9784
1.9784
1.9784
1.9784
1.9784
1.9784
1.9784
1.9784
1.9784
1.9784
1.97841
1.97837
2.18583
2.18586
2.18586
2.18585
2.18584
2.18583
2.18582
2.18582
2.18581
2.18581
2.1858
2.1858
2.1858
2.18579
2.18579
2.18579
2.18579
2.18579
2.18579
2.18579
2.18578
2.18578
2.18578
2.18578
2.18578
2.18578
2.18577
2.18577
2.18577
2.18577
2.18577
2.18577
2.18577
2.18576
2.18576
2.18576
2.18576
2.18576
2.18576
2.18575
2.18575
2.18575
2.18575
2.18575
2.18574
2.18574
2.18574
2.18574
2.18574
2.18573
2.18573
2.18573
2.18573
2.18573
2.18572
2.18572
2.18572
2.18572
2.18572
2.18571
2.18571
2.18571
2.18571
2.18571
2.18571
2.18571
2.18571
2.1857
2.1857
2.1857
2.1857
2.1857
2.1857
2.1857
2.1857
2.1857
2.1857
2.1857
2.1857
2.1857
2.1857
2.1857
2.18569
2.18569
2.18569
2.18569
2.18569
2.18569
2.18569
2.18569
2.18569
2.18569
2.18569
2.18569
2.18569
2.18569
2.18569
2.18569
2.18569
2.18569
2.18569
2.18569
2.18569
2.18569
2.18569
2.18569
2.18569
2.18569
2.18569
2.18569
2.18569
2.18569
2.18569
2.18569
2.18569
2.18569
2.18569
2.18569
2.1857
2.18566
2.43103
2.43106
2.43106
2.43105
2.43104
2.43103
2.43103
2.43102
2.43102
2.43102
2.43101
2.43101
2.43101
2.43101
2.431
2.431
2.431
2.431
2.431
2.431
2.431
2.43099
2.43099
2.43099
2.43099
2.43099
2.43098
2.43098
2.43098
2.43098
2.43098
2.43098
2.43097
2.43097
2.43097
2.43097
2.43097
2.43097
2.43096
2.43096
2.43096
2.43096
2.43096
2.43095
2.43095
2.43095
2.43095
2.43095
2.43094
2.43094
2.43094
2.43094
2.43094
2.43093
2.43093
2.43093
2.43093
2.43093
2.43092
2.43092
2.43092
2.43092
2.43092
2.43092
2.43092
2.43092
2.43091
2.43091
2.43091
2.43091
2.43091
2.43091
2.43091
2.43091
2.43091
2.43091
2.43091
2.43091
2.43091
2.43091
2.43091
2.43091
2.43091
2.43091
2.43091
2.43091
2.43091
2.43091
2.43091
2.43091
2.43091
2.43091
2.43091
2.43091
2.43091
2.43091
2.43091
2.43091
2.43091
2.43091
2.43091
2.43091
2.43091
2.43091
2.43091
2.43091
2.43091
2.43091
2.4309
2.4309
2.4309
2.4309
2.4309
2.4309
2.4309
2.4309
2.4309
2.4309
2.43091
2.43088
2.72455
2.72458
2.72458
2.72457
2.72456
2.72456
2.72455
2.72455
2.72455
2.72455
2.72454
2.72454
2.72454
2.72454
2.72454
2.72454
2.72454
2.72453
2.72453
2.72453
2.72453
2.72453
2.72452
2.72452
2.72452
2.72452
2.72451
2.72451
2.72451
2.72451
2.72451
2.7245
2.7245
2.7245
2.7245
2.7245
2.72449
2.72449
2.72449
2.72449
2.72449
2.72449
2.72448
2.72448
2.72448
2.72448
2.72448
2.72447
2.72447
2.72447
2.72447
2.72446
2.72446
2.72446
2.72446
2.72446
2.72446
2.72445
2.72445
2.72445
2.72445
2.72445
2.72445
2.72445
2.72445
2.72445
2.72444
2.72444
2.72444
2.72444
2.72444
2.72444
2.72444
2.72444
2.72444
2.72444
2.72444
2.72444
2.72444
2.72444
2.72444
2.72444
2.72444
2.72444
2.72444
2.72444
2.72444
2.72444
2.72444
2.72444
2.72444
2.72444
2.72444
2.72444
2.72444
2.72444
2.72444
2.72444
2.72444
2.72444
2.72444
2.72444
2.72444
2.72444
2.72444
2.72444
2.72444
2.72444
2.72444
2.72444
2.72444
2.72444
2.72444
2.72444
2.72444
2.72444
2.72444
2.72444
2.72444
2.72442
3.08057
3.0806
3.0806
3.0806
3.0806
3.0806
3.08059
3.08059
3.08059
3.08059
3.08059
3.08059
3.08059
3.08059
3.08059
3.08059
3.08059
3.08058
3.08058
3.08058
3.08058
3.08057
3.08057
3.08057
3.08056
3.08056
3.08056
3.08056
3.08055
3.08055
3.08055
3.08055
3.08054
3.08054
3.08054
3.08054
3.08054
3.08053
3.08053
3.08053
3.08053
3.08053
3.08053
3.08052
3.08052
3.08052
3.08052
3.08052
3.08051
3.08051
3.08051
3.08051
3.08051
3.0805
3.0805
3.0805
3.0805
3.0805
3.0805
3.0805
3.08049
3.08049
3.08049
3.08049
3.08049
3.08049
3.08049
3.08049
3.08049
3.08049
3.08049
3.08049
3.08049
3.08049
3.08049
3.08049
3.08049
3.08049
3.08049
3.08049
3.08049
3.08049
3.08049
3.08049
3.08049
3.08049
3.08049
3.08049
3.08049
3.08049
3.08049
3.08049
3.08049
3.08049
3.08049
3.08049
3.08049
3.08049
3.08049
3.08049
3.08049
3.08049
3.08049
3.08049
3.08049
3.08049
3.08049
3.08049
3.08049
3.08049
3.08049
3.08049
3.08049
3.08049
3.08049
3.08049
3.08049
3.08049
3.0805
3.08048
3.51888
3.5189
3.51892
3.51892
3.51892
3.51892
3.51892
3.51892
3.51892
3.51892
3.51893
3.51893
3.51893
3.51892
3.51892
3.51892
3.51892
3.51892
3.51891
3.51891
3.51891
3.5189
3.5189
3.5189
3.51889
3.51889
3.51889
3.51888
3.51888
3.51888
3.51888
3.51887
3.51887
3.51887
3.51887
3.51886
3.51886
3.51886
3.51886
3.51886
3.51886
3.51885
3.51885
3.51885
3.51885
3.51885
3.51884
3.51884
3.51884
3.51884
3.51884
3.51884
3.51883
3.51883
3.51883
3.51883
3.51883
3.51883
3.51883
3.51883
3.51883
3.51883
3.51883
3.51883
3.51882
3.51882
3.51882
3.51882
3.51882
3.51882
3.51882
3.51882
3.51882
3.51883
3.51883
3.51883
3.51883
3.51883
3.51883
3.51883
3.51883
3.51883
3.51883
3.51883
3.51883
3.51883
3.51883
3.51883
3.51883
3.51883
3.51883
3.51883
3.51883
3.51883
3.51883
3.51883
3.51883
3.51883
3.51883
3.51883
3.51883
3.51883
3.51883
3.51883
3.51884
3.51884
3.51884
3.51884
3.51883
3.51883
3.51883
3.51883
3.51883
3.51883
3.51883
3.51883
3.51883
3.51883
3.51884
3.51882
4.06769
4.06772
4.06774
4.06776
4.06776
4.06777
4.06777
4.06777
4.06777
4.06777
4.06778
4.06778
4.06777
4.06777
4.06777
4.06777
4.06777
4.06776
4.06776
4.06776
4.06775
4.06775
4.06774
4.06774
4.06774
4.06773
4.06773
4.06773
4.06772
4.06772
4.06772
4.06771
4.06771
4.06771
4.06771
4.06771
4.0677
4.0677
4.0677
4.0677
4.0677
4.0677
4.06769
4.06769
4.06769
4.06769
4.06769
4.06769
4.06768
4.06768
4.06768
4.06768
4.06768
4.06768
4.06768
4.06768
4.06768
4.06768
4.06768
4.06768
4.06767
4.06767
4.06767
4.06767
4.06768
4.06768
4.06768
4.06768
4.06768
4.06768
4.06768
4.06768
4.06768
4.06768
4.06768
4.06768
4.06768
4.06768
4.06768
4.06768
4.06768
4.06768
4.06768
4.06768
4.06769
4.06769
4.06769
4.06769
4.06769
4.06769
4.06769
4.06769
4.06769
4.06769
4.06769
4.06769
4.06769
4.06769
4.06769
4.06769
4.06769
4.06769
4.06769
4.06769
4.0677
4.0677
4.0677
4.0677
4.0677
4.06769
4.06769
4.06769
4.06769
4.06769
4.06769
4.06769
4.06769
4.06769
4.0677
4.06769
4.76874
4.76878
4.76881
4.76883
4.76885
4.76885
4.76886
4.76886
4.76886
4.76886
4.76886
4.76886
4.76886
4.76886
4.76886
4.76885
4.76885
4.76885
4.76884
4.76884
4.76883
4.76883
4.76882
4.76882
4.76882
4.76881
4.76881
4.7688
4.7688
4.7688
4.7688
4.76879
4.76879
4.76879
4.76879
4.76879
4.76878
4.76878
4.76878
4.76878
4.76878
4.76878
4.76878
4.76877
4.76877
4.76877
4.76877
4.76877
4.76877
4.76877
4.76877
4.76877
4.76877
4.76877
4.76877
4.76877
4.76877
4.76877
4.76877
4.76877
4.76877
4.76877
4.76877
4.76877
4.76877
4.76877
4.76877
4.76877
4.76877
4.76877
4.76877
4.76877
4.76878
4.76878
4.76878
4.76878
4.76878
4.76878
4.76878
4.76878
4.76878
4.76878
4.76878
4.76879
4.76879
4.76879
4.76879
4.76879
4.76879
4.76879
4.76879
4.76879
4.76879
4.76879
4.76879
4.76879
4.7688
4.7688
4.7688
4.7688
4.7688
4.7688
4.7688
4.7688
4.7688
4.7688
4.7688
4.7688
4.7688
4.7688
4.7688
4.7688
4.7688
4.7688
4.7688
4.7688
4.7688
4.7688
4.7688
4.76881
5.68718
5.68723
5.68729
5.68732
5.68733
5.68734
5.68734
5.68735
5.68735
5.68735
5.68735
5.68735
5.68734
5.68734
5.68733
5.68733
5.68732
5.68732
5.68731
5.68731
5.6873
5.6873
5.68729
5.68729
5.68729
5.68728
5.68728
5.68728
5.68727
5.68727
5.68727
5.68727
5.68726
5.68726
5.68726
5.68726
5.68726
5.68726
5.68726
5.68725
5.68725
5.68725
5.68725
5.68725
5.68725
5.68725
5.68725
5.68725
5.68725
5.68725
5.68725
5.68725
5.68725
5.68725
5.68725
5.68725
5.68725
5.68725
5.68726
5.68726
5.68726
5.68726
5.68726
5.68726
5.68726
5.68726
5.68727
5.68727
5.68727
5.68727
5.68727
5.68727
5.68727
5.68727
5.68728
5.68728
5.68728
5.68728
5.68728
5.68728
5.68728
5.68729
5.68729
5.68729
5.68729
5.68729
5.68729
5.68729
5.68729
5.68729
5.6873
5.6873
5.6873
5.6873
5.6873
5.6873
5.6873
5.6873
5.6873
5.6873
5.6873
5.68731
5.68731
5.68731
5.68731
5.68731
5.68731
5.68731
5.68731
5.68731
5.68731
5.68731
5.68731
5.68731
5.68731
5.68731
5.68731
5.68731
5.68731
5.68732
6.93455
6.93463
6.93471
6.93474
6.93475
6.93476
6.93476
6.93476
6.93476
6.93476
6.93475
6.93475
6.93474
6.93474
6.93473
6.93473
6.93472
6.93471
6.93471
6.9347
6.9347
6.93469
6.93469
6.93468
6.93468
6.93468
6.93467
6.93467
6.93467
6.93467
6.93467
6.93466
6.93466
6.93466
6.93466
6.93466
6.93466
6.93466
6.93466
6.93466
6.93466
6.93466
6.93466
6.93466
6.93466
6.93466
6.93466
6.93466
6.93466
6.93466
6.93467
6.93467
6.93467
6.93467
6.93467
6.93467
6.93467
6.93468
6.93468
6.93468
6.93468
6.93468
6.93469
6.93469
6.93469
6.93469
6.93469
6.9347
6.9347
6.9347
6.9347
6.9347
6.93471
6.93471
6.93471
6.93471
6.93471
6.93471
6.93472
6.93472
6.93472
6.93472
6.93472
6.93472
6.93473
6.93473
6.93473
6.93473
6.93473
6.93473
6.93473
6.93474
6.93474
6.93474
6.93474
6.93474
6.93474
6.93474
6.93474
6.93475
6.93475
6.93475
6.93475
6.93475
6.93475
6.93475
6.93475
6.93475
6.93475
6.93475
6.93475
6.93475
6.93475
6.93475
6.93475
6.93475
6.93475
6.93475
6.93475
6.93477
8.73004
8.73016
8.73025
8.73028
8.73028
8.73028
8.73028
8.73027
8.73027
8.73026
8.73025
8.73025
8.73024
8.73023
8.73022
8.73022
8.73021
8.7302
8.7302
8.73019
8.73019
8.73018
8.73018
8.73017
8.73017
8.73017
8.73017
8.73017
8.73016
8.73016
8.73016
8.73016
8.73016
8.73016
8.73016
8.73016
8.73016
8.73016
8.73016
8.73016
8.73016
8.73017
8.73017
8.73017
8.73017
8.73017
8.73017
8.73018
8.73018
8.73018
8.73018
8.73019
8.73019
8.73019
8.73019
8.7302
8.7302
8.7302
8.7302
8.73021
8.73021
8.73021
8.73022
8.73022
8.73022
8.73022
8.73023
8.73023
8.73023
8.73023
8.73024
8.73024
8.73024
8.73024
8.73025
8.73025
8.73025
8.73025
8.73026
8.73026
8.73026
8.73026
8.73026
8.73027
8.73027
8.73027
8.73027
8.73027
8.73027
8.73028
8.73028
8.73028
8.73028
8.73028
8.73028
8.73028
8.73029
8.73029
8.73029
8.73029
8.73029
8.73029
8.73029
8.73029
8.73029
8.73029
8.73029
8.7303
8.7303
8.7303
8.7303
8.7303
8.73029
8.73029
8.73029
8.73029
8.7303
8.7303
8.7303
8.73031
11.5755
11.5757
11.5758
11.5758
11.5758
11.5758
11.5758
11.5758
11.5758
11.5757
11.5757
11.5757
11.5757
11.5757
11.5757
11.5757
11.5757
11.5757
11.5757
11.5757
11.5757
11.5757
11.5757
11.5757
11.5756
11.5756
11.5756
11.5756
11.5756
11.5756
11.5756
11.5756
11.5756
11.5756
11.5756
11.5756
11.5757
11.5757
11.5757
11.5757
11.5757
11.5757
11.5757
11.5757
11.5757
11.5757
11.5757
11.5757
11.5757
11.5757
11.5757
11.5757
11.5757
11.5757
11.5757
11.5757
11.5757
11.5757
11.5757
11.5757
11.5757
11.5757
11.5757
11.5757
11.5757
11.5757
11.5757
11.5757
11.5757
11.5758
11.5758
11.5758
11.5758
11.5758
11.5758
11.5758
11.5758
11.5758
11.5758
11.5758
11.5758
11.5758
11.5758
11.5758
11.5758
11.5758
11.5758
11.5758
11.5758
11.5758
11.5758
11.5758
11.5758
11.5758
11.5758
11.5758
11.5758
11.5758
11.5758
11.5758
11.5758
11.5758
11.5758
11.5758
11.5758
11.5758
11.5758
11.5758
11.5758
11.5758
11.5758
11.5758
11.5758
11.5758
11.5758
11.5758
11.5758
11.5758
11.5758
11.5758
16.7621
16.7623
16.7623
16.7623
16.7623
16.7623
16.7623
16.7623
16.7623
16.7623
16.7623
16.7623
16.7622
16.7622
16.7622
16.7622
16.7622
16.7622
16.7622
16.7622
16.7622
16.7622
16.7622
16.7622
16.7622
16.7622
16.7622
16.7622
16.7622
16.7622
16.7622
16.7622
16.7622
16.7622
16.7622
16.7622
16.7622
16.7622
16.7622
16.7622
16.7622
16.7622
16.7622
16.7622
16.7622
16.7622
16.7622
16.7622
16.7622
16.7622
16.7622
16.7622
16.7622
16.7622
16.7623
16.7623
16.7623
16.7623
16.7623
16.7623
16.7623
16.7623
16.7623
16.7623
16.7623
16.7623
16.7623
16.7623
16.7623
16.7623
16.7623
16.7623
16.7623
16.7623
16.7623
16.7623
16.7623
16.7623
16.7623
16.7623
16.7623
16.7623
16.7623
16.7623
16.7623
16.7623
16.7623
16.7623
16.7623
16.7623
16.7623
16.7624
16.7624
16.7624
16.7624
16.7624
16.7624
16.7624
16.7624
16.7624
16.7624
16.7624
16.7624
16.7624
16.7624
16.7624
16.7624
16.7624
16.7624
16.7624
16.7624
16.7624
16.7624
16.7624
16.7624
16.7624
16.7624
16.7624
16.7624
16.7624
27.9752
27.9753
27.9753
27.9753
27.9753
27.9753
27.9753
27.9753
27.9753
27.9753
27.9753
27.9752
27.9752
27.9752
27.9752
27.9752
27.9752
27.9752
27.9752
27.9752
27.9752
27.9752
27.9752
27.9752
27.9752
27.9752
27.9752
27.9752