/*--------------------------------*- C++ -*----------------------------------*\
  =========                 |
  \\      /  F ield         | OpenFOAM: The Open Source CFD Toolbox
   \\    /   O peration     | Website:  https://openfoam.org
    \\  /    A nd           | Version:  7
     \\/     M anipulation  |
\*---------------------------------------------------------------------------*/
FoamFile
{
    version     2.0;
    format      ascii;
    class       surfaceScalarField;
    location    "3500";
    object      phi;
}
// * * * * * * * * * * * * * * * * * * * * * * * * * * * * * * * * * * * * * //

dimensions      [0 3 -1 0 0 0 0];

internalField   nonuniform List<scalar> 
7920
(
0.000129235
-1.9091e-10
0.000129235
-1.23758e-10
0.000129235
-7.56809e-11
0.000129235
-2.21697e-11
0.000129235
3.33201e-11
0.000129235
8.8783e-11
0.000129235
1.43025e-10
0.000129235
1.95486e-10
0.000129235
2.45997e-10
0.000129235
2.94595e-10
0.000129235
3.41387e-10
0.000129235
3.86482e-10
0.000129235
4.29957e-10
0.000129235
4.71852e-10
0.000129235
5.12174e-10
0.000129235
5.50908e-10
0.000129235
5.88019e-10
0.000129235
6.23467e-10
0.000129235
6.572e-10
0.000129235
6.89165e-10
0.000129235
7.19306e-10
0.000129235
7.47573e-10
0.000129235
7.73924e-10
0.000129235
7.98328e-10
0.000129235
8.20767e-10
0.000129235
8.41232e-10
0.000129235
8.59724e-10
0.000129235
8.76254e-10
0.000129235
8.90836e-10
0.000129235
9.03499e-10
0.000129235
9.14277e-10
0.000129235
9.23222e-10
0.000129235
9.30398e-10
0.000129235
9.35883e-10
0.000129235
9.39766e-10
0.000129235
9.42141e-10
0.000129235
9.43105e-10
0.000129235
9.42749e-10
0.000129235
9.4116e-10
0.000129235
9.38415e-10
0.000129235
9.34584e-10
0.000129235
9.29723e-10
0.000129235
9.23881e-10
0.000129235
9.17098e-10
0.000129235
9.09404e-10
0.000129235
9.00826e-10
0.000129235
8.91388e-10
0.000129235
8.81116e-10
0.000129235
8.70036e-10
0.000129235
8.5818e-10
0.000129235
8.45579e-10
0.000129235
8.32268e-10
0.000129235
8.1828e-10
0.000129235
8.03644e-10
0.000129235
7.88387e-10
0.000129235
7.72534e-10
0.000129235
7.56107e-10
0.000129235
7.39128e-10
0.000129235
7.21617e-10
0.000129235
7.03598e-10
0.000129235
6.85093e-10
0.000129235
6.66127e-10
0.000129235
6.4672e-10
0.000129235
6.2689e-10
0.000129235
6.06646e-10
0.000129235
5.85973e-10
0.000129235
5.64824e-10
0.000129235
5.43089e-10
0.000129235
5.20571e-10
0.000129235
4.96927e-10
0.000129235
4.7159e-10
0.000129235
4.43912e-10
0.000129235
4.12179e-10
0.000129235
3.76891e-10
0.000129235
3.29126e-10
0.000129235
2.85041e-10
1.35912e-10
0.000125137
-1.86896e-09
0.000125137
-2.30284e-09
0.000125137
-2.62306e-09
0.000125137
-2.80261e-09
0.000125137
-2.86526e-09
0.000125137
-2.84231e-09
0.000125137
-2.76e-09
0.000125137
-2.63779e-09
0.000125137
-2.48955e-09
0.000125137
-2.32539e-09
0.000125137
-2.1528e-09
0.000125137
-1.97729e-09
0.000125137
-1.80265e-09
0.000125137
-1.63143e-09
0.000125137
-1.46571e-09
0.000125137
-1.30692e-09
0.000125137
-1.15694e-09
0.000125137
-1.01614e-09
0.000125137
-8.86705e-10
0.000125137
-7.6772e-10
0.000125137
-6.62619e-10
0.000125137
-5.66428e-10
0.000125137
-4.91143e-10
0.000125137
-3.32813e-10
0.000125137
-1.66815e-10
0.000125137
-1.05436e-10
0.000125137
-5.02986e-11
0.000125137
5.18628e-12
0.000125137
6.0842e-11
0.000125137
1.16043e-10
0.000125136
1.69937e-10
0.000125136
2.22046e-10
0.000125136
2.72193e-10
0.000125136
3.20379e-10
0.000125136
3.66677e-10
0.000125136
4.1117e-10
0.000125136
4.5392e-10
0.000125136
4.94954e-10
0.000125136
5.34274e-10
0.000125136
5.71859e-10
0.000125136
6.07681e-10
0.000125136
6.41707e-10
0.000125136
6.73906e-10
0.000125136
7.04245e-10
0.000125136
7.32693e-10
0.000125136
7.59222e-10
0.000125136
7.83813e-10
0.000125136
8.06454e-10
0.000125136
8.27142e-10
0.000125136
8.45883e-10
0.000125136
8.62692e-10
0.000125136
8.77589e-10
0.000125136
8.90604e-10
0.000125136
9.01771e-10
0.000125136
9.11135e-10
0.000125136
9.1875e-10
0.000125136
9.24684e-10
0.000125136
9.29015e-10
0.000125136
9.31832e-10
0.000125136
9.33228e-10
0.000125136
9.333e-10
0.000125136
9.32138e-10
0.000125136
9.29831e-10
0.000125136
9.26455e-10
0.000125136
9.22078e-10
0.000125136
9.16757e-10
0.000125136
9.10535e-10
0.000125136
9.0345e-10
0.000125136
8.95528e-10
0.000125136
8.86791e-10
0.000125136
8.77259e-10
0.000125136
8.66953e-10
0.000125136
8.55896e-10
0.000125136
8.44114e-10
0.000125136
8.31636e-10
0.000125136
8.18491e-10
0.000125136
8.0471e-10
0.000125136
7.90319e-10
0.000125136
7.75344e-10
0.000125136
7.59807e-10
0.000125136
7.43731e-10
0.000125136
7.27135e-10
0.000125136
7.1004e-10
0.000125136
6.92466e-10
0.000125136
6.74433e-10
0.000125136
6.55964e-10
0.000125137
6.37075e-10
0.000125137
6.17782e-10
0.000125137
5.98087e-10
0.000125137
5.77973e-10
0.000125137
5.57391e-10
0.000125137
5.36226e-10
0.000125137
5.14281e-10
0.000125137
4.91218e-10
0.000125137
4.66475e-10
0.000125137
4.39447e-10
0.000125137
4.08411e-10
0.000125137
3.74053e-10
0.000125137
3.27331e-10
0.000125137
2.8464e-10
0.000125137
1.51394e-10
0.000125137
-1.74062e-11
0.000125137
-8.24763e-11
0.000125137
-1.12039e-10
0.000125137
-1.388e-10
0.000125137
-1.64869e-10
0.000125137
-1.89135e-10
0.000125137
-2.10951e-10
0.000125137
-2.30713e-10
0.000125137
-2.49923e-10
0.000125137
-2.69211e-10
0.000125137
-2.91411e-10
0.000125137
-3.15681e-10
0.000125137
-3.50702e-10
0.000125137
-3.89339e-10
0.000125137
-4.63278e-10
0.000125137
-5.38771e-10
0.000125137
-7.18098e-10
0.000125137
-9.3215e-10
-1.30789e-09
0.000121122
-1.84718e-09
0.000121122
-2.2901e-09
0.000121122
-2.61871e-09
0.000121122
-2.80404e-09
0.000121122
-2.86966e-09
0.000121122
-2.84802e-09
0.000121122
-2.76605e-09
0.000121122
-2.64343e-09
0.000121122
-2.49421e-09
0.000121122
-2.32865e-09
0.000121122
-2.1545e-09
0.000121122
-1.97747e-09
0.000121122
-1.8015e-09
0.000121122
-1.62916e-09
0.000121122
-1.46249e-09
0.000121122
-1.30292e-09
0.000121122
-1.15227e-09
0.000121122
-1.0109e-09
0.000121122
-8.80923e-10
0.000121122
-7.61378e-10
0.000121122
-6.55676e-10
0.000121122
-5.58099e-10
0.000121122
-4.80938e-10
0.000121122
-3.48364e-10
0.000121122
-1.95808e-10
0.000121122
-1.12112e-10
0.000121122
-4.33105e-11
0.000121122
1.87781e-11
0.000121122
7.75994e-11
0.000121122
1.34418e-10
0.000121122
1.89204e-10
0.000121122
2.41838e-10
0.000121122
2.92289e-10
0.000121122
3.40606e-10
0.000121122
3.86875e-10
0.000121122
4.31179e-10
0.000121122
4.73578e-10
0.000121122
5.14098e-10
0.000121122
5.52734e-10
0.000121122
5.89465e-10
0.000121122
6.24267e-10
0.000121122
6.57118e-10
0.000121122
6.88004e-10
0.000121122
7.16917e-10
0.000121122
7.43849e-10
0.000121122
7.68798e-10
0.000121122
7.91767e-10
0.000121122
8.12765e-10
0.000121122
8.31804e-10
0.000121122
8.48906e-10
0.000121122
8.64101e-10
0.000121122
8.77422e-10
0.000121122
8.8891e-10
0.000121122
8.98611e-10
0.000121122
9.06579e-10
0.000121122
9.12875e-10
0.000121122
9.17568e-10
0.000121122
9.20738e-10
0.000121122
9.22475e-10
0.000121122
9.22872e-10
0.000121122
9.22024e-10
0.000121122
9.20025e-10
0.000121122
9.16964e-10
0.000121122
9.12919e-10
0.000121122
9.07959e-10
0.000121122
9.02138e-10
0.000121122
8.955e-10
0.000121122
8.88077e-10
0.000121122
8.79893e-10
0.000121122
8.70967e-10
0.000121122
8.61314e-10
0.000121122
8.50951e-10
0.000121122
8.39897e-10
0.000121122
8.28174e-10
0.000121122
8.15806e-10
0.000121122
8.02818e-10
0.000121122
7.89236e-10
0.000121122
7.75086e-10
0.000121122
7.6039e-10
0.000121122
7.45171e-10
0.000121122
7.29448e-10
0.000121122
7.13241e-10
0.000121122
6.9657e-10
0.000121122
6.79452e-10
0.000121122
6.61908e-10
0.000121122
6.43953e-10
0.000121122
6.25604e-10
0.000121122
6.06872e-10
0.000121122
5.87756e-10
0.000121122
5.68234e-10
0.000121122
5.48252e-10
0.000121122
5.27696e-10
0.000121122
5.06364e-10
0.000121122
4.83927e-10
0.000121122
4.59826e-10
0.000121122
4.33493e-10
0.000121122
4.03237e-10
0.000121122
3.69738e-10
0.000121122
3.24898e-10
0.000121122
2.8037e-10
0.000121122
1.93818e-10
0.000121122
5.13205e-11
0.000121122
-5.43779e-11
0.000121122
-1.06289e-10
0.000121122
-1.39356e-10
0.000121122
-1.66167e-10
0.000121122
-1.89931e-10
0.000121122
-2.11161e-10
0.000121122
-2.30459e-10
0.000121122
-2.49322e-10
0.000121122
-2.68374e-10
0.000121122
-2.90432e-10
0.000121122
-3.14636e-10
0.000121122
-3.4968e-10
0.000121122
-3.88241e-10
0.000121122
-4.62307e-10
0.000121122
-5.3736e-10
0.000121122
-7.15577e-10
0.000121122
-9.32313e-10
-1.29645e-09
0.000117189
-1.81928e-09
0.000117189
-2.27262e-09
0.000117189
-2.60843e-09
0.000117189
-2.79916e-09
0.000117189
-2.86753e-09
0.000117189
-2.84712e-09
0.000117189
-2.76556e-09
0.000117189
-2.64274e-09
0.000117189
-2.49282e-09
0.000117189
-2.32619e-09
0.000117189
-2.15082e-09
0.000117189
-1.97261e-09
0.000117189
-1.79565e-09
0.000117189
-1.62254e-09
0.000117189
-1.45529e-09
0.000117189
-1.29527e-09
0.000117189
-1.14426e-09
0.000117189
-1.0026e-09
0.000117189
-8.72336e-10
0.000117189
-7.52483e-10
0.000117189
-6.46356e-10
0.000117189
-5.48107e-10
0.000117189
-4.68141e-10
0.000117189
-3.55063e-10
0.000117189
-2.23294e-10
0.000117189
-1.31674e-10
0.000117189
-5.08003e-11
0.000117189
1.98589e-11
0.000117189
8.39482e-11
0.000117189
1.43965e-10
0.000117189
2.00769e-10
0.000117189
2.54749e-10
0.000117189
3.06133e-10
0.000117189
3.55093e-10
0.000117189
4.01769e-10
0.000117189
4.46269e-10
0.000117189
4.88666e-10
0.000117189
5.2899e-10
0.000117189
5.67236e-10
0.000117189
6.03386e-10
0.000117189
6.37419e-10
0.000117189
6.69326e-10
0.000117189
6.99113e-10
0.000117189
7.26794e-10
0.000117189
7.52389e-10
0.000117189
7.7592e-10
0.000117189
7.97412e-10
0.000117189
8.16894e-10
0.000117189
8.34398e-10
0.000117189
8.49959e-10
0.000117189
8.63623e-10
0.000117189
8.75437e-10
0.000117189
8.85455e-10
0.000117189
8.93737e-10
0.000117189
9.00345e-10
0.000117189
9.05346e-10
0.000117189
9.08815e-10
0.000117189
9.10833e-10
0.000117189
9.11491e-10
0.000117189
9.10882e-10
0.000117189
9.09104e-10
0.000117189
9.06253e-10
0.000117189
9.0242e-10
0.000117189
8.97686e-10
0.000117189
8.9212e-10
0.000117189
8.85777e-10
0.000117189
8.78701e-10
0.000117189
8.70919e-10
0.000117189
8.62454e-10
0.000117189
8.53321e-10
0.000117189
8.43531e-10
0.000117189
8.33099e-10
0.000117189
8.22038e-10
0.000117189
8.10365e-10
0.000117189
7.981e-10
0.000117189
7.85265e-10
0.000117189
7.71882e-10
0.000117189
7.57972e-10
0.000117189
7.43558e-10
0.000117189
7.2866e-10
0.000117189
7.13298e-10
0.000117189
6.9749e-10
0.000117189
6.81254e-10
0.000117189
6.64608e-10
0.000117189
6.47568e-10
0.00011719
6.3015e-10
0.00011719
6.12364e-10
0.00011719
5.94219e-10
0.00011719
5.7571e-10
0.00011719
5.5681e-10
0.00011719
5.37464e-10
0.00011719
5.17551e-10
0.00011719
4.96871e-10
0.00011719
4.75101e-10
0.00011719
4.51688e-10
0.00011719
4.2609e-10
0.00011719
3.96692e-10
0.00011719
3.64003e-10
0.00011719
3.21578e-10
0.00011719
2.74374e-10
0.00011719
2.2099e-10
0.00011719
1.1479e-10
0.000117189
-6.07945e-12
0.000117189
-8.0034e-11
0.000117189
-1.25184e-10
0.000117189
-1.56924e-10
0.000117189
-1.82602e-10
0.000117189
-2.04728e-10
0.000117189
-2.24581e-10
0.000117189
-2.43858e-10
0.000117189
-2.63269e-10
0.000117189
-2.85656e-10
0.000117189
-3.10179e-10
0.000117189
-3.45535e-10
0.000117189
-3.84265e-10
0.000117189
-4.58532e-10
0.000117189
-5.33214e-10
0.000117189
-7.09925e-10
0.000117189
-9.28438e-10
-1.27856e-09
0.000113335
-1.78528e-09
0.000113334
-2.24946e-09
0.000113334
-2.59155e-09
0.000113334
-2.78727e-09
0.000113334
-2.85829e-09
0.000113334
-2.83909e-09
0.000113334
-2.75801e-09
0.000113334
-2.63522e-09
0.000113334
-2.48496e-09
0.000113334
-2.31769e-09
0.000113334
-2.14153e-09
0.000113334
-1.96257e-09
0.000113334
-1.78502e-09
0.000113334
-1.61151e-09
0.000113334
-1.44404e-09
0.000113334
-1.28392e-09
0.000113334
-1.13285e-09
0.000113334
-9.9119e-10
0.000113334
-8.60896e-10
0.000113334
-7.40993e-10
0.000113334
-6.34636e-10
0.000113334
-5.36241e-10
0.000113334
-4.53612e-10
0.000113334
-3.53586e-10
0.000113334
-2.42568e-10
0.000113334
-1.5354e-10
0.000113334
-6.63013e-11
0.000113334
1.17417e-11
0.000113334
8.16134e-11
0.000113334
1.45663e-10
0.000113334
2.05234e-10
0.000113334
2.61165e-10
0.000113334
3.13967e-10
0.000113334
3.63974e-10
0.000113334
4.11409e-10
0.000113334
4.56423e-10
0.000113334
4.99108e-10
0.000113334
5.39505e-10
0.000113334
5.77614e-10
0.000113334
6.13417e-10
0.000113334
6.46903e-10
0.000113334
6.78075e-10
0.000113334
7.06958e-10
0.000113334
7.33591e-10
0.000113334
7.58018e-10
0.000113334
7.80288e-10
0.000113334
8.00447e-10
0.000113334
8.18544e-10
0.000113334
8.34629e-10
0.000113334
8.48754e-10
0.000113334
8.60978e-10
0.000113334
8.71366e-10
0.000113334
8.79984e-10
0.000113334
8.86905e-10
0.000113334
8.92201e-10
0.000113334
8.95947e-10
0.000113334
8.98221e-10
0.000113334
8.99109e-10
0.000113334
8.98702e-10
0.000113334
8.97097e-10
0.000113334
8.94393e-10
0.000113334
8.90689e-10
0.000113334
8.86082e-10
0.000113334
8.80653e-10
0.000113334
8.74475e-10
0.000113334
8.67604e-10
0.000113334
8.60081e-10
0.000113334
8.51933e-10
0.000113334
8.4318e-10
0.000113334
8.33834e-10
0.000113334
8.23903e-10
0.000113334
8.13397e-10
0.000113335
8.02327e-10
0.000113335
7.90705e-10
0.000113335
7.78545e-10
0.000113335
7.65865e-10
0.000113335
7.52684e-10
0.000113335
7.39021e-10
0.000113335
7.24896e-10
0.000113335
7.10328e-10
0.000113335
6.95336e-10
0.000113335
6.7994e-10
0.000113335
6.64155e-10
0.000113335
6.47998e-10
0.000113335
6.31482e-10
0.000113335
6.1462e-10
0.000113335
5.97422e-10
0.000113335
5.7989e-10
0.000113335
5.62015e-10
0.000113335
5.43768e-10
0.000113335
5.25088e-10
0.000113335
5.05852e-10
0.000113335
4.85861e-10
0.000113335
4.64795e-10
0.000113335
4.42113e-10
0.000113335
4.17291e-10
0.000113335
3.88816e-10
0.000113335
3.56925e-10
0.000113335
3.17118e-10
0.000113335
2.67858e-10
0.000113335
2.35255e-10
0.000113335
1.64078e-10
0.000113335
4.71379e-11
0.000113335
-4.04763e-11
0.000113335
-9.82989e-11
0.000113335
-1.37547e-10
0.000113335
-1.67217e-10
0.000113335
-1.91647e-10
0.000113335
-2.13045e-10
0.000113335
-2.33478e-10
0.000113335
-2.53835e-10
0.000113335
-2.77017e-10
0.000113335
-3.02245e-10
0.000113335
-3.38198e-10
0.000113335
-3.77341e-10
0.000113335
-4.51883e-10
0.000113335
-5.2627e-10
0.000113335
-7.011e-10
0.000113335
-9.20563e-10
-1.25496e-09
0.000109554
-1.74511e-09
0.000109554
-2.22023e-09
0.000109554
-2.56767e-09
0.000109554
-2.76787e-09
0.000109554
-2.8414e-09
0.000109554
-2.82345e-09
0.000109554
-2.743e-09
0.000109554
-2.6205e-09
0.000109554
-2.47031e-09
0.000109554
-2.3029e-09
0.000109554
-2.12648e-09
0.000109554
-1.94726e-09
0.000109554
-1.76956e-09
0.000109554
-1.59606e-09
0.000109554
-1.42873e-09
0.000109554
-1.26884e-09
0.000109554
-1.11802e-09
0.000109554
-9.76641e-10
0.000109554
-8.46581e-10
0.000109554
-7.26886e-10
0.000109554
-6.20515e-10
0.000109554
-5.22343e-10
0.000109554
-4.37709e-10
0.000109554
-3.45706e-10
0.000109554
-2.51935e-10
0.000109554
-1.71176e-10
0.000109554
-8.36423e-11
0.000109554
-1.3782e-12
0.000109554
7.32245e-11
0.000109554
1.41196e-10
0.000109554
2.03734e-10
0.000109554
2.61881e-10
0.000109554
3.16361e-10
0.000109554
3.67657e-10
0.000109554
4.16076e-10
0.000109554
4.61819e-10
0.000109554
5.05e-10
0.000109554
5.45671e-10
0.000109554
5.83836e-10
0.000109554
6.1948e-10
0.000109554
6.526e-10
0.000109554
6.83213e-10
0.000109554
7.11362e-10
0.000109554
7.37109e-10
0.000109554
7.60524e-10
0.000109554
7.81679e-10
0.000109554
8.00642e-10
0.000109554
8.17481e-10
0.000109554
8.32264e-10
0.000109554
8.45059e-10
0.000109554
8.5594e-10
0.000109554
8.64987e-10
0.000109554
8.72282e-10
0.000109554
8.7791e-10
0.000109554
8.81952e-10
0.000109554
8.84492e-10
0.000109554
8.85613e-10
0.000109554
8.85406e-10
0.000109554
8.83962e-10
0.000109554
8.81382e-10
0.000109554
8.77769e-10
0.000109554
8.73228e-10
0.000109554
8.67857e-10
0.000109554
8.61744e-10
0.000109554
8.54962e-10
0.000109554
8.47568e-10
0.000109554
8.39603e-10
0.000109554
8.31094e-10
0.000109554
8.22058e-10
0.000109554
8.12503e-10
0.000109554
8.02437e-10
0.000109554
7.91864e-10
0.000109554
7.80791e-10
0.000109554
7.69226e-10
0.000109554
7.57179e-10
0.000109554
7.44664e-10
0.000109554
7.31695e-10
0.000109555
7.18288e-10
0.000109555
7.04463e-10
0.000109555
6.90238e-10
0.000109555
6.75632e-10
0.000109555
6.60663e-10
0.000109555
6.45346e-10
0.000109555
6.29696e-10
0.000109555
6.13725e-10
0.000109555
5.97443e-10
0.000109555
5.80855e-10
0.000109555
5.63961e-10
0.000109555
5.46748e-10
0.000109555
5.29182e-10
0.000109555
5.11198e-10
0.000109555
4.92671e-10
0.000109555
4.73401e-10
0.000109555
4.53075e-10
0.000109555
4.31163e-10
0.000109555
4.07153e-10
0.000109555
3.79657e-10
0.000109555
3.48588e-10
0.000109555
3.11371e-10
0.000109555
2.61229e-10
0.000109555
2.4031e-10
0.000109555
1.97595e-10
0.000109555
9.52517e-11
0.000109555
4.03036e-12
0.000109555
-6.30427e-11
0.000109555
-1.1002e-10
0.000109555
-1.44784e-10
0.000109555
-1.72529e-10
0.000109555
-1.96261e-10
0.000109555
-2.18472e-10
0.000109555
-2.40278e-10
0.000109555
-2.64668e-10
0.000109555
-2.90942e-10
0.000109555
-3.2775e-10
0.000109554
-3.67525e-10
0.000109554
-4.424e-10
0.000109554
-5.16567e-10
0.000109554
-6.89149e-10
0.000109554
-9.08792e-10
-1.22589e-09
0.000105845
-1.69859e-09
0.000105845
-2.18464e-09
0.000105845
-2.53656e-09
0.000105845
-2.74064e-09
0.000105845
-2.81651e-09
0.000105845
-2.79985e-09
0.000105845
-2.7202e-09
0.000105845
-2.5983e-09
0.000105845
-2.44863e-09
0.000105845
-2.28165e-09
0.000105845
-2.10554e-09
0.000105845
-1.9266e-09
0.000105845
-1.74924e-09
0.000105845
-1.57618e-09
0.000105845
-1.40937e-09
0.000105845
-1.25003e-09
0.000105845
-1.09977e-09
0.000105845
-9.58952e-10
0.000105845
-8.29386e-10
0.000105845
-7.10155e-10
0.000105845
-6.04004e-10
0.000105845
-5.06323e-10
0.000105845
-4.20486e-10
0.000105845
-3.33218e-10
0.000105845
-2.52325e-10
0.000105845
-1.81642e-10
0.000105845
-9.83472e-11
0.000105845
-1.55476e-11
0.000105845
6.17034e-11
0.000105845
1.32633e-10
0.000105845
1.97754e-10
0.000105845
2.57989e-10
0.000105845
3.14133e-10
0.000105845
3.66756e-10
0.000105845
4.16231e-10
0.000105845
4.62794e-10
0.000105845
5.06578e-10
0.000105845
5.4764e-10
0.000105845
5.85985e-10
0.000105845
6.21602e-10
0.000105845
6.5449e-10
0.000105845
6.8468e-10
0.000105845
7.12233e-10
0.000105845
7.37231e-10
0.000105845
7.59768e-10
0.000105845
7.79938e-10
0.000105845
7.9783e-10
0.000105845
8.1353e-10
0.000105845
8.27122e-10
0.000105845
8.38691e-10
0.000105845
8.48326e-10
0.000105845
8.56123e-10
0.000105845
8.62176e-10
0.000105845
8.66583e-10
0.000105845
8.69438e-10
0.000105845
8.7083e-10
0.000105845
8.70851e-10
0.000105845
8.69592e-10
0.000105845
8.67151e-10
0.000105845
8.63631e-10
0.000105845
8.59141e-10
0.000105845
8.53789e-10
0.000105845
8.47679e-10
0.000105845
8.40903e-10
0.000105845
8.33536e-10
0.000105845
8.25639e-10
0.000105845
8.1725e-10
0.000105845
8.08396e-10
0.000105845
7.99092e-10
0.000105845
7.89344e-10
0.000105845
7.79157e-10
0.000105845
7.68531e-10
0.000105845
7.5747e-10
0.000105846
7.45977e-10
0.000105846
7.34058e-10
0.000105846
7.21721e-10
0.000105846
7.08979e-10
0.000105846
6.95845e-10
0.000105846
6.82336e-10
0.000105846
6.68471e-10
0.000105846
6.54268e-10
0.000105846
6.39744e-10
0.000105846
6.24914e-10
0.000105846
6.09792e-10
0.000105846
5.94387e-10
0.000105846
5.78707e-10
0.000105846
5.62753e-10
0.000105846
5.46521e-10
0.000105846
5.29995e-10
0.000105846
5.13135e-10
0.000105846
4.95874e-10
0.000105846
4.78085e-10
0.000105846
4.59567e-10
0.000105846
4.40012e-10
0.000105846
4.18907e-10
0.000105846
3.95744e-10
0.000105846
3.69271e-10
0.000105846
3.39074e-10
0.000105846
3.04294e-10
0.000105846
2.54448e-10
0.000105846
2.39437e-10
0.000105846
2.17423e-10
0.000105846
1.33479e-10
0.000105846
4.67402e-11
0.000105846
-2.44129e-11
0.000105846
-7.73334e-11
0.000105846
-1.17075e-10
0.000105846
-1.48518e-10
0.000105846
-1.75032e-10
0.000105846
-1.9943e-10
0.000105846
-2.23049e-10
0.000105846
-2.48954e-10
0.000105846
-2.76544e-10
0.000105846
-3.14405e-10
0.000105846
-3.5499e-10
0.000105846
-4.30226e-10
0.000105846
-5.04233e-10
0.000105846
-6.74192e-10
0.000105846
-8.93317e-10
-1.19148e-09
0.000102204
-1.64555e-09
0.000102204
-2.14243e-09
0.000102204
-2.49802e-09
0.000102204
-2.70535e-09
0.000102204
-2.78336e-09
0.000102204
-2.76805e-09
0.000102204
-2.68941e-09
0.000102204
-2.56848e-09
0.000102204
-2.41983e-09
0.000102204
-2.25385e-09
0.000102204
-2.07867e-09
0.000102204
-1.90059e-09
0.000102204
-1.72407e-09
0.000102204
-1.55188e-09
0.000102204
-1.38597e-09
0.000102204
-1.22753e-09
0.000102204
-1.07813e-09
0.000102204
-9.38134e-10
0.000102203
-8.09321e-10
0.000102203
-6.90806e-10
0.000102203
-5.85124e-10
0.000102203
-4.88156e-10
0.000102203
-4.01869e-10
0.000102203
-3.17458e-10
0.000102203
-2.45533e-10
0.000102203
-1.84395e-10
0.000102203
-1.07889e-10
0.000102203
-2.77359e-11
0.000102203
4.97219e-11
0.000102203
1.22084e-10
0.000102203
1.88908e-10
0.000102203
2.50732e-10
0.000102203
3.08247e-10
0.000102203
3.62025e-10
0.000102203
4.12459e-10
0.000102203
4.598e-10
0.000102203
5.04183e-10
0.000102203
5.45663e-10
0.000102203
5.8424e-10
0.000102203
6.19896e-10
0.000102203
6.52634e-10
0.000102203
6.82494e-10
0.000102203
7.09552e-10
0.000102203
7.33908e-10
0.000102204
7.55677e-10
0.000102204
7.74972e-10
0.000102204
7.91903e-10
0.000102204
8.06571e-10
0.000102204
8.19076e-10
0.000102204
8.29518e-10
0.000102204
8.38002e-10
0.000102204
8.44636e-10
0.000102204
8.49531e-10
0.000102204
8.52796e-10
0.000102204
8.54535e-10
0.000102204
8.54846e-10
0.000102204
8.53825e-10
0.000102204
8.51569e-10
0.000102204
8.4818e-10
0.000102204
8.43766e-10
0.000102204
8.3844e-10
0.000102204
8.32316e-10
0.000102204
8.25503e-10
0.000102204
8.18098e-10
0.000102204
8.1018e-10
0.000102204
8.01808e-10
0.000102204
7.93023e-10
0.000102204
7.83851e-10
0.000102204
7.74304e-10
0.000102204
7.64388e-10
0.000102204
7.54103e-10
0.000102204
7.43447e-10
0.000102204
7.3242e-10
0.000102204
7.2102e-10
0.000102204
7.0925e-10
0.000102204
6.97113e-10
0.000102204
6.84617e-10
0.000102204
6.71776e-10
0.000102204
6.58604e-10
0.000102204
6.45119e-10
0.000102204
6.31338e-10
0.000102204
6.1728e-10
0.000102204
6.02959e-10
0.000102204
5.88385e-10
0.000102204
5.73567e-10
0.000102204
5.5851e-10
0.000102204
5.43212e-10
0.000102204
5.27665e-10
0.000102204
5.11849e-10
0.000102204
4.9572e-10
0.000102204
4.79208e-10
0.000102204
4.62182e-10
0.000102204
4.44444e-10
0.000102204
4.2569e-10
0.000102204
4.05423e-10
0.000102204
3.83139e-10
0.000102204
3.57724e-10
0.000102204
3.28463e-10
0.000102204
2.9592e-10
0.000102204
2.47309e-10
0.000102205
2.34941e-10
0.000102204
2.26745e-10
0.000102204
1.60705e-10
0.000102204
8.34175e-11
0.000102204
1.32169e-11
0.000102204
-4.27499e-11
0.000102204
-8.6301e-11
0.000102204
-1.21134e-10
0.000102204
-1.50458e-10
0.000102204
-1.77184e-10
0.000102204
-2.0279e-10
0.000102204
-2.30386e-10
0.000102204
-2.59458e-10
0.000102204
-2.98496e-10
0.000102204
-3.40009e-10
0.000102204
-4.1559e-10
0.000102204
-4.89472e-10
0.000102204
-6.56419e-10
0.000102204
-8.74401e-10
-1.1519e-09
9.8626e-05
-1.58585e-09
9.8626e-05
-2.09329e-09
9.86259e-05
-2.45181e-09
9.86259e-05
-2.66184e-09
9.86259e-05
-2.74179e-09
9.86258e-05
-2.72792e-09
9.86258e-05
-2.65057e-09
9.86257e-05
-2.531e-09
9.86257e-05
-2.38388e-09
9.86257e-05
-2.21952e-09
9.86256e-05
-2.0459e-09
9.86256e-05
-1.86925e-09
9.86256e-05
-1.69409e-09
9.86255e-05
-1.52321e-09
9.86255e-05
-1.35856e-09
9.86255e-05
-1.20134e-09
9.86255e-05
-1.0531e-09
9.86254e-05
-9.14208e-10
9.86254e-05
-7.86407e-10
9.86254e-05
-6.68863e-10
9.86254e-05
-5.63912e-10
9.86254e-05
-4.67864e-10
9.86253e-05
-3.81771e-10
9.86253e-05
-2.99303e-10
9.86253e-05
-2.3337e-10
9.86253e-05
-1.80188e-10
9.86253e-05
-1.11348e-10
9.86253e-05
-3.60534e-11
9.86253e-05
3.93555e-11
9.86253e-05
1.1141e-10
9.86253e-05
1.78743e-10
9.86254e-05
2.41361e-10
9.86254e-05
2.99712e-10
9.86254e-05
3.54277e-10
9.86254e-05
4.05415e-10
9.86254e-05
4.53359e-10
9.86254e-05
4.9823e-10
9.86254e-05
5.40064e-10
9.86254e-05
5.78844e-10
9.86254e-05
6.14542e-10
9.86254e-05
6.47158e-10
9.86254e-05
6.76735e-10
9.86254e-05
7.0336e-10
9.86254e-05
7.27149e-10
9.86254e-05
7.48232e-10
9.86254e-05
7.66742e-10
9.86255e-05
7.82802e-10
9.86255e-05
7.96531e-10
9.86255e-05
8.08042e-10
9.86255e-05
8.17449e-10
9.86255e-05
8.24871e-10
9.86255e-05
8.3043e-10
9.86255e-05
8.34251e-10
9.86255e-05
8.36453e-10
9.86256e-05
8.37151e-10
9.86256e-05
8.36452e-10
9.86256e-05
8.34457e-10
9.86256e-05
8.31267e-10
9.86256e-05
8.26989e-10
9.86257e-05
8.21736e-10
9.86257e-05
8.15626e-10
9.86257e-05
8.08779e-10
9.86257e-05
8.01311e-10
9.86258e-05
7.93321e-10
9.86258e-05
7.84892e-10
9.86258e-05
7.76087e-10
9.86258e-05
7.66944e-10
9.86259e-05
7.5749e-10
9.86259e-05
7.47735e-10
9.86259e-05
7.37683e-10
9.86259e-05
7.27331e-10
9.8626e-05
7.16676e-10
9.8626e-05
7.05712e-10
9.8626e-05
6.94434e-10
9.8626e-05
6.82838e-10
9.86261e-05
6.70926e-10
9.86261e-05
6.58703e-10
9.86261e-05
6.46178e-10
9.86262e-05
6.33366e-10
9.86262e-05
6.20284e-10
9.86262e-05
6.0695e-10
9.86262e-05
5.9338e-10
9.86262e-05
5.79587e-10
9.86263e-05
5.65583e-10
9.86263e-05
5.51374e-10
9.86263e-05
5.36961e-10
9.86263e-05
5.2234e-10
9.86264e-05
5.07499e-10
9.86264e-05
4.92414e-10
9.86264e-05
4.77038e-10
9.86264e-05
4.61296e-10
9.86264e-05
4.45057e-10
9.86264e-05
4.28123e-10
9.86265e-05
4.10196e-10
9.86265e-05
3.90796e-10
9.86265e-05
3.69421e-10
9.86265e-05
3.4509e-10
9.86265e-05
3.16833e-10
9.86265e-05
2.86333e-10
9.86265e-05
2.39602e-10
9.86265e-05
2.28248e-10
9.86265e-05
2.28586e-10
9.86265e-05
1.77857e-10
9.86265e-05
1.1213e-10
9.86265e-05
4.67258e-11
9.86264e-05
-9.18443e-12
9.86264e-05
-5.47341e-11
9.86264e-05
-9.20705e-11
9.86263e-05
-1.23814e-10
9.86263e-05
-1.52719e-10
9.86263e-05
-1.80281e-10
9.86263e-05
-2.09589e-10
9.86262e-05
-2.40194e-10
9.86262e-05
-2.80441e-10
9.86262e-05
-3.22931e-10
9.86262e-05
-3.98788e-10
9.86262e-05
-4.72549e-10
9.86262e-05
-6.36072e-10
9.86261e-05
-8.52362e-10
-1.10738e-09
9.51073e-05
-1.5194e-09
9.51072e-05
-2.03696e-09
9.51071e-05
-2.39771e-09
9.51071e-05
-2.60993e-09
9.5107e-05
-2.69171e-09
9.5107e-05
-2.67944e-09
9.51069e-05
-2.60371e-09
9.51069e-05
-2.48594e-09
9.51069e-05
-2.34089e-09
9.51068e-05
-2.17874e-09
9.51068e-05
-2.00729e-09
9.51067e-05
-1.83265e-09
9.51067e-05
-1.65934e-09
9.51067e-05
-1.49019e-09
9.51066e-05
-1.32718e-09
9.51066e-05
-1.17151e-09
9.51066e-05
-1.02471e-09
9.51066e-05
-8.87203e-10
9.51065e-05
-7.60678e-10
9.51065e-05
-6.44363e-10
9.51065e-05
-5.4042e-10
9.51065e-05
-4.45509e-10
9.51064e-05
-3.60143e-10
9.51064e-05
-2.79297e-10
9.51064e-05
-2.17337e-10
9.51064e-05
-1.70294e-10
9.51064e-05
-1.08891e-10
9.51064e-05
-3.96555e-11
9.51064e-05
3.19511e-11
9.51064e-05
1.02048e-10
9.51064e-05
1.68579e-10
9.51064e-05
2.31016e-10
9.51064e-05
2.8949e-10
9.51065e-05
3.44313e-10
9.51065e-05
3.95763e-10
9.51065e-05
4.4402e-10
9.51065e-05
4.89166e-10
9.51065e-05
5.31203e-10
9.51065e-05
5.70086e-10
9.51065e-05
6.05768e-10
9.51065e-05
6.38236e-10
9.51065e-05
6.67531e-10
9.51065e-05
6.93746e-10
9.51065e-05
7.17008e-10
9.51066e-05
7.37461e-10
9.51066e-05
7.55249e-10
9.51066e-05
7.70512e-10
9.51066e-05
7.83379e-10
9.51066e-05
7.93978e-10
9.51066e-05
8.02433e-10
9.51066e-05
8.08877e-10
9.51067e-05
8.13445e-10
9.51067e-05
8.16273e-10
9.51067e-05
8.17493e-10
9.51067e-05
8.1723e-10
9.51067e-05
8.15596e-10
9.51068e-05
8.12698e-10
9.51068e-05
8.08644e-10
9.51068e-05
8.03544e-10
9.51068e-05
7.97515e-10
9.51068e-05
7.90683e-10
9.51069e-05
7.83172e-10
9.51069e-05
7.75104e-10
9.51069e-05
7.66584e-10
9.5107e-05
7.57698e-10
9.5107e-05
7.48507e-10
9.5107e-05
7.39055e-10
9.5107e-05
7.29363e-10
9.51071e-05
7.19443e-10
9.51071e-05
7.09296e-10
9.51071e-05
6.98917e-10
9.51071e-05
6.88299e-10
9.51072e-05
6.77433e-10
9.51072e-05
6.66309e-10
9.51072e-05
6.54921e-10
9.51073e-05
6.43265e-10
9.51073e-05
6.31343e-10
9.51073e-05
6.19163e-10
9.51073e-05
6.06738e-10
9.51074e-05
5.94084e-10
9.51074e-05
5.81219e-10
9.51074e-05
5.6816e-10
9.51074e-05
5.54919e-10
9.51075e-05
5.41506e-10
9.51075e-05
5.27925e-10
9.51075e-05
5.14176e-10
9.51075e-05
5.00252e-10
9.51076e-05
4.86136e-10
9.51076e-05
4.71801e-10
9.51076e-05
4.57197e-10
9.51076e-05
4.42244e-10
9.51076e-05
4.26812e-10
9.51077e-05
4.10703e-10
9.51077e-05
3.93625e-10
9.51077e-05
3.75117e-10
9.51077e-05
3.54677e-10
9.51077e-05
3.31451e-10
9.51077e-05
3.04261e-10
9.51077e-05
2.75636e-10
9.51077e-05
2.31175e-10
9.51078e-05
2.20163e-10
9.51078e-05
2.25351e-10
9.51077e-05
1.86711e-10
9.51077e-05
1.32606e-10
9.51077e-05
7.43405e-11
9.51077e-05
2.11525e-11
9.51076e-05
-2.43926e-11
9.51076e-05
-6.2979e-11
9.51076e-05
-9.64168e-11
9.51076e-05
-1.27088e-10
9.51075e-05
-1.56375e-10
9.51075e-05
-1.8726e-10
9.51075e-05
-2.19327e-10
9.51075e-05
-2.60722e-10
9.51075e-05
-3.04161e-10
9.51074e-05
-3.80167e-10
9.51074e-05
-4.53773e-10
9.51074e-05
-6.13432e-10
9.51074e-05
-8.27559e-10
-1.05819e-09
9.1643e-05
-1.44616e-09
9.1643e-05
-1.97316e-09
9.16429e-05
-2.33548e-09
9.16428e-05
-2.5495e-09
9.16428e-05
-2.63312e-09
9.16427e-05
-2.6227e-09
9.16427e-05
-2.54897e-09
9.16426e-05
-2.43347e-09
9.16426e-05
-2.29103e-09
9.16425e-05
-2.13167e-09
9.16425e-05
-1.96296e-09
9.16424e-05
-1.79088e-09
9.16424e-05
-1.61989e-09
9.16424e-05
-1.45289e-09
9.16423e-05
-1.29187e-09
9.16423e-05
-1.13807e-09
9.16423e-05
-9.93004e-10
9.16422e-05
-8.57152e-10
9.16422e-05
-7.32177e-10
9.16422e-05
-6.17365e-10
9.16421e-05
-5.1472e-10
9.16421e-05
-4.21188e-10
9.16421e-05
-3.36996e-10
9.16421e-05
-2.57788e-10
9.16421e-05
-1.98577e-10
9.1642e-05
-1.56071e-10
9.1642e-05
-1.01297e-10
9.1642e-05
-3.85001e-11
9.1642e-05
2.81553e-11
9.1642e-05
9.49297e-11
9.16421e-05
1.59409e-10
9.16421e-05
2.20636e-10
9.16421e-05
2.78418e-10
9.16421e-05
3.32865e-10
9.16421e-05
3.84131e-10
9.16421e-05
4.32316e-10
9.16421e-05
4.7744e-10
9.16421e-05
5.19455e-10
9.16421e-05
5.58276e-10
9.16422e-05
5.93825e-10
9.16422e-05
6.2607e-10
9.16422e-05
6.55042e-10
9.16422e-05
6.80834e-10
9.16422e-05
7.03578e-10
9.16422e-05
7.23428e-10
9.16422e-05
7.40537e-10
9.16423e-05
7.55055e-10
9.16423e-05
7.67123e-10
9.16423e-05
7.76876e-10
9.16423e-05
7.84453e-10
9.16423e-05
7.89995e-10
9.16423e-05
7.93651e-10
9.16424e-05
7.95567e-10
9.16424e-05
7.95886e-10
9.16424e-05
7.9474e-10
9.16424e-05
7.9225e-10
9.16425e-05
7.88529e-10
9.16425e-05
7.83686e-10
9.16425e-05