/*--------------------------------*- C++ -*----------------------------------*\
  =========                 |
  \\      /  F ield         | OpenFOAM: The Open Source CFD Toolbox
   \\    /   O peration     | Website:  https://openfoam.org
    \\  /    A nd           | Version:  7
     \\/     M anipulation  |
\*---------------------------------------------------------------------------*/
FoamFile
{
    version     2.0;
    format      ascii;
    class       volScalarField;
    location    "16000";
    object      nut;
}
// * * * * * * * * * * * * * * * * * * * * * * * * * * * * * * * * * * * * * //

dimensions      [0 2 -1 0 0 0 0];

internalField   nonuniform List<scalar> 
24000
(
8.13584e-12
8.13623e-12
8.1365e-12
8.13656e-12
8.13647e-12
8.13631e-12
8.13612e-12
8.13592e-12
8.13574e-12
8.13557e-12
8.13543e-12
8.13532e-12
8.13522e-12
8.13515e-12
8.1351e-12
8.13506e-12
8.13504e-12
8.13503e-12
8.13503e-12
8.13504e-12
8.13507e-12
8.13509e-12
8.13513e-12
8.13517e-12
8.13521e-12
8.13526e-12
8.1353e-12
8.13535e-12
8.13541e-12
8.13546e-12
8.13551e-12
8.13556e-12
8.13562e-12
8.13567e-12
8.13572e-12
8.13577e-12
8.13582e-12
8.13586e-12
8.13591e-12
8.13595e-12
8.136e-12
8.13604e-12
8.13607e-12
8.13611e-12
8.13613e-12
8.13616e-12
8.13618e-12
8.1362e-12
8.13622e-12
8.13624e-12
8.13626e-12
8.13628e-12
8.1363e-12
8.13632e-12
8.13633e-12
8.13634e-12
8.13635e-12
8.13635e-12
8.13634e-12
8.13633e-12
8.13631e-12
8.13628e-12
8.13625e-12
8.13621e-12
8.13616e-12
8.13612e-12
8.13607e-12
8.13602e-12
8.13597e-12
8.13592e-12
8.13588e-12
8.13583e-12
8.13579e-12
8.13575e-12
8.13571e-12
8.13567e-12
8.13564e-12
8.13561e-12
8.13558e-12
8.13555e-12
8.13553e-12
8.1355e-12
8.13548e-12
8.13546e-12
8.13544e-12
8.13543e-12
8.13541e-12
8.1354e-12
8.13539e-12
8.13538e-12
8.13537e-12
8.13537e-12
8.13536e-12
8.13535e-12
8.13534e-12
8.13533e-12
8.13533e-12
8.13533e-12
8.13533e-12
8.13534e-12
8.13535e-12
8.13537e-12
8.13539e-12
8.1354e-12
8.13543e-12
8.13545e-12
8.13548e-12
8.13551e-12
8.13554e-12
8.13557e-12
8.13561e-12
8.13564e-12
8.13568e-12
8.13571e-12
8.13574e-12
8.13577e-12
8.13579e-12
8.13581e-12
8.13585e-12
8.13577e-12
1.50956e-09
1.50963e-09
1.50968e-09
1.5097e-09
1.50968e-09
1.50965e-09
1.50961e-09
1.50958e-09
1.50954e-09
1.50951e-09
1.50949e-09
1.50946e-09
1.50945e-09
1.50943e-09
1.50942e-09
1.50942e-09
1.50941e-09
1.50941e-09
1.50941e-09
1.50941e-09
1.50942e-09
1.50942e-09
1.50943e-09
1.50944e-09
1.50944e-09
1.50945e-09
1.50946e-09
1.50947e-09
1.50948e-09
1.50949e-09
1.5095e-09
1.50951e-09
1.50952e-09
1.50953e-09
1.50954e-09
1.50955e-09
1.50956e-09
1.50957e-09
1.50957e-09
1.50958e-09
1.50959e-09
1.5096e-09
1.5096e-09
1.50961e-09
1.50962e-09
1.50962e-09
1.50962e-09
1.50963e-09
1.50963e-09
1.50964e-09
1.50964e-09
1.50964e-09
1.50965e-09
1.50965e-09
1.50965e-09
1.50965e-09
1.50966e-09
1.50966e-09
1.50965e-09
1.50965e-09
1.50965e-09
1.50964e-09
1.50964e-09
1.50963e-09
1.50962e-09
1.50961e-09
1.5096e-09
1.50959e-09
1.50959e-09
1.50958e-09
1.50957e-09
1.50956e-09
1.50955e-09
1.50954e-09
1.50954e-09
1.50953e-09
1.50952e-09
1.50952e-09
1.50951e-09
1.50951e-09
1.5095e-09
1.5095e-09
1.50949e-09
1.50949e-09
1.50949e-09
1.50948e-09
1.50948e-09
1.50948e-09
1.50948e-09
1.50948e-09
1.50947e-09
1.50947e-09
1.50947e-09
1.50947e-09
1.50947e-09
1.50947e-09
1.50947e-09
1.50947e-09
1.50947e-09
1.50947e-09
1.50947e-09
1.50947e-09
1.50948e-09
1.50948e-09
1.50948e-09
1.50949e-09
1.50949e-09
1.5095e-09
1.50951e-09
1.50951e-09
1.50952e-09
1.50953e-09
1.50953e-09
1.50954e-09
1.50954e-09
1.50955e-09
1.50955e-09
1.50956e-09
1.50956e-09
1.50955e-09
3.22372e-08
3.22388e-08
3.22399e-08
3.22401e-08
3.22397e-08
3.22391e-08
3.22383e-08
3.22376e-08
3.22368e-08
3.22362e-08
3.22356e-08
3.22352e-08
3.22348e-08
3.22345e-08
3.22343e-08
3.22342e-08
3.22341e-08
3.22341e-08
3.22341e-08
3.22341e-08
3.22342e-08
3.22343e-08
3.22345e-08
3.22346e-08
3.22348e-08
3.2235e-08
3.22351e-08
3.22353e-08
3.22355e-08
3.22358e-08
3.2236e-08
3.22362e-08
3.22364e-08
3.22366e-08
3.22368e-08
3.2237e-08
3.22372e-08
3.22374e-08
3.22375e-08
3.22377e-08
3.22379e-08
3.2238e-08
3.22382e-08
3.22383e-08
3.22384e-08
3.22385e-08
3.22386e-08
3.22387e-08
3.22388e-08
3.22388e-08
3.22389e-08
3.2239e-08
3.22391e-08
3.22391e-08
3.22392e-08
3.22392e-08
3.22392e-08
3.22392e-08
3.22392e-08
3.22392e-08
3.22391e-08
3.2239e-08
3.22388e-08
3.22387e-08
3.22385e-08
3.22383e-08
3.22381e-08
3.22379e-08
3.22378e-08
3.22376e-08
3.22374e-08
3.22372e-08
3.2237e-08
3.22369e-08
3.22367e-08
3.22366e-08
3.22364e-08
3.22363e-08
3.22362e-08
3.22361e-08
3.2236e-08
3.22359e-08
3.22358e-08
3.22358e-08
3.22357e-08
3.22356e-08
3.22356e-08
3.22355e-08
3.22355e-08
3.22354e-08
3.22354e-08
3.22354e-08
3.22353e-08
3.22353e-08
3.22353e-08
3.22352e-08
3.22352e-08
3.22352e-08
3.22352e-08
3.22353e-08
3.22353e-08
3.22354e-08
3.22354e-08
3.22355e-08
3.22356e-08
3.22357e-08
3.22358e-08
3.22359e-08
3.22361e-08
3.22362e-08
3.22363e-08
3.22365e-08
3.22366e-08
3.22367e-08
3.22369e-08
3.2237e-08
3.22371e-08
3.22371e-08
3.22373e-08
3.2237e-08
2.45419e-07
2.45432e-07
2.4544e-07
2.45441e-07
2.45438e-07
2.45433e-07
2.45427e-07
2.45422e-07
2.45416e-07
2.45411e-07
2.45407e-07
2.45404e-07
2.45401e-07
2.45399e-07
2.45398e-07
2.45397e-07
2.45396e-07
2.45396e-07
2.45396e-07
2.45396e-07
2.45397e-07
2.45398e-07
2.45399e-07
2.454e-07
2.45401e-07
2.45403e-07
2.45404e-07
2.45405e-07
2.45407e-07
2.45409e-07
2.4541e-07
2.45412e-07
2.45413e-07
2.45415e-07
2.45416e-07
2.45418e-07
2.45419e-07
2.4542e-07
2.45422e-07
2.45423e-07
2.45424e-07
2.45425e-07
2.45426e-07
2.45427e-07
2.45428e-07
2.45429e-07
2.4543e-07
2.4543e-07
2.45431e-07
2.45431e-07
2.45432e-07
2.45433e-07
2.45433e-07
2.45434e-07
2.45434e-07
2.45434e-07
2.45434e-07
2.45434e-07
2.45434e-07
2.45434e-07
2.45433e-07
2.45432e-07
2.45431e-07
2.4543e-07
2.45429e-07
2.45427e-07
2.45426e-07
2.45425e-07
2.45423e-07
2.45422e-07
2.4542e-07
2.45419e-07
2.45418e-07
2.45417e-07
2.45415e-07
2.45414e-07
2.45413e-07
2.45412e-07
2.45412e-07
2.45411e-07
2.4541e-07
2.45409e-07
2.45409e-07
2.45408e-07
2.45408e-07
2.45407e-07
2.45407e-07
2.45407e-07
2.45406e-07
2.45406e-07
2.45406e-07
2.45405e-07
2.45405e-07
2.45405e-07
2.45405e-07
2.45405e-07
2.45404e-07
2.45404e-07
2.45405e-07
2.45405e-07
2.45405e-07
2.45406e-07
2.45406e-07
2.45407e-07
2.45407e-07
2.45408e-07
2.45409e-07
2.4541e-07
2.45411e-07
2.45412e-07
2.45413e-07
2.45414e-07
2.45415e-07
2.45416e-07
2.45417e-07
2.45417e-07
2.45418e-07
2.45419e-07
2.4542e-07
2.45417e-07
1.0314e-06
1.03146e-06
1.03148e-06
1.03149e-06
1.03147e-06
1.03145e-06
1.03143e-06
1.0314e-06
1.03138e-06
1.03136e-06
1.03135e-06
1.03133e-06
1.03132e-06
1.03131e-06
1.03131e-06
1.0313e-06
1.0313e-06
1.0313e-06
1.0313e-06
1.0313e-06
1.03131e-06
1.03131e-06
1.03132e-06
1.03132e-06
1.03133e-06
1.03133e-06
1.03134e-06
1.03134e-06
1.03135e-06
1.03136e-06
1.03136e-06
1.03137e-06
1.03137e-06
1.03138e-06
1.03139e-06
1.03139e-06
1.0314e-06
1.0314e-06
1.03141e-06
1.03141e-06
1.03142e-06
1.03142e-06
1.03143e-06
1.03143e-06
1.03143e-06
1.03144e-06
1.03144e-06
1.03144e-06
1.03144e-06
1.03145e-06
1.03145e-06
1.03145e-06
1.03145e-06
1.03145e-06
1.03146e-06
1.03146e-06
1.03146e-06
1.03146e-06
1.03146e-06
1.03145e-06
1.03145e-06
1.03145e-06
1.03144e-06
1.03144e-06
1.03143e-06
1.03143e-06
1.03142e-06
1.03142e-06
1.03141e-06
1.03141e-06
1.0314e-06
1.03139e-06
1.03139e-06
1.03138e-06
1.03138e-06
1.03138e-06
1.03137e-06
1.03137e-06
1.03136e-06
1.03136e-06
1.03136e-06
1.03136e-06
1.03135e-06
1.03135e-06
1.03135e-06
1.03135e-06
1.03135e-06
1.03135e-06
1.03134e-06
1.03134e-06
1.03134e-06
1.03134e-06
1.03134e-06
1.03134e-06
1.03134e-06
1.03134e-06
1.03134e-06
1.03134e-06
1.03134e-06
1.03134e-06
1.03134e-06
1.03134e-06
1.03134e-06
1.03135e-06
1.03135e-06
1.03135e-06
1.03135e-06
1.03136e-06
1.03136e-06
1.03137e-06
1.03137e-06
1.03138e-06
1.03138e-06
1.03138e-06
1.03139e-06
1.03139e-06
1.03139e-06
1.03139e-06
1.0314e-06
1.03139e-06
2.90378e-06
2.90394e-06
2.90398e-06
2.90398e-06
2.90394e-06
2.90388e-06
2.90382e-06
2.90375e-06
2.9037e-06
2.90364e-06
2.9036e-06
2.90357e-06
2.90354e-06
2.90352e-06
2.9035e-06
2.90349e-06
2.90349e-06
2.90349e-06
2.90349e-06
2.9035e-06
2.9035e-06
2.90351e-06
2.90353e-06
2.90354e-06
2.90355e-06
2.90357e-06
2.90358e-06
2.9036e-06
2.90362e-06
2.90363e-06
2.90365e-06
2.90367e-06
2.90368e-06
2.9037e-06
2.90371e-06
2.90373e-06
2.90374e-06
2.90376e-06
2.90377e-06
2.90378e-06
2.9038e-06
2.90381e-06
2.90382e-06
2.90383e-06
2.90384e-06
2.90384e-06
2.90385e-06
2.90385e-06
2.90386e-06
2.90387e-06
2.90387e-06
2.90388e-06
2.90388e-06
2.90389e-06
2.90389e-06
2.9039e-06
2.9039e-06
2.9039e-06
2.90389e-06
2.90389e-06
2.90388e-06
2.90387e-06
2.90386e-06
2.90385e-06
2.90383e-06
2.90382e-06
2.9038e-06
2.90379e-06
2.90377e-06
2.90376e-06
2.90374e-06
2.90373e-06
2.90371e-06
2.9037e-06
2.90369e-06
2.90368e-06
2.90367e-06
2.90366e-06
2.90365e-06
2.90364e-06
2.90364e-06
2.90363e-06
2.90362e-06
2.90362e-06
2.90361e-06
2.90361e-06
2.9036e-06
2.9036e-06
2.9036e-06
2.90359e-06
2.90359e-06
2.90359e-06
2.90359e-06
2.90358e-06
2.90358e-06
2.90358e-06
2.90358e-06
2.90358e-06
2.90358e-06
2.90358e-06
2.90359e-06
2.90359e-06
2.9036e-06
2.9036e-06
2.90361e-06
2.90362e-06
2.90363e-06
2.90364e-06
2.90365e-06
2.90366e-06
2.90367e-06
2.90368e-06
2.90369e-06
2.9037e-06
2.90371e-06
2.90372e-06
2.90373e-06
2.90373e-06
2.90375e-06
2.90371e-06
6.15782e-06
6.1581e-06
6.15812e-06
6.15807e-06
6.15798e-06
6.15786e-06
6.15773e-06
6.1576e-06
6.15749e-06
6.15739e-06
6.15731e-06
6.15724e-06
6.15718e-06
6.15714e-06
6.15711e-06
6.1571e-06
6.15709e-06
6.15709e-06
6.1571e-06
6.15711e-06
6.15713e-06
6.15715e-06
6.15717e-06
6.1572e-06
6.15723e-06
6.15726e-06
6.15729e-06
6.15733e-06
6.15736e-06
6.15739e-06
6.15743e-06
6.15746e-06
6.15749e-06
6.15752e-06
6.15755e-06
6.15758e-06
6.15761e-06
6.15764e-06
6.15766e-06
6.15769e-06
6.15771e-06
6.15773e-06
6.15775e-06
6.15777e-06
6.15779e-06
6.1578e-06
6.15781e-06
6.15782e-06
6.15783e-06
6.15784e-06
6.15785e-06
6.15786e-06
6.15787e-06
6.15788e-06
6.15789e-06
6.1579e-06
6.1579e-06
6.15789e-06
6.15789e-06
6.15788e-06
6.15786e-06
6.15784e-06
6.15782e-06
6.15779e-06
6.15776e-06
6.15774e-06
6.1577e-06
6.15767e-06
6.15764e-06
6.15761e-06
6.15758e-06
6.15756e-06
6.15753e-06
6.15751e-06
6.15748e-06
6.15746e-06
6.15744e-06
6.15742e-06
6.15741e-06
6.15739e-06
6.15738e-06
6.15736e-06
6.15735e-06
6.15734e-06
6.15733e-06
6.15732e-06
6.15732e-06
6.15731e-06
6.15731e-06
6.1573e-06
6.1573e-06
6.15729e-06
6.15728e-06
6.15728e-06
6.15728e-06
6.15727e-06
6.15727e-06
6.15727e-06
6.15727e-06
6.15728e-06
6.15729e-06
6.1573e-06
6.15731e-06
6.15732e-06
6.15734e-06
6.15735e-06
6.15737e-06
6.15739e-06
6.15741e-06
6.15743e-06
6.15745e-06
6.15748e-06
6.1575e-06
6.15752e-06
6.15754e-06
6.15755e-06
6.15757e-06
6.15758e-06
6.15761e-06
6.15751e-06
1.07349e-05
1.07353e-05
1.07352e-05
1.07351e-05
1.07349e-05
1.07347e-05
1.07345e-05
1.07343e-05
1.07341e-05
1.07339e-05
1.07338e-05
1.07337e-05
1.07336e-05
1.07335e-05
1.07335e-05
1.07334e-05
1.07334e-05
1.07334e-05
1.07334e-05
1.07335e-05
1.07335e-05
1.07335e-05
1.07336e-05
1.07336e-05
1.07337e-05
1.07337e-05
1.07338e-05
1.07338e-05
1.07339e-05
1.0734e-05
1.0734e-05
1.07341e-05
1.07341e-05
1.07342e-05
1.07342e-05
1.07343e-05
1.07343e-05
1.07344e-05
1.07344e-05
1.07344e-05
1.07345e-05
1.07345e-05
1.07345e-05
1.07346e-05
1.07346e-05
1.07346e-05
1.07346e-05
1.07346e-05
1.07347e-05
1.07347e-05
1.07347e-05
1.07347e-05
1.07347e-05
1.07347e-05
1.07348e-05
1.07348e-05
1.07348e-05
1.07348e-05
1.07347e-05
1.07347e-05
1.07347e-05
1.07347e-05
1.07346e-05
1.07346e-05
1.07345e-05
1.07345e-05
1.07344e-05
1.07344e-05
1.07343e-05
1.07343e-05
1.07342e-05
1.07342e-05
1.07342e-05
1.07341e-05
1.07341e-05
1.0734e-05
1.0734e-05
1.0734e-05
1.07339e-05
1.07339e-05
1.07339e-05
1.07339e-05
1.07339e-05
1.07338e-05
1.07338e-05
1.07338e-05
1.07338e-05
1.07338e-05
1.07338e-05
1.07338e-05
1.07338e-05
1.07338e-05
1.07338e-05
1.07337e-05
1.07337e-05
1.07337e-05
1.07337e-05
1.07337e-05
1.07337e-05
1.07338e-05
1.07338e-05
1.07338e-05
1.07338e-05
1.07338e-05
1.07339e-05
1.07339e-05
1.07339e-05
1.07339e-05
1.0734e-05
1.0734e-05
1.0734e-05
1.07341e-05
1.07341e-05
1.07341e-05
1.07342e-05
1.07342e-05
1.07342e-05
1.07342e-05
1.07343e-05
1.07341e-05
1.63993e-05
1.63997e-05
1.63995e-05
1.63993e-05
1.6399e-05
1.63987e-05
1.63984e-05
1.63981e-05
1.63978e-05
1.63976e-05
1.63974e-05
1.63972e-05
1.63971e-05
1.6397e-05
1.6397e-05
1.63969e-05
1.63969e-05
1.63969e-05
1.63969e-05
1.6397e-05
1.6397e-05
1.63971e-05
1.63971e-05
1.63972e-05
1.63973e-05
1.63974e-05
1.63974e-05
1.63975e-05
1.63976e-05
1.63977e-05
1.63978e-05
1.63978e-05
1.63979e-05
1.6398e-05
1.63981e-05
1.63981e-05
1.63982e-05
1.63983e-05
1.63983e-05
1.63984e-05
1.63985e-05
1.63985e-05
1.63986e-05
1.63986e-05
1.63986e-05
1.63987e-05
1.63987e-05
1.63987e-05
1.63987e-05
1.63987e-05
1.63988e-05
1.63988e-05
1.63988e-05
1.63988e-05
1.63988e-05
1.63988e-05
1.63988e-05
1.63988e-05
1.63988e-05
1.63988e-05
1.63988e-05
1.63987e-05
1.63986e-05
1.63986e-05
1.63985e-05
1.63984e-05
1.63984e-05
1.63983e-05
1.63982e-05
1.63982e-05
1.63981e-05
1.6398e-05
1.6398e-05
1.63979e-05
1.63978e-05
1.63978e-05
1.63977e-05
1.63977e-05
1.63977e-05
1.63976e-05
1.63976e-05
1.63976e-05
1.63975e-05
1.63975e-05
1.63975e-05
1.63975e-05
1.63975e-05
1.63974e-05
1.63974e-05
1.63974e-05
1.63974e-05
1.63974e-05
1.63974e-05
1.63974e-05
1.63974e-05
1.63974e-05
1.63974e-05
1.63974e-05
1.63974e-05
1.63974e-05
1.63974e-05
1.63974e-05
1.63975e-05
1.63975e-05
1.63975e-05
1.63976e-05
1.63976e-05
1.63977e-05
1.63977e-05
1.63978e-05
1.63978e-05
1.63979e-05
1.63979e-05
1.6398e-05
1.6398e-05
1.6398e-05
1.63981e-05
1.63981e-05
1.63982e-05
1.63979e-05
2.29152e-05
2.29156e-05
2.29153e-05
2.29149e-05
2.29145e-05
2.29141e-05
2.29137e-05
2.29133e-05
2.29129e-05
2.29126e-05
2.29124e-05
2.29122e-05
2.2912e-05
2.29119e-05
2.29118e-05
2.29118e-05
2.29118e-05
2.29118e-05
2.29118e-05
2.29119e-05
2.29119e-05
2.2912e-05
2.29121e-05
2.29122e-05
2.29123e-05
2.29124e-05
2.29125e-05
2.29126e-05
2.29128e-05
2.29129e-05
2.2913e-05
2.29131e-05
2.29132e-05
2.29133e-05
2.29134e-05
2.29135e-05
2.29136e-05
2.29137e-05
2.29138e-05
2.29139e-05
2.29139e-05
2.2914e-05
2.29141e-05
2.29141e-05
2.29142e-05
2.29142e-05
2.29142e-05
2.29143e-05
2.29143e-05
2.29143e-05
2.29144e-05
2.29144e-05
2.29144e-05
2.29144e-05
2.29144e-05
2.29144e-05
2.29144e-05
2.29144e-05
2.29144e-05
2.29144e-05
2.29143e-05
2.29142e-05
2.29141e-05
2.29141e-05
2.2914e-05
2.29139e-05
2.29138e-05
2.29137e-05
2.29136e-05
2.29135e-05
2.29134e-05
2.29133e-05
2.29132e-05
2.29131e-05
2.29131e-05
2.2913e-05
2.29129e-05
2.29129e-05
2.29128e-05
2.29128e-05
2.29127e-05
2.29127e-05
2.29126e-05
2.29126e-05
2.29126e-05
2.29126e-05
2.29125e-05
2.29125e-05
2.29125e-05
2.29125e-05
2.29125e-05
2.29125e-05
2.29124e-05
2.29124e-05
2.29124e-05
2.29124e-05
2.29124e-05
2.29124e-05
2.29124e-05
2.29125e-05
2.29125e-05
2.29125e-05
2.29126e-05
2.29126e-05
2.29127e-05
2.29127e-05
2.29128e-05
2.29128e-05
2.29129e-05
2.2913e-05
2.2913e-05
2.29131e-05
2.29132e-05
2.29132e-05
2.29133e-05
2.29133e-05
2.29134e-05
2.29134e-05
2.29135e-05
2.29131e-05
3.01034e-05
3.01038e-05
3.01034e-05
3.01029e-05
3.01023e-05
3.01018e-05
3.01013e-05
3.01009e-05
3.01005e-05
3.01001e-05
3.00998e-05
3.00995e-05
3.00994e-05
3.00992e-05
3.00991e-05
3.00991e-05
3.0099e-05
3.0099e-05
3.00991e-05
3.00992e-05
3.00992e-05
3.00994e-05
3.00995e-05
3.00996e-05
3.00997e-05
3.00999e-05
3.01e-05
3.01002e-05
3.01003e-05
3.01005e-05
3.01006e-05
3.01008e-05
3.01009e-05
3.0101e-05
3.01012e-05
3.01013e-05
3.01014e-05
3.01016e-05
3.01017e-05
3.01018e-05
3.01019e-05
3.0102e-05
3.0102e-05
3.01021e-05
3.01022e-05
3.01023e-05
3.01023e-05
3.01023e-05
3.01024e-05
3.01024e-05
3.01024e-05
3.01025e-05
3.01025e-05
3.01025e-05
3.01025e-05
3.01025e-05
3.01025e-05
3.01025e-05
3.01024e-05
3.01024e-05
3.01023e-05
3.01022e-05
3.01021e-05
3.0102e-05
3.01019e-05
3.01018e-05
3.01016e-05
3.01015e-05
3.01014e-05
3.01013e-05
3.01011e-05
3.0101e-05
3.01009e-05
3.01008e-05
3.01007e-05
3.01006e-05
3.01005e-05
3.01005e-05
3.01004e-05
3.01003e-05
3.01003e-05
3.01002e-05
3.01002e-05
3.01001e-05
3.01001e-05
3.01001e-05
3.01e-05
3.01e-05
3.01e-05
3.01e-05
3.00999e-05
3.00999e-05
3.00999e-05
3.00999e-05
3.00999e-05
3.00999e-05
3.00999e-05
3.00999e-05
3.00999e-05
3.00999e-05
3.01e-05
3.01e-05
3.01001e-05
3.01002e-05
3.01002e-05
3.01003e-05
3.01004e-05
3.01005e-05
3.01005e-05
3.01006e-05
3.01007e-05
3.01008e-05
3.01009e-05
3.01009e-05
3.0101e-05
3.01011e-05
3.01011e-05
3.01012e-05
3.01013e-05
3.01009e-05
3.78381e-05
3.78384e-05
3.78379e-05
3.78373e-05
3.78367e-05
3.78361e-05
3.78355e-05
3.7835e-05
3.78345e-05
3.78341e-05
3.78338e-05
3.78335e-05
3.78333e-05
3.78331e-05
3.7833e-05
3.78329e-05
3.78329e-05
3.78329e-05
3.7833e-05
3.78331e-05
3.78332e-05
3.78333e-05
3.78334e-05
3.78336e-05
3.78338e-05
3.7834e-05
3.78341e-05
3.78343e-05
3.78345e-05
3.78347e-05
3.78349e-05
3.78351e-05
3.78353e-05
3.78354e-05
3.78356e-05
3.78358e-05
3.78359e-05
3.78361e-05
3.78362e-05
3.78364e-05
3.78365e-05
3.78366e-05
3.78367e-05
3.78368e-05
3.78369e-05
3.7837e-05
3.78371e-05
3.78371e-05
3.78371e-05
3.78372e-05
3.78372e-05
3.78373e-05
3.78373e-05
3.78373e-05
3.78373e-05
3.78373e-05
3.78373e-05
3.78372e-05
3.78372e-05
3.78371e-05
3.7837e-05
3.78369e-05
3.78368e-05
3.78366e-05
3.78365e-05
3.78363e-05
3.78362e-05
3.7836e-05
3.78359e-05
3.78357e-05
3.78356e-05
3.78354e-05
3.78353e-05
3.78352e-05
3.7835e-05
3.78349e-05
3.78348e-05
3.78347e-05
3.78346e-05
3.78346e-05
3.78345e-05
3.78344e-05
3.78343e-05
3.78343e-05
3.78342e-05
3.78342e-05
3.78342e-05
3.78341e-05
3.78341e-05
3.78341e-05
3.7834e-05
3.7834e-05
3.7834e-05
3.7834e-05
3.7834e-05
3.7834e-05
3.7834e-05
3.7834e-05
3.7834e-05
3.78341e-05
3.78341e-05
3.78342e-05
3.78343e-05
3.78344e-05
3.78344e-05
3.78345e-05
3.78346e-05
3.78347e-05
3.78348e-05
3.78349e-05
3.7835e-05
3.78351e-05
3.78352e-05
3.78353e-05
3.78354e-05
3.78355e-05
3.78356e-05
3.78356e-05
3.78357e-05
3.78353e-05
4.60314e-05
4.60316e-05
4.60311e-05
4.60304e-05
4.60297e-05
4.6029e-05
4.60284e-05
4.60278e-05
4.60273e-05
4.60269e-05
4.60265e-05
4.60262e-05
4.6026e-05
4.60258e-05
4.60257e-05
4.60256e-05
4.60256e-05
4.60256e-05
4.60257e-05
4.60258e-05
4.6026e-05
4.60261e-05
4.60263e-05
4.60265e-05
4.60267e-05
4.60269e-05
4.60271e-05
4.60273e-05
4.60276e-05
4.60278e-05
4.6028e-05
4.60283e-05
4.60285e-05
4.60287e-05
4.60289e-05
4.60291e-05
4.60293e-05
4.60295e-05
4.60297e-05
4.60299e-05
4.603e-05
4.60302e-05
4.60303e-05
4.60304e-05
4.60305e-05
4.60306e-05
4.60307e-05
4.60308e-05
4.60309e-05
4.60309e-05
4.60309e-05
4.6031e-05
4.6031e-05
4.6031e-05
4.6031e-05
4.6031e-05
4.6031e-05
4.60309e-05
4.60308e-05
4.60307e-05
4.60306e-05
4.60305e-05
4.60303e-05
4.60302e-05
4.603e-05
4.60298e-05
4.60296e-05
4.60294e-05
4.60292e-05
4.6029e-05
4.60289e-05
4.60287e-05
4.60285e-05
4.60284e-05
4.60282e-05
4.60281e-05
4.6028e-05
4.60279e-05
4.60277e-05
4.60276e-05
4.60275e-05
4.60274e-05
4.60274e-05
4.60273e-05
4.60272e-05
4.60272e-05
4.60271e-05
4.60271e-05
4.60271e-05
4.6027e-05
4.6027e-05
4.6027e-05
4.60269e-05
4.60269e-05
4.60269e-05
4.60269e-05
4.60269e-05
4.60269e-05
4.6027e-05
4.6027e-05
4.60271e-05
4.60272e-05
4.60273e-05
4.60274e-05
4.60275e-05
4.60276e-05
4.60278e-05
4.60279e-05
4.6028e-05
4.60281e-05
4.60282e-05
4.60283e-05
4.60284e-05
4.60286e-05
4.60287e-05
4.60288e-05
4.60288e-05
4.60289e-05
4.60291e-05
4.60287e-05
5.46212e-05
5.46211e-05
5.46205e-05
5.46198e-05
5.4619e-05
5.46183e-05
5.46177e-05
5.46171e-05
5.46166e-05
5.46161e-05
5.46158e-05
5.46155e-05
5.46152e-05
5.4615e-05
5.46149e-05
5.46149e-05
5.46149e-05
5.46149e-05
5.4615e-05
5.46151e-05
5.46153e-05
5.46155e-05
5.46157e-05
5.46159e-05
5.46161e-05
5.46164e-05
5.46167e-05
5.46169e-05
5.46172e-05
5.46175e-05
5.46178e-05
5.4618e-05
5.46183e-05
5.46186e-05
5.46188e-05
5.46191e-05
5.46193e-05
5.46195e-05
5.46198e-05
5.462e-05
5.46202e-05
5.46203e-05
5.46205e-05
5.46207e-05
5.46208e-05
5.46209e-05
5.4621e-05
5.46211e-05
5.46212e-05
5.46213e-05
5.46213e-05
5.46214e-05
5.46214e-05
5.46214e-05
5.46214e-05
5.46214e-05
5.46213e-05
5.46212e-05
5.46211e-05
5.4621e-05
5.46208e-05
5.46207e-05
5.46205e-05
5.46203e-05
5.46201e-05
5.46198e-05
5.46196e-05
5.46194e-05
5.46192e-05
5.4619e-05
5.46188e-05
5.46186e-05
5.46184e-05
5.46182e-05
5.4618e-05
5.46178e-05
5.46177e-05
5.46175e-05
5.46174e-05
5.46173e-05
5.46172e-05
5.4617e-05
5.46169e-05
5.46169e-05
5.46168e-05
5.46167e-05
5.46167e-05
5.46166e-05
5.46166e-05
5.46165e-05
5.46165e-05
5.46164e-05
5.46164e-05
5.46164e-05
5.46163e-05
5.46164e-05
5.46164e-05
5.46164e-05
5.46165e-05
5.46165e-05
5.46166e-05
5.46168e-05
5.46169e-05
5.4617e-05
5.46172e-05
5.46173e-05
5.46175e-05
5.46176e-05
5.46177e-05
5.46179e-05
5.4618e-05
5.46181e-05
5.46183e-05
5.46184e-05
5.46185e-05
5.46186e-05
5.46187e-05
5.46188e-05
5.4619e-05
5.46187e-05
6.35621e-05
6.35618e-05
6.3561e-05
6.35603e-05
6.35595e-05
6.35588e-05
6.35582e-05
6.35576e-05
6.35571e-05
6.35567e-05
6.35563e-05
6.3556e-05
6.35558e-05
6.35556e-05
6.35555e-05
6.35555e-05
6.35555e-05
6.35556e-05
6.35557e-05
6.35558e-05
6.3556e-05
6.35563e-05
6.35565e-05
6.35567e-05
6.3557e-05
6.35573e-05
6.35577e-05
6.3558e-05
6.35583e-05
6.35586e-05
6.35589e-05
6.35593e-05
6.35596e-05
6.35599e-05
6.35602e-05
6.35605e-05
6.35607e-05
6.3561e-05
6.35613e-05
6.35615e-05
6.35618e-05
6.3562e-05
6.35622e-05
6.35624e-05
6.35625e-05
6.35627e-05
6.35628e-05
6.35629e-05
6.3563e-05
6.35631e-05
6.35632e-05
6.35632e-05
6.35632e-05
6.35632e-05
6.35632e-05
6.35632e-05
6.35631e-05
6.3563e-05
6.35629e-05
6.35627e-05
6.35625e-05
6.35623e-05
6.35621e-05
6.35618e-05
6.35616e-05
6.35613e-05
6.35611e-05
6.35608e-05
6.35605e-05
6.35603e-05
6.356e-05
6.35598e-05
6.35596e-05
6.35594e-05
6.35592e-05
6.3559e-05
6.35588e-05
6.35586e-05
6.35585e-05
6.35583e-05
6.35582e-05
6.3558e-05
6.35579e-05
6.35578e-05
6.35577e-05
6.35577e-05
6.35576e-05
6.35575e-05
6.35574e-05
6.35574e-05
6.35573e-05
6.35573e-05
6.35572e-05
6.35572e-05
6.35572e-05
6.35572e-05
6.35572e-05
6.35573e-05
6.35574e-05
6.35575e-05
6.35576e-05
6.35577e-05
6.35579e-05
6.35581e-05
6.35582e-05
6.35584e-05
6.35586e-05
6.35588e-05
6.35589e-05
6.35591e-05
6.35592e-05
6.35594e-05
6.35595e-05
6.35597e-05
6.35598e-05
6.356e-05
6.35601e-05
6.35602e-05
6.35603e-05
6.35602e-05
7.28209e-05
7.28203e-05
7.28195e-05
7.28186e-05
7.28179e-05
7.28172e-05
7.28166e-05
7.28161e-05
7.28156e-05
7.28152e-05
7.28149e-05
7.28146e-05
7.28144e-05
7.28143e-05
7.28142e-05
7.28142e-05
7.28143e-05
7.28143e-05
7.28145e-05
7.28147e-05
7.28149e-05
7.28152e-05
7.28155e-05
7.28157e-05
7.28161e-05
7.28164e-05
7.28168e-05
7.28172e-05
7.28175e-05
7.28179e-05
7.28182e-05
7.28186e-05
7.2819e-05
7.28193e-05
7.28197e-05
7.282e-05
7.28204e-05
7.28207e-05
7.2821e-05
7.28212e-05
7.28215e-05
7.28218e-05
7.2822e-05
7.28223e-05
7.28225e-05
7.28227e-05
7.28228e-05
7.28229e-05
7.28231e-05
7.28232e-05
7.28233e-05
7.28233e-05
7.28233e-05
7.28233e-05
7.28233e-05
7.28232e-05
7.2823e-05
7.28229e-05
7.28227e-05
7.28225e-05
7.28223e-05
7.2822e-05
7.28218e-05
7.28215e-05
7.28212e-05
7.28209e-05
7.28206e-05
7.28203e-05
7.282e-05
7.28197e-05
7.28194e-05
7.28192e-05
7.2819e-05
7.28187e-05
7.28185e-05
7.28182e-05
7.2818e-05
7.28178e-05
7.28176e-05
7.28175e-05
7.28173e-05
7.28171e-05
7.2817e-05
7.28168e-05
7.28167e-05
7.28167e-05
7.28166e-05
7.28165e-05
7.28164e-05
7.28163e-05
7.28162e-05
7.28162e-05
7.28161e-05
7.28161e-05
7.28161e-05
7.28161e-05
7.28162e-05
7.28162e-05
7.28163e-05
7.28165e-05
7.28166e-05
7.28168e-05
7.2817e-05
7.28172e-05
7.28174e-05
7.28177e-05
7.28179e-05
7.28181e-05
7.28183e-05
7.28184e-05
7.28186e-05
7.28188e-05
7.2819e-05
7.28191e-05
7.28193e-05
7.28194e-05
7.28195e-05
7.28197e-05
7.28198e-05
7.28199e-05
8.2373e-05
8.2372e-05
8.2371e-05
8.23701e-05
8.23694e-05
8.23687e-05
8.23682e-05
8.23677e-05
8.23673e-05
8.2367e-05
8.23667e-05
8.23665e-05
8.23663e-05
8.23663e-05
8.23662e-05
8.23663e-05
8.23664e-05
8.23665e-05
8.23667e-05
8.23669e-05
8.23672e-05
8.23675e-05
8.23678e-05
8.23681e-05
8.23685e-05
8.23689e-05
8.23693e-05
8.23697e-05
8.23701e-05
8.23705e-05
8.2371e-05
8.23714e-05
8.23718e-05
8.23722e-05
8.23726e-05
8.2373e-05
8.23734e-05
8.23737e-05
8.23741e-05
8.23744e-05
8.23747e-05
8.2375e-05
8.23753e-05
8.23756e-05
8.23758e-05
8.2376e-05
8.23762e-05
8.23764e-05
8.23765e-05
8.23767e-05
8.23768e-05
8.23768e-05
8.23768e-05
8.23768e-05
8.23767e-05
8.23766e-05
8.23764e-05
8.23762e-05
8.2376e-05
8.23757e-05
8.23754e-05
8.23751e-05
8.23748e-05
8.23745e-05
8.23741e-05
8.23738e-05
8.23735e-05
8.23731e-05
8.23728e-05
8.23724e-05
8.23721e-05
8.23719e-05
8.23716e-05
8.23713e-05
8.2371e-05
8.23707e-05
8.23705e-05
8.23703e-05
8.23701e-05
8.23699e-05
8.23697e-05
8.23695e-05
8.23693e-05
8.23692e-05
8.2369e-05
8.23689e-05
8.23688e-05
8.23687e-05
8.23686e-05
8.23685e-05
8.23684e-05
8.23683e-05
8.23683e-05
8.23682e-05
8.23683e-05
8.23683e-05
8.23684e-05
8.23685e-05
8.23686e-05
8.23688e-05
8.2369e-05
8.23693e-05
8.23695e-05
8.23697e-05
8.237e-05
8.23703e-05
8.23705e-05
8.23708e-05
8.2371e-05
8.23712e-05
8.23713e-05
8.23715e-05
8.23717e-05
8.23719e-05
8.23721e-05
8.23723e-05
8.23724e-05
8.23726e-05
8.23726e-05
8.23731e-05
9.21998e-05
9.21984e-05
9.21972e-05
9.21963e-05
9.21956e-05
9.2195e-05
9.21945e-05
9.21941e-05
9.21938e-05
9.21935e-05
9.21934e-05
9.21932e-05
9.21932e-05
9.21931e-05
9.21932e-05
9.21933e-05
9.21934e-05
9.21936e-05
9.21939e-05
9.21942e-05
9.21945e-05
9.21948e-05
9.21952e-05
9.21956e-05
9.2196e-05
9.21964e-05
9.21969e-05
9.21974e-05
9.21978e-05
9.21983e-05
9.21987e-05
9.21992e-05
9.21997e-05
9.22001e-05
9.22005e-05
9.2201e-05
9.22014e-05
9.22018e-05
9.22022e-05
9.22026e-05
9.22029e-05
9.22033e-05
9.22036e-05
9.22039e-05
9.22042e-05
9.22045e-05
9.22047e-05
9.22049e-05
9.22051e-05
9.22052e-05
9.22053e-05
9.22054e-05
9.22054e-05
9.22053e-05
9.22052e-05
9.2205e-05
9.22047e-05
9.22045e-05
9.22042e-05
9.22038e-05
9.22035e-05
9.22031e-05
9.22028e-05
9.22024e-05
9.2202e-05
9.22016e-05
9.22012e-05
9.22008e-05
9.22004e-05
9.22e-05
9.21997e-05
9.21994e-05
9.21991e-05
9.21988e-05
9.21984e-05
9.21981e-05
9.21979e-05
9.21976e-05
9.21974e-05
9.21972e-05
9.21969e-05
9.21967e-05
9.21965e-05
9.21963e-05
9.21962e-05
9.21961e-05
9.21959e-05
9.21958e-05
9.21956e-05
9.21955e-05
9.21954e-05
9.21953e-05
9.21953e-05
9.21953e-05
9.21953e-05
9.21954e-05
9.21955e-05
9.21956e-05
9.21958e-05
9.2196e-05
9.21963e-05
9.21966e-05
9.21969e-05
9.21972e-05
9.21975e-05
9.21978e-05
9.21981e-05
9.21984e-05
9.21986e-05
9.21989e-05
9.21991e-05
9.21993e-05
9.21995e-05
9.21997e-05
9.21999e-05
9.22001e-05
9.22003e-05
9.22005e-05
9.22005e-05
9.22012e-05
0.000102288
0.000102286
0.000102285
0.000102284
0.000102283
0.000102283
0.000102282
0.000102282
0.000102282
0.000102282
0.000102282
0.000102281
0.000102281
0.000102282
0.000102282
0.000102282
0.000102282
0.000102282
0.000102283
0.000102283
0.000102283
0.000102284
0.000102284
0.000102285
0.000102285
0.000102286
0.000102286
0.000102287
0.000102287
0.000102288
0.000102288
0.000102289
0.000102289
0.00010229
0.00010229
0.000102291
0.000102291
0.000102292
0.000102292
0.000102292
0.000102293
0.000102293
0.000102294
0.000102294
0.000102294
0.000102295
0.000102295
0.000102295
0.000102295
0.000102295
0.000102296
0.000102296
0.000102296
0.000102295
0.000102295
0.000102295
0.000102295
0.000102294
0.000102294
0.000102293
0.000102293
0.000102293
0.000102292
0.000102292
0.000102291
0.000102291
0.00010229
0.00010229
0.000102289
0.000102289
0.000102289
0.000102288
0.000102288
0.000102288
0.000102287
0.000102287
0.000102287
0.000102286
0.000102286
0.000102286
0.000102286
0.000102285
0.000102285
0.000102285
0.000102285
0.000102285
0.000102284
0.000102284
0.000102284
0.000102284
0.000102284
0.000102284
0.000102284
0.000102284
0.000102284
0.000102284
0.000102284
0.000102284
0.000102284
0.000102285
0.000102285
0.000102285
0.000102286
0.000102286
0.000102287
0.000102287
0.000102287
0.000102288
0.000102288
0.000102288
0.000102288
0.000102289
0.000102289
0.000102289
0.000102289
0.00010229
0.00010229
0.00010229
0.00010229
0.000102291
0.000112628
0.000112626
0.000112624
0.000112623
0.000112623
0.000112622
0.000112622
0.000112622
0.000112622
0.000112622
0.000112622
0.000112622
0.000112622
0.000112622
0.000112622
0.000112623
0.000112623
0.000112623
0.000112624
0.000112624
0.000112624
0.000112625
0.000112625
0.000112626
0.000112626
0.000112627
0.000112628
0.000112628
0.000112629
0.000112629
0.00011263
0.00011263
0.000112631
0.000112631
0.000112632
0.000112632
0.000112633
0.000112634
0.000112634
0.000112634
0.000112635
0.000112635
0.000112636
0.000112636
0.000112636
0.000112637
0.000112637
0.000112637
0.000112638
0.000112638
0.000112638
0.000112638
0.000112638
0.000112638
0.000112637
0.000112637
0.000112636
0.000112636
0.000112636
0.000112635
0.000112634
0.000112634
0.000112633
0.000112633
0.000112632
0.000112632
0.000112631
0.000112631
0.00011263
0.00011263
0.00011263
0.000112629
0.000112629
0.000112628
0.000112628
0.000112628
0.000112627
0.000112627
0.000112627
0.000112626
0.000112626
0.000112626
0.000112625
0.000112625
0.000112625
0.000112625
0.000112625
0.000112624
0.000112624
0.000112624
0.000112624
0.000112624
0.000112624
0.000112624
0.000112624
0.000112624
0.000112625
0.000112625
0.000112625
0.000112625
0.000112626
0.000112626
0.000112627
0.000112627
0.000112628
0.000112628
0.000112629
0.000112629
0.000112629
0.000112629
0.00011263
0.00011263
0.00011263
0.000112631
0.000112631
0.000112631
0.000112631
0.000112632
0.000112631
0.000112633
0.000123214
0.000123211
0.00012321
0.000123209
0.000123208
0.000123208
0.000123208
0.000123208
0.000123208
0.000123208
0.000123208
0.000123208
0.000123208
0.000123209
0.000123209
0.000123209
0.00012321
0.00012321
0.000123211
0.000123211
0.000123212
0.000123212
0.000123213
0.000123213
0.000123214
0.000123214
0.000123215
0.000123216
0.000123216
0.000123217
0.000123218
0.000123218
0.000123219
0.000123219
0.00012322
0.00012322
0.000123221
0.000123222
0.000123222
0.000123223
0.000123223
0.000123223
0.000123224
0.000123224
0.000123225
0.000123225
0.000123225
0.000123226
0.000123226
0.000123226
0.000123226
0.000123226
0.000123226
0.000123226
0.000123225
0.000123225
0.000123224
0.000123224
0.000123223
0.000123222
0.000123222
0.000123221
0.000123221
0.00012322