/*--------------------------------*- C++ -*----------------------------------*\
  =========                 |
  \\      /  F ield         | OpenFOAM: The Open Source CFD Toolbox
   \\    /   O peration     | Website:  https://openfoam.org
    \\  /    A nd           | Version:  7
     \\/     M anipulation  |
\*---------------------------------------------------------------------------*/
FoamFile
{
    version     2.0;
    format      ascii;
    class       surfaceScalarField;
    location    "16000";
    object      phi;
}
// * * * * * * * * * * * * * * * * * * * * * * * * * * * * * * * * * * * * * //

dimensions      [0 3 -1 0 0 0 0];

internalField   nonuniform List<scalar> 
47680
(
2.19932e-06
1.98428e-12
2.19932e-06
-4.71316e-12
2.19933e-06
-8.46004e-12
2.19934e-06
-7.12115e-12
2.19934e-06
-3.42206e-12
2.19934e-06
4.63771e-13
2.19934e-06
3.5943e-12
2.19933e-06
5.76253e-12
2.19932e-06
7.04304e-12
2.19932e-06
7.60474e-12
2.19931e-06
7.64246e-12
2.1993e-06
7.31145e-12
2.19929e-06
6.72987e-12
2.19929e-06
6.00362e-12
2.19928e-06
5.21905e-12
2.19928e-06
4.41961e-12
2.19927e-06
3.61116e-12
2.19927e-06
2.81555e-12
2.19927e-06
2.06456e-12
2.19927e-06
1.34932e-12
2.19927e-06
6.54943e-13
2.19927e-06
-7.23222e-15
2.19927e-06
-6.19205e-13
2.19927e-06
-1.16065e-12
2.19927e-06
-1.6271e-12
2.19927e-06
-2.03957e-12
2.19928e-06
-2.42433e-12
2.19928e-06
-2.79147e-12
2.19928e-06
-3.12277e-12
2.19928e-06
-3.39999e-12
2.19929e-06
-3.63584e-12
2.19929e-06
-3.85765e-12
2.1993e-06
-4.06626e-12
2.1993e-06
-4.24693e-12
2.19931e-06
-4.36922e-12
2.19931e-06
-4.45524e-12
2.19931e-06
-4.50838e-12
2.19932e-06
-4.57621e-12
2.19932e-06
-4.53261e-12
2.19933e-06
-4.47343e-12
2.19933e-06
-4.14624e-12
2.19934e-06
-3.83895e-12
2.19934e-06
-3.09107e-12
2.19934e-06
-2.18648e-12
2.19934e-06
-1.09017e-12
2.19934e-06
4.15289e-13
2.19934e-06
7.946e-13
2.19934e-06
8.62156e-13
2.19934e-06
6.54353e-13
2.19934e-06
6.47523e-14
2.19934e-06
-3.02245e-13
2.19934e-06
-6.46817e-13
2.19934e-06
-9.49056e-13
2.19934e-06
-1.17636e-12
2.19934e-06
-1.33338e-12
2.19934e-06
-1.40345e-12
2.19935e-06
-1.37081e-12
2.19935e-06
-1.25773e-12
2.19935e-06
-1.0822e-12
2.19935e-06
-8.3047e-13
2.19935e-06
-4.93614e-13
2.19935e-06
-1.0247e-13
2.19935e-06
2.97367e-13
2.19935e-06
6.92018e-13
2.19935e-06
1.07647e-12
2.19935e-06
1.42479e-12
2.19934e-06
1.71605e-12
2.19934e-06
1.9423e-12
2.19934e-06
2.11418e-12
2.19934e-06
2.2677e-12
2.19934e-06
2.40664e-12
2.19933e-06
2.48698e-12
2.19933e-06
2.49615e-12
2.19933e-06
2.46034e-12
2.19933e-06
2.40248e-12
2.19932e-06
2.34283e-12
2.19932e-06
2.28056e-12
2.19932e-06
2.18859e-12
2.19932e-06
2.0622e-12
2.19932e-06
1.91609e-12
2.19931e-06
1.75429e-12
2.19931e-06
1.59282e-12
2.19931e-06
1.44612e-12
2.19931e-06
1.32809e-12
2.19931e-06
1.16935e-12
2.19931e-06
9.78172e-13
2.19931e-06
6.72908e-13
2.19931e-06
4.0781e-13
2.19931e-06
2.52916e-13
2.19931e-06
1.43971e-13
2.19931e-06
1.36352e-13
2.19931e-06
8.8225e-14
2.19931e-06
2.08385e-14
2.19931e-06
-4.16565e-14
2.19931e-06
-1.40453e-13
2.19931e-06
-2.52491e-13
2.19931e-06
-4.11946e-13
2.19931e-06
-5.26378e-13
2.19931e-06
-6.94763e-13
2.19931e-06
-6.42655e-13
2.19931e-06
-6.6945e-13
2.19931e-06
-3.07023e-13
2.19931e-06
1.04682e-13
2.19931e-06
7.35548e-13
2.19931e-06
1.62678e-12
2.19931e-06
1.66851e-12
2.1993e-06
1.4421e-12
2.1993e-06
8.89601e-13
2.1993e-06
1.80478e-13
2.1993e-06
-5.29097e-13
2.1993e-06
-1.18713e-12
2.19931e-06
-1.71707e-12
2.19931e-06
-2.15161e-12
2.19931e-06
-2.40416e-12
2.19931e-06
-2.55311e-12
2.19932e-06
-2.52178e-12
2.19932e-06
-1.9499e-12
2.19932e-06
-2.0326e-12
2.19932e-06
-1.24591e-12
2.63263e-12
6.79538e-06
2.54268e-12
6.7954e-06
-2.07093e-11
6.79542e-06
-3.23113e-11
6.79544e-06
-2.59269e-11
6.79545e-06
-1.12289e-11
6.79544e-06
3.83261e-12
6.79543e-06
1.58428e-11
6.79541e-06
2.40889e-11
6.79539e-06
2.88967e-11
6.79537e-06
3.09313e-11
6.79534e-06
3.09344e-11
6.79532e-06
2.95068e-11
6.7953e-06
2.71106e-11
6.79528e-06
2.41487e-11
6.79527e-06
2.09528e-11
6.79526e-06
1.77031e-11
6.79524e-06
1.44374e-11
6.79524e-06
1.12335e-11
6.79523e-06
8.19751e-12
6.79523e-06
5.31244e-12
6.79522e-06
2.53109e-12
6.79522e-06
-1.14763e-13
6.79523e-06
-2.55852e-12
6.79523e-06
-4.7287e-12
6.79523e-06
-6.60718e-12
6.79524e-06
-8.26933e-12
6.79525e-06
-9.80864e-12
6.79526e-06
-1.12647e-11
6.79527e-06
-1.25808e-11
6.79528e-06
-1.36939e-11
6.79529e-06
-1.46421e-11
6.7953e-06
-1.55152e-11
6.79531e-06
-1.63299e-11
6.79532e-06
-1.70304e-11
6.79534e-06
-1.75255e-11
6.79535e-06
-1.78662e-11
6.79536e-06
-1.80993e-11
6.79538e-06
-1.83343e-11
6.79539e-06
-1.82312e-11
6.79541e-06
-1.79735e-11
6.79542e-06
-1.68707e-11
6.79543e-06
-1.56633e-11
6.79544e-06
-1.29957e-11
6.79545e-06
-9.66941e-12
6.79545e-06
-5.51197e-12
6.79545e-06
-1.16814e-13
6.79545e-06
1.81061e-12
6.79545e-06
2.3278e-12
6.79545e-06
1.74568e-12
6.79545e-06
-1.61124e-13
6.79545e-06
-1.52782e-12
6.79545e-06
-2.76045e-12
6.79546e-06
-3.84359e-12
6.79546e-06
-4.65794e-12
6.79546e-06
-5.1995e-12
6.79547e-06
-5.40531e-12
6.79547e-06
-5.21768e-12
6.79547e-06
-4.70711e-12
6.79548e-06
-3.94177e-12
6.79548e-06
-2.88721e-12
6.79548e-06
-1.51865e-12
6.79548e-06
5.40685e-14
6.79548e-06
1.66235e-12
6.79548e-06
3.24115e-12
6.79547e-06
4.76336e-12
6.79547e-06
6.13859e-12
6.79546e-06
7.29008e-12
6.79546e-06
8.18805e-12
6.79545e-06
8.87059e-12
6.79544e-06
9.46233e-12
6.79543e-06
9.97984e-12
6.79543e-06
1.02816e-11
6.79542e-06
1.03176e-11
6.79541e-06
1.01732e-11
6.7954e-06
9.93317e-12
6.7954e-06
9.67732e-12
6.79539e-06
9.40815e-12
6.79538e-06
9.03367e-12
6.79538e-06
8.53322e-12
6.79537e-06
7.95275e-12
6.79536e-06
7.3166e-12
6.79536e-06
6.67728e-12
6.79535e-06
6.09449e-12
6.79535e-06
5.60041e-12
6.79535e-06
4.98355e-12
6.79534e-06
4.22268e-12
6.79534e-06
3.07623e-12
6.79534e-06
2.03608e-12
6.79534e-06
1.37043e-12
6.79534e-06
9.24122e-13
6.79534e-06
8.25762e-13
6.79534e-06
6.37971e-13
6.79533e-06
3.7911e-13
6.79533e-06
1.13264e-13
6.79533e-06
-2.77351e-13
6.79534e-06
-7.5905e-13
6.79534e-06
-1.39511e-12
6.79534e-06
-1.95116e-12
6.79534e-06
-2.6222e-12
6.79534e-06
-2.65257e-12
6.79534e-06
-2.79491e-12
6.79535e-06
-1.70024e-12
6.79535e-06
-2.88406e-13
6.79534e-06
1.96595e-12
6.79534e-06
5.03233e-12
6.79534e-06
5.48308e-12
6.79533e-06
4.74082e-12
6.79533e-06
2.82664e-12
6.79533e-06
2.76472e-13
6.79533e-06
-2.34947e-12
6.79534e-06
-4.80233e-12
6.79534e-06
-6.81933e-12
6.79535e-06
-8.45704e-12
6.79536e-06
-9.45756e-12
6.79536e-06
-1.00567e-11
6.79537e-06
-9.95376e-12
6.79538e-06
-8.01051e-12
6.79538e-06
-8.29126e-12
6.79539e-06
-4.60238e-12
7.61269e-12
1.17012e-05
-4.22669e-12
1.17013e-05
-5.10572e-11
1.17013e-05
-7.03545e-11
1.17013e-05
-5.33844e-11
1.17013e-05
-2.02671e-11
1.17013e-05
1.27522e-11
1.17013e-05
3.87875e-11
1.17013e-05
5.64998e-11
1.17012e-05
6.66826e-11
1.17012e-05
7.08143e-11
1.17012e-05
7.05008e-11
1.17011e-05
6.70572e-11
1.17011e-05
6.1496e-11
1.17011e-05
5.46934e-11
1.1701e-05
4.73695e-11
1.1701e-05
3.9937e-11
1.1701e-05
3.25056e-11
1.1701e-05
2.52304e-11
1.1701e-05
1.83234e-11
1.1701e-05
1.17679e-11
1.1701e-05
5.48075e-12
1.1701e-05
-4.83262e-13
1.1701e-05
-5.99075e-12
1.1701e-05
-1.08905e-11
1.1701e-05
-1.51488e-11
1.1701e-05
-1.89192e-11
1.1701e-05
-2.23946e-11
1.1701e-05
-2.56596e-11
1.1701e-05
-2.86126e-11
1.1701e-05
-3.11282e-11
1.17011e-05
-3.32712e-11
1.17011e-05
-3.52191e-11
1.17011e-05
-3.7019e-11
1.17011e-05
-3.85624e-11
1.17011e-05
-3.9679e-11
1.17012e-05
-4.04477e-11
1.17012e-05
-4.09944e-11
1.17012e-05
-4.14869e-11
1.17012e-05
-4.13404e-11
1.17013e-05
-4.07676e-11
1.17013e-05
-3.85737e-11
1.17013e-05
-3.59514e-11
1.17013e-05
-3.04524e-11
1.17013e-05
-2.34486e-11
1.17013e-05
-1.45565e-11
1.17013e-05
-3.32623e-12
1.17013e-05
1.52524e-12
1.17013e-05
3.15968e-12
1.17013e-05
2.31843e-12
1.17013e-05
-1.24535e-12
1.17014e-05
-4.06473e-12
1.17014e-05
-6.58799e-12
1.17014e-05
-8.79465e-12
1.17014e-05
-1.04475e-11
1.17014e-05
-1.1503e-11
1.17014e-05
-1.18202e-11
1.17014e-05
-1.12772e-11
1.17014e-05
-1.00061e-11
1.17014e-05
-8.15614e-12
1.17014e-05
-5.67974e-12
1.17014e-05
-2.53985e-12
1.17014e-05
1.03273e-12
1.17014e-05
4.67965e-12
1.17014e-05
8.24276e-12
1.17014e-05
1.16497e-11
1.17014e-05
1.47163e-11
1.17014e-05
1.72853e-11
1.17014e-05
1.92926e-11
1.17013e-05
2.08187e-11
1.17013e-05
2.21103e-11
1.17013e-05
2.32105e-11
1.17013e-05
2.38491e-11
1.17013e-05
2.39203e-11
1.17013e-05
2.35863e-11
1.17013e-05
2.30288e-11
1.17012e-05
2.24194e-11
1.17012e-05
2.17733e-11
1.17012e-05
2.09139e-11
1.17012e-05
1.97878e-11
1.17012e-05
1.84845e-11
1.17012e-05
1.70657e-11
1.17012e-05
1.56372e-11
1.17012e-05
1.43252e-11
1.17012e-05
1.31798e-11
1.17012e-05
1.18073e-11
1.17012e-05
1.01022e-11
1.17012e-05
7.62943e-12
1.17011e-05
5.32111e-12
1.17011e-05
3.75852e-12
1.17011e-05
2.71966e-12
1.17011e-05
2.39739e-12
1.17011e-05
1.96896e-12
1.17011e-05
1.39781e-12
1.17011e-05
7.74881e-13
1.17011e-05
-1.13368e-13
1.17011e-05
-1.25225e-12
1.17011e-05
-2.71567e-12
1.17011e-05
-4.11363e-12
1.17011e-05
-5.68386e-12
1.17011e-05
-6.10909e-12
1.17012e-05
-6.57613e-12
1.17012e-05
-4.67264e-12
1.17012e-05
-1.92868e-12
1.17012e-05
2.63557e-12
1.17012e-05
8.78e-12
1.17011e-05
1.01208e-11
1.17011e-05
8.77458e-12
1.17011e-05
4.95909e-12
1.17011e-05
-2.80927e-13
1.17011e-05
-5.80514e-12
1.17012e-05
-1.1011e-11
1.17012e-05
-1.53498e-11
1.17012e-05
-1.88632e-11
1.17012e-05
-2.10797e-11
1.17012e-05
-2.24238e-11
1.17012e-05
-2.22502e-11
1.17012e-05
-1.84136e-11
1.17012e-05
-1.89349e-11
1.17012e-05
-9.85529e-12
1.21048e-11
1.69069e-05
-2.51649e-11
1.6907e-05
-9.90816e-11
1.6907e-05
-1.20352e-10
1.69071e-05
-8.50148e-11
1.69071e-05
-2.62804e-11
1.69071e-05
3.04436e-11
1.6907e-05
7.45934e-11
1.6907e-05
1.04319e-10
1.69069e-05
1.21121e-10
1.69069e-05
1.27572e-10
1.69068e-05
1.26404e-10
1.69068e-05
1.19864e-10
1.69067e-05
1.09695e-10
1.69067e-05
9.73934e-11
1.69066e-05
8.41918e-11
1.69066e-05
7.08239e-11
1.69066e-05
5.75137e-11
1.69066e-05
4.45097e-11
1.69065e-05
3.21468e-11
1.69065e-05
2.04261e-11
1.69065e-05
9.23275e-12
1.69065e-05
-1.35522e-12
1.69065e-05
-1.11261e-11
1.69065e-05
-1.98319e-11
1.69066e-05
-2.74254e-11
1.69066e-05
-3.41578e-11
1.69066e-05
-4.03409e-11
1.69066e-05
-4.6115e-11
1.69066e-05
-5.13364e-11
1.69067e-05
-5.58095e-11
1.69067e-05
-5.96214e-11
1.69067e-05
-6.30496e-11
1.69067e-05
-6.61873e-11
1.69068e-05
-6.88709e-11
1.69068e-05
-7.08437e-11
1.69068e-05
-7.22158e-11
1.69069e-05
-7.32103e-11
1.69069e-05
-7.40516e-11
1.69069e-05
-7.38883e-11
1.6907e-05
-7.2928e-11
1.6907e-05
-6.94257e-11
1.6907e-05
-6.49928e-11
1.69071e-05
-5.59833e-11
1.69071e-05
-4.43234e-11
1.69071e-05
-2.93809e-11
1.69071e-05
-1.07606e-11
1.69071e-05
-1.6092e-12
1.69071e-05
2.05225e-12
1.69071e-05
1.35422e-12
1.69071e-05
-3.85783e-12
1.69071e-05
-8.33261e-12
1.69071e-05
-1.23792e-11
1.69071e-05
-1.58943e-11
1.69071e-05
-1.85016e-11
1.69071e-05
-2.00799e-11
1.69071e-05
-2.03767e-11
1.69072e-05
-1.91829e-11
1.69072e-05
-1.67033e-11
1.69072e-05
-1.31939e-11
1.69072e-05
-8.61198e-12
1.69072e-05
-2.9249e-12
1.69072e-05
3.47531e-12
1.69072e-05
9.98879e-12
1.69072e-05
1.63191e-11
1.69071e-05
2.23241e-11
1.69071e-05
2.77077e-11
1.69071e-05
3.22123e-11
1.69071e-05
3.57366e-11
1.69071e-05
3.84152e-11
1.69071e-05
4.06378e-11
1.6907e-05
4.24795e-11
1.6907e-05
4.35318e-11
1.6907e-05
4.36267e-11
1.6907e-05
4.30132e-11
1.6907e-05
4.1992e-11
1.69069e-05
4.08564e-11
1.69069e-05
3.96465e-11
1.69069e-05
3.8087e-11
1.69069e-05
3.60827e-11
1.69069e-05
3.37743e-11
1.69069e-05
3.12773e-11
1.69069e-05
2.87626e-11
1.69068e-05
2.6434e-11
1.69068e-05
2.43586e-11
1.69068e-05
2.19304e-11
1.69068e-05
1.89198e-11
1.69068e-05
1.46784e-11
1.69068e-05
1.06451e-11
1.69068e-05
7.79996e-12
1.69068e-05
5.89824e-12
1.69068e-05
5.18592e-12
1.69068e-05
4.39954e-12
1.69068e-05
3.39302e-12
1.69068e-05
2.24953e-12
1.69068e-05
6.34807e-13
1.69068e-05
-1.47576e-12
1.69068e-05
-4.16106e-12
1.69068e-05
-6.85751e-12
1.69068e-05
-9.80682e-12
1.69068e-05
-1.10729e-11
1.69068e-05
-1.2227e-11
1.69068e-05
-9.68505e-12
1.69068e-05
-5.5444e-12
1.69068e-05
1.6882e-12
1.69068e-05
1.14758e-11
1.69068e-05
1.41564e-11
1.69068e-05
1.23064e-11
1.69068e-05
6.31617e-12
1.69068e-05
-2.15831e-12
1.69068e-05
-1.12894e-11
1.69068e-05
-1.99826e-11
1.69068e-05
-2.73062e-11
1.69068e-05
-3.32393e-11
1.69069e-05
-3.70801e-11
1.69069e-05
-3.94382e-11
1.69069e-05
-3.92314e-11
1.69069e-05
-3.32e-11
1.69069e-05
-3.40036e-11
1.69069e-05
-1.65979e-11
1.30527e-11
2.23334e-05
-6.68811e-11
2.23335e-05
-1.64757e-10
2.23335e-05
-1.76797e-10
2.23336e-05
-1.14529e-10
2.23336e-05
-2.46711e-11
2.23335e-05
5.93885e-11
2.23335e-05
1.24015e-10
2.23334e-05
1.671e-10
2.23334e-05
1.91026e-10
2.23333e-05
1.99626e-10
2.23332e-05
1.96915e-10
2.23332e-05
1.86204e-10
2.23331e-05
1.70087e-10
2.2333e-05
1.50782e-10
2.2333e-05
1.30131e-10
2.2333e-05
1.09261e-10
2.23329e-05
8.85415e-11
2.23329e-05
6.83255e-11
2.23329e-05
4.90798e-11
2.23329e-05
3.08455e-11
2.23329e-05
1.34911e-11
2.23329e-05
-2.88193e-12
2.23329e-05
-1.79814e-11
2.23329e-05
-3.14555e-11
2.23329e-05
-4.32529e-11
2.23329e-05
-5.3738e-11
2.23329e-05
-6.3341e-11
2.2333e-05
-7.22609e-11
2.2333e-05
-8.03255e-11
2.2333e-05
-8.72661e-11
2.23331e-05
-9.31843e-11
2.23331e-05
-9.84639e-11
2.23331e-05
-1.03255e-10
2.23332e-05
-1.07343e-10
2.23332e-05
-1.10387e-10
2.23333e-05
-1.12538e-10
2.23333e-05
-1.14119e-10
2.23333e-05
-1.15407e-10
2.23334e-05
-1.15272e-10
2.23334e-05
-1.13899e-10
2.23335e-05
-1.08978e-10
2.23335e-05
-1.02475e-10
2.23335e-05
-8.95191e-11
2.23336e-05
-7.25389e-11
2.23336e-05
-5.06286e-11
2.23336e-05
-2.34979e-11
2.23336e-05
-8.81146e-12
2.23336e-05
-2.09423e-12
2.23336e-05
-2.00981e-12
2.23336e-05
-8.5509e-12
2.23336e-05
-1.46164e-11
2.23336e-05
-2.02167e-11
2.23336e-05
-2.50533e-11
2.23336e-05
-2.8588e-11
2.23337e-05
-3.0577e-11
2.23337e-05
-3.06197e-11
2.23337e-05
-2.84055e-11
2.23337e-05
-2.42206e-11
2.23337e-05
-1.84492e-11
2.23337e-05
-1.10746e-11
2.23337e-05
-2.09481e-12
2.23337e-05
7.90011e-12
2.23337e-05
1.80235e-11
2.23337e-05
2.78118e-11
2.23337e-05
3.70313e-11
2.23336e-05
4.52574e-11
2.23336e-05
5.21311e-11
2.23336e-05
5.75165e-11
2.23336e-05
6.16091e-11
2.23335e-05
6.49496e-11
2.23335e-05
6.76423e-11
2.23335e-05
6.91447e-11
2.23335e-05
6.92357e-11
2.23334e-05
6.8254e-11
2.23334e-05
6.66324e-11
2.23334e-05
6.48066e-11
2.23334e-05
6.28511e-11
2.23333e-05
6.0386e-11
2.23333e-05
5.72706e-11
2.23333e-05
5.37059e-11
2.23333e-05
4.98755e-11
2.23333e-05
4.60182e-11
2.23333e-05
4.24166e-11
2.23332e-05
3.91494e-11
2.23332e-05
3.53828e-11
2.23332e-05
3.07322e-11
2.23332e-05
2.43439e-11
2.23332e-05
1.82005e-11
2.23332e-05
1.37308e-11
2.23332e-05
1.07095e-11
2.23332e-05
9.42801e-12
2.23332e-05
8.15313e-12
2.23332e-05
6.58198e-12
2.23332e-05
4.74285e-12
2.23332e-05
2.15486e-12
2.23332e-05
-1.26251e-12
2.23332e-05
-5.58845e-12
2.23332e-05
-1.00671e-11
2.23332e-05
-1.49201e-11
2.23332e-05
-1.75604e-11
2.23332e-05
-1.98747e-11
2.23332e-05
-1.70534e-11
2.23332e-05
-1.16811e-11
2.23332e-05
-1.71287e-12
2.23332e-05
1.19715e-11
2.23332e-05
1.63538e-11
2.23332e-05
1.42424e-11
2.23332e-05
6.07614e-12
2.23332e-05
-5.85213e-12
2.23332e-05
-1.89817e-11
2.23332e-05
-3.16207e-11
2.23332e-05
-4.23717e-11
2.23333e-05
-5.111e-11
2.23333e-05
-5.68993e-11
2.23333e-05
-6.051e-11
2.23333e-05
-6.03378e-11
2.23333e-05
-5.20022e-11
2.23334e-05
-5.32094e-11
2.23334e-05
-2.40756e-11
6.47144e-12
2.77973e-05
-1.31198e-10
2.77974e-05
-2.4054e-10
2.77974e-05
-2.30374e-10
2.77975e-05
-1.35252e-10
2.77974e-05
-1.2563e-11
2.77974e-05
9.91906e-11
2.77973e-05
1.84376e-10
2.77973e-05
2.40807e-10
2.77972e-05
2.71709e-10
2.77971e-05
2.82143e-10
2.7797e-05
2.77379e-10
2.7797e-05
2.61797e-10
2.77969e-05
2.38877e-10
2.77968e-05
2.11607e-10
2.77968e-05
1.82485e-10
2.77967e-05
1.53072e-10
2.77967e-05
1.23907e-10
2.77967e-05
9.54481e-11
2.77966e-05
6.83026e-11
2.77966e-05
4.25791e-11
2.77966e-05
1.81518e-11
2.77966e-05
-4.85374e-12
2.77966e-05
-2.60646e-11
2.77967e-05
-4.50306e-11
2.77967e-05
-6.17115e-11
2.77967e-05
-7.65904e-11
2.77967e-05
-9.01942e-11
2.77968e-05
-1.02778e-10
2.77968e-05
-1.14157e-10
2.77968e-05
-1.23989e-10
2.77969e-05
-1.32384e-10
2.77969e-05
-1.39834e-10
2.77969e-05
-1.46553e-10
2.7797e-05
-1.52278e-10
2.7797e-05
-1.56595e-10
2.77971e-05
-1.59709e-10
2.77971e-05
-1.62035e-10
2.77972e-05
-1.63889e-10
2.77972e-05
-1.63861e-10
2.77973e-05
-1.6212e-10
2.77973e-05
-1.55793e-10
2.77974e-05
-1.47129e-10
2.77974e-05
-1.30051e-10
2.77974e-05
-1.07441e-10
2.77975e-05
-7.80888e-11
2.77975e-05
-4.17898e-11
2.77975e-05
-2.05939e-11
2.77975e-05
-9.82277e-12
2.77975e-05
-8.1776e-12
2.77975e-05
-1.54949e-11
2.77975e-05
-2.28465e-11
2.77975e-05
-2.98255e-11
2.77976e-05
-3.58378e-11
2.77976e-05
-4.01494e-11
2.77976e-05
-4.23486e-11
2.77976e-05
-4.18513e-11
2.77976e-05
-3.82411e-11
2.77976e-05
-3.1897e-11
2.77976e-05
-2.33461e-11
2.77976e-05
-1.26163e-11
2.77976e-05
2.38491e-13
2.77976e-05
1.43956e-11
2.77976e-05
2.86582e-11
2.77976e-05
4.2386e-11
2.77976e-05
5.52391e-11
2.77975e-05
6.66604e-11
2.77975e-05
7.61974e-11
2.77975e-05
8.36866e-11
2.77975e-05
8.93871e-11
2.77974e-05
9.39788e-11
2.77974e-05
9.75878e-11
2.77974e-05
9.95515e-11
2.77973e-05
9.96184e-11
2.77973e-05
9.82147e-11
2.77973e-05
9.59046e-11
2.77972e-05
9.32782e-11
2.77972e-05
9.04446e-11
2.77972e-05
8.69188e-11
2.77972e-05
8.25216e-11
2.77971e-05
7.75284e-11
2.77971e-05
7.2193e-11
2.77971e-05
6.68169e-11
2.77971e-05
6.17519e-11
2.77971e-05
5.70846e-11
2.7797e-05
5.1745e-11
2.7797e-05
4.51864e-11
2.7797e-05
3.63757e-11
2.7797e-05
2.7855e-11
2.7797e-05
2.15126e-11
2.7797e-05
1.71654e-11
2.7797e-05
1.51456e-11
2.7797e-05
1.32461e-11
2.7797e-05
1.09722e-11
2.7797e-05
8.25255e-12
2.7797e-05
4.437e-12
2.7797e-05
-6.15544e-13
2.7797e-05
-6.97542e-12
2.7797e-05
-1.36892e-11
2.7797e-05
-2.09403e-11
2.7797e-05
-2.54849e-11
2.7797e-05
-2.94504e-11
2.7797e-05
-2.67948e-11
2.7797e-05
-2.04959e-11
2.7797e-05
-7.93445e-12
2.7797e-05
9.66853e-12
2.7797e-05
1.60341e-11
2.7797e-05
1.4019e-11
2.7797e-05
3.94235e-12
2.7797e-05
-1.13283e-11
2.77971e-05
-2.85082e-11
2.77971e-05
-4.52455e-11
2.77971e-05
-5.96213e-11
2.77971e-05
-7.13815e-11
2.77971e-05
-7.93617e-11
2.77971e-05
-8.44429e-11
2.77972e-05
-8.44177e-11
2.77972e-05
-7.38719e-11
2.77972e-05
-7.56236e-11
2.77972e-05
-3.166e-11
-1.18954e-11
3.30739e-05
-2.10191e-10
3.3074e-05
-3.14142e-10
3.3074e-05
-2.72734e-10
3.3074e-05
-1.43544e-10
3.3074e-05
9.6213e-12
3.30739e-05
1.46312e-10
3.30739e-05
2.50065e-10
3.30738e-05
3.18693e-10
3.30737e-05
3.5602e-10
3.30736e-05
3.68086e-10
3.30735e-05
3.6121e-10
3.30735e-05
3.40704e-10
3.30734e-05
3.10883e-10
3.30733e-05
2.75492e-10
3.30733e-05
2.37681e-10
3.30732e-05
1.99446e-10
3.30732e-05
1.61499e-10
3.30732e-05
1.24406e-10
3.30731e-05
8.89225e-11
3.30731e-05
5.52559e-11
3.30731e-05
2.33129e-11
3.30731e-05
-6.752e-12
3.30731e-05
-3.44846e-11
3.30732e-05
-5.93491e-11
3.30732e-05
-8.13426e-11
3.30732e-05
-1.01052e-10
3.30732e-05
-1.19059e-10
3.30733e-05
-1.35668e-10
3.30733e-05
-1.50699e-10
3.30733e-05
-1.63736e-10
3.30734e-05
-1.74892e-10
3.30734e-05
-1.84781e-10
3.30735e-05
-1.93669e-10
3.30735e-05
-2.01237e-10
3.30736e-05
-2.07021e-10
3.30736e-05
-2.11299e-10
3.30737e-05
-2.14561e-10
3.30737e-05
-2.17131e-10
3.30738e-05
-2.17342e-10
3.30738e-05
-2.15357e-10
3.30739e-05
-2.07757e-10
3.30739e-05
-1.97006e-10
3.3074e-05
-1.75877e-10
3.3074e-05
-1.47661e-10
3.30741e-05
-1.10804e-10
3.30741e-05
-6.51046e-11
3.30741e-05
-3.67463e-11
3.30741e-05
-2.10912e-11
3.30741e-05
-1.71007e-11
3.30741e-05
-2.45173e-11
3.30741e-05
-3.26728e-11
3.30741e-05
-4.06814e-11
3.30742e-05
-4.75895e-11
3.30742e-05
-5.24316e-11
3.30742e-05
-5.45824e-11
3.30742e-05
-5.32474e-11
3.30742e-05
-4.79145e-11
3.30742e-05
-3.90729e-11
3.30742e-05
-2.73977e-11
3.30742e-05
-1.29694e-11
3.30742e-05
4.07659e-12
3.30742e-05
2.26627e-11
3.30742e-05
4.129e-11
3.30742e-05
5.91532e-11
3.30741e-05
7.58026e-11
3.30741e-05
9.0553e-11
3.30741e-05
1.02879e-10
3.30741e-05
1.12597e-10
3.3074e-05
1.20017e-10
3.3074e-05
1.25938e-10
3.3074e-05
1.30491e-10
3.30739e-05
1.3292e-10
3.30739e-05
1.32972e-10
3.30739e-05
1.31153e-10
3.30738e-05
1.28145e-10
3.30738e-05
1.24691e-10
3.30738e-05
1.20926e-10
3.30737e-05
1.16263e-10
3.30737e-05
1.10508e-10
3.30737e-05
1.04025e-10
3.30737e-05
9.71282e-11
3.30736e-05
9.01606e-11
3.30736e-05
8.353e-11
3.30736e-05
7.73276e-11
3.30736e-05
7.02545e-11
3.30736e-05
6.16151e-11
3.30736e-05
5.02408e-11
3.30735e-05
3.92202e-11
3.30735e-05
3.08751e-11
3.30735e-05
2.50653e-11
3.30735e-05
2.21625e-11
3.30735e-05
1.95023e-11
3.30735e-05
1.63771e-11
3.30735e-05
1.25827e-11
3.30735e-05
7.28777e-12
3.30735e-05
3.02682e-13
3.30735e-05
-8.42317e-12
3.30735e-05
-1.77439e-11
3.30735e-05
-2.77983e-11
3.30735e-05
-3.46951e-11
3.30735e-05
-4.07332e-11
3.30735e-05
-3.8666e-11
3.30736e-05
-3.1783e-11
3.30736e-05
-1.68746e-11
3.30736e-05
4.54174e-12
3.30736e-05
1.31236e-11
3.30736e-05
1.16408e-11
3.30736e-05
1.27359e-13
3.30736e-05
-1.80985e-11
3.30736e-05
-3.90755e-11
3.30736e-05
-5.97724e-11
3.30736e-05
-7.77362e-11
3.30737e-05
-9.25821e-11
3.30737e-05
-1.02916e-10
3.30737e-05
-1.09668e-10
3.30737e-05
-1.0994e-10
3.30737e-05
-9.74895e-11
3.30738e-05
-9.9744e-11
3.30738e-05
-3.95795e-11
-4.21559e-11
3.80182e-05
-2.88497e-10
3.80182e-05
-3.75636e-10
3.80183e-05
-3.00844e-10
3.80183e-05
-1.40194e-10
3.80182e-05
3.89942e-11
3.80182e-05
1.96345e-10
3.80181e-05
3.15559e-10
3.8018e-05
3.94561e-10
3.8018e-05
4.37527e-10
3.80179e-05
4.51149e-10
3.80178e-05
4.4247e-10
3.80177e-05
4.17524e-10
3.80176e-05
3.81353e-10
3.80176e-05
3.38391e-10
3.80175e-05
2.92388e-10
3.80175e-05
2.4573e-10
3.80174e-05
1.99293e-10
3.80174e-05
1.53761e-10
3.80174e-05
1.10041e-10
3.80174e-05
6.84623e-11
3.80174e-05
2.89947e-11
3.80174e-05
-8.16759e-12
3.80174e-05
-4.24844e-11
3.80174e-05
-7.33582e-11
3.80174e-05
-1.00854e-10
3.80174e-05
-1.25627e-10
3.80175e-05
-1.48265e-10
3.80175e-05
-1.69111e-10
3.80175e-05
-1.87996e-10
3.80176e-05
-2.04434e-10
3.80176e-05
-2.1856e-10
3.80177e-05
-2.31111e-10
3.80177e-05
-2.42373e-10
3.80178e-05
-2.51959e-10
3.80178e-05
-2.59397e-10
3.80179e-05
-2.65058e-10
3.80179e-05
-2.69469e-10
3.8018e-05
-2.7293e-10
3.8018e-05
-2.73549e-10
3.80181e-05
-2.71508e-10
3.80182e-05
-2.62855e-10
3.80182e-05
-2.50207e-10
3.80183e-05
-2.25266e-10
3.80183e-05
-1.91707e-10
3.80183e-05
-1.47567e-10
3.80184e-05
-9.25381e-11
3.80184e-05
-5.66753e-11
3.80184e-05
-3.55564e-11
3.80184e-05
-2.85517e-11
3.80184e-05
-3.53827e-11
3.80184e-05
-4.37648e-11
3.80184e-05
-5.23295e-11
3.80185e-05
-5.97438e-11
3.80185e-05
-6.47807e-11
3.80185e-05
-6.65592e-11
3.80185e-05
-6.40615e-11
3.80185e-05
-5.67113e-11
3.80185e-05
-4.51319e-11
3.80185e-05
-3.01417e-11
3.80185e-05
-1.18774e-11
3.80185e-05
9.42184e-12
3.80185e-05
3.24229e-11
3.80185e-05
5.53596e-11
3.80185e-05
7.72903e-11
3.80184e-05
9.76587e-11
3.80184e-05
1.1567e-10
3.80184e-05
1.30755e-10
3.80184e-05
1.4271e-10
3.80183e-05
1.51876e-10
3.80183e-05
1.59138e-10
3.80183e-05
1.64621e-10
3.80182e-05
1.67507e-10
3.80182e-05
1.67574e-10
3.80182e-05
1.65397e-10
3.80181e-05
1.61752e-10
3.80181e-05
1.57517e-10
3.80181e-05
1.52837e-10
3.8018e-05
1.4703e-10
3.8018e-05
1.39928e-10
3.8018e-05
1.31995e-10
3.80179e-05
1.23582e-10
3.80179e-05
1.15042e-10
3.80179e-05
1.06822e-10
3.80179e-05
9.90193e-11
3.80178e-05
9.01241e-11
3.80178e-05
7.93278e-11
3.80178e-05
6.53721e-11
3.80178e-05
5.18591e-11
3.80178e-05
4.14859e-11
3.80178e-05
3.41406e-11
3.80178e-05
3.02389e-11
3.80178e-05
2.66847e-11
3.80178e-05
2.25474e-11
3.80178e-05
1.74702e-11
3.80178e-05
1.04459e-11
3.80178e-05
1.26018e-12
3.80178e-05
-1.0106e-11
3.80178e-05
-2.23313e-11
3.80178e-05
-3.55044e-11
3.80178e-05
-4.50981e-11
3.80178e-05
-5.35319e-11
3.80178e-05
-5.24039e-11
3.80178e-05
-4.52476e-11
3.80178e-05
-2.82524e-11
3.80178e-05
-3.16449e-12
3.80178e-05
7.82653e-12
3.80178e-05
7.31898e-12
3.80179e-05
-5.06398e-12
3.80179e-05
-2.56919e-11
3.80179e-05
-4.9994e-11
3.80179e-05
-7.42839e-11
3.80179e-05
-9.56084e-11
3.80179e-05
-1.13468e-10
3.80179e-05
-1.26229e-10
3.8018e-05
-1.34801e-10
3.8018e-05
-1.35516e-10
3.8018e-05
-1.21623e-10
3.8018e-05
-1.23998e-10
3.80181e-05
-4.87979e-11
-7.80707e-11
4.26019e-05
-3.51757e-10
4.2602e-05
-4.19412e-10
4.2602e-05
-3.15105e-10
4.2602e-05
-1.27928e-10
4.2602e-05
7.23619e-11
4.26019e-05
2.45996e-10
4.26018e-05
3.77353e-10
4.26018e-05
4.64651e-10
4.26017e-05
5.12302e-10
4.26016e-05
5.27364e-10
4.26015e-05
5.17288e-10
4.26015e-05
4.88603e-10
4.26014e-05
4.46957e-10
4.26014e-05
3.97377e-10
4.26013e-05
3.44106e-10
4.26013e-05
2.8984e-10
4.26012e-05
2.3561e-10
4.26012e-05
1.82231e-10
4.26012e-05
1.30749e-10
4.26012e-05
8.16336e-11
4.26012e-05
3.49472e-11
4.26012e-05
-9.05813e-12
4.26012e-05
-4.97551e-11
4.26012e-05
-8.65258e-11
4.26012e-05
-1.19525e-10
4.26012e-05
-1.49428e-10
4.26012e-05
-1.76775e-10
4.26013e-05
-2.01939e-10
4.26013e-05
-2.24754e-10
4.26014e-05
-2.44688e-10
4.26014e-05
-2.6193e-10
4.26014e-05
-2.7732e-10
4.26015e-05
-2.9111e-10
4.26015e-05
-3.02846e-10
4.26016e-05
-3.12111e-10
4.26016e-05
-3.19378e-10
4.26017e-05
-3.25154e-10
4.26018e-05
-3.29685e-10
4.26018e-05
-3.30897e-10
4.26019e-05
-3.29018e-10
4.26019e-05
-3.1957e-10
4.2602e-05
-3.05276e-10
4.2602e-05
-2.76849e-10
4.26021e-05
-2.38327e-10
4.26021e-05
-1.87262e-10
4.26022e-05
-1.23141e-10
4.26022e-05
-7.96775e-11
4.26022e-05
-5.27715e-11
4.26022e-05
-4.22646e-11
4.26022e-05
-4.79094e-11
4.26022e-05
-5.59306e-11
4.26022e-05
-6.45132e-11
4.26023e-05
-7.19607e-11
4.26023e-05
-7.67615e-11
4.26023e-05
-7.77511e-11
4.26023e-05
-7.37008e-11
4.26023e-05
-6.40218e-11
4.26023e-05
-4.95011e-11
4.26023e-05
-3.10914e-11
4.26023e-05
-8.98681e-12
4.26023e-05
1.64542e-11
4.26023e-05
4.3661e-11
4.26023e-05
7.06565e-11
4.26023e-05
9.63957e-11
4.26022e-05
1.20226e-10
4.26022e-05
1.41272e-10
4.26022e-05
1.58959e-10
4.26021e-05
1.7306e-10
4.26021e-05
1.83911e-10
4.26021e-05
1.92451e-10
4.2602e-05
1.98793e-10
4.2602e-05
2.02099e-10
4.2602e-05
2.02209e-10
4.26019e-05
1.99749e-10
4.26019e-05
1.95567e-10
4.26019e-05
1.90642e-10
4.26018e-05
1.85096e-10
4.26018e-05
1.78178e-10
4.26018e-05
1.69793e-10
4.26018e-05
1.60514e-10
4.26017e-05
1.50696e-10
4.26017e-05
1.40665e-10
4.26017e-05
1.30892e-10
4.26017e-05
1.21474e-10
4.26016e-05
1.10722e-10
4.26016e-05
9.77684e-11
4.26016e-05
8.1309e-11
4.26016e-05
6.5404e-11
4.26016e-05
5.30512e-11
4.26016e-05
4.41455e-11
4.26016e-05
3.91521e-11
4.26015e-05
3.45726e-11
4.26015e-05
2.92491e-11
4.26015e-05
2.26637e-11
4.26015e-05
1.36549e-11
4.26015e-05
2.01247e-12
4.26015e-05
-1.22406e-11
4.26015e-05
-2.76281e-11
4.26015e-05
-4.41756e-11
4.26016e-05
-5.67306e-11
4.26016e-05
-6.78017e-11
4.26016e-05
-6.78844e-11
4.26016e-05
-6.07047e-11
4.26016e-05
-4.1835e-11
4.26016e-05
-1.31937e-11
4.26016e-05
3.64266e-13
4.26016e-05
1.22276e-12
4.26016e-05
-1.14767e-11
4.26017e-05
-3.38969e-11
4.26017e-05
-6.09295e-11
4.26017e-05
-8.83018e-11
4.26017e-05
-1.12629e-10
4.26017e-05
-1.33321e-10
4.26017e-05
-1.48481e-10
4.26018e-05
-1.58942e-10
4.26018e-05
-1.60188e-10
4.26018e-05
-1.45379e-10
4.26018e-05
-1.47174e-10
4.26018e-05
-6.00844e-11
-1.11719e-10
4.6867e-05
-3.92173e-10
4.6867e-05
-4.42727e-10
4.6867e-05
-3.16033e-10
4.6867e-05
-1.08667e-10
4.6867e-05
1.07707e-10
4.68669e-05
2.9357e-10
4.68669e-05
4.33955e-10
4.68668e-05
5.27459e-10
4.68668e-05
5.78709e-10
4.68667e-05
5.94936e-10
4.68666e-05
5.83737e-10
4.68666e-05
5.51966e-10
4.68665e-05
5.05769e-10
4.68664e-05
4.50639e-10
4.68664e-05
3.91173e-10
4.68664e-05
3.30281e-10
4.68663e-05
2.69142e-10
4.68663e-05
2.08716e-10
4.68663e-05
1.50163e-10
4.68663e-05
9.40948e-11
4.68663e-05
4.06959e-11
4.68663e-05
-9.69854e-12
4.68663e-05
-5.63886e-11
4.68663e-05
-9.87906e-11
4.68663e-05
-1.37157e-10
4.68663e-05
-1.72121e-10
4.68663e-05
-2.04135e-10
4.68664e-05
-2.33578e-10
4.68664e-05
-2.60287e-10
4.68664e-05
-2.83732e-10
4.68665e-05
-3.04187e-10
4.68665e-05
-3.22538e-10
4.68666e-05
-3.38941e-10
4.68666e-05
-3.52908e-10
4.68667e-05
-3.6415e-10
4.68667e-05
-3.73239e-10
4.68668e-05
-3.80585e-10
4.68669e-05
-3.86349e-10
4.68669e-05
-3.88332e-10
4.6867e-05
-3.86828e-10
4.6867e-05
-3.76846e-10
4.68671e-05
-3.61186e-10
4.68671e-05
-3.29626e-10
4.68672e-05
-2.86547e-10
4.68672e-05
-2.28943e-10
4.68673e-05
-1.56033e-10
4.68673e-05
-1.05042e-10
4.68673e-05
-7.22338e-11
4.68673e-05
-5.79186e-11
4.68673e-05
-6.19074e-11
4.68673e-05
-6.90347e-11
4.68674e-05
-7.7089e-11
4.68674e-05
-8.40364e-11
4.68674e-05
-8.80743e-11
4.68674e-05
-8.77536e-11
4.68674e-05
-8.16766e-11
4.68674e-05
-6.93137e-11
4.68674e-05
-5.1645e-11
4.68674e-05
-2.97478e-11
4.68674e-05
-3.87574e-12
4.68674e-05
2.54897e-11
4.68674e-05
5.65776e-11
4.68674e-05
8.72629e-11
4.68673e-05
1.16429e-10
4.68673e-05
1.43341e-10
4.68673e-05
1.67088e-10
4.68673e-05
1.87126e-10
4.68672e-05
2.03195e-10
4.68672e-05
2.15588e-10
4.68672e-05
2.25263e-10
4.68671e-05
2.32331e-10
4.68671e-05
2.3598e-10
4.68671e-05
2.36135e-10
4.6867e-05
2.33463e-10
4.6867e-05
2.28851e-10
4.6867e-05
2.23336e-10
4.68669e-05
2.16987e-10
4.68669e-05
2.09003e-10
4.68669e-05
1.99423e-10
4.68668e-05
1.8893e-10
4.68668e-05
1.77845e-10
4.68668e-05
1.66442e-10
4.68668e-05
1.55191e-10
4.68667e-05
1.44179e-10
4.68667e-05
1.31573e-10
4.68667e-05
1.16516e-10
4.68667e-05
9.76958e-11
4.68667e-05
7.95584e-11
4.68667e-05
6.5321e-11
4.68667e-05
5.48602e-11
4.68666e-05
4.86971e-11
4.68666e-05
4.29575e-11
4.68666e-05
3.62596e-11
4.68666e-05
2.79241e-11
4.68666e-05
1.66623e-11
4.68666e-05
2.30121e-12
4.68666e-05
-1.50846e-11
4.68666e-05
-3.38766e-11
4.68666e-05
-5.40211e-11
4.68667e-05
-6.97476e-11
4.68667e-05
-8.3638e-11
4.68667e-05
-8.5128e-11
4.68667e-05
-7.80974e-11
4.68667e-05
-5.74874e-11
4.68667e-05
-2.53507e-11
4.68667e-05
-9.08458e-12
4.68667e-05
-6.53921e-12
4.68668e-05
-1.90651e-11
4.68668e-05
-4.26769e-11
4.68668e-05
-7.17996e-11
4.68668e-05
-1.01677e-10
4.68668e-05
-1.28584e-10
4.68668e-05
-1.51849e-10
4.68668e-05
-1.69286e-10
4.68669e-05
-1.81616e-10
4.68669e-05
-1.83406e-10
4.68669e-05
-1.68184e-10
4.68669e-05
-1.68535e-10
4.68669e-05
-7.34666e-11
-1.38223e-10
5.08762e-05
-4.08511e-10
5.08762e-05
-4.44944e-10
5.08762e-05
-3.03494e-10
5.08762e-05
-8.28201e-11
5.08762e-05
1.4448e-10
5.08761e-05
3.38727e-10
5.08761e-05
4.85248e-10
5.0876e-05
5.82934e-10
5.0876e-05
6.36602e-10