/*--------------------------------*- C++ -*----------------------------------*\
  =========                 |
  \\      /  F ield         | OpenFOAM: The Open Source CFD Toolbox
   \\    /   O peration     | Website:  https://openfoam.org
    \\  /    A nd           | Version:  7
     \\/     M anipulation  |
\*---------------------------------------------------------------------------*/
FoamFile
{
    version     2.0;
    format      ascii;
    class       volVectorField;
    location    "16000";
    object      U;
}
// * * * * * * * * * * * * * * * * * * * * * * * * * * * * * * * * * * * * * //

dimensions      [0 1 -1 0 0 0 0];

internalField   nonuniform List<vector> 
24000
(
(0.00434519 9.21991e-11 7.2547e-16)
(0.00434519 -4.33128e-11 7.14518e-16)
(0.00434521 -1.2325e-10 7.15141e-16)
(0.00434523 -1.13189e-10 6.56092e-16)
(0.00434524 -6.624e-11 3.78683e-16)
(0.00434524 -1.42398e-11 6.35409e-16)
(0.00434523 2.83853e-11 3.79839e-16)
(0.00434522 5.85125e-11 6.39821e-16)
(0.00434521 7.67849e-11 6.8527e-16)
(0.0043452 8.54117e-11 3.39011e-16)
(0.00434518 8.72192e-11 6.58092e-16)
(0.00434517 8.41989e-11 6.73163e-16)
(0.00434515 7.78664e-11 6.7779e-16)
(0.00434514 6.97233e-11 6.58551e-16)
(0.00434513 6.09862e-11 6.21804e-16)
(0.00434512 5.20378e-11 6.63996e-16)
(0.00434511 4.26983e-11 6.5607e-16)
(0.00434511 3.3418e-11 6.56931e-16)
(0.0043451 2.48593e-11 6.32828e-16)
(0.0043451 1.66116e-11 6.03424e-16)
(0.00434509 8.32261e-12 6.59207e-16)
(0.00434509 3.65358e-13 6.13235e-16)
(0.00434509 -6.97309e-12 6.31366e-16)
(0.0043451 -1.33632e-11 6.07832e-16)
(0.0043451 -1.87295e-11 5.66008e-16)
(0.0043451 -2.34979e-11 6.58817e-16)
(0.00434511 -2.80914e-11 6.34415e-16)
(0.00434511 -3.26514e-11 6.36568e-16)
(0.00434512 -3.67062e-11 6.0324e-16)
(0.00434513 -3.9927e-11 5.45326e-16)
(0.00434513 -4.26578e-11 6.35752e-16)
(0.00434514 -4.55082e-11 6.13401e-16)
(0.00434515 -4.8206e-11 6.2934e-16)
(0.00434516 -5.06874e-11 6.06249e-16)
(0.00434516 -5.19226e-11 5.36712e-16)
(0.00434517 -5.31252e-11 6.29107e-16)
(0.00434518 -5.32234e-11 6.12397e-16)
(0.00434519 -5.49383e-11 6.25593e-16)
(0.0043452 -5.28187e-11 5.95735e-16)
(0.00434521 -5.32137e-11 5.56648e-16)
(0.00434522 -4.55259e-11 5.83571e-16)
(0.00434523 -4.26706e-11 7.94764e-16)
(0.00434523 -2.87786e-11 6.42752e-16)
(0.00434524 -1.40843e-11 6.40434e-16)
(0.00434524 4.53254e-13 6.49127e-16)
(0.00434524 2.90285e-11 6.56136e-16)
(0.00434524 2.49213e-11 8.32506e-16)
(0.00434524 2.35737e-11 6.77285e-16)
(0.00434524 1.82107e-11 6.66459e-16)
(0.00434524 4.49701e-12 6.71127e-16)
(0.00434524 9.18627e-14 6.78091e-16)
(0.00434524 -6.12181e-12 9.12271e-16)
(0.00434524 -1.10995e-11 6.88672e-16)
(0.00434524 -1.48649e-11 8.77845e-16)
(0.00434524 -1.77075e-11 6.38587e-16)
(0.00434525 -1.93603e-11 6.98612e-16)
(0.00434525 -1.95251e-11 9.26133e-16)
(0.00434525 -1.87792e-11 7.11937e-16)
(0.00434525 -1.73933e-11 9.69619e-16)
(0.00434526 -1.48662e-11 6.3736e-16)
(0.00434526 -1.09933e-11 7.18797e-16)
(0.00434526 -6.33452e-12 9.1789e-16)
(0.00434526 -1.66216e-12 7.16308e-16)
(0.00434526 3.04828e-12 9.51364e-16)
(0.00434525 7.85281e-12 7.11061e-16)
(0.00434525 1.2203e-11 7.43028e-16)
(0.00434525 1.57989e-11 8.95098e-16)
(0.00434525 1.85506e-11 7.27682e-16)
(0.00434524 2.05983e-11 9.7677e-16)
(0.00434524 2.27088e-11 7.13821e-16)
(0.00434523 2.4844e-11 7.33362e-16)
(0.00434523 2.5972e-11 9.19958e-16)
(0.00434522 2.60068e-11 7.39172e-16)
(0.00434522 2.55763e-11 9.63749e-16)
(0.00434521 2.49528e-11 6.42166e-16)
(0.00434521 2.44509e-11 7.3972e-16)
(0.0043452 2.3969e-11 9.48497e-16)
(0.0043452 2.28957e-11 7.42131e-16)
(0.00434519 2.12641e-11 9.66793e-16)
(0.00434519 1.94801e-11 6.96817e-16)
(0.00434519 1.73587e-11 5.78327e-16)
(0.00434518 1.53957e-11 6.63859e-16)
(0.00434518 1.35118e-11 7.46357e-16)
(0.00434518 1.25423e-11 4.98445e-16)
(0.00434518 1.01788e-11 6.47761e-16)
(0.00434517 8.02939e-12 4.93624e-16)
(0.00434517 3.16799e-12 6.2776e-16)
(0.00434517 -1.86452e-13 7.25874e-16)
(0.00434517 -1.1937e-12 5.20216e-16)
(0.00434517 -2.57739e-12 5.7157e-16)
(0.00434517 -1.52205e-12 4.94397e-16)
(0.00434517 -2.37052e-12 6.70768e-16)
(0.00434517 -3.35676e-12 7.3432e-16)
(0.00434517 -3.78433e-12 5.25195e-16)
(0.00434517 -5.26701e-12 6.27402e-16)
(0.00434517 -5.94942e-12 4.2446e-16)
(0.00434517 -8.3558e-12 6.14061e-16)
(0.00434517 -7.88361e-12 7.07991e-16)
(0.00434517 -1.09086e-11 4.29062e-16)
(0.00434517 -6.0567e-12 5.77957e-16)
(0.00434518 -7.28089e-12 4.34107e-16)
(0.00434518 2.62863e-12 6.51605e-16)
(0.00434518 1.01181e-11 7.25945e-16)
(0.00434518 2.03281e-11 5.03024e-16)
(0.00434517 3.90091e-11 6.00488e-16)
(0.00434517 3.32383e-11 5.44809e-16)
(0.00434517 2.94793e-11 6.57115e-16)
(0.00434516 1.86089e-11 7.22516e-16)
(0.00434516 6.67213e-12 4.59496e-16)
(0.00434516 -4.21992e-12 6.07374e-16)
(0.00434517 -1.42874e-11 4.44694e-16)
(0.00434517 -2.15342e-11 5.0103e-16)
(0.00434517 -2.80405e-11 7.01095e-16)
(0.00434518 -3.09088e-11 5.4671e-16)
(0.00434518 -3.24373e-11 6.41883e-16)
(0.00434519 -3.2118e-11 5.39982e-16)
(0.00434519 -2.03448e-11 4.27013e-16)
(0.00434519 -2.04532e-11 7.03006e-16)
(0.0043452 -2.32998e-11 5.11911e-16)
(0.0043452 6.97129e-11 6.00001e-16)
(0.0131157 3.36398e-10 2.18878e-15)
(0.0131157 -9.89157e-10 2.16021e-15)
(0.0131157 -1.71388e-09 2.16135e-15)
(0.0131158 -1.42537e-09 1.98154e-15)
(0.0131158 -6.68202e-10 1.53272e-15)
(0.0131158 1.2098e-10 1.93309e-15)
(0.0131158 7.54743e-10 1.53677e-15)
(0.0131157 1.19251e-09 1.94813e-15)
(0.0131157 1.45004e-09 2.06637e-15)
(0.0131157 1.56185e-09 1.37789e-15)
(0.0131156 1.56736e-09 1.99768e-15)
(0.0131156 1.49805e-09 2.03317e-15)
(0.0131155 1.37802e-09 2.04872e-15)
(0.0131155 1.22866e-09 1.99063e-15)
(0.0131155 1.06743e-09 1.88863e-15)
(0.0131154 9.03299e-10 2.00719e-15)
(0.0131154 7.37526e-10 1.98102e-15)
(0.0131154 5.74573e-10 1.98558e-15)
(0.0131154 4.20595e-10 1.91223e-15)
(0.0131154 2.74008e-10 1.82377e-15)
(0.0131154 1.31946e-10 1.99493e-15)
(0.0131154 -3.50317e-12 1.85771e-15)
(0.0131154 -1.28563e-10 1.91066e-15)
(0.0131154 -2.3931e-10 1.83618e-15)
(0.0131154 -3.34794e-10 1.71107e-15)
(0.0131154 -4.1928e-10 1.99755e-15)
(0.0131154 -4.9798e-10 1.92698e-15)
(0.0131154 -5.72937e-10 1.92924e-15)
(0.0131154 -6.40556e-10 1.8278e-15)
(0.0131155 -6.97261e-10 1.64745e-15)
(0.0131155 -7.45595e-10 1.92563e-15)
(0.0131155 -7.90767e-10 1.85227e-15)
(0.0131155 -8.33278e-10 1.90293e-15)
(0.0131155 -8.69874e-10 1.83908e-15)
(0.0131156 -8.94995e-10 1.62804e-15)
(0.0131156 -9.12352e-10 1.9076e-15)
(0.0131156 -9.23713e-10 1.85515e-15)
(0.0131156 -9.36654e-10 1.89165e-15)
(0.0131157 -9.29007e-10 1.80088e-15)
(0.0131157 -9.15525e-10 1.68864e-15)
(0.0131157 -8.51522e-10 1.76945e-15)
(0.0131157 -7.87422e-10 1.94798e-15)
(0.0131158 -6.37692e-10 1.93511e-15)
(0.0131158 -4.55618e-10 1.93771e-15)
(0.0131158 -2.31372e-10 1.96421e-15)
(0.0131158 6.67928e-11 1.98592e-15)
(0.0131158 1.49965e-10 2.08532e-15)
(0.0131158 1.6509e-10 2.04035e-15)
(0.0131158 1.24063e-10 2.01718e-15)
(0.0131158 8.90674e-12 2.03024e-15)
(0.0131158 -6.58927e-11 2.05092e-15)
(0.0131158 -1.34581e-10 2.13356e-15)
(0.0131158 -1.95112e-10 2.07737e-15)
(0.0131158 -2.40575e-10 2.19118e-15)
(0.0131158 -2.71682e-10 2.02392e-15)
(0.0131158 -2.85079e-10 2.11714e-15)
(0.0131158 -2.77687e-10 2.1974e-15)
(0.0131158 -2.53846e-10 2.14631e-15)
(0.0131158 -2.17131e-10 2.26362e-15)
(0.0131159 -1.64977e-10 2.01513e-15)
(0.0131159 -9.57026e-11 2.17529e-15)
(0.0131159 -1.55595e-11 2.21332e-15)
(0.0131159 6.63618e-11 2.16188e-15)
(0.0131158 1.47119e-10 2.25627e-15)
(0.0131158 2.25584e-10 2.16349e-15)
(0.0131158 2.96611e-10 2.25106e-15)
(0.0131158 3.55975e-10 2.27849e-15)
(0.0131158 4.02107e-10 2.19443e-15)
(0.0131158 4.37186e-10 2.29828e-15)
(0.0131158 4.68363e-10 2.1748e-15)
(0.0131158 4.96281e-10 2.22724e-15)
(0.0131158 5.12418e-10 2.31326e-15)
(0.0131157 5.14215e-10 2.22572e-15)
(0.0131157 5.06835e-10 2.30902e-15)
(0.0131157 4.9486e-10 1.90451e-15)
(0.0131157 4.82479e-10 2.23677e-15)
(0.0131157 4.69496e-10 2.28702e-15)
(0.0131157 4.50536e-10 2.23751e-15)
(0.0131157 4.24702e-10 2.3214e-15)
(0.0131156 3.94793e-10 2.1301e-15)
(0.0131156 3.61803e-10 2.11318e-15)
(0.0131156 3.28802e-10 1.90575e-15)
(0.0131156 2.98943e-10 2.25969e-15)
(0.0131156 2.7439e-10 1.97866e-15)
(0.0131156 2.42196e-10 2.04368e-15)
(0.0131156 2.02769e-10 1.96206e-15)
(0.0131156 1.41167e-10 2.05519e-15)
(0.0131156 8.72889e-11 2.19623e-15)
(0.0131156 5.50121e-11 1.9761e-15)
(0.0131156 3.30143e-11 1.93713e-15)
(0.0131156 3.05342e-11 1.92866e-15)
(0.0131156 2.08381e-11 1.86638e-15)
(0.0131156 7.1791e-12 2.22125e-15)
(0.0131156 -5.92468e-12 1.97528e-15)
(0.0131156 -2.59584e-11 1.97251e-15)
(0.0131156 -4.95676e-11 1.94212e-15)
(0.0131156 -8.17581e-11 1.97856e-15)
(0.0131156 -1.06859e-10 2.13993e-15)
(0.0131156 -1.40204e-10 1.92895e-15)
(0.0131156 -1.33041e-10 1.93158e-15)
(0.0131156 -1.37339e-10 1.91312e-15)
(0.0131156 -6.73322e-11 1.82215e-15)
(0.0131156 1.49712e-11 2.19671e-15)
(0.0131156 1.42659e-10 1.95342e-15)
(0.0131156 3.17448e-10 1.93657e-15)
(0.0131156 3.29978e-10 1.98702e-15)
(0.0131156 2.83827e-10 2.02917e-15)
(0.0131156 1.73698e-10 2.18612e-15)
(0.0131156 3.13606e-11 1.97066e-15)
(0.0131156 -1.11802e-10 1.95411e-15)
(0.0131156 -2.44375e-10 1.95281e-15)
(0.0131156 -3.51811e-10 1.90031e-15)
(0.0131156 -4.39302e-10 2.12577e-15)
(0.0131156 -4.90772e-10 1.99841e-15)
(0.0131156 -5.21215e-10 1.96397e-15)
(0.0131156 -5.13826e-10 1.98636e-15)
(0.0131157 -4.00761e-10 1.90251e-15)
(0.0131157 -4.1925e-10 2.13437e-15)
(0.0131157 -2.4189e-10 1.96016e-15)
(0.0131157 5.10303e-10 1.7721e-15)
(0.0220629 1.55048e-10 3.71043e-15)
(0.022063 -3.22283e-09 3.6291e-15)
(0.022063 -4.81185e-09 3.63685e-15)
(0.0220631 -3.78912e-09 3.29894e-15)
(0.0220631 -1.57297e-09 3.05114e-15)
(0.0220631 6.74301e-10 3.31194e-15)
(0.0220631 2.45803e-09 3.07397e-15)
(0.0220631 3.67802e-09 3.34433e-15)
(0.022063 4.38523e-09 3.4597e-15)
(0.0220629 4.6797e-09 3.064e-15)
(0.0220628 4.67169e-09 3.43542e-15)
(0.0220628 4.4508e-09 3.41234e-15)
(0.0220627 4.08591e-09 3.44888e-15)
(0.0220626 3.63692e-09 3.34489e-15)
(0.0220626 3.15307e-09 3.20037e-15)
(0.0220625 2.66153e-09 3.38768e-15)
(0.0220625 2.16856e-09 3.32595e-15)
(0.0220625 1.68536e-09 3.34259e-15)
(0.0220624 1.22722e-09 3.21169e-15)
(0.0220624 7.92063e-10 3.0738e-15)
(0.0220624 3.73302e-10 3.38657e-15)
(0.0220624 -2.46248e-11 3.13175e-15)
(0.0220624 -3.92109e-10 3.22927e-15)
(0.0220624 -7.18538e-10 3.07705e-15)
(0.0220624 -1.00145e-09 2.88672e-15)
(0.0220625 -1.25182e-09 3.38818e-15)
(0.0220625 -1.48337e-09 3.25813e-15)
(0.0220625 -1.70184e-09 3.26115e-15)
(0.0220625 -1.89936e-09 3.08734e-15)
(0.0220626 -2.06676e-09 2.77851e-15)
(0.0220626 -2.20937e-09 3.27774e-15)
(0.0220626 -2.34014e-09 3.10246e-15)
(0.0220627 -2.46178e-09 3.20923e-15)
(0.0220627 -2.56613e-09 3.10299e-15)
(0.0220628 -2.64052e-09 2.75307e-15)
(0.0220628 -2.6915e-09 3.25447e-15)
(0.0220628 -2.72711e-09 3.13204e-15)
(0.0220629 -2.76109e-09 3.19029e-15)
(0.0220629 -2.74774e-09 3.03074e-15)
(0.022063 -2.70803e-09 2.85453e-15)
(0.022063 -2.54893e-09 3.00231e-15)
(0.0220631 -2.36794e-09 3.0938e-15)
(0.0220631 -1.97753e-09 3.25251e-15)
(0.0220631 -1.48749e-09 3.26449e-15)
(0.0220631 -8.70306e-10 3.31429e-15)
(0.0220632 -8.19199e-11 3.35137e-15)
(0.0220632 2.20017e-10 3.33315e-15)
(0.0220632 3.06413e-10 3.42859e-15)
(0.0220632 2.27393e-10 3.3996e-15)
(0.0220632 -4.31253e-11 3.4244e-15)
(0.0220632 -2.44023e-10 3.45742e-15)
(0.0220632 -4.23807e-10 3.42829e-15)
(0.0220632 -5.81595e-10 3.49657e-15)
(0.0220632 -7.00058e-10 3.48806e-15)
(0.0220632 -7.77785e-10 3.82577e-15)
(0.0220632 -8.05322e-10 3.59702e-15)
(0.0220632 -7.74261e-10 3.53494e-15)
(0.0220632 -6.94622e-10 3.60685e-15)
(0.0220632 -5.76533e-10 3.60786e-15)
(0.0220632 -4.1551e-10 3.72565e-15)
(0.0220633 -2.08245e-10 3.69244e-15)
(0.0220633 2.90786e-11 3.59688e-15)
(0.0220632 2.71515e-10 3.63871e-15)
(0.0220632 5.09138e-10 3.62646e-15)
(0.0220632 7.3756e-10 4.08301e-15)
(0.0220632 9.43579e-10 3.80643e-15)
(0.0220632 1.11607e-09 3.65969e-15)
(0.0220632 1.25062e-09 3.69117e-15)
(0.0220632 1.35292e-09 3.67793e-15)
(0.0220631 1.4409e-09 4.09429e-15)
(0.0220631 1.51714e-09 3.78017e-15)
(0.0220631 1.56146e-09 3.68212e-15)
(0.0220631 1.56651e-09 3.73583e-15)
(0.022063 1.54443e-09 3.72281e-15)
(0.022063 1.50787e-09 3.80038e-15)
(0.022063 1.46861e-09 3.7967e-15)
(0.022063 1.42717e-09 3.70001e-15)
(0.0220629 1.37041e-09 3.75965e-15)
(0.0220629 1.29508e-09 3.75169e-15)
(0.0220629 1.20778e-09 4.06569e-15)
(0.0220629 1.11237e-09 3.69216e-15)
(0.0220629 1.01645e-09 3.87044e-15)
(0.0220628 9.28895e-10 3.82992e-15)
(0.0220628 8.53727e-10 3.52534e-15)
(0.0220628 7.61418e-10 3.72919e-15)
(0.0220628 6.46819e-10 3.51372e-15)
(0.0220628 4.76874e-10 3.71852e-15)
(0.0220628 3.21294e-10 3.72647e-15)
(0.0220628 2.19798e-10 3.47066e-15)
(0.0220628 1.52341e-10 3.55504e-15)
(0.0220628 1.35298e-10 3.4617e-15)
(0.0220628 1.07085e-10 3.93409e-15)
(0.0220628 6.84851e-11 3.75199e-15)
(0.0220628 2.78173e-11 3.46267e-15)
(0.0220628 -3.09826e-11 3.80313e-15)
(0.0220628 -1.04867e-10 3.46926e-15)
(0.0220628 -2.00887e-10 3.59757e-15)
(0.0220628 -2.88175e-10 3.62779e-15)
(0.0220628 -3.89387e-10 3.40023e-15)
(0.0220628 -4.02487e-10 3.86241e-15)
(0.0220628 -4.25603e-10 3.40361e-15)
(0.0220628 -2.73404e-10 3.87013e-15)
(0.0220628 -6.98483e-11 3.71496e-15)
(0.0220628 2.59391e-10 3.45249e-15)
(0.0220628 7.0185e-10 3.78114e-15)
(0.0220628 7.77499e-10 3.47298e-15)
(0.0220628 6.71335e-10 3.88183e-15)
(0.0220628 3.93562e-10 3.69947e-15)
(0.0220628 2.04652e-11 3.44165e-15)
(0.0220628 -3.66381e-10 3.80196e-15)
(0.0220628 -7.28272e-10 3.45777e-15)
(0.0220628 -1.02715e-09 3.34611e-15)
(0.0220628 -1.2692e-09 3.60268e-15)
(0.0220628 -1.41858e-09 3.47058e-15)
(0.0220629 -1.50823e-09 3.83652e-15)
(0.0220629 -1.49264e-09 3.47277e-15)
(0.0220629 -1.21256e-09 3.36994e-15)
(0.0220629 -1.25276e-09 3.62278e-15)
(0.0220629 -6.7251e-10 3.45259e-15)
(0.0220629 1.04126e-09 3.78504e-15)
(0.0311424 -1.08355e-09 5.24197e-15)
(0.0311425 -7.11219e-09 5.10935e-15)
(0.0311426 -9.30548e-09 5.13121e-15)
(0.0311426 -6.872e-09 4.32238e-15)
(0.0311427 -2.4275e-09 4.62536e-15)
(0.0311427 1.9443e-09 4.77965e-15)
(0.0311426 5.37015e-09 4.66266e-15)
(0.0311425 7.68871e-09 4.83152e-15)
(0.0311424 9.01092e-09 4.8595e-15)
(0.0311423 9.53438e-09 4.72153e-15)
(0.0311422 9.47114e-09 4.95829e-15)
(0.0311421 8.99495e-09 4.79707e-15)
(0.031142 8.23989e-09 4.87303e-15)
(0.0311419 7.32143e-09 4.69616e-15)
(0.0311419 6.3345e-09 4.56067e-15)
(0.0311418 5.33423e-09 4.80538e-15)
(0.0311418 4.33615e-09 4.66612e-15)
(0.0311417 3.36017e-09 4.72115e-15)
(0.0311417 2.43328e-09 4.50587e-15)
(0.0311417 1.55413e-09 4.22918e-15)
(0.0311417 7.12507e-10 4.9273e-15)
(0.0311417 -8.48761e-11 4.41839e-15)
(0.0311417 -8.20889e-10 4.60034e-15)
(0.0311417 -1.47587e-09 4.41651e-15)
(0.0311417 -2.04575e-09 4.11162e-15)
(0.0311417 -2.55045e-09 4.78426e-15)
(0.0311418 -3.01498e-09 4.60166e-15)
(0.0311418 -3.45033e-09 4.63383e-15)
(0.0311418 -3.84399e-09 4.38447e-15)
(0.0311419 -4.18e-09 3.83096e-15)
(0.0311419 -4.46621e-09 4.79079e-15)
(0.031142 -4.72523e-09 4.12262e-15)
(0.031142 -4.96369e-09 4.55282e-15)
(0.0311421 -5.16781e-09 4.37611e-15)
(0.0311421 -5.31634e-09 3.7897e-15)
(0.0311422 -5.41872e-09 4.58735e-15)
(0.0311422 -5.49214e-09 4.43969e-15)
(0.0311423 -5.55625e-09 4.5247e-15)
(0.0311424 -5.5393e-09 4.30755e-15)
(0.0311424 -5.46314e-09 3.89114e-15)
(0.0311425 -5.1811e-09 4.30241e-15)
(0.0311425 -4.83529e-09 4.28903e-15)
(0.0311426 -4.12129e-09 4.61549e-15)
(0.0311426 -3.20644e-09 4.60764e-15)
(0.0311427 -2.04005e-09 4.69929e-15)
(0.0311427 -5.79138e-10 4.74778e-15)
(0.0311427 8.57134e-11 4.60782e-15)
(0.0311427 3.24201e-10 4.85692e-15)
(0.0311427 2.32005e-10 4.80162e-15)
(0.0311427 -2.12824e-10 4.85271e-15)
(0.0311427 -5.76068e-10 4.89073e-15)
(0.0311427 -9.01384e-10 4.75551e-15)
(0.0311427 -1.18485e-09 4.95852e-15)
(0.0311427 -1.39634e-09 4.83217e-15)
(0.0311428 -1.52871e-09 5.11353e-15)
(0.0311428 -1.56307e-09 5.06182e-15)
(0.0311428 -1.48347e-09 4.88407e-15)
(0.0311428 -1.30663e-09 5.10277e-15)
(0.0311428 -1.05228e-09 4.98942e-15)
(0.0311428 -7.1537e-10 5.21866e-15)
(0.0311428 -2.9189e-10 5.21111e-15)
(0.0311428 1.8775e-10 4.99358e-15)
(0.0311428 6.76773e-10 5.15722e-15)
(0.0311428 1.15345e-09 5.02179e-15)
(0.0311428 1.6077e-09 5.38955e-15)
(0.0311428 2.01588e-09 5.34298e-15)
(0.0311427 2.35752e-09 5.06785e-15)
(0.0311427 2.62443e-09 5.22981e-15)
(0.0311427 2.82727e-09 5.09747e-15)
(0.0311427 2.99758e-09 5.44119e-15)
(0.0311426 3.14107e-09 5.32518e-15)
(0.0311426 3.22372e-09 5.07599e-15)
(0.0311425 3.23196e-09 5.27875e-15)
(0.0311425 3.18634e-09 5.15224e-15)
(0.0311425 3.11057e-09 5.33596e-15)
(0.0311424 3.02723e-09 5.35435e-15)
(0.0311424 2.93876e-09 5.11706e-15)
(0.0311424 2.82266e-09 5.3162e-15)
(0.0311423 2.67178e-09 5.2067e-15)
(0.0311423 2.49746e-09 5.37744e-15)
(0.0311423 2.30826e-09 5.24405e-15)
(0.0311423 2.11777e-09 5.42807e-15)
(0.0311422 1.9424e-09 5.41155e-15)
(0.0311422 1.78794e-09 5.06143e-15)
(0.0311422 1.60476e-09 5.18569e-15)
(0.0311422 1.37706e-09 5.02305e-15)
(0.0311422 1.05083e-09 5.22e-15)
(0.0311422 7.44135e-10 5.23843e-15)
(0.0311421 5.33135e-10 4.97336e-15)
(0.0311421 3.93067e-10 5.05047e-15)
(0.0311421 3.46054e-10 4.97448e-15)
(0.0311421 2.88353e-10 5.21416e-15)
(0.0311421 2.12483e-10 5.27925e-15)
(0.0311421 1.28151e-10 4.9531e-15)
(0.0311421 8.50718e-12 5.06766e-15)
(0.0311421 -1.46407e-10 4.9742e-15)
(0.0311421 -3.44233e-10 5.02523e-15)
(0.0311421 -5.37622e-10 5.09867e-15)
(0.0311421 -7.51405e-10 4.86806e-15)
(0.0311421 -8.23479e-10 4.97055e-15)
(0.0311421 -8.93963e-10 4.8715e-15)
(0.0311422 -6.63683e-10 5.15092e-15)
(0.0311422 -3.17149e-10 5.23621e-15)
(0.0311422 2.69047e-10 4.94219e-15)
(0.0311422 1.05627e-09 5.09985e-15)
(0.0311422 1.24475e-09 4.95094e-15)
(0.0311422 1.07852e-09 5.16881e-15)
(0.0311421 5.8943e-10 5.20283e-15)
(0.0311421 -8.83707e-11 4.91491e-15)
(0.0311422 -8.08335e-10 5.12643e-15)
(0.0311422 -1.48869e-09 4.93111e-15)
(0.0311422 -2.05783e-09 4.8183e-15)
(0.0311422 -2.51813e-09 5.14567e-15)
(0.0311422 -2.81111e-09 4.94916e-15)
(0.0311423 -2.98909e-09 5.09577e-15)
(0.0311423 -2.96712e-09 4.93713e-15)
(0.0311423 -2.47686e-09 4.86521e-15)
(0.0311424 -2.54159e-09 5.18211e-15)
(0.0311424 -1.28373e-09 4.94523e-15)
(0.0311424 1.39762e-09 5.11311e-15)
(0.0401881 -4.14514e-09 6.77196e-15)
(0.0401882 -1.28721e-08 6.54633e-15)
(0.0401883 -1.48012e-08 6.60721e-15)
(0.0401884 -1.00958e-08 6.32688e-15)
(0.0401884 -2.74563e-09 6.25164e-15)
(0.0401884 4.25303e-09 6.30973e-15)
(0.0401883 9.66555e-09 6.25971e-15)
(0.0401882 1.32892e-08 6.37048e-15)
(0.0401881 1.53182e-08 6.38486e-15)
(0.040188 1.60723e-08 6.31819e-15)
(0.0401878 1.58881e-08 6.51896e-15)
(0.0401877 1.50424e-08 6.13435e-15)
(0.0401876 1.37503e-08 6.30718e-15)
(0.0401875 1.2196e-08 5.98455e-15)
(0.0401874 1.05316e-08 5.95111e-15)
(0.0401873 8.84853e-09 6.27451e-15)
(0.0401873 7.17577e-09 5.94367e-15)
(0.0401872 5.54316e-09 6.1032e-15)
(0.0401872 3.99068e-09 5.7373e-15)
(0.0401871 2.51972e-09 5.72978e-15)
(0.0401871 1.1174e-09 6.24617e-15)
(0.0401871 -2.07315e-10 5.97902e-15)
(0.0401871 -1.42919e-09 6.03676e-15)
(0.0401872 -2.51823e-09 6.03832e-15)
(0.0401872 -3.46924e-09 5.72927e-15)
(0.0401872 -4.31298e-09 6.32132e-15)
(0.0401872 -5.08676e-09 6.23386e-15)
(0.0401873 -5.8076e-09 6.03468e-15)
(0.0401873 -6.45926e-09 6.00133e-15)
(0.0401874 -7.01851e-09 5.5793e-15)
(0.0401875 -7.49507e-09 6.15468e-15)
(0.0401875 -7.9219e-09 6.03421e-15)
(0.0401876 -8.31097e-09 5.95424e-15)
(0.0401876 -8.64329e-09 5.95231e-15)
(0.0401877 -8.88874e-09 5.5079e-15)
(0.0401878 -9.06017e-09 6.10783e-15)
(0.0401879 -9.18496e-09 6.03651e-15)
(0.0401879 -9.28839e-09 5.89327e-15)
(0.040188 -9.27121e-09 5.89572e-15)
(0.0401881 -9.15342e-09 5.62416e-15)
(0.0401882 -8.73193e-09 5.68715e-15)
(0.0401882 -8.18769e-09 5.8609e-15)
(0.0401883 -7.0938e-09 6.05462e-15)
(0.0401884 -5.6705e-09 5.9182e-15)
(0.0401884 -3.84107e-09 6.10692e-15)
(0.0401884 -1.57177e-09 6.14674e-15)
(0.0401884 -4.07729e-10 6.22942e-15)
(0.0401885 8.43598e-11 6.34815e-15)
(0.0401885 3.34288e-11 6.18502e-15)
(0.0401885 -5.6794e-10 6.30125e-15)
(0.0401885 -1.10103e-09 6.31983e-15)
(0.0401885 -1.58603e-09 6.43304e-15)
(0.0401885 -2.00562e-09 6.47706e-15)
(0.0401885 -2.31495e-09 6.53043e-15)
(0.0401885 -2.49676e-09 6.60141e-15)
(0.0401886 -2.51934e-09 6.50205e-15)
(0.0401886 -2.35697e-09 6.54291e-15)
(0.0401886 -2.0342e-09 6.64354e-15)
(0.0401886 -1.5826e-09 6.71861e-15)
(0.0401886 -9.98683e-10 6.79228e-15)
(0.0401886 -2.80138e-10 6.69708e-15)
(0.0401886 5.24623e-10 6.71505e-15)
(0.0401886 1.34194e-09 6.72839e-15)
(0.0401886 2.13435e-09 6.74615e-15)
(0.0401886 2.88355e-09 6.92911e-15)
(0.0401885 3.55367e-09 6.83287e-15)
(0.0401885 4.11379e-09 6.8083e-15)
(0.0401885 4.55204e-09 6.82149e-15)
(0.0401884 4.8849e-09 6.86511e-15)
(0.0401884 5.15896e-09 6.97545e-15)
(0.0401883 5.38329e-09 6.84532e-15)
(0.0401883 5.51002e-09 6.80081e-15)
(0.0401882 5.51932e-09 6.86678e-15)
(0.0401882 5.44069e-09 6.89592e-15)
(0.0401881 5.31075e-09 6.80991e-15)
(0.0401881 5.1656e-09 6.87783e-15)
(0.0401881 5.01076e-09 6.85654e-15)
(0.040188 4.81344e-09 6.91728e-15)
(0.040188 4.56178e-09 6.98928e-15)
(0.0401879 4.27274e-09 6.99117e-15)
(0.0401879 3.96108e-09 7.08726e-15)
(0.0401879 3.64735e-09 7.02465e-15)
(0.0401878 3.35599e-09 6.97107e-15)
(0.0401878 3.09429e-09 6.89022e-15)
(0.0401878 2.79034e-09 6.64509e-15)
(0.0401878 2.41388e-09 6.84352e-15)
(0.0401877 1.88945e-09 6.7219e-15)
(0.0401877 1.38814e-09 6.71975e-15)
(0.0401877 1.02969e-09 6.78241e-15)
(0.0401877 7.89511e-10 6.4053e-15)
(0.0401877 6.9452e-10 6.8114e-15)
(0.0401877 5.94788e-10 6.59978e-15)
(0.0401877 4.69054e-10 6.78475e-15)
(0.0401877 3.24047e-10 6.74443e-15)
(0.0401877 1.19587e-10 6.5116e-15)
(0.0401877 -1.49304e-10 6.81893e-15)
(0.0401877 -4.90605e-10 6.36123e-15)
(0.0401877 -8.38432e-10 6.55694e-15)
(0.0401877 -1.21653e-09 6.63871e-15)
(0.0401877 -1.39863e-09 6.10669e-15)
(0.0401877 -1.55995e-09 6.64782e-15)
(0.0401877 -1.28037e-09 6.66599e-15)
(0.0401877 -7.97287e-10 6.73949e-15)
(0.0401878 6.60825e-11 6.7273e-15)
(0.0401878 1.23826e-09 6.48753e-15)
(0.0401878 1.58226e-09 6.74573e-15)
(0.0401877 1.37459e-09 6.45233e-15)
(0.0401877 6.60508e-10 6.68982e-15)
(0.0401877 -3.61077e-10 6.68744e-15)
(0.0401878 -1.47086e-09 6.63019e-15)
(0.0401878 -2.53138e-09 6.70048e-15)
(0.0401878 -3.42791e-09 6.65537e-15)
(0.0401878 -4.15426e-09 6.75709e-15)
(0.0401879 -4.62848e-09 6.73631e-15)
(0.0401879 -4.92063e-09 6.60237e-15)
(0.0401879 -4.89782e-09 6.70052e-15)
(0.040188 -4.17702e-09 6.72525e-15)
(0.040188 -4.27446e-09 6.81279e-15)
(0.040188 -2.01027e-09 6.74825e-15)
(0.040188 1.18118e-09 6.64495e-15)
(0.0488652 -9.55003e-09 8.27809e-15)
(0.0488654 -2.01383e-08 7.94867e-15)
(0.0488655 -2.05149e-08 8.02848e-15)
(0.0488656 -1.27486e-08 7.91231e-15)
(0.0488656 -2.10572e-09 7.85069e-15)
(0.0488655 7.73187e-09 7.82444e-15)
(0.0488654 1.52611e-08 7.80939e-15)
(0.0488653 2.02603e-08 7.88242e-15)
(0.0488652 2.3014e-08 7.84084e-15)
(0.048865 2.39716e-08 7.87122e-15)
(0.0488649 2.36016e-08 8.03417e-15)
(0.0488647 2.22912e-08 7.66695e-15)
(0.0488646 2.03451e-08 7.73753e-15)
(0.0488645 1.80238e-08 7.44137e-15)
(0.0488644 1.55441e-08 7.35764e-15)
(0.0488643 1.30401e-08 7.74365e-15)
(0.0488642 1.05572e-08 7.39448e-15)
(0.0488642 8.13558e-09 7.47164e-15)
(0.0488641 5.82903e-09 7.14737e-15)
(0.0488641 3.64436e-09 7.12591e-15)
(0.0488641 1.56799e-09 7.37616e-15)
(0.0488641 -3.88916e-10 7.40737e-15)
(0.0488641 -2.19301e-09 7.46767e-15)
(0.0488641 -3.80394e-09 7.31733e-15)
(0.0488642 -5.21665e-09 7.2657e-15)
(0.0488642 -6.47365e-09 7.54249e-15)
(0.0488642 -7.62359e-09 7.41796e-15)
(0.0488643 -8.68951e-09 7.35184e-15)
(0.0488643 -9.65319e-09 7.23571e-15)
(0.0488644 -1.0484e-08 7.12472e-15)
(0.0488645 -1.11924e-08 7.36347e-15)
(0.0488645 -1.18223e-08 7.23206e-15)
(0.0488646 -1.23921e-08 7.27418e-15)
(0.0488647 -1.28778e-08 7.1188e-15)
(0.0488648 -1.32413e-08 7.00291e-15)
(0.0488649 -1.34999e-08 7.29999e-15)
(0.0488649 -1.36909e-08 7.21532e-15)
(0.048865 -1.38445e-08 7.18697e-15)
(0.0488651 -1.38332e-08 7.1299e-15)
(0.0488652 -1.36747e-08 7.09926e-15)
(0.0488653 -1.31089e-08 7.08617e-15)
(0.0488654 -1.23487e-08 7.32555e-15)
(0.0488654 -1.08447e-08 7.48468e-15)
(0.0488655 -8.8641e-09 7.44007e-15)
(0.0488656 -6.30186e-09 7.51838e-15)
(0.0488656 -3.1346e-09 7.50321e-15)
(0.0488656 -1.35668e-09 7.84559e-15)
(0.0488656 -5.03854e-10 7.80669e-15)
(0.0488657 -4.37981e-10 7.86087e-15)
(0.0488657 -1.1488e-09 7.75004e-15)
(0.0488657 -1.83184e-09 7.69674e-15)
(0.0488657 -2.46911e-09 8.06672e-15)
(0.0488657 -3.01809e-09 7.95976e-15)
(0.0488657 -3.4161e-09 8.07132e-15)
(0.0488658 -3.63142e-09 8.09338e-15)
(0.0488658 -3.6155e-09 7.88879e-15)
(0.0488658 -3.33205e-09 8.22187e-15)
(0.0488658 -2.81399e-09 8.13664e-15)
(0.0488658 -2.10677e-09 8.29017e-15)
(0.0488658 -1.2106e-09 8.32947e-15)
(0.0488658 -1.27524e-10 8.10889e-15)
(0.0488658 1.0723e-09 8.40853e-15)
(0.0488658 2.28473e-09 8.26091e-15)
(0.0488658 3.45448e-09 8.64175e-15)
(0.0488658 4.55296e-09 8.44033e-15)
(0.0488657 5.53103e-09 8.2494e-15)
(0.0488657 6.34776e-09 8.37437e-15)
(0.0488656 6.98794e-09 8.37494e-15)
(0.0488656 7.47448e-09 8.47768e-15)
(0.0488655 7.86892e-09 8.53163e-15)
(0.0488655 8.18309e-09 8.29085e-15)
(0.0488654 8.35621e-09 8.53373e-15)
(0.0488654 8.36398e-09 8.42135e-15)
(0.0488653 8.24474e-09 8.67955e-15)
(0.0488653 8.04864e-09 8.52069e-15)
(0.0488652 7.82705e-09 8.34671e-15)
(0.0488652 7.58921e-09 8.73762e-15)
(0.0488651 7.29173e-09 8.4838e-15)
(0.0488651 6.91823e-09 8.78784e-15)
(0.048865 6.49227e-09 8.53889e-15)
(0.048865 6.03578e-09 8.87991e-15)
(0.048865 5.57617e-09 8.39554e-15)
(0.0488649 5.14554e-09 8.47744e-15)
(0.0488649 4.75221e-09 8.61411e-15)
(0.0488649 4.30075e-09 8.00081e-15)
(0.0488648 3.74447e-09 8.58733e-15)
(0.0488648 2.98813e-09 8.20482e-15)
(0.0488648 2.25839e-09 8.19676e-15)
(0.0488648 1.72159e-09 8.50952e-15)
(0.0488648 1.35698e-09 7.91863e-15)
(0.0488648 1.19573e-09 8.57677e-15)
(0.0488647 1.04026e-09 8.10929e-15)
(0.0488647 8.51248e-10 8.26823e-15)
(0.0488647 6.27493e-10 8.45756e-15)
(0.0488647 3.12807e-10 7.85755e-15)
(0.0488647 -1.03953e-10 8.56334e-15)
(0.0488647 -6.30433e-10 8.03582e-15)
(0.0488647 -1.18105e-09 8.04101e-15)
(0.0488647 -1.77629e-09 8.3183e-15)
(0.0488647 -2.12414e-09 7.60003e-15)
(0.0488648 -2.42717e-09 8.55115e-15)
(0.0488648 -2.14169e-09 8.15555e-15)
(0.0488648 -1.54839e-09 8.20639e-15)
(0.0488648 -4.14275e-10 8.41802e-15)
(0.0488648 1.15454e-09 7.96685e-15)
(0.0488648 1.68691e-09 8.50718e-15)
(0.0488648 1.46993e-09 8.09072e-15)
(0.0488648 5.45922e-10 8.14607e-15)
(0.0488648 -8.23867e-10 8.38483e-15)
(0.0488648 -2.34561e-09 8.0972e-15)
(0.0488649 -3.81753e-09 8.53846e-15)
(0.0488649 -5.07445e-09 8.40935e-15)
(0.0488649 -6.09784e-09 8.33766e-15)
(0.048865 -6.78247e-09 8.44343e-15)
(0.048865 -7.21228e-09 8.0571e-15)
(0.048865 -7.1984e-09 8.40174e-15)
(0.0488651 -6.24679e-09 8.51192e-15)
(0.0488651 -6.39352e-09 8.41071e-15)
(0.0488652 -2.7741e-09 8.4758e-15)
(0.0488651 -8.35014e-11 8.12157e-15)
(0.0567986 -1.69755e-08 9.71912e-15)
(0.0567988 -2.78862e-08 9.42946e-15)
(0.0567989 -2.54805e-08 9.40573e-15)
(0.0567989 -1.42507e-08 9.39012e-15)
(0.0567989 -3.61536e-10 9.29637e-15)
(0.0567989 1.2168e-08 9.24115e-15)
(0.0567988 2.16984e-08 9.24608e-15)
(0.0567986 2.80034e-08 9.29417e-15)
(0.0567985 3.14408e-08 9.28582e-15)
(0.0567983 3.25731e-08 9.29911e-15)
(0.0567982 3.19877e-08 9.4341e-15)
(0.056798 3.01745e-08 8.74449e-15)
(0.0567979 2.75264e-08 9.08716e-15)
(0.0567978 2.43817e-08 8.62881e-15)
(0.0567977 2.10242e-08 8.6856e-15)
(0.0567976 1.76329e-08 9.2854e-15)
(0.0567975 1.42704e-08 8.69014e-15)
(0.0567975 1.0988e-08 8.74832e-15)
(0.0567974 7.85388e-09 8.28383e-15)
(0.0567974 4.88323e-09 8.44726e-15)
(0.0567974 2.0644e-09 8.50979e-15)
(0.0567974 -5.88931e-10 8.71459e-15)
(0.0567974 -3.03541e-09 8.79332e-15)
(0.0567974 -5.22521e-09 8.50499e-15)
(0.0567975 -7.15549e-09 8.68592e-15)
(0.0567975 -8.88026e-09 8.74118e-15)
(0.0567975 -1.04561e-08 8.51021e-15)
(0.0567976 -1.19115e-08 8.56906e-15)
(0.0567976 -1.3228e-08 8.41584e-15)
(0.0567977 -1.43675e-08 8.57259e-15)
(0.0567978 -1.53408e-08 8.56502e-15)
(0.0567979 -1.62034e-08 8.37036e-15)
(0.0567979 -1.69796e-08 8.48012e-15)
(0.056798 -1.76408e-08 8.1396e-15)
(0.0567981 -1.81421e-08 8.38798e-15)
(0.0567982 -1.85072e-08 8.49164e-15)
(0.0567983 -1.87821e-08 8.06506e-15)
(0.0567984 -1.89995e-08 8.38957e-15)
(0.0567985 -1.90049e-08 8.00838e-15)
(0.0567986 -1.88144e-08 8.47998e-15)
(0.0567987 -1.81125e-08 8.41546e-15)
(0.0567987 -1.71365e-08 8.77217e-15)
(0.0567988 -1.52191e-08 8.78607e-15)
(0.0567989 -1.26695e-08 8.79619e-15)
(0.056799 -9.35073e-09 8.82163e-15)
(0.056799 -5.24447e-09 8.76888e-15)
(0.056799 -2.77176e-09 9.13825e-15)
(0.0567991 -1.46385e-09 9.11829e-15)
(0.0567991 -1.19876e-09 9.104e-15)
(0.0567991 -1.95335e-09 9.05688e-15)
(0.0567991 -2.74384e-09 8.97787e-15)
(0.0567991 -3.50529e-09 9.37502e-15)
(0.0567991 -4.16122e-09 9.27458e-15)
(0.0567992 -4.62736e-09 9.55181e-15)
(0.0567992 -4.85272e-09 9.47861e-15)
(0.0567992 -4.76887e-09 9.13253e-15)
(0.0567992 -4.32876e-09 9.5384e-15)
(0.0567992 -3.57536e-09 9.49121e-15)
(0.0567993 -2.56879e-09 9.78701e-15)
(0.0567993 -1.31439e-09 9.72591e-15)
(0.0567993 1.78865e-10 9.3653e-15)
(0.0567992 1.81609e-09 9.75822e-15)
(0.0567992 3.4618e-09 9.63172e-15)
(0.0567992 5.04305e-09 9.8632e-15)
(0.0567992 6.52019e-09 9.85243e-15)
(0.0567991 7.83073e-09 9.51059e-15)
(0.0567991 8.92513e-09 9.88391e-15)
(0.056799 9.78576e-09 9.76719e-15)
(0.056799 1.04415e-08 1.00189e-14)
(0.0567989 1.09671e-08 9.94707e-15)
(0.0567989 1.13758e-08 9.58277e-15)
(0.0567988 1.1596e-08 9.919e-15)
(0.0567988 1.16016e-08 9.82548e-15)
(0.0567987 1.14394e-08 1.00572e-14)
(0.0567987 1.11722e-08 1.00008e-14)
(0.0567986 1.08672e-08 9.64936e-15)
(0.0567985 1.0537e-08 9.98535e-15)
(0.0567985 1.01277e-08 9.90074e-15)
(0.0567984 9.61997e-09 1.01998e-14)
(0.0567984 9.04529e-09 1.00414e-14)
(0.0567984 8.43252e-09 1.03628e-14)
(0.0567983 7.81462e-09 1.00805e-14)
(0.0567983 7.23002e-09 9.91725e-15)
(0.0567982 6.68776e-09 1.01686e-14)
(0.0567982 6.06887e-09 9.77059e-15)