/*--------------------------------*- C++ -*----------------------------------*\
  =========                 |
  \\      /  F ield         | OpenFOAM: The Open Source CFD Toolbox
   \\    /   O peration     | Website:  https://openfoam.org
    \\  /    A nd           | Version:  7
     \\/     M anipulation  |
\*---------------------------------------------------------------------------*/
FoamFile
{
    version     2.0;
    format      ascii;
    class       surfaceScalarField;
    location    "17000";
    object      phi;
}
// * * * * * * * * * * * * * * * * * * * * * * * * * * * * * * * * * * * * * //

dimensions      [0 3 -1 0 0 0 0];

internalField   nonuniform List<scalar> 
47680
(
2.1993e-06
1.98773e-12
2.19931e-06
-4.72147e-12
2.19932e-06
-8.47078e-12
2.19932e-06
-7.12854e-12
2.19933e-06
-3.42541e-12
2.19933e-06
4.63317e-13
2.19932e-06
3.59541e-12
2.19932e-06
5.76463e-12
2.19931e-06
7.04502e-12
2.1993e-06
7.60668e-12
2.19929e-06
7.64437e-12
2.19929e-06
7.31293e-12
2.19928e-06
6.73127e-12
2.19927e-06
6.00487e-12
2.19927e-06
5.21999e-12
2.19926e-06
4.42042e-12
2.19926e-06
3.61181e-12
2.19926e-06
2.81614e-12
2.19926e-06
2.06505e-12
2.19925e-06
1.3497e-12
2.19925e-06
6.55263e-13
2.19925e-06
-6.9189e-15
2.19925e-06
-6.18957e-13
2.19926e-06
-1.16037e-12
2.19926e-06
-1.6268e-12
2.19926e-06
-2.03932e-12
2.19926e-06
-2.42397e-12
2.19926e-06
-2.79112e-12
2.19927e-06
-3.12231e-12
2.19927e-06
-3.39962e-12
2.19927e-06
-3.63547e-12
2.19928e-06
-3.85713e-12
2.19928e-06
-4.06574e-12
2.19929e-06
-4.2463e-12
2.19929e-06
-4.36861e-12
2.1993e-06
-4.45458e-12
2.1993e-06
-4.50772e-12
2.1993e-06
-4.57552e-12
2.19931e-06
-4.53175e-12
2.19931e-06
-4.47267e-12
2.19932e-06
-4.14545e-12
2.19932e-06
-3.83822e-12
2.19932e-06
-3.09051e-12
2.19933e-06
-2.18598e-12
2.19933e-06
-1.08974e-12
2.19933e-06
4.15803e-13
2.19933e-06
7.95155e-13
2.19933e-06
8.62648e-13
2.19933e-06
6.54952e-13
2.19933e-06
6.54201e-14
2.19933e-06
-3.01544e-13
2.19933e-06
-6.46099e-13
2.19933e-06
-9.48327e-13
2.19933e-06
-1.17564e-12
2.19933e-06
-1.3328e-12
2.19933e-06
-1.40287e-12
2.19933e-06
-1.37037e-12
2.19933e-06
-1.25743e-12
2.19933e-06
-1.08195e-12
2.19934e-06
-8.305e-13
2.19934e-06
-4.93716e-13
2.19934e-06
-1.02727e-13
2.19934e-06
2.96911e-13
2.19934e-06
6.91442e-13
2.19933e-06
1.07571e-12
2.19933e-06
1.42396e-12
2.19933e-06
1.71506e-12
2.19933e-06
1.94121e-12
2.19933e-06
2.11317e-12
2.19932e-06
2.26672e-12
2.19932e-06
2.40566e-12
2.19932e-06
2.48623e-12
2.19932e-06
2.49545e-12
2.19931e-06
2.45999e-12
2.19931e-06
2.40225e-12
2.19931e-06
2.34271e-12
2.19931e-06
2.28066e-12
2.19931e-06
2.18848e-12
2.1993e-06
2.06189e-12
2.1993e-06
1.91586e-12
2.1993e-06
1.75395e-12
2.1993e-06
1.59245e-12
2.1993e-06
1.44558e-12
2.1993e-06
1.32781e-12
2.19929e-06
1.16903e-12
2.19929e-06
9.78003e-13
2.19929e-06
6.72759e-13
2.19929e-06
4.07961e-13
2.19929e-06
2.53133e-13
2.19929e-06
1.44322e-13
2.19929e-06
1.36629e-13
2.19929e-06
8.85278e-14
2.19929e-06
2.10049e-14
2.19929e-06
-4.13825e-14
2.19929e-06
-1.4025e-13
2.19929e-06
-2.52354e-13
2.19929e-06
-4.11728e-13
2.19929e-06
-5.26181e-13
2.19929e-06
-6.94544e-13
2.19929e-06
-6.42362e-13
2.1993e-06
-6.69127e-13
2.1993e-06
-3.07051e-13
2.1993e-06
1.05074e-13
2.19929e-06
7.35993e-13
2.19929e-06
1.62716e-12
2.19929e-06
1.66894e-12
2.19929e-06
1.44251e-12
2.19929e-06
8.89818e-13
2.19929e-06
1.80852e-13
2.19929e-06
-5.28697e-13
2.19929e-06
-1.18685e-12
2.19929e-06
-1.71677e-12
2.19929e-06
-2.15147e-12
2.1993e-06
-2.40423e-12
2.1993e-06
-2.5532e-12
2.1993e-06
-2.52219e-12
2.1993e-06
-1.95046e-12
2.19931e-06
-2.03408e-12
2.19931e-06
-1.25029e-12
2.6352e-12
6.79534e-06
2.54445e-12
6.79535e-06
-2.07411e-11
6.79538e-06
-3.23501e-11
6.7954e-06
-2.59528e-11
6.7954e-06
-1.12405e-11
6.7954e-06
3.83154e-12
6.79539e-06
1.58478e-11
6.79537e-06
2.40966e-11
6.79535e-06
2.89049e-11
6.79533e-06
3.09393e-11
6.7953e-06
3.09413e-11
6.79528e-06
2.95132e-11
6.79526e-06
2.71155e-11
6.79524e-06
2.41533e-11
6.79523e-06
2.0957e-11
6.79521e-06
1.77066e-11
6.7952e-06
1.44404e-11
6.79519e-06
1.12359e-11
6.79519e-06
8.20013e-12
6.79518e-06
5.31386e-12
6.79518e-06
2.53201e-12
6.79518e-06
-1.13105e-13
6.79518e-06
-2.55775e-12
6.79519e-06
-4.72745e-12
6.79519e-06
-6.60592e-12
6.7952e-06
-8.26783e-12
6.79521e-06
-9.80771e-12
6.79521e-06
-1.12632e-11
6.79522e-06
-1.25796e-11
6.79523e-06
-1.36923e-11
6.79524e-06
-1.464e-11
6.79526e-06
-1.55133e-11
6.79527e-06
-1.63273e-11
6.79528e-06
-1.70277e-11
6.79529e-06
-1.75227e-11
6.79531e-06
-1.78634e-11
6.79532e-06
-1.80965e-11
6.79534e-06
-1.83317e-11
6.79535e-06
-1.82284e-11
6.79536e-06
-1.79707e-11
6.79538e-06
-1.68677e-11
6.79539e-06
-1.56607e-11
6.7954e-06
-1.29935e-11
6.7954e-06
-9.66712e-12
6.79541e-06
-5.50988e-12
6.79541e-06
-1.14475e-13
6.79541e-06
1.81256e-12
6.79541e-06
2.32976e-12
6.79541e-06
1.74772e-12
6.79541e-06
-1.58092e-13
6.79541e-06
-1.52461e-12
6.79541e-06
-2.75754e-12
6.79541e-06
-3.84091e-12
6.79542e-06
-4.65528e-12
6.79542e-06
-5.19725e-12
6.79542e-06
-5.40317e-12
6.79543e-06
-5.21619e-12
6.79543e-06
-4.7058e-12
6.79543e-06
-3.94129e-12
6.79544e-06
-2.88746e-12
6.79544e-06
-1.51925e-12
6.79544e-06
5.27954e-14
6.79544e-06
1.66033e-12
6.79543e-06
3.23896e-12
6.79543e-06
4.75992e-12
6.79542e-06
6.13513e-12
6.79542e-06
7.28633e-12
6.79541e-06
8.18398e-12
6.79541e-06
8.86697e-12
6.7954e-06
9.45839e-12
6.79539e-06
9.97648e-12
6.79538e-06
1.02792e-11
6.79538e-06
1.03152e-11
6.79537e-06
1.01714e-11
6.79536e-06
9.93244e-12
6.79535e-06
9.67664e-12
6.79535e-06
9.40737e-12
6.79534e-06
9.03279e-12
6.79533e-06
8.53179e-12
6.79533e-06
7.95187e-12
6.79532e-06
7.31513e-12
6.79532e-06
6.67564e-12
6.79531e-06
6.09285e-12
6.79531e-06
5.59921e-12
6.7953e-06
4.98265e-12
6.7953e-06
4.22194e-12
6.7953e-06
3.07615e-12
6.7953e-06
2.03676e-12
6.79529e-06
1.37163e-12
6.79529e-06
9.25207e-13
6.79529e-06
8.26668e-13
6.79529e-06
6.39211e-13
6.79529e-06
3.79721e-13
6.79529e-06
1.14123e-13
6.79529e-06
-2.76551e-13
6.79529e-06
-7.5842e-13
6.79529e-06
-1.39455e-12
6.7953e-06
-1.95005e-12
6.7953e-06
-2.62133e-12
6.7953e-06
-2.65118e-12
6.7953e-06
-2.79393e-12
6.7953e-06
-1.69922e-12
6.7953e-06
-2.86973e-13
6.7953e-06
1.96729e-12
6.7953e-06
5.03368e-12
6.79529e-06
5.48447e-12
6.79529e-06
4.74235e-12
6.79529e-06
2.82848e-12
6.79529e-06
2.78271e-13
6.79529e-06
-2.34792e-12
6.79529e-06
-4.80101e-12
6.7953e-06
-6.81827e-12
6.79531e-06
-8.45656e-12
6.79531e-06
-9.45737e-12
6.79532e-06
-1.00567e-11
6.79533e-06
-9.95497e-12
6.79533e-06
-8.01263e-12
6.79534e-06
-8.29713e-12
6.79534e-06
-4.61552e-12
7.61665e-12
1.17012e-05
-4.24286e-12
1.17012e-05
-5.11282e-11
1.17012e-05
-7.04338e-11
1.17013e-05
-5.34365e-11
1.17013e-05
-2.02896e-11
1.17013e-05
1.27518e-11
1.17012e-05
3.87993e-11
1.17012e-05
5.65164e-11
1.17012e-05
6.67008e-11
1.17011e-05
7.08316e-11
1.17011e-05
7.05167e-11
1.1701e-05
6.70707e-11
1.1701e-05
6.1508e-11
1.1701e-05
5.47035e-11
1.1701e-05
4.73788e-11
1.17009e-05
3.99448e-11
1.17009e-05
3.2512e-11
1.17009e-05
2.52363e-11
1.17009e-05
1.83285e-11
1.17009e-05
1.17715e-11
1.17009e-05
5.48362e-12
1.17009e-05
-4.80277e-13
1.17009e-05
-5.98855e-12
1.17009e-05
-1.08883e-11
1.17009e-05
-1.51465e-11
1.17009e-05
-1.89165e-11
1.17009e-05
-2.2392e-11
1.17009e-05
-2.5656e-11
1.1701e-05
-2.86095e-11
1.1701e-05
-3.11243e-11
1.1701e-05
-3.32665e-11
1.1701e-05
-3.52137e-11
1.1701e-05
-3.70131e-11
1.17011e-05
-3.85559e-11
1.17011e-05
-3.9672e-11
1.17011e-05
-4.04411e-11
1.17011e-05
-4.09881e-11
1.17011e-05
-4.14804e-11
1.17012e-05
-4.13339e-11
1.17012e-05
-4.07613e-11
1.17012e-05
-3.85674e-11
1.17012e-05
-3.59459e-11
1.17012e-05
-3.0447e-11
1.17013e-05
-2.34434e-11
1.17013e-05
-1.45515e-11
1.17013e-05
-3.32104e-12
1.17013e-05
1.53005e-12
1.17013e-05
3.16477e-12
1.17013e-05
2.32408e-12
1.17013e-05
-1.23896e-12
1.17013e-05
-4.05797e-12
1.17013e-05
-6.58162e-12
1.17013e-05
-8.78862e-12
1.17013e-05
-1.04417e-11
1.17013e-05
-1.14975e-11
1.17013e-05
-1.18157e-11
1.17013e-05
-1.12739e-11
1.17013e-05
-1.00035e-11
1.17013e-05
-8.15516e-12
1.17013e-05
-5.68022e-12
1.17013e-05
-2.54121e-12
1.17013e-05
1.02927e-12
1.17013e-05
4.67441e-12
1.17013e-05
8.23634e-12
1.17013e-05
1.16415e-11
1.17013e-05
1.47079e-11
1.17013e-05
1.72766e-11
1.17013e-05
1.92832e-11
1.17013e-05
2.08102e-11
1.17013e-05
2.21025e-11
1.17012e-05
2.32037e-11
1.17012e-05
2.38435e-11
1.17012e-05
2.39154e-11
1.17012e-05
2.35827e-11
1.17012e-05
2.30266e-11
1.17012e-05
2.24173e-11
1.17012e-05
2.17711e-11
1.17012e-05
2.09116e-11
1.17011e-05
1.97847e-11
1.17011e-05
1.84814e-11
1.17011e-05
1.70619e-11
1.17011e-05
1.56332e-11
1.17011e-05
1.43218e-11
1.17011e-05
1.31769e-11
1.17011e-05
1.18056e-11
1.17011e-05
1.01013e-11
1.17011e-05
7.62959e-12
1.17011e-05
5.32292e-12
1.17011e-05
3.76098e-12
1.17011e-05
2.7221e-12
1.17011e-05
2.39979e-12
1.17011e-05
1.97136e-12
1.17011e-05
1.39937e-12
1.17011e-05
7.77184e-13
1.17011e-05
-1.11583e-13
1.17011e-05
-1.25107e-12
1.17011e-05
-2.71364e-12
1.17011e-05
-4.11116e-12
1.17011e-05
-5.68122e-12
1.17011e-05
-6.10663e-12
1.17011e-05
-6.57372e-12
1.17011e-05
-4.66989e-12
1.17011e-05
-1.92536e-12
1.17011e-05
2.63885e-12
1.17011e-05
8.78347e-12
1.17011e-05
1.01243e-11
1.17011e-05
8.77858e-12
1.17011e-05
4.96308e-12
1.17011e-05
-2.77261e-13
1.17011e-05
-5.80151e-12
1.17011e-05
-1.10077e-11
1.17011e-05
-1.53475e-11
1.17011e-05
-1.88616e-11
1.17011e-05
-2.10793e-11
1.17011e-05
-2.24241e-11
1.17011e-05
-2.22533e-11
1.17011e-05
-1.84171e-11
1.17012e-05
-1.89482e-11
1.17012e-05
-9.87922e-12
1.21026e-11
1.69068e-05
-2.52268e-11
1.69069e-05
-9.92084e-11
1.69069e-05
-1.20479e-10
1.6907e-05
-8.50959e-11
1.6907e-05
-2.63129e-11
1.6907e-05
3.04463e-11
1.69069e-05
7.46157e-11
1.69069e-05
1.04348e-10
1.69068e-05
1.21153e-10
1.69068e-05
1.27602e-10
1.69067e-05
1.26431e-10
1.69067e-05
1.19888e-10
1.69066e-05
1.09716e-10
1.69066e-05
9.74112e-11
1.69065e-05
8.42075e-11
1.69065e-05
7.08373e-11
1.69065e-05
5.75256e-11
1.69065e-05
4.45203e-11
1.69064e-05
3.21558e-11
1.69064e-05
2.04332e-11
1.69064e-05
9.23843e-12
1.69064e-05
-1.35023e-12
1.69064e-05
-1.11218e-11
1.69064e-05
-1.98277e-11
1.69065e-05
-2.74212e-11
1.69065e-05
-3.41535e-11
1.69065e-05
-4.0336e-11
1.69065e-05
-4.61082e-11
1.69065e-05
-5.13297e-11
1.69066e-05
-5.58015e-11
1.69066e-05
-5.9612e-11
1.69066e-05
-6.30392e-11
1.69066e-05
-6.61761e-11
1.69067e-05
-6.88593e-11
1.69067e-05
-7.08313e-11
1.69067e-05
-7.2204e-11
1.69068e-05
-7.31983e-11
1.69068e-05
-7.40391e-11
1.69068e-05
-7.38764e-11
1.69069e-05
-7.29163e-11
1.69069e-05
-6.94145e-11
1.69069e-05
-6.49821e-11
1.69069e-05
-5.59734e-11
1.6907e-05
-4.43139e-11
1.6907e-05
-2.93719e-11
1.6907e-05
-1.07515e-11
1.6907e-05
-1.60044e-12
1.6907e-05
2.06162e-12
1.6907e-05
1.36386e-12
1.6907e-05
-3.84688e-12
1.6907e-05
-8.32143e-12
1.6907e-05
-1.23683e-11
1.6907e-05
-1.58834e-11
1.6907e-05
-1.84913e-11
1.6907e-05
-2.00702e-11
1.6907e-05
-2.0368e-11
1.6907e-05
-1.91763e-11
1.69071e-05
-1.66988e-11
1.69071e-05
-1.31923e-11
1.69071e-05
-8.61336e-12
1.69071e-05
-2.92849e-12
1.69071e-05
3.46877e-12
1.69071e-05
9.97804e-12
1.6907e-05
1.63065e-11
1.6907e-05
2.23094e-11
1.6907e-05
2.7692e-11
1.6907e-05
3.21958e-11
1.6907e-05
3.57202e-11
1.6907e-05
3.84002e-11
1.6907e-05
4.06243e-11
1.69069e-05
4.24684e-11
1.69069e-05
4.35225e-11
1.69069e-05
4.36195e-11
1.69069e-05
4.30078e-11
1.69069e-05
4.19875e-11
1.69068e-05
4.08522e-11
1.69068e-05
3.96418e-11
1.69068e-05
3.80817e-11
1.69068e-05
3.60761e-11
1.69068e-05
3.37671e-11
1.69068e-05
3.12699e-11
1.69067e-05
2.87557e-11
1.69067e-05
2.64282e-11
1.69067e-05
2.43536e-11
1.69067e-05
2.19278e-11
1.69067e-05
1.89186e-11
1.69067e-05
1.46795e-11
1.69067e-05
1.06487e-11
1.69067e-05
7.80433e-12
1.69067e-05
5.90258e-12
1.69067e-05
5.19022e-12
1.69067e-05
4.40383e-12
1.69067e-05
3.39599e-12
1.69067e-05
2.25276e-12
1.69067e-05
6.38351e-13
1.69067e-05
-1.47322e-12
1.69067e-05
-4.15775e-12
1.69067e-05
-6.85355e-12
1.69067e-05
-9.80237e-12
1.69067e-05
-1.10683e-11
1.69067e-05
-1.22227e-11
1.69067e-05
-9.67968e-12
1.69067e-05
-5.53871e-12
1.69067e-05
1.69419e-12
1.69067e-05
1.14822e-11
1.69067e-05
1.41628e-11
1.69067e-05
1.23133e-11
1.69067e-05
6.32351e-12
1.69067e-05
-2.15169e-12
1.69067e-05
-1.12834e-11
1.69067e-05
-1.99769e-11
1.69067e-05
-2.7302e-11
1.69067e-05
-3.32363e-11
1.69068e-05
-3.70791e-11
1.69068e-05
-3.9439e-11
1.69068e-05
-3.92362e-11
1.69068e-05
-3.32053e-11
1.69068e-05
-3.40251e-11
1.69068e-05
-1.66325e-11
1.30302e-11
2.23333e-05
-6.70196e-11
2.23333e-05
-1.64955e-10
2.23334e-05
-1.76974e-10
2.23334e-05
-1.14638e-10
2.23334e-05
-2.47119e-11
2.23334e-05
5.93967e-11
2.23334e-05
1.2405e-10
2.23333e-05
1.67145e-10
2.23332e-05
1.91074e-10
2.23332e-05
1.99672e-10
2.23331e-05
1.96957e-10
2.2333e-05
1.86241e-10
2.2333e-05
1.70119e-10
2.23329e-05
1.5081e-10
2.23329e-05
1.30155e-10
2.23328e-05
1.09281e-10
2.23328e-05
8.85594e-11
2.23328e-05
6.83418e-11
2.23327e-05
4.90936e-11
2.23327e-05
3.08568e-11
2.23327e-05
1.35005e-11
2.23327e-05
-2.87433e-12
2.23327e-05
-1.79745e-11
2.23327e-05
-3.14489e-11
2.23328e-05
-4.32459e-11
2.23328e-05
-5.37308e-11
2.23328e-05
-6.33325e-11
2.23328e-05
-7.22502e-11
2.23329e-05
-8.03138e-11
2.23329e-05
-8.72526e-11
2.23329e-05
-9.31695e-11
2.2333e-05
-9.84476e-11
2.2333e-05
-1.03237e-10
2.2333e-05
-1.07325e-10
2.23331e-05
-1.10368e-10
2.23331e-05
-1.12519e-10
2.23332e-05
-1.141e-10
2.23332e-05
-1.15388e-10
2.23332e-05
-1.15253e-10
2.23333e-05
-1.1388e-10
2.23333e-05
-1.0896e-10
2.23334e-05
-1.02458e-10
2.23334e-05
-8.95028e-11
2.23334e-05
-7.25232e-11
2.23334e-05
-5.0614e-11
2.23335e-05
-2.34833e-11
2.23335e-05
-8.79768e-12
2.23335e-05
-2.07982e-12
2.23335e-05
-1.99435e-12
2.23335e-05
-8.53396e-12
2.23335e-05
-1.4599e-11
2.23335e-05
-2.01994e-11
2.23335e-05
-2.50366e-11
2.23335e-05
-2.85719e-11
2.23335e-05
-3.05622e-11
2.23335e-05
-3.06063e-11
2.23335e-05
-2.83957e-11
2.23335e-05
-2.42136e-11
2.23336e-05
-1.84467e-11
2.23336e-05
-1.10768e-11
2.23336e-05
-2.10139e-12
2.23335e-05
7.88841e-12
2.23335e-05
1.8006e-11
2.23335e-05
2.77906e-11
2.23335e-05
3.70068e-11
2.23335e-05
4.52317e-11
2.23335e-05
5.21048e-11
2.23335e-05
5.7491e-11
2.23334e-05
6.15857e-11
2.23334e-05
6.49294e-11
2.23334e-05
6.76262e-11
2.23334e-05
6.91317e-11
2.23333e-05
6.92261e-11
2.23333e-05
6.82464e-11
2.23333e-05
6.6626e-11
2.23333e-05
6.47997e-11
2.23332e-05
6.28426e-11
2.23332e-05
6.03761e-11
2.23332e-05
5.72589e-11
2.23332e-05
5.36933e-11
2.23332e-05
4.98631e-11
2.23331e-05
4.60067e-11
2.23331e-05
4.2407e-11
2.23331e-05
3.91424e-11
2.23331e-05
3.53791e-11
2.23331e-05
3.07315e-11
2.23331e-05
2.43463e-11
2.23331e-05
1.82057e-11
2.23331e-05
1.37373e-11
2.23331e-05
1.0716e-11
2.2333e-05
9.43469e-12
2.2333e-05
8.15971e-12
2.2333e-05
6.58754e-12
2.2333e-05
4.7476e-12
2.2333e-05
2.15998e-12
2.2333e-05
-1.25803e-12
2.2333e-05
-5.58292e-12
2.2333e-05
-1.00612e-11
2.2333e-05
-1.49134e-11
2.23331e-05
-1.75533e-11
2.23331e-05
-1.98672e-11
2.23331e-05
-1.70451e-11
2.23331e-05
-1.1672e-11
2.23331e-05
-1.70321e-12
2.23331e-05
1.19818e-11
2.23331e-05
1.63639e-11
2.23331e-05
1.42527e-11
2.23331e-05
6.08676e-12
2.23331e-05
-5.84193e-12
2.23331e-05
-1.89723e-11
2.23331e-05
-3.16124e-11
2.23331e-05
-4.2365e-11
2.23331e-05
-5.11046e-11
2.23331e-05
-5.68967e-11
2.23332e-05
-6.05098e-11
2.23332e-05
-6.03437e-11
2.23332e-05
-5.20093e-11
2.23332e-05
-5.32405e-11
2.23332e-05
-2.41185e-11
6.41279e-12
2.77971e-05
-1.31434e-10
2.77972e-05
-2.40819e-10
2.77973e-05
-2.30604e-10
2.77973e-05
-1.35386e-10
2.77973e-05
-1.26101e-11
2.77972e-05
9.92054e-11
2.77972e-05
1.84425e-10
2.77971e-05
2.40869e-10
2.7797e-05
2.71774e-10
2.77969e-05
2.82205e-10
2.77969e-05
2.77436e-10
2.77968e-05
2.61848e-10
2.77967e-05
2.38921e-10
2.77967e-05
2.11645e-10
2.77966e-05
1.82518e-10
2.77966e-05
1.53101e-10
2.77965e-05
1.23933e-10
2.77965e-05
9.54707e-11
2.77965e-05
6.83218e-11
2.77965e-05
4.25952e-11
2.77965e-05
1.81649e-11
2.77965e-05
-4.84297e-12
2.77965e-05
-2.60551e-11
2.77965e-05
-4.50209e-11
2.77965e-05
-6.1702e-11
2.77965e-05
-7.65801e-11
2.77966e-05
-9.01818e-11
2.77966e-05
-1.02763e-10
2.77966e-05
-1.14139e-10
2.77967e-05
-1.23969e-10
2.77967e-05
-1.32361e-10
2.77967e-05
-1.39811e-10
2.77968e-05
-1.46528e-10
2.77968e-05
-1.52252e-10
2.77969e-05
-1.56567e-10
2.77969e-05
-1.59681e-10
2.7797e-05
-1.62007e-10
2.7797e-05
-1.63861e-10
2.77971e-05
-1.63833e-10
2.77971e-05
-1.62093e-10
2.77972e-05
-1.55766e-10
2.77972e-05
-1.47105e-10
2.77972e-05
-1.30028e-10
2.77973e-05
-1.07418e-10
2.77973e-05
-7.80677e-11
2.77973e-05
-4.17692e-11
2.77973e-05
-2.05743e-11
2.77973e-05
-9.80194e-12
2.77973e-05
-8.15564e-12
2.77974e-05
-1.54715e-11
2.77974e-05
-2.28221e-11
2.77974e-05
-2.98012e-11
2.77974e-05
-3.58142e-11
2.77974e-05
-4.01264e-11
2.77974e-05
-4.23275e-11
2.77974e-05
-4.18333e-11
2.77974e-05
-3.82272e-11
2.77974e-05
-3.18875e-11
2.77974e-05
-2.33434e-11
2.77974e-05
-1.26202e-11
2.77974e-05
2.27954e-13
2.77974e-05
1.43774e-11
2.77974e-05
2.86328e-11
2.77974e-05
4.23547e-11
2.77974e-05
5.52035e-11
2.77974e-05
6.66226e-11
2.77973e-05
7.61594e-11
2.77973e-05
8.36505e-11
2.77973e-05
8.93539e-11
2.77973e-05
9.39513e-11
2.77972e-05
9.75663e-11
2.77972e-05
9.95353e-11
2.77972e-05
9.96068e-11
2.77971e-05
9.8206e-11
2.77971e-05
9.58969e-11
2.77971e-05
9.32685e-11
2.77971e-05
9.04321e-11
2.7797e-05
8.6903e-11
2.7797e-05
8.25034e-11
2.7797e-05
7.75089e-11
2.7797e-05
7.21737e-11
2.77969e-05
6.68005e-11
2.77969e-05
6.17381e-11
2.77969e-05
5.70752e-11
2.77969e-05
5.17405e-11
2.77969e-05
4.51861e-11
2.77969e-05
3.63802e-11
2.77968e-05
2.78625e-11
2.77968e-05
2.15218e-11
2.77968e-05
1.7175e-11
2.77968e-05
1.51551e-11
2.77968e-05
1.32549e-11
2.77968e-05
1.09801e-11
2.77968e-05
8.25952e-12
2.77968e-05
4.44395e-12
2.77968e-05
-6.08556e-13
2.77968e-05
-6.96817e-12
2.77968e-05
-1.36809e-11
2.77968e-05
-2.09305e-11
2.77968e-05
-2.54749e-11
2.77968e-05
-2.94396e-11
2.77969e-05
-2.67821e-11
2.77969e-05
-2.0483e-11
2.77969e-05
-7.92059e-12
2.77969e-05
9.68305e-12
2.77969e-05
1.60488e-11
2.77969e-05
1.40341e-11
2.77969e-05
3.95722e-12
2.77969e-05
-1.13142e-11
2.77969e-05
-2.84953e-11
2.77969e-05
-4.52343e-11
2.77969e-05
-5.96116e-11
2.77969e-05
-7.13743e-11
2.7797e-05
-7.93576e-11
2.7797e-05
-8.44425e-11
2.7797e-05
-8.44248e-11
2.7797e-05
-7.38813e-11
2.77971e-05
-7.56647e-11
2.77971e-05
-3.17096e-11
-1.20011e-11
3.30737e-05
-2.10524e-10
3.30738e-05
-3.14503e-10
3.30738e-05
-2.73016e-10
3.30738e-05
-1.43707e-10
3.30738e-05
9.56545e-12
3.30738e-05
1.4633e-10
3.30737e-05
2.50125e-10
3.30736e-05
3.1877e-10
3.30735e-05
3.561e-10
3.30734e-05
3.68164e-10
3.30734e-05
3.61282e-10
3.30733e-05
3.40768e-10
3.30732e-05
3.1094e-10
3.30731e-05
2.75541e-10
3.30731e-05
2.37724e-10
3.3073e-05
1.99484e-10
3.3073e-05
1.61532e-10
3.3073e-05
1.24435e-10
3.3073e-05
8.89478e-11
3.30729e-05
5.52773e-11
3.30729e-05
2.33303e-11
3.30729e-05
-6.73729e-12
3.3073e-05
-3.4472e-11
3.3073e-05
-5.93364e-11
3.3073e-05
-8.13301e-11
3.3073e-05
-1.01038e-10
3.3073e-05
-1.19042e-10
3.30731e-05
-1.35648e-10
3.30731e-05
-1.50675e-10
3.30731e-05
-1.63709e-10
3.30732e-05
-1.74862e-10
3.30732e-05
-1.8475e-10
3.30733e-05
-1.93635e-10
3.30733e-05
-2.01201e-10
3.30734e-05
-2.06984e-10
3.30734e-05
-2.11262e-10
3.30735e-05
-2.14524e-10
3.30735e-05
-2.17093e-10
3.30736e-05
-2.17304e-10
3.30736e-05
-2.15321e-10
3.30737e-05
-2.07721e-10
3.30737e-05
-1.96973e-10
3.30738e-05
-1.75845e-10
3.30738e-05
-1.47631e-10
3.30739e-05
-1.10776e-10
3.30739e-05
-6.50771e-11
3.30739e-05
-3.67197e-11
3.30739e-05
-2.10637e-11
3.30739e-05
-1.7072e-11
3.30739e-05
-2.44862e-11
3.30739e-05
-3.26407e-11
3.3074e-05
-4.06494e-11
3.3074e-05
-4.75581e-11
3.3074e-05
-5.24016e-11
3.3074e-05
-5.4555e-11
3.3074e-05
-5.32241e-11
3.3074e-05
-4.78962e-11
3.3074e-05
-3.90612e-11
3.3074e-05
-2.73946e-11
3.3074e-05
-1.29752e-11
3.3074e-05
4.06129e-12
3.3074e-05
2.26378e-11
3.3074e-05
4.12558e-11
3.3074e-05
5.91112e-11
3.3074e-05
7.57548e-11
3.30739e-05
9.05025e-11
3.30739e-05
1.02828e-10
3.30739e-05
1.12549e-10
3.30739e-05
1.19974e-10
3.30738e-05
1.25902e-10
3.30738e-05
1.30463e-10
3.30738e-05
1.329e-10
3.30737e-05
1.32958e-10
3.30737e-05
1.31143e-10
3.30737e-05
1.28136e-10
3.30736e-05
1.24678e-10
3.30736e-05
1.20909e-10
3.30736e-05
1.16241e-10
3.30735e-05
1.10483e-10
3.30735e-05
1.03998e-10
3.30735e-05
9.71015e-11
3.30735e-05
9.01378e-11
3.30734e-05
8.35111e-11
3.30734e-05
7.73148e-11
3.30734e-05
7.02485e-11
3.30734e-05
6.1615e-11
3.30734e-05
5.02466e-11
3.30734e-05
3.92298e-11
3.30733e-05
3.08868e-11
3.30733e-05
2.50779e-11
3.30733e-05
2.21748e-11
3.30733e-05
1.95134e-11
3.30733e-05
1.63871e-11
3.30733e-05
1.25919e-11
3.30733e-05
7.29669e-12
3.30733e-05
3.11901e-13
3.30733e-05
-8.41315e-12
3.30733e-05
-1.77329e-11
3.30733e-05
-2.77855e-11
3.30733e-05
-3.46813e-11
3.30733e-05
-4.0718e-11
3.30734e-05
-3.86489e-11
3.30734e-05
-3.17653e-11
3.30734e-05
-1.68563e-11
3.30734e-05
4.56134e-12
3.30734e-05
1.3143e-11
3.30734e-05
1.16607e-11
3.30734e-05
1.46824e-13
3.30734e-05
-1.80802e-11
3.30734e-05
-3.90589e-11
3.30734e-05
-5.97579e-11
3.30734e-05
-7.77236e-11
3.30735e-05
-9.2573e-11
3.30735e-05
-1.02911e-10
3.30735e-05
-1.09667e-10
3.30735e-05
-1.09948e-10
3.30736e-05
-9.75013e-11
3.30736e-05
-9.97945e-11
3.30736e-05
-3.96359e-11
-4.23087e-11
3.8018e-05
-2.8891e-10
3.8018e-05
-3.7607e-10
3.80181e-05
-3.0118e-10
3.80181e-05
-1.40388e-10
3.8018e-05
3.89239e-11
3.8018e-05
1.96361e-10
3.80179e-05
3.15623e-10
3.80178e-05
3.94646e-10
3.80178e-05
4.37618e-10
3.80177e-05
4.51238e-10
3.80176e-05
4.42554e-10
3.80175e-05
4.176e-10
3.80174e-05
3.8142e-10
3.80174e-05
3.3845e-10
3.80173e-05
2.9244e-10
3.80173e-05
2.45776e-10
3.80172e-05
1.99334e-10
3.80172e-05
1.53798e-10
3.80172e-05
1.10072e-10
3.80172e-05
6.84891e-11
3.80172e-05
2.90168e-11
3.80172e-05
-8.14873e-12
3.80172e-05
-4.24681e-11
3.80172e-05
-7.33421e-11
3.80172e-05
-1.00838e-10
3.80172e-05
-1.25609e-10
3.80173e-05
-1.48244e-10
3.80173e-05
-1.69086e-10
3.80173e-05
-1.87966e-10
3.80174e-05
-2.04401e-10
3.80174e-05
-2.18523e-10
3.80175e-05
-2.31071e-10
3.80175e-05
-2.4233e-10
3.80176e-05
-2.51914e-10
3.80176e-05
-2.59351e-10
3.80177e-05
-2.65011e-10
3.80177e-05
-2.69421e-10
3.80178e-05
-2.72882e-10
3.80178e-05
-2.73501e-10
3.80179e-05
-2.71461e-10
3.8018e-05
-2.62809e-10
3.8018e-05
-2.50164e-10
3.80181e-05
-2.25225e-10
3.80181e-05
-1.91669e-10
3.80181e-05
-1.4753e-10
3.80182e-05
-9.25033e-11
3.80182e-05
-5.66412e-11
3.80182e-05
-3.55216e-11
3.80182e-05
-2.85157e-11
3.80182e-05
-3.53438e-11
3.80182e-05
-4.37248e-11
3.80182e-05
-5.22894e-11
3.80183e-05
-5.97048e-11
3.80183e-05
-6.47432e-11
3.80183e-05
-6.6525e-11
3.80183e-05
-6.40326e-11
3.80183e-05
-5.66889e-11
3.80183e-05
-4.51179e-11
3.80183e-05
-3.01384e-11
3.80183e-05
-1.18855e-11
3.80183e-05
9.40232e-12
3.80183e-05
3.23913e-11
3.80183e-05
5.53166e-11
3.80183e-05
7.72376e-11
3.80182e-05
9.75989e-11
3.80182e-05
1.15606e-10
3.80182e-05
1.3069e-10
3.80182e-05
1.42649e-10
3.80181e-05
1.51821e-10
3.80181e-05
1.59093e-10
3.80181e-05
1.64587e-10
3.8018e-05
1.67482e-10
3.8018e-05
1.67558e-10
3.80179e-05
1.65385e-10
3.80179e-05
1.61741e-10
3.80179e-05
1.57502e-10
3.80179e-05
1.52816e-10
3.80178e-05
1.47003e-10
3.80178e-05
1.39896e-10
3.80178e-05
1.3196e-10
3.80177e-05
1.23547e-10
3.80177e-05
1.15012e-10
3.80177e-05
1.06798e-10
3.80177e-05
9.9003e-11
3.80176e-05
9.01162e-11
3.80176e-05
7.93272e-11
3.80176e-05
6.53792e-11
3.80176e-05
5.18708e-11
3.80176e-05
4.15003e-11
3.80176e-05
3.4156e-11
3.80176e-05
3.02537e-11
3.80176e-05
2.66985e-11
3.80176e-05
2.25598e-11
3.80176e-05
1.74817e-11
3.80176e-05
1.04573e-11
3.80176e-05
1.27181e-12
3.80176e-05
-1.00934e-11
3.80176e-05
-2.23171e-11
3.80176e-05
-3.54879e-11
3.80176e-05
-4.508e-11
3.80176e-05
-5.35122e-11
3.80176e-05
-5.2382e-11
3.80176e-05
-4.52251e-11
3.80176e-05
-2.82289e-11
3.80176e-05
-3.13968e-12
3.80176e-05
7.85095e-12
3.80176e-05
7.34395e-12
3.80176e-05
-5.03996e-12
3.80177e-05
-2.56695e-11
3.80177e-05
-4.99736e-11
3.80177e-05
-7.42661e-11
3.80177e-05
-9.55932e-11
3.80177e-05
-1.13457e-10
3.80177e-05
-1.26223e-10
3.80178e-05
-1.348e-10
3.80178e-05
-1.35525e-10
3.80178e-05
-1.21638e-10
3.80178e-05
-1.24057e-10
3.80179e-05
-4.88626e-11
-7.82623e-11
4.26017e-05
-3.52226e-10
4.26018e-05
-4.19907e-10
4.26018e-05
-3.1549e-10
4.26018e-05
-1.28157e-10
4.26017e-05
7.22705e-11
4.26017e-05
2.46001e-10
4.26016e-05
3.77415e-10
4.26016e-05
4.64739e-10
4.26015e-05
5.12398e-10
4.26014e-05
5.27461e-10
4.26013e-05
5.17381e-10
4.26013e-05
4.88688e-10
4.26012e-05
4.47033e-10
4.26011e-05
3.97444e-10
4.26011e-05
3.44166e-10
4.2601e-05
2.89893e-10
4.2601e-05
2.35658e-10
4.2601e-05
1.82274e-10
4.2601e-05
1.30786e-10
4.26009e-05
8.1666e-11
4.26009e-05
3.49744e-11
4.26009e-05
-9.03489e-12
4.26009e-05
-4.97348e-11
4.2601e-05
-8.65059e-11
4.2601e-05
-1.19505e-10
4.2601e-05
-1.49406e-10
4.2601e-05
-1.7675e-10
4.26011e-05
-2.01909e-10
4.26011e-05
-2.24718e-10
4.26011e-05
-2.44648e-10
4.26012e-05
-2.61885e-10
4.26012e-05
-2.77272e-10
4.26013e-05
-2.91058e-10
4.26013e-05
-3.02792e-10
4.26014e-05
-3.12055e-10
4.26014e-05
-3.19321e-10
4.26015e-05
-3.25096e-10
4.26015e-05
-3.29626e-10
4.26016e-05
-3.30839e-10
4.26017e-05
-3.28961e-10
4.26017e-05
-3.19514e-10
4.26018e-05
-3.05223e-10
4.26018e-05
-2.76798e-10
4.26019e-05
-2.3828e-10
4.26019e-05
-1.87217e-10
4.26019e-05
-1.23098e-10
4.2602e-05
-7.96353e-11
4.2602e-05
-5.27291e-11
4.2602e-05
-4.22205e-11
4.2602e-05
-4.78624e-11
4.2602e-05
-5.58823e-11
4.2602e-05
-6.4465e-11
4.2602e-05
-7.19139e-11
4.26021e-05
-7.67167e-11
4.26021e-05
-7.77105e-11
4.26021e-05
-7.36664e-11
4.26021e-05
-6.39957e-11
4.26021e-05
-4.94849e-11
4.26021e-05
-3.10878e-11
4.26021e-05
-8.99703e-12
4.26021e-05
1.64304e-11
4.26021e-05
4.3623e-11
4.26021e-05
7.06047e-11
4.2602e-05
9.63327e-11
4.2602e-05
1.20154e-10
4.2602e-05
1.41196e-10
4.2602e-05
1.58882e-10
4.26019e-05
1.72986e-10
4.26019e-05
1.83844e-10
4.26019e-05
1.92396e-10
4.26018e-05
1.98751e-10
4.26018e-05
2.0207e-10
4.26018e-05
2.0219e-10
4.26017e-05
1.99736e-10
4.26017e-05
1.95555e-10
4.26017e-05
1.90625e-10
4.26016e-05
1.85073e-10
4.26016e-05
1.78146e-10
4.26016e-05
1.69754e-10
4.26015e-05
1.60472e-10
4.26015e-05
1.50654e-10
4.26015e-05
1.40628e-10
4.26015e-05
1.30863e-10
4.26014e-05
1.21454e-10
4.26014e-05
1.10712e-10
4.26014e-05
9.77669e-11
4.26014e-05
8.13165e-11
4.26014e-05
6.54173e-11
4.26014e-05
5.30679e-11
4.26013e-05
4.41632e-11
4.26013e-05
3.91694e-11
4.26013e-05
3.45888e-11
4.26013e-05
2.92635e-11
4.26013e-05
2.26773e-11
4.26013e-05
1.36686e-11
4.26013e-05
2.02655e-12
4.26013e-05
-1.22251e-11
4.26013e-05
-2.76103e-11
4.26013e-05
-4.41553e-11
4.26013e-05
-5.67082e-11
4.26014e-05
-6.77774e-11
4.26014e-05
-6.78574e-11
4.26014e-05
-6.06772e-11
4.26014e-05
-4.18065e-11
4.26014e-05
-1.3164e-11
4.26014e-05
3.94191e-13
4.26014e-05
1.2524e-12
4.26014e-05
-1.14481e-11
4.26014e-05
-3.38703e-11
4.26015e-05
-6.09055e-11
4.26015e-05
-8.82809e-11
4.26015e-05
-1.12612e-10
4.26015e-05
-1.33308e-10
4.26015e-05
-1.48473e-10
4.26015e-05
-1.58941e-10
4.26016e-05
-1.60199e-10
4.26016e-05
-1.45396e-10
4.26016e-05
-1.4724e-10
4.26016e-05
-6.01593e-11
-1.11939e-10
4.68668e-05
-3.92676e-10
4.68668e-05
-4.43266e-10
4.68668e-05
-3.16462e-10
4.68668e-05
-1.08932e-10
4.68668e-05
1.07589e-10
4.68667e-05
2.93559e-10
4.68667e-05
4.34008e-10
4.68666e-05
5.27542e-10
4.68665e-05
5.78805e-10
4.68665e-05
5.95035e-10
4.68664e-05
5.83834e-10
4.68663e-05
5.52056e-10
4.68663e-05
5.05851e-10
4.68662e-05
4.50712e-10
4.68662e-05
3.91239e-10
4.68661e-05
3.3034e-10
4.68661e-05
2.69196e-10
4.68661e-05
2.08764e-10
4.68661e-05
1.50206e-10
4.6866e-05
9.41324e-11
4.6866e-05
4.07279e-11
4.6866e-05
-9.6706e-12
4.6866e-05
-5.6364e-11
4.68661e-05
-9.87669e-11
4.68661e-05
-1.37134e-10
4.68661e-05
-1.72095e-10
4.68661e-05
-2.04105e-10
4.68662e-05
-2.33543e-10
4.68662e-05
-2.60246e-10
4.68662e-05
-2.83686e-10
4.68663e-05
-3.04135e-10
4.68663e-05
-3.22482e-10
4.68664e-05
-3.3888e-10
4.68664e-05
-3.52844e-10
4.68665e-05
-3.64084e-10
4.68665e-05
-3.73172e-10
4.68666e-05
-3.80516e-10
4.68666e-05
-3.8628e-10
4.68667e-05
-3.88264e-10
4.68667e-05
-3.8676e-10
4.68668e-05
-3.76779e-10
4.68669e-05
-3.61122e-10
4.68669e-05
-3.29566e-10
4.6867e-05
-2.86491e-10
4.6867e-05
-2.2889e-10
4.6867e-05
-1.55982e-10
4.68671e-05
-1.04991e-10
4.68671e-05
-7.21831e-11
4.68671e-05
-5.78666e-11
4.68671e-05
-6.18522e-11
4.68671e-05
-6.89783e-11
4.68671e-05
-7.70326e-11
4.68671e-05
-8.39816e-11
4.68672e-05
-8.80223e-11
4.68672e-05
-8.7707e-11
4.68672e-05
-8.16374e-11
4.68672e-05
-6.9284e-11
4.68672e-05
-5.16273e-11
4.68672e-05
-2.97445e-11
4.68672e-05
-3.8881e-12
4.68672e-05
2.54615e-11
4.68672e-05
5.65333e-11
4.68671e-05
8.72027e-11
4.68671e-05
1.16357e-10
4.68671e-05
1.43258e-10
4.68671e-05
1.67e-10
4.6867e-05
1.87036e-10
4.6867e-05
2.03109e-10
4.6867e-05
2.1551e-10
4.68669e-05
2.25199e-10
4.68669e-05
2.32281e-10
4.68669e-05
2.35945e-10
4.68668e-05
2.36112e-10
4.68668e-05
2.33448e-10
4.68668e-05
2.28838e-10
4.68667e-05
2.23318e-10
4.68667e-05
2.16961e-10
4.68667e-05
2.08968e-10
4.68667e-05
1.99379e-10
4.68666e-05
1.88881e-10
4.68666e-05
1.77796e-10
4.68666e-05
1.66398e-10
4.68665e-05
1.55155e-10
4.68665e-05
1.44154e-10
4.68665e-05
1.31559e-10
4.68665e-05
1.16513e-10
4.68665e-05
9.77031e-11
4.68665e-05
7.95728e-11
4.68664e-05
6.53393e-11
4.68664e-05
5.48801e-11
4.68664e-05
4.87163e-11
4.68664e-05
4.29758e-11
4.68664e-05
3.62763e-11
4.68664e-05
2.79398e-11
4.68664e-05
1.66783e-11
4.68664e-05
2.31803e-12
4.68664e-05
-1.50659e-11
4.68664e-05
-3.38554e-11
4.68664e-05
-5.39967e-11
4.68664e-05
-6.97208e-11
4.68664e-05
-8.36088e-11
4.68665e-05
-8.50957e-11
4.68665e-05
-7.8065e-11
4.68665e-05
-5.7454e-11
4.68665e-05
-2.53161e-11
4.68665e-05
-9.04982e-12
4.68665e-05
-6.50491e-12
4.68665e-05
-1.90324e-11
4.68665e-05
-4.26462e-11
4.68666e-05
-7.17721e-11
4.68666e-05
-1.01653e-10
4.68666e-05
-1.28564e-10
4.68666e-05
-1.51835e-10
4.68666e-05
-1.69278e-10
4.68666e-05
-1.81615e-10
4.68667e-05
-1.83419e-10
4.68667e-05
-1.68204e-10
4.68667e-05
-1.68607e-10
4.68667e-05
-7.35533e-11
-1.38463e-10
5.0876e-05
-4.09031e-10
5.0876e-05
-4.45512e-10
5.0876e-05
-3.03959e-10
5.0876e-05
-8.31209e-11
5.08759e-05
1.44334e-10
5.08759e-05
3.38694e-10
5.08758e-05
4.85285e-10
5.08758e-05
5.83007e-10
5.08757e-05
6.36692e-10
5.08757e-05
6.53612e-10
5.08756e-05