/*--------------------------------*- C++ -*----------------------------------*\
  =========                 |
  \\      /  F ield         | OpenFOAM: The Open Source CFD Toolbox
   \\    /   O peration     | Website:  https://openfoam.org
    \\  /    A nd           | Version:  7
     \\/     M anipulation  |
\*---------------------------------------------------------------------------*/
FoamFile
{
    version     2.0;
    format      ascii;
    class       volVectorField;
    location    "17000";
    object      U;
}
// * * * * * * * * * * * * * * * * * * * * * * * * * * * * * * * * * * * * * //

dimensions      [0 1 -1 0 0 0 0];

internalField   nonuniform List<vector> 
24000
(
(0.00434516 9.2404e-11 7.6226e-16)
(0.00434517 -4.34645e-11 7.56377e-16)
(0.00434518 -1.2343e-10 7.60436e-16)
(0.0043452 -1.13312e-10 6.96998e-16)
(0.00434521 -6.62968e-11 4.2919e-16)
(0.00434521 -1.42546e-11 6.72161e-16)
(0.00434521 2.83883e-11 3.57688e-16)
(0.0043452 5.85332e-11 6.79196e-16)
(0.00434518 7.68087e-11 7.3108e-16)
(0.00434517 8.54413e-11 4.47683e-16)
(0.00434515 8.72472e-11 7.04081e-16)
(0.00434514 8.42141e-11 7.13014e-16)
(0.00434513 7.78777e-11 7.14792e-16)
(0.00434511 6.97452e-11 6.9162e-16)
(0.0043451 6.0996e-11 6.66482e-16)
(0.00434509 5.20464e-11 7.0914e-16)
(0.00434508 4.27047e-11 6.94368e-16)
(0.00434508 3.34256e-11 6.96849e-16)
(0.00434507 2.48596e-11 6.77164e-16)
(0.00434507 1.66163e-11 6.38206e-16)
(0.00434507 8.32907e-12 6.98335e-16)
(0.00434507 3.75804e-13 6.51657e-16)
(0.00434507 -6.97341e-12 6.70132e-16)
(0.00434507 -1.33571e-11 6.32574e-16)
(0.00434507 -1.87289e-11 5.9495e-16)
(0.00434508 -2.34956e-11 6.99043e-16)
(0.00434508 -2.80856e-11 6.66689e-16)
(0.00434509 -3.26524e-11 6.7849e-16)
(0.00434509 -3.66947e-11 6.42317e-16)
(0.0043451 -3.99285e-11 5.96511e-16)
(0.0043451 -4.26556e-11 6.75231e-16)
(0.00434511 -4.55014e-11 6.62091e-16)
(0.00434512 -4.82082e-11 6.73724e-16)
(0.00434513 -5.06851e-11 6.35388e-16)
(0.00434514 -5.1913e-11 5.86952e-16)
(0.00434515 -5.31174e-11 6.73471e-16)
(0.00434515 -5.32131e-11 6.5426e-16)
(0.00434516 -5.49329e-11 6.65766e-16)
(0.00434517 -5.28021e-11 6.24051e-16)
(0.00434518 -5.32027e-11 5.75874e-16)
(0.00434519 -4.55055e-11 6.14141e-16)
(0.0043452 -4.26644e-11 8.94168e-16)
(0.0043452 -2.87799e-11 6.79686e-16)
(0.00434521 -1.40807e-11 6.80768e-16)
(0.00434521 4.55225e-13 6.91984e-16)
(0.00434521 2.90347e-11 6.98987e-16)
(0.00434521 2.49268e-11 9.5199e-16)
(0.00434521 2.35759e-11 7.20539e-16)
(0.00434521 1.82204e-11 7.09406e-16)
(0.00434521 4.51153e-12 7.13505e-16)
(0.00434521 1.04248e-13 7.17597e-16)
(0.00434521 -6.11878e-12 8.69347e-16)
(0.00434521 -1.10963e-11 7.33433e-16)
(0.00434521 -1.48547e-11 9.18848e-16)
(0.00434522 -1.77007e-11 6.87475e-16)
(0.00434522 -1.93437e-11 7.4637e-16)
(0.00434522 -1.95098e-11 9.83409e-16)
(0.00434522 -1.87778e-11 7.52001e-16)
(0.00434523 -1.73852e-11 1.00629e-15)
(0.00434523 -1.48691e-11 6.92674e-16)
(0.00434523 -1.09831e-11 7.52622e-16)
(0.00434523 -6.33241e-12 9.79822e-16)
(0.00434523 -1.66714e-12 7.63423e-16)
(0.00434523 3.0452e-12 9.073e-16)
(0.00434523 7.84794e-12 7.52164e-16)
(0.00434522 1.22025e-11 7.80455e-16)
(0.00434522 1.57934e-11 1.02328e-15)
(0.00434522 1.85287e-11 7.75095e-16)
(0.00434521 2.05845e-11 1.02019e-15)
(0.00434521 2.26944e-11 7.54003e-16)
(0.00434521 2.48317e-11 7.87577e-16)
(0.0043452 2.59643e-11 1.00493e-15)
(0.0043452 2.59867e-11 7.80008e-16)
(0.00434519 2.55664e-11 9.81372e-16)
(0.00434519 2.49506e-11 7.60143e-16)
(0.00434518 2.44527e-11 7.96078e-16)
(0.00434518 2.39701e-11 9.59064e-16)
(0.00434517 2.28898e-11 7.97208e-16)
(0.00434517 2.12707e-11 9.4692e-16)
(0.00434516 1.9484e-11 7.4034e-16)
(0.00434516 1.73586e-11 5.32377e-16)
(0.00434516 1.53927e-11 6.94182e-16)
(0.00434515 1.35102e-11 7.87712e-16)
(0.00434515 1.25439e-11 5.89422e-16)
(0.00434515 1.01712e-11 6.69812e-16)
(0.00434515 8.02228e-12 4.98945e-16)
(0.00434514 3.16051e-12 6.94029e-16)
(0.00434514 -1.79269e-13 7.64822e-16)
(0.00434514 -1.19433e-12 5.57836e-16)
(0.00434514 -2.57819e-12 7.1025e-16)
(0.00434514 -1.51844e-12 5.78174e-16)
(0.00434514 -2.36566e-12 6.61179e-16)
(0.00434514 -3.35462e-12 7.48416e-16)
(0.00434514 -3.78796e-12 5.61012e-16)
(0.00434514 -5.25488e-12 6.55854e-16)
(0.00434514 -5.95202e-12 4.88828e-16)
(0.00434514 -8.35171e-12 6.605e-16)
(0.00434514 -7.87615e-12 7.53186e-16)
(0.00434515 -1.08998e-11 3.64752e-16)
(0.00434515 -6.04604e-12 6.53412e-16)
(0.00434515 -7.28398e-12 4.94224e-16)
(0.00434515 2.6224e-12 6.8508e-16)
(0.00434515 1.01218e-11 7.71702e-16)
(0.00434515 2.0334e-11 5.88758e-16)
(0.00434515 3.90163e-11 6.70044e-16)
(0.00434514 3.32424e-11 5.87505e-16)
(0.00434514 2.94793e-11 6.30001e-16)
(0.00434514 1.85995e-11 7.53323e-16)
(0.00434514 6.68078e-12 5.84101e-16)
(0.00434514 -4.21032e-12 6.62839e-16)
(0.00434514 -1.42833e-11 5.25782e-16)
(0.00434514 -2.15337e-11 5.30944e-16)
(0.00434514 -2.80375e-11 7.44792e-16)
(0.00434515 -3.09109e-11 5.81829e-16)
(0.00434515 -3.24416e-11 6.45755e-16)
(0.00434516 -3.21234e-11 5.66713e-16)
(0.00434516 -2.03662e-11 4.78537e-16)
(0.00434517 -2.045e-11 7.43849e-16)
(0.00434517 -2.34271e-11 5.48328e-16)
(0.00434517 6.98287e-11 6.59446e-16)
(0.0131156 3.36946e-10 2.30459e-15)
(0.0131156 -9.90813e-10 2.28535e-15)
(0.0131156 -1.71604e-09 2.29792e-15)
(0.0131157 -1.42683e-09 2.10638e-15)
(0.0131157 -6.68879e-10 1.65939e-15)
(0.0131157 1.20888e-10 2.04601e-15)
(0.0131157 7.55006e-10 1.45472e-15)
(0.0131157 1.19294e-09 2.05995e-15)
(0.0131156 1.45047e-09 2.20781e-15)
(0.0131156 1.56226e-09 1.56846e-15)
(0.0131155 1.56773e-09 2.14139e-15)
(0.0131155 1.49837e-09 2.15461e-15)
(0.0131154 1.37828e-09 2.16216e-15)
(0.0131154 1.22892e-09 2.09123e-15)
(0.0131154 1.06765e-09 2.00838e-15)
(0.0131154 9.0347e-10 2.14873e-15)
(0.0131153 7.37666e-10 2.09983e-15)
(0.0131153 5.74687e-10 2.10585e-15)
(0.0131153 4.2072e-10 2.04503e-15)
(0.0131153 2.74067e-10 1.93326e-15)
(0.0131153 1.31984e-10 2.11665e-15)
(0.0131153 -3.41548e-12 1.9761e-15)
(0.0131153 -1.28519e-10 2.02952e-15)
(0.0131153 -2.39243e-10 1.91005e-15)
(0.0131153 -3.34735e-10 1.7957e-15)
(0.0131153 -4.19217e-10 2.11646e-15)
(0.0131153 -4.97947e-10 2.01651e-15)
(0.0131153 -5.72873e-10 2.05119e-15)
(0.0131154 -6.40513e-10 1.94549e-15)
(0.0131154 -6.97194e-10 1.80935e-15)
(0.0131154 -7.45497e-10 2.04732e-15)
(0.0131154 -7.90683e-10 1.99666e-15)
(0.0131154 -8.33153e-10 2.03873e-15)
(0.0131155 -8.6974e-10 1.91536e-15)
(0.0131155 -8.94861e-10 1.77235e-15)
(0.0131155 -9.12203e-10 2.03568e-15)
(0.0131155 -9.23581e-10 1.97769e-15)
(0.0131156 -9.36525e-10 2.01495e-15)
(0.0131156 -9.28865e-10 1.88249e-15)
(0.0131156 -9.15373e-10 1.73772e-15)
(0.0131156 -8.51369e-10 1.85868e-15)
(0.0131157 -7.87291e-10 2.05108e-15)
(0.0131157 -6.376e-10 2.04723e-15)
(0.0131157 -4.55519e-10 2.0595e-15)
(0.0131157 -2.31266e-10 2.09343e-15)
(0.0131157 6.69103e-11 2.11536e-15)
(0.0131157 1.50074e-10 2.22547e-15)
(0.0131157 1.65196e-10 2.17e-15)
(0.0131157 1.24155e-10 2.14648e-15)
(0.0131157 9.05432e-12 2.15884e-15)
(0.0131157 -6.57292e-11 2.17088e-15)
(0.0131157 -1.34428e-10 2.24832e-15)
(0.0131157 -1.94976e-10 2.21353e-15)
(0.0131157 -2.40435e-10 2.32592e-15)
(0.0131157 -2.71563e-10 2.00839e-15)
(0.0131157 -2.84966e-10 2.25965e-15)
(0.0131158 -2.77626e-10 2.33662e-15)
(0.0131158 -2.5379e-10 2.26734e-15)
(0.0131158 -2.17095e-10 2.3813e-15)
(0.0131158 -1.64973e-10 1.94906e-15)
(0.0131158 -9.57532e-11 2.27773e-15)
(0.0131158 -1.56073e-11 2.35862e-15)
(0.0131158 6.6271e-11 2.30249e-15)
(0.0131158 1.47016e-10 2.36367e-15)
(0.0131158 2.25423e-10 2.30774e-15)
(0.0131158 2.96437e-10 2.36643e-15)
(0.0131157 3.55778e-10 2.42936e-15)
(0.0131157 4.01898e-10 2.33625e-15)
(0.0131157 4.37001e-10 2.42626e-15)
(0.0131157 4.68151e-10 2.29036e-15)
(0.0131157 4.96103e-10 2.38882e-15)
(0.0131157 5.12286e-10 2.43052e-15)
(0.0131157 5.14084e-10 2.35328e-15)
(0.0131156 5.06731e-10 2.39685e-15)
(0.0131156 4.94823e-10 2.33038e-15)
(0.0131156 4.82461e-10 2.41311e-15)
(0.0131156 4.69493e-10 2.48423e-15)
(0.0131156 4.50519e-10 2.40437e-15)
(0.0131156 4.24633e-10 2.46131e-15)
(0.0131156 3.94753e-10 2.09497e-15)
(0.0131156 3.61733e-10 2.21773e-15)
(0.0131155 3.28707e-10 2.09048e-15)
(0.0131155 2.98841e-10 2.385e-15)
(0.0131155 2.74324e-10 2.16325e-15)
(0.0131155 2.4214e-10 1.81435e-15)
(0.0131155 2.02727e-10 2.10708e-15)
(0.0131155 1.41162e-10 2.1433e-15)
(0.0131155 8.73051e-11 2.31836e-15)
(0.0131155 5.50864e-11 2.0864e-15)
(0.0131155 3.30843e-11 1.98029e-15)
(0.0131155 3.05844e-11 2.12742e-15)
(0.0131155 2.09027e-11 1.89954e-15)
(0.0131155 7.22717e-12 2.26641e-15)
(0.0131155 -5.86756e-12 2.07825e-15)
(0.0131155 -2.59295e-11 2.05565e-15)
(0.0131155 -4.95497e-11 2.04935e-15)
(0.0131155 -8.17335e-11 2.08977e-15)
(0.0131155 -1.06813e-10 2.27775e-15)
(0.0131155 -1.40167e-10 2.00772e-15)
(0.0131155 -1.32976e-10 1.86909e-15)
(0.0131155 -1.37283e-10 2.07534e-15)
(0.0131155 -6.73002e-11 1.99425e-15)
(0.0131155 1.50571e-11 2.32998e-15)
(0.0131155 1.42744e-10 2.13252e-15)
(0.0131155 3.17506e-10 2.10399e-15)
(0.0131155 3.30046e-10 2.12049e-15)
(0.0131155 2.83914e-10 2.03434e-15)
(0.0131155 1.73804e-10 2.27637e-15)
(0.0131155 3.14555e-11 2.11466e-15)
(0.0131155 -1.11727e-10 2.04976e-15)
(0.0131155 -2.44318e-10 2.04081e-15)
(0.0131155 -3.51742e-10 2.01205e-15)
(0.0131155 -4.39276e-10 2.25835e-15)
(0.0131155 -4.90769e-10 2.12037e-15)
(0.0131155 -5.21216e-10 2.07214e-15)
(0.0131156 -5.13905e-10 2.0892e-15)
(0.0131156 -4.00879e-10 2.03058e-15)
(0.0131156 -4.19563e-10 2.25529e-15)
(0.0131156 -2.42711e-10 2.09035e-15)
(0.0131156 5.10774e-10 2.08288e-15)
(0.0220628 1.54831e-10 3.90929e-15)
(0.0220628 -3.22759e-09 3.83994e-15)
(0.0220629 -4.81751e-09 3.86604e-15)
(0.022063 -3.79286e-09 3.51063e-15)
(0.022063 -1.57462e-09 3.27053e-15)
(0.022063 6.74189e-10 3.49287e-15)
(0.022063 2.4588e-09 3.17911e-15)
(0.0220629 3.67912e-09 3.54393e-15)
(0.0220629 4.38645e-09 3.70603e-15)
(0.0220628 4.6809e-09 3.39691e-15)
(0.0220627 4.67274e-09 3.66614e-15)
(0.0220626 4.45174e-09 3.62194e-15)
(0.0220626 4.08668e-09 3.64361e-15)
(0.0220625 3.63761e-09 3.51713e-15)
(0.0220624 3.15369e-09 3.35569e-15)
(0.0220624 2.66206e-09 3.64667e-15)
(0.0220624 2.16899e-09 3.53363e-15)
(0.0220623 1.68572e-09 3.54551e-15)
(0.0220623 1.2276e-09 3.43186e-15)
(0.0220623 7.92279e-10 3.26997e-15)
(0.0220623 3.73488e-10 3.59731e-15)
(0.0220623 -2.44124e-11 3.33474e-15)
(0.0220623 -3.91962e-10 3.43254e-15)
(0.0220623 -7.18371e-10 3.20071e-15)
(0.0220623 -1.00127e-09 3.00715e-15)
(0.0220623 -1.25164e-09 3.57971e-15)
(0.0220623 -1.48318e-09 3.38321e-15)
(0.0220624 -1.70161e-09 3.45817e-15)
(0.0220624 -1.89916e-09 3.28287e-15)
(0.0220624 -2.06652e-09 3.06046e-15)
(0.0220625 -2.20908e-09 3.49053e-15)
(0.0220625 -2.3398e-09 3.33401e-15)
(0.0220625 -2.46136e-09 3.43816e-15)
(0.0220626 -2.56571e-09 3.19899e-15)
(0.0220626 -2.64008e-09 2.98341e-15)
(0.0220627 -2.69107e-09 3.44423e-15)
(0.0220627 -2.7267e-09 3.31286e-15)
(0.0220628 -2.76068e-09 3.40016e-15)
(0.0220628 -2.74732e-09 3.13228e-15)
(0.0220628 -2.70761e-09 2.90549e-15)
(0.0220629 -2.54851e-09 3.14696e-15)
(0.0220629 -2.36756e-09 3.27435e-15)
(0.022063 -1.97718e-09 3.44225e-15)
(0.022063 -1.48713e-09 3.4696e-15)
(0.022063 -8.69989e-10 3.5314e-15)
(0.022063 -8.15806e-11 3.56925e-15)
(0.022063 2.20321e-10 3.55344e-15)
(0.022063 3.06734e-10 3.64363e-15)
(0.022063 2.27752e-10 3.61534e-15)
(0.022063 -4.2671e-11 3.64141e-15)
(0.022063 -2.43563e-10 3.66066e-15)
(0.022063 -4.23367e-10 3.64527e-15)
(0.022063 -5.81179e-10 3.72592e-15)
(0.022063 -6.99682e-10 3.72664e-15)
(0.0220631 -7.77431e-10 3.91299e-15)
(0.0220631 -8.05017e-10 3.83274e-15)
(0.0220631 -7.74047e-10 3.75027e-15)
(0.0220631 -6.94441e-10 3.8122e-15)
(0.0220631 -5.76473e-10 3.81071e-15)
(0.0220631 -4.15552e-10 3.90803e-15)
(0.0220631 -2.08322e-10 3.85462e-15)
(0.0220631 2.88722e-11 3.80944e-15)
(0.0220631 2.71209e-10 3.87139e-15)
(0.0220631 5.08766e-10 3.83171e-15)
(0.0220631 7.37029e-10 4.11497e-15)
(0.0220631 9.43052e-10 4.00528e-15)
(0.0220631 1.11552e-09 3.88862e-15)
(0.022063 1.25001e-09 3.92631e-15)
(0.022063 1.35236e-09 3.89122e-15)
(0.022063 1.44034e-09 4.14699e-15)
(0.022063 1.51665e-09 4.0436e-15)
(0.0220629 1.56108e-09 3.92899e-15)
(0.0220629 1.56615e-09 3.95827e-15)
(0.0220629 1.54417e-09 3.89945e-15)
(0.0220629 1.50774e-09 4.17997e-15)
(0.0220628 1.46849e-09 4.08681e-15)
(0.0220628 1.42701e-09 4.00278e-15)
(0.0220628 1.37028e-09 4.04034e-15)
(0.0220628 1.2949e-09 3.9911e-15)
(0.0220628 1.20762e-09 4.31269e-15)
(0.0220627 1.11215e-09 3.90435e-15)
(0.0220627 1.01621e-09 4.41632e-15)
(0.0220627 9.2867e-10 4.05052e-15)
(0.0220627 8.53539e-10 3.76653e-15)
(0.0220627 7.61295e-10 4.24111e-15)
(0.0220627 6.46749e-10 3.72316e-15)
(0.0220627 4.76873e-10 3.9666e-15)
(0.0220626 3.21414e-10 3.93014e-15)
(0.0220626 2.19964e-10 3.66188e-15)
(0.0220626 1.5251e-10 3.94561e-15)
(0.0220626 1.35452e-10 3.72455e-15)
(0.0220626 1.0725e-10 3.99913e-15)
(0.0220626 6.85817e-11 3.84149e-15)
(0.0220626 2.7981e-11 3.63413e-15)
(0.0220626 -3.08564e-11 3.92926e-15)
(0.0220626 -1.04794e-10 3.60175e-15)
(0.0220626 -2.00747e-10 3.84415e-15)
(0.0220626 -2.87993e-10 3.85983e-15)
(0.0220626 -3.89222e-10 3.58742e-15)
(0.0220626 -4.02283e-10 3.94563e-15)
(0.0220626 -4.25457e-10 3.63839e-15)
(0.0220627 -2.73235e-10 4.0762e-15)
(0.0220627 -6.96346e-11 3.94122e-15)
(0.0220627 2.59614e-10 3.69097e-15)
(0.0220627 7.02067e-10 4.05789e-15)
(0.0220626 7.77724e-10 3.69641e-15)
(0.0220626 6.71575e-10 3.79589e-15)
(0.0220626 3.93825e-10 3.86454e-15)
(0.0220626 2.07307e-11 3.66287e-15)
(0.0220626 -3.66137e-10 3.98605e-15)
(0.0220626 -7.28044e-10 3.63689e-15)
(0.0220627 -1.02701e-09 3.55631e-15)
(0.0220627 -1.26911e-09 3.82716e-15)
(0.0220627 -1.41857e-09 3.6893e-15)
(0.0220627 -1.50825e-09 3.85411e-15)
(0.0220627 -1.49287e-09 3.67781e-15)
(0.0220628 -1.21286e-09 3.56543e-15)
(0.0220628 -1.25367e-09 3.82241e-15)
(0.0220628 -6.74333e-10 3.68199e-15)
(0.0220628 1.04159e-09 4.01902e-15)
(0.0311422 -1.08682e-09 5.52775e-15)
(0.0311423 -7.12162e-09 5.41369e-15)
(0.0311424 -9.31563e-09 5.45475e-15)
(0.0311424 -6.87863e-09 4.94649e-15)
(0.0311425 -2.43028e-09 4.92089e-15)
(0.0311425 1.94438e-09 5.00601e-15)
(0.0311424 5.37179e-09 4.91779e-15)
(0.0311423 7.69093e-09 5.11623e-15)
(0.0311422 9.01335e-09 5.23749e-15)
(0.0311421 9.53666e-09 5.08871e-15)
(0.031142 9.47323e-09 5.2765e-15)
(0.0311419 8.99676e-09 5.09994e-15)
(0.0311418 8.24148e-09 5.15515e-15)
(0.0311418 7.32278e-09 4.94792e-15)
(0.0311417 6.3357e-09 4.65802e-15)
(0.0311416 5.33524e-09 5.12315e-15)
(0.0311416 4.33705e-09 4.97617e-15)
(0.0311415 3.36097e-09 5.00949e-15)
(0.0311415 2.43394e-09 4.80788e-15)
(0.0311415 1.55466e-09 4.50711e-15)
(0.0311415 7.12921e-10 5.06119e-15)
(0.0311415 -8.44935e-11 4.54577e-15)
(0.0311415 -8.20583e-10 4.8913e-15)
(0.0311415 -1.47556e-09 4.46622e-15)
(0.0311415 -2.04542e-09 4.15684e-15)
(0.0311415 -2.5501e-09 5.22103e-15)
(0.0311416 -3.01462e-09 4.84105e-15)
(0.0311416 -3.44983e-09 4.90301e-15)
(0.0311416 -3.84353e-09 4.6623e-15)
(0.0311417 -4.17942e-09 4.18968e-15)
(0.0311417 -4.46555e-09 5.10581e-15)
(0.0311418 -4.7245e-09 4.44556e-15)
(0.0311418 -4.96286e-09 4.86932e-15)
(0.0311419 -5.16693e-09 4.43497e-15)
(0.0311419 -5.31541e-09 4.25934e-15)
(0.031142 -5.41785e-09 4.90181e-15)
(0.0311421 -5.49127e-09 4.72463e-15)
(0.0311421 -5.55534e-09 4.82206e-15)
(0.0311422 -5.53841e-09 4.53239e-15)
(0.0311422 -5.46229e-09 4.02727e-15)
(0.0311423 -5.18028e-09 4.50389e-15)
(0.0311423 -4.83454e-09 4.54749e-15)
(0.0311424 -4.12055e-09 4.88427e-15)
(0.0311424 -3.20575e-09 4.89746e-15)
(0.0311425 -2.03936e-09 5.00517e-15)
(0.0311425 -5.7845e-10 5.05512e-15)
(0.0311425 8.63717e-11 4.9037e-15)
(0.0311425 3.24897e-10 5.15481e-15)
(0.0311425 2.32751e-10 5.09951e-15)
(0.0311425 -2.11996e-10 5.15855e-15)
(0.0311425 -5.75221e-10 5.17996e-15)
(0.0311425 -9.00551e-10 5.06465e-15)
(0.0311425 -1.18402e-09 5.28065e-15)
(0.0311426 -1.39557e-09 5.1752e-15)
(0.0311426 -1.52798e-09 5.44654e-15)
(0.0311426 -1.56246e-09 5.38628e-15)
(0.0311426 -1.48299e-09 5.18584e-15)
(0.0311426 -1.3063e-09 5.39579e-15)
(0.0311426 -1.05217e-09 5.27138e-15)
(0.0311426 -7.15453e-10 5.40352e-15)
(0.0311426 -2.92116e-10 5.43185e-15)
(0.0311426 1.87266e-10 5.28001e-15)
(0.0311426 6.76021e-10 5.4807e-15)
(0.0311426 1.15255e-09 5.32252e-15)
(0.0311426 1.60661e-09 5.69139e-15)
(0.0311426 2.01473e-09 5.61866e-15)
(0.0311425 2.35631e-09 5.37518e-15)
(0.0311425 2.6232e-09 5.55506e-15)
(0.0311425 2.82615e-09 5.39121e-15)
(0.0311425 2.99655e-09 5.72445e-15)
(0.0311424 3.14018e-09 5.68797e-15)
(0.0311424 3.22298e-09 5.44339e-15)
(0.0311423 3.23137e-09 5.60564e-15)
(0.0311423 3.18588e-09 5.42287e-15)
(0.0311423 3.11021e-09 5.79588e-15)
(0.0311422 3.02692e-09 5.74181e-15)
(0.0311422 2.93845e-09 5.53705e-15)
(0.0311422 2.82233e-09 5.71365e-15)
(0.0311421 2.67131e-09 5.55009e-15)
(0.0311421 2.49698e-09 5.76042e-15)
(0.0311421 2.30773e-09 5.59068e-15)
(0.0311421 2.11726e-09 5.78399e-15)
(0.031142 1.94194e-09 5.70723e-15)
(0.031142 1.78757e-09 5.37448e-15)
(0.031142 1.60455e-09 5.50137e-15)
(0.031142 1.37694e-09 5.32389e-15)
(0.031142 1.05089e-09 5.55938e-15)
(0.031142 7.44407e-10 5.5553e-15)
(0.0311419 5.33461e-10 5.24512e-15)
(0.0311419 3.93391e-10 5.43279e-15)
(0.0311419 3.46367e-10 5.30554e-15)
(0.0311419 2.88696e-10 5.3634e-15)
(0.0311419 2.12681e-10 5.42545e-15)
(0.0311419 1.28407e-10 5.203e-15)
(0.0311419 8.7588e-12 5.23761e-15)
(0.0311419 -1.46201e-10 5.15298e-15)
(0.0311419 -3.43974e-10 5.40026e-15)
(0.0311419 -5.373e-10 5.44715e-15)
(0.0311419 -7.51084e-10 5.15227e-15)
(0.0311419 -8.23148e-10 5.25201e-15)
(0.031142 -8.93662e-10 5.19708e-15)
(0.031142 -6.6331e-10 5.46773e-15)
(0.031142 -3.16719e-10 5.53524e-15)
(0.031142 2.69482e-10 5.24954e-15)
(0.031142 1.05672e-09 5.45523e-15)
(0.031142 1.24521e-09 5.25901e-15)
(0.031142 1.07904e-09 5.37665e-15)
(0.031142 5.8998e-10 5.46862e-15)
(0.031142 -8.78796e-11 5.21792e-15)
(0.031142 -8.0788e-10 5.31412e-15)
(0.031142 -1.48825e-09 5.20516e-15)
(0.031142 -2.0575e-09 5.13141e-15)
(0.031142 -2.5179e-09 5.4642e-15)
(0.031142 -2.81104e-09 5.26833e-15)
(0.0311421 -2.98914e-09 5.44744e-15)
(0.0311421 -2.96752e-09 5.2539e-15)
(0.0311421 -2.4773e-09 5.1384e-15)
(0.0311422 -2.54332e-09 5.46025e-15)
(0.0311422 -1.28668e-09 5.26659e-15)
(0.0311422 1.39667e-09 5.3884e-15)
(0.0401878 -4.15465e-09 7.14352e-15)
(0.0401879 -1.2888e-08 6.97122e-15)
(0.0401881 -1.48163e-08 7.02875e-15)
(0.0401881 -1.01053e-08 6.72482e-15)
(0.0401882 -2.74933e-09 6.64082e-15)
(0.0401881 4.25354e-09 6.65919e-15)
(0.0401881 9.66839e-09 6.60297e-15)
(0.040188 1.3293e-08 6.73975e-15)
(0.0401878 1.53221e-08 6.67381e-15)
(0.0401877 1.6076e-08 6.7667e-15)
(0.0401876 1.58915e-08 6.92699e-15)
(0.0401875 1.50454e-08 6.53512e-15)
(0.0401873 1.37529e-08 6.68257e-15)
(0.0401872 1.21983e-08 6.32322e-15)
(0.0401871 1.05335e-08 6.25518e-15)
(0.0401871 8.85021e-09 6.71187e-15)
(0.040187 7.17724e-09 6.34256e-15)
(0.040187 5.54451e-09 6.48287e-15)
(0.0401869 3.99179e-09 6.106e-15)
(0.0401869 2.5206e-09 6.09962e-15)
(0.0401869 1.11813e-09 6.63165e-15)
(0.0401869 -2.06692e-10 6.35181e-15)
(0.0401869 -1.42864e-09 6.41401e-15)
(0.0401869 -2.51768e-09 6.33391e-15)
(0.0401869 -3.4687e-09 5.99749e-15)
(0.040187 -4.31242e-09 6.67574e-15)
(0.040187 -5.0861e-09 6.54907e-15)
(0.040187 -5.80673e-09 6.39935e-15)
(0.0401871 -6.45836e-09 6.35359e-15)
(0.0401871 -7.01747e-09 6.02182e-15)
(0.0401872 -7.49386e-09 6.56041e-15)
(0.0401873 -7.92059e-09 6.43974e-15)
(0.0401873 -8.30954e-09 6.34678e-15)
(0.0401874 -8.64183e-09 6.25273e-15)
(0.0401875 -8.8872e-09 5.92481e-15)
(0.0401875 -9.05864e-09 6.49409e-15)
(0.0401876 -9.18343e-09 6.39484e-15)
(0.0401877 -9.2868e-09 6.28201e-15)
(0.0401878 -9.26971e-09 6.16495e-15)
(0.0401878 -9.15195e-09 5.82476e-15)
(0.0401879 -8.73048e-09 5.97141e-15)
(0.040188 -8.18631e-09 6.19359e-15)
(0.040188 -7.09251e-09 6.40127e-15)
(0.0401881 -5.66925e-09 6.29131e-15)
(0.0401882 -3.83991e-09 6.49987e-15)
(0.0401882 -1.5706e-09 6.5424e-15)
(0.0401882 -4.0664e-10 6.59557e-15)
(0.0401882 8.55218e-11 6.72453e-15)
(0.0401882 3.46414e-11 6.54567e-15)
(0.0401882 -5.6656e-10 6.69253e-15)
(0.0401882 -1.09962e-09 6.69655e-15)
(0.0401882 -1.58464e-09 6.82371e-15)
(0.0401883 -2.00428e-09 6.88693e-15)
(0.0401883 -2.31364e-09 6.95384e-15)
(0.0401883 -2.49555e-09 7.05316e-15)
(0.0401883 -2.51825e-09 6.90231e-15)
(0.0401883 -2.35618e-09 6.93006e-15)
(0.0401883 -2.03363e-09 7.02431e-15)
(0.0401884 -1.5824e-09 7.05694e-15)
(0.0401884 -9.98854e-10 7.07139e-15)
(0.0401884 -2.8063e-10 6.97744e-15)
(0.0401884 5.2374e-10 7.10408e-15)
(0.0401883 1.34056e-09 7.14159e-15)
(0.0401883 2.13273e-09 7.14953e-15)
(0.0401883 2.88163e-09 6.9714e-15)
(0.0401883 3.55165e-09 7.19536e-15)
(0.0401882 4.11172e-09 7.18601e-15)
(0.0401882 4.55e-09 7.23029e-15)
(0.0401882 4.883e-09 7.21821e-15)
(0.0401881 5.1573e-09 7.37e-15)
(0.0401881 5.38194e-09 7.28982e-15)
(0.040188 5.5089e-09 7.26823e-15)
(0.040188 5.51848e-09 7.30291e-15)
(0.0401879 5.44004e-09 7.28165e-15)
(0.0401879 5.31021e-09 7.42934e-15)
(0.0401879 5.16507e-09 7.35904e-15)
(0.0401878 5.01013e-09 7.4093e-15)
(0.0401878 4.81269e-09 7.43135e-15)
(0.0401877 4.56091e-09 7.4191e-15)
(0.0401877 4.27179e-09 7.29807e-15)
(0.0401877 3.96014e-09 7.60878e-15)
(0.0401876 3.64645e-09 7.24678e-15)
(0.0401876 3.35522e-09 7.33708e-15)
(0.0401876 3.09369e-09 7.27375e-15)
(0.0401875 2.79003e-09 7.06377e-15)
(0.0401875 2.41377e-09 7.25961e-15)
(0.0401875 1.8896e-09 7.04711e-15)
(0.0401875 1.38857e-09 7.17098e-15)
(0.0401875 1.03023e-09 7.13655e-15)
(0.0401875 7.90035e-10 7.03488e-15)
(0.0401875 6.95044e-10 7.21263e-15)
(0.0401874 5.95317e-10 6.83011e-15)
(0.0401874 4.69477e-10 7.00299e-15)
(0.0401874 3.24449e-10 7.08316e-15)
(0.0401874 1.2001e-10 6.62698e-15)
(0.0401874 -1.48967e-10 7.05666e-15)
(0.0401874 -4.90178e-10 7.01521e-15)
(0.0401874 -8.37957e-10 7.02487e-15)
(0.0401874 -1.21596e-09 7.01278e-15)
(0.0401875 -1.39806e-09 6.70369e-15)
(0.0401875 -1.55937e-09 7.09731e-15)
(0.0401875 -1.27971e-09 7.0431e-15)
(0.0401875 -7.96572e-10 7.11008e-15)
(0.0401875 6.68443e-11 7.10112e-15)
(0.0401875 1.23909e-09 7.0509e-15)
(0.0401875 1.58308e-09 7.12532e-15)
(0.0401875 1.37544e-09 7.01829e-15)
(0.0401875 6.61389e-10 7.06478e-15)
(0.0401875 -3.60273e-10 7.0851e-15)
(0.0401875 -1.47011e-09 6.79874e-15)
(0.0401875 -2.53069e-09 7.09306e-15)
(0.0401876 -3.42736e-09 7.07585e-15)
(0.0401876 -4.15385e-09 7.16975e-15)
(0.0401876 -4.6283e-09 7.15163e-15)
(0.0401877 -4.92066e-09 7.0685e-15)
(0.0401877 -4.89836e-09 7.13937e-15)
(0.0401877 -4.17763e-09 7.0839e-15)
(0.0401878 -4.27709e-09 7.17017e-15)
(0.0401878 -2.01419e-09 7.15845e-15)
(0.0401878 1.1773e-09 7.00647e-15)
(0.0488649 -9.5686e-09 8.74544e-15)
(0.0488651 -2.01621e-08 8.30801e-15)
(0.0488652 -2.05352e-08 8.55769e-15)
(0.0488653 -1.27607e-08 8.4053e-15)
(0.0488653 -2.11011e-09 8.33714e-15)
(0.0488652 7.73307e-09 8.24946e-15)
(0.0488651 1.52653e-08 8.25667e-15)
(0.048865 2.02658e-08 8.3382e-15)
(0.0488649 2.30197e-08 8.38536e-15)
(0.0488647 2.3977e-08 8.38703e-15)
(0.0488646 2.36066e-08 8.53315e-15)
(0.0488644 2.22956e-08 8.16633e-15)
(0.0488643 2.03489e-08 8.2085e-15)
(0.0488642 1.8027e-08 7.89449e-15)
(0.0488641 1.55469e-08 7.77797e-15)
(0.048864 1.30426e-08 8.24233e-15)
(0.048864 1.05594e-08 7.88472e-15)
(0.0488639 8.13751e-09 7.94034e-15)
(0.0488639 5.83065e-09 7.54276e-15)
(0.0488638 3.64571e-09 7.56647e-15)
(0.0488638 1.5691e-09 7.84412e-15)
(0.0488638 -3.87994e-10 7.86191e-15)
(0.0488638 -2.19219e-09 7.9267e-15)
(0.0488638 -3.80312e-09 7.75127e-15)
(0.0488639 -5.21582e-09 7.64239e-15)
(0.0488639 -6.47276e-09 7.98307e-15)
(0.048864 -7.62256e-09 7.8568e-15)
(0.048864 -8.68825e-09 7.80987e-15)
(0.0488641 -9.65174e-09 7.67244e-15)
(0.0488641 -1.04823e-08 7.59746e-15)
(0.0488642 -1.11905e-08 7.85558e-15)
(0.0488643 -1.18204e-08 7.73822e-15)
(0.0488643 -1.23899e-08 7.73242e-15)
(0.0488644 -1.28756e-08 7.60468e-15)
(0.0488645 -1.32389e-08 7.52964e-15)
(0.0488646 -1.34975e-08 7.80898e-15)
(0.0488647 -1.36886e-08 7.65513e-15)
(0.0488647 -1.38421e-08 7.65399e-15)
(0.0488648 -1.38309e-08 7.53012e-15)
(0.0488649 -1.36725e-08 7.43085e-15)
(0.048865 -1.31067e-08 7.45658e-15)
(0.0488651 -1.23466e-08 7.73518e-15)
(0.0488652 -1.08427e-08 7.90713e-15)
(0.0488652 -8.86222e-09 8.03177e-15)
(0.0488653 -6.30008e-09 7.9917e-15)
(0.0488653 -3.13287e-09 7.9814e-15)
(0.0488653 -1.35502e-09 8.15477e-15)
(0.0488654 -5.02092e-10 8.25851e-15)
(0.0488654 -4.36123e-10 8.17406e-15)
(0.0488654 -1.14679e-09 8.21664e-15)
(0.0488654 -1.82976e-09 8.16037e-15)
(0.0488654 -2.46704e-09 8.4065e-15)
(0.0488654 -3.01608e-09 8.45005e-15)
(0.0488654 -3.41417e-09 8.59883e-15)
(0.0488655 -3.62964e-09 8.60079e-15)
(0.0488655 -3.61395e-09 8.37452e-15)
(0.0488655 -3.33086e-09 8.82757e-15)
(0.0488655 -2.81316e-09 8.60002e-15)
(0.0488655 -2.1065e-09 8.72218e-15)
(0.0488655 -1.21089e-09 8.66026e-15)
(0.0488655 -1.28374e-10 8.47906e-15)
(0.0488655 1.07081e-09 8.8436e-15)
(0.0488655 2.28261e-09 8.76136e-15)
(0.0488655 3.45186e-09 8.97634e-15)
(0.0488655 4.54999e-09 8.88226e-15)
(0.0488654 5.5279e-09 8.7022e-15)
(0.0488654 6.34457e-09 8.84725e-15)
(0.0488653 6.98489e-09 8.86369e-15)
(0.0488653 7.47168e-09 9.21744e-15)
(0.0488652 7.86655e-09 8.98672e-15)
(0.0488652 8.18123e-09 8.81499e-15)
(0.0488651 8.35476e-09 9.09823e-15)
(0.0488651 8.36292e-09 8.94818e-15)
(0.048865 8.24392e-09 9.28852e-15)
(0.048865 8.04793e-09 9.06967e-15)
(0.0488649 7.82624e-09 8.89234e-15)
(0.0488649 7.58818e-09 9.07272e-15)
(0.0488648 7.29047e-09 9.10365e-15)
(0.0488648 6.91678e-09 9.32239e-15)
(0.0488647 6.49069e-09 9.10602e-15)
(0.0488647 6.03421e-09 9.49371e-15)
(0.0488647 5.5748e-09 8.88586e-15)
(0.0488646 5.14439e-09 8.91032e-15)
(0.0488646 4.75141e-09 9.06228e-15)
(0.0488646 4.30036e-09 8.64651e-15)
(0.0488645 3.74441e-09 9.09539e-15)
(0.0488645 2.98847e-09 8.66261e-15)
(0.0488645 2.25902e-09 8.74767e-15)
(0.0488645 1.72237e-09 8.93252e-15)
(0.0488645 1.35779e-09 8.56577e-15)
(0.0488645 1.19653e-09 9.15239e-15)
(0.0488645 1.04103e-09 8.55998e-15)
(0.0488644 8.5191e-10 8.57496e-15)
(0.0488644 6.28071e-10 8.88938e-15)
(0.0488644 3.13418e-10 8.34447e-15)
(0.0488644 -1.03377e-10 9.12981e-15)
(0.0488644 -6.29792e-10 8.44456e-15)
(0.0488644 -1.18034e-09 8.58624e-15)
(0.0488644 -1.7755e-09 8.77247e-15)
(0.0488645 -2.1233e-09 8.38467e-15)
(0.0488645 -2.42628e-09 9.03915e-15)
(0.0488645 -2.14064e-09 8.59441e-15)
(0.0488645 -1.5473e-09 8.65944e-15)
(0.0488645 -4.13104e-10 8.85299e-15)
(0.0488645 1.15577e-09 8.59217e-15)
(0.0488645 1.68814e-09 9.07304e-15)
(0.0488645 1.47119e-09 8.57538e-15)
(0.0488645 5.4718e-10 8.63397e-15)
(0.0488645 -8.22666e-10 8.87998e-15)
(0.0488645 -2.3445e-09 8.49227e-15)
(0.0488646 -3.81657e-09 9.04427e-15)
(0.0488646 -5.07362e-09 8.94152e-15)
(0.0488646 -6.0972e-09 8.84024e-15)
(0.0488647 -6.78213e-09 8.93283e-15)
(0.0488647 -7.21226e-09 8.62216e-15)
(0.0488648 -7.19905e-09 8.97217e-15)
(0.0488648 -6.24762e-09 8.94825e-15)
(0.0488648 -6.39713e-09 8.84798e-15)
(0.0488649 -2.77873e-09 8.95388e-15)
(0.0488649 -9.16776e-11 8.57812e-15)
(0.0567983 -1.70042e-08 1.02861e-14)
(0.0567985 -2.79184e-08 1.00398e-14)
(0.0567986 -2.55062e-08 1.00303e-14)
(0.0567986 -1.42656e-08 9.98372e-15)
(0.0567986 -3.66574e-10 9.87893e-15)
(0.0567985 1.21698e-08 9.80071e-15)
(0.0567984 2.17039e-08 9.78631e-15)
(0.0567983 2.80105e-08 9.83571e-15)
(0.0567982 3.14481e-08 9.87009e-15)
(0.056798 3.25802e-08 9.88193e-15)
(0.0567979 3.19942e-08 1.00167e-14)
(0.0567977 3.01803e-08 9.32627e-15)
(0.0567976 2.75315e-08 9.64721e-15)
(0.0567975 2.43861e-08 9.15307e-15)
(0.0567974 2.10281e-08 9.19693e-15)
(0.0567973 1.76362e-08 9.83492e-15)
(0.0567972 1.42734e-08 9.25708e-15)
(0.0567972 1.09907e-08 9.29726e-15)
(0.0567971 7.85611e-09 8.77949e-15)
(0.0567971 4.88511e-09 8.9504e-15)
(0.0567971 2.06591e-09 9.05914e-15)
(0.0567971 -5.87672e-10 9.27435e-15)
(0.0567971 -3.03433e-09 9.3265e-15)
(0.0567971 -5.22409e-09 8.94272e-15)
(0.0567971 -7.1544e-09 9.15761e-15)
(0.0567972 -8.87904e-09 9.25729e-15)
(0.0567972 -1.04547e-08 9.05495e-15)
(0.0567973 -1.19097e-08 9.09502e-15)
(0.0567973 -1.32259e-08 8.90688e-15)
(0.0567974 -1.43652e-08 9.05627e-15)
(0.0567975 -1.53382e-08 9.12708e-15)
(0.0567975 -1.62006e-08 8.91625e-15)
(0.0567976 -1.69767e-08 9.00451e-15)
(0.0567977 -1.76377e-08 8.80829e-15)
(0.0567978 -1.81389e-08 9.01876e-15)
(0.0567979 -1.85039e-08 9.08677e-15)
(0.056798 -1.87788e-08 8.82945e-15)
(0.0567981 -1.89962e-08 8.91026e-15)
(0.0567981 -1.90016e-08 8.75325e-15)
(0.0567982 -1.88112e-08 8.89776e-15)
(0.0567983 -1.81094e-08 8.86252e-15)
(0.0567984 -1.71336e-08 9.2544e-15)
(0.0567985 -1.52163e-08 9.28071e-15)
(0.0567986 -1.26669e-08 9.3162e-15)
(0.0567986 -9.34827e-09 9.36549e-15)
(0.0567987 -5.24208e-09 9.31881e-15)
(0.0567987 -2.76946e-09 9.65969e-15)
(0.0567987 -1.46146e-09 9.64259e-15)
(0.0567988 -1.19625e-09 9.61613e-15)
(0.0567988 -1.95062e-09 9.60561e-15)
(0.0567988 -2.74102e-09 9.51805e-15)
(0.0567988 -3.50249e-09 9.92841e-15)
(0.0567988 -4.15849e-09 9.83738e-15)
(0.0567988 -4.62471e-09 1.01333e-14)
(0.0567989 -4.8503e-09 1.0079e-14)
(0.0567989 -4.76678e-09 9.68464e-15)
(0.0567989 -4.32715e-09 1.00706e-14)
(0.0567989 -3.5743e-09 1.00228e-14)
(0.0567989 -2.56851e-09 1.0271e-14)
(0.0567989 -1.31487e-09 1.01833e-14)
(0.0567989 1.77581e-10 9.82527e-15)
(0.0567989 1.81394e-09 1.02789e-14)
(0.0567989 3.45883e-09 1.01875e-14)
(0.0567989 5.0394e-09 1.04305e-14)
(0.0567988 6.51602e-09 1.03789e-14)
(0.0567988 7.82633e-09 1.00543e-14)
(0.0567988 8.92068e-09 1.04346e-14)
(0.0567987 9.78153e-09 1.03359e-14)
(0.0567987 1.04377e-08 1.05337e-14)
(0.0567986 1.09639e-08 1.04955e-14)
(0.0567986 1.13734e-08 1.01684e-14)
(0.0567985 1.15942e-08 1.05437e-14)
(0.0567984 1.16003e-08 1.04382e-14)
(0.0567984 1.14384e-08 1.06369e-14)
(0.0567983 1.11714e-08 1.05872e-14)
(0.0567983 1.08661e-08 1.02621e-14)
(0.0567982 1.05355e-08 1.06834e-14)
(0.0567982 1.01258e-08 1.05784e-14)
(0.0567981 9.61777e-09 1.0804e-14)
(0.0567981 9.04295e-09 1.06517e-14)
(0.056798 8.43023e-09 1.10335e-14)
(0.056798 7.81266e-09 1.06199e-14)
(0.056798 7.22839e-09 1.04404e-14)
(0.0567979 6.68665e-09 1.068e-14)
(0.0567979 6.06836e-09 1.03368e-14)
(0.0567979 5.31052e-09 1.05619e-14)