/*--------------------------------*- C++ -*----------------------------------*\
  =========                 |
  \\      /  F ield         | OpenFOAM: The Open Source CFD Toolbox
   \\    /   O peration     | Website:  https://openfoam.org
    \\  /    A nd           | Version:  7
     \\/     M anipulation  |
\*---------------------------------------------------------------------------*/
FoamFile
{
    version     2.0;
    format      ascii;
    class       volScalarField;
    location    "3000";
    object      k;
}
// * * * * * * * * * * * * * * * * * * * * * * * * * * * * * * * * * * * * * //

dimensions      [0 2 -2 0 0 0 0];

internalField   nonuniform List<scalar> 
4026
(
0.000162997
0.000162995
0.000162995
0.000162995
0.000162995
0.000162995
0.000162995
0.000162995
0.000162995
0.000162996
0.000162996
0.000162997
0.000162997
0.000162998
0.000162998
0.000162999
0.000163
0.000163
0.000163001
0.000163002
0.000163003
0.000163003
0.000163004
0.000163005
0.000163006
0.000163007
0.000163007
0.000163008
0.000163009
0.00016301
0.000163011
0.000163011
0.000163012
0.000163013
0.000163013
0.000163014
0.000163015
0.000163015
0.000163016
0.000163016
0.000163017
0.000163017
0.000163018
0.000163018
0.000163019
0.000163003
0.000163002
0.000163001
0.000163001
0.000163001
0.000163001
0.000163001
0.000163001
0.000163001
0.000163001
0.000163001
0.000163002
0.000163002
0.000163002
0.000163002
0.000163004
0.000162216
0.000162214
0.000162213
0.000162213
0.000162214
0.000162214
0.000162214
0.000162214
0.000162215
0.000162215
0.000162216
0.000162216
0.000162217
0.000162217
0.000162218
0.000162219
0.000162219
0.00016222
0.000162221
0.000162221
0.000162222
0.000162223
0.000162224
0.000162224
0.000162225
0.000162226
0.000162227
0.000162228
0.000162228
0.000162229
0.00016223
0.000162231
0.000162231
0.000162232
0.000162232
0.000162233
0.000162234
0.000162234
0.000162235
0.000162235
0.000162236
0.000162236
0.000162237
0.000162237
0.000162238
0.000162221
0.000162219
0.000162219
0.000162219
0.000162219
0.000162219
0.000162219
0.00016222
0.00016222
0.00016222
0.00016222
0.00016222
0.00016222
0.000162221
0.000162221
0.000162222
0.000161345
0.000161344
0.000161343
0.000161344
0.000161344
0.000161344
0.000161344
0.000161345
0.000161345
0.000161346
0.000161346
0.000161347
0.000161347
0.000161348
0.000161349
0.000161349
0.00016135
0.000161351
0.000161351
0.000161352
0.000161353
0.000161354
0.000161354
0.000161355
0.000161356
0.000161357
0.000161358
0.000161358
0.000161359
0.00016136
0.00016136
0.000161361
0.000161362
0.000161362
0.000161363
0.000161363
0.000161364
0.000161365
0.000161365
0.000161366
0.000161366
0.000161366
0.000161367
0.000161367
0.000161369
0.00016135
0.000161349
0.000161349
0.000161349
0.000161349
0.000161349
0.000161349
0.000161349
0.000161349
0.00016135
0.00016135
0.00016135
0.00016135
0.000161351
0.000161351
0.000161352
0.00016039
0.000160389
0.000160389
0.000160389
0.000160389
0.00016039
0.00016039
0.000160391
0.000160391
0.000160392
0.000160392
0.000160393
0.000160393
0.000160394
0.000160395
0.000160395
0.000160396
0.000160397
0.000160398
0.000160398
0.000160399
0.0001604
0.0001604
0.000160401
0.000160402
0.000160403
0.000160403
0.000160404
0.000160405
0.000160406
0.000160406
0.000160407
0.000160407
0.000160408
0.000160409
0.000160409
0.00016041
0.00016041
0.000160411
0.000160411
0.000160412
0.000160412
0.000160412
0.000160412
0.000160414
0.000160396
0.000160394
0.000160394
0.000160394
0.000160394
0.000160394
0.000160394
0.000160394
0.000160394
0.000160395
0.000160395
0.000160395
0.000160395
0.000160396
0.000160396
0.000160397
0.000159354
0.000159353
0.000159353
0.000159353
0.000159353
0.000159354
0.000159354
0.000159355
0.000159355
0.000159356
0.000159357
0.000159357
0.000159358
0.000159359
0.000159359
0.00015936
0.000159361
0.000159361
0.000159362
0.000159363
0.000159364
0.000159364
0.000159365
0.000159366
0.000159367
0.000159367
0.000159368
0.000159369
0.000159369
0.00015937
0.000159371
0.000159371
0.000159372
0.000159372
0.000159373
0.000159373
0.000159374
0.000159374
0.000159375
0.000159375
0.000159376
0.000159376
0.000159376
0.000159377
0.000159378
0.00015936
0.000159358
0.000159357
0.000159357
0.000159357
0.000159358
0.000159358
0.000159358
0.000159358
0.000159358
0.000159359
0.000159359
0.000159359
0.00015936
0.00015936
0.000159361
0.00015824
0.000158238
0.000158238
0.000158239
0.000158239
0.00015824
0.00015824
0.000158241
0.000158242
0.000158242
0.000158243
0.000158244
0.000158245
0.000158245
0.000158246
0.000158247
0.000158247
0.000158248
0.000158249
0.00015825
0.00015825
0.000158251
0.000158252
0.000158252
0.000158253
0.000158254
0.000158254
0.000158255
0.000158256
0.000158256
0.000158257
0.000158258
0.000158258
0.000158259
0.000158259
0.00015826
0.00015826
0.000158261
0.000158261
0.000158261
0.000158262
0.000158262
0.000158262
0.000158263
0.000158264
0.000158246
0.000158244
0.000158243
0.000158243
0.000158243
0.000158243
0.000158243
0.000158244
0.000158244
0.000158244
0.000158244
0.000158245
0.000158245
0.000158245
0.000158246
0.000158247
0.00015705
0.000157049
0.000157049
0.00015705
0.00015705
0.000157051
0.000157051
0.000157052
0.000157053
0.000157054
0.000157054
0.000157055
0.000157056
0.000157057
0.000157057
0.000157058
0.000157059
0.00015706
0.00015706
0.000157061
0.000157062
0.000157062
0.000157063
0.000157064
0.000157064
0.000157065
0.000157066
0.000157066
0.000157067
0.000157068
0.000157068
0.000157069
0.000157069
0.00015707
0.00015707
0.000157071
0.000157071
0.000157072
0.000157072
0.000157072
0.000157073
0.000157073
0.000157073
0.000157073
0.000157075
0.000157057
0.000157054
0.000157054
0.000157054
0.000157054
0.000157054
0.000157054
0.000157054
0.000157055
0.000157055
0.000157055
0.000157055
0.000157056
0.000157056
0.000157056
0.000157058
0.000155788
0.000155787
0.000155787
0.000155788
0.000155789
0.000155789
0.00015579
0.000155791
0.000155792
0.000155792
0.000155793
0.000155794
0.000155795
0.000155796
0.000155796
0.000155797
0.000155798
0.000155799
0.000155799
0.0001558
0.000155801
0.000155801
0.000155802
0.000155803
0.000155804
0.000155804
0.000155805
0.000155805
0.000155806
0.000155807
0.000155807
0.000155808
0.000155808
0.000155809
0.000155809
0.000155809
0.00015581
0.00015581
0.000155811
0.000155811
0.000155811
0.000155812
0.000155812
0.000155812
0.000155813
0.000155795
0.000155793
0.000155793
0.000155792
0.000155792
0.000155792
0.000155793
0.000155793
0.000155793
0.000155793
0.000155794
0.000155794
0.000155794
0.000155795
0.000155795
0.000155796
0.000154457
0.000154456
0.000154456
0.000154457
0.000154458
0.000154458
0.000154459
0.00015446
0.000154461
0.000154462
0.000154462
0.000154463
0.000154464
0.000154465
0.000154466
0.000154467
0.000154467
0.000154468
0.000154469
0.000154469
0.00015447
0.000154471
0.000154472
0.000154472
0.000154473
0.000154474
0.000154474
0.000154475
0.000154475
0.000154476
0.000154476
0.000154477
0.000154477
0.000154478
0.000154478
0.000154479
0.000154479
0.000154479
0.00015448
0.00015448
0.00015448
0.000154481
0.000154481
0.000154481
0.000154482
0.000154464
0.000154462
0.000154462
0.000154461
0.000154461
0.000154461
0.000154461
0.000154462
0.000154462
0.000154462
0.000154463
0.000154463
0.000154463
0.000154464
0.000154464
0.000154465
0.000153059
0.000153058
0.000153058
0.000153059
0.000153059
0.00015306
0.000153061
0.000153062
0.000153063
0.000153064
0.000153065
0.000153066
0.000153066
0.000153067
0.000153068
0.000153069
0.00015307
0.00015307
0.000153071
0.000153072
0.000153072
0.000153073
0.000153074
0.000153075
0.000153075
0.000153076
0.000153076
0.000153077
0.000153078
0.000153078
0.000153079
0.000153079
0.00015308
0.00015308
0.00015308
0.000153081
0.000153081
0.000153081
0.000153082
0.000153082
0.000153082
0.000153083
0.000153083
0.000153083
0.000153084
0.000153066
0.000153064
0.000153064
0.000153063
0.000153063
0.000153063
0.000153063
0.000153064
0.000153064
0.000153064
0.000153064
0.000153065
0.000153065
0.000153065
0.000153066
0.000153067
0.000151596
0.000151595
0.000151595
0.000151596
0.000151597
0.000151598
0.000151599
0.0001516
0.000151601
0.000151601
0.000151602
0.000151603
0.000151604
0.000151605
0.000151606
0.000151607
0.000151608
0.000151608
0.000151609
0.00015161
0.00015161
0.000151611
0.000151612
0.000151612
0.000151613
0.000151614
0.000151614
0.000151615
0.000151615
0.000151616
0.000151616
0.000151617
0.000151617
0.000151618
0.000151618
0.000151618
0.000151619
0.000151619
0.000151619
0.00015162
0.00015162
0.00015162
0.00015162
0.00015162
0.000151622
0.000151604
0.000151602
0.000151601
0.000151601
0.000151601
0.000151601
0.000151601
0.000151601
0.000151601
0.000151602
0.000151602
0.000151602
0.000151603
0.000151603
0.000151603
0.000151605
0.000150072
0.00015007
0.000150071
0.000150072
0.000150073
0.000150073
0.000150074
0.000150075
0.000150076
0.000150077
0.000150078
0.000150079
0.00015008
0.000150081
0.000150082
0.000150083
0.000150084
0.000150084
0.000150085
0.000150086
0.000150086
0.000150087
0.000150088
0.000150088
0.000150089
0.00015009
0.00015009
0.000150091
0.000150091
0.000150092
0.000150092
0.000150093
0.000150093
0.000150093
0.000150094
0.000150094
0.000150094
0.000150095
0.000150095
0.000150095
0.000150096
0.000150096
0.000150096
0.000150096
0.000150097
0.00015008
0.000150077
0.000150077
0.000150077
0.000150077
0.000150077
0.000150077
0.000150077
0.000150077
0.000150078
0.000150078
0.000150078
0.000150078
0.000150079
0.000150079
0.000150081
0.000148488
0.000148487
0.000148487
0.000148488
0.000148489
0.00014849
0.000148491
0.000148492
0.000148493
0.000148494
0.000148495
0.000148496
0.000148497
0.000148498
0.000148499
0.0001485
0.0001485
0.000148501
0.000148502
0.000148502
0.000148503
0.000148504
0.000148504
0.000148505
0.000148506
0.000148506
0.000148507
0.000148508
0.000148508
0.000148509
0.000148509
0.000148509
0.00014851
0.00014851
0.00014851
0.000148511
0.000148511
0.000148511
0.000148512
0.000148512
0.000148512
0.000148512
0.000148512
0.000148512
0.000148514
0.000148496
0.000148494
0.000148494
0.000148494
0.000148494
0.000148494
0.000148494
0.000148494
0.000148494
0.000148494
0.000148495
0.000148495
0.000148495
0.000148495
0.000148496
0.000148497
0.000146848
0.000146847
0.000146847
0.000146848
0.000146849
0.00014685
0.000146851
0.000146852
0.000146853
0.000146854
0.000146855
0.000146856
0.000146857
0.000146858
0.000146859
0.00014686
0.000146861
0.000146861
0.000146862
0.000146863
0.000146863
0.000146864
0.000146865
0.000146865
0.000146866
0.000146867
0.000146867
0.000146868
0.000146868
0.000146869
0.000146869
0.00014687
0.00014687
0.00014687
0.000146871
0.000146871
0.000146871
0.000146871
0.000146872
0.000146872
0.000146872
0.000146872
0.000146872
0.000146872
0.000146874
0.000146857
0.000146854
0.000146854
0.000146854
0.000146854
0.000146854
0.000146854
0.000146854
0.000146854
0.000146855
0.000146855
0.000146855
0.000146855
0.000146856
0.000146856
0.000146857
0.000145154
0.000145153
0.000145153
0.000145154
0.000145155
0.000145156
0.000145157
0.000145158
0.000145159
0.000145161
0.000145162
0.000145163
0.000145164
0.000145165
0.000145166
0.000145166
0.000145167
0.000145168
0.000145169
0.000145169
0.00014517
0.000145171
0.000145171
0.000145172
0.000145173
0.000145173
0.000145174
0.000145174
0.000145175
0.000145175
0.000145176
0.000145176
0.000145176
0.000145177
0.000145177
0.000145177
0.000145178
0.000145178
0.000145178
0.000145178
0.000145178
0.000145179
0.000145179
0.000145179
0.00014518
0.000145163
0.000145161
0.00014516
0.00014516
0.00014516
0.00014516
0.000145161
0.000145161
0.000145161
0.000145161
0.000145161
0.000145162
0.000145162
0.000145162
0.000145162
0.000145164
0.00014341
0.000143409
0.000143409
0.00014341
0.000143411
0.000143412
0.000143413
0.000143414
0.000143415
0.000143416
0.000143417
0.000143418
0.000143419
0.00014342
0.000143421
0.000143422
0.000143423
0.000143424
0.000143424
0.000143425
0.000143426
0.000143426
0.000143427
0.000143428
0.000143428
0.000143429
0.00014343
0.00014343
0.000143431
0.000143431
0.000143432
0.000143432
0.000143432
0.000143433
0.000143433
0.000143433
0.000143433
0.000143434
0.000143434
0.000143434
0.000143434
0.000143434
0.000143434
0.000143434
0.000143436
0.000143419
0.000143416
0.000143416
0.000143416
0.000143416
0.000143416
0.000143416
0.000143417
0.000143417
0.000143417
0.000143417
0.000143418
0.000143418
0.000143418
0.000143418
0.00014342
0.000141618
0.000141616
0.000141617
0.000141618
0.000141619
0.00014162
0.000141621
0.000141622
0.000141623
0.000141624
0.000141625
0.000141626
0.000141627
0.000141628
0.000141629
0.00014163
0.000141631
0.000141632
0.000141633
0.000141633
0.000141634
0.000141634
0.000141635
0.000141636
0.000141636
0.000141637
0.000141638
0.000141638
0.000141639
0.000141639
0.00014164
0.00014164
0.00014164
0.00014164
0.000141641
0.000141641
0.000141641
0.000141641
0.000141642
0.000141642
0.000141642
0.000141642
0.000141642
0.000141642
0.000141644
0.000141627
0.000141625
0.000141624
0.000141624
0.000141624
0.000141625
0.000141625
0.000141625
0.000141625
0.000141625
0.000141626
0.000141626
0.000141626
0.000141627
0.000141627
0.000141628
0.000139781
0.00013978
0.00013978
0.000139781
0.000139782
0.000139783
0.000139784
0.000139785
0.000139787
0.000139788
0.000139789
0.00013979
0.000139791
0.000139792
0.000139793
0.000139794
0.000139794
0.000139795
0.000139796
0.000139797
0.000139797
0.000139798
0.000139799
0.000139799
0.0001398
0.0001398
0.000139801
0.000139801
0.000139802
0.000139802
0.000139803
0.000139803
0.000139804
0.000139804
0.000139804
0.000139804
0.000139805
0.000139805
0.000139805
0.000139805
0.000139805
0.000139805
0.000139806
0.000139805
0.000139807
0.00013979
0.000139788
0.000139788
0.000139788
0.000139788
0.000139788
0.000139788
0.000139788
0.000139789
0.000139789
0.000139789
0.00013979
0.00013979
0.00013979
0.00013979
0.000139792
0.000137903
0.000137902
0.000137902
0.000137903
0.000137904
0.000137905
0.000137906
0.000137907
0.000137909
0.00013791
0.000137911
0.000137912
0.000137913
0.000137914
0.000137915
0.000137916
0.000137917
0.000137917
0.000137918
0.000137919
0.000137919
0.00013792
0.000137921
0.000137921
0.000137922
0.000137922
0.000137923
0.000137924
0.000137924
0.000137924
0.000137925
0.000137925
0.000137926
0.000137926
0.000137926
0.000137926
0.000137927
0.000137927
0.000137927
0.000137927
0.000137927
0.000137927
0.000137928
0.000137927
0.000137929
0.000137912
0.00013791
0.00013791
0.00013791
0.00013791
0.00013791
0.000137911
0.000137911
0.000137911
0.000137911
0.000137912
0.000137912
0.000137912
0.000137913
0.000137913
0.000137914
0.000135987
0.000135986
0.000135986
0.000135987
0.000135988
0.000135989
0.00013599
0.000135992
0.000135993
0.000135994
0.000135995
0.000135996
0.000135997
0.000135998
0.000135999
0.000136
0.000136001
0.000136001
0.000136002
0.000136003
0.000136003
0.000136004
0.000136005
0.000136005
0.000136006
0.000136006
0.000136007
0.000136008
0.000136008
0.000136009
0.000136009
0.000136009
0.00013601
0.00013601
0.00013601
0.00013601
0.000136011
0.000136011
0.000136011
0.000136011
0.000136011
0.000136011
0.000136012
0.000136011
0.000136013
0.000135997
0.000135994
0.000135994
0.000135994
0.000135994
0.000135995
0.000135995
0.000135995
0.000135995
0.000135996
0.000135996
0.000135996
0.000135997
0.000135997
0.000135997
0.000135999
0.000134037
0.000134035
0.000134036
0.000134037
0.000134038
0.000134039
0.00013404
0.000134041
0.000134042
0.000134043
0.000134044
0.000134045
0.000134046
0.000134047
0.000134048
0.000134049
0.00013405
0.000134051
0.000134052
0.000134052
0.000134053
0.000134054
0.000134054
0.000134055
0.000134055
0.000134056
0.000134057
0.000134057
0.000134058
0.000134058
0.000134058
0.000134059
0.000134059
0.000134059
0.00013406
0.00013406
0.00013406
0.00013406
0.00013406
0.000134061
0.000134061
0.000134061
0.000134061
0.000134061
0.000134062
0.000134046
0.000134044
0.000134044
0.000134044
0.000134044
0.000134044
0.000134045
0.000134045
0.000134045
0.000134046
0.000134046
0.000134046
0.000134047
0.000134047
0.000134047
0.000134049
0.000132056
0.000132054
0.000132055
0.000132056
0.000132057
0.000132058
0.000132059
0.00013206
0.000132061
0.000132062
0.000132063
0.000132064
0.000132065
0.000132066
0.000132067
0.000132068
0.000132069
0.00013207
0.00013207
0.000132071
0.000132072
0.000132072
0.000132073
0.000132073
0.000132074
0.000132075
0.000132075
0.000132076
0.000132076
0.000132077
0.000132077
0.000132078
0.000132078
0.000132078
0.000132078
0.000132079
0.000132079
0.000132079
0.000132079
0.000132079
0.00013208
0.00013208
0.00013208
0.00013208
0.000132081
0.000132065
0.000132063
0.000132063
0.000132063
0.000132063
0.000132063
0.000132064
0.000132064
0.000132064
0.000132065
0.000132065
0.000132065
0.000132066
0.000132066
0.000132066
0.000132068
0.000130048
0.000130046
0.000130046
0.000130047
0.000130048
0.000130049
0.00013005
0.000130051
0.000130052
0.000130054
0.000130055
0.000130056
0.000130057
0.000130058
0.000130059
0.00013006
0.00013006
0.000130061
0.000130062
0.000130062
0.000130063
0.000130064
0.000130064
0.000130065
0.000130065
0.000130066
0.000130067
0.000130067
0.000130068
0.000130068
0.000130069
0.000130069
0.000130069
0.00013007
0.00013007
0.00013007
0.00013007
0.000130071
0.000130071
0.000130071
0.000130071
0.000130071
0.000130071
0.000130071
0.000130073
0.000130057
0.000130054
0.000130054
0.000130055
0.000130055
0.000130055
0.000130056
0.000130056
0.000130056
0.000130057
0.000130057
0.000130057
0.000130058
0.000130058
0.000130058
0.00013006
0.000128016
0.000128014
0.000128014
0.000128016
0.000128017
0.000128018
0.000128018
0.00012802
0.000128021
0.000128022
0.000128023
0.000128024
0.000128025
0.000128026
0.000128027
0.000128028
0.000128028
0.000128029
0.00012803
0.000128031
0.000128031
0.000128032
0.000128032
0.000128033
0.000128034
0.000128034
0.000128035
0.000128035
0.000128036
0.000128036
0.000128037
0.000128037
0.000128037
0.000128038
0.000128038
0.000128038
0.000128038
0.000128039
0.000128039
0.000128039
0.000128039
0.000128039
0.000128039
0.000128039
0.000128041
0.000128025
0.000128023
0.000128023
0.000128023
0.000128023
0.000128024
0.000128024
0.000128024
0.000128025
0.000128025
0.000128025
0.000128026
0.000128026
0.000128026
0.000128026
0.000128028
0.000125964
0.000125963
0.000125963
0.000125964
0.000125965
0.000125966
0.000125967
0.000125968
0.000125969
0.00012597
0.000125971
0.000125972
0.000125973
0.000125974
0.000125975
0.000125976
0.000125977
0.000125978
0.000125978
0.000125979
0.00012598
0.00012598
0.000125981
0.000125981
0.000125982
0.000125983
0.000125983
0.000125984
0.000125984
0.000125985
0.000125985
0.000125985
0.000125986
0.000125986
0.000125986
0.000125987
0.000125987
0.000125987
0.000125987
0.000125987
0.000125988
0.000125988
0.000125988
0.000125988
0.000125989
0.000125974
0.000125971
0.000125971
0.000125972
0.000125972
0.000125972
0.000125973
0.000125973
0.000125973
0.000125974
0.000125974
0.000125975
0.000125975
0.000125975
0.000125975
0.000125977
0.000123897
0.000123895
0.000123896
0.000123897
0.000123898
0.000123899
0.0001239
0.000123901
0.000123902
0.000123903
0.000123904
0.000123905
0.000123906
0.000123907
0.000123908
0.000123909
0.00012391
0.00012391
0.000123911
0.000123912
0.000123912
0.000123913
0.000123913
0.000123914
0.000123915
0.000123915
0.000123916
0.000123916
0.000123917
0.000123917
0.000123918
0.000123918
0.000123919
0.000123919
0.000123919
0.000123919
0.00012392
0.00012392
0.00012392
0.00012392
0.00012392
0.000123921
0.000123921
0.000123921
0.000123922
0.000123907
0.000123904
0.000123904
0.000123905
0.000123905
0.000123905
0.000123906
0.000123906
0.000123906
0.000123907
0.000123907
0.000123908
0.000123908
0.000123908
0.000123909
0.00012391
0.000121818
0.000121816
0.000121817
0.000121818
0.000121819
0.00012182
0.000121821
0.000121822
0.000121823
0.000121824
0.000121825
0.000121826
0.000121827
0.000121828
0.000121829
0.000121829
0.00012183
0.000121831
0.000121832
0.000121832
0.000121833
0.000121834
0.000121834
0.000121835
0.000121835
0.000121836
0.000121837
0.000121837
0.000121838
0.000121838
0.000121839
0.000121839
0.000121839
0.00012184
0.00012184
0.00012184
0.00012184
0.000121841
0.000121841
0.000121841
0.000121841
0.000121841
0.000121842
0.000121842
0.000121843
0.000121828
0.000121825
0.000121825
0.000121826
0.000121826
0.000121827
0.000121827
0.000121827
0.000121828
0.000121828
0.000121829
0.000121829
0.000121829
0.00012183
0.00012183
0.000121831
0.000119731
0.000119729
0.00011973
0.000119731
0.000119732
0.000119733
0.000119733
0.000119734
0.000119735
0.000119736
0.000119737
0.000119738
0.000119739
0.00011974
0.000119741
0.000119742
0.000119743
0.000119744
0.000119745
0.000119745
0.000119746
0.000119746
0.000119747
0.000119748
0.000119748
0.000119749
0.000119749
0.00011975
0.00011975
0.000119751
0.000119751
0.000119752
0.000119752
0.000119753
0.000119753
0.000119753
0.000119753
0.000119754
0.000119754
0.000119754
0.000119754
0.000119754
0.000119755
0.000119755
0.000119756
0.000119741
0.000119739
0.000119738
0.000119739
0.000119739
0.00011974
0.00011974
0.00011974
0.000119741
0.000119741
0.000119742
0.000119742
0.000119742
0.000119743
0.000119743
0.000119745
0.00011764
0.000117638
0.000117638
0.000117639
0.00011764
0.000117641
0.000117642
0.000117643
0.000117644
0.000117645
0.000117646
0.000117647
0.000117648
0.000117649
0.00011765
0.000117651
0.000117652
0.000117652
0.000117653
0.000117654
0.000117654
0.000117655
0.000117656
0.000117656
0.000117657
0.000117657
0.000117658
0.000117658
0.000117659
0.000117659
0.00011766
0.00011766
0.000117661
0.000117661
0.000117661
0.000117662
0.000117662
0.000117662
0.000117662
0.000117663
0.000117663
0.000117663
0.000117663
0.000117663
0.000117665
0.00011765
0.000117647
0.000117647
0.000117648
0.000117648
0.000117649
0.000117649
0.000117649
0.00011765
0.00011765
0.000117651
0.000117651
0.000117652
0.000117652
0.000117652
0.000117654
0.000115548
0.000115546
0.000115547
0.000115548
0.000115549
0.000115549
0.00011555
0.000115551
0.000115552
0.000115553
0.000115554
0.000115555
0.000115556
0.000115557
0.000115558
0.000115559
0.00011556
0.000115561
0.000115561
0.000115562
0.000115563
0.000115563
0.000115564
0.000115564
0.000115565
0.000115565
0.000115566
0.000115567
0.000115567
0.000115568
0.000115568
0.000115569
0.000115569
0.000115569
0.00011557
0.00011557
0.00011557
0.000115571
0.000115571
0.000115571
0.000115571
0.000115571
0.000115572
0.000115572
0.000115573
0.000115559
0.000115556
0.000115556
0.000115556
0.000115557
0.000115557
0.000115558
0.000115558
0.000115558
0.000115559
0.000115559
0.00011556
0.00011556
0.000115561
0.000115561
0.000115562
0.00011346
0.000113458
0.000113458
0.000113459
0.00011346
0.000113461
0.000113462
0.000113463
0.000113464
0.000113465
0.000113466
0.000113467
0.000113468
0.000113469
0.00011347
0.00011347
0.000113471
0.000113472
0.000113473
0.000113473
0.000113474
0.000113475
0.000113475
0.000113476
0.000113476
0.000113477
0.000113478
0.000113478
0.000113479
0.000113479
0.00011348
0.00011348
0.000113481
0.000113481
0.000113481
0.000113482
0.000113482
0.000113482
0.000113482
0.000113483
0.000113483
0.000113483
0.000113483
0.000113483
0.000113485
0.000113471
0.000113468
0.000113468
0.000113468
0.000113469
0.000113469
0.000113469
0.00011347
0.00011347
0.000113471
0.000113471
0.000113472
0.000113472
0.000113472
0.000113473
0.000113474
0.000111379
0.000111376
0.000111377
0.000111378
0.000111379
0.00011138
0.00011138
0.000111381
0.000111382
0.000111383
0.000111384
0.000111385
0.000111386
0.000111387
0.000111388
0.000111389
0.00011139
0.00011139
0.000111391
0.000111392
0.000111392
0.000111393
0.000111394
0.000111394
0.000111395
0.000111395
0.000111396
0.000111397
0.000111397
0.000111398
0.000111398
0.000111399
0.000111399
0.000111399
0.0001114
0.0001114
0.0001114
0.000111401
0.000111401
0.000111401
0.000111401
0.000111402
0.000111402
0.000111402
0.000111403
0.000111389
0.000111387
0.000111386
0.000111387
0.000111387
0.000111388
0.000111388
0.000111389
0.000111389
0.00011139
0.00011139
0.000111391
0.000111391
0.000111391
0.000111392
0.000111393
0.000109308
0.000109305
0.000109306
0.000109307
0.000109308
0.000109309
0.000109309
0.00010931
0.000109311
0.000109312
0.000109313
0.000109314
0.000109315
0.000109316
0.000109317
0.000109318
0.000109318
0.000109319
0.00010932
0.000109321
0.000109321
0.000109322
0.000109323
0.000109323
0.000109324
0.000109324
0.000109325
0.000109325
0.000109326
0.000109327
0.000109327
0.000109328
0.000109328
0.000109328
0.000109329
0.000109329
0.000109329
0.00010933
0.00010933
0.00010933
0.000109331
0.000109331
0.000109331
0.000109331
0.000109332
0.000109319
0.000109316
0.000109316
0.000109316
0.000109317
0.000109317
0.000109318
0.000109318
0.000109318
0.000109319
0.000109319
0.00010932
0.00010932
0.000109321
0.000109321
0.000109322
0.000107251
0.000107248
0.000107249
0.00010725
0.00010725
0.000107251
0.000107252
0.000107253
0.000107254
0.000107255
0.000107256
0.000107257
0.000107258
0.000107259
0.00010726
0.00010726
0.000107261
0.000107262
0.000107263
0.000107263
0.000107264
0.000107265
0.000107265
0.000107266
0.000107266
0.000107267
0.000107268
0.000107268
0.000107269
0.000107269
0.00010727
0.00010727
0.000107271
0.000107271
0.000107272
0.000107272
0.000107272
0.000107273
0.000107273
0.000107273
0.000107274
0.000107274
0.000107274
0.000107274
0.000107275
0.000107262
0.000107259
0.000107259
0.000107259
0.00010726
0.00010726
0.000107261
0.000107261
0.000107262
0.000107262
0.000107263
0.000107263
0.000107263
0.000107264
0.000107264
0.000107265
0.000105211
0.000105208
0.000105209
0.00010521
0.00010521
0.000105211
0.000105212
0.000105213
0.000105214
0.000105215
0.000105216
0.000105217
0.000105218
0.000105219
0.000105219
0.00010522
0.000105221
0.000105222
0.000105223
0.000105223
0.000105224
0.000105225
0.000105225
0.000105226
0.000105226
0.000105227
0.000105228
0.000105228
0.000105229
0.000105229
0.00010523
0.00010523
0.000105231
0.000105231
0.000105232
0.000105232
0.000105232
0.000105233
0.000105233
0.000105233
0.000105234
0.000105234
0.000105234
0.000105234
0.000105235
0.000105222
0.000105219
0.000105219
0.00010522
0.00010522
0.000105221
0.000105221
0.000105222
0.000105222
0.000105222
0.000105223
0.000105223
0.000105224
0.000105224
0.000105225
0.000105226
0.000103191
0.000103189
0.000103189
0.00010319
0.000103191
0.000103192
0.000103192
0.000103193
0.000103194
0.000103195
0.000103196
0.000103197
0.000103198
0.000103199
0.0001032
0.000103201
0.000103201
0.000103202
0.000103203
0.000103204
0.000103204
0.000103205
0.000103205
0.000103206
0.000103207
0.000103207
0.000103208
0.000103208
0.000103209
0.00010321
0.00010321
0.000103211
0.000103211
0.000103212
0.000103212
0.000103212
0.000103213
0.000103213
0.000103213
0.000103214
0.000103214
0.000103214
0.000103215
0.000103215
0.000103216
0.000103203
0.0001032
0.0001032
0.0001032
0.000103201
0.000103201
0.000103202
0.000103202
0.000103203
0.000103203
0.000103204
0.000103204
0.000103204
0.000103205
0.000103205
0.000103206
0.000101195
0.000101192
0.000101193
0.000101193
0.000101194
0.000101195
0.000101196
0.000101197
0.000101198
0.000101199
0.0001012
0.000101201
0.000101201
0.000101202
0.000101203
0.000101204
0.000101205
0.000101206
0.000101206
0.000101207
0.000101208
0.000101208
0.000101209
0.00010121
0.00010121
0.000101211
0.000101211
0.000101212
0.000101213
0.000101213
0.000101214
0.000101214
0.000101215
0.000101215
0.000101216
0.000101216
0.000101216
0.000101217
0.000101217
0.000101217
0.000101218
0.000101218
0.000101218
0.000101219
0.00010122
0.000101207
0.000101204
0.000101204
0.000101204
0.000101205
0.000101205
0.000101206
0.000101206
0.000101207
0.000101207
0.000101207
0.000101208
0.000101208
0.000101209
0.000101209
0.00010121
9.92247e-05
9.92221e-05
9.92224e-05
9.92232e-05
9.92241e-05
9.92249e-05
9.92258e-05
9.92266e-05
9.92275e-05
9.92284e-05
9.92293e-05
9.92302e-05
9.92311e-05
9.9232e-05
9.92328e-05
9.92337e-05
9.92345e-05
9.92353e-05
9.9236e-05
9.92367e-05
9.92374e-05
9.9238e-05
9.92386e-05
9.92393e-05
9.92399e-05
9.92405e-05
9.92411e-05
9.92417e-05
9.92423e-05
9.92428e-05
9.92434e-05
9.9244e-05
9.92445e-05
9.9245e-05
9.92454e-05
9.92459e-05
9.92463e-05
9.92466e-05
9.9247e-05
9.92474e-05
9.92477e-05
9.9248e-05
9.92483e-05
9.92486e-05
9.92494e-05
9.92369e-05
9.92339e-05
9.92337e-05
9.92341e-05
9.92347e-05
9.92352e-05
9.92356e-05
9.92361e-05
9.92366e-05
9.92371e-05
9.92376e-05
9.92381e-05
9.92385e-05
9.9239e-05
9.92393e-05
9.92403e-05
9.72835e-05
9.72808e-05
9.7281e-05
9.72819e-05
9.72827e-05
9.72836e-05
9.72844e-05
9.72853e-05
9.72861e-05
9.7287e-05
9.72879e-05
9.72888e-05
9.72897e-05
9.72906e-05
9.72914e-05
9.72923e-05
9.72931e-05
9.72939e-05
9.72946e-05
9.72953e-05
9.7296e-05
9.72966e-05
9.72973e-05
9.72979e-05
9.72985e-05
9.72991e-05
9.72997e-05
9.73003e-05
9.73009e-05
9.73015e-05
9.73021e-05
9.73026e-05
9.73032e-05
9.73037e-05
9.73041e-05
9.73046e-05
9.7305e-05
9.73054e-05
9.73058e-05
9.73061e-05
9.73065e-05
9.73068e-05
9.73072e-05
9.73074e-05
9.73082e-05
9.72959e-05
9.72929e-05
9.72927e-05
9.72931e-05
9.72936e-05
9.72941e-05
9.72946e-05
9.72951e-05
9.72956e-05
9.72961e-05
9.72966e-05
9.72971e-05
9.72975e-05
9.7298e-05
9.72984e-05
9.72993e-05
9.53737e-05
9.5371e-05
9.53712e-05
9.5372e-05
9.53729e-05
9.53738e-05
9.53746e-05
9.53754e-05
9.53763e-05
9.53772e-05
9.53781e-05
9.53789e-05
9.53798e-05
9.53807e-05
9.53815e-05
9.53824e-05
9.53832e-05
9.5384e-05
9.53847e-05
9.53854e-05
9.53861e-05
9.53868e-05
9.53874e-05
9.5388e-05
9.53886e-05
9.53892e-05
9.53899e-05
9.53905e-05
9.53911e-05
9.53917e-05
9.53923e-05
9.53928e-05
9.53934e-05
9.53939e-05
9.53944e-05
9.53948e-05
9.53953e-05
9.53957e-05
9.53961e-05
9.53965e-05
9.53968e-05
9.53972e-05
9.53975e-05
9.53978e-05
9.53985e-05
9.53864e-05
9.53833e-05
9.53832e-05
9.53836e-05
9.53841e-05
9.53846e-05
9.53851e-05
9.53856e-05
9.53861e-05
9.53866e-05
9.53871e-05
9.53876e-05
9.5388e-05
9.53885e-05
9.53889e-05
9.53897e-05
9.3498e-05
9.34953e-05
9.34954e-05
9.34962e-05
9.34971e-05
9.3498e-05
9.34988e-05
9.34996e-05
9.35005e-05
9.35013e-05
9.35022e-05
9.35031e-05
9.35039e-05
9.35048e-05
9.35056e-05
9.35065e-05
9.35073e-05
9.35081e-05
9.35088e-05
9.35096e-05
9.35102e-05
9.35109e-05
9.35115e-05
9.35122e-05
9.35128e-05
9.35134e-05