/*--------------------------------*- C++ -*----------------------------------*\
  =========                 |
  \\      /  F ield         | OpenFOAM: The Open Source CFD Toolbox
   \\    /   O peration     | Website:  https://openfoam.org
    \\  /    A nd           | Version:  7
     \\/     M anipulation  |
\*---------------------------------------------------------------------------*/
FoamFile
{
    version     2.0;
    format      ascii;
    class       volVectorField;
    location    "3000";
    object      U;
}
// * * * * * * * * * * * * * * * * * * * * * * * * * * * * * * * * * * * * * //

dimensions      [0 1 -1 0 0 0 0];

internalField   nonuniform List<vector> 
4026
(
(0.118438 1.61181e-07 2.83284e-15)
(0.118438 1.78914e-07 2.86093e-15)
(0.118438 1.92627e-07 2.89322e-15)
(0.118438 1.9678e-07 2.82338e-15)
(0.118438 1.92351e-07 2.79266e-15)
(0.118438 1.8182e-07 2.83834e-15)
(0.118438 1.6674e-07 2.90728e-15)
(0.118438 1.4872e-07 2.95416e-15)
(0.118438 1.29095e-07 3.0428e-15)
(0.118438 1.08902e-07 3.11145e-15)
(0.118438 8.88942e-08 3.1611e-15)
(0.118438 6.9579e-08 3.16049e-15)
(0.118438 5.12699e-08 3.16575e-15)
(0.118438 3.41364e-08 3.16361e-15)
(0.118438 1.82519e-08 3.02653e-15)
(0.118438 3.63215e-09 3.1499e-15)
(0.118438 -9.74391e-09 3.16943e-15)
(0.118438 -2.19279e-08 3.17419e-15)
(0.118438 -3.29978e-08 3.16522e-15)
(0.118439 -4.30495e-08 2.97264e-15)
(0.118439 -5.21855e-08 3.21321e-15)
(0.118439 -6.05066e-08 2.96483e-15)
(0.118439 -6.81073e-08 3.05251e-15)
(0.118439 -7.50748e-08 3.13806e-15)
(0.118439 -8.14892e-08 2.91094e-15)
(0.118439 -8.74231e-08 3.06174e-15)
(0.118439 -9.29414e-08 3.08175e-15)
(0.118439 -9.8102e-08 3.08634e-15)
(0.118439 -1.02958e-07 3.08236e-15)
(0.118439 -1.07556e-07 2.83311e-15)
(0.118439 -1.11942e-07 3.0559e-15)
(0.118439 -1.16155e-07 3.04424e-15)
(0.118439 -1.20229e-07 3.02933e-15)
(0.118439 -1.24186e-07 3.00669e-15)
(0.118439 -1.2803e-07 2.75346e-15)
(0.118439 -1.31748e-07 3.00589e-15)
(0.118439 -1.35236e-07 2.98556e-15)
(0.118439 -1.3845e-07 2.93535e-15)
(0.118439 -1.40871e-07 2.95037e-15)
(0.118439 -1.42682e-07 2.70664e-15)
(0.118439 -1.41594e-07 2.78952e-15)
(0.118439 -1.39922e-07 2.7176e-15)
(0.118439 -1.27438e-07 2.78586e-15)
(0.118439 -1.16943e-07 2.80309e-15)
(0.118439 -7.14666e-08 2.78948e-15)
(0.118438 5.41156e-08 2.59188e-15)
(0.118438 6.62455e-08 2.6166e-15)
(0.118438 7.17496e-08 2.5991e-15)
(0.118438 7.07189e-08 2.61386e-15)
(0.118438 6.49505e-08 2.63815e-15)
(0.118438 5.69158e-08 2.62597e-15)
(0.118438 4.77578e-08 2.63217e-15)
(0.118438 3.85482e-08 2.64085e-15)
(0.118438 2.98309e-08 2.67756e-15)
(0.118438 2.29076e-08 2.71127e-15)
(0.118438 1.74267e-08 2.6952e-15)
(0.118438 1.72014e-08 2.69901e-15)
(0.118438 1.86872e-08 2.70803e-15)
(0.118438 3.49537e-08 2.75051e-15)
(0.118438 5.50653e-08 2.79006e-15)
(0.118438 1.05146e-07 2.76734e-15)
(0.119436 1.58587e-07 3.04746e-15)
(0.119436 1.76672e-07 3.07899e-15)
(0.119436 1.89777e-07 3.10229e-15)
(0.119436 1.93335e-07 3.01629e-15)
(0.119436 1.88504e-07 2.97199e-15)
(0.119436 1.77775e-07 3.01072e-15)
(0.119436 1.62661e-07 3.07836e-15)
(0.119436 1.44715e-07 3.1296e-15)
(0.119436 1.25226e-07 3.19763e-15)
(0.119437 1.05202e-07 3.25955e-15)
(0.119437 8.53757e-08 3.31155e-15)
(0.119437 6.62429e-08 3.32443e-15)
(0.119437 4.81112e-08 3.33099e-15)
(0.119437 3.11479e-08 3.33087e-15)
(0.119437 1.54269e-08 3.194e-15)
(0.119437 9.66035e-10 3.35623e-15)
(0.119437 -1.22536e-08 3.3539e-15)
(0.119437 -2.42813e-08 3.35101e-15)
(0.119437 -3.51933e-08 3.34615e-15)
(0.119437 -4.50842e-08 3.20007e-15)
(0.119437 -5.40571e-08 3.37744e-15)
(0.119437 -6.2214e-08 3.19299e-15)
(0.119437 -6.96511e-08 3.26799e-15)
(0.119437 -7.64575e-08 3.31085e-15)
(0.119437 -8.27146e-08 3.13735e-15)
(0.119437 -8.84956e-08 3.32224e-15)
(0.119437 -9.38659e-08 3.28695e-15)
(0.119437 -9.88838e-08 3.29574e-15)
(0.119437 -1.03602e-07 3.30054e-15)
(0.119437 -1.08071e-07 3.09786e-15)
(0.119437 -1.12334e-07 3.27261e-15)
(0.119437 -1.16434e-07 3.25032e-15)
(0.119437 -1.20407e-07 3.23891e-15)
(0.119437 -1.24277e-07 3.22485e-15)
(0.119437 -1.2805e-07 3.01022e-15)
(0.119437 -1.31717e-07 3.16843e-15)
(0.119437 -1.35178e-07 3.14757e-15)
(0.119437 -1.38385e-07 3.14255e-15)
(0.119437 -1.40838e-07 3.12412e-15)
(0.119437 -1.427e-07 2.9231e-15)
(0.119437 -1.41714e-07 3.03489e-15)
(0.119437 -1.40187e-07 2.89951e-15)
(0.119437 -1.27697e-07 3.02174e-15)
(0.119437 -1.17734e-07 3.06416e-15)
(0.119437 -7.03336e-08 3.0352e-15)
(0.119437 6.31293e-08 2.8265e-15)
(0.119437 7.49763e-08 2.84287e-15)
(0.119437 7.94093e-08 2.84148e-15)
(0.119436 7.73427e-08 2.84348e-15)
(0.119436 7.06727e-08 2.85973e-15)
(0.119436 6.18756e-08 2.86162e-15)
(0.119436 5.20644e-08 2.86434e-15)
(0.119436 4.22719e-08 2.87091e-15)
(0.119436 3.30284e-08 2.88435e-15)
(0.119436 2.55841e-08 2.91673e-15)
(0.119436 1.96338e-08 2.92494e-15)
(0.119436 1.8812e-08 2.93379e-15)
(0.119436 1.98325e-08 2.94291e-15)
(0.119436 3.51742e-08 2.96682e-15)
(0.119436 5.41249e-08 2.99771e-15)
(0.119436 1.02921e-07 2.99491e-15)
(0.120405 1.55663e-07 3.27897e-15)
(0.120405 1.74086e-07 3.30035e-15)
(0.120405 1.86613e-07 3.30354e-15)
(0.120405 1.89567e-07 3.15204e-15)
(0.120405 1.84301e-07 3.15183e-15)
(0.120405 1.73338e-07 3.20077e-15)
(0.120405 1.5817e-07 3.26797e-15)
(0.120405 1.40291e-07 3.31845e-15)
(0.120405 1.20945e-07 3.37274e-15)
(0.120405 1.01104e-07 3.42501e-15)
(0.120405 8.14782e-08 3.47509e-15)
(0.120405 6.25505e-08 3.49079e-15)
(0.120405 4.46207e-08 3.49867e-15)
(0.120405 2.78534e-08 3.49257e-15)
(0.120405 1.2323e-08 3.44127e-15)
(0.120405 -1.95093e-09 3.51987e-15)
(0.120405 -1.49853e-08 3.52877e-15)
(0.120405 -2.68277e-08 3.52795e-15)
(0.120405 -3.75529e-08 3.51841e-15)
(0.120406 -4.7255e-08 3.46449e-15)
(0.120406 -5.60374e-08 3.50098e-15)
(0.120406 -6.40033e-08 3.44468e-15)
(0.120406 -7.12507e-08 3.52192e-15)
(0.120406 -7.78703e-08 3.50559e-15)
(0.120406 -8.39447e-08 3.4515e-15)
(0.120406 -8.95476e-08 3.50328e-15)
(0.120406 -9.47449e-08 3.46514e-15)
(0.120406 -9.95951e-08 3.50328e-15)
(0.120406 -1.04152e-07 3.47711e-15)
(0.120406 -1.08466e-07 3.41497e-15)
(0.120406 -1.12583e-07 3.45209e-15)
(0.120406 -1.16548e-07 3.41117e-15)
(0.120406 -1.20398e-07 3.45678e-15)
(0.120406 -1.24159e-07 3.40341e-15)
(0.120406 -1.27843e-07 3.31259e-15)
(0.120406 -1.3144e-07 3.34289e-15)
(0.120406 -1.34858e-07 3.31016e-15)
(0.120406 -1.38047e-07 3.35425e-15)
(0.120406 -1.40523e-07 3.30604e-15)
(0.120406 -1.4243e-07 3.21763e-15)
(0.120406 -1.41561e-07 3.31987e-15)
(0.120406 -1.4018e-07 3.235e-15)
(0.120406 -1.27805e-07 3.29584e-15)
(0.120406 -1.18345e-07 3.29865e-15)
(0.120406 -7.02226e-08 3.28113e-15)
(0.120405 7.07888e-08 3.06161e-15)
(0.120405 8.35892e-08 3.07254e-15)
(0.120405 8.72748e-08 3.0832e-15)
(0.120405 8.41675e-08 3.07578e-15)
(0.120405 7.65495e-08 3.08433e-15)
(0.120405 6.69541e-08 3.09778e-15)
(0.120405 5.64689e-08 3.09925e-15)
(0.120405 4.60821e-08 3.10357e-15)
(0.120405 3.63056e-08 3.08467e-15)
(0.120405 2.83311e-08 3.12624e-15)
(0.120405 2.18995e-08 3.15569e-15)
(0.120405 2.04513e-08 3.16946e-15)
(0.120405 2.09661e-08 3.1773e-15)
(0.120405 3.52976e-08 3.19051e-15)
(0.120405 5.29151e-08 3.21075e-15)
(0.120405 1.00363e-07 3.22143e-15)
(0.121345 1.52488e-07 3.54449e-15)
(0.121345 1.71206e-07 3.52261e-15)
(0.121345 1.83094e-07 3.52188e-15)
(0.121345 1.85438e-07 3.43626e-15)
(0.121346 1.79732e-07 3.30398e-15)
(0.121346 1.68523e-07 3.41189e-15)
(0.121346 1.53287e-07 3.47492e-15)
(0.121346 1.35471e-07 3.51997e-15)
(0.121346 1.16272e-07 3.56315e-15)
(0.121346 9.66248e-08 3.60536e-15)
(0.121346 7.72175e-08 3.65128e-15)
(0.121346 5.85162e-08 3.66041e-15)
(0.121346 4.08124e-08 3.66894e-15)
(0.121346 2.42675e-08 3.65186e-15)
(0.121346 8.9555e-09 3.68481e-15)
(0.121346 -5.10299e-09 3.7129e-15)
(0.121346 -1.79235e-08 3.7022e-15)
(0.121346 -2.95524e-08 3.70415e-15)
(0.121346 -4.00633e-08 3.68476e-15)
(0.121346 -4.955e-08 3.72707e-15)
(0.121346 -5.8116e-08 3.64735e-15)
(0.121346 -6.58656e-08 3.68539e-15)
(0.121346 -7.28983e-08 3.83814e-15)
(0.121346 -7.93063e-08 3.68792e-15)
(0.121346 -8.51732e-08 3.74727e-15)
(0.121346 -9.05733e-08 3.69976e-15)
(0.121346 -9.5573e-08 3.63042e-15)
(0.121346 -1.00231e-07 3.70613e-15)
(0.121346 -1.04603e-07 3.64279e-15)
(0.121346 -1.08739e-07 3.71039e-15)
(0.121346 -1.12689e-07 3.64812e-15)
(0.121346 -1.16496e-07 3.56646e-15)
(0.121346 -1.20203e-07 3.68683e-15)
(0.121346 -1.23837e-07 3.57129e-15)
(0.121346 -1.27413e-07 3.60032e-15)
(0.121346 -1.30924e-07 3.53586e-15)
(0.121346 -1.34285e-07 3.468e-15)
(0.121346 -1.37441e-07 3.63066e-15)
(0.121346 -1.39933e-07 3.47559e-15)
(0.121346 -1.4188e-07 3.49629e-15)
(0.121346 -1.41145e-07 3.57419e-15)
(0.121346 -1.39913e-07 3.54895e-15)
(0.121346 -1.27782e-07 3.60679e-15)
(0.121346 -1.18815e-07 3.52969e-15)
(0.121346 -7.08302e-08 3.49953e-15)
(0.121346 7.70867e-08 3.29923e-15)
(0.121346 9.15431e-08 3.30368e-15)
(0.121346 9.49967e-08 3.32631e-15)
(0.121346 9.10424e-08 3.32182e-15)
(0.121346 8.25176e-08 3.31244e-15)
(0.121346 7.21198e-08 3.3379e-15)
(0.121345 6.09507e-08 3.33594e-15)
(0.121345 4.99616e-08 3.33788e-15)
(0.121345 3.96469e-08 3.28814e-15)
(0.121345 3.1134e-08 3.34075e-15)
(0.121345 2.42097e-08 3.39256e-15)
(0.121345 2.21065e-08 3.40582e-15)
(0.121345 2.20746e-08 3.4114e-15)
(0.121345 3.53132e-08 3.38144e-15)
(0.121345 5.1428e-08 3.42931e-15)
(0.121345 9.74854e-08 3.45062e-15)
(0.122259 1.49094e-07 3.74392e-15)
(0.122259 1.68058e-07 3.7334e-15)
(0.122259 1.79222e-07 3.72371e-15)
(0.122259 1.80927e-07 3.68586e-15)
(0.122259 1.74784e-07 3.62356e-15)
(0.122259 1.6333e-07 3.65355e-15)
(0.122259 1.48026e-07 3.69712e-15)
(0.122259 1.30275e-07 3.73262e-15)
(0.122259 1.11229e-07 3.7659e-15)
(0.122259 9.17882e-08 3.79833e-15)
(0.122259 7.26154e-08 3.83915e-15)
(0.122259 5.41605e-08 3.83214e-15)
(0.122259 3.67058e-08 3.84243e-15)
(0.122259 2.04083e-08 3.81103e-15)
(0.122259 5.34103e-09 3.94164e-15)
(0.122259 -8.47507e-09 3.91565e-15)
(0.122259 -2.10548e-08 3.87186e-15)
(0.122259 -3.24436e-08 3.88107e-15)
(0.12226 -4.27143e-08 3.84541e-15)
(0.12226 -5.19601e-08 3.94911e-15)
(0.12226 -6.02849e-08 3.87855e-15)
(0.12226 -6.77938e-08 3.94319e-15)
(0.12226 -7.45877e-08 4.00222e-15)
(0.12226 -8.07598e-08 3.93142e-15)
(0.12226 -8.63948e-08 4.06752e-15)
(0.12226 -9.1568e-08 3.9702e-15)
(0.12226 -9.63463e-08 3.87871e-15)
(0.12226 -1.00789e-07 3.92527e-15)
(0.12226 -1.04953e-07 3.87932e-15)
(0.12226 -1.0889e-07 4.06702e-15)
(0.12226 -1.1265e-07 3.91841e-15)
(0.12226 -1.1628e-07 3.81063e-15)
(0.12226 -1.19823e-07 3.86908e-15)
(0.12226 -1.23312e-07 3.80108e-15)
(0.12226 -1.26763e-07 3.91752e-15)
(0.12226 -1.30171e-07 3.80688e-15)
(0.12226 -1.33459e-07 3.71525e-15)
(0.12226 -1.36572e-07 3.7703e-15)
(0.12226 -1.39073e-07 3.70993e-15)
(0.12226 -1.41057e-07 3.77658e-15)
(0.12226 -1.40474e-07 3.84747e-15)
(0.12226 -1.39397e-07 3.82848e-15)
(0.12226 -1.27641e-07 3.83333e-15)
(0.12226 -1.19206e-07 3.74615e-15)
(0.12226 -7.18681e-08 3.72711e-15)
(0.122259 8.22333e-08 3.54161e-15)
(0.122259 9.85171e-08 3.53445e-15)
(0.122259 1.02183e-07 3.57384e-15)
(0.122259 9.76961e-08 3.56777e-15)
(0.122259 8.84135e-08 3.54405e-15)
(0.122259 7.72702e-08 3.58586e-15)
(0.122259 6.54385e-08 3.57271e-15)
(0.122259 5.38559e-08 3.57081e-15)
(0.122259 4.30075e-08 3.55665e-15)
(0.122259 3.39542e-08 3.57331e-15)
(0.122259 2.65301e-08 3.63796e-15)
(0.122259 2.37471e-08 3.64169e-15)
(0.122259 2.31286e-08 3.64563e-15)
(0.122259 3.51966e-08 3.66253e-15)
(0.122259 4.96425e-08 3.65133e-15)
(0.122259 9.42901e-08 3.68751e-15)
(0.123146 1.45483e-07 3.97651e-15)
(0.123146 1.6467e-07 3.9324e-15)
(0.123146 1.75021e-07 3.94045e-15)
(0.123146 1.76038e-07 3.92134e-15)
(0.123147 1.69448e-07 3.9048e-15)
(0.123147 1.57755e-07 3.91092e-15)
(0.123147 1.42391e-07 3.93113e-15)
(0.123147 1.24711e-07 3.95496e-15)
(0.123147 1.05829e-07 3.97858e-15)
(0.123147 8.66084e-08 4.00165e-15)
(0.123147 6.76871e-08 4.03704e-15)
(0.123147 4.94988e-08 4.00241e-15)
(0.123147 3.2316e-08 4.02054e-15)
(0.123147 1.62907e-08 3.97226e-15)
(0.123147 1.49419e-09 4.05614e-15)
(0.123147 -1.20531e-08 4.10592e-15)
(0.123147 -2.43658e-08 4.02758e-15)
(0.123147 -3.54888e-08 4.06176e-15)
(0.123147 -4.54941e-08 3.99642e-15)
(0.123147 -5.44747e-08 4.11739e-15)
(0.123147 -6.25344e-08 4.07717e-15)
(0.123147 -6.9779e-08 4.13463e-15)
(0.123147 -7.63104e-08 4.21375e-15)
(0.123147 -8.22233e-08 4.16041e-15)
(0.123147 -8.76032e-08 4.24311e-15)
(0.123147 -9.25262e-08 4.20203e-15)
(0.123147 -9.706e-08 4.11087e-15)
(0.123147 -1.01266e-07 4.1485e-15)
(0.123147 -1.052e-07 4.10567e-15)
(0.123147 -1.08916e-07 4.19804e-15)
(0.123147 -1.12466e-07 4.14857e-15)
(0.123147 -1.15899e-07 4.04002e-15)
(0.123147 -1.19262e-07 4.07009e-15)
(0.123147 -1.22586e-07 4.02222e-15)
(0.123147 -1.25895e-07 4.0919e-15)
(0.123147 -1.29184e-07 4.04297e-15)
(0.123147 -1.32387e-07 3.95014e-15)
(0.123147 -1.35444e-07 3.98387e-15)
(0.123147 -1.37949e-07 3.93428e-15)
(0.123147 -1.39968e-07 3.98435e-15)
(0.123147 -1.39558e-07 4.07028e-15)
(0.123147 -1.38647e-07 4.09889e-15)
(0.123147 -1.27389e-07 4.07759e-15)
(0.123147 -1.19582e-07 3.93965e-15)
(0.123147 -7.31626e-08 3.93432e-15)
(0.123147 8.65031e-08 3.79251e-15)
(0.123147 1.04467e-07 3.76119e-15)
(0.123147 1.08576e-07 3.83075e-15)
(0.123147 1.0386e-07 3.82372e-15)
(0.123147 9.40343e-08 3.77234e-15)
(0.123146 8.22637e-08 3.84663e-15)
(0.123146 6.9831e-08 3.80568e-15)
(0.123146 5.76881e-08 3.8052e-15)
(0.123146 4.63253e-08 3.8273e-15)
(0.123146 3.67401e-08 3.80362e-15)
(0.123146 2.88156e-08 3.89932e-15)
(0.123146 2.53337e-08 3.87351e-15)
(0.123146 2.40917e-08 3.8819e-15)
(0.123146 3.49167e-08 3.91238e-15)
(0.123146 4.7534e-08 3.87167e-15)
(0.123146 9.07586e-08 3.93523e-15)
(0.124009 1.41637e-07 4.22048e-15)
(0.124009 1.61048e-07 4.10463e-15)
(0.124009 1.70512e-07 4.147e-15)
(0.124009 1.70782e-07 4.16338e-15)
(0.124009 1.63729e-07 4.18691e-15)
(0.124009 1.51799e-07 4.1722e-15)
(0.124009 1.36384e-07 4.1722e-15)
(0.124009 1.18788e-07 4.18487e-15)
(0.124009 1.00083e-07 4.19895e-15)
(0.124009 8.10979e-08 4.21315e-15)
(0.124009 6.24466e-08 4.24269e-15)
(0.124009 4.45458e-08 4.12611e-15)
(0.124009 2.76578e-08 4.20692e-15)
(0.124009 1.19293e-08 4.12925e-15)
(0.124009 -2.57097e-09 4.20495e-15)
(0.124009 -1.58237e-08 4.30717e-15)
(0.12401 -2.78438e-08 4.20243e-15)
(0.12401 -3.86759e-08 4.25103e-15)
(0.12401 -4.83916e-08 4.13365e-15)
(0.12401 -5.70832e-08 4.26947e-15)
(0.12401 -6.48546e-08 4.27157e-15)
(0.12401 -7.18121e-08 4.34717e-15)
(0.12401 -7.80586e-08 4.44186e-15)
(0.12401 -8.36896e-08 4.37514e-15)
(0.12401 -8.87919e-08 4.4581e-15)
(0.12401 -9.34424e-08 4.41481e-15)
(0.12401 -9.77101e-08 4.32328e-15)
(0.12401 -1.01657e-07 4.3908e-15)
(0.12401 -1.0534e-07 4.32369e-15)
(0.12401 -1.08816e-07 4.40151e-15)
(0.12401 -1.12138e-07 4.3572e-15)
(0.12401 -1.15355e-07 4.24995e-15)
(0.12401 -1.18518e-07 4.28924e-15)
(0.12401 -1.21662e-07 4.23466e-15)
(0.12401 -1.24813e-07 4.30261e-15)
(0.12401 -1.27968e-07 4.26101e-15)
(0.12401 -1.31073e-07 4.16748e-15)
(0.12401 -1.34065e-07 4.21794e-15)
(0.12401 -1.36571e-07 4.15225e-15)
(0.12401 -1.38625e-07 4.19949e-15)
(0.12401 -1.38409e-07 4.3148e-15)
(0.12401 -1.37682e-07 4.27925e-15)
(0.12401 -1.27033e-07 4.30227e-15)
(0.12401 -1.19994e-07 4.09261e-15)
(0.12401 -7.46206e-08 4.15891e-15)
(0.124009 9.01277e-08 4.05967e-15)
(0.124009 1.09489e-07 4.06609e-15)
(0.124009 1.14062e-07 4.10506e-15)
(0.124009 1.09327e-07 4.07042e-15)
(0.124009 9.91795e-08 4.08282e-15)
(0.124009 8.69385e-08 4.12795e-15)
(0.124009 7.40033e-08 4.11499e-15)
(0.124009 6.13604e-08 4.1329e-15)
(0.124009 4.95211e-08 4.09121e-15)
(0.124009 3.94252e-08 4.10959e-15)
(0.124009 3.10088e-08 4.18599e-15)
(0.124009 2.68164e-08 4.18153e-15)
(0.124009 2.49184e-08 4.21665e-15)
(0.124009 3.44345e-08 4.17226e-15)
(0.124009 4.50733e-08 4.17069e-15)
(0.124009 8.68664e-08 4.20158e-15)
(0.124847 1.37535e-07 4.47031e-15)
(0.124847 1.57181e-07 4.32675e-15)
(0.124847 1.65705e-07 4.37209e-15)
(0.124847 1.65175e-07 4.40354e-15)
(0.124847 1.57632e-07 4.47343e-15)
(0.124847 1.45465e-07 4.42874e-15)
(0.124847 1.30009e-07 4.41585e-15)
(0.124848 1.12512e-07 4.41945e-15)
(0.124848 9.39986e-08 4.42464e-15)
(0.124848 7.52677e-08 4.43092e-15)
(0.124848 5.69063e-08 4.45309e-15)
(0.124848 3.93147e-08 4.39724e-15)
(0.124848 2.2745e-08 4.41015e-15)
(0.124848 7.33783e-09 4.36067e-15)
(0.124848 -6.84105e-09 4.39459e-15)
(0.124848 -1.97739e-08 4.51096e-15)
(0.124848 -3.14764e-08 4.42485e-15)
(0.124848 -4.19932e-08 4.46992e-15)
(0.124848 -5.13956e-08 4.40363e-15)
(0.124848 -5.97753e-08 4.47555e-15)
(0.124848 -6.7236e-08 4.46693e-15)
(0.124848 -7.38844e-08 4.55552e-15)
(0.124848 -7.98241e-08 4.66931e-15)
(0.124848 -8.51517e-08 4.56834e-15)
(0.124848 -8.99548e-08 4.69021e-15)
(0.124848 -9.43118e-08 4.61211e-15)
(0.124848 -9.82925e-08 4.51696e-15)
(0.124848 -1.0196e-07 4.65043e-15)
(0.124848 -1.05374e-07 4.5289e-15)
(0.124848 -1.0859e-07 4.60652e-15)
(0.124848 -1.11664e-07 4.54747e-15)
(0.124848 -1.14649e-07 4.44198e-15)
(0.124848 -1.17596e-07 4.59445e-15)
(0.124848 -1.20543e-07 4.43232e-15)
(0.124848 -1.2352e-07 4.51227e-15)
(0.124848 -1.26529e-07 4.46063e-15)
(0.124848 -1.29524e-07 4.36764e-15)
(0.124848 -1.32443e-07 4.44982e-15)
(0.124848 -1.34946e-07 4.35676e-15)
(0.124848 -1.37037e-07 4.40803e-15)
(0.124848 -1.37038e-07 4.62396e-15)
(0.124848 -1.36516e-07 4.44453e-15)
(0.124848 -1.2658e-07 4.507e-15)
(0.124848 -1.2048e-07 4.37034e-15)
(0.124848 -7.61971e-08 4.41487e-15)
(0.124847 9.32713e-08 4.33255e-15)
(0.124847 1.1373e-07 4.36803e-15)
(0.124847 1.18642e-07 4.41692e-15)
(0.124847 1.13982e-07 4.3018e-15)
(0.124847 1.0369e-07 4.37233e-15)
(0.124847 9.11416e-08 4.44329e-15)
(0.124847 7.78252e-08 4.41797e-15)
(0.124847 6.47653e-08 4.45265e-15)
(0.124847 5.25055e-08 4.33934e-15)
(0.124847 4.19337e-08 4.4419e-15)
(0.124847 3.30436e-08 4.49232e-15)
(0.124847 2.81377e-08 4.48428e-15)
(0.124847 2.55566e-08 4.56653e-15)
(0.124847 3.37048e-08 4.42251e-15)
(0.124847 4.22267e-08 4.46092e-15)
(0.124847 8.25889e-08 4.50901e-15)
(0.125662 1.33152e-07 4.71932e-15)
(0.125662 1.53051e-07 4.58808e-15)
(0.125662 1.60601e-07 4.61259e-15)
(0.125662 1.59225e-07 4.67003e-15)
(0.125662 1.51168e-07 4.68598e-15)
(0.125662 1.38758e-07 4.66955e-15)
(0.125662 1.23271e-07 4.6602e-15)
(0.125662 1.05887e-07 4.65374e-15)
(0.125663 8.75848e-08 4.65303e-15)
(0.125663 6.9128e-08 4.65365e-15)
(0.125663 5.10779e-08 4.66911e-15)
(0.125663 3.38182e-08 4.61563e-15)
(0.125663 1.75904e-08 4.62349e-15)
(0.125663 2.52926e-09 4.58478e-15)
(0.125663 -1.13032e-08 4.61772e-15)
(0.125663 -2.38912e-08 4.66038e-15)
(0.125663 -3.52515e-08 4.65068e-15)
(0.125663 -4.54292e-08 4.70387e-15)
(0.125663 -5.44951e-08 4.65708e-15)
(0.125663 -6.25406e-08 4.69945e-15)
(0.125663 -6.9669e-08 4.66611e-15)
(0.125663 -7.59872e-08 4.72138e-15)
(0.125663 -8.15993e-08 4.82013e-15)
(0.125663 -8.66028e-08 4.72796e-15)
(0.125663 -9.10864e-08 4.8002e-15)
(0.125663 -9.51297e-08 4.77913e-15)
(0.125663 -9.88037e-08 4.69795e-15)
(0.125663 -1.02173e-07 4.78747e-15)
(0.125663 -1.05298e-07 4.7003e-15)
(0.125663 -1.08237e-07 4.75553e-15)
(0.125663 -1.11047e-07 4.70865e-15)
(0.125663 -1.13782e-07 4.62699e-15)
(0.125663 -1.16497e-07 4.68182e-15)
(0.125663 -1.19232e-07 4.60192e-15)
(0.125663 -1.22022e-07 4.66666e-15)
(0.125663 -1.24872e-07 4.62921e-15)
(0.125663 -1.27747e-07 4.5534e-15)
(0.125663 -1.30585e-07 4.62361e-15)
(0.125663 -1.33085e-07 4.53014e-15)
(0.125663 -1.35215e-07 4.56161e-15)
(0.125663 -1.35456e-07 4.70985e-15)
(0.125663 -1.35169e-07 4.56829e-15)
(0.125663 -1.26041e-07 4.64186e-15)
(0.125663 -1.21065e-07 4.59723e-15)
(0.125663 -7.78738e-08 4.61048e-15)
(0.125662 9.6037e-08 4.5163e-15)
(0.125662 1.17337e-07 4.58887e-15)
(0.125662 1.22391e-07 4.55766e-15)
(0.125662 1.17792e-07 4.5081e-15)
(0.125662 1.07466e-07 4.60507e-15)
(0.125662 9.47516e-08 4.58815e-15)
(0.125662 8.1179e-08 4.63575e-15)
(0.125662 6.77981e-08 4.68659e-15)
(0.125662 5.51873e-08 4.55576e-15)
(0.125662 4.41865e-08 4.62652e-15)
(0.125662 3.48502e-08 4.63977e-15)
(0.125662 2.92359e-08 4.69705e-15)
(0.125662 2.59509e-08 4.76481e-15)
(0.125662 3.26795e-08 4.6375e-15)
(0.125662 3.89583e-08 4.68205e-15)
(0.125662 7.79025e-08 4.64513e-15)
(0.126454 1.28469e-07 4.98455e-15)
(0.126454 1.48636e-07 4.88921e-15)
(0.126454 1.55192e-07 4.87281e-15)
(0.126454 1.52937e-07 4.85852e-15)
(0.126454 1.44344e-07 4.90568e-15)
(0.126455 1.31686e-07 4.90444e-15)
(0.126455 1.16176e-07 4.90419e-15)
(0.126455 9.89205e-08 4.877e-15)
(0.126455 8.08497e-08 4.88162e-15)
(0.126455 6.26884e-08 4.88169e-15)
(0.126455 4.49725e-08 4.90017e-15)
(0.126455 2.80684e-08 4.82176e-15)
(0.126455 1.22069e-08 4.82036e-15)
(0.126455 -2.48363e-09 4.8047e-15)
(0.126455 -1.59449e-08 4.81474e-15)
(0.126455 -2.81634e-08 4.94047e-15)
(0.126455 -3.91574e-08 4.8678e-15)
(0.126455 -4.89725e-08 4.90916e-15)
(0.126455 -5.76796e-08 4.89204e-15)
(0.126455 -6.53693e-08 4.94433e-15)
(0.126455 -7.21445e-08 4.89328e-15)
(0.126455 -7.81121e-08 4.95598e-15)
(0.126455 -8.33766e-08 4.98081e-15)
(0.126455 -8.80365e-08 4.9327e-15)
(0.126455 -9.21814e-08 5.0519e-15)
(0.126455 -9.58921e-08 4.98311e-15)
(0.126455 -9.92409e-08 4.9327e-15)
(0.126455 -1.02294e-07 4.94799e-15)
(0.126455 -1.05113e-07 4.94426e-15)
(0.126455 -1.07757e-07 4.94908e-15)
(0.126455 -1.10287e-07 4.91707e-15)
(0.126455 -1.12757e-07 4.88481e-15)
(0.126455 -1.15225e-07 4.86154e-15)
(0.126455 -1.17734e-07 4.88718e-15)
(0.126455 -1.20325e-07 4.85556e-15)
(0.126455 -1.23005e-07 4.84446e-15)
(0.126455 -1.25751e-07 4.78787e-15)
(0.126455 -1.28502e-07 4.79831e-15)
(0.126455 -1.30998e-07 4.81972e-15)
(0.126455 -1.33174e-07 4.76887e-15)
(0.126455 -1.33678e-07 4.86618e-15)
(0.126455 -1.33658e-07 4.7087e-15)
(0.126455 -1.25426e-07 4.79097e-15)
(0.126455 -1.21764e-07 4.8132e-15)
(0.126455 -7.96439e-08 4.81436e-15)
(0.126454 9.84848e-08 4.77337e-15)
(0.126454 1.2043e-07 4.82803e-15)
(0.126454 1.25411e-07 4.79854e-15)
(0.126454 1.20788e-07 4.68511e-15)
(0.126454 1.1047e-07 4.8385e-15)
(0.126454 9.76903e-08 4.83462e-15)
(0.126454 8.39727e-08 4.87203e-15)
(0.126454 7.03679e-08 4.91573e-15)
(0.126454 5.74823e-08 4.72471e-15)
(0.126454 4.61077e-08 4.86094e-15)
(0.126454 3.63596e-08 4.87532e-15)
(0.126454 3.00497e-08 4.92928e-15)
(0.126454 2.60449e-08 4.98209e-15)
(0.126454 3.13099e-08 4.8323e-15)
(0.126454 3.52316e-08 4.91366e-15)
(0.126454 7.27859e-08 4.88926e-15)
(0.127224 1.2347e-07 5.19354e-15)
(0.127224 1.43917e-07 5.14943e-15)
(0.127224 1.49468e-07 5.12653e-15)
(0.127225 1.4631e-07 5.06102e-15)
(0.127225 1.37167e-07 5.13857e-15)
(0.127225 1.24258e-07 5.13736e-15)
(0.127225 1.08733e-07 5.14703e-15)
(0.127225 9.16226e-08 5.08665e-15)
(0.127225 7.38029e-08 5.11388e-15)
(0.127225 5.59597e-08 5.11866e-15)
(0.127225 3.86018e-08 5.05699e-15)
(0.127225 2.20777e-08 5.01292e-15)
(0.127225 6.60712e-09 5.02611e-15)
(0.127225 -7.688e-09 5.01926e-15)
(0.127225 -2.07533e-08 5.03648e-15)
(0.127225 -3.2578e-08 5.0776e-15)
(0.127225 -4.31821e-08 5.08014e-15)
(0.127225 -5.26119e-08 5.12796e-15)
(0.127225 -6.09382e-08 5.1081e-15)
(0.127225 -6.82512e-08 5.11857e-15)
(0.127225 -7.46532e-08 5.1071e-15)
(0.127225 -8.02509e-08 5.13081e-15)
(0.127225 -8.51492e-08 5.14554e-15)
(0.127225 -8.94469e-08 5.12759e-15)
(0.127225 -9.3235e-08 5.17999e-15)
(0.127225 -9.65953e-08 5.18017e-15)
(0.127225 -9.96017e-08 5.13677e-15)
(0.127225 -1.02321e-07 5.12337e-15)
(0.127225 -1.04818e-07 5.11274e-15)
(0.127225 -1.07152e-07 5.14867e-15)
(0.127225 -1.09386e-07 5.11016e-15)
(0.127225 -1.11577e-07 5.06298e-15)
(0.127225 -1.13785e-07 5.03694e-15)
(0.127225 -1.16056e-07 5.01631e-15)
(0.127225 -1.18436e-07 5.0632e-15)
(0.127225 -1.20935e-07 5.04119e-15)
(0.127225 -1.23546e-07 4.999e-15)
(0.127225 -1.26205e-07 4.97796e-15)
(0.127225 -1.28698e-07 4.95285e-15)
(0.127225 -1.30926e-07 4.97951e-15)
(0.127225 -1.31718e-07 5.03187e-15)
(0.127225 -1.32002e-07 4.97214e-15)
(0.127225 -1.24747e-07 4.96964e-15)
(0.127225 -1.22586e-07 5.0131e-15)
(0.127225 -8.15036e-08 5.02226e-15)
(0.127224 1.0065e-07 5.0191e-15)
(0.127224 1.23102e-07 4.99722e-15)
(0.127224 1.27811e-07 5.0201e-15)
(0.127224 1.2304e-07 4.99813e-15)
(0.127224 1.12714e-07 5.03603e-15)
(0.127224 9.99242e-08 5.0721e-15)
(0.127224 8.61477e-08 5.0416e-15)
(0.127224 7.24061e-08 5.06378e-15)
(0.127224 5.9321e-08 5.0167e-15)
(0.127224 4.76305e-08 5.05421e-15)
(0.127224 3.75093e-08 5.10828e-15)
(0.127224 3.05216e-08 5.09429e-15)
(0.127224 2.57859e-08 5.1239e-15)
(0.127224 2.95498e-08 5.07599e-15)
(0.127224 3.10129e-08 5.09909e-15)
(0.127224 6.72216e-08 5.12229e-15)
(0.127973 1.18146e-07 5.41235e-15)
(0.127973 1.38877e-07 5.38799e-15)
(0.127973 1.4342e-07 5.36407e-15)
(0.127973 1.39345e-07 5.32563e-15)
(0.127973 1.29644e-07 5.31699e-15)
(0.127973 1.16484e-07 5.36466e-15)
(0.127973 1.00953e-07 5.30402e-15)
(0.127973 8.40037e-08 5.26943e-15)
(0.127973 6.6456e-08 5.33157e-15)
(0.127973 4.89541e-08 5.28882e-15)
(0.127973 3.19785e-08 5.21379e-15)
(0.127973 1.58592e-08 5.2015e-15)
(0.127973 8.04539e-10 5.21846e-15)
(0.127974 -1.30705e-08 5.23633e-15)
(0.127974 -2.57156e-08 5.22541e-15)
(0.127974 -3.71227e-08 5.2803e-15)
(0.127974 -4.73137e-08 5.29294e-15)
(0.127974 -5.6336e-08 5.31937e-15)
(0.127974 -6.42604e-08 5.3203e-15)
(0.127974 -7.11766e-08 5.30568e-15)
(0.127974 -7.71863e-08 5.27009e-15)
(0.127974 -8.23958e-08 5.30301e-15)
(0.127974 -8.69101e-08 5.32099e-15)
(0.127974 -9.08285e-08 5.3101e-15)
(0.127974 -9.4243e-08 5.36193e-15)
(0.127974 -9.72366e-08 5.3261e-15)
(0.127974 -9.98845e-08 5.31369e-15)
(0.127974 -1.02255e-07 5.30047e-15)
(0.127974 -1.04415e-07 5.2916e-15)
(0.127974 -1.06425e-07 5.32678e-15)
(0.127974 -1.0835e-07 5.27271e-15)
(0.127974 -1.10248e-07 5.23546e-15)
(0.127974 -1.12183e-07 5.21525e-15)
(0.127974 -1.14204e-07 5.20102e-15)
(0.127974 -1.16363e-07 5.23881e-15)
(0.127974 -1.18673e-07 5.2122e-15)
(0.127974 -1.21142e-07 5.18032e-15)
(0.127974 -1.23707e-07 5.15923e-15)
(0.127974 -1.26199e-07 5.14194e-15)
(0.127974 -1.28488e-07 5.17218e-15)
(0.127974 -1.29591e-07 5.20365e-15)
(0.127974 -1.30219e-07 5.19079e-15)
(0.127974 -1.24019e-07 5.16094e-15)
(0.127974 -1.23538e-07 5.23656e-15)
(0.127974 -8.34487e-08 5.22586e-15)
(0.127973 1.02557e-07 5.27008e-15)
(0.127973 1.25423e-07 5.15913e-15)
(0.127973 1.29688e-07 5.24893e-15)
(0.127973 1.2463e-07 5.28971e-15)
(0.127973 1.14242e-07 5.24762e-15)
(0.127973 1.01459e-07 5.3182e-15)
(0.127973 8.76791e-08 5.20528e-15)
(0.127973 7.38708e-08 5.22104e-15)
(0.127973 6.0653e-08 5.28932e-15)
(0.127973 4.87024e-08 5.26597e-15)
(0.127973 3.82469e-08 5.35141e-15)
(0.127973 3.06022e-08 5.25274e-15)
(0.127973 2.5127e-08 5.27599e-15)
(0.127973 2.73586e-08 5.31774e-15)
(0.127973 2.62739e-08 5.29855e-15)
(0.127973 6.11967e-08 5.36239e-15)
(0.1287 1.12492e-07 5.63982e-15)
(0.1287 1.3351e-07 5.61194e-15)
(0.1287 1.37042e-07 5.58681e-15)
(0.1287 1.32042e-07 5.60284e-15)
(0.128701 1.21782e-07 5.49844e-15)
(0.128701 1.08375e-07 5.60216e-15)
(0.128701 9.28489e-08 5.4557e-15)
(0.128701 7.60779e-08 5.44798e-15)
(0.128701 5.8823e-08 5.49312e-15)
(0.128701 4.1686e-08 5.3652e-15)
(0.128701 2.51173e-08 5.36838e-15)
(0.128701 9.42783e-09 5.39904e-15)
(0.128701 -5.18616e-09 5.42179e-15)
(0.128701 -1.86166e-08 5.46058e-15)
(0.128701 -3.08176e-08 5.42461e-15)
(0.128701 -4.17839e-08 5.50548e-15)
(0.128701 -5.15396e-08 5.50704e-15)
(0.128701 -6.0133e-08 5.522e-15)
(0.128701 -6.76353e-08 5.53559e-15)
(0.128701 -7.41355e-08 5.48409e-15)
(0.128701 -7.97349e-08 5.46711e-15)
(0.128701 -8.4539e-08 5.54978e-15)
(0.128701 -8.86528e-08 5.49974e-15)
(0.128701 -9.21761e-08 5.49224e-15)
(0.128701 -9.52016e-08 5.53395e-15)
(0.128701 -9.78135e-08 5.43913e-15)
(0.128701 -1.00088e-07 5.4846e-15)
(0.128701 -1.02097e-07 5.47934e-15)
(0.128701 -1.03905e-07 5.47388e-15)
(0.128701 -1.05578e-07 5.56213e-15)
(0.128701 -1.07181e-07 5.38391e-15)
(0.128701 -1.08775e-07 5.41339e-15)
(0.128701 -1.10427e-07 5.39613e-15)
(0.128701 -1.12188e-07 5.38603e-15)
(0.128701 -1.14116e-07 5.41339e-15)
(0.128701 -1.16231e-07 5.31955e-15)
(0.128701 -1.18552e-07 5.3606e-15)
(0.128701 -1.2102e-07 5.34226e-15)
(0.128701 -1.23515e-07 5.33188e-15)
(0.128701 -1.25876e-07 5.35701e-15)
(0.128701 -1.27315e-07 5.3776e-15)
(0.128701 -1.28329e-07 5.40489e-15)
(0.128701 -1.23255e-07 5.35143e-15)
(0.128701 -1.24622e-07 5.47228e-15)
(0.128701 -8.54726e-08 5.42943e-15)
(0.1287 1.04228e-07 5.4588e-15)
(0.1287 1.27441e-07 5.3689e-15)
(0.1287 1.31125e-07 5.43361e-15)
(0.1287 1.25647e-07 5.53721e-15)
(0.1287 1.15122e-07 5.45273e-15)
(0.1287 1.02328e-07 5.50367e-15)
(0.1287 8.85727e-08 5.41568e-15)
(0.1287 7.47465e-08 5.39707e-15)
(0.1287 6.145e-08 5.53913e-15)
(0.1287 4.92882e-08 5.47442e-15)
(0.1287 3.85336e-08 5.53436e-15)
(0.1287 3.02531e-08 5.45724e-15)
(0.1287 2.40308e-08 5.44627e-15)
(0.1287 2.47037e-08 5.56616e-15)
(0.1287 2.09937e-08 5.49312e-15)
(0.1287 5.47056e-08 5.54438e-15)
(0.129407 1.06513e-07 5.81105e-15)
(0.129407 1.27813e-07 5.81481e-15)
(0.129407 1.30336e-07 5.79698e-15)
(0.129407 1.24406e-07 5.80353e-15)
(0.129407 1.1359e-07 5.66308e-15)
(0.129407 9.99455e-08 5.78752e-15)
(0.129408 8.44372e-08 5.62977e-15)
(0.129408 6.78622e-08 5.64793e-15)
(0.129408 5.09212e-08 5.639e-15)
(0.129408 3.41724e-08 5.49963e-15)
(0.129408 1.80352e-08 5.54938e-15)
(0.129408 2.80028e-09 5.61718e-15)
(0.129408 -1.13485e-08 5.63122e-15)
(0.129408 -2.43105e-08 5.69804e-15)
(0.129408 -3.60442e-08 5.69961e-15)
(0.129408 -4.65475e-08 5.68221e-15)
(0.129408 -5.58463e-08 5.7165e-15)
(0.129408 -6.39905e-08 5.73325e-15)
(0.129408 -7.10514e-08 5.762e-15)
(0.129408 -7.71177e-08 5.72233e-15)
(0.129408 -8.22897e-08 5.66653e-15)
(0.129408 -8.66726e-08 5.67673e-15)
(0.129408 -9.03709e-08 5.67389e-15)
(0.129408 -9.34847e-08 5.67599e-15)
(0.129408 -9.61074e-08 5.70741e-15)
(0.129408 -9.83242e-08 5.65812e-15)
(0.129408 -1.00213e-07 5.67005e-15)
(0.129408 -1.01846e-07 5.65802e-15)
(0.129408 -1.03292e-07 5.65921e-15)
(0.129408 -1.04616e-07 5.67335e-15)
(0.129408 -1.05886e-07 5.61674e-15)
(0.129408 -1.07166e-07 5.60218e-15)
(0.129408 -1.08525e-07 5.57861e-15)
(0.129408 -1.10018e-07 5.57503e-15)
(0.129408 -1.11708e-07 5.5936e-15)
(0.129408 -1.13621e-07 5.55755e-15)
(0.129408 -1.15791e-07 5.54681e-15)
(0.129408 -1.18162e-07 5.52767e-15)
(0.129408 -1.20664e-07 5.52651e-15)
(0.129408 -1.23109e-07 5.5441e-15)