/*--------------------------------*- C++ -*----------------------------------*\
  =========                 |
  \\      /  F ield         | OpenFOAM: The Open Source CFD Toolbox
   \\    /   O peration     | Website:  https://openfoam.org
    \\  /    A nd           | Version:  7
     \\/     M anipulation  |
\*---------------------------------------------------------------------------*/
FoamFile
{
    version     2.0;
    format      ascii;
    class       volScalarField;
    location    "1000";
    object      k;
}
// * * * * * * * * * * * * * * * * * * * * * * * * * * * * * * * * * * * * * //

dimensions      [0 2 -2 0 0 0 0];

internalField   nonuniform List<scalar> 
3974
(
0.000126643
0.000126643
0.000126642
0.00012664
0.000126638
0.000126636
0.000126634
0.000126632
0.00012663
0.000126628
0.000126626
0.000126625
0.000126623
0.000126621
0.000126619
0.000126617
0.000126616
0.000126614
0.000126612
0.00012661
0.000126608
0.000126606
0.000126604
0.000126602
0.0001266
0.000126598
0.000126596
0.000126594
0.000126592
0.00012659
0.000126588
0.000126586
0.000126584
0.000126582
0.00012658
0.000126578
0.000126576
0.000126575
0.000122584
0.000122586
0.000122604
0.000122612
0.000122615
0.000122616
0.000122616
0.000122615
0.000122614
0.000122613
0.000122612
0.000122611
0.00012261
0.000122609
0.000122607
0.000122606
0.000122604
0.000122603
0.000122601
0.0001226
0.000122598
0.000122596
0.000122595
0.000122593
0.000122591
0.000122589
0.000122588
0.000122586
0.000122584
0.000122582
0.00012258
0.000122578
0.000122576
0.000122574
0.000122572
0.00012257
0.000122568
0.000122566
0.000122564
0.000122566
0.000122531
0.00012252
0.000118505
0.000118505
0.000118525
0.000118534
0.000118546
0.000118556
0.000118562
0.000118566
0.000118568
0.000118569
0.00011857
0.00011857
0.00011857
0.00011857
0.000118569
0.000118568
0.000118568
0.000118567
0.000118566
0.000118565
0.000118563
0.000118562
0.000118561
0.000118559
0.000118558
0.000118557
0.000118555
0.000118554
0.000118552
0.00011855
0.000118549
0.000118547
0.000118545
0.000118543
0.000118542
0.00011854
0.000118538
0.000118536
0.000118534
0.000118532
0.00011853
0.000118531
0.000118515
0.000118505
0.000118465
0.00011845
0.000118448
0.000118449
0.00011845
0.000118452
0.000118453
0.000118454
0.000118456
0.000118457
0.000118458
0.00011846
0.000118461
0.000118462
0.000118468
0.000114462
0.00011446
0.00011447
0.000114481
0.000114491
0.000114501
0.00011451
0.000114515
0.00011452
0.000114523
0.000114525
0.000114526
0.000114527
0.000114528
0.000114528
0.000114528
0.000114528
0.000114528
0.000114527
0.000114527
0.000114526
0.000114525
0.000114524
0.000114523
0.000114522
0.000114521
0.00011452
0.000114518
0.000114517
0.000114516
0.000114514
0.000114513
0.000114511
0.00011451
0.000114508
0.000114506
0.000114505
0.000114503
0.000114501
0.0001145
0.000114498
0.000114498
0.00011449
0.000114482
0.00011446
0.000114443
0.000114434
0.00011443
0.000114428
0.000114428
0.000114427
0.000114427
0.000114428
0.000114428
0.000114429
0.00011443
0.000114431
0.000114431
0.000114438
0.00011044
0.000110436
0.000110442
0.000110451
0.000110461
0.00011047
0.000110479
0.000110486
0.000110492
0.000110496
0.000110499
0.000110502
0.000110504
0.000110506
0.000110507
0.000110508
0.000110508
0.000110508
0.000110508
0.000110508
0.000110508
0.000110508
0.000110507
0.000110507
0.000110506
0.000110505
0.000110504
0.000110503
0.000110502
0.000110501
0.0001105
0.000110499
0.000110497
0.000110496
0.000110495
0.000110493
0.000110492
0.00011049
0.000110489
0.000110487
0.000110486
0.000110485
0.000110481
0.000110476
0.000110463
0.000110449
0.000110438
0.000110431
0.000110426
0.000110424
0.000110422
0.000110421
0.00011042
0.00011042
0.00011042
0.00011042
0.00011042
0.000110419
0.000110428
0.000106462
0.000106455
0.000106459
0.000106466
0.000106474
0.000106483
0.000106491
0.000106498
0.000106504
0.000106509
0.000106514
0.000106517
0.00010652
0.000106523
0.000106525
0.000106526
0.000106527
0.000106528
0.000106529
0.00010653
0.00010653
0.00010653
0.00010653
0.00010653
0.000106529
0.000106529
0.000106528
0.000106528
0.000106527
0.000106526
0.000106525
0.000106524
0.000106523
0.000106522
0.000106521
0.00010652
0.000106519
0.000106518
0.000106516
0.000106515
0.000106513
0.000106512
0.00010651
0.000106507
0.000106499
0.000106489
0.000106479
0.000106471
0.000106466
0.000106461
0.000106458
0.000106456
0.000106454
0.000106453
0.000106452
0.000106452
0.000106452
0.00010645
0.000106458
0.000102544
0.000102536
0.000102538
0.000102543
0.00010255
0.000102557
0.000102564
0.000102571
0.000102577
0.000102583
0.000102588
0.000102592
0.000102596
0.000102599
0.000102601
0.000102603
0.000102605
0.000102607
0.000102608
0.000102609
0.00010261
0.00010261
0.000102611
0.000102611
0.000102611
0.000102611
0.000102611
0.000102611
0.00010261
0.00010261
0.000102609
0.000102608
0.000102608
0.000102607
0.000102606
0.000102605
0.000102604
0.000102603
0.000102602
0.000102601
0.0001026
0.000102599
0.000102597
0.000102595
0.000102591
0.000102584
0.000102576
0.000102569
0.000102563
0.000102558
0.000102554
0.000102551
0.000102549
0.000102547
0.000102545
0.000102544
0.000102544
0.000102541
0.000102549
9.87039e-05
9.86957e-05
9.86967e-05
9.87005e-05
9.87056e-05
9.87114e-05
9.87176e-05
9.87238e-05
9.87298e-05
9.87354e-05
9.87404e-05
9.87449e-05
9.87489e-05
9.87525e-05
9.87556e-05
9.87582e-05
9.87606e-05
9.87626e-05
9.87643e-05
9.87658e-05
9.8767e-05
9.8768e-05
9.87688e-05
9.87695e-05
9.87699e-05
9.87702e-05
9.87704e-05
9.87705e-05
9.87704e-05
9.87702e-05
9.877e-05
9.87696e-05
9.87692e-05
9.87686e-05
9.87681e-05
9.87674e-05
9.87667e-05
9.87659e-05
9.8765e-05
9.87642e-05
9.87632e-05
9.87623e-05
9.87612e-05
9.87597e-05
9.87572e-05
9.8753e-05
9.87475e-05
9.87416e-05
9.87361e-05
9.87311e-05
9.8727e-05
9.87235e-05
9.87206e-05
9.87181e-05
9.87162e-05
9.87145e-05
9.87136e-05
9.87109e-05
9.87187e-05
9.49606e-05
9.49522e-05
9.49525e-05
9.49555e-05
9.49595e-05
9.49641e-05
9.49693e-05
9.49746e-05
9.498e-05
9.49852e-05
9.49901e-05
9.49946e-05
9.49987e-05
9.50025e-05
9.50059e-05
9.50089e-05
9.50116e-05
9.5014e-05
9.50161e-05
9.50179e-05
9.50195e-05
9.50209e-05
9.50221e-05
9.50231e-05
9.50239e-05
9.50245e-05
9.5025e-05
9.50254e-05
9.50257e-05
9.50258e-05
9.50258e-05
9.50258e-05
9.50256e-05
9.50254e-05
9.5025e-05
9.50246e-05
9.50242e-05
9.50236e-05
9.5023e-05
9.50224e-05
9.50216e-05
9.50209e-05
9.50201e-05
9.50191e-05
9.50175e-05
9.50149e-05
9.50113e-05
9.5007e-05
9.50024e-05
9.49981e-05
9.49941e-05
9.49906e-05
9.49875e-05
9.49848e-05
9.49826e-05
9.49806e-05
9.49794e-05
9.49763e-05
9.49837e-05
9.13308e-05
9.13223e-05
9.13223e-05
9.13247e-05
9.13279e-05
9.13316e-05
9.13358e-05
9.13403e-05
9.1345e-05
9.13496e-05
9.13541e-05
9.13585e-05
9.13625e-05
9.13663e-05
9.13698e-05
9.1373e-05
9.13759e-05
9.13785e-05
9.13809e-05
9.1383e-05
9.13849e-05
9.13866e-05
9.1388e-05
9.13893e-05
9.13904e-05
9.13914e-05
9.13922e-05
9.13928e-05
9.13934e-05
9.13938e-05
9.13941e-05
9.13943e-05
9.13944e-05
9.13944e-05
9.13943e-05
9.13942e-05
9.1394e-05
9.13937e-05
9.13933e-05
9.13929e-05
9.13924e-05
9.13919e-05
9.13913e-05
9.13906e-05
9.13896e-05
9.1388e-05
9.13857e-05
9.13827e-05
9.13793e-05
9.13758e-05
9.13723e-05
9.13691e-05
9.13662e-05
9.13635e-05
9.13612e-05
9.13591e-05
9.13577e-05
9.13544e-05
9.13615e-05
8.78307e-05
8.78222e-05
8.78221e-05
8.78241e-05
8.78267e-05
8.78298e-05
8.78333e-05
8.7837e-05
8.78409e-05
8.7845e-05
8.7849e-05
8.7853e-05
8.78568e-05
8.78604e-05
8.78638e-05
8.7867e-05
8.787e-05
8.78727e-05
8.78752e-05
8.78775e-05
8.78796e-05
8.78815e-05
8.78832e-05
8.78847e-05
8.78861e-05
8.78872e-05
8.78883e-05
8.78892e-05
8.789e-05
8.78906e-05
8.78912e-05
8.78916e-05
8.7892e-05
8.78922e-05
8.78924e-05
8.78925e-05
8.78925e-05
8.78924e-05
8.78923e-05
8.78921e-05
8.78918e-05
8.78915e-05
8.78911e-05
8.78907e-05
8.78901e-05
8.78892e-05
8.78878e-05
8.78858e-05
8.78834e-05
8.78808e-05
8.7878e-05
8.78753e-05
8.78727e-05
8.78702e-05
8.7868e-05
8.78659e-05
8.78645e-05
8.78611e-05
8.7868e-05
8.44755e-05
8.44671e-05
8.4467e-05
8.44687e-05
8.4471e-05
8.44736e-05
8.44765e-05
8.44796e-05
8.44829e-05
8.44863e-05
8.44898e-05
8.44934e-05
8.44968e-05
8.45002e-05
8.45034e-05
8.45065e-05
8.45094e-05
8.45121e-05
8.45146e-05
8.4517e-05
8.45192e-05
8.45212e-05
8.4523e-05
8.45247e-05
8.45262e-05
8.45276e-05
8.45288e-05
8.45299e-05
8.45309e-05
8.45317e-05
8.45325e-05
8.45331e-05
8.45336e-05
8.45341e-05
8.45345e-05
8.45348e-05
8.4535e-05
8.45351e-05
8.45352e-05
8.45352e-05
8.45351e-05
8.4535e-05
8.45349e-05
8.45346e-05
8.45343e-05
8.45338e-05
8.4533e-05
8.45319e-05
8.45303e-05
8.45284e-05
8.45264e-05
8.45242e-05
8.45221e-05
8.452e-05
8.4518e-05
8.45161e-05
8.45147e-05
8.45115e-05
8.45181e-05
8.1279e-05
8.12709e-05
8.12707e-05
8.12723e-05
8.12743e-05
8.12766e-05
8.1279e-05
8.12816e-05
8.12844e-05
8.12873e-05
8.12903e-05
8.12934e-05
8.12964e-05
8.12995e-05
8.13024e-05
8.13053e-05
8.1308e-05
8.13106e-05
8.13131e-05
8.13154e-05
8.13176e-05
8.13196e-05
8.13215e-05
8.13233e-05
8.13249e-05
8.13264e-05
8.13277e-05
8.13289e-05
8.133e-05
8.13311e-05
8.1332e-05
8.13328e-05
8.13335e-05
8.13341e-05
8.13346e-05
8.13351e-05
8.13355e-05
8.13358e-05
8.13361e-05
8.13363e-05
8.13364e-05
8.13365e-05
8.13365e-05
8.13364e-05
8.13363e-05
8.13362e-05
8.13358e-05
8.13351e-05
8.13342e-05
8.1333e-05
8.13316e-05
8.133e-05
8.13284e-05
8.13267e-05
8.13251e-05
8.13234e-05
8.13223e-05
8.13192e-05
8.13256e-05
7.82536e-05
7.82457e-05
7.82454e-05
7.82469e-05
7.82488e-05
7.82508e-05
7.8253e-05
7.82552e-05
7.82575e-05
7.826e-05
7.82625e-05
7.82651e-05
7.82678e-05
7.82705e-05
7.82731e-05
7.82757e-05
7.82782e-05
7.82806e-05
7.82829e-05
7.82852e-05
7.82873e-05
7.82893e-05
7.82911e-05
7.82929e-05
7.82945e-05
7.82961e-05
7.82975e-05
7.82988e-05
7.83e-05
7.83011e-05
7.83021e-05
7.8303e-05
7.83038e-05
7.83046e-05
7.83053e-05
7.83059e-05
7.83064e-05
7.83069e-05
7.83073e-05
7.83076e-05
7.83079e-05
7.83082e-05
7.83083e-05
7.83085e-05
7.83085e-05
7.83086e-05
7.83085e-05
7.83082e-05
7.83078e-05
7.83071e-05
7.83062e-05
7.83052e-05
7.8304e-05
7.83028e-05
7.83015e-05
7.83002e-05
7.82992e-05
7.82965e-05
7.83027e-05
7.54095e-05
7.5402e-05
7.54017e-05
7.54031e-05
7.54048e-05
7.54067e-05
7.54085e-05
7.54105e-05
7.54125e-05
7.54146e-05
7.54167e-05
7.54189e-05
7.54212e-05
7.54235e-05
7.54258e-05
7.54281e-05
7.54303e-05
7.54325e-05
7.54347e-05
7.54367e-05
7.54387e-05
7.54406e-05
7.54424e-05
7.54441e-05
7.54457e-05
7.54472e-05
7.54486e-05
7.54499e-05
7.54512e-05
7.54523e-05
7.54534e-05
7.54544e-05
7.54553e-05
7.54561e-05
7.54569e-05
7.54576e-05
7.54583e-05
7.54589e-05
7.54594e-05
7.54599e-05
7.54603e-05
7.54606e-05
7.5461e-05
7.54612e-05
7.54615e-05
7.54617e-05
7.54618e-05
7.54618e-05
7.54617e-05
7.54614e-05
7.54609e-05
7.54603e-05
7.54596e-05
7.54588e-05
7.54579e-05
7.54569e-05
7.54562e-05
7.54537e-05
7.54598e-05
7.27553e-05
7.27481e-05
7.27478e-05
7.27491e-05
7.27507e-05
7.27524e-05
7.27541e-05
7.27557e-05
7.27575e-05
7.27593e-05
7.27611e-05
7.2763e-05
7.27649e-05
7.27669e-05
7.27688e-05
7.27708e-05
7.27728e-05
7.27747e-05
7.27766e-05
7.27785e-05
7.27803e-05
7.2782e-05
7.27837e-05
7.27853e-05
7.27868e-05
7.27882e-05
7.27896e-05
7.27909e-05
7.27921e-05
7.27933e-05
7.27944e-05
7.27954e-05
7.27963e-05
7.27972e-05
7.27981e-05
7.27989e-05
7.27996e-05
7.28002e-05
7.28009e-05
7.28014e-05
7.28019e-05
7.28024e-05
7.28028e-05
7.28032e-05
7.28036e-05
7.28039e-05
7.28042e-05
7.28044e-05
7.28045e-05
7.28045e-05
7.28043e-05
7.28041e-05
7.28037e-05
7.28032e-05
7.28027e-05
7.2802e-05
7.28016e-05
7.27995e-05
7.28053e-05
7.02969e-05
7.02901e-05
7.02898e-05
7.0291e-05
7.02925e-05
7.0294e-05
7.02955e-05
7.0297e-05
7.02985e-05
7.03e-05
7.03016e-05
7.03032e-05
7.03048e-05
7.03065e-05
7.03081e-05
7.03098e-05
7.03115e-05
7.03132e-05
7.03148e-05
7.03165e-05
7.03181e-05
7.03196e-05
7.03211e-05
7.03226e-05
7.0324e-05
7.03253e-05
7.03266e-05
7.03279e-05
7.0329e-05
7.03301e-05
7.03312e-05
7.03322e-05
7.03332e-05
7.03341e-05
7.03349e-05
7.03357e-05
7.03365e-05
7.03372e-05
7.03379e-05
7.03385e-05
7.03391e-05
7.03396e-05
7.03402e-05
7.03406e-05
7.03411e-05
7.03415e-05
7.03419e-05
7.03422e-05
7.03425e-05
7.03427e-05
7.03428e-05
7.03428e-05
7.03427e-05
7.03425e-05
7.03422e-05
7.03418e-05
7.03417e-05
7.03399e-05
7.03455e-05
6.8038e-05
6.80317e-05
6.80314e-05
6.80325e-05
6.80338e-05
6.80352e-05
6.80365e-05
6.80379e-05
6.80392e-05
6.80405e-05
6.80418e-05
6.80432e-05
6.80445e-05
6.80459e-05
6.80473e-05
6.80487e-05
6.80501e-05
6.80516e-05
6.8053e-05
6.80544e-05
6.80558e-05
6.80571e-05
6.80585e-05
6.80597e-05
6.8061e-05
6.80622e-05
6.80634e-05
6.80645e-05
6.80656e-05
6.80666e-05
6.80676e-05
6.80686e-05
6.80695e-05
6.80704e-05
6.80713e-05
6.80721e-05
6.80728e-05
6.80736e-05
6.80743e-05
6.80749e-05
6.80756e-05
6.80762e-05
6.80767e-05
6.80773e-05
6.80778e-05
6.80783e-05
6.80787e-05
6.80792e-05
6.80796e-05
6.80799e-05
6.80802e-05
6.80804e-05
6.80805e-05
6.80805e-05
6.80805e-05
6.80803e-05
6.80803e-05
6.80789e-05
6.80842e-05
6.59798e-05
6.5974e-05
6.59737e-05
6.59747e-05
6.59759e-05
6.59771e-05
6.59783e-05
6.59795e-05
6.59806e-05
6.59818e-05
6.59829e-05
6.5984e-05
6.59852e-05
6.59863e-05
6.59875e-05
6.59886e-05
6.59898e-05
6.5991e-05
6.59922e-05
6.59933e-05
6.59945e-05
6.59957e-05
6.59968e-05
6.59979e-05
6.5999e-05
6.60001e-05
6.60011e-05
6.60021e-05
6.60031e-05
6.60041e-05
6.6005e-05
6.60059e-05
6.60067e-05
6.60076e-05
6.60084e-05
6.60092e-05
6.60099e-05
6.60106e-05
6.60113e-05
6.6012e-05
6.60127e-05
6.60133e-05
6.60139e-05
6.60145e-05
6.6015e-05
6.60155e-05
6.60161e-05
6.60166e-05
6.6017e-05
6.60175e-05
6.60179e-05
6.60182e-05
6.60185e-05
6.60187e-05
6.60188e-05
6.60188e-05
6.6019e-05
6.60179e-05
6.60228e-05
6.41211e-05
6.41158e-05
6.41155e-05
6.41164e-05
6.41175e-05
6.41185e-05
6.41196e-05
6.41206e-05
6.41216e-05
6.41225e-05
6.41235e-05
6.41244e-05
6.41254e-05
6.41263e-05
6.41273e-05
6.41282e-05
6.41292e-05
6.41301e-05
6.41311e-05
6.41321e-05
6.4133e-05
6.4134e-05
6.41349e-05
6.41359e-05
6.41368e-05
6.41377e-05
6.41386e-05
6.41395e-05
6.41403e-05
6.41411e-05
6.4142e-05
6.41428e-05
6.41436e-05
6.41443e-05
6.41451e-05
6.41458e-05
6.41465e-05
6.41472e-05
6.41479e-05
6.41486e-05
6.41492e-05
6.41498e-05
6.41504e-05
6.4151e-05
6.41516e-05
6.41522e-05
6.41527e-05
6.41533e-05
6.41538e-05
6.41543e-05
6.41547e-05
6.41552e-05
6.41555e-05
6.41558e-05
6.41561e-05
6.41563e-05
6.41566e-05
6.41557e-05
6.41603e-05
6.24583e-05
6.24535e-05
6.24532e-05
6.24539e-05
6.24549e-05
6.24558e-05
6.24567e-05
6.24576e-05
6.24584e-05
6.24592e-05
6.246e-05
6.24607e-05
6.24615e-05
6.24623e-05
6.2463e-05
6.24638e-05
6.24645e-05
6.24653e-05
6.24661e-05
6.24668e-05
6.24676e-05
6.24684e-05
6.24691e-05
6.24699e-05
6.24706e-05
6.24714e-05
6.24721e-05
6.24729e-05
6.24736e-05
6.24743e-05
6.2475e-05
6.24757e-05
6.24764e-05
6.24771e-05
6.24778e-05
6.24785e-05
6.24791e-05
6.24798e-05
6.24804e-05
6.2481e-05
6.24817e-05
6.24823e-05
6.24829e-05
6.24834e-05
6.2484e-05
6.24846e-05
6.24852e-05
6.24857e-05
6.24863e-05
6.24868e-05
6.24873e-05
6.24878e-05
6.24882e-05
6.24886e-05
6.2489e-05
6.24892e-05
6.24896e-05
6.2489e-05
6.24931e-05
6.09854e-05
6.09811e-05
6.09808e-05
6.09815e-05
6.09822e-05
6.0983e-05
6.09838e-05
6.09845e-05
6.09852e-05
6.09858e-05
6.09865e-05
6.09871e-05
6.09877e-05
6.09883e-05
6.09889e-05
6.09895e-05
6.099e-05
6.09906e-05
6.09912e-05
6.09918e-05
6.09924e-05
6.0993e-05
6.09936e-05
6.09942e-05
6.09948e-05
6.09954e-05
6.09959e-05
6.09965e-05
6.09971e-05
6.09977e-05
6.09983e-05
6.09989e-05
6.09995e-05
6.10001e-05
6.10007e-05
6.10013e-05
6.10019e-05
6.10025e-05
6.10031e-05
6.10037e-05
6.10043e-05
6.10048e-05
6.10054e-05
6.1006e-05
6.10065e-05
6.10071e-05
6.10077e-05
6.10082e-05
6.10088e-05
6.10093e-05
6.10098e-05
6.10103e-05
6.10108e-05
6.10113e-05
6.10117e-05
6.1012e-05
6.10125e-05
6.1012e-05
6.10157e-05
5.96947e-05
5.9691e-05
5.96907e-05
5.96912e-05
5.96919e-05
5.96925e-05
5.96931e-05
5.96937e-05
5.96942e-05
5.96947e-05
5.96952e-05
5.96957e-05
5.96962e-05
5.96966e-05
5.9697e-05
5.96975e-05
5.96979e-05
5.96983e-05
5.96987e-05
5.96992e-05
5.96996e-05
5.97e-05
5.97005e-05
5.97009e-05
5.97013e-05
5.97018e-05
5.97022e-05
5.97027e-05
5.97032e-05
5.97036e-05
5.97041e-05
5.97046e-05
5.97051e-05
5.97056e-05
5.97061e-05
5.97066e-05
5.97072e-05
5.97077e-05
5.97082e-05
5.97087e-05
5.97093e-05
5.97098e-05
5.97104e-05
5.97109e-05
5.97114e-05
5.9712e-05
5.97125e-05
5.97131e-05
5.97136e-05
5.97141e-05
5.97147e-05
5.97152e-05
5.97157e-05
5.97161e-05
5.97166e-05
5.9717e-05
5.97174e-05
5.97171e-05
5.97204e-05
5.85768e-05
5.85737e-05
5.85734e-05
5.85738e-05
5.85743e-05
5.85748e-05
5.85753e-05
5.85757e-05
5.85761e-05
5.85765e-05
5.85769e-05
5.85772e-05
5.85775e-05
5.85778e-05
5.85781e-05
5.85784e-05
5.85787e-05
5.8579e-05
5.85792e-05
5.85795e-05
5.85798e-05
5.85801e-05
5.85804e-05
5.85807e-05
5.8581e-05
5.85813e-05
5.85816e-05
5.8582e-05
5.85823e-05
5.85827e-05
5.8583e-05
5.85834e-05
5.85838e-05
5.85842e-05
5.85846e-05
5.85851e-05
5.85855e-05
5.8586e-05
5.85865e-05
5.85869e-05
5.85874e-05
5.85879e-05
5.85884e-05
5.85889e-05
5.85894e-05
5.85899e-05
5.85904e-05
5.8591e-05
5.85915e-05
5.8592e-05
5.85925e-05
5.8593e-05
5.85935e-05
5.8594e-05
5.85944e-05
5.85948e-05
5.85953e-05
5.85952e-05
5.85979e-05
5.76212e-05
5.76185e-05
5.76183e-05
5.76186e-05
5.7619e-05
5.76193e-05
5.76196e-05
5.76199e-05
5.76202e-05
5.76205e-05
5.76207e-05
5.76209e-05
5.76211e-05
5.76213e-05
5.76215e-05
5.76216e-05
5.76218e-05
5.76219e-05
5.76221e-05
5.76222e-05
5.76224e-05
5.76225e-05
5.76227e-05
5.76229e-05
5.76231e-05
5.76232e-05
5.76235e-05
5.76237e-05
5.76239e-05
5.76242e-05
5.76244e-05
5.76247e-05
5.7625e-05
5.76253e-05
5.76257e-05
5.7626e-05
5.76264e-05
5.76268e-05
5.76272e-05
5.76276e-05
5.7628e-05
5.76285e-05
5.76289e-05
5.76294e-05
5.76298e-05
5.76303e-05
5.76308e-05
5.76313e-05
5.76318e-05
5.76323e-05
5.76328e-05
5.76333e-05
5.76338e-05
5.76342e-05
5.76347e-05
5.76351e-05
5.76355e-05
5.76355e-05
5.76378e-05
5.68162e-05
5.68141e-05
5.68138e-05
5.6814e-05
5.68143e-05
5.68145e-05
5.68147e-05
5.68149e-05
5.6815e-05
5.68151e-05
5.68152e-05
5.68153e-05
5.68154e-05
5.68155e-05
5.68155e-05
5.68156e-05
5.68156e-05
5.68156e-05
5.68157e-05
5.68157e-05
5.68157e-05
5.68158e-05
5.68158e-05
5.68159e-05
5.6816e-05
5.68161e-05
5.68162e-05
5.68163e-05
5.68164e-05
5.68166e-05
5.68167e-05
5.68169e-05
5.68171e-05
5.68174e-05
5.68176e-05
5.68179e-05
5.68182e-05
5.68185e-05
5.68189e-05
5.68192e-05
5.68196e-05
5.682e-05
5.68204e-05
5.68208e-05
5.68212e-05
5.68217e-05
5.68221e-05
5.68226e-05
5.68231e-05
5.68235e-05
5.6824e-05
5.68244e-05
5.68249e-05
5.68253e-05
5.68258e-05
5.68262e-05
5.68266e-05
5.68267e-05
5.68285e-05
5.61498e-05
5.61481e-05
5.61479e-05
5.6148e-05
5.61481e-05
5.61482e-05
5.61483e-05
5.61484e-05
5.61484e-05
5.61484e-05
5.61484e-05
5.61484e-05
5.61483e-05
5.61483e-05
5.61482e-05
5.61482e-05
5.61481e-05
5.6148e-05
5.6148e-05
5.61479e-05
5.61478e-05
5.61478e-05
5.61477e-05
5.61477e-05
5.61477e-05
5.61477e-05
5.61477e-05
5.61477e-05
5.61477e-05
5.61478e-05
5.61479e-05
5.6148e-05
5.61481e-05
5.61483e-05
5.61485e-05
5.61487e-05
5.61489e-05
5.61492e-05
5.61495e-05
5.61498e-05
5.61501e-05
5.61504e-05
5.61508e-05
5.61511e-05
5.61515e-05
5.61519e-05
5.61523e-05
5.61528e-05
5.61532e-05
5.61536e-05
5.61541e-05
5.61545e-05
5.61549e-05
5.61553e-05
5.61557e-05
5.61561e-05
5.61565e-05
5.61566e-05
5.6158e-05
5.56097e-05
5.56085e-05
5.56083e-05
5.56083e-05
5.56083e-05
5.56083e-05
5.56082e-05
5.56082e-05
5.56081e-05
5.5608e-05
5.56079e-05
5.56078e-05
5.56076e-05
5.56075e-05
5.56073e-05
5.56072e-05
5.5607e-05
5.56068e-05
5.56067e-05
5.56065e-05
5.56064e-05
5.56062e-05
5.56061e-05
5.56059e-05
5.56058e-05
5.56057e-05
5.56057e-05
5.56056e-05
5.56056e-05
5.56056e-05
5.56056e-05
5.56056e-05
5.56057e-05
5.56058e-05
5.56059e-05
5.56061e-05
5.56062e-05
5.56064e-05
5.56066e-05
5.56069e-05
5.56072e-05
5.56074e-05
5.56077e-05
5.56081e-05
5.56084e-05
5.56088e-05
5.56091e-05
5.56095e-05
5.56099e-05
5.56103e-05
5.56107e-05
5.56111e-05
5.56115e-05
5.56119e-05
5.56123e-05
5.56126e-05
5.5613e-05
5.56132e-05
5.56142e-05
5.51837e-05
5.51829e-05
5.51827e-05
5.51826e-05
5.51825e-05
5.51824e-05
5.51823e-05
5.51821e-05
5.51819e-05
5.51817e-05
5.51815e-05
5.51813e-05
5.51811e-05
5.51808e-05
5.51806e-05
5.51803e-05
5.51801e-05
5.51798e-05
5.51796e-05
5.51793e-05
5.51791e-05
5.51789e-05
5.51787e-05
5.51785e-05
5.51783e-05
5.51781e-05
5.5178e-05
5.51778e-05
5.51777e-05
5.51777e-05
5.51776e-05
5.51776e-05
5.51776e-05
5.51776e-05
5.51777e-05
5.51778e-05
5.51779e-05
5.5178e-05
5.51782e-05
5.51784e-05
5.51786e-05
5.51789e-05
5.51791e-05
5.51794e-05
5.51797e-05
5.518e-05
5.51804e-05
5.51807e-05
5.51811e-05
5.51814e-05
5.51818e-05
5.51821e-05
5.51825e-05
5.51829e-05
5.51832e-05
5.51835e-05
5.51839e-05
5.51841e-05
5.51847e-05
5.48599e-05
5.48596e-05
5.48594e-05
5.48592e-05
5.4859e-05
5.48588e-05
5.48585e-05
5.48583e-05
5.4858e-05
5.48577e-05
5.48574e-05
5.48571e-05
5.48568e-05
5.48564e-05
5.48561e-05
5.48558e-05
5.48554e-05
5.48551e-05
5.48548e-05
5.48545e-05
5.48542e-05
5.48539e-05
5.48536e-05
5.48533e-05
5.48531e-05
5.48528e-05
5.48526e-05
5.48524e-05
5.48523e-05
5.48522e-05
5.4852e-05
5.4852e-05
5.48519e-05
5.48519e-05
5.48519e-05
5.4852e-05
5.4852e-05
5.48521e-05
5.48522e-05
5.48524e-05
5.48526e-05
5.48528e-05
5.4853e-05
5.48532e-05
5.48535e-05
5.48538e-05
5.48541e-05
5.48544e-05
5.48547e-05
5.4855e-05
5.48553e-05
5.48557e-05
5.4856e-05
5.48563e-05
5.48566e-05
5.48569e-05
5.48572e-05
5.48575e-05
5.48577e-05
5.46269e-05
5.4627e-05
5.46268e-05
5.46266e-05
5.46263e-05
5.46259e-05
5.46256e-05
5.46253e-05
5.46249e-05
5.46245e-05
5.46241e-05
5.46237e-05
5.46233e-05
5.46229e-05
5.46225e-05
5.46221e-05
5.46217e-05
5.46213e-05
5.46209e-05
5.46206e-05
5.46202e-05
5.46198e-05
5.46195e-05
5.46192e-05
5.46189e-05
5.46186e-05
5.46183e-05
5.46181e-05
5.46179e-05
5.46177e-05
5.46175e-05
5.46174e-05
5.46173e-05
5.46172e-05
5.46172e-05
5.46172e-05
5.46172e-05
5.46173e-05
5.46174e-05
5.46175e-05
5.46176e-05
5.46178e-05
5.46179e-05
5.46182e-05
5.46184e-05
5.46186e-05
5.46189e-05
5.46192e-05
5.46194e-05
5.46197e-05
5.462e-05
5.46203e-05
5.46206e-05
5.46209e-05
5.46212e-05
5.46214e-05
5.46217e-05
5.46219e-05
5.46219e-05
5.4474e-05
5.44745e-05
5.44743e-05
5.4474e-05
5.44736e-05
5.44732e-05
5.44728e-05
5.44724e-05
5.44719e-05
5.44715e-05
5.4471e-05
5.44705e-05
5.44701e-05
5.44696e-05
5.44691e-05
5.44686e-05
5.44682e-05
5.44677e-05
5.44673e-05
5.44668e-05
5.44664e-05
5.4466e-05
5.44656e-05
5.44652e-05
5.44649e-05
5.44645e-05
5.44642e-05
5.44639e-05
5.44637e-05
5.44634e-05
5.44632e-05
5.44631e-05
5.44629e-05
5.44628e-05
5.44628e-05
5.44627e-05
5.44627e-05
5.44627e-05
5.44628e-05
5.44629e-05
5.4463e-05
5.44631e-05
5.44632e-05
5.44634e-05
5.44636e-05
5.44638e-05
5.4464e-05
5.44643e-05
5.44645e-05
5.44648e-05
5.4465e-05
5.44653e-05
5.44655e-05
5.44658e-05
5.4466e-05
5.44663e-05
5.44665e-05
5.44667e-05
5.44665e-05
5.43912e-05
5.4392e-05
5.43918e-05
5.43915e-05
5.4391e-05
5.43905e-05
5.439e-05
5.43895e-05
5.4389e-05
5.43885e-05
5.4388e-05
5.43874e-05
5.43869e-05
5.43864e-05
5.43858e-05
5.43853e-05
5.43848e-05
5.43843e-05
5.43837e-05
5.43833e-05
5.43828e-05
5.43823e-05
5.43819e-05
5.43815e-05
5.43811e-05
5.43807e-05
5.43803e-05
5.438e-05
5.43797e-05
5.43794e-05
5.43792e-05
5.4379e-05
5.43788e-05
5.43787e-05
5.43786e-05
5.43785e-05
5.43785e-05
5.43785e-05
5.43785e-05
5.43785e-05
5.43786e-05
5.43787e-05
5.43788e-05
5.43789e-05
5.43791e-05
5.43793e-05
5.43795e-05
5.43797e-05
5.43799e-05
5.43801e-05
5.43803e-05
5.43805e-05
5.43808e-05
5.4381e-05
5.43812e-05
5.43814e-05
5.43816e-05
5.43818e-05
5.43813e-05
5.43692e-05
5.43703e-05
5.43702e-05
5.43697e-05
5.43692e-05
5.43687e-05
5.43681e-05
5.43675e-05
5.4367e-05
5.43664e-05
5.43658e-05
5.43652e-05
5.43646e-05
5.4364e-05
5.43634e-05
5.43628e-05
5.43622e-05
5.43617e-05
5.43611e-05
5.43606e-05
5.43601e-05
5.43596e-05
5.43591e-05
5.43586e-05
5.43582e-05
5.43578e-05
5.43574e-05
5.4357e-05
5.43567e-05
5.43564e-05
5.43561e-05
5.43559e-05
5.43557e-05
5.43555e-05
5.43554e-05
5.43553e-05
5.43552e-05
5.43552e-05
5.43551e-05
5.43552e-05
5.43552e-05
5.43553e-05
5.43554e-05
5.43555e-05
5.43556e-05
5.43557e-05
5.43559e-05
5.43561e-05
5.43563e-05
5.43564e-05
5.43566e-05
5.43568e-05
5.4357e-05
5.43572e-05
5.43574e-05
5.43575e-05
5.43577e-05
5.43579e-05
5.43572e-05
5.43996e-05
5.4401e-05
5.44008e-05
5.44003e-05
5.43998e-05
5.43992e-05
5.43985e-05
5.43979e-05
5.43973e-05
5.43966e-05
5.4396e-05
5.43953e-05
5.43947e-05
5.4394e-05
5.43934e-05
5.43928e-05
5.43921e-05
5.43915e-05
5.43909e-05
5.43903e-05
5.43898e-05
5.43892e-05
5.43887e-05
5.43882e-05
5.43877e-05
5.43873e-05
5.43869e-05
5.43865e-05
5.43861e-05
5.43858e-05
5.43855e-05
5.43853e-05
5.4385e-05
5.43848e-05
5.43847e-05
5.43845e-05
5.43844e-05
5.43844e-05
5.43843e-05
5.43843e-05
5.43843e-05
5.43844e-05
5.43844e-05
5.43845e-05
5.43846e-05
5.43847e-05
5.43849e-05
5.4385e-05
5.43852e-05
5.43853e-05
5.43855e-05
5.43856e-05
5.43858e-05
5.43859e-05
5.43861e-05
5.43862e-05
5.43863e-05
5.43865e-05
5.43857e-05
5.44746e-05
5.44762e-05
5.44761e-05
5.44756e-05
5.4475e-05
5.44743e-05
5.44736e-05
5.44729e-05
5.44722e-05
5.44715e-05
5.44708e-05
5.44701e-05
5.44694e-05
5.44688e-05
5.44681e-05
5.44674e-05
5.44667e-05
5.44661e-05
5.44654e-05
5.44648e-05
5.44642e-05
5.44637e-05
5.44631e-05
5.44626e-05
5.44621e-05
5.44616e-05
5.44611e-05
5.44607e-05
5.44603e-05
5.446e-05
5.44597e-05
5.44594e-05
5.44591e-05
5.44589e-05
5.44587e-05
5.44586e-05
5.44585e-05
5.44584e-05
5.44583e-05
5.44583e-05
5.44582e-05
5.44583e-05
5.44583e-05
5.44584e-05
5.44584e-05
5.44585e-05
5.44586e-05
5.44587e-05
5.44589e-05
5.4459e-05
5.44591e-05
5.44593e-05
5.44594e-05
5.44595e-05
5.44596e-05
5.44597e-05
5.44598e-05
5.446e-05
5.44591e-05
5.45873e-05
5.45892e-05
5.45891e-05
5.45885e-05
5.45878e-05
5.45871e-05
5.45864e-05
5.45857e-05
5.45849e-05
5.45842e-05
5.45834e-05
5.45827e-05
5.4582e-05
5.45812e-05
5.45805e-05
5.45798e-05
5.45791e-05
5.45784e-05
5.45777e-05
5.45771e-05
5.45765e-05
5.45759e-05
5.45753e-05
5.45747e-05
5.45742e-05
5.45737e-05
5.45732e-05
5.45728e-05
5.45724e-05
5.4572e-05
5.45716e-05
5.45713e-05
5.45711e-05
5.45708e-05
5.45706e-05
5.45704e-05
5.45703e-05
5.45702e-05
5.45701e-05
5.457e-05
5.457e-05
5.457e-05
5.457e-05
5.457e-05
5.45701e-05
5.45701e-05
5.45702e-05
5.45703e-05
5.45704e-05
5.45705e-05
5.45706e-05
5.45707e-05
5.45708e-05
5.45709e-05
5.4571e-05
5.4571e-05
5.45711e-05
5.45712e-05
5.45702e-05
5.47315e-05
5.47336e-05
5.47335e-05
5.47329e-05
5.47322e-05
5.47314e-05
5.47307e-05
5.47299e-05
5.47291e-05
5.47283e-05
5.47275e-05
5.47268e-05
5.4726e-05
5.47252e-05
5.47244e-05
5.47237e-05
5.4723e-05
5.47223e-05
5.47216e-05
5.47209e-05
5.47202e-05
5.47196e-05
5.4719e-05
5.47184e-05
5.47178e-05
5.47173e-05
5.47168e-05
5.47163e-05
5.47159e-05
5.47155e-05
5.47151e-05
5.47148e-05
5.47145e-05
5.47143e-05
5.4714e-05
5.47138e-05
5.47137e-05
5.47135e-05
5.47134e-05
5.47133e-05
5.47133e-05
5.47133e-05
5.47133e-05
5.47133e-05
5.47133e-05
5.47133e-05
5.47134e-05
5.47134e-05
5.47135e-05
5.47136e-05
5.47137e-05
5.47137e-05
5.47138e-05
5.47139e-05
5.47139e-05
5.47139e-05
5.47139e-05
5.47141e-05
5.4713e-05
5.49016e-05
5.49039e-05
5.49038e-05
5.49032e-05
5.49024e-05
5.49016e-05
5.49008e-05
5.49e-05
5.48992e-05
5.48983e-05
5.48975e-05
5.48967e-05
5.48959e-05
5.48951e-05
5.48943e-05
5.48935e-05
5.48928e-05
5.4892e-05
5.48913e-05
5.48906e-05
5.48899e-05
5.48892e-05
5.48886e-05
5.4888e-05
5.48874e-05
5.48869e-05
5.48863e-05
5.48859e-05
5.48854e-05
5.4885e-05
5.48846e-05
5.48843e-05
5.48839e-05
5.48837e-05
5.48834e-05
5.48832e-05
5.4883e-05
5.48829e-05
5.48827e-05
5.48826e-05
5.48826e-05
5.48825e-05
5.48825e-05
5.48825e-05
5.48825e-05
5.48825e-05
5.48825e-05
5.48825e-05
5.48826e-05
5.48826e-05
5.48827e-05
5.48827e-05
5.48828e-05
5.48828e-05
5.48828e-05
5.48828e-05
5.48828e-05
5.48829e-05
5.48818e-05
5.50926e-05
5.50951e-05
5.5095e-05
5.50943e-05
5.50935e-05
5.50927e-05
5.50918e-05
5.5091e-05
5.50901e-05
5.50893e-05
5.50884e-05
5.50876e-05
5.50867e-05
5.50859e-05
5.50851e-05
5.50843e-05
5.50835e-05
5.50827e-05
5.5082e-05
5.50812e-05
5.50805e-05
5.50798e-05
5.50792e-05
5.50785e-05
5.50779e-05
5.50774e-05
5.50768e-05
5.50763e-05
5.50759e-05
5.50754e-05
5.5075e-05
5.50747e-05
5.50743e-05
5.5074e-05
5.50737e-05
5.50735e-05
5.50733e-05
5.50731e-05
5.5073e-05
5.50729e-05
5.50728e-05
5.50727e-05
5.50726e-05
5.50726e-05
5.50726e-05
5.50726e-05
5.50726e-05
5.50726e-05
5.50726e-05
5.50726e-05
5.50727e-05
5.50727e-05
5.50727e-05
5.50727e-05
5.50727e-05
5.50726e-05
5.50726e-05
5.50727e-05
5.50716e-05
5.53001e-05
5.53027e-05
5.53026e-05
5.53019e-05
5.53011e-05
5.53002e-05
5.52993e-05
5.52984e-05
5.52976e-05
5.52967e-05
5.52958e-05
5.52949e-05
5.52941e-05
5.52932e-05
5.52924e-05
5.52915e-05
5.52907e-05
5.52899e-05
5.52891e-05
5.52884e-05
5.52876e-05
5.52869e-05
5.52863e-05
5.52856e-05
5.5285e-05
5.52844e-05
5.52838e-05
5.52833e-05
5.52828e-05
5.52824e-05
5.52819e-05
5.52816e-05
5.52812e-05
5.52809e-05
5.52806e-05
5.52803e-05
5.52801e-05
5.52799e-05
5.52798e-05
5.52796e-05
5.52795e-05
5.52794e-05
5.52793e-05
5.52793e-05
5.52792e-05
5.52792e-05
5.52792e-05
5.52792e-05
5.52792e-05
5.52792e-05
5.52791e-05
5.52791e-05
5.52791e-05
5.52791e-05
5.52791e-05
5.5279e-05
5.52789e-05
5.5279e-05
5.52779e-05
5.55201e-05
5.55228e-05
5.55227e-05
5.5522e-05
5.55212e-05
5.55203e-05
5.55194e-05
5.55185e-05
5.55175e-05
5.55166e-05
5.55157e-05
5.55148e-05
5.55139e-05
5.55131e-05
5.55122e-05
5.55113e-05
5.55105e-05
5.55097e-05
5.55089e-05
5.55081e-05
5.55073e-05
5.55066e-05
5.55059e-05
5.55052e-05
5.55046e-05
5.5504e-05
5.55034e-05
5.55029e-05
5.55024e-05
5.55019e-05
5.55015e-05
5.5501e-05
5.55007e-05
5.55003e-05
5.55e-05
5.54998e-05
5.54995e-05
5.54993e-05
5.54991e-05
5.54989e-05
5.54988e-05
5.54987e-05
5.54986e-05
5.54985e-05
5.54984e-05
5.54984e-05
5.54983e-05
5.54983e-05
5.54983e-05
5.54982e-05
5.54982e-05
5.54982e-05
5.54981e-05
5.54981e-05
5.5498e-05
5.54979e-05
5.54978e-05
5.54978e-05
5.54968e-05
5.57491e-05
5.5752e-05
5.57519e-05
5.57512e-05
5.57503e-05
5.57494e-05
5.57485e-05
5.57475e-05
5.57466e-05
5.57457e-05
5.57447e-05
5.57438e-05
5.57429e-05
5.5742e-05
5.57411e-05
5.57402e-05
5.57394e-05
5.57385e-05
5.57377e-05
5.57369e-05
5.57361e-05
5.57354e-05
5.57347e-05
5.5734e-05
5.57333e-05
5.57327e-05
5.57321e-05