/*--------------------------------*- C++ -*----------------------------------*\
  =========                 |
  \\      /  F ield         | OpenFOAM: The Open Source CFD Toolbox
   \\    /   O peration     | Website:  https://openfoam.org
    \\  /    A nd           | Version:  7
     \\/     M anipulation  |
\*---------------------------------------------------------------------------*/
FoamFile
{
    version     2.0;
    format      ascii;
    class       volVectorField;
    location    "1000";
    object      U;
}
// * * * * * * * * * * * * * * * * * * * * * * * * * * * * * * * * * * * * * //

dimensions      [0 1 -1 0 0 0 0];

internalField   nonuniform List<vector> 
3974
(
(0.131935 -7.64598e-07 -9.36839e-16)
(0.131935 -7.35155e-07 -8.85113e-16)
(0.131936 -6.3515e-07 -9.38406e-16)
(0.131936 -5.57032e-07 -8.85497e-16)
(0.131936 -4.98615e-07 -9.82236e-16)
(0.131936 -4.52944e-07 -8.90871e-16)
(0.131936 -4.16733e-07 -9.31703e-16)
(0.131936 -3.88295e-07 -9.98546e-16)
(0.131936 -3.6636e-07 -9.29335e-16)
(0.131936 -3.49801e-07 -9.73275e-16)
(0.131936 -3.37552e-07 -9.26818e-16)
(0.131935 -3.28613e-07 -9.40783e-16)
(0.131935 -3.22077e-07 -9.9453e-16)
(0.131935 -3.17152e-07 -9.30421e-16)
(0.131935 -3.13182e-07 -9.78683e-16)
(0.131935 -3.09649e-07 -9.47277e-16)
(0.131935 -3.06184e-07 -9.65723e-16)
(0.131935 -3.02567e-07 -1.01176e-15)
(0.131935 -2.9872e-07 -9.36858e-16)
(0.131935 -2.9469e-07 -1.00467e-15)
(0.131935 -2.90636e-07 -1.00993e-15)
(0.131935 -2.86801e-07 -1.03861e-15)
(0.131935 -2.83487e-07 -1.12135e-15)
(0.131934 -2.81025e-07 -1.06008e-15)
(0.131934 -2.7974e-07 -1.16364e-15)
(0.131934 -2.79921e-07 -1.08169e-15)
(0.131934 -2.81781e-07 -1.05382e-15)
(0.131934 -2.85442e-07 -1.08396e-15)
(0.131934 -2.9088e-07 -1.02708e-15)
(0.131934 -2.97946e-07 -1.14535e-15)
(0.131934 -3.06295e-07 -1.11644e-15)
(0.131934 -3.15394e-07 -1.07159e-15)
(0.131934 -3.24647e-07 -1.17113e-15)
(0.131934 -3.32442e-07 -1.09674e-15)
(0.131934 -3.39555e-07 -1.06463e-15)
(0.131934 -3.34339e-07 -1.16315e-15)
(0.131934 -3.44088e-07 -1.1135e-15)
(0.131934 -1.76786e-07 -1.22782e-15)
(0.133013 -3.51028e-07 -7.78309e-16)
(0.133013 -6.2483e-07 -7.98325e-16)
(0.133013 -7.92101e-07 -7.72275e-16)
(0.133012 -7.17035e-07 -7.24147e-16)
(0.133012 -6.19434e-07 -7.73322e-16)
(0.133012 -5.48827e-07 -7.46727e-16)
(0.133012 -4.92905e-07 -7.82977e-16)
(0.133012 -4.47574e-07 -7.55175e-16)
(0.133012 -4.10976e-07 -7.45409e-16)
(0.133011 -3.81881e-07 -8.29885e-16)
(0.133011 -3.59193e-07 -7.81741e-16)
(0.133011 -3.41867e-07 -8.30513e-16)
(0.133011 -3.28886e-07 -7.91448e-16)
(0.133011 -3.19282e-07 -7.66746e-16)
(0.133011 -3.12173e-07 -8.39403e-16)
(0.133011 -3.06784e-07 -7.99946e-16)
(0.133011 -3.02465e-07 -8.49188e-16)
(0.133011 -2.98702e-07 -8.15624e-16)
(0.13301 -2.95124e-07 -7.92599e-16)
(0.13301 -2.915e-07 -8.46823e-16)
(0.13301 -2.8774e-07 -8.04381e-16)
(0.13301 -2.83879e-07 -8.81996e-16)
(0.13301 -2.80062e-07 -8.73678e-16)
(0.13301 -2.76522e-07 -8.5502e-16)
(0.13301 -2.73549e-07 -9.57067e-16)
(0.13301 -2.71468e-07 -9.24461e-16)
(0.13301 -2.70599e-07 -9.85447e-16)
(0.13301 -2.71232e-07 -9.36873e-16)
(0.133009 -2.73583e-07 -8.71273e-16)
(0.133009 -2.7778e-07 -9.26077e-16)
(0.133009 -2.83811e-07 -9.0251e-16)
(0.133009 -2.9154e-07 -9.64365e-16)
(0.133009 -3.00634e-07 -9.77601e-16)
(0.133009 -3.10588e-07 -9.29495e-16)
(0.133009 -3.20788e-07 -9.59933e-16)
(0.133009 -3.2975e-07 -9.37512e-16)
(0.133009 -3.37943e-07 -9.16658e-16)
(0.133009 -3.35216e-07 -9.68193e-16)
(0.133009 -3.44169e-07 -9.5739e-16)
(0.133009 -2.06573e-07 -1.01605e-15)
(0.13301 -3.22814e-08 -1.00501e-15)
(0.13301 1.39139e-07 -9.74033e-16)
(0.13404 8.89251e-07 -5.55254e-16)
(0.13404 1.34421e-07 -6.8672e-16)
(0.13404 -3.75616e-07 -6.50016e-16)
(0.13404 -5.75306e-07 -6.2016e-16)
(0.134038 -6.90687e-07 -5.93178e-16)
(0.134037 -6.28656e-07 -5.51781e-16)
(0.134037 -5.70921e-07 -6.18619e-16)
(0.134036 -5.19313e-07 -5.91087e-16)
(0.134036 -4.71319e-07 -6.56112e-16)
(0.134036 -4.29806e-07 -6.0457e-16)
(0.134036 -3.95166e-07 -5.63265e-16)
(0.134035 -3.67059e-07 -6.55434e-16)
(0.134035 -3.44812e-07 -6.23688e-16)
(0.134035 -3.27613e-07 -6.88452e-16)
(0.134035 -3.14585e-07 -6.35198e-16)
(0.134035 -3.04854e-07 -5.91964e-16)
(0.134035 -2.976e-07 -6.94642e-16)
(0.134034 -2.92093e-07 -6.58485e-16)
(0.134034 -2.87715e-07 -7.33799e-16)
(0.134034 -2.83968e-07 -6.73742e-16)
(0.134034 -2.80487e-07 -6.22649e-16)
(0.134034 -2.77042e-07 -7.04602e-16)
(0.134034 -2.73536e-07 -6.54948e-16)
(0.134034 -2.69994e-07 -7.36316e-16)
(0.134033 -2.66551e-07 -7.19101e-16)
(0.134033 -2.63427e-07 -6.72664e-16)
(0.134033 -2.60906e-07 -8.03523e-16)
(0.134033 -2.59303e-07 -7.67132e-16)
(0.134033 -2.58936e-07 -8.47455e-16)
(0.134033 -2.60093e-07 -7.76077e-16)
(0.134033 -2.62994e-07 -6.94035e-16)
(0.134033 -2.67778e-07 -7.78233e-16)
(0.134033 -2.7444e-07 -7.5656e-16)
(0.134032 -2.82864e-07 -8.27789e-16)
(0.134032 -2.92729e-07 -8.21233e-16)
(0.134032 -3.03564e-07 -7.69763e-16)
(0.134032 -3.14741e-07 -7.648e-16)
(0.134032 -3.24933e-07 -7.64788e-16)
(0.134032 -3.34192e-07 -7.63398e-16)
(0.134032 -3.34732e-07 -7.9365e-16)
(0.134032 -3.39955e-07 -7.96046e-16)
(0.134032 -2.76938e-07 -8.25086e-16)
(0.134034 -1.59384e-07 -8.32146e-16)
(0.134034 3.43643e-08 -8.16486e-16)
(0.134036 2.09675e-07 -8.22234e-16)
(0.134037 2.05485e-07 -8.07484e-16)
(0.134037 1.42407e-07 -8.34401e-16)
(0.134037 9.16182e-08 -8.43851e-16)
(0.134037 6.38414e-08 -8.43632e-16)
(0.134038 5.27799e-08 -8.70663e-16)
(0.134038 5.26292e-08 -8.69996e-16)
(0.134038 6.06109e-08 -8.96484e-16)
(0.134038 7.52404e-08 -8.93357e-16)
(0.134038 9.51584e-08 -8.64677e-16)
(0.134038 1.2841e-07 -8.62606e-16)
(0.134038 1.59489e-07 -8.48169e-16)
(0.134038 2.68234e-07 -8.7797e-16)
(0.134039 2.99451e-07 -8.84871e-16)
(0.134039 8.9105e-07 -8.757e-16)
(0.135017 8.0679e-07 -3.86264e-16)
(0.135017 1.40187e-07 -5.457e-16)
(0.135016 -2.9811e-07 -5.03181e-16)
(0.135016 -4.41524e-07 -4.36174e-16)
(0.135015 -5.4411e-07 -4.11958e-16)
(0.135014 -5.29574e-07 -3.6961e-16)
(0.135013 -5.04691e-07 -4.81679e-16)
(0.135012 -4.72001e-07 -4.19127e-16)
(0.135012 -4.35195e-07 -5.71836e-16)
(0.135012 -4.00299e-07 -4.30601e-16)
(0.135011 -3.69639e-07 -3.78304e-16)
(0.135011 -3.43991e-07 -5.06497e-16)
(0.135011 -3.23289e-07 -4.53361e-16)
(0.135011 -3.07062e-07 -5.44625e-16)
(0.13501 -2.94645e-07 -4.54907e-16)
(0.13501 -2.85308e-07 -4.11604e-16)
(0.13501 -2.78328e-07 -5.53412e-16)
(0.13501 -2.73048e-07 -5.0422e-16)
(0.13501 -2.68896e-07 -6.00255e-16)
(0.13501 -2.65407e-07 -5.0999e-16)
(0.135009 -2.62235e-07 -4.49341e-16)
(0.135009 -2.59156e-07 -5.70213e-16)
(0.135009 -2.56072e-07 -4.91973e-16)
(0.135009 -2.53003e-07 -6.02984e-16)
(0.135009 -2.50076e-07 -5.34514e-16)
(0.135009 -2.475e-07 -4.85097e-16)
(0.135008 -2.45552e-07 -7.02202e-16)
(0.135008 -2.4454e-07 -5.9046e-16)
(0.135008 -2.44775e-07 -7.40346e-16)
(0.135008 -2.46548e-07 -5.9415e-16)
(0.135008 -2.5008e-07 -5.13299e-16)
(0.135008 -2.55517e-07 -7.55118e-16)
(0.135008 -2.62869e-07 -5.88604e-16)
(0.135007 -2.72036e-07 -6.9466e-16)
(0.135007 -2.82713e-07 -6.36746e-16)
(0.135007 -2.94464e-07 -5.88893e-16)
(0.135007 -3.06648e-07 -5.7662e-16)
(0.135007 -3.1812e-07 -5.92713e-16)
(0.135007 -3.2846e-07 -6.07379e-16)
(0.135007 -3.32629e-07 -6.27831e-16)
(0.135007 -3.33409e-07 -6.34067e-16)
(0.135007 -3.39824e-07 -6.45582e-16)
(0.135008 -2.82082e-07 -6.55665e-16)
(0.135008 -1.25191e-07 -6.53439e-16)
(0.13501 3.16492e-08 -6.50408e-16)
(0.135012 9.93919e-08 -6.41653e-16)
(0.135012 8.9865e-08 -6.50758e-16)
(0.135013 6.24971e-08 -6.63294e-16)
(0.135013 4.29074e-08 -6.7497e-16)
(0.135013 3.47054e-08 -6.89825e-16)
(0.135014 3.56759e-08 -6.93582e-16)
(0.135014 4.41056e-08 -7.05016e-16)
(0.135014 5.86319e-08 -7.08528e-16)
(0.135014 7.83413e-08 -6.94419e-16)
(0.135014 1.10087e-07 -6.86296e-16)
(0.135014 1.4061e-07 -6.7868e-16)
(0.135015 2.41911e-07 -6.91355e-16)
(0.135015 2.74209e-07 -7.01345e-16)
(0.135015 8.1718e-07 -7.02369e-16)
(0.135945 6.87579e-07 -2.13968e-16)
(0.135945 1.70071e-07 -3.37549e-16)
(0.135945 -1.9318e-07 -2.92839e-16)
(0.135944 -3.38508e-07 -2.58179e-16)
(0.135943 -4.33457e-07 -2.29736e-16)
(0.135943 -4.34258e-07 -1.77174e-16)
(0.135942 -4.28309e-07 -2.45468e-16)
(0.135941 -4.12202e-07 -2.20055e-16)
(0.135941 -3.87427e-07 -2.84594e-16)
(0.13594 -3.60599e-07 -1.98468e-16)
(0.13594 -3.35275e-07 -2.01643e-16)
(0.13594 -3.132e-07 -2.75549e-16)
(0.135939 -2.9493e-07 -2.54198e-16)
(0.135939 -2.80382e-07 -3.1204e-16)
(0.135939 -2.69146e-07 -2.14036e-16)
(0.135939 -2.60664e-07 -2.39913e-16)
(0.135938 -2.54338e-07 -3.40189e-16)
(0.135938 -2.49598e-07 -3.0297e-16)
(0.135938 -2.45937e-07 -3.7992e-16)
(0.135938 -2.42934e-07 -2.86439e-16)
(0.135938 -2.40268e-07 -2.85042e-16)
(0.135937 -2.37731e-07 -3.58658e-16)
(0.135937 -2.35228e-07 -2.91381e-16)
(0.135937 -2.32778e-07 -3.64824e-16)
(0.135937 -2.30499e-07 -2.89163e-16)
(0.135937 -2.28595e-07 -3.02761e-16)
(0.135936 -2.27331e-07 -4.20452e-16)
(0.135936 -2.27011e-07 -3.72944e-16)
(0.135936 -2.27941e-07 -4.46055e-16)
(0.135936 -2.3041e-07 -3.32737e-16)
(0.135936 -2.34643e-07 -3.39914e-16)
(0.135936 -2.40793e-07 -4.22857e-16)
(0.135936 -2.48884e-07 -3.83581e-16)
(0.135935 -2.58834e-07 -4.51954e-16)
(0.135935 -2.70357e-07 -3.9585e-16)
(0.135935 -2.83057e-07 -3.92487e-16)
(0.135935 -2.96281e-07 -3.93867e-16)
(0.135935 -3.09078e-07 -4.37787e-16)
(0.135935 -3.20568e-07 -4.52207e-16)
(0.135935 -3.28283e-07 -4.64268e-16)
(0.135935 -3.27166e-07 -4.72159e-16)
(0.135935 -3.60927e-07 -4.71173e-16)
(0.135935 -3.42434e-07 -4.77656e-16)
(0.135936 -2.5937e-07 -4.87203e-16)
(0.135937 -1.49015e-07 -4.79099e-16)
(0.135938 -2.95122e-08 -4.73537e-16)
(0.135939 1.16098e-08 -4.70367e-16)
(0.135939 1.32608e-08 -4.78961e-16)
(0.13594 7.70657e-09 -5.01387e-16)
(0.13594 6.12809e-09 -5.09225e-16)
(0.13594 1.04267e-08 -5.15088e-16)
(0.135941 2.06682e-08 -5.164e-16)
(0.135941 3.59729e-08 -5.22365e-16)
(0.135941 5.60655e-08 -5.19903e-16)
(0.135941 8.65525e-08 -5.08441e-16)
(0.135941 1.16805e-07 -5.05151e-16)
(0.135942 2.09181e-07 -5.0592e-16)
(0.135942 2.44326e-07 -5.12311e-16)
(0.135942 7.0909e-07 -5.24107e-16)
(0.136827 5.47375e-07 -5.81016e-17)
(0.136827 1.57598e-07 -9.82454e-17)
(0.136827 -1.35298e-07 2.60587e-17)
(0.136827 -2.60992e-07 -7.59131e-17)
(0.136826 -3.42377e-07 -6.27772e-17)
(0.136825 -3.46547e-07 3.99178e-17)
(0.136825 -3.50463e-07 -2.51756e-17)
(0.136824 -3.46181e-07 3.21188e-17)
(0.136823 -3.31873e-07 -4.2854e-17)
(0.136823 -3.13105e-07 6.29836e-17)
(0.136823 -2.93633e-07 -4.76329e-17)
(0.136822 -2.75742e-07 -5.51492e-17)
(0.136822 -2.60477e-07 -4.6693e-17)
(0.136822 -2.48107e-07 -7.63417e-17)
(0.136821 -2.38478e-07 8.82695e-17)
(0.136821 -2.31212e-07 -8.8422e-17)
(0.136821 -2.25845e-07 -1.19576e-16)
(0.136821 -2.21906e-07 -5.6184e-17)
(0.13682 -2.1896e-07 -1.39152e-16)
(0.13682 -2.16638e-07 -3.43632e-17)
(0.13682 -2.14652e-07 -1.41648e-16)
(0.13682 -2.12812e-07 -1.48766e-16)
(0.136819 -2.11033e-07 -1.00665e-16)
(0.136819 -2.09333e-07 -1.36387e-16)
(0.136819 -2.07825e-07 1.79962e-17)
(0.136819 -2.06707e-07 -1.41552e-16)
(0.136819 -2.06236e-07 -1.87473e-16)
(0.136819 -2.06706e-07 -5.11518e-17)
(0.136818 -2.08422e-07 -1.87646e-16)
(0.136818 -2.11668e-07 -2.66624e-17)
(0.136818 -2.16673e-07 -1.82706e-16)
(0.136818 -2.236e-07 -2.11836e-16)
(0.136818 -2.32482e-07 -1.8249e-16)
(0.136818 -2.43261e-07 -2.2077e-16)
(0.136817 -2.55669e-07 -1.41137e-16)
(0.136817 -2.69352e-07 -1.96997e-16)
(0.136817 -2.83652e-07 -2.18368e-16)
(0.136817 -2.97814e-07 -3.0439e-16)
(0.136817 -3.10549e-07 -3.02333e-16)
(0.136817 -3.21539e-07 -2.96737e-16)
(0.136817 -3.20729e-07 -3.10253e-16)
(0.136817 -3.64978e-07 -2.97108e-16)
(0.136817 -3.71721e-07 -2.94643e-16)
(0.136817 -3.32378e-07 -3.18883e-16)
(0.136818 -2.6325e-07 -3.04536e-16)
(0.136819 -1.42069e-07 -3.04331e-16)
(0.136819 -7.5104e-08 -2.89256e-16)
(0.13682 -4.89529e-08 -2.89755e-16)
(0.136821 -3.87359e-08 -3.25325e-16)
(0.136821 -3.13946e-08 -3.2459e-16)
(0.136821 -2.20925e-08 -3.3483e-16)
(0.136821 -8.91683e-09 -3.26512e-16)
(0.136822 7.91354e-09 -3.78453e-16)
(0.136822 2.88984e-08 -3.42254e-16)
(0.136822 5.8333e-08 -3.25393e-16)
(0.136823 8.85311e-08 -3.28721e-16)
(0.136823 1.70724e-07 -3.18037e-16)
(0.136823 2.09647e-07 -3.70609e-16)
(0.136823 5.84685e-07 -3.43101e-16)
(0.137664 3.97134e-07 9.79822e-17)
(0.137664 1.19597e-07 1.11032e-16)
(0.137664 -1.05688e-07 1.32354e-16)
(0.137664 -2.03667e-07 9.38189e-17)
(0.137663 -2.68568e-07 1.04408e-16)
(0.137663 -2.7042e-07 1.60818e-16)
(0.137662 -2.77208e-07 1.7699e-16)
(0.137662 -2.7938e-07 1.80547e-16)
(0.137661 -2.72618e-07 1.83912e-16)
(0.137661 -2.60686e-07 2.21488e-16)
(0.13766 -2.46721e-07 1.72948e-16)
(0.13766 -2.33057e-07 1.71802e-16)
(0.13766 -2.20986e-07 1.58202e-16)
(0.137659 -2.11031e-07 1.5105e-16)
(0.137659 -2.03247e-07 1.93166e-16)
(0.137659 -1.97421e-07 1.18886e-16)
(0.137658 -1.93218e-07 1.03129e-16)
(0.137658 -1.90263e-07 9.45396e-17)
(0.137658 -1.88197e-07 8.07398e-17)
(0.137658 -1.86703e-07 1.17206e-16)
(0.137657 -1.85531e-07 6.95971e-17)
(0.137657 -1.84513e-07 6.65201e-17)
(0.137657 -1.83575e-07 9.51718e-17)
(0.137657 -1.82735e-07 8.27489e-17)
(0.137656 -1.82104e-07 1.30137e-16)
(0.137656 -1.81872e-07 7.08687e-17)
(0.137656 -1.82288e-07 4.35731e-17)
(0.137656 -1.83639e-07 5.09484e-17)
(0.137656 -1.86222e-07 4.41032e-17)
(0.137655 -1.90321e-07 9.0956e-17)
(0.137655 -1.96167e-07 2.37024e-17)
(0.137655 -2.03929e-07 1.15557e-17)
(0.137655 -2.13656e-07 1.99629e-17)
(0.137655 -2.25308e-07 -9.49545e-19)
(0.137655 -2.3864e-07 2.81129e-17)
(0.137654 -2.53343e-07 -4.82329e-17)
(0.137654 -2.68756e-07 -5.28673e-17)
(0.137654 -2.84315e-07 -8.97906e-17)
(0.137654 -2.98403e-07 -1.37475e-16)
(0.137654 -3.12363e-07 -1.2285e-16)
(0.137654 -3.1344e-07 -1.49231e-16)
(0.137654 -3.61331e-07 -1.17463e-16)
(0.137654 -3.83249e-07 -1.06516e-16)
(0.137654 -3.71235e-07 -1.52364e-16)
(0.137654 -3.35178e-07 -1.21682e-16)
(0.137655 -2.31079e-07 -1.35803e-16)
(0.137655 -1.56902e-07 -1.02038e-16)
(0.137656 -1.15405e-07 -9.51298e-17)
(0.137657 -9.18922e-08 -1.51644e-16)
(0.137657 -7.55334e-08 -1.30939e-16)
(0.137657 -6.05909e-08 -1.53819e-16)
(0.137658 -4.39025e-08 -1.30108e-16)
(0.137658 -2.51285e-08 -1.25714e-16)
(0.137658 -2.96685e-09 -1.62769e-16)
(0.137658 2.54824e-08 -1.32677e-16)
(0.137659 5.56857e-08 -1.51514e-16)
(0.137659 1.26699e-07 -1.22046e-16)
(0.13766 1.69197e-07 -1.13593e-16)
(0.13766 4.53759e-07 -1.64655e-16)
(0.138456 2.44473e-07 2.51133e-16)
(0.138457 6.5936e-08 3.29335e-16)
(0.138457 -9.62474e-08 3.28701e-16)
(0.138457 -1.64998e-07 2.40156e-16)
(0.138457 -2.11645e-07 2.54887e-16)
(0.138456 -2.07487e-07 3.18843e-16)
(0.138456 -2.12076e-07 3.92529e-16)
(0.138455 -2.15968e-07 3.68019e-16)
(0.138455 -2.13385e-07 4.09503e-16)
(0.138454 -2.06286e-07 3.84121e-16)
(0.138454 -1.96778e-07 3.61691e-16)
(0.138453 -1.86843e-07 3.98947e-16)
(0.138453 -1.77764e-07 3.52538e-16)
(0.138453 -1.70173e-07 3.78714e-16)
(0.138452 -1.64261e-07 3.38066e-16)
(0.138452 -1.59939e-07 2.96544e-16)
(0.138452 -1.5698e-07 3.24127e-16)
(0.138452 -1.55098e-07 2.74265e-16)
(0.138451 -1.53999e-07 3.03483e-16)
(0.138451 -1.53421e-07 2.74947e-16)
(0.138451 -1.53148e-07 2.5128e-16)
(0.13845 -1.53037e-07 2.84792e-16)
(0.13845 -1.53021e-07 2.73782e-16)
(0.13845 -1.53123e-07 3.00454e-16)
(0.13845 -1.5345e-07 2.73727e-16)
(0.138449 -1.54183e-07 2.51819e-16)
(0.138449 -1.55564e-07 2.69769e-16)
(0.138449 -1.5787e-07 2.3988e-16)
(0.138449 -1.61392e-07 2.65597e-16)
(0.138449 -1.6641e-07 2.33389e-16)
(0.138448 -1.73156e-07 2.04895e-16)
(0.138448 -1.81808e-07 2.3479e-16)
(0.138448 -1.92426e-07 1.99219e-16)
(0.138448 -2.04994e-07 2.14151e-16)
(0.138448 -2.19287e-07 1.84963e-16)
(0.138447 -2.35043e-07 7.12577e-17)
(0.138447 -2.51606e-07 1.13624e-16)
(0.138447 -2.6859e-07 1.01482e-16)
(0.138447 -2.84137e-07 1.16232e-17)
(0.138447 -3.00799e-07 7.34416e-17)
(0.138447 -3.0474e-07 7.38306e-18)
(0.138447 -3.53313e-07 7.74552e-17)
(0.138447 -3.83873e-07 8.71638e-17)
(0.138447 -3.89327e-07 3.65881e-18)
(0.138447 -3.77676e-07 8.02631e-17)
(0.138447 -2.95513e-07 2.74641e-17)
(0.138448 -2.26034e-07 1.01609e-16)
(0.138448 -1.78627e-07 1.03392e-16)
(0.138449 -1.46614e-07 1.02724e-17)
(0.138449 -1.23036e-07 8.03684e-17)
(0.138449 -1.02954e-07 2.25758e-17)
(0.13845 -8.28215e-08 8.47418e-17)
(0.13845 -6.20727e-08 8.41009e-17)
(0.13845 -3.87039e-08 5.48161e-18)
(0.138451 -1.13256e-08 7.96636e-17)
(0.138451 1.87725e-08 2.15716e-17)
(0.138451 7.787e-08 9.15005e-17)
(0.138452 1.22849e-07 9.63501e-17)
(0.138452 3.20813e-07 8.45391e-19)
(0.139206 9.43055e-08 4.46043e-16)
(0.139206 2.60403e-09 4.46412e-16)
(0.139207 -1.01952e-07 4.99476e-16)
(0.139207 -1.4234e-07 3.14153e-16)
(0.139206 -1.6999e-07 4.19901e-16)
(0.139206 -1.57585e-07 5.17947e-16)
(0.139206 -1.56721e-07 5.08905e-16)
(0.139205 -1.58698e-07 5.426e-16)
(0.139205 -1.57137e-07 5.22023e-16)
(0.139205 -1.52569e-07 5.22722e-16)
(0.139204 -1.46021e-07 5.41319e-16)
(0.139204 -1.38896e-07 5.09955e-16)
(0.139203 -1.32258e-07 5.20548e-16)
(0.139203 -1.26707e-07 4.91133e-16)
(0.139203 -1.22478e-07 4.66062e-16)
(0.139202 -1.19558e-07 4.67581e-16)
(0.139202 -1.17793e-07 4.30247e-16)
(0.139202 -1.16964e-07 4.36918e-16)
(0.139201 -1.16837e-07 4.13368e-16)
(0.139201 -1.17191e-07 4.15865e-16)
(0.139201 -1.17845e-07 4.26801e-16)
(0.139201 -1.18673e-07 3.8785e-16)
(0.1392 -1.19621e-07 4.44182e-16)
(0.1392 -1.20711e-07 4.07818e-16)
(0.1392 -1.22046e-07 4.00093e-16)
(0.1392 -1.23799e-07 4.24298e-16)
(0.139199 -1.262e-07 3.74226e-16)
(0.139199 -1.29516e-07 4.12567e-16)
(0.139199 -1.34031e-07 3.71903e-16)
(0.139199 -1.4002e-07 3.72867e-16)
(0.139198 -1.47716e-07 3.80692e-16)
(0.139198 -1.57303e-07 3.40261e-16)
(0.139198 -1.68854e-07 3.63801e-16)
(0.139198 -1.82374e-07 3.14614e-16)
(0.139198 -1.97661e-07 3.30449e-16)
(0.139197 -2.14502e-07 2.84224e-16)
(0.139197 -2.32251e-07 3.04765e-16)
(0.139197 -2.50685e-07 2.63709e-16)
(0.139197 -2.67785e-07 2.65358e-16)
(0.139197 -2.86937e-07 3.21725e-16)
(0.139197 -2.9425e-07 2.74579e-16)
(0.139197 -3.42401e-07 3.061e-16)
(0.139197 -3.77796e-07 2.72649e-16)
(0.139197 -3.94191e-07 2.65067e-16)
(0.139197 -3.99377e-07 3.31124e-16)
(0.139197 -3.38317e-07 2.99694e-16)
(0.139197 -2.79672e-07 3.4591e-16)
(0.139198 -2.33697e-07 2.93148e-16)
(0.139198 -1.98444e-07 2.7981e-16)
(0.139198 -1.70585e-07 3.30006e-16)
(0.139199 -1.46825e-07 3.05794e-16)
(0.139199 -1.23972e-07 3.4674e-16)
(0.139199 -1.01647e-07 2.84861e-16)
(0.1392 -7.73354e-08 2.73512e-16)
(0.1392 -5.12976e-08 3.39452e-16)
(0.1392 -2.16066e-08 3.0389e-16)
(0.139201 2.50459e-08 3.39031e-16)
(0.139201 7.08693e-08 3.0071e-16)
(0.139201 1.88134e-07 2.68792e-16)
(0.139913 -5.04166e-08 6.51598e-16)
(0.139914 -6.60809e-08 5.60888e-16)
(0.139914 -1.18357e-07 6.52158e-16)
(0.139914 -1.32271e-07 5.59621e-16)
(0.139914 -1.41232e-07 6.76008e-16)
(0.139914 -1.19576e-07 7.79035e-16)
(0.139914 -1.11447e-07 6.23022e-16)
(0.139913 -1.09023e-07 7.50468e-16)
(0.139913 -1.05906e-07 6.24288e-16)
(0.139912 -1.01671e-07 6.46045e-16)
(0.139912 -9.64228e-08 7.21523e-16)
(0.139912 -9.09342e-08 6.07339e-16)
(0.139911 -8.59317e-08 6.81964e-16)
(0.139911 -8.18695e-08 5.87089e-16)
(0.139911 -7.89473e-08 5.86236e-16)
(0.13991 -7.71682e-08 6.4191e-16)
(0.13991 -7.64163e-08 5.24187e-16)
(0.13991 -7.65167e-08 6.47007e-16)
(0.139909 -7.72748e-08 5.0947e-16)
(0.139909 -7.85046e-08 5.33699e-16)
(0.139909 -8.00491e-08 6.07658e-16)
(0.139909 -8.17986e-08 4.76684e-16)
(0.139908 -8.37049e-08 5.85318e-16)
(0.139908 -8.57901e-08 5.03273e-16)
(0.139908 -8.81491e-08 5.64882e-16)
(0.139907 -9.09444e-08 5.95355e-16)
(0.139907 -9.43935e-08 4.56347e-16)
(0.139907 -9.87533e-08 5.51122e-16)
(0.139907 -1.04296e-07 4.63517e-16)
(0.139906 -1.11292e-07 4.79474e-16)
(0.139906 -1.19973e-07 5.58493e-16)
(0.139906 -1.30528e-07 4.28438e-16)
(0.139906 -1.43043e-07 5.57449e-16)
(0.139906 -1.57543e-07 4.02922e-16)
(0.139905 -1.73854e-07 4.34546e-16)
(0.139905 -1.91805e-07 4.87732e-16)
(0.139905 -2.10771e-07 4.9579e-16)
(0.139905 -2.30675e-07 3.98059e-16)
(0.139905 -2.49411e-07 5.22293e-16)
(0.139905 -2.70898e-07 5.27442e-16)
(0.139905 -2.81783e-07 5.39749e-16)
(0.139904 -3.29302e-07 6.32335e-16)
(0.139904 -3.67513e-07 4.34868e-16)
(0.139904 -3.90705e-07 4.86004e-16)
(0.139904 -4.07007e-07 5.90478e-16)
(0.139904 -3.64029e-07 5.67019e-16)
(0.139904 -3.18232e-07 6.20617e-16)
(0.139905 -2.78291e-07 4.57575e-16)
(0.139905 -2.44265e-07 5.01135e-16)
(0.139905 -2.1534e-07 6.08488e-16)
(0.139906 -1.89926e-07 5.76604e-16)
(0.139906 -1.65584e-07 5.73067e-16)
(0.139906 -1.42463e-07 4.68391e-16)
(0.139907 -1.17759e-07 5.61743e-16)
(0.139907 -9.35154e-08 5.60685e-16)
(0.139907 -6.47205e-08 5.83927e-16)
(0.139908 -3.08849e-08 5.79964e-16)
(0.139908 1.38826e-08 4.82192e-16)
(0.139908 5.71203e-08 5.12907e-16)
(0.140579 -1.87974e-07 7.59256e-16)
(0.14058 -1.36997e-07 6.13386e-16)
(0.14058 -1.41812e-07 7.13965e-16)
(0.14058 -1.31551e-07 7.14543e-16)
(0.14058 -1.22854e-07 7.52115e-16)
(0.14058 -9.18054e-08 8.37901e-16)
(0.14058 -7.56489e-08 6.8345e-16)
(0.140579 -6.73534e-08 7.75874e-16)
(0.140579 -6.0825e-08 6.70355e-16)
(0.140579 -5.50796e-08 6.66779e-16)
(0.140579 -4.95512e-08 7.8625e-16)
(0.140578 -4.44522e-08 6.56584e-16)
(0.140578 -4.01411e-08 7.47159e-16)
(0.140578 -3.68648e-08 6.3038e-16)
(0.140577 -3.47266e-08 5.99722e-16)
(0.140577 -3.3698e-08 7.06117e-16)
(0.140577 -3.36657e-08 5.66209e-16)
(0.140576 -3.44724e-08 6.59805e-16)
(0.140576 -3.59463e-08 5.59254e-16)
(0.140576 -3.79222e-08 5.57297e-16)
(0.140575 -4.02593e-08 6.68781e-16)
(0.140575 -4.28569e-08 5.17123e-16)
(0.140575 -4.56691e-08 6.51262e-16)
(0.140574 -4.87136e-08 5.33936e-16)
(0.140574 -5.20754e-08 5.209e-16)
(0.140574 -5.59037e-08 6.51956e-16)
(0.140574 -6.04016e-08 4.73847e-16)
(0.140573 -6.58118e-08 6.10508e-16)
(0.140573 -7.23949e-08 4.83844e-16)
(0.140573 -8.04131e-08 4.93564e-16)
(0.140573 -9.00967e-08 6.10488e-16)
(0.140572 -1.01639e-07 4.69141e-16)
(0.140572 -1.15138e-07 5.71011e-16)
(0.140572 -1.30639e-07 4.29184e-16)
(0.140572 -1.47992e-07 4.51863e-16)
(0.140572 -1.67075e-07 5.65568e-16)
(0.140571 -1.87285e-07 5.52243e-16)
(0.140571 -2.08675e-07 4.89087e-16)
(0.140571 -2.29111e-07 6.04424e-16)
(0.140571 -2.52825e-07 6.12356e-16)
(0.140571 -2.67304e-07 6.58019e-16)
(0.140571 -3.14338e-07 6.16452e-16)
(0.140571 -3.54391e-07 5.48743e-16)
(0.14057 -3.81966e-07 6.30813e-16)
(0.14057 -4.05474e-07 6.2856e-16)
(0.14057 -3.77126e-07 6.87665e-16)
(0.140571 -3.43817e-07 6.67263e-16)
(0.140571 -3.12123e-07 5.55394e-16)
(0.140571 -2.82454e-07 6.47344e-16)
(0.140571 -2.55294e-07 6.4442e-16)
(0.140572 -2.3036e-07 7.11446e-16)
(0.140572 -2.06026e-07 6.8019e-16)
(0.140572 -1.83157e-07 5.91447e-16)
(0.140572 -1.58837e-07 6.64985e-16)
(0.140573 -1.36995e-07 6.65573e-16)
(0.140573 -1.09747e-07 7.18809e-16)
(0.140573 -8.89777e-08 6.81698e-16)
(0.140574 -4.72344e-08 6.21048e-16)
(0.140574 -7.11824e-08 6.73683e-16)
(0.141205 -3.17356e-07 8.64377e-16)
(0.141205 -2.08011e-07 6.48943e-16)
(0.141206 -1.69629e-07 8.07848e-16)
(0.141206 -1.37472e-07 8.58231e-16)
(0.141206 -1.1248e-07 8.88822e-16)
(0.141206 -7.24288e-08 9.44082e-16)
(0.141205 -4.81962e-08 7.6224e-16)
(0.141205 -3.33603e-08 8.74847e-16)
(0.141205 -2.22614e-08 7.87633e-16)
(0.141205 -1.3637e-08 8.17977e-16)
(0.141204 -6.49477e-09 8.92683e-16)
(0.141204 -6.18296e-10 7.76206e-16)
(0.141204 3.96416e-09 8.47456e-16)
(0.141203 7.22476e-09 6.96598e-16)
(0.141203 9.18797e-09 7.49971e-16)
(0.141203 9.9465e-09 8.15305e-16)
(0.141203 9.63943e-09 6.9381e-16)
(0.141202 8.4285e-09 7.58706e-16)
(0.141202 6.48024e-09 6.2754e-16)
(0.141202 3.95182e-09 7.03128e-16)
(0.141201 9.77756e-10 7.76348e-16)
(0.141201 -2.34375e-09 6.44684e-16)
(0.141201 -5.9634e-09 7.27408e-16)
(0.1412 -9.89041e-09 5.91116e-16)
(0.1412 -1.41966e-08 6.64009e-16)
(0.1412 -1.90151e-08 7.51796e-16)
(0.1412 -2.45316e-08 5.04793e-16)
(0.141199 -3.09723e-08 6.79569e-16)
(0.141199 -3.85841e-08 6.00531e-16)
(0.141199 -4.76196e-08 6.21415e-16)
(0.141199 -5.83054e-08 7.09495e-16)
(0.141198 -7.08379e-08 5.88732e-16)
(0.141198 -8.53262e-08 6.58327e-16)
(0.141198 -1.01836e-07 5.50044e-16)
(0.141198 -1.20244e-07 5.78544e-16)
(0.141197 -1.40471e-07 7.04447e-16)
(0.141197 -1.61946e-07 7.03493e-16)
(0.141197 -1.84834e-07 5.48121e-16)
(0.141197 -2.0702e-07 7.36383e-16)
(0.141197 -2.3288e-07 7.54279e-16)
(0.141197 -2.50885e-07 8.16479e-16)
(0.141197 -2.97689e-07 7.80772e-16)
(0.141196 -3.39176e-07 6.66279e-16)
(0.141196 -3.69834e-07 7.75171e-16)
(0.141196 -3.98074e-07 7.7428e-16)
(0.141196 -3.81332e-07 8.45732e-16)
(0.141196 -3.59097e-07 8.26624e-16)
(0.141196 -3.36204e-07 5.81122e-16)
(0.141197 -3.12669e-07 7.86336e-16)
(0.141197 -2.89373e-07 8.07821e-16)
(0.141197 -2.66805e-07 8.75457e-16)
(0.141197 -2.43991e-07 8.33104e-16)
(0.141197 -2.2253e-07 7.10052e-16)
(0.141198 -1.99504e-07 8.30736e-16)
(0.141198 -1.80772e-07 8.29005e-16)
(0.141198 -1.55836e-07 8.93053e-16)
(0.141199 -1.48277e-07 8.57826e-16)
(0.141199 -1.11463e-07 7.49302e-16)
(0.141199 -1.95851e-07 8.5447e-16)
(0.141791 -4.37944e-07 9.83709e-16)
(0.141791 -2.77677e-07 9.42151e-16)
(0.141791 -1.99919e-07 9.55632e-16)
(0.141792 -1.47921e-07 1.00546e-15)
(0.141792 -1.08055e-07 1.03611e-15)
(0.141791 -5.96539e-08 1.06552e-15)
(0.141791 -2.77329e-08 1.01056e-15)
(0.141791 -6.25804e-09 1.01805e-15)
(0.141791 9.98587e-09 9.84828e-16)
(0.141791 2.23761e-08 9.98276e-16)
(0.141791 3.21367e-08 1.01972e-15)
(0.14179 3.97711e-08 9.67418e-16)
(0.14179 4.55059e-08 9.84247e-16)
(0.14179 4.95068e-08 9.37078e-16)
(0.141789 5.19278e-08 9.33415e-16)
(0.141789 5.29401e-08 9.45866e-16)
(0.141789 5.27258e-08 8.84596e-16)
(0.141789 5.14671e-08 9.05418e-16)
(0.141788 4.93393e-08 8.74554e-16)
(0.141788 4.65027e-08 8.84674e-16)
(0.141788 4.30945e-08 9.05309e-16)
(0.141787 3.92175e-08 8.36169e-16)
(0.141787 3.49296e-08 8.66686e-16)
(0.141787 3.02345e-08 8.3313e-16)
(0.141786 2.50769e-08 8.43401e-16)
(0.141786 1.93431e-08 8.73764e-16)
(0.141786 1.28676e-08 7.83005e-16)
(0.141786 5.44295e-09 8.27325e-16)
(0.141785 -3.16158e-09 7.87369e-16)
(0.141785 -1.31872e-08 8.06177e-16)
(0.141785 -2.48553e-08 8.35722e-16)
(0.141785 -3.83643e-08 7.81047e-16)
(0.141784 -5.38334e-08 8.00316e-16)
(0.141784 -7.13481e-08 7.43701e-16)
(0.141784 -9.08109e-08 7.67631e-16)
(0.141784 -1.12188e-07 7.79121e-16)
(0.141784 -1.3494e-07 8.28582e-16)
(0.141783 -1.59332e-07 7.95267e-16)
(0.141783 -1.83305e-07 8.47356e-16)
(0.141783 -2.11254e-07 9.07786e-16)
(0.141783 -2.32671e-07 8.87784e-16)
(0.141783 -2.79512e-07 9.07413e-16)
(0.141783 -3.22307e-07 8.70234e-16)
(0.141783 -3.55412e-07 8.87552e-16)
(0.141782 -3.86938e-07 9.2682e-16)
(0.141782 -3.7947e-07 9.15465e-16)
(0.141782 -3.66658e-07 9.52227e-16)
(0.141782 -3.52169e-07 8.73569e-16)
(0.141783 -3.35473e-07 9.08522e-16)
(0.141783 -3.1734e-07 9.66323e-16)
(0.141783 -2.98575e-07 9.46956e-16)
(0.141783 -2.78599e-07 9.617e-16)
(0.141783 -2.59657e-07 9.24724e-16)
(0.141784 -2.38864e-07 9.49123e-16)
(0.141784 -2.23978e-07 9.97011e-16)
(0.141784 -2.02178e-07 9.77929e-16)
(0.141785 -2.07864e-07 9.96459e-16)
(0.141785 -1.77735e-07 9.79398e-16)
(0.141785 -3.16002e-07 9.92725e-16)
(0.142338 -5.49325e-07 1.11213e-15)
(0.142338 -3.44979e-07 1.1291e-15)
(0.142339 -2.31385e-07 1.11215e-15)
(0.142339 -1.61334e-07 1.17145e-15)
(0.142339 -1.07925e-07 1.1893e-15)
(0.142339 -5.18987e-08 1.19426e-15)
(0.142339 -1.28945e-08 1.18829e-15)
(0.142339 1.49574e-08 1.17109e-15)
(0.142339 3.64862e-08 1.1656e-15)
(0.142338 5.31093e-08 1.18944e-15)
(0.142338 6.6152e-08 1.15074e-15)
(0.142338 7.62843e-08 1.1403e-15)
(0.142338 8.39028e-08 1.13192e-15)
(0.142337 8.93191e-08 1.11969e-15)
(0.142337 9.27975e-08 1.12951e-15)
(0.142337 9.45846e-08 1.08317e-15)
(0.142337 9.49102e-08 1.07137e-15)
(0.142336 9.39859e-08 1.06235e-15)
(0.142336 9.20041e-08 1.05924e-15)
(0.142336 8.9137e-08 1.08041e-15)
(0.142335 8.55314e-08 1.04143e-15)
(0.142335 8.13008e-08 1.02654e-15)
(0.142335 7.65165e-08 1.02355e-15)
(0.142335 7.1199e-08 1.02137e-15)
(0.142334 6.53132e-08 1.0426e-15)
(0.142334 5.87676e-08 1.0081e-15)
(0.142334 5.14193e-08 9.89006e-16)
(0.142333 4.30824e-08 9.91701e-16)
(0.142333 3.35441e-08 9.896e-16)
(0.142333 2.25766e-08 1.01076e-15)
(0.142333 9.9652e-09 9.75448e-16)
(0.142332 -4.48952e-09 9.68241e-16)
(0.142332 -2.09163e-08 9.61275e-16)
(0.142332 -3.94193e-08 9.47522e-16)
(0.142332 -5.99278e-08 9.77314e-16)
(0.142332 -8.24497e-08 8.67972e-16)
(0.142331 -1.06486e-07 9.77926e-16)
(0.142331 -1.32383e-07 1.01169e-15)
(0.142331 -1.58166e-07 9.90475e-16)
(0.142331 -1.88159e-07 1.08842e-15)
(0.142331 -2.12859e-07 9.53703e-16)
(0.142331 -2.59982e-07 1.04608e-15)
(0.14233 -3.04091e-07 1.08891e-15)
(0.14233 -3.39376e-07 1.02788e-15)
(0.14233 -3.73419e-07 1.10419e-15)
(0.14233 -3.73561e-07 9.78584e-16)
(0.14233 -3.68689e-07 1.09039e-15)
(0.14233 -3.61797e-07 1.0904e-15)
(0.14233 -3.51941e-07 1.05151e-15)
(0.14233 -3.39582e-07 1.14641e-15)
(0.14233 -3.25548e-07 1.01115e-15)
(0.142331 -3.0942e-07 1.10283e-15)
(0.142331 -2.93945e-07 1.13693e-15)
(0.142331 -2.76253e-07 1.09475e-15)
(0.142331 -2.65904e-07 1.18678e-15)
(0.142332 -2.48058e-07 1.05555e-15)
(0.142332 -2.66899e-07 1.1464e-15)
(0.142332 -2.45002e-07 1.21653e-15)
(0.142333 -4.30788e-07 1.15924e-15)
(0.142848 -6.51205e-07 1.24391e-15)
(0.142848 -4.09166e-07 1.30902e-15)
(0.142849 -2.63136e-07 1.26077e-15)
(0.142849 -1.766e-07 1.35445e-15)
(0.142849 -1.10834e-07 1.3423e-15)
(0.142849 -4.78642e-08 1.32606e-15)
(0.142849 -2.44463e-09 1.36437e-15)
(0.142849 3.13324e-08 1.3154e-15)
(0.142849 5.79996e-08 1.34514e-15)
(0.142848 7.89988e-08 1.38677e-15)
(0.142848 9.56847e-08 1.26026e-15)
(0.142848 1.08807e-07 1.3141e-15)
(0.142848 1.18858e-07 1.27724e-15)
(0.142848 1.26241e-07 1.30276e-15)
(0.142847 1.31299e-07 1.33314e-15)
(0.142847 1.34339e-07 1.20072e-15)
(0.142847 1.35632e-07 1.25428e-15)
(0.142847 1.35421e-07 1.21735e-15)
(0.142846 1.33919e-07 1.24797e-15)
(0.142846 1.31313e-07 1.28593e-15)
(0.142846 1.27765e-07 1.15891e-15)
(0.142845 1.23403e-07 1.21394e-15)
(0.142845 1.18317e-07 1.1813e-15)
(0.142845 1.12546e-07 1.21583e-15)
(0.142845 1.06078e-07 1.25495e-15)
(0.142844 9.88468e-08 1.1283e-15)
(0.142844 9.07345e-08 1.18345e-15)
(0.142844 8.15785e-08 1.1549e-15)