/*--------------------------------*- C++ -*----------------------------------*\
  =========                 |
  \\      /  F ield         | OpenFOAM: The Open Source CFD Toolbox
   \\    /   O peration     | Website:  https://openfoam.org
    \\  /    A nd           | Version:  7
     \\/     M anipulation  |
\*---------------------------------------------------------------------------*/
FoamFile
{
    version     2.0;
    format      ascii;
    class       volScalarField;
    location    "1500";
    object      nut;
}
// * * * * * * * * * * * * * * * * * * * * * * * * * * * * * * * * * * * * * //

dimensions      [0 2 -1 0 0 0 0];

internalField   nonuniform List<scalar> 
24000
(
8.50084e-12
8.50107e-12
8.50126e-12
8.50133e-12
8.50137e-12
8.50139e-12
8.50139e-12
8.5014e-12
8.50142e-12
8.50144e-12
8.50147e-12
8.50152e-12
8.50158e-12
8.50165e-12
8.50172e-12
8.5018e-12
8.50188e-12
8.50197e-12
8.50206e-12
8.50215e-12
8.50224e-12
8.50234e-12
8.50244e-12
8.50254e-12
8.50263e-12
8.50273e-12
8.50282e-12
8.5029e-12
8.50299e-12
8.50307e-12
8.50314e-12
8.50322e-12
8.50328e-12
8.50335e-12
8.50341e-12
8.50346e-12
8.50351e-12
8.50356e-12
8.50359e-12
8.50363e-12
8.50364e-12
8.50366e-12
8.50363e-12
8.50361e-12
8.50353e-12
8.50341e-12
8.5034e-12
8.50341e-12
8.50344e-12
8.50346e-12
8.50348e-12
8.50351e-12
8.50352e-12
8.50352e-12
8.50353e-12
8.50353e-12
8.50355e-12
8.50358e-12
8.50363e-12
8.50369e-12
8.50377e-12
8.50387e-12
8.50398e-12
8.50409e-12
8.50421e-12
8.50433e-12
8.50444e-12
8.50454e-12
8.50463e-12
8.50471e-12
8.50478e-12
8.50484e-12
8.50488e-12
8.50491e-12
8.50493e-12
8.50494e-12
8.50493e-12
8.50492e-12
8.50489e-12
8.50486e-12
8.50482e-12
8.50477e-12
8.50472e-12
8.50466e-12
8.50459e-12
8.50452e-12
8.50445e-12
8.50437e-12
8.5043e-12
8.50423e-12
8.50416e-12
8.50409e-12
8.50402e-12
8.50394e-12
8.50385e-12
8.50376e-12
8.50367e-12
8.50356e-12
8.50345e-12
8.50332e-12
8.50318e-12
8.503e-12
8.50283e-12
8.5026e-12
8.50233e-12
8.50219e-12
8.50209e-12
8.50201e-12
8.50194e-12
8.50187e-12
8.5018e-12
8.50174e-12
8.50167e-12
8.50162e-12
8.50157e-12
8.50152e-12
8.5015e-12
8.50141e-12
8.50144e-12
8.50099e-12
1.57705e-09
1.5771e-09
1.57713e-09
1.57715e-09
1.57715e-09
1.57715e-09
1.57716e-09
1.57716e-09
1.57716e-09
1.57716e-09
1.57717e-09
1.57718e-09
1.57719e-09
1.5772e-09
1.57722e-09
1.57723e-09
1.57724e-09
1.57726e-09
1.57728e-09
1.57729e-09
1.57731e-09
1.57733e-09
1.57735e-09
1.57737e-09
1.57738e-09
1.5774e-09
1.57742e-09
1.57743e-09
1.57745e-09
1.57747e-09
1.57748e-09
1.57749e-09
1.57751e-09
1.57752e-09
1.57753e-09
1.57754e-09
1.57755e-09
1.57756e-09
1.57756e-09
1.57757e-09
1.57757e-09
1.57757e-09
1.57757e-09
1.57757e-09
1.57755e-09
1.57753e-09
1.57753e-09
1.57753e-09
1.57753e-09
1.57754e-09
1.57754e-09
1.57755e-09
1.57755e-09
1.57755e-09
1.57755e-09
1.57755e-09
1.57755e-09
1.57756e-09
1.57757e-09
1.57758e-09
1.5776e-09
1.57761e-09
1.57763e-09
1.57766e-09
1.57768e-09
1.5777e-09
1.57772e-09
1.57774e-09
1.57776e-09
1.57777e-09
1.57778e-09
1.57779e-09
1.5778e-09
1.57781e-09
1.57781e-09
1.57781e-09
1.57781e-09
1.57781e-09
1.5778e-09
1.5778e-09
1.57779e-09
1.57778e-09
1.57777e-09
1.57776e-09
1.57775e-09
1.57773e-09
1.57772e-09
1.57771e-09
1.57769e-09
1.57768e-09
1.57767e-09
1.57765e-09
1.57764e-09
1.57763e-09
1.57761e-09
1.57759e-09
1.57758e-09
1.57756e-09
1.57754e-09
1.57751e-09
1.57749e-09
1.57745e-09
1.57742e-09
1.57738e-09
1.57733e-09
1.5773e-09
1.57728e-09
1.57727e-09
1.57726e-09
1.57724e-09
1.57723e-09
1.57722e-09
1.57721e-09
1.5772e-09
1.57719e-09
1.57718e-09
1.57717e-09
1.57716e-09
1.57716e-09
1.57708e-09
3.36524e-08
3.36533e-08
3.3654e-08
3.36543e-08
3.36544e-08
3.36545e-08
3.36545e-08
3.36545e-08
3.36546e-08
3.36547e-08
3.36548e-08
3.3655e-08
3.36552e-08
3.36555e-08
3.36557e-08
3.36561e-08
3.36564e-08
3.36567e-08
3.36571e-08
3.36574e-08
3.36578e-08
3.36582e-08
3.36586e-08
3.3659e-08
3.36593e-08
3.36597e-08
3.36601e-08
3.36604e-08
3.36607e-08
3.36611e-08
3.36614e-08
3.36616e-08
3.36619e-08
3.36622e-08
3.36624e-08
3.36626e-08
3.36628e-08
3.3663e-08
3.36631e-08
3.36632e-08
3.36633e-08
3.36634e-08
3.36633e-08
3.36632e-08
3.36629e-08
3.36624e-08
3.36623e-08
3.36624e-08
3.36625e-08
3.36626e-08
3.36627e-08
3.36628e-08
3.36628e-08
3.36629e-08
3.36629e-08
3.36629e-08
3.36629e-08
3.36631e-08
3.36632e-08
3.36635e-08
3.36638e-08
3.36642e-08
3.36646e-08
3.36651e-08
3.36656e-08
3.3666e-08
3.36664e-08
3.36668e-08
3.36672e-08
3.36675e-08
3.36678e-08
3.3668e-08
3.36682e-08
3.36683e-08
3.36684e-08
3.36684e-08
3.36684e-08
3.36683e-08
3.36682e-08
3.36681e-08
3.36679e-08
3.36677e-08
3.36675e-08
3.36673e-08
3.3667e-08
3.36668e-08
3.36665e-08
3.36662e-08
3.36659e-08
3.36656e-08
3.36653e-08
3.36651e-08
3.36648e-08
3.36644e-08
3.36641e-08
3.36638e-08
3.36634e-08
3.3663e-08
3.36625e-08
3.3662e-08
3.36615e-08
3.36608e-08
3.36601e-08
3.36592e-08
3.36582e-08
3.36576e-08
3.36572e-08
3.36569e-08
3.36566e-08
3.36563e-08
3.36561e-08
3.36558e-08
3.36556e-08
3.36553e-08
3.36551e-08
3.3655e-08
3.36548e-08
3.36545e-08
3.36546e-08
3.3653e-08
2.55518e-07
2.55525e-07
2.55531e-07
2.55533e-07
2.55534e-07
2.55534e-07
2.55534e-07
2.55535e-07
2.55535e-07
2.55536e-07
2.55537e-07
2.55538e-07
2.5554e-07
2.55541e-07
2.55544e-07
2.55546e-07
2.55548e-07
2.55551e-07
2.55554e-07
2.55556e-07
2.55559e-07
2.55562e-07
2.55565e-07
2.55568e-07
2.5557e-07
2.55573e-07
2.55576e-07
2.55578e-07
2.55581e-07
2.55583e-07
2.55585e-07
2.55587e-07
2.55589e-07
2.55591e-07
2.55593e-07
2.55594e-07
2.55596e-07
2.55597e-07
2.55598e-07
2.55599e-07
2.556e-07
2.556e-07
2.55599e-07
2.55599e-07
2.55596e-07
2.55593e-07
2.55593e-07
2.55593e-07
2.55594e-07
2.55595e-07
2.55596e-07
2.55596e-07
2.55597e-07
2.55597e-07
2.55597e-07
2.55597e-07
2.55597e-07
2.55598e-07
2.556e-07
2.55601e-07
2.55604e-07
2.55607e-07
2.5561e-07
2.55613e-07
2.55617e-07
2.5562e-07
2.55623e-07
2.55626e-07
2.55629e-07
2.55631e-07
2.55633e-07
2.55635e-07
2.55636e-07
2.55637e-07
2.55638e-07
2.55638e-07
2.55637e-07
2.55637e-07
2.55636e-07
2.55635e-07
2.55634e-07
2.55633e-07
2.55631e-07
2.55629e-07
2.55627e-07
2.55625e-07
2.55623e-07
2.55621e-07
2.55619e-07
2.55617e-07
2.55615e-07
2.55612e-07
2.5561e-07
2.55608e-07
2.55605e-07
2.55603e-07
2.556e-07
2.55597e-07
2.55593e-07
2.55589e-07
2.55585e-07
2.5558e-07
2.55575e-07
2.55568e-07
2.55561e-07
2.55557e-07
2.55554e-07
2.55552e-07
2.5555e-07
2.55548e-07
2.55546e-07
2.55544e-07
2.55542e-07
2.5554e-07
2.55539e-07
2.55537e-07
2.55537e-07
2.55534e-07
2.55535e-07
2.55523e-07
1.06793e-06
1.06796e-06
1.06799e-06
1.068e-06
1.068e-06
1.068e-06
1.068e-06
1.06801e-06
1.06801e-06
1.06801e-06
1.06801e-06
1.06802e-06
1.06802e-06
1.06803e-06
1.06804e-06
1.06805e-06
1.06806e-06
1.06807e-06
1.06808e-06
1.06809e-06
1.0681e-06
1.06811e-06
1.06813e-06
1.06814e-06
1.06815e-06
1.06816e-06
1.06817e-06
1.06818e-06
1.06819e-06
1.0682e-06
1.06821e-06
1.06822e-06
1.06822e-06
1.06823e-06
1.06824e-06
1.06824e-06
1.06825e-06
1.06825e-06
1.06826e-06
1.06826e-06
1.06826e-06
1.06826e-06
1.06826e-06
1.06826e-06
1.06825e-06
1.06824e-06
1.06824e-06
1.06824e-06
1.06824e-06
1.06825e-06
1.06825e-06
1.06825e-06
1.06825e-06
1.06825e-06
1.06825e-06
1.06825e-06
1.06826e-06
1.06826e-06
1.06827e-06
1.06827e-06
1.06828e-06
1.0683e-06
1.06831e-06
1.06832e-06
1.06834e-06
1.06835e-06
1.06836e-06
1.06837e-06
1.06838e-06
1.06839e-06
1.0684e-06
1.06841e-06
1.06841e-06
1.06841e-06
1.06842e-06
1.06842e-06
1.06842e-06
1.06841e-06
1.06841e-06
1.06841e-06
1.0684e-06
1.06839e-06
1.06839e-06
1.06838e-06
1.06837e-06
1.06836e-06
1.06835e-06
1.06835e-06
1.06834e-06
1.06833e-06
1.06832e-06
1.06831e-06
1.0683e-06
1.06829e-06
1.06828e-06
1.06827e-06
1.06826e-06
1.06825e-06
1.06823e-06
1.06822e-06
1.0682e-06
1.06818e-06
1.06816e-06
1.06813e-06
1.0681e-06
1.06809e-06
1.06808e-06
1.06807e-06
1.06806e-06
1.06805e-06
1.06805e-06
1.06804e-06
1.06803e-06
1.06802e-06
1.06802e-06
1.06801e-06
1.06801e-06
1.068e-06
1.068e-06
1.06796e-06
2.9824e-06
2.98246e-06
2.98256e-06
2.98261e-06
2.98264e-06
2.98264e-06
2.98265e-06
2.98265e-06
2.98266e-06
2.98266e-06
2.98267e-06
2.98269e-06
2.9827e-06
2.98272e-06
2.98275e-06
2.98277e-06
2.9828e-06
2.98282e-06
2.98285e-06
2.98288e-06
2.98291e-06
2.98294e-06
2.98297e-06
2.983e-06
2.98303e-06
2.98306e-06
2.98308e-06
2.98311e-06
2.98313e-06
2.98316e-06
2.98318e-06
2.9832e-06
2.98322e-06
2.98324e-06
2.98326e-06
2.98327e-06
2.98329e-06
2.9833e-06
2.98331e-06
2.98332e-06
2.98332e-06
2.98332e-06
2.98331e-06
2.98331e-06
2.98328e-06
2.98325e-06
2.98325e-06
2.98325e-06
2.98327e-06
2.98328e-06
2.98329e-06
2.9833e-06
2.9833e-06
2.9833e-06
2.9833e-06
2.98331e-06
2.98331e-06
2.98332e-06
2.98334e-06
2.98336e-06
2.98339e-06
2.98342e-06
2.98345e-06
2.98349e-06
2.98352e-06
2.98356e-06
2.98359e-06
2.98362e-06
2.98365e-06
2.98367e-06
2.98369e-06
2.9837e-06
2.98371e-06
2.98372e-06
2.98372e-06
2.98372e-06
2.98372e-06
2.98371e-06
2.9837e-06
2.98369e-06
2.98368e-06
2.98366e-06
2.98364e-06
2.98362e-06
2.9836e-06
2.98358e-06
2.98355e-06
2.98353e-06
2.98351e-06
2.98348e-06
2.98346e-06
2.98344e-06
2.98342e-06
2.98339e-06
2.98336e-06
2.98333e-06
2.9833e-06
2.98327e-06
2.98323e-06
2.98319e-06
2.98315e-06
2.98309e-06
2.98304e-06
2.98297e-06
2.98289e-06
2.98285e-06
2.98282e-06
2.9828e-06
2.98279e-06
2.98277e-06
2.98275e-06
2.98273e-06
2.98271e-06
2.98269e-06
2.98268e-06
2.98266e-06
2.98266e-06
2.98263e-06
2.98264e-06
2.98253e-06
6.26663e-06
6.2667e-06
6.2669e-06
6.26704e-06
6.26712e-06
6.26716e-06
6.26719e-06
6.2672e-06
6.26722e-06
6.26724e-06
6.26726e-06
6.26728e-06
6.26732e-06
6.26736e-06
6.2674e-06
6.26745e-06
6.2675e-06
6.26755e-06
6.2676e-06
6.26766e-06
6.26772e-06
6.26777e-06
6.26783e-06
6.26789e-06
6.26795e-06
6.268e-06
6.26805e-06
6.2681e-06
6.26815e-06
6.2682e-06
6.26824e-06
6.26828e-06
6.26832e-06
6.26835e-06
6.26839e-06
6.26842e-06
6.26844e-06
6.26847e-06
6.26848e-06
6.2685e-06
6.26851e-06
6.26851e-06
6.2685e-06
6.26848e-06
6.26844e-06
6.26837e-06
6.26836e-06
6.26837e-06
6.2684e-06
6.26843e-06
6.26845e-06
6.26847e-06
6.26848e-06
6.26849e-06
6.26849e-06
6.2685e-06
6.26851e-06
6.26854e-06
6.26857e-06
6.26861e-06
6.26866e-06
6.26872e-06
6.26879e-06
6.26886e-06
6.26893e-06
6.26899e-06
6.26906e-06
6.26911e-06
6.26917e-06
6.26921e-06
6.26924e-06
6.26927e-06
6.26929e-06
6.2693e-06
6.26931e-06
6.2693e-06
6.26929e-06
6.26928e-06
6.26926e-06
6.26923e-06
6.2692e-06
6.26917e-06
6.26913e-06
6.26909e-06
6.26905e-06
6.269e-06
6.26895e-06
6.2689e-06
6.26886e-06
6.26881e-06
6.26877e-06
6.26873e-06
6.26868e-06
6.26863e-06
6.26857e-06
6.26852e-06
6.26845e-06
6.26838e-06
6.26831e-06
6.26823e-06
6.26814e-06
6.26803e-06
6.26792e-06
6.26779e-06
6.26764e-06
6.26755e-06
6.2675e-06
6.26747e-06
6.26744e-06
6.26741e-06
6.26738e-06
6.26734e-06
6.26731e-06
6.26728e-06
6.26725e-06
6.26722e-06
6.26721e-06
6.26717e-06
6.26717e-06
6.267e-06
1.08263e-05
1.08263e-05
1.08266e-05
1.08269e-05
1.08271e-05
1.08272e-05
1.08272e-05
1.08273e-05
1.08273e-05
1.08274e-05
1.08274e-05
1.08275e-05
1.08275e-05
1.08276e-05
1.08277e-05
1.08277e-05
1.08278e-05
1.08279e-05
1.0828e-05
1.08281e-05
1.08282e-05
1.08283e-05
1.08284e-05
1.08285e-05
1.08286e-05
1.08286e-05
1.08287e-05
1.08288e-05
1.08289e-05
1.0829e-05
1.0829e-05
1.08291e-05
1.08292e-05
1.08292e-05
1.08293e-05
1.08293e-05
1.08293e-05
1.08294e-05
1.08294e-05
1.08294e-05
1.08295e-05
1.08295e-05
1.08294e-05
1.08294e-05
1.08293e-05
1.08292e-05
1.08292e-05
1.08292e-05
1.08293e-05
1.08293e-05
1.08294e-05
1.08294e-05
1.08294e-05
1.08294e-05
1.08295e-05
1.08295e-05
1.08295e-05
1.08295e-05
1.08296e-05
1.08297e-05
1.08298e-05
1.08299e-05
1.083e-05
1.08301e-05
1.08302e-05
1.08303e-05
1.08304e-05
1.08305e-05
1.08306e-05
1.08306e-05
1.08307e-05
1.08307e-05
1.08307e-05
1.08308e-05
1.08308e-05
1.08308e-05
1.08307e-05
1.08307e-05
1.08307e-05
1.08306e-05
1.08306e-05
1.08305e-05
1.08305e-05
1.08304e-05
1.08303e-05
1.08302e-05
1.08302e-05
1.08301e-05
1.083e-05
1.08299e-05
1.08299e-05
1.08298e-05
1.08297e-05
1.08296e-05
1.08295e-05
1.08294e-05
1.08293e-05
1.08292e-05
1.08291e-05
1.0829e-05
1.08288e-05
1.08286e-05
1.08285e-05
1.08283e-05
1.0828e-05
1.08279e-05
1.08278e-05
1.08277e-05
1.08277e-05
1.08276e-05
1.08276e-05
1.08275e-05
1.08275e-05
1.08274e-05
1.08274e-05
1.08274e-05
1.08274e-05
1.08273e-05
1.08273e-05
1.08271e-05
1.64001e-05
1.63999e-05
1.64003e-05
1.64007e-05
1.6401e-05
1.64012e-05
1.64014e-05
1.64015e-05
1.64016e-05
1.64017e-05
1.64018e-05
1.64019e-05
1.6402e-05
1.64021e-05
1.64022e-05
1.64023e-05
1.64024e-05
1.64025e-05
1.64026e-05
1.64028e-05
1.64029e-05
1.6403e-05
1.64032e-05
1.64033e-05
1.64034e-05
1.64036e-05
1.64037e-05
1.64038e-05
1.64039e-05
1.6404e-05
1.64041e-05
1.64042e-05
1.64043e-05
1.64044e-05
1.64045e-05
1.64045e-05
1.64046e-05
1.64047e-05
1.64047e-05
1.64047e-05
1.64048e-05
1.64048e-05
1.64047e-05
1.64047e-05
1.64046e-05
1.64045e-05
1.64044e-05
1.64044e-05
1.64045e-05
1.64045e-05
1.64046e-05
1.64047e-05
1.64047e-05
1.64047e-05
1.64048e-05
1.64048e-05
1.64049e-05
1.64049e-05
1.6405e-05
1.64051e-05
1.64053e-05
1.64054e-05
1.64056e-05
1.64057e-05
1.64059e-05
1.6406e-05
1.64062e-05
1.64063e-05
1.64064e-05
1.64065e-05
1.64066e-05
1.64066e-05
1.64066e-05
1.64067e-05
1.64067e-05
1.64067e-05
1.64066e-05
1.64066e-05
1.64065e-05
1.64065e-05
1.64064e-05
1.64063e-05
1.64062e-05
1.64061e-05
1.6406e-05
1.64059e-05
1.64058e-05
1.64056e-05
1.64055e-05
1.64054e-05
1.64053e-05
1.64052e-05
1.64051e-05
1.6405e-05
1.64048e-05
1.64047e-05
1.64045e-05
1.64044e-05
1.64042e-05
1.6404e-05
1.64038e-05
1.64035e-05
1.64033e-05
1.6403e-05
1.64026e-05
1.64024e-05
1.64022e-05
1.64022e-05
1.64021e-05
1.64021e-05
1.6402e-05
1.64019e-05
1.64019e-05
1.64018e-05
1.64018e-05
1.64017e-05
1.64017e-05
1.64017e-05
1.64016e-05
1.64015e-05
2.27363e-05
2.27358e-05
2.27361e-05
2.27366e-05
2.27371e-05
2.27375e-05
2.27378e-05
2.2738e-05
2.27382e-05
2.27383e-05
2.27385e-05
2.27386e-05
2.27387e-05
2.27389e-05
2.2739e-05
2.27392e-05
2.27393e-05
2.27395e-05
2.27397e-05
2.27399e-05
2.274e-05
2.27402e-05
2.27404e-05
2.27406e-05
2.27408e-05
2.27409e-05
2.27411e-05
2.27413e-05
2.27414e-05
2.27416e-05
2.27417e-05
2.27418e-05
2.27419e-05
2.2742e-05
2.27421e-05
2.27422e-05
2.27423e-05
2.27424e-05
2.27424e-05
2.27425e-05
2.27425e-05
2.27426e-05
2.27425e-05
2.27425e-05
2.27424e-05
2.27422e-05
2.27421e-05
2.27421e-05
2.27421e-05
2.27422e-05
2.27423e-05
2.27424e-05
2.27425e-05
2.27425e-05
2.27426e-05
2.27427e-05
2.27428e-05
2.27429e-05
2.2743e-05
2.27432e-05
2.27433e-05
2.27435e-05
2.27437e-05
2.27439e-05
2.27441e-05
2.27443e-05
2.27445e-05
2.27447e-05
2.27448e-05
2.27449e-05
2.2745e-05
2.27451e-05
2.27451e-05
2.27451e-05
2.27451e-05
2.27451e-05
2.27451e-05
2.2745e-05
2.27449e-05
2.27448e-05
2.27447e-05
2.27446e-05
2.27445e-05
2.27443e-05
2.27442e-05
2.2744e-05
2.27439e-05
2.27437e-05
2.27436e-05
2.27434e-05
2.27433e-05
2.27431e-05
2.2743e-05
2.27428e-05
2.27426e-05
2.27424e-05
2.27422e-05
2.2742e-05
2.27417e-05
2.27415e-05
2.27412e-05
2.27409e-05
2.27405e-05
2.27401e-05
2.27397e-05
2.27393e-05
2.27391e-05
2.2739e-05
2.27389e-05
2.27388e-05
2.27388e-05
2.27387e-05
2.27386e-05
2.27386e-05
2.27385e-05
2.27385e-05
2.27385e-05
2.27384e-05
2.27384e-05
2.27383e-05
2.9644e-05
2.96432e-05
2.96435e-05
2.9644e-05
2.96446e-05
2.96451e-05
2.96455e-05
2.96459e-05
2.96462e-05
2.96464e-05
2.96466e-05
2.96468e-05
2.9647e-05
2.96472e-05
2.96474e-05
2.96477e-05
2.96479e-05
2.96481e-05
2.96483e-05
2.96486e-05
2.96488e-05
2.9649e-05
2.96493e-05
2.96495e-05
2.96497e-05
2.96499e-05
2.96502e-05
2.96504e-05
2.96506e-05
2.96507e-05
2.96509e-05
2.96511e-05
2.96512e-05
2.96514e-05
2.96515e-05
2.96516e-05
2.96517e-05
2.96518e-05
2.96519e-05
2.9652e-05
2.9652e-05
2.96521e-05
2.9652e-05
2.9652e-05
2.96519e-05
2.96517e-05
2.96515e-05
2.96515e-05
2.96515e-05
2.96516e-05
2.96517e-05
2.96518e-05
2.96519e-05
2.9652e-05
2.96521e-05
2.96522e-05
2.96524e-05
2.96525e-05
2.96527e-05
2.96529e-05
2.96532e-05
2.96534e-05
2.96537e-05
2.96539e-05
2.96542e-05
2.96544e-05
2.96547e-05
2.96548e-05
2.9655e-05
2.96551e-05
2.96553e-05
2.96553e-05
2.96554e-05
2.96554e-05
2.96554e-05
2.96554e-05
2.96553e-05
2.96552e-05
2.96551e-05
2.9655e-05
2.96548e-05
2.96547e-05
2.96545e-05
2.96543e-05
2.96542e-05
2.9654e-05
2.96537e-05
2.96535e-05
2.96533e-05
2.96531e-05
2.96529e-05
2.96527e-05
2.96525e-05
2.96523e-05
2.96521e-05
2.96518e-05
2.96516e-05
2.96513e-05
2.96509e-05
2.96506e-05
2.96502e-05
2.96498e-05
2.96494e-05
2.96489e-05
2.96484e-05
2.96479e-05
2.96476e-05
2.96474e-05
2.96473e-05
2.96472e-05
2.96471e-05
2.96471e-05
2.9647e-05
2.9647e-05
2.96469e-05
2.96469e-05
2.96469e-05
2.96468e-05
2.96467e-05
2.96469e-05
3.69874e-05
3.69863e-05
3.69864e-05
3.6987e-05
3.69876e-05
3.69883e-05
3.69888e-05
3.69893e-05
3.69898e-05
3.69901e-05
3.69904e-05
3.69907e-05
3.6991e-05
3.69913e-05
3.69916e-05
3.69918e-05
3.69921e-05
3.69924e-05
3.69927e-05
3.6993e-05
3.69933e-05
3.69936e-05
3.69939e-05
3.69942e-05
3.69944e-05
3.69947e-05
3.6995e-05
3.69952e-05
3.69955e-05
3.69957e-05
3.69959e-05
3.69961e-05
3.69963e-05
3.69965e-05
3.69967e-05
3.69968e-05
3.6997e-05
3.69971e-05
3.69972e-05
3.69973e-05
3.69973e-05
3.69974e-05
3.69974e-05
3.69973e-05
3.69972e-05
3.6997e-05
3.69968e-05
3.69967e-05
3.69968e-05
3.69968e-05
3.69969e-05
3.69971e-05
3.69972e-05
3.69973e-05
3.69975e-05
3.69977e-05
3.69979e-05
3.69981e-05
3.69984e-05
3.69986e-05
3.69989e-05
3.69993e-05
3.69996e-05
3.69999e-05
3.70002e-05
3.70005e-05
3.70007e-05
3.70009e-05
3.70011e-05
3.70013e-05
3.70014e-05
3.70015e-05
3.70015e-05
3.70015e-05
3.70015e-05
3.70015e-05
3.70014e-05
3.70013e-05
3.70012e-05
3.7001e-05
3.70008e-05
3.70006e-05
3.70004e-05
3.70002e-05
3.7e-05
3.69997e-05
3.69995e-05
3.69992e-05
3.69989e-05
3.69987e-05
3.69984e-05
3.69982e-05
3.69979e-05
3.69977e-05
3.69974e-05
3.6997e-05
3.69967e-05
3.69963e-05
3.69959e-05
3.69955e-05
3.6995e-05
3.69946e-05
3.69941e-05
3.69935e-05
3.69928e-05
3.69923e-05
3.69919e-05
3.69916e-05
3.69914e-05
3.69913e-05
3.69912e-05
3.69912e-05
3.69911e-05
3.6991e-05
3.6991e-05
3.6991e-05
3.6991e-05
3.6991e-05
3.69908e-05
3.69912e-05
4.46694e-05
4.4668e-05
4.4668e-05
4.46685e-05
4.46692e-05
4.46699e-05
4.46706e-05
4.46713e-05
4.46718e-05
4.46723e-05
4.46728e-05
4.46732e-05
4.46735e-05
4.46739e-05
4.46743e-05
4.46746e-05
4.4675e-05
4.46753e-05
4.46757e-05
4.46761e-05
4.46764e-05
4.46768e-05
4.46771e-05
4.46775e-05
4.46778e-05
4.46782e-05
4.46785e-05
4.46788e-05
4.46791e-05
4.46794e-05
4.46796e-05
4.46799e-05
4.46801e-05
4.46803e-05
4.46805e-05
4.46807e-05
4.46809e-05
4.4681e-05
4.46812e-05
4.46813e-05
4.46814e-05
4.46814e-05
4.46814e-05
4.46814e-05
4.46813e-05
4.4681e-05
4.46808e-05
4.46807e-05
4.46807e-05
4.46808e-05
4.46809e-05
4.46811e-05
4.46812e-05
4.46814e-05
4.46816e-05
4.46819e-05
4.46821e-05
4.46825e-05
4.46828e-05
4.46831e-05
4.46835e-05
4.46839e-05
4.46843e-05
4.46846e-05
4.4685e-05
4.46853e-05
4.46856e-05
4.46858e-05
4.4686e-05
4.46862e-05
4.46863e-05
4.46864e-05
4.46864e-05
4.46864e-05
4.46864e-05
4.46863e-05
4.46862e-05
4.46861e-05
4.46859e-05
4.46858e-05
4.46855e-05
4.46853e-05
4.46851e-05
4.46848e-05
4.46845e-05
4.46842e-05
4.46839e-05
4.46836e-05
4.46833e-05
4.46829e-05
4.46826e-05
4.46823e-05
4.4682e-05
4.46817e-05
4.46813e-05
4.46809e-05
4.46805e-05
4.468e-05
4.46795e-05
4.4679e-05
4.46785e-05
4.46779e-05
4.46773e-05
4.46767e-05
4.46759e-05
4.46753e-05
4.46748e-05
4.46745e-05
4.46742e-05
4.46741e-05
4.4674e-05
4.46739e-05
4.46738e-05
4.46738e-05
4.46738e-05
4.46738e-05
4.46738e-05
4.46738e-05
4.46736e-05
4.46743e-05
5.2619e-05
5.26173e-05
5.26172e-05
5.26177e-05
5.26184e-05
5.26192e-05
5.262e-05
5.26207e-05
5.26214e-05
5.2622e-05
5.26226e-05
5.26231e-05
5.26236e-05
5.2624e-05
5.26245e-05
5.2625e-05
5.26254e-05
5.26258e-05
5.26263e-05
5.26267e-05
5.26272e-05
5.26276e-05
5.2628e-05
5.26284e-05
5.26289e-05
5.26292e-05
5.26296e-05
5.263e-05
5.26304e-05
5.26307e-05
5.2631e-05
5.26313e-05
5.26316e-05
5.26318e-05
5.26321e-05
5.26323e-05
5.26325e-05
5.26327e-05
5.26328e-05
5.2633e-05
5.26331e-05
5.26332e-05
5.26332e-05
5.26332e-05
5.26331e-05
5.26328e-05
5.26326e-05
5.26325e-05
5.26325e-05
5.26325e-05
5.26326e-05
5.26328e-05
5.2633e-05
5.26332e-05
5.26335e-05
5.26338e-05
5.26342e-05
5.26346e-05
5.2635e-05
5.26354e-05
5.26359e-05
5.26363e-05
5.26367e-05
5.26371e-05
5.26375e-05
5.26379e-05
5.26382e-05
5.26384e-05
5.26387e-05
5.26388e-05
5.26389e-05
5.2639e-05
5.26391e-05
5.2639e-05
5.2639e-05
5.26389e-05
5.26388e-05
5.26386e-05
5.26384e-05
5.26382e-05
5.26379e-05
5.26376e-05
5.26373e-05
5.2637e-05
5.26367e-05
5.26363e-05
5.2636e-05
5.26356e-05
5.26352e-05
5.26348e-05
5.26345e-05
5.26341e-05
5.26337e-05
5.26333e-05
5.26329e-05
5.26324e-05
5.26318e-05
5.26313e-05
5.26307e-05
5.26301e-05
5.26295e-05
5.26289e-05
5.26282e-05
5.26275e-05
5.26267e-05
5.26259e-05
5.26254e-05
5.2625e-05
5.26247e-05
5.26245e-05
5.26243e-05
5.26242e-05
5.26242e-05
5.26241e-05
5.26241e-05
5.26242e-05
5.26242e-05
5.26243e-05
5.26241e-05
5.2625e-05
6.07829e-05
6.07808e-05
6.07806e-05
6.07811e-05
6.07818e-05
6.07826e-05
6.07835e-05
6.07843e-05
6.07852e-05
6.07859e-05
6.07866e-05
6.07872e-05
6.07878e-05
6.07884e-05
6.07889e-05
6.07895e-05
6.079e-05
6.07906e-05
6.07911e-05
6.07916e-05
6.07921e-05
6.07927e-05
6.07932e-05
6.07937e-05
6.07942e-05
6.07946e-05
6.07951e-05
6.07955e-05
6.07959e-05
6.07963e-05
6.07967e-05
6.0797e-05
6.07974e-05
6.07977e-05
6.07979e-05
6.07982e-05
6.07984e-05
6.07986e-05
6.07988e-05
6.0799e-05
6.07991e-05
6.07992e-05
6.07993e-05
6.07993e-05
6.07992e-05
6.07989e-05
6.07987e-05
6.07986e-05
6.07985e-05
6.07986e-05
6.07987e-05
6.07988e-05
6.07991e-05
6.07994e-05
6.07997e-05
6.08001e-05
6.08006e-05
6.08011e-05
6.08016e-05
6.08021e-05
6.08026e-05
6.08031e-05
6.08036e-05
6.08041e-05
6.08045e-05
6.08048e-05
6.08051e-05
6.08054e-05
6.08056e-05
6.08058e-05
6.08059e-05
6.0806e-05
6.0806e-05
6.0806e-05
6.08059e-05
6.08057e-05
6.08056e-05
6.08054e-05
6.08051e-05
6.08049e-05
6.08046e-05
6.08042e-05
6.08039e-05
6.08035e-05
6.08031e-05
6.08027e-05
6.08023e-05
6.08018e-05
6.08014e-05
6.0801e-05
6.08005e-05
6.08001e-05
6.07996e-05
6.07991e-05
6.07986e-05
6.0798e-05
6.07974e-05
6.07967e-05
6.07961e-05
6.07954e-05
6.07947e-05
6.0794e-05
6.07933e-05
6.07925e-05
6.07916e-05
6.07908e-05
6.07901e-05
6.07897e-05
6.07893e-05
6.07891e-05
6.07889e-05
6.07888e-05
6.07888e-05
6.07888e-05
6.07888e-05
6.07888e-05
6.07889e-05
6.0789e-05
6.07888e-05
6.07901e-05
6.91199e-05
6.91176e-05
6.91173e-05
6.91177e-05
6.91184e-05
6.91193e-05
6.91202e-05
6.91211e-05
6.91221e-05
6.91229e-05
6.91237e-05
6.91245e-05
6.91252e-05
6.91259e-05
6.91266e-05
6.91272e-05
6.91279e-05
6.91285e-05
6.91291e-05
6.91298e-05
6.91304e-05
6.9131e-05
6.91316e-05
6.91321e-05
6.91327e-05
6.91333e-05
6.91338e-05
6.91343e-05
6.91348e-05
6.91352e-05
6.91356e-05
6.9136e-05
6.91364e-05
6.91368e-05
6.91371e-05
6.91374e-05
6.91377e-05
6.91379e-05
6.91381e-05
6.91383e-05
6.91385e-05
6.91386e-05
6.91387e-05
6.91387e-05
6.91386e-05
6.91383e-05
6.91381e-05
6.9138e-05
6.91379e-05
6.91379e-05
6.9138e-05
6.91382e-05
6.91385e-05
6.91389e-05
6.91393e-05
6.91398e-05
6.91404e-05
6.9141e-05
6.91416e-05
6.91422e-05
6.91428e-05
6.91433e-05
6.91438e-05
6.91443e-05
6.91447e-05
6.91451e-05
6.91454e-05
6.91457e-05
6.91459e-05
6.9146e-05
6.91461e-05
6.91462e-05
6.91461e-05
6.91461e-05
6.91459e-05
6.91458e-05
6.91456e-05
6.91453e-05
6.9145e-05
6.91447e-05
6.91444e-05
6.9144e-05
6.91436e-05
6.91432e-05
6.91427e-05
6.91422e-05
6.91417e-05
6.91412e-05
6.91407e-05
6.91402e-05
6.91397e-05
6.91392e-05
6.91387e-05
6.91381e-05
6.91374e-05
6.91367e-05
6.9136e-05
6.91353e-05
6.91345e-05
6.91337e-05
6.9133e-05
6.91322e-05
6.91314e-05
6.91306e-05
6.91296e-05
6.91288e-05
6.91281e-05
6.91276e-05
6.91272e-05
6.91269e-05
6.91267e-05
6.91266e-05
6.91266e-05
6.91266e-05
6.91267e-05
6.91267e-05
6.91269e-05
6.9127e-05
6.91268e-05
6.91284e-05
7.75981e-05
7.75954e-05
7.75951e-05
7.75955e-05
7.75962e-05
7.75971e-05
7.75981e-05
7.75991e-05
7.76001e-05
7.76011e-05
7.7602e-05
7.76029e-05
7.76037e-05
7.76045e-05
7.76053e-05
7.76061e-05
7.76068e-05
7.76076e-05
7.76083e-05
7.7609e-05
7.76097e-05
7.76104e-05
7.76111e-05
7.76118e-05
7.76124e-05
7.76131e-05
7.76137e-05
7.76142e-05
7.76148e-05
7.76153e-05
7.76158e-05
7.76162e-05
7.76167e-05
7.76171e-05
7.76174e-05
7.76178e-05
7.76181e-05
7.76184e-05
7.76186e-05
7.76188e-05
7.7619e-05
7.76192e-05
7.76192e-05
7.76193e-05
7.76192e-05
7.7619e-05
7.76187e-05
7.76186e-05
7.76185e-05
7.76185e-05
7.76186e-05
7.76189e-05
7.76192e-05
7.76196e-05
7.76202e-05
7.76208e-05
7.76214e-05
7.76221e-05
7.76228e-05
7.76235e-05
7.76241e-05
7.76247e-05
7.76252e-05
7.76257e-05
7.76261e-05
7.76265e-05
7.76268e-05
7.7627e-05
7.76272e-05
7.76273e-05
7.76274e-05
7.76274e-05
7.76273e-05
7.76272e-05
7.76271e-05
7.76268e-05
7.76266e-05
7.76263e-05
7.76259e-05
7.76256e-05
7.76252e-05
7.76247e-05
7.76242e-05
7.76238e-05
7.76232e-05
7.76227e-05
7.76222e-05
7.76216e-05
7.7621e-05
7.76204e-05
7.76199e-05
7.76193e-05
7.76186e-05
7.76179e-05
7.76171e-05
7.76163e-05
7.76155e-05
7.76147e-05
7.76138e-05
7.7613e-05
7.76122e-05
7.76113e-05
7.76105e-05
7.76097e-05
7.76087e-05
7.76078e-05
7.7607e-05
7.76065e-05
7.76061e-05
7.76058e-05
7.76056e-05
7.76055e-05
7.76055e-05
7.76056e-05
7.76056e-05
7.76058e-05
7.76059e-05
7.76062e-05
7.76059e-05
7.76079e-05
8.61919e-05
8.6189e-05
8.61886e-05
8.6189e-05
8.61898e-05
8.61907e-05
8.61917e-05
8.61928e-05
8.61939e-05
8.61949e-05
8.6196e-05
8.61969e-05
8.61979e-05
8.61988e-05
8.61997e-05
8.62006e-05
8.62015e-05
8.62023e-05
8.62032e-05
8.6204e-05
8.62048e-05
8.62056e-05
8.62064e-05
8.62072e-05
8.62079e-05
8.62086e-05
8.62093e-05
8.62099e-05
8.62106e-05
8.62111e-05
8.62117e-05
8.62122e-05
8.62127e-05
8.62131e-05
8.62136e-05
8.62139e-05
8.62143e-05
8.62146e-05
8.62149e-05
8.62151e-05
8.62153e-05
8.62155e-05
8.62156e-05
8.62157e-05
8.62156e-05
8.62154e-05
8.62151e-05
8.6215e-05
8.62149e-05
8.62149e-05
8.6215e-05
8.62153e-05
8.62157e-05
8.62162e-05
8.62169e-05
8.62176e-05
8.62184e-05
8.62191e-05
8.62199e-05
8.62206e-05
8.62212e-05
8.62218e-05
8.62224e-05
8.62228e-05
8.62232e-05
8.62236e-05
8.62238e-05
8.6224e-05
8.62242e-05
8.62243e-05
8.62243e-05
8.62242e-05
8.62241e-05
8.62239e-05
8.62237e-05
8.62234e-05
8.62231e-05
8.62227e-05
8.62223e-05
8.62219e-05
8.62214e-05
8.62209e-05
8.62204e-05
8.62198e-05
8.62192e-05
8.62186e-05
8.6218e-05
8.62174e-05
8.62167e-05
8.62161e-05
8.62154e-05
8.62147e-05
8.6214e-05
8.62131e-05
8.62123e-05
8.62114e-05
8.62104e-05
8.62095e-05
8.62086e-05
8.62077e-05
8.62068e-05
8.62059e-05
8.62051e-05
8.62042e-05
8.62032e-05
8.62023e-05
8.62016e-05
8.6201e-05
8.62006e-05
8.62003e-05
8.62002e-05
8.62001e-05
8.62001e-05
8.62002e-05
8.62003e-05
8.62005e-05
8.62007e-05
8.6201e-05
8.62008e-05
8.62031e-05
9.48812e-05
9.48781e-05
9.48777e-05
9.48781e-05
9.48788e-05
9.48798e-05
9.48809e-05
9.4882e-05
9.48832e-05
9.48843e-05
9.48854e-05
9.48865e-05
9.48876e-05
9.48886e-05
9.48896e-05
9.48906e-05
9.48916e-05
9.48926e-05
9.48936e-05
9.48945e-05
9.48954e-05
9.48963e-05
9.48972e-05
9.48981e-05
9.48989e-05
9.48997e-05
9.49005e-05
9.49012e-05
9.49019e-05
9.49026e-05
9.49032e-05
9.49038e-05
9.49043e-05
9.49048e-05
9.49053e-05
9.49057e-05
9.49061e-05
9.49064e-05
9.49067e-05
9.4907e-05
9.49072e-05
9.49074e-05
9.49075e-05
9.49076e-05
9.49076e-05
9.49073e-05
9.49071e-05
9.49069e-05
9.49068e-05
9.49069e-05
9.4907e-05
9.49073e-05
9.49078e-05
9.49085e-05
9.49092e-05
9.491e-05
9.49109e-05
9.49117e-05
9.49125e-05
9.49132e-05
9.49138e-05
9.49144e-05
9.49149e-05
9.49154e-05
9.49157e-05
9.4916e-05
9.49162e-05
9.49164e-05
9.49164e-05
9.49164e-05
9.49164e-05
9.49163e-05
9.49161e-05
9.49158e-05
9.49155e-05
9.49152e-05
9.49148e-05
9.49144e-05
9.49139e-05
9.49134e-05
9.49128e-05
9.49123e-05
9.49117e-05
9.4911e-05
9.49104e-05
9.49097e-05
9.4909e-05
9.49083e-05
9.49076e-05
9.49068e-05
9.49061e-05
9.49053e-05
9.49044e-05
9.49034e-05
9.49024e-05
9.49014e-05
9.49004e-05
9.48994e-05
9.48984e-05
9.48975e-05
9.48966e-05
9.48957e-05
9.48949e-05
9.48941e-05
9.48931e-05
9.48921e-05
9.48914e-05
9.48908e-05
9.48905e-05
9.48902e-05
9.48901e-05
9.48901e-05
9.48901e-05
9.48903e-05
9.48905e-05
9.48907e-05
9.4891e-05
9.48914e-05
9.48911e-05
9.48939e-05
0.00010365
0.000103647
0.000103646
0.000103647
0.000103647
0.000103648
0.00010365
0.000103651
0.000103652
0.000103653
0.000103654
0.000103656
0.000103657
0.000103658
0.000103659
0.00010366
0.000103661
0.000103662
0.000103663
0.000103664
0.000103666
0.000103667
0.000103668
0.000103668
0.000103669
0.00010367
0.000103671
0.000103672
0.000103673
0.000103673
0.000103674
0.000103675
0.000103675
0.000103676
0.000103676
0.000103677
0.000103677
0.000103678
0.000103678
0.000103678
0.000103679
0.000103679
0.000103679
0.000103679
0.000103679
0.000103679
0.000103679
0.000103678
0.000103678
0.000103678
0.000103678
0.000103679
0.000103679
0.00010368
0.000103681
0.000103682
0.000103683
0.000103684
0.000103684
0.000103685
0.000103686
0.000103686
0.000103687
0.000103687
0.000103687
0.000103688
0.000103688
0.000103688
0.000103688
0.000103688
0.000103688
0.000103687
0.000103687
0.000103687
0.000103686
0.000103686
0.000103686
0.000103685
0.000103684
0.000103684
0.000103683
0.000103683
0.000103682
0.000103681
0.00010368
0.00010368
0.000103679
0.000103678
0.000103677
0.000103676
0.000103676
0.000103675
0.000103674
0.000103673
0.000103672
0.00010367
0.000103669
0.000103668
0.000103667
0.000103666
0.000103665
0.000103665
0.000103664
0.000103663
0.000103662
0.000103661
0.00010366
0.00010366
0.00010366
0.000103659
0.000103659
0.000103659
0.000103659
0.00010366
0.00010366
0.00010366
0.000103661
0.000103661
0.000103661
0.000103664
0.000112485
0.000112482
0.000112481
0.000112482
0.000112483
0.000112484
0.000112485
0.000112486
0.000112488
0.000112489
0.00011249
0.000112491
0.000112493
0.000112494
0.000112495
0.000112496
0.000112498
0.000112499
0.0001125
0.000112501
0.000112502
0.000112504
0.000112505
0.000112506
0.000112507
0.000112508
0.000112509
0.00011251
0.00011251
0.000112511
0.000112512
0.000112513
0.000112513
0.000112514
0.000112514
0.000112515
0.000112515
0.000112516
0.000112516
0.000112517
0.000112517
0.000112517
0.000112517
0.000112517
0.000112517
0.000112517
0.000112517
0.000112517
0.000112516
0.000112517
0.000112517
0.000112517
0.000112518
0.000112519
0.00011252
0.000112521
0.000112522
0.000112522
0.000112523
0.000112524
0.000112524
0.000112525
0.000112525
0.000112525
0.000112526