/*--------------------------------*- C++ -*----------------------------------*\
  =========                 |
  \\      /  F ield         | OpenFOAM: The Open Source CFD Toolbox
   \\    /   O peration     | Website:  https://openfoam.org
    \\  /    A nd           | Version:  7
     \\/     M anipulation  |
\*---------------------------------------------------------------------------*/
FoamFile
{
    version     2.0;
    format      ascii;
    class       volScalarField;
    location    "1500";
    object      omega;
}
// * * * * * * * * * * * * * * * * * * * * * * * * * * * * * * * * * * * * * //

dimensions      [0 0 -1 0 0 0 0];

internalField   nonuniform List<scalar> 
24000
(
999.269
999.269
999.269
999.269
999.269
999.269
999.269
999.269
999.269
999.269
999.269
999.269
999.269
999.269
999.269
999.269
999.269
999.269
999.269
999.269
999.269
999.269
999.269
999.269
999.269
999.269
999.269
999.269
999.269
999.269
999.269
999.269
999.269
999.269
999.269
999.269
999.269
999.269
999.269
999.269
999.269
999.269
999.269
999.269
999.269
999.269
999.269
999.269
999.269
999.269
999.269
999.269
999.269
999.269
999.269
999.269
999.269
999.269
999.269
999.269
999.269
999.269
999.269
999.269
999.269
999.269
999.269
999.269
999.269
999.269
999.269
999.269
999.269
999.269
999.269
999.269
999.269
999.269
999.269
999.269
999.269
999.269
999.269
999.269
999.269
999.269
999.269
999.269
999.269
999.269
999.269
999.269
999.269
999.269
999.269
999.269
999.269
999.269
999.269
999.269
999.269
999.269
999.269
999.269
999.269
999.269
999.269
999.269
999.269
999.269
999.269
999.269
999.269
999.269
999.269
999.269
999.269
999.269
999.269
999.269
173.213
173.213
173.213
173.213
173.213
173.213
173.213
173.213
173.213
173.213
173.213
173.213
173.213
173.213
173.213
173.213
173.213
173.213
173.213
173.213
173.213
173.213
173.213
173.213
173.213
173.213
173.213
173.213
173.213
173.213
173.213
173.213
173.213
173.213
173.213
173.213
173.213
173.213
173.213
173.213
173.213
173.213
173.213
173.213
173.213
173.213
173.213
173.213
173.213
173.213
173.213
173.213
173.213
173.213
173.213
173.213
173.213
173.213
173.213
173.213
173.213
173.213
173.213
173.213
173.213
173.213
173.213
173.213
173.213
173.213
173.213
173.213
173.213
173.213
173.213
173.213
173.213
173.213
173.213
173.213
173.213
173.213
173.213
173.213
173.213
173.213
173.213
173.213
173.213
173.213
173.213
173.213
173.213
173.213
173.213
173.213
173.213
173.213
173.213
173.213
173.213
173.213
173.213
173.213
173.213
173.213
173.213
173.213
173.213
173.213
173.213
173.213
173.213
173.213
173.213
173.213
173.213
173.213
173.213
173.213
58.9093
58.9092
58.9092
58.9092
58.9092
58.9092
58.9093
58.9093
58.9093
58.9093
58.9093
58.9093
58.9093
58.9093
58.9093
58.9093
58.9093
58.9093
58.9093
58.9093
58.9093
58.9093
58.9093
58.9093
58.9093
58.9093
58.9093
58.9093
58.9093
58.9093
58.9094
58.9094
58.9094
58.9094
58.9094
58.9094
58.9094
58.9094
58.9094
58.9094
58.9094
58.9094
58.9094
58.9094
58.9094
58.9094
58.9094
58.9094
58.9094
58.9094
58.9093
58.9093
58.9094
58.9094
58.9094
58.9094
58.9094
58.9094
58.9094
58.9094
58.9094
58.9094
58.9094
58.9094
58.9094
58.9094
58.9094
58.9094
58.9094
58.9094
58.9094
58.9094
58.9094
58.9094
58.9094
58.9094
58.9094
58.9094
58.9094
58.9094
58.9094
58.9094
58.9094
58.9094
58.9094
58.9094
58.9094
58.9094
58.9094
58.9094
58.9094
58.9094
58.9094
58.9094
58.9094
58.9094
58.9094
58.9094
58.9094
58.9094
58.9094
58.9094
58.9094
58.9094
58.9094
58.9094
58.9093
58.9093
58.9093
58.9093
58.9093
58.9093
58.9093
58.9093
58.9093
58.9093
58.9093
58.9093
58.9093
58.9093
28.5952
28.5949
28.5948
28.5948
28.5948
28.5949
28.5949
28.5949
28.5949
28.5949
28.5949
28.5949
28.595
28.595
28.595
28.595
28.595
28.595
28.595
28.595
28.595
28.595
28.595
28.595
28.595
28.595
28.595
28.595
28.595
28.595
28.595
28.595
28.5951
28.5951
28.5951
28.5951
28.5951
28.5951
28.5951
28.5951
28.5951
28.5951
28.5951
28.5951
28.5951
28.5951
28.5951
28.5951
28.5951
28.595
28.595
28.595
28.595
28.595
28.5951
28.5951
28.5951
28.5951
28.5951
28.5951
28.5951
28.5951
28.5951
28.5951
28.5951
28.5951
28.5951
28.5951
28.5951
28.5951
28.5951
28.5951
28.5951
28.5951
28.5951
28.5952
28.5952
28.5952
28.5952
28.5952
28.5952
28.5952
28.5952
28.5952
28.5952
28.5952
28.5952
28.5952
28.5952
28.5952
28.5951
28.5951
28.5951
28.5951
28.5951
28.5951
28.5951
28.5951
28.5951
28.5951
28.5951
28.5951
28.5951
28.5951
28.5951
28.5951
28.595
28.595
28.595
28.595
28.595
28.595
28.595
28.595
28.595
28.595
28.595
28.595
28.595
28.595
17.3061
17.3058
17.3056
17.3056
17.3056
17.3056
17.3056
17.3056
17.3056
17.3057
17.3057
17.3057
17.3057
17.3057
17.3057
17.3057
17.3057
17.3057
17.3057
17.3057
17.3057
17.3057
17.3057
17.3057
17.3057
17.3058
17.3058
17.3058
17.3058
17.3058
17.3058
17.3058
17.3058
17.3058
17.3058
17.3058
17.3058
17.3058
17.3058
17.3058
17.3058
17.3059
17.3059
17.3059
17.3059
17.3059
17.3059
17.3058
17.3058
17.3058
17.3058
17.3058
17.3058
17.3058
17.3058
17.3058
17.3058
17.3058
17.3058
17.3058
17.3058
17.3058
17.3058
17.3058
17.3058
17.3058
17.3058
17.3059
17.3059
17.3059
17.3059
17.3059
17.3059
17.3059
17.3059
17.3059
17.3059
17.3059
17.3059
17.3059
17.3059
17.3059
17.3059
17.3059
17.3059
17.3059
17.3059
17.3059
17.3059
17.3059
17.3059
17.3059
17.3059
17.3059
17.3059
17.3059
17.3059
17.3059
17.3059
17.3059
17.3059
17.3059
17.3059
17.3059
17.3059
17.3058
17.3058
17.3058
17.3057
17.3057
17.3057
17.3057
17.3057
17.3057
17.3057
17.3057
17.3057
17.3057
17.3057
17.3058
12.0728
12.0726
12.0724
12.0722
12.0722
12.0722
12.0722
12.0722
12.0722
12.0722
12.0722
12.0722
12.0723
12.0723
12.0723
12.0723
12.0723
12.0723
12.0723
12.0723
12.0723
12.0723
12.0723
12.0723
12.0723
12.0723
12.0723
12.0723
12.0723
12.0723
12.0723
12.0723
12.0724
12.0724
12.0724
12.0724
12.0724
12.0724
12.0724
12.0724
12.0724
12.0724
12.0724
12.0724
12.0724
12.0725
12.0724
12.0724
12.0724
12.0724
12.0724
12.0723
12.0723
12.0723
12.0723
12.0723
12.0723
12.0724
12.0724
12.0724
12.0724
12.0724
12.0724
12.0724
12.0724
12.0724
12.0724
12.0724
12.0724
12.0724
12.0724
12.0724
12.0724
12.0724
12.0724
12.0724
12.0725
12.0725
12.0725
12.0725
12.0725
12.0725
12.0725
12.0725
12.0725
12.0725
12.0725
12.0725
12.0725
12.0725
12.0725
12.0724
12.0724
12.0724
12.0724
12.0724
12.0724
12.0724
12.0724
12.0724
12.0724
12.0724
12.0724
12.0724
12.0724
12.0724
12.0724
12.0724
12.0723
12.0723
12.0723
12.0723
12.0723
12.0723
12.0723
12.0723
12.0723
12.0723
12.0723
12.0724
9.17113
9.17098
9.17076
9.17062
9.17054
9.17051
9.1705
9.1705
9.1705
9.17051
9.17051
9.17052
9.17053
9.17053
9.17054
9.17054
9.17054
9.17055
9.17055
9.17055
9.17056
9.17056
9.17056
9.17057
9.17057
9.17057
9.17057
9.17058
9.17058
9.17058
9.17059
9.17059
9.17059
9.17059
9.1706
9.1706
9.1706
9.17061
9.17061
9.17061
9.17062
9.17062
9.17064
9.17065
9.17067
9.17069
9.17069
9.17067
9.17064
9.17062
9.17061
9.17059
9.17058
9.17058
9.17057
9.17057
9.17058
9.17058
9.17058
9.17059
9.17059
9.1706
9.1706
9.1706
9.17061
9.17061
9.17061
9.17062
9.17062
9.17063
9.17063
9.17063
9.17064
9.17064
9.17064
9.17065
9.17065
9.17065
9.17066
9.17066
9.17066
9.17066
9.17067
9.17067
9.17067
9.17067
9.17067
9.17067
9.17067
9.17067
9.17066
9.17066
9.17065
9.17065
9.17065
9.17065
9.17065
9.17065
9.17064
9.17064
9.17064
9.17065
9.17065
9.17067
9.17069
9.17068
9.17065
9.17062
9.17059
9.17057
9.17055
9.17054
9.17053
9.17053
9.17053
9.17053
9.17053
9.17055
9.17056
9.1706
7.31786
7.31778
7.3176
7.31746
7.31737
7.31732
7.31729
7.31728
7.31728
7.31728
7.31728
7.31728
7.31728
7.31729
7.31729
7.31729
7.3173
7.3173
7.3173
7.3173
7.3173
7.3173
7.31731
7.31731
7.31731
7.31731
7.31731
7.31731
7.31731
7.31731
7.31731
7.31731
7.31731
7.31731
7.31732
7.31732
7.31732
7.31732
7.31732
7.31732
7.31732
7.31733
7.31734
7.31735
7.31737
7.3174
7.3174
7.31739
7.31737
7.31735
7.31733
7.31732
7.3173
7.3173
7.31729
7.31729
7.31729
7.31729
7.3173
7.3173
7.3173
7.31731
7.31731
7.31731
7.31731
7.31731
7.31732
7.31732
7.31732
7.31732
7.31732
7.31732
7.31732
7.31733
7.31733
7.31733
7.31733
7.31734
7.31734
7.31734
7.31734
7.31734
7.31735
7.31735
7.31735
7.31735
7.31735
7.31736
7.31735
7.31735
7.31735
7.31735
7.31734
7.31734
7.31734
7.31734
7.31734
7.31734
7.31734
7.31734
7.31734
7.31734
7.31735
7.31737
7.3174
7.31739
7.31738
7.31735
7.31733
7.31731
7.31729
7.31728
7.31727
7.31727
7.31726
7.31727
7.31727
7.31728
7.31729
7.31732
6.02048
6.02046
6.02032
6.02019
6.0201
6.02004
6.02001
6.01999
6.01997
6.01997
6.01996
6.01996
6.01997
6.01997
6.01997
6.01997
6.01997
6.01997
6.01997
6.01997
6.01997
6.01997
6.01997
6.01997
6.01997
6.01997
6.01997
6.01997
6.01997
6.01997
6.01997
6.01996
6.01996
6.01996
6.01996
6.01996
6.01996
6.01996
6.01996
6.01996
6.01996
6.01996
6.01997
6.01998
6.02
6.02003
6.02004
6.02003
6.02002
6.02
6.01999
6.01997
6.01996
6.01995
6.01994
6.01994
6.01994
6.01994
6.01994
6.01994
6.01994
6.01995
6.01995
6.01995
6.01995
6.01995
6.01995
6.01995
6.01995
6.01995
6.01995
6.01995
6.01995
6.01995
6.01995
6.01995
6.01995
6.01996
6.01996
6.01996
6.01996
6.01996
6.01996
6.01997
6.01997
6.01997
6.01997
6.01997
6.01997
6.01997
6.01997
6.01997
6.01997
6.01997
6.01996
6.01996
6.01996
6.01996
6.01996
6.01996
6.01996
6.01997
6.01998
6.02
6.02002
6.02003
6.02002
6.02
6.01998
6.01997
6.01995
6.01994
6.01993
6.01993
6.01992
6.01992
6.01992
6.01993
6.01995
6.01995
5.06181
5.06182
5.06172
5.06162
5.06153
5.06148
5.06143
5.06141
5.06139
5.06138
5.06137
5.06137
5.06137
5.06137
5.06136
5.06136
5.06136
5.06136
5.06136
5.06136
5.06136
5.06136
5.06136
5.06136
5.06136
5.06135
5.06135
5.06135
5.06135
5.06135
5.06135
5.06135
5.06134
5.06134
5.06134
5.06134
5.06134
5.06133
5.06133
5.06133
5.06133
5.06133
5.06134
5.06135
5.06137
5.06139
5.0614
5.0614
5.06139
5.06138
5.06137
5.06135
5.06134
5.06133
5.06132
5.06132
5.06132
5.06132
5.06132
5.06132
5.06132
5.06132
5.06132
5.06132
5.06132
5.06132
5.06132
5.06132
5.06132
5.06132
5.06132
5.06132
5.06132
5.06132
5.06132
5.06132
5.06132
5.06132
5.06132
5.06132
5.06132
5.06132
5.06132
5.06132
5.06132
5.06133
5.06133
5.06133
5.06133
5.06133
5.06133
5.06133
5.06133
5.06132
5.06132
5.06132
5.06132
5.06132
5.06132
5.06132
5.06132
5.06132
5.06133
5.06135
5.06137
5.06138
5.06138
5.06137
5.06136
5.06134
5.06133
5.06132
5.06131
5.06131
5.0613
5.0613
5.0613
5.06131
5.06133
5.06132
4.32875
4.32878
4.32872
4.32863
4.32856
4.32851
4.32847
4.32844
4.32842
4.32841
4.3284
4.32839
4.32838
4.32838
4.32838
4.32838
4.32838
4.32838
4.32837
4.32837
4.32837
4.32837
4.32837
4.32837
4.32836
4.32836
4.32836
4.32836
4.32836
4.32835
4.32835
4.32835
4.32835
4.32834
4.32834
4.32834
4.32834
4.32834
4.32833
4.32833
4.32833
4.32833
4.32834
4.32834
4.32836
4.32838
4.32839
4.32839
4.32838
4.32838
4.32837
4.32836
4.32834
4.32834
4.32833
4.32832
4.32832
4.32832
4.32832
4.32832
4.32832
4.32833
4.32833
4.32833
4.32833
4.32833
4.32833
4.32832
4.32832
4.32832
4.32832
4.32832
4.32832
4.32831
4.32831
4.32831
4.32831
4.32831
4.32831
4.32831
4.32831
4.32831
4.32831
4.32831
4.32831
4.32832
4.32832
4.32832
4.32832
4.32832
4.32832
4.32832
4.32831
4.32831
4.32831
4.32831
4.32831
4.32831
4.3283
4.3283
4.3283
4.32831
4.32831
4.32833
4.32835
4.32836
4.32836
4.32836
4.32835
4.32834
4.32833
4.32832
4.32831
4.3283
4.3283
4.3283
4.3283
4.3283
4.32832
4.3283
3.75407
3.75411
3.75406
3.75399
3.75394
3.75389
3.75385
3.75383
3.7538
3.75379
3.75378
3.75377
3.75376
3.75376
3.75375
3.75375
3.75375
3.75375
3.75374
3.75374
3.75374
3.75374
3.75374
3.75373
3.75373
3.75373
3.75373
3.75372
3.75372
3.75372
3.75372
3.75372
3.75371
3.75371
3.75371
3.75371
3.7537
3.7537
3.7537
3.7537
3.7537
3.7537
3.7537
3.7537
3.75372
3.75373
3.75374
3.75374
3.75374
3.75374
3.75373
3.75372
3.75371
3.7537
3.7537
3.75369
3.75369
3.75369
3.75369
3.75369
3.75369
3.75369
3.7537
3.7537
3.7537
3.75369
3.75369
3.75369
3.75369
3.75369
3.75369
3.75368
3.75368
3.75368
3.75368
3.75368
3.75368
3.75367
3.75367
3.75367
3.75367
3.75367
3.75367
3.75367
3.75367
3.75367
3.75368
3.75368
3.75368
3.75368
3.75368
3.75367
3.75367
3.75367
3.75367
3.75367
3.75366
3.75366
3.75366
3.75366
3.75366
3.75366
3.75366
3.75368
3.75369
3.7537
3.75371
3.7537
3.7537
3.75369
3.75368
3.75368
3.75367
3.75366
3.75366
3.75366
3.75366
3.75366
3.75368
3.75365
3.29432
3.29437
3.29433
3.29428
3.29424
3.2942
3.29417
3.29414
3.29412
3.2941
3.29409
3.29408
3.29407
3.29407
3.29406
3.29406
3.29406
3.29405
3.29405
3.29405
3.29405
3.29404
3.29404
3.29404
3.29404
3.29404
3.29403
3.29403
3.29403
3.29403
3.29402
3.29402
3.29402
3.29402
3.29401
3.29401
3.29401
3.29401
3.294
3.294
3.294
3.294
3.294
3.29401
3.29402
3.29403
3.29404
3.29404
3.29404
3.29404
3.29403
3.29403
3.29402
3.29401
3.29401
3.294
3.294
3.294
3.294
3.294
3.294
3.294
3.29401
3.29401
3.29401
3.29401
3.294
3.294
3.294
3.294
3.294
3.294
3.29399
3.29399
3.29399
3.29399
3.29399
3.29398
3.29398
3.29398
3.29398
3.29398
3.29398
3.29398
3.29398
3.29398
3.29398
3.29398
3.29398
3.29398
3.29398
3.29398
3.29398
3.29397
3.29397
3.29397
3.29396
3.29396
3.29396
3.29396
3.29395
3.29396
3.29396
3.29397
3.29398
3.29399
3.29399
3.29399
3.29399
3.29398
3.29398
3.29397
3.29397
3.29396
3.29396
3.29396
3.29396
3.29396
3.29398
3.29394
2.9201
2.92014
2.92012
2.92008
2.92004
2.92001
2.91998
2.91996
2.91994
2.91992
2.91991
2.9199
2.91989
2.91989
2.91988
2.91988
2.91987
2.91987
2.91987
2.91986
2.91986
2.91986
2.91986
2.91985
2.91985
2.91985
2.91985
2.91984
2.91984
2.91984
2.91984
2.91983
2.91983
2.91983
2.91983
2.91983
2.91982
2.91982
2.91982
2.91982
2.91982
2.91982
2.91982
2.91982
2.91983
2.91984
2.91985
2.91985
2.91985
2.91985
2.91984
2.91984
2.91983
2.91983
2.91982
2.91982
2.91982
2.91982
2.91982
2.91982
2.91982
2.91982
2.91983
2.91983
2.91983
2.91983
2.91982
2.91982
2.91982
2.91982
2.91982
2.91982
2.91981
2.91981
2.91981
2.91981
2.91981
2.9198
2.9198
2.9198
2.9198
2.9198
2.9198
2.9198
2.9198
2.9198
2.9198
2.9198
2.9198
2.9198
2.91979
2.91979
2.91979
2.91979
2.91978
2.91978
2.91978
2.91977
2.91977
2.91977
2.91976
2.91976
2.91977
2.91977
2.91979
2.91979
2.9198
2.91979
2.91979
2.91979
2.91978
2.91978
2.91978
2.91977
2.91977
2.91977
2.91977
2.91977
2.91978
2.91975
2.61079
2.61083
2.61081
2.61078
2.61075
2.61072
2.6107
2.61068
2.61066
2.61065
2.61064
2.61063
2.61062
2.61061
2.61061
2.6106
2.6106
2.6106
2.61059
2.61059
2.61059
2.61058
2.61058
2.61058
2.61058
2.61057
2.61057
2.61057
2.61057
2.61056
2.61056
2.61056
2.61056
2.61056
2.61055
2.61055
2.61055
2.61055
2.61055
2.61054
2.61054
2.61054
2.61054
2.61055
2.61055
2.61056
2.61057
2.61057
2.61057
2.61057
2.61057
2.61056
2.61056
2.61056
2.61055
2.61055
2.61055
2.61055
2.61056
2.61056
2.61056
2.61056
2.61056
2.61056
2.61056
2.61056
2.61056
2.61056
2.61056
2.61056
2.61055
2.61055
2.61055
2.61055
2.61055
2.61054
2.61054
2.61054
2.61054
2.61054
2.61054
2.61053
2.61053
2.61053
2.61053
2.61053
2.61053
2.61053
2.61053
2.61053
2.61053
2.61052
2.61052
2.61052
2.61052
2.61051
2.61051
2.6105
2.6105
2.61049
2.61049
2.61049
2.61049
2.6105
2.61051
2.61051
2.61051
2.61051
2.61051
2.61051
2.6105
2.6105
2.6105
2.61049
2.61049
2.61049
2.61049
2.61049
2.6105
2.61047
2.35164
2.35168
2.35167
2.35164
2.35161
2.35159
2.35157
2.35155
2.35154
2.35152
2.35151
2.3515
2.3515
2.35149
2.35148
2.35148
2.35148
2.35147
2.35147
2.35147
2.35146
2.35146
2.35146
2.35145
2.35145
2.35145
2.35145
2.35145
2.35144
2.35144
2.35144
2.35144
2.35144
2.35143
2.35143
2.35143
2.35143
2.35143
2.35142
2.35142
2.35142
2.35142
2.35142
2.35142
2.35143
2.35144
2.35144
2.35145
2.35145
2.35145
2.35144
2.35144
2.35144
2.35144
2.35144
2.35144
2.35144
2.35144
2.35144
2.35144
2.35144
2.35144
2.35145
2.35145
2.35145
2.35145
2.35145
2.35145
2.35144
2.35144
2.35144
2.35144
2.35144
2.35144
2.35143
2.35143
2.35143
2.35143
2.35143
2.35142
2.35142
2.35142
2.35142
2.35142
2.35142
2.35142
2.35142
2.35142
2.35141
2.35141
2.35141
2.35141
2.35141
2.3514
2.3514
2.35139
2.35139
2.35138
2.35138
2.35138
2.35137
2.35137
2.35137
2.35137
2.35138
2.35138
2.35139
2.35138
2.35138
2.35138
2.35138
2.35137
2.35137
2.35137
2.35137
2.35137
2.35137
2.35137
2.35138
2.35134
2.13185
2.13189
2.13188
2.13185
2.13183
2.13181
2.13179
2.13178
2.13177
2.13175
2.13174
2.13174
2.13173
2.13172
2.13172
2.13171
2.13171
2.13171
2.1317
2.1317
2.1317
2.13169
2.13169
2.13169
2.13168
2.13168
2.13168
2.13168
2.13168
2.13167
2.13167
2.13167
2.13167
2.13167
2.13167
2.13166
2.13166
2.13166
2.13166
2.13166
2.13166
2.13166
2.13166
2.13166
2.13167
2.13167
2.13168
2.13168
2.13168
2.13168
2.13168
2.13168
2.13168
2.13168
2.13168
2.13168
2.13168
2.13168
2.13168
2.13168
2.13169
2.13169
2.13169
2.13169
2.13169
2.13169
2.13169
2.13169
2.13169
2.13169
2.13169
2.13169
2.13168
2.13168
2.13168
2.13168
2.13168
2.13168
2.13167
2.13167
2.13167
2.13167
2.13167
2.13167
2.13166
2.13166
2.13166
2.13166
2.13166
2.13166
2.13166
2.13165
2.13165
2.13165
2.13164
2.13164
2.13163
2.13163
2.13162
2.13162
2.13161
2.13161
2.13161
2.13161
2.13162
2.13162
2.13162
2.13162
2.13162
2.13161
2.13161
2.13161
2.13161
2.1316
2.1316
2.1316
2.1316
2.1316
2.13161
2.13158
1.94339
1.94343
1.94342
1.9434
1.94338
1.94336
1.94334
1.94333
1.94332
1.94331
1.9433
1.94329
1.94329
1.94328
1.94328
1.94327
1.94327
1.94326
1.94326
1.94326
1.94325
1.94325
1.94325
1.94324
1.94324
1.94324
1.94324
1.94324
1.94323
1.94323
1.94323
1.94323
1.94323
1.94323
1.94322
1.94322
1.94322
1.94322
1.94322
1.94322
1.94322
1.94322
1.94322
1.94322
1.94323
1.94323
1.94324
1.94324
1.94324
1.94324
1.94324
1.94324
1.94324
1.94324
1.94324
1.94324
1.94325
1.94325
1.94325
1.94325
1.94326
1.94326
1.94326
1.94326
1.94326
1.94326
1.94326
1.94326
1.94326
1.94326
1.94326
1.94326
1.94325
1.94325
1.94325
1.94325
1.94325
1.94325
1.94325
1.94324
1.94324
1.94324
1.94324
1.94324
1.94324
1.94324
1.94323
1.94323
1.94323
1.94323
1.94323
1.94322
1.94322
1.94322
1.94321
1.94321
1.9432
1.94319
1.94319
1.94318
1.94318
1.94318
1.94317
1.94318
1.94318
1.94318
1.94318
1.94318
1.94318
1.94317
1.94317
1.94317
1.94317
1.94317
1.94316
1.94316
1.94316
1.94316
1.94317
1.94314
1.78018
1.78022
1.78021
1.78019
1.78017
1.78016
1.78015
1.78013
1.78012
1.78012
1.78011
1.7801
1.7801
1.78009
1.78009
1.78008
1.78008
1.78007
1.78007
1.78007
1.78006
1.78006
1.78006
1.78005
1.78005
1.78005
1.78005
1.78005
1.78004
1.78004
1.78004
1.78004
1.78004
1.78004
1.78004
1.78004
1.78003
1.78003
1.78003
1.78003
1.78003
1.78003
1.78003
1.78003
1.78004
1.78005
1.78005
1.78005
1.78005
1.78005
1.78005
1.78005
1.78005
1.78006
1.78006
1.78006
1.78007
1.78007
1.78007
1.78007
1.78008
1.78008
1.78008
1.78008
1.78008
1.78008
1.78008
1.78008
1.78008
1.78008
1.78008
1.78008
1.78008
1.78008
1.78008
1.78008
1.78007
1.78007
1.78007
1.78007
1.78007
1.78007
1.78006
1.78006
1.78006
1.78006
1.78006
1.78006
1.78006
1.78006
1.78005
1.78005
1.78005
1.78004
1.78004
1.78003
1.78002
1.78002
1.78001
1.78
1.78
1.78
1.77999
1.77999
1.78
1.78
1.78
1.77999
1.77999
1.77999
1.77999
1.77999
1.77998
1.77998
1.77998
1.77998
1.77998
1.77998
1.77999
1.77996
1.63757
1.63761
1.6376
1.63759
1.63757
1.63756
1.63754
1.63753
1.63752
1.63752
1.63751
1.6375
1.6375
1.63749
1.63749
1.63749
1.63748
1.63748
1.63747
1.63747
1.63747
1.63747
1.63746
1.63746
1.63746
1.63746
1.63745
1.63745
1.63745
1.63745
1.63745
1.63745
1.63744
1.63744
1.63744
1.63744
1.63744
1.63744
1.63744
1.63744
1.63744
1.63744
1.63744
1.63744
1.63745
1.63745
1.63746
1.63746
1.63746
1.63746
1.63746
1.63746
1.63746
1.63747
1.63747
1.63748
1.63748
1.63748
1.63749
1.63749
1.63749
1.6375
1.6375
1.6375
1.6375
1.6375
1.6375
1.6375
1.6375
1.6375
1.6375
1.6375
1.6375
1.6375
1.6375
1.63749
1.63749
1.63749
1.63749
1.63749
1.63749
1.63749
1.63749
1.63748
1.63748
1.63748
1.63748
1.63748
1.63748
1.63748
1.63747
1.63747
1.63747
1.63746
1.63745
1.63745
1.63744
1.63743
1.63743
1.63742
1.63742
1.63741
1.63741
1.63741
1.63741
1.63741
1.63741
1.63741
1.6374
1.6374
1.6374
1.6374
1.6374
1.63739
1.63739
1.63739
1.63739
1.63739
1.6374
1.63737
1.51194
1.51198
1.51197
1.51196
1.51194
1.51193
1.51192
1.51191
1.5119
1.5119
1.51189
1.51188
1.51188
1.51187
1.51187
1.51187
1.51186
1.51186
1.51186
1.51185
1.51185
1.51185
1.51184
1.51184
1.51184
1.51184
1.51183
1.51183
1.51183
1.51183
1.51183
1.51183
1.51183
1.51183
1.51183
1.51182
1.51182
1.51182
1.51182
1.51182
1.51182
1.51182
1.51183
1.51183
1.51183
1.51184
1.51184
1.51184
1.51184
1.51185
1.51185
1.51185
1.51185
1.51186
1.51186
1.51187
1.51187
1.51188
1.51188
1.51188
1.51189
1.51189
1.51189
1.51189
1.51189
1.51189
1.51189
1.51189
1.51189
1.51189
1.51189
1.51189
1.51189
1.51189
1.51189
1.51189
1.51189
1.51189
1.51189
1.51189
1.51188
1.51188
1.51188
1.51188
1.51188
1.51188
1.51188
1.51188
1.51187
1.51187
1.51187
1.51187
1.51186
1.51186
1.51185
1.51184
1.51184
1.51183
1.51182
1.51182
1.51181
1.51181
1.5118
1.5118
1.5118
1.5118
1.5118
1.5118
1.5118
1.51179
1.51179
1.51179
1.51179
1.51179
1.51178
1.51178
1.51178
1.51178
1.51179
1.51176
1.40045
1.40047
1.40047
1.40046
1.40045
1.40043
1.40042
1.40042
1.40041
1.4004
1.4004
1.40039
1.40039
1.40038
1.40038
1.40038
1.40037
1.40037
1.40037
1.40036
1.40036
1.40036
1.40035
1.40035
1.40035
1.40035
1.40034
1.40034
1.40034
1.40034
1.40034
1.40034
1.40034
1.40034
1.40034
1.40034
1.40034
1.40034
1.40034
1.40034
1.40034
1.40034
1.40034
1.40034
1.40035
1.40035
1.40035
1.40036
1.40036
1.40036
1.40036
1.40037
1.40037
1.40038
1.40038
1.40039
1.40039
1.4004
1.4004
1.4004
1.40041
1.40041
1.40041
1.40041
1.40041
1.40042
1.40042
1.40042
1.40042
1.40042
1.40042
1.40042
1.40041
1.40041
1.40041
1.40041
1.40041
1.40041
1.40041
1.40041
1.40041
1.40041
1.40041
1.40041
1.4004
1.4004
1.4004
1.4004
1.4004
1.4004
1.40039
1.40039
1.40038
1.40038
1.40037
1.40036
1.40036
1.40035
1.40034
1.40034
1.40033
1.40033
1.40032
1.40032
1.40032
1.40032
1.40032
1.40032
1.40032
1.40031
1.40031
1.40031
1.40031
1.40031
1.4003
1.4003
1.4003
1.4003
1.40031
1.40028
1.30081
1.30084
1.30083
1.30082
1.30081
1.3008
1.30079
1.30079
1.30078
1.30077
1.30077
1.30076
1.30076
1.30076
1.30075
1.30075
1.30075
1.30074
1.30074
1.30074
1.30073
1.30073
1.30073
1.30073
1.30072
1.30072
1.30072
1.30072
1.30072
1.30071
1.30071
1.30071
1.30071
1.30071
1.30071
1.30071
1.30071
1.30071
1.30071
1.30071
1.30071
1.30071
1.30072
1.30072
1.30072
1.30073
1.30073
1.30073
1.30073
1.30074
1.30074
1.30075
1.30075
1.30076
1.30076
1.30077
1.30078
1.30078
1.30079
1.30079
1.30079
1.30079
1.3008
1.3008
1.3008
1.3008
1.3008
1.3008
1.3008
1.3008
1.3008
1.3008
1.3008
1.3008
1.3008
1.3008
1.3008
1.3008
1.3008
1.3008
1.3008
1.30079
1.30079
1.30079
1.30079
1.30079
1.30079
1.30079
1.30079
1.30079
1.30078
1.30078
1.30077
1.30076
1.30076
1.30075
1.30074
1.30074
1.30073
1.30072
1.30072
1.30071
1.30071
1.30071
1.30071
1.30071
1.30071
1.3007
1.3007
1.3007
1.3007
1.30069
1.30069
1.30069
1.30069
1.30069
1.30069
1.30069
1.30069
1.30067
1.21123
1.21125
1.21124
1.21124
1.21123
1.21122
1.21121
1.2112
1.21119
1.21119
1.21118
1.21118
1.21118
1.21117
1.21117
1.21117
1.21116
1.21116
1.21116
1.21115
1.21115
1.21115
1.21115
1.21114
1.21114
1.21114
1.21114
1.21114
1.21113
1.21113
1.21113
1.21113
1.21113
1.21113
1.21113
1.21113
1.21113
1.21113
1.21113
1.21113
1.21113
1.21113
1.21114
1.21114
1.21114
1.21115
1.21115
1.21115
1.21116
1.21116
1.21116
1.21117
1.21118
1.21118
1.21119
1.2112
1.2112
1.21121
1.21121
1.21122
1.21122
1.21122
1.21122
1.21122
1.21123
1.21123
1.21123
1.21123
1.21123
1.21123
1.21123
1.21123
1.21123
1.21123
1.21123
1.21123
1.21123
1.21123
1.21123
1.21123
1.21123
1.21122
1.21122
1.21122
1.21122
1.21122
1.21122
1.21122
1.21122
1.21122
1.21121
1.21121
1.2112
1.21119
1.21119
1.21118
1.21117
1.21117
1.21116
1.21115
1.21115
1.21114
1.21114
1.21114
1.21114
1.21114
1.21114
1.21113
1.21113
1.21113
1.21113
1.21113
1.21112
1.21112
1.21112
1.21112
1.21112
1.21112
1.21112
1.2111
1.13021
1.13023
1.13022
1.13021
1.13021
1.1302
1.13019
1.13018
1.13018
1.13017
1.13017
1.13016
1.13016
1.13016
1.13015
1.13015
1.13015
1.13015
1.13014
1.13014
1.13014
1.13014
1.13013
1.13013
1.13013
1.13013
1.13012
1.13012
1.13012
1.13012
1.13012
1.13012
1.13012
1.13012
1.13012
1.13012
1.13012
1.13012
1.13012
1.13012
1.13012
1.13012
1.13013
1.13013
1.13013
1.13014
1.13014
1.13014
1.13015
1.13015
1.13016
1.13016
1.13017
1.13018
1.13019
1.13019
1.1302
1.1302
1.13021
1.13021
1.13021
1.13021
1.13022
1.13022
1.13022
1.13022
1.13022
1.13022
1.13022
1.13022
1.13022
1.13022
1.13022
1.13022
1.13022
1.13022
1.13022
1.13022
1.13022
1.13022
1.13022
1.13022
1.13022
1.13022
1.13022
1.13022
1.13022
1.13022
1.13022
1.13021
1.13021
1.1302
1.1302
1.13019
1.13018
1.13017
1.13017
1.13016
1.13016
1.13015
1.13015
1.13014
1.13014
1.13014
1.13014
1.13014
1.13013
1.13013
1.13013
1.13013
1.13013
1.13012
1.13012
1.13012
1.13012
1.13012
1.13012
1.13011
1.13012
1.1301
1.05655
1.05657
1.05656
1.05656
1.05655
1.05654
1.05653
1.05653
1.05652
1.05652
1.05651
1.05651
1.05651
1.0565
1.0565
1.0565
1.05649
1.05649
1.05649
1.05649
1.05648
1.05648
1.05648
1.05648
1.05648
1.05647
1.05647
1.05647
1.05647
1.05647
1.05647
1.05647
1.05647
1.05647
1.05647
1.05647
1.05647
1.05647
1.05647
1.05647
1.05647
1.05647
1.05647
1.05648
1.05648
1.05649
1.05649
1.05649
1.0565
1.0565
1.05651
1.05652
1.05652
1.05653
1.05654
1.05654
1.05655
1.05655
1.05656
1.05656
1.05656
1.05657
1.05657
1.05657
1.05657
1.05657
1.05657
1.05657
1.05657
1.05657
1.05657
1.05657
1.05657
1.05657
1.05657
1.05657
1.05657
1.05657
1.05657
1.05657
1.05657
1.05657
1.05657
1.05657
1.05657
1.05657
1.05657
1.05657
1.05657
1.05657
1.05656
1.05656
1.05655
1.05654
1.05654
1.05653
1.05652
1.05652
1.05651
1.05651
1.0565
1.0565
1.0565
1.0565
1.0565
1.0565
1.05649
1.05649
1.05649
1.05649
1.05649
1.05648
1.05648
1.05648
1.05648
1.05648
1.05647
1.05647
1.05648
1.05646
0.989258
0.989269
0.989266
0.98926
0.989253
0.989247
0.989241
0.989236
0.989231
0.989227
0.989223
0.989219
0.989216
0.989213
0.989211
0.989208
0.989205
0.989203
0.9892
0.989198
0.989196
0.989193
0.989191
0.989189
0.989187
0.989185
0.989184
0.989182
0.989181
0.98918
0.989179
0.989178
0.989178
0.989178
0.989178
0.989178
0.989179
0.98918
0.989181
0.989182
0.989184
0.989185
0.989188
0.989191
0.989195
0.989201
0.989204
0.989208
0.989213
0.989218
0.989226
0.989233
0.989241
0.989247
0.989254
0.989259
0.989263
0.989267
0.989271
0.989274
0.989276
0.989278
0.98928
0.989281
0.989282
0.989283
0.989284
0.989285
0.989285
0.989286
0.989286
0.989286
0.989287
0.989287
0.989288
0.989288
0.989288
0.989288
0.989289
0.989289
0.989289
0.989289
0.989289
0.989289
0.989289
0.989289
0.989289
0.989288
0.989286
0.989283
0.989278
0.989272
0.989266
0.98926
0.989254
0.989248
0.989243
0.989238
0.989234
0.98923
0.989226
0.989223
0.98922
0.989219
0.989219
0.989218
0.989216
0.989215
0.989213
0.989211
0.989209
0.989207
0.989205
0.989203
0.989201
0.9892
0.989198
0.989196
0.989198
0.989186
0.927502
0.92751
0.927507
0.927502
0.927496
0.92749
0.927485
0.927481
0.927476
0.927473
0.927469
0.927466
0.927463
0.927461
0.927458
0.927456
0.927453
0.927451
0.927449
0.927446
0.927444
0.927442
0.92744
0.927438
0.927436
0.927435
0.927433
0.927432
0.92743
0.927429
0.927429
0.927428
0.927428
0.927428
0.927428
0.927428
0.927429
0.92743
0.927431
0.927433
0.927434
0.927436
0.927439
0.927442
0.927447
0.927452
0.927456
0.92746
0.927464
0.92747
0.927477
0.927484
0.92749
0.927496
0.927501
0.927506
0.92751
0.927514
0.927517
0.92752
0.927522
0.927524
0.927526
0.927527
0.927528
0.927529
0.92753
0.927531
0.927532
0.927532
0.927533
0.927533
0.927534
0.927534
0.927535
0.927535
0.927536
0.927536
0.927537
0.927537
0.927537
0.927538
0.927538
0.927538
0.927538
0.927538
0.927539
0.927538
0.927536
0.927533
0.927528
0.927523
0.927518
0.927513
0.927508
0.927503
0.927499
0.927495
0.927491
0.927488
0.927484
0.927481
0.927479
0.927479
0.927479
0.927478
0.927477
0.927475
0.927473
0.927471
0.927469
0.927467
0.927465
0.927463
0.927461
0.927459
0.927458
0.927456
0.927457
0.927448
0.870592
0.870597
0.870594
0.870589
0.870584
0.870579
0.870575
0.870571
0.870567
0.870564
0.870561
0.870558
0.870556
0.870553
0.870551
0.870549
0.870547
0.870545
0.870542
0.87054
0.870538
0.870536
0.870535
0.870533
0.870531
0.870529
0.870528
0.870527
0.870526
0.870525
0.870524
0.870524
0.870523
0.870524
0.870524
0.870524
0.870525
0.870526
0.870527
0.870529
0.870531
0.870533
0.870535
0.870539
0.870543
0.870549
0.870553
0.870557
0.870561
0.870565
0.87057
0.870575
0.87058
0.870585
0.87059
0.870594
0.870598
0.870601
0.870604
0.870606
0.870609
0.870611
0.870612
0.870614
0.870615
0.870616
0.870617
0.870618
0.870619
0.87062
0.870621
0.870621
0.870622
0.870623
0.870624
0.870624
0.870625
0.870626
0.870626
0.870627
0.870628
0.870628
0.870629
0.870629
0.870629
0.87063
0.87063
0.87063
0.870629
0.870626
0.870622
0.870618
0.870615
0.870611
0.870607
0.870604
0.8706
0.870597
0.870594
0.870591
0.870588
0.870586
0.870584
0.870584
0.870585
0.870584
0.870583
0.870581
0.870579
0.870576
0.870574
0.870572
0.87057
0.870568
0.870566
0.870564
0.870563
0.870561
0.870561
0.870555
0.817946
0.817947
0.817943
0.817939
0.817935
0.817931
0.817927
0.817924
0.817921
0.817919
0.817916
0.817914
0.817911
0.817909
0.817908
0.817906
0.817904
0.817902
0.8179
0.817898
0.817896
0.817895
0.817893
0.817891
0.81789
0.817888
0.817887
0.817886
0.817885
0.817884
0.817884
0.817883
0.817883
0.817883
0.817884
0.817884
0.817885
0.817886
0.817888
0.817889
0.817891
0.817893
0.817896
0.817899
0.817904
0.81791
0.817914
0.817916
0.817918
0.817918
0.817919
0.817923
0.817927
0.817931
0.817935
0.817939
0.817943
0.817946
0.817949
0.817951
0.817954
0.817956
0.817958
0.817959
0.817961
0.817962
0.817963
0.817965
0.817966
0.817967
0.817968
0.817969
0.81797
0.817971
0.817972
0.817973
0.817973
0.817974
0.817975
0.817976
0.817977
0.817978
0.817978
0.817979
0.81798
0.81798
0.817981
0.817982
0.817982
0.817981
0.81798
0.817978
0.817975
0.817973
0.81797
0.817968
0.817965
0.817963
0.81796
0.817958
0.817956
0.817954
0.817952
0.817953
0.817954
0.817953
0.817951
0.817949
0.817947
0.817944
0.817942
0.81794
0.817937
0.817935
0.817934
0.817932
0.81793
0.817929
0.817928
0.817925
0.76907
0.769067
0.769064
0.76906
0.769057
0.769054
0.769051
0.769049
0.769047
0.769044
0.769042
0.769041
0.769039
0.769037
0.769035
0.769034
0.769032
0.769031
0.769029
0.769027
0.769026
0.769024
0.769023
0.769021
0.76902
0.769019
0.769018
0.769017
0.769016
0.769015
0.769015
0.769015
0.769015
0.769015
0.769015
0.769016
0.769017
0.769018
0.76902
0.769021
0.769023
0.769026