/*--------------------------------*- C++ -*----------------------------------*\
  =========                 |
  \\      /  F ield         | OpenFOAM: The Open Source CFD Toolbox
   \\    /   O peration     | Website:  https://openfoam.org
    \\  /    A nd           | Version:  7
     \\/     M anipulation  |
\*---------------------------------------------------------------------------*/
FoamFile
{
    version     2.0;
    format      ascii;
    class       surfaceScalarField;
    location    "1500";
    object      phi;
}
// * * * * * * * * * * * * * * * * * * * * * * * * * * * * * * * * * * * * * //

dimensions      [0 3 -1 0 0 0 0];

internalField   nonuniform List<scalar> 
47680
(
2.25842e-06
1.97878e-10
2.25854e-06
-1.18692e-10
2.25863e-06
-8.446e-11
2.25868e-06
-4.78806e-11
2.25871e-06
-3.7636e-11
2.25874e-06
-2.25181e-11
2.25875e-06
-1.43428e-11
2.25876e-06
-8.9256e-12
2.25876e-06
-5.37166e-12
2.25877e-06
-3.30192e-12
2.25877e-06
-2.11369e-12
2.25877e-06
-1.50662e-12
2.25877e-06
-1.2667e-12
2.25877e-06
-1.27087e-12
2.25878e-06
-1.45604e-12
2.25878e-06
-1.77687e-12
2.25878e-06
-2.19219e-12
2.25878e-06
-2.66417e-12
2.25879e-06
-3.1642e-12
2.25879e-06
-3.67375e-12
2.25879e-06
-4.17817e-12
2.2588e-06
-4.66095e-12
2.2588e-06
-5.10321e-12
2.25881e-06
-5.49035e-12
2.25881e-06
-5.81599e-12
2.25882e-06
-6.08613e-12
2.25883e-06
-6.31236e-12
2.25883e-06
-6.51089e-12
2.25884e-06
-6.68838e-12
2.25885e-06
-6.85713e-12
2.25885e-06
-7.00316e-12
2.25886e-06
-7.15134e-12
2.25887e-06
-7.24923e-12
2.25888e-06
-7.38114e-12
2.25888e-06
-7.36663e-12
2.25889e-06
-7.48487e-12
2.2589e-06
-7.1123e-12
2.2589e-06
-7.22081e-12
2.25891e-06
-5.68737e-12
2.25892e-06
-5.93251e-12
2.25892e-06
-8.26326e-13
2.25892e-06
-1.89469e-12
2.25891e-06
1.2402e-11
2.2589e-06
1.02958e-11
2.25886e-06
3.31488e-11
2.25882e-06
4.09823e-11
2.25882e-06
3.8425e-12
2.25882e-06
-1.74527e-12
2.25883e-06
-5.73441e-12
2.25883e-06
-5.46908e-12
2.25884e-06
-9.87269e-12
2.25885e-06
-8.7315e-12
2.25886e-06
-6.6687e-12
2.25886e-06
-4.79913e-12
2.25886e-06
-3.00221e-12
2.25887e-06
-1.70995e-12
2.25887e-06
-9.15585e-13
2.25887e-06
-6.05491e-13
2.25887e-06
-7.30523e-13
2.25887e-06
-1.20326e-12
2.25887e-06
-1.92192e-12
2.25887e-06
-2.77936e-12
2.25888e-06
-3.67497e-12
2.25888e-06
-4.52438e-12
2.25889e-06
-5.26414e-12
2.25889e-06
-5.85323e-12
2.2589e-06
-6.27046e-12
2.25891e-06
-6.51161e-12
2.25891e-06
-6.58356e-12
2.25892e-06
-6.5022e-12
2.25893e-06
-6.28722e-12
2.25893e-06
-5.96049e-12
2.25894e-06
-5.54388e-12
2.25894e-06
-5.05961e-12
2.25895e-06
-4.52474e-12
2.25895e-06
-3.96085e-12
2.25895e-06
-3.37546e-12
2.25896e-06
-2.79295e-12
2.25896e-06
-2.19743e-12
2.25896e-06
-1.63834e-12
2.25896e-06
-1.02578e-12
2.25896e-06
-5.12437e-13
2.25896e-06
2.29164e-13
2.25896e-06
6.99404e-13
2.25896e-06
1.80171e-12
2.25896e-06
2.27356e-12
2.25895e-06
3.16328e-12
2.25895e-06
1.82264e-12
2.25895e-06
-4.51471e-14
2.25895e-06
-7.85289e-13
2.25896e-06
-2.23109e-12
2.25896e-06
-1.27603e-12
2.25896e-06
-6.68502e-13
2.25896e-06
-2.71374e-13
2.25896e-06
-1.10353e-13
2.25896e-06
3.62362e-13
2.25896e-06
3.10023e-13
2.25896e-06
1.86401e-12
2.25895e-06
1.7204e-12
2.25895e-06
6.8481e-12
2.25894e-06
6.04042e-12
2.25892e-06
2.01214e-11
2.2589e-06
1.86228e-11
2.25886e-06
3.98458e-11
2.25881e-06
4.90812e-11
2.25881e-06
6.02598e-12
2.25881e-06
-1.55246e-12
2.25881e-06
-4.97353e-12
2.25882e-06
-7.57567e-12
2.25883e-06
-6.23263e-12
2.25883e-06
-5.37955e-12
2.25884e-06
-3.71497e-12
2.25884e-06
-3.74214e-12
2.25884e-06
-1.02145e-12
2.25884e-06
-3.5222e-12
2.25884e-06
5.118e-12
2.25884e-06
-4.34507e-12
2.25881e-06
3.24795e-11
2.25882e-06
-1.01442e-11
1.98794e-10
6.97932e-06
6.75313e-10
6.9795e-06
-2.95352e-10
6.97972e-06
-3.00382e-10
6.97985e-06
-1.81172e-10
6.97995e-06
-1.38884e-10
6.98002e-06
-8.79126e-11
6.98006e-06
-5.6799e-11
6.98009e-06
-3.65053e-11
6.9801e-06
-2.30784e-11
6.98011e-06
-1.50615e-11
6.98012e-06
-1.04135e-11
6.98013e-06
-7.96753e-12
6.98014e-06
-6.93298e-12
6.98014e-06
-6.84644e-12
6.98015e-06
-7.46531e-12
6.98015e-06
-8.62439e-12
6.98016e-06
-1.01661e-11
6.98017e-06
-1.19443e-11
6.98018e-06
-1.38425e-11
6.98019e-06
-1.57803e-11
6.98021e-06
-1.76923e-11
6.98022e-06
-1.95096e-11
6.98024e-06
-2.11605e-11
6.98026e-06
-2.25894e-11
6.98027e-06
-2.37767e-11
6.98029e-06
-2.47454e-11
6.98031e-06
-2.55433e-11
6.98033e-06
-2.62265e-11
6.98035e-06
-2.68275e-11
6.98037e-06
-2.73759e-11
6.98039e-06
-2.7853e-11
6.98041e-06
-2.82934e-11
6.98043e-06
-2.86129e-11
6.98046e-06
-2.89331e-11
6.98048e-06
-2.89329e-11
6.9805e-06
-2.90298e-11
6.98052e-06
-2.80272e-11
6.98054e-06
-2.758e-11
6.98056e-06
-2.32468e-11
6.98057e-06
-2.18787e-11
6.98058e-06
-6.83473e-12
6.98058e-06
-5.2479e-12
6.98056e-06
3.92217e-11
6.98053e-06
4.0542e-11
6.98044e-06
1.1735e-10
6.98034e-06
1.45899e-10
6.98031e-06
3.07018e-11
6.98031e-06
-1.49987e-12
6.98032e-06
-1.69417e-11
6.98034e-06
-1.91542e-11
6.98036e-06
-3.36054e-11
6.98038e-06
-3.18112e-11
6.9804e-06
-2.50292e-11
6.98041e-06
-1.83847e-11
6.98042e-06
-1.20259e-11
6.98043e-06
-7.37193e-12
6.98043e-06
-4.58594e-12
6.98044e-06
-3.6274e-12
6.98044e-06
-4.3116e-12
6.98044e-06
-6.30267e-12
6.98045e-06
-9.20327e-12
6.98046e-06
-1.25958e-11
6.98047e-06
-1.60928e-11
6.98049e-06
-1.93708e-11
6.98051e-06
-2.21896e-11
6.98052e-06
-2.43949e-11
6.98054e-06
-2.59107e-11
6.98056e-06
-2.6724e-11
6.98058e-06
-2.68682e-11
6.9806e-06
-2.64066e-11
6.98062e-06
-2.54196e-11
6.98064e-06
-2.39953e-11
6.98066e-06
-2.22212e-11
6.98067e-06
-2.01832e-11
6.98069e-06
-1.79556e-11
6.9807e-06
-1.56123e-11
6.98071e-06
-1.32023e-11
6.98072e-06
-1.07921e-11
6.98072e-06
-8.37312e-12
6.98073e-06
-6.04536e-12
6.98073e-06
-3.62848e-12
6.98073e-06
-1.43175e-12
6.98073e-06
1.32399e-12
6.98073e-06
3.46899e-12
6.98072e-06
7.34864e-12
6.98071e-06
9.62168e-12
6.9807e-06
1.27182e-11
6.9807e-06
8.59522e-12
6.98069e-06
2.214e-12
6.98069e-06
-1.15501e-12
6.9807e-06
-5.99429e-12
6.9807e-06
-3.49452e-12
6.9807e-06
-1.15811e-12
6.9807e-06
3.18228e-13
6.9807e-06
1.25539e-12
6.9807e-06
2.72133e-12
6.98069e-06
3.42667e-12
6.98069e-06
7.96138e-12
6.98068e-06
9.69981e-12
6.98066e-06
2.50534e-11
6.98064e-06
2.73852e-11
6.98059e-06
7.162e-11
6.98053e-06
7.43171e-11
6.98043e-06
1.46632e-10
6.9803e-06
1.78202e-10
6.98026e-06
4.38962e-11
6.98025e-06
3.33039e-12
6.98026e-06
-1.23915e-11
6.98028e-06
-2.2935e-11
6.98029e-06
-2.06111e-11
6.9803e-06
-1.75258e-11
6.98031e-06
-1.30874e-11
6.98032e-06
-1.14215e-11
6.98033e-06
-5.55911e-12
6.98033e-06
-8.1332e-12
6.98032e-06
1.07957e-11
6.98032e-06
-2.60772e-12
6.98026e-06
9.33202e-11
6.98025e-06
-3.89716e-14
6.50176e-10
1.2019e-05
1.33861e-09
1.20192e-05
-4.21583e-10
1.20195e-05
-5.83669e-10
1.20197e-05
-3.84292e-10
1.20198e-05
-2.92358e-10
1.20199e-05
-1.9228e-10
1.202e-05
-1.26594e-10
1.202e-05
-8.34118e-11
1.20201e-05
-5.4715e-11
1.20201e-05
-3.72569e-11
1.20201e-05
-2.70368e-11
1.20201e-05
-2.15471e-11
1.20201e-05
-1.91116e-11
1.20201e-05
-1.87446e-11
1.20202e-05
-1.99294e-11
1.20202e-05
-2.23189e-11
1.20202e-05
-2.55798e-11
1.20202e-05
-2.93905e-11
1.20202e-05
-3.34872e-11
1.20202e-05
-3.76764e-11
1.20203e-05
-4.17992e-11
1.20203e-05
-4.5697e-11
1.20203e-05
-4.9212e-11
1.20203e-05
-5.22248e-11
1.20204e-05
-5.46992e-11
1.20204e-05
-5.66859e-11
1.20204e-05
-5.82916e-11
1.20205e-05
-5.96331e-11
1.20205e-05
-6.07882e-11
1.20205e-05
-6.18047e-11
1.20206e-05
-6.26731e-11
1.20206e-05
-6.34198e-11
1.20206e-05
-6.39633e-11
1.20207e-05
-6.4394e-11
1.20207e-05
-6.43456e-11
1.20208e-05
-6.41489e-11
1.20208e-05
-6.22931e-11
1.20208e-05
-6.04819e-11
1.20209e-05
-5.25757e-11
1.20209e-05
-4.74326e-11
1.20209e-05
-1.9655e-11
1.20209e-05
-1.0486e-11
1.20209e-05
7.37242e-11
1.20208e-05
8.73158e-11
1.20207e-05
2.39311e-10
1.20205e-05
3.00688e-10
1.20205e-05
8.85245e-11
1.20205e-05
8.4641e-12
1.20205e-05
-2.81333e-11
1.20205e-05
-3.72e-11
1.20205e-05
-6.61138e-11
1.20206e-05
-6.56223e-11
1.20206e-05
-5.31807e-11
1.20206e-05
-3.98171e-11
1.20206e-05
-2.69782e-11
1.20206e-05
-1.75016e-11
1.20206e-05
-1.19846e-11
1.20207e-05
-1.03888e-11
1.20207e-05
-1.2313e-11
1.20207e-05
-1.70228e-11
1.20207e-05
-2.3636e-11
1.20207e-05
-3.12351e-11
1.20207e-05
-3.8971e-11
1.20208e-05
-4.61429e-11
1.20208e-05
-5.22335e-11
1.20208e-05
-5.69178e-11
1.20209e-05
-6.00407e-11
1.20209e-05
-6.15841e-11
1.20209e-05
-6.16309e-11
1.2021e-05
-6.03266e-11
1.2021e-05
-5.78556e-11
1.2021e-05
-5.44171e-11
1.2021e-05
-5.02076e-11
1.20211e-05
-4.54193e-11
1.20211e-05
-4.0223e-11
1.20211e-05
-3.47767e-11
1.20211e-05
-2.92025e-11
1.20211e-05
-2.36253e-11
1.20212e-05
-1.80755e-11
1.20212e-05
-1.26887e-11
1.20212e-05
-7.23031e-12
1.20212e-05
-2.109e-12
1.20212e-05
3.88718e-12
1.20212e-05
8.99174e-12
1.20211e-05
1.70901e-11
1.20211e-05
2.25976e-11
1.20211e-05
2.90748e-11
1.20211e-05
2.16735e-11
1.20211e-05
9.06311e-12
1.20211e-05
1.25021e-12
1.20211e-05
-8.48951e-12
1.20211e-05
-4.59739e-12
1.20211e-05
2.25949e-13
1.20211e-05
3.45926e-12
1.20211e-05
5.86596e-12
1.20211e-05
8.85096e-12
1.20211e-05
1.13422e-11
1.20211e-05
1.98806e-11
1.2021e-05
2.58947e-11
1.2021e-05
5.46134e-11
1.2021e-05
6.52165e-11
1.20209e-05
1.49505e-10
1.20208e-05
1.65141e-10
1.20206e-05
3.09302e-10
1.20205e-05
3.74553e-10
1.20204e-05
1.25576e-10
1.20203e-05
2.64953e-11
1.20203e-05
-1.39999e-11
1.20204e-05
-3.85806e-11
1.20204e-05
-3.78485e-11
1.20204e-05
-3.24726e-11
1.20204e-05
-2.52446e-11
1.20204e-05
-2.06296e-11
1.20204e-05
-1.24049e-11
1.20204e-05
-1.21584e-11
1.20204e-05
1.5252e-11
1.20204e-05
7.06544e-12
1.20203e-05
1.67453e-10
1.20203e-05
4.1966e-11
1.241e-09
1.73656e-05
2.10174e-09
1.73656e-05
-4.51572e-10
1.73659e-05
-8.61495e-10
1.73661e-05
-6.28746e-10
1.73663e-05
-4.83257e-10
1.73664e-05
-3.28426e-10
1.73665e-05
-2.21193e-10
1.73666e-05
-1.49293e-10
1.73666e-05
-1.0123e-10
1.73667e-05
-7.15088e-11
1.73667e-05
-5.39254e-11
1.73667e-05
-4.43147e-11
1.73667e-05
-3.98777e-11
1.73668e-05
-3.89662e-11
1.73668e-05
-4.07234e-11
1.73668e-05
-4.45873e-11
1.73668e-05
-5.00119e-11
1.73669e-05
-5.64453e-11
1.73669e-05
-6.34138e-11
1.73669e-05
-7.05536e-11
1.7367e-05
-7.75663e-11
1.7367e-05
-8.4162e-11
1.7367e-05
-9.00677e-11
1.73671e-05
-9.50828e-11
1.73671e-05
-9.91495e-11
1.73672e-05
-1.0236e-10
1.73672e-05
-1.04897e-10
1.73673e-05
-1.06958e-10
1.73673e-05
-1.08677e-10
1.73674e-05
-1.1013e-10
1.73674e-05
-1.11321e-10
1.73675e-05
-1.12269e-10
1.73675e-05
-1.12903e-10
1.73676e-05
-1.13268e-10
1.73676e-05
-1.12964e-10
1.73677e-05
-1.12173e-10
1.73677e-05
-1.09092e-10
1.73677e-05
-1.05291e-10
1.73678e-05
-9.29696e-11
1.73678e-05
-8.25219e-11
1.73678e-05
-3.97307e-11
1.73678e-05
-1.91525e-11
1.73678e-05
1.11285e-10
1.73678e-05
1.45442e-10
1.73676e-05
3.86958e-10
1.73674e-05
4.92184e-10
1.73673e-05
1.78038e-10
1.73673e-05
3.52993e-11
1.73673e-05
-3.37554e-11
1.73673e-05
-5.49099e-11
1.73674e-05
-1.02449e-10
1.73674e-05
-1.05842e-10
1.73674e-05
-8.84536e-11
1.73675e-05
-6.76298e-11
1.73675e-05
-4.7377e-11
1.73675e-05
-3.23951e-11
1.73675e-05
-2.39921e-11
1.73675e-05
-2.22042e-11
1.73675e-05
-2.63391e-11
1.73676e-05
-3.51233e-11
1.73676e-05
-4.70181e-11
1.73676e-05
-6.04328e-11
1.73676e-05
-7.39086e-11
1.73677e-05
-8.62524e-11
1.73677e-05
-9.65945e-11
1.73678e-05
-1.04398e-10
1.73678e-05
-1.09418e-10
1.73679e-05
-1.11643e-10
1.73679e-05
-1.11234e-10
1.7368e-05
-1.08458e-10
1.7368e-05
-1.03644e-10
1.73681e-05
-9.71455e-11
1.73681e-05
-8.93125e-11
1.73681e-05
-8.04814e-11
1.73682e-05
-7.09565e-11
1.73682e-05
-6.10121e-11
1.73682e-05
-5.08712e-11
1.73682e-05
-4.07369e-11
1.73682e-05
-3.06984e-11
1.73682e-05
-2.09329e-11
1.73683e-05
-1.11609e-11
1.73683e-05
-1.87466e-12
1.73682e-05
8.58062e-12
1.73682e-05
1.78834e-11
1.73682e-05
3.15195e-11
1.73682e-05
4.16092e-11
1.73682e-05
5.26083e-11
1.73682e-05
4.21081e-11
1.73681e-05
2.24069e-11
1.73681e-05
8.77642e-12
1.73681e-05
-7.10195e-12
1.73681e-05
-2.30307e-12
1.73681e-05
5.29434e-12
1.73681e-05
1.09171e-11
1.73681e-05
1.5454e-11
1.73681e-05
2.06607e-11
1.73681e-05
2.58769e-11
1.73681e-05
3.95927e-11
1.7368e-05
5.17525e-11
1.7368e-05
9.64693e-11
1.73679e-05
1.19456e-10
1.73678e-05
2.50515e-10
1.73677e-05
2.87343e-10
1.73675e-05
5.17317e-10
1.73673e-05
6.26357e-10
1.73671e-05
2.54829e-10
1.73671e-05
7.8753e-11
1.73671e-05
-1.04806e-12
1.73671e-05
-4.68627e-11
1.73671e-05
-5.18737e-11
1.73671e-05
-4.5904e-11
1.73671e-05
-3.66205e-11
1.73671e-05
-2.92679e-11
1.73671e-05
-1.91348e-11
1.73671e-05
-1.56591e-11
1.73671e-05
2.01361e-11
1.73671e-05
2.09069e-11
1.7367e-05
2.49907e-10
1.7367e-05
1.12019e-10
1.88668e-09
2.29336e-05
2.88651e-09
2.29335e-05
-3.77796e-10
2.29337e-05
-1.07886e-09
2.2934e-05
-8.76597e-10
2.29342e-05
-6.91928e-10
2.29343e-05
-4.85858e-10
2.29344e-05
-3.3572e-10
2.29345e-05
-2.32333e-10
2.29346e-05
-1.62487e-10
2.29346e-05
-1.18577e-10
2.29347e-05
-9.22615e-11
2.29347e-05
-7.7614e-11
2.29347e-05
-7.05883e-11
2.29348e-05
-6.87887e-11
2.29348e-05
-7.09808e-11
2.29348e-05
-7.63788e-11
2.29349e-05
-8.42114e-11
2.29349e-05
-9.36609e-11
2.29349e-05
-1.03988e-10
2.2935e-05
-1.14601e-10
2.2935e-05
-1.25012e-10
2.29351e-05
-1.34764e-10
2.29351e-05
-1.43438e-10
2.29352e-05
-1.50739e-10
2.29352e-05
-1.56588e-10
2.29353e-05
-1.61125e-10
2.29354e-05
-1.64624e-10
2.29354e-05
-1.67374e-10
2.29355e-05
-1.6958e-10
2.29356e-05
-1.71346e-10
2.29356e-05
-1.72698e-10
2.29357e-05
-1.73655e-10
2.29357e-05
-1.74155e-10
2.29358e-05
-1.74209e-10
2.29359e-05
-1.73355e-10
2.29359e-05
-1.71654e-10
2.2936e-05
-1.66923e-10
2.2936e-05
-1.60646e-10
2.29361e-05
-1.43173e-10
2.29361e-05
-1.26398e-10
2.29361e-05
-6.70509e-11
2.29362e-05
-3.23084e-11
2.29361e-05
1.4799e-10
2.29361e-05
2.09503e-10
2.29359e-05
5.4914e-10
2.29357e-05
7.06961e-10
2.29356e-05
2.95313e-10
2.29355e-05
8.28211e-11
2.29355e-05
-2.84709e-11
2.29355e-05
-6.74044e-11
2.29356e-05
-1.37495e-10
2.29356e-05
-1.47772e-10
2.29356e-05
-1.27437e-10
2.29357e-05
-9.97504e-11
2.29357e-05
-7.22689e-11
2.29357e-05
-5.19879e-11
2.29357e-05
-4.11858e-11
2.29358e-05
-4.00622e-11
2.29358e-05
-4.75798e-11
2.29358e-05
-6.18116e-11
2.29358e-05
-8.04254e-11
2.29359e-05
-1.01028e-10
2.29359e-05
-1.21446e-10
2.2936e-05
-1.3992e-10
2.2936e-05
-1.55182e-10
2.29361e-05
-1.66465e-10
2.29362e-05
-1.73438e-10
2.29362e-05
-1.76116e-10
2.29363e-05
-1.74764e-10
2.29364e-05
-1.69804e-10
2.29364e-05
-1.61747e-10
2.29365e-05
-1.51138e-10
2.29365e-05
-1.38515e-10
2.29366e-05
-1.24392e-10
2.29366e-05
-1.09239e-10
2.29366e-05
-9.34699e-11
2.29367e-05
-7.74337e-11
2.29367e-05
-6.14317e-11
2.29367e-05
-4.56233e-11
2.29367e-05
-3.02416e-11
2.29367e-05
-1.49626e-11
2.29367e-05
-3.61798e-13
2.29367e-05
1.56695e-11
2.29367e-05
3.02865e-11
2.29367e-05
5.05866e-11
2.29366e-05
6.64434e-11
2.29366e-05
8.30001e-11
2.29366e-05
7.0039e-11
2.29366e-05
4.31461e-11
2.29365e-05
2.28911e-11
2.29365e-05
-9.57151e-16
2.29365e-05
5.06168e-12
2.29365e-05
1.53444e-11
2.29365e-05
2.38178e-11
2.29365e-05
3.10871e-11
2.29365e-05
3.9289e-11
2.29365e-05
4.81121e-11
2.29364e-05
6.81503e-11
2.29364e-05
8.78934e-11
2.29363e-05
1.50505e-10
2.29363e-05
1.8891e-10
2.29361e-05
3.705e-10
2.2936e-05
4.35232e-10
2.29358e-05
7.59345e-10
2.29355e-05
9.19963e-10
2.29353e-05
4.28783e-10
2.29352e-05
1.65869e-10
2.29352e-05
3.37926e-11
2.29352e-05
-4.10467e-11
2.29352e-05
-5.70903e-11
2.29352e-05
-5.37089e-11
2.29352e-05
-4.40817e-11
2.29352e-05
-3.53681e-11
2.29352e-05
-2.40228e-11
2.29352e-05
-1.84118e-11
2.29352e-05
2.59502e-11
2.29352e-05
3.624e-11
2.29351e-05
3.35109e-10
2.2935e-05
2.03238e-10
2.52565e-09
2.85306e-05
3.63447e-09
2.85304e-05
-2.15492e-10
2.85306e-05
-1.20727e-09
2.85308e-05
-1.09207e-09
2.8531e-05
-8.95861e-10
2.85311e-05
-6.51386e-10
2.85313e-05
-4.6298e-10
2.85314e-05
-3.28918e-10
2.85314e-05
-2.36825e-10
2.85315e-05
-1.77811e-10
2.85316e-05
-1.41826e-10
2.85316e-05
-1.21339e-10
2.85316e-05
-1.11091e-10
2.85317e-05
-1.07934e-10
2.85317e-05
-1.10246e-10
2.85318e-05
-1.17016e-10
2.85318e-05
-1.27247e-10
2.85318e-05
-1.3984e-10
2.85319e-05
-1.53752e-10
2.85319e-05
-1.68119e-10
2.8532e-05
-1.82218e-10
2.85321e-05
-1.95391e-10
2.85321e-05
-2.07052e-10
2.85322e-05
-2.16798e-10
2.85323e-05
-2.24526e-10
2.85323e-05
-2.30427e-10
2.85324e-05
-2.34875e-10
2.85325e-05
-2.38256e-10
2.85325e-05
-2.40846e-10
2.85326e-05
-2.42787e-10
2.85327e-05
-2.44126e-10
2.85328e-05
-2.44891e-10
2.85328e-05
-2.45026e-10
2.85329e-05
-2.44527e-10
2.8533e-05
-2.42848e-10
2.8533e-05
-2.39962e-10
2.85331e-05
-2.33245e-10
2.85332e-05
-2.24166e-10
2.85332e-05
-2.01097e-10
2.85333e-05
-1.77454e-10
2.85333e-05
-1.00929e-10
2.85333e-05
-5.04562e-11
2.85333e-05
1.80734e-10
2.85332e-05
2.74077e-10
2.85331e-05
7.15497e-10
2.85328e-05
9.32411e-10
2.85327e-05
4.33515e-10
2.85326e-05
1.51192e-10
2.85326e-05
-8.32136e-12
2.85326e-05
-7.01387e-11
2.85326e-05
-1.66298e-10
2.85327e-05
-1.86731e-10
2.85327e-05
-1.66355e-10
2.85328e-05
-1.33669e-10
2.85328e-05
-1.0027e-10
2.85328e-05
-7.57592e-11
2.85328e-05
-6.3591e-11
2.85329e-05
-6.42135e-11
2.85329e-05
-7.62284e-11
2.85329e-05
-9.69978e-11
2.8533e-05
-1.23331e-10
2.8533e-05
-1.51978e-10
2.85331e-05
-1.80016e-10
2.85331e-05
-2.05097e-10
2.85332e-05
-2.2555e-10
2.85333e-05
-2.40382e-10
2.85334e-05
-2.49186e-10
2.85334e-05
-2.52015e-10
2.85335e-05
-2.4926e-10
2.85336e-05
-2.41516e-10
2.85336e-05
-2.29497e-10
2.85337e-05
-2.13958e-10
2.85338e-05
-1.95649e-10
2.85338e-05
-1.75281e-10
2.85339e-05
-1.53503e-10
2.85339e-05
-1.30894e-10
2.85339e-05
-1.0794e-10
2.8534e-05
-8.50554e-11
2.8534e-05
-6.24796e-11
2.8534e-05
-4.05128e-11
2.8534e-05
-1.87897e-11
2.8534e-05
2.03195e-12
2.8534e-05
2.45083e-11
2.8534e-05
4.5305e-11
2.85339e-05
7.30952e-11
2.85339e-05
9.56318e-11
2.85339e-05
1.18601e-10
2.85338e-05
1.04078e-10
2.85338e-05
7.0479e-11
2.85338e-05
4.33712e-11
2.85338e-05
1.30038e-11
2.85338e-05
1.76661e-11
2.85337e-05
3.02915e-11
2.85337e-05
4.18321e-11
2.85337e-05
5.23114e-11
2.85337e-05
6.42049e-11
2.85337e-05
7.73973e-11
2.85336e-05
1.04637e-10
2.85336e-05
1.32914e-10
2.85335e-05
2.14342e-10
2.85334e-05
2.69911e-10
2.85333e-05
5.03066e-10
2.85331e-05
5.99999e-10
2.85329e-05
1.02172e-09
2.85325e-05
1.2396e-09
2.85323e-05
6.38513e-10
2.85322e-05
2.8694e-10
2.85322e-05
9.39563e-11
2.85321e-05
-1.70009e-11
2.85321e-05
-4.98114e-11
2.85321e-05
-5.31635e-11
2.85321e-05
-4.58458e-11
2.85321e-05
-3.79186e-11
2.85321e-05
-2.66116e-11
2.85321e-05
-2.05615e-11
2.85321e-05
3.1884e-11
2.85321e-05
5.07225e-11
2.8532e-05
4.17327e-10
2.85319e-05
3.04652e-10
3.11442e-09
3.39274e-05
4.30855e-09
3.39271e-05
1.09869e-11
3.39272e-05
-1.243e-09
3.39273e-05
-1.25135e-09
3.39275e-05
-1.07454e-09
3.39277e-05
-8.10829e-10
3.39278e-05
-5.93997e-10
3.39279e-05
-4.33625e-10
3.3928e-05
-3.20901e-10
3.3928e-05
-2.47e-10
3.39281e-05
-2.00922e-10
3.39282e-05
-1.73946e-10
3.39282e-05
-1.59815e-10
3.39283e-05
-1.54725e-10
3.39283e-05
-1.56688e-10
3.39283e-05
-1.64473e-10
3.39284e-05
-1.76854e-10
3.39285e-05
-1.92446e-10
3.39285e-05
-2.09894e-10
3.39286e-05
-2.28034e-10
3.39286e-05
-2.4588e-10
3.39287e-05
-2.62546e-10
3.39288e-05
-2.77261e-10
3.39288e-05
-2.89506e-10
3.39289e-05
-2.99146e-10
3.3929e-05
-3.06425e-10
3.39291e-05
-3.11812e-10
3.39291e-05
-3.15788e-10
3.39292e-05
-3.18698e-10
3.39293e-05
-3.20722e-10
3.39294e-05
-3.21927e-10
3.39295e-05
-3.22359e-10
3.39295e-05
-3.21967e-10
3.39296e-05
-3.20745e-10
3.39297e-05
-3.18057e-10
3.39298e-05
-3.13815e-10
3.39298e-05
-3.04937e-10
3.39299e-05
-2.9292e-10
3.393e-05
-2.64167e-10
3.393e-05
-2.33563e-10
3.39301e-05
-1.40095e-10
3.39301e-05
-7.35038e-11
3.39301e-05
2.07551e-10
3.393e-05
3.34676e-10
3.39298e-05
8.77692e-10
3.39296e-05
1.15841e-09
3.39295e-05
5.85099e-10
3.39294e-05
2.37763e-10
3.39293e-05
2.83936e-11
3.39293e-05
-5.98217e-11
3.39293e-05
-1.84836e-10
3.39294e-05
-2.18711e-10
3.39294e-05
-2.01685e-10
3.39294e-05
-1.66809e-10
3.39295e-05
-1.29747e-10
3.39295e-05
-1.02795e-10
3.39295e-05
-9.06896e-11
3.39296e-05
-9.41911e-11
3.39296e-05
-1.11562e-10
3.39296e-05
-1.39473e-10
3.39297e-05
-1.73901e-10
3.39297e-05
-2.10779e-10
3.39298e-05
-2.46478e-10
3.39299e-05
-2.781e-10
3.393e-05
-3.03605e-10
3.393e-05
-3.21794e-10
3.39301e-05
-3.32194e-10
3.39302e-05
-3.34907e-10
3.39303e-05
-3.30444e-10
3.39304e-05
-3.19575e-10
3.39304e-05
-3.03213e-10
3.39305e-05
-2.82326e-10
3.39306e-05
-2.57874e-10
3.39306e-05
-2.30769e-10
3.39307e-05
-2.01847e-10
3.39307e-05
-1.71853e-10
3.39307e-05
-1.41416e-10
3.39308e-05
-1.11076e-10
3.39308e-05
-8.11542e-11
3.39308e-05
-5.20279e-11
3.39308e-05
-2.32949e-11
3.39308e-05
4.30492e-12
3.39308e-05
3.37551e-11
3.39308e-05
6.12665e-11
3.39308e-05
9.70208e-11
3.39307e-05
1.26827e-10
3.39307e-05
1.56837e-10
3.39306e-05
1.41732e-10
3.39306e-05
1.02269e-10
3.39306e-05
6.85522e-11
3.39306e-05
3.0629e-11
3.39306e-05
3.43149e-11
3.39305e-05
4.88368e-11
3.39305e-05
6.3444e-11
3.39305e-05
7.74504e-11
3.39305e-05
9.35565e-11
3.39304e-05
1.11684e-10
3.39304e-05
1.46611e-10
3.39303e-05
1.83832e-10
3.39303e-05
2.84014e-10
3.39302e-05
3.57159e-10
3.393e-05
6.40719e-10
3.39299e-05
7.7153e-10
3.39296e-05
1.29054e-09
3.39293e-05
1.56983e-09
3.3929e-05
8.71986e-10
3.39289e-05
4.35783e-10
3.39288e-05
1.78426e-10
3.39288e-05
2.61965e-11
3.39287e-05
-2.86839e-11
3.39287e-05
-4.31965e-11
3.39287e-05
-4.14577e-11
3.39287e-05
-3.68716e-11
3.39287e-05
-2.73985e-11
3.39287e-05
-2.26957e-11
3.39287e-05
3.64817e-11
3.39287e-05
6.22468e-11
3.39286e-05
4.91724e-10
3.39285e-05
4.04734e-10
3.62471e-09
3.89821e-05
4.88861e-09
3.89818e-05
2.73533e-10
3.89818e-05
-1.20002e-09
3.89819e-05
-1.34613e-09
3.8982e-05
-1.21406e-09
3.89822e-05
-9.51599e-10
3.89823e-05
-7.19256e-10
3.89824e-05
-5.39762e-10
3.89825e-05
-4.10011e-10
3.89826e-05
-3.22712e-10
3.89826e-05
-2.66856e-10
3.89827e-05
-2.33126e-10
3.89828e-05
-2.14625e-10
3.89828e-05
-2.0708e-10
3.89829e-05
-2.0821e-10
3.89829e-05
-2.16575e-10
3.8983e-05
-2.30723e-10
3.8983e-05
-2.48993e-10
3.89831e-05
-2.69724e-10
3.89831e-05
-2.91452e-10
3.89832e-05
-3.12917e-10
3.89833e-05
-3.32989e-10
3.89834e-05
-3.50702e-10
3.89834e-05
-3.65414e-10
3.89835e-05
-3.76953e-10
3.89836e-05
-3.85606e-10
3.89837e-05
-3.9193e-10
3.89837e-05
-3.96492e-10
3.89838e-05
-3.99699e-10
3.89839e-05
-4.01765e-10
3.8984e-05
-4.02777e-10
3.89841e-05
-4.028e-10
3.89841e-05
-4.01794e-10
3.89842e-05
-3.99753e-10
3.89843e-05
-3.95967e-10
3.89844e-05
-3.90291e-10
3.89845e-05
-3.79222e-10
3.89845e-05
-3.64278e-10
3.89846e-05
-3.3002e-10
3.89847e-05
-2.92669e-10
3.89847e-05
-1.83051e-10
3.89847e-05
-1.00802e-10
3.89847e-05
2.27873e-10
3.89846e-05
3.88755e-10
3.89845e-05
1.03095e-09
3.89843e-05
1.37861e-09
3.89841e-05
7.43355e-10
3.8984e-05
3.38222e-10
3.8984e-05
8.08796e-11
3.89839e-05
-3.51858e-11
3.89839e-05
-1.90807e-10
3.8984e-05
-2.41013e-10
3.8984e-05
-2.30729e-10
3.8984e-05
-1.96945e-10
3.89841e-05
-1.5909e-10
3.89841e-05
-1.3202e-10
3.89841e-05
-1.21721e-10
3.89842e-05
-1.29273e-10
3.89842e-05
-1.52644e-10
3.89842e-05
-1.8789e-10
3.89843e-05
-2.30264e-10
3.89844e-05
-2.74997e-10
3.89844e-05
-3.17862e-10
3.89845e-05
-3.55504e-10
3.89846e-05
-3.85576e-10
3.89847e-05
-4.06709e-10
3.89848e-05
-4.1838e-10
3.89848e-05
-4.20734e-10
3.89849e-05
-4.14391e-10
3.8985e-05
-4.00278e-10
3.89851e-05
-3.7949e-10
3.89852e-05
-3.53189e-10
3.89852e-05
-3.22528e-10
3.89853e-05
-2.8861e-10
3.89853e-05
-2.52448e-10
3.89854e-05
-2.1495e-10
3.89854e-05
-1.76888e-10
3.89854e-05
-1.38923e-10
3.89855e-05
-1.01465e-10
3.89855e-05
-6.49679e-11
3.89855e-05
-2.9004e-11
3.89855e-05
5.60646e-12
3.89855e-05
4.22456e-11
3.89855e-05
7.67072e-11
3.89854e-05
1.20602e-10
3.89854e-05
1.57982e-10
3.89854e-05
1.95447e-10
3.89853e-05
1.80659e-10
3.89853e-05
1.36285e-10
3.89853e-05
9.64954e-11
3.89852e-05
5.12318e-11
3.89852e-05
5.35645e-11
3.89852e-05
6.96021e-11
3.89852e-05
8.71871e-11
3.89851e-05
1.04928e-10
3.89851e-05
1.2561e-10
3.89851e-05
1.49053e-10
3.8985e-05
1.91816e-10
3.8985e-05
2.37951e-10
3.89849e-05
3.56115e-10
3.89848e-05
4.46226e-10
3.89847e-05
7.77685e-10
3.89845e-05
9.41977e-10
3.89842e-05
1.5557e-09
3.89839e-05
1.89921e-09
3.89837e-05
1.11781e-09
3.89835e-05
6.0407e-10
3.89834e-05
2.83168e-10
3.89833e-05
8.70333e-11
3.89833e-05
5.99163e-12
3.89833e-05
-2.37112e-11
3.89833e-05
-3.09551e-11
3.89833e-05
-3.23922e-11
3.89833e-05
-2.69035e-11
3.89833e-05
-2.52985e-11
3.89833e-05
3.86423e-11
3.89833e-05
6.94962e-11
3.89832e-05
5.55267e-10
3.89831e-05
4.95978e-10
4.0444e-09
4.36724e-05
5.36766e-09
4.36721e-05
5.45188e-10
4.3672e-05
-1.10142e-09
4.3672e-05
-1.38154e-09
4.36721e-05
-1.30938e-09
4.36722e-05
-1.06534e-09
4.36724e-05
-8.30637e-10
4.36725e-05
-6.40632e-10
4.36725e-05
-4.98926e-10
4.36726e-05
-4.00912e-10
4.36727e-05
-3.36472e-10
4.36728e-05
-2.9633e-10
4.36728e-05
-2.73373e-10
4.36729e-05
-2.63105e-10
4.36729e-05
-2.63066e-10
4.3673e-05
-2.71642e-10
4.3673e-05
-2.87176e-10
4.36731e-05
-3.07751e-10
4.36732e-05
-3.31422e-10
4.36732e-05
-3.56443e-10
4.36733e-05
-3.81283e-10
4.36734e-05
-4.04568e-10
4.36734e-05
-4.25133e-10
4.36735e-05
-4.42209e-10
4.36736e-05
-4.55586e-10
4.36737e-05
-4.65584e-10
4.36738e-05
-4.72833e-10
4.36738e-05
-4.77975e-10
4.36739e-05
-4.8147e-10
4.3674e-05
-4.8356e-10
4.36741e-05
-4.84351e-10
4.36742e-05
-4.83924e-10
4.36742e-05
-4.82256e-10
4.36743e-05
-4.79346e-10
4.36744e-05
-4.74424e-10
4.36745e-05
-4.6729e-10
4.36745e-05
-4.54075e-10
4.36746e-05
-4.36292e-10
4.36747e-05
-3.96832e-10
4.36747e-05
-3.531e-10
4.36748e-05
-2.28356e-10
4.36748e-05
-1.31342e-10
4.36748e-05
2.42273e-10
4.36748e-05
4.35701e-10
4.36746e-05
1.17395e-09
4.36744e-05
1.59032e-09
4.36742e-05
9.03275e-10
4.36741e-05
4.47819e-10
4.36741e-05
1.46493e-10
4.3674e-05
3.04745e-12
4.3674e-05
-1.8379e-10
4.3674e-05
-2.52495e-10
4.36741e-05
-2.51951e-10
4.36741e-05
-2.22566e-10
4.36741e-05
-1.87052e-10
4.36741e-05
-1.62507e-10
4.36742e-05
-1.5599e-10
4.36742e-05
-1.68842e-10
4.36743e-05
-1.9877e-10
4.36743e-05
-2.41326e-10
4.36744e-05
-2.9119e-10
4.36744e-05
-3.43056e-10
4.36745e-05
-3.92251e-10
4.36746e-05
-4.35086e-10
4.36747e-05
-4.68989e-10
4.36748e-05
-4.92472e-10
4.36749e-05
-5.0498e-10
4.36749e-05
-5.06698e-10
4.3675e-05
-4.98342e-10
4.36751e-05
-4.80966e-10
4.36752e-05
-4.55819e-10
4.36753e-05
-4.24229e-10
4.36753e-05
-3.87522e-10
4.36754e-05
-3.46966e-10
4.36754e-05
-3.03738e-10
4.36755e-05
-2.58895e-10
4.36755e-05
-2.13343e-10
4.36755e-05
-1.67859e-10
4.36756e-05
-1.2294e-10
4.36756e-05
-7.91191e-11
4.36756e-05
-3.59491e-11
4.36756e-05
5.67108e-12
4.36756e-05
4.94912e-11
4.36756e-05
9.09218e-11
4.36755e-05
1.42933e-10
4.36755e-05
1.87988e-10
4.36755e-05
2.33146e-10
4.36754e-05
2.19391e-10
4.36754e-05
1.70985e-10
4.36754e-05
1.25765e-10
4.36753e-05
7.35694e-11
4.36753e-05
7.4436e-11
4.36753e-05
9.18109e-11
4.36753e-05
1.12354e-10
4.36752e-05
1.34031e-10
4.36752e-05
1.59577e-10
4.36752e-05
1.88594e-10
4.36751e-05
2.39132e-10
4.36751e-05
2.93873e-10
4.3675e-05
4.28862e-10
4.36749e-05
5.3474e-10
4.36748e-05
9.11024e-10
4.36746e-05
1.10711e-09
4.36744e-05
1.81223e-09
4.3674e-05
2.22143e-09
4.36738e-05
1.36738e-09
4.36736e-05
7.83791e-10
4.36735e-05
4.02828e-10
4.36734e-05
1.62501e-10
4.36734e-05
5.28208e-11
4.36733e-05
4.79516e-12
4.36733e-05
-1.45055e-11
4.36733e-05
-2.4531e-11
4.36733e-05
-2.52922e-11
4.36733e-05
-2.8494e-11
4.36733e-05
3.79386e-11
4.36733e-05
7.20723e-11
4.36733e-05
6.06714e-10
4.36732e-05
5.75361e-10
4.37488e-09
4.8044e-05
5.74813e-09
4.80437e-05
8.05225e-10
4.80436e-05
-9.7126e-10
4.80436e-05
-1.37074e-09
4.80436e-05
-1.36347e-09
4.80437e-05
-1.14914e-09
4.80438e-05
-9.23029e-10
4.80439e-05
-7.30913e-10
4.8044e-05
-5.82909e-10
4.8044e-05
-4.77662e-10
4.80441e-05
-4.06593e-10
4.80442e-05
-3.61022e-10
4.80442e-05
-3.34024e-10
4.80443e-05
-3.21135e-10
4.80443e-05
-3.19848e-10
4.80444e-05
-3.28441e-10
4.80445e-05
-3.45082e-10
4.80445e-05
-3.67634e-10
4.80446e-05
-3.93906e-10
4.80446e-05
-4.21895e-10
4.80447e-05
-4.49817e-10
4.80448e-05
-4.76064e-10
4.80449e-05
-4.99278e-10
4.80449e-05
-5.18569e-10
4.8045e-05
-5.33681e-10
4.80451e-05
-5.44961e-10
4.80452e-05
-5.531e-10
4.80453e-05
-5.588e-10
4.80453e-05
-5.62564e-10
4.80454e-05
-5.64655e-10
4.80455e-05
-5.65197e-10
4.80456e-05
-5.64286e-10
4.80457e-05
-5.61921e-10
4.80457e-05
-5.58103e-10
4.80458e-05
-5.52026e-10
4.80459e-05
-5.43427e-10
4.8046e-05
-5.28133e-10
4.8046e-05
-5.07621e-10
4.80461e-05
-4.63297e-10
4.80462e-05
-4.13587e-10
4.80462e-05
-2.74769e-10
4.80462e-05
-1.64019e-10
4.80462e-05
2.51904e-10
4.80462e-05
4.76111e-10
4.80461e-05
1.30756e-09
4.80459e-05
1.79346e-09
4.80457e-05
1.06183e-09
4.80456e-05
5.6245e-10
4.80455e-05
2.2188e-10
4.80455e-05
5.28688e-11
4.80454e-05
-1.64824e-10
4.80454e-05
-2.53394e-10
4.80455e-05
-2.65017e-10
4.80455e-05
-2.43073e-10
4.80455e-05
-2.13013e-10
4.80455e-05
-1.93725e-10
4.80456e-05
-1.9306e-10
4.80456e-05
-2.12496e-10
4.80457e-05
-2.49499e-10
4.80457e-05
-2.99233e-10
4.80458e-05
-3.55978e-10
4.80459e-05
-4.1408e-10
4.80459e-05
-4.68588e-10
4.8046e-05
-5.15613e-10
4.80461e-05
-5.52454e-10
4.80462e-05
-5.77558e-10
4.80463e-05
-5.90367e-10
4.80464e-05
-5.91104e-10
4.80464e-05
-5.80563e-10
4.80465e-05
-5.59904e-10
4.80466e-05
-5.30498e-10
4.80467e-05
-4.93809e-10
4.80467e-05
-4.51305e-10
4.80468e-05
-4.04398e-10
4.80468e-05
-3.54404e-10
4.80469e-05
-3.02514e-10
4.80469e-05
-2.49756e-10
4.80469e-05
-1.97015e-10
4.8047e-05
-1.44869e-10
4.8047e-05
-9.39258e-11
4.8047e-05
-4.37269e-11
4.8047e-05
4.75354e-12
4.8047e-05
5.56036e-11
4.8047e-05
1.03881e-10
4.80469e-05
1.63861e-10
4.80469e-05
2.16562e-10
4.80469e-05
2.69523e-10
4.80468e-05
2.57305e-10
4.80468e-05
2.0557e-10
4.80468e-05
1.55542e-10
4.80468e-05
9.6919e-11
4.80467e-05
9.64694e-11
4.80467e-05
1.15276e-10
4.80467e-05
1.38937e-10
4.80466e-05
1.64839e-10
4.80466e-05
1.95538e-10
4.80466e-05
2.30326e-10
4.80465e-05
2.88455e-10
4.80465e-05
3.51327e-10
4.80464e-05
5.01808e-10
4.80463e-05
6.21961e-10
4.80462e-05
1.03991e-09
4.8046e-05
1.26545e-09
4.80458e-05
2.05878e-09
4.80455e-05
2.53424e-09
4.80452e-05
1.61525e-09
4.8045e-05
9.68499e-10
4.80449e-05
5.32008e-10
4.80448e-05
2.48855e-10
4.80448e-05
1.09606e-10
4.80447e-05
4.12268e-11
4.80447e-05
7.42798e-12
4.80447e-05
-1.3419e-11
4.80447e-05
-2.25891e-11
4.80447e-05
-3.22254e-11
4.80447e-05
3.43593e-11
4.80447e-05
7.01133e-11
4.80447e-05
6.45968e-10
4.80446e-05
6.42339e-10
4.62466e-09
5.21617e-05
6.03762e-09
5.21615e-05
1.04076e-09
5.21614e-05