/*--------------------------------*- C++ -*----------------------------------*\
  =========                 |
  \\      /  F ield         | OpenFOAM: The Open Source CFD Toolbox
   \\    /   O peration     | Website:  https://openfoam.org
    \\  /    A nd           | Version:  7
     \\/     M anipulation  |
\*---------------------------------------------------------------------------*/
FoamFile
{
    version     2.0;
    format      ascii;
    class       volVectorField;
    location    "1500";
    object      U;
}
// * * * * * * * * * * * * * * * * * * * * * * * * * * * * * * * * * * * * * //

dimensions      [0 1 -1 0 0 0 0];

internalField   nonuniform List<vector> 
24000
(
(0.00446206 4.10942e-09 -7.00059e-18)
(0.00446199 -4.63591e-09 -1.49834e-17)
(0.00446234 -9.40341e-10 -1.14514e-17)
(0.00446242 -7.39959e-10 -7.85661e-17)
(0.00446251 -5.74704e-10 -3.96077e-16)
(0.00446257 -2.70541e-10 -1.01275e-16)
(0.0044626 -1.73987e-10 -3.49633e-16)
(0.00446262 -9.0053e-11 -8.31551e-17)
(0.00446264 -4.11864e-11 -4.64651e-17)
(0.00446265 -1.50229e-11 -3.29988e-16)
(0.00446265 -6.71394e-13 -7.54367e-17)
(0.00446265 5.44498e-12 -6.47698e-17)
(0.00446266 6.98634e-12 -5.96566e-17)
(0.00446266 5.61754e-12 -7.75559e-17)
(0.00446266 2.04463e-12 -1.16991e-16)
(0.00446267 -3.23766e-12 -6.66025e-17)
(0.00446267 -9.66853e-12 -7.6661e-17)
(0.00446267 -1.66757e-11 -7.81919e-17)
(0.00446268 -2.38984e-11 -1.01551e-16)
(0.00446269 -3.11861e-11 -1.29934e-16)
(0.00446269 -3.84953e-11 -6.52136e-17)
(0.0044627 -4.56916e-11 -1.25255e-16)
(0.00446271 -5.255e-11 -1.06394e-16)
(0.00446272 -5.88011e-11 -1.14369e-16)
(0.00446273 -6.42724e-11 -1.75456e-16)
(0.00446275 -6.90108e-11 -9.01128e-17)
(0.00446276 -7.30855e-11 -1.0364e-16)
(0.00446277 -7.69173e-11 -9.107e-17)
(0.00446278 -8.03269e-11 -1.29721e-16)
(0.0044628 -8.40903e-11 -1.86548e-16)
(0.00446281 -8.69786e-11 -1.08195e-16)
(0.00446283 -9.11754e-11 -1.25851e-16)
(0.00446284 -9.24832e-11 -1.05053e-16)
(0.00446285 -9.82087e-11 -1.22312e-16)
(0.00446287 -9.46581e-11 -1.77837e-16)
(0.00446288 -1.05472e-10 -9.61744e-17)
(0.0044629 -8.66352e-11 -1.17915e-16)
(0.00446291 -1.13023e-10 -1.04141e-16)
(0.00446292 -4.817e-11 -1.18779e-16)
(0.00446294 -1.18753e-10 -1.59699e-16)
(0.00446294 6.98837e-11 -1.34311e-16)
(0.00446295 -1.01142e-10 3.06402e-17)
(0.00446294 3.39521e-10 -8.76301e-17)
(0.00446291 7.96347e-11 -9.66082e-17)
(0.00446289 6.07991e-10 -9.0051e-17)
(0.00446279 7.64354e-10 -7.88724e-17)
(0.00446274 -2.61194e-10 9.83051e-17)
(0.00446275 -4.0488e-11 -6.39959e-17)
(0.00446276 -1.65082e-10 -7.36806e-17)
(0.00446277 -7.91855e-11 -6.77003e-17)
(0.00446278 -2.06492e-10 -6.18985e-17)
(0.0044628 -1.33007e-10 1.23185e-16)
(0.00446282 -9.81491e-11 -4.47581e-17)
(0.00446283 -6.51093e-11 1.76731e-16)
(0.00446284 -3.36286e-11 -1.11744e-16)
(0.00446284 -1.27961e-11 -3.14334e-17)
(0.00446284 1.09643e-12 1.35924e-16)
(0.00446284 7.81141e-12 -2.37221e-17)
(0.00446285 8.22777e-12 1.23711e-16)
(0.00446285 3.55556e-12 -3.27207e-17)
(0.00446285 -4.8751e-12 -7.87126e-18)
(0.00446286 -1.56303e-11 1.22977e-16)
(0.00446286 -2.73656e-11 -1.5982e-17)
(0.00446287 -3.89069e-11 1.5433e-16)
(0.00446288 -4.93594e-11 -3.95494e-17)
(0.00446289 -5.8124e-11 -3.33397e-18)
(0.0044629 -6.4862e-11 1.81657e-16)
(0.00446292 -6.94576e-11 -7.22357e-18)
(0.00446293 -7.19695e-11 1.96545e-16)
(0.00446294 -7.2566e-11 -3.53556e-17)
(0.00446295 -7.14809e-11 7.64373e-18)
(0.00446297 -6.89845e-11 1.51244e-16)
(0.00446298 -6.52769e-11 2.12769e-18)
(0.00446299 -6.07278e-11 1.68692e-16)
(0.004463 -5.5382e-11 -5.63865e-17)
(0.00446301 -4.97699e-11 8.2118e-18)
(0.00446301 -4.35005e-11 1.87539e-16)
(0.00446302 -3.77312e-11 5.15185e-18)
(0.00446302 -3.07008e-11 2.24784e-16)
(0.00446303 -2.57638e-11 -4.91127e-17)
(0.00446303 -1.69565e-11 -1.82292e-16)
(0.00446303 -1.42795e-11 -4.40078e-17)
(0.00446303 -1.33077e-13 1.16655e-17)
(0.00446303 -1.48572e-12 -3.01963e-16)
(0.00446303 2.31842e-11 -1.12734e-16)
(0.00446303 1.84578e-11 -2.38715e-16)
(0.00446302 4.02003e-11 -7.23855e-17)
(0.00446301 4.17922e-12 -1.79859e-17)
(0.00446301 -3.3579e-11 -2.35958e-16)
(0.00446301 -2.94735e-11 -9.78051e-17)
(0.00446302 -6.7204e-11 -2.0417e-16)
(0.00446302 -2.94475e-11 -1.28012e-16)
(0.00446302 -2.68252e-11 -1.65487e-17)
(0.00446302 -1.76861e-11 -2.30331e-16)
(0.00446302 -2.39207e-11 -1.31412e-16)
(0.00446302 -5.06481e-12 -2.43856e-16)
(0.00446302 -3.05265e-11 -1.07021e-16)
(0.00446302 3.2313e-11 -2.12267e-17)
(0.00446302 -3.48863e-11 -2.03077e-16)
(0.00446301 1.4833e-10 -6.89381e-17)
(0.004463 -1.0711e-11 -2.11869e-16)
(0.00446297 4.10372e-10 -9.64443e-17)
(0.00446293 1.85422e-10 -1.95977e-17)
(0.00446289 6.46393e-10 -2.56994e-16)
(0.00446277 8.79965e-10 -1.01883e-16)
(0.00446272 -3.01674e-10 -2.27245e-16)
(0.00446273 -8.9313e-11 -1.0841e-16)
(0.00446273 -1.56996e-10 -1.96037e-17)
(0.00446275 -1.81687e-10 -1.91572e-16)
(0.00446276 -1.15881e-10 -8.34239e-17)
(0.00446277 -1.18821e-10 -2.32639e-16)
(0.00446278 -4.82926e-11 -2.98612e-16)
(0.00446279 -1.12681e-10 -3.44132e-17)
(0.00446279 5.54847e-11 -2.22241e-16)
(0.00446281 -1.97873e-10 -1.00267e-16)
(0.00446278 3.29321e-10 -1.82672e-16)
(0.00446282 -4.76594e-10 -2.3549e-16)
(0.00446274 1.23349e-09 -3.03849e-17)
(0.00446278 -1.12165e-09 -2.54794e-16)
(0.00446266 4.56948e-09 -7.66238e-17)
(0.0134709 3.85417e-08 -2.02466e-17)
(0.0134706 -2.179e-08 -4.60641e-17)
(0.0134713 -1.72384e-08 -3.49032e-17)
(0.0134716 -9.61692e-09 -2.43357e-16)
(0.0134718 -7.55213e-09 -8.91993e-16)
(0.013472 -4.5825e-09 -2.99617e-16)
(0.0134721 -2.91625e-09 -7.97779e-16)
(0.0134721 -1.82928e-09 -2.41252e-16)
(0.0134722 -1.11178e-09 -1.4812e-16)
(0.0134722 -6.92339e-10 -9.42863e-16)
(0.0134722 -4.5136e-10 -2.15289e-16)
(0.0134722 -3.2753e-10 -1.97576e-16)
(0.0134722 -2.78151e-10 -1.81392e-16)
(0.0134723 -2.7833e-10 -2.35304e-16)
(0.0134723 -3.15228e-10 -3.50606e-16)
(0.0134723 -3.79825e-10 -2.01032e-16)
(0.0134723 -4.63755e-10 -2.31681e-16)
(0.0134723 -5.59346e-10 -2.35671e-16)
(0.0134723 -6.60716e-10 -3.07763e-16)
(0.0134724 -7.64002e-10 -3.89962e-16)
(0.0134724 -8.66095e-10 -1.96004e-16)
(0.0134724 -9.63619e-10 -3.88162e-16)
(0.0134724 -1.05271e-09 -3.22865e-16)
(0.0134725 -1.13051e-09 -3.45406e-16)
(0.0134725 -1.19575e-09 -5.29084e-16)
(0.0134725 -1.24972e-09 -2.65528e-16)
(0.0134726 -1.29484e-09 -3.17261e-16)
(0.0134726 -1.33423e-09 -2.74083e-16)
(0.0134727 -1.36945e-09 -3.91901e-16)
(0.0134727 -1.40246e-09 -5.70693e-16)
(0.0134727 -1.43146e-09 -3.24865e-16)
(0.0134728 -1.45962e-09 -3.80546e-16)
(0.0134728 -1.47972e-09 -3.19e-16)
(0.0134729 -1.50288e-09 -3.73279e-16)
(0.0134729 -1.50324e-09 -5.33744e-16)
(0.0134729 -1.51828e-09 -2.80611e-16)
(0.013473 -1.45554e-09 -3.51935e-16)
(0.013473 -1.45296e-09 -3.15056e-16)
(0.0134731 -1.18212e-09 -3.62255e-16)
(0.0134731 -1.1655e-09 -4.78776e-16)
(0.0134731 -2.36516e-10 -4.03695e-16)
(0.0134731 -3.0174e-10 -2.8015e-16)
(0.0134731 2.38823e-09 -2.69907e-16)
(0.013473 2.1662e-09 -2.90909e-16)
(0.013473 6.65304e-09 -2.71882e-16)
(0.0134727 8.11032e-09 -2.37384e-16)
(0.0134726 9.94422e-10 -1.41028e-16)
(0.0134726 -3.51634e-10 -2.00048e-16)
(0.0134726 -1.09699e-09 -2.20537e-16)
(0.0134726 -1.11225e-09 -2.0345e-16)
(0.0134727 -1.95038e-09 -1.85298e-16)
(0.0134727 -1.75822e-09 -8.22787e-17)
(0.0134728 -1.34483e-09 -1.44295e-16)
(0.0134728 -9.71063e-10 -6.67481e-17)
(0.0134728 -6.12803e-10 -2.36199e-16)
(0.0134728 -3.54094e-10 -9.57704e-17)
(0.0134728 -1.96489e-10 -1.09953e-17)
(0.0134728 -1.36693e-10 -7.89329e-17)
(0.0134728 -1.64849e-10 -7.62416e-18)
(0.0134728 -2.63129e-10 -9.16961e-17)
(0.0134729 -4.10781e-10 -1.64687e-17)
(0.0134729 -5.85985e-10 -1.17914e-18)
(0.0134729 -7.68345e-10 -5.38042e-17)
(0.0134729 -9.40762e-10 4.80336e-17)
(0.013473 -1.09044e-09 -2.9052e-16)
(0.013473 -1.2091e-09 -5.08824e-18)
(0.013473 -1.29258e-09 8.15658e-17)
(0.0134731 -1.34001e-09 -2.82147e-17)
(0.0134731 -1.35295e-09 9.9698e-17)
(0.0134731 -1.3346e-09 -6.03608e-17)
(0.0134732 -1.28905e-09 3.0637e-17)
(0.0134732 -1.22076e-09 6.7016e-17)
(0.0134732 -1.13424e-09 3.3749e-19)
(0.0134733 -1.03394e-09 8.14108e-17)
(0.0134733 -9.23516e-10 -7.85312e-17)
(0.0134733 -8.07077e-10 2.63271e-17)
(0.0134734 -6.86654e-10 1.12539e-16)
(0.0134734 -5.66404e-10 8.88173e-18)
(0.0134734 -4.4453e-10 7.79603e-17)
(0.0134734 -3.28528e-10 -7.03326e-17)
(0.0134734 -2.04648e-10 -1.35851e-16)
(0.0134734 -9.62452e-11 -2.28e-16)
(0.0134734 5.07102e-11 3.89085e-17)
(0.0134734 1.53669e-10 -2.42758e-16)
(0.0134734 3.69187e-10 -3.96295e-16)
(0.0134734 4.74623e-10 -2.85012e-16)
(0.0134734 6.45102e-10 -3.52585e-16)
(0.0134733 3.83623e-10 -5.42081e-17)
(0.0134733 1.60459e-11 -2.85691e-16)
(0.0134733 -1.46666e-10 -5.11408e-16)
(0.0134733 -4.22644e-10 -2.48708e-16)
(0.0134733 -2.46924e-10 -2.36361e-16)
(0.0134733 -1.19403e-10 -5.12233e-17)
(0.0134733 -4.26137e-11 -2.57675e-16)
(0.0134733 -2.01657e-12 -4.38391e-16)
(0.0134733 8.20883e-11 -3.06139e-16)
(0.0134733 9.58325e-11 -4.08113e-16)
(0.0134733 3.7309e-10 -6.37219e-17)
(0.0134733 4.08412e-10 -2.53355e-16)
(0.0134733 1.34731e-09 -2.10745e-16)
(0.0134733 1.3268e-09 -2.47241e-16)
(0.0134732 3.98875e-09 -2.66548e-16)
(0.0134731 3.8639e-09 -5.68978e-17)
(0.013473 8.06083e-09 -2.28469e-16)
(0.0134727 9.7472e-09 -2.83109e-16)
(0.0134725 1.4874e-09 -2.82489e-16)
(0.0134725 -2.67845e-10 -2.72434e-16)
(0.0134725 -9.44754e-10 -5.95099e-17)
(0.0134725 -1.47224e-09 -2.37645e-16)
(0.0134725 -1.23843e-09 -3.54772e-16)
(0.0134726 -1.05004e-09 -2.81921e-16)
(0.0134726 -7.57221e-10 -3.26836e-16)
(0.0134726 -7.00586e-10 -9.94145e-17)
(0.0134726 -2.73863e-10 -2.62397e-16)
(0.0134726 -5.68127e-10 -2.32609e-16)
(0.0134726 7.97048e-10 -2.07682e-16)
(0.0134727 -4.62466e-10 -3.02464e-16)
(0.0134725 5.88156e-09 -8.47087e-17)
(0.0134726 -1.01889e-09 -2.15559e-16)
(0.0134723 3.9059e-08 -2.25296e-16)
(0.0226626 9.69805e-08 -1.55441e-17)
(0.022662 -3.8403e-08 -8.42202e-17)
(0.0226628 -4.35322e-08 -6.13856e-17)
(0.0226632 -2.67883e-08 -4.51898e-16)
(0.0226635 -2.04028e-08 -7.55301e-16)
(0.0226637 -1.30942e-08 -4.49848e-16)
(0.0226639 -8.49667e-09 -6.24474e-16)
(0.022664 -5.5044e-09 -3.43133e-16)
(0.0226641 -3.52172e-09 -2.80392e-16)
(0.0226641 -2.33086e-09 -5.66536e-16)
(0.0226642 -1.63913e-09 -3.01087e-16)
(0.0226642 -1.27305e-09 -3.41214e-16)
(0.0226642 -1.11631e-09 -3.07882e-16)
(0.0226642 -1.10057e-09 -4.05241e-16)
(0.0226643 -1.19003e-09 -5.77222e-16)
(0.0226643 -1.36026e-09 -3.3053e-16)
(0.0226643 -1.58804e-09 -3.95668e-16)
(0.0226643 -1.85157e-09 -3.95884e-16)
(0.0226644 -2.13338e-09 -5.2678e-16)
(0.0226644 -2.42115e-09 -6.46624e-16)
(0.0226645 -2.70469e-09 -3.05546e-16)
(0.0226645 -2.97361e-09 -7.0387e-16)
(0.0226646 -3.21723e-09 -5.39865e-16)
(0.0226646 -3.4273e-09 -5.99588e-16)
(0.0226647 -3.60122e-09 -8.85522e-16)
(0.0226647 -3.74236e-09 -4.0347e-16)
(0.0226648 -3.85794e-09 -5.60437e-16)
(0.0226649 -3.9562e-09 -4.58502e-16)
(0.0226649 -4.04218e-09 -6.6031e-16)
(0.022665 -4.11964e-09 -9.90555e-16)
(0.022665 -4.18695e-09 -5.32252e-16)
(0.0226651 -4.24729e-09 -6.54513e-16)
(0.0226652 -4.29203e-09 -5.35056e-16)
(0.0226652 -4.33247e-09 -6.54601e-16)
(0.0226653 -4.33335e-09 -8.90232e-16)
(0.0226654 -4.33473e-09 -4.24189e-16)
(0.0226654 -4.19901e-09 -5.82536e-16)
(0.0226655 -4.10168e-09 -5.26568e-16)
(0.0226656 -3.50888e-09 -6.36861e-16)
(0.0226656 -3.22366e-09 -8.01719e-16)
(0.0226656 -1.14109e-09 -6.64242e-16)
(0.0226657 -7.02825e-10 -6.09875e-16)
(0.0226657 5.553e-09 -4.58341e-16)
(0.0226656 6.08038e-09 -4.90366e-16)
(0.0226655 1.71358e-08 -4.54772e-16)
(0.0226651 2.12601e-08 -3.95499e-16)
(0.0226649 5.08306e-09 -4.19614e-16)
(0.0226649 -2.44732e-11 -3.42965e-16)
(0.0226649 -2.33788e-09 -3.68812e-16)
(0.0226649 -2.77712e-09 -3.37714e-16)
(0.022665 -4.84487e-09 -3.06566e-16)
(0.022665 -4.66005e-09 -3.39492e-16)
(0.0226651 -3.6954e-09 -2.55726e-16)
(0.0226651 -2.72776e-09 -2.70174e-16)
(0.0226652 -1.80386e-09 4.41964e-17)
(0.0226652 -1.12585e-09 -1.39468e-16)
(0.0226652 -7.2422e-10 -2.00047e-16)
(0.0226652 -5.9337e-10 -1.42311e-16)
(0.0226652 -7.05638e-10 -1.6025e-16)
(0.0226652 -1.01089e-09 2.96881e-16)
(0.0226653 -1.44952e-09 -8.45293e-18)
(0.0226653 -1.95924e-09 -1.47011e-16)
(0.0226653 -2.48221e-09 -9.68011e-17)
(0.0226654 -2.97049e-09 -9.83478e-17)
(0.0226654 -3.38845e-09 9.09177e-17)
(0.0226655 -3.71348e-09 8.92771e-18)
(0.0226656 -3.93454e-09 -7.18015e-17)
(0.0226656 -4.04997e-09 -5.45667e-17)
(0.0226657 -4.06498e-09 -6.16385e-17)
(0.0226658 -3.9892e-09 1.67927e-16)
(0.0226658 -3.83481e-09 7.49372e-17)
(0.0226659 -3.61513e-09 -4.74524e-17)
(0.0226659 -3.34323e-09 -8.54769e-18)
(0.022666 -3.03206e-09 -4.23854e-17)
(0.022666 -2.69294e-09 1.27797e-16)
(0.0226661 -2.33663e-09 7.02716e-17)
(0.0226661 -1.97098e-09 -1.25105e-17)
(0.0226661 -1.60505e-09 7.10295e-18)
(0.0226661 -1.23934e-09 -2.60179e-17)
(0.0226662 -8.85592e-10 3.06082e-16)
(0.0226662 -5.22684e-10 -5.52086e-17)
(0.0226662 -1.87115e-10 1.64462e-16)
(0.0226662 2.20585e-10 8.44951e-17)
(0.0226662 5.52387e-10 -2.23394e-16)
(0.0226662 1.11818e-09 -7.67349e-17)
(0.0226661 1.47234e-09 -2.78782e-16)
(0.0226661 1.9208e-09 1.28603e-16)
(0.0226661 1.3412e-09 -8.05495e-17)
(0.0226661 4.21781e-10 -3.24517e-16)
(0.022666 -9.65631e-11 8.53291e-17)
(0.022666 -7.90123e-10 -2.69199e-16)
(0.0226661 -4.56533e-10 4.43373e-17)
(0.0226661 -1.10827e-10 -6.09221e-17)
(0.022666 1.07499e-10 -2.75933e-16)
(0.022666 2.58247e-10 3.44679e-17)
(0.022666 4.65525e-10 -3.18188e-16)
(0.022666 6.03161e-10 7.02092e-17)
(0.022666 1.23073e-09 -8.61287e-17)
(0.022666 1.57103e-09 -3.16783e-16)
(0.0226659 3.7079e-09 -1.91536e-17)
(0.0226659 4.24865e-09 -2.64163e-16)
(0.0226658 1.04899e-08 -6.31946e-17)
(0.0226656 1.11883e-08 -7.34695e-17)
(0.0226654 2.16359e-08 -2.90305e-16)
(0.022665 2.61234e-08 -1.10206e-16)
(0.0226647 7.22482e-09 -3.12175e-16)
(0.0226646 8.56212e-10 -1.07688e-16)
(0.0226646 -1.5886e-09 -8.31816e-17)
(0.0226647 -3.17171e-09 -3.07551e-16)
(0.0226647 -2.92623e-09 -4.1689e-17)
(0.0226647 -2.47948e-09 -2.94881e-16)
(0.0226647 -1.88907e-09 -4.13846e-16)
(0.0226648 -1.58519e-09 -1.47636e-16)
(0.0226648 -8.71174e-10 -2.96238e-16)
(0.0226648 -1.01725e-09 -5.97853e-17)
(0.0226647 1.31245e-09 -2.23717e-16)
(0.0226648 1.12307e-10 -3.52097e-16)
(0.0226646 1.28047e-08 -1.20568e-16)
(0.0226647 1.49438e-09 -2.55248e-16)
(0.0226643 9.27006e-08 -1.53405e-17)
(0.0319877 1.706e-07 -2.42854e-17)
(0.0319868 -4.68761e-08 -1.30671e-16)
(0.0319875 -7.33678e-08 -9.48165e-17)
(0.031988 -5.01361e-08 -7.82243e-16)
(0.0319884 -3.80619e-08 -6.80339e-16)
(0.0319887 -2.53448e-08 -5.58135e-16)
(0.0319889 -1.68066e-08 -5.65639e-16)
(0.031989 -1.11661e-08 -3.89739e-16)
(0.0319891 -7.41493e-09 -4.63016e-16)
(0.0319892 -5.11979e-09 -5.24448e-16)
(0.0319893 -3.77306e-09 -3.28538e-16)
(0.0319893 -3.04635e-09 -5.03518e-16)
(0.0319893 -2.72048e-09 -4.36167e-16)
(0.0319894 -2.66658e-09 -6.05646e-16)
(0.0319894 -2.81721e-09 -9.2544e-16)
(0.0319895 -3.1275e-09 -4.69435e-16)
(0.0319895 -3.55423e-09 -5.8601e-16)
(0.0319895 -4.05506e-09 -5.56414e-16)
(0.0319896 -4.59462e-09 -7.75572e-16)
(0.0319897 -5.1465e-09 -8.83818e-16)
(0.0319897 -5.68894e-09 -4.66576e-16)
(0.0319898 -6.20047e-09 -1.06738e-15)
(0.0319899 -6.66028e-09 -7.36639e-16)
(0.0319899 -7.05278e-09 -9.65296e-16)
(0.03199 -7.37343e-09 -1.35402e-15)
(0.0319901 -7.62919e-09 -4.20475e-16)
(0.0319902 -7.83418e-09 -8.94419e-16)
(0.0319903 -8.00366e-09 -6.39238e-16)
(0.0319904 -8.14803e-09 -8.93449e-16)
(0.0319905 -8.27315e-09 -1.45274e-15)
(0.0319905 -8.37872e-09 -5.46261e-16)
(0.0319906 -8.46689e-09 -8.68364e-16)
(0.0319907 -8.52991e-09 -7.39952e-16)
(0.0319908 -8.57466e-09 -1.05458e-15)
(0.0319909 -8.5628e-09 -1.39209e-15)
(0.031991 -8.5206e-09 -2.91096e-16)
(0.0319911 -8.28229e-09 -9.67242e-16)
(0.0319912 -8.01427e-09 -7.24294e-16)
(0.0319912 -7.01852e-09 -8.75344e-16)
(0.0319913 -6.26788e-09 -1.29251e-15)
(0.0319914 -2.77457e-09 -8.89133e-16)
(0.0319914 -1.36513e-09 -9.47796e-16)
(0.0319914 9.27754e-09 -6.2864e-16)
(0.0319913 1.14692e-08 -7.0192e-16)
(0.0319911 3.09276e-08 -6.3137e-16)
(0.0319907 3.894e-08 -5.50453e-16)
(0.0319905 1.24883e-08 -6.9103e-16)
(0.0319904 1.65753e-09 -4.67479e-16)
(0.0319904 -3.33954e-09 -5.21898e-16)
(0.0319904 -4.69514e-09 -4.63277e-16)
(0.0319904 -8.42414e-09 -4.23514e-16)
(0.0319905 -8.48252e-09 -6.06639e-16)
(0.0319906 -6.94773e-09 -3.63436e-16)
(0.0319907 -5.2356e-09 -4.75591e-16)
(0.0319907 -3.58963e-09 -2.25804e-16)
(0.0319907 -2.37421e-09 -2.22595e-16)
(0.0319908 -1.67694e-09 -4.03181e-16)
(0.0319908 -1.495e-09 -1.97061e-16)
(0.0319908 -1.77473e-09 -3.18023e-16)
(0.0319908 -2.41846e-09 5.50081e-17)
(0.0319909 -3.30879e-09 -3.87642e-17)
(0.0319909 -4.32389e-09 -3.10466e-16)
(0.031991 -5.35153e-09 -1.2758e-16)
(0.031991 -6.29943e-09 -2.44248e-16)
(0.0319911 -7.09989e-09 -3.11968e-17)
(0.0319912 -7.71064e-09 -1.49392e-17)
(0.0319913 -8.11193e-09 -2.21517e-16)
(0.0319914 -8.30209e-09 -6.71286e-17)
(0.0319915 -8.29267e-09 -2.06929e-16)
(0.0319916 -8.10354e-09 1.0988e-16)
(0.0319917 -7.75938e-09 7.66654e-17)
(0.0319917 -7.28688e-09 -1.83567e-16)
(0.0319918 -6.71249e-09 -8.98962e-18)
(0.0319919 -6.06167e-09 -1.56722e-16)
(0.0319919 -5.35741e-09 1.27125e-16)
(0.031992 -4.62058e-09 7.0548e-17)
(0.031992 -3.8678e-09 -1.31594e-16)
(0.0319921 -3.11495e-09 1.88096e-17)
(0.0319921 -2.36756e-09 -1.27896e-16)
(0.0319921 -1.6411e-09 1.22621e-16)
(0.0319921 -9.09566e-10 -3.90108e-17)
(0.0319921 -2.18332e-10 1.58573e-16)
(0.0319921 5.76171e-10 8.32658e-17)
(0.0319921 1.26784e-09 -2.35558e-16)
(0.0319921 2.32613e-09 -1.2073e-16)
(0.0319921 3.07405e-09 -3.17691e-16)
(0.031992 3.91971e-09 -1.62028e-16)
(0.031992 3.00583e-09 -1.51776e-16)
(0.031992 1.39782e-09 -3.90055e-16)
(0.0319919 3.53137e-10 -2.10341e-16)
(0.0319919 -9.01142e-10 -3.49363e-16)
(0.0319919 -4.44961e-10 -1.90327e-16)
(0.0319919 1.75637e-10 -1.1194e-16)
(0.0319919 6.05352e-10 -3.3423e-16)
(0.0319919 9.37013e-10 -2.10608e-16)
(0.0319919 1.32945e-09 -3.72715e-16)
(0.0319919 1.69353e-09 -1.6546e-16)
(0.0319918 2.78173e-09 -1.39041e-16)
(0.0319918 3.65243e-09 -4.05561e-16)
(0.0319917 7.28041e-09 -1.55162e-16)
(0.0319916 8.87502e-09 -3.3592e-16)
(0.0319915 1.95476e-08 -1.47276e-16)
(0.0319913 2.19758e-08 -9.91986e-17)
(0.031991 4.04685e-08 -3.79672e-16)
(0.0319905 4.88875e-08 -2.41586e-16)
(0.0319901 1.77596e-08 -3.79213e-16)
(0.03199 4.39658e-09 -2.18375e-16)
(0.03199 -1.24782e-09 -1.31046e-16)
(0.03199 -4.56071e-09 -4.02385e-16)
(0.03199 -4.64292e-09 -1.37794e-16)
(0.03199 -4.00832e-09 -3.83451e-16)
(0.03199 -3.14905e-09 -4.93848e-16)
(0.0319901 -2.53113e-09 -1.56934e-16)
(0.0319901 -1.59643e-09 -3.63204e-16)
(0.0319901 -1.4032e-09 -1.53953e-16)
(0.03199 1.76955e-09 -2.93445e-16)
(0.0319901 1.34799e-09 -4.1111e-16)
(0.0319899 2.08168e-08 -1.16916e-16)
(0.03199 7.19585e-09 -3.14483e-16)
(0.0319895 1.56401e-07 -1.20368e-16)
(0.0412687 2.50099e-07 -3.20566e-17)
(0.0412676 -4.42194e-08 -1.97281e-16)
(0.0412681 -9.93506e-08 -1.47488e-16)
(0.0412686 -7.591e-08 -6.45714e-16)
(0.041269 -5.86902e-08 -5.58181e-16)
(0.0412693 -4.0389e-08 -6.83884e-16)
(0.0412696 -2.74527e-08 -5.29472e-16)
(0.0412697 -1.87018e-08 -3.8866e-16)
(0.0412699 -1.28384e-08 -7.48863e-16)
(0.0412699 -9.19125e-09 -5.08026e-16)
(0.04127 -7.02626e-09 -3.11244e-16)
(0.0412701 -5.83703e-09 -7.17918e-16)
(0.0412701 -5.28191e-09 -5.52519e-16)
(0.0412702 -5.15935e-09 -8.64853e-16)
(0.0412703 -5.36508e-09 -9.21604e-16)
(0.0412703 -5.83167e-09 -5.36513e-16)
(0.0412704 -6.49354e-09 -8.31401e-16)
(0.0412704 -7.28301e-09 -7.06263e-16)
(0.0412705 -8.14062e-09 -1.084e-15)
(0.0412706 -9.01986e-09 -1.08266e-15)
(0.0412707 -9.88245e-09 -5.40405e-16)
(0.0412707 -1.06919e-08 -9.29057e-16)
(0.0412708 -1.14142e-08 -8.22983e-16)
(0.0412709 -1.20249e-08 -7.30724e-16)
(0.041271 -1.25172e-08 -1.12415e-15)
(0.0412711 -1.29028e-08 -5.73409e-16)
(0.0412713 -1.32044e-08 -6.72139e-16)
(0.0412714 -1.34459e-08 -7.65808e-16)
(0.0412715 -1.36443e-08 -8.28943e-16)
(0.0412716 -1.38083e-08 -1.27265e-15)
(0.0412717 -1.39394e-08 -7.23432e-16)
(0.0412718 -1.40392e-08 -8.11738e-16)
(0.0412719 -1.41012e-08 -8.93127e-16)
(0.041272 -1.41279e-08 -8.6495e-16)
(0.0412721 -1.40766e-08 -1.18291e-15)
(0.0412722 -1.39586e-08 -6.19909e-16)
(0.0412723 -1.35761e-08 -7.49068e-16)
(0.0412724 -1.30803e-08 -8.85818e-16)
(0.0412725 -1.1601e-08 -8.43537e-16)
(0.0412726 -1.02544e-08 -1.09706e-15)
(0.0412727 -5.16059e-09 -1.03854e-15)
(0.0412727 -2.43846e-09 -9.48778e-16)
(0.0412727 1.3081e-08 -7.28118e-16)
(0.0412726 1.77329e-08 -9.43437e-16)
(0.0412725 4.67146e-08 -7.82205e-16)
(0.0412721 5.96448e-08 -7.00774e-16)
(0.0412717 2.30295e-08 -6.06346e-16)
(0.0412716 5.33031e-09 -5.19568e-16)
(0.0412716 -3.48938e-09 -6.97416e-16)
(0.0412716 -6.34179e-09 -5.64221e-16)
(0.0412716 -1.21359e-08 -5.37866e-16)
(0.0412717 -1.27284e-08 -5.55034e-16)
(0.0412718 -1.07689e-08 -4.25276e-16)
(0.0412718 -8.30282e-09 -3.56418e-16)
(0.0412719 -5.89239e-09 -4.22767e-16)
(0.0412719 -4.1117e-09 -3.31163e-16)
(0.041272 -3.13343e-09 -3.01716e-16)
(0.041272 -2.96634e-09 -2.04062e-16)
(0.041272 -3.52403e-09 -1.41396e-16)
(0.0412721 -4.64802e-09 2.39938e-17)
(0.0412721 -6.14671e-09 -1.06466e-16)
(0.0412722 -7.82286e-09 -1.52951e-16)
(0.0412723 -9.49647e-09 -1.08882e-16)
(0.0412724 -1.10209e-08 -4.03568e-17)
(0.0412725 -1.22899e-08 4.32853e-18)
(0.0412726 -1.32385e-08 -7.49607e-17)
(0.0412727 -1.3838e-08 -4.75166e-17)
(0.0412728 -1.4088e-08 -2.68026e-17)
(0.0412729 -1.40097e-08 3.41936e-18)
(0.041273 -1.36368e-08 -2.25883e-17)
(0.0412731 -1.30108e-08 2.98514e-17)
(0.0412732 -1.21759e-08 -1.94065e-17)
(0.0412733 -1.11761e-08 3.47512e-17)
(0.0412734 -1.00531e-08 6.49862e-17)
(0.0412735 -8.84516e-09 1.4351e-16)
(0.0412735 -7.58618e-09 4.21725e-17)
(0.0412736 -6.30428e-09 8.43896e-17)
(0.0412736 -5.02425e-09 8.41239e-17)
(0.0412737 -3.75828e-09 9.29503e-17)
(0.0412737 -2.52654e-09 1.23108e-16)
(0.0412737 -1.29873e-09 2.81725e-16)
(0.0412737 -1.28294e-10 -5.1988e-18)
(0.0412737 1.17331e-09 5.944e-17)
(0.0412737 2.3464e-09 4.85967e-17)
(0.0412737 4.02192e-09 -1.73734e-16)
(0.0412736 5.2944e-09 -3.98859e-18)
(0.0412736 6.6489e-09 -3.75908e-16)
(0.0412735 5.44886e-09 -2.34484e-16)
(0.0412735 3.10712e-09 -1.45393e-16)
(0.0412734 1.42245e-09 -2.82865e-16)
(0.0412734 -5.01226e-10 -1.17685e-16)
(0.0412734 1.40795e-11 -3.58036e-16)
(0.0412734 9.17459e-10 -1.81512e-16)
(0.0412734 1.61627e-09 -9.71998e-17)
(0.0412733 2.19452e-09 -3.88146e-16)
(0.0412733 2.84846e-09 -9.20963e-17)
(0.0412733 3.53222e-09 -2.41471e-16)
(0.0412732 5.19953e-09 -1.9654e-16)
(0.0412732 6.77028e-09 -1.92398e-16)
(0.0412731 1.21157e-08 -2.07527e-16)
(0.041273 1.51357e-08 -1.1184e-16)
(0.0412728 3.07487e-08 -3.0853e-16)
(0.0412726 3.56974e-08 -1.27351e-16)
(0.0412723 6.33269e-08 -1.67084e-16)
(0.0412717 7.66071e-08 -2.76402e-16)
(0.0412713 3.31496e-08 -1.02255e-16)
(0.0412711 1.13145e-08 -2.67738e-16)
(0.041271 9.91699e-10 -1.93613e-16)
(0.0412709 -4.83768e-09 -1.92136e-16)
(0.0412709 -5.73859e-09 -2.87665e-16)
(0.0412709 -5.16856e-09 -1.78193e-16)
(0.041271 -4.16168e-09 -2.06041e-16)
(0.041271 -3.31093e-09 -9.57616e-17)
(0.041271 -2.20962e-09 -1.32903e-16)
(0.041271 -1.71814e-09 -1.90283e-16)
(0.0412709 2.30452e-09 -6.93893e-17)
(0.041271 2.8735e-09 -1.12141e-16)
(0.0412708 2.93455e-08 -4.44633e-17)
(0.0412709 1.54817e-08 -6.81465e-17)
(0.0412703 2.21956e-07 -1.7764e-16)
(0.050155 3.28286e-07 -1.25049e-17)
(0.0501539 -3.13008e-08 -4.41108e-16)
(0.0501541 -1.1696e-07 -1.93112e-16)
(0.0501545 -9.99681e-08 -3.5312e-16)
(0.0501549 -8.00181e-08 -4.25205e-16)
(0.0501552 -5.69975e-08 -4.98015e-16)
(0.0501554 -3.98258e-08 -4.53689e-16)
(0.0501556 -2.78516e-08 -3.68342e-16)
(0.0501558 -1.97189e-08 -4.90159e-16)
(0.0501559 -1.45688e-08 -4.2785e-16)
(0.050156 -1.14642e-08 -2.79307e-16)
(0.0501561 -9.72276e-09 -7.25241e-16)
(0.0501562 -8.8748e-09 -6.18729e-16)
(0.0501562 -8.64108e-09 -8.78849e-16)
(0.0501563 -8.87791e-09 -9.85569e-16)
(0.0501564 -9.49512e-09 -5.43066e-16)
(0.0501564 -1.04041e-08 -8.19643e-16)
(0.0501565 -1.15091e-08 -8.05106e-16)
(0.0501566 -1.27217e-08 -1.16326e-15)
(0.0501567 -1.39698e-08 -1.18551e-15)
(0.0501568 -1.51937e-08 -9.1175e-16)
(0.0501569 -1.63381e-08 -9.16824e-16)
(0.050157 -1.73532e-08 -8.61049e-16)
(0.0501571 -1.82045e-08 -9.32958e-16)
(0.0501572 -1.88828e-08 -1.0644e-15)
(0.0501573 -1.94047e-08 -8.40251e-16)
(0.0501575 -1.98029e-08 -9.123e-16)
(0.0501576 -2.0111e-08 -9.20687e-16)
(0.0501577 -2.0353e-08 -1.05199e-15)
(0.0501578 -2.05414e-08 -1.18318e-15)
(0.050158 -2.06796e-08 -9.45883e-16)
(0.0501581 -2.07699e-08 -1.08928e-15)
(0.0501582 -2.08063e-08 -1.06477e-15)
(0.0501583 -2.07889e-08 -1.1127e-15)
(0.0501585 -2.06675e-08 -1.15584e-15)
(0.0501586 -2.04429e-08 -9.03302e-16)
(0.0501587 -1.98755e-08 -1.07099e-15)
(0.0501588 -1.91112e-08 -1.06716e-15)
(0.0501589 -1.70864e-08 -1.0968e-15)
(0.050159 -1.50675e-08 -1.12872e-15)
(0.0501591 -8.26473e-09 -1.12393e-15)
(0.0501592 -4.01396e-09 -7.98479e-16)
(0.0501591 1.66018e-08 -7.91127e-16)
(0.0501591 2.42927e-08 -7.55831e-16)
(0.0501589 6.33817e-08 -8.57069e-16)
(0.0501585 8.20138e-08 -8.30474e-16)
(0.0501581 3.6102e-08 -4.77395e-16)
(0.050158 1.12158e-08 -5.39694e-16)
(0.0501579 -2.26825e-09 -5.00826e-16)
(0.0501579 -7.20218e-09 -6.06316e-16)
(0.0501579 -1.54469e-08 -6.40157e-16)
(0.050158 -1.69004e-08 -5.1666e-16)
(0.0501581 -1.4778e-08 -4.59987e-16)
(0.0501581 -1.16895e-08 -2.86299e-16)
(0.0501582 -8.59199e-09 -2.69423e-16)
(0.0501582 -6.31069e-09 -4.27947e-16)
(0.0501583 -5.1287e-09 -2.4028e-16)
(0.0501583 -5.07615e-09 -1.94345e-16)
(0.0501583 -6.03051e-09 -4.43762e-17)
(0.0501584 -7.76337e-09 4.69701e-17)
(0.0501585 -9.99835e-09 -1.94613e-16)
(0.0501586 -1.24528e-08 5.00069e-17)
(0.0501587 -1.48714e-08 -7.29621e-17)
(0.0501588 -1.7048e-08 5.73674e-17)
(0.0501589 -1.88351e-08 4.2972e-17)
(0.050159 -2.01443e-08 -1.19537e-16)
(0.0501591 -2.09382e-08 1.77882e-16)
(0.0501593 -2.12203e-08 2.48853e-17)
(0.0501594 -2.1023e-08 1.18539e-16)
(0.0501595 -2.03972e-08 1.64099e-16)
(0.0501597 -1.94041e-08 -2.11391e-17)
(0.0501598 -1.81085e-08 2.26573e-16)
(0.0501599 -1.65749e-08 8.66093e-17)
(0.05016 -1.48641e-08 3.4168e-16)
(0.0501601 -1.30321e-08 2.21104e-16)
(0.0501601 -1.11283e-08 -8.2524e-20)
(0.0501602 -9.19425e-09 3.15052e-16)
(0.0501602 -7.26555e-09 1.65707e-16)
(0.0501603 -5.36194e-09 3.93103e-16)
(0.0501603 -3.50988e-09 1.71487e-16)
(0.0501603 -1.67474e-09 7.08726e-16)
(0.0501603 8.17645e-11 1.39213e-16)
(0.0501603 1.99354e-09 6.38892e-17)
(0.0501603 3.75047e-09 3.15135e-16)
(0.0501602 6.1435e-09 -2.73832e-16)
(0.0501602 8.0485e-09 2.95954e-16)
(0.0501601 1.00095e-08 -1.9108e-16)
(0.0501601 8.60805e-09 -2.47452e-16)
(0.05016 5.55878e-09 8.41731e-17)
(0.05016 3.18331e-09 -3.28152e-16)
(0.05016 5.21634e-10 3.02853e-16)
(0.0501599 1.02463e-09 -2.2084e-16)
(0.0501599 2.18402e-09 -1.80584e-16)
(0.0501599 3.18602e-09 1.09469e-16)
(0.0501598 4.06641e-09 -3.93122e-16)
(0.0501598 5.0587e-09 1.73405e-16)
(0.0501598 6.14598e-09 -2.10425e-16)
(0.0501597 8.4979e-09 -2.16042e-16)
(0.0501596 1.08885e-08 -5.07503e-18)
(0.0501595 1.80944e-08 -3.9305e-16)
(0.0501594 2.27808e-08 1.20614e-16)
(0.0501592 4.35609e-08 -1.70398e-16)
(0.050159 5.15976e-08 -1.28197e-16)
(0.0501586 8.89259e-08 1.49037e-17)
(0.0501581 1.0776e-07 -3.1846e-16)
(0.0501575 5.27455e-08 1.31989e-16)
(0.0501573 2.18913e-08 -2.54119e-16)
(0.0501571 5.74283e-09 -2.2148e-16)
(0.0501571 -3.40291e-09 6.26573e-18)
(0.050157 -5.70635e-09 -3.14164e-16)
(0.050157 -5.59011e-09 1.31429e-17)
(0.050157 -4.66175e-09 5.48891e-17)
(0.0501571 -3.76542e-09 -7.60025e-18)
(0.050157 -2.59098e-09 4.95076e-17)
(0.0501571 -1.96007e-09 -2.42243e-16)
(0.050157 2.91187e-09 1.36301e-16)
(0.0501571 4.41273e-09 1.46721e-16)
(0.0501569 3.78363e-08 5.10559e-17)
(0.0501569 2.53613e-08 1.43331e-16)
(0.0501564 2.84094e-07 -1.56532e-16)
(0.058265 4.00126e-07 9.37831e-17)
(0.0582639 -1.075e-08 -1.8158e-16)
(0.058264 -1.24756e-07 -1.84189e-16)
(0.0582642 -1.19016e-07 -2.33891e-16)
(0.0582645 -9.96156e-08 -3.16577e-16)
(0.0582648 -7.36443e-08 -3.82984e-16)
(0.058265 -5.30312e-08 -3.67271e-16)
(0.0582652 -3.81177e-08 -3.2452e-16)
(0.0582654 -2.77798e-08 -3.62102e-16)
(0.0582655 -2.10917e-08 -3.50251e-16)
(0.0582656 -1.69765e-08 -2.33233e-16)
(0.0582657 -1.46066e-08 -8.39922e-16)
(0.0582658 -1.33974e-08 -6.59319e-16)
(0.0582659 -1.29968e-08 -9.50024e-16)
(0.058266 -1.32224e-08 -1.00656e-15)
(0.0582661 -1.39613e-08 -3.98214e-16)
(0.0582661 -1.5102e-08 -9.0752e-16)
(0.0582662 -1.65198e-08 -8.76659e-16)
(0.0582663 -1.80947e-08 -1.2615e-15)
(0.0582664 -1.97255e-08 -1.23462e-15)
(0.0582665 -2.1327e-08 -1.14881e-15)
(0.0582666 -2.28223e-08 -9.5968e-16)
(0.0582668 -2.41438e-08 -8.95112e-16)
(0.0582669 -2.52454e-08 -1.14523e-15)
(0.058267 -2.61154e-08 -1.01355e-15)
(0.0582671 -2.67757e-08 -9.94317e-16)
(0.0582673 -2.72686e-08 -1.15143e-15)
(0.0582674 -2.76377e-08 -1.06054e-15)
(0.0582675 -2.79143e-08 -1.39167e-15)
(0.0582677 -2.81145e-08 -1.11041e-15)
(0.0582678 -2.82441e-08 -1.08226e-15)
(0.0582679 -2.83067e-08 -1.41454e-15)
(0.0582681 -2.82969e-08 -1.21879e-15)
(0.0582682 -2.82139e-08 -1.36166e-15)
(0.0582683 -2.79985e-08 -1.08631e-15)
(0.0582685 -2.76445e-08 -1.06249e-15)
(0.0582686 -2.68661e-08 -1.46239e-15)
(0.0582687 -2.58108e-08 -1.22531e-15)
(0.0582688 -2.32149e-08 -1.34128e-15)
(0.0582689 -2.04956e-08 -1.16168e-15)
(0.058269 -1.19712e-08 -1.17454e-15)
(0.0582691 -6.10268e-09 -8.77729e-16)
(0.0582691 1.95855e-08 -8.38601e-16)
(0.058269 3.06227e-08 -8.97212e-16)
(0.0582688 7.99475e-08 -8.9982e-16)
(0.0582684 1.04817e-07 -9.19083e-16)
(0.0582681 5.08567e-08 -5.40907e-16)
(0.0582679 1.91217e-08 -5.88007e-16)
(0.0582678 6.12522e-10 -6.22944e-16)
(0.0582678 -6.85456e-09 -6.5464e-16)
(0.0582678 -1.78767e-08 -7.2317e-16)
(0.0582678 -2.05292e-08 -4.4403e-16)
(0.0582679 -1.8575e-08 -4.87071e-16)
(0.0582679 -1.51141e-08 -1.9312e-16)
(0.058268 -1.15189e-08 -2.30738e-16)
(0.058268 -8.88723e-09 -5.41582e-16)
(0.0582681 -7.62941e-09 -1.41646e-16)
(0.0582681 -7.80524e-09 -1.86186e-16)
(0.0582682 -9.25687e-09 9.04246e-17)
(0.0582683 -1.16843e-08 5.90097e-17)
(0.0582683 -1.47246e-08 -3.11501e-16)
(0.0582684 -1.80091e-08 2.61351e-17)
(0.0582685 -2.12077e-08 -6.70446e-17)
(0.0582687 -2.40558e-08 2.08856e-16)