/*--------------------------------*- C++ -*----------------------------------*\
  =========                 |
  \\      /  F ield         | OpenFOAM: The Open Source CFD Toolbox
   \\    /   O peration     | Website:  https://openfoam.org
    \\  /    A nd           | Version:  7
     \\/     M anipulation  |
\*---------------------------------------------------------------------------*/
FoamFile
{
    version     2.0;
    format      ascii;
    class       volScalarField;
    location    "3000";
    object      k;
}
// * * * * * * * * * * * * * * * * * * * * * * * * * * * * * * * * * * * * * //

dimensions      [0 2 -2 0 0 0 0];

internalField   nonuniform List<scalar> 
3974
(
0.000164313
0.000164314
0.000164315
0.000164315
0.000164316
0.000164316
0.000164316
0.000164316
0.000164316
0.000164316
0.000164316
0.000164316
0.000164317
0.000164317
0.000164317
0.000164317
0.000164317
0.000164317
0.000164317
0.000164316
0.000164316
0.000164316
0.000164316
0.000164316
0.000164316
0.000164315
0.000164315
0.000164315
0.000164315
0.000164315
0.000164314
0.000164314
0.000164314
0.000164313
0.000164313
0.000164312
0.000164312
0.000164312
0.000163711
0.000163712
0.000163716
0.000163719
0.00016372
0.000163721
0.000163721
0.000163722
0.000163722
0.000163723
0.000163723
0.000163723
0.000163723
0.000163724
0.000163724
0.000163724
0.000163724
0.000163724
0.000163724
0.000163724
0.000163724
0.000163724
0.000163724
0.000163724
0.000163724
0.000163724
0.000163723
0.000163723
0.000163723
0.000163723
0.000163723
0.000163722
0.000163722
0.000163722
0.000163721
0.000163721
0.000163721
0.00016372
0.00016372
0.00016372
0.000163713
0.000163711
0.000163015
0.000163014
0.000163018
0.00016302
0.000163023
0.000163026
0.000163027
0.000163029
0.00016303
0.00016303
0.000163031
0.000163032
0.000163032
0.000163032
0.000163033
0.000163033
0.000163033
0.000163033
0.000163034
0.000163034
0.000163034
0.000163034
0.000163034
0.000163034
0.000163034
0.000163034
0.000163034
0.000163034
0.000163034
0.000163033
0.000163033
0.000163033
0.000163033
0.000163033
0.000163032
0.000163032
0.000163032
0.000163031
0.000163031
0.000163031
0.00016303
0.00016303
0.000163027
0.000163024
0.000163016
0.000163013
0.000163012
0.000163011
0.000163011
0.00016301
0.00016301
0.000163009
0.000163009
0.000163008
0.000163008
0.000163008
0.000163008
0.000163007
0.000163008
0.000162233
0.000162232
0.000162234
0.000162236
0.000162239
0.000162241
0.000162243
0.000162244
0.000162245
0.000162246
0.000162247
0.000162248
0.000162248
0.000162249
0.000162249
0.00016225
0.00016225
0.00016225
0.000162251
0.000162251
0.000162251
0.000162251
0.000162251
0.000162251
0.000162251
0.000162251
0.000162251
0.000162251
0.000162251
0.000162251
0.000162251
0.00016225
0.00016225
0.00016225
0.00016225
0.000162249
0.000162249
0.000162249
0.000162248
0.000162248
0.000162247
0.000162247
0.000162246
0.000162244
0.000162239
0.000162235
0.000162233
0.000162232
0.000162231
0.00016223
0.00016223
0.000162229
0.000162229
0.000162228
0.000162228
0.000162227
0.000162227
0.000162226
0.000162227
0.000161362
0.000161361
0.000161363
0.000161364
0.000161366
0.000161368
0.00016137
0.000161372
0.000161373
0.000161374
0.000161375
0.000161376
0.000161376
0.000161377
0.000161378
0.000161378
0.000161378
0.000161379
0.000161379
0.000161379
0.00016138
0.00016138
0.00016138
0.00016138
0.00016138
0.00016138
0.00016138
0.00016138
0.00016138
0.00016138
0.00016138
0.000161379
0.000161379
0.000161379
0.000161379
0.000161378
0.000161378
0.000161378
0.000161377
0.000161377
0.000161377
0.000161376
0.000161375
0.000161374
0.000161371
0.000161368
0.000161366
0.000161364
0.000161363
0.000161362
0.000161361
0.00016136
0.00016136
0.000161359
0.000161358
0.000161358
0.000161357
0.000161357
0.000161357
0.000160407
0.000160406
0.000160407
0.000160408
0.00016041
0.000160411
0.000160413
0.000160415
0.000160416
0.000160417
0.000160418
0.000160419
0.00016042
0.000160421
0.000160421
0.000160422
0.000160422
0.000160423
0.000160423
0.000160423
0.000160424
0.000160424
0.000160424
0.000160424
0.000160424
0.000160424
0.000160424
0.000160424
0.000160424
0.000160424
0.000160424
0.000160424
0.000160424
0.000160423
0.000160423
0.000160423
0.000160423
0.000160422
0.000160422
0.000160421
0.000160421
0.000160421
0.00016042
0.000160419
0.000160417
0.000160415
0.000160413
0.000160411
0.000160409
0.000160408
0.000160407
0.000160406
0.000160406
0.000160405
0.000160404
0.000160404
0.000160403
0.000160402
0.000160403
0.000159371
0.00015937
0.00015937
0.000159371
0.000159372
0.000159374
0.000159375
0.000159377
0.000159378
0.00015938
0.000159381
0.000159382
0.000159382
0.000159383
0.000159384
0.000159385
0.000159385
0.000159386
0.000159386
0.000159386
0.000159387
0.000159387
0.000159387
0.000159387
0.000159387
0.000159387
0.000159388
0.000159388
0.000159387
0.000159387
0.000159387
0.000159387
0.000159387
0.000159387
0.000159386
0.000159386
0.000159386
0.000159386
0.000159385
0.000159385
0.000159384
0.000159384
0.000159383
0.000159383
0.000159381
0.00015938
0.000159378
0.000159376
0.000159375
0.000159373
0.000159372
0.000159371
0.000159371
0.00015937
0.000159369
0.000159368
0.000159368
0.000159367
0.000159368
0.000158257
0.000158255
0.000158256
0.000158256
0.000158257
0.000158259
0.00015826
0.000158261
0.000158263
0.000158264
0.000158265
0.000158266
0.000158267
0.000158268
0.000158269
0.000158269
0.00015827
0.00015827
0.000158271
0.000158271
0.000158272
0.000158272
0.000158272
0.000158272
0.000158273
0.000158273
0.000158273
0.000158273
0.000158273
0.000158273
0.000158273
0.000158272
0.000158272
0.000158272
0.000158272
0.000158272
0.000158271
0.000158271
0.000158271
0.00015827
0.00015827
0.000158269
0.000158269
0.000158268
0.000158267
0.000158266
0.000158264
0.000158263
0.000158262
0.00015826
0.000158259
0.000158258
0.000158257
0.000158256
0.000158256
0.000158255
0.000158254
0.000158253
0.000158254
0.000157067
0.000157066
0.000157066
0.000157067
0.000157068
0.000157069
0.00015707
0.000157071
0.000157072
0.000157074
0.000157075
0.000157076
0.000157077
0.000157078
0.000157078
0.000157079
0.00015708
0.00015708
0.000157081
0.000157081
0.000157082
0.000157082
0.000157082
0.000157082
0.000157083
0.000157083
0.000157083
0.000157083
0.000157083
0.000157083
0.000157083
0.000157083
0.000157083
0.000157082
0.000157082
0.000157082
0.000157082
0.000157081
0.000157081
0.000157081
0.00015708
0.00015708
0.000157079
0.000157079
0.000157078
0.000157077
0.000157076
0.000157074
0.000157073
0.000157072
0.000157071
0.00015707
0.000157069
0.000157068
0.000157067
0.000157066
0.000157066
0.000157065
0.000157065
0.000155805
0.000155804
0.000155804
0.000155805
0.000155806
0.000155807
0.000155808
0.000155809
0.00015581
0.000155811
0.000155812
0.000155813
0.000155814
0.000155815
0.000155816
0.000155817
0.000155817
0.000155818
0.000155818
0.000155819
0.000155819
0.00015582
0.00015582
0.00015582
0.000155821
0.000155821
0.000155821
0.000155821
0.000155821
0.000155821
0.000155821
0.000155821
0.000155821
0.00015582
0.00015582
0.00015582
0.00015582
0.000155819
0.000155819
0.000155819
0.000155818
0.000155818
0.000155818
0.000155817
0.000155816
0.000155816
0.000155815
0.000155813
0.000155812
0.000155811
0.00015581
0.000155809
0.000155808
0.000155807
0.000155806
0.000155805
0.000155805
0.000155804
0.000155804
0.000154474
0.000154473
0.000154473
0.000154473
0.000154474
0.000154475
0.000154476
0.000154477
0.000154478
0.000154479
0.00015448
0.000154481
0.000154482
0.000154483
0.000154484
0.000154485
0.000154486
0.000154486
0.000154487
0.000154487
0.000154488
0.000154488
0.000154488
0.000154489
0.000154489
0.000154489
0.000154489
0.000154489
0.000154489
0.000154489
0.000154489
0.000154489
0.000154489
0.000154489
0.000154489
0.000154489
0.000154488
0.000154488
0.000154488
0.000154487
0.000154487
0.000154487
0.000154486
0.000154486
0.000154485
0.000154484
0.000154484
0.000154483
0.000154481
0.00015448
0.000154479
0.000154478
0.000154477
0.000154476
0.000154476
0.000154475
0.000154474
0.000154473
0.000154474
0.000153076
0.000153074
0.000153074
0.000153075
0.000153076
0.000153077
0.000153077
0.000153078
0.000153079
0.000153081
0.000153082
0.000153083
0.000153083
0.000153084
0.000153085
0.000153086
0.000153087
0.000153087
0.000153088
0.000153088
0.000153089
0.000153089
0.00015309
0.00015309
0.00015309
0.00015309
0.000153091
0.000153091
0.000153091
0.000153091
0.000153091
0.000153091
0.000153091
0.00015309
0.00015309
0.00015309
0.00015309
0.00015309
0.000153089
0.000153089
0.000153089
0.000153088
0.000153088
0.000153087
0.000153087
0.000153086
0.000153085
0.000153085
0.000153084
0.000153083
0.000153082
0.000153081
0.00015308
0.000153079
0.000153078
0.000153077
0.000153076
0.000153075
0.000153076
0.000151613
0.000151611
0.000151612
0.000151612
0.000151613
0.000151614
0.000151615
0.000151615
0.000151616
0.000151617
0.000151618
0.000151619
0.00015162
0.000151621
0.000151622
0.000151623
0.000151623
0.000151624
0.000151625
0.000151625
0.000151626
0.000151626
0.000151626
0.000151627
0.000151627
0.000151627
0.000151628
0.000151628
0.000151628
0.000151628
0.000151628
0.000151628
0.000151628
0.000151628
0.000151627
0.000151627
0.000151627
0.000151627
0.000151626
0.000151626
0.000151626
0.000151625
0.000151625
0.000151625
0.000151624
0.000151624
0.000151623
0.000151622
0.000151621
0.00015162
0.000151619
0.000151619
0.000151618
0.000151617
0.000151616
0.000151615
0.000151614
0.000151613
0.000151614
0.000150088
0.000150087
0.000150087
0.000150088
0.000150088
0.000150089
0.00015009
0.000150091
0.000150092
0.000150093
0.000150094
0.000150094
0.000150095
0.000150096
0.000150097
0.000150098
0.000150099
0.000150099
0.0001501
0.0001501
0.000150101
0.000150101
0.000150102
0.000150102
0.000150102
0.000150102
0.000150103
0.000150103
0.000150103
0.000150103
0.000150103
0.000150103
0.000150103
0.000150103
0.000150103
0.000150102
0.000150102
0.000150102
0.000150102
0.000150102
0.000150101
0.000150101
0.0001501
0.0001501
0.0001501
0.000150099
0.000150098
0.000150098
0.000150097
0.000150096
0.000150095
0.000150095
0.000150094
0.000150093
0.000150092
0.000150091
0.00015009
0.000150089
0.00015009
0.000148504
0.000148503
0.000148503
0.000148504
0.000148505
0.000148505
0.000148506
0.000148507
0.000148508
0.000148509
0.00014851
0.00014851
0.000148511
0.000148512
0.000148513
0.000148514
0.000148514
0.000148515
0.000148516
0.000148516
0.000148517
0.000148517
0.000148517
0.000148518
0.000148518
0.000148518
0.000148519
0.000148519
0.000148519
0.000148519
0.000148519
0.000148519
0.000148519
0.000148519
0.000148519
0.000148519
0.000148518
0.000148518
0.000148518
0.000148518
0.000148517
0.000148517
0.000148517
0.000148516
0.000148516
0.000148515
0.000148515
0.000148514
0.000148514
0.000148513
0.000148512
0.000148511
0.00014851
0.00014851
0.000148509
0.000148508
0.000148507
0.000148506
0.000148507
0.000146864
0.000146862
0.000146863
0.000146864
0.000146864
0.000146865
0.000146866
0.000146867
0.000146867
0.000146868
0.000146869
0.00014687
0.000146871
0.000146872
0.000146873
0.000146873
0.000146874
0.000146875
0.000146875
0.000146876
0.000146876
0.000146877
0.000146877
0.000146877
0.000146878
0.000146878
0.000146878
0.000146878
0.000146879
0.000146879
0.000146879
0.000146879
0.000146879
0.000146879
0.000146878
0.000146878
0.000146878
0.000146878
0.000146878
0.000146877
0.000146877
0.000146877
0.000146877
0.000146876
0.000146876
0.000146875
0.000146875
0.000146874
0.000146874
0.000146873
0.000146872
0.000146871
0.000146871
0.00014687
0.000146869
0.000146868
0.000146868
0.000146867
0.000146867
0.00014517
0.000145168
0.000145169
0.00014517
0.00014517
0.000145171
0.000145172
0.000145173
0.000145173
0.000145174
0.000145175
0.000145176
0.000145177
0.000145178
0.000145178
0.000145179
0.00014518
0.00014518
0.000145181
0.000145181
0.000145182
0.000145182
0.000145183
0.000145183
0.000145184
0.000145184
0.000145184
0.000145184
0.000145185
0.000145185
0.000145185
0.000145185
0.000145185
0.000145185
0.000145185
0.000145184
0.000145184
0.000145184
0.000145184
0.000145184
0.000145183
0.000145183
0.000145183
0.000145182
0.000145182
0.000145182
0.000145181
0.000145181
0.00014518
0.000145179
0.000145179
0.000145178
0.000145177
0.000145177
0.000145176
0.000145175
0.000145174
0.000145173
0.000145174
0.000143425
0.000143424
0.000143424
0.000143425
0.000143426
0.000143426
0.000143427
0.000143428
0.000143429
0.00014343
0.00014343
0.000143431
0.000143432
0.000143433
0.000143434
0.000143434
0.000143435
0.000143436
0.000143436
0.000143437
0.000143437
0.000143437
0.000143438
0.000143438
0.000143439
0.000143439
0.000143439
0.00014344
0.00014344
0.00014344
0.00014344
0.00014344
0.00014344
0.00014344
0.00014344
0.00014344
0.00014344
0.000143439
0.000143439
0.000143439
0.000143439
0.000143438
0.000143438
0.000143438
0.000143437
0.000143437
0.000143437
0.000143436
0.000143436
0.000143435
0.000143434
0.000143434
0.000143433
0.000143432
0.000143432
0.000143431
0.00014343
0.000143429
0.00014343
0.000141633
0.000141631
0.000141632
0.000141632
0.000141633
0.000141634
0.000141635
0.000141636
0.000141636
0.000141637
0.000141638
0.000141639
0.00014164
0.00014164
0.000141641
0.000141642
0.000141642
0.000141643
0.000141644
0.000141644
0.000141644
0.000141645
0.000141645
0.000141646
0.000141646
0.000141646
0.000141647
0.000141647
0.000141647
0.000141647
0.000141647
0.000141647
0.000141647
0.000141647
0.000141647
0.000141647
0.000141647
0.000141647
0.000141647
0.000141647
0.000141646
0.000141646
0.000141646
0.000141646
0.000141645
0.000141645
0.000141644
0.000141644
0.000141643
0.000141643
0.000141642
0.000141642
0.000141641
0.00014164
0.00014164
0.000141639
0.000141638
0.000141638
0.000141638
0.000139796
0.000139794
0.000139795
0.000139795
0.000139796
0.000139797
0.000139798
0.000139798
0.000139799
0.0001398
0.000139801
0.000139802
0.000139803
0.000139803
0.000139804
0.000139805
0.000139805
0.000139806
0.000139806
0.000139807
0.000139807
0.000139808
0.000139808
0.000139809
0.000139809
0.000139809
0.00013981
0.00013981
0.00013981
0.00013981
0.00013981
0.00013981
0.00013981
0.00013981
0.00013981
0.00013981
0.00013981
0.00013981
0.00013981
0.00013981
0.000139809
0.000139809
0.000139809
0.000139809
0.000139808
0.000139808
0.000139808
0.000139807
0.000139807
0.000139806
0.000139806
0.000139805
0.000139805
0.000139804
0.000139803
0.000139803
0.000139802
0.000139801
0.000139802
0.000137918
0.000137916
0.000137916
0.000137917
0.000137918
0.000137919
0.000137919
0.00013792
0.000137921
0.000137922
0.000137923
0.000137923
0.000137924
0.000137925
0.000137926
0.000137926
0.000137927
0.000137927
0.000137928
0.000137928
0.000137929
0.000137929
0.00013793
0.00013793
0.00013793
0.000137931
0.000137931
0.000137931
0.000137932
0.000137932
0.000137932
0.000137932
0.000137932
0.000137932
0.000137932
0.000137932
0.000137932
0.000137932
0.000137932
0.000137931
0.000137931
0.000137931
0.000137931
0.000137931
0.00013793
0.00013793
0.00013793
0.000137929
0.000137929
0.000137928
0.000137928
0.000137927
0.000137927
0.000137926
0.000137926
0.000137925
0.000137924
0.000137924
0.000137924
0.000136001
0.000136
0.000136
0.000136001
0.000136002
0.000136002
0.000136003
0.000136004
0.000136005
0.000136005
0.000136006
0.000136007
0.000136008
0.000136009
0.000136009
0.00013601
0.000136011
0.000136011
0.000136012
0.000136012
0.000136012
0.000136013
0.000136013
0.000136014
0.000136014
0.000136014
0.000136015
0.000136015
0.000136015
0.000136015
0.000136016
0.000136016
0.000136016
0.000136016
0.000136016
0.000136016
0.000136016
0.000136015
0.000136015
0.000136015
0.000136015
0.000136015
0.000136015
0.000136014
0.000136014
0.000136014
0.000136014
0.000136013
0.000136013
0.000136012
0.000136012
0.000136011
0.000136011
0.00013601
0.00013601
0.000136009
0.000136009
0.000136008
0.000136009
0.000134051
0.000134049
0.000134049
0.00013405
0.000134051
0.000134052
0.000134052
0.000134053
0.000134054
0.000134055
0.000134056
0.000134056
0.000134057
0.000134058
0.000134058
0.000134059
0.00013406
0.00013406
0.000134061
0.000134061
0.000134062
0.000134062
0.000134062
0.000134063
0.000134063
0.000134063
0.000134064
0.000134064
0.000134064
0.000134065
0.000134065
0.000134065
0.000134065
0.000134065
0.000134065
0.000134065
0.000134065
0.000134065
0.000134065
0.000134065
0.000134064
0.000134064
0.000134064
0.000134064
0.000134064
0.000134063
0.000134063
0.000134063
0.000134062
0.000134062
0.000134062
0.000134061
0.000134061
0.00013406
0.00013406
0.000134059
0.000134059
0.000134058
0.000134059
0.000132069
0.000132067
0.000132067
0.000132068
0.000132069
0.00013207
0.000132071
0.000132071
0.000132072
0.000132073
0.000132074
0.000132075
0.000132075
0.000132076
0.000132077
0.000132077
0.000132078
0.000132079
0.000132079
0.00013208
0.00013208
0.00013208
0.000132081
0.000132081
0.000132081
0.000132082
0.000132082
0.000132082
0.000132083
0.000132083
0.000132083
0.000132083
0.000132083
0.000132083
0.000132083
0.000132083
0.000132083
0.000132083
0.000132083
0.000132083
0.000132083
0.000132083
0.000132083
0.000132083
0.000132082
0.000132082
0.000132082
0.000132082
0.000132081
0.000132081
0.00013208
0.00013208
0.00013208
0.000132079
0.000132079
0.000132078
0.000132078
0.000132077
0.000132078
0.00013006
0.000130058
0.000130059
0.00013006
0.00013006
0.000130061
0.000130062
0.000130063
0.000130063
0.000130064
0.000130065
0.000130066
0.000130067
0.000130067
0.000130068
0.000130069
0.000130069
0.00013007
0.00013007
0.000130071
0.000130071
0.000130071
0.000130072
0.000130072
0.000130073
0.000130073
0.000130073
0.000130074
0.000130074
0.000130074
0.000130074
0.000130074
0.000130075
0.000130075
0.000130075
0.000130075
0.000130075
0.000130075
0.000130075
0.000130074
0.000130074
0.000130074
0.000130074
0.000130074
0.000130074
0.000130074
0.000130073
0.000130073
0.000130073
0.000130072
0.000130072
0.000130072
0.000130071
0.000130071
0.00013007
0.00013007
0.00013007
0.000130069
0.00013007
0.000128028
0.000128026
0.000128026
0.000128027
0.000128028
0.000128029
0.00012803
0.00012803
0.000128031
0.000128032
0.000128033
0.000128034
0.000128034
0.000128035
0.000128036
0.000128036
0.000128037
0.000128038
0.000128038
0.000128038
0.000128039
0.000128039
0.00012804
0.00012804
0.00012804
0.000128041
0.000128041
0.000128041
0.000128042
0.000128042
0.000128042
0.000128042
0.000128042
0.000128042
0.000128043
0.000128043
0.000128043
0.000128042
0.000128042
0.000128042
0.000128042
0.000128042
0.000128042
0.000128042
0.000128042
0.000128042
0.000128041
0.000128041
0.000128041
0.000128041
0.00012804
0.00012804
0.00012804
0.000128039
0.000128039
0.000128038
0.000128038
0.000128037
0.000128038
0.000125976
0.000125974
0.000125975
0.000125975
0.000125976
0.000125977
0.000125978
0.000125979
0.000125979
0.00012598
0.000125981
0.000125982
0.000125982
0.000125983
0.000125984
0.000125985
0.000125985
0.000125986
0.000125986
0.000125987
0.000125987
0.000125987
0.000125988
0.000125988
0.000125989
0.000125989
0.000125989
0.00012599
0.00012599
0.00012599
0.00012599
0.000125991
0.000125991
0.000125991
0.000125991
0.000125991
0.000125991
0.000125991
0.000125991
0.000125991
0.000125991
0.000125991
0.000125991
0.000125991
0.00012599
0.00012599
0.00012599
0.00012599
0.00012599
0.000125989
0.000125989
0.000125989
0.000125988
0.000125988
0.000125988
0.000125987
0.000125987
0.000125986
0.000125987
0.000123909
0.000123907
0.000123907
0.000123908
0.000123909
0.00012391
0.00012391
0.000123911
0.000123912
0.000123913
0.000123913
0.000123914
0.000123915
0.000123916
0.000123916
0.000123917
0.000123918
0.000123918
0.000123919
0.000123919
0.000123919
0.00012392
0.00012392
0.000123921
0.000123921
0.000123921
0.000123922
0.000123922
0.000123922
0.000123923
0.000123923
0.000123923
0.000123923
0.000123923
0.000123923
0.000123923
0.000123923
0.000123923
0.000123923
0.000123923
0.000123923
0.000123923
0.000123923
0.000123923
0.000123923
0.000123923
0.000123923
0.000123923
0.000123923
0.000123922
0.000123922
0.000123922
0.000123921
0.000123921
0.000123921
0.00012392
0.00012392
0.00012392
0.00012392
0.00012183
0.000121827
0.000121828
0.000121829
0.000121829
0.00012183
0.000121831
0.000121832
0.000121832
0.000121833
0.000121834
0.000121835
0.000121835
0.000121836
0.000121837
0.000121838
0.000121838
0.000121839
0.000121839
0.00012184
0.00012184
0.00012184
0.000121841
0.000121841
0.000121842
0.000121842
0.000121842
0.000121843
0.000121843
0.000121843
0.000121843
0.000121844
0.000121844
0.000121844
0.000121844
0.000121844
0.000121844
0.000121844
0.000121844
0.000121844
0.000121844
0.000121844
0.000121844
0.000121844
0.000121844
0.000121844
0.000121844
0.000121844
0.000121844
0.000121843
0.000121843
0.000121843
0.000121843
0.000121842
0.000121842
0.000121842
0.000121841
0.000121841
0.000121842
0.000119742
0.00011974
0.00011974
0.000119741
0.000119742
0.000119743
0.000119743
0.000119744
0.000119745
0.000119746
0.000119747
0.000119747
0.000119748
0.000119749
0.000119749
0.00011975
0.000119751
0.000119751
0.000119752
0.000119752
0.000119753
0.000119753
0.000119753
0.000119754
0.000119754
0.000119755
0.000119755
0.000119755
0.000119756
0.000119756
0.000119756
0.000119756
0.000119757
0.000119757
0.000119757
0.000119757
0.000119757
0.000119757
0.000119757
0.000119757
0.000119757
0.000119757
0.000119757
0.000119757
0.000119757
0.000119757
0.000119757
0.000119757
0.000119757
0.000119756
0.000119756
0.000119756
0.000119756
0.000119756
0.000119755
0.000119755
0.000119755
0.000119754
0.000119755
0.000117651
0.000117648
0.000117649
0.00011765
0.00011765
0.000117651
0.000117652
0.000117653
0.000117653
0.000117654
0.000117655
0.000117656
0.000117656
0.000117657
0.000117658
0.000117658
0.000117659
0.00011766
0.00011766
0.000117661
0.000117661
0.000117661
0.000117662
0.000117662
0.000117663
0.000117663
0.000117663
0.000117664
0.000117664
0.000117664
0.000117665
0.000117665
0.000117665
0.000117665
0.000117665
0.000117666
0.000117666
0.000117666
0.000117666
0.000117666
0.000117666
0.000117666
0.000117666
0.000117666
0.000117666
0.000117666
0.000117666
0.000117666
0.000117666
0.000117665
0.000117665
0.000117665
0.000117665
0.000117665
0.000117664
0.000117664
0.000117664
0.000117663
0.000117664
0.000115559
0.000115557
0.000115557
0.000115558
0.000115558
0.000115559
0.00011556
0.000115561
0.000115561
0.000115562
0.000115563
0.000115564
0.000115564
0.000115565
0.000115566
0.000115566
0.000115567
0.000115568
0.000115568
0.000115569
0.000115569
0.00011557
0.00011557
0.00011557
0.000115571
0.000115571
0.000115571
0.000115572
0.000115572
0.000115572
0.000115573
0.000115573
0.000115573
0.000115573
0.000115574
0.000115574
0.000115574
0.000115574
0.000115574
0.000115574
0.000115574
0.000115574
0.000115574
0.000115574
0.000115574
0.000115574
0.000115574
0.000115574
0.000115574
0.000115574
0.000115574
0.000115574
0.000115573
0.000115573
0.000115573
0.000115573
0.000115573
0.000115572
0.000115573
0.00011347
0.000113468
0.000113468
0.000113469
0.00011347
0.00011347
0.000113471
0.000113472
0.000113473
0.000113473
0.000113474
0.000113475
0.000113476
0.000113476
0.000113477
0.000113478
0.000113478
0.000113479
0.00011348
0.00011348
0.00011348
0.000113481
0.000113481
0.000113482
0.000113482
0.000113482
0.000113483
0.000113483
0.000113484
0.000113484
0.000113484
0.000113484
0.000113485
0.000113485
0.000113485
0.000113485
0.000113485
0.000113486
0.000113486
0.000113486
0.000113486
0.000113486
0.000113486
0.000113486
0.000113486
0.000113486
0.000113486
0.000113486
0.000113486
0.000113486
0.000113486
0.000113486
0.000113485
0.000113485
0.000113485
0.000113485
0.000113485
0.000113484
0.000113485
0.000111389
0.000111386
0.000111386
0.000111387
0.000111388
0.000111389
0.00011139
0.00011139
0.000111391
0.000111392
0.000111393
0.000111393
0.000111394
0.000111395
0.000111395
0.000111396
0.000111397
0.000111397
0.000111398
0.000111398
0.000111399
0.000111399
0.0001114
0.0001114
0.0001114
0.000111401
0.000111401
0.000111402
0.000111402
0.000111402
0.000111403
0.000111403
0.000111403
0.000111403
0.000111404
0.000111404
0.000111404
0.000111404
0.000111404
0.000111404
0.000111404
0.000111404
0.000111405
0.000111405
0.000111405
0.000111405
0.000111405
0.000111405
0.000111405
0.000111405
0.000111405
0.000111405
0.000111404
0.000111404
0.000111404
0.000111404
0.000111404
0.000111403
0.000111404
0.000109318
0.000109315
0.000109315
0.000109316
0.000109317
0.000109318
0.000109318
0.000109319
0.00010932
0.000109321
0.000109321
0.000109322
0.000109323
0.000109324
0.000109324
0.000109325
0.000109326
0.000109326
0.000109327
0.000109327
0.000109328
0.000109328
0.000109328
0.000109329
0.000109329
0.00010933
0.00010933
0.00010933
0.000109331
0.000109331
0.000109332
0.000109332
0.000109332
0.000109332
0.000109333
0.000109333
0.000109333
0.000109333
0.000109333
0.000109333
0.000109333
0.000109334
0.000109334
0.000109334
0.000109334
0.000109334
0.000109334
0.000109334
0.000109334
0.000109334
0.000109334
0.000109334
0.000109334
0.000109334
0.000109334
0.000109333
0.000109333
0.000109333
0.000109334
0.00010726
0.000107258
0.000107258
0.000107259
0.00010726
0.00010726
0.000107261
0.000107262
0.000107262
0.000107263
0.000107264
0.000107265
0.000107265
0.000107266
0.000107267
0.000107268
0.000107268
0.000107269
0.000107269
0.00010727
0.00010727
0.000107271
0.000107271
0.000107272
0.000107272
0.000107272
0.000107273
0.000107273
0.000107274
0.000107274
0.000107274
0.000107275
0.000107275
0.000107275
0.000107275
0.000107276
0.000107276
0.000107276
0.000107276
0.000107276
0.000107276
0.000107277
0.000107277
0.000107277
0.000107277
0.000107277
0.000107277
0.000107277
0.000107277
0.000107277
0.000107277
0.000107277
0.000107277
0.000107277
0.000107277
0.000107277
0.000107277
0.000107276
0.000107277
0.00010522
0.000105218
0.000105218
0.000105219
0.000105219
0.00010522
0.000105221
0.000105222
0.000105222
0.000105223
0.000105224
0.000105225
0.000105225
0.000105226
0.000105227
0.000105227
0.000105228
0.000105229
0.000105229
0.00010523
0.00010523
0.000105231
0.000105231
0.000105232
0.000105232
0.000105232
0.000105233
0.000105233
0.000105234
0.000105234
0.000105234
0.000105235
0.000105235
0.000105235
0.000105236
0.000105236
0.000105236
0.000105236
0.000105236
0.000105237
0.000105237
0.000105237
0.000105237
0.000105237
0.000105237
0.000105237
0.000105237
0.000105237
0.000105238
0.000105238
0.000105238
0.000105238
0.000105238
0.000105237
0.000105237
0.000105237
0.000105237
0.000105237
0.000105238
0.0001032
0.000103198
0.000103198
0.000103199
0.0001032
0.0001032
0.000103201
0.000103202
0.000103202
0.000103203
0.000103204
0.000103205
0.000103205
0.000103206
0.000103207
0.000103208
0.000103208
0.000103209
0.000103209
0.00010321
0.00010321
0.000103211
0.000103211
0.000103212
0.000103212
0.000103213
0.000103213
0.000103213
0.000103214
0.000103214
0.000103215
0.000103215
0.000103215
0.000103216
0.000103216
0.000103216
0.000103216
0.000103217
0.000103217
0.000103217
0.000103217
0.000103217
0.000103217
0.000103218
0.000103218
0.000103218
0.000103218
0.000103218
0.000103218
0.000103218
0.000103218
0.000103218
0.000103218
0.000103218
0.000103218
0.000103218
0.000103218
0.000103218
0.000103219
0.000101204
0.000101201
0.000101201
0.000101202
0.000101203
0.000101204
0.000101204
0.000101205
0.000101206
0.000101207
0.000101207
0.000101208
0.000101209
0.00010121
0.00010121
0.000101211
0.000101212
0.000101212
0.000101213
0.000101213
0.000101214
0.000101214
0.000101215
0.000101215
0.000101216
0.000101216
0.000101217
0.000101217
0.000101217
0.000101218
0.000101218
0.000101219
0.000101219
0.000101219
0.00010122
0.00010122
0.00010122
0.00010122
0.000101221
0.000101221
0.000101221
0.000101221
0.000101221
0.000101221
0.000101222
0.000101222
0.000101222
0.000101222
0.000101222
0.000101222
0.000101222
0.000101222
0.000101222
0.000101222
0.000101222
0.000101222
0.000101222
0.000101222
0.000101223
9.92337e-05
9.9231e-05
9.92311e-05
9.92318e-05
9.92326e-05
9.92334e-05
9.92341e-05
9.92348e-05
9.92356e-05
9.92363e-05
9.92371e-05
9.92378e-05
9.92385e-05
9.92392e-05
9.92399e-05
9.92406e-05
9.92413e-05
9.92419e-05
9.92425e-05
9.92431e-05
9.92436e-05
9.92441e-05
9.92445e-05
9.9245e-05
9.92454e-05
9.92459e-05
9.92463e-05
9.92468e-05
9.92472e-05
9.92476e-05
9.9248e-05
9.92484e-05
9.92487e-05
9.92491e-05
9.92494e-05
9.92497e-05
9.925e-05
9.92502e-05
9.92504e-05
9.92507e-05
9.92509e-05
9.92511e-05
9.92513e-05
9.92514e-05
9.92516e-05
9.92518e-05
9.92519e-05
9.92521e-05
9.92522e-05
9.92523e-05
9.92524e-05
9.92525e-05
9.92525e-05
9.92525e-05
9.92526e-05
9.92526e-05
9.92525e-05
9.92524e-05
9.9253e-05
9.72923e-05
9.72895e-05
9.72896e-05
9.72904e-05
9.72912e-05
9.72919e-05
9.72927e-05
9.72934e-05
9.72941e-05
9.72949e-05
9.72956e-05
9.72963e-05
9.72971e-05
9.72978e-05
9.72985e-05
9.72992e-05
9.72998e-05
9.73005e-05
9.73011e-05
9.73016e-05
9.73022e-05
9.73027e-05
9.73032e-05
9.73036e-05
9.73041e-05
9.73045e-05
9.7305e-05
9.73054e-05
9.73059e-05
9.73063e-05
9.73067e-05
9.73071e-05
9.73075e-05
9.73078e-05
9.73082e-05
9.73085e-05
9.73088e-05
9.7309e-05
9.73093e-05
9.73095e-05
9.73097e-05
9.731e-05
9.73102e-05
9.73104e-05
9.73106e-05
9.73107e-05
9.73109e-05
9.73111e-05
9.73112e-05
9.73114e-05
9.73115e-05
9.73116e-05
9.73116e-05
9.73117e-05
9.73117e-05
9.73117e-05
9.73118e-05
9.73117e-05
9.73122e-05
9.53824e-05
9.53796e-05
9.53797e-05
9.53804e-05
9.53812e-05
9.5382e-05
9.53827e-05
9.53835e-05
9.53842e-05
9.53849e-05
9.53857e-05
9.53864e-05
9.53871e-05
9.53879e-05
9.53886e-05
9.53892e-05
9.53899e-05
9.53906e-05
9.53912e-05
9.53917e-05
9.53923e-05
9.53928e-05
9.53933e-05
9.53938e-05
9.53942e-05
9.53947e-05
9.53952e-05
9.53956e-05
9.53961e-05
9.53965e-05
9.53969e-05
9.53973e-05
9.53977e-05
9.53981e-05
9.53984e-05
9.53988e-05
9.53991e-05
9.53994e-05
9.53996e-05
9.53999e-05
9.54001e-05
9.54004e-05
9.54006e-05
9.54008e-05
9.5401e-05
9.54012e-05
9.54014e-05
9.54016e-05
9.54018e-05
9.54019e-05
9.5402e-05
9.54022e-05
9.54023e-05
9.54023e-05
9.54024e-05
9.54024e-05
9.54025e-05
9.54025e-05
9.54029e-05
9.35065e-05
9.35037e-05
9.35038e-05
9.35045e-05
9.35053e-05
9.35061e-05
9.35068e-05
9.35075e-05
9.35083e-05
9.3509e-05
9.35098e-05
9.35105e-05
9.35112e-05
9.35119e-05
9.35126e-05
9.35133e-05
9.3514e-05
9.35147e-05
9.35153e-05
9.35159e-05
9.35164e-05
9.35169e-05
9.35174e-05
9.35179e-05
9.35184e-05