/*--------------------------------*- C++ -*----------------------------------*\
  =========                 |
  \\      /  F ield         | OpenFOAM: The Open Source CFD Toolbox
   \\    /   O peration     | Website:  https://openfoam.org
    \\  /    A nd           | Version:  7
     \\/     M anipulation  |
\*---------------------------------------------------------------------------*/
FoamFile
{
    version     2.0;
    format      ascii;
    class       volScalarField;
    location    "3000";
    object      omega;
}
// * * * * * * * * * * * * * * * * * * * * * * * * * * * * * * * * * * * * * //

dimensions      [0 0 -1 0 0 0 0];

internalField   nonuniform List<scalar> 
3974
(
0.651516
0.651529
0.651536
0.651543
0.651549
0.651555
0.65156
0.651565
0.651569
0.651573
0.651577
0.65158
0.651583
0.651586
0.651589
0.651592
0.651594
0.651596
0.651598
0.6516
0.651602
0.651604
0.651605
0.651607
0.651608
0.651609
0.65161
0.651612
0.651613
0.651614
0.651615
0.651615
0.651616
0.651617
0.651618
0.651619
0.651619
0.651621
0.616012
0.616017
0.616
0.615999
0.616002
0.616006
0.61601
0.616014
0.616018
0.616022
0.616026
0.61603
0.616033
0.616036
0.616039
0.616042
0.616044
0.616047
0.616049
0.616051
0.616053
0.616055
0.616057
0.616059
0.616061
0.616062
0.616064
0.616065
0.616066
0.616067
0.616069
0.61607
0.616071
0.616072
0.616073
0.616074
0.616075
0.616075
0.616076
0.616075
0.616116
0.616124
0.582811
0.582806
0.58279
0.582785
0.582775
0.58277
0.582769
0.582771
0.582773
0.582776
0.582779
0.582782
0.582786
0.582789
0.582792
0.582795
0.582797
0.5828
0.582802
0.582805
0.582807
0.582809
0.582811
0.582813
0.582815
0.582817
0.582819
0.58282
0.582822
0.582823
0.582825
0.582826
0.582827
0.582829
0.58283
0.582831
0.582832
0.582833
0.582834
0.582835
0.582836
0.582835
0.582854
0.582864
0.582895
0.582896
0.582888
0.582879
0.582872
0.582866
0.582861
0.582856
0.582851
0.582848
0.582844
0.582841
0.582838
0.582836
0.582832
0.55165
0.551647
0.551636
0.551629
0.551621
0.551616
0.551613
0.551612
0.551613
0.551615
0.551618
0.55162
0.551623
0.551625
0.551628
0.551631
0.551633
0.551636
0.551638
0.551641
0.551643
0.551645
0.551647
0.551649
0.551651
0.551653
0.551655
0.551657
0.551658
0.55166
0.551661
0.551663
0.551664
0.551665
0.551667
0.551668
0.551669
0.55167
0.551672
0.551673
0.551674
0.551673
0.551683
0.55169
0.551708
0.551716
0.551715
0.551711
0.551707
0.551703
0.551699
0.551695
0.551691
0.551688
0.551686
0.551683
0.551681
0.551679
0.551675
0.522367
0.522365
0.522358
0.522351
0.522345
0.52234
0.522337
0.522335
0.522336
0.522337
0.522338
0.52234
0.522343
0.522345
0.522347
0.52235
0.522352
0.522355
0.522357
0.522359
0.522362
0.522364
0.522366
0.522368
0.52237
0.522372
0.522374
0.522376
0.522377
0.522379
0.522381
0.522382
0.522384
0.522385
0.522387
0.522388
0.52239
0.522391
0.522392
0.522393
0.522395
0.522395
0.5224
0.522405
0.522415
0.522424
0.522426
0.522426
0.522424
0.522421
0.522419
0.522416
0.522414
0.522411
0.522409
0.522407
0.522405
0.522404
0.522402
0.494796
0.494793
0.494789
0.494783
0.494779
0.494774
0.494771
0.49477
0.494769
0.49477
0.494771
0.494773
0.494775
0.494777
0.494779
0.494782
0.494784
0.494786
0.494789
0.494791
0.494793
0.494795
0.494798
0.4948
0.494802
0.494804
0.494806
0.494808
0.49481
0.494812
0.494813
0.494815
0.494817
0.494818
0.49482
0.494822
0.494823
0.494825
0.494826
0.494827
0.494829
0.49483
0.494832
0.494836
0.494842
0.494849
0.494853
0.494854
0.494854
0.494853
0.494852
0.49485
0.494849
0.494847
0.494846
0.494844
0.494843
0.494841
0.494841
0.468788
0.468785
0.468782
0.468778
0.468774
0.468771
0.468769
0.468767
0.468767
0.468767
0.468768
0.46877
0.468772
0.468774
0.468776
0.468778
0.46878
0.468783
0.468785
0.468787
0.46879
0.468792
0.468794
0.468796
0.468799
0.468801
0.468803
0.468805
0.468807
0.468809
0.468811
0.468813
0.468815
0.468816
0.468818
0.46882
0.468822
0.468823
0.468825
0.468826
0.468828
0.468829
0.468831
0.468834
0.468838
0.468843
0.468846
0.468849
0.46885
0.46885
0.46885
0.468849
0.468848
0.468848
0.468847
0.468846
0.468845
0.468844
0.468845
0.444216
0.444211
0.444209
0.444206
0.444204
0.444201
0.4442
0.444199
0.444198
0.444199
0.4442
0.444201
0.444203
0.444205
0.444207
0.444209
0.444211
0.444214
0.444216
0.444219
0.444221
0.444223
0.444226
0.444228
0.44423
0.444233
0.444235
0.444237
0.444239
0.444241
0.444244
0.444246
0.444248
0.44425
0.444251
0.444253
0.444255
0.444257
0.444259
0.444261
0.444262
0.444264
0.444266
0.444268
0.444271
0.444274
0.444278
0.44428
0.444282
0.444283
0.444284
0.444284
0.444284
0.444283
0.444283
0.444283
0.444282
0.444281
0.444285
0.420965
0.420958
0.420956
0.420955
0.420953
0.420952
0.420951
0.42095
0.42095
0.420951
0.420952
0.420953
0.420955
0.420957
0.420959
0.420962
0.420964
0.420966
0.420969
0.420971
0.420974
0.420976
0.420979
0.420981
0.420984
0.420986
0.420988
0.420991
0.420993
0.420995
0.420998
0.421
0.421002
0.421004
0.421006
0.421008
0.42101
0.421012
0.421014
0.421016
0.421018
0.42102
0.421022
0.421024
0.421026
0.421029
0.421032
0.421035
0.421037
0.421038
0.421039
0.42104
0.42104
0.421041
0.421041
0.421041
0.421041
0.42104
0.421046
0.398936
0.398927
0.398925
0.398924
0.398924
0.398923
0.398922
0.398922
0.398923
0.398924
0.398925
0.398927
0.398929
0.398931
0.398933
0.398935
0.398938
0.39894
0.398943
0.398945
0.398948
0.39895
0.398953
0.398956
0.398958
0.398961
0.398963
0.398966
0.398968
0.398971
0.398973
0.398976
0.398978
0.39898
0.398982
0.398985
0.398987
0.398989
0.398991
0.398993
0.398995
0.398998
0.399
0.399002
0.399004
0.399006
0.399009
0.399011
0.399013
0.399015
0.399017
0.399018
0.399019
0.39902
0.39902
0.399021
0.399022
0.399021
0.399028
0.37804
0.37803
0.378028
0.378027
0.378027
0.378027
0.378027
0.378028
0.378029
0.37803
0.378031
0.378033
0.378035
0.378037
0.37804
0.378042
0.378044
0.378047
0.37805
0.378052
0.378055
0.378058
0.378061
0.378063
0.378066
0.378069
0.378072
0.378074
0.378077
0.378079
0.378082
0.378085
0.378087
0.37809
0.378092
0.378095
0.378097
0.378099
0.378102
0.378104
0.378106
0.378109
0.378111
0.378113
0.378115
0.378117
0.37812
0.378122
0.378125
0.378127
0.378128
0.37813
0.378131
0.378132
0.378133
0.378134
0.378135
0.378135
0.378143
0.3582
0.358188
0.358186
0.358186
0.358186
0.358187
0.358187
0.358188
0.35819
0.358191
0.358193
0.358195
0.358197
0.358199
0.358202
0.358204
0.358207
0.35821
0.358213
0.358215
0.358218
0.358221
0.358224
0.358227
0.35823
0.358233
0.358236
0.358238
0.358241
0.358244
0.358247
0.35825
0.358252
0.358255
0.358258
0.35826
0.358263
0.358265
0.358268
0.35827
0.358273
0.358275
0.358278
0.35828
0.358282
0.358285
0.358287
0.35829
0.358292
0.358294
0.358296
0.358298
0.358299
0.358301
0.358302
0.358303
0.358305
0.358304
0.358314
0.339347
0.339334
0.339332
0.339332
0.339333
0.339333
0.339335
0.339336
0.339338
0.339339
0.339341
0.339344
0.339346
0.339349
0.339351
0.339354
0.339357
0.33936
0.339363
0.339365
0.339368
0.339372
0.339375
0.339378
0.339381
0.339384
0.339387
0.33939
0.339393
0.339396
0.339399
0.339402
0.339404
0.339407
0.33941
0.339413
0.339416
0.339418
0.339421
0.339424
0.339427
0.339429
0.339432
0.339434
0.339437
0.339439
0.339442
0.339444
0.339447
0.339449
0.339451
0.339453
0.339455
0.339457
0.339458
0.33946
0.339462
0.339461
0.339473
0.321421
0.321406
0.321404
0.321404
0.321405
0.321406
0.321408
0.32141
0.321412
0.321414
0.321416
0.321419
0.321421
0.321424
0.321427
0.32143
0.321432
0.321436
0.321439
0.321442
0.321445
0.321448
0.321451
0.321454
0.321458
0.321461
0.321464
0.321467
0.32147
0.321473
0.321477
0.32148
0.321483
0.321486
0.321489
0.321492
0.321495
0.321498
0.321501
0.321503
0.321506
0.321509
0.321512
0.321514
0.321517
0.32152
0.321522
0.321525
0.321528
0.32153
0.321532
0.321535
0.321537
0.321539
0.321541
0.321542
0.321544
0.321544
0.321557
0.304367
0.304351
0.304349
0.304349
0.30435
0.304352
0.304354
0.304356
0.304358
0.30436
0.304363
0.304366
0.304368
0.304371
0.304374
0.304377
0.30438
0.304384
0.304387
0.30439
0.304393
0.304397
0.3044
0.304403
0.304407
0.30441
0.304413
0.304417
0.30442
0.304423
0.304427
0.30443
0.304433
0.304436
0.30444
0.304443
0.304446
0.304449
0.304452
0.304455
0.304458
0.304461
0.304464
0.304467
0.30447
0.304472
0.304475
0.304478
0.304481
0.304483
0.304486
0.304488
0.30449
0.304493
0.304495
0.304497
0.304499
0.304499
0.304512
0.288137
0.28812
0.288117
0.288118
0.288119
0.288121
0.288123
0.288126
0.288128
0.288131
0.288134
0.288136
0.288139
0.288143
0.288146
0.288149
0.288152
0.288155
0.288159
0.288162
0.288166
0.288169
0.288173
0.288176
0.28818
0.288183
0.288187
0.28819
0.288194
0.288197
0.2882
0.288204
0.288207
0.288211
0.288214
0.288217
0.288221
0.288224
0.288227
0.28823
0.288234
0.288237
0.28824
0.288243
0.288246
0.288249
0.288252
0.288255
0.288257
0.28826
0.288263
0.288265
0.288268
0.28827
0.288273
0.288275
0.288277
0.288277
0.288292
0.272688
0.27267
0.272667
0.272668
0.272669
0.272672
0.272674
0.272676
0.272679
0.272682
0.272685
0.272688
0.272691
0.272695
0.272698
0.272701
0.272705
0.272708
0.272712
0.272715
0.272719
0.272722
0.272726
0.27273
0.272733
0.272737
0.27274
0.272744
0.272748
0.272751
0.272755
0.272758
0.272762
0.272766
0.272769
0.272773
0.272776
0.272779
0.272783
0.272786
0.27279
0.272793
0.272796
0.272799
0.272802
0.272806
0.272809
0.272812
0.272815
0.272818
0.27282
0.272823
0.272826
0.272828
0.272831
0.272833
0.272836
0.272836
0.272851
0.257981
0.257961
0.257959
0.25796
0.257962
0.257964
0.257967
0.257969
0.257972
0.257975
0.257979
0.257982
0.257985
0.257989
0.257992
0.257996
0.257999
0.258003
0.258006
0.25801
0.258014
0.258018
0.258021
0.258025
0.258029
0.258033
0.258036
0.25804
0.258044
0.258048
0.258051
0.258055
0.258059
0.258062
0.258066
0.25807
0.258073
0.258077
0.25808
0.258084
0.258087
0.258091
0.258094
0.258098
0.258101
0.258104
0.258107
0.258111
0.258114
0.258117
0.25812
0.258123
0.258126
0.258128
0.258131
0.258134
0.258137
0.258136
0.258153
0.243981
0.243961
0.243958
0.243959
0.243961
0.243964
0.243967
0.24397
0.243973
0.243976
0.243979
0.243983
0.243986
0.24399
0.243993
0.243997
0.244001
0.244005
0.244008
0.244012
0.244016
0.24402
0.244024
0.244027
0.244031
0.244035
0.244039
0.244043
0.244047
0.244051
0.244055
0.244058
0.244062
0.244066
0.24407
0.244074
0.244077
0.244081
0.244085
0.244088
0.244092
0.244096
0.244099
0.244103
0.244106
0.24411
0.244113
0.244116
0.24412
0.244123
0.244126
0.244129
0.244132
0.244135
0.244138
0.24414
0.244144
0.244144
0.24416
0.230657
0.230636
0.230633
0.230634
0.230636
0.230639
0.230642
0.230645
0.230649
0.230652
0.230656
0.230659
0.230663
0.230667
0.23067
0.230674
0.230678
0.230682
0.230686
0.230689
0.230693
0.230697
0.230701
0.230705
0.230709
0.230713
0.230717
0.230721
0.230725
0.230729
0.230733
0.230737
0.230741
0.230745
0.230749
0.230753
0.230757
0.23076
0.230764
0.230768
0.230772
0.230775
0.230779
0.230783
0.230786
0.23079
0.230793
0.230797
0.2308
0.230804
0.230807
0.23081
0.230813
0.230816
0.230819
0.230822
0.230825
0.230825
0.230843
0.217979
0.217957
0.217954
0.217956
0.217958
0.217961
0.217964
0.217968
0.217971
0.217975
0.217978
0.217982
0.217986
0.21799
0.217994
0.217997
0.218001
0.218005
0.218009
0.218013
0.218017
0.218021
0.218025
0.218029
0.218034
0.218038
0.218042
0.218046
0.21805
0.218054
0.218058
0.218062
0.218066
0.21807
0.218074
0.218078
0.218082
0.218086
0.21809
0.218094
0.218098
0.218101
0.218105
0.218109
0.218113
0.218116
0.21812
0.218124
0.218127
0.218131
0.218134
0.218137
0.21814
0.218144
0.218147
0.21815
0.218153
0.218153
0.218171
0.205922
0.205899
0.205896
0.205897
0.2059
0.205903
0.205906
0.20591
0.205914
0.205917
0.205921
0.205925
0.205929
0.205933
0.205937
0.205941
0.205945
0.205949
0.205953
0.205957
0.205961
0.205965
0.205969
0.205973
0.205978
0.205982
0.205986
0.20599
0.205994
0.205998
0.206003
0.206007
0.206011
0.206015
0.206019
0.206023
0.206027
0.206031
0.206035
0.206039
0.206043
0.206047
0.206051
0.206055
0.206059
0.206062
0.206066
0.20607
0.206073
0.206077
0.20608
0.206084
0.206087
0.20609
0.206094
0.206097
0.2061
0.206101
0.206118
0.194459
0.194436
0.194433
0.194434
0.194437
0.19444
0.194444
0.194448
0.194451
0.194455
0.194459
0.194463
0.194467
0.194471
0.194475
0.194479
0.194483
0.194488
0.194492
0.194496
0.1945
0.194504
0.194508
0.194513
0.194517
0.194521
0.194525
0.19453
0.194534
0.194538
0.194542
0.194546
0.194551
0.194555
0.194559
0.194563
0.194567
0.194571
0.194575
0.194579
0.194583
0.194587
0.194591
0.194595
0.194599
0.194603
0.194607
0.194611
0.194614
0.194618
0.194622
0.194625
0.194629
0.194632
0.194635
0.194638
0.194642
0.194643
0.19466
0.183569
0.183545
0.183542
0.183544
0.183547
0.18355
0.183554
0.183558
0.183562
0.183566
0.18357
0.183574
0.183578
0.183582
0.183586
0.18359
0.183594
0.183599
0.183603
0.183607
0.183611
0.183616
0.18362
0.183624
0.183628
0.183633
0.183637
0.183641
0.183645
0.18365
0.183654
0.183658
0.183662
0.183667
0.183671
0.183675
0.183679
0.183683
0.183688
0.183692
0.183696
0.1837
0.183704
0.183708
0.183712
0.183716
0.18372
0.183723
0.183727
0.183731
0.183735
0.183738
0.183742
0.183745
0.183749
0.183752
0.183756
0.183756
0.183774
0.17323
0.173206
0.173203
0.173205
0.173208
0.173211
0.173215
0.173219
0.173223
0.173227
0.173231
0.173235
0.173239
0.173243
0.173248
0.173252
0.173256
0.17326
0.173265
0.173269
0.173273
0.173277
0.173282
0.173286
0.17329
0.173295
0.173299
0.173303
0.173308
0.173312
0.173316
0.173321
0.173325
0.173329
0.173333
0.173338
0.173342
0.173346
0.17335
0.173354
0.173358
0.173363
0.173367
0.173371
0.173375
0.173379
0.173383
0.173386
0.17339
0.173394
0.173398
0.173401
0.173405
0.173409
0.173412
0.173415
0.173419
0.17342
0.173437
0.163421
0.163396
0.163394
0.163396
0.163399
0.163402
0.163406
0.16341
0.163414
0.163418
0.163423
0.163427
0.163431
0.163435
0.163439
0.163444
0.163448
0.163452
0.163457
0.163461
0.163465
0.16347
0.163474
0.163478
0.163483
0.163487
0.163491
0.163496
0.1635
0.163504
0.163509
0.163513
0.163517
0.163521
0.163526
0.16353
0.163534
0.163539
0.163543
0.163547
0.163551
0.163555
0.163559
0.163563
0.163567
0.163571
0.163575
0.163579
0.163583
0.163587
0.163591
0.163594
0.163598
0.163602
0.163605
0.163609
0.163612
0.163613
0.16363
0.154123
0.154098
0.154095
0.154097
0.154101
0.154104
0.154108
0.154112
0.154117
0.154121
0.154125
0.154129
0.154133
0.154138
0.154142
0.154146
0.154151
0.154155
0.154159
0.154164
0.154168
0.154172
0.154177
0.154181
0.154185
0.15419
0.154194
0.154198
0.154203
0.154207
0.154211
0.154216
0.15422
0.154224
0.154229
0.154233
0.154237
0.154241
0.154246
0.15425
0.154254
0.154258
0.154262
0.154266
0.15427
0.154274
0.154278
0.154282
0.154286
0.15429
0.154294
0.154298
0.154301
0.154305
0.154308
0.154312
0.154316
0.154317
0.154333
0.145317
0.145292
0.145289
0.145291
0.145295
0.145299
0.145303
0.145307
0.145311
0.145315
0.145319
0.145324
0.145328
0.145332
0.145336
0.145341
0.145345
0.145349
0.145354
0.145358
0.145362
0.145367
0.145371
0.145375
0.14538
0.145384
0.145389
0.145393
0.145397
0.145402
0.145406
0.14541
0.145414
0.145419
0.145423
0.145427
0.145432
0.145436
0.14544
0.145444
0.145448
0.145453
0.145457
0.145461
0.145465
0.145469
0.145473
0.145477
0.145481
0.145484
0.145488
0.145492
0.145496
0.145499
0.145503
0.145506
0.14551
0.145511
0.145528
0.136984
0.13696
0.136957
0.136959
0.136963
0.136966
0.13697
0.136974
0.136979
0.136983
0.136987
0.136992
0.136996
0.137
0.137004
0.137009
0.137013
0.137017
0.137022
0.137026
0.13703
0.137035
0.137039
0.137043
0.137048
0.137052
0.137056
0.137061
0.137065
0.137069
0.137074
0.137078
0.137082
0.137087
0.137091
0.137095
0.137099
0.137103
0.137108
0.137112
0.137116
0.13712
0.137124
0.137128
0.137132
0.137136
0.13714
0.137144
0.137148
0.137152
0.137156
0.13716
0.137163
0.137167
0.13717
0.137174
0.137178
0.137179
0.137195
0.129107
0.129083
0.129081
0.129083
0.129086
0.12909
0.129094
0.129098
0.129102
0.129107
0.129111
0.129115
0.12912
0.129124
0.129128
0.129133
0.129137
0.129141
0.129146
0.12915
0.129154
0.129158
0.129163
0.129167
0.129171
0.129176
0.12918
0.129184
0.129189
0.129193
0.129197
0.129201
0.129206
0.12921
0.129214
0.129218
0.129222
0.129227
0.129231
0.129235
0.129239
0.129243
0.129247
0.129251
0.129255
0.129259
0.129263
0.129267
0.129271
0.129275
0.129279
0.129282
0.129286
0.12929
0.129293
0.129297
0.1293
0.129302
0.129317
0.121669
0.121645
0.121643
0.121645
0.121648
0.121652
0.121656
0.121661
0.121665
0.121669
0.121673
0.121678
0.121682
0.121686
0.12169
0.121695
0.121699
0.121703
0.121708
0.121712
0.121716
0.12172
0.121725
0.121729
0.121733
0.121737
0.121742
0.121746
0.12175
0.121754
0.121759
0.121763
0.121767
0.121771
0.121775
0.12178
0.121784
0.121788
0.121792
0.121796
0.1218
0.121804
0.121808
0.121812
0.121816
0.12182
0.121824
0.121828
0.121832
0.121836
0.121839
0.121843
0.121847
0.12185
0.121854
0.121857
0.121861
0.121862
0.121877
0.114652
0.114629
0.114626
0.114628
0.114632
0.114636
0.11464
0.114644
0.114648
0.114652
0.114657
0.114661
0.114665
0.114669
0.114674
0.114678
0.114682
0.114687
0.114691
0.114695
0.114699
0.114703
0.114708
0.114712
0.114716
0.11472
0.114724
0.114729
0.114733
0.114737
0.114741
0.114745
0.114749
0.114754
0.114758
0.114762
0.114766
0.11477
0.114774
0.114778
0.114782
0.114786
0.11479
0.114794
0.114798
0.114802
0.114806
0.114809
0.114813
0.114817
0.114821
0.114824
0.114828
0.114831
0.114835
0.114838
0.114842
0.114844
0.114857
0.10804
0.108016
0.108014
0.108016
0.10802
0.108024
0.108028
0.108032
0.108036
0.10804
0.108044
0.108049
0.108053
0.108057
0.108061
0.108066
0.10807
0.108074
0.108078
0.108082
0.108087
0.108091
0.108095
0.108099
0.108103
0.108107
0.108111
0.108116
0.10812
0.108124
0.108128
0.108132
0.108136
0.10814
0.108144
0.108148
0.108152
0.108156
0.10816
0.108164
0.108168
0.108172
0.108176
0.10818
0.108184
0.108187
0.108191
0.108195
0.108199
0.108202
0.108206
0.10821
0.108213
0.108217
0.10822
0.108223
0.108227
0.108229
0.108242
0.101815
0.101792
0.10179
0.101792
0.101796
0.1018
0.101804
0.101808
0.101812
0.101816
0.10182
0.101824
0.101828
0.101832
0.101837
0.101841
0.101845
0.101849
0.101853
0.101857
0.101861
0.101865
0.10187
0.101874
0.101878
0.101882
0.101886
0.10189
0.101894
0.101898
0.101902
0.101906
0.10191
0.101914
0.101918
0.101922
0.101926
0.10193
0.101934
0.101937
0.101941
0.101945
0.101949
0.101953
0.101957
0.10196
0.101964
0.101968
0.101971
0.101975
0.101979
0.101982
0.101986
0.101989
0.101992
0.101996
0.101999
0.102001
0.102013
0.0959611
0.0959389
0.0959368
0.0959391
0.0959426
0.0959464
0.0959504
0.0959544
0.0959584
0.0959625
0.0959666
0.0959707
0.0959748
0.0959789
0.095983
0.0959871
0.0959911
0.0959952
0.0959993
0.0960033
0.0960073
0.0960113
0.0960153
0.0960193
0.0960233
0.0960273
0.0960312
0.0960352
0.0960391
0.0960431
0.096047
0.0960509
0.0960548
0.0960587
0.0960625
0.0960664
0.0960702
0.0960741
0.0960779
0.0960817
0.0960854
0.0960892
0.0960929
0.0960966
0.0961003
0.096104
0.0961076
0.0961112
0.0961148
0.0961183
0.0961218
0.0961253
0.0961287
0.0961321
0.0961354
0.0961386
0.096142
0.0961439
0.0961551
0.0904623
0.0904408
0.0904387
0.0904411
0.0904446
0.0904483
0.0904522
0.0904562
0.0904601
0.0904641
0.0904682
0.0904722
0.0904762
0.0904802
0.0904842
0.0904882
0.0904922
0.0904962
0.0905002
0.0905041
0.0905081
0.090512
0.0905159
0.0905198
0.0905237
0.0905275
0.0905314
0.0905353
0.0905391
0.0905429
0.0905468
0.0905506
0.0905544
0.0905581
0.0905619
0.0905657
0.0905694
0.0905731
0.0905769
0.0905805
0.0905842
0.0905879
0.0905915
0.0905951
0.0905987
0.0906023
0.0906058
0.0906094
0.0906128
0.0906163
0.0906197
0.0906231
0.0906264
0.0906297
0.0906329
0.0906361
0.0906394
0.0906414
0.0906517
0.0853025
0.0852816
0.0852796
0.085282
0.0852854
0.0852891
0.0852929
0.0852968
0.0853007
0.0853046
0.0853086
0.0853125
0.0853164
0.0853204
0.0853243
0.0853282
0.0853321
0.085336
0.0853398
0.0853437
0.0853475
0.0853514
0.0853552
0.085359
0.0853628
0.0853665
0.0853703
0.085374
0.0853778
0.0853815
0.0853852
0.0853889
0.0853926
0.0853963
0.0854
0.0854036
0.0854072
0.0854109
0.0854145
0.0854181
0.0854216
0.0854252
0.0854287
0.0854322
0.0854357
0.0854392
0.0854426
0.085446
0.0854494
0.0854528
0.0854561
0.0854594
0.0854626
0.0854658
0.085469
0.0854721
0.0854753
0.0854773
0.0854867
0.0804657
0.0804455
0.0804437
0.080446
0.0804494
0.080453
0.0804567
0.0804605
0.0804644
0.0804682
0.080472
0.0804759
0.0804797
0.0804835
0.0804874
0.0804912
0.080495
0.0804987
0.0805025
0.0805063
0.08051
0.0805137
0.0805174
0.0805211
0.0805248
0.0805285
0.0805321
0.0805358
0.0805394
0.080543
0.0805466
0.0805502
0.0805538
0.0805573
0.0805609
0.0805644
0.0805679
0.0805714
0.0805749
0.0805784
0.0805819
0.0805853
0.0805887
0.0805921
0.0805955
0.0805989
0.0806022
0.0806055
0.0806088
0.0806121
0.0806153
0.0806185
0.0806216
0.0806247
0.0806278
0.0806308
0.0806339
0.080636
0.0806445
0.0759365
0.075917
0.0759153
0.0759176
0.0759209
0.0759244
0.0759281
0.0759318
0.0759355
0.0759393
0.075943
0.0759467
0.0759505
0.0759542
0.0759579
0.0759616
0.0759653
0.075969
0.0759726
0.0759763
0.0759799
0.0759835
0.0759871
0.0759907
0.0759942
0.0759978
0.0760013
0.0760048
0.0760084
0.0760119
0.0760153
0.0760188
0.0760223
0.0760257
0.0760291
0.0760326
0.076036
0.0760394
0.0760427
0.0760461
0.0760494
0.0760528
0.0760561
0.0760593
0.0760626
0.0760659
0.0760691
0.0760723
0.0760755
0.0760786
0.0760817
0.0760848
0.0760879
0.0760909
0.0760938
0.0760968
0.0760997
0.0761019
0.0761096
0.0716995
0.0716808
0.0716792
0.0716815
0.0716847
0.0716881
0.0716917
0.0716953
0.0716989
0.0717026
0.0717062
0.0717098
0.0717135
0.0717171
0.0717207
0.0717243
0.0717278
0.0717314
0.0717349
0.0717385
0.071742
0.0717455
0.0717489
0.0717524
0.0717558
0.0717593
0.0717627
0.0717661
0.0717695
0.0717729
0.0717762
0.0717796
0.0717829
0.0717862
0.0717895
0.0717928
0.0717961
0.0717994
0.0718026
0.0718059
0.0718091
0.0718123
0.0718155
0.0718187
0.0718218
0.0718249
0.071828
0.0718311
0.0718342
0.0718372
0.0718402
0.0718432
0.0718462
0.0718491
0.0718519
0.0718548
0.0718576
0.0718598
0.0718666
0.06774
0.067722
0.0677205
0.0677228
0.0677259
0.0677293
0.0677327
0.0677362
0.0677398
0.0677433
0.0677468
0.0677503
0.0677538
0.0677573
0.0677608
0.0677643
0.0677677
0.0677712
0.0677746
0.067778
0.0677814
0.0677847
0.0677881
0.0677914
0.0677948
0.0677981
0.0678014
0.0678046
0.0678079
0.0678112
0.0678144
0.0678176
0.0678208
0.067824
0.0678272
0.0678304
0.0678335
0.0678367
0.0678398
0.0678429
0.067846
0.0678491
0.0678522
0.0678552
0.0678582
0.0678612
0.0678642
0.0678672
0.0678701
0.0678731
0.067876
0.0678788
0.0678817
0.0678845
0.0678872
0.06789
0.0678927
0.0678949
0.0679009
0.0640434
0.0640262
0.0640248
0.064027
0.06403
0.0640333
0.0640366
0.06404
0.0640434
0.0640468
0.0640502
0.0640536
0.064057
0.0640604
0.0640637
0.0640671
0.0640704
0.0640737
0.064077
0.0640803
0.0640836
0.0640868
0.0640901
0.0640933
0.0640965
0.0640996
0.0641028
0.064106
0.0641091
0.0641122
0.0641153
0.0641184
0.0641215
0.0641246
0.0641276
0.0641307
0.0641337
0.0641367
0.0641397
0.0641427
0.0641457
0.0641486
0.0641516
0.0641545
0.0641574
0.0641603
0.0641632
0.064166
0.0641688
0.0641716
0.0641744
0.0641772
0.0641799
0.0641826
0.0641852
0.0641879
0.0641905
0.0641927
0.0641979
0.0605955
0.0605791
0.0605778
0.0605799
0.0605829
0.0605861
0.0605893
0.0605926
0.0605959
0.0605992
0.0606024
0.0606057
0.060609
0.0606122
0.0606154
0.0606186
0.0606219
0.060625
0.0606282
0.0606314
0.0606345
0.0606376
0.0606407
0.0606438
0.0606469
0.0606499
0.060653
0.060656
0.060659
0.060662
0.060665
0.0606679
0.0606709
0.0606738
0.0606768
0.0606797
0.0606826
0.0606855
0.0606883
0.0606912
0.060694
0.0606969
0.0606997
0.0607025
0.0607052
0.060708
0.0607108
0.0607135
0.0607162
0.0607189
0.0607215
0.0607242
0.0607268
0.0607294
0.0607319
0.0607344
0.060737
0.0607391
0.0607437
0.0573829
0.0573672
0.057366
0.057368
0.0573709
0.057374
0.0573771
0.0573803
0.0573834
0.0573866
0.0573897
0.0573929
0.057396
0.0573991
0.0574022
0.0574053
0.0574084
0.0574114
0.0574145
0.0574175
0.0574205
0.0574235
0.0574265
0.0574294
0.0574324
0.0574353
0.0574382
0.0574411
0.057444
0.0574468
0.0574497
0.0574525
0.0574553
0.0574582
0.0574609
0.0574637
0.0574665
0.0574693
0.057472
0.0574747
0.0574774
0.0574801
0.0574828
0.0574855
0.0574881
0.0574908
0.0574934
0.057496
0.0574986
0.0575012
0.0575037
0.0575062
0.0575087
0.0575112
0.0575137
0.0575161
0.0575185
0.0575206
0.0575245
0.0543921
0.0543772
0.0543761
0.0543781
0.0543809
0.0543838
0.0543868
0.0543899
0.0543929
0.0543959
0.054399
0.054402
0.054405
0.054408
0.0544109
0.0544139
0.0544168
0.0544197
0.0544227
0.0544256
0.0544284
0.0544313
0.0544341
0.054437
0.0544398
0.0544426
0.0544453
0.0544481
0.0544509
0.0544536
0.0544563
0.054459
0.0544617
0.0544644
0.0544671
0.0544697
0.0544723
0.054475
0.0544776
0.0544802
0.0544828
0.0544853
0.0544879
0.0544904
0.054493
0.0544955
0.054498
0.0545005
0.0545029
0.0545054
0.0545078
0.0545102
0.0545126
0.054515
0.0545173
0.0545196
0.0545219
0.054524
0.0545272
0.0516108
0.0515966
0.0515956
0.0515975
0.0516002
0.051603
0.0516059
0.0516088
0.0516117
0.0516146
0.0516175
0.0516204
0.0516233
0.0516261
0.0516289
0.0516318
0.0516346
0.0516374
0.0516401
0.0516429
0.0516457
0.0516484
0.0516511
0.0516538
0.0516565
0.0516591
0.0516618
0.0516644
0.051667
0.0516696
0.0516722
0.0516748
0.0516774
0.0516799
0.0516825
0.051685
0.0516875
0.05169
0.0516925
0.0516949
0.0516974
0.0516999
0.0517023
0.0517047
0.0517071
0.0517095
0.0517119
0.0517142
0.0517166
0.0517189
0.0517212
0.0517235
0.0517258
0.051728
0.0517303
0.0517325
0.0517347
0.0517367
0.0517393
0.0490266
0.0490132
0.0490123
0.0490141
0.0490167
0.0490194
0.0490222
0.0490249
0.0490277
0.0490305
0.0490333
0.049036
0.0490387
0.0490415
0.0490442
0.0490468
0.0490495
0.0490522
0.0490548
0.0490575
0.0490601
0.0490627
0.0490653
0.0490678
0.0490704
0.0490729
0.0490754
0.0490779
0.0490804
0.0490829
0.0490854
0.0490878
0.0490902
0.0490927
0.0490951
0.0490975
0.0490999
0.0491022
0.0491046
0.0491069
0.0491093
0.0491116
0.0491139
0.0491162
0.0491185
0.0491208
0.049123
0.0491253
0.0491275
0.0491297
0.0491319
0.0491341
0.0491362
0.0491384
0.0491405
0.0491426
0.0491447
0.0491467
0.0491487
0.0466282
0.0466155
0.0466146
0.0466164
0.0466188
0.0466214
0.0466241
0.0466268
0.0466294
0.0466321
0.0466347
0.0466373
0.0466399
0.0466425
0.0466451
0.0466476
0.0466502
0.0466527
0.0466552
0.0466577
0.0466602
0.0466627
0.0466651
0.0466675
0.04667
0.0466724
0.0466748
0.0466771
0.0466795
0.0466819
0.0466842
0.0466865
0.0466888
0.0466911
0.0466934
0.0466957
0.0466979
0.0467002
0.0467024
0.0467046
0.0467069
0.0467091
0.0467112
0.0467134
0.0467156
0.0467177
0.0467199
0.046722
0.0467241
0.0467262
0.0467283
0.0467304
0.0467324
0.0467344
0.0467365
0.0467384
0.0467404
0.0467424
0.0467439
0.0444045
0.0443925
0.0443917
0.0443935
0.0443958
0.0443982
0.0444008
0.0444033
0.0444058
0.0444083
0.0444108
0.0444133
0.0444158
0.0444183
0.0444207
0.0444231
0.0444255
0.0444279
0.0444303
0.0444327
0.044435
0.0444374
0.0444397
0.044442
0.0444443
0.0444466
0.0444489
0.0444511
0.0444534
0.0444556
0.0444578
0.04446
0.0444622
0.0444644
0.0444665
0.0444687
0.0444708
0.0444729
0.044475
0.0444771
0.0444792
0.0444813
0.0444834
0.0444854
0.0444875
0.0444895
0.0444916
0.0444936
0.0444956
0.0444976
0.0444995
0.0445015
0.0445034
0.0445054
0.0445073
0.0445091
0.044511
0.0445129
0.044514
0.0423453
0.042334
0.0423332
0.0423349
0.0423371
0.0423395
0.0423419
0.0423443
0.0423467
0.0423491
0.0423514
0.0423538
0.0423561
0.0423584
0.0423608
0.0423631
0.0423653
0.0423676
0.0423699
0.0423721
0.0423743
0.0423765
0.0423788
0.0423809
0.0423831
0.0423853
0.0423874
0.0423895
0.0423917
0.0423938
0.0423959
0.0423979
0.0424
0.042402
0.0424041
0.0424061
0.0424081
0.0424101
0.0424121
0.0424141
0.0424161
0.0424181
0.04242
0.042422
0.0424239
0.0424258
0.0424277
0.0424296
0.0424315
0.0424334
0.0424353
0.0424371
0.042439
0.0424408
0.0424426
0.0424444
0.0424461
0.042448
0.0424486
0.0404408
0.0404301
0.0404294
0.040431
0.0404331
0.0404353
0.0404376
0.0404399
0.0404422
0.0404444
0.0404467
0.0404489
0.0404511
0.0404533
0.0404555
0.0404577
0.0404598
0.040462
0.0404641
0.0404662
0.0404683
0.0404704
0.0404725
0.0404746
0.0404766
0.0404787
0.0404807
0.0404827
0.0404847
0.0404867
0.0404887
0.0404906
0.0404926
0.0404945
0.0404964
0.0404983
0.0405002
0.0405021
0.040504
0.0405059
0.0405078
0.0405096
0.0405115
0.0405133
0.0405151
0.0405169
0.0405187
0.0405205
0.0405223
0.0405241
0.0405258
0.0405276
0.0405293
0.040531
0.0405327
0.0405344
0.0405361
0.0405379
0.0405382
0.0386819
0.0386718
0.0386712
0.0386727
0.0386747
0.0386768
0.038679
0.0386812
0.0386833
0.0386854
0.0386876
0.0386897
0.0386918
0.0386938
0.0386959
0.0386979
0.0387
0.038702
0.038704
0.038706
0.038708
0.03871
0.0387119
0.0387139
0.0387158
0.0387177
0.0387196
0.0387215
0.0387234
0.0387253
0.0387271
0.038729
0.0387308
0.0387326
0.0387345
0.0387363
0.0387381
0.0387398
0.0387416
0.0387434
0.0387451
0.0387469
0.0387486
0.0387503
0.038752
0.0387538
0.0387554
0.0387571
0.0387588
0.0387605
0.0387621
0.0387638
0.0387654
0.038767
0.0387687
0.0387703
0.0387718
0.0387735
0.0387735
0.0370602
0.0370507
0.0370501
0.0370515
0.0370534
0.0370554
0.0370575
0.0370595
0.0370616
0.0370636
0.0370656
0.0370676
0.0370695
0.0370715
0.0370734
0.0370754
0.0370773
0.0370792
0.0370811
0.0370829
0.0370848
0.0370867
0.0370885
0.0370903
0.0370922
0.037094
0.0370958
0.0370976
0.0370993
0.0371011
0.0371028
0.0371046
0.0371063
0.037108
0.0371097
0.0371114
0.0371131
0.0371148
0.0371165
0.0371181
0.0371198
0.0371214
0.037123
0.0371247
0.0371263
0.0371279
0.0371295
0.0371311
0.0371326
0.0371342
0.0371358
0.0371373
0.0371388
0.0371404
0.0371419
0.0371434
0.0371449
0.0371465
0.0371462
0.0355678
0.0355588
0.0355583
0.0355597
0.0355615
0.0355634
0.0355653
0.0355673
0.0355692
0.0355711
0.035573
0.0355748
0.0355767
0.0355785
0.0355803
0.0355822
0.035584
0.0355857
0.0355875
0.0355893
0.035591
0.0355928
0.0355945
0.0355962
0.0355979
0.0355996
0.0356013
0.035603
0.0356047
0.0356063
0.035608
0.0356096
0.0356112
0.0356129
0.0356145
0.035616
0.0356176
0.0356192
0.0356208
0.0356223
0.0356239
0.0356254
0.0356269
0.0356285
0.03563
0.0356315
0.035633
0.0356345
0.035636
0.0356374
0.0356389
0.0356404
0.0356418
0.0356432
0.0356447
0.0356461
0.0356475
0.035649
0.0356485
0.0341976
0.0341891
0.0341887
0.03419
0.0341917
0.0341935
0.0341953
0.0341971
0.0341989
0.0342007
0.0342025
0.0342043
0.034206
0.0342077
0.0342094
0.0342111
0.0342128