/*--------------------------------*- C++ -*----------------------------------*\
  =========                 |
  \\      /  F ield         | OpenFOAM: The Open Source CFD Toolbox
   \\    /   O peration     | Website:  https://openfoam.org
    \\  /    A nd           | Version:  7
     \\/     M anipulation  |
\*---------------------------------------------------------------------------*/
FoamFile
{
    version     2.0;
    format      ascii;
    class       volScalarField;
    location    "16000";
    object      nut;
}
// * * * * * * * * * * * * * * * * * * * * * * * * * * * * * * * * * * * * * //

dimensions      [0 2 -1 0 0 0 0];

internalField   nonuniform List<scalar> 
3974
(
0.000256786
0.000256782
0.000256779
0.000256777
0.000256775
0.000256772
0.00025677
0.000256768
0.000256766
0.000256764
0.000256762
0.000256761
0.000256759
0.000256757
0.000256756
0.000256754
0.000256753
0.000256752
0.00025675
0.000256749
0.000256748
0.000256746
0.000256745
0.000256744
0.000256743
0.000256741
0.000256741
0.000256739
0.000256738
0.000256737
0.000256736
0.000256735
0.000256734
0.000256733
0.000256731
0.00025673
0.000256729
0.000256728
0.000270622
0.000270621
0.000270633
0.000270636
0.000270636
0.000270636
0.000270634
0.000270633
0.000270631
0.00027063
0.000270628
0.000270626
0.000270625
0.000270623
0.000270622
0.00027062
0.000270619
0.000270618
0.000270616
0.000270614
0.000270613
0.000270612
0.00027061
0.000270609
0.000270608
0.000270606
0.000270605
0.000270604
0.000270603
0.000270601
0.0002706
0.000270599
0.000270597
0.000270596
0.000270595
0.000270593
0.000270592
0.000270591
0.00027059
0.00027059
0.000270565
0.000270558
0.000284859
0.000284859
0.000284872
0.000284877
0.000284886
0.000284892
0.000284895
0.000284896
0.000284896
0.000284896
0.000284895
0.000284894
0.000284893
0.000284891
0.00028489
0.000284888
0.000284887
0.000284886
0.000284884
0.000284883
0.000284882
0.00028488
0.000284879
0.000284877
0.000284876
0.000284874
0.000284873
0.000284872
0.00028487
0.000284869
0.000284867
0.000284866
0.000284864
0.000284863
0.000284862
0.00028486
0.000284859
0.000284857
0.000284856
0.000284854
0.000284853
0.000284853
0.000284839
0.000284831
0.000284803
0.000284798
0.000284799
0.000284801
0.000284804
0.000284807
0.000284809
0.000284811
0.000284812
0.000284814
0.000284816
0.000284817
0.000284819
0.00028482
0.000284823
0.000299547
0.000299546
0.000299555
0.000299562
0.00029957
0.000299577
0.000299581
0.000299584
0.000299586
0.000299586
0.000299586
0.000299585
0.000299585
0.000299584
0.000299583
0.000299582
0.000299581
0.00029958
0.000299578
0.000299576
0.000299575
0.000299574
0.000299572
0.000299571
0.000299569
0.000299568
0.000299566
0.000299564
0.000299563
0.000299561
0.00029956
0.000299558
0.000299557
0.000299555
0.000299554
0.000299552
0.00029955
0.000299548
0.000299547
0.000299545
0.000299543
0.000299543
0.000299535
0.000299528
0.00029951
0.000299499
0.000299495
0.000299495
0.000299495
0.000299496
0.000299497
0.000299499
0.0002995
0.000299501
0.000299502
0.000299503
0.000299504
0.000299505
0.000299508
0.000314692
0.000314691
0.000314697
0.000314704
0.000314711
0.000314718
0.000314723
0.000314727
0.000314729
0.000314732
0.000314732
0.000314732
0.000314732
0.000314731
0.00031473
0.00031473
0.000314729
0.000314728
0.000314726
0.000314725
0.000314724
0.000314722
0.000314721
0.000314719
0.000314718
0.000314716
0.000314714
0.000314713
0.000314711
0.000314709
0.000314707
0.000314705
0.000314704
0.000314702
0.0003147
0.000314698
0.000314697
0.000314695
0.000314693
0.000314691
0.000314689
0.000314688
0.000314683
0.000314677
0.000314665
0.000314654
0.000314647
0.000314644
0.000314642
0.000314642
0.000314641
0.000314642
0.000314642
0.000314643
0.000314644
0.000314644
0.000314645
0.000314645
0.000314648
0.000330323
0.000330322
0.000330326
0.000330331
0.000330338
0.000330344
0.00033035
0.000330355
0.000330358
0.000330361
0.000330362
0.000330363
0.000330363
0.000330362
0.000330363
0.000330362
0.000330361
0.00033036
0.000330359
0.000330358
0.000330356
0.000330355
0.000330353
0.000330352
0.00033035
0.000330348
0.000330346
0.000330345
0.000330343
0.000330341
0.000330339
0.000330337
0.000330335
0.000330333
0.000330331
0.000330329
0.000330326
0.000330325
0.000330322
0.00033032
0.000330318
0.000330316
0.000330313
0.000330308
0.0003303
0.00033029
0.000330282
0.000330277
0.000330273
0.000330271
0.00033027
0.00033027
0.000330269
0.000330269
0.000330269
0.000330269
0.000330269
0.000330268
0.000330271
0.000346471
0.000346469
0.000346473
0.000346477
0.000346482
0.000346489
0.000346494
0.000346499
0.000346503
0.000346506
0.000346508
0.000346509
0.00034651
0.00034651
0.00034651
0.00034651
0.000346509
0.000346508
0.000346508
0.000346506
0.000346505
0.000346503
0.000346501
0.0003465
0.000346498
0.000346496
0.000346494
0.000346492
0.00034649
0.000346488
0.000346486
0.000346483
0.000346481
0.000346479
0.000346477
0.000346475
0.000346472
0.00034647
0.000346467
0.000346465
0.000346462
0.00034646
0.000346457
0.000346453
0.000346447
0.000346439
0.000346431
0.000346425
0.00034642
0.000346417
0.000346414
0.000346412
0.000346411
0.00034641
0.00034641
0.000346408
0.000346408
0.000346407
0.000346408
0.000363169
0.000363168
0.00036317
0.000363174
0.000363179
0.000363183
0.000363189
0.000363194
0.000363198
0.000363201
0.000363203
0.000363205
0.000363206
0.000363207
0.000363207
0.000363206
0.000363207
0.000363206
0.000363205
0.000363204
0.000363202
0.000363201
0.000363199
0.000363197
0.000363195
0.000363193
0.000363191
0.000363188
0.000363186
0.000363184
0.000363182
0.000363179
0.000363177
0.000363174
0.000363172
0.000363169
0.000363166
0.000363163
0.000363161
0.000363159
0.000363156
0.000363153
0.00036315
0.000363146
0.000363141
0.000363135
0.000363127
0.000363121
0.000363115
0.000363111
0.000363107
0.000363104
0.000363102
0.0003631
0.000363098
0.000363097
0.000363096
0.000363094
0.000363094
0.000380451
0.000380452
0.000380454
0.000380457
0.00038046
0.000380466
0.00038047
0.000380475
0.000380478
0.000380482
0.000380485
0.000380486
0.000380488
0.000380488
0.000380489
0.000380488
0.000380489
0.000380488
0.000380487
0.000380487
0.000380485
0.000380483
0.000380481
0.000380479
0.000380477
0.000380475
0.000380472
0.00038047
0.000380468
0.000380465
0.000380462
0.000380459
0.000380457
0.000380454
0.000380451
0.000380448
0.000380445
0.000380442
0.000380439
0.000380436
0.000380433
0.000380429
0.000380426
0.000380423
0.000380418
0.000380413
0.000380406
0.000380399
0.000380394
0.000380388
0.000380384
0.00038038
0.000380376
0.000380374
0.000380371
0.000380369
0.000380367
0.000380365
0.000380363
0.000398357
0.00039836
0.000398362
0.000398365
0.000398367
0.000398372
0.000398376
0.00039838
0.000398384
0.000398387
0.000398389
0.000398391
0.000398393
0.000398394
0.000398394
0.000398395
0.000398394
0.000398394
0.000398393
0.000398392
0.00039839
0.000398388
0.000398386
0.000398384
0.000398382
0.000398379
0.000398377
0.000398374
0.000398372
0.000398368
0.000398365
0.000398363
0.00039836
0.000398356
0.000398353
0.00039835
0.000398346
0.000398343
0.00039834
0.000398336
0.000398332
0.000398328
0.000398325
0.000398321
0.000398317
0.000398312
0.000398306
0.000398299
0.000398292
0.000398287
0.000398282
0.000398277
0.000398273
0.000398269
0.000398266
0.000398262
0.00039826
0.000398258
0.000398253
0.000416928
0.000416932
0.000416934
0.000416936
0.000416939
0.000416944
0.000416947
0.00041695
0.000416953
0.000416957
0.000416959
0.000416961
0.000416962
0.000416963
0.000416964
0.000416963
0.000416964
0.000416963
0.000416963
0.000416961
0.00041696
0.000416958
0.000416955
0.000416953
0.000416951
0.000416948
0.000416944
0.000416942
0.000416939
0.000416935
0.000416932
0.000416929
0.000416925
0.000416921
0.000416918
0.000416914
0.00041691
0.000416907
0.000416903
0.000416898
0.000416894
0.00041689
0.000416887
0.000416883
0.000416877
0.000416873
0.000416866
0.000416861
0.000416854
0.000416848
0.000416843
0.000416837
0.000416831
0.000416827
0.000416823
0.000416819
0.000416815
0.000416812
0.000416806
0.000436205
0.000436211
0.000436215
0.000436217
0.000436219
0.000436222
0.000436226
0.000436228
0.000436232
0.000436234
0.000436235
0.000436238
0.000436239
0.00043624
0.00043624
0.00043624
0.00043624
0.000436239
0.000436238
0.000436236
0.000436235
0.000436233
0.000436231
0.000436228
0.000436225
0.000436222
0.000436219
0.000436215
0.000436212
0.000436209
0.000436204
0.000436201
0.000436196
0.000436193
0.000436188
0.000436184
0.000436179
0.000436176
0.000436172
0.000436166
0.000436162
0.000436157
0.000436153
0.000436148
0.000436143
0.000436138
0.000436132
0.000436126
0.00043612
0.000436112
0.000436106
0.0004361
0.000436095
0.000436089
0.000436084
0.000436079
0.000436075
0.000436071
0.000436063
0.000456235
0.000456243
0.000456247
0.000456249
0.000456251
0.000456254
0.000456256
0.000456259
0.000456262
0.000456264
0.000456266
0.000456267
0.000456267
0.000456268
0.000456268
0.000456269
0.000456268
0.000456267
0.000456265
0.000456264
0.000456262
0.00045626
0.000456257
0.000456254
0.00045625
0.000456247
0.000456244
0.00045624
0.000456237
0.000456232
0.000456227
0.000456224
0.000456219
0.000456215
0.00045621
0.000456206
0.0004562
0.000456195
0.00045619
0.000456185
0.00045618
0.000456174
0.00045617
0.000456164
0.000456159
0.000456153
0.000456148
0.000456141
0.000456135
0.000456128
0.000456121
0.000456114
0.000456107
0.000456101
0.000456095
0.00045609
0.000456083
0.00045608
0.000456069
0.000477063
0.000477076
0.00047708
0.000477082
0.000477085
0.000477086
0.000477089
0.000477092
0.000477093
0.000477094
0.000477096
0.000477096
0.000477097
0.000477097
0.000477096
0.000477096
0.000477095
0.000477095
0.000477092
0.000477092
0.000477089
0.000477086
0.000477082
0.000477079
0.000477076
0.000477072
0.000477068
0.000477064
0.000477059
0.000477055
0.00047705
0.000477044
0.00047704
0.000477035
0.000477029
0.000477025
0.000477019
0.000477013
0.000477008
0.000477002
0.000476996
0.000476991
0.000476985
0.000476978
0.000476973
0.000476966
0.000476959
0.000476954
0.000476947
0.000476939
0.000476932
0.000476925
0.000476917
0.00047691
0.000476904
0.000476897
0.000476891
0.000476885
0.00047687
0.000498742
0.000498759
0.000498763
0.000498766
0.000498767
0.000498769
0.000498772
0.000498773
0.000498775
0.000498776
0.000498776
0.000498776
0.000498776
0.000498775
0.000498775
0.000498774
0.000498774
0.000498772
0.000498771
0.000498768
0.000498765
0.000498761
0.000498758
0.000498755
0.00049875
0.000498747
0.000498741
0.000498736
0.000498731
0.000498727
0.000498721
0.000498715
0.000498709
0.000498703
0.000498699
0.000498692
0.000498686
0.00049868
0.000498673
0.000498666
0.000498661
0.000498654
0.000498647
0.00049864
0.000498635
0.000498627
0.00049862
0.000498612
0.000498605
0.000498597
0.000498589
0.000498581
0.000498574
0.000498566
0.000498558
0.00049855
0.000498544
0.000498539
0.00049852
0.000521323
0.000521344
0.000521349
0.000521352
0.000521354
0.000521355
0.000521357
0.000521358
0.00052136
0.00052136
0.000521359
0.000521359
0.000521359
0.000521358
0.000521356
0.000521356
0.000521355
0.000521352
0.00052135
0.000521347
0.000521344
0.000521339
0.000521336
0.00052133
0.000521327
0.000521321
0.000521316
0.00052131
0.000521304
0.0005213
0.000521294
0.000521287
0.000521281
0.000521274
0.000521268
0.000521261
0.000521254
0.000521247
0.00052124
0.000521233
0.000521225
0.000521218
0.00052121
0.000521202
0.000521196
0.000521189
0.000521181
0.000521172
0.000521164
0.000521156
0.000521147
0.000521138
0.00052113
0.000521121
0.000521112
0.000521105
0.000521097
0.00052109
0.000521068
0.000544864
0.000544889
0.000544895
0.000544898
0.0005449
0.000544901
0.000544903
0.000544903
0.000544904
0.000544904
0.000544904
0.000544901
0.000544901
0.000544898
0.000544898
0.000544895
0.000544892
0.000544889
0.000544886
0.000544883
0.00054488
0.000544875
0.000544871
0.000544865
0.00054486
0.000544854
0.000544847
0.000544841
0.000544835
0.000544828
0.000544821
0.000544815
0.000544808
0.0005448
0.000544793
0.000544786
0.000544778
0.000544771
0.000544763
0.000544755
0.000544745
0.000544737
0.000544729
0.00054472
0.000544712
0.000544703
0.000544695
0.000544686
0.000544677
0.000544668
0.000544659
0.000544649
0.00054464
0.00054463
0.000544621
0.000544611
0.000544602
0.000544596
0.000544571
0.000569419
0.000569449
0.000569457
0.000569461
0.000569463
0.000569462
0.000569464
0.000569464
0.000569463
0.000569463
0.000569462
0.000569459
0.000569457
0.000569456
0.000569453
0.00056945
0.000569447
0.000569444
0.000569441
0.000569435
0.000569431
0.000569425
0.000569419
0.000569413
0.000569409
0.000569402
0.000569393
0.000569387
0.00056938
0.000569372
0.000569365
0.000569358
0.00056935
0.00056934
0.000569332
0.000569324
0.000569316
0.000569308
0.000569297
0.000569288
0.00056928
0.000569271
0.000569262
0.000569251
0.000569242
0.000569232
0.000569223
0.000569214
0.000569204
0.000569194
0.000569184
0.000569174
0.000569162
0.000569152
0.000569141
0.000569131
0.000569121
0.000569115
0.000569084
0.000595052
0.000595087
0.000595096
0.0005951
0.0005951
0.000595102
0.000595101
0.000595101
0.0005951
0.000595099
0.000595096
0.000595093
0.00059509
0.000595087
0.000595084
0.00059508
0.000595077
0.000595073
0.000595067
0.000595063
0.000595057
0.00059505
0.000595044
0.000595037
0.00059503
0.000595023
0.000595015
0.000595008
0.000595
0.00059499
0.000594982
0.000594974
0.000594965
0.000594954
0.000594946
0.000594937
0.000594926
0.000594917
0.000594908
0.000594896
0.000594887
0.000594877
0.000594865
0.000594855
0.000594845
0.000594835
0.000594823
0.000594812
0.000594802
0.000594791
0.000594781
0.000594767
0.000594756
0.000594745
0.000594734
0.000594723
0.000594712
0.000594703
0.00059467
0.000621822
0.000621864
0.000621874
0.000621876
0.000621878
0.000621877
0.000621879
0.000621879
0.000621875
0.000621874
0.000621871
0.000621868
0.000621864
0.000621858
0.000621854
0.00062185
0.000621846
0.000621839
0.000621835
0.000621828
0.000621821
0.000621814
0.000621807
0.000621799
0.000621791
0.000621783
0.000621773
0.000621764
0.000621756
0.000621745
0.000621736
0.000621725
0.000621716
0.000621706
0.000621694
0.000621685
0.000621672
0.000621663
0.000621653
0.00062164
0.00062163
0.000621617
0.000621606
0.000621593
0.000621582
0.000621571
0.000621558
0.000621547
0.000621535
0.000621521
0.00062151
0.000621498
0.000621486
0.000621472
0.00062146
0.000621447
0.000621435
0.000621426
0.000621389
0.000649795
0.000649844
0.000649855
0.00064986
0.000649859
0.000649859
0.000649858
0.000649857
0.000649856
0.000649852
0.000649848
0.000649844
0.000649837
0.000649833
0.000649829
0.000649822
0.000649817
0.00064981
0.000649802
0.000649794
0.000649786
0.000649778
0.00064977
0.000649762
0.000649753
0.000649742
0.000649733
0.000649724
0.000649712
0.000649702
0.00064969
0.00064968
0.000649667
0.000649657
0.000649644
0.000649634
0.00064962
0.00064961
0.000649596
0.000649582
0.000649571
0.000649557
0.000649545
0.000649531
0.000649519
0.000649507
0.000649492
0.00064948
0.000649465
0.000649453
0.000649438
0.000649425
0.000649412
0.000649396
0.000649383
0.00064937
0.000649354
0.000649347
0.000649304
0.000679038
0.000679095
0.000679107
0.000679112
0.000679111
0.000679111
0.00067911
0.000679109
0.000679104
0.0006791
0.000679095
0.000679088
0.000679083
0.000679078
0.00067907
0.000679062
0.000679057
0.000679049
0.00067904
0.000679032
0.000679023
0.000679014
0.000679005
0.000678992
0.000678983
0.00067897
0.00067896
0.000678947
0.000678937
0.000678924
0.000678913
0.000678899
0.000678885
0.000678874
0.00067886
0.000678849
0.000678834
0.000678819
0.000678807
0.000678792
0.00067878
0.000678765
0.000678749
0.000678736
0.000678721
0.000678708
0.000678692
0.000678678
0.000678662
0.000678649
0.000678632
0.000678618
0.000678601
0.000678587
0.000678573
0.000678556
0.000678542
0.000678531
0.000678484
0.00070962
0.000709683
0.0007097
0.000709702
0.000709701
0.0007097
0.000709699
0.000709694
0.000709693
0.000709685
0.00070968
0.000709674
0.000709666
0.00070966
0.000709651
0.000709642
0.000709633
0.000709627
0.000709618
0.000709604
0.000709595
0.000709585
0.000709571
0.000709561
0.000709547
0.000709536
0.000709522
0.000709511
0.000709496
0.000709482
0.00070947
0.000709455
0.000709439
0.000709427
0.000709412
0.000709396
0.000709383
0.000709367
0.000709351
0.000709338
0.000709321
0.000709304
0.000709291
0.000709273
0.000709256
0.000709242
0.000709224
0.00070921
0.000709192
0.000709174
0.00070916
0.000709141
0.000709126
0.000709108
0.000709093
0.000709077
0.000709058
0.000709047
0.000708995
0.000741611
0.000741684
0.000741698
0.000741705
0.000741704
0.000741703
0.000741697
0.000741692
0.000741686
0.000741681
0.000741675
0.000741665
0.000741659
0.000741649
0.000741639
0.000741629
0.000741619
0.000741608
0.000741598
0.000741587
0.000741576
0.000741561
0.00074155
0.000741535
0.000741523
0.000741508
0.000741492
0.00074148
0.000741464
0.000741447
0.000741435
0.000741418
0.000741401
0.000741384
0.00074137
0.000741353
0.000741335
0.000741318
0.000741304
0.000741286
0.000741267
0.000741249
0.000741234
0.000741215
0.000741196
0.000741177
0.000741162
0.000741143
0.000741127
0.000741108
0.000741088
0.000741072
0.000741052
0.000741035
0.000741015
0.000740999
0.000740978
0.000740965
0.000740908
0.000775079
0.000775164
0.00077518
0.000775183
0.000775182
0.00077518
0.000775179
0.000775172
0.000775166
0.000775156
0.000775149
0.000775138
0.000775131
0.00077512
0.000775109
0.000775098
0.000775086
0.000775074
0.000775063
0.000775046
0.000775034
0.000775018
0.000775005
0.000774988
0.000774971
0.000774958
0.000774941
0.000774923
0.000774905
0.000774891
0.000774873
0.000774855
0.000774836
0.000774817
0.000774803
0.000774784
0.000774764
0.000774745
0.000774725
0.00077471
0.00077469
0.00077467
0.000774649
0.000774633
0.000774613
0.000774592
0.000774571
0.000774554
0.000774533
0.000774511
0.000774494
0.000774472
0.000774451
0.000774433
0.000774411
0.000774393
0.00077437
0.000774357
0.000774294
0.000810102
0.000810197
0.000810214
0.000810217
0.000810215
0.000810213
0.000810207
0.0008102
0.000810193
0.000810186
0.000810173
0.000810166
0.000810154
0.000810141
0.000810129
0.000810116
0.000810103
0.00081009
0.000810072
0.000810059
0.00081004
0.000810027
0.000810008
0.000809989
0.000809975
0.000809956
0.000809937
0.000809917
0.000809902
0.000809882
0.000809862
0.000809842
0.000809822
0.000809801
0.000809785
0.000809764
0.000809743
0.000809721
0.0008097
0.000809678
0.000809656
0.000809639
0.000809617
0.000809594
0.000809572
0.000809549
0.000809531
0.000809508
0.000809485
0.000809466
0.000809443
0.000809419
0.0008094
0.000809376
0.000809352
0.000809332
0.000809308
0.000809293
0.000809225
0.000846749
0.000846853
0.000846878
0.000846881
0.000846879
0.000846871
0.000846863
0.000846856
0.000846848
0.00084684
0.000846826
0.000846812
0.000846799
0.000846785
0.000846771
0.000846756
0.000846742
0.000846727
0.000846707
0.000846693
0.000846672
0.000846657
0.000846636
0.000846616
0.000846595
0.000846579
0.000846557
0.000846536
0.000846514
0.000846492
0.00084647
0.000846453
0.00084643
0.000846407
0.000846385
0.000846361
0.000846338
0.000846315
0.000846291
0.000846273
0.000846249
0.000846224
0.0008462
0.000846176
0.000846151
0.000846131
0.000846106
0.000846081
0.000846056
0.000846036
0.00084601
0.000845984
0.000845958
0.000845937
0.000845911
0.00084589
0.000845863
0.000845847
0.000845772
0.000885091
0.000885206
0.000885233
0.000885236
0.000885234
0.000885225
0.000885222
0.000885214
0.000885199
0.00088519
0.000885174
0.000885159
0.000885144
0.000885128
0.000885112
0.000885097
0.00088508
0.000885058
0.000885042
0.00088502
0.000885003
0.00088498
0.000884957
0.00088494
0.000884917
0.000884893
0.000884869
0.000884846
0.000884821
0.000884797
0.000884779
0.000884754
0.000884729
0.000884704
0.000884679
0.000884654
0.000884628
0.000884602
0.000884576
0.000884556
0.00088453
0.000884503
0.000884476
0.00088445
0.000884423
0.000884401
0.000884374
0.000884346
0.000884319
0.000884291
0.000884269
0.000884241
0.000884212
0.00088419
0.000884161
0.000884132
0.000884109
0.000884092
0.000884009
0.000925204
0.000925331
0.00092536
0.000925364
0.000925361
0.000925351
0.000925348
0.000925331
0.000925321
0.000925304
0.000925294
0.000925277
0.00092526
0.000925242
0.000925225
0.0009252
0.000925183
0.000925164
0.00092514
0.000925121
0.000925096
0.000925071
0.000925052
0.000925026
0.000925
0.000924974
0.000924948
0.000924922
0.000924895
0.000924868
0.000924848
0.000924821
0.000924793
0.000924766
0.000924738
0.00092471
0.000924682
0.000924653
0.000924631
0.000924603
0.000924574
0.000924545
0.000924516
0.000924486
0.000924456
0.000924433
0.000924403
0.000924373
0.000924343
0.000924319
0.000924288
0.000924257
0.000924226
0.000924202
0.00092417
0.000924145
0.000924114
0.000924095
0.000924004
0.000967152
0.0009673
0.000967333
0.000967329
0.000967325
0.000967322
0.000967311
0.000967299
0.000967281
0.000967269
0.00096725
0.000967231
0.000967212
0.000967192
0.000967173
0.000967146
0.000967126
0.000967106
0.000967078
0.000967058
0.00096703
0.000967002
0.000966973
0.000966952
0.000966924
0.000966895
0.000966866
0.000966836
0.000966807
0.000966777
0.000966747
0.000966717
0.000966694
0.000966664
0.000966633
0.000966603
0.000966572
0.00096654
0.000966509
0.000966485
0.000966453
0.000966421
0.000966389
0.000966357
0.000966324
0.000966299
0.000966266
0.000966233
0.0009662
0.000966173
0.00096614
0.000966106
0.000966072
0.000966046
0.000966011
0.000965984
0.000965949
0.000965929
0.000965836
0.00101101
0.00101117
0.00101121
0.0010112
0.0010112
0.0010112
0.00101118
0.00101117
0.00101115
0.00101113
0.00101112
0.00101109
0.00101107
0.00101105
0.00101103
0.001011
0.00101098
0.00101095
0.00101092
0.00101089
0.00101087
0.00101084
0.00101081
0.00101078
0.00101074
0.00101072
0.00101069
0.00101066
0.00101062
0.00101059
0.00101056
0.00101052
0.00101049
0.00101047
0.00101043
0.0010104
0.00101036
0.00101033
0.00101029
0.00101026
0.00101023
0.0010102
0.00101016
0.00101013
0.00101009
0.00101006
0.00101003
0.00100999
0.00100996
0.00100993
0.00100989
0.00100985
0.00100982
0.00100979
0.00100976
0.00100972
0.00100968
0.00100966
0.00100956
0.00105684
0.00105702
0.00105705
0.00105706
0.00105705
0.00105704
0.00105702
0.00105701
0.00105699
0.00105697
0.00105695
0.00105692
0.0010569
0.00105688
0.00105685
0.00105683
0.00105679
0.00105677
0.00105673
0.00105671
0.00105667
0.00105664
0.00105661
0.00105658
0.00105654
0.00105651
0.00105647
0.00105644
0.00105641
0.00105637
0.00105634
0.0010563
0.00105626
0.00105623
0.00105619
0.00105616
0.00105612
0.00105609
0.00105605
0.00105601
0.00105598
0.00105594
0.0010559
0.00105586
0.00105583
0.00105579
0.00105575
0.00105572
0.00105568
0.00105564
0.00105561
0.00105557
0.00105553
0.0010555
0.00105546
0.00105542
0.00105538
0.00105536
0.00105526
0.0011047
0.0011049
0.00110494
0.00110494
0.00110494
0.00110492
0.0011049
0.00110489
0.00110486
0.00110485
0.00110482
0.00110479
0.00110477
0.00110474
0.00110471
0.00110468
0.00110465
0.00110462
0.00110458
0.00110455
0.00110451
0.00110448
0.00110445
0.00110441
0.00110437
0.00110433
0.00110429
0.00110425
0.00110422
0.00110418
0.00110414
0.0011041
0.00110406
0.00110403
0.00110399
0.00110395
0.0011039
0.00110387
0.00110383
0.00110379
0.00110375
0.00110371
0.00110367
0.00110363
0.0011036
0.00110355
0.00110351
0.00110347
0.00110343
0.00110339
0.00110335
0.00110331
0.00110327
0.00110323
0.00110318
0.00110315
0.0011031
0.00110308
0.00110297
0.00115466
0.00115487
0.00115492
0.00115491
0.0011549
0.00115489
0.00115488
0.00115485
0.00115483
0.0011548
0.00115477
0.00115475
0.00115472
0.00115469
0.00115465
0.00115462
0.00115459
0.00115455
0.00115452
0.00115448
0.00115445
0.0011544
0.00115436
0.00115432
0.00115428
0.00115424
0.0011542
0.00115415
0.00115412
0.00115408
0.00115403
0.00115399
0.00115395
0.00115391
0.00115386
0.00115382
0.00115378
0.00115374
0.00115369
0.00115365
0.00115361
0.00115356
0.00115352
0.00115348
0.00115343
0.00115339
0.00115335
0.00115331
0.00115326
0.00115321
0.00115317
0.00115313
0.00115309
0.00115304
0.001153
0.00115295
0.00115291
0.00115287
0.00115277
0.00120674
0.00120698
0.00120703
0.00120702
0.00120701
0.00120701
0.00120699
0.00120695
0.00120693
0.0012069
0.00120688
0.00120685
0.00120681
0.00120678
0.00120675
0.0012067
0.00120667
0.00120663
0.00120658
0.00120655
0.0012065
0.00120646
0.00120642
0.00120637
0.00120632
0.00120629
0.00120624
0.00120619
0.00120614
0.00120611
0.00120606
0.00120601
0.00120597
0.00120592
0.00120587
0.00120583
0.00120578
0.00120573
0.00120569
0.00120564
0.00120559
0.00120555
0.0012055
0.00120546
0.00120541
0.00120537
0.00120531
0.00120527
0.00120522
0.00120518
0.00120513
0.00120508
0.00120503
0.00120499
0.00120493
0.00120489
0.00120485
0.00120481
0.00120469
0.00126102
0.00126127
0.00126132
0.00126132
0.00126131
0.00126129
0.00126127
0.00126124
0.00126121
0.00126118
0.00126115
0.00126111
0.00126108
0.00126104
0.001261
0.00126096
0.00126092
0.00126088
0.00126083
0.00126079
0.00126074
0.0012607
0.00126065
0.0012606
0.00126055
0.0012605
0.00126045
0.0012604
0.00126035
0.00126031
0.00126026
0.00126021
0.00126016
0.00126011
0.00126006
0.00126001
0.00125996
0.00125991
0.00125986
0.00125981
0.00125976
0.00125971
0.00125966
0.00125961
0.00125956
0.0012595
0.00125945
0.0012594
0.00125935
0.0012593
0.00125925
0.0012592
0.00125915
0.0012591
0.00125905
0.001259
0.00125895
0.00125891
0.0012588
0.0013175
0.00131777
0.00131782
0.00131782
0.00131781
0.00131779
0.00131776
0.00131774
0.0013177
0.00131767
0.00131764
0.0013176
0.00131756
0.00131752
0.00131748
0.00131743
0.00131739
0.00131734
0.00131729
0.00131724
0.00131719
0.00131714
0.00131709
0.00131704
0.00131698
0.00131693
0.00131688
0.00131682
0.00131677
0.00131672
0.00131666
0.00131661
0.00131656
0.0013165
0.00131645
0.0013164
0.00131634
0.00131629
0.00131623
0.00131618
0.00131612
0.00131607
0.00131602
0.00131596
0.00131591
0.00131585
0.0013158
0.00131575
0.00131569
0.00131564
0.00131558
0.00131553
0.00131547
0.00131542
0.00131537
0.00131531
0.00131526
0.00131521
0.0013151
0.00137621
0.0013765
0.00137656
0.00137656
0.00137655
0.00137652
0.0013765
0.00137647
0.00137643
0.00137639
0.00137635
0.00137631
0.00137627
0.00137623
0.00137618
0.00137613
0.00137608
0.00137603
0.00137598
0.00137593
0.00137587
0.00137581
0.00137576
0.0013757
0.00137565
0.00137559
0.00137553
0.00137547
0.00137542
0.00137536
0.0013753
0.00137524
0.00137518
0.00137513
0.00137507
0.00137501
0.00137495
0.0013749
0.00137484
0.00137478
0.00137472
0.00137466
0.0013746
0.00137455
0.00137449
0.00137443
0.00137437
0.00137431
0.00137426
0.0013742
0.00137414
0.00137408
0.00137403
0.00137397
0.00137391
0.00137385
0.00137379
0.00137374
0.00137363
0.00143717
0.00143748
0.00143754
0.00143754
0.00143752
0.0014375
0.00143747
0.00143743
0.0014374
0.00143736
0.00143731
0.00143727
0.00143722
0.00143718
0.00143712
0.00143707
0.00143702
0.00143697
0.00143691
0.00143685
0.00143679
0.00143673
0.00143667
0.00143661
0.00143655
0.00143649
0.00143642
0.00143636
0.0014363
0.00143624
0.00143618
0.00143611
0.00143605
0.00143599
0.00143593
0.00143586
0.0014358
0.00143574
0.00143568
0.00143562
0.00143555
0.00143549
0.00143543
0.00143537
0.00143531
0.00143524
0.00143518
0.00143512
0.00143506
0.001435
0.00143493
0.00143487
0.00143481
0.00143475
0.00143469
0.00143463
0.00143456
0.00143451
0.0014344
0.00150036
0.0015007
0.00150076
0.00150076
0.00150074
0.00150071
0.00150068
0.00150064
0.0015006
0.00150056
0.00150051
0.00150046
0.00150041
0.00150036
0.00150031
0.00150025
0.00150019
0.00150013
0.00150007
0.00150001
0.00149995
0.00149988
0.00149982
0.00149975
0.00149968
0.00149962
0.00149955
0.00149949
0.00149942
0.00149935
0.00149929
0.00149922
0.00149915
0.00149908
0.00149902
0.00149895
0.00149889
0.00149882
0.00149875
0.00149869
0.00149862
0.00149855
0.00149849
0.00149842
0.00149836
0.00149829
0.00149822
0.00149816
0.00149809
0.00149802
0.00149796
0.00149789
0.00149783
0.00149776
0.0014977
0.00149763
0.00149757
0.00149751
0.0014974
0.00156577
0.00156613
0.0015662
0.0015662
0.00156617
0.00156614
0.00156611
0.00156607
0.00156602
0.00156598
0.00156593
0.00156587
0.00156582
0.00156576
0.00156571
0.00156565
0.00156558
0.00156552
0.00156545
0.00156539
0.00156532
0.00156525
0.00156518
0.00156511
0.00156504
0.00156497
0.0015649
0.00156482
0.00156475
0.00156468
0.00156461
0.00156454
0.00156447
0.0015644
0.00156433
0.00156425
0.00156418
0.00156411
0.00156404
0.00156397
0.0015639
0.00156383
0.00156376
0.00156369
0.00156362
0.00156355
0.00156348
0.00156341
0.00156334
0.00156327
0.0015632
0.00156313
0.00156306
0.00156299
0.00156292
0.00156285
0.00156278
0.00156272
0.00156262
0.00163336
0.00163374
0.00163382
0.00163381
0.00163379
0.00163376
0.00163371
0.00163367
0.00163362
0.00163357
0.00163352
0.00163346
0.00163341
0.00163335
0.00163328
0.00163322
0.00163315
0.00163308
0.00163301
0.00163294
0.00163287
0.00163279
0.00163272
0.00163264
0.00163257
0.00163249
0.00163241
0.00163234
0.00163226
0.00163219
0.00163211
0.00163204
0.00163196
0.00163188
0.00163181
0.00163173
0.00163166
0.00163158
0.00163151
0.00163143
0.00163136
0.00163128
0.00163121
0.00163113
0.00163106
0.00163099
0.00163091
0.00163083
0.00163076
0.00163069
0.00163061
0.00163054
0.00163047
0.00163039
0.00163032
0.00163025
0.00163017
0.0016301
0.00163002
0.00170308
0.00170348
0.00170355
0.00170355
0.00170352
0.00170349
0.00170345
0.0017034
0.00170335
0.00170329
0.00170323
0.00170317
0.00170311
0.00170305
0.00170298
0.00170291
0.00170284
0.00170277
0.00170269
0.00170261
0.00170254
0.00170246
0.00170238
0.0017023
0.00170222
0.00170214
0.00170206
0.00170198
0.00170189
0.00170181
0.00170173
0.00170165
0.00170157
0.00170149
0.00170141
0.00170133
0.00170125
0.00170117
0.00170109
0.00170101
0.00170093
0.00170085
0.00170077
0.0017007
0.00170062
0.00170054
0.00170046
0.00170038
0.0017003
0.00170023
0.00170015
0.00170007
0.00169999
0.00169992
0.00169984
0.00169976
0.00169968
0.00169961
0.00169953
0.00177483
0.00177526
0.00177534
0.00177533
0.0017753
0.00177526
0.00177522
0.00177517
0.00177511
0.00177505
0.00177499
0.00177493
0.00177486
0.00177479
0.00177472
0.00177465
0.00177457
0.00177449
0.00177441
0.00177433
0.00177425
0.00177416
0.00177408
0.00177399
0.00177391
0.00177382
0.00177374
0.00177365
0.00177357
0.00177348
0.0017734
0.00177331
0.00177323
0.00177314
0.00177306