/*--------------------------------*- C++ -*----------------------------------*\
  =========                 |
  \\      /  F ield         | OpenFOAM: The Open Source CFD Toolbox
   \\    /   O peration     | Website:  https://openfoam.org
    \\  /    A nd           | Version:  7
     \\/     M anipulation  |
\*---------------------------------------------------------------------------*/
FoamFile
{
    version     2.0;
    format      ascii;
    class       surfaceScalarField;
    location    "17000";
    object      phi;
}
// * * * * * * * * * * * * * * * * * * * * * * * * * * * * * * * * * * * * * //

dimensions      [0 3 -1 0 0 0 0];

internalField   nonuniform List<scalar> 
7821
(
0.000124765
2.1551e-10
0.000124765
2.52075e-10
0.000124765
2.68282e-10
0.000124765
2.75271e-10
0.000124765
2.77619e-10
0.000124765
2.77104e-10
0.000124765
2.77322e-10
0.000124765
2.8021e-10
0.000124765
2.86604e-10
0.000124766
2.96863e-10
0.000124766
3.0979e-10
0.000124766
3.26221e-10
0.000124766
3.43904e-10
0.000124766
3.60796e-10
0.000124766
3.77313e-10
0.000124766
3.92366e-10
0.000124766
4.05077e-10
0.000124766
4.16547e-10
0.000124766
4.25257e-10
0.000124766
4.31032e-10
0.000124766
4.36376e-10
0.000124766
4.38566e-10
0.000124766
4.38533e-10
0.000124766
4.37259e-10
0.000124766
4.33963e-10
0.000124766
4.29546e-10
0.000124766
4.24689e-10
0.000124766
4.1826e-10
0.000124766
4.0981e-10
0.000124766
4.02204e-10
0.000124766
3.93631e-10
0.000124766
3.81973e-10
0.000124766
3.70167e-10
0.000124766
3.59538e-10
0.000124766
3.45914e-10
0.000124766
3.31214e-10
0.000124766
3.1247e-10
3.10715e-10
0.000128863
-2.3e-11
0.000128863
8.33465e-11
0.000128863
1.39282e-10
0.000128863
1.81988e-10
0.000128863
2.05661e-10
0.000128863
2.17602e-10
0.000128863
2.23704e-10
0.000128863
2.26517e-10
0.000128863
2.29437e-10
0.000128863
2.34195e-10
0.000128863
2.42338e-10
0.000128864
2.54493e-10
0.000128864
2.69019e-10
0.000128864
2.86557e-10
0.000128864
3.05182e-10
0.000128864
3.23746e-10
0.000128864
3.42062e-10
0.000128864
3.58752e-10
0.000128864
3.72858e-10
0.000128864
3.85241e-10
0.000128864
3.95937e-10
0.000128864
4.03844e-10
0.000128864
4.10903e-10
0.000128864
4.15025e-10
0.000128864
4.16922e-10
0.000128864
4.17638e-10
0.000128864
4.16331e-10
0.000128864
4.1383e-10
0.000128864
4.10739e-10
0.000128864
4.06529e-10
0.000128864
4.00571e-10
0.000128864
3.94523e-10
0.000128864
3.87677e-10
0.000128864
3.78013e-10
0.000128864
3.67906e-10
0.000128864
3.59328e-10
0.000128864
3.47378e-10
0.000128864
3.35059e-10
0.000128864
3.15737e-10
0.000128864
3.29982e-10
0.000128864
3.39968e-10
3.09155e-10
0.000133049
-5.01162e-10
0.000133049
-2.26001e-10
0.000133049
-4.48016e-11
0.000133049
5.26939e-11
0.000133049
9.16855e-11
0.000133049
1.24629e-10
0.000133049
1.46476e-10
0.000133049
1.59048e-10
0.000133049
1.66659e-10
0.000133049
1.72055e-10
0.000133049
1.77489e-10
0.000133049
1.8363e-10
0.000133049
1.93392e-10
0.000133049
2.07729e-10
0.000133049
2.23668e-10
0.000133049
2.42383e-10
0.000133049
2.6263e-10
0.000133049
2.83017e-10
0.000133049
3.03267e-10
0.00013305
3.21656e-10
0.00013305
3.37211e-10
0.00013305
3.51212e-10
0.00013305
3.64057e-10
0.00013305
3.74157e-10
0.00013305
3.83257e-10
0.00013305
3.89526e-10
0.00013305
3.93581e-10
0.00013305
3.96491e-10
0.00013305
3.97372e-10
0.00013305
3.96996e-10
0.00013305
3.9614e-10
0.00013305
3.94252e-10
0.00013305
3.90845e-10
0.00013305
3.8644e-10
0.00013305
3.81422e-10
0.00013305
3.74192e-10
0.00013305
3.65969e-10
0.00013305
3.59315e-10
0.00013305
3.49242e-10
0.00013305
3.3952e-10
0.00013305
3.2213e-10
0.00013305
3.31938e-10
0.00013305
3.51754e-10
0.00013305
3.60071e-10
0.00013305
3.40521e-10
0.00013305
2.6242e-10
0.000133049
1.73061e-10
0.000133049
8.9106e-11
0.000133049
9.05506e-12
0.000133049
-6.85725e-11
0.000133049
-1.44657e-10
0.000133049
-2.20646e-10
0.000133049
-2.93197e-10
0.000133049
-3.61514e-10
0.000133049
-4.1115e-10
0.000133049
-4.54814e-10
0.000133049
-4.31879e-10
0.000133049
-4.08873e-10
-1.94656e-10
0.000137325
-4.73058e-10
0.000137325
-2.00065e-10
0.000137325
-4.05252e-11
0.000137325
4.18282e-11
0.000137325
6.65384e-11
0.000137325
8.49946e-11
0.000137325
9.80087e-11
0.000137325
1.06296e-10
0.000137325
1.12139e-10
0.000137326
1.17709e-10
0.000137326
1.24358e-10
0.000137326
1.31411e-10
0.000137326
1.42314e-10
0.000137326
1.58331e-10
0.000137326
1.75665e-10
0.000137326
1.95561e-10
0.000137326
2.17721e-10
0.000137326
2.39629e-10
0.000137326
2.61531e-10
0.000137326
2.82021e-10
0.000137326
2.99411e-10
0.000137326
3.15402e-10
0.000137326
3.30221e-10
0.000137326
3.4242e-10
0.000137326
3.53844e-10
0.000137326
3.62563e-10
0.000137326
3.6899e-10
0.000137326
3.74246e-10
0.000137326
3.77469e-10
0.000137326
3.7952e-10
0.000137326
3.81382e-10
0.000137326
3.81855e-10
0.000137326
3.80661e-10
0.000137326
3.78199e-10
0.000137326
3.75219e-10
0.000137326
3.70585e-10
0.000137326
3.64696e-10
0.000137326
3.59877e-10
0.000137326
3.5195e-10
0.000137326
3.44678e-10
0.000137326
3.30363e-10
0.000137326
3.31872e-10
0.000137326
3.50026e-10
0.000137326
3.73178e-10
0.000137326
3.81918e-10
0.000137326
3.36529e-10
0.000137326
2.59034e-10
0.000137326
1.75293e-10
0.000137326
9.22907e-11
0.000137326
1.08638e-11
0.000137326
-6.90163e-11
0.000137326
-1.48262e-10
0.000137326
-2.24319e-10
0.000137326
-2.95868e-10
0.000137326
-3.48469e-10
0.000137325
-3.95666e-10
0.000137325
-3.74193e-10
0.000137325
-3.57092e-10
-1.30169e-10
0.000141695
-4.55614e-10
0.000141695
-1.72934e-10
0.000141695
-2.27907e-11
0.000141695
4.62399e-11
0.000141695
5.8497e-11
0.000141695
6.21458e-11
0.000141695
6.31255e-11
0.000141695
6.32562e-11
0.000141696
6.42009e-11
0.000141696
6.73498e-11
0.000141696
7.29733e-11
0.000141696
8.02248e-11
0.000141696
9.1782e-11
0.000141696
1.08093e-10
0.000141696
1.26614e-10
0.000141696
1.48117e-10
0.000141696
1.71695e-10
0.000141696
1.94592e-10
0.000141696
2.17939e-10
0.000141696
2.4097e-10
0.000141696
2.60446e-10
0.000141696
2.78426e-10
0.000141696
2.95405e-10
0.000141696
3.09595e-10
0.000141696
3.23251e-10
0.000141696
3.34717e-10
0.000141696
3.43688e-10
0.000141696
3.51372e-10
0.000141696
3.57056e-10
0.000141696
3.61906e-10
0.000141696
3.66575e-10
0.000141696
3.69302e-10
0.000141696
3.70387e-10
0.000141696
3.70162e-10
0.000141696
3.69478e-10
0.000141696
3.67751e-10
0.000141696
3.64116e-10
0.000141696
3.61353e-10
0.000141696
3.55943e-10
0.000141696
3.50199e-10
0.000141696
3.39798e-10
0.000141696
3.35149e-10
0.000141696
3.46495e-10
0.000141696
3.70747e-10
0.000141696
3.93898e-10
0.000141696
3.79677e-10
0.000141696
3.24984e-10
0.000141696
2.51571e-10
0.000141696
1.71367e-10
0.000141696
8.93507e-11
0.000141696
7.81763e-12
0.000141696
-7.31039e-11
0.000141696
-1.51434e-10
0.000141696
-2.25654e-10
0.000141696
-2.81042e-10
0.000141696
-3.31605e-10
0.000141696
-3.12118e-10
0.000141695
-3.00875e-10
-6.75988e-11
0.000146162
-4.47339e-10
0.000146162
-1.51192e-10
0.000146162
-1.8369e-12
0.000146162
5.94394e-11
0.000146162
6.21043e-11
0.000146162
5.27988e-11
0.000146162
4.14249e-11
0.000146162
3.12603e-11
0.000146162
2.5138e-11
0.000146162
2.35603e-11
0.000146162
2.60557e-11
0.000146162
3.24338e-11
0.000146162
4.35376e-11
0.000146162
5.91197e-11
0.000146162
7.83947e-11
0.000146162
1.01374e-10
0.000146162
1.25657e-10
0.000146162
1.49367e-10
0.000146163
1.7414e-10
0.000146163
1.99355e-10
0.000146163
2.20925e-10
0.000146163
2.40908e-10
0.000146163
2.60211e-10
0.000146163
2.76629e-10
0.000146163
2.92527e-10
0.000146163
3.06687e-10
0.000146163
3.18268e-10
0.000146163
3.28366e-10
0.000146163
3.36618e-10
0.000146163
3.44318e-10
0.000146163
3.51817e-10
0.000146163
3.56966e-10
0.000146163
3.60438e-10
0.000146163
3.62796e-10
0.000146163
3.64683e-10
0.000146163
3.65805e-10
0.000146163
3.64674e-10
0.000146163
3.64176e-10
0.000146163
3.60738e-10
0.000146163
3.56499e-10
0.000146163
3.50633e-10
0.000146163
3.4296e-10
0.000146163
3.46726e-10
0.000146163
3.65346e-10
0.000146163
3.91927e-10
0.000146163
3.99479e-10
0.000146163
3.69192e-10
0.000146163
3.12383e-10
0.000146163
2.41107e-10
0.000146163
1.62892e-10
0.000146163
8.25259e-11
0.000146162
1.65046e-12
0.000146162
-7.72661e-11
0.000146162
-1.53047e-10
0.000146162
-2.11032e-10
0.000146162
-2.64279e-10
0.000146162
-2.4727e-10
0.000146162
-2.41678e-10
-6.07189e-12
0.000150728
-4.45891e-10
0.000150728
-1.36989e-10
0.000150728
1.64804e-11
0.000150728
7.50771e-11
0.000150728
7.19394e-11
0.000150728
5.26442e-11
0.000150728
3.00919e-11
0.000150728
1.00578e-11
0.000150728
-4.18818e-12
0.000150728
-1.24477e-11
0.000150728
-1.44518e-11
0.000150728
-1.06621e-11
0.000150728
-1.29247e-12
0.000150728
1.34513e-11
0.000150728
3.29111e-11
0.000150728
5.61914e-11
0.000150728
8.06345e-11
0.000150728
1.05551e-10
0.000150728
1.31362e-10
0.000150728
1.5796e-10
0.000150728
1.8151e-10
0.000150728
2.03503e-10
0.000150728
2.25317e-10
0.000150728
2.44084e-10
0.000150728
2.62261e-10
0.000150728
2.79184e-10
0.000150728
2.93362e-10
0.000150729
3.05741e-10
0.000150729
3.16695e-10
0.000150729
3.27407e-10
0.000150729
3.377e-10
0.000150729
3.45282e-10
0.000150729
3.51278e-10
0.000150729
3.56693e-10
0.000150729
3.61389e-10
0.000150729
3.64831e-10
0.000150729
3.66355e-10
0.000150729
3.68253e-10
0.000150729
3.6669e-10
0.000150729
3.64546e-10
0.000150729
3.629e-10
0.000150729
3.54555e-10
0.000150729
3.52202e-10
0.000150729
3.63491e-10
0.000150729
3.86808e-10
0.000150729
4.05789e-10
0.000150729
3.95668e-10
0.000150728
3.5718e-10
0.000150728
2.98834e-10
0.000150728
2.28518e-10
0.000150728
1.52457e-10
0.000150728
7.33629e-11
0.000150728
-4.39665e-12
0.000150728
-8.02496e-11
0.000150728
-1.40241e-10
0.000150728
-1.95364e-10
0.000150728
-1.81328e-10
0.000150728
-1.81265e-10
5.50871e-11
0.000155395
-4.48366e-10
0.000155395
-1.30023e-10
0.000155395
2.91761e-11
0.000155395
8.87224e-11
0.000155395
8.29643e-11
0.000155395
5.7072e-11
0.000155395
2.62256e-11
0.000155395
-2.31207e-12
0.000155395
-2.49069e-11
0.000155396
-4.04881e-11
0.000155396
-4.78741e-11
0.000155396
-4.80813e-11
0.000155396
-4.12135e-11
0.000155396
-2.77623e-11
0.000155396
-9.06057e-12
0.000155396
1.37304e-11
0.000155396
3.8228e-11
0.000155396
6.38577e-11
0.000155396
9.0209e-11
0.000155396
1.17973e-10
0.000155396
1.43505e-10
0.000155396
1.67503e-10
0.000155396
1.91483e-10
0.000155396
2.12564e-10
0.000155396
2.33065e-10
0.000155396
2.52364e-10
0.000155396
2.69023e-10
0.000155396
2.83993e-10
0.000155396
2.97897e-10
0.000155396
3.11885e-10
0.000155396
3.24814e-10
0.000155396
3.34708e-10
0.000155396
3.43437e-10
0.000155396
3.52023e-10
0.000155396
3.596e-10
0.000155396
3.65251e-10
0.000155396
3.69226e-10
0.000155396
3.73509e-10
0.000155396
3.74662e-10
0.000155396
3.75007e-10
0.000155396
3.76565e-10
0.000155396
3.68944e-10
0.000155396
3.62863e-10
0.000155396
3.67881e-10
0.000155396
3.84941e-10
0.000155396
4.07074e-10
0.000155396
4.10912e-10
0.000155396
3.88923e-10
0.000155396
3.44429e-10
0.000155396
2.84527e-10
0.000155396
2.15389e-10
0.000155396
1.40568e-10
0.000155396
6.52788e-11
0.000155396
-9.36195e-12
0.000155396
-6.99684e-11
0.000155396
-1.2646e-10
0.000155396
-1.1556e-10
0.000155395
-1.21137e-10
1.15131e-10
0.000160168
-4.52652e-10
0.000160168
-1.2879e-10
0.000160168
3.52568e-11
0.000160168
9.77934e-11
0.000160168
9.17201e-11
0.000160168
6.25192e-11
0.000160168
2.66362e-11
0.000160168
-8.97576e-12
0.000160168
-3.90357e-11
0.000160168
-6.11344e-11
0.000160168
-7.43341e-11
0.000160168
-7.92008e-11
0.000160168
-7.53554e-11
0.000160168
-6.39815e-11
0.000160168
-4.70026e-11
0.000160168
-2.49768e-11
0.000160168
-4.16004e-13
0.000160168
2.49622e-11
0.000160168
5.18022e-11
0.000160168
8.05938e-11
0.000160168
1.07668e-10
0.000160168
1.3362e-10
0.000160168
1.59392e-10
0.000160168
1.82718e-10
0.000160168
2.05573e-10
0.000160168
2.26883e-10
0.000160168
2.45924e-10
0.000160168
2.63752e-10
0.000160168
2.80922e-10
0.000160168
2.97915e-10
0.000160168
3.13079e-10
0.000160168
3.25702e-10
0.000160168
3.37537e-10
0.000160168
3.48985e-10
0.000160168
3.59324e-10
0.000160168
3.67463e-10
0.000160168
3.73831e-10
0.000160168
3.80423e-10
0.000160168
3.84681e-10
0.000160168
3.87966e-10
0.000160168
3.91872e-10
0.000160168
3.85707e-10
0.000160168
3.78273e-10
0.000160168
3.78821e-10
0.000160168
3.89309e-10
0.000160168
4.09549e-10
0.000160168
4.21178e-10
0.000160168
4.11875e-10
0.000160168
3.79921e-10
0.000160168
3.30937e-10
0.000160168
2.70697e-10
0.000160168
2.02191e-10
0.000160168
1.30515e-10
0.000160168
5.82359e-11
0.000160168
-1.86041e-12
0.000160168
-5.86804e-11
0.000160168
-5.1209e-11
0.000160168
-6.31861e-11
1.73285e-10
0.000165048
-4.57958e-10
0.000165048
-1.31336e-10
0.000165048
3.5668e-11
0.000165048
1.00912e-10
0.000165048
9.63125e-11
0.000165048
6.66086e-11
0.000165048
2.8025e-11
0.000165048
-1.25406e-11
0.000165048
-4.86208e-11
0.000165048
-7.61705e-11
0.000165048
-9.48676e-11
0.000165048
-1.04145e-10
0.000165048
-1.03529e-10
0.000165048
-9.48995e-11
0.000165048
-7.99936e-11
0.000165048
-5.94375e-11
0.000165048
-3.53291e-11
0.000165048
-1.01703e-11
0.000165048
1.73492e-11
0.000165048
4.64458e-11
0.000165048
7.41e-11
0.000165048
1.02025e-10
0.000165048
1.29635e-10
0.000165048
1.55226e-10
0.000165048
1.80445e-10
0.000165048
2.0387e-10
0.000165048
2.25335e-10
0.000165048
2.45774e-10
0.000165048
2.65909e-10
0.000165048
2.85533e-10
0.000165048
3.02969e-10
0.000165048
3.18909e-10
0.000165048
3.33643e-10
0.000165048
3.47566e-10
0.000165048
3.61124e-10
0.000165048
3.71974e-10
0.000165048
3.80698e-10
0.000165048
3.8949e-10
0.000165048
3.96918e-10
0.000165048
4.02914e-10
0.000165048
4.08734e-10
0.000165048
4.04801e-10
0.000165048
3.97624e-10
0.000165048
3.95979e-10
0.000165048
4.01089e-10
0.000165048
4.17048e-10
0.000165048
4.30956e-10
0.000165048
4.29821e-10
0.000165048
4.08622e-10
0.000165048
3.69913e-10
0.000165048
3.18881e-10
0.000165048
2.5758e-10
0.000165048
1.90765e-10
0.000165048
1.21923e-10
0.000165048
6.26425e-11
0.000165048
6.38187e-12
0.000165047
1.10586e-11
0.000165047
-8.58719e-12
2.28608e-10
0.000170037
-4.63447e-10
0.000170037
-1.36202e-10
0.000170037
3.12194e-11
0.000170037
9.80242e-11
0.000170037
9.60564e-11
0.000170037
6.75224e-11
0.000170037
2.79077e-11
0.000170037
-1.54218e-11
0.000170037
-5.56049e-11
0.000170037
-8.72811e-11
0.000170037
-1.10581e-10
0.000170037
-1.23722e-10
0.000170037
-1.26364e-10
0.000170037
-1.20433e-10
0.000170037
-1.07864e-10
0.000170037
-8.93632e-11
0.000170037
-6.59917e-11
0.000170037
-4.10818e-11
0.000170037
-1.31383e-11
0.000170038
1.59016e-11
0.000170038
4.39246e-11
0.000170038
7.35489e-11
0.000170038
1.02833e-10
0.000170038
1.30797e-10
0.000170038
1.58359e-10
0.000170038
1.83251e-10
0.000170038
2.07303e-10
0.000170038
2.30757e-10
0.000170038
2.52904e-10
0.000170038
2.75259e-10
0.000170038
2.95629e-10
0.000170038
3.14496e-10
0.000170038
3.31695e-10
0.000170038
3.48339e-10
0.000170038
3.65067e-10
0.000170038
3.78668e-10
0.000170038
3.90349e-10
0.000170038
4.01199e-10
0.000170038
4.11479e-10
0.000170038
4.19797e-10
0.000170038
4.27653e-10
0.000170038
4.26544e-10
0.000170038
4.20608e-10
0.000170038
4.18372e-10
0.000170038
4.19837e-10
0.000170038
4.30873e-10
0.000170038
4.43479e-10
0.000170038
4.46523e-10
0.000170037
4.33844e-10
0.000170037
4.04333e-10
0.000170037
3.61289e-10
0.000170037
3.06886e-10
0.000170037
2.45777e-10
0.000170037
1.81278e-10
0.000170037
1.23355e-10
0.000170037
6.80261e-11
0.000170037
7.01233e-11
0.000170037
4.19406e-11
2.80292e-10
0.00017514
-4.6849e-10
0.00017514
-1.42261e-10
0.00017514
2.29866e-11
0.00017514
8.9658e-11
0.00017514
9.06934e-11
0.00017514
6.44302e-11
0.00017514
2.46713e-11
0.00017514
-1.96388e-11
0.00017514
-6.16703e-11
0.00017514
-9.61794e-11
0.00017514
-1.22581e-10
0.00017514
-1.38718e-10
0.00017514
-1.44616e-10
0.00017514
-1.41251e-10
0.00017514
-1.31195e-10
0.00017514
-1.14658e-10
0.00017514
-9.203e-11
0.00017514
-6.73102e-11
0.00017514
-3.97615e-11
0.00017514
-1.07664e-11
0.00017514
1.82594e-11
0.00017514
4.8963e-11
0.00017514
7.95891e-11
0.00017514
1.09489e-10
0.00017514
1.39255e-10
0.00017514
1.65456e-10
0.00017514
1.91975e-10
0.00017514
2.18795e-10
0.00017514
2.42959e-10
0.00017514
2.67741e-10
0.00017514
2.91103e-10
0.00017514
3.1245e-10
0.00017514
3.32143e-10
0.00017514
3.519e-10
0.00017514
3.71182e-10
0.00017514
3.87452e-10
0.00017514
4.02791e-10
0.00017514
4.15969e-10
0.00017514
4.28376e-10
0.00017514
4.39056e-10
0.00017514
4.49127e-10
0.00017514
4.50797e-10
0.00017514
4.47244e-10
0.00017514
4.44836e-10
0.00017514
4.44232e-10
0.00017514
4.51376e-10
0.00017514
4.61029e-10
0.00017514
4.65623e-10
0.00017514
4.5807e-10
0.00017514
4.3575e-10
0.00017514
3.99715e-10
0.00017514
3.51701e-10
0.00017514
2.96293e-10
0.00017514
2.3608e-10
0.000175139
1.80218e-10
0.000175139
1.26243e-10
0.000175139
1.25094e-10
0.000175139
8.77981e-11
3.28316e-10
0.000180357
-4.72377e-10
0.000180357
-1.48731e-10
0.000180357
1.22558e-11
0.000180357
7.68864e-11
0.000180357
8.02828e-11
0.000180357
5.66771e-11
0.000180357
1.74459e-11
0.000180357
-2.61888e-11
0.000180357
-6.80816e-11
0.000180357
-1.04418e-10
0.000180357
-1.3243e-10
0.000180357
-1.50707e-10
0.000180357
-1.59298e-10
0.000180357
-1.58069e-10
0.000180357
-1.50047e-10
0.000180357
-1.35214e-10
0.000180357
-1.13742e-10
0.000180357
-8.91647e-11
0.000180357
-6.22752e-11
0.000180357
-3.32155e-11
0.000180357
-2.97239e-12
0.000180358
2.87996e-11
0.000180358
6.04414e-11
0.000180358
9.12151e-11
0.000180358
1.23041e-10
0.000180358
1.5154e-10
0.000180358
1.80127e-10
0.000180358
2.1009e-10
0.000180358
2.36375e-10
0.000180358
2.62793e-10
0.000180358
2.89451e-10
0.000180358
3.1325e-10
0.000180358
3.35507e-10
0.000180358
3.58321e-10
0.000180358
3.79914e-10
0.000180358
3.98904e-10
0.000180358
4.1751e-10
0.000180358
4.335e-10
0.000180358
4.48013e-10
0.000180358
4.61206e-10
0.000180357
4.73064e-10
0.000180357
4.77444e-10
0.000180357
4.77199e-10
0.000180357
4.74913e-10
0.000180357
4.73378e-10
0.000180357
4.78382e-10
0.000180357
4.84742e-10
0.000180357
4.88839e-10
0.000180357
4.83764e-10
0.000180357
4.66195e-10
0.000180357
4.35937e-10
0.000180357
3.93576e-10
0.000180357
3.43095e-10
0.000180357
2.86844e-10
0.000180357
2.33534e-10
0.000180357
1.80463e-10
0.000180357
1.75597e-10
0.000180357
1.29309e-10
3.7233e-10
0.000185693
-4.74867e-10
0.000185693
-1.55104e-10
0.000185693
6.79123e-15
0.000185693
6.12409e-11
0.000185693
6.5557e-11
0.000185693
4.37421e-11
0.000185693
6.271e-12
0.000185693
-3.56747e-11
0.000185693
-7.6529e-11
0.000185693
-1.12866e-10
0.000185693
-1.41497e-10
0.000185693
-1.61208e-10
0.000185693
-1.71394e-10
0.000185693
-1.71698e-10
0.000185693
-1.6519e-10
0.000185693
-1.5171e-10
0.000185693
-1.30947e-10
0.000185693
-1.06975e-10
0.000185693
-8.05394e-11
0.000185693
-5.10475e-11
0.000185693
-1.98286e-11
0.000185693
1.27617e-11
0.000185693
4.50107e-11
0.000185693
7.7008e-11
0.000185693
1.10342e-10
0.000185693
1.41446e-10
0.000185693
1.72333e-10
0.000185693
2.04688e-10
0.000185693
2.32802e-10
0.000185693
2.6074e-10
0.000185693
2.90761e-10
0.000185693
3.17375e-10
0.000185693
3.42348e-10
0.000185693
3.67518e-10
0.000185693
3.91655e-10
0.000185693
4.13647e-10
0.000185693
4.34527e-10
0.000185693
4.53664e-10
0.000185693
4.70771e-10
0.000185693
4.86015e-10
0.000185693
4.99882e-10
0.000185693
5.07103e-10
0.000185693
5.0966e-10
0.000185693
5.08192e-10
0.000185693
5.06715e-10
0.000185693
5.10651e-10
0.000185693
5.14795e-10
0.000185693
5.1737e-10
0.000185693
5.12772e-10
0.000185693
4.97909e-10
0.000185693
4.71645e-10
0.000185693
4.33368e-10
0.000185693
3.86873e-10
0.000185693
3.34858e-10
0.000185693
2.83819e-10
0.000185692
2.3072e-10
0.000185692
2.21391e-10
0.000185692
1.65686e-10
4.12182e-10
0.000191149
-4.75957e-10
0.000191149
-1.60373e-10
0.000191149
-1.29818e-11
0.000191149
4.33198e-11
0.000191149
4.69092e-11
0.000191149
2.64572e-11
0.000191149
-8.37884e-12
0.000191149
-4.85565e-11
0.000191149
-8.77994e-11
0.000191149
-1.22738e-10
0.000191149
-1.51171e-10
0.000191149
-1.71073e-10
0.000191149
-1.81783e-10
0.000191149
-1.82916e-10
0.000191149
-1.77338e-10
0.000191149
-1.64811e-10
0.000191149
-1.44233e-10
0.000191149
-1.20594e-10
0.000191149
-9.43283e-11
0.000191149
-6.46084e-11
0.000191149
-3.26421e-11
0.000191149
4.20374e-13
0.000191149
3.36038e-11
0.000191149
6.72136e-11
0.000191149
1.01592e-10
0.000191149
1.3525e-10
0.000191149
1.68357e-10
0.000191149
2.02339e-10
0.000191149
2.32556e-10
0.000191149
2.62596e-10
0.000191149
2.95134e-10
0.000191149
3.24601e-10
0.000191149
3.52413e-10
0.000191149
3.79983e-10
0.000191149
4.0695e-10
0.000191149
4.31534e-10
0.000191149
4.54227e-10
0.000191149
4.76402e-10
0.000191149
4.96334e-10
0.000191149
5.13874e-10
0.000191149
5.30116e-10
0.000191149
5.39611e-10
0.000191149
5.44343e-10
0.000191149
5.4456e-10
0.000191149
5.43957e-10
0.000191149
5.47136e-10
0.000191149
5.5002e-10
0.000191149
5.51137e-10
0.000191149
5.45677e-10
0.000191149
5.3199e-10
0.000191149
5.08208e-10
0.000191149
4.73193e-10
0.000191149
4.29798e-10
0.000191149
3.80897e-10
0.000191149
3.30787e-10
0.000191149
2.77631e-10
0.000191149
2.63858e-10
0.000191149
1.96373e-10
4.47317e-10
0.000196729
-4.75651e-10
0.000196729
-1.64314e-10
0.000196729
-2.63184e-11
0.000196729
2.35088e-11
0.000196729
2.51729e-11
0.000196729
5.66098e-12
0.000196729
-2.6494e-11
0.000196729
-6.45607e-11
0.000196729
-1.01851e-10
0.000196729
-1.35002e-10
0.000196729
-1.61997e-10
0.000196729
-1.8085e-10
0.000196729
-1.91152e-10
0.000196729
-1.92551e-10
0.000196729
-1.87245e-10
0.000196729
-1.74393e-10
0.000196729
-1.54125e-10
0.000196729
-1.3073e-10
0.000196729
-1.04247e-10
0.000196729
-7.43952e-11
0.000196729
-4.1882e-11
0.000196729
-8.06009e-12
0.000196729
2.65429e-11
0.000196729
6.15035e-11
0.000196729
9.70331e-11
0.000196729
1.32909e-10
0.000196729
1.67861e-10
0.000196729
2.03263e-10
0.000196729
2.36143e-10
0.000196729
2.68806e-10
0.000196729
3.0307e-10
0.000196729
3.34763e-10
0.000196729
3.65455e-10
0.000196729
3.961e-10
0.000196729
4.25572e-10
0.000196729
4.52225e-10
0.000196729
4.7687e-10
0.000196729
5.01646e-10
0.000196729
5.24445e-10
0.000196729
5.45127e-10
0.000196729
5.63533e-10
0.000196729
5.74558e-10
0.000196729
5.81568e-10
0.000196728
5.84285e-10
0.000196728
5.85028e-10
0.000196728
5.87525e-10
0.000196728
5.89444e-10
0.000196728
5.89188e-10
0.000196728
5.82593e-10
0.000196728
5.69152e-10
0.000196728
5.46687e-10
0.000196728
5.14282e-10
0.000196728
4.73085e-10
0.000196728
4.25521e-10
0.000196728
3.75529e-10
0.000196728
3.22121e-10
0.000196728
3.02916e-10
0.000196728
2.21786e-10
4.77976e-10
0.000202434
-4.73706e-10
0.000202434
-1.67495e-10
0.000202434
-4.00008e-11
0.000202434
2.74472e-12
0.000202434
1.82405e-12
0.000202434
-1.77415e-11
0.000202434
-4.80806e-11
0.000202434
-8.33724e-11
0.000202434
-1.1852e-10
0.000202434
-1.49763e-10
0.000202434
-1.74287e-10
0.000202434
-1.90925e-10
0.000202434
-2.00156e-10
0.000202434
-2.01392e-10
0.000202434
-1.95541e-10
0.000202434
-1.81831e-10
0.000202434
-1.61507e-10
0.000202434
-1.38129e-10
0.000202434
-1.10834e-10
0.000202434
-8.02367e-11
0.000202434
-4.7355e-11
0.000202434
-1.24281e-11
0.000202434
2.34793e-11
0.000202434
5.92437e-11
0.000202434
9.60111e-11
0.000202434
1.34222e-10
0.000202434
1.71123e-10
0.000202434
2.07618e-10
0.000202434
2.43397e-10
0.000202434
2.79005e-10
0.000202434
3.14736e-10
0.000202434
3.48315e-10
0.000202434
3.8206e-10
0.000202434
4.15681e-10
0.000202434
4.47102e-10
0.000202434
4.76001e-10
0.000202434
5.0279e-10
0.000202434
5.29959e-10
0.000202434
5.55669e-10
0.000202434
5.78675e-10
0.000202434
5.98799e-10
0.000202434
6.12051e-10
0.000202434
6.2177e-10
0.000202434
6.27035e-10
0.000202434
6.29039e-10
0.000202434
6.3146e-10
0.000202434
6.32896e-10
0.000202434
6.3129e-10
0.000202434
6.2351e-10
0.000202434
6.09824e-10
0.000202434
5.87873e-10
0.000202434
5.57033e-10
0.000202434
5.16986e-10
0.000202433
4.69628e-10
0.000202433
4.19046e-10
0.000202433
3.64402e-10
0.000202433
3.38495e-10
0.000202433
2.42935e-10
5.04966e-10
0.000208268
-4.70869e-10
0.000208268
-1.69783e-10
0.000208268
-5.32158e-11
0.000208268
-1.79775e-11
0.000208268
-2.26566e-11
0.000208268
-4.31884e-11
0.000208268
-7.24797e-11
0.000208268
-1.05297e-10
0.000208268
-1.3773e-10
0.000208268
-1.66256e-10
0.000208268
-1.88037e-10
0.000208268
-2.02367e-10
0.000208268
-2.09363e-10
0.000208268
-2.09367e-10
0.000208268
-2.02795e-10
0.000208268
-1.88479e-10
0.000208268
-1.67268e-10
0.000208268
-1.42728e-10
0.000208268
-1.14628e-10
0.000208268
-8.27986e-11
0.000208268
-4.90216e-11
0.000208268
-1.33026e-11
0.000208268
2.38016e-11
0.000208268
6.05374e-11
0.000208268
9.88419e-11
0.000208268
1.38834e-10
0.000208268
1.77443e-10
0.000208268
2.15418e-10
0.000208268
2.5425e-10
0.000208268
2.92867e-10
0.000208268
3.30153e-10
0.000208268
3.65614e-10
0.000208268
4.0194e-10
0.000208268
4.38303e-10
0.000208268
4.71735e-10
0.000208268
5.03263e-10
0.000208268
5.32357e-10
0.000208268
5.60864e-10
0.000208268
5.89637e-10
0.000208268
6.14844e-10
0.000208268
6.36221e-10
0.000208268
6.52483e-10
0.000208268
6.64526e-10
0.000208268
6.71489e-10
0.000208268
6.75048e-10
0.000208268
6.78757e-10
0.000208268
6.80285e-10
0.000208268
6.77147e-10
0.000208268
6.68369e-10
0.000208268
6.54262e-10
0.000208268
6.3235e-10
0.000208268
6.01445e-10
0.000208268
5.61366e-10
0.000208267
5.139e-10
0.000208267
4.61493e-10
0.000208267
4.04573e-10
0.000208267
3.72059e-10
0.000208267
2.60843e-10
5.27923e-10
0.000214234
-4.67291e-10
0.000214234
-1.70839e-10
0.000214234
-6.51105e-11
0.000214234
-3.86263e-11
0.000214234
-4.80839e-11
0.000214234
-7.02912e-11
0.000214234
-9.93051e-11
0.000214234
-1.29793e-10
0.000214234
-1.59143e-10
0.000214234
-1.84445e-10
0.000214234
-2.03388e-10
0.000214234
-2.15428e-10
0.000214234
-2.19118e-10
0.000214234
-2.17145e-10
0.000214234
-2.09659e-10
0.000214234
-1.94141e-10
0.000214234
-1.7118e-10
0.000214234
-1.45174e-10
0.000214234
-1.16316e-10
0.000214234
-8.26459e-11
0.000214234
-4.77683e-11
0.000214234
-1.15461e-11
0.000214234
2.68095e-11
0.000214234
6.54094e-11
0.000214234
1.05767e-10
0.000214234
1.47117e-10
0.000214234
1.87035e-10
0.000214234
2.26804e-10
0.000214234
2.68487e-10
0.000214234
3.09888e-10
0.000214234
3.49342e-10
0.000214234
3.87004e-10
0.000214234
4.24577e-10
0.000214234
4.63433e-10
0.000214234
4.99703e-10
0.000214234
5.33543e-10
0.000214234
5.64934e-10
0.000214234
5.94477e-10
0.000214234
6.2606e-10
0.000214233
6.53745e-10
0.000214233
6.76858e-10
0.000214233
6.95551e-10
0.000214233
7.09168e-10
0.000214233
7.17894e-10
0.000214233
7.23154e-10
0.000214233
7.28642e-10
0.000214233
7.30555e-10
0.000214233
7.26325e-10
0.000214233
7.17168e-10
0.000214233
7.02636e-10
0.000214233
6.79526e-10
0.000214233
6.46985e-10
0.000214233
6.06847e-10
0.000214233
5.5909e-10
0.000214233
5.03586e-10
0.000214233
4.43508e-10
0.000214233
4.03588e-10
0.000214233
2.75309e-10
5.47542e-10
0.000220333
-4.62421e-10
0.000220333
-1.70864e-10
0.000220333
-7.66625e-11
0.000220333
-5.95163e-11
0.000220333
-7.35523e-11
0.000220333
-9.78541e-11
0.000220333
-1.27274e-10
0.000220333
-1.56409e-10
0.000220333
-1.82374e-10
0.000220333
-2.04134e-10
0.000220333
-2.20517e-10
0.000220333
-2.29504e-10
0.000220333
-2.30486e-10
0.000220333
-2.26334e-10
0.000220333
-2.1592e-10
0.000220333
-1.98441e-10
0.000220333
-1.73846e-10
0.000220333
-1.46145e-10
0.000220333
-1.1577e-10
0.000220333
-8.03352e-11
0.000220333
-4.45462e-11
0.000220333
-7.31713e-12
0.000220333
3.26915e-11
0.000220333
7.32698e-11
0.000220333
1.16191e-10
0.000220333
1.59045e-10
0.000220333
1.99852e-10
0.000220333
2.42031e-10
0.000220333
2.85725e-10
0.000220333
3.29437e-10
0.000220333
3.71487e-10
0.000220333
4.11812e-10
0.000220333
4.50862e-10
0.000220333
4.91419e-10
0.000220333
5.30477e-10
0.000220333
5.66154e-10
0.000220333
5.99867e-10
0.000220333
6.3171e-10
0.000220333
6.65437e-10
0.000220333
6.94676e-10
0.000220333
7.19968e-10
0.000220333
7.40659e-10
0.000220333
7.5566e-10
0.000220333
7.66462e-10
0.000220333
7.73532e-10
0.000220333
7.80423e-10
0.000220333
7.82641e-10
0.000220333
7.78498e-10
0.000220333
7.69001e-10
0.000220333
7.53979e-10
0.000220332
7.29375e-10
0.000220332
6.94624e-10
0.000220332
6.54069e-10
0.000220332
6.04896e-10
0.000220332
5.4571e-10
0.000220332
4.82058e-10
0.000220332
4.33055e-10
0.000220332
2.86725e-10
5.65007e-10
0.00022657
-4.56476e-10
0.00022657
-1.70006e-10
0.00022657
-8.78892e-11
0.00022657
-8.00754e-11
0.00022657
-9.90727e-11
0.00022657
-1.25871e-10
0.00022657
-1.55401e-10
0.00022657
-1.83833e-10
0.00022657
-2.06811e-10
0.00022657
-2.2519e-10
0.00022657
-2.38782e-10
0.00022657
-2.4482e-10
0.00022657
-2.43924e-10
0.00022657
-2.36413e-10
0.00022657
-2.21775e-10
0.00022657
-2.02019e-10
0.00022657
-1.7605e-10
0.00022657
-1.46449e-10
0.00022657
-1.13767e-10
0.00022657
-7.65906e-11
0.00022657
-3.94901e-11
0.00022657
-6.23738e-13
0.00022657
4.17187e-11
0.00022657
8.44552e-11
0.00022657
1.2946e-10
0.00022657
1.73567e-10
0.00022657
2.15821e-10
0.00022657
2.60476e-10
0.00022657
3.06105e-10
0.00022657
3.51674e-10
0.00022657
3.95908e-10
0.00022657
4.39449e-10
0.00022657
4.80608e-10
0.00022657
5.22284e-10
0.00022657
5.63521e-10
0.00022657
6.01141e-10
0.00022657
6.37482e-10
0.00022657
6.71864e-10
0.00022657
7.06756e-10
0.000226569
7.3757e-10
0.000226569
7.64993e-10
0.000226569
7.87925e-10
0.000226569
8.03912e-10
0.000226569
8.16595e-10
0.000226569
8.264e-10
0.000226569
8.34143e-10
0.000226569
8.36378e-10
0.000226569
8.32644e-10
0.000226569
8.2281e-10
0.000226569
8.07214e-10
0.000226569
7.816e-10
0.000226569
7.45203e-10
0.000226569
7.02637e-10
0.000226569
6.50655e-10
0.000226569
5.88227e-10
0.000226569
5.20013e-10
0.000226569
4.61004e-10
0.000226569
2.96306e-10
5.80255e-10
0.000232946
-4.49807e-10
0.000232946
-1.68272e-10
0.000232946
-9.78751e-11
0.000232946
-9.9571e-11
0.000232946
-1.24777e-10
0.000232946
-1.54419e-10
0.000232946
-1.83501e-10
0.000232946
-2.11125e-10
0.000232946
-2.32077e-10
0.000232946
-2.47513e-10
0.000232946
-2.58599e-10
0.000232946
-2.61716e-10
0.000232946
-2.58041e-10
0.000232946
-2.46507e-10
0.000232946
-2.28241e-10
0.000232946
-2.05553e-10
0.000232946
-1.77775e-10
0.000232946
-1.46855e-10
0.000232946
-1.10883e-10
0.000232946
-7.12838e-11
0.000232946
-3.26098e-11
0.000232946
8.68377e-12
0.000232946
5.31557e-11
0.000232946
9.81116e-11
0.000232946
1.44641e-10
0.000232946
1.90488e-10
0.000232946
2.34916e-10