/*--------------------------------*- C++ -*----------------------------------*\
  =========                 |
  \\      /  F ield         | OpenFOAM: The Open Source CFD Toolbox
   \\    /   O peration     | Website:  https://openfoam.org
    \\  /    A nd           | Version:  7
     \\/     M anipulation  |
\*---------------------------------------------------------------------------*/
FoamFile
{
    version     2.0;
    format      ascii;
    class       volVectorField;
    location    "17000";
    object      U;
}
// * * * * * * * * * * * * * * * * * * * * * * * * * * * * * * * * * * * * * //

dimensions      [0 1 -1 0 0 0 0];

internalField   nonuniform List<vector> 
3974
(
(0.116731 2.56188e-08 2.24929e-14)
(0.116731 2.8957e-08 2.25356e-14)
(0.116731 2.99382e-08 2.24501e-14)
(0.116731 3.02644e-08 2.25348e-14)
(0.116731 3.02853e-08 2.24044e-14)
(0.116731 3.00651e-08 2.24447e-14)
(0.116731 2.99414e-08 2.2418e-14)
(0.116731 3.01495e-08 2.22763e-14)
(0.116731 3.07023e-08 2.24315e-14)
(0.116731 3.1641e-08 2.23216e-14)
(0.116731 3.2863e-08 2.2381e-14)
(0.116731 3.44553e-08 2.23626e-14)
(0.116731 3.61814e-08 2.22499e-14)
(0.116731 3.77913e-08 2.23657e-14)
(0.116731 3.93679e-08 2.23233e-14)
(0.116731 4.08169e-08 2.23413e-14)
(0.116731 4.20233e-08 2.2325e-14)
(0.116731 4.31091e-08 2.22726e-14)
(0.116731 4.39144e-08 2.23386e-14)
(0.116731 4.43809e-08 2.22523e-14)
(0.116731 4.48174e-08 2.22715e-14)
(0.116731 4.49656e-08 2.22736e-14)
(0.116731 4.48735e-08 2.2246e-14)
(0.116731 4.46533e-08 2.23257e-14)
(0.116731 4.42306e-08 2.22582e-14)
(0.116731 4.37194e-08 2.23046e-14)
(0.116732 4.31385e-08 2.22763e-14)
(0.116732 4.23857e-08 2.22232e-14)
(0.116732 4.14305e-08 2.22942e-14)
(0.116732 4.05882e-08 2.22045e-14)
(0.116732 3.96453e-08 2.22335e-14)
(0.116732 3.83808e-08 2.2277e-14)
(0.116732 3.71301e-08 2.21927e-14)
(0.116732 3.59747e-08 2.22708e-14)
(0.116732 3.45361e-08 2.23134e-14)
(0.116732 3.29416e-08 2.22227e-14)
(0.116732 3.1161e-08 2.22769e-14)
(0.116732 2.93334e-08 2.21717e-14)
(0.117781 -9.21267e-10 2.29641e-14)
(0.117781 1.13498e-08 2.29236e-14)
(0.117781 1.80653e-08 2.29252e-14)
(0.117781 2.16471e-08 2.29628e-14)
(0.117781 2.36927e-08 2.29116e-14)
(0.117781 2.47136e-08 2.29329e-14)
(0.117781 2.51743e-08 2.28442e-14)
(0.117781 2.53025e-08 2.28552e-14)
(0.117781 2.5464e-08 2.28636e-14)
(0.117781 2.58346e-08 2.27752e-14)
(0.117782 2.65655e-08 2.28345e-14)
(0.117782 2.76824e-08 2.27491e-14)
(0.117782 2.90466e-08 2.27895e-14)
(0.117782 3.07428e-08 2.28015e-14)
(0.117782 3.25426e-08 2.27032e-14)
(0.117782 3.4314e-08 2.27531e-14)
(0.117782 3.60548e-08 2.26987e-14)
(0.117782 3.76287e-08 2.27431e-14)
(0.117782 3.8955e-08 2.2757e-14)
(0.117782 4.01526e-08 2.26692e-14)
(0.117782 4.11257e-08 2.27251e-14)
(0.117782 4.17968e-08 2.26715e-14)
(0.117782 4.24074e-08 2.26793e-14)
(0.117782 4.27199e-08 2.27032e-14)
(0.117782 4.28087e-08 2.26363e-14)
(0.117782 4.27763e-08 2.27061e-14)
(0.117782 4.25419e-08 2.26736e-14)
(0.117782 4.21931e-08 2.26963e-14)
(0.117782 4.17839e-08 2.27035e-14)
(0.117782 4.12406e-08 2.26227e-14)
(0.117782 4.05319e-08 2.26672e-14)
(0.117782 3.98448e-08 2.26076e-14)
(0.117782 3.90736e-08 2.26229e-14)
(0.117782 3.80101e-08 2.26771e-14)
(0.117782 3.68885e-08 2.2638e-14)
(0.117782 3.59318e-08 2.26608e-14)
(0.117782 3.46594e-08 2.26949e-14)
(0.117782 3.33044e-08 2.26476e-14)
(0.117782 3.13782e-08 2.26708e-14)
(0.117782 3.19802e-08 2.26164e-14)
(0.117782 3.17354e-08 2.26417e-14)
(0.117782 2.67127e-08 2.2674e-14)
(0.118799 -5.18581e-08 2.34155e-14)
(0.118799 -2.27984e-08 2.33337e-14)
(0.118799 -3.15577e-09 2.33572e-14)
(0.118799 6.37688e-09 2.34007e-14)
(0.118799 1.08695e-08 2.33621e-14)
(0.118799 1.4907e-08 2.33888e-14)
(0.118799 1.7403e-08 2.33141e-14)
(0.118799 1.8738e-08 2.33375e-14)
(0.118799 1.9484e-08 2.32442e-14)
(0.118799 1.99373e-08 2.32775e-14)
(0.1188 2.03792e-08 2.32998e-14)
(0.1188 2.09415e-08 2.31829e-14)
(0.1188 2.18399e-08 2.32446e-14)
(0.1188 2.31713e-08 2.31532e-14)
(0.1188 2.46917e-08 2.32006e-14)
(0.1188 2.65022e-08 2.32267e-14)
(0.1188 2.84545e-08 2.31077e-14)
(0.1188 3.04001e-08 2.31514e-14)
(0.1188 3.23251e-08 2.30882e-14)
(0.1188 3.4067e-08 2.31463e-14)
(0.1188 3.55507e-08 2.31761e-14)
(0.1188 3.68662e-08 2.30725e-14)
(0.1188 3.80245e-08 2.31223e-14)
(0.1188 3.89378e-08 2.30432e-14)
(0.1188 3.97541e-08 2.30809e-14)
(0.1188 4.02564e-08 2.31198e-14)
(0.1188 4.05488e-08 2.30372e-14)
(0.1188 4.07269e-08 2.30964e-14)
(0.1188 4.07027e-08 2.30301e-14)
(0.1188 4.05414e-08 2.30903e-14)
(0.1188 4.03456e-08 2.31209e-14)
(0.1188 4.00521e-08 2.30195e-14)
(0.1188 3.95714e-08 2.30547e-14)
(0.1188 3.90503e-08 2.29842e-14)
(0.1188 3.84547e-08 2.30245e-14)
(0.1188 3.7598e-08 2.30814e-14)
(0.1188 3.66921e-08 2.30638e-14)
(0.1188 3.59227e-08 2.30575e-14)
(0.1188 3.48043e-08 2.30721e-14)
(0.1188 3.37225e-08 2.30506e-14)
(0.1188 3.18389e-08 2.30613e-14)
(0.1188 3.3401e-08 2.30361e-14)
(0.1188 3.52465e-08 2.30365e-14)
(0.1188 3.39282e-08 2.30521e-14)
(0.1188 2.99445e-08 2.30237e-14)
(0.1188 2.14402e-08 2.30331e-14)
(0.1188 1.26188e-08 2.3012e-14)
(0.1188 4.52927e-09 2.30227e-14)
(0.1188 -3.1978e-09 2.30512e-14)
(0.1188 -1.07404e-08 2.30403e-14)
(0.1188 -1.8127e-08 2.30636e-14)
(0.1188 -2.55313e-08 2.30486e-14)
(0.118799 -3.26078e-08 2.30625e-14)
(0.118799 -3.92572e-08 2.30937e-14)
(0.118799 -4.40581e-08 2.30876e-14)
(0.118799 -4.8267e-08 2.3104e-14)
(0.118799 -4.59073e-08 2.30753e-14)
(0.118799 -4.33031e-08 2.30898e-14)
(0.118799 -2.28211e-08 2.3129e-14)
(0.119787 -4.84836e-08 2.38235e-14)
(0.119787 -2.14561e-08 2.37095e-14)
(0.119787 -4.74294e-09 2.37639e-14)
(0.119787 4.22463e-09 2.37918e-14)
(0.119787 7.35107e-09 2.37827e-14)
(0.119787 1.00278e-08 2.38118e-14)
(0.119787 1.18913e-08 2.37005e-14)
(0.119787 1.30502e-08 2.37513e-14)
(0.119787 1.38049e-08 2.36321e-14)
(0.119787 1.43989e-08 2.37155e-14)
(0.119787 1.50482e-08 2.37264e-14)
(0.119787 1.57266e-08 2.34954e-14)
(0.119787 1.67728e-08 2.36594e-14)
(0.119787 1.83135e-08 2.35449e-14)
(0.119787 1.99961e-08 2.36257e-14)
(0.119787 2.19173e-08 2.36423e-14)
(0.119787 2.40282e-08 2.34942e-14)
(0.119787 2.6152e-08 2.35592e-14)
(0.119787 2.82667e-08 2.34228e-14)
(0.119787 3.02168e-08 2.35652e-14)
(0.119787 3.18583e-08 2.35866e-14)
(0.119787 3.33467e-08 2.33672e-14)
(0.119787 3.47356e-08 2.35297e-14)
(0.119787 3.58429e-08 2.33309e-14)
(0.119787 3.68615e-08 2.34946e-14)
(0.119787 3.76174e-08 2.35278e-14)
(0.119787 3.81386e-08 2.34162e-14)
(0.119788 3.85454e-08 2.34935e-14)
(0.119788 3.87485e-08 2.34007e-14)
(0.119788 3.88385e-08 2.34974e-14)
(0.119788 3.88781e-08 2.35292e-14)
(0.119788 3.87959e-08 2.33952e-14)
(0.119788 3.85751e-08 2.34538e-14)
(0.119788 3.82271e-08 2.33526e-14)
(0.119788 3.78221e-08 2.34392e-14)
(0.119788 3.72244e-08 2.34874e-14)
(0.119788 3.65094e-08 2.34748e-14)
(0.119788 3.59405e-08 2.34507e-14)
(0.119788 3.50488e-08 2.34479e-14)
(0.119788 3.41997e-08 2.34413e-14)
(0.119788 3.25783e-08 2.34473e-14)
(0.119788 3.32428e-08 2.34405e-14)
(0.119788 3.53428e-08 2.34301e-14)
(0.119788 3.73773e-08 2.34282e-14)
(0.119788 3.71177e-08 2.34174e-14)
(0.119788 3.06583e-08 2.34234e-14)
(0.119787 2.20151e-08 2.34213e-14)
(0.119787 1.34201e-08 2.34154e-14)
(0.119787 5.13675e-09 2.34292e-14)
(0.119787 -2.88007e-09 2.34356e-14)
(0.119787 -1.07074e-08 2.34536e-14)
(0.119787 -1.85068e-08 2.34588e-14)
(0.119787 -2.59605e-08 2.34622e-14)
(0.119787 -3.29682e-08 2.34765e-14)
(0.119787 -3.80849e-08 2.34821e-14)
(0.119787 -4.26253e-08 2.34922e-14)
(0.119787 -4.04033e-08 2.34846e-14)
(0.119787 -3.84051e-08 2.34875e-14)
(0.119787 -1.62143e-08 2.35136e-14)
(0.120745 -4.62023e-08 2.42256e-14)
(0.120745 -1.86285e-08 2.41556e-14)
(0.120745 -3.40087e-09 2.41929e-14)
(0.120745 4.11006e-09 2.41801e-14)
(0.120745 5.89242e-09 2.41942e-14)
(0.120745 6.97173e-09 2.42311e-14)
(0.120745 7.71556e-09 2.41568e-14)
(0.120745 8.19065e-09 2.4185e-14)
(0.120745 8.58797e-09 2.4091e-14)
(0.120745 9.09825e-09 2.41886e-14)
(0.120745 9.75376e-09 2.41362e-14)
(0.120745 1.05008e-08 2.4026e-14)
(0.120745 1.16512e-08 2.40903e-14)
(0.120745 1.32765e-08 2.40054e-14)
(0.120745 1.50728e-08 2.40774e-14)
(0.120745 1.71614e-08 2.40428e-14)
(0.120745 1.94626e-08 2.394e-14)
(0.120745 2.17051e-08 2.39884e-14)
(0.120746 2.3973e-08 2.39172e-14)
(0.120746 2.61512e-08 2.40167e-14)
(0.120746 2.7992e-08 2.39834e-14)
(0.120746 2.96908e-08 2.38937e-14)
(0.120746 3.12788e-08 2.39537e-14)
(0.120746 3.26032e-08 2.38658e-14)
(0.120746 3.38591e-08 2.39363e-14)
(0.120746 3.48609e-08 2.3921e-14)
(0.120746 3.56286e-08 2.38533e-14)
(0.120746 3.62767e-08 2.39033e-14)
(0.120746 3.67211e-08 2.38346e-14)
(0.120746 3.70567e-08 2.39354e-14)
(0.120746 3.73818e-08 2.39204e-14)
(0.120746 3.75485e-08 2.38354e-14)
(0.120746 3.75442e-08 2.38691e-14)
(0.120746 3.74021e-08 2.37945e-14)
(0.120746 3.72132e-08 2.38841e-14)
(0.120746 3.69019e-08 2.38903e-14)
(0.120746 3.64177e-08 2.38728e-14)
(0.120746 3.60348e-08 2.38366e-14)
(0.120746 3.5371e-08 2.38206e-14)
(0.120746 3.47178e-08 2.38251e-14)
(0.120746 3.34898e-08 2.38284e-14)
(0.120746 3.32769e-08 2.38353e-14)
(0.120746 3.48061e-08 2.38206e-14)
(0.120746 3.74733e-08 2.38031e-14)
(0.120746 3.93805e-08 2.38048e-14)
(0.120746 3.64917e-08 2.38091e-14)
(0.120746 2.97513e-08 2.3821e-14)
(0.120746 2.17047e-08 2.38042e-14)
(0.120746 1.33972e-08 2.38042e-14)
(0.120746 5.13202e-09 2.38238e-14)
(0.120746 -3.01039e-09 2.38397e-14)
(0.120745 -1.10494e-08 2.38608e-14)
(0.120745 -1.87992e-08 2.38606e-14)
(0.120745 -2.61191e-08 2.38583e-14)
(0.120745 -3.15265e-08 2.38716e-14)
(0.120745 -3.64323e-08 2.38776e-14)
(0.120745 -3.43624e-08 2.38856e-14)
(0.120745 -3.29518e-08 2.38772e-14)
(0.120745 -9.8464e-09 2.38955e-14)
(0.121676 -4.49595e-08 2.46554e-14)
(0.121676 -1.6038e-08 2.45827e-14)
(0.121675 -1.23788e-09 2.46428e-14)
(0.121675 5.16614e-09 2.45664e-14)
(0.121675 5.82267e-09 2.45744e-14)
(0.121675 5.47116e-09 2.46226e-14)
(0.121675 4.92634e-09 2.45951e-14)
(0.121676 4.43719e-09 2.45967e-14)
(0.121676 4.22012e-09 2.4535e-14)
(0.121676 4.33593e-09 2.46331e-14)
(0.121676 4.79076e-09 2.45205e-14)
(0.121676 5.50769e-09 2.44695e-14)
(0.121676 6.65632e-09 2.455e-14)
(0.121676 8.27951e-09 2.4453e-14)
(0.121676 1.01898e-08 2.45743e-14)
(0.121676 1.24169e-08 2.44176e-14)
(0.121676 1.4819e-08 2.43714e-14)
(0.121676 1.71572e-08 2.43963e-14)
(0.121676 1.95753e-08 2.43579e-14)
(0.121676 2.19941e-08 2.44999e-14)
(0.121676 2.40489e-08 2.43565e-14)
(0.121676 2.59486e-08 2.43221e-14)
(0.121676 2.7761e-08 2.44044e-14)
(0.121676 2.92888e-08 2.43079e-14)
(0.121676 3.07673e-08 2.43853e-14)
(0.121676 3.20506e-08 2.42896e-14)
(0.121676 3.30791e-08 2.42788e-14)
(0.121676 3.39699e-08 2.43116e-14)
(0.121676 3.46655e-08 2.42764e-14)
(0.121676 3.52904e-08 2.44217e-14)
(0.121676 3.59011e-08 2.42855e-14)
(0.121676 3.62959e-08 2.42573e-14)
(0.121676 3.65217e-08 2.42753e-14)
(0.121676 3.66204e-08 2.42294e-14)
(0.121676 3.66752e-08 2.43257e-14)
(0.121676 3.66457e-08 2.42805e-14)
(0.121676 3.64195e-08 2.42589e-14)
(0.121676 3.62537e-08 2.42235e-14)
(0.121676 3.57959e-08 2.41894e-14)
(0.121676 3.53128e-08 2.42061e-14)
(0.121676 3.44963e-08 2.42045e-14)
(0.121676 3.38173e-08 2.42243e-14)
(0.121676 3.45634e-08 2.42104e-14)
(0.121676 3.68e-08 2.41754e-14)
(0.121676 3.94979e-08 2.41895e-14)
(0.121676 3.94045e-08 2.41899e-14)
(0.121676 3.52059e-08 2.4215e-14)
(0.121676 2.86104e-08 2.41164e-14)
(0.121676 2.09368e-08 2.41774e-14)
(0.121676 1.28266e-08 2.42085e-14)
(0.121676 4.66104e-09 2.42209e-14)
(0.121676 -3.48875e-09 2.42581e-14)
(0.121676 -1.13936e-08 2.42583e-14)
(0.121676 -1.89212e-08 2.42389e-14)
(0.121676 -2.46111e-08 2.42606e-14)
(0.121676 -2.98068e-08 2.42597e-14)
(0.121676 -2.79855e-08 2.42827e-14)
(0.121676 -2.7145e-08 2.42398e-14)
(0.121676 -3.62704e-09 2.42738e-14)
(0.122579 -4.4558e-08 2.49971e-14)
(0.122579 -1.42273e-08 2.49977e-14)
(0.122579 8.69067e-10 2.50148e-14)
(0.122579 6.72844e-09 2.49344e-14)
(0.122579 6.62464e-09 2.49511e-14)
(0.122579 5.108e-09 2.50096e-14)
(0.122579 3.34231e-09 2.50148e-14)
(0.122579 1.82445e-09 2.50123e-14)
(0.122579 8.07671e-10 2.49598e-14)
(0.122579 3.40145e-10 2.50184e-14)
(0.122579 3.92399e-10 2.4938e-14)
(0.122579 9.22397e-10 2.49009e-14)
(0.122579 1.97819e-09 2.49157e-14)
(0.12258 3.51207e-09 2.48814e-14)
(0.12258 5.46047e-09 2.4907e-14)
(0.12258 7.78782e-09 2.48378e-14)
(0.12258 1.02402e-08 2.47982e-14)
(0.12258 1.26903e-08 2.48097e-14)
(0.12258 1.52158e-08 2.47808e-14)
(0.12258 1.78123e-08 2.48323e-14)
(0.12258 2.00721e-08 2.4771e-14)
(0.12258 2.21716e-08 2.47472e-14)
(0.12258 2.4238e-08 2.47692e-14)
(0.12258 2.5998e-08 2.4732e-14)
(0.12258 2.77019e-08 2.47532e-14)
(0.12258 2.92688e-08 2.47051e-14)
(0.12258 3.05609e-08 2.4699e-14)
(0.12258 3.16771e-08 2.47127e-14)
(0.12258 3.26327e-08 2.46994e-14)
(0.12258 3.35516e-08 2.47419e-14)
(0.12258 3.44457e-08 2.46969e-14)
(0.12258 3.50833e-08 2.4676e-14)
(0.12258 3.55535e-08 2.46779e-14)
(0.12258 3.59446e-08 2.465e-14)
(0.12258 3.62721e-08 2.4695e-14)
(0.12258 3.65008e-08 2.46356e-14)
(0.12258 3.65164e-08 2.46376e-14)
(0.12258 3.65857e-08 2.46017e-14)
(0.12258 3.63434e-08 2.45535e-14)
(0.12258 3.60066e-08 2.45882e-14)
(0.12258 3.56467e-08 2.45749e-14)
(0.12258 3.48019e-08 2.4612e-14)
(0.12258 3.48172e-08 2.45973e-14)
(0.12258 3.63266e-08 2.45417e-14)
(0.12258 3.8931e-08 2.45753e-14)
(0.12258 4.04851e-08 2.45648e-14)
(0.12258 3.86068e-08 2.46077e-14)
(0.12258 3.38636e-08 2.45885e-14)
(0.12258 2.73263e-08 2.45472e-14)
(0.12258 1.98298e-08 2.45937e-14)
(0.12258 1.19369e-08 2.45957e-14)
(0.12258 3.88394e-09 2.46543e-14)
(0.12258 -3.98139e-09 2.46538e-14)
(0.12258 -1.15967e-08 2.46159e-14)
(0.12258 -1.75221e-08 2.46531e-14)
(0.12258 -2.29677e-08 2.46371e-14)
(0.122579 -2.14028e-08 2.46796e-14)
(0.122579 -2.11209e-08 2.46718e-14)
(0.122579 2.50086e-09 2.46522e-14)
(0.123458 -4.46366e-08 2.53754e-14)
(0.123458 -1.31957e-08 2.54067e-14)
(0.123458 2.42655e-09 2.53947e-14)
(0.123458 8.28843e-09 2.52792e-14)
(0.123458 7.75845e-09 2.5303e-14)
(0.123458 5.41794e-09 2.5379e-14)
(0.123458 2.68909e-09 2.54266e-14)
(0.123458 2.01514e-10 2.53918e-14)
(0.123458 -1.65679e-09 2.53718e-14)
(0.123458 -2.85399e-09 2.5363e-14)
(0.123458 -3.31316e-09 2.53293e-14)
(0.123458 -3.10429e-09 2.53195e-14)
(0.123458 -2.27534e-09 2.52999e-14)
(0.123458 -8.59567e-10 2.52933e-14)
(0.123458 1.0692e-09 2.52665e-14)
(0.123458 3.39745e-09 2.52306e-14)
(0.123458 5.84845e-09 2.52156e-14)
(0.123458 8.36709e-09 2.51899e-14)
(0.123458 1.09884e-08 2.51941e-14)
(0.123458 1.37299e-08 2.51798e-14)
(0.123458 1.62007e-08 2.51599e-14)
(0.123458 1.85019e-08 2.51634e-14)
(0.123458 2.07851e-08 2.51493e-14)
(0.123458 2.27797e-08 2.51431e-14)
(0.123458 2.47143e-08 2.51115e-14)
(0.123458 2.6519e-08 2.50945e-14)
(0.123458 2.80644e-08 2.51107e-14)
(0.123458 2.94437e-08 2.51019e-14)
(0.123458 3.06829e-08 2.51115e-14)
(0.123458 3.19265e-08 2.50953e-14)
(0.123458 3.30959e-08 2.50812e-14)
(0.123458 3.39598e-08 2.50865e-14)
(0.123458 3.46912e-08 2.50588e-14)
(0.123458 3.53879e-08 2.50595e-14)
(0.123458 3.60015e-08 2.50439e-14)
(0.123458 3.64638e-08 2.4966e-14)
(0.123458 3.67432e-08 2.50162e-14)
(0.123458 3.70556e-08 2.49788e-14)
(0.123458 3.70311e-08 2.49059e-14)
(0.123458 3.69311e-08 2.49756e-14)
(0.123458 3.69354e-08 2.49364e-14)
(0.123458 3.61201e-08 2.50051e-14)
(0.123458 3.56529e-08 2.49807e-14)
(0.123458 3.64227e-08 2.48958e-14)
(0.123458 3.84702e-08 2.49683e-14)
(0.123458 4.06738e-08 2.49309e-14)
(0.123458 4.053e-08 2.50049e-14)
(0.123458 3.7588e-08 2.49805e-14)
(0.123458 3.246e-08 2.49069e-14)
(0.123458 2.59206e-08 2.49836e-14)
(0.123458 1.86094e-08 2.49611e-14)
(0.123458 1.0875e-08 2.50544e-14)
(0.123458 3.1762e-09 2.50437e-14)
(0.123458 -4.37947e-09 2.49833e-14)
(0.123458 -1.04237e-08 2.5055e-14)
(0.123458 -1.60334e-08 2.50066e-14)
(0.123458 -1.47869e-08 2.50827e-14)
(0.123458 -1.50456e-08 2.50735e-14)
(0.123458 8.57302e-09 2.50196e-14)
(0.124311 -4.50328e-08 2.5762e-14)
(0.124311 -1.28352e-08 2.57274e-14)
(0.124311 3.37857e-09 2.57632e-14)
(0.124311 9.46073e-09 2.5614e-14)
(0.124311 8.8253e-09 2.5662e-14)
(0.124311 5.99603e-09 2.57614e-14)
(0.124311 2.57777e-09 2.57466e-14)
(0.124311 -6.83332e-10 2.57603e-14)
(0.124311 -3.34248e-09 2.56877e-14)
(0.124311 -5.2385e-09 2.57053e-14)
(0.124311 -6.27888e-09 2.57096e-14)
(0.124311 -6.53696e-09 2.56417e-14)
(0.124311 -5.99565e-09 2.56674e-14)
(0.124311 -4.74008e-09 2.56098e-14)
(0.124311 -2.94662e-09 2.56089e-14)
(0.124311 -6.85724e-10 2.56112e-14)
(0.124311 1.78073e-09 2.55384e-14)
(0.124311 4.34275e-09 2.55572e-14)
(0.124311 7.00381e-09 2.55152e-14)
(0.124311 9.83313e-09 2.55176e-14)
(0.124311 1.24724e-08 2.55382e-14)
(0.124311 1.49733e-08 2.54848e-14)
(0.124311 1.74731e-08 2.55132e-14)
(0.124312 1.96954e-08 2.54622e-14)
(0.124312 2.18638e-08 2.54598e-14)
(0.124312 2.39086e-08 2.54737e-14)
(0.124312 2.56957e-08 2.54291e-14)
(0.124312 2.73275e-08 2.5474e-14)
(0.124312 2.88928e-08 2.54315e-14)
(0.124312 3.04342e-08 2.54316e-14)
(0.124312 3.18347e-08 2.54547e-14)
(0.124312 3.29684e-08 2.54037e-14)
(0.124312 3.40042e-08 2.54269e-14)
(0.124312 3.50145e-08 2.53767e-14)
(0.124312 3.59025e-08 2.53791e-14)
(0.124312 3.65867e-08 2.5361e-14)
(0.124312 3.71045e-08 2.54153e-14)
(0.124312 3.76533e-08 2.534e-14)
(0.124312 3.79121e-08 2.53256e-14)
(0.124312 3.80996e-08 2.53734e-14)
(0.124312 3.83972e-08 2.53685e-14)
(0.124312 3.76857e-08 2.54162e-14)
(0.124312 3.69608e-08 2.53512e-14)
(0.124312 3.71828e-08 2.53176e-14)
(0.124312 3.85467e-08 2.53831e-14)
(0.124312 4.07586e-08 2.53689e-14)
(0.124312 4.16743e-08 2.54181e-14)
(0.124312 4.02267e-08 2.53573e-14)
(0.124312 3.64402e-08 2.53388e-14)
(0.124312 3.09958e-08 2.53851e-14)
(0.124311 2.45236e-08 2.53975e-14)
(0.124311 1.73191e-08 2.54653e-14)
(0.124311 9.94847e-09 2.54181e-14)
(0.124311 2.57589e-09 2.54183e-14)
(0.124311 -3.48641e-09 2.54809e-14)
(0.124311 -9.15895e-09 2.54488e-14)
(0.124311 -8.26285e-09 2.54975e-14)
(0.124311 -9.13005e-09 2.54556e-14)
(0.124311 1.45195e-08 2.54562e-14)
(0.125141 -4.55265e-08 2.6149e-14)
(0.125141 -1.29286e-08 2.60314e-14)
(0.125141 3.67767e-09 2.61048e-14)
(0.125141 1.00803e-08 2.5992e-14)
(0.125141 9.51484e-09 2.61208e-14)
(0.125141 6.52058e-09 2.61463e-14)
(0.125141 2.7452e-09 2.60448e-14)
(0.125141 -1.11046e-09 2.61451e-14)
(0.125141 -4.47289e-09 2.59814e-14)
(0.125141 -7.00635e-09 2.60233e-14)
(0.125141 -8.61513e-09 2.60808e-14)
(0.125141 -9.31905e-09 2.59435e-14)
(0.125141 -9.09405e-09 2.60151e-14)
(0.125141 -8.09512e-09 2.5908e-14)
(0.125141 -6.47801e-09 2.59328e-14)
(0.125141 -4.35121e-09 2.59841e-14)
(0.125141 -1.92555e-09 2.58404e-14)
(0.125141 6.18324e-10 2.59154e-14)
(0.125141 3.34781e-09 2.58167e-14)
(0.125141 6.24524e-09 2.59181e-14)
(0.125141 8.98582e-09 2.59115e-14)
(0.125141 1.16944e-08 2.57845e-14)
(0.125141 1.43678e-08 2.58671e-14)
(0.125141 1.68144e-08 2.57626e-14)
(0.125141 1.92188e-08 2.58196e-14)
(0.125141 2.1472e-08 2.58499e-14)
(0.125141 2.34987e-08 2.57293e-14)
(0.125141 2.54011e-08 2.58647e-14)
(0.125141 2.72714e-08 2.57305e-14)
(0.125141 2.91172e-08 2.57562e-14)
(0.125141 3.07508e-08 2.58239e-14)
(0.125141 3.21786e-08 2.57032e-14)
(0.125141 3.34987e-08 2.58514e-14)
(0.125141 3.47619e-08 2.56752e-14)
(0.125141 3.59796e-08 2.5738e-14)
(0.125141 3.69284e-08 2.57457e-14)
(0.125141 3.7668e-08 2.57782e-14)
(0.125141 3.84392e-08 2.568e-14)
(0.125141 3.90384e-08 2.57294e-14)
(0.125141 3.94948e-08 2.57645e-14)
(0.125141 3.99784e-08 2.57888e-14)
(0.125141 3.94755e-08 2.58023e-14)
(0.125141 3.87117e-08 2.57005e-14)
(0.125141 3.86266e-08 2.57289e-14)
(0.125141 3.93647e-08 2.58056e-14)
(0.125141 4.11939e-08 2.5798e-14)
(0.125141 4.25642e-08 2.58092e-14)
(0.125141 4.21461e-08 2.57107e-14)
(0.125141 3.95775e-08 2.57482e-14)
(0.125141 3.52246e-08 2.57833e-14)
(0.125141 2.96597e-08 2.58231e-14)
(0.125141 2.31734e-08 2.59002e-14)
(0.125141 1.62296e-08 2.57669e-14)
(0.125141 9.15182e-09 2.58327e-14)
(0.125141 3.16163e-09 2.58711e-14)
(0.125141 -2.51653e-09 2.58836e-14)
(0.125141 -1.8883e-09 2.59357e-14)
(0.125141 -3.45511e-09 2.5812e-14)
(0.125141 2.01984e-08 2.58729e-14)
(0.125947 -4.60826e-08 2.64478e-14)
(0.125947 -1.33486e-08 2.62951e-14)
(0.125947 3.43584e-09 2.6381e-14)
(0.125947 1.00883e-08 2.63471e-14)
(0.125947 9.75597e-09 2.63669e-14)
(0.125947 6.79303e-09 2.64483e-14)
(0.125947 2.85002e-09 2.62936e-14)
(0.125947 -1.39498e-09 2.63877e-14)
(0.125947 -5.25611e-09 2.62221e-14)
(0.125947 -8.23604e-09 2.62657e-14)
(0.125947 -1.03753e-08 2.63597e-14)
(0.125947 -1.1535e-08 2.621e-14)
(0.125948 -1.16412e-08 2.62993e-14)
(0.125948 -1.08991e-08 2.61629e-14)
(0.125948 -9.53884e-09 2.61802e-14)
(0.125948 -7.57431e-09 2.62692e-14)
(0.125948 -5.17699e-09 2.60971e-14)
(0.125948 -2.6903e-09 2.6199e-14)
(0.125948 8.39302e-11 2.60779e-14)
(0.125948 3.00521e-09 2.6094e-14)
(0.125948 5.79534e-09 2.62e-14)
(0.125948 8.67347e-09 2.60411e-14)
(0.125948 1.15249e-08 2.6149e-14)
(0.125948 1.42195e-08 2.60243e-14)
(0.125948 1.68621e-08 2.60402e-14)
(0.125948 1.92585e-08 2.61385e-14)
(0.125948 2.15447e-08 2.5995e-14)
(0.125948 2.37513e-08 2.61115e-14)
(0.125948 2.58599e-08 2.59804e-14)
(0.125948 2.79744e-08 2.60041e-14)
(0.125948 2.9866e-08 2.61106e-14)
(0.125948 3.15985e-08 2.59704e-14)
(0.125948 3.32099e-08 2.6064e-14)
(0.125948 3.47515e-08 2.59256e-14)
(0.125948 3.62494e-08 2.59477e-14)
(0.125948 3.74729e-08 2.60511e-14)
(0.125948 3.84993e-08 2.60656e-14)
(0.125948 3.94706e-08 2.59731e-14)
(0.125948 4.03603e-08 2.60606e-14)
(0.125948 4.10902e-08 2.60569e-14)
(0.125948 4.17913e-08 2.61202e-14)
(0.125948 4.15268e-08 2.61003e-14)
(0.125948 4.08362e-08 2.60063e-14)
(0.125948 4.06071e-08 2.60683e-14)
(0.125948 4.09009e-08 2.6078e-14)
(0.125948 4.22369e-08 2.613e-14)
(0.125948 4.36315e-08 2.61097e-14)
(0.125948 4.38146e-08 2.603e-14)
(0.125948 4.21885e-08 2.60941e-14)
(0.125948 3.88334e-08 2.60837e-14)
(0.125948 3.41535e-08 2.61612e-14)
(0.125948 2.83666e-08 2.61602e-14)
(0.125948 2.19724e-08 2.60764e-14)
(0.125948 1.53063e-08 2.61713e-14)
(0.125947 9.4412e-09 2.6183e-14)
(0.125947 3.8532e-09 2.62198e-14)
(0.125947 4.16872e-09 2.61999e-14)
(0.125947 1.7953e-09 2.61305e-14)
(0.125947 2.55642e-08 2.6217e-14)
(0.126732 -4.66254e-08 2.6743e-14)
(0.126732 -1.39024e-08 2.66128e-14)
(0.126732 2.78074e-09 2.6658e-14)
(0.126732 9.49089e-09 2.669e-14)
(0.126732 9.45307e-09 2.66926e-14)
(0.126732 6.71694e-09 2.67474e-14)
(0.126732 2.71887e-09 2.66138e-14)
(0.126732 -1.70514e-09 2.66705e-14)
(0.126732 -5.86784e-09 2.65441e-14)
(0.126732 -9.22964e-09 2.65785e-14)
(0.126732 -1.17355e-08 2.66502e-14)
(0.126732 -1.32054e-08 2.65222e-14)
(0.126732 -1.36507e-08 2.65901e-14)
(0.126732 -1.32126e-08 2.64447e-14)
(0.126732 -1.20801e-08 2.65083e-14)
(0.126732 -1.03314e-08 2.65685e-14)
(0.126732 -8.03774e-09 2.64253e-14)
(0.126732 -5.53901e-09 2.64961e-14)
(0.126732 -2.761e-09 2.63646e-14)
(0.126732 1.39751e-10 2.64292e-14)
(0.126732 2.99266e-09 2.65041e-14)
(0.126732 6.00765e-09 2.63333e-14)
(0.126732 9.01242e-09 2.64458e-14)
(0.126732 1.19125e-08 2.62768e-14)
(0.126732 1.47865e-08 2.63719e-14)
(0.126732 1.73507e-08 2.64449e-14)
(0.126732 1.98761e-08 2.63192e-14)
(0.126732 2.23832e-08 2.64056e-14)
(0.126732 2.47263e-08 2.6271e-14)
(0.126732 2.70887e-08 2.63382e-14)
(0.126732 2.92545e-08 2.64144e-14)
(0.126732 3.12779e-08 2.62888e-14)
(0.126732 3.31259e-08 2.636e-14)
(0.126732 3.49368e-08 2.62511e-14)
(0.126732 3.67536e-08 2.62803e-14)
(0.126732 3.82504e-08 2.63805e-14)
(0.126732 3.96019e-08 2.63847e-14)
(0.126732 4.08037e-08 2.6216e-14)
(0.126732 4.19374e-08 2.63998e-14)
(0.126732 4.28907e-08 2.64107e-14)
(0.126732 4.378e-08 2.6461e-14)
(0.126732 4.38089e-08 2.64359e-14)
(0.126732 4.33332e-08 2.63279e-14)
(0.126732 4.308e-08 2.64193e-14)
(0.126732 4.30896e-08 2.64264e-14)
(0.126732 4.39709e-08 2.6474e-14)
(0.126732 4.50913e-08 2.64498e-14)
(0.126732 4.55395e-08 2.63115e-14)
(0.126732 4.45873e-08 2.64443e-14)
(0.126732 4.20471e-08 2.6448e-14)
(0.126732 3.8147e-08 2.65095e-14)
(0.126732 3.30674e-08 2.65059e-14)
(0.126732 2.7247e-08 2.63994e-14)
(0.126732 2.09974e-08 2.65151e-14)
(0.126732 1.52959e-08 2.65278e-14)
(0.126732 9.84077e-09 2.65691e-14)
(0.126731 9.90899e-09 2.65494e-14)
(0.126731 6.62916e-09 2.6454e-14)
(0.126731 3.05603e-08 2.65646e-14)
(0.127494 -4.70721e-08 2.70374e-14)
(0.127494 -1.45641e-08 2.69662e-14)
(0.127494 1.80284e-09 2.69628e-14)
(0.127494 8.40906e-09 2.70413e-14)
(0.127494 8.6594e-09 2.70179e-14)
(0.127494 6.16517e-09 2.70431e-14)
(0.127494 2.19348e-09 2.69581e-14)
(0.127494 -2.22503e-09 2.69821e-14)
(0.127494 -6.44807e-09 2.68903e-14)
(0.127494 -1.00272e-08 2.69204e-14)
(0.127494 -1.27888e-08 2.69453e-14)
(0.127494 -1.45508e-08 2.68816e-14)
(0.127494 -1.52892e-08 2.69038e-14)
(0.127494 -1.50561e-08 2.68406e-14)
(0.127494 -1.41633e-08 2.68575e-14)
(0.127494 -1.2604e-08 2.68724e-14)
(0.127494 -1.04114e-08 2.6783e-14)
(0.127494 -7.95293e-09 2.68203e-14)
(0.127494 -5.22005e-09 2.67642e-14)
(0.127494 -2.32106e-09 2.67853e-14)
(0.127494 6.31691e-10 2.68127e-14)
(0.127494 3.77879e-09 2.67304e-14)
(0.127494 6.90153e-09 2.67716e-14)
(0.127494 9.92538e-09 2.67153e-14)
(0.127494 1.30235e-08 2.67311e-14)
(0.127494 1.57578e-08 2.6758e-14)
(0.127494 1.85053e-08 2.66874e-14)
(0.127494 2.13661e-08 2.67254e-14)
(0.127494 2.38746e-08 2.66667e-14)
(0.127494 2.64332e-08 2.66991e-14)
(0.127494 2.8963e-08 2.67245e-14)
(0.127494 3.12112e-08 2.6657e-14)
(0.127494 3.33049e-08 2.66809e-14)
(0.127494 3.54507e-08 2.66121e-14)
(0.127494 3.74903e-08 2.66407e-14)
(0.127494 3.92514e-08 2.66479e-14)
(0.127494 4.09547e-08 2.66972e-14)
(0.127494 4.24079e-08 2.66511e-14)
(0.127494 4.37585e-08 2.67004e-14)
(0.127494 4.49645e-08 2.67487e-14)
(0.127494 4.60548e-08 2.67277e-14)
(0.127494 4.63603e-08 2.67542e-14)
(0.127494 4.6168e-08 2.66962e-14)
(0.127494 4.59217e-08 2.6728e-14)
(0.127494 4.57881e-08 2.67686e-14)
(0.127494 4.63697e-08 2.67447e-14)
(0.127494 4.71562e-08 2.67713e-14)
(0.127494 4.76041e-08 2.67304e-14)
(0.127494 4.70503e-08 2.67534e-14)
(0.127494 4.51168e-08 2.6798e-14)
(0.127494 4.18355e-08 2.67837e-14)
(0.127494 3.7338e-08 2.68272e-14)
(0.127494 3.20676e-08 2.67722e-14)
(0.127494 2.6261e-08 2.68194e-14)
(0.127494 2.08123e-08 2.68697e-14)
(0.127494 1.5455e-08 2.68451e-14)
(0.127494 1.51661e-08 2.68753e-14)
(0.127494 1.10203e-08 2.68306e-14)
(0.127494 3.51504e-08 2.68698e-14)
(0.128235 -4.74023e-08 2.73322e-14)
(0.128235 -1.52151e-08 2.73105e-14)
(0.128235 6.31107e-10 2.7272e-14)
(0.128235 6.97078e-09 2.73412e-14)
(0.128235 7.38592e-09 2.73321e-14)
(0.128235 5.12241e-09 2.7338e-14)
(0.128235 1.28495e-09 2.73112e-14)
(0.128235 -3.01822e-09 2.72933e-14)
(0.128235 -7.19247e-09 2.7253e-14)
(0.128235 -1.08436e-08 2.72679e-14)
(0.128235 -1.37023e-08 2.72393e-14)
(0.128235 -1.56173e-08 2.72253e-14)
(0.128235 -1.65823e-08 2.7224e-14)
(0.128235 -1.65727e-08 2.7201e-14)
(0.128235 -1.58636e-08 2.72133e-14)
(0.128235 -1.44615e-08 2.71762e-14)
(0.128235 -1.23389e-08 2.71496e-14)
(0.128235 -9.9192e-09 2.71486e-14)
(0.128235 -7.25916e-09 2.71296e-14)
(0.128235 -4.32403e-09 2.71472e-14)
(0.128235 -1.24429e-09 2.71204e-14)
(0.128235 1.96118e-09 2.71002e-14)
(0.128235 5.14559e-09 2.71043e-14)
(0.128235 8.31727e-09 2.70844e-14)
(0.128235 1.15688e-08 2.70976e-14)
(0.128235 1.45367e-08 2.70698e-14)
(0.128235 1.753e-08 2.70501e-14)
(0.128235 2.06461e-08 2.70553e-14)
(0.128235 2.33747e-08 2.70439e-14)
(0.128235 2.60996e-08 2.70657e-14)
(0.128235 2.89265e-08 2.70344e-14)
(0.128235 3.14643e-08 2.70137e-14)
(0.128235 3.38246e-08 2.70103e-14)
(0.128235 3.62017e-08 2.69861e-14)
(0.128235 3.85031e-08 2.7006e-14)
(0.128235 4.05662e-08 2.69163e-14)
(0.128235 4.2549e-08 2.7022e-14)
(0.128235 4.43159e-08 2.70321e-14)
(0.128235 4.5891e-08 2.701e-14)
(0.128235 4.7283e-08 2.7091e-14)
(0.128235 4.85833e-08 2.6984e-14)
(0.128235 4.91823e-08 2.7078e-14)
(0.128235 4.92918e-08 2.70767e-14)
(0.128235 4.90964e-08 2.70413e-14)
(0.128235 4.89236e-08 2.71151e-14)
(0.128235 4.93424e-08 2.70043e-14)
(0.128235 4.98623e-08 2.70968e-14)
(0.128235 5.02145e-08 2.71214e-14)
(0.128235 4.97517e-08 2.70741e-14)
(0.128235 4.81755e-08 2.71502e-14)
(0.128235 4.53922e-08 2.70466e-14)
(0.128235 4.13819e-08 2.71517e-14)
(0.128235 3.65587e-08 2.71587e-14)
(0.128235 3.11821e-08 2.71347e-14)
(0.128235 2.59747e-08 2.72181e-14)
(0.128235 2.06782e-08 2.711e-14)
(0.128235 1.99673e-08 2.72059e-14)
(0.128235 1.48841e-08 2.72187e-14)
(0.128235 3.93762e-08 2.71849e-14)
(0.128955 -4.75701e-08 2.7625e-14)
(0.128955 -1.57966e-08 2.76411e-14)
(0.128955 -6.4441e-10 2.75743e-14)
(0.128955 5.25613e-09 2.76734e-14)
(0.128955 5.68535e-09 2.76403e-14)
(0.128955 3.60886e-09 2.76292e-14)
(0.128955 -2.30667e-11 2.76423e-14)
(0.128955 -4.14867e-09 2.75941e-14)
(0.128955 -8.14254e-09 2.75938e-14)
(0.128955 -1.17348e-08 2.76152e-14)
(0.128955 -1.46244e-08 2.75192e-14)
(0.128955 -1.66365e-08 2.75652e-14)
(0.128955 -1.77074e-08 2.7541e-14)
(0.128955 -1.77757e-08 2.75511e-14)
(0.128955 -1.71864e-08 2.75709e-14)
(0.128955 -1.59164e-08 2.74668e-14)
(0.128955 -1.38681e-08 2.75019e-14)
(0.128955 -1.14705e-08 2.74727e-14)
(0.128955 -8.84367e-09 2.74855e-14)
(0.128955 -5.90293e-09 2.75108e-14)
(0.128955 -2.73738e-09 2.74146e-14)
(0.128955 5.5544e-10 2.74571e-14)
(0.128955 3.84141e-09 2.74326e-14)
(0.128955 7.09238e-09 2.74441e-14)
(0.128955 1.04901e-08 2.74652e-14)
(0.128955 1.37439e-08 2.73673e-14)
(0.128955 1.69296e-08 2.74052e-14)
(0.128955 2.0269e-08 2.73823e-14)
(0.128955 2.31811e-08 2.74061e-14)
(0.128955 2.6067e-08 2.74338e-14)
(0.128955 2.92118e-08 2.73313e-14)
(0.128955 3.20168e-08 2.7367e-14)
(0.128955 3.46539e-08 2.7337e-14)
(0.128955 3.73165e-08 2.73458e-14)
(0.128955 3.9866e-08 2.73699e-14)
(0.128955 4.21837e-08 2.72387e-14)
(0.128955 4.43786e-08 2.73044e-14)
(0.128955 4.64418e-08 2.74566e-14)
(0.128955 4.82908e-08 2.73078e-14)
(0.128955 4.99541e-08 2.73707e-14)
(0.128955 5.14502e-08 2.72843e-14)
(0.128955 5.22766e-08 2.73557e-14)
(0.128955 5.26592e-08 2.74662e-14)
(0.128955 5.25803e-08 2.73395e-14)
(0.128955 5.24601e-08 2.73966e-14)
(0.128955 5.28086e-08 2.73066e-14)
(0.128955 5.31343e-08 2.73759e-14)
(0.128955 5.33151e-08 2.75378e-14)
(0.128955 5.28394e-08 2.7384e-14)
(0.128955 5.14435e-08 2.74374e-14)
(0.128955 4.89763e-08 2.73527e-14)
(0.128955 4.53551e-08 2.74303e-14)
(0.128955 4.08859e-08 2.7551e-14)