/*--------------------------------*- C++ -*----------------------------------*\
  =========                 |
  \\      /  F ield         | OpenFOAM: The Open Source CFD Toolbox
   \\    /   O peration     | Website:  https://openfoam.org
    \\  /    A nd           | Version:  7
     \\/     M anipulation  |
\*---------------------------------------------------------------------------*/
FoamFile
{
    version     2.0;
    format      ascii;
    class       volScalarField;
    location    "3000";
    object      k;
}
// * * * * * * * * * * * * * * * * * * * * * * * * * * * * * * * * * * * * * //

dimensions      [0 2 -2 0 0 0 0];

internalField   nonuniform List<scalar> 
24000
(
7.8911e-09
7.89093e-09
7.8907e-09
7.89047e-09
7.89026e-09
7.89009e-09
7.88996e-09
7.88987e-09
7.88981e-09
7.88978e-09
7.88977e-09
7.8898e-09
7.88984e-09
7.88989e-09
7.88994e-09
7.88999e-09
7.89004e-09
7.89009e-09
7.89013e-09
7.89018e-09
7.89023e-09
7.89029e-09
7.89035e-09
7.89042e-09
7.89048e-09
7.89054e-09
7.8906e-09
7.89065e-09
7.8907e-09
7.89074e-09
7.89079e-09
7.89084e-09
7.89089e-09
7.89095e-09
7.891e-09
7.89105e-09
7.8911e-09
7.89115e-09
7.89119e-09
7.89122e-09
7.89126e-09
7.89129e-09
7.89132e-09
7.89135e-09
7.89138e-09
7.8914e-09
7.89142e-09
7.89144e-09
7.89146e-09
7.89147e-09
7.89149e-09
7.89151e-09
7.89153e-09
7.89154e-09
7.89156e-09
7.89157e-09
7.89158e-09
7.89158e-09
7.89158e-09
7.89156e-09
7.89154e-09
7.8915e-09
7.89146e-09
7.89141e-09
7.89136e-09
7.89131e-09
7.89125e-09
7.8912e-09
7.89115e-09
7.8911e-09
7.89106e-09
7.89101e-09
7.89097e-09
7.89094e-09
7.8909e-09
7.89087e-09
7.89084e-09
7.89081e-09
7.89079e-09
7.89077e-09
7.89076e-09
7.89074e-09
7.89073e-09
7.89072e-09
7.89072e-09
7.89071e-09
7.8907e-09
7.8907e-09
7.89069e-09
7.89069e-09
7.89068e-09
7.89068e-09
7.89067e-09
7.89067e-09
7.89067e-09
7.89067e-09
7.89067e-09
7.89068e-09
7.89069e-09
7.8907e-09
7.89072e-09
7.89074e-09
7.89076e-09
7.89078e-09
7.8908e-09
7.89083e-09
7.89086e-09
7.89089e-09
7.89093e-09
7.89097e-09
7.891e-09
7.89104e-09
7.89107e-09
7.8911e-09
7.89113e-09
7.89115e-09
7.89117e-09
7.89118e-09
7.89115e-09
7.89121e-09
2.53779e-07
2.53774e-07
2.53766e-07
2.53759e-07
2.53752e-07
2.53747e-07
2.53743e-07
2.5374e-07
2.53738e-07
2.53737e-07
2.53737e-07
2.53737e-07
2.53739e-07
2.5374e-07
2.53742e-07
2.53744e-07
2.53745e-07
2.53747e-07
2.53748e-07
2.5375e-07
2.53751e-07
2.53753e-07
2.53755e-07
2.53757e-07
2.53759e-07
2.53761e-07
2.53763e-07
2.53765e-07
2.53766e-07
2.53768e-07
2.53769e-07
2.53771e-07
2.53773e-07
2.53774e-07
2.53776e-07
2.53778e-07
2.53779e-07
2.53781e-07
2.53782e-07
2.53783e-07
2.53784e-07
2.53785e-07
2.53786e-07
2.53787e-07
2.53788e-07
2.53789e-07
2.53789e-07
2.5379e-07
2.53791e-07
2.53791e-07
2.53792e-07
2.53792e-07
2.53793e-07
2.53793e-07
2.53794e-07
2.53794e-07
2.53795e-07
2.53795e-07
2.53795e-07
2.53794e-07
2.53793e-07
2.53792e-07
2.53791e-07
2.53789e-07
2.53788e-07
2.53786e-07
2.53784e-07
2.53782e-07
2.53781e-07
2.53779e-07
2.53778e-07
2.53776e-07
2.53775e-07
2.53774e-07
2.53773e-07
2.53772e-07
2.53771e-07
2.5377e-07
2.53769e-07
2.53769e-07
2.53768e-07
2.53768e-07
2.53767e-07
2.53767e-07
2.53767e-07
2.53767e-07
2.53767e-07
2.53766e-07
2.53766e-07
2.53766e-07
2.53766e-07
2.53766e-07
2.53765e-07
2.53765e-07
2.53765e-07
2.53765e-07
2.53765e-07
2.53766e-07
2.53766e-07
2.53766e-07
2.53767e-07
2.53768e-07
2.53768e-07
2.53769e-07
2.5377e-07
2.53771e-07
2.53771e-07
2.53773e-07
2.53774e-07
2.53775e-07
2.53776e-07
2.53777e-07
2.53778e-07
2.53779e-07
2.5378e-07
2.53781e-07
2.53781e-07
2.53782e-07
2.53781e-07
2.53783e-07
1.84222e-06
1.84218e-06
1.84212e-06
1.84207e-06
1.84202e-06
1.84198e-06
1.84195e-06
1.84193e-06
1.84192e-06
1.84191e-06
1.84191e-06
1.84191e-06
1.84192e-06
1.84193e-06
1.84195e-06
1.84196e-06
1.84197e-06
1.84198e-06
1.84199e-06
1.842e-06
1.84201e-06
1.84203e-06
1.84204e-06
1.84206e-06
1.84207e-06
1.84209e-06
1.8421e-06
1.84211e-06
1.84212e-06
1.84213e-06
1.84215e-06
1.84216e-06
1.84217e-06
1.84218e-06
1.84219e-06
1.84221e-06
1.84222e-06
1.84223e-06
1.84224e-06
1.84225e-06
1.84225e-06
1.84226e-06
1.84227e-06
1.84228e-06
1.84228e-06
1.84229e-06
1.84229e-06
1.8423e-06
1.8423e-06
1.8423e-06
1.84231e-06
1.84231e-06
1.84232e-06
1.84232e-06
1.84232e-06
1.84233e-06
1.84233e-06
1.84233e-06
1.84233e-06
1.84232e-06
1.84232e-06
1.84231e-06
1.8423e-06
1.84229e-06
1.84228e-06
1.84227e-06
1.84225e-06
1.84224e-06
1.84223e-06
1.84222e-06
1.84221e-06
1.8422e-06
1.84219e-06
1.84218e-06
1.84217e-06
1.84216e-06
1.84216e-06
1.84215e-06
1.84214e-06
1.84214e-06
1.84214e-06
1.84213e-06
1.84213e-06
1.84213e-06
1.84213e-06
1.84213e-06
1.84212e-06
1.84212e-06
1.84212e-06
1.84212e-06
1.84212e-06
1.84212e-06
1.84212e-06
1.84212e-06
1.84212e-06
1.84212e-06
1.84212e-06
1.84212e-06
1.84212e-06
1.84212e-06
1.84213e-06
1.84213e-06
1.84214e-06
1.84214e-06
1.84215e-06
1.84215e-06
1.84216e-06
1.84217e-06
1.84218e-06
1.84219e-06
1.84219e-06
1.8422e-06
1.84221e-06
1.84222e-06
1.84222e-06
1.84223e-06
1.84223e-06
1.84224e-06
1.84223e-06
1.84224e-06
6.79799e-06
6.79783e-06
6.79764e-06
6.79744e-06
6.79727e-06
6.79713e-06
6.79702e-06
6.79695e-06
6.7969e-06
6.79687e-06
6.79686e-06
6.79688e-06
6.79691e-06
6.79696e-06
6.79701e-06
6.79705e-06
6.7971e-06
6.79714e-06
6.79717e-06
6.79721e-06
6.79726e-06
6.7973e-06
6.79736e-06
6.79741e-06
6.79747e-06
6.79752e-06
6.79757e-06
6.79761e-06
6.79766e-06
6.7977e-06
6.79773e-06
6.79778e-06
6.79782e-06
6.79786e-06
6.79791e-06
6.79795e-06
6.798e-06
6.79804e-06
6.79807e-06
6.7981e-06
6.79813e-06
6.79816e-06
6.79818e-06
6.79821e-06
6.79823e-06
6.79825e-06
6.79826e-06
6.79828e-06
6.7983e-06
6.79832e-06
6.79833e-06
6.79835e-06
6.79836e-06
6.79837e-06
6.79839e-06
6.7984e-06
6.7984e-06
6.79841e-06
6.7984e-06
6.79839e-06
6.79837e-06
6.79834e-06
6.7983e-06
6.79826e-06
6.79821e-06
6.79817e-06
6.79812e-06
6.79808e-06
6.79803e-06
6.79799e-06
6.79795e-06
6.79792e-06
6.79788e-06
6.79785e-06
6.79782e-06
6.7978e-06
6.79777e-06
6.79775e-06
6.79773e-06
6.79771e-06
6.7977e-06
6.79769e-06
6.79768e-06
6.79767e-06
6.79767e-06
6.79766e-06
6.79766e-06
6.79765e-06
6.79765e-06
6.79764e-06
6.79764e-06
6.79763e-06
6.79763e-06
6.79762e-06
6.79762e-06
6.79762e-06
6.79763e-06
6.79763e-06
6.79764e-06
6.79765e-06
6.79767e-06
6.79769e-06
6.79771e-06
6.79772e-06
6.79774e-06
6.79776e-06
6.79779e-06
6.79782e-06
6.79785e-06
6.79788e-06
6.79791e-06
6.79794e-06
6.79797e-06
6.798e-06
6.79802e-06
6.79804e-06
6.79805e-06
6.79806e-06
6.79804e-06
6.79809e-06
1.72557e-05
1.72553e-05
1.72548e-05
1.72544e-05
1.7254e-05
1.72536e-05
1.72534e-05
1.72532e-05
1.72531e-05
1.7253e-05
1.7253e-05
1.7253e-05
1.72531e-05
1.72532e-05
1.72533e-05
1.72535e-05
1.72536e-05
1.72537e-05
1.72538e-05
1.72539e-05
1.7254e-05
1.72541e-05
1.72542e-05
1.72544e-05
1.72545e-05
1.72546e-05
1.72547e-05
1.72549e-05
1.7255e-05
1.72551e-05
1.72552e-05
1.72553e-05
1.72554e-05
1.72555e-05
1.72556e-05
1.72557e-05
1.72558e-05
1.72559e-05
1.7256e-05
1.72561e-05
1.72561e-05
1.72562e-05
1.72563e-05
1.72563e-05
1.72564e-05
1.72564e-05
1.72565e-05
1.72565e-05
1.72565e-05
1.72566e-05
1.72566e-05
1.72567e-05
1.72567e-05
1.72567e-05
1.72568e-05
1.72568e-05
1.72568e-05
1.72568e-05
1.72568e-05
1.72567e-05
1.72567e-05
1.72566e-05
1.72565e-05
1.72564e-05
1.72563e-05
1.72562e-05
1.72561e-05
1.7256e-05
1.72559e-05
1.72558e-05
1.72557e-05
1.72556e-05
1.72555e-05
1.72554e-05
1.72553e-05
1.72553e-05
1.72552e-05
1.72552e-05
1.72551e-05
1.72551e-05
1.7255e-05
1.7255e-05
1.7255e-05
1.7255e-05
1.7255e-05
1.72549e-05
1.72549e-05
1.72549e-05
1.72549e-05
1.72549e-05
1.72549e-05
1.72549e-05
1.72549e-05
1.72549e-05
1.72549e-05
1.72549e-05
1.72549e-05
1.72549e-05
1.72549e-05
1.72549e-05
1.7255e-05
1.7255e-05
1.72551e-05
1.72551e-05
1.72552e-05
1.72552e-05
1.72553e-05
1.72554e-05
1.72554e-05
1.72555e-05
1.72556e-05
1.72557e-05
1.72557e-05
1.72558e-05
1.72559e-05
1.72559e-05
1.72559e-05
1.7256e-05
1.72559e-05
1.7256e-05
3.3837e-05
3.38362e-05
3.38352e-05
3.38344e-05
3.38337e-05
3.38331e-05
3.38326e-05
3.38323e-05
3.38321e-05
3.3832e-05
3.3832e-05
3.38321e-05
3.38322e-05
3.38324e-05
3.38327e-05
3.38329e-05
3.38331e-05
3.38333e-05
3.38335e-05
3.38336e-05
3.38338e-05
3.38341e-05
3.38343e-05
3.38345e-05
3.38348e-05
3.3835e-05
3.38353e-05
3.38355e-05
3.38357e-05
3.38358e-05
3.3836e-05
3.38362e-05
3.38364e-05
3.38366e-05
3.38368e-05
3.3837e-05
3.38372e-05
3.38374e-05
3.38375e-05
3.38377e-05
3.38378e-05
3.38379e-05
3.3838e-05
3.38382e-05
3.38383e-05
3.38383e-05
3.38384e-05
3.38385e-05
3.38386e-05
3.38387e-05
3.38387e-05
3.38388e-05
3.38389e-05
3.38389e-05
3.3839e-05
3.3839e-05
3.3839e-05
3.3839e-05
3.3839e-05
3.38389e-05
3.38388e-05
3.38387e-05
3.38385e-05
3.38383e-05
3.38381e-05
3.38379e-05
3.38377e-05
3.38375e-05
3.38373e-05
3.38371e-05
3.38369e-05
3.38367e-05
3.38366e-05
3.38364e-05
3.38363e-05
3.38362e-05
3.38361e-05
3.3836e-05
3.38359e-05
3.38358e-05
3.38357e-05
3.38357e-05
3.38357e-05
3.38356e-05
3.38356e-05
3.38356e-05
3.38356e-05
3.38355e-05
3.38355e-05
3.38355e-05
3.38355e-05
3.38354e-05
3.38354e-05
3.38354e-05
3.38354e-05
3.38354e-05
3.38354e-05
3.38354e-05
3.38355e-05
3.38356e-05
3.38356e-05
3.38357e-05
3.38358e-05
3.38359e-05
3.3836e-05
3.38361e-05
3.38362e-05
3.38364e-05
3.38365e-05
3.38366e-05
3.38368e-05
3.38369e-05
3.38371e-05
3.38372e-05
3.38373e-05
3.38374e-05
3.38374e-05
3.38375e-05
3.38374e-05
3.38376e-05
5.44626e-05
5.44612e-05
5.44598e-05
5.44586e-05
5.44576e-05
5.44568e-05
5.44561e-05
5.44557e-05
5.44554e-05
5.44553e-05
5.44553e-05
5.44554e-05
5.44556e-05
5.4456e-05
5.44563e-05
5.44567e-05
5.4457e-05
5.44573e-05
5.44576e-05
5.44579e-05
5.44582e-05
5.44585e-05
5.44588e-05
5.44592e-05
5.44596e-05
5.44599e-05
5.44603e-05
5.44606e-05
5.44609e-05
5.44612e-05
5.44614e-05
5.44617e-05
5.44619e-05
5.44622e-05
5.44625e-05
5.44628e-05
5.44631e-05
5.44634e-05
5.44636e-05
5.44638e-05
5.4464e-05
5.44642e-05
5.44644e-05
5.44645e-05
5.44647e-05
5.44648e-05
5.44649e-05
5.44651e-05
5.44652e-05
5.44653e-05
5.44654e-05
5.44655e-05
5.44656e-05
5.44657e-05
5.44657e-05
5.44658e-05
5.44658e-05
5.44658e-05
5.44657e-05
5.44656e-05
5.44654e-05
5.44652e-05
5.4465e-05
5.44647e-05
5.44643e-05
5.4464e-05
5.44637e-05
5.44634e-05
5.44631e-05
5.44628e-05
5.44625e-05
5.44623e-05
5.44621e-05
5.44619e-05
5.44617e-05
5.44615e-05
5.44613e-05
5.44612e-05
5.4461e-05
5.44609e-05
5.44608e-05
5.44608e-05
5.44607e-05
5.44607e-05
5.44606e-05
5.44606e-05
5.44606e-05
5.44605e-05
5.44605e-05
5.44605e-05
5.44604e-05
5.44604e-05
5.44604e-05
5.44603e-05
5.44603e-05
5.44603e-05
5.44604e-05
5.44604e-05
5.44605e-05
5.44606e-05
5.44607e-05
5.44608e-05
5.4461e-05
5.44611e-05
5.44613e-05
5.44615e-05
5.44616e-05
5.44618e-05
5.4462e-05
5.44623e-05
5.44625e-05
5.44627e-05
5.44629e-05
5.4463e-05
5.44632e-05
5.44633e-05
5.44634e-05
5.44635e-05
5.44633e-05
5.44638e-05
7.57087e-05
7.57069e-05
7.5705e-05
7.57035e-05
7.57023e-05
7.57013e-05
7.57006e-05
7.57001e-05
7.56998e-05
7.56996e-05
7.56997e-05
7.56998e-05
7.57001e-05
7.57006e-05
7.57011e-05
7.57015e-05
7.5702e-05
7.57024e-05
7.57028e-05
7.57031e-05
7.57035e-05
7.57039e-05
7.57043e-05
7.57048e-05
7.57053e-05
7.57058e-05
7.57062e-05
7.57066e-05
7.5707e-05
7.57073e-05
7.57077e-05
7.5708e-05
7.57083e-05
7.57087e-05
7.57091e-05
7.57094e-05
7.57098e-05
7.57101e-05
7.57105e-05
7.57107e-05
7.5711e-05
7.57112e-05
7.57114e-05
7.57116e-05
7.57118e-05
7.57119e-05
7.57121e-05
7.57123e-05
7.57124e-05
7.57126e-05
7.57127e-05
7.57128e-05
7.57129e-05
7.5713e-05
7.57131e-05
7.57131e-05
7.57131e-05
7.57131e-05
7.5713e-05
7.57128e-05
7.57126e-05
7.57123e-05
7.5712e-05
7.57116e-05
7.57111e-05
7.57107e-05
7.57103e-05
7.57099e-05
7.57095e-05
7.57091e-05
7.57088e-05
7.57085e-05
7.57082e-05
7.5708e-05
7.57077e-05
7.57075e-05
7.57073e-05
7.57071e-05
7.5707e-05
7.57068e-05
7.57067e-05
7.57066e-05
7.57065e-05
7.57065e-05
7.57064e-05
7.57064e-05
7.57064e-05
7.57063e-05
7.57063e-05
7.57062e-05
7.57062e-05
7.57061e-05
7.57061e-05
7.57061e-05
7.57061e-05
7.57061e-05
7.57061e-05
7.57062e-05
7.57063e-05
7.57064e-05
7.57066e-05
7.57067e-05
7.5707e-05
7.57072e-05
7.57074e-05
7.57076e-05
7.57078e-05
7.57081e-05
7.57084e-05
7.57086e-05
7.57089e-05
7.57092e-05
7.57094e-05
7.57096e-05
7.57098e-05
7.571e-05
7.57101e-05
7.57102e-05
7.571e-05
7.57107e-05
9.50659e-05
9.50634e-05
9.50612e-05
9.50595e-05
9.50583e-05
9.50572e-05
9.50565e-05
9.50559e-05
9.50556e-05
9.50555e-05
9.50555e-05
9.50557e-05
9.50561e-05
9.50566e-05
9.50572e-05
9.50578e-05
9.50583e-05
9.50588e-05
9.50593e-05
9.50597e-05
9.50601e-05
9.50606e-05
9.50611e-05
9.50617e-05
9.50623e-05
9.50628e-05
9.50634e-05
9.50639e-05
9.50643e-05
9.50647e-05
9.50651e-05
9.50654e-05
9.50658e-05
9.50662e-05
9.50667e-05
9.50671e-05
9.50675e-05
9.50679e-05
9.50683e-05
9.50686e-05
9.50689e-05
9.50691e-05
9.50693e-05
9.50696e-05
9.50698e-05
9.507e-05
9.50702e-05
9.50704e-05
9.50706e-05
9.50707e-05
9.50709e-05
9.5071e-05
9.50711e-05
9.50712e-05
9.50713e-05
9.50713e-05
9.50713e-05
9.50712e-05
9.50711e-05
9.50709e-05
9.50706e-05
9.50702e-05
9.50698e-05
9.50693e-05
9.50688e-05
9.50683e-05
9.50678e-05
9.50673e-05
9.50669e-05
9.50664e-05
9.50661e-05
9.50657e-05
9.50654e-05
9.50651e-05
9.50648e-05
9.50646e-05
9.50643e-05
9.50641e-05
9.50639e-05
9.50638e-05
9.50636e-05
9.50635e-05
9.50634e-05
9.50634e-05
9.50633e-05
9.50633e-05
9.50632e-05
9.50632e-05
9.50632e-05
9.50631e-05
9.5063e-05
9.5063e-05
9.50629e-05
9.50629e-05
9.50629e-05
9.50629e-05
9.50629e-05
9.5063e-05
9.50632e-05
9.50633e-05
9.50635e-05
9.50638e-05
9.5064e-05
9.50643e-05
9.50646e-05
9.50648e-05
9.50651e-05
9.50654e-05
9.50658e-05
9.50661e-05
9.50664e-05
9.50667e-05
9.5067e-05
9.50672e-05
9.50674e-05
9.50676e-05
9.50677e-05
9.50679e-05
9.50676e-05
9.50685e-05
0.000111545
0.000111542
0.000111539
0.000111537
0.000111536
0.000111535
0.000111534
0.000111534
0.000111533
0.000111533
0.000111533
0.000111533
0.000111534
0.000111535
0.000111535
0.000111536
0.000111537
0.000111537
0.000111538
0.000111538
0.000111539
0.000111539
0.00011154
0.00011154
0.000111541
0.000111542
0.000111542
0.000111543
0.000111543
0.000111544
0.000111544
0.000111545
0.000111545
0.000111545
0.000111546
0.000111546
0.000111547
0.000111547
0.000111548
0.000111548
0.000111548
0.000111549
0.000111549
0.000111549
0.000111549
0.00011155
0.00011155
0.00011155
0.00011155
0.00011155
0.000111551
0.000111551
0.000111551
0.000111551
0.000111551
0.000111551
0.000111551
0.000111551
0.000111551
0.00011155
0.00011155
0.000111549
0.000111549
0.000111548
0.000111548
0.000111547
0.000111547
0.000111546
0.000111546
0.000111545
0.000111545
0.000111544
0.000111544
0.000111544
0.000111543
0.000111543
0.000111543
0.000111543
0.000111542
0.000111542
0.000111542
0.000111542
0.000111542
0.000111542
0.000111542
0.000111542
0.000111542
0.000111542
0.000111542
0.000111542
0.000111542
0.000111541
0.000111541
0.000111541
0.000111541
0.000111541
0.000111541
0.000111542
0.000111542
0.000111542
0.000111542
0.000111542
0.000111543
0.000111543
0.000111543
0.000111544
0.000111544
0.000111544
0.000111545
0.000111545
0.000111545
0.000111546
0.000111546
0.000111546
0.000111547
0.000111547
0.000111547
0.000111547
0.000111547
0.000111548
0.000125123
0.000125119
0.000125117
0.000125115
0.000125113
0.000125112
0.000125112
0.000125111
0.000125111
0.000125111
0.000125111
0.000125111
0.000125111
0.000125112
0.000125113
0.000125114
0.000125114
0.000125115
0.000125116
0.000125116
0.000125117
0.000125117
0.000125118
0.000125118
0.000125119
0.00012512
0.000125121
0.000125121
0.000125122
0.000125122
0.000125123
0.000125123
0.000125124
0.000125124
0.000125125
0.000125125
0.000125126
0.000125126
0.000125126
0.000125127
0.000125127
0.000125127
0.000125128
0.000125128
0.000125128
0.000125128
0.000125129
0.000125129
0.000125129
0.000125129
0.00012513
0.00012513
0.00012513
0.00012513
0.00012513
0.00012513
0.00012513
0.00012513
0.000125129
0.000125129
0.000125129
0.000125128
0.000125128
0.000125127
0.000125126
0.000125126
0.000125125
0.000125124
0.000125124
0.000125123
0.000125123
0.000125123
0.000125122
0.000125122
0.000125122
0.000125121
0.000125121
0.000125121
0.00012512
0.00012512
0.00012512
0.00012512
0.00012512
0.00012512
0.00012512
0.00012512
0.00012512
0.00012512
0.00012512
0.00012512
0.000125119
0.000125119
0.000125119
0.000125119
0.000125119
0.000125119
0.000125119
0.00012512
0.00012512
0.00012512
0.00012512
0.000125121
0.000125121
0.000125121
0.000125122
0.000125122
0.000125122
0.000125123
0.000125123
0.000125124
0.000125124
0.000125124
0.000125125
0.000125125
0.000125125
0.000125125
0.000125125
0.000125126
0.000125125
0.000125127
0.000136166
0.000136163
0.00013616
0.000136158
0.000136156
0.000136155
0.000136154
0.000136154
0.000136154
0.000136154
0.000136154
0.000136154
0.000136154
0.000136155
0.000136156
0.000136157
0.000136157
0.000136158
0.000136159
0.000136159
0.00013616
0.000136161
0.000136161
0.000136162
0.000136163
0.000136164
0.000136164
0.000136165
0.000136166
0.000136166
0.000136167
0.000136167
0.000136167
0.000136168
0.000136169
0.000136169
0.00013617
0.00013617
0.000136171
0.000136171
0.000136171
0.000136172
0.000136172
0.000136172
0.000136172
0.000136173
0.000136173
0.000136173
0.000136173
0.000136174
0.000136174
0.000136174
0.000136174
0.000136174
0.000136174
0.000136174
0.000136174
0.000136174
0.000136173
0.000136173
0.000136172
0.000136172
0.000136171
0.000136171
0.00013617
0.000136169
0.000136169
0.000136168
0.000136167
0.000136167
0.000136166
0.000136166
0.000136166
0.000136165
0.000136165
0.000136165
0.000136164
0.000136164
0.000136164
0.000136164
0.000136163
0.000136163
0.000136163
0.000136163
0.000136163
0.000136163
0.000136163
0.000136163
0.000136163
0.000136163
0.000136163
0.000136163
0.000136163
0.000136163
0.000136163
0.000136163
0.000136163
0.000136163
0.000136163
0.000136163
0.000136164
0.000136164
0.000136165
0.000136165
0.000136165
0.000136166
0.000136166
0.000136167
0.000136167
0.000136167
0.000136168
0.000136168
0.000136168
0.000136169
0.000136169
0.000136169
0.000136169
0.000136169
0.000136169
0.000136171
0.000145121
0.000145117
0.000145114
0.000145112
0.000145111
0.00014511
0.000145109
0.000145108
0.000145108
0.000145108
0.000145108
0.000145108
0.000145109
0.000145109
0.00014511
0.000145111
0.000145112
0.000145113
0.000145113
0.000145114
0.000145115
0.000145115
0.000145116
0.000145117
0.000145118
0.000145118
0.000145119
0.00014512
0.000145121
0.000145121
0.000145122
0.000145122
0.000145123
0.000145123
0.000145124
0.000145124
0.000145125
0.000145125
0.000145126
0.000145126
0.000145127
0.000145127
0.000145127
0.000145128
0.000145128
0.000145128
0.000145128
0.000145129
0.000145129
0.000145129
0.000145129
0.000145129
0.000145129
0.000145129
0.000145129
0.000145129
0.000145129
0.000145129
0.000145128
0.000145128
0.000145127
0.000145127
0.000145126
0.000145125
0.000145125
0.000145124
0.000145123
0.000145123
0.000145122
0.000145122
0.000145121
0.000145121
0.00014512
0.00014512
0.000145119
0.000145119
0.000145119
0.000145119
0.000145118
0.000145118
0.000145118
0.000145118
0.000145118
0.000145118
0.000145118
0.000145118
0.000145118
0.000145117
0.000145117
0.000145117
0.000145117
0.000145117
0.000145117
0.000145117
0.000145117
0.000145117
0.000145117
0.000145117
0.000145118
0.000145118
0.000145118
0.000145119
0.000145119
0.00014512
0.00014512
0.000145121
0.000145121
0.000145122
0.000145122
0.000145122
0.000145123
0.000145123
0.000145123
0.000145124
0.000145124
0.000145124
0.000145124
0.000145124
0.000145124
0.000145126
0.000152394
0.00015239
0.000152386
0.000152384
0.000152383
0.000152382
0.000152381
0.00015238
0.00015238
0.00015238
0.00015238
0.00015238
0.000152381
0.000152381
0.000152382
0.000152383
0.000152384
0.000152385
0.000152386
0.000152386
0.000152387
0.000152388
0.000152388
0.000152389
0.00015239
0.000152391
0.000152392
0.000152392
0.000152393
0.000152394
0.000152394
0.000152395
0.000152395
0.000152396
0.000152397
0.000152397
0.000152398
0.000152398
0.000152399
0.000152399
0.0001524
0.0001524
0.0001524
0.0001524
0.000152401
0.000152401
0.000152401
0.000152402
0.000152402
0.000152402
0.000152402
0.000152402
0.000152402
0.000152402
0.000152402
0.000152402
0.000152402
0.000152402
0.000152401
0.000152401
0.0001524
0.000152399
0.000152399
0.000152398
0.000152397
0.000152396
0.000152396
0.000152395
0.000152394
0.000152394
0.000152393
0.000152393
0.000152392
0.000152392
0.000152392
0.000152391
0.000152391
0.000152391
0.000152391
0.00015239
0.00015239
0.00015239
0.00015239
0.00015239
0.00015239
0.00015239
0.00015239
0.00015239
0.000152389
0.000152389
0.000152389
0.000152389
0.000152389
0.000152389
0.000152389
0.000152389
0.000152389
0.00015239
0.00015239
0.00015239
0.000152391
0.000152391
0.000152392
0.000152392
0.000152393
0.000152393
0.000152394
0.000152394
0.000152394
0.000152395
0.000152395
0.000152396
0.000152396
0.000152396
0.000152396
0.000152397
0.000152397
0.000152397
0.000152397
0.000152398
0.000158319
0.000158315
0.000158311
0.000158309
0.000158308
0.000158307
0.000158306
0.000158305
0.000158305
0.000158304
0.000158305
0.000158305
0.000158305
0.000158306
0.000158307
0.000158308
0.000158309
0.00015831
0.00015831
0.000158311
0.000158312
0.000158313
0.000158313
0.000158314
0.000158315
0.000158316
0.000158317
0.000158318
0.000158318
0.000158319
0.00015832
0.00015832
0.000158321
0.000158321
0.000158322
0.000158323
0.000158323
0.000158324
0.000158324
0.000158325
0.000158325
0.000158325
0.000158326
0.000158326
0.000158326
0.000158327
0.000158327
0.000158327
0.000158328
0.000158328
0.000158328
0.000158328
0.000158328
0.000158328
0.000158328
0.000158328
0.000158327
0.000158327
0.000158326
0.000158326
0.000158325
0.000158324
0.000158324
0.000158323
0.000158322
0.000158321
0.000158321
0.00015832
0.000158319
0.000158319
0.000158318
0.000158318
0.000158317
0.000158317
0.000158317
0.000158316
0.000158316
0.000158316
0.000158315
0.000158315
0.000158315
0.000158315
0.000158315
0.000158315
0.000158315
0.000158314
0.000158314
0.000158314
0.000158314
0.000158314
0.000158314
0.000158314
0.000158314
0.000158314
0.000158314
0.000158314
0.000158314
0.000158315
0.000158315
0.000158315
0.000158316
0.000158316
0.000158317
0.000158317
0.000158318
0.000158318
0.000158319
0.000158319
0.00015832
0.00015832
0.00015832
0.000158321
0.000158321
0.000158321
0.000158322
0.000158322
0.000158322
0.000158322
0.000158322
0.000158324
0.000163162
0.000163158
0.000163154
0.000163152
0.000163151
0.000163149
0.000163149
0.000163148
0.000163148
0.000163147
0.000163147
0.000163148
0.000163148
0.000163149
0.00016315
0.000163151
0.000163152
0.000163152
0.000163153
0.000163154
0.000163155
0.000163156
0.000163156
0.000163157
0.000163158
0.000163159
0.00016316
0.000163161
0.000163162
0.000163162
0.000163163
0.000163164
0.000163164
0.000163165
0.000163165
0.000163166
0.000163167
0.000163167
0.000163168
0.000163168
0.000163169
0.000163169
0.000163169
0.00016317
0.00016317
0.00016317
0.000163171
0.000163171
0.000163171
0.000163171
0.000163172
0.000163172
0.000163172
0.000163172
0.000163171
0.000163171
0.000163171
0.00016317
0.000163169
0.000163169
0.000163168
0.000163167
0.000163167
0.000163166
0.000163165
0.000163164
0.000163163
0.000163163
0.000163162
0.000163162
0.000163161
0.000163161
0.00016316
0.00016316
0.000163159
0.000163159
0.000163159
0.000163158
0.000163158
0.000163158
0.000163158
0.000163158
0.000163158
0.000163157
0.000163157
0.000163157
0.000163157
0.000163157
0.000163157
0.000163157
0.000163157
0.000163157
0.000163157
0.000163157
0.000163157
0.000163157
0.000163157
0.000163158
0.000163158
0.000163158
0.000163159
0.00016316
0.00016316
0.000163161
0.000163161
0.000163162
0.000163162
0.000163163
0.000163163
0.000163163
0.000163164
0.000163164
0.000163164
0.000163165
0.000163165
0.000163165
0.000163165
0.000163165
0.000163165
0.000163167
0.00016713
0.000167126
0.000167122
0.00016712
0.000167118
0.000167117
0.000167116
0.000167116
0.000167115
0.000167115
0.000167115
0.000167115
0.000167116
0.000167116
0.000167117
0.000167118
0.000167119
0.00016712
0.000167121
0.000167122
0.000167122
0.000167123
0.000167124
0.000167125
0.000167126
0.000167127
0.000167128
0.000167129
0.00016713
0.00016713
0.000167131
0.000167132
0.000167132
0.000167133
0.000167134
0.000167134
0.000167135
0.000167135
0.000167136
0.000167137
0.000167137
0.000167137
0.000167138
0.000167138
0.000167138
0.000167139
0.000167139
0.000167139
0.00016714
0.00016714
0.00016714
0.00016714
0.00016714
0.00016714
0.000167139
0.000167139
0.000167139
0.000167138
0.000167137
0.000167137
0.000167136
0.000167135
0.000167134
0.000167133
0.000167133
0.000167132
0.000167131
0.00016713
0.00016713
0.000167129
0.000167129
0.000167128
0.000167128
0.000167127
0.000167127
0.000167127
0.000167126
0.000167126
0.000167126
0.000167126
0.000167125
0.000167125
0.000167125
0.000167125
0.000167125
0.000167125
0.000167125
0.000167125
0.000167125
0.000167124
0.000167124
0.000167124
0.000167124
0.000167124
0.000167124
0.000167125
0.000167125
0.000167125
0.000167126
0.000167126
0.000167127
0.000167127
0.000167128
0.000167129
0.000167129
0.00016713
0.00016713
0.000167131
0.000167131
0.000167131
0.000167132
0.000167132
0.000167132
0.000167132
0.000167133
0.000167133
0.000167133
0.000167133
0.000167133
0.000167135
0.000170383
0.000170379
0.000170376
0.000170373
0.000170372
0.00017037
0.00017037
0.000170369
0.000170368
0.000170368
0.000170368
0.000170368
0.000170369
0.000170369
0.00017037
0.000170371
0.000170372
0.000170373
0.000170374
0.000170375
0.000170375
0.000170376
0.000170377
0.000170378
0.000170379
0.00017038
0.000170381
0.000170382
0.000170383
0.000170384
0.000170384
0.000170385
0.000170386
0.000170386
0.000170387
0.000170388
0.000170388
0.000170389
0.00017039
0.00017039
0.00017039
0.000170391
0.000170391
0.000170392
0.000170392
0.000170392
0.000170393
0.000170393
0.000170393
0.000170393
0.000170394
0.000170394
0.000170393
0.000170393
0.000170393
0.000170392
0.000170392
0.000170391
0.00017039
0.000170389
0.000170389
0.000170388
0.000170387
0.000170386
0.000170385
0.000170385
0.000170384
0.000170383
0.000170383
0.000170382
0.000170382
0.000170381
0.000170381
0.00017038
0.00017038
0.00017038
0.000170379
0.000170379
0.000170379
0.000170379
0.000170378
0.000170378
0.000170378
0.000170378
0.000170378
0.000170378
0.000170378
0.000170378
0.000170377
0.000170377
0.000170377
0.000170377
0.000170377
0.000170377
0.000170377
0.000170378
0.000170378
0.000170378
0.000170379
0.000170379
0.00017038
0.000170381
0.000170381
0.000170382
0.000170382
0.000170383
0.000170383
0.000170384
0.000170384
0.000170385
0.000170385
0.000170385
0.000170385
0.000170386
0.000170386
0.000170386
0.000170386
0.000170386
0.000170386
0.000170388
0.000173046
0.000173042
0.000173039
0.000173037
0.000173035
0.000173034
0.000173033
0.000173032
0.000173032
0.000173031
0.000173031
0.000173032
0.000173032
0.000173033
0.000173034
0.000173034
0.000173035
0.000173036
0.000173037
0.000173038
0.000173039
0.00017304
0.00017304
0.000173041
0.000173042
0.000173043
0.000173044
0.000173045
0.000173046
0.000173047
0.000173048
0.000173048
0.000173049
0.00017305
0.00017305
0.000173051
0.000173052
0.000173053
0.000173053
0.000173054
0.000173054
0.000173055
0.000173055
0.000173055
0.000173056
0.000173056
0.000173056
0.000173057
0.000173057
0.000173057
0.000173057
0.000173057
0.000173057
0.000173057
0.000173056
0.000173056
0.000173055
0.000173054
0.000173053
0.000173053
0.000173052
0.000173051
0.00017305
0.000173049
0.000173049
0.000173048
0.000173047
0.000173046
0.000173046
0.000173045
0.000173045
0.000173044
0.000173044
0.000173044
0.000173043
0.000173043
0.000173042
0.000173042
0.000173042
0.000173042
0.000173041
0.000173041
0.000173041
0.000173041
0.000173041
0.000173041
0.000173041
0.000173041
0.00017304
0.00017304
0.00017304
0.00017304
0.00017304
0.00017304
0.000173041
0.000173041
0.000173041
0.000173042
0.000173042
0.000173043
0.000173044
0.000173044
0.000173045
0.000173045
0.000173046
0.000173046
0.000173047
0.000173047
0.000173048
0.000173048
0.000173048
0.000173049
0.000173049
0.000173049
0.000173049
0.000173049
0.000173049
0.00017305
0.000173049
0.000173051
0.000175217
0.000175213
0.00017521
0.000175208
0.000175207
0.000175205
0.000175204
0.000175204
0.000175203
0.000175203
0.000175203
0.000175203
0.000175203
0.000175204
0.000175205
0.000175206
0.000175207
0.000175208
0.000175208
0.000175209
0.00017521
0.000175211
0.000175212
0.000175213
0.000175214
0.000175215
0.000175216
0.000175217
0.000175218
0.000175218
0.000175219
0.00017522
0.000175221
0.000175221
0.000175222
0.000175223
0.000175223
0.000175224
0.000175225
0.000175225
0.000175226
0.000175226
0.000175227
0.000175227
0.000175227
0.000175228
0.000175228
0.000175228
0.000175229
0.000175229
0.000175229
0.000175229
0.000175229
0.000175228
0.000175228
0.000175227
0.000175226
0.000175225
0.000175224
0.000175224
0.000175223
0.000175222
0.000175221
0.00017522
0.000175219
0.000175219
0.000175218
0.000175217
0.000175217
0.000175216
0.000175216
0.000175215
0.000175215
0.000175215
0.000175214
0.000175214
0.000175214
0.000175213
0.000175213
0.000175213
0.000175213
0.000175212
0.000175212
0.000175212
0.000175212
0.000175212
0.000175212
0.000175212
0.000175211
0.000175211
0.000175211
0.000175211
0.000175211
0.000175211
0.000175212
0.000175212
0.000175213
0.000175213
0.000175214
0.000175214
0.000175215
0.000175216
0.000175216
0.000175217
0.000175217
0.000175218
0.000175218
0.000175219
0.000175219
0.000175219
0.00017522
0.00017522
0.00017522
0.00017522
0.00017522
0.000175221
0.000175221
0.000175221
0.000175221
0.000175222
0.000176973
0.00017697
0.000176967
0.000176965
0.000176963
0.000176962
0.000176961
0.00017696
0.00017696
0.000176959
0.000176959
0.000176959
0.00017696
0.00017696
0.000176961
0.000176962
0.000176963
0.000176964
0.000176965
0.000176965
0.000176966
0.000176967
0.000176968
0.000176969
0.00017697
0.000176971
0.000176972
0.000176973
0.000176974
0.000176975
0.000176976
0.000176976
0.000176977
0.000176978
0.000176978
0.000176979
0.00017698
0.000176981
0.000176981
0.000176982
0.000176982
0.000176983
0.000176983
0.000176984
0.000176984
0.000176984
0.000176985
0.000176985
0.000176985
0.000176986
0.000176986
0.000176986
0.000176985
0.000176984
0.000176984
0.000176983
0.000176982
0.000176981
0.00017698
0.000176979
0.000176979
0.000176978
0.000176977
0.000176976