/*--------------------------------*- C++ -*----------------------------------*\
  =========                 |
  \\      /  F ield         | OpenFOAM: The Open Source CFD Toolbox
   \\    /   O peration     | Website:  https://openfoam.org
    \\  /    A nd           | Version:  7
     \\/     M anipulation  |
\*---------------------------------------------------------------------------*/
FoamFile
{
    version     2.0;
    format      ascii;
    class       volScalarField;
    location    "3000";
    object      nut;
}
// * * * * * * * * * * * * * * * * * * * * * * * * * * * * * * * * * * * * * //

dimensions      [0 2 -1 0 0 0 0];

internalField   nonuniform List<scalar> 
24000
(
7.89688e-12
7.89671e-12
7.89648e-12
7.89624e-12
7.89604e-12
7.89586e-12
7.89573e-12
7.89564e-12
7.89558e-12
7.89555e-12
7.89555e-12
7.89557e-12
7.89561e-12
7.89566e-12
7.89572e-12
7.89577e-12
7.89582e-12
7.89586e-12
7.89591e-12
7.89595e-12
7.89601e-12
7.89606e-12
7.89613e-12
7.89619e-12
7.89626e-12
7.89632e-12
7.89637e-12
7.89642e-12
7.89647e-12
7.89652e-12
7.89657e-12
7.89662e-12
7.89667e-12
7.89672e-12
7.89678e-12
7.89683e-12
7.89688e-12
7.89692e-12
7.89696e-12
7.897e-12
7.89703e-12
7.89707e-12
7.8971e-12
7.89713e-12
7.89715e-12
7.89717e-12
7.89719e-12
7.89721e-12
7.89723e-12
7.89725e-12
7.89727e-12
7.89729e-12
7.8973e-12
7.89732e-12
7.89733e-12
7.89735e-12
7.89736e-12
7.89736e-12
7.89735e-12
7.89734e-12
7.89731e-12
7.89728e-12
7.89724e-12
7.89719e-12
7.89714e-12
7.89708e-12
7.89703e-12
7.89698e-12
7.89693e-12
7.89688e-12
7.89683e-12
7.89679e-12
7.89675e-12
7.89671e-12
7.89668e-12
7.89664e-12
7.89662e-12
7.89659e-12
7.89657e-12
7.89655e-12
7.89653e-12
7.89652e-12
7.89651e-12
7.8965e-12
7.89649e-12
7.89649e-12
7.89648e-12
7.89647e-12
7.89647e-12
7.89646e-12
7.89646e-12
7.89645e-12
7.89645e-12
7.89644e-12
7.89644e-12
7.89644e-12
7.89645e-12
7.89645e-12
7.89646e-12
7.89648e-12
7.8965e-12
7.89652e-12
7.89654e-12
7.89656e-12
7.89658e-12
7.8966e-12
7.89663e-12
7.89667e-12
7.8967e-12
7.89674e-12
7.89678e-12
7.89681e-12
7.89685e-12
7.89688e-12
7.89691e-12
7.89693e-12
7.89694e-12
7.89696e-12
7.89693e-12
7.89698e-12
1.4653e-09
1.46527e-09
1.46522e-09
1.46518e-09
1.46514e-09
1.46511e-09
1.46509e-09
1.46507e-09
1.46506e-09
1.46505e-09
1.46505e-09
1.46506e-09
1.46506e-09
1.46507e-09
1.46508e-09
1.46509e-09
1.4651e-09
1.46511e-09
1.46512e-09
1.46513e-09
1.46514e-09
1.46515e-09
1.46516e-09
1.46517e-09
1.46518e-09
1.4652e-09
1.46521e-09
1.46522e-09
1.46522e-09
1.46523e-09
1.46524e-09
1.46525e-09
1.46526e-09
1.46527e-09
1.46528e-09
1.46529e-09
1.4653e-09
1.46531e-09
1.46532e-09
1.46532e-09
1.46533e-09
1.46533e-09
1.46534e-09
1.46535e-09
1.46535e-09
1.46535e-09
1.46536e-09
1.46536e-09
1.46537e-09
1.46537e-09
1.46537e-09
1.46538e-09
1.46538e-09
1.46538e-09
1.46538e-09
1.46539e-09
1.46539e-09
1.46539e-09
1.46539e-09
1.46539e-09
1.46538e-09
1.46537e-09
1.46537e-09
1.46536e-09
1.46535e-09
1.46534e-09
1.46533e-09
1.46532e-09
1.46531e-09
1.4653e-09
1.46529e-09
1.46528e-09
1.46528e-09
1.46527e-09
1.46526e-09
1.46526e-09
1.46525e-09
1.46525e-09
1.46524e-09
1.46524e-09
1.46524e-09
1.46523e-09
1.46523e-09
1.46523e-09
1.46523e-09
1.46523e-09
1.46523e-09
1.46522e-09
1.46522e-09
1.46522e-09
1.46522e-09
1.46522e-09
1.46522e-09
1.46522e-09
1.46522e-09
1.46522e-09
1.46522e-09
1.46522e-09
1.46522e-09
1.46523e-09
1.46523e-09
1.46523e-09
1.46524e-09
1.46524e-09
1.46524e-09
1.46525e-09
1.46525e-09
1.46526e-09
1.46527e-09
1.46527e-09
1.46528e-09
1.46529e-09
1.46529e-09
1.4653e-09
1.46531e-09
1.46531e-09
1.46531e-09
1.46531e-09
1.46531e-09
1.46532e-09
3.13016e-08
3.13009e-08
3.13e-08
3.12991e-08
3.12983e-08
3.12976e-08
3.12971e-08
3.12967e-08
3.12965e-08
3.12964e-08
3.12963e-08
3.12964e-08
3.12966e-08
3.12968e-08
3.1297e-08
3.12972e-08
3.12974e-08
3.12976e-08
3.12978e-08
3.1298e-08
3.12982e-08
3.12984e-08
3.12986e-08
3.12989e-08
3.12991e-08
3.12994e-08
3.12996e-08
3.12998e-08
3.13e-08
3.13002e-08
3.13004e-08
3.13006e-08
3.13008e-08
3.1301e-08
3.13012e-08
3.13014e-08
3.13016e-08
3.13018e-08
3.13019e-08
3.13021e-08
3.13022e-08
3.13023e-08
3.13025e-08
3.13026e-08
3.13027e-08
3.13027e-08
3.13028e-08
3.13029e-08
3.1303e-08
3.13031e-08
3.13031e-08
3.13032e-08
3.13033e-08
3.13033e-08
3.13034e-08
3.13034e-08
3.13035e-08
3.13035e-08
3.13035e-08
3.13034e-08
3.13033e-08
3.13032e-08
3.1303e-08
3.13028e-08
3.13026e-08
3.13024e-08
3.13022e-08
3.1302e-08
3.13018e-08
3.13016e-08
3.13014e-08
3.13012e-08
3.13011e-08
3.13009e-08
3.13008e-08
3.13007e-08
3.13005e-08
3.13004e-08
3.13004e-08
3.13003e-08
3.13002e-08
3.13002e-08
3.13001e-08
3.13001e-08
3.13001e-08
3.13e-08
3.13e-08
3.13e-08
3.13e-08
3.12999e-08
3.12999e-08
3.12999e-08
3.12999e-08
3.12999e-08
3.12999e-08
3.12999e-08
3.12999e-08
3.12999e-08
3.12999e-08
3.13e-08
3.13001e-08
3.13001e-08
3.13002e-08
3.13003e-08
3.13004e-08
3.13005e-08
3.13006e-08
3.13008e-08
3.13009e-08
3.1301e-08
3.13012e-08
3.13013e-08
3.13015e-08
3.13016e-08
3.13017e-08
3.13018e-08
3.13018e-08
3.13019e-08
3.13018e-08
3.1302e-08
2.38542e-07
2.38537e-07
2.3853e-07
2.38523e-07
2.38517e-07
2.38512e-07
2.38508e-07
2.38506e-07
2.38504e-07
2.38503e-07
2.38503e-07
2.38504e-07
2.38505e-07
2.38507e-07
2.38508e-07
2.3851e-07
2.38511e-07
2.38513e-07
2.38514e-07
2.38516e-07
2.38517e-07
2.38519e-07
2.3852e-07
2.38522e-07
2.38524e-07
2.38526e-07
2.38528e-07
2.38529e-07
2.38531e-07
2.38532e-07
2.38534e-07
2.38535e-07
2.38536e-07
2.38538e-07
2.3854e-07
2.38541e-07
2.38543e-07
2.38544e-07
2.38545e-07
2.38546e-07
2.38547e-07
2.38548e-07
2.38549e-07
2.3855e-07
2.3855e-07
2.38551e-07
2.38552e-07
2.38552e-07
2.38553e-07
2.38553e-07
2.38554e-07
2.38555e-07
2.38555e-07
2.38555e-07
2.38556e-07
2.38556e-07
2.38556e-07
2.38557e-07
2.38556e-07
2.38556e-07
2.38555e-07
2.38554e-07
2.38553e-07
2.38551e-07
2.3855e-07
2.38548e-07
2.38547e-07
2.38545e-07
2.38544e-07
2.38542e-07
2.38541e-07
2.3854e-07
2.38538e-07
2.38537e-07
2.38536e-07
2.38535e-07
2.38534e-07
2.38534e-07
2.38533e-07
2.38532e-07
2.38532e-07
2.38532e-07
2.38531e-07
2.38531e-07
2.38531e-07
2.38531e-07
2.38531e-07
2.3853e-07
2.3853e-07
2.3853e-07
2.3853e-07
2.3853e-07
2.3853e-07
2.38529e-07
2.38529e-07
2.38529e-07
2.3853e-07
2.3853e-07
2.3853e-07
2.3853e-07
2.38531e-07
2.38532e-07
2.38532e-07
2.38533e-07
2.38533e-07
2.38534e-07
2.38535e-07
2.38536e-07
2.38537e-07
2.38538e-07
2.38539e-07
2.38541e-07
2.38542e-07
2.38542e-07
2.38543e-07
2.38544e-07
2.38544e-07
2.38545e-07
2.38544e-07
2.38546e-07
1.00456e-06
1.00454e-06
1.00451e-06
1.00448e-06
1.00446e-06
1.00444e-06
1.00442e-06
1.00441e-06
1.00441e-06
1.0044e-06
1.0044e-06
1.00441e-06
1.00441e-06
1.00442e-06
1.00442e-06
1.00443e-06
1.00444e-06
1.00444e-06
1.00445e-06
1.00445e-06
1.00446e-06
1.00447e-06
1.00447e-06
1.00448e-06
1.00449e-06
1.0045e-06
1.0045e-06
1.00451e-06
1.00452e-06
1.00452e-06
1.00453e-06
1.00453e-06
1.00454e-06
1.00455e-06
1.00455e-06
1.00456e-06
1.00456e-06
1.00457e-06
1.00457e-06
1.00458e-06
1.00458e-06
1.00459e-06
1.00459e-06
1.00459e-06
1.00459e-06
1.0046e-06
1.0046e-06
1.0046e-06
1.0046e-06
1.00461e-06
1.00461e-06
1.00461e-06
1.00461e-06
1.00461e-06
1.00462e-06
1.00462e-06
1.00462e-06
1.00462e-06
1.00462e-06
1.00462e-06
1.00461e-06
1.00461e-06
1.0046e-06
1.0046e-06
1.00459e-06
1.00458e-06
1.00458e-06
1.00457e-06
1.00456e-06
1.00456e-06
1.00455e-06
1.00455e-06
1.00454e-06
1.00454e-06
1.00454e-06
1.00453e-06
1.00453e-06
1.00453e-06
1.00452e-06
1.00452e-06
1.00452e-06
1.00452e-06
1.00452e-06
1.00451e-06
1.00451e-06
1.00451e-06
1.00451e-06
1.00451e-06
1.00451e-06
1.00451e-06
1.00451e-06
1.00451e-06
1.00451e-06
1.00451e-06
1.00451e-06
1.00451e-06
1.00451e-06
1.00451e-06
1.00451e-06
1.00451e-06
1.00451e-06
1.00452e-06
1.00452e-06
1.00452e-06
1.00452e-06
1.00453e-06
1.00453e-06
1.00454e-06
1.00454e-06
1.00454e-06
1.00455e-06
1.00455e-06
1.00456e-06
1.00456e-06
1.00456e-06
1.00457e-06
1.00457e-06
1.00457e-06
1.00457e-06
1.00457e-06
2.83599e-06
2.83591e-06
2.83583e-06
2.83576e-06
2.8357e-06
2.83566e-06
2.83562e-06
2.83559e-06
2.83558e-06
2.83557e-06
2.83557e-06
2.83558e-06
2.83559e-06
2.83561e-06
2.83563e-06
2.83565e-06
2.83567e-06
2.83569e-06
2.8357e-06
2.83572e-06
2.83573e-06
2.83575e-06
2.83577e-06
2.83579e-06
2.83581e-06
2.83583e-06
2.83585e-06
2.83587e-06
2.83588e-06
2.8359e-06
2.83591e-06
2.83593e-06
2.83594e-06
2.83596e-06
2.83597e-06
2.83599e-06
2.83601e-06
2.83602e-06
2.83603e-06
2.83604e-06
2.83605e-06
2.83606e-06
2.83607e-06
2.83608e-06
2.83608e-06
2.83609e-06
2.8361e-06
2.8361e-06
2.83611e-06
2.83612e-06
2.83612e-06
2.83613e-06
2.83613e-06
2.83614e-06
2.83614e-06
2.83614e-06
2.83615e-06
2.83615e-06
2.83614e-06
2.83614e-06
2.83613e-06
2.83612e-06
2.8361e-06
2.83609e-06
2.83607e-06
2.83605e-06
2.83603e-06
2.83602e-06
2.836e-06
2.83598e-06
2.83597e-06
2.83596e-06
2.83595e-06
2.83593e-06
2.83592e-06
2.83591e-06
2.8359e-06
2.8359e-06
2.83589e-06
2.83588e-06
2.83588e-06
2.83587e-06
2.83587e-06
2.83587e-06
2.83587e-06
2.83587e-06
2.83586e-06
2.83586e-06
2.83586e-06
2.83586e-06
2.83586e-06
2.83586e-06
2.83585e-06
2.83585e-06
2.83585e-06
2.83585e-06
2.83585e-06
2.83586e-06
2.83586e-06
2.83586e-06
2.83587e-06
2.83588e-06
2.83588e-06
2.83589e-06
2.8359e-06
2.83591e-06
2.83592e-06
2.83593e-06
2.83594e-06
2.83595e-06
2.83596e-06
2.83598e-06
2.83599e-06
2.836e-06
2.83601e-06
2.83601e-06
2.83602e-06
2.83602e-06
2.83601e-06
2.83603e-06
6.03023e-06
6.03006e-06
6.0299e-06
6.02976e-06
6.02966e-06
6.02957e-06
6.0295e-06
6.02946e-06
6.02943e-06
6.02942e-06
6.02942e-06
6.02944e-06
6.02947e-06
6.02951e-06
6.02955e-06
6.02959e-06
6.02963e-06
6.02966e-06
6.0297e-06
6.02973e-06
6.02976e-06
6.0298e-06
6.02983e-06
6.02988e-06
6.02992e-06
6.02996e-06
6.03e-06
6.03003e-06
6.03006e-06
6.03009e-06
6.03012e-06
6.03015e-06
6.03018e-06
6.03021e-06
6.03024e-06
6.03027e-06
6.0303e-06
6.03033e-06
6.03035e-06
6.03038e-06
6.03039e-06
6.03041e-06
6.03043e-06
6.03044e-06
6.03045e-06
6.03046e-06
6.03047e-06
6.03048e-06
6.0305e-06
6.03051e-06
6.03052e-06
6.03053e-06
6.03054e-06
6.03055e-06
6.03056e-06
6.03056e-06
6.03057e-06
6.03057e-06
6.03056e-06
6.03055e-06
6.03053e-06
6.0305e-06
6.03048e-06
6.03044e-06
6.03041e-06
6.03037e-06
6.03034e-06
6.0303e-06
6.03027e-06
6.03024e-06
6.03021e-06
6.03018e-06
6.03016e-06
6.03014e-06
6.03012e-06
6.0301e-06
6.03008e-06
6.03006e-06
6.03005e-06
6.03004e-06
6.03003e-06
6.03002e-06
6.03002e-06
6.03001e-06
6.03001e-06
6.03001e-06
6.03e-06
6.03e-06
6.03e-06
6.02999e-06
6.02999e-06
6.02999e-06
6.02998e-06
6.02998e-06
6.02998e-06
6.02998e-06
6.02998e-06
6.02999e-06
6.03e-06
6.03001e-06
6.03002e-06
6.03003e-06
6.03005e-06
6.03006e-06
6.03007e-06
6.03009e-06
6.03011e-06
6.03013e-06
6.03015e-06
6.03018e-06
6.0302e-06
6.03023e-06
6.03025e-06
6.03027e-06
6.03029e-06
6.0303e-06
6.03031e-06
6.03032e-06
6.0303e-06
6.03035e-06
1.05345e-05
1.05342e-05
1.0534e-05
1.05338e-05
1.05336e-05
1.05335e-05
1.05334e-05
1.05334e-05
1.05333e-05
1.05333e-05
1.05333e-05
1.05333e-05
1.05334e-05
1.05335e-05
1.05335e-05
1.05336e-05
1.05337e-05
1.05337e-05
1.05338e-05
1.05338e-05
1.05339e-05
1.0534e-05
1.0534e-05
1.05341e-05
1.05342e-05
1.05342e-05
1.05343e-05
1.05344e-05
1.05344e-05
1.05345e-05
1.05345e-05
1.05345e-05
1.05346e-05
1.05346e-05
1.05347e-05
1.05347e-05
1.05348e-05
1.05348e-05
1.05349e-05
1.05349e-05
1.0535e-05
1.0535e-05
1.0535e-05
1.0535e-05
1.0535e-05
1.05351e-05
1.05351e-05
1.05351e-05
1.05351e-05
1.05351e-05
1.05351e-05
1.05352e-05
1.05352e-05
1.05352e-05
1.05352e-05
1.05352e-05
1.05352e-05
1.05352e-05
1.05352e-05
1.05352e-05
1.05351e-05
1.05351e-05
1.05351e-05
1.0535e-05
1.05349e-05
1.05349e-05
1.05348e-05
1.05348e-05
1.05347e-05
1.05347e-05
1.05346e-05
1.05346e-05
1.05345e-05
1.05345e-05
1.05345e-05
1.05344e-05
1.05344e-05
1.05344e-05
1.05344e-05
1.05343e-05
1.05343e-05
1.05343e-05
1.05343e-05
1.05343e-05
1.05343e-05
1.05343e-05
1.05343e-05
1.05343e-05
1.05343e-05
1.05343e-05
1.05343e-05
1.05343e-05
1.05343e-05
1.05342e-05
1.05342e-05
1.05342e-05
1.05343e-05
1.05343e-05
1.05343e-05
1.05343e-05
1.05343e-05
1.05343e-05
1.05344e-05
1.05344e-05
1.05344e-05
1.05344e-05
1.05345e-05
1.05345e-05
1.05345e-05
1.05346e-05
1.05346e-05
1.05347e-05
1.05347e-05
1.05347e-05
1.05348e-05
1.05348e-05
1.05348e-05
1.05348e-05
1.05348e-05
1.05349e-05
1.61161e-05
1.61156e-05
1.61153e-05
1.61151e-05
1.61149e-05
1.61147e-05
1.61146e-05
1.61145e-05
1.61145e-05
1.61145e-05
1.61145e-05
1.61145e-05
1.61146e-05
1.61147e-05
1.61148e-05
1.61149e-05
1.6115e-05
1.61151e-05
1.61152e-05
1.61153e-05
1.61154e-05
1.61155e-05
1.61156e-05
1.61157e-05
1.61158e-05
1.61159e-05
1.6116e-05
1.61161e-05
1.61161e-05
1.61162e-05
1.61163e-05
1.61163e-05
1.61164e-05
1.61165e-05
1.61166e-05
1.61166e-05
1.61167e-05
1.61168e-05
1.61168e-05
1.61169e-05
1.61169e-05
1.6117e-05
1.6117e-05
1.6117e-05
1.61171e-05
1.61171e-05
1.61171e-05
1.61171e-05
1.61172e-05
1.61172e-05
1.61172e-05
1.61172e-05
1.61173e-05
1.61173e-05
1.61173e-05
1.61173e-05
1.61173e-05
1.61173e-05
1.61173e-05
1.61172e-05
1.61172e-05
1.61171e-05
1.61171e-05
1.6117e-05
1.61169e-05
1.61168e-05
1.61167e-05
1.61166e-05
1.61166e-05
1.61165e-05
1.61164e-05
1.61164e-05
1.61163e-05
1.61162e-05
1.61162e-05
1.61162e-05
1.61161e-05
1.61161e-05
1.6116e-05
1.6116e-05
1.6116e-05
1.6116e-05
1.6116e-05
1.61159e-05
1.61159e-05
1.61159e-05
1.61159e-05
1.61159e-05
1.61159e-05
1.61159e-05
1.61159e-05
1.61159e-05
1.61159e-05
1.61159e-05
1.61159e-05
1.61159e-05
1.61159e-05
1.61159e-05
1.61159e-05
1.61159e-05
1.6116e-05
1.6116e-05
1.61161e-05
1.61161e-05
1.61161e-05
1.61162e-05
1.61162e-05
1.61162e-05
1.61163e-05
1.61164e-05
1.61164e-05
1.61165e-05
1.61165e-05
1.61166e-05
1.61166e-05
1.61166e-05
1.61167e-05
1.61167e-05
1.61166e-05
1.61168e-05
2.25389e-05
2.25383e-05
2.25379e-05
2.25376e-05
2.25375e-05
2.25373e-05
2.25372e-05
2.25371e-05
2.2537e-05
2.2537e-05
2.25371e-05
2.25371e-05
2.25372e-05
2.25374e-05
2.25375e-05
2.25377e-05
2.25378e-05
2.2538e-05
2.25381e-05
2.25382e-05
2.25383e-05
2.25384e-05
2.25386e-05
2.25387e-05
2.25389e-05
2.2539e-05
2.25391e-05
2.25393e-05
2.25394e-05
2.25395e-05
2.25396e-05
2.25397e-05
2.25398e-05
2.25399e-05
2.254e-05
2.25401e-05
2.25402e-05
2.25403e-05
2.25403e-05
2.25404e-05
2.25405e-05
2.25405e-05
2.25406e-05
2.25406e-05
2.25407e-05
2.25407e-05
2.25407e-05
2.25407e-05
2.25408e-05
2.25408e-05
2.25408e-05
2.25409e-05
2.25409e-05
2.25409e-05
2.25409e-05
2.25409e-05
2.25409e-05
2.25409e-05
2.25409e-05
2.25409e-05
2.25408e-05
2.25407e-05
2.25406e-05
2.25405e-05
2.25404e-05
2.25403e-05
2.25402e-05
2.254e-05
2.25399e-05
2.25398e-05
2.25397e-05
2.25397e-05
2.25396e-05
2.25395e-05
2.25395e-05
2.25394e-05
2.25393e-05
2.25393e-05
2.25392e-05
2.25392e-05
2.25392e-05
2.25391e-05
2.25391e-05
2.25391e-05
2.25391e-05
2.25391e-05
2.25391e-05
2.25391e-05
2.25391e-05
2.25391e-05
2.2539e-05
2.2539e-05
2.2539e-05
2.2539e-05
2.2539e-05
2.2539e-05
2.2539e-05
2.2539e-05
2.25391e-05
2.25391e-05
2.25392e-05
2.25392e-05
2.25393e-05
2.25393e-05
2.25394e-05
2.25394e-05
2.25395e-05
2.25395e-05
2.25396e-05
2.25397e-05
2.25397e-05
2.25398e-05
2.25399e-05
2.254e-05
2.254e-05
2.25401e-05
2.25401e-05
2.25401e-05
2.254e-05
2.25404e-05
2.96231e-05
2.96222e-05
2.96218e-05
2.96215e-05
2.96214e-05
2.96212e-05
2.96211e-05
2.9621e-05
2.9621e-05
2.9621e-05
2.9621e-05
2.96211e-05
2.96212e-05
2.96214e-05
2.96216e-05
2.96218e-05
2.9622e-05
2.96222e-05
2.96224e-05
2.96225e-05
2.96227e-05
2.96228e-05
2.9623e-05
2.96232e-05
2.96234e-05
2.96236e-05
2.96238e-05
2.96239e-05
2.96241e-05
2.96242e-05
2.96243e-05
2.96245e-05
2.96246e-05
2.96247e-05
2.96249e-05
2.9625e-05
2.96251e-05
2.96253e-05
2.96254e-05
2.96255e-05
2.96255e-05
2.96256e-05
2.96257e-05
2.96257e-05
2.96258e-05
2.96258e-05
2.96259e-05
2.96259e-05
2.96259e-05
2.9626e-05
2.9626e-05
2.96261e-05
2.96261e-05
2.96261e-05
2.96261e-05
2.96261e-05
2.96261e-05
2.96261e-05
2.96261e-05
2.9626e-05
2.96259e-05
2.96258e-05
2.96257e-05
2.96255e-05
2.96254e-05
2.96252e-05
2.96251e-05
2.9625e-05
2.96248e-05
2.96247e-05
2.96246e-05
2.96245e-05
2.96244e-05
2.96243e-05
2.96242e-05
2.96241e-05
2.96241e-05
2.9624e-05
2.96239e-05
2.96239e-05
2.96238e-05
2.96238e-05
2.96238e-05
2.96238e-05
2.96237e-05
2.96237e-05
2.96237e-05
2.96237e-05
2.96237e-05
2.96237e-05
2.96237e-05
2.96236e-05
2.96236e-05
2.96236e-05
2.96236e-05
2.96236e-05
2.96236e-05
2.96237e-05
2.96237e-05
2.96238e-05
2.96238e-05
2.96239e-05
2.9624e-05
2.9624e-05
2.96241e-05
2.96242e-05
2.96242e-05
2.96243e-05
2.96244e-05
2.96245e-05
2.96246e-05
2.96247e-05
2.96248e-05
2.96248e-05
2.96249e-05
2.9625e-05
2.9625e-05
2.96251e-05
2.96249e-05
2.96255e-05
3.7242e-05
3.72408e-05
3.72402e-05
3.724e-05
3.72399e-05
3.72398e-05
3.72397e-05
3.72396e-05
3.72396e-05
3.72396e-05
3.72397e-05
3.72398e-05
3.724e-05
3.72402e-05
3.72405e-05
3.72407e-05
3.7241e-05
3.72412e-05
3.72414e-05
3.72416e-05
3.72418e-05
3.7242e-05
3.72422e-05
3.72425e-05
3.72427e-05
3.7243e-05
3.72432e-05
3.72434e-05
3.72436e-05
3.72438e-05
3.72439e-05
3.72441e-05
3.72442e-05
3.72444e-05
3.72446e-05
3.72448e-05
3.72449e-05
3.72451e-05
3.72452e-05
3.72454e-05
3.72455e-05
3.72456e-05
3.72457e-05
3.72457e-05
3.72458e-05
3.72459e-05
3.72459e-05
3.72459e-05
3.7246e-05
3.7246e-05
3.72461e-05
3.72461e-05
3.72462e-05
3.72462e-05
3.72462e-05
3.72462e-05
3.72462e-05
3.72462e-05
3.72461e-05
3.7246e-05
3.72459e-05
3.72458e-05
3.72456e-05
3.72454e-05
3.72452e-05
3.72451e-05
3.72449e-05
3.72447e-05
3.72445e-05
3.72444e-05
3.72442e-05
3.72441e-05
3.7244e-05
3.72439e-05
3.72438e-05
3.72437e-05
3.72436e-05
3.72435e-05
3.72434e-05
3.72434e-05
3.72433e-05
3.72433e-05
3.72432e-05
3.72432e-05
3.72432e-05
3.72432e-05
3.72432e-05
3.72431e-05
3.72431e-05
3.72431e-05
3.72431e-05
3.72431e-05
3.7243e-05
3.7243e-05
3.7243e-05
3.7243e-05
3.72431e-05
3.72431e-05
3.72432e-05
3.72432e-05
3.72433e-05
3.72434e-05
3.72435e-05
3.72436e-05
3.72437e-05
3.72438e-05
3.72439e-05
3.72439e-05
3.7244e-05
3.72442e-05
3.72443e-05
3.72444e-05
3.72445e-05
3.72446e-05
3.72447e-05
3.72447e-05
3.72448e-05
3.72449e-05
3.72447e-05
3.72455e-05
4.53072e-05
4.53056e-05
4.5305e-05
4.53048e-05
4.53047e-05
4.53047e-05
4.53047e-05
4.53046e-05
4.53047e-05
4.53047e-05
4.53048e-05
4.53049e-05
4.53051e-05
4.53054e-05
4.53057e-05
4.53061e-05
4.53064e-05
4.53066e-05
4.53069e-05
4.53071e-05
4.53074e-05
4.53076e-05
4.53079e-05
4.53082e-05
4.53085e-05
4.53088e-05
4.53091e-05
4.53093e-05
4.53096e-05
4.53098e-05
4.531e-05
4.53102e-05
4.53104e-05
4.53106e-05
4.53108e-05
4.5311e-05
4.53113e-05
4.53115e-05
4.53116e-05
4.53118e-05
4.53119e-05
4.53121e-05
4.53122e-05
4.53123e-05
4.53124e-05
4.53124e-05
4.53125e-05
4.53126e-05
4.53126e-05
4.53127e-05
4.53127e-05
4.53128e-05
4.53128e-05
4.53128e-05
4.53128e-05
4.53128e-05
4.53128e-05
4.53127e-05
4.53126e-05
4.53125e-05
4.53124e-05
4.53122e-05
4.5312e-05
4.53118e-05
4.53116e-05
4.53114e-05
4.53112e-05
4.5311e-05
4.53108e-05
4.53106e-05
4.53104e-05
4.53102e-05
4.53101e-05
4.531e-05
4.53098e-05
4.53097e-05
4.53096e-05
4.53095e-05
4.53094e-05
4.53093e-05
4.53093e-05
4.53092e-05
4.53092e-05
4.53092e-05
4.53091e-05
4.53091e-05
4.53091e-05
4.53091e-05
4.5309e-05
4.5309e-05
4.5309e-05
4.5309e-05
4.53089e-05
4.53089e-05
4.53089e-05
4.53089e-05
4.5309e-05
4.5309e-05
4.53091e-05
4.53092e-05
4.53093e-05
4.53095e-05
4.53096e-05
4.53097e-05
4.53098e-05
4.53099e-05
4.531e-05
4.53101e-05
4.53102e-05
4.53104e-05
4.53105e-05
4.53106e-05
4.53107e-05
4.53108e-05
4.53109e-05
4.5311e-05
4.53111e-05
4.53112e-05
4.53109e-05
4.5312e-05
5.37563e-05
5.37543e-05
5.37536e-05
5.37534e-05
5.37534e-05
5.37535e-05
5.37535e-05
5.37535e-05
5.37536e-05
5.37537e-05
5.37538e-05
5.3754e-05
5.37542e-05
5.37546e-05
5.37549e-05
5.37553e-05
5.37557e-05
5.3756e-05
5.37563e-05
5.37566e-05
5.37569e-05
5.37572e-05
5.37575e-05
5.37579e-05
5.37582e-05
5.37586e-05
5.3759e-05
5.37593e-05
5.37596e-05
5.37598e-05
5.37601e-05
5.37603e-05
5.37606e-05
5.37608e-05
5.37611e-05
5.37613e-05
5.37616e-05
5.37618e-05
5.37621e-05
5.37623e-05
5.37624e-05
5.37626e-05
5.37627e-05
5.37629e-05
5.3763e-05
5.37631e-05
5.37631e-05
5.37632e-05
5.37633e-05
5.37634e-05
5.37634e-05
5.37635e-05
5.37635e-05
5.37635e-05
5.37635e-05
5.37635e-05
5.37634e-05
5.37634e-05
5.37632e-05
5.37631e-05
5.37629e-05
5.37627e-05
5.37625e-05
5.37622e-05
5.3762e-05
5.37617e-05
5.37614e-05
5.37612e-05
5.3761e-05
5.37608e-05
5.37606e-05
5.37604e-05
5.37602e-05
5.37601e-05
5.37599e-05
5.37598e-05
5.37596e-05
5.37595e-05
5.37594e-05
5.37593e-05
5.37592e-05
5.37592e-05
5.37591e-05
5.37591e-05
5.3759e-05
5.3759e-05
5.3759e-05
5.3759e-05
5.37589e-05
5.37589e-05
5.37589e-05
5.37588e-05
5.37588e-05
5.37588e-05
5.37588e-05
5.37588e-05
5.37589e-05
5.3759e-05
5.37591e-05
5.37592e-05
5.37594e-05
5.37595e-05
5.37597e-05
5.37598e-05
5.376e-05
5.37601e-05
5.37602e-05
5.37603e-05
5.37605e-05
5.37606e-05
5.37607e-05
5.37609e-05
5.3761e-05
5.37611e-05
5.37613e-05
5.37614e-05
5.37614e-05
5.37616e-05
5.37612e-05
5.37627e-05
6.25442e-05
6.25418e-05
6.25409e-05
6.25407e-05
6.25408e-05
6.2541e-05
6.25411e-05
6.25412e-05
6.25413e-05
6.25414e-05
6.25416e-05
6.25418e-05
6.25422e-05
6.25426e-05
6.2543e-05
6.25434e-05
6.25439e-05
6.25442e-05
6.25446e-05
6.2545e-05
6.25453e-05
6.25457e-05
6.2546e-05
6.25465e-05
6.25469e-05
6.25473e-05
6.25477e-05
6.25481e-05
6.25484e-05
6.25488e-05
6.25491e-05
6.25493e-05
6.25496e-05
6.25499e-05
6.25503e-05
6.25506e-05
6.25509e-05
6.25512e-05
6.25514e-05
6.25517e-05
6.25519e-05
6.25521e-05
6.25522e-05
6.25524e-05
6.25525e-05
6.25527e-05
6.25528e-05
6.25529e-05
6.2553e-05
6.2553e-05
6.25531e-05
6.25532e-05
6.25532e-05
6.25532e-05
6.25532e-05
6.25531e-05
6.2553e-05
6.25529e-05
6.25528e-05
6.25526e-05
6.25523e-05
6.25521e-05
6.25518e-05
6.25515e-05
6.25512e-05
6.25509e-05
6.25506e-05
6.25503e-05
6.25501e-05
6.25498e-05
6.25496e-05
6.25494e-05
6.25492e-05
6.2549e-05
6.25488e-05
6.25487e-05
6.25485e-05
6.25484e-05
6.25483e-05
6.25482e-05
6.25481e-05
6.2548e-05
6.25479e-05
6.25479e-05
6.25478e-05
6.25478e-05
6.25478e-05
6.25477e-05
6.25477e-05
6.25476e-05
6.25476e-05
6.25476e-05
6.25475e-05
6.25475e-05
6.25475e-05
6.25476e-05
6.25477e-05
6.25478e-05
6.25479e-05
6.25481e-05
6.25483e-05
6.25485e-05
6.25487e-05
6.25489e-05
6.2549e-05
6.25492e-05
6.25493e-05
6.25495e-05
6.25497e-05
6.25498e-05
6.255e-05
6.25501e-05
6.25503e-05
6.25504e-05
6.25505e-05
6.25506e-05
6.25507e-05
6.25509e-05
6.25505e-05
6.25523e-05
7.16379e-05
7.1635e-05
7.16341e-05
7.16339e-05
7.16341e-05
7.16343e-05
7.16345e-05
7.16347e-05
7.16348e-05
7.1635e-05
7.16352e-05
7.16355e-05
7.16359e-05
7.16364e-05
7.16369e-05
7.16374e-05
7.16379e-05
7.16383e-05
7.16387e-05
7.16392e-05
7.16396e-05
7.164e-05
7.16404e-05
7.16409e-05
7.16414e-05
7.16419e-05
7.16423e-05
7.16428e-05
7.16432e-05
7.16436e-05
7.16439e-05
7.16443e-05
7.16446e-05
7.16449e-05
7.16453e-05
7.16457e-05
7.1646e-05
7.16464e-05
7.16467e-05
7.1647e-05
7.16472e-05
7.16475e-05
7.16477e-05
7.16479e-05
7.1648e-05
7.16482e-05
7.16483e-05
7.16485e-05
7.16486e-05
7.16487e-05
7.16487e-05
7.16488e-05
7.16488e-05
7.16488e-05
7.16488e-05
7.16487e-05
7.16485e-05
7.16483e-05
7.16481e-05
7.16479e-05
7.16476e-05
7.16473e-05
7.1647e-05
7.16466e-05
7.16463e-05
7.16459e-05
7.16456e-05
7.16453e-05
7.1645e-05
7.16447e-05
7.16444e-05
7.16442e-05
7.1644e-05
7.16438e-05
7.16436e-05
7.16434e-05
7.16432e-05
7.16431e-05
7.16429e-05
7.16428e-05
7.16427e-05
7.16426e-05
7.16425e-05
7.16425e-05
7.16424e-05
7.16424e-05
7.16423e-05
7.16423e-05
7.16422e-05
7.16422e-05
7.16421e-05
7.16421e-05
7.16421e-05
7.16421e-05
7.16421e-05
7.16422e-05
7.16423e-05
7.16425e-05
7.16426e-05
7.16429e-05
7.16431e-05
7.16433e-05
7.16436e-05
7.16438e-05
7.1644e-05
7.16442e-05
7.16444e-05
7.16446e-05
7.16447e-05
7.16449e-05
7.16451e-05
7.16453e-05
7.16454e-05
7.16456e-05
7.16457e-05
7.16458e-05
7.16459e-05
7.16461e-05
7.16457e-05
7.16479e-05
8.1013e-05
8.10097e-05
8.10086e-05
8.10084e-05
8.10087e-05
8.1009e-05
8.10093e-05
8.10095e-05
8.10098e-05
8.101e-05
8.10103e-05
8.10106e-05
8.10111e-05
8.10116e-05
8.10122e-05
8.10128e-05
8.10133e-05
8.10138e-05
8.10143e-05
8.10148e-05
8.10152e-05
8.10157e-05
8.10162e-05
8.10168e-05
8.10173e-05
8.10179e-05
8.10184e-05
8.10189e-05
8.10194e-05
8.10198e-05
8.10202e-05
8.10206e-05
8.1021e-05
8.10214e-05
8.10219e-05
8.10223e-05
8.10227e-05
8.10231e-05
8.10235e-05
8.10238e-05
8.10241e-05
8.10243e-05
8.10246e-05
8.10248e-05
8.1025e-05
8.10252e-05
8.10254e-05
8.10256e-05
8.10257e-05
8.10258e-05
8.10259e-05
8.10259e-05
8.1026e-05
8.10259e-05
8.10258e-05
8.10257e-05
8.10255e-05
8.10252e-05
8.10249e-05
8.10246e-05
8.10243e-05
8.10239e-05
8.10235e-05
8.10231e-05
8.10227e-05
8.10223e-05
8.1022e-05
8.10216e-05
8.10213e-05
8.1021e-05
8.10207e-05
8.10204e-05
8.10202e-05
8.10199e-05
8.10197e-05
8.10195e-05
8.10193e-05
8.10191e-05
8.1019e-05
8.10188e-05
8.10187e-05
8.10186e-05
8.10185e-05
8.10184e-05
8.10184e-05
8.10183e-05
8.10183e-05
8.10182e-05
8.10181e-05
8.10181e-05
8.1018e-05
8.1018e-05
8.1018e-05
8.1018e-05
8.1018e-05
8.10182e-05
8.10183e-05
8.10185e-05
8.10188e-05
8.1019e-05
8.10193e-05
8.10196e-05
8.10199e-05
8.10202e-05
8.10205e-05
8.10207e-05
8.10209e-05
8.10211e-05
8.10213e-05
8.10215e-05
8.10217e-05
8.10219e-05
8.10221e-05
8.10223e-05
8.10224e-05
8.10225e-05
8.10226e-05
8.10228e-05
8.10223e-05
8.10249e-05
9.06516e-05
9.06477e-05
9.06465e-05
9.06464e-05
9.06467e-05
9.06471e-05
9.06475e-05
9.06478e-05
9.06481e-05
9.06484e-05
9.06488e-05
9.06492e-05
9.06497e-05
9.06503e-05
9.06509e-05
9.06516e-05
9.06522e-05
9.06528e-05
9.06534e-05
9.06539e-05
9.06544e-05
9.0655e-05
9.06555e-05
9.06561e-05
9.06567e-05
9.06574e-05
9.0658e-05
9.06586e-05
9.06591e-05
9.06596e-05
9.06601e-05
9.06605e-05
9.0661e-05
9.06614e-05
9.06619e-05
9.06624e-05
9.06629e-05
9.06633e-05
9.06637e-05
9.06641e-05
9.06644e-05
9.06648e-05
9.0665e-05
9.06653e-05
9.06656e-05
9.06658e-05
9.0666e-05
9.06662e-05
9.06664e-05
9.06665e-05
9.06666e-05
9.06666e-05
9.06666e-05
9.06665e-05
9.06664e-05
9.06661e-05
9.06659e-05
9.06655e-05
9.06651e-05
9.06647e-05
9.06643e-05
9.06639e-05
9.06634e-05
9.0663e-05
9.06625e-05
9.06621e-05
9.06617e-05
9.06613e-05
9.06609e-05
9.06605e-05
9.06602e-05
9.06599e-05
9.06597e-05
9.06594e-05
9.06592e-05
9.0659e-05
9.06587e-05
9.06585e-05
9.06584e-05
9.06582e-05
9.0658e-05
9.06579e-05
9.06578e-05
9.06577e-05
9.06576e-05
9.06576e-05
9.06575e-05
9.06574e-05
9.06574e-05
9.06573e-05
9.06572e-05
9.06572e-05
9.06572e-05
9.06572e-05
9.06573e-05
9.06575e-05
9.06577e-05
9.0658e-05
9.06583e-05
9.06587e-05
9.0659e-05
9.06594e-05
9.06598e-05
9.06601e-05
9.06604e-05
9.06607e-05
9.0661e-05
9.06612e-05
9.06615e-05
9.06617e-05
9.06619e-05
9.06621e-05
9.06623e-05
9.06625e-05
9.06626e-05
9.06628e-05
9.06629e-05
9.06631e-05
9.06625e-05
9.06655e-05
0.000100541
0.000100536
0.000100535
0.000100535
0.000100535
0.000100536
0.000100536
0.000100537
0.000100537
0.000100537
0.000100538
0.000100538
0.000100539
0.000100539
0.00010054
0.000100541
0.000100542
0.000100542
0.000100543
0.000100543
0.000100544
0.000100545
0.000100545
0.000100546
0.000100547
0.000100547
0.000100548
0.000100549
0.000100549
0.00010055
0.00010055
0.000100551
0.000100551
0.000100552
0.000100552
0.000100553
0.000100554
0.000100554
0.000100554
0.000100555
0.000100555
0.000100556
0.000100556
0.000100556
0.000100557
0.000100557
0.000100557
0.000100557
0.000100558
0.000100558
0.000100558
0.000100558
0.000100558
0.000100558
0.000100557
0.000100557
0.000100557
0.000100556
0.000100556
0.000100555
0.000100555
0.000100554
0.000100554
0.000100553
0.000100553
0.000100552
0.000100552
0.000100551
0.000100551
0.00010055
0.00010055
0.00010055
0.000100549
0.000100549
0.000100549
0.000100549
0.000100548
0.000100548
0.000100548
0.000100548
0.000100548
0.000100547
0.000100547
0.000100547
0.000100547
0.000100547
0.000100547
0.000100547
0.000100547
0.000100547
0.000100547
0.000100547
0.000100547
0.000100547
0.000100547
0.000100547
0.000100547
0.000100548
0.000100548
0.000100549
0.000100549
0.00010055
0.00010055
0.00010055
0.000100551
0.000100551
0.000100551
0.000100552
0.000100552
0.000100552
0.000100553
0.000100553
0.000100553
0.000100553
0.000100553
0.000100553
0.000100554
0.000100554
0.000100553
0.000100557
0.000110671
0.000110666
0.000110665
0.000110665
0.000110665
0.000110666
0.000110666
0.000110667
0.000110667
0.000110668
0.000110668
0.000110669
0.000110669
0.00011067
0.000110671
0.000110672
0.000110672
0.000110673
0.000110674
0.000110675
0.000110675
0.000110676
0.000110677
0.000110677
0.000110678
0.000110679
0.00011068
0.00011068
0.000110681
0.000110682
0.000110682
0.000110683
0.000110683
0.000110684
0.000110684
0.000110685
0.000110686
0.000110686
0.000110687
0.000110687
0.000110688
0.000110688
0.000110688
0.000110689
0.000110689
0.000110689
0.00011069
0.00011069
0.00011069
0.00011069
0.00011069
0.00011069
0.00011069
0.00011069
0.00011069
0.000110689
0.000110689
0.000110688
0.000110687
0.000110687
0.000110686
0.000110686
0.000110685
0.000110684
0.000110684
0.000110683
0.000110683
0.000110682
0.000110682
0.000110681
0.000110681
0.000110681
0.00011068
0.00011068
0.00011068
0.000110679
0.000110679
0.000110679
0.000110679
0.000110679
0.000110678
0.000110678
0.000110678
0.000110678
0.000110678
0.000110678
0.000110678
0.000110678
0.000110677
0.000110677
0.000110677
0.000110677
0.000110677
0.000110678
0.000110678
0.000110678
0.000110679
0.000110679
0.00011068
0.00011068
0.000110681
0.000110681
0.000110682
0.000110682
0.000110683
0.000110683
0.000110683
0.000110684
0.000110684
0.000110684
0.000110685
0.000110685
0.000110685
0.000110685
0.000110685
0.000110686
0.000110686
0.000110686
0.000110685
0.000110689
0.000121037
0.000121032
0.00012103
0.00012103
0.000121031
0.000121031
0.000121032
0.000121032
0.000121033
0.000121033
0.000121034
0.000121035
0.000121035
0.000121036
0.000121037
0.000121038
0.000121039
0.00012104
0.00012104
0.000121041
0.000121042
0.000121043
0.000121043
0.000121044
0.000121045
0.000121046
0.000121047
0.000121047
0.000121048
0.000121049
0.000121049
0.00012105
0.000121051
0.000121051
0.000121052
0.000121053
0.000121053
0.000121054
0.000121054
0.000121055
0.000121056
0.000121056
0.000121056
0.000121057
0.000121057
0.000121058
0.000121058
0.000121058
0.000121058
0.000121059
0.000121059
0.000121059
0.000121058
0.000121058
0.000121057
0.000121057
0.000121056
0.000121055
0.000121054
0.000121054
0.000121053
0.000121052
0.000121052
0.000121051
0.00012105
0.00012105
0.000121049