/*--------------------------------*- C++ -*----------------------------------*\
  =========                 |
  \\      /  F ield         | OpenFOAM: The Open Source CFD Toolbox
   \\    /   O peration     | Website:  https://openfoam.org
    \\  /    A nd           | Version:  7
     \\/     M anipulation  |
\*---------------------------------------------------------------------------*/
FoamFile
{
    version     2.0;
    format      ascii;
    class       volScalarField;
    location    "3000";
    object      omega;
}
// * * * * * * * * * * * * * * * * * * * * * * * * * * * * * * * * * * * * * //

dimensions      [0 0 -1 0 0 0 0];

internalField   nonuniform List<scalar> 
24000
(
999.269
999.269
999.269
999.269
999.269
999.269
999.269
999.269
999.269
999.269
999.269
999.269
999.269
999.269
999.269
999.269
999.269
999.269
999.269
999.269
999.269
999.269
999.269
999.269
999.269
999.269
999.269
999.269
999.269
999.269
999.269
999.269
999.269
999.269
999.269
999.269
999.269
999.269
999.269
999.269
999.269
999.269
999.269
999.269
999.269
999.269
999.269
999.269
999.269
999.269
999.269
999.269
999.269
999.269
999.269
999.269
999.269
999.269
999.269
999.269
999.269
999.269
999.269
999.269
999.269
999.269
999.269
999.269
999.269
999.269
999.269
999.269
999.269
999.269
999.269
999.269
999.269
999.269
999.269
999.269
999.269
999.269
999.269
999.269
999.269
999.269
999.269
999.269
999.269
999.269
999.269
999.269
999.269
999.269
999.269
999.269
999.269
999.269
999.269
999.269
999.269
999.269
999.269
999.269
999.269
999.269
999.269
999.269
999.269
999.269
999.269
999.269
999.269
999.269
999.269
999.269
999.269
999.269
999.269
999.269
173.193
173.193
173.193
173.193
173.193
173.193
173.193
173.193
173.193
173.193
173.193
173.193
173.193
173.193
173.193
173.193
173.193
173.193
173.193
173.193
173.193
173.193
173.193
173.193
173.193
173.193
173.193
173.193
173.193
173.193
173.193
173.193
173.193
173.193
173.193
173.193
173.193
173.193
173.193
173.193
173.193
173.193
173.193
173.193
173.193
173.193
173.193
173.193
173.193
173.193
173.193
173.193
173.193
173.193
173.193
173.193
173.193
173.193
173.193
173.193
173.193
173.193
173.193
173.193
173.193
173.193
173.193
173.193
173.193
173.193
173.193
173.193
173.193
173.193
173.193
173.193
173.193
173.193
173.193
173.193
173.193
173.193
173.193
173.193
173.193
173.193
173.193
173.193
173.193
173.193
173.193
173.193
173.193
173.193
173.193
173.193
173.193
173.193
173.193
173.193
173.193
173.193
173.193
173.193
173.193
173.193
173.193
173.193
173.193
173.193
173.193
173.193
173.193
173.193
173.193
173.193
173.193
173.193
173.193
173.193
58.8538
58.8538
58.8538
58.8538
58.8538
58.8538
58.8538
58.8538
58.8538
58.8538
58.8538
58.8538
58.8538
58.8538
58.8538
58.8538
58.8538
58.8538
58.8538
58.8538
58.8538
58.8538
58.8538
58.8538
58.8538
58.8538
58.8538
58.8538
58.8538
58.8538
58.8538
58.8538
58.8538
58.8538
58.8538
58.8538
58.8538
58.8538
58.8538
58.8538
58.8538
58.8538
58.8538
58.8538
58.8538
58.8538
58.8538
58.8538
58.8538
58.8538
58.8538
58.8538
58.8538
58.8538
58.8538
58.8538
58.8538
58.8538
58.8538
58.8538
58.8538
58.8538
58.8538
58.8538
58.8538
58.8538
58.8538
58.8538
58.8538
58.8538
58.8538
58.8538
58.8538
58.8538
58.8538
58.8538
58.8538
58.8538
58.8538
58.8538
58.8538
58.8538
58.8538
58.8538
58.8538
58.8538
58.8538
58.8538
58.8538
58.8538
58.8538
58.8538
58.8538
58.8538
58.8538
58.8538
58.8538
58.8538
58.8538
58.8538
58.8538
58.8538
58.8538
58.8538
58.8538
58.8538
58.8538
58.8538
58.8538
58.8538
58.8538
58.8538
58.8538
58.8538
58.8538
58.8538
58.8538
58.8538
58.8538
58.8538
28.498
28.4981
28.4981
28.4981
28.498
28.498
28.498
28.498
28.498
28.498
28.498
28.498
28.498
28.498
28.498
28.498
28.498
28.498
28.498
28.498
28.498
28.498
28.498
28.498
28.498
28.498
28.498
28.498
28.498
28.498
28.498
28.498
28.498
28.498
28.498
28.498
28.498
28.498
28.4981
28.4981
28.4981
28.4981
28.4981
28.4981
28.4981
28.4981
28.4981
28.4981
28.4981
28.4981
28.4981
28.4981
28.4981
28.4981
28.4981
28.4981
28.4981
28.4981
28.4981
28.4981
28.4981
28.4981
28.4981
28.4981
28.4981
28.4981
28.4981
28.4981
28.4981
28.4981
28.4981
28.4981
28.4981
28.4981
28.4981
28.4981
28.4981
28.4981
28.4981
28.4981
28.4981
28.4981
28.4981
28.4981
28.4981
28.4981
28.4981
28.4981
28.4981
28.4981
28.4981
28.4981
28.4981
28.4981
28.4981
28.4981
28.4981
28.4981
28.4981
28.4981
28.4981
28.4981
28.4981
28.4981
28.4981
28.4981
28.4981
28.4981
28.4981
28.4981
28.4981
28.4981
28.4981
28.4981
28.4981
28.4981
28.4981
28.4981
28.4981
28.4981
17.1774
17.1774
17.1774
17.1774
17.1774
17.1774
17.1774
17.1774
17.1774
17.1774
17.1774
17.1774
17.1774
17.1774
17.1774
17.1774
17.1774
17.1774
17.1774
17.1774
17.1774
17.1774
17.1774
17.1774
17.1774
17.1774
17.1774
17.1774
17.1774
17.1774
17.1774
17.1774
17.1774
17.1774
17.1774
17.1774
17.1774
17.1774
17.1774
17.1774
17.1774
17.1774
17.1774
17.1774
17.1775
17.1775
17.1775
17.1775
17.1775
17.1775
17.1775
17.1775
17.1775
17.1775
17.1775
17.1775
17.1775
17.1775
17.1775
17.1775
17.1775
17.1775
17.1775
17.1775
17.1775
17.1775
17.1775
17.1775
17.1775
17.1775
17.1775
17.1775
17.1774
17.1774
17.1774
17.1774
17.1774
17.1774
17.1774
17.1774
17.1774
17.1774
17.1774
17.1774
17.1774
17.1774
17.1774
17.1774
17.1774
17.1774
17.1774
17.1774
17.1774
17.1774
17.1774
17.1774
17.1774
17.1774
17.1774
17.1774
17.1774
17.1774
17.1774
17.1774
17.1774
17.1774
17.1774
17.1774
17.1774
17.1774
17.1774
17.1774
17.1774
17.1774
17.1774
17.1774
17.1774
17.1774
17.1775
17.1775
11.9313
11.9313
11.9313
11.9313
11.9313
11.9313
11.9313
11.9313
11.9313
11.9313
11.9313
11.9313
11.9313
11.9313
11.9313
11.9312
11.9312
11.9312
11.9312
11.9312
11.9312
11.9312
11.9312
11.9312
11.9312
11.9312
11.9313
11.9313
11.9313
11.9313
11.9313
11.9313
11.9313
11.9313
11.9313
11.9313
11.9313
11.9313
11.9313
11.9313
11.9313
11.9313
11.9313
11.9313
11.9313
11.9313
11.9313
11.9313
11.9313
11.9313
11.9313
11.9313
11.9313
11.9313
11.9313
11.9313
11.9313
11.9313
11.9313
11.9313
11.9313
11.9313
11.9313
11.9313
11.9313
11.9313
11.9313
11.9313
11.9313
11.9313
11.9313
11.9313
11.9313
11.9313
11.9313
11.9313
11.9313
11.9313
11.9313
11.9313
11.9313
11.9313
11.9313
11.9313
11.9313
11.9313
11.9313
11.9313
11.9313
11.9313
11.9313
11.9313
11.9313
11.9313
11.9313
11.9313
11.9313
11.9313
11.9313
11.9313
11.9313
11.9313
11.9313
11.9313
11.9313
11.9313
11.9313
11.9313
11.9313
11.9313
11.9313
11.9313
11.9313
11.9313
11.9313
11.9313
11.9313
11.9313
11.9313
11.9313
9.0316
9.03163
9.03164
9.03163
9.03162
9.03162
9.03162
9.03161
9.03161
9.0316
9.0316
9.03159
9.03159
9.03158
9.03158
9.03157
9.03157
9.03157
9.03156
9.03156
9.03156
9.03156
9.03156
9.03156
9.03156
9.03156
9.03156
9.03156
9.03156
9.03156
9.03156
9.03157
9.03157
9.03157
9.03157
9.03157
9.03158
9.03158
9.03158
9.03158
9.03159
9.03159
9.0316
9.0316
9.03161
9.03161
9.03162
9.03162
9.03162
9.03162
9.03162
9.03162
9.03162
9.03162
9.03162
9.03162
9.03162
9.03162
9.03162
9.03162
9.03162
9.03162
9.03162
9.03162
9.03162
9.03162
9.03162
9.03162
9.03162
9.03161
9.03161
9.03161
9.03161
9.03161
9.03161
9.03161
9.03161
9.03161
9.03161
9.03161
9.0316
9.0316
9.0316
9.0316
9.0316
9.0316
9.0316
9.0316
9.0316
9.0316
9.0316
9.0316
9.0316
9.0316
9.03159
9.03159
9.03159
9.0316
9.0316
9.0316
9.0316
9.0316
9.0316
9.03161
9.03161
9.03162
9.03162
9.03162
9.03162
9.03162
9.03161
9.03161
9.03161
9.03161
9.03161
9.03161
9.03161
9.03161
9.03162
9.03162
7.18672
7.18673
7.18673
7.18672
7.18671
7.18671
7.1867
7.1867
7.1867
7.18669
7.18669
7.18669
7.18668
7.18668
7.18667
7.18667
7.18666
7.18666
7.18666
7.18665
7.18665
7.18665
7.18665
7.18664
7.18664
7.18664
7.18664
7.18664
7.18664
7.18664
7.18664
7.18664
7.18664
7.18664
7.18664
7.18664
7.18664
7.18664
7.18664
7.18664
7.18665
7.18665
7.18665
7.18665
7.18666
7.18667
7.18667
7.18668
7.18668
7.18668
7.18668
7.18668
7.18668
7.18667
7.18667
7.18667
7.18667
7.18667
7.18667
7.18667
7.18667
7.18667
7.18667
7.18667
7.18667
7.18667
7.18667
7.18667
7.18667
7.18667
7.18667
7.18667
7.18667
7.18667
7.18667
7.18667
7.18667
7.18667
7.18667
7.18667
7.18667
7.18667
7.18667
7.18666
7.18666
7.18666
7.18666
7.18666
7.18666
7.18666
7.18666
7.18666
7.18666
7.18666
7.18666
7.18666
7.18666
7.18666
7.18666
7.18666
7.18666
7.18667
7.18667
7.18667
7.18668
7.18668
7.18668
7.18668
7.18668
7.18668
7.18668
7.18668
7.18668
7.18667
7.18667
7.18667
7.18667
7.18667
7.18668
7.18667
5.89882
5.89883
5.89882
5.8988
5.89879
5.89878
5.89878
5.89877
5.89877
5.89877
5.89876
5.89876
5.89876
5.89875
5.89875
5.89874
5.89874
5.89873
5.89873
5.89873
5.89872
5.89872
5.89872
5.89871
5.89871
5.89871
5.89871
5.8987
5.8987
5.8987
5.8987
5.8987
5.8987
5.8987
5.8987
5.89869
5.89869
5.89869
5.89869
5.89869
5.89869
5.8987
5.8987
5.8987
5.8987
5.89871
5.89871
5.89872
5.89872
5.89872
5.89872
5.89872
5.89872
5.89872
5.89872
5.89871
5.89871
5.89871
5.89871
5.89871
5.89871
5.89871
5.8987
5.8987
5.8987
5.8987
5.8987
5.89871
5.89871
5.89871
5.89871
5.89871
5.89871
5.89871
5.89871
5.89871
5.89871
5.89871
5.89871
5.89871
5.89871
5.89871
5.89871
5.89871
5.89871
5.89871
5.89871
5.89871
5.89871
5.89871
5.89871
5.89871
5.89871
5.89871
5.89871
5.89871
5.89871
5.89871
5.89871
5.89871
5.89871
5.89872
5.89872
5.89872
5.89873
5.89873
5.89873
5.89873
5.89873
5.89873
5.89873
5.89873
5.89873
5.89872
5.89872
5.89872
5.89872
5.89872
5.89873
5.89871
4.94897
4.94898
4.94896
4.94893
4.94892
4.9489
4.9489
4.94889
4.94889
4.94889
4.94888
4.94888
4.94888
4.94887
4.94887
4.94886
4.94886
4.94886
4.94885
4.94885
4.94884
4.94884
4.94884
4.94883
4.94883
4.94883
4.94882
4.94882
4.94882
4.94882
4.94881
4.94881
4.94881
4.94881
4.94881
4.94881
4.9488
4.9488
4.9488
4.9488
4.9488
4.9488
4.9488
4.9488
4.9488
4.94881
4.94881
4.94882
4.94882
4.94882
4.94882
4.94882
4.94882
4.94882
4.94881
4.94881
4.94881
4.94881
4.94881
4.9488
4.9488
4.9488
4.9488
4.9488
4.9488
4.9488
4.9488
4.9488
4.9488
4.9488
4.9488
4.94881
4.94881
4.94881
4.94881
4.94881
4.94881
4.94881
4.94881
4.94881
4.94881
4.94881
4.94882
4.94882
4.94882
4.94882
4.94882
4.94882
4.94882
4.94882
4.94881
4.94881
4.94881
4.94881
4.94881
4.94881
4.94881
4.94882
4.94882
4.94882
4.94882
4.94882
4.94882
4.94882
4.94883
4.94883
4.94883
4.94884
4.94884
4.94884
4.94883
4.94883
4.94883
4.94883
4.94883
4.94882
4.94882
4.94882
4.94883
4.9488
4.22382
4.22383
4.22381
4.22378
4.22376
4.22374
4.22373
4.22372
4.22372
4.22372
4.22371
4.22371
4.2237
4.2237
4.2237
4.22369
4.22369
4.22369
4.22368
4.22368
4.22368
4.22367
4.22367
4.22366
4.22366
4.22366
4.22365
4.22365
4.22365
4.22365
4.22364
4.22364
4.22364
4.22364
4.22363
4.22363
4.22363
4.22363
4.22363
4.22362
4.22362
4.22362
4.22362
4.22362
4.22362
4.22363
4.22363
4.22363
4.22363
4.22364
4.22364
4.22364
4.22363
4.22363
4.22363
4.22363
4.22363
4.22362
4.22362
4.22362
4.22362
4.22362
4.22362
4.22361
4.22361
4.22361
4.22362
4.22362
4.22362
4.22362
4.22362
4.22362
4.22362
4.22362
4.22362
4.22363
4.22363
4.22363
4.22363
4.22363
4.22363
4.22363
4.22363
4.22363
4.22363
4.22363
4.22363
4.22363
4.22363
4.22363
4.22363
4.22363
4.22363
4.22363
4.22363
4.22363
4.22363
4.22363
4.22363
4.22363
4.22364
4.22364
4.22364
4.22364
4.22364
4.22365
4.22365
4.22365
4.22365
4.22365
4.22365
4.22365
4.22365
4.22365
4.22364
4.22364
4.22364
4.22364
4.22365
4.22361
3.65626
3.65628
3.65625
3.65622
3.6562
3.65618
3.65616
3.65616
3.65615
3.65614
3.65614
3.65614
3.65613
3.65613
3.65613
3.65612
3.65612
3.65612
3.65611
3.65611
3.65611
3.6561
3.6561
3.6561
3.65609
3.65609
3.65609
3.65608
3.65608
3.65608
3.65607
3.65607
3.65607
3.65607
3.65606
3.65606
3.65606
3.65606
3.65605
3.65605
3.65605
3.65605
3.65605
3.65605
3.65605
3.65605
3.65605
3.65605
3.65606
3.65606
3.65606
3.65606
3.65606
3.65605
3.65605
3.65605
3.65605
3.65605
3.65604
3.65604
3.65604
3.65604
3.65604
3.65604
3.65603
3.65603
3.65604
3.65604
3.65604
3.65604
3.65604
3.65604
3.65604
3.65604
3.65604
3.65605
3.65605
3.65605
3.65605
3.65605
3.65605
3.65605
3.65605
3.65605
3.65605
3.65605
3.65605
3.65605
3.65605
3.65605
3.65605
3.65605
3.65605
3.65605
3.65606
3.65606
3.65606
3.65606
3.65606
3.65606
3.65606
3.65606
3.65606
3.65606
3.65606
3.65607
3.65607
3.65607
3.65607
3.65607
3.65607
3.65607
3.65607
3.65607
3.65606
3.65606
3.65606
3.65606
3.65607
3.65603
3.20305
3.20308
3.20305
3.20302
3.20299
3.20297
3.20295
3.20294
3.20294
3.20293
3.20292
3.20292
3.20292
3.20291
3.20291
3.20291
3.2029
3.2029
3.2029
3.20289
3.20289
3.20289
3.20289
3.20288
3.20288
3.20288
3.20287
3.20287
3.20287
3.20286
3.20286
3.20286
3.20286
3.20285
3.20285
3.20285
3.20284
3.20284
3.20284
3.20284
3.20283
3.20283
3.20283
3.20283
3.20283
3.20283
3.20283
3.20284
3.20284
3.20284
3.20284
3.20284
3.20284
3.20283
3.20283
3.20283
3.20283
3.20283
3.20282
3.20282
3.20282
3.20282
3.20282
3.20282
3.20282
3.20282
3.20282
3.20282
3.20282
3.20282
3.20282
3.20282
3.20282
3.20282
3.20282
3.20283
3.20283
3.20283
3.20283
3.20283
3.20283
3.20283
3.20283
3.20283
3.20283
3.20283
3.20283
3.20284
3.20284
3.20284
3.20284
3.20284
3.20284
3.20284
3.20284
3.20284
3.20284
3.20284
3.20284
3.20284
3.20284
3.20284
3.20284
3.20284
3.20284
3.20285
3.20285
3.20285
3.20285
3.20285
3.20285
3.20285
3.20285
3.20285
3.20284
3.20284
3.20284
3.20284
3.20285
3.20281
2.8349
2.83493
2.83491
2.83488
2.83485
2.83483
2.83481
2.8348
2.83479
2.83478
2.83477
2.83477
2.83476
2.83476
2.83476
2.83475
2.83475
2.83475
2.83475
2.83474
2.83474
2.83474
2.83473
2.83473
2.83473
2.83473
2.83472
2.83472
2.83472
2.83471
2.83471
2.83471
2.83471
2.8347
2.8347
2.8347
2.83469
2.83469
2.83469
2.83469
2.83469
2.83468
2.83468
2.83468
2.83468
2.83468
2.83468
2.83468
2.83468
2.83468
2.83468
2.83468
2.83468
2.83468
2.83468
2.83468
2.83467
2.83467
2.83467
2.83467
2.83467
2.83467
2.83466
2.83466
2.83466
2.83466
2.83466
2.83466
2.83466
2.83467
2.83467
2.83467
2.83467
2.83467
2.83467
2.83467
2.83467
2.83467
2.83468
2.83468
2.83468
2.83468
2.83468
2.83468
2.83468
2.83468
2.83468
2.83468
2.83468
2.83468
2.83468
2.83468
2.83468
2.83468
2.83468
2.83468
2.83468
2.83468
2.83468
2.83468
2.83468
2.83469
2.83469
2.83469
2.83469
2.83469
2.83469
2.83469
2.83469
2.83469
2.83469
2.83469
2.83469
2.83469
2.83469
2.83469
2.83469
2.83468
2.83469
2.83465
2.53131
2.53134
2.53132
2.5313
2.53127
2.53124
2.53123
2.53121
2.5312
2.53119
2.53119
2.53118
2.53118
2.53117
2.53117
2.53117
2.53116
2.53116
2.53116
2.53116
2.53115
2.53115
2.53115
2.53115
2.53114
2.53114
2.53114
2.53114
2.53113
2.53113
2.53113
2.53112
2.53112
2.53112
2.53112
2.53111
2.53111
2.53111
2.53111
2.5311
2.5311
2.5311
2.5311
2.5311
2.5311
2.5311
2.5311
2.5311
2.5311
2.5311
2.5311
2.5311
2.5311
2.53109
2.53109
2.53109
2.53109
2.53109
2.53108
2.53108
2.53108
2.53108
2.53108
2.53108
2.53108
2.53108
2.53108
2.53108
2.53108
2.53108
2.53108
2.53108
2.53108
2.53109
2.53109
2.53109
2.53109
2.53109
2.53109
2.53109
2.53109
2.53109
2.53109
2.53109
2.5311
2.5311
2.5311
2.5311
2.5311
2.5311
2.5311
2.5311
2.5311
2.5311
2.5311
2.5311
2.5311
2.5311
2.5311
2.5311
2.5311
2.5311
2.5311
2.5311
2.5311
2.5311
2.5311
2.5311
2.5311
2.5311
2.5311
2.5311
2.5311
2.5311
2.5311
2.5311
2.5311
2.53109
2.5311
2.53106
2.27759
2.27763
2.27761
2.27758
2.27756
2.27753
2.27751
2.2775
2.27749
2.27748
2.27747
2.27747
2.27746
2.27746
2.27746
2.27745
2.27745
2.27745
2.27744
2.27744
2.27744
2.27744
2.27743
2.27743
2.27743
2.27743
2.27743
2.27742
2.27742
2.27742
2.27742
2.27741
2.27741
2.27741
2.27741
2.2774
2.2774
2.2774
2.2774
2.27739
2.27739
2.27739
2.27739
2.27738
2.27738
2.27738
2.27738
2.27738
2.27738
2.27738
2.27738
2.27738
2.27738
2.27738
2.27738
2.27738
2.27737
2.27737
2.27737
2.27737
2.27737
2.27737
2.27737
2.27737
2.27737
2.27737
2.27737
2.27737
2.27737
2.27737
2.27737
2.27737
2.27737
2.27738
2.27738
2.27738
2.27738
2.27738
2.27738
2.27738
2.27738
2.27738
2.27738
2.27738
2.27738
2.27739
2.27739
2.27739
2.27739
2.27739
2.27739
2.27739
2.27739
2.27739
2.27739
2.27739
2.27739
2.27739
2.27739
2.27739
2.27739
2.27739
2.27739
2.27739
2.27739
2.27739
2.27739
2.27739
2.27739
2.27739
2.27739
2.27739
2.27739
2.27739
2.27738
2.27738
2.27738
2.27738
2.27739
2.27734
2.063
2.06303
2.06302
2.063
2.06297
2.06295
2.06293
2.06291
2.0629
2.06289
2.06289
2.06288
2.06288
2.06287
2.06287
2.06286
2.06286
2.06286
2.06286
2.06285
2.06285
2.06285
2.06285
2.06285
2.06284
2.06284
2.06284
2.06284
2.06283
2.06283
2.06283
2.06283
2.06283
2.06282
2.06282
2.06282
2.06282
2.06281
2.06281
2.06281
2.06281
2.0628
2.0628
2.0628
2.0628
2.0628
2.0628
2.0628
2.0628
2.0628
2.0628
2.0628
2.0628
2.06279
2.06279
2.06279
2.06279
2.06279
2.06279
2.06279
2.06279
2.06279
2.06279
2.06279
2.06279
2.06279
2.06279
2.06279
2.06279
2.06279
2.06279
2.06279
2.06279
2.06279
2.06279
2.0628
2.0628
2.0628
2.0628
2.0628
2.0628
2.0628
2.0628
2.0628
2.0628
2.0628
2.0628
2.0628
2.0628
2.0628
2.0628
2.0628
2.06281
2.06281
2.06281
2.0628
2.0628
2.0628
2.0628
2.0628
2.0628
2.0628
2.0628
2.0628
2.0628
2.0628
2.0628
2.0628
2.0628
2.0628
2.0628
2.0628
2.0628
2.0628
2.0628
2.06279
2.06279
2.06279
2.0628
2.06276
1.87953
1.87957
1.87956
1.87954
1.87951
1.87949
1.87947
1.87946
1.87945
1.87944
1.87943
1.87942
1.87942
1.87941
1.87941
1.87941
1.8794
1.8794
1.8794
1.8794
1.87939
1.87939
1.87939
1.87939
1.87939
1.87938
1.87938
1.87938
1.87938
1.87938
1.87937
1.87937
1.87937
1.87937
1.87937
1.87936
1.87936
1.87936
1.87936
1.87935
1.87935
1.87935
1.87935
1.87935
1.87935
1.87935
1.87934
1.87934
1.87934
1.87934
1.87934
1.87934
1.87934
1.87934
1.87934
1.87934
1.87934
1.87934
1.87934
1.87934
1.87934
1.87934
1.87934
1.87934
1.87934
1.87934
1.87934
1.87934
1.87934
1.87934
1.87934
1.87934
1.87934
1.87935
1.87935
1.87935
1.87935
1.87935
1.87935
1.87935
1.87935
1.87935
1.87935
1.87935
1.87935
1.87935
1.87935
1.87935
1.87936
1.87936
1.87936
1.87936
1.87936
1.87936
1.87936
1.87935
1.87935
1.87935
1.87935
1.87935
1.87935
1.87935
1.87935
1.87935
1.87935
1.87935
1.87935
1.87935
1.87935
1.87934
1.87934
1.87934
1.87934
1.87934
1.87934
1.87934
1.87934
1.87933
1.87934
1.8793
1.72115
1.72119
1.72118
1.72116
1.72114
1.72112
1.7211
1.72109
1.72108
1.72107
1.72106
1.72105
1.72105
1.72104
1.72104
1.72104
1.72103
1.72103
1.72103
1.72103
1.72102
1.72102
1.72102
1.72102
1.72102
1.72101
1.72101
1.72101
1.72101
1.72101
1.72101
1.721
1.721
1.721
1.721
1.721
1.72099
1.72099
1.72099
1.72099
1.72098
1.72098
1.72098
1.72098
1.72098
1.72098
1.72098
1.72098
1.72098
1.72097
1.72097
1.72097
1.72097
1.72097
1.72097
1.72097
1.72097
1.72097
1.72097
1.72097
1.72097
1.72097
1.72097
1.72097
1.72097
1.72098
1.72098
1.72098
1.72098
1.72098
1.72098
1.72098
1.72098
1.72098
1.72099
1.72099
1.72099
1.72099
1.72099
1.72099
1.72099
1.72099
1.72099
1.72099
1.72099
1.72099
1.72099
1.72099
1.72099
1.72099
1.72099
1.72099
1.72099
1.72099
1.72099
1.72099
1.72099
1.72099
1.72099
1.72099
1.72098
1.72098
1.72098
1.72098
1.72098
1.72098
1.72098
1.72098
1.72098
1.72098
1.72097
1.72097
1.72097
1.72097
1.72097
1.72097
1.72097
1.72096
1.72097
1.72093
1.58323
1.58326
1.58325
1.58324
1.58322
1.5832
1.58318
1.58317
1.58316
1.58315
1.58314
1.58313
1.58313
1.58312
1.58312
1.58311
1.58311
1.58311
1.58311
1.5831
1.5831
1.5831
1.5831
1.5831
1.58309
1.58309
1.58309
1.58309
1.58309
1.58309
1.58308
1.58308
1.58308
1.58308
1.58308
1.58308
1.58307
1.58307
1.58307
1.58307
1.58307
1.58306
1.58306
1.58306
1.58306
1.58306
1.58306
1.58306
1.58306
1.58306
1.58306
1.58305
1.58305
1.58305
1.58305
1.58305
1.58305
1.58305
1.58306
1.58306
1.58306
1.58306
1.58306
1.58306
1.58306
1.58306
1.58307
1.58307
1.58307
1.58307
1.58307
1.58307
1.58307
1.58307
1.58307
1.58308
1.58308
1.58308
1.58308
1.58308
1.58308
1.58308
1.58308
1.58308
1.58308
1.58308
1.58308
1.58308
1.58308
1.58308
1.58308
1.58308
1.58308
1.58308
1.58308
1.58308
1.58308
1.58308
1.58307
1.58307
1.58307
1.58307
1.58306
1.58306
1.58306
1.58306
1.58306
1.58306
1.58306
1.58306
1.58305
1.58305
1.58305
1.58305
1.58305
1.58305
1.58305
1.58305
1.58305
1.58301
1.46214
1.46218
1.46217
1.46216
1.46214
1.46212
1.4621
1.46209
1.46208
1.46207
1.46206
1.46206
1.46205
1.46205
1.46204
1.46204
1.46203
1.46203
1.46203
1.46203
1.46203
1.46202
1.46202
1.46202
1.46202
1.46202
1.46202
1.46201
1.46201
1.46201
1.46201
1.46201
1.46201
1.46201
1.462
1.462
1.462
1.462
1.462
1.462
1.46199
1.46199
1.46199
1.46199
1.46199
1.46199
1.46199
1.46199
1.46198
1.46198
1.46198
1.46198
1.46198
1.46198
1.46198
1.46198
1.46199
1.46199
1.46199
1.46199
1.46199
1.46199
1.462
1.462
1.462
1.462
1.462
1.462
1.46201
1.46201
1.46201
1.46201
1.46201
1.46201
1.46201
1.46201
1.46201
1.46202
1.46202
1.46202
1.46202
1.46202
1.46202
1.46202
1.46202
1.46202
1.46202
1.46202
1.46202
1.46202
1.46202
1.46202
1.46202
1.46202
1.46202
1.46201
1.46201
1.46201
1.46201
1.462
1.462
1.462
1.46199
1.46199
1.46199
1.46199
1.46199
1.46199
1.46199
1.46198
1.46198
1.46198
1.46198
1.46198
1.46198
1.46198
1.46197
1.46197
1.46198
1.46194
1.35507
1.35511
1.3551
1.35509
1.35507
1.35505
1.35504
1.35503
1.35502
1.35501
1.355
1.35499
1.35499
1.35498
1.35498
1.35497
1.35497
1.35497
1.35497
1.35496
1.35496
1.35496
1.35496
1.35496
1.35496
1.35495
1.35495
1.35495
1.35495
1.35495
1.35495
1.35495
1.35495
1.35494
1.35494
1.35494
1.35494
1.35494
1.35494
1.35493
1.35493
1.35493
1.35493
1.35493
1.35493
1.35493
1.35493
1.35493
1.35492
1.35492
1.35492
1.35492
1.35492
1.35493
1.35493
1.35493
1.35493
1.35493
1.35494
1.35494
1.35494
1.35494
1.35495
1.35495
1.35495
1.35495
1.35495
1.35496
1.35496
1.35496
1.35496
1.35496
1.35496
1.35496
1.35496
1.35497
1.35497
1.35497
1.35497
1.35497
1.35497
1.35497
1.35497
1.35497
1.35497
1.35497
1.35497
1.35497
1.35497
1.35497
1.35497
1.35497
1.35497
1.35497
1.35496
1.35496
1.35496
1.35495
1.35495
1.35495
1.35494
1.35494
1.35494
1.35494
1.35493
1.35493
1.35493
1.35493
1.35493
1.35492
1.35492
1.35492
1.35492
1.35492
1.35492
1.35492
1.35491
1.35491
1.35492
1.35488
1.25976
1.25979
1.25979
1.25978
1.25976
1.25975
1.25973
1.25972
1.25971
1.2597
1.25969
1.25969
1.25968
1.25968
1.25967
1.25967
1.25967
1.25966
1.25966
1.25966
1.25966
1.25966
1.25965
1.25965
1.25965
1.25965
1.25965
1.25965
1.25965
1.25965
1.25964
1.25964
1.25964
1.25964
1.25964
1.25964
1.25964
1.25964
1.25963
1.25963
1.25963
1.25963
1.25963
1.25963
1.25963
1.25963
1.25962
1.25962
1.25962
1.25962
1.25962
1.25962
1.25963
1.25963
1.25963
1.25963
1.25964
1.25964
1.25964
1.25965
1.25965
1.25965
1.25966
1.25966
1.25966
1.25966
1.25966
1.25967
1.25967
1.25967
1.25967
1.25967
1.25967
1.25967
1.25968
1.25968
1.25968
1.25968
1.25968
1.25968
1.25968
1.25968
1.25968
1.25968
1.25968
1.25968
1.25968
1.25968
1.25968
1.25968
1.25968
1.25968
1.25968
1.25967
1.25967
1.25967
1.25966
1.25966
1.25965
1.25965
1.25965
1.25964
1.25964
1.25964
1.25963
1.25963
1.25963
1.25963
1.25963
1.25962
1.25962
1.25962
1.25962
1.25962
1.25962
1.25961
1.25961
1.25961
1.25962
1.25958
1.1744
1.17443
1.17443
1.17441
1.1744
1.17438
1.17437
1.17436
1.17435
1.17434
1.17434
1.17433
1.17432
1.17432
1.17432
1.17431
1.17431
1.17431
1.1743
1.1743
1.1743
1.1743
1.1743
1.1743
1.17429
1.17429
1.17429
1.17429
1.17429
1.17429
1.17429
1.17429
1.17429
1.17428
1.17428
1.17428
1.17428
1.17428
1.17428
1.17428
1.17428
1.17428
1.17427
1.17427
1.17427
1.17427
1.17427
1.17427
1.17427
1.17427
1.17427
1.17427
1.17428
1.17428
1.17428
1.17429
1.17429
1.1743
1.1743
1.17431
1.17431
1.17431
1.17431
1.17432
1.17432
1.17432
1.17432
1.17433
1.17433
1.17433
1.17433
1.17433
1.17433
1.17433
1.17434
1.17434
1.17434
1.17434
1.17434
1.17434
1.17434
1.17434
1.17434
1.17434
1.17434
1.17434
1.17434
1.17434
1.17434
1.17434
1.17434
1.17434
1.17433
1.17433
1.17432
1.17432
1.17431
1.17431
1.17431
1.1743
1.1743
1.17429
1.17429
1.17429
1.17428
1.17428
1.17428
1.17428
1.17427
1.17427
1.17427
1.17427
1.17427
1.17426
1.17426
1.17426
1.17426
1.17426
1.17426
1.17423
1.09751
1.09754
1.09754
1.09753
1.09751
1.0975
1.09749
1.09748
1.09747
1.09746
1.09746
1.09745
1.09744
1.09744
1.09744
1.09743
1.09743
1.09743
1.09742
1.09742
1.09742
1.09742
1.09742
1.09742
1.09742
1.09741
1.09741
1.09741
1.09741
1.09741
1.09741
1.09741
1.09741
1.09741
1.09741
1.0974
1.0974
1.0974
1.0974
1.0974
1.0974
1.0974
1.0974
1.0974
1.0974
1.0974
1.09739
1.09739
1.09739
1.09739
1.0974
1.0974
1.09741
1.09741
1.09742
1.09742
1.09743
1.09743
1.09744
1.09744
1.09745
1.09745
1.09745
1.09746
1.09746
1.09746
1.09746
1.09747
1.09747
1.09747
1.09747
1.09747
1.09747
1.09747
1.09748
1.09748
1.09748
1.09748
1.09748
1.09748
1.09748
1.09748
1.09748
1.09748
1.09748
1.09748
1.09748
1.09748
1.09748
1.09748
1.09748
1.09747
1.09747
1.09746
1.09746
1.09745
1.09745
1.09744
1.09743
1.09743
1.09742
1.09742
1.09742
1.09741
1.09741
1.09741
1.0974
1.0974
1.0974
1.0974
1.0974
1.09739
1.09739
1.09739
1.09739
1.09739
1.09739
1.09738
1.09739
1.09736
1.0279
1.02793
1.02793
1.02792
1.02791
1.02789
1.02788
1.02787
1.02787
1.02786
1.02785
1.02785
1.02784
1.02784
1.02783
1.02783
1.02783
1.02782
1.02782
1.02782
1.02782
1.02782
1.02781
1.02781
1.02781
1.02781
1.02781
1.02781
1.02781
1.02781
1.02781
1.02781
1.02781
1.0278
1.0278
1.0278
1.0278
1.0278
1.0278
1.0278
1.0278
1.0278
1.0278
1.0278
1.0278
1.0278
1.02779
1.02779
1.0278
1.0278
1.0278
1.02781
1.02782
1.02782
1.02783
1.02784
1.02784
1.02785
1.02785
1.02786
1.02786
1.02787
1.02787
1.02787
1.02788
1.02788
1.02788
1.02788
1.02789
1.02789
1.02789
1.02789
1.02789
1.02789
1.02789
1.02789
1.0279
1.0279
1.0279
1.0279
1.0279
1.0279
1.0279
1.0279
1.0279
1.0279
1.0279
1.0279
1.0279
1.0279
1.02789
1.02789
1.02788
1.02787
1.02786
1.02786
1.02785
1.02784
1.02784
1.02783
1.02783
1.02782
1.02782
1.02782
1.02781
1.02781
1.02781
1.0278
1.0278
1.0278
1.0278
1.0278
1.02779
1.02779
1.02779
1.02779
1.02779
1.02779
1.02779
1.02776
0.96458
0.964604
0.964602
0.964593
0.964582
0.964571
0.964561
0.964552
0.964545
0.964538
0.964532
0.964526
0.964522
0.964517
0.964514
0.964511
0.964508
0.964505
0.964503
0.964501
0.964499
0.964498
0.964496
0.964495
0.964494
0.964493
0.964493
0.964492
0.964491
0.96449
0.96449
0.964489
0.964489
0.964488
0.964487
0.964487
0.964486
0.964485
0.964485
0.964484
0.964483
0.964482
0.964482
0.964481
0.96448
0.96448
0.96448
0.96448
0.964481
0.964485
0.964493
0.964504
0.964514
0.964524
0.964533
0.96454
0.964547
0.964553
0.964558
0.964563
0.964567
0.964571
0.964574
0.964577
0.96458
0.964583
0.964585
0.964587
0.964589
0.964591
0.964593
0.964594
0.964596
0.964597
0.964598
0.964599
0.9646
0.9646
0.964601
0.964602
0.964602
0.964603
0.964603
0.964603
0.964604
0.964604
0.964604
0.964604
0.964601
0.964596
0.96459
0.964581
0.964573
0.964564
0.964555
0.964547
0.96454
0.964533
0.964527
0.964521
0.964516
0.964511
0.964507
0.964503
0.964499
0.964496
0.964494
0.964491
0.964489
0.964487
0.964485
0.964483
0.964481
0.964479
0.964478
0.964476
0.964475
0.964472
0.964476
0.964452
0.906717
0.906739
0.906737
0.906729
0.906719
0.906709
0.9067
0.906692
0.906685
0.906679
0.906673
0.906668
0.906663
0.906659
0.906656
0.906653
0.90665
0.906648
0.906646
0.906644
0.906642
0.906641
0.906639
0.906638
0.906637
0.906637
0.906636
0.906635
0.906635
0.906634
0.906634
0.906633
0.906633
0.906632
0.906632
0.906631
0.906631
0.90663
0.906629
0.906629
0.906628
0.906628
0.906627
0.906627
0.906626
0.906626
0.906626
0.906627
0.906629
0.906637
0.906651
0.906665
0.906679
0.90669
0.906699
0.906707
0.906714
0.90672
0.906725
0.90673
0.906734
0.906738
0.906742
0.906745
0.906748
0.90675
0.906753
0.906755
0.906757
0.906759
0.90676
0.906762
0.906763
0.906764
0.906765
0.906766
0.906767
0.906768
0.906769
0.906769
0.90677
0.90677
0.906771
0.906771
0.906771
0.906771
0.906772
0.906771
0.906766
0.906758
0.906748
0.906737
0.906726
0.906716
0.906706
0.906698
0.90669
0.906682
0.906676
0.90667
0.906665
0.90666
0.906655
0.906651
0.906648
0.906645
0.906642
0.90664
0.906638
0.906636
0.906634
0.906632
0.90663
0.906628
0.906626
0.906624
0.906623
0.90662
0.906624
0.906602
0.853627
0.853647
0.853645
0.853637
0.853628
0.853619
0.853611
0.853604
0.853597
0.853591
0.853586
0.853581
0.853577
0.853574
0.85357
0.853567
0.853565
0.853563
0.853561
0.853559
0.853557
0.853556
0.853555
0.853554
0.853553
0.853552
0.853552
0.853551
0.853551
0.85355
0.85355
0.853549
0.853549
0.853549
0.853548
0.853548
0.853548
0.853547
0.853547
0.853546
0.853546
0.853545
0.853545
0.853545
0.853544
0.853545
0.853544
0.853547
0.853552
0.853566
0.853587
0.853605
0.85362
0.853632
0.853642
0.85365
0.853656
0.853662
0.853668
0.853672
0.853676
0.85368
0.853684
0.853687
0.85369
0.853692
0.853694
0.853697
0.853699
0.8537
0.853702
0.853703
0.853705
0.853706
0.853707
0.853708
0.853709
0.85371
0.853711
0.853711
0.853712
0.853712
0.853713
0.853713
0.853713
0.853713
0.853715
0.853711
0.853703
0.853691
0.853677
0.853663
0.85365
0.853638
0.853628
0.853618
0.85361
0.853603
0.853596
0.85359
0.853585
0.85358
0.853576
0.853572
0.853568
0.853566
0.853564
0.853562
0.853559
0.853557
0.853555
0.853553
0.85355
0.853548
0.853546
0.853545
0.853543
0.853541
0.853544
0.853524
0.80473
0.804747
0.804745
0.804738
0.80473
0.804722
0.804714
0.804708
0.804702
0.804696
0.804692
0.804687
0.804683
0.80468
0.804677
0.804674
0.804672
0.80467
0.804668
0.804666
0.804665
0.804664
0.804663
0.804662
0.804661
0.80466
0.80466
0.804659
0.804659
0.804659
0.804659
0.804658
0.804658
0.804658
0.804658
0.804657
0.804657
0.804657
0.804657
0.804656
0.804656
0.804656
0.804656
0.804656
0.804655
0.804656
0.804655
0.804662
0.804669
0.804695
0.804724
0.804745
0.80476
0.804772
0.804781
0.804788
0.804795
0.8048
0.804805
0.80481
0.804814
0.804817
0.804821
0.804824
0.804826
0.804829
0.804831
0.804833
0.804835
0.804837
0.804839
0.80484
0.804841
0.804843
0.804844
0.804845
0.804846
0.804846
0.804847
0.804848
0.804848
0.804849
0.804849
0.80485
0.80485
0.80485
0.804853
0.804843
0.80483
0.804814
0.804796
0.804779
0.804764
0.804751
0.80474
0.80473
0.804722
0.804715
0.804708
0.804703
0.804697
0.804692
0.804688
0.804684
0.804681
0.804679
0.804678
0.804676
0.804673
0.804671
0.804668
0.804666
0.804664
0.804662
0.80466
0.804658
0.804656
0.804654
0.804656
0.804639
0.759535
0.759549
0.759548
0.759541
0.759533
0.759526
0.759519
0.759513
0.759508
0.759503
0.759499
0.759495
0.759491
0.759488
0.759485
0.759483
0.759481
0.759479
0.759477
0.759476
0.759475
0.759473
0.759473
0.759472
0.759471
0.759471
0.75947
0.75947
0.75947
0.759469
0.759469
0.759469
0.759469
0.759469
0.759469
0.759469
0.759469
0.759469
0.759469
0.759468
0.759468
0.759468
0.759468
0.759468
0.759468
0.75947
0.759468
0.759483
0.759493
0.759539