/*--------------------------------*- C++ -*----------------------------------*\
  =========                 |
  \\      /  F ield         | OpenFOAM: The Open Source CFD Toolbox
   \\    /   O peration     | Website:  https://openfoam.org
    \\  /    A nd           | Version:  7
     \\/     M anipulation  |
\*---------------------------------------------------------------------------*/
FoamFile
{
    version     2.0;
    format      ascii;
    class       surfaceScalarField;
    location    "3000";
    object      phi;
}
// * * * * * * * * * * * * * * * * * * * * * * * * * * * * * * * * * * * * * //

dimensions      [0 3 -1 0 0 0 0];

internalField   nonuniform List<scalar> 
47680
(
2.1749e-06
-1.13944e-11
2.1749e-06
4.60488e-12
2.17489e-06
9.0064e-12
2.17488e-06
1.06221e-11
2.17487e-06
1.19184e-11
2.17485e-06
1.17195e-11
2.17484e-06
1.06774e-11
2.17483e-06
9.16533e-12
2.17483e-06
7.48742e-12
2.17482e-06
5.87257e-12
2.17482e-06
4.43191e-12
2.17481e-06
3.17429e-12
2.17481e-06
2.05966e-12
2.17481e-06
1.05571e-12
2.17481e-06
1.58492e-13
2.17481e-06
-6.20996e-13
2.17481e-06
-1.27559e-12
2.17481e-06
-1.80934e-12
2.17482e-06
-2.23241e-12
2.17482e-06
-2.55814e-12
2.17482e-06
-2.80523e-12
2.17482e-06
-2.9996e-12
2.17483e-06
-3.16958e-12
2.17483e-06
-3.33714e-12
2.17483e-06
-3.51254e-12
2.17484e-06
-3.6941e-12
2.17484e-06
-3.87254e-12
2.17485e-06
-4.03553e-12
2.17485e-06
-4.17215e-12
2.17485e-06
-4.27785e-12
2.17486e-06
-4.35165e-12
2.17486e-06
-4.40526e-12
2.17487e-06
-4.44365e-12
2.17487e-06
-4.49038e-12
2.17488e-06
-4.52896e-12
2.17488e-06
-4.59442e-12
2.17489e-06
-4.60384e-12
2.17489e-06
-4.65439e-12
2.17489e-06
-4.49562e-12
2.1749e-06
-4.4473e-12
2.1749e-06
-3.8209e-12
2.17491e-06
-3.53245e-12
2.17491e-06
-2.00057e-12
2.17491e-06
-1.10274e-12
2.17491e-06
9.84872e-13
2.17491e-06
2.94903e-12
2.1749e-06
1.50889e-12
2.1749e-06
1.23732e-12
2.1749e-06
5.0037e-13
2.1749e-06
-4.79952e-13
2.1749e-06
-1.06066e-12
2.1749e-06
-1.40416e-12
2.17491e-06
-1.64934e-12
2.17491e-06
-1.81063e-12
2.17491e-06
-1.89985e-12
2.17491e-06
-1.91427e-12
2.17491e-06
-1.84468e-12
2.17492e-06
-1.68364e-12
2.17492e-06
-1.43015e-12
2.17492e-06
-1.0917e-12
2.17492e-06
-6.85332e-13
2.17492e-06
-2.33959e-13
2.17492e-06
2.36195e-13
2.17492e-06
6.99475e-13
2.17492e-06
1.13318e-12
2.17492e-06
1.51894e-12
2.17491e-06
1.84373e-12
2.17491e-06
2.09952e-12
2.17491e-06
2.28364e-12
2.17491e-06
2.39747e-12
2.1749e-06
2.44611e-12
2.1749e-06
2.43679e-12
2.1749e-06
2.37848e-12
2.1749e-06
2.28117e-12
2.1749e-06
2.15442e-12
2.17489e-06
2.00707e-12
2.17489e-06
1.84664e-12
2.17489e-06
1.67822e-12
2.17489e-06
1.50676e-12
2.17489e-06
1.33143e-12
2.17489e-06
1.15705e-12
2.17488e-06
9.76145e-13
2.17488e-06
8.00602e-13
2.17488e-06
6.07582e-13
2.17488e-06
4.32388e-13
2.17488e-06
2.137e-13
2.17488e-06
1.26761e-14
2.17488e-06
-1.64798e-13
2.17488e-06
-2.77151e-13
2.17488e-06
-2.96478e-13
2.17488e-06
-3.29436e-13
2.17488e-06
-3.41604e-13
2.17488e-06
-4.21927e-13
2.17488e-06
-5.17637e-13
2.17489e-06
-6.51346e-13
2.17489e-06
-7.48276e-13
2.17489e-06
-9.1914e-13
2.17489e-06
-9.34159e-13
2.17489e-06
-1.12742e-12
2.17489e-06
-8.20668e-13
2.17489e-06
-9.26198e-13
2.17489e-06
1.54122e-13
2.17489e-06
5.28752e-13
2.17489e-06
2.13062e-12
2.17488e-06
3.47251e-12
2.17488e-06
1.6427e-12
2.17488e-06
1.20709e-12
2.17488e-06
3.67425e-13
2.17488e-06
-4.87886e-13
2.17488e-06
-1.15504e-12
2.17488e-06
-1.75178e-12
2.17489e-06
-2.14767e-12
2.17489e-06
-2.42415e-12
2.17489e-06
-2.35614e-12
2.17489e-06
-2.22642e-12
2.1749e-06
-1.34457e-12
2.1749e-06
-2.43716e-13
2.17489e-06
8.90226e-13
2.17489e-06
8.86248e-12
-3.82839e-12
6.72006e-06
-3.24185e-11
6.72005e-06
1.47152e-11
6.72003e-06
3.55473e-11
6.71999e-06
4.28764e-11
6.71996e-06
4.74216e-11
6.71992e-06
4.66017e-11
6.71989e-06
4.24126e-11
6.71986e-06
3.64095e-11
6.71984e-06
2.97627e-11
6.71982e-06
2.33265e-11
6.71981e-06
1.75369e-11
6.7198e-06
1.24706e-11
6.7198e-06
8.0124e-12
6.71979e-06
4.04615e-12
6.71979e-06
5.32279e-13
6.71979e-06
-2.51642e-12
6.7198e-06
-5.09068e-12
6.7198e-06
-7.21343e-12
6.71981e-06
-8.92535e-12
6.71982e-06
-1.02772e-11
6.71983e-06
-1.13314e-11
6.71984e-06
-1.21733e-11
6.71985e-06
-1.28969e-11
6.71986e-06
-1.35789e-11
6.71987e-06
-1.42609e-11
6.71988e-06
-1.49474e-11
6.71989e-06
-1.56155e-11
6.7199e-06
-1.6231e-11
6.71991e-06
-1.67599e-11
6.71993e-06
-1.71841e-11
6.71994e-06
-1.74999e-11
6.71995e-06
-1.77358e-11
6.71997e-06
-1.79156e-11
6.71998e-06
-1.80968e-11
6.71999e-06
-1.82574e-11
6.72001e-06
-1.84621e-11
6.72002e-06
-1.85283e-11
6.72004e-06
-1.86265e-11
6.72005e-06
-1.81608e-11
6.72006e-06
-1.78026e-11
6.72008e-06
-1.57979e-11
6.72009e-06
-1.43899e-11
6.72009e-06
-9.23655e-12
6.7201e-06
-5.52935e-12
6.7201e-06
2.05326e-12
6.72009e-06
9.07416e-12
6.72009e-06
5.39428e-12
6.72008e-06
4.10282e-12
6.72008e-06
1.60369e-12
6.72008e-06
-1.84031e-12
6.72009e-06
-4.09696e-12
6.72009e-06
-5.46578e-12
6.7201e-06
-6.41973e-12
6.7201e-06
-7.04429e-12
6.72011e-06
-7.3709e-12
6.72011e-06
-7.38622e-12
6.72012e-06
-7.05312e-12
6.72012e-06
-6.34629e-12
6.72013e-06
-5.26914e-12
6.72013e-06
-3.86157e-12
6.72013e-06
-2.19707e-12
6.72013e-06
-3.73377e-13
6.72013e-06
1.50496e-12
6.72013e-06
3.33767e-12
6.72012e-06
5.03832e-12
6.72012e-06
6.53846e-12
6.72011e-06
7.79219e-12
6.7201e-06
8.77233e-12
6.7201e-06
9.47151e-12
6.72009e-06
9.89767e-12
6.72008e-06
1.00712e-11
6.72007e-06
1.00198e-11
6.72007e-06
9.77789e-12
6.72006e-06
9.38274e-12
6.72005e-06
8.87058e-12
6.72005e-06
8.27392e-12
6.72004e-06
7.62363e-12
6.72004e-06
6.94009e-12
6.72003e-06
6.24143e-12
6.72003e-06
5.53259e-12
6.72002e-06
4.82579e-12
6.72002e-06
4.10704e-12
6.72002e-06
3.40164e-12
6.72002e-06
2.65439e-12
6.72001e-06
1.95531e-12
6.72001e-06
1.12907e-12
6.72001e-06
3.48113e-13
6.72001e-06
-3.47559e-13
6.72001e-06
-8.08911e-13
6.72001e-06
-9.51003e-13
6.72002e-06
-1.08838e-12
6.72002e-06
-1.17451e-12
6.72002e-06
-1.46625e-12
6.72002e-06
-1.85705e-12
6.72002e-06
-2.36293e-12
6.72002e-06
-2.82536e-12
6.72002e-06
-3.45971e-12
6.72003e-06
-3.73901e-12
6.72003e-06
-4.38336e-12
6.72003e-06
-3.67293e-12
6.72004e-06
-3.82992e-12
6.72004e-06
-4.73996e-13
6.72004e-06
1.20172e-12
6.72003e-06
6.81548e-12
6.72002e-06
1.14709e-11
6.72002e-06
6.16304e-12
6.72002e-06
4.05236e-12
6.72002e-06
1.08119e-12
6.72002e-06
-2.07241e-12
6.72002e-06
-4.63468e-12
6.72003e-06
-6.87536e-12
6.72003e-06
-8.43163e-12
6.72004e-06
-9.48866e-12
6.72005e-06
-9.32317e-12
6.72005e-06
-8.91506e-12
6.72006e-06
-5.53279e-12
6.72006e-06
-2.25152e-12
6.72006e-06
3.97422e-12
6.72004e-06
2.8182e-11
-8.19812e-12
1.15719e-05
-5.19189e-11
1.15719e-05
3.11203e-11
1.15718e-05
7.93382e-11
1.15718e-05
9.75445e-11
1.15717e-05
1.06742e-10
1.15717e-05
1.04653e-10
1.15716e-05
9.51289e-11
1.15716e-05
8.16323e-11
1.15715e-05
6.67219e-11
1.15715e-05
5.22256e-11
1.15715e-05
3.91148e-11
1.15714e-05
2.76259e-11
1.15714e-05
1.7577e-11
1.15714e-05
8.72534e-12
1.15714e-05
9.42528e-13
1.15714e-05
-5.79865e-12
1.15714e-05
-1.15164e-11
1.15715e-05
-1.62791e-11
1.15715e-05
-2.01822e-11
1.15715e-05
-2.33267e-11
1.15715e-05
-2.58324e-11
1.15715e-05
-2.78537e-11
1.15715e-05
-2.95655e-11
1.15715e-05
-3.11215e-11
1.15716e-05
-3.26185e-11
1.15716e-05
-3.40884e-11
1.15716e-05
-3.55087e-11
1.15716e-05
-3.68291e-11
1.15716e-05
-3.79916e-11
1.15717e-05
-3.89564e-11
1.15717e-05
-3.97097e-11
1.15717e-05
-4.02887e-11
1.15717e-05
-4.07377e-11
1.15718e-05
-4.11447e-11
1.15718e-05
-4.14986e-11
1.15718e-05
-4.18795e-11
1.15718e-05
-4.20268e-11
1.15718e-05
-4.21296e-11
1.15719e-05
-4.12589e-11
1.15719e-05
-4.03267e-11
1.15719e-05
-3.64491e-11
1.15719e-05
-3.31279e-11
1.15719e-05
-2.28769e-11
1.1572e-05
-1.45847e-11
1.1572e-05
1.23069e-12
1.15719e-05
1.59153e-11
1.15719e-05
1.04986e-11
1.15719e-05
7.76232e-12
1.15719e-05
2.80729e-12
1.15719e-05
-4.1301e-12
1.15719e-05
-9.01806e-12
1.1572e-05
-1.20727e-11
1.1572e-05
-1.4178e-11
1.1572e-05
-1.55438e-11
1.1572e-05
-1.62213e-11
1.1572e-05
-1.61699e-11
1.1572e-05
-1.53057e-11
1.1572e-05
-1.35817e-11
1.1572e-05
-1.10206e-11
1.1572e-05
-7.72979e-12
1.1572e-05
-3.89046e-12
1.1572e-05
2.67101e-13
1.1572e-05
4.50575e-12
1.1572e-05
8.60374e-12
1.1572e-05
1.23743e-11
1.1572e-05
1.5676e-11
1.1572e-05
1.84139e-11
1.1572e-05
2.05391e-11
1.1572e-05
2.20419e-11
1.15719e-05
2.29437e-11
1.15719e-05
2.32902e-11
1.15719e-05
2.31438e-11
1.15719e-05
2.25783e-11
1.15719e-05
2.16715e-11
1.15719e-05
2.05018e-11
1.15719e-05
1.91397e-11
1.15719e-05
1.76515e-11
1.15718e-05
1.60865e-11
1.15718e-05
1.44843e-11
1.15718e-05
1.28653e-11
1.15718e-05
1.12531e-11
1.15718e-05
9.63082e-12
1.15718e-05
8.03959e-12
1.15718e-05
6.38937e-12
1.15718e-05
4.82455e-12
1.15718e-05
3.03655e-12
1.15718e-05
1.32166e-12
1.15718e-05
-2.19747e-13
1.15718e-05
-1.27946e-12
1.15718e-05
-1.69813e-12
1.15718e-05
-2.03752e-12
1.15718e-05
-2.28541e-12
1.15718e-05
-2.91519e-12
1.15718e-05
-3.79885e-12
1.15718e-05
-4.92034e-12
1.15718e-05
-6.05719e-12
1.15718e-05
-7.48146e-12
1.15718e-05
-8.39357e-12
1.15718e-05
-9.79639e-12
1.15718e-05
-8.8728e-12
1.15718e-05
-9.07486e-12
1.15718e-05
-2.85681e-12
1.15718e-05
9.33014e-13
1.15718e-05
1.22925e-11
1.15718e-05
2.1811e-11
1.15718e-05
1.26204e-11
1.15718e-05
7.77425e-12
1.15718e-05
1.60489e-12
1.15718e-05
-5.00238e-12
1.15718e-05
-1.05455e-11
1.15718e-05
-1.53473e-11
1.15718e-05
-1.877e-11
1.15719e-05
-2.1069e-11
1.15719e-05
-2.08723e-11
1.15719e-05
-2.00545e-11
1.15719e-05
-1.29685e-11
1.15719e-05
-6.67697e-12
1.15719e-05
8.40545e-12
1.15719e-05
5.30816e-11
-7.82155e-12
1.67214e-05
-6.00429e-11
1.67214e-05
5.83307e-11
1.67213e-05
1.40525e-10
1.67212e-05
1.74721e-10
1.67211e-05
1.89432e-10
1.67211e-05
1.85039e-10
1.6721e-05
1.67913e-10
1.67209e-05
1.44001e-10
1.67209e-05
1.17657e-10
1.67208e-05
9.1942e-11
1.67208e-05
6.8563e-11
1.67208e-05
4.80589e-11
1.67208e-05
3.02379e-11
1.67208e-05
1.46996e-11
1.67208e-05
1.14327e-12
1.67208e-05
-1.05796e-11
1.67208e-05
-2.05707e-11
1.67208e-05
-2.89819e-11
1.67208e-05
-3.59884e-11
1.67208e-05
-4.17518e-11
1.67208e-05
-4.64376e-11
1.67209e-05
-5.02514e-11
1.67209e-05
-5.34363e-11
1.67209e-05
-5.623e-11
1.67209e-05
-5.88121e-11
1.6721e-05
-6.12794e-11
1.6721e-05
-6.36466e-11
1.6721e-05
-6.58736e-11
1.67211e-05
-6.789e-11
1.67211e-05
-6.96285e-11
1.67211e-05
-7.10493e-11
1.67211e-05
-7.21746e-11
1.67212e-05
-7.30508e-11
1.67212e-05
-7.37856e-11
1.67212e-05
-7.43826e-11
1.67213e-05
-7.49421e-11
1.67213e-05
-7.51424e-11
1.67213e-05
-7.5185e-11
1.67214e-05
-7.38058e-11
1.67214e-05
-7.2107e-11
1.67214e-05
-6.60092e-11
1.67215e-05
-6.01835e-11
1.67215e-05
-4.38019e-11
1.67215e-05
-2.94818e-11
1.67215e-05
-3.3383e-12
1.67215e-05
2.12063e-11
1.67215e-05
1.52581e-11
1.67215e-05
1.12588e-11
1.67215e-05
3.50737e-12
1.67215e-05
-7.50293e-12
1.67215e-05
-1.57322e-11
1.67215e-05
-2.10505e-11
1.67215e-05
-2.47079e-11
1.67215e-05
-2.70554e-11
1.67215e-05
-2.81512e-11
1.67216e-05
-2.78992e-11
1.67216e-05
-2.61521e-11
1.67216e-05
-2.28436e-11
1.67216e-05
-1.80434e-11
1.67216e-05
-1.19762e-11
1.67216e-05
-4.99233e-12
1.67216e-05
2.48246e-12
1.67216e-05
1.00202e-11
1.67216e-05
1.72371e-11
1.67216e-05
2.38166e-11
1.67215e-05
2.95286e-11
1.67215e-05
3.42261e-11
1.67215e-05
3.78423e-11
1.67215e-05
4.03723e-11
1.67215e-05
4.1862e-11
1.67215e-05
4.23941e-11
1.67214e-05
4.20762e-11
1.67214e-05
4.1031e-11
1.67214e-05
3.93895e-11
1.67214e-05
3.72817e-11
1.67214e-05
3.48294e-11
1.67214e-05
3.21444e-11
1.67213e-05
2.93175e-11
1.67213e-05
2.64218e-11
1.67213e-05
2.35028e-11
1.67213e-05
2.06047e-11
1.67213e-05
1.77133e-11
1.67213e-05
1.48867e-11
1.67213e-05
1.20016e-11
1.67213e-05
9.25302e-12
1.67213e-05
6.1872e-12
1.67213e-05
3.22485e-12
1.67213e-05
5.37902e-13
1.67213e-05
-1.37221e-12
1.67213e-05
-2.25031e-12
1.67213e-05
-2.92104e-12
1.67213e-05
-3.44283e-12
1.67213e-05
-4.54775e-12
1.67213e-05
-6.11822e-12
1.67213e-05
-8.11711e-12
1.67213e-05
-1.02616e-11
1.67213e-05
-1.28654e-11
1.67213e-05
-1.48479e-11
1.67213e-05
-1.74395e-11
1.67213e-05
-1.66606e-11
1.67213e-05
-1.70985e-11
1.67213e-05
-7.84164e-12
1.67213e-05
-1.4143e-12
1.67213e-05
1.68197e-11
1.67213e-05
3.24018e-11
1.67213e-05
1.96137e-11
1.67213e-05
1.1483e-11
1.67213e-05
1.28894e-12
1.67213e-05
-9.60823e-12
1.67213e-05
-1.89963e-11
1.67213e-05
-2.71097e-11
1.67214e-05
-3.29946e-11
1.67214e-05
-3.69298e-11
1.67214e-05
-3.68307e-11
1.67214e-05
-3.54538e-11
1.67214e-05
-2.39602e-11
1.67214e-05
-1.37694e-11
1.67214e-05
1.29322e-11
1.67214e-05
8.00318e-11
5.46086e-13
2.20928e-05
-4.83046e-11
2.20927e-05
1.01672e-10
2.20926e-05
2.18803e-10
2.20926e-05
2.72019e-10
2.20924e-05
2.9245e-10
2.20924e-05
2.84556e-10
2.20923e-05
2.57819e-10
2.20922e-05
2.21056e-10
2.20921e-05
1.80653e-10
2.20921e-05
1.41043e-10
2.2092e-05
1.04817e-10
2.2092e-05
7.29821e-11
2.2092e-05
4.54481e-11
2.2092e-05
2.16607e-11
2.2092e-05
1.06477e-12
2.2092e-05
-1.6713e-11
2.2092e-05
-3.19349e-11
2.2092e-05
-4.48838e-11
2.2092e-05
-5.58398e-11
2.20921e-05
-6.5031e-11
2.20921e-05
-7.26503e-11
2.20921e-05
-7.89127e-11
2.20921e-05
-8.40938e-11
2.20922e-05
-8.85017e-11
2.20922e-05
-9.24199e-11
2.20923e-05
-9.60532e-11
2.20923e-05
-9.95054e-11
2.20923e-05
-1.02789e-10
2.20924e-05
-1.05842e-10
2.20924e-05
-1.08576e-10
2.20924e-05
-1.10906e-10
2.20925e-05
-1.12809e-10
2.20925e-05
-1.14302e-10
2.20926e-05
-1.15488e-10
2.20926e-05
-1.16379e-10
2.20926e-05
-1.17109e-10
2.20927e-05
-1.17311e-10
2.20927e-05
-1.17219e-10
2.20928e-05
-1.15237e-10
2.20928e-05
-1.12641e-10
2.20929e-05
-1.04122e-10
2.20929e-05
-9.54114e-11
2.20929e-05
-7.22911e-11
2.20929e-05
-5.09162e-11
2.20929e-05
-1.29957e-11
2.20929e-05
2.30889e-11
2.20929e-05
1.81506e-11
2.20929e-05
1.36e-11
2.20929e-05
3.14465e-12
2.20929e-05
-1.20793e-11
2.2093e-05
-2.40396e-11
2.2093e-05
-3.2039e-11
2.2093e-05
-3.75648e-11
2.2093e-05
-4.10726e-11
2.2093e-05
-4.25963e-11
2.2093e-05
-4.19513e-11
2.2093e-05
-3.89129e-11
2.2093e-05
-3.34053e-11
2.20931e-05
-2.55854e-11
2.20931e-05
-1.58536e-11
2.20931e-05
-4.79434e-12
2.2093e-05
6.90891e-12
2.2093e-05
1.85871e-11
2.2093e-05
2.96564e-11
2.2093e-05
3.9653e-11
2.2093e-05
4.82542e-11
2.2093e-05
5.52672e-11
2.2093e-05
6.06155e-11
2.20929e-05
6.43136e-11
2.20929e-05
6.64435e-11
2.20929e-05
6.71361e-11
2.20929e-05
6.65533e-11
2.20928e-05
6.48742e-11
2.20928e-05
6.22884e-11
2.20928e-05
5.89848e-11
2.20928e-05
5.51435e-11
2.20927e-05
5.09295e-11
2.20927e-05
4.64865e-11
2.20927e-05
4.19327e-11
2.20927e-05
3.73483e-11
2.20927e-05
3.28087e-11
2.20927e-05
2.83103e-11
2.20927e-05
2.39316e-11
2.20927e-05
1.95169e-11
2.20927e-05
1.53089e-11
2.20926e-05
1.07019e-11
2.20926e-05
6.23251e-12
2.20926e-05
2.14835e-12
2.20926e-05
-8.41578e-13
2.20926e-05
-2.37037e-12
2.20926e-05
-3.51932e-12
2.20926e-05
-4.44293e-12
2.20926e-05
-6.16688e-12
2.20926e-05
-8.6178e-12
2.20927e-05
-1.17645e-11
2.20927e-05
-1.52664e-11
2.20927e-05
-1.9481e-11
2.20927e-05
-2.30241e-11
2.20927e-05
-2.7317e-11
2.20927e-05
-2.71695e-11
2.20927e-05
-2.81899e-11
2.20927e-05
-1.6051e-11
2.20927e-05
-6.76043e-12
2.20927e-05
1.89552e-11
2.20927e-05
4.14193e-11
2.20927e-05
2.57392e-11
2.20927e-05
1.43047e-11
2.20927e-05
-3.568e-13
2.20927e-05
-1.60264e-11
2.20927e-05
-2.98321e-11
2.20927e-05
-4.17884e-11
2.20927e-05
-5.05824e-11
2.20928e-05
-5.64605e-11
2.20928e-05
-5.66186e-11
2.20928e-05
-5.45697e-11
2.20928e-05
-3.83542e-11
2.20928e-05
-2.35646e-11
2.20928e-05
1.67493e-11
2.20928e-05
1.06043e-10
1.86433e-11
2.75083e-05
-1.12104e-11
2.75082e-05
1.63564e-10
2.75081e-05
3.10896e-10
2.7508e-05
3.82896e-10
2.75079e-05
4.08598e-10
2.75078e-05
3.96413e-10
2.75077e-05
3.59e-10
2.75076e-05
3.08116e-10
2.75075e-05
2.52232e-10
2.75075e-05
1.97166e-10
2.75074e-05
1.46455e-10
2.75074e-05
1.01702e-10
2.75074e-05
6.30506e-11
2.75074e-05
2.98517e-11
2.75074e-05
1.26924e-12
2.75074e-05
-2.33687e-11
2.75074e-05
-4.45574e-11
2.75074e-05
-6.27472e-11
2.75074e-05
-7.83417e-11
2.75074e-05
-9.16402e-11
2.75075e-05
-1.0285e-10
2.75075e-05
-1.12163e-10
2.75075e-05
-1.19848e-10
2.75076e-05
-1.26259e-10
2.75076e-05
-1.31787e-10
2.75077e-05
-1.36774e-10
2.75077e-05
-1.41452e-10
2.75077e-05
-1.45925e-10
2.75078e-05
-1.50173e-10
2.75078e-05
-1.54091e-10
2.75079e-05
-1.57545e-10
2.75079e-05
-1.60445e-10
2.7508e-05
-1.62747e-10
2.7508e-05
-1.64533e-10
2.75081e-05
-1.65806e-10
2.75081e-05
-1.66739e-10
2.75082e-05
-1.66932e-10
2.75082e-05
-1.66676e-10
2.75083e-05
-1.64055e-10
2.75083e-05
-1.60511e-10
2.75084e-05
-1.49519e-10
2.75084e-05
-1.37757e-10
2.75084e-05
-1.07685e-10
2.75085e-05
-7.86967e-11
2.75085e-05
-2.82109e-11
2.75085e-05
2.05238e-11
2.75085e-05
1.81553e-11
2.75085e-05
1.40899e-11
2.75085e-05
1.43576e-12
2.75085e-05
-1.7748e-11
2.75085e-05
-3.34935e-11
2.75085e-05
-4.43762e-11
2.75085e-05
-5.19553e-11
2.75085e-05
-5.67149e-11
2.75086e-05
-5.86166e-11
2.75086e-05
-5.73593e-11
2.75086e-05
-5.26371e-11
2.75086e-05
-4.43884e-11
2.75086e-05
-3.29004e-11
2.75086e-05
-1.87998e-11
2.75086e-05
-2.95971e-12
2.75086e-05
1.36368e-11
2.75086e-05
3.00439e-11
2.75086e-05
4.54581e-11
2.75086e-05
5.9263e-11
2.75085e-05
7.10454e-11
2.75085e-05
8.05762e-11
2.75085e-05
8.7783e-11
2.75085e-05
9.27107e-11
2.75084e-05
9.54882e-11
2.75084e-05
9.63031e-11
2.75084e-05
9.5376e-11
2.75083e-05
9.29477e-11
2.75083e-05
8.92683e-11
2.75083e-05
8.45869e-11
2.75083e-05
7.91443e-11
2.75082e-05
7.31658e-11
2.75082e-05
6.68502e-11
2.75082e-05
6.03707e-11
2.75082e-05
5.38495e-11
2.75082e-05
4.74008e-11
2.75082e-05
4.10394e-11
2.75081e-05
3.48671e-11
2.75081e-05
2.87001e-11
2.75081e-05
2.28243e-11
2.75081e-05
1.64835e-11
2.75081e-05
1.03184e-11
2.75081e-05
4.64859e-12
2.75081e-05
3.94009e-13
2.75081e-05
-1.9581e-12
2.75081e-05
-3.7293e-12
2.75081e-05
-5.18269e-12
2.75081e-05
-7.66367e-12
2.75081e-05
-1.11742e-11
2.75081e-05
-1.57251e-11
2.75081e-05
-2.09241e-11
2.75081e-05
-2.71747e-11
2.75082e-05
-3.27671e-11
2.75082e-05
-3.92783e-11
2.75082e-05
-4.02921e-11
2.75082e-05
-4.23125e-11
2.75082e-05
-2.76617e-11
2.75082e-05
-1.55262e-11
2.75082e-05
1.78615e-11
2.75082e-05
4.77153e-11
2.75082e-05
3.0081e-11
2.75082e-05
1.57885e-11
2.75082e-05
-3.30763e-12
2.75082e-05
-2.38385e-11
2.75082e-05
-4.22991e-11
2.75082e-05
-5.83796e-11
2.75083e-05
-7.03636e-11
2.75083e-05
-7.84113e-11
2.75083e-05
-7.90127e-11
2.75083e-05
-7.62965e-11
2.75083e-05
-5.53743e-11
2.75084e-05
-3.56843e-11
2.75084e-05
1.94748e-11
2.75083e-05
1.28932e-10
4.75181e-11
3.27471e-05
5.24355e-11
3.2747e-05
2.41988e-10
3.27469e-05
4.10778e-10
3.27468e-05
4.98452e-10
3.27467e-05
5.28461e-10
3.27466e-05
5.11919e-10
3.27464e-05
4.64082e-10
3.27464e-05
3.99333e-10
3.27463e-05
3.28087e-10
3.27462e-05
2.57466e-10
3.27462e-05
1.91927e-10
3.27461e-05
1.33717e-10
3.27461e-05
8.331e-11
3.27461e-05
4.0059e-11
3.27461e-05
2.90016e-12
3.27461e-05
-2.91391e-11
3.27461e-05
-5.68107e-11
3.27461e-05
-8.0743e-11
3.27462e-05
-1.01466e-10
3.27462e-05
-1.19352e-10
3.27462e-05
-1.34625e-10
3.27463e-05
-1.47447e-10
3.27463e-05
-1.58063e-10
3.27463e-05
-1.66856e-10
3.27464e-05
-1.7431e-10
3.27464e-05
-1.80904e-10
3.27465e-05
-1.87014e-10
3.27465e-05
-1.92851e-10
3.27466e-05
-1.9845e-10
3.27466e-05
-2.03711e-10
3.27467e-05
-2.08454e-10
3.27467e-05
-2.12523e-10
3.27468e-05
-2.15807e-10
3.27468e-05
-2.18352e-10
3.27469e-05
-2.20143e-10
3.27469e-05
-2.21392e-10
3.2747e-05
-2.21661e-10
3.2747e-05
-2.21307e-10
3.27471e-05
-2.18109e-10
3.27472e-05
-2.13667e-10
3.27472e-05
-2.0029e-10
3.27473e-05
-1.855e-10
3.27473e-05
-1.48585e-10
3.27473e-05
-1.11854e-10
3.27473e-05
-4.86105e-11
3.27474e-05
1.33486e-11
3.27474e-05
1.49046e-11
3.27474e-05
1.24491e-11
3.27474e-05
-1.61167e-12
3.27474e-05
-2.42046e-11
3.27474e-05
-4.35009e-11
3.27474e-05
-5.72409e-11
3.27474e-05
-6.69003e-11
3.27474e-05
-7.28921e-11
3.27474e-05
-7.50563e-11
3.27475e-05
-7.29625e-11
3.27475e-05
-6.62397e-11
3.27475e-05
-5.48744e-11
3.27475e-05
-3.9324e-11
3.27475e-05
-2.04782e-11
3.27475e-05
4.79119e-13
3.27475e-05
2.22505e-11
3.27475e-05
4.36095e-11
3.27474e-05
6.3536e-11
3.27474e-05
8.12667e-11
3.27474e-05
9.63076e-11
3.27474e-05
1.08401e-10
3.27473e-05
1.17486e-10
3.27473e-05
1.23644e-10
3.27473e-05
1.27055e-10
3.27472e-05
1.27966e-10
3.27472e-05
1.26658e-10
3.27472e-05
1.23433e-10
3.27472e-05
1.18602e-10
3.27471e-05
1.12473e-10
3.27471e-05
1.05346e-10
3.27471e-05
9.75069e-11
3.27471e-05
8.92111e-11
3.2747e-05
8.06864e-11
3.2747e-05
7.21013e-11
3.2747e-05
6.36115e-11
3.2747e-05
5.52527e-11
3.2747e-05
4.71546e-11
3.2747e-05
3.91086e-11
3.2747e-05
3.14414e-11
3.27469e-05
2.32535e-11
3.27469e-05
1.52784e-11
3.27469e-05
7.90173e-12
3.27469e-05
2.2508e-12
3.27469e-05
-1.06217e-12
3.27469e-05
-3.57793e-12
3.27469e-05
-5.67669e-12
3.27469e-05
-9.03504e-12
3.27469e-05
-1.3764e-11
3.27469e-05
-1.99467e-11
3.2747e-05
-2.71493e-11
3.2747e-05
-3.58118e-11
3.2747e-05
-4.38891e-11
3.2747e-05
-5.30693e-11
3.2747e-05
-5.5729e-11
3.2747e-05
-5.91463e-11
3.2747e-05
-4.24307e-11
3.2747e-05
-2.76237e-11
3.2747e-05
1.33461e-11
3.2747e-05
5.08929e-11
3.2747e-05
3.23399e-11
3.2747e-05
1.59669e-11
3.2747e-05
-7.08357e-12
3.27471e-05
-3.21901e-11
3.27471e-05
-5.5213e-11
3.27471e-05
-7.54498e-11
3.27471e-05
-9.0742e-11
3.27471e-05
-1.01117e-10
3.27472e-05
-1.02371e-10
3.27472e-05
-9.91416e-11
3.27472e-05
-7.38018e-11
3.27472e-05
-4.93572e-11
3.27472e-05
2.11001e-11
3.27472e-05
1.47549e-10
8.75757e-11
3.76639e-05
1.3935e-10
3.76638e-05
3.3292e-10
3.76637e-05
5.13225e-10
3.76635e-05
6.11806e-10
3.76634e-05
6.44643e-10
3.76633e-05
6.24045e-10
3.76632e-05
5.66927e-10
3.76631e-05
4.89702e-10
3.7663e-05
4.0441e-10
3.7663e-05
3.19317e-10
3.76629e-05
2.39709e-10
3.76629e-05
1.68444e-10
3.76629e-05
1.06373e-10
3.76629e-05
5.29449e-11
3.76629e-05
6.96882e-12
3.76629e-05
-3.27624e-11
3.76629e-05
-6.72277e-11
3.76629e-05
-9.72175e-11
3.76629e-05
-1.23374e-10
3.76629e-05
-1.46141e-10
3.7663e-05
-1.65768e-10
3.7663e-05
-1.82404e-10
3.7663e-05
-1.96276e-10
3.76631e-05
-2.07789e-10
3.76631e-05
-2.175e-10
3.76632e-05
-2.26008e-10
3.76632e-05
-2.33814e-10
3.76633e-05
-2.41232e-10
3.76633e-05
-2.48359e-10
3.76634e-05
-2.55107e-10
3.76634e-05
-2.61269e-10
3.76635e-05
-2.66638e-10
3.76635e-05
-2.71048e-10
3.76636e-05
-2.74512e-10
3.76636e-05
-2.76996e-10
3.76637e-05
-2.78732e-10
3.76638e-05
-2.79248e-10
3.76638e-05
-2.7895e-10
3.76639e-05
-2.75329e-10
3.76639e-05
-2.70127e-10
3.7664e-05
-2.54555e-10
3.7664e-05
-2.36899e-10
3.76641e-05
-1.93453e-10
3.76641e-05
-1.49163e-10
3.76641e-05
-7.33804e-11
3.76642e-05
1.95121e-12
3.76642e-05
8.44886e-12
3.76642e-05
8.6283e-12
3.76642e-05
-5.93058e-12
3.76642e-05
-3.12101e-11
3.76642e-05
-5.36094e-11
3.76642e-05
-6.99737e-11
3.76642e-05
-8.15675e-11
3.76642e-05
-8.86381e-11
3.76643e-05
-9.08618e-11
3.76643e-05
-8.76831e-11
3.76643e-05
-7.87009e-11
3.76643e-05
-6.39951e-11
3.76643e-05
-4.42285e-11
3.76643e-05
-2.0571e-11
3.76643e-05
5.48584e-12
3.76643e-05
3.23484e-11
3.76643e-05
5.85357e-11
3.76642e-05
8.28341e-11
3.76642e-05
1.04352e-10
3.76642e-05
1.22527e-10
3.76642e-05
1.3708e-10
3.76641e-05
1.47964e-10
3.76641e-05
1.55295e-10
3.76641e-05
1.59305e-10
3.7664e-05
1.60294e-10
3.7664e-05
1.58604e-10
3.7664e-05
1.54593e-10
3.76639e-05
1.4863e-10
3.76639e-05
1.4108e-10
3.76639e-05
1.32299e-10
3.76639e-05
1.22628e-10
3.76638e-05
1.12375e-10
3.76638e-05
1.01821e-10
3.76638e-05
9.11786e-11
3.76638e-05
8.06419e-11
3.76638e-05
7.02688e-11
3.76638e-05
6.02163e-11
3.76637e-05
5.02551e-11
3.76637e-05
4.07526e-11
3.76637e-05
3.06756e-11
3.76637e-05
2.08418e-11
3.76637e-05
1.16981e-11
3.76637e-05
4.5715e-12
3.76637e-05
2.01372e-13
3.76637e-05
-3.15365e-12
3.76637e-05
-5.99698e-12
3.76637e-05
-1.0344e-11
3.76637e-05
-1.64423e-11
3.76637e-05
-2.44677e-11
3.76637e-05
-3.39528e-11
3.76637e-05
-4.53566e-11
3.76638e-05
-5.62893e-11
3.76638e-05
-6.85039e-11
3.76638e-05
-7.32089e-11
3.76638e-05
-7.83532e-11
3.76638e-05
-5.99975e-11
3.76638e-05
-4.27531e-11
3.76638e-05
5.56987e-12
3.76638e-05
5.0982e-11
3.76638e-05
3.24962e-11
3.76638e-05
1.49708e-11
3.76638e-05
-1.12526e-11
3.76639e-05
-4.03584e-11
3.76639e-05
-6.75775e-11
3.76639e-05
-9.17788e-11
3.76639e-05
-1.10337e-10
3.76639e-05
-1.2311e-10
3.7664e-05
-1.25211e-10
3.7664e-05
-1.21715e-10
3.7664e-05
-9.2409e-11
3.7664e-05
-6.3671e-11
3.7664e-05
2.19122e-11
3.7664e-05
1.61862e-10
1.37528e-10
4.22277e-05
2.43052e-10
4.22276e-05
4.32502e-10
4.22275e-05
6.15737e-10
4.22274e-05
7.2e-10
4.22273e-05
7.53651e-10
4.22272e-05
7.29091e-10
4.22271e-05
6.63979e-10
4.2227e-05
5.76059e-10
4.2227e-05
4.78567e-10
4.22269e-05
3.80687e-10
4.22268e-05
2.88388e-10
4.22268e-05
2.05057e-10
4.22268e-05
1.31921e-10
4.22268e-05
6.85984e-11
4.22268e-05
1.38712e-11
4.22268e-05
-3.36084e-11
4.22268e-05
-7.49833e-11
4.22268e-05
-1.11174e-10
4.22268e-05
-1.42913e-10
4.22268e-05
-1.70709e-10
4.22269e-05
-1.94845e-10
4.22269e-05
-2.15481e-10
4.22269e-05
-2.32843e-10
4.2227e-05
-2.47353e-10
4.2227e-05
-2.59629e-10
4.2227e-05
-2.70357e-10
4.22271e-05
-2.80136e-10
4.22271e-05
-2.89368e-10
4.22272e-05
-2.98202e-10
4.22272e-05
-3.06574e-10
4.22273e-05
-3.14267e-10
4.22274e-05
-3.21048e-10
4.22274e-05
-3.26714e-10
4.22275e-05
-3.31255e-10
4.22275e-05
-3.34614e-10
4.22276e-05
-3.37041e-10
4.22276e-05
-3.38012e-10
4.22277e-05
-3.3797e-10
4.22278e-05
-3.34129e-10
4.22278e-05
-3.28354e-10
4.22279e-05
-3.10831e-10
4.22279e-05
-2.90551e-10
4.2228e-05
-2.40983e-10
4.2228e-05
-1.89492e-10
4.2228e-05
-1.01602e-10
4.22281e-05
-1.30315e-11
4.22281e-05
-9.46959e-13
4.22281e-05
2.67799e-12
4.22281e-05
-1.15075e-11
4.22281e-05
-3.86999e-11
4.22281e-05
-6.36243e-11
4.22281e-05
-8.221e-11
4.22281e-05
-9.54209e-11
4.22281e-05
-1.03264e-10
4.22282e-05
-1.05227e-10
4.22282e-05
-1.00649e-10
4.22282e-05
-8.91523e-11
4.22282e-05
-7.09614e-11
4.22282e-05
-4.69749e-11
4.22282e-05
-1.86451e-11
4.22282e-05
1.22518e-11
4.22282e-05
4.38653e-11
4.22281e-05
7.45063e-11
4.22281e-05
1.02807e-10
4.22281e-05
1.27774e-10
4.22281e-05
1.48794e-10
4.2228e-05
1.65574e-10
4.2228e-05
1.7808e-10
4.2228e-05
1.86462e-10
4.2228e-05
1.90995e-10
4.22279e-05
1.92031e-10
4.22279e-05
1.89962e-10
4.22279e-05
1.85199e-10
4.22278e-05
1.78164e-10
4.22278e-05
1.69273e-10
4.22278e-05
1.58932e-10
4.22278e-05
1.47532e-10
4.22277e-05
1.3543e-10
4.22277e-05
1.22949e-10
4.22277e-05
1.10342e-10
4.22277e-05
9.78371e-11
4.22277e-05
8.55133e-11
4.22276e-05
7.35524e-11
4.22276e-05
6.17084e-11
4.22276e-05
5.03889e-11
4.22276e-05
3.84368e-11
4.22276e-05
2.67473e-11
4.22276e-05
1.58261e-11
4.22276e-05
7.19239e-12
4.22276e-05
1.7104e-12
4.22276e-05
-2.55125e-12
4.22276e-05
-6.22828e-12
4.22276e-05
-1.16807e-11
4.22276e-05
-1.93126e-11
4.22276e-05
-2.94019e-11
4.22276e-05
-4.14474e-11
4.22276e-05
-5.58984e-11
4.22276e-05
-7.00126e-11
4.22277e-05
-8.55592e-11
4.22277e-05
-9.26253e-11
4.22277e-05
-9.97508e-11
4.22277e-05
-8.01053e-11
4.22277e-05
-6.06518e-11
4.22277e-05
-5.2238e-12
4.22278e-05
4.81479e-11
4.22278e-05
3.05565e-11
4.22278e-05
1.27895e-11
4.22278e-05
-1.57013e-11
4.22278e-05
-4.80585e-11
4.22278e-05
-7.89131e-11
4.22278e-05
-1.06703e-10
4.22278e-05
-1.2833e-10
4.22278e-05
-1.4346e-10
4.22279e-05
-1.46536e-10
4.22279e-05
-1.43021e-10
4.22279e-05
-1.10244e-10
4.22279e-05
-7.78026e-11
4.22279e-05
2.23394e-11
4.22279e-05
1.72724e-10
1.94342e-10
4.64781e-05
3.56045e-10
4.6478e-05
5.37187e-10
4.64779e-05
7.17562e-10
4.64778e-05
8.22826e-10
4.64777e-05
8.54959e-10
4.64776e-05
8.2608e-10
4.64775e-05
7.53924e-10
4.64774e-05
6.56919e-10
4.64773e-05
5.49063e-10
4.64773e-05
4.40183e-10
4.64772e-05
3.36761e-10
4.64772e-05
2.42606e-10
4.64772e-05
1.59282e-10
4.64771e-05
8.66142e-11
4.64771e-05
2.34405e-11
4.64771e-05
-3.16392e-11
4.64771e-05
-7.98656e-11
4.64772e-05
-1.22249e-10
4.64772e-05
-1.59589e-10
4.64772e-05
-1.9245e-10
4.64772e-05
-2.21154e-10
4.64772e-05
-2.45888e-10
4.64773e-05
-2.66892e-10
4.64773e-05
-2.84612e-10
4.64774e-05
-2.99704e-10
4.64774e-05
-3.12917e-10
4.64774e-05
-3.2492e-10
4.64775e-05
-3.36176e-10
4.64775e-05
-3.46886e-10
4.64776e-05
-3.5701e-10
4.64776e-05
-3.66341e-10
4.64777e-05
-3.74636e-10
4.64778e-05
-3.81678e-10
4.64778e-05
-3.87443e-10
4.64779e-05
-3.91857e-10
4.64779e-05
-3.95173e-10
4.6478e-05
-3.96812e-10
4.6478e-05
-3.97232e-10
4.64781e-05
-3.93385e-10
4.64782e-05
-3.87241e-10
4.64782e-05
-3.68029e-10
4.64783e-05
-3.45401e-10
4.64783e-05
-2.90144e-10
4.64784e-05
-2.31887e-10
4.64784e-05
-1.32389e-10
4.64784e-05
-3.08573e-11
4.64784e-05
-1.28635e-11
4.64784e-05
-5.23695e-12
4.64784e-05
-1.8316e-11
4.64784e-05
-4.6693e-11
4.64785e-05
-7.35143e-11
4.64785e-05
-9.37963e-11
4.64785e-05
-1.08151e-10
4.64785e-05
-1.16303e-10
4.64785e-05
-1.17545e-10
4.64785e-05
-1.11162e-10
4.64785e-05
-9.68602e-11
4.64785e-05
-7.50639e-11
4.64785e-05
-4.69323e-11
4.64785e-05
-1.41877e-11
4.64785e-05
2.11459e-11
4.64785e-05
5.70144e-11
4.64785e-05
9.15764e-11
4.64785e-05
1.23356e-10
4.64784e-05
1.51295e-10
4.64784e-05
1.74747e-10
4.64784e-05
1.93414e-10
4.64784e-05
2.07277e-10
4.64783e-05
2.16519e-10
4.64783e-05
2.21449e-10
4.64783e-05
2.22464e-10
4.64782e-05
2.19998e-10
4.64782e-05
2.14512e-10
4.64782e-05
2.0647e-10
4.64782e-05
1.96333e-10
4.64781e-05
1.84552e-10
4.64781e-05
1.71559e-10
4.64781e-05
1.57749e-10
4.64781e-05
1.43485e-10
4.6478e-05
1.2905e-10
4.6478e-05
1.14703e-10
4.6478e-05
1.00538e-10
4.6478e-05
8.67613e-11
4.6478e-05
7.31119e-11
4.6478e-05
6.00374e-11
4.6478e-05
4.62644e-11
4.6478e-05
3.2762e-11
4.6478e-05
2.00919e-11
4.6478e-05
9.9595e-12
4.6478e-05
3.34781e-12
4.6478e-05
-1.86564e-12
4.6478e-05
-6.46277e-12
4.6478e-05
-1.3156e-11
4.6478e-05
-2.25187e-11
4.6478e-05
-3.49257e-11
4.6478e-05
-4.98292e-11
4.6478e-05
-6.76322e-11
4.6478e-05
-8.52259e-11
4.6478e-05
-1.04352e-10
4.6478e-05
-1.14022e-10
4.64781e-05
-1.23309e-10
4.64781e-05
-1.0263e-10
4.64781e-05
-8.1148e-11
4.64781e-05
-1.88031e-11
4.64781e-05
4.25979e-11
4.64781e-05
2.65401e-11
4.64781e-05
9.32777e-12
4.64781e-05
-2.05373e-11
4.64781e-05
-5.53365e-11
4.64782e-05
-8.91556e-11
4.64782e-05
-1.20027e-10
4.64782e-05
-1.44393e-10
4.64782e-05
-1.61724e-10
4.64782e-05
-1.65806e-10
4.64782e-05
-1.62462e-10
4.64783e-05
-1.26671e-10
4.64783e-05
-9.11098e-11
4.64783e-05
2.28006e-11
4.64783e-05
1.81389e-10
2.54536e-10
5.04761e-05
4.71664e-10
5.0476e-05
6.43544e-10
5.04759e-05
8.1823e-10
5.04758e-05
9.21013e-10
5.04757e-05
9.49415e-10
5.04757e-05
9.15521e-10
5.04756e-05
8.36815e-10
5.04755e-05
7.3193e-10
5.04754e-05
6.15241e-10
5.04754e-05