/*--------------------------------*- C++ -*----------------------------------*\
  =========                 |
  \\      /  F ield         | OpenFOAM: The Open Source CFD Toolbox
   \\    /   O peration     | Website:  https://openfoam.org
    \\  /    A nd           | Version:  7
     \\/     M anipulation  |
\*---------------------------------------------------------------------------*/
FoamFile
{
    version     2.0;
    format      ascii;
    class       volVectorField;
    location    "3000";
    object      U;
}
// * * * * * * * * * * * * * * * * * * * * * * * * * * * * * * * * * * * * * //

dimensions      [0 1 -1 0 0 0 0];

internalField   nonuniform List<vector> 
24000
(
(0.00429694 -3.35923e-10 6.15445e-17)
(0.00429696 1.55068e-10 5.74724e-17)
(0.00429694 1.01111e-10 6.33629e-17)
(0.00429692 1.28712e-10 1.58891e-17)
(0.00429689 1.4877e-10 -2.43853e-16)
(0.00429687 1.44086e-10 -1.70912e-18)
(0.00429685 1.31355e-10 -2.34611e-16)
(0.00429683 1.12329e-10 5.87829e-18)
(0.00429681 9.07954e-11 4.51598e-17)
(0.0042968 7.0404e-11 -2.31676e-16)
(0.00429679 5.31944e-11 1.51736e-17)
(0.00429678 3.9075e-11 1.66998e-17)
(0.00429678 2.66316e-11 1.79293e-17)
(0.00429677 1.47853e-11 -3.23649e-18)
(0.00429677 3.50108e-12 -3.49835e-17)
(0.00429677 -6.64466e-12 2.9188e-17)
(0.00429677 -1.52169e-11 5.18729e-18)
(0.00429678 -2.20947e-11 2.83876e-20)
(0.00429678 -2.73795e-11 -2.20171e-17)
(0.00429679 -3.11419e-11 -4.82744e-17)
(0.00429679 -3.35476e-11 3.643e-18)
(0.0042968 -3.50087e-11 -4.22736e-17)
(0.0042968 -3.61418e-11 -2.57508e-17)
(0.00429681 -3.75204e-11 -4.69673e-17)
(0.00429682 -3.94232e-11 -1.02388e-16)
(0.00429682 -4.18319e-11 -1.87447e-17)
(0.00429683 -4.44923e-11 -4.4788e-17)
(0.00429684 -4.70923e-11 -2.80038e-17)
(0.00429685 -4.92509e-11 -5.90303e-17)
(0.00429686 -5.08715e-11 -1.13277e-16)
(0.00429686 -5.17498e-11 -8.55208e-18)
(0.00429687 -5.22834e-11 -2.73684e-17)
(0.00429688 -5.22201e-11 -2.32881e-17)
(0.00429689 -5.2776e-11 -5.74619e-17)
(0.0042969 -5.25413e-11 -1.11934e-16)
(0.00429691 -5.42413e-11 -3.8966e-17)
(0.00429692 -5.30084e-11 -5.26821e-17)
(0.00429693 -5.61511e-11 -3.57334e-17)
(0.00429694 -5.02062e-11 -5.772e-17)
(0.00429694 -5.48593e-11 -1.2482e-16)
(0.00429695 -3.70332e-11 -8.681e-17)
(0.00429696 -4.22958e-11 2.01468e-16)
(0.00429697 -5.82124e-12 -1.74483e-17)
(0.00429697 -1.1881e-12 -2.27254e-17)
(0.00429697 3.43692e-11 -1.3326e-17)
(0.00429696 7.37727e-11 -4.0547e-18)
(0.00429696 1.87669e-11 1.71909e-16)
(0.00429696 2.74211e-11 1.63903e-17)
(0.00429696 9.64531e-12 7.34325e-18)
(0.00429696 -7.67982e-12 1.29314e-17)
(0.00429696 -1.46175e-11 1.75154e-17)
(0.00429696 -1.87497e-11 1.48999e-16)
(0.00429696 -2.21255e-11 2.66351e-17)
(0.00429697 -2.4306e-11 1.91721e-16)
(0.00429697 -2.57018e-11 -3.96934e-17)
(0.00429697 -2.62601e-11 3.34404e-17)
(0.00429698 -2.58936e-11 2.06455e-16)
(0.00429698 -2.4498e-11 4.66937e-17)
(0.00429698 -2.2014e-11 2.94213e-16)
(0.00429699 -1.84596e-11 4.02607e-17)
(0.00429699 -1.39714e-11 6.53912e-17)
(0.00429699 -8.78003e-12 2.19326e-16)
(0.00429699 -3.16697e-12 5.62146e-17)
(0.00429699 2.5462e-12 2.86219e-16)
(0.00429699 8.05622e-12 2.99265e-17)
(0.00429698 1.3097e-11 7.57993e-17)
(0.00429698 1.74892e-11 2.7274e-16)
(0.00429698 2.10319e-11 7.13372e-17)
(0.00429697 2.3688e-11 2.97612e-16)
(0.00429697 2.54151e-11 7.63295e-17)
(0.00429696 2.62731e-11 9.64419e-17)
(0.00429696 2.63353e-11 3.13348e-16)
(0.00429695 2.57248e-11 8.22652e-17)
(0.00429695 2.45757e-11 2.71612e-16)
(0.00429694 2.3046e-11 6.58903e-17)
(0.00429694 2.12569e-11 1.00908e-16)
(0.00429694 1.93381e-11 3.11856e-16)
(0.00429693 1.73364e-11 9.06158e-17)
(0.00429693 1.53722e-11 2.66551e-16)
(0.00429693 1.32914e-11 1.58058e-17)
(0.00429692 1.13459e-11 -1.17469e-16)
(0.00429692 9.07118e-12 -1.14418e-17)
(0.00429692 7.14584e-12 8.36534e-17)
(0.00429692 4.43047e-12 -1.15342e-16)
(0.00429692 2.54905e-12 -3.55589e-17)
(0.00429692 -8.32123e-13 -2.24663e-16)
(0.00429692 -3.40773e-12 1.25883e-18)
(0.00429692 -5.66693e-12 6.96685e-17)
(0.00429692 -6.93446e-12 -2.1636e-16)
(0.00429692 -6.11004e-12 -2.18425e-17)
(0.00429692 -6.7929e-12 -2.05601e-16)
(0.00429692 -6.26969e-12 7.34669e-19)
(0.00429692 -8.01468e-12 7.22116e-17)
(0.00429692 -8.78991e-12 -1.37288e-16)
(0.00429692 -1.1263e-11 6.50892e-18)
(0.00429692 -1.06826e-11 -1.21041e-16)
(0.00429693 -1.46199e-11 -4.59651e-17)
(0.00429693 -1.00224e-11 6.00708e-17)
(0.00429693 -1.69744e-11 -2.29441e-16)
(0.00429693 -2.55671e-12 -4.19011e-17)
(0.00429693 -1.26739e-11 -1.26528e-16)
(0.00429693 1.84983e-11 8.46657e-18)
(0.00429693 1.55811e-11 6.08851e-17)
(0.00429693 4.60326e-11 -1.95611e-16)
(0.00429692 7.54995e-11 -7.71242e-17)
(0.00429692 1.69382e-11 -1.75614e-16)
(0.00429692 2.59952e-11 -8.49849e-17)
(0.00429691 7.07256e-12 4.69122e-17)
(0.00429692 -5.25664e-12 -1.61508e-16)
(0.00429692 -1.41997e-11 -3.03569e-18)
(0.00429692 -2.33064e-11 -1.15501e-16)
(0.00429692 -2.78099e-11 -1.39666e-16)
(0.00429693 -3.17997e-11 4.40754e-17)
(0.00429693 -2.97016e-11 -1.4986e-16)
(0.00429694 -2.46846e-11 -5.86279e-17)
(0.00429694 -1.85977e-11 -2.03703e-16)
(0.00429694 2.59927e-11 -2.43266e-16)
(0.00429695 -1.86391e-11 4.51148e-17)
(0.00429693 2.35931e-10 -1.31461e-16)
(0.00429692 -1.57985e-10 -8.98427e-18)
(0.0129703 -2.14963e-09 1.9035e-16)
(0.0129703 8.69336e-10 1.71483e-16)
(0.0129702 1.85586e-09 1.89796e-16)
(0.0129702 2.17921e-09 4.63898e-17)
(0.0129701 2.43703e-09 -3.84521e-16)
(0.0129701 2.39488e-09 8.19659e-18)
(0.01297 2.17941e-09 -3.48679e-16)
(0.0129699 1.86998e-09 2.84854e-17)
(0.0129699 1.52759e-09 1.35358e-16)
(0.0129698 1.19774e-09 -3.18417e-16)
(0.0129698 9.02764e-10 5.58405e-17)
(0.0129698 6.45023e-10 4.95489e-17)
(0.0129698 4.17054e-10 5.42848e-17)
(0.0129698 2.12413e-10 -1.02599e-17)
(0.0129698 2.9916e-11 -1.09396e-16)
(0.0129698 -1.28625e-10 9.21659e-17)
(0.0129698 -2.61907e-10 1.72468e-17)
(0.0129698 -3.70812e-10 -1.05932e-18)
(0.0129698 -4.57362e-10 -6.78328e-17)
(0.0129698 -5.24334e-10 -1.40289e-16)
(0.0129698 -5.75519e-10 2.25583e-17)
(0.0129698 -6.15979e-10 -1.2331e-16)
(0.0129699 -6.51299e-10 -7.58033e-17)
(0.0129699 -6.85762e-10 -1.35997e-16)
(0.0129699 -7.21461e-10 -3.14581e-16)
(0.0129699 -7.58188e-10 -5.23776e-17)
(0.0129699 -7.9418e-10 -1.42427e-16)
(0.01297 -8.27062e-10 -8.41223e-17)
(0.01297 -8.54781e-10 -1.75176e-16)
(0.01297 -8.76352e-10 -3.40449e-16)
(0.01297 -8.91665e-10 -2.75393e-17)
(0.0129701 -9.02783e-10 -8.80476e-17)
(0.0129701 -9.11094e-10 -6.89116e-17)
(0.0129701 -9.20472e-10 -1.79626e-16)
(0.0129701 -9.28789e-10 -3.36059e-16)
(0.0129702 -9.4104e-10 -1.16366e-16)
(0.0129702 -9.44085e-10 -1.60048e-16)
(0.0129702 -9.51843e-10 -1.08298e-16)
(0.0129703 -9.23027e-10 -1.67599e-16)
(0.0129703 -9.07921e-10 -3.7945e-16)
(0.0129703 -7.88809e-10 -2.62932e-16)
(0.0129703 -7.21128e-10 -4.46881e-17)
(0.0129703 -4.22478e-10 -5.99292e-17)
(0.0129704 -2.33121e-10 -6.61267e-17)
(0.0129704 1.87468e-10 -3.90526e-17)
(0.0129704 5.71024e-10 -1.11059e-17)
(0.0129703 3.06431e-10 9.11084e-17)
(0.0129703 2.41784e-10 4.16121e-17)
(0.0129703 9.73877e-11 2.41258e-17)
(0.0129703 -9.81964e-11 4.03988e-17)
(0.0129703 -2.16445e-10 5.44953e-17)
(0.0129703 -2.86466e-10 9.77712e-17)
(0.0129704 -3.36133e-10 7.63779e-17)
(0.0129704 -3.68847e-10 1.65083e-16)
(0.0129704 -3.86646e-10 -7.3611e-18)
(0.0129704 -3.89025e-10 1.06272e-16)
(0.0129704 -3.74076e-10 2.05121e-16)
(0.0129704 -3.40313e-10 1.33987e-16)
(0.0129704 -2.87627e-10 2.39728e-16)
(0.0129704 -2.17686e-10 -3.01103e-17)
(0.0129704 -1.3403e-10 2.06076e-16)
(0.0129704 -4.14148e-11 2.41747e-16)
(0.0129704 5.47671e-11 1.6477e-16)
(0.0129704 1.4933e-10 2.56691e-16)
(0.0129704 2.37671e-10 1.47849e-16)
(0.0129704 3.16073e-10 2.34943e-16)
(0.0129704 3.8196e-10 2.53699e-16)
(0.0129704 4.33746e-10 2.10382e-16)
(0.0129704 4.70913e-10 2.96299e-16)
(0.0129704 4.93808e-10 2.38498e-16)
(0.0129703 5.03452e-10 2.96089e-16)
(0.0129703 5.01305e-10 3.18528e-16)
(0.0129703 4.89208e-10 2.41401e-16)
(0.0129703 4.69202e-10 3.49562e-16)
(0.0129703 4.43182e-10 2.13675e-16)
(0.0129703 4.12913e-10 3.10785e-16)
(0.0129703 3.7999e-10 3.39995e-16)
(0.0129702 3.45441e-10 2.67472e-16)
(0.0129702 3.10172e-10 3.61204e-16)
(0.0129702 2.74268e-10 1.86266e-16)
(0.0129702 2.38428e-10 9.34594e-17)
(0.0129702 2.01559e-10 -3.48303e-17)
(0.0129702 1.65461e-10 2.52275e-16)
(0.0129702 1.26361e-10 3.94848e-17)
(0.0129702 9.03304e-11 1.73058e-17)
(0.0129702 4.62129e-11 -6.2001e-17)
(0.0129702 5.26937e-12 -1.09187e-16)
(0.0129702 -3.08501e-11 2.11704e-16)
(0.0129702 -5.37457e-11 -1.46699e-17)
(0.0129702 -5.85412e-11 -1.56047e-17)
(0.0129702 -6.50313e-11 -3.3984e-17)
(0.0129702 -6.8231e-11 -1.07297e-16)
(0.0129702 -8.41359e-11 2.20205e-16)
(0.0129702 -1.0419e-10 -1.58972e-17)
(0.0129702 -1.30745e-10 4.65689e-17)
(0.0129702 -1.52243e-10 -3.69002e-18)
(0.0129702 -1.8526e-10 -6.65645e-18)
(0.0129702 -1.92695e-10 1.78762e-16)
(0.0129702 -2.27564e-10 -5.50166e-17)
(0.0129702 -1.74224e-10 -2.06301e-16)
(0.0129702 -1.87028e-10 -3.74113e-17)
(0.0129702 1.89679e-11 -1.21839e-16)
(0.0129702 1.02313e-10 1.86267e-16)
(0.0129702 4.22555e-10 -2.67289e-17)
(0.0129702 6.80757e-10 -1.07183e-16)
(0.0129702 3.35926e-10 -1.10759e-16)
(0.0129702 2.35838e-10 -1.28776e-16)
(0.0129702 7.07222e-11 1.37232e-16)
(0.0129702 -1.02144e-10 -6.0487e-17)
(0.0129702 -2.37735e-10 2.95444e-17)
(0.0129702 -3.57799e-10 -1.90913e-18)
(0.0129702 -4.38647e-10 -6.86339e-17)
(0.0129702 -4.94105e-10 1.39921e-16)
(0.0129703 -4.80592e-10 -4.39135e-17)
(0.0129703 -4.56638e-10 -1.91016e-17)
(0.0129703 -2.69535e-10 -4.31303e-17)
(0.0129703 -7.41628e-11 -1.10483e-16)
(0.0129703 2.21187e-10 1.43956e-16)
(0.0129703 1.69888e-09 -2.14938e-18)
(0.0129702 -7.06063e-10 5.39077e-17)
(0.021819 -4.3781e-09 3.43708e-16)
(0.0218191 2.1222e-09 2.8014e-16)
(0.021819 5.34928e-09 3.14708e-16)
(0.0218189 6.47971e-09 5.60996e-17)
(0.0218188 7.13298e-09 -1.84112e-16)
(0.0218187 7.0029e-09 6.72114e-17)
(0.0218186 6.36813e-09 -1.24961e-16)
(0.0218185 5.46401e-09 9.94587e-17)
(0.0218184 4.46497e-09 2.18663e-16)
(0.0218183 3.49702e-09 -8.53059e-17)
(0.0218183 2.62492e-09 1.46469e-16)
(0.0218182 1.86122e-09 7.56539e-17)
(0.0218182 1.19041e-09 9.13518e-17)
(0.0218182 5.9565e-10 -2.46036e-17)
(0.0218182 7.02178e-11 -2.01949e-16)
(0.0218182 -3.85174e-10 1.62621e-16)
(0.0218182 -7.7006e-10 2.34415e-17)
(0.0218182 -1.08828e-09 -5.08232e-18)
(0.0218183 -1.34616e-09 -1.23427e-16)
(0.0218183 -1.55103e-09 -2.22992e-16)
(0.0218183 -1.71204e-09 9.74978e-17)
(0.0218183 -1.84118e-09 -2.03331e-16)
(0.0218184 -1.95179e-09 -1.17226e-16)
(0.0218184 -2.0549e-09 -2.17258e-16)
(0.0218184 -2.1567e-09 -5.52439e-16)
(0.0218185 -2.25832e-09 -6.87035e-17)
(0.0218185 -2.35686e-09 -2.87082e-16)
(0.0218185 -2.44775e-09 -1.3909e-16)
(0.0218186 -2.52638e-09 -2.88947e-16)
(0.0218186 -2.59004e-09 -5.67456e-16)
(0.0218187 -2.63822e-09 -2.26697e-17)
(0.0218187 -2.67456e-09 -1.81631e-16)
(0.0218187 -2.70258e-09 -1.13052e-16)
(0.0218188 -2.72976e-09 -3.33134e-16)
(0.0218188 -2.75406e-09 -5.64295e-16)
(0.0218189 -2.78278e-09 -1.79571e-16)
(0.0218189 -2.79331e-09 -2.7335e-16)
(0.021819 -2.80426e-09 -1.80032e-16)
(0.021819 -2.73941e-09 -2.74171e-16)
(0.0218191 -2.67971e-09 -6.53684e-16)
(0.0218191 -2.39487e-09 -4.29948e-16)
(0.0218191 -2.17433e-09 -2.66337e-16)
(0.0218192 -1.43234e-09 -1.08322e-16)
(0.0218192 -8.71604e-10 -1.07624e-16)
(0.0218192 2.42402e-10 -6.02538e-17)
(0.0218192 1.2649e-09 -1.40276e-17)
(0.0218192 7.80795e-10 -3.10447e-17)
(0.0218192 5.83113e-10 5.89366e-17)
(0.0218192 2.22179e-10 4.28446e-17)
(0.0218192 -2.7769e-10 7.29879e-17)
(0.0218192 -6.1324e-10 9.60519e-17)
(0.0218192 -8.18188e-10 3.97668e-17)
(0.0218192 -9.60286e-10 1.25164e-16)
(0.0218192 -1.05302e-09 1.08358e-16)
(0.0218192 -1.1006e-09 5.78209e-16)
(0.0218192 -1.10082e-09 2.12681e-16)
(0.0218193 -1.04799e-09 1.58446e-16)
(0.0218193 -9.3857e-10 2.14464e-16)
(0.0218193 -7.73406e-10 2.15183e-16)
(0.0218193 -5.5886e-10 6.69196e-16)
(0.0218193 -3.06367e-10 3.71339e-16)
(0.0218193 -3.08777e-11 2.37708e-16)
(0.0218193 2.5187e-10 2.74573e-16)
(0.0218193 5.26876e-10 2.65519e-16)
(0.0218193 7.81301e-10 5.18617e-16)
(0.0218193 1.00517e-09 4.20221e-16)
(0.0218192 1.19167e-09 2.89761e-16)
(0.0218192 1.33709e-09 3.48659e-16)
(0.0218192 1.44045e-09 3.34902e-16)
(0.0218192 1.50304e-09 7.91952e-16)
(0.0218191 1.52791e-09 5.12535e-16)
(0.0218191 1.51932e-09 3.56448e-16)
(0.0218191 1.48232e-09 3.96824e-16)
(0.0218191 1.42239e-09 3.77416e-16)
(0.0218191 1.34492e-09 8.11598e-16)
(0.021819 1.25475e-09 5.3967e-16)
(0.021819 1.15641e-09 4.04001e-16)
(0.021819 1.05304e-09 4.39851e-16)
(0.021819 9.47327e-10 4.16053e-16)
(0.021819 8.40247e-10 5.80108e-16)
(0.0218189 7.33466e-10 3.6728e-16)
(0.0218189 6.25294e-10 4.60968e-16)
(0.0218189 5.19049e-10 4.5253e-16)
(0.0218189 4.07501e-10 1.96595e-16)
(0.0218189 3.02342e-10 3.26999e-16)
(0.0218189 1.79775e-10 8.44113e-17)
(0.0218189 6.32435e-11 6.95483e-16)
(0.0218189 -4.07339e-11 3.6911e-16)
(0.0218189 -1.10271e-10 1.3171e-16)
(0.0218189 -1.33859e-10 3.06259e-16)
(0.0218189 -1.54836e-10 1.01032e-16)
(0.0218189 -1.69147e-10 3.92771e-16)
(0.0218189 -2.12221e-10 3.87867e-16)
(0.0218189 -2.71356e-10 1.20902e-16)
(0.0218189 -3.46713e-10 3.91557e-16)
(0.0218189 -4.18999e-10 1.31295e-16)
(0.0218189 -5.13229e-10 4.43455e-16)
(0.0218189 -5.62989e-10 3.24087e-16)
(0.021819 -6.56059e-10 6.77322e-17)
(0.021819 -5.6706e-10 2.59561e-16)
(0.021819 -5.82053e-10 6.66895e-17)
(0.021819 -1.10432e-10 3.66978e-16)
(0.021819 1.46577e-10 3.29682e-16)
(0.021819 9.63505e-10 6.49043e-17)
(0.021819 1.63455e-09 3.59469e-16)
(0.0218189 9.03622e-10 3.49069e-18)
(0.0218189 5.77025e-10 3.16622e-16)
(0.0218189 1.42903e-10 2.54515e-16)
(0.0218189 -3.2084e-10 5.19232e-17)
(0.0218189 -7.0166e-10 3.47728e-16)
(0.021819 -1.03277e-09 1.19949e-16)
(0.021819 -1.26498e-09 7.76695e-18)
(0.021819 -1.42141e-09 2.58084e-16)
(0.021819 -1.39955e-09 8.33654e-17)
(0.021819 -1.34073e-09 4.23445e-16)
(0.0218191 -8.37113e-10 8.42182e-17)
(0.0218191 -3.80384e-10 -1.53546e-17)
(0.0218191 6.1668e-10 2.67197e-16)
(0.021819 3.97969e-09 1.39897e-16)
(0.021819 -9.82548e-10 5.13035e-16)
(0.0308006 -5.98612e-09 4.63174e-16)
(0.0308006 4.18432e-09 3.85514e-16)
(0.0308005 1.06147e-08 4.3543e-16)
(0.0308004 1.31156e-08 7.52723e-18)
(0.0308002 1.42849e-08 2.00326e-17)
(0.0308001 1.39807e-08 1.85721e-16)
(0.0307999 1.26943e-08 1.00281e-16)
(0.0307998 1.08854e-08 2.23415e-16)
(0.0307997 8.89157e-09 2.90088e-16)
(0.0307996 6.95155e-09 1.501e-16)
(0.0307996 5.194e-09 2.86409e-16)
(0.0307995 3.65355e-09 8.69107e-17)
(0.0307995 2.30981e-09 1.31988e-16)
(0.0307995 1.13149e-09 -6.24208e-17)
(0.0307995 9.9194e-11 -2.07797e-16)
(0.0307995 -7.93835e-10 3.28017e-16)
(0.0307995 -1.55228e-09 -4.84185e-18)
(0.0307995 -2.18636e-09 -1.20132e-17)
(0.0307995 -2.70912e-09 -2.04736e-16)
(0.0307996 -3.13373e-09 -6.11236e-16)
(0.0307996 -3.47486e-09 8.01138e-17)
(0.0307996 -3.75121e-09 -2.92169e-16)
(0.0307997 -3.98404e-09 -1.33101e-16)
(0.0307997 -4.19271e-09 -4.51945e-16)
(0.0307998 -4.39029e-09 -6.8353e-16)
(0.0307998 -4.5821e-09 8.41891e-17)
(0.0307999 -4.76679e-09 -4.60686e-16)
(0.0307999 -4.93913e-09 -1.86579e-16)
(0.0308 -5.09242e-09 -5.46423e-16)
(0.0308 -5.22152e-09 -7.51e-16)
(0.0308001 -5.32422e-09 1.07925e-16)
(0.0308001 -5.40419e-09 -2.13817e-16)
(0.0308002 -5.46643e-09 -1.52028e-16)
(0.0308003 -5.52104e-09 -5.66616e-16)
(0.0308003 -5.56751e-09 -7.61426e-16)
(0.0308004 -5.61452e-09 1.21966e-16)
(0.0308005 -5.63248e-09 -5.31965e-16)
(0.0308005 -5.64085e-09 -2.39645e-16)
(0.0308006 -5.52968e-09 -5.51627e-16)
(0.0308006 -5.4011e-09 -9.72808e-16)
(0.0308007 -4.90703e-09 -5.53029e-16)
(0.0308007 -4.46039e-09 -4.77384e-16)
(0.0308008 -3.14495e-09 -1.38027e-16)
(0.0308008 -2.04372e-09 -1.50495e-16)
(0.0308008 1.52e-11 -6.93484e-17)
(0.0308008 1.92674e-09 -1.13214e-17)
(0.0308008 1.31426e-09 -1.58871e-16)
(0.0308008 9.65419e-10 8.92103e-17)
(0.0308008 3.30944e-10 5.9004e-17)
(0.0308008 -5.58674e-10 1.16735e-16)
(0.0308008 -1.20029e-09 1.42355e-16)
(0.0308008 -1.60551e-09 -2.93844e-17)
(0.0308009 -1.884e-09 1.89486e-16)
(0.0308009 -2.06386e-09 6.29046e-17)
(0.0308009 -2.15093e-09 2.78923e-16)
(0.0308009 -2.13901e-09 2.8288e-16)
(0.0308009 -2.01688e-09 9.89056e-17)
(0.030801 -1.77872e-09 3.05496e-16)
(0.030801 -1.4284e-09 2.00031e-16)
(0.030801 -9.81284e-10 5.96458e-16)
(0.030801 -4.62509e-10 4.99393e-16)
(0.030801 9.66026e-11 2.46449e-16)
(0.030801 6.64029e-10 4.05337e-16)
(0.030801 1.21046e-09 2.79185e-16)
(0.030801 1.7113e-09 6.50559e-16)
(0.0308009 2.14827e-09 5.66347e-16)
(0.0308009 2.50932e-09 3.17739e-16)
(0.0308009 2.78852e-09 5.02349e-16)
(0.0308008 2.98496e-09 3.75424e-16)
(0.0308008 3.10181e-09 7.25109e-16)
(0.0308008 3.14526e-09 6.73563e-16)
(0.0308007 3.12358e-09 3.86691e-16)
(0.0308007 3.04638e-09 5.62355e-16)
(0.0308007 2.92392e-09 4.19655e-16)
(0.0308006 2.76634e-09 7.77851e-16)
(0.0308006 2.583e-09 7.30491e-16)
(0.0308006 2.38259e-09 4.42197e-16)
(0.0308005 2.17178e-09 6.20384e-16)
(0.0308005 1.95591e-09 4.83716e-16)
(0.0308005 1.73804e-09 7.95184e-16)
(0.0308005 1.52129e-09 5.9557e-16)
(0.0308005 1.30403e-09 6.43451e-16)
(0.0308005 1.09112e-09 6.03858e-16)
(0.0308004 8.71842e-10 3.41146e-16)
(0.0308004 6.63363e-10 4.48855e-16)
(0.0308004 4.27631e-10 1.91577e-16)
(0.0308004 2.0085e-10 3.8803e-16)
(0.0308004 -3.59746e-12 4.80555e-16)
(0.0308004 -1.45784e-10 2.39554e-16)
(0.0308004 -2.05514e-10 3.6122e-16)
(0.0308004 -2.5245e-10 2.18205e-16)
(0.0308004 -2.87943e-10 5.01722e-16)
(0.0308004 -3.71524e-10 5.19972e-16)
(0.0308004 -4.89853e-10 2.40972e-16)
(0.0308004 -6.3975e-10 4.59534e-16)
(0.0308004 -7.95811e-10 2.38957e-16)
(0.0308005 -9.87529e-10 3.85927e-16)
(0.0308005 -1.12093e-09 4.35042e-16)
(0.0308005 -1.30922e-09 1.64727e-16)
(0.0308005 -1.21268e-09 3.04241e-16)
(0.0308005 -1.23761e-09 1.38097e-16)
(0.0308005 -4.6066e-10 4.22218e-16)
(0.0308005 4.16196e-11 4.40397e-16)
(0.0308005 1.50435e-09 1.40071e-16)
(0.0308005 2.73207e-09 2.92669e-16)
(0.0308005 1.61129e-09 8.98173e-17)
(0.0308005 9.69317e-10 2.23035e-16)
(0.0308005 1.65218e-10 3.56638e-16)
(0.0308005 -6.94271e-10 1.31401e-16)
(0.0308005 -1.42308e-09 4.12494e-16)
(0.0308005 -2.05262e-09 1.84498e-16)
(0.0308005 -2.50429e-09 9.24106e-17)
(0.0308006 -2.80624e-09 4.20089e-16)
(0.0308006 -2.78607e-09 1.98258e-16)
(0.0308006 -2.67771e-09 3.65555e-16)
(0.0308007 -1.75733e-09 1.59808e-16)
(0.0308007 -9.50389e-10 8.85465e-17)
(0.0308007 1.09034e-09 4.39596e-16)
(0.0308006 6.66181e-09 2.6574e-16)
(0.0308006 -5.94352e-10 4.21153e-16)
(0.0397551 -5.96962e-09 5.92008e-16)
(0.0397551 7.60285e-09 4.74527e-16)
(0.0397549 1.76425e-08 5.46545e-16)
(0.0397548 2.19723e-08 1.82771e-16)
(0.0397546 2.37201e-08 2.6546e-16)
(0.0397544 2.31223e-08 3.56625e-16)
(0.0397542 2.09582e-08 3.2303e-16)
(0.0397541 1.79618e-08 3.89701e-16)
(0.039754 1.46677e-08 2.84983e-16)
(0.0397539 1.14484e-08 3.50809e-16)
(0.0397538 8.51552e-09 4.58547e-16)
(0.0397537 5.94229e-09 5.63525e-17)
(0.0397537 3.71204e-09 1.88163e-16)
(0.0397537 1.77693e-09 -1.59978e-16)
(0.0397537 9.55622e-11 -2.2686e-16)
(0.0397537 -1.35633e-09 2.47397e-16)
(0.0397537 -2.59553e-09 -1.22837e-16)
(0.0397537 -3.64322e-09 -1.61149e-17)
(0.0397538 -4.52179e-09 -3.38014e-16)
(0.0397538 -5.2508e-09 -3.07944e-16)
(0.0397538 -5.84879e-09 2.03679e-16)
(0.0397539 -6.33762e-09 -1.24907e-16)
(0.0397539 -6.74398e-09 -7.81592e-17)
(0.039754 -7.09522e-09 -3.29627e-17)
(0.0397541 -7.41399e-09 -4.9776e-16)
(0.0397541 -7.71437e-09 6.70688e-17)
(0.0397542 -8.0013e-09 -1.10886e-16)
(0.0397542 -8.27251e-09 -1.61425e-16)
(0.0397543 -8.52104e-09 -1.70575e-16)
(0.0397544 -8.73907e-09 -5.61824e-16)
(0.0397545 -8.92077e-09 7.33253e-17)
(0.0397545 -9.06676e-09 -2.26165e-17)
(0.0397546 -9.18081e-09 -1.4612e-16)
(0.0397547 -9.27393e-09 -2.20628e-16)
(0.0397547 -9.34685e-09 -5.76679e-16)
(0.0397548 -9.41097e-09 -9.60436e-17)
(0.0397549 -9.43133e-09 -1.63755e-16)
(0.039755 -9.42934e-09 -2.61919e-16)
(0.0397551 -9.26159e-09 -1.90118e-16)
(0.0397551 -9.0476e-09 -6.53953e-16)
(0.0397552 -8.31729e-09 -5.5184e-16)
(0.0397553 -7.595e-09 -3.33689e-16)
(0.0397553 -5.62487e-09 -9.66655e-17)
(0.0397554 -3.85632e-09 -2.13364e-16)
(0.0397554 -6.73845e-10 -5.16616e-17)
(0.0397554 2.32491e-09 -6.22053e-18)
(0.0397554 1.73405e-09 6.17402e-17)
(0.0397554 1.28129e-09 1.80659e-16)
(0.0397554 3.59719e-10 5.8836e-17)
(0.0397554 -9.56108e-10 1.82688e-16)
(0.0397554 -1.9611e-09 1.8724e-16)
(0.0397554 -2.61913e-09 2.54616e-16)
(0.0397554 -3.07164e-09 3.07474e-16)
(0.0397555 -3.36051e-09 3.67143e-16)
(0.0397555 -3.49128e-09 4.10921e-16)
(0.0397555 -3.4506e-09 3.26165e-16)
(0.0397555 -3.21993e-09 3.57502e-16)
(0.0397556 -2.79181e-09 4.46265e-16)
(0.0397556 -2.17659e-09 5.056e-16)
(0.0397556 -1.4043e-09 7.11018e-16)
(0.0397556 -5.20352e-10 5.95169e-16)
(0.0397556 4.20895e-10 5.95063e-16)
(0.0397556 1.36559e-09 5.94632e-16)
(0.0397556 2.26593e-09 6.45071e-16)
(0.0397555 3.08315e-09 6.34032e-16)
(0.0397555 3.78961e-09 6.74466e-16)
(0.0397555 4.36823e-09 6.78134e-16)
(0.0397554 4.8116e-09 7.07108e-16)
(0.0397554 5.11998e-09 7.61397e-16)
(0.0397553 5.29958e-09 7.26583e-16)
(0.0397553 5.36088e-09 7.95689e-16)
(0.0397553 5.31725e-09 7.21895e-16)
(0.0397552 5.18365e-09 7.71489e-16)
(0.0397552 4.97604e-09 7.96632e-16)
(0.0397551 4.71025e-09 9.67398e-16)
(0.0397551 4.40125e-09 8.76302e-16)
(0.0397551 4.06266e-09 7.77007e-16)
(0.039755 3.70602e-09 8.40589e-16)
(0.039755 3.34068e-09 8.788e-16)
(0.039755 2.97268e-09 9.85229e-16)
(0.0397549 2.6078e-09 1.15154e-15)
(0.0397549 2.24498e-09 8.27014e-16)
(0.0397549 1.89099e-09 7.34949e-16)
(0.0397549 1.53183e-09 7.94863e-16)
(0.0397549 1.18955e-09 5.33521e-16)
(0.0397549 8.11052e-10 6.1804e-16)
(0.0397549 4.44656e-10 1.83205e-16)
(0.0397549 1.11404e-10 5.64835e-16)
(0.0397549 -1.28266e-10 6.4637e-16)
(0.0397549 -2.43745e-10 3.22742e-16)
(0.0397549 -3.30904e-10 6.83747e-16)
(0.0397549 -3.99952e-10 4.52896e-16)
(0.0397549 -5.38272e-10 6.41189e-16)
(0.0397549 -7.35353e-10 6.57415e-16)
(0.0397549 -9.8685e-10 3.96716e-16)
(0.0397549 -1.26139e-09 6.72056e-16)
(0.0397549 -1.59255e-09 3.53671e-16)
(0.0397549 -1.85724e-09 5.35933e-16)
(0.0397549 -2.18921e-09 5.6995e-16)
(0.0397549 -2.12958e-09 2.58076e-16)
(0.039755 -2.19241e-09 5.25292e-16)
(0.039755 -1.11235e-09 4.81622e-16)
(0.039755 -3.26853e-10 5.41976e-16)
(0.039755 1.8666e-09 5.24592e-16)
(0.039755 3.75305e-09 4.34604e-16)
(0.039755 2.30089e-09 5.21951e-16)
(0.039755 1.31399e-09 3.18675e-16)
(0.039755 7.28449e-11 4.46539e-16)
(0.039755 -1.2505e-09 5.16809e-16)
(0.039755 -2.40167e-09 4.95008e-16)
(0.039755 -3.39577e-09 5.56873e-16)
(0.039755 -4.12063e-09 5.41279e-16)
(0.0397551 -4.60398e-09 6.52107e-16)
(0.0397551 -4.6009e-09 6.17761e-16)
(0.0397551 -4.42878e-09 2.93044e-16)
(0.0397552 -3.04202e-09 5.421e-16)
(0.0397552 -1.80149e-09 5.74635e-16)
(0.0397552 1.52215e-09 6.9249e-16)
(0.0397552 9.37961e-09 6.99253e-16)
(0.0397551 7.20349e-10 4.9653e-16)
(0.0483572 -3.58217e-09 7.84837e-16)
(0.0483571 1.28308e-08 5.42011e-16)
(0.048357 2.62691e-08 6.62372e-16)
(0.0483568 3.25899e-08 5.67163e-16)
(0.0483566 3.49135e-08 5.4609e-16)
(0.0483564 3.39171e-08 5.57004e-16)
(0.0483562 3.07117e-08 5.40642e-16)
(0.0483561 2.63307e-08 5.74535e-16)
(0.0483559 2.15211e-08 5.71335e-16)
(0.0483558 1.67972e-08 5.50659e-16)
(0.0483557 1.24654e-08 6.30748e-16)
(0.0483557 8.65374e-09 2.74962e-16)
(0.0483556 5.36215e-09 2.94157e-16)
(0.0483556 2.52897e-09 -2.6864e-17)
(0.0483556 8.4522e-11 -1.13379e-16)
(0.0483556 -2.02279e-09 3.16964e-16)
(0.0483556 -3.83011e-09 -2.09199e-17)
(0.0483556 -5.37381e-09 1.75125e-17)
(0.0483557 -6.68808e-09 -2.22919e-16)
(0.0483557 -7.79935e-09 -2.43195e-16)
(0.0483558 -8.72793e-09 -2.79227e-17)
(0.0483558 -9.49477e-09 -4.05381e-17)
(0.0483559 -1.01277e-08 1.74452e-17)
(0.048356 -1.06603e-08 -9.86626e-17)
(0.048356 -1.11261e-08 -2.67574e-16)
(0.0483561 -1.1552e-08 -2.93562e-17)
(0.0483562 -1.19544e-08 -2.08683e-16)
(0.0483562 -1.23383e-08 -1.70994e-16)
(0.0483563 -1.26993e-08 -2.86446e-16)
(0.0483564 -1.30275e-08 -3.85194e-16)
(0.0483565 -1.33121e-08 -7.28196e-17)
(0.0483566 -1.35476e-08 -1.53948e-16)
(0.0483566 -1.37331e-08 -1.74255e-16)
(0.0483567 -1.38783e-08 -2.9326e-16)
(0.0483568 -1.3984e-08 -4.14787e-16)
(0.0483569 -1.40655e-08 -2.03146e-16)
(0.048357 -1.4084e-08 -3.16059e-16)
(0.0483571 -1.40656e-08 -3.0704e-16)
(0.0483572 -1.38341e-08 -3.32705e-16)
(0.0483572 -1.35257e-08 -4.52752e-16)
(0.0483573 -1.2547e-08 -4.72796e-16)
(0.0483574 -1.15222e-08 -1.95491e-16)
(0.0483575 -8.85807e-09 -1.91866e-17)
(0.0483575 -6.34232e-09 -4.21034e-17)
(0.0483576 -1.92467e-09 2.27306e-17)
(0.0483576 2.30354e-09 7.67496e-18)
(0.0483576 1.90054e-09 3.34793e-16)
(0.0483576 1.43907e-09 2.94014e-16)
(0.0483576 2.63035e-10 2.49848e-16)
(0.0483576 -1.47171e-09 2.97269e-16)
(0.0483576 -2.8627e-09 2.29343e-16)
(0.0483576 -3.80642e-09 6.97074e-16)
(0.0483576 -4.45985e-09 4.52973e-16)
(0.0483577 -4.87253e-09 5.70358e-16)
(0.0483577 -5.04556e-09 5.50695e-16)
(0.0483577 -4.95514e-09 3.92192e-16)
(0.0483578 -4.57455e-09 5.61848e-16)
(0.0483578 -3.89618e-09 6.05144e-16)
(0.0483578 -2.94131e-09 7.69689e-16)
(0.0483578 -1.76024e-09 8.83108e-16)
(0.0483578 -4.25123e-10 6.64573e-16)
(0.0483578 9.8127e-10 8.12131e-16)
(0.0483578 2.37845e-09 8.00345e-16)
(0.0483578 3.69711e-09 1.18868e-15)
(0.0483577 4.8831e-09 9.87332e-16)
(0.0483577 5.89946e-09 7.49915e-16)
(0.0483576 6.72479e-09 9.00742e-16)
(0.0483576 7.35151e-09 9.23915e-16)
(0.0483576 7.78234e-09 1.18297e-15)
(0.0483575 8.02774e-09 1.08407e-15)
(0.0483574 8.10355e-09 9.05836e-16)
(0.0483574 8.0289e-09 1.1342e-15)
(0.0483573 7.8248e-09 9.89427e-16)
(0.0483573 7.51321e-09 1.25048e-15)
(0.0483573 7.11607e-09 1.18364e-15)
(0.0483572 6.65444e-09 9.95775e-16)
(0.0483572 6.14778e-09 1.20659e-15)
(0.0483571 5.61317e-09 1.06705e-15)
(0.0483571 5.06508e-09 1.35015e-15)
(0.0483571 4.51347e-09 1.20964e-15)
(0.048357 3.96778e-09 1.60025e-15)
(0.048357 3.4284e-09 8.48966e-16)
(0.048357 2.90434e-09 9.13417e-16)
(0.048357 2.37849e-09 1.23061e-15)
(0.048357 1.87741e-09 7.39794e-16)
(0.0483569 1.33276e-09 1.18519e-15)
(0.0483569 8.03847e-10 6.26593e-16)
(0.0483569 3.19186e-10 7.1874e-16)
(0.0483569 -3.95809e-11 1.01485e-15)
(0.0483569 -2.29902e-10 6.13393e-16)
(0.0483569 -3.72612e-10 1.29922e-15)
(0.0483569 -4.88531e-10 7.97945e-16)
(0.0483569 -6.96003e-10 7.89107e-16)
(0.0483569 -9.90631e-10 1.02447e-15)
(0.0483569 -1.37052e-09 5.49556e-16)
(0.048357 -1.79874e-09 1.23633e-15)
(0.048357 -2.31334e-09 6.57607e-16)
(0.048357 -2.75975e-09 6.77776e-16)
(0.048357 -3.289e-09 9.56178e-16)
(0.048357 -3.31974e-09 4.12185e-16)
(0.048357 -3.46138e-09 9.14143e-16)
(0.0483571 -2.10863e-09 6.13815e-16)
(0.0483571 -1.03156e-09 6.67602e-16)
(0.0483571 1.92912e-09 8.93672e-16)
(0.0483571 4.54014e-09 5.74434e-16)
(0.0483571 2.84617e-09 9.33896e-16)
(0.0483571 1.53951e-09 4.96292e-16)
(0.0483571 -1.59781e-10 5.60091e-16)
(0.0483571 -1.97645e-09 8.92942e-16)
(0.0483571 -3.59169e-09 4.7511e-16)
(0.0483571 -4.99239e-09 9.18695e-16)
(0.0483572 -6.02806e-09 9.54692e-16)
(0.0483572 -6.72036e-09 9.03984e-16)
(0.0483572 -6.75275e-09 9.88011e-16)
(0.0483573 -6.51099e-09 5.86179e-16)
(0.0483573 -4.64559e-09 1.09281e-15)
(0.0483573 -2.91864e-09 1.06615e-15)
(0.0483574 1.84731e-09 9.78043e-16)
(0.0483573 1.18647e-08 1.10175e-15)
(0.0483573 3.09922e-09 4.93495e-16)
(0.0562375 1.52152e-09 1.05266e-15)
(0.0562374 1.99038e-08 8.55553e-16)
(0.0562373 3.59916e-08 8.35273e-16)
(0.0562371 4.4109e-08 8.33448e-16)
(0.0562369 4.69372e-08 7.93742e-16)
(0.0562367 4.55014e-08 7.59824e-16)
(0.0562365 4.12173e-08 7.48603e-16)
(0.0562363 3.54051e-08 7.64541e-16)
(0.0562362 2.90178e-08 7.60858e-16)
(0.056236 2.2708e-08 7.29714e-16)
(0.0562359 1.68781e-08 7.95692e-16)
(0.0562359 1.17207e-08 2.44999e-16)
(0.0562358 7.26477e-09 4.18413e-16)
(0.0562358 3.44305e-09 -7.68024e-17)
(0.0562358 1.58831e-10 1.65988e-18)
(0.0562358 -2.67092e-09 5.93267e-16)
(0.0562358 -5.10888e-09 -2.35995e-16)
(0.0562358 -7.20924e-09 6.35081e-17)
(0.0562359 -9.01889e-09 -2.06348e-16)
(0.0562359 -1.05715e-08 -1.39238e-16)
(0.056236 -1.18885e-08 -1.21082e-16)
(0.056236 -1.29878e-08 2.98371e-17)
(0.0562361 -1.38952e-08 1.11931e-16)
(0.0562362 -1.4648e-08 -1.55111e-16)
(0.0562362 -1.52905e-08 -7.55762e-17)
(0.0562363 -1.58637e-08 -4.6422e-17)
(0.0562364 -1.63984e-08 -2.93052e-16)
(0.0562365 -1.691e-08 -1.80911e-16)
(0.0562366 -1.7399e-08 -3.57505e-16)
(0.0562366 -1.78549e-08 -2.24323e-16)
(0.0562367 -1.82616e-08 -1.19247e-16)
(0.0562368 -1.86067e-08 -5.42661e-16)
(0.0562369 -1.88824e-08 -1.91921e-16)
(0.056237 -1.90953e-08 -5.31446e-16)
(0.0562371 -1.92449e-08 -2.71682e-16)
(0.0562372 -1.93507e-08 -2.36914e-16)
(0.0562373 -1.93708e-08 -4.52612e-16)
(0.0562374 -1.93375e-08 -3.37755e-16)
(0.0562375 -1.90434e-08 -3.92325e-16)
(0.0562376 -1.86409e-08 -2.86579e-16)
(0.0562376 -1.7417e-08 -3.61055e-16)
(0.0562377 -1.60842e-08 9.45424e-18)
(0.0562378 -1.27243e-08 6.33364e-17)
(0.0562379 -9.43041e-09 8.7861e-17)
(0.0562379 -3.73337e-09 8.57454e-17)
(0.0562379 1.80502e-09 4.18064e-17)
(0.0562379 1.74042e-09 3.92607e-16)
(0.056238 1.38635e-09 3.74812e-16)
(0.056238 2.64919e-11 4.05256e-16)
(0.056238 -2.08263e-09 3.72888e-16)
(0.056238 -3.84789e-09 2.83259e-16)
(0.056238 -5.0856e-09 6.57819e-16)
(0.056238 -5.95106e-09 5.49791e-16)
(0.056238 -6.49188e-09 8.32577e-16)
(0.0562381 -6.6994e-09 7.57553e-16)
(0.0562381 -6.53725e-09 4.18816e-16)
(0.0562381 -5.97094e-09 8.00294e-16)
(0.0562381 -4.99578e-09 7.46532e-16)
(0.0562382 -3.64806e-09 1.03359e-15)
(0.0562382 -2.00308e-09 1.04874e-15)
(0.0562382 -1.63563e-10 6.89224e-16)
(0.0562382 1.7562e-09 1.09099e-15)
(0.0562381 3.64714e-09 9.54056e-16)
(0.0562381 5.41752e-09 1.20998e-15)
(0.0562381 6.99787e-09 1.14803e-15)
(0.056238 8.34251e-09 7.8321e-16)
(0.056238 9.42679e-09 1.18597e-15)
(0.0562379 1.02439e-08 1.08251e-15)
(0.0562379 1.08001e-08 1.35709e-15)
(0.0562378 1.11108e-08 1.30465e-15)
(0.0562378 1.11979e-08 9.64812e-16)
(0.0562377 1.10864e-08 1.27749e-15)
(0.0562377 1.08036e-08 1.17888e-15)
(0.0562376 1.03776e-08 1.42115e-15)
(0.0562376 9.83652e-09 1.39587e-15)
(0.0562375 9.20741e-09 1.05786e-15)
(0.0562375 8.5159e-09 1.35251e-15)
(0.0562374 7.78484e-09 1.26846e-15)