/*--------------------------------*- C++ -*----------------------------------*\
  =========                 |
  \\      /  F ield         | OpenFOAM: The Open Source CFD Toolbox
   \\    /   O peration     | Website:  https://openfoam.org
    \\  /    A nd           | Version:  7
     \\/     M anipulation  |
\*---------------------------------------------------------------------------*/
FoamFile
{
    version     2.0;
    format      ascii;
    class       surfaceScalarField;
    location    "19000";
    object      phi;
}
// * * * * * * * * * * * * * * * * * * * * * * * * * * * * * * * * * * * * * //

dimensions      [0 3 -1 0 0 0 0];

internalField   nonuniform List<scalar> 
47680
(
2.19928e-06
1.99419e-12
2.19929e-06
-4.73758e-12
2.19929e-06
-8.49173e-12
2.1993e-06
-7.14259e-12
2.1993e-06
-3.43159e-12
2.1993e-06
4.63524e-13
2.1993e-06
3.59961e-12
2.19929e-06
5.77045e-12
2.19929e-06
7.05158e-12
2.19928e-06
7.61294e-12
2.19927e-06
7.64998e-12
2.19927e-06
7.3177e-12
2.19926e-06
6.73502e-12
2.19925e-06
6.00773e-12
2.19925e-06
5.22206e-12
2.19924e-06
4.42206e-12
2.19924e-06
3.61307e-12
2.19924e-06
2.81725e-12
2.19923e-06
2.066e-12
2.19923e-06
1.35049e-12
2.19923e-06
6.56147e-13
2.19923e-06
-6.15458e-15
2.19923e-06
-6.18252e-13
2.19923e-06
-1.1598e-12
2.19924e-06
-1.62623e-12
2.19924e-06
-2.03882e-12
2.19924e-06
-2.42361e-12
2.19924e-06
-2.79073e-12
2.19925e-06
-3.12194e-12
2.19925e-06
-3.3992e-12
2.19925e-06
-3.63495e-12
2.19926e-06
-3.85673e-12
2.19926e-06
-4.06524e-12
2.19927e-06
-4.24567e-12
2.19927e-06
-4.36802e-12
2.19927e-06
-4.45407e-12
2.19928e-06
-4.50716e-12
2.19928e-06
-4.57497e-12
2.19929e-06
-4.53138e-12
2.19929e-06
-4.47209e-12
2.1993e-06
-4.14491e-12
2.1993e-06
-3.83761e-12
2.1993e-06
-3.09005e-12
2.19931e-06
-2.18557e-12
2.19931e-06
-1.08935e-12
2.19931e-06
4.15892e-13
2.19931e-06
7.95222e-13
2.1993e-06
8.62862e-13
2.1993e-06
6.55247e-13
2.1993e-06
6.59747e-14
2.1993e-06
-3.01052e-13
2.1993e-06
-6.45653e-13
2.19931e-06
-9.47849e-13
2.19931e-06
-1.17518e-12
2.19931e-06
-1.33234e-12
2.19931e-06
-1.4025e-12
2.19931e-06
-1.37008e-12
2.19931e-06
-1.25721e-12
2.19931e-06
-1.08185e-12
2.19931e-06
-8.30444e-13
2.19931e-06
-4.93992e-13
2.19931e-06
-1.03e-13
2.19931e-06
2.96449e-13
2.19931e-06
6.90825e-13
2.19931e-06
1.075e-12
2.19931e-06
1.42323e-12
2.19931e-06
1.71423e-12
2.19931e-06
1.94041e-12
2.19931e-06
2.11219e-12
2.1993e-06
2.26575e-12
2.1993e-06
2.40486e-12
2.1993e-06
2.48529e-12
2.1993e-06
2.49463e-12
2.19929e-06
2.45911e-12
2.19929e-06
2.40136e-12
2.19929e-06
2.34196e-12
2.19929e-06
2.27997e-12
2.19928e-06
2.18799e-12
2.19928e-06
2.06152e-12
2.19928e-06
1.91553e-12
2.19928e-06
1.75377e-12
2.19928e-06
1.59243e-12
2.19928e-06
1.44557e-12
2.19927e-06
1.32764e-12
2.19927e-06
1.16889e-12
2.19927e-06
9.77751e-13
2.19927e-06
6.72489e-13
2.19927e-06
4.07529e-13
2.19927e-06
2.52776e-13
2.19927e-06
1.43891e-13
2.19927e-06
1.36257e-13
2.19927e-06
8.82101e-14
2.19927e-06
2.09467e-14
2.19927e-06
-4.13373e-14
2.19927e-06
-1.40123e-13
2.19927e-06
-2.52278e-13
2.19927e-06
-4.11572e-13
2.19927e-06
-5.25966e-13
2.19927e-06
-6.94289e-13
2.19927e-06
-6.4208e-13
2.19927e-06
-6.68808e-13
2.19927e-06
-3.06631e-13
2.19927e-06
1.054e-13
2.19927e-06
7.36212e-13
2.19927e-06
1.62731e-12
2.19927e-06
1.66931e-12
2.19927e-06
1.44281e-12
2.19927e-06
8.90377e-13
2.19927e-06
1.81391e-13
2.19927e-06
-5.28163e-13
2.19927e-06
-1.18622e-12
2.19927e-06
-1.71629e-12
2.19927e-06
-2.15103e-12
2.19928e-06
-2.40403e-12
2.19928e-06
-2.55328e-12
2.19928e-06
-2.52279e-12
2.19928e-06
-1.95121e-12
2.19928e-06
-2.03648e-12
2.19929e-06
-1.25776e-12
2.64083e-12
6.79527e-06
2.54788e-12
6.79529e-06
-2.08022e-11
6.79531e-06
-3.24248e-11
6.79533e-06
-2.60018e-11
6.79534e-06
-1.126e-11
6.79533e-06
3.83459e-12
6.79532e-06
1.5865e-11
6.7953e-06
2.41206e-11
6.79528e-06
2.8931e-11
6.79526e-06
3.0964e-11
6.79524e-06
3.09635e-11
6.79521e-06
2.95311e-11
6.79519e-06
2.71302e-11
6.79517e-06
2.41642e-11
6.79516e-06
2.09654e-11
6.79515e-06
1.77131e-11
6.79513e-06
1.44458e-11
6.79513e-06
1.12399e-11
6.79512e-06
8.20356e-12
6.79512e-06
5.31764e-12
6.79511e-06
2.53567e-12
6.79511e-06
-1.09971e-13
6.79512e-06
-2.55467e-12
6.79512e-06
-4.72481e-12
6.79512e-06
-6.60379e-12
6.79513e-06
-8.26601e-12
6.79514e-06
-9.80582e-12
6.79515e-06
-1.12616e-11
6.79516e-06
-1.25774e-11
6.79517e-06
-1.36911e-11
6.79518e-06
-1.4638e-11
6.79519e-06
-1.55109e-11
6.7952e-06
-1.63252e-11
6.79521e-06
-1.70252e-11
6.79523e-06
-1.75203e-11
6.79524e-06
-1.78612e-11
6.79525e-06
-1.80944e-11
6.79527e-06
-1.83289e-11
6.79528e-06
-1.82262e-11
6.7953e-06
-1.79683e-11
6.79531e-06
-1.68655e-11
6.79532e-06
-1.56583e-11
6.79533e-06
-1.29913e-11
6.79534e-06
-9.66524e-12
6.79534e-06
-5.50833e-12
6.79534e-06
-1.14122e-13
6.79534e-06
1.81312e-12
6.79534e-06
2.3307e-12
6.79534e-06
1.74939e-12
6.79534e-06
-1.56332e-13
6.79534e-06
-1.5231e-12
6.79534e-06
-2.75533e-12
6.79535e-06
-3.83851e-12
6.79535e-06
-4.65339e-12
6.79535e-06
-5.19566e-12
6.79536e-06
-5.40157e-12
6.79536e-06
-5.21482e-12
6.79536e-06
-4.70485e-12
6.79537e-06
-3.94078e-12
6.79537e-06
-2.88763e-12
6.79537e-06
-1.52025e-12
6.79537e-06
5.18095e-14
6.79537e-06
1.65841e-12
6.79537e-06
3.23617e-12
6.79536e-06
4.75718e-12
6.79536e-06
6.13164e-12
6.79535e-06
7.28267e-12
6.79535e-06
8.18018e-12
6.79534e-06
8.86292e-12
6.79533e-06
9.45431e-12
6.79532e-06
9.97254e-12
6.79532e-06
1.02753e-11
6.79531e-06
1.03116e-11
6.7953e-06
1.0168e-11
6.79529e-06
9.92915e-12
6.79529e-06
9.6741e-12
6.79528e-06
9.40549e-12
6.79527e-06
9.03126e-12
6.79527e-06
8.53093e-12
6.79526e-06
7.95068e-12
6.79525e-06
7.31449e-12
6.79525e-06
6.67587e-12
6.79524e-06
6.09255e-12
6.79524e-06
5.59856e-12
6.79524e-06
4.98183e-12
6.79523e-06
4.22101e-12
6.79523e-06
3.07511e-12
6.79523e-06
2.03518e-12
6.79523e-06
1.37029e-12
6.79523e-06
9.23992e-13
6.79523e-06
8.26008e-13
6.79523e-06
6.3844e-13
6.79523e-06
3.79486e-13
6.79523e-06
1.14155e-13
6.79523e-06
-2.75777e-13
6.79523e-06
-7.57827e-13
6.79523e-06
-1.39345e-12
6.79523e-06
-1.94899e-12
6.79523e-06
-2.61986e-12
6.79523e-06
-2.65003e-12
6.79523e-06
-2.79243e-12
6.79524e-06
-1.69806e-12
6.79524e-06
-2.85623e-13
6.79523e-06
1.96871e-12
6.79523e-06
5.03474e-12
6.79523e-06
5.48564e-12
6.79522e-06
4.74396e-12
6.79522e-06
2.83051e-12
6.79522e-06
2.80177e-13
6.79522e-06
-2.34559e-12
6.79523e-06
-4.79858e-12
6.79523e-06
-6.81616e-12
6.79524e-06
-8.45487e-12
6.79525e-06
-9.45619e-12
6.79525e-06
-1.00567e-11
6.79526e-06
-9.95748e-12
6.79527e-06
-8.01466e-12
6.79527e-06
-8.30732e-12
6.79528e-06
-4.63832e-12
7.62647e-12
1.1701e-05
-4.27532e-12
1.17011e-05
-5.12644e-11
1.17011e-05
-7.0585e-11
1.17011e-05
-5.35324e-11
1.17012e-05
-2.03236e-11
1.17011e-05
1.27638e-11
1.17011e-05
3.88401e-11
1.17011e-05
5.6571e-11
1.1701e-05
6.67588e-11
1.1701e-05
7.08865e-11
1.1701e-05
7.05654e-11
1.17009e-05
6.71109e-11
1.17009e-05
6.15398e-11
1.17009e-05
5.47279e-11
1.17008e-05
4.73976e-11
1.17008e-05
3.99594e-11
1.17008e-05
3.25239e-11
1.17008e-05
2.52457e-11
1.17008e-05
1.83368e-11
1.17008e-05
1.178e-11
1.17008e-05
5.49164e-12
1.17008e-05
-4.72652e-13
1.17008e-05
-5.98131e-12
1.17008e-05
-1.08819e-11
1.17008e-05
-1.51413e-11
1.17008e-05
-1.89118e-11
1.17008e-05
-2.23876e-11
1.17008e-05
-2.56527e-11
1.17008e-05
-2.8605e-11
1.17009e-05
-3.11207e-11
1.17009e-05
-3.32625e-11
1.17009e-05
-3.5209e-11
1.17009e-05
-3.7008e-11
1.17009e-05
-3.85505e-11
1.1701e-05
-3.96669e-11
1.1701e-05
-4.04358e-11
1.1701e-05
-4.09827e-11
1.1701e-05
-4.14748e-11
1.17011e-05
-4.13283e-11
1.17011e-05
-4.07564e-11
1.17011e-05
-3.85625e-11
1.17011e-05
-3.59407e-11
1.17011e-05
-3.04423e-11
1.17011e-05
-2.34387e-11
1.17012e-05
-1.45481e-11
1.17012e-05
-3.31979e-12
1.17012e-05
1.53105e-12
1.17012e-05
3.1668e-12
1.17012e-05
2.32692e-12
1.17012e-05
-1.23522e-12
1.17012e-05
-4.05445e-12
1.17012e-05
-6.57672e-12
1.17012e-05
-8.78371e-12
1.17012e-05
-1.04372e-11
1.17012e-05
-1.14935e-11
1.17012e-05
-1.18122e-11
1.17012e-05
-1.12707e-11
1.17012e-05
-1.00012e-11
1.17012e-05
-8.1542e-12
1.17012e-05
-5.68072e-12
1.17012e-05
-2.54356e-12
1.17012e-05
1.02567e-12
1.17012e-05
4.66993e-12
1.17012e-05
8.23095e-12
1.17012e-05
1.16348e-11
1.17012e-05
1.47008e-11
1.17012e-05
1.72678e-11
1.17012e-05
1.92743e-11
1.17012e-05
2.0801e-11
1.17011e-05
2.20934e-11
1.17011e-05
2.31944e-11
1.17011e-05
2.38349e-11
1.17011e-05
2.39074e-11
1.17011e-05
2.35755e-11
1.17011e-05
2.30196e-11
1.17011e-05
2.24118e-11
1.1701e-05
2.1767e-11
1.1701e-05
2.09079e-11
1.1701e-05
1.97827e-11
1.1701e-05
1.84794e-11
1.1701e-05
1.70608e-11
1.1701e-05
1.56327e-11
1.1701e-05
1.43203e-11
1.1701e-05
1.31752e-11
1.1701e-05
1.18028e-11
1.1701e-05
1.00988e-11
1.1701e-05
7.62672e-12
1.1701e-05
5.32005e-12
1.1701e-05
3.7581e-12
1.1701e-05
2.71991e-12
1.1701e-05
2.39828e-12
1.1701e-05
1.9703e-12
1.17009e-05
1.39929e-12
1.17009e-05
7.77698e-13
1.17009e-05
-1.10037e-13
1.17009e-05
-1.24931e-12
1.1701e-05
-2.71128e-12
1.1701e-05
-4.10928e-12
1.1701e-05
-5.67868e-12
1.1701e-05
-6.10345e-12
1.1701e-05
-6.57002e-12
1.1701e-05
-4.66657e-12
1.1701e-05
-1.9219e-12
1.1701e-05
2.64163e-12
1.1701e-05
8.78573e-12
1.1701e-05
1.01274e-11
1.1701e-05
8.7821e-12
1.1701e-05
4.96768e-12
1.1701e-05
-2.72708e-13
1.1701e-05
-5.79648e-12
1.1701e-05
-1.10028e-11
1.1701e-05
-1.5343e-11
1.1701e-05
-1.88578e-11
1.1701e-05
-2.10771e-11
1.1701e-05
-2.24236e-11
1.1701e-05
-2.22575e-11
1.1701e-05
-1.84216e-11
1.1701e-05
-1.89704e-11
1.1701e-05
-9.92043e-12
1.21015e-11
1.69067e-05
-2.53475e-11
1.69067e-05
-9.94512e-11
1.69068e-05
-1.20719e-10
1.69068e-05
-8.52398e-11
1.69068e-05
-2.6356e-11
1.69068e-05
3.04769e-11
1.69068e-05
7.46915e-11
1.69067e-05
1.04445e-10
1.69067e-05
1.21254e-10
1.69066e-05
1.27697e-10
1.69065e-05
1.26515e-10
1.69065e-05
1.19957e-10
1.69064e-05
1.09772e-10
1.69064e-05
9.7454e-11
1.69064e-05
8.42405e-11
1.69063e-05
7.08632e-11
1.69063e-05
5.75464e-11
1.69063e-05
4.45374e-11
1.69063e-05
3.21707e-11
1.69063e-05
2.04475e-11
1.69063e-05
9.25254e-12
1.69063e-05
-1.3367e-12
1.69063e-05
-1.11091e-11
1.69063e-05
-1.98164e-11
1.69063e-05
-2.74113e-11
1.69063e-05
-3.41449e-11
1.69063e-05
-4.03286e-11
1.69063e-05
-4.61022e-11
1.69064e-05
-5.13227e-11
1.69064e-05
-5.57953e-11
1.69064e-05
-5.96051e-11
1.69064e-05
-6.30307e-11
1.69065e-05
-6.6167e-11
1.69065e-05
-6.88493e-11
1.69065e-05
-7.08219e-11
1.69066e-05
-7.2194e-11
1.69066e-05
-7.31882e-11
1.69066e-05
-7.40292e-11
1.69067e-05
-7.38664e-11
1.69067e-05
-7.29068e-11
1.69067e-05
-6.94054e-11
1.69068e-05
-6.49726e-11
1.69068e-05
-5.59644e-11
1.69068e-05
-4.43055e-11
1.69068e-05
-2.93656e-11
1.69068e-05
-1.07483e-11
1.69068e-05
-1.59774e-12
1.69068e-05
2.06468e-12
1.69068e-05
1.36868e-12
1.69068e-05
-3.84077e-12
1.69068e-05
-8.31442e-12
1.69068e-05
-1.23603e-11
1.69069e-05
-1.58751e-11
1.69069e-05
-1.84836e-11
1.69069e-05
-2.00631e-11
1.69069e-05
-2.03622e-11
1.69069e-05
-1.91717e-11
1.69069e-05
-1.66955e-11
1.69069e-05
-1.31909e-11
1.69069e-05
-8.61412e-12
1.69069e-05
-2.93252e-12
1.69069e-05
3.46242e-12
1.69069e-05
9.97044e-12
1.69069e-05
1.62966e-11
1.69069e-05
2.22972e-11
1.69069e-05
2.76781e-11
1.69068e-05
3.21807e-11
1.69068e-05
3.57037e-11
1.69068e-05
3.83833e-11
1.69068e-05
4.06074e-11
1.69068e-05
4.24514e-11
1.69068e-05
4.35069e-11
1.69067e-05
4.36053e-11
1.69067e-05
4.29945e-11
1.69067e-05
4.19764e-11
1.69067e-05
4.08437e-11
1.69067e-05
3.96353e-11
1.69066e-05
3.80762e-11
1.69066e-05
3.60728e-11
1.69066e-05
3.37643e-11
1.69066e-05
3.12676e-11
1.69066e-05
2.87534e-11
1.69066e-05
2.64246e-11
1.69066e-05
2.43493e-11
1.69065e-05
2.19225e-11
1.69065e-05
1.89133e-11
1.69065e-05
1.46741e-11
1.69065e-05
1.06433e-11
1.69065e-05
7.79988e-12
1.69065e-05
5.89906e-12
1.69065e-05
5.18754e-12
1.69065e-05
4.40258e-12
1.69065e-05
3.39632e-12
1.69065e-05
2.2539e-12
1.69065e-05
6.40618e-13
1.69065e-05
-1.47021e-12
1.69065e-05
-4.15381e-12
1.69065e-05
-6.84947e-12
1.69065e-05
-9.79779e-12
1.69065e-05
-1.10629e-11
1.69065e-05
-1.2216e-11
1.69065e-05
-9.6737e-12
1.69065e-05
-5.53221e-12
1.69065e-05
1.69964e-12
1.69065e-05
1.14869e-11
1.69065e-05
1.41685e-11
1.69065e-05
1.232e-11
1.69065e-05
6.33111e-12
1.69065e-05
-2.1437e-12
1.69065e-05
-1.12745e-11
1.69065e-05
-1.99685e-11
1.69066e-05
-2.72938e-11
1.69066e-05
-3.32298e-11
1.69066e-05
-3.70755e-11
1.69066e-05
-3.94377e-11
1.69066e-05
-3.92428e-11
1.69066e-05
-3.32125e-11
1.69067e-05
-3.40626e-11
1.69067e-05
-1.66906e-11
1.29931e-11
2.23331e-05
-6.7289e-11
2.23331e-05
-1.65334e-10
2.23332e-05
-1.77306e-10
2.23332e-05
-1.14824e-10
2.23332e-05
-2.47541e-11
2.23332e-05
5.94568e-11
2.23331e-05
1.24172e-10
2.23331e-05
1.67295e-10
2.2333e-05
1.91228e-10
2.23329e-05
1.99816e-10
2.23329e-05
1.97083e-10
2.23328e-05
1.86345e-10
2.23327e-05
1.70202e-10
2.23327e-05
1.50875e-10
2.23326e-05
1.30206e-10
2.23326e-05
1.09321e-10
2.23326e-05
8.85919e-11
2.23325e-05
6.83685e-11
2.23325e-05
4.91175e-11
2.23325e-05
3.08793e-11
2.23325e-05
1.35228e-11
2.23325e-05
-2.85314e-12
2.23325e-05
-1.79545e-11
2.23325e-05
-3.1431e-11
2.23325e-05
-4.32303e-11
2.23326e-05
-5.37173e-11
2.23326e-05
-6.33212e-11
2.23326e-05
-7.22402e-11
2.23326e-05
-8.03037e-11
2.23327e-05
-8.72425e-11
2.23327e-05
-9.31584e-11
2.23327e-05
-9.84343e-11
2.23328e-05
-1.03223e-10
2.23328e-05
-1.07309e-10
2.23329e-05
-1.10353e-10
2.23329e-05
-1.12503e-10
2.23329e-05
-1.14084e-10
2.2333e-05
-1.15372e-10
2.2333e-05
-1.15237e-10
2.23331e-05
-1.13866e-10
2.23331e-05
-1.08945e-10
2.23331e-05
-1.02443e-10
2.23332e-05
-8.94885e-11
2.23332e-05
-7.25101e-11
2.23332e-05
-5.06042e-11
2.23332e-05
-2.34777e-11
2.23332e-05
-8.79308e-12
2.23333e-05
-2.07468e-12
2.23333e-05
-1.98762e-12
2.23333e-05
-8.52475e-12
2.23333e-05
-1.45887e-11
2.23333e-05
-2.01879e-11
2.23333e-05
-2.50247e-11
2.23333e-05
-2.85602e-11
2.23333e-05
-3.05514e-11
2.23333e-05
-3.05978e-11
2.23333e-05
-2.83884e-11
2.23333e-05
-2.4209e-11
2.23333e-05
-1.84452e-11
2.23333e-05
-1.10788e-11
2.23333e-05
-2.10775e-12
2.23333e-05
7.87858e-12
2.23333e-05
1.79939e-11
2.23333e-05
2.7775e-11
2.23333e-05
3.69881e-11
2.23333e-05
4.52094e-11
2.23333e-05
5.20807e-11
2.23332e-05
5.74652e-11
2.23332e-05
6.15591e-11
2.23332e-05
6.49023e-11
2.23332e-05
6.75996e-11
2.23331e-05
6.91069e-11
2.23331e-05
6.92039e-11
2.23331e-05
6.82267e-11
2.23331e-05
6.66097e-11
2.2333e-05
6.47874e-11
2.2333e-05
6.28334e-11
2.2333e-05
6.03692e-11
2.2333e-05
5.72546e-11
2.2333e-05
5.36894e-11
2.23329e-05
4.98593e-11
2.23329e-05
4.60025e-11
2.23329e-05
4.24004e-11
2.23329e-05
3.91344e-11
2.23329e-05
3.537e-11
2.23329e-05
3.07224e-11
2.23329e-05
2.43378e-11
2.23328e-05
1.81977e-11
2.23328e-05
1.37305e-11
2.23328e-05
1.07112e-11
2.23328e-05
9.43115e-12
2.23328e-05
8.15849e-12
2.23328e-05
6.58786e-12
2.23328e-05
4.74986e-12
2.23328e-05
2.1631e-12
2.23328e-05
-1.25332e-12
2.23328e-05
-5.57736e-12
2.23328e-05
-1.00552e-11
2.23328e-05
-1.4906e-11
2.23328e-05
-1.75444e-11
2.23328e-05
-1.9857e-11
2.23329e-05
-1.7035e-11
2.23329e-05
-1.16615e-11
2.23329e-05
-1.6941e-12
2.23329e-05
1.19899e-11
2.23329e-05
1.63731e-11
2.23329e-05
1.42633e-11
2.23329e-05
6.09893e-12
2.23329e-05
-5.82881e-12
2.23329e-05
-1.89583e-11
2.23329e-05
-3.15991e-11
2.23329e-05
-4.2353e-11
2.23329e-05
-5.10947e-11
2.23329e-05
-5.68915e-11
2.2333e-05
-6.05082e-11
2.2333e-05
-6.03528e-11
2.2333e-05
-5.20196e-11
2.2333e-05
-5.32951e-11
2.2333e-05
-2.41893e-11
6.30833e-12
2.77969e-05
-1.31892e-10
2.7797e-05
-2.41352e-10
2.7797e-05
-2.31027e-10
2.7797e-05
-1.35608e-10
2.7797e-05
-1.26457e-11
2.7797e-05
9.93003e-11
2.77969e-05
1.84597e-10
2.77968e-05
2.41075e-10
2.77968e-05
2.71985e-10
2.77967e-05
2.82401e-10
2.77966e-05
2.77608e-10
2.77965e-05
2.61989e-10
2.77965e-05
2.39035e-10
2.77964e-05
2.11734e-10
2.77963e-05
1.82588e-10
2.77963e-05
1.53156e-10
2.77963e-05
1.23978e-10
2.77962e-05
9.55089e-11
2.77962e-05
6.8356e-11
2.77962e-05
4.26276e-11
2.77962e-05
1.81966e-11
2.77962e-05
-4.81254e-12
2.77962e-05
-2.60267e-11
2.77962e-05
-4.49953e-11
2.77962e-05
-6.16796e-11
2.77963e-05
-7.65613e-11
2.77963e-05
-9.01657e-11
2.77963e-05
-1.02748e-10
2.77964e-05
-1.14125e-10
2.77964e-05
-1.23955e-10
2.77964e-05
-1.32345e-10
2.77965e-05
-1.39791e-10
2.77965e-05
-1.46507e-10
2.77966e-05
-1.5223e-10
2.77966e-05
-1.56545e-10
2.77967e-05
-1.59658e-10
2.77967e-05
-1.61985e-10
2.77968e-05
-1.63838e-10
2.77968e-05
-1.63812e-10
2.77969e-05
-1.62072e-10
2.77969e-05
-1.55745e-10
2.77969e-05
-1.47083e-10
2.7797e-05
-1.30007e-10
2.7797e-05
-1.07399e-10
2.7797e-05
-7.80526e-11
2.77971e-05
-4.17602e-11
2.77971e-05
-2.05667e-11
2.77971e-05
-9.79459e-12
2.77971e-05
-8.1463e-12
2.77971e-05
-1.54589e-11
2.77971e-05
-2.28077e-11
2.77971e-05
-2.97855e-11
2.77971e-05
-3.5798e-11
2.77971e-05
-4.01107e-11
2.77971e-05
-4.2313e-11
2.77972e-05
-4.1821e-11
2.77972e-05
-3.82176e-11
2.77972e-05
-3.18816e-11
2.77972e-05
-2.33422e-11
2.77972e-05
-1.26236e-11
2.77972e-05
2.19184e-13
2.77972e-05
1.43636e-11
2.77972e-05
2.86149e-11
2.77971e-05
4.23322e-11
2.77971e-05
5.51768e-11
2.77971e-05
6.65914e-11
2.77971e-05
7.61248e-11
2.77971e-05
8.36137e-11
2.7797e-05
8.93162e-11
2.7797e-05
9.39128e-11
2.7797e-05
9.75285e-11
2.77969e-05
9.94998e-11
2.77969e-05
9.9575e-11
2.77969e-05
9.81783e-11
2.77969e-05
9.58741e-11
2.77968e-05
9.32518e-11
2.77968e-05
9.04207e-11
2.77968e-05
8.68949e-11
2.77967e-05
8.24984e-11
2.77967e-05
7.75044e-11
2.77967e-05
7.21691e-11
2.77967e-05
6.67935e-11
2.77967e-05
6.17283e-11
2.77966e-05
5.70628e-11
2.77966e-05
5.17262e-11
2.77966e-05
4.5172e-11
2.77966e-05
3.63672e-11
2.77966e-05
2.78511e-11
2.77966e-05
2.15131e-11
2.77966e-05
1.71686e-11
2.77966e-05
1.51512e-11
2.77966e-05
1.32541e-11
2.77966e-05
1.09814e-11
2.77966e-05
8.26319e-12
2.77966e-05
4.44858e-12
2.77966e-05
-6.01938e-13
2.77966e-05
-6.95987e-12
2.77966e-05
-1.36721e-11
2.77966e-05
-2.09199e-11
2.77966e-05
-2.5462e-11
2.77966e-05
-2.94253e-11
2.77966e-05
-2.67674e-11
2.77966e-05
-2.04677e-11
2.77966e-05
-7.90657e-12
2.77966e-05
9.69545e-12
2.77966e-05
1.60622e-11
2.77966e-05
1.40495e-11
2.77966e-05
3.97432e-12
2.77966e-05
-1.12956e-11
2.77966e-05
-2.8476e-11
2.77966e-05
-4.52157e-11
2.77967e-05
-5.95955e-11
2.77967e-05
-7.13609e-11
2.77967e-05
-7.93501e-11
2.77967e-05
-8.44398e-11
2.77967e-05
-8.44363e-11
2.77968e-05
-7.38946e-11
2.77968e-05
-7.5737e-11
2.77968e-05
-3.17901e-11
-1.21938e-11
3.30734e-05
-2.1117e-10
3.30735e-05
-3.15192e-10
3.30735e-05
-2.73532e-10
3.30735e-05
-1.43967e-10
3.30735e-05
9.5328e-12
3.30735e-05
1.46456e-10
3.30734e-05
2.50344e-10
3.30733e-05
3.1903e-10
3.30732e-05
3.56366e-10
3.30732e-05
3.68411e-10
3.30731e-05
3.61498e-10
3.3073e-05
3.40947e-10
3.30729e-05
3.11084e-10
3.30729e-05
2.75655e-10
3.30728e-05
2.37813e-10
3.30728e-05
1.99555e-10
3.30727e-05
1.61591e-10
3.30727e-05
1.24486e-10
3.30727e-05
8.89933e-11
3.30727e-05
5.53204e-11
3.30726e-05
2.33727e-11
3.30726e-05
-6.69696e-12
3.30727e-05
-3.44342e-11
3.30727e-05
-5.93023e-11
3.30727e-05
-8.13e-11
3.30727e-05
-1.01012e-10
3.30727e-05
-1.19021e-10
3.30728e-05
-1.35629e-10
3.30728e-05
-1.50657e-10
3.30729e-05
-1.6369e-10
3.30729e-05
-1.74841e-10
3.30729e-05
-1.84725e-10
3.3073e-05
-1.93608e-10
3.3073e-05
-2.01172e-10
3.30731e-05
-2.06954e-10
3.30731e-05
-2.11231e-10
3.30732e-05
-2.14494e-10
3.30732e-05
-2.17064e-10
3.30733e-05
-2.17275e-10
3.30734e-05
-2.15292e-10
3.30734e-05
-2.07692e-10
3.30735e-05
-1.96943e-10
3.30735e-05
-1.75817e-10
3.30735e-05
-1.47605e-10
3.30736e-05
-1.10755e-10
3.30736e-05
-6.5064e-11
3.30736e-05
-3.6709e-11
3.30736e-05
-2.10536e-11
3.30736e-05
-1.70597e-11
3.30736e-05
-2.44706e-11
3.30736e-05
-3.26225e-11
3.30737e-05
-4.06295e-11
3.30737e-05
-4.75377e-11
3.30737e-05
-5.23813e-11
3.30737e-05
-5.45362e-11
3.30737e-05
-5.32083e-11
3.30737e-05
-4.78844e-11
3.30737e-05
-3.90542e-11
3.30737e-05
-2.73937e-11
3.30737e-05
-1.29806e-11
3.30737e-05
4.04931e-12
3.30737e-05
2.26194e-11
3.30737e-05
4.12318e-11
3.30737e-05
5.90813e-11
3.30737e-05
7.57195e-11
3.30736e-05
9.04617e-11
3.30736e-05
1.02783e-10
3.30736e-05
1.125e-10
3.30736e-05
1.19924e-10
3.30735e-05
1.25851e-10
3.30735e-05
1.30414e-10
3.30735e-05
1.32853e-10
3.30734e-05
1.32916e-10
3.30734e-05
1.31106e-10
3.30734e-05
1.28106e-10
3.30733e-05
1.24657e-10
3.30733e-05
1.20895e-10
3.30733e-05
1.16232e-10
3.30732e-05
1.10478e-10
3.30732e-05
1.03993e-10
3.30732e-05
9.70959e-11
3.30732e-05
9.01285e-11
3.30731e-05
8.34976e-11
3.30731e-05
7.72977e-11
3.30731e-05
7.02288e-11
3.30731e-05
6.15954e-11
3.30731e-05
5.02284e-11
3.30731e-05
3.92144e-11
3.30731e-05
3.08756e-11
3.3073e-05
2.50697e-11
3.3073e-05
2.21705e-11
3.3073e-05
1.95131e-11
3.3073e-05
1.63897e-11
3.3073e-05
1.2597e-11
3.3073e-05
7.30347e-12
3.3073e-05
3.21051e-13
3.3073e-05
-8.4023e-12
3.3073e-05
-1.77205e-11
3.3073e-05
-2.77709e-11
3.3073e-05
-3.4664e-11
3.30731e-05
-4.06987e-11
3.30731e-05
-3.86286e-11
3.30731e-05
-3.17445e-11
3.30731e-05
-1.68366e-11
3.30731e-05
4.57847e-12
3.30731e-05
1.31616e-11
3.30731e-05
1.16813e-11
3.30731e-05
1.69566e-13
3.30731e-05
-1.80558e-11
3.30731e-05
-3.90339e-11
3.30731e-05
-5.97335e-11
3.30731e-05
-7.77027e-11
3.30732e-05
-9.25557e-11
3.30732e-05
-1.02901e-10
3.30732e-05
-1.09663e-10
3.30732e-05
-1.09962e-10
3.30733e-05
-9.7518e-11
3.30733e-05
-9.98835e-11
3.30733e-05
-3.97263e-11
-4.25895e-11
3.80176e-05
-2.89708e-10
3.80177e-05
-3.76899e-10
3.80177e-05
-3.01789e-10
3.80177e-05
-1.40695e-10
3.80177e-05
3.8882e-11
3.80177e-05
1.96505e-10
3.80176e-05
3.15878e-10
3.80175e-05
3.94951e-10
3.80174e-05
4.37932e-10
3.80173e-05
4.51532e-10
3.80173e-05
4.42812e-10
3.80172e-05
4.17815e-10
3.80171e-05
3.81594e-10
3.80171e-05
3.38588e-10
3.8017e-05
2.92549e-10
3.8017e-05
2.45864e-10
3.80169e-05
1.99407e-10
3.80169e-05
1.53861e-10
3.80169e-05
1.1013e-10
3.80169e-05
6.85436e-11
3.80168e-05
2.90701e-11
3.80169e-05
-8.09796e-12
3.80169e-05
-4.24203e-11
3.80169e-05
-7.3299e-11
3.80169e-05
-1.008e-10
3.80169e-05
-1.25577e-10
3.80169e-05
-1.48217e-10
3.8017e-05
-1.69062e-10
3.8017e-05
-1.87943e-10
3.80171e-05
-2.04376e-10
3.80171e-05
-2.18496e-10
3.80171e-05
-2.3104e-10
3.80172e-05
-2.42296e-10
3.80172e-05
-2.51877e-10
3.80173e-05
-2.59313e-10
3.80174e-05
-2.64973e-10
3.80174e-05
-2.69383e-10
3.80175e-05
-2.72845e-10
3.80175e-05
-2.73465e-10
3.80176e-05
-2.71425e-10
3.80176e-05
-2.62773e-10
3.80177e-05
-2.50127e-10
3.80177e-05
-2.25189e-10
3.80178e-05
-1.91636e-10
3.80178e-05
-1.47504e-10
3.80178e-05
-9.24856e-11
3.80179e-05
-5.66271e-11
3.80179e-05
-3.55085e-11
3.80179e-05
-2.85005e-11
3.80179e-05
-3.53247e-11
3.80179e-05
-4.37025e-11
3.80179e-05
-5.22651e-11
3.80179e-05
-5.96797e-11
3.80179e-05
-6.47186e-11
3.8018e-05
-6.65024e-11
3.8018e-05
-6.40135e-11
3.8018e-05
-5.66751e-11
3.8018e-05
-4.51104e-11
3.8018e-05
-3.01386e-11
3.8018e-05
-1.18933e-11
3.8018e-05
9.38627e-12
3.8018e-05
3.23678e-11
3.8018e-05
5.52862e-11
3.80179e-05
7.72002e-11
3.80179e-05
9.75548e-11
3.80179e-05
1.15556e-10
3.80179e-05
1.30635e-10
3.80178e-05
1.42589e-10
3.80178e-05
1.51759e-10
3.80178e-05
1.5903e-10
3.80177e-05
1.64525e-10
3.80177e-05
1.67424e-10
3.80177e-05
1.67505e-10
3.80176e-05
1.65339e-10
3.80176e-05
1.61704e-10
3.80176e-05
1.57475e-10
3.80175e-05
1.52798e-10
3.80175e-05
1.46992e-10
3.80175e-05
1.3989e-10
3.80174e-05
1.31955e-10
3.80174e-05
1.23541e-10
3.80174e-05
1.15001e-10
3.80174e-05
1.06781e-10
3.80173e-05
9.8981e-11
3.80173e-05
9.00909e-11
3.80173e-05
7.93019e-11
3.80173e-05
6.53556e-11
3.80173e-05
5.1851e-11
3.80173e-05
4.14859e-11
3.80173e-05
3.41459e-11
3.80173e-05
3.02486e-11
3.80172e-05
2.66982e-11
3.80172e-05
2.25633e-11
3.80172e-05
1.74881e-11
3.80172e-05
1.04661e-11
3.80172e-05
1.2833e-12
3.80172e-05
-1.00794e-11
3.80172e-05
-2.23012e-11
3.80172e-05
-3.54688e-11
3.80173e-05
-4.50579e-11
3.80173e-05
-5.34876e-11
3.80173e-05
-5.23558e-11
3.80173e-05
-4.51982e-11
3.80173e-05
-2.82033e-11
3.80173e-05
-3.11718e-12
3.80173e-05
7.87485e-12
3.80173e-05
7.36986e-12
3.80173e-05
-5.01148e-12
3.80173e-05
-2.56392e-11
3.80173e-05
-4.99425e-11
3.80174e-05
-7.42363e-11
3.80174e-05
-9.55674e-11
3.80174e-05
-1.13436e-10
3.80174e-05
-1.2621e-10
3.80174e-05
-1.34795e-10
3.80175e-05
-1.3554e-10
3.80175e-05
-1.21658e-10
3.80175e-05
-1.24161e-10
3.80175e-05
-4.89658e-11
-7.86154e-11
4.26014e-05
-3.5313e-10
4.26014e-05
-4.20848e-10
4.26014e-05
-3.16187e-10
4.26014e-05
-1.28519e-10
4.26014e-05
7.22051e-11
4.26014e-05
2.46147e-10
4.26013e-05
3.7769e-10
4.26012e-05
4.65076e-10
4.26011e-05
5.12749e-10
4.26011e-05
5.27794e-10
4.2601e-05
5.17675e-10
4.26009e-05
4.88935e-10
4.26009e-05
4.47234e-10
4.26008e-05
3.97604e-10
4.26007e-05
3.44294e-10
4.26007e-05
2.89997e-10
4.26007e-05
2.35745e-10
4.26006e-05
1.82349e-10
4.26006e-05
1.30855e-10
4.26006e-05
8.17318e-11
4.26006e-05
3.50385e-11
4.26006e-05
-8.9734e-12
4.26006e-05
-4.96769e-11
4.26006e-05
-8.64535e-11
4.26006e-05
-1.19459e-10
4.26007e-05
-1.49367e-10
4.26007e-05
-1.76716e-10
4.26007e-05
-2.01879e-10
4.26008e-05
-2.24689e-10
4.26008e-05
-2.44618e-10
4.26008e-05
-2.61852e-10
4.26009e-05
-2.77234e-10
4.26009e-05
-2.91016e-10
4.2601e-05
-3.02747e-10
4.2601e-05
-3.12009e-10
4.26011e-05
-3.19275e-10
4.26012e-05
-3.25051e-10
4.26012e-05
-3.29582e-10
4.26013e-05
-3.30795e-10
4.26013e-05
-3.28917e-10
4.26014e-05
-3.1947e-10
4.26014e-05
-3.05178e-10
4.26015e-05
-2.76755e-10
4.26015e-05
-2.3824e-10
4.26016e-05
-1.87184e-10
4.26016e-05
-1.23076e-10
4.26016e-05
-7.96179e-11
4.26016e-05
-5.27129e-11
4.26017e-05
-4.22025e-11
4.26017e-05
-4.78398e-11
4.26017e-05
-5.58562e-11
4.26017e-05
-6.44366e-11
4.26017e-05
-7.18844e-11
4.26017e-05
-7.66877e-11
4.26017e-05
-7.76839e-11
4.26017e-05
-7.36445e-11
4.26017e-05
-6.39802e-11
4.26018e-05
-4.94774e-11
4.26018e-05
-3.10895e-11
4.26017e-05
-9.00769e-12
4.26017e-05
1.64101e-11
4.26017e-05
4.3594e-11
4.26017e-05
7.0568e-11
4.26017e-05
9.62878e-11
4.26017e-05
1.20102e-10
4.26016e-05
1.41136e-10
4.26016e-05
1.58816e-10
4.26016e-05
1.72915e-10
4.26016e-05
1.8377e-10
4.26015e-05
1.92321e-10
4.26015e-05
1.98677e-10
4.26015e-05
2.02e-10
4.26014e-05
2.02126e-10
4.26014e-05
1.99681e-10
4.26014e-05
1.9551e-10
4.26013e-05
1.90592e-10
4.26013e-05
1.85051e-10
4.26013e-05
1.78133e-10
4.26012e-05
1.69747e-10
4.26012e-05
1.60467e-10
4.26012e-05
1.50647e-10
4.26011e-05
1.40615e-10
4.26011e-05
1.30843e-10
4.26011e-05
1.21428e-10
4.26011e-05
1.10681e-10
4.26011e-05
9.77358e-11
4.2601e-05
8.12877e-11
4.2601e-05
6.53929e-11
4.2601e-05
5.30498e-11
4.2601e-05
4.41509e-11
4.2601e-05
3.91634e-11
4.2601e-05
3.45882e-11
4.2601e-05
2.92678e-11
4.2601e-05
2.26854e-11
4.2601e-05
1.36795e-11
4.2601e-05
2.04079e-12
4.2601e-05
-1.2208e-11
4.2601e-05
-2.75904e-11
4.2601e-05
-4.41316e-11
4.2601e-05
-5.66807e-11
4.2601e-05
-6.77467e-11
4.2601e-05
-6.78252e-11
4.2601e-05
-6.06439e-11
4.26011e-05
-4.17749e-11
4.26011e-05
-1.31355e-11
4.26011e-05
4.23384e-13
4.26011e-05
1.28403e-12
4.26011e-05
-1.14139e-11
4.26011e-05
-3.38341e-11
4.26011e-05
-6.08689e-11
4.26011e-05
-8.82457e-11
4.26011e-05
-1.12581e-10
4.26012e-05
-1.33283e-10
4.26012e-05
-1.48457e-10
4.26012e-05
-1.58935e-10
4.26012e-05
-1.60215e-10
4.26013e-05
-1.4542e-10
4.26013e-05
-1.47356e-10
4.26013e-05
-6.02793e-11
-1.12345e-10
4.68664e-05
-3.93644e-10
4.68665e-05
-4.44287e-10
4.68665e-05
-3.17236e-10
4.68664e-05
-1.09353e-10
4.68664e-05
1.07488e-10
4.68664e-05
2.93691e-10
4.68663e-05
4.34288e-10
4.68662e-05
5.27898e-10
4.68662e-05
5.79182e-10
4.68661e-05
5.95398e-10
4.6866e-05
5.84157e-10
4.6866e-05
5.5233e-10
4.68659e-05
5.06075e-10
4.68659e-05
4.50892e-10
4.68658e-05
3.91384e-10
4.68658e-05
3.30458e-10
4.68657e-05
2.69296e-10
4.68657e-05
2.08852e-10
4.68657e-05
1.50286e-10
4.68657e-05
9.42095e-11
4.68657e-05
4.08031e-11
4.68657e-05
-9.59852e-12
4.68657e-05
-5.6296e-11
4.68657e-05
-9.87052e-11
4.68657e-05
-1.37079e-10
4.68657e-05
-1.72049e-10
4.68658e-05
-2.04065e-10
4.68658e-05
-2.33506e-10
4.68658e-05
-2.60211e-10
4.68659e-05
-2.83649e-10
4.68659e-05
-3.04095e-10
4.6866e-05
-3.22436e-10
4.6866e-05
-3.38832e-10
4.68661e-05
-3.52792e-10
4.68661e-05
-3.6403e-10
4.68662e-05
-3.73118e-10
4.68662e-05
-3.80464e-10
4.68663e-05
-3.86228e-10
4.68663e-05
-3.88212e-10
4.68664e-05
-3.86708e-10
4.68664e-05
-3.76727e-10
4.68665e-05
-3.61069e-10
4.68666e-05
-3.29515e-10
4.68666e-05
-2.86443e-10
4.68666e-05
-2.2885e-10
4.68667e-05
-1.55955e-10
4.68667e-05
-1.0497e-10
4.68667e-05
-7.21639e-11
4.68667e-05
-5.78454e-11
4.68667e-05
-6.18262e-11
4.68668e-05
-6.89483e-11
4.68668e-05
-7.70002e-11
4.68668e-05
-8.39479e-11
4.68668e-05
-8.79893e-11
4.68668e-05
-8.76771e-11
4.68668e-05
-8.16129e-11
4.68668e-05
-6.92674e-11
4.68668e-05
-5.16202e-11
4.68668e-05
-2.9748e-11
4.68668e-05
-3.90209e-12
4.68668e-05
2.54367e-11
4.68668e-05
5.64987e-11
4.68668e-05
8.71597e-11
4.68668e-05
1.16304e-10
4.68667e-05
1.43198e-10
4.68667e-05
1.66931e-10
4.68667e-05
1.8696e-10
4.68667e-05
2.03028e-10
4.68666e-05
2.15425e-10
4.68666e-05
2.25112e-10
4.68666e-05
2.32196e-10
4.68665e-05
2.35863e-10
4.68665e-05
2.36038e-10
4.68665e-05
2.33383e-10
4.68664e-05
2.28784e-10
4.68664e-05
2.23278e-10
4.68664e-05
2.16934e-10
4.68663e-05
2.08951e-10
4.68663e-05
1.99371e-10
4.68663e-05
1.88875e-10
4.68662e-05
1.77788e-10
4.68662e-05
1.66384e-10
4.68662e-05
1.55133e-10
4.68662e-05
1.44124e-10
4.68661e-05
1.31524e-10
4.68661e-05
1.16477e-10
4.68661e-05
9.76691e-11
4.68661e-05
7.95436e-11
4.68661e-05
6.53176e-11
4.68661e-05
5.48649e-11
4.68661e-05
4.87088e-11
4.68661e-05
4.29748e-11
4.6866e-05
3.6281e-11
4.6866e-05
2.79492e-11
4.6866e-05
1.66913e-11
4.6866e-05
2.33499e-12
4.6866e-05
-1.50453e-11
4.6866e-05
-3.3831e-11
4.68661e-05
-5.3968e-11
4.68661e-05
-6.96878e-11
4.68661e-05
-8.3572e-11
4.68661e-05
-8.50569e-11
4.68661e-05
-7.80251e-11
4.68661e-05
-5.74159e-11
4.68661e-05
-2.52818e-11
4.68662e-05
-9.01511e-12
4.68662e-05
-6.46775e-12
4.68662e-05
-1.89926e-11
4.68662e-05
-4.26045e-11
4.68662e-05
-7.17302e-11
4.68662e-05
-1.01613e-10
4.68662e-05
-1.28529e-10
4.68662e-05
-1.51806e-10
4.68663e-05
-1.69259e-10
4.68663e-05
-1.81608e-10
4.68663e-05
-1.83436e-10
4.68663e-05
-1.68232e-10
4.68664e-05
-1.68733e-10
4.68664e-05
-7.36929e-11
-1.38905e-10
5.08756e-05
-4.10025e-10
5.08756e-05
-4.46583e-10
5.08756e-05
-3.04795e-10
5.08756e-05
-8.35997e-11
5.08756e-05
1.44189e-10
5.08755e-05
3.38801e-10
5.08755e-05
4.85556e-10
5.08754e-05
5.83368e-10
5.08754e-05
6.37084e-10
5.08753e-05
6.53994e-10
5.08752e-05
6.41682e-10