/*--------------------------------*- C++ -*----------------------------------*\
  =========                 |
  \\      /  F ield         | OpenFOAM: The Open Source CFD Toolbox
   \\    /   O peration     | Website:  https://openfoam.org
    \\  /    A nd           | Version:  7
     \\/     M anipulation  |
\*---------------------------------------------------------------------------*/
FoamFile
{
    version     2.0;
    format      ascii;
    class       volVectorField;
    location    "19000";
    object      U;
}
// * * * * * * * * * * * * * * * * * * * * * * * * * * * * * * * * * * * * * //

dimensions      [0 1 -1 0 0 0 0];

internalField   nonuniform List<vector> 
24000
(
(0.00434512 9.27938e-11 8.40001e-16)
(0.00434512 -4.37595e-11 8.33935e-16)
(0.00434514 -1.23788e-10 8.38557e-16)
(0.00434516 -1.13559e-10 7.65677e-16)
(0.00434517 -6.64241e-11 4.76032e-16)
(0.00434517 -1.42808e-11 7.56748e-16)
(0.00434516 2.84342e-11 5.26433e-16)
(0.00434515 5.86031e-11 7.70965e-16)
(0.00434514 7.68937e-11 8.09661e-16)
(0.00434513 8.55273e-11 5.37083e-16)
(0.00434511 8.73116e-11 7.83037e-16)
(0.0043451 8.42753e-11 7.91126e-16)
(0.00434508 7.79268e-11 7.94857e-16)
(0.00434507 6.97731e-11 7.74151e-16)
(0.00434506 6.10158e-11 7.28592e-16)
(0.00434505 5.20664e-11 7.6647e-16)
(0.00434504 4.27288e-11 7.65077e-16)
(0.00434503 3.34359e-11 7.68328e-16)
(0.00434503 2.48763e-11 7.46901e-16)
(0.00434503 1.66167e-11 7.09351e-16)
(0.00434502 8.33354e-12 7.64096e-16)
(0.00434502 3.78675e-13 7.1123e-16)
(0.00434502 -6.96469e-12 7.38748e-16)
(0.00434503 -1.33524e-11 7.33405e-16)
(0.00434503 -1.87153e-11 6.82655e-16)
(0.00434503 -2.34874e-11 7.54906e-16)
(0.00434504 -2.80809e-11 7.38233e-16)
(0.00434504 -3.26436e-11 7.56255e-16)
(0.00434505 -3.67008e-11 7.36271e-16)
(0.00434505 -3.9921e-11 6.82766e-16)
(0.00434506 -4.26488e-11 7.751e-16)
(0.00434507 -4.55014e-11 7.30831e-16)
(0.00434508 -4.82079e-11 7.39982e-16)
(0.00434509 -5.06731e-11 7.20827e-16)
(0.00434509 -5.19037e-11 6.72037e-16)
(0.0043451 -5.31147e-11 7.51087e-16)
(0.00434511 -5.32119e-11 7.30328e-16)
(0.00434512 -5.49297e-11 7.4021e-16)
(0.00434513 -5.28013e-11 7.03904e-16)
(0.00434514 -5.31976e-11 6.58624e-16)
(0.00434515 -4.54999e-11 6.95267e-16)
(0.00434516 -4.26521e-11 9.46681e-16)
(0.00434516 -2.87641e-11 7.56216e-16)
(0.00434517 -1.40724e-11 7.53633e-16)
(0.00434517 4.54908e-13 7.646e-16)
(0.00434517 2.90314e-11 7.74561e-16)
(0.00434517 2.49346e-11 1.00788e-15)
(0.00434517 2.35828e-11 7.95418e-16)
(0.00434517 1.8217e-11 7.85184e-16)
(0.00434517 4.51702e-12 7.91639e-16)
(0.00434517 1.16781e-13 7.98732e-16)
(0.00434517 -6.10742e-12 9.60173e-16)
(0.00434517 -1.10854e-11 8.07095e-16)
(0.00434517 -1.48561e-11 9.95614e-16)
(0.00434517 -1.7695e-11 7.25553e-16)
(0.00434518 -1.93368e-11 8.21428e-16)
(0.00434518 -1.95107e-11 9.88158e-16)
(0.00434518 -1.87733e-11 8.21107e-16)
(0.00434518 -1.73827e-11 9.8874e-16)
(0.00434519 -1.48657e-11 7.131e-16)
(0.00434519 -1.0996e-11 8.27957e-16)
(0.00434519 -6.33801e-12 1.07494e-15)
(0.00434519 -1.67913e-12 8.36945e-16)
(0.00434519 3.03502e-12 1.04636e-15)
(0.00434518 7.83293e-12 7.97859e-16)
(0.00434518 1.21933e-11 8.54884e-16)
(0.00434518 1.57884e-11 1.03557e-15)
(0.00434518 1.85295e-11 8.52823e-16)
(0.00434517 2.05795e-11 1.02131e-15)
(0.00434517 2.2684e-11 8.54938e-16)
(0.00434516 2.48211e-11 8.75788e-16)
(0.00434516 2.59517e-11 1.1018e-15)
(0.00434515 2.59783e-11 8.66252e-16)
(0.00434515 2.55569e-11 1.05264e-15)
(0.00434514 2.4937e-11 7.74184e-16)
(0.00434514 2.4438e-11 8.6113e-16)
(0.00434513 2.39589e-11 1.04159e-15)
(0.00434513 2.28912e-11 8.70907e-16)
(0.00434512 2.12609e-11 1.00535e-15)
(0.00434512 1.9478e-11 8.15015e-16)
(0.00434512 1.73581e-11 6.33994e-16)
(0.00434511 1.53938e-11 8.12646e-16)
(0.00434511 1.35134e-11 8.63113e-16)
(0.00434511 1.25379e-11 6.57646e-16)
(0.00434511 1.01805e-11 7.50864e-16)
(0.0043451 8.02016e-12 6.41887e-16)
(0.0043451 3.15699e-12 7.60074e-16)
(0.0043451 -1.85151e-13 8.37831e-16)
(0.0043451 -1.20094e-12 5.39166e-16)
(0.0043451 -2.5827e-12 7.12465e-16)
(0.0043451 -1.53082e-12 5.27594e-16)
(0.0043451 -2.37646e-12 7.23217e-16)
(0.0043451 -3.35834e-12 8.32116e-16)
(0.0043451 -3.78741e-12 6.36111e-16)
(0.0043451 -5.25324e-12 7.49804e-16)
(0.0043451 -5.95503e-12 5.66454e-16)
(0.0043451 -8.346e-12 7.42162e-16)
(0.0043451 -7.87344e-12 8.27426e-16)
(0.0043451 -1.09014e-11 5.81953e-16)
(0.0043451 -6.04693e-12 7.74478e-16)
(0.00434511 -7.27547e-12 6.4553e-16)
(0.00434511 2.6275e-12 7.56232e-16)
(0.00434511 1.01264e-11 8.3647e-16)
(0.00434511 2.03263e-11 6.21694e-16)
(0.0043451 3.90181e-11 7.3622e-16)
(0.0043451 3.3246e-11 5.56534e-16)
(0.0043451 2.94834e-11 7.81613e-16)
(0.00434509 1.86077e-11 8.41606e-16)
(0.00434509 6.69109e-12 6.5118e-16)
(0.00434509 -4.20692e-12 7.31004e-16)
(0.0043451 -1.42793e-11 6.48837e-16)
(0.0043451 -2.15277e-11 6.12806e-16)
(0.0043451 -2.80379e-11 8.23644e-16)
(0.00434511 -3.09087e-11 6.62396e-16)
(0.00434511 -3.24412e-11 7.763e-16)
(0.00434512 -3.21284e-11 6.50813e-16)
(0.00434512 -2.03944e-11 5.41406e-16)
(0.00434512 -2.04535e-11 8.23788e-16)
(0.00434513 -2.36436e-11 6.74311e-16)
(0.00434513 7.00795e-11 7.25431e-16)
(0.0131154 3.38e-10 2.53841e-15)
(0.0131155 -9.94053e-10 2.52042e-15)
(0.0131155 -1.72024e-09 2.53468e-15)
(0.0131156 -1.42962e-09 2.30124e-15)
(0.0131156 -6.7005e-10 1.86916e-15)
(0.0131156 1.20971e-10 2.29751e-15)
(0.0131156 7.55862e-10 1.79174e-15)
(0.0131155 1.19415e-09 2.34335e-15)
(0.0131155 1.4518e-09 2.44374e-15)
(0.0131155 1.56353e-09 1.99198e-15)
(0.0131154 1.56888e-09 2.37935e-15)
(0.0131154 1.49933e-09 2.3904e-15)
(0.0131153 1.37904e-09 2.4037e-15)
(0.0131153 1.22948e-09 2.34178e-15)
(0.0131152 1.06809e-09 2.20946e-15)
(0.0131152 9.03806e-10 2.31466e-15)
(0.0131152 7.37937e-10 2.3108e-15)
(0.0131152 5.74908e-10 2.32366e-15)
(0.0131152 4.20884e-10 2.25815e-15)
(0.0131152 2.74275e-10 2.14704e-15)
(0.0131152 1.32173e-10 2.30853e-15)
(0.0131151 -3.25303e-12 2.13818e-15)
(0.0131152 -1.2837e-10 2.23241e-15)
(0.0131152 -2.3912e-10 2.21568e-15)
(0.0131152 -3.34631e-10 2.0613e-15)
(0.0131152 -4.19123e-10 2.28253e-15)
(0.0131152 -4.97852e-10 2.23064e-15)
(0.0131152 -5.72801e-10 2.28583e-15)
(0.0131152 -6.40394e-10 2.22233e-15)
(0.0131152 -6.97137e-10 2.06827e-15)
(0.0131153 -7.45378e-10 2.34828e-15)
(0.0131153 -7.90578e-10 2.21411e-15)
(0.0131153 -8.33033e-10 2.23963e-15)
(0.0131153 -8.696e-10 2.17495e-15)
(0.0131154 -8.94754e-10 2.03146e-15)
(0.0131154 -9.12114e-10 2.27186e-15)
(0.0131154 -9.23461e-10 2.20715e-15)
(0.0131154 -9.36384e-10 2.24004e-15)
(0.0131155 -9.28758e-10 2.12927e-15)
(0.0131155 -9.15262e-10 1.98991e-15)
(0.0131155 -8.51258e-10 2.10345e-15)
(0.0131155 -7.8718e-10 2.26562e-15)
(0.0131156 -6.37505e-10 2.28055e-15)
(0.0131156 -4.55419e-10 2.27937e-15)
(0.0131156 -2.31191e-10 2.31184e-15)
(0.0131156 6.69301e-11 2.34296e-15)
(0.0131156 1.50089e-10 2.43759e-15)
(0.0131156 1.65231e-10 2.39835e-15)
(0.0131156 1.24242e-10 2.37665e-15)
(0.0131156 9.15753e-12 2.39406e-15)
(0.0131156 -6.56546e-11 2.41589e-15)
(0.0131156 -1.34326e-10 2.48259e-15)
(0.0131156 -1.94852e-10 2.4337e-15)
(0.0131156 -2.40335e-10 2.55324e-15)
(0.0131156 -2.71499e-10 2.16182e-15)
(0.0131156 -2.84898e-10 2.481e-15)
(0.0131156 -2.77547e-10 2.56788e-15)
(0.0131156 -2.53742e-10 2.47807e-15)
(0.0131156 -2.17068e-10 2.56493e-15)
(0.0131156 -1.64994e-10 2.34514e-15)
(0.0131156 -9.57946e-11 2.50557e-15)
(0.0131156 -1.56601e-11 2.60789e-15)
(0.0131156 6.61816e-11 2.52363e-15)
(0.0131156 1.46878e-10 2.58902e-15)
(0.0131156 2.25295e-10 2.37893e-15)
(0.0131156 2.96269e-10 2.59361e-15)
(0.0131156 3.55601e-10 2.66469e-15)
(0.0131156 4.01694e-10 2.57043e-15)
(0.0131156 4.36792e-10 2.67024e-15)
(0.0131156 4.67947e-10 2.57151e-15)
(0.0131156 4.95898e-10 2.65191e-15)
(0.0131155 5.12076e-10 2.6995e-15)
(0.0131155 5.13907e-10 2.61332e-15)
(0.0131155 5.0657e-10 2.71673e-15)
(0.0131155 4.94641e-10 2.28872e-15)
(0.0131155 4.82296e-10 2.60532e-15)
(0.0131155 4.69387e-10 2.70669e-15)
(0.0131155 4.50415e-10 2.62697e-15)
(0.0131154 4.24579e-10 2.67652e-15)
(0.0131154 3.94688e-10 2.63079e-15)
(0.0131154 3.6171e-10 2.48481e-15)
(0.0131154 3.28738e-10 2.5566e-15)
(0.0131154 2.9884e-10 2.61505e-15)
(0.0131154 2.74302e-10 2.37696e-15)
(0.0131154 2.42099e-10 2.3448e-15)
(0.0131154 2.02682e-10 2.32129e-15)
(0.0131154 1.4111e-10 2.40887e-15)
(0.0131154 8.72263e-11 2.53692e-15)
(0.0131154 5.50141e-11 2.28034e-15)
(0.0131154 3.30177e-11 2.27958e-15)
(0.0131154 3.05361e-11 2.26275e-15)
(0.0131154 2.08432e-11 2.36812e-15)
(0.0131154 7.20449e-12 2.51963e-15)
(0.0131154 -5.87148e-12 2.31517e-15)
(0.0131154 -2.58819e-11 2.19122e-15)
(0.0131154 -4.95113e-11 2.30837e-15)
(0.0131154 -8.16807e-11 2.34661e-15)
(0.0131154 -1.06758e-10 2.5024e-15)
(0.0131154 -1.40079e-10 2.23597e-15)
(0.0131154 -1.32906e-10 2.22018e-15)
(0.0131154 -1.37221e-10 2.32903e-15)
(0.0131154 -6.72424e-11 2.32439e-15)
(0.0131154 1.51174e-11 2.52855e-15)
(0.0131154 1.42813e-10 2.30378e-15)
(0.0131154 3.17549e-10 2.28137e-15)
(0.0131154 3.30097e-10 2.28146e-15)
(0.0131154 2.83991e-10 2.38517e-15)
(0.0131154 1.73903e-10 2.54459e-15)
(0.0131154 3.1545e-11 2.33443e-15)
(0.0131154 -1.11591e-10 2.29506e-15)
(0.0131154 -2.44182e-10 2.32859e-15)
(0.0131154 -3.51638e-10 2.2657e-15)
(0.0131154 -4.39193e-10 2.49799e-15)
(0.0131154 -4.90722e-10 2.36187e-15)
(0.0131154 -5.21224e-10 2.39374e-15)
(0.0131154 -5.1403e-10 2.33621e-15)
(0.0131154 -4.00999e-10 2.24465e-15)
(0.0131154 -4.20101e-10 2.4972e-15)
(0.0131155 -2.4413e-10 2.38288e-15)
(0.0131155 5.11804e-10 2.30977e-15)
(0.0220626 1.54363e-10 4.30631e-15)
(0.0220626 -3.23668e-09 4.23576e-15)
(0.0220627 -4.82832e-09 4.26626e-15)
(0.0220628 -3.7999e-09 3.81191e-15)
(0.0220628 -1.5773e-09 3.59623e-15)
(0.0220628 6.74775e-10 3.92827e-15)
(0.0220628 2.46144e-09 3.76208e-15)
(0.0220627 3.68277e-09 4.00379e-15)
(0.0220626 4.39037e-09 4.09979e-15)
(0.0220626 4.6846e-09 3.81449e-15)
(0.0220625 4.67606e-09 4.06356e-15)
(0.0220624 4.45444e-09 4.01819e-15)
(0.0220623 4.08885e-09 4.04943e-15)
(0.0220623 3.63925e-09 3.94019e-15)
(0.0220622 3.15497e-09 3.74295e-15)
(0.0220622 2.66304e-09 3.90539e-15)
(0.0220621 2.1698e-09 3.88425e-15)
(0.0220621 1.68636e-09 3.91558e-15)
(0.0220621 1.22813e-09 3.79664e-15)
(0.0220621 7.92857e-10 3.62651e-15)
(0.0220621 3.74016e-10 3.89548e-15)
(0.0220621 -2.3925e-11 3.54446e-15)
(0.0220621 -3.915e-10 3.76475e-15)
(0.0220621 -7.1797e-10 3.73129e-15)
(0.0220621 -1.00094e-09 3.46943e-15)
(0.0220621 -1.25133e-09 3.85906e-15)
(0.0220621 -1.4829e-09 3.74004e-15)
(0.0220622 -1.7014e-09 3.85306e-15)
(0.0220622 -1.89883e-09 3.71807e-15)
(0.0220622 -2.06629e-09 3.49151e-15)
(0.0220623 -2.20879e-09 3.98769e-15)
(0.0220623 -2.33947e-09 3.72263e-15)
(0.0220623 -2.46105e-09 3.78309e-15)
(0.0220624 -2.56536e-09 3.65189e-15)
(0.0220624 -2.63974e-09 3.41883e-15)
(0.0220624 -2.69074e-09 3.843e-15)
(0.0220625 -2.72635e-09 3.69857e-15)
(0.0220625 -2.7603e-09 3.77946e-15)
(0.0220626 -2.74695e-09 3.5857e-15)
(0.0220626 -2.70727e-09 3.35058e-15)
(0.0220627 -2.54818e-09 3.55834e-15)
(0.0220627 -2.3672e-09 3.66962e-15)
(0.0220627 -1.97688e-09 3.83722e-15)
(0.0220628 -1.48684e-09 3.83985e-15)
(0.0220628 -8.6977e-10 3.89712e-15)
(0.0220628 -8.15016e-11 3.95108e-15)
(0.0220628 2.20374e-10 3.938e-15)
(0.0220628 3.06863e-10 4.0311e-15)
(0.0220628 2.27966e-10 4.00842e-15)
(0.0220628 -4.24187e-11 4.03698e-15)
(0.0220628 -2.43334e-10 4.07243e-15)
(0.0220628 -4.23048e-10 4.01223e-15)
(0.0220628 -5.80846e-10 4.09274e-15)
(0.0220628 -6.9938e-10 4.10006e-15)
(0.0220628 -7.77183e-10 4.21257e-15)
(0.0220629 -8.04767e-10 4.20645e-15)
(0.0220629 -7.73832e-10 4.14368e-15)
(0.0220629 -6.94282e-10 4.16999e-15)
(0.0220629 -5.76412e-10 4.14041e-15)
(0.0220629 -4.15564e-10 4.22337e-15)
(0.0220629 -2.08483e-10 4.2585e-15)
(0.0220629 2.86373e-11 4.19924e-15)
(0.0220629 2.70904e-10 4.24171e-15)
(0.0220629 5.08375e-10 4.22062e-15)
(0.0220629 7.36597e-10 4.66433e-15)
(0.0220629 9.42558e-10 4.40508e-15)
(0.0220628 1.11493e-09 4.27551e-15)
(0.0220628 1.24944e-09 4.31891e-15)
(0.0220628 1.35176e-09 4.32118e-15)
(0.0220628 1.43972e-09 4.76358e-15)
(0.0220628 1.51607e-09 4.47674e-15)
(0.0220627 1.5605e-09 4.36676e-15)
(0.0220627 1.56561e-09 4.39515e-15)
(0.0220627 1.54369e-09 4.36863e-15)
(0.0220627 1.50726e-09 4.79283e-15)
(0.0220626 1.46813e-09 4.41842e-15)
(0.0220626 1.42673e-09 4.36587e-15)
(0.0220626 1.37002e-09 4.41715e-15)
(0.0220626 1.29475e-09 4.37439e-15)
(0.0220625 1.20746e-09 4.58512e-15)
(0.0220625 1.11206e-09 4.33959e-15)
(0.0220625 1.0162e-09 4.67367e-15)
(0.0220625 9.28578e-10 4.42721e-15)
(0.0220625 8.53442e-10 4.13656e-15)
(0.0220625 7.61145e-10 4.44607e-15)
(0.0220624 6.46598e-10 4.07013e-15)
(0.0220624 4.76709e-10 4.50221e-15)
(0.0220624 3.21196e-10 4.30184e-15)
(0.0220624 2.19757e-10 4.0142e-15)
(0.0220624 1.5233e-10 4.16525e-15)
(0.0220624 1.35361e-10 4.02595e-15)
(0.0220624 1.07177e-10 4.42438e-15)
(0.0220624 6.85557e-11 4.27945e-15)
(0.0220624 2.79999e-11 4.03957e-15)
(0.0220624 -3.0752e-11 4.27485e-15)
(0.0220624 -1.04688e-10 4.06297e-15)
(0.0220624 -2.00603e-10 4.4137e-15)
(0.0220624 -2.87865e-10 4.23634e-15)
(0.0220624 -3.89064e-10 3.9657e-15)
(0.0220624 -4.02102e-10 4.28784e-15)
(0.0220624 -4.25202e-10 4.07854e-15)
(0.0220624 -2.73029e-10 4.27643e-15)
(0.0220624 -6.94198e-11 4.27512e-15)
(0.0220624 2.59793e-10 4.03222e-15)
(0.0220624 7.02224e-10 4.22586e-15)
(0.0220624 7.77925e-10 4.0089e-15)
(0.0220624 6.71808e-10 4.30506e-15)
(0.0220624 3.94126e-10 4.29787e-15)
(0.0220624 2.10352e-11 4.04591e-15)
(0.0220624 -3.65805e-10 4.37102e-15)
(0.0220624 -7.27717e-10 4.0709e-15)
(0.0220624 -1.02671e-09 3.98104e-15)
(0.0220625 -1.26885e-09 4.23157e-15)
(0.0220625 -1.41842e-09 4.09332e-15)
(0.0220625 -1.50823e-09 4.34687e-15)
(0.0220625 -1.49319e-09 4.07899e-15)
(0.0220625 -1.21318e-09 3.94701e-15)
(0.0220626 -1.25521e-09 4.23047e-15)
(0.0220626 -6.77522e-10 4.11434e-15)
(0.0220626 1.04248e-09 4.25063e-15)
(0.0311419 -1.09326e-09 6.09859e-15)
(0.031142 -7.13973e-09 5.97106e-15)
(0.0311421 -9.33488e-09 6.02006e-15)
(0.0311421 -6.89059e-09 5.39906e-15)
(0.0311422 -2.43427e-09 5.42306e-15)
(0.0311422 1.94628e-09 5.64358e-15)
(0.0311421 5.37736e-09 5.6007e-15)
(0.031142 7.69824e-09 5.75112e-15)
(0.0311419 9.02108e-09 5.76583e-15)
(0.0311418 9.54397e-09 5.65574e-15)
(0.0311417 9.47968e-09 5.83194e-15)
(0.0311416 9.00207e-09 5.65775e-15)
(0.0311415 8.24571e-09 5.7265e-15)
(0.0311414 7.32603e-09 5.5448e-15)
(0.0311414 6.3382e-09 5.19174e-15)
(0.0311413 5.33718e-09 5.55818e-15)
(0.0311413 4.33862e-09 5.46739e-15)
(0.0311412 3.36223e-09 5.53868e-15)
(0.0311412 2.43507e-09 5.33639e-15)
(0.0311412 1.55573e-09 5.19009e-15)
(0.0311412 7.13982e-10 5.54221e-15)
(0.0311412 -8.34664e-11 4.79357e-15)
(0.0311412 -8.19633e-10 5.34866e-15)
(0.0311412 -1.47471e-09 5.28949e-15)
(0.0311412 -2.04471e-09 4.79869e-15)
(0.0311412 -2.54946e-09 5.67002e-15)
(0.0311413 -3.01405e-09 5.01007e-15)
(0.0311413 -3.44938e-09 5.45981e-15)
(0.0311413 -3.84295e-09 5.28992e-15)
(0.0311414 -4.17894e-09 4.63308e-15)
(0.0311414 -4.46502e-09 5.77912e-15)
(0.0311415 -4.72387e-09 5.17334e-15)
(0.0311415 -4.96217e-09 5.37722e-15)
(0.0311416 -5.16619e-09 5.01284e-15)
(0.0311416 -5.31472e-09 4.70099e-15)
(0.0311417 -5.41711e-09 5.46078e-15)
(0.0311417 -5.49055e-09 5.26897e-15)
(0.0311418 -5.55457e-09 5.35758e-15)
(0.0311419 -5.53765e-09 5.09188e-15)
(0.0311419 -5.46159e-09 4.6211e-15)
(0.031142 -5.17962e-09 5.08432e-15)
(0.031142 -4.83384e-09 5.10827e-15)
(0.0311421 -4.11991e-09 5.44383e-15)
(0.0311421 -3.20512e-09 5.42425e-15)
(0.0311422 -2.0389e-09 5.51967e-15)
(0.0311422 -5.78253e-10 5.59257e-15)
(0.0311422 8.65323e-11 5.45131e-15)
(0.0311422 3.25131e-10 5.70605e-15)
(0.0311422 2.33112e-10 5.67098e-15)
(0.0311422 -2.11501e-10 5.72004e-15)
(0.0311422 -5.74694e-10 5.76047e-15)
(0.0311422 -8.99907e-10 5.56865e-15)
(0.0311422 -1.18337e-09 5.79215e-15)
(0.0311422 -1.39497e-09 5.68897e-15)
(0.0311423 -1.52743e-09 5.93756e-15)
(0.0311423 -1.56199e-09 5.9294e-15)
(0.0311423 -1.48262e-09 5.74769e-15)
(0.0311423 -1.30602e-09 5.91058e-15)
(0.0311423 -1.05204e-09 5.75199e-15)
(0.0311423 -7.15506e-10 5.97852e-15)
(0.0311423 -2.92421e-10 6.00585e-15)
(0.0311423 1.86811e-10 5.81481e-15)
(0.0311423 6.75426e-10 6.00044e-15)
(0.0311423 1.15182e-09 5.88217e-15)
(0.0311423 1.6057e-09 6.29177e-15)
(0.0311423 2.01372e-09 6.19719e-15)
(0.0311422 2.35516e-09 5.91335e-15)
(0.0311422 2.62198e-09 6.10608e-15)
(0.0311422 2.8249e-09 6.00603e-15)
(0.0311421 2.9953e-09 6.28774e-15)
(0.0311421 3.13891e-09 6.28135e-15)
(0.0311421 3.22183e-09 6.05825e-15)
(0.031142 3.23032e-09 6.21909e-15)
(0.031142 3.18489e-09 6.06462e-15)
(0.031142 3.10936e-09 6.28633e-15)
(0.0311419 3.02623e-09 6.23853e-15)
(0.0311419 2.93792e-09 6.05435e-15)
(0.0311419 2.82187e-09 6.24799e-15)
(0.0311418 2.67105e-09 6.11163e-15)
(0.0311418 2.49675e-09 6.40795e-15)
(0.0311418 2.30757e-09 6.17403e-15)
(0.0311418 2.11712e-09 6.30197e-15)
(0.0311417 1.94173e-09 6.21097e-15)
(0.0311417 1.78727e-09 5.90596e-15)
(0.0311417 1.60418e-09 5.97987e-15)
(0.0311417 1.37658e-09 5.82291e-15)
(0.0311417 1.0505e-09 6.10675e-15)
(0.0311417 7.44005e-10 6.06327e-15)
(0.0311416 5.33107e-10 5.75373e-15)
(0.0311416 3.93112e-10 5.84858e-15)
(0.0311416 3.46136e-10 5.76589e-15)
(0.0311416 2.88562e-10 6.06344e-15)
(0.0311416 2.12699e-10 6.03813e-15)
(0.0311416 1.28494e-10 5.78594e-15)
(0.0311416 8.93866e-12 5.99704e-15)
(0.0311416 -1.45975e-10 5.82508e-15)
(0.0311416 -3.43685e-10 5.9868e-15)
(0.0311416 -5.37035e-10 5.97061e-15)
(0.0311416 -7.50729e-10 5.69631e-15)
(0.0311416 -8.22743e-10 5.94477e-15)
(0.0311416 -8.93154e-10 5.81917e-15)
(0.0311417 -6.6286e-10 5.96581e-15)
(0.0311417 -3.16239e-10 6.03184e-15)
(0.0311417 2.69873e-10 5.74888e-15)
(0.0311417 1.05705e-09 5.93165e-15)
(0.0311417 1.24564e-09 5.74422e-15)
(0.0311417 1.07953e-09 5.96403e-15)
(0.0311416 5.90568e-10 6.04011e-15)
(0.0311416 -8.72794e-11 5.76346e-15)
(0.0311417 -8.07199e-10 5.86324e-15)
(0.0311417 -1.48761e-09 5.79686e-15)
(0.0311417 -2.05689e-09 5.72693e-15)
(0.0311417 -2.5174e-09 6.03844e-15)
(0.0311417 -2.81078e-09 5.83544e-15)
(0.0311418 -2.98905e-09 6.04835e-15)
(0.0311418 -2.96806e-09 5.79879e-15)
(0.0311418 -2.47786e-09 5.68673e-15)
(0.0311419 -2.54625e-09 6.0376e-15)
(0.0311419 -1.29171e-09 5.8559e-15)
(0.0311419 1.39528e-09 6.00875e-15)
(0.0401874 -4.1732e-09 7.89815e-15)
(0.0401875 -1.29184e-08 7.68252e-15)
(0.0401877 -1.48447e-08 7.75184e-15)
(0.0401878 -1.01218e-08 7.18877e-15)
(0.0401878 -2.75371e-09 7.30575e-15)
(0.0401877 4.25795e-09 7.43751e-15)
(0.0401877 9.67811e-09 7.4383e-15)
(0.0401876 1.33051e-08 7.54364e-15)
(0.0401874 1.53348e-08 7.55229e-15)
(0.0401873 1.60879e-08 7.47761e-15)
(0.0401872 1.59019e-08 7.63896e-15)
(0.0401871 1.50539e-08 7.25109e-15)
(0.0401869 1.37598e-08 7.41624e-15)
(0.0401868 1.22036e-08 7.09478e-15)
(0.0401868 1.05376e-08 6.99967e-15)
(0.0401867 8.8534e-09 7.27563e-15)
(0.0401866 7.17986e-09 7.01147e-15)
(0.0401866 5.54663e-09 7.17384e-15)
(0.0401865 3.99368e-09 6.81486e-15)
(0.0401865 2.52238e-09 6.77944e-15)
(0.0401865 1.11991e-09 7.24979e-15)
(0.0401865 -2.04998e-10 6.88806e-15)
(0.0401865 -1.42703e-09 7.0496e-15)
(0.0401865 -2.51625e-09 7.15259e-15)
(0.0401865 -3.46745e-09 6.79891e-15)
(0.0401866 -4.31133e-09 7.29033e-15)
(0.0401866 -5.08521e-09 7.1992e-15)
(0.0401867 -5.80595e-09 7.11145e-15)
(0.0401867 -6.45753e-09 7.12625e-15)
(0.0401868 -7.01668e-09 6.80383e-15)
(0.0401868 -7.49299e-09 7.39229e-15)
(0.0401869 -7.91951e-09 7.19199e-15)
(0.0401869 -8.30841e-09 7.0377e-15)
(0.040187 -8.64058e-09 6.98244e-15)
(0.0401871 -8.88598e-09 6.66287e-15)
(0.0401872 -9.05737e-09 7.20802e-15)
(0.0401872 -9.18216e-09 7.10018e-15)
(0.0401873 -9.28557e-09 6.98366e-15)
(0.0401874 -9.26844e-09 6.89676e-15)
(0.0401875 -9.15077e-09 6.57303e-15)
(0.0401875 -8.7293e-09 6.70892e-15)
(0.0401876 -8.18512e-09 6.91096e-15)
(0.0401877 -7.09136e-09 7.12237e-15)
(0.0401877 -5.66821e-09 6.9974e-15)
(0.0401878 -3.83912e-09 7.16637e-15)
(0.0401878 -1.5702e-09 7.23518e-15)
(0.0401878 -4.06282e-10 7.28791e-15)
(0.0401878 8.59236e-11 7.43979e-15)
(0.0401878 3.52104e-11 7.31204e-15)
(0.0401878 -5.65809e-10 7.42693e-15)
(0.0401878 -1.09876e-09 7.44435e-15)
(0.0401879 -1.58368e-09 7.45947e-15)
(0.0401879 -2.00327e-09 7.53981e-15)
(0.0401879 -2.31269e-09 7.60808e-15)
(0.0401879 -2.49468e-09 7.39267e-15)
(0.0401879 -2.51755e-09 7.62327e-15)
(0.0401879 -2.35559e-09 7.69319e-15)
(0.040188 -2.03325e-09 7.70993e-15)
(0.040188 -1.58225e-09 7.70737e-15)
(0.040188 -9.98971e-10 7.77506e-15)
(0.040188 -2.81129e-10 7.71921e-15)
(0.040188 5.22951e-10 7.75876e-15)
(0.040188 1.3396e-09 7.80748e-15)
(0.0401879 2.13145e-09 7.88728e-15)
(0.0401879 2.88013e-09 8.07178e-15)
(0.0401879 3.54987e-09 7.94006e-15)
(0.0401879 4.10979e-09 7.85832e-15)
(0.0401878 4.54792e-09 7.93546e-15)
(0.0401878 4.88085e-09 8.04146e-15)
(0.0401877 5.15515e-09 8.1476e-15)
(0.0401877 5.37981e-09 8.02598e-15)
(0.0401876 5.50693e-09 8.07541e-15)
(0.0401876 5.5167e-09 8.08742e-15)
(0.0401876 5.43842e-09 8.1067e-15)
(0.0401875 5.30885e-09 8.15343e-15)
(0.0401875 5.16404e-09 8.02588e-15)
(0.0401874 5.00933e-09 8.0844e-15)
(0.0401874 4.81207e-09 8.12162e-15)
(0.0401873 4.56051e-09 8.19654e-15)
(0.0401873 4.27145e-09 8.05592e-15)
(0.0401873 3.95983e-09 8.35263e-15)
(0.0401872 3.64615e-09 7.93951e-15)
(0.0401872 3.35473e-09 7.97143e-15)
(0.0401872 3.09312e-09 7.97773e-15)
(0.0401872 2.78934e-09 7.46214e-15)
(0.0401871 2.41309e-09 7.89522e-15)
(0.0401871 1.88893e-09 7.69781e-15)
(0.0401871 1.38791e-09 7.81072e-15)
(0.0401871 1.02967e-09 7.80059e-15)
(0.0401871 7.89605e-10 7.61917e-15)
(0.0401871 6.94737e-10 7.80675e-15)
(0.0401871 5.95193e-10 7.66741e-15)
(0.0401871 4.69494e-10 7.79191e-15)
(0.040187 3.24602e-10 7.8536e-15)
(0.040187 1.20268e-10 7.5691e-15)
(0.040187 -1.48601e-10 7.93927e-15)
(0.040187 -4.89704e-10 7.59547e-15)
(0.040187 -8.37472e-10 7.70132e-15)
(0.0401871 -1.2154e-09 7.72794e-15)
(0.0401871 -1.39736e-09 7.51244e-15)
(0.0401871 -1.55855e-09 7.91093e-15)
(0.0401871 -1.27892e-09 7.62649e-15)
(0.0401871 -7.95735e-10 7.77058e-15)
(0.0401871 6.75597e-11 7.76078e-15)
(0.0401871 1.23971e-09 7.70029e-15)
(0.0401871 1.5838e-09 7.81611e-15)
(0.0401871 1.37628e-09 7.67542e-15)
(0.0401871 6.62347e-10 7.76304e-15)
(0.0401871 -3.59224e-10 7.78165e-15)
(0.0401871 -1.46898e-09 7.61813e-15)
(0.0401871 -2.52962e-09 7.82006e-15)
(0.0401872 -3.42637e-09 7.84848e-15)
(0.0401872 -4.15306e-09 7.91704e-15)
(0.0401872 -4.62788e-09 7.88575e-15)
(0.0401873 -4.92053e-09 7.63889e-15)
(0.0401873 -4.89914e-09 7.80981e-15)
(0.0401873 -4.1785e-09 7.79173e-15)
(0.0401874 -4.28168e-09 7.916e-15)
(0.0401874 -2.02071e-09 7.90171e-15)
(0.0401874 1.17056e-09 7.65797e-15)
(0.0488645 -9.60473e-09 9.65992e-15)
(0.0488646 -2.02075e-08 9.31968e-15)
(0.0488647 -2.0573e-08 9.4173e-15)
(0.0488648 -1.27812e-08 9.20226e-15)
(0.0488648 -2.11398e-09 9.18119e-15)
(0.0488648 7.74085e-09 9.19554e-15)
(0.0488647 1.528e-08 9.22441e-15)
(0.0488646 2.02836e-08 9.29538e-15)
(0.0488644 2.30379e-08 9.25273e-15)
(0.0488643 2.3994e-08 9.26227e-15)
(0.0488641 2.36214e-08 9.39231e-15)
(0.048864 2.23078e-08 9.03068e-15)
(0.0488639 2.03587e-08 9.09409e-15)
(0.0488638 1.80347e-08 8.81362e-15)
(0.0488637 1.55529e-08 8.6743e-15)
(0.0488636 1.30474e-08 9.00328e-15)
(0.0488635 1.05632e-08 8.75416e-15)
(0.0488634 8.14073e-09 8.79514e-15)
(0.0488634 5.83354e-09 8.46107e-15)
(0.0488634 3.64844e-09 8.42231e-15)
(0.0488634 1.57179e-09 8.65835e-15)
(0.0488634 -3.85442e-10 8.65807e-15)
(0.0488634 -2.18981e-09 8.73872e-15)
(0.0488634 -3.80099e-09 8.60237e-15)
(0.0488634 -5.21395e-09 8.56164e-15)
(0.0488635 -6.47119e-09 8.79674e-15)
(0.0488635 -7.62121e-09 8.65515e-15)
(0.0488635 -8.68704e-09 8.67254e-15)
(0.0488636 -9.65055e-09 8.59995e-15)
(0.0488637 -1.04811e-08 8.54811e-15)
(0.0488637 -1.11892e-08 8.82083e-15)
(0.0488638 -1.18188e-08 8.65362e-15)
(0.0488639 -1.23882e-08 8.61412e-15)
(0.048864 -1.28737e-08 8.38259e-15)
(0.048864 -1.32371e-08 8.38287e-15)
(0.0488641 -1.34956e-08 8.66456e-15)
(0.0488642 -1.36867e-08 8.53593e-15)
(0.0488643 -1.38402e-08 8.52104e-15)
(0.0488644 -1.38291e-08 8.33206e-15)
(0.0488645 -1.36707e-08 8.29591e-15)
(0.0488645 -1.31049e-08 8.34953e-15)
(0.0488646 -1.23448e-08 8.75383e-15)
(0.0488647 -1.0841e-08 8.7763e-15)
(0.0488648 -8.86064e-09 8.87201e-15)
(0.0488648 -6.29885e-09 8.81797e-15)
(0.0488649 -3.13214e-09 8.82546e-15)
(0.0488649 -1.35441e-09 9.02082e-15)
(0.0488649 -5.01493e-10 9.13027e-15)
(0.0488649 -4.35318e-10 9.09393e-15)
(0.0488649 -1.1457e-09 9.11683e-15)
(0.0488649 -1.82853e-09 9.06608e-15)
(0.048865 -2.46568e-09 9.35452e-15)
(0.048865 -3.01469e-09 9.25058e-15)
(0.048865 -3.4128e-09 9.40373e-15)
(0.048865 -3.62837e-09 9.43897e-15)
(0.048865 -3.61292e-09 9.24529e-15)
(0.048865 -3.33002e-09 9.59466e-15)
(0.0488651 -2.81264e-09 9.46522e-15)
(0.0488651 -2.10636e-09 9.66585e-15)
(0.0488651 -1.21117e-09 9.52175e-15)
(0.0488651 -1.29123e-10 9.37204e-15)
(0.0488651 1.06965e-09 9.54461e-15)
(0.0488651 2.28113e-09 9.56927e-15)
(0.048865 3.44998e-09 9.8618e-15)
(0.048865 4.54772e-09 9.81527e-15)
(0.048865 5.52524e-09 9.60757e-15)
(0.0488649 6.34165e-09 9.83388e-15)
(0.0488649 6.98177e-09 9.71134e-15)
(0.0488648 7.4685e-09 1.00375e-14)
(0.0488648 7.86329e-09 9.90108e-15)
(0.0488647 8.17802e-09 9.72002e-15)
(0.0488647 8.35176e-09 9.88655e-15)
(0.0488646 8.36024e-09 9.89306e-15)
(0.0488646 8.24156e-09 9.97355e-15)
(0.0488645 8.04598e-09 9.98246e-15)
(0.0488645 7.82479e-09 9.72019e-15)
(0.0488644 7.58716e-09 9.90451e-15)
(0.0488644 7.28972e-09 9.94237e-15)
(0.0488643 6.91631e-09 1.00705e-14)
(0.0488643 6.49027e-09 9.95367e-15)
(0.0488642 6.03377e-09 1.05207e-14)
(0.0488642 5.57423e-09 9.82291e-15)
(0.0488642 5.14357e-09 9.71698e-15)
(0.0488641 4.7504e-09 9.94456e-15)
(0.0488641 4.2992e-09 9.21413e-15)
(0.0488641 3.74327e-09 1.0056e-14)
(0.0488641 2.98742e-09 9.44017e-15)
(0.048864 2.25807e-09 9.52632e-15)
(0.048864 1.7216e-09 9.74999e-15)
(0.048864 1.35723e-09 9.17934e-15)
(0.048864 1.19617e-09 9.96944e-15)
(0.048864 1.04093e-09 9.54364e-15)
(0.048864 8.52e-10 9.52064e-15)
(0.048864 6.28364e-10 9.85626e-15)
(0.048864 3.13789e-10 9.47085e-15)
(0.048864 -1.02813e-10 9.93933e-15)
(0.048864 -6.29119e-10 9.49824e-15)
(0.048864 -1.1796e-09 9.41921e-15)
(0.048864 -1.7746e-09 9.66222e-15)
(0.048864 -2.12222e-09 9.31963e-15)
(0.048864 -2.42506e-09 9.92349e-15)
(0.048864 -2.13943e-09 9.51349e-15)
(0.048864 -1.54603e-09 9.48937e-15)
(0.0488641 -4.11976e-10 9.66619e-15)
(0.0488641 1.15678e-09 9.40595e-15)
(0.0488641 1.68925e-09 9.76792e-15)
(0.0488641 1.47248e-09 9.37381e-15)
(0.0488641 5.48635e-10 9.46784e-15)
(0.0488641 -8.21089e-10 9.69847e-15)
(0.0488641 -2.34286e-09 9.17033e-15)
(0.0488641 -3.81497e-09 9.81962e-15)
(0.0488641 -5.07222e-09 9.89918e-15)
(0.0488642 -6.09604e-09 9.75724e-15)
(0.0488642 -6.78151e-09 9.83842e-15)
(0.0488643 -7.21205e-09 9.48013e-15)
(0.0488643 -7.20009e-09 9.78117e-15)
(0.0488643 -6.2488e-09 9.8022e-15)
(0.0488644 -6.4035e-09 9.75331e-15)
(0.0488644 -2.78635e-09 9.83828e-15)
(0.0488644 -1.06466e-10 9.53669e-15)
(0.0567978 -1.70599e-08 1.13263e-14)
(0.056798 -2.79799e-08 1.10293e-14)
(0.0567981 -2.55532e-08 1.10014e-14)
(0.0567981 -1.42896e-08 1.09531e-14)
(0.0567981 -3.69816e-10 1.08852e-14)
(0.056798 1.21811e-08 1.08557e-14)
(0.0567979 2.17237e-08 1.08782e-14)
(0.0567978 2.8034e-08 1.09259e-14)
(0.0567977 3.14721e-08 1.09177e-14)
(0.0567975 3.26025e-08 1.09045e-14)
(0.0567974 3.20137e-08 1.10114e-14)
(0.0567972 3.01964e-08 1.03271e-14)
(0.0567971 2.75445e-08 1.06703e-14)
(0.056797 2.43962e-08 1.03432e-14)
(0.0567969 2.1036e-08 1.02427e-14)
(0.0567968 1.76426e-08 1.0771e-14)
(0.0567967 1.42786e-08 1.0245e-14)
(0.0567967 1.09951e-08 1.03049e-14)
(0.0567966 7.86008e-09 9.93324e-15)
(0.0567966 4.88886e-09 9.96548e-15)
(0.0567966 2.0696e-09 1.00261e-14)
(0.0567966 -5.84148e-10 1.02518e-14)
(0.0567966 -3.03102e-09 1.03017e-14)
(0.0567966 -5.22113e-09 9.77014e-15)
(0.0567966 -7.15177e-09 1.01574e-14)
(0.0567967 -8.87684e-09 1.02375e-14)
(0.0567967 -1.04528e-08 9.90079e-15)
(0.0567968 -1.19081e-08 1.01066e-14)
(0.0567968 -1.32243e-08 9.95872e-15)
(0.0567969 -1.43635e-08 1.01577e-14)
(0.056797 -1.53363e-08 1.02154e-14)
(0.056797 -1.61984e-08 9.83671e-15)
(0.0567971 -1.69743e-08 1.00609e-14)
(0.0567972 -1.76351e-08 9.76564e-15)
(0.0567973 -1.81362e-08 9.99078e-15)
(0.0567974 -1.85013e-08 1.00743e-14)
(0.0567975 -1.87762e-08 9.86374e-15)
(0.0567976 -1.89936e-08 9.9424e-15)
(0.0567976 -1.89991e-08 9.68323e-15)
(0.0567977 -1.88087e-08 9.92517e-15)
(0.0567978 -1.81068e-08 9.90575e-15)
(0.0567979 -1.7131e-08 1.02663e-14)
(0.056798 -1.52139e-08 1.02903e-14)
(0.0567981 -1.26647e-08 1.03133e-14)
(0.0567981 -9.34649e-09 1.03277e-14)
(0.0567982 -5.24099e-09 1.03058e-14)
(0.0567982 -2.76855e-09 1.06585e-14)
(0.0567982 -1.46058e-09 1.06781e-14)
(0.0567983 -1.19517e-09 1.06946e-14)
(0.0567983 -1.94922e-09 1.06419e-14)
(0.0567983 -2.7394e-09 1.05622e-14)
(0.0567983 -3.50071e-09 1.08867e-14)
(0.0567983 -4.15665e-09 1.08014e-14)
(0.0567983 -4.62291e-09 1.1086e-14)
(0.0567984 -4.84863e-09 1.10416e-14)
(0.0567984 -4.76539e-09 1.07076e-14)
(0.0567984 -4.32609e-09 1.11529e-14)
(0.0567984 -3.57365e-09 1.10399e-14)
(0.0567984 -2.56838e-09 1.12487e-14)
(0.0567984 -1.31529e-09 1.11734e-14)
(0.0567984 1.76541e-10 1.0854e-14)
(0.0567984 1.81233e-09 1.1253e-14)
(0.0567984 3.45674e-09 1.11647e-14)
(0.0567984 5.03679e-09 1.14625e-14)
(0.0567983 6.51293e-09 1.14414e-14)
(0.0567983 7.82273e-09 1.10864e-14)
(0.0567983 8.9167e-09 1.14033e-14)
(0.0567982 9.77728e-09 1.13396e-14)
(0.0567982 1.04333e-08 1.16543e-14)
(0.0567981 1.09595e-08 1.15914e-14)
(0.0567981 1.1369e-08 1.12244e-14)
(0.056798 1.15901e-08 1.16152e-14)
(0.0567979 1.15967e-08 1.15005e-14)
(0.0567979 1.14353e-08 1.17357e-14)
(0.0567978 1.11688e-08 1.16271e-14)
(0.0567978 1.08642e-08 1.12388e-14)
(0.0567977 1.05342e-08 1.1665e-14)
(0.0567977 1.0125e-08 1.15614e-14)
(0.0567976 9.61726e-09 1.18492e-14)
(0.0567976 9.04248e-09 1.16453e-14)
(0.0567975 8.42971e-09 1.19165e-14)
(0.0567975 7.81185e-09 1.16215e-14)
(0.0567974 7.22723e-09 1.139e-14)
(0.0567974 6.68519e-09 1.17527e-14)
(0.0567974 6.06666e-09 1.14039e-14)
(0.0567973 5.30884e-09 1.15798e-14)