/*--------------------------------*- C++ -*----------------------------------*\
  =========                 |
  \\      /  F ield         | OpenFOAM: The Open Source CFD Toolbox
   \\    /   O peration     | Website:  https://openfoam.org
    \\  /    A nd           | Version:  7
     \\/     M anipulation  |
\*---------------------------------------------------------------------------*/
FoamFile
{
    version     2.0;
    format      ascii;
    class       volScalarField;
    location    "99000";
    object      k;
}
// * * * * * * * * * * * * * * * * * * * * * * * * * * * * * * * * * * * * * //

dimensions      [0 2 -2 0 0 0 0];

internalField   nonuniform List<scalar> 
600
(
8.61888e-13
2.58769e-11
1.83646e-10
6.69288e-10
1.73616e-09
3.68631e-09
6.86877e-09
1.16803e-08
1.8567e-08
2.80275e-08
4.06149e-08
5.6941e-08
7.76791e-08
1.03568e-07
1.35418e-07
1.74112e-07
2.20611e-07
2.75962e-07
3.41298e-07
4.17848e-07
5.06939e-07
6.10003e-07
7.28579e-07
8.64323e-07
1.01901e-06
1.19454e-06
1.39295e-06
1.61639e-06
1.86716e-06
2.14769e-06
2.46056e-06
2.80846e-06
3.19425e-06
3.62089e-06
4.09145e-06
4.60913e-06
5.17721e-06
5.79904e-06
6.47801e-06
7.21753e-06
8.021e-06
8.89173e-06
9.83296e-06
1.08478e-05
1.1939e-05
1.31092e-05
1.43607e-05
1.56953e-05
1.71145e-05
1.86192e-05
2.02097e-05
2.18857e-05
2.36465e-05
2.54904e-05
2.74154e-05
2.94184e-05
3.14961e-05
3.36444e-05
3.58587e-05
3.81337e-05
4.0464e-05
4.28438e-05
4.52669e-05
4.77269e-05
5.02176e-05
5.27326e-05
5.52654e-05
5.78101e-05
6.03605e-05
6.29111e-05
6.54563e-05
6.79911e-05
7.05107e-05
7.30109e-05
7.54876e-05
7.79372e-05
8.03565e-05
8.27427e-05
8.50932e-05
8.74073e-05
8.96853e-05
9.19261e-05
9.41281e-05
9.62898e-05
9.84099e-05
0.000100487
0.000102521
0.000104511
0.000106455
0.000108355
0.000110208
0.000112016
0.000113777
0.000115493
0.000117163
0.000118787
0.000120366
0.000121901
0.000123391
0.000124837
0.000126241
0.000127601
0.00012892
0.000130197
0.000131434
0.000132631
0.000133789
0.00013491
0.000135992
0.000137038
0.000138048
0.000139024
0.000139964
0.000140872
0.000141747
0.00014259
0.000143401
0.000144183
0.000144935
0.000145657
0.000146352
0.000147019
0.000147659
0.000148273
0.000148862
0.000149425
0.000149964
0.00015048
0.000150972
0.000151441
0.000151889
0.000152315
0.00015272
0.000153104
0.000153468
0.000153813
0.000154138
0.000154445
0.000154733
0.000155003
0.000155256
0.000155491
0.000155709
0.000155911
0.000156096
0.000156266
0.00015642
0.000156558
0.000156681
0.00015679
0.000156883
0.000156963
0.000157028
0.000157079
0.000157116
0.00015714
0.000157151
0.000157148
0.000157132
0.000157103
0.000157061
0.000157007
0.00015694
0.000156861
0.00015677
0.000156666
0.00015655
0.000156422
0.000156283
0.000156131
0.000155968
0.000155793
0.000155606
0.000155408
0.000155198
0.000154977
0.000154744
0.000154499
0.000154243
0.000153976
0.000153697
0.000153407
0.000153105
0.000152792
0.000152467
0.000152131
0.000151784
0.000151425
0.000151054
0.000150671
0.000150277
0.000149872
0.000149454
0.000149025
0.000148584
0.000148131
0.000147666
0.000147189
0.0001467
0.000146198
0.000145684
0.000145158
0.000144619
0.000144068
0.000143504
0.000142927
0.000142338
0.000141735
0.000141119
0.00014049
0.000139848
0.000139192
0.000138522
0.000137839
0.000137142
0.000136431
0.000135706
0.000134967
0.000134214
0.000133448
0.000132668
0.000131874
0.000131068
0.000130249
0.000129418
0.000128575
0.000127723
0.00012686
0.000125986
0.000125102
0.000124207
0.0001233
0.000122381
0.00012145
0.000120508
0.000119554
0.000118589
0.000117612
0.000116625
0.000115626
0.000114616
0.000113596
0.000112564
0.000111523
0.000110471
0.000109409
0.000108337
0.000107256
0.000106165
0.000105066
0.000103959
0.000102843
0.000101719
0.000100589
9.94511e-05
9.83073e-05
9.71578e-05
9.60033e-05
9.48442e-05
9.36813e-05
9.25153e-05
9.1347e-05
9.01772e-05
8.90067e-05
8.78364e-05
8.66673e-05
8.55005e-05
8.43369e-05
8.31778e-05
8.20242e-05
8.08776e-05
7.97391e-05
7.86101e-05
7.74922e-05
7.63868e-05
7.52956e-05
7.42201e-05
7.31621e-05
7.21234e-05
7.11059e-05
7.01115e-05
6.91423e-05
6.82004e-05
6.72879e-05
6.64071e-05
6.55603e-05
6.475e-05
6.39786e-05
6.32487e-05
6.2563e-05
6.19242e-05
6.13351e-05
6.07986e-05
6.03178e-05
5.98957e-05
5.95355e-05
5.92404e-05
5.90138e-05
5.88591e-05
5.878e-05
5.878e-05
5.88591e-05
5.90138e-05
5.92404e-05
5.95355e-05
5.98957e-05
6.03178e-05
6.07986e-05
6.13351e-05
6.19242e-05
6.2563e-05
6.32487e-05
6.39786e-05
6.475e-05
6.55603e-05
6.64071e-05
6.72879e-05
6.82004e-05
6.91423e-05
7.01115e-05
7.11059e-05
7.21234e-05
7.31621e-05
7.42201e-05
7.52956e-05
7.63868e-05
7.74922e-05
7.86101e-05
7.97391e-05
8.08776e-05
8.20242e-05
8.31778e-05
8.43369e-05
8.55005e-05
8.66673e-05
8.78364e-05
8.90067e-05
9.01772e-05
9.1347e-05
9.25153e-05
9.36813e-05
9.48442e-05
9.60033e-05
9.71578e-05
9.83073e-05
9.94511e-05
0.000100589
0.000101719
0.000102843
0.000103959
0.000105066
0.000106165
0.000107256
0.000108337
0.000109409
0.000110471
0.000111523
0.000112564
0.000113596
0.000114616
0.000115626
0.000116625
0.000117612
0.000118589
0.000119554
0.000120508
0.00012145
0.000122381
0.0001233
0.000124207
0.000125102
0.000125986
0.00012686
0.000127723
0.000128575
0.000129418
0.000130249
0.000131068
0.000131874
0.000132668
0.000133448
0.000134214
0.000134967
0.000135706
0.000136431
0.000137142
0.000137839
0.000138522
0.000139192
0.000139848
0.00014049
0.000141119
0.000141735
0.000142338
0.000142927
0.000143504
0.000144068
0.000144619
0.000145158
0.000145684
0.000146198
0.0001467
0.000147189
0.000147666
0.000148131
0.000148584
0.000149025
0.000149454
0.000149872
0.000150277
0.000150671
0.000151054
0.000151425
0.000151784
0.000152131
0.000152467
0.000152792
0.000153105
0.000153407
0.000153697
0.000153976
0.000154243
0.000154499
0.000154744
0.000154977
0.000155198
0.000155408
0.000155606
0.000155793
0.000155968
0.000156131
0.000156283
0.000156422
0.00015655
0.000156666
0.00015677
0.000156861
0.00015694
0.000157007
0.000157061
0.000157103
0.000157132
0.000157148
0.000157151
0.00015714
0.000157116
0.000157079
0.000157028
0.000156963
0.000156883
0.00015679
0.000156681
0.000156558
0.00015642
0.000156266
0.000156096
0.000155911
0.000155709
0.000155491
0.000155256
0.000155003
0.000154733
0.000154445
0.000154138
0.000153813
0.000153468
0.000153104
0.00015272
0.000152315
0.000151889
0.000151441
0.000150972
0.00015048
0.000149964
0.000149425
0.000148862
0.000148273
0.000147659
0.000147019
0.000146352
0.000145657
0.000144935
0.000144183
0.000143401
0.00014259
0.000141747
0.000140872
0.000139964
0.000139024
0.000138048
0.000137038
0.000135992
0.00013491
0.000133789
0.000132631
0.000131434
0.000130197
0.00012892
0.000127601
0.000126241
0.000124837
0.000123391
0.000121901
0.000120366
0.000118787
0.000117163
0.000115493
0.000113777
0.000112016
0.000110208
0.000108355
0.000106455
0.000104511
0.000102521
0.000100487
9.84099e-05
9.62898e-05
9.41281e-05
9.19261e-05
8.96853e-05
8.74073e-05
8.50932e-05
8.27427e-05
8.03565e-05
7.79372e-05
7.54876e-05
7.30109e-05
7.05107e-05
6.79911e-05
6.54563e-05
6.29111e-05
6.03605e-05
5.78101e-05
5.52654e-05
5.27325e-05
5.02176e-05
4.77269e-05
4.52669e-05
4.28438e-05
4.0464e-05
3.81337e-05
3.58587e-05
3.36444e-05
3.14961e-05
2.94184e-05
2.74154e-05
2.54904e-05
2.36465e-05
2.18857e-05
2.02096e-05
1.86192e-05
1.71145e-05
1.56953e-05
1.43607e-05
1.31092e-05
1.1939e-05
1.08478e-05
9.83296e-06
8.89173e-06
8.021e-06
7.21754e-06
6.47801e-06
5.79904e-06
5.17721e-06
4.60913e-06
4.09145e-06
3.62089e-06
3.19425e-06
2.80846e-06
2.46056e-06
2.14769e-06
1.86716e-06
1.61639e-06
1.39295e-06
1.19454e-06
1.01901e-06
8.64323e-07
7.28579e-07
6.10003e-07
5.06939e-07
4.17848e-07
3.41298e-07
2.75961e-07
2.20611e-07
1.74112e-07
1.35418e-07
1.03569e-07
7.76791e-08
5.69409e-08
4.06149e-08
2.80275e-08
1.85671e-08
1.16803e-08
6.86878e-09
3.68631e-09
1.73615e-09
6.69288e-10
1.83646e-10
2.58769e-11
8.61887e-13
)
;

boundaryField
{
    bottomWall
    {
        type            kqRWallFunction;
        value           uniform 8.61888e-13;
    }
    topWall
    {
        type            kqRWallFunction;
        value           uniform 8.61887e-13;
    }
    sides1_half0
    {
        type            empty;
    }
    sides1_half1
    {
        type            empty;
    }
    sides2_half0
    {
        type            empty;
    }
    sides2_half1
    {
        type            empty;
    }
    inout1_half0
    {
        type            cyclic;
    }
    inout1_half1
    {
        type            cyclic;
    }
    inout2_half0
    {
        type            cyclic;
    }
    inout2_half1
    {
        type            cyclic;
    }
}


// ************************************************************************* //
