/*--------------------------------*- C++ -*----------------------------------*\
  =========                 |
  \\      /  F ield         | OpenFOAM: The Open Source CFD Toolbox
   \\    /   O peration     | Website:  https://openfoam.org
    \\  /    A nd           | Version:  7
     \\/     M anipulation  |
\*---------------------------------------------------------------------------*/
FoamFile
{
    version     2.0;
    format      ascii;
    class       volScalarField;
    location    "99000";
    object      nut;
}
// * * * * * * * * * * * * * * * * * * * * * * * * * * * * * * * * * * * * * //

dimensions      [0 2 -1 0 0 0 0];

internalField   nonuniform List<scalar> 
600
(
3.20874e-18
5.63716e-16
1.19097e-14
9.25374e-14
4.25046e-13
1.42491e-12
3.88233e-12
9.14093e-12
1.93182e-11
3.75737e-11
6.84318e-11
1.18166e-10
1.95253e-10
3.1091e-10
4.79714e-10
7.20329e-10
1.05634e-09
1.51721e-09
2.13939e-09
2.96755e-09
4.05597e-09
5.47018e-09
7.28868e-09
9.60491e-09
1.25295e-08
1.61924e-08
2.0746e-08
2.63673e-08
3.32614e-08
4.16642e-08
5.18463e-08
6.41159e-08
7.88226e-08
9.63604e-08
1.17172e-07
1.4175e-07
1.70643e-07
2.04454e-07
2.43845e-07
2.89538e-07
3.42313e-07
4.03009e-07
4.72522e-07
5.51802e-07
6.41846e-07
7.43695e-07
8.58425e-07
9.87141e-07
1.13096e-06
1.29102e-06
1.46843e-06
1.66431e-06
1.87974e-06
2.11575e-06
2.37335e-06
2.65347e-06
2.95697e-06
3.28467e-06
3.63727e-06
4.01542e-06
4.41968e-06
4.85053e-06
5.30837e-06
5.79354e-06
6.3063e-06
6.84683e-06
7.41529e-06
8.01174e-06
8.63625e-06
9.2888e-06
9.96937e-06
1.06779e-05
1.14143e-05
1.21784e-05
1.29702e-05
1.37895e-05
1.46362e-05
1.55101e-05
1.6411e-05
1.72844e-05
1.8166e-05
1.90731e-05
2.00087e-05
2.09736e-05
2.19683e-05
2.29931e-05
2.40485e-05
2.51348e-05
2.62523e-05
2.74015e-05
2.85826e-05
2.9796e-05
3.1042e-05
3.23209e-05
3.36332e-05
3.4979e-05
3.63587e-05
3.77726e-05
3.92209e-05
4.07041e-05
4.22225e-05
4.37762e-05
4.53656e-05
4.69909e-05
4.86521e-05
5.03493e-05
5.20831e-05
5.38539e-05
5.56618e-05
5.75072e-05
5.93903e-05
6.13113e-05
6.32704e-05
6.52679e-05
6.7304e-05
6.93789e-05
7.14929e-05
7.36461e-05
7.58388e-05
7.80712e-05
8.03435e-05
8.26558e-05
8.50085e-05
8.74016e-05
8.98355e-05
9.23102e-05
9.48261e-05
9.73832e-05
9.99817e-05
0.000102622
0.000105304
0.000108028
0.000110794
0.000113603
0.000116454
0.000119347
0.000122284
0.000125263
0.000128286
0.000131352
0.000134461
0.000137614
0.000140811
0.000144051
0.000147336
0.000150664
0.000154037
0.000157454
0.000160915
0.000164421
0.000167972
0.000171567
0.000175207
0.000178892
0.000182622
0.000186397
0.000190217
0.000194082
0.000197992
0.000201947
0.000205947
0.000209993
0.000214084
0.00021822
0.000222402
0.000226628
0.0002309
0.000235217
0.000239579
0.000243986
0.000248438
0.000252934
0.000257476
0.000262062
0.000266693
0.000271368
0.000276088
0.000280851
0.000285659
0.00029051
0.000295405
0.000300344
0.000305326
0.00031035
0.000315418
0.000320527
0.000325679
0.000330873
0.000336109
0.000341386
0.000346703
0.000352062
0.00035746
0.000362899
0.000368377
0.000373893
0.000379449
0.000385043
0.000390674
0.000396343
0.000402048
0.000407789
0.000413567
0.000419379
0.000425226
0.000431108
0.000437024
0.000442974
0.000448959
0.000454978
0.000461034
0.00046713
0.000473267
0.000479453
0.000485695
0.000492003
0.000498392
0.000504881
0.000511495
0.000518262
0.000525217
0.000532399
0.000539846
0.000547589
0.000555643
0.000563987
0.000572538
0.000581115
0.000589386
0.000596804
0.000603886
0.000610992
0.000618121
0.000625272
0.000632444
0.000639636
0.000646847
0.000654076
0.00066132
0.00066858
0.000675854
0.00068314
0.000690438
0.000697746
0.000705062
0.000712386
0.000719716
0.000727051
0.00073439
0.00074173
0.000749071
0.000756411
0.000763749
0.000771082
0.000778411
0.000785732
0.000793045
0.000800348
0.000807638
0.000814915
0.000822176
0.000829418
0.000836641
0.000843842
0.000851017
0.000858165
0.000865283
0.000872368
0.000879416
0.000886424
0.000893387
0.000900303
0.000907165
0.000913968
0.000920708
0.000927377
0.000933969
0.000940476
0.00094689
0.0009532
0.000959398
0.000965472
0.000971409
0.000977196
0.000982819
0.000988261
0.000993505
0.000998533
0.00100333
0.00100786
0.00101211
0.00101606
0.00101968
0.00102295
0.00102583
0.0010283
0.00103034
0.0010319
0.00103297
0.00103352
0.00103352
0.00103297
0.0010319
0.00103034
0.0010283
0.00102583
0.00102295
0.00101968
0.00101606
0.00101211
0.00100786
0.00100333
0.000998533
0.000993505
0.000988261
0.000982819
0.000977196
0.000971409
0.000965472
0.000959398
0.0009532
0.00094689
0.000940476
0.000933969
0.000927377
0.000920708
0.000913968
0.000907165
0.000900303
0.000893387
0.000886424
0.000879416
0.000872368
0.000865283
0.000858165
0.000851017
0.000843842
0.000836641
0.000829418
0.000822176
0.000814915
0.000807638
0.000800348
0.000793045
0.000785732
0.000778411
0.000771082
0.000763749
0.000756411
0.000749071
0.00074173
0.00073439
0.000727051
0.000719716
0.000712386
0.000705062
0.000697746
0.000690438
0.00068314
0.000675854
0.00066858
0.00066132
0.000654076
0.000646847
0.000639636
0.000632444
0.000625272
0.000618121
0.000610992
0.000603886
0.000596804
0.000589386
0.000581115
0.000572538
0.000563987
0.000555643
0.000547589
0.000539846
0.000532399
0.000525217
0.000518262
0.000511495
0.000504881
0.000498392
0.000492003
0.000485695
0.000479453
0.000473267
0.00046713
0.000461034
0.000454978
0.000448959
0.000442974
0.000437024
0.000431108
0.000425226
0.000419379
0.000413567
0.000407789
0.000402048
0.000396343
0.000390674
0.000385043
0.000379449
0.000373893
0.000368377
0.000362899
0.00035746
0.000352062
0.000346703
0.000341386
0.000336109
0.000330873
0.000325679
0.000320527
0.000315418
0.00031035
0.000305326
0.000300344
0.000295405
0.00029051
0.000285659
0.000280851
0.000276088
0.000271368
0.000266693
0.000262062
0.000257476
0.000252934
0.000248438
0.000243986
0.000239579
0.000235217
0.0002309
0.000226628
0.000222402
0.00021822
0.000214084
0.000209993
0.000205947
0.000201947
0.000197992
0.000194082
0.000190217
0.000186397
0.000182622
0.000178892
0.000175207
0.000171567
0.000167972
0.000164421
0.000160915
0.000157454
0.000154037
0.000150664
0.000147336
0.000144051
0.000140811
0.000137614
0.000134461
0.000131352
0.000128286
0.000125263
0.000122284
0.000119347
0.000116454
0.000113603
0.000110794
0.000108028
0.000105304
0.000102622
9.99817e-05
9.73832e-05
9.48261e-05
9.23102e-05
8.98355e-05
8.74016e-05
8.50085e-05
8.26558e-05
8.03435e-05
7.80712e-05
7.58388e-05
7.36461e-05
7.14929e-05
6.93789e-05
6.7304e-05
6.52679e-05
6.32704e-05
6.13113e-05
5.93903e-05
5.75072e-05
5.56618e-05
5.38539e-05
5.20831e-05
5.03493e-05
4.86521e-05
4.69909e-05
4.53656e-05
4.37762e-05
4.22225e-05
4.07041e-05
3.92209e-05
3.77726e-05
3.63587e-05
3.4979e-05
3.36332e-05
3.23209e-05
3.1042e-05
2.9796e-05
2.85826e-05
2.74015e-05
2.62523e-05
2.51348e-05
2.40485e-05
2.29931e-05
2.19683e-05
2.09736e-05
2.00087e-05
1.90731e-05
1.8166e-05
1.72844e-05
1.6411e-05
1.55101e-05
1.46362e-05
1.37895e-05
1.29702e-05
1.21784e-05
1.14143e-05
1.06779e-05
9.96937e-06
9.2888e-06
8.63625e-06
8.01174e-06
7.41529e-06
6.84683e-06
6.3063e-06
5.79354e-06
5.30837e-06
4.85053e-06
4.41968e-06
4.01542e-06
3.63727e-06
3.28467e-06
2.95697e-06
2.65347e-06
2.37335e-06
2.11575e-06
1.87974e-06
1.66431e-06
1.46843e-06
1.29102e-06
1.13096e-06
9.87141e-07
8.58425e-07
7.43695e-07
6.41846e-07
5.51802e-07
4.72522e-07
4.03009e-07
3.42313e-07
2.89538e-07
2.43845e-07
2.04454e-07
1.70643e-07
1.4175e-07
1.17172e-07
9.63604e-08
7.88226e-08
6.41159e-08
5.18463e-08
4.16642e-08
3.32614e-08
2.63674e-08
2.0746e-08
1.61924e-08
1.25295e-08
9.60492e-09
7.28868e-09
5.47018e-09
4.05597e-09
2.96755e-09
2.13939e-09
1.51721e-09
1.05634e-09
7.20329e-10
4.79714e-10
3.1091e-10
1.95253e-10
1.18166e-10
6.84317e-11
3.75737e-11
1.93182e-11
9.14094e-12
3.88233e-12
1.4249e-12
4.25045e-13
9.25373e-14
1.19097e-14
5.63716e-16
3.20874e-18
)
;

boundaryField
{
    bottomWall
    {
        type            nutUWallFunction;
        Cmu             0.09;
        kappa           0.41;
        E               9.8;
        value           uniform 0;
    }
    topWall
    {
        type            nutUWallFunction;
        Cmu             0.09;
        kappa           0.41;
        E               9.8;
        value           uniform 0;
    }
    sides1_half0
    {
        type            empty;
    }
    sides1_half1
    {
        type            empty;
    }
    sides2_half0
    {
        type            empty;
    }
    sides2_half1
    {
        type            empty;
    }
    inout1_half0
    {
        type            cyclic;
    }
    inout1_half1
    {
        type            cyclic;
    }
    inout2_half0
    {
        type            cyclic;
    }
    inout2_half1
    {
        type            cyclic;
    }
}


// ************************************************************************* //
