/*--------------------------------*- C++ -*----------------------------------*\
  =========                 |
  \\      /  F ield         | OpenFOAM: The Open Source CFD Toolbox
   \\    /   O peration     | Website:  https://openfoam.org
    \\  /    A nd           | Version:  7
     \\/     M anipulation  |
\*---------------------------------------------------------------------------*/
FoamFile
{
    version     2.0;
    format      ascii;
    class       surfaceScalarField;
    location    "99000";
    object      phi;
}
// * * * * * * * * * * * * * * * * * * * * * * * * * * * * * * * * * * * * * //

dimensions      [0 3 -1 0 0 0 0];

internalField   nonuniform List<scalar> 
599
(
-3.68689e-16
-4.72341e-16
-4.15656e-16
-5.09175e-16
-4.02323e-16
-4.99982e-16
-4.34957e-16
-5.25399e-16
-4.49605e-16
-5.38362e-16
-4.77876e-16
-5.36844e-16
-4.81831e-16
-5.28074e-16
-4.69683e-16
-5.24032e-16
-4.79244e-16
-5.72818e-16
-4.89544e-16
-5.37094e-16
-5.04178e-16
-5.85074e-16
-5.13353e-16
-5.82888e-16
-4.95327e-16
-5.54407e-16
-4.30318e-16
-5.02725e-16
-4.28164e-16
-5.09319e-16
-4.88499e-16
-5.44975e-16
-4.83165e-16
-5.38993e-16
-5.2843e-16
-5.67983e-16
-4.79226e-16
-4.94053e-16
-4.81637e-16
-4.95863e-16
-3.87089e-16
-4.07598e-16
-3.72744e-16
-4.41279e-16
-3.46864e-16
-3.55966e-16
-3.685e-16
-4.1357e-16
-3.77417e-16
-5.27365e-16
-3.66205e-16
-3.57687e-16
-2.37947e-16
-2.81076e-16
-1.52366e-16
-2.8773e-16
-2.19306e-16
-3.2552e-16
-2.59772e-16
-3.73358e-16
-1.9008e-16
-3.09405e-16
-2.57412e-16
-3.36652e-16
-2.41363e-16
-3.30562e-16
-2.6431e-16
-3.53522e-16
-3.12514e-16
-4.25149e-16
-3.51503e-16
-4.13772e-16
-4.61705e-16
-4.2818e-16
-3.50012e-16
-3.71328e-16
-2.48054e-16
-2.88995e-16
-2.44523e-16
-3.22742e-16
-2.98674e-16
-3.49961e-16
-3.29715e-16
-3.63077e-16
-3.88807e-16
-4.54795e-16
-4.12181e-16
-5.43735e-16
-6.12362e-16
-6.08503e-16
-5.55948e-16
-5.74657e-16
-4.71456e-16
-5.29559e-16
-4.19971e-16
-5.13147e-16
-4.13528e-16
-4.01324e-16
-3.81219e-16
-4.08543e-16
-3.52129e-16
-4.4166e-16
-4.02538e-16
-4.43397e-16
-4.1524e-16
-4.64428e-16
-4.18687e-16
-4.86393e-16
-4.16043e-16
-4.83235e-16
-4.05662e-16
-4.59943e-16
-4.20312e-16
-4.42162e-16
-4.56353e-16
-4.70047e-16
-4.36105e-16
-5.15107e-16
-4.8499e-16
-5.33683e-16
-4.69122e-16
-4.86242e-16
-4.35769e-16
-4.87574e-16
-4.45856e-16
-4.61877e-16
-3.78918e-16
-4.23821e-16
-3.96378e-16
-4.17951e-16
-4.1814e-16
-4.41242e-16
-3.58993e-16
-4.19649e-16
-3.49778e-16
-4.12125e-16
-3.4493e-16
-3.88982e-16
-3.39122e-16
-4.4202e-16
-3.66832e-16
-3.85954e-16
-3.04163e-16
-3.65055e-16
-3.28627e-16
-4.14352e-16
-3.67219e-16
-4.27045e-16
-3.5949e-16
-4.22202e-16
-3.47438e-16
-4.14369e-16
-3.62992e-16
-4.11544e-16
-3.75643e-16
-4.29945e-16
-3.53654e-16
-4.00432e-16
-3.54085e-16
-3.76199e-16
-3.61064e-16
-4.11898e-16
-2.98467e-16
-4.05647e-16
-3.90994e-16
-4.39472e-16
-3.69995e-16
-4.1483e-16
-3.33183e-16
-4.25853e-16
-3.11279e-16
-3.66098e-16
-2.97463e-16
-3.5613e-16
-2.79982e-16
-3.32939e-16
-2.36476e-16
-3.45818e-16
-2.88871e-16
-3.84425e-16
-3.19896e-16
-3.80749e-16
-3.22453e-16
-3.81546e-16
-3.28864e-16
-4.17295e-16
-3.2515e-16
-3.5623e-16
-3.5482e-16
-4.01326e-16
-3.51412e-16
-4.38746e-16
-3.98246e-16
-4.35639e-16
-3.72552e-16
-4.30462e-16
-3.60288e-16
-4.16049e-16
-3.6934e-16
-4.00818e-16
-3.39252e-16
-4.1602e-16
-3.88177e-16
-4.44551e-16
-3.92628e-16
-4.47457e-16
-4.51743e-16
-5.27314e-16
-4.56646e-16
-4.72881e-16
-4.35109e-16
-4.72771e-16
-4.17035e-16
-4.38781e-16
-4.06862e-16
-4.81969e-16
-4.50407e-16
-4.57907e-16
-4.63779e-16
-5.22814e-16
-4.136e-16
-4.86423e-16
-4.49954e-16
-4.946e-16
-4.21801e-16
-4.84485e-16
-4.04099e-16
-4.16702e-16
-3.89814e-16
-4.56317e-16
-4.40863e-16
-5.24586e-16
-4.41604e-16
-4.78939e-16
-4.63728e-16
-5.00707e-16
-4.75002e-16
-5.41794e-16
-5.25348e-16
-5.46822e-16
-4.89632e-16
-5.47479e-16
-5.06499e-16
-5.38304e-16
-4.64319e-16
-4.66771e-16
-4.23533e-16
-4.46039e-16
-4.57949e-16
-4.87424e-16
-4.67466e-16
-5.27211e-16
-4.8554e-16
-5.72765e-16
-4.99819e-16
-5.37758e-16
-4.66746e-16
-5.18954e-16
-4.6035e-16
-4.96872e-16
-4.69959e-16
-5.14668e-16
-4.80091e-16
-5.18154e-16
-4.86452e-16
-5.24295e-16
-4.6727e-16
-5.34875e-16
-4.79515e-16
-5.32837e-16
-4.65797e-16
-5.23957e-16
-4.25002e-16
-4.60945e-16
-4.23301e-16
-4.31537e-16
-3.93258e-16
-5.15085e-16
-4.36438e-16
-5.25172e-16
-4.52279e-16
-5.37561e-16
-4.82585e-16
-5.09116e-16
-5.17581e-16
-5.63618e-16
-5.32458e-16
-5.92142e-16
-5.4317e-16
-6.11885e-16
-5.81555e-16
-5.80159e-16
-5.08969e-16
-5.81975e-16
-4.45338e-16
-4.87299e-16
-4.32286e-16
-5.50024e-16
-4.80799e-16
-5.29018e-16
-4.61972e-16
-5.5194e-16
-5.16487e-16
-5.5615e-16
-5.16993e-16
-5.36152e-16
-5.07114e-16
-5.28688e-16
-5.12834e-16
-5.39094e-16
-5.01624e-16
-5.01613e-16
-4.78035e-16
-4.65911e-16
-4.07611e-16
-4.64003e-16
-4.42437e-16
-4.60836e-16
-4.25203e-16
-4.33448e-16
-4.1246e-16
-4.85771e-16
-4.06667e-16
-4.63368e-16
-4.83288e-16
-4.71208e-16
-4.32346e-16
-4.64397e-16
-4.62755e-16
-4.80631e-16
-4.4171e-16
-4.7227e-16
-4.19842e-16
-4.04894e-16
-3.83449e-16
-4.03509e-16
-3.86534e-16
-4.25115e-16
-4.04019e-16
-3.88619e-16
-4.05982e-16
-3.888e-16
-3.75823e-16
-3.94411e-16
-3.99476e-16
-3.88294e-16
-4.01389e-16
-4.73616e-16
-4.9503e-16
-5.04299e-16
-5.11545e-16
-5.12909e-16
-5.37341e-16
-5.39757e-16
-5.14637e-16
-5.53476e-16
-5.09806e-16
-5.09899e-16
-5.09265e-16
-5.36009e-16
-5.48727e-16
-5.92352e-16
-5.56202e-16
-5.43067e-16
-5.20606e-16
-5.72016e-16
-5.55572e-16
-6.01625e-16
-5.83494e-16
-5.8416e-16
-5.71358e-16
-6.12504e-16
-5.45543e-16
-6.13142e-16
-5.60398e-16
-6.01769e-16
-5.69057e-16
-6.118e-16
-5.94941e-16
-6.46031e-16
-5.91321e-16
-6.0011e-16
-5.86707e-16
-6.04214e-16
-5.74772e-16
-6.15029e-16
-5.16481e-16
-5.59287e-16
-4.74566e-16
-4.91139e-16
-4.79535e-16
-5.33817e-16
-5.35979e-16
-6.19638e-16
-6.0149e-16
-6.44939e-16
-5.94748e-16
-6.28535e-16
-5.97475e-16
-6.87678e-16
-6.43275e-16
-6.33701e-16
-5.94891e-16
-6.21366e-16
-6.0274e-16
-6.20048e-16
-5.94391e-16
-6.23436e-16
-5.82478e-16
-6.0476e-16
-5.38544e-16
-5.49475e-16
-5.30835e-16
-5.43708e-16
-4.68994e-16
-5.1474e-16
-4.61896e-16
-5.17308e-16
-4.65369e-16
-5.47987e-16
-5.0104e-16
-5.46004e-16
-5.36256e-16
-5.84808e-16
-5.01266e-16
-5.84372e-16
-5.16529e-16
-5.70957e-16
-5.22995e-16
-5.79834e-16
-5.18617e-16
-5.45357e-16
-5.13688e-16
-5.58205e-16
-5.24878e-16
-5.54222e-16
-5.13072e-16
-5.42984e-16
-4.76763e-16
-5.5528e-16
-5.06547e-16
-5.80136e-16
-5.20006e-16
-5.25476e-16
-4.70977e-16
-5.84715e-16
-5.48925e-16
-5.86634e-16
-5.30352e-16
-5.82286e-16
-5.33958e-16
-5.46189e-16
-4.40037e-16
-4.89496e-16
-4.6199e-16
-4.82063e-16
-4.3135e-16
-4.90031e-16
-4.17537e-16
-4.62771e-16
-4.17451e-16
-4.47612e-16
-4.11257e-16
-5.01384e-16
-4.27793e-16
-4.4965e-16
-3.77835e-16
-4.32742e-16
-4.13893e-16
-4.66726e-16
-4.14106e-16
-4.75779e-16
-3.99665e-16
-4.43469e-16
-4.39881e-16
-4.36422e-16
-4.17459e-16
-4.20347e-16
-3.36687e-16
-3.67391e-16
-2.95161e-16
-3.24481e-16
-2.73223e-16
-3.20457e-16
-2.63474e-16
-3.55164e-16
-3.31561e-16
-3.78839e-16
-2.95522e-16
-3.81243e-16
-2.92827e-16
-3.81238e-16
-3.66017e-16
-4.33488e-16
-3.65675e-16
-4.34461e-16
-3.76707e-16
-4.39015e-16
-3.96341e-16
-4.95263e-16
-4.14358e-16
-5.05887e-16
-4.59986e-16
-5.15998e-16
-4.63141e-16
-4.78045e-16
-4.13484e-16
-4.25489e-16
-3.28118e-16
-4.22196e-16
-3.52755e-16
-2.87619e-16
-2.69779e-16
-2.60781e-16
-1.75953e-16
-2.37993e-16
-1.59055e-16
-2.44869e-16
-2.1253e-16
-2.38113e-16
-1.73016e-16
-2.25968e-16
-2.67043e-16
-2.12097e-16
-1.08444e-16
-2.20994e-16
-1.4143e-16
-2.25836e-16
-2.59896e-16
-1.59645e-16
-1.05319e-16
-1.55458e-16
-1.69921e-16
-1.68331e-16
-1.11786e-16
-1.74903e-16
-1.12663e-16
-1.65171e-16
-7.28155e-17
-1.41987e-16
-6.00737e-17
-1.34866e-16
-3.27914e-17
-1.30824e-16
-1.26296e-16
-1.38954e-16
-1.52638e-16
-8.36128e-17
-5.49853e-17
-1.17459e-16
-2.03773e-17
4.51329e-17
8.02637e-17
-1.32183e-17
1.72955e-16
1.12709e-16
1.87536e-16
1.99445e-16
9.20314e-17
1.6522e-16
1.61729e-16
1.94584e-16
1.92182e-16
1.86037e-16
2.39971e-16
1.95638e-16
2.49719e-16
2.15199e-16
2.04769e-16
1.85002e-16
1.58617e-16
1.53604e-16
1.61307e-16
1.49173e-16
1.34087e-16
1.16774e-16
9.98579e-17
8.77732e-17
9.51385e-17
1.11921e-16
1.30576e-16
6.88078e-17
4.22222e-17
2.85289e-17
3.06542e-17
5.21139e-17
3.5119e-17
1.9698e-17
2.94549e-17
6.12506e-18
-1.63619e-17
-1.19834e-17
-3.99399e-19
1.28393e-17
-2.35342e-17
-2.37145e-17
-1.05146e-17
-1.38104e-17
9.64972e-19
)
;

boundaryField
{
    bottomWall
    {
        type            calculated;
        value           uniform 0;
    }
    topWall
    {
        type            calculated;
        value           uniform 0;
    }
    sides1_half0
    {
        type            empty;
        value           nonuniform 0();
    }
    sides1_half1
    {
        type            empty;
        value           nonuniform 0();
    }
    sides2_half0
    {
        type            empty;
        value           nonuniform 0();
    }
    sides2_half1
    {
        type            empty;
        value           nonuniform 0();
    }
    inout1_half0
    {
        type            cyclic;
        value           nonuniform List<scalar> 
300
(
7.13252e-09
2.18399e-08
3.72297e-08
5.33268e-08
7.01567e-08
8.77456e-08
1.06121e-07
1.25311e-07
1.45344e-07
1.66251e-07
1.88062e-07
2.1081e-07
2.34527e-07
2.59248e-07
2.85008e-07
3.11844e-07
3.39792e-07
3.68891e-07
3.99182e-07
4.30706e-07
4.63504e-07
4.97621e-07
5.33102e-07
5.69992e-07
6.0834e-07
6.48194e-07
6.89605e-07
7.32623e-07
7.77302e-07
8.23694e-07
8.71856e-07
9.21843e-07
9.73711e-07
1.02752e-06
1.08332e-06
1.14118e-06
1.20116e-06
1.26331e-06
1.32769e-06
1.39436e-06
1.46338e-06
1.5348e-06
1.60868e-06
1.68507e-06
1.76402e-06
1.84558e-06
1.92979e-06
2.01669e-06
2.10633e-06
2.19873e-06
2.29393e-06
2.39195e-06
2.49282e-06
2.59654e-06
2.70315e-06
2.81264e-06
2.92503e-06
3.04032e-06
3.15851e-06
3.27961e-06
3.40362e-06
3.53053e-06
3.66034e-06
3.79306e-06
3.92868e-06
4.06721e-06
4.20864e-06
4.35299e-06
4.50026e-06
4.65046e-06
4.8036e-06
4.95971e-06
5.11879e-06
5.28087e-06
5.44598e-06
5.61414e-06
5.78538e-06
5.95975e-06
6.13727e-06
6.31804e-06
6.50221e-06
6.68982e-06
6.88092e-06
7.07556e-06
7.27377e-06
7.47561e-06
7.68112e-06
7.89035e-06
8.10335e-06
8.32017e-06
8.54087e-06
8.7655e-06
8.99412e-06
9.2268e-06
9.46358e-06
9.70454e-06
9.94975e-06
1.01993e-05
1.04532e-05
1.07115e-05
1.09744e-05
1.12419e-05
1.1514e-05
1.17909e-05
1.20727e-05
1.23593e-05
1.2651e-05
1.29478e-05
1.32497e-05
1.3557e-05
1.38696e-05
1.41876e-05
1.45113e-05
1.48406e-05
1.51756e-05
1.55165e-05
1.58634e-05
1.62164e-05
1.65755e-05
1.69409e-05
1.73128e-05
1.76912e-05
1.80762e-05
1.8468e-05
1.88667e-05
1.92724e-05
1.96852e-05
2.01054e-05
2.05329e-05
2.09679e-05
2.14107e-05
2.18612e-05
2.23197e-05
2.27863e-05
2.32612e-05
2.37444e-05
2.42363e-05
2.47368e-05
2.52461e-05
2.57645e-05
2.62921e-05
2.68291e-05
2.73756e-05
2.79317e-05
2.84978e-05
2.90738e-05
2.96602e-05
3.02569e-05
3.08642e-05
3.14824e-05
3.21115e-05
3.27518e-05
3.34035e-05
3.40668e-05
3.47419e-05
3.5429e-05
3.61284e-05
3.68402e-05
3.75647e-05
3.83021e-05
3.90526e-05
3.98165e-05
4.0594e-05
4.13853e-05
4.21907e-05
4.30105e-05
4.38449e-05
4.46942e-05
4.55586e-05
4.64384e-05
4.73339e-05
4.82454e-05
4.9173e-05
5.01172e-05
5.10783e-05
5.20564e-05
5.3052e-05
5.40653e-05
5.50967e-05
5.61464e-05
5.72149e-05
5.83023e-05
5.94091e-05
6.05356e-05
6.16822e-05
6.28491e-05
6.40368e-05
6.52457e-05
6.6476e-05
6.77282e-05
6.90027e-05
7.02998e-05
7.16199e-05
7.29635e-05
7.43309e-05
7.57226e-05
7.7139e-05
7.85805e-05
8.00476e-05
8.15407e-05
8.30602e-05
8.46066e-05
8.61804e-05
8.77821e-05
8.9412e-05
9.10708e-05
9.27589e-05
9.44768e-05
9.6225e-05
9.8004e-05
9.98144e-05
0.000101657
0.000103531
0.000105439
0.00010738
0.000109355
0.000111365
0.00011341
0.00011549
0.000117607
0.00011976
0.000121951
0.000124179
0.000126446
0.000128751
0.000131095
0.000133478
0.000135902
0.000138367
0.000140874
0.000143423
0.000146016
0.000148654
0.000151337
0.000154066
0.000156841
0.000159663
0.000162534
0.000165453
0.000168421
0.00017144
0.00017451
0.000177631
0.000180805
0.000184033
0.000187314
0.00019065
0.000194042
0.00019749
0.000200995
0.000204558
0.00020818
0.000211861
0.000215603
0.000219406
0.000223271
0.000227199
0.00023119
0.000235246
0.000239367
0.000243554
0.000247808
0.000252129
0.000256519
0.000260978
0.000265507
0.000270106
0.000274777
0.000279519
0.000284335
0.000289224
0.000294188
0.000299226
0.000304339
0.000309529
0.000314795
0.000320139
0.000325561
0.00033106
0.000336639
0.000342296
0.000348033
0.00035385
0.000359747
0.000365724
0.000371781
0.000377919
0.000384138
0.000390437
0.000396816
0.000403276
0.000409815
0.000416433
0.00042313
0.000429904
0.000436756
0.000443683
0.000450685
0.00045776
0.000464907
)
;
    }
    inout1_half1
    {
        type            cyclic;
        value           nonuniform List<scalar> 
300
(
-7.13252e-09
-2.18399e-08
-3.72297e-08
-5.33268e-08
-7.01567e-08
-8.77456e-08
-1.06121e-07
-1.25311e-07
-1.45344e-07
-1.66251e-07
-1.88062e-07
-2.1081e-07
-2.34527e-07
-2.59248e-07
-2.85008e-07
-3.11844e-07
-3.39792e-07
-3.68891e-07
-3.99182e-07
-4.30706e-07
-4.63504e-07
-4.97621e-07
-5.33102e-07
-5.69992e-07
-6.0834e-07
-6.48194e-07
-6.89605e-07
-7.32623e-07
-7.77302e-07
-8.23694e-07
-8.71856e-07
-9.21843e-07
-9.73711e-07
-1.02752e-06
-1.08332e-06
-1.14118e-06
-1.20116e-06
-1.26331e-06
-1.32769e-06
-1.39436e-06
-1.46338e-06
-1.5348e-06
-1.60868e-06
-1.68507e-06
-1.76402e-06
-1.84558e-06
-1.92979e-06
-2.01669e-06
-2.10633e-06
-2.19873e-06
-2.29393e-06
-2.39195e-06
-2.49282e-06
-2.59654e-06
-2.70315e-06
-2.81264e-06
-2.92503e-06
-3.04032e-06
-3.15851e-06
-3.27961e-06
-3.40362e-06
-3.53053e-06
-3.66034e-06
-3.79306e-06
-3.92868e-06
-4.06721e-06
-4.20864e-06
-4.35299e-06
-4.50026e-06
-4.65046e-06
-4.8036e-06
-4.95971e-06
-5.11879e-06
-5.28087e-06
-5.44598e-06
-5.61414e-06
-5.78538e-06
-5.95975e-06
-6.13727e-06
-6.31804e-06
-6.50221e-06
-6.68982e-06
-6.88092e-06
-7.07556e-06
-7.27377e-06
-7.47561e-06
-7.68112e-06
-7.89035e-06
-8.10335e-06
-8.32017e-06
-8.54087e-06
-8.7655e-06
-8.99412e-06
-9.2268e-06
-9.46358e-06
-9.70454e-06
-9.94975e-06
-1.01993e-05
-1.04532e-05
-1.07115e-05
-1.09744e-05
-1.12419e-05
-1.1514e-05
-1.17909e-05
-1.20727e-05
-1.23593e-05
-1.2651e-05
-1.29478e-05
-1.32497e-05
-1.3557e-05
-1.38696e-05
-1.41876e-05
-1.45113e-05
-1.48406e-05
-1.51756e-05
-1.55165e-05
-1.58634e-05
-1.62164e-05
-1.65755e-05
-1.69409e-05
-1.73128e-05
-1.76912e-05
-1.80762e-05
-1.8468e-05
-1.88667e-05
-1.92724e-05
-1.96852e-05
-2.01054e-05
-2.05329e-05
-2.09679e-05
-2.14107e-05
-2.18612e-05
-2.23197e-05
-2.27863e-05
-2.32612e-05
-2.37444e-05
-2.42363e-05
-2.47368e-05
-2.52461e-05
-2.57645e-05
-2.62921e-05
-2.68291e-05
-2.73756e-05
-2.79317e-05
-2.84978e-05
-2.90738e-05
-2.96602e-05
-3.02569e-05
-3.08642e-05
-3.14824e-05
-3.21115e-05
-3.27518e-05
-3.34035e-05
-3.40668e-05
-3.47419e-05
-3.5429e-05
-3.61284e-05
-3.68402e-05
-3.75647e-05
-3.83021e-05
-3.90526e-05
-3.98165e-05
-4.0594e-05
-4.13853e-05
-4.21907e-05
-4.30105e-05
-4.38449e-05
-4.46942e-05
-4.55586e-05
-4.64384e-05
-4.73339e-05
-4.82454e-05
-4.9173e-05
-5.01172e-05
-5.10783e-05
-5.20564e-05
-5.3052e-05
-5.40653e-05
-5.50967e-05
-5.61464e-05
-5.72149e-05
-5.83023e-05
-5.94091e-05
-6.05356e-05
-6.16822e-05
-6.28491e-05
-6.40368e-05
-6.52457e-05
-6.6476e-05
-6.77282e-05
-6.90027e-05
-7.02998e-05
-7.16199e-05
-7.29635e-05
-7.43309e-05
-7.57226e-05
-7.7139e-05
-7.85805e-05
-8.00476e-05
-8.15407e-05
-8.30602e-05
-8.46066e-05
-8.61804e-05
-8.77821e-05
-8.9412e-05
-9.10708e-05
-9.27589e-05
-9.44768e-05
-9.6225e-05
-9.8004e-05
-9.98144e-05
-0.000101657
-0.000103531
-0.000105439
-0.00010738
-0.000109355
-0.000111365
-0.00011341
-0.00011549
-0.000117607
-0.00011976
-0.000121951
-0.000124179
-0.000126446
-0.000128751
-0.000131095
-0.000133478
-0.000135902
-0.000138367
-0.000140874
-0.000143423
-0.000146016
-0.000148654
-0.000151337
-0.000154066
-0.000156841
-0.000159663
-0.000162534
-0.000165453
-0.000168421
-0.00017144
-0.00017451
-0.000177631
-0.000180805
-0.000184033
-0.000187314
-0.00019065
-0.000194042
-0.00019749
-0.000200995
-0.000204558
-0.00020818
-0.000211861
-0.000215603
-0.000219406
-0.000223271
-0.000227199
-0.00023119
-0.000235246
-0.000239367
-0.000243554
-0.000247808
-0.000252129
-0.000256519
-0.000260978
-0.000265507
-0.000270106
-0.000274777
-0.000279519
-0.000284335
-0.000289224
-0.000294188
-0.000299226
-0.000304339
-0.000309529
-0.000314795
-0.000320139
-0.000325561
-0.00033106
-0.000336639
-0.000342296
-0.000348033
-0.00035385
-0.000359747
-0.000365724
-0.000371781
-0.000377919
-0.000384138
-0.000390437
-0.000396816
-0.000403276
-0.000409815
-0.000416433
-0.00042313
-0.000429904
-0.000436756
-0.000443683
-0.000450685
-0.00045776
-0.000464907
)
;
    }
    inout2_half0
    {
        type            cyclic;
        value           nonuniform List<scalar> 
300
(
0.000464907
0.00045776
0.000450685
0.000443683
0.000436756
0.000429904
0.00042313
0.000416433
0.000409815
0.000403276
0.000396816
0.000390437
0.000384138
0.000377919
0.000371781
0.000365724
0.000359747
0.00035385
0.000348033
0.000342296
0.000336639
0.00033106
0.000325561
0.000320139
0.000314796
0.000309529
0.000304339
0.000299226
0.000294188
0.000289224
0.000284335
0.00027952
0.000274777
0.000270106
0.000265507
0.000260978
0.000256519
0.000252129
0.000247808
0.000243554
0.000239367
0.000235246
0.00023119
0.000227199
0.000223271
0.000219406
0.000215603
0.000211861
0.00020818
0.000204558
0.000200995
0.000197489
0.000194042
0.00019065
0.000187314
0.000184033
0.000180805
0.000177631
0.00017451
0.00017144
0.000168421
0.000165453
0.000162534
0.000159663
0.000156841
0.000154066
0.000151337
0.000148654
0.000146016
0.000143423
0.000140874
0.000138367
0.000135902
0.000133478
0.000131095
0.000128751
0.000126446
0.000124179
0.000121951
0.00011976
0.000117607
0.00011549
0.00011341
0.000111365
0.000109355
0.00010738
0.000105439
0.000103531
0.000101657
9.98144e-05
9.8004e-05
9.6225e-05
9.44768e-05
9.27589e-05
9.10708e-05
8.9412e-05
8.77821e-05
8.61804e-05
8.46066e-05
8.30602e-05
8.15407e-05
8.00476e-05
7.85806e-05
7.7139e-05
7.57226e-05
7.43309e-05
7.29635e-05
7.16199e-05
7.02997e-05
6.90027e-05
6.77282e-05
6.6476e-05
6.52457e-05
6.40368e-05
6.28491e-05
6.16822e-05
6.05356e-05
5.94091e-05
5.83023e-05
5.72149e-05
5.61464e-05
5.50967e-05
5.40653e-05
5.3052e-05
5.20565e-05
5.10783e-05
5.01173e-05
4.9173e-05
4.82453e-05
4.73339e-05
4.64384e-05
4.55586e-05
4.46942e-05
4.38449e-05
4.30105e-05
4.21907e-05
4.13853e-05
4.0594e-05
3.98165e-05
3.90526e-05
3.83021e-05
3.75647e-05
3.68402e-05
3.61284e-05
3.5429e-05
3.47419e-05
3.40668e-05
3.34035e-05
3.27518e-05
3.21115e-05
3.14824e-05
3.08642e-05
3.02569e-05
2.96602e-05
2.90738e-05
2.84977e-05
2.79317e-05
2.73756e-05
2.68291e-05
2.62921e-05
2.57646e-05
2.52461e-05
2.47368e-05
2.42363e-05
2.37444e-05
2.32612e-05
2.27863e-05
2.23197e-05
2.18612e-05
2.14107e-05
2.09679e-05
2.05329e-05
2.01054e-05
1.96852e-05
1.92724e-05
1.88667e-05
1.8468e-05
1.80762e-05
1.76912e-05
1.73128e-05
1.69409e-05
1.65755e-05
1.62163e-05
1.58634e-05
1.55165e-05
1.51756e-05
1.48406e-05
1.45113e-05
1.41876e-05
1.38696e-05
1.3557e-05
1.32497e-05
1.29478e-05
1.2651e-05
1.23593e-05
1.20727e-05
1.17909e-05
1.1514e-05
1.12419e-05
1.09744e-05
1.07115e-05
1.04532e-05
1.01993e-05
9.94975e-06
9.70454e-06
9.46359e-06
9.22679e-06
8.99413e-06
8.76549e-06
8.54086e-06
8.32017e-06
8.10335e-06
7.89035e-06
7.68112e-06
7.47562e-06
7.27377e-06
7.07555e-06
6.88092e-06
6.68982e-06
6.5022e-06
6.31805e-06
6.13727e-06
5.95974e-06
5.78539e-06
5.61414e-06
5.44598e-06
5.28088e-06
5.11879e-06
4.95971e-06
4.8036e-06
4.65046e-06
4.50026e-06
4.35299e-06
4.20865e-06
4.06721e-06
3.92868e-06
3.79306e-06
3.66034e-06
3.53053e-06
3.40362e-06
3.27961e-06
3.15852e-06
3.04032e-06
2.92503e-06
2.81264e-06
2.70315e-06
2.59654e-06
2.49282e-06
2.39195e-06
2.29393e-06
2.19873e-06
2.10633e-06
2.01669e-06
1.92979e-06
1.84558e-06
1.76402e-06
1.68507e-06
1.60868e-06
1.5348e-06
1.46337e-06
1.39436e-06
1.32769e-06
1.26331e-06
1.20116e-06
1.14118e-06
1.08333e-06
1.02752e-06
9.73712e-07
9.21844e-07
8.71854e-07
8.23695e-07
7.77301e-07
7.32623e-07
6.89607e-07
6.48194e-07
6.08338e-07
5.69994e-07
5.33101e-07
4.97622e-07
4.63503e-07
4.30707e-07
3.99182e-07
3.68891e-07
3.39791e-07
3.11845e-07
2.85007e-07
2.59249e-07
2.34528e-07
2.1081e-07
1.88062e-07
1.6625e-07
1.45344e-07
1.25311e-07
1.06121e-07
8.77457e-08
7.01567e-08
5.33266e-08
3.72298e-08
2.18399e-08
7.13252e-09
)
;
    }
    inout2_half1
    {
        type            cyclic;
        value           nonuniform List<scalar> 
300
(
-0.000464907
-0.00045776
-0.000450685
-0.000443683
-0.000436756
-0.000429904
-0.00042313
-0.000416433
-0.000409815
-0.000403276
-0.000396816
-0.000390437
-0.000384138
-0.000377919
-0.000371781
-0.000365724
-0.000359747
-0.00035385
-0.000348033
-0.000342296
-0.000336639
-0.00033106
-0.000325561
-0.000320139
-0.000314796
-0.000309529
-0.000304339
-0.000299226
-0.000294188
-0.000289224
-0.000284335
-0.00027952
-0.000274777
-0.000270106
-0.000265507
-0.000260978
-0.000256519
-0.000252129
-0.000247808
-0.000243554
-0.000239367
-0.000235246
-0.00023119
-0.000227199
-0.000223271
-0.000219406
-0.000215603
-0.000211861
-0.00020818
-0.000204558
-0.000200995
-0.000197489
-0.000194042
-0.00019065
-0.000187314
-0.000184033
-0.000180805
-0.000177631
-0.00017451
-0.00017144
-0.000168421
-0.000165453
-0.000162534
-0.000159663
-0.000156841
-0.000154066
-0.000151337
-0.000148654
-0.000146016
-0.000143423
-0.000140874
-0.000138367
-0.000135902
-0.000133478
-0.000131095
-0.000128751
-0.000126446
-0.000124179
-0.000121951
-0.00011976
-0.000117607
-0.00011549
-0.00011341
-0.000111365
-0.000109355
-0.00010738
-0.000105439
-0.000103531
-0.000101657
-9.98144e-05
-9.8004e-05
-9.6225e-05
-9.44768e-05
-9.27589e-05
-9.10708e-05
-8.9412e-05
-8.77821e-05
-8.61804e-05
-8.46066e-05
-8.30602e-05
-8.15407e-05
-8.00476e-05
-7.85806e-05
-7.7139e-05
-7.57226e-05
-7.43309e-05
-7.29635e-05
-7.16199e-05
-7.02997e-05
-6.90027e-05
-6.77282e-05
-6.6476e-05
-6.52457e-05
-6.40368e-05
-6.28491e-05
-6.16822e-05
-6.05356e-05
-5.94091e-05
-5.83023e-05
-5.72149e-05
-5.61464e-05
-5.50967e-05
-5.40653e-05
-5.3052e-05
-5.20565e-05
-5.10783e-05
-5.01173e-05
-4.9173e-05
-4.82453e-05
-4.73339e-05
-4.64384e-05
-4.55586e-05
-4.46942e-05
-4.38449e-05
-4.30105e-05
-4.21907e-05
-4.13853e-05
-4.0594e-05
-3.98165e-05
-3.90526e-05
-3.83021e-05
-3.75647e-05
-3.68402e-05
-3.61284e-05
-3.5429e-05
-3.47419e-05
-3.40668e-05
-3.34035e-05
-3.27518e-05
-3.21115e-05
-3.14824e-05
-3.08642e-05
-3.02569e-05
-2.96602e-05
-2.90738e-05
-2.84977e-05
-2.79317e-05
-2.73756e-05
-2.68291e-05
-2.62921e-05
-2.57646e-05
-2.52461e-05
-2.47368e-05
-2.42363e-05
-2.37444e-05
-2.32612e-05
-2.27863e-05
-2.23197e-05
-2.18612e-05
-2.14107e-05
-2.09679e-05
-2.05329e-05
-2.01054e-05
-1.96852e-05
-1.92724e-05
-1.88667e-05
-1.8468e-05
-1.80762e-05
-1.76912e-05
-1.73128e-05
-1.69409e-05
-1.65755e-05
-1.62163e-05
-1.58634e-05
-1.55165e-05
-1.51756e-05
-1.48406e-05
-1.45113e-05
-1.41876e-05
-1.38696e-05
-1.3557e-05
-1.32497e-05
-1.29478e-05
-1.2651e-05
-1.23593e-05
-1.20727e-05
-1.17909e-05
-1.1514e-05
-1.12419e-05
-1.09744e-05
-1.07115e-05
-1.04532e-05
-1.01993e-05
-9.94975e-06
-9.70454e-06
-9.46359e-06
-9.22679e-06
-8.99413e-06
-8.76549e-06
-8.54086e-06
-8.32017e-06
-8.10335e-06
-7.89035e-06
-7.68112e-06
-7.47562e-06
-7.27377e-06
-7.07555e-06
-6.88092e-06
-6.68982e-06
-6.5022e-06
-6.31805e-06
-6.13727e-06
-5.95974e-06
-5.78539e-06
-5.61414e-06
-5.44598e-06
-5.28088e-06
-5.11879e-06
-4.95971e-06
-4.8036e-06
-4.65046e-06
-4.50026e-06
-4.35299e-06
-4.20865e-06
-4.06721e-06
-3.92868e-06
-3.79306e-06
-3.66034e-06
-3.53053e-06
-3.40362e-06
-3.27961e-06
-3.15852e-06
-3.04032e-06
-2.92503e-06
-2.81264e-06
-2.70315e-06
-2.59654e-06
-2.49282e-06
-2.39195e-06
-2.29393e-06
-2.19873e-06
-2.10633e-06
-2.01669e-06
-1.92979e-06
-1.84558e-06
-1.76402e-06
-1.68507e-06
-1.60868e-06
-1.5348e-06
-1.46337e-06
-1.39436e-06
-1.32769e-06
-1.26331e-06
-1.20116e-06
-1.14118e-06
-1.08333e-06
-1.02752e-06
-9.73712e-07
-9.21844e-07
-8.71854e-07
-8.23695e-07
-7.77301e-07
-7.32623e-07
-6.89607e-07
-6.48194e-07
-6.08338e-07
-5.69994e-07
-5.33101e-07
-4.97622e-07
-4.63503e-07
-4.30707e-07
-3.99182e-07
-3.68891e-07
-3.39791e-07
-3.11845e-07
-2.85007e-07
-2.59249e-07
-2.34528e-07
-2.1081e-07
-1.88062e-07
-1.6625e-07
-1.45344e-07
-1.25311e-07
-1.06121e-07
-8.77457e-08
-7.01567e-08
-5.33266e-08
-3.72298e-08
-2.18399e-08
-7.13252e-09
)
;
    }
}


// ************************************************************************* //
