/*--------------------------------*- C++ -*----------------------------------*\
  =========                 |
  \\      /  F ield         | OpenFOAM: The Open Source CFD Toolbox
   \\    /   O peration     | Website:  https://openfoam.org
    \\  /    A nd           | Version:  7
     \\/     M anipulation  |
\*---------------------------------------------------------------------------*/
FoamFile
{
    version     2.0;
    format      ascii;
    class       volVectorField;
    location    "99000";
    object      U;
}
// * * * * * * * * * * * * * * * * * * * * * * * * * * * * * * * * * * * * * //

dimensions      [0 1 -1 0 0 0 0];

internalField   nonuniform List<vector> 
600
(
(0.000231037 1.09246e-14 0)
(0.000696624 -2.97513e-14 0)
(0.00116936 -2.06367e-14 0)
(0.00164937 -2.29493e-14 0)
(0.00213674 -2.26059e-14 0)
(0.00263159 -2.33556e-14 0)
(0.00313405 -2.29421e-14 0)
(0.00364421 -2.54748e-14 0)
(0.0041622 -2.41691e-14 0)
(0.00468814 -2.52057e-14 0)
(0.00522215 -2.3917e-14 0)
(0.00576435 -2.53993e-14 0)
(0.00631486 -2.50721e-14 0)
(0.00687381 -2.58094e-14 0)
(0.00744132 -2.57097e-14 0)
(0.00801753 -2.44578e-14 0)
(0.00860255 -2.49681e-14 0)
(0.00919653 -2.65762e-14 0)
(0.00979959 -2.68301e-14 0)
(0.0104119 -2.4621e-14 0)
(0.0110335 -2.70121e-14 0)
(0.0116646 -2.64393e-14 0)
(0.0123053 -2.88587e-14 0)
(0.0129557 -2.74973e-14 0)
(0.013616 -2.6443e-14 0)
(0.0142863 -2.64075e-14 0)
(0.0149667 -2.42865e-14 0)
(0.0156573 -2.35965e-14 0)
(0.0163582 -2.29266e-14 0)
(0.0170696 -2.42213e-14 0)
(0.0177916 -2.36132e-14 0)
(0.0185241 -2.71012e-14 0)
(0.0192673 -2.55269e-14 0)
(0.0200213 -2.43422e-14 0)
(0.020786 -2.64485e-14 0)
(0.0215615 -2.89814e-14 0)
(0.0223478 -2.50498e-14 0)
(0.0231449 -2.46357e-14 0)
(0.0239526 -2.43984e-14 0)
(0.024771 -2.48149e-14 0)
(0.0255998 -2.30078e-14 0)
(0.0264388 -1.97553e-14 0)
(0.0272879 -1.95996e-14 0)
(0.0281469 -1.90602e-14 0)
(0.0290153 -1.83226e-14 0)
(0.0298928 -1.82514e-14 0)
(0.030779 -1.72935e-14 0)
(0.0316735 -1.71737e-14 0)
(0.0325757 -2.0534e-14 0)
(0.033485 -2.35001e-14 0)
(0.0344009 -2.22619e-14 0)
(0.0353226 -1.80384e-14 0)
(0.0362495 -1.62583e-14 0)
(0.0371808 -1.35605e-14 0)
(0.0381157 -1.06382e-14 0)
(0.0390534 -1.05728e-14 0)
(0.0399932 -1.23567e-14 0)
(0.0409342 -1.25201e-14 0)
(0.0418756 -1.49699e-14 0)
(0.0428166 -1.51276e-14 0)
(0.0437564 -1.37257e-14 0)
(0.0446942 -1.26941e-14 0)
(0.0456293 -1.54664e-14 0)
(0.0465611 -1.51131e-14 0)
(0.0474888 -1.31388e-14 0)
(0.0484119 -1.58871e-14 0)
(0.0493297 -1.35761e-14 0)
(0.0502418 -1.55947e-14 0)
(0.0511477 -1.60053e-14 0)
(0.052047 -1.83193e-14 0)
(0.0529392 -1.73097e-14 0)
(0.0538242 -1.98568e-14 0)
(0.0547016 -2.10335e-14 0)
(0.0555711 -2.31264e-14 0)
(0.0564327 -1.96616e-14 0)
(0.057286 -1.91996e-14 0)
(0.0581311 -1.72646e-14 0)
(0.0589679 -1.33435e-14 0)
(0.0597962 -1.26284e-14 0)
(0.0606167 -1.3848e-14 0)
(0.0614302 -1.62462e-14 0)
(0.0622366 -1.52379e-14 0)
(0.0630361 -1.73069e-14 0)
(0.0638285 -1.76172e-14 0)
(0.0646137 -1.85565e-14 0)
(0.0653917 -2.15213e-14 0)
(0.0661625 -2.21469e-14 0)
(0.0669259 -2.34727e-14 0)
(0.0676821 -2.74761e-14 0)
(0.0684309 -3.01042e-14 0)
(0.0691725 -2.78785e-14 0)
(0.0699067 -2.95188e-14 0)
(0.0706337 -2.63949e-14 0)
(0.0713535 -2.54838e-14 0)
(0.0720661 -2.33752e-14 0)
(0.0727715 -2.2968e-14 0)
(0.0734699 -2.26141e-14 0)
(0.0741613 -2.05534e-14 0)
(0.0748458 -1.9912e-14 0)
(0.0755234 -1.96137e-14 0)
(0.0761942 -1.84816e-14 0)
(0.0768583 -1.97713e-14 0)
(0.0775158 -2.07661e-14 0)
(0.0781668 -2.12932e-14 0)
(0.0788114 -2.1483e-14 0)
(0.0794497 -2.28117e-14 0)
(0.0800817 -2.24346e-14 0)
(0.0807076 -2.34609e-14 0)
(0.0813275 -2.14591e-14 0)
(0.0819415 -2.29883e-14 0)
(0.0825497 -2.25552e-14 0)
(0.0831521 -2.11026e-14 0)
(0.083749 -2.19845e-14 0)
(0.0843403 -2.22121e-14 0)
(0.0849263 -2.17839e-14 0)
(0.0855069 -2.44474e-14 0)
(0.0860824 -2.19754e-14 0)
(0.0866528 -2.51789e-14 0)
(0.0872181 -2.43734e-14 0)
(0.0877786 -2.52105e-14 0)
(0.0883343 -2.5077e-14 0)
(0.0888853 -2.37353e-14 0)
(0.0894317 -2.22775e-14 0)
(0.0899737 -2.29221e-14 0)
(0.0905112 -2.41028e-14 0)
(0.0910444 -2.23459e-14 0)
(0.0915734 -2.14845e-14 0)
(0.0920982 -1.98918e-14 0)
(0.0926191 -2.05013e-14 0)
(0.0931359 -1.9784e-14 0)
(0.093649 -2.12097e-14 0)
(0.0941582 -2.08828e-14 0)
(0.0946637 -2.03176e-14 0)
(0.0951657 -2.04389e-14 0)
(0.0956641 -1.91623e-14 0)
(0.096159 -1.89769e-14 0)
(0.0966506 -1.88221e-14 0)
(0.0971388 -1.92539e-14 0)
(0.0976239 -1.79313e-14 0)
(0.0981058 -1.91663e-14 0)
(0.0985846 -2.04336e-14 0)
(0.0990604 -1.86138e-14 0)
(0.0995332 -1.77018e-14 0)
(0.100003 -1.6117e-14 0)
(0.10047 -1.79703e-14 0)
(0.100935 -1.79995e-14 0)
(0.101396 -1.93391e-14 0)
(0.101856 -1.948e-14 0)
(0.102312 -2.01576e-14 0)
(0.102766 -1.9469e-14 0)
(0.103218 -1.94738e-14 0)
(0.103667 -1.8872e-14 0)
(0.104114 -1.89397e-14 0)
(0.104558 -1.99818e-14 0)
(0.105001 -1.93816e-14 0)
(0.105441 -2.01947e-14 0)
(0.105879 -1.98112e-14 0)
(0.106315 -1.93916e-14 0)
(0.106748 -1.82385e-14 0)
(0.10718 -1.92725e-14 0)
(0.10761 -1.85215e-14 0)
(0.108038 -1.97596e-14 0)
(0.108464 -1.78521e-14 0)
(0.108889 -1.71026e-14 0)
(0.109311 -1.98634e-14 0)
(0.109732 -2.09434e-14 0)
(0.110151 -1.96598e-14 0)
(0.110569 -1.97901e-14 0)
(0.110985 -1.90337e-14 0)
(0.111399 -1.85888e-14 0)
(0.111812 -1.83593e-14 0)
(0.112223 -1.70225e-14 0)
(0.112632 -1.71129e-14 0)
(0.113041 -1.6534e-14 0)
(0.113447 -1.65047e-14 0)
(0.113853 -1.52336e-14 0)
(0.114257 -1.45809e-14 0)
(0.11466 -1.37922e-14 0)
(0.115061 -1.58946e-14 0)
(0.115461 -1.67272e-14 0)
(0.11586 -1.7478e-14 0)
(0.116258 -1.72798e-14 0)
(0.116654 -1.8126e-14 0)
(0.117049 -1.7431e-14 0)
(0.117443 -1.74291e-14 0)
(0.117836 -1.87204e-14 0)
(0.118228 -1.82841e-14 0)
(0.118619 -1.69854e-14 0)
(0.119008 -1.80105e-14 0)
(0.119397 -1.90406e-14 0)
(0.119785 -1.88828e-14 0)
(0.120171 -1.899e-14 0)
(0.120557 -2.11453e-14 0)
(0.120941 -2.1064e-14 0)
(0.121325 -1.99294e-14 0)
(0.121707 -2.00438e-14 0)
(0.122089 -1.9651e-14 0)
(0.122469 -1.95524e-14 0)
(0.122849 -1.91821e-14 0)
(0.123228 -1.91808e-14 0)
(0.123606 -1.92751e-14 0)
(0.123983 -1.86014e-14 0)
(0.124359 -1.93562e-14 0)
(0.124734 -2.10689e-14 0)
(0.125108 -2.11517e-14 0)
(0.125482 -2.02375e-14 0)
(0.125854 -2.26035e-14 0)
(0.126226 -2.50843e-14 0)
(0.126596 -2.35954e-14 0)
(0.126966 -2.33582e-14 0)
(0.127335 -2.30141e-14 0)
(0.127703 -2.22961e-14 0)
(0.128071 -2.12789e-14 0)
(0.128437 -2.15722e-14 0)
(0.128802 -2.12541e-14 0)
(0.129167 -2.20236e-14 0)
(0.12953 -2.29186e-14 0)
(0.129892 -2.29142e-14 0)
(0.130254 -2.33121e-14 0)
(0.130614 -2.50453e-14 0)
(0.130972 -2.29782e-14 0)
(0.13133 -2.22264e-14 0)
(0.131685 -2.27833e-14 0)
(0.132039 -2.41697e-14 0)
(0.132391 -2.28939e-14 0)
(0.132741 -2.2579e-14 0)
(0.133089 -2.14257e-14 0)
(0.133435 -2.13404e-14 0)
(0.133779 -2.02373e-14 0)
(0.13412 -2.16805e-14 0)
(0.134461 -2.17313e-14 0)
(0.1348 -2.46637e-14 0)
(0.135137 -2.44625e-14 0)
(0.135474 -2.32277e-14 0)
(0.135808 -2.39188e-14 0)
(0.136142 -2.36205e-14 0)
(0.136473 -2.43488e-14 0)
(0.136803 -2.58939e-14 0)
(0.137132 -2.63877e-14 0)
(0.137459 -2.63141e-14 0)
(0.137784 -2.61495e-14 0)
(0.138108 -2.55457e-14 0)
(0.13843 -2.53772e-14 0)
(0.138749 -2.69092e-14 0)
(0.139068 -2.50794e-14 0)
(0.139384 -2.34828e-14 0)
(0.139698 -2.22063e-14 0)
(0.14001 -2.15477e-14 0)
(0.14032 -2.29271e-14 0)
(0.140628 -2.31472e-14 0)
(0.140933 -2.41178e-14 0)
(0.141236 -2.47533e-14 0)
(0.141537 -2.61069e-14 0)
(0.141836 -2.56304e-14 0)
(0.142131 -2.74892e-14 0)
(0.142425 -2.50994e-14 0)
(0.142715 -2.52465e-14 0)
(0.143003 -2.46932e-14 0)
(0.143287 -2.53315e-14 0)
(0.143569 -2.38245e-14 0)
(0.143848 -2.40163e-14 0)
(0.144123 -2.49994e-14 0)
(0.144395 -2.54822e-14 0)
(0.144664 -2.59167e-14 0)
(0.144929 -2.4465e-14 0)
(0.14519 -2.52569e-14 0)
(0.145448 -2.48521e-14 0)
(0.145702 -2.48253e-14 0)
(0.145951 -2.57286e-14 0)
(0.146197 -2.46167e-14 0)
(0.146438 -2.57428e-14 0)
(0.146674 -2.48954e-14 0)
(0.146906 -2.27734e-14 0)
(0.147133 -2.24686e-14 0)
(0.147355 -2.23587e-14 0)
(0.147571 -2.12676e-14 0)
(0.147782 -2.05677e-14 0)
(0.147988 -2.26841e-14 0)
(0.148188 -2.29345e-14 0)
(0.148382 -2.41868e-14 0)
(0.14857 -2.47888e-14 0)
(0.148751 -2.36454e-14 0)
(0.148926 -2.60196e-14 0)
(0.149093 -2.54724e-14 0)
(0.149254 -2.51057e-14 0)
(0.149407 -2.6903e-14 0)
(0.149552 -2.7708e-14 0)
(0.14969 -2.83632e-14 0)
(0.149819 -2.74127e-14 0)
(0.14994 -2.99281e-14 0)
(0.150052 -2.95665e-14 0)
(0.150154 -2.91148e-14 0)
(0.150247 -2.7488e-14 0)
(0.15033 -2.58561e-14 0)
(0.150402 -2.56796e-14 0)
(0.150464 -2.47133e-14 0)
(0.150514 -2.25501e-14 0)
(0.150553 -2.45258e-14 0)
(0.150579 -2.51868e-14 0)
(0.150593 -2.67036e-14 0)
(0.150593 -2.35751e-14 0)
(0.150579 -2.69846e-14 0)
(0.150553 -2.58569e-14 0)
(0.150514 -2.6104e-14 0)
(0.150464 -2.63292e-14 0)
(0.150402 -2.80574e-14 0)
(0.15033 -2.60473e-14 0)
(0.150247 -2.47302e-14 0)
(0.150154 -2.62838e-14 0)
(0.150052 -2.61424e-14 0)
(0.14994 -2.58645e-14 0)
(0.149819 -2.49814e-14 0)
(0.14969 -2.28754e-14 0)
(0.149552 -2.39131e-14 0)
(0.149407 -2.18987e-14 0)
(0.149254 -2.13818e-14 0)
(0.149093 -2.24518e-14 0)
(0.148926 -2.33784e-14 0)
(0.148751 -2.25157e-14 0)
(0.14857 -2.0584e-14 0)
(0.148382 -2.1662e-14 0)
(0.148188 -2.25145e-14 0)
(0.147988 -2.20606e-14 0)
(0.147782 -2.12288e-14 0)
(0.147571 -2.36958e-14 0)
(0.147355 -2.3319e-14 0)
(0.147133 -2.28681e-14 0)
(0.146906 -2.27881e-14 0)
(0.146674 -2.24553e-14 0)
(0.146438 -2.39241e-14 0)
(0.146197 -2.31213e-14 0)
(0.145951 -2.29346e-14 0)
(0.145702 -2.2715e-14 0)
(0.145448 -2.00443e-14 0)
(0.14519 -1.93134e-14 0)
(0.144929 -1.93914e-14 0)
(0.144664 -2.04429e-14 0)
(0.144395 -2.04545e-14 0)
(0.144123 -2.07621e-14 0)
(0.143848 -1.89909e-14 0)
(0.143569 -1.97878e-14 0)
(0.143287 -1.89958e-14 0)
(0.143003 -1.98522e-14 0)
(0.142715 -1.90111e-14 0)
(0.142425 -2.04468e-14 0)
(0.142131 -2.00149e-14 0)
(0.141836 -1.93675e-14 0)
(0.141537 -2.18409e-14 0)
(0.141236 -2.42036e-14 0)
(0.140933 -2.53839e-14 0)
(0.140628 -2.57308e-14 0)
(0.14032 -2.51588e-14 0)
(0.14001 -2.6275e-14 0)
(0.139698 -2.61672e-14 0)
(0.139384 -2.52119e-14 0)
(0.139068 -2.74694e-14 0)
(0.138749 -2.55754e-14 0)
(0.13843 -2.55086e-14 0)
(0.138108 -2.54099e-14 0)
(0.137784 -2.70499e-14 0)
(0.137459 -2.69124e-14 0)
(0.137132 -2.85141e-14 0)
(0.136803 -2.88216e-14 0)
(0.136473 -2.69623e-14 0)
(0.136142 -2.67402e-14 0)
(0.135808 -2.68276e-14 0)
(0.135474 -2.91991e-14 0)
(0.135137 -2.89625e-14 0)
(0.1348 -2.90347e-14 0)
(0.134461 -2.98519e-14 0)
(0.13412 -2.89496e-14 0)
(0.133779 -2.95372e-14 0)
(0.133435 -2.88994e-14 0)
(0.133089 -2.95711e-14 0)
(0.132741 -2.95748e-14 0)
(0.132391 -2.96684e-14 0)
(0.132039 -2.84507e-14 0)
(0.131685 -2.90196e-14 0)
(0.13133 -2.98838e-14 0)
(0.130972 -3.07611e-14 0)
(0.130614 -3.06292e-14 0)
(0.130254 -2.93426e-14 0)
(0.129892 -3.03452e-14 0)
(0.12953 -2.94466e-14 0)
(0.129167 -2.97873e-14 0)
(0.128802 -2.96497e-14 0)
(0.128437 -2.88232e-14 0)
(0.128071 -2.59922e-14 0)
(0.127703 -2.60245e-14 0)
(0.127335 -2.48947e-14 0)
(0.126966 -2.47884e-14 0)
(0.126596 -2.52861e-14 0)
(0.126226 -2.68515e-14 0)
(0.125854 -2.89644e-14 0)
(0.125482 -3.06626e-14 0)
(0.125108 -3.09209e-14 0)
(0.124734 -3.08244e-14 0)
(0.124359 -3.06394e-14 0)
(0.123983 -3.10439e-14 0)
(0.123606 -3.2882e-14 0)
(0.123228 -3.26965e-14 0)
(0.122849 -3.19886e-14 0)
(0.122469 -3.12439e-14 0)
(0.122089 -3.04818e-14 0)
(0.121707 -3.07455e-14 0)
(0.121325 -3.10834e-14 0)
(0.120941 -3.01065e-14 0)
(0.120557 -2.96889e-14 0)
(0.120171 -3.08019e-14 0)
(0.119785 -3.00991e-14 0)
(0.119397 -2.79528e-14 0)
(0.119008 -2.78072e-14 0)
(0.118619 -2.72374e-14 0)
(0.118228 -2.63028e-14 0)
(0.117836 -2.54974e-14 0)
(0.117443 -2.46771e-14 0)
(0.117049 -2.40733e-14 0)
(0.116654 -2.38641e-14 0)
(0.116258 -2.50338e-14 0)
(0.11586 -2.58307e-14 0)
(0.115461 -2.55696e-14 0)
(0.115061 -2.58716e-14 0)
(0.11466 -2.65837e-14 0)
(0.114257 -2.75975e-14 0)
(0.113853 -2.72399e-14 0)
(0.113447 -2.72064e-14 0)
(0.113041 -2.80272e-14 0)
(0.112632 -2.72474e-14 0)
(0.112223 -2.79739e-14 0)
(0.111812 -2.77773e-14 0)
(0.111399 -2.70265e-14 0)
(0.110985 -2.65783e-14 0)
(0.110569 -2.64824e-14 0)
(0.110151 -2.65256e-14 0)
(0.109732 -2.72996e-14 0)
(0.109311 -2.68282e-14 0)
(0.108889 -2.66479e-14 0)
(0.108464 -2.62934e-14 0)
(0.108038 -2.60393e-14 0)
(0.10761 -2.56673e-14 0)
(0.10718 -2.61892e-14 0)
(0.106748 -2.74812e-14 0)
(0.106315 -2.80102e-14 0)
(0.105879 -2.57507e-14 0)
(0.105441 -2.53955e-14 0)
(0.105001 -2.57407e-14 0)
(0.104558 -2.8749e-14 0)
(0.104114 -2.75974e-14 0)
(0.103667 -2.81525e-14 0)
(0.103218 -2.74899e-14 0)
(0.102766 -2.765e-14 0)
(0.102312 -2.76566e-14 0)
(0.101856 -2.42123e-14 0)
(0.101396 -2.33088e-14 0)
(0.100935 -2.462e-14 0)
(0.10047 -2.34393e-14 0)
(0.100003 -2.17529e-14 0)
(0.0995332 -2.32856e-14 0)
(0.0990604 -2.2569e-14 0)
(0.0985846 -2.20729e-14 0)
(0.0981058 -2.16274e-14 0)
(0.0976239 -2.17804e-14 0)
(0.0971388 -2.18285e-14 0)
(0.0966506 -2.22788e-14 0)
(0.096159 -2.33647e-14 0)
(0.0956641 -2.17776e-14 0)
(0.0951657 -2.07818e-14 0)
(0.0946637 -2.06841e-14 0)
(0.0941582 -2.08623e-14 0)
(0.093649 -2.26379e-14 0)
(0.0931359 -2.13374e-14 0)
(0.0926191 -2.26724e-14 0)
(0.0920982 -2.19062e-14 0)
(0.0915734 -2.09315e-14 0)
(0.0910444 -2.18755e-14 0)
(0.0905112 -2.2581e-14 0)
(0.0899737 -2.05033e-14 0)
(0.0894317 -1.99663e-14 0)
(0.0888853 -1.91141e-14 0)
(0.0883343 -1.77107e-14 0)
(0.0877786 -1.64804e-14 0)
(0.0872181 -1.65739e-14 0)
(0.0866528 -1.41498e-14 0)
(0.0860824 -1.47809e-14 0)
(0.0855069 -1.49455e-14 0)
(0.0849263 -1.51784e-14 0)
(0.0843403 -1.79829e-14 0)
(0.083749 -1.81229e-14 0)
(0.0831521 -1.61523e-14 0)
(0.0825497 -1.66399e-14 0)
(0.0819415 -1.67375e-14 0)
(0.0813275 -1.66498e-14 0)
(0.0807076 -1.86987e-14 0)
(0.0800817 -1.99573e-14 0)
(0.0794497 -1.92523e-14 0)
(0.0788114 -2.03078e-14 0)
(0.0781668 -2.14523e-14 0)
(0.0775158 -1.98941e-14 0)
(0.0768583 -2.10548e-14 0)
(0.0761942 -2.18921e-14 0)
(0.0755234 -2.33781e-14 0)
(0.0748458 -2.18997e-14 0)
(0.0741613 -2.51252e-14 0)
(0.0734699 -2.33929e-14 0)
(0.0727715 -2.52197e-14 0)
(0.0720661 -2.37689e-14 0)
(0.0713535 -2.20747e-14 0)
(0.0706337 -2.14044e-14 0)
(0.0699067 -1.7696e-14 0)
(0.0691725 -1.84961e-14 0)
(0.0684309 -2.02014e-14 0)
(0.0676821 -1.57598e-14 0)
(0.0669259 -1.40785e-14 0)
(0.0661625 -1.29073e-14 0)
(0.0653917 -1.06299e-14 0)
(0.0646137 -1.11606e-14 0)
(0.0638285 -1.02708e-14 0)
(0.0630361 -9.16637e-15 0)
(0.0622366 -1.16915e-14 0)
(0.0614302 -1.08323e-14 0)
(0.0606167 -1.15347e-14 0)
(0.0597962 -9.34849e-15 0)
(0.0589679 -1.23363e-14 0)
(0.0581311 -1.11167e-14 0)
(0.057286 -7.4977e-15 0)
(0.0564327 -7.28735e-15 0)
(0.0555711 -8.24225e-15 0)
(0.0547016 -9.7456e-15 0)
(0.0538242 -1.21337e-14 0)
(0.0529392 -1.2906e-14 0)
(0.052047 -5.85921e-15 0)
(0.0511477 -6.22343e-15 0)
(0.0502418 -7.44496e-15 0)
(0.0493297 -8.20282e-15 0)
(0.0484119 -6.22403e-15 0)
(0.0474888 -6.36503e-15 0)
(0.0465611 -8.28065e-15 0)
(0.0456293 -5.87895e-15 0)
(0.0446942 -7.11212e-15 0)
(0.0437564 -4.51341e-15 0)
(0.0428166 -7.55462e-15 0)
(0.0418756 -3.73775e-15 0)
(0.0409342 -3.89477e-15 0)
(0.0399932 -4.37625e-15 0)
(0.0390534 -7.10099e-15 0)
(0.0381157 -7.32875e-15 0)
(0.0371808 -4.85306e-15 0)
(0.0362495 -6.82578e-15 0)
(0.0353226 -2.35978e-15 0)
(0.0344009 -3.23766e-15 0)
(0.033485 -2.95587e-15 0)
(0.0325757 7.67194e-16 0)
(0.0316735 2.97077e-15 0)
(0.030779 9.57001e-16 0)
(0.0298928 5.92031e-15 0)
(0.0290153 5.81432e-15 0)
(0.0281469 7.02439e-15 0)
(0.0272879 8.69274e-15 0)
(0.0264388 7.52817e-15 0)
(0.0255998 5.55231e-15 0)
(0.024771 9.19308e-15 0)
(0.0239526 9.11724e-15 0)
(0.0231449 9.15002e-15 0)
(0.0223478 1.03682e-14 0)
(0.0215615 1.22823e-14 0)
(0.020786 1.03017e-14 0)
(0.0200213 1.07429e-14 0)
(0.0192673 1.23256e-14 0)
(0.0185241 1.04999e-14 0)
(0.0177916 1.00646e-14 0)
(0.0170696 7.13491e-15 0)
(0.0163582 8.51155e-15 0)
(0.0156573 7.02391e-15 0)
(0.0149667 8.79038e-15 0)
(0.0142863 7.04846e-15 0)
(0.013616 6.16911e-15 0)
(0.0129557 5.24635e-15 0)
(0.0123053 4.74331e-15 0)
(0.0116646 4.50177e-15 0)
(0.0110335 4.4983e-15 0)
(0.0104119 6.99716e-15 0)
(0.00979959 3.79134e-15 0)
(0.00919653 2.60779e-15 0)
(0.00860255 1.622e-15 0)
(0.00801753 1.64385e-15 0)
(0.00744132 2.93197e-15 0)
(0.00687381 1.51571e-15 0)
(0.00631486 2.3794e-15 0)
(0.00576435 1.01544e-15 0)
(0.00522215 2.23681e-16 0)
(0.00468814 6.65984e-16 0)
(0.0041622 -1.34326e-15 0)
(0.00364421 -4.22603e-16 0)
(0.00313405 -1.06887e-15 0)
(0.00263159 6.52774e-16 0)
(0.00213674 -2.27899e-16 0)
(0.00164936 -1.46068e-15 0)
(0.00116936 -1.14475e-15 0)
(0.000696624 -5.48033e-16 0)
(0.000231037 1.19493e-16 0)
)
;

boundaryField
{
    bottomWall
    {
        type            noSlip;
    }
    topWall
    {
        type            noSlip;
    }
    sides1_half0
    {
        type            empty;
    }
    sides1_half1
    {
        type            empty;
    }
    sides2_half0
    {
        type            empty;
    }
    sides2_half1
    {
        type            empty;
    }
    inout1_half0
    {
        type            cyclic;
    }
    inout1_half1
    {
        type            cyclic;
    }
    inout2_half0
    {
        type            cyclic;
    }
    inout2_half1
    {
        type            cyclic;
    }
}


// ************************************************************************* //
