/*--------------------------------*- C++ -*----------------------------------*\
  =========                 |
  \\      /  F ield         | OpenFOAM: The Open Source CFD Toolbox
   \\    /   O peration     | Website:  https://openfoam.org
    \\  /    A nd           | Version:  7
     \\/     M anipulation  |
\*---------------------------------------------------------------------------*/
FoamFile
{
    version     2.0;
    format      ascii;
    class       volScalarField;
    location    "3500";
    object      omega;
}
// * * * * * * * * * * * * * * * * * * * * * * * * * * * * * * * * * * * * * //

dimensions      [0 0 -1 0 0 0 0];

internalField   nonuniform List<scalar> 
4000
(
0.0285505
0.0285443
0.0285442
0.0285453
0.0285466
0.0285479
0.0285491
0.0285502
0.0285513
0.0285524
0.0285535
0.0285546
0.0285557
0.0285567
0.0285578
0.0285589
0.0285599
0.028561
0.028562
0.028563
0.028564
0.028565
0.0285659
0.0285668
0.0285677
0.0285686
0.0285694
0.0285703
0.0285711
0.0285719
0.0285727
0.0285735
0.0285743
0.028575
0.0285758
0.0285765
0.0285773
0.028578
0.0285788
0.0285795
0.0285802
0.028581
0.0285817
0.0285824
0.0285826
0.0285739
0.0285685
0.0285667
0.0285666
0.0285671
0.0285677
0.0285685
0.0285693
0.0285701
0.028571
0.0285718
0.0285727
0.0285735
0.0285744
0.0285753
0.0285762
0.028577
0.0285779
0.0285788
0.0285796
0.0285805
0.0285813
0.0285821
0.0285829
0.0285836
0.0285844
0.0285851
0.0285859
0.0285866
0.0285873
0.028588
0.0285886
0.0285893
0.0285899
0.0285906
0.0285912
0.0285918
0.0285924
0.028593
0.0285935
0.0285941
0.0285946
0.0285951
0.0285956
0.0285961
0.0285966
0.0285971
0.0285976
0.028598
0.0285985
0.0285989
0.0285993
0.0285997
0.0286002
0.0286005
0.0286009
0.0286013
0.0286017
0.0286015
0.0285924
0.0285867
0.0285845
0.028584
0.0285841
0.0285844
0.0285848
0.0285852
0.0285857
0.0285861
0.0285866
0.0285871
0.0285876
0.0285881
0.0285888
0.0285851
0.0286893
0.0286829
0.0286823
0.028683
0.028684
0.028685
0.0286861
0.0286871
0.0286881
0.028689
0.02869
0.028691
0.028692
0.028693
0.0286939
0.0286949
0.0286959
0.0286969
0.0286979
0.0286989
0.0286998
0.0287007
0.0287016
0.0287024
0.0287033
0.0287041
0.0287049
0.0287057
0.0287065
0.0287072
0.028708
0.0287087
0.0287095
0.0287102
0.0287109
0.0287116
0.0287123
0.0287131
0.0287138
0.0287144
0.0287151
0.0287158
0.0287165
0.0287172
0.0287178
0.0287156
0.0287126
0.0287103
0.0287091
0.0287086
0.0287085
0.0287086
0.028709
0.0287094
0.0287099
0.0287105
0.0287111
0.0287117
0.0287124
0.0287131
0.0287138
0.0287145
0.0287152
0.0287159
0.0287167
0.0287174
0.0287181
0.0287188
0.0287195
0.0287202
0.0287209
0.0287215
0.0287222
0.0287229
0.0287235
0.0287241
0.0287247
0.0287253
0.0287259
0.0287265
0.0287271
0.0287276
0.0287282
0.0287287
0.0287292
0.0287297
0.0287302
0.0287307
0.0287312
0.0287317
0.0287321
0.0287326
0.028733
0.0287334
0.0287338
0.0287342
0.0287346
0.028735
0.0287354
0.0287358
0.0287361
0.0287365
0.0287368
0.028737
0.0287345
0.0287311
0.0287285
0.0287269
0.028726
0.0287255
0.0287253
0.0287253
0.0287254
0.0287255
0.0287257
0.0287259
0.0287262
0.0287265
0.028727
0.0287235
0.028935
0.0289285
0.0289278
0.0289283
0.028929
0.0289299
0.0289307
0.0289316
0.0289325
0.0289333
0.0289342
0.0289351
0.028936
0.0289369
0.0289378
0.0289387
0.0289397
0.0289406
0.0289415
0.0289424
0.0289433
0.0289442
0.028945
0.0289458
0.0289466
0.0289474
0.0289482
0.0289489
0.0289496
0.0289504
0.0289511
0.0289518
0.0289525
0.0289532
0.0289539
0.0289545
0.0289552
0.0289559
0.0289566
0.0289572
0.0289579
0.0289585
0.0289592
0.0289598
0.0289605
0.0289602
0.0289592
0.028958
0.0289569
0.0289562
0.0289558
0.0289557
0.0289557
0.0289559
0.0289562
0.0289565
0.0289569
0.0289574
0.0289579
0.0289584
0.028959
0.0289596
0.0289602
0.0289608
0.0289614
0.028962
0.0289627
0.0289633
0.0289639
0.0289645
0.0289651
0.0289657
0.0289663
0.0289669
0.0289675
0.028968
0.0289686
0.0289692
0.0289697
0.0289702
0.0289708
0.0289713
0.0289718
0.0289723
0.0289728
0.0289733
0.0289737
0.0289742
0.0289746
0.0289751
0.0289755
0.0289759
0.0289763
0.0289767
0.0289771
0.0289775
0.0289778
0.0289782
0.0289785
0.0289789
0.0289792
0.0289795
0.0289798
0.0289801
0.0289796
0.0289782
0.0289766
0.0289752
0.0289741
0.0289734
0.0289729
0.0289726
0.0289724
0.0289723
0.0289723
0.0289723
0.0289724
0.0289726
0.0289729
0.0289694
0.029285
0.0292784
0.0292776
0.0292779
0.0292786
0.0292793
0.02928
0.0292808
0.0292815
0.0292823
0.0292831
0.0292839
0.0292847
0.0292855
0.0292864
0.0292873
0.0292881
0.029289
0.0292899
0.0292907
0.0292916
0.0292924
0.0292932
0.029294
0.0292947
0.0292955
0.0292962
0.0292969
0.0292976
0.0292983
0.029299
0.0292997
0.0293003
0.029301
0.0293016
0.0293023
0.0293029
0.0293036
0.0293042
0.0293048
0.0293055
0.0293061
0.0293067
0.0293073
0.029308
0.0293083
0.0293082
0.0293079
0.0293074
0.029307
0.0293066
0.0293065
0.0293064
0.0293065
0.0293066
0.0293068
0.0293071
0.0293075
0.0293078
0.0293083
0.0293087
0.0293092
0.0293097
0.0293103
0.0293108
0.0293113
0.0293119
0.0293124
0.029313
0.0293135
0.0293141
0.0293146
0.0293152
0.0293157
0.0293163
0.0293168
0.0293173
0.0293178
0.0293183
0.0293188
0.0293193
0.0293198
0.0293203
0.0293207
0.0293212
0.0293217
0.0293221
0.0293225
0.0293229
0.0293234
0.0293238
0.0293241
0.0293245
0.0293249
0.0293253
0.0293256
0.029326
0.0293263
0.0293266
0.0293269
0.0293272
0.0293275
0.0293278
0.0293281
0.0293282
0.0293278
0.029327
0.0293262
0.0293254
0.0293248
0.0293242
0.0293238
0.0293235
0.0293233
0.0293232
0.0293231
0.0293231
0.0293231
0.0293234
0.0293198
0.0297373
0.0297306
0.0297297
0.02973
0.0297306
0.0297312
0.0297318
0.0297325
0.0297332
0.0297339
0.0297346
0.0297353
0.0297361
0.0297369
0.0297377
0.0297385
0.0297393
0.0297401
0.029741
0.0297418
0.0297426
0.0297433
0.0297441
0.0297448
0.0297456
0.0297463
0.029747
0.0297477
0.0297483
0.029749
0.0297496
0.0297503
0.0297509
0.0297516
0.0297522
0.0297528
0.0297534
0.0297541
0.0297547
0.0297553
0.0297559
0.0297565
0.0297571
0.0297577
0.0297583
0.0297588
0.0297591
0.0297592
0.0297592
0.0297591
0.029759
0.029759
0.029759
0.029759
0.0297592
0.0297593
0.0297596
0.0297599
0.0297602
0.0297606
0.029761
0.0297614
0.0297618
0.0297623
0.0297628
0.0297633
0.0297638
0.0297643
0.0297648
0.0297653
0.0297658
0.0297663
0.0297668
0.0297673
0.0297678
0.0297683
0.0297688
0.0297693
0.0297697
0.0297702
0.0297707
0.0297711
0.0297716
0.029772
0.0297725
0.0297729
0.0297733
0.0297737
0.0297741
0.0297745
0.0297749
0.0297753
0.0297756
0.029776
0.0297763
0.0297767
0.029777
0.0297773
0.0297776
0.0297779
0.0297782
0.0297785
0.0297788
0.0297791
0.0297792
0.0297793
0.029779
0.0297787
0.0297783
0.0297778
0.0297774
0.0297771
0.0297768
0.0297766
0.0297764
0.0297763
0.0297762
0.0297762
0.0297764
0.0297728
0.030291
0.0302841
0.0302831
0.0302834
0.0302839
0.0302845
0.0302851
0.0302857
0.0302863
0.030287
0.0302876
0.0302883
0.030289
0.0302898
0.0302905
0.0302913
0.0302921
0.0302929
0.0302936
0.0302944
0.0302952
0.0302959
0.0302967
0.0302974
0.0302981
0.0302987
0.0302994
0.0303001
0.0303007
0.0303014
0.030302
0.0303026
0.0303032
0.0303038
0.0303044
0.030305
0.0303056
0.0303062
0.0303068
0.0303074
0.030308
0.0303086
0.0303092
0.0303097
0.0303103
0.0303109
0.0303113
0.0303117
0.030312
0.0303121
0.0303123
0.0303124
0.0303125
0.0303126
0.0303128
0.030313
0.0303133
0.0303135
0.0303139
0.0303142
0.0303146
0.030315
0.0303154
0.0303158
0.0303162
0.0303167
0.0303172
0.0303176
0.0303181
0.0303186
0.0303191
0.0303195
0.03032
0.0303205
0.030321
0.0303214
0.0303219
0.0303224
0.0303228
0.0303233
0.0303237
0.0303242
0.0303246
0.030325
0.0303255
0.0303259
0.0303263
0.0303267
0.0303271
0.0303274
0.0303278
0.0303282
0.0303285
0.0303289
0.0303292
0.0303295
0.0303298
0.0303301
0.0303305
0.0303307
0.030331
0.0303313
0.0303316
0.0303319
0.0303321
0.0303323
0.0303323
0.0303322
0.0303321
0.0303319
0.0303317
0.0303314
0.0303312
0.0303311
0.030331
0.0303309
0.0303308
0.0303308
0.0303309
0.0303273
0.030946
0.0309388
0.0309378
0.030938
0.0309385
0.0309391
0.0309396
0.0309402
0.0309408
0.0309414
0.030942
0.0309427
0.0309433
0.030944
0.0309448
0.0309455
0.0309462
0.030947
0.0309478
0.0309485
0.0309492
0.0309499
0.0309506
0.0309513
0.030952
0.0309527
0.0309533
0.0309539
0.0309546
0.0309552
0.0309558
0.0309564
0.030957
0.0309576
0.0309582
0.0309588
0.0309593
0.0309599
0.0309605
0.0309611
0.0309616
0.0309622
0.0309627
0.0309633
0.0309639
0.0309644
0.030965
0.0309654
0.0309658
0.0309662
0.0309665
0.0309667
0.030967
0.0309672
0.0309675
0.0309678
0.030968
0.0309683
0.0309687
0.030969
0.0309694
0.0309698
0.0309702
0.0309706
0.030971
0.0309715
0.0309719
0.0309724
0.0309728
0.0309733
0.0309738
0.0309742
0.0309747
0.0309752
0.0309756
0.0309761
0.0309766
0.030977
0.0309775
0.0309779
0.0309783
0.0309788
0.0309792
0.0309796
0.03098
0.0309804
0.0309808
0.0309812
0.0309816
0.030982
0.0309823
0.0309827
0.030983
0.0309834
0.0309837
0.030984
0.0309843
0.0309847
0.030985
0.0309852
0.0309855
0.0309858
0.0309861
0.0309863
0.0309866
0.0309868
0.030987
0.0309871
0.0309871
0.0309871
0.030987
0.0309869
0.0309869
0.0309868
0.0309867
0.0309867
0.0309866
0.0309866
0.0309868
0.0309832
0.0317028
0.0316954
0.0316943
0.0316945
0.031695
0.0316955
0.0316961
0.0316966
0.0316972
0.0316978
0.0316984
0.031699
0.0316996
0.0317003
0.031701
0.0317017
0.0317025
0.0317032
0.0317039
0.0317046
0.0317053
0.031706
0.0317067
0.0317074
0.031708
0.0317087
0.0317093
0.0317099
0.0317105
0.0317111
0.0317117
0.0317123
0.0317129
0.0317134
0.031714
0.0317146
0.0317151
0.0317157
0.0317163
0.0317168
0.0317174
0.0317179
0.0317185
0.031719
0.0317196
0.0317201
0.0317207
0.0317212
0.0317217
0.0317221
0.0317225
0.0317229
0.0317233
0.0317236
0.0317239
0.0317243
0.0317246
0.031725
0.0317253
0.0317257
0.0317261
0.0317265
0.0317269
0.0317274
0.0317278
0.0317282
0.0317287
0.0317292
0.0317296
0.0317301
0.0317306
0.031731
0.0317315
0.031732
0.0317324
0.0317329
0.0317333
0.0317338
0.0317342
0.0317347
0.0317351
0.0317356
0.031736
0.0317364
0.0317368
0.0317372
0.0317376
0.031738
0.0317384
0.0317388
0.0317391
0.0317395
0.0317398
0.0317402
0.0317405
0.0317408
0.0317412
0.0317415
0.0317418
0.0317421
0.0317423
0.0317426
0.0317429
0.0317432
0.0317434
0.0317437
0.0317439
0.0317441
0.0317442
0.0317443
0.0317444
0.0317444
0.0317444
0.0317444
0.0317445
0.0317445
0.0317445
0.0317445
0.0317447
0.0317412
0.0325632
0.0325554
0.0325542
0.0325544
0.0325549
0.0325554
0.0325559
0.0325565
0.032557
0.0325576
0.0325582
0.0325588
0.0325594
0.03256
0.0325607
0.0325614
0.0325621
0.0325628
0.0325635
0.0325642
0.0325649
0.0325656
0.0325663
0.0325669
0.0325675
0.0325681
0.0325687
0.0325693
0.0325699
0.0325705
0.0325711
0.0325717
0.0325722
0.0325728
0.0325733
0.0325739
0.0325744
0.032575
0.0325755
0.0325761
0.0325766
0.0325772
0.0325777
0.0325783
0.0325788
0.0325794
0.0325799
0.0325804
0.032581
0.0325815
0.032582
0.0325824
0.0325828
0.0325833
0.0325837
0.0325841
0.0325845
0.0325849
0.0325853
0.0325857
0.0325862
0.0325866
0.0325871
0.0325875
0.032588
0.0325885
0.0325889
0.0325894
0.0325899
0.0325904
0.0325908
0.0325913
0.0325918
0.0325923
0.0325928
0.0325932
0.0325937
0.0325942
0.0325946
0.0325951
0.0325955
0.032596
0.0325964
0.0325968
0.0325973
0.0325977
0.0325981
0.0325985
0.0325989
0.0325993
0.0325996
0.0326
0.0326003
0.0326007
0.032601
0.0326014
0.0326017
0.032602
0.0326023
0.0326026
0.0326029
0.0326032
0.0326035
0.0326038
0.032604
0.0326043
0.0326046
0.0326048
0.032605
0.0326052
0.0326053
0.0326054
0.0326056
0.0326056
0.0326057
0.0326058
0.0326059
0.032606
0.0326062
0.0326028
0.0335291
0.0335211
0.0335198
0.0335199
0.0335204
0.0335209
0.0335214
0.0335219
0.0335225
0.033523
0.0335236
0.0335242
0.0335248
0.0335254
0.0335261
0.0335267
0.0335274
0.0335281
0.0335288
0.0335295
0.0335301
0.0335308
0.0335314
0.033532
0.0335326
0.0335332
0.0335338
0.0335344
0.033535
0.0335355
0.0335361
0.0335367
0.0335372
0.0335377
0.0335383
0.0335388
0.0335394
0.0335399
0.0335405
0.033541
0.0335415
0.0335421
0.0335426
0.0335432
0.0335437
0.0335443
0.0335448
0.0335454
0.0335459
0.0335465
0.033547
0.0335475
0.033548
0.0335485
0.033549
0.0335495
0.0335499
0.0335504
0.0335509
0.0335514
0.0335518
0.0335523
0.0335528
0.0335533
0.0335538
0.0335543
0.0335548
0.0335553
0.0335558
0.0335563
0.0335568
0.0335574
0.0335579
0.0335584
0.0335589
0.0335594
0.0335598
0.0335603
0.0335608
0.0335613
0.0335617
0.0335622
0.0335627
0.0335631
0.0335635
0.033564
0.0335644
0.0335648
0.0335652
0.0335656
0.033566
0.0335664
0.0335667
0.0335671
0.0335675
0.0335678
0.0335682
0.0335685
0.0335688
0.0335691
0.0335694
0.0335697
0.03357
0.0335703
0.0335706
0.0335709
0.0335712
0.0335714
0.0335717
0.0335719
0.0335721
0.0335723
0.0335725
0.0335727
0.0335728
0.033573
0.0335731
0.0335732
0.0335736
0.0335702
0.0346037
0.0345953
0.0345939
0.034594
0.0345944
0.0345949
0.0345954
0.0345959
0.0345964
0.0345969
0.0345975
0.0345981
0.0345986
0.0345993
0.0345999
0.0346006
0.0346012
0.0346019
0.0346026
0.0346032
0.0346038
0.0346045
0.0346051
0.0346057
0.0346063
0.0346068
0.0346074
0.034608
0.0346085
0.0346091
0.0346096
0.0346101
0.0346107
0.0346112
0.0346117
0.0346123
0.0346128
0.0346133
0.0346139
0.0346144
0.034615
0.0346155
0.034616
0.0346166
0.0346172
0.0346177
0.0346183
0.0346189
0.0346194
0.03462
0.0346206
0.0346212
0.0346217
0.0346223
0.0346228
0.0346234
0.0346239
0.0346244
0.034625
0.0346255
0.034626
0.0346266
0.0346271
0.0346277
0.0346282
0.0346287
0.0346293
0.0346298
0.0346304
0.0346309
0.0346315
0.034632
0.0346326
0.0346331
0.0346336
0.0346341
0.0346347
0.0346352
0.0346357
0.0346362
0.0346367
0.0346372
0.0346376
0.0346381
0.0346386
0.034639
0.0346395
0.0346399
0.0346403
0.0346408
0.0346412
0.0346416
0.034642
0.0346423
0.0346427
0.0346431
0.0346434
0.0346438
0.0346441
0.0346445
0.0346448
0.0346451
0.0346455
0.0346458
0.0346461
0.0346464
0.0346467
0.034647
0.0346473
0.0346475
0.0346478
0.034648
0.0346483
0.0346485
0.0346487
0.0346489
0.0346491
0.0346492
0.0346496
0.0346464
0.0357905
0.0357817
0.0357802
0.0357802
0.0357806
0.0357811
0.0357815
0.035782
0.0357825
0.035783
0.0357835
0.035784
0.0357846
0.0357852
0.0357858
0.0357864
0.0357871
0.0357877
0.0357883
0.035789
0.0357896
0.0357902
0.0357908
0.0357913
0.0357919
0.0357924
0.035793
0.0357935
0.0357941
0.0357946
0.0357951
0.0357956
0.0357962
0.0357967
0.0357972
0.0357977
0.0357983
0.0357988
0.0357993
0.0357999
0.0358004
0.035801
0.0358016
0.0358021
0.0358027
0.0358033
0.0358039
0.0358045
0.0358051
0.0358057
0.0358063
0.0358069
0.0358075
0.0358082
0.0358088
0.0358094
0.03581
0.0358106
0.0358112
0.0358118
0.0358124
0.035813
0.0358136
0.0358142
0.0358148
0.0358154
0.035816
0.0358166
0.0358172
0.0358178
0.0358184
0.0358189
0.0358195
0.0358201
0.0358207
0.0358212
0.0358218
0.0358223
0.0358229
0.0358234
0.0358239
0.0358245
0.035825
0.0358255
0.035826
0.0358265
0.0358269
0.0358274
0.0358278
0.0358283
0.0358287
0.0358292
0.0358296
0.03583
0.0358304
0.0358308
0.0358312
0.0358315
0.0358319
0.0358323
0.0358326
0.035833
0.0358333
0.0358337
0.035834
0.0358343
0.0358347
0.035835
0.0358353
0.0358356
0.0358359
0.0358362
0.0358365
0.0358367
0.035837
0.0358372
0.0358375
0.0358377
0.0358381
0.0358349
0.0370938
0.0370845
0.0370828
0.0370828
0.0370832
0.0370836
0.037084
0.0370844
0.0370849
0.0370853
0.0370858
0.0370863
0.0370869
0.0370874
0.037088
0.0370886
0.0370892
0.0370898
0.0370904
0.037091
0.0370916
0.0370921
0.0370927
0.0370932
0.0370938
0.0370943
0.0370948
0.0370953
0.0370958
0.0370963
0.0370969
0.0370974
0.0370979
0.0370984
0.0370989
0.0370994
0.0371
0.0371005
0.0371011
0.0371016
0.0371022
0.0371028
0.0371034
0.037104
0.0371046
0.0371052
0.0371058
0.0371065
0.0371071
0.0371078
0.0371084
0.0371091
0.0371098
0.0371105
0.0371111
0.0371118
0.0371125
0.0371132
0.0371138
0.0371145
0.0371152
0.0371158
0.0371165
0.0371172
0.0371178
0.0371185
0.0371192
0.0371198
0.0371205
0.0371211
0.0371218
0.0371224
0.037123
0.0371237
0.0371243
0.0371249
0.0371255
0.0371261
0.0371267
0.0371273
0.0371278
0.0371284
0.0371289
0.0371295
0.03713
0.0371305
0.037131
0.0371315
0.037132
0.0371325
0.037133
0.0371334
0.0371339
0.0371343
0.0371348
0.0371352
0.0371356
0.037136
0.0371364
0.0371368
0.0371372
0.0371376
0.037138
0.0371383
0.0371387
0.0371391
0.0371394
0.0371398
0.0371401
0.0371405
0.0371408
0.0371411
0.0371414
0.0371417
0.037142
0.0371423
0.0371425
0.0371427
0.0371432
0.0371401
0.0385185
0.0385086
0.0385068
0.0385068
0.038507
0.0385074
0.0385077
0.0385081
0.0385085
0.0385089
0.0385093
0.0385098
0.0385103
0.0385108
0.0385113
0.0385119
0.0385124
0.038513
0.0385135
0.0385141
0.0385146
0.0385151
0.0385157
0.0385162
0.0385167
0.0385172
0.0385177
0.0385182
0.0385187
0.0385191
0.0385196
0.0385201
0.0385206
0.0385212
0.0385217
0.0385222
0.0385228
0.0385233
0.0385239
0.0385245
0.0385251
0.0385257
0.0385263
0.038527
0.0385276
0.0385283
0.038529
0.0385297
0.0385304
0.0385311
0.0385319
0.0385326
0.0385334
0.0385341
0.0385349
0.0385356
0.0385364
0.0385371
0.0385379
0.0385386
0.0385394
0.0385401
0.0385409
0.0385416
0.0385423
0.0385431
0.0385438
0.0385445
0.0385452
0.0385459
0.0385467
0.0385474
0.038548
0.0385487
0.0385494
0.0385501
0.0385507
0.0385514
0.038552
0.0385526
0.0385532
0.0385538
0.0385544
0.038555
0.0385556
0.0385562
0.0385567
0.0385573
0.0385578
0.0385583
0.0385588
0.0385593
0.0385598
0.0385603
0.0385607
0.0385612
0.0385617
0.0385621
0.0385626
0.038563
0.0385634
0.0385638
0.0385642
0.0385646
0.038565
0.0385654
0.0385658
0.0385662
0.0385666
0.038567
0.0385673
0.0385677
0.038568
0.0385683
0.0385686
0.0385689
0.0385692
0.0385694
0.0385698
0.0385669
0.0400701
0.0400596
0.0400577
0.0400575
0.0400576
0.0400579
0.0400582
0.0400585
0.0400588
0.0400591
0.0400595
0.0400599
0.0400603
0.0400607
0.0400612
0.0400617
0.0400622
0.0400627
0.0400632
0.0400637
0.0400642
0.0400647
0.0400652
0.0400656
0.0400661
0.0400666
0.0400671
0.0400675
0.040068
0.0400685
0.0400689
0.0400694
0.0400699
0.0400705
0.040071
0.0400716
0.0400721
0.0400727
0.0400733
0.040074
0.0400746
0.0400753
0.040076
0.0400767
0.0400775
0.0400782
0.040079
0.0400798
0.0400806
0.0400814
0.0400822
0.040083
0.0400838
0.0400847
0.0400855
0.0400863
0.0400872
0.040088
0.0400889
0.0400897
0.0400905
0.0400914
0.0400922
0.040093
0.0400938
0.0400946
0.0400955
0.0400963
0.040097
0.0400978
0.0400986
0.0400994
0.0401001
0.0401009
0.0401016
0.0401023
0.040103
0.0401037
0.0401044
0.0401051
0.0401058
0.0401064
0.0401071
0.0401077
0.0401083
0.0401089
0.0401095
0.0401101
0.0401107
0.0401113
0.0401118
0.0401124
0.0401129
0.0401134
0.0401139
0.0401144
0.0401149
0.0401154
0.0401159
0.0401164
0.0401168
0.0401173
0.0401177
0.0401182
0.0401186
0.040119
0.0401195
0.0401199
0.0401203
0.0401207
0.0401211
0.0401215
0.0401218
0.0401221
0.0401224
0.0401227
0.040123
0.0401232
0.0401236
0.0401208
0.0417546
0.0417436
0.0417414
0.041741
0.0417411
0.0417412
0.0417414
0.0417416
0.0417418
0.0417421
0.0417423
0.0417426
0.041743
0.0417434
0.0417438
0.0417442
0.0417446
0.0417451
0.0417455
0.041746
0.0417464
0.0417468
0.0417473
0.0417477
0.0417481
0.0417486
0.041749
0.0417495
0.0417499
0.0417504
0.0417508
0.0417513
0.0417519
0.0417524
0.041753
0.0417536
0.0417542
0.0417549
0.0417556
0.0417563
0.041757
0.0417578
0.0417586
0.0417594
0.0417602
0.0417611
0.0417619
0.0417628
0.0417637
0.0417646
0.0417655
0.0417665
0.0417674
0.0417683
0.0417693
0.0417702
0.0417711
0.0417721
0.041773
0.041774
0.0417749
0.0417758
0.0417767
0.0417776
0.0417786
0.0417795
0.0417803
0.0417812
0.0417821
0.041783
0.0417838
0.0417846
0.0417855
0.0417863
0.0417871
0.0417879
0.0417887
0.0417894
0.0417902
0.0417909
0.0417916
0.0417924
0.041793
0.0417937
0.0417944
0.0417951
0.0417957
0.0417963
0.041797
0.0417976
0.0417982
0.0417988
0.0417993
0.0417999
0.0418005
0.041801
0.0418016
0.0418021
0.0418026
0.0418031
0.0418036
0.0418041
0.0418046
0.0418051
0.0418056
0.0418061
0.0418065
0.041807
0.0418074
0.0418078
0.0418082
0.0418086
0.041809
0.0418093
0.0418096
0.0418098
0.04181
0.0418102
0.0418105
0.0418078
0.0435789
0.0435671
0.0435646
0.0435641
0.043564
0.043564
0.0435641
0.0435642
0.0435642
0.0435644
0.0435645
0.0435647
0.043565
0.0435653
0.0435656
0.0435659
0.0435663
0.0435667
0.0435671
0.0435674
0.0435678
0.0435682
0.0435686
0.043569
0.0435694
0.0435698
0.0435702
0.0435706
0.0435711
0.0435715
0.043572
0.0435725
0.0435731
0.0435737
0.0435743
0.043575
0.0435757
0.0435765
0.0435773
0.0435781
0.043579
0.0435799
0.0435808
0.0435817
0.0435827
0.0435836
0.0435846
0.0435856
0.0435867
0.0435877
0.0435887
0.0435898
0.0435908
0.0435919
0.043593
0.043594
0.0435951
0.0435961
0.0435972
0.0435982
0.0435992
0.0436003
0.0436013
0.0436023
0.0436033
0.0436043
0.0436053
0.0436062
0.0436072
0.0436081
0.0436091
0.04361
0.0436109
0.0436118
0.0436127
0.0436135
0.0436144
0.0436152
0.043616
0.0436168
0.0436176
0.0436184
0.0436191
0.0436199
0.0436206
0.0436213
0.043622
0.0436227
0.0436234
0.043624
0.0436247
0.0436253
0.0436259
0.0436266
0.0436272
0.0436278
0.0436283
0.0436289
0.0436295
0.04363
0.0436306
0.0436311
0.0436317
0.0436322
0.0436327
0.0436332
0.0436337
0.0436342
0.0436347
0.0436351
0.0436355
0.0436359
0.0436362
0.0436364
0.0436366
0.0436368
0.0436369
0.043637
0.0436372
0.0436347
0.04555
0.0455374
0.0455346
0.0455339
0.0455336
0.0455335
0.0455334
0.0455333
0.0455332
0.0455332
0.0455333
0.0455334
0.0455335
0.0455337
0.0455339
0.0455342
0.0455345
0.0455348
0.0455351
0.0455354
0.0455357
0.0455361
0.0455364
0.0455368
0.0455371
0.0455375
0.0455379
0.0455383
0.0455387
0.0455392
0.0455398
0.0455403
0.045541
0.0455417
0.0455424
0.0455432
0.0455441
0.045545
0.0455459
0.0455469
0.0455479
0.0455489
0.04555
0.0455511
0.0455522
0.0455534
0.0455545
0.0455557
0.0455569
0.045558
0.0455592
0.0455604
0.0455616
0.0455628
0.045564
0.0455652
0.0455663
0.0455675
0.0455687
0.0455699
0.045571
0.0455721
0.0455733
0.0455744
0.0455755
0.0455766
0.0455777
0.0455787
0.0455798
0.0455808
0.0455818
0.0455828
0.0455838
0.0455847
0.0455857
0.0455866
0.0455875
0.0455884
0.0455893
0.0455902
0.045591
0.0455919
0.0455927
0.0455935
0.0455943
0.045595
0.0455958
0.0455965
0.0455973
0.045598
0.0455987
0.0455994
0.0456
0.0456007
0.0456014
0.045602
0.0456026
0.0456033
0.0456039
0.0456045
0.0456051
0.0456057
0.0456062
0.0456068
0.0456074
0.0456079
0.0456084
0.0456089
0.0456094
0.0456098
0.0456102
0.0456105
0.0456107
0.0456109
0.045611
0.045611
0.045611
0.0456109
0.045611
0.0456085
0.0476756
0.0476623
0.0476591
0.0476581
0.0476576
0.0476573
0.047657
0.0476568
0.0476566
0.0476564
0.0476563
0.0476562
0.0476563
0.0476564
0.0476565
0.0476567
0.0476569
0.0476571
0.0476573
0.0476576
0.0476579
0.0476582
0.0476585
0.0476588
0.0476591
0.0476594
0.0476598
0.0476603
0.0476608
0.0476613
0.0476619
0.0476626
0.0476634
0.0476642
0.0476651
0.0476661
0.0476672
0.0476683
0.0476694
0.0476706
0.0476718
0.047673
0.0476743
0.0476756
0.0476769
0.0476782
0.0476796
0.0476809
0.0476823
0.0476836
0.047685
0.0476863
0.0476877
0.047689
0.0476903
0.0476917
0.047693
0.0476943
0.0476956
0.0476969
0.0476981
0.0476994
0.0477006
0.0477019
0.0477031
0.0477043
0.0477054
0.0477066
0.0477077
0.0477089
0.04771
0.047711
0.0477121
0.0477131
0.0477142
0.0477152
0.0477162
0.0477171
0.0477181
0.047719
0.0477199
0.0477208
0.0477217
0.0477225
0.0477234
0.0477242
0.047725
0.0477258
0.0477266
0.0477274
0.0477281
0.0477289
0.0477296
0.0477303
0.047731
0.0477317
0.0477324
0.047733
0.0477337
0.0477343
0.047735
0.0477356
0.0477362
0.0477369
0.0477375
0.047738
0.0477386
0.0477391
0.0477395
0.0477399
0.0477401
0.0477403
0.0477404
0.0477404
0.0477403
0.0477401
0.0477399
0.0477396
0.0477395
0.0477371
0.0499641
0.0499498
0.0499462
0.049945
0.0499443
0.0499437
0.0499433
0.0499428
0.0499424
0.0499421
0.0499419
0.0499417
0.0499416
0.0499416
0.0499416
0.0499417
0.0499418
0.049942
0.0499421
0.0499423
0.0499426
0.0499428
0.0499431
0.0499434
0.0499437
0.049944
0.0499445
0.0499449
0.0499455
0.0499462
0.049947
0.0499478
0.0499488
0.0499499
0.0499511
0.0499523
0.0499536
0.0499549
0.0499563
0.0499578
0.0499592
0.0499607
0.0499622
0.0499637
0.0499653
0.0499668
0.0499684
0.0499699
0.0499715
0.049973
0.0499745
0.0499761
0.0499776
0.0499791
0.0499806
0.0499821
0.0499835
0.049985
0.0499864
0.0499878
0.0499892
0.0499906
0.049992
0.0499933
0.0499946
0.0499959
0.0499972
0.0499984
0.0499997
0.0500009
0.050002
0.0500032
0.0500043
0.0500055
0.0500066
0.0500076
0.0500087
0.0500097
0.0500108
0.0500117
0.0500127
0.0500137
0.0500146
0.0500155
0.0500164
0.0500173
0.0500182
0.050019
0.0500199
0.0500207
0.0500215
0.0500223
0.050023
0.0500238
0.0500246
0.0500253
0.050026
0.0500267
0.0500275
0.0500281
0.0500288
0.0500295
0.0500302
0.0500308
0.0500315
0.050032
0.0500326
0.050033
0.0500333
0.0500336
0.0500336
0.0500336
0.0500334
0.0500332
0.0500328
0.0500324
0.0500319
0.0500313
0.0500309
0.0500286
0.0524241
0.0524088
0.0524048
0.0524033
0.0524023
0.0524016
0.0524009
0.0524002
0.0523997
0.0523992
0.0523988
0.0523985
0.0523983
0.0523981
0.0523981
0.0523981
0.0523981
0.0523982
0.0523984
0.0523985
0.0523987
0.0523989
0.0523992
0.0523994
0.0523998
0.0524002
0.0524007
0.0524013
0.052402
0.0524029
0.0524039
0.0524051
0.0524064
0.0524078
0.0524093
0.0524108
0.0524125
0.0524141
0.0524158
0.0524176
0.0524194
0.0524211
0.0524229
0.0524247
0.0524265
0.0524283
0.0524301
0.0524318
0.0524336
0.0524354
0.0524371
0.0524388
0.0524405
0.0524422
0.0524438
0.0524455
0.0524471
0.0524487
0.0524502
0.0524518
0.0524533
0.0524548
0.0524563
0.0524577
0.0524591
0.0524605
0.0524619
0.0524632
0.0524646
0.0524659
0.0524671
0.0524684
0.0524696
0.0524708
0.052472
0.0524731
0.0524742
0.0524753
0.0524764
0.0524775
0.0524785
0.0524795
0.0524805
0.0524815
0.0524824
0.0524834
0.0524843
0.0524852
0.0524861
0.0524869
0.0524878
0.0524886
0.0524895
0.0524903
0.0524911
0.0524919
0.0524926
0.0524934
0.0524941
0.0524949
0.0524956
0.0524963
0.052497
0.0524977
0.0524983
0.0524989
0.0524993
0.0524997
0.0524998
0.0524998
0.0524996
0.0524992
0.0524986
0.052498
0.0524973
0.0524965
0.0524956
0.0524947
0.052494
0.0524918
0.0550648
0.0550486
0.0550441
0.0550422
0.055041
0.05504
0.0550391
0.0550383
0.0550375
0.0550369
0.0550364
0.0550359
0.0550356
0.0550354
0.0550353
0.0550352
0.0550352
0.0550353
0.0550354
0.0550355
0.0550357
0.0550359
0.0550361
0.0550364
0.0550368
0.0550373
0.0550379
0.0550388
0.0550398
0.0550411
0.0550425
0.0550441
0.0550458
0.0550476
0.0550495
0.0550515
0.0550536
0.0550556
0.0550577
0.0550598
0.0550619
0.055064
0.0550661
0.0550682
0.0550703
0.0550723
0.0550743
0.0550764
0.0550783
0.0550803
0.0550822
0.0550841
0.055086
0.0550879
0.0550897
0.0550915
0.0550932
0.055095
0.0550967
0.0550984
0.0551
0.0551016
0.0551032
0.0551047
0.0551063
0.0551077
0.0551092
0.0551106
0.055112
0.0551134
0.0551148
0.0551161
0.0551174
0.0551186
0.0551199
0.0551211
0.0551223
0.0551234
0.0551246
0.0551257
0.0551268
0.0551278
0.0551289
0.0551299
0.0551309
0.0551319
0.0551329
0.0551338
0.0551348
0.0551357
0.0551366
0.0551375
0.0551383
0.0551392
0.05514
0.0551409
0.0551417
0.0551425
0.0551433
0.0551441
0.0551448
0.0551456
0.0551463
0.055147
0.0551476
0.055148
0.0551483
0.0551484
0.0551482
0.0551477
0.055147
0.0551461
0.0551451
0.0551439
0.0551427
0.0551415
0.0551402
0.055139
0.0551378
0.0551357
0.0578958
0.0578786
0.0578737
0.0578715
0.0578701
0.0578688
0.0578677
0.0578667
0.0578658
0.057865
0.0578644
0.0578639
0.0578635
0.0578632
0.057863
0.0578629
0.0578629
0.0578629
0.057863
0.0578632
0.0578633
0.0578635
0.0578638
0.0578642
0.0578647
0.0578654
0.0578664
0.0578676
0.0578691
0.0578709
0.0578729
0.057875
0.0578773
0.0578797
0.0578821
0.0578846
0.0578871
0.0578897
0.0578922
0.0578947
0.0578972
0.0578996
0.057902
0.0579044
0.0579068
0.0579091
0.0579114
0.0579136
0.0579158
0.057918
0.0579201
0.0579222
0.0579243
0.0579263
0.0579283
0.0579302
0.0579321
0.057934
0.0579358
0.0579376
0.0579394
0.0579411
0.0579428
0.0579444
0.057946
0.0579476
0.0579492
0.0579507
0.0579521
0.0579536
0.057955
0.0579564
0.0579577
0.0579591
0.0579604
0.0579616
0.0579629
0.0579641
0.0579653
0.0579664
0.0579676
0.0579687
0.0579698
0.0579709
0.0579719
0.0579729
0.057974
0.057975
0.0579759
0.0579769
0.0579778
0.0579788
0.0579797
0.0579806
0.0579815
0.0579823
0.0579832
0.057984
0.0579849
0.0579857
0.0579865
0.0579873
0.057988
0.0579886
0.0579891
0.0579893
0.0579893
0.0579888
0.0579881
0.0579869
0.0579855
0.057984
0.0579823
0.0579805
0.0579787
0.057977
0.0579753
0.0579736
0.057972
0.0579701
0.0609274
0.0609092
0.0609038
0.0609014
0.0608996
0.0608982
0.0608969
0.0608958
0.0608948
0.0608939
0.0608932
0.0608926
0.0608922
0.0608919
0.0608917
0.0608916
0.0608916
0.0608916
0.0608917
0.0608919
0.060892
0.0608923
0.0608926
0.0608931
0.0608939
0.0608951
0.0608966
0.0608985
0.0609007
0.0609032
0.0609059
0.0609088
0.0609118
0.0609149
0.0609179
0.060921
0.0609241
0.0609271
0.06093
0.060933
0.0609358
0.0609386
0.0609414
0.0609441
0.0609467
0.0609493
0.0609518
0.0609543
0.0609567
0.0609591
0.0609614
0.0609637
0.0609659
0.0609681
0.0609702
0.0609723
0.0609743
0.0609763
0.0609782
0.0609801
0.060982
0.0609838
0.0609856
0.0609873
0.060989
0.0609906
0.0609923
0.0609938
0.0609954
0.0609969
0.0609984
0.0609998
0.0610012
0.0610026
0.0610039
0.0610052
0.0610065
0.0610078
0.061009
0.0610102
0.0610114
0.0610126
0.0610137
0.0610148
0.0610159
0.061017
0.061018
0.0610191
0.0610201
0.0610211
0.0610221
0.061023
0.061024
0.0610249
0.0610258
0.0610267
0.0610276
0.0610285
0.0610294
0.0610302
0.0610311
0.0610319
0.0610325
0.061033
0.0610332
0.061033
0.0610323
0.0610311
0.0610294
0.0610273
0.061025
0.0610225
0.06102
0.0610176
0.0610152
0.0610129
0.0610107
0.0610087
0.0610067
0.0610049
0.06417
0.0641508
0.064145
0.0641423
0.0641404
0.0641388
0.0641374
0.0641362
0.0641351
0.0641342
0.0641335
0.0641329
0.0641325
0.0641322
0.0641321
0.064132
0.064132
0.0641321
0.0641322
0.0641324
0.0641327
0.064133
0.0641335
0.0641344
0.0641357
0.0641375
0.0641399
0.0641428
0.064146
0.0641495
0.0641532
0.064157
0.0641608
0.0641646
0.0641684
0.064172
0.0641756
0.0641792
0.0641826
0.0641859
0.0641891
0.0641923
0.0641953
0.0641983
0.0642012
0.0642041
0.0642068
0.0642095
0.0642121
0.0642146
0.0642171
0.0642196
0.0642219
0.0642242
0.0642265
0.0642286
0.0642308
0.0642329
0.0642349
0.0642369
0.0642388
0.0642407
0.0642425
0.0642443
0.0642461
0.0642478
0.0642495
0.0642511
0.0642527
0.0642542
0.0642558
0.0642572
0.0642587
0.0642601
0.0642615
0.0642629
0.0642642
0.0642655
0.0642667
0.064268
0.0642692
0.0642704
0.0642716
0.0642727
0.0642738
0.0642749