/*--------------------------------*- C++ -*----------------------------------*\
  =========                 |
  \\      /  F ield         | OpenFOAM: The Open Source CFD Toolbox
   \\    /   O peration     | Website:  https://openfoam.org
    \\  /    A nd           | Version:  7
     \\/     M anipulation  |
\*---------------------------------------------------------------------------*/
FoamFile
{
    version     2.0;
    format      ascii;
    class       volVectorField;
    location    "3500";
    object      U;
}
// * * * * * * * * * * * * * * * * * * * * * * * * * * * * * * * * * * * * * //

dimensions      [0 1 -1 0 0 0 0];

internalField   nonuniform List<vector> 
4000
(
(0.154253 -2.60934e-08 9.90503e-15)
(0.154253 -2.95911e-08 9.88814e-15)
(0.154253 -3.09067e-08 9.82076e-15)
(0.154253 -3.2085e-08 9.81331e-15)
(0.154253 -3.32788e-08 9.74413e-15)
(0.154253 -3.43583e-08 9.701e-15)
(0.154253 -3.53402e-08 9.73748e-15)
(0.154253 -3.62125e-08 9.75135e-15)
(0.154253 -3.69659e-08 9.74637e-15)
(0.154253 -3.76022e-08 9.78737e-15)
(0.154253 -3.81255e-08 9.79627e-15)
(0.154253 -3.85422e-08 9.70617e-15)
(0.154253 -3.88616e-08 9.71493e-15)
(0.154253 -3.90946e-08 9.63698e-15)
(0.154253 -3.9253e-08 9.66144e-15)
(0.154253 -3.93478e-08 9.64863e-15)
(0.154253 -3.9388e-08 9.55108e-15)
(0.154253 -3.93789e-08 9.56961e-15)
(0.154253 -3.93219e-08 9.50982e-15)
(0.154253 -3.92138e-08 9.55345e-15)
(0.154253 -3.90479e-08 9.54608e-15)
(0.154253 -3.88159e-08 9.5809e-15)
(0.154253 -3.85101e-08 9.59031e-15)
(0.154253 -3.81268e-08 9.58134e-15)
(0.154253 -3.76684e-08 9.60436e-15)
(0.154253 -3.71437e-08 9.57731e-15)
(0.154253 -3.65675e-08 9.56672e-15)
(0.154253 -3.59586e-08 9.56272e-15)
(0.154253 -3.53375e-08 9.5466e-15)
(0.154253 -3.47247e-08 9.58891e-15)
(0.154253 -3.4139e-08 9.55672e-15)
(0.154253 -3.35952e-08 9.52796e-15)
(0.154253 -3.31036e-08 9.52711e-15)
(0.154253 -3.26682e-08 9.52369e-15)
(0.154253 -3.22854e-08 9.55471e-15)
(0.154253 -3.1943e-08 9.52335e-15)
(0.154253 -3.16188e-08 9.48778e-15)
(0.154253 -3.12812e-08 9.48443e-15)
(0.154253 -3.08893e-08 9.48092e-15)
(0.154253 -3.04051e-08 9.51136e-15)
(0.154253 -2.98036e-08 9.51373e-15)
(0.154253 -2.91477e-08 9.50798e-15)
(0.154253 -2.86022e-08 9.49311e-15)
(0.154253 -2.85585e-08 9.48996e-15)
(0.154253 -2.46334e-08 9.49161e-15)
(0.154253 -1.24536e-09 9.49009e-15)
(0.154253 3.70642e-08 9.49861e-15)
(0.154253 6.5252e-08 9.48997e-15)
(0.154253 7.96259e-08 9.47762e-15)
(0.154253 8.80808e-08 9.47019e-15)
(0.154253 9.30833e-08 9.46562e-15)
(0.154253 9.56271e-08 9.47414e-15)
(0.154253 9.65155e-08 9.45238e-15)
(0.154253 9.62398e-08 9.44498e-15)
(0.154253 9.51292e-08 9.4371e-15)
(0.154253 9.34227e-08 9.4535e-15)
(0.154253 9.12878e-08 9.46497e-15)
(0.154253 8.88426e-08 9.46716e-15)
(0.154253 8.61713e-08 9.46793e-15)
(0.154253 8.3336e-08 9.46273e-15)
(0.154253 8.03845e-08 9.47449e-15)
(0.154253 7.73551e-08 9.49503e-15)
(0.154253 7.42782e-08 9.49774e-15)
(0.154253 7.11778e-08 9.5036e-15)
(0.154253 6.80707e-08 9.49417e-15)
(0.154253 6.49674e-08 9.50692e-15)
(0.154253 6.18729e-08 9.51083e-15)
(0.154253 5.87878e-08 9.50692e-15)
(0.154253 5.57096e-08 9.5054e-15)
(0.154253 5.2634e-08 9.50381e-15)
(0.154253 4.95559e-08 9.51851e-15)
(0.154253 4.64698e-08 9.52207e-15)
(0.154253 4.33702e-08 9.5222e-15)
(0.154253 4.02517e-08 9.5355e-15)
(0.154253 3.71089e-08 9.53391e-15)
(0.154253 3.39367e-08 9.54499e-15)
(0.154253 3.07298e-08 9.54964e-15)
(0.154253 2.74831e-08 9.54551e-15)
(0.154253 2.41917e-08 9.54659e-15)
(0.154253 2.08505e-08 9.53765e-15)
(0.154253 1.74545e-08 9.53937e-15)
(0.154253 1.3999e-08 9.58198e-15)
(0.154253 1.04792e-08 9.59978e-15)
(0.154253 6.89045e-09 9.60352e-15)
(0.154253 3.22851e-09 9.63097e-15)
(0.154253 -5.10673e-10 9.64347e-15)
(0.154253 -4.33059e-09 9.65962e-15)
(0.154253 -8.23408e-09 9.64882e-15)
(0.154253 -1.2223e-08 9.6384e-15)
(0.154253 -1.62981e-08 9.66303e-15)
(0.154253 -2.04581e-08 9.67018e-15)
(0.154253 -2.46997e-08 9.69819e-15)
(0.154253 -2.9016e-08 9.70361e-15)
(0.154253 -3.3396e-08 9.70616e-15)
(0.154253 -3.78228e-08 9.7218e-15)
(0.154253 -4.22726e-08 9.72045e-15)
(0.154253 -4.67134e-08 9.74536e-15)
(0.154253 -5.11049e-08 9.7446e-15)
(0.154253 -5.54076e-08 9.73795e-15)
(0.154253 -5.95915e-08 9.74699e-15)
(0.154253 -6.37085e-08 9.75077e-15)
(0.154253 -6.79034e-08 9.78904e-15)
(0.154253 -7.25405e-08 9.80005e-15)
(0.154253 -7.31884e-08 9.80062e-15)
(0.154253 -5.42558e-08 9.81976e-15)
(0.154253 -2.02902e-08 9.82766e-15)
(0.154253 3.70914e-09 9.85116e-15)
(0.154253 1.40829e-08 9.84912e-15)
(0.154253 1.8756e-08 9.84791e-15)
(0.154253 2.02165e-08 9.8664e-15)
(0.154253 1.94725e-08 9.86297e-15)
(0.154253 1.73357e-08 9.8525e-15)
(0.154253 1.43017e-08 9.83077e-15)
(0.154253 1.06994e-08 9.82315e-15)
(0.154253 6.76312e-09 9.84755e-15)
(0.154253 2.65149e-09 9.86113e-15)
(0.154253 -1.53456e-09 9.86547e-15)
(0.154253 -5.74736e-09 9.86052e-15)
(0.154253 -1.05593e-08 9.86807e-15)
(0.154253 -1.83135e-08 9.89762e-15)
(0.154234 -3.71138e-08 9.90933e-15)
(0.154234 -4.16218e-08 9.88192e-15)
(0.154234 -4.12972e-08 9.70694e-15)
(0.154234 -4.00717e-08 9.64859e-15)
(0.154234 -3.8963e-08 9.67758e-15)
(0.154234 -3.79828e-08 9.77185e-15)
(0.154234 -3.71803e-08 9.96252e-15)
(0.154234 -3.65074e-08 9.81765e-15)
(0.154234 -3.59165e-08 9.86138e-15)
(0.154234 -3.53841e-08 9.95738e-15)
(0.154234 -3.48907e-08 9.84554e-15)
(0.154234 -3.4422e-08 9.77185e-15)
(0.154234 -3.39704e-08 9.73061e-15)
(0.154234 -3.35337e-08 9.67678e-15)
(0.154234 -3.31135e-08 9.65615e-15)
(0.154234 -3.27129e-08 9.6379e-15)
(0.154234 -3.23343e-08 9.59038e-15)
(0.154234 -3.1977e-08 9.57338e-15)
(0.154234 -3.16356e-08 9.54132e-15)
(0.154234 -3.12993e-08 9.53715e-15)
(0.154234 -3.09532e-08 9.46396e-15)
(0.154234 -3.05799e-08 9.58808e-15)
(0.154234 -3.01632e-08 9.58629e-15)
(0.154234 -2.96922e-08 9.51489e-15)
(0.154234 -2.91636e-08 9.64673e-15)
(0.154234 -2.85827e-08 9.5427e-15)
(0.154234 -2.79622e-08 9.49895e-15)
(0.154234 -2.73198e-08 9.56484e-15)
(0.154234 -2.66753e-08 9.56283e-15)
(0.154233 -2.60485e-08 9.64067e-15)
(0.154233 -2.54569e-08 9.55478e-15)
(0.154233 -2.49141e-08 9.48913e-15)
(0.154233 -2.44286e-08 9.5424e-15)
(0.154233 -2.40024e-08 9.55628e-15)
(0.154233 -2.36299e-08 9.70065e-15)
(0.154233 -2.3297e-08 9.54051e-15)
(0.154233 -2.29799e-08 9.47561e-15)
(0.154233 -2.2646e-08 9.5224e-15)
(0.154233 -2.22544e-08 9.53673e-15)
(0.154233 -2.17657e-08 9.68474e-15)
(0.154233 -2.11496e-08 9.6125e-15)
(0.154233 -2.04366e-08 9.59452e-15)
(0.154233 -1.96891e-08 9.58089e-15)
(0.154233 -1.91229e-08 9.57738e-15)
(0.154233 -1.62682e-08 9.57844e-15)
(0.154233 3.5016e-09 9.57646e-15)
(0.154233 3.68534e-08 9.57825e-15)
(0.154233 6.26632e-08 9.57272e-15)
(0.154233 7.8224e-08 9.56587e-15)
(0.154233 8.80112e-08 9.5622e-15)
(0.154233 9.39397e-08 9.55919e-15)
(0.154233 9.71215e-08 9.55775e-15)
(0.154233 9.84404e-08 9.54995e-15)
(0.154233 9.84422e-08 9.54468e-15)
(0.154233 9.74895e-08 9.53734e-15)
(0.154233 9.58439e-08 9.54249e-15)
(0.154233 9.36906e-08 9.55566e-15)
(0.154233 9.11616e-08 9.56561e-15)
(0.154233 8.83525e-08 9.57096e-15)
(0.154233 8.53346e-08 9.5684e-15)
(0.154233 8.21629e-08 9.57948e-15)
(0.154233 7.88817e-08 9.59855e-15)
(0.154233 7.55269e-08 9.60748e-15)
(0.154233 7.21267e-08 9.6121e-15)
(0.154233 6.87026e-08 9.6091e-15)
(0.154233 6.52691e-08 9.62072e-15)
(0.154233 6.1835e-08 9.63167e-15)
(0.154233 5.84043e-08 9.63371e-15)
(0.154233 5.49778e-08 9.63414e-15)
(0.154233 5.15539e-08 9.63024e-15)
(0.154233 4.81297e-08 9.63942e-15)
(0.154233 4.47017e-08 9.64976e-15)
(0.154233 4.12661e-08 9.65476e-15)
(0.154233 3.78188e-08 9.66158e-15)
(0.154233 3.43557e-08 9.66019e-15)
(0.154233 3.08726e-08 9.66772e-15)
(0.154233 2.73651e-08 9.67687e-15)
(0.154233 2.38291e-08 9.67929e-15)
(0.154233 2.02605e-08 9.68008e-15)
(0.154233 1.6655e-08 9.67157e-15)
(0.154233 1.30087e-08 9.63239e-15)
(0.154233 9.31759e-09 9.68104e-15)
(0.154233 5.57804e-09 9.69563e-15)
(0.154233 1.78655e-09 9.6772e-15)
(0.154233 -2.05999e-09 9.71837e-15)
(0.154233 -5.96422e-09 9.67935e-15)
(0.154233 -9.92815e-09 9.7032e-15)
(0.154233 -1.3953e-08 9.70373e-15)
(0.154233 -1.80388e-08 9.68815e-15)
(0.154233 -2.21843e-08 9.73452e-15)
(0.154233 -2.63864e-08 9.69614e-15)
(0.154233 -3.06397e-08 9.75201e-15)
(0.154233 -3.49358e-08 9.76079e-15)
(0.154233 -3.92621e-08 9.74658e-15)
(0.154233 -4.36011e-08 9.77158e-15)
(0.154233 -4.79291e-08 9.7356e-15)
(0.154233 -5.22153e-08 9.79619e-15)
(0.154233 -5.64219e-08 9.79768e-15)
(0.154233 -6.05104e-08 9.77155e-15)
(0.154233 -6.4447e-08 9.77906e-15)
(0.154233 -6.82518e-08 9.74075e-15)
(0.154233 -7.19662e-08 9.81869e-15)
(0.154233 -7.57769e-08 9.83688e-15)
(0.154233 -7.71716e-08 9.82577e-15)
(0.154233 -6.15034e-08 9.85612e-15)
(0.154233 -3.20918e-08 9.83833e-15)
(0.154234 -1.00176e-08 9.87352e-15)
(0.154234 2.04976e-09 9.87699e-15)
(0.154234 8.61909e-09 9.86295e-15)
(0.154234 1.1631e-08 9.88631e-15)
(0.154234 1.22151e-08 9.86267e-15)
(0.154234 1.12657e-08 9.83566e-15)
(0.154234 9.33242e-09 9.82069e-15)
(0.154234 6.77242e-09 9.81595e-15)
(0.154234 3.83252e-09 9.86074e-15)
(0.154234 6.65576e-10 9.84496e-15)
(0.154234 -2.64354e-09 9.83415e-15)
(0.154234 -6.1455e-09 9.83851e-15)
(0.154234 -1.10984e-08 9.84879e-15)
(0.154234 -2.35852e-08 9.9069e-15)
(0.154199 -4.86748e-08 9.92235e-15)
(0.154199 -5.34572e-08 9.87803e-15)
(0.154199 -5.08991e-08 9.81085e-15)
(0.154199 -4.7475e-08 9.783e-15)
(0.154199 -4.42465e-08 9.7398e-15)
(0.154199 -4.12814e-08 9.7639e-15)
(0.154199 -3.87125e-08 9.81494e-15)
(0.154199 -3.6488e-08 9.82073e-15)
(0.154199 -3.4538e-08 9.83125e-15)
(0.154199 -3.28175e-08 9.8496e-15)
(0.154199 -3.12855e-08 9.83003e-15)
(0.154199 -2.99083e-08 9.78047e-15)
(0.154199 -2.86624e-08 9.73274e-15)
(0.154199 -2.7533e-08 9.68523e-15)
(0.154199 -2.65122e-08 9.65197e-15)
(0.154199 -2.55956e-08 9.62868e-15)
(0.154199 -2.47793e-08 9.59996e-15)
(0.154199 -2.40562e-08 9.57841e-15)
(0.154199 -2.34145e-08 9.55322e-15)
(0.154199 -2.28356e-08 9.53525e-15)
(0.154199 -2.22958e-08 9.49877e-15)
(0.154199 -2.17686e-08 9.53686e-15)
(0.154199 -2.12282e-08 9.55778e-15)
(0.154199 -2.06563e-08 9.55928e-15)
(0.154199 -2.00439e-08 9.59746e-15)
(0.154199 -1.9393e-08 9.58258e-15)
(0.154199 -1.87148e-08 9.5819e-15)
(0.154199 -1.80264e-08 9.5861e-15)
(0.154199 -1.73475e-08 9.57681e-15)
(0.154199 -1.66976e-08 9.63401e-15)
(0.154199 -1.60938e-08 9.61267e-15)
(0.154199 -1.55487e-08 9.59055e-15)
(0.154199 -1.50696e-08 9.59614e-15)
(0.154199 -1.46569e-08 9.59958e-15)
(0.154199 -1.43033e-08 9.64563e-15)
(0.154199 -1.39932e-08 9.62565e-15)
(0.154199 -1.37011e-08 9.597e-15)
(0.154198 -1.33926e-08 9.59928e-15)
(0.154198 -1.30249e-08 9.60124e-15)
(0.154198 -1.25523e-08 9.64766e-15)
(0.154198 -1.19298e-08 9.66489e-15)
(0.154198 -1.11367e-08 9.66562e-15)
(0.154198 -1.01259e-08 9.66066e-15)
(0.154198 -8.72392e-09 9.66468e-15)
(0.154198 -5.28367e-09 9.66743e-15)
(0.154198 1.01411e-08 9.66317e-15)
(0.154198 3.67205e-08 9.65959e-15)
(0.154198 5.99994e-08 9.65451e-15)
(0.154198 7.59781e-08 9.6552e-15)
(0.154198 8.67006e-08 9.6558e-15)
(0.154198 9.34998e-08 9.65288e-15)
(0.154198 9.73849e-08 9.65128e-15)
(0.154198 9.92181e-08 9.64727e-15)
(0.154198 9.95743e-08 9.64364e-15)
(0.154198 9.88475e-08 9.63067e-15)
(0.154198 9.7323e-08 9.6324e-15)
(0.154198 9.52052e-08 9.64926e-15)
(0.154198 9.26413e-08 9.66515e-15)
(0.154198 8.97395e-08 9.67436e-15)
(0.154198 8.6581e-08 9.67098e-15)
(0.154198 8.32289e-08 9.69966e-15)
(0.154198 7.97339e-08 9.71409e-15)
(0.154198 7.61376e-08 9.72265e-15)
(0.154198 7.24731e-08 9.72867e-15)
(0.154198 6.87662e-08 9.7222e-15)
(0.154198 6.50355e-08 9.7491e-15)
(0.154198 6.12938e-08 9.76195e-15)
(0.154198 5.75485e-08 9.7647e-15)
(0.154198 5.38035e-08 9.7644e-15)
(0.154198 5.00601e-08 9.75427e-15)
(0.154198 4.6318e-08 9.76826e-15)
(0.154198 4.25756e-08 9.78569e-15)
(0.154198 3.88309e-08 9.7911e-15)
(0.154198 3.50812e-08 9.79359e-15)
(0.154198 3.13237e-08 9.7861e-15)
(0.154198 2.75552e-08 9.80689e-15)
(0.154198 2.37726e-08 9.81599e-15)
(0.154198 1.99725e-08 9.81949e-15)
(0.154198 1.61516e-08 9.82135e-15)
(0.154198 1.23067e-08 9.80895e-15)
(0.154198 8.43449e-09 9.72661e-15)
(0.154198 4.53212e-09 9.91801e-15)
(0.154198 5.96813e-10 9.78626e-15)
(0.154198 -3.37382e-09 9.73026e-15)
(0.154198 -7.38174e-09 9.7959e-15)
(0.154198 -1.14283e-08 9.68205e-15)
(0.154198 -1.55141e-08 9.8353e-15)
(0.154198 -1.96388e-08 9.75556e-15)
(0.154199 -2.38008e-08 9.72256e-15)
(0.154199 -2.79972e-08 9.78831e-15)
(0.154199 -3.2223e-08 9.74781e-15)
(0.154199 -3.64711e-08 9.87927e-15)
(0.154199 -4.07316e-08 9.822e-15)
(0.154199 -4.49909e-08 9.77851e-15)
(0.154199 -4.92311e-08 9.83049e-15)
(0.154199 -5.34288e-08 9.65195e-15)
(0.154199 -5.75541e-08 9.8564e-15)
(0.154199 -6.15701e-08 9.85139e-15)
(0.154199 -6.54354e-08 9.79614e-15)
(0.154199 -6.91039e-08 9.88758e-15)
(0.154199 -7.25457e-08 9.75993e-15)
(0.154199 -7.56918e-08 9.90587e-15)
(0.154199 -7.83388e-08 9.87507e-15)
(0.154199 -7.87989e-08 9.83905e-15)
(0.154199 -6.70964e-08 1.00244e-14)
(0.154199 -4.40319e-08 9.85531e-15)
(0.154199 -2.40135e-08 9.98876e-15)
(0.154199 -1.09988e-08 9.90342e-15)
(0.154199 -2.90645e-09 9.86769e-15)
(0.154199 1.62562e-09 9.91255e-15)
(0.154199 3.62781e-09 9.84975e-15)
(0.154199 3.97505e-09 9.82612e-15)
(0.154199 3.24632e-09 9.81114e-15)
(0.154199 1.82555e-09 9.80398e-15)
(0.154199 -2.58675e-11 9.88588e-15)
(0.154199 -2.15995e-09 9.82999e-15)
(0.154199 -4.51363e-09 9.80231e-15)
(0.154199 -7.25563e-09 9.81415e-15)
(0.154199 -1.254e-08 9.82499e-15)
(0.154199 -2.97132e-08 9.91693e-15)
(0.15415 -6.05554e-08 9.89273e-15)
(0.15415 -6.46529e-08 9.86814e-15)
(0.15415 -5.99045e-08 9.83899e-15)
(0.15415 -5.43477e-08 9.81749e-15)
(0.15415 -4.90318e-08 9.78867e-15)
(0.15415 -4.41136e-08 9.78809e-15)
(0.15415 -3.97932e-08 9.80804e-15)
(0.15415 -3.60172e-08 9.81124e-15)
(0.15415 -3.27011e-08 9.80902e-15)
(0.15415 -2.97821e-08 9.80856e-15)
(0.15415 -2.71988e-08 9.78988e-15)
(0.15415 -2.48994e-08 9.75327e-15)
(0.15415 -2.28453e-08 9.71136e-15)
(0.15415 -2.10099e-08 9.67027e-15)
(0.15415 -1.93759e-08 9.63628e-15)
(0.15415 -1.79321e-08 9.61492e-15)
(0.15415 -1.66683e-08 9.59751e-15)
(0.15415 -1.55715e-08 9.5784e-15)
(0.15415 -1.46232e-08 9.55519e-15)
(0.15415 -1.37971e-08 9.5319e-15)
(0.15415 -1.30605e-08 9.50823e-15)
(0.15415 -1.23766e-08 9.5215e-15)
(0.15415 -1.17097e-08 9.5428e-15)
(0.15415 -1.10333e-08 9.55817e-15)
(0.15415 -1.03326e-08 9.58835e-15)
(0.15415 -9.60668e-09 9.60332e-15)
(0.15415 -8.86579e-09 9.61344e-15)
(0.15415 -8.12721e-09 9.62034e-15)
(0.15415 -7.41124e-09 9.62413e-15)
(0.15415 -6.7378e-09 9.64926e-15)
(0.15415 -6.12387e-09 9.65666e-15)
(0.154149 -5.58175e-09 9.6558e-15)
(0.154149 -5.11781e-09 9.65702e-15)
(0.154149 -4.73146e-09 9.65945e-15)
(0.154149 -4.41415e-09 9.68347e-15)
(0.154149 -4.14856e-09 9.68977e-15)
(0.154149 -3.90776e-09 9.68373e-15)
(0.154149 -3.65514e-09 9.6792e-15)
(0.154149 -3.34425e-09 9.67722e-15)
(0.154149 -2.92164e-09 9.70028e-15)
(0.154149 -2.32524e-09 9.72153e-15)
(0.154149 -1.48721e-09 9.73342e-15)
(0.154149 -2.84641e-10 9.73634e-15)
(0.154149 1.65225e-09 9.75803e-15)
(0.154149 5.47038e-09 9.76162e-15)
(0.154149 1.77269e-08 9.75044e-15)
(0.154149 3.86511e-08 9.74305e-15)
(0.154149 5.86729e-08 9.73736e-15)
(0.154149 7.38771e-08 9.75035e-15)
(0.154149 8.4816e-08 9.75322e-15)
(0.154149 9.21542e-08 9.74641e-15)
(0.154149 9.66134e-08 9.74701e-15)
(0.154149 9.89287e-08 9.74367e-15)
(0.154149 9.96493e-08 9.74295e-15)
(0.154149 9.91758e-08 9.71544e-15)
(0.154149 9.7807e-08 9.83972e-15)
(0.154149 9.5762e-08 9.74959e-15)
(0.154149 9.32012e-08 9.76986e-15)
(0.154149 9.02445e-08 9.78317e-15)
(0.154149 8.69825e-08 9.76943e-15)
(0.154149 8.34866e-08 9.91679e-15)
(0.154149 7.98142e-08 9.84327e-15)
(0.154149 7.60122e-08 9.84287e-15)
(0.154149 7.21187e-08 9.85083e-15)
(0.154149 6.81637e-08 9.82965e-15)
(0.154149 6.41701e-08 9.91453e-15)
(0.154149 6.01541e-08 9.90233e-15)
(0.154149 5.61269e-08 9.90057e-15)
(0.154149 5.20954e-08 9.89998e-15)
(0.154149 4.80638e-08 9.87422e-15)
(0.154149 4.40342e-08 9.95222e-15)
(0.154149 4.00072e-08 9.92719e-15)
(0.154149 3.59826e-08 9.93268e-15)
(0.154149 3.19593e-08 9.93196e-15)
(0.154149 2.79358e-08 9.91009e-15)
(0.154149 2.391e-08 9.93568e-15)
(0.154149 1.98798e-08 9.96951e-15)
(0.154149 1.58427e-08 9.96545e-15)
(0.154149 1.17963e-08 9.97115e-15)
(0.154149 7.73832e-09 9.95143e-15)
(0.154149 3.66633e-09 9.96974e-15)
(0.154149 -4.21729e-10 9.8178e-15)
(0.154149 -4.52765e-09 9.82164e-15)
(0.154149 -8.65283e-09 9.67278e-15)
(0.154149 -1.27981e-08 9.79588e-15)
(0.154149 -1.69637e-08 9.84164e-15)
(0.154149 -2.11488e-08 9.71552e-15)
(0.154149 -2.53517e-08 9.77275e-15)
(0.154149 -2.95693e-08 9.75892e-15)
(0.154149 -3.3797e-08 9.78437e-15)
(0.154149 -3.80282e-08 9.82293e-15)
(0.154149 -4.22544e-08 9.86511e-15)
(0.154149 -4.64642e-08 9.83096e-15)
(0.154149 -5.06434e-08 9.75835e-15)
(0.154149 -5.47737e-08 9.81547e-15)
(0.154149 -5.88325e-08 9.85301e-15)
(0.15415 -6.27905e-08 9.77166e-15)
(0.15415 -6.66118e-08 9.84245e-15)
(0.15415 -7.02504e-08 9.80355e-15)
(0.15415 -7.36472e-08 9.79203e-15)
(0.15415 -7.67271e-08 9.88095e-15)
(0.15415 -7.93447e-08 9.88137e-15)
(0.15415 -8.10988e-08 9.84683e-15)
(0.15415 -8.08026e-08 9.78172e-15)
(0.15415 -7.18618e-08 9.86167e-15)
(0.15415 -5.40037e-08 9.98913e-15)
(0.15415 -3.67449e-08 9.82218e-15)
(0.15415 -2.39527e-08 9.88444e-15)
(0.15415 -1.50333e-08 9.80516e-15)
(0.15415 -9.28888e-09 9.86537e-15)
(0.15415 -5.97297e-09 9.96313e-15)
(0.15415 -4.33527e-09 9.8728e-15)
(0.15415 -3.82113e-09 9.81212e-15)
(0.15415 -4.04283e-09 9.81044e-15)
(0.15415 -4.73296e-09 9.77537e-15)
(0.15415 -5.75201e-09 1.0002e-14)
(0.15415 -7.06123e-09 9.85006e-15)
(0.15415 -8.94826e-09 9.79826e-15)
(0.15415 -1.44687e-08 9.81983e-15)
(0.15415 -3.66961e-08 9.85068e-15)
(0.154087 -7.22951e-08 9.94567e-15)
(0.154087 -7.55304e-08 9.8489e-15)
(0.154087 -6.85061e-08 9.86242e-15)
(0.154087 -6.0709e-08 9.85545e-15)
(0.154087 -5.32581e-08 9.82963e-15)
(0.154087 -4.63842e-08 9.82007e-15)
(0.154087 -4.03155e-08 9.8152e-15)
(0.154087 -3.49882e-08 9.80084e-15)
(0.154087 -3.03042e-08 9.78715e-15)
(0.154087 -2.61829e-08 9.76803e-15)
(0.154087 -2.25436e-08 9.73591e-15)
(0.154087 -1.93167e-08 9.70405e-15)
(0.154087 -1.64491e-08 9.66895e-15)
(0.154087 -1.39028e-08 9.6363e-15)
(0.154087 -1.1652e-08 9.60725e-15)
(0.154087 -9.67832e-09 9.59704e-15)
(0.154087 -7.96605e-09 9.59231e-15)
(0.154087 -6.49627e-09 9.57408e-15)
(0.154087 -5.24415e-09 9.54993e-15)
(0.154087 -4.17551e-09 9.5219e-15)
(0.154087 -3.24825e-09 9.50722e-15)
(0.154087 -2.41447e-09 9.52308e-15)
(0.154087 -1.62741e-09 9.54752e-15)
(0.154087 -8.51786e-10 9.57327e-15)
(0.154087 -6.66723e-11 9.60567e-15)
(0.154087 7.31335e-10 9.63363e-15)
(0.154087 1.53203e-09 9.65508e-15)
(0.154087 2.31717e-09 9.66489e-15)
(0.154087 3.06508e-09 9.67317e-15)
(0.154087 3.75476e-09 9.69152e-15)
(0.154087 4.36862e-09 9.70747e-15)
(0.154087 4.89425e-09 9.71931e-15)
(0.154087 5.32561e-09 9.72234e-15)
(0.154087 5.66403e-09 9.72644e-15)
(0.154087 5.9191e-09 9.74428e-15)
(0.154087 6.10951e-09 9.75956e-15)
(0.154087 6.26394e-09 9.76519e-15)
(0.154087 6.42156e-09 9.76027e-15)
(0.154087 6.6328e-09 9.75923e-15)
(0.154087 6.95935e-09 9.77477e-15)
(0.154087 7.47856e-09 9.79096e-15)
(0.154087 8.29414e-09 9.80494e-15)
(0.154087 9.57491e-09 9.81117e-15)
(0.154087 1.17641e-08 9.87344e-15)
(0.154087 1.57028e-08 9.8622e-15)
(0.154087 2.56439e-08 9.83406e-15)
(0.154086 4.20842e-08 9.82537e-15)
(0.154086 5.87745e-08 9.81888e-15)
(0.154086 7.24644e-08 9.85791e-15)
(0.154086 8.29353e-08 9.85431e-15)
(0.154087 9.03417e-08 9.83641e-15)
(0.154087 9.50937e-08 9.84692e-15)
(0.154087 9.77404e-08 9.83866e-15)
(0.154087 9.87523e-08 9.84477e-15)
(0.154087 9.85032e-08 9.78091e-15)
(0.154087 9.72864e-08 9.83046e-15)
(0.154087 9.5325e-08 9.8591e-15)
(0.154087 9.2787e-08 9.87764e-15)
(0.154087 8.98003e-08 9.89729e-15)
(0.154087 8.64635e-08 9.85015e-15)
(0.154087 8.28547e-08 9.92397e-15)
(0.154087 7.90373e-08 9.95641e-15)
(0.154087 7.50632e-08 9.96364e-15)
(0.154087 7.0975e-08 9.97718e-15)
(0.154087 6.68067e-08 9.91651e-15)
(0.154087 6.25849e-08 9.98029e-15)
(0.154087 5.83294e-08 1.00274e-14)
(0.154087 5.40546e-08 1.00372e-14)
(0.154087 4.97706e-08 1.00458e-14)
(0.154087 4.54843e-08 9.98277e-15)
(0.154087 4.12002e-08 1.0029e-14)
(0.154087 3.6921e-08 1.00714e-14)
(0.154087 3.26484e-08 1.00747e-14)
(0.154087 2.83828e-08 1.00812e-14)
(0.154087 2.41239e-08 1.0024e-14)
(0.154087 1.98711e-08 1.00944e-14)
(0.154087 1.5623e-08 1.01206e-14)
(0.154087 1.13782e-08 1.01134e-14)
(0.154087 7.13523e-09 1.01318e-14)
(0.154087 2.8924e-09 1.00855e-14)
(0.154087 -1.35173e-09 1.01082e-14)
(0.154087 -5.59839e-09 1.0066e-14)
(0.154087 -9.84852e-09 1.00265e-14)
(0.154087 -1.41026e-08 1.00162e-14)
(0.154087 -1.83603e-08 9.99502e-15)
(0.154087 -2.26209e-08 1.00594e-14)
(0.154087 -2.68823e-08 1.0017e-14)
(0.154087 -3.11413e-08 9.97861e-15)
(0.154087 -3.53936e-08 9.96627e-15)
(0.154087 -3.9633e-08 9.94918e-15)
(0.154087 -4.38514e-08 1.00225e-14)
(0.154087 -4.80389e-08 1.00315e-14)
(0.154087 -5.21831e-08 1.00119e-14)
(0.154087 -5.62691e-08 1.00436e-14)
(0.154087 -6.02786e-08 1.00014e-14)
(0.154087 -6.41898e-08 1.0054e-14)
(0.154087 -6.79745e-08 1.00392e-14)
(0.154087 -7.1598e-08 1.00017e-14)
(0.154087 -7.50111e-08 9.98627e-15)
(0.154087 -7.81446e-08 9.94929e-15)
(0.154087 -8.08902e-08 1.001e-14)
(0.154087 -8.30561e-08 1.00097e-14)
(0.154087 -8.41659e-08 1e-14)
(0.154087 -8.33384e-08 1.00196e-14)
(0.154087 -7.62775e-08 1.00089e-14)
(0.154087 -6.24297e-08 1.00957e-14)
(0.154087 -4.79821e-08 1.007e-14)
(0.154087 -3.61304e-08 1.00291e-14)
(0.154087 -2.70461e-08 1.00406e-14)
(0.154087 -2.05372e-08 9.99909e-15)
(0.154087 -1.61649e-08 1.0055e-14)
(0.154087 -1.33612e-08 1.00557e-14)
(0.154087 -1.16472e-08 1.00008e-14)
(0.154087 -1.06633e-08 1.00088e-14)
(0.154087 -1.01519e-08 9.9749e-15)
(0.154087 -9.98957e-09 1.00293e-14)
(0.154087 -1.01617e-08 1.00288e-14)
(0.154087 -1.10694e-08 9.98857e-15)
(0.154087 -1.65767e-08 9.99494e-15)
(0.154087 -4.36874e-08 9.96883e-15)
(0.154012 -8.35586e-08 1.00116e-14)
(0.154012 -8.59196e-08 9.94601e-15)
(0.154012 -7.65916e-08 9.92118e-15)
(0.154012 -6.6471e-08 9.89733e-15)
(0.154012 -5.6833e-08 9.85927e-15)
(0.154012 -4.7989e-08 9.85237e-15)
(0.154012 -4.01716e-08 9.8224e-15)
(0.154012 -3.32971e-08 9.78191e-15)
(0.154012 -2.72506e-08 9.76126e-15)
(0.154012 -2.19323e-08 9.71962e-15)
(0.154012 -1.72415e-08 9.66497e-15)
(0.154012 -1.30913e-08 9.63926e-15)
(0.154012 -9.41463e-09 9.60949e-15)
(0.154012 -6.16215e-09 9.5887e-15)
(0.154012 -3.29986e-09 9.5671e-15)
(0.154012 -8.02907e-10 9.58216e-15)
(0.154012 1.34988e-09 9.59228e-15)
(0.154012 3.18293e-09 9.56364e-15)
(0.154011 4.72702e-09 9.53686e-15)
(0.154011 6.02431e-09 9.50133e-15)
(0.154011 7.12666e-09 9.50424e-15)
(0.154011 8.09415e-09 9.54427e-15)
(0.154011 8.9861e-09 9.57411e-15)
(0.154011 9.84727e-09 9.61028e-15)
(0.154011 1.0705e-08 9.64925e-15)
(0.154011 1.15646e-08 9.68365e-15)
(0.154011 1.2415e-08 9.7125e-15)
(0.154011 1.32358e-08 9.71832e-15)
(0.154011 1.40031e-08 9.7304e-15)
(0.154011 1.4694e-08 9.75188e-15)
(0.154011 1.52896e-08 9.77116e-15)
(0.154011 1.57767e-08 9.79123e-15)
(0.154011 1.61494e-08 9.79123e-15)
(0.154011 1.64093e-08 9.79886e-15)
(0.154011 1.65669e-08 9.82047e-15)
(0.154011 1.66424e-08 9.84247e-15)
(0.154011 1.66663e-08 9.85341e-15)
(0.154011 1.66807e-08 9.84176e-15)
(0.154011 1.67401e-08 9.84469e-15)
(0.154011 1.69139e-08 9.86356e-15)
(0.154011 1.72916e-08 9.87026e-15)
(0.154011 1.80008e-08 9.87434e-15)
(0.154011 1.92337e-08 9.881e-15)
(0.154011 2.14376e-08 1.00391e-14)
(0.154011 2.52544e-08 9.95774e-15)
(0.154011 3.34171e-08 9.90443e-15)
(0.154011 4.63769e-08 9.94831e-15)
(0.154011 6.00391e-08 9.89252e-15)
(0.154011 7.18866e-08 1.00361e-14)
(0.154011 8.13911e-08 9.94671e-15)
(0.154011 8.84131e-08 9.91548e-15)
(0.154011 9.31176e-08 1.00328e-14)
(0.154011 9.5867e-08 9.92754e-15)
(0.154011 9.70262e-08 9.97865e-15)
(0.154011 9.69157e-08 9.82923e-15)
(0.154011 9.58037e-08 9.99905e-15)
(0.154011 9.39043e-08 1.00345e-14)
(0.154011 9.13847e-08 9.9807e-15)
(0.154011 8.83755e-08 1.01104e-14)
(0.154011 8.49795e-08 9.85736e-15)
(0.154011 8.12794e-08 1.00454e-14)
(0.154011 7.73429e-08 1.01325e-14)
(0.154011 7.32258e-08 1.00786e-14)
(0.154011 6.89744e-08 1.01442e-14)
(0.154011 6.46259e-08 9.8778e-15)
(0.154011 6.02101e-08 1.01092e-14)
(0.154011 5.575e-08 1.015e-14)
(0.154011 5.12629e-08 1.01673e-14)
(0.154011 4.67617e-08 1.01647e-14)
(0.154011 4.22558e-08 1.00701e-14)
(0.154011 3.77521e-08 1.02415e-14)
(0.154011 3.32553e-08 1.02658e-14)
(0.154011 2.87688e-08 1.02119e-14)
(0.154011 2.42945e-08 1.02047e-14)
(0.154011 1.98334e-08 1.01158e-14)
(0.154011 1.5386e-08 1.02989e-14)
(0.154011 1.09521e-08 1.03827e-14)
(0.154011 6.53096e-09 1.02585e-14)
(0.154011 2.12199e-09 1.03178e-14)
(0.154011 -2.27564e-09 1.0188e-14)
(0.154011 -6.6626e-09 1.02857e-14)
(0.154011 -1.10394e-08 1.02544e-14)
(0.154011 -1.5406e-08 1.02062e-14)
(0.154011 -1.97621e-08 1.03173e-14)
(0.154011 -2.41066e-08 1.02124e-14)
(0.154011 -2.84373e-08 1.03275e-14)
(0.154011 -3.27513e-08 1.02218e-14)
(0.154011 -3.70442e-08 1.01617e-14)
(0.154011 -4.13101e-08 1.02032e-14)
(0.154011 -4.55414e-08 1.01473e-14)
(0.154011 -4.97288e-08 1.02266e-14)
(0.154011 -5.3861e-08 1.01992e-14)
(0.154011 -5.79245e-08 1.01702e-14)
(0.154011 -6.19042e-08 1.03031e-14)
(0.154011 -6.57814e-08 1.02075e-14)
(0.154011 -6.95362e-08 1.02989e-14)
(0.154011 -7.31416e-08 1.01987e-14)
(0.154011 -7.65655e-08 1.01449e-14)
(0.154011 -7.97571e-08 1.02406e-14)
(0.154011 -8.26421e-08 1.01165e-14)
(0.154011 -8.50923e-08 1.02444e-14)
(0.154011 -8.68914e-08 1.01548e-14)
(0.154011 -8.75572e-08 1.01329e-14)
(0.154011 -8.64076e-08 1.02561e-14)
(0.154011 -8.06607e-08 1.01608e-14)
(0.154011 -6.97946e-08 1.0239e-14)
(0.154011 -5.78321e-08 1.02077e-14)
(0.154011 -4.72275e-08 1.0152e-14)
(0.154011 -3.84554e-08 1.02104e-14)
(0.154011 -3.16127e-08 1.01625e-14)
(0.154011 -2.65004e-08 1.02697e-14)
(0.154011 -2.27326e-08 1.02982e-14)
(0.154012 -1.99316e-08 1.01628e-14)
(0.154012 -1.77895e-08 1.02418e-14)
(0.154012 -1.60743e-08 1.01329e-14)
(0.154012 -1.46877e-08 1.01779e-14)
(0.154012 -1.36372e-08 1.02745e-14)
(0.154012 -1.3428e-08 1.01445e-14)
(0.154012 -1.86396e-08 1.01665e-14)
(0.154012 -5.03322e-08 1.00951e-14)
(0.153924 -9.40608e-08 1.00475e-14)
(0.153924 -9.55679e-08 9.99661e-15)
(0.153924 -8.39607e-08 9.97484e-15)
(0.153924 -7.14781e-08 9.93516e-15)
(0.153924 -5.9621e-08 9.8676e-15)
(0.153924 -4.87998e-08 9.88871e-15)
(0.153924 -3.92409e-08 9.81519e-15)
(0.153924 -3.08335e-08 9.73518e-15)
(0.153924 -2.34419e-08 9.73038e-15)
(0.153924 -1.69441e-08 9.64976e-15)
(0.153924 -1.12186e-08 9.57083e-15)
(0.153924 -6.16145e-09 9.5679e-15)
(0.153924 -1.69132e-09 9.53841e-15)
(0.153924 2.25161e-09 9.53676e-15)
(0.153924 5.70936e-09 9.51906e-15)
(0.153924 8.71294e-09 9.58963e-15)
(0.153924 1.12885e-08 9.60459e-15)
(0.153923 1.34655e-08 9.53326e-15)
(0.153923 1.52802e-08 9.51391e-15)
(0.153923 1.67827e-08 9.46516e-15)
(0.153923 1.80349e-08 9.51223e-15)
(0.153923 1.91105e-08 9.6039e-15)
(0.153923 2.00832e-08 9.62425e-15)
(0.153923 2.1008e-08 9.67915e-15)
(0.153923 2.19192e-08 9.72843e-15)
(0.153923 2.2823e-08 9.75769e-15)
(0.153923 2.37062e-08 9.78765e-15)
(0.153923 2.45451e-08 9.77439e-15)
(0.153923 2.53123e-08 9.79757e-15)
(0.153923 2.59818e-08 9.8356e-15)
(0.153923 2.65327e-08 9.85006e-15)
(0.153923 2.69508e-08 9.87366e-15)
(0.153923 2.72295e-08 9.85762e-15)
(0.153923 2.73709e-08 9.87701e-15)
(0.153923 2.73864e-08 9.91045e-15)
(0.153923 2.72978e-08 9.94476e-15)
(0.153923 2.7138e-08 9.9522e-15)
(0.153923 2.69521e-08 9.91738e-15)
(0.153923 2.67993e-08 9.93123e-15)
(0.153923 2.67552e-08 9.96962e-15)
(0.153923 2.69187e-08 9.95239e-15)
(0.153923 2.74309e-08 9.93905e-15)
(0.153923 2.8492e-08 9.93615e-15)
(0.153923 3.05178e-08 9.99233e-15)
(0.153923 3.40099e-08 9.97927e-15)
(0.153923 4.07212e-08 9.95526e-15)
(0.153923 5.097e-08 9.94942e-15)
(0.153923 6.20234e-08 9.94762e-15)
(0.153923 7.198e-08 9.98822e-15)
(0.153923 8.02431e-08 9.98762e-15)
(0.153923 8.65438e-08 9.97663e-15)
(0.153923 9.08915e-08 9.98966e-15)
(0.153923 9.34985e-08 9.98441e-15)
(0.153923 9.4626e-08 9.99649e-15)
(0.153923 9.453e-08 9.9466e-15)
(0.153923 9.34411e-08 1.00145e-14)
(0.153923 9.15531e-08 1.00506e-14)
(0.153923 8.9024e-08 1.00748e-14)
(0.153923 8.5981e-08 1.0097e-14)
(0.153923 8.2527e-08 1.00577e-14)
(0.153923 7.8746e-08 1.01255e-14)
(0.153923 7.47078e-08 1.01672e-14)
(0.153923 7.04706e-08 1.01813e-14)
(0.153923 6.60827e-08 1.01988e-14)
(0.153923 6.15839e-08 1.01467e-14)
(0.153923 5.70064e-08 1.02031e-14)
(0.153923 5.23755e-08 1.02589e-14)
(0.153923 4.7711e-08 1.0278e-14)
(0.153923 4.30282e-08 1.02912e-14)
(0.153923 3.83388e-08 1.02353e-14)
(0.153923 3.36515e-08 1.02812e-14)
(0.153923 2.8973e-08 1.03227e-14)
(0.153923 2.43082e-08 1.03296e-14)
(0.153923 1.96604e-08 1.03364e-14)
(0.153923 1.5032e-08 1.02842e-14)
(0.153923 1.04242e-08 1.03486e-14)
(0.153923 5.83789e-09 1.03788e-14)
(0.153923 1.2733e-09 1.03758e-14)
(0.153923 -3.26951e-09 1.03966e-14)
(0.153923 -7.7906e-09 1.03585e-14)
(0.153923 -1.22899e-08 1.0394e-14)
(0.153923 -1.67672e-08 1.03872e-14)
(0.153923 -2.12218e-08 1.03624e-14)
(0.153923 -2.56525e-08 1.03827e-14)
(0.153923 -3.00572e-08 1.03516e-14)
(0.153923 -3.4433e-08 1.03769e-14)
(0.153923 -3.87757e-08 1.03543e-14)
(0.153923 -4.30798e-08 1.03135e-14)
(0.153923 -4.73381e-08 1.03063e-14)
(0.153923 -5.15418e-08 1.02851e-14)
(0.153923 -5.568e-08 1.03126e-14)
(0.153923 -5.97405e-08 1.03169e-14)
(0.153923 -6.37085e-08 1.02961e-14)
(0.153923 -6.75686e-08 1.03421e-14)
(0.153923 -7.13024e-08 1.03023e-14)
(0.153923 -7.48918e-08 1.03162e-14)
(0.153923 -7.83116e-08 1.02985e-14)
(0.153923 -8.15342e-08 1.02645e-14)
(0.153923 -8.45096e-08 1.02563e-14)
(0.153923 -8.71639e-08 1.02304e-14)
(0.153923 -8.93604e-08 1.02508e-14)
(0.153923 -9.08731e-08 1.02547e-14)
(0.153923 -9.12489e-08 1.02414e-14)
(0.153923 -8.99465e-08 1.02645e-14)
(0.153923 -8.51597e-08 1.02452e-14)
(0.153923 -7.64826e-08 1.02904e-14)
(0.153923 -6.65649e-08 1.02783e-14)
(0.153923 -5.72357e-08 1.02454e-14)
(0.153923 -4.90307e-08 1.0266e-14)
(0.153923 -4.21697e-08 1.02375e-14)
(0.153923 -3.66034e-08 1.02495e-14)