/*--------------------------------*- C++ -*----------------------------------*\
  =========                 |
  \\      /  F ield         | OpenFOAM: The Open Source CFD Toolbox
   \\    /   O peration     | Website:  https://openfoam.org
    \\  /    A nd           | Version:  7
     \\/     M anipulation  |
\*---------------------------------------------------------------------------*/
FoamFile
{
    version     2.0;
    format      ascii;
    class       volScalarField;
    location    "3000";
    object      nut;
}
// * * * * * * * * * * * * * * * * * * * * * * * * * * * * * * * * * * * * * //

dimensions      [0 2 -1 0 0 0 0];

internalField   nonuniform List<scalar> 
3963
(
0.00120936
0.00120962
0.00120966
0.00120964
0.00120961
0.00120959
0.00120956
0.00120954
0.00120951
0.00120949
0.00120947
0.00120944
0.00120942
0.00120939
0.00120937
0.00120934
0.00120932
0.00120929
0.00120927
0.00120924
0.00120921
0.00120883
0.00120871
0.00120859
0.00120852
0.00120847
0.00120843
0.0012084
0.00120837
0.00120834
0.00120831
0.00120829
0.00120826
0.00120824
0.00120822
0.00120821
0.0012081
0.0011619
0.00116215
0.00116219
0.00116218
0.00116216
0.00116213
0.0011621
0.00116208
0.00116205
0.00116202
0.001162
0.00116197
0.00116195
0.00116192
0.0011619
0.00116187
0.00116184
0.00116182
0.00116179
0.00116177
0.00116168
0.00116254
0.00116286
0.00116273
0.00116262
0.00116251
0.00116246
0.00116201
0.00116174
0.00116156
0.00116144
0.00116135
0.00116127
0.00116121
0.00116116
0.00116111
0.00116107
0.00116103
0.001161
0.00116096
0.00116093
0.00116091
0.0011608
0.00111604
0.00111626
0.00111629
0.00111628
0.00111626
0.00111624
0.00111621
0.00111618
0.00111616
0.00111613
0.0011161
0.00111608
0.00111605
0.00111603
0.001116
0.00111597
0.00111595
0.00111592
0.00111589
0.00111587
0.0011158
0.00111611
0.00111632
0.0011173
0.00111769
0.00111781
0.00111785
0.00111788
0.00111789
0.0011179
0.00111791
0.00111791
0.00111791
0.00111791
0.00111791
0.0011179
0.0011179
0.00111789
0.00111789
0.00111788
0.00111787
0.00111786
0.00111786
0.00111785
0.00111784
0.00111783
0.00111782
0.00111781
0.0011178
0.0011178
0.00111779
0.00111778
0.00111777
0.00111776
0.00111775
0.00111775
0.00111774
0.00111773
0.00111772
0.00111771
0.00111771
0.0011177
0.00111769
0.00111768
0.00111767
0.00111767
0.00111766
0.00111765
0.00111764
0.00111763
0.00111763
0.00111762
0.00111761
0.0011176
0.00111759
0.00111759
0.00111758
0.00111757
0.00111756
0.00111755
0.00111755
0.00111754
0.00111753
0.00111752
0.00111751
0.00111751
0.0011175
0.00111749
0.00111748
0.00111747
0.00111747
0.00111746
0.00111745
0.00111744
0.00111744
0.00111743
0.00111742
0.00111742
0.00111741
0.00111742
0.00111704
0.00111681
0.00111667
0.00111659
0.00111637
0.00111614
0.00111596
0.00111582
0.00111571
0.00111562
0.00111554
0.00111547
0.00111542
0.00111536
0.00111532
0.00111527
0.00111523
0.00111519
0.00111517
0.00111505
0.00107175
0.00107194
0.00107197
0.00107196
0.00107194
0.00107191
0.00107189
0.00107186
0.00107183
0.00107181
0.00107178
0.00107176
0.00107173
0.0010717
0.00107168
0.00107165
0.00107162
0.0010716
0.00107157
0.00107155
0.0010715
0.00107159
0.0010717
0.00107214
0.00107251
0.00107273
0.00107284
0.00107292
0.00107296
0.001073
0.00107303
0.00107305
0.00107306
0.00107307
0.00107308
0.00107309
0.00107309
0.00107309
0.0010731
0.00107309
0.00107309
0.00107309
0.00107309
0.00107309
0.00107308
0.00107308
0.00107307
0.00107307
0.00107306
0.00107306
0.00107305
0.00107305
0.00107304
0.00107304
0.00107303
0.00107303
0.00107302
0.00107302
0.00107301
0.001073
0.001073
0.00107299
0.00107299
0.00107298
0.00107298
0.00107297
0.00107296
0.00107296
0.00107295
0.00107295
0.00107294
0.00107293
0.00107293
0.00107292
0.00107291
0.00107291
0.0010729
0.00107289
0.00107289
0.00107288
0.00107287
0.00107287
0.00107286
0.00107285
0.00107285
0.00107284
0.00107283
0.00107283
0.00107282
0.00107281
0.00107281
0.0010728
0.00107279
0.00107279
0.00107278
0.00107278
0.00107277
0.00107276
0.00107276
0.00107277
0.00107262
0.00107246
0.00107232
0.00107223
0.0010721
0.00107195
0.0010718
0.00107167
0.00107156
0.00107146
0.00107138
0.00107131
0.00107125
0.00107119
0.00107114
0.00107109
0.00107104
0.001071
0.00107097
0.00107085
0.00102902
0.00102919
0.00102921
0.0010292
0.00102918
0.00102915
0.00102913
0.0010291
0.00102908
0.00102905
0.00102902
0.001029
0.00102897
0.00102895
0.00102892
0.0010289
0.00102887
0.00102885
0.00102882
0.0010288
0.00102876
0.00102878
0.00102882
0.001029
0.00102924
0.00102943
0.00102957
0.00102966
0.00102973
0.00102978
0.00102982
0.00102985
0.00102987
0.00102989
0.00102991
0.00102992
0.00102993
0.00102994
0.00102995
0.00102995
0.00102995
0.00102996
0.00102996
0.00102996
0.00102996
0.00102996
0.00102996
0.00102996
0.00102995
0.00102995
0.00102995
0.00102995
0.00102994
0.00102994
0.00102994
0.00102994
0.00102993
0.00102993
0.00102992
0.00102992
0.00102992
0.00102991
0.00102991
0.0010299
0.0010299
0.0010299
0.00102989
0.00102989
0.00102988
0.00102988
0.00102987
0.00102987
0.00102986
0.00102986
0.00102985
0.00102985
0.00102984
0.00102984
0.00102983
0.00102983
0.00102982
0.00102981
0.00102981
0.0010298
0.0010298
0.00102979
0.00102979
0.00102978
0.00102978
0.00102977
0.00102976
0.00102976
0.00102975
0.00102975
0.00102974
0.00102974
0.00102973
0.00102973
0.00102972
0.00102973
0.00102967
0.00102958
0.00102949
0.00102941
0.00102932
0.00102921
0.0010291
0.001029
0.0010289
0.00102881
0.00102873
0.00102866
0.0010286
0.00102854
0.00102849
0.00102844
0.00102839
0.00102835
0.00102832
0.0010282
0.00098783
0.000987979
0.000987996
0.000987983
0.000987962
0.000987939
0.000987915
0.000987891
0.000987866
0.000987842
0.000987818
0.000987794
0.00098777
0.000987746
0.000987722
0.000987698
0.000987673
0.000987649
0.000987624
0.000987601
0.000987571
0.00098756
0.000987564
0.000987635
0.00098776
0.000987893
0.000988007
0.000988096
0.000988165
0.000988219
0.000988262
0.000988297
0.000988326
0.00098835
0.00098837
0.000988386
0.0009884
0.000988411
0.000988421
0.000988429
0.000988435
0.00098844
0.000988445
0.000988448
0.00098845
0.000988452
0.000988453
0.000988454
0.000988454
0.000988454
0.000988454
0.000988454
0.000988453
0.000988452
0.00098845
0.000988449
0.000988447
0.000988445
0.000988443
0.000988441
0.000988439
0.000988436
0.000988433
0.000988431
0.000988428
0.000988425
0.000988421
0.000988418
0.000988415
0.000988411
0.000988408
0.000988404
0.0009884
0.000988396
0.000988392
0.000988388
0.000988383
0.000988379
0.000988375
0.00098837
0.000988366
0.000988361
0.000988357
0.000988352
0.000988347
0.000988343
0.000988338
0.000988333
0.000988329
0.000988324
0.000988319
0.000988315
0.00098831
0.000988306
0.000988301
0.000988297
0.000988293
0.000988289
0.000988284
0.000988285
0.000988265
0.00098822
0.00098816
0.000988101
0.000988038
0.000987967
0.000987889
0.000987809
0.000987731
0.000987657
0.000987589
0.000987526
0.000987468
0.000987414
0.000987364
0.000987317
0.000987273
0.000987229
0.000987202
0.000987088
0.000948157
0.000948291
0.000948305
0.000948292
0.000948272
0.00094825
0.000948228
0.000948205
0.000948183
0.00094816
0.000948138
0.000948115
0.000948093
0.00094807
0.000948048
0.000948025
0.000948002
0.000947979
0.000947956
0.000947934
0.000947909
0.00094789
0.000947879
0.000947897
0.000947952
0.000948028
0.000948107
0.000948177
0.000948236
0.000948285
0.000948325
0.000948359
0.000948388
0.000948412
0.000948432
0.00094845
0.000948465
0.000948478
0.000948489
0.000948499
0.000948507
0.000948513
0.000948519
0.000948524
0.000948528
0.000948531
0.000948534
0.000948536
0.000948538
0.000948539
0.00094854
0.000948541
0.000948542
0.000948542
0.000948542
0.000948542
0.000948541
0.00094854
0.000948539
0.000948538
0.000948537
0.000948536
0.000948534
0.000948532
0.00094853
0.000948528
0.000948526
0.000948524
0.000948522
0.000948519
0.000948516
0.000948513
0.00094851
0.000948507
0.000948504
0.000948501
0.000948497
0.000948494
0.00094849
0.000948487
0.000948483
0.00094848
0.000948476
0.000948472
0.000948468
0.000948464
0.000948461
0.000948457
0.000948453
0.000948449
0.000948445
0.000948441
0.000948438
0.000948434
0.00094843
0.000948427
0.000948423
0.00094842
0.000948416
0.000948415
0.000948407
0.000948386
0.000948352
0.000948313
0.00094827
0.000948222
0.000948168
0.00094811
0.000948051
0.000947993
0.000947937
0.000947883
0.000947833
0.000947785
0.00094774
0.000947698
0.000947657
0.000947617
0.000947592
0.000947485
0.000909974
0.000910095
0.000910108
0.000910096
0.000910077
0.000910057
0.000910036
0.000910016
0.000909995
0.000909974
0.000909954
0.000909933
0.000909913
0.000909892
0.000909871
0.00090985
0.000909829
0.000909808
0.000909787
0.000909766
0.000909744
0.000909723
0.000909707
0.000909703
0.00090972
0.000909756
0.000909802
0.000909848
0.000909892
0.000909931
0.000909964
0.000909993
0.000910018
0.00091004
0.000910059
0.000910076
0.00091009
0.000910103
0.000910114
0.000910124
0.000910132
0.000910139
0.000910145
0.000910151
0.000910156
0.00091016
0.000910163
0.000910166
0.000910169
0.000910171
0.000910173
0.000910174
0.000910176
0.000910177
0.000910178
0.000910178
0.000910179
0.000910179
0.000910179
0.000910178
0.000910178
0.000910177
0.000910176
0.000910175
0.000910174
0.000910173
0.000910172
0.00091017
0.000910168
0.000910167
0.000910165
0.000910162
0.00091016
0.000910158
0.000910155
0.000910153
0.00091015
0.000910148
0.000910145
0.000910142
0.000910139
0.000910136
0.000910133
0.00091013
0.000910127
0.000910124
0.000910121
0.000910117
0.000910114
0.000910111
0.000910108
0.000910105
0.000910102
0.000910099
0.000910096
0.000910093
0.00091009
0.000910087
0.000910084
0.000910082
0.000910079
0.000910069
0.000910051
0.000910027
0.000909999
0.000909967
0.000909931
0.00090989
0.000909847
0.000909803
0.000909759
0.000909716
0.000909675
0.000909634
0.000909596
0.000909558
0.000909523
0.000909487
0.000909465
0.000909365
0.000873247
0.000873358
0.000873369
0.000873359
0.000873342
0.000873324
0.000873306
0.000873287
0.000873269
0.00087325
0.000873232
0.000873213
0.000873194
0.000873176
0.000873157
0.000873138
0.000873119
0.000873099
0.00087308
0.00087306
0.000873041
0.000873021
0.000873004
0.000872991
0.00087299
0.000873002
0.000873023
0.000873049
0.000873077
0.000873103
0.000873128
0.00087315
0.00087317
0.000873188
0.000873204
0.000873218
0.000873231
0.000873242
0.000873252
0.000873261
0.000873269
0.000873275
0.000873281
0.000873287
0.000873291
0.000873296
0.000873299
0.000873302
0.000873305
0.000873308
0.00087331
0.000873312
0.000873314
0.000873316
0.000873317
0.000873318
0.000873319
0.000873319
0.00087332
0.00087332
0.00087332
0.00087332
0.00087332
0.000873319
0.000873319
0.000873318
0.000873317
0.000873316
0.000873315
0.000873314
0.000873313
0.000873311
0.000873309
0.000873308
0.000873306
0.000873304
0.000873302
0.0008733
0.000873297
0.000873295
0.000873293
0.000873291
0.000873288
0.000873286
0.000873283
0.000873281
0.000873278
0.000873276
0.000873273
0.00087327
0.000873268
0.000873265
0.000873263
0.00087326
0.000873258
0.000873255
0.000873253
0.000873251
0.000873249
0.000873247
0.000873244
0.00087324
0.00087323
0.000873216
0.000873199
0.000873178
0.000873154
0.000873127
0.000873097
0.000873064
0.000873031
0.000872998
0.000872965
0.000872932
0.0008729
0.000872869
0.000872839
0.000872807
0.000872789
0.000872697
0.000837939
0.00083804
0.000838052
0.000838043
0.000838029
0.000838013
0.000837997
0.000837981
0.000837964
0.000837948
0.000837932
0.000837915
0.000837898
0.000837882
0.000837865
0.000837848
0.000837831
0.000837813
0.000837795
0.000837778
0.00083776
0.000837743
0.000837726
0.000837711
0.000837701
0.0008377
0.000837705
0.000837717
0.000837731
0.000837747
0.000837762
0.000837777
0.000837792
0.000837805
0.000837817
0.000837828
0.000837838
0.000837847
0.000837855
0.000837862
0.000837869
0.000837875
0.00083788
0.000837885
0.000837889
0.000837893
0.000837896
0.000837899
0.000837902
0.000837905
0.000837907
0.000837909
0.000837911
0.000837913
0.000837914
0.000837916
0.000837917
0.000837918
0.000837918
0.000837919
0.000837919
0.000837919
0.000837919
0.000837919
0.000837919
0.000837919
0.000837919
0.000837918
0.000837917
0.000837916
0.000837916
0.000837914
0.000837913
0.000837912
0.000837911
0.000837909
0.000837907
0.000837906
0.000837904
0.000837902
0.000837901
0.000837899
0.000837897
0.000837895
0.000837893
0.000837891
0.000837889
0.000837887
0.000837885
0.000837882
0.00083788
0.000837878
0.000837876
0.000837874
0.000837872
0.00083787
0.000837869
0.000837867
0.000837865
0.000837863
0.000837862
0.000837859
0.000837854
0.000837846
0.000837836
0.000837823
0.000837807
0.000837789
0.000837768
0.000837745
0.000837721
0.000837696
0.000837671
0.000837645
0.000837619
0.000837594
0.000837569
0.000837542
0.000837528
0.000837444
0.00080401
0.000804101
0.000804113
0.000804107
0.000804095
0.000804082
0.000804068
0.000804054
0.00080404
0.000804026
0.000804011
0.000803997
0.000803982
0.000803967
0.000803952
0.000803937
0.000803922
0.000803906
0.00080389
0.000803875
0.000803859
0.000803843
0.000803827
0.000803813
0.000803801
0.000803792
0.000803789
0.000803791
0.000803795
0.000803802
0.00080381
0.000803819
0.000803828
0.000803836
0.000803844
0.000803852
0.000803859
0.000803865
0.000803871
0.000803877
0.000803882
0.000803887
0.000803891
0.000803895
0.000803898
0.000803902
0.000803904
0.000803907
0.00080391
0.000803912
0.000803914
0.000803916
0.000803918
0.000803919
0.000803921
0.000803922
0.000803923
0.000803924
0.000803925
0.000803926
0.000803926
0.000803927
0.000803927
0.000803927
0.000803927
0.000803927
0.000803927
0.000803927
0.000803926
0.000803926
0.000803925
0.000803925
0.000803924
0.000803923
0.000803922
0.000803921
0.000803919
0.000803918
0.000803917
0.000803915
0.000803914
0.000803913
0.000803911
0.00080391
0.000803908
0.000803906
0.000803905
0.000803903
0.000803901
0.0008039
0.000803898
0.000803896
0.000803895
0.000803893
0.000803892
0.00080389
0.000803889
0.000803887
0.000803886
0.000803885
0.000803883
0.000803882
0.000803879
0.000803874
0.000803868
0.00080386
0.00080385
0.000803838
0.000803824
0.000803809
0.000803791
0.000803773
0.000803754
0.000803734
0.000803714
0.000803694
0.000803674
0.000803652
0.000803641
0.000803565
0.000771414
0.000771497
0.000771509
0.000771505
0.000771495
0.000771484
0.000771473
0.000771461
0.000771449
0.000771437
0.000771425
0.000771412
0.000771399
0.000771387
0.000771374
0.00077136
0.000771347
0.000771333
0.000771319
0.000771305
0.000771291
0.000771277
0.000771263
0.000771249
0.000771236
0.000771226
0.000771219
0.000771214
0.000771213
0.000771213
0.000771216
0.000771219
0.000771223
0.000771227
0.000771231
0.000771236
0.00077124
0.000771244
0.000771248
0.000771252
0.000771256
0.000771259
0.000771262
0.000771265
0.000771267
0.00077127
0.000771272
0.000771274
0.000771276
0.000771278
0.00077128
0.000771281
0.000771283
0.000771284
0.000771286
0.000771287
0.000771288
0.000771289
0.00077129
0.00077129
0.000771291
0.000771292
0.000771292
0.000771292
0.000771292
0.000771293
0.000771293
0.000771292
0.000771292
0.000771292
0.000771291
0.000771291
0.00077129
0.00077129
0.000771289
0.000771288
0.000771287
0.000771286
0.000771285
0.000771284
0.000771283
0.000771282
0.000771281
0.00077128
0.000771278
0.000771277
0.000771276
0.000771275
0.000771273
0.000771272
0.000771271
0.000771269
0.000771268
0.000771267
0.000771266
0.000771265
0.000771263
0.000771262
0.000771261
0.00077126
0.000771259
0.000771258
0.000771256
0.000771254
0.00077125
0.000771245
0.000771239
0.000771231
0.000771222
0.000771211
0.000771199
0.000771186
0.000771172
0.000771157
0.000771142
0.000771126
0.00077111
0.000771092
0.000771085
0.000771017
0.000740105
0.00074018
0.000740193
0.00074019
0.000740183
0.000740174
0.000740164
0.000740155
0.000740145
0.000740135
0.000740124
0.000740114
0.000740103
0.000740092
0.00074008
0.000740069
0.000740057
0.000740045
0.000740033
0.00074002
0.000740008
0.000739995
0.000739983
0.000739971
0.000739959
0.000739948
0.000739939
0.000739932
0.000739926
0.000739923
0.000739921
0.000739921
0.000739921
0.000739922
0.000739923
0.000739925
0.000739927
0.000739929
0.000739931
0.000739933
0.000739935
0.000739937
0.000739939
0.000739941
0.000739942
0.000739944
0.000739945
0.000739947
0.000739948
0.00073995
0.000739951
0.000739952
0.000739954
0.000739955
0.000739956
0.000739957
0.000739958
0.000739959
0.00073996
0.00073996
0.000739961
0.000739961
0.000739962
0.000739962
0.000739962
0.000739962
0.000739962
0.000739962
0.000739962
0.000739962
0.000739962
0.000739962
0.000739961
0.000739961
0.00073996
0.00073996
0.000739959
0.000739958
0.000739957
0.000739957
0.000739956
0.000739955
0.000739954
0.000739953
0.000739952
0.000739951
0.00073995
0.000739949
0.000739948
0.000739947
0.000739946
0.000739945
0.000739944
0.000739943
0.000739943
0.000739942
0.000739941
0.00073994
0.000739939
0.000739938
0.000739938
0.000739937
0.000739936
0.000739934
0.000739932
0.000739929
0.000739925
0.00073992
0.000739914
0.000739907
0.000739898
0.000739889
0.000739879
0.000739868
0.000739856
0.000739844
0.000739832
0.000739817
0.000739813
0.000739752
0.000710035
0.000710103
0.000710115
0.000710114
0.000710108
0.000710101
0.000710094
0.000710086
0.000710078
0.00071007
0.000710061
0.000710052
0.000710043
0.000710033
0.000710024
0.000710014
0.000710004
0.000709993
0.000709982
0.000709971
0.000709961
0.00070995
0.000709939
0.000709928
0.000709917
0.000709907
0.000709897
0.000709889
0.000709882
0.000709877
0.000709873
0.000709869
0.000709867
0.000709866
0.000709865
0.000709864
0.000709864
0.000709864
0.000709865
0.000709866
0.000709866
0.000709867
0.000709868
0.000709869
0.000709869
0.00070987
0.000709871
0.000709872
0.000709873
0.000709874
0.000709875
0.000709876
0.000709877
0.000709877
0.000709878
0.000709879
0.00070988
0.00070988
0.000709881
0.000709882
0.000709882
0.000709882
0.000709883
0.000709883
0.000709883
0.000709884
0.000709884
0.000709884
0.000709884
0.000709884
0.000709884
0.000709883
0.000709883
0.000709883
0.000709882
0.000709882
0.000709882
0.000709881
0.00070988
0.00070988
0.000709879
0.000709879
0.000709878
0.000709877
0.000709877
0.000709876
0.000709875
0.000709874
0.000709874
0.000709873
0.000709872
0.000709872
0.000709871
0.00070987
0.000709869
0.000709869
0.000709868
0.000709868
0.000709867
0.000709866
0.000709866
0.000709865
0.000709864
0.000709863
0.000709862
0.00070986
0.000709858
0.000709854
0.00070985
0.000709845
0.00070984
0.000709833
0.000709826
0.000709818
0.000709809
0.0007098
0.000709791
0.000709779
0.000709776
0.000709723
0.000681154
0.000681214
0.000681226
0.000681226
0.000681222
0.000681217
0.000681211
0.000681205
0.000681198
0.000681192
0.000681185
0.000681177
0.000681169
0.000681162
0.000681153
0.000681145
0.000681136
0.000681127
0.000681118
0.000681108
0.000681099
0.000681089
0.00068108
0.00068107
0.000681061
0.000681051
0.000681043
0.000681034
0.000681027
0.00068102
0.000681015
0.00068101
0.000681006
0.000681003
0.000681
0.000680999
0.000680997
0.000680996
0.000680995
0.000680995
0.000680994
0.000680994
0.000680994
0.000680994
0.000680994
0.000680994
0.000680994
0.000680995
0.000680995
0.000680996
0.000680996
0.000680997
0.000680997
0.000680998
0.000680999
0.000680999
0.000681
0.000681
0.000681001
0.000681001
0.000681001
0.000681002
0.000681002
0.000681002
0.000681003
0.000681003
0.000681003
0.000681003
0.000681003
0.000681003
0.000681003
0.000681003
0.000681003
0.000681003
0.000681002
0.000681002
0.000681002
0.000681001
0.000681001
0.000681001
0.000681
0.000681
0.000680999
0.000680999
0.000680998
0.000680998
0.000680997
0.000680997
0.000680996
0.000680996
0.000680995
0.000680995
0.000680994
0.000680994
0.000680993
0.000680993
0.000680992
0.000680992
0.000680991
0.000680991
0.000680991
0.00068099
0.00068099
0.000680989
0.000680988
0.000680987
0.000680985
0.000680983
0.00068098
0.000680977
0.000680973
0.000680968
0.000680963
0.000680957
0.000680951
0.000680944
0.000680937
0.000680927
0.000680926
0.000680879
0.00065341
0.000653464
0.000653476
0.000653476
0.000653474
0.00065347
0.000653466
0.000653461
0.000653456
0.00065345
0.000653445
0.000653439
0.000653432
0.000653426
0.000653419
0.000653412
0.000653404
0.000653396
0.000653388
0.00065338
0.000653372
0.000653364
0.000653356
0.000653347
0.000653339
0.000653331
0.000653323
0.000653315
0.000653307
0.000653301
0.000653295
0.000653289
0.000653284
0.00065328
0.000653277
0.000653274
0.000653272
0.000653269
0.000653268
0.000653266
0.000653265
0.000653264
0.000653263
0.000653263
0.000653262
0.000653262
0.000653262
0.000653262
0.000653262
0.000653262
0.000653262
0.000653262
0.000653262
0.000653263
0.000653263
0.000653264
0.000653264
0.000653264
0.000653265
0.000653265
0.000653265
0.000653265
0.000653266
0.000653266
0.000653266
0.000653266
0.000653267
0.000653267
0.000653267
0.000653267
0.000653267
0.000653267
0.000653267
0.000653267
0.000653266
0.000653266
0.000653266
0.000653266
0.000653266
0.000653265
0.000653265
0.000653265
0.000653264
0.000653264
0.000653264
0.000653264
0.000653263
0.000653263
0.000653262
0.000653262
0.000653262
0.000653261
0.000653261
0.000653261
0.000653261
0.00065326
0.00065326
0.00065326
0.000653259
0.000653259
0.000653259
0.000653258
0.000653258
0.000653258
0.000653257
0.000653256
0.000653255
0.000653253
0.000653252
0.000653249
0.000653247
0.000653243
0.00065324
0.000653235
0.00065323
0.000653225
0.00065322
0.000653212
0.000653212
0.00065317
0.000626755
0.000626802
0.000626813
0.000626814
0.000626813
0.00062681
0.000626807
0.000626803
0.000626799
0.000626795
0.00062679
0.000626786
0.00062678
0.000626775
0.000626769
0.000626763
0.000626757
0.00062675
0.000626743
0.000626736
0.000626729
0.000626722
0.000626715
0.000626708
0.000626701
0.000626694
0.000626686
0.000626679
0.000626673
0.000626666
0.00062666
0.000626654
0.000626649
0.000626645
0.000626641
0.000626637
0.000626634
0.000626632
0.000626629
0.000626627
0.000626626
0.000626624
0.000626623
0.000626622
0.000626621
0.00062662
0.00062662
0.000626619
0.000626619
0.000626619
0.000626619
0.000626619
0.000626619
0.000626619
0.000626619
0.000626619
0.000626619
0.00062662
0.00062662
0.00062662
0.00062662
0.000626621
0.000626621
0.000626621
0.000626621
0.000626621
0.000626622
0.000626622
0.000626622
0.000626622
0.000626622
0.000626622
0.000626622
0.000626622
0.000626622
0.000626622
0.000626622
0.000626621
0.000626621
0.000626621
0.000626621
0.000626621
0.000626621
0.000626621
0.000626621
0.00062662
0.00062662
0.00062662
0.00062662
0.00062662
0.000626619
0.000626619
0.000626619
0.000626619
0.000626619
0.000626619
0.000626618
0.000626618
0.000626618
0.000626618
0.000626618
0.000626617
0.000626617
0.000626617
0.000626616
0.000626616
0.000626615
0.000626614
0.000626613
0.000626611
0.000626609
0.000626607
0.000626604
0.000626601
0.000626597
0.000626593
0.000626589
0.000626583
0.000626583
0.000626547
0.000601136
0.000601178
0.000601187
0.000601189
0.000601189
0.000601187
0.000601185
0.000601182
0.000601179
0.000601175
0.000601172
0.000601168
0.000601164
0.000601159
0.000601154
0.000601149
0.000601144
0.000601138
0.000601133
0.000601127
0.000601121
0.000601115
0.000601109
0.000601102
0.000601096
0.00060109
0.000601084
0.000601077
0.000601071
0.000601065
0.00060106
0.000601054
0.000601049
0.000601045
0.00060104
0.000601037
0.000601033
0.00060103
0.000601028
0.000601026
0.000601024
0.000601022
0.00060102
0.000601019
0.000601018
0.000601017
0.000601016
0.000601015
0.000601015
0.000601014
0.000601014
0.000601014
0.000601014
0.000601014
0.000601014
0.000601014
0.000601014
0.000601014
0.000601014
0.000601014
0.000601015
0.000601015
0.000601015
0.000601015
0.000601015
0.000601015
0.000601016
0.000601016
0.000601016
0.000601016
0.000601016
0.000601016
0.000601016
0.000601016
0.000601016
0.000601016
0.000601016
0.000601016
0.000601016
0.000601016
0.000601016
0.000601016
0.000601016
0.000601016
0.000601016
0.000601016
0.000601016
0.000601016
0.000601016
0.000601016
0.000601016
0.000601016
0.000601016
0.000601016
0.000601016
0.000601016
0.000601016
0.000601015
0.000601015
0.000601015
0.000601015
0.000601015
0.000601015
0.000601015
0.000601014
0.000601014
0.000601013
0.000601012
0.000601011
0.00060101
0.000601009
0.000601007
0.000601005
0.000601002
0.000601
0.000600996
0.000600993
0.000600988
0.000600989
0.000600957
0.000576505
0.00057654
0.000576549
0.000576551
0.000576551
0.00057655
0.000576549
0.000576547
0.000576544
0.000576542
0.000576539
0.000576536
0.000576532
0.000576529
0.000576525
0.00057652
0.000576516
0.000576511
0.000576506
0.000576501
0.000576496
0.000576491
0.000576486
0.000576481
0.000576476
0.00057647
0.000576465
0.000576459
0.000576454
0.000576448
0.000576443
0.000576438
0.000576433
0.000576429
0.000576425
0.000576421
0.000576418
0.000576415
0.000576412
0.00057641
0.000576408
0.000576406
0.000576404
0.000576402
0.000576401
0.0005764
0.000576399
0.000576398
0.000576398
0.000576397
0.000576397
0.000576397
0.000576396
0.000576396
0.000576396
0.000576396
0.000576396
0.000576396
0.000576396
0.000576397
0.000576397
0.000576397
0.000576397
0.000576397
0.000576397
0.000576398
0.000576398
0.000576398
0.000576398
0.000576398
0.000576398
0.000576399
0.000576399
0.000576399
0.000576399
0.000576399
0.000576399
0.000576399
0.000576399
0.000576399
0.000576399
0.000576399
0.0005764
0.0005764
0.0005764
0.0005764
0.0005764
0.0005764
0.0005764
0.0005764
0.0005764
0.0005764
0.0005764
0.0005764
0.0005764
0.0005764
0.0005764
0.0005764
0.0005764
0.0005764
0.0005764
0.0005764
0.0005764
0.0005764
0.0005764
0.000576399
0.000576399
0.000576398
0.000576397
0.000576396
0.000576395
0.000576394
0.000576392
0.00057639
0.000576388
0.000576386
0.000576383
0.000576379
0.00057638
0.000576352
0.000552811
0.000552841
0.000552849
0.000552851
0.000552852
0.000552851
0.00055285
0.000552849
0.000552847
0.000552845
0.000552843
0.00055284
0.000552838
0.000552835
0.000552831
0.000552828
0.000552824
0.00055282
0.000552816
0.000552812
0.000552808
0.000552803
0.000552799
0.000552795
0.00055279
0.000552786
0.000552781
0.000552776
0.000552771
0.000552767
0.000552762
0.000552757
0.000552753
0.000552749
0.000552745
0.000552742
0.000552738
0.000552735
0.000552733
0.00055273
0.000552728
0.000552726
0.000552725
0.000552723
0.000552722
0.000552721
0.00055272
0.000552719
0.000552718
0.000552718
0.000552717
0.000552717
0.000552717
0.000552717
0.000552717
0.000552717
0.000552717
0.000552717
0.000552717
0.000552717
0.000552717
0.000552717
0.000552717
0.000552717
0.000552718
0.000552718
0.000552718
0.000552718
0.000552719
0.000552719
0.000552719
0.000552719
0.000552719
0.000552719
0.00055272
0.00055272
0.00055272
0.00055272
0.00055272
0.00055272
0.000552721
0.000552721
0.000552721
0.000552721
0.000552721
0.000552721
0.000552722
0.000552722
0.000552722
0.000552722
0.000552722
0.000552722
0.000552722
0.000552723
0.000552723
0.000552723
0.000552723
0.000552723
0.000552723
0.000552723
0.000552723
0.000552723
0.000552723
0.000552723
0.000552723
0.000552722
0.000552722
0.000552721
0.000552721
0.00055272
0.000552719
0.000552718
0.000552717
0.000552715
0.000552713
0.000552711
0.000552709
0.000552706
0.000552707
0.000552683
0.000530007
0.000530033
0.00053004
0.000530042
0.000530043
0.000530042
0.000530042
0.000530041
0.00053004
0.000530038
0.000530036
0.000530034
0.000530032
0.00053003
0.000530027
0.000530024
0.000530021
0.000530018
0.000530015
0.000530011
0.000530007
0.000530004
0.00053
0.000529996
0.000529993
0.000529989
0.000529985
0.000529981
0.000529977
0.000529972
0.000529968
0.000529964
0.00052996
0.000529956
0.000529953
0.00052995
0.000529947
0.000529944
0.000529942
0.000529939
0.000529937
0.000529936
0.000529934
0.000529933
0.000529931
0.00052993
0.000529929
0.000529929
0.000529928
0.000529927
0.000529927
0.000529927
0.000529927
0.000529926
0.000529926
0.000529926
0.000529926
0.000529926
0.000529926
0.000529927
0.000529927
0.000529927
0.000529927
0.000529927
0.000529928
0.000529928
0.000529928
0.000529928
0.000529929
0.000529929
0.000529929
0.000529929
0.00052993
0.00052993
0.00052993
0.00052993
0.000529931
0.000529931
0.000529931
0.000529931
0.000529932
0.000529932
0.000529932
0.000529932
0.000529933
0.000529933
0.000529933
0.000529933
0.000529934
0.000529934
0.000529934
0.000529934
0.000529934
0.000529935
0.000529935
0.000529935
0.000529935
0.000529935
0.000529935
0.000529935
0.000529935
0.000529935
0.000529935
0.000529935
0.000529935
0.000529935
0.000529934
0.000529934
0.000529934
0.000529933
0.000529932
0.000529931
0.00052993
0.000529929
0.000529927
0.000529925
0.000529924
0.000529921
0.000529922
0.000529901
0.000508047
0.000508068
0.000508074
0.000508076
0.000508077
0.000508077
0.000508077
0.000508076
0.000508076
0.000508074
0.000508073
0.000508071
0.00050807
0.000508068
0.000508066
0.000508063
0.000508061
0.000508058
0.000508055
0.000508052
0.000508049
0.000508046
0.000508043
0.00050804
0.000508037
0.000508034
0.00050803
0.000508027
0.000508023
0.000508019
0.000508016
0.000508012
0.000508009
0.000508005
0.000508002
0.000507999
0.000507997
0.000507994
0.000507992
0.00050799
0.000507988
0.000507987
0.000507985
0.000507984
0.000507983
0.000507982
0.000507981
0.00050798
0.00050798
0.000507979
0.000507979
0.000507979
0.000507979
0.000507979
0.000507979
0.000507979
0.000507979
0.000507979
0.000507979
0.000507979
0.000507979
0.00050798
0.00050798
0.00050798
0.00050798
0.000507981
0.000507981
0.000507981
0.000507981
0.000507982
0.000507982
0.000507982
0.000507983
0.000507983
0.000507983
0.000507984
0.000507984
0.000507984
0.000507985
0.000507985
0.000507985
0.000507986
0.000507986
0.000507986
0.000507987
0.000507987
0.000507987
0.000507987
0.000507988
0.000507988
0.000507988
0.000507989
0.000507989
0.000507989
0.000507989
0.00050799
0.00050799
0.00050799
0.00050799
0.00050799
0.00050799
0.00050799
0.00050799
0.00050799
0.00050799
0.00050799
0.00050799
0.000507989
0.000507989
0.000507988
0.000507988
0.000507987
0.000507986
0.000507985
0.000507983
0.000507982
0.00050798
0.000507977
0.000507978
0.000507961
0.000486886
0.000486903
0.000486908
0.00048691
0.000486911
0.000486911
0.000486911
0.00048691
0.00048691
0.000486909
0.000486908
0.000486907
0.000486905
0.000486904
0.000486902
0.0004869
0.000486898
0.000486896
0.000486893
0.000486891
0.000486889
0.000486886
0.000486883
0.000486881
0.000486878
0.000486875
0.000486873
0.00048687