/*--------------------------------*- C++ -*----------------------------------*\
  =========                 |
  \\      /  F ield         | OpenFOAM: The Open Source CFD Toolbox
   \\    /   O peration     | Website:  https://openfoam.org
    \\  /    A nd           | Version:  7
     \\/     M anipulation  |
\*---------------------------------------------------------------------------*/
FoamFile
{
    version     2.0;
    format      ascii;
    class       surfaceScalarField;
    location    "3000";
    object      phi;
}
// * * * * * * * * * * * * * * * * * * * * * * * * * * * * * * * * * * * * * //

dimensions      [0 3 -1 0 0 0 0];

internalField   nonuniform List<scalar> 
7768
(
0.000357663
-5.26348e-10
0.000357664
-7.52269e-10
0.000357664
-6.55437e-10
0.000357664
-4.8094e-10
0.000357664
-3.15181e-10
0.000357664
-1.68837e-10
0.000357664
-4.16956e-11
0.000357665
6.94484e-11
0.000357665
1.67292e-10
0.000357665
2.53676e-10
0.000357665
3.3001e-10
0.000357665
3.97334e-10
0.000357665
4.56514e-10
0.000357665
5.08237e-10
0.000357665
5.53574e-10
0.000357666
5.93155e-10
0.000357666
6.30402e-10
0.000357666
6.64388e-10
0.000357666
7.16678e-10
0.000357666
7.79501e-10
9.56699e-10
0.000357659
-7.93583e-10
0.00035766
-8.73015e-10
0.00035766
-9.02036e-10
0.00035766
-9.05493e-10
0.000357661
-8.96624e-10
0.000357661
-8.75832e-10
0.000357661
-8.4254e-10
0.000357661
-7.94412e-10
0.000357662
-7.29275e-10
0.000357662
-6.40782e-10
0.000357662
-5.26259e-10
0.000357662
-3.68424e-10
0.000357663
-1.66942e-10
0.000357663
1.12647e-10
0.000357663
5.94302e-10
3.06006e-10
0.000348504
-7.17981e-10
0.000348504
-9.28807e-10
0.000348504
-8.2191e-10
0.000348505
-6.44448e-10
0.000348505
-4.77293e-10
0.000348505
-3.28849e-10
0.000348505
-1.98527e-10
0.000348505
-8.32839e-11
0.000348505
1.92707e-11
0.000348505
1.10727e-10
0.000348506
1.92304e-10
0.000348506
2.64898e-10
0.000348506
3.29278e-10
0.000348506
3.86068e-10
0.000348506
4.36359e-10
0.000348506
4.80761e-10
0.000348506
5.23148e-10
0.000348506
5.62093e-10
0.000348507
6.23879e-10
0.000348507
6.95869e-10
0.000348507
9.014e-10
0.000348507
1.14732e-09
1.33442e-09
0.000348499
-8.77778e-10
0.000348499
-9.20286e-10
0.0003485
-8.96294e-10
0.0003485
-1.01451e-09
0.0003485
-1.19425e-09
0.000348501
-1.22755e-09
0.000348501
-1.21667e-09
0.000348501
-1.19324e-09
0.000348502
-1.16271e-09
0.000348502
-1.12392e-09
0.000348502
-1.07567e-09
0.000348502
-1.01518e-09
0.000348502
-9.40109e-10
0.000348503
-8.43881e-10
0.000348503
-7.24113e-10
0.000348503
-5.63212e-10
0.000348503
-3.61796e-10
0.000348503
-8.69274e-11
0.000348504
3.91248e-10
1.04963e-10
0.000339543
-8.9097e-10
0.000339543
-1.09781e-09
0.000339543
-9.83759e-10
0.000339544
-8.01848e-10
0.000339544
-6.31868e-10
0.000339544
-4.80815e-10
0.000339544
-3.47345e-10
0.000339544
-2.28241e-10
0.000339544
-1.21268e-10
0.000339545
-2.50337e-11
0.000339545
6.15043e-11
0.000339545
1.39098e-10
0.000339545
2.0842e-10
0.000339545
2.70029e-10
0.000339545
3.25008e-10
0.000339545
3.73969e-10
0.000339545
4.20949e-10
0.000339545
4.64613e-10
0.000339546
5.3007e-10
0.000339546
6.12077e-10
0.000339546
7.51179e-10
0.000339546
9.77934e-10
0.000339546
1.29527e-09
0.000339546
1.53838e-09
0.000339546
1.55411e-09
0.000339545
1.47813e-09
0.000339545
1.39945e-09
0.000339545
1.33283e-09
0.000339545
1.27705e-09
0.000339544
1.22875e-09
0.000339544
1.18572e-09
0.000339544
1.1467e-09
0.000339544
1.1109e-09
0.000339544
1.0778e-09
0.000339544
1.04706e-09
0.000339543
1.01843e-09
0.000339543
9.91694e-10
0.000339543
9.6669e-10
0.000339543
9.43244e-10
0.000339543
9.21181e-10
0.000339543
9.00302e-10
0.000339543
8.80384e-10
0.000339543
8.61171e-10
0.000339543
8.42377e-10
0.000339542
8.23688e-10
0.000339542
8.04777e-10
0.000339542
7.85315e-10
0.000339542
7.6499e-10
0.000339542
7.43531e-10
0.000339542
7.20713e-10
0.000339542
6.9637e-10
0.000339542
6.70399e-10
0.000339542
6.42751e-10
0.000339542
6.13432e-10
0.000339542
5.82491e-10
0.000339542
5.50011e-10
0.000339541
5.16101e-10
0.000339541
4.80886e-10
0.000339541
4.44498e-10
0.000339541
4.07072e-10
0.000339541
3.68739e-10
0.000339541
3.29621e-10
0.000339541
2.8983e-10
0.000339541
2.49465e-10
0.000339541
2.08618e-10
0.000339541
1.67364e-10
0.000339541
1.25775e-10
0.000339541
8.39103e-11
0.000339541
4.18266e-11
0.000339541
-4.23978e-13
0.000339541
-4.27912e-11
0.000339541
-8.52247e-11
0.000339541
-1.27673e-10
0.00033954
-1.70083e-10
0.00033954
-2.12398e-10
0.00033954
-2.54556e-10
0.00033954
-2.96492e-10
0.00033954
-3.38134e-10
0.00033954
-3.79406e-10
0.00033954
-4.2022e-10
0.00033954
-4.60482e-10
0.00033954
-5.00086e-10
0.00033954
-5.38911e-10
0.00033954
-5.76823e-10
0.00033954
-6.13669e-10
0.00033954
-6.49276e-10
0.00033954
-6.83447e-10
0.00033954
-7.15958e-10
0.00033954
-7.46556e-10
0.00033954
-7.74937e-10
0.00033954
-8.00769e-10
0.00033954
-8.23603e-10
0.00033954
-8.42981e-10
0.000339539
-8.58057e-10
0.000339539
-8.68232e-10
0.000339539
-8.71174e-10
0.000339539
-8.66191e-10
0.000339539
-8.48304e-10
0.000339539
-8.01679e-10
0.000339539
-9.10278e-10
0.00033954
-1.07977e-09
0.00033954
-1.10297e-09
0.00033954
-1.06811e-09
0.00033954
-1.17998e-09
0.00033954
-1.3691e-09
0.00033954
-1.42055e-09
0.000339541
-1.41555e-09
0.000339541
-1.39135e-09
0.000339541
-1.35651e-09
0.000339541
-1.31201e-09
0.000339541
-1.25771e-09
0.000339542
-1.19153e-09
0.000339542
-1.11171e-09
0.000339542
-1.01196e-09
0.000339542
-8.90503e-10
0.000339542
-7.29811e-10
0.000339542
-5.31578e-10
0.000339543
-2.64857e-10
0.000339543
2.04824e-10
-7.61287e-11
0.000330777
-1.03651e-09
0.000330777
-1.24766e-09
0.000330777
-1.13326e-09
0.000330777
-9.49038e-10
0.000330777
-7.76194e-10
0.000330777
-6.22234e-10
0.000330777
-4.85572e-10
0.000330778
-3.6279e-10
0.000330778
-2.51697e-10
0.000330778
-1.5103e-10
0.000330778
-5.98923e-11
0.000330778
2.23421e-11
0.000330778
9.62509e-11
0.000330778
1.62333e-10
0.000330778
2.21643e-10
0.000330778
2.74812e-10
0.000330779
3.25772e-10
0.000330779
3.73785e-10
0.000330779
4.39137e-10
0.000330779
5.28578e-10
0.000330779
6.0747e-10
0.000330779
7.66811e-10
0.000330779
1.04655e-09
0.00033078
1.34194e-09
0.00033078
1.52854e-09
0.00033078
1.56351e-09
0.000330779
1.52732e-09
0.000330779
1.47185e-09
0.000330779
1.41638e-09
0.000330779
1.36504e-09
0.000330779
1.31798e-09
0.000330779
1.27469e-09
0.000330779
1.23465e-09
0.000330779
1.19747e-09
0.000330778
1.16284e-09
0.000330778
1.13051e-09
0.000330778
1.10026e-09
0.000330778
1.0719e-09
0.000330778
1.04525e-09
0.000330778
1.02011e-09
0.000330778
9.96276e-10
0.000330778
9.73506e-10
0.000330778
9.51545e-10
0.000330778
9.30103e-10
0.000330777
9.08871e-10
0.000330777
8.87523e-10
0.000330777
8.65737e-10
0.000330777
8.43206e-10
0.000330777
8.1966e-10
0.000330777
7.94879e-10
0.000330777
7.68695e-10
0.000330777
7.41003e-10
0.000330777
7.11751e-10
0.000330777
6.80941e-10
0.000330777
6.48614e-10
0.000330777
6.14847e-10
0.000330777
5.79743e-10
0.000330776
5.43419e-10
0.000330776
5.06e-10
0.000330776
4.67614e-10
0.000330776
4.28384e-10
0.000330776
3.88426e-10
0.000330776
3.47848e-10
0.000330776
3.06747e-10
0.000330776
2.65207e-10
0.000330776
2.23305e-10
0.000330776
1.81109e-10
0.000330776
1.38679e-10
0.000330776
9.60725e-11
0.000330776
5.33402e-11
0.000330776
1.05334e-11
0.000330776
-3.22976e-11
0.000330776
-7.51012e-11
0.000330776
-1.17824e-10
0.000330776
-1.60409e-10
0.000330775
-2.02796e-10
0.000330775
-2.44921e-10
0.000330775
-2.86713e-10
0.000330775
-3.28095e-10
0.000330775
-3.68983e-10
0.000330775
-4.09283e-10
0.000330775
-4.48891e-10
0.000330775
-4.87688e-10
0.000330775
-5.25542e-10
0.000330775
-5.62304e-10
0.000330775
-5.97803e-10
0.000330775
-6.31848e-10
0.000330775
-6.64221e-10
0.000330775
-6.94677e-10
0.000330775
-7.22928e-10
0.000330775
-7.48654e-10
0.000330775
-7.71439e-10
0.000330775
-7.90855e-10
0.000330775
-8.06162e-10
0.000330775
-8.16791e-10
0.000330774
-8.21126e-10
0.000330774
-8.1796e-10
0.000330774
-8.09215e-10
0.000330774
-7.76957e-10
0.000330774
-8.95706e-10
0.000330774
-1.09028e-09
0.000330774
-1.15026e-09
0.000330774
-1.1442e-09
0.000330775
-1.24679e-09
0.000330775
-1.41767e-09
0.000330775
-1.48395e-09
0.000330775
-1.49905e-09
0.000330775
-1.49011e-09
0.000330775
-1.46512e-09
0.000330775
-1.42661e-09
0.000330775
-1.37573e-09
0.000330775
-1.3115e-09
0.000330775
-1.23314e-09
0.000330776
-1.13504e-09
0.000330776
-1.01631e-09
0.000330776
-8.59826e-10
0.000330776
-6.68487e-10
0.000330776
-4.13579e-10
0.000330776
4.26093e-11
-2.31196e-10
0.0003222
-1.1514e-09
0.0003222
-1.37118e-09
0.0003222
-1.26314e-09
0.000322201
-1.08093e-09
0.000322201
-9.07011e-10
0.000322201
-7.50744e-10
0.000322201
-6.1118e-10
0.000322201
-4.85012e-10
0.000322201
-3.70151e-10
0.000322201
-2.65446e-10
0.000322201
-1.70121e-10
0.000322201
-8.36644e-11
0.000322202
-5.58262e-12
0.000322202
6.45683e-11
0.000322202
1.27796e-10
0.000322202
1.84762e-10
0.000322202
2.391e-10
0.000322202
2.90921e-10
0.000322202
3.54509e-10
0.000322202
4.46948e-10
0.000322202
4.89252e-10
0.000322203
5.81528e-10
0.000322203
7.76346e-10
0.000322203
1.03287e-09
0.000322203
1.30783e-09
0.000322203
1.46083e-09
0.000322203
1.50736e-09
0.000322203
1.49812e-09
0.000322203
1.46687e-09
0.000322203
1.42862e-09
0.000322203
1.38899e-09
0.000322203
1.35001e-09
0.000322203
1.31243e-09
0.000322203
1.27652e-09
0.000322203
1.24238e-09
0.000322203
1.20998e-09
0.000322203
1.17929e-09
0.000322203
1.15021e-09
0.000322203
1.12263e-09
0.000322203
1.0964e-09
0.000322202
1.07136e-09
0.000322202
1.0473e-09
0.000322202
1.024e-09
0.000322202
1.00118e-09
0.000322202
9.78551e-10
0.000322202
9.55817e-10
0.000322202
9.32668e-10
0.000322202
9.08813e-10
0.000322202
8.83994e-10
0.000322202
8.57997e-10
0.000322202
8.30663e-10
0.000322202
8.0189e-10
0.000322202
7.71629e-10
0.000322202
7.3988e-10
0.000322202
7.06685e-10
0.000322201
6.72117e-10
0.000322201
6.36277e-10
0.000322201
5.99275e-10
0.000322201
5.61234e-10
0.000322201
5.22275e-10
0.000322201
4.82518e-10
0.000322201
4.42074e-10
0.000322201
4.01047e-10
0.000322201
3.59531e-10
0.000322201
3.17609e-10
0.000322201
2.75357e-10
0.000322201
2.32841e-10
0.000322201
1.90124e-10
0.000322201
1.4726e-10
0.000322201
1.04303e-10
0.000322201
6.1304e-11
0.000322201
1.83149e-11
0.000322201
-2.46126e-11
0.000322201
-6.74249e-11
0.0003222
-1.10066e-10
0.0003222
-1.52475e-10
0.0003222
-1.94588e-10
0.0003222
-2.36337e-10
0.0003222
-2.77646e-10
0.0003222
-3.18431e-10
0.0003222
-3.58601e-10
0.0003222
-3.98051e-10
0.0003222
-4.36668e-10
0.0003222
-4.74319e-10
0.0003222
-5.10859e-10
0.0003222
-5.46121e-10
0.0003222
-5.7992e-10
0.0003222
-6.12044e-10
0.0003222
-6.42256e-10
0.0003222
-6.70282e-10
0.0003222
-6.9582e-10
0.0003222
-7.18482e-10
0.0003222
-7.37875e-10
0.000322199
-7.53366e-10
0.000322199
-7.64426e-10
0.000322199
-7.70078e-10
0.000322199
-7.68879e-10
0.000322199
-7.66742e-10
0.000322199
-7.48044e-10
0.000322199
-8.51767e-10
0.000322199
-1.0288e-09
0.000322199
-1.10972e-09
0.000322199
-1.1369e-09
0.000322199
-1.23964e-09
0.000322199
-1.39051e-09
0.000322199
-1.46117e-09
0.000322199
-1.4926e-09
0.000322199
-1.50187e-09
0.000322199
-1.49304e-09
0.000322199
-1.46779e-09
0.000322199
-1.42739e-09
0.000322199
-1.37153e-09
0.000322199
-1.30025e-09
0.000322199
-1.20874e-09
0.000322199
-1.09709e-09
0.0003222
-9.48848e-10
0.0003222
-7.68151e-10
0.0003222
-5.2866e-10
0.0003222
-9.07715e-11
-3.57703e-10
0.00031381
-1.23578e-09
0.00031381
-1.46569e-09
0.00031381
-1.36892e-09
0.00031381
-1.19338e-09
0.00031381
-1.02129e-09
0.00031381
-8.64257e-10
0.000313811
-7.2261e-10
0.000313811
-5.93609e-10
0.000313811
-4.75457e-10
0.000313811
-3.67174e-10
0.000313811
-2.68121e-10
0.000313811
-1.77896e-10
0.000313811
-9.60872e-11
0.000313811
-2.2303e-11
0.000313811
4.4401e-11
0.000313811
1.04727e-10
0.000313811
1.61885e-10
0.000313812
2.16869e-10
0.000313812
2.78305e-10
0.000313812
3.69659e-10
0.000313812
3.94069e-10
0.000313812
4.3688e-10
0.000313812
5.49689e-10
0.000313812
7.30461e-10
0.000313813
1.01135e-09
0.000313813
1.23619e-09
0.000313813
1.36305e-09
0.000313813
1.41558e-09
0.000313813
1.42579e-09
0.000313813
1.41475e-09
0.000313813
1.39347e-09
0.000313813
1.36736e-09
0.000313813
1.33908e-09
0.000313813
1.31003e-09
0.000313813
1.28101e-09
0.000313813
1.25248e-09
0.000313813
1.22469e-09
0.000313813
1.19778e-09
0.000313813
1.17179e-09
0.000313813
1.1467e-09
0.000313813
1.12243e-09
0.000313813
1.09885e-09
0.000313813
1.07578e-09
0.000313813
1.05302e-09
0.000313813
1.03031e-09
0.000313813
1.00738e-09
0.000313813
9.83964e-10
0.000313812
9.59787e-10
0.000313812
9.34615e-10
0.000313812
9.08252e-10
0.000313812
8.80553e-10
0.000313812
8.51426e-10
0.000313812
8.20829e-10
0.000313812
7.88769e-10
0.000313812
7.55292e-10
0.000313812
7.20472e-10
0.000313812
6.84409e-10
0.000313812
6.47216e-10
0.000313812
6.0901e-10
0.000313812
5.69913e-10
0.000313812
5.3004e-10
0.000313812
4.89502e-10
0.000313812
4.484e-10
0.000313812
4.06826e-10
0.000313812
3.64864e-10
0.000313812
3.22589e-10
0.000313812
2.80069e-10
0.000313812
2.37366e-10
0.000313811
1.94536e-10
0.000313811
1.51635e-10
0.000313811
1.08715e-10
0.000313811
6.58279e-11
0.000313811
2.30267e-11
0.000313811
-1.96345e-11
0.000313811
-6.20993e-11
0.000313811
-1.04308e-10
0.000313811
-1.46197e-10
0.000313811
-1.87698e-10
0.000313811
-2.28737e-10
0.000313811
-2.69231e-10
0.000313811
-3.09089e-10
0.000313811
-3.48211e-10
0.000313811
-3.86483e-10
0.000313811
-4.23776e-10
0.000313811
-4.59948e-10
0.000313811
-4.94835e-10
0.000313811
-5.28258e-10
0.000313811
-5.60011e-10
0.00031381
-5.89869e-10
0.00031381
-6.17568e-10
0.00031381
-6.42824e-10
0.00031381
-6.65282e-10
0.00031381
-6.84581e-10
0.00031381
-7.00196e-10
0.00031381
-7.11641e-10
0.00031381
-7.18481e-10
0.00031381
-7.19259e-10
0.00031381
-7.21846e-10
0.00031381
-7.14337e-10
0.00031381
-8.01679e-10
0.00031381
-9.48755e-10
0.00031381
-1.02999e-09
0.00031381
-1.07694e-09
0.00031381
-1.18136e-09
0.00031381
-1.31667e-09
0.00031381
-1.38589e-09
0.000313809
-1.42584e-09
0.000313809
-1.44887e-09
0.000313809
-1.45558e-09
0.000313809
-1.44554e-09
0.000313809
-1.41895e-09
0.000313809
-1.37531e-09
0.000313809
-1.31505e-09
0.000313809
-1.23393e-09
0.000313809
-1.13292e-09
0.000313809
-9.96361e-10
0.00031381
-8.29598e-10
0.00031381
-6.08745e-10
0.00031381
-1.93487e-10
-4.55269e-10
0.000305602
-1.29176e-09
0.000305602
-1.53179e-09
0.000305602
-1.44924e-09
0.000305602
-1.28421e-09
0.000305602
-1.11708e-09
0.000305602
-9.61342e-10
0.000305602
-8.18889e-10
0.000305603
-6.87894e-10
0.000305603
-5.67083e-10
0.000305603
-4.55762e-10
0.000305603
-3.53481e-10
0.000305603
-2.59962e-10
0.000305603
-1.74884e-10
0.000305603
-9.79094e-11
0.000305603
-2.81696e-11
0.000305603
3.50741e-11
0.000305603
9.45589e-11
0.000305603
1.52046e-10
0.000305603
2.11504e-10
0.000305604
2.99046e-10
0.000305604
3.16471e-10
0.000305604
3.28416e-10
0.000305604
3.78882e-10
0.000305604
4.82586e-10
0.000305604
7.2076e-10
0.000305605
9.64136e-10
0.000305605
1.14311e-09
0.000305605
1.25134e-09
0.000305605
1.3075e-09
0.000305605
1.33113e-09
0.000305605
1.3356e-09
0.000305605
1.32886e-09
0.000305605
1.31546e-09
0.000305605
1.29805e-09
0.000305605
1.27828e-09
0.000305605
1.25718e-09
0.000305605
1.23542e-09
0.000305605
1.21343e-09
0.000305605
1.19147e-09
0.000305605
1.1697e-09
0.000305605
1.14816e-09
0.000305605
1.12683e-09
0.000305605
1.10562e-09
0.000305605
1.08438e-09
0.000305605
1.06293e-09
0.000305605
1.04104e-09
0.000305605
1.01848e-09
0.000305605
9.95015e-10
0.000305605
9.70449e-10
0.000305605
9.44605e-10
0.000305605
9.1736e-10
0.000305605
8.88639e-10
0.000305605
8.58414e-10
0.000305605
8.26703e-10
0.000305605
7.93558e-10
0.000305605
7.59063e-10
0.000305605
7.2332e-10
0.000305605
6.86443e-10
0.000305605
6.48554e-10
0.000305605
6.09772e-10
0.000305605
5.70215e-10
0.000305605
5.29991e-10
0.000305604
4.89204e-10
0.000305604
4.47945e-10
0.000305604
4.063e-10
0.000305604
3.64345e-10
0.000305604
3.22148e-10
0.000305604
2.79775e-10
0.000305604
2.37284e-10
0.000305604
1.9473e-10
0.000305604
1.52169e-10
0.000305604
1.09654e-10
0.000305604
6.72382e-11
0.000305604
2.49768e-11
0.000305604
-1.70734e-11
0.000305604
-5.88526e-11
0.000305604
-1.00297e-10
0.000305604
-1.4134e-10
0.000305604
-1.81907e-10
0.000305604
-2.21916e-10
0.000305604
-2.61279e-10
0.000305604
-2.99896e-10
0.000305604
-3.37655e-10
0.000305604
-3.74431e-10
0.000305603
-4.10082e-10
0.000305603
-4.44453e-10
0.000305603
-4.77366e-10
0.000305603
-5.08625e-10
0.000305603
-5.38012e-10
0.000305603
-5.65278e-10
0.000305603
-5.90157e-10
0.000305603
-6.12324e-10
0.000305603
-6.31452e-10
0.000305603
-6.47117e-10
0.000305603
-6.58888e-10
0.000305603
-6.66764e-10
0.000305603
-6.69409e-10
0.000305603
-6.75459e-10
0.000305603
-6.7636e-10
0.000305603
-7.5109e-10
0.000305603
-8.70076e-10
0.000305603
-9.4069e-10
0.000305602
-9.92796e-10
0.000305602
-1.09419e-09
0.000305602
-1.21646e-09
0.000305602
-1.28164e-09
0.000305602
-1.32377e-09
0.000305602
-1.3541e-09
0.000305602
-1.37192e-09
0.000305602
-1.375e-09
0.000305602
-1.36204e-09
0.000305602
-1.33168e-09
0.000305602
-1.28421e-09
0.000305602
-1.21564e-09
0.000305602
-1.12757e-09
0.000305602
-1.00518e-09
0.000305602
-8.54838e-10
0.000305602
-6.55193e-10
0.000305602
-2.66198e-10
-5.25217e-10
0.000297572
-1.32266e-09
0.000297573
-1.57215e-09
0.000297573
-1.50528e-09
0.000297573
-1.3534e-09
0.000297573
-1.19389e-09
0.000297573
-1.04156e-09
0.000297573
-8.99785e-10
0.000297573
-7.67824e-10
0.000297573
-6.45109e-10
0.000297573
-5.31359e-10
0.000297573
-4.26376e-10
0.000297573
-3.30043e-10
0.000297573
-2.42147e-10
0.000297573
-1.62409e-10
0.000297573
-9.00536e-11
0.000297574
-2.43113e-11
0.000297574
3.70746e-11
0.000297574
9.64562e-11
0.000297574
1.54282e-10
0.000297574
2.36642e-10
0.000297574
2.52384e-10
0.000297574
2.4758e-10
0.000297574
2.56781e-10
0.000297574
2.98168e-10
0.000297574
4.7604e-10
0.000297575
6.9956e-10
0.000297575
8.96949e-10
0.000297575
1.04179e-09
0.000297575
1.13681e-09
0.000297575
1.19457e-09
0.000297576
1.22702e-09
0.000297576
1.24281e-09
0.000297576
1.2476e-09
0.000297576
1.24503e-09
0.000297576
1.23747e-09
0.000297576
1.22653e-09
0.000297576
1.21328e-09
0.000297576
1.19848e-09
0.000297576
1.18264e-09
0.000297576
1.16608e-09
0.000297576
1.14902e-09
0.000297576
1.13154e-09
0.000297576
1.11366e-09
0.000297576
1.09531e-09
0.000297576
1.07636e-09
0.000297576
1.05667e-09
0.000297576
1.03604e-09
0.000297576
1.01429e-09
0.000297576
9.91256e-10
0.000297576
9.6679e-10
0.000297576
9.40796e-10
0.000297576
9.13224e-10
0.000297576
8.84063e-10
0.000297576
8.53348e-10
0.000297576
8.21144e-10
0.000297576
7.87542e-10
0.000297576
7.52654e-10
0.000297576
7.16599e-10
0.000297576
6.79502e-10
0.000297575
6.41486e-10
0.000297575
6.02671e-10
0.000297575
5.63169e-10
0.000297575
5.23084e-10
0.000297575
4.82511e-10
0.000297575
4.41537e-10
0.000297575
4.00242e-10
0.000297575
3.58697e-10
0.000297575
3.16968e-10
0.000297575
2.75117e-10
0.000297575
2.33202e-10
0.000297575
1.9128e-10
0.000297575
1.49405e-10
0.000297575
1.07632e-10
0.000297575
6.60176e-11
0.000297575
2.46191e-11
0.000297575
-1.65034e-11
0.000297575
-5.72863e-11
0.000297575
-9.76619e-11
0.000297575
-1.37557e-10
0.000297575
-1.76891e-10
0.000297575
-2.15575e-10
0.000297575
-2.53512e-10
0.000297575
-2.90592e-10
0.000297575
-3.26692e-10
0.000297574
-3.61674e-10
0.000297574
-3.95386e-10
0.000297574
-4.27657e-10
0.000297574
-4.58298e-10
0.000297574
-4.871e-10
0.000297574
-5.13828e-10
0.000297574
-5.38233e-10
0.000297574
-5.60022e-10
0.000297574
-5.78899e-10
0.000297574
-5.94538e-10
0.000297574
-6.0656e-10
0.000297574
-6.15315e-10
0.000297574
-6.19645e-10
0.000297574
-6.28305e-10
0.000297574
-6.35196e-10
0.000297574
-7.0084e-10
0.000297574
-7.97858e-10
0.000297574
-8.55286e-10
0.000297573
-9.03315e-10
0.000297573
-9.95977e-10
0.000297573
-1.10511e-09
0.000297573
-1.16469e-09
0.000297573
-1.20481e-09
0.000297573
-1.2368e-09
0.000297573
-1.2603e-09
0.000297573
-1.27235e-09
0.000297573
-1.2704e-09
0.000297573
-1.25209e-09
0.000297572
-1.21718e-09
0.000297572
-1.16166e-09
0.000297572
-1.08746e-09
0.000297572
-9.80574e-10
0.000297572
-8.48166e-10
0.000297572
-6.71496e-10
0.000297572
-3.11568e-10
-5.70285e-10
0.000289718
-1.33262e-09
0.000289718
-1.59063e-09
0.000289718
-1.53991e-09
0.000289718
-1.4027e-09
0.000289718
-1.2527e-09
0.000289718
-1.10556e-09
0.000289718
-9.65884e-10
0.000289718
-8.34018e-10
0.000289718
-7.10198e-10
0.000289718
-5.94647e-10
0.000289718
-4.8749e-10
0.000289718
-3.88808e-10
0.000289718
-2.98518e-10
0.000289719
-2.16414e-10
0.000289719
-1.41822e-10
0.000289719
-7.396e-11
0.000289719
-1.10262e-11
0.000289719
4.97351e-11
0.000289719
1.06272e-10
0.000289719
1.83072e-10
0.000289719
1.99281e-10
0.000289719
1.86871e-10
0.000289719
1.71724e-10
0.000289719
1.69342e-10
0.000289719
2.88562e-10
0.00028972
4.72598e-10
0.00028972
6.61483e-10
0.00028972
8.20861e-10
0.00028972
9.41037e-10
0.00028972
1.02601e-09
0.000289721
1.08371e-09
0.000289721
1.12154e-09
0.000289721
1.14517e-09
0.000289721
1.15863e-09
0.000289721
1.16475e-09
0.000289721
1.16552e-09
0.000289721
1.16238e-09
0.000289721
1.15633e-09
0.000289721
1.1481e-09
0.000289721
1.13821e-09
0.000289721
1.12699e-09
0.000289721
1.11465e-09
0.000289721
1.10132e-09
0.000289721
1.087e-09
0.000289721
1.07164e-09
0.000289721
1.05516e-09
0.000289721
1.03741e-09
0.000289721
1.01825e-09
0.000289721
9.97571e-10
0.000289721
9.75254e-10
0.000289721
9.51237e-10
0.000289721
9.25492e-10
0.000289721
8.98033e-10
0.000289721
8.68913e-10
0.000289721
8.38211e-10
0.000289721
8.06034e-10
0.000289721
7.725e-10
0.000289721
7.37739e-10
0.000289721
7.01881e-10
0.000289721
6.65055e-10
0.000289721
6.27386e-10
0.000289721
5.8899e-10
0.000289721
5.49974e-10
0.000289721
5.10438e-10
0.000289721
4.70473e-10
0.000289721
4.30162e-10
0.000289721
3.8958e-10
0.000289721
3.48796e-10
0.000289721
3.07875e-10
0.000289721
2.66877e-10
0.000289721
2.25861e-10
0.000289721
1.84883e-10
0.000289721
1.44e-10
0.000289721
1.03269e-10
0.000289721
6.2749e-11
0.00028972
2.25008e-11
0.00028972
-1.74119e-11
0.00028972
-5.69207e-11
0.00028972
-9.59526e-11
0.00028972
-1.34428e-10
0.00028972
-1.72259e-10
0.00028972
-2.09349e-10
0.00028972
-2.4559e-10
0.00028972
-2.80863e-10
0.00028972
-3.15033e-10
0.00028972
-3.47951e-10
0.00028972
-3.79454e-10
0.00028972
-4.09359e-10
0.00028972
-4.37466e-10
0.00028972
-4.63556e-10
0.00028972
-4.87395e-10
0.00028972
-5.0872e-10
0.00028972
-5.27268e-10
0.00028972
-5.42801e-10
0.00028972
-5.54996e-10
0.00028972
-5.64475e-10
0.000289719
-5.70273e-10
0.000289719
-5.80934e-10
0.000289719
-5.91979e-10
0.000289719
-6.50901e-10
0.000289719
-7.3193e-10
0.000289719
-7.77902e-10
0.000289719
-8.18108e-10
0.000289719
-8.98376e-10
0.000289719
-9.93422e-10
0.000289719
-1.04604e-09
0.000289719
-1.08156e-09
0.000289719
-1.11118e-09
0.000289718
-1.13558e-09
0.000289718
-1.15203e-09
0.000289718
-1.15737e-09
0.000289718
-1.14846e-09
0.000289718
-1.12442e-09
0.000289718
-1.08106e-09
0.000289718
-1.02044e-09
0.000289718
-9.29292e-10
0.000289718
-8.15353e-10
0.000289718
-6.6259e-10
0.000289718
-3.33681e-10
-5.94282e-10
0.000282034
-1.32619e-09
0.000282034
-1.59167e-09
0.000282034
-1.55696e-09
0.000282034
-1.43504e-09
0.000282034
-1.29567e-09
0.000282034
-1.15499e-09
0.000282034
-1.01855e-09
0.000282035
-8.87719e-10
0.000282035
-7.63535e-10
0.000282035
-6.46776e-10
0.000282035
-5.37936e-10
0.000282035
-4.37327e-10
0.000282035
-3.4502e-10
0.000282035
-2.60896e-10
0.000282035
-1.84396e-10
0.000282035
-1.14736e-10
0.000282035
-5.05339e-11
0.000282035
1.12029e-11
0.000282035
6.67414e-11
0.000282035
1.38207e-10
0.000282035
1.55537e-10
0.000282035
1.40843e-10
0.000282035
1.1316e-10
0.000282035
8.35038e-11
0.000282035
1.54518e-10
0.000282036
2.93979e-10
0.000282036
4.5811e-10
0.000282036
6.13564e-10
0.000282036
7.4389e-10
0.000282036
8.45868e-10
0.000282037
9.2258e-10
0.000282037
9.78945e-10
0.000282037
1.01962e-09
0.000282037
1.04837e-09
0.000282037
1.06807e-09
0.000282037
1.08089e-09
0.000282037
1.08842e-09
0.000282037
1.09185e-09
0.000282037
1.09207e-09
0.000282037
1.08971e-09
0.000282037
1.08524e-09
0.000282037
1.07895e-09
0.000282037
1.07104e-09
0.000282038
1.06161e-09
0.000282038
1.05068e-09
0.000282038
1.03819e-09
0.000282038
1.02407e-09
0.000282038
1.00823e-09
0.000282038
9.90586e-10
0.000282038
9.71065e-10
0.000282038
9.49634e-10
0.000282038
9.26294e-10
0.000282038
9.01085e-10
0.000282038
8.74076e-10
0.000282038
8.45368e-10
0.000282038
8.15078e-10
0.000282038
7.83339e-10
0.000282038
7.50289e-10
0.000282038
7.16067e-10
0.000282038
6.8081e-10
0.000282037
6.44647e-10
0.000282037
6.07702e-10
0.000282037
5.70086e-10
0.000282037
5.31906e-10
0.000282037
4.93257e-10
0.000282037
4.54225e-10
0.000282037
4.14891e-10
0.000282037
3.75327e-10
0.000282037
3.356e-10
0.000282037
2.95775e-10
0.000282037
2.5591e-10
0.000282037
2.16066e-10
0.000282037
1.763e-10
0.000282037
1.36671e-10
0.000282037
9.72388e-11
0.000282037
5.80653e-11
0.000282037
1.92154e-11
0.000282037
-1.92423e-11
0.000282037
-5.72345e-11
0.000282037
-9.46817e-11
0.000282037
-1.31497e-10
0.000282037
-1.67586e-10
0.000282037
-2.02842e-10
0.000282037
-2.37148e-10
0.000282037
-2.70373e-10
0.000282037
-3.02375e-10
0.000282037
-3.32993e-10
0.000282037
-3.62052e-10
0.000282037
-3.89365e-10
0.000282036
-4.14723e-10
0.000282036
-4.3791e-10
0.000282036
-4.58694e-10
0.000282036
-4.76839e-10
0.000282036
-4.9219e-10
0.000282036
-5.04479e-10
0.000282036
-5.14535e-10
0.000282036
-5.21576e-10
0.000282036
-5.3378e-10
0.000282036
-5.47669e-10
0.000282036
-6.01326e-10
0.000282036
-6.70913e-10
0.000282036
-7.08441e-10
0.000282036
-7.40639e-10
0.000282036
-8.07467e-10
0.000282036
-8.87974e-10
0.000282035
-9.32609e-10
0.000282035
-9.62053e-10
0.000282035
-9.86783e-10
0.000282035
-1.00858e-09
0.000282035
-1.02548e-09
0.000282035
-1.03434e-09
0.000282035
-1.03161e-09
0.000282035
-1.01593e-09
0.000282035
-9.82944e-10
0.000282034
-9.34659e-10
0.000282034
-8.58626e-10
0.000282034
-7.62846e-10
0.000282034
-6.34163e-10
0.000282034
-3.37424e-10
-6.01678e-10
0.000274518
-1.30805e-09
0.000274518
-1.57984e-09
0.000274518
-1.56064e-09
0.000274518
-1.454e-09
0.000274518
-1.3257e-09
0.000274518
-1.19219e-09
0.000274519
-1.05977e-09
0.000274519
-9.30679e-10
0.000274519
-8.06732e-10
0.000274519
-6.89262e-10
0.000274519
-5.79152e-10
0.000274519
-4.76973e-10
0.000274519
-3.82962e-10
0.000274519
-2.971e-10
0.000274519
-2.18952e-10
0.000274519
-1.4775e-10
0.000274519
-8.24854e-11
0.000274519
-2.00639e-11
0.000274519
3.47166e-11
0.000274519
1.01389e-10
0.000274519
1.19903e-10
0.000274519
1.05765e-10
0.000274519
7.30674e-11
0.000274519
2.86831e-11
0.000274519
6.41275e-11
0.000274519
1.62569e-10
0.00027452
2.95288e-10
0.00027452
4.34635e-10
0.00027452
5.62414e-10
0.00027452
6.70855e-10
0.00027452
7.5881e-10
0.00027452
8.28335e-10
0.000274521
8.82474e-10
0.000274521
9.24206e-10
0.000274521
9.56073e-10
0.000274521
9.80122e-10
0.000274521
9.97954e-10
0.000274521
1.0108e-09
0.000274521
1.01961e-09
0.000274521
1.02509e-09
0.000274521
1.02775e-09
0.000274521
1.02797e-09
0.000274521
1.02601e-09
0.000274521
1.022e-09
0.000274521
1.01602e-09
0.000274521
1.00807e-09
0.000274521
9.98119e-10
0.000274522
9.86116e-10
0.000274522
9.72012e-10
0.000274522
9.55775e-10
0.000274522
9.374e-10
0.000274522
9.16917e-10
0.000274522
8.94388e-10
0.000274522
8.69905e-10
0.000274522
8.43585e-10
0.000274522
8.15561e-10
0.000274522
7.85978e-10
0.000274522
7.54985e-10
0.000274522
7.2273e-10
0.000274522
6.89358e-10
0.000274522
6.55006e-10
0.000274522
6.19804e-10
0.000274522
5.83872e-10
0.000274522
5.47321e-10
0.000274521
5.10251e-10
0.000274521
4.72755e-10
0.000274521
4.34917e-10
0.000274521
3.96812e-10
0.000274521
3.58513e-10
0.000274521
3.20084e-10
0.000274521
2.81588e-10
0.000274521
2.43086e-10
0.000274521
2.04637e-10
0.000274521
1.66303e-10
0.000274521
1.28144e-10
0.000274521
9.02229e-11
0.000274521
5.26066e-11
0.000274521
1.53639e-11
0.000274521
-2.14314e-11
0.000274521
-5.77001e-11
0.000274521
-9.33565e-11
0.000274521
-1.28306e-10
0.000274521
-1.62446e-10
0.000274521
-1.95661e-10
0.000274521
-2.27826e-10
0.000274521
-2.588e-10
0.000274521
-2.8843e-10
0.000274521
-3.1655e-10
0.000274521
-3.42979e-10
0.000274521
-3.67524e-10
0.000274521
-3.89984e-10
0.000274521
-4.10155e-10
0.00027452
-4.27832e-10
0.00027452
-4.4293e-10
0.00027452
-4.55235e-10
0.00027452
-4.65734e-10
0.00027452
-4.73805e-10
0.00027452
-4.8719e-10
0.00027452
-5.03016e-10
0.00027452
-5.52327e-10
0.00027452
-6.13583e-10
0.00027452
-6.45468e-10
0.00027452
-6.71124e-10
0.00027452
-7.2542e-10
0.00027452
-7.91941e-10
0.00027452
-8.28186e-10
0.00027452
-8.50865e-10
0.000274519
-8.69413e-10
0.000274519
-8.86418e-10
0.000274519
-9.00853e-10
0.000274519
-9.10027e-10
0.000274519
-9.10401e-10
0.000274519
-9.00365e-10
0.000274519
-8.7553e-10
0.000274519
-8.37806e-10
0.000274519
-7.75647e-10
0.000274518
-6.97081e-10
0.000274518
-5.92039e-10
0.000274518
-3.27937e-10
-5.97181e-10
0.000267167
-1.28269e-09
0.000267167
-1.55956e-09
0.000267167
-1.55514e-09
0.000267167
-1.46336e-09
0.000267167
-1.34605e-09
0.000267167
-1.21994e-09
0.000267167
-1.09192e-09
0.000267167
-9.65003e-10
0.000267167
-8.41698e-10
0.000267167
-7.23873e-10
0.000267167
-6.12802e-10
0.000267167
-5.09317e-10
0.000267167
-4.13834e-10
0.000267167
-3.26443e-10
0.000267167
-2.46833e-10
0.000267167
-1.74274e-10
0.000267167
-1.08079e-10
0.000267167
-4.51559e-11
0.000267167
9.07755e-12
0.000267167
7.16321e-11
0.000267167
9.12301e-11
0.000267167
7.90409e-11
0.000267167
4.57743e-11
0.000267167
-4.6848e-12
0.000267167
6.70097e-12
0.000267168
7.15343e-11
0.000267168
1.72856e-10
0.000267168
2.90071e-10
0.000267168
4.0652e-10
0.000267168
5.12557e-10
0.000267168
6.04154e-10
0.000267168
6.80858e-10
0.000267169
7.43965e-10
0.000267169
7.95382e-10
0.000267169
8.3704e-10
0.000267169
8.7065e-10
0.000267169
8.97639e-10
0.000267169
9.19153e-10
0.000267169
9.36096e-10
0.000267169
9.49169e-10
0.000267169
9.58902e-10
0.000267169
9.65689e-10
0.000267169
9.69803e-10
0.00026717
9.71422e-10
0.00026717
9.70647e-10
0.00026717
9.67516e-10
0.00026717
9.6203e-10
0.00026717
9.54171e-10
0.00026717
9.43924e-10
0.00026717
9.31285e-10
0.00026717
9.16279e-10
0.00026717
8.98961e-10
0.00026717
8.79415e-10
0.00026717
8.57753e-10
0.00026717
8.34108e-10
0.00026717