/*--------------------------------*- C++ -*----------------------------------*\
  =========                 |
  \\      /  F ield         | OpenFOAM: The Open Source CFD Toolbox
   \\    /   O peration     | Website:  https://openfoam.org
    \\  /    A nd           | Version:  7
     \\/     M anipulation  |
\*---------------------------------------------------------------------------*/
FoamFile
{
    version     2.0;
    format      ascii;
    class       volVectorField;
    location    "49000";
    object      U;
}
// * * * * * * * * * * * * * * * * * * * * * * * * * * * * * * * * * * * * * //

dimensions      [0 1 -1 0 0 0 0];

internalField   nonuniform List<vector> 
100
(
(0.00779469 1.27495e-14 0)
(0.0236633 1.92406e-14 0)
(0.0398641 9.93963e-15 0)
(0.0549171 1.23354e-14 0)
(0.0671104 6.18211e-16 0)
(0.0764366 4.04729e-16 0)
(0.0837073 -6.33033e-15 0)
(0.0895886 3.73857e-15 0)
(0.0945084 1.11084e-14 0)
(0.0987373 1.43854e-14 0)
(0.102452 1.59598e-14 0)
(0.105771 2.18443e-14 0)
(0.10878 1.97311e-14 0)
(0.111538 1.31417e-14 0)
(0.114091 1.18214e-14 0)
(0.116472 1.66507e-14 0)
(0.11871 1.87506e-14 0)
(0.120824 1.59595e-14 0)
(0.122831 1.51733e-14 0)
(0.124746 1.07507e-14 0)
(0.126579 1.11297e-14 0)
(0.12834 1.59169e-14 0)
(0.130036 1.76471e-14 0)
(0.131674 1.53554e-14 0)
(0.133259 1.38758e-14 0)
(0.134796 1.5195e-14 0)
(0.136289 2.13139e-14 0)
(0.13774 2.31987e-14 0)
(0.139154 1.99947e-14 0)
(0.140531 2.15122e-14 0)
(0.141873 2.26546e-14 0)
(0.143183 2.17903e-14 0)
(0.14446 2.01701e-14 0)
(0.145705 2.18549e-14 0)
(0.146918 2.12669e-14 0)
(0.1481 2.31743e-14 0)
(0.149248 2.21248e-14 0)
(0.150363 2.44189e-14 0)
(0.151441 2.3619e-14 0)
(0.152481 2.06386e-14 0)
(0.153478 2.40389e-14 0)
(0.15443 2.18638e-14 0)
(0.155329 2.50238e-14 0)
(0.15617 2.40611e-14 0)
(0.156943 2.50668e-14 0)
(0.157636 2.14864e-14 0)
(0.158235 2.0043e-14 0)
(0.158721 2.2002e-14 0)
(0.159072 2.38571e-14 0)
(0.159261 2.40489e-14 0)
(0.159261 2.03551e-14 0)
(0.159072 2.43707e-14 0)
(0.158723 2.9228e-14 0)
(0.158239 3.20887e-14 0)
(0.157642 3.25574e-14 0)
(0.156952 3.00662e-14 0)
(0.156183 3.26469e-14 0)
(0.155346 3.42425e-14 0)
(0.15445 3.40026e-14 0)
(0.153502 3.22812e-14 0)
(0.152508 3.25609e-14 0)
(0.151472 3.17338e-14 0)
(0.150397 3.02296e-14 0)
(0.149287 3.20189e-14 0)
(0.148142 3.05676e-14 0)
(0.146964 3.06743e-14 0)
(0.145754 2.86068e-14 0)
(0.144513 2.65476e-14 0)
(0.14324 2.51542e-14 0)
(0.141934 2.43922e-14 0)
(0.140595 2.36858e-14 0)
(0.139222 2.65272e-14 0)
(0.137812 2.32349e-14 0)
(0.136364 2.0278e-14 0)
(0.134875 1.94074e-14 0)
(0.133341 2.05524e-14 0)
(0.13176 1.91942e-14 0)
(0.130126 1.63501e-14 0)
(0.128434 2.24072e-14 0)
(0.126677 2.36488e-14 0)
(0.124848 2.53384e-14 0)
(0.122938 2.26535e-14 0)
(0.120934 2.56143e-14 0)
(0.118825 2.67059e-14 0)
(0.116593 1.77832e-14 0)
(0.114216 1.65068e-14 0)
(0.111669 1.452e-14 0)
(0.108918 1.24199e-14 0)
(0.105917 8.11454e-15 0)
(0.102605 2.76966e-15 0)
(0.0989003 -4.07078e-15 0)
(0.0946828 -7.14376e-15 0)
(0.089777 -1.31157e-14 0)
(0.0839133 -1.64423e-14 0)
(0.0766647 -3.17008e-14 0)
(0.0673632 -3.49856e-14 0)
(0.0551827 -3.09808e-14 0)
(0.0400953 -8.489e-15 0)
(0.0238117 -1.04284e-14 0)
(0.00784917 -3.12574e-15 0)
)
;

boundaryField
{
    bottomWall
    {
        type            noSlip;
    }
    topWall
    {
        type            noSlip;
    }
    sides1_half0
    {
        type            empty;
    }
    sides1_half1
    {
        type            empty;
    }
    sides2_half0
    {
        type            empty;
    }
    sides2_half1
    {
        type            empty;
    }
    inout1_half0
    {
        type            cyclic;
    }
    inout1_half1
    {
        type            cyclic;
    }
    inout2_half0
    {
        type            cyclic;
    }
    inout2_half1
    {
        type            cyclic;
    }
}


// ************************************************************************* //
