/*--------------------------------*- C++ -*----------------------------------*\
  =========                 |
  \\      /  F ield         | OpenFOAM: The Open Source CFD Toolbox
   \\    /   O peration     | Website:  https://openfoam.org
    \\  /    A nd           | Version:  7
     \\/     M anipulation  |
\*---------------------------------------------------------------------------*/
FoamFile
{
    version     2.0;
    format      ascii;
    class       volScalarField;
    location    "4500";
    object      k;
}
// * * * * * * * * * * * * * * * * * * * * * * * * * * * * * * * * * * * * * //

dimensions      [0 2 -2 0 0 0 0];

internalField   nonuniform List<scalar> 
24000
(
6.89829e-09
6.89856e-09
6.89862e-09
6.89853e-09
6.89837e-09
6.89817e-09
6.89797e-09
6.89779e-09
6.89762e-09
6.89748e-09
6.89737e-09
6.89728e-09
6.89721e-09
6.89716e-09
6.89712e-09
6.8971e-09
6.8971e-09
6.89711e-09
6.89712e-09
6.89715e-09
6.89718e-09
6.89722e-09
6.89726e-09
6.89731e-09
6.89736e-09
6.89741e-09
6.89747e-09
6.89752e-09
6.89758e-09
6.89763e-09
6.89768e-09
6.89774e-09
6.89779e-09
6.89785e-09
6.8979e-09
6.89795e-09
6.898e-09
6.89805e-09
6.89809e-09
6.89814e-09
6.89818e-09
6.89822e-09
6.89826e-09
6.8983e-09
6.89833e-09
6.89835e-09
6.89838e-09
6.8984e-09
6.89841e-09
6.89844e-09
6.89846e-09
6.89848e-09
6.8985e-09
6.89852e-09
6.89853e-09
6.89854e-09
6.89855e-09
6.89855e-09
6.89855e-09
6.89853e-09
6.89851e-09
6.89848e-09
6.89844e-09
6.8984e-09
6.89836e-09
6.89831e-09
6.89827e-09
6.89822e-09
6.89817e-09
6.89813e-09
6.89808e-09
6.89804e-09
6.898e-09
6.89796e-09
6.89793e-09
6.89789e-09
6.89786e-09
6.89784e-09
6.89781e-09
6.89779e-09
6.89777e-09
6.89775e-09
6.89773e-09
6.89771e-09
6.8977e-09
6.89769e-09
6.89768e-09
6.89767e-09
6.89766e-09
6.89765e-09
6.89764e-09
6.89763e-09
6.89762e-09
6.89761e-09
6.89761e-09
6.8976e-09
6.8976e-09
6.8976e-09
6.89761e-09
6.89762e-09
6.89763e-09
6.89765e-09
6.89767e-09
6.89769e-09
6.89772e-09
6.89774e-09
6.89776e-09
6.89778e-09
6.89781e-09
6.89784e-09
6.89787e-09
6.8979e-09
6.89793e-09
6.89796e-09
6.89798e-09
6.898e-09
6.89802e-09
6.89803e-09
6.89806e-09
6.89798e-09
2.07892e-07
2.079e-07
2.07902e-07
2.079e-07
2.07895e-07
2.07889e-07
2.07883e-07
2.07877e-07
2.07872e-07
2.07868e-07
2.07865e-07
2.07862e-07
2.0786e-07
2.07858e-07
2.07857e-07
2.07857e-07
2.07856e-07
2.07857e-07
2.07857e-07
2.07858e-07
2.07859e-07
2.0786e-07
2.07861e-07
2.07863e-07
2.07864e-07
2.07866e-07
2.07867e-07
2.07869e-07
2.07871e-07
2.07872e-07
2.07874e-07
2.07876e-07
2.07877e-07
2.07879e-07
2.0788e-07
2.07882e-07
2.07884e-07
2.07885e-07
2.07886e-07
2.07888e-07
2.07889e-07
2.0789e-07
2.07891e-07
2.07892e-07
2.07893e-07
2.07894e-07
2.07895e-07
2.07895e-07
2.07896e-07
2.07897e-07
2.07897e-07
2.07898e-07
2.07899e-07
2.07899e-07
2.079e-07
2.079e-07
2.079e-07
2.079e-07
2.079e-07
2.079e-07
2.07899e-07
2.07898e-07
2.07897e-07
2.07896e-07
2.07894e-07
2.07893e-07
2.07892e-07
2.0789e-07
2.07889e-07
2.07887e-07
2.07886e-07
2.07885e-07
2.07884e-07
2.07882e-07
2.07881e-07
2.0788e-07
2.07879e-07
2.07879e-07
2.07878e-07
2.07877e-07
2.07876e-07
2.07876e-07
2.07875e-07
2.07875e-07
2.07874e-07
2.07874e-07
2.07874e-07
2.07873e-07
2.07873e-07
2.07873e-07
2.07873e-07
2.07872e-07
2.07872e-07
2.07872e-07
2.07872e-07
2.07872e-07
2.07871e-07
2.07872e-07
2.07872e-07
2.07872e-07
2.07872e-07
2.07873e-07
2.07874e-07
2.07874e-07
2.07875e-07
2.07876e-07
2.07876e-07
2.07877e-07
2.07878e-07
2.07879e-07
2.0788e-07
2.07881e-07
2.07881e-07
2.07882e-07
2.07883e-07
2.07884e-07
2.07884e-07
2.07885e-07
2.07885e-07
2.07883e-07
1.50917e-06
1.50923e-06
1.50924e-06
1.50923e-06
1.50919e-06
1.50915e-06
1.5091e-06
1.50906e-06
1.50903e-06
1.509e-06
1.50897e-06
1.50895e-06
1.50894e-06
1.50892e-06
1.50892e-06
1.50891e-06
1.50891e-06
1.50891e-06
1.50892e-06
1.50892e-06
1.50893e-06
1.50894e-06
1.50895e-06
1.50896e-06
1.50897e-06
1.50898e-06
1.50899e-06
1.509e-06
1.50902e-06
1.50903e-06
1.50904e-06
1.50905e-06
1.50906e-06
1.50908e-06
1.50909e-06
1.5091e-06
1.50911e-06
1.50912e-06
1.50913e-06
1.50914e-06
1.50915e-06
1.50916e-06
1.50917e-06
1.50917e-06
1.50918e-06
1.50919e-06
1.50919e-06
1.5092e-06
1.5092e-06
1.5092e-06
1.50921e-06
1.50921e-06
1.50922e-06
1.50922e-06
1.50923e-06
1.50923e-06
1.50923e-06
1.50923e-06
1.50923e-06
1.50922e-06
1.50922e-06
1.50921e-06
1.50921e-06
1.5092e-06
1.50919e-06
1.50918e-06
1.50917e-06
1.50916e-06
1.50915e-06
1.50914e-06
1.50913e-06
1.50912e-06
1.50911e-06
1.5091e-06
1.50909e-06
1.50909e-06
1.50908e-06
1.50907e-06
1.50907e-06
1.50906e-06
1.50906e-06
1.50905e-06
1.50905e-06
1.50905e-06
1.50904e-06
1.50904e-06
1.50904e-06
1.50904e-06
1.50903e-06
1.50903e-06
1.50903e-06
1.50903e-06
1.50903e-06
1.50902e-06
1.50902e-06
1.50902e-06
1.50902e-06
1.50902e-06
1.50902e-06
1.50903e-06
1.50903e-06
1.50903e-06
1.50904e-06
1.50904e-06
1.50905e-06
1.50905e-06
1.50906e-06
1.50906e-06
1.50907e-06
1.50907e-06
1.50908e-06
1.50909e-06
1.50909e-06
1.5091e-06
1.5091e-06
1.50911e-06
1.50911e-06
1.50912e-06
1.50912e-06
1.5091e-06
5.58074e-06
5.58095e-06
5.58099e-06
5.58092e-06
5.58078e-06
5.58062e-06
5.58046e-06
5.58032e-06
5.58019e-06
5.58008e-06
5.57999e-06
5.57991e-06
5.57986e-06
5.57982e-06
5.57979e-06
5.57978e-06
5.57977e-06
5.57978e-06
5.57979e-06
5.57981e-06
5.57984e-06
5.57987e-06
5.5799e-06
5.57994e-06
5.57998e-06
5.58002e-06
5.58007e-06
5.58011e-06
5.58016e-06
5.5802e-06
5.58024e-06
5.58029e-06
5.58033e-06
5.58037e-06
5.58041e-06
5.58046e-06
5.5805e-06
5.58053e-06
5.58057e-06
5.58061e-06
5.58064e-06
5.58067e-06
5.5807e-06
5.58073e-06
5.58076e-06
5.58078e-06
5.5808e-06
5.58081e-06
5.58083e-06
5.58084e-06
5.58086e-06
5.58088e-06
5.58089e-06
5.58091e-06
5.58092e-06
5.58093e-06
5.58094e-06
5.58094e-06
5.58093e-06
5.58092e-06
5.5809e-06
5.58088e-06
5.58085e-06
5.58082e-06
5.58078e-06
5.58074e-06
5.58071e-06
5.58067e-06
5.58063e-06
5.58059e-06
5.58056e-06
5.58052e-06
5.58049e-06
5.58046e-06
5.58043e-06
5.58041e-06
5.58038e-06
5.58036e-06
5.58034e-06
5.58032e-06
5.58031e-06
5.58029e-06
5.58028e-06
5.58026e-06
5.58025e-06
5.58024e-06
5.58023e-06
5.58023e-06
5.58022e-06
5.58021e-06
5.5802e-06
5.5802e-06
5.58019e-06
5.58018e-06
5.58018e-06
5.58017e-06
5.58017e-06
5.58017e-06
5.58018e-06
5.58019e-06
5.5802e-06
5.58021e-06
5.58023e-06
5.58025e-06
5.58027e-06
5.58028e-06
5.5803e-06
5.58032e-06
5.58034e-06
5.58037e-06
5.58039e-06
5.58041e-06
5.58044e-06
5.58046e-06
5.58048e-06
5.5805e-06
5.58051e-06
5.58052e-06
5.58054e-06
5.58047e-06
1.42596e-05
1.42601e-05
1.42602e-05
1.426e-05
1.42597e-05
1.42593e-05
1.42589e-05
1.42585e-05
1.42582e-05
1.42579e-05
1.42577e-05
1.42575e-05
1.42574e-05
1.42573e-05
1.42572e-05
1.42572e-05
1.42572e-05
1.42572e-05
1.42572e-05
1.42573e-05
1.42574e-05
1.42574e-05
1.42575e-05
1.42576e-05
1.42577e-05
1.42578e-05
1.42579e-05
1.4258e-05
1.42582e-05
1.42583e-05
1.42584e-05
1.42585e-05
1.42586e-05
1.42587e-05
1.42588e-05
1.42589e-05
1.4259e-05
1.42591e-05
1.42592e-05
1.42593e-05
1.42594e-05
1.42594e-05
1.42595e-05
1.42596e-05
1.42596e-05
1.42597e-05
1.42597e-05
1.42598e-05
1.42598e-05
1.42599e-05
1.42599e-05
1.42599e-05
1.426e-05
1.426e-05
1.42601e-05
1.42601e-05
1.42601e-05
1.42601e-05
1.42601e-05
1.426e-05
1.426e-05
1.42599e-05
1.42599e-05
1.42598e-05
1.42597e-05
1.42596e-05
1.42595e-05
1.42594e-05
1.42593e-05
1.42592e-05
1.42591e-05
1.4259e-05
1.4259e-05
1.42589e-05
1.42588e-05
1.42588e-05
1.42587e-05
1.42586e-05
1.42586e-05
1.42585e-05
1.42585e-05
1.42585e-05
1.42584e-05
1.42584e-05
1.42584e-05
1.42584e-05
1.42583e-05
1.42583e-05
1.42583e-05
1.42583e-05
1.42583e-05
1.42582e-05
1.42582e-05
1.42582e-05
1.42582e-05
1.42582e-05
1.42582e-05
1.42582e-05
1.42582e-05
1.42582e-05
1.42582e-05
1.42583e-05
1.42583e-05
1.42584e-05
1.42584e-05
1.42585e-05
1.42585e-05
1.42586e-05
1.42586e-05
1.42587e-05
1.42587e-05
1.42588e-05
1.42588e-05
1.42589e-05
1.42589e-05
1.4259e-05
1.4259e-05
1.42591e-05
1.42591e-05
1.42589e-05
2.83213e-05
2.83222e-05
2.83223e-05
2.83218e-05
2.83212e-05
2.83204e-05
2.83197e-05
2.8319e-05
2.83184e-05
2.83179e-05
2.83175e-05
2.83171e-05
2.83169e-05
2.83167e-05
2.83166e-05
2.83165e-05
2.83165e-05
2.83166e-05
2.83166e-05
2.83167e-05
2.83169e-05
2.8317e-05
2.83172e-05
2.83174e-05
2.83176e-05
2.83178e-05
2.8318e-05
2.83182e-05
2.83184e-05
2.83186e-05
2.83188e-05
2.8319e-05
2.83192e-05
2.83194e-05
2.83196e-05
2.83198e-05
2.832e-05
2.83202e-05
2.83203e-05
2.83205e-05
2.83207e-05
2.83208e-05
2.83209e-05
2.83211e-05
2.83212e-05
2.83213e-05
2.83214e-05
2.83215e-05
2.83215e-05
2.83216e-05
2.83217e-05
2.83218e-05
2.83218e-05
2.83219e-05
2.8322e-05
2.8322e-05
2.8322e-05
2.8322e-05
2.8322e-05
2.83219e-05
2.83218e-05
2.83217e-05
2.83216e-05
2.83214e-05
2.83212e-05
2.83211e-05
2.83209e-05
2.83207e-05
2.83205e-05
2.83204e-05
2.83202e-05
2.832e-05
2.83199e-05
2.83197e-05
2.83196e-05
2.83195e-05
2.83194e-05
2.83193e-05
2.83192e-05
2.83191e-05
2.8319e-05
2.83189e-05
2.83189e-05
2.83188e-05
2.83188e-05
2.83187e-05
2.83187e-05
2.83186e-05
2.83186e-05
2.83186e-05
2.83185e-05
2.83185e-05
2.83185e-05
2.83184e-05
2.83184e-05
2.83184e-05
2.83184e-05
2.83184e-05
2.83184e-05
2.83185e-05
2.83185e-05
2.83186e-05
2.83187e-05
2.83188e-05
2.83189e-05
2.8319e-05
2.8319e-05
2.83191e-05
2.83192e-05
2.83194e-05
2.83195e-05
2.83196e-05
2.83197e-05
2.83198e-05
2.83199e-05
2.832e-05
2.832e-05
2.83201e-05
2.83202e-05
2.83198e-05
4.63601e-05
4.63615e-05
4.63615e-05
4.63608e-05
4.63598e-05
4.63586e-05
4.63575e-05
4.63565e-05
4.63556e-05
4.63548e-05
4.63542e-05
4.63537e-05
4.63534e-05
4.63531e-05
4.6353e-05
4.63529e-05
4.63529e-05
4.6353e-05
4.63531e-05
4.63533e-05
4.63535e-05
4.63537e-05
4.6354e-05
4.63543e-05
4.63546e-05
4.63549e-05
4.63552e-05
4.63555e-05
4.63558e-05
4.63561e-05
4.63564e-05
4.63568e-05
4.63571e-05
4.63574e-05
4.63576e-05
4.63579e-05
4.63582e-05
4.63585e-05
4.63587e-05
4.6359e-05
4.63592e-05
4.63594e-05
4.63597e-05
4.63599e-05
4.636e-05
4.63602e-05
4.63603e-05
4.63604e-05
4.63606e-05
4.63607e-05
4.63608e-05
4.63609e-05
4.6361e-05
4.63611e-05
4.63612e-05
4.63613e-05
4.63613e-05
4.63613e-05
4.63612e-05
4.63611e-05
4.63609e-05
4.63607e-05
4.63605e-05
4.63603e-05
4.636e-05
4.63597e-05
4.63595e-05
4.63592e-05
4.63589e-05
4.63587e-05
4.63584e-05
4.63582e-05
4.63579e-05
4.63577e-05
4.63575e-05
4.63573e-05
4.63572e-05
4.6357e-05
4.63569e-05
4.63567e-05
4.63566e-05
4.63565e-05
4.63564e-05
4.63563e-05
4.63563e-05
4.63562e-05
4.63561e-05
4.63561e-05
4.6356e-05
4.6356e-05
4.63559e-05
4.63559e-05
4.63558e-05
4.63558e-05
4.63557e-05
4.63557e-05
4.63557e-05
4.63557e-05
4.63558e-05
4.63558e-05
4.63559e-05
4.6356e-05
4.63561e-05
4.63563e-05
4.63564e-05
4.63566e-05
4.63567e-05
4.63569e-05
4.63571e-05
4.63572e-05
4.63574e-05
4.63576e-05
4.63577e-05
4.63579e-05
4.6358e-05
4.63581e-05
4.63582e-05
4.63583e-05
4.63584e-05
4.63579e-05
6.55384e-05
6.55402e-05
6.55402e-05
6.55392e-05
6.55378e-05
6.55363e-05
6.55349e-05
6.55336e-05
6.55325e-05
6.55315e-05
6.55308e-05
6.55302e-05
6.55297e-05
6.55294e-05
6.55293e-05
6.55292e-05
6.55292e-05
6.55293e-05
6.55295e-05
6.55298e-05
6.553e-05
6.55304e-05
6.55307e-05
6.55311e-05
6.55315e-05
6.55319e-05
6.55323e-05
6.55327e-05
6.55332e-05
6.55336e-05
6.5534e-05
6.55344e-05
6.55348e-05
6.55352e-05
6.55355e-05
6.55359e-05
6.55363e-05
6.55366e-05
6.55369e-05
6.55372e-05
6.55375e-05
6.55378e-05
6.55381e-05
6.55384e-05
6.55386e-05
6.55388e-05
6.5539e-05
6.55391e-05
6.55393e-05
6.55394e-05
6.55396e-05
6.55397e-05
6.55399e-05
6.554e-05
6.55401e-05
6.55402e-05
6.55402e-05
6.55401e-05
6.554e-05
6.55399e-05
6.55397e-05
6.55394e-05
6.55391e-05
6.55388e-05
6.55384e-05
6.55381e-05
6.55377e-05
6.55373e-05
6.5537e-05
6.55366e-05
6.55363e-05
6.5536e-05
6.55357e-05
6.55354e-05
6.55352e-05
6.55349e-05
6.55347e-05
6.55345e-05
6.55343e-05
6.55342e-05
6.5534e-05
6.55339e-05
6.55338e-05
6.55337e-05
6.55336e-05
6.55335e-05
6.55334e-05
6.55333e-05
6.55332e-05
6.55332e-05
6.55331e-05
6.5533e-05
6.5533e-05
6.55329e-05
6.55329e-05
6.55328e-05
6.55328e-05
6.55329e-05
6.55329e-05
6.5533e-05
6.55331e-05
6.55333e-05
6.55335e-05
6.55337e-05
6.55339e-05
6.55341e-05
6.55343e-05
6.55345e-05
6.55347e-05
6.55349e-05
6.55351e-05
6.55353e-05
6.55355e-05
6.55357e-05
6.55359e-05
6.5536e-05
6.55362e-05
6.55362e-05
6.55364e-05
6.55357e-05
8.34688e-05
8.34707e-05
8.34708e-05
8.34697e-05
8.34681e-05
8.34663e-05
8.34647e-05
8.34632e-05
8.34619e-05
8.34609e-05
8.346e-05
8.34593e-05
8.34588e-05
8.34585e-05
8.34583e-05
8.34583e-05
8.34584e-05
8.34585e-05
8.34587e-05
8.34591e-05
8.34594e-05
8.34598e-05
8.34602e-05
8.34607e-05
8.34612e-05
8.34617e-05
8.34622e-05
8.34627e-05
8.34632e-05
8.34637e-05
8.34641e-05
8.34646e-05
8.34651e-05
8.34655e-05
8.3466e-05
8.34664e-05
8.34668e-05
8.34672e-05
8.34676e-05
8.3468e-05
8.34683e-05
8.34687e-05
8.3469e-05
8.34693e-05
8.34695e-05
8.34698e-05
8.347e-05
8.34702e-05
8.34704e-05
8.34705e-05
8.34707e-05
8.34709e-05
8.34711e-05
8.34712e-05
8.34713e-05
8.34713e-05
8.34713e-05
8.34713e-05
8.34711e-05
8.34709e-05
8.34706e-05
8.34703e-05
8.34699e-05
8.34695e-05
8.34691e-05
8.34687e-05
8.34682e-05
8.34678e-05
8.34674e-05
8.3467e-05
8.34666e-05
8.34662e-05
8.34659e-05
8.34656e-05
8.34653e-05
8.3465e-05
8.34647e-05
8.34645e-05
8.34643e-05
8.34641e-05
8.34639e-05
8.34638e-05
8.34636e-05
8.34635e-05
8.34634e-05
8.34633e-05
8.34632e-05
8.34631e-05
8.3463e-05
8.34629e-05
8.34629e-05
8.34628e-05
8.34627e-05
8.34626e-05
8.34626e-05
8.34626e-05
8.34626e-05
8.34626e-05
8.34627e-05
8.34628e-05
8.34629e-05
8.34631e-05
8.34634e-05
8.34636e-05
8.34639e-05
8.34641e-05
8.34644e-05
8.34646e-05
8.34649e-05
8.34651e-05
8.34654e-05
8.34656e-05
8.34659e-05
8.34661e-05
8.34663e-05
8.34664e-05
8.34666e-05
8.34667e-05
8.34669e-05
8.34661e-05
9.90204e-05
9.90221e-05
9.90222e-05
9.90211e-05
9.90194e-05
9.90176e-05
9.90158e-05
9.90142e-05
9.90128e-05
9.90117e-05
9.90108e-05
9.90101e-05
9.90096e-05
9.90093e-05
9.90091e-05
9.90091e-05
9.90092e-05
9.90094e-05
9.90097e-05
9.901e-05
9.90104e-05
9.90109e-05
9.90114e-05
9.90119e-05
9.90125e-05
9.9013e-05
9.90136e-05
9.90142e-05
9.90147e-05
9.90153e-05
9.90158e-05
9.90164e-05
9.90169e-05
9.90174e-05
9.90179e-05
9.90184e-05
9.90188e-05
9.90193e-05
9.90197e-05
9.90201e-05
9.90205e-05
9.90209e-05
9.90212e-05
9.90215e-05
9.90218e-05
9.90221e-05
9.90223e-05
9.90226e-05
9.90228e-05
9.9023e-05
9.90231e-05
9.90233e-05
9.90235e-05
9.90236e-05
9.90237e-05
9.90238e-05
9.90237e-05
9.90236e-05
9.90234e-05
9.90232e-05
9.90228e-05
9.90224e-05
9.9022e-05
9.90215e-05
9.9021e-05
9.90205e-05
9.902e-05
9.90196e-05
9.90191e-05
9.90186e-05
9.90182e-05
9.90178e-05
9.90174e-05
9.90171e-05
9.90167e-05
9.90164e-05
9.90162e-05
9.90159e-05
9.90157e-05
9.90155e-05
9.90153e-05
9.90151e-05
9.9015e-05
9.90148e-05
9.90147e-05
9.90146e-05
9.90145e-05
9.90144e-05
9.90143e-05
9.90142e-05
9.90141e-05
9.9014e-05
9.90139e-05
9.90139e-05
9.90138e-05
9.90138e-05
9.90138e-05
9.90138e-05
9.90139e-05
9.90141e-05
9.90143e-05
9.90145e-05
9.90148e-05
9.90151e-05
9.90154e-05
9.90157e-05
9.9016e-05
9.90162e-05
9.90165e-05
9.90168e-05
9.90171e-05
9.90174e-05
9.90176e-05
9.90178e-05
9.9018e-05
9.90182e-05
9.90184e-05
9.90185e-05
9.90186e-05
9.9018e-05
0.000112001
0.000112002
0.000112002
0.000112001
0.000111999
0.000111997
0.000111996
0.000111994
0.000111993
0.000111991
0.000111991
0.00011199
0.000111989
0.000111989
0.000111989
0.000111989
0.000111989
0.000111989
0.00011199
0.00011199
0.00011199
0.000111991
0.000111992
0.000111992
0.000111993
0.000111993
0.000111994
0.000111995
0.000111995
0.000111996
0.000111996
0.000111997
0.000111998
0.000111998
0.000111999
0.000111999
0.000112
0.000112
0.000112001
0.000112001
0.000112001
0.000112002
0.000112002
0.000112003
0.000112003
0.000112003
0.000112003
0.000112004
0.000112004
0.000112004
0.000112004
0.000112004
0.000112005
0.000112005
0.000112005
0.000112005
0.000112005
0.000112005
0.000112004
0.000112004
0.000112004
0.000112003
0.000112003
0.000112002
0.000112002
0.000112001
0.000112001
0.000112
0.000112
0.000111999
0.000111999
0.000111998
0.000111998
0.000111997
0.000111997
0.000111997
0.000111996
0.000111996
0.000111996
0.000111996
0.000111995
0.000111995
0.000111995
0.000111995
0.000111995
0.000111995
0.000111995
0.000111995
0.000111994
0.000111994
0.000111994
0.000111994
0.000111994
0.000111994
0.000111994
0.000111994
0.000111994
0.000111994
0.000111994
0.000111994
0.000111994
0.000111995
0.000111995
0.000111995
0.000111996
0.000111996
0.000111996
0.000111997
0.000111997
0.000111997
0.000111998
0.000111998
0.000111998
0.000111998
0.000111999
0.000111999
0.000111999
0.000111999
0.000111999
0.000111999
0.000122653
0.000122654
0.000122654
0.000122653
0.000122651
0.000122649
0.000122648
0.000122646
0.000122645
0.000122643
0.000122643
0.000122642
0.000122641
0.000122641
0.000122641
0.000122641
0.000122641
0.000122641
0.000122642
0.000122642
0.000122643
0.000122643
0.000122644
0.000122645
0.000122645
0.000122646
0.000122646
0.000122647
0.000122648
0.000122648
0.000122649
0.00012265
0.00012265
0.000122651
0.000122652
0.000122652
0.000122653
0.000122653
0.000122654
0.000122654
0.000122654
0.000122655
0.000122655
0.000122656
0.000122656
0.000122656
0.000122657
0.000122657
0.000122657
0.000122657
0.000122657
0.000122658
0.000122658
0.000122658
0.000122658
0.000122658
0.000122658
0.000122658
0.000122657
0.000122657
0.000122656
0.000122656
0.000122655
0.000122655
0.000122654
0.000122654
0.000122653
0.000122653
0.000122652
0.000122652
0.000122651
0.000122651
0.00012265
0.00012265
0.000122649
0.000122649
0.000122649
0.000122648
0.000122648
0.000122648
0.000122648
0.000122648
0.000122647
0.000122647
0.000122647
0.000122647
0.000122647
0.000122647
0.000122647
0.000122647
0.000122646
0.000122646
0.000122646
0.000122646
0.000122646
0.000122646
0.000122646
0.000122646
0.000122646
0.000122647
0.000122647
0.000122647
0.000122647
0.000122648
0.000122648
0.000122649
0.000122649
0.000122649
0.00012265
0.00012265
0.00012265
0.000122651
0.000122651
0.000122651
0.000122651
0.000122651
0.000122652
0.000122652
0.000122652
0.000122651
0.000131347
0.000131348
0.000131348
0.000131347
0.000131345
0.000131343
0.000131342
0.00013134
0.000131339
0.000131338
0.000131337
0.000131336
0.000131336
0.000131335
0.000131335
0.000131335
0.000131336
0.000131336
0.000131336
0.000131337
0.000131337
0.000131338
0.000131339
0.000131339
0.00013134
0.000131341
0.000131341
0.000131342
0.000131343
0.000131343
0.000131344
0.000131345
0.000131345
0.000131346
0.000131347
0.000131347
0.000131348
0.000131348
0.000131349
0.000131349
0.00013135
0.00013135
0.000131351
0.000131351
0.000131351
0.000131352
0.000131352
0.000131352
0.000131352
0.000131353
0.000131353
0.000131353
0.000131353
0.000131353
0.000131353
0.000131353
0.000131353
0.000131353
0.000131352
0.000131352
0.000131351
0.000131351
0.00013135
0.00013135
0.000131349
0.000131349
0.000131348
0.000131347
0.000131347
0.000131346
0.000131346
0.000131345
0.000131345
0.000131344
0.000131344
0.000131344
0.000131343
0.000131343
0.000131343
0.000131343
0.000131342
0.000131342
0.000131342
0.000131342
0.000131342
0.000131342
0.000131341
0.000131341
0.000131341
0.000131341
0.000131341
0.000131341
0.000131341
0.000131341
0.000131341
0.000131341
0.000131341
0.000131341
0.000131341
0.000131341
0.000131342
0.000131342
0.000131342
0.000131343
0.000131343
0.000131343
0.000131344
0.000131344
0.000131345
0.000131345
0.000131345
0.000131345
0.000131346
0.000131346
0.000131346
0.000131346
0.000131346
0.000131347
0.000131347
0.000131346
0.000138446
0.000138446
0.000138446
0.000138445
0.000138443
0.000138442
0.00013844
0.000138439
0.000138437
0.000138436
0.000138436
0.000138435
0.000138434
0.000138434
0.000138434
0.000138434
0.000138434
0.000138435
0.000138435
0.000138436
0.000138436
0.000138437
0.000138438
0.000138438
0.000138439
0.00013844
0.00013844
0.000138441
0.000138442
0.000138443
0.000138443
0.000138444
0.000138445
0.000138445
0.000138446
0.000138447
0.000138447
0.000138448
0.000138448
0.000138449
0.000138449
0.00013845
0.00013845
0.000138451
0.000138451
0.000138451
0.000138452
0.000138452
0.000138452
0.000138452
0.000138452
0.000138453
0.000138453
0.000138453
0.000138453
0.000138453
0.000138452
0.000138452
0.000138452
0.000138451
0.000138451
0.00013845
0.000138449
0.000138449
0.000138448
0.000138447
0.000138447
0.000138446
0.000138446
0.000138445
0.000138445
0.000138444
0.000138444
0.000138443
0.000138443
0.000138443
0.000138442
0.000138442
0.000138442
0.000138441
0.000138441
0.000138441
0.000138441
0.000138441
0.000138441
0.00013844
0.00013844
0.00013844
0.00013844
0.00013844
0.00013844
0.00013844
0.00013844
0.000138439
0.000138439
0.000138439
0.00013844
0.00013844
0.00013844
0.00013844
0.000138441
0.000138441
0.000138441
0.000138442
0.000138442
0.000138443
0.000138443
0.000138443
0.000138444
0.000138444
0.000138444
0.000138445
0.000138445
0.000138445
0.000138445
0.000138445
0.000138445
0.000138446
0.000138446
0.000138446
0.000144258
0.000144258
0.000144257
0.000144256
0.000144255
0.000144253
0.000144252
0.000144251
0.000144249
0.000144248
0.000144248
0.000144247
0.000144246
0.000144246
0.000144246
0.000144246
0.000144247
0.000144247
0.000144247
0.000144248
0.000144248
0.000144249
0.00014425
0.000144251
0.000144251
0.000144252
0.000144253
0.000144254
0.000144254
0.000144255
0.000144256
0.000144257
0.000144257
0.000144258
0.000144259
0.000144259
0.00014426
0.00014426
0.000144261
0.000144261
0.000144262
0.000144262
0.000144263
0.000144263
0.000144264
0.000144264
0.000144264
0.000144265
0.000144265
0.000144265
0.000144265
0.000144265
0.000144266
0.000144266
0.000144266
0.000144265
0.000144265
0.000144265
0.000144264
0.000144264
0.000144263
0.000144262
0.000144262
0.000144261
0.00014426
0.00014426
0.000144259
0.000144258
0.000144258
0.000144257
0.000144257
0.000144256
0.000144256
0.000144255
0.000144255
0.000144255
0.000144254
0.000144254
0.000144254
0.000144254
0.000144253
0.000144253
0.000144253
0.000144253
0.000144253
0.000144252
0.000144252
0.000144252
0.000144252
0.000144252
0.000144252
0.000144252
0.000144252
0.000144252
0.000144252
0.000144252
0.000144252
0.000144252
0.000144252
0.000144252
0.000144253
0.000144253
0.000144254
0.000144254
0.000144254
0.000144255
0.000144255
0.000144256
0.000144256
0.000144256
0.000144257
0.000144257
0.000144257
0.000144257
0.000144257
0.000144258
0.000144258
0.000144258
0.000144258
0.000144258
0.000149033
0.000149033
0.000149032
0.000149031
0.000149029
0.000149028
0.000149027
0.000149025
0.000149024
0.000149023
0.000149023
0.000149022
0.000149022
0.000149022
0.000149021
0.000149022
0.000149022
0.000149022
0.000149023
0.000149023
0.000149024
0.000149025
0.000149025
0.000149026
0.000149027
0.000149028
0.000149028
0.000149029
0.00014903
0.000149031
0.000149031
0.000149032
0.000149033
0.000149034
0.000149034
0.000149035
0.000149036
0.000149036
0.000149037
0.000149037
0.000149038
0.000149038
0.000149039
0.000149039
0.00014904
0.00014904
0.00014904
0.000149041
0.000149041
0.000149041
0.000149041
0.000149041
0.000149041
0.000149041
0.000149041
0.000149041
0.000149041
0.00014904
0.00014904
0.000149039
0.000149038
0.000149038
0.000149037
0.000149036
0.000149036
0.000149035
0.000149034
0.000149034
0.000149033
0.000149033
0.000149032
0.000149032
0.000149031
0.000149031
0.00014903
0.00014903
0.00014903
0.000149029
0.000149029
0.000149029
0.000149029
0.000149028
0.000149028
0.000149028
0.000149028
0.000149028
0.000149028
0.000149027
0.000149027
0.000149027
0.000149027
0.000149027
0.000149027
0.000149027
0.000149027
0.000149027
0.000149027
0.000149027
0.000149028
0.000149028
0.000149028
0.000149029
0.000149029
0.00014903
0.00014903
0.00014903
0.000149031
0.000149031
0.000149032
0.000149032
0.000149032
0.000149032
0.000149033
0.000149033
0.000149033
0.000149033
0.000149033
0.000149033
0.000149033
0.000149033
0.000152969
0.000152968
0.000152967
0.000152966
0.000152965
0.000152963
0.000152962
0.000152961
0.00015296
0.000152959
0.000152958
0.000152958
0.000152958
0.000152957
0.000152957
0.000152958
0.000152958
0.000152958
0.000152959
0.000152959
0.00015296
0.000152961
0.000152961
0.000152962
0.000152963
0.000152964
0.000152964
0.000152965
0.000152966
0.000152967
0.000152968
0.000152968
0.000152969
0.00015297
0.000152971
0.000152971
0.000152972
0.000152972
0.000152973
0.000152974
0.000152974
0.000152975
0.000152975
0.000152976
0.000152976
0.000152976
0.000152977
0.000152977
0.000152977
0.000152977
0.000152978
0.000152978
0.000152978
0.000152978
0.000152977
0.000152977
0.000152977
0.000152976
0.000152976
0.000152975
0.000152974
0.000152974
0.000152973
0.000152972
0.000152972
0.000152971
0.00015297
0.00015297
0.000152969
0.000152969
0.000152968
0.000152968
0.000152967
0.000152967
0.000152966
0.000152966
0.000152966
0.000152965
0.000152965
0.000152965
0.000152964
0.000152964
0.000152964
0.000152964
0.000152964
0.000152963
0.000152963
0.000152963
0.000152963
0.000152963
0.000152963
0.000152963
0.000152963
0.000152963
0.000152963
0.000152963
0.000152963
0.000152963
0.000152963
0.000152964
0.000152964
0.000152965
0.000152965
0.000152966
0.000152966
0.000152966
0.000152967
0.000152967
0.000152968
0.000152968
0.000152968
0.000152968
0.000152968
0.000152969
0.000152969
0.000152969
0.000152969
0.000152969
0.000152969
0.000152969
0.00015622
0.000156219
0.000156218
0.000156216
0.000156215
0.000156214
0.000156213
0.000156212
0.000156211
0.00015621
0.000156209
0.000156209
0.000156209
0.000156209
0.000156209
0.000156209
0.000156209
0.000156209
0.00015621
0.00015621
0.000156211
0.000156212
0.000156212
0.000156213
0.000156214
0.000156215
0.000156216
0.000156217
0.000156217
0.000156218
0.000156219
0.00015622
0.00015622
0.000156221
0.000156222
0.000156223
0.000156223
0.000156224
0.000156225
0.000156225
0.000156226
0.000156226
0.000156227
0.000156227
0.000156227
0.000156228
0.000156228
0.000156229
0.000156229
0.000156229
0.000156229
0.000156229
0.000156229
0.000156229
0.000156229
0.000156228
0.000156228
0.000156227
0.000156227
0.000156226
0.000156225
0.000156225
0.000156224
0.000156223
0.000156223
0.000156222
0.000156221
0.000156221
0.00015622
0.00015622
0.000156219
0.000156219
0.000156218
0.000156218
0.000156217
0.000156217
0.000156217
0.000156216
0.000156216
0.000156216
0.000156216
0.000156215
0.000156215
0.000156215
0.000156215
0.000156215
0.000156214
0.000156214
0.000156214
0.000156214
0.000156214
0.000156214
0.000156214
0.000156214
0.000156214
0.000156214
0.000156214
0.000156214
0.000156215
0.000156215
0.000156215
0.000156216
0.000156216
0.000156217
0.000156217
0.000156218
0.000156218
0.000156218
0.000156219
0.000156219
0.000156219
0.000156219
0.00015622
0.00015622
0.00015622
0.00015622
0.00015622
0.00015622
0.00015622
0.00015622
0.000158907
0.000158906
0.000158905
0.000158903
0.000158902
0.000158901
0.0001589
0.000158899
0.000158898
0.000158897
0.000158897
0.000158896
0.000158896
0.000158896
0.000158896
0.000158896
0.000158897
0.000158897
0.000158898
0.000158898
0.000158899
0.000158899
0.0001589
0.000158901
0.000158902
0.000158903
0.000158903
0.000158904
0.000158905
0.000158906
0.000158907
0.000158907
0.000158908
0.000158909
0.00015891
0.00015891
0.000158911
0.000158912
0.000158912
0.000158913
0.000158913
0.000158914
0.000158914
0.000158915
0.000158915
0.000158916
0.000158916
0.000158916
0.000158917
0.000158917
0.000158917
0.000158917
0.000158917
0.000158917
0.000158917
0.000158916
0.000158915
0.000158915
0.000158914
0.000158913
0.000158913
0.000158912
0.000158911
0.000158911
0.00015891
0.000158909
0.000158909
0.000158908
0.000158908
0.000158907
0.000158907
0.000158906
0.000158906
0.000158905
0.000158905
0.000158905
0.000158904
0.000158904
0.000158904
0.000158903
0.000158903
0.000158903
0.000158903
0.000158903
0.000158902
0.000158902
0.000158902
0.000158902
0.000158902
0.000158901
0.000158901
0.000158901
0.000158901
0.000158901
0.000158901
0.000158901
0.000158902
0.000158902
0.000158902
0.000158903
0.000158903
0.000158904
0.000158904
0.000158904
0.000158905
0.000158905
0.000158906
0.000158906
0.000158906
0.000158907
0.000158907
0.000158907
0.000158907
0.000158907
0.000158907
0.000158907
0.000158907
0.000158907
0.000158907
0.000158908
0.000161126
0.000161125
0.000161124
0.000161122
0.000161121
0.00016112
0.000161119
0.000161118
0.000161117
0.000161116
0.000161116
0.000161116
0.000161115
0.000161115
0.000161115
0.000161116
0.000161116
0.000161116
0.000161117
0.000161118
0.000161118
0.000161119
0.00016112
0.00016112
0.000161121
0.000161122
0.000161123
0.000161124
0.000161124
0.000161125
0.000161126
0.000161127
0.000161128
0.000161128
0.000161129
0.00016113
0.000161131
0.000161131
0.000161132
0.000161132
0.000161133
0.000161134
0.000161134
0.000161135
0.000161135
0.000161135
0.000161136
0.000161136
0.000161136
0.000161137
0.000161137
0.000161137
0.000161137
0.000161136
0.000161136
0.000161135
0.000161135
0.000161134
0.000161133
0.000161133
0.000161132
0.000161131
0.00016113
0.00016113
0.000161129
0.000161129
0.000161128
0.000161127
0.000161127
0.000161126
0.000161126
0.000161126
0.000161125
0.000161125
0.000161124
0.000161124
0.000161124
0.000161123
0.000161123
0.000161123
0.000161123
0.000161122
0.000161122
0.000161122
0.000161122
0.000161121
0.000161121
0.000161121
0.000161121
0.000161121
0.00016112
0.00016112
0.00016112
0.00016112
0.000161121
0.000161121
0.000161121
0.000161121
0.000161122
0.000161122
0.000161123
0.000161123
0.000161123
0.000161124
0.000161124
0.000161125
0.000161125
0.000161125
0.000161126
0.000161126
0.000161126
0.000161126
0.000161126
0.000161126
0.000161126
0.000161126
0.000161126
0.000161127
0.000161126
0.000161127
0.000162952
0.000162951
0.000162949
0.000162948
0.000162947
0.000162946
0.000162945
0.000162944
0.000162943
0.000162943
0.000162942
0.000162942
0.000162942
0.000162942
0.000162942
0.000162942
0.000162942
0.000162943
0.000162943
0.000162944
0.000162945
0.000162945
0.000162946
0.000162947
0.000162948
0.000162948
0.000162949
0.00016295
0.000162951
0.000162952
0.000162953
0.000162953
0.000162954
0.000162955
0.000162956
0.000162956
0.000162957
0.000162958
0.000162958
0.000162959
0.00016296
0.00016296
0.000162961
0.000162961
0.000162962
0.000162962
0.000162962
0.000162963
0.000162963
0.000162963
0.000162963
0.000162963
0.000162963
0.000162963
0.000162962
0.000162961
0.000162961
0.00016296
0.000162959
0.000162959
0.000162958
0.000162957
0.000162957
0.000162956