/*--------------------------------*- C++ -*----------------------------------*\
  =========                 |
  \\      /  F ield         | OpenFOAM: The Open Source CFD Toolbox
   \\    /   O peration     | Website:  https://openfoam.org
    \\  /    A nd           | Version:  7
     \\/     M anipulation  |
\*---------------------------------------------------------------------------*/
FoamFile
{
    version     2.0;
    format      ascii;
    class       volScalarField;
    location    "4500";
    object      nut;
}
// * * * * * * * * * * * * * * * * * * * * * * * * * * * * * * * * * * * * * //

dimensions      [0 2 -1 0 0 0 0];

internalField   nonuniform List<scalar> 
24000
(
6.90334e-12
6.9036e-12
6.90367e-12
6.90358e-12
6.90342e-12
6.90322e-12
6.90302e-12
6.90283e-12
6.90267e-12
6.90253e-12
6.90242e-12
6.90233e-12
6.90226e-12
6.9022e-12
6.90217e-12
6.90215e-12
6.90215e-12
6.90215e-12
6.90217e-12
6.9022e-12
6.90223e-12
6.90227e-12
6.90231e-12
6.90236e-12
6.90241e-12
6.90246e-12
6.90251e-12
6.90257e-12
6.90262e-12
6.90268e-12
6.90273e-12
6.90279e-12
6.90284e-12
6.9029e-12
6.90295e-12
6.903e-12
6.90305e-12
6.9031e-12
6.90314e-12
6.90319e-12
6.90323e-12
6.90327e-12
6.90331e-12
6.90334e-12
6.90338e-12
6.9034e-12
6.90342e-12
6.90344e-12
6.90346e-12
6.90348e-12
6.90351e-12
6.90353e-12
6.90355e-12
6.90356e-12
6.90358e-12
6.90359e-12
6.9036e-12
6.9036e-12
6.90359e-12
6.90358e-12
6.90356e-12
6.90353e-12
6.90349e-12
6.90345e-12
6.90341e-12
6.90336e-12
6.90331e-12
6.90327e-12
6.90322e-12
6.90317e-12
6.90313e-12
6.90309e-12
6.90305e-12
6.90301e-12
6.90298e-12
6.90294e-12
6.90291e-12
6.90288e-12
6.90286e-12
6.90284e-12
6.90281e-12
6.9028e-12
6.90278e-12
6.90276e-12
6.90275e-12
6.90274e-12
6.90273e-12
6.90272e-12
6.90271e-12
6.9027e-12
6.90269e-12
6.90268e-12
6.90267e-12
6.90266e-12
6.90266e-12
6.90265e-12
6.90265e-12
6.90265e-12
6.90266e-12
6.90267e-12
6.90268e-12
6.9027e-12
6.90272e-12
6.90274e-12
6.90276e-12
6.90279e-12
6.90281e-12
6.90283e-12
6.90286e-12
6.90289e-12
6.90292e-12
6.90295e-12
6.90298e-12
6.903e-12
6.90303e-12
6.90305e-12
6.90307e-12
6.90308e-12
6.90311e-12
6.90303e-12
1.2006e-09
1.20065e-09
1.20066e-09
1.20064e-09
1.20061e-09
1.20058e-09
1.20054e-09
1.20051e-09
1.20048e-09
1.20046e-09
1.20044e-09
1.20042e-09
1.20041e-09
1.2004e-09
1.2004e-09
1.20039e-09
1.20039e-09
1.20039e-09
1.2004e-09
1.2004e-09
1.20041e-09
1.20041e-09
1.20042e-09
1.20043e-09
1.20044e-09
1.20045e-09
1.20046e-09
1.20047e-09
1.20048e-09
1.20049e-09
1.20049e-09
1.2005e-09
1.20051e-09
1.20052e-09
1.20053e-09
1.20054e-09
1.20055e-09
1.20056e-09
1.20057e-09
1.20057e-09
1.20058e-09
1.20059e-09
1.2006e-09
1.2006e-09
1.20061e-09
1.20061e-09
1.20061e-09
1.20062e-09
1.20062e-09
1.20063e-09
1.20063e-09
1.20063e-09
1.20064e-09
1.20064e-09
1.20064e-09
1.20064e-09
1.20065e-09
1.20065e-09
1.20064e-09
1.20064e-09
1.20064e-09
1.20063e-09
1.20063e-09
1.20062e-09
1.20061e-09
1.2006e-09
1.2006e-09
1.20059e-09
1.20058e-09
1.20057e-09
1.20056e-09
1.20056e-09
1.20055e-09
1.20054e-09
1.20054e-09
1.20053e-09
1.20053e-09
1.20052e-09
1.20052e-09
1.20051e-09
1.20051e-09
1.20051e-09
1.2005e-09
1.2005e-09
1.2005e-09
1.2005e-09
1.20049e-09
1.20049e-09
1.20049e-09
1.20049e-09
1.20049e-09
1.20049e-09
1.20048e-09
1.20048e-09
1.20048e-09
1.20048e-09
1.20048e-09
1.20048e-09
1.20048e-09
1.20048e-09
1.20049e-09
1.20049e-09
1.20049e-09
1.2005e-09
1.2005e-09
1.2005e-09
1.20051e-09
1.20051e-09
1.20052e-09
1.20052e-09
1.20053e-09
1.20053e-09
1.20054e-09
1.20054e-09
1.20055e-09
1.20055e-09
1.20055e-09
1.20056e-09
1.20056e-09
1.20055e-09
2.5685e-08
2.5686e-08
2.56862e-08
2.56859e-08
2.56853e-08
2.56845e-08
2.56838e-08
2.56831e-08
2.56825e-08
2.5682e-08
2.56816e-08
2.56812e-08
2.5681e-08
2.56808e-08
2.56807e-08
2.56806e-08
2.56806e-08
2.56806e-08
2.56807e-08
2.56808e-08
2.56809e-08
2.5681e-08
2.56812e-08
2.56814e-08
2.56815e-08
2.56817e-08
2.56819e-08
2.56821e-08
2.56823e-08
2.56825e-08
2.56827e-08
2.56829e-08
2.56831e-08
2.56833e-08
2.56835e-08
2.56837e-08
2.56839e-08
2.56841e-08
2.56843e-08
2.56844e-08
2.56846e-08
2.56847e-08
2.56849e-08
2.5685e-08
2.56851e-08
2.56852e-08
2.56853e-08
2.56854e-08
2.56854e-08
2.56855e-08
2.56856e-08
2.56857e-08
2.56857e-08
2.56858e-08
2.56859e-08
2.56859e-08
2.56859e-08
2.56859e-08
2.56859e-08
2.56859e-08
2.56858e-08
2.56857e-08
2.56855e-08
2.56854e-08
2.56852e-08
2.56851e-08
2.56849e-08
2.56847e-08
2.56845e-08
2.56844e-08
2.56842e-08
2.5684e-08
2.56839e-08
2.56838e-08
2.56836e-08
2.56835e-08
2.56834e-08
2.56833e-08
2.56832e-08
2.56831e-08
2.5683e-08
2.5683e-08
2.56829e-08
2.56828e-08
2.56828e-08
2.56827e-08
2.56827e-08
2.56827e-08
2.56826e-08
2.56826e-08
2.56826e-08
2.56825e-08
2.56825e-08
2.56825e-08
2.56824e-08
2.56824e-08
2.56824e-08
2.56824e-08
2.56824e-08
2.56825e-08
2.56825e-08
2.56826e-08
2.56827e-08
2.56828e-08
2.56828e-08
2.56829e-08
2.5683e-08
2.56831e-08
2.56832e-08
2.56833e-08
2.56834e-08
2.56835e-08
2.56836e-08
2.56837e-08
2.56838e-08
2.56839e-08
2.5684e-08
2.5684e-08
2.56841e-08
2.56838e-08
1.96987e-07
1.96994e-07
1.96995e-07
1.96992e-07
1.96987e-07
1.96982e-07
1.96976e-07
1.96971e-07
1.96967e-07
1.96963e-07
1.96959e-07
1.96957e-07
1.96955e-07
1.96954e-07
1.96953e-07
1.96952e-07
1.96952e-07
1.96952e-07
1.96953e-07
1.96954e-07
1.96955e-07
1.96956e-07
1.96957e-07
1.96958e-07
1.9696e-07
1.96961e-07
1.96963e-07
1.96964e-07
1.96966e-07
1.96967e-07
1.96969e-07
1.9697e-07
1.96972e-07
1.96973e-07
1.96975e-07
1.96976e-07
1.96978e-07
1.96979e-07
1.9698e-07
1.96981e-07
1.96983e-07
1.96984e-07
1.96985e-07
1.96986e-07
1.96987e-07
1.96987e-07
1.96988e-07
1.96988e-07
1.96989e-07
1.96989e-07
1.9699e-07
1.96991e-07
1.96991e-07
1.96992e-07
1.96992e-07
1.96993e-07
1.96993e-07
1.96993e-07
1.96993e-07
1.96992e-07
1.96991e-07
1.96991e-07
1.9699e-07
1.96988e-07
1.96987e-07
1.96986e-07
1.96985e-07
1.96983e-07
1.96982e-07
1.96981e-07
1.96979e-07
1.96978e-07
1.96977e-07
1.96976e-07
1.96975e-07
1.96974e-07
1.96973e-07
1.96973e-07
1.96972e-07
1.96971e-07
1.96971e-07
1.9697e-07
1.9697e-07
1.96969e-07
1.96969e-07
1.96968e-07
1.96968e-07
1.96968e-07
1.96968e-07
1.96967e-07
1.96967e-07
1.96967e-07
1.96967e-07
1.96966e-07
1.96966e-07
1.96966e-07
1.96966e-07
1.96966e-07
1.96966e-07
1.96967e-07
1.96967e-07
1.96967e-07
1.96968e-07
1.96969e-07
1.96969e-07
1.9697e-07
1.96971e-07
1.96971e-07
1.96972e-07
1.96973e-07
1.96974e-07
1.96975e-07
1.96975e-07
1.96976e-07
1.96977e-07
1.96977e-07
1.96978e-07
1.96978e-07
1.96979e-07
1.96977e-07
8.40783e-07
8.40804e-07
8.40805e-07
8.40792e-07
8.40771e-07
8.40748e-07
8.40725e-07
8.40703e-07
8.40685e-07
8.40669e-07
8.40656e-07
8.40646e-07
8.40638e-07
8.40633e-07
8.40629e-07
8.40628e-07
8.40628e-07
8.40629e-07
8.40631e-07
8.40634e-07
8.40638e-07
8.40643e-07
8.40648e-07
8.40654e-07
8.4066e-07
8.40666e-07
8.40672e-07
8.40678e-07
8.40685e-07
8.40691e-07
8.40697e-07
8.40704e-07
8.4071e-07
8.40716e-07
8.40722e-07
8.40727e-07
8.40733e-07
8.40738e-07
8.40743e-07
8.40748e-07
8.40753e-07
8.40758e-07
8.40762e-07
8.40766e-07
8.40769e-07
8.40772e-07
8.40774e-07
8.40776e-07
8.40778e-07
8.40781e-07
8.40783e-07
8.40786e-07
8.40788e-07
8.4079e-07
8.40792e-07
8.40793e-07
8.40794e-07
8.40794e-07
8.40793e-07
8.40791e-07
8.40788e-07
8.40785e-07
8.40781e-07
8.40776e-07
8.40771e-07
8.40765e-07
8.4076e-07
8.40754e-07
8.40749e-07
8.40743e-07
8.40738e-07
8.40734e-07
8.40729e-07
8.40725e-07
8.40721e-07
8.40717e-07
8.40714e-07
8.40711e-07
8.40708e-07
8.40705e-07
8.40703e-07
8.40701e-07
8.40699e-07
8.40697e-07
8.40696e-07
8.40694e-07
8.40693e-07
8.40692e-07
8.40691e-07
8.4069e-07
8.40689e-07
8.40688e-07
8.40687e-07
8.40686e-07
8.40685e-07
8.40685e-07
8.40684e-07
8.40684e-07
8.40685e-07
8.40686e-07
8.40688e-07
8.4069e-07
8.40692e-07
8.40695e-07
8.40698e-07
8.407e-07
8.40703e-07
8.40706e-07
8.40709e-07
8.40712e-07
8.40716e-07
8.40719e-07
8.40723e-07
8.40726e-07
8.40729e-07
8.40731e-07
8.40733e-07
8.40735e-07
8.40737e-07
8.40727e-07
2.42027e-06
2.42031e-06
2.42029e-06
2.42024e-06
2.42019e-06
2.42012e-06
2.42006e-06
2.42e-06
2.41995e-06
2.41991e-06
2.41987e-06
2.41985e-06
2.41983e-06
2.41981e-06
2.4198e-06
2.4198e-06
2.4198e-06
2.4198e-06
2.41981e-06
2.41982e-06
2.41983e-06
2.41985e-06
2.41986e-06
2.41988e-06
2.41989e-06
2.41991e-06
2.41993e-06
2.41994e-06
2.41996e-06
2.41998e-06
2.42e-06
2.42001e-06
2.42003e-06
2.42005e-06
2.42006e-06
2.42008e-06
2.42009e-06
2.42011e-06
2.42012e-06
2.42013e-06
2.42015e-06
2.42016e-06
2.42017e-06
2.42018e-06
2.42019e-06
2.42019e-06
2.4202e-06
2.42021e-06
2.42021e-06
2.42022e-06
2.42022e-06
2.42023e-06
2.42024e-06
2.42024e-06
2.42025e-06
2.42025e-06
2.42025e-06
2.42025e-06
2.42025e-06
2.42024e-06
2.42024e-06
2.42023e-06
2.42021e-06
2.4202e-06
2.42019e-06
2.42017e-06
2.42016e-06
2.42014e-06
2.42013e-06
2.42011e-06
2.4201e-06
2.42008e-06
2.42007e-06
2.42006e-06
2.42005e-06
2.42004e-06
2.42003e-06
2.42002e-06
2.42002e-06
2.42001e-06
2.42e-06
2.42e-06
2.41999e-06
2.41999e-06
2.41998e-06
2.41998e-06
2.41998e-06
2.41997e-06
2.41997e-06
2.41997e-06
2.41997e-06
2.41996e-06
2.41996e-06
2.41996e-06
2.41996e-06
2.41995e-06
2.41995e-06
2.41995e-06
2.41996e-06
2.41996e-06
2.41996e-06
2.41997e-06
2.41998e-06
2.41998e-06
2.41999e-06
2.42e-06
2.42e-06
2.42001e-06
2.42002e-06
2.42003e-06
2.42004e-06
2.42005e-06
2.42006e-06
2.42007e-06
2.42007e-06
2.42008e-06
2.42009e-06
2.42009e-06
2.4201e-06
2.42006e-06
5.25659e-06
5.25662e-06
5.25654e-06
5.25643e-06
5.2563e-06
5.25616e-06
5.25603e-06
5.25592e-06
5.25581e-06
5.25573e-06
5.25566e-06
5.25561e-06
5.25557e-06
5.25554e-06
5.25553e-06
5.25552e-06
5.25553e-06
5.25554e-06
5.25555e-06
5.25557e-06
5.2556e-06
5.25563e-06
5.25566e-06
5.25569e-06
5.25572e-06
5.25576e-06
5.2558e-06
5.25583e-06
5.25587e-06
5.2559e-06
5.25594e-06
5.25597e-06
5.25601e-06
5.25604e-06
5.25607e-06
5.2561e-06
5.25613e-06
5.25616e-06
5.25619e-06
5.25621e-06
5.25624e-06
5.25626e-06
5.25628e-06
5.2563e-06
5.25632e-06
5.25633e-06
5.25634e-06
5.25635e-06
5.25636e-06
5.25637e-06
5.25639e-06
5.2564e-06
5.25641e-06
5.25642e-06
5.25643e-06
5.25644e-06
5.25644e-06
5.25644e-06
5.25643e-06
5.25642e-06
5.25641e-06
5.25638e-06
5.25636e-06
5.25633e-06
5.2563e-06
5.25627e-06
5.25624e-06
5.25621e-06
5.25618e-06
5.25615e-06
5.25612e-06
5.2561e-06
5.25607e-06
5.25605e-06
5.25603e-06
5.25601e-06
5.25599e-06
5.25597e-06
5.25596e-06
5.25594e-06
5.25593e-06
5.25592e-06
5.25591e-06
5.2559e-06
5.25589e-06
5.25589e-06
5.25588e-06
5.25588e-06
5.25587e-06
5.25587e-06
5.25586e-06
5.25585e-06
5.25585e-06
5.25584e-06
5.25584e-06
5.25584e-06
5.25584e-06
5.25584e-06
5.25584e-06
5.25585e-06
5.25586e-06
5.25587e-06
5.25588e-06
5.2559e-06
5.25592e-06
5.25593e-06
5.25594e-06
5.25596e-06
5.25598e-06
5.25599e-06
5.25601e-06
5.25603e-06
5.25605e-06
5.25607e-06
5.25608e-06
5.2561e-06
5.25611e-06
5.25612e-06
5.25613e-06
5.25605e-06
9.35914e-06
9.35917e-06
9.35899e-06
9.35876e-06
9.35853e-06
9.3583e-06
9.35809e-06
9.35789e-06
9.35773e-06
9.35759e-06
9.35748e-06
9.35739e-06
9.35733e-06
9.35729e-06
9.35727e-06
9.35726e-06
9.35727e-06
9.35729e-06
9.35731e-06
9.35735e-06
9.3574e-06
9.35745e-06
9.3575e-06
9.35756e-06
9.35762e-06
9.35768e-06
9.35774e-06
9.3578e-06
9.35786e-06
9.35792e-06
9.35798e-06
9.35804e-06
9.3581e-06
9.35815e-06
9.3582e-06
9.35826e-06
9.35831e-06
9.35835e-06
9.3584e-06
9.35844e-06
9.35848e-06
9.35852e-06
9.35856e-06
9.35859e-06
9.35862e-06
9.35864e-06
9.35866e-06
9.35867e-06
9.35868e-06
9.3587e-06
9.35872e-06
9.35874e-06
9.35876e-06
9.35878e-06
9.35879e-06
9.3588e-06
9.3588e-06
9.3588e-06
9.35879e-06
9.35877e-06
9.35874e-06
9.3587e-06
9.35866e-06
9.35861e-06
9.35856e-06
9.35851e-06
9.35846e-06
9.35841e-06
9.35836e-06
9.35831e-06
9.35826e-06
9.35822e-06
9.35818e-06
9.35814e-06
9.3581e-06
9.35807e-06
9.35804e-06
9.35801e-06
9.35799e-06
9.35797e-06
9.35795e-06
9.35793e-06
9.35791e-06
9.3579e-06
9.35789e-06
9.35787e-06
9.35786e-06
9.35786e-06
9.35785e-06
9.35784e-06
9.35783e-06
9.35782e-06
9.35781e-06
9.35781e-06
9.3578e-06
9.3578e-06
9.35779e-06
9.3578e-06
9.35781e-06
9.35782e-06
9.35783e-06
9.35785e-06
9.35788e-06
9.3579e-06
9.35793e-06
9.35795e-06
9.35798e-06
9.358e-06
9.35803e-06
9.35806e-06
9.35809e-06
9.35812e-06
9.35815e-06
9.35818e-06
9.35821e-06
9.35823e-06
9.35825e-06
9.35826e-06
9.35829e-06
9.35813e-06
1.45387e-05
1.45388e-05
1.45385e-05
1.45381e-05
1.45377e-05
1.45374e-05
1.45371e-05
1.45368e-05
1.45366e-05
1.45364e-05
1.45362e-05
1.45361e-05
1.4536e-05
1.45359e-05
1.45359e-05
1.45359e-05
1.45359e-05
1.45359e-05
1.4536e-05
1.4536e-05
1.45361e-05
1.45362e-05
1.45363e-05
1.45364e-05
1.45365e-05
1.45365e-05
1.45366e-05
1.45367e-05
1.45368e-05
1.45369e-05
1.4537e-05
1.45371e-05
1.45372e-05
1.45373e-05
1.45373e-05
1.45374e-05
1.45375e-05
1.45376e-05
1.45376e-05
1.45377e-05
1.45378e-05
1.45378e-05
1.45379e-05
1.45379e-05
1.45379e-05
1.4538e-05
1.4538e-05
1.4538e-05
1.4538e-05
1.45381e-05
1.45381e-05
1.45381e-05
1.45381e-05
1.45382e-05
1.45382e-05
1.45382e-05
1.45382e-05
1.45382e-05
1.45382e-05
1.45381e-05
1.45381e-05
1.4538e-05
1.4538e-05
1.45379e-05
1.45378e-05
1.45378e-05
1.45377e-05
1.45376e-05
1.45375e-05
1.45375e-05
1.45374e-05
1.45373e-05
1.45373e-05
1.45372e-05
1.45372e-05
1.45371e-05
1.45371e-05
1.4537e-05
1.4537e-05
1.4537e-05
1.45369e-05
1.45369e-05
1.45369e-05
1.45369e-05
1.45368e-05
1.45368e-05
1.45368e-05
1.45368e-05
1.45368e-05
1.45368e-05
1.45368e-05
1.45367e-05
1.45367e-05
1.45367e-05
1.45367e-05
1.45367e-05
1.45367e-05
1.45367e-05
1.45367e-05
1.45368e-05
1.45368e-05
1.45368e-05
1.45368e-05
1.45369e-05
1.45369e-05
1.4537e-05
1.4537e-05
1.4537e-05
1.45371e-05
1.45371e-05
1.45372e-05
1.45372e-05
1.45372e-05
1.45373e-05
1.45373e-05
1.45374e-05
1.45374e-05
1.45374e-05
1.45374e-05
1.45372e-05
2.05757e-05
2.05758e-05
2.05754e-05
2.05749e-05
2.05744e-05
2.0574e-05
2.05736e-05
2.05732e-05
2.05729e-05
2.05727e-05
2.05724e-05
2.05723e-05
2.05722e-05
2.05721e-05
2.05721e-05
2.0572e-05
2.05721e-05
2.05721e-05
2.05722e-05
2.05723e-05
2.05724e-05
2.05725e-05
2.05726e-05
2.05727e-05
2.05728e-05
2.0573e-05
2.05731e-05
2.05732e-05
2.05734e-05
2.05735e-05
2.05736e-05
2.05737e-05
2.05739e-05
2.0574e-05
2.05741e-05
2.05742e-05
2.05743e-05
2.05744e-05
2.05745e-05
2.05746e-05
2.05746e-05
2.05747e-05
2.05748e-05
2.05749e-05
2.05749e-05
2.0575e-05
2.0575e-05
2.0575e-05
2.05751e-05
2.05751e-05
2.05751e-05
2.05751e-05
2.05752e-05
2.05752e-05
2.05752e-05
2.05752e-05
2.05752e-05
2.05752e-05
2.05752e-05
2.05751e-05
2.05751e-05
2.0575e-05
2.05749e-05
2.05748e-05
2.05747e-05
2.05746e-05
2.05745e-05
2.05744e-05
2.05743e-05
2.05742e-05
2.05741e-05
2.0574e-05
2.0574e-05
2.05739e-05
2.05738e-05
2.05737e-05
2.05737e-05
2.05736e-05
2.05736e-05
2.05735e-05
2.05735e-05
2.05735e-05
2.05734e-05
2.05734e-05
2.05734e-05
2.05733e-05
2.05733e-05
2.05733e-05
2.05733e-05
2.05733e-05
2.05733e-05
2.05732e-05
2.05732e-05
2.05732e-05
2.05732e-05
2.05732e-05
2.05732e-05
2.05732e-05
2.05732e-05
2.05733e-05
2.05733e-05
2.05733e-05
2.05734e-05
2.05734e-05
2.05735e-05
2.05735e-05
2.05736e-05
2.05736e-05
2.05737e-05
2.05737e-05
2.05738e-05
2.05739e-05
2.05739e-05
2.0574e-05
2.0574e-05
2.05741e-05
2.05741e-05
2.05741e-05
2.05742e-05
2.05739e-05
2.72933e-05
2.72933e-05
2.72929e-05
2.72923e-05
2.72917e-05
2.72911e-05
2.72906e-05
2.72902e-05
2.72898e-05
2.72895e-05
2.72892e-05
2.7289e-05
2.72889e-05
2.72888e-05
2.72888e-05
2.72888e-05
2.72888e-05
2.72888e-05
2.72889e-05
2.7289e-05
2.72892e-05
2.72893e-05
2.72895e-05
2.72896e-05
2.72898e-05
2.729e-05
2.72901e-05
2.72903e-05
2.72905e-05
2.72907e-05
2.72908e-05
2.7291e-05
2.72911e-05
2.72913e-05
2.72914e-05
2.72916e-05
2.72917e-05
2.72918e-05
2.7292e-05
2.72921e-05
2.72922e-05
2.72923e-05
2.72924e-05
2.72925e-05
2.72926e-05
2.72926e-05
2.72927e-05
2.72927e-05
2.72927e-05
2.72928e-05
2.72928e-05
2.72928e-05
2.72929e-05
2.72929e-05
2.72929e-05
2.7293e-05
2.72929e-05
2.72929e-05
2.72929e-05
2.72928e-05
2.72927e-05
2.72926e-05
2.72925e-05
2.72924e-05
2.72923e-05
2.72921e-05
2.7292e-05
2.72919e-05
2.72917e-05
2.72916e-05
2.72915e-05
2.72914e-05
2.72913e-05
2.72912e-05
2.72911e-05
2.7291e-05
2.72909e-05
2.72908e-05
2.72908e-05
2.72907e-05
2.72907e-05
2.72906e-05
2.72906e-05
2.72905e-05
2.72905e-05
2.72905e-05
2.72905e-05
2.72904e-05
2.72904e-05
2.72904e-05
2.72904e-05
2.72903e-05
2.72903e-05
2.72903e-05
2.72903e-05
2.72903e-05
2.72903e-05
2.72903e-05
2.72903e-05
2.72904e-05
2.72904e-05
2.72905e-05
2.72906e-05
2.72906e-05
2.72907e-05
2.72908e-05
2.72908e-05
2.72909e-05
2.72909e-05
2.7291e-05
2.72911e-05
2.72912e-05
2.72912e-05
2.72913e-05
2.72913e-05
2.72914e-05
2.72915e-05
2.72915e-05
2.72916e-05
2.72912e-05
3.45635e-05
3.45636e-05
3.4563e-05
3.45624e-05
3.45617e-05
3.4561e-05
3.45605e-05
3.456e-05
3.45595e-05
3.45592e-05
3.45589e-05
3.45587e-05
3.45585e-05
3.45584e-05
3.45584e-05
3.45584e-05
3.45584e-05
3.45585e-05
3.45586e-05
3.45587e-05
3.45589e-05
3.45591e-05
3.45593e-05
3.45595e-05
3.45597e-05
3.45599e-05
3.45601e-05
3.45603e-05
3.45606e-05
3.45608e-05
3.4561e-05
3.45612e-05
3.45614e-05
3.45616e-05
3.45618e-05
3.4562e-05
3.45621e-05
3.45623e-05
3.45625e-05
3.45626e-05
3.45627e-05
3.45629e-05
3.4563e-05
3.45631e-05
3.45632e-05
3.45633e-05
3.45634e-05
3.45634e-05
3.45635e-05
3.45635e-05
3.45635e-05
3.45636e-05
3.45636e-05
3.45637e-05
3.45637e-05
3.45637e-05
3.45637e-05
3.45636e-05
3.45636e-05
3.45635e-05
3.45634e-05
3.45633e-05
3.45631e-05
3.4563e-05
3.45628e-05
3.45627e-05
3.45625e-05
3.45623e-05
3.45622e-05
3.4562e-05
3.45619e-05
3.45617e-05
3.45616e-05
3.45615e-05
3.45613e-05
3.45612e-05
3.45611e-05
3.4561e-05
3.4561e-05
3.45609e-05
3.45608e-05
3.45608e-05
3.45607e-05
3.45607e-05
3.45606e-05
3.45606e-05
3.45605e-05
3.45605e-05
3.45605e-05
3.45604e-05
3.45604e-05
3.45604e-05
3.45604e-05
3.45603e-05
3.45603e-05
3.45603e-05
3.45603e-05
3.45604e-05
3.45604e-05
3.45605e-05
3.45605e-05
3.45606e-05
3.45607e-05
3.45608e-05
3.45609e-05
3.4561e-05
3.4561e-05
3.45611e-05
3.45612e-05
3.45613e-05
3.45613e-05
3.45614e-05
3.45615e-05
3.45616e-05
3.45617e-05
3.45617e-05
3.45618e-05
3.45618e-05
3.45619e-05
3.45616e-05
4.22967e-05
4.22966e-05
4.2296e-05
4.22953e-05
4.22945e-05
4.22938e-05
4.22932e-05
4.22927e-05
4.22922e-05
4.22918e-05
4.22915e-05
4.22913e-05
4.22911e-05
4.2291e-05
4.22909e-05
4.2291e-05
4.2291e-05
4.22911e-05
4.22913e-05
4.22914e-05
4.22916e-05
4.22919e-05
4.22921e-05
4.22923e-05
4.22926e-05
4.22929e-05
4.22931e-05
4.22934e-05
4.22937e-05
4.22939e-05
4.22942e-05
4.22944e-05
4.22947e-05
4.22949e-05
4.22952e-05
4.22954e-05
4.22956e-05
4.22958e-05
4.2296e-05
4.22962e-05
4.22964e-05
4.22965e-05
4.22967e-05
4.22968e-05
4.2297e-05
4.22971e-05
4.22972e-05
4.22972e-05
4.22973e-05
4.22973e-05
4.22974e-05
4.22974e-05
4.22975e-05
4.22975e-05
4.22975e-05
4.22975e-05
4.22975e-05
4.22975e-05
4.22974e-05
4.22973e-05
4.22971e-05
4.2297e-05
4.22968e-05
4.22966e-05
4.22964e-05
4.22962e-05
4.2296e-05
4.22959e-05
4.22957e-05
4.22955e-05
4.22953e-05
4.22951e-05
4.2295e-05
4.22948e-05
4.22947e-05
4.22945e-05
4.22944e-05
4.22943e-05
4.22942e-05
4.22941e-05
4.2294e-05
4.22939e-05
4.22939e-05
4.22938e-05
4.22938e-05
4.22937e-05
4.22937e-05
4.22936e-05
4.22936e-05
4.22935e-05
4.22935e-05
4.22935e-05
4.22934e-05
4.22934e-05
4.22934e-05
4.22934e-05
4.22934e-05
4.22935e-05
4.22935e-05
4.22936e-05
4.22937e-05
4.22938e-05
4.22939e-05
4.2294e-05
4.22941e-05
4.22942e-05
4.22943e-05
4.22944e-05
4.22945e-05
4.22946e-05
4.22947e-05
4.22948e-05
4.22949e-05
4.2295e-05
4.2295e-05
4.22951e-05
4.22952e-05
4.22952e-05
4.22953e-05
4.22951e-05
5.04288e-05
5.04285e-05
5.04278e-05
5.04271e-05
5.04263e-05
5.04256e-05
5.0425e-05
5.04245e-05
5.0424e-05
5.04236e-05
5.04233e-05
5.0423e-05
5.04228e-05
5.04227e-05
5.04227e-05
5.04227e-05
5.04228e-05
5.0423e-05
5.04231e-05
5.04233e-05
5.04236e-05
5.04238e-05
5.04241e-05
5.04244e-05
5.04247e-05
5.0425e-05
5.04254e-05
5.04257e-05
5.0426e-05
5.04263e-05
5.04266e-05
5.04269e-05
5.04272e-05
5.04275e-05
5.04278e-05
5.04281e-05
5.04283e-05
5.04286e-05
5.04288e-05
5.04291e-05
5.04293e-05
5.04295e-05
5.04297e-05
5.04299e-05
5.043e-05
5.04302e-05
5.04303e-05
5.04304e-05
5.04304e-05
5.04305e-05
5.04306e-05
5.04306e-05
5.04307e-05
5.04307e-05
5.04307e-05
5.04307e-05
5.04306e-05
5.04306e-05
5.04304e-05
5.04303e-05
5.04301e-05
5.04299e-05
5.04297e-05
5.04295e-05
5.04293e-05
5.04291e-05
5.04289e-05
5.04286e-05
5.04284e-05
5.04282e-05
5.0428e-05
5.04278e-05
5.04276e-05
5.04274e-05
5.04273e-05
5.04271e-05
5.04269e-05
5.04268e-05
5.04267e-05
5.04266e-05
5.04265e-05
5.04264e-05
5.04263e-05
5.04262e-05
5.04261e-05
5.04261e-05
5.0426e-05
5.0426e-05
5.04259e-05
5.04259e-05
5.04258e-05
5.04258e-05
5.04257e-05
5.04257e-05
5.04257e-05
5.04257e-05
5.04257e-05
5.04258e-05
5.04259e-05
5.04259e-05
5.04261e-05
5.04262e-05
5.04263e-05
5.04265e-05
5.04266e-05
5.04267e-05
5.04269e-05
5.0427e-05
5.04271e-05
5.04272e-05
5.04273e-05
5.04274e-05
5.04275e-05
5.04276e-05
5.04277e-05
5.04278e-05
5.04278e-05
5.04279e-05
5.04279e-05
5.04279e-05
5.8914e-05
5.89134e-05
5.89126e-05
5.89119e-05
5.89111e-05
5.89104e-05
5.89098e-05
5.89093e-05
5.89088e-05
5.89084e-05
5.89081e-05
5.89079e-05
5.89077e-05
5.89077e-05
5.89077e-05
5.89077e-05
5.89078e-05
5.8908e-05
5.89082e-05
5.89085e-05
5.89087e-05
5.8909e-05
5.89094e-05
5.89097e-05
5.89101e-05
5.89104e-05
5.89108e-05
5.89112e-05
5.89115e-05
5.89119e-05
5.89123e-05
5.89126e-05
5.8913e-05
5.89133e-05
5.89137e-05
5.8914e-05
5.89143e-05
5.89146e-05
5.89149e-05
5.89152e-05
5.89154e-05
5.89157e-05
5.89159e-05
5.89161e-05
5.89163e-05
5.89165e-05
5.89166e-05
5.89168e-05
5.89169e-05
5.89169e-05
5.8917e-05
5.89171e-05
5.89171e-05
5.89172e-05
5.89172e-05
5.89171e-05
5.8917e-05
5.89169e-05
5.89168e-05
5.89166e-05
5.89164e-05
5.89162e-05
5.89159e-05
5.89157e-05
5.89154e-05
5.89152e-05
5.89149e-05
5.89146e-05
5.89144e-05
5.89141e-05
5.89139e-05
5.89137e-05
5.89135e-05
5.89132e-05
5.8913e-05
5.89129e-05
5.89127e-05
5.89125e-05
5.89124e-05
5.89122e-05
5.89121e-05
5.8912e-05
5.89119e-05
5.89118e-05
5.89117e-05
5.89116e-05
5.89116e-05
5.89115e-05
5.89114e-05
5.89114e-05
5.89113e-05
5.89113e-05
5.89112e-05
5.89112e-05
5.89112e-05
5.89112e-05
5.89112e-05
5.89113e-05
5.89114e-05
5.89115e-05
5.89117e-05
5.89118e-05
5.8912e-05
5.89122e-05
5.89123e-05
5.89125e-05
5.89126e-05
5.89128e-05
5.89129e-05
5.8913e-05
5.89131e-05
5.89132e-05
5.89134e-05
5.89135e-05
5.89136e-05
5.89137e-05
5.89137e-05
5.89138e-05
5.89138e-05
5.8914e-05
6.77187e-05
6.77177e-05
6.77168e-05
6.7716e-05
6.77153e-05
6.77146e-05
6.7714e-05
6.77135e-05
6.77131e-05
6.77128e-05
6.77125e-05
6.77123e-05
6.77122e-05
6.77122e-05
6.77122e-05
6.77123e-05
6.77124e-05
6.77127e-05
6.77129e-05
6.77132e-05
6.77135e-05
6.77139e-05
6.77142e-05
6.77146e-05
6.7715e-05
6.77155e-05
6.77159e-05
6.77163e-05
6.77167e-05
6.77172e-05
6.77176e-05
6.7718e-05
6.77184e-05
6.77188e-05
6.77192e-05
6.77196e-05
6.772e-05
6.77203e-05
6.77206e-05
6.7721e-05
6.77213e-05
6.77216e-05
6.77218e-05
6.77221e-05
6.77223e-05
6.77225e-05
6.77227e-05
6.77229e-05
6.7723e-05
6.77231e-05
6.77232e-05
6.77233e-05
6.77233e-05
6.77233e-05
6.77233e-05
6.77232e-05
6.77231e-05
6.7723e-05
6.77228e-05
6.77225e-05
6.77223e-05
6.7722e-05
6.77217e-05
6.77214e-05
6.77211e-05
6.77208e-05
6.77206e-05
6.77203e-05
6.772e-05
6.77197e-05
6.77194e-05
6.77192e-05
6.77189e-05
6.77187e-05
6.77184e-05
6.77182e-05
6.7718e-05
6.77179e-05
6.77177e-05
6.77175e-05
6.77174e-05
6.77172e-05
6.77171e-05
6.7717e-05
6.77169e-05
6.77168e-05
6.77167e-05
6.77166e-05
6.77165e-05
6.77165e-05
6.77164e-05
6.77163e-05
6.77163e-05
6.77163e-05
6.77163e-05
6.77163e-05
6.77163e-05
6.77164e-05
6.77166e-05
6.77167e-05
6.77169e-05
6.77171e-05
6.77173e-05
6.77175e-05
6.77177e-05
6.77179e-05
6.77181e-05
6.77182e-05
6.77184e-05
6.77185e-05
6.77186e-05
6.77188e-05
6.77189e-05
6.7719e-05
6.77191e-05
6.77192e-05
6.77193e-05
6.77194e-05
6.77194e-05
6.77199e-05
7.68181e-05
7.68167e-05
7.68157e-05
7.68149e-05
7.68142e-05
7.68136e-05
7.68131e-05
7.68126e-05
7.68123e-05
7.6812e-05
7.68118e-05
7.68116e-05
7.68116e-05
7.68116e-05
7.68117e-05
7.68118e-05
7.68121e-05
7.68123e-05
7.68126e-05
7.6813e-05
7.68133e-05
7.68137e-05
7.68142e-05
7.68146e-05
7.68151e-05
7.68155e-05
7.6816e-05
7.68165e-05
7.6817e-05
7.68175e-05
7.68179e-05
7.68184e-05
7.68189e-05
7.68193e-05
7.68198e-05
7.68202e-05
7.68206e-05
7.6821e-05
7.68214e-05
7.68218e-05
7.68222e-05
7.68225e-05
7.68228e-05
7.68231e-05
7.68234e-05
7.68236e-05
7.68239e-05
7.6824e-05
7.68242e-05
7.68243e-05
7.68244e-05
7.68245e-05
7.68246e-05
7.68246e-05
7.68245e-05
7.68244e-05
7.68242e-05
7.6824e-05
7.68238e-05
7.68235e-05
7.68232e-05
7.68228e-05
7.68225e-05
7.68222e-05
7.68218e-05
7.68215e-05
7.68212e-05
7.68208e-05
7.68205e-05
7.68202e-05
7.68199e-05
7.68196e-05
7.68193e-05
7.68191e-05
7.68188e-05
7.68186e-05
7.68183e-05
7.68181e-05
7.68179e-05
7.68177e-05
7.68176e-05
7.68174e-05
7.68173e-05
7.68171e-05
7.6817e-05
7.68169e-05
7.68168e-05
7.68167e-05
7.68166e-05
7.68165e-05
7.68164e-05
7.68163e-05
7.68163e-05
7.68162e-05
7.68163e-05
7.68163e-05
7.68164e-05
7.68165e-05
7.68167e-05
7.68169e-05
7.68171e-05
7.68173e-05
7.68176e-05
7.68178e-05
7.68181e-05
7.68183e-05
7.68185e-05
7.68187e-05
7.68189e-05
7.6819e-05
7.68192e-05
7.68193e-05
7.68194e-05
7.68196e-05
7.68197e-05
7.68198e-05
7.68199e-05
7.682e-05
7.68199e-05
7.68207e-05
8.61945e-05
8.61926e-05
8.61915e-05
8.61907e-05
8.619e-05
8.61895e-05
8.6189e-05
8.61887e-05
8.61884e-05
8.61882e-05
8.61881e-05
8.6188e-05
8.6188e-05
8.61881e-05
8.61883e-05
8.61885e-05
8.61888e-05
8.61891e-05
8.61895e-05
8.61899e-05
8.61903e-05
8.61907e-05
8.61912e-05
8.61917e-05
8.61922e-05
8.61928e-05
8.61933e-05
8.61938e-05
8.61944e-05
8.61949e-05
8.61954e-05
8.6196e-05
8.61965e-05
8.6197e-05
8.61975e-05
8.6198e-05
8.61985e-05
8.61989e-05
8.61994e-05
8.61998e-05
8.62002e-05
8.62006e-05
8.6201e-05
8.62013e-05
8.62016e-05
8.62019e-05
8.62022e-05
8.62024e-05
8.62026e-05
8.62027e-05
8.62028e-05
8.62029e-05
8.6203e-05
8.62029e-05
8.62028e-05
8.62027e-05
8.62024e-05
8.62021e-05
8.62018e-05
8.62015e-05
8.62011e-05
8.62007e-05
8.62003e-05
8.61999e-05
8.61996e-05
8.61992e-05
8.61988e-05
8.61984e-05
8.61981e-05
8.61977e-05
8.61974e-05
8.6197e-05
8.61967e-05
8.61964e-05
8.61962e-05
8.61959e-05
8.61956e-05
8.61954e-05
8.61952e-05
8.6195e-05
8.61948e-05
8.61946e-05
8.61944e-05
8.61942e-05
8.61941e-05
8.61939e-05
8.61938e-05
8.61937e-05
8.61936e-05
8.61935e-05
8.61934e-05
8.61933e-05
8.61932e-05
8.61932e-05
8.61933e-05
8.61933e-05
8.61935e-05
8.61937e-05
8.61939e-05
8.61941e-05
8.61944e-05
8.61947e-05
8.6195e-05
8.61953e-05
8.61956e-05
8.61958e-05
8.61961e-05
8.61963e-05
8.61965e-05
8.61967e-05
8.61968e-05
8.6197e-05
8.61971e-05
8.61973e-05
8.61974e-05
8.61975e-05
8.61976e-05
8.61978e-05
8.61976e-05
8.61988e-05
9.58352e-05
9.58329e-05
9.58316e-05
9.58307e-05
9.58301e-05
9.58296e-05
9.58293e-05
9.5829e-05
9.58289e-05
9.58288e-05
9.58287e-05
9.58288e-05
9.58288e-05
9.5829e-05
9.58293e-05
9.58296e-05
9.58299e-05
9.58303e-05
9.58308e-05
9.58312e-05
9.58317e-05
9.58322e-05
9.58328e-05
9.58333e-05
9.58339e-05
9.58345e-05
9.58351e-05
9.58357e-05
9.58363e-05
9.58369e-05
9.58374e-05
9.5838e-05
9.58386e-05
9.58392e-05
9.58397e-05
9.58403e-05
9.58408e-05
9.58413e-05
9.58418e-05
9.58423e-05
9.58427e-05
9.58432e-05
9.58436e-05
9.5844e-05
9.58444e-05
9.58447e-05
9.5845e-05
9.58452e-05
9.58454e-05
9.58456e-05
9.58458e-05
9.58458e-05
9.58458e-05
9.58458e-05
9.58456e-05
9.58453e-05
9.5845e-05
9.58447e-05
9.58443e-05
9.58438e-05
9.58434e-05
9.58429e-05
9.58425e-05
9.5842e-05
9.58416e-05
9.58412e-05
9.58407e-05
9.58403e-05
9.58399e-05
9.58395e-05
9.58392e-05
9.58388e-05
9.58384e-05
9.58381e-05
9.58378e-05
9.58375e-05
9.58372e-05
9.58369e-05
9.58367e-05
9.58365e-05
9.58362e-05
9.5836e-05
9.58358e-05
9.58356e-05
9.58355e-05
9.58353e-05
9.58351e-05
9.5835e-05
9.58348e-05
9.58347e-05
9.58346e-05
9.58345e-05
9.58345e-05
9.58345e-05
9.58346e-05
9.58347e-05
9.58349e-05
9.58351e-05
9.58354e-05
9.58357e-05
9.58361e-05
9.58364e-05
9.58368e-05
9.58371e-05
9.58375e-05
9.58378e-05
9.58381e-05
9.58383e-05
9.58385e-05
9.58387e-05
9.58389e-05
9.58391e-05
9.58392e-05
9.58394e-05
9.58395e-05
9.58397e-05
9.58398e-05
9.584e-05
9.58397e-05
9.58413e-05
0.000105732
0.000105729
0.000105728
0.000105727
0.000105726
0.000105726
0.000105725
0.000105725
0.000105725
0.000105725
0.000105725
0.000105725
0.000105726
0.000105726
0.000105726
0.000105727
0.000105727
0.000105728
0.000105728
0.000105729
0.000105729
0.00010573
0.00010573
0.000105731
0.000105732
0.000105732
0.000105733
0.000105734
0.000105734
0.000105735
0.000105736
0.000105736
0.000105737
0.000105737
0.000105738
0.000105739
0.000105739
0.00010574
0.00010574
0.000105741
0.000105741
0.000105742
0.000105742
0.000105743
0.000105743
0.000105744
0.000105744
0.000105744
0.000105744
0.000105745
0.000105745
0.000105745
0.000105745
0.000105745
0.000105744
0.000105744
0.000105744
0.000105743
0.000105743
0.000105742
0.000105742
0.000105741
0.00010574
0.00010574
0.000105739
0.000105739
0.000105738
0.000105738
0.000105738
0.000105737
0.000105737
0.000105736
0.000105736
0.000105736
0.000105735
0.000105735
0.000105735
0.000105734
0.000105734
0.000105734
0.000105733
0.000105733
0.000105733
0.000105733
0.000105733
0.000105732
0.000105732
0.000105732
0.000105732
0.000105732
0.000105732
0.000105732
0.000105732
0.000105732
0.000105732
0.000105732
0.000105732
0.000105733
0.000105733
0.000105733
0.000105734
0.000105734
0.000105735
0.000105735
0.000105735
0.000105736
0.000105736
0.000105736
0.000105737
0.000105737
0.000105737
0.000105737
0.000105737
0.000105738
0.000105738
0.000105738
0.000105738
0.000105738
0.000105738
0.00010574
0.000115879
0.000115876
0.000115875
0.000115874
0.000115873
0.000115873
0.000115873
0.000115873
0.000115873
0.000115873
0.000115873
0.000115873
0.000115874
0.000115874
0.000115875
0.000115875
0.000115876
0.000115876
0.000115877
0.000115877
0.000115878
0.000115879
0.000115879
0.00011588
0.000115881
0.000115881
0.000115882
0.000115883
0.000115884
0.000115884
0.000115885
0.000115886
0.000115886
0.000115887
0.000115888
0.000115888
0.000115889
0.00011589
0.00011589
0.000115891
0.000115891
0.000115892
0.000115892
0.000115893
0.000115893
0.000115894
0.000115894
0.000115894
0.000115895
0.000115895
0.000115895
0.000115895
0.000115895
0.000115895
0.000115894
0.000115894
0.000115893
0.000115892
0.000115892
0.000115891
0.000115891
0.00011589
0.000115889
0.000115889