/*--------------------------------*- C++ -*----------------------------------*\
  =========                 |
  \\      /  F ield         | OpenFOAM: The Open Source CFD Toolbox
   \\    /   O peration     | Website:  https://openfoam.org
    \\  /    A nd           | Version:  7
     \\/     M anipulation  |
\*---------------------------------------------------------------------------*/
FoamFile
{
    version     2.0;
    format      ascii;
    class       volScalarField;
    location    "4500";
    object      omega;
}
// * * * * * * * * * * * * * * * * * * * * * * * * * * * * * * * * * * * * * //

dimensions      [0 0 -1 0 0 0 0];

internalField   nonuniform List<scalar> 
24000
(
999.269
999.269
999.269
999.269
999.269
999.269
999.269
999.269
999.269
999.269
999.269
999.269
999.269
999.269
999.269
999.269
999.269
999.269
999.269
999.269
999.269
999.269
999.269
999.269
999.269
999.269
999.269
999.269
999.269
999.269
999.269
999.269
999.269
999.269
999.269
999.269
999.269
999.269
999.269
999.269
999.269
999.269
999.269
999.269
999.269
999.269
999.269
999.269
999.269
999.269
999.269
999.269
999.269
999.269
999.269
999.269
999.269
999.269
999.269
999.269
999.269
999.269
999.269
999.269
999.269
999.269
999.269
999.269
999.269
999.269
999.269
999.269
999.269
999.269
999.269
999.269
999.269
999.269
999.269
999.269
999.269
999.269
999.269
999.269
999.269
999.269
999.269
999.269
999.269
999.269
999.269
999.269
999.269
999.269
999.269
999.269
999.269
999.269
999.269
999.269
999.269
999.269
999.269
999.269
999.269
999.269
999.269
999.269
999.269
999.269
999.269
999.269
999.269
999.269
999.269
999.269
999.269
999.269
999.269
999.269
173.157
173.157
173.157
173.157
173.157
173.157
173.157
173.157
173.157
173.157
173.157
173.157
173.157
173.157
173.157
173.157
173.157
173.157
173.157
173.157
173.157
173.157
173.157
173.157
173.157
173.157
173.157
173.157
173.157
173.157
173.157
173.157
173.157
173.157
173.157
173.157
173.157
173.157
173.157
173.157
173.157
173.157
173.157
173.157
173.157
173.157
173.157
173.157
173.157
173.157
173.157
173.157
173.157
173.157
173.157
173.157
173.157
173.157
173.157
173.157
173.157
173.157
173.157
173.157
173.157
173.157
173.157
173.157
173.157
173.157
173.157
173.157
173.157
173.157
173.157
173.157
173.157
173.157
173.157
173.157
173.157
173.157
173.157
173.157
173.157
173.157
173.157
173.157
173.157
173.157
173.157
173.157
173.157
173.157
173.157
173.157
173.157
173.157
173.157
173.157
173.157
173.157
173.157
173.157
173.157
173.157
173.157
173.157
173.157
173.157
173.157
173.157
173.157
173.157
173.157
173.157
173.157
173.157
173.157
173.157
58.7569
58.757
58.757
58.757
58.757
58.757
58.757
58.757
58.757
58.757
58.757
58.757
58.757
58.757
58.757
58.757
58.757
58.757
58.757
58.757
58.757
58.757
58.757
58.757
58.757
58.757
58.757
58.757
58.757
58.757
58.757
58.757
58.757
58.757
58.757
58.757
58.757
58.757
58.757
58.757
58.757
58.757
58.757
58.757
58.757
58.757
58.757
58.757
58.757
58.757
58.757
58.757
58.757
58.757
58.757
58.757
58.757
58.757
58.757
58.757
58.757
58.757
58.757
58.757
58.757
58.757
58.757
58.757
58.757
58.757
58.757
58.757
58.757
58.757
58.757
58.757
58.757
58.757
58.757
58.757
58.757
58.757
58.757
58.757
58.757
58.757
58.757
58.757
58.757
58.757
58.757
58.757
58.757
58.757
58.757
58.757
58.757
58.757
58.757
58.757
58.757
58.757
58.757
58.757
58.757
58.757
58.757
58.757
58.757
58.757
58.757
58.757
58.757
58.757
58.757
58.757
58.757
58.757
58.757
58.757
28.3305
28.3306
28.3307
28.3307
28.3307
28.3307
28.3307
28.3306
28.3306
28.3306
28.3306
28.3306
28.3306
28.3306
28.3306
28.3306
28.3306
28.3306
28.3306
28.3306
28.3306
28.3306
28.3306
28.3306
28.3306
28.3306
28.3306
28.3306
28.3306
28.3306
28.3306
28.3306
28.3306
28.3306
28.3306
28.3306
28.3306
28.3306
28.3306
28.3306
28.3306
28.3306
28.3306
28.3307
28.3307
28.3307
28.3307
28.3307
28.3307
28.3307
28.3307
28.3307
28.3307
28.3307
28.3307
28.3307
28.3307
28.3307
28.3307
28.3307
28.3307
28.3307
28.3307
28.3307
28.3307
28.3307
28.3307
28.3307
28.3307
28.3307
28.3307
28.3307
28.3307
28.3307
28.3307
28.3307
28.3307
28.3306
28.3306
28.3306
28.3306
28.3306
28.3306
28.3306
28.3306
28.3306
28.3306
28.3306
28.3306
28.3306
28.3306
28.3306
28.3306
28.3306
28.3306
28.3306
28.3306
28.3306
28.3306
28.3306
28.3306
28.3306
28.3306
28.3306
28.3306
28.3306
28.3306
28.3306
28.3306
28.3306
28.3306
28.3306
28.3306
28.3306
28.3306
28.3306
28.3306
28.3306
28.3307
28.3307
16.96
16.9601
16.9602
16.9602
16.9602
16.9602
16.9602
16.9602
16.9602
16.9602
16.9602
16.9602
16.9602
16.9602
16.9602
16.9602
16.9602
16.9602
16.9602
16.9602
16.9602
16.9602
16.9602
16.9602
16.9602
16.9602
16.9602
16.9602
16.9602
16.9602
16.9602
16.9602
16.9602
16.9602
16.9602
16.9602
16.9602
16.9602
16.9602
16.9602
16.9602
16.9602
16.9602
16.9602
16.9602
16.9602
16.9603
16.9603
16.9603
16.9603
16.9603
16.9603
16.9603
16.9603
16.9603
16.9603
16.9603
16.9603
16.9603
16.9603
16.9603
16.9603
16.9603
16.9603
16.9603
16.9603
16.9603
16.9603
16.9603
16.9603
16.9602
16.9602
16.9602
16.9602
16.9602
16.9602
16.9602
16.9602
16.9602
16.9602
16.9602
16.9602
16.9602
16.9602
16.9602
16.9602
16.9602
16.9602
16.9602
16.9602
16.9602
16.9602
16.9602
16.9602
16.9602
16.9602
16.9602
16.9602
16.9602
16.9602
16.9602
16.9602
16.9602
16.9602
16.9602
16.9602
16.9602
16.9602
16.9602
16.9602
16.9602
16.9602
16.9602
16.9602
16.9602
16.9602
16.9602
16.9602
16.9602
16.9602
11.7017
11.7019
11.702
11.7021
11.7021
11.7021
11.7021
11.7021
11.7021
11.702
11.702
11.702
11.702
11.702
11.702
11.702
11.702
11.702
11.702
11.702
11.702
11.702
11.702
11.702
11.702
11.702
11.702
11.702
11.702
11.702
11.702
11.702
11.702
11.702
11.702
11.702
11.702
11.702
11.702
11.702
11.702
11.7021
11.7021
11.7021
11.7021
11.7021
11.7021
11.7021
11.7021
11.7021
11.7021
11.7021
11.7021
11.7021
11.7021
11.7021
11.7021
11.7021
11.7021
11.7021
11.7021
11.7021
11.7021
11.7021
11.7021
11.7021
11.7021
11.7021
11.7021
11.7021
11.7021
11.7021
11.7021
11.7021
11.7021
11.7021
11.7021
11.7021
11.7021
11.7021
11.7021
11.7021
11.7021
11.7021
11.7021
11.7021
11.702
11.702
11.702
11.702
11.702
11.702
11.702
11.702
11.702
11.702
11.702
11.702
11.702
11.702
11.702
11.702
11.702
11.702
11.7021
11.7021
11.7021
11.7021
11.7021
11.7021
11.7021
11.7021
11.7021
11.7021
11.7021
11.7021
11.7021
11.7021
11.7021
11.7021
8.81943
8.81964
8.81978
8.81984
8.81986
8.81986
8.81986
8.81986
8.81986
8.81986
8.81986
8.81986
8.81985
8.81985
8.81985
8.81984
8.81984
8.81984
8.81983
8.81983
8.81983
8.81983
8.81983
8.81982
8.81982
8.81982
8.81982
8.81982
8.81982
8.81982
8.81982
8.81983
8.81983
8.81983
8.81983
8.81983
8.81984
8.81984
8.81984
8.81984
8.81985
8.81985
8.81986
8.81986
8.81987
8.81987
8.81988
8.81989
8.81989
8.81989
8.8199
8.8199
8.8199
8.8199
8.8199
8.8199
8.8199
8.8199
8.8199
8.8199
8.81989
8.81989
8.81989
8.81989
8.81989
8.81989
8.81989
8.81989
8.81989
8.81989
8.81988
8.81988
8.81988
8.81988
8.81988
8.81988
8.81988
8.81987
8.81987
8.81987
8.81987
8.81987
8.81987
8.81986
8.81986
8.81986
8.81986
8.81986
8.81986
8.81986
8.81985
8.81985
8.81985
8.81985
8.81985
8.81985
8.81985
8.81985
8.81985
8.81985
8.81985
8.81985
8.81986
8.81986
8.81986
8.81987
8.81987
8.81987
8.81988
8.81988
8.81988
8.81988
8.81987
8.81987
8.81987
8.81987
8.81987
8.81987
8.81987
8.81991
7.00261
7.00277
7.00291
7.00298
7.00301
7.00302
7.00303
7.00303
7.00303
7.00304
7.00304
7.00304
7.00304
7.00304
7.00304
7.00303
7.00303
7.00303
7.00303
7.00302
7.00302
7.00302
7.00302
7.00301
7.00301
7.00301
7.00301
7.00301
7.003
7.003
7.003
7.003
7.003
7.003
7.003
7.003
7.003
7.00301
7.00301
7.00301
7.00301
7.00301
7.00302
7.00302
7.00302
7.00303
7.00303
7.00304
7.00304
7.00305
7.00305
7.00305
7.00305
7.00305
7.00305
7.00305
7.00305
7.00305
7.00305
7.00305
7.00305
7.00304
7.00304
7.00304
7.00304
7.00304
7.00304
7.00304
7.00304
7.00304
7.00304
7.00304
7.00304
7.00304
7.00304
7.00304
7.00304
7.00304
7.00304
7.00304
7.00303
7.00303
7.00303
7.00303
7.00303
7.00303
7.00303
7.00303
7.00303
7.00302
7.00302
7.00302
7.00302
7.00302
7.00302
7.00302
7.00302
7.00302
7.00302
7.00302
7.00302
7.00302
7.00302
7.00303
7.00303
7.00303
7.00304
7.00304
7.00304
7.00305
7.00305
7.00304
7.00304
7.00304
7.00304
7.00304
7.00304
7.00304
7.00303
7.00308
5.74115
5.74126
5.74138
5.74145
5.74148
5.74149
5.7415
5.74151
5.74152
5.74152
5.74153
5.74153
5.74153
5.74153
5.74153
5.74153
5.74153
5.74153
5.74152
5.74152
5.74152
5.74152
5.74151
5.74151
5.74151
5.74151
5.7415
5.7415
5.7415
5.7415
5.74149
5.74149
5.74149
5.74149
5.74149
5.74149
5.74149
5.74149
5.74149
5.74149
5.74149
5.74149
5.74149
5.74149
5.74149
5.7415
5.7415
5.74151
5.74151
5.74152
5.74152
5.74152
5.74152
5.74152
5.74152
5.74152
5.74152
5.74151
5.74151
5.74151
5.74151
5.74151
5.74151
5.74151
5.74151
5.74151
5.74151
5.74151
5.74151
5.74151
5.74151
5.74151
5.74151
5.74151
5.74151
5.74151
5.74151
5.74151
5.74151
5.74151
5.74151
5.74151
5.74151
5.74151
5.74151
5.74151
5.74151
5.74151
5.7415
5.7415
5.7415
5.7415
5.7415
5.7415
5.7415
5.7415
5.7415
5.7415
5.7415
5.7415
5.7415
5.7415
5.7415
5.74151
5.74151
5.74151
5.74152
5.74152
5.74152
5.74152
5.74152
5.74152
5.74152
5.74152
5.74152
5.74152
5.74151
5.74151
5.74151
5.74155
4.81248
4.81255
4.81264
4.8127
4.81274
4.81275
4.81276
4.81277
4.81278
4.81278
4.81279
4.81279
4.81279
4.8128
4.8128
4.8128
4.8128
4.81279
4.81279
4.81279
4.81279
4.81279
4.81278
4.81278
4.81278
4.81277
4.81277
4.81277
4.81276
4.81276
4.81276
4.81276
4.81275
4.81275
4.81275
4.81275
4.81275
4.81275
4.81274
4.81274
4.81274
4.81274
4.81274
4.81274
4.81274
4.81275
4.81275
4.81275
4.81276
4.81276
4.81276
4.81277
4.81277
4.81277
4.81277
4.81276
4.81276
4.81276
4.81276
4.81276
4.81275
4.81275
4.81275
4.81275
4.81275
4.81275
4.81275
4.81275
4.81275
4.81275
4.81275
4.81275
4.81276
4.81276
4.81276
4.81276
4.81276
4.81276
4.81276
4.81276
4.81276
4.81276
4.81276
4.81276
4.81276
4.81276
4.81276
4.81276
4.81276
4.81276
4.81276
4.81276
4.81276
4.81276
4.81276
4.81276
4.81276
4.81276
4.81276
4.81276
4.81276
4.81276
4.81276
4.81276
4.81276
4.81277
4.81277
4.81277
4.81277
4.81278
4.81278
4.81278
4.81277
4.81277
4.81277
4.81277
4.81277
4.81277
4.81276
4.8128
4.1036
4.10364
4.10371
4.10376
4.10379
4.10381
4.10382
4.10382
4.10383
4.10383
4.10384
4.10384
4.10384
4.10385
4.10385
4.10385
4.10385
4.10385
4.10385
4.10384
4.10384
4.10384
4.10384
4.10383
4.10383
4.10383
4.10382
4.10382
4.10382
4.10382
4.10381
4.10381
4.10381
4.1038
4.1038
4.1038
4.1038
4.10379
4.10379
4.10379
4.10379
4.10379
4.10379
4.10379
4.10379
4.10379
4.10379
4.10379
4.1038
4.1038
4.1038
4.1038
4.1038
4.1038
4.1038
4.1038
4.1038
4.1038
4.1038
4.10379
4.10379
4.10379
4.10379
4.10379
4.10379
4.10379
4.10379
4.10379
4.10379
4.10379
4.10379
4.10379
4.10379
4.10379
4.1038
4.1038
4.1038
4.1038
4.1038
4.1038
4.1038
4.1038
4.1038
4.1038
4.1038
4.1038
4.1038
4.1038
4.1038
4.1038
4.1038
4.1038
4.1038
4.1038
4.1038
4.1038
4.1038
4.1038
4.1038
4.1038
4.1038
4.1038
4.1038
4.1038
4.10381
4.10381
4.10381
4.10381
4.10382
4.10382
4.10382
4.10382
4.10382
4.10382
4.10381
4.10381
4.10381
4.10381
4.1038
4.10383
3.54862
3.54864
3.5487
3.54874
3.54876
3.54877
3.54878
3.54879
3.54879
3.5488
3.5488
3.5488
3.5488
3.54881
3.54881
3.54881
3.54881
3.54881
3.54881
3.5488
3.5488
3.5488
3.5488
3.5488
3.54879
3.54879
3.54879
3.54878
3.54878
3.54878
3.54877
3.54877
3.54877
3.54876
3.54876
3.54876
3.54876
3.54875
3.54875
3.54875
3.54875
3.54875
3.54874
3.54874
3.54874
3.54874
3.54874
3.54875
3.54875
3.54875
3.54875
3.54875
3.54875
3.54875
3.54875
3.54875
3.54875
3.54875
3.54874
3.54874
3.54874
3.54874
3.54874
3.54874
3.54873
3.54873
3.54873
3.54874
3.54874
3.54874
3.54874
3.54874
3.54874
3.54874
3.54874
3.54875
3.54875
3.54875
3.54875
3.54875
3.54875
3.54875
3.54875
3.54875
3.54875
3.54875
3.54875
3.54875
3.54875
3.54875
3.54875
3.54875
3.54875
3.54875
3.54875
3.54875
3.54875
3.54876
3.54876
3.54876
3.54876
3.54876
3.54876
3.54876
3.54876
3.54876
3.54876
3.54877
3.54877
3.54877
3.54877
3.54877
3.54877
3.54877
3.54877
3.54876
3.54876
3.54876
3.54876
3.54877
3.10538
3.1054
3.10544
3.10547
3.10549
3.1055
3.10551
3.10551
3.10551
3.10551
3.10551
3.10552
3.10552
3.10552
3.10552
3.10552
3.10552
3.10552
3.10552
3.10552
3.10552
3.10551
3.10551
3.10551
3.10551
3.1055
3.1055
3.1055
3.1055
3.10549
3.10549
3.10549
3.10548
3.10548
3.10548
3.10547
3.10547
3.10547
3.10547
3.10546
3.10546
3.10546
3.10546
3.10546
3.10545
3.10545
3.10546
3.10546
3.10546
3.10546
3.10546
3.10546
3.10546
3.10546
3.10546
3.10546
3.10546
3.10545
3.10545
3.10545
3.10545
3.10545
3.10544
3.10544
3.10544
3.10544
3.10544
3.10544
3.10544
3.10544
3.10545
3.10545
3.10545
3.10545
3.10545
3.10545
3.10545
3.10546
3.10546
3.10546
3.10546
3.10546
3.10546
3.10546
3.10546
3.10546
3.10546
3.10546
3.10546
3.10546
3.10546
3.10546
3.10546
3.10546
3.10546
3.10546
3.10546
3.10547
3.10547
3.10547
3.10547
3.10547
3.10547
3.10547
3.10547
3.10547
3.10547
3.10547
3.10548
3.10548
3.10548
3.10548
3.10548
3.10548
3.10547
3.10547
3.10547
3.10547
3.10547
3.10547
2.74537
2.7454
2.74542
2.74544
2.74546
2.74546
2.74547
2.74547
2.74547
2.74547
2.74547
2.74547
2.74547
2.74547
2.74547
2.74547
2.74547
2.74547
2.74547
2.74547
2.74547
2.74546
2.74546
2.74546
2.74546
2.74546
2.74545
2.74545
2.74545
2.74544
2.74544
2.74544
2.74544
2.74543
2.74543
2.74543
2.74542
2.74542
2.74542
2.74542
2.74541
2.74541
2.74541
2.74541
2.74541
2.74541
2.74541
2.74541
2.74541
2.74541
2.74541
2.74541
2.74541
2.74541
2.74541
2.74541
2.7454
2.7454
2.7454
2.7454
2.74539
2.74539
2.74539
2.74539
2.74539
2.74539
2.74539
2.74539
2.74539
2.74539
2.74539
2.74539
2.7454
2.7454
2.7454
2.7454
2.7454
2.7454
2.74541
2.74541
2.74541
2.74541
2.74541
2.74541
2.74541
2.74541
2.74541
2.74541
2.74541
2.74541
2.74541
2.74541
2.74541
2.74541
2.74541
2.74541
2.74542
2.74542
2.74542
2.74542
2.74542
2.74542
2.74542
2.74542
2.74542
2.74542
2.74542
2.74542
2.74542
2.74542
2.74542
2.74542
2.74542
2.74542
2.74542
2.74542
2.74542
2.74542
2.74542
2.74541
2.44862
2.44864
2.44866
2.44868
2.44869
2.44869
2.44869
2.44869
2.44869
2.44869
2.44869
2.44869
2.44868
2.44868
2.44868
2.44868
2.44868
2.44868
2.44868
2.44868
2.44868
2.44868
2.44867
2.44867
2.44867
2.44867
2.44867
2.44866
2.44866
2.44866
2.44865
2.44865
2.44865
2.44865
2.44864
2.44864
2.44864
2.44864
2.44863
2.44863
2.44863
2.44863
2.44862
2.44862
2.44862
2.44862
2.44862
2.44862
2.44862
2.44862
2.44862
2.44862
2.44862
2.44862
2.44862
2.44861
2.44861
2.44861
2.44861
2.44861
2.4486
2.4486
2.4486
2.4486
2.4486
2.4486
2.4486
2.4486
2.4486
2.4486
2.4486
2.44861
2.44861
2.44861
2.44861
2.44861
2.44861
2.44861
2.44862
2.44862
2.44862
2.44862
2.44862
2.44862
2.44862
2.44862
2.44862
2.44862
2.44863
2.44863
2.44863
2.44863
2.44863
2.44863
2.44863
2.44863
2.44863
2.44863
2.44863
2.44863
2.44863
2.44863
2.44863
2.44863
2.44863
2.44863
2.44863
2.44863
2.44863
2.44863
2.44863
2.44863
2.44863
2.44863
2.44863
2.44863
2.44863
2.44862
2.44863
2.44862
2.20077
2.20079
2.20081
2.20082
2.20082
2.20083
2.20083
2.20082
2.20082
2.20082
2.20081
2.20081
2.20081
2.20081
2.20081
2.20081
2.2008
2.2008
2.2008
2.2008
2.2008
2.2008
2.2008
2.20079
2.20079
2.20079
2.20079
2.20079
2.20078
2.20078
2.20078
2.20078
2.20077
2.20077
2.20077
2.20077
2.20076
2.20076
2.20076
2.20076
2.20075
2.20075
2.20075
2.20075
2.20074
2.20074
2.20074
2.20074
2.20074
2.20074
2.20074
2.20074
2.20074
2.20074
2.20074
2.20074
2.20073
2.20073
2.20073
2.20073
2.20073
2.20073
2.20073
2.20073
2.20073
2.20073
2.20073
2.20073
2.20073
2.20073
2.20073
2.20073
2.20073
2.20073
2.20074
2.20074
2.20074
2.20074
2.20074
2.20074
2.20074
2.20075
2.20075
2.20075
2.20075
2.20075
2.20075
2.20075
2.20075
2.20075
2.20075
2.20075
2.20075
2.20075
2.20075
2.20075
2.20075
2.20075
2.20075
2.20075
2.20075
2.20075
2.20075
2.20075
2.20075
2.20075
2.20075
2.20075
2.20075
2.20075
2.20075
2.20075
2.20075
2.20075
2.20075
2.20075
2.20075
2.20075
2.20075
2.20073
1.99131
1.99134
1.99135
1.99136
1.99136
1.99136
1.99136
1.99135
1.99135
1.99134
1.99134
1.99134
1.99133
1.99133
1.99133
1.99133
1.99133
1.99132
1.99132
1.99132
1.99132
1.99132
1.99132
1.99131
1.99131
1.99131
1.99131
1.99131
1.9913
1.9913
1.9913
1.9913
1.9913
1.99129
1.99129
1.99129
1.99129
1.99128
1.99128
1.99128
1.99128
1.99127
1.99127
1.99127
1.99127
1.99127
1.99126
1.99126
1.99126
1.99126
1.99126
1.99126
1.99126
1.99126
1.99126
1.99126
1.99126
1.99125
1.99125
1.99125
1.99125
1.99125
1.99125
1.99125
1.99125
1.99125
1.99125
1.99125
1.99125
1.99125
1.99126
1.99126
1.99126
1.99126
1.99126
1.99126
1.99126
1.99127
1.99127
1.99127
1.99127
1.99127
1.99127
1.99127
1.99127
1.99127
1.99128
1.99128
1.99128
1.99128
1.99128
1.99128
1.99128
1.99128
1.99128
1.99128
1.99128
1.99128
1.99128
1.99128
1.99128
1.99128
1.99128
1.99128
1.99128
1.99128
1.99128
1.99128
1.99128
1.99128
1.99127
1.99127
1.99127
1.99127
1.99127
1.99127
1.99127
1.99127
1.99127
1.99125
1.81241
1.81244
1.81245
1.81245
1.81245
1.81245
1.81244
1.81244
1.81243
1.81243
1.81242
1.81242
1.81242
1.81241
1.81241
1.81241
1.81241
1.8124
1.8124
1.8124
1.8124
1.8124
1.81239
1.81239
1.81239
1.81239
1.81239
1.81239
1.81238
1.81238
1.81238
1.81238
1.81238
1.81237
1.81237
1.81237
1.81237
1.81236
1.81236
1.81236
1.81236
1.81236
1.81235
1.81235
1.81235
1.81235
1.81235
1.81235
1.81235
1.81234
1.81234
1.81234
1.81234
1.81234
1.81234
1.81234
1.81234
1.81234
1.81234
1.81234
1.81234
1.81234
1.81234
1.81234
1.81234
1.81234
1.81234
1.81234
1.81234
1.81234
1.81234
1.81234
1.81234
1.81235
1.81235
1.81235
1.81235
1.81235
1.81235
1.81235
1.81236
1.81236
1.81236
1.81236
1.81236
1.81236
1.81236
1.81236
1.81236
1.81236
1.81236
1.81236
1.81236
1.81236
1.81237
1.81237
1.81236
1.81236
1.81236
1.81236
1.81236
1.81236
1.81236
1.81236
1.81236
1.81236
1.81236
1.81236
1.81236
1.81236
1.81235
1.81235
1.81235
1.81235
1.81235
1.81235
1.81235
1.81234
1.81235
1.81233
1.65813
1.65816
1.65817
1.65817
1.65817
1.65816
1.65816
1.65815
1.65814
1.65814
1.65813
1.65813
1.65812
1.65812
1.65812
1.65811
1.65811
1.65811
1.65811
1.6581
1.6581
1.6581
1.6581
1.6581
1.6581
1.65809
1.65809
1.65809
1.65809
1.65809
1.65809
1.65808
1.65808
1.65808
1.65808
1.65808
1.65807
1.65807
1.65807
1.65807
1.65806
1.65806
1.65806
1.65806
1.65806
1.65806
1.65805
1.65805
1.65805
1.65805
1.65805
1.65805
1.65805
1.65805
1.65805
1.65805
1.65805
1.65805
1.65805
1.65805
1.65805
1.65805
1.65805
1.65805
1.65805
1.65805
1.65805
1.65805
1.65805
1.65805
1.65806
1.65806
1.65806
1.65806
1.65806
1.65806
1.65806
1.65807
1.65807
1.65807
1.65807
1.65807
1.65807
1.65807
1.65807
1.65808
1.65808
1.65808
1.65808
1.65808
1.65808
1.65808
1.65808
1.65808
1.65808
1.65808
1.65808
1.65808
1.65808
1.65807
1.65807
1.65807
1.65807
1.65807
1.65807
1.65807
1.65806
1.65806
1.65806
1.65806
1.65806
1.65806
1.65806
1.65806
1.65806
1.65805
1.65805
1.65805
1.65805
1.65803
1.52391
1.52394
1.52395
1.52395
1.52395
1.52394
1.52394
1.52393
1.52392
1.52392
1.52391
1.52391
1.5239
1.5239
1.52389
1.52389
1.52388
1.52388
1.52388
1.52388
1.52387
1.52387
1.52387
1.52387
1.52387
1.52387
1.52387
1.52386
1.52386
1.52386
1.52386
1.52386
1.52386
1.52385
1.52385
1.52385
1.52385
1.52385
1.52384
1.52384
1.52384
1.52384
1.52384
1.52383
1.52383
1.52383
1.52383
1.52383
1.52383
1.52383
1.52383
1.52383
1.52383
1.52382
1.52382
1.52382
1.52382
1.52382
1.52383
1.52383
1.52383
1.52383
1.52383
1.52383
1.52383
1.52383
1.52383
1.52384
1.52384
1.52384
1.52384
1.52384
1.52384
1.52385
1.52385
1.52385
1.52385
1.52385
1.52385
1.52385
1.52386
1.52386
1.52386
1.52386
1.52386
1.52386
1.52386
1.52386
1.52386
1.52386
1.52386
1.52386
1.52386
1.52386
1.52386
1.52386
1.52386
1.52386
1.52386
1.52385
1.52385
1.52385
1.52385
1.52385
1.52384
1.52384
1.52384
1.52384
1.52384
1.52384
1.52384
1.52384
1.52383
1.52383
1.52383
1.52383
1.52383
1.52382
1.52383
1.5238
1.40622
1.40625
1.40626
1.40626
1.40625
1.40625
1.40624
1.40623
1.40623
1.40622
1.40621
1.40621
1.4062
1.4062
1.40619
1.40619
1.40618
1.40618
1.40618
1.40618
1.40617
1.40617
1.40617
1.40617
1.40617
1.40617
1.40616
1.40616
1.40616
1.40616
1.40616
1.40616
1.40616
1.40615
1.40615
1.40615
1.40615
1.40615
1.40615
1.40614
1.40614
1.40614
1.40614
1.40614
1.40613
1.40613
1.40613
1.40613
1.40613
1.40613
1.40613
1.40613
1.40613
1.40613
1.40613
1.40613
1.40613
1.40613
1.40613
1.40614
1.40614
1.40614
1.40614
1.40614
1.40614
1.40615
1.40615
1.40615
1.40615
1.40615
1.40615
1.40616
1.40616
1.40616
1.40616
1.40616
1.40616
1.40616
1.40617
1.40617
1.40617
1.40617
1.40617
1.40617
1.40617
1.40617
1.40617
1.40617
1.40617
1.40618
1.40618
1.40618
1.40617
1.40617
1.40617
1.40617
1.40617
1.40617
1.40616
1.40616
1.40616
1.40616
1.40615
1.40615
1.40615
1.40615
1.40615
1.40614
1.40614
1.40614
1.40614
1.40614
1.40614
1.40613
1.40613
1.40613
1.40613
1.40613
1.40613
1.4061
1.30227
1.3023
1.3023
1.3023
1.30229
1.30229
1.30228
1.30227
1.30226
1.30226
1.30225
1.30225
1.30224
1.30224
1.30223
1.30223
1.30222
1.30222
1.30222
1.30221
1.30221
1.30221
1.30221
1.30221
1.3022
1.3022
1.3022
1.3022
1.3022
1.3022
1.3022
1.30219
1.30219
1.30219
1.30219
1.30219
1.30219
1.30219
1.30218
1.30218
1.30218
1.30218
1.30218
1.30218
1.30217
1.30217
1.30217
1.30217
1.30217
1.30217
1.30217
1.30217
1.30217
1.30217
1.30217
1.30217
1.30218
1.30218
1.30218
1.30218
1.30219
1.30219
1.30219
1.30219
1.3022
1.3022
1.3022
1.3022
1.3022
1.30221
1.30221
1.30221
1.30221
1.30221
1.30221
1.30222
1.30222
1.30222
1.30222
1.30222
1.30222
1.30222
1.30222
1.30222
1.30223
1.30223
1.30223
1.30223
1.30223
1.30223
1.30223
1.30223
1.30223
1.30222
1.30222
1.30222
1.30222
1.30221
1.30221
1.30221
1.3022
1.3022
1.3022
1.30219
1.30219
1.30219
1.30219
1.30219
1.30218
1.30218
1.30218
1.30218
1.30218
1.30217
1.30217
1.30217
1.30217
1.30217
1.30217
1.30214
1.20983
1.20986
1.20986
1.20986
1.20985
1.20985
1.20984
1.20983
1.20982
1.20982
1.20981
1.20981
1.2098
1.20979
1.20979
1.20978
1.20978
1.20978
1.20977
1.20977
1.20977
1.20977
1.20976
1.20976
1.20976
1.20976
1.20976
1.20976
1.20976
1.20975
1.20975
1.20975
1.20975
1.20975
1.20975
1.20975
1.20975
1.20974
1.20974
1.20974
1.20974
1.20974
1.20974
1.20974
1.20973
1.20973
1.20973
1.20973
1.20973
1.20973
1.20973
1.20973
1.20973
1.20974
1.20974
1.20974
1.20975
1.20975
1.20975
1.20976
1.20976
1.20976
1.20976
1.20977
1.20977
1.20977
1.20977
1.20978
1.20978
1.20978
1.20978
1.20978
1.20979
1.20979
1.20979
1.20979
1.20979
1.20979
1.20979
1.2098
1.2098
1.2098
1.2098
1.2098
1.2098
1.2098
1.2098
1.2098
1.2098
1.2098
1.2098
1.2098
1.2098
1.2098
1.20979
1.20979
1.20979
1.20978
1.20978
1.20977
1.20977
1.20977
1.20976
1.20976
1.20975
1.20975
1.20975
1.20975
1.20974
1.20974
1.20974
1.20974
1.20974
1.20973
1.20973
1.20973
1.20973
1.20973
1.20973
1.2097
1.12713
1.12715
1.12716
1.12715
1.12715
1.12714
1.12713
1.12713
1.12712
1.12711
1.12711
1.1271
1.1271
1.12709
1.12708
1.12708
1.12707
1.12707
1.12707
1.12706
1.12706
1.12706
1.12706
1.12706
1.12706
1.12705
1.12705
1.12705
1.12705
1.12705
1.12705
1.12705
1.12705
1.12705
1.12704
1.12704
1.12704
1.12704
1.12704
1.12704
1.12704
1.12704
1.12703
1.12703
1.12703
1.12703
1.12703
1.12703
1.12703
1.12703
1.12703
1.12703
1.12704
1.12704
1.12704
1.12705
1.12705
1.12706
1.12706
1.12707
1.12707
1.12707
1.12708
1.12708
1.12708
1.12709
1.12709
1.12709
1.12709
1.1271
1.1271
1.1271
1.1271
1.1271
1.1271
1.12711
1.12711
1.12711
1.12711
1.12711
1.12711
1.12711
1.12711
1.12712
1.12712
1.12712
1.12712
1.12712
1.12712
1.12712
1.12712
1.12711
1.12711
1.12711
1.1271
1.1271
1.12709
1.12709
1.12708
1.12708
1.12707
1.12707
1.12706
1.12706
1.12706
1.12705
1.12705
1.12705
1.12704
1.12704
1.12704
1.12704
1.12704
1.12703
1.12703
1.12703
1.12703
1.12703
1.12703
1.127
1.05272
1.05274
1.05274
1.05274
1.05274
1.05273
1.05272
1.05271
1.05271
1.0527
1.05269
1.05269
1.05268
1.05268
1.05267
1.05267
1.05266
1.05266
1.05265
1.05265
1.05265
1.05265
1.05265
1.05264
1.05264
1.05264
1.05264
1.05264
1.05264
1.05264
1.05264
1.05263
1.05263
1.05263
1.05263
1.05263
1.05263
1.05263
1.05263
1.05263
1.05263
1.05262
1.05262
1.05262
1.05262
1.05262
1.05262
1.05262
1.05262
1.05262
1.05262
1.05263
1.05263
1.05264
1.05265
1.05265
1.05266
1.05266
1.05267
1.05267
1.05268
1.05268
1.05269
1.05269
1.05269
1.0527
1.0527
1.0527
1.0527
1.05271
1.05271
1.05271
1.05271
1.05271
1.05272
1.05272
1.05272
1.05272
1.05272
1.05272
1.05272
1.05272
1.05273
1.05273
1.05273
1.05273
1.05273
1.05273
1.05273
1.05273
1.05272
1.05272
1.05271
1.05271
1.0527
1.0527
1.05269
1.05268
1.05268
1.05267
1.05267
1.05266
1.05266
1.05265
1.05265
1.05265
1.05264
1.05264
1.05264
1.05263
1.05263
1.05263
1.05263
1.05263
1.05262
1.05262
1.05262
1.05262
1.05262
1.05259
0.985414
0.985439
0.985442
0.985438
0.985432
0.985425
0.985417
0.98541
0.985403
0.985396
0.985391
0.985385
0.98538
0.985374
0.985369
0.985364
0.985359
0.985355
0.985352
0.985349
0.985347
0.985345
0.985343
0.985341
0.98534
0.985338
0.985337
0.985336
0.985335
0.985334
0.985334
0.985333
0.985332
0.985331
0.98533
0.98533
0.985329
0.985328
0.985327
0.985326
0.985325
0.985324
0.985323
0.985322
0.985321
0.98532
0.98532
0.985319
0.98532
0.985322
0.985327
0.985336
0.985345
0.985354
0.985363
0.985371
0.985378
0.985384
0.98539
0.985395
0.9854
0.985404
0.985408
0.985411
0.985415
0.985418
0.985421
0.985424
0.985426
0.985428
0.985431
0.985433
0.985435
0.985436
0.985438
0.98544
0.985441
0.985443
0.985444
0.985445
0.985446
0.985447
0.985448
0.985449
0.98545
0.98545
0.985451
0.985452
0.985451
0.985448
0.985443
0.985436
0.985429
0.985421
0.985413
0.985405
0.985398
0.985391
0.985384
0.985378
0.985372
0.985366
0.985361
0.985357
0.985352
0.985349
0.985345
0.985343
0.98534
0.985337
0.985335
0.985333
0.98533
0.985328
0.985326
0.985323
0.985322
0.985319
0.985322
0.985297
0.924248
0.924272
0.924274
0.924269
0.924263
0.924256
0.924249
0.924242
0.924235
0.924229
0.924223
0.924218
0.924213
0.924207
0.924202
0.924197
0.924193
0.924189
0.924185
0.924183
0.92418
0.924178
0.924176
0.924174
0.924173
0.924172
0.924171
0.92417
0.924169
0.924168
0.924167
0.924167
0.924166
0.924165
0.924165
0.924164
0.924163
0.924163
0.924162
0.924161
0.92416
0.92416
0.924159
0.924158
0.924157
0.924157
0.924156
0.924156
0.924158
0.924163
0.924172
0.924185
0.924198
0.924209
0.924219
0.924228
0.924236
0.924243
0.924249
0.924254
0.924259
0.924264
0.924268
0.924272
0.924275
0.924279
0.924282
0.924285
0.924287
0.92429
0.924292
0.924294
0.924296
0.924298
0.9243
0.924301
0.924303
0.924304
0.924305
0.924306
0.924308
0.924309
0.924309
0.92431
0.924311
0.924312
0.924313
0.924313
0.92431
0.924305
0.924297
0.924288
0.924278
0.924268
0.924258
0.924249
0.924241
0.924233
0.924225
0.924219
0.924212
0.924206
0.924201
0.924196
0.924192
0.924188
0.924185
0.924182
0.924179
0.924177
0.924174
0.924172
0.924169
0.924167
0.924164
0.924162
0.92416
0.924157
0.92416
0.924136
0.868408
0.86843
0.868432
0.868427
0.868421
0.868414
0.868407
0.8684
0.868393
0.868388
0.868382
0.868377
0.868372
0.868367
0.868362
0.868357
0.868353
0.868349
0.868346
0.868343
0.86834
0.868338
0.868336
0.868335
0.868334
0.868332
0.868331
0.868331
0.86833
0.868329
0.868328
0.868328
0.868327
0.868327
0.868326
0.868326
0.868325
0.868325
0.868324
0.868323
0.868323
0.868322
0.868321
0.868321
0.86832
0.86832
0.868319
0.868321
0.868324
0.868333
0.86835
0.868367
0.868383
0.868396
0.868408
0.868417
0.868425
0.868432
0.868439
0.868444
0.868449
0.868454
0.868458
0.868462
0.868466
0.868469
0.868472
0.868475
0.868478
0.86848
0.868483
0.868485
0.868487
0.868489
0.86849
0.868492
0.868493
0.868495
0.868496
0.868497
0.868498
0.868499
0.8685
0.868501
0.868502
0.868502
0.868504
0.868503
0.868497
0.868489
0.868478
0.868465
0.868452
0.86844
0.868429
0.868418
0.868409
0.868401
0.868393
0.868386
0.868379
0.868373
0.868367
0.868362
0.868358
0.868354
0.868351
0.868348
0.868346
0.868343
0.86834
0.868338
0.868335
0.868332
0.86833
0.868327
0.868325
0.868322
0.868325
0.868303
0.817218
0.817239
0.81724
0.817235
0.817229
0.817222
0.817215
0.817208
0.817202
0.817197
0.817192
0.817187
0.817182
0.817177
0.817172
0.817167
0.817163
0.817159
0.817156
0.817154
0.817151
0.817149
0.817148
0.817146
0.817145
0.817144
0.817143
0.817142
0.817141
0.817141
0.81714
0.81714
0.817139
0.817139
0.817138
0.817138
0.817138
0.817137
0.817137
0.817136
0.817136
0.817135
0.817135
0.817135
0.817134
0.817134
0.817133
0.817137
0.817143
0.817161
0.817185
0.817208
0.817226
0.81724
0.817251
0.817261
0.817269
0.817276
0.817282
0.817288
0.817293
0.817298
0.817302
0.817306
0.817309
0.817313
0.817316
0.817319
0.817321
0.817324
0.817326
0.817328
0.81733
0.817332
0.817334
0.817336
0.817337
0.817339
0.81734
0.817341
0.817342
0.817343
0.817344
0.817345
0.817346
0.817346
0.817349
0.817344
0.817335
0.817322
0.817306
0.81729
0.817274
0.81726
0.817248
0.817237
0.817227
0.817218
0.81721
0.817203
0.817196
0.81719
0.817184
0.817179
0.817174
0.817171
0.817169
0.817166
0.817164
0.817161
0.817158
0.817155
0.817152
0.817149
0.817146
0.817144
0.817141
0.817138
0.81714
0.81712
0.77011
0.770129
0.77013
0.770125
0.770119
0.770112
0.770105
0.770099
0.770093
0.770087
0.770083
0.770078
0.770073
0.770068
0.770064
0.770059
0.770056
0.770052
0.770049
0.770047
0.770044
0.770043
0.770041
0.77004
0.770038
0.770037
0.770037
0.770036
0.770035
0.770035
0.770034
0.770034
0.770034
0.770033
0.770033
0.770033
0.770032
0.770032
0.770032
0.770032
0.770031
0.770031
0.770031
0.770031
0.77003
0.770031
0.77003
0.770039
0.770048
0.77008
0.770114
0.77014
0.770157
0.770171
0.770182
0.770191
0.770198
0.770205
0.770211
0.770217
0.770222
0.770226
0.77023
0.770234
0.770238
0.770241
0.770244
0.770247
0.770249
0.770252
0.770254
0.770256
0.770258
0.77026
0.770262
0.770264
0.770265
0.770266
0.770268
0.770269
0.77027
0.770271
0.770272
0.770273
0.770274
0.770274
0.770278
0.770267
0.770252
0.770233
0.770212
0.770192
0.770175
0.770159
0.770146
0.770135
0.770125
0.770116
0.770108
0.770101
0.770094
0.770088
0.770082
0.770077
0.770073
0.770071
0.770069
0.770066
0.770064
0.770061
0.770057
0.770054
0.770051
0.770048
0.770045
0.770042
0.77004
0.770037
0.770038
0.770019
0.726603
0.72662
0.72662
0.726616
0.726609
0.726603
0.726596
0.72659
0.726584
0.726579
0.726575
0.72657
0.726566
0.726561
0.726557
0.726553
0.726549
0.726546
0.726543
0.726541
0.726539
0.726537
0.726535
0.726534
0.726533
0.726532
0.726531
0.726531
0.72653
0.72653
0.72653
0.726529
0.726529
0.726529
0.726529
0.726529
0.726529
0.726528
0.726528
0.726528
0.726528