/*--------------------------------*- C++ -*----------------------------------*\
  =========                 |
  \\      /  F ield         | OpenFOAM: The Open Source CFD Toolbox
   \\    /   O peration     | Website:  https://openfoam.org
    \\  /    A nd           | Version:  7
     \\/     M anipulation  |
\*---------------------------------------------------------------------------*/
FoamFile
{
    version     2.0;
    format      ascii;
    class       surfaceScalarField;
    location    "4500";
    object      phi;
}
// * * * * * * * * * * * * * * * * * * * * * * * * * * * * * * * * * * * * * //

dimensions      [0 3 -1 0 0 0 0];

internalField   nonuniform List<scalar> 
47680
(
2.01651e-06
-6.84963e-12
2.01651e-06
-1.28547e-12
2.01651e-06
-2.83601e-12
2.01651e-06
-8.64005e-13
2.01651e-06
2.52431e-12
2.0165e-06
5.25572e-12
2.0165e-06
7.23755e-12
2.01649e-06
8.33649e-12
2.01648e-06
8.72093e-12
2.01647e-06
8.58484e-12
2.01646e-06
8.10793e-12
2.01645e-06
7.43307e-12
2.01645e-06
6.64863e-12
2.01644e-06
5.79946e-12
2.01644e-06
4.90972e-12
2.01643e-06
4.00055e-12
2.01643e-06
3.09731e-12
2.01643e-06
2.22369e-12
2.01643e-06
1.39676e-12
2.01643e-06
6.25308e-13
2.01643e-06
-8.84167e-14
2.01643e-06
-7.42768e-13
2.01643e-06
-1.33571e-12
2.01643e-06
-1.86574e-12
2.01643e-06
-2.33427e-12
2.01644e-06
-2.7448e-12
2.01644e-06
-3.1031e-12
2.01644e-06
-3.4164e-12
2.01645e-06
-3.69245e-12
2.01645e-06
-3.93812e-12
2.01645e-06
-4.15772e-12
2.01646e-06
-4.35439e-12
2.01646e-06
-4.52865e-12
2.01647e-06
-4.68162e-12
2.01647e-06
-4.80955e-12
2.01648e-06
-4.9155e-12
2.01648e-06
-4.98666e-12
2.01649e-06
-5.03031e-12
2.01649e-06
-5.00746e-12
2.0165e-06
-4.93291e-12
2.0165e-06
-4.73156e-12
2.01651e-06
-4.36434e-12
2.01651e-06
-3.90714e-12
2.01651e-06
-2.80388e-12
2.01651e-06
-2.17367e-12
2.01651e-06
-3.53054e-13
2.01651e-06
1.30888e-12
2.01651e-06
1.45251e-12
2.01651e-06
1.31833e-12
2.01651e-06
5.32314e-13
2.01651e-06
1.56234e-13
2.01651e-06
-3.31775e-13
2.01651e-06
-7.84668e-13
2.01651e-06
-1.15953e-12
2.01651e-06
-1.45266e-12
2.01652e-06
-1.63429e-12
2.01652e-06
-1.69164e-12
2.01652e-06
-1.61746e-12
2.01652e-06
-1.41615e-12
2.01652e-06
-1.10511e-12
2.01652e-06
-7.12114e-13
2.01652e-06
-2.71363e-13
2.01652e-06
1.83085e-13
2.01652e-06
6.22627e-13
2.01652e-06
1.02567e-12
2.01652e-06
1.37936e-12
2.01652e-06
1.67741e-12
2.01652e-06
1.91829e-12
2.01651e-06
2.10398e-12
2.01651e-06
2.23712e-12
2.01651e-06
2.32262e-12
2.01651e-06
2.36458e-12
2.0165e-06
2.36885e-12
2.0165e-06
2.34102e-12
2.0165e-06
2.2861e-12
2.0165e-06
2.20927e-12
2.0165e-06
2.11354e-12
2.01649e-06
2.0017e-12
2.01649e-06
1.87394e-12
2.01649e-06
1.73381e-12
2.01649e-06
1.57633e-12
2.01649e-06
1.41152e-12
2.01649e-06
1.22212e-12
2.01648e-06
1.03458e-12
2.01648e-06
7.96836e-13
2.01648e-06
5.69111e-13
2.01648e-06
2.69974e-13
2.01648e-06
9.97247e-14
2.01648e-06
4.4727e-14
2.01648e-06
1.12809e-14
2.01648e-06
7.47163e-14
2.01648e-06
2.11894e-14
2.01648e-06
-6.09054e-14
2.01648e-06
-1.68826e-13
2.01648e-06
-3.07361e-13
2.01648e-06
-4.58855e-13
2.01648e-06
-6.36729e-13
2.01648e-06
-8.04464e-13
2.01649e-06
-9.83817e-13
2.01649e-06
-1.09441e-12
2.01649e-06
-1.11065e-12
2.01649e-06
-1.06734e-12
2.01649e-06
-4.88688e-13
2.01649e-06
-2.74792e-13
2.01649e-06
8.42857e-13
2.01649e-06
2.28367e-12
2.01648e-06
2.16987e-12
2.01648e-06
1.72015e-12
2.01648e-06
9.79154e-13
2.01648e-06
1.32846e-13
2.01648e-06
-6.46264e-13
2.01648e-06
-1.33468e-12
2.01649e-06
-1.8515e-12
2.01649e-06
-2.23923e-12
2.01649e-06
-2.32279e-12
2.01649e-06
-2.47128e-12
2.01649e-06
-1.47389e-12
2.0165e-06
-2.68837e-12
2.0165e-06
1.12314e-12
-3.32074e-12
6.23057e-06
-2.70638e-11
6.23058e-06
-1.06604e-11
6.23059e-06
-1.02545e-11
6.23059e-06
-1.54788e-12
6.23058e-06
1.17242e-11
6.23056e-06
2.24435e-11
6.23054e-06
2.99964e-11
6.23052e-06
3.41326e-11
6.23049e-06
3.54825e-11
6.23046e-06
3.48065e-11
6.23044e-06
3.27986e-11
6.23042e-06
3.00079e-11
6.2304e-06
2.67811e-11
6.23038e-06
2.33043e-11
6.23036e-06
1.96805e-11
6.23035e-06
1.59984e-11
6.23034e-06
1.23547e-11
6.23034e-06
8.83874e-12
6.23033e-06
5.51309e-12
6.23033e-06
2.41083e-12
6.23033e-06
-4.58955e-13
6.23033e-06
-3.08886e-12
6.23034e-06
-5.46929e-12
6.23034e-06
-7.59608e-12
6.23035e-06
-9.47467e-12
6.23036e-06
-1.11193e-11
6.23037e-06
-1.25546e-11
6.23038e-06
-1.38091e-11
6.23039e-06
-1.4913e-11
6.2304e-06
-1.5892e-11
6.23041e-06
-1.67651e-11
6.23043e-06
-1.75425e-11
6.23044e-06
-1.82283e-11
6.23045e-06
-1.88264e-11
6.23047e-06
-1.93275e-11
6.23048e-06
-1.97385e-11
6.2305e-06
-2.00215e-11
6.23051e-06
-2.01926e-11
6.23053e-06
-2.01247e-11
6.23054e-06
-1.98634e-11
6.23056e-06
-1.91154e-11
6.23057e-06
-1.78351e-11
6.23058e-06
-1.60205e-11
6.23059e-06
-1.2221e-11
6.2306e-06
-9.51665e-12
6.2306e-06
-3.04361e-12
6.2306e-06
3.13156e-12
6.2306e-06
4.41028e-12
6.2306e-06
4.09356e-12
6.2306e-06
1.61142e-12
6.2306e-06
1.38899e-13
6.2306e-06
-1.57036e-12
6.2306e-06
-3.21286e-12
6.2306e-06
-4.58011e-12
6.23061e-06
-5.63265e-12
6.23061e-06
-6.25944e-12
6.23062e-06
-6.40197e-12
6.23062e-06
-6.03303e-12
6.23062e-06
-5.17169e-12
6.23063e-06
-3.88892e-12
6.23063e-06
-2.29489e-12
6.23063e-06
-5.24999e-13
6.23063e-06
1.28658e-12
6.23062e-06
3.02969e-12
6.23062e-06
4.62155e-12
6.23062e-06
6.01216e-12
6.23061e-06
7.17953e-12
6.2306e-06
8.11838e-12
6.2306e-06
8.83635e-12
6.23059e-06
9.34679e-12
6.23058e-06
9.66717e-12
6.23058e-06
9.81704e-12
6.23057e-06
9.81747e-12
6.23056e-06
9.69167e-12
6.23055e-06
9.45998e-12
6.23055e-06
9.14182e-12
6.23054e-06
8.74984e-12
6.23053e-06
8.2943e-12
6.23053e-06
7.77912e-12
6.23052e-06
7.21179e-12
6.23052e-06
6.58664e-12
6.23051e-06
5.92357e-12
6.23051e-06
5.18581e-12
6.23051e-06
4.43334e-12
6.2305e-06
3.53107e-12
6.2305e-06
2.62641e-12
6.2305e-06
1.50916e-12
6.2305e-06
8.02435e-13
6.2305e-06
5.11285e-13
6.2305e-06
3.61603e-13
6.2305e-06
5.20774e-13
6.2305e-06
3.40877e-13
6.2305e-06
2.27728e-14
6.2305e-06
-4.03472e-13
6.2305e-06
-9.52498e-13
6.2305e-06
-1.57758e-12
6.2305e-06
-2.31109e-12
6.2305e-06
-3.03881e-12
6.23051e-06
-3.81959e-12
6.23051e-06
-4.35538e-12
6.23051e-06
-4.60676e-12
6.23052e-06
-4.49239e-12
6.23052e-06
-2.71011e-12
6.23052e-06
-1.7877e-12
6.23052e-06
2.09916e-12
6.23051e-06
7.16141e-12
6.23051e-06
7.35295e-12
6.23051e-06
5.87246e-12
6.2305e-06
3.28391e-12
6.2305e-06
2.3085e-13
6.2305e-06
-2.67568e-12
6.23051e-06
-5.22642e-12
6.23051e-06
-7.2509e-12
6.23052e-06
-8.62664e-12
6.23053e-06
-9.22756e-12
6.23053e-06
-9.34995e-12
6.23054e-06
-6.646e-12
6.23055e-06
-9.50861e-12
6.23054e-06
2.52539e-12
-1.21791e-11
1.07294e-05
-6.18019e-11
1.07294e-05
-3.1987e-11
1.07295e-05
-2.18552e-11
1.07295e-05
4.17305e-13
1.07294e-05
2.99026e-11
1.07294e-05
5.35668e-11
1.07294e-05
6.98576e-11
1.07293e-05
7.86197e-11
1.07293e-05
8.1253e-11
1.07292e-05
7.94348e-11
1.07292e-05
7.4684e-11
1.07291e-05
6.81962e-11
1.07291e-05
6.074e-11
1.07291e-05
5.27408e-11
1.07291e-05
4.44401e-11
1.0729e-05
3.60419e-11
1.0729e-05
2.77575e-11
1.0729e-05
1.97794e-11
1.0729e-05
1.22404e-11
1.0729e-05
5.20839e-12
1.0729e-05
-1.29533e-12
1.0729e-05
-7.25201e-12
1.0729e-05
-1.26394e-11
1.0729e-05
-1.74501e-11
1.0729e-05
-2.16969e-11
1.07291e-05
-2.54136e-11
1.07291e-05
-2.86552e-11
1.07291e-05
-3.14868e-11
1.07291e-05
-3.39749e-11
1.07291e-05
-3.61768e-11
1.07291e-05
-3.81343e-11
1.07292e-05
-3.98718e-11
1.07292e-05
-4.13987e-11
1.07292e-05
-4.2723e-11
1.07292e-05
-4.38321e-11
1.07293e-05
-4.47353e-11
1.07293e-05
-4.53677e-11
1.07293e-05
-4.57486e-11
1.07293e-05
-4.56347e-11
1.07294e-05
-4.51018e-11
1.07294e-05
-4.35357e-11
1.07294e-05
-4.09131e-11
1.07294e-05
-3.69657e-11
1.07295e-05
-2.92656e-11
1.07295e-05
-2.30868e-11
1.07295e-05
-9.73257e-12
1.07295e-05
3.40812e-12
1.07295e-05
7.24961e-12
1.07295e-05
7.08832e-12
1.07295e-05
2.51523e-12
1.07295e-05
-5.88591e-13
1.07295e-05
-4.05568e-12
1.07295e-05
-7.43379e-12
1.07295e-05
-1.02659e-11
1.07295e-05
-1.24104e-11
1.07295e-05
-1.36268e-11
1.07295e-05
-1.37756e-11
1.07295e-05
-1.27962e-11
1.07295e-05
-1.07363e-11
1.07295e-05
-7.75751e-12
1.07295e-05
-4.11123e-12
1.07295e-05
-9.93602e-14
1.07295e-05
3.98241e-12
1.07295e-05
7.88958e-12
1.07295e-05
1.1443e-11
1.07295e-05
1.45359e-11
1.07295e-05
1.71198e-11
1.07295e-05
1.91877e-11
1.07295e-05
2.07585e-11
1.07294e-05
2.18639e-11
1.07294e-05
2.25436e-11
1.07294e-05
2.28426e-11
1.07294e-05
2.28097e-11
1.07294e-05
2.24953e-11
1.07294e-05
2.19474e-11
1.07294e-05
2.12066e-11
1.07294e-05
2.03026e-11
1.07293e-05
1.92579e-11
1.07293e-05
1.80843e-11
1.07293e-05
1.67939e-11
1.07293e-05
1.53845e-11
1.07293e-05
1.3887e-11
1.07293e-05
1.22468e-11
1.07293e-05
1.05571e-11
1.07293e-05
8.58972e-12
1.07293e-05
6.5769e-12
1.07293e-05
4.17385e-12
1.07293e-05
2.54885e-12
1.07293e-05
1.78158e-12
1.07293e-05
1.39278e-12
1.07293e-05
1.613e-12
1.07293e-05
1.23834e-12
1.07293e-05
5.41359e-13
1.07293e-05
-4.11683e-13
1.07293e-05
-1.64867e-12
1.07293e-05
-3.09551e-12
1.07293e-05
-4.80017e-12
1.07293e-05
-6.54932e-12
1.07293e-05
-8.4298e-12
1.07293e-05
-9.82692e-12
1.07293e-05
-1.06843e-11
1.07293e-05
-1.06304e-11
1.07293e-05
-7.39885e-12
1.07293e-05
-5.36854e-12
1.07293e-05
2.44064e-12
1.07293e-05
1.27632e-11
1.07293e-05
1.4044e-11
1.07293e-05
1.13468e-11
1.07293e-05
6.16444e-12
1.07293e-05
-1.25575e-13
1.07293e-05
-6.26699e-12
1.07293e-05
-1.16769e-11
1.07293e-05
-1.60828e-11
1.07293e-05
-1.89879e-11
1.07293e-05
-2.05503e-11
1.07294e-05
-2.04561e-11
1.07294e-05
-1.57687e-11
1.07294e-05
-2.00321e-11
1.07294e-05
3.21735e-12
-2.65336e-11
1.55087e-05
-1.13212e-10
1.55087e-05
-6.6797e-11
1.55087e-05
-3.65522e-11
1.55087e-05
8.16546e-12
1.55087e-05
5.98726e-11
1.55086e-05
1.00726e-10
1.55086e-05
1.28225e-10
1.55085e-05
1.4266e-10
1.55085e-05
1.46521e-10
1.55084e-05
1.42709e-10
1.55083e-05
1.33837e-10
1.55083e-05
1.21954e-10
1.55082e-05
1.08395e-10
1.55082e-05
9.39123e-11
1.55082e-05
7.89473e-11
1.55081e-05
6.38629e-11
1.55081e-05
4.90267e-11
1.55081e-05
3.47645e-11
1.55081e-05
2.13008e-11
1.55081e-05
8.74602e-12
1.55081e-05
-2.86159e-12
1.55081e-05
-1.34874e-11
1.55081e-05
-2.30918e-11
1.55081e-05
-3.16638e-11
1.55081e-05
-3.92281e-11
1.55081e-05
-4.58455e-11
1.55082e-05
-5.16143e-11
1.55082e-05
-5.66499e-11
1.55082e-05
-6.1069e-11
1.55082e-05
-6.4972e-11
1.55083e-05
-6.84326e-11
1.55083e-05
-7.14943e-11
1.55083e-05
-7.41749e-11
1.55084e-05
-7.64899e-11
1.55084e-05
-7.8426e-11
1.55084e-05
-7.99955e-11
1.55085e-05
-8.1105e-11
1.55085e-05
-8.17744e-11
1.55086e-05
-8.16292e-11
1.55086e-05
-8.07635e-11
1.55086e-05
-7.81919e-11
1.55087e-05
-7.38876e-11
1.55087e-05
-6.7217e-11
1.55087e-05
-5.47045e-11
1.55087e-05
-4.38625e-11
1.55087e-05
-2.19002e-11
1.55087e-05
2.24782e-13
1.55087e-05
8.21306e-12
1.55087e-05
8.95102e-12
1.55087e-05
2.33956e-12
1.55087e-05
-2.62998e-12
1.55088e-05
-8.17773e-12
1.55088e-05
-1.36162e-11
1.55088e-05
-1.82018e-11
1.55088e-05
-2.16046e-11
1.55088e-05
-2.34055e-11
1.55088e-05
-2.33482e-11
1.55088e-05
-2.13306e-11
1.55088e-05
-1.74456e-11
1.55088e-05
-1.19872e-11
1.55088e-05
-5.40543e-12
1.55088e-05
1.76829e-12
1.55088e-05
9.01846e-12
1.55088e-05
1.59203e-11
1.55088e-05
2.21685e-11
1.55088e-05
2.75826e-11
1.55088e-05
3.2084e-11
1.55087e-05
3.56669e-11
1.55087e-05
3.83671e-11
1.55087e-05
4.02447e-11
1.55087e-05
4.13722e-11
1.55087e-05
4.18305e-11
1.55087e-05
4.17074e-11
1.55086e-05
4.10922e-11
1.55086e-05
4.00678e-11
1.55086e-05
3.8708e-11
1.55086e-05
3.7065e-11
1.55086e-05
3.51771e-11
1.55086e-05
3.30667e-11
1.55085e-05
3.0755e-11
1.55085e-05
2.82457e-11
1.55085e-05
2.55832e-11
1.55085e-05
2.26975e-11
1.55085e-05
1.97139e-11
1.55085e-05
1.63076e-11
1.55085e-05
1.27899e-11
1.55085e-05
8.68257e-12
1.55085e-05
5.76468e-12
1.55085e-05
4.2446e-12
1.55085e-05
3.4502e-12
1.55085e-05
3.64369e-12
1.55085e-05
2.9922e-12
1.55085e-05
1.7835e-12
1.55085e-05
9.61141e-14
1.55085e-05
-2.11443e-12
1.55085e-05
-4.75485e-12
1.55085e-05
-7.88961e-12
1.55085e-05
-1.11877e-11
1.55085e-05
-1.47413e-11
1.55085e-05
-1.75583e-11
1.55085e-05
-1.95194e-11
1.55085e-05
-1.98477e-11
1.55085e-05
-1.52125e-11
1.55085e-05
-1.18717e-11
1.55085e-05
5.78258e-13
1.55085e-05
1.7315e-11
1.55085e-05
2.05748e-11
1.55085e-05
1.68649e-11
1.55085e-05
8.72354e-12
1.55085e-05
-1.46905e-12
1.55085e-05
-1.16477e-11
1.55085e-05
-2.06996e-11
1.55085e-05
-2.81725e-11
1.55085e-05
-3.31022e-11
1.55086e-05
-3.59517e-11
1.55086e-05
-3.56126e-11
1.55086e-05
-2.87059e-11
1.55086e-05
-3.41148e-11
1.55086e-05
2.97382e-12
-4.76186e-11
2.05111e-05
-1.82488e-10
2.05112e-05
-1.13163e-10
2.05112e-05
-5.12136e-11
2.05112e-05
2.49527e-11
2.05111e-05
1.03772e-10
2.05111e-05
1.64708e-10
2.0511e-05
2.0485e-10
2.05109e-05
2.2533e-10
2.05108e-05
2.29996e-10
2.05108e-05
2.23186e-10
2.05107e-05
2.08804e-10
2.05106e-05
1.89896e-10
2.05106e-05
1.68469e-10
2.05105e-05
1.45674e-10
2.05105e-05
1.22199e-10
2.05104e-05
9.86092e-11
2.05104e-05
7.54602e-11
2.05104e-05
5.32383e-11
2.05104e-05
3.22758e-11
2.05104e-05
1.27337e-11
2.05104e-05
-5.33033e-12
2.05104e-05
-2.18612e-11
2.05104e-05
-3.68001e-11
2.05104e-05
-5.01314e-11
2.05104e-05
-6.18942e-11
2.05105e-05
-7.21844e-11
2.05105e-05
-8.11528e-11
2.05105e-05
-8.89779e-11
2.05106e-05
-9.58387e-11
2.05106e-05
-1.0189e-10
2.05106e-05
-1.07244e-10
2.05107e-05
-1.11967e-10
2.05107e-05
-1.16092e-10
2.05108e-05
-1.19641e-10
2.05108e-05
-1.22605e-10
2.05108e-05
-1.25001e-10
2.05109e-05
-1.2671e-10
2.05109e-05
-1.27748e-10
2.0511e-05
-1.27607e-10
2.0511e-05
-1.26381e-10
2.05111e-05
-1.22697e-10
2.05111e-05
-1.16485e-10
2.05112e-05
-1.06691e-10
2.05112e-05
-8.87551e-11
2.05112e-05
-7.23423e-11
2.05112e-05
-4.05458e-11
2.05112e-05
-7.90985e-12
2.05112e-05
5.75949e-12
2.05112e-05
8.41706e-12
2.05112e-05
2.25051e-13
2.05112e-05
-6.51464e-12
2.05113e-05
-1.42126e-11
2.05113e-05
-2.18015e-11
2.05113e-05
-2.82201e-11
2.05113e-05
-3.28645e-11
2.05113e-05
-3.50862e-11
2.05113e-05
-3.44841e-11
2.05113e-05
-3.09107e-11
2.05113e-05
-2.45286e-11
2.05113e-05
-1.58057e-11
2.05113e-05
-5.44214e-12
2.05113e-05
5.74573e-12
2.05113e-05
1.69752e-11
2.05113e-05
2.76056e-11
2.05113e-05
3.71817e-11
2.05113e-05
4.544e-11
2.05113e-05
5.22725e-11
2.05112e-05
5.76791e-11
2.05112e-05
6.17225e-11
2.05112e-05
6.44994e-11
2.05112e-05
6.61239e-11
2.05111e-05
6.67247e-11
2.05111e-05
6.64365e-11
2.05111e-05
6.53972e-11
2.05111e-05
6.37358e-11
2.0511e-05
6.15626e-11
2.0511e-05
5.89609e-11
2.0511e-05
5.59874e-11
2.0511e-05
5.26789e-11
2.0511e-05
4.90681e-11
2.05109e-05
4.51675e-11
2.05109e-05
4.10372e-11
2.05109e-05
3.65952e-11
2.05109e-05
3.19998e-11
2.05109e-05
2.68277e-11
2.05109e-05
2.14632e-11
2.05109e-05
1.52986e-11
2.05109e-05
1.07479e-11
2.05109e-05
8.19253e-12
2.05109e-05
6.79633e-12
2.05109e-05
6.8349e-12
2.05109e-05
5.80549e-12
2.05109e-05
3.95515e-12
2.05109e-05
1.33095e-12
2.05109e-05
-2.14109e-12
2.05109e-05
-6.36161e-12
2.05109e-05
-1.14082e-11
2.05109e-05
-1.68231e-11
2.05109e-05
-2.26699e-11
2.05109e-05
-2.75401e-11
2.05109e-05
-3.11906e-11
2.05109e-05
-3.23612e-11
2.05109e-05
-2.66008e-11
2.05109e-05
-2.19472e-11
2.05109e-05
-4.51114e-12
2.05109e-05
1.93415e-11
2.05109e-05
2.5426e-11
2.05109e-05
2.11993e-11
2.05109e-05
1.01246e-11
2.05109e-05
-4.24044e-12
2.05109e-05
-1.89053e-11
2.05109e-05
-3.21084e-11
2.0511e-05
-4.31149e-11
2.0511e-05
-5.0462e-11
2.0511e-05
-5.48268e-11
2.0511e-05
-5.43055e-11
2.0511e-05
-4.5055e-11
2.0511e-05
-5.13558e-11
2.0511e-05
1.92265e-12
-7.72703e-11
2.55922e-05
-2.65543e-10
2.55923e-05
-1.65101e-10
2.55923e-05
-6.14953e-11
2.55923e-05
5.24889e-11
2.55922e-05
1.60893e-10
2.55921e-05
2.42855e-10
2.5592e-05
2.95857e-10
2.55919e-05
3.22166e-10
2.55919e-05
3.2709e-10
2.55918e-05
3.16472e-10
2.55917e-05
2.95562e-10
2.55916e-05
2.68467e-10
2.55915e-05
2.37908e-10
2.55915e-05
2.05473e-10
2.55914e-05
1.72131e-10
2.55914e-05
1.38682e-10
2.55913e-05
1.05898e-10
2.55913e-05
7.44451e-11
2.55913e-05
4.4776e-11
2.55913e-05
1.71106e-11
2.55913e-05
-8.46683e-12
2.55913e-05
-3.18795e-11
2.55913e-05
-5.3048e-11
2.55914e-05
-7.19499e-11
2.55914e-05
-8.86373e-11
2.55914e-05
-1.03244e-10
2.55914e-05
-1.15982e-10
2.55915e-05
-1.271e-10
2.55915e-05
-1.36849e-10
2.55916e-05
-1.45443e-10
2.55916e-05
-1.53037e-10
2.55917e-05
-1.59727e-10
2.55917e-05
-1.6556e-10
2.55918e-05
-1.70571e-10
2.55918e-05
-1.74754e-10
2.55919e-05
-1.78136e-10
2.55919e-05
-1.80574e-10
2.5592e-05
-1.8208e-10
2.5592e-05
-1.82018e-10
2.55921e-05
-1.80461e-10
2.55921e-05
-1.75657e-10
2.55922e-05
-1.67453e-10
2.55922e-05
-1.5435e-10
2.55923e-05
-1.30701e-10
2.55923e-05
-1.08165e-10
2.55923e-05
-6.58325e-11
2.55924e-05
-2.16932e-11
2.55924e-05
-1.03521e-12
2.55924e-05
4.67024e-12
2.55924e-05
-4.33079e-12
2.55924e-05
-1.24395e-11
2.55924e-05
-2.20945e-11
2.55924e-05
-3.1699e-11
2.55924e-05
-3.9828e-11
2.55924e-05
-4.5532e-11
2.55924e-05
-4.78921e-11
2.55924e-05
-4.63428e-11
2.55925e-05
-4.07001e-11
2.55925e-05
-3.12209e-11
2.55925e-05
-1.85822e-11
2.55925e-05
-3.77168e-12
2.55925e-05
1.20759e-11
2.55924e-05
2.78795e-11
2.55924e-05
4.27603e-11
2.55924e-05
5.61055e-11
2.55924e-05
6.75664e-11
2.55924e-05
7.7009e-11
2.55923e-05
8.44443e-11
2.55923e-05
8.99693e-11
2.55923e-05
9.3724e-11
2.55922e-05
9.58717e-11
2.55922e-05
9.65929e-11
2.55922e-05
9.60781e-11
2.55922e-05
9.45189e-11
2.55921e-05
9.20956e-11
2.55921e-05
8.89613e-11
2.55921e-05
8.52319e-11
2.55921e-05
8.09875e-11
2.5592e-05
7.62804e-11
2.5592e-05
7.11563e-11
2.5592e-05
6.56394e-11
2.5592e-05
5.98082e-11
2.5592e-05
5.35711e-11
2.55919e-05
4.71213e-11
2.55919e-05
3.99377e-11
2.55919e-05
3.24697e-11
2.55919e-05
2.39879e-11
2.55919e-05
1.75317e-11
2.55919e-05
1.36849e-11
2.55919e-05
1.14884e-11
2.55919e-05
1.12186e-11
2.55919e-05
9.69678e-12
2.55919e-05
7.07747e-12
2.55919e-05
3.32626e-12
2.55919e-05
-1.68141e-12
2.55919e-05
-7.85271e-12
2.55919e-05
-1.52751e-11
2.55919e-05
-2.33511e-11
2.55919e-05
-3.20817e-11
2.55919e-05
-3.96211e-11
2.55919e-05
-4.55439e-11
2.55919e-05
-4.806e-11
2.5592e-05
-4.15792e-11
2.5592e-05
-3.57629e-11
2.5592e-05
-1.3297e-11
2.5592e-05
1.79977e-11
2.5592e-05
2.76306e-11
2.5592e-05
2.35658e-11
2.5592e-05
9.94337e-12
2.5592e-05
-8.46441e-12
2.5592e-05
-2.76883e-11
2.5592e-05
-4.52465e-11
2.5592e-05
-6.00242e-11
2.5592e-05
-7.0051e-11
2.55921e-05
-7.61031e-11
2.55921e-05
-7.55236e-11
2.55921e-05
-6.39964e-11
2.55921e-05
-7.0897e-11
2.55921e-05
1.08497e-13
-1.1498e-10
3.05559e-05
-3.5009e-10
3.0556e-05
-2.14693e-10
3.0556e-05
-6.47133e-11
3.05559e-05
8.92821e-11
3.05559e-05
2.26953e-10
3.05558e-05
3.28996e-10
3.05557e-05
3.94047e-10
3.05556e-05
4.25646e-10
3.05555e-05
4.30477e-10
3.05554e-05
4.1577e-10
3.05553e-05
3.88044e-10
3.05552e-05
3.52413e-10
3.05551e-05
3.12292e-10
3.05551e-05
2.69704e-10
3.0555e-05
2.25918e-10
3.0555e-05
1.81986e-10
3.05549e-05
1.3892e-10
3.05549e-05
9.758e-11
3.05549e-05
5.85489e-11
3.05549e-05
2.21147e-11
3.05549e-05
-1.1601e-11
3.05549e-05
-4.24954e-11
3.05549e-05
-7.04675e-11
3.0555e-05
-9.54806e-11
3.0555e-05
-1.17595e-10
3.0555e-05
-1.36985e-10
3.05551e-05
-1.5392e-10
3.05551e-05
-1.68723e-10
3.05551e-05
-1.81719e-10
3.05552e-05
-1.93184e-10
3.05552e-05
-2.03319e-10
3.05553e-05
-2.12247e-10
3.05554e-05
-2.20034e-10
3.05554e-05
-2.26726e-10
3.05555e-05
-2.32325e-10
3.05555e-05
-2.36868e-10
3.05556e-05
-2.40191e-10
3.05556e-05
-2.42305e-10
3.05557e-05
-2.42447e-10
3.05558e-05
-2.40667e-10
3.05558e-05
-2.34844e-10
3.05559e-05
-2.24716e-10
3.05559e-05
-2.08337e-10
3.0556e-05
-1.7899e-10
3.0556e-05
-1.50151e-10
3.05561e-05
-9.70846e-11
3.05561e-05
-4.0967e-11
3.05561e-05
-1.23482e-11
3.05561e-05
-2.52187e-12
3.05561e-05
-1.13891e-11
3.05561e-05
-2.02391e-11
3.05561e-05
-3.14274e-11
3.05561e-05
-4.27154e-11
3.05561e-05
-5.22618e-11
3.05562e-05
-5.87163e-11
3.05562e-05
-6.0866e-11
3.05562e-05
-5.79807e-11
3.05562e-05
-4.98558e-11
3.05562e-05
-3.68662e-11
3.05562e-05
-1.9918e-11
3.05562e-05
-3.00694e-13
3.05562e-05
2.05236e-11
3.05562e-05
4.11708e-11
3.05562e-05
6.05259e-11
3.05561e-05
7.78214e-11
3.05561e-05
9.26294e-11
3.05561e-05
1.04795e-10
3.0556e-05
1.14346e-10
3.0556e-05
1.21416e-10
3.0556e-05
1.26189e-10
3.0556e-05
1.2888e-10
3.05559e-05
1.29723e-10
3.05559e-05
1.28963e-10
3.05559e-05
1.2685e-10
3.05558e-05
1.23616e-10
3.05558e-05
1.19456e-10
3.05558e-05
1.14522e-10
3.05557e-05
1.08917e-10
3.05557e-05
1.02709e-10
3.05557e-05
9.5959e-11
3.05557e-05
8.87033e-11
3.05556e-05
8.10413e-11
3.05556e-05
7.2875e-11
3.05556e-05
6.44309e-11
3.05556e-05
5.50966e-11
3.05556e-05
4.53779e-11
3.05556e-05
3.44268e-11
3.05556e-05
2.58811e-11
3.05555e-05
2.05414e-11
3.05555e-05
1.73644e-11
3.05555e-05
1.66283e-11
3.05555e-05
1.4493e-11
3.05555e-05
1.09784e-11
3.05555e-05
5.92306e-12
3.05555e-05
-8.68512e-13
3.05555e-05
-9.3204e-12
3.05555e-05
-1.95208e-11
3.05555e-05
-3.07194e-11
3.05555e-05
-4.28233e-11
3.05556e-05
-5.35373e-11
3.05556e-05
-6.22158e-11
3.05556e-05
-6.65187e-11
3.05556e-05
-5.973e-11
3.05556e-05
-5.29727e-11
3.05556e-05
-2.56391e-11
3.05557e-05
1.31522e-11
3.05557e-05
2.69133e-11
3.05557e-05
2.37689e-11
3.05557e-05
8.2575e-12
3.05557e-05
-1.37209e-11
3.05557e-05
-3.72369e-11
3.05557e-05
-5.90605e-11
3.05557e-05
-7.76365e-11
3.05557e-05
-9.04731e-11
3.05557e-05
-9.83609e-11
3.05558e-05
-9.78968e-11
3.05558e-05
-8.43973e-11
3.05558e-05
-9.14577e-11
3.05558e-05
-3.02217e-12
-1.55135e-10
3.52543e-05
-4.20429e-10
3.52543e-05
-2.54184e-10
3.52543e-05
-6.04333e-11
3.52543e-05
1.3165e-10
3.52542e-05
2.96291e-10
3.52541e-05
4.16332e-10
3.5254e-05
4.92033e-10
3.52539e-05
5.28263e-10
3.52538e-05
5.32909e-10
3.52537e-05
5.14368e-10
3.52536e-05
4.80242e-10
3.52535e-05
4.36516e-10
3.52535e-05
3.87215e-10
3.52534e-05
3.34762e-10
3.52533e-05
2.8072e-10
3.52533e-05
2.26409e-10
3.52533e-05
1.73088e-10
3.52532e-05
1.21823e-10
3.52532e-05
7.33306e-11
3.52532e-05
2.7977e-11
3.52532e-05
-1.40668e-11
3.52532e-05
-5.2665e-11
3.52532e-05
-8.76867e-11
3.52533e-05
-1.19074e-10
3.52533e-05
-1.4689e-10
3.52533e-05
-1.7134e-10
3.52534e-05
-1.92751e-10
3.52534e-05
-2.11517e-10
3.52535e-05
-2.28031e-10
3.52535e-05
-2.4263e-10
3.52536e-05
-2.55557e-10
3.52536e-05
-2.66964e-10
3.52537e-05
-2.76931e-10
3.52537e-05
-2.85518e-10
3.52538e-05
-2.92734e-10
3.52539e-05
-2.9863e-10
3.52539e-05
-3.03023e-10
3.5254e-05
-3.05921e-10
3.5254e-05
-3.06446e-10
3.52541e-05
-3.04616e-10
3.52542e-05
-2.97962e-10
3.52542e-05
-2.86104e-10
3.52543e-05
-2.66651e-10
3.52543e-05
-2.31849e-10
3.52544e-05
-1.96823e-10
3.52544e-05
-1.33203e-10
3.52545e-05
-6.50452e-11
3.52545e-05
-2.78604e-11
3.52545e-05
-1.30267e-11
3.52545e-05
-2.08056e-11
3.52545e-05
-2.96506e-11
3.52545e-05
-4.17819e-11
3.52545e-05
-5.42614e-11
3.52545e-05
-6.47822e-11
3.52545e-05
-7.15647e-11
3.52546e-05
-7.31006e-11
3.52546e-05
-6.85144e-11
3.52546e-05
-5.76056e-11
3.52546e-05
-4.08865e-11
3.52546e-05
-1.94981e-11
3.52546e-05
4.97578e-12
3.52546e-05
3.07636e-11
3.52545e-05
5.62013e-11
3.52545e-05
7.99574e-11
3.52545e-05
1.01127e-10
3.52545e-05
1.19215e-10
3.52545e-05
1.34054e-10
3.52544e-05
1.45689e-10
3.52544e-05
1.5429e-10
3.52544e-05
1.60084e-10
3.52543e-05
1.63332e-10
3.52543e-05
1.64317e-10
3.52542e-05
1.63339e-10
3.52542e-05
1.60699e-10
3.52542e-05
1.56677e-10
3.52542e-05
1.51514e-10
3.52541e-05
1.45389e-10
3.52541e-05
1.38428e-10
3.52541e-05
1.30717e-10
3.5254e-05
1.2233e-10
3.5254e-05
1.13316e-10
3.5254e-05
1.03796e-10
3.5254e-05
9.36678e-11
3.52539e-05
8.31917e-11
3.52539e-05
7.16689e-11
3.52539e-05
5.96539e-11
3.52539e-05
4.61811e-11
3.52539e-05
3.54489e-11
3.52539e-05
2.84811e-11
3.52539e-05
2.4179e-11
3.52539e-05
2.28295e-11
3.52539e-05
1.99566e-11
3.52539e-05
1.54133e-11
3.52539e-05
8.87901e-12
3.52539e-05
6.92194e-14
3.52539e-05
-1.0958e-11
3.52539e-05
-2.42767e-11
3.52539e-05
-3.89663e-11
3.52539e-05
-5.48131e-11
3.52539e-05
-6.90703e-11
3.52539e-05
-8.08523e-11
3.52539e-05
-8.72697e-11
3.5254e-05
-8.05154e-11
3.5254e-05
-7.30372e-11
3.5254e-05
-4.109e-11
3.5254e-05
5.09601e-12
3.5254e-05
2.34158e-11
3.5254e-05
2.19243e-11
3.5254e-05
5.31984e-12
3.5254e-05
-1.95332e-11
3.5254e-05
-4.68207e-11
3.5254e-05
-7.25798e-11
3.52541e-05
-9.47954e-11
3.52541e-05
-1.10443e-10
3.52541e-05
-1.20281e-10
3.52541e-05
-1.20119e-10
3.52541e-05
-1.05146e-10
3.52542e-05
-1.1169e-10
3.52542e-05
-8.33578e-12
-1.89907e-10
3.96383e-05
-4.65506e-10
3.96383e-05
-2.7696e-10
3.96383e-05
-4.80813e-11
3.96382e-05
1.76625e-10
3.96382e-05
3.64599e-10
3.96381e-05
5.00042e-10
3.9638e-05
5.84745e-10
3.96379e-05
6.24865e-10
3.96378e-05
6.29327e-10
3.96377e-05
6.07467e-10
3.96376e-05
5.67748e-10
3.96375e-05
5.16839e-10
3.96375e-05
4.59255e-10
3.96374e-05
3.97758e-10
3.96373e-05
3.34182e-10
3.96373e-05
2.70112e-10
3.96373e-05
2.0706e-10
3.96372e-05
1.46293e-10
3.96372e-05
8.86666e-11
3.96372e-05
3.46291e-11
3.96372e-05
-1.55899e-11
3.96372e-05
-6.18084e-11
3.96372e-05
-1.03858e-10
3.96373e-05
-1.4165e-10
3.96373e-05
-1.75243e-10
3.96373e-05
-2.04868e-10
3.96374e-05
-2.30901e-10
3.96374e-05
-2.53798e-10
3.96374e-05
-2.74015e-10
3.96375e-05
-2.91944e-10
3.96376e-05
-3.07864e-10
3.96376e-05
-3.21951e-10
3.96377e-05
-3.34298e-10
3.96377e-05
-3.4498e-10
3.96378e-05
-3.54011e-10
3.96378e-05
-3.61455e-10
3.96379e-05
-3.67114e-10
3.9638e-05
-3.70993e-10
3.9638e-05
-3.72104e-10
3.96381e-05
-3.70438e-10
3.96382e-05
-3.63191e-10
3.96382e-05
-3.49866e-10
3.96383e-05
-3.27634e-10
3.96384e-05
-2.87743e-10
3.96384e-05
-2.46838e-10
3.96384e-05
-1.73053e-10
3.96385e-05
-9.30563e-11
3.96385e-05
-4.70223e-11
3.96385e-05
-2.65485e-11
3.96385e-05
-3.24069e-11
3.96385e-05
-4.04905e-11
3.96385e-05
-5.28861e-11
3.96385e-05
-6.5942e-11
3.96386e-05
-7.6859e-11
3.96386e-05
-8.34269e-11
3.96386e-05
-8.38679e-11
3.96386e-05
-7.72002e-11
3.96386e-05
-6.32624e-11
3.96386e-05
-4.27197e-11
3.96386e-05
-1.6942e-11
3.96386e-05
1.22174e-11
3.96386e-05
4.27138e-11
3.96386e-05
7.26453e-11
3.96385e-05
1.00501e-10
3.96385e-05
1.25263e-10
3.96385e-05
1.46389e-10
3.96385e-05
1.63707e-10
3.96384e-05
1.77285e-10
3.96384e-05
1.87324e-10
3.96384e-05
1.9409e-10
3.96383e-05
1.97883e-10
3.96383e-05
1.9903e-10
3.96383e-05
1.97874e-10
3.96382e-05
1.94763e-10
3.96382e-05
1.90022e-10
3.96382e-05
1.83927e-10
3.96381e-05
1.76686e-10
3.96381e-05
1.68443e-10
3.96381e-05
1.59295e-10
3.9638e-05
1.49333e-10
3.9638e-05
1.38616e-10
3.9638e-05
1.27287e-10
3.9638e-05
1.15241e-10
3.9638e-05
1.02772e-10
3.96379e-05
8.91004e-11
3.96379e-05
7.48199e-11
3.96379e-05
5.88473e-11
3.96379e-05
4.59054e-11
3.96379e-05
3.72383e-11
3.96379e-05
3.17103e-11
3.96379e-05
2.96217e-11
3.96379e-05
2.58839e-11
3.96379e-05
2.0162e-11
3.96379e-05
1.19553e-11
3.96379e-05
8.83515e-13
3.96379e-05
-1.30057e-11
3.96379e-05
-2.97492e-11
3.96379e-05
-4.82348e-11
3.96379e-05
-6.81039e-11
3.96379e-05
-8.61598e-11
3.96379e-05
-1.01274e-10
3.96379e-05
-1.10018e-10
3.9638e-05
-1.03543e-10
3.9638e-05
-9.55226e-11
3.9638e-05
-5.92086e-11
3.9638e-05
-5.77967e-12
3.9638e-05
1.73971e-11
3.9638e-05
1.8189e-11
3.9638e-05
1.28908e-12
3.9638e-05
-2.56507e-11
3.96381e-05
-5.60414e-11
3.96381e-05
-8.52387e-11
3.96381e-05
-1.10784e-10
3.96381e-05
-1.29118e-10
3.96381e-05
-1.40956e-10
3.96381e-05
-1.41243e-10
3.96382e-05
-1.25385e-10
3.96382e-05
-1.30542e-10
3.96382e-05
-1.6217e-11
-2.14362e-10
4.37304e-05
-4.81956e-10
4.37304e-05
-2.788e-10
4.37304e-05
-2.58802e-11
4.37303e-05
2.23518e-10
4.37303e-05
4.30014e-10
4.37302e-05
5.77858e-10
4.37301e-05
6.69743e-10
4.373e-05
7.12881e-10
4.37299e-05
7.1707e-10
4.37299e-05
6.9239e-10
4.37298e-05
6.47945e-10
4.37297e-05
5.90904e-10
4.37296e-05
5.26131e-10
4.37296e-05
4.56647e-10
4.37295e-05
3.84527e-10
4.37295e-05
3.11604e-10
4.37295e-05
2.39633e-10
4.37294e-05
1.70075e-10
4.37294e-05
1.03916e-10
4.37294e-05
4.16896e-11
4.37294e-05
-1.63113e-11
4.37294e-05
-6.98479e-11
4.37294e-05
-1.18703e-10
4.37295e-05
-1.62752e-10
4.37295e-05
-2.02042e-10
4.37295e-05
-2.36819e-10
4.37295e-05
-2.67502e-10
4.37296e-05
-2.94599e-10
4.37296e-05
-3.18623e-10
4.37297e-05
-3.40008e-10
4.37297e-05
-3.59065e-10
4.37298e-05
-3.75988e-10
4.37298e-05
-3.90881e-10
4.37299e-05
-4.03828e-10
4.373e-05
-4.14852e-10
4.373e-05
-4.24027e-10
4.37301e-05
-4.3114e-10
4.37302e-05
-4.36195e-10
4.37302e-05
-4.38101e-10
4.37303e-05
-4.36822e-10
4.37304e-05
-4.29234e-10
4.37304e-05
-4.14731e-10
4.37305e-05
-3.90048e-10
4.37305e-05
-3.4548e-10
4.37306e-05
-2.99088e-10
4.37306e-05
-2.15608e-10
4.37307e-05
-1.24104e-10
4.37307e-05
-6.91734e-11
4.37307e-05
-4.26803e-11
4.37307e-05
-4.59774e-11
4.37307e-05
-5.26153e-11
4.37307e-05
-6.45723e-11
4.37308e-05
-7.75061e-11
4.37308e-05
-8.81235e-11
4.37308e-05
-9.38159e-11
4.37308e-05
-9.259e-11
4.37308e-05
-8.34162e-11
4.37308e-05
-6.62138e-11
4.37308e-05
-4.18139e-11
4.37308e-05
-1.17994e-11
4.37308e-05
2.17423e-11
4.37308e-05
5.65437e-11
4.37307e-05
9.05168e-11
4.37307e-05
1.22015e-10
4.37307e-05
1.49945e-10
4.37307e-05
1.73737e-10
4.37306e-05
1.93228e-10
4.37306e-05
2.0851e-10
4.37306e-05
2.19817e-10
4.37305e-05
2.27446e-10
4.37305e-05
2.31729e-10
4.37305e-05
2.33026e-10
4.37304e-05
2.31719e-10
4.37304e-05
2.28193e-10
4.37304e-05
2.2281e-10
4.37303e-05
2.15875e-10
4.37303e-05
2.07617e-10
4.37303e-05
1.98195e-10
4.37303e-05
1.87717e-10
4.37302e-05
1.76283e-10
4.37302e-05
1.63963e-10
4.37302e-05
1.50922e-10
4.37302e-05
1.37053e-10
4.37301e-05
1.22681e-10
4.37301e-05
1.06949e-10
4.37301e-05
9.04859e-11
4.37301e-05
7.20852e-11
4.37301e-05
5.69658e-11
4.37301e-05
4.65844e-11
4.37301e-05
3.97748e-11
4.37301e-05
3.68461e-11
4.373e-05
3.2112e-11
4.373e-05
2.50343e-11
4.373e-05
1.49266e-11
4.373e-05
1.31694e-12
4.373e-05
-1.57376e-11
4.373e-05
-3.62052e-11
4.37301e-05
-5.87573e-11
4.37301e-05
-8.28699e-11
4.37301e-05
-1.04898e-10
4.37301e-05
-1.2348e-10
4.37301e-05
-1.34665e-10
4.37302e-05
-1.28615e-10
4.37302e-05
-1.20169e-10
4.37302e-05
-7.96695e-11
4.37302e-05
-1.91197e-11
4.37302e-05
9.12429e-12
4.37302e-05
1.27064e-11
4.37302e-05
-3.7703e-12
4.37302e-05
-3.20181e-11
4.37303e-05
-6.47901e-11
4.37303e-05
-9.68351e-11
4.37303e-05
-1.25293e-10
4.37303e-05
-1.46086e-10
4.37303e-05
-1.59894e-10
4.37303e-05
-1.60705e-10
4.37304e-05
-1.44536e-10
4.37304e-05
-1.47371e-10
4.37304e-05
-2.62715e-11
-2.27645e-10
4.75813e-05
-4.72191e-10
4.75813e-05
-2.58722e-10
4.75813e-05
8.10628e-12
4.75812e-05
2.73413e-10
4.75812e-05
4.9274e-10
4.75811e-05
6.49519e-10
4.7581e-05
7.4653e-10
4.75809e-05
7.91622e-10
4.75809e-05
7.95251e-10
4.75808e-05
7.68063e-10
4.75807e-05
7.19616e-10
4.75806e-05