/*--------------------------------*- C++ -*----------------------------------*\
  =========                 |
  \\      /  F ield         | OpenFOAM: The Open Source CFD Toolbox
   \\    /   O peration     | Website:  https://openfoam.org
    \\  /    A nd           | Version:  7
     \\/     M anipulation  |
\*---------------------------------------------------------------------------*/
FoamFile
{
    version     2.0;
    format      ascii;
    class       volVectorField;
    location    "4500";
    object      U;
}
// * * * * * * * * * * * * * * * * * * * * * * * * * * * * * * * * * * * * * //

dimensions      [0 1 -1 0 0 0 0];

internalField   nonuniform List<vector> 
24000
(
(0.00398401 -9.90774e-11 1.58038e-16)
(0.00398402 7.7945e-11 1.49502e-16)
(0.00398402 -6.40757e-11 1.57427e-16)
(0.00398402 -2.72128e-11 8.9256e-17)
(0.00398402 1.33243e-11 -2.21578e-16)
(0.00398401 4.83373e-11 6.3387e-17)
(0.003984 7.60698e-11 -1.55346e-16)
(0.00398398 9.14724e-11 9.52344e-17)
(0.00398397 9.77666e-11 1.36393e-16)
(0.00398395 9.72038e-11 -1.36854e-16)
(0.00398393 9.23253e-11 1.09193e-16)
(0.00398392 8.51371e-11 1.09971e-16)
(0.0039839 7.67459e-11 1.13922e-16)
(0.00398389 6.75601e-11 9.27286e-17)
(0.00398388 5.77351e-11 7.37595e-17)
(0.00398387 4.74226e-11 1.10843e-16)
(0.00398386 3.69721e-11 9.32383e-17)
(0.00398386 2.67517e-11 9.56678e-17)
(0.00398386 1.70497e-11 7.61001e-17)
(0.00398385 8.02638e-12 3.08088e-17)
(0.00398385 -2.98868e-13 1.08712e-16)
(0.00398385 -7.95438e-12 4.88634e-17)
(0.00398386 -1.49248e-11 7.22221e-17)
(0.00398386 -2.11875e-11 5.15452e-17)
(0.00398386 -2.67444e-11 -1.61932e-17)
(0.00398387 -3.16196e-11 7.84576e-17)
(0.00398387 -3.58779e-11 6.35048e-17)
(0.00398388 -3.9587e-11 7.57498e-17)
(0.00398389 -4.28687e-11 5.23135e-17)
(0.0039839 -4.58205e-11 -1.72625e-17)
(0.0039839 -4.84902e-11 7.75044e-17)
(0.00398391 -5.09389e-11 5.87139e-17)
(0.00398392 -5.3137e-11 7.02296e-17)
(0.00398393 -5.51448e-11 4.07064e-17)
(0.00398394 -5.67729e-11 -2.22948e-17)
(0.00398395 -5.82297e-11 6.68487e-17)
(0.00398396 -5.90338e-11 2.75343e-17)
(0.00398397 -5.96245e-11 5.34434e-17)
(0.00398398 -5.90213e-11 3.9174e-17)
(0.00398399 -5.74824e-11 -8.79378e-18)
(0.003984 -5.47975e-11 2.20309e-17)
(0.00398401 -4.68057e-11 2.41134e-16)
(0.00398402 -4.3343e-11 8.52888e-17)
(0.00398402 -1.88039e-11 8.31513e-17)
(0.00398403 -1.77265e-11 9.48708e-17)
(0.00398403 1.7185e-11 1.03731e-16)
(0.00398403 4.33533e-11 3.10783e-16)
(0.00398403 3.20656e-11 1.17564e-16)
(0.00398402 3.07227e-11 1.08675e-16)
(0.00398402 1.02569e-11 1.15984e-16)
(0.00398402 8.03102e-12 1.2287e-16)
(0.00398402 -1.89574e-12 3.331e-16)
(0.00398402 -8.84572e-12 1.29987e-16)
(0.00398402 -1.48797e-11 3.02151e-16)
(0.00398403 -1.97199e-11 1.44174e-16)
(0.00398403 -2.29745e-11 1.61595e-16)
(0.00398403 -2.45957e-11 3.26246e-16)
(0.00398404 -2.44672e-11 1.55454e-16)
(0.00398404 -2.26558e-11 3.79618e-16)
(0.00398404 -1.93327e-11 1.19762e-16)
(0.00398404 -1.48434e-11 1.58169e-16)
(0.00398404 -9.5977e-12 3.125e-16)
(0.00398404 -4.05704e-12 1.66261e-16)
(0.00398404 1.41443e-12 3.57269e-16)
(0.00398404 6.49594e-12 1.36541e-16)
(0.00398404 1.09948e-11 1.72652e-16)
(0.00398404 1.48363e-11 4.3612e-16)
(0.00398403 1.79764e-11 1.72784e-16)
(0.00398403 2.04392e-11 3.32127e-16)
(0.00398402 2.22508e-11 7.56628e-17)
(0.00398402 2.34827e-11 1.77811e-16)
(0.00398402 2.4168e-11 4.36343e-16)
(0.00398401 2.43724e-11 1.83538e-16)
(0.00398401 2.4174e-11 3.41916e-16)
(0.003984 2.36318e-11 1.54727e-16)
(0.003984 2.28141e-11 2.02327e-16)
(0.00398399 2.17429e-11 3.67291e-16)
(0.00398399 2.04975e-11 1.89591e-16)
(0.00398398 1.89992e-11 4.51958e-16)
(0.00398398 1.74334e-11 1.45631e-16)
(0.00398398 1.54526e-11 -7.91551e-17)
(0.00398398 1.36153e-11 1.07408e-16)
(0.00398397 1.09604e-11 1.83343e-16)
(0.00398397 8.94457e-12 -4.35423e-17)
(0.00398397 5.20496e-12 1.08909e-16)
(0.00398397 2.71001e-12 -1.10225e-16)
(0.00398397 -2.20448e-12 9.77606e-17)
(0.00398397 -3.70723e-12 1.81657e-16)
(0.00398397 -3.24998e-12 -3.38725e-17)
(0.00398397 -3.8197e-12 7.52752e-17)
(0.00398397 -1.41563e-12 -1.27843e-16)
(0.00398397 -2.94239e-12 9.74955e-17)
(0.00398397 -3.90523e-12 1.65938e-16)
(0.00398397 -5.30258e-12 -5.51741e-17)
(0.00398397 -7.08974e-12 7.29407e-17)
(0.00398397 -8.63288e-12 -7.31017e-17)
(0.00398397 -1.05985e-11 4.09698e-18)
(0.00398397 -1.18989e-11 1.42301e-16)
(0.00398397 -1.32476e-11 -1.12777e-16)
(0.00398397 -1.37517e-11 9.08014e-17)
(0.00398398 -1.07744e-11 -7.61184e-17)
(0.00398398 -1.11597e-11 2.53491e-17)
(0.00398398 5.03017e-12 1.41089e-16)
(0.00398398 4.11026e-12 -1.18522e-16)
(0.00398398 2.59492e-11 7.88519e-17)
(0.00398398 5.39475e-11 -5.06675e-17)
(0.00398397 4.01296e-11 5.11887e-17)
(0.00398397 3.25138e-11 1.57184e-16)
(0.00398397 1.84112e-11 -9.16587e-17)
(0.00398396 4.27375e-12 4.02157e-17)
(0.00398396 -7.12251e-12 -1.01783e-16)
(0.00398397 -1.8345e-11 -1.32931e-16)
(0.00398397 -2.36384e-11 1.40912e-16)
(0.00398397 -3.26975e-11 -1.33087e-17)
(0.00398398 -2.55148e-11 5.55772e-17)
(0.00398398 -4.18453e-11 -9.44083e-17)
(0.00398399 1.56326e-12 -4.57101e-17)
(0.00398399 -6.09374e-11 1.44848e-16)
(0.00398399 5.28412e-11 -8.27401e-18)
(0.00398399 -6.26282e-11 9.58775e-17)
(0.0120255 -1.38468e-09 4.83493e-16)
(0.0120256 -3.43613e-10 4.53228e-16)
(0.0120256 -5.52846e-10 4.76258e-16)
(0.0120256 -1.54682e-10 2.76574e-16)
(0.0120256 5.3847e-10 -3.90243e-16)
(0.0120255 1.09412e-09 1.98953e-16)
(0.0120255 1.49425e-09 -1.09981e-16)
(0.0120255 1.71547e-09 2.96174e-16)
(0.0120254 1.79132e-09 4.10883e-16)
(0.0120253 1.76153e-09 -2.15688e-16)
(0.0120253 1.66254e-09 3.408e-16)
(0.0120253 1.52327e-09 3.3012e-16)
(0.0120252 1.36161e-09 3.43146e-16)
(0.0120252 1.18686e-09 2.78516e-16)
(0.0120251 1.00398e-09 2.19393e-16)
(0.0120251 8.17401e-10 3.35585e-16)
(0.0120251 6.32222e-10 2.81735e-16)
(0.0120251 4.53234e-10 2.88815e-16)
(0.0120251 2.83858e-10 2.29013e-16)
(0.0120251 1.25855e-10 1.01998e-16)
(0.0120251 -2.03092e-11 3.3239e-16)
(0.0120251 -1.54298e-10 1.45186e-16)
(0.0120251 -2.75658e-10 2.1849e-16)
(0.0120251 -3.84132e-10 1.50661e-16)
(0.0120251 -4.79992e-10 -5.63714e-17)
(0.0120251 -5.63948e-10 2.29664e-16)
(0.0120251 -6.37229e-10 1.9173e-16)
(0.0120251 -7.01336e-10 2.31049e-16)
(0.0120252 -7.57809e-10 1.48909e-16)
(0.0120252 -8.08011e-10 -4.91161e-17)
(0.0120252 -8.52903e-10 2.42676e-16)
(0.0120252 -8.93049e-10 1.79521e-16)
(0.0120253 -9.28551e-10 2.13454e-16)
(0.0120253 -9.59682e-10 1.20853e-16)
(0.0120253 -9.85745e-10 -7.55275e-17)
(0.0120254 -1.00725e-09 2.01878e-16)
(0.0120254 -1.02178e-09 7.88355e-17)
(0.0120254 -1.03058e-09 1.5817e-16)
(0.0120254 -1.026e-09 1.16509e-16)
(0.0120255 -1.01114e-09 -2.7036e-17)
(0.0120255 -9.69698e-10 7.1118e-17)
(0.0120255 -8.9753e-10 2.6306e-16)
(0.0120255 -8.01056e-10 2.49116e-16)
(0.0120256 -5.84908e-10 2.52113e-16)
(0.0120256 -4.49495e-10 2.87104e-16)
(0.0120256 -8.63605e-11 3.15281e-16)
(0.0120256 2.46267e-10 3.63604e-16)
(0.0120256 2.84951e-10 3.48929e-16)
(0.0120256 2.55975e-10 3.29112e-16)
(0.0120256 1.04302e-10 3.50513e-16)
(0.0120256 2.57311e-11 3.72235e-16)
(0.0120256 -7.07747e-11 4.29566e-16)
(0.0120256 -1.62013e-10 3.88402e-16)
(0.0120256 -2.37259e-10 4.9548e-16)
(0.0120256 -2.95915e-10 2.82203e-16)
(0.0120256 -3.31915e-10 4.95502e-16)
(0.0120256 -3.42546e-10 5.4428e-16)
(0.0120256 -3.26417e-10 4.63878e-16)
(0.0120256 -2.84422e-10 5.38754e-16)
(0.0120256 -2.20217e-10 3.81939e-16)
(0.0120256 -1.39426e-10 4.84717e-16)
(0.0120256 -4.90924e-11 5.46106e-16)
(0.0120256 4.38409e-11 4.96756e-16)
(0.0120256 1.33605e-10 6.14255e-16)
(0.0120256 2.15825e-10 4.69247e-16)
(0.0120256 2.87893e-10 5.32313e-16)
(0.0120256 3.4855e-10 5.50327e-16)
(0.0120256 3.97524e-10 5.17557e-16)
(0.0120256 4.35203e-10 6.03022e-16)
(0.0120256 4.62181e-10 2.22196e-16)
(0.0120256 4.79384e-10 5.40538e-16)
(0.0120256 4.87735e-10 6.45862e-16)
(0.0120255 4.88389e-10 5.47366e-16)
(0.0120255 4.82497e-10 6.27301e-16)
(0.0120255 4.71105e-10 3.65817e-16)
(0.0120255 4.55233e-10 6.154e-16)
(0.0120255 4.35521e-10 6.68427e-16)
(0.0120255 4.12495e-10 5.67698e-16)
(0.0120255 3.86303e-10 6.88088e-16)
(0.0120254 3.57455e-10 5.18796e-16)
(0.0120254 3.25315e-10 4.07982e-16)
(0.0120254 2.91403e-10 4.61884e-16)
(0.0120254 2.52971e-10 5.53934e-16)
(0.0120254 2.14294e-10 3.06398e-16)
(0.0120254 1.66366e-10 3.76647e-16)
(0.0120254 1.19436e-10 2.86013e-16)
(0.0120254 5.93931e-11 2.45817e-16)
(0.0120254 2.43658e-11 5.47915e-16)
(0.0120254 1.22786e-11 2.97439e-16)
(0.0120254 5.74344e-12 1.43035e-16)
(0.0120254 1.72875e-11 2.5453e-16)
(0.0120254 6.90652e-12 3.15545e-16)
(0.0120254 -9.96632e-12 5.01695e-16)
(0.0120254 -3.20638e-11 2.59888e-16)
(0.0120254 -6.03637e-11 9.00179e-17)
(0.0120254 -9.16762e-11 2.1147e-16)
(0.0120254 -1.28261e-10 1.6121e-16)
(0.0120254 -1.63187e-10 4.28124e-16)
(0.0120254 -2.00606e-10 2.65237e-16)
(0.0120254 -2.23692e-10 1.54894e-16)
(0.0120254 -2.29725e-10 2.27299e-16)
(0.0120254 -2.19166e-10 4.84229e-17)
(0.0120254 -1.08567e-10 4.27199e-16)
(0.0120254 -6.12182e-11 2.51665e-16)
(0.0120254 1.62211e-10 2.51777e-16)
(0.0120254 4.46346e-10 2.47936e-16)
(0.0120254 4.31599e-10 2.52301e-16)
(0.0120254 3.4074e-10 4.73867e-16)
(0.0120254 1.92966e-10 2.78939e-16)
(0.0120254 2.31338e-11 2.38422e-16)
(0.0120254 -1.3453e-10 2.52871e-16)
(0.0120254 -2.72495e-10 1.85586e-16)
(0.0120254 -3.79025e-10 4.3136e-16)
(0.0120254 -4.53675e-10 3.04304e-16)
(0.0120254 -4.78365e-10 2.43059e-16)
(0.0120255 -4.93683e-10 2.75305e-16)
(0.0120255 -3.19523e-10 2.20954e-16)
(0.0120255 -5.22124e-10 4.43959e-16)
(0.0120255 1.96239e-10 3.17349e-16)
(0.0120255 -6.66749e-10 3.18124e-16)
(0.0202305 -4.07912e-09 8.39903e-16)
(0.0202306 -1.80632e-09 7.63033e-16)
(0.0202306 -1.50186e-09 8.01966e-16)
(0.0202306 -1.42485e-10 4.63484e-16)
(0.0202306 1.84549e-09 1.05501e-16)
(0.0202306 3.44785e-09 3.85384e-16)
(0.0202305 4.56653e-09 2.65167e-16)
(0.0202304 5.17515e-09 5.44321e-16)
(0.0202303 5.36787e-09 6.86001e-16)
(0.0202302 5.25856e-09 3.79967e-16)
(0.0202302 4.9507e-09 6.2463e-16)
(0.0202301 4.52583e-09 5.45158e-16)
(0.02023 4.03583e-09 5.74994e-16)
(0.02023 3.50877e-09 4.59572e-16)
(0.0202299 2.96032e-09 3.65023e-16)
(0.0202299 2.40399e-09 5.68684e-16)
(0.0202298 1.85413e-09 4.68812e-16)
(0.0202298 1.32402e-09 4.86203e-16)
(0.0202298 8.22806e-10 3.76261e-16)
(0.0202298 3.55277e-10 1.96565e-16)
(0.0202298 -7.71432e-11 5.89126e-16)
(0.0202298 -4.73302e-10 2.18419e-16)
(0.0202298 -8.3175e-10 3.75688e-16)
(0.0202298 -1.15187e-09 2.27112e-16)
(0.0202298 -1.43458e-09 -1.21366e-16)
(0.0202299 -1.68204e-09 3.89012e-16)
(0.0202299 -1.89793e-09 3.04555e-16)
(0.0202299 -2.08658e-09 3.96949e-16)
(0.02023 -2.25253e-09 2.14576e-16)
(0.02023 -2.39957e-09 -7.47182e-17)
(0.02023 -2.53058e-09 4.72034e-16)
(0.0202301 -2.64712e-09 3.03617e-16)
(0.0202301 -2.74978e-09 3.6428e-16)
(0.0202302 -2.8391e-09 1.81271e-16)
(0.0202302 -2.91395e-09 -1.54477e-16)
(0.0202302 -2.97511e-09 3.49265e-16)
(0.0202303 -3.01748e-09 1.11039e-16)
(0.0202303 -3.04292e-09 2.65355e-16)
(0.0202304 -3.03337e-09 1.86546e-16)
(0.0202304 -2.99513e-09 -6.12668e-17)
(0.0202305 -2.88438e-09 1.40306e-16)
(0.0202305 -2.69805e-09 2.40985e-16)
(0.0202306 -2.4253e-09 4.09893e-16)
(0.0202306 -1.87492e-09 4.24809e-16)
(0.0202306 -1.46184e-09 4.86794e-16)
(0.0202307 -5.15657e-10 5.36153e-16)
(0.0202307 3.94162e-10 4.71316e-16)
(0.0202307 6.0899e-10 5.79189e-16)
(0.0202307 5.69408e-10 5.53865e-16)
(0.0202307 2.19343e-10 5.9234e-16)
(0.0202307 4.24486e-13 6.29567e-16)
(0.0202307 -2.48007e-10 5.84286e-16)
(0.0202307 -4.88322e-10 6.50276e-16)
(0.0202307 -6.88652e-10 6.56113e-16)
(0.0202307 -8.41937e-10 9.8956e-16)
(0.0202307 -9.3178e-10 8.52087e-16)
(0.0202307 -9.49219e-10 7.26459e-16)
(0.0202307 -8.90189e-10 7.75034e-16)
(0.0202307 -7.57713e-10 7.42648e-16)
(0.0202307 -5.62531e-10 9.58003e-16)
(0.0202308 -3.21349e-10 8.38085e-16)
(0.0202308 -5.44689e-11 7.54489e-16)
(0.0202307 2.18105e-10 8.29457e-16)
(0.0202307 4.7985e-10 8.25138e-16)
(0.0202307 7.18504e-10 1.04943e-15)
(0.0202307 9.2674e-10 9.26391e-16)
(0.0202307 1.1012e-09 7.94066e-16)
(0.0202307 1.24127e-09 8.65875e-16)
(0.0202307 1.34812e-09 8.49124e-16)
(0.0202306 1.42381e-09 9.73007e-16)
(0.0202306 1.47095e-09 9.47827e-16)
(0.0202306 1.49255e-09 8.74343e-16)
(0.0202306 1.49177e-09 9.12235e-16)
(0.0202305 1.47207e-09 8.86003e-16)
(0.0202305 1.43659e-09 1.33034e-15)
(0.0202305 1.38811e-09 1.05701e-15)
(0.0202305 1.32863e-09 9.28502e-16)
(0.0202304 1.25963e-09 9.49384e-16)
(0.0202304 1.18181e-09 9.46395e-16)
(0.0202304 1.09609e-09 1.10774e-15)
(0.0202304 1.00201e-09 8.81478e-16)
(0.0202304 9.02071e-10 1.0173e-15)
(0.0202304 7.91603e-10 9.53376e-16)
(0.0202303 6.78301e-10 6.77026e-16)
(0.0202303 5.44166e-10 1.07616e-15)
(0.0202303 4.08293e-10 6.48737e-16)
(0.0202303 2.43031e-10 9.25138e-16)
(0.0202303 1.36128e-10 9.37686e-16)
(0.0202303 8.99092e-11 6.43426e-16)
(0.0202303 6.67827e-11 1.00589e-15)
(0.0202303 8.7401e-11 6.27895e-16)
(0.0202303 6.12368e-11 8.85963e-16)
(0.0202303 1.36552e-11 8.56529e-16)
(0.0202303 -5.03937e-11 5.99255e-16)
(0.0202303 -1.33008e-10 9.29013e-16)
(0.0202303 -2.27973e-10 5.43019e-16)
(0.0202303 -3.39401e-10 9.70868e-16)
(0.0202303 -4.51274e-10 7.47686e-16)
(0.0202303 -5.71303e-10 5.78219e-16)
(0.0202303 -6.55519e-10 8.2539e-16)
(0.0202303 -7.00101e-10 5.86535e-16)
(0.0202304 -6.85216e-10 8.59382e-16)
(0.0202304 -4.3588e-10 7.52124e-16)
(0.0202304 -2.95235e-10 5.60885e-16)
(0.0202304 2.69675e-10 7.85221e-16)
(0.0202304 1.00464e-09 5.71085e-16)
(0.0202304 1.0535e-09 9.4714e-16)
(0.0202303 8.42284e-10 8.20075e-16)
(0.0202303 4.66211e-10 5.71655e-16)
(0.0202303 1.93263e-11 7.47218e-16)
(0.0202303 -4.09639e-10 5.68703e-16)
(0.0202304 -7.85454e-10 4.60354e-16)
(0.0202304 -1.08742e-09 7.4724e-16)
(0.0202304 -1.2878e-09 6.15048e-16)
(0.0202304 -1.38619e-09 7.93535e-16)
(0.0202304 -1.38822e-09 5.96127e-16)
(0.0202304 -1.02523e-09 5.02176e-16)
(0.0202305 -1.38656e-09 7.69715e-16)
(0.0202305 3.13711e-10 6.35922e-16)
(0.0202305 -1.80737e-09 8.79793e-16)
(0.0285668 -8.37091e-09 1.19306e-15)
(0.0285669 -4.60453e-09 1.0803e-15)
(0.0285669 -2.85408e-09 1.13221e-15)
(0.0285669 2.7745e-10 6.40216e-16)
(0.0285669 4.20262e-09 5.38193e-16)
(0.0285668 7.3375e-09 6.13768e-16)
(0.0285667 9.47375e-09 6.42692e-16)
(0.0285666 1.06108e-08 8.43982e-16)
(0.0285665 1.09365e-08 9.7356e-16)
(0.0285663 1.06736e-08 8.05354e-16)
(0.0285662 1.00232e-08 9.63214e-16)
(0.0285661 9.14297e-09 7.42872e-16)
(0.028566 8.1349e-09 8.09857e-16)
(0.028566 7.05576e-09 6.18895e-16)
(0.0285659 5.93822e-09 5.52695e-16)
(0.0285658 4.80955e-09 8.10423e-16)
(0.0285658 3.69778e-09 6.37128e-16)
(0.0285657 2.62809e-09 6.89652e-16)
(0.0285657 1.6179e-09 4.98298e-16)
(0.0285657 6.75834e-10 1.72843e-16)
(0.0285657 -1.95252e-10 9.63251e-16)
(0.0285657 -9.92762e-10 2.03242e-16)
(0.0285657 -1.71371e-09 5.63396e-16)
(0.0285658 -2.35722e-09 2.3553e-16)
(0.0285658 -2.92512e-09 -4.19004e-17)
(0.0285658 -3.42194e-09 7.64046e-16)
(0.0285659 -3.85513e-09 3.13156e-16)
(0.0285659 -4.23338e-09 5.80904e-16)
(0.028566 -4.56555e-09 3.62721e-16)
(0.028566 -4.85924e-09 -2.0619e-16)
(0.0285661 -5.12003e-09 8.03789e-16)
(0.0285661 -5.35118e-09 4.55215e-16)
(0.0285662 -5.55397e-09 5.3011e-16)
(0.0285662 -5.72951e-09 3.03017e-16)
(0.0285663 -5.8764e-09 -1.15349e-16)
(0.0285664 -5.9957e-09 6.92174e-16)
(0.0285664 -6.07947e-09 8.43681e-17)
(0.0285665 -6.12971e-09 3.90684e-16)
(0.0285666 -6.11565e-09 1.04268e-16)
(0.0285666 -6.04626e-09 -2.07968e-17)
(0.0285667 -5.84203e-09 2.55948e-16)
(0.0285668 -5.50146e-09 2.37073e-16)
(0.0285668 -4.98105e-09 5.90354e-16)
(0.0285669 -3.98658e-09 5.99581e-16)
(0.0285669 -3.16013e-09 7.0027e-16)
(0.0285669 -1.42584e-09 7.66971e-16)
(0.028567 2.94086e-10 5.66875e-16)
(0.028567 8.42521e-10 8.25814e-16)
(0.028567 8.46202e-10 7.78417e-16)
(0.0285669 2.77626e-10 8.46232e-16)
(0.028567 -1.24491e-10 8.93096e-16)
(0.028567 -5.71033e-10 7.37409e-16)
(0.028567 -1.0069e-09 9.32062e-16)
(0.028567 -1.37305e-09 8.26367e-16)
(0.028567 -1.648e-09 1.25433e-15)
(0.028567 -1.80005e-09 1.16291e-15)
(0.028567 -1.81029e-09 9.16481e-16)
(0.028567 -1.67082e-09 1.10442e-15)
(0.0285671 -1.38835e-09 9.49511e-16)
(0.0285671 -9.84657e-10 1.25125e-15)
(0.0285671 -4.93601e-10 1.1724e-15)
(0.0285671 4.45429e-11 9.55698e-16)
(0.0285671 5.90501e-10 1.18035e-15)
(0.0285671 1.11189e-09 1.04952e-15)
(0.028567 1.58516e-09 1.38212e-15)
(0.028567 1.99629e-09 1.29126e-15)
(0.028567 2.33908e-09 1.02597e-15)
(0.028567 2.61275e-09 1.23062e-15)
(0.0285669 2.8199e-09 1.10043e-15)
(0.0285669 2.96491e-09 1.38855e-15)
(0.0285669 3.05318e-09 1.34159e-15)
(0.0285668 3.09074e-09 1.11312e-15)
(0.0285668 3.08421e-09 1.29427e-15)
(0.0285668 3.04025e-09 1.14723e-15)
(0.0285667 2.96526e-09 1.52338e-15)
(0.0285667 2.86471e-09 1.46409e-15)
(0.0285667 2.74256e-09 1.1829e-15)
(0.0285666 2.60176e-09 1.34782e-15)
(0.0285666 2.44391e-09 1.23207e-15)
(0.0285666 2.27063e-09 1.43937e-15)
(0.0285666 2.08192e-09 1.30552e-15)
(0.0285665 1.88147e-09 1.39864e-15)
(0.0285665 1.66296e-09 1.3123e-15)
(0.0285665 1.43736e-09 1.0187e-15)
(0.0285665 1.17694e-09 1.16795e-15)
(0.0285665 9.09246e-10 9.64103e-16)
(0.0285665 5.92909e-10 1.24221e-15)
(0.0285664 3.74915e-10 1.28191e-15)
(0.0285664 2.67917e-10 9.75282e-16)
(0.0285664 2.13579e-10 1.15264e-15)
(0.0285664 2.37251e-10 9.73482e-16)
(0.0285664 1.87898e-10 1.17853e-15)
(0.0285664 9.55559e-11 1.1964e-15)
(0.0285664 -3.17775e-11 9.15485e-16)
(0.0285664 -1.97491e-10 9.39421e-16)
(0.0285664 -3.92958e-10 8.39754e-16)
(0.0285664 -6.23828e-10 9.11297e-16)
(0.0285664 -8.63111e-10 1.06071e-15)
(0.0285664 -1.12046e-09 8.65406e-16)
(0.0285665 -1.31644e-09 1.06835e-15)
(0.0285665 -1.44376e-09 8.95563e-16)
(0.0285665 -1.44695e-09 1.01544e-15)
(0.0285665 -1.04784e-09 1.06951e-15)
(0.0285665 -7.81108e-10 8.47355e-16)
(0.0285665 2.2272e-10 1.0077e-15)
(0.0285665 1.55419e-09 8.54758e-16)
(0.0285665 1.75539e-09 1.08179e-15)
(0.0285665 1.42328e-09 1.15458e-15)
(0.0285665 7.58851e-10 8.48886e-16)
(0.0285665 -5.51452e-11 1.05105e-15)
(0.0285665 -8.56339e-10 8.55618e-16)
(0.0285665 -1.56351e-09 7.49824e-16)
(0.0285665 -2.14281e-09 1.10783e-15)
(0.0285666 -2.52277e-09 9.10112e-16)
(0.0285666 -2.73546e-09 1.09033e-15)
(0.0285666 -2.71174e-09 8.81093e-16)
(0.0285666 -2.13449e-09 7.95418e-16)
(0.0285667 -2.62521e-09 1.14264e-15)
(0.0285667 3.4121e-10 9.41972e-16)
(0.0285667 -3.56632e-09 1.16192e-15)
(0.0369089 -1.44831e-08 1.55546e-15)
(0.0369091 -8.73948e-09 1.38957e-15)
(0.0369091 -4.39429e-09 1.45764e-15)
(0.0369091 1.45353e-09 9.97015e-16)
(0.0369091 7.88794e-09 1.01546e-15)
(0.036909 1.29309e-08 1.00376e-15)
(0.0369088 1.62904e-08 1.0224e-15)
(0.0369087 1.80301e-08 1.18581e-15)
(0.0369085 1.84632e-08 1.13223e-15)
(0.0369084 1.79489e-08 1.21329e-15)
(0.0369082 1.68107e-08 1.33829e-15)
(0.0369081 1.53009e-08 8.88036e-16)
(0.036908 1.35847e-08 1.05524e-15)
(0.0369079 1.17559e-08 7.25962e-16)
(0.0369078 9.86992e-09 7.51345e-16)
(0.0369077 7.97225e-09 1.09644e-15)
(0.0369077 6.10833e-09 7.53854e-16)
(0.0369076 4.31813e-09 9.05873e-16)
(0.0369076 2.62915e-09 5.59742e-16)
(0.0369076 1.05475e-09 5.28952e-16)
(0.0369076 -4.00486e-10 1.11165e-15)
(0.0369076 -1.73214e-09 7.37414e-16)
(0.0369076 -2.93531e-09 8.41746e-16)
(0.0369077 -4.00881e-09 8.3224e-16)
(0.0369077 -4.95579e-09 3.74601e-16)
(0.0369077 -5.78402e-09 9.62978e-16)
(0.0369078 -6.50573e-09 9.28163e-16)
(0.0369078 -7.13545e-09 8.10993e-16)
(0.0369079 -7.6877e-09 7.60164e-16)
(0.036908 -8.17507e-09 3.84789e-16)
(0.036908 -8.60665e-09 1.02923e-15)
(0.0369081 -8.98792e-09 8.77084e-16)
(0.0369082 -9.32126e-09 7.32258e-16)
(0.0369083 -9.60853e-09 6.88996e-16)
(0.0369083 -9.84849e-09 2.56058e-16)
(0.0369084 -1.00426e-08 8.49468e-16)
(0.0369085 -1.01801e-08 6.48096e-16)
(0.0369086 -1.02628e-08 5.82266e-16)
(0.0369087 -1.02466e-08 6.48094e-16)
(0.0369088 -1.01412e-08 3.4011e-16)
(0.0369088 -9.82855e-09 4.77869e-16)
(0.0369089 -9.30493e-09 5.86993e-16)
(0.036909 -8.48647e-09 8.37863e-16)
(0.0369091 -6.97147e-09 7.83442e-16)
(0.0369091 -5.62396e-09 9.4066e-16)
(0.0369092 -2.9534e-09 1.00092e-15)
(0.0369092 -2.43224e-10 1.00561e-15)
(0.0369092 8.02066e-10 1.13165e-15)
(0.0369092 9.41562e-10 9.92476e-16)
(0.0369092 1.81935e-10 1.12221e-15)
(0.0369092 -4.11317e-10 1.15315e-15)
(0.0369092 -1.07664e-09 1.25532e-15)
(0.0369092 -1.7294e-09 1.26953e-15)
(0.0369092 -2.28051e-09 1.35041e-15)
(0.0369093 -2.68505e-09 1.54198e-15)
(0.0369093 -2.8909e-09 1.43478e-15)
(0.0369093 -2.86578e-09 1.44155e-15)
(0.0369093 -2.59737e-09 1.48319e-15)
(0.0369093 -2.09792e-09 1.49049e-15)
(0.0369093 -1.40475e-09 1.4494e-15)
(0.0369093 -5.74423e-10 1.48205e-15)
(0.0369093 3.26677e-10 1.47997e-15)
(0.0369093 1.23453e-09 1.58194e-15)
(0.0369093 2.09656e-09 1.60507e-15)
(0.0369093 2.87514e-09 1.75441e-15)
(0.0369093 3.54825e-09 1.62389e-15)
(0.0369092 4.10652e-09 1.58629e-15)
(0.0369092 4.54961e-09 1.64152e-15)
(0.0369091 4.88225e-09 1.69935e-15)
(0.0369091 5.11213e-09 1.66567e-15)
(0.0369091 5.24839e-09 1.70457e-15)
(0.036909 5.30135e-09 1.69403e-15)
(0.036909 5.28196e-09 1.72607e-15)
(0.0369089 5.20138e-09 1.74176e-15)
(0.0369089 5.07006e-09 1.78623e-15)
(0.0369088 4.89707e-09 1.82117e-15)
(0.0369088 4.68907e-09 1.74587e-15)
(0.0369088 4.45072e-09 1.78884e-15)
(0.0369087 4.18493e-09 1.88157e-15)
(0.0369087 3.89434e-09 1.70715e-15)
(0.0369087 3.57967e-09 2.07732e-15)
(0.0369086 3.24608e-09 1.69934e-15)
(0.0369086 2.88592e-09 1.6486e-15)
(0.0369086 2.51332e-09 1.66376e-15)
(0.0369086 2.09083e-09 1.47564e-15)
(0.0369085 1.65348e-09 1.63058e-15)
(0.0369085 1.14676e-09 1.53598e-15)
(0.0369085 7.80859e-10 1.60329e-15)
(0.0369085 5.84054e-10 1.61131e-15)
(0.0369085 4.79803e-10 1.47608e-15)
(0.0369085 4.95304e-10 1.67578e-15)
(0.0369085 4.13733e-10 1.39071e-15)
(0.0369085 2.63593e-10 1.52786e-15)
(0.0369085 5.22938e-11 1.54631e-15)
(0.0369085 -2.25583e-10 1.13248e-15)
(0.0369085 -5.60032e-10 1.47803e-15)
(0.0369085 -9.58287e-10 1.27434e-15)
(0.0369085 -1.381e-09 1.36895e-15)
(0.0369085 -1.83683e-09 1.47101e-15)
(0.0369085 -2.20607e-09 1.21525e-15)
(0.0369085 -2.4722e-09 1.54214e-15)
(0.0369086 -2.53443e-09 1.38685e-15)
(0.0369086 -2.00415e-09 1.40449e-15)
(0.0369086 -1.60118e-09 1.44862e-15)
(0.0369086 -1.06929e-10 1.31583e-15)
(0.0369086 1.91327e-09 1.4647e-15)
(0.0369086 2.35845e-09 1.42542e-15)
(0.0369086 1.94345e-09 1.47713e-15)
(0.0369086 9.73787e-10 1.43552e-15)
(0.0369086 -2.55265e-10 1.37037e-15)
(0.0369086 -1.49303e-09 1.45717e-15)
(0.0369086 -2.59813e-09 1.41254e-15)
(0.0369087 -3.51382e-09 1.53739e-15)
(0.0369087 -4.11922e-09 1.51965e-15)
(0.0369087 -4.47413e-09 1.27908e-15)
(0.0369088 -4.42696e-09 1.46647e-15)
(0.0369088 -3.61725e-09 1.46007e-15)
(0.0369088 -4.20981e-09 1.58707e-15)
(0.0369088 2.76827e-10 1.56754e-15)
(0.0369088 -6.13344e-09 1.49915e-15)
(0.0449889 -2.23327e-08 1.9415e-15)
(0.044989 -1.38448e-08 1.66253e-15)
(0.0449891 -5.72739e-09 1.78681e-15)
(0.0449891 3.66866e-09 1.6239e-15)
(0.044989 1.30049e-08 1.50299e-15)
(0.0449889 2.01577e-08 1.38759e-15)
(0.0449887 2.48274e-08 1.44189e-15)
(0.0449886 2.71772e-08 1.54951e-15)
(0.0449884 2.76653e-08 1.6229e-15)
(0.0449882 2.68026e-08 1.60158e-15)
(0.0449881 2.5048e-08 1.71725e-15)
(0.0449879 2.276e-08 1.25744e-15)
(0.0449878 2.0175e-08 1.33931e-15)
(0.0449877 1.74297e-08 1.0828e-15)
(0.0449876 1.46064e-08 1.03771e-15)
(0.0449875 1.17729e-08 1.41227e-15)
(0.0449874 8.99494e-09 1.11668e-15)
(0.0449874 6.3299e-09 1.16307e-15)
(0.0449873 3.81668e-09 8.458e-16)
(0.0449873 1.47416e-09 8.12156e-16)
(0.0449873 -6.90804e-10 1.10254e-15)
(0.0449873 -2.67175e-09 1.09584e-15)
(0.0449874 -4.46176e-09 1.16145e-15)
(0.0449874 -6.05912e-09 9.88214e-16)
(0.0449874 -7.46844e-09 8.63911e-16)
(0.0449875 -8.70126e-09 1.11726e-15)
(0.0449876 -9.77562e-09 1.03959e-15)
(0.0449876 -1.07128e-08 1.01065e-15)
(0.0449877 -1.15342e-08 8.69267e-16)
(0.0449878 -1.22584e-08 7.98526e-16)
(0.0449878 -1.28984e-08 1.09918e-15)
(0.0449879 -1.34624e-08 9.137e-16)
(0.044988 -1.39544e-08 9.01877e-16)
(0.0449881 -1.43772e-08 7.68756e-16)
(0.0449882 -1.47299e-08 6.87887e-16)
(0.0449883 -1.50148e-08 9.43066e-16)
(0.0449884 -1.52185e-08 7.39929e-16)
(0.0449885 -1.53425e-08 7.57533e-16)
(0.0449886 -1.53294e-08 7.07818e-16)
(0.0449887 -1.51878e-08 7.01177e-16)
(0.0449888 -1.4761e-08 7.60845e-16)
(0.0449888 -1.40384e-08 9.56874e-16)
(0.0449889 -1.28925e-08 1.11619e-15)
(0.044989 -1.0812e-08 1.28599e-15)
(0.0449891 -8.86904e-09 1.24272e-15)
(0.0449891 -5.16579e-09 1.23156e-15)
(0.0449892 -1.33766e-09 1.52081e-15)
(0.0449892 3.52986e-10 1.45988e-15)
(0.0449892 7.425e-10 1.39617e-15)
(0.0449892 -1.42172e-10 1.44517e-15)
(0.0449892 -9.00226e-10 1.40348e-15)
(0.0449892 -1.77801e-09 1.62001e-15)
(0.0449892 -2.64535e-09 1.62792e-15)
(0.0449893 -3.3792e-09 1.91802e-15)
(0.0449893 -3.90329e-09 1.88635e-15)
(0.0449893 -4.14004e-09 1.68078e-15)
(0.0449893 -4.04134e-09 1.99059e-15)
(0.0449893 -3.59044e-09 1.87202e-15)
(0.0449894 -2.8078e-09 2.26065e-15)
(0.0449894 -1.75017e-09 2.00678e-15)
(0.0449894 -5.01458e-10 1.77204e-15)
(0.0449894 8.41107e-10 1.93353e-15)
(0.0449893 2.18462e-09 1.99115e-15)
(0.0449893 3.45322e-09 2.11634e-15)
(0.0449893 4.59349e-09 2.15039e-15)
(0.0449893 5.57476e-09 1.9428e-15)
(0.0449892 6.38481e-09 2.04921e-15)
(0.0449892 7.02408e-09 2.06339e-15)
(0.0449891 7.50049e-09 2.19907e-15)
(0.0449891 7.82576e-09 2.27677e-15)
(0.044989 8.01375e-09 2.02827e-15)
(0.044989 8.07984e-09 2.16335e-15)
(0.0449889 8.04019e-09 2.16688e-15)
(0.0449889 7.9113e-09 2.41776e-15)
(0.0449888 7.70852e-09 2.35323e-15)
(0.0449888 7.44499e-09 2.15396e-15)
(0.0449887 7.13063e-09 2.24987e-15)
(0.0449887 6.77228e-09 2.22835e-15)
(0.0449886 6.37431e-09 2.53653e-15)
(0.0449886 5.94066e-09 2.26957e-15)
(0.0449886 5.47309e-09 2.88123e-15)
(0.0449885 4.97852e-09 1.98689e-15)
(0.0449885 4.44811e-09 2.00134e-15)
(0.0449885 3.89954e-09 2.27739e-15)
(0.0449884 3.28535e-09 1.80204e-15)
(0.0449884 2.64749e-09 2.37517e-15)
(0.0449884 1.91895e-09 1.89164e-15)
(0.0449884 1.3734e-09 1.9492e-15)
(0.0449884 1.05867e-09 2.20148e-15)
(0.0449884 8.83799e-10 1.67586e-15)
(0.0449884 8.76344e-10 2.29684e-15)
(0.0449883 7.51602e-10 1.91485e-15)
(0.0449883 5.30797e-10 1.8797e-15)
(0.0449883 2.15824e-10 2.13683e-15)
(0.0449883 -2.02676e-10 1.61582e-15)
(0.0449883 -7.14814e-10 2.12911e-15)
(0.0449883 -1.32889e-09 1.67352e-15)
(0.0449883 -1.99238e-09 1.72901e-15)
(0.0449884 -2.70929e-09 2.06348e-15)
(0.0449884 -3.31695e-09 1.68053e-15)
(0.0449884 -3.78307e-09 2.4632e-15)
(0.0449884 -3.95555e-09 1.61854e-15)
(0.0449885 -3.33166e-09 1.78706e-15)
(0.0449885 -2.80172e-09 2.0212e-15)
(0.0449885 -8.00278e-10 1.6637e-15)
(0.0449885 1.9582e-09 2.08086e-15)
(0.0449885 2.72915e-09 1.61639e-15)
(0.0449885 2.2945e-09 1.81516e-15)
(0.0449885 1.04264e-09 1.97915e-15)
(0.0449885 -6.07697e-10 1.69373e-15)
(0.0449885 -2.30843e-09 2.0343e-15)
(0.0449885 -3.84817e-09 2.04229e-15)
(0.0449886 -5.13634e-09 1.98675e-15)
(0.0449886 -6.00131e-09 2.10345e-15)
(0.0449886 -6.51844e-09 1.77177e-15)
(0.0449887 -6.45862e-09 2.04882e-15)
(0.0449887 -5.41244e-09 2.09448e-15)
(0.0449887 -6.08174e-09 2.05076e-15)
(0.0449888 1.37653e-10 2.17344e-15)
(0.0449888 -9.58852e-09 1.83713e-15)
(0.0524745 -3.10259e-08 2.35526e-15)
(0.0524746 -1.91937e-08 2.17619e-15)
(0.0524747 -6.48347e-09 2.14662e-15)
(0.0524746 6.93485e-09 2.06059e-15)
(0.0524745 1.92846e-08 1.9595e-15)
(0.0524744 2.85369e-08 1.85475e-15)
(0.0524742 3.44783e-08 1.85367e-15)
(0.0524741 3.73951e-08 1.91618e-15)
(0.0524739 3.78899e-08 1.96296e-15)
(0.0524737 3.66215e-08 1.96544e-15)
(0.0524735 3.41829e-08 2.07869e-15)
(0.0524734 3.10387e-08 1.56763e-15)
(0.0524733 2.74975e-08 1.63258e-15)
(0.0524731 2.3741e-08 1.32997e-15)
(0.052473 1.98811e-08 1.33893e-15)
(0.0524729 1.60103e-08 1.78629e-15)
(0.0524729 1.22174e-08 1.34619e-15)
(0.0524728 8.57882e-09 1.42723e-15)
(0.0524728 5.14605e-09 1.07401e-15)
(0.0524728 1.94439e-09 1.11865e-15)
(0.0524728 -1.01615e-09 1.19853e-15)
(0.0524728 -3.72673e-09 1.39455e-15)
(0.0524728 -6.17848e-09 1.46725e-15)
(0.0524729 -8.36858e-09 1.14936e-15)
(0.0524729 -1.03028e-08 1.29085e-15)
(0.052473 -1.19967e-08 1.32429e-15)
(0.052473 -1.34744e-08 9.59391e-16)
(0.0524731 -1.47646e-08 1.19706e-15)
(0.0524732 -1.5896e-08 9.91986e-16)
(0.0524732 -1.68934e-08 1.16967e-15)
(0.0524733 -1.77745e-08 1.27279e-15)
(0.0524734 -1.85504e-08 8.94278e-16)
(0.0524735 -1.92267e-08 1.06726e-15)
(0.0524736 -1.98074e-08 6.25449e-16)
(0.0524737 -2.02923e-08 1.10271e-15)
(0.0524738 -2.06846e-08 1.10383e-15)
(0.0524739 -2.09689e-08 8.55787e-16)
(0.052474 -2.11462e-08 9.29148e-16)
(0.0524741 -2.11463e-08 6.52617e-16)
(0.0524742 -2.09755e-08 1.02079e-15)
(0.0524743 -2.04395e-08 1.05695e-15)
(0.0524744 -1.95179e-08 1.36301e-15)
(0.0524745 -1.80381e-08 1.40608e-15)
(0.0524746 -1.53804e-08 1.4967e-15)
(0.0524747 -1.28069e-08 1.4979e-15)
(0.0524747 -8.0289e-09 1.46895e-15)
(0.0524748 -3.01218e-09 1.79666e-15)
(0.0524748 -5.60491e-10 1.76094e-15)
(0.0524748 1.94286e-10 1.76297e-15)
(0.0524748 -7.24051e-10 1.71994e-15)
(0.0524748 -1.59163e-09 1.65422e-15)
(0.0524749 -2.6489e-09 2.06055e-15)
(0.0524749 -3.70609e-09 1.91539e-15)
(0.0524749 -4.60096e-09 2.23211e-15)
(0.0524749 -5.21927e-09 2.22594e-15)
(0.0524749 -5.45461e-09 1.87398e-15)
(0.052475 -5.24189e-09 2.29436e-15)
(0.052475 -4.56112e-09 2.1988e-15)
(0.052475 -3.44345e-09 2.44589e-15)
(0.052475 -1.9678e-09 2.38869e-15)
(0.052475 -2.48188e-10 2.00919e-15)
(0.052475 1.58524e-09 2.40362e-15)
(0.052475 3.4087e-09 2.35577e-15)
(0.0524749 5.12207e-09 2.61189e-15)
(0.0524749 6.65591e-09 2.57579e-15)
(0.0524749 7.97105e-09 2.19174e-15)
(0.0524748 9.0529e-09 2.54373e-15)
(0.0524748 9.90325e-09 2.43553e-15)
(0.0524747 1.05336e-08 2.71828e-15)
(0.0524747 1.09603e-08 2.6731e-15)
(0.0524746 1.12023e-08 2.28625e-15)
(0.0524746 1.12803e-08 2.6681e-15)
(0.0524745 1.12163e-08 2.54321e-15)
(0.0524744 1.10323e-08 2.79543e-15)
(0.0524744 1.07491e-08 2.77957e-15)
(0.0524743 1.03841e-08 2.40715e-15)
(0.0524743 9.95078e-09 2.74378e-15)
(0.0524742 9.45828e-09 2.63059e-15)
(0.0524742 8.91265e-09 2.93094e-15)
(0.0524741 8.31925e-09 2.73535e-15)
(0.0524741 7.68107e-09 3.04438e-15)
(0.0524741 7.00696e-09 2.62576e-15)
(0.052474 6.28742e-09 2.46346e-15)
(0.052474 5.54343e-09 2.82958e-15)