/*--------------------------------*- C++ -*----------------------------------*\
  =========                 |
  \\      /  F ield         | OpenFOAM: The Open Source CFD Toolbox
   \\    /   O peration     | Website:  https://openfoam.org
    \\  /    A nd           | Version:  7
     \\/     M anipulation  |
\*---------------------------------------------------------------------------*/
FoamFile
{
    version     2.0;
    format      ascii;
    class       volVectorField;
    location    "17500";
    object      U;
}
// * * * * * * * * * * * * * * * * * * * * * * * * * * * * * * * * * * * * * //

dimensions      [0 1 -1 0 0 0 0];

internalField   nonuniform List<vector> 
3974
(
(0.123235 2.24695e-08 2.29312e-14)
(0.123235 2.60897e-08 2.29622e-14)
(0.123236 2.76849e-08 2.28511e-14)
(0.123236 2.85877e-08 2.29525e-14)
(0.123236 2.9143e-08 2.28662e-14)
(0.123236 2.96253e-08 2.29372e-14)
(0.123236 3.0223e-08 2.29024e-14)
(0.123236 3.10149e-08 2.28079e-14)
(0.123236 3.2006e-08 2.29185e-14)
(0.123236 3.32013e-08 2.28291e-14)
(0.123236 3.46313e-08 2.28953e-14)
(0.123236 3.62976e-08 2.28657e-14)
(0.123236 3.81103e-08 2.28256e-14)
(0.123236 3.9929e-08 2.28732e-14)
(0.123236 4.16538e-08 2.28356e-14)
(0.123236 4.32137e-08 2.28332e-14)
(0.123236 4.45505e-08 2.28208e-14)
(0.123236 4.56434e-08 2.27787e-14)
(0.123236 4.64704e-08 2.2815e-14)
(0.123236 4.70128e-08 2.27252e-14)
(0.123236 4.73136e-08 2.27992e-14)
(0.123236 4.74118e-08 2.27656e-14)
(0.123236 4.72898e-08 2.26769e-14)
(0.123236 4.6941e-08 2.27781e-14)
(0.123236 4.63956e-08 2.27182e-14)
(0.123236 4.57119e-08 2.27431e-14)
(0.123236 4.49509e-08 2.27266e-14)
(0.123236 4.40946e-08 2.26425e-14)
(0.123236 4.30816e-08 2.27477e-14)
(0.123236 4.19326e-08 2.26758e-14)
(0.123236 4.07014e-08 2.27298e-14)
(0.123236 3.94032e-08 2.27927e-14)
(0.123236 3.80313e-08 2.26818e-14)
(0.123236 3.66346e-08 2.27512e-14)
(0.123236 3.51227e-08 2.27911e-14)
(0.123236 3.35266e-08 2.27184e-14)
(0.123236 3.15387e-08 2.27822e-14)
(0.123236 2.97361e-08 2.26789e-14)
(0.124328 -2.70292e-09 2.3418e-14)
(0.124328 8.80469e-09 2.33482e-14)
(0.124329 1.5254e-08 2.33568e-14)
(0.124329 1.8989e-08 2.33835e-14)
(0.124329 2.15605e-08 2.32988e-14)
(0.124329 2.31031e-08 2.33589e-14)
(0.124329 2.40498e-08 2.32995e-14)
(0.124329 2.48077e-08 2.33284e-14)
(0.124329 2.5628e-08 2.33325e-14)
(0.124329 2.66156e-08 2.3262e-14)
(0.124329 2.77802e-08 2.33085e-14)
(0.124329 2.91288e-08 2.32465e-14)
(0.124329 3.06959e-08 2.32839e-14)
(0.124329 3.2482e-08 2.3299e-14)
(0.124329 3.44008e-08 2.32279e-14)
(0.124329 3.63267e-08 2.32619e-14)
(0.124329 3.81688e-08 2.32082e-14)
(0.124329 3.9854e-08 2.32379e-14)
(0.124329 4.13205e-08 2.32474e-14)
(0.124329 4.2544e-08 2.3177e-14)
(0.124329 4.35054e-08 2.31973e-14)
(0.124329 4.41914e-08 2.31389e-14)
(0.124329 4.46408e-08 2.31834e-14)
(0.124329 4.48899e-08 2.31886e-14)
(0.124329 4.49245e-08 2.31192e-14)
(0.124329 4.47362e-08 2.31507e-14)
(0.124329 4.43515e-08 2.30775e-14)
(0.124329 4.38292e-08 2.31356e-14)
(0.124329 4.32315e-08 2.31508e-14)
(0.124329 4.25428e-08 2.30737e-14)
(0.124329 4.17005e-08 2.31226e-14)
(0.12433 4.07171e-08 2.30851e-14)
(0.12433 3.96431e-08 2.31167e-14)
(0.12433 3.84966e-08 2.31748e-14)
(0.12433 3.72722e-08 2.31235e-14)
(0.12433 3.60315e-08 2.31388e-14)
(0.12433 3.46535e-08 2.31695e-14)
(0.12433 3.33214e-08 2.31386e-14)
(0.12433 3.1178e-08 2.31673e-14)
(0.12433 3.15712e-08 2.3112e-14)
(0.12433 3.1435e-08 2.31302e-14)
(0.124329 2.67721e-08 2.31565e-14)
(0.125389 -4.7791e-08 2.38523e-14)
(0.125389 -2.2382e-08 2.37573e-14)
(0.125389 -4.80265e-09 2.38048e-14)
(0.125389 4.13417e-09 2.38342e-14)
(0.125389 8.49948e-09 2.37846e-14)
(0.125389 1.25519e-08 2.38035e-14)
(0.125389 1.54728e-08 2.37129e-14)
(0.125389 1.73055e-08 2.37698e-14)
(0.125389 1.85071e-08 2.36892e-14)
(0.125389 1.94845e-08 2.37313e-14)
(0.125389 2.05036e-08 2.37548e-14)
(0.125389 2.16824e-08 2.36556e-14)
(0.125389 2.30296e-08 2.37049e-14)
(0.125389 2.45493e-08 2.36205e-14)
(0.125389 2.62747e-08 2.36825e-14)
(0.125389 2.82025e-08 2.37191e-14)
(0.125389 3.02484e-08 2.36331e-14)
(0.12539 3.23021e-08 2.36586e-14)
(0.12539 3.42817e-08 2.35864e-14)
(0.12539 3.6113e-08 2.36398e-14)
(0.12539 3.77323e-08 2.36627e-14)
(0.12539 3.91111e-08 2.35584e-14)
(0.12539 4.02299e-08 2.35863e-14)
(0.12539 4.10821e-08 2.35182e-14)
(0.12539 4.17039e-08 2.35774e-14)
(0.12539 4.21269e-08 2.3605e-14)
(0.12539 4.23393e-08 2.35053e-14)
(0.12539 4.23324e-08 2.35347e-14)
(0.12539 4.21301e-08 2.34628e-14)
(0.12539 4.17898e-08 2.35327e-14)
(0.12539 4.13717e-08 2.35628e-14)
(0.12539 4.0864e-08 2.34661e-14)
(0.12539 4.02077e-08 2.35079e-14)
(0.12539 3.9409e-08 2.34641e-14)
(0.12539 3.85131e-08 2.35119e-14)
(0.12539 3.75381e-08 2.3565e-14)
(0.12539 3.64758e-08 2.35431e-14)
(0.12539 3.53989e-08 2.35283e-14)
(0.12539 3.41692e-08 2.35452e-14)
(0.12539 3.30657e-08 2.35382e-14)
(0.12539 3.0982e-08 2.3553e-14)
(0.12539 3.21839e-08 2.35258e-14)
(0.12539 3.39288e-08 2.35223e-14)
(0.12539 3.28161e-08 2.35371e-14)
(0.12539 2.91344e-08 2.35223e-14)
(0.12539 2.10205e-08 2.3533e-14)
(0.12539 1.25365e-08 2.35121e-14)
(0.12539 4.65674e-09 2.35249e-14)
(0.12539 -2.79977e-09 2.35507e-14)
(0.12539 -1.00975e-08 2.35352e-14)
(0.125389 -1.7302e-08 2.35457e-14)
(0.125389 -2.44257e-08 2.35235e-14)
(0.125389 -3.11676e-08 2.35314e-14)
(0.125389 -3.75777e-08 2.35535e-14)
(0.125389 -4.22755e-08 2.35413e-14)
(0.125389 -4.63818e-08 2.35612e-14)
(0.125389 -4.45219e-08 2.3546e-14)
(0.125389 -4.19864e-08 2.35634e-14)
(0.125389 -2.39706e-08 2.3591e-14)
(0.126418 -4.46181e-08 2.42552e-14)
(0.126418 -2.10238e-08 2.41373e-14)
(0.126418 -6.20278e-09 2.42039e-14)
(0.126418 2.17194e-09 2.42188e-14)
(0.126418 5.28104e-09 2.42026e-14)
(0.126418 8.01759e-09 2.42211e-14)
(0.126418 1.02782e-08 2.41067e-14)
(0.126418 1.18943e-08 2.41839e-14)
(0.126418 1.30697e-08 2.40763e-14)
(0.126419 1.40991e-08 2.41502e-14)
(0.126419 1.52109e-08 2.41692e-14)
(0.126419 1.65127e-08 2.40024e-14)
(0.126419 1.80021e-08 2.41067e-14)
(0.126419 1.96702e-08 2.40002e-14)
(0.126419 2.15425e-08 2.40934e-14)
(0.126419 2.36097e-08 2.41279e-14)
(0.126419 2.57869e-08 2.40108e-14)
(0.126419 2.79744e-08 2.40602e-14)
(0.126419 3.00986e-08 2.39651e-14)
(0.126419 3.20852e-08 2.40496e-14)
(0.126419 3.38698e-08 2.40685e-14)
(0.126419 3.54196e-08 2.39349e-14)
(0.126419 3.67132e-08 2.3981e-14)
(0.126419 3.77478e-08 2.38921e-14)
(0.126419 3.85582e-08 2.3987e-14)
(0.126419 3.91722e-08 2.40131e-14)
(0.126419 3.958e-08 2.38387e-14)
(0.126419 3.97735e-08 2.39282e-14)
(0.126419 3.97725e-08 2.37963e-14)
(0.126419 3.96304e-08 2.39455e-14)
(0.126419 3.94056e-08 2.39679e-14)
(0.126419 3.90916e-08 2.38354e-14)
(0.126419 3.8635e-08 2.39054e-14)
(0.126419 3.80367e-08 2.38315e-14)
(0.126419 3.73362e-08 2.39223e-14)
(0.126419 3.65506e-08 2.39611e-14)
(0.126419 3.56664e-08 2.39484e-14)
(0.126419 3.47608e-08 2.39103e-14)
(0.126419 3.36955e-08 2.39157e-14)
(0.126419 3.27738e-08 2.39252e-14)
(0.126419 3.0996e-08 2.39349e-14)
(0.126419 3.13019e-08 2.39264e-14)
(0.126419 3.31564e-08 2.39128e-14)
(0.126419 3.51423e-08 2.39158e-14)
(0.126419 3.49917e-08 2.39127e-14)
(0.126419 2.89459e-08 2.39181e-14)
(0.126419 2.07476e-08 2.39161e-14)
(0.126419 1.24723e-08 2.39192e-14)
(0.126419 4.52448e-09 2.39285e-14)
(0.126419 -3.22172e-09 2.39269e-14)
(0.126419 -1.08282e-08 2.39327e-14)
(0.126419 -1.83106e-08 2.39265e-14)
(0.126419 -2.5381e-08 2.39195e-14)
(0.126419 -3.20985e-08 2.39297e-14)
(0.126419 -3.70882e-08 2.39334e-14)
(0.126419 -4.15091e-08 2.39481e-14)
(0.126419 -3.97258e-08 2.39477e-14)
(0.126419 -3.7735e-08 2.3954e-14)
(0.126419 -1.81248e-08 2.39697e-14)
(0.127418 -4.24734e-08 2.46509e-14)
(0.127418 -1.8263e-08 2.45693e-14)
(0.127418 -4.80884e-09 2.46335e-14)
(0.127418 2.18991e-09 2.46214e-14)
(0.127418 4.07843e-09 2.4618e-14)
(0.127418 5.33162e-09 2.4643e-14)
(0.127418 6.45618e-09 2.45604e-14)
(0.127418 7.38774e-09 2.46078e-14)
(0.127418 8.19548e-09 2.45296e-14)
(0.127418 9.04425e-09 2.4601e-14)
(0.127419 1.0086e-08 2.45688e-14)
(0.127419 1.13942e-08 2.44817e-14)
(0.127419 1.29439e-08 2.45235e-14)
(0.127419 1.47033e-08 2.44437e-14)
(0.127419 1.66827e-08 2.45308e-14)
(0.127419 1.88639e-08 2.45203e-14)
(0.127419 2.11584e-08 2.44488e-14)
(0.127419 2.34712e-08 2.44706e-14)
(0.127419 2.57344e-08 2.44025e-14)
(0.127419 2.78746e-08 2.44913e-14)
(0.127419 2.98262e-08 2.44584e-14)
(0.127419 3.15531e-08 2.43652e-14)
(0.127419 3.30312e-08 2.43921e-14)
(0.127419 3.42581e-08 2.43337e-14)
(0.127419 3.52666e-08 2.44229e-14)
(0.127419 3.60822e-08 2.44062e-14)
(0.127419 3.66989e-08 2.43153e-14)
(0.127419 3.71081e-08 2.4337e-14)
(0.127419 3.73233e-08 2.42764e-14)
(0.127419 3.73924e-08 2.4392e-14)
(0.127419 3.73723e-08 2.43605e-14)
(0.127419 3.72628e-08 2.42685e-14)
(0.127419 3.70173e-08 2.43257e-14)
(0.127419 3.6632e-08 2.42714e-14)
(0.127419 3.61409e-08 2.43632e-14)
(0.127419 3.55602e-08 2.43579e-14)
(0.127419 3.48693e-08 2.43417e-14)
(0.127419 3.41431e-08 2.42831e-14)
(0.127419 3.32569e-08 2.42805e-14)
(0.127419 3.24857e-08 2.43048e-14)
(0.127419 3.1104e-08 2.4312e-14)
(0.127419 3.05663e-08 2.4318e-14)
(0.127419 3.17541e-08 2.42952e-14)
(0.127419 3.42449e-08 2.42915e-14)
(0.127419 3.60693e-08 2.4298e-14)
(0.127419 3.34178e-08 2.43005e-14)
(0.127419 2.71532e-08 2.43115e-14)
(0.127419 1.94904e-08 2.43115e-14)
(0.127419 1.15713e-08 2.43054e-14)
(0.127419 3.65861e-09 2.43128e-14)
(0.127419 -4.17784e-09 2.43158e-14)
(0.127419 -1.19056e-08 2.43214e-14)
(0.127419 -1.92313e-08 2.42987e-14)
(0.127419 -2.62078e-08 2.43043e-14)
(0.127419 -3.14667e-08 2.43193e-14)
(0.127419 -3.61798e-08 2.43309e-14)
(0.127419 -3.45285e-08 2.43419e-14)
(0.127419 -3.30496e-08 2.43431e-14)
(0.127419 -1.25232e-08 2.43463e-14)
(0.12839 -4.13058e-08 2.50322e-14)
(0.12839 -1.57453e-08 2.50037e-14)
(0.12839 -2.57505e-09 2.50776e-14)
(0.12839 3.36688e-09 2.50115e-14)
(0.12839 4.23362e-09 2.50326e-14)
(0.12839 4.19577e-09 2.50696e-14)
(0.12839 4.0665e-09 2.50011e-14)
(0.12839 4.03039e-09 2.50233e-14)
(0.12839 4.1837e-09 2.49752e-14)
(0.12839 4.61693e-09 2.50513e-14)
(0.12839 5.40549e-09 2.49458e-14)
(0.12839 6.57779e-09 2.49143e-14)
(0.12839 8.07921e-09 2.50128e-14)
(0.128391 9.84832e-09 2.48887e-14)
(0.128391 1.18736e-08 2.49796e-14)
(0.128391 1.41244e-08 2.48876e-14)
(0.128391 1.65053e-08 2.48671e-14)
(0.128391 1.89211e-08 2.4918e-14)
(0.128391 2.13071e-08 2.48413e-14)
(0.128391 2.35891e-08 2.49304e-14)
(0.128391 2.56993e-08 2.48269e-14)
(0.128391 2.76e-08 2.47917e-14)
(0.128391 2.92642e-08 2.48415e-14)
(0.128391 3.06869e-08 2.47707e-14)
(0.128391 3.18967e-08 2.48682e-14)
(0.128391 3.29191e-08 2.47745e-14)
(0.128391 3.37527e-08 2.474e-14)
(0.128391 3.4388e-08 2.47466e-14)
(0.128391 3.483e-08 2.47099e-14)
(0.128391 3.51201e-08 2.48275e-14)
(0.128391 3.53141e-08 2.47297e-14)
(0.128391 3.54182e-08 2.46864e-14)
(0.128391 3.53922e-08 2.47249e-14)
(0.128391 3.52292e-08 2.46995e-14)
(0.128391 3.49587e-08 2.47943e-14)
(0.128391 3.45951e-08 2.47451e-14)
(0.128391 3.41107e-08 2.47233e-14)
(0.128391 3.35725e-08 2.45874e-14)
(0.128391 3.28777e-08 2.46435e-14)
(0.128391 3.22453e-08 2.46811e-14)
(0.128391 3.12515e-08 2.46837e-14)
(0.128391 3.02418e-08 2.47043e-14)
(0.128391 3.06074e-08 2.46895e-14)
(0.128391 3.26041e-08 2.4664e-14)
(0.128391 3.50427e-08 2.46827e-14)
(0.128391 3.49931e-08 2.46795e-14)
(0.128391 3.12045e-08 2.47017e-14)
(0.128391 2.5e-08 2.47019e-14)
(0.128391 1.77429e-08 2.46801e-14)
(0.128391 1.00698e-08 2.46966e-14)
(0.128391 2.2675e-09 2.46943e-14)
(0.128391 -5.52601e-09 2.47116e-14)
(0.128391 -1.29829e-08 2.46562e-14)
(0.128391 -2.01298e-08 2.46754e-14)
(0.128391 -2.56052e-08 2.47034e-14)
(0.128391 -3.05631e-08 2.47093e-14)
(0.128391 -2.90869e-08 2.47316e-14)
(0.128391 -2.80753e-08 2.46947e-14)
(0.128391 -7.12856e-09 2.472e-14)
(0.129335 -4.08762e-08 2.54084e-14)
(0.129335 -1.39622e-08 2.54166e-14)
(0.129335 -4.19725e-10 2.54472e-14)
(0.129335 5.05438e-09 2.53783e-14)
(0.129335 5.23446e-09 2.53818e-14)
(0.129335 4.18635e-09 2.54272e-14)
(0.129335 2.90588e-09 2.54187e-14)
(0.129335 1.82379e-09 2.54306e-14)
(0.129335 1.15573e-09 2.54039e-14)
(0.129335 9.91816e-10 2.54305e-14)
(0.129335 1.36179e-09 2.53641e-14)
(0.129336 2.25617e-09 2.53373e-14)
(0.129336 3.59223e-09 2.53383e-14)
(0.129336 5.27782e-09 2.53163e-14)
(0.129336 7.27554e-09 2.53457e-14)
(0.129336 9.5386e-09 2.53e-14)
(0.129336 1.19621e-08 2.52824e-14)
(0.129336 1.44482e-08 2.52801e-14)
(0.129336 1.69317e-08 2.52629e-14)
(0.129336 1.93352e-08 2.52993e-14)
(0.129336 2.15875e-08 2.5238e-14)
(0.129336 2.36502e-08 2.52116e-14)
(0.129336 2.54944e-08 2.52072e-14)
(0.129336 2.71096e-08 2.51957e-14)
(0.129336 2.85186e-08 2.52331e-14)
(0.129336 2.97476e-08 2.51874e-14)
(0.129336 3.0801e-08 2.51602e-14)
(0.129336 3.16672e-08 2.51497e-14)
(0.129336 3.23422e-08 2.51325e-14)
(0.129336 3.286e-08 2.51972e-14)
(0.129336 3.32754e-08 2.51371e-14)
(0.129336 3.35997e-08 2.51047e-14)
(0.129336 3.37987e-08 2.51306e-14)
(0.129336 3.38648e-08 2.51098e-14)
(0.129336 3.38233e-08 2.51619e-14)
(0.129336 3.36855e-08 2.50986e-14)
(0.129336 3.3418e-08 2.50966e-14)
(0.129336 3.30767e-08 2.50397e-14)
(0.129336 3.25829e-08 2.50065e-14)
(0.129336 3.20917e-08 2.50593e-14)
(0.129336 3.14372e-08 2.50491e-14)
(0.129336 3.0262e-08 2.5088e-14)
(0.129336 2.99492e-08 2.50717e-14)
(0.129336 3.11664e-08 2.5037e-14)
(0.129336 3.33697e-08 2.50692e-14)
(0.129336 3.47612e-08 2.50538e-14)
(0.129336 3.31588e-08 2.50899e-14)
(0.129336 2.87722e-08 2.50894e-14)
(0.129336 2.26732e-08 2.50498e-14)
(0.129336 1.5652e-08 2.5082e-14)
(0.129336 8.18735e-09 2.50674e-14)
(0.129336 5.47186e-10 2.50999e-14)
(0.129336 -6.88237e-09 2.50764e-14)
(0.129336 -1.40808e-08 2.50478e-14)
(0.129336 -1.96949e-08 2.50887e-14)
(0.129336 -2.48298e-08 2.50827e-14)
(0.129336 -2.35549e-08 2.51208e-14)
(0.129336 -2.29846e-08 2.51214e-14)
(0.129336 -1.88703e-09 2.50887e-14)
(0.130255 -4.09179e-08 2.57793e-14)
(0.130255 -1.29195e-08 2.58216e-14)
(0.130255 1.25678e-09 2.58176e-14)
(0.130255 6.72855e-09 2.57192e-14)
(0.130255 6.58701e-09 2.57391e-14)
(0.130255 4.85001e-09 2.58016e-14)
(0.130255 2.64607e-09 2.5831e-14)
(0.130255 6.00731e-10 2.582e-14)
(0.130255 -9.23542e-10 2.58169e-14)
(0.130255 -1.7813e-09 2.57924e-14)
(0.130255 -1.94722e-09 2.57574e-14)
(0.130255 -1.44815e-09 2.57497e-14)
(0.130255 -3.84626e-10 2.57263e-14)
(0.130255 1.12619e-09 2.57296e-14)
(0.130255 3.02069e-09 2.57059e-14)
(0.130255 5.23318e-09 2.56864e-14)
(0.130255 7.64845e-09 2.56898e-14)
(0.130255 1.01651e-08 2.56702e-14)
(0.130255 1.27147e-08 2.56729e-14)
(0.130255 1.52131e-08 2.56513e-14)
(0.130255 1.75848e-08 2.56258e-14)
(0.130255 1.97914e-08 2.56237e-14)
(0.130255 2.18024e-08 2.56029e-14)
(0.130255 2.36007e-08 2.5611e-14)
(0.130255 2.5202e-08 2.55898e-14)
(0.130255 2.66334e-08 2.55738e-14)
(0.130255 2.79042e-08 2.55717e-14)
(0.130255 2.90006e-08 2.55421e-14)
(0.130255 2.99102e-08 2.55461e-14)
(0.130255 3.06597e-08 2.5542e-14)
(0.130255 3.13016e-08 2.55205e-14)
(0.130255 3.18502e-08 2.55153e-14)
(0.130255 3.22771e-08 2.55005e-14)
(0.130255 3.25766e-08 2.55118e-14)
(0.130255 3.27695e-08 2.5505e-14)
(0.130255 3.2863e-08 2.54305e-14)
(0.130255 3.28196e-08 2.54669e-14)
(0.130255 3.26837e-08 2.54205e-14)
(0.130255 3.23984e-08 2.53604e-14)
(0.130255 3.20585e-08 2.54457e-14)
(0.130255 3.16881e-08 2.54062e-14)
(0.130255 3.05507e-08 2.54753e-14)
(0.130255 2.97991e-08 2.54625e-14)
(0.130255 3.0261e-08 2.53999e-14)
(0.130255 3.18261e-08 2.54628e-14)
(0.130255 3.37208e-08 2.54202e-14)
(0.130255 3.36515e-08 2.54812e-14)
(0.130255 3.09896e-08 2.54714e-14)
(0.130255 2.62774e-08 2.54093e-14)
(0.130255 2.02143e-08 2.54744e-14)
(0.130255 1.33634e-08 2.54322e-14)
(0.130255 6.09762e-09 2.54941e-14)
(0.130255 -1.13419e-09 2.54714e-14)
(0.130255 -8.25002e-09 2.54084e-14)
(0.130255 -1.39092e-08 2.54823e-14)
(0.130255 -1.91411e-08 2.54484e-14)
(0.130255 -1.8077e-08 2.5516e-14)
(0.130255 -1.79503e-08 2.55079e-14)
(0.130255 3.19244e-09 2.54473e-14)
(0.131149 -4.1204e-08 2.61611e-14)
(0.131149 -1.24763e-08 2.61426e-14)
(0.131149 2.3092e-09 2.61724e-14)
(0.131149 8.04194e-09 2.6015e-14)
(0.131149 7.88981e-09 2.61168e-14)
(0.131149 5.7793e-09 2.61987e-14)
(0.131149 2.92933e-09 2.61584e-14)
(0.131149 1.03787e-10 2.61915e-14)
(0.131149 -2.20125e-09 2.61375e-14)
(0.131149 -3.759e-09 2.61453e-14)
(0.131149 -4.51379e-09 2.61385e-14)
(0.131149 -4.48547e-09 2.60702e-14)
(0.131149 -3.77634e-09 2.60935e-14)
(0.131149 -2.51723e-09 2.60512e-14)
(0.13115 -7.94402e-10 2.60489e-14)
(0.13115 1.30714e-09 2.60616e-14)
(0.13115 3.66291e-09 2.60063e-14)
(0.13115 6.1683e-09 2.60506e-14)
(0.13115 8.74903e-09 2.5994e-14)
(0.13115 1.13122e-08 2.59904e-14)
(0.13115 1.37772e-08 2.60028e-14)
(0.13115 1.61053e-08 2.59464e-14)
(0.13115 1.82649e-08 2.59897e-14)
(0.13115 2.02315e-08 2.59375e-14)
(0.13115 2.20142e-08 2.59283e-14)
(0.13115 2.36401e-08 2.59489e-14)
(0.13115 2.51214e-08 2.58927e-14)
(0.13115 2.64426e-08 2.59209e-14)
(0.13115 2.75847e-08 2.58724e-14)
(0.13115 2.8567e-08 2.58814e-14)
(0.13115 2.94377e-08 2.58963e-14)
(0.13115 3.02121e-08 2.58354e-14)
(0.13115 3.08679e-08 2.58575e-14)
(0.13115 3.14025e-08 2.58273e-14)
(0.13115 3.18327e-08 2.58378e-14)
(0.13115 3.21595e-08 2.58259e-14)
(0.13115 3.23447e-08 2.58503e-14)
(0.13115 3.24217e-08 2.57835e-14)
(0.13115 3.23505e-08 2.57781e-14)
(0.13115 3.2175e-08 2.58555e-14)
(0.13115 3.20425e-08 2.58335e-14)
(0.13115 3.10605e-08 2.58726e-14)
(0.13115 3.00985e-08 2.58344e-14)
(0.13115 2.99696e-08 2.58299e-14)
(0.13115 3.08054e-08 2.58683e-14)
(0.13115 3.25994e-08 2.58547e-14)
(0.13115 3.33762e-08 2.58838e-14)
(0.13115 3.20711e-08 2.58409e-14)
(0.13115 2.87096e-08 2.58356e-14)
(0.13115 2.37458e-08 2.58848e-14)
(0.13115 1.77013e-08 2.58662e-14)
(0.13115 1.09941e-08 2.59063e-14)
(0.13115 4.11704e-09 2.5847e-14)
(0.13115 -2.7842e-09 2.58337e-14)
(0.13115 -8.39146e-09 2.5898e-14)
(0.13115 -1.3638e-08 2.5884e-14)
(0.13115 -1.27813e-08 2.59296e-14)
(0.13115 -1.3127e-08 2.58837e-14)
(0.13115 8.05612e-09 2.58737e-14)
(0.13202 -4.15678e-08 2.6547e-14)
(0.13202 -1.24529e-08 2.64483e-14)
(0.13202 2.75371e-09 2.65896e-14)
(0.13202 8.82743e-09 2.64258e-14)
(0.13202 8.87359e-09 2.65364e-14)
(0.13202 6.65358e-09 2.65898e-14)
(0.13202 3.42932e-09 2.64665e-14)
(0.13202 5.0675e-11 2.65418e-14)
(0.13202 -2.8862e-09 2.64361e-14)
(0.13202 -5.07322e-09 2.64644e-14)
(0.13202 -6.40431e-09 2.65109e-14)
(0.13202 -6.87213e-09 2.63704e-14)
(0.13202 -6.56386e-09 2.64477e-14)
(0.13202 -5.60992e-09 2.63531e-14)
(0.13202 -4.11209e-09 2.64066e-14)
(0.13202 -2.17226e-09 2.64309e-14)
(0.13202 7.86416e-11 2.63022e-14)
(0.13202 2.53355e-09 2.64292e-14)
(0.13202 5.11076e-09 2.62981e-14)
(0.13202 7.7078e-09 2.63165e-14)
(0.13202 1.02389e-08 2.63736e-14)
(0.13202 1.26645e-08 2.62492e-14)
(0.13202 1.4951e-08 2.64118e-14)
(0.13202 1.70678e-08 2.62466e-14)
(0.13202 1.90177e-08 2.62561e-14)
(0.13202 2.08272e-08 2.63196e-14)
(0.13202 2.2509e-08 2.61949e-14)
(0.132021 2.4046e-08 2.62721e-14)
(0.132021 2.54149e-08 2.61834e-14)
(0.132021 2.66279e-08 2.62081e-14)
(0.132021 2.77268e-08 2.62688e-14)
(0.132021 2.87267e-08 2.61362e-14)
(0.132021 2.96105e-08 2.62092e-14)
(0.132021 3.03801e-08 2.61258e-14)
(0.132021 3.10472e-08 2.6236e-14)
(0.132021 3.1607e-08 2.62117e-14)
(0.132021 3.20226e-08 2.62905e-14)
(0.132021 3.23183e-08 2.61242e-14)
(0.132021 3.24655e-08 2.62511e-14)
(0.132021 3.24669e-08 2.62313e-14)
(0.132021 3.25401e-08 2.62534e-14)
(0.132021 3.17703e-08 2.63322e-14)
(0.132021 3.0773e-08 2.61842e-14)
(0.132021 3.02574e-08 2.62405e-14)
(0.132021 3.04508e-08 2.62646e-14)
(0.132021 3.18383e-08 2.62778e-14)
(0.132021 3.29115e-08 2.63486e-14)
(0.132021 3.25039e-08 2.61929e-14)
(0.132021 3.0272e-08 2.62821e-14)
(0.132021 2.63839e-08 2.63465e-14)
(0.132021 2.12272e-08 2.62917e-14)
(0.132021 1.51975e-08 2.62955e-14)
(0.13202 8.79624e-09 2.62016e-14)
(0.13202 2.22206e-09 2.63181e-14)
(0.13202 -3.24602e-09 2.62857e-14)
(0.13202 -8.43227e-09 2.63122e-14)
(0.13202 -7.77438e-09 2.63555e-14)
(0.13202 -8.64255e-09 2.62429e-14)
(0.13202 1.26306e-08 2.62877e-14)
(0.132868 -4.18987e-08 2.68495e-14)
(0.132868 -1.26782e-08 2.67163e-14)
(0.132868 2.69532e-09 2.67922e-14)
(0.132868 9.0549e-09 2.67875e-14)
(0.132868 9.39553e-09 2.68331e-14)
(0.132868 7.25292e-09 2.68959e-14)
(0.132868 3.88488e-09 2.67303e-14)
(0.132868 1.80523e-10 2.68245e-14)
(0.132868 -3.20424e-09 2.66903e-14)
(0.132868 -5.89701e-09 2.6716e-14)
(0.132868 -7.73655e-09 2.67921e-14)
(0.132868 -8.6769e-09 2.66337e-14)
(0.132868 -8.77699e-09 2.67288e-14)
(0.132868 -8.15303e-09 2.66201e-14)
(0.132868 -6.913e-09 2.66223e-14)
(0.132868 -5.17027e-09 2.67168e-14)
(0.132868 -3.05832e-09 2.656e-14)
(0.132868 -6.8608e-10 2.66839e-14)
(0.132868 1.85659e-09 2.65578e-14)
(0.132868 4.45865e-09 2.65677e-14)
(0.132868 7.02985e-09 2.66627e-14)
(0.132868 9.52901e-09 2.65088e-14)
(0.132868 1.19203e-08 2.66364e-14)
(0.132868 1.41674e-08 2.65113e-14)
(0.132868 1.62681e-08 2.65106e-14)
(0.132868 1.82483e-08 2.66113e-14)
(0.132868 2.01188e-08 2.64636e-14)
(0.132868 2.18606e-08 2.65633e-14)
(0.132868 2.34476e-08 2.64561e-14)
(0.132868 2.48856e-08 2.64667e-14)
(0.132868 2.62095e-08 2.65598e-14)
(0.132868 2.74327e-08 2.63983e-14)
(0.132868 2.85428e-08 2.64911e-14)
(0.132868 2.95446e-08 2.63821e-14)
(0.132868 3.04458e-08 2.64163e-14)
(0.132868 3.12363e-08 2.65207e-14)
(0.132868 3.18822e-08 2.65042e-14)
(0.132868 3.23999e-08 2.64306e-14)
(0.132868 3.27683e-08 2.65124e-14)
(0.132868 3.29575e-08 2.65351e-14)
(0.132868 3.32167e-08 2.65785e-14)
(0.132868 3.2679e-08 2.65533e-14)
(0.132868 3.1763e-08 2.65049e-14)
(0.132868 3.10468e-08 2.65821e-14)
(0.132868 3.07611e-08 2.65648e-14)
(0.132868 3.16515e-08 2.66134e-14)
(0.132868 3.26603e-08 2.65761e-14)
(0.132868 3.27277e-08 2.65206e-14)
(0.132868 3.13189e-08 2.65903e-14)
(0.132868 2.83597e-08 2.65832e-14)
(0.132868 2.40644e-08 2.66279e-14)
(0.132868 1.87531e-08 2.66021e-14)
(0.132868 1.28976e-08 2.65214e-14)
(0.132868 6.72954e-09 2.65905e-14)
(0.132868 1.46659e-09 2.65999e-14)
(0.132868 -3.60125e-09 2.66482e-14)
(0.132868 -3.13591e-09 2.66279e-14)
(0.132868 -4.59348e-09 2.65714e-14)
(0.132868 1.68425e-08 2.66353e-14)
(0.133693 -4.21285e-08 2.71518e-14)
(0.133693 -1.30122e-08 2.70369e-14)
(0.133693 2.26975e-09 2.70827e-14)
(0.133693 8.77895e-09 2.71341e-14)
(0.133693 9.41381e-09 2.71526e-14)
(0.133693 7.45336e-09 2.71895e-14)
(0.133693 4.11287e-09 2.70468e-14)
(0.133693 2.81227e-10 2.71111e-14)
(0.133693 -3.36486e-09 2.69697e-14)
(0.133693 -6.41347e-09 2.70303e-14)
(0.133693 -8.65534e-09 2.7086e-14)
(0.133693 -1.00039e-08 2.69164e-14)
(0.133693 -1.04831e-08 2.70233e-14)
(0.133693 -1.01844e-08 2.68967e-14)
(0.133693 -9.21175e-09 2.69511e-14)
(0.133693 -7.68258e-09 2.70178e-14)
(0.133693 -5.72891e-09 2.68156e-14)
(0.133693 -3.46124e-09 2.69659e-14)
(0.133693 -9.77238e-10 2.68051e-14)
(0.133693 1.60579e-09 2.6903e-14)
(0.133693 4.19438e-09 2.69664e-14)
(0.133693 6.74554e-09 2.67714e-14)
(0.133693 9.22088e-09 2.69204e-14)
(0.133693 1.15786e-08 2.68285e-14)
(0.133693 1.38133e-08 2.6852e-14)
(0.133693 1.595e-08 2.69186e-14)
(0.133693 1.79969e-08 2.67869e-14)
(0.133693 1.99314e-08 2.68559e-14)
(0.133693 2.17255e-08 2.67401e-14)
(0.133693 2.33796e-08 2.6804e-14)
(0.133693 2.49225e-08 2.68661e-14)
(0.133693 2.63657e-08 2.66922e-14)
(0.133693 2.76989e-08 2.67939e-14)
(0.133693 2.89285e-08 2.66445e-14)
(0.133693 3.00589e-08 2.67536e-14)
(0.133693 3.10767e-08 2.6852e-14)
(0.133693 3.1951e-08 2.68386e-14)
(0.133693 3.26915e-08 2.6712e-14)
(0.133693 3.32817e-08 2.68545e-14)
(0.133693 3.36677e-08 2.6871e-14)
(0.133693 3.41024e-08 2.69168e-14)
(0.133693 3.37972e-08 2.68965e-14)
(0.133693 3.30316e-08 2.68193e-14)
(0.133693 3.22603e-08 2.69266e-14)
(0.133693 3.16704e-08 2.69198e-14)
(0.133693 3.21017e-08 2.69576e-14)
(0.133693 3.28575e-08 2.69248e-14)
(0.133693 3.30775e-08 2.68081e-14)
(0.133693 3.21829e-08 2.69433e-14)
(0.133693 2.99394e-08 2.69363e-14)
(0.133693 2.63959e-08 2.69759e-14)
(0.133693 2.17712e-08 2.6945e-14)
(0.133693 1.64754e-08 2.68447e-14)
(0.133693 1.07509e-08 2.69463e-14)
(0.133693 5.7295e-09 2.69511e-14)
(0.133693 8.14246e-10 2.69972e-14)
(0.133693 1.08349e-09 2.69723e-14)
(0.133693 -1.04411e-09 2.68932e-14)
(0.133693 2.06319e-08 2.6992e-14)
(0.134496 -4.22179e-08 2.74536e-14)
(0.134496 -1.33512e-08 2.73923e-14)
(0.134496 1.60887e-09 2.73943e-14)
(0.134496 8.09582e-09 2.74604e-14)
(0.134496 8.95619e-09 2.7477e-14)
(0.134496 7.21045e-09 2.74844e-14)
(0.134496 4.00608e-09 2.7399e-14)
(0.134496 2.00901e-10 2.74208e-14)
(0.134496 -3.5403e-09 2.73551e-14)
(0.134496 -6.79183e-09 2.73706e-14)
(0.134496 -9.31047e-09 2.73851e-14)
(0.134496 -1.09749e-08 2.73084e-14)
(0.134496 -1.17741e-08 2.73394e-14)
(0.134496 -1.17689e-08 2.72929e-14)
(0.134496 -1.10501e-08 2.7298e-14)
(0.134496 -9.73095e-09 2.7325e-14)
(0.134496 -7.93866e-09 2.7245e-14)
(0.134496 -5.78531e-09 2.72874e-14)
(0.134496 -3.37489e-09 2.72401e-14)
(0.134496 -8.2792e-10 2.72564e-14)
(0.134496 1.76049e-09 2.72755e-14)
(0.134496 4.34609e-09 2.71973e-14)
(0.134496 6.88804e-09 2.72433e-14)
(0.134496 9.33928e-09 2.71959e-14)
(0.134496 1.16918e-08 2.72101e-14)
(0.134496 1.39711e-08 2.72322e-14)
(0.134496 1.6182e-08 2.71543e-14)
(0.134496 1.82971e-08 2.71789e-14)
(0.134496 2.02856e-08 2.71449e-14)
(0.134496 2.21443e-08 2.71575e-14)
(0.134496 2.38983e-08 2.71787e-14)
(0.134496 2.5557e-08 2.70924e-14)
(0.134496 2.71091e-08 2.7124e-14)
(0.134496 2.85605e-08 2.70756e-14)
(0.134496 2.99142e-08 2.71162e-14)
(0.134496 3.11552e-08 2.71232e-14)
(0.134496 3.22542e-08 2.71601e-14)
(0.134496 3.32153e-08 2.71192e-14)
(0.134496 3.40264e-08 2.7156e-14)
(0.134496 3.46154e-08 2.72056e-14)
(0.134496 3.52208e-08 2.71866e-14)
(0.134496 3.51401e-08 2.72172e-14)
(0.134496 3.45609e-08 2.71931e-14)
(0.134496 3.38373e-08 2.72256e-14)
(0.134496 3.30964e-08 2.726e-14)
(0.134496 3.31667e-08 2.72303e-14)
(0.134496 3.36076e-08 2.72512e-14)
(0.134496 3.37724e-08 2.72306e-14)
(0.134496 3.31321e-08 2.72516e-14)
(0.134496 3.1377e-08 2.72823e-14)
(0.134496 2.84279e-08 2.72538e-14)
(0.134496 2.44015e-08 2.72722e-14)
(0.134496 1.9628e-08 2.72268e-14)
(0.134496 1.43417e-08 2.72583e-14)
(0.134496 9.56487e-09 2.72986e-14)
(0.134496 4.80828e-09 2.7277e-14)
(0.134496 4.86253e-09 2.73022e-14)
(0.134496 1.9722e-09 2.72776e-14)
(0.134496 2.39601e-08 2.73016e-14)
(0.135278 -4.21454e-08 2.77538e-14)
(0.135278 -1.3623e-08 2.77385e-14)
(0.135278 8.24635e-10 2.77068e-14)
(0.135278 7.11325e-09 2.77971e-14)
(0.135278 8.09089e-09 2.77951e-14)
(0.135278 6.53784e-09 2.77804e-14)
(0.135278 3.52183e-09 2.77461e-14)
(0.135278 -1.52321e-10 2.7734e-14)
(0.135278 -3.85611e-09 2.77079e-14)
(0.135278 -7.17204e-09 2.77182e-14)
(0.135278 -9.83961e-09 2.76834e-14)
(0.135278 -1.17132e-08 2.76602e-14)
(0.135278 -1.27529e-08 2.7662e-14)
(0.135278 -1.29882e-08 2.76433e-14)
(0.135278 -1.24891e-08 2.76534e-14)
(0.135278 -1.13574e-08 2.76313e-14)
(0.135278 -9.71374e-09 2.76116e-14)
(0.135278 -7.67186e-09 2.76192e-14)
(0.135278 -5.33944e-09 2.76038e-14)
(0.135278 -2.83696e-09 2.76183e-14)
(0.135278 -2.59541e-10 2.75848e-14)
(0.135278 2.34837e-09 2.75663e-14)
(0.135278 4.94426e-09 2.75725e-14)
(0.135278 7.47601e-09 2.75579e-14)
(0.135278 9.93309e-09 2.75753e-14)
(0.135278 1.23417e-08 2.75443e-14)
(0.135279 1.47045e-08 2.75163e-14)
(0.135279 1.69886e-08 2.7512e-14)
(0.135279 1.91582e-08 2.75036e-14)
(0.135279 2.12085e-08 2.75189e-14)
(0.135279 2.31643e-08 2.7491e-14)
(0.135279 2.50329e-08 2.74636e-14)
(0.135279 2.6799e-08 2.74625e-14)
(0.135279 2.84654e-08 2.74538e-14)
(0.135279 3.00357e-08 2.74824e-14)
(0.135279 3.14952e-08 2.73959e-14)
(0.135279 3.28138e-08 2.74903e-14)
(0.135279 3.39911e-08 2.75075e-14)
(0.135279 3.50203e-08 2.74685e-14)
(0.135279 3.58154e-08 2.75476e-14)
(0.135278 3.65894e-08 2.74471e-14)
(0.135278 3.6723e-08 2.75414e-14)
(0.135278 3.63462e-08 2.75636e-14)
(0.135278 3.57369e-08 2.75344e-14)
(0.135278 3.49636e-08 2.76031e-14)
(0.135278 3.47859e-08 2.74924e-14)
(0.135278 3.49287e-08 2.75795e-14)
(0.135278 3.49301e-08 2.76174e-14)
(0.135278 3.43544e-08 2.75717e-14)
(0.135278 3.28834e-08 2.76324e-14)
(0.135278 3.03574e-08 2.75209e-14)
(0.135278 2.68077e-08 2.76039e-14)
(0.135278 2.24793e-08 2.76104e-14)
(0.135278 1.75875e-08 2.75798e-14)
(0.135278 1.30256e-08 2.76515e-14)
(0.135278 8.40497e-09 2.75472e-14)
(0.135278 8.20691e-09 2.76374e-14)
(0.135278 4.45026e-09 2.76526e-14)
(0.135278 2.68116e-08 2.76198e-14)
(0.13604 -4.18998e-08 2.80499e-14)
(0.13604 -1.37805e-08 2.80701e-14)
(0.13604 4.38072e-12 2.80106e-14)
(0.13604 5.93264e-09 2.81292e-14)
(0.13604 6.90359e-09 2.81058e-14)
(0.13604 5.48621e-09 2.80736e-14)
(0.13604 2.66639e-09 2.80792e-14)
(0.13604 -8.18011e-10 2.80396e-14)
(0.13604 -4.39032e-09 2.80484e-14)
(0.13604 -7.65727e-09 2.80677e-14)
(0.13604 -1.03567e-08 2.79686e-14)
(0.13604 -1.23313e-08 2.80047e-14)
(0.13604 -1.35218e-08 2.79811e-14)
(0.13604 -1.39301e-08 2.7991e-14)
(0.13604 -1.36003e-08 2.80117e-14)
(0.13604 -1.26176e-08 2.7924e-14)
(0.13604 -1.10959e-08 2.79672e-14)
(0.13604 -9.15066e-09 2.79481e-14)
(0.13604 -6.89e-09 2.7963e-14)
(0.13604 -4.43119e-09 2.7983e-14)
(0.13604 -1.86788e-09 2.78818e-14)
(0.13604 7.56648e-10 2.79204e-14)
(0.13604 3.39951e-09 2.78986e-14)
(0.13604 6.00408e-09 2.79163e-14)
(0.13604 8.55619e-09 2.79422e-14)
(0.13604 1.10825e-08 2.78432e-14)
(0.13604 1.35862e-08 2.7873e-14)
(0.13604 1.60281e-08 2.78427e-14)
(0.13604 1.8366e-08 2.786e-14)
(0.13604 2.0595e-08 2.78838e-14)
(0.13604 2.27425e-08 2.77907e-14)
(0.13604 2.48144e-08 2.78252e-14)
(0.13604 2.67891e-08 2.77979e-14)
(0.13604 2.86637e-08 2.78171e-14)
(0.13604 3.04438e-08 2.78475e-14)
(0.13604 3.21158e-08 2.77217e-14)
(0.13604 3.36475e-08 2.77785e-14)
(0.13604 3.50352e-08 2.78903e-14)
(0.13604 3.6278e-08 2.77727e-14)
(0.13604 3.72791e-08 2.78293e-14)
(0.13604 3.82204e-08 2.77501e-14)
(0.13604 3.85589e-08 2.78216e-14)
(0.13604 3.8389e-08 2.79768e-14)
(0.13604 3.79334e-08 2.78322e-14)
(0.13604 3.72113e-08 2.78849e-14)
(0.13604 3.68893e-08 2.77963e-14)
(0.13604 3.67903e-08 2.78625e-14)
(0.13604 3.65927e-08 2.79674e-14)
(0.13604 3.59622e-08 2.788e-14)
(0.13604 3.46137e-08 2.79201e-14)
(0.13604 3.23511e-08 2.78295e-14)
(0.13604 2.91449e-08 2.78914e-14)
(0.13604 2.51605e-08 2.80047e-14)
(0.13604 2.05897e-08 2.78886e-14)
(0.13604 1.61851e-08 2.79436e-14)