/*--------------------------------*- C++ -*----------------------------------*\
  =========                 |
  \\      /  F ield         | OpenFOAM: The Open Source CFD Toolbox
   \\    /   O peration     | Website:  https://openfoam.org
    \\  /    A nd           | Version:  7
     \\/     M anipulation  |
\*---------------------------------------------------------------------------*/
FoamFile
{
    version     2.0;
    format      ascii;
    class       volScalarField;
    location    "2500";
    object      k;
}
// * * * * * * * * * * * * * * * * * * * * * * * * * * * * * * * * * * * * * //

dimensions      [0 2 -2 0 0 0 0];

internalField   nonuniform List<scalar> 
24000
(
7.84578e-09
7.8456e-09
7.8454e-09
7.84524e-09
7.84513e-09
7.84507e-09
7.84502e-09
7.84498e-09
7.84495e-09
7.84493e-09
7.84494e-09
7.84497e-09
7.84501e-09
7.84505e-09
7.84509e-09
7.84513e-09
7.84517e-09
7.84522e-09
7.84528e-09
7.84534e-09
7.84539e-09
7.84545e-09
7.8455e-09
7.84556e-09
7.84562e-09
7.84567e-09
7.84573e-09
7.84578e-09
7.84583e-09
7.84589e-09
7.84594e-09
7.84599e-09
7.84604e-09
7.84609e-09
7.84614e-09
7.84618e-09
7.84623e-09
7.84627e-09
7.84631e-09
7.84635e-09
7.84639e-09
7.84642e-09
7.84644e-09
7.84647e-09
7.84647e-09
7.84646e-09
7.84648e-09
7.8465e-09
7.84653e-09
7.84655e-09
7.84658e-09
7.84661e-09
7.84664e-09
7.84666e-09
7.84668e-09
7.8467e-09
7.84671e-09
7.84673e-09
7.84674e-09
7.84675e-09
7.84676e-09
7.84676e-09
7.84676e-09
7.84676e-09
7.84675e-09
7.84674e-09
7.84672e-09
7.84671e-09
7.84669e-09
7.84666e-09
7.84664e-09
7.84662e-09
7.84659e-09
7.84657e-09
7.84654e-09
7.84652e-09
7.8465e-09
7.84647e-09
7.84645e-09
7.84643e-09
7.8464e-09
7.84638e-09
7.84636e-09
7.84634e-09
7.84632e-09
7.8463e-09
7.84628e-09
7.84626e-09
7.84625e-09
7.84623e-09
7.84621e-09
7.8462e-09
7.84618e-09
7.84616e-09
7.84615e-09
7.84613e-09
7.84611e-09
7.84609e-09
7.84607e-09
7.84605e-09
7.84603e-09
7.846e-09
7.84597e-09
7.84594e-09
7.84589e-09
7.84588e-09
7.84588e-09
7.84588e-09
7.8459e-09
7.84591e-09
7.84592e-09
7.84593e-09
7.84595e-09
7.84596e-09
7.84597e-09
7.84597e-09
7.84598e-09
7.84597e-09
7.84595e-09
7.84592e-09
2.52315e-07
2.5231e-07
2.52303e-07
2.52298e-07
2.52294e-07
2.52292e-07
2.52291e-07
2.5229e-07
2.52289e-07
2.52288e-07
2.52288e-07
2.52289e-07
2.52291e-07
2.52292e-07
2.52293e-07
2.52294e-07
2.52296e-07
2.52297e-07
2.52299e-07
2.52301e-07
2.52303e-07
2.52305e-07
2.52306e-07
2.52308e-07
2.5231e-07
2.52312e-07
2.52314e-07
2.52315e-07
2.52317e-07
2.52319e-07
2.5232e-07
2.52322e-07
2.52324e-07
2.52325e-07
2.52327e-07
2.52328e-07
2.5233e-07
2.52331e-07
2.52332e-07
2.52334e-07
2.52335e-07
2.52336e-07
2.52337e-07
2.52337e-07
2.52337e-07
2.52337e-07
2.52338e-07
2.52338e-07
2.52339e-07
2.5234e-07
2.52341e-07
2.52342e-07
2.52343e-07
2.52344e-07
2.52344e-07
2.52345e-07
2.52345e-07
2.52346e-07
2.52346e-07
2.52347e-07
2.52347e-07
2.52347e-07
2.52347e-07
2.52347e-07
2.52346e-07
2.52346e-07
2.52346e-07
2.52345e-07
2.52344e-07
2.52344e-07
2.52343e-07
2.52342e-07
2.52341e-07
2.52341e-07
2.5234e-07
2.52339e-07
2.52338e-07
2.52338e-07
2.52337e-07
2.52336e-07
2.52335e-07
2.52335e-07
2.52334e-07
2.52333e-07
2.52333e-07
2.52332e-07
2.52331e-07
2.52331e-07
2.5233e-07
2.5233e-07
2.52329e-07
2.52329e-07
2.52328e-07
2.52328e-07
2.52327e-07
2.52326e-07
2.52326e-07
2.52325e-07
2.52325e-07
2.52324e-07
2.52323e-07
2.52322e-07
2.52322e-07
2.5232e-07
2.52319e-07
2.52318e-07
2.52318e-07
2.52319e-07
2.52319e-07
2.52319e-07
2.5232e-07
2.5232e-07
2.52321e-07
2.52321e-07
2.52321e-07
2.52322e-07
2.52322e-07
2.52321e-07
2.52321e-07
2.5232e-07
1.83155e-06
1.8315e-06
1.83146e-06
1.83142e-06
1.83139e-06
1.83138e-06
1.83137e-06
1.83136e-06
1.83135e-06
1.83135e-06
1.83135e-06
1.83136e-06
1.83136e-06
1.83137e-06
1.83138e-06
1.83139e-06
1.8314e-06
1.83141e-06
1.83143e-06
1.83144e-06
1.83145e-06
1.83147e-06
1.83148e-06
1.83149e-06
1.83151e-06
1.83152e-06
1.83153e-06
1.83154e-06
1.83156e-06
1.83157e-06
1.83158e-06
1.83159e-06
1.8316e-06
1.83162e-06
1.83163e-06
1.83164e-06
1.83165e-06
1.83166e-06
1.83167e-06
1.83168e-06
1.83169e-06
1.83169e-06
1.8317e-06
1.8317e-06
1.8317e-06
1.8317e-06
1.83171e-06
1.83171e-06
1.83172e-06
1.83172e-06
1.83173e-06
1.83174e-06
1.83174e-06
1.83175e-06
1.83175e-06
1.83176e-06
1.83176e-06
1.83176e-06
1.83177e-06
1.83177e-06
1.83177e-06
1.83177e-06
1.83177e-06
1.83177e-06
1.83177e-06
1.83177e-06
1.83176e-06
1.83176e-06
1.83175e-06
1.83175e-06
1.83174e-06
1.83174e-06
1.83173e-06
1.83173e-06
1.83172e-06
1.83172e-06
1.83171e-06
1.8317e-06
1.8317e-06
1.83169e-06
1.83169e-06
1.83168e-06
1.83168e-06
1.83167e-06
1.83167e-06
1.83167e-06
1.83166e-06
1.83166e-06
1.83165e-06
1.83165e-06
1.83164e-06
1.83164e-06
1.83164e-06
1.83163e-06
1.83163e-06
1.83162e-06
1.83162e-06
1.83162e-06
1.83161e-06
1.83161e-06
1.8316e-06
1.83159e-06
1.83159e-06
1.83158e-06
1.83157e-06
1.83157e-06
1.83157e-06
1.83157e-06
1.83157e-06
1.83157e-06
1.83158e-06
1.83158e-06
1.83158e-06
1.83159e-06
1.83159e-06
1.83159e-06
1.83159e-06
1.83159e-06
1.83158e-06
1.83158e-06
6.75849e-06
6.75833e-06
6.75816e-06
6.75801e-06
6.75792e-06
6.75786e-06
6.75783e-06
6.7578e-06
6.75778e-06
6.75776e-06
6.75777e-06
6.75779e-06
6.75783e-06
6.75787e-06
6.7579e-06
6.75793e-06
6.75797e-06
6.75801e-06
6.75806e-06
6.75811e-06
6.75816e-06
6.7582e-06
6.75825e-06
6.7583e-06
6.75835e-06
6.75839e-06
6.75844e-06
6.75849e-06
6.75853e-06
6.75858e-06
6.75862e-06
6.75866e-06
6.75871e-06
6.75875e-06
6.75879e-06
6.75883e-06
6.75887e-06
6.7589e-06
6.75894e-06
6.75897e-06
6.759e-06
6.75903e-06
6.75905e-06
6.75907e-06
6.75907e-06
6.75907e-06
6.75908e-06
6.7591e-06
6.75912e-06
6.75915e-06
6.75917e-06
6.75919e-06
6.75922e-06
6.75923e-06
6.75925e-06
6.75927e-06
6.75928e-06
6.75929e-06
6.7593e-06
6.75931e-06
6.75932e-06
6.75932e-06
6.75932e-06
6.75932e-06
6.75931e-06
6.7593e-06
6.75929e-06
6.75927e-06
6.75925e-06
6.75923e-06
6.75921e-06
6.75919e-06
6.75917e-06
6.75915e-06
6.75913e-06
6.75911e-06
6.75909e-06
6.75907e-06
6.75905e-06
6.75903e-06
6.75901e-06
6.75899e-06
6.75898e-06
6.75896e-06
6.75894e-06
6.75892e-06
6.75891e-06
6.75889e-06
6.75888e-06
6.75886e-06
6.75885e-06
6.75884e-06
6.75882e-06
6.75881e-06
6.75879e-06
6.75877e-06
6.75876e-06
6.75874e-06
6.75873e-06
6.75871e-06
6.75869e-06
6.75867e-06
6.75865e-06
6.75862e-06
6.75858e-06
6.75857e-06
6.75857e-06
6.75857e-06
6.75858e-06
6.75859e-06
6.7586e-06
6.75861e-06
6.75862e-06
6.75863e-06
6.75864e-06
6.75865e-06
6.75865e-06
6.75865e-06
6.75863e-06
6.75861e-06
1.71557e-05
1.71553e-05
1.71549e-05
1.71545e-05
1.71543e-05
1.71541e-05
1.71541e-05
1.7154e-05
1.71539e-05
1.71539e-05
1.71539e-05
1.7154e-05
1.71541e-05
1.71542e-05
1.71543e-05
1.71543e-05
1.71544e-05
1.71545e-05
1.71546e-05
1.71548e-05
1.71549e-05
1.7155e-05
1.71551e-05
1.71552e-05
1.71554e-05
1.71555e-05
1.71556e-05
1.71557e-05
1.71558e-05
1.71559e-05
1.7156e-05
1.71561e-05
1.71562e-05
1.71563e-05
1.71564e-05
1.71565e-05
1.71566e-05
1.71567e-05
1.71568e-05
1.71569e-05
1.7157e-05
1.7157e-05
1.71571e-05
1.71571e-05
1.71572e-05
1.71571e-05
1.71572e-05
1.71572e-05
1.71573e-05
1.71573e-05
1.71574e-05
1.71574e-05
1.71575e-05
1.71575e-05
1.71576e-05
1.71576e-05
1.71577e-05
1.71577e-05
1.71577e-05
1.71577e-05
1.71577e-05
1.71578e-05
1.71577e-05
1.71577e-05
1.71577e-05
1.71577e-05
1.71577e-05
1.71576e-05
1.71576e-05
1.71575e-05
1.71575e-05
1.71574e-05
1.71574e-05
1.71573e-05
1.71573e-05
1.71572e-05
1.71572e-05
1.71571e-05
1.71571e-05
1.7157e-05
1.7157e-05
1.71569e-05
1.71569e-05
1.71568e-05
1.71568e-05
1.71568e-05
1.71567e-05
1.71567e-05
1.71566e-05
1.71566e-05
1.71566e-05
1.71565e-05
1.71565e-05
1.71565e-05
1.71564e-05
1.71564e-05
1.71563e-05
1.71563e-05
1.71563e-05
1.71562e-05
1.71562e-05
1.71561e-05
1.71561e-05
1.7156e-05
1.71559e-05
1.71559e-05
1.71559e-05
1.71559e-05
1.71559e-05
1.71559e-05
1.7156e-05
1.7156e-05
1.7156e-05
1.7156e-05
1.71561e-05
1.71561e-05
1.71561e-05
1.71561e-05
1.7156e-05
1.7156e-05
3.36431e-05
3.36422e-05
3.36414e-05
3.36408e-05
3.36403e-05
3.36401e-05
3.364e-05
3.36399e-05
3.36398e-05
3.36398e-05
3.36398e-05
3.36399e-05
3.36401e-05
3.36403e-05
3.36404e-05
3.36406e-05
3.36408e-05
3.3641e-05
3.36412e-05
3.36414e-05
3.36416e-05
3.36419e-05
3.36421e-05
3.36423e-05
3.36425e-05
3.36427e-05
3.36429e-05
3.36432e-05
3.36434e-05
3.36436e-05
3.36438e-05
3.3644e-05
3.36441e-05
3.36443e-05
3.36445e-05
3.36447e-05
3.36449e-05
3.3645e-05
3.36452e-05
3.36453e-05
3.36455e-05
3.36456e-05
3.36457e-05
3.36458e-05
3.36458e-05
3.36458e-05
3.36459e-05
3.3646e-05
3.36461e-05
3.36462e-05
3.36463e-05
3.36464e-05
3.36465e-05
3.36465e-05
3.36466e-05
3.36467e-05
3.36467e-05
3.36468e-05
3.36468e-05
3.36469e-05
3.36469e-05
3.36469e-05
3.36469e-05
3.36469e-05
3.36468e-05
3.36468e-05
3.36467e-05
3.36466e-05
3.36466e-05
3.36465e-05
3.36464e-05
3.36463e-05
3.36462e-05
3.36461e-05
3.3646e-05
3.36459e-05
3.36458e-05
3.36457e-05
3.36456e-05
3.36455e-05
3.36454e-05
3.36453e-05
3.36453e-05
3.36452e-05
3.36451e-05
3.3645e-05
3.36449e-05
3.36449e-05
3.36448e-05
3.36447e-05
3.36447e-05
3.36446e-05
3.36445e-05
3.36445e-05
3.36444e-05
3.36443e-05
3.36442e-05
3.36442e-05
3.36441e-05
3.3644e-05
3.36439e-05
3.36438e-05
3.36437e-05
3.36436e-05
3.36435e-05
3.36434e-05
3.36434e-05
3.36434e-05
3.36435e-05
3.36435e-05
3.36436e-05
3.36436e-05
3.36437e-05
3.36437e-05
3.36438e-05
3.36438e-05
3.36438e-05
3.36438e-05
3.36437e-05
3.36438e-05
5.41557e-05
5.41543e-05
5.41531e-05
5.41521e-05
5.41514e-05
5.41511e-05
5.4151e-05
5.41509e-05
5.41508e-05
5.41508e-05
5.41508e-05
5.4151e-05
5.41512e-05
5.41515e-05
5.41518e-05
5.41521e-05
5.41523e-05
5.41526e-05
5.41529e-05
5.41533e-05
5.41536e-05
5.4154e-05
5.41543e-05
5.41546e-05
5.41549e-05
5.41553e-05
5.41556e-05
5.41559e-05
5.41562e-05
5.41565e-05
5.41568e-05
5.41571e-05
5.41574e-05
5.41576e-05
5.41579e-05
5.41582e-05
5.41584e-05
5.41587e-05
5.41589e-05
5.41591e-05
5.41593e-05
5.41595e-05
5.41597e-05
5.41598e-05
5.41599e-05
5.41599e-05
5.41599e-05
5.41601e-05
5.41602e-05
5.41604e-05
5.41605e-05
5.41607e-05
5.41608e-05
5.41609e-05
5.4161e-05
5.41611e-05
5.41612e-05
5.41613e-05
5.41613e-05
5.41614e-05
5.41614e-05
5.41614e-05
5.41614e-05
5.41613e-05
5.41613e-05
5.41612e-05
5.41611e-05
5.4161e-05
5.41608e-05
5.41607e-05
5.41606e-05
5.41604e-05
5.41603e-05
5.41601e-05
5.416e-05
5.41598e-05
5.41597e-05
5.41595e-05
5.41594e-05
5.41592e-05
5.41591e-05
5.4159e-05
5.41589e-05
5.41587e-05
5.41586e-05
5.41585e-05
5.41584e-05
5.41583e-05
5.41582e-05
5.41581e-05
5.4158e-05
5.41579e-05
5.41578e-05
5.41576e-05
5.41575e-05
5.41574e-05
5.41573e-05
5.41572e-05
5.41571e-05
5.41569e-05
5.41568e-05
5.41567e-05
5.41566e-05
5.41564e-05
5.41562e-05
5.41562e-05
5.41562e-05
5.41562e-05
5.41563e-05
5.41563e-05
5.41564e-05
5.41565e-05
5.41565e-05
5.41566e-05
5.41567e-05
5.41567e-05
5.41568e-05
5.41568e-05
5.41566e-05
5.41568e-05
7.52857e-05
7.52837e-05
7.5282e-05
7.52807e-05
7.52799e-05
7.52795e-05
7.52794e-05
7.52794e-05
7.52793e-05
7.52793e-05
7.52793e-05
7.52795e-05
7.52799e-05
7.52803e-05
7.52807e-05
7.5281e-05
7.52814e-05
7.52817e-05
7.52822e-05
7.52826e-05
7.52831e-05
7.52835e-05
7.52839e-05
7.52843e-05
7.52848e-05
7.52852e-05
7.52856e-05
7.5286e-05
7.52864e-05
7.52868e-05
7.52872e-05
7.52875e-05
7.52879e-05
7.52882e-05
7.52886e-05
7.52889e-05
7.52892e-05
7.52895e-05
7.52898e-05
7.52901e-05
7.52903e-05
7.52906e-05
7.52908e-05
7.52909e-05
7.52911e-05
7.52911e-05
7.52912e-05
7.52913e-05
7.52915e-05
7.52917e-05
7.52919e-05
7.52921e-05
7.52922e-05
7.52924e-05
7.52925e-05
7.52926e-05
7.52927e-05
7.52928e-05
7.52929e-05
7.52929e-05
7.5293e-05
7.5293e-05
7.52929e-05
7.52928e-05
7.52927e-05
7.52926e-05
7.52925e-05
7.52923e-05
7.52921e-05
7.5292e-05
7.52918e-05
7.52916e-05
7.52914e-05
7.52912e-05
7.5291e-05
7.52908e-05
7.52906e-05
7.52904e-05
7.52902e-05
7.529e-05
7.52899e-05
7.52897e-05
7.52895e-05
7.52894e-05
7.52892e-05
7.52891e-05
7.52889e-05
7.52888e-05
7.52886e-05
7.52885e-05
7.52884e-05
7.52882e-05
7.52881e-05
7.52879e-05
7.52878e-05
7.52876e-05
7.52875e-05
7.52873e-05
7.52872e-05
7.5287e-05
7.52869e-05
7.52867e-05
7.52866e-05
7.52864e-05
7.52862e-05
7.52861e-05
7.52861e-05
7.52862e-05
7.52863e-05
7.52863e-05
7.52864e-05
7.52865e-05
7.52866e-05
7.52867e-05
7.52868e-05
7.52869e-05
7.52869e-05
7.5287e-05
7.52868e-05
7.52872e-05
9.45277e-05
9.45251e-05
9.4523e-05
9.45214e-05
9.45204e-05
9.452e-05
9.452e-05
9.452e-05
9.452e-05
9.452e-05
9.45201e-05
9.45203e-05
9.45208e-05
9.45213e-05
9.45218e-05
9.45222e-05
9.45226e-05
9.4523e-05
9.45235e-05
9.45241e-05
9.45246e-05
9.45251e-05
9.45256e-05
9.45261e-05
9.45266e-05
9.45271e-05
9.45276e-05
9.45281e-05
9.45285e-05
9.4529e-05
9.45294e-05
9.45298e-05
9.45303e-05
9.45307e-05
9.45311e-05
9.45314e-05
9.45318e-05
9.45321e-05
9.45324e-05
9.45328e-05
9.45331e-05
9.45333e-05
9.45336e-05
9.45338e-05
9.45339e-05
9.4534e-05
9.45341e-05
9.45343e-05
9.45345e-05
9.45347e-05
9.45349e-05
9.45351e-05
9.45353e-05
9.45354e-05
9.45356e-05
9.45357e-05
9.45359e-05
9.4536e-05
9.4536e-05
9.45361e-05
9.45361e-05
9.4536e-05
9.4536e-05
9.45359e-05
9.45358e-05
9.45356e-05
9.45354e-05
9.45352e-05
9.4535e-05
9.45348e-05
9.45345e-05
9.45343e-05
9.45341e-05
9.45338e-05
9.45336e-05
9.45333e-05
9.45331e-05
9.45329e-05
9.45327e-05
9.45325e-05
9.45323e-05
9.45321e-05
9.45319e-05
9.45317e-05
9.45315e-05
9.45313e-05
9.45311e-05
9.4531e-05
9.45308e-05
9.45306e-05
9.45304e-05
9.45303e-05
9.45301e-05
9.45299e-05
9.45298e-05
9.45296e-05
9.45294e-05
9.45292e-05
9.4529e-05
9.45288e-05
9.45287e-05
9.45285e-05
9.45284e-05
9.45282e-05
9.4528e-05
9.45279e-05
9.45279e-05
9.4528e-05
9.45281e-05
9.45282e-05
9.45283e-05
9.45284e-05
9.45285e-05
9.45286e-05
9.45287e-05
9.45288e-05
9.45289e-05
9.4529e-05
9.45288e-05
9.45294e-05
0.000110888
0.000110885
0.000110883
0.000110881
0.00011088
0.000110879
0.000110879
0.000110879
0.000110879
0.000110879
0.000110879
0.00011088
0.00011088
0.000110881
0.000110881
0.000110882
0.000110882
0.000110883
0.000110883
0.000110884
0.000110885
0.000110885
0.000110886
0.000110886
0.000110887
0.000110887
0.000110888
0.000110889
0.000110889
0.00011089
0.00011089
0.00011089
0.000110891
0.000110891
0.000110892
0.000110892
0.000110893
0.000110893
0.000110893
0.000110894
0.000110894
0.000110894
0.000110895
0.000110895
0.000110895
0.000110895
0.000110895
0.000110895
0.000110896
0.000110896
0.000110896
0.000110896
0.000110896
0.000110897
0.000110897
0.000110897
0.000110897
0.000110897
0.000110897
0.000110897
0.000110897
0.000110897
0.000110897
0.000110897
0.000110897
0.000110897
0.000110896
0.000110896
0.000110896
0.000110896
0.000110895
0.000110895
0.000110895
0.000110895
0.000110894
0.000110894
0.000110894
0.000110894
0.000110893
0.000110893
0.000110893
0.000110893
0.000110892
0.000110892
0.000110892
0.000110892
0.000110891
0.000110891
0.000110891
0.000110891
0.000110891
0.000110891
0.00011089
0.00011089
0.00011089
0.00011089
0.000110889
0.000110889
0.000110889
0.000110889
0.000110889
0.000110889
0.000110888
0.000110888
0.000110888
0.000110888
0.000110888
0.000110888
0.000110888
0.000110888
0.000110888
0.000110889
0.000110889
0.000110889
0.000110889
0.000110889
0.000110889
0.000110889
0.000110889
0.00011089
0.000124339
0.000124336
0.000124333
0.000124331
0.000124329
0.000124329
0.000124329
0.000124329
0.000124329
0.000124329
0.000124329
0.00012433
0.00012433
0.000124331
0.000124332
0.000124332
0.000124333
0.000124333
0.000124334
0.000124335
0.000124335
0.000124336
0.000124336
0.000124337
0.000124338
0.000124338
0.000124339
0.00012434
0.00012434
0.000124341
0.000124341
0.000124342
0.000124342
0.000124343
0.000124343
0.000124343
0.000124344
0.000124344
0.000124345
0.000124345
0.000124345
0.000124346
0.000124346
0.000124346
0.000124347
0.000124347
0.000124347
0.000124347
0.000124347
0.000124347
0.000124348
0.000124348
0.000124348
0.000124348
0.000124348
0.000124349
0.000124349
0.000124349
0.000124349
0.000124349
0.000124349
0.000124349
0.000124349
0.000124348
0.000124348
0.000124348
0.000124348
0.000124347
0.000124347
0.000124347
0.000124347
0.000124346
0.000124346
0.000124346
0.000124345
0.000124345
0.000124345
0.000124344
0.000124344
0.000124344
0.000124344
0.000124343
0.000124343
0.000124343
0.000124343
0.000124342
0.000124342
0.000124342
0.000124342
0.000124342
0.000124341
0.000124341
0.000124341
0.000124341
0.00012434
0.00012434
0.00012434
0.00012434
0.00012434
0.000124339
0.000124339
0.000124339
0.000124339
0.000124339
0.000124339
0.000124339
0.000124339
0.000124339
0.000124339
0.000124339
0.000124339
0.000124339
0.000124339
0.000124339
0.00012434
0.00012434
0.00012434
0.00012434
0.00012434
0.000124341
0.000135242
0.000135238
0.000135235
0.000135233
0.000135232
0.000135231
0.000135231
0.000135231
0.000135231
0.000135231
0.000135232
0.000135232
0.000135233
0.000135233
0.000135234
0.000135235
0.000135235
0.000135236
0.000135236
0.000135237
0.000135238
0.000135239
0.000135239
0.00013524
0.000135241
0.000135241
0.000135242
0.000135243
0.000135243
0.000135244
0.000135244
0.000135245
0.000135245
0.000135246
0.000135246
0.000135247
0.000135247
0.000135248
0.000135248
0.000135248
0.000135249
0.000135249
0.000135249
0.00013525
0.00013525
0.00013525
0.00013525
0.000135251
0.000135251
0.000135251
0.000135251
0.000135251
0.000135252
0.000135252
0.000135252
0.000135252
0.000135252
0.000135252
0.000135252
0.000135252
0.000135252
0.000135252
0.000135252
0.000135252
0.000135252
0.000135251
0.000135251
0.000135251
0.00013525
0.00013525
0.00013525
0.000135249
0.000135249
0.000135249
0.000135248
0.000135248
0.000135248
0.000135247
0.000135247
0.000135247
0.000135247
0.000135246
0.000135246
0.000135246
0.000135246
0.000135245
0.000135245
0.000135245
0.000135245
0.000135244
0.000135244
0.000135244
0.000135244
0.000135243
0.000135243
0.000135243
0.000135243
0.000135242
0.000135242
0.000135242
0.000135242
0.000135242
0.000135241
0.000135241
0.000135241
0.000135241
0.000135241
0.000135241
0.000135241
0.000135242
0.000135242
0.000135242
0.000135242
0.000135242
0.000135242
0.000135242
0.000135243
0.000135243
0.000135243
0.000135244
0.00014404
0.000144036
0.000144033
0.000144031
0.000144029
0.000144029
0.000144029
0.000144029
0.000144029
0.000144029
0.000144029
0.00014403
0.00014403
0.000144031
0.000144032
0.000144032
0.000144033
0.000144034
0.000144034
0.000144035
0.000144036
0.000144037
0.000144037
0.000144038
0.000144039
0.00014404
0.00014404
0.000144041
0.000144042
0.000144042
0.000144043
0.000144043
0.000144044
0.000144044
0.000144045
0.000144045
0.000144046
0.000144046
0.000144047
0.000144047
0.000144048
0.000144048
0.000144048
0.000144049
0.000144049
0.000144049
0.000144049
0.000144049
0.00014405
0.00014405
0.00014405
0.00014405
0.00014405
0.000144051
0.000144051
0.000144051
0.000144051
0.000144051
0.000144051
0.000144051
0.000144051
0.000144051
0.000144051
0.000144051
0.00014405
0.00014405
0.00014405
0.000144049
0.000144049
0.000144049
0.000144048
0.000144048
0.000144047
0.000144047
0.000144047
0.000144046
0.000144046
0.000144046
0.000144045
0.000144045
0.000144045
0.000144044
0.000144044
0.000144044
0.000144044
0.000144043
0.000144043
0.000144043
0.000144043
0.000144042
0.000144042
0.000144042
0.000144041
0.000144041
0.000144041
0.000144041
0.00014404
0.00014404
0.00014404
0.00014404
0.00014404
0.000144039
0.000144039
0.000144039
0.000144039
0.000144039
0.000144039
0.000144039
0.000144039
0.000144039
0.00014404
0.00014404
0.00014404
0.00014404
0.00014404
0.00014404
0.000144041
0.000144041
0.000144041
0.000144042
0.000151138
0.000151135
0.000151132
0.000151129
0.000151127
0.000151127
0.000151126
0.000151127
0.000151127
0.000151127
0.000151127
0.000151127
0.000151128
0.000151129
0.00015113
0.00015113
0.000151131
0.000151132
0.000151133
0.000151133
0.000151134
0.000151135
0.000151136
0.000151137
0.000151137
0.000151138
0.000151139
0.000151139
0.00015114
0.000151141
0.000151141
0.000151142
0.000151143
0.000151143
0.000151144
0.000151144
0.000151145
0.000151145
0.000151146
0.000151146
0.000151146
0.000151147
0.000151147
0.000151148
0.000151148
0.000151148
0.000151148
0.000151148
0.000151149
0.000151149
0.000151149
0.000151149
0.000151149
0.00015115
0.00015115
0.00015115
0.00015115
0.00015115
0.00015115
0.00015115
0.00015115
0.00015115
0.00015115
0.000151149
0.000151149
0.000151149
0.000151148
0.000151148
0.000151148
0.000151147
0.000151147
0.000151146
0.000151146
0.000151146
0.000151145
0.000151145
0.000151145
0.000151144
0.000151144
0.000151143
0.000151143
0.000151143
0.000151143
0.000151142
0.000151142
0.000151142
0.000151141
0.000151141
0.000151141
0.00015114
0.00015114
0.00015114
0.00015114
0.000151139
0.000151139
0.000151139
0.000151138
0.000151138
0.000151138
0.000151138
0.000151138
0.000151137
0.000151137
0.000151137
0.000151137
0.000151137
0.000151137
0.000151137
0.000151138
0.000151138
0.000151138
0.000151138
0.000151138
0.000151138
0.000151139
0.000151139
0.000151139
0.000151139
0.000151139
0.00015114
0.000156871
0.000156868
0.000156865
0.000156862
0.00015686
0.000156859
0.000156859
0.000156859
0.000156859
0.00015686
0.00015686
0.00015686
0.000156861
0.000156862
0.000156862
0.000156863
0.000156864
0.000156865
0.000156865
0.000156866
0.000156867
0.000156868
0.000156869
0.00015687
0.00015687
0.000156871
0.000156872
0.000156873
0.000156873
0.000156874
0.000156875
0.000156875
0.000156876
0.000156877
0.000156877
0.000156878
0.000156878
0.000156879
0.000156879
0.00015688
0.00015688
0.00015688
0.000156881
0.000156881
0.000156882
0.000156882
0.000156882
0.000156882
0.000156882
0.000156882
0.000156883
0.000156883
0.000156883
0.000156883
0.000156884
0.000156884
0.000156884
0.000156884
0.000156884
0.000156884
0.000156884
0.000156883
0.000156883
0.000156883
0.000156883
0.000156882
0.000156882
0.000156881
0.000156881
0.000156881
0.00015688
0.00015688
0.000156879
0.000156879
0.000156878
0.000156878
0.000156878
0.000156877
0.000156877
0.000156877
0.000156876
0.000156876
0.000156876
0.000156875
0.000156875
0.000156875
0.000156874
0.000156874
0.000156874
0.000156873
0.000156873
0.000156873
0.000156872
0.000156872
0.000156872
0.000156871
0.000156871
0.000156871
0.000156871
0.00015687
0.00015687
0.00015687
0.00015687
0.00015687
0.00015687
0.00015687
0.00015687
0.00015687
0.00015687
0.000156871
0.000156871
0.000156871
0.000156871
0.000156871
0.000156871
0.000156872
0.000156872
0.000156872
0.000156872
0.000156873
0.000161504
0.000161501
0.000161498
0.000161495
0.000161493
0.000161492
0.000161492
0.000161492
0.000161492
0.000161492
0.000161492
0.000161493
0.000161493
0.000161494
0.000161495
0.000161496
0.000161497
0.000161497
0.000161498
0.000161499
0.0001615
0.000161501
0.000161502
0.000161503
0.000161503
0.000161504
0.000161505
0.000161506
0.000161507
0.000161507
0.000161508
0.000161509
0.000161509
0.00016151
0.00016151
0.000161511
0.000161512
0.000161512
0.000161513
0.000161513
0.000161513
0.000161514
0.000161514
0.000161515
0.000161515
0.000161515
0.000161515
0.000161516
0.000161516
0.000161516
0.000161516
0.000161516
0.000161517
0.000161517
0.000161517
0.000161517
0.000161517
0.000161517
0.000161517
0.000161517
0.000161517
0.000161517
0.000161516
0.000161516
0.000161516
0.000161515
0.000161515
0.000161515
0.000161514
0.000161514
0.000161513
0.000161513
0.000161512
0.000161512
0.000161511
0.000161511
0.000161511
0.00016151
0.00016151
0.000161509
0.000161509
0.000161509
0.000161508
0.000161508
0.000161508
0.000161507
0.000161507
0.000161507
0.000161506
0.000161506
0.000161506
0.000161505
0.000161505
0.000161505
0.000161504
0.000161504
0.000161504
0.000161503
0.000161503
0.000161503
0.000161503
0.000161503
0.000161503
0.000161503
0.000161503
0.000161503
0.000161503
0.000161503
0.000161503
0.000161503
0.000161503
0.000161504
0.000161504
0.000161504
0.000161504
0.000161504
0.000161505
0.000161505
0.000161505
0.000161506
0.000165243
0.00016524
0.000165237
0.000165235
0.000165233
0.000165232
0.000165231
0.000165231
0.000165232
0.000165232
0.000165232
0.000165232
0.000165233
0.000165234
0.000165234
0.000165235
0.000165236
0.000165237
0.000165238
0.000165239
0.000165239
0.00016524
0.000165241
0.000165242
0.000165243
0.000165244
0.000165245
0.000165246
0.000165246
0.000165247
0.000165248
0.000165248
0.000165249
0.00016525
0.00016525
0.000165251
0.000165252
0.000165252
0.000165253
0.000165253
0.000165254
0.000165254
0.000165254
0.000165255
0.000165255
0.000165255
0.000165256
0.000165256
0.000165256
0.000165256
0.000165256
0.000165257
0.000165257
0.000165257
0.000165257
0.000165257
0.000165258
0.000165258
0.000165257
0.000165257
0.000165257
0.000165257
0.000165256
0.000165256
0.000165256
0.000165255
0.000165255
0.000165254
0.000165254
0.000165253
0.000165253
0.000165253
0.000165252
0.000165252
0.000165251
0.000165251
0.00016525
0.00016525
0.000165249
0.000165249
0.000165249
0.000165248
0.000165248
0.000165248
0.000165247
0.000165247
0.000165246
0.000165246
0.000165246
0.000165245
0.000165245
0.000165245
0.000165244
0.000165244
0.000165244
0.000165243
0.000165243
0.000165243
0.000165242
0.000165242
0.000165242
0.000165242
0.000165242
0.000165242
0.000165242
0.000165242
0.000165242
0.000165243
0.000165243
0.000165243
0.000165243
0.000165243
0.000165243
0.000165244
0.000165244
0.000165244
0.000165244
0.000165244
0.000165244
0.000165246
0.00016825
0.000168247
0.000168244
0.000168242
0.00016824
0.000168239
0.000168239
0.000168239
0.000168239
0.000168239
0.000168239
0.000168239
0.00016824
0.000168241
0.000168241
0.000168242
0.000168243
0.000168244
0.000168245
0.000168246
0.000168247
0.000168247
0.000168248
0.000168249
0.00016825
0.000168251
0.000168252
0.000168253
0.000168254
0.000168254
0.000168255
0.000168256
0.000168257
0.000168257
0.000168258
0.000168258
0.000168259
0.00016826
0.00016826
0.000168261
0.000168261
0.000168262
0.000168262
0.000168262
0.000168263
0.000168263
0.000168263
0.000168264
0.000168264
0.000168264
0.000168264
0.000168264
0.000168265
0.000168265
0.000168265
0.000168265
0.000168265
0.000168265
0.000168265
0.000168265
0.000168264
0.000168264
0.000168264
0.000168263
0.000168263
0.000168263
0.000168262
0.000168262
0.000168261
0.000168261
0.00016826
0.00016826
0.000168259
0.000168259
0.000168258
0.000168258
0.000168257
0.000168257
0.000168257
0.000168256
0.000168256
0.000168255
0.000168255
0.000168255
0.000168254
0.000168254
0.000168253
0.000168253
0.000168253
0.000168252
0.000168252
0.000168251
0.000168251
0.000168251
0.00016825
0.00016825
0.00016825
0.000168249
0.000168249
0.000168249
0.000168249
0.000168249
0.000168249
0.000168249
0.000168249
0.000168249
0.000168249
0.00016825
0.00016825
0.00016825
0.00016825
0.00016825
0.00016825
0.000168251
0.000168251
0.000168251
0.000168251
0.000168252
0.000168251
0.000168253
0.00017065
0.000170647
0.000170644
0.000170642
0.00017064
0.000170639
0.000170639
0.000170638
0.000170638
0.000170639
0.000170639
0.000170639
0.00017064
0.00017064
0.000170641
0.000170642
0.000170643
0.000170644
0.000170644
0.000170645
0.000170646
0.000170647
0.000170648
0.000170649
0.00017065
0.000170651
0.000170652
0.000170653
0.000170654
0.000170654
0.000170655
0.000170656
0.000170657
0.000170657
0.000170658
0.000170659
0.000170659
0.00017066
0.00017066
0.000170661
0.000170661
0.000170662
0.000170662
0.000170663
0.000170663
0.000170664
0.000170664
0.000170664
0.000170664
0.000170664
0.000170665
0.000170665
0.000170665
0.000170665
0.000170665
0.000170666
0.000170666
0.000170665
0.000170665
0.000170665
0.000170665
0.000170664
0.000170664
0.000170663
0.000170663
0.000170663
0.000170662
0.000170662
0.000170661
0.000170661
0.00017066
0.00017066
0.000170659
0.000170659
0.000170658
0.000170658
0.000170657
0.000170657
0.000170656
0.000170656
0.000170656
0.000170655
0.000170655
0.000170654
0.000170654
0.000170653
0.000170653
0.000170653
0.000170652
0.000170652
0.000170651
0.000170651
0.000170651
0.00017065
0.00017065
0.00017065
0.000170649
0.000170649
0.000170649
0.000170649
0.000170649
0.000170649
0.000170649
0.000170649
0.000170649
0.000170649
0.000170649
0.000170649
0.00017065
0.00017065
0.00017065
0.00017065
0.00017065
0.00017065
0.000170651
0.000170651
0.000170651
0.000170651
0.000170651
0.000170653
0.000172541
0.000172538
0.000172535
0.000172533
0.000172531
0.00017253
0.00017253
0.00017253
0.00017253
0.00017253
0.00017253
0.00017253
0.000172531
0.000172531
0.000172532
0.000172533
0.000172534
0.000172535
0.000172535
0.000172536
0.000172537
0.000172538
0.000172539
0.00017254
0.000172541
0.000172542
0.000172543
0.000172544
0.000172545
0.000172546
0.000172546
0.000172547
0.000172548
0.000172549
0.000172549
0.00017255
0.000172551
0.000172551
0.000172552
0.000172552
0.000172553
0.000172553
0.000172554
0.000172554
0.000172555
0.000172555
0.000172555
0.000172555
0.000172556
0.000172556
0.000172556
0.000172556
0.000172557
0.000172557
0.000172557
0.000172557
0.000172557
0.000172557
0.000172556
0.000172556
0.000172556
0.000172555
0.000172555
0.000172554
0.000172554
0.000172553
0.000172553
0.000172552
0.000172552
0.000172551
0.000172551
0.000172551
0.00017255
0.00017255
0.000172549
0.000172549
0.000172548
0.000172548
0.000172547
0.000172547
0.000172546
0.000172546
0.000172545
0.000172545
0.000172545
0.000172544
0.000172544
0.000172543
0.000172543
0.000172542
0.000172542
0.000172542
0.000172541
0.000172541
0.00017254
0.00017254
0.00017254
0.00017254
0.00017254
0.00017254
0.00017254
0.00017254
0.00017254
0.00017254
0.00017254
0.00017254
0.00017254
0.00017254
0.00017254
0.000172541
0.000172541
0.000172541
0.000172541
0.000172541
0.000172542
0.000172542
0.000172542
0.000172542
0.000172542
0.000172544
0.000174
0.000173997
0.000173995
0.000173993
0.000173991
0.00017399
0.00017399
0.000173989
0.000173989
0.000173989
0.000173989
0.00017399
0.00017399
0.000173991
0.000173992
0.000173992
0.000173993
0.000173994
0.000173995
0.000173996
0.000173997
0.000173998
0.000173999
0.000174
0.000174001
0.000174002
0.000174003
0.000174003
0.000174004
0.000174005
0.000174006
0.000174007
0.000174008
0.000174008
0.000174009
0.00017401
0.00017401
0.000174011
0.000174012
0.000174012
0.000174013
0.000174013
0.000174014
0.000174014
0.000174015
0.000174015
0.000174015
0.000174015
0.000174016
0.000174016
0.000174016
0.000174016
0.000174017
0.000174017
0.000174017
0.000174017
0.000174017
0.000174016
0.000174016
0.000174016
0.000174015
0.000174015
0.000174014
0.000174014
0.000174013
0.000174013
0.000174012