/*--------------------------------*- C++ -*----------------------------------*\
  =========                 |
  \\      /  F ield         | OpenFOAM: The Open Source CFD Toolbox
   \\    /   O peration     | Website:  https://openfoam.org
    \\  /    A nd           | Version:  7
     \\/     M anipulation  |
\*---------------------------------------------------------------------------*/
FoamFile
{
    version     2.0;
    format      ascii;
    class       volScalarField;
    location    "2500";
    object      nut;
}
// * * * * * * * * * * * * * * * * * * * * * * * * * * * * * * * * * * * * * //

dimensions      [0 2 -1 0 0 0 0];

internalField   nonuniform List<scalar> 
24000
(
7.85152e-12
7.85134e-12
7.85114e-12
7.85098e-12
7.85087e-12
7.85081e-12
7.85076e-12
7.85072e-12
7.85069e-12
7.85067e-12
7.85068e-12
7.85072e-12
7.85076e-12
7.8508e-12
7.85083e-12
7.85087e-12
7.85091e-12
7.85097e-12
7.85102e-12
7.85108e-12
7.85114e-12
7.85119e-12
7.85124e-12
7.8513e-12
7.85136e-12
7.85142e-12
7.85147e-12
7.85152e-12
7.85158e-12
7.85163e-12
7.85168e-12
7.85173e-12
7.85178e-12
7.85183e-12
7.85188e-12
7.85192e-12
7.85197e-12
7.85201e-12
7.85205e-12
7.8521e-12
7.85213e-12
7.85217e-12
7.85219e-12
7.85221e-12
7.85221e-12
7.8522e-12
7.85222e-12
7.85224e-12
7.85227e-12
7.8523e-12
7.85233e-12
7.85236e-12
7.85238e-12
7.8524e-12
7.85242e-12
7.85244e-12
7.85246e-12
7.85247e-12
7.85248e-12
7.85249e-12
7.8525e-12
7.85251e-12
7.85251e-12
7.8525e-12
7.85249e-12
7.85248e-12
7.85247e-12
7.85245e-12
7.85243e-12
7.85241e-12
7.85238e-12
7.85236e-12
7.85234e-12
7.85231e-12
7.85229e-12
7.85226e-12
7.85224e-12
7.85221e-12
7.85219e-12
7.85217e-12
7.85215e-12
7.85213e-12
7.85211e-12
7.85208e-12
7.85206e-12
7.85205e-12
7.85203e-12
7.85201e-12
7.85199e-12
7.85197e-12
7.85196e-12
7.85194e-12
7.85192e-12
7.85191e-12
7.85189e-12
7.85187e-12
7.85185e-12
7.85183e-12
7.85181e-12
7.85179e-12
7.85177e-12
7.85174e-12
7.85172e-12
7.85168e-12
7.85164e-12
7.85162e-12
7.85162e-12
7.85163e-12
7.85164e-12
7.85165e-12
7.85166e-12
7.85168e-12
7.85169e-12
7.8517e-12
7.85171e-12
7.85172e-12
7.85172e-12
7.85171e-12
7.85169e-12
7.85166e-12
1.45684e-09
1.45681e-09
1.45678e-09
1.45674e-09
1.45672e-09
1.45671e-09
1.4567e-09
1.4567e-09
1.45669e-09
1.45669e-09
1.45669e-09
1.4567e-09
1.4567e-09
1.45671e-09
1.45672e-09
1.45672e-09
1.45673e-09
1.45674e-09
1.45675e-09
1.45676e-09
1.45677e-09
1.45678e-09
1.45679e-09
1.4568e-09
1.45681e-09
1.45683e-09
1.45684e-09
1.45685e-09
1.45686e-09
1.45686e-09
1.45687e-09
1.45688e-09
1.45689e-09
1.4569e-09
1.45691e-09
1.45692e-09
1.45693e-09
1.45694e-09
1.45694e-09
1.45695e-09
1.45696e-09
1.45696e-09
1.45697e-09
1.45697e-09
1.45697e-09
1.45697e-09
1.45697e-09
1.45698e-09
1.45698e-09
1.45699e-09
1.45699e-09
1.457e-09
1.457e-09
1.45701e-09
1.45701e-09
1.45702e-09
1.45702e-09
1.45702e-09
1.45702e-09
1.45703e-09
1.45703e-09
1.45703e-09
1.45703e-09
1.45703e-09
1.45702e-09
1.45702e-09
1.45702e-09
1.45702e-09
1.45701e-09
1.45701e-09
1.457e-09
1.457e-09
1.457e-09
1.45699e-09
1.45699e-09
1.45698e-09
1.45698e-09
1.45697e-09
1.45697e-09
1.45696e-09
1.45696e-09
1.45696e-09
1.45695e-09
1.45695e-09
1.45695e-09
1.45694e-09
1.45694e-09
1.45693e-09
1.45693e-09
1.45693e-09
1.45693e-09
1.45692e-09
1.45692e-09
1.45692e-09
1.45691e-09
1.45691e-09
1.45691e-09
1.4569e-09
1.4569e-09
1.45689e-09
1.45689e-09
1.45689e-09
1.45688e-09
1.45687e-09
1.45687e-09
1.45686e-09
1.45686e-09
1.45686e-09
1.45687e-09
1.45687e-09
1.45687e-09
1.45687e-09
1.45688e-09
1.45688e-09
1.45688e-09
1.45688e-09
1.45688e-09
1.45688e-09
1.45688e-09
1.45687e-09
3.11198e-08
3.11191e-08
3.11183e-08
3.11176e-08
3.11172e-08
3.11169e-08
3.11168e-08
3.11166e-08
3.11165e-08
3.11164e-08
3.11164e-08
3.11166e-08
3.11167e-08
3.11169e-08
3.1117e-08
3.11172e-08
3.11174e-08
3.11176e-08
3.11178e-08
3.1118e-08
3.11182e-08
3.11185e-08
3.11187e-08
3.11189e-08
3.11191e-08
3.11193e-08
3.11196e-08
3.11198e-08
3.112e-08
3.11202e-08
3.11204e-08
3.11206e-08
3.11208e-08
3.1121e-08
3.11212e-08
3.11213e-08
3.11215e-08
3.11217e-08
3.11219e-08
3.1122e-08
3.11222e-08
3.11223e-08
3.11224e-08
3.11225e-08
3.11225e-08
3.11224e-08
3.11225e-08
3.11226e-08
3.11227e-08
3.11228e-08
3.11229e-08
3.1123e-08
3.11231e-08
3.11232e-08
3.11233e-08
3.11234e-08
3.11234e-08
3.11235e-08
3.11235e-08
3.11236e-08
3.11236e-08
3.11236e-08
3.11236e-08
3.11236e-08
3.11236e-08
3.11235e-08
3.11235e-08
3.11234e-08
3.11233e-08
3.11232e-08
3.11231e-08
3.1123e-08
3.11229e-08
3.11228e-08
3.11228e-08
3.11227e-08
3.11226e-08
3.11225e-08
3.11224e-08
3.11223e-08
3.11222e-08
3.11221e-08
3.1122e-08
3.1122e-08
3.11219e-08
3.11218e-08
3.11217e-08
3.11216e-08
3.11216e-08
3.11215e-08
3.11215e-08
3.11214e-08
3.11213e-08
3.11213e-08
3.11212e-08
3.11211e-08
3.1121e-08
3.1121e-08
3.11209e-08
3.11208e-08
3.11207e-08
3.11206e-08
3.11205e-08
3.11204e-08
3.11202e-08
3.11201e-08
3.11201e-08
3.11202e-08
3.11202e-08
3.11203e-08
3.11203e-08
3.11204e-08
3.11204e-08
3.11205e-08
3.11205e-08
3.11205e-08
3.11205e-08
3.11205e-08
3.11204e-08
3.11203e-08
2.37136e-07
2.37131e-07
2.37126e-07
2.3712e-07
2.37117e-07
2.37115e-07
2.37114e-07
2.37113e-07
2.37112e-07
2.37112e-07
2.37112e-07
2.37113e-07
2.37114e-07
2.37115e-07
2.37117e-07
2.37118e-07
2.37119e-07
2.37121e-07
2.37122e-07
2.37124e-07
2.37126e-07
2.37127e-07
2.37129e-07
2.3713e-07
2.37132e-07
2.37134e-07
2.37136e-07
2.37137e-07
2.37139e-07
2.3714e-07
2.37142e-07
2.37143e-07
2.37145e-07
2.37146e-07
2.37147e-07
2.37149e-07
2.3715e-07
2.37151e-07
2.37153e-07
2.37154e-07
2.37155e-07
2.37156e-07
2.37156e-07
2.37157e-07
2.37157e-07
2.37157e-07
2.37157e-07
2.37158e-07
2.37159e-07
2.3716e-07
2.37161e-07
2.37161e-07
2.37162e-07
2.37163e-07
2.37163e-07
2.37164e-07
2.37164e-07
2.37165e-07
2.37165e-07
2.37165e-07
2.37166e-07
2.37166e-07
2.37166e-07
2.37165e-07
2.37165e-07
2.37165e-07
2.37164e-07
2.37164e-07
2.37163e-07
2.37163e-07
2.37162e-07
2.37161e-07
2.3716e-07
2.3716e-07
2.37159e-07
2.37158e-07
2.37157e-07
2.37157e-07
2.37156e-07
2.37155e-07
2.37155e-07
2.37154e-07
2.37154e-07
2.37153e-07
2.37152e-07
2.37152e-07
2.37151e-07
2.37151e-07
2.3715e-07
2.3715e-07
2.37149e-07
2.37149e-07
2.37148e-07
2.37148e-07
2.37147e-07
2.37147e-07
2.37146e-07
2.37145e-07
2.37145e-07
2.37144e-07
2.37144e-07
2.37143e-07
2.37142e-07
2.37141e-07
2.3714e-07
2.37139e-07
2.37139e-07
2.3714e-07
2.3714e-07
2.3714e-07
2.37141e-07
2.37141e-07
2.37142e-07
2.37142e-07
2.37142e-07
2.37142e-07
2.37142e-07
2.37142e-07
2.37142e-07
2.37141e-07
9.98467e-07
9.98448e-07
9.98427e-07
9.98407e-07
9.98394e-07
9.98386e-07
9.98383e-07
9.9838e-07
9.98377e-07
9.98375e-07
9.98376e-07
9.98379e-07
9.98385e-07
9.9839e-07
9.98395e-07
9.984e-07
9.98405e-07
9.98412e-07
9.98418e-07
9.98426e-07
9.98433e-07
9.98439e-07
9.98446e-07
9.98452e-07
9.98459e-07
9.98466e-07
9.98473e-07
9.98479e-07
9.98485e-07
9.98491e-07
9.98498e-07
9.98504e-07
9.98509e-07
9.98515e-07
9.98521e-07
9.98526e-07
9.98531e-07
9.98536e-07
9.98541e-07
9.98545e-07
9.98549e-07
9.98553e-07
9.98556e-07
9.98558e-07
9.98558e-07
9.98557e-07
9.98559e-07
9.98562e-07
9.98566e-07
9.98569e-07
9.98573e-07
9.98576e-07
9.98579e-07
9.98582e-07
9.98584e-07
9.98586e-07
9.98588e-07
9.98589e-07
9.98591e-07
9.98592e-07
9.98592e-07
9.98593e-07
9.98592e-07
9.98592e-07
9.9859e-07
9.98589e-07
9.98587e-07
9.98585e-07
9.98582e-07
9.98579e-07
9.98576e-07
9.98573e-07
9.9857e-07
9.98567e-07
9.98564e-07
9.98561e-07
9.98558e-07
9.98555e-07
9.98552e-07
9.9855e-07
9.98547e-07
9.98544e-07
9.98542e-07
9.98539e-07
9.98537e-07
9.98535e-07
9.98532e-07
9.9853e-07
9.98528e-07
9.98526e-07
9.98524e-07
9.98522e-07
9.9852e-07
9.98518e-07
9.98516e-07
9.98513e-07
9.98511e-07
9.98509e-07
9.98506e-07
9.98504e-07
9.98501e-07
9.98498e-07
9.98495e-07
9.98491e-07
9.98486e-07
9.98484e-07
9.98485e-07
9.98486e-07
9.98488e-07
9.9849e-07
9.98491e-07
9.98493e-07
9.98494e-07
9.98496e-07
9.98497e-07
9.98498e-07
9.98498e-07
9.98497e-07
9.98495e-07
9.98493e-07
2.81802e-06
2.81797e-06
2.81792e-06
2.81788e-06
2.81784e-06
2.81783e-06
2.81782e-06
2.81781e-06
2.81781e-06
2.8178e-06
2.81781e-06
2.81782e-06
2.81783e-06
2.81785e-06
2.81786e-06
2.81788e-06
2.81789e-06
2.81791e-06
2.81793e-06
2.81795e-06
2.81796e-06
2.81798e-06
2.818e-06
2.81802e-06
2.81804e-06
2.81805e-06
2.81807e-06
2.81809e-06
2.81811e-06
2.81812e-06
2.81814e-06
2.81815e-06
2.81817e-06
2.81818e-06
2.8182e-06
2.81821e-06
2.81823e-06
2.81824e-06
2.81825e-06
2.81826e-06
2.81827e-06
2.81828e-06
2.81829e-06
2.81829e-06
2.81829e-06
2.81829e-06
2.8183e-06
2.8183e-06
2.81831e-06
2.81832e-06
2.81833e-06
2.81834e-06
2.81835e-06
2.81836e-06
2.81836e-06
2.81837e-06
2.81837e-06
2.81838e-06
2.81838e-06
2.81838e-06
2.81838e-06
2.81838e-06
2.81838e-06
2.81838e-06
2.81838e-06
2.81837e-06
2.81837e-06
2.81836e-06
2.81835e-06
2.81834e-06
2.81834e-06
2.81833e-06
2.81832e-06
2.81831e-06
2.8183e-06
2.8183e-06
2.81829e-06
2.81828e-06
2.81827e-06
2.81826e-06
2.81826e-06
2.81825e-06
2.81824e-06
2.81824e-06
2.81823e-06
2.81822e-06
2.81822e-06
2.81821e-06
2.81821e-06
2.8182e-06
2.81819e-06
2.81819e-06
2.81818e-06
2.81818e-06
2.81817e-06
2.81817e-06
2.81816e-06
2.81815e-06
2.81815e-06
2.81814e-06
2.81813e-06
2.81812e-06
2.81812e-06
2.81811e-06
2.81809e-06
2.81809e-06
2.81809e-06
2.81809e-06
2.8181e-06
2.81811e-06
2.81811e-06
2.81812e-06
2.81812e-06
2.81812e-06
2.81813e-06
2.81813e-06
2.81813e-06
2.81813e-06
2.81812e-06
2.81812e-06
5.98977e-06
5.98967e-06
5.98959e-06
5.98952e-06
5.98946e-06
5.98944e-06
5.98943e-06
5.98943e-06
5.98942e-06
5.98942e-06
5.98942e-06
5.98944e-06
5.98947e-06
5.98951e-06
5.98954e-06
5.98957e-06
5.9896e-06
5.98963e-06
5.98967e-06
5.98971e-06
5.98975e-06
5.98979e-06
5.98982e-06
5.98986e-06
5.98989e-06
5.98993e-06
5.98997e-06
5.99e-06
5.99003e-06
5.99007e-06
5.9901e-06
5.99013e-06
5.99016e-06
5.99019e-06
5.99022e-06
5.99024e-06
5.99027e-06
5.9903e-06
5.99032e-06
5.99034e-06
5.99036e-06
5.99038e-06
5.99039e-06
5.9904e-06
5.9904e-06
5.9904e-06
5.9904e-06
5.99042e-06
5.99044e-06
5.99046e-06
5.99048e-06
5.9905e-06
5.99051e-06
5.99053e-06
5.99054e-06
5.99055e-06
5.99056e-06
5.99056e-06
5.99057e-06
5.99057e-06
5.99058e-06
5.99058e-06
5.99057e-06
5.99057e-06
5.99056e-06
5.99055e-06
5.99054e-06
5.99052e-06
5.99051e-06
5.99049e-06
5.99047e-06
5.99046e-06
5.99044e-06
5.99042e-06
5.99041e-06
5.99039e-06
5.99037e-06
5.99036e-06
5.99034e-06
5.99033e-06
5.99031e-06
5.9903e-06
5.99028e-06
5.99027e-06
5.99026e-06
5.99024e-06
5.99023e-06
5.99022e-06
5.99021e-06
5.99019e-06
5.99018e-06
5.99017e-06
5.99016e-06
5.99015e-06
5.99014e-06
5.99013e-06
5.99011e-06
5.9901e-06
5.99009e-06
5.99007e-06
5.99006e-06
5.99004e-06
5.99003e-06
5.99e-06
5.98998e-06
5.98997e-06
5.98997e-06
5.98998e-06
5.99e-06
5.99001e-06
5.99002e-06
5.99003e-06
5.99004e-06
5.99005e-06
5.99006e-06
5.99006e-06
5.99006e-06
5.99006e-06
5.99004e-06
5.99006e-06
1.04588e-05
1.04586e-05
1.04585e-05
1.04584e-05
1.04583e-05
1.04583e-05
1.04583e-05
1.04583e-05
1.04583e-05
1.04583e-05
1.04583e-05
1.04583e-05
1.04584e-05
1.04584e-05
1.04585e-05
1.04586e-05
1.04586e-05
1.04587e-05
1.04587e-05
1.04588e-05
1.04589e-05
1.04589e-05
1.0459e-05
1.0459e-05
1.04591e-05
1.04592e-05
1.04592e-05
1.04593e-05
1.04593e-05
1.04594e-05
1.04594e-05
1.04595e-05
1.04595e-05
1.04596e-05
1.04596e-05
1.04597e-05
1.04597e-05
1.04598e-05
1.04598e-05
1.04598e-05
1.04599e-05
1.04599e-05
1.04599e-05
1.04599e-05
1.04599e-05
1.04599e-05
1.04599e-05
1.046e-05
1.046e-05
1.046e-05
1.04601e-05
1.04601e-05
1.04601e-05
1.04601e-05
1.04602e-05
1.04602e-05
1.04602e-05
1.04602e-05
1.04602e-05
1.04602e-05
1.04602e-05
1.04602e-05
1.04602e-05
1.04602e-05
1.04602e-05
1.04602e-05
1.04601e-05
1.04601e-05
1.04601e-05
1.04601e-05
1.046e-05
1.046e-05
1.046e-05
1.046e-05
1.04599e-05
1.04599e-05
1.04599e-05
1.04598e-05
1.04598e-05
1.04598e-05
1.04598e-05
1.04597e-05
1.04597e-05
1.04597e-05
1.04597e-05
1.04596e-05
1.04596e-05
1.04596e-05
1.04596e-05
1.04596e-05
1.04596e-05
1.04595e-05
1.04595e-05
1.04595e-05
1.04595e-05
1.04595e-05
1.04594e-05
1.04594e-05
1.04594e-05
1.04594e-05
1.04593e-05
1.04593e-05
1.04593e-05
1.04593e-05
1.04592e-05
1.04592e-05
1.04592e-05
1.04592e-05
1.04592e-05
1.04593e-05
1.04593e-05
1.04593e-05
1.04593e-05
1.04593e-05
1.04593e-05
1.04594e-05
1.04594e-05
1.04594e-05
1.04593e-05
1.04594e-05
1.59903e-05
1.599e-05
1.59898e-05
1.59897e-05
1.59897e-05
1.59897e-05
1.59897e-05
1.59897e-05
1.59897e-05
1.59898e-05
1.59898e-05
1.59898e-05
1.59899e-05
1.599e-05
1.59901e-05
1.59902e-05
1.59903e-05
1.59903e-05
1.59904e-05
1.59905e-05
1.59906e-05
1.59907e-05
1.59908e-05
1.59909e-05
1.5991e-05
1.59911e-05
1.59912e-05
1.59913e-05
1.59914e-05
1.59914e-05
1.59915e-05
1.59916e-05
1.59917e-05
1.59917e-05
1.59918e-05
1.59919e-05
1.59919e-05
1.5992e-05
1.59921e-05
1.59921e-05
1.59922e-05
1.59922e-05
1.59922e-05
1.59923e-05
1.59923e-05
1.59922e-05
1.59922e-05
1.59923e-05
1.59923e-05
1.59923e-05
1.59924e-05
1.59924e-05
1.59925e-05
1.59925e-05
1.59926e-05
1.59926e-05
1.59926e-05
1.59926e-05
1.59926e-05
1.59926e-05
1.59926e-05
1.59926e-05
1.59926e-05
1.59926e-05
1.59926e-05
1.59926e-05
1.59925e-05
1.59925e-05
1.59925e-05
1.59924e-05
1.59924e-05
1.59923e-05
1.59923e-05
1.59922e-05
1.59922e-05
1.59922e-05
1.59921e-05
1.59921e-05
1.5992e-05
1.5992e-05
1.5992e-05
1.59919e-05
1.59919e-05
1.59918e-05
1.59918e-05
1.59918e-05
1.59917e-05
1.59917e-05
1.59917e-05
1.59917e-05
1.59916e-05
1.59916e-05
1.59916e-05
1.59915e-05
1.59915e-05
1.59915e-05
1.59914e-05
1.59914e-05
1.59914e-05
1.59913e-05
1.59913e-05
1.59913e-05
1.59912e-05
1.59912e-05
1.59911e-05
1.59911e-05
1.59911e-05
1.59911e-05
1.59912e-05
1.59912e-05
1.59912e-05
1.59913e-05
1.59913e-05
1.59913e-05
1.59913e-05
1.59913e-05
1.59914e-05
1.59914e-05
1.59913e-05
1.59915e-05
2.23465e-05
2.2346e-05
2.23458e-05
2.23457e-05
2.23456e-05
2.23457e-05
2.23457e-05
2.23458e-05
2.23459e-05
2.23459e-05
2.23459e-05
2.2346e-05
2.23461e-05
2.23463e-05
2.23464e-05
2.23465e-05
2.23466e-05
2.23467e-05
2.23469e-05
2.2347e-05
2.23472e-05
2.23473e-05
2.23474e-05
2.23475e-05
2.23477e-05
2.23478e-05
2.23479e-05
2.2348e-05
2.23482e-05
2.23483e-05
2.23484e-05
2.23485e-05
2.23486e-05
2.23487e-05
2.23488e-05
2.23489e-05
2.2349e-05
2.2349e-05
2.23491e-05
2.23492e-05
2.23493e-05
2.23493e-05
2.23494e-05
2.23494e-05
2.23494e-05
2.23494e-05
2.23494e-05
2.23494e-05
2.23495e-05
2.23495e-05
2.23496e-05
2.23496e-05
2.23497e-05
2.23498e-05
2.23498e-05
2.23498e-05
2.23499e-05
2.23499e-05
2.23499e-05
2.23499e-05
2.23499e-05
2.23499e-05
2.23499e-05
2.23499e-05
2.23498e-05
2.23498e-05
2.23498e-05
2.23497e-05
2.23497e-05
2.23496e-05
2.23495e-05
2.23495e-05
2.23494e-05
2.23494e-05
2.23493e-05
2.23492e-05
2.23492e-05
2.23491e-05
2.23491e-05
2.2349e-05
2.2349e-05
2.23489e-05
2.23489e-05
2.23488e-05
2.23488e-05
2.23487e-05
2.23487e-05
2.23486e-05
2.23486e-05
2.23485e-05
2.23485e-05
2.23485e-05
2.23484e-05
2.23484e-05
2.23483e-05
2.23483e-05
2.23483e-05
2.23482e-05
2.23482e-05
2.23481e-05
2.23481e-05
2.2348e-05
2.2348e-05
2.23479e-05
2.23479e-05
2.23478e-05
2.23478e-05
2.23478e-05
2.23479e-05
2.23479e-05
2.23479e-05
2.2348e-05
2.2348e-05
2.23481e-05
2.23481e-05
2.23481e-05
2.23481e-05
2.23482e-05
2.23481e-05
2.23484e-05
2.93451e-05
2.93443e-05
2.93441e-05
2.9344e-05
2.93439e-05
2.9344e-05
2.93441e-05
2.93443e-05
2.93444e-05
2.93444e-05
2.93445e-05
2.93446e-05
2.93448e-05
2.93449e-05
2.93451e-05
2.93453e-05
2.93454e-05
2.93456e-05
2.93458e-05
2.93459e-05
2.93461e-05
2.93463e-05
2.93465e-05
2.93466e-05
2.93468e-05
2.9347e-05
2.93471e-05
2.93473e-05
2.93475e-05
2.93476e-05
2.93477e-05
2.93479e-05
2.9348e-05
2.93482e-05
2.93483e-05
2.93484e-05
2.93485e-05
2.93486e-05
2.93487e-05
2.93488e-05
2.93489e-05
2.9349e-05
2.93491e-05
2.93491e-05
2.93491e-05
2.93491e-05
2.93491e-05
2.93492e-05
2.93492e-05
2.93493e-05
2.93493e-05
2.93494e-05
2.93495e-05
2.93496e-05
2.93496e-05
2.93497e-05
2.93497e-05
2.93498e-05
2.93498e-05
2.93498e-05
2.93498e-05
2.93498e-05
2.93498e-05
2.93497e-05
2.93497e-05
2.93496e-05
2.93496e-05
2.93495e-05
2.93494e-05
2.93493e-05
2.93493e-05
2.93492e-05
2.93491e-05
2.9349e-05
2.9349e-05
2.93489e-05
2.93488e-05
2.93487e-05
2.93487e-05
2.93486e-05
2.93485e-05
2.93484e-05
2.93484e-05
2.93483e-05
2.93483e-05
2.93482e-05
2.93481e-05
2.93481e-05
2.9348e-05
2.9348e-05
2.93479e-05
2.93479e-05
2.93478e-05
2.93477e-05
2.93477e-05
2.93476e-05
2.93476e-05
2.93475e-05
2.93475e-05
2.93474e-05
2.93474e-05
2.93473e-05
2.93473e-05
2.93472e-05
2.93471e-05
2.9347e-05
2.9347e-05
2.9347e-05
2.93471e-05
2.93471e-05
2.93472e-05
2.93472e-05
2.93473e-05
2.93473e-05
2.93474e-05
2.93474e-05
2.93474e-05
2.93475e-05
2.93473e-05
2.93478e-05
3.68571e-05
3.6856e-05
3.68557e-05
3.68556e-05
3.68555e-05
3.68557e-05
3.68559e-05
3.6856e-05
3.68562e-05
3.68563e-05
3.68564e-05
3.68565e-05
3.68568e-05
3.6857e-05
3.68572e-05
3.68574e-05
3.68576e-05
3.68578e-05
3.6858e-05
3.68583e-05
3.68585e-05
3.68587e-05
3.6859e-05
3.68592e-05
3.68594e-05
3.68596e-05
3.68598e-05
3.686e-05
3.68602e-05
3.68604e-05
3.68606e-05
3.68608e-05
3.68609e-05
3.68611e-05
3.68613e-05
3.68614e-05
3.68616e-05
3.68617e-05
3.68619e-05
3.6862e-05
3.68621e-05
3.68622e-05
3.68623e-05
3.68624e-05
3.68624e-05
3.68624e-05
3.68624e-05
3.68624e-05
3.68625e-05
3.68625e-05
3.68626e-05
3.68627e-05
3.68628e-05
3.68629e-05
3.6863e-05
3.68631e-05
3.68631e-05
3.68632e-05
3.68632e-05
3.68632e-05
3.68632e-05
3.68632e-05
3.68631e-05
3.68631e-05
3.6863e-05
3.6863e-05
3.68629e-05
3.68628e-05
3.68627e-05
3.68626e-05
3.68625e-05
3.68624e-05
3.68623e-05
3.68622e-05
3.68621e-05
3.6862e-05
3.68619e-05
3.68618e-05
3.68617e-05
3.68617e-05
3.68616e-05
3.68615e-05
3.68614e-05
3.68613e-05
3.68612e-05
3.68612e-05
3.68611e-05
3.6861e-05
3.68609e-05
3.68609e-05
3.68608e-05
3.68607e-05
3.68607e-05
3.68606e-05
3.68605e-05
3.68604e-05
3.68604e-05
3.68603e-05
3.68602e-05
3.68602e-05
3.68601e-05
3.68601e-05
3.686e-05
3.68599e-05
3.68598e-05
3.68597e-05
3.68597e-05
3.68597e-05
3.68597e-05
3.68598e-05
3.68599e-05
3.68599e-05
3.686e-05
3.68601e-05
3.68601e-05
3.68602e-05
3.68602e-05
3.68603e-05
3.68601e-05
3.68608e-05
4.47918e-05
4.47904e-05
4.47899e-05
4.47898e-05
4.47898e-05
4.47899e-05
4.47902e-05
4.47905e-05
4.47907e-05
4.47908e-05
4.4791e-05
4.47912e-05
4.47914e-05
4.47917e-05
4.4792e-05
4.47923e-05
4.47925e-05
4.47928e-05
4.4793e-05
4.47933e-05
4.47936e-05
4.47939e-05
4.47942e-05
4.47944e-05
4.47947e-05
4.4795e-05
4.47952e-05
4.47955e-05
4.47957e-05
4.4796e-05
4.47962e-05
4.47964e-05
4.47966e-05
4.47969e-05
4.47971e-05
4.47973e-05
4.47974e-05
4.47976e-05
4.47978e-05
4.4798e-05
4.47981e-05
4.47983e-05
4.47984e-05
4.47985e-05
4.47985e-05
4.47985e-05
4.47985e-05
4.47986e-05
4.47986e-05
4.47987e-05
4.47988e-05
4.47989e-05
4.4799e-05
4.47991e-05
4.47992e-05
4.47993e-05
4.47994e-05
4.47994e-05
4.47994e-05
4.47994e-05
4.47994e-05
4.47994e-05
4.47994e-05
4.47993e-05
4.47992e-05
4.47991e-05
4.4799e-05
4.47989e-05
4.47988e-05
4.47987e-05
4.47986e-05
4.47985e-05
4.47983e-05
4.47982e-05
4.47981e-05
4.4798e-05
4.47979e-05
4.47978e-05
4.47976e-05
4.47975e-05
4.47974e-05
4.47973e-05
4.47972e-05
4.47971e-05
4.4797e-05
4.47969e-05
4.47968e-05
4.47967e-05
4.47966e-05
4.47965e-05
4.47965e-05
4.47964e-05
4.47963e-05
4.47962e-05
4.47961e-05
4.4796e-05
4.47959e-05
4.47959e-05
4.47958e-05
4.47957e-05
4.47957e-05
4.47956e-05
4.47955e-05
4.47955e-05
4.47953e-05
4.47952e-05
4.47952e-05
4.47952e-05
4.47952e-05
4.47953e-05
4.47954e-05
4.47954e-05
4.47955e-05
4.47956e-05
4.47957e-05
4.47957e-05
4.47958e-05
4.47959e-05
4.47957e-05
4.47966e-05
5.30843e-05
5.30825e-05
5.3082e-05
5.30818e-05
5.30818e-05
5.3082e-05
5.30824e-05
5.30827e-05
5.3083e-05
5.30832e-05
5.30834e-05
5.30836e-05
5.30839e-05
5.30843e-05
5.30847e-05
5.3085e-05
5.30853e-05
5.30856e-05
5.30859e-05
5.30863e-05
5.30866e-05
5.3087e-05
5.30873e-05
5.30876e-05
5.30879e-05
5.30882e-05
5.30886e-05
5.30889e-05
5.30892e-05
5.30895e-05
5.30897e-05
5.309e-05
5.30903e-05
5.30905e-05
5.30908e-05
5.3091e-05
5.30913e-05
5.30915e-05
5.30917e-05
5.30919e-05
5.30921e-05
5.30923e-05
5.30924e-05
5.30925e-05
5.30926e-05
5.30926e-05
5.30927e-05
5.30927e-05
5.30928e-05
5.30928e-05
5.30929e-05
5.30931e-05
5.30932e-05
5.30933e-05
5.30934e-05
5.30935e-05
5.30936e-05
5.30936e-05
5.30937e-05
5.30937e-05
5.30937e-05
5.30936e-05
5.30936e-05
5.30935e-05
5.30934e-05
5.30933e-05
5.30931e-05
5.3093e-05
5.30929e-05
5.30927e-05
5.30926e-05
5.30925e-05
5.30923e-05
5.30922e-05
5.3092e-05
5.30919e-05
5.30918e-05
5.30916e-05
5.30915e-05
5.30914e-05
5.30912e-05
5.30911e-05
5.3091e-05
5.30909e-05
5.30907e-05
5.30906e-05
5.30905e-05
5.30904e-05
5.30903e-05
5.30902e-05
5.30901e-05
5.30899e-05
5.30898e-05
5.30897e-05
5.30896e-05
5.30895e-05
5.30894e-05
5.30893e-05
5.30893e-05
5.30892e-05
5.30891e-05
5.30891e-05
5.3089e-05
5.30889e-05
5.30888e-05
5.30887e-05
5.30887e-05
5.30887e-05
5.30887e-05
5.30887e-05
5.30888e-05
5.30889e-05
5.3089e-05
5.30891e-05
5.30892e-05
5.30893e-05
5.30893e-05
5.30894e-05
5.30892e-05
5.30904e-05
6.16872e-05
6.16851e-05
6.16845e-05
6.16843e-05
6.16843e-05
6.16845e-05
6.16849e-05
6.16853e-05
6.16857e-05
6.16859e-05
6.16862e-05
6.16865e-05
6.16869e-05
6.16873e-05
6.16877e-05
6.16881e-05
6.16885e-05
6.16888e-05
6.16892e-05
6.16896e-05
6.16901e-05
6.16905e-05
6.16909e-05
6.16912e-05
6.16916e-05
6.1692e-05
6.16924e-05
6.16927e-05
6.16931e-05
6.16934e-05
6.16938e-05
6.16941e-05
6.16944e-05
6.16947e-05
6.1695e-05
6.16953e-05
6.16956e-05
6.16959e-05
6.16961e-05
6.16964e-05
6.16966e-05
6.16968e-05
6.1697e-05
6.16971e-05
6.16973e-05
6.16973e-05
6.16973e-05
6.16974e-05
6.16975e-05
6.16976e-05
6.16977e-05
6.16978e-05
6.16979e-05
6.16981e-05
6.16982e-05
6.16983e-05
6.16984e-05
6.16985e-05
6.16985e-05
6.16985e-05
6.16984e-05
6.16984e-05
6.16983e-05
6.16982e-05
6.16981e-05
6.16979e-05
6.16978e-05
6.16976e-05
6.16975e-05
6.16973e-05
6.16971e-05
6.1697e-05
6.16968e-05
6.16966e-05
6.16965e-05
6.16963e-05
6.16961e-05
6.1696e-05
6.16958e-05
6.16957e-05
6.16955e-05
6.16954e-05
6.16952e-05
6.16951e-05
6.16949e-05
6.16948e-05
6.16947e-05
6.16945e-05
6.16944e-05
6.16943e-05
6.16941e-05
6.1694e-05
6.16939e-05
6.16937e-05
6.16936e-05
6.16935e-05
6.16934e-05
6.16933e-05
6.16932e-05
6.16931e-05
6.16931e-05
6.1693e-05
6.1693e-05
6.16929e-05
6.16928e-05
6.16927e-05
6.16927e-05
6.16927e-05
6.16927e-05
6.16927e-05
6.16928e-05
6.16929e-05
6.1693e-05
6.16931e-05
6.16932e-05
6.16933e-05
6.16934e-05
6.16935e-05
6.16932e-05
6.16948e-05
7.05652e-05
7.05628e-05
7.05621e-05
7.05618e-05
7.05618e-05
7.05621e-05
7.05625e-05
7.0563e-05
7.05634e-05
7.05637e-05
7.05641e-05
7.05644e-05
7.05649e-05
7.05654e-05
7.05659e-05
7.05663e-05
7.05668e-05
7.05672e-05
7.05676e-05
7.05681e-05
7.05686e-05
7.05691e-05
7.05695e-05
7.057e-05
7.05704e-05
7.05708e-05
7.05713e-05
7.05717e-05
7.05721e-05
7.05725e-05
7.05729e-05
7.05733e-05
7.05737e-05
7.05741e-05
7.05744e-05
7.05747e-05
7.05751e-05
7.05754e-05
7.05757e-05
7.0576e-05
7.05763e-05
7.05765e-05
7.05767e-05
7.05769e-05
7.05771e-05
7.05772e-05
7.05772e-05
7.05773e-05
7.05774e-05
7.05775e-05
7.05776e-05
7.05778e-05
7.05779e-05
7.05781e-05
7.05782e-05
7.05783e-05
7.05784e-05
7.05784e-05
7.05784e-05
7.05784e-05
7.05784e-05
7.05783e-05
7.05781e-05
7.0578e-05
7.05779e-05
7.05777e-05
7.05775e-05
7.05773e-05
7.05771e-05
7.05769e-05
7.05767e-05
7.05766e-05
7.05764e-05
7.05762e-05
7.0576e-05
7.05758e-05
7.05756e-05
7.05754e-05
7.05752e-05
7.0575e-05
7.05749e-05
7.05747e-05
7.05745e-05
7.05744e-05
7.05742e-05
7.05741e-05
7.05739e-05
7.05737e-05
7.05736e-05
7.05734e-05
7.05733e-05
7.05731e-05
7.0573e-05
7.05728e-05
7.05727e-05
7.05725e-05
7.05724e-05
7.05723e-05
7.05723e-05
7.05722e-05
7.05722e-05
7.05721e-05
7.05721e-05
7.05721e-05
7.0572e-05
7.05719e-05
7.05718e-05
7.05718e-05
7.05719e-05
7.05719e-05
7.0572e-05
7.05721e-05
7.05722e-05
7.05723e-05
7.05724e-05
7.05726e-05
7.05726e-05
7.05728e-05
7.05724e-05
7.05743e-05
7.96916e-05
7.96888e-05
7.9688e-05
7.96877e-05
7.96878e-05
7.96881e-05
7.96885e-05
7.96891e-05
7.96895e-05
7.96899e-05
7.96903e-05
7.96907e-05
7.96913e-05
7.96918e-05
7.96924e-05
7.96929e-05
7.96934e-05
7.96939e-05
7.96944e-05
7.9695e-05
7.96955e-05
7.96961e-05
7.96966e-05
7.96971e-05
7.96976e-05
7.96981e-05
7.96986e-05
7.96991e-05
7.96996e-05
7.97001e-05
7.97005e-05
7.97009e-05
7.97014e-05
7.97018e-05
7.97022e-05
7.97026e-05
7.9703e-05
7.97034e-05
7.97037e-05
7.9704e-05
7.97044e-05
7.97047e-05
7.97049e-05
7.97052e-05
7.97054e-05
7.97055e-05
7.97056e-05
7.97057e-05
7.97058e-05
7.97059e-05
7.97061e-05
7.97062e-05
7.97064e-05
7.97066e-05
7.97067e-05
7.97068e-05
7.97068e-05
7.97069e-05
7.97068e-05
7.97068e-05
7.97067e-05
7.97065e-05
7.97064e-05
7.97062e-05
7.9706e-05
7.97058e-05
7.97056e-05
7.97054e-05
7.97052e-05
7.97049e-05
7.97047e-05
7.97045e-05
7.97043e-05
7.9704e-05
7.97038e-05
7.97036e-05
7.97034e-05
7.97032e-05
7.9703e-05
7.97028e-05
7.97026e-05
7.97024e-05
7.97022e-05
7.9702e-05
7.97018e-05
7.97016e-05
7.97014e-05
7.97013e-05
7.97011e-05
7.97009e-05
7.97007e-05
7.97005e-05
7.97004e-05
7.97002e-05
7.97e-05
7.96999e-05
7.96998e-05
7.96997e-05
7.96997e-05
7.96996e-05
7.96996e-05
7.96996e-05
7.96996e-05
7.96996e-05
7.96995e-05
7.96995e-05
7.96994e-05
7.96994e-05
7.96995e-05
7.96996e-05
7.96996e-05
7.96998e-05
7.96999e-05
7.97e-05
7.97001e-05
7.97003e-05
7.97003e-05
7.97005e-05
7.97001e-05
7.97024e-05
8.90461e-05
8.90429e-05
8.9042e-05
8.90418e-05
8.90418e-05
8.90421e-05
8.90427e-05
8.90432e-05
8.90438e-05
8.90442e-05
8.90447e-05
8.90451e-05
8.90457e-05
8.90464e-05
8.9047e-05
8.90476e-05
8.90482e-05
8.90488e-05
8.90493e-05
8.90499e-05
8.90506e-05
8.90512e-05
8.90518e-05
8.90524e-05
8.90529e-05
8.90535e-05
8.90541e-05
8.90546e-05
8.90552e-05
8.90557e-05
8.90562e-05
8.90567e-05
8.90572e-05
8.90577e-05
8.90582e-05
8.90586e-05
8.9059e-05
8.90595e-05
8.90599e-05
8.90603e-05
8.90606e-05
8.9061e-05
8.90613e-05
8.90616e-05
8.90618e-05
8.9062e-05
8.90621e-05
8.90622e-05
8.90624e-05
8.90625e-05
8.90627e-05
8.90629e-05
8.9063e-05
8.90632e-05
8.90633e-05
8.90634e-05
8.90634e-05
8.90634e-05
8.90633e-05
8.90632e-05
8.9063e-05
8.90629e-05
8.90627e-05
8.90624e-05
8.90622e-05
8.9062e-05
8.90617e-05
8.90614e-05
8.90612e-05
8.90609e-05
8.90607e-05
8.90604e-05
8.90601e-05
8.90599e-05
8.90596e-05
8.90594e-05
8.90592e-05
8.90589e-05
8.90587e-05
8.90585e-05
8.90582e-05
8.9058e-05
8.90578e-05
8.90576e-05
8.90574e-05
8.90572e-05
8.9057e-05
8.90568e-05
8.90565e-05
8.90563e-05
8.90561e-05
8.90559e-05
8.90557e-05
8.90556e-05
8.90554e-05
8.90553e-05
8.90552e-05
8.90551e-05
8.90551e-05
8.90551e-05
8.90551e-05
8.90552e-05
8.90552e-05
8.90552e-05
8.90552e-05
8.90551e-05
8.90551e-05
8.90552e-05
8.90552e-05
8.90553e-05
8.90554e-05
8.90555e-05
8.90557e-05
8.90558e-05
8.9056e-05
8.90561e-05
8.90562e-05
8.90564e-05
8.9056e-05
8.90586e-05
9.86133e-05
9.86097e-05
9.86088e-05
9.86085e-05
9.86086e-05
9.86089e-05
9.86095e-05
9.86102e-05
9.86107e-05
9.86112e-05
9.86117e-05
9.86123e-05
9.8613e-05
9.86137e-05
9.86144e-05
9.86151e-05
9.86157e-05
9.86163e-05
9.8617e-05
9.86177e-05
9.86184e-05
9.86191e-05
9.86197e-05
9.86204e-05
9.8621e-05
9.86216e-05
9.86223e-05
9.86229e-05
9.86235e-05
9.86241e-05
9.86247e-05
9.86252e-05
9.86258e-05
9.86263e-05
9.86269e-05
9.86274e-05
9.86279e-05
9.86283e-05
9.86288e-05
9.86292e-05
9.86297e-05
9.86301e-05
9.86304e-05
9.86308e-05
9.86311e-05
9.86312e-05
9.86314e-05
9.86315e-05
9.86317e-05
9.86319e-05
9.86321e-05
9.86323e-05
9.86325e-05
9.86326e-05
9.86327e-05
9.86327e-05
9.86327e-05
9.86326e-05
9.86325e-05
9.86323e-05
9.8632e-05
9.86318e-05
9.86315e-05
9.86313e-05
9.8631e-05
9.86307e-05
9.86304e-05
9.86301e-05
9.86298e-05
9.86295e-05
9.86292e-05
9.86289e-05
9.86286e-05
9.86283e-05
9.8628e-05
9.86277e-05
9.86275e-05
9.86272e-05
9.86269e-05
9.86267e-05
9.86264e-05
9.86262e-05
9.86259e-05
9.86257e-05
9.86255e-05
9.86252e-05
9.8625e-05
9.86248e-05
9.86245e-05
9.86243e-05
9.86241e-05
9.86238e-05
9.86236e-05
9.86235e-05
9.86233e-05
9.86232e-05
9.86232e-05
9.86232e-05
9.86232e-05
9.86232e-05
9.86233e-05
9.86234e-05
9.86235e-05
9.86236e-05
9.86236e-05
9.86236e-05
9.86236e-05
9.86237e-05
9.86237e-05
9.86238e-05
9.8624e-05
9.86241e-05
9.86243e-05
9.86244e-05
9.86246e-05
9.86247e-05
9.86248e-05
9.86251e-05
9.86246e-05
9.86276e-05
0.000108382
0.000108378
0.000108377
0.000108377
0.000108377
0.000108377
0.000108378
0.000108378
0.000108379
0.00010838
0.00010838
0.000108381
0.000108381
0.000108382
0.000108383
0.000108384
0.000108385
0.000108385
0.000108386
0.000108387
0.000108387
0.000108388
0.000108389
0.00010839
0.00010839
0.000108391
0.000108392
0.000108392
0.000108393
0.000108394
0.000108394
0.000108395
0.000108396
0.000108396
0.000108397
0.000108397
0.000108398
0.000108399
0.000108399
0.0001084
0.0001084
0.0001084
0.000108401
0.000108401
0.000108402
0.000108402
0.000108402
0.000108402
0.000108402
0.000108403
0.000108403
0.000108403
0.000108403
0.000108403
0.000108403
0.000108403
0.000108403
0.000108403
0.000108403
0.000108402
0.000108402
0.000108402
0.000108401
0.000108401
0.000108401
0.0001084
0.0001084
0.0001084
0.000108399
0.000108399
0.000108399
0.000108398
0.000108398
0.000108398
0.000108397
0.000108397
0.000108397
0.000108396
0.000108396
0.000108396
0.000108396
0.000108395
0.000108395
0.000108395
0.000108395
0.000108394
0.000108394
0.000108394
0.000108394
0.000108393
0.000108393
0.000108393
0.000108393
0.000108392
0.000108392
0.000108392
0.000108392
0.000108392
0.000108392
0.000108393
0.000108393
0.000108393
0.000108393
0.000108393
0.000108393
0.000108393
0.000108393
0.000108393
0.000108394
0.000108394
0.000108394
0.000108394
0.000108394
0.000108394
0.000108394
0.000108395
0.000108395
0.000108395
0.000108395
0.000108398
0.000118343
0.000118339
0.000118338
0.000118338
0.000118338
0.000118338
0.000118339
0.00011834
0.00011834
0.000118341
0.000118342
0.000118342
0.000118343
0.000118344
0.000118345
0.000118346
0.000118346
0.000118347
0.000118348
0.000118349
0.00011835
0.00011835
0.000118351
0.000118352
0.000118353
0.000118354
0.000118354
0.000118355
0.000118356
0.000118357
0.000118357
0.000118358
0.000118359
0.000118359
0.00011836
0.000118361
0.000118361
0.000118362
0.000118362
0.000118363
0.000118363
0.000118364
0.000118364
0.000118365
0.000118365
0.000118365
0.000118366
0.000118366
0.000118366
0.000118366
0.000118367
0.000118367
0.000118367
0.000118367
0.000118367
0.000118367
0.000118366
0.000118366
0.000118366
0.000118365
0.000118365
0.000118365
0.000118364