/*--------------------------------*- C++ -*----------------------------------*\
  =========                 |
  \\      /  F ield         | OpenFOAM: The Open Source CFD Toolbox
   \\    /   O peration     | Website:  https://openfoam.org
    \\  /    A nd           | Version:  7
     \\/     M anipulation  |
\*---------------------------------------------------------------------------*/
FoamFile
{
    version     2.0;
    format      ascii;
    class       volScalarField;
    location    "2500";
    object      omega;
}
// * * * * * * * * * * * * * * * * * * * * * * * * * * * * * * * * * * * * * //

dimensions      [0 0 -1 0 0 0 0];

internalField   nonuniform List<scalar> 
24000
(
999.269
999.269
999.269
999.269
999.269
999.269
999.269
999.269
999.269
999.269
999.269
999.269
999.269
999.269
999.269
999.269
999.269
999.269
999.269
999.269
999.269
999.269
999.269
999.269
999.269
999.269
999.269
999.269
999.269
999.269
999.269
999.269
999.269
999.269
999.269
999.269
999.269
999.269
999.269
999.269
999.269
999.269
999.269
999.269
999.269
999.269
999.269
999.269
999.269
999.269
999.269
999.269
999.269
999.269
999.269
999.269
999.269
999.269
999.269
999.269
999.269
999.269
999.269
999.269
999.269
999.269
999.269
999.269
999.269
999.269
999.269
999.269
999.269
999.269
999.269
999.269
999.269
999.269
999.269
999.269
999.269
999.269
999.269
999.269
999.269
999.269
999.269
999.269
999.269
999.269
999.269
999.269
999.269
999.269
999.269
999.269
999.269
999.269
999.269
999.269
999.269
999.269
999.269
999.269
999.269
999.269
999.269
999.269
999.269
999.269
999.269
999.269
999.269
999.269
999.269
999.269
999.269
999.269
999.269
999.269
173.193
173.193
173.193
173.193
173.193
173.193
173.193
173.193
173.193
173.193
173.193
173.193
173.193
173.193
173.193
173.193
173.193
173.193
173.193
173.193
173.193
173.193
173.193
173.193
173.193
173.193
173.193
173.193
173.193
173.193
173.193
173.193
173.193
173.193
173.193
173.193
173.193
173.193
173.193
173.193
173.193
173.193
173.193
173.193
173.193
173.193
173.193
173.193
173.193
173.193
173.193
173.193
173.193
173.193
173.193
173.193
173.193
173.193
173.193
173.193
173.193
173.193
173.193
173.193
173.193
173.193
173.193
173.193
173.193
173.193
173.193
173.193
173.193
173.193
173.193
173.193
173.193
173.193
173.193
173.193
173.193
173.193
173.193
173.193
173.193
173.193
173.193
173.193
173.193
173.193
173.193
173.193
173.193
173.193
173.193
173.193
173.193
173.193
173.193
173.193
173.193
173.193
173.193
173.193
173.193
173.193
173.193
173.193
173.193
173.193
173.193
173.193
173.193
173.193
173.193
173.193
173.193
173.193
173.193
173.193
58.8547
58.8547
58.8547
58.8547
58.8547
58.8547
58.8547
58.8547
58.8547
58.8547
58.8547
58.8547
58.8547
58.8547
58.8547
58.8547
58.8547
58.8547
58.8547
58.8547
58.8547
58.8547
58.8547
58.8547
58.8547
58.8547
58.8547
58.8547
58.8547
58.8547
58.8547
58.8547
58.8547
58.8547
58.8547
58.8547
58.8547
58.8547
58.8547
58.8547
58.8547
58.8547
58.8547
58.8547
58.8547
58.8547
58.8547
58.8547
58.8547
58.8547
58.8547
58.8547
58.8547
58.8547
58.8547
58.8547
58.8547
58.8547
58.8547
58.8547
58.8547
58.8547
58.8547
58.8547
58.8547
58.8547
58.8547
58.8547
58.8547
58.8547
58.8547
58.8547
58.8547
58.8547
58.8547
58.8547
58.8547
58.8547
58.8547
58.8547
58.8547
58.8547
58.8547
58.8547
58.8547
58.8547
58.8547
58.8547
58.8547
58.8547
58.8547
58.8547
58.8547
58.8547
58.8547
58.8547
58.8547
58.8547
58.8547
58.8547
58.8547
58.8547
58.8547
58.8547
58.8547
58.8547
58.8547
58.8547
58.8547
58.8547
58.8547
58.8547
58.8547
58.8547
58.8547
58.8547
58.8547
58.8547
58.8547
58.8547
28.5005
28.5004
28.5004
28.5003
28.5003
28.5003
28.5003
28.5003
28.5003
28.5003
28.5003
28.5003
28.5003
28.5003
28.5003
28.5003
28.5003
28.5003
28.5003
28.5003
28.5003
28.5003
28.5003
28.5003
28.5003
28.5003
28.5003
28.5003
28.5003
28.5003
28.5004
28.5004
28.5004
28.5004
28.5004
28.5004
28.5004
28.5004
28.5004
28.5004
28.5004
28.5004
28.5004
28.5004
28.5004
28.5004
28.5004
28.5004
28.5004
28.5004
28.5004
28.5004
28.5004
28.5004
28.5004
28.5004
28.5004
28.5004
28.5004
28.5004
28.5004
28.5004
28.5004
28.5004
28.5004
28.5004
28.5004
28.5004
28.5004
28.5004
28.5004
28.5004
28.5004
28.5004
28.5004
28.5004
28.5004
28.5004
28.5004
28.5004
28.5004
28.5004
28.5004
28.5004
28.5004
28.5004
28.5004
28.5004
28.5004
28.5004
28.5004
28.5004
28.5004
28.5004
28.5004
28.5004
28.5004
28.5004
28.5004
28.5004
28.5004
28.5004
28.5004
28.5004
28.5004
28.5004
28.5004
28.5004
28.5004
28.5004
28.5004
28.5004
28.5004
28.5004
28.5004
28.5004
28.5004
28.5004
28.5004
28.5004
17.182
17.1819
17.1819
17.1819
17.1819
17.1818
17.1818
17.1818
17.1818
17.1818
17.1818
17.1818
17.1818
17.1818
17.1818
17.1818
17.1818
17.1818
17.1818
17.1818
17.1818
17.1818
17.1818
17.1818
17.1818
17.1818
17.1818
17.1818
17.1818
17.1818
17.1819
17.1819
17.1819
17.1819
17.1819
17.1819
17.1819
17.1819
17.1819
17.1819
17.1819
17.1819
17.1819
17.1819
17.1819
17.1819
17.1819
17.1819
17.1819
17.1819
17.1819
17.1819
17.1819
17.1819
17.1819
17.1819
17.1819
17.1819
17.1819
17.1819
17.1819
17.1819
17.1819
17.1819
17.1819
17.1819
17.1819
17.1819
17.1819
17.1819
17.1819
17.1819
17.1819
17.1819
17.1819
17.1819
17.1819
17.1819
17.1819
17.1819
17.1819
17.1819
17.1819
17.1819
17.1819
17.1819
17.1819
17.1819
17.1819
17.1819
17.1819
17.1819
17.1819
17.1819
17.1819
17.1819
17.1819
17.1819
17.1819
17.1819
17.1819
17.1819
17.1819
17.1819
17.1819
17.1819
17.1819
17.1819
17.1819
17.1819
17.1819
17.1819
17.1819
17.1819
17.1819
17.1819
17.1819
17.1819
17.1819
17.1819
11.9386
11.9385
11.9384
11.9383
11.9383
11.9383
11.9383
11.9383
11.9383
11.9383
11.9383
11.9383
11.9383
11.9383
11.9383
11.9383
11.9383
11.9383
11.9383
11.9383
11.9383
11.9383
11.9383
11.9383
11.9383
11.9383
11.9383
11.9383
11.9383
11.9383
11.9383
11.9383
11.9383
11.9383
11.9383
11.9383
11.9383
11.9383
11.9383
11.9383
11.9383
11.9383
11.9383
11.9384
11.9384
11.9384
11.9384
11.9384
11.9384
11.9384
11.9384
11.9384
11.9384
11.9384
11.9384
11.9384
11.9384
11.9384
11.9384
11.9384
11.9384
11.9384
11.9384
11.9384
11.9384
11.9384
11.9384
11.9384
11.9384
11.9384
11.9384
11.9384
11.9384
11.9384
11.9384
11.9384
11.9384
11.9384
11.9384
11.9384
11.9384
11.9384
11.9384
11.9384
11.9384
11.9384
11.9384
11.9384
11.9384
11.9384
11.9384
11.9384
11.9384
11.9384
11.9384
11.9384
11.9384
11.9384
11.9384
11.9384
11.9384
11.9384
11.9384
11.9384
11.9384
11.9384
11.9384
11.9384
11.9384
11.9384
11.9383
11.9383
11.9383
11.9383
11.9383
11.9383
11.9383
11.9384
11.9384
11.9384
9.04136
9.04128
9.04119
9.04114
9.04111
9.0411
9.04109
9.04108
9.04108
9.04108
9.04107
9.04107
9.04107
9.04106
9.04106
9.04106
9.04106
9.04106
9.04105
9.04105
9.04105
9.04105
9.04105
9.04105
9.04105
9.04105
9.04105
9.04105
9.04105
9.04105
9.04105
9.04105
9.04106
9.04106
9.04106
9.04106
9.04106
9.04107
9.04107
9.04107
9.04108
9.04108
9.04109
9.04109
9.0411
9.04111
9.04112
9.04111
9.04111
9.04111
9.0411
9.0411
9.04109
9.04109
9.04109
9.04109
9.0411
9.0411
9.0411
9.0411
9.0411
9.0411
9.0411
9.04111
9.04111
9.04111
9.04111
9.04111
9.04111
9.04111
9.04111
9.04111
9.04112
9.04112
9.04112
9.04112
9.04112
9.04112
9.04112
9.04112
9.04112
9.04112
9.04112
9.04112
9.04112
9.04112
9.04112
9.04112
9.04112
9.04112
9.04112
9.04112
9.04112
9.04112
9.04112
9.04112
9.04112
9.04112
9.04112
9.04112
9.04112
9.04112
9.04113
9.04113
9.04114
9.04114
9.04113
9.04113
9.04112
9.04111
9.04111
9.0411
9.0411
9.0411
9.0411
9.0411
9.0411
9.0411
9.04111
9.04111
7.19834
7.19828
7.19819
7.19813
7.1981
7.19808
7.19807
7.19806
7.19806
7.19805
7.19805
7.19804
7.19804
7.19804
7.19804
7.19803
7.19803
7.19803
7.19802
7.19802
7.19802
7.19802
7.19802
7.19801
7.19801
7.19801
7.19801
7.19801
7.19801
7.19801
7.19801
7.19801
7.19801
7.19801
7.19801
7.19801
7.19801
7.19801
7.19801
7.19801
7.19801
7.19801
7.19802
7.19803
7.19803
7.19805
7.19805
7.19805
7.19805
7.19804
7.19804
7.19803
7.19803
7.19803
7.19803
7.19802
7.19802
7.19802
7.19803
7.19803
7.19803
7.19803
7.19803
7.19803
7.19803
7.19803
7.19803
7.19803
7.19803
7.19804
7.19804
7.19804
7.19804
7.19804
7.19804
7.19804
7.19804
7.19804
7.19804
7.19805
7.19805
7.19805
7.19805
7.19805
7.19805
7.19805
7.19805
7.19805
7.19805
7.19805
7.19805
7.19805
7.19805
7.19805
7.19805
7.19805
7.19805
7.19805
7.19805
7.19805
7.19805
7.19806
7.19806
7.19807
7.19808
7.19808
7.19808
7.19807
7.19807
7.19806
7.19805
7.19805
7.19805
7.19804
7.19804
7.19804
7.19804
7.19805
7.19806
7.19804
5.91155
5.91152
5.91144
5.91138
5.91134
5.91132
5.91131
5.9113
5.91129
5.91129
5.91128
5.91128
5.91127
5.91127
5.91127
5.91126
5.91126
5.91126
5.91125
5.91125
5.91125
5.91124
5.91124
5.91124
5.91124
5.91123
5.91123
5.91123
5.91123
5.91123
5.91122
5.91122
5.91122
5.91122
5.91122
5.91122
5.91122
5.91122
5.91121
5.91121
5.91122
5.91122
5.91122
5.91123
5.91123
5.91124
5.91125
5.91125
5.91125
5.91124
5.91124
5.91123
5.91123
5.91123
5.91123
5.91122
5.91122
5.91122
5.91122
5.91122
5.91122
5.91122
5.91122
5.91122
5.91122
5.91122
5.91122
5.91122
5.91123
5.91123
5.91123
5.91123
5.91123
5.91123
5.91123
5.91123
5.91123
5.91124
5.91124
5.91124
5.91124
5.91124
5.91124
5.91124
5.91124
5.91124
5.91124
5.91125
5.91125
5.91125
5.91125
5.91125
5.91125
5.91125
5.91125
5.91125
5.91125
5.91125
5.91125
5.91125
5.91125
5.91125
5.91126
5.91127
5.91128
5.91128
5.91128
5.91128
5.91127
5.91127
5.91126
5.91126
5.91125
5.91125
5.91125
5.91125
5.91125
5.91125
5.91126
5.91124
4.9622
4.96219
4.96212
4.96206
4.96202
4.962
4.96198
4.96197
4.96196
4.96195
4.96195
4.96194
4.96194
4.96194
4.96193
4.96193
4.96193
4.96192
4.96192
4.96192
4.96191
4.96191
4.96191
4.9619
4.9619
4.9619
4.96189
4.96189
4.96189
4.96188
4.96188
4.96188
4.96188
4.96187
4.96187
4.96187
4.96187
4.96187
4.96187
4.96186
4.96186
4.96186
4.96187
4.96187
4.96188
4.96188
4.96189
4.96189
4.96189
4.96189
4.96188
4.96188
4.96188
4.96187
4.96187
4.96187
4.96187
4.96186
4.96186
4.96186
4.96186
4.96186
4.96186
4.96186
4.96186
4.96186
4.96186
4.96186
4.96186
4.96186
4.96186
4.96187
4.96187
4.96187
4.96187
4.96187
4.96187
4.96187
4.96187
4.96187
4.96188
4.96188
4.96188
4.96188
4.96188
4.96188
4.96188
4.96188
4.96188
4.96188
4.96188
4.96188
4.96188
4.96189
4.96189
4.96189
4.96189
4.96189
4.96189
4.96189
4.96189
4.96189
4.9619
4.9619
4.96191
4.96192
4.96192
4.96192
4.96192
4.96191
4.96191
4.96191
4.9619
4.9619
4.9619
4.9619
4.96189
4.9619
4.96191
4.96188
4.23712
4.23712
4.23706
4.23701
4.23697
4.23694
4.23693
4.23691
4.2369
4.2369
4.23689
4.23689
4.23688
4.23688
4.23687
4.23687
4.23687
4.23686
4.23686
4.23686
4.23685
4.23685
4.23685
4.23684
4.23684
4.23684
4.23683
4.23683
4.23683
4.23682
4.23682
4.23682
4.23681
4.23681
4.23681
4.23681
4.2368
4.2368
4.2368
4.2368
4.2368
4.23679
4.2368
4.2368
4.2368
4.23681
4.23681
4.23682
4.23682
4.23681
4.23681
4.23681
4.2368
4.2368
4.2368
4.23679
4.23679
4.23679
4.23679
4.23679
4.23679
4.23679
4.23679
4.23679
4.23679
4.23679
4.23679
4.23679
4.23679
4.23679
4.23679
4.23679
4.23679
4.23679
4.23679
4.23679
4.23679
4.23679
4.23679
4.2368
4.2368
4.2368
4.2368
4.2368
4.2368
4.2368
4.2368
4.2368
4.23681
4.23681
4.23681
4.23681
4.23681
4.23681
4.23681
4.23681
4.23681
4.23681
4.23681
4.23681
4.23681
4.23681
4.23682
4.23682
4.23683
4.23684
4.23684
4.23684
4.23684
4.23684
4.23683
4.23683
4.23683
4.23683
4.23682
4.23682
4.23682
4.23682
4.23683
4.2368
3.66935
3.66937
3.66932
3.66927
3.66923
3.66921
3.66919
3.66917
3.66916
3.66915
3.66915
3.66914
3.66914
3.66913
3.66913
3.66913
3.66912
3.66912
3.66912
3.66911
3.66911
3.66911
3.6691
3.6691
3.6691
3.66909
3.66909
3.66909
3.66908
3.66908
3.66908
3.66907
3.66907
3.66907
3.66906
3.66906
3.66906
3.66905
3.66905
3.66905
3.66905
3.66905
3.66905
3.66905
3.66905
3.66906
3.66906
3.66906
3.66906
3.66906
3.66906
3.66906
3.66905
3.66905
3.66905
3.66904
3.66904
3.66904
3.66904
3.66904
3.66903
3.66903
3.66903
3.66903
3.66903
3.66903
3.66903
3.66903
3.66903
3.66903
3.66903
3.66903
3.66903
3.66903
3.66904
3.66904
3.66904
3.66904
3.66904
3.66904
3.66904
3.66904
3.66904
3.66904
3.66904
3.66905
3.66905
3.66905
3.66905
3.66905
3.66905
3.66905
3.66905
3.66905
3.66905
3.66905
3.66905
3.66905
3.66905
3.66905
3.66905
3.66906
3.66906
3.66906
3.66907
3.66908
3.66908
3.66908
3.66908
3.66908
3.66908
3.66908
3.66907
3.66907
3.66907
3.66907
3.66907
3.66907
3.66908
3.66904
3.21577
3.21579
3.21575
3.21571
3.21567
3.21565
3.21563
3.21561
3.2156
3.21559
3.21558
3.21558
3.21557
3.21557
3.21557
3.21556
3.21556
3.21556
3.21555
3.21555
3.21555
3.21554
3.21554
3.21554
3.21553
3.21553
3.21553
3.21552
3.21552
3.21552
3.21551
3.21551
3.21551
3.2155
3.2155
3.2155
3.21549
3.21549
3.21549
3.21548
3.21548
3.21548
3.21548
3.21548
3.21548
3.21549
3.21549
3.21549
3.21549
3.21549
3.21549
3.21549
3.21548
3.21548
3.21548
3.21547
3.21547
3.21547
3.21547
3.21547
3.21547
3.21547
3.21546
3.21546
3.21546
3.21546
3.21546
3.21546
3.21546
3.21546
3.21546
3.21546
3.21546
3.21546
3.21546
3.21547
3.21547
3.21547
3.21547
3.21547
3.21547
3.21547
3.21547
3.21547
3.21547
3.21547
3.21547
3.21548
3.21548
3.21548
3.21548
3.21548
3.21548
3.21548
3.21548
3.21548
3.21548
3.21548
3.21548
3.21548
3.21548
3.21548
3.21548
3.21549
3.2155
3.2155
3.2155
3.21551
3.21551
3.2155
3.2155
3.2155
3.2155
3.2155
3.2155
3.2155
3.21549
3.21549
3.21551
3.21546
2.84714
2.84716
2.84713
2.8471
2.84706
2.84704
2.84702
2.847
2.84699
2.84698
2.84698
2.84697
2.84696
2.84696
2.84696
2.84695
2.84695
2.84695
2.84694
2.84694
2.84694
2.84693
2.84693
2.84693
2.84692
2.84692
2.84692
2.84691
2.84691
2.84691
2.8469
2.8469
2.8469
2.84689
2.84689
2.84689
2.84689
2.84688
2.84688
2.84688
2.84687
2.84687
2.84687
2.84687
2.84687
2.84687
2.84688
2.84688
2.84688
2.84688
2.84688
2.84687
2.84687
2.84687
2.84687
2.84686
2.84686
2.84686
2.84686
2.84686
2.84686
2.84686
2.84685
2.84685
2.84685
2.84685
2.84685
2.84685
2.84685
2.84685
2.84685
2.84685
2.84685
2.84685
2.84685
2.84685
2.84685
2.84686
2.84686
2.84686
2.84686
2.84686
2.84686
2.84686
2.84686
2.84686
2.84686
2.84686
2.84686
2.84686
2.84686
2.84686
2.84686
2.84686
2.84686
2.84686
2.84686
2.84686
2.84686
2.84686
2.84687
2.84687
2.84687
2.84687
2.84688
2.84688
2.84688
2.84689
2.84689
2.84689
2.84689
2.84688
2.84688
2.84688
2.84688
2.84688
2.84688
2.84688
2.84689
2.84685
2.54301
2.54304
2.54301
2.54298
2.54295
2.54293
2.54291
2.5429
2.54288
2.54287
2.54287
2.54286
2.54286
2.54285
2.54285
2.54284
2.54284
2.54284
2.54283
2.54283
2.54283
2.54282
2.54282
2.54282
2.54282
2.54281
2.54281
2.54281
2.5428
2.5428
2.5428
2.54279
2.54279
2.54279
2.54279
2.54278
2.54278
2.54278
2.54277
2.54277
2.54277
2.54277
2.54276
2.54276
2.54276
2.54277
2.54277
2.54277
2.54277
2.54277
2.54277
2.54276
2.54276
2.54276
2.54276
2.54276
2.54275
2.54275
2.54275
2.54275
2.54275
2.54275
2.54275
2.54275
2.54275
2.54275
2.54275
2.54275
2.54275
2.54275
2.54275
2.54275
2.54275
2.54275
2.54275
2.54275
2.54275
2.54275
2.54275
2.54275
2.54275
2.54275
2.54275
2.54275
2.54275
2.54275
2.54275
2.54275
2.54275
2.54275
2.54275
2.54276
2.54276
2.54276
2.54276
2.54275
2.54275
2.54275
2.54275
2.54275
2.54275
2.54275
2.54276
2.54276
2.54276
2.54277
2.54277
2.54277
2.54277
2.54277
2.54277
2.54277
2.54277
2.54277
2.54277
2.54277
2.54277
2.54276
2.54278
2.54273
2.28872
2.28875
2.28873
2.2887
2.28867
2.28865
2.28863
2.28862
2.28861
2.2886
2.28859
2.28859
2.28858
2.28858
2.28857
2.28857
2.28856
2.28856
2.28856
2.28856
2.28855
2.28855
2.28855
2.28854
2.28854
2.28854
2.28854
2.28853
2.28853
2.28853
2.28853
2.28852
2.28852
2.28852
2.28851
2.28851
2.28851
2.2885
2.2885
2.2885
2.2885
2.28849
2.28849
2.28849
2.28849
2.28849
2.28849
2.28849
2.28849
2.28849
2.28849
2.28849
2.28849
2.28849
2.28848
2.28848
2.28848
2.28848
2.28848
2.28848
2.28848
2.28848
2.28848
2.28848
2.28848
2.28848
2.28848
2.28848
2.28848
2.28848
2.28848
2.28848
2.28848
2.28848
2.28848
2.28848
2.28848
2.28848
2.28848
2.28848
2.28848
2.28848
2.28848
2.28848
2.28848
2.28848
2.28848
2.28848
2.28848
2.28848
2.28848
2.28848
2.28848
2.28848
2.28848
2.28848
2.28848
2.28848
2.28848
2.28848
2.28848
2.28848
2.28848
2.28848
2.28849
2.28849
2.28849
2.28849
2.28849
2.28849
2.28849
2.28849
2.28849
2.28849
2.28849
2.28849
2.28849
2.28849
2.2885
2.28846
2.07354
2.07357
2.07355
2.07353
2.0735
2.07348
2.07347
2.07345
2.07344
2.07343
2.07342
2.07342
2.07341
2.07341
2.0734
2.0734
2.0734
2.07339
2.07339
2.07339
2.07338
2.07338
2.07338
2.07338
2.07337
2.07337
2.07337
2.07337
2.07336
2.07336
2.07336
2.07336
2.07335
2.07335
2.07335
2.07334
2.07334
2.07334
2.07334
2.07333
2.07333
2.07333
2.07333
2.07333
2.07333
2.07333
2.07333
2.07333
2.07333
2.07332
2.07332
2.07332
2.07332
2.07332
2.07332
2.07332
2.07332
2.07332
2.07332
2.07331
2.07331
2.07331
2.07331
2.07331
2.07331
2.07331
2.07331
2.07331
2.07331
2.07331
2.07331
2.07331
2.07332
2.07332
2.07332
2.07332
2.07332
2.07332
2.07332
2.07332
2.07332
2.07332
2.07332
2.07332
2.07332
2.07332
2.07332
2.07332
2.07332
2.07332
2.07332
2.07332
2.07332
2.07332
2.07332
2.07332
2.07332
2.07332
2.07331
2.07331
2.07331
2.07331
2.07331
2.07331
2.07332
2.07332
2.07332
2.07332
2.07332
2.07332
2.07332
2.07332
2.07332
2.07332
2.07332
2.07332
2.07332
2.07332
2.07333
2.07329
1.88948
1.88951
1.88949
1.88947
1.88945
1.88943
1.88942
1.8894
1.88939
1.88938
1.88937
1.88937
1.88936
1.88936
1.88935
1.88935
1.88935
1.88934
1.88934
1.88934
1.88934
1.88933
1.88933
1.88933
1.88933
1.88933
1.88932
1.88932
1.88932
1.88932
1.88931
1.88931
1.88931
1.88931
1.8893
1.8893
1.8893
1.88929
1.88929
1.88929
1.88929
1.88928
1.88928
1.88928
1.88928
1.88928
1.88928
1.88928
1.88928
1.88928
1.88928
1.88928
1.88928
1.88927
1.88927
1.88927
1.88927
1.88927
1.88927
1.88927
1.88927
1.88927
1.88927
1.88927
1.88927
1.88927
1.88928
1.88928
1.88928
1.88928
1.88928
1.88928
1.88928
1.88928
1.88928
1.88928
1.88928
1.88928
1.88928
1.88928
1.88928
1.88928
1.88928
1.88928
1.88928
1.88928
1.88928
1.88928
1.88928
1.88928
1.88928
1.88928
1.88928
1.88928
1.88928
1.88928
1.88927
1.88927
1.88927
1.88927
1.88927
1.88927
1.88927
1.88927
1.88927
1.88927
1.88927
1.88927
1.88927
1.88927
1.88927
1.88927
1.88927
1.88927
1.88927
1.88927
1.88927
1.88927
1.88928
1.88924
1.7305
1.73053
1.73052
1.7305
1.73048
1.73046
1.73045
1.73044
1.73043
1.73042
1.73041
1.7304
1.7304
1.73039
1.73039
1.73038
1.73038
1.73038
1.73038
1.73037
1.73037
1.73037
1.73037
1.73036
1.73036
1.73036
1.73036
1.73036
1.73035
1.73035
1.73035
1.73035
1.73035
1.73034
1.73034
1.73034
1.73034
1.73033
1.73033
1.73033
1.73033
1.73032
1.73032
1.73032
1.73032
1.73032
1.73032
1.73032
1.73032
1.73032
1.73032
1.73031
1.73031
1.73031
1.73031
1.73031
1.73031
1.73031
1.73031
1.73032
1.73032
1.73032
1.73032
1.73032
1.73032
1.73032
1.73032
1.73032
1.73032
1.73032
1.73032
1.73032
1.73032
1.73032
1.73032
1.73032
1.73032
1.73032
1.73032
1.73032
1.73032
1.73032
1.73032
1.73032
1.73032
1.73032
1.73032
1.73032
1.73032
1.73032
1.73032
1.73032
1.73032
1.73032
1.73032
1.73032
1.73032
1.73031
1.73031
1.73031
1.73031
1.73031
1.73031
1.73031
1.73031
1.73031
1.73031
1.73031
1.73031
1.73031
1.73031
1.73031
1.73031
1.73031
1.73031
1.73031
1.73031
1.7303
1.73031
1.73028
1.59197
1.592
1.59199
1.59198
1.59196
1.59194
1.59193
1.59192
1.59191
1.5919
1.59189
1.59189
1.59188
1.59188
1.59187
1.59187
1.59187
1.59186
1.59186
1.59186
1.59186
1.59185
1.59185
1.59185
1.59185
1.59185
1.59185
1.59184
1.59184
1.59184
1.59184
1.59184
1.59183
1.59183
1.59183
1.59183
1.59182
1.59182
1.59182
1.59182
1.59181
1.59181
1.59181
1.59181
1.59181
1.59181
1.59181
1.59181
1.59181
1.59181
1.5918
1.5918
1.5918
1.5918
1.5918
1.59181
1.59181
1.59181
1.59181
1.59181
1.59181
1.59181
1.59181
1.59181
1.59181
1.59182
1.59182
1.59182
1.59182
1.59182
1.59182
1.59182
1.59182
1.59182
1.59182
1.59182
1.59182
1.59182
1.59182
1.59182
1.59182
1.59182
1.59182
1.59182
1.59182
1.59182
1.59182
1.59182
1.59182
1.59182
1.59182
1.59182
1.59182
1.59182
1.59181
1.59181
1.59181
1.59181
1.59181
1.5918
1.5918
1.5918
1.5918
1.5918
1.5918
1.5918
1.5918
1.5918
1.5918
1.5918
1.5918
1.59179
1.59179
1.59179
1.59179
1.59179
1.59179
1.59179
1.5918
1.59176
1.4703
1.47033
1.47032
1.47031
1.47029
1.47028
1.47026
1.47025
1.47024
1.47024
1.47023
1.47022
1.47022
1.47021
1.47021
1.47021
1.4702
1.4702
1.4702
1.4702
1.47019
1.47019
1.47019
1.47019
1.47019
1.47018
1.47018
1.47018
1.47018
1.47018
1.47018
1.47017
1.47017
1.47017
1.47017
1.47017
1.47016
1.47016
1.47016
1.47016
1.47016
1.47015
1.47015
1.47015
1.47015
1.47015
1.47015
1.47015
1.47015
1.47015
1.47015
1.47014
1.47015
1.47015
1.47015
1.47015
1.47015
1.47015
1.47015
1.47016
1.47016
1.47016
1.47016
1.47016
1.47016
1.47016
1.47017
1.47017
1.47017
1.47017
1.47017
1.47017
1.47017
1.47017
1.47017
1.47017
1.47017
1.47017
1.47017
1.47017
1.47017
1.47017
1.47017
1.47017
1.47017
1.47017
1.47017
1.47017
1.47017
1.47017
1.47017
1.47017
1.47017
1.47016
1.47016
1.47016
1.47016
1.47015
1.47015
1.47015
1.47014
1.47014
1.47014
1.47014
1.47014
1.47014
1.47014
1.47014
1.47014
1.47014
1.47013
1.47013
1.47013
1.47013
1.47013
1.47013
1.47013
1.47013
1.47014
1.4701
1.36265
1.36267
1.36267
1.36265
1.36264
1.36263
1.36262
1.36261
1.3626
1.36259
1.36258
1.36258
1.36257
1.36257
1.36256
1.36256
1.36256
1.36255
1.36255
1.36255
1.36255
1.36255
1.36254
1.36254
1.36254
1.36254
1.36254
1.36254
1.36254
1.36253
1.36253
1.36253
1.36253
1.36253
1.36253
1.36252
1.36252
1.36252
1.36252
1.36252
1.36251
1.36251
1.36251
1.36251
1.36251
1.36251
1.36251
1.36251
1.36251
1.36251
1.3625
1.36251
1.36251
1.36251
1.36251
1.36251
1.36251
1.36252
1.36252
1.36252
1.36252
1.36253
1.36253
1.36253
1.36253
1.36253
1.36253
1.36253
1.36254
1.36254
1.36254
1.36254
1.36254
1.36254
1.36254
1.36254
1.36254
1.36254
1.36254
1.36254
1.36254
1.36254
1.36254
1.36254
1.36254
1.36254
1.36254
1.36254
1.36254
1.36254
1.36254
1.36253
1.36253
1.36253
1.36253
1.36252
1.36252
1.36252
1.36251
1.36251
1.36251
1.3625
1.3625
1.3625
1.3625
1.3625
1.3625
1.3625
1.3625
1.36249
1.36249
1.36249
1.36249
1.36249
1.36249
1.36249
1.36249
1.36249
1.3625
1.36246
1.26676
1.26679
1.26678
1.26677
1.26676
1.26674
1.26673
1.26672
1.26672
1.26671
1.2667
1.2667
1.26669
1.26669
1.26668
1.26668
1.26668
1.26668
1.26667
1.26667
1.26667
1.26667
1.26667
1.26666
1.26666
1.26666
1.26666
1.26666
1.26666
1.26666
1.26666
1.26665
1.26665
1.26665
1.26665
1.26665
1.26665
1.26664
1.26664
1.26664
1.26664
1.26664
1.26664
1.26663
1.26663
1.26663
1.26663
1.26663
1.26663
1.26663
1.26663
1.26663
1.26663
1.26664
1.26664
1.26664
1.26665
1.26665
1.26665
1.26666
1.26666
1.26666
1.26666
1.26666
1.26667
1.26667
1.26667
1.26667
1.26667
1.26667
1.26667
1.26667
1.26667
1.26667
1.26667
1.26667
1.26667
1.26668
1.26668
1.26668
1.26667
1.26667
1.26667
1.26667
1.26667
1.26667
1.26667
1.26667
1.26667
1.26667
1.26667
1.26667
1.26667
1.26666
1.26666
1.26666
1.26665
1.26665
1.26664
1.26664
1.26664
1.26663
1.26663
1.26663
1.26663
1.26663
1.26662
1.26662
1.26662
1.26662
1.26662
1.26662
1.26662
1.26662
1.26662
1.26662
1.26661
1.26661
1.26662
1.26659
1.18083
1.18085
1.18085
1.18084
1.18083
1.18082
1.18081
1.1808
1.18079
1.18078
1.18078
1.18077
1.18077
1.18076
1.18076
1.18076
1.18075
1.18075
1.18075
1.18075
1.18075
1.18074
1.18074
1.18074
1.18074
1.18074
1.18074
1.18074
1.18074
1.18073
1.18073
1.18073
1.18073
1.18073
1.18073
1.18073
1.18072
1.18072
1.18072
1.18072
1.18072
1.18072
1.18072
1.18071
1.18071
1.18071
1.18071
1.18071
1.18071
1.18071
1.18071
1.18072
1.18072
1.18072
1.18073
1.18073
1.18074
1.18074
1.18074
1.18075
1.18075
1.18075
1.18075
1.18076
1.18076
1.18076
1.18076
1.18076
1.18076
1.18076
1.18077
1.18077
1.18077
1.18077
1.18077
1.18077
1.18077
1.18077
1.18077
1.18077
1.18077
1.18077
1.18077
1.18077
1.18077
1.18077
1.18077
1.18077
1.18077
1.18077
1.18076
1.18076
1.18076
1.18075
1.18075
1.18074
1.18074
1.18073
1.18073
1.18072
1.18072
1.18072
1.18071
1.18071
1.18071
1.18071
1.18071
1.18071
1.1807
1.1807
1.1807
1.1807
1.1807
1.1807
1.1807
1.1807
1.1807
1.18069
1.1807
1.18067
1.10338
1.10341
1.1034
1.10339
1.10338
1.10337
1.10337
1.10336
1.10335
1.10334
1.10334
1.10333
1.10333
1.10333
1.10332
1.10332
1.10332
1.10332
1.10331
1.10331
1.10331
1.10331
1.10331
1.10331
1.1033
1.1033
1.1033
1.1033
1.1033
1.1033
1.1033
1.1033
1.1033
1.10329
1.10329
1.10329
1.10329
1.10329
1.10329
1.10329
1.10329
1.10328
1.10328
1.10328
1.10328
1.10328
1.10328
1.10328
1.10328
1.10328
1.10328
1.10329
1.10329
1.1033
1.1033
1.10331
1.10331
1.10332
1.10332
1.10332
1.10333
1.10333
1.10333
1.10334
1.10334
1.10334
1.10334
1.10334
1.10334
1.10334
1.10335
1.10335
1.10335
1.10335
1.10335
1.10335
1.10335
1.10335
1.10335
1.10335
1.10335
1.10335
1.10335
1.10335
1.10335
1.10335
1.10335
1.10335
1.10335
1.10334
1.10334
1.10334
1.10333
1.10333
1.10332
1.10332
1.10331
1.10331
1.1033
1.1033
1.10329
1.10329
1.10328
1.10328
1.10328
1.10328
1.10328
1.10328
1.10327
1.10327
1.10327
1.10327
1.10327
1.10327
1.10327
1.10327
1.10326
1.10326
1.10327
1.10324
1.03323
1.03325
1.03324
1.03324
1.03323
1.03322
1.03321
1.0332
1.0332
1.03319
1.03319
1.03318
1.03318
1.03317
1.03317
1.03317
1.03317
1.03316
1.03316
1.03316
1.03316
1.03316
1.03316
1.03315
1.03315
1.03315
1.03315
1.03315
1.03315
1.03315
1.03315
1.03315
1.03315
1.03315
1.03314
1.03314
1.03314
1.03314
1.03314
1.03314
1.03314
1.03314
1.03314
1.03313
1.03313
1.03313
1.03313
1.03313
1.03313
1.03314
1.03314
1.03314
1.03315
1.03316
1.03317
1.03317
1.03318
1.03318
1.03319
1.03319
1.03319
1.0332
1.0332
1.0332
1.0332
1.03321
1.03321
1.03321
1.03321
1.03321
1.03321
1.03321
1.03321
1.03321
1.03321
1.03321
1.03321
1.03321
1.03321
1.03321
1.03321
1.03321
1.03321
1.03321
1.03321
1.03321
1.03321
1.03321
1.03321
1.03321
1.03321
1.0332
1.03319
1.03319
1.03318
1.03317
1.03317
1.03316
1.03316
1.03315
1.03315
1.03314
1.03314
1.03314
1.03314
1.03313
1.03313
1.03313
1.03313
1.03313
1.03313
1.03312
1.03312
1.03312
1.03312
1.03312
1.03312
1.03312
1.03312
1.0331
0.969363
0.969382
0.969379
0.969372
0.969364
0.969356
0.969349
0.969342
0.969336
0.969331
0.969326
0.969322
0.969318
0.969315
0.969312
0.969309
0.969307
0.969305
0.969303
0.969302
0.9693
0.969299
0.969298
0.969297
0.969296
0.969295
0.969294
0.969294
0.969293
0.969292
0.969291
0.969291
0.96929
0.969289
0.969288
0.969287
0.969287
0.969286
0.969285
0.969284
0.969283
0.969282
0.969281
0.96928
0.96928
0.96928
0.96928
0.96928
0.969281
0.969284
0.969291
0.969299
0.969308
0.969317
0.969324
0.96933
0.969336
0.969341
0.969346
0.969349
0.969353
0.969356
0.969359
0.969361
0.969364
0.969365
0.969367
0.969369
0.96937
0.969371
0.969372
0.969373
0.969374
0.969374
0.969375
0.969375
0.969375
0.969376
0.969376
0.969376
0.969376
0.969376
0.969376
0.969376
0.969375
0.969375
0.969375
0.969375
0.969372
0.969368
0.969362
0.969355
0.969347
0.969339
0.969332
0.969325
0.969318
0.969312
0.969307
0.969302
0.969297
0.969293
0.969289
0.969287
0.969285
0.969282
0.969281
0.969279
0.969277
0.969276
0.969274
0.969273
0.969271
0.96927
0.969269
0.969268
0.969267
0.969265
0.969269
0.969249
0.910969
0.910986
0.910984
0.910977
0.91097
0.910963
0.910957
0.910951
0.910945
0.910941
0.910936
0.910932
0.910929
0.910926
0.910923
0.910921
0.910918
0.910917
0.910915
0.910914
0.910912
0.910911
0.91091
0.910909
0.910909
0.910908
0.910907
0.910907
0.910906
0.910906
0.910905
0.910904
0.910904
0.910903
0.910902
0.910902
0.910901
0.9109
0.9109
0.910899
0.910898
0.910897
0.910897
0.910896
0.910896
0.910896
0.910896
0.910897
0.910899
0.910905
0.910915
0.910927
0.910938
0.910947
0.910955
0.910961
0.910967
0.910972
0.910977
0.910981
0.910984
0.910987
0.91099
0.910992
0.910995
0.910997
0.910998
0.911
0.911001
0.911002
0.911003
0.911004
0.911005
0.911006
0.911006
0.911007
0.911007
0.911007
0.911007
0.911007
0.911007
0.911007
0.911007
0.911007
0.911007
0.911007
0.911008
0.911006
0.911002
0.910996
0.910988
0.910979
0.910969
0.91096
0.910952
0.910945
0.910938
0.910931
0.910926
0.910921
0.910916
0.910912
0.910908
0.910906
0.910903
0.910901
0.9109
0.910898
0.910896
0.910895
0.910893
0.910891
0.91089
0.910888
0.910887
0.910886
0.910885
0.910883
0.910886
0.910868
0.857357
0.857372
0.85737
0.857364
0.857357
0.857351
0.857345
0.85734
0.857335
0.857331
0.857327
0.857323
0.85732
0.857317
0.857315
0.857313
0.857311
0.857309
0.857308
0.857306
0.857305
0.857304
0.857303
0.857303
0.857302
0.857302
0.857301
0.857301
0.8573
0.8573
0.857299
0.857299
0.857298
0.857298
0.857298
0.857297
0.857297
0.857296
0.857295
0.857295
0.857294
0.857294
0.857293
0.857293
0.857293
0.857293
0.857293
0.857295
0.857298
0.857309
0.857324
0.857339
0.857351
0.857361
0.857368
0.857375
0.857381
0.857386
0.85739
0.857394
0.857397
0.8574
0.857403
0.857405
0.857408
0.857409
0.857411
0.857413
0.857414
0.857415
0.857416
0.857417
0.857418
0.857419
0.857419
0.85742
0.85742
0.85742
0.85742
0.857421
0.857421
0.857421
0.857421
0.857421
0.857421
0.857421
0.857422
0.857418
0.857412
0.857403
0.857392
0.857381
0.85737
0.857361
0.857352
0.857344
0.857337
0.857331
0.857325
0.85732
0.857315
0.857311
0.857308
0.857305
0.857303
0.857301
0.8573
0.857298
0.857296
0.857295
0.857293
0.857291
0.857289
0.857288
0.857286
0.857285
0.857284
0.857282
0.857285
0.857269
0.807946
0.807958
0.807956
0.807951
0.807945
0.80794
0.807935
0.80793
0.807926
0.807922
0.807918
0.807915
0.807912
0.80791
0.807907
0.807906
0.807904
0.807902
0.807901
0.8079
0.807899
0.807898
0.807898
0.807897
0.807896
0.807896
0.807896
0.807895
0.807895
0.807895
0.807895
0.807894
0.807894
0.807894
0.807893
0.807893
0.807893
0.807892
0.807892
0.807892
0.807891
0.807891
0.80789
0.80789
0.80789
0.807892
0.807891
0.807896
0.8079
0.807919
0.80794
0.807956
0.807968
0.807978
0.807985
0.807991
0.807997
0.808001
0.808005
0.808009
0.808012
0.808015
0.808018
0.80802
0.808022
0.808024
0.808026
0.808027
0.808029
0.80803
0.808031
0.808032
0.808032
0.808033
0.808034
0.808034
0.808035
0.808035
0.808035
0.808036
0.808036
0.808036
0.808036
0.808036
0.808036
0.808036
0.808038
0.808031
0.808021
0.808009
0.807995
0.807982
0.80797
0.80796
0.807951
0.807943
0.807936
0.80793
0.807924
0.80792
0.807915
0.807911
0.807908
0.807905
0.807904
0.807902
0.807901
0.807899
0.807897
0.807895
0.807893
0.807891
0.80789
0.807888
0.807886
0.807885
0.807884
0.807882
0.807884
0.80787
0.762245
0.762255
0.762253
0.762248
0.762243
0.762238
0.762234
0.76223
0.762226
0.762222
0.762219
0.762217
0.762214
0.762212
0.76221
0.762208
0.762207
0.762205
0.762204
0.762203
0.762202
0.762202
0.762201
0.762201
0.762201
0.7622
0.7622
0.7622
0.7622
0.7622
0.7622