/*--------------------------------*- C++ -*----------------------------------*\
  =========                 |
  \\      /  F ield         | OpenFOAM: The Open Source CFD Toolbox
   \\    /   O peration     | Website:  https://openfoam.org
    \\  /    A nd           | Version:  7
     \\/     M anipulation  |
\*---------------------------------------------------------------------------*/
FoamFile
{
    version     2.0;
    format      ascii;
    class       surfaceScalarField;
    location    "2500";
    object      phi;
}
// * * * * * * * * * * * * * * * * * * * * * * * * * * * * * * * * * * * * * //

dimensions      [0 3 -1 0 0 0 0];

internalField   nonuniform List<scalar> 
47680
(
2.17496e-06
3.28312e-11
2.17498e-06
-2.07308e-11
2.17499e-06
-8.65491e-12
2.17499e-06
-1.22508e-12
2.17499e-06
1.24891e-12
2.17498e-06
3.64551e-12
2.17498e-06
4.08483e-12
2.17498e-06
3.92124e-12
2.17497e-06
3.50259e-12
2.17497e-06
3.02095e-12
2.17497e-06
2.52807e-12
2.17497e-06
1.96993e-12
2.17496e-06
1.329e-12
2.17496e-06
6.52224e-13
2.17496e-06
2.08696e-14
2.17496e-06
-5.06443e-13
2.17496e-06
-9.28705e-13
2.17497e-06
-1.2895e-12
2.17497e-06
-1.63531e-12
2.17497e-06
-1.98209e-12
2.17497e-06
-2.31393e-12
2.17497e-06
-2.60657e-12
2.17498e-06
-2.85071e-12
2.17498e-06
-3.05887e-12
2.17498e-06
-3.25156e-12
2.17499e-06
-3.44235e-12
2.17499e-06
-3.6287e-12
2.17499e-06
-3.80219e-12
2.175e-06
-3.95401e-12
2.175e-06
-4.09121e-12
2.17501e-06
-4.21641e-12
2.17501e-06
-4.34961e-12
2.17502e-06
-4.47115e-12
2.17502e-06
-4.61126e-12
2.17502e-06
-4.69101e-12
2.17503e-06
-4.81508e-12
2.17503e-06
-4.74529e-12
2.17504e-06
-4.83962e-12
2.17504e-06
-4.33873e-12
2.17505e-06
-4.41266e-12
2.17505e-06
-2.70679e-12
2.17505e-06
-2.84907e-12
2.17505e-06
1.62656e-12
2.17505e-06
1.58214e-12
2.17504e-06
8.19223e-12
2.17503e-06
1.09883e-11
2.17503e-06
1.13038e-12
2.17503e-06
-4.42719e-14
2.17503e-06
-1.93174e-12
2.17503e-06
-2.69823e-12
2.17504e-06
-4.09245e-12
2.17504e-06
-4.08406e-12
2.17505e-06
-3.8083e-12
2.17505e-06
-3.48198e-12
2.17505e-06
-3.12323e-12
2.17506e-06
-2.82717e-12
2.17506e-06
-2.58623e-12
2.17506e-06
-2.39213e-12
2.17506e-06
-2.22716e-12
2.17507e-06
-2.07225e-12
2.17507e-06
-1.91291e-12
2.17507e-06
-1.73949e-12
2.17507e-06
-1.54888e-12
2.17507e-06
-1.34231e-12
2.17507e-06
-1.12521e-12
2.17507e-06
-9.04383e-13
2.17507e-06
-6.86951e-13
2.17508e-06
-4.79114e-13
2.17508e-06
-2.85663e-13
2.17508e-06
-1.09857e-13
2.17508e-06
4.59691e-14
2.17508e-06
1.80806e-13
2.17508e-06
2.94603e-13
2.17507e-06
3.86969e-13
2.17507e-06
4.6018e-13
2.17507e-06
5.1414e-13
2.17507e-06
5.52805e-13
2.17507e-06
5.73783e-13
2.17507e-06
5.86456e-13
2.17507e-06
5.79053e-13
2.17507e-06
5.80564e-13
2.17507e-06
5.48818e-13
2.17507e-06
5.77132e-13
2.17507e-06
5.29173e-13
2.17507e-06
6.46698e-13
2.17507e-06
6.01226e-13
2.17507e-06
6.54417e-13
2.17507e-06
2.59613e-13
2.17507e-06
-1.89012e-13
2.17507e-06
-3.51643e-13
2.17507e-06
-6.84555e-13
2.17507e-06
-4.88522e-13
2.17507e-06
-4.5692e-13
2.17507e-06
-4.44974e-13
2.17507e-06
-5.10278e-13
2.17507e-06
-4.28975e-13
2.17507e-06
-5.29121e-13
2.17507e-06
-6.19207e-14
2.17507e-06
-1.80592e-13
2.17507e-06
1.42155e-12
2.17507e-06
1.18249e-12
2.17506e-06
5.41617e-12
2.17506e-06
5.25287e-12
2.17505e-06
1.12885e-11
2.17503e-06
1.40487e-11
2.17503e-06
2.74791e-12
2.17503e-06
1.13548e-12
2.17503e-06
-6.7779e-13
2.17503e-06
-1.95568e-12
2.17503e-06
-2.19463e-12
2.17504e-06
-2.49713e-12
2.17504e-06
-2.35519e-12
2.17504e-06
-2.52962e-12
2.17504e-06
-1.72312e-12
2.17504e-06
-2.13674e-12
2.17504e-06
6.76938e-13
2.17504e-06
-5.99228e-13
2.17504e-06
8.51766e-12
2.17503e-06
5.47049e-12
3.94926e-11
6.72064e-06
1.18532e-10
6.72067e-06
-4.75114e-11
6.72069e-06
-2.83883e-11
6.72069e-06
-2.47738e-12
6.72068e-06
6.79434e-12
6.72067e-06
1.4588e-11
6.72066e-06
1.63139e-11
6.72065e-06
1.55694e-11
6.72064e-06
1.38179e-11
6.72063e-06
1.17614e-11
6.72062e-06
9.65068e-12
6.72062e-06
7.36607e-12
6.72061e-06
4.85494e-12
6.72061e-06
2.25247e-12
6.72061e-06
-1.91438e-13
6.72061e-06
-2.28389e-12
6.72062e-06
-4.00529e-12
6.72062e-06
-5.48412e-12
6.72062e-06
-6.86995e-12
6.72063e-06
-8.22494e-12
6.72064e-06
-9.51105e-12
6.72065e-06
-1.06559e-11
6.72065e-06
-1.1629e-11
6.72066e-06
-1.24653e-11
6.72067e-06
-1.32309e-11
6.72068e-06
-1.39716e-11
6.7207e-06
-1.46857e-11
6.72071e-06
-1.53488e-11
6.72072e-06
-1.59383e-11
6.72073e-06
-1.64677e-11
6.72074e-06
-1.6958e-11
6.72076e-06
-1.74561e-11
6.72077e-06
-1.79335e-11
6.72079e-06
-1.84317e-11
6.7208e-06
-1.8792e-11
6.72081e-06
-1.91774e-11
6.72083e-06
-1.90987e-11
6.72084e-06
-1.92038e-11
6.72086e-06
-1.78324e-11
6.72087e-06
-1.74126e-11
6.72088e-06
-1.2312e-11
6.72089e-06
-1.12065e-11
6.72089e-06
2.96061e-12
6.72088e-06
5.29652e-12
6.72086e-06
2.78826e-11
6.72083e-06
3.80289e-11
6.72083e-06
7.79494e-12
6.72083e-06
2.08377e-13
6.72083e-06
-6.4769e-12
6.72084e-06
-1.00345e-11
6.72085e-06
-1.49315e-11
6.72086e-06
-1.55235e-11
6.72087e-06
-1.47136e-11
6.72088e-06
-1.35976e-11
6.72089e-06
-1.23292e-11
6.7209e-06
-1.12337e-11
6.72091e-06
-1.03226e-11
6.72092e-06
-9.56638e-12
6.72092e-06
-8.90376e-12
6.72093e-06
-8.26821e-12
6.72093e-06
-7.60598e-12
6.72094e-06
-6.88491e-12
6.72094e-06
-6.09589e-12
6.72095e-06
-5.2472e-12
6.72095e-06
-4.36005e-12
6.72095e-06
-3.46279e-12
6.72096e-06
-2.58187e-12
6.72096e-06
-1.74252e-12
6.72096e-06
-9.62357e-13
6.72096e-06
-2.5532e-13
6.72096e-06
3.71372e-13
6.72096e-06
9.14109e-13
6.72096e-06
1.37149e-12
6.72095e-06
1.7454e-12
6.72095e-06
2.04108e-12
6.72095e-06
2.26272e-12
6.72095e-06
2.41974e-12
6.72095e-06
2.51275e-12
6.72094e-06
2.56225e-12
6.72094e-06
2.54991e-12
6.72094e-06
2.54141e-12
6.72094e-06
2.45314e-12
6.72094e-06
2.51155e-12
6.72094e-06
2.39532e-12
6.72093e-06
2.73816e-12
6.72093e-06
2.66214e-12
6.72093e-06
2.78761e-12
6.72093e-06
1.46882e-12
6.72093e-06
-1.21311e-13
6.72093e-06
-9.03245e-13
6.72093e-06
-2.02786e-12
6.72093e-06
-1.55185e-12
6.72093e-06
-1.37602e-12
6.72093e-06
-1.35964e-12
6.72093e-06
-1.5043e-12
6.72093e-06
-1.35047e-12
6.72094e-06
-1.46986e-12
6.72094e-06
-2.13792e-13
6.72094e-06
5.58413e-15
6.72093e-06
4.7252e-12
6.72093e-06
5.36732e-12
6.72091e-06
1.86835e-11
6.7209e-06
2.03388e-11
6.72087e-06
4.10162e-11
6.72083e-06
5.05328e-11
6.72082e-06
1.54286e-11
6.72082e-06
5.85713e-12
6.72082e-06
-1.08728e-12
6.72082e-06
-6.15919e-12
6.72083e-06
-7.73286e-12
6.72083e-06
-8.88306e-12
6.72084e-06
-8.8768e-12
6.72085e-06
-9.12898e-12
6.72085e-06
-7.21164e-12
6.72086e-06
-7.25188e-12
6.72086e-06
3.08698e-13
6.72086e-06
-1.98933e-13
6.72084e-06
2.63918e-11
6.72082e-06
2.47314e-11
1.33296e-10
1.15733e-05
2.4758e-10
1.15733e-05
-5.61617e-11
1.15733e-05
-4.69146e-11
1.15733e-05
-4.33554e-13
1.15733e-05
1.87403e-11
1.15733e-05
3.33274e-11
1.15733e-05
3.67946e-11
1.15733e-05
3.49285e-11
1.15732e-05
3.07919e-11
1.15732e-05
2.5902e-11
1.15732e-05
2.08904e-11
1.15732e-05
1.56435e-11
1.15732e-05
1.00678e-11
1.15732e-05
4.37486e-12
1.15732e-05
-1.00112e-12
1.15732e-05
-5.69348e-12
1.15732e-05
-9.63107e-12
1.15732e-05
-1.30247e-11
1.15732e-05
-1.61525e-11
1.15732e-05
-1.9154e-11
1.15733e-05
-2.19846e-11
1.15733e-05
-2.45238e-11
1.15733e-05
-2.67112e-11
1.15733e-05
-2.86018e-11
1.15733e-05
-3.03162e-11
1.15733e-05
-3.19459e-11
1.15734e-05
-3.35019e-11
1.15734e-05
-3.49453e-11
1.15734e-05
-3.62393e-11
1.15734e-05
-3.7402e-11
1.15734e-05
-3.84814e-11
1.15735e-05
-3.95508e-11
1.15735e-05
-4.05914e-11
1.15735e-05
-4.16335e-11
1.15735e-05
-4.24672e-11
1.15736e-05
-4.32274e-11
1.15736e-05
-4.32485e-11
1.15736e-05
-4.32578e-11
1.15736e-05
-4.08568e-11
1.15736e-05
-3.93056e-11
1.15737e-05
-2.98271e-11
1.15737e-05
-2.57797e-11
1.15737e-05
1.37749e-12
1.15737e-05
9.29283e-12
1.15736e-05
5.45529e-11
1.15736e-05
7.62644e-11
1.15736e-05
2.11446e-11
1.15736e-05
1.79987e-12
1.15736e-05
-1.26863e-11
1.15736e-05
-2.10961e-11
1.15736e-05
-3.13142e-11
1.15736e-05
-3.34486e-11
1.15737e-05
-3.22105e-11
1.15737e-05
-3.00473e-11
1.15737e-05
-2.74899e-11
1.15737e-05
-2.51943e-11
1.15737e-05
-2.324e-11
1.15737e-05
-2.15744e-11
1.15737e-05
-2.00765e-11
1.15738e-05
-1.86088e-11
1.15738e-05
-1.70648e-11
1.15738e-05
-1.53823e-11
1.15738e-05
-1.35476e-11
1.15738e-05
-1.15849e-11
1.15738e-05
-9.5448e-12
1.15738e-05
-7.49075e-12
1.15738e-05
-5.48159e-12
1.15738e-05
-3.57234e-12
1.15738e-05
-1.80161e-12
1.15738e-05
-1.99248e-13
1.15738e-05
1.21952e-12
1.15738e-05
2.44671e-12
1.15738e-05
3.48187e-12
1.15738e-05
4.32955e-12
1.15738e-05
5.00069e-12
1.15738e-05
5.50675e-12
1.15738e-05
5.8666e-12
1.15738e-05
6.08646e-12
1.15738e-05
6.19959e-12
1.15738e-05
6.19192e-12
1.15738e-05
6.16143e-12
1.15738e-05
6.00298e-12
1.15738e-05
6.07663e-12
1.15738e-05
5.89198e-12
1.15738e-05
6.51044e-12
1.15738e-05
6.4515e-12
1.15738e-05
6.64707e-12
1.15737e-05
4.07163e-12
1.15737e-05
8.17855e-13
1.15737e-05
-1.05992e-12
1.15737e-05
-3.35352e-12
1.15737e-05
-2.68137e-12
1.15738e-05
-2.28854e-12
1.15738e-05
-2.25824e-12
1.15738e-05
-2.46346e-12
1.15738e-05
-2.27152e-12
1.15738e-05
-2.29202e-12
1.15738e-05
-1.29295e-13
1.15738e-05
9.44678e-13
1.15737e-05
9.58334e-12
1.15737e-05
1.24996e-11
1.15737e-05
3.78363e-11
1.15737e-05
4.40028e-11
1.15737e-05
8.53919e-11
1.15736e-05
1.05141e-10
1.15736e-05
4.02685e-11
1.15736e-05
1.61828e-11
1.15736e-05
3.55234e-13
1.15736e-05
-1.09814e-11
1.15736e-05
-1.54135e-11
1.15736e-05
-1.81532e-11
1.15736e-05
-1.8815e-11
1.15736e-05
-1.91437e-11
1.15736e-05
-1.62197e-11
1.15736e-05
-1.50008e-11
1.15736e-05
-1.94524e-12
1.15736e-05
1.06237e-12
1.15736e-05
4.95799e-11
1.15736e-05
5.63003e-11
2.62106e-10
1.6724e-05
4.10976e-10
1.67239e-05
-3.27036e-11
1.67239e-05
-4.9529e-11
1.67239e-05
9.95881e-12
1.67239e-05
3.91893e-11
1.67239e-05
6.03733e-11
1.67239e-05
6.54411e-11
1.67238e-05
6.17818e-11
1.67238e-05
5.4063e-11
1.67238e-05
4.48922e-11
1.67238e-05
3.55391e-11
1.67238e-05
2.60626e-11
1.67237e-05
1.6331e-11
1.67237e-05
6.53717e-12
1.67237e-05
-2.78208e-12
1.67238e-05
-1.10884e-11
1.67238e-05
-1.81931e-11
1.67238e-05
-2.43267e-11
1.67238e-05
-2.98796e-11
1.67238e-05
-3.51085e-11
1.67238e-05
-4.00159e-11
1.67238e-05
-4.44615e-11
1.67239e-05
-4.83449e-11
1.67239e-05
-5.17184e-11
1.67239e-05
-5.47438e-11
1.67239e-05
-5.7568e-11
1.6724e-05
-6.02395e-11
1.6724e-05
-6.27217e-11
1.6724e-05
-6.49665e-11
1.67241e-05
-6.699e-11
1.67241e-05
-6.88605e-11
1.67241e-05
-7.06795e-11
1.67241e-05
-7.24513e-11
1.67242e-05
-7.41974e-11
1.67242e-05
-7.56604e-11
1.67242e-05
-7.69198e-11
1.67243e-05
-7.71287e-11
1.67243e-05
-7.70207e-11
1.67243e-05
-7.3453e-11
1.67244e-05
-7.03616e-11
1.67244e-05
-5.5761e-11
1.67244e-05
-4.74647e-11
1.67244e-05
-5.03567e-12
1.67244e-05
1.13713e-11
1.67244e-05
8.40408e-11
1.67244e-05
1.21157e-10
1.67243e-05
4.04031e-11
1.67243e-05
5.70692e-12
1.67243e-05
-1.96673e-11
1.67243e-05
-3.48035e-11
1.67244e-05
-5.19927e-11
1.67244e-05
-5.67271e-11
1.67244e-05
-5.55163e-11
1.67244e-05
-5.22964e-11
1.67245e-05
-4.82669e-11
1.67245e-05
-4.45051e-11
1.67245e-05
-4.12147e-11
1.67245e-05
-3.83296e-11
1.67245e-05
-3.56605e-11
1.67245e-05
-3.2991e-11
1.67246e-05
-3.01535e-11
1.67246e-05
-2.70588e-11
1.67246e-05
-2.3696e-11
1.67246e-05
-2.01195e-11
1.67246e-05
-1.64223e-11
1.67246e-05
-1.27174e-11
1.67246e-05
-9.10964e-12
1.67246e-05
-5.69072e-12
1.67246e-05
-2.52875e-12
1.67246e-05
3.2804e-13
1.67246e-05
2.8528e-12
1.67246e-05
5.03524e-12
1.67246e-05
6.87491e-12
1.67246e-05
8.3833e-12
1.67246e-05
9.57892e-12
1.67246e-05
1.04836e-11
1.67246e-05
1.11281e-11
1.67246e-05
1.15294e-11
1.67246e-05
1.17357e-11
1.67246e-05
1.17429e-11
1.67246e-05
1.16843e-11
1.67246e-05
1.14423e-11
1.67245e-05
1.15168e-11
1.67245e-05
1.12607e-11
1.67245e-05
1.21823e-11
1.67245e-05
1.21817e-11
1.67245e-05
1.24532e-11
1.67245e-05
8.43884e-12
1.67245e-05
3.16345e-12
1.67245e-05
-2.19204e-13
1.67245e-05
-4.01889e-12
1.67245e-05
-3.30725e-12
1.67245e-05
-2.70603e-12
1.67245e-05
-2.63065e-12
1.67245e-05
-2.88266e-12
1.67245e-05
-2.65084e-12
1.67245e-05
-2.52485e-12
1.67245e-05
6.3846e-13
1.67245e-05
2.85186e-12
1.67245e-05
1.5946e-11
1.67245e-05
2.21346e-11
1.67245e-05
6.13773e-11
1.67244e-05
7.44649e-11
1.67244e-05
1.40692e-10
1.67243e-05
1.73766e-10
1.67243e-05
7.72521e-11
1.67243e-05
3.39018e-11
1.67243e-05
5.18869e-12
1.67243e-05
-1.48239e-11
1.67243e-05
-2.38569e-11
1.67243e-05
-2.92121e-11
1.67243e-05
-3.11932e-11
1.67243e-05
-3.19206e-11
1.67243e-05
-2.81204e-11
1.67243e-05
-2.53233e-11
1.67243e-05
-6.10352e-12
1.67243e-05
2.06616e-12
1.67243e-05
7.5871e-11
1.67243e-05
9.63399e-11
4.11019e-10
2.20971e-05
5.99361e-10
2.2097e-05
2.85592e-11
2.2097e-05
-2.55947e-11
2.2097e-05
3.40856e-11
2.2097e-05
6.96185e-11
2.20969e-05
9.54935e-11
2.20969e-05
1.01364e-10
2.20969e-05
9.51933e-11
2.20968e-05
8.27865e-11
2.20968e-05
6.7931e-11
2.20968e-05
5.28033e-11
2.20968e-05
3.78843e-11
2.20968e-05
2.30574e-11
2.20968e-05
8.37282e-12
2.20968e-05
-5.69194e-12
2.20968e-05
-1.84904e-11
2.20968e-05
-2.96577e-11
2.20968e-05
-3.93313e-11
2.20968e-05
-4.79516e-11
2.20968e-05
-5.59149e-11
2.20969e-05
-6.33467e-11
2.20969e-05
-7.01423e-11
2.20969e-05
-7.61681e-11
2.20969e-05
-8.14367e-11
2.2097e-05
-8.61165e-11
2.2097e-05
-9.04092e-11
2.2097e-05
-9.44265e-11
2.20971e-05
-9.81662e-11
2.20971e-05
-1.0158e-10
2.20972e-05
-1.04673e-10
2.20972e-05
-1.07518e-10
2.20972e-05
-1.10244e-10
2.20973e-05
-1.12882e-10
2.20973e-05
-1.15464e-10
2.20974e-05
-1.17684e-10
2.20974e-05
-1.19568e-10
2.20974e-05
-1.2005e-10
2.20975e-05
-1.19866e-10
2.20975e-05
-1.15058e-10
2.20976e-05
-1.10208e-10
2.20976e-05
-9.00378e-11
2.20976e-05
-7.65872e-11
2.20976e-05
-1.75659e-11
2.20976e-05
9.67464e-12
2.20976e-05
1.12791e-10
2.20976e-05
1.68411e-10
2.20975e-05
6.38197e-11
2.20975e-05
1.22776e-11
2.20975e-05
-2.64122e-11
2.20976e-05
-4.98948e-11
2.20976e-05
-7.54497e-11
2.20976e-05
-8.38629e-11
2.20976e-05
-8.33891e-11
2.20977e-05
-7.93787e-11
2.20977e-05
-7.39208e-11
2.20977e-05
-6.85964e-11
2.20977e-05
-6.37865e-11
2.20978e-05
-5.94346e-11
2.20978e-05
-5.52871e-11
2.20978e-05
-5.10512e-11
2.20978e-05
-4.65066e-11
2.20978e-05
-4.15467e-11
2.20978e-05
-3.6178e-11
2.20978e-05
-3.05004e-11
2.20979e-05
-2.46663e-11
2.20979e-05
-1.88484e-11
2.20979e-05
-1.32077e-11
2.20979e-05
-7.87951e-12
2.20979e-05
-2.96474e-12
2.20979e-05
1.46746e-12
2.20979e-05
5.37936e-12
2.20979e-05
8.75731e-12
2.20979e-05
1.16046e-11
2.20979e-05
1.39407e-11
2.20978e-05
1.57946e-11
2.20978e-05
1.72018e-11
2.20978e-05
1.82069e-11
2.20978e-05
1.88425e-11
2.20978e-05
1.9173e-11
2.20978e-05
1.92084e-11
2.20978e-05
1.91226e-11
2.20978e-05
1.8789e-11
2.20978e-05
1.88542e-11
2.20978e-05
1.85253e-11
2.20978e-05
1.97609e-11
2.20978e-05
1.9854e-11
2.20978e-05
2.02161e-11
2.20978e-05
1.47016e-11
2.20977e-05
7.21223e-12
2.20977e-05
2.02431e-12
2.20977e-05
-3.55209e-12
2.20977e-05
-2.99429e-12
2.20977e-05
-2.25725e-12
2.20977e-05
-2.11404e-12
2.20977e-05
-2.4013e-12
2.20977e-05
-2.11462e-12
2.20977e-05
-1.84472e-12
2.20977e-05
2.35219e-12
2.20977e-05
5.80305e-12
2.20977e-05
2.35887e-11
2.20977e-05
3.36584e-11
2.20977e-05
8.77364e-11
2.20977e-05
1.09606e-10
2.20976e-05
2.03162e-10
2.20975e-05
2.51964e-10
2.20975e-05
1.24791e-10
2.20974e-05
5.96911e-11
2.20974e-05
1.47201e-11
2.20974e-05
-1.62009e-11
2.20974e-05
-3.16092e-11
2.20975e-05
-4.07866e-11
2.20975e-05
-4.48717e-11
2.20975e-05
-4.65571e-11
2.20975e-05
-4.21361e-11
2.20975e-05
-3.78481e-11
2.20975e-05
-1.20916e-11
2.20975e-05
2.05003e-12
2.20975e-05
1.03218e-10
2.20974e-05
1.40838e-10
5.68665e-10
2.75157e-05
8.03091e-10
2.75156e-05
1.24981e-10
2.75156e-05
2.77715e-11
2.75155e-05
7.45583e-11
2.75155e-05
1.09969e-10
2.75155e-05
1.37241e-10
2.75154e-05
1.42555e-10
2.75154e-05
1.33234e-10
2.75153e-05
1.15458e-10
2.75153e-05
9.39965e-11
2.75153e-05
7.20506e-11
2.75153e-05
5.07526e-11
2.75153e-05
3.01216e-11
2.75153e-05
1.00094e-11
2.75153e-05
-9.31436e-12
2.75153e-05
-2.72043e-11
2.75153e-05
-4.31119e-11
2.75153e-05
-5.69838e-11
2.75153e-05
-6.9223e-11
2.75154e-05
-8.03494e-11
2.75154e-05
-9.06625e-11
2.75154e-05
-1.00157e-10
2.75155e-05
-1.08691e-10
2.75155e-05
-1.16215e-10
2.75155e-05
-1.22864e-10
2.75156e-05
-1.28879e-10
2.75156e-05
-1.34448e-10
2.75156e-05
-1.39633e-10
2.75157e-05
-1.44406e-10
2.75157e-05
-1.48757e-10
2.75158e-05
-1.52752e-10
2.75158e-05
-1.56535e-10
2.75159e-05
-1.60168e-10
2.75159e-05
-1.63708e-10
2.7516e-05
-1.66802e-10
2.7516e-05
-1.6944e-10
2.75161e-05
-1.70302e-10
2.75161e-05
-1.70137e-10
2.75162e-05
-1.64127e-10
2.75162e-05
-1.5748e-10
2.75163e-05
-1.31633e-10
2.75163e-05
-1.1257e-10
2.75163e-05
-3.65453e-11
2.75163e-05
3.04694e-12
2.75163e-05
1.38114e-10
2.75162e-05
2.14539e-10
2.75162e-05
8.93991e-11
2.75162e-05
2.14037e-11
2.75162e-05
-3.18259e-11
2.75162e-05
-6.48217e-11
2.75163e-05
-9.97985e-11
2.75163e-05
-1.12915e-10
2.75163e-05
-1.14043e-10
2.75163e-05
-1.09773e-10
2.75164e-05
-1.03175e-10
2.75164e-05
-9.639e-11
2.75164e-05
-9.00207e-11
2.75165e-05
-8.40518e-11
2.75165e-05
-7.81874e-11
2.75165e-05
-7.20788e-11
2.75165e-05
-6.54727e-11
2.75165e-05
-5.82643e-11
2.75165e-05
-5.04962e-11
2.75166e-05
-4.23282e-11
2.75166e-05
-3.39823e-11
2.75166e-05
-2.56998e-11
2.75166e-05
-1.77014e-11
2.75166e-05
-1.01683e-11
2.75166e-05
-3.23374e-12
2.75166e-05
3.01111e-12
2.75166e-05
8.51889e-12
2.75166e-05
1.32736e-11
2.75166e-05
1.72834e-11
2.75166e-05
2.05783e-11
2.75166e-05
2.31999e-11
2.75165e-05
2.51983e-11
2.75165e-05
2.66335e-11
2.75165e-05
2.75547e-11
2.75165e-05
2.80474e-11
2.75165e-05
2.81355e-11
2.75165e-05
2.80367e-11
2.75165e-05
2.7619e-11
2.75165e-05
2.76763e-11
2.75165e-05
2.72817e-11
2.75165e-05
2.88369e-11
2.75165e-05
2.90597e-11
2.75164e-05
2.95429e-11
2.75164e-05
2.25704e-11
2.75164e-05
1.28262e-11
2.75164e-05
5.66646e-12
2.75164e-05
-1.86699e-12
2.75164e-05
-1.65827e-12
2.75164e-05
-8.95478e-13
2.75164e-05
-6.92867e-13
2.75164e-05
-1.01431e-12
2.75164e-05
-6.73401e-13
2.75164e-05
-3.00861e-13
2.75164e-05
4.87202e-12
2.75164e-05
9.50412e-12
2.75164e-05
3.19112e-11
2.75164e-05
4.60852e-11
2.75164e-05
1.15103e-10
2.75163e-05
1.46886e-10
2.75163e-05
2.68866e-10
2.75162e-05
3.35174e-10
2.75161e-05
1.80161e-10
2.75161e-05
9.29921e-11
2.75161e-05
2.97261e-11
2.75161e-05
-1.38566e-11
2.75161e-05
-3.72311e-11
2.75161e-05
-5.14661e-11
2.75161e-05
-5.85398e-11
2.75161e-05
-6.18859e-11
2.75161e-05
-5.72854e-11
2.75161e-05
-5.18656e-11
2.75162e-05
-1.96538e-11
2.75162e-05
6.17794e-13
2.75161e-05
1.29783e-10
2.75161e-05
1.85736e-10
7.26142e-10
3.27599e-05
1.01156e-09
3.27597e-05
2.48113e-10
3.27597e-05
1.06687e-10
3.27596e-05
1.30592e-10
3.27596e-05
1.58983e-10
3.27595e-05
1.83723e-10
3.27595e-05
1.86723e-10
3.27594e-05
1.73665e-10
3.27594e-05
1.5033e-10
3.27594e-05
1.2205e-10
3.27593e-05
9.29195e-11
3.27593e-05
6.47961e-11
3.27593e-05
3.796e-11
3.27593e-05
1.21197e-11
3.27593e-05
-1.27065e-11
3.27593e-05
-3.59628e-11
3.27593e-05
-5.6966e-11
3.27594e-05
-7.54477e-11
3.27594e-05
-9.17079e-11
3.27594e-05
-1.06342e-10
3.27594e-05
-1.19821e-10
3.27595e-05
-1.32275e-10
3.27595e-05
-1.43583e-10
3.27595e-05
-1.5364e-10
3.27596e-05
-1.62531e-10
3.27596e-05
-1.70509e-10
3.27597e-05
-1.77834e-10
3.27597e-05
-1.84643e-10
3.27598e-05
-1.90944e-10
3.27598e-05
-1.96727e-10
3.27599e-05
-2.02041e-10
3.27599e-05
-2.07044e-10
3.276e-05
-2.11817e-10
3.276e-05
-2.16451e-10
3.27601e-05
-2.20552e-10
3.27601e-05
-2.24082e-10
3.27602e-05
-2.25468e-10
3.27602e-05
-2.25471e-10
3.27603e-05
-2.18416e-10
3.27603e-05
-2.10099e-10
3.27604e-05
-1.78785e-10
3.27604e-05
-1.54086e-10
3.27604e-05
-6.1399e-11
3.27605e-05
-8.83519e-12
3.27604e-05
1.58397e-10
3.27604e-05
2.57235e-10
3.27604e-05
1.15441e-10
3.27604e-05
3.26938e-11
3.27604e-05
-3.50102e-11
3.27604e-05
-7.80609e-11
3.27604e-05
-1.23111e-10
3.27604e-05
-1.41818e-10
3.27605e-05
-1.45463e-10
3.27605e-05
-1.41654e-10
3.27605e-05
-1.34421e-10
3.27606e-05
-1.26468e-10
3.27606e-05
-1.18651e-10
3.27606e-05
-1.11034e-10
3.27606e-05
-1.03316e-10
3.27607e-05
-9.51314e-11
3.27607e-05
-8.62239e-11
3.27607e-05
-7.65163e-11
3.27607e-05
-6.61058e-11
3.27607e-05
-5.52204e-11
3.27607e-05
-4.41574e-11
3.27607e-05
-3.32268e-11
3.27607e-05
-2.27066e-11
3.27608e-05
-1.28219e-11
3.27608e-05
-3.73565e-12
3.27607e-05
4.44323e-12
3.27607e-05
1.16576e-11
3.27607e-05
1.78909e-11
3.27607e-05
2.31563e-11
3.27607e-05
2.74945e-11
3.27607e-05
3.09612e-11
3.27607e-05
3.36205e-11
3.27607e-05
3.55488e-11
3.27607e-05
3.68101e-11
3.27607e-05
3.75123e-11
3.27607e-05
3.76933e-11
3.27607e-05
3.76149e-11
3.27607e-05
3.71418e-11
3.27606e-05
3.72103e-11
3.27606e-05
3.67737e-11
3.27606e-05
3.86576e-11
3.27606e-05
3.90518e-11
3.27606e-05
3.97079e-11
3.27606e-05
3.13982e-11
3.27606e-05
1.94831e-11
3.27606e-05
1.03135e-11
3.27606e-05
7.39466e-13
3.27606e-05
4.32856e-13
3.27606e-05
1.09975e-12
3.27606e-05
1.31947e-12
3.27606e-05
9.44108e-13
3.27606e-05
1.30549e-12
3.27606e-05
1.69996e-12
3.27606e-05
7.69688e-12
3.27606e-05
1.33312e-11
3.27606e-05
4.00395e-11
3.27605e-05
5.81994e-11
3.27605e-05
1.41645e-10
3.27605e-05
1.83743e-10
3.27604e-05
3.34161e-10
3.27603e-05
4.1931e-10
3.27603e-05
2.40239e-10
3.27602e-05
1.32328e-10
3.27602e-05
5.02717e-11
3.27602e-05
-6.98303e-12
3.27602e-05
-3.95337e-11
3.27602e-05
-5.99253e-11
3.27602e-05
-7.08909e-11
3.27602e-05
-7.66553e-11
3.27603e-05
-7.24851e-11
3.27603e-05
-6.64629e-11
3.27603e-05
-2.83242e-11
3.27603e-05
-2.27338e-12
3.27603e-05
1.54158e-10
3.27602e-05
2.27849e-10
8.75914e-10
3.76843e-05
1.2143e-09
3.76841e-05
3.87319e-10
3.7684e-05
2.04473e-10
3.7684e-05
1.99865e-10
3.76839e-05
2.15496e-10
3.76839e-05
2.33831e-10
3.76838e-05
2.32507e-10
3.76838e-05
2.15008e-10
3.76837e-05
1.8614e-10
3.76837e-05
1.5131e-10
3.76837e-05
1.1519e-10
3.76837e-05
8.02631e-11
3.76837e-05
4.71289e-11
3.76837e-05
1.54612e-11
3.76837e-05
-1.49175e-11
3.76837e-05
-4.35692e-11
3.76837e-05
-6.97438e-11
3.76837e-05
-9.29975e-11
3.76837e-05
-1.1351e-10
3.76837e-05
-1.31898e-10
3.76838e-05
-1.48765e-10
3.76838e-05
-1.64367e-10
3.76838e-05
-1.78632e-10
3.76839e-05
-1.91421e-10
3.76839e-05
-2.02771e-10
3.7684e-05
-2.12932e-10
3.7684e-05
-2.22215e-10
3.7684e-05
-2.30825e-10
3.76841e-05
-2.38817e-10
3.76841e-05
-2.46191e-10
3.76842e-05
-2.52991e-10
3.76842e-05
-2.5938e-10
3.76843e-05
-2.65458e-10
3.76844e-05
-2.71341e-10
3.76844e-05
-2.766e-10
3.76845e-05
-2.81175e-10
3.76845e-05
-2.83258e-10
3.76846e-05
-2.83616e-10
3.76846e-05
-2.7576e-10
3.76847e-05
-2.66014e-10
3.76848e-05
-2.29656e-10
3.76848e-05
-1.99613e-10
3.76848e-05
-9.10708e-11
3.76848e-05
-2.56389e-11
3.76848e-05
1.73133e-10
3.76848e-05
2.95375e-10
3.76848e-05
1.40632e-10
3.76848e-05
4.5449e-11
3.76848e-05
-3.56761e-11
3.76848e-05
-8.86719e-11
3.76848e-05
-1.44013e-10
3.76848e-05
-1.68966e-10
3.76848e-05
-1.75953e-10
3.76849e-05
-1.73389e-10
3.76849e-05
-1.66144e-10
3.76849e-05
-1.57443e-10
3.7685e-05
-1.48409e-10
3.7685e-05
-1.39218e-10
3.7685e-05
-1.29612e-10
3.7685e-05
-1.19255e-10
3.76851e-05
-1.07928e-10
3.76851e-05
-9.56093e-11
3.76851e-05
-8.24646e-11
3.76851e-05
-6.87976e-11
3.76851e-05
-5.49772e-11
3.76851e-05
-4.13773e-11
3.76851e-05
-2.83265e-11
3.76851e-05
-1.60862e-11
3.76851e-05
-4.84455e-12
3.76851e-05
5.27657e-12
3.76851e-05
1.42124e-11
3.76851e-05
2.19462e-11
3.76851e-05
2.84976e-11
3.76851e-05
3.39165e-11
3.76851e-05
3.82712e-11
3.76851e-05
4.1639e-11
3.76851e-05
4.41109e-11
3.76851e-05
4.57651e-11
3.76851e-05
4.67287e-11
3.76851e-05
4.70533e-11
3.76851e-05
4.70434e-11
3.76851e-05
4.65603e-11
3.7685e-05
4.66756e-11
3.7685e-05
4.62345e-11
3.7685e-05
4.84655e-11
3.7685e-05
4.90792e-11
3.7685e-05
4.99772e-11
3.7685e-05
4.04932e-11
3.7685e-05
2.65643e-11
3.7685e-05
1.54462e-11
3.7685e-05
3.83567e-12
3.7685e-05
2.90061e-12
3.7685e-05
3.36899e-12
3.7685e-05
3.54452e-12
3.7685e-05
3.07225e-12
3.7685e-05
3.3837e-12
3.7685e-05
3.68199e-12
3.7685e-05
1.02796e-11
3.7685e-05
1.66515e-11
3.7685e-05
4.71852e-11
3.76849e-05
6.89742e-11
3.76849e-05
1.65985e-10
3.76849e-05
2.18242e-10
3.76848e-05
3.96468e-10
3.76847e-05
5.0141e-10
3.76847e-05
3.02143e-10
3.76846e-05
1.7573e-10
3.76846e-05
7.56531e-11
3.76846e-05
4.53346e-12
3.76846e-05
-3.78902e-11
3.76846e-05
-6.5261e-11
3.76846e-05
-8.09238e-11
3.76846e-05
-8.983e-11
3.76846e-05
-8.67812e-11
3.76847e-05
-8.07676e-11
3.76847e-05
-3.75235e-11
3.76847e-05
-6.35922e-12
3.76846e-05
1.75603e-10
3.76846e-05
2.65673e-10
1.01248e-09
4.22577e-05
1.40325e-09
4.22575e-05
5.32554e-10
4.22574e-05
3.14115e-10
4.22574e-05
2.79578e-10
4.22573e-05
2.78688e-10
4.22572e-05
2.87344e-10
4.22572e-05
2.79643e-10
4.22571e-05
2.56813e-10
4.22571e-05
2.22364e-10
4.22571e-05
1.81359e-10
4.22571e-05
1.38683e-10
4.2257e-05
9.72389e-11
4.2257e-05
5.79317e-11
4.2257e-05
2.04936e-11
4.2257e-05
-1.53597e-11
4.2257e-05
-4.92925e-11
4.2257e-05
-8.05429e-11
4.22571e-05
-1.08555e-10
4.22571e-05
-1.33402e-10
4.22571e-05
-1.55689e-10
4.22571e-05
-1.76093e-10
4.22572e-05
-1.94975e-10
4.22572e-05
-2.12316e-10
4.22572e-05
-2.2797e-10
4.22573e-05
-2.41942e-10
4.22573e-05
-2.54469e-10
4.22574e-05
-2.65893e-10
4.22574e-05
-2.76472e-10
4.22574e-05
-2.86305e-10
4.22575e-05
-2.95418e-10
4.22575e-05
-3.03858e-10
4.22576e-05
-3.11797e-10
4.22577e-05
-3.19346e-10
4.22577e-05
-3.26638e-10
4.22578e-05
-3.33215e-10
4.22578e-05
-3.38995e-10
4.22579e-05
-3.4196e-10
4.22579e-05
-3.42873e-10
4.2258e-05
-3.34499e-10
4.22581e-05
-3.23621e-10
4.22581e-05
-2.82733e-10
4.22582e-05
-2.47804e-10
4.22582e-05
-1.24405e-10
4.22582e-05
-4.66453e-11
4.22582e-05
1.82679e-10
4.22582e-05
3.28795e-10
4.22581e-05
1.6408e-10
4.22581e-05
5.879e-11
4.22581e-05
-3.41711e-11
4.22581e-05
-9.64758e-11
4.22582e-05
-1.61926e-10
4.22582e-05
-1.93479e-10
4.22582e-05
-2.04436e-10
4.22582e-05
-2.03818e-10
4.22583e-05
-1.9718e-10
4.22583e-05
-1.8819e-10
4.22583e-05
-1.78221e-10
4.22584e-05
-1.67591e-10
4.22584e-05
-1.56134e-10
4.22584e-05
-1.43591e-10
4.22584e-05
-1.29823e-10
4.22585e-05
-1.14889e-10
4.22585e-05
-9.90359e-11
4.22585e-05
-8.26441e-11
4.22585e-05
-6.61493e-11
4.22585e-05
-4.99795e-11
4.22585e-05
-3.45037e-11
4.22585e-05
-2.00113e-11
4.22585e-05
-6.70818e-12
4.22585e-05
5.27486e-12
4.22585e-05
1.58695e-11
4.22585e-05
2.50605e-11
4.22585e-05
3.28726e-11
4.22585e-05
3.93641e-11
4.22585e-05
4.46149e-11
4.22585e-05
4.87124e-11
4.22585e-05
5.176e-11
4.22585e-05
5.38476e-11
4.22585e-05
5.51192e-11
4.22585e-05
5.56385e-11
4.22584e-05
5.57481e-11
4.22584e-05
5.53074e-11
4.22584e-05
5.55135e-11
4.22584e-05
5.51124e-11
4.22584e-05
5.77176e-11
4.22584e-05
5.86036e-11
4.22584e-05
5.98195e-11
4.22584e-05
4.93289e-11
4.22584e-05
3.35712e-11
4.22584e-05
2.06252e-11
4.22584e-05
7.0486e-12
4.22584e-05
5.43975e-12
4.22584e-05
5.64771e-12
4.22584e-05
5.71948e-12
4.22584e-05
5.09203e-12
4.22584e-05
5.25186e-12
4.22584e-05
5.30266e-12
4.22584e-05
1.22325e-11
4.22584e-05
1.90264e-11
4.22583e-05
5.28418e-11
4.22583e-05
7.7778e-11
4.22583e-05
1.87369e-10
4.22583e-05
2.49292e-10
4.22582e-05
4.54463e-10
4.22581e-05
5.7979e-10
4.22581e-05
3.63605e-10
4.2258e-05
2.21148e-10
4.2258e-05
1.04581e-10
4.2258e-05
2.00999e-11
4.2258e-05
-3.23506e-11
4.2258e-05
-6.71608e-11
4.2258e-05
-8.81209e-11
4.2258e-05
-1.00773e-10
4.2258e-05
-9.95128e-11
4.2258e-05
-9.4116e-11
4.2258e-05
-4.67013e-11
4.22581e-05
-1.12076e-11
4.2258e-05
1.94001e-10
4.2258e-05
2.99129e-10
1.13322e-09
4.6519e-05
1.57386e-09
4.65188e-05
6.75926e-10
4.65187e-05
4.29175e-10
4.65186e-05
3.66497e-10
4.65186e-05
3.47502e-10
4.65185e-05
3.44222e-10
4.65184e-05
3.28363e-10
4.65184e-05
2.99233e-10
4.65184e-05
2.58989e-10
4.65183e-05
2.12071e-10
4.65183e-05
1.63256e-10
4.65183e-05
1.15653e-10
4.65183e-05
7.04052e-11
4.65183e-05
2.73539e-11
4.65183e-05
-1.38154e-11
4.65183e-05
-5.2842e-11
4.65183e-05
-8.89865e-11
4.65183e-05
-1.2164e-10
4.65183e-05
-1.50797e-10
4.65183e-05
-1.77031e-10
4.65184e-05
-2.01051e-10
4.65184e-05
-2.23286e-10
4.65184e-05
-2.43772e-10
4.65185e-05
-2.62374e-10
4.65185e-05
-2.79079e-10
4.65185e-05
-2.9411e-10
4.65186e-05
-3.07823e-10
4.65186e-05
-3.20513e-10
4.65187e-05
-3.32321e-10
4.65187e-05
-3.43301e-10
4.65188e-05
-3.53519e-10
4.65188e-05
-3.63156e-10
4.65189e-05
-3.7233e-10
4.65189e-05
-3.81184e-10
4.6519e-05
-3.89232e-10
4.6519e-05
-3.96371e-10
4.65191e-05
-4.004e-10
4.65192e-05
-4.02067e-10
4.65192e-05
-3.93457e-10
4.65193e-05
-3.81754e-10
4.65193e-05
-3.36866e-10
4.65194e-05
-2.97564e-10
4.65194e-05
-1.60317e-10
4.65194e-05
-7.09733e-11
4.65194e-05
1.87898e-10
4.65194e-05
3.58001e-10
4.65194e-05
1.85388e-10
4.65194e-05
7.19505e-11
4.65194e-05
-3.11436e-11
4.65194e-05
-1.01811e-10
4.65194e-05
-1.76895e-10
4.65194e-05
-2.1511e-10
4.65194e-05
-2.30412e-10
4.65195e-05
-2.32267e-10
4.65195e-05
-2.26748e-10
4.65195e-05
-2.17873e-10
4.65195e-05
-2.07235e-10
4.65196e-05
-1.95313e-10
4.65196e-05
-1.82077e-10
4.65196e-05
-1.67389e-10
4.65196e-05
-1.51226e-10
4.65197e-05
-1.33749e-10
4.65197e-05
-1.15296e-10
4.65197e-05
-9.63199e-11
4.65197e-05
-7.73161e-11
4.65197e-05
-5.87557e-11
4.65197e-05
-4.10373e-11
4.65197e-05
-2.44681e-11
4.65197e-05
-9.26469e-12
4.65197e-05
4.43832e-12
4.65197e-05
1.65728e-11
4.65197e-05
2.7126e-11
4.65197e-05
3.61284e-11
4.65197e-05
4.36458e-11
4.65197e-05
4.97665e-11
4.65197e-05
5.45871e-11
4.65197e-05
5.82197e-11
4.65197e-05
6.07635e-11
4.65197e-05
6.23763e-11
4.65197e-05
6.31321e-11
4.65197e-05
6.34068e-11
4.65197e-05
6.30581e-11
4.65197e-05
6.33989e-11
4.65196e-05
6.30841e-11
4.65196e-05
6.6095e-11
4.65196e-05
6.73083e-11
4.65196e-05
6.89192e-11
4.65196e-05
5.7574e-11
4.65196e-05
4.01671e-11
4.65196e-05
2.55404e-11
4.65196e-05
1.01115e-11
4.65196e-05
7.84814e-12
4.65196e-05
7.7831e-12
4.65196e-05
7.70838e-12
4.65196e-05
6.85839e-12
4.65196e-05
6.73943e-12
4.65196e-05
6.36137e-12
4.65196e-05
1.33249e-11
4.65196e-05
2.0199e-11
4.65196e-05
5.67393e-11
4.65196e-05
8.42979e-11
4.65196e-05
2.05504e-10
4.65195e-05
2.76441e-10
4.65195e-05
5.07739e-10
4.65194e-05
6.53774e-10
4.65193e-05
4.231e-10
4.65193e-05
2.66806e-10
4.65193e-05
1.35555e-10
4.65192e-05
3.86738e-11
4.65192e-05
-2.34944e-11
4.65192e-05
-6.58328e-11
4.65192e-05
-9.24289e-11
4.65192e-05
-1.09253e-10
4.65193e-05
-1.10343e-10
4.65193e-05
-1.06103e-10
4.65193e-05
-5.54381e-11
4.65193e-05
-1.63787e-11
4.65193e-05
2.0959e-10
4.65192e-05
3.2878e-10
1.23792e-09
5.0529e-05
1.72437e-09
5.05288e-05
8.12135e-10
5.05287e-05
5.44298e-10
5.05286e-05
4.57132e-10
5.05285e-05
4.20316e-10
5.05285e-05
4.04048e-10
5.05284e-05