/*--------------------------------*- C++ -*----------------------------------*\
  =========                 |
  \\      /  F ield         | OpenFOAM: The Open Source CFD Toolbox
   \\    /   O peration     | Website:  https://openfoam.org
    \\  /    A nd           | Version:  7
     \\/     M anipulation  |
\*---------------------------------------------------------------------------*/
FoamFile
{
    version     2.0;
    format      ascii;
    class       volVectorField;
    location    "2500";
    object      U;
}
// * * * * * * * * * * * * * * * * * * * * * * * * * * * * * * * * * * * * * //

dimensions      [0 1 -1 0 0 0 0];

internalField   nonuniform List<vector> 
24000
(
(0.00429708 5.90962e-10 3.37317e-17)
(0.00429707 -8.51049e-10 2.12913e-17)
(0.00429713 -7.61573e-11 2.15092e-17)
(0.00429713 -5.88253e-11 -4.53794e-17)
(0.00429713 -1.39519e-12 -3.3528e-16)
(0.00429712 4.9465e-11 -5.56775e-17)
(0.00429711 5.21854e-11 -3.11482e-16)
(0.00429711 5.03263e-11 -4.63926e-17)
(0.0042971 4.34508e-11 -3.02993e-18)
(0.00429709 3.80153e-11 -2.59951e-16)
(0.00429709 3.41771e-11 -2.44376e-17)
(0.00429708 2.94124e-11 -2.05512e-17)
(0.00429708 2.21399e-11 -1.74919e-17)
(0.00429708 1.28061e-11 -3.93993e-17)
(0.00429708 3.46413e-12 -5.79755e-17)
(0.00429708 -3.92723e-12 -2.74798e-17)
(0.00429708 -8.87683e-12 -4.03212e-17)
(0.00429708 -1.24054e-11 -3.85247e-17)
(0.00429708 -1.59211e-11 -6.10156e-17)
(0.00429709 -2.01309e-11 -8.48598e-17)
(0.00429709 -2.47191e-11 -3.0308e-17)
(0.0042971 -2.88654e-11 -7.14102e-17)
(0.0042971 -3.20475e-11 -5.6216e-17)
(0.00429711 -3.44337e-11 -7.84711e-17)
(0.00429711 -3.65649e-11 -1.26555e-16)
(0.00429712 -3.8939e-11 -4.56305e-17)
(0.00429713 -4.15288e-11 -6.99102e-17)
(0.00429713 -4.41216e-11 -5.3061e-17)
(0.00429714 -4.6268e-11 -8.67667e-17)
(0.00429715 -4.82065e-11 -1.53503e-16)
(0.00429716 -4.96406e-11 -6.21863e-17)
(0.00429717 -5.17161e-11 -8.40723e-17)
(0.00429718 -5.28928e-11 -6.46486e-17)
(0.00429718 -5.59059e-11 -9.71287e-17)
(0.00429719 -5.54037e-11 -1.5596e-16)
(0.0042972 -5.99474e-11 -5.97621e-17)
(0.00429721 -5.37517e-11 -6.34621e-17)
(0.00429722 -6.29373e-11 -5.84993e-17)
(0.00429723 -4.12755e-11 -8.60682e-17)
(0.00429724 -6.31136e-11 -1.29332e-16)
(0.00429725 -2.97632e-12 -9.84256e-17)
(0.00429725 -5.05517e-11 4.64829e-17)
(0.00429725 8.07491e-11 -5.52112e-17)
(0.00429725 1.82279e-11 -5.75386e-17)
(0.00429725 1.63081e-10 -4.92319e-17)
(0.00429722 2.19624e-10 -3.92694e-17)
(0.00429721 -5.96702e-11 1.18099e-16)
(0.00429721 9.63539e-12 -2.13516e-17)
(0.00429721 -4.59314e-11 -2.75361e-17)
(0.00429721 -3.70579e-11 -1.95922e-17)
(0.00429722 -7.00285e-11 -1.44973e-17)
(0.00429723 -5.64564e-11 1.53042e-16)
(0.00429724 -5.15731e-11 -1.81864e-18)
(0.00429725 -4.51088e-11 1.31806e-16)
(0.00429725 -3.8867e-11 -2.52538e-17)
(0.00429726 -3.44096e-11 7.2608e-18)
(0.00429726 -3.09428e-11 2.04864e-16)
(0.00429727 -2.84455e-11 2.1003e-17)
(0.00429727 -2.65251e-11 2.29346e-16)
(0.00429728 -2.48616e-11 -1.51774e-17)
(0.00429728 -2.32208e-11 2.80659e-17)
(0.00429728 -2.14215e-11 1.73449e-16)
(0.00429729 -1.94054e-11 3.01134e-17)
(0.00429729 -1.71451e-11 2.57973e-16)
(0.00429729 -1.47161e-11 -4.60957e-17)
(0.00429729 -1.22064e-11 3.50663e-17)
(0.0042973 -9.70534e-12 1.8904e-16)
(0.0042973 -7.30582e-12 3.34918e-17)
(0.0042973 -5.07204e-12 2.044e-16)
(0.0042973 -3.04545e-12 -1.35394e-17)
(0.0042973 -1.25633e-12 4.71826e-17)
(0.0042973 2.9822e-13 2.93353e-16)
(0.0042973 1.60008e-12 5.11969e-17)
(0.0042973 2.61814e-12 3.04078e-16)
(0.0042973 3.42478e-12 7.44775e-19)
(0.0042973 3.93919e-12 5.99069e-17)
(0.00429729 4.359e-12 2.1976e-16)
(0.00429729 4.40528e-12 5.73214e-17)
(0.00429729 4.64816e-12 2.2133e-16)
(0.00429729 4.1366e-12 1.17937e-17)
(0.00429729 4.60759e-12 -1.59106e-16)
(0.00429729 3.27218e-12 -5.1569e-17)
(0.00429729 4.97471e-12 4.27856e-17)
(0.00429729 2.48965e-12 -1.55321e-16)
(0.00429729 6.66929e-12 -5.42723e-17)
(0.00429728 3.45943e-12 -2.35954e-16)
(0.00429728 6.34604e-12 -1.98298e-17)
(0.00429728 -2.54821e-12 3.88672e-17)
(0.00429728 -1.08538e-11 -2.44303e-16)
(0.00429728 -9.31117e-12 -5.71208e-17)
(0.00429728 -1.79887e-11 -1.96442e-16)
(0.00429728 -9.3657e-12 -2.89541e-17)
(0.00429729 -1.13659e-11 3.70216e-17)
(0.00429729 -9.67118e-12 -2.64518e-16)
(0.00429729 -1.35885e-11 -5.62199e-17)
(0.00429729 -7.74553e-12 -2.35943e-16)
(0.00429729 -1.7021e-11 -2.01498e-17)
(0.00429729 3.7321e-12 3.94572e-17)
(0.00429729 -1.8059e-11 -1.4559e-16)
(0.00429729 3.97386e-11 -6.76942e-17)
(0.00429729 -7.06732e-12 -2.36153e-16)
(0.00429728 1.17988e-10 -5.55598e-17)
(0.00429727 5.93699e-11 1.95846e-17)
(0.00429726 1.88075e-10 -1.59941e-16)
(0.00429722 2.55744e-10 -8.40046e-17)
(0.00429721 -5.77635e-11 -1.78379e-16)
(0.00429721 1.18936e-11 -8.35078e-17)
(0.00429721 -3.25809e-11 1.94779e-17)
(0.00429721 -4.37729e-11 -2.15788e-16)
(0.00429721 -3.69282e-11 -4.31904e-17)
(0.00429722 -4.54741e-11 -1.90446e-16)
(0.00429722 -3.08091e-11 -2.44362e-16)
(0.00429723 -4.85455e-11 8.23209e-18)
(0.00429723 -5.68458e-12 -1.68144e-16)
(0.00429724 -5.89733e-11 -6.91359e-17)
(0.00429724 6.69636e-11 -1.60065e-16)
(0.00429724 -7.74318e-11 -2.54848e-16)
(0.00429723 2.61835e-10 1.37501e-17)
(0.00429722 -4.74001e-11 -1.37478e-16)
(0.00429719 8.44535e-10 -2.86661e-17)
(0.0129714 6.46702e-09 1.03868e-16)
(0.0129714 -3.76051e-09 6.48156e-17)
(0.0129715 -1.76942e-09 6.59161e-17)
(0.0129715 -2.0627e-10 -1.48785e-16)
(0.0129715 2.75753e-10 -6.05528e-16)
(0.0129715 7.44304e-10 -1.57922e-16)
(0.0129715 8.36099e-10 -5.42195e-16)
(0.0129714 8.01134e-10 -1.27349e-16)
(0.0129714 7.14863e-10 -1.06239e-17)
(0.0129714 6.14331e-10 -6.04751e-16)
(0.0129714 5.11277e-10 -6.35621e-17)
(0.0129714 3.96125e-10 -6.37111e-17)
(0.0129714 2.65695e-10 -5.26196e-17)
(0.0129714 1.28825e-10 -1.19741e-16)
(0.0129714 9.38219e-13 -1.84196e-16)
(0.0129714 -1.06681e-10 -8.53451e-17)
(0.0129714 -1.93606e-10 -1.22877e-16)
(0.0129714 -2.68054e-10 -1.15978e-16)
(0.0129714 -3.38914e-10 -1.84314e-16)
(0.0129714 -4.09363e-10 -2.56537e-16)
(0.0129714 -4.76601e-10 -8.65736e-17)
(0.0129714 -5.36074e-10 -2.16127e-16)
(0.0129714 -5.86028e-10 -1.68456e-16)
(0.0129714 -6.28763e-10 -2.29503e-16)
(0.0129715 -6.68231e-10 -3.85292e-16)
(0.0129715 -7.07015e-10 -1.37256e-16)
(0.0129715 -7.44721e-10 -2.16956e-16)
(0.0129715 -7.79803e-10 -1.60653e-16)
(0.0129716 -8.10723e-10 -2.58225e-16)
(0.0129716 -8.38595e-10 -4.60203e-16)
(0.0129716 -8.6426e-10 -1.79614e-16)
(0.0129716 -8.9101e-10 -2.54473e-16)
(0.0129716 -9.16126e-10 -1.96041e-16)
(0.0129717 -9.43523e-10 -2.8777e-16)
(0.0129717 -9.61235e-10 -4.7239e-16)
(0.0129717 -9.8368e-10 -1.71828e-16)
(0.0129718 -9.74351e-10 -1.87906e-16)
(0.0129718 -9.85631e-10 -1.74554e-16)
(0.0129718 -8.97421e-10 -2.58095e-16)
(0.0129718 -8.91776e-10 -3.89985e-16)
(0.0129719 -5.7855e-10 -2.96047e-16)
(0.0129719 -5.63094e-10 -2.0597e-16)
(0.0129719 2.85213e-10 -1.72922e-16)
(0.0129719 3.31325e-10 -1.73558e-16)
(0.0129719 1.63529e-09 -1.47774e-16)
(0.0129718 2.16317e-09 -1.17152e-16)
(0.0129718 2.81015e-10 -3.99511e-17)
(0.0129718 -2.10096e-11 -7.06423e-17)
(0.0129718 -3.79129e-10 -8.28058e-17)
(0.0129718 -5.50348e-10 -5.85747e-17)
(0.0129718 -8.21346e-10 -4.2359e-17)
(0.0129718 -8.28882e-10 4.9845e-17)
(0.0129718 -7.73714e-10 -1.06367e-17)
(0.0129719 -7.08951e-10 4.35417e-17)
(0.0129719 -6.37284e-10 -4.5237e-17)
(0.0129719 -5.77602e-10 2.88683e-17)
(0.0129719 -5.28895e-10 1.45975e-16)
(0.0129719 -4.89385e-10 5.61614e-17)
(0.0129719 -4.55599e-10 1.12105e-16)
(0.012972 -4.23758e-10 -5.23531e-17)
(0.012972 -3.90874e-10 8.79122e-17)
(0.012972 -3.55073e-10 1.43596e-16)
(0.012972 -3.15775e-10 8.61075e-17)
(0.012972 -2.73266e-10 1.61399e-16)
(0.012972 -2.28645e-10 -1.83701e-16)
(0.012972 -1.83333e-10 1.10016e-16)
(0.012972 -1.38715e-10 1.68101e-16)
(0.012972 -9.61313e-11 9.4804e-17)
(0.012972 -5.65023e-11 2.04097e-16)
(0.012972 -2.05058e-11 -1.0395e-17)
(0.012972 1.13893e-11 1.45123e-16)
(0.012972 3.90077e-11 2.31602e-16)
(0.012972 6.2265e-11 1.47854e-16)
(0.012972 8.12262e-11 2.56559e-16)
(0.012972 9.61998e-11 4.8108e-17)
(0.012972 1.07315e-10 1.84696e-16)
(0.012972 1.15188e-10 2.3912e-16)
(0.012972 1.19625e-10 1.65887e-16)
(0.012972 1.22074e-10 2.56253e-16)
(0.012972 1.20926e-10 -1.05875e-16)
(0.012972 1.20785e-10 -1.91216e-17)
(0.012972 1.15194e-10 -6.22081e-17)
(0.012972 1.19712e-10 1.32936e-16)
(0.012972 1.11728e-10 -7.94711e-17)
(0.012972 1.33316e-10 -8.19328e-17)
(0.012972 1.26263e-10 -1.18143e-16)
(0.012972 1.34816e-10 -2.4663e-17)
(0.012972 5.68249e-11 1.20367e-16)
(0.012972 -3.20207e-11 -1.26621e-16)
(0.012972 -6.83297e-11 -6.36279e-17)
(0.012972 -1.3189e-10 -1.39186e-16)
(0.012972 -9.6702e-11 -1.85316e-16)
(0.012972 -8.84175e-11 1.12806e-16)
(0.012972 -8.75096e-11 -1.41476e-16)
(0.012972 -9.79225e-11 -2.18674e-16)
(0.012972 -8.58873e-11 -1.20784e-16)
(0.012972 -9.84173e-11 -1.58104e-16)
(0.012972 -1.67653e-11 1.26308e-16)
(0.012972 -2.08955e-11 -8.99011e-17)
(0.012972 2.7207e-10 -1.59787e-16)
(0.012972 2.6572e-10 -1.45338e-16)
(0.012972 1.06756e-09 -6.26453e-17)
(0.0129719 1.08399e-09 6.12406e-17)
(0.0129719 2.27878e-09 -1.32628e-16)
(0.0129718 2.78808e-09 -1.67061e-16)
(0.0129718 6.24407e-10 -1.7319e-16)
(0.0129718 2.30505e-10 -1.9932e-16)
(0.0129717 -1.2209e-10 5.75994e-17)
(0.0129718 -3.83975e-10 -1.01237e-16)
(0.0129718 -4.40953e-10 -2.8914e-16)
(0.0129718 -4.97628e-10 -1.57032e-16)
(0.0129718 -4.80489e-10 -1.80912e-16)
(0.0129718 -5.00638e-10 3.01219e-17)
(0.0129718 -3.66699e-10 -1.35368e-16)
(0.0129718 -4.03776e-10 -1.2773e-16)
(0.0129718 8.63781e-11 -1.09558e-16)
(0.0129718 -4.86877e-11 -1.77426e-16)
(0.0129718 1.60818e-09 4.76058e-17)
(0.0129718 1.25345e-09 -7.3261e-17)
(0.0129717 7.79882e-09 -8.14397e-17)
(0.0218218 1.73082e-08 1.92604e-16)
(0.0218217 -5.91943e-09 1.04722e-16)
(0.0218218 -3.96767e-09 1.11682e-16)
(0.0218218 -2.60302e-10 -3.0743e-16)
(0.0218218 1.10376e-09 -5.41882e-16)
(0.0218217 2.20229e-09 -2.12482e-16)
(0.0218217 2.4538e-09 -4.28479e-16)
(0.0218217 2.33671e-09 -1.53206e-16)
(0.0218216 2.06968e-09 -2.4177e-17)
(0.0218216 1.75507e-09 -2.87522e-16)
(0.0218216 1.4315e-09 -5.74808e-17)
(0.0218216 1.08478e-09 -1.16347e-16)
(0.0218216 7.08155e-10 -8.85517e-17)
(0.0218215 3.20383e-10 -2.08445e-16)
(0.0218215 -4.38116e-11 -3.4096e-16)
(0.0218215 -3.57401e-10 -1.43632e-16)
(0.0218216 -6.17267e-10 -2.13827e-16)
(0.0218216 -8.41084e-10 -1.94268e-16)
(0.0218216 -1.04983e-09 -3.16319e-16)
(0.0218216 -1.25259e-09 -4.25548e-16)
(0.0218216 -1.44433e-09 -1.30087e-16)
(0.0218217 -1.6153e-09 -3.74031e-16)
(0.0218217 -1.76129e-09 -2.76711e-16)
(0.0218217 -1.88711e-09 -3.73304e-16)
(0.0218217 -2.00206e-09 -6.69707e-16)
(0.0218218 -2.11261e-09 -2.15373e-16)
(0.0218218 -2.21879e-09 -3.77532e-16)
(0.0218218 -2.31723e-09 -2.68655e-16)
(0.0218219 -2.40499e-09 -4.46634e-16)
(0.0218219 -2.48381e-09 -7.6061e-16)
(0.021822 -2.55709e-09 -2.56044e-16)
(0.021822 -2.63071e-09 -4.26824e-16)
(0.021822 -2.70197e-09 -3.27591e-16)
(0.0218221 -2.77459e-09 -4.75081e-16)
(0.0218221 -2.82996e-09 -8.06465e-16)
(0.0218222 -2.88403e-09 -2.30477e-16)
(0.0218222 -2.87863e-09 -3.13055e-16)
(0.0218223 -2.8852e-09 -2.88768e-16)
(0.0218223 -2.69979e-09 -4.32649e-16)
(0.0218224 -2.61243e-09 -6.52484e-16)
(0.0218224 -1.903e-09 -4.84577e-16)
(0.0218224 -1.67969e-09 -4.62408e-16)
(0.0218224 3.24279e-10 -2.96151e-16)
(0.0218224 7.59691e-10 -2.93898e-16)
(0.0218224 4.02571e-09 -2.44223e-16)
(0.0218223 5.49658e-09 -1.91753e-16)
(0.0218223 1.2653e-09 -2.24787e-16)
(0.0218223 4.38773e-11 -1.25477e-16)
(0.0218223 -9.35219e-10 -1.41552e-16)
(0.0218223 -1.48377e-09 -9.56627e-17)
(0.0218223 -2.19666e-09 -6.69191e-17)
(0.0218224 -2.3045e-09 -8.8409e-17)
(0.0218224 -2.1935e-09 -2.39468e-17)
(0.0218224 -2.03239e-09 -5.62265e-17)
(0.0218225 -1.84787e-09 3.44972e-16)
(0.0218225 -1.6866e-09 7.30237e-17)
(0.0218225 -1.55162e-09 2.55211e-17)
(0.0218225 -1.43867e-09 8.45518e-17)
(0.0218226 -1.3389e-09 4.30872e-17)
(0.0218226 -1.24247e-09 2.39966e-16)
(0.0218226 -1.14171e-09 1.644e-16)
(0.0218226 -1.032e-09 8.74089e-17)
(0.0218226 -9.12023e-10 1.38042e-16)
(0.0218226 -7.8325e-10 1.08908e-16)
(0.0218227 -6.48907e-10 5.96406e-16)
(0.0218227 -5.1325e-10 2.16378e-16)
(0.0218227 -3.80235e-10 1.121e-16)
(0.0218227 -2.53616e-10 1.50898e-16)
(0.0218227 -1.36001e-10 1.68794e-16)
(0.0218227 -2.95318e-11 3.15447e-16)
(0.0218227 6.48543e-11 2.63759e-16)
(0.0218227 1.46507e-10 1.94124e-16)
(0.0218227 2.15356e-10 2.40554e-16)
(0.0218227 2.71644e-10 2.3278e-16)
(0.0218227 3.16172e-10 5.66931e-16)
(0.0218227 3.49601e-10 3.31697e-16)
(0.0218226 3.73298e-10 2.23667e-16)
(0.0218226 3.87502e-10 2.69676e-16)
(0.0218226 3.94837e-10 2.66391e-16)
(0.0218226 3.93532e-10 6.12177e-16)
(0.0218226 3.91726e-10 1.77414e-16)
(0.0218226 3.79699e-10 4.46248e-16)
(0.0218226 3.86687e-10 2.51018e-16)
(0.0218226 3.71714e-10 6.73163e-19)
(0.0218226 4.19011e-10 1.53171e-16)
(0.0218226 4.1095e-10 -2.93665e-17)
(0.0218226 4.26621e-10 2.62051e-16)
(0.0218226 2.36826e-10 2.16388e-16)
(0.0218226 5.35988e-12 -6.47955e-17)
(0.0218226 -1.16276e-10 3.405e-16)
(0.0218226 -2.78077e-10 -2.78748e-17)
(0.0218226 -2.16514e-10 4.12953e-16)
(0.0218226 -1.88944e-10 2.06443e-16)
(0.0218226 -1.87419e-10 -6.47731e-17)
(0.0218226 -2.05237e-10 1.57274e-16)
(0.0218226 -1.87628e-10 -3.92175e-17)
(0.0218226 -1.96089e-10 4.36816e-16)
(0.0218226 -2.75025e-11 2.36666e-16)
(0.0218226 2.87009e-11 -4.71034e-17)
(0.0218226 6.81602e-10 9.88443e-17)
(0.0218226 8.32234e-10 -1.07786e-16)
(0.0218225 2.71165e-09 1.43217e-16)
(0.0218225 3.03743e-09 1.28229e-16)
(0.0218224 6.02912e-09 -1.21724e-16)
(0.0218223 7.38801e-09 4.74812e-17)
(0.0218222 2.45449e-09 -1.4622e-16)
(0.0218222 9.28561e-10 4.26824e-17)
(0.0218222 -1.0911e-10 1.14791e-16)
(0.0218222 -8.67189e-10 -7.41574e-17)
(0.0218222 -1.12454e-09 1.55254e-16)
(0.0218223 -1.29604e-09 -8.8471e-17)
(0.0218223 -1.31386e-09 -1.81178e-16)
(0.0218223 -1.33754e-09 7.06774e-17)
(0.0218223 -1.09267e-09 -9.96391e-17)
(0.0218223 -1.04536e-09 3.04124e-16)
(0.0218223 -3.13593e-11 -3.43731e-17)
(0.0218223 4.67945e-11 -1.51831e-16)
(0.0218223 3.71441e-09 1.01546e-16)
(0.0218223 3.83137e-09 -2.18579e-17)
(0.0218222 1.91819e-08 2.13579e-16)
(0.0308055 3.22132e-08 2.67402e-16)
(0.0308053 -5.42786e-09 1.36602e-16)
(0.0308053 -5.36566e-09 1.56583e-16)
(0.0308053 2.16871e-10 -4.32248e-16)
(0.0308053 2.6821e-09 -4.29401e-16)
(0.0308052 4.48751e-09 -2.08912e-16)
(0.0308052 4.92134e-09 -2.83729e-16)
(0.0308051 4.6612e-09 -1.15827e-16)
(0.0308051 4.09694e-09 -3.02156e-17)
(0.030805 3.42811e-09 -1.5989e-16)
(0.030805 2.74298e-09 -3.22115e-18)
(0.030805 2.03492e-09 -1.88627e-16)
(0.030805 1.29325e-09 -1.23194e-16)
(0.030805 5.41311e-10 -3.19375e-16)
(0.030805 -1.70096e-10 -4.08236e-16)
(0.030805 -7.95883e-10 -1.89661e-16)
(0.030805 -1.32519e-09 -3.26264e-16)
(0.030805 -1.78208e-09 -2.71567e-16)
(0.030805 -2.20028e-09 -4.72917e-16)
(0.0308051 -2.59839e-09 -7.25339e-16)
(0.0308051 -2.97275e-09 -2.36848e-17)
(0.0308051 -3.30965e-09 -5.40424e-16)
(0.0308052 -3.60145e-09 -3.64121e-16)
(0.0308052 -3.85429e-09 -6.75524e-16)
(0.0308052 -4.08271e-09 -1.02491e-15)
(0.0308053 -4.29824e-09 -1.16489e-16)
(0.0308053 -4.50314e-09 -4.84913e-16)
(0.0308054 -4.69323e-09 -3.60721e-16)
(0.0308054 -4.86422e-09 -5.81305e-16)
(0.0308055 -5.01809e-09 -1.01785e-15)
(0.0308056 -5.16084e-09 -3.73159e-16)
(0.0308056 -5.30113e-09 -5.60966e-16)
(0.0308057 -5.4379e-09 -4.44017e-16)
(0.0308057 -5.57355e-09 -8.24347e-16)
(0.0308058 -5.68459e-09 -1.06026e-15)
(0.0308059 -5.78223e-09 -3.78224e-16)
(0.0308059 -5.79109e-09 -6.12721e-16)
(0.030806 -5.78545e-09 -3.98769e-16)
(0.030806 -5.48809e-09 -7.69342e-16)
(0.0308061 -5.26265e-09 -8.97432e-16)
(0.0308061 -4.06903e-09 -6.35645e-16)
(0.0308062 -3.47767e-09 -7.27113e-16)
(0.0308062 -3.14602e-11 -4.02314e-16)
(0.0308062 1.11767e-09 -4.2553e-16)
(0.0308062 6.93646e-09 -3.31343e-16)
(0.0308061 9.77305e-09 -2.60068e-16)
(0.0308061 2.92702e-09 -4.18731e-16)
(0.030806 2.97284e-10 -1.64021e-16)
(0.030806 -1.62523e-09 -2.13641e-16)
(0.0308061 -2.75534e-09 -1.26731e-16)
(0.0308061 -4.08866e-09 -8.82466e-17)
(0.0308061 -4.40087e-09 -2.34025e-16)
(0.0308062 -4.2613e-09 -2.37852e-17)
(0.0308062 -3.98738e-09 -1.6423e-16)
(0.0308063 -3.65901e-09 1.51948e-16)
(0.0308063 -3.36026e-09 7.72983e-17)
(0.0308063 -3.10371e-09 -9.93059e-17)
(0.0308064 -2.88285e-09 1.23261e-16)
(0.0308064 -2.68217e-09 -3.44647e-17)
(0.0308064 -2.48405e-09 1.86413e-16)
(0.0308064 -2.27477e-09 2.12294e-16)
(0.0308065 -2.04663e-09 1.44859e-17)
(0.0308065 -1.79819e-09 2.01781e-16)
(0.0308065 -1.53304e-09 7.65153e-17)
(0.0308065 -1.25801e-09 3.47536e-16)
(0.0308065 -9.81609e-10 2.93142e-16)
(0.0308065 -7.11787e-10 4.27942e-17)
(0.0308065 -4.55655e-10 2.1845e-16)
(0.0308065 -2.18417e-10 1.35641e-16)
(0.0308065 -3.86591e-12 3.3486e-16)
(0.0308065 1.85882e-10 3.56823e-16)
(0.0308065 3.49936e-10 1.53887e-16)
(0.0308065 4.88243e-10 3.44524e-16)
(0.0308065 6.0154e-10 2.24688e-16)
(0.0308065 6.91238e-10 4.90873e-16)
(0.0308065 7.58909e-10 4.50752e-16)
(0.0308065 8.07017e-10 2.04127e-16)
(0.0308065 8.36573e-10 3.84027e-16)
(0.0308065 8.51665e-10 2.90953e-16)
(0.0308065 8.51179e-10 5.38702e-16)
(0.0308065 8.46687e-10 3.25253e-16)
(0.0308065 8.26811e-10 3.87254e-16)
(0.0308064 8.34551e-10 3.60749e-16)
(0.0308064 8.12508e-10 5.87416e-17)
(0.0308064 8.89344e-10 1.03177e-16)
(0.0308064 8.85127e-10 2.50471e-17)
(0.0308064 9.07881e-10 2.73305e-16)
(0.0308064 5.79638e-10 2.80709e-16)
(0.0308064 1.59331e-10 -2.37112e-17)
(0.0308064 -9.45995e-11 1.67842e-16)
(0.0308064 -3.91607e-10 2.90162e-17)
(0.0308064 -3.16495e-10 3.00158e-16)
(0.0308064 -2.65685e-10 2.61732e-16)
(0.0308064 -2.61101e-10 -1.84487e-17)
(0.0308064 -2.84402e-10 1.49519e-16)
(0.0308064 -2.63181e-10 -7.10065e-18)
(0.0308064 -2.58331e-10 3.17656e-16)
(0.0308064 7.53849e-12 3.08663e-16)
(0.0308064 1.67734e-10 -2.27294e-17)
(0.0308064 1.2486e-09 5.72135e-17)
(0.0308064 1.68481e-09 -9.77411e-17)
(0.0308063 4.88959e-09 1.58509e-16)
(0.0308063 5.79683e-09 1.55525e-16)
(0.0308062 1.11129e-08 -1.29709e-16)
(0.0308061 1.36663e-08 -8.56075e-18)
(0.030806 5.5645e-09 -1.59334e-16)
(0.0308059 2.29355e-09 -2.68211e-18)
(0.0308059 1.6153e-10 1.5673e-16)
(0.0308059 -1.34388e-09 -7.36881e-17)
(0.0308059 -1.97025e-09 9.51136e-17)
(0.0308059 -2.34539e-09 -6.53451e-17)
(0.030806 -2.45808e-09 -1.69759e-16)
(0.030806 -2.49898e-09 1.52295e-16)
(0.030806 -2.15575e-09 -7.99059e-17)
(0.030806 -1.95664e-09 1.56475e-16)
(0.030806 -3.49312e-10 -8.29687e-18)
(0.0308061 1.81005e-10 -1.24902e-16)
(0.030806 6.25297e-09 1.95143e-16)
(0.030806 7.50883e-09 1.12695e-17)
(0.0308059 3.34231e-08 2.04089e-16)
(0.039763 5.01367e-08 3.47346e-16)
(0.0397628 -1.17845e-09 1.3218e-16)
(0.0397627 -4.50431e-09 1.88066e-16)
(0.0397627 1.81389e-09 -3.56469e-16)
(0.0397626 5.20222e-09 -2.46303e-16)
(0.0397626 7.61776e-09 -2.75414e-16)
(0.0397625 8.18956e-09 -1.37339e-16)
(0.0397625 7.71446e-09 -3.04795e-17)
(0.0397624 6.73029e-09 2.09763e-17)
(0.0397624 5.55603e-09 -4.45524e-17)
(0.0397623 4.35886e-09 8.66671e-17)
(0.0397623 3.16136e-09 -3.11653e-16)
(0.0397623 1.95072e-09 -1.45912e-16)
(0.0397623 7.42088e-10 -4.83488e-16)
(0.0397623 -4.10652e-10 -5.08996e-16)
(0.0397623 -1.44743e-09 -1.75038e-16)
(0.0397623 -2.34219e-09 -4.92221e-16)
(0.0397623 -3.11583e-09 -3.38897e-16)
(0.0397623 -3.81102e-09 -6.84152e-16)
(0.0397624 -4.4597e-09 -6.6766e-16)
(0.0397624 -5.06666e-09 -1.6849e-16)
(0.0397625 -5.61857e-09 -4.47273e-16)
(0.0397625 -6.10388e-09 -3.88653e-16)
(0.0397626 -6.52672e-09 -3.23812e-16)
(0.0397626 -6.90423e-09 -7.39763e-16)
(0.0397627 -7.25378e-09 -1.93437e-16)
(0.0397627 -7.58273e-09 -3.16397e-16)
(0.0397628 -7.88856e-09 -4.06588e-16)
(0.0397629 -8.16629e-09 -4.33217e-16)
(0.0397629 -8.41719e-09 -8.7437e-16)
(0.039763 -8.64867e-09 -3.00997e-16)
(0.0397631 -8.87222e-09 -4.22074e-16)
(0.0397631 -9.08944e-09 -5.12065e-16)
(0.0397632 -9.30256e-09 -5.3171e-16)
(0.0397633 -9.48341e-09 -9.71078e-16)
(0.0397634 -9.63722e-09 -2.95282e-16)
(0.0397634 -9.66888e-09 -3.22238e-16)
(0.0397635 -9.6519e-09 -4.83546e-16)
(0.0397636 -9.23192e-09 -4.63548e-16)
(0.0397637 -8.83624e-09 -7.82645e-16)
(0.0397637 -7.09952e-09 -7.02263e-16)
(0.0397638 -6.02542e-09 -6.54825e-16)
(0.0397638 -9.60974e-10 -4.38796e-16)
(0.0397639 1.17718e-09 -5.88577e-16)
(0.0397638 9.93221e-09 -3.92856e-16)
(0.0397638 1.44938e-08 -3.21816e-16)
(0.0397637 5.1245e-09 -2.83607e-16)
(0.0397637 8.19264e-10 -1.37672e-16)
(0.0397637 -2.34197e-09 -3.25305e-16)
(0.0397637 -4.23638e-09 -1.41505e-16)
(0.0397637 -6.34492e-09 -1.11156e-16)
(0.0397638 -6.97282e-09 -3.44439e-17)
(0.0397638 -6.86585e-09 2.89434e-17)
(0.0397639 -6.49168e-09 4.31186e-17)
(0.0397639 -6.01134e-09 1.55487e-16)
(0.039764 -5.55562e-09 6.21548e-17)
(0.039764 -5.15239e-09 8.85169e-17)
(0.039764 -4.79465e-09 2.08722e-16)
(0.0397641 -4.45982e-09 2.15381e-16)
(0.0397641 -4.12207e-09 1.43835e-16)
(0.0397641 -3.76166e-09 2.25837e-16)
(0.0397642 -3.36843e-09 2.73149e-16)
(0.0397642 -2.94179e-09 3.14203e-16)
(0.0397642 -2.48909e-09 4.1673e-16)
(0.0397642 -2.02234e-09 4.63677e-16)
(0.0397642 -1.55557e-09 3.36449e-16)
(0.0397643 -1.10194e-09 2.88329e-16)
(0.0397643 -6.72699e-10 3.34461e-16)
(0.0397643 -2.7623e-10 4.5334e-16)
(0.0397643 8.1581e-11 5.0604e-16)
(0.0397643 3.97537e-10 4.18124e-16)
(0.0397642 6.70458e-10 4.23769e-16)
(0.0397642 9.00432e-10 4.9194e-16)
(0.0397642 1.08895e-09 5.72056e-16)
(0.0397642 1.23835e-09 6.40882e-16)
(0.0397642 1.35146e-09 5.36514e-16)
(0.0397642 1.43199e-09 5.10002e-16)
(0.0397642 1.48239e-09 5.43156e-16)
(0.0397642 1.50818e-09 6.8657e-16)
(0.0397642 1.50965e-09 6.92035e-16)
(0.0397641 1.50206e-09 7.62816e-16)
(0.0397641 1.47312e-09 3.91385e-16)
(0.0397641 1.48015e-09 4.6195e-16)
(0.0397641 1.45075e-09 4.22788e-16)
(0.0397641 1.55867e-09 2.83562e-17)
(0.0397641 1.56225e-09 4.18945e-16)
(0.0397641 1.59308e-09 3.50665e-16)
(0.0397641 1.11501e-09 3.30627e-16)
(0.039764 4.78199e-10 3.26048e-16)
(0.039764 5.49641e-11 1.86354e-16)
(0.039764 -4.08498e-10 3.97602e-16)
(0.039764 -3.38942e-10 3.53133e-16)
(0.039764 -2.69223e-10 3.08163e-16)
(0.039764 -2.58308e-10 3.3388e-16)
(0.039764 -2.85468e-10 1.96234e-16)
(0.039764 -2.59575e-10 3.57301e-16)
(0.039764 -2.39032e-10 2.09086e-16)
(0.039764 1.30377e-10 3.67562e-16)
(0.039764 4.14144e-10 3.1039e-16)
(0.039764 1.9602e-09 1.41868e-16)
(0.039764 2.7654e-09 2.25997e-16)
(0.039764 7.43071e-09 -1.08123e-17)
(0.0397639 9.1438e-09 1.74535e-16)
(0.0397638 1.71086e-08 1.68155e-16)
(0.0397637 2.11408e-08 2.27663e-17)
(0.0397636 9.86523e-09 1.39901e-16)
(0.0397635 4.4701e-09 7.41136e-17)
(0.0397635 8.50313e-10 1.8456e-16)
(0.0397635 -1.64427e-09 2.34383e-16)
(0.0397635 -2.8224e-09 1.28859e-16)
(0.0397635 -3.51648e-09 2.77935e-16)
(0.0397635 -3.79712e-09 2.27635e-16)
(0.0397635 -3.90047e-09 3.06852e-16)
(0.0397636 -3.47826e-09 2.48807e-16)
(0.0397636 -3.11603e-09 5.46369e-17)
(0.0397636 -8.63926e-10 3.1079e-16)
(0.0397636 2.44741e-10 2.65768e-16)
(0.0397636 8.98524e-09 3.55867e-16)
(0.0397636 1.1841e-08 3.52576e-16)
(0.0397634 4.90423e-08 2.65077e-16)
(0.0483705 7.01018e-08 4.59988e-16)
(0.0483702 6.95211e-09 1.45037e-16)
(0.0483701 -6.23557e-10 2.21022e-16)
(0.04837 5.00175e-09 1.50908e-17)
(0.0483699 8.7491e-09 -1.63076e-17)
(0.0483699 1.15065e-08 -3.3854e-18)
(0.0483698 1.21079e-08 1.737e-17)
(0.0483697 1.13489e-08 8.35051e-17)
(0.0483696 9.84979e-09 9.30966e-17)
(0.0483696 8.04569e-09 7.74919e-17)
(0.0483696 6.20528e-09 1.89562e-16)
(0.0483695 4.40627e-09 -2.03878e-16)
(0.0483695 2.64211e-09 -1.22088e-16)
(0.0483695 9.08944e-10 -3.91527e-16)
(0.0483695 -7.53451e-10 -4.6396e-16)
(0.0483695 -2.27876e-09 -1.13654e-16)
(0.0483695 -3.62162e-09 -4.10321e-16)
(0.0483696 -4.78792e-09 -3.61703e-16)
(0.0483696 -5.82144e-09 -6.62248e-16)
(0.0483696 -6.76828e-09 -6.71289e-16)
(0.0483697 -7.64885e-09 -4.26248e-16)
(0.0483697 -8.45662e-09 -4.32268e-16)
(0.0483698 -9.17747e-09 -3.74369e-16)
(0.0483699 -9.81e-09 -4.66412e-16)
(0.0483699 -1.03701e-08 -5.76489e-16)
(0.04837 -1.08802e-08 -3.43667e-16)
(0.04837 -1.1355e-08 -4.97849e-16)
(0.0483701 -1.17971e-08 -4.74934e-16)
(0.0483702 -1.22023e-08 -5.61436e-16)
(0.0483703 -1.25703e-08 -7.29392e-16)
(0.0483703 -1.29084e-08 -5.01714e-16)
(0.0483704 -1.32305e-08 -6.61818e-16)
(0.0483705 -1.3541e-08 -6.02375e-16)
(0.0483706 -1.38441e-08 -7.394e-16)
(0.0483707 -1.41069e-08 -8.4972e-16)
(0.0483708 -1.43297e-08 -5.31092e-16)
(0.0483709 -1.43936e-08 -5.79389e-16)
(0.0483709 -1.43726e-08 -6.02422e-16)
(0.048371 -1.38279e-08 -6.42308e-16)
(0.0483711 -1.32499e-08 -7.05728e-16)
(0.0483712 -1.09427e-08 -7.0374e-16)
(0.0483713 -9.31778e-09 -5.66217e-16)
(0.0483713 -2.55234e-09 -4.32296e-16)
(0.0483713 7.73141e-10 -4.68644e-16)
(0.0483713 1.26855e-08 -3.87142e-16)
(0.0483713 1.92503e-08 -3.65404e-16)
(0.0483712 7.64873e-09 -4.46887e-17)
(0.0483712 1.62393e-09 -8.75532e-17)
(0.0483712 -2.97016e-09 -1.69695e-16)
(0.0483712 -5.77744e-09 -1.05956e-16)
(0.0483712 -8.78797e-09 -1.30561e-16)
(0.0483713 -9.84159e-09 6.57533e-17)
(0.0483713 -9.85074e-09 1.0291e-16)
(0.0483714 -9.41845e-09 2.04372e-16)
(0.0483714 -8.8033e-09 2.30958e-16)
(0.0483715 -8.19071e-09 5.02971e-17)
(0.0483715 -7.62899e-09 2.35664e-16)
(0.0483716 -7.11359e-09 3.07837e-16)
(0.0483716 -6.61621e-09 5.58358e-16)
(0.0483716 -6.10393e-09 4.0338e-16)
(0.0483717 -5.5524e-09 2.46773e-16)
(0.0483717 -4.95042e-09 4.20073e-16)
(0.0483717 -4.30005e-09 4.42474e-16)
(0.0483718 -3.61395e-09 5.92523e-16)
(0.0483718 -2.91065e-09 6.22682e-16)
(0.0483718 -2.21087e-09 3.6016e-16)
(0.0483718 -1.53365e-09 6.10657e-16)
(0.0483718 -8.9485e-10 4.63973e-16)
(0.0483718 -3.06247e-10 6.55667e-16)
(0.0483718 2.24133e-10 6.70418e-16)
(0.0483718 6.91961e-10 4.82948e-16)
(0.0483718 1.09573e-09 6.32002e-16)
(0.0483718 1.43602e-09 6.41891e-16)
(0.0483718 1.71528e-09 9.36576e-16)
(0.0483718 1.93701e-09 8.33634e-16)
(0.0483717 2.10551e-09 5.95048e-16)
(0.0483717 2.22596e-09 7.13084e-16)
(0.0483717 2.30246e-09 7.12412e-16)
(0.0483717 2.34247e-09 9.02164e-16)
(0.0483717 2.34772e-09 8.85309e-16)
(0.0483717 2.33773e-09 1.28805e-15)
(0.0483717 2.29956e-09 3.90486e-16)
(0.0483716 2.30533e-09 5.84547e-16)
(0.0483716 2.26866e-09 7.43674e-16)
(0.0483716 2.40824e-09 2.36135e-16)
(0.0483716 2.42311e-09 9.60645e-16)
(0.0483716 2.46424e-09 4.663e-16)
(0.0483716 1.83637e-09 4.22403e-16)
(0.0483716 9.72067e-10 6.44777e-16)
(0.0483715 3.55657e-10 1.02823e-16)
(0.0483715 -2.97708e-10 8.04353e-16)
(0.0483715 -2.54622e-10 4.47159e-16)
(0.0483715 -1.76186e-10 3.91019e-16)
(0.0483715 -1.57907e-10 6.79658e-16)
(0.0483715 -1.88085e-10 -4.41168e-17)
(0.0483715 -1.56254e-10 7.07071e-16)
(0.0483715 -1.22474e-10 4.34654e-16)
(0.0483715 3.49488e-10 4.59726e-16)
(0.0483715 7.57819e-10 6.19237e-16)
(0.0483715 2.77631e-09 5.91288e-17)
(0.0483715 3.99119e-09 7.171e-16)
(0.0483715 1.01634e-08 2.00031e-16)
(0.0483714 1.28355e-08 2.33128e-16)
(0.0483713 2.36204e-08 4.32852e-16)
(0.0483712 2.9346e-08 6.48242e-17)
(0.048371 1.51234e-08 4.78275e-16)
(0.048371 7.47172e-09 -1.2085e-17)
(0.0483709 2.07718e-09 2.58552e-16)
(0.0483709 -1.61883e-09 5.07281e-16)
(0.0483709 -3.52566e-09 1.86626e-16)
(0.0483709 -4.66746e-09 5.73309e-16)
(0.048371 -5.2026e-09 6.30991e-16)
(0.048371 -5.43498e-09 4.92098e-16)
(0.048371 -4.9689e-09 5.43456e-16)
(0.048371 -4.46982e-09 2.57924e-16)
(0.048371 -1.55738e-09 6.15733e-16)
(0.0483711 1.72481e-10 6.36199e-16)
(0.048371 1.17154e-08 5.39156e-16)
(0.048371 1.63954e-08 6.50341e-16)
(0.0483709 6.50158e-08 3.36151e-16)
(0.0562596 9.10077e-08 6.17951e-16)
(0.0562593 1.82771e-08 3.79599e-16)
(0.0562591 6.17583e-09 3.31364e-16)
(0.056259 9.88315e-09 2.5709e-16)
(0.0562589 1.32505e-08 1.84412e-16)
(0.0562588 1.59616e-08 1.54247e-16)
(0.0562588 1.64307e-08 1.71989e-16)
(0.0562587 1.53281e-08 2.10806e-16)
(0.0562586 1.32725e-08 2.08529e-16)
(0.0562586 1.07819e-08 2.01239e-16)
(0.0562585 8.22648e-09 2.95283e-16)
(0.0562585 5.75601e-09 -1.53742e-16)
(0.0562585 3.3833e-09 -7.73096e-17)
(0.0562585 1.08505e-09 -3.91341e-16)
(0.0562585 -1.1237e-09 -4.09093e-16)
(0.0562585 -3.18116e-09 1.44829e-16)
(0.0562585 -5.02455e-09 -5.43171e-16)
(0.0562585 -6.63808e-09 -3.60631e-16)
(0.0562586 -8.05821e-09 -8.18613e-16)
(0.0562586 -9.34186e-09 -6.39375e-16)
(0.0562587 -1.05279e-08 -5.77732e-16)
(0.0562587 -1.16219e-08 -4.33882e-16)
(0.0562588 -1.26101e-08 -3.56675e-16)
(0.0562588 -1.34847e-08 -5.34879e-16)
(0.0562589 -1.42571e-08 -4.12318e-16)
(0.056259 -1.49524e-08 -4.12249e-16)
(0.056259 -1.55934e-08 -7.83056e-16)
(0.0562591 -1.61899e-08 -5.45155e-16)
(0.0562592 -1.67404e-08 -7.02825e-16)
(0.0562593 -1.72438e-08 -5.62026e-16)
(0.0562594 -1.77058e-08 -5.7546e-16)
(0.0562594 -1.81418e-08 -9.38986e-16)
(0.0562595 -1.85591e-08 -6.93716e-16)
(0.0562596 -1.89649e-08 -9.97964e-16)
(0.0562597 -1.93218e-08 -7.25735e-16)
(0.0562598 -1.9627e-08 -6.29351e-16)
(0.0562599 -1.97357e-08 -8.21469e-16)
(0.05626 -1.97234e-08 -7.04524e-16)
(0.0562601 -1.90643e-08 -8.14407e-16)
(0.0562602 -1.831e-08 -6.30056e-16)
(0.0562603 -1.54399e-08 -6.73566e-16)
(0.0562604 -1.32433e-08 -4.28637e-16)
(0.0562604 -4.78119e-09 -4.02607e-16)
(0.0562604 -1.66023e-10 -3.97959e-16)
(0.0562604 1.49775e-08 -3.61207e-16)
(0.0562604 2.37349e-08 -3.8168e-16)
(0.0562603 1.02864e-08 -4.71877e-17)
(0.0562603 2.67396e-09 -4.62072e-17)
(0.0562603 -3.40365e-09 -8.32133e-17)
(0.0562603 -7.21123e-09 -7.01931e-17)
(0.0562603 -1.12104e-08 -1.34976e-16)
(0.0562604 -1.2788e-08 2.30278e-16)
(0.0562604 -1.30066e-08 1.32912e-16)
(0.0562605 -1.2583e-08 3.71223e-16)
(0.0562605 -1.18756e-08 3.36358e-16)
(0.0562606 -1.11276e-08 7.5742e-18)
(0.0562606 -1.04119e-08 4.14442e-16)
(0.0562607 -9.73011e-09 3.93071e-16)
(0.0562607 -9.05131e-09 6.32019e-16)
(0.0562608 -8.33862e-09 5.69631e-16)
(0.0562608 -7.56562e-09 2.27536e-16)
(0.0562608 -6.72252e-09 6.33703e-16)
(0.0562609 -5.81586e-09 5.36682e-16)
(0.0562609 -4.86486e-09 8.52411e-16)
(0.0562609 -3.89549e-09 7.32151e-16)
(0.0562609 -2.93541e-09 3.4779e-16)
(0.0562609 -2.00971e-09 6.77337e-16)
(0.0562609 -1.13888e-09 5.73784e-16)
(0.0562609 -3.37857e-10 9.06783e-16)
(0.0562609 3.83231e-10 8.4827e-16)
(0.0562609 1.01913e-09 4.99104e-16)
(0.0562609 1.56817e-09 8.56502e-16)
(0.0562609 2.03136e-09 7.66828e-16)