/*--------------------------------*- C++ -*----------------------------------*\
  =========                 |
  \\      /  F ield         | OpenFOAM: The Open Source CFD Toolbox
   \\    /   O peration     | Website:  https://openfoam.org
    \\  /    A nd           | Version:  7
     \\/     M anipulation  |
\*---------------------------------------------------------------------------*/
FoamFile
{
    version     2.0;
    format      ascii;
    class       volScalarField;
    location    "1000";
    object      omega;
}
// * * * * * * * * * * * * * * * * * * * * * * * * * * * * * * * * * * * * * //

dimensions      [0 0 -1 0 0 0 0];

internalField   nonuniform List<scalar> 
4026
(
0.574513
0.574475
0.574473
0.574478
0.574484
0.57449
0.574495
0.5745
0.574505
0.57451
0.574515
0.57452
0.574525
0.57453
0.574535
0.574541
0.574546
0.574552
0.574558
0.574564
0.57457
0.574576
0.574582
0.574589
0.574595
0.574602
0.574608
0.574615
0.574621
0.574628
0.574634
0.57464
0.574647
0.574653
0.574659
0.574664
0.57467
0.574675
0.574681
0.574686
0.574691
0.574695
0.574701
0.574702
0.57473
0.57457
0.574566
0.574576
0.574585
0.574595
0.574603
0.574612
0.57462
0.574628
0.574636
0.574643
0.574649
0.574655
0.574662
0.574659
0.574699
0.535982
0.53594
0.535936
0.53594
0.535946
0.535953
0.535959
0.535965
0.535971
0.535977
0.535982
0.535988
0.535993
0.535999
0.536005
0.536011
0.536016
0.536023
0.536029
0.536035
0.536042
0.536048
0.536055
0.536061
0.536068
0.536075
0.536082
0.536088
0.536095
0.536102
0.536109
0.536115
0.536122
0.536128
0.536134
0.536141
0.536147
0.536153
0.536158
0.536164
0.536169
0.536174
0.536181
0.53618
0.536217
0.536032
0.536017
0.53603
0.536044
0.536056
0.536067
0.536078
0.536087
0.536096
0.536105
0.536113
0.53612
0.536126
0.536134
0.536131
0.536174
0.499721
0.499678
0.499673
0.499677
0.499683
0.49969
0.499697
0.499704
0.499711
0.499717
0.499723
0.499729
0.499735
0.499742
0.499748
0.499754
0.49976
0.499767
0.499773
0.49978
0.499787
0.499794
0.499801
0.499808
0.499815
0.499822
0.499829
0.499836
0.499843
0.49985
0.499857
0.499864
0.49987
0.499877
0.499884
0.49989
0.499897
0.499903
0.499909
0.499915
0.499921
0.499927
0.499934
0.499932
0.499975
0.499783
0.499755
0.499765
0.49978
0.499794
0.499806
0.499818
0.499828
0.499838
0.499847
0.499856
0.499864
0.499871
0.499879
0.499877
0.499922
0.465586
0.465542
0.465537
0.465542
0.465548
0.465556
0.465564
0.465571
0.465578
0.465585
0.465592
0.465599
0.465605
0.465612
0.465619
0.465625
0.465632
0.465639
0.465646
0.465653
0.46566
0.465667
0.465674
0.465682
0.465689
0.465696
0.465703
0.465711
0.465718
0.465725
0.465732
0.46574
0.465747
0.465754
0.465761
0.465768
0.465774
0.465781
0.465788
0.465794
0.4658
0.465806
0.465814
0.465812
0.465858
0.46567
0.465632
0.465635
0.465648
0.465662
0.465675
0.465687
0.465698
0.465708
0.465718
0.465727
0.465736
0.465743
0.465752
0.46575
0.465797
0.433447
0.433402
0.433398
0.433403
0.43341
0.433419
0.433427
0.433435
0.433442
0.43345
0.433457
0.433465
0.433472
0.433479
0.433486
0.433493
0.4335
0.433508
0.433515
0.433522
0.43353
0.433537
0.433544
0.433552
0.433559
0.433567
0.433574
0.433582
0.433589
0.433597
0.433604
0.433612
0.433619
0.433626
0.433634
0.433641
0.433648
0.433655
0.433662
0.433668
0.433675
0.433681
0.433689
0.433687
0.433736
0.433556
0.433511
0.433509
0.433519
0.433531
0.433543
0.433555
0.433566
0.433577
0.433587
0.433596
0.433605
0.433613
0.433622
0.43362
0.433669
0.403193
0.403147
0.403143
0.403149
0.403157
0.403166
0.403174
0.403183
0.403191
0.403199
0.403207
0.403215
0.403223
0.40323
0.403238
0.403245
0.403253
0.40326
0.403268
0.403276
0.403283
0.403291
0.403299
0.403306
0.403314
0.403322
0.403329
0.403337
0.403345
0.403352
0.40336
0.403368
0.403375
0.403383
0.40339
0.403398
0.403405
0.403412
0.403419
0.403426
0.403433
0.40344
0.403448
0.403445
0.403497
0.403328
0.403277
0.403272
0.403278
0.403288
0.403299
0.40331
0.403321
0.403331
0.40334
0.40335
0.403359
0.403366
0.403376
0.403374
0.403425
0.374729
0.374681
0.374677
0.374684
0.374693
0.374702
0.374711
0.37472
0.374729
0.374737
0.374745
0.374754
0.374762
0.37477
0.374778
0.374785
0.374793
0.374801
0.374809
0.374817
0.374825
0.374833
0.374841
0.374849
0.374856
0.374864
0.374872
0.37488
0.374888
0.374896
0.374903
0.374911
0.374919
0.374927
0.374934
0.374942
0.374949
0.374957
0.374964
0.374971
0.374978
0.374985
0.374994
0.374991
0.375044
0.374886
0.374832
0.374824
0.374828
0.374836
0.374845
0.374855
0.374865
0.374874
0.374884
0.374892
0.374901
0.374909
0.374919
0.374916
0.374969
0.347971
0.347922
0.347918
0.347925
0.347934
0.347944
0.347953
0.347963
0.347972
0.34798
0.347989
0.347997
0.348006
0.348014
0.348022
0.34803
0.348039
0.348047
0.348055
0.348063
0.348071
0.348079
0.348087
0.348095
0.348103
0.348111
0.348119
0.348127
0.348135
0.348143
0.348151
0.348159
0.348167
0.348175
0.348182
0.34819
0.348198
0.348205
0.348213
0.34822
0.348227
0.348234
0.348243
0.34824
0.348294
0.348148
0.348092
0.348082
0.348085
0.348091
0.348098
0.348107
0.348115
0.348124
0.348133
0.348141
0.348149
0.348157
0.348166
0.348163
0.348217
0.322847
0.322797
0.322793
0.3228
0.322809
0.322819
0.322828
0.322838
0.322847
0.322856
0.322865
0.322874
0.322882
0.322891
0.322899
0.322908
0.322916
0.322924
0.322933
0.322941
0.322949
0.322957
0.322965
0.322974
0.322982
0.32299
0.322998
0.323006
0.323014
0.323022
0.32303
0.323038
0.323046
0.323054
0.323062
0.323069
0.323077
0.323085
0.323092
0.3231
0.323107
0.323114
0.323123
0.32312
0.323175
0.32304
0.322982
0.322972
0.322973
0.322978
0.322984
0.322991
0.322999
0.323007
0.323014
0.323022
0.32303
0.323037
0.323046
0.323043
0.323096
0.299292
0.299241
0.299236
0.299243
0.299252
0.299262
0.299272
0.299282
0.299291
0.2993
0.299309
0.299318
0.299327
0.299335
0.299344
0.299352
0.299361
0.299369
0.299377
0.299386
0.299394
0.299402
0.299411
0.299419
0.299427
0.299435
0.299443
0.299451
0.299459
0.299467
0.299475
0.299483
0.299491
0.299499
0.299507
0.299515
0.299523
0.29953
0.299538
0.299545
0.299553
0.29956
0.299569
0.299566
0.299621
0.299496
0.299438
0.299427
0.299428
0.299432
0.299437
0.299443
0.29945
0.299457
0.299464
0.299471
0.299478
0.299484
0.299493
0.29949
0.299543
0.277245
0.277194
0.27719
0.277196
0.277206
0.277215
0.277225
0.277234
0.277244
0.277253
0.277262
0.277271
0.27728
0.277288
0.277297
0.277305
0.277314
0.277322
0.27733
0.277339
0.277347
0.277355
0.277364
0.277372
0.27738
0.277388
0.277396
0.277404
0.277412
0.27742
0.277428
0.277436
0.277444
0.277452
0.27746
0.277468
0.277475
0.277483
0.277491
0.277498
0.277506
0.277513
0.277522
0.277519
0.277573
0.277457
0.277399
0.277388
0.277389
0.277392
0.277397
0.277402
0.277408
0.277414
0.277421
0.277427
0.277434
0.27744
0.277448
0.277444
0.277497
0.256653
0.256602
0.256598
0.256604
0.256613
0.256622
0.256632
0.256641
0.25665
0.25666
0.256668
0.256677
0.256686
0.256694
0.256703
0.256711
0.25672
0.256728
0.256737
0.256745
0.256753
0.256761
0.25677
0.256778
0.256786
0.256794
0.256802
0.25681
0.256818
0.256826
0.256833
0.256841
0.256849
0.256857
0.256865
0.256872
0.25688
0.256888
0.256895
0.256903
0.25691
0.256917
0.256926
0.256923
0.256977
0.256868
0.256811
0.2568
0.256801
0.256804
0.256809
0.256814
0.256819
0.256825
0.25683
0.256836
0.256842
0.256848
0.256855
0.256851
0.256903
0.237462
0.237412
0.237407
0.237413
0.237421
0.237431
0.23744
0.237449
0.237458
0.237467
0.237475
0.237484
0.237493
0.237501
0.237509
0.237518
0.237526
0.237534
0.237542
0.237551
0.237559
0.237567
0.237575
0.237583
0.237591
0.237599
0.237607
0.237615
0.237622
0.23763
0.237638
0.237646
0.237653
0.237661
0.237669
0.237676
0.237684
0.237691
0.237699
0.237706
0.237713
0.23772
0.237729
0.237727
0.237778
0.237676
0.23762
0.23761
0.237611
0.237614
0.237618
0.237623
0.237628
0.237633
0.237639
0.237644
0.237649
0.237654
0.237662
0.237658
0.237708
0.219619
0.219569
0.219565
0.21957
0.219578
0.219587
0.219596
0.219605
0.219613
0.219622
0.21963
0.219639
0.219647
0.219655
0.219664
0.219672
0.21968
0.219688
0.219696
0.219704
0.219712
0.21972
0.219728
0.219735
0.219743
0.219751
0.219759
0.219766
0.219774
0.219781
0.219789
0.219797
0.219804
0.219812
0.219819
0.219826
0.219834
0.219841
0.219848
0.219855
0.219863
0.219869
0.219878
0.219876
0.219926
0.219829
0.219775
0.219765
0.219766
0.21977
0.219774
0.219778
0.219783
0.219788
0.219793
0.219798
0.219803
0.219808
0.219815
0.21981
0.219859
0.20307
0.203022
0.203017
0.203023
0.20303
0.203039
0.203047
0.203055
0.203064
0.203072
0.20308
0.203088
0.203096
0.203104
0.203112
0.20312
0.203128
0.203136
0.203143
0.203151
0.203159
0.203167
0.203174
0.203182
0.203189
0.203197
0.203204
0.203212
0.203219
0.203227
0.203234
0.203241
0.203248
0.203256
0.203263
0.20327
0.203277
0.203284
0.203291
0.203298
0.203305
0.203312
0.20332
0.203318
0.203366
0.203273
0.203221
0.203212
0.203214
0.203217
0.203222
0.203226
0.203231
0.203235
0.20324
0.203245
0.20325
0.203254
0.20326
0.203256
0.203303
0.187761
0.187715
0.18771
0.187715
0.187722
0.18773
0.187738
0.187746
0.187754
0.187762
0.18777
0.187778
0.187785
0.187793
0.1878
0.187808
0.187816
0.187823
0.18783
0.187838
0.187845
0.187853
0.18786
0.187868
0.187875
0.187882
0.187889
0.187896
0.187904
0.187911
0.187918
0.187925
0.187932
0.187939
0.187946
0.187953
0.187959
0.187966
0.187973
0.18798
0.187987
0.187993
0.188001
0.187999
0.188045
0.187956
0.187906
0.187898
0.187899
0.187903
0.187907
0.187912
0.187916
0.187921
0.187925
0.18793
0.187934
0.187939
0.187945
0.187941
0.187985
0.173635
0.173591
0.173586
0.173591
0.173598
0.173605
0.173613
0.17362
0.173628
0.173635
0.173643
0.17365
0.173657
0.173665
0.173672
0.173679
0.173686
0.173693
0.1737
0.173708
0.173715
0.173722
0.173729
0.173736
0.173743
0.17375
0.173757
0.173764
0.17377
0.173777
0.173784
0.173791
0.173797
0.173804
0.173811
0.173817
0.173824
0.173831
0.173837
0.173843
0.17385
0.173856
0.173864
0.173862
0.173906
0.173819
0.173772
0.173765
0.173766
0.17377
0.173774
0.173779
0.173783
0.173788
0.173792
0.173797
0.173801
0.173805
0.173811
0.173807
0.173849
0.160632
0.160591
0.160586
0.160591
0.160597
0.160604
0.160611
0.160618
0.160625
0.160632
0.160639
0.160646
0.160653
0.16066
0.160667
0.160674
0.160681
0.160687
0.160694
0.160701
0.160708
0.160714
0.160721
0.160728
0.160734
0.160741
0.160748
0.160754
0.160761
0.160767
0.160774
0.16078
0.160786
0.160793
0.160799
0.160805
0.160812
0.160818
0.160824
0.16083
0.160836
0.160842
0.16085
0.160848
0.160889
0.160806
0.160762
0.160755
0.160756
0.16076
0.160764
0.160769
0.160773
0.160777
0.160782
0.160786
0.16079
0.160794
0.160799
0.160796
0.160835
0.148692
0.148653
0.148649
0.148653
0.148659
0.148665
0.148672
0.148679
0.148685
0.148692
0.148699
0.148705
0.148712
0.148718
0.148725
0.148731
0.148737
0.148744
0.14875
0.148757
0.148763
0.148769
0.148776
0.148782
0.148788
0.148795
0.148801
0.148807
0.148813
0.148819
0.148825
0.148832
0.148838
0.148844
0.14885
0.148856
0.148862
0.148868
0.148873
0.148879
0.148885
0.148891
0.148897
0.148896
0.148934
0.148854
0.148813
0.148806
0.148808
0.148812
0.148816
0.14882
0.148824
0.148829
0.148833
0.148837
0.148841
0.148845
0.14885
0.148847
0.148883
0.137751
0.137714
0.13771
0.137714
0.13772
0.137726
0.137732
0.137738
0.137745
0.137751
0.137757
0.137763
0.137769
0.137775
0.137781
0.137787
0.137793
0.1378
0.137806
0.137812
0.137818
0.137824
0.13783
0.137836
0.137841
0.137847
0.137853
0.137859
0.137865
0.137871
0.137876
0.137882
0.137888
0.137894
0.137899
0.137905
0.137911
0.137916
0.137922
0.137927
0.137933
0.137938
0.137944
0.137944
0.137979
0.137902
0.137863
0.137857
0.137859
0.137862
0.137866
0.13787
0.137874
0.137878
0.137882
0.137886
0.13789
0.137894
0.137899
0.137896
0.13793
0.127744
0.12771
0.127707
0.12771
0.127716
0.127721
0.127727
0.127733
0.127739
0.127744
0.12775
0.127756
0.127762
0.127767
0.127773
0.127779
0.127784
0.12779
0.127796
0.127801
0.127807
0.127812
0.127818
0.127824
0.127829
0.127835
0.12784
0.127846
0.127851
0.127857
0.127862
0.127867
0.127873
0.127878
0.127884
0.127889
0.127894
0.127899
0.127905
0.12791
0.127915
0.12792
0.127926
0.127925
0.127958
0.127884
0.127848
0.127842
0.127844
0.127847
0.127851
0.127855
0.127859
0.127863
0.127866
0.12787
0.127874
0.127877
0.127882
0.12788
0.127911
0.118607
0.118576
0.118572
0.118576
0.118581
0.118586
0.118591
0.118597
0.118602
0.118608
0.118613
0.118618
0.118624
0.118629
0.118634
0.11864
0.118645
0.11865
0.118655
0.118661
0.118666
0.118671
0.118676
0.118682
0.118687
0.118692
0.118697
0.118702
0.118707
0.118712
0.118718
0.118723
0.118728
0.118733
0.118738
0.118743
0.118748
0.118753
0.118757
0.118762
0.118767
0.118772
0.118777
0.118777
0.118807
0.118736
0.118702
0.118697
0.118699
0.118702
0.118706
0.118709
0.118713
0.118716
0.11872
0.118724
0.118727
0.11873
0.118735
0.118733
0.118761
0.110275
0.110246
0.110243
0.110246
0.110251
0.110256
0.110261
0.110266
0.110271
0.110276
0.110281
0.110286
0.110291
0.110296
0.110301
0.110305
0.11031
0.110315
0.11032
0.110325
0.11033
0.110335
0.11034
0.110345
0.110349
0.110354
0.110359
0.110364
0.110369
0.110373
0.110378
0.110383
0.110388
0.110392
0.110397
0.110402
0.110406
0.110411
0.110415
0.11042
0.110425
0.110429
0.110434
0.110434
0.110461
0.110393
0.110362
0.110358
0.110359
0.110362
0.110365
0.110369
0.110372
0.110375
0.110379
0.110382
0.110385
0.110389
0.110393
0.110391
0.110417
0.102684
0.102658
0.102655
0.102658
0.102662
0.102667
0.102671
0.102676
0.102681
0.102685
0.10269
0.102694
0.102699
0.102704
0.102708
0.102713
0.102717
0.102722
0.102726
0.102731
0.102736
0.10274
0.102745
0.102749
0.102754
0.102758
0.102763
0.102767
0.102772
0.102776
0.10278
0.102785
0.102789
0.102794
0.102798
0.102802
0.102807
0.102811
0.102815
0.102819
0.102824
0.102828
0.102833
0.102833
0.102857
0.102792
0.102764
0.10276
0.102761
0.102764
0.102767
0.10277
0.102773
0.102776
0.102779
0.102782
0.102785
0.102788
0.102792
0.102791
0.102814
0.0957727
0.0957486
0.0957463
0.095749
0.0957529
0.0957571
0.0957614
0.0957658
0.0957701
0.0957744
0.0957786
0.0957829
0.0957872
0.0957914
0.0957956
0.0957999
0.0958041
0.0958084
0.0958126
0.0958168
0.0958211
0.0958253
0.0958295
0.0958337
0.0958379
0.0958421
0.0958463
0.0958504
0.0958545
0.0958587
0.0958628
0.0958669
0.0958709
0.095875
0.0958791
0.0958831
0.0958871
0.0958911
0.0958951
0.095899
0.095903
0.0959067
0.0959112
0.0959116
0.0959332
0.0958719
0.095846
0.0958421
0.0958433
0.0958457
0.0958484
0.0958512
0.095854
0.0958569
0.0958598
0.0958627
0.0958656
0.0958684
0.0958719
0.0958714
0.0958921
0.0894822
0.0894602
0.0894582
0.0894607
0.0894643
0.0894682
0.0894721
0.0894761
0.0894801
0.0894841
0.0894881
0.089492
0.0894959
0.0894999
0.0895038
0.0895078
0.0895117
0.0895156
0.0895195
0.0895235
0.0895274
0.0895313
0.0895352
0.0895391
0.089543
0.0895469
0.0895508
0.0895546
0.0895585
0.0895623
0.0895661
0.0895699
0.0895737
0.0895775
0.0895812
0.089585
0.0895887
0.0895924
0.0895961
0.0895998
0.0896035
0.089607
0.0896111
0.0896117
0.089631
0.0895728
0.0895492
0.0895456
0.0895466
0.0895487
0.0895511
0.0895537
0.0895563
0.0895589
0.0895616
0.0895643
0.089567
0.0895696
0.0895728
0.0895725
0.089591
0.0837563
0.0837364
0.0837346
0.0837369
0.0837402
0.0837438
0.0837475
0.0837512
0.0837548
0.0837585
0.0837622
0.0837658
0.0837695
0.0837731
0.0837768
0.0837804
0.0837841
0.0837877
0.0837914
0.083795
0.0837986
0.0838023
0.0838059
0.0838095
0.0838131
0.0838167
0.0838203
0.0838239
0.0838275
0.083831
0.0838345
0.0838381
0.0838416
0.0838451
0.0838486
0.0838521
0.0838556
0.083859
0.0838624
0.0838659
0.0838693
0.0838725
0.0838763
0.083877
0.0838942
0.0838392
0.0838176
0.0838142
0.0838151
0.083817
0.0838191
0.0838214
0.0838238
0.0838262
0.0838286
0.0838311
0.0838336
0.083836
0.083839
0.0838389
0.0838554
0.0785427
0.0785247
0.0785231
0.0785253
0.0785283
0.0785316
0.078535
0.0785384
0.0785418
0.0785452
0.0785486
0.078552
0.0785554
0.0785588
0.0785621
0.0785655
0.0785689
0.0785723
0.0785757
0.078579
0.0785824
0.0785858
0.0785891
0.0785925
0.0785958
0.0785992
0.0786025
0.0786058
0.0786091
0.0786124
0.0786157
0.078619
0.0786222
0.0786255
0.0786287
0.078632
0.0786352
0.0786384
0.0786416
0.0786448
0.0786479
0.078651
0.0786545
0.0786553
0.0786706
0.0786185
0.0785988
0.0785957
0.0785964
0.0785981
0.0786
0.078602
0.0786042
0.0786064
0.0786086
0.0786108
0.0786132
0.0786154
0.0786181
0.0786182
0.0786329
0.0737928
0.0737765
0.0737751
0.0737771
0.07378
0.073783
0.0737861
0.0737892
0.0737924
0.0737955
0.0737987
0.0738018
0.0738049
0.0738081
0.0738112
0.0738143
0.0738175
0.0738206
0.0738237
0.0738269
0.07383
0.0738331
0.0738362
0.0738393
0.0738424
0.0738455
0.0738486
0.0738517
0.0738547
0.0738578
0.0738608
0.0738639
0.0738669
0.0738699
0.073873
0.073876
0.073879
0.0738819
0.0738849
0.0738878
0.0738908
0.0738936
0.0738969
0.0738978
0.0739113
0.0738621
0.0738441
0.0738412
0.0738418
0.0738433
0.073845
0.0738468
0.0738487
0.0738507
0.0738527
0.0738548
0.0738569
0.073859
0.0738615
0.0738618
0.0738747
0.0694618
0.069447
0.0694458
0.0694477
0.0694503
0.0694531
0.069456
0.0694589
0.0694618
0.0694647
0.0694676
0.0694705
0.0694734
0.0694763
0.0694792
0.0694821
0.069485
0.0694879
0.0694908
0.0694937
0.0694966
0.0694995
0.0695024
0.0695053
0.0695081
0.069511
0.0695139
0.0695167
0.0695196
0.0695224
0.0695252
0.069528
0.0695309
0.0695337
0.0695365
0.0695393
0.069542
0.0695448
0.0695476
0.0695503
0.069553
0.0695557
0.0695587
0.0695597
0.0695716
0.0695251
0.0695087
0.0695061
0.0695066
0.0695078
0.0695093
0.069511
0.0695127
0.0695145
0.0695163
0.0695182
0.0695202
0.0695221
0.0695244
0.0695248
0.0695362
0.0655086
0.0654953
0.0654942
0.065496
0.0654984
0.065501
0.0655036
0.0655063
0.065509
0.0655116
0.0655143
0.065517
0.0655197
0.0655224
0.0655251
0.0655278
0.0655305
0.0655332
0.0655359
0.0655386
0.0655413
0.0655439
0.0655466
0.0655493
0.065552
0.0655546
0.0655573
0.0655599
0.0655626
0.0655652
0.0655678
0.0655705
0.0655731
0.0655757
0.0655783
0.0655809
0.0655835
0.065586
0.0655886
0.0655912
0.0655937
0.0655962
0.0655989
0.0656
0.0656106
0.0655666
0.0655517
0.0655492
0.0655496
0.0655507
0.065552
0.0655535
0.065555
0.0655566
0.0655583
0.06556
0.0655618
0.0655636
0.0655657
0.0655662
0.0655762
0.0618962
0.0618841
0.0618832
0.0618848
0.061887
0.0618894
0.0618918
0.0618943
0.0618968
0.0618993
0.0619018
0.0619043
0.0619068
0.0619093
0.0619118
0.0619143
0.0619168
0.0619193
0.0619218
0.0619243
0.0619268
0.0619293
0.0619318
0.0619342
0.0619367
0.0619392
0.0619417
0.0619441
0.0619466
0.061949
0.0619515
0.0619539
0.0619563
0.0619588
0.0619612
0.0619636
0.061966
0.0619684
0.0619708
0.0619732
0.0619755
0.0619779
0.0619804
0.0619815
0.0619908
0.0619492
0.0619357
0.0619333
0.0619336
0.0619346
0.0619358
0.0619371
0.0619385
0.0619399
0.0619414
0.061943
0.0619447
0.0619463
0.0619482
0.0619488
0.0619576
0.0585908
0.0585798
0.058579
0.0585805
0.0585826
0.0585848
0.0585871
0.0585893
0.0585916
0.0585939
0.0585963
0.0585986
0.0586009
0.0586032
0.0586055
0.0586079
0.0586102
0.0586125
0.0586148
0.0586172
0.0586195
0.0586218
0.0586241
0.0586264
0.0586287
0.058631
0.0586333
0.0586356
0.0586379
0.0586402
0.0586425
0.0586447
0.058647
0.0586492
0.0586515
0.0586538
0.058656
0.0586582
0.0586605
0.0586627
0.0586649
0.0586671
0.0586694
0.0586706
0.0586787
0.0586395
0.058627
0.0586249
0.0586251
0.058626
0.058627
0.0586282
0.0586294
0.0586307
0.0586321
0.0586335
0.058635
0.0586366
0.0586383
0.058639
0.0586467
0.0555622
0.0555522
0.0555515
0.0555529
0.0555548
0.0555569
0.055559
0.0555611
0.0555632
0.0555654
0.0555675
0.0555697
0.0555718
0.055574
0.0555761
0.0555783
0.0555805
0.0555826
0.0555848
0.055587
0.0555891
0.0555913
0.0555934
0.0555956
0.0555977
0.0555999
0.055602
0.0556041
0.0556063
0.0556084
0.0556105
0.0556126
0.0556147
0.0556168
0.0556189
0.055621
0.0556231
0.0556252
0.0556273
0.0556294
0.0556314
0.0556335
0.0556356
0.0556368
0.055644
0.0556069
0.0555955
0.0555935
0.0555937
0.0555944
0.0555954
0.0555964
0.0555975
0.0555987
0.0555999
0.0556013
0.0556027
0.0556041
0.0556057
0.0556064
0.0556131
0.0527832
0.0527742
0.0527736
0.0527749
0.0527766
0.0527785
0.0527805
0.0527824
0.0527844
0.0527864
0.0527884
0.0527904
0.0527924
0.0527944
0.0527964
0.0527985
0.0528005
0.0528025
0.0528045
0.0528065
0.0528085
0.0528105
0.0528125
0.0528145
0.0528165
0.0528185
0.0528205
0.0528225
0.0528245
0.0528265
0.0528285
0.0528304
0.0528324
0.0528344
0.0528363
0.0528383
0.0528402
0.0528422
0.0528441
0.0528461
0.052848
0.0528499
0.0528519
0.0528532
0.0528594
0.0528244
0.052814
0.0528121
0.0528122
0.0528129
0.0528137
0.0528146
0.0528156
0.0528167
0.0528178
0.052819
0.0528203
0.0528216
0.0528231
0.0528239
0.0528297
0.0502296
0.0502214
0.0502208
0.0502221
0.0502237
0.0502255
0.0502273
0.0502291
0.0502309
0.0502328
0.0502346
0.0502365
0.0502384
0.0502403
0.0502421
0.050244
0.0502459
0.0502478
0.0502497
0.0502515
0.0502534
0.0502553
0.0502572
0.050259
0.0502609
0.0502628
0.0502646
0.0502665
0.0502683
0.0502702
0.050272
0.0502739
0.0502757
0.0502775
0.0502794
0.0502812
0.050283
0.0502849
0.0502867
0.0502885
0.0502903
0.0502921
0.050294
0.0502952
0.0503007
0.0502676
0.050258
0.0502563
0.0502564
0.0502569
0.0502577
0.0502585
0.0502594
0.0502604
0.0502614
0.0502625
0.0502637
0.0502649
0.0502663
0.0502671
0.0502722
0.0478797
0.0478722
0.0478717
0.0478729
0.0478744
0.047876
0.0478777
0.0478794
0.0478811
0.0478828
0.0478846
0.0478863
0.0478881
0.0478898
0.0478916
0.0478933
0.0478951
0.0478968
0.0478986
0.0479003
0.0479021
0.0479039
0.0479056
0.0479073
0.0479091
0.0479108
0.0479126
0.0479143
0.047916
0.0479178
0.0479195
0.0479212
0.047923
0.0479247
0.0479264
0.0479281
0.0479298
0.0479315
0.0479332
0.0479349
0.0479366
0.0479383
0.0479401
0.0479413
0.0479461
0.0479148
0.0479061
0.0479044
0.0479045
0.047905
0.0479056
0.0479063
0.0479072
0.0479081
0.047909
0.04791
0.0479111
0.0479123
0.0479136
0.0479143
0.0479188
0.0457142
0.0457073
0.0457069
0.045708
0.0457094
0.0457109
0.0457125
0.0457141
0.0457157
0.0457173
0.0457189
0.0457205
0.0457222
0.0457238
0.0457254
0.0457271
0.0457287
0.0457304
0.045732
0.0457336
0.0457353
0.0457369
0.0457386
0.0457402
0.0457418
0.0457435
0.0457451
0.0457467
0.0457483
0.04575
0.0457516
0.0457532
0.0457548
0.0457564
0.045758
0.0457597
0.0457613
0.0457629
0.0457645
0.0457661
0.0457677
0.0457693
0.0457709
0.0457721
0.0457763
0.0457468
0.0457387
0.0457372
0.0457372
0.0457376
0.0457382
0.0457389
0.0457396
0.0457404
0.0457413
0.0457423
0.0457433
0.0457443
0.0457455
0.0457463
0.0457501
0.0437159
0.0437096
0.0437092
0.0437102
0.0437115
0.043713
0.0437144
0.0437159
0.0437174
0.0437189
0.0437204
0.043722
0.0437235
0.043725
0.0437266
0.0437281
0.0437296
0.0437312
0.0437327
0.0437342
0.0437358
0.0437373
0.0437388
0.0437404
0.0437419
0.0437434
0.043745
0.0437465
0.043748
0.0437495
0.0437511
0.0437526
0.0437541
0.0437556
0.0437571
0.0437586
0.0437601
0.0437617
0.0437632
0.0437647
0.0437662
0.0437677
0.0437692
0.0437704
0.0437741
0.0437463
0.0437388
0.0437374
0.0437374
0.0437377
0.0437382
0.0437388
0.0437395
0.0437402
0.0437411
0.0437419
0.0437429
0.0437439
0.043745
0.0437457
0.0437491
0.0418695
0.0418637
0.0418634
0.0418643
0.0418656
0.0418669
0.0418683
0.0418697
0.0418711
0.0418725
0.0418739
0.0418753
0.0418768
0.0418782
0.0418796
0.0418811
0.0418825
0.041884
0.0418854
0.0418868
0.0418883
0.0418897
0.0418912
0.0418926
0.041894
0.0418955
0.0418969
0.0418983
0.0418998
0.0419012
0.0419026
0.0419041
0.0419055
0.0419069
0.0419083
0.0419098
0.0419112
0.0419126
0.041914
0.0419155
0.0419169
0.0419183
0.0419197
0.0419209
0.0419241
0.0418979
0.041891
0.0418896
0.0418896
0.0418899
0.0418904
0.0418909
0.0418915
0.0418922
0.041893
0.0418938
0.0418947
0.0418956
0.0418966
0.0418974
0.0419003
0.0401615
0.0401561
0.0401558
0.0401567
0.0401579
0.0401591
0.0401604
0.0401617
0.040163
0.0401644
0.0401657
0.040167
0.0401684
0.0401697
0.0401711
0.0401724
0.0401738
0.0401751
0.0401765
0.0401779
0.0401792
0.0401806
0.0401819
0.0401833
0.0401846
0.040186
0.0401873
0.0401887
0.04019
0.0401914
0.0401927
0.0401941
0.0401954
0.0401967
0.0401981
0.0401994
0.0402008
0.0402021
0.0402034
0.0402048
0.0402061
0.0402075
0.0402089
0.04021
0.0402128
0.0401881
0.0401817
0.0401804
0.0401804
0.0401807
0.0401811
0.0401816
0.0401821
0.0401828
0.0401835
0.0401842
0.040185
0.0401859
0.0401868
0.0401876
0.0401901
0.0385798
0.0385748
0.0385745
0.0385754
0.0385765
0.0385776
0.0385788
0.03858
0.0385813
0.0385825
0.0385838
0.038585
0.0385863
0.0385876
0.0385888
0.0385901
0.0385914
0.0385927
0.0385939
0.0385952
0.0385965
0.0385978
0.038599
0.0386003
0.0386016
0.0386028
0.0386041
0.0386054
0.0386067
0.0386079
0.0386092
0.0386105
0.0386117
0.038613
0.0386143
0.0386155
0.0386168
0.0386181
0.0386193
0.0386206
0.0386219
0.0386231
0.0386244
0.0386256
0.038628
0.0386049
0.0385988
0.0385977
0.0385976
0.0385979
0.0385982
0.0385987
0.0385992
0.0385998
0.0386004
0.0386011
0.0386018
0.0386027
0.0386035
0.0386043
0.0386064
0.0371136
0.0371089
0.0371087
0.0371095
0.0371105
0.0371116
0.0371127
0.0371139
0.037115
0.0371162
0.0371174
0.0371186
0.0371198
0.037121
0.0371222
0.0371234
0.0371246
0.0371258
0.037127
0.0371282
0.0371294
0.0371306
0.0371318
0.037133
0.0371342
0.0371354
0.0371366
0.0371378
0.037139
0.0371402
0.0371414
0.0371425
0.0371437
0.0371449
0.0371461
0.0371473
0.0371485
0.0371497
0.0371509
0.0371521
0.0371533
0.0371546
0.0371558
0.0371569
0.037159
0.0371373
0.0371317
0.0371306
0.0371305
0.0371307
0.0371311
0.0371315
0.0371319
0.0371325
0.037133
0.0371337
0.0371344
0.0371352
0.037136
0.0371367
0.0371385
0.0357534
0.0357491
0.0357489
0.0357496
0.0357506
0.0357516
0.0357526
0.0357537
0.0357548
0.0357559
0.035757
0.0357581
0.0357593
0.0357604
0.0357615
0.0357626
0.0357638
0.0357649
0.035766
0.0357672
0.0357683
0.0357694
0.0357706
0.0357717
0.0357728
0.035774
0.0357751
0.0357762
0.0357774
0.0357785
0.0357796
0.0357808
0.0357819
0.035783
0.0357842
0.0357853
0.0357864
0.0357876
0.0357887
0.0357899
0.035791
0.0357922
0.0357933
0.0357944
0.0357962
0.035776
0.0357707
0.0357696
0.0357696
0.0357697
0.03577
0.0357704
0.0357708
0.0357713
0.0357719
0.0357725
0.0357731
0.0357738
0.0357746
0.0357753
0.0357768
0.0344908
0.0344867
0.0344865
0.0344872
0.0344881
0.0344891
0.0344901
0.0344911
0.0344921
0.0344931
0.0344942
0.0344952
0.0344963
0.0344974
0.0344984
0.0344995
0.0345006
0.0345016
0.0345027
0.0345038
0.0345049
0.0345059
0.034507
0.0345081
0.0345091
0.0345102
0.0345113
0.0345124
0.0345134
0.0345145
0.0345156
0.0345166
0.0345177
0.0345188
0.0345199
0.0345209
0.034522
0.0345231
0.0345242
0.0345253
0.0345264
0.0345274
0.0345286
0.0345296
0.0345311
0.0345123
0.0345073
0.0345063
0.0345062
0.0345064
0.0345067
0.034507
0.0345074
0.0345078
0.0345084
0.0345089
0.0345095
0.0345102
0.0345109
0.0345116
0.0345128
0.0333182
0.0333143
0.0333142
0.0333148
0.0333157
0.0333166
0.0333175
0.0333184
0.0333194
0.0333204
0.0333214
0.0333224
0.0333234
0.0333244
0.0333254
0.0333264
0.0333274
0.0333284
0.0333294
0.0333305
0.0333315
0.0333325
0.0333335
0.0333345
0.0333355
0.0333365
0.0333376
0.0333386
0.0333396
0.0333406
0.0333416
0.0333426
0.0333437
0.0333447
0.0333457
0.0333467
0.0333477
0.0333488
0.0333498
0.0333508
0.0333519
0.0333529
0.033354
0.033355
0.0333563
0.0333388
0.0333341
0.0333332
0.0333331
0.0333332
0.0333335
0.0333338
0.0333341
0.0333345
0.033335
0.0333355
0.0333361
0.0333367
0.0333373
0.033338
0.033339
0.0322289
0.0322253
0.0322251
0.0322257
0.0322265
0.0322274
0.0322283
0.0322291
0.0322301
0.032231
0.0322319
0.0322329
0.0322338
0.0322348
0.0322357
0.0322367
0.0322376
0.0322386
0.0322395
0.0322405
0.0322415
0.0322424
0.0322434
0.0322444
0.0322453
0.0322463
0.0322472
0.0322482
0.0322492
0.0322501
0.0322511
0.0322521
0.032253
0.032254
0.032255
0.0322559
0.0322569
0.0322579
0.0322589
0.0322599
0.0322609
0.0322618
0.0322628
0.0322638
0.0322649
0.0322488
0.0322443
0.0322434
0.0322433
0.0322435
0.0322437
0.0322439
0.0322443
0.0322446
0.0322451
0.0322455
0.0322461
0.0322466
0.0322473
0.0322479
0.0322487
0.0312171
0.0312136
0.0312135
0.031214
0.0312148
0.0312156
0.0312164
0.0312173
0.0312181
0.031219
0.0312199
0.0312208
0.0312217
0.0312226
0.0312235
0.0312244
0.0312253
0.0312262
0.0312271
0.031228
0.0312289
0.0312298
0.0312308
0.0312317
0.0312326
0.0312335
0.0312344
0.0312353
0.0312362
0.0312372
0.0312381
0.031239
0.0312399
0.0312408
0.0312418
0.0312427
0.0312436
0.0312445
0.0312455
0.0312464
0.0312474
0.0312483
0.0312493
0.0312502
0.0312511
0.0312363
0.031232
0.0312312
0.0312311
0.0312312
0.0312314
0.0312316
0.0312319
0.0312323
0.0312327
0.0312331
0.0312336
0.0312341
0.0312347
0.0312353
0.0312359
0.0302774
0.0302741
0.030274
0.0302745
0.0302752
0.0302759
0.0302767
0.0302775
0.0302783
0.0302792
0.03028
0.0302808
0.0302817
0.0302825
0.0302834
0.0302843
0.0302851
0.030286
0.0302868
0.0302877
0.0302886
0.0302895
0.0302903
0.0302912
0.0302921
0.0302929
0.0302938
0.0302947
0.0302955
0.0302964
0.0302973
0.0302982
0.030299
0.0302999
0.0303008
0.0303017
0.0303026
0.0303035
0.0303043
0.0303052
0.0303061
0.030307
0.030308
0.0303089
0.0303096
0.030296
0.030292
0.0302912
0.0302911
0.0302912
0.0302913
0.0302915
0.0302918
0.0302921
0.0302925
0.0302929
0.0302934
0.0302938
0.0302944
0.030295
0.0302954
0.0294053
0.0294021
0.0294019
0.0294024
0.0294031
0.0294038
0.0294045
0.0294053
0.0294061
0.0294068
0.0294076
0.0294084
0.0294092
0.0294101
0.0294109
0.0294117
0.0294125
0.0294133
0.0294141
0.029415
0.0294158
0.0294166
0.0294175
0.0294183
0.0294191
0.0294199
0.0294208
0.0294216
0.0294224
0.0294233
0.0294241
0.0294249
0.0294258
0.0294266
0.0294274
0.0294283
0.0294291
0.02943
0.0294308
0.0294317
0.0294325
0.0294334
0.0294343
0.0294352
0.0294358
0.0294234
0.0294195
0.0294187
0.0294186
0.0294187
0.0294189
0.0294191
0.0294193
0.0294196
0.0294199
0.0294203
0.0294207
0.0294212
0.0294217
0.0294222
0.0294225
0.0285966
0.0285935
0.0285933
0.0285938
0.0285944
0.0285951
0.0285958
0.0285965
0.0285972
0.028598
0.0285987
0.0285995
0.0286002
0.028601
0.0286018
0.0286026
0.0286033
0.0286041
0.0286049
0.0286057
0.0286065
0.0286073
0.028608
0.0286088
0.0286096
0.0286104
0.0286112
0.028612
0.0286128
0.0286136
0.0286144
0.0286152
0.028616
0.0286168
0.0286176
0.0286184
0.0286192
0.02862
0.0286208
0.0286216
0.0286224
0.0286233
0.0286241
0.028625
0.0286254
0.0286142
0.0286105
0.0286098
0.0286097
0.0286097
0.0286099
0.02861
0.0286103
0.0286105
0.0286108
0.0286112
0.0286116
0.028612
0.0286124
0.028613
0.0286131