/*--------------------------------*- C++ -*----------------------------------*\
  =========                 |
  \\      /  F ield         | OpenFOAM: The Open Source CFD Toolbox
   \\    /   O peration     | Website:  https://openfoam.org
    \\  /    A nd           | Version:  7
     \\/     M anipulation  |
\*---------------------------------------------------------------------------*/
FoamFile
{
    version     2.0;
    format      ascii;
    class       surfaceScalarField;
    location    "1000";
    object      phi;
}
// * * * * * * * * * * * * * * * * * * * * * * * * * * * * * * * * * * * * * //

dimensions      [0 3 -1 0 0 0 0];

internalField   nonuniform List<scalar> 
7859
(
0.000150119
-4.15981e-09
0.00015012
-3.76123e-09
0.00015012
-4.17954e-09
0.00015012
-3.89597e-09
0.00015012
-3.44595e-09
0.00015012
-2.90061e-09
0.00015012
-2.30026e-09
0.00015012
-1.72135e-09
0.00015012
-1.18067e-09
0.00015012
-6.83148e-10
0.00015012
-2.25882e-10
0.00015012
1.97638e-10
0.00015012
5.92719e-10
0.00015012
9.62703e-10
0.00015012
1.30876e-09
0.00015012
1.63049e-09
0.00015012
1.92665e-09
0.00015012
2.19576e-09
0.00015012
2.43646e-09
0.00015012
2.64772e-09
0.000150119
2.82897e-09
0.000150119
2.98017e-09
0.000150119
3.10185e-09
0.000150119
3.19502e-09
0.000150119
3.26098e-09
0.000150119
3.30107e-09
0.000150119
3.31637e-09
0.000150118
3.3075e-09
0.000150118
3.27443e-09
0.000150118
3.21668e-09
0.000150118
3.13304e-09
0.000150118
3.02241e-09
0.000150118
2.88277e-09
0.000150118
2.71337e-09
0.000150117
2.51149e-09
0.000150117
2.27855e-09
0.000150117
2.01158e-09
0.000150117
1.71742e-09
0.000150117
1.40082e-09
0.000150117
1.06875e-09
0.000150117
8.06521e-10
0.000150117
4.92118e-10
0.000150117
8.80451e-10
0.000150117
5.47826e-10
5.48164e-09
0.000150118
1.2129e-08
0.000150118
7.12015e-09
0.000150118
4.40685e-09
0.000150118
3.75762e-09
0.000150118
3.6186e-09
0.000150118
3.69728e-09
0.000150118
3.8013e-09
0.000150118
3.7875e-09
0.000150118
3.64716e-09
0.000150118
3.2759e-09
0.000150118
2.80201e-09
0.000150118
1.9909e-09
0.000150118
1.29005e-09
0.000150118
1.94667e-11
0.000150118
-5.81908e-10
-2.51631e-09
0.000154787
-4.93772e-09
0.000154788
-4.27321e-09
0.000154788
-4.4222e-09
0.000154788
-4.00443e-09
0.000154788
-3.47184e-09
0.000154788
-2.88883e-09
0.000154788
-2.27084e-09
0.000154788
-1.68261e-09
0.000154788
-1.13648e-09
0.000154788
-6.34868e-10
0.000154788
-1.73964e-10
0.000154788
2.53121e-10
0.000154788
6.51945e-10
0.000154787
1.02602e-09
0.000154787
1.37666e-09
0.000154787
1.70352e-09
0.000154787
2.00538e-09
0.000154787
2.28071e-09
0.000154787
2.52805e-09
0.000154787
2.7463e-09
0.000154787
2.93479e-09
0.000154787
3.09337e-09
0.000154787
3.22242e-09
0.000154787
3.32281e-09
0.000154786
3.39566e-09
0.000154786
3.44214e-09
0.000154786
3.46317e-09
0.000154786
3.45923e-09
0.000154786
3.43019e-09
0.000154786
3.37547e-09
0.000154785
3.29379e-09
0.000154785
3.18396e-09
0.000154785
3.04386e-09
0.000154785
2.87263e-09
0.000154785
2.66735e-09
0.000154785
2.42934e-09
0.000154785
2.15508e-09
0.000154784
1.85157e-09
0.000154784
1.52113e-09
0.000154784
1.17356e-09
0.000154784
8.80509e-10
0.000154784
5.43738e-10
0.000154784
8.29762e-10
0.000154784
4.93874e-10
4.75169e-09
0.000154785
1.09793e-08
0.000154786
6.75818e-09
0.000154786
4.32123e-09
0.000154786
3.72465e-09
0.000154786
3.62016e-09
0.000154786
3.72393e-09
0.000154786
3.8482e-09
0.000154786
3.84966e-09
0.000154786
3.71909e-09
0.000154786
3.34995e-09
0.000154785
2.87118e-09
0.000154785
2.03483e-09
0.000154785
1.30372e-09
0.000154786
-8.04021e-11
0.000154786
-7.69297e-10
-3.02736e-09
0.000159534
-5.73844e-09
0.000159534
-4.72315e-09
0.000159534
-4.62819e-09
0.000159535
-4.09427e-09
0.000159535
-3.48514e-09
0.000159534
-2.86529e-09
0.000159534
-2.22967e-09
0.000159534
-1.63217e-09
0.000159534
-1.08097e-09
0.000159534
-5.75924e-10
0.000159534
-1.12241e-10
0.000159534
3.17407e-10
0.000159534
7.18872e-10
0.000159534
1.09588e-09
0.000159534
1.44991e-09
0.000159534
1.78073e-09
0.000159534
2.08715e-09
0.000159534
2.3676e-09
0.000159534
2.62059e-09
0.000159534
2.84492e-09
0.000159533
3.03983e-09
0.000159533
3.20507e-09
0.000159533
3.3409e-09
0.000159533
3.44802e-09
0.000159533
3.52739e-09
0.000159533
3.58e-09
0.000159533
3.60659e-09
0.000159532
3.60751e-09
0.000159532
3.5825e-09
0.000159532
3.53087e-09
0.000159532
3.45127e-09
0.000159532
3.34238e-09
0.000159532
3.20198e-09
0.000159532
3.02908e-09
0.000159531
2.82058e-09
0.000159531
2.57763e-09
0.000159531
2.29617e-09
0.000159531
1.98329e-09
0.000159531
1.63875e-09
0.000159531
1.27528e-09
0.000159531
9.49471e-10
0.000159531
5.89732e-10
0.000159531
7.57721e-10
0.000159531
4.30544e-10
3.82522e-09
0.000159532
9.50824e-09
0.000159532
6.29116e-09
0.000159533
4.23124e-09
0.000159533
3.71107e-09
0.000159533
3.6386e-09
0.000159532
3.76029e-09
0.000159532
3.89934e-09
0.000159532
3.91287e-09
0.000159532
3.79019e-09
0.000159532
3.4224e-09
0.000159532
2.93821e-09
0.000159532
2.07691e-09
0.000159532
1.31452e-09
0.000159532
-1.81396e-10
0.000159532
-9.60064e-10
-3.60311e-09
0.000164363
-6.55508e-09
0.000164364
-5.15593e-09
0.000164364
-4.80679e-09
0.000164364
-4.16426e-09
0.000164364
-3.48389e-09
0.000164364
-2.82899e-09
0.000164364
-2.17641e-09
0.000164364
-1.56999e-09
0.000164364
-1.01417e-09
0.000164364
-5.06346e-10
0.000164364
-4.07059e-11
0.000164364
3.90549e-10
0.000164363
7.93603e-10
0.000164363
1.17242e-09
0.000164363
1.52868e-09
0.000164363
1.86227e-09
0.000164363
2.17207e-09
0.000164363
2.45653e-09
0.000164363
2.7141e-09
0.000164363
2.94353e-09
0.000164363
3.14396e-09
0.000164363
3.31507e-09
0.000164362
3.45699e-09
0.000164362
3.57027e-09
0.000164362
3.65569e-09
0.000164362
3.71407e-09
0.000164362
3.74598e-09
0.000164362
3.75159e-09
0.000164362
3.73053e-09
0.000164362
3.68198e-09
0.000164361
3.60447e-09
0.000164361
3.4966e-09
0.000164361
3.356e-09
0.000164361
3.18156e-09
0.000164361
2.96995e-09
0.000164361
2.72218e-09
0.00016436
2.43357e-09
0.00016436
2.11129e-09
0.00016436
1.75238e-09
0.00016436
1.37259e-09
0.00016436
1.01222e-09
0.00016436
6.28516e-10
0.00016436
6.65719e-10
0.00016436
3.49511e-10
2.82647e-09
0.000164361
7.83414e-09
0.000164362
5.65654e-09
0.000164362
4.06737e-09
0.000164362
3.67469e-09
0.000164362
3.65185e-09
0.000164362
3.79435e-09
0.000164362
3.94723e-09
0.000164362
3.97174e-09
0.000164362
3.85626e-09
0.000164362
3.48972e-09
0.000164362
2.99999e-09
0.000164362
2.11445e-09
0.000164362
1.32011e-09
0.000164362
-2.85305e-10
0.000164362
-1.15387e-09
-4.20009e-09
0.000169277
-7.37221e-09
0.000169277
-5.58904e-09
0.000169277
-4.97076e-09
0.000169277
-4.21841e-09
0.000169277
-3.46876e-09
0.000169277
-2.78006e-09
0.000169277
-2.11133e-09
0.000169277
-1.49644e-09
0.000169277
-9.36501e-10
0.000169277
-4.26518e-10
0.000169277
4.03143e-11
0.000169277
4.72289e-10
0.000169277
8.75942e-10
0.000169277
1.2555e-09
0.000169277
1.61284e-09
0.000169276
1.94804e-09
0.000169276
2.26006e-09
0.000169276
2.54739e-09
0.000169276
2.80845e-09
0.000169276
3.04194e-09
0.000169276
3.24695e-09
0.000169276
3.42307e-09
0.000169276
3.57032e-09
0.000169276
3.68909e-09
0.000169276
3.78002e-09
0.000169275
3.84373e-09
0.000169275
3.8806e-09
0.000169275
3.89067e-09
0.000169275
3.87338e-09
0.000169275
3.8278e-09
0.000169275
3.75236e-09
0.000169275
3.64551e-09
0.000169274
3.50475e-09
0.000169274
3.32883e-09
0.000169274
3.1142e-09
0.000169274
2.86166e-09
0.000169274
2.56593e-09
0.000169274
2.2342e-09
0.000169274
1.86066e-09
0.000169273
1.46409e-09
0.000169273
1.06753e-09
0.000169273
6.58445e-10
0.000169274
5.55558e-10
0.000169274
2.43174e-10
1.81698e-09
0.000169274
6.0542e-09
0.000169275
4.8614e-09
0.000169275
3.7942e-09
0.000169275
3.58047e-09
0.000169275
3.63602e-09
0.000169275
3.81121e-09
0.000169275
3.98212e-09
0.000169275
4.01935e-09
0.000169275
3.91193e-09
0.000169275
3.54754e-09
0.000169275
3.05281e-09
0.000169275
2.14428e-09
0.000169275
1.31774e-09
0.000169275
-3.93923e-10
0.000169275
-1.35286e-09
-4.79645e-09
0.000174275
-8.1748e-09
0.000174276
-6.02652e-09
0.000174276
-5.1296e-09
0.000174276
-4.2627e-09
0.000174276
-3.44265e-09
0.000174276
-2.71998e-09
0.000174276
-2.03547e-09
0.000174275
-1.41246e-09
0.000174275
-8.48793e-10
0.000174275
-3.37201e-10
0.000174275
1.30146e-10
0.000174275
5.62041e-10
0.000174275
9.65385e-10
0.000174275
1.34467e-09
0.000174275
1.70202e-09
0.000174275
2.0377e-09
0.000174275
2.3508e-09
0.000174275
2.63985e-09
0.000174274
2.90329e-09
0.000174274
3.1398e-09
0.000174274
3.34841e-09
0.000174274
3.52863e-09
0.000174274
3.68039e-09
0.000174274
3.80395e-09
0.000174274
3.89976e-09
0.000174274
3.96827e-09
0.000174274
4.00969e-09
0.000174273
4.02387e-09
0.000174273
4.01011e-09
0.000174273
3.96734e-09
0.000174273
3.89385e-09
0.000174273
3.78795e-09
0.000174273
3.64702e-09
0.000174273
3.46963e-09
0.000174272
3.25199e-09
0.000174272
2.99471e-09
0.000174272
2.69185e-09
0.000174272
2.35059e-09
0.000174272
1.96216e-09
0.000174272
1.54833e-09
0.000174272
1.11419e-09
0.000174272
6.77897e-10
0.000174272
4.28975e-10
0.000174272
1.07138e-10
8.26264e-10
0.000174272
4.238e-09
0.000174273
3.93961e-09
0.000174273
3.40611e-09
0.000174273
3.40823e-09
0.000174274
3.5717e-09
0.000174274
3.79639e-09
0.000174274
3.99371e-09
0.000174273
4.04811e-09
0.000174273
3.95133e-09
0.000174273
3.59105e-09
0.000174273
3.09258e-09
0.000174273
2.16293e-09
0.000174273
1.30442e-09
0.000174273
-5.09069e-10
0.000174274
-1.55937e-09
-5.38052e-09
0.00017936
-8.95068e-09
0.00017936
-6.46577e-09
0.00017936
-5.28833e-09
0.00017936
-4.30259e-09
0.00017936
-3.40946e-09
0.00017936
-2.65127e-09
0.00017936
-1.95062e-09
0.00017936
-1.31949e-09
0.00017936
-7.52321e-10
0.00017936
-2.39528e-10
0.00017936
2.27776e-10
0.00017936
6.58902e-10
0.000179359
1.06113e-09
0.000179359
1.43923e-09
0.000179359
1.79559e-09
0.000179359
2.13068e-09
0.000179359
2.44374e-09
0.000179359
2.73339e-09
0.000179359
2.99812e-09
0.000179359
3.23658e-09
0.000179359
3.44779e-09
0.000179359
3.63119e-09
0.000179359
3.7866e-09
0.000179358
3.91417e-09
0.000179358
4.01418e-09
0.000179358
4.08692e-09
0.000179358
4.13239e-09
0.000179358
4.15029e-09
0.000179358
4.13974e-09
0.000179358
4.09953e-09
0.000179358
4.0278e-09
0.000179357
3.92273e-09
0.000179357
3.78154e-09
0.000179357
3.60262e-09
0.000179357
3.38196e-09
0.000179357
3.11991e-09
0.000179357
2.80989e-09
0.000179357
2.45899e-09
0.000179357
2.05542e-09
0.000179356
1.62383e-09
0.000179356
1.15097e-09
0.000179356
6.85337e-10
0.000179357
2.87451e-10
0.000179357
-6.01029e-11
-1.32142e-10
0.000179356
2.43225e-09
0.000179357
2.93034e-09
0.000179358
2.916e-09
0.000179358
3.15286e-09
0.000179358
3.44752e-09
0.000179358
3.73883e-09
0.000179358
3.97299e-09
0.000179358
4.05092e-09
0.000179358
3.96872e-09
0.000179358
3.61548e-09
0.000179358
3.11523e-09
0.000179358
2.16694e-09
0.000179358
1.27718e-09
0.000179358
-6.32518e-10
0.000179358
-1.7753e-09
-5.94616e-09
0.000184531
-9.6905e-09
0.000184532
-6.90157e-09
0.000184532
-5.44842e-09
0.000184532
-4.34192e-09
0.000184532
-3.37305e-09
0.000184532
-2.57701e-09
0.000184532
-1.85916e-09
0.000184532
-1.21948e-09
0.000184532
-6.4875e-10
0.000184532
-1.34973e-10
0.000184531
3.31879e-10
0.000184531
7.61676e-10
0.000184531
1.16209e-09
0.000184531
1.53819e-09
0.000184531
1.89263e-09
0.000184531
2.22613e-09
0.000184531
2.5381e-09
0.000184531
2.82728e-09
0.000184531
3.09222e-09
0.000184531
3.33159e-09
0.00018453
3.5444e-09
0.00018453
3.73003e-09
0.00018453
3.88822e-09
0.00018453
4.01899e-09
0.00018453
4.12249e-09
0.00018453
4.19882e-09
0.00018453
4.2478e-09
0.00018453
4.26894e-09
0.00018453
4.26122e-09
0.000184529
4.22326e-09
0.000184529
4.15304e-09
0.000184529
4.04861e-09
0.000184529
3.90702e-09
0.000184529
3.72647e-09
0.000184529
3.50271e-09
0.000184529
3.23583e-09
0.000184529
2.91858e-09
0.000184529
2.55791e-09
0.000184528
2.13897e-09
0.000184528
1.68911e-09
0.000184528
1.17667e-09
0.000184528
6.79364e-10
0.000184529
1.3219e-10
0.000184529
-2.57987e-10
-1.05208e-09
0.000184527
6.67883e-10
0.000184528
1.86889e-09
0.000184529
2.34515e-09
0.000184529
2.82051e-09
0.00018453
3.26061e-09
0.00018453
3.63249e-09
0.00018453
3.91368e-09
0.00018453
4.02215e-09
0.00018453
3.95927e-09
0.00018453
3.61666e-09
0.00018453
3.11709e-09
0.00018453
2.15316e-09
0.00018453
1.23333e-09
0.00018453
-7.65848e-10
0.00018453
-2.00192e-09
-6.49e-09
0.000189792
-1.03871e-08
0.000189792
-7.32804e-09
0.000189792
-5.60913e-09
0.000189792
-4.3827e-09
0.000189792
-3.3365e-09
0.000189792
-2.50023e-09
0.000189792
-1.7637e-09
0.000189792
-1.11466e-09
0.000189792
-5.40036e-10
0.000189792
-2.52851e-11
0.000189792
4.40873e-10
0.000189791
8.68919e-10
0.000189791
1.26694e-09
0.000189791
1.64033e-09
0.000189791
1.99203e-09
0.000189791
2.32302e-09
0.000189791
2.63292e-09
0.000189791
2.9206e-09
0.000189791
3.18472e-09
0.000189791
3.42398e-09
0.000189791
3.6374e-09
0.000189791
3.82432e-09
0.00018979
3.98441e-09
0.00018979
4.11757e-09
0.00018979
4.22381e-09
0.00018979
4.30305e-09
0.00018979
4.35495e-09
0.00018979
4.37883e-09
0.00018979
4.37349e-09
0.00018979
4.3374e-09
0.00018979
4.2684e-09
0.000189789
4.16435e-09
0.000189789
4.02216e-09
0.000189789
3.83982e-09
0.000189789
3.61284e-09
0.000189789
3.34103e-09
0.000189789
3.01645e-09
0.000189789
2.64586e-09
0.000189789
2.21135e-09
0.000189789
1.7427e-09
0.000189789
1.19011e-09
0.000189789
6.58744e-10
0.000189789
-3.58184e-11
0.000189789
-4.84629e-10
-1.93044e-09
0.000189787
-1.03398e-09
0.000189788
7.84141e-10
0.000189789
1.71651e-09
0.000189789
2.42395e-09
0.000189789
3.01507e-09
0.00018979
3.47662e-09
0.00018979
3.81301e-09
0.00018979
3.95848e-09
0.00018979
3.91966e-09
0.00018979
3.59148e-09
0.00018979
3.09531e-09
0.00018979
2.11908e-09
0.00018979
1.17069e-09
0.00018979
-9.10261e-10
0.00018979
-2.23978e-09
-7.00978e-09
0.000195141
-1.10345e-08
0.000195142
-7.73948e-09
0.000195142
-5.76858e-09
0.000195142
-4.4255e-09
0.000195142
-3.30193e-09
0.000195142
-2.42353e-09
0.000195142
-1.66678e-09
0.000195142
-1.00736e-09
0.000195142
-4.28287e-10
0.000195141
8.76187e-11
0.000195141
5.52998e-10
0.000195141
9.79006e-10
0.000195141
1.37418e-09
0.000195141
1.74426e-09
0.000195141
2.0925e-09
0.000195141
2.42014e-09
0.000195141
2.72705e-09
0.000195141
3.01228e-09
0.000195141
3.27459e-09
0.00019514
3.51277e-09
0.00019514
3.72584e-09
0.00019514
3.91313e-09
0.00019514
4.07424e-09
0.00019514
4.20897e-09
0.00019514
4.31718e-09
0.00019514
4.39863e-09
0.00019514
4.45282e-09
0.00019514
4.47888e-09
0.00019514
4.47545e-09
0.000195139
4.44082e-09
0.000195139
4.37267e-09
0.000195139
4.26871e-09
0.000195139
4.12566e-09
0.000195139
3.94134e-09
0.000195139
3.71097e-09
0.000195139
3.43409e-09
0.000195139
3.10206e-09
0.000195139
2.72139e-09
0.000195139
2.27112e-09
0.000195139
1.78321e-09
0.000195139
1.19021e-09
0.000195139
6.22427e-10
0.000195139
-2.15715e-10
0.000195139
-7.37361e-10
-2.76518e-09
0.000195137
-2.6579e-09
0.000195138
-3.01026e-10
0.000195138
1.05126e-09
0.000195139
1.97853e-09
0.000195139
2.71951e-09
0.000195139
3.2749e-09
0.000195139
3.67172e-09
0.000195139
3.85912e-09
0.00019514
3.84844e-09
0.00019514
3.5382e-09
0.00019514
3.04811e-09
0.00019514
2.06301e-09
0.00019514
1.08782e-09
0.00019514
-1.06641e-09
0.00019514
-2.48868e-09
-7.50351e-09
0.000200582
-1.16277e-08
0.000200582
-8.13051e-09
0.000200583
-5.92441e-09
0.000200583
-4.4699e-09
0.000200583
-3.27047e-09
0.000200582
-2.34888e-09
0.000200582
-1.5706e-09
0.000200582
-8.99797e-10
0.000200582
-3.15603e-10
0.000200582
2.01772e-10
0.000200582
6.66418e-10
0.000200582
1.09022e-09
0.000200582
1.48219e-09
0.000200582
1.84846e-09
0.000200581
2.19259e-09
0.000200581
2.51615e-09
0.000200581
2.81924e-09
0.000200581
3.10113e-09
0.000200581
3.3607e-09
0.000200581
3.59686e-09
0.000200581
3.80866e-09
0.000200581
3.99542e-09
0.000200581
4.15669e-09
0.000200581
4.29217e-09
0.000200581
4.40159e-09
0.000200581
4.48456e-09
0.00020058
4.54039e-09
0.00020058
4.56806e-09
0.00020058
4.56601e-09
0.00020058
4.53237e-09
0.00020058
4.46468e-09
0.00020058
4.36045e-09
0.00020058
4.21627e-09
0.00020058
4.0297e-09
0.00020058
3.79576e-09
0.00020058
3.51363e-09
0.00020058
3.17401e-09
0.00020058
2.7831e-09
0.000200579
2.31693e-09
0.000200579
1.80932e-09
0.000200579
1.17594e-09
0.00020058
5.69577e-10
0.00020058
-4.06696e-10
0.00020058
-1.01308e-09
-3.5546e-09
0.000200577
-4.19178e-09
0.000200578
-1.36842e-09
0.000200579
3.6746e-10
0.000200579
1.49955e-09
0.000200579
2.38474e-09
0.00020058
3.034e-09
0.00020058
3.49343e-09
0.00020058
3.72574e-09
0.00020058
3.74609e-09
0.00020058
3.45664e-09
0.00020058
2.97491e-09
0.00020058
1.98431e-09
0.00020058
9.84167e-10
0.000200581
-1.23426e-09
0.000200581
-2.74763e-09
-7.96905e-09
0.000206115
-1.2162e-08
0.000206115
-8.49606e-09
0.000206115
-6.07413e-09
0.000206115
-4.51485e-09
0.000206115
-3.24246e-09
0.000206115
-2.27757e-09
0.000206115
-1.47692e-09
0.000206115
-7.93877e-10
0.000206115
-2.03923e-10
0.000206115
3.15287e-10
0.000206115
7.79321e-10
0.000206115
1.20082e-09
0.000206115
1.58934e-09
0.000206115
1.95137e-09
0.000206114
2.29085e-09
0.000206114
2.60965e-09
0.000206114
2.90817e-09
0.000206114
3.18588e-09
0.000206114
3.44186e-09
0.000206114
3.67511e-09
0.000206114
3.88477e-09
0.000206114
4.07014e-09
0.000206114
4.23073e-09
0.000206114
4.36616e-09
0.000206114
4.47604e-09
0.000206114
4.55981e-09
0.000206113
4.61663e-09
0.000206113
4.64529e-09
0.000206113
4.64408e-09
0.000206113
4.61095e-09
0.000206113
4.54327e-09
0.000206113
4.4384e-09
0.000206113
4.29275e-09
0.000206113
4.10367e-09
0.000206113
3.86591e-09
0.000206113
3.57834e-09
0.000206113
3.231e-09
0.000206113
2.82968e-09
0.000206113
2.34753e-09
0.000206113
1.81982e-09
0.000206113
1.14644e-09
0.000206113
4.99578e-10
0.000206113
-6.07942e-10
0.000206113
-1.30846e-09
-4.29703e-09
0.00020611
-5.62566e-09
0.000206111
-2.4033e-09
0.000206111
-3.20019e-10
0.000206112
1.00086e-09
0.000206112
2.02196e-09
0.000206113
2.76212e-09
0.000206113
3.28375e-09
0.000206113
3.56192e-09
0.000206113
3.61479e-09
0.000206113
3.34803e-09
0.000206113
2.87642e-09
0.000206113
1.88338e-09
0.000206114
8.60122e-10
0.000206114
-1.41304e-09
0.000206114
-3.01488e-09
-8.40396e-09
0.000211742
-1.26329e-08
0.000211742
-8.83129e-09
0.000211742
-6.21517e-09
0.000211742
-4.55899e-09
0.000211742
-3.2177e-09
0.000211742
-2.2103e-09
0.000211742
-1.38698e-09
0.000211742
-6.91143e-10
0.000211742
-9.49145e-11
0.000211742
4.26462e-10
0.000211742
8.90022e-10
0.000211742
1.30918e-09
0.000211742
1.69402e-09
0.000211741
2.05146e-09
0.000211741
2.3858e-09
0.000211741
2.69924e-09
0.000211741
2.99249e-09
0.000211741
3.26527e-09
0.000211741
3.51685e-09
0.000211741
3.74637e-09
0.000211741
3.95305e-09
0.000211741
4.1362e-09
0.000211741
4.29532e-09
0.000211741
4.42993e-09
0.000211741
4.53951e-09
0.000211741
4.62338e-09
0.00021174
4.68053e-09
0.00021174
4.70958e-09
0.00021174
4.70864e-09
0.00021174
4.67551e-09
0.00021174
4.60738e-09
0.00021174
4.50146e-09
0.00021174
4.35397e-09
0.00021174
4.16207e-09
0.00021174
3.92025e-09
0.00021174
3.62704e-09
0.00021174
3.27181e-09
0.00021174
2.85992e-09
0.00021174
2.36177e-09
0.00021174
1.81367e-09
0.00021174
1.10098e-09
0.00021174
4.12065e-10
0.00021174
-8.1858e-10
0.00021174
-1.62004e-09
-4.99088e-09
0.000211737
-6.95129e-09
0.000211738
-3.39355e-09
0.000211738
-9.99153e-10
0.000211739
4.94227e-10
0.000211739
1.64158e-09
0.000211739
2.46778e-09
0.00021174
3.04927e-09
0.00021174
3.37251e-09
0.00021174
3.45804e-09
0.00021174
3.21488e-09
0.00021174
2.75443e-09
0.00021174
1.7616e-09
0.00021174
7.16985e-10
0.000211741
-1.60122e-09
0.000211741
-3.28795e-09
-8.80543e-09
0.000217464
-1.30364e-08
0.000217465
-9.13161e-09
0.000217465
-6.34503e-09
0.000217465
-4.60074e-09
0.000217465
-3.19558e-09
0.000217465
-2.14728e-09
0.000217465
-1.30153e-09
0.000217465
-5.92716e-10
0.000217465
1.00912e-11
0.000217464
5.33861e-10
0.000217464
9.97042e-10
0.000217464
1.41381e-09
0.000217464
1.79478e-09
0.000217464
2.14729e-09
0.000217464
2.47605e-09
0.000217464
2.78359e-09
0.000217464
3.07092e-09
0.000217464
3.33807e-09
0.000217464
3.5845e-09
0.000217464
3.80952e-09
0.000217464
4.01243e-09
0.000217464
4.19259e-09
0.000217463
4.34945e-09
0.000217463
4.48249e-09
0.000217463
4.59106e-09
0.000217463
4.67434e-09
0.000217463
4.73116e-09
0.000217463
4.75997e-09
0.000217463
4.75873e-09
0.000217463
4.72506e-09
0.000217463
4.65601e-09
0.000217463
4.5486e-09
0.000217463
4.3989e-09
0.000217463
4.20385e-09
0.000217463
3.9577e-09
0.000217463
3.65863e-09
0.000217463
3.29538e-09
0.000217463
2.8728e-09
0.000217463
2.3587e-09
0.000217463
1.79e-09
0.000217463
1.03902e-09
0.000217463
3.0693e-10
0.000217463
-1.03764e-09
0.000217464
-1.94429e-09
-5.63465e-09
0.000217459
-8.16215e-09
0.00021746
-4.32918e-09
0.000217461
-1.66031e-09
0.000217461
-1.07224e-11
0.000217462
1.25259e-09
0.000217462
2.15895e-09
0.000217462
2.79669e-09
0.000217462
3.16294e-09
0.000217463
3.28009e-09
0.000217463
3.0605e-09
0.000217463
2.61159e-09
0.000217463
1.62118e-09
0.000217463
5.56844e-10
0.000217463
-1.79665e-09
0.000217464
-3.56375e-09
-9.17044e-09
0.000223285
-1.33688e-08
0.000223285
-9.39277e-09
0.000223285
-6.4612e-09
0.000223285
-4.63844e-09
0.000223285
-3.17521e-09
0.000223285
-2.08836e-09
0.000223285
-1.22091e-09
0.000223285
-4.99318e-10
0.000223285
1.1012e-10
0.000223285
6.36356e-10
0.000223285
1.09916e-09
0.000223285
1.51344e-09
0.000223285
1.89032e-09
0.000223285
2.23761e-09
0.000223285
2.56035e-09
0.000223284
2.86147e-09
0.000223284
3.14231e-09
0.000223284
3.40316e-09
0.000223284
3.64374e-09
0.000223284
3.86353e-09
0.000223284
4.06192e-09
0.000223284
4.23834e-09
0.000223284
4.39222e-09
0.000223284
4.52296e-09
0.000223284
4.62982e-09
0.000223284
4.71183e-09
0.000223284
4.76767e-09
0.000223284
4.79563e-09
0.000223284
4.79351e-09
0.000223284
4.75876e-09
0.000223284
4.68829e-09
0.000223284
4.57894e-09
0.000223284
4.42664e-09
0.000223284
4.22811e-09
0.000223284
3.97735e-09
0.000223284
3.6722e-09
0.000223284
3.30081e-09
0.000223284
2.86744e-09
0.000223284
2.33753e-09
0.000223284
1.74816e-09
0.000223284
9.60237e-10
0.000223284
1.84339e-10
0.000223284
-1.26406e-09
0.000223284
-2.27765e-09
-6.22702e-09
0.00022328
-9.25354e-09
0.000223281
-5.20216e-09
0.000223281
-2.2959e-09
0.000223282
-5.06354e-10
0.000223282
8.62397e-10
0.000223283
1.84253e-09
0.000223283
2.53225e-09
0.000223283
2.9386e-09
0.000223283
3.08552e-09
0.000223283
2.88868e-09
0.000223284
2.4511e-09
0.000223284
1.4649e-09
0.000223284
3.82395e-10
0.000223284
-1.99663e-09
0.000223284
-3.83869e-09
-9.49584e-09
0.000229206
-1.36272e-08
0.000229206
-9.61096e-09
0.000229206
-6.56128e-09
0.000229206
-4.6704e-09
0.000229206
-3.15555e-09
0.000229206
-2.0331e-09
0.000229206
-1.14517e-09
0.000229206
-4.11325e-10
0.000229206
2.04538e-10
0.000229206
7.33132e-10
0.000229206
1.19545e-09
0.000229206
1.60705e-09
0.000229206
1.97961e-09
0.000229205
2.32132e-09
0.000229205
2.63763e-09
0.000229205
2.93183e-09
0.000229205
3.20561e-09
0.000229205
3.45955e-09
0.000229205
3.69362e-09
0.000229205
3.90749e-09
0.000229205
4.10067e-09
0.000229205
4.27264e-09
0.000229205
4.42283e-09
0.000229205
4.55057e-09
0.000229205
4.65504e-09
0.000229205
4.73512e-09
0.000229205
4.78934e-09
0.000229205
4.81584e-09
0.000229205
4.81225e-09
0.000229205
4.77588e-09
0.000229205
4.70348e-09
0.000229205
4.59175e-09
0.000229205
4.43645e-09
0.000229205
4.23408e-09
0.000229205
3.97845e-09
0.000229205
3.66703e-09
0.000229205
3.28739e-09
0.000229205
2.84318e-09
0.000229205
2.29771e-09
0.000229205
1.68774e-09
0.000229205
8.64535e-10
0.000229205
4.474e-11
0.000229205
-1.49663e-09
0.000229206
-2.61656e-09
-6.76694e-09
0.000229201
-1.02227e-08
0.000229202
-6.00636e-09
0.000229202
-2.90004e-09
0.000229203
-9.8681e-10
0.000229203
4.76764e-10
0.000229203
1.52412e-09
0.000229204
2.26128e-09
0.000229204
2.70437e-09
0.000229204
2.87868e-09
0.000229204
2.7033e-09
0.000229205
2.27641e-09
0.000229205
1.29588e-09
0.000229205
1.96717e-10
0.000229205
-2.19817e-09
0.000229205
-4.1089e-09
-9.7786e-09
0.00023523
-1.38095e-08
0.00023523
-9.78303e-09
0.00023523
-6.64304e-09
0.00023523
-4.69497e-09
0.00023523
-3.13548e-09
0.00023523
-1.98091e-09
0.00023523
-1.07406e-09
0.00023523
-3.28825e-10
0.00023523
2.93009e-10
0.00023523
8.23671e-10
0.000235229
1.28524e-09
0.000235229
1.69392e-09
0.000235229
2.06183e-09
0.000235229
2.39759e-09
0.000235229
2.70704e-09
0.000235229
2.99383e-09
0.000235229
3.25999e-09
0.000235229
3.50643e-09
0.000235229
3.73337e-09
0.000235229
3.94065e-09
0.000235229
4.12795e-09
0.000235229
4.2948e-09
0.000235229
4.44063e-09
0.000235229
4.56471e-09
0.000235229
4.66612e-09
0.000235229
4.74363e-09
0.000235229
4.7956e-09
0.000235229
4.82003e-09
0.000235229
4.8144e-09
0.000235229
4.77587e-09
0.000235229
4.70104e-09
0.000235229
4.58646e-09
0.000235229
4.42775e-09
0.000235229
4.22122e-09
0.000235229
3.96046e-09
0.000235229
3.64257e-09
0.000235229
3.25463e-09
0.000235229
2.79959e-09
0.000235229
2.23889e-09
0.000235229
1.60857e-09
0.000235229
7.52071e-10
0.000235229
-1.11134e-10
0.00023523
-1.73404e-09
0.00023523
-2.95749e-09
-7.25366e-09
0.000235225
-1.1069e-08
0.000235226
-6.73754e-09
0.000235226
-3.46843e-09
0.000235227
-1.44778e-09
0.000235227
9.99902e-11
0.000235227
1.208e-09
0.000235228
1.98804e-09
0.000235228
2.46441e-09
0.000235228
2.66349e-09
0.000235228
2.50795e-09
0.000235228
2.0909e-09
0.000235229
1.11728e-09
0.000235229
3.05448e-12
0.000235229
-2.39814e-09
0.000235229
-4.3704e-09
-1.0016e-08
0.000241359
-1.39148e-08
0.00024136
-9.90662e-09
0.00024136
-6.70446e-09
0.00024136
-4.71058e-09
0.00024136
-3.11384e-09
0.00024136
-1.93106e-09
0.00024136
-1.00719e-09
0.000241359
-2.51691e-10
0.000241359
3.75444e-10
0.000241359
9.0771e-10
0.000241359
1.36815e-09
0.000241359
1.77353e-09
0.000241359
2.13642e-09
0.000241359
2.46582e-09
0.000241359
2.76795e-09
0.000241359
3.04683e-09
0.000241359
3.30483e-09
0.000241359
3.54319e-09
0.000241359
3.76238e-09
0.000241359
3.96247e-09
0.000241359
4.14325e-09
0.000241359
4.30433e-09
0.000241359
4.44515e-09
0.000241359
4.56493e-09
0.000241359
4.66265e-09
0.000241359
4.73694e-09
0.000241359
4.78605e-09
0.000241359
4.80782e-09
0.000241359
4.79958e-09
0.000241359
4.75834e-09
0.000241359
4.68058e-09
0.000241359
4.5627e-09
0.000241359
4.40019e-09
0.000241359
4.18916e-09
0.000241359
3.92302e-09
0.000241359
3.59852e-09
0.000241359
3.20226e-09
0.000241359
2.73647e-09
0.000241359
2.16101e-09
0.000241359
1.51077e-09
0.000241359
6.23255e-10
0.00024136
-2.82274e-10
0.00024136
-1.97486e-09
0.00024136
-3.29697e-09
-7.68683e-09
0.000241355
-1.17937e-08
0.000241356
-7.39334e-09
0.000241356
-3.99818e-09
0.000241357
-1.88627e-09
0.000241357
-2.64927e-10
0.000241357
8.97238e-10
0.000241357
1.71573e-09
0.000241358
2.22195e-09
0.000241358
2.44318e-09
0.000241358
2.30581e-09
0.000241358
1.89765e-09
0.000241359
9.3213e-10
0.000241359
-1.95395e-10
0.000241359
-2.59347e-09
0.000241359
-4.61933e-09
-1.02056e-08
0.000247599
-1.39434e-08
0.000247599
-9.9803e-09
0.000247599
-6.74388e-09
0.000247599
-4.71581e-09
0.000247599
-3.08952e-09
0.000247599
-1.88279e-09
0.000247599
-9.44071e-10
0.000247599
-1.7964e-10
0.000247599
4.51941e-10
0.000247598
9.85199e-10
0.000247598
1.44401e-09
0.000247598
1.84562e-09
0.000247598
2.20304e-09
0.000247598
2.52562e-09
0.000247598
2.81994e-09
0.000247598
3.09039e-09
0.000247598
3.33971e-09
0.000247598
3.56942e-09
0.000247598
3.78028e-09
0.000247598
3.97258e-09
0.000247598
4.14623e-09
0.000247598
4.30092e-09
0.000247598
4.4361e-09
0.000247598
4.55095e-09
0.000247598
4.64435e-09
0.000247598
4.71483e-09
0.000247598
4.76047e-09
0.000247598
4.77898e-09
0.000247598
4.76757e-09
0.000247598
4.72309e-09
0.000247598
4.6419e-09
0.000247598
4.52028e-09
0.000247598
4.35358e-09
0.000247598
4.13775e-09
0.000247598
3.86601e-09
0.000247598
3.53478e-09
0.000247599
3.13025e-09
0.000247599
2.65387e-09
0.000247599
2.06423e-09
0.000247599
1.39469e-09
0.000247599
4.7875e-10
0.000247599
-4.67409e-10
0.000247599
-2.21754e-09
0.0002476
-3.63165e-09
-8.06648e-09
0.000247594
-1.24001e-08
0.000247595
-7.97314e-09
0.000247595
-4.4876e-09
0.000247596
-2.30046e-09
0.000247596
-6.16091e-10
0.000247597
5.93812e-10
0.000247597
1.44651e-09
0.000247597
1.97933e-09
0.000247597
2.22024e-09
0.000247597
2.09944e-09
0.000247598
1.69935e-09
0.000247598
7.43138e-10
0.000247598
-3.95644e-10
0.000247598
-2.78131e-09
0.000247598
-4.85207e-09
-1.0346e-08
0.000253951
-1.38968e-08
0.000253951
-1.00036e-08
0.000253951
-6.76002e-09
0.000253951
-4.70945e-09
0.000253951
-3.06147e-09
0.000253951
-1.8353e-09
0.000253951
-8.84128e-10
0.000253951
-1.12286e-10
0.000253951
5.22736e-10
0.000253951
1.05625e-09
0.000253951
1.51282e-09
0.000253951
1.91013e-09
0.00025395
2.26156e-09
0.00025395
2.57681e-09
0.00025395
2.86281e-09
0.00025395
3.12432e-09
0.00025395
3.3644e-09
0.00025395
3.58491e-09
0.00025395
3.78688e-09
0.00025395
3.97079e-09
0.00025395
4.13673e-09
0.00025395
4.28444e-09
0.00025395
4.41338e-09
0.00025395
4.5227e-09
0.00025395
4.61118e-09
0.00025395
4.67723e-09
0.00025395
4.71881e-09
0.000253951
4.73349e-09
0.000253951
4.71834e-09
0.000253951
4.6701e-09
0.000253951
4.58501e-09
0.000253951
4.45921e-09
0.000253951
4.28796e-09
0.000253951
4.06705e-09
0.000253951
3.78953e-09
0.000253951
3.45149e-09
0.000253951
3.03878e-09
0.000253951
2.55207e-09
0.000253951
1.94898e-09
0.000253951
1.26098e-09
0.000253952
3.19459e-10
0.000253952
-6.65036e-10
0.000253952
-2.46048e-09
0.000253952
-3.95832e-09
-8.39312e-09
0.000253947
-1.28931e-08
0.000253948
-8.47794e-09
0.000253948
-4.93613e-09
0.000253948
-2.68946e-09
0.000253949
-9.5251e-10
0.000253949
2.98811e-10
0.000253949
1.18166e-09
0.00025395
1.73807e-09
0.00025395
1.9964e-09
0.00025395
1.89078e-09
0.00025395
1.49815e-09
0.00025395
5.52609e-10
0.000253951
-5.95032e-10
0.000253951
-2.95917e-09
0.000253951
-5.06543e-09
-1.04362e-08
0.00026042
-1.37778e-08
0.00026042
-9.97723e-09
0.00026042
-6.75203e-09
0.00026042
-4.69054e-09
0.00026042
-3.02876e-09
0.00026042
-1.78786e-09
0.00026042
-8.26786e-10
0.00026042
-4.91892e-11
0.00026042
5.88154e-10
0.00026042
1.12109e-09
0.00026042
1.57473e-09
0.00026042
1.96715e-09
0.00026042
2.31201e-09
0.00026042
2.61939e-09
0.00026042
2.89655e-09
0.00026042
3.14857e-09
0.00026042
3.37888e-09
0.00026042
3.58964e-09
0.00026042
3.78217e-09
0.00026042
3.95714e-09
0.00026042
4.11479e-09