/*--------------------------------*- C++ -*----------------------------------*\
  =========                 |
  \\      /  F ield         | OpenFOAM: The Open Source CFD Toolbox
   \\    /   O peration     | Website:  https://openfoam.org
    \\  /    A nd           | Version:  7
     \\/     M anipulation  |
\*---------------------------------------------------------------------------*/
FoamFile
{
    version     2.0;
    format      ascii;
    class       volVectorField;
    location    "20000";
    object      U;
}
// * * * * * * * * * * * * * * * * * * * * * * * * * * * * * * * * * * * * * //

dimensions      [0 1 -1 0 0 0 0];

internalField   nonuniform List<vector> 
4026
(
(0.125388 4.03499e-08 2.66125e-14)
(0.125388 6.32152e-08 2.66304e-14)
(0.125388 8.13039e-08 2.66589e-14)
(0.125388 9.44768e-08 2.65414e-14)
(0.125388 1.03151e-07 2.65014e-14)
(0.125388 1.0801e-07 2.65596e-14)
(0.125388 1.0942e-07 2.6632e-14)
(0.125388 1.07734e-07 2.66763e-14)
(0.125388 1.03287e-07 2.67767e-14)
(0.125388 9.64606e-08 2.68614e-14)
(0.125388 8.77154e-08 2.69238e-14)
(0.125388 7.752e-08 2.69254e-14)
(0.125388 6.6301e-08 2.69297e-14)
(0.125388 5.44597e-08 2.69276e-14)
(0.125388 4.23688e-08 2.6774e-14)
(0.125388 3.03094e-08 2.68843e-14)
(0.125388 1.84484e-08 2.69054e-14)
(0.125388 6.88616e-09 2.69087e-14)
(0.125388 -4.2929e-09 2.68981e-14)
(0.125388 -1.50042e-08 2.67232e-14)
(0.125388 -2.51936e-08 2.69572e-14)
(0.125388 -3.48457e-08 2.67795e-14)
(0.125388 -4.39422e-08 2.68285e-14)
(0.125388 -5.24629e-08 2.69106e-14)
(0.125388 -6.04175e-08 2.66878e-14)
(0.125388 -6.78307e-08 2.68602e-14)
(0.125388 -7.47355e-08 2.6847e-14)
(0.125388 -8.11627e-08 2.68697e-14)
(0.125388 -8.71327e-08 2.68704e-14)
(0.125388 -9.26771e-08 2.66628e-14)
(0.125388 -9.78373e-08 2.68433e-14)
(0.125388 -1.02647e-07 2.68636e-14)
(0.125388 -1.07123e-07 2.68071e-14)
(0.125388 -1.1129e-07 2.68049e-14)
(0.125388 -1.15182e-07 2.66296e-14)
(0.125388 -1.18816e-07 2.67577e-14)
(0.125388 -1.22138e-07 2.67794e-14)
(0.125388 -1.25115e-07 2.67833e-14)
(0.125388 -1.27384e-07 2.67852e-14)
(0.125388 -1.29004e-07 2.65415e-14)
(0.125388 -1.28615e-07 2.6633e-14)
(0.125388 -1.27359e-07 2.65736e-14)
(0.125388 -1.19718e-07 2.66437e-14)
(0.125388 -1.11121e-07 2.6699e-14)
(0.125388 -8.62579e-08 2.66713e-14)
(0.125388 7.22242e-09 2.64142e-14)
(0.125388 2.47211e-08 2.64314e-14)
(0.125388 3.35006e-08 2.64159e-14)
(0.125388 3.55054e-08 2.64302e-14)
(0.125388 3.26971e-08 2.64522e-14)
(0.125388 2.69881e-08 2.64397e-14)
(0.125388 1.96087e-08 2.64506e-14)
(0.125388 1.14679e-08 2.6459e-14)
(0.125388 3.0536e-09 2.64941e-14)
(0.125388 -4.91697e-09 2.65322e-14)
(0.125388 -1.23816e-08 2.65232e-14)
(0.125388 -1.74541e-08 2.65306e-14)
(0.125388 -2.14378e-08 2.65347e-14)
(0.125388 -1.83524e-08 2.65575e-14)
(0.125388 -1.13467e-08 2.65831e-14)
(0.125388 8.82345e-09 2.65546e-14)
(0.126417 4.17431e-08 2.70079e-14)
(0.126417 6.48846e-08 2.70294e-14)
(0.126417 8.26228e-08 2.70477e-14)
(0.126417 9.52021e-08 2.69214e-14)
(0.126417 1.03255e-07 2.6864e-14)
(0.126417 1.07561e-07 2.69096e-14)
(0.126417 1.08523e-07 2.69791e-14)
(0.126417 1.06501e-07 2.70317e-14)
(0.126417 1.0182e-07 2.71131e-14)
(0.126417 9.4845e-08 2.71911e-14)
(0.126417 8.60177e-08 2.72567e-14)
(0.126417 7.57905e-08 2.72715e-14)
(0.126417 6.45731e-08 2.72771e-14)
(0.126417 5.27484e-08 2.72791e-14)
(0.126417 4.06784e-08 2.71265e-14)
(0.126417 2.86437e-08 2.7277e-14)
(0.126417 1.68122e-08 2.72751e-14)
(0.126417 5.28058e-09 2.72715e-14)
(0.126417 -5.86933e-09 2.72621e-14)
(0.126417 -1.65512e-08 2.71294e-14)
(0.126417 -2.67096e-08 2.73068e-14)
(0.126417 -3.63333e-08 2.71359e-14)
(0.126417 -4.54071e-08 2.72288e-14)
(0.126417 -5.39073e-08 2.72651e-14)
(0.126417 -6.1839e-08 2.70978e-14)
(0.126417 -6.92258e-08 2.72561e-14)
(0.126417 -7.61002e-08 2.72399e-14)
(0.126417 -8.24963e-08 2.72608e-14)
(0.126417 -8.84358e-08 2.72654e-14)
(0.126417 -9.39486e-08 2.7076e-14)
(0.126417 -9.90763e-08 2.72397e-14)
(0.126417 -1.03851e-07 2.72172e-14)
(0.126417 -1.08292e-07 2.71962e-14)
(0.126417 -1.12431e-07 2.71941e-14)
(0.126417 -1.16303e-07 2.70358e-14)
(0.126418 -1.1992e-07 2.71861e-14)
(0.126418 -1.23232e-07 2.71736e-14)
(0.126418 -1.26209e-07 2.71735e-14)
(0.126418 -1.28498e-07 2.71916e-14)
(0.126418 -1.3015e-07 2.69827e-14)
(0.126418 -1.29798e-07 2.70625e-14)
(0.126418 -1.28622e-07 2.69761e-14)
(0.126418 -1.20852e-07 2.70557e-14)
(0.126418 -1.12586e-07 2.70983e-14)
(0.126418 -8.60637e-08 2.71003e-14)
(0.126418 1.55829e-08 2.68289e-14)
(0.126418 3.30448e-08 2.68369e-14)
(0.126418 4.11012e-08 2.68344e-14)
(0.126418 4.23237e-08 2.68368e-14)
(0.126417 3.87957e-08 2.68504e-14)
(0.126417 3.24384e-08 2.68522e-14)
(0.126417 2.44674e-08 2.68586e-14)
(0.126417 1.57784e-08 2.68643e-14)
(0.126417 6.86039e-09 2.6882e-14)
(0.126417 -1.58785e-09 2.6914e-14)
(0.126417 -9.48866e-09 2.69241e-14)
(0.126417 -1.50159e-08 2.6933e-14)
(0.126417 -1.93858e-08 2.69375e-14)
(0.126417 -1.6728e-08 2.69417e-14)
(0.126417 -1.0294e-08 2.69643e-14)
(0.126417 9.73351e-09 2.69589e-14)
(0.127417 4.29874e-08 2.74083e-14)
(0.127417 6.6323e-08 2.7426e-14)
(0.127417 8.37097e-08 2.74252e-14)
(0.127417 9.56954e-08 2.72381e-14)
(0.127417 1.03118e-07 2.7216e-14)
(0.127417 1.0686e-07 2.7273e-14)
(0.127417 1.07365e-07 2.7341e-14)
(0.127417 1.05001e-07 2.73957e-14)
(0.127417 1.00086e-07 2.74644e-14)
(0.127417 9.29686e-08 2.75328e-14)
(0.127417 8.40727e-08 2.75971e-14)
(0.127417 7.38352e-08 2.76121e-14)
(0.127417 6.26487e-08 2.76189e-14)
(0.127417 5.08755e-08 2.76167e-14)
(0.127417 3.88618e-08 2.75548e-14)
(0.127417 2.68838e-08 2.76253e-14)
(0.127417 1.51083e-08 2.76307e-14)
(0.127417 3.63093e-09 2.76288e-14)
(0.127417 -7.46539e-09 2.76122e-14)
(0.127417 -1.80931e-08 2.75636e-14)
(0.127417 -2.81981e-08 2.76125e-14)
(0.127417 -3.77725e-08 2.75734e-14)
(0.127417 -4.68032e-08 2.76518e-14)
(0.127417 -5.52624e-08 2.76373e-14)
(0.127417 -6.31516e-08 2.75774e-14)
(0.127417 -7.04947e-08 2.76192e-14)
(0.127417 -7.73242e-08 2.75955e-14)
(0.127417 -8.36759e-08 2.76483e-14)
(0.127417 -8.95707e-08 2.76256e-14)
(0.127417 -9.5036e-08 2.75537e-14)
(0.127418 -1.00117e-07 2.75921e-14)
(0.127418 -1.04848e-07 2.75588e-14)
(0.127418 -1.09249e-07 2.75785e-14)
(0.127418 -1.13358e-07 2.7555e-14)
(0.127418 -1.17205e-07 2.75012e-14)
(0.127418 -1.20799e-07 2.75483e-14)
(0.127418 -1.24094e-07 2.75247e-14)
(0.127418 -1.27065e-07 2.75605e-14)
(0.127418 -1.29373e-07 2.75413e-14)
(0.127418 -1.31058e-07 2.74696e-14)
(0.127418 -1.30757e-07 2.75144e-14)
(0.127418 -1.29663e-07 2.74376e-14)
(0.127418 -1.21838e-07 2.74914e-14)
(0.127418 -1.13883e-07 2.75153e-14)
(0.127418 -8.63653e-08 2.75125e-14)
(0.127418 2.33657e-08 2.72369e-14)
(0.127418 4.1449e-08 2.72388e-14)
(0.127418 4.90111e-08 2.72461e-14)
(0.127418 4.94597e-08 2.72399e-14)
(0.127418 4.5181e-08 2.72462e-14)
(0.127417 3.81503e-08 2.72586e-14)
(0.127417 2.95719e-08 2.72627e-14)
(0.127417 2.03218e-08 2.72653e-14)
(0.127417 1.08874e-08 2.72692e-14)
(0.127417 1.94916e-09 2.7295e-14)
(0.127417 -6.39712e-09 2.73203e-14)
(0.127417 -1.23971e-08 2.73311e-14)
(0.127417 -1.71711e-08 2.73352e-14)
(0.127417 -1.49957e-08 2.73195e-14)
(0.127417 -9.23855e-09 2.73444e-14)
(0.127417 1.05823e-08 2.73564e-14)
(0.128389 4.42181e-08 2.78057e-14)
(0.128389 6.75456e-08 2.7817e-14)
(0.128389 8.45126e-08 2.78094e-14)
(0.128389 9.59045e-08 2.76827e-14)
(0.128389 1.02705e-07 2.75486e-14)
(0.128389 1.0589e-07 2.76521e-14)
(0.128389 1.05943e-07 2.7717e-14)
(0.128389 1.03239e-07 2.7768e-14)
(0.128389 9.80932e-08 2.78268e-14)
(0.128389 9.08417e-08 2.7885e-14)
(0.128389 8.18892e-08 2.79452e-14)
(0.128389 7.16575e-08 2.79481e-14)
(0.128389 6.05245e-08 2.79557e-14)
(0.128389 4.88327e-08 2.7944e-14)
(0.128389 3.69097e-08 2.79621e-14)
(0.128389 2.50215e-08 2.79941e-14)
(0.128389 1.3331e-08 2.79802e-14)
(0.128389 1.93363e-09 2.79802e-14)
(0.128389 -9.08405e-09 2.7952e-14)
(0.128389 -1.96326e-08 2.79753e-14)
(0.128389 -2.96608e-08 2.79289e-14)
(0.128389 -3.91642e-08 2.79875e-14)
(0.128389 -4.81304e-08 2.8058e-14)
(0.128389 -5.65273e-08 2.79886e-14)
(0.128389 -6.43527e-08 2.80389e-14)
(0.128389 -7.16334e-08 2.79905e-14)
(0.128389 -7.84029e-08 2.79364e-14)
(0.128389 -8.46956e-08 2.80219e-14)
(0.128389 -9.05295e-08 2.79658e-14)
(0.128389 -9.59313e-08 2.80113e-14)
(0.128389 -1.00953e-07 2.79572e-14)
(0.128389 -1.0563e-07 2.78906e-14)
(0.128389 -1.09986e-07 2.79501e-14)
(0.128389 -1.14057e-07 2.78945e-14)
(0.12839 -1.17874e-07 2.79451e-14)
(0.12839 -1.2144e-07 2.7915e-14)
(0.12839 -1.24713e-07 2.78618e-14)
(0.12839 -1.27675e-07 2.80104e-14)
(0.12839 -1.3e-07 2.7882e-14)
(0.12839 -1.3172e-07 2.79285e-14)
(0.12839 -1.31485e-07 2.79897e-14)
(0.12839 -1.30479e-07 2.7905e-14)
(0.12839 -1.22682e-07 2.79647e-14)
(0.12839 -1.15027e-07 2.79174e-14)
(0.12839 -8.70029e-08 2.79465e-14)
(0.12839 3.04433e-08 2.76409e-14)
(0.12839 4.95077e-08 2.76358e-14)
(0.12839 5.69345e-08 2.76534e-14)
(0.12839 5.67599e-08 2.76105e-14)
(0.128389 5.1768e-08 2.7639e-14)
(0.128389 4.40672e-08 2.76618e-14)
(0.128389 3.48795e-08 2.76616e-14)
(0.128389 2.50659e-08 2.76608e-14)
(0.128389 1.51107e-08 2.76664e-14)
(0.128389 5.67458e-09 2.76772e-14)
(0.128389 -3.12594e-09 2.7716e-14)
(0.128389 -9.61678e-09 2.77251e-14)
(0.128389 -1.48139e-08 2.77279e-14)
(0.128389 -1.3171e-08 2.76806e-14)
(0.128389 -8.20938e-09 2.77238e-14)
(0.128389 1.14443e-08 2.77514e-14)
(0.129334 4.54822e-08 2.82038e-14)
(0.129334 6.86237e-08 2.81967e-14)
(0.129334 8.50478e-08 2.81761e-14)
(0.129334 9.58115e-08 2.80631e-14)
(0.129334 1.01994e-07 2.80243e-14)
(0.129334 1.04634e-07 2.80606e-14)
(0.129334 1.04245e-07 2.81035e-14)
(0.129334 1.01212e-07 2.81475e-14)
(0.129334 9.58451e-08 2.81977e-14)
(0.129334 8.84691e-08 2.82454e-14)
(0.129334 7.94724e-08 2.83004e-14)
(0.129334 6.92613e-08 2.8279e-14)
(0.129334 5.82002e-08 2.82889e-14)
(0.129334 4.66156e-08 2.82626e-14)
(0.129334 3.48147e-08 2.84265e-14)
(0.129334 2.30484e-08 2.83636e-14)
(0.129334 1.14728e-08 2.83227e-14)
(0.129335 1.82837e-10 2.83272e-14)
(0.129335 -1.07302e-08 2.82845e-14)
(0.129335 -2.11749e-08 2.83711e-14)
(0.129335 -3.1103e-08 2.83144e-14)
(0.129335 -4.05128e-08 2.84394e-14)
(0.129335 -4.93912e-08 2.8462e-14)
(0.129335 -5.77027e-08 2.83951e-14)
(0.129335 -6.54424e-08 2.84781e-14)
(0.129335 -7.26412e-08 2.84257e-14)
(0.129335 -7.93346e-08 2.83517e-14)
(0.129335 -8.55518e-08 2.84086e-14)
(0.129335 -9.13073e-08 2.83664e-14)
(0.129335 -9.66292e-08 2.84555e-14)
(0.129335 -1.01577e-07 2.83877e-14)
(0.129335 -1.06192e-07 2.82995e-14)
(0.129335 -1.10494e-07 2.83334e-14)
(0.129335 -1.1452e-07 2.82956e-14)
(0.129335 -1.18298e-07 2.83882e-14)
(0.129335 -1.21831e-07 2.83446e-14)
(0.129335 -1.25081e-07 2.82743e-14)
(0.129335 -1.2803e-07 2.83234e-14)
(0.129335 -1.30372e-07 2.82845e-14)
(0.129335 -1.32128e-07 2.83735e-14)
(0.129335 -1.31979e-07 2.83854e-14)
(0.129335 -1.31068e-07 2.83482e-14)
(0.129335 -1.23384e-07 2.83528e-14)
(0.129335 -1.16054e-07 2.83007e-14)
(0.129335 -8.78033e-08 2.8292e-14)
(0.129335 3.68812e-08 2.80441e-14)
(0.129335 5.69519e-08 2.80267e-14)
(0.129335 6.4546e-08 2.80591e-14)
(0.129335 6.39867e-08 2.80528e-14)
(0.129335 5.84023e-08 2.80282e-14)
(0.129335 5.0084e-08 2.80652e-14)
(0.129335 4.0312e-08 2.80541e-14)
(0.129334 2.99489e-08 2.80501e-14)
(0.129334 1.9481e-08 2.80615e-14)
(0.129334 9.54805e-09 2.8061e-14)
(0.129334 2.89707e-10 2.81159e-14)
(0.129334 -6.70672e-09 2.81142e-14)
(0.129334 -1.23456e-08 2.81145e-14)
(0.129334 -1.12814e-08 2.81092e-14)
(0.129334 -7.23858e-09 2.8109e-14)
(0.129334 1.22959e-08 2.81475e-14)
(0.130254 4.67737e-08 2.85983e-14)
(0.130254 6.96075e-08 2.85605e-14)
(0.130254 8.53531e-08 2.85483e-14)
(0.130254 9.54233e-08 2.84917e-14)
(0.130254 1.00976e-07 2.84725e-14)
(0.130254 1.03078e-07 2.84779e-14)
(0.130254 1.02263e-07 2.84984e-14)
(0.130254 9.89138e-08 2.85332e-14)
(0.130254 9.33387e-08 2.85747e-14)
(0.130254 8.58515e-08 2.86122e-14)
(0.130254 7.68249e-08 2.86606e-14)
(0.130254 6.66493e-08 2.86037e-14)
(0.130254 5.56771e-08 2.8622e-14)
(0.130254 4.42217e-08 2.857e-14)
(0.130254 3.2571e-08 2.8659e-14)
(0.130254 2.09564e-08 2.87198e-14)
(0.130254 9.52504e-09 2.86558e-14)
(0.130254 -1.62874e-09 2.86734e-14)
(0.130254 -1.24103e-08 2.8613e-14)
(0.130254 -2.27265e-08 2.86888e-14)
(0.130254 -3.25312e-08 2.86715e-14)
(0.130254 -4.18238e-08 2.87486e-14)
(0.130254 -5.05898e-08 2.88322e-14)
(0.130254 -5.87912e-08 2.87821e-14)
(0.130254 -6.64224e-08 2.88526e-14)
(0.130254 -7.35195e-08 2.88184e-14)
(0.130254 -8.01191e-08 2.87471e-14)
(0.130254 -8.62426e-08 2.87856e-14)
(0.130254 -9.19012e-08 2.87514e-14)
(0.130254 -9.7127e-08 2.88285e-14)
(0.130254 -1.01987e-07 2.87804e-14)
(0.130254 -1.06528e-07 2.86893e-14)
(0.130254 -1.10769e-07 2.87116e-14)
(0.130254 -1.1474e-07 2.86816e-14)
(0.130254 -1.1847e-07 2.87532e-14)
(0.130254 -1.21965e-07 2.87389e-14)
(0.130254 -1.25189e-07 2.86656e-14)
(0.130254 -1.28122e-07 2.87046e-14)
(0.130254 -1.30482e-07 2.86744e-14)
(0.130254 -1.32278e-07 2.87457e-14)
(0.130254 -1.32233e-07 2.87844e-14)
(0.130254 -1.31429e-07 2.87805e-14)
(0.130254 -1.2394e-07 2.87611e-14)
(0.130254 -1.16999e-07 2.86534e-14)
(0.130254 -8.86578e-08 2.86666e-14)
(0.130254 4.27965e-08 2.84519e-14)
(0.130254 6.36953e-08 2.84088e-14)
(0.130254 7.16036e-08 2.84679e-14)
(0.130254 7.08913e-08 2.84587e-14)
(0.130254 6.48877e-08 2.8406e-14)
(0.130254 5.60551e-08 2.84737e-14)
(0.130254 4.57585e-08 2.8437e-14)
(0.130254 3.48831e-08 2.84337e-14)
(0.130254 2.39265e-08 2.84673e-14)
(0.130254 1.35098e-08 2.84399e-14)
(0.130254 3.79839e-09 2.85262e-14)
(0.130254 -3.7118e-09 2.84958e-14)
(0.130254 -9.80868e-09 2.84967e-14)
(0.130254 -9.36562e-09 2.85226e-14)
(0.130254 -6.36266e-09 2.84879e-14)
(0.130254 1.30897e-08 2.85514e-14)
(0.131148 4.80588e-08 2.89937e-14)
(0.131148 7.05132e-08 2.88878e-14)
(0.131148 8.54596e-08 2.89044e-14)
(0.131148 9.47574e-08 2.88918e-14)
(0.131148 9.96506e-08 2.8909e-14)
(0.131148 1.01216e-07 2.88949e-14)
(0.131148 9.99861e-08 2.88964e-14)
(0.131148 9.63372e-08 2.89239e-14)
(0.131148 9.05695e-08 2.89562e-14)
(0.131148 8.29868e-08 2.89831e-14)
(0.131148 7.39469e-08 2.90226e-14)
(0.131148 6.38233e-08 2.88848e-14)
(0.131148 5.29563e-08 2.8962e-14)
(0.131148 4.16494e-08 2.88541e-14)
(0.131148 3.0173e-08 2.89719e-14)
(0.131149 1.87377e-08 2.90795e-14)
(0.131149 7.47909e-09 2.89076e-14)
(0.131149 -3.50942e-09 2.90253e-14)
(0.131149 -1.41318e-08 2.88638e-14)
(0.131149 -2.42945e-08 2.90171e-14)
(0.131149 -3.39522e-08 2.90134e-14)
(0.131149 -4.31033e-08 2.91009e-14)
(0.131149 -5.1731e-08 2.92053e-14)
(0.131149 -5.97965e-08 2.91515e-14)
(0.131149 -6.72963e-08 2.92098e-14)
(0.131149 -7.42715e-08 2.91864e-14)
(0.131149 -8.0758e-08 2.91198e-14)
(0.131149 -8.67679e-08 2.91667e-14)
(0.131149 -9.23107e-08 2.9122e-14)
(0.131149 -9.74246e-08 2.91974e-14)
(0.131149 -1.02183e-07 2.91487e-14)
(0.131149 -1.06639e-07 2.90566e-14)
(0.131149 -1.10806e-07 2.90922e-14)
(0.131149 -1.14711e-07 2.90539e-14)
(0.131149 -1.18383e-07 2.91212e-14)
(0.131149 -1.21833e-07 2.91079e-14)
(0.131149 -1.2503e-07 2.90329e-14)
(0.131149 -1.27947e-07 2.90916e-14)
(0.131149 -1.30326e-07 2.90509e-14)
(0.131149 -1.32167e-07 2.91115e-14)
(0.131149 -1.32245e-07 2.91908e-14)
(0.131149 -1.31564e-07 2.91231e-14)
(0.131149 -1.24345e-07 2.9144e-14)
(0.131149 -1.17891e-07 2.90072e-14)
(0.131149 -8.95075e-08 2.9042e-14)
(0.131149 4.82892e-08 2.88764e-14)
(0.131149 6.97593e-08 2.88604e-14)
(0.131149 7.79746e-08 2.88874e-14)
(0.131149 7.72701e-08 2.88495e-14)
(0.131149 7.10266e-08 2.8848e-14)
(0.131149 6.18151e-08 2.88952e-14)
(0.131149 5.10858e-08 2.8887e-14)
(0.131148 3.97596e-08 2.88987e-14)
(0.131148 2.83567e-08 2.88738e-14)
(0.131148 1.7483e-08 2.88916e-14)
(0.131148 7.33387e-09 2.89586e-14)
(0.131148 -6.89601e-10 2.89466e-14)
(0.131148 -7.256e-09 2.89607e-14)
(0.131148 -7.4723e-09 2.8933e-14)
(0.131148 -5.6237e-09 2.89351e-14)
(0.131148 1.37736e-08 2.89739e-14)
(0.132019 4.92909e-08 2.93902e-14)
(0.132019 7.13297e-08 2.92585e-14)
(0.132019 8.53818e-08 2.92768e-14)
(0.132019 9.38298e-08 2.92763e-14)
(0.132019 9.80261e-08 2.93432e-14)
(0.132019 9.90464e-08 2.93032e-14)
(0.132019 9.74092e-08 2.92927e-14)
(0.132019 9.34754e-08 2.93184e-14)
(0.132019 8.7532e-08 2.93405e-14)
(0.132019 7.98713e-08 2.93563e-14)
(0.132019 7.08365e-08 2.93828e-14)
(0.132019 6.0783e-08 2.93027e-14)
(0.132019 5.00379e-08 2.93168e-14)
(0.132019 3.88969e-08 2.92659e-14)
(0.132019 2.7616e-08 2.93188e-14)
(0.132019 1.63846e-08 2.9433e-14)
(0.132019 5.32603e-09 2.93632e-14)
(0.132019 -5.46823e-09 2.93955e-14)
(0.132019 -1.59031e-08 2.93302e-14)
(0.132019 -2.58866e-08 2.93714e-14)
(0.132019 -3.5373e-08 2.93473e-14)
(0.132019 -4.43572e-08 2.94418e-14)
(0.132019 -5.28201e-08 2.95763e-14)
(0.132019 -6.07238e-08 2.94972e-14)
(0.132019 -6.80693e-08 2.95583e-14)
(0.132019 -7.49023e-08 2.95295e-14)
(0.132019 -8.12544e-08 2.94719e-14)
(0.132019 -8.7129e-08 2.95531e-14)
(0.132019 -9.25375e-08 2.9472e-14)
(0.132019 -9.75246e-08 2.95436e-14)
(0.132019 -1.02168e-07 2.94923e-14)
(0.132019 -1.06524e-07 2.94015e-14)
(0.132019 -1.10606e-07 2.9476e-14)
(0.132019 -1.14432e-07 2.94065e-14)
(0.132019 -1.18036e-07 2.94861e-14)
(0.132019 -1.21434e-07 2.94534e-14)
(0.132019 -1.24599e-07 2.93773e-14)
(0.132019 -1.275e-07 2.94754e-14)
(0.132019 -1.29902e-07 2.94066e-14)
(0.132019 -1.31793e-07 2.94653e-14)
(0.132019 -1.32015e-07 2.95728e-14)
(0.132019 -1.31473e-07 2.94457e-14)
(0.132019 -1.24595e-07 2.95393e-14)
(0.132019 -1.18748e-07 2.93887e-14)
(0.132019 -9.03249e-08 2.94439e-14)
(0.132019 5.34208e-08 2.92831e-14)
(0.132019 7.52098e-08 2.93047e-14)
(0.132019 8.36183e-08 2.9339e-14)
(0.132019 8.299e-08 2.92202e-14)
(0.132019 7.66521e-08 2.92798e-14)
(0.132019 6.72035e-08 2.93084e-14)
(0.132019 5.61531e-08 2.9328e-14)
(0.132019 4.44582e-08 2.93934e-14)
(0.132019 3.26685e-08 2.92639e-14)
(0.132019 2.13784e-08 2.93581e-14)
(0.132019 1.08182e-08 2.9368e-14)
(0.132019 2.29145e-09 2.9389e-14)
(0.132019 -4.75014e-09 2.94168e-14)
(0.132019 -5.65868e-09 2.93282e-14)
(0.132019 -5.06954e-09 2.93716e-14)
(0.132019 1.42953e-08 2.93824e-14)
(0.132867 5.04188e-08 2.97735e-14)
(0.132867 7.20275e-08 2.96543e-14)
(0.132867 8.51158e-08 2.9651e-14)
(0.132867 9.2648e-08 2.96494e-14)
(0.132867 9.61082e-08 2.97024e-14)
(0.132867 9.65688e-08 2.96923e-14)
(0.132867 9.45286e-08 2.96851e-14)
(0.132867 9.03234e-08 2.97156e-14)
(0.132867 8.42213e-08 2.97251e-14)
(0.132867 7.65008e-08 2.97294e-14)
(0.132867 6.74906e-08 2.97416e-14)
(0.132867 5.75266e-08 2.96697e-14)
(0.132867 4.69207e-08 2.96769e-14)
(0.132867 3.59621e-08 2.9649e-14)
(0.132867 2.48953e-08 2.96917e-14)
(0.132867 1.38902e-08 2.97331e-14)
(0.132867 3.05746e-09 2.97217e-14)
(0.132867 -7.51424e-09 2.97826e-14)
(0.132867 -1.7733e-08 2.97168e-14)
(0.132867 -2.75107e-08 2.97396e-14)
(0.132867 -3.68001e-08 2.96724e-14)
(0.132867 -4.55914e-08 2.97308e-14)
(0.132867 -5.38629e-08 2.98646e-14)
(0.132867 -6.15796e-08 2.98148e-14)
(0.132867 -6.87483e-08 2.98346e-14)
(0.132867 -7.54176e-08 2.98342e-14)
(0.132867 -8.16125e-08 2.98048e-14)
(0.132867 -8.73297e-08 2.98715e-14)
(0.132867 -9.25859e-08 2.97886e-14)
(0.132867 -9.7432e-08 2.98249e-14)
(0.132867 -1.01946e-07 2.97925e-14)
(0.132867 -1.06188e-07 2.97287e-14)
(0.132867 -1.10168e-07 2.97909e-14)
(0.132867 -1.13902e-07 2.9726e-14)
(0.132867 -1.17427e-07 2.97862e-14)
(0.132867 -1.20766e-07 2.97691e-14)
(0.132867 -1.23895e-07 2.97045e-14)
(0.132867 -1.2678e-07 2.97901e-14)
(0.132867 -1.29209e-07 2.97286e-14)
(0.132867 -1.31156e-07 2.9757e-14)
(0.132867 -1.3154e-07 2.98824e-14)
(0.132867 -1.31159e-07 2.97189e-14)
(0.132867 -1.24686e-07 2.97897e-14)
(0.132867 -1.1958e-07 2.97592e-14)
(0.132867 -9.10996e-08 2.97807e-14)
(0.132867 5.82176e-08 2.96118e-14)
(0.132867 8.01186e-08 2.96606e-14)
(0.132867 8.8554e-08 2.96243e-14)
(0.132867 8.79873e-08 2.95655e-14)
(0.132867 8.16466e-08 2.96409e-14)
(0.132867 7.20849e-08 2.9634e-14)
(0.132867 6.0829e-08 2.96852e-14)
(0.132867 4.88588e-08 2.97298e-14)
(0.132867 3.67542e-08 2.96231e-14)
(0.132867 2.51004e-08 2.96908e-14)
(0.132867 1.4166e-08 2.96966e-14)
(0.132867 5.15514e-09 2.97419e-14)
(0.132867 -2.361e-09 2.97863e-14)
(0.132867 -3.98843e-09 2.96932e-14)
(0.132867 -4.75282e-09 2.97365e-14)
(0.132867 1.46034e-08 2.97062e-14)
(0.133692 5.13918e-08 3.01728e-14)
(0.133692 7.25675e-08 3.00828e-14)
(0.133692 8.46431e-08 3.00448e-14)
(0.133692 9.12084e-08 3.0011e-14)
(0.133692 9.38982e-08 3.00649e-14)
(0.133692 9.37838e-08 3.00718e-14)
(0.133692 9.13416e-08 3.00731e-14)
(0.133692 8.6877e-08 3.01108e-14)
(0.133692 8.0633e-08 3.01056e-14)
(0.133692 7.28713e-08 3.01003e-14)
(0.133692 6.39052e-08 3.00755e-14)
(0.133692 5.40505e-08 3.00196e-14)
(0.133692 4.36023e-08 3.00193e-14)
(0.133692 3.28425e-08 3.00122e-14)
(0.133692 2.20066e-08 3.00633e-14)
(0.133692 1.12483e-08 3.00788e-14)
(0.133692 6.65946e-10 3.00766e-14)
(0.133692 -9.65595e-09 3.01226e-14)
(0.133692 -1.96304e-08 3.00928e-14)
(0.133692 -2.91746e-08 3.00906e-14)
(0.133692 -3.824e-08 3.00441e-14)
(0.133692 -4.68115e-08 3.00685e-14)
(0.133692 -5.48657e-08 3.01612e-14)
(0.133692 -6.23715e-08 3.01515e-14)
(0.133692 -6.93414e-08 3.01736e-14)
(0.133692 -7.58244e-08 3.02156e-14)
(0.133692 -8.18379e-08 3.02087e-14)
(0.133692 -8.7376e-08 3.01971e-14)
(0.133692 -9.24629e-08 3.02165e-14)
(0.133692 -9.71534e-08 3.01907e-14)
(0.133692 -1.01524e-07 3.01422e-14)
(0.133692 -1.05634e-07 3.00958e-14)
(0.133692 -1.09498e-07 3.01162e-14)
(0.133692 -1.13126e-07 3.01194e-14)
(0.133692 -1.16561e-07 3.01242e-14)
(0.133692 -1.19832e-07 3.01945e-14)
(0.133692 -1.22921e-07 3.00759e-14)
(0.133692 -1.25789e-07 3.01111e-14)
(0.133692 -1.28249e-07 3.01193e-14)
(0.133692 -1.30259e-07 3.01034e-14)
(0.133692 -1.30823e-07 3.01778e-14)
(0.133692 -1.30626e-07 2.99759e-14)
(0.133692 -1.2462e-07 3.00851e-14)
(0.133692 -1.20393e-07 3.01026e-14)
(0.133692 -9.18287e-08 3.01205e-14)
(0.133692 6.26842e-08 2.99876e-14)
(0.133692 8.45469e-08 3.00299e-14)
(0.133692 9.28307e-08 3.00006e-14)
(0.133692 9.22529e-08 2.991e-14)
(0.133692 8.59443e-08 3.00162e-14)
(0.133692 7.6361e-08 3.0016e-14)
(0.133692 6.50036e-08 3.00573e-14)
(0.133692 5.2852e-08 3.00993e-14)
(0.133692 4.05102e-08 2.98972e-14)
(0.133692 2.85537e-08 3.00591e-14)
(0.133692 1.72903e-08 3.00669e-14)
(0.133692 7.82169e-09 3.01104e-14)
(0.133692 -1.62673e-10 3.01516e-14)
(0.133692 -2.52907e-09 2.99936e-14)
(0.133692 -4.72928e-09 3.01074e-14)
(0.133692 1.46475e-08 3.00794e-14)
(0.134495 5.21619e-08 3.05113e-14)
(0.134495 7.29073e-08 3.04688e-14)
(0.134495 8.39362e-08 3.04291e-14)
(0.134495 8.94976e-08 3.03484e-14)
(0.134495 9.13913e-08 3.04339e-14)
(0.134495 9.06889e-08 3.0446e-14)
(0.134495 8.78456e-08 3.0457e-14)
(0.134495 8.31325e-08 3.04289e-14)
(0.134495 7.67629e-08 3.04721e-14)
(0.134495 6.89785e-08 3.04665e-14)
(0.134495 6.00758e-08 3.03986e-14)
(0.134495 5.03503e-08 3.03471e-14)
(0.134495 4.00791e-08 3.03577e-14)
(0.134495 2.95349e-08 3.03606e-14)
(0.134495 1.8946e-08 3.0384e-14)
(0.134495 8.45392e-09 3.04222e-14)
(0.134495 -1.85445e-09 3.04227e-14)
(0.134495 -1.19007e-08 3.04794e-14)
(0.134495 -2.16036e-08 3.04429e-14)
(0.134495 -3.08862e-08 3.04398e-14)
(0.134496 -3.96993e-08 3.03867e-14)
(0.134496 -4.80238e-08 3.0412e-14)
(0.134496 -5.5836e-08 3.04657e-14)
(0.134496 -6.31085e-08 3.04876e-14)
(0.134496 -6.98573e-08 3.04973e-14)
(0.134496 -7.61299e-08 3.05092e-14)
(0.134496 -8.19379e-08 3.05168e-14)
(0.134496 -8.72763e-08 3.05132e-14)
(0.134496 -9.21773e-08 3.04842e-14)
(0.134496 -9.66965e-08 3.04852e-14)
(0.134496 -1.00908e-07 3.04705e-14)
(0.134496 -1.04871e-07 3.04436e-14)
(0.134496 -1.08601e-07 3.04352e-14)
(0.134496 -1.12109e-07 3.0426e-14)
(0.134495 -1.15442e-07 3.04719e-14)
(0.134495 -1.18637e-07 3.04563e-14)
(0.134495 -1.21679e-07 3.04266e-14)
(0.134495 -1.24531e-07 3.04304e-14)
(0.134495 -1.27027e-07 3.0426e-14)
(0.134495 -1.29106e-07 3.04447e-14)
(0.134495 -1.29867e-07 3.0483e-14)
(0.134495 -1.2988e-07 3.04079e-14)
(0.134495 -1.24397e-07 3.04048e-14)
(0.134495 -1.21187e-07 3.05067e-14)
(0.134495 -9.25119e-08 3.04585e-14)
(0.134495 6.68171e-08 3.03552e-14)
(0.134495 8.85422e-08 3.03298e-14)
(0.134495 9.65083e-08 3.03539e-14)
(0.134495 9.58137e-08 3.0315e-14)
(0.134495 8.95251e-08 3.03466e-14)
(0.134495 7.99736e-08 3.0386e-14)
(0.134495 6.85966e-08 3.03626e-14)
(0.134495 5.63481e-08 3.03868e-14)
(0.134495 4.38453e-08 3.03496e-14)
(0.134495 3.16501e-08 3.03873e-14)
(0.134495 2.01076e-08 3.04334e-14)
(0.134495 1.02124e-08 3.04134e-14)
(0.134495 1.77052e-09 3.04359e-14)
(0.134495 -1.34901e-09 3.04072e-14)
(0.134495 -5.05555e-09 3.04261e-14)
(0.134495 1.43793e-08 3.04429e-14)
(0.135277 5.26844e-08 3.08588e-14)
(0.135277 7.30052e-08 3.08283e-14)
(0.135277 8.29633e-08 3.07839e-14)
(0.135277 8.74961e-08 3.07375e-14)
(0.135277 8.85772e-08 3.0807e-14)
(0.135277 8.72793e-08 3.08118e-14)
(0.135277 8.40369e-08 3.07754e-14)
(0.135277 7.9086e-08 3.07272e-14)
(0.135277 7.2607e-08 3.0852e-14)
(0.135277 6.48181e-08 3.07286e-14)
(0.135277 5.59973e-08 3.0678e-14)
(0.135277 4.64206e-08 3.06646e-14)
(0.135277 3.63469e-08 3.06793e-14)
(0.135278 2.60363e-08 3.07009e-14)
(0.135278 1.57105e-08 3.06984e-14)
(0.135278 5.50374e-09 3.07524e-14)
(0.135278 -4.50808e-09 3.07634e-14)
(0.135278 -1.42547e-08 3.07917e-14)
(0.135278 -2.36602e-08 3.0786e-14)
(0.135278 -3.26528e-08 3.07631e-14)
(0.135278 -4.11845e-08 3.07003e-14)
(0.135278 -4.92353e-08 3.07391e-14)
(0.135278 -5.67822e-08 3.07768e-14)
(0.135278 -6.37997e-08 3.0791e-14)
(0.135278 -7.0305e-08 3.08197e-14)
(0.135278 -7.63426e-08 3.08052e-14)
(0.135278 -8.19215e-08 3.08205e-14)
(0.135278 -8.70412e-08 3.08213e-14)
(0.135278 -9.17392e-08 3.08052e-14)
(0.135278 -9.607e-08 3.08067e-14)
(0.135278 -1.00105e-07 3.07701e-14)
(0.135278 -1.03906e-07 3.07563e-14)
(0.135278 -1.07486e-07 3.07503e-14)
(0.135278 -1.1086e-07 3.07488e-14)
(0.135278 -1.14081e-07 3.07813e-14)
(0.135278 -1.17189e-07 3.07468e-14)
(0.135278 -1.20179e-07 3.07449e-14)
(0.135278 -1.23012e-07 3.0749e-14)
(0.135278 -1.25549e-07 3.0747e-14)
(0.135278 -1.27704e-07 3.07823e-14)
(0.135278 -1.28677e-07 3.07926e-14)
(0.135278 -1.28926e-07 3.0766e-14)
(0.135278 -1.24022e-07 3.07301e-14)
(0.135278 -1.21962e-07 3.07825e-14)
(0.135278 -9.31483e-08 3.07928e-14)
(0.135277 7.06155e-08 3.07263e-14)
(0.135277 9.21417e-08 3.06193e-14)
(0.135277 9.96466e-08 3.0709e-14)
(0.135277 9.87174e-08 3.07178e-14)
(0.135277 9.2403e-08 3.06873e-14)
(0.135277 8.2901e-08 3.07599e-14)
(0.135277 7.15591e-08 3.06581e-14)
(0.135277 5.92819e-08 3.06783e-14)
(0.135277 4.66864e-08 3.07349e-14)
(0.135277 3.43145e-08 3.07272e-14)
(0.135277 2.2543e-08 3.08064e-14)
(0.135277 1.22546e-08 3.07074e-14)
(0.135277 3.36816e-09 3.07248e-14)
(0.135277 -5.14207e-10 3.07808e-14)
(0.135277 -5.78652e-09 3.07537e-14)
(0.135277 1.37532e-08 3.08099e-14)
(0.136039 5.29192e-08 3.12082e-14)
(0.136039 7.28229e-08 3.11683e-14)
(0.136039 8.16928e-08 3.11299e-14)
(0.136039 8.51813e-08 3.11613e-14)
(0.136039 8.54425e-08 3.1042e-14)
(0.136039 8.35477e-08 3.11685e-14)
(0.136039 7.99107e-08 3.09936e-14)
(0.136039 7.47328e-08 3.1016e-14)
(0.136039 6.81607e-08 3.10995e-14)
(0.136039 6.03856e-08 3.09583e-14)
(0.136039 5.16645e-08 3.09469e-14)
(0.136039 4.2256e-08 3.09834e-14)
(0.136039 3.24009e-08 3.10025e-14)
(0.136039 2.23435e-08 3.10403e-14)
(0.136039 1.22983e-08 3.10192e-14)
(0.136039 2.39585e-09 3.11001e-14)
(0.136039 -7.29803e-09 3.11008e-14)
(0.136039 -1.67226e-08 3.11179e-14)
(0.136039 -2.58064e-08 3.11297e-14)
(0.136039 -3.44815e-08 3.10767e-14)
(0.136039 -4.27033e-08 3.10038e-14)
(0.136039 -5.04543e-08 3.10533e-14)
(0.136039 -5.77132e-08 3.10875e-14)
(0.136039 -6.44546e-08 3.10986e-14)
(0.136039 -7.06938e-08 3.11237e-14)
(0.136039 -7.64718e-08 3.10784e-14)
(0.136039 -8.17992e-08 3.11174e-14)
(0.136039 -8.66822e-08 3.11257e-14)
(0.136039 -9.11594e-08 3.11181e-14)
(0.136039 -9.52836e-08 3.11516e-14)
(0.136039 -9.91266e-08 3.10509e-14)
(0.136039 -1.02749e-07 3.10622e-14)
(0.136039 -1.06166e-07 3.1062e-14)
(0.136039 -1.09392e-07 3.10653e-14)
(0.136039 -1.12489e-07 3.10904e-14)
(0.136039 -1.155e-07 3.09997e-14)
(0.136039 -1.1843e-07 3.10566e-14)
(0.136039 -1.21244e-07 3.10656e-14)
(0.136039 -1.23824e-07 3.1065e-14)
(0.136039 -1.2606e-07 3.11229e-14)
(0.136039 -1.2726e-07 3.11034e-14)
(0.136039 -1.27775e-07 3.11121e-14)
(0.136039 -1.23502e-07 3.10509e-14)
(0.136039 -1.22716e-07 3.11367e-14)
(0.136039 -9.37358e-08 3.112e-14)
(0.136039 7.40874e-08 3.10355e-14)
(0.136039 9.53779e-08 3.09507e-14)
(0.136039 1.02302e-07 3.10187e-14)
(0.136039 1.01022e-07 3.11326e-14)
(0.136039 9.46152e-08 3.10169e-14)
(0.136039 8.51509e-08 3.10732e-14)
(0.136039 7.38715e-08 3.09937e-14)
(0.136039 6.16141e-08 3.09835e-14)
(0.136039 4.89818e-08 3.11162e-14)
(0.136039 3.64884e-08 3.10579e-14)
(0.136039 2.45347e-08 3.11194e-14)
(0.136039 1.38854e-08 3.10417e-14)
(0.136039 4.5675e-09 3.10263e-14)
(0.136039 -8.49185e-11 3.1178e-14)
(0.136039 -6.97251e-09 3.10754e-14)
(0.136039 1.27278e-08 3.11177e-14)
(0.13678 5.28315e-08 3.14994e-14)
(0.13678 7.23272e-08 3.14821e-14)
(0.13678 8.00964e-08 3.14505e-14)
(0.13678 8.25315e-08 3.14346e-14)
(0.13678 8.1973e-08 3.13182e-14)
(0.13678 7.9486e-08 3.14752e-14)
(0.13678 7.5462e-08 3.13064e-14)
(0.13678 7.00689e-08 3.13176e-14)
(0.13678 6.34198e-08 3.13583e-14)
(0.13678 5.56762e-08 3.12018e-14)
(0.13678 4.70726e-08 3.12313e-14)
(0.13678 3.78516e-08 3.1319e-14)
(0.13678 2.8237e-08 3.13269e-14)
(0.13678 1.8454e-08 3.13871e-14)
(0.13678 8.70859e-09 3.14127e-14)
(0.13678 -8.70462e-10 3.13983e-14)
(0.13678 -1.02265e-08 3.14336e-14)
(0.13678 -1.93081e-08 3.14541e-14)
(0.13678 -2.80472e-08 3.14818e-14)
(0.13678 -3.63785e-08 3.1453e-14)
(0.13678 -4.42632e-08 3.1367e-14)
(0.13678 -5.16894e-08 3.13795e-14)
(0.13678 -5.86381e-08 3.13869e-14)
(0.13678 -6.50827e-08 3.14062e-14)
(0.13678 -7.10336e-08 3.14271e-14)
(0.13678 -7.65281e-08 3.13952e-14)
(0.13678 -8.15828e-08 3.1423e-14)
(0.13678 -8.62113e-08 3.14271e-14)
(0.13678 -9.04493e-08 3.14272e-14)
(0.13678 -9.43481e-08 3.14215e-14)
(0.13678 -9.79826e-08 3.13722e-14)
(0.13678 -1.01412e-07 3.13763e-14)
(0.13678 -1.04651e-07 3.13691e-14)
(0.13678 -1.07718e-07 3.13794e-14)
(0.13678 -1.10679e-07 3.13951e-14)
(0.13678 -1.13584e-07 3.13538e-14)
(0.13678 -1.16447e-07 3.13786e-14)
(0.13678 -1.19239e-07 3.13784e-14)
(0.13678 -1.21865e-07 3.13839e-14)