/*--------------------------------*- C++ -*----------------------------------*\
  =========                 |
  \\      /  F ield         | OpenFOAM: The Open Source CFD Toolbox
   \\    /   O peration     | Website:  https://openfoam.org
    \\  /    A nd           | Version:  7
     \\/     M anipulation  |
\*---------------------------------------------------------------------------*/
FoamFile
{
    version     2.0;
    format      ascii;
    class       volVectorField;
    location    "15500";
    object      U;
}
// * * * * * * * * * * * * * * * * * * * * * * * * * * * * * * * * * * * * * //

dimensions      [0 1 -1 0 0 0 0];

internalField   nonuniform List<vector> 
3974
(
(0.123236 2.24573e-08 2.05564e-14)
(0.123236 2.60767e-08 2.06169e-14)
(0.123236 2.76711e-08 2.0568e-14)
(0.123236 2.85736e-08 2.06179e-14)
(0.123237 2.91292e-08 2.05279e-14)
(0.123237 2.96122e-08 2.05755e-14)
(0.123237 3.02111e-08 2.05438e-14)
(0.123237 3.10046e-08 2.04567e-14)
(0.123237 3.19977e-08 2.0546e-14)
(0.123237 3.31951e-08 2.0471e-14)
(0.123237 3.46273e-08 2.05048e-14)
(0.123237 3.62956e-08 2.04764e-14)
(0.123237 3.81101e-08 2.04194e-14)
(0.123237 3.99302e-08 2.04818e-14)
(0.123237 4.16561e-08 2.04015e-14)
(0.123237 4.32165e-08 2.04593e-14)
(0.123237 4.45535e-08 2.04427e-14)
(0.123237 4.56462e-08 2.0408e-14)
(0.123237 4.64727e-08 2.04759e-14)
(0.123237 4.70147e-08 2.04251e-14)
(0.123237 4.73149e-08 2.04337e-14)
(0.123237 4.74127e-08 2.04298e-14)
(0.123237 4.72906e-08 2.03145e-14)
(0.123237 4.69419e-08 2.0416e-14)
(0.123237 4.63969e-08 2.03966e-14)
(0.123237 4.5714e-08 2.04067e-14)
(0.123237 4.49539e-08 2.03816e-14)
(0.123237 4.40988e-08 2.02801e-14)
(0.123237 4.30869e-08 2.04066e-14)
(0.123237 4.19391e-08 2.0323e-14)
(0.123237 4.0709e-08 2.0365e-14)
(0.123237 3.94115e-08 2.04383e-14)
(0.123237 3.80401e-08 2.03478e-14)
(0.123237 3.66435e-08 2.04137e-14)
(0.123237 3.51314e-08 2.04743e-14)
(0.123237 3.35348e-08 2.03829e-14)
(0.123237 3.15461e-08 2.04396e-14)
(0.123237 2.97428e-08 2.03427e-14)
(0.124329 -2.71886e-09 2.10034e-14)
(0.124329 8.78875e-09 2.09347e-14)
(0.124329 1.52373e-08 2.09724e-14)
(0.124329 1.89718e-08 2.10196e-14)
(0.12433 2.15432e-08 2.09533e-14)
(0.12433 2.30859e-08 2.09918e-14)
(0.12433 2.4033e-08 2.09444e-14)
(0.12433 2.47917e-08 2.09673e-14)
(0.12433 2.56133e-08 2.0969e-14)
(0.12433 2.66025e-08 2.08922e-14)
(0.12433 2.77691e-08 2.09264e-14)
(0.12433 2.91199e-08 2.08733e-14)
(0.12433 3.06891e-08 2.08936e-14)
(0.12433 3.24772e-08 2.08925e-14)
(0.12433 3.43978e-08 2.07987e-14)
(0.12433 3.63251e-08 2.08455e-14)
(0.12433 3.81682e-08 2.08039e-14)
(0.12433 3.9854e-08 2.08308e-14)
(0.12433 4.13208e-08 2.08516e-14)
(0.12433 4.25442e-08 2.07804e-14)
(0.12433 4.35053e-08 2.08366e-14)
(0.12433 4.4191e-08 2.07662e-14)
(0.12433 4.464e-08 2.08097e-14)
(0.12433 4.48888e-08 2.08284e-14)
(0.12433 4.49234e-08 2.07226e-14)
(0.12433 4.47352e-08 2.0771e-14)
(0.12433 4.4351e-08 2.07409e-14)
(0.12433 4.38295e-08 2.07663e-14)
(0.12433 4.32327e-08 2.07773e-14)
(0.12433 4.25452e-08 2.06816e-14)
(0.12433 4.1704e-08 2.07689e-14)
(0.12433 4.07219e-08 2.07073e-14)
(0.12433 3.96489e-08 2.07361e-14)
(0.12433 3.85033e-08 2.08045e-14)
(0.12433 3.72794e-08 2.07634e-14)
(0.12433 3.6039e-08 2.07785e-14)
(0.12433 3.46609e-08 2.08176e-14)
(0.12433 3.33285e-08 2.07751e-14)
(0.12433 3.11843e-08 2.08041e-14)
(0.12433 3.15782e-08 2.0755e-14)
(0.12433 3.14423e-08 2.07728e-14)
(0.12433 2.67775e-08 2.08075e-14)
(0.12539 -4.78105e-08 2.146e-14)
(0.12539 -2.24e-08 2.13369e-14)
(0.12539 -4.82008e-09 2.13733e-14)
(0.12539 4.11545e-09 2.13753e-14)
(0.12539 8.47915e-09 2.13859e-14)
(0.12539 1.25313e-08 2.14208e-14)
(0.12539 1.54523e-08 2.13226e-14)
(0.12539 1.72854e-08 2.13754e-14)
(0.12539 1.84876e-08 2.13245e-14)
(0.12539 1.94659e-08 2.13659e-14)
(0.12539 2.04863e-08 2.13824e-14)
(0.12539 2.16667e-08 2.12753e-14)
(0.12539 2.30159e-08 2.13092e-14)
(0.12539 2.45376e-08 2.1225e-14)
(0.12539 2.62651e-08 2.12818e-14)
(0.12539 2.81949e-08 2.12982e-14)
(0.12539 3.02426e-08 2.11595e-14)
(0.12539 3.22977e-08 2.12203e-14)
(0.12539 3.42784e-08 2.11699e-14)
(0.12539 3.61103e-08 2.12148e-14)
(0.125391 3.773e-08 2.1251e-14)
(0.125391 3.91088e-08 2.11514e-14)
(0.125391 4.02274e-08 2.12079e-14)
(0.125391 4.10794e-08 2.11358e-14)
(0.125391 4.1701e-08 2.11879e-14)
(0.125391 4.21238e-08 2.12204e-14)
(0.125391 4.23361e-08 2.1101e-14)
(0.125391 4.23295e-08 2.1138e-14)
(0.125391 4.21277e-08 2.10877e-14)
(0.125391 4.17881e-08 2.11372e-14)
(0.125391 4.1371e-08 2.1167e-14)
(0.125391 4.08645e-08 2.10718e-14)
(0.125391 4.02094e-08 2.11396e-14)
(0.125391 3.94119e-08 2.10739e-14)
(0.125391 3.85171e-08 2.11152e-14)
(0.125391 3.7543e-08 2.11764e-14)
(0.125391 3.64813e-08 2.11604e-14)
(0.125391 3.54049e-08 2.11482e-14)
(0.125391 3.41752e-08 2.11651e-14)
(0.125391 3.30717e-08 2.11501e-14)
(0.125391 3.09873e-08 2.11677e-14)
(0.125391 3.21903e-08 2.1147e-14)
(0.125391 3.39365e-08 2.1142e-14)
(0.125391 3.28239e-08 2.11595e-14)
(0.125391 2.91413e-08 2.11494e-14)
(0.125391 2.10244e-08 2.1165e-14)
(0.125391 1.25375e-08 2.11315e-14)
(0.125391 4.65527e-09 2.11237e-14)
(0.12539 -2.80328e-09 2.11505e-14)
(0.12539 -1.01028e-08 2.11482e-14)
(0.12539 -1.73089e-08 2.11735e-14)
(0.12539 -2.44341e-08 2.11623e-14)
(0.12539 -3.11771e-08 2.11718e-14)
(0.12539 -3.75884e-08 2.1199e-14)
(0.12539 -4.22869e-08 2.11903e-14)
(0.12539 -4.63936e-08 2.12059e-14)
(0.12539 -4.45331e-08 2.11859e-14)
(0.12539 -4.19964e-08 2.11975e-14)
(0.12539 -2.39772e-08 2.12256e-14)
(0.126419 -4.46355e-08 2.18497e-14)
(0.126419 -2.10412e-08 2.16675e-14)
(0.126419 -6.22104e-09 2.17548e-14)
(0.126419 2.15223e-09 2.17896e-14)
(0.126419 5.25922e-09 2.17846e-14)
(0.126419 7.99493e-09 2.18218e-14)
(0.126419 1.02554e-08 2.16578e-14)
(0.126419 1.18718e-08 2.1769e-14)
(0.126419 1.30477e-08 2.1651e-14)
(0.126419 1.40781e-08 2.17777e-14)
(0.126419 1.51912e-08 2.17848e-14)
(0.12642 1.64946e-08 2.16444e-14)
(0.12642 1.79859e-08 2.16991e-14)
(0.12642 1.9656e-08 2.1554e-14)
(0.12642 2.15304e-08 2.16817e-14)
(0.12642 2.35995e-08 2.16959e-14)
(0.12642 2.57785e-08 2.14943e-14)
(0.12642 2.79674e-08 2.16039e-14)
(0.12642 3.00926e-08 2.14465e-14)
(0.12642 3.20799e-08 2.16151e-14)
(0.12642 3.3865e-08 2.16411e-14)
(0.12642 3.54149e-08 2.15127e-14)
(0.12642 3.67085e-08 2.15884e-14)
(0.12642 3.77429e-08 2.14941e-14)
(0.12642 3.85531e-08 2.15804e-14)
(0.12642 3.9167e-08 2.1605e-14)
(0.12642 3.95749e-08 2.14187e-14)
(0.12642 3.97687e-08 2.15148e-14)
(0.12642 3.97682e-08 2.14323e-14)
(0.12642 3.96269e-08 2.15227e-14)
(0.12642 3.94031e-08 2.155e-14)
(0.12642 3.90901e-08 2.13907e-14)
(0.12642 3.86348e-08 2.15204e-14)
(0.12642 3.80377e-08 2.1429e-14)
(0.12642 3.73384e-08 2.15062e-14)
(0.12642 3.65538e-08 2.15524e-14)
(0.12642 3.56703e-08 2.15438e-14)
(0.12642 3.47652e-08 2.15135e-14)
(0.12642 3.37001e-08 2.1513e-14)
(0.12642 3.27785e-08 2.15146e-14)
(0.12642 3.10003e-08 2.15284e-14)
(0.12642 3.13068e-08 2.15264e-14)
(0.12642 3.31628e-08 2.1509e-14)
(0.12642 3.51503e-08 2.15138e-14)
(0.12642 3.50006e-08 2.15189e-14)
(0.12642 2.89528e-08 2.15286e-14)
(0.12642 2.07517e-08 2.15135e-14)
(0.12642 1.24737e-08 2.14904e-14)
(0.12642 4.52371e-09 2.15053e-14)
(0.12642 -3.22445e-09 2.15179e-14)
(0.12642 -1.08327e-08 2.15381e-14)
(0.12642 -1.83167e-08 2.15448e-14)
(0.12642 -2.53884e-08 2.15419e-14)
(0.12642 -3.21071e-08 2.15526e-14)
(0.12642 -3.70976e-08 2.15581e-14)
(0.12642 -4.15191e-08 2.15701e-14)
(0.12642 -3.97353e-08 2.15673e-14)
(0.12642 -3.77434e-08 2.1564e-14)
(0.12642 -1.81293e-08 2.15831e-14)
(0.127419 -4.24893e-08 2.22323e-14)
(0.127419 -1.82787e-08 2.21272e-14)
(0.127419 -4.82625e-09 2.21613e-14)
(0.127419 2.17044e-09 2.21697e-14)
(0.127419 4.05635e-09 2.21736e-14)
(0.127419 5.30808e-09 2.22238e-14)
(0.127419 6.43207e-09 2.21272e-14)
(0.127419 7.3636e-09 2.21851e-14)
(0.127419 8.17174e-09 2.21272e-14)
(0.127419 9.02133e-09 2.22234e-14)
(0.127419 1.00643e-08 2.21718e-14)
(0.127419 1.13741e-08 2.20711e-14)
(0.12742 1.29256e-08 2.21032e-14)
(0.12742 1.46869e-08 2.2012e-14)
(0.12742 1.66683e-08 2.21247e-14)
(0.12742 1.88514e-08 2.20767e-14)
(0.12742 2.11475e-08 2.19462e-14)
(0.12742 2.34616e-08 2.20154e-14)
(0.12742 2.57259e-08 2.19575e-14)
(0.12742 2.78669e-08 2.20516e-14)
(0.12742 2.98189e-08 2.20167e-14)
(0.12742 3.15461e-08 2.19251e-14)
(0.12742 3.30243e-08 2.1989e-14)
(0.12742 3.42512e-08 2.19196e-14)
(0.12742 3.52595e-08 2.20056e-14)
(0.12742 3.60752e-08 2.19764e-14)
(0.12742 3.6692e-08 2.18758e-14)
(0.12742 3.71014e-08 2.19083e-14)
(0.12742 3.73172e-08 2.18489e-14)
(0.12742 3.7387e-08 2.1935e-14)
(0.12742 3.73679e-08 2.19199e-14)
(0.12742 3.72595e-08 2.18455e-14)
(0.12742 3.70152e-08 2.19191e-14)
(0.12742 3.66311e-08 2.18548e-14)
(0.12742 3.61412e-08 2.19194e-14)
(0.12742 3.55615e-08 2.19274e-14)
(0.12742 3.48714e-08 2.19155e-14)
(0.12742 3.41458e-08 2.18683e-14)
(0.12742 3.326e-08 2.18596e-14)
(0.12742 3.24891e-08 2.18738e-14)
(0.12742 3.11071e-08 2.18854e-14)
(0.12742 3.05697e-08 2.18976e-14)
(0.12742 3.17586e-08 2.18713e-14)
(0.12742 3.42513e-08 2.18665e-14)
(0.12742 3.60774e-08 2.18833e-14)
(0.12742 3.34257e-08 2.18896e-14)
(0.12742 2.71592e-08 2.18891e-14)
(0.12742 1.94941e-08 2.18512e-14)
(0.12742 1.15728e-08 2.18587e-14)
(0.12742 3.65809e-09 2.18836e-14)
(0.12742 -4.18018e-09 2.19006e-14)
(0.12742 -1.19096e-08 2.1921e-14)
(0.12742 -1.92367e-08 2.19115e-14)
(0.12742 -2.62145e-08 2.19073e-14)
(0.12742 -3.14743e-08 2.19223e-14)
(0.12742 -3.61882e-08 2.19325e-14)
(0.12742 -3.45363e-08 2.19431e-14)
(0.12742 -3.30565e-08 2.1928e-14)
(0.12742 -1.2526e-08 2.19387e-14)
(0.128391 -4.13204e-08 2.25975e-14)
(0.128391 -1.57595e-08 2.25503e-14)
(0.128391 -2.59103e-09 2.26392e-14)
(0.128391 3.34838e-09 2.25375e-14)
(0.128391 4.21215e-09 2.25341e-14)
(0.128391 4.17233e-09 2.2592e-14)
(0.128391 4.04197e-09 2.25578e-14)
(0.128391 4.00543e-09 2.26201e-14)
(0.128391 4.15887e-09 2.2542e-14)
(0.128391 4.59269e-09 2.26384e-14)
(0.128391 5.38231e-09 2.25355e-14)
(0.128391 6.556e-09 2.24864e-14)
(0.128391 8.0591e-09 2.24993e-14)
(0.128391 9.83001e-09 2.2447e-14)
(0.128391 1.18571e-08 2.25471e-14)
(0.128392 1.41097e-08 2.24345e-14)
(0.128392 1.64921e-08 2.23742e-14)
(0.128392 1.89093e-08 2.24102e-14)
(0.128392 2.12963e-08 2.23723e-14)
(0.128392 2.35791e-08 2.24662e-14)
(0.128392 2.56899e-08 2.23713e-14)
(0.128392 2.75909e-08 2.23354e-14)
(0.128392 2.92553e-08 2.23773e-14)
(0.128392 3.0678e-08 2.23374e-14)
(0.128392 3.18878e-08 2.25021e-14)
(0.128392 3.29102e-08 2.23258e-14)
(0.128392 3.3744e-08 2.22809e-14)
(0.128392 3.43796e-08 2.2296e-14)
(0.128392 3.48221e-08 2.22592e-14)
(0.128392 3.51129e-08 2.2354e-14)
(0.128392 3.53078e-08 2.22666e-14)
(0.128392 3.54131e-08 2.22456e-14)
(0.128392 3.53882e-08 2.22997e-14)
(0.128392 3.52264e-08 2.22665e-14)
(0.128392 3.49571e-08 2.23419e-14)
(0.128392 3.45945e-08 2.22911e-14)
(0.128392 3.4111e-08 2.22769e-14)
(0.128392 3.35736e-08 2.22339e-14)
(0.128392 3.28792e-08 2.22042e-14)
(0.128392 3.22471e-08 2.22322e-14)
(0.128392 3.12534e-08 2.22384e-14)
(0.128392 3.02438e-08 2.22639e-14)
(0.128392 3.06102e-08 2.21628e-14)
(0.128392 3.26085e-08 2.22176e-14)
(0.128392 3.5049e-08 2.22455e-14)
(0.128392 3.50004e-08 2.22469e-14)
(0.128392 3.12111e-08 2.22605e-14)
(0.128392 2.50049e-08 2.22264e-14)
(0.128392 1.77459e-08 2.22119e-14)
(0.128392 1.00709e-08 2.22478e-14)
(0.128392 2.2669e-09 2.22597e-14)
(0.128392 -5.52827e-09 2.22936e-14)
(0.128392 -1.29867e-08 2.22454e-14)
(0.128392 -2.01349e-08 2.22623e-14)
(0.128392 -2.56112e-08 2.22863e-14)
(0.128392 -3.05698e-08 2.22922e-14)
(0.128392 -2.90931e-08 2.23149e-14)
(0.128392 -2.80807e-08 2.2302e-14)
(0.128391 -7.12997e-09 2.22934e-14)
(0.129336 -4.089e-08 2.29534e-14)
(0.129336 -1.3975e-08 2.29477e-14)
(0.129336 -4.3418e-10 2.29504e-14)
(0.129336 5.03726e-09 2.28909e-14)
(0.129336 5.21414e-09 2.28981e-14)
(0.129336 4.16369e-09 2.2965e-14)
(0.129336 2.8817e-09 2.29581e-14)
(0.129336 1.79876e-09 2.29725e-14)
(0.129336 1.13047e-09 2.29399e-14)
(0.129336 9.66872e-10 2.29999e-14)
(0.129336 1.33765e-09 2.2931e-14)
(0.129336 2.23325e-09 2.28968e-14)
(0.129336 3.5708e-09 2.28906e-14)
(0.129336 5.25802e-09 2.28552e-14)
(0.129337 7.25745e-09 2.29057e-14)
(0.129337 9.52212e-09 2.28282e-14)
(0.129337 1.1947e-08 2.27853e-14)
(0.129337 1.44344e-08 2.28005e-14)
(0.129337 1.6919e-08 2.27725e-14)
(0.129337 1.93232e-08 2.28266e-14)
(0.129337 2.15761e-08 2.27616e-14)
(0.129337 2.36391e-08 2.2739e-14)
(0.129337 2.54835e-08 2.27609e-14)
(0.129337 2.70988e-08 2.27377e-14)
(0.129337 2.85079e-08 2.27743e-14)
(0.129337 2.97371e-08 2.27157e-14)
(0.129337 3.07906e-08 2.26832e-14)
(0.129337 3.16571e-08 2.26801e-14)
(0.129337 3.23326e-08 2.2657e-14)
(0.129337 3.28511e-08 2.26961e-14)
(0.129337 3.32674e-08 2.26576e-14)
(0.129337 3.35928e-08 2.26425e-14)
(0.129337 3.3793e-08 2.26797e-14)
(0.129337 3.38602e-08 2.26599e-14)
(0.129337 3.38198e-08 2.26869e-14)
(0.129337 3.36831e-08 2.26276e-14)
(0.129337 3.34165e-08 2.26304e-14)
(0.129337 3.30761e-08 2.25862e-14)
(0.129337 3.25828e-08 2.25508e-14)
(0.129337 3.2092e-08 2.25926e-14)
(0.129337 3.14379e-08 2.25865e-14)
(0.129337 3.02627e-08 2.26291e-14)
(0.129337 2.99504e-08 2.26048e-14)
(0.129337 3.11688e-08 2.25667e-14)
(0.129337 3.33738e-08 2.26083e-14)
(0.129337 3.47669e-08 2.25986e-14)
(0.129337 3.31648e-08 2.2631e-14)
(0.129337 2.87774e-08 2.25936e-14)
(0.129337 2.2677e-08 2.25675e-14)
(0.129337 1.56542e-08 2.26143e-14)
(0.129337 8.18797e-09 2.26137e-14)
(0.129337 5.46243e-10 2.26661e-14)
(0.129337 -6.88474e-09 2.26561e-14)
(0.129337 -1.40845e-08 2.26151e-14)
(0.129337 -1.96995e-08 2.26536e-14)
(0.129337 -2.48352e-08 2.2648e-14)
(0.129337 -2.35599e-08 2.26855e-14)
(0.129337 -2.29888e-08 2.26715e-14)
(0.129337 -1.88737e-09 2.26467e-14)
(0.130256 -4.09308e-08 2.33031e-14)
(0.130256 -1.29312e-08 2.33349e-14)
(0.130256 1.24376e-09 2.33197e-14)
(0.130256 6.71293e-09 2.322e-14)
(0.130256 6.56816e-09 2.32421e-14)
(0.130256 4.8286e-09 2.33154e-14)
(0.130256 2.62278e-09 2.33492e-14)
(0.130256 5.76234e-10 2.33343e-14)
(0.130256 -9.48618e-10 2.33253e-14)
(0.130256 -1.80637e-09 2.33196e-14)
(0.130256 -1.97174e-09 2.33024e-14)
(0.130256 -1.4717e-09 2.32958e-14)
(0.130256 -4.0691e-10 2.32623e-14)
(0.130256 1.10534e-09 2.32497e-14)
(0.130256 3.00136e-09 2.32333e-14)
(0.130256 5.21531e-09 2.3197e-14)
(0.130256 7.63191e-09 2.31841e-14)
(0.130256 1.01497e-08 2.31643e-14)
(0.130256 1.27002e-08 2.31614e-14)
(0.130256 1.51994e-08 2.31524e-14)
(0.130256 1.75717e-08 2.31303e-14)
(0.130256 1.97786e-08 2.31333e-14)
(0.130256 2.17899e-08 2.31207e-14)
(0.130256 2.35883e-08 2.31242e-14)
(0.130256 2.51898e-08 2.30997e-14)
(0.130256 2.66214e-08 2.30819e-14)
(0.130256 2.78923e-08 2.30775e-14)
(0.130256 2.8989e-08 2.30492e-14)
(0.130256 2.98991e-08 2.30472e-14)
(0.130256 3.06494e-08 2.3028e-14)
(0.130256 3.12921e-08 2.30232e-14)
(0.130256 3.18416e-08 2.30323e-14)
(0.130256 3.22697e-08 2.30328e-14)
(0.130256 3.25702e-08 2.30425e-14)
(0.130256 3.27643e-08 2.30275e-14)
(0.130256 3.28588e-08 2.29419e-14)
(0.130256 3.28164e-08 2.2985e-14)
(0.130256 3.26814e-08 2.29471e-14)
(0.130256 3.23967e-08 2.28889e-14)
(0.130256 3.20574e-08 2.29603e-14)
(0.130256 3.16874e-08 2.29266e-14)
(0.130256 3.05501e-08 2.29994e-14)
(0.130256 2.97988e-08 2.29729e-14)
(0.130256 3.02615e-08 2.29058e-14)
(0.130256 3.18281e-08 2.29756e-14)
(0.130256 3.37245e-08 2.29413e-14)
(0.130256 3.36561e-08 2.30057e-14)
(0.130256 3.09941e-08 2.29713e-14)
(0.130256 2.62812e-08 2.29172e-14)
(0.130256 2.0217e-08 2.29876e-14)
(0.130256 1.33647e-08 2.29595e-14)
(0.130256 6.09753e-09 2.30428e-14)
(0.130256 -1.13559e-09 2.30268e-14)
(0.130256 -8.25267e-09 2.29599e-14)
(0.130256 -1.39127e-08 2.30283e-14)
(0.130256 -1.91454e-08 2.29966e-14)
(0.130256 -1.80809e-08 2.30589e-14)
(0.130256 -1.79535e-08 2.30466e-14)
(0.130256 3.19289e-09 2.29899e-14)
(0.13115 -4.12161e-08 2.36708e-14)
(0.13115 -1.2487e-08 2.3638e-14)
(0.13115 2.29745e-09 2.36713e-14)
(0.13115 8.02779e-09 2.34661e-14)
(0.13115 7.87252e-09 2.36001e-14)
(0.13115 5.75938e-09 2.36891e-14)
(0.13115 2.90732e-09 2.36553e-14)
(0.13115 8.02917e-11 2.36862e-14)
(0.13115 -2.22563e-09 2.36226e-14)
(0.13115 -3.78366e-09 2.36424e-14)
(0.13115 -4.5382e-09 2.36633e-14)
(0.13115 -4.50917e-09 2.36014e-14)
(0.13115 -3.799e-09 2.36264e-14)
(0.13115 -2.53869e-09 2.3555e-14)
(0.13115 -8.14543e-10 2.35619e-14)
(0.13115 1.28827e-09 2.35576e-14)
(0.13115 3.64521e-09 2.34914e-14)
(0.131151 6.15162e-09 2.35134e-14)
(0.131151 8.7332e-09 2.3462e-14)
(0.131151 1.12971e-08 2.34809e-14)
(0.131151 1.37626e-08 2.34907e-14)
(0.131151 1.60911e-08 2.34373e-14)
(0.131151 1.82509e-08 2.34653e-14)
(0.131151 2.02178e-08 2.34212e-14)
(0.131151 2.20006e-08 2.3413e-14)
(0.131151 2.36267e-08 2.34381e-14)
(0.131151 2.51082e-08 2.33826e-14)
(0.131151 2.64297e-08 2.34155e-14)
(0.131151 2.75723e-08 2.33527e-14)
(0.131151 2.85552e-08 2.33444e-14)
(0.131151 2.94267e-08 2.33785e-14)
(0.131151 3.0202e-08 2.33327e-14)
(0.131151 3.08588e-08 2.33783e-14)
(0.131151 3.13946e-08 2.3339e-14)
(0.131151 3.18258e-08 2.33564e-14)
(0.131151 3.21537e-08 2.33202e-14)
(0.131151 3.23398e-08 2.33604e-14)
(0.131151 3.24177e-08 2.32901e-14)
(0.131151 3.23472e-08 2.32953e-14)
(0.131151 3.21723e-08 2.33404e-14)
(0.131151 3.20403e-08 2.33355e-14)
(0.131151 3.10586e-08 2.3383e-14)
(0.131151 3.00967e-08 2.33263e-14)
(0.131151 2.99685e-08 2.33137e-14)
(0.131151 3.08053e-08 2.33582e-14)
(0.131151 3.26009e-08 2.33521e-14)
(0.131151 3.3379e-08 2.33916e-14)
(0.131151 3.20744e-08 2.33313e-14)
(0.131151 2.87128e-08 2.33418e-14)
(0.131151 2.37482e-08 2.33749e-14)
(0.131151 1.77027e-08 2.33741e-14)
(0.131151 1.09944e-08 2.343e-14)
(0.131151 4.11617e-09 2.33838e-14)
(0.131151 -2.78619e-09 2.33751e-14)
(0.131151 -8.39427e-09 2.34156e-14)
(0.131151 -1.36415e-08 2.34147e-14)
(0.131151 -1.27845e-08 2.34429e-14)
(0.131151 -1.31295e-08 2.34067e-14)
(0.131151 8.0571e-09 2.33975e-14)
(0.132021 -4.15791e-08 2.40366e-14)
(0.132021 -1.24627e-08 2.3929e-14)
(0.132021 2.74307e-09 2.39969e-14)
(0.132021 8.81464e-09 2.39006e-14)
(0.132021 8.85784e-09 2.40372e-14)
(0.132021 6.63522e-09 2.40564e-14)
(0.132021 3.4088e-09 2.39461e-14)
(0.132021 2.84873e-11 2.40145e-14)
(0.132021 -2.9095e-09 2.39028e-14)
(0.132021 -5.09707e-09 2.39412e-14)
(0.132021 -6.42816e-09 2.40171e-14)
(0.132021 -6.89553e-09 2.3885e-14)
(0.132021 -6.58648e-09 2.39528e-14)
(0.132021 -5.63154e-09 2.38426e-14)
(0.132021 -4.13263e-09 2.3934e-14)
(0.132021 -2.19173e-09 2.39145e-14)
(0.132021 6.01743e-11 2.3779e-14)
(0.132021 2.51595e-09 2.38513e-14)
(0.132021 5.09389e-09 2.37423e-14)
(0.132021 7.69154e-09 2.38199e-14)
(0.132021 1.02231e-08 2.38463e-14)
(0.132021 1.26491e-08 2.3722e-14)
(0.132021 1.49359e-08 2.38366e-14)
(0.132021 1.70529e-08 2.37007e-14)
(0.132021 1.9003e-08 2.37552e-14)
(0.132021 2.08126e-08 2.37905e-14)
(0.132021 2.24947e-08 2.36711e-14)
(0.132021 2.4032e-08 2.37428e-14)
(0.132021 2.54013e-08 2.36441e-14)
(0.132021 2.66148e-08 2.37267e-14)
(0.132021 2.77145e-08 2.37313e-14)
(0.132021 2.87152e-08 2.36144e-14)
(0.132021 2.96e-08 2.37051e-14)
(0.132021 3.03706e-08 2.36217e-14)
(0.132021 3.10387e-08 2.36921e-14)
(0.132022 3.15995e-08 2.36892e-14)
(0.132022 3.20161e-08 2.37756e-14)
(0.132022 3.23126e-08 2.36149e-14)
(0.132022 3.24607e-08 2.37503e-14)
(0.132022 3.24626e-08 2.37851e-14)
(0.132022 3.25365e-08 2.37348e-14)
(0.132021 3.1767e-08 2.37533e-14)
(0.132021 3.07699e-08 2.36563e-14)
(0.132021 3.02547e-08 2.36992e-14)
(0.132021 3.04489e-08 2.37994e-14)
(0.132021 3.18378e-08 2.37546e-14)
(0.132021 3.29123e-08 2.37675e-14)
(0.132021 3.25056e-08 2.36677e-14)
(0.132021 3.0274e-08 2.37266e-14)
(0.132021 2.63855e-08 2.37549e-14)
(0.132021 2.12283e-08 2.37787e-14)
(0.132021 1.51977e-08 2.38088e-14)
(0.132021 8.7955e-09 2.37179e-14)
(0.132021 2.22036e-09 2.38012e-14)
(0.132021 -3.24844e-09 2.37959e-14)
(0.132021 -8.43536e-09 2.38222e-14)
(0.132021 -7.77713e-09 2.3824e-14)
(0.132021 -8.64461e-09 2.37465e-14)
(0.132021 1.26318e-08 2.38317e-14)
(0.132869 -4.1909e-08 2.43307e-14)
(0.132869 -1.26871e-08 2.41858e-14)
(0.132869 2.68569e-09 2.42623e-14)
(0.132869 9.04333e-09 2.42442e-14)
(0.132869 9.38124e-09 2.42796e-14)
(0.132869 7.23613e-09 2.43488e-14)
(0.132869 3.86594e-09 2.41947e-14)
(0.132869 1.59832e-10 2.42854e-14)
(0.132869 -3.2262e-09 2.41434e-14)
(0.132869 -5.91972e-09 2.41752e-14)
(0.132869 -7.75948e-09 2.4281e-14)
(0.132869 -8.69962e-09 2.41336e-14)
(0.132869 -8.79916e-09 2.42279e-14)
(0.132869 -8.17443e-09 2.40778e-14)
(0.132869 -6.93354e-09 2.41039e-14)
(0.132869 -5.18994e-09 2.41837e-14)
(0.132869 -3.07718e-09 2.40244e-14)
(0.132869 -7.04237e-10 2.41216e-14)
(0.132869 1.83903e-09 2.39764e-14)
(0.132869 4.4416e-09 2.40215e-14)
(0.132869 7.01322e-09 2.41144e-14)
(0.132869 9.51271e-09 2.39652e-14)
(0.132869 1.19043e-08 2.40698e-14)
(0.132869 1.41516e-08 2.39472e-14)
(0.132869 1.62525e-08 2.39521e-14)
(0.132869 1.82328e-08 2.40649e-14)
(0.132869 2.01036e-08 2.39301e-14)
(0.132869 2.18456e-08 2.40261e-14)
(0.132869 2.34331e-08 2.38863e-14)
(0.132869 2.48715e-08 2.38941e-14)
(0.132869 2.61961e-08 2.40075e-14)
(0.132869 2.74201e-08 2.38556e-14)
(0.132869 2.8531e-08 2.39739e-14)
(0.132869 2.95337e-08 2.387e-14)
(0.132869 3.04358e-08 2.38959e-14)
(0.132869 3.12273e-08 2.39762e-14)
(0.132869 3.18741e-08 2.39773e-14)
(0.132869 3.23927e-08 2.39002e-14)
(0.132869 3.27618e-08 2.3997e-14)
(0.132869 3.29518e-08 2.39904e-14)
(0.132869 3.32117e-08 2.40494e-14)
(0.132869 3.26744e-08 2.40311e-14)
(0.132869 3.17586e-08 2.39481e-14)
(0.132869 3.10427e-08 2.40218e-14)
(0.132869 3.07576e-08 2.40111e-14)
(0.132869 3.16491e-08 2.40702e-14)
(0.132869 3.26592e-08 2.40473e-14)
(0.132869 3.27276e-08 2.39776e-14)
(0.132869 3.13193e-08 2.40586e-14)
(0.132869 2.83602e-08 2.40347e-14)
(0.132869 2.40646e-08 2.40988e-14)
(0.132869 1.87528e-08 2.40906e-14)
(0.132869 1.28966e-08 2.40202e-14)
(0.132869 6.72775e-09 2.40936e-14)
(0.132869 1.46421e-09 2.40802e-14)
(0.132869 -3.6042e-09 2.4144e-14)
(0.132869 -3.13853e-09 2.4109e-14)
(0.132869 -4.59544e-09 2.40572e-14)
(0.132869 1.68437e-08 2.41244e-14)
(0.133694 -4.21376e-08 2.46159e-14)
(0.133694 -1.30202e-08 2.44895e-14)
(0.133694 2.26109e-09 2.45324e-14)
(0.133694 8.7685e-09 2.45846e-14)
(0.133694 9.40086e-09 2.4586e-14)
(0.133694 7.43809e-09 2.46281e-14)
(0.133694 4.09551e-09 2.44639e-14)
(0.133694 2.62119e-10 2.45551e-14)
(0.133694 -3.38531e-09 2.44055e-14)
(0.133694 -6.4348e-09 2.44786e-14)
(0.133694 -8.67707e-09 2.45575e-14)
(0.133694 -1.00256e-08 2.4431e-14)
(0.133694 -1.05045e-08 2.44931e-14)
(0.133694 -1.02052e-08 2.43147e-14)
(0.133694 -9.23192e-09 2.44083e-14)
(0.133694 -7.70209e-09 2.44701e-14)
(0.133694 -5.7478e-09 2.4304e-14)
(0.133694 -3.47959e-09 2.44025e-14)
(0.133694 -9.95139e-10 2.42901e-14)
(0.133694 1.58828e-09 2.4326e-14)
(0.133694 4.1772e-09 2.4399e-14)
(0.133694 6.72863e-09 2.42076e-14)
(0.133694 9.2042e-09 2.4351e-14)
(0.133694 1.15621e-08 2.42493e-14)
(0.133694 1.3797e-08 2.42766e-14)
(0.133694 1.59339e-08 2.43559e-14)
(0.133694 1.7981e-08 2.42367e-14)
(0.133694 1.99157e-08 2.42973e-14)
(0.133694 2.17102e-08 2.41941e-14)
(0.133694 2.33647e-08 2.42214e-14)
(0.133694 2.49081e-08 2.43016e-14)
(0.133694 2.63521e-08 2.41701e-14)
(0.133694 2.7686e-08 2.42472e-14)
(0.133694 2.89164e-08 2.41011e-14)
(0.133694 3.00477e-08 2.42057e-14)
(0.133694 3.10664e-08 2.42868e-14)
(0.133694 3.19415e-08 2.42834e-14)
(0.133694 3.26828e-08 2.41636e-14)
(0.133694 3.32738e-08 2.43161e-14)
(0.133694 3.36605e-08 2.43258e-14)
(0.133694 3.4096e-08 2.43751e-14)
(0.133694 3.37912e-08 2.43555e-14)
(0.133694 3.30259e-08 2.42184e-14)
(0.133694 3.22549e-08 2.43444e-14)
(0.133694 3.16654e-08 2.43474e-14)
(0.133694 3.20976e-08 2.4398e-14)
(0.133694 3.28546e-08 2.43761e-14)
(0.133694 3.30756e-08 2.42097e-14)
(0.133694 3.21818e-08 2.43772e-14)
(0.133694 2.99386e-08 2.43729e-14)
(0.133694 2.6395e-08 2.44296e-14)
(0.133694 2.177e-08 2.4423e-14)
(0.133694 1.64738e-08 2.42947e-14)
(0.133694 1.07487e-08 2.44225e-14)
(0.133694 5.72684e-09 2.44229e-14)
(0.133694 8.1114e-10 2.44758e-14)
(0.133694 1.0807e-09 2.44502e-14)
(0.133694 -1.0463e-09 2.43353e-14)
(0.133694 2.06328e-08 2.44655e-14)
(0.134497 -4.22257e-08 2.49058e-14)
(0.134497 -1.33581e-08 2.48377e-14)
(0.134497 1.60118e-09 2.48274e-14)
(0.134497 8.08643e-09 2.49225e-14)
(0.134497 8.94449e-09 2.49018e-14)
(0.134497 7.19659e-09 2.49122e-14)
(0.134497 3.99026e-09 2.48386e-14)
(0.134497 1.83392e-10 2.48527e-14)
(0.134497 -3.55917e-09 2.4783e-14)
(0.134497 -6.81165e-09 2.48051e-14)
(0.134497 -9.33081e-09 2.48393e-14)
(0.134497 -1.09954e-08 2.47711e-14)
(0.134497 -1.17944e-08 2.479e-14)
(0.134497 -1.17889e-08 2.47236e-14)
(0.134497 -1.10696e-08 2.47446e-14)
(0.134497 -9.74996e-09 2.47623e-14)
(0.134497 -7.95723e-09 2.46809e-14)
(0.134497 -5.80353e-09 2.47109e-14)
(0.134497 -3.39279e-09 2.46314e-14)
(0.134497 -8.45568e-10 2.46647e-14)
(0.134497 1.74307e-09 2.46894e-14)
(0.134497 4.32886e-09 2.46175e-14)
(0.134497 6.87099e-09 2.46606e-14)
(0.134497 9.3224e-09 2.4603e-14)
(0.134497 1.16751e-08 2.46205e-14)
(0.134497 1.39545e-08 2.46548e-14)
(0.134497 1.61655e-08 2.45913e-14)
(0.134497 1.82809e-08 2.46033e-14)
(0.134497 2.02697e-08 2.45453e-14)
(0.134497 2.21288e-08 2.45691e-14)
(0.134497 2.38832e-08 2.46003e-14)
(0.134497 2.55426e-08 2.45158e-14)
(0.134497 2.70954e-08 2.45581e-14)
(0.134497 2.85474e-08 2.45227e-14)
(0.134497 2.99019e-08 2.45418e-14)
(0.134497 3.11437e-08 2.45418e-14)
(0.134497 3.22434e-08 2.45848e-14)
(0.134497 3.32053e-08 2.45527e-14)
(0.134497 3.40172e-08 2.45984e-14)
(0.134497 3.46068e-08 2.46481e-14)
(0.134497 3.5213e-08 2.46305e-14)
(0.134497 3.51328e-08 2.46589e-14)
(0.134497 3.4554e-08 2.46048e-14)
(0.134497 3.38307e-08 2.46325e-14)
(0.134497 3.30901e-08 2.46729e-14)
(0.134497 3.31611e-08 2.46551e-14)
(0.134497 3.3603e-08 2.46824e-14)
(0.134497 3.37688e-08 2.46433e-14)
(0.134497 3.31292e-08 2.46613e-14)
(0.134497 3.13746e-08 2.47011e-14)
(0.134497 2.84257e-08 2.46904e-14)
(0.134497 2.43993e-08 2.47316e-14)
(0.134497 1.96255e-08 2.46955e-14)
(0.134497 1.43388e-08 2.47173e-14)
(0.134497 9.56164e-09 2.47534e-14)
(0.134497 4.80472e-09 2.47378e-14)
(0.134497 4.85929e-09 2.47679e-14)
(0.134497 1.96948e-09 2.47345e-14)
(0.134497 2.39603e-08 2.47616e-14)
(0.135279 -4.21518e-08 2.51943e-14)
(0.135279 -1.36288e-08 2.51688e-14)
(0.135279 8.17968e-10 2.51291e-14)
(0.135279 7.1049e-09 2.52237e-14)
(0.135279 8.08038e-09 2.52061e-14)
(0.135279 6.52533e-09 2.51987e-14)
(0.135279 3.5075e-09 2.5173e-14)
(0.135279 -1.68248e-10 2.51544e-14)
(0.135279 -3.87335e-09 2.51219e-14)
(0.135279 -7.19025e-09 2.51399e-14)
(0.135279 -9.85841e-09 2.51198e-14)
(0.135279 -1.17323e-08 2.51027e-14)
(0.135279 -1.27719e-08 2.50971e-14)
(0.135279 -1.30071e-08 2.50753e-14)
(0.135279 -1.25076e-08 2.50889e-14)
(0.135279 -1.13756e-08 2.5056e-14)
(0.135279 -9.7317e-09 2.50319e-14)
(0.135279 -7.68961e-09 2.50247e-14)
(0.135279 -5.35704e-09 2.49943e-14)
(0.135279 -2.85443e-09 2.50115e-14)
(0.135279 -2.76901e-10 2.49821e-14)
(0.135279 2.33112e-09 2.49671e-14)
(0.135279 4.92712e-09 2.49742e-14)
(0.135279 7.45898e-09 2.49535e-14)
(0.135279 9.91617e-09 2.49735e-14)
(0.135279 1.23249e-08 2.49532e-14)
(0.135279 1.46879e-08 2.49336e-14)
(0.135279 1.69721e-08 2.49213e-14)
(0.135279 1.91419e-08 2.4902e-14)
(0.135279 2.11926e-08 2.49215e-14)
(0.135279 2.31488e-08 2.48985e-14)
(0.135279 2.50179e-08 2.48733e-14)
(0.135279 2.67845e-08 2.48771e-14)
(0.135279 2.84515e-08 2.48683e-14)
(0.135279 3.00224e-08 2.48893e-14)
(0.135279 3.14826e-08 2.47996e-14)
(0.135279 3.28019e-08 2.48981e-14)
(0.135279 3.39799e-08 2.49234e-14)
(0.135279 3.50099e-08 2.48939e-14)
(0.135279 3.58056e-08 2.49759e-14)
(0.135279 3.65804e-08 2.48764e-14)
(0.135279 3.67145e-08 2.49678e-14)
(0.135279 3.6338e-08 2.49785e-14)
(0.135279 3.57291e-08 2.49291e-14)
(0.135279 3.49561e-08 2.50021e-14)
(0.135279 3.4779e-08 2.49012e-14)
(0.135279 3.49226e-08 2.49922e-14)
(0.135279 3.49248e-08 2.50023e-14)
(0.135279 3.43499e-08 2.49606e-14)
(0.135279 3.28794e-08 2.50349e-14)
(0.135279 3.03538e-08 2.49414e-14)
(0.135279 2.68042e-08 2.50435e-14)
(0.135279 2.24757e-08 2.5076e-14)
(0.135279 1.75837e-08 2.50251e-14)
(0.135279 1.30216e-08 2.50892e-14)
(0.135279 8.40071e-09 2.49905e-14)
(0.135279 8.20297e-09 2.50879e-14)
(0.135279 4.44673e-09 2.50984e-14)
(0.135279 2.6811e-08 2.50644e-14)
(0.136041 -4.19045e-08 2.54788e-14)
(0.136041 -1.3785e-08 2.549e-14)
(0.136041 -1.17063e-12 2.5423e-14)
(0.136041 5.92537e-09 2.55356e-14)
(0.136041 6.89425e-09 2.55077e-14)
(0.136041 5.475e-09 2.54818e-14)
(0.136041 2.6535e-09 2.54947e-14)
(0.136041 -8.32394e-10 2.54497e-14)
(0.136041 -4.40594e-09 2.5453e-14)
(0.136041 -7.67384e-09 2.54764e-14)
(0.136041 -1.03739e-08 2.53877e-14)
(0.136041 -1.23488e-08 2.54295e-14)
(0.136041 -1.35393e-08 2.54018e-14)
(0.136041 -1.39476e-08 2.54148e-14)
(0.136041 -1.36176e-08 2.54366e-14)
(0.136041 -1.26348e-08 2.53375e-14)
(0.136041 -1.1113e-08 2.53696e-14)
(0.136041 -9.16767e-09 2.53355e-14)
(0.136041 -6.90701e-09 2.53401e-14)
(0.136041 -4.4482e-09 2.53604e-14)
(0.136041 -1.8849e-09 2.52635e-14)
(0.136041 7.39647e-10 2.53047e-14)
(0.136041 3.38254e-09 2.52848e-14)
(0.136041 5.98716e-09 2.53002e-14)
(0.136041 8.53932e-09 2.53286e-14)
(0.136041 1.10657e-08 2.52388e-14)
(0.136041 1.35694e-08 2.52732e-14)
(0.136041 1.60115e-08 2.52379e-14)
(0.136041 1.83495e-08 2.52495e-14)
(0.136041 2.05788e-08 2.52753e-14)
(0.136041 2.27266e-08 2.51838e-14)
(0.136041 2.47989e-08 2.5217e-14)
(0.136041 2.67741e-08 2.51928e-14)
(0.136041 2.86492e-08 2.52113e-14)
(0.136041 3.04298e-08 2.52392e-14)
(0.136041 3.21024e-08 2.51113e-14)
(0.136041 3.36347e-08 2.51709e-14)
(0.136041 3.5023e-08 2.52592e-14)
(0.136041 3.62665e-08 2.5182e-14)
(0.136041 3.72682e-08 2.52438e-14)
(0.136041 3.82102e-08 2.51652e-14)
(0.136041 3.85492e-08 2.52325e-14)
(0.136041 3.83797e-08 2.53093e-14)
(0.136041 3.79245e-08 2.52166e-14)
(0.136041 3.72026e-08 2.52694e-14)
(0.136041 3.68811e-08 2.51892e-14)
(0.136041 3.67828e-08 2.5258e-14)
(0.136041 3.65859e-08 2.53409e-14)
(0.136041 3.59561e-08 2.5251e-14)
(0.136041 3.46082e-08 2.53088e-14)
(0.136041 3.2346e-08 2.52351e-14)
(0.136041 2.914e-08 2.5312e-14)
(0.136041 2.51557e-08 2.54144e-14)
(0.13604 2.05848e-08 2.53214e-14)
(0.13604 1.618e-08 2.53645e-14)