# y+ ()       
# Time        	patch         	min           	max           	average       
20000         	bottomWall	5.019253e-01	5.019366e-01	5.019326e-01
20000         	topWall	5.062324e-01	5.062507e-01	5.062418e-01
