/*--------------------------------*- C++ -*----------------------------------*\
  =========                 |
  \\      /  F ield         | OpenFOAM: The Open Source CFD Toolbox
   \\    /   O peration     | Website:  https://openfoam.org
    \\  /    A nd           | Version:  7
     \\/     M anipulation  |
\*---------------------------------------------------------------------------*/
FoamFile
{
    version     2.0;
    format      ascii;
    class       volScalarField;
    location    "500";
    object      k;
}
// * * * * * * * * * * * * * * * * * * * * * * * * * * * * * * * * * * * * * //

dimensions      [0 2 -2 0 0 0 0];

internalField   nonuniform List<scalar> 
24000
(
1.14673e-08
1.147e-08
1.14721e-08
1.1473e-08
1.14731e-08
1.14728e-08
1.14723e-08
1.14717e-08
1.14711e-08
1.14705e-08
1.147e-08
1.14695e-08
1.14691e-08
1.14688e-08
1.14685e-08
1.14682e-08
1.1468e-08
1.14679e-08
1.14678e-08
1.14678e-08
1.14678e-08
1.14679e-08
1.14679e-08
1.1468e-08
1.14682e-08
1.14683e-08
1.14684e-08
1.14685e-08
1.14686e-08
1.14687e-08
1.14687e-08
1.14688e-08
1.14688e-08
1.14688e-08
1.14687e-08
1.14687e-08
1.14686e-08
1.14686e-08
1.14685e-08
1.14684e-08
1.14682e-08
1.14681e-08
1.14679e-08
1.14676e-08
1.14673e-08
1.14669e-08
1.14665e-08
1.14659e-08
1.14654e-08
1.14648e-08
1.14643e-08
1.14638e-08
1.14633e-08
1.14629e-08
1.14625e-08
1.14622e-08
1.14619e-08
1.14617e-08
1.14616e-08
1.14615e-08
1.14615e-08
1.14616e-08
1.14617e-08
1.14618e-08
1.14621e-08
1.14623e-08
1.14626e-08
1.14629e-08
1.14632e-08
1.14636e-08
1.14639e-08
1.14642e-08
1.14645e-08
1.14648e-08
1.1465e-08
1.14653e-08
1.14656e-08
1.14658e-08
1.14661e-08
1.14663e-08
1.14665e-08
1.14668e-08
1.1467e-08
1.14672e-08
1.14675e-08
1.14677e-08
1.14679e-08
1.14681e-08
1.14684e-08
1.14686e-08
1.14689e-08
1.14691e-08
1.14693e-08
1.14694e-08
1.14696e-08
1.14697e-08
1.14699e-08
1.147e-08
1.14701e-08
1.14702e-08
1.14702e-08
1.14703e-08
1.14703e-08
1.14703e-08
1.14702e-08
1.14701e-08
1.14699e-08
1.14698e-08
1.14696e-08
1.14694e-08
1.14693e-08
1.14691e-08
1.1469e-08
1.14689e-08
1.14688e-08
1.14688e-08
1.14688e-08
1.14686e-08
1.14693e-08
1.14667e-08
3.68682e-07
3.6877e-07
3.68839e-07
3.68865e-07
3.68868e-07
3.68857e-07
3.6884e-07
3.68821e-07
3.68802e-07
3.68784e-07
3.68768e-07
3.68753e-07
3.6874e-07
3.68728e-07
3.68719e-07
3.68711e-07
3.68705e-07
3.68701e-07
3.68698e-07
3.68697e-07
3.68697e-07
3.68699e-07
3.68701e-07
3.68705e-07
3.68709e-07
3.68713e-07
3.68716e-07
3.6872e-07
3.68723e-07
3.68725e-07
3.68727e-07
3.68728e-07
3.68728e-07
3.68728e-07
3.68727e-07
3.68726e-07
3.68724e-07
3.68722e-07
3.68719e-07
3.68716e-07
3.68712e-07
3.68706e-07
3.687e-07
3.68692e-07
3.68681e-07
3.68669e-07
3.68654e-07
3.68638e-07
3.6862e-07
3.68601e-07
3.68584e-07
3.68568e-07
3.68553e-07
3.6854e-07
3.68528e-07
3.68517e-07
3.68509e-07
3.68502e-07
3.68498e-07
3.68495e-07
3.68495e-07
3.68496e-07
3.685e-07
3.68505e-07
3.68513e-07
3.68521e-07
3.6853e-07
3.6854e-07
3.6855e-07
3.68561e-07
3.68571e-07
3.68581e-07
3.6859e-07
3.68599e-07
3.68608e-07
3.68617e-07
3.68625e-07
3.68633e-07
3.68641e-07
3.68649e-07
3.68656e-07
3.68664e-07
3.68671e-07
3.68679e-07
3.68686e-07
3.68693e-07
3.687e-07
3.68707e-07
3.68715e-07
3.68723e-07
3.6873e-07
3.68737e-07
3.68744e-07
3.68749e-07
3.68754e-07
3.68758e-07
3.68763e-07
3.68766e-07
3.6877e-07
3.68772e-07
3.68775e-07
3.68776e-07
3.68777e-07
3.68776e-07
3.68773e-07
3.68769e-07
3.68766e-07
3.68761e-07
3.68755e-07
3.68749e-07
3.68743e-07
3.68738e-07
3.68734e-07
3.68731e-07
3.68728e-07
3.68728e-07
3.68728e-07
3.68724e-07
3.68746e-07
3.68664e-07
2.67252e-06
2.67312e-06
2.67361e-06
2.6738e-06
2.67382e-06
2.67375e-06
2.67362e-06
2.67348e-06
2.67335e-06
2.67322e-06
2.6731e-06
2.67299e-06
2.6729e-06
2.67282e-06
2.67275e-06
2.67269e-06
2.67265e-06
2.67262e-06
2.6726e-06
2.67259e-06
2.67259e-06
2.6726e-06
2.67262e-06
2.67264e-06
2.67267e-06
2.6727e-06
2.67273e-06
2.67276e-06
2.67278e-06
2.67279e-06
2.67281e-06
2.67281e-06
2.67282e-06
2.67281e-06
2.67281e-06
2.6728e-06
2.67279e-06
2.67277e-06
2.67275e-06
2.67273e-06
2.6727e-06
2.67266e-06
2.67261e-06
2.67256e-06
2.67248e-06
2.67239e-06
2.67229e-06
2.67217e-06
2.67204e-06
2.67191e-06
2.67178e-06
2.67166e-06
2.67156e-06
2.67146e-06
2.67137e-06
2.6713e-06
2.67124e-06
2.67119e-06
2.67115e-06
2.67113e-06
2.67113e-06
2.67114e-06
2.67117e-06
2.67121e-06
2.67126e-06
2.67132e-06
2.67138e-06
2.67146e-06
2.67153e-06
2.6716e-06
2.67168e-06
2.67175e-06
2.67182e-06
2.67189e-06
2.67195e-06
2.67201e-06
2.67207e-06
2.67213e-06
2.67218e-06
2.67224e-06
2.6723e-06
2.67235e-06
2.6724e-06
2.67246e-06
2.67251e-06
2.67256e-06
2.67261e-06
2.67266e-06
2.67272e-06
2.67277e-06
2.67283e-06
2.67288e-06
2.67293e-06
2.67296e-06
2.673e-06
2.67303e-06
2.67306e-06
2.67309e-06
2.67311e-06
2.67313e-06
2.67315e-06
2.67316e-06
2.67317e-06
2.67316e-06
2.67313e-06
2.67311e-06
2.67308e-06
2.67305e-06
2.67301e-06
2.67296e-06
2.67292e-06
2.67289e-06
2.67285e-06
2.67283e-06
2.67281e-06
2.67281e-06
2.67281e-06
2.67278e-06
2.67294e-06
2.67238e-06
9.78939e-06
9.79137e-06
9.79307e-06
9.79375e-06
9.79383e-06
9.79355e-06
9.79312e-06
9.79262e-06
9.79213e-06
9.79167e-06
9.79124e-06
9.79086e-06
9.79053e-06
9.79023e-06
9.78999e-06
9.78978e-06
9.78962e-06
9.78951e-06
9.78943e-06
9.7894e-06
9.7894e-06
9.78945e-06
9.78951e-06
9.7896e-06
9.7897e-06
9.78981e-06
9.78991e-06
9.79e-06
9.79008e-06
9.79014e-06
9.79019e-06
9.79021e-06
9.79023e-06
9.79023e-06
9.79021e-06
9.79018e-06
9.79014e-06
9.79009e-06
9.79002e-06
9.78993e-06
9.78981e-06
9.78968e-06
9.7895e-06
9.7893e-06
9.78903e-06
9.78871e-06
9.78834e-06
9.78792e-06
9.78746e-06
9.78697e-06
9.78652e-06
9.7861e-06
9.78571e-06
9.78536e-06
9.78505e-06
9.78478e-06
9.78455e-06
9.78437e-06
9.78425e-06
9.78418e-06
9.78417e-06
9.78421e-06
9.78431e-06
9.78445e-06
9.78463e-06
9.78485e-06
9.78509e-06
9.78535e-06
9.78562e-06
9.78589e-06
9.78616e-06
9.78642e-06
9.78667e-06
9.78691e-06
9.78714e-06
9.78736e-06
9.78758e-06
9.78779e-06
9.788e-06
9.7882e-06
9.7884e-06
9.7886e-06
9.78879e-06
9.78898e-06
9.78917e-06
9.78935e-06
9.78953e-06
9.78972e-06
9.78992e-06
9.79012e-06
9.79032e-06
9.79051e-06
9.79067e-06
9.79081e-06
9.79094e-06
9.79106e-06
9.79116e-06
9.79126e-06
9.79134e-06
9.79141e-06
9.79147e-06
9.7915e-06
9.79152e-06
9.79149e-06
9.79141e-06
9.79132e-06
9.79122e-06
9.79109e-06
9.79094e-06
9.79079e-06
9.79063e-06
9.7905e-06
9.79038e-06
9.79029e-06
9.79022e-06
9.7902e-06
9.79021e-06
9.7901e-06
9.79061e-06
9.78871e-06
2.43301e-05
2.43343e-05
2.4338e-05
2.43396e-05
2.43398e-05
2.43391e-05
2.43381e-05
2.4337e-05
2.43358e-05
2.43347e-05
2.43337e-05
2.43328e-05
2.4332e-05
2.43313e-05
2.43307e-05
2.43303e-05
2.43299e-05
2.43296e-05
2.43294e-05
2.43294e-05
2.43294e-05
2.43295e-05
2.43296e-05
2.43298e-05
2.433e-05
2.43303e-05
2.43305e-05
2.43307e-05
2.43309e-05
2.43311e-05
2.43312e-05
2.43313e-05
2.43313e-05
2.43313e-05
2.43313e-05
2.43312e-05
2.43311e-05
2.4331e-05
2.43309e-05
2.43306e-05
2.43304e-05
2.433e-05
2.43296e-05
2.43291e-05
2.43285e-05
2.43277e-05
2.43269e-05
2.43259e-05
2.43248e-05
2.43237e-05
2.43226e-05
2.43216e-05
2.43207e-05
2.43199e-05
2.43191e-05
2.43185e-05
2.43179e-05
2.43175e-05
2.43172e-05
2.43171e-05
2.43171e-05
2.43172e-05
2.43174e-05
2.43177e-05
2.43182e-05
2.43187e-05
2.43193e-05
2.43199e-05
2.43206e-05
2.43212e-05
2.43219e-05
2.43225e-05
2.43231e-05
2.43237e-05
2.43243e-05
2.43248e-05
2.43253e-05
2.43258e-05
2.43263e-05
2.43268e-05
2.43273e-05
2.43278e-05
2.43283e-05
2.43287e-05
2.43292e-05
2.43296e-05
2.43301e-05
2.43305e-05
2.4331e-05
2.43315e-05
2.43319e-05
2.43324e-05
2.43327e-05
2.43331e-05
2.43334e-05
2.43337e-05
2.43339e-05
2.43341e-05
2.43343e-05
2.43345e-05
2.43346e-05
2.43347e-05
2.43347e-05
2.43346e-05
2.43344e-05
2.43342e-05
2.43339e-05
2.43336e-05
2.43332e-05
2.43329e-05
2.43325e-05
2.43321e-05
2.43318e-05
2.43316e-05
2.43314e-05
2.43313e-05
2.43313e-05
2.43311e-05
2.43321e-05
2.4328e-05
4.59586e-05
4.59648e-05
4.59705e-05
4.59732e-05
4.59735e-05
4.59725e-05
4.59707e-05
4.59688e-05
4.59668e-05
4.59649e-05
4.59631e-05
4.59616e-05
4.59602e-05
4.59591e-05
4.5958e-05
4.59572e-05
4.59566e-05
4.59561e-05
4.59558e-05
4.59556e-05
4.59556e-05
4.59558e-05
4.5956e-05
4.59564e-05
4.59567e-05
4.59572e-05
4.59576e-05
4.59579e-05
4.59583e-05
4.59585e-05
4.59587e-05
4.59589e-05
4.5959e-05
4.5959e-05
4.5959e-05
4.59589e-05
4.59588e-05
4.59586e-05
4.59583e-05
4.59579e-05
4.59575e-05
4.59569e-05
4.59562e-05
4.59553e-05
4.59542e-05
4.59529e-05
4.59513e-05
4.59496e-05
4.59478e-05
4.59459e-05
4.5944e-05
4.59423e-05
4.59408e-05
4.59393e-05
4.59381e-05
4.5937e-05
4.5936e-05
4.59353e-05
4.59349e-05
4.59346e-05
4.59346e-05
4.59348e-05
4.59353e-05
4.59359e-05
4.59367e-05
4.59376e-05
4.59387e-05
4.59398e-05
4.5941e-05
4.59421e-05
4.59433e-05
4.59445e-05
4.59456e-05
4.59466e-05
4.59476e-05
4.59486e-05
4.59496e-05
4.59505e-05
4.59514e-05
4.59523e-05
4.59532e-05
4.59541e-05
4.59549e-05
4.59558e-05
4.59566e-05
4.59574e-05
4.59581e-05
4.59589e-05
4.59597e-05
4.59606e-05
4.59614e-05
4.59621e-05
4.59628e-05
4.59634e-05
4.59639e-05
4.59644e-05
4.59648e-05
4.59652e-05
4.59655e-05
4.59658e-05
4.59659e-05
4.5966e-05
4.5966e-05
4.59658e-05
4.59654e-05
4.5965e-05
4.59645e-05
4.59639e-05
4.59632e-05
4.59625e-05
4.59618e-05
4.59612e-05
4.59606e-05
4.59601e-05
4.59597e-05
4.59595e-05
4.59593e-05
4.59589e-05
4.59604e-05
4.59542e-05
7.06551e-05
7.06618e-05
7.06686e-05
7.06721e-05
7.06728e-05
7.06715e-05
7.06692e-05
7.06666e-05
7.06638e-05
7.06613e-05
7.06589e-05
7.06568e-05
7.06549e-05
7.06533e-05
7.06519e-05
7.06508e-05
7.06499e-05
7.06492e-05
7.06488e-05
7.06486e-05
7.06485e-05
7.06487e-05
7.0649e-05
7.06494e-05
7.06499e-05
7.06504e-05
7.0651e-05
7.06515e-05
7.06519e-05
7.06523e-05
7.06526e-05
7.06528e-05
7.0653e-05
7.0653e-05
7.0653e-05
7.0653e-05
7.06528e-05
7.06526e-05
7.06522e-05
7.06517e-05
7.06511e-05
7.06503e-05
7.06493e-05
7.06481e-05
7.06466e-05
7.06448e-05
7.06427e-05
7.06404e-05
7.06379e-05
7.06353e-05
7.06328e-05
7.06304e-05
7.06283e-05
7.06264e-05
7.06246e-05
7.06231e-05
7.06219e-05
7.0621e-05
7.06204e-05
7.06201e-05
7.06201e-05
7.06205e-05
7.06211e-05
7.06221e-05
7.06232e-05
7.06246e-05
7.06261e-05
7.06278e-05
7.06295e-05
7.06312e-05
7.06329e-05
7.06345e-05
7.06361e-05
7.06377e-05
7.06392e-05
7.06406e-05
7.06421e-05
7.06434e-05
7.06448e-05
7.06461e-05
7.06474e-05
7.06486e-05
7.06499e-05
7.06511e-05
7.06523e-05
7.06534e-05
7.06545e-05
7.06557e-05
7.06568e-05
7.0658e-05
7.06591e-05
7.06602e-05
7.06611e-05
7.06619e-05
7.06626e-05
7.06633e-05
7.06639e-05
7.06644e-05
7.06648e-05
7.0665e-05
7.06652e-05
7.06652e-05
7.06651e-05
7.06648e-05
7.06642e-05
7.06635e-05
7.06627e-05
7.06618e-05
7.06608e-05
7.06598e-05
7.06587e-05
7.06577e-05
7.06568e-05
7.0656e-05
7.06553e-05
7.06549e-05
7.06544e-05
7.06538e-05
7.06553e-05
7.06483e-05
9.39088e-05
9.39149e-05
9.39215e-05
9.39255e-05
9.39265e-05
9.39253e-05
9.39228e-05
9.39198e-05
9.39167e-05
9.39136e-05
9.39108e-05
9.39083e-05
9.39061e-05
9.39042e-05
9.39026e-05
9.39012e-05
9.39002e-05
9.38994e-05
9.38988e-05
9.38985e-05
9.38984e-05
9.38985e-05
9.38988e-05
9.38992e-05
9.38998e-05
9.39003e-05
9.39009e-05
9.39015e-05
9.3902e-05
9.39025e-05
9.39029e-05
9.39031e-05
9.39034e-05
9.39035e-05
9.39035e-05
9.39035e-05
9.39034e-05
9.39031e-05
9.39028e-05
9.39022e-05
9.39015e-05
9.39005e-05
9.38993e-05
9.38979e-05
9.38961e-05
9.38939e-05
9.38915e-05
9.38888e-05
9.38859e-05
9.38829e-05
9.38799e-05
9.38772e-05
9.38747e-05
9.38724e-05
9.38704e-05
9.38686e-05
9.38672e-05
9.38662e-05
9.38655e-05
9.38652e-05
9.38654e-05
9.38659e-05
9.38668e-05
9.3868e-05
9.38695e-05
9.38713e-05
9.38732e-05
9.38753e-05
9.38774e-05
9.38796e-05
9.38817e-05
9.38839e-05
9.38859e-05
9.38879e-05
9.38899e-05
9.38917e-05
9.38936e-05
9.38953e-05
9.38971e-05
9.38988e-05
9.39004e-05
9.39021e-05
9.39037e-05
9.39052e-05
9.39067e-05
9.39082e-05
9.39096e-05
9.3911e-05
9.39124e-05
9.39138e-05
9.39152e-05
9.39164e-05
9.39176e-05
9.39186e-05
9.39195e-05
9.39203e-05
9.39209e-05
9.39215e-05
9.39219e-05
9.39222e-05
9.39223e-05
9.39222e-05
9.39219e-05
9.39214e-05
9.39206e-05
9.39197e-05
9.39186e-05
9.39174e-05
9.39161e-05
9.39147e-05
9.39133e-05
9.3912e-05
9.39107e-05
9.39096e-05
9.39085e-05
9.39077e-05
9.39069e-05
9.3906e-05
9.39073e-05
9.39007e-05
0.000113297
0.000113301
0.000113307
0.000113311
0.000113312
0.000113311
0.000113309
0.000113306
0.000113303
0.0001133
0.000113297
0.000113294
0.000113291
0.000113289
0.000113288
0.000113286
0.000113285
0.000113284
0.000113283
0.000113283
0.000113283
0.000113283
0.000113283
0.000113283
0.000113284
0.000113284
0.000113285
0.000113286
0.000113286
0.000113287
0.000113287
0.000113287
0.000113288
0.000113288
0.000113288
0.000113288
0.000113288
0.000113288
0.000113287
0.000113287
0.000113286
0.000113285
0.000113284
0.000113282
0.00011328
0.000113278
0.000113275
0.000113272
0.000113269
0.000113266
0.000113263
0.00011326
0.000113257
0.000113255
0.000113252
0.000113251
0.000113249
0.000113248
0.000113247
0.000113247
0.000113248
0.000113248
0.000113249
0.000113251
0.000113253
0.000113255
0.000113257
0.00011326
0.000113262
0.000113265
0.000113267
0.00011327
0.000113272
0.000113275
0.000113277
0.000113279
0.000113281
0.000113283
0.000113286
0.000113288
0.00011329
0.000113292
0.000113293
0.000113295
0.000113297
0.000113299
0.0001133
0.000113302
0.000113304
0.000113305
0.000113307
0.000113308
0.00011331
0.000113311
0.000113312
0.000113313
0.000113313
0.000113314
0.000113314
0.000113315
0.000113315
0.000113314
0.000113314
0.000113313
0.000113312
0.000113311
0.00011331
0.000113308
0.000113306
0.000113305
0.000113303
0.000113301
0.0001133
0.000113298
0.000113297
0.000113296
0.000113295
0.000113293
0.000113294
0.000113289
0.000128298
0.000128301
0.000128305
0.000128309
0.000128311
0.00012831
0.000128308
0.000128306
0.000128302
0.000128299
0.000128296
0.000128293
0.000128291
0.000128289
0.000128287
0.000128285
0.000128284
0.000128283
0.000128282
0.000128282
0.000128281
0.000128281
0.000128281
0.000128282
0.000128282
0.000128283
0.000128283
0.000128283
0.000128284
0.000128284
0.000128285
0.000128285
0.000128285
0.000128286
0.000128286
0.000128286
0.000128286
0.000128286
0.000128286
0.000128285
0.000128284
0.000128283
0.000128282
0.00012828
0.000128278
0.000128276
0.000128273
0.00012827
0.000128267
0.000128264
0.000128261
0.000128258
0.000128255
0.000128252
0.00012825
0.000128248
0.000128247
0.000128246
0.000128245
0.000128245
0.000128246
0.000128247
0.000128248
0.00012825
0.000128252
0.000128254
0.000128257
0.00012826
0.000128263
0.000128265
0.000128268
0.000128271
0.000128274
0.000128277
0.000128279
0.000128282
0.000128285
0.000128287
0.000128289
0.000128292
0.000128294
0.000128296
0.000128299
0.000128301
0.000128303
0.000128305
0.000128307
0.000128309
0.00012831
0.000128312
0.000128314
0.000128315
0.000128317
0.000128318
0.000128319
0.00012832
0.000128321
0.000128321
0.000128322
0.000128322
0.000128322
0.000128321
0.000128321
0.00012832
0.000128319
0.000128317
0.000128316
0.000128314
0.000128312
0.00012831
0.000128308
0.000128306
0.000128304
0.000128302
0.0001283
0.000128299
0.000128297
0.000128296
0.000128296
0.000128292
0.000139294
0.000139295
0.000139298
0.000139301
0.000139303
0.000139303
0.000139301
0.000139299
0.000139296
0.000139293
0.00013929
0.000139287
0.000139285
0.000139283
0.000139281
0.000139279
0.000139278
0.000139277
0.000139276
0.000139275
0.000139275
0.000139274
0.000139274
0.000139275
0.000139275
0.000139275
0.000139275
0.000139276
0.000139276
0.000139277
0.000139277
0.000139277
0.000139278
0.000139278
0.000139278
0.000139278
0.000139278
0.000139278
0.000139278
0.000139277
0.000139277
0.000139276
0.000139274
0.000139273
0.000139271
0.000139268
0.000139266
0.000139263
0.00013926
0.000139257
0.000139253
0.00013925
0.000139248
0.000139245
0.000139243
0.000139241
0.00013924
0.000139239
0.000139239
0.000139239
0.000139239
0.000139241
0.000139242
0.000139244
0.000139247
0.00013925
0.000139253
0.000139256
0.000139259
0.000139262
0.000139265
0.000139268
0.000139271
0.000139275
0.000139278
0.00013928
0.000139283
0.000139286
0.000139289
0.000139292
0.000139294
0.000139297
0.000139299
0.000139302
0.000139304
0.000139306
0.000139309
0.000139311
0.000139313
0.000139315
0.000139316
0.000139318
0.00013932
0.000139321
0.000139322
0.000139323
0.000139324
0.000139325
0.000139325
0.000139325
0.000139325
0.000139324
0.000139323
0.000139322
0.000139321
0.000139319
0.000139317
0.000139315
0.000139313
0.000139311
0.000139308
0.000139306
0.000139304
0.000139301
0.000139299
0.000139297
0.000139296
0.000139294
0.000139293
0.00013929
0.000146919
0.000146918
0.00014692
0.000146922
0.000146923
0.000146924
0.000146923
0.000146921
0.000146918
0.000146916
0.000146913
0.00014691
0.000146908
0.000146905
0.000146903
0.000146902
0.0001469
0.000146899
0.000146898
0.000146898
0.000146897
0.000146897
0.000146896
0.000146896
0.000146896
0.000146897
0.000146897
0.000146897
0.000146897
0.000146897
0.000146898
0.000146898
0.000146898
0.000146898
0.000146899
0.000146899
0.000146899
0.000146899
0.000146899
0.000146898
0.000146898
0.000146897
0.000146895
0.000146894
0.000146892
0.00014689
0.000146887
0.000146884
0.000146881
0.000146878
0.000146875
0.000146872
0.00014687
0.000146867
0.000146865
0.000146863
0.000146862
0.000146862
0.000146861
0.000146862
0.000146863
0.000146865
0.000146867
0.000146869
0.000146872
0.000146875
0.000146878
0.000146881
0.000146885
0.000146888
0.000146892
0.000146895
0.000146899
0.000146902
0.000146905
0.000146909
0.000146912
0.000146915
0.000146918
0.000146921
0.000146924
0.000146927
0.00014693
0.000146933
0.000146935
0.000146938
0.00014694
0.000146942
0.000146945
0.000146947
0.000146949
0.000146951
0.000146952
0.000146954
0.000146955
0.000146956
0.000146957
0.000146957
0.000146958
0.000146957
0.000146957
0.000146956
0.000146955
0.000146954
0.000146952
0.00014695
0.000146948
0.000146946
0.000146944
0.000146941
0.000146938
0.000146936
0.000146933
0.000146931
0.000146928
0.000146926
0.000146924
0.000146922
0.00014692
0.000146919
0.000151792
0.00015179
0.00015179
0.000151791
0.000151792
0.000151793
0.000151792
0.000151791
0.000151789
0.000151786
0.000151784
0.000151781
0.000151779
0.000151777
0.000151775
0.000151773
0.000151772
0.00015177
0.000151769
0.000151768
0.000151768
0.000151767
0.000151767
0.000151766
0.000151766
0.000151766
0.000151766
0.000151766
0.000151766
0.000151766
0.000151766
0.000151767
0.000151767
0.000151767
0.000151767
0.000151767
0.000151767
0.000151767
0.000151767
0.000151767
0.000151766
0.000151765
0.000151764
0.000151763
0.000151761
0.000151759
0.000151756
0.000151754
0.000151751
0.000151748
0.000151745
0.000151742
0.00015174
0.000151737
0.000151736
0.000151734
0.000151733
0.000151733
0.000151733
0.000151734
0.000151735
0.000151737
0.000151739
0.000151742
0.000151745
0.000151748
0.000151752
0.000151756
0.000151759
0.000151763
0.000151767
0.000151771
0.000151774
0.000151778
0.000151782
0.000151785
0.000151789
0.000151792
0.000151796
0.000151799
0.000151803
0.000151806
0.000151809
0.000151812
0.000151815
0.000151818
0.00015182
0.000151823
0.000151825
0.000151828
0.00015183
0.000151832
0.000151834
0.000151835
0.000151837
0.000151838
0.000151839
0.000151839
0.000151839
0.000151839
0.000151838
0.000151837
0.000151836
0.000151835
0.000151833
0.000151831
0.000151828
0.000151826
0.000151823
0.000151821
0.000151818
0.000151815
0.000151812
0.000151809
0.000151807
0.000151804
0.000151801
0.000151799
0.000151797
0.000151796
0.000154438
0.000154434
0.000154433
0.000154434
0.000154435
0.000154435
0.000154434
0.000154433
0.000154432
0.00015443
0.000154428
0.000154425
0.000154423
0.000154421
0.000154419
0.000154417
0.000154416
0.000154415
0.000154413
0.000154412
0.000154412
0.000154411
0.00015441
0.00015441
0.000154409
0.000154409
0.000154409
0.000154408
0.000154408
0.000154408
0.000154408
0.000154408
0.000154408
0.000154408
0.000154408
0.000154409
0.000154409
0.000154409
0.000154408
0.000154408
0.000154408
0.000154407
0.000154406
0.000154404
0.000154403
0.000154401
0.000154398
0.000154396
0.000154393
0.000154391
0.000154388
0.000154385
0.000154383
0.000154381
0.000154379
0.000154378
0.000154377
0.000154377
0.000154378
0.000154379
0.000154381
0.000154383
0.000154386
0.000154389
0.000154392
0.000154396
0.000154399
0.000154403
0.000154407
0.000154411
0.000154415
0.000154419
0.000154423
0.000154427
0.000154431
0.000154435
0.000154439
0.000154443
0.000154447
0.000154451
0.000154454
0.000154458
0.000154461
0.000154465
0.000154468
0.000154471
0.000154474
0.000154477
0.000154479
0.000154482
0.000154484
0.000154487
0.000154489
0.00015449
0.000154492
0.000154493
0.000154494
0.000154494
0.000154494
0.000154494
0.000154493
0.000154492
0.000154491
0.000154489
0.000154487
0.000154485
0.000154482
0.000154479
0.000154477
0.000154474
0.000154471
0.000154468
0.000154465
0.000154462
0.000154459
0.000154456
0.000154453
0.00015445
0.000154448
0.000154448
0.000155282
0.000155276
0.000155274
0.000155274
0.000155274
0.000155274
0.000155274
0.000155273
0.000155272
0.00015527
0.000155268
0.000155266
0.000155264
0.000155262
0.000155261
0.000155259
0.000155257
0.000155256
0.000155255
0.000155254
0.000155253
0.000155252
0.000155251
0.00015525
0.00015525
0.000155249
0.000155248
0.000155248
0.000155247
0.000155247
0.000155247
0.000155247
0.000155247
0.000155247
0.000155247
0.000155247
0.000155247
0.000155247
0.000155246
0.000155246
0.000155245
0.000155245
0.000155244
0.000155242
0.000155241
0.000155239
0.000155237
0.000155235
0.000155232
0.00015523
0.000155228
0.000155225
0.000155223
0.000155221
0.00015522
0.000155219
0.000155219
0.000155219
0.00015522
0.000155221
0.000155224
0.000155226
0.000155229
0.000155233
0.000155236
0.00015524
0.000155244
0.000155248
0.000155253
0.000155257
0.000155261
0.000155265
0.00015527
0.000155274
0.000155278
0.000155282
0.000155287
0.000155291
0.000155295
0.000155299
0.000155303
0.000155307
0.000155311
0.000155314
0.000155318
0.000155321
0.000155325
0.000155328
0.000155331
0.000155333
0.000155336
0.000155338
0.000155341
0.000155342
0.000155344
0.000155345
0.000155346
0.000155346
0.000155346
0.000155346
0.000155345
0.000155344
0.000155342
0.00015534
0.000155338
0.000155336
0.000155333
0.00015533
0.000155327
0.000155324
0.000155321
0.000155318
0.000155315
0.000155312
0.000155308
0.000155305
0.000155302
0.000155299
0.000155296
0.000155297
0.000154661
0.000154653
0.000154651
0.00015465
0.00015465
0.00015465
0.000154649
0.000154648
0.000154647
0.000154646
0.000154644
0.000154643
0.000154641
0.000154639
0.000154637
0.000154636
0.000154634
0.000154633
0.000154631
0.00015463
0.000154629
0.000154628
0.000154627
0.000154626
0.000154625
0.000154624
0.000154623
0.000154623
0.000154622
0.000154621
0.000154621
0.00015462
0.00015462
0.00015462
0.00015462
0.00015462
0.00015462
0.000154619
0.000154619
0.000154619
0.000154618
0.000154617
0.000154616
0.000154615
0.000154614
0.000154612
0.00015461
0.000154608
0.000154606
0.000154604
0.000154602
0.0001546
0.000154598
0.000154596
0.000154595
0.000154595
0.000154595
0.000154596
0.000154597
0.000154599
0.000154602
0.000154605
0.000154608
0.000154612
0.000154616
0.00015462
0.000154624
0.000154628
0.000154633
0.000154637
0.000154642
0.000154646
0.000154651
0.000154655
0.00015466
0.000154664
0.000154669
0.000154673
0.000154678
0.000154682
0.000154686
0.000154691
0.000154695
0.000154699
0.000154703
0.000154706
0.00015471
0.000154713
0.000154716
0.000154719
0.000154722
0.000154725
0.000154727
0.000154729
0.000154731
0.000154732
0.000154733
0.000154733
0.000154733
0.000154733
0.000154732
0.00015473
0.000154729
0.000154727
0.000154724
0.000154722
0.000154719
0.000154716
0.000154713
0.00015471
0.000154707
0.000154704
0.0001547
0.000154697
0.000154694
0.00015469
0.000154687
0.000154684
0.00015468
0.000154682
0.000152846
0.000152837
0.000152834
0.000152833
0.000152832
0.000152832
0.000152831
0.00015283
0.000152829
0.000152828
0.000152827
0.000152825
0.000152824
0.000152822
0.00015282
0.000152819
0.000152817
0.000152816
0.000152814
0.000152813
0.000152812
0.000152811
0.000152809
0.000152808
0.000152807
0.000152806
0.000152805
0.000152804
0.000152803
0.000152802
0.000152801
0.000152801
0.0001528
0.0001528
0.000152799
0.000152799
0.000152799
0.000152799
0.000152798
0.000152798
0.000152797
0.000152796
0.000152795
0.000152794
0.000152793
0.000152791
0.00015279
0.000152788
0.000152786
0.000152784
0.000152782
0.00015278
0.000152779
0.000152778
0.000152777
0.000152777
0.000152778
0.000152779
0.000152781
0.000152783
0.000152786
0.00015279
0.000152793
0.000152797
0.000152802
0.000152806
0.00015281
0.000152815
0.000152819
0.000152824
0.000152829
0.000152833
0.000152838
0.000152843
0.000152847
0.000152852
0.000152857
0.000152862
0.000152866
0.000152871
0.000152876
0.00015288
0.000152884
0.000152889
0.000152893
0.000152897
0.000152901
0.000152905
0.000152908
0.000152911
0.000152914
0.000152917
0.00015292
0.000152922
0.000152924
0.000152925
0.000152926
0.000152926
0.000152926
0.000152925
0.000152924
0.000152923
0.000152921
0.000152919
0.000152916
0.000152914
0.000152911
0.000152908
0.000152905
0.000152902
0.000152899
0.000152896
0.000152892
0.000152889
0.000152886
0.000152882
0.000152879
0.000152875
0.000152871
0.000152874
0.000150059
0.000150049
0.000150045
0.000150043
0.000150042
0.000150041
0.00015004
0.00015004
0.000150039
0.000150038
0.000150036
0.000150035
0.000150034
0.000150032
0.00015003
0.000150029
0.000150027
0.000150026
0.000150025
0.000150023
0.000150022
0.00015002
0.000150019
0.000150017
0.000150016
0.000150015
0.000150013
0.000150012
0.000150011
0.00015001
0.000150009
0.000150008
0.000150007
0.000150007
0.000150006
0.000150006
0.000150005
0.000150005
0.000150004
0.000150004
0.000150003
0.000150002
0.000150001
0.00015
0.000149999
0.000149997
0.000149996
0.000149994
0.000149992
0.000149991
0.000149989
0.000149987
0.000149986
0.000149986
0.000149985
0.000149986
0.000149987
0.000149989
0.000149992
0.000149994
0.000149998
0.000150002
0.000150006
0.00015001
0.000150014
0.000150019
0.000150023
0.000150028
0.000150032
0.000150037
0.000150042
0.000150047
0.000150052
0.000150056
0.000150061
0.000150066
0.000150071
0.000150076
0.000150081
0.000150086
0.000150091
0.000150096
0.0001501
0.000150105
0.000150109
0.000150114
0.000150118
0.000150122
0.000150126
0.000150129
0.000150132
0.000150135
0.000150138
0.00015014
0.000150142
0.000150143
0.000150144
0.000150144
0.000150144
0.000150143
0.000150142
0.000150141
0.000150139
0.000150137
0.000150135
0.000150132
0.00015013
0.000150127
0.000150124
0.000150121
0.000150118
0.000150114
0.000150111
0.000150108
0.000150104
0.000150101
0.000150097
0.000150094
0.000150089
0.000150093
0.000146481
0.00014647
0.000146465
0.000146463
0.000146462
0.000146461
0.00014646
0.000146459
0.000146458
0.000146457
0.000146456
0.000146455
0.000146453
0.000146452
0.00014645
0.000146449
0.000146447
0.000146446
0.000146444
0.000146443
0.000146441
0.00014644
0.000146438
0.000146437
0.000146435
0.000146433
0.000146432
0.00014643
0.000146429
0.000146427
0.000146426
0.000146425
0.000146424
0.000146423
0.000146423
0.000146422
0.000146421
0.000146421
0.00014642
0.000146419
0.000146418
0.000146418
0.000146416
0.000146415
0.000146414
0.000146412
0.000146411
0.00014641
0.000146408
0.000146407
0.000146405
0.000146404
0.000146403
0.000146403
0.000146404
0.000146405
0.000146407
0.000146409
0.000146412
0.000146415
0.000146419
0.000146423
0.000146427
0.000146431
0.000146436
0.000146441
0.000146445
0.00014645
0.000146455
0.000146459
0.000146464
0.000146469
0.000146474
0.000146479
0.000146484
0.000146489
0.000146494
0.000146499
0.000146504
0.00014651
0.000146515
0.00014652
0.000146525
0.000146529
0.000146534
0.000146539
0.000146543
0.000146547
0.000146552
0.000146555
0.000146559
0.000146562
0.000146565
0.000146567
0.000146569
0.00014657
0.000146571
0.000146571
0.000146571
0.00014657
0.000146569
0.000146568
0.000146566
0.000146564
0.000146562
0.000146559
0.000146557
0.000146554
0.000146551
0.000146549
0.000146546
0.000146542
0.000146539
0.000146536
0.000146533
0.000146529
0.000146525
0.000146522
0.000146517
0.000146522
0.000142268
0.000142255
0.00014225
0.000142248
0.000142247
0.000142245
0.000142244
0.000142243
0.000142242
0.000142241
0.00014224
0.000142239
0.000142238
0.000142236
0.000142235
0.000142233
0.000142232
0.00014223
0.000142229
0.000142227
0.000142226
0.000142224
0.000142222
0.00014222
0.000142219
0.000142217
0.000142215
0.000142213
0.000142211
0.00014221
0.000142208
0.000142207
0.000142206
0.000142205
0.000142204
0.000142203
0.000142202
0.000142201
0.0001422
0.0001422
0.000142199
0.000142197
0.000142196
0.000142195
0.000142194
0.000142192
0.000142191
0.000142189
0.000142188
0.000142187
0.000142186
0.000142185
0.000142185
0.000142185
0.000142186
0.000142188
0.00014219
0.000142193
0.000142196
0.0001422
0.000142204
0.000142208
0.000142213
0.000142217
0.000142222
0.000142226
0.000142231
0.000142236
0.00014224
0.000142245
0.00014225
0.000142255
0.00014226
0.000142265
0.00014227
0.000142275
0.00014228
0.000142286
0.000142291
0.000142296
0.000142301
0.000142307
0.000142312
0.000142317
0.000142322
0.000142327
0.000142331
0.000142336
0.00014234
0.000142344
0.000142348
0.000142351
0.000142354
0.000142357
0.000142358
0.00014236
0.00014236
0.00014236
0.00014236
0.00014236
0.000142358
0.000142357
0.000142356
0.000142354
0.000142352
0.00014235
0.000142347
0.000142345
0.000142342
0.00014234
0.000142337
0.000142334
0.000142331
0.000142328
0.000142325
0.000142321
0.000142318
0.000142315
0.000142309
0.000142315
0.000137553
0.000137539
0.000137534
0.000137531
0.00013753
0.000137528
0.000137527
0.000137526
0.000137525
0.000137524
0.000137523
0.000137522
0.00013752
0.000137519
0.000137518
0.000137516
0.000137515
0.000137513
0.000137512
0.00013751
0.000137508
0.000137506
0.000137505
0.000137503
0.000137501
0.000137499
0.000137497
0.000137495
0.000137493
0.000137491
0.000137489
0.000137488
0.000137486
0.000137485
0.000137484
0.000137483
0.000137482
0.000137481
0.000137479
0.000137478
0.000137477
0.000137476
0.000137474
0.000137473
0.000137472
0.00013747
0.000137469
0.000137468
0.000137466
0.000137465
0.000137464
0.000137464
0.000137464
0.000137465
0.000137467
0.000137469
0.000137472
0.000137475
0.000137479
0.000137483
0.000137487
0.000137491
0.000137496
0.0001375