/*--------------------------------*- C++ -*----------------------------------*\
  =========                 |
  \\      /  F ield         | OpenFOAM: The Open Source CFD Toolbox
   \\    /   O peration     | Website:  https://openfoam.org
    \\  /    A nd           | Version:  7
     \\/     M anipulation  |
\*---------------------------------------------------------------------------*/
FoamFile
{
    version     2.0;
    format      ascii;
    class       volScalarField;
    location    "500";
    object      nut;
}
// * * * * * * * * * * * * * * * * * * * * * * * * * * * * * * * * * * * * * //

dimensions      [0 2 -1 0 0 0 0];

internalField   nonuniform List<scalar> 
24000
(
1.14757e-11
1.14784e-11
1.14805e-11
1.14814e-11
1.14815e-11
1.14812e-11
1.14807e-11
1.14801e-11
1.14795e-11
1.14789e-11
1.14784e-11
1.14779e-11
1.14775e-11
1.14772e-11
1.14769e-11
1.14766e-11
1.14764e-11
1.14763e-11
1.14762e-11
1.14762e-11
1.14762e-11
1.14762e-11
1.14763e-11
1.14764e-11
1.14766e-11
1.14767e-11
1.14768e-11
1.14769e-11
1.1477e-11
1.14771e-11
1.14771e-11
1.14771e-11
1.14772e-11
1.14772e-11
1.14771e-11
1.14771e-11
1.1477e-11
1.1477e-11
1.14769e-11
1.14768e-11
1.14766e-11
1.14765e-11
1.14763e-11
1.1476e-11
1.14757e-11
1.14753e-11
1.14748e-11
1.14743e-11
1.14738e-11
1.14732e-11
1.14726e-11
1.14722e-11
1.14717e-11
1.14713e-11
1.14709e-11
1.14706e-11
1.14703e-11
1.14701e-11
1.147e-11
1.14699e-11
1.14699e-11
1.14699e-11
1.14701e-11
1.14702e-11
1.14704e-11
1.14707e-11
1.1471e-11
1.14713e-11
1.14716e-11
1.14719e-11
1.14723e-11
1.14726e-11
1.14729e-11
1.14732e-11
1.14734e-11
1.14737e-11
1.1474e-11
1.14742e-11
1.14745e-11
1.14747e-11
1.14749e-11
1.14752e-11
1.14754e-11
1.14756e-11
1.14759e-11
1.14761e-11
1.14763e-11
1.14765e-11
1.14768e-11
1.1477e-11
1.14773e-11
1.14775e-11
1.14777e-11
1.14778e-11
1.1478e-11
1.14781e-11
1.14783e-11
1.14784e-11
1.14785e-11
1.14786e-11
1.14786e-11
1.14787e-11
1.14787e-11
1.14787e-11
1.14786e-11
1.14785e-11
1.14783e-11
1.14782e-11
1.1478e-11
1.14778e-11
1.14776e-11
1.14775e-11
1.14773e-11
1.14772e-11
1.14772e-11
1.14772e-11
1.14772e-11
1.1477e-11
1.14777e-11
1.14751e-11
2.12712e-09
2.12765e-09
2.12804e-09
2.12819e-09
2.12821e-09
2.12815e-09
2.12805e-09
2.12794e-09
2.12783e-09
2.12772e-09
2.12763e-09
2.12754e-09
2.12747e-09
2.1274e-09
2.12735e-09
2.1273e-09
2.12727e-09
2.12724e-09
2.12723e-09
2.12722e-09
2.12722e-09
2.12723e-09
2.12725e-09
2.12727e-09
2.12729e-09
2.12731e-09
2.12733e-09
2.12735e-09
2.12737e-09
2.12738e-09
2.12739e-09
2.1274e-09
2.1274e-09
2.1274e-09
2.12739e-09
2.12739e-09
2.12738e-09
2.12737e-09
2.12735e-09
2.12733e-09
2.1273e-09
2.12727e-09
2.12724e-09
2.12719e-09
2.12713e-09
2.12706e-09
2.12697e-09
2.12688e-09
2.12678e-09
2.12667e-09
2.12657e-09
2.12648e-09
2.12639e-09
2.12631e-09
2.12625e-09
2.12619e-09
2.12614e-09
2.1261e-09
2.12607e-09
2.12606e-09
2.12606e-09
2.12607e-09
2.12609e-09
2.12612e-09
2.12616e-09
2.12621e-09
2.12626e-09
2.12632e-09
2.12638e-09
2.12644e-09
2.12649e-09
2.12655e-09
2.12661e-09
2.12666e-09
2.12671e-09
2.12676e-09
2.12681e-09
2.12685e-09
2.1269e-09
2.12694e-09
2.12699e-09
2.12703e-09
2.12708e-09
2.12712e-09
2.12716e-09
2.1272e-09
2.12724e-09
2.12728e-09
2.12733e-09
2.12737e-09
2.12742e-09
2.12746e-09
2.12749e-09
2.12752e-09
2.12755e-09
2.12758e-09
2.1276e-09
2.12762e-09
2.12764e-09
2.12766e-09
2.12767e-09
2.12768e-09
2.12768e-09
2.12768e-09
2.12766e-09
2.12764e-09
2.12762e-09
2.12759e-09
2.12756e-09
2.12752e-09
2.12749e-09
2.12746e-09
2.12743e-09
2.12742e-09
2.1274e-09
2.1274e-09
2.1274e-09
2.12738e-09
2.1275e-09
2.12701e-09
4.51449e-08
4.51555e-08
4.51639e-08
4.51668e-08
4.51671e-08
4.51656e-08
4.51635e-08
4.51611e-08
4.51588e-08
4.51566e-08
4.51546e-08
4.51528e-08
4.51512e-08
4.51499e-08
4.51487e-08
4.51478e-08
4.5147e-08
4.51465e-08
4.51461e-08
4.5146e-08
4.5146e-08
4.51462e-08
4.51466e-08
4.5147e-08
4.51474e-08
4.51479e-08
4.51484e-08
4.51488e-08
4.51492e-08
4.51494e-08
4.51496e-08
4.51497e-08
4.51498e-08
4.51498e-08
4.51497e-08
4.51496e-08
4.51494e-08
4.51491e-08
4.51488e-08
4.51484e-08
4.51478e-08
4.51472e-08
4.51464e-08
4.51455e-08
4.51442e-08
4.51427e-08
4.5141e-08
4.5139e-08
4.51369e-08
4.51346e-08
4.51325e-08
4.51306e-08
4.51288e-08
4.51272e-08
4.51257e-08
4.51245e-08
4.51234e-08
4.51226e-08
4.5122e-08
4.51217e-08
4.51217e-08
4.51219e-08
4.51223e-08
4.5123e-08
4.51238e-08
4.51249e-08
4.5126e-08
4.51272e-08
4.51284e-08
4.51297e-08
4.51309e-08
4.51321e-08
4.51333e-08
4.51344e-08
4.51355e-08
4.51365e-08
4.51375e-08
4.51385e-08
4.51395e-08
4.51404e-08
4.51414e-08
4.51423e-08
4.51432e-08
4.51441e-08
4.5145e-08
4.51458e-08
4.51466e-08
4.51475e-08
4.51485e-08
4.51494e-08
4.51504e-08
4.51512e-08
4.5152e-08
4.51526e-08
4.51532e-08
4.51538e-08
4.51543e-08
4.51547e-08
4.51551e-08
4.51554e-08
4.51557e-08
4.51559e-08
4.5156e-08
4.51558e-08
4.51554e-08
4.5155e-08
4.51546e-08
4.51539e-08
4.51533e-08
4.51525e-08
4.51518e-08
4.51512e-08
4.51507e-08
4.51503e-08
4.515e-08
4.51499e-08
4.515e-08
4.51494e-08
4.51521e-08
4.51426e-08
3.36633e-07
3.36709e-07
3.36773e-07
3.36794e-07
3.36794e-07
3.36783e-07
3.36767e-07
3.36749e-07
3.36731e-07
3.36715e-07
3.367e-07
3.36687e-07
3.36676e-07
3.36666e-07
3.36658e-07
3.36651e-07
3.36646e-07
3.36642e-07
3.3664e-07
3.36638e-07
3.36639e-07
3.3664e-07
3.36643e-07
3.36646e-07
3.36649e-07
3.36652e-07
3.36655e-07
3.36658e-07
3.36661e-07
3.36663e-07
3.36664e-07
3.36665e-07
3.36665e-07
3.36665e-07
3.36665e-07
3.36664e-07
3.36662e-07
3.36661e-07
3.36658e-07
3.36655e-07
3.36652e-07
3.36647e-07
3.36642e-07
3.36635e-07
3.36626e-07
3.36615e-07
3.36602e-07
3.36588e-07
3.36573e-07
3.36557e-07
3.36542e-07
3.36528e-07
3.36515e-07
3.36504e-07
3.36493e-07
3.36485e-07
3.36477e-07
3.36472e-07
3.36468e-07
3.36466e-07
3.36465e-07
3.36467e-07
3.3647e-07
3.36475e-07
3.36482e-07
3.36489e-07
3.36497e-07
3.36506e-07
3.36515e-07
3.36525e-07
3.36534e-07
3.36543e-07
3.36551e-07
3.36559e-07
3.36567e-07
3.36575e-07
3.36582e-07
3.36589e-07
3.36597e-07
3.36604e-07
3.36611e-07
3.36617e-07
3.36624e-07
3.36631e-07
3.36637e-07
3.36644e-07
3.3665e-07
3.36656e-07
3.36663e-07
3.3667e-07
3.36677e-07
3.36684e-07
3.36689e-07
3.36694e-07
3.36698e-07
3.36702e-07
3.36705e-07
3.36708e-07
3.36711e-07
3.36714e-07
3.36715e-07
3.36716e-07
3.36717e-07
3.36716e-07
3.36713e-07
3.36709e-07
3.36706e-07
3.36701e-07
3.36696e-07
3.36691e-07
3.36685e-07
3.36681e-07
3.36676e-07
3.36674e-07
3.36671e-07
3.36671e-07
3.36671e-07
3.36666e-07
3.36685e-07
3.36616e-07
1.35767e-06
1.35794e-06
1.3582e-06
1.3583e-06
1.3583e-06
1.35825e-06
1.35819e-06
1.35811e-06
1.35804e-06
1.35798e-06
1.35792e-06
1.35787e-06
1.35783e-06
1.35779e-06
1.35776e-06
1.35773e-06
1.35771e-06
1.3577e-06
1.35769e-06
1.35769e-06
1.35769e-06
1.35769e-06
1.3577e-06
1.35771e-06
1.35772e-06
1.35774e-06
1.35775e-06
1.35776e-06
1.35777e-06
1.35777e-06
1.35778e-06
1.35778e-06
1.35778e-06
1.35778e-06
1.35778e-06
1.35778e-06
1.35777e-06
1.35776e-06
1.35776e-06
1.35775e-06
1.35773e-06
1.35772e-06
1.3577e-06
1.35767e-06
1.35764e-06
1.3576e-06
1.35755e-06
1.35749e-06
1.35744e-06
1.35738e-06
1.35732e-06
1.35727e-06
1.35722e-06
1.35718e-06
1.35715e-06
1.35711e-06
1.35709e-06
1.35707e-06
1.35705e-06
1.35705e-06
1.35705e-06
1.35706e-06
1.35707e-06
1.35709e-06
1.35712e-06
1.35715e-06
1.35718e-06
1.35721e-06
1.35725e-06
1.35728e-06
1.35732e-06
1.35735e-06
1.35739e-06
1.35742e-06
1.35745e-06
1.35748e-06
1.35751e-06
1.35754e-06
1.35757e-06
1.3576e-06
1.35762e-06
1.35765e-06
1.35768e-06
1.35771e-06
1.35773e-06
1.35776e-06
1.35778e-06
1.35781e-06
1.35783e-06
1.35786e-06
1.35789e-06
1.35791e-06
1.35793e-06
1.35795e-06
1.35797e-06
1.35798e-06
1.358e-06
1.35801e-06
1.35802e-06
1.35803e-06
1.35803e-06
1.35804e-06
1.35804e-06
1.35803e-06
1.35802e-06
1.358e-06
1.35799e-06
1.35797e-06
1.35795e-06
1.35793e-06
1.35791e-06
1.35789e-06
1.35787e-06
1.35786e-06
1.35784e-06
1.35784e-06
1.35784e-06
1.35782e-06
1.35789e-06
1.35763e-06
3.61328e-06
3.61383e-06
3.61445e-06
3.61475e-06
3.61479e-06
3.61469e-06
3.61453e-06
3.61435e-06
3.61417e-06
3.614e-06
3.61386e-06
3.61373e-06
3.61361e-06
3.61352e-06
3.61344e-06
3.61338e-06
3.61333e-06
3.61329e-06
3.61327e-06
3.61326e-06
3.61327e-06
3.61328e-06
3.6133e-06
3.61332e-06
3.61335e-06
3.61338e-06
3.6134e-06
3.61342e-06
3.61344e-06
3.61345e-06
3.61346e-06
3.61346e-06
3.61346e-06
3.61346e-06
3.61345e-06
3.61344e-06
3.61343e-06
3.61342e-06
3.6134e-06
3.61338e-06
3.61335e-06
3.61331e-06
3.61326e-06
3.6132e-06
3.61312e-06
3.61303e-06
3.61291e-06
3.61278e-06
3.61265e-06
3.6125e-06
3.61237e-06
3.61225e-06
3.61214e-06
3.61204e-06
3.61196e-06
3.61189e-06
3.61183e-06
3.61179e-06
3.61176e-06
3.61175e-06
3.61176e-06
3.61179e-06
3.61183e-06
3.61188e-06
3.61195e-06
3.61202e-06
3.61211e-06
3.6122e-06
3.61229e-06
3.61238e-06
3.61247e-06
3.61256e-06
3.61264e-06
3.61272e-06
3.6128e-06
3.61288e-06
3.61296e-06
3.61303e-06
3.61311e-06
3.61318e-06
3.61326e-06
3.61333e-06
3.6134e-06
3.61347e-06
3.61354e-06
3.61361e-06
3.61367e-06
3.61374e-06
3.61381e-06
3.61388e-06
3.61395e-06
3.61401e-06
3.61407e-06
3.61411e-06
3.61416e-06
3.61419e-06
3.61422e-06
3.61425e-06
3.61428e-06
3.6143e-06
3.61431e-06
3.61432e-06
3.61432e-06
3.6143e-06
3.61426e-06
3.61423e-06
3.61418e-06
3.61413e-06
3.61408e-06
3.61402e-06
3.61396e-06
3.61391e-06
3.61386e-06
3.61382e-06
3.61379e-06
3.61378e-06
3.61377e-06
3.61372e-06
3.61385e-06
3.61328e-06
7.22155e-06
7.22224e-06
7.22328e-06
7.2239e-06
7.22408e-06
7.22397e-06
7.22371e-06
7.22339e-06
7.22306e-06
7.22275e-06
7.22247e-06
7.22222e-06
7.222e-06
7.22182e-06
7.22167e-06
7.22154e-06
7.22145e-06
7.22139e-06
7.22135e-06
7.22133e-06
7.22133e-06
7.22135e-06
7.22138e-06
7.22142e-06
7.22146e-06
7.2215e-06
7.22154e-06
7.22157e-06
7.2216e-06
7.22161e-06
7.22162e-06
7.22161e-06
7.22161e-06
7.22159e-06
7.22158e-06
7.22156e-06
7.22154e-06
7.22151e-06
7.22148e-06
7.22144e-06
7.22139e-06
7.22132e-06
7.22124e-06
7.22114e-06
7.221e-06
7.22083e-06
7.22063e-06
7.22041e-06
7.22016e-06
7.2199e-06
7.21966e-06
7.21945e-06
7.21926e-06
7.2191e-06
7.21895e-06
7.21883e-06
7.21874e-06
7.21868e-06
7.21864e-06
7.21864e-06
7.21867e-06
7.21873e-06
7.21881e-06
7.21892e-06
7.21905e-06
7.2192e-06
7.21937e-06
7.21954e-06
7.21971e-06
7.21989e-06
7.22006e-06
7.22023e-06
7.2204e-06
7.22056e-06
7.22072e-06
7.22087e-06
7.22102e-06
7.22117e-06
7.22132e-06
7.22146e-06
7.22161e-06
7.22176e-06
7.2219e-06
7.22204e-06
7.22218e-06
7.22231e-06
7.22244e-06
7.22258e-06
7.22272e-06
7.22286e-06
7.223e-06
7.22312e-06
7.22323e-06
7.22332e-06
7.2234e-06
7.22348e-06
7.22354e-06
7.22359e-06
7.22364e-06
7.22367e-06
7.2237e-06
7.2237e-06
7.2237e-06
7.22367e-06
7.2236e-06
7.22352e-06
7.22344e-06
7.22334e-06
7.22323e-06
7.22311e-06
7.22299e-06
7.22289e-06
7.22279e-06
7.22271e-06
7.22264e-06
7.22259e-06
7.22256e-06
7.22247e-06
7.22267e-06
7.22178e-06
1.19273e-05
1.19279e-05
1.19292e-05
1.19301e-05
1.19306e-05
1.19305e-05
1.19302e-05
1.19298e-05
1.19293e-05
1.19289e-05
1.19284e-05
1.1928e-05
1.19277e-05
1.19274e-05
1.19271e-05
1.19269e-05
1.19268e-05
1.19267e-05
1.19266e-05
1.19266e-05
1.19265e-05
1.19266e-05
1.19266e-05
1.19266e-05
1.19267e-05
1.19268e-05
1.19268e-05
1.19268e-05
1.19269e-05
1.19269e-05
1.19269e-05
1.19268e-05
1.19268e-05
1.19268e-05
1.19268e-05
1.19267e-05
1.19267e-05
1.19266e-05
1.19266e-05
1.19265e-05
1.19264e-05
1.19263e-05
1.19262e-05
1.19261e-05
1.19259e-05
1.19256e-05
1.19254e-05
1.1925e-05
1.19247e-05
1.19243e-05
1.19239e-05
1.19236e-05
1.19233e-05
1.19231e-05
1.19229e-05
1.19227e-05
1.19226e-05
1.19225e-05
1.19225e-05
1.19225e-05
1.19225e-05
1.19227e-05
1.19228e-05
1.1923e-05
1.19232e-05
1.19235e-05
1.19237e-05
1.1924e-05
1.19243e-05
1.19246e-05
1.19249e-05
1.19251e-05
1.19254e-05
1.19257e-05
1.19259e-05
1.19262e-05
1.19264e-05
1.19267e-05
1.19269e-05
1.19272e-05
1.19274e-05
1.19277e-05
1.19279e-05
1.19281e-05
1.19284e-05
1.19286e-05
1.19288e-05
1.1929e-05
1.19293e-05
1.19295e-05
1.19297e-05
1.193e-05
1.19301e-05
1.19303e-05
1.19304e-05
1.19306e-05
1.19307e-05
1.19308e-05
1.19308e-05
1.19309e-05
1.19309e-05
1.19309e-05
1.19309e-05
1.19309e-05
1.19308e-05
1.19307e-05
1.19305e-05
1.19304e-05
1.19302e-05
1.193e-05
1.19298e-05
1.19296e-05
1.19294e-05
1.19293e-05
1.19292e-05
1.19291e-05
1.1929e-05
1.19289e-05
1.19291e-05
1.1928e-05
1.73832e-05
1.73834e-05
1.73847e-05
1.73858e-05
1.73865e-05
1.73866e-05
1.73864e-05
1.73859e-05
1.73853e-05
1.73847e-05
1.73841e-05
1.73836e-05
1.73831e-05
1.73827e-05
1.73823e-05
1.7382e-05
1.73818e-05
1.73816e-05
1.73815e-05
1.73814e-05
1.73814e-05
1.73814e-05
1.73814e-05
1.73815e-05
1.73815e-05
1.73816e-05
1.73816e-05
1.73816e-05
1.73817e-05
1.73816e-05
1.73816e-05
1.73816e-05
1.73815e-05
1.73815e-05
1.73814e-05
1.73813e-05
1.73813e-05
1.73812e-05
1.73811e-05
1.7381e-05
1.73809e-05
1.73808e-05
1.73806e-05
1.73804e-05
1.73802e-05
1.73798e-05
1.73795e-05
1.7379e-05
1.73786e-05
1.73781e-05
1.73776e-05
1.73771e-05
1.73768e-05
1.73765e-05
1.73762e-05
1.7376e-05
1.73758e-05
1.73757e-05
1.73757e-05
1.73758e-05
1.73759e-05
1.7376e-05
1.73763e-05
1.73766e-05
1.73769e-05
1.73773e-05
1.73777e-05
1.73781e-05
1.73785e-05
1.73789e-05
1.73793e-05
1.73797e-05
1.73801e-05
1.73805e-05
1.73809e-05
1.73813e-05
1.73816e-05
1.7382e-05
1.73824e-05
1.73827e-05
1.73831e-05
1.73835e-05
1.73838e-05
1.73842e-05
1.73845e-05
1.73849e-05
1.73852e-05
1.73856e-05
1.73859e-05
1.73863e-05
1.73866e-05
1.73869e-05
1.73872e-05
1.73875e-05
1.73877e-05
1.73879e-05
1.73881e-05
1.73882e-05
1.73883e-05
1.73884e-05
1.73884e-05
1.73885e-05
1.73885e-05
1.73884e-05
1.73883e-05
1.73881e-05
1.73879e-05
1.73877e-05
1.73874e-05
1.73871e-05
1.73869e-05
1.73866e-05
1.73863e-05
1.73861e-05
1.73859e-05
1.73858e-05
1.73857e-05
1.73855e-05
1.73856e-05
1.73846e-05
2.33031e-05
2.33028e-05
2.33038e-05
2.3305e-05
2.33058e-05
2.33061e-05
2.3306e-05
2.33055e-05
2.33049e-05
2.33042e-05
2.33035e-05
2.33028e-05
2.33022e-05
2.33016e-05
2.33011e-05
2.33007e-05
2.33004e-05
2.33001e-05
2.32999e-05
2.32998e-05
2.32998e-05
2.32997e-05
2.32998e-05
2.32998e-05
2.32998e-05
2.32999e-05
2.32999e-05
2.32999e-05
2.32999e-05
2.32999e-05
2.32998e-05
2.32998e-05
2.32997e-05
2.32996e-05
2.32994e-05
2.32993e-05
2.32992e-05
2.32991e-05
2.3299e-05
2.32988e-05
2.32987e-05
2.32985e-05
2.32983e-05
2.3298e-05
2.32977e-05
2.32974e-05
2.32969e-05
2.32964e-05
2.32958e-05
2.32952e-05
2.32946e-05
2.3294e-05
2.32936e-05
2.32932e-05
2.32928e-05
2.32926e-05
2.32924e-05
2.32923e-05
2.32923e-05
2.32924e-05
2.32926e-05
2.32928e-05
2.32932e-05
2.32936e-05
2.3294e-05
2.32945e-05
2.32951e-05
2.32956e-05
2.32962e-05
2.32967e-05
2.32973e-05
2.32979e-05
2.32984e-05
2.3299e-05
2.32995e-05
2.33e-05
2.33005e-05
2.3301e-05
2.33015e-05
2.3302e-05
2.33026e-05
2.33031e-05
2.33036e-05
2.33041e-05
2.33046e-05
2.33051e-05
2.33056e-05
2.3306e-05
2.33065e-05
2.3307e-05
2.33075e-05
2.33079e-05
2.33084e-05
2.33087e-05
2.33091e-05
2.33093e-05
2.33096e-05
2.33098e-05
2.331e-05
2.33101e-05
2.33102e-05
2.33102e-05
2.33102e-05
2.33101e-05
2.33099e-05
2.33097e-05
2.33095e-05
2.33092e-05
2.33089e-05
2.33085e-05
2.33081e-05
2.33078e-05
2.33074e-05
2.33071e-05
2.33068e-05
2.33066e-05
2.33064e-05
2.33062e-05
2.33063e-05
2.33054e-05
2.94817e-05
2.94809e-05
2.94816e-05
2.94827e-05
2.94835e-05
2.94839e-05
2.94839e-05
2.94835e-05
2.94829e-05
2.94821e-05
2.94813e-05
2.94805e-05
2.94798e-05
2.94791e-05
2.94785e-05
2.94779e-05
2.94775e-05
2.94771e-05
2.94769e-05
2.94767e-05
2.94765e-05
2.94765e-05
2.94764e-05
2.94765e-05
2.94765e-05
2.94765e-05
2.94765e-05
2.94765e-05
2.94764e-05
2.94764e-05
2.94763e-05
2.94761e-05
2.9476e-05
2.94758e-05
2.94757e-05
2.94755e-05
2.94753e-05
2.94751e-05
2.94749e-05
2.94747e-05
2.94745e-05
2.94743e-05
2.9474e-05
2.94737e-05
2.94734e-05
2.94729e-05
2.94724e-05
2.94718e-05
2.94711e-05
2.94704e-05
2.94697e-05
2.9469e-05
2.94684e-05
2.94679e-05
2.94675e-05
2.94672e-05
2.9467e-05
2.9467e-05
2.9467e-05
2.94671e-05
2.94674e-05
2.94677e-05
2.94682e-05
2.94687e-05
2.94693e-05
2.947e-05
2.94707e-05
2.94714e-05
2.94722e-05
2.94729e-05
2.94736e-05
2.94744e-05
2.94751e-05
2.94758e-05
2.94765e-05
2.94772e-05
2.94778e-05
2.94785e-05
2.94792e-05
2.94799e-05
2.94805e-05
2.94812e-05
2.94819e-05
2.94826e-05
2.94832e-05
2.94839e-05
2.94845e-05
2.94852e-05
2.94858e-05
2.94865e-05
2.94871e-05
2.94877e-05
2.94883e-05
2.94888e-05
2.94893e-05
2.94897e-05
2.949e-05
2.94903e-05
2.94905e-05
2.94907e-05
2.94908e-05
2.94909e-05
2.94909e-05
2.94908e-05
2.94906e-05
2.94904e-05
2.94901e-05
2.94897e-05
2.94893e-05
2.94889e-05
2.94884e-05
2.9488e-05
2.94875e-05
2.94871e-05
2.94867e-05
2.94864e-05
2.94862e-05
2.94858e-05
2.94858e-05
2.94852e-05
3.57753e-05
3.5774e-05
3.57743e-05
3.57751e-05
3.57759e-05
3.57763e-05
3.57763e-05
3.5776e-05
3.57754e-05
3.57746e-05
3.57738e-05
3.57729e-05
3.57721e-05
3.57713e-05
3.57705e-05
3.57699e-05
3.57693e-05
3.57689e-05
3.57685e-05
3.57682e-05
3.5768e-05
3.57679e-05
3.57678e-05
3.57677e-05
3.57677e-05
3.57677e-05
3.57676e-05
3.57676e-05
3.57675e-05
3.57674e-05
3.57672e-05
3.5767e-05
3.57668e-05
3.57666e-05
3.57664e-05
3.57661e-05
3.57658e-05
3.57656e-05
3.57653e-05
3.5765e-05
3.57648e-05
3.57644e-05
3.57641e-05
3.57637e-05
3.57633e-05
3.57628e-05
3.57622e-05
3.57615e-05
3.57607e-05
3.57599e-05
3.57591e-05
3.57583e-05
3.57576e-05
3.57571e-05
3.57566e-05
3.57563e-05
3.57561e-05
3.5756e-05
3.5756e-05
3.57563e-05
3.57566e-05
3.57571e-05
3.57577e-05
3.57583e-05
3.57591e-05
3.57599e-05
3.57608e-05
3.57617e-05
3.57626e-05
3.57636e-05
3.57645e-05
3.57654e-05
3.57663e-05
3.57672e-05
3.57681e-05
3.5769e-05
3.57698e-05
3.57707e-05
3.57715e-05
3.57724e-05
3.57733e-05
3.57742e-05
3.5775e-05
3.57759e-05
3.57767e-05
3.57776e-05
3.57784e-05
3.57792e-05
3.57801e-05
3.57809e-05
3.57817e-05
3.57825e-05
3.57832e-05
3.57839e-05
3.57845e-05
3.57851e-05
3.57855e-05
3.57859e-05
3.57862e-05
3.57864e-05
3.57866e-05
3.57867e-05
3.57867e-05
3.57866e-05
3.57864e-05
3.57862e-05
3.57858e-05
3.57854e-05
3.5785e-05
3.57845e-05
3.57839e-05
3.57834e-05
3.57828e-05
3.57823e-05
3.57818e-05
3.57814e-05
3.57811e-05
3.57807e-05
3.57805e-05
3.57802e-05
4.20823e-05
4.20803e-05
4.20803e-05
4.20809e-05
4.20815e-05
4.20818e-05
4.20818e-05
4.20815e-05
4.20809e-05
4.20802e-05
4.20793e-05
4.20784e-05
4.20775e-05
4.20766e-05
4.20757e-05
4.2075e-05
4.20743e-05
4.20737e-05
4.20732e-05
4.20728e-05
4.20725e-05
4.20723e-05
4.20722e-05
4.2072e-05
4.20719e-05
4.20719e-05
4.20718e-05
4.20716e-05
4.20715e-05
4.20713e-05
4.20711e-05
4.20708e-05
4.20705e-05
4.20702e-05
4.20699e-05
4.20696e-05
4.20692e-05
4.20689e-05
4.20685e-05
4.20681e-05
4.20677e-05
4.20673e-05
4.20669e-05
4.20664e-05
4.20659e-05
4.20653e-05
4.20646e-05
4.20638e-05
4.2063e-05
4.20621e-05
4.20612e-05
4.20603e-05
4.20596e-05
4.20589e-05
4.20584e-05
4.2058e-05
4.20578e-05
4.20577e-05
4.20579e-05
4.20582e-05
4.20586e-05
4.20592e-05
4.20599e-05
4.20608e-05
4.20617e-05
4.20627e-05
4.20638e-05
4.20649e-05
4.2066e-05
4.20672e-05
4.20683e-05
4.20694e-05
4.20705e-05
4.20716e-05
4.20727e-05
4.20738e-05
4.20748e-05
4.20759e-05
4.2077e-05
4.20781e-05
4.20791e-05
4.20802e-05
4.20813e-05
4.20824e-05
4.20834e-05
4.20845e-05
4.20855e-05
4.20865e-05
4.20876e-05
4.20886e-05
4.20896e-05
4.20906e-05
4.20915e-05
4.20924e-05
4.20932e-05
4.20938e-05
4.20944e-05
4.20949e-05
4.20953e-05
4.20956e-05
4.20958e-05
4.20959e-05
4.2096e-05
4.20959e-05
4.20957e-05
4.20954e-05
4.20951e-05
4.20946e-05
4.20941e-05
4.20936e-05
4.20929e-05
4.20923e-05
4.20917e-05
4.20911e-05
4.20905e-05
4.209e-05
4.20896e-05
4.20891e-05
4.20888e-05
4.20889e-05
4.83299e-05
4.83273e-05
4.8327e-05
4.83273e-05
4.83277e-05
4.83279e-05
4.83278e-05
4.83275e-05
4.83269e-05
4.83262e-05
4.83253e-05
4.83243e-05
4.83233e-05
4.83224e-05
4.83214e-05
4.83206e-05
4.83198e-05
4.83191e-05
4.83185e-05
4.8318e-05
4.83176e-05
4.83173e-05
4.8317e-05
4.83168e-05
4.83166e-05
4.83164e-05
4.83163e-05
4.83161e-05
4.83158e-05
4.83156e-05
4.83153e-05
4.83149e-05
4.83145e-05
4.83141e-05
4.83137e-05
4.83133e-05
4.83128e-05
4.83124e-05
4.83119e-05
4.83114e-05
4.83109e-05
4.83104e-05
4.83098e-05
4.83093e-05
4.83086e-05
4.83079e-05
4.83071e-05
4.83063e-05
4.83053e-05
4.83043e-05
4.83033e-05
4.83024e-05
4.83016e-05
4.83008e-05
4.83003e-05
4.82999e-05
4.82997e-05
4.82996e-05
4.82998e-05
4.83002e-05
4.83008e-05
4.83015e-05
4.83024e-05
4.83034e-05
4.83046e-05
4.83058e-05
4.8307e-05
4.83083e-05
4.83097e-05
4.8311e-05
4.83124e-05
4.83137e-05
4.83151e-05
4.83164e-05
4.83177e-05
4.8319e-05
4.83203e-05
4.83216e-05
4.83229e-05
4.83242e-05
4.83255e-05
4.83268e-05
4.83281e-05
4.83294e-05
4.83307e-05
4.8332e-05
4.83332e-05
4.83345e-05
4.83357e-05
4.83369e-05
4.83382e-05
4.83394e-05
4.83405e-05
4.83416e-05
4.83425e-05
4.83433e-05
4.83441e-05
4.83447e-05
4.83452e-05
4.83455e-05
4.83458e-05
4.8346e-05
4.8346e-05
4.8346e-05
4.83458e-05
4.83455e-05
4.83451e-05
4.83447e-05
4.83441e-05
4.83435e-05
4.83428e-05
4.83421e-05
4.83414e-05
4.83407e-05
4.83401e-05
4.83395e-05
4.83389e-05
4.83384e-05
4.83379e-05
4.83384e-05
5.44662e-05
5.44631e-05
5.44624e-05
5.44625e-05
5.44626e-05
5.44627e-05
5.44625e-05
5.44621e-05
5.44615e-05
5.44607e-05
5.44598e-05
5.44589e-05
5.44578e-05
5.44568e-05
5.44558e-05
5.44548e-05
5.44539e-05
5.44531e-05
5.44524e-05
5.44518e-05
5.44513e-05
5.44508e-05
5.44504e-05
5.44501e-05
5.44498e-05
5.44496e-05
5.44493e-05
5.4449e-05
5.44487e-05
5.44483e-05
5.44479e-05
5.44475e-05
5.4447e-05
5.44465e-05
5.44459e-05
5.44454e-05
5.44448e-05
5.44442e-05
5.44436e-05
5.4443e-05
5.44424e-05
5.44417e-05
5.4441e-05
5.44403e-05
5.44396e-05
5.44388e-05
5.44379e-05
5.44369e-05
5.44359e-05
5.44348e-05
5.44337e-05
5.44327e-05
5.44317e-05
5.4431e-05
5.44304e-05
5.443e-05
5.44298e-05
5.44298e-05
5.44301e-05
5.44306e-05
5.44313e-05
5.44322e-05
5.44333e-05
5.44345e-05
5.44358e-05
5.44372e-05
5.44387e-05
5.44402e-05
5.44418e-05
5.44433e-05
5.44449e-05
5.44465e-05
5.44481e-05
5.44496e-05
5.44512e-05
5.44527e-05
5.44542e-05
5.44558e-05
5.44573e-05
5.44588e-05
5.44604e-05
5.44619e-05
5.44635e-05
5.4465e-05
5.44666e-05
5.44681e-05
5.44696e-05
5.44711e-05
5.44726e-05
5.4474e-05
5.44755e-05
5.44769e-05
5.44782e-05
5.44795e-05
5.44806e-05
5.44816e-05
5.44825e-05
5.44832e-05
5.44838e-05
5.44843e-05
5.44846e-05
5.44848e-05
5.44849e-05
5.44849e-05
5.44847e-05
5.44844e-05
5.4484e-05
5.44835e-05
5.44829e-05
5.44823e-05
5.44816e-05
5.44808e-05
5.44801e-05
5.44793e-05
5.44786e-05
5.44779e-05
5.44772e-05
5.44767e-05
5.44759e-05
5.4477e-05
6.0455e-05
6.04512e-05
6.04503e-05
6.04502e-05
6.04502e-05
6.045e-05
6.04497e-05
6.04492e-05
6.04486e-05
6.04478e-05
6.04468e-05
6.04458e-05
6.04447e-05
6.04436e-05
6.04425e-05
6.04415e-05
6.04405e-05
6.04396e-05
6.04388e-05
6.0438e-05
6.04374e-05
6.04368e-05
6.04363e-05
6.04359e-05
6.04354e-05
6.04351e-05
6.04347e-05
6.04343e-05
6.04338e-05
6.04334e-05
6.04328e-05
6.04323e-05
6.04317e-05
6.04311e-05
6.04304e-05
6.04297e-05
6.0429e-05
6.04283e-05
6.04275e-05
6.04268e-05
6.0426e-05
6.04252e-05
6.04243e-05
6.04235e-05
6.04226e-05
6.04216e-05
6.04206e-05
6.04195e-05
6.04184e-05
6.04172e-05
6.0416e-05
6.04149e-05
6.04139e-05
6.04131e-05
6.04125e-05
6.04121e-05
6.0412e-05
6.04121e-05
6.04125e-05
6.04131e-05
6.0414e-05
6.04151e-05
6.04163e-05
6.04177e-05
6.04192e-05
6.04209e-05
6.04225e-05
6.04243e-05
6.04261e-05
6.04279e-05
6.04297e-05
6.04315e-05
6.04333e-05
6.04351e-05
6.04369e-05
6.04387e-05
6.04405e-05
6.04423e-05
6.04441e-05
6.04459e-05
6.04477e-05
6.04495e-05
6.04513e-05
6.04531e-05
6.04549e-05
6.04567e-05
6.04584e-05
6.04602e-05
6.04619e-05
6.04636e-05
6.04653e-05
6.04669e-05
6.04685e-05
6.047e-05
6.04713e-05
6.04725e-05
6.04735e-05
6.04743e-05
6.0475e-05
6.04755e-05
6.04759e-05
6.04761e-05
6.04763e-05
6.04763e-05
6.04761e-05
6.04758e-05
6.04754e-05
6.04749e-05
6.04743e-05
6.04737e-05
6.04729e-05
6.04721e-05
6.04713e-05
6.04705e-05
6.04697e-05
6.0469e-05
6.04682e-05
6.04677e-05
6.04666e-05
6.04683e-05
6.62724e-05
6.62681e-05
6.62669e-05
6.62666e-05
6.62664e-05
6.62661e-05
6.62657e-05
6.62651e-05
6.62644e-05
6.62635e-05
6.62625e-05
6.62614e-05
6.62603e-05
6.62592e-05
6.6258e-05
6.62569e-05
6.62558e-05
6.62548e-05
6.62538e-05
6.6253e-05
6.62522e-05
6.62515e-05
6.62509e-05
6.62503e-05
6.62497e-05
6.62492e-05
6.62487e-05
6.62481e-05
6.62476e-05
6.6247e-05
6.62463e-05
6.62456e-05
6.62449e-05
6.62442e-05
6.62434e-05
6.62425e-05
6.62417e-05
6.62408e-05
6.62399e-05
6.6239e-05
6.6238e-05
6.6237e-05
6.6236e-05
6.6235e-05
6.62339e-05
6.62328e-05
6.62316e-05
6.62304e-05
6.62292e-05
6.62279e-05
6.62266e-05
6.62254e-05
6.62243e-05
6.62235e-05
6.62229e-05
6.62225e-05
6.62225e-05
6.62227e-05
6.62233e-05
6.62241e-05
6.62251e-05
6.62264e-05
6.62278e-05
6.62294e-05
6.62312e-05
6.6233e-05
6.62349e-05
6.62369e-05
6.62389e-05
6.62409e-05
6.6243e-05
6.6245e-05
6.62471e-05
6.62491e-05
6.62512e-05
6.62532e-05
6.62553e-05
6.62573e-05
6.62594e-05
6.62615e-05
6.62635e-05
6.62656e-05
6.62677e-05
6.62698e-05
6.62719e-05
6.62739e-05
6.62759e-05
6.62779e-05
6.62799e-05
6.62819e-05
6.62838e-05
6.62857e-05
6.62875e-05
6.62891e-05
6.62906e-05
6.6292e-05
6.62931e-05
6.6294e-05
6.62948e-05
6.62954e-05
6.62958e-05
6.62961e-05
6.62963e-05
6.62963e-05
6.62962e-05
6.62959e-05
6.62955e-05
6.6295e-05
6.62944e-05
6.62938e-05
6.6293e-05
6.62922e-05
6.62914e-05
6.62905e-05
6.62897e-05
6.62889e-05
6.62881e-05
6.62875e-05
6.62862e-05
6.62885e-05
7.19053e-05
7.19002e-05
7.18989e-05
7.18985e-05
7.18981e-05
7.18977e-05
7.18972e-05
7.18965e-05
7.18957e-05
7.18947e-05
7.18937e-05
7.18925e-05
7.18914e-05
7.18901e-05
7.18889e-05
7.18877e-05
7.18866e-05
7.18854e-05
7.18844e-05
7.18834e-05
7.18825e-05
7.18816e-05
7.18808e-05
7.18801e-05
7.18794e-05
7.18787e-05
7.1878e-05
7.18773e-05
7.18766e-05
7.18759e-05
7.18751e-05
7.18743e-05
7.18734e-05
7.18725e-05
7.18716e-05
7.18706e-05
7.18696e-05
7.18685e-05
7.18674e-05
7.18663e-05
7.18652e-05
7.1864e-05
7.18628e-05
7.18616e-05
7.18603e-05
7.1859e-05
7.18577e-05
7.18563e-05
7.18549e-05
7.18535e-05
7.18521e-05
7.18508e-05
7.18497e-05
7.18489e-05
7.18483e-05
7.1848e-05
7.18481e-05
7.18485e-05
7.18492e-05
7.18502e-05
7.18515e-05
7.18529e-05
7.18546e-05
7.18564e-05
7.18583e-05
7.18604e-05
7.18625e-05
7.18647e-05
7.18669e-05
7.18692e-05
7.18715e-05
7.18738e-05
7.18761e-05
7.18784e-05
7.18807e-05
7.1883e-05
7.18853e-05
7.18877e-05
7.189e-05
7.18924e-05
7.18947e-05
7.18971e-05
7.18994e-05
7.19018e-05
7.19041e-05
7.19065e-05
7.19088e-05
7.1911e-05
7.19133e-05
7.19155e-05
7.19177e-05
7.19198e-05
7.19218e-05
7.19237e-05
7.19253e-05
7.19268e-05
7.1928e-05
7.19291e-05
7.19299e-05
7.19306e-05
7.1931e-05
7.19314e-05
7.19316e-05
7.19316e-05
7.19315e-05
7.19313e-05
7.19309e-05
7.19304e-05
7.19299e-05
7.19292e-05
7.19284e-05
7.19276e-05
7.19268e-05
7.19259e-05
7.1925e-05
7.19242e-05
7.19234e-05
7.19227e-05
7.19213e-05
7.19242e-05
7.73494e-05
7.73437e-05
7.73422e-05
7.73417e-05
7.73413e-05
7.73408e-05
7.73401e-05
7.73393e-05
7.73384e-05
7.73374e-05
7.73363e-05
7.73351e-05
7.73339e-05
7.73326e-05
7.73313e-05
7.733e-05
7.73288e-05
7.73275e-05
7.73264e-05
7.73252e-05
7.73242e-05
7.73232e-05
7.73222e-05
7.73213e-05
7.73205e-05
7.73196e-05
7.73188e-05
7.73179e-05
7.73171e-05
7.73162e-05
7.73152e-05
7.73142e-05
7.73132e-05
7.73121e-05
7.7311e-05
7.73099e-05
7.73087e-05
7.73074e-05
7.73061e-05
7.73048e-05
7.73034e-05
7.73021e-05
7.73006e-05
7.72992e-05
7.72977e-05
7.72962e-05
7.72947e-05
7.72932e-05
7.72916e-05
7.72901e-05
7.72885e-05
7.72872e-05
7.72861e-05
7.72853e-05
7.72848e-05
7.72846e-05
7.72849e-05
7.72855e-05
7.72864e-05
7.72876e-05
7.7289e-05
7.72907e-05
7.72925e-05
7.72946e-05
7.72967e-05
7.7299e-05
7.73013e-05
7.73037e-05
7.73062e-05
7.73087e-05
7.73112e-05
7.73138e-05
7.73163e-05
7.73189e-05
7.73215e-05
7.7324e-05
7.73266e-05
7.73293e-05
7.73319e-05
7.73345e-05
7.73372e-05
7.73398e-05
7.73425e-05
7.73451e-05
7.73477e-05
7.73503e-05
7.73529e-05
7.73555e-05
7.7358e-05
7.73605e-05
7.73629e-05
7.73652e-05
7.73674e-05
7.73694e-05
7.73712e-05
7.73728e-05
7.73741e-05
7.73752e-05
7.73761e-05
7.73768e-05
7.73774e-05
7.73777e-05
7.7378e-05
7.73781e-05
7.7378e-05
7.73778e-05
7.73775e-05
7.7377e-05
7.73765e-05
7.73758e-05
7.73751e-05
7.73743e-05
7.73735e-05
7.73726e-05
7.73717e-05
7.73709e-05
7.737e-05
7.73694e-05
7.73677e-05
7.73713e-05
8.26095e-05
8.26032e-05
8.26015e-05
8.2601e-05
8.26005e-05
8.25999e-05
8.25992e-05
8.25984e-05
8.25974e-05
8.25963e-05
8.25951e-05
8.25938e-05
8.25925e-05
8.25912e-05
8.25898e-05
8.25885e-05
8.25871e-05
8.25858e-05
8.25845e-05
8.25832e-05
8.2582e-05
8.25809e-05
8.25798e-05
8.25787e-05
8.25777e-05
8.25766e-05
8.25756e-05
8.25746e-05
8.25736e-05
8.25725e-05
8.25714e-05
8.25702e-05
8.2569e-05
8.25677e-05
8.25664e-05
8.25651e-05
8.25637e-05
8.25622e-05
8.25607e-05
8.25592e-05
8.25576e-05
8.25559e-05
8.25543e-05
8.25526e-05
8.25509e-05
8.25492e-05
8.25474e-05
8.25457e-05
8.2544e-05
8.25423e-05
8.25406e-05
8.25392e-05
8.25381e-05
8.25374e-05
8.2537e-05
8.25371e-05
8.25375e-05
8.25383e-05
8.25394e-05
8.25409e-05
8.25425e-05
8.25444e-05
8.25465e-05
8.25487e-05
8.25511e-05
8.25535e-05
8.25561e-05
8.25587e-05
8.25614e-05
8.25641e-05
8.25668e-05
8.25696e-05
8.25724e-05
8.25752e-05
8.25781e-05
8.25809e-05
8.25838e-05
8.25867e-05
8.25896e-05
8.25925e-05
8.25955e-05
8.25984e-05
8.26014e-05
8.26043e-05
8.26072e-05
8.26101e-05
8.2613e-05
8.26158e-05
8.26186e-05
8.26213e-05
8.2624e-05
8.26265e-05
8.26289e-05
8.2631e-05
8.26329e-05
8.26346e-05
8.2636e-05
8.26371e-05
8.26381e-05
8.26388e-05
8.26394e-05
8.26398e-05
8.264e-05
8.26402e-05
8.26401e-05
8.264e-05
8.26397e-05
8.26393e-05
8.26388e-05
8.26382e-05
8.26375e-05
8.26368e-05
8.2636e-05
8.26351e-05
8.26343e-05
8.26335e-05
8.26325e-05
8.2632e-05
8.26301e-05
8.26343e-05
8.76987e-05
8.76918e-05
8.76901e-05
8.76895e-05
8.7689e-05
8.76884e-05
8.76876e-05
8.76867e-05
8.76857e-05
8.76845e-05
8.76833e-05
8.7682e-05
8.76806e-05
8.76792e-05
8.76777e-05
8.76763e-05
8.76748e-05
8.76734e-05
8.76719e-05
8.76706e-05
8.76692e-05
8.76679e-05
8.76666e-05
8.76654e-05
8.76642e-05
8.7663e-05
8.76617e-05
8.76605e-05
8.76593e-05
8.7658e-05
8.76567e-05
8.76553e-05
8.76539e-05
8.76525e-05
8.7651e-05
8.76494e-05
8.76478e-05
8.76461e-05
8.76443e-05
8.76425e-05
8.76407e-05
8.76388e-05
8.76368e-05
8.76349e-05
8.7633e-05
8.7631e-05
8.7629e-05
8.76271e-05
8.76252e-05
8.76233e-05
8.76216e-05
8.76201e-05
8.7619e-05
8.76184e-05
8.76182e-05
8.76185e-05
8.76192e-05
8.76203e-05
8.76217e-05
8.76233e-05
8.76252e-05
8.76273e-05
8.76295e-05