/*--------------------------------*- C++ -*----------------------------------*\
  =========                 |
  \\      /  F ield         | OpenFOAM: The Open Source CFD Toolbox
   \\    /   O peration     | Website:  https://openfoam.org
    \\  /    A nd           | Version:  7
     \\/     M anipulation  |
\*---------------------------------------------------------------------------*/
FoamFile
{
    version     2.0;
    format      ascii;
    class       surfaceScalarField;
    location    "500";
    object      phi;
}
// * * * * * * * * * * * * * * * * * * * * * * * * * * * * * * * * * * * * * //

dimensions      [0 3 -1 0 0 0 0];

internalField   nonuniform List<scalar> 
47680
(
2.6861e-06
8.39789e-10
2.68673e-06
-6.26146e-10
2.68724e-06
-5.09029e-10
2.68747e-06
-2.35228e-10
2.68763e-06
-1.59174e-10
2.68771e-06
-8.0703e-11
2.68775e-06
-3.29387e-11
2.68775e-06
-5.39853e-12
2.68774e-06
1.26975e-11
2.68772e-06
2.33728e-11
2.68769e-06
2.92989e-11
2.68765e-06
3.1977e-11
2.68762e-06
3.22478e-11
2.68759e-06
3.06935e-11
2.68756e-06
2.77012e-11
2.68754e-06
2.35673e-11
2.68752e-06
1.85746e-11
2.68751e-06
1.30285e-11
2.6875e-06
7.25755e-12
2.6875e-06
1.56468e-12
2.6875e-06
-3.78113e-12
2.68751e-06
-8.47728e-12
2.68752e-06
-1.22029e-11
2.68754e-06
-1.47088e-11
2.68755e-06
-1.58513e-11
2.68757e-06
-1.56068e-11
2.68758e-06
-1.40736e-11
2.6876e-06
-1.14499e-11
2.6876e-06
-8.02245e-12
2.68761e-06
-4.12595e-12
2.68761e-06
-1.22204e-13
2.6876e-06
3.67264e-12
2.6876e-06
6.96447e-12
2.68759e-06
9.55875e-12
2.68758e-06
1.12536e-11
2.68756e-06
1.20695e-11
2.68755e-06
1.18737e-11
2.68754e-06
1.09121e-11
2.68753e-06
9.01047e-12
2.68753e-06
6.58339e-12
2.68752e-06
4.01898e-12
2.68752e-06
4.69145e-13
2.68752e-06
1.76113e-12
2.68752e-06
-1.73128e-12
2.68751e-06
1.4796e-11
2.68748e-06
2.39257e-11
2.68745e-06
3.27917e-11
2.6874e-06
4.60895e-11
2.68735e-06
5.5361e-11
2.68728e-06
6.71378e-11
2.68723e-06
5.38042e-11
2.68718e-06
4.74697e-11
2.68714e-06
4.47392e-11
2.68709e-06
4.0516e-11
2.68706e-06
3.66258e-11
2.68703e-06
3.25496e-11
2.687e-06
2.81889e-11
2.68697e-06
2.37154e-11
2.68695e-06
1.91776e-11
2.68694e-06
1.46593e-11
2.68693e-06
1.02576e-11
2.68692e-06
6.07897e-12
2.68692e-06
2.24493e-12
2.68692e-06
-1.10407e-12
2.68693e-06
-3.86552e-12
2.68693e-06
-5.96617e-12
2.68694e-06
-7.32777e-12
2.68695e-06
-7.91881e-12
2.68696e-06
-7.76207e-12
2.68696e-06
-6.93005e-12
2.68697e-06
-5.5426e-12
2.68697e-06
-3.76689e-12
2.68697e-06
-1.80206e-12
2.68697e-06
1.53583e-13
2.68697e-06
1.93107e-12
2.68697e-06
3.39467e-12
2.68696e-06
4.46032e-12
2.68696e-06
5.07971e-12
2.68695e-06
5.28173e-12
2.68695e-06
5.09292e-12
2.68694e-06
4.67919e-12
2.68694e-06
4.03875e-12
2.68694e-06
3.52168e-12
2.68693e-06
2.84732e-12
2.68693e-06
2.48331e-12
2.68693e-06
1.50338e-12
2.68693e-06
-8.67959e-13
2.68694e-06
-8.74084e-12
2.68696e-06
-1.67378e-11
2.68698e-06
-2.14651e-11
2.687e-06
-2.39404e-11
2.68702e-06
-2.10407e-11
2.68704e-06
-1.80852e-11
2.68706e-06
-1.6451e-11
2.68707e-06
-1.55467e-11
2.68709e-06
-1.56912e-11
2.6871e-06
-1.65228e-11
2.68712e-06
-1.82688e-11
2.68714e-06
-2.04194e-11
2.68717e-06
-2.29995e-11
2.68719e-06
-2.62978e-11
2.68722e-06
-2.6043e-11
2.68725e-06
-2.90924e-11
2.68726e-06
-1.76645e-11
2.68727e-06
-7.56658e-12
2.68729e-06
-1.5415e-11
2.6873e-06
-1.26847e-11
2.68731e-06
-6.41127e-12
2.68731e-06
-4.32539e-12
2.68732e-06
-4.11847e-12
2.68732e-06
-6.94469e-12
2.68733e-06
-1.09239e-11
2.68735e-06
-1.93232e-11
2.68738e-06
-2.49384e-11
2.68742e-06
-4.12975e-11
2.68746e-06
-3.96599e-11
2.68754e-06
-8.03249e-11
2.68753e-06
5.60632e-12
2.68774e-06
-2.11554e-10
8.01999e-10
8.28783e-06
2.73816e-09
8.28885e-06
-1.65192e-09
8.29014e-06
-1.79542e-09
8.29084e-06
-9.39967e-10
8.29129e-06
-6.05241e-10
8.29153e-06
-3.24333e-10
8.29164e-06
-1.39968e-10
8.29166e-06
-3.00276e-11
8.29164e-06
4.1574e-11
8.29157e-06
8.51275e-11
8.29149e-06
1.09944e-10
8.2914e-06
1.21795e-10
8.29131e-06
1.23991e-10
8.29122e-06
1.18785e-10
8.29114e-06
1.07714e-10
8.29108e-06
9.19693e-11
8.29102e-06
7.26816e-11
8.29098e-06
5.10649e-11
8.29096e-06
2.84078e-11
8.29096e-06
5.90487e-12
8.29097e-06
-1.53236e-11
8.291e-06
-3.40409e-11
8.29103e-06
-4.89826e-11
8.29108e-06
-5.91544e-11
8.29112e-06
-6.39718e-11
8.29117e-06
-6.33202e-11
8.29122e-06
-5.75587e-11
8.29125e-06
-4.74481e-11
8.29128e-06
-3.40881e-11
8.29129e-06
-1.87825e-11
8.2913e-06
-2.9279e-12
8.29129e-06
1.22311e-11
8.29127e-06
2.5588e-11
8.29124e-06
3.63476e-11
8.29121e-06
4.38153e-11
8.29117e-06
4.79658e-11
8.29114e-06
4.84388e-11
8.2911e-06
4.60264e-11
8.29107e-06
4.0138e-11
8.29104e-06
3.25653e-11
8.29102e-06
2.35083e-11
8.29101e-06
1.28969e-11
8.291e-06
1.49251e-11
8.29099e-06
7.1001e-12
8.29095e-06
5.97738e-11
8.29087e-06
9.5923e-11
8.29078e-06
1.30817e-10
8.29064e-06
1.78193e-10
8.29048e-06
2.16367e-10
8.29029e-06
2.56437e-10
8.29013e-06
2.18437e-10
8.28998e-06
1.93224e-10
8.28985e-06
1.80468e-10
8.28972e-06
1.6414e-10
8.28961e-06
1.48157e-10
8.28951e-06
1.31508e-10
8.28943e-06
1.13798e-10
8.28935e-06
9.55678e-11
8.2893e-06
7.70842e-11
8.28925e-06
5.86896e-11
8.28922e-06
4.07862e-11
8.2892e-06
2.38153e-11
8.2892e-06
8.26236e-12
8.2892e-06
-5.32805e-12
8.28922e-06
-1.65327e-11
8.28923e-06
-2.50505e-11
8.28926e-06
-3.06006e-11
8.28928e-06
-3.30731e-11
8.28931e-06
-3.2566e-11
8.28933e-06
-2.93769e-11
8.28935e-06
-2.39891e-11
8.28936e-06
-1.70651e-11
8.28937e-06
-9.38466e-12
8.28937e-06
-1.72299e-12
8.28937e-06
5.25317e-12
8.28936e-06
1.10175e-11
8.28935e-06
1.52275e-11
8.28934e-06
1.77089e-11
8.28932e-06
1.85381e-11
8.28931e-06
1.78836e-11
8.2893e-06
1.62715e-11
8.28929e-06
1.38942e-11
8.28928e-06
1.17742e-11
8.28927e-06
9.34476e-12
8.28927e-06
7.74461e-12
8.28927e-06
4.42308e-12
8.28927e-06
-4.34189e-12
8.28929e-06
-3.1364e-11
8.28934e-06
-6.05065e-11
8.28939e-06
-7.9614e-11
8.28946e-06
-8.95998e-11
8.28952e-06
-8.14902e-11
8.28957e-06
-7.11573e-11
8.28962e-06
-6.47084e-11
8.28967e-06
-6.10535e-11
8.28971e-06
-6.10043e-11
8.28976e-06
-6.36053e-11
8.28981e-06
-6.94964e-11
8.28987e-06
-7.69132e-11
8.28993e-06
-8.64462e-11
8.29e-06
-9.74551e-11
8.29008e-06
-9.88476e-11
8.29015e-06
-1.07599e-10
8.29021e-06
-7.06721e-11
8.29024e-06
-3.58966e-11
8.29028e-06
-5.60953e-11
8.29031e-06
-4.84813e-11
8.29033e-06
-2.72362e-11
8.29035e-06
-1.76773e-11
8.29036e-06
-1.66329e-11
8.29038e-06
-2.5074e-11
8.29041e-06
-4.15336e-11
8.29046e-06
-6.75833e-11
8.29053e-06
-9.75251e-11
8.29063e-06
-1.40013e-10
8.29076e-06
-1.70882e-10
8.29093e-06
-2.49193e-10
8.29102e-06
-8.48251e-11
8.2914e-06
-5.9554e-10
2.47802e-09
1.42492e-05
5.18019e-09
1.42501e-05
-2.59263e-09
1.42519e-05
-3.51588e-09
1.4253e-05
-2.05829e-09
1.42537e-05
-1.31123e-09
1.42541e-05
-7.25388e-10
1.42543e-05
-3.27438e-10
1.42543e-05
-8.22059e-11
1.42543e-05
7.75406e-11
1.42542e-05
1.76715e-10
1.42541e-05
2.34523e-10
1.42539e-05
2.63301e-10
1.42538e-05
2.70348e-10
1.42536e-05
2.60581e-10
1.42535e-05
2.3741e-10
1.42534e-05
2.03507e-10
1.42533e-05
1.61402e-10
1.42532e-05
1.13801e-10
1.42532e-05
6.35592e-11
1.42532e-05
1.33396e-11
1.42532e-05
-3.4281e-11
1.42533e-05
-7.64669e-11
1.42533e-05
-1.10389e-10
1.42534e-05
-1.33795e-10
1.42535e-05
-1.45335e-10
1.42536e-05
-1.44695e-10
1.42536e-05
-1.32604e-10
1.42537e-05
-1.10699e-10
1.42537e-05
-8.13651e-11
1.42538e-05
-4.74599e-11
1.42538e-05
-1.20515e-11
1.42538e-05
2.20969e-11
1.42538e-05
5.25839e-11
1.42537e-05
7.76168e-11
1.42537e-05
9.57532e-11
1.42536e-05
1.06817e-10
1.42535e-05
1.10196e-10
1.42535e-05
1.074e-10
1.42534e-05
9.73405e-11
1.42534e-05
8.38466e-11
1.42533e-05
6.63714e-11
1.42533e-05
4.74024e-11
1.42533e-05
4.93884e-11
1.42532e-05
3.88231e-11
1.42531e-05
1.39227e-10
1.4253e-05
2.17696e-10
1.42529e-05
2.94605e-10
1.42526e-05
3.93068e-10
1.42524e-05
4.78187e-10
1.42521e-05
5.60092e-10
1.42518e-05
4.95565e-10
1.42516e-05
4.41989e-10
1.42513e-05
4.10807e-10
1.42511e-05
3.74565e-10
1.42509e-05
3.38045e-10
1.42508e-05
2.99913e-10
1.42506e-05
2.59468e-10
1.42505e-05
2.17718e-10
1.42504e-05
1.75352e-10
1.42503e-05
1.33177e-10
1.42503e-05
9.21277e-11
1.42502e-05
5.3232e-11
1.42502e-05
1.75938e-11
1.42502e-05
-1.35785e-11
1.42503e-05
-3.93074e-11
1.42503e-05
-5.88967e-11
1.42503e-05
-7.17584e-11
1.42504e-05
-7.76663e-11
1.42504e-05
-7.68528e-11
1.42505e-05
-6.99941e-11
1.42505e-05
-5.81827e-11
1.42505e-05
-4.28975e-11
1.42505e-05
-2.58678e-11
1.42505e-05
-8.81753e-12
1.42505e-05
6.76367e-12
1.42505e-05
1.97083e-11
1.42505e-05
2.92338e-11
1.42505e-05
3.49558e-11
1.42505e-05
3.69983e-11
1.42505e-05
3.5785e-11
1.42504e-05
3.23532e-11
1.42504e-05
2.73262e-11
1.42504e-05
2.25961e-11
1.42504e-05
1.74868e-11
1.42504e-05
1.38125e-11
1.42504e-05
7.12808e-12
1.42504e-05
-1.10651e-11
1.42504e-05
-6.49424e-11
1.42505e-05
-1.25572e-10
1.42506e-05
-1.68224e-10
1.42507e-05
-1.91214e-10
1.42508e-05
-1.78255e-10
1.42509e-05
-1.5792e-10
1.4251e-05
-1.43891e-10
1.4251e-05
-1.3561e-10
1.42511e-05
-1.34543e-10
1.42512e-05
-1.39127e-10
1.42513e-05
-1.50499e-10
1.42514e-05
-1.65223e-10
1.42515e-05
-1.84878e-10
1.42516e-05
-2.06666e-10
1.42517e-05
-2.12215e-10
1.42518e-05
-2.27874e-10
1.42519e-05
-1.57679e-10
1.42519e-05
-8.79581e-11
1.4252e-05
-1.18521e-10
1.42521e-05
-1.04614e-10
1.42521e-05
-6.28574e-11
1.42521e-05
-4.04355e-11
1.42521e-05
-3.699e-11
1.42522e-05
-5.23571e-11
1.42522e-05
-8.78499e-11
1.42523e-05
-1.3845e-10
1.42524e-05
-2.08982e-10
1.42525e-05
-2.84393e-10
1.42527e-05
-3.80629e-10
1.4253e-05
-4.84589e-10
1.42532e-05
-2.88595e-10
1.42536e-05
-1.0447e-09
4.47491e-09
2.05393e-05
7.70885e-09
2.054e-05
-3.28085e-09
2.05418e-05
-5.31003e-09
2.05432e-05
-3.44802e-09
2.05441e-05
-2.22682e-09
2.05447e-05
-1.26459e-09
2.05449e-05
-5.94881e-10
2.0545e-05
-1.68775e-10
2.0545e-05
1.10821e-10
2.05449e-05
2.87521e-10
2.05447e-05
3.92865e-10
2.05445e-05
4.47375e-10
2.05443e-05
4.63546e-10
2.05441e-05
4.49779e-10
2.0544e-05
4.11973e-10
2.05438e-05
3.54797e-10
2.05437e-05
2.82675e-10
2.05436e-05
2.00328e-10
2.05436e-05
1.12733e-10
2.05436e-05
2.45675e-11
2.05436e-05
-5.95424e-11
2.05436e-05
-1.34515e-10
2.05437e-05
-1.95337e-10
2.05438e-05
-2.37979e-10
2.05439e-05
-2.59955e-10
2.05441e-05
-2.60585e-10
2.05442e-05
-2.40998e-10
2.05443e-05
-2.03934e-10
2.05443e-05
-1.53447e-10
2.05444e-05
-9.44492e-11
2.05444e-05
-3.22476e-11
2.05444e-05
2.8324e-11
2.05444e-05
8.31103e-11
2.05443e-05
1.28955e-10
2.05442e-05
1.63416e-10
2.05442e-05
1.86049e-10
2.05441e-05
1.95972e-10
2.0544e-05
1.95483e-10
2.05439e-05
1.83067e-10
2.05438e-05
1.64795e-10
2.05438e-05
1.39375e-10
2.05437e-05
1.1244e-10
2.05436e-05
1.14951e-10
2.05436e-05
1.03871e-10
2.05434e-05
2.59035e-10
2.05433e-05
3.91065e-10
2.0543e-05
5.23303e-10
2.05427e-05
6.86628e-10
2.05424e-05
8.33297e-10
2.0542e-05
9.68834e-10
2.05416e-05
8.81113e-10
2.05412e-05
7.94468e-10
2.05409e-05
7.37042e-10
2.05406e-05
6.73337e-10
2.05403e-05
6.08074e-10
2.05401e-05
5.39543e-10
2.05399e-05
4.66892e-10
2.05397e-05
3.91687e-10
2.05396e-05
3.15243e-10
2.05395e-05
2.39065e-10
2.05394e-05
1.6488e-10
2.05394e-05
9.45719e-11
2.05393e-05
3.01325e-11
2.05394e-05
-2.63084e-11
2.05394e-05
-7.29811e-11
2.05394e-05
-1.08626e-10
2.05395e-05
-1.32247e-10
2.05396e-05
-1.43476e-10
2.05396e-05
-1.42734e-10
2.05397e-05
-1.31222e-10
2.05398e-05
-1.10871e-10
2.05398e-05
-8.42773e-11
2.05398e-05
-5.44605e-11
2.05398e-05
-2.44443e-11
2.05398e-05
3.13561e-12
2.05398e-05
2.62198e-11
2.05398e-05
4.34027e-11
2.05398e-05
5.39847e-11
2.05398e-05
5.81225e-11
2.05398e-05
5.65687e-11
2.05397e-05
5.10102e-11
2.05397e-05
4.2689e-11
2.05397e-05
3.45579e-11
2.05397e-05
2.59937e-11
2.05397e-05
1.95558e-11
2.05397e-05
8.70529e-12
2.05397e-05
-2.0912e-11
2.05397e-05
-1.06417e-10
2.05398e-05
-2.05877e-10
2.05399e-05
-2.7985e-10
2.05401e-05
-3.21543e-10
2.05402e-05
-3.06032e-10
2.05403e-05
-2.7509e-10
2.05404e-05
-2.51649e-10
2.05405e-05
-2.37097e-10
2.05406e-05
-2.33931e-10
2.05407e-05
-2.40097e-10
2.05408e-05
-2.57288e-10
2.05409e-05
-2.80317e-10
2.05411e-05
-3.11819e-10
2.05412e-05
-3.46396e-10
2.05414e-05
-3.58064e-10
2.05415e-05
-3.81399e-10
2.05416e-05
-2.74378e-10
2.05417e-05
-1.63277e-10
2.05418e-05
-1.99819e-10
2.05419e-05
-1.77563e-10
2.05419e-05
-1.12111e-10
2.05419e-05
-7.24838e-11
2.0542e-05
-6.42415e-11
2.0542e-05
-8.69744e-11
2.05421e-05
-1.45141e-10
2.05421e-05
-2.26586e-10
2.05423e-05
-3.47555e-10
2.05425e-05
-4.66742e-10
2.05427e-05
-6.44911e-10
2.0543e-05
-7.82211e-10
2.05433e-05
-5.81428e-10
2.05438e-05
-1.52236e-09
6.41038e-09
2.70226e-05
9.95207e-09
2.70231e-05
-3.71791e-09
2.70247e-05
-6.91759e-09
2.70261e-05
-4.91608e-09
2.70272e-05
-3.26671e-09
2.70278e-05
-1.90816e-09
2.70282e-05
-9.35316e-10
2.70283e-05
-2.96388e-10
2.70283e-05
1.28587e-10
2.70281e-05
4.02169e-10
2.7028e-05
5.69123e-10
2.70278e-05
6.58916e-10
2.70275e-05
6.89939e-10
2.70273e-05
6.74603e-10
2.70271e-05
6.21722e-10
2.70269e-05
5.38345e-10
2.70268e-05
4.31181e-10
2.70267e-05
3.07386e-10
2.70266e-05
1.74518e-10
2.70266e-05
3.97711e-11
2.70266e-05
-8.96621e-11
2.70267e-05
-2.05897e-10
2.70268e-05
-3.01157e-10
2.70269e-05
-3.69118e-10
2.70271e-05
-4.05765e-10
2.70272e-05
-4.0981e-10
2.70274e-05
-3.8272e-10
2.70275e-05
-3.28439e-10
2.70276e-05
-2.52947e-10
2.70276e-05
-1.63582e-10
2.70277e-05
-6.83241e-11
2.70277e-05
2.54385e-11
2.70277e-05
1.1136e-10
2.70276e-05
1.84591e-10
2.70275e-05
2.41457e-10
2.70274e-05
2.81102e-10
2.70273e-05
3.02347e-10
2.70272e-05
3.08261e-10
2.70271e-05
2.97013e-10
2.7027e-05
2.76858e-10
2.70269e-05
2.45963e-10
2.70268e-05
2.13074e-10
2.70267e-05
2.17769e-10
2.70266e-05
2.08786e-10
2.70264e-05
4.22142e-10
2.70262e-05
6.14595e-10
2.70259e-05
8.1153e-10
2.70255e-05
1.04947e-09
2.70251e-05
1.26826e-09
2.70246e-05
1.46663e-09
2.70241e-05
1.36211e-09
2.70237e-05
1.24219e-09
2.70233e-05
1.15309e-09
2.70229e-05
1.0556e-09
2.70225e-05
9.54409e-10
2.70222e-05
8.47419e-10
2.7022e-05
7.33844e-10
2.70217e-05
6.15921e-10
2.70215e-05
4.95794e-10
2.70214e-05
3.75926e-10
2.70213e-05
2.59097e-10
2.70213e-05
1.48329e-10
2.70212e-05
4.67698e-11
2.70213e-05
-4.22906e-11
2.70213e-05
-1.16094e-10
2.70214e-05
-1.72663e-10
2.70214e-05
-2.10504e-10
2.70215e-05
-2.29079e-10
2.70216e-05
-2.29046e-10
2.70217e-05
-2.12252e-10
2.70218e-05
-1.81654e-10
2.70218e-05
-1.41219e-10
2.70219e-05
-9.55445e-11
2.70219e-05
-4.92545e-11
2.70219e-05
-6.42453e-12
2.70219e-05
2.97429e-11
2.70219e-05
5.70386e-11
2.70219e-05
7.43309e-11
2.70218e-05
8.17676e-11
2.70218e-05
8.04632e-11
2.70218e-05
7.28505e-11
2.70218e-05
6.09313e-11
2.70218e-05
4.88727e-11
2.70218e-05
3.62568e-11
2.70217e-05
2.64873e-11
2.70217e-05
1.08656e-11
2.70218e-05
-3.12956e-11
2.70218e-05
-1.50741e-10
2.70219e-05
-2.93409e-10
2.7022e-05
-4.04537e-10
2.70222e-05
-4.70275e-10
2.70223e-05
-4.55919e-10
2.70225e-05
-4.15754e-10
2.70226e-05
-3.8249e-10
2.70227e-05
-3.60708e-10
2.70228e-05
-3.54471e-10
2.70229e-05
-3.61492e-10
2.70231e-05
-3.84104e-10
2.70232e-05
-4.15525e-10
2.70234e-05
-4.59384e-10
2.70235e-05
-5.07707e-10
2.70237e-05
-5.26881e-10
2.70239e-05
-5.58449e-10
2.7024e-05
-4.14238e-10
2.70241e-05
-2.59081e-10
2.70242e-05
-2.97027e-10
2.70243e-05
-2.64201e-10
2.70243e-05
-1.73609e-10
2.70244e-05
-1.13952e-10
2.70244e-05
-9.84744e-11
2.70245e-05
-1.28163e-10
2.70245e-05
-2.10345e-10
2.70246e-05
-3.2715e-10
2.70248e-05
-5.03744e-10
2.7025e-05
-6.77184e-10
2.70253e-05
-9.44393e-10
2.70256e-05
-1.12972e-09
2.7026e-05
-9.43381e-10
2.70265e-05
-2.00529e-09
8.03963e-09
3.34394e-05
1.16901e-08
3.34396e-05
-3.97311e-09
3.34409e-05
-8.20918e-09
3.34423e-05
-6.28726e-09
3.34433e-05
-4.32774e-09
3.3444e-05
-2.61082e-09
3.34444e-05
-1.337e-09
3.34446e-05
-4.72197e-10
3.34446e-05
1.1422e-10
3.34445e-05
4.99718e-10
3.34444e-05
7.40964e-10
3.34441e-05
8.75995e-10
3.34439e-05
9.29117e-10
3.34437e-05
9.16869e-10
3.34434e-05
8.51146e-10
3.34432e-05
7.41579e-10
3.34431e-05
5.97398e-10
3.34429e-05
4.28475e-10
3.34429e-05
2.4527e-10
3.34429e-05
5.79073e-11
3.34429e-05
-1.23443e-10
3.3443e-05
-2.87675e-10
3.34431e-05
-4.23766e-10
3.34432e-05
-5.22626e-10
3.34434e-05
-5.78313e-10
3.34436e-05
-5.88634e-10
3.34438e-05
-5.55222e-10
3.34439e-05
-4.83187e-10
3.34441e-05
-3.80527e-10
3.34441e-05
-2.57208e-10
3.34442e-05
-1.24151e-10
3.34442e-05
8.35126e-12
3.34442e-05
1.31378e-10
3.34441e-05
2.3809e-10
3.34441e-05
3.23366e-10
3.3444e-05
3.85778e-10
3.34438e-05
4.23776e-10
3.34437e-05
4.4111e-10
3.34436e-05
4.35691e-10
3.34434e-05
4.1778e-10
3.34433e-05
3.85148e-10
3.34432e-05
3.49381e-10
3.3443e-05
3.58417e-10
3.34429e-05
3.53791e-10
3.34427e-05
6.25592e-10
3.34424e-05
8.80972e-10
3.34421e-05
1.14719e-09
3.34416e-05
1.46479e-09
3.34412e-05
1.76183e-09
3.34406e-05
2.02926e-09
3.344e-05
1.9157e-09
3.34395e-05
1.7658e-09
3.3439e-05
1.64304e-09
3.34386e-05
1.50782e-09
3.34382e-05
1.36556e-09
3.34378e-05
1.21397e-09
3.34375e-05
1.05261e-09
3.34372e-05
8.84529e-10
3.3437e-05
7.12916e-10
3.34368e-05
5.41431e-10
3.34367e-05
3.74167e-10
3.34366e-05
2.15528e-10
3.34366e-05
7.00566e-11
3.34366e-05
-5.76076e-11
3.34367e-05
-1.63593e-10
3.34368e-05
-2.45099e-10
3.34368e-05
-3.00061e-10
3.34369e-05
-3.27755e-10
3.3437e-05
-3.29101e-10
3.34371e-05
-3.06668e-10
3.34372e-05
-2.64569e-10
3.34373e-05
-2.08309e-10
3.34373e-05
-1.44265e-10
3.34374e-05
-7.88841e-11
3.34374e-05
-1.79072e-11
3.34374e-05
3.4093e-11
3.34374e-05
7.39253e-11
3.34373e-05
9.99059e-11
3.34373e-05
1.12106e-10
3.34373e-05
1.11988e-10
3.34372e-05
1.02769e-10
3.34372e-05
8.72929e-11
3.34372e-05
7.10374e-11
3.34372e-05
5.3929e-11
3.34372e-05
4.03149e-11
3.34371e-05
1.94458e-11
3.34372e-05
-3.56905e-11
3.34372e-05
-1.89487e-10
3.34373e-05
-3.77195e-10
3.34374e-05
-5.29257e-10
3.34376e-05
-6.23659e-10
3.34377e-05
-6.15074e-10
3.34379e-05
-5.68817e-10
3.3438e-05
-5.27006e-10
3.34381e-05
-4.98161e-10
3.34383e-05
-4.88446e-10
3.34384e-05
-4.95698e-10
3.34386e-05
-5.2306e-10
3.34387e-05
-5.62431e-10
3.34389e-05
-6.18428e-10
3.3439e-05
-6.80763e-10
3.34392e-05
-7.08509e-10
3.34394e-05
-7.4917e-10
3.34396e-05
-5.70047e-10
3.34397e-05
-3.71475e-10
3.34398e-05
-4.07637e-10
3.34399e-05
-3.62851e-10
3.344e-05
-2.47181e-10
3.344e-05
-1.66362e-10
3.34401e-05
-1.41873e-10
3.34401e-05
-1.77519e-10
3.34402e-05
-2.83436e-10
3.34403e-05
-4.3764e-10
3.34405e-05
-6.71845e-10
3.34407e-05
-9.06475e-10
3.3441e-05
-1.26534e-09
3.34414e-05
-1.51196e-09
3.34418e-05
-1.35707e-09
3.34423e-05
-2.49213e-09
9.22722e-09
3.95335e-05
1.28409e-08
3.95336e-05
-4.13063e-09
3.95346e-05
-9.1733e-09
3.95357e-05
-7.45669e-09
3.95367e-05
-5.32014e-09
3.95375e-05
-3.32229e-09
3.95379e-05
-1.78068e-09
3.95381e-05
-6.97406e-10
3.95382e-05
5.47263e-11
3.95381e-05
5.60973e-10
3.9538e-05
8.86449e-10
3.95378e-05
1.07612e-09
3.95375e-05
1.15943e-09
3.95373e-05
1.15672e-09
3.95371e-05
1.08281e-09
3.95369e-05
9.49902e-10
3.95367e-05
7.69806e-10
3.95366e-05
5.55227e-10
3.95365e-05
3.19703e-10
3.95365e-05
7.65444e-11
3.95365e-05
-1.60783e-10
3.95366e-05
-3.77633e-10
3.95367e-05
-5.59385e-10
3.95369e-05
-6.93803e-10
3.95371e-05
-7.72649e-10
3.95373e-05
-7.92497e-10
3.95375e-05
-7.54885e-10
3.95377e-05
-6.65924e-10
3.95378e-05
-5.35569e-10
3.9538e-05
-3.76443e-10
3.9538e-05
-2.02519e-10
3.95381e-05
-2.71992e-11
3.95381e-05
1.37751e-10
3.9538e-05
2.83249e-10
3.95379e-05
4.02528e-10
3.95378e-05
4.93405e-10
3.95377e-05
5.53835e-10
3.95376e-05
5.88097e-10
3.95374e-05
5.93811e-10
3.95372e-05
5.8301e-10
3.95371e-05
5.53079e-10
3.95369e-05
5.18082e-10
3.95367e-05
5.33775e-10
3.95365e-05
5.35116e-10
3.95363e-05
8.6336e-10
3.9536e-05
1.18075e-09
3.95356e-05
1.51656e-09
3.95352e-05
1.91455e-09
3.95347e-05
2.29191e-09
3.95341e-05
2.63181e-09
3.95335e-05
2.51678e-09
3.95329e-05
2.34216e-09
3.95323e-05
2.18684e-09
3.95318e-05
2.01266e-09
3.95314e-05
1.82658e-09
3.9531e-05
1.62659e-09
3.95306e-05
1.41288e-09
3.95303e-05
1.1895e-09
3.953e-05
9.60912e-10
3.95298e-05
7.32203e-10
3.95297e-05
5.09001e-10
3.95296e-05
2.97293e-10
3.95296e-05
1.03186e-10
3.95296e-05
-6.72076e-11
3.95297e-05
-2.08827e-10
3.95297e-05
-3.18001e-10
3.95298e-05
-3.92069e-10
3.95299e-05
-4.30109e-10
3.953e-05
-4.33312e-10
3.95301e-05
-4.05003e-10
3.95302e-05
-3.50511e-10
3.95303e-05
-2.76959e-10
3.95303e-05
-1.9262e-10
3.95304e-05
-1.05887e-10
3.95304e-05
-2.43247e-11
3.95303e-05
4.59554e-11
3.95303e-05
1.00621e-10
3.95303e-05
1.3731e-10
3.95302e-05
1.55924e-10
3.95302e-05
1.5822e-10
3.95301e-05
1.48178e-10
3.95301e-05
1.2951e-10
3.95301e-05
1.09037e-10
3.953e-05
8.71426e-11
3.953e-05
6.92107e-11
3.953e-05
4.26809e-11
3.953e-05
-2.54541e-11
3.953e-05
-2.12882e-10
3.95301e-05
-4.45729e-10
3.95302e-05
-6.4078e-10
3.95303e-05
-7.6755e-10
3.95305e-05
-7.6961e-10
3.95306e-05
-7.21535e-10
3.95308e-05
-6.7392e-10
3.95309e-05
-6.3942e-10
3.95311e-05
-6.26659e-10
3.95312e-05
-6.33983e-10
3.95313e-05
-6.65578e-10
3.95315e-05
-7.12365e-10
3.95316e-05
-7.80051e-10
3.95318e-05
-8.564e-10
3.9532e-05
-8.93721e-10
3.95322e-05
-9.44862e-10
3.95324e-05
-7.34886e-10
3.95325e-05
-4.95967e-10
3.95326e-05
-5.29244e-10
3.95327e-05
-4.72561e-10
3.95328e-05
-3.33181e-10
3.95329e-05
-2.31623e-10
3.95329e-05
-1.97412e-10
3.9533e-05
-2.37973e-10
3.95331e-05
-3.66532e-10
3.95332e-05
-5.58088e-10
3.95334e-05
-8.49887e-10
3.95336e-05
-1.14862e-09
3.95339e-05
-1.59981e-09
3.95344e-05
-1.91652e-09
3.95348e-05
-1.8094e-09
3.95353e-05
-2.99178e-09
9.92487e-09
4.51894e-05
1.34047e-08
4.51896e-05
-4.27829e-09
4.51903e-05
-9.87621e-09
4.51912e-05
-8.39936e-09
4.51921e-05
-6.18954e-09
4.51928e-05
-3.99702e-09
4.51932e-05
-2.23904e-09
4.51935e-05
-9.61329e-10
4.51936e-05
-5.10603e-11
4.51936e-05
5.77179e-10
4.51935e-05
9.9242e-10
4.51933e-05
1.24393e-09
4.51931e-05
1.36488e-09
4.51929e-05
1.37858e-09
4.51927e-05
1.30234e-09
4.51925e-05
1.15069e-09
4.51923e-05
9.37903e-10
4.51922e-05
6.79477e-10
4.51921e-05
3.92052e-10
4.51921e-05
9.22244e-11
4.51921e-05
-2.03031e-10
4.51922e-05
-4.75269e-10
4.51924e-05
-7.06028e-10
4.51926e-05
-8.79654e-10
4.51928e-05
-9.85297e-10
4.5193e-05
-1.01797e-09
4.51932e-05
-9.7882e-10
4.51934e-05
-8.74698e-10
4.51936e-05
-7.17342e-10
4.51937e-05
-5.21942e-10
4.51939e-05
-3.05503e-10
4.51939e-05
-8.46201e-11
4.51939e-05
1.25947e-10
4.51939e-05
3.14702e-10
4.51938e-05
4.73047e-10
4.51937e-05
5.97858e-10
4.51936e-05
6.8643e-10
4.51934e-05
7.43385e-10
4.51933e-05
7.65925e-10
4.51931e-05
7.67611e-10
4.51929e-05
7.4531e-10
4.51927e-05
7.15201e-10
4.51925e-05
7.40155e-10
4.51923e-05
7.48839e-10
4.5192e-05
1.13085e-09
4.51917e-05
1.50757e-09
4.51913e-05
1.91059e-09
4.51908e-05
2.38679e-09
4.51902e-05
2.84359e-09
4.51896e-05
3.25695e-09
4.5189e-05
3.14646e-09
4.51884e-05
2.95254e-09
4.51878e-05
2.76751e-09
4.51873e-05
2.55514e-09
4.51868e-05
2.32442e-09
4.51863e-05
2.07411e-09
4.51859e-05
1.80531e-09
4.51856e-05
1.52336e-09
4.51853e-05
1.23421e-09
4.51851e-05
9.44594e-10
4.51849e-05
6.61882e-10
4.51849e-05
3.93796e-10
4.51848e-05
1.48113e-10
4.51848e-05
-6.7518e-11
4.51848e-05
-2.46808e-10
4.51849e-05
-3.85205e-10
4.5185e-05
-4.79468e-10
4.51851e-05
-5.28486e-10
4.51852e-05
-5.3373e-10
4.51853e-05
-4.99281e-10
4.51854e-05
-4.31693e-10
4.51854e-05
-3.39731e-10
4.51855e-05
-2.336e-10
4.51855e-05
-1.23704e-10
4.51855e-05
-1.95128e-11
4.51855e-05
7.12104e-11
4.51854e-05
1.42869e-10
4.51854e-05
1.92293e-10
4.51853e-05
2.19113e-10
4.51852e-05
2.2529e-10
4.51852e-05
2.15508e-10
4.51851e-05
1.94324e-10
4.5185e-05
1.69884e-10
4.5185e-05
1.43111e-10
4.51849e-05
1.20503e-10
4.51849e-05
8.79825e-11
4.51849e-05
6.98764e-12
4.51849e-05
-2.1297e-10
4.51849e-05
-4.90206e-10
4.5185e-05
-7.29123e-10
4.51851e-05
-8.90983e-10
4.51853e-05
-9.08124e-10
4.51854e-05
-8.62778e-10
4.51855e-05
-8.12918e-10
4.51857e-05
-7.75089e-10
4.51858e-05
-7.60495e-10
4.51859e-05
-7.6829e-10
4.51861e-05
-8.03956e-10
4.51862e-05
-8.57787e-10
4.51864e-05
-9.36769e-10
4.51866e-05
-1.02711e-09
4.51867e-05
-1.07499e-09
4.51869e-05
-1.13833e-09
4.51871e-05
-9.02125e-10
4.51872e-05
-6.27161e-10
4.51874e-05
-6.58415e-10
4.51875e-05
-5.9131e-10
4.51876e-05
-4.30549e-10
4.51876e-05
-3.09861e-10
4.51877e-05
-2.6635e-10
4.51878e-05
-3.11293e-10
4.51879e-05
-4.61406e-10
4.5188e-05
-6.89271e-10
4.51882e-05
-1.03769e-09
4.51885e-05
-1.40075e-09
4.51888e-05
-1.9441e-09
4.51892e-05
-2.33559e-09
4.51897e-05
-2.29274e-09
4.51902e-05
-3.50913e-09
1.01508e-08
5.04233e-05
1.34217e-08
5.04235e-05
-4.49031e-09
5.04241e-05
-1.04118e-08
5.04248e-05
-9.14609e-09
5.04255e-05
-6.92122e-09
5.04262e-05
-4.6051e-09
5.04266e-05
-2.68458e-09
5.04269e-05
-1.24522e-09
5.0427e-05
-1.93389e-10
5.0427e-05
5.50813e-10
5.0427e-05
1.0561e-09
5.04269e-05
1.37318e-09
5.04267e-05
1.53713e-09
5.04265e-05
1.5731e-09
5.04263e-05
1.50022e-09
5.04261e-05
1.33489e-09
5.0426e-05
1.09356e-09
5.04258e-05
7.94356e-10
5.04258e-05
4.56914e-10
5.04258e-05
1.01079e-10
5.04258e-05
-2.52555e-10
5.04259e-05
-5.81556e-10
5.04261e-05
-8.63465e-10
5.04263e-05
-1.07902e-09
5.04265e-05
-1.21452e-09
5.04267e-05
-1.26312e-09
5.0427e-05
-1.22526e-09
5.04272e-05
-1.10825e-09
5.04274e-05
-9.25371e-10
5.04276e-05
-6.94193e-10
5.04277e-05
-4.34652e-10
5.04278e-05
-1.66519e-10
5.04279e-05
9.23947e-11
5.04278e-05
3.28088e-10
5.04278e-05
5.29997e-10
5.04277e-05
6.9388e-10
5.04276e-05
8.162e-10
5.04274e-05
9.01709e-10
5.04272e-05
9.47018e-10
5.0427e-05
9.66945e-10
5.04268e-05
9.57625e-10
5.04266e-05
9.37001e-10
5.04264e-05
9.74294e-10
5.04261e-05
9.91961e-10
5.04258e-05
1.42564e-09
5.04255e-05
1.85876e-09
5.0425e-05
2.32555e-09
5.04246e-05
2.87636e-09
5.0424e-05
3.41002e-09
5.04234e-05
3.89604e-09
5.04227e-05
3.79382e-09
5.04221e-05
3.58489e-09
5.04215e-05
3.37332e-09
5.04209e-05
3.1244e-09
5.04204e-05
2.8493e-09
5.04199e-05
2.54784e-09
5.04195e-05
2.22236e-09
5.04191e-05
1.87974e-09
5.04188e-05
1.52765e-09
5.04186e-05
1.17473e-09
5.04184e-05
8.30244e-10
5.04183e-05
5.03793e-10
5.04183e-05
2.04874e-10
5.04183e-05
-5.73188e-11
5.04183e-05
-2.7526e-10
5.04183e-05
-4.43535e-10
5.04184e-05
-5.58358e-10
5.04185e-05
-6.18465e-10
5.04186e-05
-6.25613e-10
5.04187e-05
-5.84636e-10
5.04188e-05
-5.03294e-10
5.04188e-05
-3.91981e-10
5.04188e-05
-2.62822e-10
5.04188e-05
-1.28247e-10
5.04188e-05
3.30331e-13
5.04188e-05
1.13443e-10
5.04187e-05
2.04133e-10
5.04186e-05
2.68312e-10
5.04186e-05
3.05225e-10
5.04185e-05
3.16946e-10
5.04184e-05
3.08772e-10
5.04183e-05
2.86043e-10
5.04182e-05
2.5819e-10
5.04181e-05
2.26708e-10
5.0418e-05
1.99278e-10
5.0418e-05
1.60595e-10
5.04179e-05
6.69499e-11
5.04179e-05
-1.84485e-10
5.04179e-05
-5.05143e-10
5.04179e-05
-7.88143e-10
5.0418e-05
-9.86943e-10
5.04182e-05
-1.02274e-09
5.04183e-05
-9.84246e-10
5.04184e-05
-9.35794e-10
5.04185e-05
-8.97354e-10
5.04186e-05
-8.82616e-10
5.04188e-05
-8.91715e-10
5.04189e-05
-9.31641e-10
5.0419e-05
-9.92377e-10
5.04192e-05
-1.08243e-09
5.04193e-05
-1.1868e-09
5.04195e-05
-1.24622e-09
5.04197e-05
-1.32357e-09
5.04199e-05
-1.06543e-09
5.042e-05
-7.5894e-10
5.04201e-05
-7.90423e-10
5.04202e-05
-7.1542e-10
5.04204e-05
-5.36217e-10
5.04204e-05
-3.98802e-10
5.04205e-05
-3.47377e-10
5.04206e-05
-3.9696e-10
5.04207e-05
-5.68078e-10
5.04209e-05
-8.31177e-10
5.04211e-05
-1.23507e-09
5.04213e-05
-1.66154e-09
5.04217e-05
-2.29661e-09
5.04221e-05
-2.76477e-09
5.04226e-05
-2.8034e-09
5.04231e-05
-4.04399e-09
9.95765e-09
5.53071e-05
1.29485e-08
5.53075e-05
-4.81436e-09
5.53079e-05
-1.08649e-08
5.53085e-05
-9.75123e-09
5.53091e-05
-7.53006e-09
5.53097e-05
-5.13658e-09
5.53101e-05
-3.09826e-09
5.53104e-05
-1.53047e-09
5.53105e-05
-3.58021e-10
5.53106e-05
4.90931e-10
5.53106e-05
1.08185e-09
5.53105e-05
1.46447e-09
5.53103e-05
1.674e-09
5.53102e-05
1.73624e-09
5.531e-05
1.67127e-09
5.53098e-05
1.49681e-09
5.53097e-05
1.2311e-09
5.53096e-05
8.94603e-10
5.53095e-05
5.09724e-10
5.53095e-05
9.94297e-11
5.53096e-05
-3.12053e-10
5.53097e-05
-6.98201e-10
5.53099e-05
-1.03248e-09
5.53101e-05
-1.29191e-09
5.53103e-05
-1.45973e-09
5.53106e-05
-1.52701e-09
5.53109e-05
-1.49321e-09
5.53111e-05
-1.3658e-09
5.53114e-05
-1.15933e-09
5.53116e-05
-8.93514e-10
5.53117e-05
-5.91055e-10
5.53118e-05
-2.7481e-10
5.53119e-05
3.43753e-11
5.53119e-05
3.19964e-10
5.53119e-05
5.69358e-10
5.53118e-05
7.77053e-10
5.53117e-05
9.3851e-10
5.53115e-05
1.05839e-09
5.53113e-05
1.13252e-09
5.53111e-05
1.17668e-09
5.53109e-05
1.18601e-09
5.53106e-05
1.17988e-09
5.53104e-05
1.23309e-09
5.53101e-05
1.26184e-09
5.53098e-05
1.74622e-09
5.53094e-05
2.23339e-09
5.5309e-05
2.76053e-09
5.53085e-05
3.38201e-09
5.53079e-05
3.98928e-09
5.53072e-05
4.54606e-09
5.53066e-05
4.45364e-09
5.53059e-05
4.23234e-09
5.53053e-05
3.99672e-09
5.53047e-05
3.71289e-09
5.53042e-05
3.39395e-09
5.53037e-05
3.04095e-09
5.53032e-05
2.65772e-09
5.53029e-05
2.25291e-09
5.53026e-05
1.83622e-09
5.53023e-05
1.41838e-09
5.53021e-05
1.01074e-09
5.5302e-05
6.24848e-10
5.53019e-05
2.7195e-10
5.53019e-05
-3.72522e-11
5.53019e-05
-2.94032e-10
5.5302e-05
-4.9214e-10
5.53021e-05
-6.27311e-10
5.53021e-05
-6.98167e-10
5.53022e-05
-7.06773e-10
5.53023e-05
-6.58706e-10
5.53024e-05
-5.62908e-10
5.53024e-05
-4.31362e-10
5.53024e-05
-2.78085e-10
5.53024e-05
-1.17509e-10
5.53024e-05
3.70172e-11
5.53023e-05
1.74302e-10
5.53022e-05
2.85959e-10
5.53021e-05
3.66886e-10
5.5302e-05
4.15845e-10
5.53019e-05
4.34922e-10
5.53018e-05
4.29923e-10
5.53017e-05
4.069e-10
5.53015e-05
3.76488e-10
5.53014e-05
3.40765e-10
5.53013e-05
3.08645e-10
5.53012e-05
2.63854e-10
5.53011e-05
1.57858e-10
5.53011e-05
-1.24183e-10
5.5301e-05
-4.87396e-10
5.53011e-05
-8.14413e-10
5.53011e-05
-1.05135e-09
5.53012e-05
-1.10845e-09
5.53013e-05
-1.08013e-09
5.53014e-05
-1.03632e-09
5.53015e-05
-9.99898e-10
5.53016e-05
-9.86818e-10
5.53017e-05
-9.98254e-10
5.53018e-05
-1.04286e-09
5.5302e-05
-1.11057e-09
5.53021e-05
-1.21166e-09
5.53022e-05
-1.33021e-09
5.53024e-05
-1.40215e-09
5.53026e-05
-1.49534e-09
5.53027e-05
-1.21892e-09
5.53028e-05
-8.85068e-10
5.5303e-05
-9.19826e-10
5.53031e-05
-8.4009e-10
5.53032e-05
-6.45716e-10
5.53033e-05
-4.94456e-10
5.53034e-05
-4.37214e-10
5.53035e-05
-4.92495e-10
5.53036e-05
-6.84809e-10
5.53037e-05
-9.82568e-10
5.5304e-05
-1.44111e-09
5.53042e-05
-1.92989e-09
5.53046e-05
-2.65638e-09
5.5305e-05
-3.20155e-09
5.53056e-05
-3.33953e-09
5.53061e-05
-4.59493e-09
9.40496e-09
5.99195e-05
1.20434e-08
5.99199e-05
-5.27309e-09
5.99204e-05
-1.12969e-08
5.99209e-05
-1.02692e-08
5.99214e-05
-8.04558e-09
5.99219e-05
-5.59791e-09
5.99222e-05
-3.47264e-09
5.99225e-05
-1.80428e-09
5.99227e-05
-5.31961e-10
5.99228e-05