/*--------------------------------*- C++ -*----------------------------------*\
  =========                 |
  \\      /  F ield         | OpenFOAM: The Open Source CFD Toolbox
   \\    /   O peration     | Website:  https://openfoam.org
    \\  /    A nd           | Version:  7
     \\/     M anipulation  |
\*---------------------------------------------------------------------------*/
FoamFile
{
    version     2.0;
    format      ascii;
    class       volScalarField;
    location    "2000";
    object      k;
}
// * * * * * * * * * * * * * * * * * * * * * * * * * * * * * * * * * * * * * //

dimensions      [0 2 -2 0 0 0 0];

internalField   nonuniform List<scalar> 
24000
(
8.02368e-09
8.02368e-09
8.02365e-09
8.02359e-09
8.02355e-09
8.02351e-09
8.02349e-09
8.02347e-09
8.02347e-09
8.02348e-09
8.0235e-09
8.02353e-09
8.02356e-09
8.02361e-09
8.02366e-09
8.02371e-09
8.02377e-09
8.02383e-09
8.02389e-09
8.02395e-09
8.02402e-09
8.02408e-09
8.02414e-09
8.02421e-09
8.02427e-09
8.02433e-09
8.0244e-09
8.02446e-09
8.02452e-09
8.02458e-09
8.02464e-09
8.0247e-09
8.02476e-09
8.02482e-09
8.02487e-09
8.02493e-09
8.02498e-09
8.02503e-09
8.02508e-09
8.02512e-09
8.02516e-09
8.0252e-09
8.02521e-09
8.02523e-09
8.02521e-09
8.02517e-09
8.02519e-09
8.02523e-09
8.02527e-09
8.02532e-09
8.02537e-09
8.02541e-09
8.02545e-09
8.02548e-09
8.02551e-09
8.02554e-09
8.02557e-09
8.0256e-09
8.02565e-09
8.0257e-09
8.02575e-09
8.02581e-09
8.02587e-09
8.02592e-09
8.02598e-09
8.02603e-09
8.02608e-09
8.02612e-09
8.02615e-09
8.02617e-09
8.02619e-09
8.02621e-09
8.02621e-09
8.02621e-09
8.0262e-09
8.02619e-09
8.02617e-09
8.02615e-09
8.02613e-09
8.02609e-09
8.02606e-09
8.02602e-09
8.02598e-09
8.02594e-09
8.02589e-09
8.02584e-09
8.02579e-09
8.02574e-09
8.02568e-09
8.02563e-09
8.02558e-09
8.02553e-09
8.02548e-09
8.02542e-09
8.02536e-09
8.0253e-09
8.02524e-09
8.02517e-09
8.02509e-09
8.02501e-09
8.02493e-09
8.02482e-09
8.02472e-09
8.02459e-09
8.02444e-09
8.02437e-09
8.02432e-09
8.02428e-09
8.02426e-09
8.02423e-09
8.02421e-09
8.02419e-09
8.02417e-09
8.02415e-09
8.02413e-09
8.02412e-09
8.02411e-09
8.02406e-09
8.02406e-09
8.02386e-09
2.58032e-07
2.58032e-07
2.58031e-07
2.58029e-07
2.58028e-07
2.58026e-07
2.58026e-07
2.58025e-07
2.58025e-07
2.58025e-07
2.58026e-07
2.58027e-07
2.58028e-07
2.58029e-07
2.58031e-07
2.58033e-07
2.58035e-07
2.58036e-07
2.58038e-07
2.58041e-07
2.58043e-07
2.58045e-07
2.58047e-07
2.58049e-07
2.58051e-07
2.58053e-07
2.58055e-07
2.58057e-07
2.58059e-07
2.58061e-07
2.58063e-07
2.58065e-07
2.58066e-07
2.58068e-07
2.5807e-07
2.58072e-07
2.58074e-07
2.58075e-07
2.58077e-07
2.58078e-07
2.58079e-07
2.58081e-07
2.58081e-07
2.58082e-07
2.58081e-07
2.5808e-07
2.5808e-07
2.58081e-07
2.58083e-07
2.58084e-07
2.58086e-07
2.58087e-07
2.58089e-07
2.5809e-07
2.5809e-07
2.58091e-07
2.58092e-07
2.58094e-07
2.58095e-07
2.58097e-07
2.58098e-07
2.581e-07
2.58102e-07
2.58104e-07
2.58106e-07
2.58107e-07
2.58109e-07
2.5811e-07
2.58111e-07
2.58112e-07
2.58113e-07
2.58113e-07
2.58113e-07
2.58113e-07
2.58113e-07
2.58112e-07
2.58112e-07
2.58111e-07
2.5811e-07
2.58109e-07
2.58108e-07
2.58107e-07
2.58106e-07
2.58104e-07
2.58103e-07
2.58101e-07
2.58099e-07
2.58098e-07
2.58096e-07
2.58095e-07
2.58093e-07
2.58091e-07
2.5809e-07
2.58088e-07
2.58086e-07
2.58084e-07
2.58082e-07
2.5808e-07
2.58077e-07
2.58075e-07
2.58072e-07
2.58068e-07
2.58065e-07
2.58061e-07
2.58056e-07
2.58054e-07
2.58052e-07
2.58051e-07
2.5805e-07
2.58049e-07
2.58049e-07
2.58048e-07
2.58047e-07
2.58047e-07
2.58046e-07
2.58046e-07
2.58045e-07
2.58044e-07
2.58044e-07
2.58038e-07
1.87291e-06
1.87291e-06
1.8729e-06
1.87289e-06
1.87288e-06
1.87287e-06
1.87287e-06
1.87286e-06
1.87286e-06
1.87286e-06
1.87287e-06
1.87288e-06
1.87288e-06
1.87289e-06
1.87291e-06
1.87292e-06
1.87293e-06
1.87295e-06
1.87296e-06
1.87297e-06
1.87299e-06
1.873e-06
1.87302e-06
1.87303e-06
1.87305e-06
1.87306e-06
1.87308e-06
1.87309e-06
1.87311e-06
1.87312e-06
1.87314e-06
1.87315e-06
1.87316e-06
1.87318e-06
1.87319e-06
1.8732e-06
1.87321e-06
1.87323e-06
1.87324e-06
1.87325e-06
1.87326e-06
1.87326e-06
1.87327e-06
1.87327e-06
1.87327e-06
1.87326e-06
1.87326e-06
1.87327e-06
1.87328e-06
1.87329e-06
1.8733e-06
1.87331e-06
1.87332e-06
1.87333e-06
1.87334e-06
1.87334e-06
1.87335e-06
1.87336e-06
1.87337e-06
1.87338e-06
1.87339e-06
1.87341e-06
1.87342e-06
1.87343e-06
1.87345e-06
1.87346e-06
1.87347e-06
1.87348e-06
1.87349e-06
1.87349e-06
1.8735e-06
1.8735e-06
1.8735e-06
1.8735e-06
1.8735e-06
1.8735e-06
1.87349e-06
1.87349e-06
1.87348e-06
1.87347e-06
1.87346e-06
1.87346e-06
1.87345e-06
1.87344e-06
1.87343e-06
1.87341e-06
1.8734e-06
1.87339e-06
1.87338e-06
1.87337e-06
1.87335e-06
1.87334e-06
1.87333e-06
1.87332e-06
1.8733e-06
1.87329e-06
1.87327e-06
1.87326e-06
1.87324e-06
1.87322e-06
1.8732e-06
1.87318e-06
1.87315e-06
1.87312e-06
1.87309e-06
1.87307e-06
1.87306e-06
1.87305e-06
1.87304e-06
1.87304e-06
1.87303e-06
1.87303e-06
1.87302e-06
1.87302e-06
1.87302e-06
1.87301e-06
1.87301e-06
1.873e-06
1.873e-06
1.87296e-06
6.90878e-06
6.90876e-06
6.90873e-06
6.90869e-06
6.90865e-06
6.90862e-06
6.9086e-06
6.90859e-06
6.90859e-06
6.90859e-06
6.90861e-06
6.90864e-06
6.90867e-06
6.9087e-06
6.90875e-06
6.90879e-06
6.90884e-06
6.90889e-06
6.90895e-06
6.909e-06
6.90905e-06
6.90911e-06
6.90916e-06
6.90922e-06
6.90927e-06
6.90933e-06
6.90938e-06
6.90943e-06
6.90948e-06
6.90954e-06
6.90959e-06
6.90964e-06
6.90969e-06
6.90973e-06
6.90978e-06
6.90983e-06
6.90987e-06
6.90992e-06
6.90996e-06
6.91e-06
6.91003e-06
6.91006e-06
6.91007e-06
6.91009e-06
6.91007e-06
6.91004e-06
6.91006e-06
6.91009e-06
6.91013e-06
6.91016e-06
6.9102e-06
6.91024e-06
6.91027e-06
6.9103e-06
6.91032e-06
6.91035e-06
6.91037e-06
6.91041e-06
6.91044e-06
6.91048e-06
6.91053e-06
6.91058e-06
6.91063e-06
6.91068e-06
6.91072e-06
6.91077e-06
6.91081e-06
6.91084e-06
6.91087e-06
6.91089e-06
6.9109e-06
6.91091e-06
6.91092e-06
6.91092e-06
6.91091e-06
6.9109e-06
6.91088e-06
6.91086e-06
6.91084e-06
6.91082e-06
6.91079e-06
6.91075e-06
6.91072e-06
6.91068e-06
6.91064e-06
6.9106e-06
6.91055e-06
6.91051e-06
6.91047e-06
6.91042e-06
6.91038e-06
6.91034e-06
6.91029e-06
6.91024e-06
6.91019e-06
6.91014e-06
6.91008e-06
6.91002e-06
6.90996e-06
6.90989e-06
6.90982e-06
6.90973e-06
6.90965e-06
6.90954e-06
6.90942e-06
6.90935e-06
6.9093e-06
6.90927e-06
6.90925e-06
6.90923e-06
6.90921e-06
6.90919e-06
6.90917e-06
6.90916e-06
6.90915e-06
6.90913e-06
6.90912e-06
6.90909e-06
6.90909e-06
6.90895e-06
1.75195e-05
1.75193e-05
1.75193e-05
1.75192e-05
1.75191e-05
1.7519e-05
1.7519e-05
1.75189e-05
1.75189e-05
1.7519e-05
1.7519e-05
1.75191e-05
1.75192e-05
1.75193e-05
1.75194e-05
1.75195e-05
1.75196e-05
1.75197e-05
1.75199e-05
1.752e-05
1.75201e-05
1.75203e-05
1.75204e-05
1.75205e-05
1.75207e-05
1.75208e-05
1.75209e-05
1.75211e-05
1.75212e-05
1.75213e-05
1.75214e-05
1.75216e-05
1.75217e-05
1.75218e-05
1.75219e-05
1.7522e-05
1.75221e-05
1.75222e-05
1.75223e-05
1.75224e-05
1.75225e-05
1.75226e-05
1.75226e-05
1.75227e-05
1.75226e-05
1.75226e-05
1.75226e-05
1.75227e-05
1.75228e-05
1.75229e-05
1.7523e-05
1.7523e-05
1.75231e-05
1.75232e-05
1.75232e-05
1.75233e-05
1.75234e-05
1.75234e-05
1.75235e-05
1.75236e-05
1.75238e-05
1.75239e-05
1.7524e-05
1.75241e-05
1.75242e-05
1.75243e-05
1.75244e-05
1.75245e-05
1.75246e-05
1.75246e-05
1.75247e-05
1.75247e-05
1.75247e-05
1.75247e-05
1.75247e-05
1.75246e-05
1.75246e-05
1.75246e-05
1.75245e-05
1.75244e-05
1.75244e-05
1.75243e-05
1.75242e-05
1.75241e-05
1.7524e-05
1.75239e-05
1.75238e-05
1.75237e-05
1.75236e-05
1.75234e-05
1.75233e-05
1.75232e-05
1.75231e-05
1.7523e-05
1.75229e-05
1.75227e-05
1.75226e-05
1.75225e-05
1.75223e-05
1.75221e-05
1.7522e-05
1.75217e-05
1.75215e-05
1.75213e-05
1.7521e-05
1.75208e-05
1.75207e-05
1.75206e-05
1.75206e-05
1.75205e-05
1.75205e-05
1.75204e-05
1.75204e-05
1.75203e-05
1.75203e-05
1.75203e-05
1.75203e-05
1.75202e-05
1.75202e-05
1.75199e-05
3.42913e-05
3.42909e-05
3.42907e-05
3.42905e-05
3.42904e-05
3.42903e-05
3.42902e-05
3.42902e-05
3.42902e-05
3.42902e-05
3.42903e-05
3.42905e-05
3.42906e-05
3.42908e-05
3.4291e-05
3.42912e-05
3.42914e-05
3.42917e-05
3.42919e-05
3.42922e-05
3.42924e-05
3.42927e-05
3.42929e-05
3.42932e-05
3.42934e-05
3.42937e-05
3.42939e-05
3.42942e-05
3.42944e-05
3.42946e-05
3.42949e-05
3.42951e-05
3.42953e-05
3.42955e-05
3.42957e-05
3.42959e-05
3.42961e-05
3.42963e-05
3.42965e-05
3.42967e-05
3.42968e-05
3.4297e-05
3.4297e-05
3.42971e-05
3.42971e-05
3.4297e-05
3.4297e-05
3.42972e-05
3.42973e-05
3.42975e-05
3.42976e-05
3.42978e-05
3.42979e-05
3.42981e-05
3.42982e-05
3.42983e-05
3.42984e-05
3.42985e-05
3.42987e-05
3.42989e-05
3.42991e-05
3.42993e-05
3.42996e-05
3.42998e-05
3.43e-05
3.43002e-05
3.43003e-05
3.43005e-05
3.43006e-05
3.43007e-05
3.43007e-05
3.43008e-05
3.43008e-05
3.43008e-05
3.43007e-05
3.43007e-05
3.43006e-05
3.43005e-05
3.43004e-05
3.43003e-05
3.43001e-05
3.43e-05
3.42998e-05
3.42996e-05
3.42994e-05
3.42992e-05
3.4299e-05
3.42988e-05
3.42986e-05
3.42984e-05
3.42982e-05
3.4298e-05
3.42978e-05
3.42976e-05
3.42973e-05
3.42971e-05
3.42968e-05
3.42966e-05
3.42963e-05
3.42959e-05
3.42956e-05
3.42952e-05
3.42949e-05
3.42944e-05
3.42939e-05
3.42936e-05
3.42934e-05
3.42932e-05
3.42931e-05
3.4293e-05
3.42929e-05
3.42929e-05
3.42928e-05
3.42927e-05
3.42927e-05
3.42926e-05
3.42926e-05
3.42925e-05
3.42924e-05
3.4292e-05
5.50628e-05
5.5062e-05
5.50617e-05
5.50614e-05
5.50612e-05
5.50611e-05
5.50611e-05
5.5061e-05
5.50611e-05
5.50612e-05
5.50613e-05
5.50615e-05
5.50618e-05
5.50621e-05
5.50624e-05
5.50627e-05
5.50631e-05
5.50634e-05
5.50638e-05
5.50642e-05
5.50645e-05
5.50649e-05
5.50653e-05
5.50657e-05
5.5066e-05
5.50664e-05
5.50667e-05
5.50671e-05
5.50675e-05
5.50678e-05
5.50681e-05
5.50685e-05
5.50688e-05
5.50691e-05
5.50694e-05
5.50697e-05
5.507e-05
5.50703e-05
5.50705e-05
5.50708e-05
5.5071e-05
5.50712e-05
5.50713e-05
5.50714e-05
5.50714e-05
5.50713e-05
5.50714e-05
5.50716e-05
5.50718e-05
5.5072e-05
5.50723e-05
5.50725e-05
5.50727e-05
5.50728e-05
5.5073e-05
5.50732e-05
5.50734e-05
5.50736e-05
5.50738e-05
5.50741e-05
5.50744e-05
5.50748e-05
5.50751e-05
5.50754e-05
5.50757e-05
5.5076e-05
5.50762e-05
5.50764e-05
5.50765e-05
5.50767e-05
5.50767e-05
5.50768e-05
5.50768e-05
5.50767e-05
5.50767e-05
5.50766e-05
5.50764e-05
5.50763e-05
5.50761e-05
5.50759e-05
5.50757e-05
5.50755e-05
5.50752e-05
5.50749e-05
5.50746e-05
5.50743e-05
5.5074e-05
5.50737e-05
5.50734e-05
5.50731e-05
5.50728e-05
5.50725e-05
5.50722e-05
5.50718e-05
5.50715e-05
5.50711e-05
5.50707e-05
5.50703e-05
5.50698e-05
5.50694e-05
5.50689e-05
5.50683e-05
5.50678e-05
5.50672e-05
5.50664e-05
5.5066e-05
5.50657e-05
5.50655e-05
5.50653e-05
5.50652e-05
5.5065e-05
5.50649e-05
5.50648e-05
5.50647e-05
5.50646e-05
5.50646e-05
5.50645e-05
5.50644e-05
5.50644e-05
5.5064e-05
7.6355e-05
7.63536e-05
7.6353e-05
7.63527e-05
7.63525e-05
7.63524e-05
7.63524e-05
7.63524e-05
7.63525e-05
7.63527e-05
7.63529e-05
7.63532e-05
7.63535e-05
7.63539e-05
7.63543e-05
7.63547e-05
7.63552e-05
7.63557e-05
7.63561e-05
7.63566e-05
7.63571e-05
7.63576e-05
7.63581e-05
7.63586e-05
7.6359e-05
7.63595e-05
7.636e-05
7.63604e-05
7.63609e-05
7.63613e-05
7.63617e-05
7.63621e-05
7.63625e-05
7.63629e-05
7.63633e-05
7.63637e-05
7.6364e-05
7.63644e-05
7.63647e-05
7.6365e-05
7.63653e-05
7.63656e-05
7.63657e-05
7.63659e-05
7.63659e-05
7.63658e-05
7.63659e-05
7.63661e-05
7.63664e-05
7.63667e-05
7.63669e-05
7.63672e-05
7.63674e-05
7.63677e-05
7.63679e-05
7.63681e-05
7.63683e-05
7.63686e-05
7.6369e-05
7.63693e-05
7.63697e-05
7.63701e-05
7.63706e-05
7.63709e-05
7.63713e-05
7.63716e-05
7.63719e-05
7.63721e-05
7.63723e-05
7.63724e-05
7.63725e-05
7.63725e-05
7.63725e-05
7.63724e-05
7.63723e-05
7.63722e-05
7.6372e-05
7.63718e-05
7.63715e-05
7.63713e-05
7.6371e-05
7.63706e-05
7.63703e-05
7.637e-05
7.63696e-05
7.63692e-05
7.63688e-05
7.63684e-05
7.6368e-05
7.63676e-05
7.63672e-05
7.63667e-05
7.63663e-05
7.63659e-05
7.63654e-05
7.63649e-05
7.63644e-05
7.63639e-05
7.63633e-05
7.63627e-05
7.63621e-05
7.63614e-05
7.63607e-05
7.636e-05
7.63591e-05
7.63585e-05
7.63581e-05
7.63579e-05
7.63577e-05
7.63575e-05
7.63573e-05
7.63572e-05
7.63571e-05
7.6357e-05
7.63569e-05
7.63568e-05
7.63568e-05
7.63567e-05
7.63566e-05
7.63565e-05
9.56536e-05
9.56516e-05
9.56507e-05
9.56502e-05
9.565e-05
9.56499e-05
9.565e-05
9.56501e-05
9.56503e-05
9.56505e-05
9.56508e-05
9.56512e-05
9.56516e-05
9.5652e-05
9.56525e-05
9.5653e-05
9.56536e-05
9.56542e-05
9.56547e-05
9.56553e-05
9.56559e-05
9.56565e-05
9.5657e-05
9.56576e-05
9.56582e-05
9.56587e-05
9.56593e-05
9.56598e-05
9.56603e-05
9.56608e-05
9.56613e-05
9.56618e-05
9.56622e-05
9.56627e-05
9.56631e-05
9.56635e-05
9.56639e-05
9.56643e-05
9.56647e-05
9.56651e-05
9.56654e-05
9.56657e-05
9.56659e-05
9.56661e-05
9.56662e-05
9.56661e-05
9.56662e-05
9.56664e-05
9.56667e-05
9.5667e-05
9.56673e-05
9.56676e-05
9.56679e-05
9.56681e-05
9.56684e-05
9.56687e-05
9.5669e-05
9.56693e-05
9.56697e-05
9.56702e-05
9.56706e-05
9.56711e-05
9.56716e-05
9.5672e-05
9.56724e-05
9.56727e-05
9.5673e-05
9.56733e-05
9.56734e-05
9.56735e-05
9.56736e-05
9.56736e-05
9.56735e-05
9.56734e-05
9.56733e-05
9.56731e-05
9.56728e-05
9.56726e-05
9.56723e-05
9.56719e-05
9.56716e-05
9.56712e-05
9.56708e-05
9.56703e-05
9.56699e-05
9.56694e-05
9.56689e-05
9.56684e-05
9.56679e-05
9.56674e-05
9.5667e-05
9.56665e-05
9.5666e-05
9.56654e-05
9.56649e-05
9.56643e-05
9.56637e-05
9.5663e-05
9.56623e-05
9.56616e-05
9.56609e-05
9.56601e-05
9.56594e-05
9.56586e-05
9.56576e-05
9.5657e-05
9.56565e-05
9.56562e-05
9.56559e-05
9.56557e-05
9.56556e-05
9.56554e-05
9.56553e-05
9.56552e-05
9.56551e-05
9.56551e-05
9.56551e-05
9.5655e-05
9.5655e-05
9.56551e-05
0.000111985
0.000111982
0.000111981
0.00011198
0.00011198
0.00011198
0.00011198
0.00011198
0.00011198
0.000111981
0.000111981
0.000111982
0.000111982
0.000111983
0.000111983
0.000111984
0.000111984
0.000111985
0.000111986
0.000111986
0.000111987
0.000111988
0.000111988
0.000111989
0.00011199
0.00011199
0.000111991
0.000111991
0.000111992
0.000111993
0.000111993
0.000111994
0.000111994
0.000111995
0.000111995
0.000111996
0.000111996
0.000111996
0.000111997
0.000111997
0.000111997
0.000111998
0.000111998
0.000111998
0.000111998
0.000111998
0.000111999
0.000111999
0.000111999
0.000111999
0.000112
0.000112
0.000112
0.000112001
0.000112001
0.000112001
0.000112002
0.000112002
0.000112002
0.000112003
0.000112003
0.000112004
0.000112004
0.000112005
0.000112005
0.000112006
0.000112006
0.000112006
0.000112006
0.000112006
0.000112006
0.000112006
0.000112006
0.000112006
0.000112006
0.000112006
0.000112005
0.000112005
0.000112005
0.000112004
0.000112004
0.000112003
0.000112003
0.000112002
0.000112002
0.000112001
0.000112001
0.000112
0.000112
0.000111999
0.000111999
0.000111998
0.000111997
0.000111997
0.000111996
0.000111995
0.000111995
0.000111994
0.000111993
0.000111992
0.000111992
0.000111991
0.00011199
0.000111989
0.000111988
0.000111988
0.000111987
0.000111987
0.000111986
0.000111986
0.000111986
0.000111986
0.000111986
0.000111986
0.000111986
0.000111986
0.000111986
0.000111986
0.000111986
0.000111986
0.00012534
0.000125337
0.000125336
0.000125335
0.000125335
0.000125335
0.000125335
0.000125335
0.000125335
0.000125336
0.000125336
0.000125337
0.000125337
0.000125338
0.000125338
0.000125339
0.00012534
0.000125341
0.000125341
0.000125342
0.000125343
0.000125343
0.000125344
0.000125345
0.000125346
0.000125346
0.000125347
0.000125348
0.000125348
0.000125349
0.000125349
0.00012535
0.00012535
0.000125351
0.000125351
0.000125352
0.000125352
0.000125353
0.000125353
0.000125354
0.000125354
0.000125354
0.000125355
0.000125355
0.000125355
0.000125355
0.000125355
0.000125355
0.000125356
0.000125356
0.000125356
0.000125357
0.000125357
0.000125357
0.000125358
0.000125358
0.000125358
0.000125359
0.000125359
0.00012536
0.000125361
0.000125361
0.000125362
0.000125362
0.000125362
0.000125363
0.000125363
0.000125363
0.000125363
0.000125363
0.000125363
0.000125363
0.000125363
0.000125363
0.000125363
0.000125362
0.000125362
0.000125362
0.000125361
0.000125361
0.00012536
0.00012536
0.000125359
0.000125359
0.000125358
0.000125358
0.000125357
0.000125356
0.000125356
0.000125355
0.000125354
0.000125354
0.000125353
0.000125352
0.000125352
0.000125351
0.00012535
0.000125349
0.000125348
0.000125348
0.000125347
0.000125346
0.000125345
0.000125344
0.000125343
0.000125343
0.000125342
0.000125342
0.000125341
0.000125341
0.000125341
0.000125341
0.000125341
0.000125341
0.000125341
0.000125341
0.000125341
0.000125341
0.000125341
0.000125341
0.000136095
0.000136093
0.000136091
0.00013609
0.000136089
0.000136089
0.000136089
0.00013609
0.00013609
0.000136091
0.000136091
0.000136092
0.000136092
0.000136093
0.000136094
0.000136094
0.000136095
0.000136096
0.000136097
0.000136098
0.000136098
0.000136099
0.0001361
0.000136101
0.000136101
0.000136102
0.000136103
0.000136103
0.000136104
0.000136105
0.000136105
0.000136106
0.000136107
0.000136107
0.000136108
0.000136108
0.000136109
0.000136109
0.00013611
0.00013611
0.00013611
0.000136111
0.000136111
0.000136111
0.000136112
0.000136112
0.000136112
0.000136112
0.000136112
0.000136113
0.000136113
0.000136113
0.000136113
0.000136114
0.000136114
0.000136115
0.000136115
0.000136116
0.000136116
0.000136117
0.000136117
0.000136118
0.000136119
0.000136119
0.000136119
0.00013612
0.00013612
0.00013612
0.00013612
0.00013612
0.00013612
0.00013612
0.00013612
0.00013612
0.000136119
0.000136119
0.000136118
0.000136118
0.000136118
0.000136117
0.000136116
0.000136116
0.000136115
0.000136115
0.000136114
0.000136113
0.000136113
0.000136112
0.000136111
0.000136111
0.00013611
0.000136109
0.000136109
0.000136108
0.000136107
0.000136106
0.000136105
0.000136104
0.000136103
0.000136102
0.000136102
0.000136101
0.0001361
0.000136099
0.000136098
0.000136097
0.000136097
0.000136096
0.000136096
0.000136096
0.000136096
0.000136096
0.000136095
0.000136095
0.000136096
0.000136096
0.000136096
0.000136096
0.000136096
0.000136097
0.000144702
0.000144699
0.000144697
0.000144696
0.000144696
0.000144695
0.000144696
0.000144696
0.000144697
0.000144697
0.000144698
0.000144698
0.000144699
0.0001447
0.0001447
0.000144701
0.000144702
0.000144703
0.000144704
0.000144705
0.000144705
0.000144706
0.000144707
0.000144708
0.000144709
0.000144709
0.00014471
0.000144711
0.000144712
0.000144712
0.000144713
0.000144714
0.000144714
0.000144715
0.000144715
0.000144716
0.000144716
0.000144717
0.000144717
0.000144718
0.000144718
0.000144719
0.000144719
0.000144719
0.00014472
0.00014472
0.00014472
0.00014472
0.00014472
0.00014472
0.000144721
0.000144721
0.000144721
0.000144722
0.000144722
0.000144723
0.000144723
0.000144724
0.000144725
0.000144725
0.000144726
0.000144726
0.000144727
0.000144727
0.000144728
0.000144728
0.000144728
0.000144728
0.000144728
0.000144728
0.000144728
0.000144728
0.000144728
0.000144727
0.000144727
0.000144727
0.000144726
0.000144726
0.000144725
0.000144725
0.000144724
0.000144723
0.000144723
0.000144722
0.000144721
0.000144721
0.00014472
0.000144719
0.000144718
0.000144718
0.000144717
0.000144716
0.000144715
0.000144715
0.000144714
0.000144713
0.000144712
0.000144711
0.00014471
0.000144709
0.000144708
0.000144707
0.000144706
0.000144705
0.000144704
0.000144704
0.000144703
0.000144702
0.000144702
0.000144702
0.000144702
0.000144702
0.000144702
0.000144702
0.000144702
0.000144702
0.000144702
0.000144702
0.000144702
0.000144704
0.000151571
0.000151568
0.000151566
0.000151564
0.000151564
0.000151564
0.000151564
0.000151564
0.000151565
0.000151565
0.000151566
0.000151567
0.000151567
0.000151568
0.000151569
0.00015157
0.000151571
0.000151572
0.000151572
0.000151573
0.000151574
0.000151575
0.000151576
0.000151577
0.000151578
0.000151579
0.000151579
0.00015158
0.000151581
0.000151582
0.000151582
0.000151583
0.000151584
0.000151584
0.000151585
0.000151585
0.000151586
0.000151586
0.000151587
0.000151587
0.000151588
0.000151588
0.000151588
0.000151589
0.000151589
0.000151589
0.000151589
0.00015159
0.00015159
0.00015159
0.00015159
0.000151591
0.000151591
0.000151591
0.000151592
0.000151593
0.000151593
0.000151594
0.000151595
0.000151595
0.000151596
0.000151596
0.000151597
0.000151597
0.000151598
0.000151598
0.000151598
0.000151598
0.000151598
0.000151598
0.000151598
0.000151598
0.000151597
0.000151597
0.000151597
0.000151596
0.000151596
0.000151595
0.000151594
0.000151594
0.000151593
0.000151592
0.000151592
0.000151591
0.00015159
0.000151589
0.000151589
0.000151588
0.000151587
0.000151586
0.000151585
0.000151585
0.000151584
0.000151583
0.000151582
0.000151581
0.00015158
0.000151579
0.000151578
0.000151577
0.000151576
0.000151575
0.000151574
0.000151573
0.000151572
0.000151571
0.000151571
0.00015157
0.00015157
0.00015157
0.00015157
0.00015157
0.00015157
0.00015157
0.00015157
0.00015157
0.00015157
0.000151571
0.000151571
0.000151572
0.000157039
0.000157036
0.000157034
0.000157032
0.000157032
0.000157031
0.000157032
0.000157032
0.000157032
0.000157033
0.000157034
0.000157034
0.000157035
0.000157036
0.000157037
0.000157038
0.000157039
0.00015704
0.000157041
0.000157042
0.000157043
0.000157044
0.000157045
0.000157045
0.000157046
0.000157047
0.000157048
0.000157049
0.00015705
0.00015705
0.000157051
0.000157052
0.000157052
0.000157053
0.000157054
0.000157054
0.000157055
0.000157055
0.000157056
0.000157056
0.000157057
0.000157057
0.000157058
0.000157058
0.000157058
0.000157058
0.000157059
0.000157059
0.000157059
0.000157059
0.000157059
0.00015706
0.00015706
0.000157061
0.000157061
0.000157062
0.000157063
0.000157063
0.000157064
0.000157065
0.000157065
0.000157066
0.000157066
0.000157067
0.000157067
0.000157067
0.000157067
0.000157067
0.000157067
0.000157067
0.000157067
0.000157067
0.000157066
0.000157066
0.000157065
0.000157065
0.000157064
0.000157064
0.000157063
0.000157062
0.000157062
0.000157061
0.00015706
0.000157059
0.000157059
0.000157058
0.000157057
0.000157056
0.000157055
0.000157054
0.000157054
0.000157053
0.000157052
0.000157051
0.00015705
0.000157049
0.000157047
0.000157046
0.000157045
0.000157044
0.000157043
0.000157042
0.000157041
0.000157041
0.00015704
0.000157039
0.000157038
0.000157038
0.000157038
0.000157037
0.000157037
0.000157037
0.000157037
0.000157037
0.000157038
0.000157038
0.000157038
0.000157038
0.000157039
0.00015704
0.000161374
0.000161371
0.000161369
0.000161368
0.000161367
0.000161366
0.000161367
0.000161367
0.000161367
0.000161368
0.000161369
0.00016137
0.000161371
0.000161371
0.000161372
0.000161373
0.000161374
0.000161375
0.000161376
0.000161377
0.000161378
0.000161379
0.00016138
0.000161381
0.000161382
0.000161383
0.000161384
0.000161385
0.000161386
0.000161386
0.000161387
0.000161388
0.000161388
0.000161389
0.00016139
0.00016139
0.000161391
0.000161391
0.000161392
0.000161393
0.000161393
0.000161393
0.000161394
0.000161394
0.000161395
0.000161395
0.000161395
0.000161395
0.000161395
0.000161395
0.000161396
0.000161396
0.000161397
0.000161397
0.000161398
0.000161399
0.000161399
0.0001614
0.000161401
0.000161402
0.000161402
0.000161403
0.000161403
0.000161404
0.000161404
0.000161404
0.000161404
0.000161404
0.000161404
0.000161404
0.000161403
0.000161403
0.000161403
0.000161402
0.000161402
0.000161401
0.0001614
0.0001614
0.000161399
0.000161398
0.000161397
0.000161397
0.000161396
0.000161395
0.000161394
0.000161393
0.000161392
0.000161392
0.000161391
0.00016139
0.000161389
0.000161388
0.000161387
0.000161386
0.000161385
0.000161383
0.000161382
0.000161381
0.00016138
0.000161379
0.000161378
0.000161377
0.000161376
0.000161375
0.000161374
0.000161374
0.000161373
0.000161373
0.000161372
0.000161372
0.000161372
0.000161372
0.000161372
0.000161372
0.000161373
0.000161373
0.000161373
0.000161374
0.000161374
0.000161375
0.000164785
0.000164783
0.000164781
0.000164779
0.000164778
0.000164778
0.000164778
0.000164778
0.000164779
0.000164779
0.00016478
0.000164781
0.000164782
0.000164783
0.000164784
0.000164785
0.000164786
0.000164787
0.000164788
0.000164789
0.00016479
0.000164791
0.000164792
0.000164793
0.000164794
0.000164795
0.000164796
0.000164797
0.000164797
0.000164798
0.000164799
0.0001648
0.000164801
0.000164801
0.000164802
0.000164803
0.000164803
0.000164804
0.000164804
0.000164805
0.000164805
0.000164806
0.000164806
0.000164807
0.000164807
0.000164807
0.000164807
0.000164807
0.000164808
0.000164808
0.000164808
0.000164809
0.000164809
0.00016481
0.000164811
0.000164811
0.000164812
0.000164813
0.000164814
0.000164814
0.000164815
0.000164816
0.000164816
0.000164816
0.000164816
0.000164816
0.000164816
0.000164816
0.000164816
0.000164816
0.000164815
0.000164815
0.000164815
0.000164814
0.000164814
0.000164813
0.000164812
0.000164812
0.000164811
0.00016481
0.000164809
0.000164808
0.000164807
0.000164807
0.000164806
0.000164805
0.000164804
0.000164803
0.000164802
0.000164801
0.0001648
0.000164799
0.000164798
0.000164797
0.000164795
0.000164794
0.000164793
0.000164792
0.00016479
0.000164789
0.000164788
0.000164787
0.000164787
0.000164786
0.000164785
0.000164785
0.000164784
0.000164783
0.000164783
0.000164783
0.000164783
0.000164783
0.000164783
0.000164783
0.000164784
0.000164784
0.000164784
0.000164785
0.000164785
0.000164787
0.000167435
0.000167433
0.000167431
0.000167429
0.000167428
0.000167428
0.000167428
0.000167428
0.000167428
0.000167429
0.00016743
0.000167431
0.000167432
0.000167433
0.000167434
0.000167435
0.000167436
0.000167437
0.000167438
0.000167439
0.00016744
0.000167441
0.000167442
0.000167443
0.000167444
0.000167445
0.000167446
0.000167447
0.000167448
0.000167449
0.00016745
0.00016745
0.000167451
0.000167452
0.000167452
0.000167453
0.000167454
0.000167454
0.000167455
0.000167455
0.000167456
0.000167456
0.000167457
0.000167457
0.000167458
0.000167458
0.000167458
0.000167458
0.000167458
0.000167459
0.000167459
0.000167459
0.00016746
0.000167461
0.000167462
0.000167463
0.000167464
0.000167464
0.000167465
0.000167466
0.000167466
0.000167467
0.000167467
0.000167467
0.000167467
0.000167467
0.000167467
0.000167467
0.000167467
0.000167466
0.000167466
0.000167466
0.000167465
0.000167464
0.000167464
0.000167463
0.000167462
0.000167462
0.000167461
0.00016746
0.000167459
0.000167458
0.000167457
0.000167457
0.000167456
0.000167455
0.000167454
0.000167453
0.000167452
0.000167451
0.00016745
0.000167448
0.000167447
0.000167446
0.000167445
0.000167443
0.000167442
0.000167441
0.00016744
0.000167438
0.000167437
0.000167437
0.000167436
0.000167435
0.000167435
0.000167434
0.000167433
0.000167433
0.000167433
0.000167432
0.000167432
0.000167432
0.000167433
0.000167433
0.000167433
0.000167434
0.000167434
0.000167435
0.000167435
0.000167436
0.00016945
0.000169448
0.000169446
0.000169444
0.000169443
0.000169443
0.000169443
0.000169443
0.000169444
0.000169444
0.000169445
0.000169446
0.000169447
0.000169448
0.000169449
0.00016945
0.000169451
0.000169452
0.000169453
0.000169454
0.000169455
0.000169457
0.000169458
0.000169459
0.00016946
0.000169461
0.000169462
0.000169463
0.000169464
0.000169464
0.000169465
0.000169466
0.000169467
0.000169468
0.000169468
0.000169469
0.00016947
0.00016947
0.000169471
0.000169471
0.000169472
0.000169472
0.000169473
0.000169473
0.000169474
0.000169474
0.000169474
0.000169474
0.000169475
0.000169475
0.000169475
0.000169476
0.000169476
0.000169477
0.000169478
0.000169479
0.00016948
0.000169481
0.000169482
0.000169482
0.000169483
0.000169483
0.000169483
0.000169483
0.000169483
0.000169483
0.000169483
0.000169483
0.000169483
0.000169482
0.000169482
0.000169481
0.000169481
0.00016948
0.000169479
0.000169479
0.000169478
0.000169477
0.000169476
0.000169475
0.000169474
0.000169474
0.000169473
0.000169472
0.000169471
0.00016947
0.000169469
0.000169468
0.000169467
0.000169465
0.000169464
0.000169463
0.000169462
0.00016946
0.000169459
0.000169458
0.000169456
0.000169455
0.000169454
0.000169453
0.000169452
0.000169451
0.00016945
0.00016945
0.000169449
0.000169448
0.000169448
0.000169448
0.000169447
0.000169447
0.000169447
0.000169447
0.000169448
0.000169448
0.000169448
0.000169449
0.000169449
0.00016945
0.00016945
0.000169452
0.00017093
0.000170928
0.000170926
0.000170925
0.000170924
0.000170923
0.000170923
0.000170923
0.000170924
0.000170924
0.000170925
0.000170926
0.000170927
0.000170928
0.000170929
0.00017093
0.000170931
0.000170932
0.000170934
0.000170935
0.000170936
0.000170937
0.000170938
0.000170939
0.00017094
0.000170941
0.000170942
0.000170943
0.000170944
0.000170945
0.000170946
0.000170947
0.000170947
0.000170948
0.000170949
0.00017095
0.00017095
0.000170951
0.000170952
0.000170952
0.000170953
0.000170953
0.000170954
0.000170954
0.000170955
0.000170955
0.000170955
0.000170955
0.000170956
0.000170956
0.000170956
0.000170957
0.000170958
0.000170959
0.00017096
0.000170961
0.000170961
0.000170962
0.000170963
0.000170963
0.000170964
0.000170964
0.000170964
0.000170964
0.000170964
0.000170964
0.000170964
0.000170963
0.000170963
0.000170963
0.000170962
0.000170961
0.000170961
0.00017096
0.000170959
0.000170959
0.000170958
0.000170957
0.000170956
0.000170955
0.000170954
0.000170953
0.000170952
0.000170951
0.00017095
0.000170949
0.000170948
0.000170947
0.000170946
0.000170945
0.000170944
0.000170942
0.000170941
0.00017094
0.000170938
0.000170937
0.000170935
0.000170934
0.000170933
0.000170932
0.000170931
0.00017093
0.00017093
0.000170929
0.000170929
0.000170928
0.000170928
0.000170927
0.000170927
0.000170927
0.000170927
0.000170927
0.000170927
0.000170928
0.000170928
0.000170929
0.000170929
0.00017093
0.00017093
0.000170932
0.000171953
0.000171951
0.00017195
0.000171949
0.000171948
0.000171947
0.000171947
0.000171947
0.000171948
0.000171948
0.000171949
0.00017195
0.000171951
0.000171952
0.000171953
0.000171954
0.000171955
0.000171956
0.000171957
0.000171959
0.00017196
0.000171961
0.000171962
0.000171963
0.000171964
0.000171965
0.000171966
0.000171967
0.000171968
0.000171969
0.00017197
0.000171971
0.000171972
0.000171973
0.000171973
0.000171974
0.000171975
0.000171975
0.000171976
0.000171977
0.000171977
0.000171978
0.000171978
0.000171979
0.000171979
0.00017198
0.00017198
0.00017198
0.00017198
0.000171981
0.000171981
0.000171982
0.000171983
0.000171984
0.000171985
0.000171986
0.000171986
0.000171987
0.000171988
0.000171988
0.000171988
0.000171988
0.000171989
0.000171988
0.000171988
0.000171988