/*--------------------------------*- C++ -*----------------------------------*\
  =========                 |
  \\      /  F ield         | OpenFOAM: The Open Source CFD Toolbox
   \\    /   O peration     | Website:  https://openfoam.org
    \\  /    A nd           | Version:  7
     \\/     M anipulation  |
\*---------------------------------------------------------------------------*/
FoamFile
{
    version     2.0;
    format      ascii;
    class       volScalarField;
    location    "2000";
    object      nut;
}
// * * * * * * * * * * * * * * * * * * * * * * * * * * * * * * * * * * * * * //

dimensions      [0 2 -1 0 0 0 0];

internalField   nonuniform List<scalar> 
24000
(
8.02955e-12
8.02955e-12
8.02952e-12
8.02947e-12
8.02942e-12
8.02939e-12
8.02936e-12
8.02935e-12
8.02934e-12
8.02935e-12
8.02937e-12
8.0294e-12
8.02944e-12
8.02948e-12
8.02953e-12
8.02958e-12
8.02964e-12
8.0297e-12
8.02976e-12
8.02983e-12
8.02989e-12
8.02995e-12
8.03002e-12
8.03008e-12
8.03014e-12
8.03021e-12
8.03027e-12
8.03033e-12
8.03039e-12
8.03046e-12
8.03051e-12
8.03057e-12
8.03063e-12
8.03069e-12
8.03074e-12
8.0308e-12
8.03085e-12
8.0309e-12
8.03095e-12
8.031e-12
8.03104e-12
8.03107e-12
8.03109e-12
8.0311e-12
8.03108e-12
8.03105e-12
8.03106e-12
8.0311e-12
8.03115e-12
8.03119e-12
8.03124e-12
8.03128e-12
8.03132e-12
8.03135e-12
8.03138e-12
8.03141e-12
8.03144e-12
8.03148e-12
8.03152e-12
8.03157e-12
8.03162e-12
8.03168e-12
8.03174e-12
8.0318e-12
8.03185e-12
8.0319e-12
8.03195e-12
8.03199e-12
8.03202e-12
8.03205e-12
8.03207e-12
8.03208e-12
8.03209e-12
8.03208e-12
8.03208e-12
8.03207e-12
8.03205e-12
8.03203e-12
8.032e-12
8.03197e-12
8.03194e-12
8.0319e-12
8.03186e-12
8.03181e-12
8.03176e-12
8.03171e-12
8.03166e-12
8.03161e-12
8.03156e-12
8.03151e-12
8.03146e-12
8.03141e-12
8.03135e-12
8.0313e-12
8.03124e-12
8.03118e-12
8.03111e-12
8.03104e-12
8.03097e-12
8.03089e-12
8.0308e-12
8.0307e-12
8.03059e-12
8.03046e-12
8.03032e-12
8.03024e-12
8.03019e-12
8.03015e-12
8.03013e-12
8.03011e-12
8.03008e-12
8.03006e-12
8.03004e-12
8.03002e-12
8.03001e-12
8.02999e-12
8.02998e-12
8.02994e-12
8.02994e-12
8.02974e-12
1.4898e-09
1.4898e-09
1.4898e-09
1.48979e-09
1.48978e-09
1.48977e-09
1.48977e-09
1.48976e-09
1.48976e-09
1.48977e-09
1.48977e-09
1.48977e-09
1.48978e-09
1.48979e-09
1.4898e-09
1.48981e-09
1.48982e-09
1.48983e-09
1.48984e-09
1.48985e-09
1.48986e-09
1.48988e-09
1.48989e-09
1.4899e-09
1.48991e-09
1.48992e-09
1.48994e-09
1.48995e-09
1.48996e-09
1.48997e-09
1.48998e-09
1.48999e-09
1.49e-09
1.49001e-09
1.49002e-09
1.49003e-09
1.49004e-09
1.49005e-09
1.49006e-09
1.49007e-09
1.49008e-09
1.49008e-09
1.49009e-09
1.49009e-09
1.49009e-09
1.49008e-09
1.49008e-09
1.49009e-09
1.4901e-09
1.49011e-09
1.49011e-09
1.49012e-09
1.49013e-09
1.49014e-09
1.49014e-09
1.49015e-09
1.49015e-09
1.49016e-09
1.49017e-09
1.49018e-09
1.49019e-09
1.4902e-09
1.49021e-09
1.49022e-09
1.49023e-09
1.49024e-09
1.49025e-09
1.49025e-09
1.49026e-09
1.49026e-09
1.49027e-09
1.49027e-09
1.49027e-09
1.49027e-09
1.49027e-09
1.49027e-09
1.49026e-09
1.49026e-09
1.49026e-09
1.49025e-09
1.49024e-09
1.49024e-09
1.49023e-09
1.49022e-09
1.49021e-09
1.4902e-09
1.49019e-09
1.49018e-09
1.49017e-09
1.49016e-09
1.49016e-09
1.49015e-09
1.49014e-09
1.49013e-09
1.49011e-09
1.4901e-09
1.49009e-09
1.49008e-09
1.49006e-09
1.49005e-09
1.49003e-09
1.49001e-09
1.48999e-09
1.48997e-09
1.48994e-09
1.48993e-09
1.48992e-09
1.48991e-09
1.48991e-09
1.4899e-09
1.4899e-09
1.4899e-09
1.48989e-09
1.48989e-09
1.48989e-09
1.48988e-09
1.48988e-09
1.48987e-09
1.48987e-09
1.48983e-09
3.18142e-08
3.18142e-08
3.18141e-08
3.18138e-08
3.18136e-08
3.18135e-08
3.18134e-08
3.18133e-08
3.18133e-08
3.18134e-08
3.18134e-08
3.18135e-08
3.18137e-08
3.18139e-08
3.18141e-08
3.18143e-08
3.18145e-08
3.18147e-08
3.1815e-08
3.18152e-08
3.18155e-08
3.18157e-08
3.1816e-08
3.18162e-08
3.18165e-08
3.18167e-08
3.1817e-08
3.18172e-08
3.18175e-08
3.18177e-08
3.18179e-08
3.18182e-08
3.18184e-08
3.18186e-08
3.18188e-08
3.18191e-08
3.18193e-08
3.18195e-08
3.18197e-08
3.18198e-08
3.182e-08
3.18201e-08
3.18202e-08
3.18202e-08
3.18202e-08
3.182e-08
3.18201e-08
3.18202e-08
3.18204e-08
3.18206e-08
3.18208e-08
3.1821e-08
3.18211e-08
3.18212e-08
3.18213e-08
3.18215e-08
3.18216e-08
3.18217e-08
3.18219e-08
3.18221e-08
3.18223e-08
3.18225e-08
3.18228e-08
3.1823e-08
3.18232e-08
3.18234e-08
3.18236e-08
3.18237e-08
3.18239e-08
3.1824e-08
3.1824e-08
3.18241e-08
3.18241e-08
3.18241e-08
3.18241e-08
3.1824e-08
3.18239e-08
3.18239e-08
3.18238e-08
3.18236e-08
3.18235e-08
3.18233e-08
3.18232e-08
3.1823e-08
3.18228e-08
3.18226e-08
3.18224e-08
3.18222e-08
3.1822e-08
3.18218e-08
3.18216e-08
3.18214e-08
3.18212e-08
3.1821e-08
3.18207e-08
3.18205e-08
3.18202e-08
3.182e-08
3.18197e-08
3.18194e-08
3.1819e-08
3.18186e-08
3.18182e-08
3.18177e-08
3.18171e-08
3.18168e-08
3.18166e-08
3.18165e-08
3.18164e-08
3.18163e-08
3.18162e-08
3.18161e-08
3.1816e-08
3.1816e-08
3.18159e-08
3.18158e-08
3.18158e-08
3.18157e-08
3.18156e-08
3.18149e-08
2.42175e-07
2.42175e-07
2.42175e-07
2.42173e-07
2.42172e-07
2.42171e-07
2.4217e-07
2.42169e-07
2.42169e-07
2.4217e-07
2.4217e-07
2.42171e-07
2.42172e-07
2.42173e-07
2.42175e-07
2.42177e-07
2.42178e-07
2.4218e-07
2.42182e-07
2.42184e-07
2.42186e-07
2.42188e-07
2.42189e-07
2.42191e-07
2.42193e-07
2.42195e-07
2.42197e-07
2.42199e-07
2.42201e-07
2.42202e-07
2.42204e-07
2.42206e-07
2.42207e-07
2.42209e-07
2.42211e-07
2.42212e-07
2.42214e-07
2.42215e-07
2.42217e-07
2.42218e-07
2.42219e-07
2.4222e-07
2.42221e-07
2.42221e-07
2.4222e-07
2.42219e-07
2.4222e-07
2.42221e-07
2.42223e-07
2.42224e-07
2.42225e-07
2.42227e-07
2.42228e-07
2.42229e-07
2.42229e-07
2.4223e-07
2.42231e-07
2.42232e-07
2.42233e-07
2.42235e-07
2.42236e-07
2.42238e-07
2.4224e-07
2.42241e-07
2.42243e-07
2.42244e-07
2.42246e-07
2.42247e-07
2.42248e-07
2.42249e-07
2.42249e-07
2.42249e-07
2.42249e-07
2.42249e-07
2.42249e-07
2.42249e-07
2.42248e-07
2.42248e-07
2.42247e-07
2.42246e-07
2.42245e-07
2.42244e-07
2.42242e-07
2.42241e-07
2.4224e-07
2.42238e-07
2.42237e-07
2.42235e-07
2.42234e-07
2.42232e-07
2.42231e-07
2.42229e-07
2.42227e-07
2.42226e-07
2.42224e-07
2.42222e-07
2.4222e-07
2.42218e-07
2.42216e-07
2.42214e-07
2.42211e-07
2.42208e-07
2.42205e-07
2.42201e-07
2.42197e-07
2.42195e-07
2.42194e-07
2.42193e-07
2.42192e-07
2.42191e-07
2.42191e-07
2.4219e-07
2.42189e-07
2.42189e-07
2.42188e-07
2.42188e-07
2.42188e-07
2.42186e-07
2.42186e-07
2.42181e-07
1.01746e-06
1.01746e-06
1.01746e-06
1.01746e-06
1.01745e-06
1.01745e-06
1.01745e-06
1.01745e-06
1.01745e-06
1.01745e-06
1.01745e-06
1.01745e-06
1.01746e-06
1.01746e-06
1.01747e-06
1.01748e-06
1.01748e-06
1.01749e-06
1.0175e-06
1.01751e-06
1.01751e-06
1.01752e-06
1.01753e-06
1.01754e-06
1.01754e-06
1.01755e-06
1.01756e-06
1.01757e-06
1.01757e-06
1.01758e-06
1.01759e-06
1.01759e-06
1.0176e-06
1.01761e-06
1.01761e-06
1.01762e-06
1.01763e-06
1.01763e-06
1.01764e-06
1.01764e-06
1.01765e-06
1.01765e-06
1.01765e-06
1.01765e-06
1.01765e-06
1.01765e-06
1.01765e-06
1.01765e-06
1.01766e-06
1.01767e-06
1.01767e-06
1.01768e-06
1.01768e-06
1.01768e-06
1.01769e-06
1.01769e-06
1.01769e-06
1.0177e-06
1.0177e-06
1.01771e-06
1.01772e-06
1.01772e-06
1.01773e-06
1.01774e-06
1.01774e-06
1.01775e-06
1.01775e-06
1.01776e-06
1.01776e-06
1.01776e-06
1.01777e-06
1.01777e-06
1.01777e-06
1.01777e-06
1.01776e-06
1.01776e-06
1.01776e-06
1.01776e-06
1.01775e-06
1.01775e-06
1.01775e-06
1.01774e-06
1.01774e-06
1.01773e-06
1.01772e-06
1.01772e-06
1.01771e-06
1.01771e-06
1.0177e-06
1.01769e-06
1.01769e-06
1.01768e-06
1.01767e-06
1.01767e-06
1.01766e-06
1.01765e-06
1.01765e-06
1.01764e-06
1.01763e-06
1.01762e-06
1.01761e-06
1.0176e-06
1.01758e-06
1.01757e-06
1.01755e-06
1.01754e-06
1.01754e-06
1.01754e-06
1.01753e-06
1.01753e-06
1.01753e-06
1.01753e-06
1.01752e-06
1.01752e-06
1.01752e-06
1.01752e-06
1.01752e-06
1.01751e-06
1.01751e-06
1.01749e-06
2.86254e-06
2.86255e-06
2.86257e-06
2.86258e-06
2.86257e-06
2.86256e-06
2.86256e-06
2.86256e-06
2.86256e-06
2.86256e-06
2.86257e-06
2.86258e-06
2.86259e-06
2.86261e-06
2.86262e-06
2.86264e-06
2.86266e-06
2.86268e-06
2.8627e-06
2.86272e-06
2.86274e-06
2.86276e-06
2.86278e-06
2.8628e-06
2.86282e-06
2.86284e-06
2.86286e-06
2.86288e-06
2.8629e-06
2.86292e-06
2.86294e-06
2.86296e-06
2.86298e-06
2.86299e-06
2.86301e-06
2.86303e-06
2.86304e-06
2.86306e-06
2.86307e-06
2.86308e-06
2.86309e-06
2.8631e-06
2.86311e-06
2.86311e-06
2.8631e-06
2.86309e-06
2.8631e-06
2.86311e-06
2.86313e-06
2.86314e-06
2.86316e-06
2.86317e-06
2.86318e-06
2.86319e-06
2.8632e-06
2.86321e-06
2.86322e-06
2.86323e-06
2.86324e-06
2.86326e-06
2.86327e-06
2.86329e-06
2.86331e-06
2.86333e-06
2.86334e-06
2.86336e-06
2.86337e-06
2.86338e-06
2.86339e-06
2.86339e-06
2.8634e-06
2.8634e-06
2.8634e-06
2.8634e-06
2.86339e-06
2.86339e-06
2.86338e-06
2.86337e-06
2.86336e-06
2.86335e-06
2.86334e-06
2.86332e-06
2.86331e-06
2.86329e-06
2.86328e-06
2.86326e-06
2.86325e-06
2.86323e-06
2.86321e-06
2.8632e-06
2.86318e-06
2.86316e-06
2.86315e-06
2.86313e-06
2.86311e-06
2.86309e-06
2.86307e-06
2.86304e-06
2.86302e-06
2.86299e-06
2.86297e-06
2.86294e-06
2.8629e-06
2.86286e-06
2.86282e-06
2.8628e-06
2.86279e-06
2.86278e-06
2.86278e-06
2.86277e-06
2.86277e-06
2.86276e-06
2.86276e-06
2.86275e-06
2.86275e-06
2.86274e-06
2.86274e-06
2.86273e-06
2.86273e-06
2.86268e-06
6.06306e-06
6.06305e-06
6.06312e-06
6.06315e-06
6.06317e-06
6.06317e-06
6.06317e-06
6.06317e-06
6.06318e-06
6.06319e-06
6.06321e-06
6.06323e-06
6.06326e-06
6.06329e-06
6.06332e-06
6.06336e-06
6.0634e-06
6.06344e-06
6.06348e-06
6.06352e-06
6.06356e-06
6.06361e-06
6.06365e-06
6.06369e-06
6.06373e-06
6.06377e-06
6.06381e-06
6.06385e-06
6.06388e-06
6.06392e-06
6.06396e-06
6.06399e-06
6.06403e-06
6.06406e-06
6.06409e-06
6.06412e-06
6.06415e-06
6.06418e-06
6.06421e-06
6.06423e-06
6.06425e-06
6.06427e-06
6.06428e-06
6.06428e-06
6.06427e-06
6.06425e-06
6.06425e-06
6.06428e-06
6.06431e-06
6.06435e-06
6.06438e-06
6.06441e-06
6.06443e-06
6.06445e-06
6.06447e-06
6.06448e-06
6.0645e-06
6.06452e-06
6.06455e-06
6.06458e-06
6.06461e-06
6.06464e-06
6.06467e-06
6.0647e-06
6.06473e-06
6.06476e-06
6.06478e-06
6.0648e-06
6.06482e-06
6.06483e-06
6.06483e-06
6.06483e-06
6.06483e-06
6.06482e-06
6.06481e-06
6.0648e-06
6.06478e-06
6.06477e-06
6.06474e-06
6.06472e-06
6.0647e-06
6.06467e-06
6.06464e-06
6.06461e-06
6.06458e-06
6.06454e-06
6.06451e-06
6.06447e-06
6.06444e-06
6.06441e-06
6.06437e-06
6.06434e-06
6.06431e-06
6.06427e-06
6.06423e-06
6.06419e-06
6.06415e-06
6.0641e-06
6.06406e-06
6.064e-06
6.06395e-06
6.06389e-06
6.06383e-06
6.06375e-06
6.06366e-06
6.06362e-06
6.0636e-06
6.06359e-06
6.06358e-06
6.06358e-06
6.06357e-06
6.06356e-06
6.06356e-06
6.06355e-06
6.06354e-06
6.06354e-06
6.06353e-06
6.06351e-06
6.0635e-06
6.06345e-06
1.05516e-05
1.05515e-05
1.05516e-05
1.05517e-05
1.05517e-05
1.05518e-05
1.05518e-05
1.05518e-05
1.05519e-05
1.05519e-05
1.05519e-05
1.0552e-05
1.0552e-05
1.05521e-05
1.05521e-05
1.05522e-05
1.05523e-05
1.05523e-05
1.05524e-05
1.05525e-05
1.05525e-05
1.05526e-05
1.05527e-05
1.05527e-05
1.05528e-05
1.05529e-05
1.05529e-05
1.0553e-05
1.05531e-05
1.05531e-05
1.05532e-05
1.05532e-05
1.05533e-05
1.05533e-05
1.05534e-05
1.05535e-05
1.05535e-05
1.05535e-05
1.05536e-05
1.05536e-05
1.05537e-05
1.05537e-05
1.05537e-05
1.05537e-05
1.05537e-05
1.05537e-05
1.05537e-05
1.05537e-05
1.05537e-05
1.05538e-05
1.05539e-05
1.05539e-05
1.05539e-05
1.0554e-05
1.0554e-05
1.0554e-05
1.05541e-05
1.05541e-05
1.05541e-05
1.05542e-05
1.05542e-05
1.05543e-05
1.05543e-05
1.05544e-05
1.05544e-05
1.05545e-05
1.05545e-05
1.05545e-05
1.05546e-05
1.05546e-05
1.05546e-05
1.05546e-05
1.05546e-05
1.05546e-05
1.05545e-05
1.05545e-05
1.05545e-05
1.05544e-05
1.05544e-05
1.05544e-05
1.05543e-05
1.05543e-05
1.05542e-05
1.05542e-05
1.05541e-05
1.05541e-05
1.0554e-05
1.05539e-05
1.05539e-05
1.05538e-05
1.05538e-05
1.05537e-05
1.05537e-05
1.05536e-05
1.05535e-05
1.05535e-05
1.05534e-05
1.05533e-05
1.05533e-05
1.05532e-05
1.05531e-05
1.0553e-05
1.05529e-05
1.05528e-05
1.05526e-05
1.05525e-05
1.05525e-05
1.05525e-05
1.05525e-05
1.05525e-05
1.05525e-05
1.05525e-05
1.05525e-05
1.05525e-05
1.05524e-05
1.05524e-05
1.05524e-05
1.05524e-05
1.05524e-05
1.05524e-05
1.60844e-05
1.60842e-05
1.60843e-05
1.60845e-05
1.60846e-05
1.60847e-05
1.60848e-05
1.60849e-05
1.60849e-05
1.6085e-05
1.6085e-05
1.60851e-05
1.60852e-05
1.60853e-05
1.60854e-05
1.60855e-05
1.60856e-05
1.60857e-05
1.60858e-05
1.60859e-05
1.6086e-05
1.60861e-05
1.60862e-05
1.60863e-05
1.60864e-05
1.60865e-05
1.60866e-05
1.60867e-05
1.60868e-05
1.60869e-05
1.60869e-05
1.6087e-05
1.60871e-05
1.60872e-05
1.60873e-05
1.60873e-05
1.60874e-05
1.60875e-05
1.60875e-05
1.60876e-05
1.60876e-05
1.60877e-05
1.60877e-05
1.60877e-05
1.60877e-05
1.60876e-05
1.60876e-05
1.60877e-05
1.60877e-05
1.60878e-05
1.60879e-05
1.6088e-05
1.6088e-05
1.60881e-05
1.60881e-05
1.60882e-05
1.60882e-05
1.60883e-05
1.60884e-05
1.60884e-05
1.60885e-05
1.60886e-05
1.60886e-05
1.60887e-05
1.60888e-05
1.60888e-05
1.60889e-05
1.60889e-05
1.60889e-05
1.60889e-05
1.60889e-05
1.60889e-05
1.60889e-05
1.60889e-05
1.60889e-05
1.60888e-05
1.60888e-05
1.60887e-05
1.60887e-05
1.60886e-05
1.60885e-05
1.60885e-05
1.60884e-05
1.60883e-05
1.60882e-05
1.60881e-05
1.6088e-05
1.6088e-05
1.60879e-05
1.60878e-05
1.60877e-05
1.60876e-05
1.60875e-05
1.60875e-05
1.60874e-05
1.60873e-05
1.60872e-05
1.6087e-05
1.60869e-05
1.60868e-05
1.60867e-05
1.60865e-05
1.60864e-05
1.60862e-05
1.6086e-05
1.60859e-05
1.60858e-05
1.60858e-05
1.60858e-05
1.60858e-05
1.60858e-05
1.60858e-05
1.60858e-05
1.60858e-05
1.60858e-05
1.60858e-05
1.60858e-05
1.60858e-05
1.60857e-05
1.60858e-05
2.24185e-05
2.2418e-05
2.24181e-05
2.24183e-05
2.24186e-05
2.24188e-05
2.24189e-05
2.2419e-05
2.24191e-05
2.24193e-05
2.24194e-05
2.24195e-05
2.24196e-05
2.24197e-05
2.24198e-05
2.242e-05
2.24201e-05
2.24203e-05
2.24204e-05
2.24206e-05
2.24207e-05
2.24208e-05
2.2421e-05
2.24211e-05
2.24213e-05
2.24214e-05
2.24215e-05
2.24217e-05
2.24218e-05
2.24219e-05
2.24221e-05
2.24222e-05
2.24223e-05
2.24224e-05
2.24225e-05
2.24226e-05
2.24227e-05
2.24228e-05
2.24229e-05
2.2423e-05
2.2423e-05
2.24231e-05
2.24231e-05
2.24231e-05
2.24231e-05
2.2423e-05
2.2423e-05
2.24231e-05
2.24231e-05
2.24232e-05
2.24233e-05
2.24234e-05
2.24235e-05
2.24236e-05
2.24237e-05
2.24238e-05
2.24238e-05
2.24239e-05
2.2424e-05
2.24241e-05
2.24242e-05
2.24243e-05
2.24244e-05
2.24245e-05
2.24245e-05
2.24246e-05
2.24246e-05
2.24247e-05
2.24247e-05
2.24247e-05
2.24247e-05
2.24247e-05
2.24247e-05
2.24247e-05
2.24246e-05
2.24246e-05
2.24245e-05
2.24244e-05
2.24243e-05
2.24242e-05
2.24241e-05
2.2424e-05
2.24239e-05
2.24238e-05
2.24237e-05
2.24236e-05
2.24235e-05
2.24233e-05
2.24232e-05
2.24231e-05
2.2423e-05
2.24229e-05
2.24228e-05
2.24226e-05
2.24225e-05
2.24224e-05
2.24222e-05
2.24221e-05
2.24219e-05
2.24218e-05
2.24216e-05
2.24214e-05
2.24212e-05
2.2421e-05
2.24207e-05
2.24206e-05
2.24205e-05
2.24204e-05
2.24204e-05
2.24204e-05
2.24204e-05
2.24204e-05
2.24204e-05
2.24204e-05
2.24204e-05
2.24204e-05
2.24205e-05
2.24204e-05
2.24204e-05
2.24206e-05
2.93678e-05
2.93671e-05
2.93672e-05
2.93674e-05
2.93677e-05
2.9368e-05
2.93683e-05
2.93685e-05
2.93686e-05
2.93688e-05
2.9369e-05
2.93691e-05
2.93693e-05
2.93695e-05
2.93697e-05
2.93699e-05
2.937e-05
2.93702e-05
2.93704e-05
2.93706e-05
2.93708e-05
2.9371e-05
2.93712e-05
2.93714e-05
2.93716e-05
2.93717e-05
2.93719e-05
2.93721e-05
2.93723e-05
2.93724e-05
2.93726e-05
2.93728e-05
2.93729e-05
2.9373e-05
2.93732e-05
2.93733e-05
2.93734e-05
2.93736e-05
2.93737e-05
2.93738e-05
2.93739e-05
2.9374e-05
2.9374e-05
2.93741e-05
2.9374e-05
2.9374e-05
2.93739e-05
2.9374e-05
2.9374e-05
2.93741e-05
2.93743e-05
2.93744e-05
2.93745e-05
2.93746e-05
2.93747e-05
2.93748e-05
2.93749e-05
2.93751e-05
2.93752e-05
2.93753e-05
2.93754e-05
2.93755e-05
2.93756e-05
2.93757e-05
2.93758e-05
2.93759e-05
2.9376e-05
2.9376e-05
2.9376e-05
2.93761e-05
2.9376e-05
2.9376e-05
2.9376e-05
2.93759e-05
2.93759e-05
2.93758e-05
2.93757e-05
2.93756e-05
2.93755e-05
2.93754e-05
2.93752e-05
2.93751e-05
2.9375e-05
2.93748e-05
2.93747e-05
2.93745e-05
2.93743e-05
2.93742e-05
2.9374e-05
2.93739e-05
2.93737e-05
2.93736e-05
2.93734e-05
2.93732e-05
2.93731e-05
2.93729e-05
2.93727e-05
2.93725e-05
2.93723e-05
2.93721e-05
2.93719e-05
2.93716e-05
2.93714e-05
2.93711e-05
2.93708e-05
2.93706e-05
2.93705e-05
2.93704e-05
2.93704e-05
2.93704e-05
2.93704e-05
2.93704e-05
2.93704e-05
2.93704e-05
2.93705e-05
2.93705e-05
2.93705e-05
2.93705e-05
2.93704e-05
2.93708e-05
3.68003e-05
3.67993e-05
3.67993e-05
3.67996e-05
3.67999e-05
3.68003e-05
3.68007e-05
3.6801e-05
3.68012e-05
3.68015e-05
3.68017e-05
3.68019e-05
3.68022e-05
3.68024e-05
3.68026e-05
3.68029e-05
3.68031e-05
3.68034e-05
3.68036e-05
3.68039e-05
3.68041e-05
3.68044e-05
3.68046e-05
3.68048e-05
3.68051e-05
3.68053e-05
3.68055e-05
3.68058e-05
3.6806e-05
3.68062e-05
3.68064e-05
3.68066e-05
3.68068e-05
3.6807e-05
3.68072e-05
3.68073e-05
3.68075e-05
3.68077e-05
3.68078e-05
3.68079e-05
3.68081e-05
3.68082e-05
3.68082e-05
3.68083e-05
3.68083e-05
3.68082e-05
3.68082e-05
3.68082e-05
3.68083e-05
3.68084e-05
3.68085e-05
3.68087e-05
3.68088e-05
3.6809e-05
3.68091e-05
3.68092e-05
3.68094e-05
3.68096e-05
3.68097e-05
3.68099e-05
3.681e-05
3.68102e-05
3.68103e-05
3.68104e-05
3.68105e-05
3.68106e-05
3.68107e-05
3.68107e-05
3.68107e-05
3.68107e-05
3.68107e-05
3.68107e-05
3.68106e-05
3.68106e-05
3.68105e-05
3.68104e-05
3.68102e-05
3.68101e-05
3.681e-05
3.68098e-05
3.68096e-05
3.68095e-05
3.68093e-05
3.68091e-05
3.68089e-05
3.68087e-05
3.68085e-05
3.68083e-05
3.68081e-05
3.68079e-05
3.68077e-05
3.68075e-05
3.68073e-05
3.68071e-05
3.68069e-05
3.68067e-05
3.68064e-05
3.68062e-05
3.68059e-05
3.68057e-05
3.68054e-05
3.68051e-05
3.68048e-05
3.68045e-05
3.68042e-05
3.68039e-05
3.68037e-05
3.68036e-05
3.68035e-05
3.68035e-05
3.68035e-05
3.68036e-05
3.68036e-05
3.68036e-05
3.68037e-05
3.68037e-05
3.68038e-05
3.68038e-05
3.68037e-05
3.68043e-05
4.46223e-05
4.4621e-05
4.46209e-05
4.46212e-05
4.46216e-05
4.4622e-05
4.46224e-05
4.46228e-05
4.46232e-05
4.46235e-05
4.46239e-05
4.46242e-05
4.46245e-05
4.46248e-05
4.46251e-05
4.46254e-05
4.46257e-05
4.4626e-05
4.46263e-05
4.46267e-05
4.4627e-05
4.46273e-05
4.46276e-05
4.46279e-05
4.46282e-05
4.46284e-05
4.46287e-05
4.4629e-05
4.46293e-05
4.46295e-05
4.46298e-05
4.463e-05
4.46303e-05
4.46305e-05
4.46307e-05
4.46309e-05
4.46312e-05
4.46313e-05
4.46315e-05
4.46317e-05
4.46319e-05
4.4632e-05
4.46321e-05
4.46322e-05
4.46322e-05
4.46321e-05
4.46321e-05
4.46321e-05
4.46322e-05
4.46323e-05
4.46324e-05
4.46326e-05
4.46328e-05
4.4633e-05
4.46332e-05
4.46333e-05
4.46335e-05
4.46337e-05
4.46339e-05
4.46341e-05
4.46343e-05
4.46345e-05
4.46346e-05
4.46348e-05
4.46349e-05
4.4635e-05
4.4635e-05
4.46351e-05
4.46351e-05
4.46351e-05
4.4635e-05
4.4635e-05
4.46349e-05
4.46348e-05
4.46347e-05
4.46346e-05
4.46344e-05
4.46343e-05
4.46341e-05
4.46339e-05
4.46337e-05
4.46335e-05
4.46332e-05
4.4633e-05
4.46328e-05
4.46325e-05
4.46323e-05
4.4632e-05
4.46318e-05
4.46315e-05
4.46313e-05
4.4631e-05
4.46308e-05
4.46305e-05
4.46302e-05
4.463e-05
4.46297e-05
4.46294e-05
4.46291e-05
4.46288e-05
4.46285e-05
4.46281e-05
4.46278e-05
4.46275e-05
4.46271e-05
4.46267e-05
4.46265e-05
4.46263e-05
4.46263e-05
4.46262e-05
4.46263e-05
4.46263e-05
4.46263e-05
4.46264e-05
4.46265e-05
4.46265e-05
4.46266e-05
4.46267e-05
4.46265e-05
4.46274e-05
5.27661e-05
5.27644e-05
5.27642e-05
5.27645e-05
5.27649e-05
5.27654e-05
5.27659e-05
5.27664e-05
5.27668e-05
5.27673e-05
5.27677e-05
5.27681e-05
5.27685e-05
5.27689e-05
5.27692e-05
5.27696e-05
5.277e-05
5.27704e-05
5.27708e-05
5.27712e-05
5.27715e-05
5.27719e-05
5.27723e-05
5.27726e-05
5.2773e-05
5.27733e-05
5.27737e-05
5.2774e-05
5.27743e-05
5.27747e-05
5.2775e-05
5.27753e-05
5.27756e-05
5.27758e-05
5.27761e-05
5.27764e-05
5.27766e-05
5.27769e-05
5.27771e-05
5.27773e-05
5.27775e-05
5.27777e-05
5.27778e-05
5.27779e-05
5.2778e-05
5.27779e-05
5.27779e-05
5.27779e-05
5.2778e-05
5.27781e-05
5.27782e-05
5.27784e-05
5.27786e-05
5.27789e-05
5.27791e-05
5.27793e-05
5.27796e-05
5.27798e-05
5.27801e-05
5.27803e-05
5.27805e-05
5.27807e-05
5.27809e-05
5.2781e-05
5.27811e-05
5.27812e-05
5.27813e-05
5.27813e-05
5.27813e-05
5.27813e-05
5.27812e-05
5.27812e-05
5.27811e-05
5.27809e-05
5.27808e-05
5.27806e-05
5.27804e-05
5.27802e-05
5.278e-05
5.27798e-05
5.27795e-05
5.27793e-05
5.2779e-05
5.27787e-05
5.27784e-05
5.27781e-05
5.27778e-05
5.27775e-05
5.27772e-05
5.27769e-05
5.27766e-05
5.27763e-05
5.2776e-05
5.27757e-05
5.27754e-05
5.2775e-05
5.27747e-05
5.27743e-05
5.2774e-05
5.27736e-05
5.27733e-05
5.27729e-05
5.27725e-05
5.27722e-05
5.27717e-05
5.27713e-05
5.2771e-05
5.27709e-05
5.27708e-05
5.27707e-05
5.27707e-05
5.27708e-05
5.27708e-05
5.27709e-05
5.2771e-05
5.27711e-05
5.27712e-05
5.27713e-05
5.27711e-05
5.27723e-05
6.11812e-05
6.11793e-05
6.1179e-05
6.11792e-05
6.11796e-05
6.11802e-05
6.11807e-05
6.11813e-05
6.11818e-05
6.11824e-05
6.11829e-05
6.11834e-05
6.11839e-05
6.11843e-05
6.11848e-05
6.11853e-05
6.11857e-05
6.11862e-05
6.11867e-05
6.11871e-05
6.11876e-05
6.1188e-05
6.11884e-05
6.11889e-05
6.11893e-05
6.11897e-05
6.11901e-05
6.11905e-05
6.11909e-05
6.11913e-05
6.11917e-05
6.1192e-05
6.11924e-05
6.11927e-05
6.1193e-05
6.11933e-05
6.11936e-05
6.11939e-05
6.11942e-05
6.11945e-05
6.11947e-05
6.11949e-05
6.11951e-05
6.11953e-05
6.11953e-05
6.11953e-05
6.11953e-05
6.11953e-05
6.11954e-05
6.11955e-05
6.11957e-05
6.11959e-05
6.11961e-05
6.11964e-05
6.11967e-05
6.1197e-05
6.11973e-05
6.11976e-05
6.11979e-05
6.11981e-05
6.11983e-05
6.11986e-05
6.11987e-05
6.11989e-05
6.1199e-05
6.11991e-05
6.11991e-05
6.11991e-05
6.11991e-05
6.1199e-05
6.1199e-05
6.11989e-05
6.11987e-05
6.11986e-05
6.11984e-05
6.11982e-05
6.1198e-05
6.11977e-05
6.11975e-05
6.11972e-05
6.11969e-05
6.11966e-05
6.11963e-05
6.11959e-05
6.11956e-05
6.11952e-05
6.11949e-05
6.11945e-05
6.11941e-05
6.11938e-05
6.11934e-05
6.11931e-05
6.11927e-05
6.11923e-05
6.11919e-05
6.11915e-05
6.11911e-05
6.11907e-05
6.11903e-05
6.11899e-05
6.11895e-05
6.11891e-05
6.11887e-05
6.11883e-05
6.11878e-05
6.11874e-05
6.11871e-05
6.11869e-05
6.11868e-05
6.11867e-05
6.11867e-05
6.11868e-05
6.11868e-05
6.11869e-05
6.11871e-05
6.11872e-05
6.11873e-05
6.11874e-05
6.11872e-05
6.11887e-05
6.98297e-05
6.98274e-05
6.9827e-05
6.98272e-05
6.98277e-05
6.98282e-05
6.98289e-05
6.98295e-05
6.98301e-05
6.98307e-05
6.98313e-05
6.98319e-05
6.98325e-05
6.98331e-05
6.98337e-05
6.98342e-05
6.98348e-05
6.98353e-05
6.98359e-05
6.98364e-05
6.98369e-05
6.98374e-05
6.98379e-05
6.98384e-05
6.98389e-05
6.98394e-05
6.98399e-05
6.98404e-05
6.98408e-05
6.98413e-05
6.98417e-05
6.98421e-05
6.98425e-05
6.98429e-05
6.98433e-05
6.98437e-05
6.9844e-05
6.98444e-05
6.98447e-05
6.9845e-05
6.98453e-05
6.98456e-05
6.98458e-05
6.9846e-05
6.98461e-05
6.98461e-05
6.98461e-05
6.98461e-05
6.98462e-05
6.98464e-05
6.98465e-05
6.98468e-05
6.98471e-05
6.98474e-05
6.98477e-05
6.98481e-05
6.98484e-05
6.98488e-05
6.98491e-05
6.98494e-05
6.98496e-05
6.98498e-05
6.985e-05
6.98501e-05
6.98502e-05
6.98503e-05
6.98503e-05
6.98503e-05
6.98503e-05
6.98502e-05
6.98501e-05
6.98499e-05
6.98498e-05
6.98496e-05
6.98493e-05
6.98491e-05
6.98488e-05
6.98485e-05
6.98482e-05
6.98479e-05
6.98476e-05
6.98472e-05
6.98468e-05
6.98464e-05
6.9846e-05
6.98456e-05
6.98452e-05
6.98448e-05
6.98443e-05
6.98439e-05
6.98435e-05
6.98431e-05
6.98426e-05
6.98422e-05
6.98417e-05
6.98412e-05
6.98408e-05
6.98403e-05
6.98398e-05
6.98394e-05
6.9839e-05
6.98386e-05
6.98382e-05
6.98377e-05
6.98372e-05
6.98368e-05
6.98364e-05
6.98362e-05
6.98361e-05
6.9836e-05
6.9836e-05
6.98361e-05
6.98362e-05
6.98363e-05
6.98365e-05
6.98366e-05
6.98368e-05
6.9837e-05
6.98367e-05
6.98385e-05
7.8682e-05
7.86794e-05
7.8679e-05
7.86792e-05
7.86796e-05
7.86802e-05
7.86809e-05
7.86816e-05
7.86823e-05
7.8683e-05
7.86837e-05
7.86843e-05
7.8685e-05
7.86857e-05
7.86864e-05
7.8687e-05
7.86877e-05
7.86883e-05
7.86889e-05
7.86895e-05
7.86901e-05
7.86907e-05
7.86913e-05
7.86919e-05
7.86925e-05
7.8693e-05
7.86936e-05
7.86941e-05
7.86947e-05
7.86952e-05
7.86957e-05
7.86962e-05
7.86966e-05
7.86971e-05
7.86975e-05
7.8698e-05
7.86984e-05
7.86988e-05
7.86992e-05
7.86996e-05
7.86999e-05
7.87002e-05
7.87005e-05
7.87007e-05
7.87009e-05
7.87009e-05
7.87009e-05
7.8701e-05
7.87011e-05
7.87012e-05
7.87014e-05
7.87017e-05
7.8702e-05
7.87024e-05
7.87028e-05
7.87032e-05
7.87036e-05
7.8704e-05
7.87043e-05
7.87046e-05
7.87049e-05
7.87051e-05
7.87052e-05
7.87054e-05
7.87054e-05
7.87055e-05
7.87055e-05
7.87054e-05
7.87053e-05
7.87052e-05
7.87051e-05
7.87049e-05
7.87047e-05
7.87044e-05
7.87042e-05
7.87039e-05
7.87035e-05
7.87032e-05
7.87028e-05
7.87024e-05
7.8702e-05
7.87016e-05
7.87012e-05
7.87007e-05
7.87003e-05
7.86998e-05
7.86993e-05
7.86988e-05
7.86983e-05
7.86978e-05
7.86974e-05
7.86969e-05
7.86963e-05
7.86958e-05
7.86953e-05
7.86947e-05
7.86942e-05
7.86937e-05
7.86932e-05
7.86927e-05
7.86923e-05
7.86918e-05
7.86914e-05
7.8691e-05
7.86905e-05
7.869e-05
7.86897e-05
7.86894e-05
7.86893e-05
7.86893e-05
7.86893e-05
7.86893e-05
7.86895e-05
7.86896e-05
7.86898e-05
7.869e-05
7.86901e-05
7.86904e-05
7.86901e-05
7.86923e-05
8.77152e-05
8.77123e-05
8.77119e-05
8.77121e-05
8.77125e-05
8.77131e-05
8.77139e-05
8.77146e-05
8.77154e-05
8.77161e-05
8.77169e-05
8.77177e-05
8.77185e-05
8.77192e-05
8.772e-05
8.77207e-05
8.77215e-05
8.77222e-05
8.77229e-05
8.77236e-05
8.77243e-05
8.7725e-05
8.77257e-05
8.77263e-05
8.7727e-05
8.77276e-05
8.77283e-05
8.77289e-05
8.77295e-05
8.77301e-05
8.77306e-05
8.77312e-05
8.77317e-05
8.77323e-05
8.77328e-05
8.77333e-05
8.77337e-05
8.77342e-05
8.77346e-05
8.77351e-05
8.77355e-05
8.77359e-05
8.77362e-05
8.77365e-05
8.77367e-05
8.77367e-05
8.77368e-05
8.77368e-05
8.7737e-05
8.77372e-05
8.77374e-05
8.77377e-05
8.77381e-05
8.77385e-05
8.7739e-05
8.77394e-05
8.77399e-05
8.77403e-05
8.77406e-05
8.77409e-05
8.77411e-05
8.77413e-05
8.77415e-05
8.77415e-05
8.77416e-05
8.77416e-05
8.77415e-05
8.77414e-05
8.77413e-05
8.77411e-05
8.77409e-05
8.77407e-05
8.77404e-05
8.77401e-05
8.77398e-05
8.77395e-05
8.77391e-05
8.77387e-05
8.77383e-05
8.77378e-05
8.77374e-05
8.77369e-05
8.77364e-05
8.77359e-05
8.77353e-05
8.77348e-05
8.77342e-05
8.77337e-05
8.77331e-05
8.77325e-05
8.7732e-05
8.77314e-05
8.77308e-05
8.77302e-05
8.77296e-05
8.7729e-05
8.77284e-05
8.77278e-05
8.77273e-05
8.77268e-05
8.77264e-05
8.77259e-05
8.77255e-05
8.77251e-05
8.77246e-05
8.77242e-05
8.77238e-05
8.77236e-05
8.77235e-05
8.77234e-05
8.77234e-05
8.77235e-05
8.77237e-05
8.77239e-05
8.77241e-05
8.77243e-05
8.77245e-05
8.77248e-05
8.77245e-05
8.7727e-05
9.69115e-05
9.69083e-05
9.69078e-05
9.6908e-05
9.69085e-05
9.69091e-05
9.69099e-05
9.69107e-05
9.69115e-05
9.69123e-05
9.69132e-05
9.69141e-05
9.69149e-05
9.69158e-05
9.69166e-05
9.69175e-05
9.69183e-05
9.69191e-05
9.69199e-05
9.69207e-05
9.69215e-05
9.69223e-05
9.6923e-05
9.69238e-05
9.69245e-05
9.69252e-05
9.69259e-05
9.69266e-05
9.69273e-05
9.6928e-05
9.69286e-05
9.69293e-05
9.69299e-05
9.69304e-05
9.6931e-05
9.69316e-05
9.69321e-05
9.69326e-05
9.69332e-05
9.69336e-05
9.69341e-05
9.69345e-05
9.69349e-05
9.69353e-05
9.69355e-05
9.69356e-05
9.69357e-05
9.69358e-05
9.6936e-05
9.69362e-05
9.69365e-05
9.69369e-05
9.69373e-05
9.69378e-05
9.69383e-05
9.69388e-05
9.69392e-05
9.69396e-05
9.69399e-05
9.69402e-05
9.69404e-05
9.69405e-05
9.69406e-05
9.69406e-05
9.69406e-05
9.69406e-05
9.69405e-05
9.69403e-05
9.69401e-05
9.69399e-05
9.69396e-05
9.69393e-05
9.6939e-05
9.69387e-05
9.69383e-05
9.69379e-05
9.69374e-05
9.6937e-05
9.69365e-05
9.6936e-05
9.69354e-05
9.69349e-05
9.69343e-05
9.69337e-05
9.69331e-05
9.69325e-05
9.69319e-05
9.69313e-05
9.69306e-05
9.693e-05
9.69293e-05
9.69287e-05
9.6928e-05
9.69273e-05
9.69266e-05
9.6926e-05
9.69253e-05
9.69247e-05
9.69242e-05
9.69237e-05
9.69233e-05
9.69229e-05
9.69225e-05
9.69221e-05
9.69216e-05
9.69212e-05
9.69209e-05
9.69207e-05
9.69206e-05
9.69205e-05
9.69206e-05
9.69207e-05
9.69209e-05
9.69211e-05
9.69213e-05
9.69216e-05
9.69219e-05
9.69222e-05
9.69219e-05
9.69248e-05
0.000106257
0.000106253
0.000106253
0.000106253
0.000106253
0.000106254
0.000106255
0.000106256
0.000106257
0.000106258
0.000106258
0.000106259
0.00010626
0.000106261
0.000106262
0.000106263
0.000106264
0.000106265
0.000106266
0.000106267
0.000106268
0.000106269
0.000106269
0.00010627
0.000106271
0.000106272
0.000106273
0.000106273
0.000106274
0.000106275
0.000106276
0.000106276
0.000106277
0.000106278
0.000106278
0.000106279
0.00010628
0.00010628
0.000106281
0.000106281
0.000106282
0.000106282
0.000106283
0.000106283
0.000106283
0.000106284
0.000106284
0.000106284
0.000106284
0.000106284
0.000106285
0.000106285
0.000106286
0.000106286
0.000106287
0.000106287
0.000106288
0.000106288
0.000106288
0.000106288
0.000106289
0.000106289
0.000106289
0.000106289
0.000106289
0.000106288
0.000106288
0.000106288
0.000106288
0.000106287
0.000106287
0.000106287
0.000106286
0.000106286
0.000106285
0.000106285
0.000106284
0.000106284
0.000106283
0.000106283
0.000106282
0.000106282
0.000106281
0.00010628
0.00010628
0.000106279
0.000106278
0.000106278
0.000106277
0.000106276
0.000106275
0.000106275
0.000106274
0.000106273
0.000106272
0.000106272
0.000106271
0.00010627
0.00010627
0.000106269
0.000106269
0.000106269
0.000106268
0.000106268
0.000106268
0.000106267
0.000106267
0.000106267
0.000106267
0.000106267
0.000106267
0.000106267
0.000106267
0.000106267
0.000106268
0.000106268
0.000106268
0.000106269
0.000106268
0.000106272
0.00011574
0.000115736
0.000115736
0.000115736
0.000115737
0.000115737
0.000115738
0.000115739
0.00011574
0.000115741
0.000115742
0.000115743
0.000115744
0.000115745
0.000115746
0.000115747
0.000115748
0.000115749
0.00011575
0.000115751
0.000115752
0.000115753
0.000115754
0.000115755
0.000115756
0.000115757
0.000115758
0.000115759
0.000115759
0.00011576
0.000115761
0.000115762
0.000115762
0.000115763
0.000115764
0.000115765
0.000115765
0.000115766
0.000115767
0.000115767
0.000115768
0.000115768
0.000115769
0.000115769
0.00011577
0.00011577
0.00011577
0.00011577
0.00011577
0.000115771
0.000115771
0.000115772
0.000115772
0.000115773
0.000115773
0.000115774
0.000115774
0.000115774
0.000115775
0.000115775
0.000115775
0.000115775
0.000115775
0.000115775