/*--------------------------------*- C++ -*----------------------------------*\
  =========                 |
  \\      /  F ield         | OpenFOAM: The Open Source CFD Toolbox
   \\    /   O peration     | Website:  https://openfoam.org
    \\  /    A nd           | Version:  7
     \\/     M anipulation  |
\*---------------------------------------------------------------------------*/
FoamFile
{
    version     2.0;
    format      ascii;
    class       surfaceScalarField;
    location    "2000";
    object      phi;
}
// * * * * * * * * * * * * * * * * * * * * * * * * * * * * * * * * * * * * * //

dimensions      [0 3 -1 0 0 0 0];

internalField   nonuniform List<scalar> 
47680
(
2.1986e-06
1.01521e-10
2.19866e-06
-5.95599e-11
2.1987e-06
-3.79089e-11
2.19872e-06
-1.99993e-11
2.19873e-06
-1.47829e-11
2.19874e-06
-7.51966e-12
2.19875e-06
-4.05876e-12
2.19875e-06
-1.79482e-12
2.19875e-06
-3.91032e-13
2.19875e-06
3.57758e-13
2.19875e-06
7.16746e-13
2.19875e-06
7.88799e-13
2.19875e-06
6.54536e-13
2.19874e-06
3.73241e-13
2.19874e-06
-4.85825e-15
2.19875e-06
-4.33633e-13
2.19875e-06
-8.73705e-13
2.19875e-06
-1.2954e-12
2.19875e-06
-1.68166e-12
2.19875e-06
-2.02861e-12
2.19875e-06
-2.34144e-12
2.19876e-06
-2.62907e-12
2.19876e-06
-2.90113e-12
2.19876e-06
-3.16576e-12
2.19877e-06
-3.42778e-12
2.19877e-06
-3.6909e-12
2.19877e-06
-3.95571e-12
2.19878e-06
-4.22372e-12
2.19878e-06
-4.49059e-12
2.19879e-06
-4.75943e-12
2.19879e-06
-5.01471e-12
2.1988e-06
-5.27147e-12
2.1988e-06
-5.48623e-12
2.19881e-06
-5.71946e-12
2.19881e-06
-5.83591e-12
2.19882e-06
-6.04125e-12
2.19883e-06
-5.88855e-12
2.19883e-06
-6.06702e-12
2.19884e-06
-5.10756e-12
2.19884e-06
-5.33569e-12
2.19884e-06
-2.02927e-12
2.19885e-06
-2.68762e-12
2.19884e-06
6.2979e-12
2.19884e-06
5.12733e-12
2.19882e-06
1.88305e-11
2.19879e-06
2.3387e-11
2.19879e-06
6.7144e-13
2.1988e-06
-2.46336e-12
2.1988e-06
-5.8569e-12
2.19881e-06
-6.42999e-12
2.19882e-06
-9.15306e-12
2.19883e-06
-8.64587e-12
2.19883e-06
-7.57345e-12
2.19884e-06
-6.50464e-12
2.19885e-06
-5.44133e-12
2.19885e-06
-4.63137e-12
2.19885e-06
-4.07429e-12
2.19886e-06
-3.76527e-12
2.19886e-06
-3.67216e-12
2.19886e-06
-3.74209e-12
2.19887e-06
-3.91702e-12
2.19887e-06
-4.14008e-12
2.19888e-06
-4.36185e-12
2.19888e-06
-4.54482e-12
2.19889e-06
-4.66479e-12
2.19889e-06
-4.70941e-12
2.1989e-06
-4.67593e-12
2.1989e-06
-4.56882e-12
2.1989e-06
-4.39617e-12
2.19891e-06
-4.16863e-12
2.19891e-06
-3.89708e-12
2.19892e-06
-3.59214e-12
2.19892e-06
-3.26326e-12
2.19892e-06
-2.91978e-12
2.19893e-06
-2.56769e-12
2.19893e-06
-2.21519e-12
2.19893e-06
-1.8625e-12
2.19893e-06
-1.52116e-12
2.19893e-06
-1.17669e-12
2.19893e-06
-8.57454e-13
2.19893e-06
-5.04654e-13
2.19893e-06
-2.12874e-13
2.19893e-06
2.21293e-13
2.19893e-06
4.93645e-13
2.19893e-06
1.14731e-12
2.19893e-06
1.44104e-12
2.19893e-06
1.97474e-12
2.19893e-06
1.31963e-12
2.19893e-06
4.19301e-13
2.19893e-06
1.40895e-13
2.19893e-06
-5.55793e-13
2.19893e-06
6.36152e-14
2.19893e-06
3.98261e-13
2.19893e-06
6.60417e-13
2.19893e-06
7.72293e-13
2.19892e-06
1.14609e-12
2.19892e-06
1.17059e-12
2.19892e-06
2.30938e-12
2.19892e-06
2.29199e-12
2.19891e-06
5.74044e-12
2.19891e-06
5.31861e-12
2.19889e-06
1.4247e-11
2.19888e-06
1.34168e-11
2.19885e-06
2.62442e-11
2.19882e-06
3.15122e-11
2.19882e-06
5.56056e-12
2.19881e-06
1.45229e-12
2.19882e-06
-1.61981e-12
2.19882e-06
-3.68353e-12
2.19882e-06
-3.32838e-12
2.19883e-06
-3.19913e-12
2.19883e-06
-2.33712e-12
2.19883e-06
-2.39175e-12
2.19883e-06
-5.77891e-13
2.19883e-06
-1.79101e-12
2.19883e-06
3.83208e-12
2.19883e-06
-8.32727e-13
2.19881e-06
2.03065e-11
2.19881e-06
9.09908e-13
1.06175e-10
6.79443e-06
3.51609e-10
6.79451e-06
-1.44216e-10
6.79461e-06
-1.33581e-10
6.79466e-06
-7.37314e-11
6.7947e-06
-5.29579e-11
6.79472e-06
-2.87739e-11
6.79473e-06
-1.56398e-11
6.79474e-06
-7.37214e-12
6.79474e-06
-2.18515e-12
6.79474e-06
6.31671e-13
6.79474e-06
1.96468e-12
6.79474e-06
2.21963e-12
6.79474e-06
1.68821e-12
6.79474e-06
5.94811e-13
6.79474e-06
-8.6629e-13
6.79474e-06
-2.51893e-12
6.79474e-06
-4.21052e-12
6.79475e-06
-5.82821e-12
6.79475e-06
-7.31026e-12
6.79476e-06
-8.64206e-12
6.79477e-06
-9.84422e-12
6.79478e-06
-1.09524e-11
6.79479e-06
-1.20031e-11
6.7948e-06
-1.30256e-11
6.79481e-06
-1.40388e-11
6.79482e-06
-1.5055e-11
6.79483e-06
-1.60766e-11
6.79484e-06
-1.71055e-11
6.79486e-06
-1.81313e-11
6.79487e-06
-1.91524e-11
6.79489e-06
-2.01356e-11
6.7949e-06
-2.1094e-11
6.79492e-06
-2.19451e-11
6.79494e-06
-2.27748e-11
6.79495e-06
-2.33316e-11
6.79497e-06
-2.39409e-11
6.79499e-06
-2.37202e-11
6.79501e-06
-2.38899e-11
6.79502e-06
-2.13109e-11
6.79504e-06
-2.07378e-11
6.79505e-06
-1.1032e-11
6.79505e-06
-1.00088e-11
6.79504e-06
1.80234e-11
6.79503e-06
1.92518e-11
6.79498e-06
6.54677e-11
6.79492e-06
8.20797e-11
6.79491e-06
1.14911e-11
6.79492e-06
-7.41998e-12
6.79493e-06
-1.98959e-11
6.79495e-06
-2.39464e-11
6.79497e-06
-3.31928e-11
6.795e-06
-3.27528e-11
6.79502e-06
-2.92725e-11
6.79504e-06
-2.55026e-11
6.79505e-06
-2.17238e-11
6.79507e-06
-1.8775e-11
6.79508e-06
-1.67592e-11
6.79509e-06
-1.56638e-11
6.7951e-06
-1.53695e-11
6.79512e-06
-1.56773e-11
6.79513e-06
-1.63649e-11
6.79514e-06
-1.72136e-11
6.79516e-06
-1.80369e-11
6.79517e-06
-1.86932e-11
6.79518e-06
-1.90933e-11
6.7952e-06
-1.91917e-11
6.79521e-06
-1.89815e-11
6.79523e-06
-1.84813e-11
6.79524e-06
-1.77245e-11
6.79525e-06
-1.67526e-11
6.79526e-06
-1.56089e-11
6.79528e-06
-1.43357e-11
6.79528e-06
-1.29705e-11
6.79529e-06
-1.15478e-11
6.7953e-06
-1.00949e-11
6.79531e-06
-8.63815e-12
6.79531e-06
-7.18897e-12
6.79532e-06
-5.77379e-12
6.79532e-06
-4.37018e-12
6.79532e-06
-3.03072e-12
6.79532e-06
-1.6324e-12
6.79532e-06
-3.66865e-13
6.79532e-06
1.25349e-12
6.79532e-06
2.51333e-12
6.79532e-06
4.82973e-12
6.79531e-06
6.23349e-12
6.79531e-06
8.12295e-12
6.7953e-06
6.16643e-12
6.7953e-06
3.12962e-12
6.7953e-06
1.76902e-12
6.7953e-06
-4.86903e-13
6.7953e-06
1.25062e-12
6.79529e-06
2.61278e-12
6.79529e-06
3.58014e-12
6.79529e-06
4.23552e-12
6.79528e-06
5.40642e-12
6.79528e-06
6.08567e-12
6.79527e-06
9.45869e-12
6.79526e-06
1.08557e-11
6.79525e-06
2.1244e-11
6.79523e-06
2.30377e-11
6.79519e-06
5.11559e-11
6.79515e-06
5.31648e-11
6.79508e-06
9.69291e-11
6.795e-06
1.14971e-10
6.79497e-06
3.38604e-11
6.79496e-06
1.06889e-11
6.79496e-06
-1.89427e-12
6.79497e-06
-1.02926e-11
6.79497e-06
-1.06167e-11
6.79498e-06
-1.02215e-11
6.79499e-06
-8.16846e-12
6.79499e-06
-7.38841e-12
6.795e-06
-3.17946e-12
6.795e-06
-3.90737e-12
6.79499e-06
9.61183e-12
6.79499e-06
4.00842e-12
6.79495e-06
6.11561e-11
6.79492e-06
2.16668e-11
3.51318e-10
1.17011e-05
7.06982e-10
1.17012e-05
-1.95464e-10
1.17013e-05
-2.54228e-10
1.17014e-05
-1.52634e-10
1.17014e-05
-1.0821e-10
1.17015e-05
-6.14802e-11
1.17015e-05
-3.39961e-11
1.17015e-05
-1.67872e-11
1.17015e-05
-5.96493e-12
1.17015e-05
-8.58586e-15
1.17015e-05
2.78097e-12
1.17015e-05
3.27071e-12
1.17015e-05
2.0688e-12
1.17015e-05
-3.46655e-13
1.17015e-05
-3.55579e-12
1.17015e-05
-7.17297e-12
1.17015e-05
-1.08679e-11
1.17015e-05
-1.43962e-11
1.17015e-05
-1.76266e-11
1.17015e-05
-2.05304e-11
1.17015e-05
-2.31539e-11
1.17016e-05
-2.55752e-11
1.17016e-05
-2.78739e-11
1.17016e-05
-3.01135e-11
1.17016e-05
-3.23339e-11
1.17016e-05
-3.45579e-11
1.17017e-05
-3.67915e-11
1.17017e-05
-3.90337e-11
1.17017e-05
-4.12679e-11
1.17017e-05
-4.34785e-11
1.17017e-05
-4.56174e-11
1.17018e-05
-4.76748e-11
1.17018e-05
-4.95481e-11
1.17018e-05
-5.12941e-11
1.17019e-05
-5.26079e-11
1.17019e-05
-5.37799e-11
1.17019e-05
-5.36638e-11
1.1702e-05
-5.35942e-11
1.1702e-05
-4.91373e-11
1.1702e-05
-4.65825e-11
1.1702e-05
-2.87756e-11
1.1702e-05
-2.30076e-11
1.1702e-05
3.01698e-11
1.1702e-05
3.93684e-11
1.17019e-05
1.31087e-10
1.17019e-05
1.66929e-10
1.17018e-05
3.66651e-11
1.17018e-05
-1.10133e-11
1.17019e-05
-3.91212e-11
1.17019e-05
-5.0255e-11
1.17019e-05
-6.92276e-11
1.1702e-05
-7.03029e-11
1.1702e-05
-6.4049e-11
1.1702e-05
-5.65143e-11
1.1702e-05
-4.88588e-11
1.17021e-05
-4.27854e-11
1.17021e-05
-3.86576e-11
1.17021e-05
-3.64694e-11
1.17021e-05
-3.59695e-11
1.17022e-05
-3.67292e-11
1.17022e-05
-3.82638e-11
1.17022e-05
-4.00996e-11
1.17022e-05
-4.18351e-11
1.17022e-05
-4.3169e-11
1.17023e-05
-4.39137e-11
1.17023e-05
-4.39783e-11
1.17023e-05
-4.33528e-11
1.17023e-05
-4.20822e-11
1.17024e-05
-4.0244e-11
1.17024e-05
-3.79317e-11
1.17024e-05
-3.52415e-11
1.17024e-05
-3.22668e-11
1.17024e-05
-2.90919e-11
1.17025e-05
-2.57928e-11
1.17025e-05
-2.2431e-11
1.17025e-05
-1.90613e-11
1.17025e-05
-1.57166e-11
1.17025e-05
-1.24402e-11
1.17025e-05
-9.21327e-12
1.17025e-05
-6.10024e-12
1.17025e-05
-2.93025e-12
1.17025e-05
4.21245e-14
1.17025e-05
3.58377e-12
1.17025e-05
6.60578e-12
1.17025e-05
1.14675e-11
1.17025e-05
1.48668e-11
1.17025e-05
1.88651e-11
1.17025e-05
1.54697e-11
1.17025e-05
9.54184e-12
1.17024e-05
6.31724e-12
1.17024e-05
1.88317e-12
1.17024e-05
4.83479e-12
1.17024e-05
7.76554e-12
1.17024e-05
9.89383e-12
1.17024e-05
1.15798e-11
1.17024e-05
1.39453e-11
1.17024e-05
1.6019e-11
1.17024e-05
2.23829e-11
1.17024e-05
2.68162e-11
1.17024e-05
4.62806e-11
1.17023e-05
5.36241e-11
1.17023e-05
1.07284e-10
1.17022e-05
1.17642e-10
1.17021e-05
2.05002e-10
1.1702e-05
2.42445e-10
1.17019e-05
9.17736e-11
1.17019e-05
3.4172e-11
1.17019e-05
4.0012e-12
1.17019e-05
-1.53005e-11
1.17019e-05
-1.86173e-11
1.17019e-05
-1.85424e-11
1.17019e-05
-1.5672e-11
1.17019e-05
-1.34796e-11
1.17019e-05
-7.14603e-12
1.17019e-05
-5.45992e-12
1.17019e-05
1.59241e-11
1.17019e-05
1.50909e-11
1.17018e-05
1.13606e-10
1.17018e-05
6.58905e-11
6.78125e-10
1.69088e-05
1.12753e-09
1.69088e-05
-1.86247e-10
1.69089e-05
-3.61868e-10
1.6909e-05
-2.42206e-10
1.69091e-05
-1.72859e-10
1.69091e-05
-1.01952e-10
1.69091e-05
-5.77567e-11
1.69091e-05
-2.9782e-11
1.69092e-05
-1.21612e-11
1.69092e-05
-2.3584e-12
1.69092e-05
2.17858e-12
1.69092e-05
2.86945e-12
1.69092e-05
7.09987e-13
1.69092e-05
-3.5054e-12
1.69092e-05
-9.06533e-12
1.69092e-05
-1.53104e-11
1.69092e-05
-2.16756e-11
1.69092e-05
-2.77467e-11
1.69092e-05
-3.3302e-11
1.69092e-05
-3.82974e-11
1.69093e-05
-4.28131e-11
1.69093e-05
-4.69855e-11
1.69093e-05
-5.0952e-11
1.69093e-05
-5.48198e-11
1.69093e-05
-5.86557e-11
1.69094e-05
-6.24942e-11
1.69094e-05
-6.6344e-11
1.69094e-05
-7.01988e-11
1.69095e-05
-7.40325e-11
1.69095e-05
-7.78136e-11
1.69095e-05
-8.14764e-11
1.69096e-05
-8.49829e-11
1.69096e-05
-8.82083e-11
1.69097e-05
-9.1164e-11
1.69097e-05
-9.3496e-11
1.69097e-05
-9.5418e-11
1.69098e-05
-9.55317e-11
1.69098e-05
-9.51622e-11
1.69099e-05
-8.8592e-11
1.69099e-05
-8.33331e-11
1.69099e-05
-5.61379e-11
1.69099e-05
-4.32989e-11
1.69099e-05
3.9143e-11
1.69099e-05
6.15202e-11
1.69098e-05
2.07639e-10
1.69097e-05
2.69389e-10
1.69097e-05
7.61248e-11
1.69097e-05
-9.51254e-12
1.69097e-05
-6.04874e-11
1.69097e-05
-8.24967e-11
1.69098e-05
-1.14257e-10
1.69098e-05
-1.18689e-10
1.69099e-05
-1.10247e-10
1.69099e-05
-9.85827e-11
1.691e-05
-8.64678e-11
1.691e-05
-7.6733e-11
1.691e-05
-7.01646e-11
1.69101e-05
-6.68032e-11
1.69101e-05
-6.62269e-11
1.69101e-05
-6.77055e-11
1.69102e-05
-7.04079e-11
1.69102e-05
-7.35286e-11
1.69102e-05
-7.63909e-11
1.69103e-05
-7.84938e-11
1.69103e-05
-7.95293e-11
1.69103e-05
-7.93575e-11
1.69104e-05
-7.79719e-11
1.69104e-05
-7.54591e-11
1.69104e-05
-7.19601e-11
1.69105e-05
-6.76397e-11
1.69105e-05
-6.26672e-11
1.69105e-05
-5.72061e-11
1.69105e-05
-5.14036e-11
1.69106e-05
-4.53909e-11
1.69106e-05
-3.92759e-11
1.69106e-05
-3.31516e-11
1.69106e-05
-2.70808e-11
1.69106e-05
-2.11265e-11
1.69106e-05
-1.52813e-11
1.69106e-05
-9.61771e-12
1.69106e-05
-3.92265e-12
1.69106e-05
1.49947e-12
1.69106e-05
7.70283e-12
1.69106e-05
1.32464e-11
1.69106e-05
2.14735e-11
1.69106e-05
2.77142e-11
1.69106e-05
3.45636e-11
1.69105e-05
2.99561e-11
1.69105e-05
2.08235e-11
1.69105e-05
1.51719e-11
1.69105e-05
8.07617e-12
1.69105e-05
1.21613e-11
1.69105e-05
1.6969e-11
1.69105e-05
2.07196e-11
1.69105e-05
2.39037e-11
1.69105e-05
2.79547e-11
1.69105e-05
3.20622e-11
1.69104e-05
4.22008e-11
1.69104e-05
5.08881e-11
1.69104e-05
8.11417e-11
1.69103e-05
9.66569e-11
1.69103e-05
1.80153e-10
1.69102e-05
2.04018e-10
1.691e-05
3.43574e-10
1.69099e-05
4.06446e-10
1.69098e-05
1.81142e-10
1.69097e-05
7.77952e-11
1.69097e-05
2.09644e-11
1.69097e-05
-1.41836e-11
1.69097e-05
-2.3661e-11
1.69097e-05
-2.54569e-11
1.69097e-05
-2.25955e-11
1.69097e-05
-1.93036e-11
1.69097e-05
-1.10749e-11
1.69097e-05
-6.4992e-12
1.69097e-05
2.32833e-11
1.69097e-05
2.99935e-11
1.69097e-05
1.73952e-10
1.69096e-05
1.29441e-10
1.04327e-09
2.23393e-05
1.57575e-09
2.23392e-05
-1.10203e-10
2.23393e-05
-4.28078e-10
2.23394e-05
-3.2403e-10
2.23394e-05
-2.37805e-10
2.23395e-05
-1.45582e-10
2.23395e-05
-8.49499e-11
2.23395e-05
-4.57701e-11
2.23395e-05
-2.09537e-11
2.23395e-05
-7.00695e-12
2.23395e-05
-6.20307e-13
2.23395e-05
1.79023e-13
2.23395e-05
-3.19565e-12
2.23395e-05
-9.60034e-12
2.23396e-05
-1.79915e-11
2.23396e-05
-2.739e-11
2.23396e-05
-3.69549e-11
2.23396e-05
-4.60727e-11
2.23396e-05
-5.44164e-11
2.23396e-05
-6.1925e-11
2.23397e-05
-6.87212e-11
2.23397e-05
-7.50096e-11
2.23397e-05
-8.09967e-11
2.23398e-05
-8.68397e-11
2.23398e-05
-9.26376e-11
2.23398e-05
-9.84366e-11
2.23399e-05
-1.04244e-10
2.23399e-05
-1.10047e-10
2.23399e-05
-1.15806e-10
2.234e-05
-1.21472e-10
2.234e-05
-1.26963e-10
2.23401e-05
-1.32212e-10
2.23401e-05
-1.37063e-10
2.23402e-05
-1.41488e-10
2.23402e-05
-1.45059e-10
2.23403e-05
-1.47928e-10
2.23403e-05
-1.48388e-10
2.23404e-05
-1.47777e-10
2.23404e-05
-1.38965e-10
2.23405e-05
-1.30642e-10
2.23405e-05
-9.33011e-11
2.23406e-05
-7.17931e-11
2.23406e-05
4.21916e-11
2.23405e-05
8.20108e-11
2.23405e-05
2.87999e-10
2.23403e-05
3.81078e-10
2.23403e-05
1.27363e-10
2.23403e-05
-7.49257e-13
2.23403e-05
-8.07144e-11
2.23403e-05
-1.17373e-10
2.23404e-05
-1.64753e-10
2.23404e-05
-1.74629e-10
2.23405e-05
-1.65339e-10
2.23405e-05
-1.49967e-10
2.23406e-05
-1.33479e-10
2.23406e-05
-1.20074e-10
2.23407e-05
-1.11117e-10
2.23407e-05
-1.06743e-10
2.23408e-05
-1.06336e-10
2.23408e-05
-1.08814e-10
2.23408e-05
-1.12943e-10
2.23409e-05
-1.17535e-10
2.23409e-05
-1.21605e-10
2.2341e-05
-1.24432e-10
2.2341e-05
-1.25583e-10
2.23411e-05
-1.24871e-10
2.23411e-05
-1.22306e-10
2.23412e-05
-1.18031e-10
2.23412e-05
-1.12267e-10
2.23412e-05
-1.05266e-10
2.23413e-05
-9.7289e-11
2.23413e-05
-8.85808e-11
2.23413e-05
-7.93663e-11
2.23414e-05
-6.98413e-11
2.23414e-05
-6.01703e-11
2.23414e-05
-5.04914e-11
2.23414e-05
-4.09029e-11
2.23414e-05
-3.14943e-11
2.23414e-05
-2.22706e-11
2.23414e-05
-1.33166e-11
2.23414e-05
-4.37539e-12
2.23414e-05
4.20121e-12
2.23414e-05
1.37592e-11
2.23414e-05
2.25269e-11
2.23414e-05
3.48388e-11
2.23414e-05
4.46807e-11
2.23414e-05
5.50689e-11
2.23413e-05
4.97205e-11
2.23413e-05
3.74611e-11
2.23413e-05
2.90975e-11
2.23413e-05
1.90357e-11
2.23413e-05
2.40831e-11
2.23413e-05
3.08842e-11
2.23413e-05
3.66479e-11
2.23412e-05
4.17689e-11
2.23412e-05
4.80259e-11
2.23412e-05
5.47307e-11
2.23412e-05
6.93487e-11
2.23411e-05
8.31652e-11
2.23411e-05
1.2537e-10
2.2341e-05
1.50936e-10
2.23409e-05
2.66656e-10
2.23408e-05
3.0821e-10
2.23407e-05
5.05173e-10
2.23405e-05
5.9823e-10
2.23404e-05
2.99784e-10
2.23403e-05
1.44488e-10
2.23403e-05
5.30116e-11
2.23403e-05
-3.00747e-12
2.23403e-05
-2.23116e-11
2.23403e-05
-2.83003e-11
2.23403e-05
-2.68187e-11
2.23403e-05
-2.34449e-11
2.23403e-05
-1.38027e-11
2.23403e-05
-6.81328e-12
2.23403e-05
3.17519e-11
2.23403e-05
4.68907e-11
2.23402e-05
2.38291e-10
2.23401e-05
2.06755e-10
1.4147e-09
2.78112e-05
2.02139e-09
2.7811e-05
2.47009e-11
2.7811e-05
-4.39532e-10
2.78111e-05
-3.82041e-10
2.78112e-05
-2.93811e-10
2.78112e-05
-1.87442e-10
2.78112e-05
-1.13214e-10
2.78112e-05
-6.37926e-11
2.78113e-05
-3.20974e-11
2.78113e-05
-1.4054e-11
2.78113e-05
-5.82689e-12
2.78113e-05
-4.97637e-12
2.78113e-05
-9.69784e-12
2.78113e-05
-1.84959e-11
2.78113e-05
-2.99811e-11
2.78113e-05
-4.28348e-11
2.78113e-05
-5.59178e-11
2.78114e-05
-6.84e-11
2.78114e-05
-7.98401e-11
2.78114e-05
-9.01572e-11
2.78114e-05
-9.9518e-11
2.78115e-05
-1.08201e-10
2.78115e-05
-1.16483e-10
2.78116e-05
-1.24579e-10
2.78116e-05
-1.32616e-10
2.78116e-05
-1.40653e-10
2.78117e-05
-1.48694e-10
2.78117e-05
-1.56715e-10
2.78118e-05
-1.64663e-10
2.78118e-05
-1.72471e-10
2.78119e-05
-1.80037e-10
2.78119e-05
-1.87269e-10
2.7812e-05
-1.93979e-10
2.7812e-05
-2.00101e-10
2.78121e-05
-2.05117e-10
2.78122e-05
-2.09139e-10
2.78122e-05
-2.10103e-10
2.78123e-05
-2.09403e-10
2.78124e-05
-1.98407e-10
2.78124e-05
-1.86975e-10
2.78125e-05
-1.39341e-10
2.78125e-05
-1.08352e-10
2.78125e-05
3.77696e-11
2.78125e-05
9.78493e-11
2.78124e-05
3.66187e-10
2.78123e-05
4.94724e-10
2.78122e-05
1.86733e-10
2.78122e-05
1.59469e-11
2.78122e-05
-9.6668e-11
2.78123e-05
-1.51171e-10
2.78123e-05
-2.16618e-10
2.78124e-05
-2.34159e-10
2.78124e-05
-2.25906e-10
2.78125e-05
-2.08014e-10
2.78125e-05
-1.87929e-10
2.78126e-05
-1.71393e-10
2.78126e-05
-1.60462e-10
2.78127e-05
-1.55422e-10
2.78127e-05
-1.55465e-10
2.78128e-05
-1.59145e-10
2.78128e-05
-1.6481e-10
2.78129e-05
-1.70888e-10
2.7813e-05
-1.76079e-10
2.7813e-05
-1.79451e-10
2.78131e-05
-1.80451e-10
2.78131e-05
-1.7886e-10
2.78132e-05
-1.74713e-10
2.78132e-05
-1.68218e-10
2.78133e-05
-1.59684e-10
2.78133e-05
-1.49461e-10
2.78134e-05
-1.37905e-10
2.78134e-05
-1.25353e-10
2.78134e-05
-1.12112e-10
2.78135e-05
-9.84499e-11
2.78135e-05
-8.45912e-11
2.78135e-05
-7.07238e-11
2.78135e-05
-5.69858e-11
2.78135e-05
-4.34966e-11
2.78135e-05
-3.02755e-11
2.78135e-05
-1.74249e-11
2.78135e-05
-4.6418e-12
2.78135e-05
7.67303e-12
2.78135e-05
2.11541e-11
2.78135e-05
3.37195e-11
2.78135e-05
5.06731e-11
2.78135e-05
6.47292e-11
2.78135e-05
7.92421e-11
2.78134e-05
7.37552e-11
2.78134e-05
5.87454e-11
2.78134e-05
4.76692e-11
2.78134e-05
3.4533e-11
2.78134e-05
4.03426e-11
2.78133e-05
4.91189e-11
2.78133e-05
5.7162e-11
2.78133e-05
6.45919e-11
2.78133e-05
7.35176e-11
2.78132e-05
8.32797e-11
2.78132e-05
1.02875e-10
2.78132e-05
1.22346e-10
2.78131e-05
1.77001e-10
2.78131e-05
2.13663e-10
2.7813e-05
3.62267e-10
2.78128e-05
4.24219e-10
2.78127e-05
6.80902e-10
2.78125e-05
8.07733e-10
2.78123e-05
4.41908e-10
2.78122e-05
2.3334e-10
2.78122e-05
1.01982e-10
2.78122e-05
2.07304e-11
2.78121e-05
-1.20923e-11
2.78121e-05
-2.50221e-11
2.78121e-05
-2.67767e-11
2.78121e-05
-2.48026e-11
2.78121e-05
-1.46379e-11
2.78121e-05
-6.19807e-12
2.78121e-05
4.09079e-11
2.78121e-05
6.42576e-11
2.78121e-05
3.02723e-10
2.7812e-05
2.90522e-10
1.7688e-09
3.31018e-05
2.44183e-09
3.31016e-05
2.0355e-10
3.31016e-05
-3.96542e-10
3.31016e-05
-4.06655e-10
3.31016e-05
-3.33068e-10
3.31017e-05
-2.22541e-10
3.31017e-05
-1.39675e-10
3.31017e-05
-8.22555e-11
3.31017e-05
-4.46644e-11
3.31017e-05
-2.28914e-11
3.31018e-05
-1.29169e-11
3.31018e-05
-1.2008e-11
3.31018e-05
-1.80452e-11
3.31018e-05
-2.9217e-11
3.31018e-05
-4.38056e-11
3.31018e-05
-6.01597e-11
3.31018e-05
-7.68413e-11
3.31019e-05
-9.28005e-11
3.31019e-05
-1.07476e-10
3.31019e-05
-1.20763e-10
3.31019e-05
-1.32867e-10
3.3102e-05
-1.44136e-10
3.3102e-05
-1.54916e-10
3.31021e-05
-1.65472e-10
3.31021e-05
-1.75962e-10
3.31021e-05
-1.86454e-10
3.31022e-05
-1.96947e-10
3.31022e-05
-2.07403e-10
3.31023e-05
-2.17754e-10
3.31024e-05
-2.27915e-10
3.31024e-05
-2.37765e-10
3.31025e-05
-2.4719e-10
3.31025e-05
-2.55966e-10
3.31026e-05
-2.63999e-10
3.31027e-05
-2.70673e-10
3.31027e-05
-2.76071e-10
3.31028e-05
-2.77762e-10
3.31029e-05
-2.77209e-10
3.31029e-05
-2.64287e-10
3.3103e-05
-2.49967e-10
3.31031e-05
-1.92443e-10
3.31031e-05
-1.51918e-10
3.31031e-05
2.55933e-11
3.31031e-05
1.07158e-10
3.3103e-05
4.37937e-10
3.31029e-05
6.04998e-10
3.31029e-05
2.50605e-10
3.31028e-05
4.00281e-11
3.31028e-05
-1.06112e-10
3.31029e-05
-1.80531e-10
3.31029e-05
-2.65908e-10
3.3103e-05
-2.93292e-10
3.3103e-05
-2.88257e-10
3.31031e-05
-2.69625e-10
3.31032e-05
-2.47321e-10
3.31032e-05
-2.28669e-10
3.31033e-05
-2.1648e-10
3.31033e-05
-2.11236e-10
3.31034e-05
-2.11971e-10
3.31034e-05
-2.16913e-10
3.31035e-05
-2.24032e-10
3.31036e-05
-2.31407e-10
3.31036e-05
-2.37468e-10
3.31037e-05
-2.41097e-10
3.31037e-05
-2.41644e-10
3.31038e-05
-2.38865e-10
3.31039e-05
-2.32827e-10
3.31039e-05
-2.23804e-10
3.3104e-05
-2.12191e-10
3.3104e-05
-1.98431e-10
3.31041e-05
-1.82975e-10
3.31041e-05
-1.66248e-10
3.31041e-05
-1.48637e-10
3.31042e-05
-1.3048e-10
3.31042e-05
-1.12064e-10
3.31042e-05
-9.36289e-11
3.31042e-05
-7.53515e-11
3.31043e-05
-5.73852e-11
3.31043e-05
-3.97642e-11
3.31043e-05
-2.26132e-11
3.31043e-05
-5.58447e-12
3.31043e-05
1.08728e-11
3.31043e-05
2.86669e-11
3.31043e-05
4.54285e-11
3.31042e-05
6.73881e-11
3.31042e-05
8.60916e-11
3.31042e-05
1.05185e-10
3.31042e-05
1.00197e-10
3.31041e-05
8.29885e-11
3.31041e-05
6.94316e-11
3.31041e-05
5.32948e-11
3.31041e-05
5.96923e-11
3.31041e-05
7.03591e-11
3.3104e-05
8.08261e-11
3.3104e-05
9.08451e-11
3.3104e-05
1.02785e-10
3.31039e-05
1.15927e-10
3.31039e-05
1.40729e-10
3.31039e-05
1.66025e-10
3.31038e-05
2.32997e-10
3.31037e-05
2.80969e-10
3.31036e-05
4.61748e-10
3.31035e-05
5.45234e-10
3.31033e-05
8.6168e-10
3.31031e-05
1.02506e-09
3.3103e-05
5.99877e-10
3.31029e-05
3.40406e-10
3.31028e-05
1.67221e-10
3.31028e-05
5.77407e-11
3.31027e-05
8.19168e-12
3.31027e-05
-1.44329e-11
3.31027e-05
-2.15526e-11
3.31027e-05
-2.26878e-11
3.31027e-05
-1.32645e-11
3.31027e-05
-4.53229e-12
3.31027e-05
5.01772e-11
3.31027e-05
8.08828e-11
3.31026e-05
3.63984e-10
3.31025e-05
3.73721e-10
2.08836e-09
3.80669e-05
2.82134e-09
3.80667e-05
4.08644e-10
3.80666e-05
-3.0819e-10
3.80666e-05
-3.95314e-10
3.80666e-05
-3.50254e-10
3.80666e-05
-2.46104e-10
3.80666e-05
-1.60853e-10
3.80666e-05
-9.87658e-11
3.80666e-05
-5.69635e-11
3.80667e-05
-3.22456e-11
3.80667e-05
-2.08214e-11
3.80667e-05
-1.98945e-11
3.80667e-05
-2.71566e-11
3.80667e-05
-4.05521e-11
3.80667e-05
-5.80817e-11
3.80667e-05
-7.77936e-11
3.80667e-05
-9.79717e-11
3.80668e-05
-1.17357e-10
3.80668e-05
-1.35271e-10
3.80668e-05
-1.51578e-10
3.80669e-05
-1.66515e-10
3.80669e-05
-1.80488e-10
3.80669e-05
-1.93903e-10
3.8067e-05
-2.0707e-10
3.8067e-05
-2.20171e-10
3.80671e-05
-2.33281e-10
3.80671e-05
-2.46395e-10
3.80672e-05
-2.5946e-10
3.80672e-05
-2.7239e-10
3.80673e-05
-2.85084e-10
3.80673e-05
-2.974e-10
3.80674e-05
-3.09205e-10
3.80675e-05
-3.20241e-10
3.80675e-05
-3.30389e-10
3.80676e-05
-3.38942e-10
3.80677e-05
-3.45952e-10
3.80677e-05
-3.48641e-10
3.80678e-05
-3.48531e-10
3.80679e-05
-3.34082e-10
3.8068e-05
-3.17272e-10
3.8068e-05
-2.50608e-10
3.80681e-05
-2.01032e-10
3.80681e-05
6.31117e-12
3.80681e-05
1.09297e-10
3.8068e-05
5.01151e-10
3.80679e-05
7.0883e-10
3.80678e-05
3.15801e-10
3.80678e-05
6.98752e-11
3.80678e-05
-1.08432e-10
3.80678e-05
-2.03481e-10
3.80679e-05
-3.09901e-10
3.80679e-05
-3.49003e-10
3.8068e-05
-3.4936e-10
3.80681e-05
-3.32061e-10
3.80681e-05
-3.09301e-10
3.80682e-05
-2.89897e-10
3.80682e-05
-2.77396e-10
3.80683e-05
-2.725e-10
3.80684e-05
-2.7414e-10
3.80684e-05
-2.80289e-10
3.80685e-05
-2.88624e-10
3.80686e-05
-2.96959e-10
3.80686e-05
-3.03514e-10
3.80687e-05
-3.07036e-10
3.80688e-05
-3.06809e-10
3.80688e-05
-3.02576e-10
3.80689e-05
-2.94435e-10
3.80689e-05
-2.8272e-10
3.8069e-05
-2.67901e-10
3.80691e-05
-2.50503e-10
3.80691e-05
-2.31058e-10
3.80691e-05
-2.10068e-10
3.80692e-05
-1.87993e-10
3.80692e-05
-1.65236e-10
3.80692e-05
-1.42142e-10
3.80693e-05
-1.18998e-10
3.80693e-05
-9.60228e-11
3.80693e-05
-7.34014e-11
3.80693e-05
-5.11866e-11
3.80693e-05
-2.95261e-11
3.80693e-05
-8.03338e-12
3.80693e-05
1.27956e-11
3.80693e-05
3.51239e-11
3.80693e-05
5.6316e-11
3.80693e-05
8.34799e-11
3.80693e-05
1.07103e-10
3.80692e-05
1.31106e-10
3.80692e-05
1.27205e-10
3.80692e-05
1.08405e-10
3.80692e-05
9.27445e-11
3.80692e-05
7.38264e-11
3.80691e-05
8.07259e-11
3.80691e-05
9.32184e-11
3.80691e-05
1.06193e-10
3.80691e-05
1.1901e-10
3.8069e-05
1.34202e-10
3.8069e-05
1.5092e-10
3.80689e-05
1.80931e-10
3.80689e-05
2.11943e-10
3.80688e-05
2.9065e-10
3.80688e-05
3.49521e-10
3.80687e-05
5.60929e-10
3.80686e-05
6.65829e-10
3.80684e-05
1.04072e-09
3.80682e-05
1.24268e-09
3.8068e-05
7.66393e-10
3.80679e-05
4.60439e-10
3.80678e-05
2.46238e-10
3.80677e-05
1.07203e-10
3.80677e-05
3.86226e-11
3.80677e-05
3.92914e-12
3.80677e-05
-1.06615e-11
3.80677e-05
-1.66452e-11
3.80677e-05
-9.44173e-12
3.80677e-05
-1.63655e-12
3.80677e-05
5.92595e-11
3.80676e-05
9.61428e-11
3.80676e-05
4.20066e-10
3.80675e-05
4.52053e-10
2.36393e-09
4.26775e-05
3.15156e-09
4.26773e-05
6.22822e-10
4.26772e-05
-1.8787e-10
4.26772e-05
-3.51415e-10
4.26771e-05
-3.43477e-10
4.26772e-05
-2.54591e-10
4.26772e-05
-1.73347e-10
4.26772e-05
-1.10568e-10
4.26772e-05
-6.68599e-11
4.26772e-05
-4.04639e-11
4.26772e-05
-2.82175e-11
4.26772e-05
-2.75078e-11
4.26772e-05
-3.59933e-11
4.26772e-05
-5.14747e-11
4.26772e-05
-7.1741e-11
4.26773e-05
-9.45933e-11
4.26773e-05
-1.18076e-10
4.26773e-05
-1.40746e-10
4.26773e-05
-1.61817e-10
4.26774e-05
-1.8112e-10
4.26774e-05
-1.98915e-10
4.26774e-05
-2.15652e-10
4.26775e-05
-2.31787e-10
4.26775e-05
-2.47664e-10
4.26776e-05
-2.63486e-10
4.26776e-05
-2.79332e-10
4.26776e-05
-2.9519e-10
4.26777e-05
-3.10995e-10
4.26778e-05
-3.26645e-10
4.26778e-05
-3.4202e-10
4.26779e-05
-3.56958e-10
4.26779e-05
-3.71307e-10
4.2678e-05
-3.84781e-10
4.26781e-05
-3.97235e-10
4.26781e-05
-4.07884e-10
4.26782e-05
-4.16742e-10
4.26783e-05
-4.2072e-10
4.26783e-05
-4.21365e-10
4.26784e-05
-4.05846e-10
4.26785e-05
-3.87021e-10
4.26786e-05
-3.12114e-10
4.26786e-05
-2.54247e-10
4.26786e-05
-1.89327e-11
4.26786e-05
1.04619e-10
4.26786e-05
5.55646e-10
4.26785e-05
8.0515e-10
4.26784e-05
3.79884e-10
4.26784e-05
1.03282e-10
4.26784e-05
-1.04513e-10
4.26784e-05
-2.19696e-10
4.26784e-05
-3.47485e-10
4.26785e-05
-3.99671e-10
4.26785e-05
-4.07317e-10
4.26786e-05
-3.93414e-10
4.26787e-05
-3.72104e-10
4.26787e-05
-3.53491e-10
4.26788e-05
-3.41767e-10
4.26789e-05
-3.37844e-10
4.26789e-05
-3.40603e-10
4.2679e-05
-3.47856e-10
4.26791e-05
-3.57093e-10
4.26791e-05
-3.65965e-10
4.26792e-05
-3.72569e-10
4.26793e-05
-3.75577e-10
4.26793e-05
-3.7424e-10
4.26794e-05
-3.68305e-10
4.26795e-05
-3.57902e-10
4.26795e-05
-3.43415e-10
4.26796e-05
-3.25373e-10
4.26796e-05
-3.04365e-10
4.26797e-05
-2.80987e-10
4.26797e-05
-2.55807e-10
4.26798e-05
-2.29341e-10
4.26798e-05
-2.0205e-10
4.26798e-05
-1.74327e-10
4.26799e-05
-1.46505e-10
4.26799e-05
-1.18838e-10
4.26799e-05
-9.15445e-11
4.26799e-05
-6.46947e-11
4.26799e-05
-3.84619e-11
4.26799e-05
-1.24272e-11
4.26799e-05
1.28699e-11
4.26799e-05
3.9826e-11
4.26799e-05
6.55601e-11
4.26799e-05
9.80116e-11
4.26799e-05
1.26709e-10
4.26799e-05
1.5585e-10
4.26798e-05
1.53519e-10
4.26798e-05
1.33689e-10
4.26798e-05
1.16359e-10
4.26798e-05
9.4978e-11
4.26798e-05
1.02425e-10
4.26797e-05
1.16772e-10
4.26797e-05
1.32355e-10
4.26797e-05
1.48157e-10
4.26796e-05
1.66776e-10
4.26796e-05
1.87173e-10
4.26796e-05
2.22256e-10
4.26795e-05
2.58695e-10
4.26795e-05
3.48317e-10
4.26794e-05
4.17308e-10
4.26793e-05
6.57446e-10
4.26792e-05
7.82854e-10
4.2679e-05
1.21439e-09
4.26788e-05
1.45619e-09
4.26786e-05
9.35794e-10
4.26785e-05
5.88291e-10
4.26784e-05
3.35601e-10
4.26783e-05
1.67197e-10
4.26783e-05
7.83734e-11
4.26783e-05
2.98899e-11
4.26783e-05
6.0198e-12
4.26783e-05
-6.40755e-12
4.26782e-05
-2.92867e-12
4.26782e-05
2.74468e-12
4.26782e-05
6.81947e-11
4.26782e-05
1.09992e-10
4.26782e-05
4.70203e-10
4.26781e-05
5.23992e-10
2.59386e-09
4.69746e-05
3.43067e-09
4.69744e-05
8.32569e-10
4.69743e-05
-4.94962e-11
4.69742e-05
-2.82237e-10
4.69742e-05
-3.14411e-10
4.69742e-05
-2.46676e-10
4.69742e-05
-1.74822e-10
4.69742e-05
-1.15308e-10
4.69742e-05
-7.2313e-11
4.69742e-05
-4.58794e-11
4.69742e-05
-3.37676e-11
4.69742e-05
-3.37632e-11
4.69742e-05
-4.36464e-11
4.69742e-05
-6.1185e-11
4.69742e-05
-8.40402e-11
4.69742e-05
-1.09832e-10
4.69743e-05
-1.36418e-10
4.69743e-05
-1.62203e-10
4.69743e-05
-1.86311e-10
4.69743e-05
-2.08546e-10
4.69744e-05
-2.2918e-10
4.69744e-05
-2.487e-10
4.69744e-05
-2.67597e-10
4.69745e-05
-2.86242e-10
4.69745e-05
-3.04852e-10
4.69745e-05
-3.23508e-10
4.69746e-05
-3.42193e-10
4.69746e-05
-3.6083e-10
4.69747e-05
-3.79302e-10
4.69748e-05
-3.97471e-10
4.69748e-05
-4.15158e-10
4.69749e-05
-4.3219e-10
4.69749e-05
-4.48257e-10
4.6975e-05
-4.6319e-10
4.69751e-05
-4.76136e-10
4.69751e-05
-4.87062e-10
4.69752e-05
-4.92609e-10
4.69753e-05
-4.94315e-10
4.69754e-05
-4.78183e-10
4.69754e-05
-4.57831e-10
4.69755e-05
-3.75586e-10
4.69755e-05
-3.10279e-10
4.69756e-05
-4.88371e-11
4.69756e-05
9.40461e-11
4.69755e-05
6.02424e-10
4.69755e-05
8.94316e-10
4.69754e-05
4.41396e-10
4.69754e-05
1.3817e-10
4.69753e-05
-9.5982e-11
4.69754e-05
-2.29986e-10
4.69754e-05
-3.78819e-10
4.69754e-05
-4.44906e-10
4.69755e-05
-4.61336e-10
4.69755e-05
-4.5268e-10
4.69756e-05
-4.3466e-10
4.69757e-05
-4.18391e-10
4.69757e-05
-4.08561e-10
4.69758e-05
-4.06251e-10
4.69759e-05
-4.10339e-10
4.6976e-05
-4.18572e-10
4.6976e-05
-4.28371e-10
4.69761e-05
-4.3733e-10
4.69762e-05
-4.43515e-10
4.69762e-05
-4.45584e-10
4.69763e-05
-4.42794e-10
4.69764e-05
-4.34915e-10
4.69764e-05
-4.22109e-10
4.69765e-05
-4.048e-10
4.69766e-05
-3.83562e-10
4.69766e-05
-3.5903e-10
4.69767e-05
-3.31848e-10
4.69767e-05
-3.02628e-10
4.69767e-05
-2.71934e-10
4.69768e-05
-2.40269e-10
4.69768e-05
-2.08068e-10
4.69768e-05
-1.75699e-10
4.69769e-05
-1.43452e-10
4.69769e-05
-1.11572e-10
4.69769e-05
-8.01492e-11
4.69769e-05
-4.93795e-11
4.69769e-05
-1.88201e-11
4.69769e-05
1.09486e-11
4.69769e-05
4.25385e-11
4.69769e-05
7.2839e-11
4.69769e-05
1.10586e-10
4.69769e-05
1.44433e-10
4.69769e-05
1.78861e-10
4.69768e-05
1.78464e-10
4.69768e-05
1.58071e-10
4.69768e-05
1.39495e-10
4.69768e-05
1.16021e-10
4.69767e-05
1.24198e-10
4.69767e-05
1.4056e-10
4.69767e-05
1.5893e-10
4.69767e-05
1.77925e-10
4.69766e-05
2.00117e-10
4.69766e-05
2.24239e-10
4.69766e-05
2.64167e-10
4.69765e-05
3.05636e-10
4.69765e-05
4.0525e-10
4.69764e-05
4.8341e-10
4.69763e-05
7.50336e-10
4.69762e-05
8.94929e-10
4.6976e-05
1.38136e-09
4.69758e-05
1.66369e-09
4.69756e-05
1.10432e-09
4.69755e-05
7.19689e-10
4.69754e-05
4.31728e-10
4.69753e-05
2.35199e-10
4.69753e-05
1.25923e-10
4.69753e-05
6.26763e-11
4.69752e-05
2.81891e-11
4.69752e-05
8.00434e-12
4.69752e-05
6.38564e-12
4.69752e-05
8.81126e-12
4.69752e-05
7.71662e-11
4.69752e-05
1.22675e-10
4.69751e-05
5.14416e-10
4.69751e-05
5.89481e-10
2.78142e-09
5.10201e-05
3.66104e-09
5.10199e-05
1.02917e-09