/*--------------------------------*- C++ -*----------------------------------*\
  =========                 |
  \\      /  F ield         | OpenFOAM: The Open Source CFD Toolbox
   \\    /   O peration     | Website:  https://openfoam.org
    \\  /    A nd           | Version:  7
     \\/     M anipulation  |
\*---------------------------------------------------------------------------*/
FoamFile
{
    version     2.0;
    format      ascii;
    class       volVectorField;
    location    "2000";
    object      U;
}
// * * * * * * * * * * * * * * * * * * * * * * * * * * * * * * * * * * * * * //

dimensions      [0 1 -1 0 0 0 0];

internalField   nonuniform List<vector> 
24000
(
(0.00434382 2.03467e-09 8.61995e-18)
(0.00434379 -2.37641e-09 -4.66248e-18)
(0.00434396 -3.93254e-10 -7.18659e-18)
(0.00434399 -3.46143e-10 -6.82048e-17)
(0.00434403 -2.38822e-10 -3.67924e-16)
(0.00434405 -9.3444e-11 -7.62949e-17)
(0.00434406 -5.4005e-11 -3.54991e-16)
(0.00434407 -1.61224e-11 -7.45664e-17)
(0.00434407 4.061e-12 -3.3461e-17)
(0.00434407 1.44289e-11 -3.69391e-16)
(0.00434407 1.95296e-11 -6.16791e-17)
(0.00434407 2.05442e-11 -4.75506e-17)
(0.00434406 1.87982e-11 -4.54465e-17)
(0.00434406 1.50298e-11 -6.9036e-17)
(0.00434406 9.9061e-12 -9.95969e-17)
(0.00434406 4.01998e-12 -5.28937e-17)
(0.00434406 -2.1205e-12 -6.09728e-17)
(0.00434407 -8.07434e-12 -5.95654e-17)
(0.00434407 -1.35285e-11 -8.56557e-17)
(0.00434407 -1.84067e-11 -1.1764e-16)
(0.00434408 -2.27638e-11 -4.52857e-17)
(0.00434408 -2.66988e-11 -1.0536e-16)
(0.00434409 -3.0378e-11 -8.52598e-17)
(0.00434409 -3.39318e-11 -1.09736e-16)
(0.0043441 -3.74152e-11 -1.60346e-16)
(0.00434411 -4.09467e-11 -6.96786e-17)
(0.00434411 -4.44828e-11 -9.38555e-17)
(0.00434412 -4.81774e-11 -8.16102e-17)
(0.00434413 -5.17682e-11 -1.263e-16)
(0.00434414 -5.57264e-11 -1.7066e-16)
(0.00434415 -5.90715e-11 -8.44032e-17)
(0.00434416 -6.33615e-11 -9.16675e-17)
(0.00434417 -6.54572e-11 -8.4412e-17)
(0.00434418 -7.06089e-11 -1.19188e-16)
(0.00434419 -6.89751e-11 -1.92965e-16)
(0.00434421 -7.72915e-11 -9.62982e-17)
(0.00434422 -6.49232e-11 -1.05582e-16)
(0.00434423 -8.32316e-11 -9.67474e-17)
(0.00434424 -4.02415e-11 -1.21232e-16)
(0.00434425 -8.63636e-11 -1.52206e-16)
(0.00434426 3.55426e-11 -1.21487e-16)
(0.00434426 -7.14225e-11 3.93631e-17)
(0.00434426 2.0303e-10 -7.92452e-17)
(0.00434425 4.64857e-11 -8.65126e-17)
(0.00434423 3.60481e-10 -7.75159e-17)
(0.00434417 4.53279e-10 -6.53514e-17)
(0.00434415 -1.72706e-10 1.4466e-16)
(0.00434416 -2.78505e-11 -4.46758e-17)
(0.00434417 -1.28902e-10 -5.35564e-17)
(0.00434418 -8.69809e-11 -4.67794e-17)
(0.00434419 -1.6003e-10 -3.99309e-17)
(0.00434421 -1.2002e-10 1.79669e-16)
(0.00434423 -1.01971e-10 -3.32941e-17)
(0.00434424 -8.25804e-11 2.01295e-16)
(0.00434426 -6.437e-11 -7.12227e-17)
(0.00434427 -5.1714e-11 -1.7213e-17)
(0.00434427 -4.27461e-11 2.21918e-16)
(0.00434428 -3.76369e-11 -1.61968e-17)
(0.00434429 -3.57774e-11 1.90666e-16)
(0.0043443 -3.6388e-11 -3.932e-17)
(0.0043443 -3.86841e-11 1.02074e-17)
(0.00434431 -4.18628e-11 1.9541e-16)
(0.00434432 -4.52276e-11 5.09982e-18)
(0.00434433 -4.82295e-11 1.6956e-16)
(0.00434434 -5.05392e-11 -8.43374e-18)
(0.00434435 -5.19288e-11 2.10829e-17)
(0.00434436 -5.23529e-11 1.58433e-16)
(0.00434437 -5.18626e-11 1.64305e-17)
(0.00434437 -5.05376e-11 1.54571e-16)
(0.00434438 -4.8516e-11 -1.03637e-17)
(0.00434439 -4.59326e-11 2.73081e-17)
(0.0043444 -4.2943e-11 1.71883e-16)
(0.0043444 -3.96142e-11 2.74876e-17)
(0.00434441 -3.61287e-11 2.52717e-16)
(0.00434442 -3.24663e-11 -7.49577e-17)
(0.00434442 -2.89006e-11 2.89029e-17)
(0.00434443 -2.51199e-11 2.86504e-16)
(0.00434443 -2.18225e-11 2.76025e-17)
(0.00434443 -1.78269e-11 2.78097e-16)
(0.00434443 -1.5211e-11 -3.86588e-17)
(0.00434443 -1.02214e-11 -1.512e-16)
(0.00434444 -9.00576e-12 -9.0787e-17)
(0.00434444 -8.3426e-13 1.98656e-17)
(0.00434443 -1.90241e-12 -2.00186e-16)
(0.00434443 1.24197e-11 -5.8305e-17)
(0.00434443 9.92175e-12 -2.56049e-16)
(0.00434443 2.22748e-11 -1.09378e-16)
(0.00434442 3.70479e-12 2.82824e-18)
(0.00434442 -1.51056e-11 -2.43893e-16)
(0.00434442 -1.09996e-11 -4.21117e-17)
(0.00434442 -3.09285e-11 -2.85532e-16)
(0.00434442 -8.57654e-12 -8.54081e-17)
(0.00434442 -8.57223e-12 2.29623e-18)
(0.00434442 -2.16411e-12 -2.64473e-16)
(0.00434442 -6.5997e-12 -6.71079e-17)
(0.00434442 7.37e-12 -2.93462e-16)
(0.00434442 -8.63576e-12 -4.26775e-17)
(0.00434441 3.51149e-11 1.34376e-17)
(0.00434441 -7.33351e-12 -1.81202e-16)
(0.0043444 1.1326e-10 -5.89108e-17)
(0.00434439 1.40814e-11 -2.19256e-16)
(0.00434437 2.79027e-10 -6.97463e-17)
(0.00434434 1.41568e-10 6.74804e-18)
(0.00434431 4.19907e-10 -2.32027e-16)
(0.00434424 5.54126e-10 -6.28287e-17)
(0.0043442 -1.56273e-10 -2.11731e-16)
(0.0043442 -1.22737e-11 -9.72318e-17)
(0.0043442 -8.26493e-11 -1.46825e-17)
(0.00434421 -9.85244e-11 -2.89064e-16)
(0.00434421 -6.67382e-11 -1.25907e-16)
(0.00434422 -7.36167e-11 -2.26174e-16)
(0.00434423 -3.20487e-11 -2.15182e-16)
(0.00434423 -6.95837e-11 -9.43342e-18)
(0.00434423 3.18168e-11 -1.96151e-16)
(0.00434424 -1.07087e-10 -5.30799e-17)
(0.00434423 1.96704e-10 -1.70506e-16)
(0.00434424 -2.27499e-10 -2.64566e-16)
(0.0043442 6.92154e-10 -1.36883e-17)
(0.00434421 -4.61517e-10 -1.75235e-16)
(0.00434414 2.37435e-09 -8.06146e-17)
(0.013114 1.98366e-08 2.70083e-17)
(0.0131138 -1.08811e-08 -1.29788e-17)
(0.0131141 -7.75342e-09 -2.13631e-17)
(0.0131142 -3.98386e-09 -2.08359e-16)
(0.0131143 -2.95132e-09 -8.19331e-16)
(0.0131144 -1.52463e-09 -2.20785e-16)
(0.0131144 -8.18792e-10 -7.91193e-16)
(0.0131144 -3.67531e-10 -2.1429e-16)
(0.0131144 -8.49806e-11 -1.03582e-16)
(0.0131144 6.58842e-11 -7.92159e-16)
(0.0131144 1.37755e-10 -1.7851e-16)
(0.0131144 1.51804e-10 -1.46e-16)
(0.0131144 1.2405e-10 -1.37031e-16)
(0.0131144 6.65718e-11 -2.09322e-16)
(0.0131144 -1.0403e-11 -3.0864e-16)
(0.0131144 -9.75843e-11 -1.62272e-16)
(0.0131144 -1.86911e-10 -1.87289e-16)
(0.0131144 -2.72384e-10 -1.81127e-16)
(0.0131144 -3.50729e-10 -2.59562e-16)
(0.0131145 -4.21068e-10 -3.5922e-16)
(0.0131145 -4.84501e-10 -1.30076e-16)
(0.0131145 -5.42937e-10 -3.26654e-16)
(0.0131145 -5.98261e-10 -2.59684e-16)
(0.0131145 -6.52068e-10 -3.37017e-16)
(0.0131145 -7.05374e-10 -4.91984e-16)
(0.0131146 -7.58911e-10 -2.07807e-16)
(0.0131146 -8.12766e-10 -2.84649e-16)
(0.0131146 -8.67194e-10 -2.44548e-16)
(0.0131146 -9.21466e-10 -3.83654e-16)
(0.0131147 -9.75834e-10 -5.1773e-16)
(0.0131147 -1.02785e-09 -2.60062e-16)
(0.0131147 -1.07931e-09 -2.73426e-16)
(0.0131148 -1.12377e-09 -2.51402e-16)
(0.0131148 -1.16925e-09 -3.50436e-16)
(0.0131148 -1.19595e-09 -5.79206e-16)
(0.0131149 -1.23218e-09 -2.92839e-16)
(0.0131149 -1.2107e-09 -3.24366e-16)
(0.0131149 -1.23114e-09 -2.90399e-16)
(0.013115 -1.06377e-09 -3.73119e-16)
(0.013115 -1.06758e-09 -4.64378e-16)
(0.013115 -4.65642e-10 -3.6612e-16)
(0.013115 -5.04415e-10 -2.51796e-16)
(0.013115 1.18849e-09 -2.44902e-16)
(0.013115 1.07541e-09 -2.60188e-16)
(0.013115 3.76787e-09 -2.34043e-16)
(0.0131148 4.61246e-09 -1.97167e-16)
(0.0131148 2.6036e-10 -1.26893e-16)
(0.0131148 -5.12971e-10 -1.39429e-16)
(0.0131148 -1.15373e-09 -1.61292e-16)
(0.0131148 -1.31093e-09 -1.41305e-16)
(0.0131149 -1.83347e-09 -1.19453e-16)
(0.0131149 -1.75318e-09 -5.3047e-17)
(0.0131149 -1.53804e-09 -1.0598e-16)
(0.013115 -1.32464e-09 3.99429e-19)
(0.013115 -1.11222e-09 -3.44104e-16)
(0.013115 -9.49592e-10 -4.70777e-17)
(0.0131151 -8.38164e-10 2.23788e-17)
(0.0131151 -7.76728e-10 -5.48342e-17)
(0.0131151 -7.58772e-10 -5.80859e-18)
(0.0131151 -7.73564e-10 1.38804e-17)
(0.0131152 -8.09356e-10 3.78749e-17)
(0.0131152 -8.54582e-10 1.1921e-16)
(0.0131152 -8.99281e-10 8.1744e-18)
(0.0131152 -9.35865e-10 9.14695e-17)
(0.0131153 -9.59482e-10 -1.77501e-16)
(0.0131153 -9.67669e-10 6.98004e-17)
(0.0131153 -9.59909e-10 1.07285e-16)
(0.0131154 -9.37141e-10 4.58366e-17)
(0.0131154 -9.01008e-10 9.90077e-17)
(0.0131154 -8.53739e-10 -2.04127e-16)
(0.0131154 -7.97482e-10 8.62738e-17)
(0.0131155 -7.3444e-10 1.34454e-16)
(0.0131155 -6.66602e-10 7.68745e-17)
(0.0131155 -5.95722e-10 1.47181e-16)
(0.0131155 -5.23192e-10 -1.86137e-17)
(0.0131155 -4.50505e-10 9.04276e-17)
(0.0131155 -3.77977e-10 1.92707e-16)
(0.0131155 -3.07437e-10 7.66295e-17)
(0.0131155 -2.36923e-10 1.83863e-16)
(0.0131156 -1.70482e-10 -2.40739e-16)
(0.0131156 -9.90759e-11 -9.13419e-17)
(0.0131156 -3.71854e-11 -4.78519e-16)
(0.0131156 4.89127e-11 5.99609e-17)
(0.0131156 1.08794e-10 -1.71986e-16)
(0.0131155 2.36876e-10 -1.58262e-16)
(0.0131155 3.02138e-10 -1.81312e-16)
(0.0131155 4.05176e-10 -2.16184e-16)
(0.0131155 2.78107e-10 5.28119e-18)
(0.0131155 1.01595e-10 -2.32793e-16)
(0.0131155 3.81022e-11 -2.51631e-16)
(0.0131155 -9.3231e-11 -2.07697e-16)
(0.0131155 2.20592e-11 -3.48926e-16)
(0.0131155 9.35288e-11 7.75482e-18)
(0.0131155 1.43969e-10 -2.06399e-16)
(0.0131155 1.72367e-10 -2.92584e-16)
(0.0131155 2.39891e-10 -2.30379e-16)
(0.0131155 2.61038e-10 -1.23122e-16)
(0.0131155 4.66418e-10 4.21884e-17)
(0.0131154 5.04574e-10 -1.7392e-16)
(0.0131154 1.13844e-09 -9.9338e-17)
(0.0131154 1.14318e-09 -2.10195e-16)
(0.0131153 2.83266e-09 -2.93148e-16)
(0.0131153 2.77447e-09 2.40812e-17)
(0.0131152 5.31067e-09 -2.42953e-16)
(0.013115 6.26936e-09 -1.77214e-16)
(0.0131149 1.29106e-09 -2.2475e-16)
(0.0131149 3.15404e-10 -3.85264e-16)
(0.0131148 -2.85231e-10 -3.82035e-17)
(0.0131149 -7.08217e-10 -2.50829e-16)
(0.0131149 -6.58298e-10 -3.97521e-16)
(0.0131149 -6.22584e-10 -2.58261e-16)
(0.0131149 -4.75199e-10 -2.64583e-16)
(0.0131149 -4.50158e-10 -2.27602e-17)
(0.0131149 -1.54679e-10 -1.95798e-16)
(0.0131149 -2.81535e-10 -3.24904e-16)
(0.0131149 6.45864e-10 -1.65337e-16)
(0.0131149 5.09421e-11 -2.41654e-16)
(0.0131148 3.7557e-09 -3.60319e-17)
(0.0131148 6.95173e-10 -1.73038e-16)
(0.0131147 2.09021e-08 -2.0123e-16)
(0.0220629 5.07285e-08 6.78406e-17)
(0.0220626 -1.85137e-08 -2.59273e-17)
(0.022063 -1.92769e-08 -3.70839e-17)
(0.0220631 -1.08182e-08 -3.66492e-16)
(0.0220633 -7.70758e-09 -6.43792e-16)
(0.0220633 -4.2567e-09 -3.10694e-16)
(0.0220634 -2.31932e-09 -5.84742e-16)
(0.0220634 -1.10915e-09 -2.93341e-16)
(0.0220634 -3.48817e-10 -1.92352e-16)
(0.0220634 6.56216e-11 -5.87005e-16)
(0.0220634 2.60588e-10 -2.3342e-16)
(0.0220634 2.96372e-10 -2.58589e-16)
(0.0220634 2.15684e-10 -2.31182e-16)
(0.0220634 5.17234e-11 -3.60548e-16)
(0.0220634 -1.66657e-10 -5.46947e-16)
(0.0220634 -4.13121e-10 -2.74942e-16)
(0.0220634 -6.65087e-10 -3.26805e-16)
(0.0220635 -9.05795e-10 -3.08121e-16)
(0.0220635 -1.12622e-09 -4.4634e-16)
(0.0220635 -1.3243e-09 -6.23229e-16)
(0.0220635 -1.50317e-09 -1.83607e-16)
(0.0220636 -1.66815e-09 -5.8342e-16)
(0.0220636 -1.82463e-09 -4.3562e-16)
(0.0220636 -1.977e-09 -5.92735e-16)
(0.0220636 -2.12806e-09 -8.55705e-16)
(0.0220637 -2.27945e-09 -3.1847e-16)
(0.0220637 -2.43164e-09 -5.00289e-16)
(0.0220638 -2.58469e-09 -4.05274e-16)
(0.0220638 -2.73735e-09 -6.52071e-16)
(0.0220638 -2.88883e-09 -8.89172e-16)
(0.0220639 -3.03512e-09 -4.3479e-16)
(0.0220639 -3.17663e-09 -4.59504e-16)
(0.022064 -3.30403e-09 -4.14078e-16)
(0.022064 -3.42511e-09 -5.76427e-16)
(0.0220641 -3.51147e-09 -9.61081e-16)
(0.0220642 -3.59581e-09 -4.78572e-16)
(0.0220642 -3.57515e-09 -5.76619e-16)
(0.0220643 -3.58233e-09 -4.83816e-16)
(0.0220643 -3.23601e-09 -6.55445e-16)
(0.0220644 -3.09975e-09 -7.94424e-16)
(0.0220644 -1.75807e-09 -6.05223e-16)
(0.0220645 -1.4798e-09 -5.60412e-16)
(0.0220645 2.46722e-09 -4.16768e-16)
(0.0220644 2.85093e-09 -4.37255e-16)
(0.0220644 9.50937e-09 -3.90573e-16)
(0.0220642 1.19092e-08 -3.28899e-16)
(0.0220641 1.99139e-09 -3.42022e-16)
(0.0220641 -1.02866e-09 -2.37722e-16)
(0.0220641 -2.87354e-09 -2.72901e-16)
(0.0220641 -3.53747e-09 -2.35843e-16)
(0.0220642 -4.87254e-09 -1.97265e-16)
(0.0220643 -4.85515e-09 -2.43235e-16)
(0.0220643 -4.362e-09 -1.84077e-16)
(0.0220644 -3.81386e-09 -1.6498e-16)
(0.0220644 -3.26385e-09 1.77491e-16)
(0.0220645 -2.83245e-09 -5.78301e-17)
(0.0220645 -2.53852e-09 -1.49714e-16)
(0.0220646 -2.3802e-09 -9.72931e-17)
(0.0220646 -2.33987e-09 -1.57974e-16)
(0.0220647 -2.38798e-09 1.80772e-16)
(0.0220647 -2.49138e-09 9.48124e-17)
(0.0220647 -2.61754e-09 -1.55458e-17)
(0.0220648 -2.73879e-09 4.43319e-18)
(0.0220648 -2.83431e-09 -1.51893e-17)
(0.0220649 -2.89094e-09 4.29161e-16)
(0.0220649 -2.90214e-09 1.39918e-16)
(0.022065 -2.86702e-09 3.62011e-17)
(0.022065 -2.78843e-09 7.3359e-17)
(0.0220651 -2.6715e-09 2.79679e-17)
(0.0220651 -2.52244e-09 4.22932e-16)
(0.0220651 -2.3478e-09 1.60828e-16)
(0.0220652 -2.15383e-09 6.64563e-17)
(0.0220652 -1.94618e-09 1.19317e-16)
(0.0220652 -1.73009e-09 8.06669e-17)
(0.0220653 -1.50955e-09 2.03763e-16)
(0.0220653 -1.28849e-09 1.93331e-16)
(0.0220653 -1.06881e-09 1.10422e-16)
(0.0220653 -8.53913e-10 1.20042e-16)
(0.0220653 -6.41566e-10 1.19235e-16)
(0.0220653 -4.37749e-10 4.00578e-16)
(0.0220653 -2.27507e-10 -7.18496e-18)
(0.0220653 -3.3682e-11 4.41954e-16)
(0.0220653 2.0642e-10 1.28113e-16)
(0.0220653 4.0185e-10 -1.26343e-16)
(0.0220653 7.40332e-10 2.56306e-16)
(0.0220653 9.58848e-10 -1.52398e-16)
(0.0220653 1.23395e-09 -2.82475e-17)
(0.0220653 9.61487e-10 2.94602e-17)
(0.0220652 5.25695e-10 -1.893e-16)
(0.0220652 3.13794e-10 1.19065e-16)
(0.0220652 -6.3603e-12 -1.53521e-16)
(0.0220652 2.31049e-10 1.96381e-16)
(0.0220652 4.35359e-10 3.05497e-17)
(0.0220652 5.78319e-10 -2.16041e-16)
(0.0220652 6.83889e-10 2.28462e-16)
(0.0220652 8.49776e-10 -1.83655e-16)
(0.0220652 9.71792e-10 9.39593e-17)
(0.0220651 1.44034e-09 7.96253e-17)
(0.0220651 1.70011e-09 -1.72972e-16)
(0.0220651 3.14821e-09 2.36061e-16)
(0.022065 3.53628e-09 -1.55769e-16)
(0.0220649 7.5064e-09 7.62338e-17)
(0.0220648 7.98728e-09 6.36352e-17)
(0.0220647 1.43119e-08 -2.29662e-16)
(0.0220644 1.68767e-08 3.61407e-17)
(0.0220642 5.45732e-09 -2.05022e-16)
(0.0220642 1.78929e-09 -3.54648e-17)
(0.0220642 -1.20858e-10 -3.43426e-17)
(0.0220642 -1.38295e-09 -2.65607e-16)
(0.0220642 -1.49123e-09 -8.42781e-17)
(0.0220642 -1.43888e-09 -2.36081e-16)
(0.0220642 -1.17812e-09 -2.97119e-16)
(0.0220642 -1.03051e-09 -1.73044e-17)
(0.0220642 -4.99371e-10 -1.81293e-16)
(0.0220642 -4.74411e-10 8.6773e-17)
(0.0220642 1.26078e-09 -1.53682e-16)
(0.0220643 8.54433e-10 -2.82261e-16)
(0.0220641 8.52459e-09 -3.98648e-17)
(0.0220641 3.92693e-09 -1.76811e-16)
(0.0220639 5.02666e-08 3.016e-17)
(0.0311461 9.06255e-08 9.79771e-17)
(0.0311457 -2.10416e-08 -4.65867e-17)
(0.031146 -3.16109e-08 -5.83427e-17)
(0.0311461 -1.97185e-08 -5.04368e-16)
(0.0311463 -1.39153e-08 -5.32336e-16)
(0.0311464 -8.02169e-09 -3.41044e-16)
(0.0311464 -4.46618e-09 -4.68029e-16)
(0.0311465 -2.23875e-09 -3.10181e-16)
(0.0311465 -8.39202e-10 -2.97983e-16)
(0.0311465 -6.62911e-11 -4.56246e-16)
(0.0311465 2.92962e-10 -2.29143e-16)
(0.0311465 3.5165e-10 -3.92663e-16)
(0.0311465 1.88733e-10 -3.25575e-16)
(0.0311465 -1.33374e-10 -5.39687e-16)
(0.0311465 -5.59442e-10 -6.89776e-16)
(0.0311465 -1.03855e-09 -2.28834e-16)
(0.0311465 -1.52719e-09 -4.96924e-16)
(0.0311466 -1.99333e-09 -4.40321e-16)
(0.0311466 -2.41982e-09 -6.65152e-16)
(0.0311466 -2.80313e-09 -9.69378e-16)
(0.0311466 -3.14944e-09 -3.37851e-16)
(0.0311467 -3.46918e-09 -9.26625e-16)
(0.0311467 -3.77287e-09 -5.92135e-16)
(0.0311468 -4.06887e-09 -7.55755e-16)
(0.0311468 -4.3624e-09 -1.28007e-15)
(0.0311469 -4.65625e-09 -4.60966e-16)
(0.0311469 -4.95124e-09 -6.37068e-16)
(0.031147 -5.24701e-09 -5.56318e-16)
(0.031147 -5.54153e-09 -8.6143e-16)
(0.0311471 -5.83245e-09 -1.3521e-15)
(0.0311472 -6.11414e-09 -5.80783e-16)
(0.0311472 -6.3843e-09 -6.63508e-16)
(0.0311473 -6.63162e-09 -5.64959e-16)
(0.0311474 -6.85977e-09 -9.6989e-16)
(0.0311474 -7.03581e-09 -1.27687e-15)
(0.0311475 -7.18548e-09 -6.48454e-16)
(0.0311476 -7.18144e-09 -7.66319e-16)
(0.0311477 -7.15873e-09 -6.68644e-16)
(0.0311477 -6.60912e-09 -8.78241e-16)
(0.0311478 -6.23004e-09 -1.11388e-15)
(0.0311479 -3.99705e-09 -8.14548e-16)
(0.0311479 -3.11306e-09 -8.76917e-16)
(0.0311479 3.61126e-09 -5.70426e-16)
(0.0311479 5.06668e-09 -6.20584e-16)
(0.0311479 1.68202e-08 -5.38551e-16)
(0.0311476 2.15054e-08 -4.57677e-16)
(0.0311475 5.25267e-09 -5.69934e-16)
(0.0311475 -1.22004e-09 -3.16995e-16)
(0.0311475 -4.99795e-09 -3.96335e-16)
(0.0311475 -6.54977e-09 -3.25315e-16)
(0.0311476 -9.01578e-09 -2.72849e-16)
(0.0311477 -9.2316e-09 -4.45098e-16)
(0.0311478 -8.46706e-09 -2.49895e-16)
(0.0311479 -7.50326e-09 -3.34359e-16)
(0.0311479 -6.52004e-09 -1.24894e-16)
(0.031148 -5.73677e-09 -9.99845e-17)
(0.0311481 -5.20647e-09 -3.20553e-16)
(0.0311481 -4.92931e-09 -1.24013e-16)
(0.0311482 -4.87209e-09 -3.11137e-16)
(0.0311482 -4.97817e-09 1.9818e-16)
(0.0311483 -5.18342e-09 8.31131e-17)
(0.0311484 -5.42542e-09 -1.40242e-16)
(0.0311484 -5.65147e-09 1.41018e-17)
(0.0311485 -5.82225e-09 -1.07517e-16)
(0.0311486 -5.91341e-09 2.66725e-16)
(0.0311486 -5.91348e-09 1.70564e-16)
(0.0311487 -5.82146e-09 -4.63964e-17)
(0.0311487 -5.64367e-09 1.1575e-16)
(0.0311488 -5.39057e-09 -5.1354e-17)
(0.0311489 -5.07468e-09 2.03471e-16)
(0.0311489 -4.70885e-09 2.02847e-16)
(0.031149 -4.30547e-09 -2.48914e-17)
(0.031149 -3.87585e-09 1.69214e-16)
(0.031149 -3.42999e-09 2.09659e-17)
(0.0311491 -2.97606e-09 3.23954e-16)
(0.0311491 -2.52129e-09 2.54471e-16)
(0.0311491 -2.07028e-09 3.54515e-17)
(0.0311492 -1.6282e-09 1.76639e-16)
(0.0311492 -1.1936e-09 7.2319e-17)
(0.0311492 -7.73309e-10 2.45264e-16)
(0.0311492 -3.48057e-10 5.09515e-17)
(0.0311492 5.39697e-11 1.4251e-16)
(0.0311492 5.23951e-10 1.76442e-16)
(0.0311492 9.34385e-10 -1.14503e-16)
(0.0311491 1.57086e-09 3.44809e-17)
(0.0311491 2.03266e-09 -1.55694e-16)
(0.0311491 2.55676e-09 -7.23375e-17)
(0.0311491 2.14345e-09 2.79165e-17)
(0.031149 1.3912e-09 -1.96575e-16)
(0.031149 9.5824e-10 6.10729e-17)
(0.031149 3.91708e-10 -1.67284e-16)
(0.031149 7.507e-10 -2.28963e-19)
(0.031149 1.13315e-09 2.78857e-17)
(0.031149 1.41674e-09 -2.50925e-16)
(0.0311489 1.64912e-09 1.23653e-17)
(0.0311489 1.95821e-09 -1.84056e-16)
(0.0311489 2.25316e-09 -2.14585e-17)
(0.0311489 3.06258e-09 7.72681e-17)
(0.0311488 3.6944e-09 -1.95754e-16)
(0.0311488 6.15261e-09 2.59665e-19)
(0.0311487 7.24165e-09 -1.7338e-16)
(0.0311486 1.40384e-08 6.07402e-17)
(0.0311484 1.56271e-08 6.62126e-17)
(0.0311483 2.68386e-08 -2.5526e-16)
(0.0311479 3.16754e-08 -5.80854e-17)
(0.0311477 1.28233e-08 -2.35499e-16)
(0.0311476 5.0199e-09 -9.81304e-17)
(0.0311475 8.94661e-10 -5.04596e-17)
(0.0311475 -1.69227e-09 -2.9876e-16)
(0.0311475 -2.23873e-09 -1.32587e-16)
(0.0311475 -2.2723e-09 -2.73964e-16)
(0.0311476 -1.95557e-09 -3.19689e-16)
(0.0311476 -1.66398e-09 2.8982e-17)
(0.0311476 -9.24166e-10 -1.85366e-16)
(0.0311476 -6.10763e-10 9.72021e-18)
(0.0311476 1.94635e-09 -1.85612e-16)
(0.0311476 2.19683e-09 -3.11517e-16)
(0.0311475 1.42875e-08 -1.80939e-18)
(0.0311474 9.42225e-09 -1.99459e-16)
(0.0311471 8.58475e-08 -2.45434e-17)
(0.040199 1.3513e-07 1.28736e-16)
(0.0401984 -1.65876e-08 -1.00824e-16)
(0.0401986 -4.09228e-08 -8.963e-17)
(0.0401987 -2.88308e-08 -3.51786e-16)
(0.0401989 -2.06765e-08 -3.91251e-16)
(0.040199 -1.23734e-08 -4.65257e-16)
(0.040199 -7.08172e-09 -3.69407e-16)
(0.0401991 -3.71384e-09 -2.76411e-16)
(0.0401991 -1.59268e-09 -4.29999e-16)
(0.0401991 -4.09038e-10 -3.73109e-16)
(0.0401991 1.3456e-10 -1.82441e-16)
(0.0401991 2.09099e-10 -5.76373e-16)
(0.0401991 -6.4768e-11 -4.06904e-16)
(0.0401991 -5.9037e-10 -7.81277e-16)
(0.0401991 -1.2805e-09 -8.64407e-16)
(0.0401992 -2.054e-09 -4.26928e-16)
(0.0401992 -2.84127e-09 -7.2806e-16)
(0.0401992 -3.59153e-09 -5.68593e-16)
(0.0401993 -4.27766e-09 -9.5571e-16)
(0.0401993 -4.89451e-09 -1.0007e-15)
(0.0401993 -5.45221e-09 -3.65197e-16)
(0.0401994 -5.96768e-09 -7.55507e-16)
(0.0401994 -6.45792e-09 -6.58631e-16)
(0.0401995 -6.93607e-09 -6.54081e-16)
(0.0401996 -7.41036e-09 -1.03615e-15)
(0.0401996 -7.88486e-09 -4.22236e-16)
(0.0401997 -8.36042e-09 -5.31966e-16)
(0.0401998 -8.83609e-09 -6.48888e-16)
(0.0401998 -9.30868e-09 -7.85728e-16)
(0.0401999 -9.77421e-09 -1.14095e-15)
(0.0402 -1.02253e-08 -5.94533e-16)
(0.0402001 -1.06565e-08 -5.62399e-16)
(0.0402002 -1.10542e-08 -6.87433e-16)
(0.0402002 -1.14172e-08 -7.20452e-16)
(0.0402003 -1.17069e-08 -1.22212e-15)
(0.0402004 -1.19412e-08 -6.64748e-16)
(0.0402005 -1.19658e-08 -7.13656e-16)
(0.0402006 -1.1913e-08 -8.03405e-16)
(0.0402007 -1.11418e-08 -8.29283e-16)
(0.0402008 -1.04646e-08 -1.07737e-15)
(0.0402009 -7.23985e-09 -9.49004e-16)
(0.040201 -5.54622e-09 -8.55717e-16)
(0.040201 4.26526e-09 -6.52276e-16)
(0.040201 7.29177e-09 -8.12081e-16)
(0.0402009 2.48439e-08 -6.57551e-16)
(0.0402007 3.24447e-08 -5.81604e-16)
(0.0402005 9.90031e-09 -4.7154e-16)
(0.0402005 -7.43194e-10 -3.28855e-16)
(0.0402005 -7.1707e-09 -5.55727e-16)
(0.0402005 -1.00085e-08 -3.96187e-16)
(0.0402006 -1.39026e-08 -3.49349e-16)
(0.0402007 -1.4556e-08 -3.08394e-16)
(0.0402008 -1.36218e-08 -2.61958e-16)
(0.0402009 -1.22437e-08 -1.71065e-16)
(0.040201 -1.07993e-08 -7.72467e-17)
(0.0402011 -9.63401e-09 -1.80544e-16)
(0.0402012 -8.85156e-09 -1.68902e-16)
(0.0402012 -8.459e-09 -9.60387e-17)
(0.0402013 -8.40422e-09 -1.33752e-16)
(0.0402014 -8.59703e-09 1.07548e-16)
(0.0402014 -8.93482e-09 2.48795e-17)
(0.0402015 -9.31854e-09 7.58409e-17)
(0.0402016 -9.66536e-09 7.73315e-17)
(0.0402017 -9.9144e-09 1.32241e-16)
(0.0402018 -1.00286e-08 1.40409e-16)
(0.0402018 -9.99141e-09 1.66566e-16)
(0.0402019 -9.80295e-09 1.95652e-16)
(0.040202 -9.47444e-09 2.07989e-16)
(0.0402021 -9.02361e-09 1.91008e-16)
(0.0402022 -8.47116e-09 3.00217e-16)
(0.0402022 -7.83828e-09 2.04577e-16)
(0.0402023 -7.14523e-09 1.93025e-16)
(0.0402023 -6.41036e-09 2.62205e-16)
(0.0402024 -5.64983e-09 2.81046e-16)
(0.0402024 -4.8771e-09 3.92592e-16)
(0.0402025 -4.10359e-09 2.82971e-16)
(0.0402025 -3.33723e-09 2.97596e-16)
(0.0402025 -2.58552e-09 2.84857e-16)
(0.0402025 -1.84827e-09 3.8794e-16)
(0.0402025 -1.13325e-09 3.78425e-16)
(0.0402025 -4.16929e-10 4.13052e-16)
(0.0402025 2.67807e-10 2.50983e-16)
(0.0402025 1.04124e-09 2.03482e-16)
(0.0402025 1.74186e-09 1.9547e-16)
(0.0402025 2.75464e-09 -9.69011e-17)
(0.0402025 3.54238e-09 1.67354e-16)
(0.0402024 4.38859e-09 -1.15772e-17)
(0.0402024 3.87335e-09 1.17774e-17)
(0.0402024 2.79452e-09 9.71058e-17)
(0.0402023 2.09586e-09 4.30103e-18)
(0.0402023 1.24236e-09 1.44753e-16)
(0.0402023 1.70697e-09 -2.72247e-16)
(0.0402023 2.28812e-09 1.43828e-17)
(0.0402022 2.75688e-09 1.49492e-17)
(0.0402022 3.16276e-09 -4.70035e-17)
(0.0402022 3.66705e-09 1.77033e-16)
(0.0402021 4.19633e-09 -1.79037e-16)
(0.0402021 5.42233e-09 4.81301e-17)
(0.040202 6.53333e-09 8.43409e-17)
(0.040202 1.01446e-08 -1.07212e-16)
(0.0402019 1.21682e-08 1.17989e-16)
(0.0402018 2.21161e-08 3.17038e-17)
(0.0402016 2.53051e-08 5.3395e-17)
(0.0402014 4.208e-08 1.40145e-17)
(0.040201 4.97489e-08 -1.25382e-16)
(0.0402007 2.33717e-08 3.22637e-17)
(0.0402006 1.05167e-08 -1.06953e-16)
(0.0402005 3.26416e-09 -6.89745e-17)
(0.0402004 -1.16821e-09 -2.25183e-17)
(0.0402004 -2.50818e-09 -1.80676e-16)
(0.0402004 -2.82794e-09 -1.51812e-17)
(0.0402004 -2.56606e-09 3.52447e-17)
(0.0402005 -2.19871e-09 1.46919e-16)
(0.0402005 -1.2846e-09 1.2085e-16)
(0.0402005 -6.85488e-10 -2.66044e-17)
(0.0402004 2.73984e-09 8.68047e-17)
(0.0402005 3.83172e-09 3.90251e-17)
(0.0402003 2.0624e-08 1.10222e-16)
(0.0402003 1.66314e-08 8.43366e-17)
(0.0402 1.23407e-07 -2.78032e-17)
(0.04889 1.807e-07 1.85089e-16)
(0.0488894 -5.43508e-09 -1.35395e-16)
(0.0488894 -4.49339e-08 -1.07578e-16)
(0.0488895 -3.62121e-08 -1.98435e-16)
(0.0488896 -2.70051e-08 -2.44131e-16)
(0.0488897 -1.68176e-08 -2.39167e-16)
(0.0488898 -9.94846e-09 -2.67768e-16)
(0.0488898 -5.46326e-09 -2.15234e-16)
(0.0488898 -2.61385e-09 -2.69743e-16)
(0.0488898 -1.00537e-09 -2.70989e-16)
(0.0488898 -2.72089e-10 -1.20019e-16)
(0.0488899 -1.89287e-10 -5.23951e-16)
(0.0488899 -5.9429e-10 -4.34601e-16)
(0.0488899 -1.3542e-09 -7.72307e-16)
(0.0488899 -2.34707e-09 -8.87661e-16)
(0.0488899 -3.45788e-09 -3.7919e-16)
(0.04889 -4.58775e-09 -7.06431e-16)
(0.04889 -5.6646e-09 -6.51644e-16)
(0.04889 -6.65012e-09 -1.02512e-15)
(0.0488901 -7.53737e-09 -1.04842e-15)
(0.0488901 -8.34088e-09 -7.3774e-16)
(0.0488902 -9.08488e-09 -7.48477e-16)
(0.0488902 -9.79359e-09 -6.79971e-16)
(0.0488903 -1.04856e-08 -7.97095e-16)
(0.0488904 -1.11724e-08 -9.11929e-16)
(0.0488904 -1.18591e-08 -6.55793e-16)
(0.0488905 -1.25465e-08 -7.27055e-16)
(0.0488906 -1.32327e-08 -7.65174e-16)
(0.0488907 -1.3913e-08 -1.00043e-15)
(0.0488908 -1.45819e-08 -1.06073e-15)
(0.0488909 -1.523e-08 -8.16169e-16)
(0.048891 -1.58493e-08 -8.46324e-16)
(0.0488911 -1.64226e-08 -8.3542e-16)
(0.0488912 -1.69451e-08 -9.63839e-16)
(0.0488913 -1.73698e-08 -1.15334e-15)
(0.0488914 -1.77093e-08 -8.95447e-16)
(0.0488915 -1.77755e-08 -1.00484e-15)
(0.0488916 -1.77042e-08 -9.63782e-16)
(0.0488917 -1.67074e-08 -1.042e-15)
(0.0488918 -1.5714e-08 -1.08229e-15)
(0.0488919 -1.1453e-08 -1.02525e-15)
(0.048892 -8.82988e-09 -8.27663e-16)
(0.048892 4.20384e-09 -6.94336e-16)
(0.048892 9.16598e-09 -7.61332e-16)
(0.0488919 3.28985e-08 -6.97399e-16)
(0.0488917 4.3908e-08 -6.84676e-16)
(0.0488916 1.55864e-08 -1.52341e-16)
(0.0488915 5.57034e-10 -3.2387e-16)
(0.0488915 -9.04085e-09 -4.49383e-16)
(0.0488916 -1.35386e-08 -4.10342e-16)
(0.0488916 -1.91341e-08 -4.18804e-16)
(0.0488917 -2.04501e-08 -2.51529e-16)
(0.0488918 -1.95174e-08 -2.44002e-16)
(0.0488919 -1.78102e-08 -7.41964e-17)
(0.048892 -1.59489e-08 -7.13379e-17)
(0.0488921 -1.44282e-08 -2.26759e-16)
(0.0488922 -1.3417e-08 -7.70751e-17)
(0.0488923 -1.2935e-08 -4.83448e-17)
(0.0488924 -1.29101e-08 1.49478e-16)
(0.0488925 -1.32153e-08 1.19661e-16)
(0.0488926 -1.37056e-08 -5.60224e-17)
(0.0488927 -1.42421e-08 1.49533e-16)
(0.0488928 -1.47101e-08 1.58172e-16)
(0.0488929 -1.50262e-08 4.25315e-16)
(0.048893 -1.51406e-08 3.78886e-16)
(0.0488931 -1.50329e-08 1.34271e-16)
(0.0488931 -1.4705e-08 3.04051e-16)
(0.0488932 -1.41746e-08 3.08823e-16)
(0.0488933 -1.34679e-08 5.12492e-16)
(0.0488934 -1.26153e-08 3.81142e-16)
(0.0488935 -1.16474e-08 2.1015e-16)
(0.0488935 -1.05936e-08 4.81315e-16)
(0.0488936 -9.48023e-09 3.62449e-16)
(0.0488937 -8.33058e-09 4.79562e-16)
(0.0488937 -7.16409e-09 5.11741e-16)
(0.0488937 -5.99698e-09 2.91787e-16)
(0.0488938 -4.84104e-09 5.8107e-16)
(0.0488938 -3.70663e-09 4.06378e-16)
(0.0488938 -2.59494e-09 5.60037e-16)
(0.0488938 -1.51523e-09 5.06812e-16)
(0.0488938 -4.39433e-10 7.69173e-16)
(0.0488938 5.94802e-10 2.91027e-16)
(0.0488938 1.73692e-09 2.70264e-16)
(0.0488938 2.79354e-09 4.5872e-16)
(0.0488938 4.24807e-09 -4.41285e-17)
(0.0488938 5.43227e-09 6.24735e-16)
(0.0488937 6.66627e-09 2.60155e-17)
(0.0488937 6.10714e-09 5.90735e-17)
(0.0488936 4.72818e-09 3.59823e-16)
(0.0488936 3.75007e-09 1.77051e-17)
(0.0488936 2.5882e-09 5.35694e-16)
(0.0488935 3.13698e-09 -8.88877e-17)
(0.0488935 3.91956e-09 4.29661e-17)
(0.0488935 4.60698e-09 2.42538e-16)
(0.0488934 5.228e-09 -2.18015e-16)
(0.0488934 5.97871e-09 6.07365e-16)
(0.0488933 6.79423e-09 2.78436e-17)
(0.0488933 8.49923e-09 7.27409e-17)
(0.0488932 1.01592e-08 3.23837e-16)
(0.0488931 1.50072e-08 -9.23789e-17)
(0.0488931 1.81122e-08 3.77287e-16)
(0.0488929 3.13551e-08 7.47439e-17)
(0.0488927 3.64993e-08 7.32395e-17)
(0.0488925 5.91979e-08 2.49701e-16)
(0.0488921 7.01291e-08 -1.02277e-16)
(0.0488918 3.66715e-08 4.45538e-16)
(0.0488916 1.84056e-08 -8.0583e-17)
(0.0488915 7.32394e-09 -3.28324e-17)
(0.0488914 5.44483e-10 2.41498e-16)
(0.0488914 -1.97717e-09 -1.39346e-16)
(0.0488914 -2.85143e-09 2.51382e-16)
(0.0488914 -2.81185e-09 3.87227e-16)
(0.0488914 -2.50129e-09 2.93359e-16)
(0.0488914 -1.48059e-09 4.08275e-16)
(0.0488914 -6.78508e-10 -1.43717e-19)
(0.0488914 3.62847e-09 3.39556e-16)
(0.0488914 5.57619e-09 3.89297e-16)
(0.0488913 2.71471e-08 2.53782e-16)
(0.0488912 2.48526e-08 3.31062e-16)
(0.0488909 1.60149e-07 2.05377e-17)
(0.056847 2.24518e-07 3.09098e-16)
(0.0568463 1.09303e-08 1.65264e-17)
(0.0568463 -4.30848e-08 -4.24385e-17)
(0.0568463 -4.04448e-08 -8.52296e-17)
(0.0568463 -3.19438e-08 -1.21745e-16)
(0.0568464 -2.08097e-08 -1.45564e-16)
(0.0568465 -1.27843e-08 -1.61121e-16)
(0.0568465 -7.35243e-09 -1.36622e-16)
(0.0568465 -3.84233e-09 -1.57046e-16)
(0.0568465 -1.82967e-09 -1.7415e-16)
(0.0568465 -9.10679e-10 -4.68899e-17)
(0.0568466 -8.20715e-10 -6.40287e-16)
(0.0568466 -1.36039e-09 -4.29821e-16)
(0.0568466 -2.36249e-09 -1.05603e-15)
(0.0568466 -3.67042e-09 -8.87131e-16)
(0.0568466 -5.13486e-09 -1.06117e-16)
(0.0568467 -6.62637e-09 -7.6209e-16)
(0.0568467 -8.05059e-09 -7.07235e-16)
(0.0568468 -9.35735e-09 -1.09327e-15)
(0.0568468 -1.05374e-08 -1.07134e-15)
(0.0568469 -1.16095e-08 -9.66297e-16)
(0.0568469 -1.26052e-08 -7.83332e-16)
(0.056847 -1.35561e-08 -6.99987e-16)
(0.056847 -1.4486e-08 -1.21479e-15)
(0.0568471 -1.54096e-08 -8.27682e-16)
(0.0568472 -1.63331e-08 -7.9248e-16)
(0.0568473 -1.72568e-08 -1.0577e-15)
(0.0568474 -1.81775e-08 -8.72371e-16)
(0.0568475 -1.90893e-08 -1.25927e-15)
(0.0568475 -1.99846e-08 -9.71427e-16)
(0.0568476 -2.08522e-08 -9.49149e-16)
(0.0568477 -2.16817e-08 -1.21776e-15)
(0.0568478 -2.24524e-08 -9.67991e-16)
(0.056848 -2.31563e-08 -1.18286e-15)
(0.0568481 -2.37366e-08 -1.07826e-15)
(0.0568482 -2.42028e-08 -1.02474e-15)
(0.0568483 -2.43298e-08 -1.35053e-15)
(0.0568484 -2.42605e-08 -1.11467e-15)
(0.0568485 -2.30549e-08 -1.39089e-15)
(0.0568486 -2.17569e-08 -1.0967e-15)
(0.0568487 -1.64773e-08 -1.06932e-15)
(0.0568488 -1.28872e-08 -7.45646e-16)
(0.0568489 3.34575e-09 -7.13428e-16)
(0.0568489 1.04377e-08 -7.22099e-16)
(0.0568488 4.04535e-08 -7.29045e-16)
(0.0568486 5.52196e-08 -7.48494e-16)
(0.0568485 2.18816e-08 -3.50896e-16)
(0.0568484 2.66022e-09 -3.40343e-16)
(0.0568484 -1.03225e-08 -4.07807e-16)
(0.0568484 -1.67541e-08 -4.16904e-16)
(0.0568485 -2.42732e-08 -4.68155e-16)
(0.0568486 -2.64785e-08 -1.32791e-16)
(0.0568487 -2.57608e-08 -2.49922e-16)
(0.0568488 -2.38827e-08 5.28339e-17)
(0.0568489 -2.1719e-08 3.27183e-17)
(0.056849 -1.99251e-08 -3.11346e-16)
(0.0568491 -1.87446e-08 6.08722e-17)
(0.0568492 -1.82154e-08 -1.50438e-17)
(0.0568493 -1.82476e-08 1.71063e-16)
(0.0568494 -1.86785e-08 1.56039e-16)
(0.0568495 -1.93223e-08 -1.60464e-16)
(0.0568496 -2.00025e-08 3.02019e-16)
(0.0568497 -2.05739e-08 1.83656e-16)
(0.0568498 -2.09327e-08 4.61145e-16)
(0.0568499 -2.10181e-08 4.33314e-16)
(0.05685 -2.08064e-08 5.85759e-17)
(0.0568501 -2.03026e-08 4.68262e-16)