/*--------------------------------*- C++ -*----------------------------------*\
  =========                 |
  \\      /  F ield         | OpenFOAM: The Open Source CFD Toolbox
   \\    /   O peration     | Website:  https://openfoam.org
    \\  /    A nd           | Version:  7
     \\/     M anipulation  |
\*---------------------------------------------------------------------------*/
FoamFile
{
    version     2.0;
    format      ascii;
    class       volScalarField;
    location    "2500";
    object      k;
}
// * * * * * * * * * * * * * * * * * * * * * * * * * * * * * * * * * * * * * //

dimensions      [0 2 -2 0 0 0 0];

internalField   nonuniform List<scalar> 
24000
(
6.60307e-09
6.60289e-09
6.6027e-09
6.60252e-09
6.6024e-09
6.60233e-09
6.6023e-09
6.60228e-09
6.60226e-09
6.60225e-09
6.60225e-09
6.60227e-09
6.6023e-09
6.60235e-09
6.60241e-09
6.60247e-09
6.60252e-09
6.60258e-09
6.60263e-09
6.60268e-09
6.60274e-09
6.60281e-09
6.60287e-09
6.60294e-09
6.603e-09
6.60306e-09
6.60311e-09
6.60317e-09
6.60323e-09
6.60329e-09
6.60335e-09
6.6034e-09
6.60346e-09
6.60351e-09
6.60356e-09
6.60361e-09
6.60366e-09
6.60371e-09
6.60375e-09
6.6038e-09
6.60383e-09
6.60387e-09
6.6039e-09
6.60392e-09
6.60393e-09
6.60393e-09
6.60395e-09
6.60397e-09
6.604e-09
6.60402e-09
6.60405e-09
6.60408e-09
6.6041e-09
6.60412e-09
6.60414e-09
6.60416e-09
6.60417e-09
6.60418e-09
6.60419e-09
6.6042e-09
6.6042e-09
6.6042e-09
6.60419e-09
6.60418e-09
6.60416e-09
6.60415e-09
6.60413e-09
6.6041e-09
6.60408e-09
6.60405e-09
6.60403e-09
6.604e-09
6.60397e-09
6.60395e-09
6.60392e-09
6.60389e-09
6.60387e-09
6.60384e-09
6.60382e-09
6.6038e-09
6.60377e-09
6.60375e-09
6.60373e-09
6.6037e-09
6.60368e-09
6.60366e-09
6.60364e-09
6.60362e-09
6.60359e-09
6.60357e-09
6.60355e-09
6.60353e-09
6.60351e-09
6.60348e-09
6.60346e-09
6.60343e-09
6.60341e-09
6.60339e-09
6.60336e-09
6.60334e-09
6.60331e-09
6.60329e-09
6.60326e-09
6.60323e-09
6.60319e-09
6.60317e-09
6.60316e-09
6.60317e-09
6.60317e-09
6.60318e-09
6.60319e-09
6.6032e-09
6.60321e-09
6.60322e-09
6.60323e-09
6.60323e-09
6.60324e-09
6.60323e-09
6.60321e-09
6.6032e-09
1.98994e-07
1.98989e-07
1.98983e-07
1.98978e-07
1.98974e-07
1.98972e-07
1.98971e-07
1.9897e-07
1.9897e-07
1.98969e-07
1.98969e-07
1.9897e-07
1.98971e-07
1.98972e-07
1.98974e-07
1.98976e-07
1.98978e-07
1.98979e-07
1.98981e-07
1.98982e-07
1.98984e-07
1.98986e-07
1.98988e-07
1.9899e-07
1.98992e-07
1.98994e-07
1.98995e-07
1.98997e-07
1.98999e-07
1.99001e-07
1.99002e-07
1.99004e-07
1.99006e-07
1.99007e-07
1.99009e-07
1.9901e-07
1.99012e-07
1.99013e-07
1.99015e-07
1.99016e-07
1.99017e-07
1.99018e-07
1.99019e-07
1.9902e-07
1.9902e-07
1.9902e-07
1.99021e-07
1.99021e-07
1.99022e-07
1.99023e-07
1.99024e-07
1.99024e-07
1.99025e-07
1.99026e-07
1.99026e-07
1.99027e-07
1.99027e-07
1.99028e-07
1.99028e-07
1.99028e-07
1.99028e-07
1.99028e-07
1.99028e-07
1.99027e-07
1.99027e-07
1.99026e-07
1.99026e-07
1.99025e-07
1.99024e-07
1.99024e-07
1.99023e-07
1.99022e-07
1.99021e-07
1.9902e-07
1.9902e-07
1.99019e-07
1.99018e-07
1.99017e-07
1.99017e-07
1.99016e-07
1.99015e-07
1.99015e-07
1.99014e-07
1.99013e-07
1.99012e-07
1.99012e-07
1.99011e-07
1.9901e-07
1.9901e-07
1.99009e-07
1.99009e-07
1.99008e-07
1.99007e-07
1.99006e-07
1.99006e-07
1.99005e-07
1.99004e-07
1.99004e-07
1.99003e-07
1.99002e-07
1.99001e-07
1.99001e-07
1.99e-07
1.98999e-07
1.98998e-07
1.98997e-07
1.98997e-07
1.98997e-07
1.98997e-07
1.98997e-07
1.98998e-07
1.98998e-07
1.98998e-07
1.98999e-07
1.98999e-07
1.98999e-07
1.98999e-07
1.98999e-07
1.98998e-07
1.98998e-07
1.44464e-06
1.44461e-06
1.44456e-06
1.44452e-06
1.4445e-06
1.44448e-06
1.44447e-06
1.44447e-06
1.44447e-06
1.44447e-06
1.44447e-06
1.44447e-06
1.44448e-06
1.44449e-06
1.4445e-06
1.44451e-06
1.44453e-06
1.44454e-06
1.44455e-06
1.44456e-06
1.44457e-06
1.44459e-06
1.4446e-06
1.44462e-06
1.44463e-06
1.44464e-06
1.44465e-06
1.44467e-06
1.44468e-06
1.44469e-06
1.44471e-06
1.44472e-06
1.44473e-06
1.44474e-06
1.44475e-06
1.44476e-06
1.44477e-06
1.44478e-06
1.44479e-06
1.4448e-06
1.44481e-06
1.44482e-06
1.44483e-06
1.44483e-06
1.44483e-06
1.44483e-06
1.44484e-06
1.44484e-06
1.44485e-06
1.44485e-06
1.44486e-06
1.44486e-06
1.44487e-06
1.44487e-06
1.44488e-06
1.44488e-06
1.44489e-06
1.44489e-06
1.44489e-06
1.44489e-06
1.44489e-06
1.44489e-06
1.44489e-06
1.44489e-06
1.44488e-06
1.44488e-06
1.44487e-06
1.44487e-06
1.44486e-06
1.44486e-06
1.44485e-06
1.44485e-06
1.44484e-06
1.44484e-06
1.44483e-06
1.44482e-06
1.44482e-06
1.44481e-06
1.44481e-06
1.4448e-06
1.4448e-06
1.44479e-06
1.44479e-06
1.44478e-06
1.44478e-06
1.44477e-06
1.44477e-06
1.44476e-06
1.44476e-06
1.44475e-06
1.44475e-06
1.44474e-06
1.44474e-06
1.44473e-06
1.44473e-06
1.44472e-06
1.44472e-06
1.44471e-06
1.44471e-06
1.4447e-06
1.4447e-06
1.44469e-06
1.44469e-06
1.44468e-06
1.44467e-06
1.44467e-06
1.44467e-06
1.44467e-06
1.44467e-06
1.44467e-06
1.44467e-06
1.44467e-06
1.44467e-06
1.44468e-06
1.44468e-06
1.44468e-06
1.44468e-06
1.44468e-06
1.44468e-06
1.44467e-06
5.34396e-06
5.34382e-06
5.34366e-06
5.34352e-06
5.34341e-06
5.34335e-06
5.34333e-06
5.34332e-06
5.34331e-06
5.34331e-06
5.34331e-06
5.34332e-06
5.34334e-06
5.34338e-06
5.34343e-06
5.34348e-06
5.34352e-06
5.34357e-06
5.34361e-06
5.34365e-06
5.3437e-06
5.34375e-06
5.3438e-06
5.34386e-06
5.34391e-06
5.34395e-06
5.344e-06
5.34404e-06
5.34409e-06
5.34414e-06
5.34418e-06
5.34423e-06
5.34427e-06
5.34431e-06
5.34435e-06
5.34439e-06
5.34443e-06
5.34447e-06
5.34451e-06
5.34454e-06
5.34457e-06
5.3446e-06
5.34463e-06
5.34465e-06
5.34465e-06
5.34466e-06
5.34467e-06
5.34469e-06
5.34471e-06
5.34473e-06
5.34475e-06
5.34477e-06
5.34479e-06
5.34481e-06
5.34482e-06
5.34483e-06
5.34484e-06
5.34485e-06
5.34486e-06
5.34487e-06
5.34487e-06
5.34486e-06
5.34486e-06
5.34485e-06
5.34484e-06
5.34482e-06
5.34481e-06
5.34479e-06
5.34477e-06
5.34475e-06
5.34473e-06
5.3447e-06
5.34468e-06
5.34466e-06
5.34464e-06
5.34462e-06
5.3446e-06
5.34458e-06
5.34456e-06
5.34454e-06
5.34452e-06
5.3445e-06
5.34448e-06
5.34447e-06
5.34445e-06
5.34443e-06
5.34441e-06
5.34439e-06
5.34438e-06
5.34436e-06
5.34434e-06
5.34432e-06
5.34431e-06
5.34429e-06
5.34427e-06
5.34425e-06
5.34423e-06
5.34421e-06
5.34419e-06
5.34417e-06
5.34415e-06
5.34413e-06
5.34411e-06
5.34409e-06
5.34405e-06
5.34404e-06
5.34404e-06
5.34404e-06
5.34404e-06
5.34405e-06
5.34405e-06
5.34406e-06
5.34407e-06
5.34408e-06
5.34409e-06
5.34409e-06
5.34409e-06
5.34409e-06
5.34407e-06
5.34407e-06
1.367e-05
1.36696e-05
1.36692e-05
1.36688e-05
1.36686e-05
1.36684e-05
1.36684e-05
1.36684e-05
1.36684e-05
1.36683e-05
1.36684e-05
1.36684e-05
1.36684e-05
1.36685e-05
1.36686e-05
1.36688e-05
1.36689e-05
1.3669e-05
1.36691e-05
1.36692e-05
1.36693e-05
1.36695e-05
1.36696e-05
1.36697e-05
1.36698e-05
1.367e-05
1.36701e-05
1.36702e-05
1.36703e-05
1.36704e-05
1.36705e-05
1.36707e-05
1.36708e-05
1.36709e-05
1.3671e-05
1.36711e-05
1.36712e-05
1.36713e-05
1.36713e-05
1.36714e-05
1.36715e-05
1.36716e-05
1.36716e-05
1.36717e-05
1.36717e-05
1.36717e-05
1.36718e-05
1.36718e-05
1.36718e-05
1.36719e-05
1.3672e-05
1.3672e-05
1.3672e-05
1.36721e-05
1.36721e-05
1.36722e-05
1.36722e-05
1.36722e-05
1.36722e-05
1.36722e-05
1.36722e-05
1.36722e-05
1.36722e-05
1.36722e-05
1.36722e-05
1.36721e-05
1.36721e-05
1.3672e-05
1.3672e-05
1.36719e-05
1.36719e-05
1.36718e-05
1.36718e-05
1.36717e-05
1.36717e-05
1.36716e-05
1.36716e-05
1.36715e-05
1.36715e-05
1.36714e-05
1.36714e-05
1.36713e-05
1.36713e-05
1.36712e-05
1.36712e-05
1.36711e-05
1.36711e-05
1.3671e-05
1.3671e-05
1.3671e-05
1.36709e-05
1.36709e-05
1.36708e-05
1.36708e-05
1.36707e-05
1.36707e-05
1.36706e-05
1.36706e-05
1.36705e-05
1.36705e-05
1.36704e-05
1.36704e-05
1.36703e-05
1.36703e-05
1.36702e-05
1.36702e-05
1.36702e-05
1.36702e-05
1.36702e-05
1.36702e-05
1.36702e-05
1.36702e-05
1.36702e-05
1.36703e-05
1.36703e-05
1.36703e-05
1.36703e-05
1.36703e-05
1.36703e-05
1.36703e-05
2.72118e-05
2.7211e-05
2.72102e-05
2.72096e-05
2.72091e-05
2.72088e-05
2.72087e-05
2.72087e-05
2.72087e-05
2.72087e-05
2.72088e-05
2.72088e-05
2.72089e-05
2.72091e-05
2.72093e-05
2.72096e-05
2.72098e-05
2.721e-05
2.72102e-05
2.72104e-05
2.72106e-05
2.72109e-05
2.72111e-05
2.72114e-05
2.72116e-05
2.72118e-05
2.72121e-05
2.72123e-05
2.72125e-05
2.72127e-05
2.72129e-05
2.72131e-05
2.72133e-05
2.72135e-05
2.72137e-05
2.72139e-05
2.72141e-05
2.72143e-05
2.72144e-05
2.72146e-05
2.72147e-05
2.72149e-05
2.7215e-05
2.72151e-05
2.72151e-05
2.72152e-05
2.72152e-05
2.72153e-05
2.72154e-05
2.72155e-05
2.72156e-05
2.72157e-05
2.72158e-05
2.72158e-05
2.72159e-05
2.7216e-05
2.7216e-05
2.72161e-05
2.72161e-05
2.72161e-05
2.72161e-05
2.72161e-05
2.72161e-05
2.7216e-05
2.72159e-05
2.72159e-05
2.72158e-05
2.72157e-05
2.72156e-05
2.72155e-05
2.72154e-05
2.72153e-05
2.72152e-05
2.72151e-05
2.7215e-05
2.72149e-05
2.72148e-05
2.72147e-05
2.72146e-05
2.72145e-05
2.72144e-05
2.72143e-05
2.72142e-05
2.72141e-05
2.72141e-05
2.7214e-05
2.72139e-05
2.72138e-05
2.72137e-05
2.72136e-05
2.72135e-05
2.72135e-05
2.72134e-05
2.72133e-05
2.72132e-05
2.72131e-05
2.7213e-05
2.72129e-05
2.72128e-05
2.72127e-05
2.72126e-05
2.72125e-05
2.72125e-05
2.72124e-05
2.72122e-05
2.72122e-05
2.72121e-05
2.72121e-05
2.72122e-05
2.72122e-05
2.72122e-05
2.72123e-05
2.72123e-05
2.72123e-05
2.72124e-05
2.72124e-05
2.72124e-05
2.72124e-05
2.72123e-05
2.72124e-05
4.4684e-05
4.46827e-05
4.46815e-05
4.46805e-05
4.46798e-05
4.46794e-05
4.46793e-05
4.46793e-05
4.46793e-05
4.46794e-05
4.46794e-05
4.46795e-05
4.46797e-05
4.46799e-05
4.46803e-05
4.46807e-05
4.46811e-05
4.46814e-05
4.46817e-05
4.4682e-05
4.46823e-05
4.46827e-05
4.46831e-05
4.46835e-05
4.46839e-05
4.46842e-05
4.46845e-05
4.46848e-05
4.46852e-05
4.46855e-05
4.46859e-05
4.46862e-05
4.46865e-05
4.46868e-05
4.46871e-05
4.46873e-05
4.46876e-05
4.46879e-05
4.46881e-05
4.46884e-05
4.46886e-05
4.46888e-05
4.4689e-05
4.46891e-05
4.46892e-05
4.46892e-05
4.46893e-05
4.46894e-05
4.46896e-05
4.46897e-05
4.46899e-05
4.469e-05
4.46901e-05
4.46903e-05
4.46904e-05
4.46904e-05
4.46905e-05
4.46906e-05
4.46906e-05
4.46906e-05
4.46906e-05
4.46906e-05
4.46905e-05
4.46904e-05
4.46903e-05
4.46902e-05
4.46901e-05
4.46899e-05
4.46898e-05
4.46896e-05
4.46895e-05
4.46893e-05
4.46891e-05
4.4689e-05
4.46888e-05
4.46887e-05
4.46885e-05
4.46884e-05
4.46882e-05
4.46881e-05
4.4688e-05
4.46878e-05
4.46877e-05
4.46875e-05
4.46874e-05
4.46873e-05
4.46871e-05
4.4687e-05
4.46869e-05
4.46868e-05
4.46866e-05
4.46865e-05
4.46863e-05
4.46862e-05
4.46861e-05
4.46859e-05
4.46858e-05
4.46856e-05
4.46855e-05
4.46853e-05
4.46852e-05
4.46851e-05
4.4685e-05
4.46848e-05
4.46846e-05
4.46845e-05
4.46845e-05
4.46845e-05
4.46846e-05
4.46846e-05
4.46847e-05
4.46847e-05
4.46848e-05
4.46848e-05
4.46849e-05
4.46849e-05
4.4685e-05
4.4685e-05
4.46849e-05
4.46851e-05
6.33742e-05
6.33722e-05
6.33706e-05
6.33694e-05
6.33685e-05
6.33679e-05
6.33678e-05
6.33679e-05
6.3368e-05
6.33681e-05
6.33682e-05
6.33683e-05
6.33686e-05
6.33689e-05
6.33694e-05
6.33699e-05
6.33704e-05
6.33709e-05
6.33713e-05
6.33717e-05
6.33721e-05
6.33726e-05
6.33731e-05
6.33736e-05
6.33741e-05
6.33746e-05
6.3375e-05
6.33754e-05
6.33759e-05
6.33763e-05
6.33767e-05
6.33772e-05
6.33776e-05
6.33779e-05
6.33783e-05
6.33786e-05
6.3379e-05
6.33793e-05
6.33797e-05
6.338e-05
6.33803e-05
6.33805e-05
6.33807e-05
6.33809e-05
6.33811e-05
6.33811e-05
6.33813e-05
6.33814e-05
6.33816e-05
6.33818e-05
6.33819e-05
6.33821e-05
6.33823e-05
6.33824e-05
6.33825e-05
6.33827e-05
6.33827e-05
6.33828e-05
6.33829e-05
6.33829e-05
6.33828e-05
6.33828e-05
6.33827e-05
6.33826e-05
6.33824e-05
6.33823e-05
6.33821e-05
6.33819e-05
6.33817e-05
6.33815e-05
6.33812e-05
6.3381e-05
6.33808e-05
6.33806e-05
6.33804e-05
6.33802e-05
6.338e-05
6.33798e-05
6.33796e-05
6.33794e-05
6.33792e-05
6.3379e-05
6.33789e-05
6.33787e-05
6.33785e-05
6.33783e-05
6.33782e-05
6.3378e-05
6.33778e-05
6.33776e-05
6.33774e-05
6.33773e-05
6.33771e-05
6.33769e-05
6.33767e-05
6.33765e-05
6.33763e-05
6.33761e-05
6.33759e-05
6.33758e-05
6.33756e-05
6.33754e-05
6.33753e-05
6.33751e-05
6.33749e-05
6.33748e-05
6.33748e-05
6.33748e-05
6.33748e-05
6.33749e-05
6.3375e-05
6.33751e-05
6.33751e-05
6.33752e-05
6.33753e-05
6.33753e-05
6.33754e-05
6.33754e-05
6.33753e-05
6.33757e-05
8.09356e-05
8.0933e-05
8.0931e-05
8.09295e-05
8.09285e-05
8.09279e-05
8.09277e-05
8.09279e-05
8.09281e-05
8.09283e-05
8.09284e-05
8.09286e-05
8.09289e-05
8.09293e-05
8.09299e-05
8.09305e-05
8.09312e-05
8.09317e-05
8.09323e-05
8.09327e-05
8.09333e-05
8.09338e-05
8.09344e-05
8.09351e-05
8.09357e-05
8.09362e-05
8.09367e-05
8.09372e-05
8.09377e-05
8.09382e-05
8.09387e-05
8.09392e-05
8.09397e-05
8.09402e-05
8.09406e-05
8.0941e-05
8.09414e-05
8.09418e-05
8.09421e-05
8.09425e-05
8.09428e-05
8.09432e-05
8.09434e-05
8.09437e-05
8.09438e-05
8.09439e-05
8.09441e-05
8.09442e-05
8.09444e-05
8.09446e-05
8.09448e-05
8.0945e-05
8.09452e-05
8.09454e-05
8.09455e-05
8.09456e-05
8.09457e-05
8.09458e-05
8.09458e-05
8.09458e-05
8.09458e-05
8.09457e-05
8.09456e-05
8.09454e-05
8.09452e-05
8.0945e-05
8.09448e-05
8.09446e-05
8.09443e-05
8.0944e-05
8.09438e-05
8.09435e-05
8.09432e-05
8.0943e-05
8.09427e-05
8.09425e-05
8.09422e-05
8.0942e-05
8.09418e-05
8.09415e-05
8.09413e-05
8.09411e-05
8.09409e-05
8.09407e-05
8.09405e-05
8.09402e-05
8.094e-05
8.09398e-05
8.09396e-05
8.09394e-05
8.09392e-05
8.0939e-05
8.09387e-05
8.09385e-05
8.09383e-05
8.0938e-05
8.09378e-05
8.09376e-05
8.09373e-05
8.09371e-05
8.0937e-05
8.09368e-05
8.09366e-05
8.09365e-05
8.09363e-05
8.09361e-05
8.09361e-05
8.09361e-05
8.09362e-05
8.09363e-05
8.09364e-05
8.09365e-05
8.09366e-05
8.09366e-05
8.09367e-05
8.09368e-05
8.09369e-05
8.0937e-05
8.09368e-05
8.09374e-05
9.62153e-05
9.62123e-05
9.621e-05
9.62082e-05
9.6207e-05
9.62064e-05
9.62063e-05
9.62065e-05
9.62068e-05
9.6207e-05
9.62072e-05
9.62075e-05
9.62078e-05
9.62083e-05
9.62089e-05
9.62096e-05
9.62104e-05
9.62111e-05
9.62117e-05
9.62122e-05
9.62128e-05
9.62134e-05
9.62141e-05
9.62148e-05
9.62155e-05
9.62162e-05
9.62167e-05
9.62173e-05
9.62178e-05
9.62184e-05
9.6219e-05
9.62196e-05
9.62201e-05
9.62206e-05
9.6221e-05
9.62215e-05
9.62219e-05
9.62224e-05
9.62228e-05
9.62232e-05
9.62235e-05
9.62239e-05
9.62242e-05
9.62244e-05
9.62247e-05
9.62248e-05
9.62249e-05
9.62251e-05
9.62253e-05
9.62255e-05
9.62257e-05
9.6226e-05
9.62262e-05
9.62263e-05
9.62265e-05
9.62266e-05
9.62267e-05
9.62268e-05
9.62268e-05
9.62268e-05
9.62267e-05
9.62266e-05
9.62264e-05
9.62262e-05
9.6226e-05
9.62257e-05
9.62255e-05
9.62252e-05
9.62249e-05
9.62246e-05
9.62243e-05
9.6224e-05
9.62237e-05
9.62234e-05
9.62231e-05
9.62228e-05
9.62225e-05
9.62223e-05
9.6222e-05
9.62217e-05
9.62215e-05
9.62212e-05
9.6221e-05
9.62207e-05
9.62205e-05
9.62202e-05
9.622e-05
9.62198e-05
9.62195e-05
9.62193e-05
9.6219e-05
9.62188e-05
9.62185e-05
9.62182e-05
9.6218e-05
9.62177e-05
9.62174e-05
9.62172e-05
9.62169e-05
9.62167e-05
9.62165e-05
9.62163e-05
9.62162e-05
9.6216e-05
9.62159e-05
9.62157e-05
9.62157e-05
9.62157e-05
9.62158e-05
9.62159e-05
9.6216e-05
9.62161e-05
9.62162e-05
9.62163e-05
9.62164e-05
9.62165e-05
9.62166e-05
9.62167e-05
9.62165e-05
9.62174e-05
0.000108985
0.000108981
0.000108979
0.000108977
0.000108975
0.000108975
0.000108975
0.000108975
0.000108975
0.000108976
0.000108976
0.000108976
0.000108976
0.000108977
0.000108978
0.000108979
0.000108979
0.00010898
0.000108981
0.000108981
0.000108982
0.000108983
0.000108984
0.000108984
0.000108985
0.000108986
0.000108986
0.000108987
0.000108988
0.000108988
0.000108989
0.000108989
0.00010899
0.000108991
0.000108991
0.000108992
0.000108992
0.000108992
0.000108993
0.000108993
0.000108994
0.000108994
0.000108994
0.000108995
0.000108995
0.000108995
0.000108995
0.000108995
0.000108996
0.000108996
0.000108996
0.000108996
0.000108997
0.000108997
0.000108997
0.000108997
0.000108997
0.000108997
0.000108997
0.000108997
0.000108997
0.000108997
0.000108997
0.000108996
0.000108996
0.000108996
0.000108996
0.000108995
0.000108995
0.000108995
0.000108994
0.000108994
0.000108994
0.000108993
0.000108993
0.000108993
0.000108992
0.000108992
0.000108992
0.000108991
0.000108991
0.000108991
0.000108991
0.00010899
0.00010899
0.00010899
0.000108989
0.000108989
0.000108989
0.000108989
0.000108988
0.000108988
0.000108988
0.000108987
0.000108987
0.000108987
0.000108987
0.000108986
0.000108986
0.000108986
0.000108986
0.000108985
0.000108985
0.000108985
0.000108985
0.000108985
0.000108985
0.000108985
0.000108985
0.000108985
0.000108985
0.000108985
0.000108985
0.000108986
0.000108986
0.000108986
0.000108986
0.000108986
0.000108986
0.000108987
0.000119458
0.000119454
0.000119451
0.000119449
0.000119448
0.000119447
0.000119447
0.000119447
0.000119447
0.000119448
0.000119448
0.000119448
0.000119449
0.000119449
0.00011945
0.000119451
0.000119452
0.000119453
0.000119454
0.000119454
0.000119455
0.000119456
0.000119457
0.000119457
0.000119458
0.000119459
0.00011946
0.00011946
0.000119461
0.000119462
0.000119462
0.000119463
0.000119464
0.000119464
0.000119465
0.000119465
0.000119466
0.000119466
0.000119467
0.000119467
0.000119467
0.000119468
0.000119468
0.000119468
0.000119469
0.000119469
0.000119469
0.000119469
0.00011947
0.00011947
0.00011947
0.00011947
0.00011947
0.000119471
0.000119471
0.000119471
0.000119471
0.000119471
0.000119471
0.000119471
0.000119471
0.000119471
0.00011947
0.00011947
0.00011947
0.000119469
0.000119469
0.000119469
0.000119468
0.000119468
0.000119468
0.000119467
0.000119467
0.000119466
0.000119466
0.000119466
0.000119465
0.000119465
0.000119465
0.000119464
0.000119464
0.000119464
0.000119464
0.000119463
0.000119463
0.000119463
0.000119462
0.000119462
0.000119462
0.000119461
0.000119461
0.000119461
0.000119461
0.00011946
0.00011946
0.00011946
0.000119459
0.000119459
0.000119459
0.000119458
0.000119458
0.000119458
0.000119458
0.000119458
0.000119458
0.000119458
0.000119458
0.000119458
0.000119458
0.000119458
0.000119458
0.000119458
0.000119458
0.000119458
0.000119459
0.000119459
0.000119459
0.000119459
0.000119459
0.00011946
0.000127985
0.000127981
0.000127978
0.000127976
0.000127974
0.000127973
0.000127973
0.000127973
0.000127974
0.000127974
0.000127975
0.000127975
0.000127975
0.000127976
0.000127977
0.000127978
0.000127979
0.00012798
0.00012798
0.000127981
0.000127982
0.000127983
0.000127984
0.000127984
0.000127985
0.000127986
0.000127987
0.000127988
0.000127988
0.000127989
0.00012799
0.00012799
0.000127991
0.000127992
0.000127992
0.000127993
0.000127993
0.000127994
0.000127994
0.000127995
0.000127995
0.000127995
0.000127996
0.000127996
0.000127996
0.000127997
0.000127997
0.000127997
0.000127997
0.000127997
0.000127998
0.000127998
0.000127998
0.000127998
0.000127998
0.000127999
0.000127999
0.000127999
0.000127999
0.000127998
0.000127998
0.000127998
0.000127998
0.000127998
0.000127997
0.000127997
0.000127996
0.000127996
0.000127996
0.000127995
0.000127995
0.000127994
0.000127994
0.000127994
0.000127993
0.000127993
0.000127993
0.000127992
0.000127992
0.000127991
0.000127991
0.000127991
0.00012799
0.00012799
0.00012799
0.00012799
0.000127989
0.000127989
0.000127989
0.000127988
0.000127988
0.000127988
0.000127987
0.000127987
0.000127986
0.000127986
0.000127986
0.000127986
0.000127985
0.000127985
0.000127985
0.000127985
0.000127985
0.000127985
0.000127984
0.000127984
0.000127984
0.000127984
0.000127984
0.000127985
0.000127985
0.000127985
0.000127985
0.000127985
0.000127985
0.000127985
0.000127986
0.000127986
0.000127986
0.000127987
0.000134915
0.000134911
0.000134908
0.000134906
0.000134904
0.000134903
0.000134903
0.000134903
0.000134903
0.000134904
0.000134904
0.000134905
0.000134905
0.000134906
0.000134907
0.000134908
0.000134909
0.00013491
0.00013491
0.000134911
0.000134912
0.000134913
0.000134914
0.000134915
0.000134916
0.000134917
0.000134917
0.000134918
0.000134919
0.00013492
0.00013492
0.000134921
0.000134922
0.000134922
0.000134923
0.000134923
0.000134924
0.000134925
0.000134925
0.000134926
0.000134926
0.000134926
0.000134927
0.000134927
0.000134927
0.000134928
0.000134928
0.000134928
0.000134928
0.000134928
0.000134929
0.000134929
0.000134929
0.000134929
0.000134929
0.00013493
0.00013493
0.00013493
0.000134929
0.000134929
0.000134929
0.000134929
0.000134929
0.000134928
0.000134928
0.000134927
0.000134927
0.000134927
0.000134926
0.000134926
0.000134925
0.000134925
0.000134924
0.000134924
0.000134924
0.000134923
0.000134923
0.000134922
0.000134922
0.000134922
0.000134921
0.000134921
0.000134921
0.00013492
0.00013492
0.00013492
0.000134919
0.000134919
0.000134919
0.000134918
0.000134918
0.000134918
0.000134917
0.000134917
0.000134916
0.000134916
0.000134916
0.000134915
0.000134915
0.000134915
0.000134915
0.000134915
0.000134915
0.000134914
0.000134914
0.000134914
0.000134914
0.000134914
0.000134914
0.000134915
0.000134915
0.000134915
0.000134915
0.000134915
0.000134915
0.000134916
0.000134916
0.000134916
0.000134916
0.000134917
0.000140549
0.000140546
0.000140543
0.00014054
0.000140538
0.000140537
0.000140537
0.000140537
0.000140538
0.000140538
0.000140539
0.000140539
0.000140539
0.00014054
0.000140541
0.000140542
0.000140543
0.000140544
0.000140545
0.000140546
0.000140547
0.000140548
0.000140549
0.00014055
0.000140551
0.000140551
0.000140552
0.000140553
0.000140554
0.000140555
0.000140555
0.000140556
0.000140557
0.000140558
0.000140558
0.000140559
0.000140559
0.00014056
0.00014056
0.000140561
0.000140561
0.000140562
0.000140562
0.000140563
0.000140563
0.000140563
0.000140563
0.000140564
0.000140564
0.000140564
0.000140564
0.000140564
0.000140564
0.000140565
0.000140565
0.000140565
0.000140565
0.000140565
0.000140565
0.000140565
0.000140564
0.000140564
0.000140564
0.000140563
0.000140563
0.000140563
0.000140562
0.000140562
0.000140561
0.000140561
0.00014056
0.00014056
0.000140559
0.000140559
0.000140558
0.000140558
0.000140558
0.000140557
0.000140557
0.000140556
0.000140556
0.000140556
0.000140555
0.000140555
0.000140555
0.000140554
0.000140554
0.000140553
0.000140553
0.000140553
0.000140552
0.000140552
0.000140552
0.000140551
0.000140551
0.00014055
0.00014055
0.00014055
0.000140549
0.000140549
0.000140549
0.000140549
0.000140549
0.000140549
0.000140549
0.000140549
0.000140549
0.000140549
0.000140549
0.000140549
0.000140549
0.000140549
0.00014055
0.00014055
0.00014055
0.00014055
0.00014055
0.00014055
0.00014055
0.000140552
0.000145133
0.00014513
0.000145127
0.000145124
0.000145122
0.000145121
0.000145121
0.000145121
0.000145121
0.000145122
0.000145122
0.000145123
0.000145123
0.000145124
0.000145125
0.000145126
0.000145127
0.000145128
0.000145129
0.00014513
0.000145131
0.000145132
0.000145133
0.000145134
0.000145135
0.000145136
0.000145136
0.000145137
0.000145138
0.000145139
0.00014514
0.00014514
0.000145141
0.000145142
0.000145143
0.000145143
0.000145144
0.000145144
0.000145145
0.000145145
0.000145146
0.000145146
0.000145147
0.000145147
0.000145147
0.000145148
0.000145148
0.000145148
0.000145148
0.000145149
0.000145149
0.000145149
0.000145149
0.000145149
0.000145149
0.00014515
0.00014515
0.000145149
0.000145149
0.000145149
0.000145149
0.000145148
0.000145148
0.000145148
0.000145147
0.000145147
0.000145146
0.000145146
0.000145145
0.000145145
0.000145144
0.000145144
0.000145143
0.000145143
0.000145143
0.000145142
0.000145142
0.000145141
0.000145141
0.00014514
0.00014514
0.00014514
0.000145139
0.000145139
0.000145138
0.000145138
0.000145138
0.000145137
0.000145137
0.000145136
0.000145136
0.000145136
0.000145135
0.000145135
0.000145134
0.000145134
0.000145134
0.000145133
0.000145133
0.000145133
0.000145133
0.000145133
0.000145133
0.000145133
0.000145133
0.000145133
0.000145133
0.000145133
0.000145133
0.000145133
0.000145133
0.000145133
0.000145133
0.000145133
0.000145134
0.000145134
0.000145134
0.000145134
0.000145134
0.000145136
0.00014886
0.000148857
0.000148854
0.000148852
0.00014885
0.000148849
0.000148848
0.000148848
0.000148849
0.000148849
0.000148849
0.00014885
0.00014885
0.000148851
0.000148852
0.000148853
0.000148854
0.000148855
0.000148856
0.000148857
0.000148858
0.000148859
0.00014886
0.000148861
0.000148862
0.000148863
0.000148864
0.000148865
0.000148866
0.000148866
0.000148867
0.000148868
0.000148869
0.00014887
0.00014887
0.000148871
0.000148872
0.000148872
0.000148873
0.000148873
0.000148874
0.000148874
0.000148875
0.000148875
0.000148875
0.000148876
0.000148876
0.000148876
0.000148876
0.000148877
0.000148877
0.000148877
0.000148877
0.000148877
0.000148877
0.000148877
0.000148877
0.000148877
0.000148877
0.000148877
0.000148877
0.000148876
0.000148876
0.000148875
0.000148875
0.000148874
0.000148874
0.000148873
0.000148873
0.000148872
0.000148872
0.000148871
0.000148871
0.00014887
0.00014887
0.000148869
0.000148869
0.000148869
0.000148868
0.000148868
0.000148867
0.000148867
0.000148866
0.000148866
0.000148866
0.000148865
0.000148865
0.000148864
0.000148864
0.000148864
0.000148863
0.000148863
0.000148862
0.000148862
0.000148861
0.000148861
0.000148861
0.00014886
0.00014886
0.00014886
0.00014886
0.00014886
0.00014886
0.00014886
0.00014886
0.00014886
0.00014886
0.00014886
0.00014886
0.00014886
0.00014886
0.00014886
0.00014886
0.000148861
0.000148861
0.000148861
0.000148861
0.000148861
0.000148861
0.000148863
0.000151883
0.00015188
0.000151877
0.000151875
0.000151873
0.000151872
0.000151871
0.000151871
0.000151872
0.000151872
0.000151872
0.000151873
0.000151873
0.000151874
0.000151875
0.000151876
0.000151877
0.000151878
0.000151879
0.00015188
0.000151881
0.000151882
0.000151883
0.000151884
0.000151885
0.000151886
0.000151887
0.000151888
0.000151889
0.00015189
0.000151891
0.000151892
0.000151892
0.000151893
0.000151894
0.000151895
0.000151895
0.000151896
0.000151896
0.000151897
0.000151898
0.000151898
0.000151898
0.000151899
0.000151899
0.0001519
0.0001519
0.0001519
0.0001519
0.0001519
0.000151901
0.000151901
0.000151901
0.000151901
0.000151901
0.000151901
0.000151901
0.000151901
0.000151901
0.0001519
0.0001519
0.0001519
0.000151899
0.000151899
0.000151898
0.000151898
0.000151897
0.000151897
0.000151896
0.000151896
0.000151895
0.000151895
0.000151894
0.000151894
0.000151893
0.000151893
0.000151892
0.000151892
0.000151891
0.000151891
0.00015189
0.00015189
0.00015189
0.000151889
0.000151889
0.000151888
0.000151888
0.000151887
0.000151887
0.000151886
0.000151886
0.000151886
0.000151885
0.000151885
0.000151884
0.000151884
0.000151883
0.000151883
0.000151883
0.000151883
0.000151883
0.000151883
0.000151883
0.000151883
0.000151883
0.000151883
0.000151883
0.000151883
0.000151883
0.000151883
0.000151883
0.000151883
0.000151884
0.000151884
0.000151884
0.000151884
0.000151884
0.000151885
0.000151885
0.000151886
0.000154322
0.000154319
0.000154316
0.000154314
0.000154312
0.000154311
0.00015431
0.00015431
0.000154311
0.000154311
0.000154311
0.000154312
0.000154312
0.000154313
0.000154314
0.000154315
0.000154316
0.000154317
0.000154318
0.000154319
0.00015432
0.000154321
0.000154322
0.000154323
0.000154324
0.000154325
0.000154326
0.000154327
0.000154328
0.000154329
0.00015433
0.000154331
0.000154332
0.000154332
0.000154333
0.000154334
0.000154335
0.000154335
0.000154336
0.000154336
0.000154337
0.000154337
0.000154338
0.000154338
0.000154339
0.000154339
0.000154339
0.00015434
0.00015434
0.00015434
0.00015434
0.00015434
0.000154341
0.000154341
0.000154341
0.000154341
0.00015434
0.00015434
0.00015434
0.00015434
0.000154339
0.000154339
0.000154338
0.000154338
0.000154337
0.000154337
0.000154336
0.000154336
0.000154335
0.000154335
0.000154334
0.000154334
0.000154333
0.000154333
0.000154332
0.000154332
0.000154331
0.000154331
0.00015433
0.00015433
0.000154329
0.000154329
0.000154328
0.000154328
0.000154327
0.000154327
0.000154326
0.000154326
0.000154326
0.000154325
0.000154325
0.000154324
0.000154324
0.000154323
0.000154323
0.000154322
0.000154322
0.000154322
0.000154322
0.000154321
0.000154321
0.000154321
0.000154321
0.000154322
0.000154322
0.000154322
0.000154322
0.000154322
0.000154322
0.000154322
0.000154322
0.000154322
0.000154322
0.000154322
0.000154323
0.000154323
0.000154323
0.000154323
0.000154323
0.000154325
0.000156271
0.000156268
0.000156265
0.000156263
0.000156261
0.00015626
0.000156259
0.000156259
0.000156259
0.00015626
0.00015626
0.00015626
0.000156261
0.000156262
0.000156262
0.000156264
0.000156265
0.000156266
0.000156267
0.000156268
0.000156269
0.00015627
0.000156271
0.000156272
0.000156273
0.000156274
0.000156275
0.000156276
0.000156277
0.000156278
0.000156279
0.00015628
0.000156281
0.000156282
0.000156282
0.000156283
0.000156284
0.000156284
0.000156285
0.000156286
0.000156286
0.000156287
0.000156287
0.000156288
0.000156288
0.000156288
0.000156289
0.000156289
0.000156289
0.000156289
0.00015629
0.00015629
0.00015629
0.00015629
0.00015629
0.00015629
0.00015629
0.000156289
0.000156289
0.000156289
0.000156288
0.000156288
0.000156287
0.000156287
0.000156286
0.000156286
0.000156285
0.000156284
0.000156284
0.000156283
0.000156283
0.000156282
0.000156282
0.000156281
0.000156281
0.00015628
0.00015628
0.000156279
0.000156279
0.000156278
0.000156278
0.000156277
0.000156277
0.000156276
0.000156276
0.000156275
0.000156275
0.000156274
0.000156274
0.000156273
0.000156273
0.000156272
0.000156272
0.000156271
0.000156271
0.000156271
0.00015627
0.00015627
0.00015627
0.00015627
0.00015627
0.00015627
0.00015627
0.00015627
0.00015627
0.00015627
0.00015627
0.00015627
0.000156271
0.000156271
0.000156271
0.000156271
0.000156271
0.000156271
0.000156271
0.000156272
0.000156272
0.000156272
0.000156272
0.000156274
0.000157804
0.000157801
0.000157799
0.000157797
0.000157795
0.000157794
0.000157793
0.000157793
0.000157793
0.000157793
0.000157794
0.000157794
0.000157795
0.000157795
0.000157796
0.000157797
0.000157798
0.000157799
0.0001578
0.000157801
0.000157802
0.000157803
0.000157804
0.000157806
0.000157807
0.000157808
0.000157809
0.00015781
0.000157811
0.000157812
0.000157813
0.000157814
0.000157814
0.000157815
0.000157816
0.000157817
0.000157817
0.000157818
0.000157819
0.000157819
0.00015782
0.000157821
0.000157821
0.000157821
0.000157822
0.000157822
0.000157823
0.000157823
0.000157823
0.000157823
0.000157824
0.000157824
0.000157824
0.000157824
0.000157824
0.000157824
0.000157823
0.000157823
0.000157822
0.000157822
0.000157822
0.000157821
0.00015782
0.00015782
0.000157819
0.000157819