/*--------------------------------*- C++ -*----------------------------------*\
  =========                 |
  \\      /  F ield         | OpenFOAM: The Open Source CFD Toolbox
   \\    /   O peration     | Website:  https://openfoam.org
    \\  /    A nd           | Version:  7
     \\/     M anipulation  |
\*---------------------------------------------------------------------------*/
FoamFile
{
    version     2.0;
    format      ascii;
    class       volScalarField;
    location    "2500";
    object      nut;
}
// * * * * * * * * * * * * * * * * * * * * * * * * * * * * * * * * * * * * * //

dimensions      [0 2 -1 0 0 0 0];

internalField   nonuniform List<scalar> 
24000
(
6.6079e-12
6.60773e-12
6.60753e-12
6.60735e-12
6.60723e-12
6.60716e-12
6.60713e-12
6.60711e-12
6.6071e-12
6.60709e-12
6.60708e-12
6.6071e-12
6.60713e-12
6.60718e-12
6.60724e-12
6.6073e-12
6.60736e-12
6.60741e-12
6.60746e-12
6.60751e-12
6.60757e-12
6.60764e-12
6.60771e-12
6.60777e-12
6.60783e-12
6.60789e-12
6.60795e-12
6.608e-12
6.60806e-12
6.60812e-12
6.60818e-12
6.60824e-12
6.60829e-12
6.60834e-12
6.60839e-12
6.60844e-12
6.60849e-12
6.60854e-12
6.60859e-12
6.60863e-12
6.60867e-12
6.60871e-12
6.60873e-12
6.60876e-12
6.60877e-12
6.60877e-12
6.60878e-12
6.60881e-12
6.60883e-12
6.60886e-12
6.60889e-12
6.60891e-12
6.60894e-12
6.60896e-12
6.60898e-12
6.60899e-12
6.60901e-12
6.60902e-12
6.60903e-12
6.60903e-12
6.60903e-12
6.60903e-12
6.60902e-12
6.60901e-12
6.609e-12
6.60898e-12
6.60896e-12
6.60894e-12
6.60891e-12
6.60889e-12
6.60886e-12
6.60883e-12
6.60881e-12
6.60878e-12
6.60875e-12
6.60873e-12
6.6087e-12
6.60868e-12
6.60865e-12
6.60863e-12
6.60861e-12
6.60858e-12
6.60856e-12
6.60854e-12
6.60852e-12
6.60849e-12
6.60847e-12
6.60845e-12
6.60843e-12
6.60841e-12
6.60838e-12
6.60836e-12
6.60834e-12
6.60832e-12
6.60829e-12
6.60827e-12
6.60824e-12
6.60822e-12
6.6082e-12
6.60817e-12
6.60815e-12
6.60812e-12
6.60809e-12
6.60806e-12
6.60802e-12
6.608e-12
6.608e-12
6.608e-12
6.608e-12
6.60801e-12
6.60802e-12
6.60803e-12
6.60804e-12
6.60805e-12
6.60806e-12
6.60807e-12
6.60807e-12
6.60807e-12
6.60804e-12
6.60804e-12
1.14925e-09
1.14922e-09
1.14918e-09
1.14915e-09
1.14913e-09
1.14912e-09
1.14911e-09
1.14911e-09
1.14911e-09
1.14911e-09
1.14911e-09
1.14911e-09
1.14911e-09
1.14912e-09
1.14913e-09
1.14914e-09
1.14915e-09
1.14916e-09
1.14917e-09
1.14918e-09
1.14919e-09
1.1492e-09
1.14921e-09
1.14922e-09
1.14923e-09
1.14924e-09
1.14925e-09
1.14926e-09
1.14927e-09
1.14929e-09
1.1493e-09
1.14931e-09
1.14931e-09
1.14932e-09
1.14933e-09
1.14934e-09
1.14935e-09
1.14936e-09
1.14937e-09
1.14937e-09
1.14938e-09
1.14939e-09
1.14939e-09
1.1494e-09
1.1494e-09
1.1494e-09
1.1494e-09
1.1494e-09
1.14941e-09
1.14941e-09
1.14942e-09
1.14942e-09
1.14943e-09
1.14943e-09
1.14943e-09
1.14944e-09
1.14944e-09
1.14944e-09
1.14944e-09
1.14944e-09
1.14944e-09
1.14944e-09
1.14944e-09
1.14944e-09
1.14944e-09
1.14943e-09
1.14943e-09
1.14943e-09
1.14942e-09
1.14942e-09
1.14941e-09
1.14941e-09
1.1494e-09
1.1494e-09
1.14939e-09
1.14939e-09
1.14939e-09
1.14938e-09
1.14938e-09
1.14937e-09
1.14937e-09
1.14937e-09
1.14936e-09
1.14936e-09
1.14935e-09
1.14935e-09
1.14935e-09
1.14934e-09
1.14934e-09
1.14933e-09
1.14933e-09
1.14933e-09
1.14932e-09
1.14932e-09
1.14931e-09
1.14931e-09
1.14931e-09
1.1493e-09
1.1493e-09
1.14929e-09
1.14929e-09
1.14928e-09
1.14928e-09
1.14927e-09
1.14927e-09
1.14926e-09
1.14926e-09
1.14926e-09
1.14926e-09
1.14927e-09
1.14927e-09
1.14927e-09
1.14927e-09
1.14927e-09
1.14927e-09
1.14928e-09
1.14928e-09
1.14928e-09
1.14927e-09
1.14927e-09
2.45925e-08
2.45919e-08
2.45912e-08
2.45905e-08
2.459e-08
2.45898e-08
2.45896e-08
2.45896e-08
2.45896e-08
2.45895e-08
2.45895e-08
2.45896e-08
2.45897e-08
2.45899e-08
2.45901e-08
2.45903e-08
2.45905e-08
2.45907e-08
2.45909e-08
2.45911e-08
2.45913e-08
2.45916e-08
2.45918e-08
2.45921e-08
2.45923e-08
2.45925e-08
2.45927e-08
2.45929e-08
2.45931e-08
2.45934e-08
2.45936e-08
2.45938e-08
2.4594e-08
2.45942e-08
2.45944e-08
2.45945e-08
2.45947e-08
2.45949e-08
2.45951e-08
2.45952e-08
2.45954e-08
2.45955e-08
2.45956e-08
2.45957e-08
2.45957e-08
2.45958e-08
2.45958e-08
2.45959e-08
2.4596e-08
2.45961e-08
2.45962e-08
2.45963e-08
2.45964e-08
2.45964e-08
2.45965e-08
2.45966e-08
2.45966e-08
2.45967e-08
2.45967e-08
2.45967e-08
2.45967e-08
2.45967e-08
2.45967e-08
2.45967e-08
2.45966e-08
2.45965e-08
2.45964e-08
2.45964e-08
2.45963e-08
2.45962e-08
2.45961e-08
2.4596e-08
2.45959e-08
2.45958e-08
2.45957e-08
2.45956e-08
2.45955e-08
2.45954e-08
2.45953e-08
2.45952e-08
2.45951e-08
2.45951e-08
2.4595e-08
2.45949e-08
2.45948e-08
2.45947e-08
2.45946e-08
2.45946e-08
2.45945e-08
2.45944e-08
2.45943e-08
2.45942e-08
2.45941e-08
2.45941e-08
2.4594e-08
2.45939e-08
2.45938e-08
2.45937e-08
2.45936e-08
2.45935e-08
2.45934e-08
2.45933e-08
2.45932e-08
2.45931e-08
2.4593e-08
2.45929e-08
2.45929e-08
2.45929e-08
2.45929e-08
2.45929e-08
2.4593e-08
2.4593e-08
2.45931e-08
2.45931e-08
2.45931e-08
2.45931e-08
2.45932e-08
2.45932e-08
2.45931e-08
2.45931e-08
1.88778e-07
1.88774e-07
1.88768e-07
1.88763e-07
1.8876e-07
1.88758e-07
1.88757e-07
1.88756e-07
1.88756e-07
1.88756e-07
1.88756e-07
1.88757e-07
1.88757e-07
1.88759e-07
1.8876e-07
1.88762e-07
1.88764e-07
1.88765e-07
1.88767e-07
1.88768e-07
1.8877e-07
1.88772e-07
1.88774e-07
1.88775e-07
1.88777e-07
1.88779e-07
1.8878e-07
1.88782e-07
1.88784e-07
1.88785e-07
1.88787e-07
1.88788e-07
1.8879e-07
1.88791e-07
1.88793e-07
1.88794e-07
1.88795e-07
1.88797e-07
1.88798e-07
1.88799e-07
1.888e-07
1.88801e-07
1.88802e-07
1.88803e-07
1.88803e-07
1.88803e-07
1.88803e-07
1.88804e-07
1.88805e-07
1.88806e-07
1.88806e-07
1.88807e-07
1.88808e-07
1.88808e-07
1.88809e-07
1.88809e-07
1.8881e-07
1.8881e-07
1.8881e-07
1.8881e-07
1.8881e-07
1.8881e-07
1.8881e-07
1.8881e-07
1.88809e-07
1.88809e-07
1.88808e-07
1.88808e-07
1.88807e-07
1.88806e-07
1.88805e-07
1.88805e-07
1.88804e-07
1.88803e-07
1.88802e-07
1.88802e-07
1.88801e-07
1.888e-07
1.888e-07
1.88799e-07
1.88798e-07
1.88798e-07
1.88797e-07
1.88796e-07
1.88796e-07
1.88795e-07
1.88794e-07
1.88794e-07
1.88793e-07
1.88793e-07
1.88792e-07
1.88791e-07
1.88791e-07
1.8879e-07
1.88789e-07
1.88789e-07
1.88788e-07
1.88787e-07
1.88787e-07
1.88786e-07
1.88785e-07
1.88785e-07
1.88784e-07
1.88783e-07
1.88782e-07
1.88781e-07
1.88781e-07
1.88781e-07
1.88782e-07
1.88782e-07
1.88782e-07
1.88782e-07
1.88783e-07
1.88783e-07
1.88783e-07
1.88783e-07
1.88783e-07
1.88783e-07
1.88783e-07
1.88783e-07
8.07272e-07
8.07253e-07
8.07232e-07
8.07213e-07
8.07198e-07
8.07189e-07
8.07186e-07
8.07185e-07
8.07185e-07
8.07185e-07
8.07185e-07
8.07187e-07
8.07191e-07
8.07196e-07
8.07203e-07
8.07211e-07
8.07218e-07
8.07224e-07
8.0723e-07
8.07236e-07
8.07243e-07
8.07251e-07
8.07258e-07
8.07266e-07
8.07273e-07
8.0728e-07
8.07287e-07
8.07293e-07
8.073e-07
8.07306e-07
8.07313e-07
8.0732e-07
8.07326e-07
8.07332e-07
8.07337e-07
8.07343e-07
8.07348e-07
8.07354e-07
8.07359e-07
8.07364e-07
8.07368e-07
8.07372e-07
8.07375e-07
8.07377e-07
8.07378e-07
8.07378e-07
8.0738e-07
8.07383e-07
8.07386e-07
8.07389e-07
8.07393e-07
8.07396e-07
8.07398e-07
8.07401e-07
8.07403e-07
8.07404e-07
8.07406e-07
8.07407e-07
8.07408e-07
8.07408e-07
8.07408e-07
8.07408e-07
8.07407e-07
8.07405e-07
8.07404e-07
8.07401e-07
8.07399e-07
8.07396e-07
8.07393e-07
8.0739e-07
8.07387e-07
8.07384e-07
8.0738e-07
8.07377e-07
8.07374e-07
8.07371e-07
8.07368e-07
8.07365e-07
8.07362e-07
8.0736e-07
8.07357e-07
8.07354e-07
8.07351e-07
8.07349e-07
8.07346e-07
8.07344e-07
8.07341e-07
8.07338e-07
8.07336e-07
8.07333e-07
8.07331e-07
8.07328e-07
8.07326e-07
8.07323e-07
8.0732e-07
8.07317e-07
8.07314e-07
8.07312e-07
8.07309e-07
8.07306e-07
8.07303e-07
8.073e-07
8.07297e-07
8.07294e-07
8.07289e-07
8.07288e-07
8.07287e-07
8.07288e-07
8.07289e-07
8.0729e-07
8.07291e-07
8.07292e-07
8.07294e-07
8.07295e-07
8.07296e-07
8.07296e-07
8.07297e-07
8.07297e-07
8.07294e-07
8.07294e-07
2.33012e-06
2.33007e-06
2.33002e-06
2.32998e-06
2.32994e-06
2.32992e-06
2.32991e-06
2.32991e-06
2.32991e-06
2.32991e-06
2.32991e-06
2.32992e-06
2.32993e-06
2.32994e-06
2.32996e-06
2.32998e-06
2.33e-06
2.33002e-06
2.33004e-06
2.33006e-06
2.33008e-06
2.3301e-06
2.33012e-06
2.33014e-06
2.33016e-06
2.33018e-06
2.3302e-06
2.33021e-06
2.33023e-06
2.33025e-06
2.33027e-06
2.33028e-06
2.3303e-06
2.33032e-06
2.33033e-06
2.33035e-06
2.33036e-06
2.33038e-06
2.33039e-06
2.3304e-06
2.33041e-06
2.33042e-06
2.33043e-06
2.33044e-06
2.33044e-06
2.33044e-06
2.33044e-06
2.33045e-06
2.33046e-06
2.33047e-06
2.33048e-06
2.33049e-06
2.33049e-06
2.3305e-06
2.33051e-06
2.33051e-06
2.33051e-06
2.33052e-06
2.33052e-06
2.33052e-06
2.33052e-06
2.33052e-06
2.33051e-06
2.33051e-06
2.3305e-06
2.3305e-06
2.33049e-06
2.33048e-06
2.33047e-06
2.33047e-06
2.33046e-06
2.33045e-06
2.33044e-06
2.33043e-06
2.33042e-06
2.33041e-06
2.33041e-06
2.3304e-06
2.33039e-06
2.33038e-06
2.33037e-06
2.33037e-06
2.33036e-06
2.33035e-06
2.33034e-06
2.33034e-06
2.33033e-06
2.33032e-06
2.33032e-06
2.33031e-06
2.3303e-06
2.3303e-06
2.33029e-06
2.33028e-06
2.33027e-06
2.33026e-06
2.33026e-06
2.33025e-06
2.33024e-06
2.33023e-06
2.33023e-06
2.33022e-06
2.33021e-06
2.3302e-06
2.33019e-06
2.33018e-06
2.33018e-06
2.33019e-06
2.33019e-06
2.33019e-06
2.3302e-06
2.3302e-06
2.3302e-06
2.33021e-06
2.33021e-06
2.33021e-06
2.33021e-06
2.33021e-06
2.33021e-06
2.33021e-06
5.07534e-06
5.07523e-06
5.07515e-06
5.07507e-06
5.075e-06
5.07496e-06
5.07495e-06
5.07495e-06
5.07496e-06
5.07497e-06
5.07498e-06
5.07499e-06
5.07501e-06
5.07504e-06
5.07508e-06
5.07513e-06
5.07517e-06
5.07521e-06
5.07525e-06
5.07528e-06
5.07532e-06
5.07536e-06
5.07541e-06
5.07545e-06
5.07549e-06
5.07553e-06
5.07557e-06
5.0756e-06
5.07564e-06
5.07568e-06
5.07571e-06
5.07575e-06
5.07578e-06
5.07581e-06
5.07584e-06
5.07587e-06
5.0759e-06
5.07593e-06
5.07596e-06
5.07598e-06
5.07601e-06
5.07603e-06
5.07604e-06
5.07605e-06
5.07606e-06
5.07606e-06
5.07606e-06
5.07608e-06
5.07609e-06
5.07611e-06
5.07613e-06
5.07615e-06
5.07616e-06
5.07618e-06
5.07619e-06
5.0762e-06
5.07621e-06
5.07621e-06
5.07621e-06
5.07622e-06
5.07621e-06
5.07621e-06
5.0762e-06
5.07619e-06
5.07618e-06
5.07617e-06
5.07615e-06
5.07613e-06
5.07611e-06
5.0761e-06
5.07608e-06
5.07606e-06
5.07604e-06
5.07602e-06
5.076e-06
5.07599e-06
5.07597e-06
5.07595e-06
5.07594e-06
5.07592e-06
5.0759e-06
5.07589e-06
5.07587e-06
5.07586e-06
5.07584e-06
5.07583e-06
5.07581e-06
5.0758e-06
5.07579e-06
5.07577e-06
5.07576e-06
5.07574e-06
5.07573e-06
5.07571e-06
5.0757e-06
5.07568e-06
5.07566e-06
5.07565e-06
5.07563e-06
5.07562e-06
5.0756e-06
5.07558e-06
5.07557e-06
5.07555e-06
5.07552e-06
5.07551e-06
5.07551e-06
5.07552e-06
5.07553e-06
5.07554e-06
5.07555e-06
5.07556e-06
5.07556e-06
5.07557e-06
5.07558e-06
5.07558e-06
5.07559e-06
5.07559e-06
5.07557e-06
5.0756e-06
9.05774e-06
9.05754e-06
9.05742e-06
9.05731e-06
9.05722e-06
9.05717e-06
9.05716e-06
9.05718e-06
9.05721e-06
9.05723e-06
9.05725e-06
9.05727e-06
9.05731e-06
9.05736e-06
9.05743e-06
9.05751e-06
9.05759e-06
9.05766e-06
9.05773e-06
9.05779e-06
9.05785e-06
9.05792e-06
9.058e-06
9.05807e-06
9.05814e-06
9.05821e-06
9.05827e-06
9.05833e-06
9.05839e-06
9.05846e-06
9.05852e-06
9.05858e-06
9.05863e-06
9.05869e-06
9.05874e-06
9.05879e-06
9.05883e-06
9.05888e-06
9.05892e-06
9.05897e-06
9.059e-06
9.05904e-06
9.05906e-06
9.05908e-06
9.05909e-06
9.05908e-06
9.05909e-06
9.05911e-06
9.05914e-06
9.05917e-06
9.0592e-06
9.05923e-06
9.05925e-06
9.05928e-06
9.0593e-06
9.05931e-06
9.05933e-06
9.05933e-06
9.05934e-06
9.05934e-06
9.05934e-06
9.05933e-06
9.05931e-06
9.05929e-06
9.05927e-06
9.05925e-06
9.05922e-06
9.05919e-06
9.05916e-06
9.05913e-06
9.0591e-06
9.05906e-06
9.05903e-06
9.059e-06
9.05897e-06
9.05894e-06
9.05891e-06
9.05888e-06
9.05885e-06
9.05883e-06
9.0588e-06
9.05877e-06
9.05875e-06
9.05872e-06
9.0587e-06
9.05867e-06
9.05864e-06
9.05862e-06
9.05859e-06
9.05857e-06
9.05855e-06
9.05852e-06
9.0585e-06
9.05847e-06
9.05844e-06
9.05841e-06
9.05839e-06
9.05836e-06
9.05833e-06
9.05831e-06
9.05828e-06
9.05825e-06
9.05823e-06
9.0582e-06
9.05816e-06
9.05814e-06
9.05814e-06
9.05814e-06
9.05816e-06
9.05818e-06
9.05819e-06
9.05821e-06
9.05823e-06
9.05824e-06
9.05826e-06
9.05827e-06
9.05827e-06
9.05828e-06
9.05824e-06
9.05832e-06
1.40923e-05
1.4092e-05
1.40918e-05
1.40917e-05
1.40916e-05
1.40915e-05
1.40916e-05
1.40916e-05
1.40917e-05
1.40917e-05
1.40917e-05
1.40918e-05
1.40918e-05
1.40919e-05
1.4092e-05
1.40921e-05
1.40923e-05
1.40924e-05
1.40925e-05
1.40926e-05
1.40927e-05
1.40928e-05
1.40929e-05
1.4093e-05
1.40931e-05
1.40932e-05
1.40933e-05
1.40934e-05
1.40935e-05
1.40936e-05
1.40937e-05
1.40938e-05
1.40938e-05
1.40939e-05
1.4094e-05
1.40941e-05
1.40941e-05
1.40942e-05
1.40943e-05
1.40943e-05
1.40944e-05
1.40944e-05
1.40945e-05
1.40945e-05
1.40945e-05
1.40945e-05
1.40945e-05
1.40945e-05
1.40946e-05
1.40946e-05
1.40947e-05
1.40947e-05
1.40947e-05
1.40948e-05
1.40948e-05
1.40948e-05
1.40949e-05
1.40949e-05
1.40949e-05
1.40949e-05
1.40949e-05
1.40949e-05
1.40948e-05
1.40948e-05
1.40948e-05
1.40947e-05
1.40947e-05
1.40946e-05
1.40946e-05
1.40945e-05
1.40945e-05
1.40945e-05
1.40944e-05
1.40944e-05
1.40943e-05
1.40943e-05
1.40942e-05
1.40942e-05
1.40941e-05
1.40941e-05
1.40941e-05
1.4094e-05
1.4094e-05
1.40939e-05
1.40939e-05
1.40939e-05
1.40938e-05
1.40938e-05
1.40937e-05
1.40937e-05
1.40937e-05
1.40936e-05
1.40936e-05
1.40935e-05
1.40935e-05
1.40935e-05
1.40934e-05
1.40934e-05
1.40933e-05
1.40933e-05
1.40933e-05
1.40932e-05
1.40932e-05
1.40932e-05
1.40931e-05
1.40931e-05
1.40931e-05
1.40931e-05
1.40931e-05
1.40931e-05
1.40931e-05
1.40932e-05
1.40932e-05
1.40932e-05
1.40932e-05
1.40933e-05
1.40933e-05
1.40933e-05
1.40932e-05
1.40934e-05
1.99595e-05
1.99589e-05
1.99587e-05
1.99586e-05
1.99585e-05
1.99585e-05
1.99585e-05
1.99586e-05
1.99587e-05
1.99588e-05
1.99589e-05
1.99589e-05
1.9959e-05
1.99591e-05
1.99593e-05
1.99594e-05
1.99596e-05
1.99598e-05
1.99599e-05
1.99601e-05
1.99602e-05
1.99603e-05
1.99605e-05
1.99606e-05
1.99608e-05
1.99609e-05
1.99611e-05
1.99612e-05
1.99613e-05
1.99615e-05
1.99616e-05
1.99617e-05
1.99618e-05
1.99619e-05
1.99621e-05
1.99622e-05
1.99622e-05
1.99623e-05
1.99624e-05
1.99625e-05
1.99626e-05
1.99627e-05
1.99627e-05
1.99628e-05
1.99628e-05
1.99628e-05
1.99628e-05
1.99628e-05
1.99628e-05
1.99629e-05
1.99629e-05
1.9963e-05
1.99631e-05
1.99631e-05
1.99632e-05
1.99632e-05
1.99632e-05
1.99632e-05
1.99632e-05
1.99632e-05
1.99632e-05
1.99632e-05
1.99632e-05
1.99631e-05
1.99631e-05
1.9963e-05
1.9963e-05
1.99629e-05
1.99628e-05
1.99628e-05
1.99627e-05
1.99626e-05
1.99626e-05
1.99625e-05
1.99624e-05
1.99624e-05
1.99623e-05
1.99623e-05
1.99622e-05
1.99621e-05
1.99621e-05
1.9962e-05
1.9962e-05
1.99619e-05
1.99619e-05
1.99618e-05
1.99618e-05
1.99617e-05
1.99616e-05
1.99616e-05
1.99615e-05
1.99615e-05
1.99614e-05
1.99614e-05
1.99613e-05
1.99613e-05
1.99612e-05
1.99611e-05
1.99611e-05
1.9961e-05
1.9961e-05
1.99609e-05
1.99609e-05
1.99608e-05
1.99608e-05
1.99607e-05
1.99607e-05
1.99607e-05
1.99607e-05
1.99608e-05
1.99608e-05
1.99608e-05
1.99609e-05
1.99609e-05
1.9961e-05
1.9961e-05
1.9961e-05
1.9961e-05
1.99609e-05
1.99613e-05
2.64797e-05
2.6479e-05
2.64787e-05
2.64786e-05
2.64785e-05
2.64785e-05
2.64786e-05
2.64787e-05
2.64789e-05
2.6479e-05
2.64791e-05
2.64792e-05
2.64793e-05
2.64795e-05
2.64797e-05
2.64799e-05
2.64801e-05
2.64804e-05
2.64805e-05
2.64807e-05
2.64809e-05
2.64811e-05
2.64813e-05
2.64815e-05
2.64817e-05
2.64819e-05
2.64821e-05
2.64823e-05
2.64824e-05
2.64826e-05
2.64828e-05
2.64829e-05
2.64831e-05
2.64832e-05
2.64834e-05
2.64835e-05
2.64836e-05
2.64838e-05
2.64839e-05
2.6484e-05
2.64841e-05
2.64842e-05
2.64843e-05
2.64843e-05
2.64844e-05
2.64844e-05
2.64844e-05
2.64844e-05
2.64844e-05
2.64845e-05
2.64846e-05
2.64846e-05
2.64847e-05
2.64848e-05
2.64848e-05
2.64849e-05
2.64849e-05
2.64849e-05
2.64849e-05
2.64849e-05
2.64849e-05
2.64849e-05
2.64848e-05
2.64848e-05
2.64847e-05
2.64846e-05
2.64846e-05
2.64845e-05
2.64844e-05
2.64843e-05
2.64842e-05
2.64841e-05
2.64841e-05
2.6484e-05
2.64839e-05
2.64838e-05
2.64837e-05
2.64836e-05
2.64836e-05
2.64835e-05
2.64834e-05
2.64833e-05
2.64833e-05
2.64832e-05
2.64831e-05
2.6483e-05
2.6483e-05
2.64829e-05
2.64828e-05
2.64828e-05
2.64827e-05
2.64826e-05
2.64825e-05
2.64825e-05
2.64824e-05
2.64823e-05
2.64822e-05
2.64822e-05
2.64821e-05
2.6482e-05
2.6482e-05
2.64819e-05
2.64819e-05
2.64818e-05
2.64817e-05
2.64816e-05
2.64816e-05
2.64816e-05
2.64816e-05
2.64817e-05
2.64817e-05
2.64818e-05
2.64818e-05
2.64819e-05
2.64819e-05
2.6482e-05
2.6482e-05
2.6482e-05
2.64819e-05
2.64824e-05
3.35224e-05
3.35213e-05
3.3521e-05
3.35209e-05
3.35208e-05
3.35208e-05
3.3521e-05
3.35212e-05
3.35214e-05
3.35216e-05
3.35217e-05
3.35219e-05
3.3522e-05
3.35222e-05
3.35225e-05
3.35228e-05
3.35231e-05
3.35233e-05
3.35236e-05
3.35238e-05
3.35241e-05
3.35243e-05
3.35246e-05
3.35248e-05
3.35251e-05
3.35254e-05
3.35256e-05
3.35258e-05
3.3526e-05
3.35262e-05
3.35264e-05
3.35267e-05
3.35269e-05
3.35271e-05
3.35272e-05
3.35274e-05
3.35276e-05
3.35277e-05
3.35279e-05
3.3528e-05
3.35282e-05
3.35283e-05
3.35284e-05
3.35285e-05
3.35285e-05
3.35285e-05
3.35285e-05
3.35286e-05
3.35286e-05
3.35287e-05
3.35287e-05
3.35288e-05
3.35289e-05
3.3529e-05
3.35291e-05
3.35291e-05
3.35292e-05
3.35292e-05
3.35292e-05
3.35292e-05
3.35292e-05
3.35291e-05
3.35291e-05
3.3529e-05
3.35289e-05
3.35288e-05
3.35287e-05
3.35286e-05
3.35285e-05
3.35284e-05
3.35283e-05
3.35282e-05
3.35281e-05
3.3528e-05
3.35279e-05
3.35278e-05
3.35276e-05
3.35275e-05
3.35274e-05
3.35274e-05
3.35273e-05
3.35272e-05
3.35271e-05
3.3527e-05
3.35269e-05
3.35268e-05
3.35267e-05
3.35266e-05
3.35265e-05
3.35264e-05
3.35263e-05
3.35262e-05
3.35261e-05
3.3526e-05
3.35259e-05
3.35258e-05
3.35257e-05
3.35257e-05
3.35256e-05
3.35255e-05
3.35254e-05
3.35254e-05
3.35253e-05
3.35252e-05
3.35251e-05
3.3525e-05
3.3525e-05
3.3525e-05
3.3525e-05
3.35251e-05
3.35251e-05
3.35252e-05
3.35252e-05
3.35253e-05
3.35253e-05
3.35254e-05
3.35254e-05
3.35255e-05
3.35253e-05
3.35261e-05
4.09945e-05
4.09931e-05
4.09927e-05
4.09925e-05
4.09925e-05
4.09926e-05
4.09928e-05
4.09931e-05
4.09934e-05
4.09936e-05
4.09938e-05
4.0994e-05
4.09942e-05
4.09945e-05
4.09948e-05
4.09951e-05
4.09955e-05
4.09959e-05
4.09962e-05
4.09965e-05
4.09967e-05
4.0997e-05
4.09974e-05
4.09977e-05
4.0998e-05
4.09983e-05
4.09986e-05
4.09989e-05
4.09992e-05
4.09994e-05
4.09997e-05
4.1e-05
4.10002e-05
4.10005e-05
4.10007e-05
4.10009e-05
4.10011e-05
4.10013e-05
4.10015e-05
4.10017e-05
4.10019e-05
4.1002e-05
4.10021e-05
4.10022e-05
4.10023e-05
4.10023e-05
4.10024e-05
4.10024e-05
4.10024e-05
4.10025e-05
4.10026e-05
4.10027e-05
4.10028e-05
4.10029e-05
4.1003e-05
4.1003e-05
4.10031e-05
4.10031e-05
4.10031e-05
4.10031e-05
4.10031e-05
4.1003e-05
4.10029e-05
4.10029e-05
4.10028e-05
4.10026e-05
4.10025e-05
4.10024e-05
4.10023e-05
4.10021e-05
4.1002e-05
4.10019e-05
4.10017e-05
4.10016e-05
4.10015e-05
4.10013e-05
4.10012e-05
4.10011e-05
4.1001e-05
4.10008e-05
4.10007e-05
4.10006e-05
4.10005e-05
4.10004e-05
4.10003e-05
4.10001e-05
4.1e-05
4.09999e-05
4.09998e-05
4.09997e-05
4.09996e-05
4.09994e-05
4.09993e-05
4.09992e-05
4.09991e-05
4.0999e-05
4.09989e-05
4.09988e-05
4.09987e-05
4.09986e-05
4.09985e-05
4.09984e-05
4.09984e-05
4.09983e-05
4.09981e-05
4.09981e-05
4.0998e-05
4.0998e-05
4.0998e-05
4.0998e-05
4.09981e-05
4.09982e-05
4.09982e-05
4.09983e-05
4.09984e-05
4.09985e-05
4.09985e-05
4.09986e-05
4.09984e-05
4.09994e-05
4.88295e-05
4.88278e-05
4.88273e-05
4.88272e-05
4.88271e-05
4.88273e-05
4.88275e-05
4.88279e-05
4.88283e-05
4.88286e-05
4.88289e-05
4.88291e-05
4.88294e-05
4.88297e-05
4.88301e-05
4.88305e-05
4.88309e-05
4.88314e-05
4.88317e-05
4.88321e-05
4.88324e-05
4.88328e-05
4.88332e-05
4.88336e-05
4.8834e-05
4.88344e-05
4.88347e-05
4.88351e-05
4.88354e-05
4.88357e-05
4.8836e-05
4.88364e-05
4.88367e-05
4.8837e-05
4.88372e-05
4.88375e-05
4.88378e-05
4.8838e-05
4.88382e-05
4.88385e-05
4.88387e-05
4.88389e-05
4.8839e-05
4.88392e-05
4.88393e-05
4.88393e-05
4.88393e-05
4.88394e-05
4.88394e-05
4.88395e-05
4.88396e-05
4.88397e-05
4.88398e-05
4.88399e-05
4.884e-05
4.88401e-05
4.88402e-05
4.88402e-05
4.88402e-05
4.88402e-05
4.88401e-05
4.88401e-05
4.884e-05
4.88398e-05
4.88397e-05
4.88396e-05
4.88394e-05
4.88393e-05
4.88391e-05
4.8839e-05
4.88388e-05
4.88386e-05
4.88385e-05
4.88383e-05
4.88382e-05
4.8838e-05
4.88379e-05
4.88377e-05
4.88376e-05
4.88374e-05
4.88373e-05
4.88371e-05
4.8837e-05
4.88369e-05
4.88367e-05
4.88366e-05
4.88364e-05
4.88363e-05
4.88362e-05
4.8836e-05
4.88359e-05
4.88357e-05
4.88356e-05
4.88354e-05
4.88353e-05
4.88351e-05
4.8835e-05
4.88349e-05
4.88348e-05
4.88347e-05
4.88346e-05
4.88346e-05
4.88345e-05
4.88344e-05
4.88343e-05
4.88342e-05
4.88341e-05
4.88341e-05
4.88341e-05
4.88341e-05
4.88342e-05
4.88343e-05
4.88343e-05
4.88344e-05
4.88345e-05
4.88346e-05
4.88347e-05
4.88348e-05
4.88345e-05
4.88358e-05
5.69791e-05
5.6977e-05
5.69764e-05
5.69763e-05
5.69763e-05
5.69764e-05
5.69768e-05
5.69772e-05
5.69777e-05
5.69781e-05
5.69784e-05
5.69787e-05
5.69791e-05
5.69794e-05
5.69799e-05
5.69804e-05
5.69809e-05
5.69814e-05
5.69819e-05
5.69823e-05
5.69827e-05
5.69831e-05
5.69836e-05
5.69841e-05
5.69846e-05
5.6985e-05
5.69854e-05
5.69858e-05
5.69862e-05
5.69866e-05
5.6987e-05
5.69874e-05
5.69877e-05
5.69881e-05
5.69884e-05
5.69887e-05
5.6989e-05
5.69893e-05
5.69896e-05
5.69899e-05
5.69902e-05
5.69904e-05
5.69906e-05
5.69908e-05
5.69909e-05
5.6991e-05
5.6991e-05
5.69911e-05
5.69911e-05
5.69912e-05
5.69913e-05
5.69915e-05
5.69916e-05
5.69917e-05
5.69918e-05
5.69919e-05
5.6992e-05
5.6992e-05
5.6992e-05
5.69919e-05
5.69918e-05
5.69917e-05
5.69916e-05
5.69915e-05
5.69913e-05
5.69912e-05
5.6991e-05
5.69908e-05
5.69906e-05
5.69904e-05
5.69902e-05
5.69901e-05
5.69899e-05
5.69897e-05
5.69895e-05
5.69893e-05
5.69891e-05
5.6989e-05
5.69888e-05
5.69886e-05
5.69885e-05
5.69883e-05
5.69881e-05
5.6988e-05
5.69878e-05
5.69876e-05
5.69875e-05
5.69873e-05
5.69871e-05
5.69869e-05
5.69868e-05
5.69866e-05
5.69864e-05
5.69862e-05
5.69861e-05
5.69859e-05
5.69858e-05
5.69856e-05
5.69855e-05
5.69854e-05
5.69854e-05
5.69853e-05
5.69852e-05
5.69851e-05
5.6985e-05
5.69849e-05
5.69848e-05
5.69848e-05
5.69848e-05
5.69849e-05
5.69849e-05
5.6985e-05
5.69851e-05
5.69852e-05
5.69853e-05
5.69854e-05
5.69854e-05
5.69856e-05
5.69853e-05
5.69869e-05
6.54073e-05
6.54049e-05
6.54042e-05
6.5404e-05
6.54041e-05
6.54043e-05
6.54046e-05
6.54052e-05
6.54057e-05
6.54062e-05
6.54066e-05
6.5407e-05
6.54074e-05
6.54078e-05
6.54084e-05
6.5409e-05
6.54096e-05
6.54101e-05
6.54107e-05
6.54112e-05
6.54117e-05
6.54122e-05
6.54127e-05
6.54132e-05
6.54138e-05
6.54143e-05
6.54148e-05
6.54153e-05
6.54157e-05
6.54162e-05
6.54166e-05
6.54171e-05
6.54175e-05
6.5418e-05
6.54183e-05
6.54187e-05
6.54191e-05
6.54194e-05
6.54198e-05
6.54201e-05
6.54204e-05
6.54207e-05
6.54209e-05
6.54211e-05
6.54213e-05
6.54214e-05
6.54215e-05
6.54216e-05
6.54217e-05
6.54218e-05
6.54219e-05
6.5422e-05
6.54222e-05
6.54223e-05
6.54224e-05
6.54225e-05
6.54225e-05
6.54225e-05
6.54225e-05
6.54224e-05
6.54223e-05
6.54222e-05
6.5422e-05
6.54219e-05
6.54217e-05
6.54215e-05
6.54213e-05
6.5421e-05
6.54208e-05
6.54206e-05
6.54204e-05
6.54202e-05
6.542e-05
6.54197e-05
6.54195e-05
6.54193e-05
6.54191e-05
6.54189e-05
6.54187e-05
6.54185e-05
6.54183e-05
6.54181e-05
6.54179e-05
6.54177e-05
6.54175e-05
6.54173e-05
6.54171e-05
6.54169e-05
6.54167e-05
6.54165e-05
6.54163e-05
6.54161e-05
6.54159e-05
6.54157e-05
6.54155e-05
6.54153e-05
6.54152e-05
6.54151e-05
6.5415e-05
6.54149e-05
6.54148e-05
6.54147e-05
6.54147e-05
6.54146e-05
6.54145e-05
6.54144e-05
6.54143e-05
6.54143e-05
6.54143e-05
6.54143e-05
6.54144e-05
6.54145e-05
6.54146e-05
6.54147e-05
6.54148e-05
6.54149e-05
6.5415e-05
6.54151e-05
6.54148e-05
6.54167e-05
7.40874e-05
7.40846e-05
7.40838e-05
7.40836e-05
7.40836e-05
7.40839e-05
7.40843e-05
7.40849e-05
7.40855e-05
7.40861e-05
7.40866e-05
7.40871e-05
7.40875e-05
7.4088e-05
7.40887e-05
7.40893e-05
7.409e-05
7.40907e-05
7.40913e-05
7.40919e-05
7.40924e-05
7.4093e-05
7.40936e-05
7.40943e-05
7.40949e-05
7.40955e-05
7.40961e-05
7.40966e-05
7.40971e-05
7.40976e-05
7.40982e-05
7.40987e-05
7.40992e-05
7.40997e-05
7.41001e-05
7.41006e-05
7.4101e-05
7.41014e-05
7.41018e-05
7.41022e-05
7.41025e-05
7.41029e-05
7.41032e-05
7.41034e-05
7.41036e-05
7.41038e-05
7.41039e-05
7.4104e-05
7.41041e-05
7.41042e-05
7.41044e-05
7.41045e-05
7.41047e-05
7.41048e-05
7.41049e-05
7.4105e-05
7.4105e-05
7.4105e-05
7.41049e-05
7.41048e-05
7.41046e-05
7.41045e-05
7.41043e-05
7.41041e-05
7.41038e-05
7.41036e-05
7.41033e-05
7.41031e-05
7.41028e-05
7.41026e-05
7.41023e-05
7.41021e-05
7.41019e-05
7.41016e-05
7.41014e-05
7.41011e-05
7.41009e-05
7.41007e-05
7.41004e-05
7.41002e-05
7.41e-05
7.40998e-05
7.40995e-05
7.40993e-05
7.40991e-05
7.40989e-05
7.40986e-05
7.40984e-05
7.40981e-05
7.40979e-05
7.40977e-05
7.40974e-05
7.40972e-05
7.4097e-05
7.40967e-05
7.40966e-05
7.40964e-05
7.40963e-05
7.40962e-05
7.40961e-05
7.40961e-05
7.4096e-05
7.4096e-05
7.40959e-05
7.40958e-05
7.40957e-05
7.40957e-05
7.40957e-05
7.40957e-05
7.40957e-05
7.40958e-05
7.40958e-05
7.40959e-05
7.4096e-05
7.40962e-05
7.40963e-05
7.40964e-05
7.40966e-05
7.40962e-05
7.40985e-05
8.29991e-05
8.29959e-05
8.2995e-05
8.29949e-05
8.29949e-05
8.29952e-05
8.29957e-05
8.29963e-05
8.2997e-05
8.29977e-05
8.29983e-05
8.29988e-05
8.29993e-05
8.29999e-05
8.30006e-05
8.30014e-05
8.30022e-05
8.30029e-05
8.30036e-05
8.30043e-05
8.30049e-05
8.30056e-05
8.30063e-05
8.3007e-05
8.30077e-05
8.30084e-05
8.3009e-05
8.30096e-05
8.30102e-05
8.30108e-05
8.30114e-05
8.3012e-05
8.30126e-05
8.30131e-05
8.30137e-05
8.30142e-05
8.30146e-05
8.30151e-05
8.30156e-05
8.3016e-05
8.30164e-05
8.30168e-05
8.30172e-05
8.30175e-05
8.30177e-05
8.30179e-05
8.3018e-05
8.30182e-05
8.30183e-05
8.30185e-05
8.30186e-05
8.30188e-05
8.3019e-05
8.30191e-05
8.30192e-05
8.30192e-05
8.30192e-05
8.30191e-05
8.3019e-05
8.30188e-05
8.30186e-05
8.30184e-05
8.30182e-05
8.30179e-05
8.30176e-05
8.30173e-05
8.30171e-05
8.30168e-05
8.30165e-05
8.30162e-05
8.30159e-05
8.30156e-05
8.30153e-05
8.30151e-05
8.30148e-05
8.30145e-05
8.30143e-05
8.3014e-05
8.30137e-05
8.30135e-05
8.30132e-05
8.3013e-05
8.30127e-05
8.30125e-05
8.30122e-05
8.30119e-05
8.30117e-05
8.30114e-05
8.30111e-05
8.30108e-05
8.30106e-05
8.30103e-05
8.301e-05
8.30098e-05
8.30096e-05
8.30094e-05
8.30092e-05
8.30091e-05
8.3009e-05
8.3009e-05
8.3009e-05
8.3009e-05
8.3009e-05
8.30089e-05
8.30089e-05
8.30088e-05
8.30087e-05
8.30087e-05
8.30087e-05
8.30088e-05
8.30089e-05
8.3009e-05
8.30091e-05
8.30092e-05
8.30093e-05
8.30094e-05
8.30095e-05
8.30098e-05
8.30093e-05
8.3012e-05
9.21275e-05
9.21239e-05
9.2123e-05
9.21228e-05
9.21229e-05
9.21232e-05
9.21237e-05
9.21245e-05
9.21252e-05
9.2126e-05
9.21266e-05
9.21272e-05
9.21279e-05
9.21285e-05
9.21293e-05
9.21301e-05
9.2131e-05
9.21319e-05
9.21327e-05
9.21334e-05
9.21341e-05
9.21348e-05
9.21356e-05
9.21364e-05
9.21372e-05
9.2138e-05
9.21387e-05
9.21394e-05
9.21401e-05
9.21407e-05
9.21414e-05
9.21421e-05
9.21427e-05
9.21433e-05
9.21439e-05
9.21445e-05
9.2145e-05
9.21456e-05
9.21461e-05
9.21466e-05
9.21471e-05
9.21475e-05
9.21479e-05
9.21483e-05
9.21486e-05
9.21488e-05
9.2149e-05
9.21492e-05
9.21493e-05
9.21495e-05
9.21497e-05
9.21499e-05
9.215e-05
9.21501e-05
9.21502e-05
9.21502e-05
9.21501e-05
9.21499e-05
9.21497e-05
9.21495e-05
9.21492e-05
9.2149e-05
9.21486e-05
9.21483e-05
9.2148e-05
9.21477e-05
9.21473e-05
9.2147e-05
9.21467e-05
9.21464e-05
9.2146e-05
9.21457e-05
9.21454e-05
9.21451e-05
9.21448e-05
9.21445e-05
9.21442e-05
9.21439e-05
9.21436e-05
9.21433e-05
9.2143e-05
9.21427e-05
9.21424e-05
9.21421e-05
9.21418e-05
9.21415e-05
9.21412e-05
9.21409e-05
9.21406e-05
9.21403e-05
9.214e-05
9.21397e-05
9.21394e-05
9.21391e-05
9.21389e-05
9.21387e-05
9.21386e-05
9.21386e-05
9.21385e-05
9.21385e-05
9.21386e-05
9.21386e-05
9.21386e-05
9.21386e-05
9.21386e-05
9.21386e-05
9.21385e-05
9.21385e-05
9.21386e-05
9.21386e-05
9.21387e-05
9.21388e-05
9.21389e-05
9.2139e-05
9.21392e-05
9.21393e-05
9.21394e-05
9.21397e-05
9.21392e-05
9.21423e-05
0.000101462
0.000101458
0.000101457
0.000101457
0.000101457
0.000101457
0.000101458
0.000101458
0.000101459
0.00010146
0.000101461
0.000101462
0.000101462
0.000101463
0.000101464
0.000101465
0.000101466
0.000101467
0.000101468
0.000101468
0.000101469
0.00010147
0.000101471
0.000101472
0.000101473
0.000101473
0.000101474
0.000101475
0.000101476
0.000101477
0.000101477
0.000101478
0.000101479
0.000101479
0.00010148
0.000101481
0.000101481
0.000101482
0.000101482
0.000101483
0.000101484
0.000101484
0.000101485
0.000101485
0.000101485
0.000101486
0.000101486
0.000101486
0.000101486
0.000101486
0.000101487
0.000101487
0.000101487
0.000101487
0.000101487
0.000101487
0.000101487
0.000101486
0.000101486
0.000101486
0.000101486
0.000101485
0.000101485
0.000101484
0.000101484
0.000101484
0.000101483
0.000101483
0.000101482
0.000101482
0.000101482
0.000101481
0.000101481
0.000101481
0.00010148
0.00010148
0.00010148
0.000101479
0.000101479
0.000101479
0.000101478
0.000101478
0.000101478
0.000101477
0.000101477
0.000101477
0.000101476
0.000101476
0.000101476
0.000101475
0.000101475
0.000101475
0.000101474
0.000101474
0.000101474
0.000101474
0.000101474
0.000101474
0.000101474
0.000101474
0.000101474
0.000101474
0.000101474
0.000101474
0.000101474
0.000101474
0.000101474
0.000101474
0.000101474
0.000101474
0.000101474
0.000101474
0.000101475
0.000101475
0.000101475
0.000101475
0.000101475
0.000101475
0.000101475
0.000101478
0.000110994
0.00011099
0.000110989
0.000110989
0.000110989
0.000110989
0.00011099
0.000110991
0.000110992
0.000110993
0.000110993
0.000110994
0.000110995
0.000110996
0.000110997
0.000110998
0.000110999
0.000111
0.000111001
0.000111002
0.000111003
0.000111003
0.000111004
0.000111005
0.000111006
0.000111007
0.000111008
0.000111009
0.00011101
0.000111011
0.000111011
0.000111012
0.000111013
0.000111014
0.000111015
0.000111015
0.000111016
0.000111017
0.000111017
0.000111018
0.000111018
0.000111019
0.00011102
0.00011102
0.00011102
0.000111021
0.000111021
0.000111021
0.000111021
0.000111022
0.000111022
0.000111022
0.000111022
0.000111022
0.000111022
0.000111022
0.000111021
0.000111021
0.000111021
0.00011102
0.00011102
0.000111019
0.000111019
0.000111018
0.000111018
0.000111018