/*--------------------------------*- C++ -*----------------------------------*\
  =========                 |
  \\      /  F ield         | OpenFOAM: The Open Source CFD Toolbox
   \\    /   O peration     | Website:  https://openfoam.org
    \\  /    A nd           | Version:  7
     \\/     M anipulation  |
\*---------------------------------------------------------------------------*/
FoamFile
{
    version     2.0;
    format      ascii;
    class       volScalarField;
    location    "2500";
    object      omega;
}
// * * * * * * * * * * * * * * * * * * * * * * * * * * * * * * * * * * * * * //

dimensions      [0 0 -1 0 0 0 0];

internalField   nonuniform List<scalar> 
24000
(
999.269
999.269
999.269
999.269
999.269
999.269
999.269
999.269
999.269
999.269
999.269
999.269
999.269
999.269
999.269
999.269
999.269
999.269
999.269
999.269
999.269
999.269
999.269
999.269
999.269
999.269
999.269
999.269
999.269
999.269
999.269
999.269
999.269
999.269
999.269
999.269
999.269
999.269
999.269
999.269
999.269
999.269
999.269
999.269
999.269
999.269
999.269
999.269
999.269
999.269
999.269
999.269
999.269
999.269
999.269
999.269
999.269
999.269
999.269
999.269
999.269
999.269
999.269
999.269
999.269
999.269
999.269
999.269
999.269
999.269
999.269
999.269
999.269
999.269
999.269
999.269
999.269
999.269
999.269
999.269
999.269
999.269
999.269
999.269
999.269
999.269
999.269
999.269
999.269
999.269
999.269
999.269
999.269
999.269
999.269
999.269
999.269
999.269
999.269
999.269
999.269
999.269
999.269
999.269
999.269
999.269
999.269
999.269
999.269
999.269
999.269
999.269
999.269
999.269
999.269
999.269
999.269
999.269
999.269
999.269
173.152
173.152
173.152
173.152
173.152
173.152
173.152
173.152
173.152
173.152
173.152
173.152
173.152
173.152
173.152
173.152
173.152
173.152
173.152
173.152
173.152
173.152
173.152
173.152
173.152
173.152
173.152
173.152
173.152
173.152
173.152
173.152
173.152
173.152
173.152
173.152
173.152
173.152
173.152
173.152
173.152
173.152
173.152
173.152
173.152
173.152
173.152
173.152
173.152
173.152
173.152
173.152
173.152
173.152
173.152
173.152
173.152
173.152
173.152
173.152
173.152
173.152
173.152
173.152
173.152
173.152
173.152
173.152
173.152
173.152
173.152
173.152
173.152
173.152
173.152
173.152
173.152
173.152
173.152
173.152
173.152
173.152
173.152
173.152
173.152
173.152
173.152
173.152
173.152
173.152
173.152
173.152
173.152
173.152
173.152
173.152
173.152
173.152
173.152
173.152
173.152
173.152
173.152
173.152
173.152
173.152
173.152
173.152
173.152
173.152
173.152
173.152
173.152
173.152
173.152
173.152
173.152
173.152
173.152
173.152
58.7432
58.7432
58.7432
58.7432
58.7432
58.7432
58.7432
58.7432
58.7432
58.7432
58.7432
58.7432
58.7432
58.7432
58.7432
58.7432
58.7432
58.7432
58.7432
58.7432
58.7432
58.7432
58.7432
58.7432
58.7432
58.7432
58.7432
58.7432
58.7432
58.7432
58.7432
58.7432
58.7432
58.7432
58.7432
58.7432
58.7432
58.7432
58.7432
58.7432
58.7432
58.7432
58.7432
58.7432
58.7432
58.7432
58.7432
58.7432
58.7432
58.7432
58.7432
58.7432
58.7432
58.7432
58.7432
58.7432
58.7432
58.7432
58.7432
58.7432
58.7432
58.7432
58.7432
58.7432
58.7432
58.7432
58.7432
58.7432
58.7432
58.7432
58.7432
58.7432
58.7432
58.7432
58.7432
58.7432
58.7432
58.7432
58.7432
58.7432
58.7432
58.7432
58.7432
58.7432
58.7432
58.7432
58.7432
58.7432
58.7432
58.7432
58.7432
58.7432
58.7432
58.7432
58.7432
58.7432
58.7432
58.7432
58.7432
58.7432
58.7432
58.7432
58.7432
58.7432
58.7432
58.7432
58.7432
58.7432
58.7432
58.7432
58.7432
58.7432
58.7432
58.7432
58.7432
58.7432
58.7432
58.7432
58.7432
58.7432
28.3081
28.3081
28.308
28.308
28.308
28.308
28.308
28.308
28.308
28.308
28.308
28.308
28.308
28.308
28.308
28.308
28.308
28.308
28.308
28.308
28.308
28.308
28.308
28.308
28.308
28.308
28.308
28.308
28.308
28.308
28.308
28.308
28.308
28.308
28.3081
28.3081
28.3081
28.3081
28.3081
28.3081
28.3081
28.3081
28.3081
28.3081
28.3081
28.3081
28.3081
28.3081
28.3081
28.3081
28.3081
28.3081
28.3081
28.3081
28.3081
28.3081
28.3081
28.3081
28.3081
28.3081
28.3081
28.3081
28.3081
28.3081
28.3081
28.3081
28.3081
28.3081
28.3081
28.3081
28.3081
28.3081
28.3081
28.3081
28.3081
28.3081
28.3081
28.3081
28.3081
28.3081
28.3081
28.3081
28.3081
28.3081
28.3081
28.3081
28.3081
28.3081
28.3081
28.3081
28.3081
28.3081
28.3081
28.3081
28.3081
28.3081
28.3081
28.3081
28.3081
28.3081
28.3081
28.3081
28.3081
28.3081
28.3081
28.3081
28.3081
28.3081
28.3081
28.3081
28.3081
28.3081
28.3081
28.3081
28.3081
28.3081
28.3081
28.3081
28.3081
28.3081
16.9335
16.9335
16.9334
16.9334
16.9334
16.9334
16.9334
16.9334
16.9334
16.9334
16.9333
16.9333
16.9333
16.9333
16.9333
16.9333
16.9333
16.9333
16.9333
16.9333
16.9333
16.9333
16.9334
16.9334
16.9334
16.9334
16.9334
16.9334
16.9334
16.9334
16.9334
16.9334
16.9334
16.9334
16.9334
16.9334
16.9334
16.9334
16.9334
16.9334
16.9334
16.9334
16.9335
16.9335
16.9335
16.9335
16.9335
16.9335
16.9335
16.9335
16.9335
16.9335
16.9335
16.9335
16.9335
16.9335
16.9335
16.9335
16.9335
16.9335
16.9335
16.9335
16.9335
16.9335
16.9335
16.9335
16.9335
16.9335
16.9335
16.9335
16.9335
16.9335
16.9335
16.9335
16.9335
16.9335
16.9335
16.9335
16.9335
16.9335
16.9335
16.9335
16.9335
16.9335
16.9335
16.9335
16.9335
16.9335
16.9335
16.9335
16.9335
16.9335
16.9335
16.9335
16.9335
16.9335
16.9335
16.9335
16.9335
16.9335
16.9335
16.9335
16.9335
16.9335
16.9335
16.9335
16.9334
16.9334
16.9334
16.9334
16.9334
16.9334
16.9334
16.9334
16.9334
16.9334
16.9334
16.9334
16.9334
16.9334
11.6783
11.6782
11.6781
11.6781
11.678
11.678
11.678
11.678
11.678
11.678
11.678
11.678
11.678
11.678
11.678
11.678
11.678
11.678
11.678
11.678
11.678
11.678
11.678
11.678
11.678
11.678
11.678
11.678
11.678
11.678
11.678
11.678
11.678
11.678
11.678
11.6781
11.6781
11.6781
11.6781
11.6781
11.6781
11.6781
11.6781
11.6781
11.6781
11.6781
11.6781
11.6781
11.6781
11.6781
11.6781
11.6781
11.6781
11.6781
11.6781
11.6781
11.6781
11.6781
11.6781
11.6781
11.6781
11.6781
11.6781
11.6781
11.6781
11.6781
11.6781
11.6781
11.6781
11.6781
11.6781
11.6781
11.6781
11.6781
11.6781
11.6781
11.6781
11.6781
11.6781
11.6781
11.6781
11.6781
11.6781
11.6781
11.6781
11.6781
11.6781
11.6781
11.6781
11.6781
11.6781
11.6781
11.6781
11.6781
11.6781
11.6781
11.6781
11.6781
11.6781
11.6781
11.6781
11.6781
11.6781
11.6781
11.6781
11.6781
11.6781
11.6781
11.6781
11.6781
11.6781
11.6781
11.6781
11.6781
11.6781
11.6781
11.6781
11.6781
11.6781
11.6781
8.80414
8.80406
8.80398
8.80393
8.80391
8.80389
8.80388
8.80388
8.80387
8.80387
8.80387
8.80386
8.80386
8.80386
8.80385
8.80385
8.80385
8.80385
8.80385
8.80385
8.80384
8.80384
8.80384
8.80385
8.80385
8.80385
8.80385
8.80385
8.80385
8.80385
8.80386
8.80386
8.80386
8.80386
8.80387
8.80387
8.80387
8.80388
8.80388
8.80388
8.80389
8.80389
8.8039
8.80391
8.80392
8.80393
8.80393
8.80393
8.80393
8.80393
8.80392
8.80392
8.80392
8.80392
8.80392
8.80392
8.80392
8.80392
8.80392
8.80393
8.80393
8.80393
8.80393
8.80393
8.80393
8.80393
8.80393
8.80394
8.80394
8.80394
8.80394
8.80394
8.80394
8.80394
8.80394
8.80394
8.80394
8.80394
8.80394
8.80394
8.80394
8.80394
8.80394
8.80394
8.80394
8.80394
8.80394
8.80394
8.80393
8.80393
8.80393
8.80393
8.80393
8.80393
8.80393
8.80393
8.80393
8.80393
8.80393
8.80393
8.80393
8.80393
8.80393
8.80394
8.80395
8.80394
8.80394
8.80393
8.80392
8.80392
8.80391
8.80391
8.80391
8.8039
8.8039
8.8039
8.8039
8.80391
8.80391
8.80391
6.99669
6.99663
6.99654
6.99649
6.99646
6.99644
6.99643
6.99642
6.99642
6.99641
6.99641
6.9964
6.9964
6.9964
6.99639
6.99639
6.99639
6.99638
6.99638
6.99638
6.99638
6.99637
6.99637
6.99637
6.99637
6.99637
6.99637
6.99637
6.99637
6.99637
6.99637
6.99637
6.99637
6.99637
6.99637
6.99637
6.99637
6.99638
6.99638
6.99638
6.99638
6.99639
6.99639
6.9964
6.99641
6.99642
6.99643
6.99643
6.99642
6.99642
6.99642
6.99641
6.99641
6.99641
6.99641
6.99641
6.99641
6.99641
6.99641
6.99641
6.99641
6.99641
6.99641
6.99641
6.99641
6.99642
6.99642
6.99642
6.99642
6.99642
6.99642
6.99642
6.99642
6.99642
6.99642
6.99642
6.99642
6.99642
6.99643
6.99643
6.99643
6.99643
6.99643
6.99643
6.99643
6.99643
6.99643
6.99643
6.99643
6.99643
6.99643
6.99643
6.99642
6.99642
6.99642
6.99642
6.99642
6.99642
6.99642
6.99642
6.99643
6.99643
6.99643
6.99644
6.99645
6.99645
6.99645
6.99644
6.99644
6.99643
6.99643
6.99642
6.99642
6.99641
6.99641
6.99641
6.99641
6.99641
6.99642
6.99641
5.74324
5.7432
5.74312
5.74307
5.74303
5.74301
5.743
5.74299
5.74298
5.74298
5.74297
5.74297
5.74296
5.74296
5.74296
5.74295
5.74295
5.74294
5.74294
5.74294
5.74293
5.74293
5.74293
5.74293
5.74292
5.74292
5.74292
5.74292
5.74292
5.74291
5.74291
5.74291
5.74291
5.74291
5.74291
5.74291
5.74291
5.74291
5.74291
5.74291
5.74291
5.74291
5.74292
5.74292
5.74293
5.74294
5.74295
5.74295
5.74295
5.74294
5.74294
5.74294
5.74293
5.74293
5.74293
5.74293
5.74293
5.74293
5.74293
5.74293
5.74293
5.74293
5.74293
5.74293
5.74293
5.74293
5.74293
5.74293
5.74293
5.74293
5.74293
5.74293
5.74294
5.74294
5.74294
5.74294
5.74294
5.74294
5.74294
5.74294
5.74294
5.74294
5.74294
5.74294
5.74295
5.74295
5.74295
5.74295
5.74295
5.74295
5.74295
5.74295
5.74295
5.74295
5.74295
5.74295
5.74295
5.74295
5.74295
5.74295
5.74295
5.74295
5.74296
5.74297
5.74297
5.74298
5.74298
5.74298
5.74297
5.74297
5.74296
5.74296
5.74295
5.74295
5.74295
5.74295
5.74295
5.74295
5.74296
5.74293
4.82053
4.82051
4.82044
4.82039
4.82035
4.82032
4.82031
4.8203
4.82029
4.82028
4.82028
4.82027
4.82027
4.82026
4.82026
4.82026
4.82025
4.82025
4.82024
4.82024
4.82024
4.82023
4.82023
4.82023
4.82022
4.82022
4.82022
4.82021
4.82021
4.82021
4.82021
4.8202
4.8202
4.8202
4.8202
4.8202
4.8202
4.82019
4.82019
4.82019
4.82019
4.82019
4.82019
4.8202
4.8202
4.82021
4.82022
4.82022
4.82022
4.82022
4.82022
4.82021
4.82021
4.82021
4.82021
4.8202
4.8202
4.8202
4.8202
4.8202
4.8202
4.8202
4.8202
4.8202
4.8202
4.8202
4.8202
4.8202
4.8202
4.8202
4.8202
4.8202
4.8202
4.8202
4.82021
4.82021
4.82021
4.82021
4.82021
4.82021
4.82021
4.82021
4.82021
4.82022
4.82022
4.82022
4.82022
4.82022
4.82022
4.82022
4.82022
4.82022
4.82022
4.82022
4.82022
4.82022
4.82022
4.82022
4.82022
4.82022
4.82023
4.82023
4.82023
4.82024
4.82025
4.82025
4.82026
4.82026
4.82025
4.82025
4.82025
4.82024
4.82024
4.82023
4.82023
4.82023
4.82023
4.82023
4.82024
4.82021
4.11577
4.11577
4.11571
4.11566
4.11562
4.11559
4.11557
4.11556
4.11555
4.11555
4.11554
4.11553
4.11553
4.11553
4.11552
4.11552
4.11551
4.11551
4.11551
4.1155
4.1155
4.11549
4.11549
4.11549
4.11548
4.11548
4.11548
4.11547
4.11547
4.11547
4.11546
4.11546
4.11546
4.11545
4.11545
4.11545
4.11545
4.11544
4.11544
4.11544
4.11544
4.11544
4.11544
4.11544
4.11545
4.11545
4.11546
4.11546
4.11546
4.11546
4.11546
4.11546
4.11545
4.11545
4.11545
4.11544
4.11544
4.11544
4.11544
4.11544
4.11544
4.11544
4.11544
4.11544
4.11544
4.11544
4.11544
4.11544
4.11544
4.11544
4.11544
4.11544
4.11544
4.11544
4.11544
4.11544
4.11544
4.11544
4.11545
4.11545
4.11545
4.11545
4.11545
4.11545
4.11545
4.11545
4.11545
4.11546
4.11546
4.11546
4.11546
4.11546
4.11546
4.11546
4.11546
4.11546
4.11546
4.11546
4.11546
4.11546
4.11546
4.11547
4.11547
4.11548
4.11549
4.11549
4.11549
4.1155
4.11549
4.11549
4.11549
4.11549
4.11548
4.11548
4.11548
4.11548
4.11547
4.11547
4.11549
4.11545
3.56352
3.56353
3.56348
3.56343
3.56339
3.56336
3.56334
3.56333
3.56332
3.56331
3.5633
3.5633
3.56329
3.56329
3.56329
3.56328
3.56328
3.56327
3.56327
3.56327
3.56326
3.56326
3.56325
3.56325
3.56325
3.56324
3.56324
3.56324
3.56323
3.56323
3.56322
3.56322
3.56322
3.56321
3.56321
3.56321
3.56321
3.5632
3.5632
3.5632
3.5632
3.5632
3.5632
3.5632
3.5632
3.5632
3.56321
3.56321
3.56321
3.56321
3.56321
3.56321
3.5632
3.5632
3.5632
3.5632
3.56319
3.56319
3.56319
3.56319
3.56319
3.56319
3.56319
3.56319
3.56319
3.56319
3.56318
3.56319
3.56319
3.56319
3.56319
3.56319
3.56319
3.56319
3.56319
3.56319
3.56319
3.56319
3.56319
3.56319
3.5632
3.5632
3.5632
3.5632
3.5632
3.5632
3.5632
3.5632
3.5632
3.5632
3.5632
3.56321
3.56321
3.56321
3.56321
3.56321
3.56321
3.56321
3.56321
3.56321
3.56321
3.56321
3.56322
3.56322
3.56323
3.56324
3.56324
3.56324
3.56324
3.56324
3.56324
3.56324
3.56323
3.56323
3.56323
3.56323
3.56323
3.56323
3.56324
3.56319
3.122
3.12201
3.12197
3.12193
3.12189
3.12186
3.12184
3.12183
3.12182
3.12181
3.1218
3.12179
3.12179
3.12178
3.12178
3.12178
3.12177
3.12177
3.12176
3.12176
3.12176
3.12175
3.12175
3.12175
3.12174
3.12174
3.12173
3.12173
3.12173
3.12172
3.12172
3.12172
3.12171
3.12171
3.12171
3.1217
3.1217
3.1217
3.12169
3.12169
3.12169
3.12169
3.12169
3.12169
3.12169
3.12169
3.1217
3.1217
3.1217
3.1217
3.1217
3.12169
3.12169
3.12169
3.12169
3.12168
3.12168
3.12168
3.12168
3.12168
3.12168
3.12167
3.12167
3.12167
3.12167
3.12167
3.12167
3.12167
3.12167
3.12167
3.12167
3.12167
3.12167
3.12167
3.12167
3.12168
3.12168
3.12168
3.12168
3.12168
3.12168
3.12168
3.12168
3.12168
3.12168
3.12168
3.12169
3.12169
3.12169
3.12169
3.12169
3.12169
3.12169
3.12169
3.12169
3.12169
3.12169
3.12169
3.12169
3.12169
3.1217
3.1217
3.1217
3.12171
3.12171
3.12172
3.12172
3.12172
3.12172
3.12172
3.12172
3.12172
3.12172
3.12172
3.12172
3.12171
3.12171
3.12171
3.12172
3.12168
2.76297
2.763
2.76296
2.76292
2.76289
2.76286
2.76284
2.76283
2.76281
2.76281
2.7628
2.76279
2.76279
2.76278
2.76278
2.76277
2.76277
2.76277
2.76276
2.76276
2.76275
2.76275
2.76275
2.76274
2.76274
2.76274
2.76273
2.76273
2.76273
2.76272
2.76272
2.76272
2.76271
2.76271
2.76271
2.7627
2.7627
2.7627
2.76269
2.76269
2.76269
2.76268
2.76268
2.76268
2.76268
2.76269
2.76269
2.76269
2.76269
2.76269
2.76269
2.76269
2.76268
2.76268
2.76268
2.76268
2.76268
2.76267
2.76267
2.76267
2.76267
2.76267
2.76267
2.76267
2.76267
2.76267
2.76267
2.76267
2.76267
2.76267
2.76267
2.76267
2.76267
2.76267
2.76267
2.76267
2.76267
2.76267
2.76267
2.76267
2.76267
2.76267
2.76267
2.76267
2.76268
2.76268
2.76268
2.76268
2.76268
2.76268
2.76268
2.76268
2.76268
2.76268
2.76268
2.76268
2.76268
2.76268
2.76268
2.76268
2.76269
2.76269
2.76269
2.76269
2.7627
2.7627
2.76271
2.76271
2.76271
2.76271
2.76271
2.76271
2.76271
2.76271
2.76271
2.7627
2.7627
2.7627
2.76271
2.76267
2.46668
2.46671
2.46668
2.46664
2.46661
2.46659
2.46657
2.46655
2.46654
2.46653
2.46652
2.46652
2.46651
2.46651
2.4665
2.4665
2.46649
2.46649
2.46649
2.46648
2.46648
2.46648
2.46647
2.46647
2.46647
2.46646
2.46646
2.46646
2.46645
2.46645
2.46645
2.46644
2.46644
2.46644
2.46643
2.46643
2.46643
2.46642
2.46642
2.46642
2.46641
2.46641
2.46641
2.46641
2.46641
2.46641
2.46641
2.46641
2.46641
2.46641
2.46641
2.46641
2.46641
2.46641
2.4664
2.4664
2.4664
2.4664
2.4664
2.4664
2.46639
2.46639
2.46639
2.46639
2.46639
2.46639
2.46639
2.46639
2.46639
2.46639
2.46639
2.46639
2.46639
2.46639
2.46639
2.46639
2.46639
2.46639
2.46639
2.46639
2.4664
2.4664
2.4664
2.4664
2.4664
2.4664
2.4664
2.4664
2.4664
2.4664
2.4664
2.4664
2.4664
2.4664
2.46641
2.46641
2.46641
2.46641
2.46641
2.46641
2.46641
2.46641
2.46641
2.46641
2.46642
2.46642
2.46642
2.46643
2.46643
2.46643
2.46643
2.46643
2.46643
2.46643
2.46642
2.46642
2.46642
2.46642
2.46643
2.46639
2.21891
2.21894
2.21892
2.21889
2.21886
2.21883
2.21882
2.2188
2.21879
2.21878
2.21877
2.21876
2.21876
2.21875
2.21875
2.21874
2.21874
2.21874
2.21873
2.21873
2.21873
2.21872
2.21872
2.21872
2.21872
2.21871
2.21871
2.21871
2.2187
2.2187
2.2187
2.21869
2.21869
2.21869
2.21868
2.21868
2.21868
2.21867
2.21867
2.21867
2.21866
2.21866
2.21866
2.21866
2.21866
2.21866
2.21866
2.21866
2.21866
2.21866
2.21866
2.21866
2.21865
2.21865
2.21865
2.21865
2.21865
2.21865
2.21865
2.21864
2.21864
2.21864
2.21864
2.21864
2.21864
2.21864
2.21864
2.21864
2.21864
2.21864
2.21864
2.21864
2.21864
2.21864
2.21864
2.21864
2.21864
2.21864
2.21864
2.21864
2.21864
2.21865
2.21865
2.21865
2.21865
2.21865
2.21865
2.21865
2.21865
2.21865
2.21865
2.21865
2.21865
2.21865
2.21865
2.21865
2.21865
2.21865
2.21865
2.21865
2.21865
2.21865
2.21866
2.21866
2.21866
2.21866
2.21867
2.21867
2.21867
2.21867
2.21867
2.21867
2.21867
2.21867
2.21867
2.21867
2.21867
2.21867
2.21868
2.21863
2.00925
2.00929
2.00927
2.00924
2.00921
2.00919
2.00917
2.00916
2.00914
2.00913
2.00913
2.00912
2.00911
2.00911
2.0091
2.0091
2.0091
2.00909
2.00909
2.00909
2.00908
2.00908
2.00908
2.00908
2.00907
2.00907
2.00907
2.00906
2.00906
2.00906
2.00905
2.00905
2.00905
2.00905
2.00904
2.00904
2.00904
2.00903
2.00903
2.00903
2.00902
2.00902
2.00902
2.00902
2.00902
2.00902
2.00902
2.00902
2.00902
2.00902
2.00901
2.00901
2.00901
2.00901
2.00901
2.00901
2.00901
2.00901
2.00901
2.009
2.009
2.009
2.009
2.009
2.009
2.009
2.009
2.009
2.009
2.009
2.009
2.009
2.009
2.009
2.009
2.009
2.009
2.009
2.00901
2.00901
2.00901
2.00901
2.00901
2.00901
2.00901
2.00901
2.00901
2.00901
2.00901
2.00901
2.00901
2.00901
2.00901
2.00901
2.00901
2.00901
2.00901
2.00901
2.00901
2.00901
2.00901
2.00901
2.00901
2.00901
2.00902
2.00902
2.00902
2.00902
2.00902
2.00902
2.00902
2.00902
2.00902
2.00902
2.00902
2.00902
2.00902
2.00902
2.00903
2.00899
1.82994
1.82997
1.82996
1.82993
1.82991
1.82989
1.82987
1.82986
1.82984
1.82983
1.82983
1.82982
1.82981
1.82981
1.8298
1.8298
1.8298
1.82979
1.82979
1.82979
1.82978
1.82978
1.82978
1.82978
1.82977
1.82977
1.82977
1.82977
1.82976
1.82976
1.82976
1.82976
1.82975
1.82975
1.82975
1.82974
1.82974
1.82974
1.82973
1.82973
1.82973
1.82973
1.82972
1.82972
1.82972
1.82972
1.82972
1.82972
1.82972
1.82972
1.82972
1.82972
1.82971
1.82971
1.82971
1.82971
1.82971
1.82971
1.82971
1.82971
1.82971
1.82971
1.82971
1.82971
1.82971
1.82971
1.82971
1.82971
1.82971
1.82971
1.82971
1.82971
1.82971
1.82971
1.82971
1.82971
1.82971
1.82971
1.82971
1.82971
1.82971
1.82971
1.82971
1.82972
1.82972
1.82972
1.82972
1.82972
1.82972
1.82972
1.82972
1.82972
1.82972
1.82972
1.82972
1.82972
1.82972
1.82972
1.82972
1.82972
1.82971
1.82971
1.82972
1.82972
1.82972
1.82972
1.82972
1.82972
1.82972
1.82972
1.82972
1.82972
1.82972
1.82972
1.82972
1.82972
1.82972
1.82972
1.82973
1.82969
1.67509
1.67512
1.67511
1.67509
1.67507
1.67505
1.67503
1.67502
1.67501
1.675
1.67499
1.67498
1.67498
1.67497
1.67497
1.67496
1.67496
1.67496
1.67496
1.67495
1.67495
1.67495
1.67494
1.67494
1.67494
1.67494
1.67493
1.67493
1.67493
1.67493
1.67492
1.67492
1.67492
1.67492
1.67491
1.67491
1.67491
1.67491
1.6749
1.6749
1.6749
1.67489
1.67489
1.67489
1.67489
1.67489
1.67489
1.67489
1.67489
1.67489
1.67489
1.67488
1.67488
1.67488
1.67488
1.67488
1.67488
1.67488
1.67488
1.67488
1.67488
1.67488
1.67488
1.67488
1.67488
1.67488
1.67488
1.67489
1.67489
1.67489
1.67489
1.67489
1.67489
1.67489
1.67489
1.67489
1.67489
1.67489
1.67489
1.67489
1.67489
1.67489
1.67489
1.67489
1.67489
1.67489
1.67489
1.67489
1.67489
1.67489
1.67489
1.67489
1.67489
1.67489
1.67489
1.67489
1.67489
1.67489
1.67489
1.67489
1.67488
1.67488
1.67488
1.67488
1.67489
1.67489
1.67489
1.67489
1.67489
1.67489
1.67489
1.67489
1.67489
1.67489
1.67489
1.67489
1.67489
1.67488
1.67489
1.67485
1.54019
1.54022
1.54021
1.54019
1.54017
1.54016
1.54014
1.54013
1.54012
1.54011
1.5401
1.5401
1.54009
1.54008
1.54008
1.54008
1.54007
1.54007
1.54007
1.54006
1.54006
1.54006
1.54006
1.54006
1.54005
1.54005
1.54005
1.54005
1.54004
1.54004
1.54004
1.54004
1.54003
1.54003
1.54003
1.54003
1.54002
1.54002
1.54002
1.54002
1.54001
1.54001
1.54001
1.54001
1.54001
1.54001
1.54001
1.54
1.54
1.54
1.54
1.54
1.54
1.54
1.54
1.54
1.54
1.54
1.54
1.54
1.54
1.54
1.54001
1.54001
1.54001
1.54001
1.54001
1.54001
1.54001
1.54001
1.54001
1.54001
1.54001
1.54001
1.54001
1.54001
1.54001
1.54001
1.54001
1.54001
1.54001
1.54001
1.54001
1.54001
1.54001
1.54001
1.54001
1.54001
1.54001
1.54001
1.54002
1.54001
1.54001
1.54001
1.54001
1.54001
1.54001
1.54001
1.54001
1.54
1.54
1.54
1.54
1.54
1.54
1.54
1.54
1.54
1.54
1.54
1.54
1.54
1.54
1.54
1.54
1.54
1.54
1.54
1.54001
1.53997
1.42173
1.42176
1.42175
1.42173
1.42172
1.4217
1.42169
1.42167
1.42166
1.42166
1.42165
1.42164
1.42164
1.42163
1.42163
1.42162
1.42162
1.42162
1.42161
1.42161
1.42161
1.42161
1.42161
1.4216
1.4216
1.4216
1.4216
1.4216
1.42159
1.42159
1.42159
1.42159
1.42158
1.42158
1.42158
1.42158
1.42158
1.42157
1.42157
1.42157
1.42157
1.42156
1.42156
1.42156
1.42156
1.42156
1.42156
1.42156
1.42155
1.42155
1.42155
1.42155
1.42155
1.42155
1.42155
1.42155
1.42156
1.42156
1.42156
1.42156
1.42156
1.42156
1.42156
1.42156
1.42157
1.42157
1.42157
1.42157
1.42157
1.42157
1.42157
1.42157
1.42157
1.42157
1.42157
1.42157
1.42157
1.42157
1.42157
1.42157
1.42157
1.42157
1.42157
1.42157
1.42157
1.42157
1.42157
1.42157
1.42157
1.42157
1.42157
1.42157
1.42157
1.42157
1.42157
1.42157
1.42157
1.42156
1.42156
1.42156
1.42156
1.42156
1.42155
1.42155
1.42155
1.42155
1.42155
1.42155
1.42155
1.42155
1.42155
1.42155
1.42155
1.42155
1.42155
1.42155
1.42155
1.42155
1.42156
1.42152
1.31694
1.31697
1.31696
1.31694
1.31693
1.31691
1.3169
1.31689
1.31688
1.31687
1.31686
1.31686
1.31685
1.31685
1.31684
1.31684
1.31684
1.31683
1.31683
1.31683
1.31683
1.31682
1.31682
1.31682
1.31682
1.31682
1.31682
1.31681
1.31681
1.31681
1.31681
1.31681
1.3168
1.3168
1.3168
1.3168
1.3168
1.31679
1.31679
1.31679
1.31679
1.31678
1.31678
1.31678
1.31678
1.31678
1.31678
1.31678
1.31678
1.31678
1.31677
1.31677
1.31677
1.31678
1.31678
1.31678
1.31678
1.31678
1.31679
1.31679
1.31679
1.31679
1.31679
1.31679
1.3168
1.3168
1.3168
1.3168
1.3168
1.3168
1.3168
1.3168
1.3168
1.3168
1.3168
1.3168
1.3168
1.3168
1.3168
1.3168
1.3168
1.3168
1.3168
1.3168
1.3168
1.3168
1.31681
1.31681
1.31681
1.31681
1.31681
1.3168
1.3168
1.3168
1.3168
1.3168
1.31679
1.31679
1.31679
1.31678
1.31678
1.31678
1.31678
1.31678
1.31678
1.31678
1.31678
1.31677
1.31677
1.31677
1.31677
1.31677
1.31677
1.31677
1.31677
1.31677
1.31677
1.31677
1.31678
1.31674
1.22361
1.22364
1.22364
1.22362
1.22361
1.2236
1.22358
1.22357
1.22356
1.22356
1.22355
1.22354
1.22354
1.22353
1.22353
1.22353
1.22352
1.22352
1.22352
1.22352
1.22351
1.22351
1.22351
1.22351
1.22351
1.2235
1.2235
1.2235
1.2235
1.2235
1.2235
1.22349
1.22349
1.22349
1.22349
1.22349
1.22348
1.22348
1.22348
1.22348
1.22348
1.22347
1.22347
1.22347
1.22347
1.22347
1.22347
1.22347
1.22347
1.22347
1.22347
1.22347
1.22347
1.22347
1.22347
1.22348
1.22348
1.22348
1.22348
1.22349
1.22349
1.22349
1.22349
1.2235
1.2235
1.2235
1.2235
1.2235
1.2235
1.2235
1.2235
1.2235
1.2235
1.2235
1.2235
1.2235
1.2235
1.2235
1.22351
1.22351
1.22351
1.22351
1.22351
1.22351
1.22351
1.22351
1.22351
1.22351
1.22351
1.22351
1.22351
1.22351
1.2235
1.2235
1.2235
1.22349
1.22349
1.22349
1.22348
1.22348
1.22348
1.22347
1.22347
1.22347
1.22347
1.22347
1.22347
1.22347
1.22347
1.22346
1.22346
1.22346
1.22346
1.22346
1.22346
1.22346
1.22346
1.22346
1.22347
1.22343
1.13999
1.14002
1.14001
1.14
1.13999
1.13998
1.13997
1.13996
1.13995
1.13994
1.13994
1.13993
1.13992
1.13992
1.13992
1.13991
1.13991
1.13991
1.13991
1.1399
1.1399
1.1399
1.1399
1.1399
1.13989
1.13989
1.13989
1.13989
1.13989
1.13989
1.13989
1.13988
1.13988
1.13988
1.13988
1.13988
1.13988
1.13987
1.13987
1.13987
1.13987
1.13987
1.13986
1.13986
1.13986
1.13986
1.13986
1.13986
1.13986
1.13986
1.13986
1.13986
1.13986
1.13987
1.13987
1.13988
1.13988
1.13988
1.13989
1.13989
1.13989
1.13989
1.1399
1.1399
1.1399
1.1399
1.1399
1.1399
1.1399
1.13991
1.13991
1.13991
1.13991
1.13991
1.13991
1.13991
1.13991
1.13991
1.13991
1.13991
1.13991
1.13991
1.13991
1.13991
1.13991
1.13991
1.13991
1.13991
1.13991
1.13991
1.13991
1.13991
1.1399
1.1399
1.1399
1.13989
1.13989
1.13988
1.13988
1.13988
1.13987
1.13987
1.13987
1.13987
1.13986
1.13986
1.13986
1.13986
1.13986
1.13986
1.13986
1.13986
1.13985
1.13985
1.13985
1.13985
1.13985
1.13985
1.13986
1.13983
1.06464
1.06466
1.06466
1.06465
1.06464
1.06463
1.06462
1.06461
1.0646
1.06459
1.06459
1.06458
1.06458
1.06457
1.06457
1.06457
1.06456
1.06456
1.06456
1.06456
1.06455
1.06455
1.06455
1.06455
1.06455
1.06455
1.06455
1.06454
1.06454
1.06454
1.06454
1.06454
1.06454
1.06454
1.06453
1.06453
1.06453
1.06453
1.06453
1.06453
1.06452
1.06452
1.06452
1.06452
1.06452
1.06452
1.06452
1.06452
1.06452
1.06452
1.06452
1.06452
1.06453
1.06453
1.06454
1.06454
1.06455
1.06455
1.06455
1.06456
1.06456
1.06456
1.06457
1.06457
1.06457
1.06457
1.06457
1.06457
1.06457
1.06458
1.06458
1.06458
1.06458
1.06458
1.06458
1.06458
1.06458
1.06458
1.06458
1.06458
1.06458
1.06458
1.06458
1.06458
1.06458
1.06458
1.06458
1.06458
1.06458
1.06458
1.06458
1.06458
1.06457
1.06457
1.06456
1.06456
1.06455
1.06455
1.06454
1.06454
1.06453
1.06453
1.06453
1.06453
1.06452
1.06452
1.06452
1.06452
1.06452
1.06452
1.06452
1.06451
1.06451
1.06451
1.06451
1.06451
1.06451
1.06451
1.06451
1.06449
0.996377
0.996399
0.996395
0.996386
0.996376
0.996367
0.996358
0.99635
0.996343
0.996337
0.996331
0.996326
0.996321
0.996317
0.996314
0.996311
0.996308
0.996306
0.996303
0.996302
0.9963
0.996298
0.996297
0.996295
0.996294
0.996293
0.996292
0.99629
0.996289
0.996288
0.996287
0.996286
0.996285
0.996283
0.996282
0.996281
0.99628
0.996278
0.996277
0.996275
0.996274
0.996272
0.996271
0.99627
0.996269
0.996269
0.996268
0.996268
0.996268
0.996269
0.996273
0.996278
0.996285
0.996291
0.996297
0.996303
0.996308
0.996313
0.996317
0.99632
0.996323
0.996326
0.996329
0.996331
0.996333
0.996335
0.996336
0.996338
0.996339
0.99634
0.996341
0.996342
0.996342
0.996343
0.996344
0.996344
0.996344
0.996345
0.996345
0.996346
0.996346
0.996346
0.996347
0.996347
0.996347
0.996348
0.996348
0.996349
0.996348
0.996345
0.996342
0.996337
0.996331
0.996325
0.996319
0.996313
0.996307
0.996302
0.996297
0.996292
0.996288
0.996284
0.996281
0.996279
0.996277
0.996275
0.996273
0.996272
0.99627
0.996269
0.996268
0.996267
0.996265
0.996264
0.996263
0.996262
0.996262
0.99626
0.996265
0.996241
0.93424
0.93426
0.934256
0.934248
0.934239
0.934231
0.934223
0.934216
0.934209
0.934204
0.934198
0.934194
0.93419
0.934186
0.934183
0.93418
0.934177
0.934175
0.934173
0.934171
0.934169
0.934168
0.934167
0.934165
0.934164
0.934163
0.934162
0.934161
0.93416
0.934159
0.934158
0.934157
0.934156
0.934155
0.934154
0.934153
0.934152
0.934151
0.934149
0.934148
0.934147
0.934146
0.934145
0.934144
0.934143
0.934143
0.934142
0.934142
0.934143
0.934146
0.934152
0.93416
0.934169
0.934177
0.934184
0.93419
0.934196
0.934201
0.934205
0.934209
0.934212
0.934215
0.934218
0.93422
0.934222
0.934224
0.934225
0.934227
0.934228
0.934229
0.93423
0.934231
0.934232
0.934233
0.934233
0.934234
0.934234
0.934235
0.934235
0.934236
0.934236
0.934236
0.934237
0.934237
0.934238
0.934238
0.934239
0.934239
0.934237
0.934233
0.934228
0.934221
0.934214
0.934206
0.934199
0.934192
0.934186
0.93418
0.934175
0.93417
0.934166
0.934162
0.934158
0.934156
0.934154
0.934152
0.93415
0.934149
0.934147
0.934146
0.934144
0.934143
0.934141
0.93414
0.934139
0.934138
0.934137
0.934136
0.93414
0.934118
0.877423
0.877441
0.877438
0.877431
0.877423
0.877415
0.877408
0.877402
0.877396
0.877391
0.877386
0.877382
0.877378
0.877374
0.877371
0.877368
0.877366
0.877364
0.877362
0.87736
0.877359
0.877358
0.877356
0.877355
0.877354
0.877353
0.877353
0.877352
0.877351
0.87735
0.877349
0.877349
0.877348
0.877347
0.877346
0.877345
0.877344
0.877343
0.877342
0.877341
0.87734
0.877339
0.877338
0.877337
0.877337
0.877337
0.877337
0.877337
0.877339
0.877344
0.877354
0.877366
0.877376
0.877386
0.877393
0.8774
0.877406
0.877411
0.877415
0.877419
0.877422
0.877425
0.877428
0.87743
0.877432
0.877434
0.877436
0.877437
0.877439
0.87744
0.877441
0.877442
0.877443
0.877444
0.877444
0.877445
0.877445
0.877446
0.877447
0.877447
0.877447
0.877448
0.877448
0.877449
0.877449
0.87745
0.877451
0.87745
0.877447
0.877441
0.877433
0.877424
0.877415
0.877406
0.877398
0.877391
0.877384
0.877378
0.877372
0.877367
0.877363
0.877359
0.877355
0.877353
0.877351
0.877349
0.877347
0.877346
0.877344
0.877342
0.877341
0.877339
0.877338
0.877336
0.877335
0.877334
0.877333
0.877331
0.877335
0.877315
0.825255
0.82527
0.825267
0.825261
0.825254
0.825247
0.825241
0.825235
0.82523
0.825225
0.825221
0.825217
0.825213
0.82521
0.825207
0.825205
0.825203
0.825201
0.825199
0.825198
0.825196
0.825195
0.825194
0.825193
0.825192
0.825192
0.825191
0.82519
0.82519
0.825189
0.825188
0.825188
0.825187
0.825187
0.825186
0.825185
0.825184
0.825184
0.825183
0.825182
0.825181
0.82518
0.82518
0.825179
0.825179
0.825179
0.825179
0.825181
0.825183
0.825194
0.825209
0.825223
0.825235
0.825245
0.825253
0.82526
0.825265
0.82527
0.825275
0.825278
0.825282
0.825285
0.825288
0.82529
0.825292
0.825294
0.825296
0.825297
0.825299
0.8253
0.825301
0.825302
0.825303
0.825304
0.825304
0.825305
0.825306
0.825306
0.825307
0.825308
0.825308
0.825309
0.825309
0.82531
0.82531
0.825311
0.825312
0.82531
0.825304
0.825295
0.825284
0.825273
0.825262
0.825253
0.825244
0.825236
0.825229
0.825223
0.825217
0.825212
0.825208
0.825204
0.8252
0.825198
0.825196
0.825194
0.825192
0.825191
0.825189
0.825187
0.825185
0.825183
0.825182
0.82518
0.825179
0.825177
0.825176
0.825175
0.825178
0.825161
0.777169
0.777182
0.777179
0.777173
0.777167
0.777161
0.777156
0.777151
0.777146
0.777142
0.777138
0.777135
0.777131
0.777129
0.777126
0.777124
0.777122
0.77712
0.777119
0.777117
0.777116
0.777115
0.777114
0.777114
0.777113
0.777112
0.777112
0.777111
0.777111
0.77711
0.77711
0.77711
0.777109
0.777109
0.777108
0.777108
0.777107
0.777107
0.777106
0.777105
0.777105
0.777104
0.777104
0.777103
0.777103
0.777104
0.777103
0.777107
0.777112
0.77713
0.777151
0.777168
0.77718
0.77719
0.777198
0.777204
0.777209
0.777214
0.777218
0.777222
0.777226
0.777228
0.777231
0.777233
0.777236
0.777238
0.777239
0.777241
0.777242
0.777244
0.777245
0.777246
0.777247
0.777248
0.777248
0.777249
0.77725
0.777251
0.777251
0.777252
0.777253
0.777253
0.777254
0.777254
0.777255
0.777255
0.777258
0.777251
0.777242
0.777229
0.777216
0.777202
0.77719
0.77718
0.777171
0.777163
0.777156
0.777149
0.777144
0.777139
0.777135
0.777131
0.777127
0.777125
0.777123
0.777121
0.77712
0.777118
0.777116
0.777114
0.777112
0.77711
0.777108
0.777106
0.777105
0.777103
0.777102
0.777101
0.777103
0.777089
0.732687
0.732698
0.732695
0.73269
0.732685
0.732679
0.732675
0.73267
0.732666
0.732662
0.732659
0.732656
0.732653
0.732651
0.732649
0.732647
0.732645
0.732643
0.732642
0.732641
0.73264
0.732639
0.732639
0.732638
0.732638
0.732637
0.732637
0.732636
0.732636
0.732636
0.732636
0.732635
0.732635
0.732635
0.732635
0.732634
0.732634
0.732634
0.732633
0.732633
0.732632
0.732632
0.732632