/*--------------------------------*- C++ -*----------------------------------*\
  =========                 |
  \\      /  F ield         | OpenFOAM: The Open Source CFD Toolbox
   \\    /   O peration     | Website:  https://openfoam.org
    \\  /    A nd           | Version:  7
     \\/     M anipulation  |
\*---------------------------------------------------------------------------*/
FoamFile
{
    version     2.0;
    format      ascii;
    class       surfaceScalarField;
    location    "2500";
    object      phi;
}
// * * * * * * * * * * * * * * * * * * * * * * * * * * * * * * * * * * * * * //

dimensions      [0 3 -1 0 0 0 0];

internalField   nonuniform List<scalar> 
47680
(
1.99041e-06
2.45266e-11
1.99042e-06
-1.49477e-11
1.99043e-06
-4.31559e-12
1.99042e-06
1.67248e-12
1.99042e-06
3.72402e-12
1.99041e-06
5.51647e-12
1.99041e-06
5.63354e-12
1.9904e-06
5.13565e-12
1.9904e-06
4.30199e-12
1.9904e-06
3.37783e-12
1.99039e-06
2.5156e-12
1.99039e-06
1.75545e-12
1.99039e-06
1.08362e-12
1.99039e-06
4.52816e-13
1.99039e-06
-1.78572e-13
1.99039e-06
-8.15588e-13
1.99039e-06
-1.42582e-12
1.99039e-06
-1.9652e-12
1.9904e-06
-2.40673e-12
1.9904e-06
-2.75567e-12
1.9904e-06
-3.04309e-12
1.99041e-06
-3.30789e-12
1.99041e-06
-3.57528e-12
1.99041e-06
-3.84777e-12
1.99042e-06
-4.10879e-12
1.99042e-06
-4.33798e-12
1.99043e-06
-4.52411e-12
1.99043e-06
-4.67434e-12
1.99044e-06
-4.80427e-12
1.99044e-06
-4.93573e-12
1.99045e-06
-5.0726e-12
1.99045e-06
-5.22155e-12
1.99046e-06
-5.35315e-12
1.99046e-06
-5.48675e-12
1.99047e-06
-5.55543e-12
1.99047e-06
-5.65695e-12
1.99048e-06
-5.59211e-12
1.99048e-06
-5.67462e-12
1.99049e-06
-5.24536e-12
1.9905e-06
-5.30836e-12
1.9905e-06
-3.823e-12
1.9905e-06
-3.89931e-12
1.9905e-06
1.64082e-14
1.9905e-06
1.81867e-13
1.9905e-06
5.98792e-12
1.99049e-06
8.94861e-12
1.99049e-06
1.06015e-12
1.99049e-06
1.46061e-13
1.99049e-06
-1.54754e-12
1.99049e-06
-2.38767e-12
1.99049e-06
-3.65899e-12
1.9905e-06
-3.77435e-12
1.9905e-06
-3.64021e-12
1.9905e-06
-3.43064e-12
1.99051e-06
-3.16628e-12
1.99051e-06
-2.92705e-12
1.99051e-06
-2.70979e-12
1.99052e-06
-2.51049e-12
1.99052e-06
-2.31713e-12
1.99052e-06
-2.11663e-12
1.99052e-06
-1.89993e-12
1.99052e-06
-1.6633e-12
1.99053e-06
-1.40903e-12
1.99053e-06
-1.1431e-12
1.99053e-06
-8.74033e-13
1.99053e-06
-6.10133e-13
1.99053e-06
-3.59086e-13
1.99053e-06
-1.26431e-13
1.99053e-06
8.29057e-14
1.99053e-06
2.66678e-13
1.99053e-06
4.23559e-13
1.99053e-06
5.53661e-13
1.99053e-06
6.5867e-13
1.99053e-06
7.40174e-13
1.99053e-06
8.01169e-13
1.99052e-06
8.4286e-13
1.99052e-06
8.69231e-13
1.99052e-06
8.78818e-13
1.99052e-06
8.79741e-13
1.99052e-06
8.62751e-13
1.99052e-06
8.53044e-13
1.99052e-06
8.15869e-13
1.99052e-06
8.29254e-13
1.99052e-06
7.77885e-13
1.99052e-06
8.66305e-13
1.99052e-06
8.12366e-13
1.99052e-06
8.53122e-13
1.99051e-06
5.55755e-13
1.99051e-06
2.27631e-13
1.99051e-06
1.49675e-13
1.99051e-06
-7.88013e-14
1.99051e-06
1.0687e-13
1.99051e-06
1.45802e-13
1.99051e-06
1.66184e-13
1.99051e-06
1.14484e-13
1.99051e-06
1.86173e-13
1.99051e-06
9.39334e-14
1.99051e-06
4.85246e-13
1.99051e-06
3.61751e-13
1.99051e-06
1.72118e-12
1.99051e-06
1.49852e-12
1.9905e-06
5.134e-12
1.9905e-06
5.08935e-12
1.99049e-06
1.03294e-11
1.99048e-06
1.31186e-11
1.99047e-06
3.97743e-12
1.99047e-06
2.62941e-12
1.99047e-06
9.08322e-13
1.99047e-06
-3.82742e-13
1.99047e-06
-8.3221e-13
1.99047e-06
-1.31388e-12
1.99047e-06
-1.38696e-12
1.99047e-06
-1.68027e-12
1.99047e-06
-1.1146e-12
1.99048e-06
-1.50857e-12
1.99048e-06
8.25423e-13
1.99048e-06
-7.74609e-14
1.99047e-06
7.34181e-12
1.99046e-06
6.4016e-12
3.1233e-11
6.1503e-06
9.05509e-11
6.15032e-06
-3.28244e-11
6.15033e-06
-1.28506e-11
6.15032e-06
8.6821e-12
6.15031e-06
1.61731e-11
6.15029e-06
2.18722e-11
6.15027e-06
2.2237e-11
6.15026e-06
2.02014e-11
6.15025e-06
1.69438e-11
6.15024e-06
1.33007e-11
6.15023e-06
9.82757e-12
6.15022e-06
6.70936e-12
6.15022e-06
3.93175e-12
6.15022e-06
1.35556e-12
6.15022e-06
-1.15732e-12
6.15022e-06
-3.63529e-12
6.15023e-06
-5.99202e-12
6.15023e-06
-8.0951e-12
6.15024e-06
-9.85705e-12
6.15025e-06
-1.12877e-11
6.15026e-06
-1.24826e-11
6.15027e-06
-1.35659e-11
6.15028e-06
-1.46243e-11
6.15029e-06
-1.56748e-11
6.15031e-06
-1.66732e-11
6.15032e-06
-1.75576e-11
6.15033e-06
-1.82927e-11
6.15035e-06
-1.88965e-11
6.15036e-06
-1.94203e-11
6.15038e-06
-1.99307e-11
6.15039e-06
-2.04532e-11
6.15041e-06
-2.09982e-11
6.15042e-06
-2.15032e-11
6.15044e-06
-2.19804e-11
6.15046e-06
-2.22958e-11
6.15047e-06
-2.26098e-11
6.15049e-06
-2.25248e-11
6.15051e-06
-2.26092e-11
6.15052e-06
-2.14241e-11
6.15054e-06
-2.10445e-11
6.15055e-06
-1.65637e-11
6.15056e-06
-1.54446e-11
6.15057e-06
-2.92904e-12
6.15057e-06
-2.34032e-13
6.15055e-06
1.9815e-11
6.15053e-06
3.05113e-11
6.15053e-06
6.48733e-12
6.15053e-06
5.26181e-13
6.15053e-06
-5.369e-12
6.15054e-06
-9.02014e-12
6.15055e-06
-1.35245e-11
6.15056e-06
-1.44449e-11
6.15057e-06
-1.41054e-11
6.15058e-06
-1.34001e-11
6.15059e-06
-1.24622e-11
6.1506e-06
-1.15662e-11
6.1506e-06
-1.07309e-11
6.15061e-06
-9.94211e-12
6.15062e-06
-9.15836e-12
6.15062e-06
-8.33522e-12
6.15063e-06
-7.4434e-12
6.15063e-06
-6.4726e-12
6.15064e-06
-5.43507e-12
6.15064e-06
-4.35665e-12
6.15064e-06
-3.27004e-12
6.15065e-06
-2.20861e-12
6.15065e-06
-1.20128e-12
6.15065e-06
-2.71424e-13
6.15065e-06
5.643e-13
6.15065e-06
1.29786e-12
6.15064e-06
1.92437e-12
6.15064e-06
2.44513e-12
6.15064e-06
2.86548e-12
6.15064e-06
3.19389e-12
6.15063e-06
3.44012e-12
6.15063e-06
3.61153e-12
6.15063e-06
3.72009e-12
6.15063e-06
3.76699e-12
6.15062e-06
3.77206e-12
6.15062e-06
3.72327e-12
6.15062e-06
3.6771e-12
6.15061e-06
3.56635e-12
6.15061e-06
3.58011e-12
6.15061e-06
3.44578e-12
6.15061e-06
3.70102e-12
6.1506e-06
3.58594e-12
6.1506e-06
3.68266e-12
6.1506e-06
2.69002e-12
6.1506e-06
1.53354e-12
6.1506e-06
1.10023e-12
6.1506e-06
3.54416e-13
6.1506e-06
8.56799e-13
6.15059e-06
1.06689e-12
6.15059e-06
1.12384e-12
6.15059e-06
1.02435e-12
6.15059e-06
1.16132e-12
6.15059e-06
1.03578e-12
6.15059e-06
2.06789e-12
6.15059e-06
2.16965e-12
6.15058e-06
6.15527e-12
6.15058e-06
6.61894e-12
6.15056e-06
1.80951e-11
6.15055e-06
1.97921e-11
6.15052e-06
3.7868e-11
6.15049e-06
4.75105e-11
6.15047e-06
1.91538e-11
6.15046e-06
1.12431e-11
6.15046e-06
4.79657e-12
6.15046e-06
-2.80427e-13
6.15046e-06
-2.50588e-12
6.15047e-06
-4.33101e-12
6.15047e-06
-5.05829e-12
6.15047e-06
-5.85093e-12
6.15048e-06
-4.65583e-12
6.15048e-06
-4.94872e-12
6.15048e-06
1.41236e-12
6.15048e-06
1.28169e-12
6.15046e-06
2.34613e-11
6.15044e-06
2.66307e-11
1.06888e-10
1.05917e-05
1.92833e-10
1.05917e-05
-3.44008e-11
1.05917e-05
-1.63318e-11
1.05917e-05
2.36383e-11
1.05917e-05
3.89557e-11
1.05917e-05
4.92823e-11
1.05916e-05
4.96557e-11
1.05916e-05
4.49747e-11
1.05916e-05
3.77294e-11
1.05916e-05
2.95855e-11
1.05916e-05
2.16893e-11
1.05916e-05
1.44986e-11
1.05916e-05
8.06358e-12
1.05916e-05
2.15994e-12
1.05916e-05
-3.47727e-12
1.05916e-05
-8.93896e-12
1.05916e-05
-1.41077e-11
1.05916e-05
-1.87608e-11
1.05916e-05
-2.27348e-11
1.05916e-05
-2.60297e-11
1.05916e-05
-2.88049e-11
1.05916e-05
-3.12864e-11
1.05917e-05
-3.36488e-11
1.05917e-05
-3.59473e-11
1.05917e-05
-3.81203e-11
1.05917e-05
-4.0062e-11
1.05918e-05
-4.17059e-11
1.05918e-05
-4.30739e-11
1.05918e-05
-4.42595e-11
1.05918e-05
-4.53819e-11
1.05919e-05
-4.65076e-11
1.05919e-05
-4.76547e-11
1.05919e-05
-4.87398e-11
1.05919e-05
-4.97413e-11
1.0592e-05
-5.04792e-11
1.0592e-05
-5.11e-11
1.0592e-05
-5.10792e-11
1.0592e-05
-5.10546e-11
1.05921e-05
-4.89541e-11
1.05921e-05
-4.75476e-11
1.05921e-05
-3.91559e-11
1.05921e-05
-3.53019e-11
1.05922e-05
-1.11327e-11
1.05922e-05
-2.92493e-12
1.05921e-05
3.75645e-11
1.05921e-05
6.03e-11
1.05921e-05
1.67981e-11
1.05921e-05
1.6041e-12
1.05921e-05
-1.0943e-11
1.05921e-05
-1.92829e-11
1.05921e-05
-2.87044e-11
1.05921e-05
-3.13469e-11
1.05922e-05
-3.09886e-11
1.05922e-05
-2.96412e-11
1.05922e-05
-2.77388e-11
1.05922e-05
-2.58369e-11
1.05922e-05
-2.40145e-11
1.05922e-05
-2.2248e-11
1.05922e-05
-2.04582e-11
1.05923e-05
-1.8558e-11
1.05923e-05
-1.64934e-11
1.05923e-05
-1.42531e-11
1.05923e-05
-1.1869e-11
1.05923e-05
-9.40227e-12
1.05923e-05
-6.92774e-12
1.05923e-05
-4.51906e-12
1.05923e-05
-2.23978e-12
1.05923e-05
-1.41603e-13
1.05923e-05
1.74132e-12
1.05923e-05
3.39138e-12
1.05923e-05
4.80132e-12
1.05923e-05
5.97388e-12
1.05923e-05
6.92181e-12
1.05923e-05
7.66392e-12
1.05923e-05
8.2218e-12
1.05923e-05
8.61409e-12
1.05923e-05
8.86395e-12
1.05922e-05
8.98194e-12
1.05922e-05
9.00092e-12
1.05922e-05
8.91539e-12
1.05922e-05
8.81031e-12
1.05922e-05
8.60539e-12
1.05922e-05
8.59906e-12
1.05922e-05
8.37607e-12
1.05922e-05
8.83648e-12
1.05922e-05
8.69249e-12
1.05922e-05
8.84868e-12
1.05922e-05
6.91395e-12
1.05922e-05
4.55689e-12
1.05922e-05
3.46265e-12
1.05922e-05
1.97551e-12
1.05922e-05
2.79897e-12
1.05922e-05
3.29229e-12
1.05922e-05
3.42432e-12
1.05922e-05
3.3119e-12
1.05922e-05
3.48493e-12
1.05922e-05
3.41483e-12
1.05922e-05
5.15385e-12
1.05922e-05
5.8785e-12
1.05922e-05
1.31357e-11
1.05922e-05
1.54239e-11
1.05921e-05
3.73071e-11
1.05921e-05
4.30943e-11
1.05921e-05
7.9452e-11
1.0592e-05
9.93974e-11
1.0592e-05
4.70475e-11
1.0592e-05
2.71952e-11
1.0592e-05
1.27883e-11
1.0592e-05
1.55598e-12
1.0592e-05
-4.05913e-12
1.0592e-05
-8.19876e-12
1.0592e-05
-1.0344e-11
1.0592e-05
-1.19032e-11
1.0592e-05
-1.03599e-11
1.0592e-05
-9.97272e-12
1.0592e-05
1.08314e-12
1.0592e-05
3.9388e-12
1.0592e-05
4.51025e-11
1.05919e-05
5.87247e-11
2.12786e-10
1.53111e-05
3.2634e-10
1.53111e-05
-7.48187e-12
1.53111e-05
-3.23811e-12
1.5311e-05
5.03563e-11
1.5311e-05
7.35701e-11
1.5311e-05
8.77905e-11
1.53109e-05
8.73909e-11
1.53109e-05
7.89283e-11
1.53109e-05
6.62188e-11
1.53108e-05
5.1853e-11
1.53108e-05
3.76848e-11
1.53108e-05
2.45993e-11
1.53108e-05
1.28449e-11
1.53108e-05
2.1902e-12
1.53108e-05
-7.75715e-12
1.53108e-05
-1.72205e-11
1.53108e-05
-2.614e-11
1.53108e-05
-3.42598e-11
1.53109e-05
-4.13429e-11
1.53109e-05
-4.73383e-11
1.53109e-05
-5.24212e-11
1.53109e-05
-5.68966e-11
1.5311e-05
-6.10421e-11
1.5311e-05
-6.49941e-11
1.5311e-05
-6.87182e-11
1.53111e-05
-7.20884e-11
1.53111e-05
-7.50011e-11
1.53111e-05
-7.74591e-11
1.53112e-05
-7.95767e-11
1.53112e-05
-8.15248e-11
1.53112e-05
-8.34258e-11
1.53113e-05
-8.53295e-11
1.53113e-05
-8.71543e-11
1.53113e-05
-8.88392e-11
1.53114e-05
-9.01555e-11
1.53114e-05
-9.11958e-11
1.53115e-05
-9.13024e-11
1.53115e-05
-9.11203e-11
1.53115e-05
-8.7944e-11
1.53116e-05
-8.51057e-11
1.53116e-05
-7.20822e-11
1.53116e-05
-6.42736e-11
1.53117e-05
-2.62771e-11
1.53117e-05
-9.83047e-12
1.53116e-05
5.56065e-11
1.53116e-05
9.42398e-11
1.53116e-05
3.0973e-11
1.53116e-05
3.80322e-12
1.53116e-05
-1.78409e-11
1.53116e-05
-3.24678e-11
1.53116e-05
-4.82898e-11
1.53117e-05
-5.36182e-11
1.53117e-05
-5.36705e-11
1.53117e-05
-5.17014e-11
1.53117e-05
-4.86786e-11
1.53117e-05
-4.55082e-11
1.53118e-05
-4.2375e-11
1.53118e-05
-3.92538e-11
1.53118e-05
-3.6027e-11
1.53118e-05
-3.25655e-11
1.53118e-05
-2.87957e-11
1.53118e-05
-2.47163e-11
1.53118e-05
-2.03949e-11
1.53118e-05
-1.59453e-11
1.53119e-05
-1.15012e-11
1.53119e-05
-7.19223e-12
1.53119e-05
-3.12839e-12
1.53119e-05
6.0218e-13
1.53119e-05
3.94323e-12
1.53118e-05
6.86696e-12
1.53118e-05
9.36309e-12
1.53118e-05
1.14394e-11
1.53118e-05
1.31194e-11
1.53118e-05
1.4437e-11
1.53118e-05
1.54296e-11
1.53118e-05
1.61319e-11
1.53118e-05
1.65829e-11
1.53118e-05
1.68087e-11
1.53118e-05
1.68574e-11
1.53118e-05
1.6736e-11
1.53118e-05
1.65623e-11
1.53118e-05
1.62488e-11
1.53118e-05
1.62101e-11
1.53118e-05
1.5897e-11
1.53117e-05
1.65911e-11
1.53117e-05
1.64577e-11
1.53117e-05
1.66911e-11
1.53117e-05
1.36865e-11
1.53117e-05
9.87774e-12
1.53117e-05
7.85817e-12
1.53117e-05
5.43204e-12
1.53117e-05
6.52617e-12
1.53117e-05
7.35867e-12
1.53117e-05
7.63065e-12
1.53117e-05
7.53843e-12
1.53117e-05
7.7489e-12
1.53117e-05
7.7551e-12
1.53117e-05
1.02415e-11
1.53117e-05
1.17778e-11
1.53117e-05
2.27157e-11
1.53116e-05
2.76248e-11
1.53116e-05
6.15657e-11
1.53116e-05
7.35321e-11
1.53115e-05
1.31935e-10
1.53115e-05
1.65175e-10
1.53114e-05
8.7357e-11
1.53114e-05
5.16387e-11
1.53114e-05
2.5886e-11
1.53114e-05
6.28446e-12
1.53114e-05
-4.44588e-12
1.53114e-05
-1.20401e-11
1.53114e-05
-1.64242e-11
1.53114e-05
-1.92567e-11
1.53114e-05
-1.76689e-11
1.53114e-05
-1.64728e-11
1.53114e-05
-1.95024e-13
1.53114e-05
7.00666e-12
1.53114e-05
7.03591e-11
1.53114e-05
9.90734e-11
3.37764e-10
2.02546e-05
4.85522e-10
2.02545e-05
5.40203e-11
2.02545e-05
3.51303e-11
2.02544e-05
9.27235e-11
2.02544e-05
1.20767e-10
2.02543e-05
1.36688e-10
2.02543e-05
1.3415e-10
2.02542e-05
1.20784e-10
2.02542e-05
1.01377e-10
2.02542e-05
7.93331e-11
2.02542e-05
5.72251e-11
2.02541e-05
3.64996e-11
2.02541e-05
1.77824e-11
2.02541e-05
9.84369e-13
2.02541e-05
-1.43645e-11
2.02542e-05
-2.86876e-11
2.02542e-05
-4.21168e-11
2.02542e-05
-5.44772e-11
2.02542e-05
-6.5493e-11
2.02542e-05
-7.50175e-11
2.02543e-05
-8.31564e-11
2.02543e-05
-9.02279e-11
2.02543e-05
-9.66047e-11
2.02544e-05
-1.02551e-10
2.02544e-05
-1.0813e-10
2.02545e-05
-1.13247e-10
2.02545e-05
-1.17766e-10
2.02545e-05
-1.21642e-10
2.02546e-05
-1.24968e-10
2.02546e-05
-1.27945e-10
2.02547e-05
-1.30761e-10
2.02547e-05
-1.33531e-10
2.02548e-05
-1.36206e-10
2.02548e-05
-1.38707e-10
2.02549e-05
-1.40737e-10
2.02549e-05
-1.42322e-10
2.0255e-05
-1.42621e-10
2.0255e-05
-1.42282e-10
2.02551e-05
-1.37909e-10
2.02551e-05
-1.33383e-10
2.02552e-05
-1.15245e-10
2.02552e-05
-1.02597e-10
2.02552e-05
-4.94314e-11
2.02553e-05
-2.25157e-11
2.02552e-05
7.09013e-11
2.02552e-05
1.28536e-10
2.02552e-05
4.72688e-11
2.02552e-05
7.08741e-12
2.02552e-05
-2.55374e-11
2.02552e-05
-4.77388e-11
2.02552e-05
-7.11594e-11
2.02553e-05
-8.00995e-11
2.02553e-05
-8.11554e-11
2.02553e-05
-7.87695e-11
2.02553e-05
-7.46243e-11
2.02554e-05
-7.0038e-11
2.02554e-05
-6.53399e-11
2.02554e-05
-6.05236e-11
2.02554e-05
-5.54404e-11
2.02554e-05
-4.99321e-11
2.02555e-05
-4.39216e-11
2.02555e-05
-3.7437e-11
2.02555e-05
-3.05998e-11
2.02555e-05
-2.35962e-11
2.02555e-05
-1.66328e-11
2.02555e-05
-9.90804e-12
2.02555e-05
-3.58773e-12
2.02555e-05
2.19809e-12
2.02555e-05
7.36955e-12
2.02555e-05
1.18874e-11
2.02555e-05
1.57408e-11
2.02555e-05
1.89471e-11
2.02555e-05
2.15438e-11
2.02555e-05
2.35831e-11
2.02554e-05
2.51228e-11
2.02554e-05
2.62188e-11
2.02554e-05
2.69299e-11
2.02554e-05
2.73019e-11
2.02554e-05
2.74032e-11
2.02554e-05
2.72569e-11
2.02554e-05
2.7017e-11
2.02554e-05
2.65918e-11
2.02554e-05
2.65191e-11
2.02554e-05
2.61234e-11
2.02553e-05
2.70742e-11
2.02553e-05
2.69954e-11
2.02553e-05
2.73366e-11
2.02553e-05
2.32302e-11
2.02553e-05
1.78417e-11
2.02553e-05
1.47024e-11
2.02553e-05
1.11805e-11
2.02553e-05
1.24628e-11
2.02553e-05
1.36397e-11
2.02553e-05
1.41149e-11
2.02553e-05
1.40726e-11
2.02553e-05
1.43314e-11
2.02553e-05
1.43856e-11
2.02552e-05
1.76036e-11
2.02552e-05
1.99715e-11
2.02552e-05
3.47378e-11
2.02552e-05
4.2731e-11
2.02552e-05
8.95524e-11
2.02551e-05
1.09316e-10
2.02551e-05
1.92104e-10
2.0255e-05
2.40925e-10
2.0255e-05
1.38456e-10
2.02549e-05
8.47743e-11
2.02549e-05
4.48079e-11
2.02549e-05
1.48594e-11
2.02549e-05
-2.65089e-12
2.02549e-05
-1.49137e-11
2.02549e-05
-2.24062e-11
2.02549e-05
-2.71784e-11
2.02549e-05
-2.59301e-11
2.02549e-05
-2.41221e-11
2.02549e-05
-2.36964e-12
2.02549e-05
9.84919e-12
2.02549e-05
9.74862e-11
2.02549e-05
1.44001e-10
4.73177e-10
2.5284e-05
6.64047e-10
2.52839e-05
1.4916e-10
2.52839e-05
1.0115e-10
2.52838e-05
1.51964e-10
2.52838e-05
1.79547e-10
2.52837e-05
1.93995e-10
2.52836e-05
1.87614e-10
2.52836e-05
1.6836e-10
2.52836e-05
1.41445e-10
2.52835e-05
1.10802e-10
2.52835e-05
7.96158e-11
2.52835e-05
4.99493e-11
2.52835e-05
2.29506e-11
2.52835e-05
-1.16008e-12
2.52835e-05
-2.28316e-11
2.52835e-05
-4.27064e-11
2.52835e-05
-6.1216e-11
2.52836e-05
-7.83908e-11
2.52836e-05
-9.39844e-11
2.52836e-05
-1.07736e-10
2.52836e-05
-1.19607e-10
2.52837e-05
-1.29844e-10
2.52837e-05
-1.38881e-10
2.52838e-05
-1.47131e-10
2.52838e-05
-1.54818e-10
2.52839e-05
-1.61939e-10
2.52839e-05
-1.68353e-10
2.5284e-05
-1.73947e-10
2.5284e-05
-1.78754e-10
2.52841e-05
-1.8297e-10
2.52841e-05
-1.86844e-10
2.52842e-05
-1.90582e-10
2.52843e-05
-1.94198e-10
2.52843e-05
-1.97627e-10
2.52844e-05
-2.00496e-10
2.52844e-05
-2.02757e-10
2.52845e-05
-2.03341e-10
2.52846e-05
-2.02904e-10
2.52846e-05
-1.9731e-10
2.52847e-05
-1.90994e-10
2.52847e-05
-1.67548e-10
2.52848e-05
-1.49554e-10
2.52848e-05
-8.06757e-11
2.52848e-05
-4.17849e-11
2.52848e-05
8.12821e-11
2.52848e-05
1.60199e-10
2.52848e-05
6.38604e-11
2.52848e-05
1.11709e-11
2.52848e-05
-3.33321e-11
2.52848e-05
-6.39562e-11
2.52848e-05
-9.58235e-11
2.52848e-05
-1.09197e-10
2.52849e-05
-1.11939e-10
2.52849e-05
-1.09521e-10
2.52849e-05
-1.04426e-10
2.5285e-05
-9.84193e-11
2.5285e-05
-9.20139e-11
2.5285e-05
-8.52434e-11
2.5285e-05
-7.79526e-11
2.5285e-05
-6.99775e-11
2.52851e-05
-6.12638e-11
2.52851e-05
-5.1892e-11
2.52851e-05
-4.20593e-11
2.52851e-05
-3.20367e-11
2.52851e-05
-2.21161e-11
2.52851e-05
-1.25713e-11
2.52851e-05
-3.62838e-12
2.52851e-05
4.54073e-12
2.52851e-05
1.18296e-11
2.52851e-05
1.8189e-11
2.52851e-05
2.36119e-11
2.52851e-05
2.81271e-11
2.52851e-05
3.17905e-11
2.52851e-05
3.46738e-11
2.5285e-05
3.68598e-11
2.5285e-05
3.84277e-11
2.5285e-05
3.94586e-11
2.5285e-05
4.00227e-11
2.5285e-05
4.02119e-11
2.5285e-05
4.00658e-11
2.5285e-05
3.97792e-11
2.5285e-05
3.92579e-11
2.52849e-05
3.91642e-11
2.52849e-05
3.87059e-11
2.52849e-05
3.99371e-11
2.52849e-05
3.99621e-11
2.52849e-05
4.04558e-11
2.52849e-05
3.52934e-11
2.52849e-05
2.83081e-11
2.52849e-05
2.394e-11
2.52849e-05
1.92173e-11
2.52848e-05
2.05905e-11
2.52848e-05
2.20775e-11
2.52848e-05
2.2791e-11
2.52848e-05
2.28149e-11
2.52848e-05
2.31166e-11
2.52848e-05
2.31507e-11
2.52848e-05
2.70075e-11
2.52848e-05
3.00941e-11
2.52848e-05
4.85814e-11
2.52848e-05
5.98018e-11
2.52847e-05
1.19617e-10
2.52847e-05
1.48181e-10
2.52846e-05
2.56476e-10
2.52845e-05
3.22501e-10
2.52845e-05
1.97667e-10
2.52844e-05
1.25703e-10
2.52844e-05
6.97511e-11
2.52844e-05
2.79414e-11
2.52844e-05
2.2314e-12
2.52844e-05
-1.58466e-11
2.52844e-05
-2.73203e-11
2.52844e-05
-3.47638e-11
2.52844e-05
-3.43519e-11
2.52844e-05
-3.23419e-11
2.52844e-05
-5.23767e-12
2.52844e-05
1.21073e-11
2.52844e-05
1.24896e-10
2.52844e-05
1.89858e-10
6.12212e-10
3.02093e-05
8.53742e-10
3.02092e-05
2.71271e-10
3.02091e-05
1.9106e-10
3.0209e-05
2.25969e-10
3.0209e-05
2.47336e-10
3.02089e-05
2.56971e-10
3.02088e-05
2.4507e-10
3.02088e-05
2.19178e-10
3.02088e-05
1.84399e-10
3.02087e-05
1.44868e-10
3.02087e-05
1.04198e-10
3.02087e-05
6.50168e-11
3.02087e-05
2.90339e-11
3.02087e-05
-3.11884e-12
3.02087e-05
-3.17646e-11
3.02087e-05
-5.77177e-11
3.02087e-05
-8.17307e-11
3.02087e-05
-1.04108e-10
3.02088e-05
-1.24696e-10
3.02088e-05
-1.43146e-10
3.02089e-05
-1.59247e-10
3.02089e-05
-1.73126e-10
3.02089e-05
-1.85224e-10
3.0209e-05
-1.96092e-10
3.0209e-05
-2.06138e-10
3.02091e-05
-2.15488e-10
3.02092e-05
-2.24029e-10
3.02092e-05
-2.3159e-10
3.02093e-05
-2.38126e-10
3.02093e-05
-2.43803e-10
3.02094e-05
-2.48914e-10
3.02095e-05
-2.53758e-10
3.02095e-05
-2.5843e-10
3.02096e-05
-2.62902e-10
3.02097e-05
-2.66735e-10
3.02097e-05
-2.69814e-10
3.02098e-05
-2.70817e-10
3.02099e-05
-2.70408e-10
3.02099e-05
-2.63696e-10
3.021e-05
-2.55656e-10
3.021e-05
-2.27004e-10
3.02101e-05
-2.03555e-10
3.02101e-05
-1.19113e-10
3.02102e-05
-6.75614e-11
3.02102e-05
8.56175e-11
3.02101e-05
1.87357e-10
3.02101e-05
7.933e-11
3.02101e-05
1.57163e-11
3.02101e-05
-4.0487e-11
3.02101e-05
-7.98291e-11
3.02102e-05
-1.206e-10
3.02102e-05
-1.39075e-10
3.02102e-05
-1.44195e-10
3.02103e-05
-1.42272e-10
3.02103e-05
-1.36563e-10
3.02103e-05
-1.29288e-10
3.02103e-05
-1.21166e-10
3.02104e-05
-1.12306e-10
3.02104e-05
-1.02578e-10
3.02104e-05
-9.18486e-11
3.02104e-05
-8.01175e-11
3.02105e-05
-6.7542e-11
3.02105e-05
-5.44105e-11
3.02105e-05
-4.10885e-11
3.02105e-05
-2.79555e-11
3.02105e-05
-1.53607e-11
3.02105e-05
-3.58861e-12
3.02105e-05
7.149e-12
3.02105e-05
1.67212e-11
3.02105e-05
2.50702e-11
3.02105e-05
3.21948e-11
3.02105e-05
3.81367e-11
3.02104e-05
4.29722e-11
3.02104e-05
4.67947e-11
3.02104e-05
4.97103e-11
3.02104e-05
5.18231e-11
3.02104e-05
5.32398e-11
3.02104e-05
5.40529e-11
3.02104e-05
5.43803e-11
3.02103e-05
5.42803e-11
3.02103e-05
5.39883e-11
3.02103e-05
5.34085e-11
3.02103e-05
5.33257e-11
3.02103e-05
5.28412e-11
3.02103e-05
5.43798e-11
3.02103e-05
5.45634e-11
3.02102e-05
5.52697e-11
3.02102e-05
4.91547e-11
3.02102e-05
4.06422e-11
3.02102e-05
3.50195e-11
3.02102e-05
2.90466e-11
3.02102e-05
3.04113e-11
3.02102e-05
3.21471e-11
3.02102e-05
3.30932e-11
3.02102e-05
3.3172e-11
3.02101e-05
3.34751e-11
3.02101e-05
3.33838e-11
3.02101e-05
3.77076e-11
3.02101e-05
4.13036e-11
3.02101e-05
6.3198e-11
3.02101e-05
7.75115e-11
3.02101e-05
1.49899e-10
3.021e-05
1.8764e-10
3.02099e-05
3.21592e-10
3.02099e-05
4.05968e-10
3.02098e-05
2.61866e-10
3.02098e-05
1.72707e-10
3.02097e-05
1.00316e-10
3.02097e-05
4.58118e-11
3.02097e-05
1.0887e-11
3.02097e-05
-1.39507e-11
3.02097e-05
-3.02089e-11
3.02097e-05
-4.10391e-11
3.02097e-05
-4.20538e-11
3.02097e-05
-4.03774e-11
3.02097e-05
-8.41965e-12
3.02097e-05
1.37084e-11
3.02097e-05
1.51291e-10
3.02096e-05
2.33689e-10
7.48753e-10
3.48833e-05
1.04506e-09
3.48831e-05
4.10996e-10
3.4883e-05
2.98491e-10
3.48829e-05
3.11417e-10
3.48829e-05
3.21612e-10
3.48828e-05
3.2342e-10
3.48827e-05
3.04493e-10
3.48827e-05
2.71378e-10
3.48826e-05
2.28665e-10
3.48826e-05
1.80406e-10
3.48826e-05
1.30442e-10
3.48826e-05
8.18356e-11
3.48825e-05
3.67921e-11
3.48825e-05
-3.63983e-12
3.48826e-05
-3.95947e-11
3.48826e-05
-7.19757e-11
3.48826e-05
-1.01796e-10
3.48826e-05
-1.29624e-10
3.48826e-05
-1.55435e-10
3.48827e-05
-1.78833e-10
3.48827e-05
-1.99462e-10
3.48828e-05
-2.17321e-10
3.48828e-05
-2.32828e-10
3.48829e-05
-2.46632e-10
3.48829e-05
-2.59301e-10
3.4883e-05
-2.71097e-10
3.4883e-05
-2.8196e-10
3.48831e-05
-2.91687e-10
3.48832e-05
-3.00166e-10
3.48832e-05
-3.07526e-10
3.48833e-05
-3.14084e-10
3.48834e-05
-3.20219e-10
3.48834e-05
-3.26104e-10
3.48835e-05
-3.31758e-10
3.48836e-05
-3.36694e-10
3.48836e-05
-3.4074e-10
3.48837e-05
-3.42331e-10
3.48838e-05
-3.42132e-10
3.48838e-05
-3.34516e-10
3.48839e-05
-3.24951e-10
3.4884e-05
-2.91425e-10
3.4884e-05
-2.62726e-10
3.48841e-05
-1.6335e-10
3.48841e-05
-9.91466e-11
3.48841e-05
8.37404e-11
3.48841e-05
2.092e-10
3.48841e-05
9.27091e-11
3.48841e-05
2.02745e-11
3.48841e-05
-4.66058e-11
3.48841e-05
-9.44026e-11
3.48841e-05
-1.44139e-10
3.48841e-05
-1.68163e-10
3.48842e-05
-1.76275e-10
3.48842e-05
-1.75418e-10
3.48842e-05
-1.69531e-10
3.48843e-05
-1.61254e-10
3.48843e-05
-1.51521e-10
3.48843e-05
-1.40553e-10
3.48844e-05
-1.28289e-10
3.48844e-05
-1.14666e-10
3.48844e-05
-9.97692e-11
3.48844e-05
-8.3855e-11
3.48844e-05
-6.73138e-11
3.48844e-05
-5.06066e-11
3.48844e-05
-3.4197e-11
3.48845e-05
-1.85027e-11
3.48845e-05
-3.85981e-12
3.48844e-05
9.48549e-12
3.48844e-05
2.13815e-11
3.48844e-05
3.17646e-11
3.48844e-05
4.06399e-11
3.48844e-05
4.80636e-11
3.48844e-05
5.41302e-11
3.48844e-05
5.89547e-11
3.48844e-05
6.26652e-11
3.48844e-05
6.53897e-11
3.48844e-05
6.72583e-11
3.48843e-05
6.83859e-11
3.48843e-05
6.89154e-11
3.48843e-05
6.89233e-11
3.48843e-05
6.86842e-11
3.48843e-05
6.81027e-11
3.48843e-05
6.80794e-11
3.48843e-05
6.76193e-11
3.48842e-05
6.94998e-11
3.48842e-05
6.99015e-11
3.48842e-05
7.08905e-11
3.48842e-05
6.39583e-11
3.48842e-05
5.40425e-11
3.48842e-05
4.72067e-11
3.48842e-05
3.99854e-11
3.48841e-05
4.12602e-11
3.48841e-05
4.31741e-11
3.48841e-05
4.43094e-11
3.48841e-05
4.43981e-11
3.48841e-05
4.4618e-11
3.48841e-05
4.42602e-11
3.48841e-05
4.88168e-11
3.48841e-05
5.26472e-11
3.48841e-05
7.75054e-11
3.4884e-05
9.45814e-11
3.4884e-05
1.78798e-10
3.4884e-05
2.25602e-10
3.48839e-05
3.84732e-10
3.48838e-05
4.88249e-10
3.48838e-05
3.28127e-10
3.48837e-05
2.23703e-10
3.48837e-05
1.35552e-10
3.48836e-05
6.82658e-11
3.48836e-05
2.36071e-11
3.48836e-05
-8.63648e-12
3.48836e-05
-3.03368e-11
3.48836e-05
-4.51828e-11
3.48836e-05
-4.82451e-11
3.48836e-05
-4.74866e-11
3.48837e-05
-1.14309e-11
3.48836e-05
1.48392e-11
3.48836e-05
1.75881e-10
3.48836e-05
2.73967e-10
8.77548e-10
3.92538e-05
1.2294e-09
3.92536e-05
5.58969e-10
3.92535e-05
4.1702e-10
3.92534e-05
4.0527e-10
3.92533e-05
4.00778e-10
3.92533e-05
3.92257e-10
3.92532e-05
3.64929e-10
3.92532e-05
3.24032e-10
3.92531e-05
2.73383e-10
3.92531e-05
2.16734e-10
3.92531e-05
1.57959e-10
3.9253e-05
1.00395e-10
3.9253e-05
4.66213e-11
3.9253e-05
-1.96176e-12
3.9253e-05
-4.52834e-11
3.9253e-05
-8.42576e-11
3.92531e-05
-1.20067e-10
3.92531e-05
-1.53487e-10
3.92531e-05
-1.84615e-10
3.92532e-05
-2.13055e-10
3.92532e-05
-2.38353e-10
3.92532e-05
-2.60405e-10
3.92533e-05
-2.7959e-10
3.92533e-05
-2.96614e-10
3.92534e-05
-3.12162e-10
3.92534e-05
-3.26611e-10
3.92535e-05
-3.39968e-10
3.92536e-05
-3.52024e-10
3.92536e-05
-3.62628e-10
3.92537e-05
-3.71878e-10
3.92537e-05
-3.80104e-10
3.92538e-05
-3.87738e-10
3.92539e-05
-3.95019e-10
3.9254e-05
-4.02013e-10
3.9254e-05
-4.082e-10
3.92541e-05
-4.13369e-10
3.92542e-05
-4.15737e-10
3.92542e-05
-4.15955e-10
3.92543e-05
-4.07708e-10
3.92544e-05
-3.96898e-10
3.92545e-05
-3.58952e-10
3.92545e-05
-3.25399e-10
3.92546e-05
-2.1195e-10
3.92546e-05
-1.35555e-10
3.92546e-05
7.61979e-11
3.92546e-05
2.25756e-10
3.92546e-05
1.03416e-10
3.92546e-05
2.42786e-11
3.92546e-05
-5.17883e-11
3.92546e-05
-1.07332e-10
3.92546e-05
-1.65742e-10
3.92547e-05
-1.95502e-10
3.92547e-05
-2.07043e-10
3.92547e-05
-2.07757e-10
3.92547e-05
-2.02127e-10
3.92548e-05
-1.93147e-10
3.92548e-05
-1.81969e-10
3.92548e-05
-1.68951e-10
3.92549e-05
-1.54146e-10
3.92549e-05
-1.37604e-10
3.92549e-05
-1.19526e-10
3.92549e-05
-1.00285e-10
3.92549e-05
-8.03765e-11
3.92549e-05
-6.03527e-11
3.9255e-05
-4.07527e-11
3.9255e-05
-2.20522e-11
3.9255e-05
-4.62859e-12
3.9255e-05
1.12445e-11
3.92549e-05
2.54013e-11
3.92549e-05
3.77751e-11
3.92549e-05
4.83777e-11
3.92549e-05
5.72788e-11
3.92549e-05
6.45897e-11
3.92549e-05
7.0445e-11
3.92549e-05
7.49923e-11
3.92549e-05
7.838e-11
3.92549e-05
8.07594e-11
3.92549e-05
8.22651e-11
3.92548e-05
8.30637e-11
3.92548e-05
8.32478e-11
3.92548e-05
8.3129e-11
3.92548e-05
8.26121e-11
3.92548e-05
8.27071e-11
3.92548e-05
8.23299e-11
3.92548e-05
8.45943e-11
3.92547e-05
8.52764e-11
3.92547e-05
8.66228e-11
3.92547e-05
7.90147e-11
3.92547e-05
6.78417e-11
3.92547e-05
5.98787e-11
3.92547e-05
5.14539e-11
3.92547e-05
5.25912e-11
3.92546e-05
5.4622e-11
3.92546e-05
5.58826e-11
3.92546e-05
5.5904e-11
3.92546e-05
5.59147e-11
3.92546e-05
5.51126e-11
3.92546e-05
5.9624e-11
3.92546e-05
6.33735e-11
3.92546e-05
9.06931e-11
3.92545e-05
1.10095e-10
3.92545e-05
2.05275e-10
3.92545e-05
2.60714e-10
3.92544e-05
4.44279e-10
3.92543e-05
5.67415e-10
3.92543e-05
3.94118e-10
3.92542e-05
2.76619e-10
3.92542e-05
1.74106e-10
3.92542e-05
9.4588e-11
3.92541e-05
4.01797e-11
3.92541e-05
2.31503e-13
3.92541e-05
-2.73549e-11
3.92541e-05
-4.67049e-11
3.92541e-05
-5.23856e-11
3.92541e-05
-5.31061e-11
3.92541e-05
-1.38119e-11
3.92541e-05
1.58386e-11
3.92541e-05
1.98408e-10
3.92541e-05
3.10506e-10
9.95236e-10
4.33399e-05
1.40083e-09
4.33398e-05
7.0738e-10
4.33397e-05
5.4087e-10
4.33396e-05
5.04715e-10
4.33395e-05
4.83718e-10
4.33394e-05
4.63066e-10
4.33393e-05
4.26132e-10
4.33393e-05
3.76876e-10
4.33392e-05
3.18236e-10
4.33392e-05
2.53519e-10
4.33392e-05
1.8647e-10
4.33392e-05
1.20538e-10
4.33391e-05
5.85378e-11
4.33391e-05
2.13121e-12
4.33391e-05
-4.84232e-11
4.33392e-05
-9.39942e-11
4.33392e-05
-1.35849e-10
4.33392e-05
-1.74901e-10
4.33392e-05
-2.11352e-10
4.33392e-05
-2.44831e-10
4.33393e-05
-2.74836e-10
4.33393e-05
-3.01191e-10
4.33394e-05
-3.24239e-10
4.33394e-05
-3.44705e-10
4.33395e-05
-3.63348e-10
4.33395e-05
-3.80634e-10
4.33396e-05
-3.96632e-10
4.33396e-05
-4.11156e-10
4.33397e-05
-4.24038e-10
4.33398e-05
-4.35361e-10
4.33398e-05
-4.45455e-10
4.33399e-05
-4.54792e-10
4.334e-05
-4.63655e-10
4.334e-05
-4.72152e-10
4.33401e-05
-4.79745e-10
4.33402e-05
-4.86194e-10
4.33403e-05
-4.89527e-10
4.33403e-05
-4.90376e-10
4.33404e-05
-4.81785e-10
4.33405e-05
-4.70035e-10
4.33405e-05
-4.28159e-10
4.33406e-05
-3.90229e-10
4.33407e-05
-2.63625e-10
4.33407e-05
-1.75725e-10
4.33407e-05
6.39507e-11
4.33407e-05
2.37634e-10
4.33407e-05
1.1128e-10
4.33407e-05
2.72374e-11
4.33407e-05
-5.64219e-11
4.33407e-05
-1.18748e-10
4.33407e-05
-1.85285e-10
4.33408e-05
-2.20714e-10
4.33408e-05
-2.35903e-10
4.33408e-05
-2.38538e-10
4.33408e-05
-2.33504e-10
4.33409e-05
-2.24077e-10
4.33409e-05
-2.11607e-10
4.33409e-05
-1.96621e-10
4.3341e-05
-1.79323e-10
4.3341e-05
-1.59913e-10
4.3341e-05
-1.38731e-10
4.3341e-05
-1.16277e-10
4.3341e-05
-9.31493e-11
4.3341e-05
-6.99846e-11
4.3341e-05
-4.73846e-11
4.3341e-05
-2.58698e-11
4.3341e-05
-5.84826e-12
4.3341e-05
1.23886e-11
4.3341e-05
2.86668e-11
4.3341e-05
4.29202e-11
4.3341e-05
5.51678e-11
4.3341e-05
6.54916e-11
4.3341e-05
7.40183e-11
4.3341e-05
8.08984e-11
4.3341e-05
8.62964e-11
4.3341e-05
9.03777e-11
4.3341e-05
9.33114e-11
4.3341e-05
9.52486e-11
4.33409e-05
9.63757e-11
4.33409e-05
9.68011e-11
4.33409e-05
9.68689e-11
4.33409e-05
9.64848e-11
4.33409e-05
9.67591e-11
4.33409e-05
9.65261e-11
4.33409e-05
9.92206e-11
4.33408e-05
1.00246e-10
4.33408e-05
1.02026e-10
4.33408e-05
9.38724e-11
4.33408e-05
8.1587e-11
4.33408e-05
7.26055e-11
4.33408e-05
6.30528e-11
4.33408e-05
6.40453e-11
4.33407e-05
6.61527e-11
4.33407e-05
6.7465e-11
4.33407e-05
6.73146e-11
4.33407e-05
6.69523e-11
4.33407e-05
6.54915e-11
4.33407e-05
6.96479e-11
4.33407e-05
7.29773e-11
4.33407e-05
1.02244e-10
4.33407e-05
1.23496e-10
4.33406e-05
2.28778e-10
4.33406e-05
2.92276e-10
4.33406e-05
4.99533e-10
4.33405e-05
6.42538e-10
4.33404e-05
4.58234e-10
4.33404e-05
3.29683e-10
4.33403e-05
2.14494e-10
4.33403e-05
1.23717e-10
4.33403e-05
5.99651e-11
4.33403e-05
1.23547e-11
4.33403e-05
-2.13152e-11
4.33402e-05
-4.54777e-11
4.33403e-05
-5.42363e-11
4.33403e-05
-5.6918e-11
4.33403e-05
-1.52297e-11
4.33403e-05
1.70548e-11
4.33402e-05
2.18958e-10
4.33402e-05
3.43798e-10
1.10052e-09
4.71898e-05
1.55619e-09
4.71896e-05
8.5058e-10
4.71895e-05
6.65131e-10
4.71894e-05
6.06885e-10
4.71893e-05
5.69181e-10
4.71892e-05
5.35459e-10
4.71892e-05
4.88047e-10
4.71891e-05
4.29905e-10
4.71891e-05
3.63161e-10
4.7189e-05
2.90618e-10
4.7189e-05
2.15768e-10
4.7189e-05
1.42033e-10
4.7189e-05
7.23363e-11