/*--------------------------------*- C++ -*----------------------------------*\
  =========                 |
  \\      /  F ield         | OpenFOAM: The Open Source CFD Toolbox
   \\    /   O peration     | Website:  https://openfoam.org
    \\  /    A nd           | Version:  7
     \\/     M anipulation  |
\*---------------------------------------------------------------------------*/
FoamFile
{
    version     2.0;
    format      ascii;
    class       volVectorField;
    location    "2500";
    object      U;
}
// * * * * * * * * * * * * * * * * * * * * * * * * * * * * * * * * * * * * * //

dimensions      [0 1 -1 0 0 0 0];

internalField   nonuniform List<vector> 
24000
(
(0.00393245 4.13834e-10 2.27675e-17)
(0.00393245 -6.29202e-10 2.11944e-17)
(0.00393249 -2.55101e-11 2.90139e-17)
(0.00393248 -1.67176e-11 -4.81178e-17)
(0.00393248 3.22968e-11 -3.30587e-16)
(0.00393247 7.06732e-11 -5.72451e-17)
(0.00393246 7.28282e-11 -2.83821e-16)
(0.00393245 6.8351e-11 -3.95147e-17)
(0.00393244 5.61956e-11 -2.45909e-18)
(0.00393243 4.31033e-11 -2.88341e-16)
(0.00393242 3.17473e-11 -2.11155e-17)
(0.00393242 2.28224e-11 -2.0896e-17)
(0.00393242 1.60078e-11 -1.73472e-17)
(0.00393242 9.98296e-12 -3.94879e-17)
(0.00393242 3.31834e-12 -6.13131e-17)
(0.00393242 -4.54684e-12 -2.89232e-18)
(0.00393242 -1.30065e-11 -2.74727e-17)
(0.00393242 -2.0813e-11 -3.58386e-17)
(0.00393243 -2.69256e-11 -6.29793e-17)
(0.00393243 -3.10786e-11 -1.10695e-16)
(0.00393244 -3.3829e-11 -3.6412e-17)
(0.00393244 -3.61753e-11 -9.07024e-17)
(0.00393245 -3.89551e-11 -6.31052e-17)
(0.00393246 -4.24379e-11 -8.40259e-17)
(0.00393247 -4.62467e-11 -1.44069e-16)
(0.00393247 -4.9772e-11 -4.94604e-17)
(0.00393248 -5.2464e-11 -7.62974e-17)
(0.00393249 -5.4358e-11 -5.5213e-17)
(0.0039325 -5.56744e-11 -8.65913e-17)
(0.00393251 -5.7198e-11 -1.43441e-16)
(0.00393252 -5.88083e-11 -4.39488e-17)
(0.00393253 -6.13086e-11 -7.98747e-17)
(0.00393254 -6.29861e-11 -6.37044e-17)
(0.00393255 -6.59637e-11 -9.89941e-17)
(0.00393256 -6.55356e-11 -1.52121e-16)
(0.00393257 -6.93344e-11 -6.50063e-17)
(0.00393259 -6.37851e-11 -9.59869e-17)
(0.0039326 -7.1765e-11 -7.98324e-17)
(0.00393261 -5.32504e-11 -1.06135e-16)
(0.00393262 -7.22105e-11 -1.45851e-16)
(0.00393263 -2.0796e-11 -1.07653e-16)
(0.00393264 -6.05994e-11 1.23911e-16)
(0.00393264 5.14209e-11 -4.31052e-17)
(0.00393264 3.03824e-12 -4.95322e-17)
(0.00393264 1.25808e-10 -4.21217e-17)
(0.00393261 1.8554e-10 -3.57534e-17)
(0.0039326 -4.17145e-11 2.0206e-16)
(0.00393261 1.45865e-11 -1.75582e-17)
(0.00393261 -3.51355e-11 -2.70753e-17)
(0.00393261 -3.1718e-11 -2.27856e-17)
(0.00393262 -6.0282e-11 -1.75988e-17)
(0.00393262 -5.14493e-11 2.16877e-16)
(0.00393263 -4.90603e-11 -4.52178e-18)
(0.00393264 -4.46994e-11 2.97183e-16)
(0.00393265 -4.01896e-11 -3.21282e-17)
(0.00393265 -3.66712e-11 1.88905e-17)
(0.00393266 -3.3641e-11 1.52232e-16)
(0.00393266 -3.11452e-11 1.32548e-17)
(0.00393267 -2.89169e-11 1.65389e-16)
(0.00393267 -2.67275e-11 -1.40472e-17)
(0.00393268 -2.43981e-11 2.74197e-17)
(0.00393268 -2.18106e-11 2.32158e-16)
(0.00393268 -1.89815e-11 2.71384e-17)
(0.00393268 -1.59367e-11 1.90177e-16)
(0.00393269 -1.28013e-11 -4.64946e-18)
(0.00393269 -9.69593e-12 4.87449e-17)
(0.00393269 -6.70313e-12 1.68802e-16)
(0.00393269 -3.91241e-12 3.56013e-17)
(0.00393269 -1.39332e-12 2.98479e-16)
(0.00393269 8.20021e-13 -2.91855e-17)
(0.00393269 2.6994e-12 4.1438e-17)
(0.00393269 4.22965e-12 2.6661e-16)
(0.00393269 5.44252e-12 5.02853e-17)
(0.00393268 6.34747e-12 2.12013e-16)
(0.00393268 7.02034e-12 8.04554e-19)
(0.00393268 7.41453e-12 5.541e-17)
(0.00393268 7.70042e-12 2.15409e-16)
(0.00393268 7.64501e-12 5.26009e-17)
(0.00393268 7.71051e-12 3.03853e-16)
(0.00393267 7.10936e-12 4.00979e-17)
(0.00393267 7.31938e-12 -1.4841e-16)
(0.00393267 5.99882e-12 -2.89546e-17)
(0.00393267 7.21212e-12 5.3131e-17)
(0.00393267 4.88411e-12 -1.33612e-16)
(0.00393267 8.16896e-12 -4.557e-17)
(0.00393266 5.15608e-12 -2.53094e-16)
(0.00393266 7.42083e-12 -2.5741e-17)
(0.00393266 7.38711e-13 4.42121e-17)
(0.00393266 -5.48762e-12 -3.20844e-16)
(0.00393266 -3.38138e-12 -6.03107e-17)
(0.00393266 -9.95899e-12 -2.3056e-16)
(0.00393266 -2.78206e-12 -8.00855e-17)
(0.00393266 -4.45382e-12 1.56889e-17)
(0.00393266 -2.87935e-12 -1.62738e-16)
(0.00393266 -6.30399e-12 -7.16812e-17)
(0.00393266 -1.20483e-12 -2.5877e-16)
(0.00393266 -9.33609e-12 -3.59536e-17)
(0.00393266 8.48293e-12 3.69977e-17)
(0.00393266 -1.05012e-11 -1.62086e-16)
(0.00393266 3.88328e-11 -6.55153e-17)
(0.00393265 -1.05124e-12 -1.58106e-16)
(0.00393265 1.05183e-10 -4.09096e-17)
(0.00393264 5.83053e-11 3.10103e-17)
(0.00393262 1.67292e-10 -1.5491e-16)
(0.00393259 2.3369e-10 -5.4518e-17)
(0.00393258 -2.13549e-11 -1.7825e-16)
(0.00393257 3.45163e-11 -5.90147e-17)
(0.00393257 -7.56814e-12 3.11468e-17)
(0.00393257 -1.98272e-11 -1.57846e-16)
(0.00393257 -1.84369e-11 -7.69901e-17)
(0.00393257 -2.87781e-11 -2.25611e-16)
(0.00393258 -1.93495e-11 -1.81778e-16)
(0.00393258 -3.57982e-11 6.91747e-18)
(0.00393258 -2.15471e-12 -1.64377e-16)
(0.00393259 -4.51254e-11 -7.18897e-17)
(0.00393258 5.56575e-11 -1.62026e-16)
(0.00393259 -5.25269e-11 -2.0216e-16)
(0.00393258 2.07776e-10 1.32043e-17)
(0.00393257 9.48993e-12 -2.14222e-16)
(0.00393254 6.44674e-10 -4.72786e-17)
(0.0118706 4.85876e-09 7.08904e-17)
(0.0118706 -2.69366e-09 6.26495e-17)
(0.0118707 -8.86132e-10 8.76689e-17)
(0.0118706 3.80257e-10 -1.59017e-16)
(0.0118706 7.76377e-10 -7.75677e-16)
(0.0118706 1.12568e-09 -1.63475e-16)
(0.0118706 1.14916e-09 -4.94246e-16)
(0.0118705 1.04615e-09 -1.07583e-16)
(0.0118705 8.76742e-10 -7.72043e-18)
(0.0118705 6.88305e-10 -4.53466e-16)
(0.0118705 5.11667e-10 -5.68825e-17)
(0.0118705 3.55248e-10 -6.44306e-17)
(0.0118705 2.1655e-10 -5.286e-17)
(0.0118704 8.66065e-11 -1.20535e-16)
(0.0118704 -4.25723e-11 -1.83533e-16)
(0.0118705 -1.72015e-10 -1.01332e-17)
(0.0118705 -2.95654e-10 -8.24942e-17)
(0.0118705 -4.05152e-10 -1.06864e-16)
(0.0118705 -4.95338e-10 -1.8995e-16)
(0.0118705 -5.67171e-10 -3.33862e-16)
(0.0118705 -6.26665e-10 -1.17788e-16)
(0.0118705 -6.81296e-10 -2.83878e-16)
(0.0118706 -7.35942e-10 -1.92237e-16)
(0.0118706 -7.91146e-10 -2.53449e-16)
(0.0118706 -8.43931e-10 -4.45151e-16)
(0.0118706 -8.90333e-10 -1.50498e-16)
(0.0118707 -9.28301e-10 -2.33987e-16)
(0.0118707 -9.59154e-10 -1.69169e-16)
(0.0118707 -9.85936e-10 -2.59843e-16)
(0.0118707 -1.01272e-09 -4.29442e-16)
(0.0118708 -1.04057e-09 -1.22599e-16)
(0.0118708 -1.0703e-09 -2.52954e-16)
(0.0118708 -1.09721e-09 -1.94309e-16)
(0.0118709 -1.12342e-09 -3.0413e-16)
(0.0118709 -1.13877e-09 -4.64043e-16)
(0.0118709 -1.15708e-09 -1.86708e-16)
(0.011871 -1.14818e-09 -2.83817e-16)
(0.011871 -1.15799e-09 -2.40142e-16)
(0.011871 -1.08236e-09 -3.29431e-16)
(0.0118711 -1.07719e-09 -4.47272e-16)
(0.0118711 -8.03676e-10 -3.23354e-16)
(0.0118711 -7.81413e-10 -1.0434e-16)
(0.0118711 -3.67568e-11 -1.38143e-16)
(0.0118711 4.23787e-11 -1.47463e-16)
(0.0118711 1.1914e-09 -1.25162e-16)
(0.0118711 1.75766e-09 -1.05959e-16)
(0.011871 2.54427e-10 -2.29499e-17)
(0.011871 1.61554e-11 -5.97927e-17)
(0.011871 -3.05383e-10 -7.88313e-17)
(0.0118711 -4.88276e-10 -6.69116e-17)
(0.0118711 -7.36523e-10 -5.21104e-17)
(0.0118711 -7.67206e-10 3.2357e-17)
(0.0118711 -7.4025e-10 -1.86775e-17)
(0.0118711 -6.98819e-10 1.39528e-16)
(0.0118711 -6.45911e-10 -8.36997e-17)
(0.0118712 -5.97533e-10 6.10581e-17)
(0.0118712 -5.53447e-10 8.33945e-17)
(0.0118712 -5.12736e-10 3.4132e-17)
(0.0118712 -4.73002e-10 1.14688e-16)
(0.0118712 -4.31692e-10 -3.61128e-17)
(0.0118712 -3.87062e-10 8.7761e-17)
(0.0118712 -3.38345e-10 1.26092e-16)
(0.0118713 -2.86073e-10 7.81973e-17)
(0.0118713 -2.31494e-10 1.64699e-16)
(0.0118713 -1.76335e-10 4.76361e-17)
(0.0118713 -1.22268e-10 1.50906e-16)
(0.0118713 -7.08773e-11 1.55271e-16)
(0.0118713 -2.32847e-11 1.03624e-16)
(0.0118713 1.94916e-11 2.2888e-16)
(0.0118713 5.70621e-11 -1.58103e-16)
(0.0118713 8.91509e-11 1.3055e-16)
(0.0118713 1.1578e-10 2.06842e-16)
(0.0118713 1.37214e-10 1.47119e-16)
(0.0118713 1.53928e-10 2.38083e-16)
(0.0118713 1.66406e-10 -1.14765e-16)
(0.0118712 1.74968e-10 1.7199e-16)
(0.0118712 1.80368e-10 2.29401e-16)
(0.0118712 1.82429e-10 1.54418e-16)
(0.0118712 1.82525e-10 2.60557e-16)
(0.0118712 1.79405e-10 1.3418e-16)
(0.0118712 1.77087e-10 -9.34629e-18)
(0.0118712 1.70297e-10 -1.76213e-16)
(0.0118712 1.72043e-10 1.57382e-16)
(0.0118712 1.63144e-10 -4.86156e-17)
(0.0118712 1.79231e-10 -3.69485e-17)
(0.0118712 1.70227e-10 -9.7629e-17)
(0.0118712 1.76784e-10 -1.50827e-16)
(0.0118712 1.18045e-10 1.31912e-16)
(0.0118712 5.32392e-11 -1.13343e-16)
(0.0118712 3.46225e-11 -9.79925e-17)
(0.0118712 -8.41732e-12 -1.26799e-16)
(0.0118712 2.55927e-11 -3.46509e-16)
(0.0118712 3.52721e-11 4.71631e-17)
(0.0118712 3.80854e-11 -1.27981e-16)
(0.0118712 3.0154e-11 -3.24865e-16)
(0.0118712 4.07939e-11 -1.54869e-16)
(0.0118712 2.88222e-11 -2.42914e-16)
(0.0118712 9.67569e-11 1.14656e-16)
(0.0118712 8.87693e-11 -1.25134e-16)
(0.0118712 3.37009e-10 -1.23369e-16)
(0.0118711 3.27609e-10 -1.30759e-16)
(0.0118711 1.01715e-09 -8.50295e-17)
(0.0118711 1.04919e-09 9.50114e-17)
(0.0118711 2.08869e-09 -1.18845e-16)
(0.011871 2.61126e-09 -1.47419e-16)
(0.0118709 8.62127e-10 -1.63216e-16)
(0.0118709 5.32733e-10 -9.76404e-17)
(0.0118709 1.98147e-10 9.39645e-17)
(0.0118709 -6.66433e-11 -1.19908e-16)
(0.0118709 -1.643e-10 -1.00896e-16)
(0.0118709 -2.58046e-10 -1.22182e-16)
(0.0118709 -2.82479e-10 -1.90764e-16)
(0.0118709 -3.29613e-10 2.76223e-17)
(0.0118709 -2.38963e-10 -1.20419e-16)
(0.011871 -2.81797e-10 -8.89889e-17)
(0.0118709 1.28489e-10 -1.43037e-16)
(0.011871 3.90241e-11 -2.04728e-16)
(0.0118709 1.40321e-09 4.6238e-17)
(0.0118709 1.39593e-09 -9.1339e-17)
(0.0118708 6.18304e-09 -1.32608e-16)
(0.019971 1.33116e-08 1.39304e-16)
(0.0199709 -3.99132e-09 9.79324e-17)
(0.019971 -1.71255e-09 1.45884e-16)
(0.0199709 1.39785e-09 -3.39404e-16)
(0.0199709 2.49302e-09 -5.4595e-16)
(0.0199709 3.28969e-09 -2.26265e-16)
(0.0199708 3.33457e-09 -3.73382e-16)
(0.0199708 3.02423e-09 -1.28835e-16)
(0.0199707 2.53598e-09 -1.69824e-17)
(0.0199707 1.98967e-09 -3.30549e-16)
(0.0199707 1.46627e-09 -4.44761e-17)
(0.0199706 9.94087e-10 -1.19021e-16)
(0.0199706 5.72493e-10 -8.99964e-17)
(0.0199706 1.82422e-10 -2.11618e-16)
(0.0199706 -1.95568e-10 -3.02362e-16)
(0.0199706 -5.6597e-10 -1.77823e-17)
(0.0199706 -9.17255e-10 -1.47175e-16)
(0.0199707 -1.23123e-09 -1.77843e-16)
(0.0199707 -1.49573e-09 -3.25867e-16)
(0.0199707 -1.71207e-09 -5.50777e-16)
(0.0199707 -1.89351e-09 -2.02467e-16)
(0.0199708 -2.05748e-09 -5.15053e-16)
(0.0199708 -2.21641e-09 -3.19899e-16)
(0.0199708 -2.37303e-09 -4.25839e-16)
(0.0199709 -2.5214e-09 -7.79531e-16)
(0.0199709 -2.653e-09 -2.45052e-16)
(0.019971 -2.76299e-09 -3.98175e-16)
(0.019971 -2.85376e-09 -2.85396e-16)
(0.0199711 -2.93271e-09 -4.37161e-16)
(0.0199711 -3.00896e-09 -7.15105e-16)
(0.0199712 -3.08658e-09 -1.60264e-16)
(0.0199712 -3.16669e-09 -4.80065e-16)
(0.0199713 -3.24162e-09 -3.30119e-16)
(0.0199713 -3.31122e-09 -5.40027e-16)
(0.0199714 -3.3598e-09 -8.02539e-16)
(0.0199714 -3.4038e-09 -2.68953e-16)
(0.0199715 -3.39668e-09 -4.69154e-16)
(0.0199715 -3.40101e-09 -3.97515e-16)
(0.0199716 -3.24032e-09 -5.87822e-16)
(0.0199716 -3.16163e-09 -7.81946e-16)
(0.0199717 -2.53659e-09 -5.29321e-16)
(0.0199717 -2.31948e-09 -3.87703e-16)
(0.0199717 -5.43739e-10 -2.41065e-16)
(0.0199718 -6.98696e-11 -2.46643e-16)
(0.0199717 2.83821e-09 -2.04223e-16)
(0.0199717 4.39255e-09 -1.72572e-16)
(0.0199716 1.03743e-09 -2.12506e-16)
(0.0199716 7.55969e-11 -1.07515e-16)
(0.0199716 -7.83703e-10 -1.28361e-16)
(0.0199717 -1.34008e-09 -1.06043e-16)
(0.0199717 -1.99725e-09 -8.42472e-17)
(0.0199717 -2.14934e-09 -1.15824e-16)
(0.0199717 -2.1055e-09 -3.60169e-17)
(0.0199718 -2.00399e-09 -2.51955e-17)
(0.0199718 -1.86719e-09 3.39151e-16)
(0.0199718 -1.7347e-09 1.17084e-16)
(0.0199719 -1.61026e-09 -1.16037e-17)
(0.0199719 -1.49176e-09 4.92091e-17)
(0.0199719 -1.37331e-09 4.38411e-17)
(0.0199719 -1.24845e-09 5.94927e-16)
(0.0199719 -1.11301e-09 1.6663e-16)
(0.019972 -9.65797e-10 7.15123e-17)
(0.019972 -8.08673e-10 1.28471e-16)
(0.019972 -6.45625e-10 1.06288e-16)
(0.019972 -4.81614e-10 3.36868e-16)
(0.019972 -3.21576e-10 2.72503e-16)
(0.019972 -1.69872e-10 1.27918e-16)
(0.019972 -2.99867e-11 1.70347e-16)
(0.019972 9.56958e-11 1.73893e-16)
(0.019972 2.05918e-10 4.60057e-16)
(0.019972 3.00061e-10 2.47649e-16)
(0.019972 3.78324e-10 1.86276e-16)
(0.019972 4.41533e-10 2.41995e-16)
(0.019972 4.9092e-10 2.3236e-16)
(0.019972 5.27955e-10 3.83795e-16)
(0.019972 5.53845e-10 3.0813e-16)
(0.0199719 5.70214e-10 2.15781e-16)
(0.0199719 5.77516e-10 2.57115e-16)
(0.0199719 5.78333e-10 2.43547e-16)
(0.0199719 5.71618e-10 6.47645e-16)
(0.0199719 5.6439e-10 1.79035e-16)
(0.0199719 5.49048e-10 6.40226e-16)
(0.0199719 5.49826e-10 2.7551e-16)
(0.0199719 5.32087e-10 2.65895e-17)
(0.0199719 5.67184e-10 4.02579e-16)
(0.0199719 5.53189e-10 4.50557e-17)
(0.0199718 5.6536e-10 2.84145e-16)
(0.0199718 4.22581e-10 2.36253e-16)
(0.0199718 2.54549e-10 -2.54755e-17)
(0.0199718 1.85541e-10 3.05438e-16)
(0.0199718 7.92939e-11 -6.28926e-17)
(0.0199718 1.47006e-10 2.4455e-16)
(0.0199718 1.80009e-10 9.7222e-17)
(0.0199718 1.87902e-10 -9.49147e-17)
(0.0199718 1.76527e-10 2.37806e-16)
(0.0199718 1.92246e-10 -8.53808e-17)
(0.0199718 1.81536e-10 3.89231e-16)
(0.0199718 3.18901e-10 2.07314e-16)
(0.0199718 3.54187e-10 -8.88395e-17)
(0.0199718 9.04547e-10 1.2627e-16)
(0.0199718 1.02023e-09 -9.21615e-17)
(0.0199717 2.64172e-09 1.78683e-16)
(0.0199717 2.95975e-09 1.74113e-16)
(0.0199716 5.58042e-09 -9.49126e-17)
(0.0199715 6.96304e-09 1.06779e-16)
(0.0199715 2.97896e-09 -1.37764e-16)
(0.0199714 1.71787e-09 1.51791e-16)
(0.0199714 7.59953e-10 1.77919e-16)
(0.0199714 1.94331e-12 -9.28323e-17)
(0.0199714 -3.47126e-10 1.20264e-16)
(0.0199714 -6.1853e-10 -6.51121e-17)
(0.0199714 -7.42369e-10 -1.90303e-16)
(0.0199714 -8.49228e-10 7.01781e-17)
(0.0199714 -7.0505e-10 -7.65794e-17)
(0.0199714 -7.06331e-10 2.77735e-16)
(0.0199714 1.50853e-10 -1.08958e-16)
(0.0199715 2.48862e-10 -1.9139e-16)
(0.0199714 3.33336e-09 9.80726e-17)
(0.0199714 4.05013e-09 -4.51376e-17)
(0.0199713 1.54437e-08 1.47411e-16)
(0.028203 2.52731e-08 2.02674e-16)
(0.0282028 -2.95665e-09 1.20344e-16)
(0.0282028 -1.49777e-09 1.99205e-16)
(0.0282028 3.37971e-09 -4.14792e-16)
(0.0282027 5.34049e-09 -4.42359e-16)
(0.0282027 6.5951e-09 -2.31694e-16)
(0.0282026 6.61372e-09 -2.49779e-16)
(0.0282025 5.98105e-09 -9.69118e-17)
(0.0282025 5.01598e-09 -1.22054e-17)
(0.0282024 3.9299e-09 -1.67555e-16)
(0.0282024 2.8701e-09 1.12854e-17)
(0.0282024 1.89961e-09 -1.9299e-16)
(0.0282023 1.02948e-09 -1.26185e-16)
(0.0282023 2.34569e-10 -3.289e-16)
(0.0282023 -5.17836e-10 -5.6913e-16)
(0.0282024 -1.24122e-09 -5.63514e-17)
(0.0282024 -1.92412e-09 -2.4661e-16)
(0.0282024 -2.54093e-09 -2.47622e-16)
(0.0282024 -3.07185e-09 -4.87761e-16)
(0.0282025 -3.51575e-09 -6.92526e-16)
(0.0282025 -3.89087e-09 -2.64673e-16)
(0.0282026 -4.22455e-09 -9.95397e-16)
(0.0282026 -4.53885e-09 -4.24521e-16)
(0.0282027 -4.84206e-09 -7.25235e-16)
(0.0282027 -5.12804e-09 -1.1352e-15)
(0.0282028 -5.38459e-09 -1.48068e-16)
(0.0282028 -5.60348e-09 -5.19868e-16)
(0.0282029 -5.78673e-09 -3.88267e-16)
(0.028203 -5.94537e-09 -7.57375e-16)
(0.028203 -6.09398e-09 -1.1231e-15)
(0.0282031 -6.24151e-09 -2.53407e-16)
(0.0282032 -6.39062e-09 -5.62027e-16)
(0.0282032 -6.53248e-09 -4.64592e-16)
(0.0282033 -6.6629e-09 -8.52244e-16)
(0.0282034 -6.7618e-09 -1.06247e-15)
(0.0282034 -6.84185e-09 -4.00225e-16)
(0.0282035 -6.84425e-09 -7.93062e-16)
(0.0282036 -6.83419e-09 -5.39164e-16)
(0.0282037 -6.57246e-09 -9.25843e-16)
(0.0282037 -6.36734e-09 -1.19429e-15)
(0.0282038 -5.30745e-09 -6.98728e-16)
(0.0282039 -4.74876e-09 -6.50363e-16)
(0.0282039 -1.6736e-09 -3.26479e-16)
(0.0282039 -5.03176e-10 -3.53095e-16)
(0.0282039 4.71671e-09 -2.72871e-16)
(0.0282039 7.6855e-09 -2.33651e-16)
(0.0282038 2.29595e-09 -3.96074e-16)
(0.0282038 2.31354e-10 -1.39919e-16)
(0.0282038 -1.42419e-09 -1.78528e-16)
(0.0282038 -2.53475e-09 -1.32652e-16)
(0.0282039 -3.76462e-09 -1.13138e-16)
(0.0282039 -4.13615e-09 -2.72795e-16)
(0.0282039 -4.10611e-09 -4.18386e-17)
(0.028204 -3.93618e-09 -1.51352e-16)
(0.028204 -3.69113e-09 9.70264e-17)
(0.0282041 -3.44206e-09 1.3984e-16)
(0.0282041 -3.201e-09 -1.31892e-16)
(0.0282041 -2.96506e-09 7.30936e-17)
(0.0282042 -2.72424e-09 -2.10767e-17)
(0.0282042 -2.4676e-09 2.54929e-16)
(0.0282042 -2.18851e-09 2.1928e-16)
(0.0282042 -1.886e-09 9.17035e-18)
(0.0282042 -1.56465e-09 1.94792e-16)
(0.0282043 -1.23282e-09 5.13703e-17)
(0.0282043 -9.00509e-10 3.5966e-16)
(0.0282043 -5.77574e-10 3.49183e-16)
(0.0282043 -2.72432e-10 8.43184e-17)
(0.0282043 8.13998e-12 2.50882e-16)
(0.0282043 2.5969e-10 1.28714e-16)
(0.0282043 4.79971e-10 3.68343e-16)
(0.0282043 6.68091e-10 3.31841e-16)
(0.0282043 8.24532e-10 1.54718e-16)
(0.0282042 9.50988e-10 3.5062e-16)
(0.0282042 1.05004e-09 2.25375e-16)
(0.0282042 1.12453e-09 4.16553e-16)
(0.0282042 1.17698e-09 4.10728e-16)
(0.0282042 1.2104e-09 2.132e-16)
(0.0282042 1.22653e-09 3.78969e-16)
(0.0282042 1.22931e-09 2.42133e-16)
(0.0282041 1.21872e-09 5.41261e-16)
(0.0282041 1.2048e-09 3.24997e-16)
(0.0282041 1.17902e-09 3.67105e-16)
(0.0282041 1.17697e-09 3.60211e-16)
(0.0282041 1.15003e-09 8.41711e-17)
(0.0282041 1.20741e-09 2.46341e-16)
(0.0282041 1.19226e-09 1.39933e-16)
(0.028204 1.21099e-09 3.19126e-16)
(0.028204 9.64704e-10 2.95924e-16)
(0.028204 6.60669e-10 2.82481e-17)
(0.028204 5.11011e-10 1.3817e-16)
(0.028204 3.19814e-10 -2.00097e-17)
(0.028204 4.18522e-10 8.35213e-17)
(0.028204 4.84067e-10 1.37108e-16)
(0.028204 5.02601e-10 -7.32638e-17)
(0.028204 4.91422e-10 2.2665e-17)
(0.028204 5.1055e-10 -6.2374e-17)
(0.028204 5.07475e-10 2.04611e-16)
(0.028204 7.19301e-10 2.76194e-16)
(0.0282039 8.30153e-10 -6.65499e-17)
(0.0282039 1.73622e-09 1.1334e-16)
(0.0282039 2.08122e-09 -8.88715e-17)
(0.0282039 4.85125e-09 1.41377e-16)
(0.0282038 5.69131e-09 2.26638e-16)
(0.0282038 1.03694e-08 -9.21777e-17)
(0.0282036 1.29491e-08 5.85741e-17)
(0.0282035 6.41249e-09 -1.54136e-16)
(0.0282035 3.71671e-09 1.58558e-16)
(0.0282034 1.78758e-09 2.37719e-16)
(0.0282034 3.00211e-10 -8.11644e-17)
(0.0282034 -4.73099e-10 1.63001e-16)
(0.0282034 -1.0295e-09 -5.46256e-17)
(0.0282034 -1.33388e-09 -1.70959e-16)
(0.0282035 -1.53817e-09 1.58074e-16)
(0.0282035 -1.37122e-09 -5.13775e-17)
(0.0282035 -1.29009e-09 1.12056e-16)
(0.0282035 7.26872e-11 -1.30385e-16)
(0.0282035 5.5232e-10 -1.82491e-16)
(0.0282035 5.73304e-09 1.89362e-16)
(0.0282034 7.76406e-09 -1.89676e-17)
(0.0282033 2.72594e-08 1.18239e-16)
(0.0364474 4.01268e-08 2.79865e-16)
(0.0364472 1.43027e-09 8.63644e-17)
(0.0364472 9.12057e-10 2.27762e-16)
(0.0364471 6.75454e-09 -2.07923e-16)
(0.036447 9.43525e-09 -2.46007e-16)
(0.0364469 1.10034e-08 -1.4339e-16)
(0.0364468 1.08882e-08 -1.2301e-16)
(0.0364467 9.8184e-09 -2.10899e-17)
(0.0364467 8.23595e-09 -1.28818e-16)
(0.0364466 6.44413e-09 -4.41417e-17)
(0.0364466 4.66399e-09 9.87921e-17)
(0.0364465 3.00912e-09 -3.16526e-16)
(0.0364465 1.51927e-09 -1.49387e-16)
(0.0364465 1.75052e-10 -5.0095e-16)
(0.0364465 -1.06752e-09 -4.81009e-16)
(0.0364466 -2.23896e-09 -5.88529e-17)
(0.0364466 -3.33991e-09 -4.21897e-16)
(0.0364466 -4.34654e-09 -3.09098e-16)
(0.0364467 -5.23279e-09 -7.03202e-16)
(0.0364467 -5.99007e-09 -7.99968e-16)
(0.0364468 -6.63443e-09 -2.62429e-16)
(0.0364468 -7.19838e-09 -5.79096e-16)
(0.0364469 -7.71443e-09 -4.37317e-16)
(0.0364469 -8.20143e-09 -3.84488e-16)
(0.036447 -8.6593e-09 -8.4389e-16)
(0.0364471 -9.07589e-09 -2.25759e-16)
(0.0364472 -9.43935e-09 -3.42635e-16)
(0.0364472 -9.7483e-09 -4.48456e-16)
(0.0364473 -1.00141e-08 -4.35191e-16)
(0.0364474 -1.02556e-08 -8.24254e-16)
(0.0364475 -1.04881e-08 -1.7506e-16)
(0.0364476 -1.07191e-08 -4.60776e-16)
(0.0364477 -1.09411e-08 -5.32691e-16)
(0.0364477 -1.1147e-08 -5.8077e-16)
(0.0364478 -1.13109e-08 -9.65699e-16)
(0.0364479 -1.14388e-08 -3.43198e-16)
(0.036448 -1.14569e-08 -5.02858e-16)
(0.0364481 -1.14296e-08 -6.40116e-16)
(0.0364482 -1.10525e-08 -6.79498e-16)
(0.0364483 -1.0687e-08 -9.46712e-16)
(0.0364484 -9.13261e-09 -7.65649e-16)
(0.0364485 -8.12365e-09 -5.37059e-16)
(0.0364485 -3.5769e-09 -3.4183e-16)
(0.0364485 -1.45173e-09 -4.75883e-16)
(0.0364485 6.45262e-09 -3.18509e-16)
(0.0364485 1.11932e-08 -2.91828e-16)
(0.0364484 3.87557e-09 -2.23389e-16)
(0.0364484 5.09918e-10 -1.10248e-16)
(0.0364484 -2.17242e-09 -2.42346e-16)
(0.0364484 -3.98666e-09 -1.3414e-16)
(0.0364485 -5.92533e-09 -1.42113e-16)
(0.0364485 -6.61445e-09 -1.11621e-16)
(0.0364486 -6.65161e-09 -2.50201e-18)
(0.0364486 -6.42435e-09 9.34645e-17)
(0.0364487 -6.06227e-09 2.05718e-17)
(0.0364487 -5.67509e-09 1.22901e-16)
(0.0364488 -5.2874e-09 5.73391e-17)
(0.0364488 -4.89699e-09 1.416e-16)
(0.0364488 -4.49005e-09 2.87871e-16)
(0.0364489 -4.05174e-09 3.51452e-16)
(0.0364489 -3.57405e-09 2.44946e-16)
(0.0364489 -3.0578e-09 3.00533e-16)
(0.0364489 -2.51199e-09 3.13702e-16)
(0.036449 -1.95127e-09 3.34206e-16)
(0.036449 -1.39233e-09 4.59972e-16)
(0.036449 -8.51377e-10 3.82268e-16)
(0.036449 -3.42003e-10 3.7183e-16)
(0.036449 1.24934e-10 3.80916e-16)
(0.036449 5.42701e-10 4.30494e-16)
(0.036449 9.07935e-10 3.28939e-16)
(0.036449 1.21954e-09 3.93296e-16)
(0.0364489 1.47866e-09 4.40405e-16)
(0.0364489 1.68834e-09 5.05913e-16)
(0.0364489 1.85279e-09 5.83678e-16)
(0.0364489 1.97666e-09 2.76383e-16)
(0.0364489 2.06444e-09 4.75069e-16)
(0.0364489 2.12092e-09 5.61209e-16)
(0.0364488 2.14957e-09 5.5506e-16)
(0.0364488 2.15618e-09 5.89156e-16)
(0.0364488 2.14218e-09 4.76937e-16)
(0.0364488 2.12109e-09 8.18213e-16)
(0.0364488 2.08385e-09 1.60458e-16)
(0.0364488 2.07815e-09 4.20805e-16)
(0.0364487 2.04229e-09 4.53537e-16)
(0.0364487 2.12422e-09 3.44837e-16)
(0.0364487 2.1123e-09 5.61444e-16)
(0.0364487 2.13988e-09 3.69533e-16)
(0.0364487 1.78279e-09 3.30675e-16)
(0.0364486 1.32382e-09 3.88633e-16)
(0.0364486 1.06953e-09 -2.54657e-17)
(0.0364486 7.75291e-10 3.92336e-16)
(0.0364486 8.97445e-10 3.36157e-17)
(0.0364486 9.98605e-10 1.81079e-16)
(0.0364486 1.03482e-09 2.75801e-16)
(0.0364486 1.02741e-09 2.34059e-17)
(0.0364486 1.05084e-09 2.89089e-16)
(0.0364485 1.05508e-09 1.10282e-16)
(0.0364485 1.34243e-09 3.1844e-16)
(0.0364485 1.53951e-09 2.72529e-16)
(0.0364485 2.82766e-09 -2.29204e-17)
(0.0364485 3.46725e-09 2.367e-16)
(0.0364484 7.50434e-09 1.85136e-16)
(0.0364484 9.06029e-09 2.5672e-16)
(0.0364483 1.60949e-08 2.20209e-16)
(0.0364482 2.0142e-08 8.8841e-17)
(0.036448 1.1052e-08 1.52398e-16)
(0.036448 6.60691e-09 1.59213e-16)
(0.0364479 3.37549e-09 2.80339e-16)
(0.0364479 9.42448e-10 2.42432e-16)
(0.0364479 -4.30375e-10 1.78603e-16)
(0.0364479 -1.39282e-09 2.86565e-16)
(0.0364479 -1.96394e-09 2.33332e-16)
(0.0364479 -2.32577e-09 3.21293e-16)
(0.0364479 -2.17104e-09 2.83725e-16)
(0.036448 -2.0113e-09 1.11978e-16)
(0.036448 -1.05203e-10 1.79618e-16)
(0.036448 8.60524e-10 2.00694e-16)
(0.0364479 8.39606e-09 3.48276e-16)
(0.0364479 1.21241e-08 3.13241e-16)
(0.0364478 4.05068e-08 1.87323e-16)
(0.0444473 5.72828e-08 4.03555e-16)
(0.0444471 9.42897e-09 1.22418e-16)
(0.044447 6.1454e-09 2.43771e-16)
(0.0444468 1.18327e-08 5.34559e-17)
(0.0444467 1.47778e-08 -1.12e-17)
(0.0444466 1.63817e-08 -1.92808e-17)
(0.0444465 1.59756e-08 2.45817e-17)
(0.0444464 1.43617e-08 8.59189e-17)
(0.0444464 1.20561e-08 1.01044e-16)
(0.0444463 9.43341e-09 7.13617e-17)
(0.0444463 6.78429e-09 1.9766e-16)
(0.0444462 4.28386e-09 -2.02906e-16)
(0.0444462 2.01849e-09 -1.23767e-16)
(0.0444462 -8.27471e-12 -4.22133e-16)
(0.0444462 -1.84422e-09 -4.82874e-16)
(0.0444462 -3.54237e-09 -4.79789e-17)
(0.0444463 -5.12905e-09 -3.61212e-16)
(0.0444463 -6.59506e-09 -3.28987e-16)
(0.0444464 -7.91324e-09 -6.60365e-16)
(0.0444464 -9.06366e-09 -7.6932e-16)
(0.0444465 -1.00511e-08 -5.03044e-16)
(0.0444465 -1.09054e-08 -4.76087e-16)
(0.0444466 -1.16673e-08 -3.97988e-16)
(0.0444467 -1.23704e-08 -5.002e-16)
(0.0444468 -1.30279e-08 -6.27262e-16)
(0.0444468 -1.36339e-08 -3.62545e-16)
(0.0444469 -1.41741e-08 -5.13394e-16)
(0.044447 -1.46412e-08 -5.24155e-16)
(0.0444471 -1.50419e-08 -5.88127e-16)
(0.0444472 -1.53968e-08 -6.91679e-16)
(0.0444473 -1.57278e-08 -3.98551e-16)
(0.0444474 -1.60505e-08 -6.03139e-16)
(0.0444475 -1.63625e-08 -6.25343e-16)
(0.0444476 -1.66561e-08 -7.35791e-16)
(0.0444477 -1.68979e-08 -8.31324e-16)
(0.0444478 -1.70868e-08 -5.79385e-16)
(0.0444479 -1.7128e-08 -7.33773e-16)
(0.044448 -1.70865e-08 -7.52092e-16)
(0.0444481 -1.65858e-08 -8.68808e-16)
(0.0444483 -1.60422e-08 -8.38485e-16)
(0.0444483 -1.39594e-08 -7.65355e-16)
(0.0444484 -1.24302e-08 -1.78412e-16)
(0.0444485 -6.32003e-09 -3.18407e-16)
(0.0444486 -3.04801e-09 -3.7207e-16)
(0.0444486 7.77212e-09 -3.04277e-16)
(0.0444485 1.45612e-08 -3.41803e-16)
(0.0444485 5.58006e-09 -1.25921e-18)
(0.0444485 8.94865e-10 -5.54782e-17)
(0.0444485 -2.96249e-09 -1.11274e-16)
(0.0444485 -5.59348e-09 -8.41674e-17)
(0.0444485 -8.34633e-09 -1.65617e-16)
(0.0444486 -9.44421e-09 1.17272e-17)
(0.0444486 -9.61584e-09 5.07705e-17)
(0.0444487 -9.36223e-09 2.32417e-16)
(0.0444487 -8.89187e-09 2.51352e-16)
(0.0444488 -8.35848e-09 1.12319e-16)
(0.0444488 -7.80345e-09 3.63007e-16)
(0.0444489 -7.22736e-09 2.30682e-16)
(0.0444489 -6.61425e-09 5.9408e-16)
(0.0444489 -5.94723e-09 4.94421e-16)
(0.044449 -5.21897e-09 2.55015e-16)
(0.044449 -4.43435e-09 4.4255e-16)
(0.044449 -3.60888e-09 4.58343e-16)
(0.0444491 -2.76518e-09 8.46363e-16)
(0.0444491 -1.92802e-09 5.66622e-16)
(0.0444491 -1.12096e-09 4.12796e-16)
(0.0444491 -3.63597e-10 6.92241e-16)
(0.0444491 3.28933e-10 5.31345e-16)
(0.0444491 9.47293e-10 9.47039e-16)
(0.0444491 1.48705e-09 6.51155e-16)
(0.044449 1.94722e-09 4.53021e-16)
(0.044449 2.33008e-09 6.51159e-16)
(0.044449 2.64025e-09 6.64966e-16)
(0.044449 2.88392e-09 8.02465e-16)
(0.044449 3.06807e-09 7.54613e-16)
(0.0444489 3.19943e-09 5.49386e-16)
(0.0444489 3.28494e-09 9.05883e-16)
(0.0444489 3.33037e-09 7.42873e-16)
(0.0444489 3.34369e-09 8.41447e-16)
(0.0444489 3.32804e-09 7.84062e-16)
(0.0444488 3.30079e-09 1.22372e-15)
(0.0444488 3.25266e-09 6.06133e-16)
(0.0444488 3.24369e-09 5.14493e-16)
(0.0444488 3.20022e-09 7.87385e-16)
(0.0444487 3.30887e-09 4.0876e-16)
(0.0444487 3.30486e-09 1.20798e-15)
(0.0444487 3.34525e-09 4.55131e-16)
(0.0444487 2.87877e-09 4.09612e-16)
(0.0444487 2.25804e-09 7.28446e-16)
(0.0444486 1.8835e-09 1.02433e-16)
(0.0444486 1.47263e-09 9.09213e-16)
(0.0444486 1.60841e-09 3.34247e-16)
(0.0444486 1.74333e-09 2.7425e-16)
(0.0444486 1.80268e-09 6.2841e-16)
(0.0444486 1.80166e-09 -1.60376e-16)
(0.0444486 1.8302e-09 6.49763e-16)
(0.0444485 1.83676e-09 3.51567e-16)
(0.0444485 2.19439e-09 3.92191e-16)
(0.0444485 2.47196e-09 5.98724e-16)
(0.0444485 4.14319e-09 2.26545e-16)
(0.0444485 5.10686e-09 5.9276e-16)
(0.0444484 1.04534e-08 2.20543e-16)
(0.0444484 1.28593e-08 3.29633e-16)
(0.0444483 2.24173e-08 5.00974e-16)
(0.0444481 2.81314e-08 1.37205e-16)
(0.044448 1.6672e-08 5.02656e-16)
(0.0444479 1.03612e-08 2.15539e-16)
(0.0444479 5.58151e-09 3.37535e-16)
(0.0444478 2.01819e-09 5.38656e-16)
(0.0444478 -1.15317e-10 7.66978e-17)
(0.0444478 -1.60738e-09 5.5958e-16)
(0.0444478 -2.53517e-09 6.32189e-16)
(0.0444478 -3.12774e-09 5.182e-16)
(0.0444478 -3.02995e-09 5.73746e-16)
(0.0444479 -2.82537e-09 1.33202e-16)
(0.0444479 -3.69039e-10 5.08824e-16)
(0.0444479 1.11782e-09 5.70759e-16)
(0.0444478 1.11556e-08 5.31173e-16)
(0.0444478 1.6743e-08 5.99423e-16)
(0.0444477 5.44148e-08 2.49267e-16)
(0.0518795 7.59604e-08 5.74035e-16)
(0.0518792 2.05794e-08 3.35033e-16)
(0.051879 1.4104e-08 3.38876e-16)
(0.0518789 1.85725e-08 2.70547e-16)
(0.0518788 2.11734e-08 1.96818e-16)
(0.0518786 2.24669e-08 1.56758e-16)
(0.0518785 2.15952e-08 1.81728e-16)
(0.0518784 1.93514e-08 2.08401e-16)
(0.0518784 1.62665e-08 2.00754e-16)
(0.0518783 1.27533e-08 1.87411e-16)
(0.0518782 9.15697e-09 2.99335e-16)
(0.0518782 5.71458e-09 -2.87585e-16)
(0.0518782 2.56937e-09 -7.5293e-17)
(0.0518782 -2.37416e-10 -4.18426e-16)
(0.0518782 -2.74651e-09 -4.40711e-16)
(0.0518782 -5.03218e-09 5.0418e-17)
(0.0518783 -7.1538e-09 -3.94145e-16)
(0.0518783 -9.1272e-09 -3.25288e-16)
(0.0518783 -1.09313e-08 -7.01789e-16)
(0.0518784 -1.25349e-08 -6.9727e-16)
(0.0518785 -1.39259e-08 -6.51628e-16)
(0.0518785 -1.51239e-08 -4.06115e-16)
(0.0518786 -1.61735e-08 -3.53066e-16)
(0.0518787 -1.71236e-08 -7.16433e-16)
(0.0518788 -1.80056e-08 -4.46819e-16)
(0.0518789 -1.88249e-08 -4.28113e-16)
(0.051879 -1.95684e-08 -6.90888e-16)
(0.0518791 -2.02214e-08 -5.914e-16)
(0.0518792 -2.07836e-08 -7.4507e-16)
(0.0518793 -2.12736e-08 -5.50795e-16)
(0.0518794 -2.17188e-08 -5.0945e-16)
(0.0518795 -2.21447e-08 -7.66529e-16)
(0.0518796 -2.25564e-08 -6.99178e-16)
(0.0518797 -2.29488e-08 -9.80623e-16)
(0.0518798 -2.3281e-08 -7.18375e-16)
(0.0518799 -2.35447e-08 -6.98621e-16)
(0.05188 -2.36203e-08 -9.47063e-16)
(0.0518802 -2.3574e-08 -8.38692e-16)
(0.0518803 -2.29539e-08 -1.15151e-15)
(0.0518804 -2.22312e-08 -7.7448e-16)
(0.0518805 -1.96168e-08 -7.27587e-16)
(0.0518806 -1.75385e-08 -3.07633e-16)
(0.0518807 -9.85112e-09 -3.02912e-16)
(0.0518807 -5.32502e-09 -2.90809e-16)
(0.0518808 8.50882e-09 -3.01719e-16)
(0.0518807 1.7534e-08 -3.6501e-16)
(0.0518807 7.2269e-09 8.30899e-18)
(0.0518807 1.347e-09 -2.96354e-17)
(0.0518807 -3.7168e-09 -7.94452e-18)
(0.0518807 -7.22334e-09 -6.55108e-17)
(0.0518807 -1.08564e-08 -1.7627e-16)
(0.0518808 -1.24396e-08 1.5618e-16)
(0.0518808 -1.28178e-08 9.47691e-17)
(0.0518809 -1.25863e-08 4.33321e-16)
(0.0518809 -1.20349e-08 3.78239e-16)
(0.051881 -1.13638e-08 6.1435e-17)
(0.051881 -1.06342e-08 4.01836e-16)
(0.0518811 -9.8525e-09 3.28824e-16)
(0.0518811 -9.00362e-09 7.00443e-16)
(0.0518812 -8.07162e-09 6.13854e-16)
(0.0518812 -7.05295e-09 2.35925e-16)
(0.0518812 -5.95896e-09 6.79714e-16)
(0.0518813 -4.81358e-09 5.45545e-16)
(0.0518813 -3.64858e-09 7.9486e-16)
(0.0518813 -2.49761e-09 7.35442e-16)
(0.0518813 -1.39191e-09 3.9527e-16)
(0.0518813 -3.57201e-10 7.79814e-16)
(0.0518813 5.87216e-10 6.43282e-16)
(0.0518813 1.42938e-09 9.19038e-16)
(0.0518813 2.16385e-09 8.39053e-16)
(0.0518813 2.7902e-09 4.72884e-16)
(0.0518813 3.31193e-09 8.89225e-16)
(0.0518812 3.73564e-09 7.9521e-16)
(0.0518812 4.06959e-09 1.08809e-15)
(0.0518812 4.32331e-09 9.6482e-16)