/*--------------------------------*- C++ -*----------------------------------*\
  =========                 |
  \\      /  F ield         | OpenFOAM: The Open Source CFD Toolbox
   \\    /   O peration     | Website:  https://openfoam.org
    \\  /    A nd           | Version:  7
     \\/     M anipulation  |
\*---------------------------------------------------------------------------*/
FoamFile
{
    version     2.0;
    format      ascii;
    class       volScalarField;
    location    "1000";
    object      k;
}
// * * * * * * * * * * * * * * * * * * * * * * * * * * * * * * * * * * * * * //

dimensions      [0 2 -2 0 0 0 0];

internalField   nonuniform List<scalar> 
4026
(
0.000108793
0.000108786
0.000108788
0.000108791
0.000108794
0.000108797
0.0001088
0.000108802
0.000108805
0.000108807
0.00010881
0.000108812
0.000108815
0.000108817
0.000108819
0.000108821
0.000108823
0.000108825
0.000108827
0.000108829
0.000108831
0.000108833
0.000108835
0.000108837
0.000108838
0.00010884
0.000108842
0.000108843
0.000108845
0.000108846
0.000108848
0.000108849
0.000108851
0.000108852
0.000108854
0.000108855
0.000108856
0.000108857
0.000108858
0.00010886
0.000108861
0.000108862
0.000108863
0.000108863
0.000108868
0.000108787
0.000108788
0.000108792
0.000108796
0.000108799
0.000108802
0.000108805
0.000108807
0.00010881
0.000108812
0.000108815
0.000108817
0.000108819
0.000108822
0.000108822
0.000108832
0.00010518
0.000105173
0.000105174
0.000105176
0.000105179
0.000105182
0.000105185
0.000105188
0.000105191
0.000105193
0.000105196
0.000105198
0.0001052
0.000105203
0.000105205
0.000105207
0.000105209
0.000105211
0.000105213
0.000105215
0.000105217
0.000105219
0.000105221
0.000105223
0.000105224
0.000105226
0.000105228
0.000105229
0.000105231
0.000105233
0.000105234
0.000105236
0.000105237
0.000105238
0.00010524
0.000105241
0.000105242
0.000105243
0.000105245
0.000105246
0.000105247
0.000105248
0.000105249
0.000105249
0.000105256
0.000105172
0.000105171
0.000105175
0.00010518
0.000105183
0.000105187
0.00010519
0.000105193
0.000105196
0.000105198
0.000105201
0.000105203
0.000105205
0.000105208
0.000105208
0.000105218
0.000101574
0.000101567
0.000101568
0.00010157
0.000101573
0.000101576
0.000101579
0.000101582
0.000101584
0.000101587
0.000101589
0.000101592
0.000101594
0.000101596
0.000101599
0.000101601
0.000101603
0.000101605
0.000101607
0.000101609
0.000101611
0.000101613
0.000101615
0.000101616
0.000101618
0.00010162
0.000101621
0.000101623
0.000101625
0.000101626
0.000101628
0.000101629
0.000101631
0.000101632
0.000101633
0.000101635
0.000101636
0.000101637
0.000101638
0.00010164
0.000101641
0.000101642
0.000101643
0.000101643
0.000101651
0.000101568
0.000101564
0.000101568
0.000101572
0.000101576
0.00010158
0.000101583
0.000101587
0.000101589
0.000101592
0.000101595
0.000101597
0.000101599
0.000101602
0.000101602
0.000101612
9.7996e-05
9.79893e-05
9.799e-05
9.79925e-05
9.79953e-05
9.79983e-05
9.80012e-05
9.8004e-05
9.80067e-05
9.80093e-05
9.80118e-05
9.80142e-05
9.80165e-05
9.80188e-05
9.80211e-05
9.80233e-05
9.80254e-05
9.80274e-05
9.80294e-05
9.80314e-05
9.80332e-05
9.80351e-05
9.80369e-05
9.80387e-05
9.80405e-05
9.80422e-05
9.80438e-05
9.80455e-05
9.80471e-05
9.80486e-05
9.80501e-05
9.80516e-05
9.80531e-05
9.80545e-05
9.80558e-05
9.80571e-05
9.80584e-05
9.80596e-05
9.80608e-05
9.8062e-05
9.80631e-05
9.80641e-05
9.80655e-05
9.80651e-05
9.80736e-05
9.79951e-05
9.7989e-05
9.79913e-05
9.79952e-05
9.79992e-05
9.80029e-05
9.80063e-05
9.80094e-05
9.80123e-05
9.8015e-05
9.80175e-05
9.802e-05
9.80222e-05
9.80248e-05
9.80253e-05
9.80349e-05
9.44646e-05
9.44579e-05
9.44587e-05
9.44612e-05
9.44641e-05
9.4467e-05
9.44698e-05
9.44726e-05
9.44753e-05
9.44779e-05
9.44804e-05
9.44828e-05
9.44851e-05
9.44874e-05
9.44897e-05
9.44919e-05
9.4494e-05
9.4496e-05
9.4498e-05
9.44999e-05
9.45018e-05
9.45037e-05
9.45055e-05
9.45073e-05
9.4509e-05
9.45107e-05
9.45123e-05
9.4514e-05
9.45156e-05
9.45171e-05
9.45186e-05
9.45201e-05
9.45215e-05
9.45229e-05
9.45243e-05
9.45256e-05
9.45269e-05
9.45281e-05
9.45293e-05
9.45305e-05
9.45316e-05
9.45326e-05
9.4534e-05
9.45335e-05
9.45422e-05
9.44695e-05
9.44619e-05
9.44628e-05
9.44659e-05
9.44694e-05
9.44728e-05
9.4476e-05
9.4479e-05
9.44818e-05
9.44845e-05
9.4487e-05
9.44894e-05
9.44916e-05
9.44941e-05
9.44945e-05
9.45041e-05
9.09968e-05
9.099e-05
9.09908e-05
9.09933e-05
9.09962e-05
9.09991e-05
9.10019e-05
9.10047e-05
9.10074e-05
9.10099e-05
9.10124e-05
9.10148e-05
9.10171e-05
9.10194e-05
9.10216e-05
9.10238e-05
9.10259e-05
9.10279e-05
9.10299e-05
9.10318e-05
9.10337e-05
9.10355e-05
9.10373e-05
9.1039e-05
9.10408e-05
9.10424e-05
9.10441e-05
9.10457e-05
9.10473e-05
9.10488e-05
9.10503e-05
9.10518e-05
9.10532e-05
9.10546e-05
9.10559e-05
9.10572e-05
9.10585e-05
9.10597e-05
9.10609e-05
9.10621e-05
9.10632e-05
9.10642e-05
9.10656e-05
9.10651e-05
9.10739e-05
9.10076e-05
9.09991e-05
9.0999e-05
9.10011e-05
9.1004e-05
9.10069e-05
9.10098e-05
9.10126e-05
9.10152e-05
9.10177e-05
9.10201e-05
9.10224e-05
9.10245e-05
9.10269e-05
9.10272e-05
9.10368e-05
8.76092e-05
8.76023e-05
8.76031e-05
8.76056e-05
8.76084e-05
8.76112e-05
8.76141e-05
8.76168e-05
8.76194e-05
8.76219e-05
8.76243e-05
8.76267e-05
8.7629e-05
8.76312e-05
8.76334e-05
8.76356e-05
8.76377e-05
8.76397e-05
8.76416e-05
8.76435e-05
8.76454e-05
8.76472e-05
8.7649e-05
8.76507e-05
8.76524e-05
8.7654e-05
8.76557e-05
8.76572e-05
8.76588e-05
8.76603e-05
8.76618e-05
8.76632e-05
8.76646e-05
8.7666e-05
8.76673e-05
8.76686e-05
8.76699e-05
8.76711e-05
8.76723e-05
8.76734e-05
8.76746e-05
8.76756e-05
8.76769e-05
8.76764e-05
8.76852e-05
8.76257e-05
8.76166e-05
8.76158e-05
8.76172e-05
8.76193e-05
8.76217e-05
8.76242e-05
8.76266e-05
8.7629e-05
8.76313e-05
8.76334e-05
8.76356e-05
8.76375e-05
8.76398e-05
8.76401e-05
8.76495e-05
8.43178e-05
8.43108e-05
8.43115e-05
8.43139e-05
8.43167e-05
8.43195e-05
8.43222e-05
8.43249e-05
8.43275e-05
8.43299e-05
8.43323e-05
8.43346e-05
8.43368e-05
8.4339e-05
8.43412e-05
8.43433e-05
8.43454e-05
8.43473e-05
8.43493e-05
8.43511e-05
8.43529e-05
8.43547e-05
8.43565e-05
8.43582e-05
8.43598e-05
8.43615e-05
8.4363e-05
8.43646e-05
8.43661e-05
8.43676e-05
8.43691e-05
8.43705e-05
8.43719e-05
8.43732e-05
8.43745e-05
8.43758e-05
8.4377e-05
8.43782e-05
8.43794e-05
8.43805e-05
8.43816e-05
8.43826e-05
8.4384e-05
8.43834e-05
8.43921e-05
8.43394e-05
8.433e-05
8.43287e-05
8.43295e-05
8.4331e-05
8.43329e-05
8.43349e-05
8.4337e-05
8.43391e-05
8.43411e-05
8.4343e-05
8.43449e-05
8.43467e-05
8.43489e-05
8.4349e-05
8.43582e-05
8.11378e-05
8.11307e-05
8.11313e-05
8.11336e-05
8.11363e-05
8.1139e-05
8.11416e-05
8.11442e-05
8.11467e-05
8.11491e-05
8.11514e-05
8.11536e-05
8.11558e-05
8.11579e-05
8.11601e-05
8.11621e-05
8.11641e-05
8.1166e-05
8.11679e-05
8.11697e-05
8.11715e-05
8.11732e-05
8.11749e-05
8.11766e-05
8.11782e-05
8.11798e-05
8.11814e-05
8.11829e-05
8.11844e-05
8.11858e-05
8.11872e-05
8.11886e-05
8.119e-05
8.11913e-05
8.11926e-05
8.11938e-05
8.1195e-05
8.11962e-05
8.11973e-05
8.11984e-05
8.11995e-05
8.12005e-05
8.12018e-05
8.12012e-05
8.12097e-05
8.11636e-05
8.11541e-05
8.11525e-05
8.11529e-05
8.1154e-05
8.11554e-05
8.1157e-05
8.11587e-05
8.11605e-05
8.11622e-05
8.11639e-05
8.11655e-05
8.11671e-05
8.11691e-05
8.1169e-05
8.1178e-05
7.80833e-05
7.80762e-05
7.80766e-05
7.80788e-05
7.80813e-05
7.80839e-05
7.80864e-05
7.80889e-05
7.80913e-05
7.80936e-05
7.80958e-05
7.80979e-05
7.81e-05
7.81021e-05
7.81041e-05
7.81061e-05
7.81081e-05
7.81099e-05
7.81118e-05
7.81135e-05
7.81152e-05
7.81169e-05
7.81186e-05
7.81202e-05
7.81218e-05
7.81233e-05
7.81248e-05
7.81263e-05
7.81277e-05
7.81291e-05
7.81305e-05
7.81318e-05
7.81331e-05
7.81344e-05
7.81357e-05
7.81369e-05
7.8138e-05
7.81392e-05
7.81403e-05
7.81413e-05
7.81424e-05
7.81433e-05
7.81446e-05
7.8144e-05
7.81523e-05
7.81123e-05
7.81028e-05
7.81011e-05
7.81013e-05
7.8102e-05
7.81031e-05
7.81043e-05
7.81057e-05
7.81071e-05
7.81086e-05
7.811e-05
7.81114e-05
7.81128e-05
7.81145e-05
7.81144e-05
7.8123e-05
7.51671e-05
7.516e-05
7.51603e-05
7.51623e-05
7.51646e-05
7.51671e-05
7.51695e-05
7.51718e-05
7.51741e-05
7.51763e-05
7.51784e-05
7.51804e-05
7.51824e-05
7.51844e-05
7.51864e-05
7.51883e-05
7.51901e-05
7.51919e-05
7.51937e-05
7.51954e-05
7.5197e-05
7.51987e-05
7.52003e-05
7.52018e-05
7.52033e-05
7.52048e-05
7.52063e-05
7.52077e-05
7.52091e-05
7.52104e-05
7.52117e-05
7.5213e-05
7.52143e-05
7.52155e-05
7.52167e-05
7.52179e-05
7.5219e-05
7.52201e-05
7.52211e-05
7.52222e-05
7.52232e-05
7.5224e-05
7.52253e-05
7.52246e-05
7.52327e-05
7.51982e-05
7.51889e-05
7.51872e-05
7.51872e-05
7.51878e-05
7.51886e-05
7.51896e-05
7.51907e-05
7.51918e-05
7.5193e-05
7.51942e-05
7.51954e-05
7.51966e-05
7.51981e-05
7.51978e-05
7.5206e-05
7.24005e-05
7.23936e-05
7.23938e-05
7.23956e-05
7.23978e-05
7.24e-05
7.24022e-05
7.24045e-05
7.24066e-05
7.24087e-05
7.24106e-05
7.24126e-05
7.24145e-05
7.24164e-05
7.24182e-05
7.242e-05
7.24218e-05
7.24235e-05
7.24252e-05
7.24268e-05
7.24284e-05
7.24299e-05
7.24314e-05
7.24329e-05
7.24344e-05
7.24358e-05
7.24372e-05
7.24385e-05
7.24399e-05
7.24412e-05
7.24424e-05
7.24436e-05
7.24448e-05
7.2446e-05
7.24472e-05
7.24483e-05
7.24493e-05
7.24504e-05
7.24514e-05
7.24523e-05
7.24533e-05
7.24541e-05
7.24553e-05
7.24546e-05
7.24623e-05
7.24328e-05
7.24238e-05
7.24221e-05
7.24221e-05
7.24226e-05
7.24233e-05
7.24241e-05
7.2425e-05
7.24259e-05
7.24269e-05
7.24278e-05
7.24288e-05
7.24298e-05
7.24311e-05
7.24307e-05
7.24385e-05
6.97935e-05
6.97866e-05
6.97867e-05
6.97884e-05
6.97904e-05
6.97925e-05
6.97945e-05
6.97966e-05
6.97986e-05
6.98005e-05
6.98024e-05
6.98042e-05
6.9806e-05
6.98077e-05
6.98094e-05
6.98112e-05
6.98128e-05
6.98145e-05
6.9816e-05
6.98176e-05
6.98191e-05
6.98205e-05
6.9822e-05
6.98234e-05
6.98247e-05
6.98261e-05
6.98274e-05
6.98287e-05
6.98299e-05
6.98312e-05
6.98323e-05
6.98335e-05
6.98346e-05
6.98357e-05
6.98368e-05
6.98379e-05
6.98389e-05
6.98398e-05
6.98408e-05
6.98417e-05
6.98426e-05
6.98434e-05
6.98444e-05
6.98438e-05
6.98511e-05
6.98258e-05
6.98172e-05
6.98157e-05
6.98157e-05
6.98161e-05
6.98167e-05
6.98174e-05
6.98182e-05
6.98189e-05
6.98197e-05
6.98206e-05
6.98214e-05
6.98222e-05
6.98233e-05
6.98228e-05
6.98301e-05
6.73537e-05
6.73471e-05
6.73471e-05
6.73486e-05
6.73504e-05
6.73523e-05
6.73542e-05
6.73561e-05
6.73579e-05
6.73597e-05
6.73614e-05
6.73631e-05
6.73648e-05
6.73664e-05
6.7368e-05
6.73696e-05
6.73712e-05
6.73727e-05
6.73742e-05
6.73756e-05
6.7377e-05
6.73784e-05
6.73797e-05
6.7381e-05
6.73823e-05
6.73836e-05
6.73848e-05
6.7386e-05
6.73872e-05
6.73883e-05
6.73895e-05
6.73905e-05
6.73916e-05
6.73926e-05
6.73936e-05
6.73946e-05
6.73955e-05
6.73964e-05
6.73973e-05
6.73982e-05
6.7399e-05
6.73997e-05
6.74007e-05
6.74001e-05
6.74069e-05
6.73851e-05
6.73771e-05
6.73757e-05
6.73758e-05
6.73763e-05
6.73769e-05
6.73775e-05
6.73781e-05
6.73788e-05
6.73795e-05
6.73802e-05
6.73809e-05
6.73815e-05
6.73825e-05
6.73819e-05
6.73888e-05
6.5087e-05
6.50807e-05
6.50806e-05
6.5082e-05
6.50837e-05
6.50854e-05
6.50871e-05
6.50888e-05
6.50905e-05
6.50922e-05
6.50937e-05
6.50953e-05
6.50968e-05
6.50983e-05
6.50998e-05
6.51013e-05
6.51027e-05
6.51041e-05
6.51055e-05
6.51068e-05
6.51081e-05
6.51094e-05
6.51106e-05
6.51119e-05
6.5113e-05
6.51142e-05
6.51154e-05
6.51165e-05
6.51176e-05
6.51186e-05
6.51196e-05
6.51206e-05
6.51216e-05
6.51226e-05
6.51235e-05
6.51244e-05
6.51252e-05
6.51261e-05
6.51269e-05
6.51276e-05
6.51284e-05
6.5129e-05
6.51299e-05
6.51293e-05
6.51357e-05
6.51169e-05
6.51095e-05
6.51083e-05
6.51085e-05
6.5109e-05
6.51095e-05
6.51101e-05
6.51108e-05
6.51114e-05
6.5112e-05
6.51126e-05
6.51132e-05
6.51137e-05
6.51146e-05
6.5114e-05
6.51203e-05
6.29971e-05
6.29912e-05
6.29911e-05
6.29923e-05
6.29938e-05
6.29953e-05
6.29969e-05
6.29985e-05
6.3e-05
6.30015e-05
6.30029e-05
6.30043e-05
6.30057e-05
6.30071e-05
6.30085e-05
6.30098e-05
6.30111e-05
6.30124e-05
6.30137e-05
6.30149e-05
6.30161e-05
6.30172e-05
6.30184e-05
6.30195e-05
6.30206e-05
6.30217e-05
6.30227e-05
6.30237e-05
6.30247e-05
6.30257e-05
6.30266e-05
6.30275e-05
6.30284e-05
6.30293e-05
6.30301e-05
6.30309e-05
6.30317e-05
6.30325e-05
6.30332e-05
6.30339e-05
6.30345e-05
6.30351e-05
6.30359e-05
6.30353e-05
6.30412e-05
6.30249e-05
6.3018e-05
6.3017e-05
6.30173e-05
6.30179e-05
6.30185e-05
6.30191e-05
6.30197e-05
6.30203e-05
6.30209e-05
6.30214e-05
6.3022e-05
6.30225e-05
6.30232e-05
6.30226e-05
6.30284e-05
6.10854e-05
6.10799e-05
6.10798e-05
6.10809e-05
6.10822e-05
6.10837e-05
6.10851e-05
6.10865e-05
6.10879e-05
6.10892e-05
6.10905e-05
6.10918e-05
6.1093e-05
6.10943e-05
6.10955e-05
6.10967e-05
6.10979e-05
6.10991e-05
6.11002e-05
6.11013e-05
6.11024e-05
6.11035e-05
6.11045e-05
6.11055e-05
6.11065e-05
6.11075e-05
6.11084e-05
6.11093e-05
6.11102e-05
6.11111e-05
6.11119e-05
6.11128e-05
6.11136e-05
6.11143e-05
6.11151e-05
6.11158e-05
6.11165e-05
6.11172e-05
6.11178e-05
6.11184e-05
6.1119e-05
6.11195e-05
6.11201e-05
6.11196e-05
6.11249e-05
6.11107e-05
6.11045e-05
6.11037e-05
6.11041e-05
6.11047e-05
6.11053e-05
6.1106e-05
6.11066e-05
6.11072e-05
6.11078e-05
6.11083e-05
6.11088e-05
6.11092e-05
6.11098e-05
6.11092e-05
6.11146e-05
5.93513e-05
5.93462e-05
5.93461e-05
5.93471e-05
5.93483e-05
5.93496e-05
5.93509e-05
5.93521e-05
5.93534e-05
5.93546e-05
5.93558e-05
5.93569e-05
5.9358e-05
5.93591e-05
5.93602e-05
5.93613e-05
5.93624e-05
5.93634e-05
5.93645e-05
5.93654e-05
5.93664e-05
5.93673e-05
5.93683e-05
5.93692e-05
5.93701e-05
5.93709e-05
5.93718e-05
5.93726e-05
5.93734e-05
5.93741e-05
5.93749e-05
5.93756e-05
5.93763e-05
5.9377e-05
5.93776e-05
5.93783e-05
5.93789e-05
5.93794e-05
5.938e-05
5.93805e-05
5.9381e-05
5.93814e-05
5.9382e-05
5.93814e-05
5.93862e-05
5.93737e-05
5.93682e-05
5.93676e-05
5.9368e-05
5.93687e-05
5.93694e-05
5.93701e-05
5.93707e-05
5.93713e-05
5.93719e-05
5.93724e-05
5.93728e-05
5.93732e-05
5.93738e-05
5.93733e-05
5.9378e-05
5.77918e-05
5.77872e-05
5.77871e-05
5.7788e-05
5.77891e-05
5.77903e-05
5.77914e-05
5.77926e-05
5.77937e-05
5.77947e-05
5.77958e-05
5.77968e-05
5.77978e-05
5.77988e-05
5.77997e-05
5.78007e-05
5.78017e-05
5.78026e-05
5.78035e-05
5.78044e-05
5.78052e-05
5.7806e-05
5.78069e-05
5.78077e-05
5.78084e-05
5.78092e-05
5.78099e-05
5.78106e-05
5.78113e-05
5.7812e-05
5.78126e-05
5.78133e-05
5.78139e-05
5.78145e-05
5.7815e-05
5.78155e-05
5.78161e-05
5.78165e-05
5.7817e-05
5.78174e-05
5.78178e-05
5.78181e-05
5.78186e-05
5.78181e-05
5.78223e-05
5.78113e-05
5.78064e-05
5.7806e-05
5.78065e-05
5.78073e-05
5.7808e-05
5.78087e-05
5.78093e-05
5.78099e-05
5.78105e-05
5.78109e-05
5.78114e-05
5.78118e-05
5.78123e-05
5.78118e-05
5.78161e-05
5.64022e-05
5.63981e-05
5.63981e-05
5.63989e-05
5.63999e-05
5.64009e-05
5.64019e-05
5.64029e-05
5.64039e-05
5.64049e-05
5.64058e-05
5.64067e-05
5.64075e-05
5.64084e-05
5.64093e-05
5.64101e-05
5.64109e-05
5.64118e-05
5.64125e-05
5.64133e-05
5.6414e-05
5.64148e-05
5.64155e-05
5.64162e-05
5.64168e-05
5.64175e-05
5.64181e-05
5.64187e-05
5.64193e-05
5.64199e-05
5.64204e-05
5.6421e-05
5.64215e-05
5.64219e-05
5.64224e-05
5.64228e-05
5.64233e-05
5.64236e-05
5.6424e-05
5.64243e-05
5.64246e-05
5.64249e-05
5.64252e-05
5.64247e-05
5.64284e-05
5.64188e-05
5.64145e-05
5.64143e-05
5.64148e-05
5.64156e-05
5.64163e-05
5.6417e-05
5.64177e-05
5.64183e-05
5.64188e-05
5.64193e-05
5.64197e-05
5.64201e-05
5.64206e-05
5.64202e-05
5.6424e-05
5.5176e-05
5.51724e-05
5.51724e-05
5.51731e-05
5.5174e-05
5.51749e-05
5.51758e-05
5.51767e-05
5.51776e-05
5.51784e-05
5.51792e-05
5.518e-05
5.51808e-05
5.51815e-05
5.51823e-05
5.5183e-05
5.51837e-05
5.51844e-05
5.51851e-05
5.51857e-05
5.51864e-05
5.5187e-05
5.51876e-05
5.51882e-05
5.51887e-05
5.51893e-05
5.51898e-05
5.51903e-05
5.51908e-05
5.51913e-05
5.51917e-05
5.51922e-05
5.51926e-05
5.51929e-05
5.51933e-05
5.51937e-05
5.5194e-05
5.51943e-05
5.51945e-05
5.51948e-05
5.5195e-05
5.51951e-05
5.51954e-05
5.51949e-05
5.5198e-05
5.51897e-05
5.5186e-05
5.51859e-05
5.51865e-05
5.51873e-05
5.5188e-05
5.51887e-05
5.51894e-05
5.519e-05
5.51905e-05
5.5191e-05
5.51914e-05
5.51918e-05
5.51922e-05
5.51919e-05
5.51951e-05
5.41051e-05
5.41021e-05
5.41021e-05
5.41027e-05
5.41036e-05
5.41044e-05
5.41052e-05
5.4106e-05
5.41067e-05
5.41075e-05
5.41081e-05
5.41088e-05
5.41095e-05
5.41101e-05
5.41107e-05
5.41114e-05
5.4112e-05
5.41126e-05
5.41131e-05
5.41137e-05
5.41142e-05
5.41147e-05
5.41152e-05
5.41157e-05
5.41161e-05
5.41166e-05
5.4117e-05
5.41174e-05
5.41178e-05
5.41182e-05
5.41185e-05
5.41189e-05
5.41192e-05
5.41195e-05
5.41198e-05
5.412e-05
5.41202e-05
5.41204e-05
5.41206e-05
5.41208e-05
5.41209e-05
5.4121e-05
5.41211e-05
5.41206e-05
5.41232e-05
5.41161e-05
5.4113e-05
5.4113e-05
5.41137e-05
5.41144e-05
5.41152e-05
5.41158e-05
5.41165e-05
5.41171e-05
5.41176e-05
5.4118e-05
5.41184e-05
5.41188e-05
5.41192e-05
5.41189e-05
5.41217e-05
5.31805e-05
5.3178e-05
5.3178e-05
5.31786e-05
5.31793e-05
5.31801e-05
5.31808e-05
5.31815e-05
5.31821e-05
5.31827e-05
5.31833e-05
5.31839e-05
5.31844e-05
5.3185e-05
5.31855e-05
5.3186e-05
5.31865e-05
5.3187e-05
5.31875e-05
5.3188e-05
5.31884e-05
5.31888e-05
5.31892e-05
5.31896e-05
5.31899e-05
5.31903e-05
5.31906e-05
5.31909e-05
5.31912e-05
5.31915e-05
5.31918e-05
5.3192e-05
5.31922e-05
5.31924e-05
5.31926e-05
5.31928e-05
5.31929e-05
5.3193e-05
5.31931e-05
5.31932e-05
5.31932e-05
5.31932e-05
5.31932e-05
5.31928e-05
5.31948e-05
5.31889e-05
5.31864e-05
5.31865e-05
5.31872e-05
5.31879e-05
5.31886e-05
5.31893e-05
5.31899e-05
5.31904e-05
5.31909e-05
5.31914e-05
5.31917e-05
5.31921e-05
5.31924e-05
5.31922e-05
5.31946e-05
5.23922e-05
5.23902e-05
5.23903e-05
5.23908e-05
5.23914e-05
5.2392e-05
5.23927e-05
5.23933e-05
5.23938e-05
5.23943e-05
5.23948e-05
5.23953e-05
5.23958e-05
5.23962e-05
5.23966e-05
5.23971e-05
5.23975e-05
5.23979e-05
5.23982e-05
5.23986e-05
5.23989e-05
5.23992e-05
5.23996e-05
5.23998e-05
5.24001e-05
5.24004e-05
5.24006e-05
5.24008e-05
5.2401e-05
5.24012e-05
5.24014e-05
5.24015e-05
5.24017e-05
5.24018e-05
5.24019e-05
5.2402e-05
5.2402e-05
5.2402e-05
5.2402e-05
5.2402e-05
5.2402e-05
5.24019e-05
5.24018e-05
5.24014e-05
5.24029e-05
5.23982e-05
5.23963e-05
5.23965e-05
5.23971e-05
5.23978e-05
5.23985e-05
5.23991e-05
5.23997e-05
5.24002e-05
5.24007e-05
5.24011e-05
5.24014e-05
5.24017e-05
5.2402e-05
5.24019e-05
5.24038e-05
5.17297e-05
5.17281e-05
5.17283e-05
5.17287e-05
5.17293e-05
5.17298e-05
5.17303e-05
5.17308e-05
5.17313e-05
5.17318e-05
5.17322e-05
5.17325e-05
5.17329e-05
5.17333e-05
5.17336e-05
5.17339e-05
5.17343e-05
5.17346e-05
5.17348e-05
5.17351e-05
5.17354e-05
5.17356e-05
5.17358e-05
5.1736e-05
5.17362e-05
5.17364e-05
5.17365e-05
5.17366e-05
5.17368e-05
5.17369e-05
5.17369e-05
5.1737e-05
5.17371e-05
5.17371e-05
5.17371e-05
5.17371e-05
5.17371e-05
5.1737e-05
5.17369e-05
5.17368e-05
5.17367e-05
5.17365e-05
5.17364e-05
5.17359e-05
5.1737e-05
5.17336e-05
5.17321e-05
5.17324e-05
5.1733e-05
5.17337e-05
5.17343e-05
5.17348e-05
5.17354e-05
5.17359e-05
5.17363e-05
5.17366e-05
5.17369e-05
5.17372e-05
5.17375e-05
5.17374e-05
5.17389e-05
5.11823e-05
5.11811e-05
5.11813e-05
5.11817e-05
5.11822e-05
5.11827e-05
5.11831e-05
5.11835e-05
5.11839e-05
5.11842e-05
5.11846e-05
5.11849e-05
5.11851e-05
5.11854e-05
5.11857e-05
5.11859e-05
5.11862e-05
5.11864e-05
5.11866e-05
5.11868e-05
5.11869e-05
5.11871e-05
5.11872e-05
5.11873e-05
5.11874e-05
5.11875e-05
5.11876e-05
5.11876e-05
5.11877e-05
5.11877e-05
5.11877e-05
5.11877e-05
5.11876e-05
5.11876e-05
5.11875e-05
5.11874e-05
5.11873e-05
5.11872e-05
5.1187e-05
5.11869e-05
5.11867e-05
5.11864e-05
5.11862e-05
5.11857e-05
5.11864e-05
5.11842e-05
5.11832e-05
5.11836e-05
5.11841e-05
5.11847e-05
5.11853e-05
5.11858e-05
5.11863e-05
5.11867e-05
5.11871e-05
5.11874e-05
5.11877e-05
5.11879e-05
5.11881e-05
5.11881e-05
5.11891e-05
5.07392e-05
5.07385e-05
5.07387e-05
5.07391e-05
5.07395e-05
5.07398e-05
5.07402e-05
5.07405e-05
5.07408e-05
5.07411e-05
5.07413e-05
5.07416e-05
5.07418e-05
5.0742e-05
5.07421e-05
5.07423e-05
5.07425e-05
5.07426e-05
5.07427e-05
5.07428e-05
5.07429e-05
5.0743e-05
5.0743e-05
5.07431e-05
5.07431e-05
5.07431e-05
5.07431e-05
5.07431e-05
5.0743e-05
5.0743e-05
5.07429e-05
5.07428e-05
5.07427e-05
5.07426e-05
5.07424e-05
5.07423e-05
5.07421e-05
5.07419e-05
5.07417e-05
5.07414e-05
5.07412e-05
5.07409e-05
5.07406e-05
5.07401e-05
5.07404e-05
5.07394e-05
5.07389e-05
5.07392e-05
5.07398e-05
5.07403e-05
5.07408e-05
5.07413e-05
5.07417e-05
5.07421e-05
5.07424e-05
5.07426e-05
5.07429e-05
5.07431e-05
5.07432e-05
5.07432e-05
5.07439e-05
5.03901e-05
5.03898e-05
5.039e-05
5.03903e-05
5.03906e-05
5.03909e-05
5.03912e-05
5.03914e-05
5.03917e-05
5.03919e-05
5.0392e-05
5.03922e-05
5.03923e-05
5.03924e-05
5.03925e-05
5.03926e-05
5.03927e-05
5.03928e-05
5.03928e-05
5.03928e-05
5.03929e-05
5.03928e-05
5.03928e-05
5.03928e-05
5.03927e-05
5.03927e-05
5.03926e-05
5.03925e-05
5.03924e-05
5.03923e-05
5.03921e-05
5.0392e-05
5.03918e-05
5.03916e-05
5.03914e-05
5.03912e-05
5.03909e-05
5.03906e-05
5.03903e-05
5.039e-05
5.03897e-05
5.03893e-05
5.0389e-05
5.03885e-05
5.03884e-05
5.03887e-05
5.03886e-05
5.0389e-05
5.03895e-05
5.03899e-05
5.03904e-05
5.03908e-05
5.03911e-05
5.03914e-05
5.03917e-05
5.03919e-05
5.03921e-05
5.03922e-05
5.03923e-05
5.03923e-05
5.03927e-05
5.01248e-05
5.01249e-05
5.01251e-05
5.01254e-05
5.01256e-05
5.01258e-05
5.0126e-05
5.01262e-05
5.01263e-05
5.01265e-05
5.01266e-05
5.01266e-05
5.01267e-05
5.01267e-05
5.01268e-05
5.01268e-05
5.01268e-05
5.01268e-05
5.01268e-05
5.01267e-05
5.01267e-05
5.01266e-05
5.01265e-05
5.01264e-05
5.01263e-05
5.01262e-05
5.0126e-05
5.01259e-05
5.01257e-05
5.01255e-05
5.01253e-05
5.01251e-05
5.01248e-05
5.01246e-05
5.01243e-05
5.0124e-05
5.01237e-05
5.01233e-05
5.0123e-05
5.01226e-05
5.01222e-05
5.01218e-05
5.01214e-05
5.01209e-05
5.01205e-05
5.01219e-05
5.01222e-05
5.01227e-05
5.01231e-05
5.01235e-05
5.01239e-05
5.01242e-05
5.01245e-05
5.01248e-05
5.0125e-05
5.01251e-05
5.01253e-05
5.01254e-05
5.01254e-05
5.01254e-05
5.01255e-05
4.99338e-05
4.99342e-05
4.99345e-05
4.99347e-05
4.99348e-05
4.9935e-05
4.99351e-05
4.99352e-05
4.99353e-05
4.99353e-05
4.99354e-05
4.99354e-05
4.99354e-05
4.99354e-05
4.99353e-05
4.99353e-05
4.99352e-05
4.99352e-05
4.99351e-05
4.9935e-05
4.99348e-05
4.99347e-05
4.99345e-05
4.99344e-05
4.99342e-05
4.9934e-05
4.99338e-05
4.99336e-05
4.99333e-05
4.99331e-05
4.99328e-05
4.99325e-05
4.99322e-05
4.99319e-05
4.99316e-05
4.99312e-05
4.99308e-05
4.99304e-05
4.993e-05
4.99296e-05
4.99292e-05
4.99287e-05
4.99282e-05
4.99277e-05
4.99271e-05
4.99297e-05
4.99303e-05
4.99308e-05
4.99312e-05
4.99315e-05
4.99318e-05
4.99321e-05
4.99323e-05
4.99325e-05
4.99327e-05
4.99328e-05
4.99329e-05
4.99329e-05
4.99329e-05
4.99329e-05
4.99327e-05
4.98081e-05
4.98089e-05
4.98091e-05
4.98093e-05
4.98094e-05
4.98095e-05
4.98095e-05
4.98096e-05
4.98096e-05
4.98096e-05
4.98095e-05
4.98095e-05
4.98094e-05
4.98093e-05
4.98092e-05
4.98091e-05
4.9809e-05
4.98089e-05
4.98087e-05
4.98086e-05
4.98084e-05
4.98082e-05
4.9808e-05
4.98077e-05
4.98075e-05
4.98073e-05
4.9807e-05
4.98067e-05
4.98064e-05
4.98061e-05
4.98058e-05
4.98054e-05
4.98051e-05
4.98047e-05
4.98043e-05
4.98039e-05
4.98035e-05
4.9803e-05
4.98026e-05
4.98021e-05
4.98016e-05
4.9801e-05
4.98005e-05
4.98e-05
4.97991e-05
4.98029e-05
4.98038e-05
4.98043e-05
4.98047e-05
4.9805e-05
4.98052e-05
4.98054e-05
4.98056e-05
4.98057e-05
4.98058e-05
4.98059e-05
4.98059e-05
4.98059e-05
4.98058e-05
4.98058e-05
4.98054e-05
4.97396e-05
4.97406e-05
4.97409e-05
4.9741e-05
4.9741e-05
4.9741e-05
4.9741e-05
4.9741e-05
4.97409e-05
4.97408e-05
4.97408e-05
4.97406e-05
4.97405e-05
4.97404e-05
4.97402e-05
4.97401e-05
4.97399e-05
4.97397e-05
4.97395e-05
4.97393e-05
4.9739e-05
4.97388e-05
4.97385e-05
4.97382e-05
4.97379e-05
4.97376e-05
4.97373e-05
4.9737e-05
4.97366e-05
4.97363e-05
4.97359e-05
4.97355e-05
4.97351e-05
4.97347e-05
4.97342e-05
4.97338e-05
4.97333e-05
4.97328e-05
4.97323e-05
4.97317e-05
4.97312e-05
4.97306e-05
4.973e-05
4.97295e-05
4.97284e-05
4.97333e-05
4.97345e-05
4.9735e-05
4.97353e-05
4.97355e-05
4.97357e-05
4.97359e-05
4.9736e-05
4.97361e-05
4.97361e-05
4.97361e-05
4.97361e-05
4.9736e-05
4.97359e-05
4.97359e-05
4.97353e-05
4.97204e-05
4.97217e-05
4.9722e-05
4.97221e-05
4.9722e-05
4.9722e-05
4.97219e-05
4.97218e-05
4.97217e-05
4.97216e-05
4.97214e-05
4.97213e-05
4.97211e-05
4.97209e-05
4.97207e-05
4.97205e-05
4.97202e-05
4.972e-05
4.97197e-05
4.97195e-05
4.97192e-05
4.97189e-05
4.97186e-05
4.97182e-05
4.97179e-05
4.97175e-05
4.97172e-05
4.97168e-05
4.97164e-05
4.9716e-05
4.97155e-05
4.97151e-05
4.97146e-05
4.97142e-05
4.97137e-05
4.97132e-05
4.97126e-05
4.97121e-05
4.97115e-05
4.9711e-05
4.97104e-05
4.97097e-05
4.97091e-05
4.97085e-05
4.97074e-05
4.97132e-05
4.97147e-05
4.97152e-05
4.97155e-05
4.97157e-05
4.97158e-05
4.97159e-05
4.97159e-05
4.9716e-05
4.97159e-05
4.97159e-05
4.97158e-05
4.97157e-05
4.97156e-05
4.97155e-05
4.97148e-05
4.97438e-05
4.97454e-05
4.97457e-05
4.97457e-05
4.97456e-05
4.97455e-05
4.97453e-05
4.97452e-05
4.9745e-05
4.97448e-05
4.97446e-05
4.97444e-05
4.97442e-05
4.97439e-05
4.97437e-05
4.97434e-05
4.97431e-05
4.97428e-05
4.97425e-05
4.97422e-05
4.97419e-05
4.97415e-05
4.97411e-05
4.97408e-05
4.97404e-05
4.974e-05
4.97396e-05
4.97391e-05
4.97387e-05
4.97382e-05
4.97378e-05
4.97373e-05
4.97368e-05
4.97362e-05
4.97357e-05
4.97352e-05
4.97346e-05
4.9734e-05
4.97334e-05
4.97328e-05
4.97322e-05
4.97315e-05
4.97308e-05
4.97302e-05
4.97289e-05
4.97357e-05
4.97375e-05
4.9738e-05
4.97382e-05
4.97384e-05
4.97384e-05
4.97385e-05
4.97385e-05
4.97384e-05
4.97384e-05
4.97383e-05
4.97381e-05
4.9738e-05
4.97378e-05
4.97377e-05
4.97369e-05
4.98034e-05
4.98052e-05
4.98055e-05
4.98054e-05
4.98053e-05
4.98051e-05
4.9805e-05
4.98048e-05
4.98045e-05
4.98043e-05
4.9804e-05
4.98038e-05
4.98035e-05
4.98032e-05
4.98029e-05
4.98026e-05
4.98022e-05
4.98019e-05
4.98016e-05
4.98012e-05
4.98008e-05
4.98004e-05
4.98e-05
4.97996e-05
4.97991e-05
4.97987e-05
4.97982e-05
4.97978e-05
4.97973e-05
4.97968e-05
4.97963e-05
4.97957e-05
4.97952e-05
4.97946e-05
4.97941e-05
4.97935e-05
4.97929e-05
4.97922e-05
4.97916e-05
4.9791e-05
4.97903e-05
4.97896e-05
4.97889e-05
4.97883e-05
4.97869e-05
4.97946e-05
4.97966e-05
4.97971e-05
4.97972e-05
4.97973e-05
4.97973e-05
4.97973e-05
4.97973e-05
4.97972e-05
4.97971e-05
4.97969e-05
4.97968e-05
4.97966e-05
4.97963e-05
4.97962e-05
4.97953e-05
4.98936e-05
4.98955e-05
4.98958e-05
4.98957e-05
4.98956e-05
4.98953e-05
4.98951e-05
4.98949e-05
4.98946e-05
4.98943e-05
4.9894e-05
4.98937e-05
4.98934e-05
4.9893e-05
4.98927e-05
4.98923e-05
4.98919e-05
4.98916e-05
4.98912e-05
4.98907e-05
4.98903e-05
4.98899e-05
4.98894e-05
4.9889e-05
4.98885e-05
4.9888e-05
4.98875e-05
4.9887e-05
4.98865e-05
4.98859e-05
4.98854e-05
4.98848e-05
4.98842e-05
4.98837e-05
4.9883e-05
4.98824e-05
4.98818e-05
4.98811e-05
4.98804e-05
4.98798e-05
4.98791e-05
4.98783e-05
4.98776e-05
4.98769e-05
4.98755e-05
4.9884e-05
4.98862e-05
4.98867e-05
4.98868e-05
4.98869e-05
4.98868e-05
4.98868e-05
4.98867e-05
4.98865e-05
4.98864e-05
4.98862e-05
4.9886e-05
4.98857e-05
4.98855e-05
4.98853e-05
4.98843e-05
5.00092e-05
5.00113e-05
5.00116e-05
5.00115e-05
5.00112e-05
5.0011e-05
5.00107e-05
5.00104e-05
5.00101e-05
5.00098e-05
5.00094e-05
5.0009e-05
5.00087e-05
5.00083e-05
5.00079e-05
5.00075e-05
5.00071e-05
5.00067e-05
5.00062e-05
5.00058e-05
5.00053e-05
5.00048e-05
5.00044e-05
5.00039e-05
5.00034e-05
5.00028e-05
5.00023e-05
5.00018e-05
5.00012e-05
5.00006e-05
5e-05
4.99994e-05
4.99988e-05
4.99982e-05
4.99975e-05
4.99969e-05
4.99962e-05
4.99955e-05
4.99948e-05
4.99941e-05
4.99934e-05
4.99926e-05
4.99918e-05
4.99912e-05
4.99897e-05
4.99989e-05
5.00013e-05
5.00018e-05
5.00019e-05
5.00019e-05
5.00018e-05
5.00017e-05
5.00015e-05
5.00014e-05
5.00012e-05
5.00009e-05
5.00007e-05
5.00004e-05
5.00001e-05
4.99999e-05
4.99989e-05
5.01456e-05
5.01479e-05
5.01482e-05
5.01481e-05
5.01478e-05
5.01475e-05
5.01472e-05
5.01468e-05
5.01465e-05
5.01461e-05
5.01457e-05
5.01453e-05
5.01449e-05
5.01445e-05
5.01441e-05
5.01436e-05
5.01432e-05
5.01427e-05
5.01422e-05
5.01417e-05
5.01412e-05
5.01407e-05
5.01402e-05
5.01397e-05
5.01391e-05
5.01386e-05
5.0138e-05
5.01374e-05
5.01368e-05
5.01362e-05
5.01356e-05
5.0135e-05
5.01343e-05
5.01337e-05
5.0133e-05
5.01323e-05
5.01316e-05
5.01309e-05
5.01302e-05
5.01294e-05
5.01287e-05
5.01279e-05
5.01271e-05
5.01264e-05
5.01249e-05
5.01347e-05
5.01372e-05
5.01378e-05
5.01378e-05
5.01378e-05
5.01377e-05
5.01375e-05
5.01373e-05
5.01371e-05
5.01369e-05
5.01366e-05
5.01363e-05
5.0136e-05
5.01357e-05
5.01354e-05
5.01344e-05
5.02989e-05
5.03013e-05
5.03016e-05
5.03014e-05
5.03011e-05
5.03008e-05
5.03004e-05
5.03e-05
5.02997e-05
5.02992e-05
5.02988e-05
5.02984e-05
5.02979e-05
5.02975e-05
5.0297e-05
5.02966e-05
5.02961e-05
5.02956e-05
5.02951e-05
5.02945e-05
5.0294e-05
5.02935e-05
5.02929e-05
5.02924e-05
5.02918e-05
5.02912e-05
5.02906e-05
5.029e-05
5.02894e-05
5.02887e-05
5.02881e-05
5.02874e-05
5.02867e-05
5.02861e-05
5.02854e-05
5.02846e-05
5.02839e-05
5.02832e-05
5.02824e-05
5.02816e-05
5.02808e-05
5.028e-05
5.02792e-05
5.02785e-05
5.0277e-05
5.02874e-05
5.02901e-05
5.02906e-05
5.02906e-05
5.02905e-05
5.02904e-05
5.02902e-05
5.029e-05
5.02897e-05
5.02895e-05
5.02892e-05
5.02889e-05
5.02885e-05
5.02881e-05
5.02878e-05
5.02868e-05
5.04654e-05
5.04679e-05
5.04682e-05
5.0468e-05
5.04677e-05
5.04673e-05
5.04669e-05
5.04665e-05
5.0466e-05
5.04656e-05
5.04651e-05
5.04647e-05
5.04642e-05
5.04637e-05
5.04632e-05
5.04627e-05
5.04622e-05
5.04617e-05
5.04611e-05
5.04606e-05
5.046e-05
5.04595e-05
5.04589e-05
5.04583e-05
5.04577e-05
5.04571e-05
5.04564e-05
5.04558e-05
5.04551e-05
5.04545e-05
5.04538e-05
5.04531e-05
5.04524e-05
5.04517e-05
5.0451e-05
5.04502e-05
5.04495e-05
5.04487e-05
5.04479e-05
5.04471e-05
5.04463e-05
5.04455e-05
5.04447e-05
5.04439e-05
5.04425e-05
5.04533e-05
5.04561e-05
5.04566e-05
5.04566e-05
5.04565e-05
5.04563e-05
5.04561e-05
5.04559e-05
5.04556e-05
5.04553e-05
5.04549e-05
5.04546e-05
5.04542e-05
5.04538e-05
5.04535e-05
5.04525e-05
5.06418e-05
5.06445e-05
5.06448e-05
5.06445e-05
5.06442e-05
5.06438e-05
5.06433e-05
5.06429e-05
5.06424e-05
5.06419e-05
5.06415e-05
5.0641e-05
5.06405e-05
5.06399e-05
5.06394e-05
5.06389e-05
5.06383e-05
5.06378e-05
5.06372e-05
5.06366e-05
5.0636e-05
5.06354e-05
5.06348e-05
5.06342e-05
5.06336e-05
5.0633e-05