/*--------------------------------*- C++ -*----------------------------------*\
  =========                 |
  \\      /  F ield         | OpenFOAM: The Open Source CFD Toolbox
   \\    /   O peration     | Website:  https://openfoam.org
    \\  /    A nd           | Version:  7
     \\/     M anipulation  |
\*---------------------------------------------------------------------------*/
FoamFile
{
    version     2.0;
    format      ascii;
    class       volScalarField;
    location    "1000";
    object      nut;
}
// * * * * * * * * * * * * * * * * * * * * * * * * * * * * * * * * * * * * * //

dimensions      [0 2 -1 0 0 0 0];

internalField   nonuniform List<scalar> 
4026
(
0.000197544
0.000197547
0.00019755
0.000197554
0.000197557
0.000197561
0.000197564
0.000197567
0.00019757
0.000197572
0.000197575
0.000197577
0.00019758
0.000197582
0.000197584
0.000197585
0.000197587
0.000197588
0.00019759
0.000197591
0.000197592
0.000197593
0.000197594
0.000197595
0.000197595
0.000197596
0.000197597
0.000197597
0.000197598
0.000197598
0.000197599
0.000197599
0.000197599
0.0001976
0.0001976
0.0001976
0.0001976
0.000197601
0.000197601
0.000197601
0.000197601
0.000197601
0.000197601
0.000197602
0.000197601
0.000197511
0.000197514
0.000197518
0.000197521
0.000197523
0.000197525
0.000197527
0.000197529
0.000197531
0.000197533
0.000197535
0.000197537
0.000197539
0.000197541
0.000197543
0.000197545
0.00020487
0.000204874
0.000204877
0.000204881
0.000204884
0.000204887
0.00020489
0.000204893
0.000204896
0.000204899
0.000204901
0.000204903
0.000204906
0.000204907
0.000204909
0.000204911
0.000204912
0.000204914
0.000204915
0.000204916
0.000204917
0.000204918
0.000204918
0.000204919
0.00020492
0.00020492
0.00020492
0.000204921
0.000204921
0.000204921
0.000204922
0.000204922
0.000204922
0.000204922
0.000204922
0.000204922
0.000204922
0.000204922
0.000204922
0.000204922
0.000204922
0.000204922
0.000204922
0.000204922
0.000204921
0.000204832
0.000204836
0.000204839
0.000204842
0.000204845
0.000204847
0.000204849
0.000204851
0.000204852
0.000204854
0.000204855
0.000204857
0.000204859
0.000204861
0.000204863
0.000204864
0.000212375
0.000212381
0.000212385
0.000212388
0.000212391
0.000212394
0.000212397
0.0002124
0.000212402
0.000212405
0.000212407
0.000212409
0.000212411
0.000212413
0.000212414
0.000212416
0.000212417
0.000212418
0.000212419
0.00021242
0.000212421
0.000212421
0.000212422
0.000212422
0.000212423
0.000212423
0.000212423
0.000212423
0.000212423
0.000212423
0.000212423
0.000212423
0.000212423
0.000212423
0.000212423
0.000212423
0.000212423
0.000212423
0.000212422
0.000212422
0.000212422
0.000212422
0.000212421
0.000212421
0.000212419
0.000212334
0.000212338
0.000212341
0.000212344
0.000212346
0.000212348
0.00021235
0.000212352
0.000212353
0.000212354
0.000212356
0.000212357
0.000212359
0.00021236
0.000212362
0.000212362
0.000220107
0.000220115
0.000220119
0.000220122
0.000220125
0.000220128
0.00022013
0.000220133
0.000220135
0.000220137
0.000220139
0.000220141
0.000220143
0.000220144
0.000220146
0.000220147
0.000220148
0.000220149
0.00022015
0.00022015
0.000220151
0.000220151
0.000220151
0.000220151
0.000220152
0.000220152
0.000220151
0.000220151
0.000220151
0.000220151
0.000220151
0.00022015
0.00022015
0.00022015
0.000220149
0.000220149
0.000220148
0.000220148
0.000220147
0.000220147
0.000220146
0.000220146
0.000220145
0.000220145
0.000220141
0.000220063
0.000220068
0.000220071
0.000220073
0.000220075
0.000220077
0.000220078
0.000220079
0.00022008
0.000220081
0.000220082
0.000220083
0.000220085
0.000220086
0.000220088
0.000220085
0.000228117
0.000228126
0.00022813
0.000228133
0.000228136
0.000228138
0.00022814
0.000228143
0.000228144
0.000228146
0.000228148
0.000228149
0.000228151
0.000228152
0.000228153
0.000228154
0.000228155
0.000228155
0.000228156
0.000228156
0.000228156
0.000228156
0.000228156
0.000228156
0.000228156
0.000228155
0.000228155
0.000228155
0.000228154
0.000228153
0.000228153
0.000228152
0.000228152
0.000228151
0.00022815
0.000228149
0.000228148
0.000228148
0.000228147
0.000228146
0.000228145
0.000228144
0.000228143
0.000228143
0.000228136
0.000228068
0.000228076
0.000228078
0.00022808
0.000228081
0.000228082
0.000228083
0.000228083
0.000228084
0.000228085
0.000228085
0.000228086
0.000228086
0.000228087
0.000228089
0.000228084
0.000236458
0.00023647
0.000236475
0.000236477
0.000236479
0.000236481
0.000236483
0.000236485
0.000236486
0.000236487
0.000236489
0.00023649
0.00023649
0.000236491
0.000236492
0.000236492
0.000236493
0.000236493
0.000236493
0.000236493
0.000236493
0.000236492
0.000236492
0.000236491
0.000236491
0.00023649
0.000236489
0.000236489
0.000236488
0.000236487
0.000236486
0.000236485
0.000236484
0.000236483
0.000236481
0.00023648
0.000236479
0.000236478
0.000236476
0.000236475
0.000236474
0.000236473
0.000236471
0.000236472
0.000236462
0.000236406
0.000236415
0.000236418
0.000236419
0.000236419
0.000236419
0.00023642
0.00023642
0.00023642
0.00023642
0.00023642
0.00023642
0.00023642
0.00023642
0.000236422
0.000236414
0.000245196
0.00024521
0.000245215
0.000245217
0.000245218
0.00024522
0.000245221
0.000245222
0.000245223
0.000245224
0.000245224
0.000245225
0.000245225
0.000245225
0.000245225
0.000245225
0.000245225
0.000245225
0.000245225
0.000245224
0.000245223
0.000245222
0.000245221
0.000245221
0.000245219
0.000245218
0.000245217
0.000245216
0.000245215
0.000245213
0.000245212
0.00024521
0.000245209
0.000245207
0.000245206
0.000245204
0.000245202
0.000245201
0.000245199
0.000245197
0.000245195
0.000245194
0.000245192
0.000245192
0.000245179
0.000245137
0.00024515
0.000245152
0.000245152
0.000245152
0.000245152
0.000245151
0.000245151
0.00024515
0.000245149
0.000245149
0.000245148
0.000245147
0.000245147
0.000245149
0.000245137
0.000254398
0.000254416
0.000254421
0.000254422
0.000254423
0.000254423
0.000254424
0.000254424
0.000254424
0.000254424
0.000254424
0.000254424
0.000254424
0.000254423
0.000254423
0.000254422
0.000254422
0.000254421
0.00025442
0.000254419
0.000254417
0.000254416
0.000254414
0.000254413
0.000254411
0.00025441
0.000254408
0.000254406
0.000254404
0.000254403
0.000254401
0.000254399
0.000254396
0.000254394
0.000254392
0.00025439
0.000254388
0.000254386
0.000254383
0.000254381
0.000254379
0.000254377
0.000254374
0.000254375
0.000254358
0.000254333
0.000254348
0.000254351
0.000254351
0.00025435
0.000254348
0.000254347
0.000254346
0.000254344
0.000254343
0.000254341
0.00025434
0.000254339
0.000254337
0.000254339
0.000254324
0.000264143
0.000264164
0.000264169
0.00026417
0.00026417
0.000264169
0.000264169
0.000264168
0.000264168
0.000264167
0.000264166
0.000264165
0.000264164
0.000264163
0.000264162
0.00026416
0.000264159
0.000264157
0.000264156
0.000264154
0.000264152
0.00026415
0.000264148
0.000264146
0.000264144
0.000264141
0.000264139
0.000264137
0.000264134
0.000264132
0.000264129
0.000264126
0.000264124
0.000264121
0.000264118
0.000264116
0.000264113
0.00026411
0.000264107
0.000264104
0.000264101
0.000264099
0.000264095
0.000264096
0.000264076
0.000264069
0.000264088
0.000264091
0.00026409
0.000264088
0.000264086
0.000264084
0.000264082
0.00026408
0.000264078
0.000264075
0.000264073
0.000264071
0.000264068
0.00026407
0.000264051
0.000274515
0.00027454
0.000274545
0.000274545
0.000274544
0.000274543
0.000274541
0.00027454
0.000274538
0.000274536
0.000274534
0.000274533
0.000274531
0.000274529
0.000274527
0.000274524
0.000274522
0.00027452
0.000274517
0.000274515
0.000274512
0.000274509
0.000274507
0.000274504
0.000274501
0.000274498
0.000274495
0.000274492
0.000274489
0.000274485
0.000274482
0.000274479
0.000274476
0.000274472
0.000274469
0.000274465
0.000274462
0.000274458
0.000274455
0.000274451
0.000274448
0.000274444
0.00027444
0.000274441
0.000274416
0.00027443
0.000274454
0.000274457
0.000274456
0.000274453
0.00027445
0.000274447
0.000274444
0.000274441
0.000274438
0.000274435
0.000274431
0.000274428
0.000274425
0.000274426
0.000274403
0.000285607
0.000285637
0.000285641
0.000285641
0.000285638
0.000285636
0.000285633
0.000285631
0.000285628
0.000285625
0.000285622
0.000285619
0.000285616
0.000285613
0.00028561
0.000285607
0.000285604
0.000285601
0.000285598
0.000285594
0.000285591
0.000285587
0.000285583
0.00028558
0.000285576
0.000285572
0.000285568
0.000285564
0.00028556
0.000285557
0.000285552
0.000285548
0.000285544
0.00028554
0.000285536
0.000285532
0.000285527
0.000285523
0.000285519
0.000285515
0.00028551
0.000285506
0.000285501
0.000285502
0.000285472
0.000285509
0.000285538
0.000285542
0.00028554
0.000285536
0.000285532
0.000285528
0.000285524
0.00028552
0.000285516
0.000285512
0.000285508
0.000285504
0.000285499
0.000285501
0.000285472
0.000297519
0.000297553
0.000297558
0.000297557
0.000297553
0.000297549
0.000297545
0.000297542
0.000297538
0.000297534
0.00029753
0.000297526
0.000297521
0.000297517
0.000297513
0.000297509
0.000297505
0.000297501
0.000297496
0.000297492
0.000297487
0.000297483
0.000297478
0.000297473
0.000297469
0.000297464
0.000297459
0.000297455
0.00029745
0.000297445
0.00029744
0.000297435
0.00029743
0.000297425
0.00029742
0.000297415
0.00029741
0.000297405
0.000297399
0.000297394
0.000297389
0.000297384
0.000297378
0.000297379
0.000297344
0.000297406
0.00029744
0.000297444
0.000297442
0.000297437
0.000297433
0.000297428
0.000297423
0.000297418
0.000297413
0.000297407
0.000297402
0.000297397
0.000297391
0.000297393
0.000297358
0.000310358
0.000310398
0.000310403
0.0003104
0.000310395
0.00031039
0.000310385
0.00031038
0.000310375
0.000310369
0.000310364
0.000310359
0.000310353
0.000310348
0.000310342
0.000310337
0.000310332
0.000310327
0.000310321
0.000310315
0.00031031
0.000310304
0.000310298
0.000310293
0.000310287
0.000310281
0.000310275
0.00031027
0.000310264
0.000310258
0.000310252
0.000310246
0.00031024
0.000310234
0.000310228
0.000310222
0.000310216
0.00031021
0.000310204
0.000310198
0.000310191
0.000310186
0.000310178
0.000310179
0.000310138
0.000310227
0.000310267
0.000310272
0.000310269
0.000310264
0.000310258
0.000310253
0.000310247
0.000310241
0.000310234
0.000310228
0.000310222
0.000310216
0.000310208
0.00031021
0.00031017
0.000324238
0.000324283
0.000324289
0.000324285
0.000324279
0.000324272
0.000324265
0.000324259
0.000324252
0.000324245
0.000324238
0.000324232
0.000324225
0.000324218
0.000324212
0.000324205
0.000324198
0.000324192
0.000324185
0.000324178
0.000324171
0.000324164
0.000324157
0.00032415
0.000324144
0.000324137
0.00032413
0.000324123
0.000324116
0.000324109
0.000324102
0.000324095
0.000324088
0.000324081
0.000324074
0.000324067
0.000324059
0.000324052
0.000324045
0.000324038
0.000324031
0.000324024
0.000324015
0.000324016
0.000323969
0.000324086
0.000324132
0.000324139
0.000324135
0.000324129
0.000324123
0.000324116
0.000324109
0.000324102
0.000324094
0.000324087
0.00032408
0.000324073
0.000324064
0.000324065
0.000324019
0.000339276
0.000339328
0.000339334
0.000339329
0.000339321
0.000339313
0.000339304
0.000339296
0.000339288
0.00033928
0.000339272
0.000339263
0.000339255
0.000339247
0.000339239
0.000339231
0.000339223
0.000339215
0.000339206
0.000339198
0.00033919
0.000339182
0.000339173
0.000339165
0.000339157
0.000339149
0.000339141
0.000339133
0.000339125
0.000339116
0.000339108
0.0003391
0.000339092
0.000339083
0.000339075
0.000339067
0.000339058
0.00033905
0.000339041
0.000339033
0.000339025
0.000339017
0.000339006
0.000339007
0.000338954
0.000339101
0.000339155
0.000339162
0.000339158
0.000339151
0.000339144
0.000339136
0.000339128
0.00033912
0.000339111
0.000339103
0.000339094
0.000339086
0.000339076
0.000339077
0.000339024
0.000355594
0.000355653
0.000355659
0.000355653
0.000355644
0.000355634
0.000355624
0.000355614
0.000355604
0.000355594
0.000355584
0.000355574
0.000355565
0.000355555
0.000355545
0.000355536
0.000355526
0.000355516
0.000355507
0.000355497
0.000355487
0.000355478
0.000355468
0.000355458
0.000355449
0.000355439
0.00035543
0.00035542
0.000355411
0.000355401
0.000355392
0.000355382
0.000355373
0.000355363
0.000355353
0.000355344
0.000355334
0.000355324
0.000355314
0.000355305
0.000355295
0.000355286
0.000355274
0.000355275
0.000355214
0.000355394
0.000355455
0.000355464
0.000355459
0.000355452
0.000355443
0.000355434
0.000355425
0.000355416
0.000355406
0.000355396
0.000355386
0.000355377
0.000355365
0.000355367
0.000355306
0.000373314
0.00037338
0.000373387
0.000373379
0.000373369
0.000373357
0.000373346
0.000373334
0.000373322
0.000373311
0.000373299
0.000373288
0.000373276
0.000373265
0.000373253
0.000373242
0.000373231
0.00037322
0.000373208
0.000373197
0.000373186
0.000373175
0.000373163
0.000373152
0.000373141
0.00037313
0.000373119
0.000373108
0.000373097
0.000373086
0.000373075
0.000373064
0.000373053
0.000373042
0.000373031
0.00037302
0.000373008
0.000372997
0.000372986
0.000372975
0.000372964
0.000372953
0.00037294
0.00037294
0.000372872
0.000373087
0.000373156
0.000373166
0.000373161
0.000373153
0.000373143
0.000373133
0.000373122
0.000373112
0.000373101
0.00037309
0.000373079
0.000373068
0.000373055
0.000373056
0.000372988
0.000392557
0.000392631
0.000392638
0.00039263
0.000392617
0.000392604
0.00039259
0.000392577
0.000392564
0.00039255
0.000392537
0.000392523
0.00039251
0.000392497
0.000392484
0.000392471
0.000392458
0.000392445
0.000392432
0.000392419
0.000392406
0.000392393
0.00039238
0.000392367
0.000392355
0.000392342
0.000392329
0.000392317
0.000392304
0.000392292
0.000392279
0.000392266
0.000392254
0.000392241
0.000392228
0.000392216
0.000392203
0.00039219
0.000392177
0.000392165
0.000392152
0.00039214
0.000392125
0.000392125
0.000392049
0.0003923
0.000392379
0.00039239
0.000392384
0.000392375
0.000392364
0.000392353
0.000392341
0.000392329
0.000392317
0.000392305
0.000392292
0.00039228
0.000392265
0.000392266
0.000392191
0.00041344
0.000413522
0.000413529
0.000413519
0.000413505
0.00041349
0.000413475
0.00041346
0.000413444
0.000413429
0.000413414
0.000413398
0.000413383
0.000413368
0.000413353
0.000413338
0.000413324
0.000413309
0.000413294
0.000413279
0.000413265
0.00041325
0.000413235
0.000413221
0.000413206
0.000413192
0.000413177
0.000413163
0.000413149
0.000413134
0.00041312
0.000413106
0.000413091
0.000413077
0.000413063
0.000413048
0.000413034
0.000413019
0.000413005
0.00041299
0.000412976
0.000412962
0.000412945
0.000412945
0.000412861
0.000413152
0.00041324
0.000413252
0.000413246
0.000413235
0.000413223
0.000413211
0.000413198
0.000413185
0.000413171
0.000413157
0.000413143
0.00041313
0.000413114
0.000413114
0.000413031
0.000436071
0.000436162
0.00043617
0.000436159
0.000436143
0.000436126
0.000436108
0.000436091
0.000436074
0.000436057
0.00043604
0.000436022
0.000436005
0.000435988
0.000435971
0.000435955
0.000435938
0.000435921
0.000435905
0.000435888
0.000435871
0.000435855
0.000435838
0.000435822
0.000435805
0.000435789
0.000435773
0.000435757
0.00043574
0.000435724
0.000435708
0.000435692
0.000435676
0.00043566
0.000435643
0.000435627
0.000435611
0.000435595
0.000435578
0.000435562
0.000435546
0.00043553
0.000435511
0.00043551
0.000435418
0.000435752
0.000435849
0.000435862
0.000435856
0.000435844
0.000435831
0.000435817
0.000435802
0.000435788
0.000435773
0.000435758
0.000435742
0.000435727
0.000435709
0.000435709
0.000435618
0.000460552
0.000460652
0.00046066
0.000460647
0.000460629
0.00046061
0.000460591
0.000460572
0.000460553
0.000460534
0.000460514
0.000460495
0.000460476
0.000460457
0.000460438
0.000460419
0.000460401
0.000460382
0.000460363
0.000460345
0.000460326
0.000460308
0.000460289
0.000460271
0.000460252
0.000460234
0.000460216
0.000460198
0.00046018
0.000460162
0.000460144
0.000460125
0.000460107
0.000460089
0.000460071
0.000460053
0.000460035
0.000460016
0.000459998
0.00045998
0.000459962
0.000459944
0.000459923
0.000459921
0.000459822
0.0004602
0.000460307
0.000460321
0.000460314
0.000460301
0.000460287
0.000460271
0.000460256
0.000460239
0.000460223
0.000460206
0.000460189
0.000460173
0.000460153
0.000460152
0.000460054
0.00048697
0.000487079
0.000487088
0.000487073
0.000487054
0.000487033
0.000487011
0.00048699
0.000486969
0.000486948
0.000486926
0.000486905
0.000486884
0.000486863
0.000486842
0.000486821
0.0004868
0.00048678
0.000486759
0.000486738
0.000486717
0.000486697
0.000486676
0.000486656
0.000486635
0.000486615
0.000486595
0.000486575
0.000486555
0.000486534
0.000486514
0.000486494
0.000486474
0.000486454
0.000486433
0.000486413
0.000486393
0.000486373
0.000486352
0.000486332
0.000486312
0.000486292
0.000486269
0.000486266
0.000486159
0.000486585
0.000486702
0.000486718
0.00048671
0.000486696
0.00048668
0.000486663
0.000486645
0.000486628
0.00048661
0.000486591
0.000486572
0.000486554
0.000486532
0.000486531
0.000486425
0.0005154
0.000515518
0.000515527
0.000515511
0.00051549
0.000515467
0.000515443
0.00051542
0.000515397
0.000515373
0.00051535
0.000515326
0.000515303
0.00051528
0.000515257
0.000515234
0.000515211
0.000515188
0.000515165
0.000515142
0.00051512
0.000515097
0.000515074
0.000515051
0.000515029
0.000515006
0.000514984
0.000514962
0.00051494
0.000514917
0.000514895
0.000514873
0.00051485
0.000514828
0.000514805
0.000514783
0.00051476
0.000514738
0.000514715
0.000514693
0.00051467
0.000514649
0.000514623
0.000514619
0.000514504
0.000514982
0.000515109
0.000515126
0.000515117
0.000515102
0.000515084
0.000515066
0.000515047
0.000515027
0.000515007
0.000514987
0.000514967
0.000514947
0.000514923
0.00051492
0.000514808
0.000545901
0.000546028
0.000546037
0.00054602
0.000545996
0.000545971
0.000545946
0.00054592
0.000545895
0.000545869
0.000545843
0.000545818
0.000545792
0.000545767
0.000545742
0.000545717
0.000545692
0.000545666
0.000545641
0.000545616
0.000545591
0.000545566
0.000545541
0.000545517
0.000545492
0.000545467
0.000545443
0.000545418
0.000545394
0.000545369
0.000545344
0.00054532
0.000545295
0.00054527
0.000545246
0.000545221
0.000545196
0.000545171
0.000545147
0.000545122
0.000545097
0.000545073
0.000545045
0.000545039
0.000544918
0.00054545
0.000545587
0.000545605
0.000545595
0.000545578
0.000545559
0.000545539
0.000545519
0.000545497
0.000545476
0.000545454
0.000545431
0.00054541
0.000545384
0.00054538
0.000545261
0.000578515
0.000578651
0.000578661
0.000578642
0.000578616
0.000578589
0.000578561
0.000578533
0.000578506
0.000578478
0.00057845
0.000578422
0.000578395
0.000578367
0.000578339
0.000578312
0.000578285
0.000578257
0.00057823
0.000578203
0.000578175
0.000578148
0.000578121
0.000578094
0.000578067
0.00057804
0.000578013
0.000577986
0.000577959
0.000577932
0.000577906
0.000577879
0.000577852
0.000577824
0.000577797
0.00057777
0.000577743
0.000577716
0.000577689
0.000577661
0.000577634
0.000577608
0.000577577
0.00057757
0.000577442
0.000578032
0.000578179
0.000578198
0.000578187
0.000578169
0.000578148
0.000578126
0.000578104
0.000578081
0.000578057
0.000578033
0.000578009
0.000577985
0.000577958
0.000577952
0.000577827
0.000613268
0.000613413
0.000613423
0.000613403
0.000613375
0.000613346
0.000613316
0.000613286
0.000613256
0.000613226
0.000613196
0.000613166
0.000613136
0.000613106
0.000613076
0.000613046
0.000613017
0.000612987
0.000612957
0.000612928
0.000612898
0.000612868
0.000612839
0.000612809
0.00061278
0.000612751
0.000612722
0.000612692
0.000612663
0.000612634
0.000612604
0.000612575
0.000612545
0.000612516
0.000612486
0.000612457
0.000612427
0.000612397
0.000612368
0.000612338
0.000612308
0.000612279
0.000612246
0.000612237
0.000612103
0.000612754
0.000612911
0.000612931
0.000612919
0.000612899
0.000612877
0.000612853
0.000612829
0.000612804
0.000612779
0.000612753
0.000612726
0.000612701
0.000612671
0.000612664
0.000612532
0.000650171
0.000650324
0.000650335
0.000650313
0.000650283
0.000650251
0.000650219
0.000650187
0.000650155
0.000650122
0.00065009
0.000650057
0.000650025
0.000649993
0.000649961
0.000649929
0.000649897
0.000649865
0.000649833
0.000649801
0.000649769
0.000649737
0.000649705
0.000649673
0.000649641
0.00064961
0.000649578
0.000649546
0.000649514
0.000649483
0.000649451
0.000649419
0.000649387
0.000649355
0.000649322
0.00064929
0.000649258
0.000649226
0.000649193
0.000649161
0.000649129
0.000649097
0.000649062
0.00064905
0.00064891
0.000649627
0.000649792
0.000649813
0.000649801
0.000649779
0.000649755
0.00064973
0.000649704
0.000649677
0.000649649
0.000649621
0.000649593
0.000649565
0.000649533
0.000649524
0.000649387
0.000689216
0.000689378
0.000689389
0.000689365
0.000689333
0.000689299
0.000689265
0.00068923
0.000689196
0.000689161
0.000689126
0.000689091
0.000689057
0.000689022
0.000688988
0.000688953
0.000688919
0.000688885
0.00068885
0.000688816
0.000688781
0.000688747
0.000688713
0.000688678
0.000688644
0.00068861
0.000688576
0.000688541
0.000688507
0.000688473
0.000688438
0.000688404
0.000688369
0.000688334
0.000688299
0.000688264
0.000688229
0.000688194
0.000688159
0.000688125
0.00068809
0.000688055
0.000688017
0.000688003
0.000687859
0.000688642
0.000688818
0.000688839
0.000688825
0.000688802
0.000688776
0.000688749
0.000688721
0.000688692
0.000688662
0.000688632
0.000688602
0.000688572
0.000688537
0.000688526
0.000688385
0.000730382
0.000730553
0.000730563
0.000730538
0.000730504
0.000730468
0.000730431
0.000730394
0.000730357
0.00073032
0.000730283
0.000730246
0.000730209
0.000730172
0.000730135
0.000730098
0.000730062
0.000730025
0.000729988
0.000729951
0.000729914
0.000729877
0.00072984
0.000729804
0.000729767
0.00072973
0.000729693
0.000729656
0.000729619
0.000729582
0.000729545
0.000729508
0.000729471
0.000729433
0.000729396
0.000729358
0.00072932
0.000729283
0.000729245
0.000729207
0.000729169
0.000729132
0.000729092
0.000729074
0.000728926
0.000729781
0.000729965
0.000729987
0.000729972
0.000729947
0.000729919
0.00072989
0.00072986
0.000729829
0.000729797
0.000729765
0.000729732
0.0007297
0.000729663
0.00072965
0.000729505
0.000773634
0.000773813
0.000773824
0.000773796
0.00077376
0.000773721
0.000773682
0.000773643
0.000773604
0.000773565
0.000773525
0.000773486
0.000773446
0.000773407
0.000773368
0.000773328
0.000773289
0.00077325
0.00077321
0.000773171
0.000773132
0.000773092
0.000773053
0.000773014
0.000772974
0.000772935
0.000772895
0.000772856
0.000772816
0.000772777
0.000772737
0.000772697
0.000772657
0.000772616
0.000772576
0.000772536
0.000772495
0.000772454
0.000772414
0.000772373
0.000772333
0.000772293
0.00077225
0.000772229
0.000772078
0.000773005
0.000773198
0.000773221
0.000773205
0.000773178
0.000773148
0.000773117
0.000773085
0.000773052
0.000773018
0.000772983
0.000772948
0.000772913
0.000772875
0.000772858
0.000772711
0.000818923
0.000819109
0.00081912
0.000819091
0.000819053
0.000819012
0.00081897
0.000818929
0.000818887
0.000818845
0.000818804
0.000818762
0.00081872
0.000818678
0.000818636
0.000818594
0.000818553
0.000818511
0.000818469
0.000818427
0.000818385
0.000818343
0.000818301
0.00081826
0.000818218
0.000818176
0.000818134
0.000818091
0.000818049
0.000818007
0.000817964
0.000817921
0.000817878
0.000817835
0.000817792
0.000817749
0.000817705
0.000817662
0.000817618
0.000817575
0.000817531
0.000817489
0.000817442
0.000817419
0.000817265
0.000818268
0.000818469
0.000818493
0.000818475
0.000818446
0.000818415
0.000818381
0.000818347
0.000818312
0.000818275
0.000818238
0.000818201
0.000818164
0.000818123
0.000818104
0.000817954
0.000866188
0.000866382
0.000866393
0.000866362
0.000866321
0.000866278
0.000866234
0.00086619
0.000866146
0.000866102
0.000866058
0.000866013
0.000865969
0.000865925
0.000865881
0.000865836
0.000865792
0.000865748
0.000865703
0.000865659
0.000865615
0.00086557
0.000865526
0.000865481
0.000865436
0.000865392
0.000865347
0.000865302
0.000865257
0.000865212
0.000865166
0.000865121
0.000865075
0.000865029
0.000864983
0.000864936
0.00086489
0.000864843
0.000864797
0.000864751
0.000864704
0.000864659
0.00086461
0.000864583
0.000864428
0.000865507
0.000865717
0.000865741
0.000865721
0.000865691
0.000865657
0.000865622
0.000865585
0.000865548
0.000865509
0.00086547
0.00086543
0.000865391
0.000865347
0.000865325
0.000865175
0.000915357
0.000915559
0.00091557
0.000915537
0.000915494
0.000915449
0.000915403
0.000915356
0.00091531
0.000915263
0.000915216
0.00091517
0.000915123
0.000915076
0.000915029
0.000914983
0.000914936
0.000914889
0.000914842
0.000914795
0.000914748
0.000914701
0.000914654
0.000914607
0.000914559
0.000914512
0.000914464
0.000914417
0.000914369
0.000914321
0.000914272
0.000914224
0.000914175
0.000914126
0.000914077
0.000914028
0.000913978
0.000913929
0.000913879
0.00091383
0.00091378
0.000913732
0.00091368
0.000913649
0.000913494
0.000914651
0.00091487
0.000914894
0.000914873
0.00091484
0.000914805
0.000914767
0.000914728
0.000914688
0.000914647
0.000914606
0.000914564
0.000914522
0.000914476
0.000914451
0.0009143
0.00096635
0.000966559
0.000966569
0.000966535
0.000966489
0.000966442
0.000966393
0.000966345
0.000966296
0.000966247
0.000966197
0.000966148
0.000966099
0.00096605
0.000966
0.000965951
0.000965902
0.000965852
0.000965803
0.000965753
0.000965704
0.000965654
0.000965604
0.000965555
0.000965505
0.000965454
0.000965404
0.000965354
0.000965303
0.000965252
0.000965201
0.000965149
0.000965097
0.000965045
0.000964993
0.000964941
0.000964888
0.000964836
0.000964783
0.000964731
0.000964678
0.000964627
0.000964572
0.000964538
0.000964382
0.000965619
0.000965845
0.000965869
0.000965847
0.000965812
0.000965774
0.000965735
0.000965694
0.000965651
0.000965608
0.000965564
0.00096552
0.000965475
0.000965427
0.000965399
0.000965248
0.00101907
0.00101929
0.0010193
0.00101926
0.00101922
0.00101917
0.00101912
0.00101906
0.00101901
0.00101896
0.00101891
0.00101886
0.00101881
0.00101875
0.0010187
0.00101865
0.0010186
0.00101855
0.0010185
0.00101844
0.00101839
0.00101834
0.00101829
0.00101823
0.00101818
0.00101813
0.00101808
0.00101802
0.00101797
0.00101791
0.00101786
0.00101781
0.00101775
0.0010177
0.00101764
0.00101759
0.00101753
0.00101747
0.00101742
0.00101736
0.00101731
0.00101725
0.00101719
0.00101716
0.001017
0.00101832
0.00101855
0.00101858
0.00101855
0.00101852
0.00101848
0.00101843
0.00101839
0.00101835
0.0010183
0.00101825
0.00101821
0.00101816
0.00101811
0.00101808
0.00101793
0.00107343
0.00107365
0.00107366
0.00107362
0.00107357
0.00107352
0.00107347
0.00107342
0.00107336
0.00107331
0.00107325
0.0010732
0.00107315
0.00107309
0.00107304
0.00107298
0.00107293
0.00107287
0.00107282
0.00107276
0.00107271
0.00107265
0.0010726
0.00107254
0.00107249
0.00107243
0.00107238
0.00107232
0.00107226
0.00107221
0.00107215
0.00107209
0.00107204
0.00107198
0.00107192
0.00107186
0.0010718
0.00107174
0.00107168
0.00107163
0.00107157
0.00107151
0.00107145
0.00107141
0.00107125
0.00107265
0.00107289
0.00107291
0.00107289
0.00107285
0.00107281
0.00107276
0.00107272
0.00107267
0.00107262
0.00107257
0.00107253
0.00107248
0.00107242
0.00107239
0.00107224
0.00112931
0.00112954
0.00112955
0.00112951
0.00112946
0.0011294
0.00112935
0.00112929
0.00112923
0.00112918
0.00112912
0.00112906
0.00112901
0.00112895
0.00112889
0.00112884
0.00112878
0.00112872
0.00112867
0.00112861
0.00112855
0.00112849
0.00112844
0.00112838
0.00112832
0.00112826
0.0011282
0.00112814
0.00112808
0.00112802
0.00112796
0.0011279
0.00112784
0.00112778
0.00112772
0.00112766
0.0011276
0.00112753
0.00112747
0.00112741
0.00112735
0.00112729
0.00112723
0.00112718
0.00112703
0.0011285
0.00112875
0.00112877
0.00112875
0.00112871
0.00112866
0.00112862
0.00112857
0.00112852
0.00112847
0.00112842
0.00112837
0.00112831
0.00112826
0.00112822
0.00112808
0.00118659
0.00118683
0.00118684
0.0011868
0.00118674
0.00118669
0.00118663
0.00118657
0.00118651
0.00118645
0.00118639
0.00118634
0.00118628
0.00118622
0.00118616
0.0011861
0.00118604
0.00118598
0.00118592
0.00118586
0.0011858
0.00118574
0.00118568
0.00118562
0.00118556
0.0011855
0.00118543
0.00118537
0.00118531
0.00118525
0.00118518
0.00118512
0.00118506
0.00118499
0.00118493
0.00118486
0.0011848
0.00118473
0.00118467
0.0011846
0.00118454
0.00118447
0.00118441
0.00118436
0.00118421
0.00118576
0.00118602
0.00118604
0.00118601
0.00118597
0.00118592
0.00118587
0.00118582
0.00118577
0.00118572
0.00118567
0.00118561
0.00118556
0.0011855
0.00118546
0.00118532
0.00124516
0.0012454
0.00124541
0.00124537
0.00124531
0.00124525
0.00124519
0.00124513
0.00124507
0.00124501
0.00124495
0.00124489
0.00124483
0.00124477
0.0012447
0.00124464
0.00124458
0.00124452
0.00124446
0.00124439
0.00124433
0.00124427
0.0012442
0.00124414
0.00124408
0.00124401
0.00124395
0.00124388
0.00124382
0.00124375
0.00124369
0.00124362
0.00124355
0.00124349
0.00124342
0.00124335
0.00124328
0.00124321
0.00124314
0.00124308
0.00124301
0.00124294
0.00124287
0.00124282
0.00124267
0.0012443
0.00124456
0.00124458
0.00124455
0.00124451
0.00124446
0.00124441
0.00124436
0.0012443
0.00124425
0.00124419
0.00124414
0.00124408
0.00124402
0.00124397
0.00124384
0.00130487
0.00130513
0.00130513
0.00130509
0.00130503
0.00130497
0.00130491
0.00130484
0.00130478
0.00130472
0.00130465
0.00130459
0.00130452
0.00130446
0.0013044
0.00130433
0.00130427
0.0013042
0.00130414
0.00130407
0.00130401
0.00130394
0.00130388
0.00130381
0.00130374
0.00130368
0.00130361
0.00130354
0.00130347
0.00130341
0.00130334
0.00130327
0.0013032
0.00130313
0.00130306
0.00130298
0.00130291
0.00130284
0.00130277
0.0013027
0.00130263
0.00130256
0.00130248
0.00130242
0.00130229
0.00130398
0.00130425
0.00130427
0.00130424
0.0013042
0.00130415
0.00130409
0.00130404
0.00130398
0.00130393
0.00130387
0.00130381
0.00130375
0.00130369
0.00130364
0.00130351
0.00136559
0.00136585
0.00136586
0.00136581
0.00136575
0.00136569
0.00136562
0.00136556
0.00136549
0.00136543
0.00136536
0.0013653
0.00136523
0.00136516
0.0013651
0.00136503
0.00136496
0.0013649
0.00136483
0.00136476
0.00136469
0.00136463
0.00136456
0.00136449
0.00136442
0.00136435
0.00136428
0.00136421
0.00136414
0.00136407
0.00136399
0.00136392
0.00136385
0.00136377
0.0013637
0.00136363
0.00136355
0.00136348
0.0013634
0.00136333
0.00136325
0.00136318
0.0013631
0.00136304
0.00136291
0.00136467
0.00136495
0.00136497
0.00136494
0.00136489
0.00136483
0.00136478
0.00136472
0.00136467
0.00136461
0.00136455
0.00136448
0.00136442
0.00136436
0.0013643