/*--------------------------------*- C++ -*----------------------------------*\
  =========                 |
  \\      /  F ield         | OpenFOAM: The Open Source CFD Toolbox
   \\    /   O peration     | Website:  https://openfoam.org
    \\  /    A nd           | Version:  7
     \\/     M anipulation  |
\*---------------------------------------------------------------------------*/
FoamFile
{
    version     2.0;
    format      ascii;
    class       volScalarField;
    location    "1000";
    object      k;
}
// * * * * * * * * * * * * * * * * * * * * * * * * * * * * * * * * * * * * * //

dimensions      [0 2 -2 0 0 0 0];

internalField   nonuniform List<scalar> 
4037
(
0.000122508
0.000122514
0.000122521
0.000122526
0.00012253
0.000122534
0.000122536
0.000122539
0.000122542
0.000122544
0.000122546
0.000122548
0.00012255
0.000122551
0.000122553
0.000122555
0.000122556
0.000122558
0.000122559
0.00012256
0.000122562
0.000122563
0.000122564
0.000122565
0.000122566
0.000122567
0.000122568
0.000122569
0.00012257
0.00012257
0.000122571
0.000122572
0.000122573
0.000122573
0.000122574
0.000122575
0.000122575
0.000122576
0.000122576
0.000122577
0.000122577
0.000122578
0.000122578
0.000122579
0.000122579
0.00012258
0.00012258
0.000122581
0.000122581
0.000122581
0.000122582
0.000122582
0.000122583
0.000122583
0.000122583
0.000122583
0.000122584
0.000122584
0.000122584
0.000122584
0.000122584
0.000122585
0.000122585
0.000122585
0.000122585
0.000122585
0.000122585
0.000122585
0.000122586
0.000122586
0.000122586
0.000122586
0.000122586
0.000122587
0.000122587
0.000122587
0.00012259
0.000126588
0.000126579
0.000126577
0.000126578
0.000126578
0.000126579
0.000126579
0.00012658
0.00012658
0.00012658
0.000126581
0.000126581
0.000126582
0.000126582
0.000126582
0.000126583
0.000126583
0.000126583
0.000126584
0.000126584
0.000126584
0.000126585
0.000126585
0.000126585
0.000126603
0.000126615
0.000126623
0.000126629
0.000126634
0.000126638
0.000126641
0.000126644
0.000126646
0.000126649
0.000126651
0.000126653
0.000126655
0.000126657
0.000126658
0.00012666
0.000126662
0.000126663
0.000126664
0.000126666
0.000126667
0.000126668
0.000126669
0.00012667
0.000126671
0.000126672
0.000126673
0.000126674
0.000126675
0.000126676
0.000126676
0.000126677
0.000126678
0.000126678
0.000126679
0.00012668
0.00012668
0.000126681
0.000126681
0.000126682
0.000126682
0.000126683
0.000126683
0.000126684
0.000126684
0.000126685
0.000126685
0.000126686
0.000126686
0.000126687
0.000126687
0.000126687
0.000126688
0.000126688
0.000126688
0.000126689
0.000126689
0.000126689
0.000126689
0.000126689
0.00012669
0.00012669
0.00012669
0.00012669
0.00012669
0.00012669
0.00012669
0.000126691
0.000126691
0.000126691
0.000126691
0.000126691
0.000126692
0.000126692
0.000126693
0.000126692
0.000126697
0.000126662
0.000126648
0.000126643
0.000126641
0.000126639
0.000126638
0.000126636
0.000126635
0.000126634
0.000126633
0.000126632
0.000126631
0.00012663
0.000126629
0.000126629
0.000126628
0.000126627
0.000126624
0.000126632
0.00013065
0.000130641
0.000130638
0.000130638
0.000130639
0.000130639
0.000130639
0.00013064
0.00013064
0.00013064
0.000130641
0.000130641
0.000130641
0.000130642
0.000130642
0.000130642
0.000130643
0.000130643
0.000130643
0.000130644
0.000130644
0.000130644
0.000130645
0.000130644
0.000130652
0.000130661
0.000130667
0.000130673
0.000130677
0.000130681
0.000130684
0.000130687
0.00013069
0.000130692
0.000130694
0.000130696
0.000130698
0.0001307
0.000130701
0.000130703
0.000130704
0.000130706
0.000130707
0.000130708
0.00013071
0.000130711
0.000130712
0.000130713
0.000130714
0.000130715
0.000130716
0.000130716
0.000130717
0.000130718
0.000130719
0.000130719
0.00013072
0.000130721
0.000130721
0.000130722
0.000130723
0.000130723
0.000130724
0.000130724
0.000130725
0.000130725
0.000130726
0.000130726
0.000130727
0.000130727
0.000130728
0.000130728
0.000130728
0.000130729
0.000130729
0.00013073
0.00013073
0.00013073
0.000130731
0.000130731
0.000130731
0.000130731
0.000130732
0.000130732
0.000130732
0.000130732
0.000130732
0.000130732
0.000130732
0.000130733
0.000130733
0.000130733
0.000130733
0.000130733
0.000130734
0.000130734
0.000130734
0.000130735
0.000130735
0.000130735
0.000130738
0.000130725
0.000130713
0.000130706
0.000130702
0.0001307
0.000130698
0.000130696
0.000130695
0.000130694
0.000130692
0.000130691
0.00013069
0.000130689
0.000130688
0.000130688
0.000130687
0.000130686
0.000130683
0.00013069
0.000134625
0.000134616
0.000134613
0.000134613
0.000134613
0.000134613
0.000134613
0.000134614
0.000134614
0.000134614
0.000134615
0.000134615
0.000134615
0.000134616
0.000134616
0.000134616
0.000134616
0.000134617
0.000134617
0.000134617
0.000134618
0.000134618
0.000134618
0.000134618
0.000134621
0.000134625
0.000134629
0.000134633
0.000134637
0.00013464
0.000134643
0.000134645
0.000134648
0.00013465
0.000134652
0.000134653
0.000134655
0.000134657
0.000134658
0.00013466
0.000134661
0.000134662
0.000134664
0.000134665
0.000134666
0.000134667
0.000134668
0.000134669
0.00013467
0.000134671
0.000134671
0.000134672
0.000134673
0.000134674
0.000134674
0.000134675
0.000134676
0.000134676
0.000134677
0.000134677
0.000134678
0.000134679
0.000134679
0.00013468
0.00013468
0.000134681
0.000134681
0.000134682
0.000134682
0.000134683
0.000134683
0.000134683
0.000134684
0.000134684
0.000134685
0.000134685
0.000134685
0.000134686
0.000134686
0.000134686
0.000134687
0.000134687
0.000134687
0.000134687
0.000134687
0.000134688
0.000134688
0.000134688
0.000134688
0.000134688
0.000134688
0.000134688
0.000134689
0.000134689
0.000134689
0.000134689
0.00013469
0.00013469
0.000134691
0.000134691
0.000134693
0.000134689
0.000134683
0.000134678
0.000134674
0.000134672
0.00013467
0.000134668
0.000134667
0.000134666
0.000134665
0.000134664
0.000134663
0.000134662
0.000134661
0.00013466
0.000134659
0.000134658
0.000134656
0.000134662
0.000138488
0.000138479
0.000138477
0.000138476
0.000138476
0.000138476
0.000138477
0.000138477
0.000138477
0.000138477
0.000138478
0.000138478
0.000138478
0.000138478
0.000138479
0.000138479
0.000138479
0.00013848
0.00013848
0.00013848
0.000138481
0.000138481
0.000138481
0.000138481
0.000138482
0.000138483
0.000138485
0.000138488
0.00013849
0.000138492
0.000138495
0.000138497
0.000138499
0.0001385
0.000138502
0.000138504
0.000138505
0.000138506
0.000138508
0.000138509
0.00013851
0.000138511
0.000138512
0.000138513
0.000138514
0.000138515
0.000138516
0.000138517
0.000138518
0.000138519
0.00013852
0.00013852
0.000138521
0.000138522
0.000138522
0.000138523
0.000138523
0.000138524
0.000138525
0.000138525
0.000138526
0.000138526
0.000138527
0.000138527
0.000138528
0.000138528
0.000138529
0.000138529
0.00013853
0.00013853
0.000138531
0.000138531
0.000138531
0.000138532
0.000138532
0.000138533
0.000138533
0.000138533
0.000138534
0.000138534
0.000138534
0.000138534
0.000138535
0.000138535
0.000138535
0.000138535
0.000138535
0.000138535
0.000138536
0.000138536
0.000138536
0.000138536
0.000138536
0.000138537
0.000138537
0.000138537
0.000138538
0.000138538
0.000138538
0.000138539
0.00013854
0.00013854
0.000138538
0.000138535
0.000138533
0.000138531
0.000138529
0.000138528
0.000138527
0.000138526
0.000138525
0.000138524
0.000138523
0.000138523
0.000138522
0.000138521
0.00013852
0.000138519
0.000138517
0.000138523
0.000142218
0.00014221
0.000142208
0.000142207
0.000142207
0.000142207
0.000142207
0.000142207
0.000142207
0.000142207
0.000142208
0.000142208
0.000142208
0.000142209
0.000142209
0.000142209
0.000142209
0.00014221
0.00014221
0.00014221
0.000142211
0.000142211
0.000142211
0.000142211
0.000142212
0.000142212
0.000142212
0.000142213
0.000142215
0.000142216
0.000142217
0.000142219
0.00014222
0.000142221
0.000142223
0.000142224
0.000142225
0.000142226
0.000142227
0.000142228
0.000142229
0.00014223
0.000142231
0.000142232
0.000142233
0.000142234
0.000142235
0.000142235
0.000142236
0.000142237
0.000142238
0.000142238
0.000142239
0.000142239
0.00014224
0.000142241
0.000142241
0.000142242
0.000142242
0.000142243
0.000142243
0.000142244
0.000142244
0.000142245
0.000142245
0.000142246
0.000142246
0.000142247
0.000142247
0.000142248
0.000142248
0.000142248
0.000142249
0.000142249
0.00014225
0.00014225
0.00014225
0.000142251
0.000142251
0.000142251
0.000142252
0.000142252
0.000142252
0.000142252
0.000142252
0.000142253
0.000142253
0.000142253
0.000142253
0.000142253
0.000142253
0.000142254
0.000142254
0.000142254
0.000142255
0.000142255
0.000142255
0.000142256
0.000142256
0.000142257
0.000142257
0.000142258
0.000142258
0.000142258
0.000142257
0.000142256
0.000142255
0.000142254
0.000142254
0.000142253
0.000142252
0.000142252
0.000142251
0.00014225
0.000142249
0.000142249
0.000142248
0.000142247
0.000142245
0.000142251
0.000145792
0.000145785
0.000145782
0.000145782
0.000145781
0.000145781
0.000145781
0.000145781
0.000145781
0.000145782
0.000145782
0.000145782
0.000145782
0.000145783
0.000145783
0.000145783
0.000145784
0.000145784
0.000145784
0.000145784
0.000145785
0.000145785
0.000145785
0.000145786
0.000145786
0.000145785
0.000145785
0.000145785
0.000145786
0.000145786
0.000145787
0.000145787
0.000145788
0.000145789
0.00014579
0.000145791
0.000145792
0.000145793
0.000145793
0.000145794
0.000145795
0.000145796
0.000145797
0.000145797
0.000145798
0.000145799
0.000145799
0.0001458
0.000145801
0.000145801
0.000145802
0.000145802
0.000145803
0.000145803
0.000145804
0.000145804
0.000145805
0.000145805
0.000145806
0.000145806
0.000145807
0.000145807
0.000145808
0.000145808
0.000145809
0.000145809
0.00014581
0.00014581
0.000145811
0.000145811
0.000145811
0.000145812
0.000145812
0.000145813
0.000145813
0.000145814
0.000145814
0.000145814
0.000145815
0.000145815
0.000145815
0.000145815
0.000145816
0.000145816
0.000145816
0.000145816
0.000145816
0.000145817
0.000145817
0.000145817
0.000145817
0.000145817
0.000145818
0.000145818
0.000145818
0.000145819
0.000145819
0.000145819
0.00014582
0.00014582
0.000145821
0.000145822
0.000145822
0.000145823
0.000145823
0.000145824
0.000145824
0.000145823
0.000145823
0.000145823
0.000145822
0.000145822
0.000145822
0.000145821
0.000145821
0.00014582
0.000145819
0.000145819
0.000145817
0.000145822
0.000149184
0.000149177
0.000149175
0.000149174
0.000149174
0.000149174
0.000149174
0.000149174
0.000149174
0.000149174
0.000149174
0.000149175
0.000149175
0.000149175
0.000149176
0.000149176
0.000149176
0.000149177
0.000149177
0.000149177
0.000149177
0.000149178
0.000149178
0.000149178
0.000149178
0.000149178
0.000149178
0.000149177
0.000149177
0.000149177
0.000149177
0.000149177
0.000149177
0.000149178
0.000149178
0.000149178
0.000149179
0.00014918
0.00014918
0.000149181
0.000149181
0.000149182
0.000149182
0.000149183
0.000149183
0.000149184
0.000149184
0.000149185
0.000149185
0.000149186
0.000149186
0.000149187
0.000149187
0.000149188
0.000149188
0.000149189
0.000149189
0.00014919
0.00014919
0.000149191
0.000149191
0.000149191
0.000149192
0.000149192
0.000149193
0.000149193
0.000149194
0.000149194
0.000149195
0.000149195
0.000149196
0.000149196
0.000149196
0.000149197
0.000149197
0.000149198
0.000149198
0.000149198
0.000149199
0.000149199
0.000149199
0.0001492
0.0001492
0.0001492
0.0001492
0.0001492
0.000149201
0.000149201
0.000149201
0.000149201
0.000149201
0.000149202
0.000149202
0.000149202
0.000149203
0.000149203
0.000149203
0.000149204
0.000149204
0.000149205
0.000149205
0.000149206
0.000149207
0.000149208
0.000149209
0.00014921
0.00014921
0.000149211
0.000149211
0.000149211
0.000149211
0.000149211
0.000149211
0.00014921
0.00014921
0.000149209
0.000149209
0.000149208
0.000149207
0.000149212
0.000152367
0.000152361
0.000152359
0.000152358
0.000152358
0.000152358
0.000152358
0.000152358
0.000152358
0.000152358
0.000152358
0.000152358
0.000152359
0.000152359
0.000152359
0.00015236
0.00015236
0.00015236
0.000152361
0.000152361
0.000152361
0.000152362
0.000152362
0.000152362
0.000152362
0.000152362
0.000152361
0.000152361
0.00015236
0.00015236
0.000152359
0.000152359
0.000152359
0.000152359
0.000152359
0.000152359
0.000152359
0.000152359
0.00015236
0.00015236
0.00015236
0.000152361
0.000152361
0.000152361
0.000152362
0.000152362
0.000152362
0.000152363
0.000152363
0.000152364
0.000152364
0.000152364
0.000152365
0.000152365
0.000152366
0.000152366
0.000152366
0.000152367
0.000152367
0.000152368
0.000152368
0.000152368
0.000152369
0.000152369
0.00015237
0.00015237
0.000152371
0.000152371
0.000152371
0.000152372
0.000152372
0.000152373
0.000152373
0.000152374
0.000152374
0.000152374
0.000152375
0.000152375
0.000152376
0.000152376
0.000152376
0.000152376
0.000152377
0.000152377
0.000152377
0.000152377
0.000152378
0.000152378
0.000152378
0.000152378
0.000152378
0.000152379
0.000152379
0.000152379
0.00015238
0.00015238
0.00015238
0.000152381
0.000152381
0.000152382
0.000152382
0.000152383
0.000152384
0.000152385
0.000152386
0.000152387
0.000152388
0.000152389
0.00015239
0.00015239
0.00015239
0.000152391
0.000152391
0.00015239
0.00015239
0.00015239
0.000152389
0.000152389
0.000152388
0.000152393
0.000155311
0.000155305
0.000155303
0.000155303
0.000155302
0.000155302
0.000155302
0.000155302
0.000155302
0.000155302
0.000155303
0.000155303
0.000155303
0.000155304
0.000155304
0.000155304
0.000155305
0.000155305
0.000155305
0.000155306
0.000155306
0.000155306
0.000155306
0.000155307
0.000155307
0.000155307
0.000155306
0.000155306
0.000155305
0.000155304
0.000155303
0.000155303
0.000155302
0.000155302
0.000155302
0.000155301
0.000155301
0.000155301
0.000155301
0.000155301
0.000155301
0.000155302
0.000155302
0.000155302
0.000155302
0.000155302
0.000155303
0.000155303
0.000155303
0.000155303
0.000155304
0.000155304
0.000155304
0.000155305
0.000155305
0.000155305
0.000155306
0.000155306
0.000155306
0.000155307
0.000155307
0.000155307
0.000155308
0.000155308
0.000155309
0.000155309
0.00015531
0.00015531
0.000155311
0.000155311
0.000155311
0.000155312
0.000155312
0.000155313
0.000155313
0.000155314
0.000155314
0.000155314
0.000155315
0.000155315
0.000155315
0.000155316
0.000155316
0.000155316
0.000155316
0.000155317
0.000155317
0.000155317
0.000155317
0.000155318
0.000155318
0.000155318
0.000155318
0.000155319
0.000155319
0.000155319
0.00015532
0.00015532
0.000155321
0.000155321
0.000155321
0.000155322
0.000155322
0.000155323
0.000155325
0.000155326
0.000155327
0.000155328
0.000155329
0.00015533
0.000155331
0.000155331
0.000155331
0.000155331
0.000155331
0.000155331
0.000155331
0.000155331
0.000155329
0.000155334
0.000157982
0.000157977
0.000157975
0.000157974
0.000157974
0.000157973
0.000157973
0.000157973
0.000157974
0.000157974
0.000157974
0.000157975
0.000157975
0.000157975
0.000157976
0.000157976
0.000157976
0.000157977
0.000157977
0.000157977
0.000157978
0.000157978
0.000157978
0.000157978
0.000157978
0.000157978
0.000157978
0.000157977
0.000157977
0.000157976
0.000157975
0.000157974
0.000157973
0.000157973
0.000157972
0.000157972
0.000157971
0.000157971
0.000157971
0.000157971
0.000157971
0.000157971
0.000157971
0.000157971
0.000157971
0.000157971
0.000157971
0.000157971
0.000157971
0.000157971
0.000157971
0.000157972
0.000157972
0.000157972
0.000157972
0.000157973
0.000157973
0.000157973
0.000157974
0.000157974
0.000157974
0.000157975
0.000157975
0.000157976
0.000157976
0.000157976
0.000157977
0.000157977
0.000157978
0.000157978
0.000157979
0.000157979
0.00015798
0.00015798
0.00015798
0.000157981
0.000157981
0.000157982
0.000157982
0.000157982
0.000157983
0.000157983
0.000157983
0.000157983
0.000157984
0.000157984
0.000157984
0.000157985
0.000157985
0.000157985
0.000157985
0.000157986
0.000157986
0.000157986
0.000157987
0.000157987
0.000157987
0.000157988
0.000157988
0.000157988
0.000157989
0.000157989
0.00015799
0.00015799
0.000157991
0.000157993
0.000157994
0.000157995
0.000157996
0.000157997
0.000157998
0.000157998
0.000157999
0.000157999
0.000157999
0.000157999
0.000157999
0.000157999
0.000157998
0.000158002
0.000160341
0.000160336
0.000160335
0.000160334
0.000160333
0.000160333
0.000160333
0.000160334
0.000160334
0.000160334
0.000160335
0.000160335
0.000160335
0.000160336
0.000160336
0.000160336
0.000160337
0.000160337
0.000160337
0.000160338
0.000160338
0.000160338
0.000160338
0.000160338
0.000160338
0.000160338
0.000160338
0.000160338
0.000160337
0.000160336
0.000160335
0.000160335
0.000160334
0.000160333
0.000160332
0.000160331
0.000160331
0.00016033
0.00016033
0.00016033
0.000160329
0.000160329
0.000160329
0.000160329
0.000160329
0.000160329
0.000160329
0.000160329
0.000160329
0.000160329
0.000160329
0.000160329
0.000160329
0.000160329
0.00016033
0.00016033
0.00016033
0.00016033
0.000160331
0.000160331
0.000160331
0.000160332
0.000160332
0.000160332
0.000160333
0.000160333
0.000160334
0.000160334
0.000160335
0.000160335
0.000160336
0.000160336
0.000160336
0.000160337
0.000160337
0.000160338
0.000160338
0.000160339
0.000160339
0.000160339
0.00016034
0.00016034
0.00016034
0.000160341
0.000160341
0.000160341
0.000160341
0.000160342
0.000160342
0.000160342
0.000160343
0.000160343
0.000160343
0.000160343
0.000160344
0.000160344
0.000160344
0.000160345
0.000160345
0.000160345
0.000160346
0.000160346
0.000160346
0.000160347
0.000160348
0.000160349
0.00016035
0.000160351
0.000160352
0.000160353
0.000160354
0.000160355
0.000160355
0.000160355
0.000160356
0.000160356
0.000160356
0.000160356
0.000160355
0.000160359
0.000162345
0.000162341
0.000162339
0.000162338
0.000162338
0.000162338
0.000162338
0.000162338
0.000162339
0.000162339
0.000162339
0.00016234
0.00016234
0.000162341
0.000162341
0.000162341
0.000162342
0.000162342
0.000162342
0.000162342
0.000162343
0.000162343
0.000162343
0.000162343
0.000162343
0.000162343
0.000162343
0.000162343
0.000162342
0.000162342
0.000162341
0.00016234
0.000162339
0.000162338
0.000162337
0.000162336
0.000162336
0.000162335
0.000162334
0.000162334
0.000162333
0.000162333
0.000162333
0.000162332
0.000162332
0.000162332
0.000162332
0.000162332
0.000162332
0.000162332
0.000162332
0.000162332
0.000162332
0.000162332
0.000162332
0.000162332
0.000162333
0.000162333
0.000162333
0.000162333
0.000162334
0.000162334
0.000162334
0.000162335
0.000162335
0.000162336
0.000162336
0.000162336
0.000162337
0.000162337
0.000162338
0.000162338
0.000162339
0.000162339
0.00016234
0.00016234
0.000162341
0.000162341
0.000162341
0.000162342
0.000162342
0.000162342
0.000162343
0.000162343
0.000162343
0.000162344
0.000162344
0.000162344
0.000162345
0.000162345
0.000162345
0.000162346
0.000162346
0.000162346
0.000162346
0.000162347
0.000162347
0.000162347
0.000162348
0.000162348
0.000162348
0.000162348
0.000162348
0.000162349
0.000162349
0.00016235
0.000162351
0.000162352
0.000162353
0.000162354
0.000162355
0.000162356
0.000162356
0.000162357
0.000162357
0.000162357
0.000162357
0.000162358
0.000162357
0.000162361
0.000163943
0.000163938
0.000163937
0.000163936
0.000163936
0.000163936
0.000163936
0.000163936
0.000163937
0.000163937
0.000163938
0.000163938
0.000163939
0.000163939
0.000163939
0.00016394
0.00016394
0.00016394
0.00016394
0.000163941
0.000163941
0.000163941
0.000163941
0.000163941
0.000163941
0.000163941
0.000163941
0.000163941
0.000163941
0.00016394
0.000163939
0.000163939
0.000163938
0.000163937
0.000163936
0.000163935
0.000163934
0.000163933
0.000163933
0.000163932
0.000163931
0.000163931
0.00016393
0.00016393
0.000163929
0.000163929
0.000163929
0.000163929
0.000163929
0.000163929
0.000163928
0.000163928
0.000163929
0.000163929
0.000163929
0.000163929
0.000163929
0.000163929
0.00016393
0.00016393
0.00016393
0.00016393
0.000163931
0.000163931
0.000163932
0.000163932
0.000163932
0.000163933
0.000163933
0.000163934
0.000163934
0.000163935
0.000163935
0.000163936
0.000163936
0.000163937
0.000163937
0.000163937
0.000163938
0.000163938
0.000163939
0.000163939
0.000163939
0.00016394
0.00016394
0.00016394
0.000163941
0.000163941
0.000163941
0.000163942
0.000163942
0.000163942
0.000163943
0.000163943
0.000163943
0.000163943
0.000163944
0.000163944
0.000163944
0.000163944
0.000163944
0.000163945
0.000163945
0.000163945
0.000163945
0.000163946
0.000163946
0.000163947
0.000163948
0.000163949
0.00016395
0.00016395
0.000163951
0.000163951
0.000163952
0.000163952
0.000163952
0.000163953
0.000163952
0.000163956
0.000165073
0.000165069
0.000165067
0.000165066
0.000165066
0.000165067
0.000165067
0.000165067
0.000165068
0.000165068
0.000165069
0.000165069
0.00016507
0.00016507
0.00016507
0.000165071
0.000165071
0.000165071
0.000165071
0.000165071
0.000165072
0.000165072
0.000165072
0.000165072
0.000165072
0.000165072
0.000165072
0.000165072
0.000165072
0.000165071
0.000165071
0.00016507
0.000165069
0.000165068
0.000165067
0.000165066
0.000165065
0.000165065
0.000165064
0.000165063
0.000165062
0.000165062
0.000165061
0.00016506
0.00016506
0.00016506
0.000165059
0.000165059
0.000165059
0.000165059
0.000165059
0.000165059
0.000165059
0.000165059
0.000165059
0.000165059
0.000165059
0.000165059
0.000165059
0.00016506
0.00016506
0.00016506
0.000165061
0.000165061
0.000165061
0.000165062
0.000165062
0.000165063
0.000165063
0.000165064
0.000165064
0.000165065
0.000165065
0.000165065
0.000165066
0.000165066
0.000165067
0.000165067
0.000165068
0.000165068
0.000165069
0.000165069
0.000165069
0.00016507
0.00016507
0.00016507
0.000165071
0.000165071
0.000165071
0.000165072
0.000165072
0.000165072
0.000165073
0.000165073
0.000165073
0.000165073
0.000165074
0.000165074
0.000165074
0.000165074
0.000165074
0.000165074
0.000165074
0.000165074
0.000165074
0.000165074
0.000165075
0.000165075
0.000165076
0.000165077
0.000165077
0.000165078
0.000165079
0.000165079
0.00016508
0.00016508
0.00016508
0.00016508
0.00016508
0.000165084
0.000165662
0.000165659
0.000165657
0.000165657
0.000165657
0.000165657
0.000165658
0.000165658
0.000165659
0.000165659
0.00016566
0.00016566
0.000165661
0.000165661
0.000165661
0.000165662
0.000165662
0.000165662
0.000165662
0.000165662
0.000165662
0.000165662
0.000165663
0.000165663
0.000165663
0.000165663
0.000165663
0.000165663
0.000165663
0.000165662
0.000165662
0.000165661
0.00016566
0.00016566
0.000165659
0.000165658
0.000165657
0.000165656
0.000165655
0.000165654
0.000165653
0.000165653
0.000165652
0.000165651
0.000165651
0.00016565
0.00016565
0.00016565
0.000165649
0.000165649
0.000165649
0.000165649
0.000165649
0.000165649
0.000165649
0.000165649
0.000165649
0.000165649
0.00016565
0.00016565
0.00016565
0.00016565
0.000165651
0.000165651
0.000165651
0.000165652
0.000165652
0.000165653
0.000165653
0.000165654
0.000165654
0.000165655
0.000165655
0.000165656
0.000165656
0.000165657
0.000165657
0.000165657
0.000165658
0.000165658
0.000165659
0.000165659
0.00016566
0.00016566
0.00016566
0.000165661
0.000165661
0.000165662
0.000165662
0.000165662
0.000165663
0.000165663
0.000165663
0.000165663
0.000165664
0.000165664
0.000165664
0.000165664
0.000165664
0.000165664
0.000165664
0.000165664
0.000165664
0.000165664
0.000165663
0.000165663
0.000165664
0.000165664
0.000165664
0.000165665
0.000165665
0.000165666
0.000165666
0.000165667
0.000165667
0.000165668
0.000165668
0.000165668
0.000165668
0.000165671
0.000165624
0.00016562
0.000165619
0.000165618
0.000165619
0.000165619
0.00016562
0.00016562
0.000165621
0.000165622
0.000165622
0.000165623
0.000165623
0.000165623
0.000165623
0.000165624
0.000165624
0.000165624
0.000165624
0.000165624
0.000165624
0.000165624
0.000165624
0.000165625
0.000165625
0.000165625
0.000165625
0.000165625
0.000165625
0.000165624
0.000165624
0.000165624
0.000165623
0.000165622
0.000165621
0.00016562
0.000165619
0.000165619
0.000165618
0.000165617
0.000165616
0.000165615
0.000165614
0.000165614
0.000165613
0.000165613
0.000165612
0.000165612
0.000165611
0.000165611
0.000165611
0.000165611
0.000165611
0.000165611
0.000165611
0.000165611
0.000165611
0.000165611
0.000165611
0.000165611
0.000165612
0.000165612
0.000165612
0.000165613
0.000165613
0.000165614
0.000165614
0.000165614
0.000165615
0.000165615
0.000165616
0.000165616
0.000165617
0.000165617
0.000165618
0.000165618
0.000165619
0.000165619
0.00016562
0.00016562
0.000165621
0.000165621
0.000165621
0.000165622
0.000165622
0.000165623
0.000165623
0.000165624
0.000165624
0.000165624
0.000165625
0.000165625
0.000165625
0.000165625
0.000165625
0.000165626
0.000165626
0.000165626
0.000165626
0.000165625
0.000165625
0.000165625
0.000165625
0.000165625
0.000165624
0.000165624
0.000165624
0.000165624
0.000165624
0.000165625
0.000165625
0.000165625
0.000165626
0.000165626
0.000165627
0.000165627
0.000165627
0.000165628
0.000165628
0.000165631
0.000164846
0.000164843
0.000164842
0.000164842
0.000164842
0.000164842
0.000164843
0.000164844
0.000164845
0.000164845
0.000164846
0.000164846
0.000164847
0.000164847
0.000164847
0.000164847
0.000164847
0.000164847
0.000164847
0.000164847
0.000164847
0.000164848
0.000164848
0.000164848
0.000164848
0.000164848
0.000164848
0.000164848
0.000164848
0.000164848
0.000164848
0.000164847
0.000164847
0.000164846
0.000164845
0.000164844
0.000164844
0.000164843
0.000164842
0.000164841
0.00016484
0.000164839
0.000164838
0.000164838
0.000164837
0.000164836
0.000164836
0.000164835
0.000164835
0.000164835
0.000164834
0.000164834
0.000164834
0.000164834
0.000164834
0.000164834
0.000164834
0.000164834
0.000164835
0.000164835
0.000164835
0.000164835
0.000164836
0.000164836
0.000164837
0.000164837
0.000164837
0.000164838
0.000164838
0.000164839
0.000164839
0.00016484
0.00016484
0.000164841
0.000164841
0.000164842
0.000164842
0.000164843
0.000164843
0.000164844
0.000164844
0.000164845
0.000164845
0.000164845
0.000164846
0.000164846
0.000164847
0.000164847
0.000164848
0.000164848
0.000164848
0.000164848
0.000164849
0.000164849
0.000164849
0.000164849
0.000164849
0.000164849
0.000164849
0.000164849
0.000164848
0.000164848
0.000164848
0.000164847
0.000164847
0.000164846
0.000164846
0.000164846
0.000164846
0.000164846
0.000164846
0.000164847
0.000164847
0.000164847
0.000164847
0.000164848
0.000164848
0.000164849
0.000164849
0.000164851
0.000163193
0.00016319
0.000163189
0.000163189
0.000163189
0.00016319
0.000163191
0.000163192
0.000163192
0.000163193
0.000163193
0.000163194
0.000163194
0.000163194
0.000163194
0.000163194
0.000163194
0.000163194
0.000163194
0.000163194
0.000163195
0.000163195
0.000163195
0.000163195
0.000163195
0.000163195
0.000163195
0.000163195
0.000163195
0.000163195
0.000163195
0.000163195
0.000163194
0.000163194
0.000163193
0.000163192
0.000163191
0.000163191
0.00016319
0.000163189
0.000163188
0.000163187
0.000163186
0.000163186
0.000163185
0.000163184
0.000163184
0.000163183
0.000163183
0.000163182
0.000163182
0.000163182
0.000163182
0.000163182
0.000163182
0.000163182
0.000163182
0.000163182
0.000163182
0.000163182
0.000163183
0.000163183
0.000163183
0.000163184
0.000163184
0.000163184
0.000163185
0.000163185
0.000163186
0.000163186
0.000163187
0.000163187
0.000163188
0.000163188
0.000163189
0.000163189
0.00016319
0.00016319
0.000163191
0.000163191
0.000163192
0.000163192
0.000163193
0.000163193
0.000163194
0.000163194
0.000163194
0.000163195
0.000163195
0.000163196
0.000163196
0.000163196
0.000163196
0.000163196
0.000163196
0.000163196
0.000163196
0.000163196
0.000163196
0.000163196
0.000163196
0.000163195
0.000163195
0.000163194
0.000163193
0.000163193
0.000163192
0.000163192
0.000163192
0.000163192
0.000163192
0.000163192
0.000163192
0.000163192
0.000163193
0.000163193
0.000163193
0.000163194
0.000163194
0.000163196
0.000160489
0.000160486
0.000160485
0.000160485
0.000160486
0.000160487
0.000160488
0.000160489
0.00016049
0.00016049
0.000160491
0.000160491
0.000160491
0.000160491
0.000160491
0.000160491
0.000160491
0.000160491
0.000160491
0.000160491
0.000160491
0.000160491
0.000160491
0.000160492
0.000160492
0.000160492
0.000160492
0.000160492
0.000160492
0.000160492
0.000160492
0.000160492
0.000160492
0.000160491
0.00016049
0.00016049
0.000160489
0.000160488
0.000160487
0.000160486
0.000160486
0.000160485
0.000160484
0.000160483
0.000160482
0.000160482
0.000160481
0.000160481
0.00016048
0.00016048
0.00016048
0.000160479
0.000160479
0.000160479
0.000160479
0.000160479
0.000160479
0.000160479
0.00016048
0.00016048
0.00016048
0.00016048
0.000160481
0.000160481
0.000160481
0.000160482
0.000160482
0.000160483
0.000160483
0.000160483
0.000160484
0.000160484
0.000160485
0.000160485
0.000160486
0.000160486
0.000160487
0.000160487
0.000160488
0.000160488
0.000160489
0.000160489
0.00016049
0.00016049
0.000160491
0.000160491
0.000160492
0.000160492
0.000160493
0.000160493
0.000160493
0.000160493
0.000160494
0.000160494
0.000160494
0.000160494
0.000160494
0.000160493
0.000160493
0.000160493
0.000160492
0.000160492
0.000160491
0.000160491
0.00016049
0.000160489
0.000160488
0.000160488
0.000160488
0.000160487
0.000160487
0.000160487
0.000160487
0.000160487
0.000160487
0.000160488
0.000160488
0.000160488
0.000160489
0.000160491
0.000156511
0.00015651
0.000156509
0.000156509
0.00015651
0.000156511
0.000156512
0.000156513
0.000156514
0.000156514
0.000156514
0.000156514
0.000156514
0.000156514
0.000156514
0.000156514
0.000156514
0.000156514
0.000156514
0.000156515
0.000156515
0.000156515
0.000156515
0.000156515
0.000156515
0.000156515
0.000156515
0.000156516
0.000156516
0.000156516
0.000156516
0.000156516
0.000156515
0.000156515
0.000156514
0.000156514
0.000156513
0.000156512
0.000156512
0.000156511
0.00015651
0.000156509
0.000156508
0.000156507
0.000156507
0.000156506
0.000156506
0.000156505
0.000156505
0.000156504
0.000156504
0.000156504
0.000156504
0.000156503
0.000156503
0.000156503
0.000156503
0.000156504
0.000156504
0.000156504
0.000156504
0.000156504
0.000156505
0.000156505
0.000156505
0.000156506
0.000156506
0.000156507
0.000156507
0.000156507
0.000156508
0.000156508
0.000156509
0.000156509
0.00015651
0.00015651
0.000156511
0.000156511
0.000156512
0.000156512
0.000156513
0.000156514
0.000156514
0.000156515
0.000156515
0.000156516
0.000156516
0.000156516
0.000156517
0.000156517
0.000156517
0.000156518
0.000156518
0.000156518
0.000156518
0.000156518
0.000156517
0.000156517
0.000156517
0.000156516
0.000156516
0.000156515
0.000156515
0.000156514