/*--------------------------------*- C++ -*----------------------------------*\
  =========                 |
  \\      /  F ield         | OpenFOAM: The Open Source CFD Toolbox
   \\    /   O peration     | Website:  https://openfoam.org
    \\  /    A nd           | Version:  7
     \\/     M anipulation  |
\*---------------------------------------------------------------------------*/
FoamFile
{
    version     2.0;
    format      ascii;
    class       volScalarField;
    location    "1000";
    object      omega;
}
// * * * * * * * * * * * * * * * * * * * * * * * * * * * * * * * * * * * * * //

dimensions      [0 0 -1 0 0 0 0];

internalField   nonuniform List<scalar> 
4037
(
0.610424
0.610435
0.610451
0.610463
0.61047
0.610477
0.610482
0.610486
0.610491
0.610494
0.610498
0.610501
0.610504
0.610507
0.61051
0.610512
0.610514
0.610517
0.610519
0.610521
0.610522
0.610524
0.610525
0.610527
0.610528
0.610529
0.61053
0.610531
0.610531
0.610532
0.610533
0.610533
0.610534
0.610534
0.610534
0.610535
0.610535
0.610536
0.610536
0.610536
0.610537
0.610537
0.610538
0.610538
0.610539
0.61054
0.61054
0.610541
0.610541
0.610542
0.610542
0.610543
0.610543
0.610543
0.610543
0.610543
0.610543
0.610542
0.610542
0.610541
0.610541
0.61054
0.61054
0.61054
0.61054
0.61054
0.610541
0.610542
0.610543
0.610545
0.610548
0.610551
0.610554
0.610559
0.610563
0.610567
0.610578
0.654193
0.654155
0.654149
0.654149
0.65415
0.654152
0.654153
0.654154
0.654155
0.654156
0.654158
0.654159
0.654161
0.654163
0.654165
0.654167
0.654169
0.654171
0.654173
0.654175
0.654178
0.65418
0.654181
0.654183
0.654253
0.65429
0.654313
0.654328
0.654339
0.654347
0.654354
0.65436
0.654365
0.654369
0.654373
0.654376
0.65438
0.654382
0.654385
0.654388
0.65439
0.654392
0.654394
0.654396
0.654397
0.654399
0.6544
0.654401
0.654402
0.654403
0.654404
0.654404
0.654405
0.654405
0.654405
0.654406
0.654406
0.654406
0.654406
0.654407
0.654407
0.654407
0.654407
0.654407
0.654408
0.654408
0.654408
0.654409
0.654409
0.65441
0.65441
0.654411
0.654411
0.654412
0.654412
0.654413
0.654413
0.654413
0.654413
0.654412
0.654412
0.654411
0.654411
0.65441
0.654409
0.654409
0.654408
0.654408
0.654408
0.654408
0.654409
0.65441
0.654411
0.654413
0.654416
0.654419
0.654423
0.654427
0.654432
0.654435
0.654455
0.654323
0.65428
0.654277
0.654282
0.654288
0.654294
0.6543
0.654306
0.654312
0.654317
0.654322
0.654327
0.65433
0.654333
0.654335
0.654336
0.654337
0.65433
0.654362
0.700957
0.700921
0.700912
0.70091
0.70091
0.70091
0.700911
0.700911
0.700911
0.700912
0.700913
0.700914
0.700915
0.700917
0.700918
0.70092
0.700922
0.700924
0.700926
0.700928
0.70093
0.700932
0.700934
0.700933
0.700964
0.700993
0.701014
0.70103
0.701041
0.70105
0.701057
0.701063
0.701069
0.701073
0.701077
0.70108
0.701083
0.701086
0.701089
0.701091
0.701093
0.701095
0.701097
0.701098
0.7011
0.701101
0.701102
0.701103
0.701103
0.701104
0.701104
0.701105
0.701105
0.701105
0.701105
0.701105
0.701105
0.701105
0.701105
0.701105
0.701105
0.701105
0.701105
0.701105
0.701105
0.701106
0.701106
0.701106
0.701107
0.701107
0.701107
0.701108
0.701108
0.701109
0.701109
0.701109
0.701109
0.701109
0.701109
0.701108
0.701108
0.701107
0.701106
0.701105
0.701105
0.701104
0.701103
0.701103
0.701103
0.701103
0.701103
0.701105
0.701106
0.701108
0.701111
0.701114
0.701118
0.701123
0.701128
0.701132
0.701148
0.7011
0.70106
0.701043
0.701039
0.701041
0.701045
0.701049
0.701054
0.701059
0.701063
0.701067
0.701071
0.701074
0.701076
0.701078
0.701078
0.701079
0.701072
0.701099
0.750828
0.750797
0.750788
0.750784
0.750783
0.750782
0.750781
0.750781
0.75078
0.75078
0.750781
0.750781
0.750782
0.750783
0.750784
0.750786
0.750787
0.750789
0.750791
0.750792
0.750794
0.750796
0.750798
0.750798
0.750809
0.750824
0.750839
0.750851
0.750861
0.750869
0.750876
0.750881
0.750886
0.75089
0.750893
0.750896
0.750899
0.750902
0.750904
0.750906
0.750907
0.750909
0.75091
0.750912
0.750913
0.750913
0.750914
0.750915
0.750915
0.750915
0.750915
0.750916
0.750916
0.750915
0.750915
0.750915
0.750915
0.750915
0.750914
0.750914
0.750914
0.750914
0.750914
0.750914
0.750914
0.750914
0.750914
0.750914
0.750914
0.750915
0.750915
0.750915
0.750916
0.750916
0.750916
0.750916
0.750916
0.750916
0.750915
0.750915
0.750914
0.750913
0.750912
0.750911
0.75091
0.75091
0.750909
0.750908
0.750908
0.750908
0.750909
0.75091
0.750912
0.750914
0.750917
0.750921
0.750925
0.750929
0.750935
0.750939
0.750951
0.750941
0.750921
0.750908
0.750902
0.750901
0.750904
0.750907
0.750911
0.750916
0.75092
0.750923
0.750927
0.750929
0.750931
0.750932
0.750932
0.750933
0.750926
0.750948
0.804146
0.80412
0.804111
0.804106
0.804103
0.804101
0.804099
0.804098
0.804097
0.804096
0.804096
0.804096
0.804097
0.804097
0.804098
0.804099
0.804101
0.804102
0.804103
0.804105
0.804106
0.804108
0.804109
0.80411
0.804114
0.80412
0.804128
0.804136
0.804143
0.804148
0.804153
0.804158
0.804161
0.804165
0.804167
0.80417
0.804172
0.804174
0.804176
0.804177
0.804179
0.80418
0.804181
0.804181
0.804182
0.804182
0.804183
0.804183
0.804183
0.804183
0.804183
0.804183
0.804182
0.804182
0.804182
0.804181
0.804181
0.80418
0.80418
0.804179
0.804179
0.804179
0.804179
0.804178
0.804178
0.804178
0.804178
0.804179
0.804179
0.804179
0.804179
0.804179
0.80418
0.80418
0.80418
0.80418
0.80418
0.804179
0.804179
0.804178
0.804177
0.804176
0.804175
0.804174
0.804173
0.804172
0.804171
0.804171
0.804171
0.804171
0.804172
0.804173
0.804175
0.804177
0.80418
0.804184
0.804188
0.804193
0.804199
0.804204
0.804213
0.804216
0.804212
0.804207
0.804204
0.804204
0.804207
0.80421
0.804214
0.804218
0.804222
0.804226
0.804229
0.804231
0.804233
0.804233
0.804233
0.804233
0.804227
0.804244
0.861321
0.861299
0.86129
0.861285
0.861281
0.861277
0.861274
0.861272
0.86127
0.861269
0.861268
0.861268
0.861268
0.861268
0.861269
0.86127
0.861271
0.861272
0.861273
0.861274
0.861275
0.861277
0.861278
0.861279
0.86128
0.861282
0.861285
0.861288
0.861292
0.861295
0.861298
0.861301
0.861303
0.861305
0.861307
0.861309
0.86131
0.861311
0.861312
0.861313
0.861314
0.861315
0.861315
0.861316
0.861316
0.861316
0.861316
0.861316
0.861315
0.861315
0.861314
0.861314
0.861313
0.861313
0.861312
0.861312
0.861311
0.86131
0.86131
0.861309
0.861309
0.861308
0.861308
0.861308
0.861307
0.861307
0.861307
0.861307
0.861307
0.861308
0.861308
0.861308
0.861308
0.861308
0.861308
0.861308
0.861308
0.861307
0.861307
0.861306
0.861305
0.861304
0.861302
0.861301
0.8613
0.861299
0.861298
0.861298
0.861298
0.861298
0.861299
0.8613
0.861302
0.861305
0.861308
0.861312
0.861317
0.861322
0.861328
0.861334
0.861341
0.861349
0.861353
0.861355
0.861357
0.861359
0.861363
0.861367
0.861372
0.861376
0.86138
0.861384
0.861387
0.861389
0.86139
0.86139
0.861389
0.861388
0.861383
0.861396
0.922835
0.922818
0.92281
0.922803
0.922798
0.922793
0.92279
0.922786
0.922784
0.922782
0.922781
0.92278
0.922779
0.922779
0.922779
0.92278
0.922781
0.922782
0.922782
0.922783
0.922784
0.922785
0.922786
0.922787
0.922788
0.922788
0.922788
0.922788
0.922788
0.922789
0.92279
0.922791
0.922792
0.922793
0.922794
0.922795
0.922795
0.922796
0.922796
0.922796
0.922796
0.922797
0.922796
0.922796
0.922796
0.922796
0.922795
0.922795
0.922794
0.922793
0.922793
0.922792
0.922791
0.92279
0.922789
0.922789
0.922788
0.922787
0.922786
0.922785
0.922785
0.922784
0.922784
0.922784
0.922783
0.922783
0.922783
0.922783
0.922783
0.922783
0.922784
0.922784
0.922784
0.922784
0.922784
0.922783
0.922783
0.922782
0.922782
0.922781
0.92278
0.922778
0.922777
0.922776
0.922775
0.922774
0.922773
0.922772
0.922772
0.922773
0.922774
0.922775
0.922778
0.922781
0.922784
0.922788
0.922793
0.922799
0.922805
0.922811
0.922818
0.922826
0.922834
0.922841
0.922846
0.922852
0.922857
0.922863
0.922868
0.922873
0.922877
0.922881
0.922884
0.922886
0.922886
0.922886
0.922885
0.922884
0.922879
0.922888
0.989263
0.989251
0.989243
0.989236
0.989229
0.989224
0.989219
0.989215
0.989211
0.989209
0.989207
0.989206
0.989205
0.989204
0.989204
0.989204
0.989205
0.989205
0.989206
0.989207
0.989207
0.989208
0.989208
0.989209
0.98921
0.989209
0.989207
0.989206
0.989204
0.989203
0.989202
0.989202
0.989201
0.989201
0.989201
0.9892
0.9892
0.9892
0.989199
0.989199
0.989198
0.989198
0.989197
0.989197
0.989196
0.989195
0.989194
0.989193
0.989192
0.989191
0.98919
0.989189
0.989188
0.989187
0.989186
0.989185
0.989184
0.989183
0.989183
0.989182
0.989181
0.98918
0.98918
0.98918
0.989179
0.989179
0.989179
0.989179
0.989179
0.989179
0.98918
0.98918
0.98918
0.98918
0.989179
0.989179
0.989179
0.989178
0.989177
0.989176
0.989175
0.989173
0.989172
0.989171
0.98917
0.989169
0.989168
0.989167
0.989168
0.989168
0.989169
0.989171
0.989174
0.989177
0.989181
0.989185
0.98919
0.989196
0.989202
0.989208
0.989215
0.989224
0.989232
0.989241
0.989249
0.989257
0.989264
0.989271
0.989277
0.989283
0.989287
0.989291
0.989294
0.989296
0.989297
0.989296
0.989295
0.989293
0.989289
0.989293
1.06129
1.06128
1.06127
1.06127
1.06126
1.06125
1.06125
1.06124
1.06124
1.06123
1.06123
1.06123
1.06123
1.06123
1.06123
1.06123
1.06123
1.06123
1.06123
1.06123
1.06123
1.06123
1.06123
1.06123
1.06123
1.06123
1.06123
1.06122
1.06122
1.06122
1.06122
1.06121
1.06121
1.06121
1.06121
1.06121
1.06121
1.06121
1.06121
1.0612
1.0612
1.0612
1.0612
1.0612
1.0612
1.0612
1.0612
1.0612
1.06119
1.06119
1.06119
1.06119
1.06119
1.06119
1.06119
1.06119
1.06118
1.06118
1.06118
1.06118
1.06118
1.06118
1.06118
1.06118
1.06118
1.06118
1.06118
1.06118
1.06118
1.06118
1.06118
1.06118
1.06118
1.06118
1.06118
1.06118
1.06118
1.06118
1.06118
1.06118
1.06117
1.06117
1.06117
1.06117
1.06117
1.06117
1.06117
1.06117
1.06117
1.06117
1.06117
1.06117
1.06117
1.06118
1.06118
1.06119
1.06119
1.0612
1.0612
1.06121
1.06122
1.06123
1.06123
1.06124
1.06125
1.06126
1.06127
1.06128
1.06128
1.06129
1.0613
1.0613
1.0613
1.0613
1.0613
1.0613
1.0613
1.0613
1.0613
1.0613
1.13974
1.13973
1.13973
1.13972
1.13971
1.1397
1.13969
1.13969
1.13968
1.13968
1.13967
1.13967
1.13967
1.13967
1.13967
1.13967
1.13967
1.13967
1.13967
1.13967
1.13967
1.13967
1.13967
1.13967
1.13967
1.13967
1.13966
1.13966
1.13966
1.13966
1.13965
1.13965
1.13965
1.13964
1.13964
1.13964
1.13964
1.13964
1.13963
1.13963
1.13963
1.13963
1.13963
1.13963
1.13962
1.13962
1.13962
1.13962
1.13962
1.13962
1.13962
1.13961
1.13961
1.13961
1.13961
1.13961
1.13961
1.13961
1.13961
1.1396
1.1396
1.1396
1.1396
1.1396
1.1396
1.1396
1.1396
1.1396
1.1396
1.1396
1.1396
1.1396
1.1396
1.1396
1.1396
1.1396
1.1396
1.1396
1.1396
1.1396
1.1396
1.1396
1.13959
1.13959
1.13959
1.13959
1.13959
1.13959
1.13959
1.13959
1.13959
1.1396
1.1396
1.1396
1.13961
1.13961
1.13962
1.13962
1.13963
1.13964
1.13964
1.13965
1.13966
1.13967
1.13968
1.13969
1.1397
1.1397
1.13971
1.13972
1.13972
1.13973
1.13973
1.13973
1.13973
1.13973
1.13973
1.13973
1.13972
1.13972
1.22559
1.22559
1.22558
1.22557
1.22556
1.22555
1.22555
1.22554
1.22553
1.22553
1.22553
1.22552
1.22552
1.22552
1.22552
1.22552
1.22552
1.22552
1.22552
1.22552
1.22552
1.22551
1.22551
1.22551
1.22551
1.22551
1.22551
1.22551
1.22551
1.2255
1.2255
1.22549
1.22549
1.22549
1.22548
1.22548
1.22548
1.22548
1.22547
1.22547
1.22547
1.22547
1.22547
1.22546
1.22546
1.22546
1.22546
1.22546
1.22545
1.22545
1.22545
1.22545
1.22545
1.22545
1.22544
1.22544
1.22544
1.22544
1.22544
1.22544
1.22544
1.22544
1.22544
1.22544
1.22544
1.22544
1.22544
1.22544
1.22544
1.22544
1.22544
1.22544
1.22544
1.22544
1.22544
1.22544
1.22544
1.22544
1.22544
1.22543
1.22543
1.22543
1.22543
1.22543
1.22543
1.22543
1.22543
1.22543
1.22543
1.22543
1.22543
1.22543
1.22544
1.22544
1.22544
1.22545
1.22545
1.22546
1.22547
1.22547
1.22548
1.22549
1.2255
1.2255
1.22551
1.22552
1.22553
1.22554
1.22555
1.22555
1.22556
1.22556
1.22557
1.22557
1.22557
1.22557
1.22556
1.22556
1.22556
1.22555
1.32006
1.32006
1.32005
1.32004
1.32003
1.32002
1.32001
1.32
1.32
1.31999
1.31999
1.31999
1.31998
1.31998
1.31998
1.31998
1.31998
1.31997
1.31997
1.31997
1.31997
1.31997
1.31997
1.31997
1.31997
1.31997
1.31997
1.31996
1.31996
1.31996
1.31995
1.31995
1.31995
1.31994
1.31994
1.31993
1.31993
1.31993
1.31993
1.31992
1.31992
1.31992
1.31992
1.31991
1.31991
1.31991
1.31991
1.3199
1.3199
1.3199
1.3199
1.3199
1.3199
1.31989
1.31989
1.31989
1.31989
1.31989
1.31989
1.31989
1.31989
1.31989
1.31989
1.31989
1.31989
1.31989
1.31989
1.31989
1.31989
1.31989
1.31989
1.31989
1.31989
1.31989
1.31989
1.31989
1.31989
1.31989
1.31988
1.31988
1.31988
1.31988
1.31988
1.31988
1.31988
1.31988
1.31988
1.31988
1.31988
1.31988
1.31988
1.31988
1.31989
1.31989
1.3199
1.3199
1.31991
1.31991
1.31992
1.31993
1.31993
1.31994
1.31995
1.31996
1.31996
1.31997
1.31998
1.31999
1.32
1.32
1.32001
1.32001
1.32001
1.32001
1.32001
1.32001
1.32001
1.32
1.32
1.31999
1.4246
1.42461
1.42461
1.42459
1.42458
1.42457
1.42456
1.42455
1.42454
1.42454
1.42453
1.42453
1.42452
1.42452
1.42452
1.42452
1.42451
1.42451
1.42451
1.42451
1.42451
1.42451
1.42451
1.42451
1.42451
1.4245
1.4245
1.4245
1.4245
1.42449
1.42449
1.42449
1.42448
1.42448
1.42447
1.42447
1.42447
1.42446
1.42446
1.42446
1.42445
1.42445
1.42445
1.42445
1.42444
1.42444
1.42444
1.42444
1.42443
1.42443
1.42443
1.42443
1.42443
1.42443
1.42443
1.42442
1.42442
1.42442
1.42442
1.42442
1.42442
1.42442
1.42442
1.42442
1.42442
1.42442
1.42442
1.42442
1.42442
1.42442
1.42442
1.42442
1.42442
1.42442
1.42442
1.42442
1.42442
1.42442
1.42442
1.42442
1.42442
1.42441
1.42441
1.42441
1.42441
1.42441
1.42441
1.42441
1.42441
1.42441
1.42442
1.42442
1.42442
1.42443
1.42443
1.42444
1.42444
1.42445
1.42445
1.42446
1.42447
1.42448
1.42448
1.42449
1.4245
1.4245
1.42451
1.42452
1.42453
1.42453
1.42454
1.42454
1.42454
1.42454
1.42454
1.42454
1.42453
1.42453
1.42453
1.42451
1.54105
1.54106
1.54105
1.54104
1.54102
1.54101
1.541
1.54099
1.54098
1.54097
1.54097
1.54096
1.54096
1.54095
1.54095
1.54095
1.54095
1.54094
1.54094
1.54094
1.54094
1.54094
1.54094
1.54094
1.54094
1.54093
1.54093
1.54093
1.54093
1.54092
1.54092
1.54092
1.54091
1.54091
1.5409
1.5409
1.5409
1.54089
1.54089
1.54089
1.54088
1.54088
1.54088
1.54087
1.54087
1.54087
1.54087
1.54086
1.54086
1.54086
1.54086
1.54086
1.54086
1.54085
1.54085
1.54085
1.54085
1.54085
1.54085
1.54085
1.54085
1.54085
1.54085
1.54085
1.54085
1.54085
1.54085
1.54085
1.54085
1.54085
1.54085
1.54085
1.54085
1.54085
1.54085
1.54085
1.54085
1.54085
1.54085
1.54085
1.54085
1.54085
1.54084
1.54084
1.54084
1.54084
1.54084
1.54084
1.54084
1.54085
1.54085
1.54085
1.54086
1.54086
1.54087
1.54087
1.54088
1.54088
1.54089
1.54089
1.5409
1.54091
1.54091
1.54092
1.54093
1.54093
1.54094
1.54095
1.54095
1.54096
1.54096
1.54096
1.54096
1.54096
1.54096
1.54096
1.54095
1.54095
1.54094
1.54092
1.67164
1.67166
1.67165
1.67163
1.67162
1.6716
1.67159
1.67158
1.67157
1.67156
1.67156
1.67155
1.67154
1.67154
1.67154
1.67153
1.67153
1.67153
1.67153
1.67152
1.67152
1.67152
1.67152
1.67152
1.67152
1.67152
1.67152
1.67151
1.67151
1.67151
1.67151
1.6715
1.6715
1.67149
1.67149
1.67148
1.67148
1.67148
1.67147
1.67147
1.67147
1.67146
1.67146
1.67146
1.67145
1.67145
1.67145
1.67145
1.67145
1.67144
1.67144
1.67144
1.67144
1.67144
1.67144
1.67144
1.67144
1.67144
1.67144
1.67144
1.67144
1.67144
1.67144
1.67144
1.67144
1.67144
1.67144
1.67144
1.67144
1.67144
1.67144
1.67144
1.67144
1.67144
1.67144
1.67144
1.67144
1.67144
1.67144
1.67144
1.67143
1.67143
1.67143
1.67143
1.67143
1.67143
1.67143
1.67143
1.67143
1.67144
1.67144
1.67144
1.67145
1.67145
1.67145
1.67146
1.67147
1.67147
1.67148
1.67148
1.67149
1.67149
1.6715
1.67151
1.67151
1.67152
1.67152
1.67153
1.67153
1.67153
1.67154
1.67154
1.67154
1.67154
1.67153
1.67153
1.67152
1.67152
1.67152
1.67149
1.81924
1.81926
1.81925
1.81923
1.81921
1.81919
1.81918
1.81917
1.81916
1.81915
1.81914
1.81913
1.81913
1.81912
1.81912
1.81911
1.81911
1.81911
1.8191
1.8191
1.8191
1.8191
1.8191
1.8191
1.8191
1.8191
1.81909
1.81909
1.81909
1.81909
1.81908
1.81908
1.81908
1.81907
1.81907
1.81906
1.81906
1.81906
1.81905
1.81905
1.81905
1.81904
1.81904
1.81904
1.81903
1.81903
1.81903
1.81903
1.81903
1.81902
1.81902
1.81902
1.81902
1.81902
1.81902
1.81902
1.81902
1.81902
1.81902
1.81902
1.81902
1.81902
1.81902
1.81902
1.81902
1.81902
1.81902
1.81902
1.81902
1.81902
1.81902
1.81902
1.81902
1.81902
1.81902
1.81902
1.81902
1.81902
1.81902
1.81902
1.81902
1.81902
1.81902
1.81902
1.81902
1.81902
1.81902
1.81902
1.81902
1.81902
1.81902
1.81903
1.81903
1.81904
1.81904
1.81905
1.81905
1.81906
1.81906
1.81907
1.81907
1.81908
1.81908
1.81909
1.81909
1.8191
1.8191
1.8191
1.81911
1.81911
1.81911
1.81911
1.81911
1.81911
1.8191
1.8191
1.81909
1.81908
1.81909
1.81906
1.98744
1.98747
1.98746
1.98743
1.98741
1.98739
1.98737
1.98736
1.98735
1.98734
1.98733
1.98732
1.98731
1.98731
1.9873
1.9873
1.98729
1.98729
1.98729
1.98729
1.98729
1.98729
1.98728
1.98728
1.98728
1.98728
1.98728
1.98728
1.98728
1.98728
1.98727
1.98727
1.98727
1.98726
1.98726
1.98725
1.98725
1.98725
1.98724
1.98724
1.98723
1.98723
1.98723
1.98723
1.98722
1.98722
1.98722
1.98722
1.98722
1.98721
1.98721
1.98721
1.98721
1.98721
1.98721
1.98721
1.98721
1.98721
1.98721
1.98721
1.98721
1.98721
1.98721
1.98721
1.98721
1.98721
1.98721
1.98722
1.98722
1.98722
1.98722
1.98722
1.98722
1.98722
1.98722
1.98722
1.98722
1.98722
1.98722
1.98721
1.98721
1.98721
1.98721
1.98721
1.98721
1.98721
1.98721
1.98721
1.98722
1.98722
1.98722
1.98722
1.98723
1.98723
1.98724
1.98724
1.98725
1.98725
1.98726
1.98726
1.98727
1.98727
1.98728
1.98728
1.98728
1.98729
1.98729
1.98729
1.98729
1.98729
1.98729
1.98729
1.98729
1.98729
1.98728
1.98728
1.98727
1.98726
1.98726
1.98723
2.1809
2.18094
2.18092
2.1809
2.18087
2.18085
2.18083
2.18081
2.1808
2.18079
2.18078
2.18077
2.18076
2.18075
2.18075
2.18074
2.18074
2.18074
2.18073
2.18073
2.18073
2.18073
2.18073
2.18073
2.18073
2.18073
2.18073
2.18073
2.18072
2.18072
2.18072
2.18072
2.18071
2.18071
2.18071
2.1807
2.1807
2.18069
2.18069
2.18069
2.18068
2.18068
2.18068
2.18068
2.18067
2.18067
2.18067
2.18067
2.18067
2.18066
2.18066
2.18066
2.18066
2.18066
2.18066
2.18066
2.18066
2.18066
2.18066
2.18066
2.18066
2.18067
2.18067
2.18067
2.18067
2.18067
2.18067
2.18067
2.18067
2.18067
2.18067
2.18067
2.18067
2.18067
2.18067
2.18067
2.18067
2.18067
2.18067
2.18067
2.18067
2.18067
2.18067
2.18067
2.18067
2.18067
2.18067
2.18067
2.18067
2.18068
2.18068
2.18068
2.18069
2.18069
2.1807
2.1807
2.1807
2.18071
2.18071
2.18072
2.18072
2.18073
2.18073
2.18073
2.18073
2.18074
2.18074
2.18074
2.18074
2.18074
2.18074
2.18073
2.18073
2.18073
2.18072
2.18071
2.1807
2.1807
2.1807
2.18066
2.4057
2.40574
2.40572
2.40569
2.40566
2.40563
2.40561
2.40559
2.40557
2.40556
2.40555
2.40554
2.40553
2.40552
2.40551
2.40551
2.40551
2.40551
2.4055
2.4055
2.4055
2.4055
2.4055
2.4055
2.4055
2.4055
2.4055
2.4055
2.4055
2.4055
2.40549
2.40549
2.40549
2.40549
2.40548
2.40548
2.40547
2.40547
2.40547
2.40546
2.40546
2.40546
2.40545
2.40545
2.40545
2.40545
2.40545
2.40545
2.40544
2.40544
2.40544
2.40544
2.40544
2.40544
2.40544
2.40544
2.40544
2.40544
2.40545
2.40545
2.40545
2.40545
2.40545
2.40545
2.40545
2.40545
2.40545
2.40545
2.40545
2.40546
2.40546
2.40546
2.40546
2.40546
2.40546
2.40546
2.40546
2.40546
2.40545
2.40545
2.40545
2.40545
2.40545
2.40545
2.40545
2.40545
2.40545
2.40546
2.40546
2.40546
2.40547
2.40547
2.40547
2.40548
2.40548
2.40549
2.40549
2.40549
2.4055
2.4055
2.4055
2.40551
2.40551
2.40551
2.40551
2.40551
2.40551
2.40551
2.40551
2.40551
2.40551
2.4055
2.4055
2.40549
2.40548
2.40548
2.40547
2.40546
2.40546
2.40542
2.66985
2.6699
2.66987
2.66984
2.6698
2.66977
2.66974
2.66972
2.6697
2.66968
2.66967
2.66966
2.66965
2.66964
2.66964
2.66963
2.66963
2.66963
2.66963
2.66963
2.66963
2.66963
2.66963
2.66963
2.66963
2.66963
2.66963
2.66963
2.66963
2.66963
2.66962
2.66962
2.66962
2.66962
2.66961
2.66961
2.66961
2.6696
2.6696
2.6696
2.66959
2.66959
2.66959
2.66959
2.66958
2.66958
2.66958
2.66958
2.66958
2.66958
2.66958
2.66958
2.66958
2.66958
2.66958
2.66958
2.66958
2.66958
2.66958
2.66958
2.66959
2.66959
2.66959
2.66959
2.66959
2.66959
2.66959
2.66959
2.66959
2.66959
2.6696
2.6696
2.6696
2.6696
2.6696
2.6696
2.66959
2.66959
2.66959
2.66959
2.66959
2.66959
2.66959
2.66959
2.66959
2.66959
2.6696
2.6696
2.6696
2.6696
2.66961
2.66961
2.66961
2.66962
2.66962
2.66963
2.66963
2.66963
2.66964
2.66964
2.66964
2.66964
2.66965
2.66965
2.66965
2.66965
2.66964
2.66964
2.66964
2.66963
2.66963
2.66963
2.66962
2.66961
2.6696
2.66959
2.66958
2.66957
2.66957
2.66954
2.98416
2.98421
2.98418
2.98414
2.98409
2.98405
2.98402
2.98399
2.98397
2.98395
2.98393
2.98392
2.98391
2.98391
2.9839
2.9839
2.9839
2.9839
2.9839
2.9839
2.9839
2.9839
2.98391
2.98391
2.98391
2.98391
2.98391
2.98391
2.9839
2.9839
2.9839
2.9839
2.9839
2.98389
2.98389
2.98389
2.98389
2.98388
2.98388
2.98388
2.98387
2.98387
2.98387
2.98387
2.98387
2.98386
2.98386
2.98386
2.98386
2.98386
2.98386
2.98386
2.98386
2.98386
2.98387
2.98387
2.98387
2.98387
2.98387
2.98387
2.98387
2.98387
2.98388
2.98388
2.98388
2.98388
2.98388
2.98388
2.98388
2.98388
2.98388
2.98388
2.98388
2.98388
2.98388
2.98388
2.98388
2.98388
2.98388
2.98388
2.98388
2.98388
2.98388
2.98388
2.98388
2.98388
2.98389
2.98389
2.98389
2.98389
2.9839
2.9839
2.9839
2.98391
2.98391
2.98391
2.98392
2.98392
2.98392
2.98392
2.98392
2.98393
2.98393
2.98393
2.98393
2.98393
2.98392
2.98392
2.98391
2.98391
2.9839
2.9839
2.98389
2.98388
2.98387
2.98386
2.98385
2.98384
2.98384
2.9838
3.36338
3.36344
3.36341
3.36335
3.3633
3.36325
3.36321
3.36317
3.36315
3.36313
3.36311
3.3631
3.36309
3.36309
3.36309
3.36309
3.36309
3.36309
3.36309
3.36309
3.3631
3.3631
3.3631
3.3631
3.3631
3.3631
3.3631
3.3631
3.3631
3.3631
3.3631
3.3631
3.36309
3.36309
3.36309
3.36309
3.36308
3.36308
3.36308
3.36308
3.36307
3.36307
3.36307
3.36307
3.36307
3.36307
3.36307
3.36307
3.36307
3.36307
3.36307
3.36307
3.36307
3.36307
3.36307
3.36307
3.36307
3.36307
3.36308
3.36308
3.36308
3.36308
3.36308
3.36308
3.36308
3.36308
3.36308
3.36309
3.36309
3.36309
3.36309
3.36309
3.36309
3.36309
3.36309
3.36309
3.36309
3.36309
3.36309
3.36309
3.36309
3.36309
3.36309
3.36309
3.36309
3.36309
3.36309
3.36309
3.3631
3.3631
3.3631
3.36311
3.36311
3.36311
3.36312
3.36312
3.36312
3.36312
3.36313
3.36313
3.36313
3.36313
3.36313
3.36313
3.36313
3.36312
3.36312
3.36311
3.36311
3.3631
3.36309
3.36308
3.36307
3.36306
3.36305
3.36304
3.36303
3.36302
3.36302
3.36299
3.82816
3.82821
3.82817
3.8281
3.82803
3.82796
3.82791
3.82788
3.82785
3.82783
3.82782
3.82781
3.82781
3.82781
3.82781
3.82781
3.82781
3.82781
3.82782
3.82782
3.82782
3.82783
3.82783
3.82783
3.82783
3.82783
3.82783
3.82783
3.82783
3.82783
3.82783
3.82783
3.82782
3.82782
3.82782
3.82782
3.82782
3.82781
3.82781
3.82781
3.82781
3.82781
3.8278
3.8278
3.8278
3.8278
3.8278
3.8278
3.8278
3.8278
3.8278
3.82781
3.82781
3.82781
3.82781
3.82781
3.82781
3.82781
3.82781
3.82782
3.82782
3.82782
3.82782
3.82782
3.82782
3.82782
3.82782
3.82782
3.82782
3.82782
3.82782
3.82782
3.82782
3.82782
3.82782
3.82782
3.82782
3.82782
3.82782
3.82782
3.82782
3.82782
3.82783
3.82783
3.82783
3.82783
3.82783
3.82784
3.82784
3.82784
3.82785
3.82785
3.82785
3.82785
3.82786
3.82786
3.82786
3.82786
3.82786
3.82786
3.82786
3.82786
3.82786
3.82786
3.82786
3.82785
3.82785
3.82784
3.82783
3.82782
3.82781
3.8278
3.82779
3.82778
3.82777
3.82775
3.82774
3.82773
3.82773
3.82771
4.40794
4.408
4.40793
4.40783
4.40774
4.40767
4.40761
4.40757
4.40755
4.40753
4.40753
4.40752
4.40752
4.40752
4.40753
4.40753
4.40754
4.40754
4.40755
4.40755
4.40756
4.40756
4.40756
4.40757
4.40757
4.40757
4.40757
4.40757
4.40756
4.40756
4.40756
4.40756
4.40756
4.40756
4.40756
4.40755
4.40755
4.40755
4.40755
4.40755
4.40755
4.40754
4.40754
4.40754
4.40754
4.40754
4.40754
4.40754
4.40754
4.40755
4.40755
4.40755
4.40755
4.40755
4.40755
4.40755
4.40755
4.40755
4.40756
4.40756
4.40756
4.40756
4.40756
4.40756
4.40756
4.40756
4.40756
4.40756
4.40756
4.40756
4.40756
4.40756
4.40756
4.40756
4.40756
4.40756
4.40756
4.40756
4.40756
4.40756
4.40756
4.40757
4.40757
4.40757
4.40757
4.40757
4.40758
4.40758
4.40758
4.40759
4.40759
4.40759
4.4076
4.4076
4.4076
4.4076
4.4076
4.4076
4.4076
4.4076
4.4076
4.4076
4.4076
4.4076
4.40759
4.40758
4.40757
4.40757
4.40756
4.40755
4.40753
4.40752
4.40751
4.4075
4.40748
4.40747
4.40745
4.40745
4.40745
4.40743
5.14618
5.14623
5.14612
5.14599
5.14588
5.1458
5.14574
5.14571
5.14569
5.14568
5.14568
5.14568
5.14568
5.14569
5.1457
5.1457
5.14571
5.14572
5.14572
5.14573
5.14573
5.14574
5.14574
5.14575
5.14575
5.14575
5.14575
5.14574
5.14574
5.14574
5.14574
5.14574
5.14574
5.14574
5.14574
5.14574
5.14574
5.14573
5.14573
5.14573
5.14573
5.14573
5.14573
5.14573
5.14573
5.14573
5.14573
5.14573
5.14573
5.14573
5.14573
5.14573
5.14573
5.14574
5.14574
5.14574
5.14574
5.14574
5.14574
5.14574
5.14574
5.14574
5.14574
5.14574
5.14574
5.14574
5.14574
5.14574
5.14574
5.14574
5.14574
5.14574
5.14574
5.14574
5.14574
5.14574
5.14574
5.14574
5.14574
5.14575
5.14575
5.14575
5.14575
5.14575
5.14576
5.14576
5.14576
5.14577
5.14577
5.14577
5.14578
5.14578
5.14578
5.14579
5.14579
5.14579
5.14579
5.14579
5.14578
5.14578
5.14578
5.14578
5.14578
5.14577
5.14577
5.14576
5.14575
5.14574
5.14572
5.14571
5.1457
5.14569
5.14567
5.14566
5.14564
5.14563
5.14561
5.14561
5.14561
5.14561
6.10992
6.10994
6.10978
6.10961
6.10948
6.1094
6.10935
6.10933
6.10932
6.10932
6.10933
6.10933
6.10935
6.10936
6.10937
6.10938
6.10938
6.10939
6.1094
6.1094
6.10941
6.10941
6.10942
6.10942
6.10942
6.10942
6.10942
6.10942
6.10942
6.10942
6.10942
6.10942
6.10942
6.10942
6.10942
6.10942
6.10941
6.10941
6.10941
6.10941
6.10941
6.10941
6.10941
6.10941
6.10941
6.10941
6.10941
6.10941
6.10941
6.10941
6.10941
6.10941
6.10941
6.10941
6.10941
6.10941
6.10941
6.10942
6.10942
6.10942
6.10942
6.10942
6.10942
6.10942
6.10942
6.10942
6.10942
6.10942
6.10942
6.10942
6.10942
6.10942
6.10942
6.10942
6.10942
6.10942
6.10942
6.10942
6.10942
6.10942
6.10942
6.10943
6.10943
6.10943
6.10944
6.10944
6.10944
6.10945
6.10945
6.10946
6.10946
6.10946
6.10947
6.10947
6.10947
6.10947
6.10947
6.10947
6.10946
6.10946
6.10946
6.10946
6.10945
6.10945
6.10944
6.10943
6.10941
6.1094
6.10939
6.10937
6.10936
6.10934
6.10933
6.10931
6.1093
6.10928
6.10927
6.10927
6.10927
6.10929
7.41097
7.41093
7.4107
7.41049
7.41036
7.41029
7.41026
7.41025
7.41026
7.41027
7.41028
7.4103
7.41032
7.41033
7.41034
7.41035
7.41036
7.41037
7.41038
7.41038
7.41039
7.41039
7.4104
7.4104
7.4104
7.4104
7.4104
7.4104
7.41039
7.41039
7.4104
7.4104
7.4104
7.4104
7.4104
7.4104
7.4104
7.4104
7.4104
7.4104
7.41039
7.41039
7.41039
7.41039
7.41039
7.41039
7.41039
7.41039
7.41039
7.41039
7.41039
7.41039
7.41039
7.41039
7.41039
7.41039
7.41039
7.41039
7.41039
7.41039
7.41039
7.41039
7.41039
7.41038
7.41038
7.41038
7.41038
7.41038
7.41038
7.41038
7.41038
7.41038
7.41038
7.41038
7.41038
7.41039
7.41039
7.41039
7.41039
7.41039
7.4104
7.4104
7.41041
7.41041
7.41041
7.41042
7.41042
7.41043
7.41043
7.41044
7.41044
7.41045
7.41045
7.41045
7.41045
7.41045
7.41045
7.41045
7.41044
7.41044
7.41043
7.41043
7.41043
7.41042
7.41041
7.41039
7.41038
7.41036
7.41035
7.41033
7.41031
7.4103
7.41028
7.41027
7.41025
7.41024
7.41022
7.41023
7.41022
7.41028
9.26132
9.26119
9.26088
9.26067
9.26056
9.26052
9.26052
9.26053
9.26055
9.26057
9.2606
9.26062
9.26063
9.26065
9.26066
9.26067
9.26068
9.26069
9.2607
9.2607
9.26071
9.26071
9.26071
9.26072
9.26072
9.26072
9.26071
9.26071
9.26071
9.26071
9.26071
9.26072
9.26072
9.26072
9.26072
9.26072
9.26072
9.26072
9.26072
9.26072
9.26071
9.26071
9.26071
9.26071
9.26071
9.26071
9.26071
9.2607
9.2607
9.2607
9.2607
9.2607
9.2607
9.26069
9.26069
9.26069
9.26069
9.26069
9.26069
9.26069
9.26069
9.26069
9.26068
9.26068
9.26068
9.26068
9.26068
9.26068
9.26068
9.26068
9.26068
9.26068
9.26068
9.26069
9.26069
9.26069
9.26069
9.26069
9.2607
9.2607
9.26071
9.26071
9.26072
9.26072
9.26073
9.26074
9.26074
9.26075
9.26075
9.26076
9.26076
9.26077
9.26077
9.26077
9.26077
9.26077
9.26077
9.26076
9.26076
9.26075
9.26075
9.26075
9.26074
9.26073
9.26071
9.26069
9.26068
9.26066
9.26064
9.26062
9.26061
9.26059
9.26057
9.26056
9.26054
9.26053
9.26052
9.26053
9.26052
9.26062
12.1381
12.1379
12.1375
12.1374
12.1373
12.1373
12.1373
12.1374
12.1374
12.1374
12.1375
12.1375
12.1375
12.1375
12.1375
12.1375
12.1375
12.1375
12.1375
12.1375
12.1376
12.1376
12.1376
12.1376
12.1376
12.1376
12.1376
12.1376
12.1376
12.1376
12.1376
12.1376
12.1376
12.1376
12.1376
12.1376
12.1376
12.1376
12.1376
12.1376
12.1376
12.1376
12.1376
12.1376
12.1376
12.1376
12.1375
12.1375
12.1375
12.1375
12.1375
12.1375
12.1375
12.1375
12.1375
12.1375
12.1375
12.1375
12.1375
12.1375
12.1375
12.1375
12.1375
12.1375
12.1375
12.1375
12.1375
12.1375
12.1375
12.1375
12.1375
12.1375
12.1375
12.1375
12.1375
12.1375
12.1375
12.1375
12.1375
12.1375
12.1375
12.1375
12.1376
12.1376
12.1376
12.1376
12.1376
12.1376
12.1376
12.1376
12.1376
12.1376
12.1376
12.1376
12.1376
12.1376
12.1376
12.1376
12.1376
12.1376
12.1376
12.1376
12.1376
12.1376
12.1375
12.1375
12.1375
12.1375
12.1375
12.1375
12.1374
12.1374
12.1374
12.1374
12.1374
12.1374
12.1374
12.1374
12.1374
12.1375
17.2912
17.2908
17.2905
17.2904
17.2904
17.2905
17.2905
17.2905
17.2906
17.2906
17.2906
17.2907
17.2907
17.2907
17.2907
17.2907
17.2907
17.2907
17.2907
17.2907
17.2907
17.2907
17.2907
17.2907
17.2907
17.2907
17.2907
17.2907
17.2907
17.2907
17.2907
17.2907
17.2907
17.2907
17.2907
17.2907
17.2907
17.2907
17.2907
17.2907
17.2907
17.2907
17.2907
17.2907
17.2907
17.2907
17.2907
17.2907
17.2907
17.2907
17.2907
17.2907
17.2907
17.2907
17.2907
17.2907
17.2907
17.2907
17.2907
17.2907
17.2907
17.2907
17.2907
17.2907
17.2907
17.2907
17.2907
17.2907
17.2907
17.2907
17.2907
17.2907
17.2907
17.2907
17.2907
17.2907
17.2907
17.2907
17.2907
17.2907
17.2907
17.2907
17.2907
17.2907
17.2907
17.2907
17.2907
17.2907
17.2908
17.2908
17.2908
17.2908
17.2908
17.2908
17.2908
17.2908
17.2908
17.2908
17.2908
17.2908
17.2907
17.2907
17.2907
17.2907
17.2907
17.2907
17.2907
17.2906
17.2906
17.2906
17.2906
17.2906
17.2906
17.2906
17.2905
17.2905
17.2905
17.2906
17.2905
17.2907
28.3841
28.3837
28.3835
28.3835
28.3836
28.3836
28.3837
28.3837
28.3838
28.3838
28.3838
28.3838
28.3838
28.3838
28.3838
28.3838
28.3838
28.3838
28.3838
28.3838
28.3838
28.3838
28.3838
28.3838
28.3838
28.3838
28.3838
28.3838
28.3838
28.3838
28.3838
28.3838
28.3839
28.3839
28.3839
28.3839
28.3839