/*--------------------------------*- C++ -*----------------------------------*\
  =========                 |
  \\      /  F ield         | OpenFOAM: The Open Source CFD Toolbox
   \\    /   O peration     | Website:  https://openfoam.org
    \\  /    A nd           | Version:  7
     \\/     M anipulation  |
\*---------------------------------------------------------------------------*/
FoamFile
{
    version     2.0;
    format      ascii;
    class       volScalarField;
    location    "5000";
    object      k;
}
// * * * * * * * * * * * * * * * * * * * * * * * * * * * * * * * * * * * * * //

dimensions      [0 2 -2 0 0 0 0];

internalField   nonuniform List<scalar> 
24000
(
6.90777e-09
6.90812e-09
6.90825e-09
6.9082e-09
6.90803e-09
6.90782e-09
6.90758e-09
6.90736e-09
6.90717e-09
6.90702e-09
6.90689e-09
6.90679e-09
6.90671e-09
6.90666e-09
6.90662e-09
6.90659e-09
6.90658e-09
6.90658e-09
6.90659e-09
6.90661e-09
6.90664e-09
6.90668e-09
6.90672e-09
6.90676e-09
6.90681e-09
6.90686e-09
6.90691e-09
6.90696e-09
6.90702e-09
6.90707e-09
6.90713e-09
6.90718e-09
6.90723e-09
6.90728e-09
6.90734e-09
6.90739e-09
6.90744e-09
6.90748e-09
6.90753e-09
6.90758e-09
6.90762e-09
6.90766e-09
6.9077e-09
6.90773e-09
6.90776e-09
6.90779e-09
6.90781e-09
6.90783e-09
6.90785e-09
6.90787e-09
6.90789e-09
6.90791e-09
6.90793e-09
6.90795e-09
6.90796e-09
6.90798e-09
6.90798e-09
6.90798e-09
6.90798e-09
6.90797e-09
6.90795e-09
6.90792e-09
6.90789e-09
6.90785e-09
6.90781e-09
6.90777e-09
6.90773e-09
6.90768e-09
6.90764e-09
6.90759e-09
6.90755e-09
6.90751e-09
6.90747e-09
6.90743e-09
6.9074e-09
6.90737e-09
6.90733e-09
6.90731e-09
6.90728e-09
6.90726e-09
6.90723e-09
6.90721e-09
6.9072e-09
6.90718e-09
6.90716e-09
6.90715e-09
6.90714e-09
6.90713e-09
6.90711e-09
6.9071e-09
6.9071e-09
6.90709e-09
6.90708e-09
6.90707e-09
6.90706e-09
6.90705e-09
6.90705e-09
6.90705e-09
6.90705e-09
6.90706e-09
6.90707e-09
6.90709e-09
6.9071e-09
6.90712e-09
6.90714e-09
6.90716e-09
6.90719e-09
6.90721e-09
6.90724e-09
6.90726e-09
6.90729e-09
6.90732e-09
6.90735e-09
6.90738e-09
6.9074e-09
6.90742e-09
6.90744e-09
6.90745e-09
6.90749e-09
6.90737e-09
2.08176e-07
2.08187e-07
2.0819e-07
2.08189e-07
2.08184e-07
2.08178e-07
2.08171e-07
2.08164e-07
2.08158e-07
2.08154e-07
2.0815e-07
2.08147e-07
2.08144e-07
2.08143e-07
2.08141e-07
2.08141e-07
2.0814e-07
2.0814e-07
2.08141e-07
2.08141e-07
2.08142e-07
2.08143e-07
2.08145e-07
2.08146e-07
2.08147e-07
2.08149e-07
2.0815e-07
2.08152e-07
2.08154e-07
2.08155e-07
2.08157e-07
2.08158e-07
2.0816e-07
2.08162e-07
2.08163e-07
2.08165e-07
2.08166e-07
2.08168e-07
2.08169e-07
2.0817e-07
2.08172e-07
2.08173e-07
2.08174e-07
2.08175e-07
2.08176e-07
2.08177e-07
2.08177e-07
2.08178e-07
2.08179e-07
2.08179e-07
2.0818e-07
2.0818e-07
2.08181e-07
2.08182e-07
2.08182e-07
2.08182e-07
2.08183e-07
2.08183e-07
2.08183e-07
2.08182e-07
2.08182e-07
2.08181e-07
2.0818e-07
2.08179e-07
2.08178e-07
2.08176e-07
2.08175e-07
2.08174e-07
2.08172e-07
2.08171e-07
2.0817e-07
2.08168e-07
2.08167e-07
2.08166e-07
2.08165e-07
2.08164e-07
2.08163e-07
2.08162e-07
2.08161e-07
2.08161e-07
2.0816e-07
2.08159e-07
2.08159e-07
2.08158e-07
2.08158e-07
2.08158e-07
2.08157e-07
2.08157e-07
2.08156e-07
2.08156e-07
2.08156e-07
2.08156e-07
2.08155e-07
2.08155e-07
2.08155e-07
2.08155e-07
2.08155e-07
2.08155e-07
2.08155e-07
2.08155e-07
2.08155e-07
2.08156e-07
2.08156e-07
2.08157e-07
2.08157e-07
2.08158e-07
2.08159e-07
2.08159e-07
2.0816e-07
2.08161e-07
2.08162e-07
2.08163e-07
2.08164e-07
2.08164e-07
2.08165e-07
2.08166e-07
2.08166e-07
2.08167e-07
2.08168e-07
2.08164e-07
1.51122e-06
1.51129e-06
1.51132e-06
1.51131e-06
1.51127e-06
1.51123e-06
1.51118e-06
1.51113e-06
1.51109e-06
1.51105e-06
1.51103e-06
1.511e-06
1.51099e-06
1.51097e-06
1.51097e-06
1.51096e-06
1.51096e-06
1.51096e-06
1.51096e-06
1.51096e-06
1.51097e-06
1.51098e-06
1.51099e-06
1.511e-06
1.51101e-06
1.51102e-06
1.51103e-06
1.51104e-06
1.51105e-06
1.51106e-06
1.51108e-06
1.51109e-06
1.5111e-06
1.51111e-06
1.51112e-06
1.51113e-06
1.51114e-06
1.51115e-06
1.51116e-06
1.51117e-06
1.51118e-06
1.51119e-06
1.5112e-06
1.51121e-06
1.51122e-06
1.51122e-06
1.51123e-06
1.51123e-06
1.51123e-06
1.51124e-06
1.51124e-06
1.51125e-06
1.51125e-06
1.51126e-06
1.51126e-06
1.51126e-06
1.51126e-06
1.51126e-06
1.51126e-06
1.51126e-06
1.51126e-06
1.51125e-06
1.51124e-06
1.51124e-06
1.51123e-06
1.51122e-06
1.51121e-06
1.5112e-06
1.51119e-06
1.51118e-06
1.51117e-06
1.51116e-06
1.51115e-06
1.51114e-06
1.51114e-06
1.51113e-06
1.51112e-06
1.51112e-06
1.51111e-06
1.5111e-06
1.5111e-06
1.5111e-06
1.51109e-06
1.51109e-06
1.51108e-06
1.51108e-06
1.51108e-06
1.51108e-06
1.51107e-06
1.51107e-06
1.51107e-06
1.51107e-06
1.51107e-06
1.51106e-06
1.51106e-06
1.51106e-06
1.51106e-06
1.51106e-06
1.51106e-06
1.51106e-06
1.51106e-06
1.51107e-06
1.51107e-06
1.51108e-06
1.51108e-06
1.51108e-06
1.51109e-06
1.51109e-06
1.5111e-06
1.51111e-06
1.51111e-06
1.51112e-06
1.51113e-06
1.51113e-06
1.51114e-06
1.51114e-06
1.51115e-06
1.51115e-06
1.51116e-06
1.51113e-06
5.58816e-06
5.58842e-06
5.58851e-06
5.58847e-06
5.58834e-06
5.58818e-06
5.58799e-06
5.58782e-06
5.58766e-06
5.58754e-06
5.58744e-06
5.58736e-06
5.58729e-06
5.58725e-06
5.58722e-06
5.5872e-06
5.58719e-06
5.58719e-06
5.5872e-06
5.58722e-06
5.58724e-06
5.58727e-06
5.5873e-06
5.58733e-06
5.58737e-06
5.58741e-06
5.58745e-06
5.5875e-06
5.58754e-06
5.58758e-06
5.58763e-06
5.58767e-06
5.58771e-06
5.58775e-06
5.58779e-06
5.58784e-06
5.58787e-06
5.58791e-06
5.58795e-06
5.58799e-06
5.58802e-06
5.58805e-06
5.58808e-06
5.58811e-06
5.58814e-06
5.58816e-06
5.58817e-06
5.58819e-06
5.58821e-06
5.58822e-06
5.58824e-06
5.58826e-06
5.58827e-06
5.58828e-06
5.5883e-06
5.58831e-06
5.58831e-06
5.58831e-06
5.58831e-06
5.5883e-06
5.58828e-06
5.58826e-06
5.58824e-06
5.58821e-06
5.58817e-06
5.58814e-06
5.5881e-06
5.58807e-06
5.58803e-06
5.588e-06
5.58796e-06
5.58793e-06
5.5879e-06
5.58787e-06
5.58784e-06
5.58781e-06
5.58779e-06
5.58777e-06
5.58775e-06
5.58773e-06
5.58771e-06
5.58769e-06
5.58768e-06
5.58766e-06
5.58765e-06
5.58764e-06
5.58763e-06
5.58762e-06
5.58761e-06
5.58761e-06
5.5876e-06
5.58759e-06
5.58758e-06
5.58758e-06
5.58757e-06
5.58757e-06
5.58756e-06
5.58756e-06
5.58757e-06
5.58757e-06
5.58758e-06
5.58759e-06
5.58761e-06
5.58762e-06
5.58764e-06
5.58765e-06
5.58767e-06
5.58769e-06
5.58771e-06
5.58774e-06
5.58776e-06
5.58778e-06
5.5878e-06
5.58783e-06
5.58785e-06
5.58786e-06
5.58788e-06
5.58789e-06
5.58791e-06
5.58782e-06
1.42777e-05
1.42783e-05
1.42785e-05
1.42784e-05
1.42781e-05
1.42777e-05
1.42772e-05
1.42768e-05
1.42764e-05
1.42761e-05
1.42758e-05
1.42756e-05
1.42755e-05
1.42754e-05
1.42753e-05
1.42752e-05
1.42752e-05
1.42752e-05
1.42753e-05
1.42753e-05
1.42754e-05
1.42754e-05
1.42755e-05
1.42756e-05
1.42757e-05
1.42758e-05
1.42759e-05
1.4276e-05
1.42761e-05
1.42762e-05
1.42763e-05
1.42764e-05
1.42765e-05
1.42766e-05
1.42767e-05
1.42768e-05
1.42769e-05
1.4277e-05
1.42771e-05
1.42772e-05
1.42773e-05
1.42774e-05
1.42775e-05
1.42775e-05
1.42776e-05
1.42776e-05
1.42777e-05
1.42777e-05
1.42778e-05
1.42778e-05
1.42778e-05
1.42779e-05
1.42779e-05
1.4278e-05
1.4278e-05
1.4278e-05
1.4278e-05
1.4278e-05
1.4278e-05
1.4278e-05
1.4278e-05
1.42779e-05
1.42778e-05
1.42778e-05
1.42777e-05
1.42776e-05
1.42775e-05
1.42774e-05
1.42773e-05
1.42772e-05
1.42771e-05
1.42771e-05
1.4277e-05
1.42769e-05
1.42768e-05
1.42768e-05
1.42767e-05
1.42767e-05
1.42766e-05
1.42766e-05
1.42765e-05
1.42765e-05
1.42764e-05
1.42764e-05
1.42764e-05
1.42763e-05
1.42763e-05
1.42763e-05
1.42763e-05
1.42763e-05
1.42762e-05
1.42762e-05
1.42762e-05
1.42762e-05
1.42762e-05
1.42762e-05
1.42762e-05
1.42761e-05
1.42762e-05
1.42762e-05
1.42762e-05
1.42762e-05
1.42763e-05
1.42763e-05
1.42763e-05
1.42764e-05
1.42764e-05
1.42765e-05
1.42765e-05
1.42766e-05
1.42766e-05
1.42767e-05
1.42768e-05
1.42768e-05
1.42769e-05
1.42769e-05
1.42769e-05
1.4277e-05
1.4277e-05
1.42768e-05
2.83539e-05
2.83551e-05
2.83554e-05
2.83551e-05
2.83545e-05
2.83537e-05
2.83529e-05
2.8352e-05
2.83513e-05
2.83507e-05
2.83503e-05
2.83499e-05
2.83496e-05
2.83494e-05
2.83493e-05
2.83492e-05
2.83492e-05
2.83492e-05
2.83493e-05
2.83493e-05
2.83495e-05
2.83496e-05
2.83497e-05
2.83499e-05
2.83501e-05
2.83503e-05
2.83505e-05
2.83507e-05
2.83509e-05
2.83511e-05
2.83513e-05
2.83515e-05
2.83517e-05
2.83519e-05
2.83521e-05
2.83523e-05
2.83525e-05
2.83526e-05
2.83528e-05
2.8353e-05
2.83531e-05
2.83533e-05
2.83534e-05
2.83535e-05
2.83537e-05
2.83538e-05
2.83539e-05
2.83539e-05
2.8354e-05
2.83541e-05
2.83542e-05
2.83542e-05
2.83543e-05
2.83544e-05
2.83544e-05
2.83545e-05
2.83545e-05
2.83545e-05
2.83545e-05
2.83544e-05
2.83543e-05
2.83542e-05
2.83541e-05
2.83539e-05
2.83538e-05
2.83536e-05
2.83535e-05
2.83533e-05
2.83531e-05
2.83529e-05
2.83528e-05
2.83526e-05
2.83525e-05
2.83523e-05
2.83522e-05
2.83521e-05
2.8352e-05
2.83519e-05
2.83518e-05
2.83517e-05
2.83516e-05
2.83515e-05
2.83515e-05
2.83514e-05
2.83513e-05
2.83513e-05
2.83512e-05
2.83512e-05
2.83512e-05
2.83511e-05
2.83511e-05
2.8351e-05
2.8351e-05
2.8351e-05
2.83509e-05
2.83509e-05
2.83509e-05
2.83509e-05
2.83509e-05
2.8351e-05
2.8351e-05
2.83511e-05
2.83511e-05
2.83512e-05
2.83513e-05
2.83514e-05
2.83515e-05
2.83516e-05
2.83517e-05
2.83518e-05
2.83519e-05
2.8352e-05
2.83521e-05
2.83522e-05
2.83523e-05
2.83524e-05
2.83524e-05
2.83525e-05
2.83526e-05
2.83521e-05
4.64069e-05
4.64087e-05
4.6409e-05
4.64085e-05
4.64076e-05
4.64064e-05
4.64051e-05
4.64039e-05
4.64028e-05
4.64019e-05
4.64012e-05
4.64007e-05
4.64003e-05
4.64e-05
4.63998e-05
4.63997e-05
4.63997e-05
4.63997e-05
4.63998e-05
4.63999e-05
4.64001e-05
4.64003e-05
4.64006e-05
4.64009e-05
4.64011e-05
4.64014e-05
4.64017e-05
4.6402e-05
4.64024e-05
4.64027e-05
4.6403e-05
4.64033e-05
4.64036e-05
4.64039e-05
4.64042e-05
4.64044e-05
4.64047e-05
4.6405e-05
4.64052e-05
4.64055e-05
4.64057e-05
4.64059e-05
4.64062e-05
4.64064e-05
4.64065e-05
4.64067e-05
4.64068e-05
4.64069e-05
4.64071e-05
4.64072e-05
4.64073e-05
4.64074e-05
4.64075e-05
4.64076e-05
4.64077e-05
4.64077e-05
4.64078e-05
4.64077e-05
4.64077e-05
4.64076e-05
4.64075e-05
4.64073e-05
4.64071e-05
4.64069e-05
4.64066e-05
4.64064e-05
4.64061e-05
4.64059e-05
4.64056e-05
4.64053e-05
4.64051e-05
4.64049e-05
4.64046e-05
4.64044e-05
4.64042e-05
4.6404e-05
4.64039e-05
4.64037e-05
4.64036e-05
4.64034e-05
4.64033e-05
4.64032e-05
4.64031e-05
4.6403e-05
4.64029e-05
4.64028e-05
4.64028e-05
4.64027e-05
4.64026e-05
4.64026e-05
4.64025e-05
4.64025e-05
4.64024e-05
4.64024e-05
4.64023e-05
4.64023e-05
4.64023e-05
4.64023e-05
4.64023e-05
4.64023e-05
4.64024e-05
4.64025e-05
4.64026e-05
4.64028e-05
4.64029e-05
4.6403e-05
4.64032e-05
4.64033e-05
4.64035e-05
4.64036e-05
4.64038e-05
4.6404e-05
4.64041e-05
4.64043e-05
4.64044e-05
4.64045e-05
4.64046e-05
4.64047e-05
4.64049e-05
4.64042e-05
6.55949e-05
6.55971e-05
6.55975e-05
6.55968e-05
6.55955e-05
6.55941e-05
6.55925e-05
6.55909e-05
6.55895e-05
6.55884e-05
6.55875e-05
6.55868e-05
6.55863e-05
6.5586e-05
6.55858e-05
6.55856e-05
6.55856e-05
6.55857e-05
6.55858e-05
6.5586e-05
6.55863e-05
6.55866e-05
6.55869e-05
6.55873e-05
6.55876e-05
6.5588e-05
6.55884e-05
6.55888e-05
6.55892e-05
6.55896e-05
6.559e-05
6.55904e-05
6.55908e-05
6.55912e-05
6.55916e-05
6.55919e-05
6.55923e-05
6.55926e-05
6.5593e-05
6.55933e-05
6.55936e-05
6.55939e-05
6.55941e-05
6.55944e-05
6.55946e-05
6.55948e-05
6.5595e-05
6.55952e-05
6.55953e-05
6.55955e-05
6.55956e-05
6.55958e-05
6.55959e-05
6.5596e-05
6.55961e-05
6.55962e-05
6.55962e-05
6.55962e-05
6.55961e-05
6.55959e-05
6.55957e-05
6.55955e-05
6.55952e-05
6.55949e-05
6.55946e-05
6.55943e-05
6.55939e-05
6.55936e-05
6.55932e-05
6.55929e-05
6.55926e-05
6.55923e-05
6.5592e-05
6.55917e-05
6.55915e-05
6.55912e-05
6.5591e-05
6.55908e-05
6.55906e-05
6.55904e-05
6.55903e-05
6.55901e-05
6.559e-05
6.55899e-05
6.55898e-05
6.55897e-05
6.55896e-05
6.55895e-05
6.55894e-05
6.55893e-05
6.55893e-05
6.55892e-05
6.55891e-05
6.5589e-05
6.5589e-05
6.5589e-05
6.55889e-05
6.55889e-05
6.5589e-05
6.55891e-05
6.55892e-05
6.55893e-05
6.55894e-05
6.55896e-05
6.55898e-05
6.559e-05
6.55902e-05
6.55904e-05
6.55906e-05
6.55908e-05
6.5591e-05
6.55912e-05
6.55914e-05
6.55916e-05
6.55918e-05
6.55919e-05
6.55921e-05
6.55921e-05
6.55924e-05
6.55915e-05
8.35291e-05
8.35316e-05
8.3532e-05
8.35312e-05
8.35298e-05
8.35281e-05
8.35263e-05
8.35245e-05
8.3523e-05
8.35217e-05
8.35206e-05
8.35199e-05
8.35193e-05
8.35189e-05
8.35187e-05
8.35186e-05
8.35186e-05
8.35187e-05
8.35189e-05
8.35191e-05
8.35194e-05
8.35198e-05
8.35202e-05
8.35206e-05
8.35211e-05
8.35216e-05
8.3522e-05
8.35225e-05
8.3523e-05
8.35235e-05
8.3524e-05
8.35244e-05
8.35249e-05
8.35253e-05
8.35258e-05
8.35262e-05
8.35266e-05
8.3527e-05
8.35274e-05
8.35278e-05
8.35281e-05
8.35285e-05
8.35288e-05
8.35291e-05
8.35293e-05
8.35296e-05
8.35298e-05
8.353e-05
8.35302e-05
8.35303e-05
8.35305e-05
8.35307e-05
8.35308e-05
8.3531e-05
8.3531e-05
8.35311e-05
8.35311e-05
8.3531e-05
8.35309e-05
8.35307e-05
8.35305e-05
8.35302e-05
8.35299e-05
8.35295e-05
8.35291e-05
8.35287e-05
8.35283e-05
8.35279e-05
8.35274e-05
8.35271e-05
8.35267e-05
8.35263e-05
8.3526e-05
8.35257e-05
8.35254e-05
8.35251e-05
8.35248e-05
8.35246e-05
8.35244e-05
8.35242e-05
8.3524e-05
8.35238e-05
8.35237e-05
8.35235e-05
8.35234e-05
8.35233e-05
8.35232e-05
8.35231e-05
8.3523e-05
8.35229e-05
8.35228e-05
8.35227e-05
8.35226e-05
8.35225e-05
8.35225e-05
8.35224e-05
8.35224e-05
8.35224e-05
8.35225e-05
8.35226e-05
8.35227e-05
8.35229e-05
8.35231e-05
8.35233e-05
8.35235e-05
8.35238e-05
8.3524e-05
8.35243e-05
8.35245e-05
8.35248e-05
8.3525e-05
8.35253e-05
8.35255e-05
8.35257e-05
8.35259e-05
8.35261e-05
8.35262e-05
8.35263e-05
8.35266e-05
8.35256e-05
9.90792e-05
9.90816e-05
9.9082e-05
9.90812e-05
9.90798e-05
9.9078e-05
9.90761e-05
9.90742e-05
9.90725e-05
9.90712e-05
9.90701e-05
9.90693e-05
9.90687e-05
9.90683e-05
9.9068e-05
9.90679e-05
9.9068e-05
9.90681e-05
9.90683e-05
9.90686e-05
9.9069e-05
9.90694e-05
9.90699e-05
9.90704e-05
9.90709e-05
9.90714e-05
9.9072e-05
9.90725e-05
9.90731e-05
9.90736e-05
9.90741e-05
9.90747e-05
9.90752e-05
9.90757e-05
9.90762e-05
9.90767e-05
9.90771e-05
9.90776e-05
9.9078e-05
9.90784e-05
9.90788e-05
9.90791e-05
9.90795e-05
9.90798e-05
9.90801e-05
9.90804e-05
9.90806e-05
9.90808e-05
9.90811e-05
9.90812e-05
9.90814e-05
9.90816e-05
9.90818e-05
9.90819e-05
9.9082e-05
9.9082e-05
9.9082e-05
9.90819e-05
9.90817e-05
9.90815e-05
9.90812e-05
9.90808e-05
9.90804e-05
9.908e-05
9.90795e-05
9.90791e-05
9.90786e-05
9.90781e-05
9.90777e-05
9.90773e-05
9.90768e-05
9.90764e-05
9.90761e-05
9.90757e-05
9.90754e-05
9.90751e-05
9.90748e-05
9.90745e-05
9.90743e-05
9.90741e-05
9.90739e-05
9.90737e-05
9.90735e-05
9.90733e-05
9.90732e-05
9.90731e-05
9.90729e-05
9.90728e-05
9.90727e-05
9.90726e-05
9.90725e-05
9.90724e-05
9.90723e-05
9.90723e-05
9.90722e-05
9.90721e-05
9.90721e-05
9.90722e-05
9.90722e-05
9.90724e-05
9.90725e-05
9.90727e-05
9.9073e-05
9.90732e-05
9.90735e-05
9.90738e-05
9.90741e-05
9.90744e-05
9.90746e-05
9.90749e-05
9.90752e-05
9.90755e-05
9.90757e-05
9.9076e-05
9.90762e-05
9.90763e-05
9.90765e-05
9.90766e-05
9.90768e-05
9.90759e-05
0.000112054
0.000112056
0.000112056
0.000112055
0.000112054
0.000112052
0.00011205
0.000112048
0.000112047
0.000112045
0.000112044
0.000112043
0.000112043
0.000112042
0.000112042
0.000112042
0.000112042
0.000112042
0.000112042
0.000112043
0.000112043
0.000112044
0.000112044
0.000112045
0.000112045
0.000112046
0.000112047
0.000112047
0.000112048
0.000112048
0.000112049
0.000112049
0.00011205
0.000112051
0.000112051
0.000112052
0.000112052
0.000112053
0.000112053
0.000112053
0.000112054
0.000112054
0.000112055
0.000112055
0.000112055
0.000112056
0.000112056
0.000112056
0.000112056
0.000112057
0.000112057
0.000112057
0.000112057
0.000112057
0.000112057
0.000112057
0.000112057
0.000112057
0.000112057
0.000112057
0.000112056
0.000112056
0.000112055
0.000112055
0.000112054
0.000112054
0.000112053
0.000112053
0.000112052
0.000112052
0.000112051
0.000112051
0.000112051
0.00011205
0.00011205
0.00011205
0.000112049
0.000112049
0.000112049
0.000112048
0.000112048
0.000112048
0.000112048
0.000112048
0.000112048
0.000112047
0.000112047
0.000112047
0.000112047
0.000112047
0.000112047
0.000112047
0.000112047
0.000112047
0.000112046
0.000112046
0.000112046
0.000112046
0.000112047
0.000112047
0.000112047
0.000112047
0.000112047
0.000112048
0.000112048
0.000112048
0.000112049
0.000112049
0.000112049
0.00011205
0.00011205
0.00011205
0.00011205
0.000112051
0.000112051
0.000112051
0.000112051
0.000112051
0.000112052
0.000112051
0.000122696
0.000122698
0.000122698
0.000122698
0.000122696
0.000122695
0.000122693
0.000122691
0.000122689
0.000122688
0.000122687
0.000122686
0.000122685
0.000122685
0.000122685
0.000122685
0.000122685
0.000122685
0.000122685
0.000122686
0.000122686
0.000122687
0.000122687
0.000122688
0.000122688
0.000122689
0.00012269
0.00012269
0.000122691
0.000122692
0.000122692
0.000122693
0.000122693
0.000122694
0.000122695
0.000122695
0.000122696
0.000122696
0.000122697
0.000122697
0.000122698
0.000122698
0.000122698
0.000122699
0.000122699
0.000122699
0.0001227
0.0001227
0.0001227
0.0001227
0.000122701
0.000122701
0.000122701
0.000122701
0.000122701
0.000122701
0.000122701
0.000122701
0.0001227
0.0001227
0.0001227
0.000122699
0.000122699
0.000122698
0.000122698
0.000122697
0.000122697
0.000122696
0.000122695
0.000122695
0.000122695
0.000122694
0.000122694
0.000122693
0.000122693
0.000122693
0.000122692
0.000122692
0.000122692
0.000122691
0.000122691
0.000122691
0.000122691
0.000122691
0.00012269
0.00012269
0.00012269
0.00012269
0.00012269
0.00012269
0.00012269
0.00012269
0.000122689
0.000122689
0.000122689
0.000122689
0.000122689
0.000122689
0.000122689
0.00012269
0.00012269
0.00012269
0.00012269
0.000122691
0.000122691
0.000122691
0.000122692
0.000122692
0.000122693
0.000122693
0.000122693
0.000122693
0.000122694
0.000122694
0.000122694
0.000122694
0.000122694
0.000122695
0.000122695
0.000122694
0.000131378
0.00013138
0.00013138
0.000131379
0.000131378
0.000131376
0.000131375
0.000131373
0.000131371
0.00013137
0.000131369
0.000131368
0.000131367
0.000131367
0.000131367
0.000131367
0.000131367
0.000131367
0.000131367
0.000131368
0.000131368
0.000131369
0.000131369
0.00013137
0.000131371
0.000131371
0.000131372
0.000131373
0.000131374
0.000131374
0.000131375
0.000131375
0.000131376
0.000131377
0.000131377
0.000131378
0.000131378
0.000131379
0.000131379
0.00013138
0.00013138
0.000131381
0.000131381
0.000131382
0.000131382
0.000131382
0.000131383
0.000131383
0.000131383
0.000131383
0.000131384
0.000131384
0.000131384
0.000131384
0.000131384
0.000131384
0.000131384
0.000131384
0.000131383
0.000131383
0.000131382
0.000131382
0.000131381
0.000131381
0.00013138
0.00013138
0.000131379
0.000131378
0.000131378
0.000131377
0.000131377
0.000131376
0.000131376
0.000131376
0.000131375
0.000131375
0.000131374
0.000131374
0.000131374
0.000131374
0.000131373
0.000131373
0.000131373
0.000131373
0.000131373
0.000131372
0.000131372
0.000131372
0.000131372
0.000131372
0.000131372
0.000131372
0.000131372
0.000131371
0.000131371
0.000131371
0.000131371
0.000131372
0.000131372
0.000131372
0.000131372
0.000131372
0.000131373
0.000131373
0.000131374
0.000131374
0.000131374
0.000131375
0.000131375
0.000131375
0.000131376
0.000131376
0.000131376
0.000131376
0.000131377
0.000131377
0.000131377
0.000131377
0.000131377
0.000131377
0.000138462
0.000138463
0.000138463
0.000138462
0.000138461
0.000138459
0.000138458
0.000138456
0.000138455
0.000138453
0.000138452
0.000138451
0.000138451
0.000138451
0.00013845
0.00013845
0.000138451
0.000138451
0.000138451
0.000138452
0.000138452
0.000138453
0.000138453
0.000138454
0.000138455
0.000138455
0.000138456
0.000138457
0.000138458
0.000138458
0.000138459
0.00013846
0.00013846
0.000138461
0.000138462
0.000138462
0.000138463
0.000138463
0.000138464
0.000138464
0.000138465
0.000138465
0.000138466
0.000138466
0.000138466
0.000138467
0.000138467
0.000138467
0.000138468
0.000138468
0.000138468
0.000138468
0.000138468
0.000138468
0.000138468
0.000138468
0.000138468
0.000138468
0.000138467
0.000138467
0.000138466
0.000138466
0.000138465
0.000138465
0.000138464
0.000138463
0.000138463
0.000138462
0.000138462
0.000138461
0.000138461
0.00013846
0.00013846
0.000138459
0.000138459
0.000138458
0.000138458
0.000138458
0.000138458
0.000138457
0.000138457
0.000138457
0.000138457
0.000138456
0.000138456
0.000138456
0.000138456
0.000138456
0.000138456
0.000138455
0.000138455
0.000138455
0.000138455
0.000138455
0.000138455
0.000138455
0.000138455
0.000138455
0.000138455
0.000138456
0.000138456
0.000138456
0.000138457
0.000138457
0.000138457
0.000138458
0.000138458
0.000138459
0.000138459
0.000138459
0.00013846
0.00013846
0.00013846
0.00013846
0.000138461
0.000138461
0.000138461
0.000138461
0.000138461
0.000138461
0.000144256
0.000144257
0.000144256
0.000144256
0.000144255
0.000144253
0.000144252
0.00014425
0.000144249
0.000144248
0.000144247
0.000144246
0.000144245
0.000144245
0.000144245
0.000144245
0.000144245
0.000144245
0.000144246
0.000144246
0.000144247
0.000144247
0.000144248
0.000144249
0.000144249
0.00014425
0.000144251
0.000144251
0.000144252
0.000144253
0.000144254
0.000144254
0.000144255
0.000144256
0.000144256
0.000144257
0.000144258
0.000144258
0.000144259
0.000144259
0.00014426
0.00014426
0.000144261
0.000144261
0.000144261
0.000144262
0.000144262
0.000144262
0.000144263
0.000144263
0.000144263
0.000144263
0.000144263
0.000144263
0.000144263
0.000144263
0.000144263
0.000144262
0.000144262
0.000144262
0.000144261
0.00014426
0.00014426
0.000144259
0.000144259
0.000144258
0.000144257
0.000144257
0.000144256
0.000144256
0.000144255
0.000144255
0.000144254
0.000144254
0.000144253
0.000144253
0.000144253
0.000144252
0.000144252
0.000144252
0.000144251
0.000144251
0.000144251
0.000144251
0.000144251
0.00014425
0.00014425
0.00014425
0.00014425
0.00014425
0.00014425
0.00014425
0.000144249
0.000144249
0.000144249
0.000144249
0.000144249
0.00014425
0.00014425
0.00014425
0.00014425
0.000144251
0.000144251
0.000144252
0.000144252
0.000144252
0.000144253
0.000144253
0.000144254
0.000144254
0.000144254
0.000144254
0.000144255
0.000144255
0.000144255
0.000144255
0.000144255
0.000144255
0.000144256
0.000144255
0.000149011
0.000149011
0.000149011
0.00014901
0.000149009
0.000149008
0.000149006
0.000149005
0.000149004
0.000149002
0.000149002
0.000149001
0.000149
0.000149
0.000149
0.000149
0.000149
0.000149
0.000149001
0.000149001
0.000149002
0.000149002
0.000149003
0.000149004
0.000149005
0.000149005
0.000149006
0.000149007
0.000149008
0.000149008
0.000149009
0.00014901
0.000149011
0.000149011
0.000149012
0.000149013
0.000149013
0.000149014
0.000149014
0.000149015
0.000149015
0.000149016
0.000149016
0.000149017
0.000149017
0.000149017
0.000149018
0.000149018
0.000149018
0.000149019
0.000149019
0.000149019
0.000149019
0.000149019
0.000149019
0.000149019
0.000149018
0.000149018
0.000149017
0.000149017
0.000149016
0.000149016
0.000149015
0.000149014
0.000149014
0.000149013
0.000149012
0.000149012
0.000149011
0.000149011
0.00014901
0.00014901
0.000149009
0.000149009
0.000149008
0.000149008
0.000149008
0.000149007
0.000149007
0.000149007
0.000149007
0.000149006
0.000149006
0.000149006
0.000149006
0.000149005
0.000149005
0.000149005
0.000149005
0.000149005
0.000149005
0.000149004
0.000149004
0.000149004
0.000149004
0.000149004
0.000149005
0.000149005
0.000149005
0.000149005
0.000149006
0.000149006
0.000149006
0.000149007
0.000149007
0.000149008
0.000149008
0.000149008
0.000149009
0.000149009
0.000149009
0.00014901
0.00014901
0.00014901
0.00014901
0.00014901
0.000149011
0.000149011
0.000149011
0.000149011
0.000152924
0.000152924
0.000152923
0.000152922
0.000152921
0.00015292
0.000152919
0.000152918
0.000152916
0.000152915
0.000152915
0.000152914
0.000152914
0.000152913
0.000152913
0.000152913
0.000152913
0.000152914
0.000152914
0.000152915
0.000152915
0.000152916
0.000152916
0.000152917
0.000152918
0.000152919
0.00015292
0.00015292
0.000152921
0.000152922
0.000152923
0.000152923
0.000152924
0.000152925
0.000152925
0.000152926
0.000152927
0.000152927
0.000152928
0.000152929
0.000152929
0.00015293
0.00015293
0.00015293
0.000152931
0.000152931
0.000152932
0.000152932
0.000152932
0.000152932
0.000152933
0.000152933
0.000152933
0.000152933
0.000152933
0.000152932
0.000152932
0.000152931
0.000152931
0.00015293
0.00015293
0.000152929
0.000152928
0.000152928
0.000152927
0.000152926
0.000152926
0.000152925
0.000152925
0.000152924
0.000152923
0.000152923
0.000152923
0.000152922
0.000152922
0.000152921
0.000152921
0.000152921
0.00015292
0.00015292
0.00015292
0.00015292
0.000152919
0.000152919
0.000152919
0.000152919
0.000152918
0.000152918
0.000152918
0.000152918
0.000152918
0.000152918
0.000152918
0.000152918
0.000152918
0.000152918
0.000152918
0.000152918
0.000152918
0.000152919
0.000152919
0.000152919
0.00015292
0.00015292
0.000152921
0.000152921
0.000152921
0.000152922
0.000152922
0.000152923
0.000152923
0.000152923
0.000152923
0.000152923
0.000152924
0.000152924
0.000152924
0.000152924
0.000152924
0.000152924
0.00015615
0.00015615
0.000156149
0.000156148
0.000156147
0.000156146
0.000156144
0.000156143
0.000156142
0.000156141
0.000156141
0.00015614
0.00015614
0.00015614
0.000156139
0.00015614
0.00015614
0.00015614
0.00015614
0.000156141
0.000156142
0.000156142
0.000156143
0.000156144
0.000156144
0.000156145
0.000156146
0.000156147
0.000156148
0.000156148
0.000156149
0.00015615
0.000156151
0.000156151
0.000156152
0.000156153
0.000156153
0.000156154
0.000156155
0.000156155
0.000156156
0.000156156
0.000156157
0.000156157
0.000156158
0.000156158
0.000156158
0.000156159
0.000156159
0.000156159
0.000156159
0.000156159
0.000156159
0.000156159
0.000156159
0.000156159
0.000156158
0.000156158
0.000156157
0.000156156
0.000156156
0.000156155
0.000156154
0.000156154
0.000156153
0.000156152
0.000156152
0.000156151
0.000156151
0.00015615
0.00015615
0.000156149
0.000156149
0.000156148
0.000156148
0.000156148
0.000156147
0.000156147
0.000156147
0.000156146
0.000156146
0.000156146
0.000156146
0.000156145
0.000156145
0.000156145
0.000156145
0.000156144
0.000156144
0.000156144
0.000156144
0.000156144
0.000156144
0.000156144
0.000156144
0.000156144
0.000156144
0.000156144
0.000156145
0.000156145
0.000156145
0.000156146
0.000156146
0.000156147
0.000156147
0.000156147
0.000156148
0.000156148
0.000156149
0.000156149
0.000156149
0.000156149
0.000156149
0.00015615
0.00015615
0.00015615
0.00015615
0.00015615
0.00015615
0.00015615
0.00015881
0.00015881
0.000158809
0.000158807
0.000158806
0.000158805
0.000158804
0.000158803
0.000158803
0.000158802
0.000158801
0.000158801
0.0001588
0.0001588
0.0001588
0.0001588
0.0001588
0.000158801
0.000158801
0.000158802
0.000158802
0.000158803
0.000158804
0.000158804
0.000158805
0.000158806
0.000158807
0.000158807
0.000158808
0.000158809
0.00015881
0.000158811
0.000158811
0.000158812
0.000158813
0.000158814
0.000158814
0.000158815
0.000158815
0.000158816
0.000158817
0.000158817
0.000158818
0.000158818
0.000158818
0.000158819
0.000158819
0.00015882
0.00015882
0.00015882
0.00015882
0.00015882
0.00015882
0.00015882
0.00015882
0.000158819
0.000158819
0.000158818
0.000158817
0.000158817
0.000158816
0.000158816
0.000158815
0.000158814
0.000158814
0.000158813
0.000158812
0.000158812
0.000158811
0.000158811
0.00015881
0.00015881
0.000158809
0.000158809
0.000158809
0.000158808
0.000158808
0.000158807
0.000158807
0.000158807
0.000158807
0.000158806
0.000158806
0.000158806
0.000158806
0.000158805
0.000158805
0.000158805
0.000158805
0.000158804
0.000158804
0.000158804
0.000158804
0.000158804
0.000158804
0.000158804
0.000158805
0.000158805
0.000158805
0.000158806
0.000158806
0.000158806
0.000158807
0.000158807
0.000158808
0.000158808
0.000158808
0.000158809
0.000158809
0.000158809
0.00015881
0.00015881
0.00015881
0.00015881
0.00015881
0.00015881
0.00015881
0.00015881
0.00015881
0.000158811
0.000161
0.000160999
0.000160998
0.000160997
0.000160996
0.000160995
0.000160994
0.000160993
0.000160992
0.000160992
0.000160991
0.000160991
0.00016099
0.00016099
0.00016099
0.00016099
0.000160991
0.000160991
0.000160991
0.000160992
0.000160993
0.000160993
0.000160994
0.000160995
0.000160995
0.000160996
0.000160997
0.000160998
0.000160999
0.000160999
0.000161
0.000161001
0.000161002
0.000161003
0.000161003
0.000161004
0.000161005
0.000161005
0.000161006
0.000161007
0.000161007
0.000161008
0.000161008
0.000161009
0.000161009
0.000161009
0.00016101
0.00016101
0.00016101
0.000161011
0.000161011
0.000161011
0.000161011
0.00016101
0.00016101
0.000161009
0.000161009
0.000161008
0.000161008
0.000161007
0.000161006
0.000161006
0.000161005
0.000161004
0.000161004
0.000161003
0.000161003
0.000161002
0.000161001
0.000161001
0.000161
0.000161
0.000161
0.000160999
0.000160999
0.000160998
0.000160998
0.000160998
0.000160997
0.000160997
0.000160997
0.000160997
0.000160996
0.000160996
0.000160996
0.000160996
0.000160995
0.000160995
0.000160995
0.000160995
0.000160994
0.000160994
0.000160994
0.000160994
0.000160994
0.000160995
0.000160995
0.000160995
0.000160996
0.000160996
0.000160996
0.000160997
0.000160997
0.000160998
0.000160998
0.000160998
0.000160999
0.000160999
0.000160999
0.000161
0.000161
0.000161
0.000161
0.000161
0.000161
0.000161
0.000161
0.000161
0.000161
0.000161001
0.000162795
0.000162794
0.000162793
0.000162792
0.000162791
0.00016279
0.000162789
0.000162788
0.000162788
0.000162787
0.000162786
0.000162786
0.000162786
0.000162786
0.000162786
0.000162786
0.000162786
0.000162787
0.000162787
0.000162788
0.000162788
0.000162789
0.00016279
0.00016279
0.000162791
0.000162792
0.000162793
0.000162793
0.000162794
0.000162795
0.000162796
0.000162797
0.000162797
0.000162798
0.000162799
0.0001628
0.0001628
0.000162801
0.000162802
0.000162802
0.000162803
0.000162803
0.000162804
0.000162804
0.000162805
0.000162805
0.000162806
0.000162806
0.000162806
0.000162806
0.000162806
0.000162806
0.000162806
0.000162806
0.000162805
0.000162805
0.000162804
0.000162804
0.000162803
0.000162802
0.000162802
0.000162801
0.0001628
0.0001628
0.000162799
0.000162798
0.000162798
0.000162797
0.000162797
0.000162796
0.000162796
0.000162796