/*--------------------------------*- C++ -*----------------------------------*\
  =========                 |
  \\      /  F ield         | OpenFOAM: The Open Source CFD Toolbox
   \\    /   O peration     | Website:  https://openfoam.org
    \\  /    A nd           | Version:  7
     \\/     M anipulation  |
\*---------------------------------------------------------------------------*/
FoamFile
{
    version     2.0;
    format      ascii;
    class       volScalarField;
    location    "5000";
    object      nut;
}
// * * * * * * * * * * * * * * * * * * * * * * * * * * * * * * * * * * * * * //

dimensions      [0 2 -1 0 0 0 0];

internalField   nonuniform List<scalar> 
24000
(
6.91283e-12
6.91318e-12
6.9133e-12
6.91325e-12
6.91309e-12
6.91287e-12
6.91264e-12
6.91242e-12
6.91223e-12
6.91207e-12
6.91195e-12
6.91185e-12
6.91177e-12
6.91171e-12
6.91167e-12
6.91165e-12
6.91164e-12
6.91164e-12
6.91165e-12
6.91167e-12
6.9117e-12
6.91173e-12
6.91177e-12
6.91182e-12
6.91186e-12
6.91191e-12
6.91197e-12
6.91202e-12
6.91207e-12
6.91213e-12
6.91218e-12
6.91224e-12
6.91229e-12
6.91234e-12
6.91239e-12
6.91244e-12
6.91249e-12
6.91254e-12
6.91259e-12
6.91263e-12
6.91267e-12
6.91272e-12
6.91275e-12
6.91279e-12
6.91282e-12
6.91284e-12
6.91287e-12
6.91289e-12
6.91291e-12
6.91293e-12
6.91295e-12
6.91297e-12
6.91299e-12
6.913e-12
6.91302e-12
6.91303e-12
6.91304e-12
6.91304e-12
6.91304e-12
6.91302e-12
6.913e-12
6.91298e-12
6.91295e-12
6.91291e-12
6.91287e-12
6.91283e-12
6.91278e-12
6.91274e-12
6.91269e-12
6.91265e-12
6.91261e-12
6.91257e-12
6.91253e-12
6.91249e-12
6.91245e-12
6.91242e-12
6.91239e-12
6.91236e-12
6.91234e-12
6.91231e-12
6.91229e-12
6.91227e-12
6.91225e-12
6.91223e-12
6.91222e-12
6.9122e-12
6.91219e-12
6.91218e-12
6.91217e-12
6.91216e-12
6.91215e-12
6.91214e-12
6.91213e-12
6.91212e-12
6.91212e-12
6.91211e-12
6.91211e-12
6.91211e-12
6.91211e-12
6.91212e-12
6.91213e-12
6.91214e-12
6.91216e-12
6.91218e-12
6.9122e-12
6.91222e-12
6.91224e-12
6.91227e-12
6.91229e-12
6.91232e-12
6.91235e-12
6.91238e-12
6.91241e-12
6.91243e-12
6.91246e-12
6.91248e-12
6.9125e-12
6.91251e-12
6.91254e-12
6.91243e-12
1.20224e-09
1.2023e-09
1.20232e-09
1.20231e-09
1.20228e-09
1.20224e-09
1.2022e-09
1.20216e-09
1.20213e-09
1.2021e-09
1.20208e-09
1.20207e-09
1.20205e-09
1.20204e-09
1.20204e-09
1.20203e-09
1.20203e-09
1.20203e-09
1.20203e-09
1.20203e-09
1.20204e-09
1.20205e-09
1.20205e-09
1.20206e-09
1.20207e-09
1.20208e-09
1.20209e-09
1.2021e-09
1.2021e-09
1.20211e-09
1.20212e-09
1.20213e-09
1.20214e-09
1.20215e-09
1.20216e-09
1.20217e-09
1.20218e-09
1.20219e-09
1.20219e-09
1.2022e-09
1.20221e-09
1.20222e-09
1.20222e-09
1.20223e-09
1.20223e-09
1.20224e-09
1.20224e-09
1.20225e-09
1.20225e-09
1.20225e-09
1.20226e-09
1.20226e-09
1.20226e-09
1.20227e-09
1.20227e-09
1.20227e-09
1.20227e-09
1.20227e-09
1.20227e-09
1.20227e-09
1.20227e-09
1.20226e-09
1.20226e-09
1.20225e-09
1.20224e-09
1.20224e-09
1.20223e-09
1.20222e-09
1.20221e-09
1.2022e-09
1.2022e-09
1.20219e-09
1.20218e-09
1.20218e-09
1.20217e-09
1.20217e-09
1.20216e-09
1.20216e-09
1.20215e-09
1.20215e-09
1.20214e-09
1.20214e-09
1.20214e-09
1.20213e-09
1.20213e-09
1.20213e-09
1.20213e-09
1.20212e-09
1.20212e-09
1.20212e-09
1.20212e-09
1.20212e-09
1.20211e-09
1.20211e-09
1.20211e-09
1.20211e-09
1.20211e-09
1.20211e-09
1.20211e-09
1.20211e-09
1.20211e-09
1.20212e-09
1.20212e-09
1.20212e-09
1.20213e-09
1.20213e-09
1.20213e-09
1.20214e-09
1.20214e-09
1.20215e-09
1.20215e-09
1.20216e-09
1.20216e-09
1.20217e-09
1.20217e-09
1.20218e-09
1.20218e-09
1.20218e-09
1.20219e-09
1.20217e-09
2.57191e-08
2.57203e-08
2.57208e-08
2.57206e-08
2.572e-08
2.57192e-08
2.57184e-08
2.57176e-08
2.57168e-08
2.57163e-08
2.57158e-08
2.57154e-08
2.57151e-08
2.57149e-08
2.57148e-08
2.57147e-08
2.57147e-08
2.57147e-08
2.57147e-08
2.57148e-08
2.57149e-08
2.5715e-08
2.57152e-08
2.57153e-08
2.57155e-08
2.57157e-08
2.57159e-08
2.57161e-08
2.57163e-08
2.57165e-08
2.57167e-08
2.57169e-08
2.57171e-08
2.57173e-08
2.57175e-08
2.57176e-08
2.57178e-08
2.5718e-08
2.57182e-08
2.57183e-08
2.57185e-08
2.57186e-08
2.57188e-08
2.57189e-08
2.5719e-08
2.57191e-08
2.57192e-08
2.57193e-08
2.57194e-08
2.57194e-08
2.57195e-08
2.57196e-08
2.57196e-08
2.57197e-08
2.57198e-08
2.57198e-08
2.57198e-08
2.57198e-08
2.57198e-08
2.57198e-08
2.57197e-08
2.57196e-08
2.57195e-08
2.57194e-08
2.57192e-08
2.57191e-08
2.57189e-08
2.57187e-08
2.57186e-08
2.57184e-08
2.57182e-08
2.57181e-08
2.57179e-08
2.57178e-08
2.57177e-08
2.57176e-08
2.57174e-08
2.57173e-08
2.57172e-08
2.57171e-08
2.57171e-08
2.5717e-08
2.57169e-08
2.57169e-08
2.57168e-08
2.57167e-08
2.57167e-08
2.57167e-08
2.57166e-08
2.57166e-08
2.57165e-08
2.57165e-08
2.57165e-08
2.57164e-08
2.57164e-08
2.57164e-08
2.57164e-08
2.57164e-08
2.57164e-08
2.57164e-08
2.57165e-08
2.57165e-08
2.57166e-08
2.57167e-08
2.57167e-08
2.57168e-08
2.57169e-08
2.5717e-08
2.57171e-08
2.57172e-08
2.57173e-08
2.57174e-08
2.57175e-08
2.57176e-08
2.57177e-08
2.57178e-08
2.57178e-08
2.57179e-08
2.5718e-08
2.57176e-08
1.97229e-07
1.97238e-07
1.97241e-07
1.97239e-07
1.97235e-07
1.97229e-07
1.97222e-07
1.97216e-07
1.97211e-07
1.97206e-07
1.97203e-07
1.972e-07
1.97198e-07
1.97196e-07
1.97195e-07
1.97194e-07
1.97194e-07
1.97194e-07
1.97195e-07
1.97195e-07
1.97196e-07
1.97197e-07
1.97198e-07
1.97199e-07
1.97201e-07
1.97202e-07
1.97204e-07
1.97205e-07
1.97207e-07
1.97208e-07
1.9721e-07
1.97211e-07
1.97213e-07
1.97214e-07
1.97215e-07
1.97217e-07
1.97218e-07
1.9722e-07
1.97221e-07
1.97222e-07
1.97223e-07
1.97224e-07
1.97225e-07
1.97226e-07
1.97227e-07
1.97228e-07
1.97228e-07
1.97229e-07
1.9723e-07
1.9723e-07
1.97231e-07
1.97231e-07
1.97232e-07
1.97232e-07
1.97233e-07
1.97233e-07
1.97233e-07
1.97233e-07
1.97233e-07
1.97233e-07
1.97232e-07
1.97232e-07
1.97231e-07
1.9723e-07
1.97228e-07
1.97227e-07
1.97226e-07
1.97225e-07
1.97223e-07
1.97222e-07
1.97221e-07
1.9722e-07
1.97219e-07
1.97218e-07
1.97217e-07
1.97216e-07
1.97215e-07
1.97214e-07
1.97214e-07
1.97213e-07
1.97212e-07
1.97212e-07
1.97211e-07
1.97211e-07
1.9721e-07
1.9721e-07
1.9721e-07
1.97209e-07
1.97209e-07
1.97209e-07
1.97208e-07
1.97208e-07
1.97208e-07
1.97208e-07
1.97207e-07
1.97207e-07
1.97207e-07
1.97207e-07
1.97207e-07
1.97207e-07
1.97208e-07
1.97208e-07
1.97209e-07
1.97209e-07
1.9721e-07
1.9721e-07
1.97211e-07
1.97212e-07
1.97212e-07
1.97213e-07
1.97214e-07
1.97215e-07
1.97216e-07
1.97216e-07
1.97217e-07
1.97218e-07
1.97218e-07
1.97219e-07
1.97219e-07
1.97216e-07
8.41666e-07
8.41695e-07
8.41702e-07
8.41693e-07
8.41675e-07
8.4165e-07
8.41624e-07
8.41598e-07
8.41576e-07
8.41558e-07
8.41543e-07
8.41532e-07
8.41524e-07
8.41517e-07
8.41513e-07
8.41511e-07
8.4151e-07
8.4151e-07
8.41512e-07
8.41515e-07
8.41518e-07
8.41522e-07
8.41527e-07
8.41532e-07
8.41538e-07
8.41544e-07
8.4155e-07
8.41556e-07
8.41562e-07
8.41569e-07
8.41575e-07
8.41581e-07
8.41587e-07
8.41593e-07
8.41599e-07
8.41604e-07
8.4161e-07
8.41615e-07
8.4162e-07
8.41625e-07
8.4163e-07
8.41635e-07
8.41639e-07
8.41643e-07
8.41646e-07
8.41649e-07
8.41651e-07
8.41653e-07
8.41655e-07
8.41658e-07
8.4166e-07
8.41662e-07
8.41665e-07
8.41667e-07
8.41668e-07
8.4167e-07
8.4167e-07
8.41671e-07
8.4167e-07
8.41668e-07
8.41666e-07
8.41663e-07
8.41659e-07
8.41655e-07
8.4165e-07
8.41645e-07
8.4164e-07
8.41634e-07
8.41629e-07
8.41624e-07
8.41619e-07
8.41615e-07
8.4161e-07
8.41606e-07
8.41602e-07
8.41598e-07
8.41595e-07
8.41591e-07
8.41589e-07
8.41586e-07
8.41583e-07
8.41581e-07
8.41579e-07
8.41577e-07
8.41575e-07
8.41574e-07
8.41572e-07
8.41571e-07
8.4157e-07
8.41569e-07
8.41568e-07
8.41567e-07
8.41566e-07
8.41565e-07
8.41564e-07
8.41563e-07
8.41563e-07
8.41563e-07
8.41563e-07
8.41564e-07
8.41565e-07
8.41567e-07
8.41569e-07
8.41571e-07
8.41574e-07
8.41576e-07
8.41579e-07
8.41582e-07
8.41585e-07
8.41588e-07
8.41591e-07
8.41595e-07
8.41598e-07
8.41601e-07
8.41604e-07
8.41606e-07
8.41608e-07
8.4161e-07
8.41613e-07
8.41599e-07
2.42228e-06
2.42234e-06
2.42233e-06
2.4223e-06
2.42225e-06
2.42218e-06
2.42211e-06
2.42204e-06
2.42198e-06
2.42193e-06
2.42189e-06
2.42186e-06
2.42184e-06
2.42182e-06
2.42181e-06
2.42181e-06
2.4218e-06
2.42181e-06
2.42181e-06
2.42182e-06
2.42183e-06
2.42184e-06
2.42185e-06
2.42187e-06
2.42188e-06
2.4219e-06
2.42192e-06
2.42193e-06
2.42195e-06
2.42197e-06
2.42199e-06
2.422e-06
2.42202e-06
2.42203e-06
2.42205e-06
2.42207e-06
2.42208e-06
2.42209e-06
2.42211e-06
2.42212e-06
2.42213e-06
2.42215e-06
2.42216e-06
2.42217e-06
2.42218e-06
2.42218e-06
2.42219e-06
2.42219e-06
2.4222e-06
2.42221e-06
2.42221e-06
2.42222e-06
2.42222e-06
2.42223e-06
2.42223e-06
2.42224e-06
2.42224e-06
2.42224e-06
2.42224e-06
2.42223e-06
2.42223e-06
2.42222e-06
2.42221e-06
2.42219e-06
2.42218e-06
2.42217e-06
2.42215e-06
2.42214e-06
2.42212e-06
2.42211e-06
2.4221e-06
2.42208e-06
2.42207e-06
2.42206e-06
2.42205e-06
2.42204e-06
2.42203e-06
2.42202e-06
2.42201e-06
2.42201e-06
2.422e-06
2.42199e-06
2.42199e-06
2.42198e-06
2.42198e-06
2.42198e-06
2.42197e-06
2.42197e-06
2.42197e-06
2.42196e-06
2.42196e-06
2.42196e-06
2.42195e-06
2.42195e-06
2.42195e-06
2.42195e-06
2.42195e-06
2.42195e-06
2.42195e-06
2.42195e-06
2.42195e-06
2.42196e-06
2.42196e-06
2.42197e-06
2.42198e-06
2.42198e-06
2.42199e-06
2.422e-06
2.42201e-06
2.42202e-06
2.42202e-06
2.42203e-06
2.42204e-06
2.42205e-06
2.42206e-06
2.42207e-06
2.42207e-06
2.42207e-06
2.42208e-06
2.42204e-06
5.25989e-06
5.25996e-06
5.25991e-06
5.25981e-06
5.25969e-06
5.25956e-06
5.25941e-06
5.25927e-06
5.25915e-06
5.25905e-06
5.25897e-06
5.25891e-06
5.25887e-06
5.25884e-06
5.25882e-06
5.25881e-06
5.25881e-06
5.25881e-06
5.25882e-06
5.25884e-06
5.25886e-06
5.25889e-06
5.25892e-06
5.25895e-06
5.25898e-06
5.25902e-06
5.25905e-06
5.25909e-06
5.25912e-06
5.25916e-06
5.25919e-06
5.25922e-06
5.25926e-06
5.25929e-06
5.25932e-06
5.25935e-06
5.25938e-06
5.25941e-06
5.25944e-06
5.25946e-06
5.25949e-06
5.25951e-06
5.25953e-06
5.25955e-06
5.25957e-06
5.25958e-06
5.25959e-06
5.2596e-06
5.25961e-06
5.25963e-06
5.25964e-06
5.25965e-06
5.25966e-06
5.25967e-06
5.25968e-06
5.25969e-06
5.25969e-06
5.25969e-06
5.25968e-06
5.25967e-06
5.25966e-06
5.25964e-06
5.25962e-06
5.25959e-06
5.25957e-06
5.25954e-06
5.25951e-06
5.25948e-06
5.25945e-06
5.25942e-06
5.2594e-06
5.25937e-06
5.25934e-06
5.25932e-06
5.2593e-06
5.25928e-06
5.25926e-06
5.25924e-06
5.25923e-06
5.25922e-06
5.2592e-06
5.25919e-06
5.25918e-06
5.25917e-06
5.25916e-06
5.25915e-06
5.25915e-06
5.25914e-06
5.25913e-06
5.25913e-06
5.25912e-06
5.25912e-06
5.25911e-06
5.2591e-06
5.2591e-06
5.2591e-06
5.2591e-06
5.2591e-06
5.2591e-06
5.2591e-06
5.25911e-06
5.25912e-06
5.25913e-06
5.25915e-06
5.25916e-06
5.25917e-06
5.25919e-06
5.2592e-06
5.25922e-06
5.25924e-06
5.25926e-06
5.25927e-06
5.25929e-06
5.25931e-06
5.25933e-06
5.25934e-06
5.25935e-06
5.25936e-06
5.25938e-06
5.25927e-06
9.36359e-06
9.36368e-06
9.36352e-06
9.36332e-06
9.3631e-06
9.36288e-06
9.36264e-06
9.36241e-06
9.36221e-06
9.36204e-06
9.36191e-06
9.36181e-06
9.36174e-06
9.36169e-06
9.36166e-06
9.36165e-06
9.36165e-06
9.36166e-06
9.36168e-06
9.36171e-06
9.36175e-06
9.3618e-06
9.36185e-06
9.3619e-06
9.36196e-06
9.36202e-06
9.36207e-06
9.36213e-06
9.36219e-06
9.36225e-06
9.36231e-06
9.36237e-06
9.36242e-06
9.36248e-06
9.36253e-06
9.36258e-06
9.36263e-06
9.36268e-06
9.36273e-06
9.36277e-06
9.36281e-06
9.36285e-06
9.36288e-06
9.36291e-06
9.36294e-06
9.36296e-06
9.36298e-06
9.363e-06
9.36301e-06
9.36303e-06
9.36305e-06
9.36307e-06
9.36308e-06
9.3631e-06
9.36311e-06
9.36312e-06
9.36313e-06
9.36313e-06
9.36312e-06
9.3631e-06
9.36307e-06
9.36304e-06
9.363e-06
9.36296e-06
9.36291e-06
9.36287e-06
9.36282e-06
9.36277e-06
9.36272e-06
9.36267e-06
9.36263e-06
9.36258e-06
9.36254e-06
9.3625e-06
9.36247e-06
9.36244e-06
9.36241e-06
9.36238e-06
9.36235e-06
9.36233e-06
9.36231e-06
9.36229e-06
9.36227e-06
9.36225e-06
9.36224e-06
9.36223e-06
9.36221e-06
9.3622e-06
9.36219e-06
9.36218e-06
9.36218e-06
9.36217e-06
9.36216e-06
9.36215e-06
9.36214e-06
9.36214e-06
9.36213e-06
9.36213e-06
9.36214e-06
9.36215e-06
9.36216e-06
9.36218e-06
9.3622e-06
9.36222e-06
9.36225e-06
9.36227e-06
9.36229e-06
9.36232e-06
9.36234e-06
9.36237e-06
9.3624e-06
9.36243e-06
9.36246e-06
9.36249e-06
9.36252e-06
9.36254e-06
9.36256e-06
9.36257e-06
9.36261e-06
9.36242e-06
1.4544e-05
1.45441e-05
1.45438e-05
1.45435e-05
1.45432e-05
1.45428e-05
1.45425e-05
1.45422e-05
1.45419e-05
1.45416e-05
1.45414e-05
1.45413e-05
1.45412e-05
1.45411e-05
1.45411e-05
1.45411e-05
1.45411e-05
1.45411e-05
1.45411e-05
1.45412e-05
1.45412e-05
1.45413e-05
1.45414e-05
1.45415e-05
1.45416e-05
1.45416e-05
1.45417e-05
1.45418e-05
1.45419e-05
1.4542e-05
1.45421e-05
1.45422e-05
1.45423e-05
1.45423e-05
1.45424e-05
1.45425e-05
1.45426e-05
1.45426e-05
1.45427e-05
1.45428e-05
1.45428e-05
1.45429e-05
1.45429e-05
1.4543e-05
1.4543e-05
1.45431e-05
1.45431e-05
1.45431e-05
1.45431e-05
1.45431e-05
1.45432e-05
1.45432e-05
1.45432e-05
1.45432e-05
1.45433e-05
1.45433e-05
1.45433e-05
1.45433e-05
1.45433e-05
1.45432e-05
1.45432e-05
1.45431e-05
1.45431e-05
1.4543e-05
1.4543e-05
1.45429e-05
1.45428e-05
1.45427e-05
1.45427e-05
1.45426e-05
1.45425e-05
1.45425e-05
1.45424e-05
1.45423e-05
1.45423e-05
1.45422e-05
1.45422e-05
1.45422e-05
1.45421e-05
1.45421e-05
1.45421e-05
1.4542e-05
1.4542e-05
1.4542e-05
1.4542e-05
1.45419e-05
1.45419e-05
1.45419e-05
1.45419e-05
1.45419e-05
1.45419e-05
1.45418e-05
1.45418e-05
1.45418e-05
1.45418e-05
1.45418e-05
1.45418e-05
1.45418e-05
1.45418e-05
1.45418e-05
1.45419e-05
1.45419e-05
1.45419e-05
1.45419e-05
1.4542e-05
1.4542e-05
1.4542e-05
1.45421e-05
1.45421e-05
1.45422e-05
1.45422e-05
1.45422e-05
1.45423e-05
1.45423e-05
1.45424e-05
1.45424e-05
1.45424e-05
1.45424e-05
1.45425e-05
1.45422e-05
2.05815e-05
2.05817e-05
2.05813e-05
2.05808e-05
2.05804e-05
2.05799e-05
2.05795e-05
2.05791e-05
2.05787e-05
2.05784e-05
2.05781e-05
2.05779e-05
2.05778e-05
2.05777e-05
2.05776e-05
2.05776e-05
2.05776e-05
2.05777e-05
2.05777e-05
2.05778e-05
2.05779e-05
2.0578e-05
2.05781e-05
2.05782e-05
2.05783e-05
2.05784e-05
2.05786e-05
2.05787e-05
2.05788e-05
2.05789e-05
2.05791e-05
2.05792e-05
2.05793e-05
2.05794e-05
2.05795e-05
2.05796e-05
2.05797e-05
2.05798e-05
2.05799e-05
2.058e-05
2.05801e-05
2.05802e-05
2.05802e-05
2.05803e-05
2.05804e-05
2.05804e-05
2.05804e-05
2.05805e-05
2.05805e-05
2.05805e-05
2.05806e-05
2.05806e-05
2.05806e-05
2.05806e-05
2.05807e-05
2.05807e-05
2.05807e-05
2.05807e-05
2.05806e-05
2.05806e-05
2.05805e-05
2.05805e-05
2.05804e-05
2.05803e-05
2.05802e-05
2.05801e-05
2.058e-05
2.05799e-05
2.05798e-05
2.05797e-05
2.05796e-05
2.05796e-05
2.05795e-05
2.05794e-05
2.05793e-05
2.05793e-05
2.05792e-05
2.05791e-05
2.05791e-05
2.0579e-05
2.0579e-05
2.0579e-05
2.05789e-05
2.05789e-05
2.05789e-05
2.05788e-05
2.05788e-05
2.05788e-05
2.05788e-05
2.05787e-05
2.05787e-05
2.05787e-05
2.05787e-05
2.05787e-05
2.05787e-05
2.05787e-05
2.05787e-05
2.05787e-05
2.05787e-05
2.05787e-05
2.05787e-05
2.05788e-05
2.05788e-05
2.05789e-05
2.05789e-05
2.0579e-05
2.0579e-05
2.05791e-05
2.05791e-05
2.05792e-05
2.05792e-05
2.05793e-05
2.05793e-05
2.05794e-05
2.05794e-05
2.05795e-05
2.05795e-05
2.05795e-05
2.05796e-05
2.05792e-05
2.72991e-05
2.72992e-05
2.72988e-05
2.72982e-05
2.72976e-05
2.72971e-05
2.72966e-05
2.7296e-05
2.72956e-05
2.72952e-05
2.72949e-05
2.72947e-05
2.72945e-05
2.72944e-05
2.72943e-05
2.72943e-05
2.72943e-05
2.72943e-05
2.72944e-05
2.72945e-05
2.72946e-05
2.72947e-05
2.72949e-05
2.7295e-05
2.72952e-05
2.72953e-05
2.72955e-05
2.72957e-05
2.72958e-05
2.7296e-05
2.72962e-05
2.72963e-05
2.72965e-05
2.72966e-05
2.72968e-05
2.72969e-05
2.72971e-05
2.72972e-05
2.72973e-05
2.72974e-05
2.72975e-05
2.72976e-05
2.72977e-05
2.72978e-05
2.72979e-05
2.7298e-05
2.7298e-05
2.72981e-05
2.72981e-05
2.72981e-05
2.72982e-05
2.72982e-05
2.72982e-05
2.72983e-05
2.72983e-05
2.72983e-05
2.72983e-05
2.72983e-05
2.72982e-05
2.72982e-05
2.72981e-05
2.7298e-05
2.72979e-05
2.72978e-05
2.72977e-05
2.72976e-05
2.72974e-05
2.72973e-05
2.72972e-05
2.72971e-05
2.72969e-05
2.72968e-05
2.72967e-05
2.72966e-05
2.72965e-05
2.72964e-05
2.72964e-05
2.72963e-05
2.72962e-05
2.72962e-05
2.72961e-05
2.7296e-05
2.7296e-05
2.7296e-05
2.72959e-05
2.72959e-05
2.72958e-05
2.72958e-05
2.72958e-05
2.72958e-05
2.72957e-05
2.72957e-05
2.72957e-05
2.72957e-05
2.72957e-05
2.72957e-05
2.72957e-05
2.72957e-05
2.72957e-05
2.72957e-05
2.72958e-05
2.72958e-05
2.72959e-05
2.72959e-05
2.7296e-05
2.72961e-05
2.72961e-05
2.72962e-05
2.72963e-05
2.72963e-05
2.72964e-05
2.72965e-05
2.72965e-05
2.72966e-05
2.72967e-05
2.72967e-05
2.72968e-05
2.72968e-05
2.72969e-05
2.72965e-05
3.45688e-05
3.45689e-05
3.45684e-05
3.45678e-05
3.45671e-05
3.45665e-05
3.45659e-05
3.45653e-05
3.45647e-05
3.45643e-05
3.4564e-05
3.45637e-05
3.45635e-05
3.45634e-05
3.45633e-05
3.45632e-05
3.45633e-05
3.45633e-05
3.45634e-05
3.45635e-05
3.45637e-05
3.45638e-05
3.4564e-05
3.45642e-05
3.45644e-05
3.45646e-05
3.45648e-05
3.4565e-05
3.45652e-05
3.45654e-05
3.45657e-05
3.45659e-05
3.45661e-05
3.45662e-05
3.45664e-05
3.45666e-05
3.45668e-05
3.4567e-05
3.45671e-05
3.45673e-05
3.45674e-05
3.45675e-05
3.45677e-05
3.45678e-05
3.45679e-05
3.4568e-05
3.4568e-05
3.45681e-05
3.45681e-05
3.45682e-05
3.45682e-05
3.45683e-05
3.45683e-05
3.45683e-05
3.45683e-05
3.45683e-05
3.45683e-05
3.45683e-05
3.45683e-05
3.45682e-05
3.45681e-05
3.4568e-05
3.45678e-05
3.45677e-05
3.45676e-05
3.45674e-05
3.45673e-05
3.45671e-05
3.45669e-05
3.45668e-05
3.45666e-05
3.45665e-05
3.45664e-05
3.45662e-05
3.45661e-05
3.4566e-05
3.45659e-05
3.45658e-05
3.45657e-05
3.45656e-05
3.45656e-05
3.45655e-05
3.45654e-05
3.45654e-05
3.45653e-05
3.45653e-05
3.45653e-05
3.45652e-05
3.45652e-05
3.45652e-05
3.45651e-05
3.45651e-05
3.45651e-05
3.4565e-05
3.4565e-05
3.4565e-05
3.4565e-05
3.4565e-05
3.45651e-05
3.45651e-05
3.45652e-05
3.45652e-05
3.45653e-05
3.45654e-05
3.45655e-05
3.45656e-05
3.45656e-05
3.45657e-05
3.45658e-05
3.45659e-05
3.4566e-05
3.4566e-05
3.45661e-05
3.45662e-05
3.45663e-05
3.45663e-05
3.45664e-05
3.45664e-05
3.45665e-05
3.45661e-05
4.23006e-05
4.23006e-05
4.23e-05
4.22993e-05
4.22986e-05
4.22979e-05
4.22973e-05
4.22966e-05
4.22961e-05
4.22956e-05
4.22952e-05
4.22949e-05
4.22947e-05
4.22945e-05
4.22945e-05
4.22944e-05
4.22945e-05
4.22945e-05
4.22946e-05
4.22948e-05
4.2295e-05
4.22952e-05
4.22954e-05
4.22956e-05
4.22959e-05
4.22961e-05
4.22964e-05
4.22966e-05
4.22969e-05
4.22971e-05
4.22974e-05
4.22976e-05
4.22979e-05
4.22981e-05
4.22984e-05
4.22986e-05
4.22988e-05
4.2299e-05
4.22992e-05
4.22994e-05
4.22996e-05
4.22997e-05
4.22999e-05
4.23e-05
4.23002e-05
4.23003e-05
4.23004e-05
4.23004e-05
4.23005e-05
4.23006e-05
4.23006e-05
4.23006e-05
4.23007e-05
4.23007e-05
4.23007e-05
4.23007e-05
4.23007e-05
4.23007e-05
4.23006e-05
4.23005e-05
4.23004e-05
4.23002e-05
4.23001e-05
4.22999e-05
4.22997e-05
4.22996e-05
4.22994e-05
4.22992e-05
4.2299e-05
4.22988e-05
4.22986e-05
4.22985e-05
4.22983e-05
4.22982e-05
4.2298e-05
4.22979e-05
4.22978e-05
4.22976e-05
4.22975e-05
4.22974e-05
4.22973e-05
4.22972e-05
4.22972e-05
4.22971e-05
4.2297e-05
4.2297e-05
4.22969e-05
4.22969e-05
4.22968e-05
4.22968e-05
4.22968e-05
4.22967e-05
4.22967e-05
4.22967e-05
4.22966e-05
4.22966e-05
4.22966e-05
4.22967e-05
4.22967e-05
4.22968e-05
4.22968e-05
4.22969e-05
4.2297e-05
4.22971e-05
4.22972e-05
4.22973e-05
4.22974e-05
4.22975e-05
4.22976e-05
4.22977e-05
4.22978e-05
4.22979e-05
4.2298e-05
4.22981e-05
4.22982e-05
4.22983e-05
4.22983e-05
4.22984e-05
4.22985e-05
4.22981e-05
5.04304e-05
5.04302e-05
5.04295e-05
5.04288e-05
5.0428e-05
5.04273e-05
5.04266e-05
5.0426e-05
5.04254e-05
5.04249e-05
5.04245e-05
5.04242e-05
5.0424e-05
5.04238e-05
5.04238e-05
5.04237e-05
5.04238e-05
5.04239e-05
5.0424e-05
5.04242e-05
5.04244e-05
5.04247e-05
5.04249e-05
5.04252e-05
5.04255e-05
5.04258e-05
5.04261e-05
5.04264e-05
5.04267e-05
5.0427e-05
5.04273e-05
5.04276e-05
5.04279e-05
5.04282e-05
5.04285e-05
5.04287e-05
5.0429e-05
5.04293e-05
5.04295e-05
5.04297e-05
5.04299e-05
5.04302e-05
5.04303e-05
5.04305e-05
5.04307e-05
5.04308e-05
5.04309e-05
5.0431e-05
5.04311e-05
5.04312e-05
5.04312e-05
5.04313e-05
5.04313e-05
5.04314e-05
5.04314e-05
5.04314e-05
5.04313e-05
5.04312e-05
5.04311e-05
5.0431e-05
5.04309e-05
5.04307e-05
5.04305e-05
5.04303e-05
5.04301e-05
5.04299e-05
5.04297e-05
5.04295e-05
5.04292e-05
5.0429e-05
5.04288e-05
5.04286e-05
5.04284e-05
5.04283e-05
5.04281e-05
5.04279e-05
5.04278e-05
5.04276e-05
5.04275e-05
5.04274e-05
5.04273e-05
5.04272e-05
5.04271e-05
5.0427e-05
5.04269e-05
5.04268e-05
5.04268e-05
5.04267e-05
5.04266e-05
5.04266e-05
5.04265e-05
5.04265e-05
5.04264e-05
5.04264e-05
5.04264e-05
5.04264e-05
5.04264e-05
5.04264e-05
5.04265e-05
5.04266e-05
5.04267e-05
5.04268e-05
5.04269e-05
5.04271e-05
5.04272e-05
5.04273e-05
5.04274e-05
5.04275e-05
5.04277e-05
5.04278e-05
5.04279e-05
5.0428e-05
5.04281e-05
5.04282e-05
5.04283e-05
5.04284e-05
5.04285e-05
5.04285e-05
5.04286e-05
5.04284e-05
5.89118e-05
5.89113e-05
5.89105e-05
5.89097e-05
5.8909e-05
5.89083e-05
5.89076e-05
5.8907e-05
5.89064e-05
5.89059e-05
5.89055e-05
5.89052e-05
5.8905e-05
5.89049e-05
5.89048e-05
5.89048e-05
5.89049e-05
5.8905e-05
5.89052e-05
5.89054e-05
5.89057e-05
5.89059e-05
5.89062e-05
5.89066e-05
5.89069e-05
5.89073e-05
5.89076e-05
5.8908e-05
5.89083e-05
5.89087e-05
5.89091e-05
5.89094e-05
5.89098e-05
5.89101e-05
5.89104e-05
5.89107e-05
5.89111e-05
5.89114e-05
5.89116e-05
5.89119e-05
5.89122e-05
5.89124e-05
5.89127e-05
5.89129e-05
5.89131e-05
5.89132e-05
5.89134e-05
5.89135e-05
5.89136e-05
5.89137e-05
5.89138e-05
5.89138e-05
5.89139e-05
5.89139e-05
5.89139e-05
5.89139e-05
5.89138e-05
5.89137e-05
5.89136e-05
5.89134e-05
5.89132e-05
5.8913e-05
5.89128e-05
5.89126e-05
5.89123e-05
5.89121e-05
5.89118e-05
5.89116e-05
5.89113e-05
5.89111e-05
5.89108e-05
5.89106e-05
5.89104e-05
5.89102e-05
5.891e-05
5.89098e-05
5.89096e-05
5.89094e-05
5.89093e-05
5.89091e-05
5.8909e-05
5.89089e-05
5.89088e-05
5.89086e-05
5.89086e-05
5.89085e-05
5.89084e-05
5.89083e-05
5.89082e-05
5.89082e-05
5.89081e-05
5.8908e-05
5.8908e-05
5.8908e-05
5.89079e-05
5.89079e-05
5.8908e-05
5.8908e-05
5.89081e-05
5.89082e-05
5.89083e-05
5.89085e-05
5.89086e-05
5.89088e-05
5.8909e-05
5.89091e-05
5.89093e-05
5.89094e-05
5.89095e-05
5.89096e-05
5.89098e-05
5.89099e-05
5.891e-05
5.89101e-05
5.89102e-05
5.89103e-05
5.89104e-05
5.89105e-05
5.89106e-05
5.89106e-05
6.77108e-05
6.77099e-05
6.7709e-05
6.77082e-05
6.77075e-05
6.77068e-05
6.77062e-05
6.77056e-05
6.7705e-05
6.77046e-05
6.77042e-05
6.7704e-05
6.77038e-05
6.77037e-05
6.77037e-05
6.77037e-05
6.77038e-05
6.7704e-05
6.77042e-05
6.77045e-05
6.77047e-05
6.77051e-05
6.77054e-05
6.77058e-05
6.77062e-05
6.77066e-05
6.7707e-05
6.77074e-05
6.77078e-05
6.77082e-05
6.77086e-05
6.7709e-05
6.77094e-05
6.77098e-05
6.77102e-05
6.77106e-05
6.7711e-05
6.77113e-05
6.77116e-05
6.7712e-05
6.77123e-05
6.77126e-05
6.77128e-05
6.77131e-05
6.77133e-05
6.77135e-05
6.77137e-05
6.77139e-05
6.7714e-05
6.77141e-05
6.77142e-05
6.77143e-05
6.77143e-05
6.77143e-05
6.77143e-05
6.77143e-05
6.77141e-05
6.7714e-05
6.77138e-05
6.77136e-05
6.77134e-05
6.77131e-05
6.77129e-05
6.77126e-05
6.77123e-05
6.7712e-05
6.77118e-05
6.77115e-05
6.77112e-05
6.77109e-05
6.77106e-05
6.77104e-05
6.77101e-05
6.77099e-05
6.77097e-05
6.77094e-05
6.77092e-05
6.7709e-05
6.77088e-05
6.77087e-05
6.77085e-05
6.77084e-05
6.77082e-05
6.77081e-05
6.7708e-05
6.77079e-05
6.77078e-05
6.77077e-05
6.77076e-05
6.77075e-05
6.77074e-05
6.77074e-05
6.77073e-05
6.77073e-05
6.77073e-05
6.77073e-05
6.77073e-05
6.77074e-05
6.77075e-05
6.77076e-05
6.77078e-05
6.7708e-05
6.77082e-05
6.77084e-05
6.77086e-05
6.77087e-05
6.77089e-05
6.77091e-05
6.77092e-05
6.77094e-05
6.77095e-05
6.77096e-05
6.77098e-05
6.77099e-05
6.771e-05
6.77101e-05
6.77102e-05
6.77104e-05
6.77103e-05
6.77106e-05
7.68023e-05
7.68011e-05
7.68e-05
7.67992e-05
7.67985e-05
7.67978e-05
7.67972e-05
7.67967e-05
7.67963e-05
7.67959e-05
7.67956e-05
7.67954e-05
7.67952e-05
7.67952e-05
7.67952e-05
7.67953e-05
7.67955e-05
7.67957e-05
7.6796e-05
7.67963e-05
7.67966e-05
7.6797e-05
7.67974e-05
7.67978e-05
7.67982e-05
7.67987e-05
7.67991e-05
7.67996e-05
7.68001e-05
7.68005e-05
7.6801e-05
7.68015e-05
7.68019e-05
7.68024e-05
7.68028e-05
7.68032e-05
7.68036e-05
7.6804e-05
7.68044e-05
7.68048e-05
7.68052e-05
7.68055e-05
7.68058e-05
7.68061e-05
7.68064e-05
7.68066e-05
7.68069e-05
7.6807e-05
7.68072e-05
7.68073e-05
7.68074e-05
7.68075e-05
7.68076e-05
7.68076e-05
7.68075e-05
7.68074e-05
7.68073e-05
7.68071e-05
7.68068e-05
7.68066e-05
7.68063e-05
7.6806e-05
7.68057e-05
7.68054e-05
7.6805e-05
7.68047e-05
7.68044e-05
7.68041e-05
7.68037e-05
7.68034e-05
7.68031e-05
7.68028e-05
7.68026e-05
7.68023e-05
7.6802e-05
7.68018e-05
7.68015e-05
7.68013e-05
7.68011e-05
7.68009e-05
7.68007e-05
7.68005e-05
7.68004e-05
7.68002e-05
7.68001e-05
7.68e-05
7.67998e-05
7.67997e-05
7.67996e-05
7.67995e-05
7.67994e-05
7.67993e-05
7.67993e-05
7.67992e-05
7.67992e-05
7.67993e-05
7.67994e-05
7.67995e-05
7.67996e-05
7.67998e-05
7.68e-05
7.68002e-05
7.68004e-05
7.68007e-05
7.68009e-05
7.68011e-05
7.68013e-05
7.68015e-05
7.68017e-05
7.68019e-05
7.6802e-05
7.68022e-05
7.68023e-05
7.68024e-05
7.68026e-05
7.68027e-05
7.68028e-05
7.6803e-05
7.68029e-05
7.68035e-05
8.61681e-05
8.61663e-05
8.61651e-05
8.61643e-05
8.61636e-05
8.6163e-05
8.61625e-05
8.6162e-05
8.61617e-05
8.61614e-05
8.61612e-05
8.6161e-05
8.6161e-05
8.6161e-05
8.61611e-05
8.61613e-05
8.61615e-05
8.61618e-05
8.61621e-05
8.61624e-05
8.61628e-05
8.61633e-05
8.61637e-05
8.61642e-05
8.61647e-05
8.61652e-05
8.61657e-05
8.61662e-05
8.61667e-05
8.61672e-05
8.61678e-05
8.61683e-05
8.61688e-05
8.61693e-05
8.61698e-05
8.61703e-05
8.61707e-05
8.61712e-05
8.61716e-05
8.6172e-05
8.61725e-05
8.61728e-05
8.61732e-05
8.61736e-05
8.61739e-05
8.61742e-05
8.61744e-05
8.61746e-05
8.61748e-05
8.6175e-05
8.61751e-05
8.61752e-05
8.61752e-05
8.61752e-05
8.61751e-05
8.6175e-05
8.61747e-05
8.61745e-05
8.61742e-05
8.61739e-05
8.61735e-05
8.61732e-05
8.61728e-05
8.61724e-05
8.6172e-05
8.61717e-05
8.61713e-05
8.61709e-05
8.61706e-05
8.61702e-05
8.61699e-05
8.61696e-05
8.61692e-05
8.61689e-05
8.61686e-05
8.61684e-05
8.61681e-05
8.61678e-05
8.61676e-05
8.61674e-05
8.61672e-05
8.6167e-05
8.61668e-05
8.61666e-05
8.61664e-05
8.61663e-05
8.61661e-05
8.6166e-05
8.61659e-05
8.61657e-05
8.61656e-05
8.61655e-05
8.61655e-05
8.61654e-05
8.61655e-05
8.61655e-05
8.61657e-05
8.61658e-05
8.6166e-05
8.61662e-05
8.61665e-05
8.61668e-05
8.6167e-05
8.61673e-05
8.61676e-05
8.61679e-05
8.61681e-05
8.61683e-05
8.61685e-05
8.61687e-05
8.61689e-05
8.61691e-05
8.61692e-05
8.61694e-05
8.61695e-05
8.61696e-05
8.61698e-05
8.61699e-05
8.61698e-05
8.61708e-05
9.57949e-05
9.57926e-05
9.57913e-05
9.57903e-05
9.57897e-05
9.57891e-05
9.57887e-05
9.57884e-05
9.57882e-05
9.5788e-05
9.57879e-05
9.57878e-05
9.57879e-05
9.5788e-05
9.57881e-05
9.57884e-05
9.57887e-05
9.57891e-05
9.57894e-05
9.57899e-05
9.57903e-05
9.57908e-05
9.57913e-05
9.57918e-05
9.57924e-05
9.57929e-05
9.57935e-05
9.57941e-05
9.57946e-05
9.57952e-05
9.57958e-05
9.57964e-05
9.57969e-05
9.57975e-05
9.5798e-05
9.57986e-05
9.57991e-05
9.57996e-05
9.58001e-05
9.58006e-05
9.5801e-05
9.58015e-05
9.58019e-05
9.58023e-05
9.58026e-05
9.5803e-05
9.58033e-05
9.58035e-05
9.58037e-05
9.58039e-05
9.58041e-05
9.58041e-05
9.58041e-05
9.58041e-05
9.58039e-05
9.58037e-05
9.58034e-05
9.5803e-05
9.58027e-05
9.58023e-05
9.58018e-05
9.58014e-05
9.5801e-05
9.58005e-05
9.58001e-05
9.57997e-05
9.57993e-05
9.57989e-05
9.57985e-05
9.57981e-05
9.57977e-05
9.57973e-05
9.5797e-05
9.57966e-05
9.57963e-05
9.5796e-05
9.57957e-05
9.57954e-05
9.57951e-05
9.57949e-05
9.57946e-05
9.57944e-05
9.57942e-05
9.5794e-05
9.57938e-05
9.57936e-05
9.57934e-05
9.57933e-05
9.57931e-05
9.5793e-05
9.57928e-05
9.57927e-05
9.57927e-05
9.57927e-05
9.57928e-05
9.57929e-05
9.5793e-05
9.57933e-05
9.57935e-05
9.57938e-05
9.57941e-05
9.57945e-05
9.57948e-05
9.57951e-05
9.57955e-05
9.57958e-05
9.57961e-05
9.57963e-05
9.57966e-05
9.57968e-05
9.5797e-05
9.57972e-05
9.57973e-05
9.57975e-05
9.57976e-05
9.57978e-05
9.57979e-05
9.57981e-05
9.5798e-05
9.57993e-05
0.000105674
0.000105671
0.000105669
0.000105669
0.000105668
0.000105667
0.000105667
0.000105667
0.000105667
0.000105667
0.000105667
0.000105667
0.000105667
0.000105667
0.000105667
0.000105668
0.000105668
0.000105669
0.000105669
0.00010567
0.00010567
0.000105671
0.000105671
0.000105672
0.000105672
0.000105673
0.000105674
0.000105674
0.000105675
0.000105676
0.000105676
0.000105677
0.000105677
0.000105678
0.000105679
0.000105679
0.00010568
0.00010568
0.000105681
0.000105681
0.000105682
0.000105682
0.000105683
0.000105683
0.000105684
0.000105684
0.000105684
0.000105685
0.000105685
0.000105685
0.000105685
0.000105685
0.000105685
0.000105685
0.000105685
0.000105685
0.000105684
0.000105684
0.000105683
0.000105683
0.000105682
0.000105682
0.000105681
0.000105681
0.00010568
0.00010568
0.000105679
0.000105679
0.000105678
0.000105678
0.000105678
0.000105677
0.000105677
0.000105676
0.000105676
0.000105676
0.000105675
0.000105675
0.000105675
0.000105674
0.000105674
0.000105674
0.000105674
0.000105673
0.000105673
0.000105673
0.000105673
0.000105673
0.000105672
0.000105672
0.000105672
0.000105672
0.000105672
0.000105672
0.000105672
0.000105672
0.000105673
0.000105673
0.000105673
0.000105674
0.000105674
0.000105674
0.000105675
0.000105675
0.000105676
0.000105676
0.000105676
0.000105677
0.000105677
0.000105677
0.000105677
0.000105677
0.000105678
0.000105678
0.000105678
0.000105678
0.000105678
0.000105679
0.000105678
0.00010568
0.000115799
0.000115796
0.000115794
0.000115794
0.000115793
0.000115793
0.000115792
0.000115792
0.000115792
0.000115792
0.000115793
0.000115793
0.000115793
0.000115793
0.000115794
0.000115794
0.000115795
0.000115795
0.000115796
0.000115796
0.000115797
0.000115798
0.000115798
0.000115799
0.0001158
0.0001158
0.000115801
0.000115802
0.000115802
0.000115803
0.000115804
0.000115804
0.000115805
0.000115806
0.000115806
0.000115807
0.000115807
0.000115808
0.000115809
0.000115809
0.00011581
0.00011581
0.000115811
0.000115811
0.000115812
0.000115812
0.000115813
0.000115813
0.000115813
0.000115813
0.000115814
0.000115814
0.000115813
0.000115813
0.000115813
0.000115812
0.000115812
0.000115811
0.000115811
0.00011581
0.000115809
0.000115809
0.000115808