/*--------------------------------*- C++ -*----------------------------------*\
  =========                 |
  \\      /  F ield         | OpenFOAM: The Open Source CFD Toolbox
   \\    /   O peration     | Website:  https://openfoam.org
    \\  /    A nd           | Version:  7
     \\/     M anipulation  |
\*---------------------------------------------------------------------------*/
FoamFile
{
    version     2.0;
    format      ascii;
    class       volVectorField;
    location    "5000";
    object      U;
}
// * * * * * * * * * * * * * * * * * * * * * * * * * * * * * * * * * * * * * //

dimensions      [0 1 -1 0 0 0 0];

internalField   nonuniform List<vector> 
24000
(
(0.00398784 1.41676e-11 1.86761e-16)
(0.00398785 -5.81686e-11 1.8803e-16)
(0.00398786 -1.03223e-10 1.93591e-16)
(0.00398787 -5.71845e-11 1.26356e-16)
(0.00398787 -5.90722e-12 -1.53099e-16)
(0.00398786 3.54998e-11 1.03638e-16)
(0.00398785 6.54372e-11 -1.52777e-16)
(0.00398784 8.45881e-11 1.13945e-16)
(0.00398782 9.47527e-11 1.56716e-16)
(0.00398781 9.72861e-11 -1.26078e-16)
(0.00398779 9.41145e-11 1.36015e-16)
(0.00398777 8.73514e-11 1.41354e-16)
(0.00398776 7.87154e-11 1.44832e-16)
(0.00398775 6.92802e-11 1.20396e-16)
(0.00398774 5.95374e-11 9.46787e-17)
(0.00398773 4.9656e-11 1.41175e-16)
(0.00398772 3.97771e-11 1.22878e-16)
(0.00398771 3.00023e-11 1.22998e-16)
(0.00398771 2.05259e-11 9.60228e-17)
(0.00398771 1.15235e-11 5.29391e-17)
(0.00398771 3.11567e-12 1.05911e-16)
(0.00398771 -4.63092e-12 6.02822e-17)
(0.00398771 -1.17155e-11 9.13346e-17)
(0.00398771 -1.81232e-11 8.03021e-17)
(0.00398771 -2.38618e-11 2.2356e-17)
(0.00398772 -2.89922e-11 1.20964e-16)
(0.00398772 -3.35388e-11 9.71863e-17)
(0.00398773 -3.7578e-11 1.08507e-16)
(0.00398774 -4.11284e-11 7.22905e-17)
(0.00398774 -4.4288e-11 3.21729e-17)
(0.00398775 -4.70674e-11 1.10228e-16)
(0.00398776 -4.96113e-11 8.51743e-17)
(0.00398777 -5.18078e-11 9.95174e-17)
(0.00398778 -5.39327e-11 6.11336e-17)
(0.00398779 -5.55197e-11 6.79144e-18)
(0.0039878 -5.72732e-11 1.10118e-16)
(0.00398781 -5.78008e-11 9.32202e-17)
(0.00398781 -5.90149e-11 9.7953e-17)
(0.00398782 -5.72819e-11 6.00145e-17)
(0.00398783 -5.72076e-11 5.45137e-18)
(0.00398784 -5.11596e-11 4.56691e-17)
(0.00398785 -4.66574e-11 2.57623e-16)
(0.00398786 -3.5458e-11 1.18564e-16)
(0.00398787 -1.71085e-11 1.07773e-16)
(0.00398787 -6.63769e-12 1.1789e-16)
(0.00398787 2.69804e-11 1.29431e-16)
(0.00398787 3.41049e-11 2.7782e-16)
(0.00398787 2.88724e-11 1.49831e-16)
(0.00398787 2.42848e-11 1.36049e-16)
(0.00398786 7.3566e-12 1.39592e-16)
(0.00398786 3.21845e-12 1.45538e-16)
(0.00398786 -4.46642e-12 3.93291e-16)
(0.00398787 -1.02689e-11 1.59712e-16)
(0.00398787 -1.5156e-11 3.33913e-16)
(0.00398787 -1.90825e-11 7.38016e-17)
(0.00398787 -2.17799e-11 1.70945e-16)
(0.00398788 -2.31713e-11 3.16322e-16)
(0.00398788 -2.30859e-11 1.74178e-16)
(0.00398788 -2.15277e-11 3.84064e-16)
(0.00398789 -1.8653e-11 1.03896e-16)
(0.00398789 -1.47172e-11 1.90608e-16)
(0.00398789 -1.00875e-11 3.82517e-16)
(0.00398789 -5.13059e-12 1.89417e-16)
(0.00398789 -1.78692e-13 3.48842e-16)
(0.00398789 4.54071e-12 1.47077e-16)
(0.00398789 8.82762e-12 1.96241e-16)
(0.00398788 1.25752e-11 4.37179e-16)
(0.00398788 1.57341e-11 1.99865e-16)
(0.00398788 1.8302e-11 3.64741e-16)
(0.00398787 2.02662e-11 1.48256e-16)
(0.00398787 2.16707e-11 2.04018e-16)
(0.00398786 2.25545e-11 3.58129e-16)
(0.00398786 2.29767e-11 2.15373e-16)
(0.00398785 2.29864e-11 4.69914e-16)
(0.00398785 2.26387e-11 1.53374e-16)
(0.00398785 2.19832e-11 2.15916e-16)
(0.00398784 2.10442e-11 4.40106e-16)
(0.00398784 1.99072e-11 2.15078e-16)
(0.00398783 1.85073e-11 3.72017e-16)
(0.00398783 1.70262e-11 1.84243e-16)
(0.00398783 1.52421e-11 9.36295e-18)
(0.00398782 1.35346e-11 1.0475e-16)
(0.00398782 1.12347e-11 2.18552e-16)
(0.00398782 9.37328e-12 -4.57324e-17)
(0.00398782 6.15469e-12 1.02379e-16)
(0.00398782 3.84869e-12 5.65252e-18)
(0.00398781 -7.38207e-13 9.81535e-17)
(0.00398781 -3.06996e-12 2.00284e-16)
(0.00398781 -3.29422e-12 -1.07165e-16)
(0.00398781 -4.08535e-12 1.063e-16)
(0.00398781 -2.28587e-12 1.70669e-17)
(0.00398781 -2.9814e-12 1.28783e-16)
(0.00398781 -3.87713e-12 1.88697e-16)
(0.00398781 -4.95232e-12 -1.03897e-16)
(0.00398781 -6.7845e-12 1.08242e-16)
(0.00398781 -7.88227e-12 -2.16895e-17)
(0.00398782 -1.0304e-11 1.36593e-16)
(0.00398782 -1.03373e-11 1.92395e-16)
(0.00398782 -1.29428e-11 -1.97696e-17)
(0.00398782 -1.00261e-11 1.43102e-16)
(0.00398782 -1.01417e-11 -8.02054e-18)
(0.00398782 -2.99139e-12 6.7e-17)
(0.00398782 7.91148e-12 1.77931e-16)
(0.00398782 1.5284e-11 -8.33276e-18)
(0.00398782 3.7685e-11 1.28268e-16)
(0.00398782 4.37299e-11 -1.22318e-17)
(0.00398781 3.61348e-11 7.92904e-17)
(0.00398781 2.64109e-11 1.85783e-16)
(0.00398781 1.36506e-11 1.14256e-17)
(0.00398781 1.53526e-12 1.48199e-16)
(0.00398781 -9.40459e-12 -7.57864e-17)
(0.00398781 -1.85932e-11 -9.09769e-17)
(0.00398781 -2.53683e-11 1.76951e-16)
(0.00398782 -3.07528e-11 -7.99786e-17)
(0.00398782 -2.98201e-11 7.81811e-17)
(0.00398783 -3.53985e-11 -2.01123e-17)
(0.00398783 -1.21683e-11 -2.21356e-17)
(0.00398784 -3.73193e-11 1.78506e-16)
(0.00398784 1.15403e-12 -5.52912e-19)
(0.00398784 6.01351e-11 6.5961e-17)
(0.012037 -5.59002e-10 5.67786e-16)
(0.0120371 -1.13526e-09 5.6734e-16)
(0.0120371 -1.20881e-09 5.85355e-16)
(0.0120371 -5.45012e-10 3.7461e-16)
(0.0120371 2.49912e-10 -2.53952e-16)
(0.0120371 8.89954e-10 3.26718e-16)
(0.0120371 1.34308e-09 -7.307e-17)
(0.012037 1.61952e-09 3.56498e-16)
(0.012037 1.74734e-09 4.74334e-16)
(0.0120369 1.75652e-09 8.15362e-18)
(0.0120369 1.67947e-09 4.20262e-16)
(0.0120368 1.54751e-09 4.25852e-16)
(0.0120368 1.38598e-09 4.38447e-16)
(0.0120368 1.21161e-09 3.63454e-16)
(0.0120367 1.03334e-09 2.82934e-16)
(0.0120367 8.55014e-10 4.331e-16)
(0.0120367 6.78757e-10 3.73176e-16)
(0.0120367 5.06541e-10 3.73072e-16)
(0.0120366 3.40729e-10 2.90316e-16)
(0.0120366 1.83706e-10 1.67354e-16)
(0.0120366 3.71458e-11 3.26219e-16)
(0.0120366 -9.79025e-11 1.77655e-16)
(0.0120366 -2.20928e-10 2.76143e-16)
(0.0120367 -3.31856e-10 2.4256e-16)
(0.0120367 -4.31111e-10 6.50805e-17)
(0.0120367 -5.19378e-10 3.62656e-16)
(0.0120367 -5.97352e-10 2.96117e-16)
(0.0120367 -6.65982e-10 3.29215e-16)
(0.0120367 -7.2617e-10 2.04771e-16)
(0.0120368 -7.79051e-10 9.91331e-17)
(0.0120368 -8.25586e-10 3.39891e-16)
(0.0120368 -8.6685e-10 2.53924e-16)
(0.0120368 -9.03298e-10 3.01272e-16)
(0.0120368 -9.35847e-10 1.76355e-16)
(0.0120369 -9.63442e-10 1.42114e-17)
(0.0120369 -9.87262e-10 3.2671e-16)
(0.0120369 -1.00276e-09 2.81241e-16)
(0.012037 -1.01374e-09 2.99474e-16)
(0.012037 -1.00594e-09 1.79192e-16)
(0.012037 -9.92779e-10 1.95548e-17)
(0.012037 -9.36541e-10 1.39431e-16)
(0.0120371 -8.69215e-10 3.56833e-16)
(0.0120371 -7.30328e-10 3.52615e-16)
(0.0120371 -5.31483e-10 3.26703e-16)
(0.0120371 -3.2767e-10 3.55636e-16)
(0.0120371 2.14481e-11 3.90927e-16)
(0.0120371 2.08875e-10 4.71229e-16)
(0.0120371 2.35977e-10 4.50379e-16)
(0.0120371 1.95804e-10 4.14215e-16)
(0.0120371 5.94083e-11 4.23376e-16)
(0.0120371 -2.36842e-11 4.41074e-16)
(0.0120371 -1.06178e-10 5.43447e-16)
(0.0120371 -1.81407e-10 4.75986e-16)
(0.0120371 -2.43208e-10 5.81622e-16)
(0.0120371 -2.91194e-10 1.83666e-16)
(0.0120372 -3.20994e-10 5.21181e-16)
(0.0120372 -3.29787e-10 5.77375e-16)
(0.0120372 -3.15803e-10 5.22035e-16)
(0.0120372 -2.79339e-10 5.89675e-16)
(0.0120372 -2.23116e-10 4.29636e-16)
(0.0120372 -1.51702e-10 5.78301e-16)
(0.0120372 -7.0802e-11 6.00427e-16)
(0.0120372 1.37648e-11 5.68189e-16)
(0.0120372 9.70692e-11 6.60239e-16)
(0.0120372 1.75152e-10 4.96885e-16)
(0.0120372 2.45373e-10 6.01126e-16)
(0.0120372 3.06041e-10 6.75684e-16)
(0.0120372 3.5642e-10 5.98972e-16)
(0.0120371 3.96432e-10 6.85859e-16)
(0.0120371 4.26447e-10 3.12352e-16)
(0.0120371 4.47108e-10 6.22154e-16)
(0.0120371 4.59205e-10 6.92514e-16)
(0.0120371 4.6366e-10 6.45086e-16)
(0.0120371 4.61366e-10 7.50719e-16)
(0.0120371 4.53235e-10 3.86754e-16)
(0.0120371 4.40158e-10 6.58971e-16)
(0.012037 4.22798e-10 7.08194e-16)
(0.012037 4.01966e-10 6.43252e-16)
(0.012037 3.78046e-10 7.36865e-16)
(0.012037 3.51718e-10 4.8422e-16)
(0.012037 3.22833e-10 4.84426e-16)
(0.012037 2.92352e-10 1.06587e-16)
(0.012037 2.58436e-10 6.59679e-16)
(0.012037 2.23757e-10 4.52955e-16)
(0.012037 1.81513e-10 4.42423e-16)
(0.012037 1.3891e-10 4.17668e-16)
(0.012037 8.17071e-11 3.0843e-16)
(0.012037 4.00774e-11 6.0729e-16)
(0.012037 2.00153e-11 3.48896e-16)
(0.012037 7.92873e-12 2.85833e-16)
(0.012037 1.4483e-11 4.08559e-16)
(0.012037 8.65214e-12 1.13488e-16)
(0.012037 -4.99906e-12 5.77097e-16)
(0.012037 -2.40843e-11 3.13647e-16)
(0.012037 -5.01734e-11 4.54035e-16)
(0.012037 -7.83891e-11 3.54043e-16)
(0.012037 -1.1352e-10 4.79073e-16)
(0.012037 -1.41959e-10 5.84496e-16)
(0.012037 -1.77789e-10 3.50037e-16)
(0.012037 -1.82911e-10 2.69614e-16)
(0.012037 -1.8983e-10 3.86366e-16)
(0.012037 -1.33979e-10 3.61456e-16)
(0.012037 -3.50267e-11 5.39584e-16)
(0.012037 7.9177e-11 3.57862e-16)
(0.012037 2.97914e-10 2.51854e-16)
(0.012037 4.17846e-10 3.53997e-16)
(0.012037 3.87227e-10 3.32326e-16)
(0.012037 2.87427e-10 5.61583e-16)
(0.0120369 1.44191e-10 3.77923e-16)
(0.0120369 -9.56718e-12 4.64062e-16)
(0.0120369 -1.55694e-10 3.81322e-16)
(0.012037 -2.81664e-10 3.15254e-16)
(0.012037 -3.85044e-10 5.41772e-16)
(0.012037 -4.51997e-10 3.62396e-16)
(0.012037 -4.86946e-10 1.94549e-16)
(0.012037 -4.9066e-10 3.50413e-16)
(0.012037 -3.49811e-10 3.10287e-16)
(0.012037 -4.86186e-10 5.44948e-16)
(0.012037 -2.00064e-11 3.98701e-16)
(0.012037 2.09928e-10 1.96634e-16)
(0.0202498 -2.29088e-09 9.96868e-16)
(0.0202498 -3.5237e-09 9.46064e-16)
(0.0202499 -3.24375e-09 9.83985e-16)
(0.0202499 -1.22699e-09 5.85706e-16)
(0.0202499 1.07212e-09 3.44344e-16)
(0.0202499 2.90092e-09 6.00539e-16)
(0.0202498 4.16795e-09 3.64264e-16)
(0.0202497 4.92147e-09 6.57625e-16)
(0.0202497 5.25012e-09 7.98122e-16)
(0.0202496 5.24452e-09 4.76434e-16)
(0.0202495 4.99651e-09 7.58628e-16)
(0.0202494 4.5933e-09 7.08238e-16)
(0.0202493 4.10572e-09 7.39556e-16)
(0.0202493 3.58173e-09 6.04779e-16)
(0.0202492 3.04758e-09 4.72743e-16)
(0.0202492 2.51525e-09 7.58237e-16)
(0.0202492 1.9909e-09 6.27117e-16)
(0.0202491 1.48006e-09 6.31391e-16)
(0.0202491 9.89224e-10 4.81597e-16)
(0.0202491 5.24875e-10 3.02024e-16)
(0.0202491 9.17331e-11 5.88379e-16)
(0.0202491 -3.0737e-10 2.71914e-16)
(0.0202491 -6.70587e-10 4.72483e-16)
(0.0202491 -9.97923e-10 3.93578e-16)
(0.0202491 -1.29061e-09 9.84367e-17)
(0.0202492 -1.55055e-09 6.21386e-16)
(0.0202492 -1.78001e-09 5.04872e-16)
(0.0202492 -1.98158e-09 5.61635e-16)
(0.0202492 -2.15811e-09 3.05733e-16)
(0.0202493 -2.31269e-09 1.69553e-16)
(0.0202493 -2.44844e-09 6.14578e-16)
(0.0202494 -2.56825e-09 4.06376e-16)
(0.0202494 -2.67396e-09 5.10724e-16)
(0.0202494 -2.76751e-09 2.65753e-16)
(0.0202495 -2.84736e-09 2.91854e-18)
(0.0202495 -2.91501e-09 5.50175e-16)
(0.0202496 -2.9615e-09 4.51269e-16)
(0.0202496 -2.99186e-09 5.12653e-16)
(0.0202497 -2.97683e-09 2.77397e-16)
(0.0202497 -2.93908e-09 4.43637e-17)
(0.0202498 -2.79661e-09 2.52425e-16)
(0.0202498 -2.61199e-09 4.24565e-16)
(0.0202499 -2.24354e-09 5.88099e-16)
(0.0202499 -1.71798e-09 5.49867e-16)
(0.0202499 -1.1421e-09 6.00013e-16)
(0.0202499 -2.24943e-10 6.59383e-16)
(0.0202499 3.39985e-10 6.60391e-16)
(0.0202499 4.8766e-10 7.5905e-16)
(0.0202499 4.17354e-10 7.01397e-16)
(0.0202499 9.83736e-11 7.18113e-16)
(0.0202499 -1.27509e-10 7.47038e-16)
(0.0202499 -3.43624e-10 7.20855e-16)
(0.0202499 -5.42779e-10 7.91902e-16)
(0.0202499 -7.07393e-10 7.97097e-16)
(0.02025 -8.3261e-10 1.08383e-15)
(0.02025 -9.06377e-10 9.11344e-16)
(0.02025 -9.19882e-10 8.19739e-16)
(0.02025 -8.68145e-10 8.74302e-16)
(0.02025 -7.52424e-10 8.5021e-16)
(0.02025 -5.80846e-10 1.19501e-15)
(0.02025 -3.66876e-10 9.99997e-16)
(0.02025 -1.27052e-10 8.82325e-16)
(0.02025 1.21914e-10 9.52363e-16)
(0.02025 3.65856e-10 9.51088e-16)
(0.02025 5.93598e-10 1.12305e-15)
(0.02025 7.9747e-10 1.03978e-15)
(0.02025 9.72921e-10 9.55046e-16)
(0.02025 1.11795e-09 1.00492e-15)
(0.0202499 1.23246e-09 9.87089e-16)
(0.0202499 1.31758e-09 1.30778e-15)
(0.0202499 1.37532e-09 1.06977e-15)
(0.0202499 1.40813e-09 1.00627e-15)
(0.0202499 1.41871e-09 1.07793e-15)
(0.0202498 1.40974e-09 1.05701e-15)
(0.0202498 1.38394e-09 1.36921e-15)
(0.0202498 1.34384e-09 1.1378e-15)
(0.0202498 1.29157e-09 1.02087e-15)
(0.0202497 1.22927e-09 1.07501e-15)
(0.0202497 1.15835e-09 1.08056e-15)
(0.0202497 1.08048e-09 1.32284e-15)
(0.0202497 9.95901e-10 1.02619e-15)
(0.0202497 9.06296e-10 1.25956e-15)
(0.0202497 8.08584e-10 1.13338e-15)
(0.0202496 7.07233e-10 8.94119e-16)
(0.0202496 5.88331e-10 1.18891e-15)
(0.0202496 4.65054e-10 8.67732e-16)
(0.0202496 3.07569e-10 1.03816e-15)
(0.0202496 1.85293e-10 1.04977e-15)
(0.0202496 1.18117e-10 7.75293e-16)
(0.0202496 7.88181e-11 1.16972e-15)
(0.0202496 8.61277e-11 8.27264e-16)
(0.0202496 6.93113e-11 1.21306e-15)
(0.0202496 3.07559e-11 9.96516e-16)
(0.0202496 -2.48844e-11 6.94612e-16)
(0.0202496 -1.00333e-10 1.13092e-15)
(0.0202496 -1.86888e-10 7.77844e-16)
(0.0202496 -2.91805e-10 1.22493e-15)
(0.0202496 -3.8784e-10 9.99833e-16)
(0.0202496 -4.98312e-10 7.35179e-16)
(0.0202496 -5.40849e-10 1.21103e-15)
(0.0202496 -5.76006e-10 8.14789e-16)
(0.0202496 -4.55588e-10 1.06041e-15)
(0.0202497 -2.16928e-10 9.40446e-16)
(0.0202497 8.62452e-11 7.28049e-16)
(0.0202497 6.42576e-10 1.00563e-15)
(0.0202496 9.88951e-10 7.54751e-16)
(0.0202496 9.55783e-10 9.26841e-16)
(0.0202496 7.14326e-10 9.7122e-16)
(0.0202496 3.45078e-10 7.34213e-16)
(0.0202496 -6.52022e-11 1.04599e-15)
(0.0202496 -4.62835e-10 7.93427e-16)
(0.0202496 -8.10097e-10 6.76265e-16)
(0.0202496 -1.09878e-09 9.35383e-16)
(0.0202497 -1.28746e-09 7.58025e-16)
(0.0202497 -1.39793e-09 9.50432e-16)
(0.0202497 -1.39772e-09 7.66783e-16)
(0.0202497 -1.07339e-09 6.66534e-16)
(0.0202497 -1.3622e-09 9.38871e-16)
(0.0202498 -1.14012e-10 8.06282e-16)
(0.0202497 6.93957e-11 9.44801e-16)
(0.0285936 -5.75354e-09 1.42641e-15)
(0.0285937 -7.40127e-09 1.32553e-15)
(0.0285938 -6.00555e-09 1.38454e-15)
(0.0285938 -1.77689e-09 6.57985e-16)
(0.0285938 2.78022e-09 8.07745e-16)
(0.0285937 6.3478e-09 9.19533e-16)
(0.0285936 8.7662e-09 8.34345e-16)
(0.0285935 1.01621e-08 1.02603e-15)
(0.0285934 1.07287e-08 1.144e-15)
(0.0285933 1.06529e-08 9.66615e-16)
(0.0285932 1.01133e-08 1.15265e-15)
(0.0285931 9.27556e-09 9.78341e-16)
(0.028593 8.27484e-09 1.0501e-15)
(0.0285929 7.20432e-09 8.25588e-16)
(0.0285928 6.11627e-09 7.13267e-16)
(0.0285928 5.03504e-09 1.03138e-15)
(0.0285927 3.97313e-09 8.68196e-16)
(0.0285927 2.94117e-09 8.99678e-16)
(0.0285926 1.95136e-09 6.51047e-16)
(0.0285926 1.01601e-09 3.18198e-16)
(0.0285926 1.43883e-10 9.99916e-16)
(0.0285926 -6.59282e-10 4.50879e-16)
(0.0285926 -1.3898e-09 7.00518e-16)
(0.0285927 -2.04777e-09 6.16843e-16)
(0.0285927 -2.63562e-09 2.36246e-16)
(0.0285927 -3.15728e-09 9.02854e-16)
(0.0285928 -3.61733e-09 5.67481e-16)
(0.0285928 -4.0209e-09 8.18399e-16)
(0.0285928 -4.37388e-09 5.07986e-16)
(0.0285929 -4.68233e-09 2.48926e-16)
(0.0285929 -4.95252e-09 8.82282e-16)
(0.028593 -5.19024e-09 4.68249e-16)
(0.0285931 -5.3995e-09 7.34161e-16)
(0.0285931 -5.58365e-09 2.87698e-16)
(0.0285932 -5.74118e-09 -7.75435e-17)
(0.0285932 -5.8733e-09 8.00009e-16)
(0.0285933 -5.96662e-09 6.69288e-16)
(0.0285934 -6.02573e-09 7.42511e-16)
(0.0285934 -6.00477e-09 2.95413e-16)
(0.0285935 -5.93292e-09 -5.79213e-17)
(0.0285936 -5.67742e-09 4.18397e-16)
(0.0285936 -5.32947e-09 5.08832e-16)
(0.0285937 -4.64933e-09 8.49552e-16)
(0.0285937 -3.67814e-09 7.7105e-16)
(0.0285938 -2.57213e-09 8.56232e-16)
(0.0285938 -8.80384e-10 9.34085e-16)
(0.0285938 2.53592e-10 8.55699e-16)
(0.0285938 6.399e-10 1.09681e-15)
(0.0285938 5.78173e-10 9.91233e-16)
(0.0285938 5.54659e-11 1.02876e-15)
(0.0285938 -3.55682e-10 1.06294e-15)
(0.0285938 -7.48143e-10 8.93854e-16)
(0.0285938 -1.11088e-09 1.12242e-15)
(0.0285938 -1.41175e-09 1.01616e-15)
(0.0285939 -1.63596e-09 1.23793e-15)
(0.0285939 -1.75951e-09 1.28727e-15)
(0.0285939 -1.76439e-09 1.05241e-15)
(0.0285939 -1.64124e-09 1.24716e-15)
(0.0285939 -1.39329e-09 1.09935e-15)
(0.0285939 -1.03729e-09 1.42214e-15)
(0.0285939 -6.00396e-10 1.401e-15)
(0.0285939 -1.15405e-10 1.14978e-15)
(0.0285939 3.84885e-10 1.35529e-15)
(0.0285939 8.72541e-10 1.24247e-15)
(0.0285939 1.32591e-09 1.47862e-15)
(0.0285939 1.73012e-09 1.45204e-15)
(0.0285939 2.07654e-09 1.25391e-15)
(0.0285939 2.36149e-09 1.43495e-15)
(0.0285938 2.58513e-09 1.30572e-15)
(0.0285938 2.75004e-09 1.53446e-15)
(0.0285938 2.86025e-09 1.50263e-15)
(0.0285937 2.92091e-09 1.30901e-15)
(0.0285937 2.93746e-09 1.5262e-15)
(0.0285937 2.91539e-09 1.37889e-15)
(0.0285936 2.86004e-09 1.58481e-15)
(0.0285936 2.7765e-09 1.58849e-15)
(0.0285936 2.66918e-09 1.33978e-15)
(0.0285935 2.54223e-09 1.524e-15)
(0.0285935 2.39872e-09 1.42521e-15)
(0.0285935 2.24157e-09 1.79287e-15)
(0.0285935 2.07201e-09 1.51077e-15)
(0.0285934 1.89252e-09 1.52636e-15)
(0.0285934 1.69893e-09 1.59212e-15)
(0.0285934 1.49708e-09 1.32761e-15)
(0.0285934 1.26557e-09 1.42409e-15)
(0.0285934 1.02251e-09 1.27485e-15)
(0.0285934 7.2123e-10 1.45707e-15)
(0.0285933 4.77588e-10 1.45461e-15)
(0.0285933 3.32486e-10 1.18261e-15)
(0.0285933 2.46626e-10 1.36431e-15)
(0.0285933 2.45123e-10 1.19883e-15)
(0.0285933 2.09559e-10 1.40201e-15)
(0.0285933 1.34004e-10 1.39483e-15)
(0.0285933 2.29375e-11 1.07464e-15)
(0.0285933 -1.2781e-10 1.32921e-15)
(0.0285933 -3.06616e-10 1.1414e-15)
(0.0285933 -5.22177e-10 1.39381e-15)
(0.0285933 -7.32388e-10 1.37747e-15)
(0.0285933 -9.6628e-10 1.09926e-15)
(0.0285933 -1.09012e-09 1.34841e-15)
(0.0285934 -1.18801e-09 1.21449e-15)
(0.0285934 -1.01085e-09 1.28867e-15)
(0.0285934 -6.09243e-10 1.31984e-15)
(0.0285934 -5.94451e-11 1.08419e-15)
(0.0285934 9.35088e-10 1.33354e-15)
(0.0285934 1.60748e-09 1.11748e-15)
(0.0285934 1.6148e-09 1.30194e-15)
(0.0285934 1.21075e-09 1.3771e-15)
(0.0285934 5.50473e-10 1.08075e-15)
(0.0285934 -2.04893e-10 1.34863e-15)
(0.0285934 -9.49452e-10 1.12771e-15)
(0.0285934 -1.60727e-09 1.04668e-15)
(0.0285934 -2.1585e-09 1.37761e-15)
(0.0285934 -2.52403e-09 1.14218e-15)
(0.0285935 -2.74776e-09 1.34313e-15)
(0.0285935 -2.74299e-09 1.13363e-15)
(0.0285935 -2.19822e-09 1.0374e-15)
(0.0285935 -2.64996e-09 1.37918e-15)
(0.0285936 -2.80225e-10 1.18918e-15)
(0.0285935 -7.4692e-10 1.3825e-15)
(0.0369429 -1.15448e-08 1.87001e-15)
(0.036943 -1.27722e-08 1.6863e-15)
(0.0369431 -9.10299e-09 1.77119e-15)
(0.0369432 -1.74844e-09 1.40923e-15)
(0.0369431 5.72376e-09 1.34615e-15)
(0.036943 1.14675e-08 1.38075e-15)
(0.0369429 1.52736e-08 1.31181e-15)
(0.0369428 1.73933e-08 1.44806e-15)
(0.0369426 1.81734e-08 1.37131e-15)
(0.0369425 1.79338e-08 1.44145e-15)
(0.0369423 1.69631e-08 1.5837e-15)
(0.0369422 1.55208e-08 1.20491e-15)
(0.0369421 1.38195e-08 1.37737e-15)
(0.036942 1.20081e-08 9.87182e-16)
(0.0369419 1.01721e-08 9.66303e-16)
(0.0369418 8.35233e-09 1.39969e-15)
(0.0369417 6.56942e-09 1.03813e-15)
(0.0369417 4.84052e-09 1.18559e-15)
(0.0369417 3.18488e-09 7.64139e-16)
(0.0369417 1.62185e-09 7.06954e-16)
(0.0369417 1.65289e-10 1.19634e-15)
(0.0369417 -1.17548e-09 8.69308e-16)
(0.0369417 -2.39443e-09 1.02462e-15)
(0.0369417 -3.49181e-09 1.13097e-15)
(0.0369417 -4.47186e-09 7.2992e-16)
(0.0369418 -5.341e-09 1.33243e-15)
(0.0369418 -6.10689e-09 1.26572e-15)
(0.0369419 -6.77811e-09 1.11089e-15)
(0.0369419 -7.36444e-09 9.56146e-16)
(0.036942 -7.876e-09 7.26681e-16)
(0.0369421 -8.32319e-09 1.30391e-15)
(0.0369421 -8.71554e-09 1.10492e-15)
(0.0369422 -9.06e-09 1.00482e-15)
(0.0369423 -9.36197e-09 8.88681e-16)
(0.0369423 -9.62026e-09 5.26758e-16)
(0.0369424 -9.83581e-09 1.18041e-15)
(0.0369425 -9.99052e-09 1.15244e-15)
(0.0369426 -1.00878e-08 1.01447e-15)
(0.0369427 -1.00641e-08 9.09722e-16)
(0.0369428 -9.95287e-09 5.61351e-16)
(0.0369428 -9.56757e-09 6.78272e-16)
(0.0369429 -9.02346e-09 9.9605e-16)
(0.036943 -7.97541e-09 1.18552e-15)
(0.036943 -6.47306e-09 9.81168e-16)
(0.0369431 -4.71704e-09 1.1371e-15)
(0.0369431 -2.09728e-09 1.20895e-15)
(0.0369432 -2.28966e-10 1.4089e-15)
(0.0369432 5.2991e-10 1.50259e-15)
(0.0369432 5.5049e-10 1.26549e-15)
(0.0369432 -1.53322e-10 1.36274e-15)
(0.0369432 -7.5883e-10 1.38034e-15)
(0.0369432 -1.34756e-09 1.412e-15)
(0.0369432 -1.89306e-09 1.50109e-15)
(0.0369432 -2.34577e-09 1.56046e-15)
(0.0369432 -2.67455e-09 1.54503e-15)
(0.0369433 -2.83922e-09 1.62552e-15)
(0.0369433 -2.80954e-09 1.60837e-15)
(0.0369433 -2.5711e-09 1.67295e-15)
(0.0369433 -2.1308e-09 1.66856e-15)
(0.0369433 -1.51748e-09 1.83727e-15)
(0.0369433 -7.76501e-10 1.77258e-15)
(0.0369433 3.7844e-11 1.72999e-15)
(0.0369433 8.72111e-10 1.80696e-15)
(0.0369433 1.681e-09 1.85718e-15)
(0.0369433 2.42954e-09 1.79116e-15)
(0.0369433 3.09406e-09 1.83504e-15)
(0.0369432 3.66106e-09 1.88649e-15)
(0.0369432 4.12517e-09 1.91943e-15)
(0.0369432 4.48713e-09 1.97739e-15)
(0.0369431 4.75155e-09 2.01579e-15)
(0.0369431 4.92562e-09 1.91672e-15)
(0.036943 5.01792e-09 1.92577e-15)
(0.036943 5.03769e-09 2.01685e-15)
(0.0369429 4.99407e-09 2.03479e-15)
(0.0369429 4.89595e-09 1.9491e-15)
(0.0369429 4.75178e-09 1.99691e-15)
(0.0369428 4.56897e-09 1.99994e-15)
(0.0369428 4.35425e-09 2.02074e-15)
(0.0369428 4.11294e-09 2.09791e-15)
(0.0369427 3.84975e-09 2.05629e-15)
(0.0369427 3.56718e-09 2.30415e-15)
(0.0369427 3.26864e-09 1.8982e-15)
(0.0369426 2.94914e-09 2.03184e-15)
(0.0369426 2.61571e-09 2.07751e-15)
(0.0369426 2.2391e-09 1.81049e-15)
(0.0369426 1.84159e-09 2.02817e-15)
(0.0369426 1.3594e-09 1.85849e-15)
(0.0369425 9.57573e-10 1.83603e-15)
(0.0369425 7.03161e-10 1.90358e-15)
(0.0369425 5.48347e-10 1.56682e-15)
(0.0369425 5.23743e-10 1.88065e-15)
(0.0369425 4.59063e-10 1.65587e-15)
(0.0369425 3.3426e-10 1.7879e-15)
(0.0369425 1.49321e-10 1.76903e-15)
(0.0369425 -1.02995e-10 1.63479e-15)
(0.0369425 -4.09315e-10 1.84725e-15)
(0.0369425 -7.79659e-10 1.74578e-15)
(0.0369425 -1.15578e-09 1.73299e-15)
(0.0369425 -1.56914e-09 1.7771e-15)
(0.0369425 -1.8298e-09 1.70601e-15)
(0.0369425 -2.03873e-09 1.95094e-15)
(0.0369426 -1.83651e-09 1.57434e-15)
(0.0369426 -1.27879e-09 1.70477e-15)
(0.0369426 -4.57818e-10 1.75439e-15)
(0.0369426 1.03198e-09 1.53425e-15)
(0.0369426 2.10527e-09 1.80417e-15)
(0.0369426 2.21007e-09 1.74025e-15)
(0.0369426 1.65639e-09 1.78093e-15)
(0.0369426 6.79016e-10 1.74326e-15)
(0.0369426 -4.72759e-10 1.51419e-15)
(0.0369426 -1.62775e-09 1.75672e-15)
(0.0369426 -2.66067e-09 1.78378e-15)
(0.0369426 -3.53218e-09 1.89102e-15)
(0.0369427 -4.12017e-09 1.835e-15)
(0.0369427 -4.4869e-09 1.74321e-15)
(0.0369427 -4.48356e-09 1.80252e-15)
(0.0369428 -3.70173e-09 1.77841e-15)
(0.0369428 -4.31442e-09 1.88824e-15)
(0.0369428 -4.89941e-10 1.88627e-15)
(0.0369428 -2.68165e-09 1.64649e-15)
(0.0450291 -1.97705e-08 2.32983e-15)
(0.0450292 -1.92782e-08 1.88838e-15)
(0.0450293 -1.19895e-08 2.15459e-15)
(0.0450293 -7.45328e-10 1.95633e-15)
(0.0450293 1.00555e-08 1.91129e-15)
(0.0450292 1.82189e-08 1.82538e-15)
(0.045029 2.35272e-08 1.81527e-15)
(0.0450288 2.63808e-08 1.89302e-15)
(0.0450287 2.73133e-08 1.93888e-15)
(0.0450285 2.68065e-08 1.90076e-15)
(0.0450283 2.52753e-08 2.0188e-15)
(0.0450282 2.30816e-08 1.67698e-15)
(0.0450281 2.0522e-08 1.74554e-15)
(0.0450279 1.78068e-08 1.36966e-15)
(0.0450278 1.50595e-08 1.30739e-15)
(0.0450278 1.23404e-08 1.74883e-15)
(0.0450277 9.68059e-09 1.43592e-15)
(0.0450276 7.1049e-09 1.50641e-15)
(0.0450276 4.64073e-09 1.10702e-15)
(0.0450276 2.31566e-09 1.0273e-15)
(0.0450276 1.49665e-10 1.25894e-15)
(0.0450276 -1.84385e-09 1.28966e-15)
(0.0450276 -3.65648e-09 1.39455e-15)
(0.0450276 -5.28861e-09 1.3743e-15)
(0.0450277 -6.74629e-09 1.25755e-15)
(0.0450277 -8.03902e-09 1.51732e-15)
(0.0450278 -9.17797e-09 1.39866e-15)
(0.0450278 -1.01759e-08 1.37797e-15)
(0.0450279 -1.10471e-08 1.10331e-15)
(0.045028 -1.18067e-08 1.14826e-15)
(0.0450281 -1.24697e-08 1.44638e-15)
(0.0450281 -1.30505e-08 1.20635e-15)
(0.0450282 -1.35594e-08 1.23765e-15)
(0.0450283 -1.40045e-08 1.059e-15)
(0.0450284 -1.43851e-08 9.98869e-16)
(0.0450285 -1.47022e-08 1.32837e-15)
(0.0450286 -1.49328e-08 1.28955e-15)
(0.0450287 -1.50788e-08 1.25288e-15)
(0.0450288 -1.50586e-08 1.09194e-15)
(0.0450289 -1.49084e-08 9.8723e-16)
(0.045029 -1.4387e-08 1.00919e-15)
(0.045029 -1.36287e-08 1.36379e-15)
(0.0450291 -1.2181e-08 1.5528e-15)
(0.0450292 -1.00955e-08 1.41758e-15)
(0.0450293 -7.60951e-09 1.47883e-15)
(0.0450293 -3.9589e-09 1.48551e-15)
(0.0450293 -1.22584e-09 1.80863e-15)
(0.0450294 3.75724e-11 1.91002e-15)
(0.0450294 2.37284e-10 2.03379e-15)
(0.0450294 -5.89407e-10 1.74277e-15)
(0.0450294 -1.36618e-09 1.69111e-15)
(0.0450294 -2.14654e-09 1.85248e-15)
(0.0450294 -2.87392e-09 1.89689e-15)
(0.0450294 -3.47651e-09 2.20527e-15)
(0.0450295 -3.90047e-09 2.10196e-15)
(0.0450295 -4.0852e-09 1.96989e-15)
(0.0450295 -3.98616e-09 2.09408e-15)
(0.0450295 -3.58394e-09 2.10899e-15)
(0.0450295 -2.89124e-09 2.35323e-15)
(0.0450295 -1.95235e-09 2.28518e-15)
(0.0450296 -8.34987e-10 2.11554e-15)
(0.0450295 3.81474e-10 2.24542e-15)
(0.0450295 1.61942e-09 2.26796e-15)
(0.0450295 2.81336e-09 2.41631e-15)
(0.0450295 3.91335e-09 2.40002e-15)
(0.0450295 4.88596e-09 2.22192e-15)
(0.0450294 5.7125e-09 2.55452e-15)
(0.0450294 6.38609e-09 2.40315e-15)
(0.0450293 6.90848e-09 2.53073e-15)
(0.0450293 7.28706e-09 2.5369e-15)
(0.0450292 7.53269e-09 2.31096e-15)
(0.0450292 7.65834e-09 2.46993e-15)
(0.0450291 7.67769e-09 2.50328e-15)
(0.0450291 7.60431e-09 2.61656e-15)
(0.045029 7.4514e-09 2.56824e-15)
(0.045029 7.23129e-09 2.41436e-15)
(0.0450289 6.95506e-09 2.82784e-15)
(0.0450289 6.6325e-09 2.52734e-15)
(0.0450289 6.27166e-09 2.83597e-15)
(0.0450288 5.87941e-09 2.68347e-15)
(0.0450288 5.45975e-09 3.20012e-15)
(0.0450288 5.0174e-09 2.35506e-15)
(0.0450287 4.54646e-09 2.50205e-15)
(0.0450287 4.05532e-09 2.79778e-15)
(0.0450287 3.50679e-09 2.13362e-15)
(0.0450286 2.9265e-09 2.83371e-15)
(0.0450286 2.23384e-09 2.12365e-15)
(0.0450286 1.6432e-09 2.25941e-15)
(0.0450286 1.25054e-09 2.59226e-15)
(0.0450286 1.00383e-09 2.13513e-15)
(0.0450286 9.3903e-10 2.72456e-15)
(0.0450286 8.32589e-10 2.06404e-15)
(0.0450286 6.45678e-10 2.22368e-15)
(0.0450286 3.68669e-10 2.45271e-15)
(0.0450286 -1.12222e-11 1.86873e-15)
(0.0450286 -4.80399e-10 2.55913e-15)
(0.0450286 -1.05043e-09 2.14296e-15)
(0.0450286 -1.64564e-09 2.12923e-15)
(0.0450286 -2.29687e-09 2.41598e-15)
(0.0450286 -2.75495e-09 2.08642e-15)
(0.0450286 -3.13051e-09 2.63161e-15)
(0.0450286 -2.94945e-09 2.15534e-15)
(0.0450287 -2.26388e-09 2.15011e-15)
(0.0450287 -1.17367e-09 2.4076e-15)
(0.0450287 8.34433e-10 2.07578e-15)
(0.0450287 2.35966e-09 2.63197e-15)
(0.0450287 2.62314e-09 2.15322e-15)
(0.0450287 1.95981e-09 2.20232e-15)
(0.0450287 6.75863e-10 2.37243e-15)
(0.0450287 -8.86016e-10 2.03457e-15)
(0.0450287 -2.48118e-09 2.39517e-15)
(0.0450287 -3.92675e-09 2.4842e-15)
(0.0450287 -5.1558e-09 2.42012e-15)
(0.0450288 -6.0003e-09 2.47625e-15)
(0.0450288 -6.53379e-09 2.13621e-15)
(0.0450288 -6.54282e-09 2.47891e-15)
(0.0450289 -5.52693e-09 2.48733e-15)
(0.0450289 -6.29166e-09 2.41365e-15)
(0.045029 -7.18107e-10 2.55865e-15)
(0.0450289 -5.92968e-09 2.22755e-15)
(0.0525197 -2.94582e-08 2.80678e-15)
(0.0525198 -2.6099e-08 2.60584e-15)
(0.0525199 -1.41566e-08 2.57988e-15)
(0.0525199 1.35635e-09 2.49567e-15)
(0.0525198 1.55345e-08 2.42369e-15)
(0.0525197 2.61025e-08 2.33343e-15)
(0.0525195 3.28928e-08 2.29528e-15)
(0.0525193 3.64461e-08 2.33399e-15)
(0.0525192 3.74789e-08 2.35375e-15)
(0.052519 3.66406e-08 2.33669e-15)
(0.0525188 3.44778e-08 2.43362e-15)
(0.0525187 3.14557e-08 2.01852e-15)
(0.0525185 2.7954e-08 2.11578e-15)
(0.0525184 2.42456e-08 1.70098e-15)
(0.0525183 2.04932e-08 1.65646e-15)
(0.0525182 1.67791e-08 2.16448e-15)
(0.0525182 1.31463e-08 1.73826e-15)
(0.0525181 9.6291e-09 1.81887e-15)
(0.0525181 6.26426e-09 1.26219e-15)
(0.052518 3.08838e-09 1.37812e-15)
(0.052518 1.28827e-10 1.42576e-15)
(0.052518 -2.59634e-09 1.64848e-15)
(0.0525181 -5.07659e-09 1.75168e-15)
(0.0525181 -7.31217e-09 1.48241e-15)
(0.0525181 -9.31072e-09 1.73725e-15)
(0.0525182 -1.10846e-08 1.75413e-15)
(0.0525182 -1.26488e-08 1.29993e-15)
(0.0525183 -1.40204e-08 1.6311e-15)
(0.0525184 -1.52185e-08 1.32665e-15)
(0.0525184 -1.62636e-08 1.53226e-15)
(0.0525185 -1.71761e-08 1.66672e-15)
(0.0525186 -1.7975e-08 1.24598e-15)
(0.0525187 -1.86749e-08 1.44942e-15)
(0.0525188 -1.92866e-08 1.22177e-15)
(0.0525189 -1.98103e-08 1.43808e-15)
(0.052519 -2.02471e-08 1.53177e-15)
(0.0525191 -2.05694e-08 1.25139e-15)
(0.0525192 -2.07777e-08 1.47938e-15)
(0.0525193 -2.07724e-08 9.66301e-16)
(0.0525194 -2.05911e-08 1.41903e-15)
(0.0525195 -1.99395e-08 1.37134e-15)
(0.0525196 -1.89663e-08 1.84965e-15)
(0.0525197 -1.71137e-08 1.85763e-15)
(0.0525198 -1.44289e-08 1.81678e-15)
(0.0525198 -1.11777e-08 1.79972e-15)
(0.0525199 -6.44718e-09 1.77505e-15)
(0.0525199 -2.76432e-09 2.26964e-15)
(0.05252 -8.85347e-10 2.23304e-15)
(0.05252 -4.03263e-10 2.15642e-15)
(0.05252 -1.27068e-09 2.07945e-15)
(0.05252 -2.16857e-09 1.99588e-15)
(0.05252 -3.11184e-09 2.32901e-15)
(0.05252 -4.00079e-09 2.24427e-15)
(0.0525201 -4.73492e-09 2.5507e-15)
(0.0525201 -5.23203e-09 2.57304e-15)
(0.0525201 -5.40796e-09 2.23833e-15)
(0.0525201 -5.20286e-09 2.59172e-15)
(0.0525201 -4.5936e-09 2.50396e-15)
(0.0525202 -3.60093e-09 2.72803e-15)
(0.0525202 -2.28725e-09 2.71981e-15)
(0.0525202 -7.44736e-10 2.39655e-15)
(0.0525202 9.20255e-10 2.76518e-15)
(0.0525202 2.60455e-09 2.68773e-15)
(0.0525201 4.22149e-09 2.95275e-15)
(0.0525201 5.70572e-09 2.9036e-15)
(0.0525201 7.01398e-09 2.53516e-15)
(0.05252 8.12257e-09 2.95073e-15)
(0.05252 9.02325e-09 2.8257e-15)
(0.0525199 9.71916e-09 3.10627e-15)
(0.0525199 1.02207e-08 3.01646e-15)
(0.0525198 1.0543e-08 2.64362e-15)
(0.0525198 1.07035e-08 3.01263e-15)
(0.0525197 1.07207e-08 2.93335e-15)
(0.0525197 1.06131e-08 3.18083e-15)
(0.0525196 1.03985e-08 3.11111e-15)
(0.0525196 1.00934e-08 2.75002e-15)
(0.0525195 9.71286e-09 3.11047e-15)
(0.0525195 9.27004e-09 2.96789e-15)
(0.0525194 8.77594e-09 3.26459e-15)
(0.0525194 8.23986e-09 3.13413e-15)
(0.0525193 7.66753e-09 3.54407e-15)
(0.0525193 7.06509e-09 3.15815e-15)
(0.0525193 6.42603e-09 2.99204e-15)
(0.0525192 5.75991e-09 3.39014e-15)
(0.0525192 5.02195e-09 2.98807e-15)
(0.0525192 4.24041e-09 3.1341e-15)