/*--------------------------------*- C++ -*----------------------------------*\
  =========                 |
  \\      /  F ield         | OpenFOAM: The Open Source CFD Toolbox
   \\    /   O peration     | Website:  https://openfoam.org
    \\  /    A nd           | Version:  7
     \\/     M anipulation  |
\*---------------------------------------------------------------------------*/
FoamFile
{
    version     2.0;
    format      ascii;
    class       volScalarField;
    location    "2000";
    object      k;
}
// * * * * * * * * * * * * * * * * * * * * * * * * * * * * * * * * * * * * * //

dimensions      [0 2 -2 0 0 0 0];

internalField   nonuniform List<scalar> 
4026
(
0.00015953
0.000159528
0.000159528
0.000159529
0.00015953
0.000159531
0.000159532
0.000159532
0.000159533
0.000159534
0.000159535
0.000159536
0.000159537
0.000159538
0.000159539
0.00015954
0.000159541
0.000159542
0.000159543
0.000159544
0.000159545
0.000159546
0.000159547
0.000159548
0.000159548
0.000159549
0.00015955
0.000159551
0.000159552
0.000159553
0.000159554
0.000159555
0.000159555
0.000159556
0.000159557
0.000159558
0.000159558
0.000159559
0.000159559
0.00015956
0.000159561
0.000159561
0.000159562
0.000159562
0.000159564
0.00015953
0.00015953
0.000159531
0.000159532
0.000159533
0.000159533
0.000159534
0.000159535
0.000159535
0.000159536
0.000159537
0.000159537
0.000159538
0.000159539
0.000159539
0.000159542
0.000157519
0.000157517
0.000157517
0.000157518
0.000157519
0.00015752
0.000157521
0.000157521
0.000157522
0.000157523
0.000157524
0.000157525
0.000157526
0.000157527
0.000157528
0.000157529
0.00015753
0.000157531
0.000157532
0.000157533
0.000157534
0.000157535
0.000157536
0.000157537
0.000157537
0.000157538
0.000157539
0.00015754
0.000157541
0.000157542
0.000157543
0.000157543
0.000157544
0.000157545
0.000157546
0.000157546
0.000157547
0.000157548
0.000157548
0.000157549
0.000157549
0.00015755
0.00015755
0.000157551
0.000157553
0.000157519
0.000157518
0.000157519
0.00015752
0.000157521
0.000157522
0.000157523
0.000157524
0.000157524
0.000157525
0.000157526
0.000157526
0.000157527
0.000157528
0.000157528
0.000157531
0.000155415
0.000155413
0.000155413
0.000155414
0.000155414
0.000155415
0.000155416
0.000155417
0.000155418
0.000155419
0.00015542
0.000155421
0.000155422
0.000155423
0.000155424
0.000155425
0.000155426
0.000155427
0.000155428
0.000155429
0.00015543
0.000155431
0.000155432
0.000155433
0.000155433
0.000155434
0.000155435
0.000155436
0.000155437
0.000155438
0.000155438
0.000155439
0.00015544
0.000155441
0.000155441
0.000155442
0.000155443
0.000155443
0.000155444
0.000155444
0.000155445
0.000155445
0.000155446
0.000155446
0.000155449
0.000155416
0.000155414
0.000155415
0.000155416
0.000155417
0.000155418
0.000155419
0.00015542
0.00015542
0.000155421
0.000155422
0.000155422
0.000155423
0.000155424
0.000155424
0.000155427
0.000153225
0.000153223
0.000153223
0.000153224
0.000153225
0.000153226
0.000153227
0.000153228
0.000153229
0.00015323
0.000153231
0.000153232
0.000153233
0.000153234
0.000153235
0.000153236
0.000153237
0.000153238
0.000153239
0.000153239
0.00015324
0.000153241
0.000153242
0.000153243
0.000153244
0.000153245
0.000153246
0.000153246
0.000153247
0.000153248
0.000153249
0.00015325
0.00015325
0.000153251
0.000153252
0.000153252
0.000153253
0.000153253
0.000153254
0.000153255
0.000153255
0.000153256
0.000153256
0.000153256
0.000153259
0.000153227
0.000153225
0.000153226
0.000153227
0.000153228
0.000153229
0.000153229
0.00015323
0.000153231
0.000153232
0.000153232
0.000153233
0.000153234
0.000153235
0.000153235
0.000153238
0.000150956
0.000150953
0.000150954
0.000150955
0.000150956
0.000150957
0.000150958
0.000150959
0.00015096
0.000150961
0.000150962
0.000150963
0.000150964
0.000150965
0.000150966
0.000150967
0.000150968
0.000150969
0.00015097
0.000150971
0.000150972
0.000150972
0.000150973
0.000150974
0.000150975
0.000150976
0.000150977
0.000150977
0.000150978
0.000150979
0.00015098
0.00015098
0.000150981
0.000150982
0.000150982
0.000150983
0.000150984
0.000150984
0.000150985
0.000150985
0.000150986
0.000150986
0.000150987
0.000150987
0.00015099
0.00015096
0.000150957
0.000150957
0.000150958
0.000150959
0.00015096
0.000150961
0.000150962
0.000150962
0.000150963
0.000150964
0.000150964
0.000150965
0.000150966
0.000150966
0.000150969
0.000148613
0.000148611
0.000148611
0.000148612
0.000148613
0.000148614
0.000148615
0.000148616
0.000148617
0.000148618
0.000148619
0.00014862
0.000148621
0.000148622
0.000148623
0.000148624
0.000148625
0.000148626
0.000148627
0.000148628
0.000148629
0.00014863
0.000148631
0.000148632
0.000148633
0.000148633
0.000148634
0.000148635
0.000148636
0.000148636
0.000148637
0.000148638
0.000148639
0.000148639
0.00014864
0.00014864
0.000148641
0.000148642
0.000148642
0.000148643
0.000148643
0.000148644
0.000148644
0.000148644
0.000148647
0.000148619
0.000148616
0.000148616
0.000148616
0.000148617
0.000148618
0.000148619
0.00014862
0.00014862
0.000148621
0.000148622
0.000148622
0.000148623
0.000148624
0.000148624
0.000148627
0.000146202
0.0001462
0.0001462
0.000146201
0.000146202
0.000146204
0.000146205
0.000146206
0.000146207
0.000146208
0.000146209
0.00014621
0.000146211
0.000146212
0.000146213
0.000146214
0.000146215
0.000146216
0.000146217
0.000146218
0.000146219
0.00014622
0.000146221
0.000146222
0.000146222
0.000146223
0.000146224
0.000146225
0.000146225
0.000146226
0.000146227
0.000146228
0.000146228
0.000146229
0.000146229
0.00014623
0.000146231
0.000146231
0.000146232
0.000146232
0.000146233
0.000146233
0.000146234
0.000146233
0.000146237
0.000146211
0.000146207
0.000146207
0.000146207
0.000146208
0.000146208
0.000146209
0.00014621
0.000146211
0.000146211
0.000146212
0.000146213
0.000146213
0.000146214
0.000146214
0.000146217
0.00014373
0.000143727
0.000143728
0.000143729
0.00014373
0.000143731
0.000143732
0.000143733
0.000143735
0.000143736
0.000143737
0.000143738
0.000143739
0.00014374
0.000143741
0.000143742
0.000143743
0.000143744
0.000143745
0.000143746
0.000143747
0.000143748
0.000143748
0.000143749
0.00014375
0.000143751
0.000143752
0.000143752
0.000143753
0.000143754
0.000143754
0.000143755
0.000143756
0.000143756
0.000143757
0.000143757
0.000143758
0.000143759
0.000143759
0.000143759
0.00014376
0.00014376
0.000143761
0.000143761
0.000143764
0.00014374
0.000143737
0.000143736
0.000143736
0.000143736
0.000143737
0.000143738
0.000143738
0.000143739
0.00014374
0.00014374
0.000143741
0.000143741
0.000143742
0.000143742
0.000143746
0.000141201
0.000141198
0.000141198
0.000141199
0.000141201
0.000141202
0.000141203
0.000141204
0.000141206
0.000141207
0.000141208
0.000141209
0.00014121
0.000141211
0.000141212
0.000141213
0.000141214
0.000141215
0.000141216
0.000141217
0.000141218
0.000141219
0.00014122
0.00014122
0.000141221
0.000141222
0.000141223
0.000141223
0.000141224
0.000141225
0.000141226
0.000141226
0.000141227
0.000141227
0.000141228
0.000141228
0.000141229
0.000141229
0.00014123
0.00014123
0.000141231
0.000141231
0.000141232
0.000141232
0.000141235
0.000141214
0.000141209
0.000141208
0.000141208
0.000141209
0.000141209
0.00014121
0.00014121
0.000141211
0.000141212
0.000141212
0.000141213
0.000141213
0.000141214
0.000141214
0.000141217
0.000138621
0.000138618
0.000138618
0.000138619
0.000138621
0.000138622
0.000138623
0.000138625
0.000138626
0.000138627
0.000138628
0.000138629
0.00013863
0.000138631
0.000138632
0.000138633
0.000138634
0.000138635
0.000138636
0.000138637
0.000138638
0.000138639
0.00013864
0.000138641
0.000138641
0.000138642
0.000138643
0.000138644
0.000138644
0.000138645
0.000138646
0.000138646
0.000138647
0.000138647
0.000138648
0.000138649
0.000138649
0.00013865
0.00013865
0.00013865
0.000138651
0.000138651
0.000138652
0.000138652
0.000138655
0.000138635
0.000138631
0.00013863
0.00013863
0.00013863
0.000138631
0.000138631
0.000138632
0.000138632
0.000138633
0.000138633
0.000138634
0.000138634
0.000138635
0.000138635
0.000138638
0.000135996
0.000135993
0.000135993
0.000135994
0.000135995
0.000135997
0.000135998
0.000135999
0.000136001
0.000136002
0.000136003
0.000136004
0.000136005
0.000136006
0.000136007
0.000136008
0.000136009
0.00013601
0.000136011
0.000136012
0.000136013
0.000136014
0.000136015
0.000136015
0.000136016
0.000136017
0.000136018
0.000136018
0.000136019
0.00013602
0.00013602
0.000136021
0.000136022
0.000136022
0.000136023
0.000136023
0.000136024
0.000136024
0.000136025
0.000136025
0.000136025
0.000136026
0.000136026
0.000136026
0.00013603
0.000136012
0.000136007
0.000136006
0.000136006
0.000136006
0.000136007
0.000136007
0.000136007
0.000136008
0.000136008
0.000136009
0.000136009
0.00013601
0.00013601
0.00013601
0.000136014
0.000133331
0.000133328
0.000133328
0.000133329
0.00013333
0.000133332
0.000133333
0.000133334
0.000133336
0.000133337
0.000133338
0.000133339
0.00013334
0.000133341
0.000133342
0.000133343
0.000133344
0.000133345
0.000133346
0.000133347
0.000133348
0.000133349
0.00013335
0.00013335
0.000133351
0.000133352
0.000133353
0.000133353
0.000133354
0.000133355
0.000133355
0.000133356
0.000133357
0.000133357
0.000133358
0.000133358
0.000133359
0.000133359
0.00013336
0.00013336
0.00013336
0.000133361
0.000133361
0.000133361
0.000133364
0.000133348
0.000133344
0.000133343
0.000133342
0.000133343
0.000133343
0.000133343
0.000133344
0.000133344
0.000133344
0.000133345
0.000133345
0.000133346
0.000133346
0.000133346
0.00013335
0.000130632
0.000130629
0.000130629
0.00013063
0.000130631
0.000130633
0.000130634
0.000130635
0.000130636
0.000130638
0.000130639
0.00013064
0.000130641
0.000130642
0.000130643
0.000130644
0.000130645
0.000130646
0.000130647
0.000130648
0.000130649
0.00013065
0.000130651
0.000130651
0.000130652
0.000130653
0.000130654
0.000130654
0.000130655
0.000130656
0.000130656
0.000130657
0.000130657
0.000130658
0.000130658
0.000130659
0.000130659
0.00013066
0.00013066
0.000130661
0.000130661
0.000130661
0.000130662
0.000130662
0.000130665
0.00013065
0.000130646
0.000130645
0.000130644
0.000130645
0.000130645
0.000130645
0.000130645
0.000130646
0.000130646
0.000130647
0.000130647
0.000130647
0.000130648
0.000130648
0.000130651
0.000127904
0.000127901
0.000127901
0.000127902
0.000127903
0.000127905
0.000127906
0.000127907
0.000127909
0.00012791
0.000127911
0.000127912
0.000127913
0.000127914
0.000127915
0.000127916
0.000127917
0.000127918
0.000127919
0.00012792
0.000127921
0.000127922
0.000127923
0.000127924
0.000127924
0.000127925
0.000127926
0.000127926
0.000127927
0.000127928
0.000127928
0.000127929
0.00012793
0.00012793
0.000127931
0.000127931
0.000127932
0.000127932
0.000127932
0.000127933
0.000127933
0.000127934
0.000127934
0.000127934
0.000127937
0.000127924
0.000127919
0.000127918
0.000127918
0.000127918
0.000127918
0.000127918
0.000127919
0.000127919
0.000127919
0.00012792
0.00012792
0.000127921
0.000127921
0.000127921
0.000127924
0.000125154
0.00012515
0.00012515
0.000125151
0.000125153
0.000125154
0.000125155
0.000125157
0.000125158
0.000125159
0.00012516
0.000125161
0.000125163
0.000125164
0.000125165
0.000125166
0.000125167
0.000125168
0.000125169
0.00012517
0.00012517
0.000125171
0.000125172
0.000125173
0.000125174
0.000125174
0.000125175
0.000125176
0.000125176
0.000125177
0.000125178
0.000125178
0.000125179
0.000125179
0.00012518
0.00012518
0.000125181
0.000125181
0.000125182
0.000125182
0.000125182
0.000125183
0.000125183
0.000125183
0.000125186
0.000125174
0.000125169
0.000125168
0.000125168
0.000125168
0.000125168
0.000125169
0.000125169
0.000125169
0.00012517
0.00012517
0.00012517
0.000125171
0.000125171
0.000125171
0.000125175
0.000122386
0.000122382
0.000122383
0.000122384
0.000122385
0.000122386
0.000122388
0.000122389
0.00012239
0.000122391
0.000122392
0.000122394
0.000122395
0.000122396
0.000122397
0.000122398
0.000122399
0.0001224
0.000122401
0.000122402
0.000122402
0.000122403
0.000122404
0.000122405
0.000122406
0.000122406
0.000122407
0.000122408
0.000122409
0.000122409
0.00012241
0.00012241
0.000122411
0.000122411
0.000122412
0.000122412
0.000122413
0.000122413
0.000122414
0.000122414
0.000122414
0.000122415
0.000122415
0.000122415
0.000122418
0.000122406
0.000122401
0.000122401
0.000122401
0.000122401
0.000122401
0.000122402
0.000122402
0.000122402
0.000122403
0.000122403
0.000122403
0.000122404
0.000122404
0.000122404
0.000122407
0.000119607
0.000119603
0.000119603
0.000119604
0.000119605
0.000119607
0.000119608
0.000119609
0.00011961
0.000119612
0.000119613
0.000119614
0.000119615
0.000119616
0.000119617
0.000119618
0.000119619
0.00011962
0.000119621
0.000119622
0.000119623
0.000119624
0.000119625
0.000119625
0.000119626
0.000119627
0.000119628
0.000119628
0.000119629
0.00011963
0.00011963
0.000119631
0.000119631
0.000119632
0.000119632
0.000119633
0.000119633
0.000119634
0.000119634
0.000119635
0.000119635
0.000119635
0.000119636
0.000119635
0.000119639
0.000119627
0.000119622
0.000119621
0.000119621
0.000119622
0.000119622
0.000119623
0.000119623
0.000119623
0.000119624
0.000119624
0.000119624
0.000119625
0.000119625
0.000119625
0.000119629
0.000116822
0.000116818
0.000116818
0.000116819
0.00011682
0.000116821
0.000116823
0.000116824
0.000116825
0.000116826
0.000116827
0.000116829
0.00011683
0.000116831
0.000116832
0.000116833
0.000116834
0.000116835
0.000116836
0.000116837
0.000116837
0.000116838
0.000116839
0.00011684
0.000116841
0.000116841
0.000116842
0.000116843
0.000116843
0.000116844
0.000116845
0.000116845
0.000116846
0.000116846
0.000116847
0.000116847
0.000116848
0.000116848
0.000116849
0.000116849
0.000116849
0.00011685
0.00011685
0.00011685
0.000116853
0.000116842
0.000116837
0.000116836
0.000116836
0.000116837
0.000116837
0.000116838
0.000116838
0.000116838
0.000116839
0.000116839
0.00011684
0.00011684
0.00011684
0.00011684
0.000116844
0.000114036
0.000114032
0.000114032
0.000114033
0.000114034
0.000114035
0.000114037
0.000114038
0.000114039
0.00011404
0.000114042
0.000114043
0.000114044
0.000114045
0.000114046
0.000114047
0.000114048
0.000114049
0.00011405
0.000114051
0.000114052
0.000114052
0.000114053
0.000114054
0.000114055
0.000114056
0.000114056
0.000114057
0.000114058
0.000114058
0.000114059
0.00011406
0.00011406
0.000114061
0.000114061
0.000114062
0.000114062
0.000114062
0.000114063
0.000114063
0.000114064
0.000114064
0.000114064
0.000114064
0.000114068
0.000114056
0.000114051
0.00011405
0.00011405
0.000114051
0.000114052
0.000114052
0.000114053
0.000114053
0.000114053
0.000114054
0.000114054
0.000114055
0.000114055
0.000114055
0.000114059
0.000111256
0.000111251
0.000111251
0.000111252
0.000111254
0.000111255
0.000111256
0.000111257
0.000111259
0.00011126
0.000111261
0.000111262
0.000111263
0.000111264
0.000111265
0.000111266
0.000111267
0.000111268
0.000111269
0.00011127
0.000111271
0.000111272
0.000111273
0.000111274
0.000111274
0.000111275
0.000111276
0.000111276
0.000111277
0.000111278
0.000111278
0.000111279
0.00011128
0.00011128
0.000111281
0.000111281
0.000111282
0.000111282
0.000111282
0.000111283
0.000111283
0.000111284
0.000111284
0.000111284
0.000111287
0.000111275
0.00011127
0.00011127
0.00011127
0.000111271
0.000111271
0.000111272
0.000111272
0.000111273
0.000111273
0.000111274
0.000111274
0.000111275
0.000111275
0.000111275
0.000111279
0.000108486
0.000108482
0.000108482
0.000108483
0.000108484
0.000108485
0.000108486
0.000108488
0.000108489
0.00010849
0.000108491
0.000108492
0.000108493
0.000108495
0.000108496
0.000108497
0.000108498
0.000108499
0.000108499
0.0001085
0.000108501
0.000108502
0.000108503
0.000108504
0.000108505
0.000108505
0.000108506
0.000108507
0.000108507
0.000108508
0.000108509
0.000108509
0.00010851
0.00010851
0.000108511
0.000108511
0.000108512
0.000108512
0.000108513
0.000108513
0.000108514
0.000108514
0.000108514
0.000108514
0.000108518
0.000108505
0.0001085
0.0001085
0.0001085
0.000108501
0.000108501
0.000108502
0.000108503
0.000108503
0.000108504
0.000108504
0.000108505
0.000108505
0.000108506
0.000108505
0.000108509
0.000105732
0.000105728
0.000105728
0.000105729
0.00010573
0.000105732
0.000105733
0.000105734
0.000105735
0.000105736
0.000105738
0.000105739
0.00010574
0.000105741
0.000105742
0.000105743
0.000105744
0.000105745
0.000105746
0.000105747
0.000105748
0.000105748
0.000105749
0.00010575
0.000105751
0.000105752
0.000105752
0.000105753
0.000105754
0.000105754
0.000105755
0.000105756
0.000105756
0.000105757
0.000105757
0.000105758
0.000105758
0.000105759
0.000105759
0.00010576
0.00010576
0.00010576
0.000105761
0.00010576
0.000105764
0.000105751
0.000105746
0.000105746
0.000105746
0.000105747
0.000105748
0.000105748
0.000105749
0.00010575
0.00010575
0.000105751
0.000105751
0.000105752
0.000105752
0.000105752
0.000105756
0.000103
0.000102996
0.000102996
0.000102997
0.000102998
0.000102999
0.000103001
0.000103002
0.000103003
0.000103004
0.000103005
0.000103006
0.000103008
0.000103009
0.00010301
0.000103011
0.000103012
0.000103013
0.000103014
0.000103014
0.000103015
0.000103016
0.000103017
0.000103018
0.000103019
0.000103019
0.00010302
0.000103021
0.000103021
0.000103022
0.000103023
0.000103023
0.000103024
0.000103025
0.000103025
0.000103026
0.000103026
0.000103027
0.000103027
0.000103027
0.000103028
0.000103028
0.000103029
0.000103028
0.000103032
0.000103018
0.000103014
0.000103013
0.000103014
0.000103014
0.000103015
0.000103016
0.000103017
0.000103017
0.000103018
0.000103019
0.000103019
0.00010302
0.00010302
0.00010302
0.000103024
0.000100294
0.00010029
0.00010029
0.000100291
0.000100292
0.000100293
0.000100295
0.000100296
0.000100297
0.000100298
0.000100299
0.000100301
0.000100302
0.000100303
0.000100304
0.000100305
0.000100306
0.000100307
0.000100308
0.000100309
0.000100309
0.00010031
0.000100311
0.000100312
0.000100313
0.000100314
0.000100314
0.000100315
0.000100316
0.000100316
0.000100317
0.000100318
0.000100318
0.000100319
0.000100319
0.00010032
0.00010032
0.000100321
0.000100321
0.000100322
0.000100322
0.000100323
0.000100323
0.000100323
0.000100326
0.000100312
0.000100307
0.000100307
0.000100308
0.000100308
0.000100309
0.00010031
0.000100311
0.000100312
0.000100312
0.000100313
0.000100313
0.000100314
0.000100315
0.000100315
0.000100318
9.76197e-05
9.76153e-05
9.76152e-05
9.76162e-05
9.76175e-05
9.76188e-05
9.76201e-05
9.76214e-05
9.76226e-05
9.76237e-05
9.76249e-05
9.7626e-05
9.76271e-05
9.76282e-05
9.76292e-05
9.76303e-05
9.76313e-05
9.76322e-05
9.76332e-05
9.76341e-05
9.7635e-05
9.76358e-05
9.76367e-05
9.76375e-05
9.76383e-05
9.76391e-05
9.76398e-05
9.76405e-05
9.76412e-05
9.76419e-05
9.76426e-05
9.76432e-05
9.76438e-05
9.76444e-05
9.7645e-05
9.76455e-05
9.7646e-05
9.76465e-05
9.7647e-05
9.76474e-05
9.76479e-05
9.76482e-05
9.76487e-05
9.76484e-05
9.7652e-05
9.76374e-05
9.76326e-05
9.76322e-05
9.76327e-05
9.76336e-05
9.76345e-05
9.76354e-05
9.76362e-05
9.76369e-05
9.76376e-05
9.76383e-05
9.7639e-05
9.76396e-05
9.76402e-05
9.76402e-05
9.76439e-05
9.49811e-05
9.49767e-05
9.49766e-05
9.49776e-05
9.49789e-05
9.49802e-05
9.49815e-05
9.49828e-05
9.4984e-05
9.49852e-05
9.49863e-05
9.49874e-05
9.49885e-05
9.49896e-05
9.49907e-05
9.49917e-05
9.49927e-05
9.49936e-05
9.49946e-05
9.49955e-05
9.49964e-05
9.49973e-05
9.49981e-05
9.49989e-05
9.49997e-05
9.50005e-05
9.50013e-05
9.5002e-05
9.50027e-05
9.50034e-05
9.50041e-05
9.50047e-05
9.50054e-05
9.5006e-05
9.50065e-05
9.50071e-05
9.50076e-05
9.50081e-05
9.50086e-05
9.50091e-05
9.50095e-05
9.50099e-05
9.50103e-05
9.50101e-05
9.50136e-05
9.49985e-05
9.49937e-05
9.49933e-05
9.49939e-05
9.49948e-05
9.49957e-05
9.49966e-05
9.49974e-05
9.49982e-05
9.4999e-05
9.49997e-05
9.50004e-05
9.5001e-05
9.50017e-05
9.50017e-05
9.50054e-05
9.23828e-05
9.23784e-05
9.23784e-05
9.23794e-05
9.23806e-05
9.2382e-05
9.23833e-05
9.23845e-05
9.23857e-05
9.23869e-05
9.2388e-05
9.23892e-05
9.23903e-05
9.23913e-05
9.23924e-05
9.23934e-05
9.23944e-05
9.23954e-05
9.23963e-05
9.23972e-05
9.23981e-05
9.2399e-05
9.23999e-05
9.24007e-05
9.24015e-05
9.24023e-05
9.24031e-05
9.24038e-05
9.24045e-05
9.24052e-05
9.24059e-05
9.24066e-05
9.24072e-05
9.24078e-05
9.24084e-05
9.2409e-05
9.24095e-05
9.241e-05
9.24105e-05
9.2411e-05
9.24114e-05
9.24118e-05
9.24123e-05
9.24121e-05
9.24156e-05
9.24e-05
9.23952e-05
9.23948e-05
9.23954e-05
9.23963e-05
9.23973e-05
9.23982e-05
9.2399e-05
9.23998e-05
9.24006e-05
9.24014e-05
9.24021e-05
9.24027e-05
9.24035e-05
9.24035e-05
9.24072e-05
8.98289e-05
8.98245e-05
8.98245e-05
8.98255e-05
8.98268e-05
8.98281e-05
8.98294e-05
8.98306e-05
8.98318e-05
8.9833e-05
8.98341e-05
8.98353e-05
8.98364e-05
8.98374e-05
8.98385e-05
8.98395e-05
8.98405e-05
8.98415e-05
8.98424e-05
8.98434e-05
8.98443e-05
8.98452e-05
8.9846e-05
8.98468e-05
8.98477e-05
8.98485e-05
8.98492e-05
8.985e-05
8.98507e-05
8.98514e-05
8.98521e-05
8.98528e-05
8.98534e-05
8.9854e-05
8.98546e-05
8.98552e-05
8.98558e-05
8.98563e-05
8.98568e-05
8.98573e-05
8.98578e-05
8.98582e-05
8.98587e-05
8.98584e-05
8.98619e-05
8.98459e-05
8.98411e-05
8.98407e-05
8.98414e-05
8.98423e-05
8.98432e-05
8.98442e-05
8.9845e-05
8.98458e-05
8.98466e-05
8.98474e-05
8.98482e-05
8.98488e-05
8.98496e-05
8.98496e-05
8.98533e-05
8.73232e-05
8.73188e-05
8.73188e-05
8.73198e-05
8.73211e-05
8.73224e-05
8.73237e-05
8.73249e-05
8.73261e-05
8.73273e-05
8.73284e-05
8.73296e-05
8.73306e-05
8.73317e-05
8.73328e-05
8.73338e-05
8.73348e-05
8.73358e-05
8.73367e-05
8.73376e-05
8.73386e-05
8.73394e-05
8.73403e-05
8.73411e-05
8.7342e-05
8.73428e-05
8.73435e-05
8.73443e-05
8.7345e-05
8.73458e-05
8.73465e-05
8.73471e-05
8.73478e-05
8.73484e-05
8.7349e-05
8.73496e-05
8.73502e-05
8.73507e-05
8.73513e-05
8.73518e-05
8.73522e-05
8.73527e-05
8.73532e-05
8.7353e-05
8.73564e-05
8.734e-05
8.73352e-05
8.73349e-05
8.73355e-05
8.73364e-05
8.73374e-05
8.73383e-05
8.73392e-05
8.734e-05
8.73408e-05
8.73416e-05
8.73424e-05
8.73431e-05
8.73438e-05
8.73439e-05
8.73476e-05
8.48691e-05
8.48647e-05
8.48647e-05
8.48657e-05
8.4867e-05
8.48683e-05
8.48696e-05
8.48708e-05
8.4872e-05
8.48731e-05
8.48743e-05
8.48754e-05
8.48765e-05
8.48776e-05
8.48786e-05
8.48796e-05
8.48806e-05
8.48816e-05
8.48826e-05
8.48835e-05
8.48844e-05
8.48853e-05
8.48862e-05
8.4887e-05
8.48878e-05
8.48887e-05
8.48894e-05
8.48902e-05
8.48909e-05
8.48917e-05
8.48924e-05
8.48931e-05
8.48937e-05
8.48944e-05
8.4895e-05
8.48956e-05
8.48962e-05
8.48967e-05
8.48973e-05
8.48978e-05
8.48983e-05
8.48987e-05
8.48992e-05
8.48991e-05
8.49024e-05
8.48858e-05
8.4881e-05
8.48807e-05
8.48813e-05
8.48822e-05
8.48831e-05
8.48841e-05
8.4885e-05
8.48858e-05
8.48866e-05
8.48874e-05
8.48882e-05
8.48889e-05
8.48896e-05
8.48898e-05
8.48933e-05
8.24697e-05
8.24654e-05
8.24654e-05
8.24663e-05
8.24676e-05
8.24689e-05
8.24701e-05
8.24713e-05
8.24725e-05
8.24737e-05
8.24748e-05
8.2476e-05
8.2477e-05
8.24781e-05
8.24792e-05
8.24802e-05
8.24812e-05
8.24821e-05
8.24831e-05
8.2484e-05
8.24849e-05
8.24858e-05
8.24867e-05
8.24876e-05
8.24884e-05
8.24892e-05
8.249e-05
8.24908e-05
8.24915e-05
8.24922e-05
8.2493e-05
8.24936e-05
8.24943e-05
8.2495e-05
8.24956e-05
8.24962e-05
8.24968e-05
8.24974e-05
8.24979e-05
8.24985e-05
8.2499e-05
8.24994e-05
8.24999e-05
8.24998e-05
8.25031e-05
8.24862e-05
8.24815e-05
8.24812e-05
8.24818e-05
8.24827e-05
8.24836e-05
8.24845e-05
8.24854e-05
8.24863e-05
8.24871e-05
8.24879e-05
8.24886e-05
8.24894e-05
8.24901e-05
8.24903e-05
8.24938e-05
8.01278e-05
8.01234e-05
8.01234e-05
8.01244e-05
8.01256e-05
8.01269e-05
8.01281e-05
8.01293e-05
8.01305e-05
8.01316e-05
8.01328e-05
8.01339e-05
8.0135e-05
8.0136e-05
8.01371e-05
8.01381e-05
8.01391e-05
8.01401e-05
8.0141e-05
8.01419e-05
8.01429e-05
8.01437e-05
8.01446e-05
8.01455e-05
8.01463e-05
8.01471e-05
8.01479e-05
8.01487e-05
8.01494e-05
8.01502e-05
8.01509e-05
8.01516e-05
8.01523e-05
8.01529e-05
8.01536e-05
8.01542e-05
8.01548e-05
8.01554e-05
8.0156e-05
8.01565e-05
8.0157e-05
8.01575e-05
8.0158e-05
8.01579e-05
8.01611e-05
8.01442e-05
8.01395e-05
8.01391e-05
8.01397e-05
8.01406e-05
8.01415e-05
8.01424e-05
8.01433e-05
8.01441e-05
8.0145e-05
8.01457e-05
8.01465e-05
8.01472e-05
8.0148e-05
8.01482e-05
8.01516e-05
7.78456e-05
7.78413e-05
7.78413e-05
7.78422e-05
7.78434e-05
7.78447e-05
7.78459e-05
7.78471e-05
7.78483e-05
7.78494e-05
7.78505e-05
7.78516e-05
7.78527e-05
7.78537e-05
7.78548e-05
7.78558e-05
7.78568e-05
7.78577e-05
7.78587e-05
7.78596e-05
7.78605e-05
7.78614e-05
7.78623e-05
7.78631e-05
7.7864e-05
7.78648e-05
7.78656e-05
7.78664e-05
7.78671e-05
7.78679e-05
7.78686e-05
7.78693e-05
7.787e-05
7.78707e-05
7.78713e-05
7.78719e-05
7.78725e-05
7.78731e-05
7.78737e-05
7.78742e-05
7.78748e-05
7.78752e-05
7.78758e-05
7.78757e-05
7.78788e-05
7.78619e-05
7.78573e-05
7.78569e-05
7.78575e-05
7.78583e-05
7.78592e-05
7.78601e-05
7.7861e-05
7.78618e-05
7.78626e-05
7.78634e-05
7.78642e-05
7.78649e-05
7.78656e-05
7.78658e-05
7.78692e-05
7.56252e-05
7.5621e-05
7.5621e-05
7.56219e-05
7.56231e-05
7.56243e-05
7.56255e-05
7.56267e-05
7.56278e-05
7.56289e-05
7.563e-05
7.56311e-05
7.56322e-05
7.56332e-05
7.56343e-05
7.56353e-05
7.56362e-05
7.56372e-05
7.56381e-05
7.56391e-05
7.564e-05
7.56408e-05
7.56417e-05
7.56426e-05
7.56434e-05
7.56442e-05
7.5645e-05
7.56458e-05
7.56465e-05
7.56473e-05
7.5648e-05
7.56487e-05
7.56494e-05
7.56501e-05
7.56507e-05
7.56514e-05
7.5652e-05
7.56526e-05
7.56532e-05
7.56537e-05
7.56543e-05
7.56547e-05
7.56553e-05
7.56553e-05
7.56583e-05
7.56414e-05
7.56368e-05
7.56365e-05
7.5637e-05
7.56379e-05
7.56388e-05
7.56396e-05
7.56405e-05
7.56413e-05
7.56421e-05
7.56428e-05
7.56436e-05
7.56443e-05
7.56451e-05
7.56453e-05
7.56485e-05
7.34683e-05
7.34641e-05
7.34641e-05
7.3465e-05
7.34661e-05
7.34674e-05
7.34686e-05
7.34697e-05
7.34708e-05
7.34719e-05
7.3473e-05
7.34741e-05
7.34751e-05
7.34762e-05
7.34772e-05
7.34781e-05
7.34791e-05
7.34801e-05
7.3481e-05
7.34819e-05
7.34828e-05
7.34837e-05
7.34845e-05
7.34854e-05
7.34862e-05
7.3487e-05
7.34878e-05
7.34886e-05
7.34894e-05
7.34901e-05
7.34908e-05
7.34915e-05
7.34922e-05
7.34929e-05
7.34936e-05
7.34942e-05
7.34948e-05
7.34954e-05
7.3496e-05
7.34966e-05
7.34971e-05
7.34976e-05
7.34982e-05
7.34982e-05
7.35011e-05
7.34844e-05
7.34799e-05
7.34795e-05
7.34801e-05
7.34809e-05
7.34817e-05
7.34826e-05
7.34834e-05
7.34842e-05
7.3485e-05
7.34857e-05
7.34865e-05
7.34872e-05
7.34879e-05
7.34881e-05
7.34912e-05
7.13762e-05
7.13721e-05
7.1372e-05
7.13729e-05
7.1374e-05
7.13752e-05
7.13764e-05
7.13775e-05
7.13786e-05
7.13797e-05
7.13807e-05
7.13818e-05
7.13828e-05
7.13838e-05
7.13848e-05
7.13858e-05
7.13867e-05
7.13877e-05
7.13886e-05
7.13895e-05
7.13904e-05
7.13913e-05
7.13921e-05
7.1393e-05
7.13938e-05
7.13946e-05
7.13954e-05
7.13961e-05
7.13969e-05
7.13976e-05
7.13984e-05
7.13991e-05
7.13998e-05
7.14005e-05
7.14011e-05
7.14018e-05
7.14024e-05
7.1403e-05
7.14036e-05
7.14041e-05
7.14047e-05
7.14052e-05
7.14057e-05
7.14058e-05
7.14086e-05
7.13922e-05
7.13877e-05
7.13873e-05
7.13879e-05
7.13886e-05
7.13895e-05
7.13903e-05
7.13911e-05
7.13919e-05
7.13926e-05
7.13934e-05
7.13941e-05
7.13948e-05
7.13955e-05
7.13957e-05
7.13987e-05
6.93498e-05
6.93458e-05
6.93458e-05
6.93466e-05
6.93477e-05
6.93488e-05
6.935e-05
6.9351e-05
6.93521e-05
6.93532e-05
6.93542e-05
6.93552e-05
6.93562e-05
6.93572e-05
6.93582e-05
6.93592e-05
6.93601e-05
6.9361e-05
6.93619e-05
6.93628e-05
6.93637e-05
6.93646e-05
6.93654e-05
6.93662e-05
6.9367e-05
6.93678e-05
6.93686e-05
6.93694e-05
6.93701e-05
6.93709e-05
6.93716e-05
6.93723e-05
6.9373e-05
6.93737e-05
6.93743e-05
6.9375e-05
6.93756e-05
6.93762e-05
6.93768e-05
6.93774e-05
6.93779e-05
6.93784e-05
6.9379e-05
6.93791e-05
6.93818e-05
6.93657e-05
6.93613e-05
6.93609e-05
6.93614e-05
6.93622e-05
6.9363e-05
6.93638e-05
6.93646e-05
6.93653e-05
6.9366e-05
6.93668e-05
6.93675e-05
6.93681e-05
6.93688e-05
6.93691e-05
6.93719e-05
6.73899e-05
6.7386e-05
6.73859e-05
6.73867e-05
6.73878e-05
6.73889e-05
6.739e-05
6.73911e-05
6.73921e-05
6.73931e-05
6.73941e-05
6.73951e-05
6.73961e-05
6.73971e-05
6.7398e-05
6.7399e-05
6.73999e-05
6.74008e-05
6.74017e-05
6.74026e-05
6.74034e-05
6.74043e-05
6.74051e-05
6.74059e-05
6.74067e-05
6.74075e-05
6.74083e-05
6.7409e-05
6.74098e-05
6.74105e-05
6.74112e-05
6.74119e-05
6.74126e-05
6.74133e-05
6.7414e-05
6.74146e-05
6.74152e-05
6.74158e-05
6.74164e-05
6.7417e-05
6.74175e-05
6.7418e-05
6.74186e-05
6.74187e-05
6.74213e-05
6.74056e-05
6.74014e-05
6.7401e-05
6.74014e-05
6.74022e-05
6.74029e-05
6.74037e-05
6.74045e-05
6.74052e-05
6.74059e-05
6.74066e-05
6.74073e-05
6.74079e-05
6.74086e-05
6.74089e-05
6.74116e-05
6.54969e-05
6.5493e-05
6.5493e-05
6.54937e-05
6.54948e-05
6.54958e-05
6.54969e-05
6.54979e-05
6.54989e-05
6.54999e-05
6.55009e-05
6.55019e-05
6.55028e-05
6.55038e-05
6.55047e-05
6.55056e-05
6.55065e-05
6.55074e-05
6.55083e-05
6.55091e-05
6.551e-05
6.55108e-05
6.55116e-05
6.55124e-05
6.55132e-05
6.5514e-05
6.55148e-05
6.55155e-05
6.55162e-05
6.5517e-05
6.55177e-05
6.55184e-05
6.5519e-05
6.55197e-05
6.55204e-05
6.5521e-05
6.55216e-05
6.55222e-05
6.55228e-05
6.55234e-05
6.55239e-05
6.55244e-05
6.5525e-05
6.55251e-05
6.55276e-05
6.55124e-05
6.55082e-05
6.55079e-05
6.55083e-05
6.5509e-05
6.55097e-05
6.55105e-05
6.55112e-05
6.55119e-05
6.55126e-05
6.55132e-05
6.55139e-05
6.55145e-05
6.55152e-05
6.55155e-05
6.5518e-05
6.36709e-05
6.36671e-05
6.3667e-05
6.36678e-05
6.36688e-05
6.36698e-05
6.36708e-05
6.36718e-05
6.36728e-05
6.36738e-05
6.36747e-05
6.36757e-05
6.36766e-05
6.36775e-05
6.36784e-05
6.36793e-05
6.36802e-05
6.3681e-05
6.36819e-05
6.36827e-05
6.36835e-05
6.36843e-05
6.36851e-05
6.36859e-05
6.36867e-05
6.36875e-05
6.36882e-05
6.36889e-05
6.36897e-05
6.36904e-05
6.36911e-05
6.36918e-05
6.36924e-05
6.36931e-05
6.36937e-05
6.36944e-05
6.3695e-05
6.36956e-05
6.36962e-05
6.36967e-05
6.36973e-05
6.36978e-05
6.36983e-05
6.36985e-05
6.37009e-05
6.36862e-05
6.36821e-05
6.36817e-05
6.36822e-05
6.36828e-05
6.36835e-05
6.36843e-05
6.3685e-05
6.36856e-05
6.36863e-05
6.36869e-05
6.36875e-05
6.36881e-05
6.36888e-05
6.3689e-05
6.36915e-05
6.19118e-05
6.19082e-05
6.19081e-05
6.19088e-05
6.19097e-05
6.19107e-05
6.19117e-05
6.19127e-05
6.19136e-05
6.19145e-05
6.19155e-05
6.19164e-05
6.19173e-05
6.19182e-05
6.1919e-05
6.19199e-05
6.19207e-05
6.19216e-05
6.19224e-05
6.19232e-05
6.1924e-05
6.19248e-05
6.19256e-05
6.19264e-05
6.19271e-05
6.19278e-05
6.19286e-05