/*--------------------------------*- C++ -*----------------------------------*\
  =========                 |
  \\      /  F ield         | OpenFOAM: The Open Source CFD Toolbox
   \\    /   O peration     | Website:  https://openfoam.org
    \\  /    A nd           | Version:  7
     \\/     M anipulation  |
\*---------------------------------------------------------------------------*/
FoamFile
{
    version     2.0;
    format      ascii;
    class       volScalarField;
    location    "2000";
    object      omega;
}
// * * * * * * * * * * * * * * * * * * * * * * * * * * * * * * * * * * * * * //

dimensions      [0 0 -1 0 0 0 0];

internalField   nonuniform List<scalar> 
4026
(
0.60896
0.608957
0.608956
0.608955
0.608954
0.608953
0.608952
0.608951
0.608951
0.60895
0.60895
0.608949
0.608949
0.608949
0.608949
0.608949
0.608949
0.608949
0.60895
0.60895
0.60895
0.608951
0.608951
0.608952
0.608953
0.608953
0.608954
0.608954
0.608955
0.608956
0.608956
0.608957
0.608958
0.608958
0.608959
0.608959
0.60896
0.60896
0.608961
0.608961
0.608962
0.608962
0.608963
0.608963
0.608966
0.608987
0.608982
0.608979
0.608976
0.608974
0.608973
0.608971
0.60897
0.608969
0.608969
0.608968
0.608967
0.608967
0.608967
0.608967
0.608969
0.5757
0.575695
0.575693
0.575692
0.575692
0.575691
0.575691
0.575691
0.575691
0.575691
0.575691
0.575691
0.575691
0.575691
0.575691
0.575692
0.575692
0.575693
0.575693
0.575694
0.575695
0.575695
0.575696
0.575697
0.575698
0.575699
0.575699
0.5757
0.575701
0.575702
0.575703
0.575704
0.575705
0.575706
0.575706
0.575707
0.575708
0.575709
0.575709
0.57571
0.575711
0.575711
0.575712
0.575712
0.575718
0.575732
0.575726
0.575723
0.575721
0.57572
0.575719
0.575718
0.575717
0.575716
0.575716
0.575715
0.575715
0.575715
0.575716
0.575715
0.575719
0.544416
0.544409
0.544407
0.544406
0.544406
0.544406
0.544407
0.544407
0.544407
0.544408
0.544408
0.544408
0.544409
0.54441
0.54441
0.544411
0.544412
0.544413
0.544414
0.544414
0.544415
0.544416
0.544417
0.544418
0.544419
0.544421
0.544422
0.544423
0.544424
0.544425
0.544426
0.544427
0.544428
0.54443
0.544431
0.544432
0.544433
0.544434
0.544435
0.544435
0.544436
0.544437
0.544438
0.544438
0.544446
0.544452
0.544445
0.544443
0.544442
0.544441
0.54444
0.54444
0.544439
0.544439
0.544439
0.544439
0.544439
0.54444
0.54444
0.54444
0.544446
0.514936
0.514927
0.514925
0.514925
0.514926
0.514926
0.514927
0.514928
0.514928
0.514929
0.51493
0.514931
0.514932
0.514933
0.514934
0.514935
0.514936
0.514937
0.514938
0.51494
0.514941
0.514942
0.514943
0.514945
0.514946
0.514947
0.514949
0.51495
0.514951
0.514953
0.514954
0.514956
0.514957
0.514958
0.51496
0.514961
0.514962
0.514963
0.514965
0.514966
0.514967
0.514968
0.51497
0.514969
0.514979
0.514978
0.514969
0.514967
0.514966
0.514966
0.514966
0.514966
0.514966
0.514967
0.514967
0.514967
0.514968
0.514968
0.514969
0.514968
0.514977
0.48711
0.487098
0.487097
0.487097
0.487098
0.487099
0.4871
0.487101
0.487102
0.487104
0.487105
0.487106
0.487107
0.487109
0.48711
0.487112
0.487113
0.487115
0.487116
0.487117
0.487119
0.487121
0.487122
0.487124
0.487125
0.487127
0.487128
0.48713
0.487132
0.487133
0.487135
0.487137
0.487138
0.48714
0.487141
0.487143
0.487144
0.487146
0.487147
0.487149
0.48715
0.487152
0.487153
0.487153
0.487164
0.487157
0.487145
0.487143
0.487143
0.487144
0.487144
0.487145
0.487146
0.487146
0.487147
0.487148
0.487149
0.487149
0.487151
0.48715
0.487161
0.460803
0.46079
0.460788
0.460789
0.46079
0.460791
0.460793
0.460795
0.460796
0.460798
0.4608
0.460801
0.460803
0.460805
0.460806
0.460808
0.46081
0.460812
0.460814
0.460815
0.460817
0.460819
0.460821
0.460823
0.460825
0.460826
0.460828
0.46083
0.460832
0.460834
0.460836
0.460838
0.46084
0.460841
0.460843
0.460845
0.460847
0.460848
0.46085
0.460852
0.460854
0.460855
0.460857
0.460857
0.46087
0.460857
0.460843
0.46084
0.460841
0.460842
0.460843
0.460844
0.460845
0.460846
0.460847
0.460848
0.460849
0.46085
0.460852
0.460851
0.460864
0.4359
0.435885
0.435883
0.435884
0.435886
0.435888
0.43589
0.435892
0.435894
0.435896
0.435898
0.4359
0.435902
0.435904
0.435906
0.435908
0.435911
0.435913
0.435915
0.435917
0.435919
0.435921
0.435923
0.435925
0.435927
0.43593
0.435932
0.435934
0.435936
0.435938
0.43594
0.435942
0.435945
0.435947
0.435949
0.435951
0.435953
0.435955
0.435957
0.435959
0.43596
0.435962
0.435965
0.435964
0.435979
0.43596
0.435945
0.435942
0.435942
0.435943
0.435945
0.435946
0.435948
0.435949
0.435951
0.435952
0.435954
0.435955
0.435957
0.435956
0.435971
0.412299
0.412282
0.41228
0.412282
0.412284
0.412286
0.412288
0.412291
0.412293
0.412296
0.412298
0.4123
0.412303
0.412305
0.412308
0.41231
0.412313
0.412315
0.412317
0.41232
0.412322
0.412325
0.412327
0.412329
0.412332
0.412334
0.412337
0.412339
0.412341
0.412344
0.412346
0.412349
0.412351
0.412353
0.412356
0.412358
0.41236
0.412362
0.412364
0.412367
0.412369
0.412371
0.412374
0.412373
0.41239
0.412366
0.412348
0.412345
0.412346
0.412347
0.412349
0.412351
0.412352
0.412354
0.412356
0.412358
0.412359
0.412361
0.412364
0.412363
0.412379
0.38991
0.389891
0.389889
0.389891
0.389893
0.389896
0.389899
0.389901
0.389904
0.389907
0.38991
0.389913
0.389915
0.389918
0.389921
0.389924
0.389926
0.389929
0.389932
0.389934
0.389937
0.38994
0.389942
0.389945
0.389948
0.38995
0.389953
0.389956
0.389958
0.389961
0.389964
0.389966
0.389969
0.389971
0.389974
0.389976
0.389979
0.389981
0.389984
0.389986
0.389989
0.389991
0.389994
0.389993
0.390011
0.389984
0.389964
0.389961
0.389961
0.389963
0.389965
0.389967
0.389969
0.389971
0.389973
0.389975
0.389977
0.389979
0.389982
0.389981
0.389998
0.368653
0.368633
0.368631
0.368633
0.368636
0.368639
0.368642
0.368645
0.368648
0.368651
0.368654
0.368657
0.36866
0.368663
0.368666
0.368669
0.368673
0.368676
0.368679
0.368681
0.368684
0.368687
0.36869
0.368693
0.368696
0.368699
0.368702
0.368705
0.368708
0.368711
0.368713
0.368716
0.368719
0.368722
0.368725
0.368727
0.36873
0.368733
0.368736
0.368738
0.368741
0.368743
0.368747
0.368746
0.368765
0.368734
0.368713
0.368709
0.36871
0.368711
0.368713
0.368715
0.368718
0.36872
0.368722
0.368724
0.368727
0.368729
0.368732
0.368731
0.36875
0.34846
0.348438
0.348435
0.348438
0.348441
0.348444
0.348447
0.348451
0.348454
0.348458
0.348461
0.348464
0.348468
0.348471
0.348474
0.348478
0.348481
0.348484
0.348488
0.348491
0.348494
0.348497
0.3485
0.348504
0.348507
0.34851
0.348513
0.348516
0.348519
0.348522
0.348526
0.348529
0.348532
0.348535
0.348538
0.348541
0.348544
0.348547
0.348549
0.348552
0.348555
0.348558
0.348561
0.348561
0.348581
0.348547
0.348524
0.34852
0.348521
0.348523
0.348525
0.348527
0.348529
0.348532
0.348534
0.348537
0.348539
0.348541
0.348545
0.348544
0.348564
0.329267
0.329244
0.329241
0.329243
0.329247
0.32925
0.329254
0.329257
0.329261
0.329265
0.329268
0.329272
0.329276
0.329279
0.329283
0.329287
0.32929
0.329294
0.329297
0.329301
0.329304
0.329308
0.329311
0.329314
0.329318
0.329321
0.329325
0.329328
0.329331
0.329335
0.329338
0.329341
0.329344
0.329348
0.329351
0.329354
0.329357
0.32936
0.329363
0.329367
0.32937
0.329373
0.329376
0.329376
0.329398
0.32936
0.329336
0.329332
0.329332
0.329334
0.329337
0.329339
0.329342
0.329344
0.329347
0.329349
0.329352
0.329354
0.329358
0.329357
0.329378
0.311019
0.310995
0.310992
0.310995
0.310998
0.311002
0.311006
0.31101
0.311014
0.311018
0.311021
0.311025
0.311029
0.311033
0.311037
0.311041
0.311045
0.311048
0.311052
0.311056
0.31106
0.311063
0.311067
0.31107
0.311074
0.311078
0.311081
0.311085
0.311088
0.311092
0.311095
0.311099
0.311102
0.311106
0.311109
0.311113
0.311116
0.311119
0.311123
0.311126
0.311129
0.311132
0.311136
0.311136
0.311159
0.311119
0.311093
0.311089
0.31109
0.311092
0.311094
0.311097
0.311099
0.311102
0.311105
0.311107
0.31111
0.311113
0.311116
0.311115
0.311138
0.293669
0.293643
0.29364
0.293643
0.293646
0.29365
0.293655
0.293659
0.293663
0.293667
0.293671
0.293675
0.293679
0.293683
0.293687
0.293691
0.293695
0.293699
0.293703
0.293707
0.293711
0.293715
0.293719
0.293723
0.293727
0.29373
0.293734
0.293738
0.293742
0.293745
0.293749
0.293753
0.293756
0.29376
0.293764
0.293767
0.293771
0.293774
0.293778
0.293781
0.293785
0.293788
0.293792
0.293792
0.293816
0.293773
0.293746
0.293742
0.293743
0.293745
0.293748
0.29375
0.293753
0.293756
0.293759
0.293762
0.293765
0.293767
0.293771
0.29377
0.293794
0.277171
0.277144
0.277141
0.277144
0.277148
0.277152
0.277156
0.27716
0.277165
0.277169
0.277173
0.277177
0.277182
0.277186
0.27719
0.277194
0.277199
0.277203
0.277207
0.277211
0.277215
0.277219
0.277223
0.277227
0.277231
0.277235
0.277239
0.277243
0.277247
0.277251
0.277255
0.277259
0.277263
0.277266
0.27727
0.277274
0.277278
0.277281
0.277285
0.277289
0.277292
0.277296
0.2773
0.277299
0.277324
0.27728
0.277252
0.277247
0.277249
0.277251
0.277254
0.277257
0.27726
0.277262
0.277265
0.277268
0.277271
0.277274
0.277278
0.277277
0.277301
0.261486
0.261458
0.261455
0.261458
0.261462
0.261466
0.261471
0.261475
0.26148
0.261484
0.261488
0.261493
0.261497
0.261502
0.261506
0.26151
0.261515
0.261519
0.261524
0.261528
0.261532
0.261536
0.261541
0.261545
0.261549
0.261553
0.261557
0.261561
0.261565
0.261569
0.261573
0.261577
0.261581
0.261585
0.261589
0.261593
0.261597
0.261601
0.261605
0.261609
0.261612
0.261616
0.261621
0.26162
0.261645
0.261599
0.26157
0.261566
0.261567
0.26157
0.261573
0.261576
0.261579
0.261582
0.261585
0.261588
0.261591
0.261594
0.261598
0.261597
0.261622
0.246579
0.24655
0.246547
0.24655
0.246554
0.246558
0.246563
0.246567
0.246572
0.246576
0.246581
0.246586
0.24659
0.246595
0.246599
0.246604
0.246608
0.246613
0.246617
0.246622
0.246626
0.246631
0.246635
0.246639
0.246643
0.246648
0.246652
0.246656
0.24666
0.246665
0.246669
0.246673
0.246677
0.246681
0.246685
0.246689
0.246694
0.246698
0.246701
0.246705
0.246709
0.246713
0.246718
0.246717
0.246743
0.246695
0.246665
0.246661
0.246663
0.246665
0.246668
0.246672
0.246675
0.246678
0.246681
0.246684
0.246687
0.24669
0.246694
0.246693
0.246719
0.232417
0.232387
0.232384
0.232387
0.232391
0.232396
0.2324
0.232405
0.232409
0.232414
0.232419
0.232423
0.232428
0.232433
0.232437
0.232442
0.232447
0.232451
0.232456
0.23246
0.232465
0.232469
0.232474
0.232478
0.232483
0.232487
0.232491
0.232496
0.2325
0.232505
0.232509
0.232513
0.232517
0.232522
0.232526
0.23253
0.232534
0.232538
0.232542
0.232546
0.23255
0.232554
0.232559
0.232559
0.232585
0.232536
0.232505
0.232501
0.232503
0.232506
0.232509
0.232512
0.232515
0.232519
0.232522
0.232525
0.232528
0.232531
0.232535
0.232534
0.23256
0.21897
0.21894
0.218936
0.218939
0.218943
0.218948
0.218953
0.218957
0.218962
0.218967
0.218971
0.218976
0.218981
0.218986
0.21899
0.218995
0.219
0.219004
0.219009
0.219014
0.219018
0.219023
0.219028
0.219032
0.219037
0.219041
0.219046
0.21905
0.219055
0.219059
0.219063
0.219068
0.219072
0.219076
0.219081
0.219085
0.219089
0.219094
0.219098
0.219102
0.219106
0.21911
0.219115
0.219114
0.219141
0.219091
0.21906
0.219056
0.219057
0.21906
0.219064
0.219067
0.21907
0.219074
0.219077
0.21908
0.219084
0.219087
0.219091
0.21909
0.219116
0.20621
0.20618
0.206176
0.206179
0.206183
0.206188
0.206192
0.206197
0.206202
0.206207
0.206211
0.206216
0.206221
0.206226
0.206231
0.206235
0.20624
0.206245
0.20625
0.206255
0.206259
0.206264
0.206269
0.206273
0.206278
0.206282
0.206287
0.206291
0.206296
0.2063
0.206305
0.206309
0.206314
0.206318
0.206323
0.206327
0.206331
0.206336
0.20634
0.206344
0.206348
0.206352
0.206357
0.206357
0.206384
0.206333
0.206301
0.206297
0.206299
0.206302
0.206306
0.206309
0.206313
0.206316
0.206319
0.206323
0.206326
0.206329
0.206334
0.206333
0.206359
0.194112
0.194081
0.194078
0.194081
0.194085
0.194089
0.194094
0.194099
0.194104
0.194108
0.194113
0.194118
0.194123
0.194128
0.194133
0.194137
0.194142
0.194147
0.194152
0.194157
0.194161
0.194166
0.194171
0.194176
0.19418
0.194185
0.194189
0.194194
0.194199
0.194203
0.194208
0.194212
0.194217
0.194221
0.194226
0.19423
0.194235
0.194239
0.194243
0.194248
0.194252
0.194256
0.194261
0.194261
0.194287
0.194236
0.194204
0.1942
0.194202
0.194205
0.194209
0.194212
0.194216
0.194219
0.194223
0.194226
0.19423
0.194233
0.194237
0.194236
0.194262
0.182651
0.18262
0.182617
0.18262
0.182624
0.182629
0.182633
0.182638
0.182643
0.182648
0.182652
0.182657
0.182662
0.182667
0.182672
0.182677
0.182682
0.182686
0.182691
0.182696
0.182701
0.182706
0.18271
0.182715
0.18272
0.182724
0.182729
0.182734
0.182738
0.182743
0.182747
0.182752
0.182757
0.182761
0.182766
0.18277
0.182774
0.182779
0.182783
0.182788
0.182792
0.182796
0.182801
0.182801
0.182827
0.182776
0.182744
0.18274
0.182742
0.182745
0.182749
0.182752
0.182756
0.18276
0.182763
0.182767
0.18277
0.182773
0.182778
0.182777
0.182803
0.171805
0.171774
0.17177
0.171773
0.171777
0.171782
0.171787
0.171791
0.171796
0.171801
0.171806
0.171811
0.171815
0.17182
0.171825
0.17183
0.171835
0.17184
0.171845
0.171849
0.171854
0.171859
0.171864
0.171868
0.171873
0.171878
0.171882
0.171887
0.171892
0.171896
0.171901
0.171905
0.17191
0.171915
0.171919
0.171924
0.171928
0.171932
0.171937
0.171941
0.171946
0.17195
0.171955
0.171955
0.171981
0.171929
0.171898
0.171893
0.171895
0.171899
0.171903
0.171906
0.17191
0.171914
0.171917
0.171921
0.171924
0.171928
0.171932
0.171931
0.171956
0.16155
0.161519
0.161516
0.161519
0.161523
0.161527
0.161532
0.161537
0.161542
0.161546
0.161551
0.161556
0.161561
0.161565
0.16157
0.161575
0.16158
0.161585
0.16159
0.161594
0.161599
0.161604
0.161609
0.161613
0.161618
0.161623
0.161627
0.161632
0.161637
0.161641
0.161646
0.16165
0.161655
0.16166
0.161664
0.161669
0.161673
0.161677
0.161682
0.161686
0.161691
0.161695
0.1617
0.1617
0.161726
0.161674
0.161643
0.161638
0.161641
0.161644
0.161648
0.161652
0.161655
0.161659
0.161663
0.161666
0.16167
0.161673
0.161677
0.161676
0.161702
0.151866
0.151835
0.151832
0.151835
0.151839
0.151843
0.151848
0.151853
0.151857
0.151862
0.151867
0.151871
0.151876
0.151881
0.151886
0.151891
0.151895
0.1519
0.151905
0.15191
0.151914
0.151919
0.151924
0.151929
0.151933
0.151938
0.151942
0.151947
0.151952
0.151956
0.151961
0.151965
0.15197
0.151974
0.151979
0.151983
0.151988
0.151992
0.151997
0.152001
0.152005
0.152009
0.152014
0.152015
0.15204
0.151989
0.151958
0.151954
0.151956
0.151959
0.151963
0.151967
0.151971
0.151974
0.151978
0.151981
0.151985
0.151988
0.151992
0.151992
0.152016
0.142731
0.142701
0.142697
0.1427
0.142704
0.142709
0.142713
0.142718
0.142722
0.142727
0.142732
0.142736
0.142741
0.142746
0.14275
0.142755
0.14276
0.142765
0.142769
0.142774
0.142779
0.142783
0.142788
0.142793
0.142797
0.142802
0.142806
0.142811
0.142816
0.14282
0.142825
0.142829
0.142834
0.142838
0.142843
0.142847
0.142851
0.142856
0.14286
0.142864
0.142869
0.142873
0.142878
0.142878
0.142903
0.142852
0.142822
0.142818
0.14282
0.142823
0.142827
0.142831
0.142835
0.142838
0.142842
0.142845
0.142849
0.142852
0.142856
0.142856
0.14288
0.134124
0.134094
0.134091
0.134094
0.134098
0.134102
0.134107
0.134111
0.134116
0.134121
0.134125
0.13413
0.134134
0.134139
0.134144
0.134148
0.134153
0.134158
0.134162
0.134167
0.134171
0.134176
0.134181
0.134185
0.13419
0.134194
0.134199
0.134203
0.134208
0.134212
0.134217
0.134221
0.134226
0.13423
0.134234
0.134239
0.134243
0.134247
0.134252
0.134256
0.13426
0.134264
0.134269
0.134269
0.134293
0.134244
0.134214
0.13421
0.134212
0.134216
0.134219
0.134223
0.134227
0.134231
0.134234
0.134238
0.134241
0.134244
0.134248
0.134248
0.134271
0.126026
0.125997
0.125993
0.125996
0.126
0.126004
0.126009
0.126013
0.126018
0.126022
0.126027
0.126031
0.126036
0.12604
0.126045
0.126049
0.126054
0.126058
0.126063
0.126067
0.126072
0.126077
0.126081
0.126085
0.12609
0.126094
0.126099
0.126103
0.126108
0.126112
0.126116
0.126121
0.126125
0.126129
0.126134
0.126138
0.126142
0.126147
0.126151
0.126155
0.126159
0.126163
0.126168
0.126168
0.126191
0.126143
0.126114
0.12611
0.126112
0.126116
0.126119
0.126123
0.126127
0.12613
0.126134
0.126137
0.126141
0.126144
0.126148
0.126148
0.12617
0.118415
0.118387
0.118383
0.118386
0.11839
0.118394
0.118398
0.118403
0.118407
0.118412
0.118416
0.11842
0.118425
0.118429
0.118434
0.118438
0.118442
0.118447
0.118451
0.118456
0.11846
0.118465
0.118469
0.118473
0.118478
0.118482
0.118486
0.118491
0.118495
0.118499
0.118504
0.118508
0.118512
0.118516
0.118521
0.118525
0.118529
0.118533
0.118537
0.118541
0.118545
0.118549
0.118554
0.118555
0.118577
0.11853
0.118501
0.118497
0.1185
0.118503
0.118507
0.11851
0.118514
0.118518
0.118521
0.118525
0.118528
0.118531
0.118535
0.118535
0.118556
0.111272
0.111244
0.111241
0.111244
0.111247
0.111252
0.111256
0.11126
0.111264
0.111269
0.111273
0.111277
0.111281
0.111286
0.11129
0.111294
0.111299
0.111303
0.111307
0.111312
0.111316
0.11132
0.111324
0.111329
0.111333
0.111337
0.111341
0.111346
0.11135
0.111354
0.111358
0.111362
0.111366
0.111371
0.111375
0.111379
0.111383
0.111387
0.111391
0.111395
0.111399
0.111403
0.111407
0.111408
0.111429
0.111384
0.111356
0.111352
0.111354
0.111358
0.111361
0.111365
0.111369
0.111372
0.111376
0.111379
0.111382
0.111385
0.111389
0.111389
0.11141
0.104576
0.104549
0.104546
0.104549
0.104552
0.104557
0.104561
0.104565
0.104569
0.104573
0.104577
0.104581
0.104585
0.10459
0.104594
0.104598
0.104602
0.104606
0.10461
0.104615
0.104619
0.104623
0.104627
0.104631
0.104635
0.10464
0.104644
0.104648
0.104652
0.104656
0.10466
0.104664
0.104668
0.104672
0.104676
0.10468
0.104684
0.104688
0.104692
0.104696
0.104699
0.104703
0.104707
0.104708
0.104728
0.104685
0.104657
0.104654
0.104656
0.10466
0.104663
0.104667
0.10467
0.104674
0.104677
0.104681
0.104684
0.104687
0.10469
0.104691
0.10471
0.0983082
0.0982819
0.0982791
0.0982815
0.0982852
0.0982891
0.0982931
0.0982971
0.098301
0.098305
0.098309
0.098313
0.098317
0.098321
0.098325
0.098329
0.0983331
0.0983371
0.0983412
0.0983452
0.0983493
0.0983533
0.0983573
0.0983613
0.0983653
0.0983692
0.0983732
0.0983772
0.0983811
0.098385
0.098389
0.0983929
0.0983968
0.0984007
0.0984045
0.0984084
0.0984122
0.098416
0.0984198
0.0984235
0.0984273
0.0984309
0.098435
0.0984359
0.098455
0.0984128
0.0983865
0.0983834
0.0983856
0.0983889
0.0983925
0.098396
0.0983994
0.0984028
0.0984061
0.0984093
0.0984125
0.0984155
0.098419
0.0984193
0.0984378
0.0924477
0.0924224
0.0924197
0.092422
0.0924256
0.0924294
0.0924332
0.0924371
0.0924409
0.0924447
0.0924486
0.0924524
0.0924562
0.0924601
0.092464
0.0924678
0.0924717
0.0924756
0.0924795
0.0924834
0.0924873
0.0924912
0.092495
0.0924989
0.0925027
0.0925066
0.0925104
0.0925142
0.092518
0.0925217
0.0925255
0.0925293
0.0925331
0.0925368
0.0925405
0.0925442
0.0925479
0.0925516
0.0925553
0.0925589
0.0925625
0.092566
0.0925699
0.0925709
0.0925889
0.0925485
0.0925232
0.0925203
0.0925224
0.0925257
0.0925291
0.0925326
0.0925359
0.0925392
0.0925424
0.0925456
0.0925487
0.0925516
0.092555
0.0925553
0.0925729
0.0869752
0.086951
0.0869484
0.0869507
0.0869541
0.0869577
0.0869614
0.0869651
0.0869688
0.0869725
0.0869762
0.0869799
0.0869835
0.0869872
0.0869909
0.0869947
0.0869984
0.0870021
0.0870058
0.0870096
0.0870133
0.087017
0.0870207
0.0870244
0.0870281
0.0870318
0.0870354
0.0870391
0.0870427
0.0870463
0.08705
0.0870536
0.0870572
0.0870608
0.0870644
0.0870679
0.0870715
0.087075
0.0870785
0.087082
0.0870855
0.0870888
0.0870926
0.0870936
0.0871106
0.087072
0.0870477
0.0870449
0.0870471
0.0870502
0.0870536
0.087057
0.0870602
0.0870635
0.0870666
0.0870696
0.0870726
0.0870755
0.0870787
0.0870792
0.0870957
0.0818713
0.0818481
0.0818457
0.0818479
0.0818512
0.0818547
0.0818583
0.0818618
0.0818653
0.0818689
0.0818724
0.0818759
0.0818794
0.0818829
0.0818865
0.08189
0.0818936
0.0818972
0.0819007
0.0819043
0.0819078
0.0819114
0.0819149
0.0819185
0.081922
0.0819255
0.081929
0.0819325
0.0819359
0.0819394
0.0819429
0.0819463
0.0819498
0.0819532
0.0819567
0.0819601
0.0819635
0.0819669
0.0819702
0.0819735
0.0819769
0.0819801
0.0819837
0.0819847
0.0820007
0.0819638
0.0819406
0.0819381
0.0819402
0.0819433
0.0819465
0.0819498
0.081953
0.0819561
0.0819591
0.0819621
0.081965
0.0819677
0.0819709
0.0819714
0.0819869
0.0771169
0.0770947
0.0770924
0.0770945
0.0770977
0.0771011
0.0771045
0.0771079
0.0771113
0.0771146
0.077118
0.0771213
0.0771247
0.077128
0.0771314
0.0771348
0.0771382
0.0771416
0.077145
0.0771483
0.0771517
0.0771551
0.0771585
0.0771618
0.0771652
0.0771685
0.0771719
0.0771752
0.0771785
0.0771818
0.0771851
0.0771884
0.0771917
0.077195
0.0771982
0.0772015
0.0772047
0.077208
0.0772112
0.0772143
0.0772175
0.0772206
0.077224
0.0772251
0.07724
0.077205
0.0771829
0.0771805
0.0771826
0.0771856
0.0771887
0.0771919
0.077195
0.077198
0.0772009
0.0772038
0.0772066
0.0772093
0.0772123
0.0772129
0.0772273
0.072693
0.0726719
0.0726697
0.0726718
0.0726748
0.0726781
0.0726813
0.0726846
0.0726878
0.072691
0.0726942
0.0726974
0.0727005
0.0727037
0.0727069
0.0727101
0.0727133
0.0727165
0.0727198
0.072723
0.0727262
0.0727294
0.0727326
0.0727358
0.0727389
0.0727421
0.0727453
0.0727484
0.0727516
0.0727547
0.0727578
0.072761
0.0727641
0.0727672
0.0727703
0.0727734
0.0727765
0.0727796
0.0727826
0.0727856
0.0727886
0.0727916
0.0727948
0.0727959
0.0728098
0.0727766
0.0727556
0.0727534
0.0727554
0.0727584
0.0727614
0.0727645
0.0727675
0.0727704
0.0727732
0.072776
0.0727787
0.0727813
0.0727841
0.0727848
0.0727983
0.0685812
0.0685612
0.0685592
0.0685612
0.0685641
0.0685672
0.0685703
0.0685734
0.0685764
0.0685795
0.0685825
0.0685855
0.0685885
0.0685916
0.0685946
0.0685976
0.0686006
0.0686037
0.0686067
0.0686097
0.0686128
0.0686158
0.0686188
0.0686218
0.0686248
0.0686278
0.0686308
0.0686338
0.0686368
0.0686397
0.0686427
0.0686457
0.0686486
0.0686516
0.0686545
0.0686574
0.0686603
0.0686632
0.0686661
0.068669
0.0686719
0.0686746
0.0686777
0.0686788
0.0686917
0.0686604
0.0686405
0.0686385
0.0686404
0.0686432
0.0686462
0.0686491
0.068652
0.0686548
0.0686576
0.0686602
0.0686628
0.0686653
0.0686681
0.0686688
0.0686813
0.0647636
0.0647448
0.0647429
0.0647448
0.0647476
0.0647505
0.0647534
0.0647564
0.0647593
0.0647622
0.064765
0.0647679
0.0647707
0.0647736
0.0647764
0.0647793
0.0647821
0.064785
0.0647879
0.0647907
0.0647936
0.0647964
0.0647992
0.0648021
0.0648049
0.0648077
0.0648105
0.0648133
0.0648162
0.0648189
0.0648217
0.0648245
0.0648273
0.0648301
0.0648329
0.0648356
0.0648384
0.0648411
0.0648438
0.0648466
0.0648493
0.0648519
0.0648548
0.0648559
0.0648677
0.0648383
0.0648195
0.0648177
0.0648196
0.0648223
0.0648251
0.064828
0.0648307
0.0648334
0.0648361
0.0648386
0.0648411
0.0648435
0.0648461
0.064847
0.0648585
0.0612228
0.0612051
0.0612033
0.0612052
0.0612078
0.0612106
0.0612134
0.0612161
0.0612189
0.0612216
0.0612243
0.061227
0.0612297
0.0612324
0.061235
0.0612377
0.0612404
0.0612431
0.0612458
0.0612485
0.0612511
0.0612538
0.0612565
0.0612591
0.0612618
0.0612644
0.0612671
0.0612697
0.0612723
0.0612749
0.0612776
0.0612802
0.0612828
0.0612854
0.061288
0.0612906
0.0612932
0.0612958
0.0612983
0.0613009
0.0613034
0.0613059
0.0613086
0.0613097
0.0613206
0.061293
0.0612753
0.0612736
0.0612755
0.0612781
0.0612808
0.0612835
0.0612862
0.0612888
0.0612913
0.0612938
0.0612962
0.0612985
0.061301
0.0613018
0.0613125
0.0579419
0.0579252
0.0579236
0.0579254
0.0579279
0.0579305
0.0579332
0.0579358
0.0579384
0.057941
0.0579435
0.0579461
0.0579486
0.0579511
0.0579536
0.0579561
0.0579586
0.0579611
0.0579636
0.0579661
0.0579686
0.0579711
0.0579736
0.0579761
0.0579786
0.0579811
0.0579835
0.057986
0.0579885
0.0579909
0.0579934
0.0579958
0.0579983
0.0580007
0.0580031
0.0580056
0.058008
0.0580104
0.0580128
0.0580152
0.0580176
0.0580199
0.0580225
0.0580236
0.0580336
0.0580077
0.0579911
0.0579895
0.0579913
0.0579938
0.0579965
0.0579991
0.0580016
0.0580041
0.0580065
0.0580089
0.0580112
0.0580134
0.0580157
0.0580166
0.0580264
0.0549048
0.0548891
0.0548877
0.0548894
0.0548917
0.0548942
0.0548967
0.0548992
0.0549017
0.0549041
0.0549065
0.0549088
0.0549112
0.0549135
0.0549159
0.0549182
0.0549206
0.0549229
0.0549253
0.0549276
0.0549299
0.0549322
0.0549346
0.0549369
0.0549392
0.0549415
0.0549438
0.0549461
0.0549484
0.0549507
0.0549529
0.0549552
0.0549575
0.0549598
0.0549621
0.0549643
0.0549666
0.0549688
0.0549711
0.0549733
0.0549756
0.0549777
0.0549801
0.0549812
0.0549903
0.0549661
0.0549506
0.0549492
0.0549509
0.0549533
0.0549558
0.0549583
0.0549608
0.0549632
0.0549655
0.0549677
0.0549699
0.054972
0.0549743
0.0549752
0.0549841
0.0520958
0.0520812
0.0520799
0.0520815
0.0520837
0.0520861
0.0520884
0.0520908
0.0520931
0.0520953
0.0520976
0.0520998
0.052102
0.0521042
0.0521064
0.0521086
0.0521108
0.0521129
0.0521151
0.0521173
0.0521194
0.0521216
0.0521238
0.0521259
0.052128
0.0521302
0.0521323
0.0521344
0.0521366
0.0521387
0.0521408
0.0521429
0.052145
0.0521472
0.0521493
0.0521514
0.0521535
0.0521556
0.0521577
0.0521598
0.0521618
0.0521639
0.0521661
0.0521671
0.0521755
0.0521529
0.0521384
0.0521371
0.0521388
0.0521411
0.0521435
0.0521459
0.0521482
0.0521505
0.0521527
0.0521548
0.0521569
0.0521589
0.0521611
0.052162
0.0521702
0.0495002
0.0494866
0.0494854
0.0494869
0.0494891
0.0494913
0.0494935
0.0494957
0.0494979
0.0495
0.0495021
0.0495042
0.0495062
0.0495083
0.0495103
0.0495123
0.0495144
0.0495164
0.0495184
0.0495204
0.0495224
0.0495244
0.0495264
0.0495284
0.0495304
0.0495323
0.0495343
0.0495363
0.0495383
0.0495402
0.0495422
0.0495441
0.0495461
0.0495481
0.04955
0.049552
0.0495539
0.0495559
0.0495578
0.0495597
0.0495617
0.0495636
0.0495656
0.0495666
0.0495742
0.0495532
0.0495397
0.0495385
0.0495401
0.0495423
0.0495446
0.0495469
0.0495491
0.0495513
0.0495534
0.0495554
0.0495574
0.0495593
0.0495613
0.0495623
0.0495698
0.047104
0.0470914
0.0470903
0.0470917
0.0470937
0.0470958
0.0470979
0.0471
0.047102
0.047104
0.0471059
0.0471079
0.0471098
0.0471117
0.0471136
0.0471155
0.0471173
0.0471192
0.0471211
0.0471229
0.0471248
0.0471266
0.0471284
0.0471303
0.0471321
0.0471339
0.0471357
0.0471376
0.0471394
0.0471412
0.047143
0.0471448
0.0471466
0.0471484
0.0471502
0.047152
0.0471538
0.0471556
0.0471574
0.0471592
0.047161
0.0471627
0.0471646
0.0471656
0.0471724
0.0471529
0.0471404
0.0471394
0.0471409
0.047143
0.0471452
0.0471473
0.0471494
0.0471515
0.0471535
0.0471554
0.0471573
0.0471591
0.047161
0.047162
0.0471688
0.0448938
0.0448821
0.0448811
0.0448825
0.0448844
0.0448863
0.0448883
0.0448902
0.0448921
0.044894
0.0448958
0.0448976
0.0448994
0.0449012
0.0449029
0.0449046
0.0449064
0.0449081
0.0449098
0.0449115
0.0449132
0.0449149
0.0449166
0.0449183
0.04492
0.0449216
0.0449233
0.044925
0.0449266
0.0449283
0.04493
0.0449316
0.0449333
0.0449349
0.0449366
0.0449383
0.0449399
0.0449416
0.0449432
0.0449449
0.0449465
0.0449481
0.0449499
0.0449508
0.044957
0.0449388
0.0449272
0.0449264
0.0449278
0.0449298
0.0449318
0.0449339
0.0449359
0.0449378
0.0449397
0.0449416
0.0449434
0.0449451
0.0449469
0.0449479
0.0449541
0.0428571
0.0428463
0.0428454
0.0428467
0.0428485
0.0428503
0.0428522
0.042854
0.0428557
0.0428575
0.0428592
0.0428609
0.0428625
0.0428641
0.0428658
0.0428674
0.042869
0.0428706
0.0428721
0.0428737
0.0428753
0.0428768
0.0428784
0.0428799
0.0428815
0.042883
0.0428845
0.042886
0.0428876
0.0428891
0.0428906
0.0428921
0.0428936
0.0428952
0.0428967
0.0428982
0.0428997
0.0429012
0.0429027
0.0429043
0.0429058
0.0429073
0.0429088
0.0429097
0.0429153
0.0428985
0.0428878
0.042887
0.0428884
0.0428902
0.0428922
0.0428941
0.042896
0.0428978
0.0428996
0.0429014
0.0429031
0.0429047
0.0429064
0.0429074
0.042913
0.0409822
0.0409722
0.0409714
0.0409727
0.0409743
0.0409761
0.0409778
0.0409795
0.0409811
0.0409827
0.0409843
0.0409859
0.0409874
0.0409889
0.0409904
0.0409919
0.0409934
0.0409948
0.0409963
0.0409977
0.0409992
0.0410006
0.041002
0.0410034
0.0410048
0.0410062
0.0410076
0.041009
0.0410104
0.0410118
0.0410132
0.0410146
0.0410159
0.0410173
0.0410187
0.0410201
0.0410215
0.0410229
0.0410242
0.0410256
0.041027
0.0410284
0.0410298
0.0410307
0.0410357
0.0410201
0.0410102
0.0410095
0.0410108
0.0410126
0.0410144
0.0410162
0.041018
0.0410198
0.0410215
0.0410231
0.0410247
0.0410263
0.0410279
0.0410288
0.0410339
0.0392581
0.039249
0.0392483
0.0392494
0.039251
0.0392526
0.0392542
0.0392558
0.0392573
0.0392588
0.0392603
0.0392618
0.0392632
0.0392646
0.039266
0.0392673
0.0392687
0.03927
0.0392713
0.0392727
0.039274
0.0392753
0.0392766
0.0392779
0.0392791
0.0392804
0.0392817
0.039283
0.0392842
0.0392855
0.0392867
0.039288
0.0392892
0.0392905
0.0392918
0.039293
0.0392943
0.0392955
0.0392968
0.0392981
0.0392993
0.0393006
0.0393019
0.0393027
0.0393071
0.0392927
0.0392836
0.039283
0.0392842
0.0392859
0.0392876
0.0392893
0.039291
0.0392927
0.0392943
0.0392958
0.0392974
0.0392988
0.0393003
0.0393013
0.0393059
0.0376747
0.0376663
0.0376657
0.0376668
0.0376683
0.0376698
0.0376713
0.0376727
0.0376742
0.0376756
0.037677
0.0376783
0.0376796
0.0376809
0.0376822
0.0376834
0.0376847
0.0376859
0.0376871
0.0376883
0.0376895
0.0376907
0.0376919
0.0376931
0.0376942
0.0376954
0.0376966
0.0376977
0.0376988
0.0377
0.0377011
0.0377023
0.0377034
0.0377045
0.0377057
0.0377068
0.037708
0.0377091
0.0377102
0.0377114
0.0377125
0.0377137
0.0377148
0.0377156
0.0377196
0.0377061
0.0376978
0.0376973
0.0376985
0.0377
0.0377017
0.0377033
0.0377048
0.0377064
0.0377079
0.0377094
0.0377108
0.0377122
0.0377136
0.0377145
0.0377187
0.0362226
0.0362149
0.0362144
0.0362154
0.0362168
0.0362182
0.0362196
0.036221
0.0362223
0.0362236
0.0362249
0.0362261
0.0362273
0.0362285
0.0362297
0.0362309
0.036232
0.0362331
0.0362343
0.0362354
0.0362364
0.0362375
0.0362386
0.0362397
0.0362407
0.0362418
0.0362428
0.0362439
0.0362449
0.0362459
0.036247
0.036248
0.036249
0.03625
0.0362511
0.0362521
0.0362531
0.0362541
0.0362552
0.0362562
0.0362572
0.0362583
0.0362593
0.03626
0.0362636
0.0362511
0.0362435
0.036243
0.0362441
0.0362456
0.0362471
0.0362486
0.0362501
0.0362515
0.036253
0.0362544
0.0362557
0.036257
0.0362584
0.0362593
0.036263
0.0348931
0.0348861
0.0348857
0.0348866
0.0348879
0.0348892
0.0348905
0.0348918
0.034893
0.0348943
0.0348954
0.0348966
0.0348977
0.0348988
0.0348999
0.034901
0.034902
0.0349031
0.0349041
0.0349051
0.0349061
0.0349071
0.0349081
0.034909
0.03491
0.0349109
0.0349119
0.0349128
0.0349137
0.0349147
0.0349156
0.0349165
0.0349174
0.0349184
0.0349193
0.0349202
0.0349211
0.0349221
0.034923
0.0349239
0.0349249
0.0349258
0.0349267
0.0349274
0.0349305