/*--------------------------------*- C++ -*----------------------------------*\
  =========                 |
  \\      /  F ield         | OpenFOAM: The Open Source CFD Toolbox
   \\    /   O peration     | Website:  https://openfoam.org
    \\  /    A nd           | Version:  7
     \\/     M anipulation  |
\*---------------------------------------------------------------------------*/
FoamFile
{
    version     2.0;
    format      ascii;
    class       volScalarField;
    location    "95500";
    object      Cy;
}
// * * * * * * * * * * * * * * * * * * * * * * * * * * * * * * * * * * * * * //

dimensions      [0 1 0 0 0 0 0];

internalField   nonuniform List<scalar> 
600
(
7.71795e-05
0.000232736
0.000390708
0.000551131
0.000714044
0.000879486
0.0010475
0.00121811
0.00139138
0.00156733
0.00174602
0.00192748
0.00211175
0.00229889
0.00248893
0.00268192
0.00287791
0.00307693
0.00327905
0.0034843
0.00369274
0.00390442
0.00411938
0.00433767
0.00455936
0.00478448
0.0050131
0.00524527
0.00548104
0.00572047
0.00596362
0.00621054
0.0064613
0.00671594
0.00697454
0.00723715
0.00750384
0.00777467
0.0080497
0.008329
0.00861263
0.00890067
0.00919318
0.00949022
0.00979188
0.0100982
0.0104093
0.0107252
0.0110461
0.0113719
0.0117027
0.0120387
0.0123799
0.0127265
0.0130783
0.0134357
0.0137986
0.0141671
0.0145414
0.0149214
0.0153074
0.0156993
0.0160974
0.0165016
0.0169121
0.0173289
0.0177522
0.0181821
0.0186187
0.019062
0.0195123
0.0199695
0.0204338
0.0209053
0.0213841
0.0218704
0.0223642
0.0228657
0.0233749
0.0238921
0.0244173
0.0249506
0.0254923
0.0260423
0.0266008
0.0271681
0.0277441
0.0283291
0.0289232
0.0295264
0.0301391
0.0307612
0.031393
0.0320346
0.0326862
0.0333479
0.0340199
0.0347022
0.0353952
0.036099
0.0368136
0.0375394
0.0382764
0.0390248
0.0397849
0.0405568
0.0413406
0.0421366
0.042945
0.0437659
0.0445996
0.0454461
0.0463059
0.047179
0.0480656
0.048966
0.0498803
0.0508089
0.0517519
0.0527095
0.053682
0.0546695
0.0556724
0.0566909
0.0577251
0.0587754
0.0598421
0.0609252
0.0620252
0.0631423
0.0642767
0.0654287
0.0665986
0.0677866
0.0689931
0.0702183
0.0714625
0.0727261
0.0740092
0.0753123
0.0766356
0.0779794
0.0793441
0.08073
0.0821374
0.0835666
0.085018
0.0864919
0.0879887
0.0895088
0.0910524
0.09262
0.0942119
0.0958286
0.0974703
0.0991375
0.100831
0.10255
0.104296
0.106069
0.10787
0.109698
0.111555
0.113441
0.115356
0.117301
0.119276
0.121282
0.123319
0.125387
0.127488
0.129621
0.131787
0.133987
0.136221
0.138489
0.140793
0.143133
0.145509
0.147922
0.150372
0.15286
0.155387
0.157953
0.160559
0.163206
0.165893
0.168622
0.171394
0.174209
0.177067
0.179969
0.182917
0.185911
0.18895
0.192038
0.195173
0.198356
0.201589
0.204872
0.208207
0.211593
0.215031
0.218523
0.222069
0.22567
0.229327
0.233041
0.236812
0.240642
0.244532
0.248482
0.252493
0.256566
0.260703
0.264903
0.269169
0.273501
0.277901
0.282369
0.286906
0.291513
0.296192
0.300944
0.305769
0.310669
0.315645
0.320699
0.325831
0.331043
0.336335
0.34171
0.347168
0.352711
0.35834
0.364056
0.369861
0.375756
0.381742
0.387822
0.393995
0.400265
0.406632
0.413098
0.419664
0.426332
0.433103
0.43998
0.446963
0.454055
0.461257
0.46857
0.475997
0.48354
0.491199
0.498978
0.506877
0.514898
0.523044
0.531317
0.539718
0.548249
0.556913
0.565712
0.574646
0.58372
0.592934
0.602292
0.611794
0.621444
0.631244
0.641196
0.651303
0.661566
0.671988
0.682573
0.693322
0.704237
0.715322
0.726579
0.738011
0.74962
0.761409
0.773381
0.785539
0.797886
0.810425
0.823158
0.836088
0.84922
0.862555
0.876097
0.88985
0.903815
0.917998
0.932401
0.947027
0.96188
0.976964
0.992282
1.00772
1.02304
1.03812
1.05297
1.0676
1.082
1.09618
1.11015
1.1239
1.13744
1.15078
1.16391
1.17684
1.18958
1.20211
1.21446
1.22662
1.23859
1.25038
1.26199
1.27342
1.28468
1.29576
1.30668
1.31743
1.32801
1.33843
1.3487
1.3588
1.36876
1.37856
1.38821
1.39771
1.40707
1.41628
1.42535
1.43429
1.44309
1.45175
1.46028
1.46868
1.47696
1.4851
1.49312
1.50102
1.5088
1.51646
1.524
1.53143
1.53874
1.54595
1.55304
1.56002
1.5669
1.57367
1.58034
1.5869
1.59337
1.59974
1.606
1.61218
1.61826
1.62424
1.63014
1.63594
1.64166
1.64729
1.65283
1.65829
1.66366
1.66896
1.67417
1.6793
1.68435
1.68933
1.69423
1.69906
1.70381
1.70849
1.71309
1.71763
1.7221
1.7265
1.73083
1.7351
1.7393
1.74343
1.74751
1.75152
1.75547
1.75936
1.76319
1.76696
1.77067
1.77433
1.77793
1.78148
1.78497
1.78841
1.79179
1.79513
1.79841
1.80164
1.80483
1.80796
1.81105
1.81409
1.81708
1.82003
1.82293
1.82579
1.82861
1.83138
1.83411
1.83679
1.83944
1.84205
1.84461
1.84714
1.84963
1.85208
1.85449
1.85687
1.85921
1.86151
1.86378
1.86601
1.86821
1.87038
1.87251
1.87461
1.87668
1.87872
1.88072
1.8827
1.88464
1.88656
1.88844
1.8903
1.89213
1.89393
1.8957
1.89745
1.89917
1.90086
1.90253
1.90417
1.90579
1.90738
1.90895
1.91049
1.91201
1.91351
1.91498
1.91643
1.91786
1.91927
1.92066
1.92202
1.92336
1.92469
1.92599
1.92727
1.92854
1.92978
1.93101
1.93221
1.9334
1.93457
1.93572
1.93686
1.93797
1.93907
1.94016
1.94122
1.94227
1.94331
1.94433
1.94533
1.94632
1.94729
1.94825
1.94919
1.95012
1.95103
1.95193
1.95282
1.95369
1.95455
1.9554
1.95623
1.95706
1.95786
1.95866
1.95944
1.96022
1.96098
1.96172
1.96246
1.96319
1.9639
1.9646
1.9653
1.96598
1.96665
1.96731
1.96797
1.96861
1.96924
1.96986
1.97047
1.97108
1.97167
1.97226
1.97283
1.9734
1.97396
1.97451
1.97505
1.97558
1.97611
1.97663
1.97713
1.97764
1.97813
1.97862
1.97909
1.97957
1.98003
1.98049
1.98094
1.98138
1.98182
1.98225
1.98267
1.98309
1.9835
1.9839
1.9843
1.98469
1.98508
1.98546
1.98583
1.9862
1.98656
1.98692
1.98727
1.98762
1.98796
1.9883
1.98863
1.98895
1.98927
1.98959
1.9899
1.99021
1.99051
1.99081
1.9911
1.99139
1.99167
1.99195
1.99223
1.9925
1.99276
1.99303
1.99328
1.99354
1.99379
1.99404
1.99428
1.99452
1.99475
1.99499
1.99522
1.99544
1.99566
1.99588
1.9961
1.99631
1.99652
1.99672
1.99692
1.99712
1.99732
1.99751
1.9977
1.99789
1.99807
1.99825
1.99843
1.99861
1.99878
1.99895
1.99912
1.99929
1.99945
1.99961
1.99977
1.99992
)
;

boundaryField
{
    bottomWall
    {
        type            calculated;
        value           uniform 0;
    }
    topWall
    {
        type            calculated;
        value           uniform 2;
    }
    sides1_half0
    {
        type            empty;
    }
    sides1_half1
    {
        type            empty;
    }
    sides2_half0
    {
        type            empty;
    }
    sides2_half1
    {
        type            empty;
    }
    inout1_half0
    {
        type            cyclic;
    }
    inout1_half1
    {
        type            cyclic;
    }
    inout2_half0
    {
        type            cyclic;
    }
    inout2_half1
    {
        type            cyclic;
    }
}


// ************************************************************************* //
