/*--------------------------------*- C++ -*----------------------------------*\
  =========                 |
  \\      /  F ield         | OpenFOAM: The Open Source CFD Toolbox
   \\    /   O peration     | Website:  https://openfoam.org
    \\  /    A nd           | Version:  7
     \\/     M anipulation  |
\*---------------------------------------------------------------------------*/
FoamFile
{
    version     2.0;
    format      ascii;
    class       volScalarField;
    location    "95500";
    object      nut;
}
// * * * * * * * * * * * * * * * * * * * * * * * * * * * * * * * * * * * * * //

dimensions      [0 2 -1 0 0 0 0];

internalField   nonuniform List<scalar> 
600
(
3.20876e-18
5.6372e-16
1.19098e-14
9.2538e-14
4.25049e-13
1.42491e-12
3.88235e-12
9.14099e-12
1.93183e-11
3.7574e-11
6.84322e-11
1.18167e-10
1.95255e-10
3.10912e-10
4.79717e-10
7.20334e-10
1.05635e-09
1.51722e-09
2.13941e-09
2.96757e-09
4.056e-09
5.47022e-09
7.28873e-09
9.60498e-09
1.25296e-08
1.61926e-08
2.07462e-08
2.63675e-08
3.32616e-08
4.16645e-08
5.18467e-08
6.41164e-08
7.88231e-08
9.63611e-08
1.17173e-07
1.41751e-07
1.70644e-07
2.04455e-07
2.43847e-07
2.8954e-07
3.42315e-07
4.03012e-07
4.72525e-07
5.51806e-07
6.4185e-07
7.437e-07
8.58431e-07
9.87148e-07
1.13097e-06
1.29103e-06
1.46844e-06
1.66432e-06
1.87975e-06
2.11577e-06
2.37337e-06
2.65349e-06
2.95699e-06
3.28469e-06
3.63729e-06
4.01544e-06
4.4197e-06
4.85055e-06
5.3084e-06
5.79358e-06
6.30633e-06
6.84687e-06
7.41533e-06
8.01179e-06
8.6363e-06
9.28885e-06
9.96942e-06
1.06779e-05
1.14143e-05
1.21785e-05
1.29703e-05
1.37896e-05
1.46363e-05
1.55101e-05
1.64111e-05
1.72845e-05
1.81661e-05
1.90732e-05
2.00088e-05
2.09737e-05
2.19684e-05
2.29932e-05
2.40486e-05
2.51349e-05
2.62525e-05
2.74016e-05
2.85827e-05
2.97961e-05
3.10422e-05
3.23211e-05
3.36334e-05
3.49792e-05
3.63589e-05
3.77728e-05
3.92212e-05
4.07044e-05
4.22227e-05
4.37764e-05
4.53659e-05
4.69912e-05
4.86524e-05
5.03496e-05
5.20834e-05
5.38542e-05
5.56621e-05
5.75076e-05
5.93906e-05
6.13116e-05
6.32708e-05
6.52683e-05
6.73044e-05
6.93794e-05
7.14933e-05
7.36466e-05
7.58393e-05
7.80717e-05
8.0344e-05
8.26563e-05
8.5009e-05
8.74022e-05
8.98361e-05
9.23108e-05
9.48267e-05
9.73838e-05
9.99824e-05
0.000102623
0.000105305
0.000108029
0.000110795
0.000113603
0.000116454
0.000119348
0.000122285
0.000125264
0.000128287
0.000131353
0.000134462
0.000137615
0.000140812
0.000144052
0.000147337
0.000150665
0.000154038
0.000157455
0.000160916
0.000164422
0.000167973
0.000171568
0.000175208
0.000178893
0.000182623
0.000186398
0.000190218
0.000194083
0.000197993
0.000201949
0.000205949
0.000209995
0.000214086
0.000218222
0.000222403
0.00022663
0.000230902
0.000235219
0.000239581
0.000243988
0.000248439
0.000252936
0.000257478
0.000262064
0.000266695
0.00027137
0.00027609
0.000280854
0.000285661
0.000290513
0.000295408
0.000300346
0.000305328
0.000310353
0.00031542
0.00032053
0.000325682
0.000330876
0.000336112
0.000341388
0.000346706
0.000352065
0.000357463
0.000362902
0.00036838
0.000373897
0.000379452
0.000385046
0.000390677
0.000396346
0.000402051
0.000407793
0.00041357
0.000419383
0.00042523
0.000431112
0.000437028
0.000442978
0.000448963
0.000454982
0.000461039
0.000467134
0.000473272
0.000479457
0.000485699
0.000492007
0.000498396
0.000504886
0.000511499
0.000518266
0.000525222
0.000532404
0.000539851
0.000547594
0.000555648
0.000563992
0.000572543
0.000581121
0.000589392
0.00059681
0.000603892
0.000610998
0.000618127
0.000625278
0.000632451
0.000639643
0.000646854
0.000654082
0.000661327
0.000668587
0.000675861
0.000683147
0.000690445
0.000697753
0.00070507
0.000712394
0.000719724
0.000727059
0.000734397
0.000741738
0.000749079
0.000756419
0.000763757
0.000771091
0.000778419
0.000785741
0.000793054
0.000800357
0.000807647
0.000814924
0.000822185
0.000829428
0.000836651
0.000843851
0.000851027
0.000858175
0.000865293
0.000872378
0.000879426
0.000886434
0.000893398
0.000900313
0.000907176
0.000913979
0.000920719
0.000927389
0.000933981
0.000940488
0.000946902
0.000953213
0.000959411
0.000965485
0.000971422
0.00097721
0.000982833
0.000988275
0.00099352
0.000998548
0.00100334
0.00100787
0.00101213
0.00101608
0.0010197
0.00102296
0.00102585
0.00102832
0.00103035
0.00103192
0.00103299
0.00103354
0.00103354
0.00103299
0.00103192
0.00103035
0.00102832
0.00102585
0.00102296
0.0010197
0.00101608
0.00101213
0.00100787
0.00100334
0.000998548
0.00099352
0.000988275
0.000982833
0.00097721
0.000971422
0.000965485
0.000959411
0.000953213
0.000946902
0.000940488
0.000933981
0.000927389
0.000920719
0.000913979
0.000907176
0.000900313
0.000893398
0.000886434
0.000879426
0.000872378
0.000865293
0.000858175
0.000851027
0.000843851
0.000836651
0.000829428
0.000822185
0.000814924
0.000807647
0.000800357
0.000793054
0.000785741
0.000778419
0.000771091
0.000763757
0.000756419
0.000749079
0.000741738
0.000734397
0.000727059
0.000719724
0.000712394
0.00070507
0.000697753
0.000690445
0.000683147
0.000675861
0.000668587
0.000661327
0.000654082
0.000646854
0.000639643
0.000632451
0.000625278
0.000618127
0.000610998
0.000603892
0.00059681
0.000589392
0.000581121
0.000572543
0.000563992
0.000555648
0.000547594
0.000539851
0.000532404
0.000525222
0.000518266
0.000511499
0.000504886
0.000498396
0.000492007
0.000485699
0.000479457
0.000473272
0.000467134
0.000461039
0.000454982
0.000448963
0.000442978
0.000437028
0.000431112
0.00042523
0.000419383
0.00041357
0.000407793
0.000402051
0.000396346
0.000390677
0.000385046
0.000379452
0.000373897
0.00036838
0.000362902
0.000357463
0.000352065
0.000346706
0.000341388
0.000336112
0.000330876
0.000325682
0.00032053
0.00031542
0.000310353
0.000305328
0.000300346
0.000295408
0.000290513
0.000285661
0.000280854
0.00027609
0.00027137
0.000266695
0.000262064
0.000257478
0.000252936
0.000248439
0.000243988
0.000239581
0.000235219
0.000230902
0.00022663
0.000222403
0.000218222
0.000214086
0.000209995
0.000205949
0.000201949
0.000197993
0.000194083
0.000190218
0.000186398
0.000182623
0.000178893
0.000175208
0.000171568
0.000167973
0.000164422
0.000160916
0.000157455
0.000154038
0.000150665
0.000147337
0.000144052
0.000140812
0.000137615
0.000134462
0.000131353
0.000128287
0.000125264
0.000122285
0.000119348
0.000116454
0.000113603
0.000110795
0.000108029
0.000105305
0.000102623
9.99824e-05
9.73838e-05
9.48267e-05
9.23108e-05
8.98361e-05
8.74022e-05
8.5009e-05
8.26563e-05
8.0344e-05
7.80717e-05
7.58393e-05
7.36466e-05
7.14933e-05
6.93794e-05
6.73044e-05
6.52683e-05
6.32708e-05
6.13116e-05
5.93906e-05
5.75076e-05
5.56621e-05
5.38542e-05
5.20834e-05
5.03496e-05
4.86524e-05
4.69912e-05
4.53659e-05
4.37764e-05
4.22227e-05
4.07044e-05
3.92212e-05
3.77728e-05
3.63589e-05
3.49792e-05
3.36334e-05
3.23211e-05
3.10422e-05
2.97961e-05
2.85827e-05
2.74016e-05
2.62525e-05
2.51349e-05
2.40486e-05
2.29932e-05
2.19684e-05
2.09737e-05
2.00088e-05
1.90732e-05
1.81661e-05
1.72845e-05
1.64111e-05
1.55101e-05
1.46363e-05
1.37896e-05
1.29703e-05
1.21785e-05
1.14143e-05
1.06779e-05
9.96942e-06
9.28885e-06
8.6363e-06
8.01179e-06
7.41533e-06
6.84687e-06
6.30633e-06
5.79357e-06
5.3084e-06
4.85056e-06
4.4197e-06
4.01544e-06
3.63729e-06
3.28469e-06
2.95699e-06
2.65349e-06
2.37337e-06
2.11577e-06
1.87975e-06
1.66432e-06
1.46844e-06
1.29103e-06
1.13097e-06
9.87148e-07
8.58431e-07
7.437e-07
6.4185e-07
5.51805e-07
4.72525e-07
4.03011e-07
3.42315e-07
2.8954e-07
2.43847e-07
2.04455e-07
1.70644e-07
1.41751e-07
1.17173e-07
9.63611e-08
7.88231e-08
6.41164e-08
5.18467e-08
4.16645e-08
3.32616e-08
2.63675e-08
2.07462e-08
1.61926e-08
1.25296e-08
9.60498e-09
7.28873e-09
5.47022e-09
4.056e-09
2.96757e-09
2.13941e-09
1.51722e-09
1.05635e-09
7.20334e-10
4.79717e-10
3.10913e-10
1.95255e-10
1.18167e-10
6.84322e-11
3.7574e-11
1.93184e-11
9.14101e-12
3.88236e-12
1.42491e-12
4.25048e-13
9.25379e-14
1.19098e-14
5.6372e-16
3.20876e-18
)
;

boundaryField
{
    bottomWall
    {
        type            nutUWallFunction;
        Cmu             0.09;
        kappa           0.41;
        E               9.8;
        value           uniform 0;
    }
    topWall
    {
        type            nutUWallFunction;
        Cmu             0.09;
        kappa           0.41;
        E               9.8;
        value           uniform 0;
    }
    sides1_half0
    {
        type            empty;
    }
    sides1_half1
    {
        type            empty;
    }
    sides2_half0
    {
        type            empty;
    }
    sides2_half1
    {
        type            empty;
    }
    inout1_half0
    {
        type            cyclic;
    }
    inout1_half1
    {
        type            cyclic;
    }
    inout2_half0
    {
        type            cyclic;
    }
    inout2_half1
    {
        type            cyclic;
    }
}


// ************************************************************************* //
