/*--------------------------------*- C++ -*----------------------------------*\
  =========                 |
  \\      /  F ield         | OpenFOAM: The Open Source CFD Toolbox
   \\    /   O peration     | Website:  https://openfoam.org
    \\  /    A nd           | Version:  7
     \\/     M anipulation  |
\*---------------------------------------------------------------------------*/
FoamFile
{
    version     2.0;
    format      ascii;
    class       surfaceScalarField;
    location    "95500";
    object      phi;
}
// * * * * * * * * * * * * * * * * * * * * * * * * * * * * * * * * * * * * * //

dimensions      [0 3 -1 0 0 0 0];

internalField   nonuniform List<scalar> 
599
(
1.85503e-16
-6.77274e-18
7.53188e-17
-1.29443e-16
-2.63854e-17
-2.081e-16
-9.54045e-17
-2.31866e-16
-1.23038e-16
-2.78585e-16
-1.79655e-16
-2.85796e-16
-1.97702e-16
-3.45263e-16
-2.32723e-16
-2.99222e-16
-1.92728e-16
-2.89275e-16
-1.89763e-16
-3.19379e-16
-2.47554e-16
-3.11451e-16
-2.9268e-16
-4.17653e-16
-3.12771e-16
-4.29172e-16
-3.28339e-16
-4.37232e-16
-3.32099e-16
-3.73983e-16
-3.43227e-16
-4.04832e-16
-3.33418e-16
-4.75299e-16
-4.0472e-16
-4.34811e-16
-2.76803e-16
-4.24449e-16
-2.68071e-16
-4.08461e-16
-3.41621e-16
-4.23927e-16
-3.98208e-16
-4.87149e-16
-4.51875e-16
-4.56019e-16
-3.79414e-16
-4.64708e-16
-4.00731e-16
-4.63491e-16
-3.25267e-16
-3.99465e-16
-2.60482e-16
-4.11924e-16
-2.79089e-16
-3.04184e-16
-2.54655e-16
-3.3725e-16
-3.69655e-16
-4.12442e-16
-3.78067e-16
-3.99918e-16
-3.33869e-16
-3.67012e-16
-3.12718e-16
-3.7258e-16
-3.83872e-16
-3.5007e-16
-3.66146e-16
-3.79032e-16
-3.49421e-16
-3.82214e-16
-3.49748e-16
-3.92313e-16
-4.04074e-16
-4.80737e-16
-3.58482e-16
-4.12767e-16
-2.85378e-16
-2.98755e-16
-1.8905e-16
-1.50058e-16
-8.34431e-17
-1.26459e-16
-7.94914e-17
-2.1226e-16
-1.56913e-16
-2.33174e-16
-1.81689e-16
-2.61705e-16
-2.24557e-16
-2.99755e-16
-2.94153e-16
-3.32274e-16
-2.95316e-16
-3.4851e-16
-3.13841e-16
-3.56223e-16
-3.52399e-16
-3.94467e-16
-3.70586e-16
-4.04435e-16
-3.86044e-16
-3.70942e-16
-3.57047e-16
-3.7708e-16
-3.00539e-16
-3.82194e-16
-3.19421e-16
-3.47061e-16
-2.95831e-16
-3.33652e-16
-2.96979e-16
-3.7366e-16
-2.86949e-16
-3.01534e-16
-2.86919e-16
-3.2159e-16
-2.63603e-16
-3.00054e-16
-2.8177e-16
-3.44447e-16
-3.01095e-16
-3.39258e-16
-3.14081e-16
-3.53026e-16
-2.78134e-16
-3.27531e-16
-2.81286e-16
-3.37536e-16
-2.5983e-16
-3.22349e-16
-3.07077e-16
-2.98313e-16
-2.78612e-16
-2.83385e-16
-2.39899e-16
-3.03455e-16
-2.9975e-16
-3.33535e-16
-3.08617e-16
-3.61349e-16
-3.08791e-16
-3.7078e-16
-2.98324e-16
-3.37312e-16
-3.07858e-16
-3.56275e-16
-3.4687e-16
-3.77535e-16
-3.09686e-16
-3.26397e-16
-3.04665e-16
-3.80863e-16
-3.18567e-16
-3.26629e-16
-2.96077e-16
-3.31627e-16
-3.07765e-16
-3.99547e-16
-3.1023e-16
-3.28547e-16
-2.40721e-16
-3.14003e-16
-2.34404e-16
-2.98342e-16
-2.47523e-16
-2.45992e-16
-2.60045e-16
-3.12013e-16
-2.14475e-16
-3.04435e-16
-2.45646e-16
-2.69761e-16
-2.24134e-16
-2.78196e-16
-2.58008e-16
-2.97141e-16
-2.08374e-16
-2.28519e-16
-1.88346e-16
-2.57942e-16
-1.85148e-16
-2.38941e-16
-1.97452e-16
-2.49454e-16
-2.08602e-16
-2.35036e-16
-1.53219e-16
-1.73598e-16
-1.7268e-16
-1.83034e-16
-1.90076e-16
-2.14352e-16
-2.06129e-16
-2.18857e-16
-1.40564e-16
-2.04715e-16
-1.46068e-16
-1.48914e-16
-8.32374e-17
-1.52114e-16
-8.63919e-17
-1.44039e-16
-1.07367e-16
-1.23187e-16
-5.83605e-17
-8.75849e-17
-6.57122e-17
-1.10231e-16
-3.22806e-17
-9.60082e-17
-1.89501e-17
-5.84083e-17
-4.93377e-17
-1.12694e-16
-2.68413e-17
-1.03351e-16
-3.80838e-17
-1.36944e-16
-5.48616e-17
-1.31581e-16
-8.75863e-17
-1.29933e-16
-9.4915e-17
-1.55266e-16
-6.96744e-17
-1.24887e-16
-8.38067e-17
-7.94436e-17
-3.52168e-17
-1.21003e-16
-1.0724e-16
-1.68472e-16
-1.21451e-16
-1.75123e-16
-1.66031e-16
-1.73814e-16
-1.57397e-16
-2.58728e-16
-2.18785e-16
-2.64455e-16
-2.28333e-16
-2.43377e-16
-2.51248e-16
-2.8502e-16
-2.65709e-16
-2.8568e-16
-2.86695e-16
-2.854e-16
-2.79267e-16
-3.30265e-16
-3.05472e-16
-3.33275e-16
-3.01978e-16
-3.26417e-16
-3.12136e-16
-3.37662e-16
-3.5182e-16
-4.15514e-16
-3.67712e-16
-3.75133e-16
-3.49151e-16
-3.75872e-16
-3.64267e-16
-3.59326e-16
-3.24513e-16
-4.06917e-16
-3.89671e-16
-3.67344e-16
-3.4851e-16
-3.49738e-16
-3.50337e-16
-3.51777e-16
-3.21376e-16
-3.42691e-16
-2.97374e-16
-3.29883e-16
-2.64665e-16
-2.73458e-16
-2.40634e-16
-2.45004e-16
-1.60651e-16
-1.54577e-16
-1.36974e-16
-2.02796e-16
-1.82766e-16
-2.16552e-16
-2.01229e-16
-2.86995e-16
-2.70342e-16
-2.95264e-16
-2.96834e-16
-2.97328e-16
-2.48984e-16
-3.08311e-16
-2.84311e-16
-3.88313e-16
-3.34294e-16
-3.67418e-16
-2.74666e-16
-2.90338e-16
-2.13464e-16
-3.07401e-16
-2.81514e-16
-3.52394e-16
-3.2275e-16
-3.52492e-16
-3.15673e-16
-3.44497e-16
-3.35643e-16
-3.61661e-16
-3.75741e-16
-3.91826e-16
-3.91856e-16
-4.05923e-16
-3.53712e-16
-3.17889e-16
-2.91486e-16
-3.72197e-16
-2.67491e-16
-3.2246e-16
-2.49769e-16
-3.32535e-16
-2.93435e-16
-3.05048e-16
-2.80894e-16
-3.16037e-16
-2.74862e-16
-3.17512e-16
-2.85825e-16
-3.61936e-16
-3.24522e-16
-3.36537e-16
-3.17406e-16
-3.32568e-16
-3.39672e-16
-3.50039e-16
-3.28208e-16
-3.70688e-16
-3.3672e-16
-3.22691e-16
-2.75184e-16
-3.496e-16
-2.71631e-16
-2.71142e-16
-2.20258e-16
-2.60777e-16
-2.46496e-16
-2.97818e-16
-2.45255e-16
-2.75571e-16
-1.8039e-16
-2.25628e-16
-1.60349e-16
-2.24591e-16
-1.31561e-16
-2.1174e-16
-1.37755e-16
-2.34463e-16
-2.01392e-16
-2.65272e-16
-1.89428e-16
-2.54264e-16
-1.82911e-16
-2.23343e-16
-1.80125e-16
-1.99012e-16
-1.74848e-16
-1.84708e-16
-1.75527e-16
-1.88891e-16
-1.28548e-16
-1.0833e-16
-7.9491e-17
-1.27556e-16
-8.51973e-17
-1.40006e-16
-7.46309e-17
-1.04406e-16
-8.54993e-17
-1.33795e-16
-6.42248e-17
-1.37263e-16
-8.72744e-17
-8.46329e-17
-6.12358e-17
-7.75166e-17
-4.52311e-17
-6.77325e-17
2.92835e-17
-2.43124e-17
5.89312e-17
-3.84747e-17
5.36496e-17
-2.80059e-17
3.72577e-18
3.09812e-18
6.10397e-18
-2.9313e-17
7.49643e-17
4.09467e-17
8.59208e-17
1.67316e-17
3.13992e-17
-2.99573e-17
5.78607e-17
-3.76867e-17
2.03714e-17
-2.51874e-17
2.08148e-17
-1.65587e-17
6.69467e-17
3.77312e-17
6.70577e-17
2.2214e-18
1.26463e-17
-1.42755e-18
3.42352e-17
-1.55227e-18
2.25648e-17
5.55171e-19
8.4559e-18
-4.22621e-17
2.40017e-17
6.16431e-18
6.33644e-17
2.146e-17
4.97535e-17
-8.65147e-18
5.00394e-17
4.33893e-17
5.88614e-17
3.63106e-17
4.72506e-17
5.24183e-17
3.813e-17
2.02103e-17
4.58185e-17
2.761e-17
6.63944e-17
-3.94451e-17
-2.77501e-17
-3.67557e-17
-4.69578e-17
-8.42845e-17
-8.88032e-17
-8.01828e-17
-7.30512e-17
-8.40985e-17
-9.12871e-17
-1.35668e-16
-1.01588e-16
-1.20502e-16
-1.0927e-16
-9.94099e-17
-6.94022e-17
-7.67884e-17
-6.23685e-17
-5.51461e-17
-5.07926e-17
-6.93504e-17
-2.16515e-17
-2.57637e-17
-3.88325e-17
-2.71448e-17
-3.94068e-17
-3.66482e-17
-9.50212e-18
-1.85369e-19
-1.35413e-19
-2.61918e-17
-1.82502e-17
1.08712e-17
-6.63395e-17
-2.43733e-17
-2.99667e-17
1.31939e-17
3.97932e-17
5.46751e-17
2.07123e-17
2.20344e-17
4.39427e-17
3.02527e-17
6.34251e-17
7.66756e-17
9.52842e-17
6.85412e-17
9.57323e-17
2.95349e-17
8.0803e-17
7.54471e-17
7.74071e-17
3.50288e-17
9.74275e-17
9.89998e-17
1.61499e-16
8.92299e-17
1.16687e-16
9.9148e-17
1.00271e-16
1.05414e-16
1.54051e-16
1.33875e-16
1.60164e-16
1.05713e-16
1.55594e-16
1.04131e-16
1.19703e-16
-7.39859e-18
2.38395e-17
-3.07176e-17
1.65786e-17
-8.96444e-17
-9.10392e-17
-1.42542e-16
-5.38332e-17
-1.22805e-16
-1.16442e-16
-6.42382e-17
-4.97254e-17
-7.62573e-17
-8.90562e-17
-8.53895e-18
2.23005e-17
6.64003e-17
2.02367e-17
8.17187e-17
1.04101e-16
8.52244e-17
2.94543e-17
1.45356e-17
-3.01146e-18
-1.01153e-17
2.68015e-17
-4.04203e-17
9.50792e-17
1.1825e-16
1.32204e-16
1.84155e-16
2.18893e-16
1.70061e-16
1.43212e-16
1.2057e-16
9.30922e-17
9.34493e-17
8.74895e-17
1.82e-16
1.65409e-16
1.08448e-16
1.03568e-16
1.29084e-16
1.43312e-16
1.81436e-16
1.99504e-16
1.94594e-16
1.62341e-16
4.78869e-17
4.87025e-17
1.21672e-16
1.44885e-16
1.35212e-16
1.51355e-16
1.73432e-16
1.16876e-16
1.93762e-16
1.43092e-16
1.59886e-16
1.60928e-16
1.79488e-16
1.81938e-16
2.0539e-16
2.13462e-16
1.82859e-16
1.9527e-16
2.36728e-16
1.88982e-16
1.08737e-16
1.07659e-16
1.15829e-16
1.00527e-16
5.27563e-17
1.87355e-17
2.30355e-17
2.23723e-17
-1.27291e-17
1.99546e-17
1.82559e-17
-1.83475e-17
-9.9633e-18
3.81203e-17
3.44621e-17
-8.47619e-19
4.13602e-18
1.02253e-17
2.06288e-17
1.19494e-18
-1.01687e-17
1.61877e-18
)
;

boundaryField
{
    bottomWall
    {
        type            calculated;
        value           uniform 0;
    }
    topWall
    {
        type            calculated;
        value           uniform 0;
    }
    sides1_half0
    {
        type            empty;
        value           nonuniform 0();
    }
    sides1_half1
    {
        type            empty;
        value           nonuniform 0();
    }
    sides2_half0
    {
        type            empty;
        value           nonuniform 0();
    }
    sides2_half1
    {
        type            empty;
        value           nonuniform 0();
    }
    inout1_half0
    {
        type            cyclic;
        value           nonuniform List<scalar> 
300
(
7.13252e-09
2.18399e-08
3.72297e-08
5.33268e-08
7.01567e-08
8.77457e-08
1.06121e-07
1.25311e-07
1.45344e-07
1.66251e-07
1.88062e-07
2.1081e-07
2.34527e-07
2.59248e-07
2.85009e-07
3.11844e-07
3.39792e-07
3.68891e-07
3.99182e-07
4.30706e-07
4.63504e-07
4.97621e-07
5.33102e-07
5.69992e-07
6.0834e-07
6.48194e-07
6.89605e-07
7.32623e-07
7.77302e-07
8.23695e-07
8.71856e-07
9.21843e-07
9.73711e-07
1.02752e-06
1.08332e-06
1.14118e-06
1.20116e-06
1.26331e-06
1.32769e-06
1.39436e-06
1.46338e-06
1.5348e-06
1.60868e-06
1.68507e-06
1.76402e-06
1.84558e-06
1.92979e-06
2.01669e-06
2.10633e-06
2.19873e-06
2.29393e-06
2.39195e-06
2.49282e-06
2.59654e-06
2.70315e-06
2.81264e-06
2.92503e-06
3.04032e-06
3.15852e-06
3.27962e-06
3.40362e-06
3.53053e-06
3.66035e-06
3.79306e-06
3.92869e-06
4.06721e-06
4.20865e-06
4.35299e-06
4.50026e-06
4.65046e-06
4.80361e-06
4.95971e-06
5.11879e-06
5.28087e-06
5.44598e-06
5.61414e-06
5.78539e-06
5.95975e-06
6.13727e-06
6.31805e-06
6.50221e-06
6.68982e-06
6.88092e-06
7.07556e-06
7.27377e-06
7.47561e-06
7.68112e-06
7.89035e-06
8.10335e-06
8.32017e-06
8.54087e-06
8.7655e-06
8.99412e-06
9.2268e-06
9.46358e-06
9.70455e-06
9.94975e-06
1.01993e-05
1.04532e-05
1.07115e-05
1.09744e-05
1.12419e-05
1.1514e-05
1.17909e-05
1.20727e-05
1.23593e-05
1.2651e-05
1.29478e-05
1.32497e-05
1.3557e-05
1.38696e-05
1.41876e-05
1.45113e-05
1.48406e-05
1.51756e-05
1.55165e-05
1.58634e-05
1.62164e-05
1.65755e-05
1.69409e-05
1.73128e-05
1.76912e-05
1.80762e-05
1.8468e-05
1.88667e-05
1.92724e-05
1.96852e-05
2.01054e-05
2.05329e-05
2.09679e-05
2.14107e-05
2.18612e-05
2.23197e-05
2.27863e-05
2.32612e-05
2.37444e-05
2.42363e-05
2.47368e-05
2.52461e-05
2.57645e-05
2.62921e-05
2.68291e-05
2.73755e-05
2.79317e-05
2.84978e-05
2.90738e-05
2.96602e-05
3.02569e-05
3.08642e-05
3.14824e-05
3.21115e-05
3.27518e-05
3.34035e-05
3.40668e-05
3.47419e-05
3.5429e-05
3.61284e-05
3.68402e-05
3.75647e-05
3.83021e-05
3.90526e-05
3.98165e-05
4.0594e-05
4.13853e-05
4.21907e-05
4.30105e-05
4.38449e-05
4.46942e-05
4.55586e-05
4.64384e-05
4.73339e-05
4.82454e-05
4.9173e-05
5.01172e-05
5.10783e-05
5.20564e-05
5.3052e-05
5.40653e-05
5.50967e-05
5.61464e-05
5.72149e-05
5.83023e-05
5.94091e-05
6.05356e-05
6.16822e-05
6.28491e-05
6.40368e-05
6.52457e-05
6.6476e-05
6.77282e-05
6.90027e-05
7.02998e-05
7.16199e-05
7.29635e-05
7.43309e-05
7.57226e-05
7.7139e-05
7.85805e-05
8.00476e-05
8.15407e-05
8.30602e-05
8.46066e-05
8.61804e-05
8.77821e-05
8.9412e-05
9.10708e-05
9.27589e-05
9.44768e-05
9.6225e-05
9.8004e-05
9.98144e-05
0.000101657
0.000103531
0.000105439
0.00010738
0.000109355
0.000111365
0.00011341
0.00011549
0.000117607
0.00011976
0.000121951
0.000124179
0.000126446
0.000128751
0.000131095
0.000133478
0.000135902
0.000138367
0.000140874
0.000143423
0.000146016
0.000148654
0.000151337
0.000154066
0.000156841
0.000159663
0.000162534
0.000165453
0.000168421
0.00017144
0.00017451
0.000177632
0.000180805
0.000184033
0.000187314
0.00019065
0.000194042
0.00019749
0.000200995
0.000204558
0.00020818
0.000211861
0.000215603
0.000219406
0.000223271
0.000227199
0.00023119
0.000235246
0.000239367
0.000243554
0.000247808
0.000252129
0.000256519
0.000260978
0.000265507
0.000270106
0.000274777
0.000279519
0.000284335
0.000289224
0.000294188
0.000299226
0.000304339
0.000309529
0.000314795
0.000320139
0.000325561
0.00033106
0.000336639
0.000342296
0.000348033
0.00035385
0.000359747
0.000365724
0.000371781
0.000377919
0.000384138
0.000390437
0.000396816
0.000403276
0.000409815
0.000416433
0.00042313
0.000429904
0.000436756
0.000443683
0.000450685
0.00045776
0.000464907
)
;
    }
    inout1_half1
    {
        type            cyclic;
        value           nonuniform List<scalar> 
300
(
-7.13252e-09
-2.18399e-08
-3.72297e-08
-5.33268e-08
-7.01567e-08
-8.77457e-08
-1.06121e-07
-1.25311e-07
-1.45344e-07
-1.66251e-07
-1.88062e-07
-2.1081e-07
-2.34527e-07
-2.59248e-07
-2.85009e-07
-3.11844e-07
-3.39792e-07
-3.68891e-07
-3.99182e-07
-4.30706e-07
-4.63504e-07
-4.97621e-07
-5.33102e-07
-5.69992e-07
-6.0834e-07
-6.48194e-07
-6.89605e-07
-7.32623e-07
-7.77302e-07
-8.23695e-07
-8.71856e-07
-9.21843e-07
-9.73711e-07
-1.02752e-06
-1.08332e-06
-1.14118e-06
-1.20116e-06
-1.26331e-06
-1.32769e-06
-1.39436e-06
-1.46338e-06
-1.5348e-06
-1.60868e-06
-1.68507e-06
-1.76402e-06
-1.84558e-06
-1.92979e-06
-2.01669e-06
-2.10633e-06
-2.19873e-06
-2.29393e-06
-2.39195e-06
-2.49282e-06
-2.59654e-06
-2.70315e-06
-2.81264e-06
-2.92503e-06
-3.04032e-06
-3.15852e-06
-3.27962e-06
-3.40362e-06
-3.53053e-06
-3.66035e-06
-3.79306e-06
-3.92869e-06
-4.06721e-06
-4.20865e-06
-4.35299e-06
-4.50026e-06
-4.65046e-06
-4.80361e-06
-4.95971e-06
-5.11879e-06
-5.28087e-06
-5.44598e-06
-5.61414e-06
-5.78539e-06
-5.95975e-06
-6.13727e-06
-6.31805e-06
-6.50221e-06
-6.68982e-06
-6.88092e-06
-7.07556e-06
-7.27377e-06
-7.47561e-06
-7.68112e-06
-7.89035e-06
-8.10335e-06
-8.32017e-06
-8.54087e-06
-8.7655e-06
-8.99412e-06
-9.2268e-06
-9.46358e-06
-9.70455e-06
-9.94975e-06
-1.01993e-05
-1.04532e-05
-1.07115e-05
-1.09744e-05
-1.12419e-05
-1.1514e-05
-1.17909e-05
-1.20727e-05
-1.23593e-05
-1.2651e-05
-1.29478e-05
-1.32497e-05
-1.3557e-05
-1.38696e-05
-1.41876e-05
-1.45113e-05
-1.48406e-05
-1.51756e-05
-1.55165e-05
-1.58634e-05
-1.62164e-05
-1.65755e-05
-1.69409e-05
-1.73128e-05
-1.76912e-05
-1.80762e-05
-1.8468e-05
-1.88667e-05
-1.92724e-05
-1.96852e-05
-2.01054e-05
-2.05329e-05
-2.09679e-05
-2.14107e-05
-2.18612e-05
-2.23197e-05
-2.27863e-05
-2.32612e-05
-2.37444e-05
-2.42363e-05
-2.47368e-05
-2.52461e-05
-2.57645e-05
-2.62921e-05
-2.68291e-05
-2.73755e-05
-2.79317e-05
-2.84978e-05
-2.90738e-05
-2.96602e-05
-3.02569e-05
-3.08642e-05
-3.14824e-05
-3.21115e-05
-3.27518e-05
-3.34035e-05
-3.40668e-05
-3.47419e-05
-3.5429e-05
-3.61284e-05
-3.68402e-05
-3.75647e-05
-3.83021e-05
-3.90526e-05
-3.98165e-05
-4.0594e-05
-4.13853e-05
-4.21907e-05
-4.30105e-05
-4.38449e-05
-4.46942e-05
-4.55586e-05
-4.64384e-05
-4.73339e-05
-4.82454e-05
-4.9173e-05
-5.01172e-05
-5.10783e-05
-5.20564e-05
-5.3052e-05
-5.40653e-05
-5.50967e-05
-5.61464e-05
-5.72149e-05
-5.83023e-05
-5.94091e-05
-6.05356e-05
-6.16822e-05
-6.28491e-05
-6.40368e-05
-6.52457e-05
-6.6476e-05
-6.77282e-05
-6.90027e-05
-7.02998e-05
-7.16199e-05
-7.29635e-05
-7.43309e-05
-7.57226e-05
-7.7139e-05
-7.85805e-05
-8.00476e-05
-8.15407e-05
-8.30602e-05
-8.46066e-05
-8.61804e-05
-8.77821e-05
-8.9412e-05
-9.10708e-05
-9.27589e-05
-9.44768e-05
-9.6225e-05
-9.8004e-05
-9.98144e-05
-0.000101657
-0.000103531
-0.000105439
-0.00010738
-0.000109355
-0.000111365
-0.00011341
-0.00011549
-0.000117607
-0.00011976
-0.000121951
-0.000124179
-0.000126446
-0.000128751
-0.000131095
-0.000133478
-0.000135902
-0.000138367
-0.000140874
-0.000143423
-0.000146016
-0.000148654
-0.000151337
-0.000154066
-0.000156841
-0.000159663
-0.000162534
-0.000165453
-0.000168421
-0.00017144
-0.00017451
-0.000177632
-0.000180805
-0.000184033
-0.000187314
-0.00019065
-0.000194042
-0.00019749
-0.000200995
-0.000204558
-0.00020818
-0.000211861
-0.000215603
-0.000219406
-0.000223271
-0.000227199
-0.00023119
-0.000235246
-0.000239367
-0.000243554
-0.000247808
-0.000252129
-0.000256519
-0.000260978
-0.000265507
-0.000270106
-0.000274777
-0.000279519
-0.000284335
-0.000289224
-0.000294188
-0.000299226
-0.000304339
-0.000309529
-0.000314795
-0.000320139
-0.000325561
-0.00033106
-0.000336639
-0.000342296
-0.000348033
-0.00035385
-0.000359747
-0.000365724
-0.000371781
-0.000377919
-0.000384138
-0.000390437
-0.000396816
-0.000403276
-0.000409815
-0.000416433
-0.00042313
-0.000429904
-0.000436756
-0.000443683
-0.000450685
-0.00045776
-0.000464907
)
;
    }
    inout2_half0
    {
        type            cyclic;
        value           nonuniform List<scalar> 
300
(
0.000464907
0.00045776
0.000450685
0.000443683
0.000436756
0.000429904
0.00042313
0.000416433
0.000409815
0.000403276
0.000396816
0.000390437
0.000384138
0.000377919
0.000371781
0.000365724
0.000359747
0.00035385
0.000348033
0.000342296
0.000336639
0.00033106
0.000325561
0.000320139
0.000314796
0.000309529
0.000304339
0.000299226
0.000294188
0.000289224
0.000284335
0.00027952
0.000274777
0.000270106
0.000265507
0.000260978
0.000256519
0.000252129
0.000247808
0.000243554
0.000239367
0.000235246
0.00023119
0.000227199
0.000223271
0.000219406
0.000215603
0.000211861
0.00020818
0.000204558
0.000200995
0.000197489
0.000194042
0.00019065
0.000187314
0.000184033
0.000180805
0.000177632
0.00017451
0.00017144
0.000168421
0.000165453
0.000162534
0.000159663
0.000156841
0.000154066
0.000151337
0.000148654
0.000146016
0.000143423
0.000140874
0.000138367
0.000135902
0.000133478
0.000131095
0.000128751
0.000126446
0.000124179
0.000121951
0.00011976
0.000117607
0.00011549
0.00011341
0.000111365
0.000109355
0.00010738
0.000105439
0.000103531
0.000101657
9.98144e-05
9.8004e-05
9.6225e-05
9.44768e-05
9.27589e-05
9.10708e-05
8.9412e-05
8.77821e-05
8.61804e-05
8.46066e-05
8.30602e-05
8.15407e-05
8.00476e-05
7.85806e-05
7.7139e-05
7.57226e-05
7.43309e-05
7.29635e-05
7.16199e-05
7.02997e-05
6.90027e-05
6.77282e-05
6.6476e-05
6.52456e-05
6.40368e-05
6.28491e-05
6.16822e-05
6.05356e-05
5.94091e-05
5.83023e-05
5.72148e-05
5.61464e-05
5.50967e-05
5.40653e-05
5.3052e-05
5.20565e-05
5.10783e-05
5.01173e-05
4.9173e-05
4.82453e-05
4.73339e-05
4.64384e-05
4.55586e-05
4.46942e-05
4.38449e-05
4.30105e-05
4.21907e-05
4.13853e-05
4.0594e-05
3.98165e-05
3.90526e-05
3.83021e-05
3.75647e-05
3.68402e-05
3.61284e-05
3.5429e-05
3.47419e-05
3.40668e-05
3.34035e-05
3.27518e-05
3.21115e-05
3.14824e-05
3.08642e-05
3.02569e-05
2.96602e-05
2.90738e-05
2.84977e-05
2.79317e-05
2.73756e-05
2.68291e-05
2.62921e-05
2.57646e-05
2.52461e-05
2.47368e-05
2.42363e-05
2.37444e-05
2.32612e-05
2.27863e-05
2.23197e-05
2.18612e-05
2.14107e-05
2.09679e-05
2.05329e-05
2.01054e-05
1.96852e-05
1.92724e-05
1.88667e-05
1.8468e-05
1.80762e-05
1.76912e-05
1.73128e-05
1.69409e-05
1.65755e-05
1.62163e-05
1.58634e-05
1.55165e-05
1.51756e-05
1.48406e-05
1.45113e-05
1.41876e-05
1.38696e-05
1.3557e-05
1.32497e-05
1.29478e-05
1.2651e-05
1.23593e-05
1.20727e-05
1.17909e-05
1.1514e-05
1.12419e-05
1.09744e-05
1.07115e-05
1.04532e-05
1.01993e-05
9.94976e-06
9.70454e-06
9.46359e-06
9.22679e-06
8.99413e-06
8.7655e-06
8.54087e-06
8.32018e-06
8.10335e-06
7.89036e-06
7.68112e-06
7.47562e-06
7.27377e-06
7.07556e-06
6.88092e-06
6.68982e-06
6.5022e-06
6.31805e-06
6.13727e-06
5.95975e-06
5.78539e-06
5.61414e-06
5.44598e-06
5.28088e-06
5.11879e-06
4.95971e-06
4.8036e-06
4.65046e-06
4.50026e-06
4.35299e-06
4.20865e-06
4.06721e-06
3.92868e-06
3.79306e-06
3.66034e-06
3.53053e-06
3.40363e-06
3.27961e-06
3.15852e-06
3.04032e-06
2.92503e-06
2.81264e-06
2.70315e-06
2.59654e-06
2.49282e-06
2.39195e-06
2.29393e-06
2.19873e-06
2.10633e-06
2.01669e-06
1.92979e-06
1.84558e-06
1.76402e-06
1.68507e-06
1.60868e-06
1.5348e-06
1.46338e-06
1.39436e-06
1.32769e-06
1.26331e-06
1.20116e-06
1.14118e-06
1.08333e-06
1.02752e-06
9.73713e-07
9.21844e-07
8.71854e-07
8.23695e-07
7.77301e-07
7.32623e-07
6.89607e-07
6.48194e-07
6.08338e-07
5.69994e-07
5.33101e-07
4.97622e-07
4.63503e-07
4.30708e-07
3.99182e-07
3.68891e-07
3.39791e-07
3.11845e-07
2.85007e-07
2.59249e-07
2.34528e-07
2.1081e-07
1.88062e-07
1.6625e-07
1.45344e-07
1.25311e-07
1.06121e-07
8.77457e-08
7.01568e-08
5.33266e-08
3.72298e-08
2.18399e-08
7.13252e-09
)
;
    }
    inout2_half1
    {
        type            cyclic;
        value           nonuniform List<scalar> 
300
(
-0.000464907
-0.00045776
-0.000450685
-0.000443683
-0.000436756
-0.000429904
-0.00042313
-0.000416433
-0.000409815
-0.000403276
-0.000396816
-0.000390437
-0.000384138
-0.000377919
-0.000371781
-0.000365724
-0.000359747
-0.00035385
-0.000348033
-0.000342296
-0.000336639
-0.00033106
-0.000325561
-0.000320139
-0.000314796
-0.000309529
-0.000304339
-0.000299226
-0.000294188
-0.000289224
-0.000284335
-0.00027952
-0.000274777
-0.000270106
-0.000265507
-0.000260978
-0.000256519
-0.000252129
-0.000247808
-0.000243554
-0.000239367
-0.000235246
-0.00023119
-0.000227199
-0.000223271
-0.000219406
-0.000215603
-0.000211861
-0.00020818
-0.000204558
-0.000200995
-0.000197489
-0.000194042
-0.00019065
-0.000187314
-0.000184033
-0.000180805
-0.000177632
-0.00017451
-0.00017144
-0.000168421
-0.000165453
-0.000162534
-0.000159663
-0.000156841
-0.000154066
-0.000151337
-0.000148654
-0.000146016
-0.000143423
-0.000140874
-0.000138367
-0.000135902
-0.000133478
-0.000131095
-0.000128751
-0.000126446
-0.000124179
-0.000121951
-0.00011976
-0.000117607
-0.00011549
-0.00011341
-0.000111365
-0.000109355
-0.00010738
-0.000105439
-0.000103531
-0.000101657
-9.98144e-05
-9.8004e-05
-9.6225e-05
-9.44768e-05
-9.27589e-05
-9.10708e-05
-8.9412e-05
-8.77821e-05
-8.61804e-05
-8.46066e-05
-8.30602e-05
-8.15407e-05
-8.00476e-05
-7.85806e-05
-7.7139e-05
-7.57226e-05
-7.43309e-05
-7.29635e-05
-7.16199e-05
-7.02997e-05
-6.90027e-05
-6.77282e-05
-6.6476e-05
-6.52456e-05
-6.40368e-05
-6.28491e-05
-6.16822e-05
-6.05356e-05
-5.94091e-05
-5.83023e-05
-5.72148e-05
-5.61464e-05
-5.50967e-05
-5.40653e-05
-5.3052e-05
-5.20565e-05
-5.10783e-05
-5.01173e-05
-4.9173e-05
-4.82453e-05
-4.73339e-05
-4.64384e-05
-4.55586e-05
-4.46942e-05
-4.38449e-05
-4.30105e-05
-4.21907e-05
-4.13853e-05
-4.0594e-05
-3.98165e-05
-3.90526e-05
-3.83021e-05
-3.75647e-05
-3.68402e-05
-3.61284e-05
-3.5429e-05
-3.47419e-05
-3.40668e-05
-3.34035e-05
-3.27518e-05
-3.21115e-05
-3.14824e-05
-3.08642e-05
-3.02569e-05
-2.96602e-05
-2.90738e-05
-2.84977e-05
-2.79317e-05
-2.73756e-05
-2.68291e-05
-2.62921e-05
-2.57646e-05
-2.52461e-05
-2.47368e-05
-2.42363e-05
-2.37444e-05
-2.32612e-05
-2.27863e-05
-2.23197e-05
-2.18612e-05
-2.14107e-05
-2.09679e-05
-2.05329e-05
-2.01054e-05
-1.96852e-05
-1.92724e-05
-1.88667e-05
-1.8468e-05
-1.80762e-05
-1.76912e-05
-1.73128e-05
-1.69409e-05
-1.65755e-05
-1.62163e-05
-1.58634e-05
-1.55165e-05
-1.51756e-05
-1.48406e-05
-1.45113e-05
-1.41876e-05
-1.38696e-05
-1.3557e-05
-1.32497e-05
-1.29478e-05
-1.2651e-05
-1.23593e-05
-1.20727e-05
-1.17909e-05
-1.1514e-05
-1.12419e-05
-1.09744e-05
-1.07115e-05
-1.04532e-05
-1.01993e-05
-9.94976e-06
-9.70454e-06
-9.46359e-06
-9.22679e-06
-8.99413e-06
-8.7655e-06
-8.54087e-06
-8.32018e-06
-8.10335e-06
-7.89036e-06
-7.68112e-06
-7.47562e-06
-7.27377e-06
-7.07556e-06
-6.88092e-06
-6.68982e-06
-6.5022e-06
-6.31805e-06
-6.13727e-06
-5.95975e-06
-5.78539e-06
-5.61414e-06
-5.44598e-06
-5.28088e-06
-5.11879e-06
-4.95971e-06
-4.8036e-06
-4.65046e-06
-4.50026e-06
-4.35299e-06
-4.20865e-06
-4.06721e-06
-3.92868e-06
-3.79306e-06
-3.66034e-06
-3.53053e-06
-3.40363e-06
-3.27961e-06
-3.15852e-06
-3.04032e-06
-2.92503e-06
-2.81264e-06
-2.70315e-06
-2.59654e-06
-2.49282e-06
-2.39195e-06
-2.29393e-06
-2.19873e-06
-2.10633e-06
-2.01669e-06
-1.92979e-06
-1.84558e-06
-1.76402e-06
-1.68507e-06
-1.60868e-06
-1.5348e-06
-1.46338e-06
-1.39436e-06
-1.32769e-06
-1.26331e-06
-1.20116e-06
-1.14118e-06
-1.08333e-06
-1.02752e-06
-9.73713e-07
-9.21844e-07
-8.71854e-07
-8.23695e-07
-7.77301e-07
-7.32623e-07
-6.89607e-07
-6.48194e-07
-6.08338e-07
-5.69994e-07
-5.33101e-07
-4.97622e-07
-4.63503e-07
-4.30708e-07
-3.99182e-07
-3.68891e-07
-3.39791e-07
-3.11845e-07
-2.85007e-07
-2.59249e-07
-2.34528e-07
-2.1081e-07
-1.88062e-07
-1.6625e-07
-1.45344e-07
-1.25311e-07
-1.06121e-07
-8.77457e-08
-7.01568e-08
-5.33266e-08
-3.72298e-08
-2.18399e-08
-7.13252e-09
)
;
    }
}


// ************************************************************************* //
