/*--------------------------------*- C++ -*----------------------------------*\
  =========                 |
  \\      /  F ield         | OpenFOAM: The Open Source CFD Toolbox
   \\    /   O peration     | Website:  https://openfoam.org
    \\  /    A nd           | Version:  7
     \\/     M anipulation  |
\*---------------------------------------------------------------------------*/
FoamFile
{
    version     2.0;
    format      ascii;
    class       volVectorField;
    location    "95500";
    object      U;
}
// * * * * * * * * * * * * * * * * * * * * * * * * * * * * * * * * * * * * * //

dimensions      [0 1 -1 0 0 0 0];

internalField   nonuniform List<vector> 
600
(
(0.000231037 8.36506e-15 0)
(0.000696625 4.62709e-15 0)
(0.00116936 1.66633e-15 0)
(0.00164937 -1.33277e-15 0)
(0.00213674 -3.25571e-15 0)
(0.00263159 -6.96891e-15 0)
(0.00313405 -7.26789e-15 0)
(0.00364421 -7.45975e-15 0)
(0.0041622 -8.60273e-15 0)
(0.00468815 -1.01482e-14 0)
(0.00522215 -1.20388e-14 0)
(0.00576435 -1.1411e-14 0)
(0.00631486 -1.19649e-14 0)
(0.00687381 -1.32675e-14 0)
(0.00744133 -1.4619e-14 0)
(0.00801753 -1.30317e-14 0)
(0.00860256 -1.18003e-14 0)
(0.00919653 -1.28092e-14 0)
(0.00979959 -1.20008e-14 0)
(0.0104119 -1.28058e-14 0)
(0.0110335 -1.43674e-14 0)
(0.0116646 -1.4479e-14 0)
(0.0123053 -1.60567e-14 0)
(0.0129557 -1.65421e-14 0)
(0.013616 -1.85277e-14 0)
(0.0142863 -1.90096e-14 0)
(0.0149667 -1.89054e-14 0)
(0.0156573 -1.86323e-14 0)
(0.0163582 -2.01849e-14 0)
(0.0170696 -1.74539e-14 0)
(0.0177916 -1.70013e-14 0)
(0.0185241 -1.83433e-14 0)
(0.0192673 -1.83738e-14 0)
(0.0200213 -1.93661e-14 0)
(0.020786 -2.21498e-14 0)
(0.0215615 -2.13409e-14 0)
(0.0223479 -2.07236e-14 0)
(0.0231449 -1.7615e-14 0)
(0.0239527 -1.85324e-14 0)
(0.024771 -1.47826e-14 0)
(0.0255998 -1.77559e-14 0)
(0.0264388 -1.89307e-14 0)
(0.027288 -2.09724e-14 0)
(0.0281469 -2.11086e-14 0)
(0.0290153 -2.3335e-14 0)
(0.0298928 -2.38287e-14 0)
(0.0307791 -2.15921e-14 0)
(0.0316735 -2.13676e-14 0)
(0.0325757 -1.95441e-14 0)
(0.0334851 -2.01507e-14 0)
(0.0344009 -1.93608e-14 0)
(0.0353227 -1.87657e-14 0)
(0.0362495 -1.79636e-14 0)
(0.0371808 -1.49447e-14 0)
(0.0381157 -1.71013e-14 0)
(0.0390535 -1.42641e-14 0)
(0.0399932 -1.58111e-14 0)
(0.0409342 -1.2985e-14 0)
(0.0418756 -1.79951e-14 0)
(0.0428166 -1.98359e-14 0)
(0.0437564 -1.88423e-14 0)
(0.0446942 -1.85297e-14 0)
(0.0456294 -1.9241e-14 0)
(0.0465611 -1.79722e-14 0)
(0.0474888 -1.69104e-14 0)
(0.0484119 -1.81153e-14 0)
(0.0493297 -2.01559e-14 0)
(0.0502418 -1.73554e-14 0)
(0.0511477 -1.81735e-14 0)
(0.052047 -1.7079e-14 0)
(0.0529393 -2.05294e-14 0)
(0.0538242 -1.76877e-14 0)
(0.0547016 -1.72823e-14 0)
(0.0555711 -1.83289e-14 0)
(0.0564327 -1.84946e-14 0)
(0.0572861 -2.20752e-14 0)
(0.0581312 -1.99567e-14 0)
(0.0589679 -1.92898e-14 0)
(0.0597963 -1.57433e-14 0)
(0.0606168 -1.46533e-14 0)
(0.0614302 -1.39558e-14 0)
(0.0622367 -8.59205e-15 0)
(0.0630361 -4.96161e-15 0)
(0.0638285 -5.61067e-15 0)
(0.0646137 -5.76355e-15 0)
(0.0653917 -7.11103e-15 0)
(0.0661625 -8.67265e-15 0)
(0.066926 -9.58783e-15 0)
(0.0676821 -9.7914e-15 0)
(0.068431 -1.28042e-14 0)
(0.0691725 -1.24375e-14 0)
(0.0699067 -1.31329e-14 0)
(0.0706337 -1.54793e-14 0)
(0.0713535 -1.52863e-14 0)
(0.0720661 -1.52273e-14 0)
(0.0727716 -1.63062e-14 0)
(0.07347 -1.70198e-14 0)
(0.0741613 -1.58544e-14 0)
(0.0748458 -1.84035e-14 0)
(0.0755234 -1.69117e-14 0)
(0.0761942 -1.94502e-14 0)
(0.0768583 -1.96636e-14 0)
(0.0775158 -1.98895e-14 0)
(0.0781668 -1.85998e-14 0)
(0.0788114 -1.9809e-14 0)
(0.0794497 -1.77936e-14 0)
(0.0800817 -1.73704e-14 0)
(0.0807076 -1.62596e-14 0)
(0.0813275 -1.76333e-14 0)
(0.0819415 -1.55647e-14 0)
(0.0825497 -1.6911e-14 0)
(0.0831521 -1.60306e-14 0)
(0.083749 -1.65607e-14 0)
(0.0843403 -1.57011e-14 0)
(0.0849263 -1.65815e-14 0)
(0.0855069 -1.46697e-14 0)
(0.0860824 -1.45661e-14 0)
(0.0866528 -1.64626e-14 0)
(0.0872181 -1.35871e-14 0)
(0.0877786 -1.41147e-14 0)
(0.0883343 -1.46144e-14 0)
(0.0888853 -1.57715e-14 0)
(0.0894318 -1.57907e-14 0)
(0.0899737 -1.63031e-14 0)
(0.0905112 -1.58492e-14 0)
(0.0910444 -1.67885e-14 0)
(0.0915734 -1.60637e-14 0)
(0.0920982 -1.54822e-14 0)
(0.0926191 -1.56782e-14 0)
(0.0931359 -1.49506e-14 0)
(0.093649 -1.41817e-14 0)
(0.0941582 -1.46155e-14 0)
(0.0946637 -1.55411e-14 0)
(0.0951657 -1.48623e-14 0)
(0.0956641 -1.47867e-14 0)
(0.096159 -1.39297e-14 0)
(0.0966506 -1.36296e-14 0)
(0.0971388 -1.36679e-14 0)
(0.0976239 -1.58826e-14 0)
(0.0981058 -1.60193e-14 0)
(0.0985846 -1.56087e-14 0)
(0.0990604 -1.6198e-14 0)
(0.0995332 -1.69305e-14 0)
(0.100003 -1.77208e-14 0)
(0.10047 -1.69702e-14 0)
(0.100935 -1.61855e-14 0)
(0.101396 -1.57542e-14 0)
(0.101856 -1.64314e-14 0)
(0.102312 -1.78372e-14 0)
(0.102766 -1.8349e-14 0)
(0.103218 -1.66732e-14 0)
(0.103667 -1.64194e-14 0)
(0.104114 -1.57235e-14 0)
(0.104558 -1.68594e-14 0)
(0.105001 -1.80506e-14 0)
(0.105441 -1.60882e-14 0)
(0.105879 -1.57117e-14 0)
(0.106315 -1.53399e-14 0)
(0.106748 -1.58463e-14 0)
(0.10718 -1.72222e-14 0)
(0.10761 -1.77529e-14 0)
(0.108038 -1.55088e-14 0)
(0.108464 -1.49357e-14 0)
(0.108889 -1.32106e-14 0)
(0.109311 -1.41096e-14 0)
(0.109732 -1.35425e-14 0)
(0.110151 -1.47109e-14 0)
(0.110569 -1.18039e-14 0)
(0.110985 -1.29417e-14 0)
(0.111399 -1.40957e-14 0)
(0.111812 -1.33614e-14 0)
(0.112223 -1.28552e-14 0)
(0.112632 -1.27921e-14 0)
(0.113041 -1.2368e-14 0)
(0.113447 -1.26443e-14 0)
(0.113853 -1.30542e-14 0)
(0.114257 -1.30057e-14 0)
(0.11466 -1.46241e-14 0)
(0.115061 -1.24691e-14 0)
(0.115461 -1.17654e-14 0)
(0.11586 -1.04245e-14 0)
(0.116258 -1.05408e-14 0)
(0.116654 -1.2403e-14 0)
(0.117049 -1.03698e-14 0)
(0.117443 -1.01712e-14 0)
(0.117836 -1.10481e-14 0)
(0.118228 -1.12206e-14 0)
(0.118619 -1.18918e-14 0)
(0.119008 -9.47787e-15 0)
(0.119397 -8.2129e-15 0)
(0.119785 -8.99993e-15 0)
(0.120171 -9.90603e-15 0)
(0.120557 -8.91276e-15 0)
(0.120941 -1.02199e-14 0)
(0.121325 -1.00086e-14 0)
(0.121707 -1.03989e-14 0)
(0.122089 -9.6417e-15 0)
(0.122469 -8.43197e-15 0)
(0.122849 -8.94937e-15 0)
(0.123228 -7.5816e-15 0)
(0.123606 -5.89663e-15 0)
(0.123983 -6.06226e-15 0)
(0.124359 -6.32587e-15 0)
(0.124734 -5.50837e-15 0)
(0.125108 -5.87221e-15 0)
(0.125482 -5.50302e-15 0)
(0.125854 -4.10487e-15 0)
(0.126226 -4.51991e-15 0)
(0.126596 -3.70614e-15 0)
(0.126966 -3.75295e-15 0)
(0.127335 -3.77076e-15 0)
(0.127703 -2.91369e-15 0)
(0.128071 -2.96443e-15 0)
(0.128437 -1.31219e-15 0)
(0.128802 -3.56906e-15 0)
(0.129167 -3.44977e-15 0)
(0.12953 -3.56498e-15 0)
(0.129892 -2.77284e-15 0)
(0.130254 -4.34054e-15 0)
(0.130614 -4.48807e-15 0)
(0.130972 -4.59537e-15 0)
(0.13133 -4.72684e-15 0)
(0.131685 -5.11612e-15 0)
(0.132039 -5.75936e-15 0)
(0.132391 -5.72055e-15 0)
(0.132741 -5.89688e-15 0)
(0.133089 -5.46597e-15 0)
(0.133435 -5.2037e-15 0)
(0.133779 -4.29605e-15 0)
(0.13412 -4.7401e-15 0)
(0.134461 -3.3845e-15 0)
(0.1348 -3.80866e-15 0)
(0.135137 -5.19338e-15 0)
(0.135474 -6.8537e-15 0)
(0.135808 -7.75208e-15 0)
(0.136142 -7.37737e-15 0)
(0.136473 -7.99165e-15 0)
(0.136803 -7.60318e-15 0)
(0.137132 -8.16781e-15 0)
(0.137459 -1.08328e-14 0)
(0.137784 -1.21867e-14 0)
(0.138108 -1.14734e-14 0)
(0.13843 -1.362e-14 0)
(0.138749 -1.12289e-14 0)
(0.139068 -1.20896e-14 0)
(0.139384 -1.39379e-14 0)
(0.139698 -1.37016e-14 0)
(0.14001 -1.39971e-14 0)
(0.14032 -1.38263e-14 0)
(0.140628 -1.51443e-14 0)
(0.140933 -1.35042e-14 0)
(0.141236 -1.49361e-14 0)
(0.141537 -1.68504e-14 0)
(0.141836 -1.58746e-14 0)
(0.142131 -1.63965e-14 0)
(0.142425 -1.63807e-14 0)
(0.142715 -1.64089e-14 0)
(0.143003 -1.52366e-14 0)
(0.143287 -1.66135e-14 0)
(0.143569 -1.9256e-14 0)
(0.143848 -1.90823e-14 0)
(0.144123 -1.89588e-14 0)
(0.144395 -1.77077e-14 0)
(0.144664 -1.80964e-14 0)
(0.144929 -1.79885e-14 0)
(0.14519 -1.84325e-14 0)
(0.145448 -1.77124e-14 0)
(0.145702 -1.76584e-14 0)
(0.145951 -2.05317e-14 0)
(0.146197 -1.79825e-14 0)
(0.146438 -1.80905e-14 0)
(0.146674 -1.74186e-14 0)
(0.146906 -1.65309e-14 0)
(0.147133 -1.78203e-14 0)
(0.147355 -1.67385e-14 0)
(0.147571 -1.74253e-14 0)
(0.147782 -1.53327e-14 0)
(0.147988 -1.58505e-14 0)
(0.148188 -1.41124e-14 0)
(0.148382 -1.29051e-14 0)
(0.14857 -1.30682e-14 0)
(0.148751 -1.23146e-14 0)
(0.148926 -9.72099e-15 0)
(0.149093 -8.17773e-15 0)
(0.149254 -6.6223e-15 0)
(0.149407 -9.21555e-15 0)
(0.149552 -9.44296e-15 0)
(0.14969 -1.04055e-14 0)
(0.149819 -9.81128e-15 0)
(0.14994 -1.22594e-14 0)
(0.150052 -1.41766e-14 0)
(0.150154 -1.31006e-14 0)
(0.150247 -1.51744e-14 0)
(0.15033 -1.38791e-14 0)
(0.150402 -1.42005e-14 0)
(0.150464 -1.39042e-14 0)
(0.150514 -1.50403e-14 0)
(0.150553 -1.60802e-14 0)
(0.150579 -1.81944e-14 0)
(0.150593 -1.77739e-14 0)
(0.150593 -1.68555e-14 0)
(0.150579 -1.40945e-14 0)
(0.150553 -1.24557e-14 0)
(0.150514 -1.31275e-14 0)
(0.150464 -1.51248e-14 0)
(0.150402 -1.60671e-14 0)
(0.15033 -1.6791e-14 0)
(0.150247 -1.73929e-14 0)
(0.150154 -1.65467e-14 0)
(0.150052 -1.65803e-14 0)
(0.14994 -1.73196e-14 0)
(0.149819 -1.8034e-14 0)
(0.14969 -1.82889e-14 0)
(0.149552 -1.85359e-14 0)
(0.149407 -2.06014e-14 0)
(0.149254 -1.97347e-14 0)
(0.149093 -1.94205e-14 0)
(0.148926 -1.69529e-14 0)
(0.148751 -1.465e-14 0)
(0.14857 -1.6624e-14 0)
(0.148382 -1.5727e-14 0)
(0.148188 -1.45094e-14 0)
(0.147988 -1.42554e-14 0)
(0.147782 -1.50406e-14 0)
(0.147571 -1.59318e-14 0)
(0.147355 -1.4418e-14 0)
(0.147133 -1.44668e-14 0)
(0.146906 -1.48284e-14 0)
(0.146674 -1.40729e-14 0)
(0.146438 -1.56012e-14 0)
(0.146197 -1.59176e-14 0)
(0.145951 -1.51051e-14 0)
(0.145702 -1.7815e-14 0)
(0.145448 -1.63857e-14 0)
(0.14519 -1.64269e-14 0)
(0.144929 -1.60791e-14 0)
(0.144664 -1.76988e-14 0)
(0.144395 -1.60553e-14 0)
(0.144123 -1.71822e-14 0)
(0.143848 -1.714e-14 0)
(0.143569 -1.66709e-14 0)
(0.143287 -1.62933e-14 0)
(0.143003 -1.54892e-14 0)
(0.142715 -1.58286e-14 0)
(0.142425 -1.59971e-14 0)
(0.142131 -1.31772e-14 0)
(0.141836 -1.19745e-14 0)
(0.141537 -1.28435e-14 0)
(0.141236 -1.24759e-14 0)
(0.140933 -1.37546e-14 0)
(0.140628 -1.3293e-14 0)
(0.14032 -1.32071e-14 0)
(0.14001 -1.04732e-14 0)
(0.139698 -1.03054e-14 0)
(0.139384 -9.98506e-15 0)
(0.139068 -9.57038e-15 0)
(0.138749 -8.22367e-15 0)
(0.13843 -8.77763e-15 0)
(0.138108 -8.58829e-15 0)
(0.137784 -8.18241e-15 0)
(0.137459 -1.09114e-14 0)
(0.137132 -1.23574e-14 0)
(0.136803 -1.13555e-14 0)
(0.136473 -1.00783e-14 0)
(0.136142 -1.14886e-14 0)
(0.135808 -9.55386e-15 0)
(0.135474 -9.95449e-15 0)
(0.135137 -9.55817e-15 0)
(0.1348 -9.1785e-15 0)
(0.134461 -9.73453e-15 0)
(0.13412 -8.50556e-15 0)
(0.133779 -9.70602e-15 0)
(0.133435 -7.64828e-15 0)
(0.133089 -6.45849e-15 0)
(0.132741 -5.20221e-15 0)
(0.132391 -4.88634e-15 0)
(0.132039 -5.26268e-15 0)
(0.131685 -5.29714e-15 0)
(0.13133 -5.55855e-15 0)
(0.130972 -4.83448e-15 0)
(0.130614 -5.29232e-15 0)
(0.130254 -4.75783e-15 0)
(0.129892 -4.92845e-15 0)
(0.12953 -4.84078e-15 0)
(0.129167 -6.44321e-15 0)
(0.128802 -4.90618e-15 0)
(0.128437 -3.24095e-15 0)
(0.128071 -3.85905e-15 0)
(0.127703 -1.90596e-15 0)
(0.127335 -3.35937e-15 0)
(0.126966 -8.25792e-16 0)
(0.126596 -6.91377e-17 0)
(0.126226 6.05416e-16 0)
(0.125854 -1.2301e-16 0)
(0.125482 5.21688e-16 0)
(0.125108 7.63653e-16 0)
(0.124734 -6.92214e-16 0)
(0.124359 8.48574e-16 0)
(0.123983 -2.02007e-17 0)
(0.123606 3.47706e-16 0)
(0.123228 4.70749e-16 0)
(0.122849 3.09207e-15 0)
(0.122469 2.2027e-15 0)
(0.122089 2.47937e-15 0)
(0.121707 1.72886e-15 0)
(0.121325 -3.05615e-16 0)
(0.120941 1.31221e-15 0)
(0.120557 2.77506e-16 0)
(0.120171 2.23484e-18 0)
(0.119785 -5.57404e-16 0)
(0.119397 -6.24909e-16 0)
(0.119008 8.0616e-16 0)
(0.118619 1.01793e-15 0)
(0.118228 2.72081e-15 0)
(0.117836 2.39768e-15 0)
(0.117443 2.30188e-15 0)
(0.117049 9.18741e-16 0)
(0.116654 6.66817e-16 0)
(0.116258 1.37806e-15 0)
(0.11586 1.23186e-16 0)
(0.115461 8.56794e-16 0)
(0.115061 8.11393e-16 0)
(0.11466 4.24652e-16 0)
(0.114257 -4.09832e-16 0)
(0.113853 -6.31105e-16 0)
(0.113447 4.81417e-16 0)
(0.113041 2.4451e-15 0)
(0.112632 1.95048e-15 0)
(0.112223 2.47501e-15 0)
(0.111812 1.18564e-16 0)
(0.111399 1.84319e-15 0)
(0.110985 2.46613e-15 0)
(0.110569 2.82185e-15 0)
(0.110151 2.19881e-15 0)
(0.109732 2.54395e-15 0)
(0.109311 3.08217e-15 0)
(0.108889 1.83843e-15 0)
(0.108464 6.42081e-16 0)
(0.108038 1.77873e-15 0)
(0.10761 1.4256e-15 0)
(0.10718 2.72562e-15 0)
(0.106748 5.3649e-16 0)
(0.106315 -1.27938e-15 0)
(0.105879 -2.64129e-15 0)
(0.105441 -1.86018e-15 0)
(0.105001 -3.00896e-15 0)
(0.104558 -4.18321e-15 0)
(0.104114 -3.52313e-15 0)
(0.103667 -4.08335e-15 0)
(0.103218 -3.83094e-15 0)
(0.102766 -4.20835e-15 0)
(0.102312 -6.20491e-15 0)
(0.101856 -5.32606e-15 0)
(0.101396 -5.2964e-15 0)
(0.100935 -5.08395e-15 0)
(0.10047 -5.30356e-15 0)
(0.100003 -4.44528e-15 0)
(0.0995332 -3.72085e-15 0)
(0.0990604 -4.27069e-15 0)
(0.0985846 -2.6245e-15 0)
(0.0981058 -2.64898e-15 0)
(0.0976239 -2.73297e-15 0)
(0.0971388 -1.49504e-15 0)
(0.0966506 -6.38039e-16 0)
(0.096159 -1.97421e-15 0)
(0.0956641 -1.16998e-15 0)
(0.0951657 -2.15269e-15 0)
(0.0946637 -2.07319e-15 0)
(0.0941582 -8.58598e-16 0)
(0.093649 -3.27856e-16 0)
(0.0931359 -2.50966e-17 0)
(0.0926191 -1.74764e-16 0)
(0.0920982 -1.5859e-15 0)
(0.0915734 -7.82815e-16 0)
(0.0910444 -8.82705e-16 0)
(0.0905112 -1.62812e-15 0)
(0.0899737 -1.06683e-15 0)
(0.0894318 -8.26611e-17 0)
(0.0888853 8.55522e-16 0)
(0.0883343 1.52036e-15 0)
(0.0877786 1.6246e-15 0)
(0.0872181 2.19329e-15 0)
(0.0866528 1.07358e-15 0)
(0.0860824 1.40789e-15 0)
(0.0855069 2.6694e-15 0)
(0.0849263 2.75811e-15 0)
(0.0843403 3.98173e-15 0)
(0.083749 3.78672e-15 0)
(0.0831521 4.98374e-15 0)
(0.0825497 2.53815e-15 0)
(0.0819415 3.68864e-15 0)
(0.0813275 4.01201e-15 0)
(0.0807076 4.46768e-15 0)
(0.0800817 1.90509e-15 0)
(0.0794497 4.19151e-15 0)
(0.0788114 4.64786e-15 0)
(0.0781668 5.59515e-15 0)
(0.0775158 6.62527e-15 0)
(0.0768583 5.46629e-15 0)
(0.0761942 5.499e-15 0)
(0.0755234 4.06558e-15 0)
(0.0748458 6.00114e-15 0)
(0.0741613 5.9181e-15 0)
(0.07347 7.97659e-15 0)
(0.0727716 7.23564e-15 0)
(0.0720661 5.75195e-15 0)
(0.0713535 7.12915e-15 0)
(0.0706337 4.81318e-15 0)
(0.0699067 6.68175e-15 0)
(0.0691725 3.54996e-15 0)
(0.068431 9.71701e-17 0)
(0.0676821 -1.94304e-15 0)
(0.066926 1.35679e-17 0)
(0.0661625 -1.17994e-15 0)
(0.0653917 -4.48058e-15 0)
(0.0646137 -6.53616e-15 0)
(0.0638285 -3.48635e-15 0)
(0.0630361 -5.51638e-15 0)
(0.0622367 -6.13277e-15 0)
(0.0614302 -4.13825e-15 0)
(0.0606168 -2.99537e-15 0)
(0.0597963 -2.33085e-15 0)
(0.0589679 -4.80483e-15 0)
(0.0581312 -4.2043e-15 0)
(0.0572861 2.06103e-15 0)
(0.0564327 2.52496e-15 0)
(0.0555711 2.56447e-15 0)
(0.0547016 1.34848e-15 0)
(0.0538242 5.55491e-15 0)
(0.0529393 4.55114e-15 0)
(0.052047 2.18508e-15 0)
(0.0511477 3.10464e-15 0)
(0.0502418 -8.92648e-17 0)
(0.0493297 2.51806e-16 0)
(0.0484119 -6.7198e-16 0)
(0.0474888 -4.24373e-16 0)
(0.0465611 1.00439e-15 0)
(0.0456294 5.4079e-15 0)
(0.0446942 4.22301e-15 0)
(0.0437564 1.09639e-14 0)
(0.0428166 1.0158e-14 0)
(0.0418756 9.22795e-15 0)
(0.0409342 8.12971e-15 0)
(0.0399932 7.06919e-15 0)
(0.0390535 4.71262e-15 0)
(0.0381157 6.61751e-15 0)
(0.0371808 2.88258e-15 0)
(0.0362495 8.13793e-15 0)
(0.0353226 7.62641e-15 0)
(0.0344009 8.13605e-15 0)
(0.0334851 3.79699e-15 0)
(0.0325757 6.39889e-15 0)
(0.0316735 7.81423e-15 0)
(0.0307791 6.87017e-15 0)
(0.0298928 9.89308e-15 0)
(0.0290153 1.02203e-14 0)
(0.0281469 1.03744e-14 0)
(0.027288 4.74307e-15 0)
(0.0264388 3.53303e-15 0)
(0.0255998 3.76795e-15 0)
(0.024771 6.10986e-15 0)
(0.0239527 7.80159e-15 0)
(0.0231449 6.16512e-15 0)
(0.0223479 9.26138e-15 0)
(0.0215615 7.24975e-15 0)
(0.020786 7.32059e-15 0)
(0.0200213 7.92762e-15 0)
(0.0192673 7.63652e-15 0)
(0.0185241 9.26905e-15 0)
(0.0177916 7.32839e-15 0)
(0.0170696 8.57266e-15 0)
(0.0163582 9.82155e-15 0)
(0.0156573 1.16861e-14 0)
(0.0149667 9.3132e-15 0)
(0.0142863 9.43771e-15 0)
(0.013616 1.06795e-14 0)
(0.0129557 1.11789e-14 0)
(0.0123053 6.91141e-15 0)
(0.0116646 5.16274e-15 0)
(0.0110335 6.1036e-15 0)
(0.0104119 4.76874e-15 0)
(0.00979959 4.04799e-15 0)
(0.00919653 1.97484e-15 0)
(0.00860256 9.7572e-16 0)
(0.00801753 1.12986e-15 0)
(0.00744133 1.3564e-16 0)
(0.00687381 3.10462e-16 0)
(0.00631486 9.9703e-16 0)
(0.00576435 1.47549e-16 0)
(0.00522215 -1.48764e-15 0)
(0.00468815 1.3973e-15 0)
(0.00416221 1.45735e-15 0)
(0.00364421 6.12029e-16 0)
(0.00313405 -1.7284e-16 0)
(0.00263159 7.14257e-16 0)
(0.00213674 1.06604e-15 0)
(0.00164937 2.65182e-16 0)
(0.00116937 -3.91078e-16 0)
(0.000696625 3.18101e-16 0)
(0.000231037 -1.82668e-17 0)
)
;

boundaryField
{
    bottomWall
    {
        type            noSlip;
    }
    topWall
    {
        type            noSlip;
    }
    sides1_half0
    {
        type            empty;
    }
    sides1_half1
    {
        type            empty;
    }
    sides2_half0
    {
        type            empty;
    }
    sides2_half1
    {
        type            empty;
    }
    inout1_half0
    {
        type            cyclic;
    }
    inout1_half1
    {
        type            cyclic;
    }
    inout2_half0
    {
        type            cyclic;
    }
    inout2_half1
    {
        type            cyclic;
    }
}


// ************************************************************************* //
