/*--------------------------------*- C++ -*----------------------------------*\
  =========                 |
  \\      /  F ield         | OpenFOAM: The Open Source CFD Toolbox
   \\    /   O peration     | Website:  https://openfoam.org
    \\  /    A nd           | Version:  7
     \\/     M anipulation  |
\*---------------------------------------------------------------------------*/
FoamFile
{
    version     2.0;
    format      ascii;
    class       volScalarField;
    location    "18500";
    object      nut;
}
// * * * * * * * * * * * * * * * * * * * * * * * * * * * * * * * * * * * * * //

dimensions      [0 2 -1 0 0 0 0];

internalField   nonuniform List<scalar> 
4000
(
0.00321971
0.00322049
0.00322051
0.00322037
0.00322021
0.00322005
0.0032199
0.00321975
0.0032196
0.00321946
0.00321933
0.00321919
0.00321907
0.00321894
0.00321882
0.00321871
0.00321859
0.00321847
0.00321836
0.00321825
0.00321813
0.00321802
0.00321791
0.00321779
0.00321768
0.00321757
0.00321746
0.00321735
0.00321724
0.00321713
0.00321703
0.00321693
0.00321683
0.00321673
0.00321663
0.00321654
0.00321644
0.00321635
0.00321626
0.00321617
0.00321608
0.00321599
0.00321591
0.00321581
0.00321586
0.003217
0.00321768
0.0032179
0.00321791
0.00321785
0.00321776
0.00321767
0.00321757
0.00321747
0.00321736
0.00321726
0.00321716
0.00321706
0.00321696
0.00321686
0.00321676
0.00321666
0.00321656
0.00321646
0.00321636
0.00321627
0.00321617
0.00321607
0.00321597
0.00321587
0.00321577
0.00321567
0.00321557
0.00321548
0.00321538
0.00321529
0.0032152
0.0032151
0.00321502
0.00321493
0.00321484
0.00321476
0.00321467
0.00321459
0.00321451
0.00321443
0.00321435
0.00321428
0.0032142
0.00321413
0.00321405
0.00321398
0.00321391
0.00321384
0.00321378
0.00321371
0.00321365
0.00321358
0.00321352
0.00321346
0.00321339
0.00321334
0.00321327
0.00321334
0.00321452
0.00321523
0.00321547
0.00321551
0.00321548
0.00321543
0.00321537
0.0032153
0.00321523
0.00321516
0.00321509
0.00321502
0.00321496
0.00321489
0.0032148
0.00321543
0.00320806
0.00320889
0.00320897
0.00320889
0.00320877
0.00320864
0.0032085
0.00320837
0.00320825
0.00320812
0.003208
0.00320788
0.00320776
0.00320765
0.00320754
0.00320743
0.00320732
0.00320722
0.00320711
0.00320701
0.0032069
0.0032068
0.0032067
0.00320659
0.00320648
0.00320638
0.00320628
0.00320617
0.00320607
0.00320597
0.00320587
0.00320578
0.00320568
0.00320559
0.0032055
0.00320541
0.00320532
0.00320524
0.00320515
0.00320507
0.00320498
0.0032049
0.00320482
0.00320474
0.00320469
0.00320503
0.00320544
0.00320574
0.0032059
0.00320596
0.00320597
0.00320595
0.00320591
0.00320585
0.00320579
0.00320572
0.00320565
0.00320558
0.0032055
0.00320542
0.00320534
0.00320526
0.00320518
0.0032051
0.00320502
0.00320493
0.00320484
0.00320476
0.00320467
0.00320458
0.0032045
0.00320441
0.00320432
0.00320423
0.00320415
0.00320406
0.00320398
0.00320389
0.00320381
0.00320373
0.00320365
0.00320357
0.0032035
0.00320342
0.00320334
0.00320327
0.0032032
0.00320312
0.00320305
0.00320298
0.00320292
0.00320285
0.00320278
0.00320272
0.00320266
0.00320259
0.00320253
0.00320247
0.00320241
0.00320235
0.0032023
0.00320224
0.00320218
0.00320216
0.00320252
0.00320297
0.00320329
0.00320348
0.00320357
0.00320361
0.00320362
0.00320361
0.00320359
0.00320356
0.00320352
0.00320348
0.00320344
0.00320339
0.00320333
0.0032039
0.00318781
0.00318863
0.00318874
0.00318869
0.0031886
0.00318849
0.00318838
0.00318827
0.00318816
0.00318805
0.00318794
0.00318784
0.00318774
0.00318763
0.00318753
0.00318744
0.00318734
0.00318724
0.00318715
0.00318705
0.00318696
0.00318686
0.00318676
0.00318667
0.00318657
0.00318647
0.00318638
0.00318628
0.00318618
0.00318609
0.003186
0.00318591
0.00318582
0.00318574
0.00318565
0.00318557
0.00318549
0.00318541
0.00318533
0.00318525
0.00318517
0.0031851
0.00318502
0.00318495
0.00318488
0.00318494
0.00318511
0.0031853
0.00318545
0.00318554
0.0031856
0.00318562
0.00318561
0.00318559
0.00318556
0.00318552
0.00318547
0.00318542
0.00318537
0.00318531
0.00318524
0.00318518
0.00318511
0.00318504
0.00318497
0.0031849
0.00318483
0.00318475
0.00318467
0.0031846
0.00318452
0.00318444
0.00318436
0.00318429
0.00318421
0.00318413
0.00318405
0.00318398
0.0031839
0.00318383
0.00318375
0.00318368
0.00318361
0.00318354
0.00318347
0.0031834
0.00318333
0.00318327
0.0031832
0.00318313
0.00318307
0.00318301
0.00318295
0.00318288
0.00318283
0.00318277
0.00318271
0.00318265
0.0031826
0.00318254
0.00318249
0.00318243
0.00318238
0.00318234
0.00318243
0.00318262
0.00318284
0.00318301
0.00318313
0.00318321
0.00318326
0.00318328
0.00318329
0.00318329
0.00318328
0.00318326
0.00318324
0.00318322
0.00318317
0.00318372
0.00315949
0.0031603
0.00316042
0.00316039
0.00316032
0.00316023
0.00316014
0.00316005
0.00315995
0.00315986
0.00315977
0.00315967
0.00315958
0.00315949
0.00315941
0.00315932
0.00315923
0.00315915
0.00315906
0.00315897
0.00315889
0.0031588
0.00315871
0.00315862
0.00315853
0.00315844
0.00315835
0.00315826
0.00315818
0.00315809
0.003158
0.00315792
0.00315784
0.00315776
0.00315768
0.0031576
0.00315753
0.00315746
0.00315738
0.00315731
0.00315724
0.00315717
0.0031571
0.00315703
0.00315696
0.00315694
0.00315698
0.00315705
0.00315714
0.00315721
0.00315726
0.00315729
0.0031573
0.0031573
0.00315729
0.00315726
0.00315723
0.0031572
0.00315715
0.00315711
0.00315706
0.00315701
0.00315695
0.00315689
0.00315683
0.00315677
0.00315671
0.00315664
0.00315658
0.00315651
0.00315644
0.00315637
0.0031563
0.00315623
0.00315616
0.00315609
0.00315602
0.00315595
0.00315588
0.00315581
0.00315574
0.00315568
0.00315561
0.00315554
0.00315548
0.00315541
0.00315535
0.00315529
0.00315523
0.00315516
0.0031551
0.00315505
0.00315499
0.00315493
0.00315487
0.00315482
0.00315477
0.00315471
0.00315466
0.00315461
0.00315456
0.00315451
0.00315446
0.00315441
0.00315441
0.00315447
0.00315457
0.00315468
0.00315478
0.00315485
0.00315491
0.00315495
0.00315497
0.00315499
0.00315499
0.00315499
0.00315498
0.00315497
0.00315493
0.00315547
0.00312373
0.00312453
0.00312465
0.00312463
0.00312457
0.00312451
0.00312443
0.00312435
0.00312427
0.00312419
0.00312411
0.00312403
0.00312395
0.00312387
0.0031238
0.00312372
0.00312364
0.00312357
0.00312349
0.00312341
0.00312333
0.00312325
0.00312317
0.00312309
0.00312301
0.00312293
0.00312285
0.00312276
0.00312268
0.0031226
0.00312252
0.00312245
0.00312237
0.0031223
0.00312223
0.00312216
0.00312209
0.00312202
0.00312195
0.00312189
0.00312182
0.00312175
0.00312169
0.00312163
0.00312156
0.00312151
0.00312149
0.0031215
0.00312153
0.00312156
0.00312159
0.00312161
0.00312162
0.00312162
0.00312161
0.0031216
0.00312157
0.00312155
0.00312151
0.00312148
0.00312144
0.00312139
0.00312135
0.0031213
0.00312124
0.00312119
0.00312114
0.00312108
0.00312102
0.00312096
0.0031209
0.00312083
0.00312077
0.0031207
0.00312064
0.00312058
0.00312051
0.00312045
0.00312038
0.00312032
0.00312026
0.00312019
0.00312013
0.00312007
0.00312001
0.00311995
0.00311989
0.00311983
0.00311977
0.00311972
0.00311966
0.0031196
0.00311955
0.00311949
0.00311944
0.00311939
0.00311934
0.00311929
0.00311924
0.00311919
0.00311914
0.00311909
0.00311905
0.003119
0.00311897
0.00311897
0.003119
0.00311905
0.00311911
0.00311916
0.0031192
0.00311924
0.00311926
0.00311928
0.00311929
0.00311929
0.00311929
0.00311929
0.00311926
0.00311978
0.00308119
0.00308198
0.00308211
0.00308209
0.00308205
0.00308199
0.00308192
0.00308186
0.00308179
0.00308172
0.00308165
0.00308158
0.00308152
0.00308145
0.00308138
0.00308131
0.00308125
0.00308118
0.00308111
0.00308104
0.00308097
0.0030809
0.00308082
0.00308075
0.00308068
0.0030806
0.00308053
0.00308045
0.00308038
0.00308031
0.00308023
0.00308016
0.0030801
0.00308003
0.00307996
0.0030799
0.00307983
0.00307977
0.00307971
0.00307965
0.00307959
0.00307953
0.00307947
0.00307941
0.00307935
0.00307929
0.00307925
0.00307923
0.00307922
0.00307922
0.00307922
0.00307922
0.00307922
0.00307922
0.0030792
0.00307919
0.00307917
0.00307914
0.00307911
0.00307908
0.00307905
0.00307901
0.00307897
0.00307892
0.00307888
0.00307883
0.00307878
0.00307872
0.00307867
0.00307862
0.00307856
0.0030785
0.00307844
0.00307838
0.00307832
0.00307826
0.0030782
0.00307814
0.00307808
0.00307802
0.00307797
0.00307791
0.00307785
0.00307779
0.00307773
0.00307768
0.00307762
0.00307756
0.00307751
0.00307745
0.0030774
0.00307735
0.0030773
0.00307725
0.0030772
0.00307715
0.0030771
0.00307705
0.003077
0.00307695
0.00307691
0.00307686
0.00307682
0.00307678
0.00307674
0.00307672
0.00307671
0.00307672
0.00307674
0.00307676
0.00307678
0.00307681
0.00307682
0.00307684
0.00307684
0.00307685
0.00307685
0.00307684
0.00307682
0.00307732
0.00303256
0.00303333
0.00303346
0.00303346
0.00303342
0.00303337
0.00303331
0.00303326
0.0030332
0.00303314
0.00303308
0.00303302
0.00303297
0.00303291
0.00303285
0.00303279
0.00303273
0.00303267
0.00303261
0.00303255
0.00303249
0.00303242
0.00303236
0.00303229
0.00303222
0.00303215
0.00303209
0.00303202
0.00303195
0.00303189
0.00303182
0.00303176
0.0030317
0.00303163
0.00303157
0.00303151
0.00303146
0.0030314
0.00303134
0.00303129
0.00303123
0.00303118
0.00303112
0.00303107
0.00303101
0.00303096
0.00303091
0.00303087
0.00303084
0.00303081
0.0030308
0.00303078
0.00303077
0.00303075
0.00303074
0.00303072
0.00303069
0.00303067
0.00303064
0.00303061
0.00303057
0.00303053
0.0030305
0.00303045
0.00303041
0.00303037
0.00303032
0.00303027
0.00303022
0.00303017
0.00303011
0.00303006
0.00303001
0.00302995
0.00302989
0.00302984
0.00302978
0.00302972
0.00302967
0.00302961
0.00302956
0.0030295
0.00302944
0.00302939
0.00302933
0.00302928
0.00302923
0.00302917
0.00302912
0.00302907
0.00302902
0.00302897
0.00302892
0.00302887
0.00302882
0.00302877
0.00302873
0.00302868
0.00302863
0.00302859
0.00302855
0.0030285
0.00302846
0.00302842
0.00302838
0.00302835
0.00302832
0.00302831
0.0030283
0.00302831
0.00302831
0.00302832
0.00302832
0.00302833
0.00302833
0.00302833
0.00302833
0.00302832
0.0030283
0.00302877
0.00297851
0.00297927
0.00297941
0.00297941
0.00297937
0.00297933
0.00297929
0.00297924
0.00297919
0.00297914
0.00297909
0.00297904
0.00297899
0.00297894
0.00297889
0.00297884
0.00297879
0.00297874
0.00297868
0.00297863
0.00297857
0.00297852
0.00297846
0.0029784
0.00297834
0.00297828
0.00297822
0.00297816
0.00297809
0.00297804
0.00297798
0.00297792
0.00297786
0.00297781
0.00297775
0.0029777
0.00297765
0.00297759
0.00297754
0.00297749
0.00297744
0.00297739
0.00297734
0.00297729
0.00297723
0.00297718
0.00297713
0.00297709
0.00297705
0.00297701
0.00297698
0.00297696
0.00297693
0.00297691
0.00297688
0.00297685
0.00297683
0.0029768
0.00297677
0.00297673
0.0029767
0.00297666
0.00297662
0.00297658
0.00297654
0.00297649
0.00297645
0.0029764
0.00297635
0.0029763
0.00297625
0.0029762
0.00297615
0.00297609
0.00297604
0.00297599
0.00297593
0.00297588
0.00297582
0.00297577
0.00297572
0.00297566
0.00297561
0.00297556
0.0029755
0.00297545
0.0029754
0.00297535
0.0029753
0.00297525
0.0029752
0.00297515
0.0029751
0.00297505
0.00297501
0.00297496
0.00297492
0.00297487
0.00297483
0.00297478
0.00297474
0.0029747
0.00297466
0.00297462
0.00297458
0.00297454
0.00297451
0.00297449
0.00297447
0.00297445
0.00297444
0.00297444
0.00297443
0.00297443
0.00297442
0.00297442
0.00297441
0.0029744
0.00297437
0.00297481
0.00291973
0.00292048
0.00292062
0.00292062
0.0029206
0.00292056
0.00292052
0.00292048
0.00292044
0.0029204
0.00292036
0.00292032
0.00292027
0.00292023
0.00292019
0.00292015
0.0029201
0.00292006
0.00292001
0.00291996
0.00291992
0.00291987
0.00291981
0.00291976
0.00291971
0.00291965
0.0029196
0.00291954
0.00291949
0.00291944
0.00291938
0.00291933
0.00291928
0.00291923
0.00291918
0.00291913
0.00291909
0.00291904
0.00291899
0.00291894
0.0029189
0.00291885
0.0029188
0.00291875
0.00291871
0.00291866
0.00291861
0.00291856
0.00291852
0.00291848
0.00291844
0.0029184
0.00291837
0.00291834
0.0029183
0.00291827
0.00291824
0.0029182
0.00291817
0.00291813
0.00291809
0.00291806
0.00291802
0.00291797
0.00291793
0.00291789
0.00291784
0.00291779
0.00291775
0.0029177
0.00291765
0.0029176
0.00291755
0.00291749
0.00291744
0.00291739
0.00291734
0.00291728
0.00291723
0.00291718
0.00291712
0.00291707
0.00291702
0.00291697
0.00291692
0.00291687
0.00291682
0.00291677
0.00291672
0.00291667
0.00291662
0.00291657
0.00291653
0.00291648
0.00291644
0.00291639
0.00291635
0.0029163
0.00291626
0.00291622
0.00291618
0.00291614
0.0029161
0.00291606
0.00291602
0.00291598
0.00291595
0.00291592
0.00291589
0.00291587
0.00291585
0.00291583
0.00291582
0.0029158
0.00291579
0.00291578
0.00291577
0.00291576
0.00291572
0.00291613
0.00285687
0.0028576
0.00285775
0.00285776
0.00285774
0.00285771
0.00285768
0.00285765
0.00285762
0.00285758
0.00285755
0.00285752
0.00285748
0.00285744
0.00285741
0.00285737
0.00285734
0.0028573
0.00285726
0.00285722
0.00285718
0.00285713
0.00285709
0.00285704
0.00285699
0.00285695
0.0028569
0.00285685
0.0028568
0.00285675
0.00285671
0.00285666
0.00285662
0.00285657
0.00285653
0.00285648
0.00285644
0.0028564
0.00285635
0.00285631
0.00285627
0.00285622
0.00285618
0.00285613
0.00285609
0.00285604
0.00285599
0.00285595
0.0028559
0.00285586
0.00285581
0.00285577
0.00285573
0.00285569
0.00285566
0.00285562
0.00285558
0.00285554
0.0028555
0.00285546
0.00285542
0.00285538
0.00285534
0.00285529
0.00285525
0.0028552
0.00285516
0.00285511
0.00285506
0.00285501
0.00285496
0.00285491
0.00285486
0.00285481
0.00285476
0.0028547
0.00285465
0.0028546
0.00285455
0.0028545
0.00285444
0.00285439
0.00285434
0.00285429
0.00285424
0.00285419
0.00285414
0.00285409
0.00285404
0.002854
0.00285395
0.0028539
0.00285386
0.00285381
0.00285377
0.00285372
0.00285368
0.00285364
0.0028536
0.00285355
0.00285351
0.00285347
0.00285344
0.0028534
0.00285336
0.00285332
0.00285329
0.00285325
0.00285322
0.00285319
0.00285317
0.00285314
0.00285312
0.0028531
0.00285309
0.00285307
0.00285305
0.00285304
0.002853
0.00285337
0.00279057
0.00279129
0.00279144
0.00279146
0.00279145
0.00279143
0.0027914
0.00279138
0.00279135
0.00279133
0.0027913
0.00279127
0.00279124
0.00279122
0.00279119
0.00279116
0.00279113
0.0027911
0.00279106
0.00279103
0.00279099
0.00279096
0.00279092
0.00279088
0.00279084
0.00279079
0.00279075
0.00279071
0.00279067
0.00279063
0.00279059
0.00279054
0.0027905
0.00279047
0.00279043
0.00279039
0.00279035
0.00279031
0.00279027
0.00279022
0.00279018
0.00279014
0.0027901
0.00279006
0.00279001
0.00278997
0.00278992
0.00278988
0.00278983
0.00278978
0.00278974
0.00278969
0.00278965
0.00278961
0.00278956
0.00278952
0.00278948
0.00278943
0.00278939
0.00278935
0.0027893
0.00278926
0.00278921
0.00278917
0.00278912
0.00278907
0.00278902
0.00278897
0.00278892
0.00278887
0.00278882
0.00278877
0.00278872
0.00278867
0.00278862
0.00278857
0.00278851
0.00278846
0.00278841
0.00278836
0.00278831
0.00278826
0.00278821
0.00278816
0.00278811
0.00278806
0.00278801
0.00278796
0.00278791
0.00278786
0.00278782
0.00278777
0.00278773
0.00278768
0.00278764
0.0027876
0.00278755
0.00278751
0.00278747
0.00278743
0.00278739
0.00278735
0.00278731
0.00278727
0.00278724
0.0027872
0.00278716
0.00278713
0.0027871
0.00278706
0.00278703
0.00278701
0.00278698
0.00278696
0.00278694
0.00278692
0.0027869
0.00278688
0.00278684
0.00278718
0.00272143
0.00272213
0.00272228
0.00272231
0.00272231
0.0027223
0.00272228
0.00272227
0.00272225
0.00272223
0.00272221
0.00272219
0.00272217
0.00272215
0.00272213
0.0027221
0.00272208
0.00272206
0.00272203
0.002722
0.00272197
0.00272194
0.00272191
0.00272187
0.00272184
0.0027218
0.00272177
0.00272173
0.00272169
0.00272166
0.00272162
0.00272158
0.00272155
0.00272151
0.00272148
0.00272144
0.00272141
0.00272137
0.00272133
0.00272129
0.00272125
0.00272121
0.00272117
0.00272113
0.00272108
0.00272104
0.00272099
0.00272095
0.0027209
0.00272085
0.00272081
0.00272076
0.00272071
0.00272067
0.00272062
0.00272057
0.00272053
0.00272048
0.00272043
0.00272038
0.00272034
0.00272029
0.00272024
0.00272019
0.00272014
0.00272009
0.00272004
0.00271999
0.00271994
0.00271989
0.00271984
0.00271979
0.00271973
0.00271968
0.00271963
0.00271958
0.00271952
0.00271947
0.00271942
0.00271937
0.00271932
0.00271927
0.00271922
0.00271917
0.00271912
0.00271907
0.00271902
0.00271897
0.00271892
0.00271888
0.00271883
0.00271878
0.00271874
0.0027187
0.00271865
0.00271861
0.00271857
0.00271853
0.00271848
0.00271844
0.00271841
0.00271837
0.00271833
0.00271829
0.00271825
0.00271822
0.00271818
0.00271815
0.00271811
0.00271808
0.00271805
0.00271802
0.00271799
0.00271797
0.00271794
0.00271792
0.0027179
0.00271788
0.00271784
0.00271814
0.00265002
0.0026507
0.00265086
0.00265089
0.0026509
0.0026509
0.00265089
0.00265088
0.00265087
0.00265086
0.00265085
0.00265083
0.00265082
0.00265081
0.00265079
0.00265078
0.00265076
0.00265074
0.00265072
0.0026507
0.00265068
0.00265065
0.00265063
0.0026506
0.00265057
0.00265054
0.00265051
0.00265048
0.00265044
0.00265041
0.00265038
0.00265035
0.00265032
0.00265029
0.00265025
0.00265022
0.00265019
0.00265015
0.00265011
0.00265008
0.00265004
0.00265
0.00264996
0.00264991
0.00264987
0.00264983
0.00264978
0.00264973
0.00264969
0.00264964
0.00264959
0.00264954
0.00264949
0.00264944
0.00264939
0.00264934
0.00264929
0.00264924
0.00264919
0.00264914
0.00264908
0.00264903
0.00264898
0.00264893
0.00264888
0.00264883
0.00264877
0.00264872
0.00264867
0.00264862
0.00264856
0.00264851
0.00264846
0.0026484
0.00264835
0.0026483
0.00264824
0.00264819
0.00264814
0.00264809
0.00264804
0.00264799
0.00264794
0.00264789
0.00264784
0.00264779
0.00264774
0.00264769
0.00264764
0.0026476
0.00264755
0.00264751
0.00264746
0.00264742
0.00264737
0.00264733
0.00264729
0.00264725
0.00264721
0.00264717
0.00264713
0.00264709
0.00264705
0.00264702
0.00264698
0.00264694
0.00264691
0.00264687
0.00264684
0.0026468
0.00264677
0.00264674
0.00264671
0.00264669
0.00264666
0.00264664
0.00264662
0.0026466
0.00264656
0.00264683
0.00257686
0.00257753
0.00257769
0.00257773
0.00257774
0.00257775
0.00257775
0.00257775
0.00257775
0.00257775
0.00257774
0.00257774
0.00257773
0.00257773
0.00257772
0.00257771
0.0025777
0.00257769
0.00257767
0.00257766
0.00257764
0.00257762
0.0025776
0.00257758
0.00257755
0.00257753
0.0025775
0.00257748
0.00257745
0.00257742
0.00257739
0.00257737
0.00257734
0.00257731
0.00257728
0.00257725
0.00257721
0.00257718
0.00257714
0.00257711
0.00257707
0.00257703
0.00257698
0.00257694
0.0025769
0.00257685
0.0025768
0.00257675
0.0025767
0.00257665
0.0025766
0.00257655
0.0025765
0.00257644
0.00257639
0.00257634
0.00257628
0.00257623
0.00257618
0.00257612
0.00257607
0.00257602
0.00257596
0.00257591
0.00257585
0.0025758
0.00257574
0.00257569
0.00257563
0.00257558
0.00257553
0.00257547
0.00257542
0.00257536
0.00257531
0.00257526
0.0025752
0.00257515
0.0025751
0.00257504
0.00257499
0.00257494
0.00257489
0.00257484
0.00257479
0.00257474
0.0025747
0.00257465
0.0025746
0.00257456
0.00257451
0.00257446
0.00257442
0.00257438
0.00257433
0.00257429
0.00257425
0.00257421
0.00257417
0.00257413
0.00257409
0.00257405
0.00257401
0.00257398
0.00257394
0.0025739
0.00257387
0.00257383
0.0025738
0.00257377
0.00257374
0.00257371
0.00257368
0.00257365
0.00257363
0.0025736
0.00257358
0.00257357
0.00257353
0.00257378
0.00250243
0.00250309
0.00250326
0.00250331
0.00250333
0.00250335
0.00250336
0.00250337
0.00250338
0.00250338
0.00250339
0.00250339
0.00250339
0.00250339
0.00250339
0.00250339
0.00250338
0.00250338
0.00250337
0.00250336
0.00250335
0.00250333
0.00250332
0.0025033
0.00250328
0.00250326
0.00250324
0.00250322
0.00250319
0.00250317
0.00250315
0.00250312
0.00250309
0.00250307
0.00250304
0.00250301
0.00250297
0.00250294
0.0025029
0.00250286
0.00250282
0.00250278
0.00250274
0.00250269
0.00250264
0.00250259
0.00250254
0.00250249
0.00250244
0.00250239
0.00250233
0.00250228
0.00250222
0.00250217
0.00250211
0.00250206
0.002502
0.00250194
0.00250189
0.00250183
0.00250177
0.00250172
0.00250166
0.0025016
0.00250155
0.00250149
0.00250144
0.00250138
0.00250132
0.00250127
0.00250121
0.00250116
0.0025011
0.00250105
0.00250099
0.00250094
0.00250088
0.00250083
0.00250078
0.00250072
0.00250067
0.00250062
0.00250057
0.00250052
0.00250047
0.00250042
0.00250038
0.00250033
0.00250028
0.00250024
0.00250019
0.00250015
0.0025001
0.00250006
0.00250002
0.00249998
0.00249993
0.00249989
0.00249985
0.00249981
0.00249978
0.00249974
0.0024997
0.00249966
0.00249963
0.00249959
0.00249956
0.00249952
0.00249949
0.00249946
0.00249943
0.0024994
0.00249937
0.00249935
0.00249932
0.0024993
0.00249929
0.00249927
0.00249925
0.00249946
0.00242721
0.00242785
0.00242802
0.00242808
0.00242812
0.00242814
0.00242816
0.00242818
0.0024282
0.00242821
0.00242822
0.00242823
0.00242824
0.00242825
0.00242825
0.00242826
0.00242826
0.00242826
0.00242826
0.00242825
0.00242824
0.00242823
0.00242822
0.00242821
0.00242819
0.00242818
0.00242816
0.00242814
0.00242812
0.0024281
0.00242808
0.00242806
0.00242803
0.00242801
0.00242798
0.00242794
0.00242791
0.00242787
0.00242783
0.00242779
0.00242775
0.0024277
0.00242766
0.00242761
0.00242756
0.0024275
0.00242745
0.0024274
0.00242734
0.00242729
0.00242723
0.00242717
0.00242711
0.00242706
0.002427
0.00242694
0.00242688
0.00242682
0.00242676
0.0024267
0.00242664
0.00242658
0.00242652
0.00242647
0.00242641
0.00242635
0.00242629
0.00242623
0.00242618
0.00242612
0.00242606
0.00242601
0.00242595
0.0024259
0.00242584
0.00242579
0.00242573
0.00242568
0.00242563
0.00242557
0.00242552
0.00242547
0.00242542
0.00242537
0.00242532
0.00242527
0.00242523
0.00242518
0.00242513
0.00242509
0.00242504
0.002425
0.00242496
0.00242491
0.00242487
0.00242483
0.00242479
0.00242475
0.00242471
0.00242467
0.00242463
0.00242459
0.00242456
0.00242452
0.00242448
0.00242445
0.00242441
0.00242438
0.00242435
0.00242432
0.00242429
0.00242426
0.00242424
0.00242422
0.0024242
0.00242419
0.00242417
0.00242417
0.00242415
0.00242434
0.00235158
0.00235221
0.00235238
0.00235246
0.0023525
0.00235254
0.00235257
0.00235259
0.00235262
0.00235264
0.00235266
0.00235267
0.00235269
0.0023527
0.00235271
0.00235272
0.00235273
0.00235274
0.00235274
0.00235274
0.00235274
0.00235273
0.00235272
0.00235271
0.0023527
0.00235269
0.00235268
0.00235266
0.00235265
0.00235263
0.00235261
0.00235258
0.00235256
0.00235253
0.0023525
0.00235246
0.00235242
0.00235238
0.00235234
0.00235229
0.00235225
0.0023522
0.00235215
0.00235209
0.00235204
0.00235198
0.00235193
0.00235187
0.00235181
0.00235175
0.00235169
0.00235163
0.00235157
0.00235151
0.00235145
0.00235139
0.00235132
0.00235126
0.0023512
0.00235114
0.00235108
0.00235102
0.00235096
0.0023509
0.00235084
0.00235078
0.00235072
0.00235066
0.0023506
0.00235054
0.00235049
0.00235043
0.00235037
0.00235032
0.00235026
0.00235021
0.00235015
0.0023501
0.00235005
0.00235
0.00234994
0.00234989
0.00234984
0.00234979
0.00234975
0.0023497
0.00234965
0.0023496
0.00234956
0.00234951
0.00234947
0.00234943
0.00234938
0.00234934
0.0023493
0.00234926
0.00234922
0.00234918
0.00234914
0.0023491
0.00234907
0.00234903
0.00234899
0.00234896
0.00234892
0.00234889
0.00234885
0.00234882
0.00234879
0.00234876
0.00234874
0.00234871
0.00234869
0.00234868
0.00234867
0.00234866
0.00234865
0.00234865
0.00234864
0.00234881
0.00227592
0.00227654
0.00227672
0.0022768
0.00227685
0.0022769
0.00227694
0.00227697
0.002277
0.00227703
0.00227706
0.00227708
0.0022771
0.00227712
0.00227714
0.00227715
0.00227717
0.00227718
0.00227718
0.00227719
0.00227719
0.00227719
0.00227718
0.00227718
0.00227717
0.00227716
0.00227715
0.00227714
0.00227712
0.0022771
0.00227708
0.00227705
0.00227703
0.00227699
0.00227696
0.00227692
0.00227688
0.00227683
0.00227678
0.00227673
0.00227668
0.00227663
0.00227657
0.00227651
0.00227645
0.00227639
0.00227633
0.00227627
0.00227621
0.00227614
0.00227608
0.00227602
0.00227595
0.00227589
0.00227583
0.00227576
0.0022757
0.00227564
0.00227557
0.00227551
0.00227545
0.00227538
0.00227532
0.00227526
0.0022752
0.00227514
0.00227508
0.00227502
0.00227496
0.0022749
0.00227485
0.00227479
0.00227473
0.00227468
0.00227462
0.00227457
0.00227451
0.00227446
0.00227441
0.00227436
0.00227431
0.00227426
0.00227421
0.00227416
0.00227411
0.00227407
0.00227402
0.00227397
0.00227393
0.00227388
0.00227384
0.0022738
0.00227376
0.00227372
0.00227367
0.00227363
0.0022736
0.00227356
0.00227352
0.00227348
0.00227344
0.00227341
0.00227337
0.00227334
0.0022733
0.00227327
0.00227324
0.00227321
0.00227318
0.00227315
0.00227313
0.00227312
0.00227311
0.0022731
0.00227309
0.0022731
0.0022731
0.00227311
0.0022731
0.00227325
0.00220056
0.00220116
0.00220135
0.00220144
0.00220151
0.00220156
0.00220161
0.00220165
0.00220169
0.00220172
0.00220176
0.00220179
0.00220181
0.00220184
0.00220186
0.00220188
0.00220189
0.00220191
0.00220192
0.00220192
0.00220193
0.00220193
0.00220193
0.00220193
0.00220192
0.00220191
0.0022019
0.00220189
0.00220187
0.00220185
0.00220183
0.0022018
0.00220177
0.00220173
0.00220169
0.00220164
0.00220159
0.00220154
0.00220149
0.00220143
0.00220137
0.00220131
0.00220125
0.00220119
0.00220112
0.00220106
0.00220099
0.00220093
0.00220086
0.00220079
0.00220073
0.00220066
0.00220059
0.00220053
0.00220046
0.0022004
0.00220033
0.00220027
0.0022002
0.00220014
0.00220007
0.00220001
0.00219995
0.00219989
0.00219983
0.00219977
0.00219971
0.00219965
0.00219959
0.00219953
0.00219947
0.00219942
0.00219936
0.0021993
0.00219925
0.0021992
0.00219914
0.00219909
0.00219904
0.00219899
0.00219894
0.00219889
0.00219884
0.0021988
0.00219875
0.0021987
0.00219866
0.00219861
0.00219857
0.00219853
0.00219848
0.00219844
0.0021984
0.00219836
0.00219832
0.00219828
0.00219824
0.00219821
0.00219817
0.00219813
0.0021981
0.00219806
0.00219803
0.00219799
0.00219796
0.00219793
0.0021979
0.00219787
0.00219785
0.00219783
0.00219782
0.00219781
0.00219781
0.00219781
0.00219781
0.00219783
0.00219784
0.00219786
0.00219787
0.002198
0.0021258
0.00212639
0.00212658
0.00212668
0.00212675
0.00212681
0.00212687
0.00212692
0.00212696
0.002127
0.00212704
0.00212708
0.00212711
0.00212713
0.00212716
0.00212718
0.0021272
0.00212722
0.00212723
0.00212724
0.00212725
0.00212725
0.00212725
0.00212725
0.00212725
0.00212724
0.00212723
0.00212721
0.00212719
0.00212717
0.00212714
0.0021271
0.00212706
0.00212702
0.00212697
0.00212692
0.00212686
0.0021268
0.00212674
0.00212667
0.00212661
0.00212654
0.00212647
0.0021264
0.00212634
0.00212627
0.0021262
0.00212613
0.00212606
0.00212599
0.00212592
0.00212585
0.00212578
0.00212572
0.00212565
0.00212558
0.00212552
0.00212545
0.00212538
0.00212532
0.00212525
0.00212519
0.00212513
0.00212507
0.00212501
0.00212495
0.00212489
0.00212483
0.00212477
0.00212471
0.00212466
0.0021246
0.00212454
0.00212449
0.00212444
0.00212438
0.00212433
0.00212428
0.00212423
0.00212418
0.00212413
0.00212409
0.00212404
0.00212399
0.00212395
0.0021239
0.00212386
0.00212382
0.00212377
0.00212373
0.00212369
0.00212365
0.00212361
0.00212357
0.00212353
0.0021235
0.00212346
0.00212342
0.00212339
0.00212335
0.00212332
0.00212328
0.00212325
0.00212321
0.00212318
0.00212315
0.00212313
0.00212311
0.00212309
0.00212308
0.00212308
0.00212308
0.00212309
0.00212311
0.00212313
0.00212315
0.00212317
0.0021232
0.00212322
0.00212334
0.0020519
0.00205247
0.00205267
0.00205277
0.00205285
0.00205292
0.00205298
0.00205303
0.00205308
0.00205313
0.00205317
0.00205321
0.00205324
0.00205327
0.0020533
0.00205332
0.00205334
0.00205336
0.00205338
0.00205339
0.0020534
0.0020534
0.0020534
0.0020534
0.0020534
0.00205339
0.00205338
0.00205336
0.00205333
0.0020533
0.00205326
0.00205322
0.00205317
0.00205311
0.00205305
0.00205299
0.00205293
0.00205286
0.00205279
0.00205272
0.00205264
0.00205257
0.0020525
0.00205242
0.00205235
0.00205228
0.0020522
0.00205213
0.00205206
0.00205199
0.00205192
0.00205185
0.00205178
0.00205171
0.00205164
0.00205157
0.00205151
0.00205144
0.00205137
0.00205131
0.00205125
0.00205118
0.00205112
0.00205106
0.002051
0.00205094
0.00205088
0.00205082
0.00205077
0.00205071
0.00205066
0.0020506
0.00205055
0.00205049
0.00205044
0.00205039
0.00205034
0.00205029
0.00205024
0.0020502
0.00205015
0.0020501
0.00205006
0.00205001
0.00204997
0.00204993
0.00204988
0.00204984
0.0020498
0.00204976
0.00204972
0.00204968
0.00204965
0.00204961
0.00204957
0.00204953
0.0020495
0.00204946
0.00204943
0.00204939
0.00204936
0.00204933
0.0020493
0.00204926
0.00204924
0.00204921
0.00204919
0.00204918
0.00204917
0.00204917
0.00204918
0.0020492
0.00204923
0.00204926
0.00204929
0.00204932
0.00204936
0.0020494
0.00204944
0.00204954
0.00197907
0.00197963
0.00197983
0.00197994
0.00198002
0.00198009
0.00198016
0.00198022
0.00198027
0.00198032
0.00198036
0.0019804
0.00198044
0.00198047
0.0019805
0.00198052
0.00198054
0.00198056
0.00198058
0.00198059
0.0019806
0.0019806
0.0019806
0.0019806
0.0019806
0.00198059
0.00198057
0.00198054
0.00198051
0.00198047
0.00198042
0.00198036
0.0019803
0.00198023
0.00198016
0.00198009
0.00198001
0.00197994
0.00197986
0.00197978
0.0019797
0.00197962
0.00197955
0.00197947
0.00197939
0.00197931
0.00197924
0.00197916
0.00197909
0.00197902
0.00197894
0.00197887
0.0019788
0.00197873
0.00197867
0.0019786
0.00197853
0.00197847
0.0019784
0.00197834
0.00197827
0.00197821
0.00197815
0.00197809
0.00197803
0.00197797
0.00197792
0.00197786
0.00197781
0.00197775
0.0019777
0.00197765
0.00197759
0.00197754
0.00197749
0.00197744
0.0019774
0.00197735
0.0019773
0.00197726
0.00197721
0.00197717
0.00197712
0.00197708
0.00197704
0.001977
0.00197696
0.00197692
0.00197688
0.00197684
0.0019768
0.00197677
0.00197673
0.00197669
0.00197666
0.00197662
0.00197659
0.00197656
0.00197652
0.00197649
0.00197646
0.00197643
0.00197639
0.00197637
0.00197634
0.00197632
0.00197631
0.00197631
0.00197632
0.00197634
0.00197637
0.0019764
0.00197644
0.00197649
0.00197654
0.00197659
0.00197664
0.00197669
0.00197673
0.00197682
0.00190753
0.00190807
0.00190826
0.00190837
0.00190846
0.00190853
0.0019086
0.00190866
0.00190872
0.00190877
0.00190881
0.00190885
0.00190889
0.00190892
0.00190895
0.00190897
0.00190899
0.00190901
0.00190903
0.00190904
0.00190904
0.00190905
0.00190905
0.00190905
0.00190904
0.00190902
0.00190899
0.00190895
0.00190891
0.00190885
0.00190879
0.00190872
0.00190864
0.00190856
0.00190848
0.0019084
0.00190831
0.00190823
0.00190814
0.00190806
0.00190797
0.00190789
0.00190781
0.00190773
0.00190765
0.00190757
0.00190749
0.00190742
0.00190734
0.00190727
0.0019072