/*--------------------------------*- C++ -*----------------------------------*\
  =========                 |
  \\      /  F ield         | OpenFOAM: The Open Source CFD Toolbox
   \\    /   O peration     | Website:  https://openfoam.org
    \\  /    A nd           | Version:  7
     \\/     M anipulation  |
\*---------------------------------------------------------------------------*/
FoamFile
{
    version     2.0;
    format      ascii;
    class       volVectorField;
    location    "5000";
    object      U;
}
// * * * * * * * * * * * * * * * * * * * * * * * * * * * * * * * * * * * * * //

dimensions      [0 1 -1 0 0 0 0];

internalField   nonuniform List<vector> 
3963
(
(0.139953 -7.15397e-08 9.73535e-15)
(0.139953 -8.9732e-08 9.70572e-15)
(0.139953 -7.72146e-08 9.66716e-15)
(0.139953 -5.81516e-08 9.66383e-15)
(0.139953 -4.03629e-08 9.63697e-15)
(0.139953 -2.53246e-08 9.674e-15)
(0.139953 -1.29052e-08 9.69017e-15)
(0.139954 -2.60339e-09 9.6621e-15)
(0.139954 6.08408e-09 9.6161e-15)
(0.139954 1.35388e-08 9.58313e-15)
(0.139954 2.00231e-08 9.60852e-15)
(0.139954 2.57112e-08 9.54545e-15)
(0.139954 3.07327e-08 9.53442e-15)
(0.139954 3.51897e-08 9.5052e-15)
(0.139954 3.92102e-08 9.51107e-15)
(0.139954 4.28804e-08 9.55353e-15)
(0.139954 4.64805e-08 9.53758e-15)
(0.139954 4.99768e-08 9.54356e-15)
(0.139954 5.48281e-08 9.5215e-15)
(0.139954 6.0569e-08 9.52355e-15)
(0.139954 6.73554e-08 9.54368e-15)
(0.139951 -2.25305e-08 9.67638e-15)
(0.139951 -3.18626e-08 9.8413e-15)
(0.139951 -3.85958e-08 9.6945e-15)
(0.139952 -4.14147e-08 9.66562e-15)
(0.139952 -4.2159e-08 9.7779e-15)
(0.139952 -4.13986e-08 9.65192e-15)
(0.139952 -3.92888e-08 9.80294e-15)
(0.139952 -3.57449e-08 9.86669e-15)
(0.139952 -3.06097e-08 9.82203e-15)
(0.139952 -2.34941e-08 9.88828e-15)
(0.139952 -1.41106e-08 9.73179e-15)
(0.139953 -1.41536e-09 9.86178e-15)
(0.139953 1.48975e-08 9.9219e-15)
(0.139953 3.7269e-08 9.86912e-15)
(0.139953 7.41726e-08 9.90023e-15)
(0.139953 2.36175e-08 9.75644e-15)
(0.139608 -9.29964e-08 9.50509e-15)
(0.139608 -1.09192e-07 9.50199e-15)
(0.139609 -9.63172e-08 9.49736e-15)
(0.139609 -7.75583e-08 9.48373e-15)
(0.139609 -6.00672e-08 9.49971e-15)
(0.139609 -4.51746e-08 9.49507e-15)
(0.139609 -3.27442e-08 9.44512e-15)
(0.139609 -2.2297e-08 9.44454e-15)
(0.139609 -1.3354e-08 9.39909e-15)
(0.139609 -5.55564e-09 9.34947e-15)
(0.139609 1.34025e-09 9.36077e-15)
(0.139609 7.48972e-09 9.3186e-15)
(0.139609 1.30079e-08 9.32637e-15)
(0.139609 1.79855e-08 9.30122e-15)
(0.139609 2.25506e-08 9.31935e-15)
(0.13961 2.67866e-08 9.37995e-15)
(0.13961 3.10403e-08 9.3511e-15)
(0.13961 3.52176e-08 9.36355e-15)
(0.13961 4.16459e-08 9.34323e-15)
(0.13961 4.93117e-08 9.36701e-15)
(0.13961 6.81409e-08 9.46066e-15)
(0.13961 8.65593e-08 9.50157e-15)
(0.13961 9.05199e-08 9.48785e-15)
(0.139606 -4.52993e-08 9.58638e-15)
(0.139606 -4.87672e-08 9.45831e-15)
(0.139606 -4.82827e-08 9.43856e-15)
(0.139606 -5.39646e-08 9.56851e-15)
(0.139607 -6.83942e-08 9.45267e-15)
(0.139607 -7.64149e-08 9.59101e-15)
(0.139607 -7.69098e-08 9.46129e-15)
(0.139607 -7.53726e-08 9.43226e-15)
(0.139607 -7.31927e-08 9.5557e-15)
(0.139607 -7.0264e-08 9.42447e-15)
(0.139607 -6.64528e-08 9.55188e-15)
(0.139608 -6.15494e-08 9.64587e-15)
(0.139608 -5.53362e-08 9.59377e-15)
(0.139608 -4.73831e-08 9.67207e-15)
(0.139608 -3.74067e-08 9.50449e-15)
(0.139608 -2.43417e-08 9.61088e-15)
(0.139608 -7.94419e-09 9.69742e-15)
(0.139608 1.3988e-08 9.6374e-15)
(0.139608 5.11779e-08 9.69336e-15)
(0.139608 9.6705e-10 9.53282e-15)
(0.139249 -1.13813e-07 9.30778e-15)
(0.139249 -1.28823e-07 9.29639e-15)
(0.139249 -1.15417e-07 9.32656e-15)
(0.139249 -9.66651e-08 9.30027e-15)
(0.139249 -7.93577e-08 9.37319e-15)
(0.13925 -6.46035e-08 9.30708e-15)
(0.13925 -5.21884e-08 9.21395e-15)
(0.13925 -4.16274e-08 9.20796e-15)
(0.13925 -3.24577e-08 9.12612e-15)
(0.13925 -2.43399e-08 9.04415e-15)
(0.13925 -1.70519e-08 9.14431e-15)
(0.13925 -1.04565e-08 9.07701e-15)
(0.13925 -4.45444e-09 9.11246e-15)
(0.13925 1.03263e-09 9.08693e-15)
(0.13925 6.12987e-09 9.12573e-15)
(0.13925 1.09171e-08 9.20157e-15)
(0.13925 1.57837e-08 9.15529e-15)
(0.13925 2.06074e-08 9.18185e-15)
(0.139251 2.80523e-08 9.156e-15)
(0.139251 3.69364e-08 9.18873e-15)
(0.139251 5.84313e-08 9.43687e-15)
(0.139251 8.52505e-08 9.39519e-15)
(0.139251 1.08121e-07 9.3576e-15)
(0.139251 1.2151e-07 9.58952e-15)
(0.139251 1.17282e-07 9.50867e-15)
(0.13925 1.10407e-07 9.64739e-15)
(0.13925 1.04948e-07 9.76665e-15)
(0.13925 1.00765e-07 9.64286e-15)
(0.13925 9.74416e-08 9.76883e-15)
(0.13925 9.4616e-08 9.6111e-15)
(0.13925 9.21017e-08 9.7251e-15)
(0.13925 8.9807e-08 9.84977e-15)
(0.13925 8.76827e-08 9.75075e-15)
(0.13925 8.57016e-08 9.89248e-15)
(0.13925 8.38495e-08 9.74824e-15)
(0.13925 8.21194e-08 9.89313e-15)
(0.13925 8.05088e-08 9.94219e-15)
(0.139249 7.90174e-08 9.82361e-15)
(0.139249 7.7645e-08 9.977e-15)
(0.139249 7.63902e-08 9.79836e-15)
(0.139249 7.5248e-08 9.69924e-15)
(0.139249 7.42077e-08 9.58252e-15)
(0.139249 7.32512e-08 9.51865e-15)
(0.139249 7.23529e-08 9.53114e-15)
(0.139249 7.14798e-08 9.46949e-15)
(0.139249 7.0594e-08 9.43493e-15)
(0.139249 6.96551e-08 9.37937e-15)
(0.139249 6.86237e-08 9.36408e-15)
(0.139249 6.74648e-08 9.40257e-15)
(0.139249 6.61493e-08 9.35677e-15)
(0.139249 6.4655e-08 9.33313e-15)
(0.139249 6.2967e-08 9.28203e-15)
(0.139249 6.10764e-08 9.27702e-15)
(0.139249 5.89803e-08 9.24473e-15)
(0.139249 5.668e-08 9.13473e-15)
(0.139249 5.41813e-08 9.16169e-15)
(0.139249 5.1493e-08 9.15898e-15)
(0.139249 4.86273e-08 9.18777e-15)
(0.139249 4.55983e-08 9.17894e-15)
(0.139249 4.2422e-08 9.04329e-15)
(0.139248 3.91153e-08 9.12156e-15)
(0.139248 3.56953e-08 9.12284e-15)
(0.139248 3.21788e-08 9.14947e-15)
(0.139248 2.85813e-08 9.14195e-15)
(0.139248 2.4917e-08 9.04656e-15)
(0.139248 2.11986e-08 9.08998e-15)
(0.139248 1.74373e-08 9.09968e-15)
(0.139248 1.36434e-08 9.13373e-15)
(0.139248 9.82602e-09 9.12473e-15)
(0.139248 5.99392e-09 9.02154e-15)
(0.139248 2.15551e-09 9.07387e-15)
(0.139248 -1.68096e-09 9.09876e-15)
(0.139248 -5.50747e-09 9.13882e-15)
(0.139248 -9.31622e-09 9.14042e-15)
(0.139248 -1.30998e-08 9.00227e-15)
(0.139248 -1.68514e-08 9.09674e-15)
(0.139248 -2.05643e-08 9.12198e-15)
(0.139248 -2.42327e-08 9.16392e-15)
(0.139248 -2.78506e-08 9.1605e-15)
(0.139248 -3.14122e-08 9.00952e-15)
(0.139248 -3.49113e-08 9.17565e-15)
(0.139248 -3.83407e-08 9.11775e-15)
(0.139248 -4.16919e-08 9.14972e-15)
(0.139248 -4.49549e-08 9.24685e-15)
(0.139248 -4.8117e-08 9.15286e-15)
(0.139248 -5.1163e-08 9.26968e-15)
(0.139248 -5.40744e-08 9.1481e-15)
(0.139248 -5.68285e-08 9.21247e-15)
(0.139248 -5.93987e-08 9.30508e-15)
(0.139248 -6.17519e-08 9.14641e-15)
(0.139247 -6.38497e-08 9.28952e-15)
(0.139247 -6.56392e-08 9.21377e-15)
(0.139247 -6.70632e-08 9.23207e-15)
(0.139247 -6.80175e-08 9.3204e-15)
(0.139247 -6.8415e-08 9.19261e-15)
(0.139247 -6.79579e-08 9.28832e-15)
(0.139247 -6.65365e-08 9.16056e-15)
(0.139247 -6.30414e-08 9.20547e-15)
(0.139247 -5.65703e-08 9.2851e-15)
(0.139247 -5.82933e-08 9.13818e-15)
(0.139247 -6.93782e-08 9.28516e-15)
(0.139247 -7.44911e-08 9.14542e-15)
(0.139247 -7.09274e-08 9.20205e-15)
(0.139248 -8.39457e-08 9.29401e-15)
(0.139248 -1.04397e-07 9.19182e-15)
(0.139248 -1.08098e-07 9.29297e-15)
(0.139248 -1.06184e-07 9.1984e-15)
(0.139248 -1.0317e-07 9.20015e-15)
(0.139248 -9.96084e-08 9.2811e-15)
(0.139248 -9.542e-08 9.16625e-15)
(0.139248 -9.05089e-08 9.25222e-15)
(0.139248 -8.46737e-08 9.34308e-15)
(0.139248 -7.77025e-08 9.34037e-15)
(0.139249 -6.91649e-08 9.38432e-15)
(0.139249 -5.88059e-08 9.15392e-15)
(0.139249 -4.55664e-08 9.30458e-15)
(0.139249 -2.92726e-08 9.38713e-15)
(0.139249 -8.03772e-09 9.37709e-15)
(0.139249 2.89274e-08 9.40723e-15)
(0.139249 -2.07701e-08 9.26653e-15)
(0.138875 -1.32473e-07 9.04017e-15)
(0.138875 -1.47516e-07 9.09638e-15)
(0.138875 -1.33986e-07 9.16227e-15)
(0.138875 -1.15189e-07 9.10671e-15)
(0.138875 -9.79638e-08 9.17667e-15)
(0.138875 -8.33055e-08 9.09037e-15)
(0.138875 -7.09089e-08 8.95348e-15)
(0.138875 -6.0258e-08 8.98407e-15)
(0.138876 -5.08917e-08 8.90782e-15)
(0.138876 -4.24856e-08 8.80549e-15)
(0.138876 -3.48354e-08 8.86694e-15)
(0.138876 -2.78221e-08 8.82046e-15)
(0.138876 -2.13624e-08 8.90907e-15)
(0.138876 -1.53907e-08 8.81664e-15)
(0.138876 -9.78726e-09 8.9443e-15)
(0.138876 -4.47537e-09 9.0455e-15)
(0.138876 9.49612e-10 8.94705e-15)
(0.138876 6.38182e-09 9.00903e-15)
(0.138876 1.43106e-08 8.95594e-15)
(0.138876 2.43545e-08 9.03528e-15)
(0.138876 3.95317e-08 9.29471e-15)
(0.138876 6.352e-08 9.26671e-15)
(0.138877 9.75717e-08 9.2178e-15)
(0.138877 1.26432e-07 9.42974e-15)
(0.138877 1.34541e-07 9.31487e-15)
(0.138877 1.31691e-07 9.54827e-15)
(0.138877 1.26233e-07 9.68554e-15)
(0.138877 1.20997e-07 9.53188e-15)
(0.138876 1.16531e-07 9.66881e-15)
(0.138876 1.12687e-07 9.47727e-15)
(0.138876 1.0929e-07 9.69095e-15)
(0.138876 1.06226e-07 9.82334e-15)
(0.138876 1.03423e-07 9.65825e-15)
(0.138876 1.00837e-07 9.71894e-15)
(0.138876 9.84388e-08 9.58911e-15)
(0.138876 9.62104e-08 9.8463e-15)
(0.138876 9.41393e-08 9.94141e-15)
(0.138876 9.2218e-08 9.73878e-15)
(0.138876 9.04407e-08 9.81389e-15)
(0.138876 8.8802e-08 9.69563e-15)
(0.138876 8.72939e-08 9.5934e-15)
(0.138876 8.59037e-08 9.49785e-15)
(0.138876 8.46122e-08 9.42741e-15)
(0.138876 8.33929e-08 9.36262e-15)
(0.138876 8.22129e-08 9.33334e-15)
(0.138876 8.10342e-08 9.311e-15)
(0.138875 7.98173e-08 9.2717e-15)
(0.138875 7.85237e-08 9.24541e-15)
(0.138875 7.71191e-08 9.19829e-15)
(0.138875 7.55753e-08 9.19804e-15)
(0.138875 7.38704e-08 9.18988e-15)
(0.138875 7.19893e-08 9.15577e-15)
(0.138875 6.99229e-08 9.13546e-15)
(0.138875 6.76672e-08 9.11179e-15)
(0.138875 6.52226e-08 9.02019e-15)
(0.138875 6.25935e-08 9.01954e-15)
(0.138875 5.97876e-08 9.031e-15)
(0.138875 5.68157e-08 9.04682e-15)
(0.138875 5.36909e-08 9.04623e-15)
(0.138875 5.04283e-08 8.96787e-15)
(0.138875 4.70441e-08 8.97318e-15)
(0.138875 4.35548e-08 8.98911e-15)
(0.138875 3.99765e-08 9.00698e-15)
(0.138875 3.63243e-08 9.00846e-15)
(0.138875 3.26119e-08 8.92756e-15)
(0.138875 2.88515e-08 8.94157e-15)
(0.138875 2.5054e-08 8.96414e-15)
(0.138875 2.12289e-08 8.98609e-15)
(0.138875 1.73852e-08 8.98906e-15)
(0.138875 1.35313e-08 8.89965e-15)
(0.138875 9.6752e-09 8.9297e-15)
(0.138875 5.825e-09 8.96472e-15)
(0.138875 1.98854e-09 8.99314e-15)
(0.138875 -1.82656e-09 9.00525e-15)
(0.138874 -5.61304e-09 8.91889e-15)
(0.138874 -9.36414e-09 8.95348e-15)
(0.138874 -1.30736e-08 8.98875e-15)
(0.138874 -1.67356e-08 9.01679e-15)
(0.138874 -2.03446e-08 9.02309e-15)
(0.138874 -2.3895e-08 8.93079e-15)
(0.138874 -2.73809e-08 8.97787e-15)
(0.138874 -3.07957e-08 8.95759e-15)
(0.138874 -3.41314e-08 8.97275e-15)
(0.138874 -3.73781e-08 9.02396e-15)
(0.138874 -4.05239e-08 8.97527e-15)
(0.138874 -4.3554e-08 9.03325e-15)
(0.138874 -4.64507e-08 8.99944e-15)
(0.138874 -4.91924e-08 9.01274e-15)
(0.138874 -5.17534e-08 9.06435e-15)
(0.138874 -5.41022e-08 8.99469e-15)
(0.138874 -5.62027e-08 9.04357e-15)
(0.138874 -5.80057e-08 9.01184e-15)
(0.138874 -5.94581e-08 9.02358e-15)
(0.138874 -6.04684e-08 9.06932e-15)
(0.138874 -6.09567e-08 8.98764e-15)
(0.138874 -6.07041e-08 9.03581e-15)
(0.138874 -5.95651e-08 8.99942e-15)
(0.138874 -5.73293e-08 8.99106e-15)
(0.138874 -5.26488e-08 9.03315e-15)
(0.138874 -6.52231e-08 8.97965e-15)
(0.138874 -8.49083e-08 9.02731e-15)
(0.138874 -8.82337e-08 8.97888e-15)
(0.138874 -8.51043e-08 8.98905e-15)
(0.138874 -9.71769e-08 9.04278e-15)
(0.138874 -1.1732e-07 8.98935e-15)
(0.138874 -1.23739e-07 9.03811e-15)
(0.138874 -1.24018e-07 8.98927e-15)
(0.138874 -1.22018e-07 8.99092e-15)
(0.138874 -1.18768e-07 9.02916e-15)
(0.138874 -1.14551e-07 8.96136e-15)
(0.138874 -1.09448e-07 9.0018e-15)
(0.138874 -1.03366e-07 9.06186e-15)
(0.138874 -9.61689e-08 9.07948e-15)
(0.138874 -8.74739e-08 9.10486e-15)
(0.138874 -7.7086e-08 9.01438e-15)
(0.138875 -6.39837e-08 9.04194e-15)
(0.138875 -4.80748e-08 9.09423e-15)
(0.138875 -2.78279e-08 9.10588e-15)
(0.138875 8.48768e-09 9.12507e-15)
(0.138875 -4.02442e-08 9.04107e-15)
(0.138485 -1.48173e-07 8.8109e-15)
(0.138485 -1.6408e-07 8.91567e-15)
(0.138486 -1.51158e-07 9.04584e-15)
(0.138486 -1.32619e-07 8.88756e-15)
(0.138486 -1.15543e-07 8.9825e-15)
(0.138486 -1.00986e-07 8.86036e-15)
(0.138486 -8.86203e-08 8.67606e-15)
(0.138486 -7.79047e-08 8.75351e-15)
(0.138486 -6.83757e-08 8.60896e-15)
(0.138486 -5.97186e-08 8.51195e-15)
(0.138486 -5.17445e-08 8.63911e-15)
(0.138486 -4.43511e-08 8.66257e-15)
(0.138486 -3.74703e-08 8.73158e-15)
(0.138486 -3.10493e-08 8.71986e-15)
(0.138486 -2.49758e-08 8.79113e-15)
(0.138486 -1.91754e-08 8.89128e-15)
(0.138487 -1.32528e-08 8.84053e-15)
(0.138487 -7.26205e-09 8.86194e-15)
(0.138487 8.26879e-10 8.7969e-15)
(0.138487 1.16878e-08 8.88875e-15)
(0.138487 2.17812e-08 9.19084e-15)
(0.138487 3.9594e-08 9.05692e-15)
(0.138487 6.91617e-08 9.06945e-15)
(0.138487 1.0136e-07 9.18388e-15)
(0.138487 1.24914e-07 9.10106e-15)
(0.138487 1.33963e-07 9.37326e-15)
(0.138487 1.34442e-07 9.4431e-15)
(0.138487 1.31698e-07 9.36784e-15)
(0.138487 1.28203e-07 9.42886e-15)
(0.138487 1.2471e-07 9.29787e-15)
(0.138487 1.21395e-07 9.55034e-15)
(0.138487 1.18282e-07 9.59755e-15)
(0.138487 1.15359e-07 9.50028e-15)
(0.138487 1.12614e-07 9.54171e-15)
(0.138487 1.10033e-07 9.37439e-15)
(0.138487 1.07608e-07 9.65363e-15)
(0.138487 1.05332e-07 9.72184e-15)
(0.138487 1.03199e-07 9.59662e-15)
(0.138487 1.01206e-07 9.6399e-15)
(0.138487 9.93506e-08 9.48348e-15)
(0.138487 9.76252e-08 9.46361e-15)
(0.138487 9.60188e-08 9.39066e-15)
(0.138487 9.45135e-08 9.32076e-15)
(0.138487 9.30841e-08 9.15216e-15)
(0.138487 9.16988e-08 9.19504e-15)
(0.138487 9.03211e-08 9.17959e-15)
(0.138487 8.8913e-08 9.15166e-15)
(0.138486 8.74375e-08 9.12023e-15)
(0.138486 8.58617e-08 9.0175e-15)
(0.138486 8.41586e-08 9.03859e-15)
(0.138486 8.23073e-08 9.04244e-15)
(0.138486 8.02929e-08 9.0196e-15)
(0.138486 7.81063e-08 8.99063e-15)
(0.138486 7.57429e-08 8.97193e-15)
(0.138486 7.32025e-08 8.88335e-15)
(0.138486 7.04885e-08 8.89001e-15)
(0.138486 6.76077e-08 8.90947e-15)
(0.138486 6.45698e-08 8.91108e-15)
(0.138486 6.13871e-08 8.9105e-15)
(0.138486 5.8074e-08 8.83132e-15)
(0.138486 5.46462e-08 8.8397e-15)
(0.138486 5.11195e-08 8.86391e-15)
(0.138486 4.75098e-08 8.87005e-15)
(0.138486 4.38317e-08 8.87241e-15)
(0.138486 4.00985e-08 8.79459e-15)
(0.138486 3.63221e-08 8.80866e-15)
(0.138486 3.25128e-08 8.8372e-15)
(0.138486 2.868e-08 8.84722e-15)
(0.138486 2.4832e-08 8.85323e-15)
(0.138486 2.0977e-08 8.77549e-15)
(0.138486 1.71229e-08 8.80389e-15)
(0.138486 1.32774e-08 8.84105e-15)
(0.138486 9.44825e-09 8.85614e-15)
(0.138486 5.64298e-09 8.87029e-15)
(0.138486 1.86869e-09 8.79724e-15)
(0.138486 -1.86799e-09 8.82762e-15)
(0.138485 -5.56097e-09 8.86778e-15)
(0.138485 -9.20464e-09 8.88066e-15)
(0.138485 -1.27937e-08 8.88704e-15)
(0.138485 -1.63229e-08 8.80559e-15)
(0.138485 -1.97866e-08 8.80763e-15)
(0.138485 -2.31786e-08 8.80121e-15)
(0.138485 -2.64911e-08 8.80693e-15)
(0.138485 -2.9715e-08 8.81703e-15)
(0.138485 -3.28386e-08 8.79084e-15)
(0.138485 -3.58479e-08 8.81972e-15)
(0.138485 -3.87257e-08 8.81381e-15)
(0.138485 -4.14512e-08 8.82298e-15)
(0.138485 -4.40002e-08 8.8396e-15)
(0.138485 -4.63426e-08 8.79991e-15)
(0.138485 -4.84445e-08 8.82065e-15)
(0.138485 -5.02606e-08 8.81589e-15)
(0.138485 -5.17424e-08 8.82114e-15)
(0.138485 -5.28112e-08 8.83343e-15)
(0.138485 -5.3395e-08 8.78749e-15)
(0.138485 -5.33499e-08 8.80492e-15)
(0.138485 -5.25166e-08 8.79108e-15)
(0.138485 -5.12753e-08 8.78518e-15)
(0.138485 -4.83438e-08 8.7948e-15)
(0.138485 -6.08696e-08 8.76514e-15)
(0.138485 -8.13979e-08 8.78969e-15)
(0.138485 -8.88245e-08 8.77667e-15)
(0.138485 -8.98731e-08 8.78349e-15)
(0.138485 -1.01415e-07 8.80322e-15)
(0.138485 -1.19686e-07 8.77785e-15)
(0.138485 -1.28112e-07 8.80192e-15)
(0.138485 -1.3115e-07 8.7887e-15)
(0.138485 -1.31365e-07 8.78499e-15)
(0.138485 -1.29677e-07 8.79017e-15)
(0.138485 -1.26519e-07 8.75424e-15)
(0.138485 -1.22124e-07 8.76984e-15)
(0.138485 -1.16532e-07 8.79942e-15)
(0.138485 -1.09711e-07 8.81994e-15)
(0.138485 -1.0136e-07 8.8279e-15)
(0.138485 -9.13662e-08 8.7831e-15)
(0.138485 -7.87743e-08 8.7929e-15)
(0.138485 -6.35825e-08 8.81558e-15)
(0.138485 -4.46314e-08 8.83268e-15)
(0.138485 -9.39222e-09 8.84338e-15)
(0.138485 -5.69226e-08 8.80546e-15)
(0.13808 -1.60549e-07 8.58291e-15)
(0.13808 -1.7778e-07 8.66546e-15)
(0.13808 -1.66167e-07 8.74892e-15)
(0.13808 -1.4838e-07 8.72352e-15)
(0.138081 -1.31693e-07 8.72924e-15)
(0.138081 -1.17342e-07 8.68446e-15)
(0.138081 -1.05062e-07 8.47656e-15)
(0.138081 -9.4326e-08 8.56891e-15)
(0.138081 -8.46787e-08 8.46195e-15)
(0.138081 -7.58162e-08 8.3389e-15)
(0.138081 -6.75639e-08 8.46339e-15)
(0.138081 -5.98356e-08 8.51151e-15)
(0.138081 -5.25782e-08 8.58167e-15)
(0.138081 -4.5751e-08 8.57752e-15)
(0.138081 -3.92511e-08 8.66596e-15)
(0.138081 -3.30056e-08 8.76392e-15)
(0.138081 -2.66467e-08 8.69722e-15)
(0.138081 -2.01598e-08 8.73708e-15)
(0.138081 -1.20596e-08 8.71646e-15)
(0.138082 -8.21338e-10 8.77724e-15)
(0.138082 6.47603e-09 8.97897e-15)
(0.138082 1.85396e-08 9.00547e-15)
(0.138082 4.02159e-08 8.92143e-15)
(0.138082 6.82816e-08 9.00359e-15)
(0.138082 9.90735e-08 8.97066e-15)
(0.138082 1.19173e-07 9.1359e-15)
(0.138082 1.28368e-07 9.22934e-15)
(0.138082 1.31077e-07 9.1675e-15)
(0.138082 1.30777e-07 9.23285e-15)
(0.138082 1.2921e-07 9.19194e-15)
(0.138082 1.27122e-07 9.32082e-15)
(0.138082 1.24828e-07 9.38121e-15)
(0.138082 1.22468e-07 9.30294e-15)
(0.138082 1.20113e-07 9.36063e-15)
(0.138082 1.17803e-07 9.31338e-15)
(0.138082 1.15559e-07 9.47626e-15)
(0.138082 1.13399e-07 9.51777e-15)
(0.138082 1.11331e-07 9.41397e-15)
(0.138082 1.09365e-07 9.45352e-15)
(0.138082 1.07506e-07 9.42623e-15)
(0.138082 1.05752e-07 9.32358e-15)
(0.138082 1.041e-07 9.26526e-15)
(0.138082 1.02535e-07 9.19443e-15)
(0.138082 1.01035e-07 9.10656e-15)
(0.138082 9.9572e-08 9.07542e-15)
(0.138082 9.81127e-08 9.04153e-15)
(0.138082 9.66211e-08 9.02247e-15)
(0.138082 9.50631e-08 8.9828e-15)
(0.138082 9.3408e-08 8.90848e-15)
(0.138082 9.16305e-08 8.90859e-15)
(0.138082 8.97111e-08 8.89064e-15)
(0.138082 8.76362e-08 8.8766e-15)
(0.138082 8.53969e-08 8.83896e-15)
(0.138082 8.29887e-08 8.82699e-15)
(0.138082 8.04112e-08 8.72127e-15)
(0.138082 7.7667e-08 8.77458e-15)
(0.138082 7.47624e-08 8.79642e-15)
(0.138081 7.17065e-08 8.77492e-15)
(0.138081 6.85111e-08 8.773e-15)
(0.138081 6.51901e-08 8.67284e-15)
(0.138081 6.17587e-08 8.71992e-15)
(0.138081 5.82326e-08 8.74846e-15)
(0.138081 5.46272e-08 8.73397e-15)
(0.138081 5.09571e-08 8.73601e-15)
(0.138081 4.72353e-08 8.63957e-15)
(0.138081 4.34733e-08 8.68954e-15)
(0.138081 3.96811e-08 8.72055e-15)
(0.138081 3.58677e-08 8.71111e-15)
(0.138081 3.20413e-08 8.71829e-15)
(0.138081 2.82096e-08 8.62584e-15)
(0.138081 2.43804e-08 8.69466e-15)
(0.138081 2.05612e-08 8.73018e-15)
(0.138081 1.67598e-08 8.72242e-15)
(0.138081 1.29834e-08 8.73664e-15)
(0.138081 9.23925e-09 8.6477e-15)
(0.138081 5.53372e-09 8.71706e-15)
(0.138081 1.87281e-09 8.7597e-15)
(0.138081 -1.73806e-09 8.74893e-15)
(0.138081 -5.2938e-09 8.75296e-15)
(0.138081 -8.78941e-09 8.65948e-15)
(0.138081 -1.22196e-08 8.64491e-15)
(0.138081 -1.55784e-08 8.6435e-15)
(0.138081 -1.88585e-08 8.64572e-15)
(0.138081 -2.20511e-08 8.6108e-15)
(0.138081 -2.5145e-08 8.59682e-15)
(0.138081 -2.81267e-08 8.6178e-15)
(0.138081 -3.09798e-08 8.62619e-15)
(0.13808 -3.36842e-08 8.63646e-15)
(0.13808 -3.62169e-08 8.62112e-15)
(0.13808 -3.85495e-08 8.59579e-15)
(0.13808 -4.06501e-08 8.60767e-15)
(0.13808 -4.24775e-08 8.61452e-15)
(0.13808 -4.39877e-08 8.62183e-15)
(0.13808 -4.51151e-08 8.60104e-15)
(0.13808 -4.5796e-08 8.57332e-15)
(0.13808 -4.59523e-08 8.58317e-15)
(0.13808 -4.54314e-08 8.58246e-15)
(0.13808 -4.49415e-08 8.58269e-15)
(0.13808 -4.35085e-08 8.55807e-15)
(0.13808 -5.42649e-08 8.54189e-15)
(0.13808 -7.26025e-08 8.56185e-15)
(0.13808 -8.22776e-08 8.56856e-15)
(0.13808 -8.7059e-08 8.5791e-15)
(0.13808 -9.91492e-08 8.5655e-15)
(0.13808 -1.15826e-07 8.55482e-15)
(0.13808 -1.24914e-07 8.57362e-15)
(0.13808 -1.29927e-07 8.57799e-15)
(0.13808 -1.32397e-07 8.57961e-15)
(0.13808 -1.32757e-07 8.55263e-15)
(0.13808 -1.31303e-07 8.53218e-15)
(0.13808 -1.28273e-07 8.54703e-15)
(0.13808 -1.23777e-07 8.54727e-15)
(0.13808 -1.17873e-07 8.56498e-15)
(0.13808 -1.1034e-07 8.54832e-15)
(0.13808 -1.01156e-07 8.53166e-15)
(0.13808 -8.94507e-08 8.5491e-15)
(0.13808 -7.53134e-08 8.54291e-15)
(0.13808 -5.79587e-08 8.56101e-15)
(0.13808 -2.42187e-08 8.5598e-15)
(0.13808 -7.05109e-08 8.54886e-15)
(0.137659 -1.69515e-07 8.36384e-15)
(0.137659 -1.88286e-07 8.43892e-15)
(0.137659 -1.78515e-07 8.50108e-15)
(0.137659 -1.61993e-07 8.54131e-15)
(0.137659 -1.46039e-07 8.45504e-15)
(0.137659 -1.32089e-07 8.52427e-15)
(0.13766 -1.20007e-07 8.36524e-15)
(0.13766 -1.09327e-07 8.43236e-15)
(0.13766 -9.96232e-08 8.36825e-15)
(0.13766 -9.06112e-08 8.20011e-15)
(0.13766 -8.21341e-08 8.35379e-15)
(0.13766 -7.41223e-08 8.37713e-15)
(0.13766 -6.65383e-08 8.46168e-15)
(0.13766 -5.93532e-08 8.44138e-15)
(0.13766 -5.24753e-08 8.57423e-15)
(0.13766 -4.58328e-08 8.55003e-15)
(0.13766 -3.90967e-08 8.55702e-15)
(0.13766 -3.21832e-08 8.61256e-15)
(0.13766 -2.41208e-08 8.5923e-15)
(0.13766 -1.28716e-08 8.69895e-15)
(0.13766 -6.89398e-09 8.76182e-15)
(0.13766 9.52315e-10 8.79356e-15)
(0.137661 1.54593e-08 8.74901e-15)
(0.137661 3.66348e-08 8.75056e-15)
(0.137661 6.7318e-08 8.76102e-15)
(0.137661 9.3702e-08 8.8669e-15)
(0.137661 1.10708e-07 8.91403e-15)
(0.137661 1.19889e-07 8.93665e-15)
(0.137661 1.24215e-07 8.95268e-15)
(0.137661 1.25849e-07 8.98315e-15)
(0.137661 1.26021e-07 9.05065e-15)
(0.137661 1.25375e-07 9.06463e-15)
(0.137661 1.24252e-07 9.06981e-15)
(0.137661 1.22845e-07 9.09159e-15)
(0.137661 1.21273e-07 9.09866e-15)
(0.137661 1.19611e-07 9.18865e-15)
(0.137661 1.17911e-07 9.20723e-15)
(0.137661 1.1621e-07 9.19315e-15)
(0.137661 1.14535e-07 9.17707e-15)
(0.137661 1.12906e-07 9.2035e-15)
(0.137661 1.11336e-07 9.15198e-15)
(0.137661 1.09828e-07 9.12879e-15)
(0.137661 1.08375e-07 9.04838e-15)
(0.137661 1.06962e-07 9.01508e-15)
(0.137661 1.05566e-07 8.95512e-15)
(0.137661 1.04157e-07 8.89342e-15)
(0.137661 1.02703e-07 8.88848e-15)
(0.137661 1.01174e-07 8.83118e-15)
(0.137661 9.95426e-08 8.81751e-15)
(0.137661 9.77857e-08 8.78046e-15)
(0.137661 9.58864e-08 8.73237e-15)
(0.137661 9.38324e-08 8.7313e-15)
(0.137661 9.1616e-08 8.67696e-15)
(0.137661 8.92334e-08 8.67912e-15)
(0.137661 8.66841e-08 8.52682e-15)
(0.137661 8.39709e-08 8.69202e-15)
(0.137661 8.10996e-08 8.68955e-15)
(0.137661 7.80793e-08 8.63052e-15)
(0.137661 7.49214e-08 8.63466e-15)
(0.137661 7.16396e-08 8.48467e-15)
(0.137661 6.82492e-08 8.6254e-15)
(0.137661 6.47656e-08 8.6394e-15)
(0.137661 6.12045e-08 8.59146e-15)
(0.137661 5.758e-08 8.60049e-15)
(0.137661 5.39051e-08 8.45466e-15)
(0.137661 5.01912e-08 8.59812e-15)
(0.137661 4.6448e-08 8.61203e-15)
(0.137661 4.26842e-08 8.57014e-15)
(0.13766 3.89078e-08 8.58509e-15)
(0.13766 3.51264e-08 8.44441e-15)
(0.13766 3.13475e-08 8.61947e-15)
(0.13766 2.75787e-08 8.62953e-15)
(0.13766 2.38276e-08 8.58428e-15)
(0.13766 2.01014e-08 8.60519e-15)
(0.13766 1.64073e-08 8.46756e-15)
(0.13766 1.27516e-08 8.63307e-15)
(0.13766 9.14022e-09 8.65997e-15)
(0.13766 5.57844e-09 8.61296e-15)
(0.13766 2.07115e-09 8.62152e-15)
(0.13766 -1.37688e-09 8.48334e-15)
(0.13766 -4.76062e-09 8.48374e-15)
(0.13766 -8.07436e-09 8.48616e-15)
(0.13766 -1.13112e-08 8.48634e-15)
(0.13766 -1.44626e-08 8.38716e-15)
(0.13766 -1.75179e-08 8.39712e-15)
(0.13766 -2.04641e-08 8.42389e-15)
(0.13766 -2.32853e-08 8.43969e-15)
(0.13766 -2.59625e-08 8.45147e-15)
(0.13766 -2.84734e-08 8.39917e-15)
(0.13766 -3.07915e-08 8.38804e-15)
(0.13766 -3.2887e-08 8.40184e-15)
(0.13766 -3.47227e-08 8.41553e-15)
(0.13766 -3.6259e-08 8.42493e-15)
(0.13766 -3.74428e-08 8.35767e-15)
(0.13766 -3.82196e-08 8.35343e-15)
(0.13766 -3.8566e-08 8.36758e-15)
(0.13766 -3.83494e-08 8.37603e-15)
(0.137659 -3.84364e-08 8.38161e-15)
(0.137659 -3.81876e-08 8.30866e-15)
(0.137659 -4.75265e-08 8.31473e-15)
(0.137659 -6.30268e-08 8.34116e-15)
(0.137659 -7.27117e-08 8.3599e-15)
(0.137659 -7.95229e-08 8.3753e-15)
(0.137659 -9.21258e-08 8.31565e-15)
(0.137659 -1.0765e-07 8.32655e-15)
(0.137659 -1.16795e-07 8.3512e-15)
(0.137659 -1.2291e-07 8.36682e-15)
(0.137659 -1.27076e-07 8.37488e-15)
(0.137659 -1.29336e-07 8.30256e-15)
(0.137659 -1.2973e-07 8.30496e-15)
(0.137659 -1.28369e-07 8.331e-15)
(0.137659 -1.25339e-07 8.29668e-15)
(0.137659 -1.20732e-07 8.31621e-15)
(0.137659 -1.14386e-07 8.25787e-15)
(0.137659 -1.06358e-07 8.27325e-15)
(0.137659 -9.58635e-08 8.31004e-15)
(0.137659 -8.30812e-08 8.26923e-15)
(0.137659 -6.7589e-08 8.29356e-15)
(0.137659 -3.57372e-08 8.27197e-15)
(0.137659 -8.08817e-08 8.28561e-15)
(0.137222 -1.75177e-07 8.16347e-15)
(0.137222 -1.95568e-07 8.22575e-15)
(0.137222 -1.87988e-07 8.26581e-15)
(0.137222 -1.73166e-07 8.36332e-15)
(0.137222 -1.58306e-07 8.27063e-15)
(0.137222 -1.45006e-07 8.29395e-15)
(0.137222 -1.33282e-07 8.21704e-15)
(0.137222 -1.22766e-07 8.31958e-15)
(0.137222 -1.13086e-07 8.2498e-15)
(0.137222 -1.03992e-07 8.162e-15)
(0.137222 -9.53505e-08 8.27033e-15)
(0.137223 -8.71117e-08 8.24377e-15)
(0.137223 -7.92547e-08 8.39114e-15)
(0.137223 -7.17633e-08 8.30509e-15)
(0.137223 -6.45581e-08 8.41607e-15)
(0.137223 -5.75686e-08 8.42213e-15)
(0.137223 -5.05107e-08 8.38597e-15)
(0.137223 -4.32409e-08 8.49525e-15)
(0.137223 -3.52197e-08 8.4585e-15)
(0.137223 -2.41997e-08 8.55118e-15)
(0.137223 -1.87286e-08 8.55523e-15)
(0.137223 -1.35631e-08 8.57983e-15)
(0.137223 -4.54549e-09 8.55981e-15)
(0.137223 9.69729e-09 8.51524e-15)
(0.137223 3.62032e-08 8.55062e-15)
(0.137224 6.40123e-08 8.6277e-15)
(0.137224 8.59433e-08 8.59688e-15)
(0.137224 1.0074e-07 8.70399e-15)
(0.137224 1.09927e-07 8.70208e-15)
(0.137224 1.15379e-07 8.74983e-15)
(0.137224 1.18478e-07 8.80938e-15)
(0.137224 1.20095e-07 8.7905e-15)
(0.137224 1.2075e-07 8.83153e-15)
(0.137224 1.20767e-07 8.7845e-15)
(0.137224 1.20348e-07 8.87491e-15)
(0.137224 1.19632e-07 8.93605e-15)
(0.137224 1.18715e-07 8.93434e-15)
(0.137224 1.17667e-07 8.96333e-15)
(0.137224 1.16541e-07 8.88329e-15)
(0.137224 1.15377e-07 9.02397e-15)
(0.137224 1.14201e-07 8.95787e-15)
(0.137224 1.1303e-07 8.9888e-15)
(0.137224 1.11865e-07 8.87883e-15)
(0.137224 1.10701e-07 8.92386e-15)
(0.137224 1.0952e-07 8.8173e-15)
(0.137224 1.08298e-07 8.72855e-15)
(0.137224 1.07008e-07 8.75596e-15)
(0.137224 1.05625e-07 8.65944e-15)
(0.137224 1.04124e-07 8.72309e-15)
(0.137224 1.02488e-07 8.63731e-15)
(0.137224 1.00701e-07 8.56057e-15)
(0.137224 9.87531e-08 8.5899e-15)
(0.137224 9.66391e-08 8.49819e-15)
(0.137224 9.43557e-08 8.53259e-15)
(0.137224 9.19034e-08 8.39685e-15)
(0.137224 8.92853e-08 8.52821e-15)
(0.137224 8.65074e-08 8.57279e-15)
(0.137224 8.35789e-08 8.46713e-15)
(0.137224 8.05113e-08 8.49872e-15)
(0.137224 7.73185e-08 8.36306e-15)
(0.137224 7.40159e-08 8.47512e-15)
(0.137224 7.06192e-08 8.5214e-15)
(0.137224 6.71439e-08 8.43228e-15)
(0.137224 6.36046e-08 8.46907e-15)
(0.137224 6.00142e-08 8.33669e-15)
(0.137224 5.63838e-08 8.44755e-15)
(0.137224 5.27232e-08 8.49715e-15)
(0.137224 4.90408e-08 8.41436e-15)
(0.137224 4.53445e-08 8.45667e-15)
(0.137223 4.16418e-08 8.32937e-15)
(0.137223 3.79401e-08 8.46861e-15)
(0.137223 3.42469e-08 8.52266e-15)
(0.137223 3.057e-08 8.43082e-15)
(0.137223 2.69165e-08 8.47896e-15)
(0.137223 2.32936e-08 8.35496e-15)
(0.137223 1.97077e-08 8.49141e-15)
(0.137223 1.61645e-08 8.55104e-15)
(0.137223 1.26693e-08 8.46154e-15)
(0.137223 9.22673e-09 8.49557e-15)
(0.137223 5.84142e-09 8.37221e-15)
(0.137223 2.51814e-09 8.33294e-15)
(0.137223 -7.37642e-10 8.32943e-15)
(0.137223 -3.91935e-09 8.32582e-15)
(0.137223 -7.01877e-09 8.17962e-15)
(0.137223 -1.00257e-08 8.20232e-15)
(0.137223 -1.29274e-08 8.23777e-15)
(0.137223 -1.57088e-08 8.25679e-15)
(0.137223 -1.83515e-08 8.26682e-15)
(0.137223 -2.08344e-08 8.16214e-15)
(0.137223 -2.31325e-08 8.1857e-15)
(0.137223 -2.52182e-08 8.20398e-15)
(0.137223 -2.70579e-08 8.2218e-15)
(0.137223 -2.86167e-08 8.22973e-15)
(0.137223 -2.98534e-08 8.11461e-15)
(0.137223 -3.07224e-08 8.1366e-15)
(0.137223 -3.12447e-08 8.15965e-15)
(0.137223 -3.13144e-08 8.17358e-15)
(0.137223 -3.18567e-08 8.18074e-15)
(0.137222 -3.24936e-08 8.06172e-15)
(0.137222 -4.08027e-08 8.09256e-15)
(0.137222 -5.37531e-08 8.12922e-15)
(0.137222 -6.24202e-08 8.15504e-15)
(0.137222 -6.97719e-08 8.17217e-15)
(0.137222 -8.22663e-08 8.06653e-15)
(0.137222 -9.67795e-08 8.10213e-15)
(0.137222 -1.05725e-07 8.13628e-15)
(0.137222 -1.12275e-07 8.15906e-15)
(0.137222 -1.17436e-07 8.17062e-15)
(0.137222 -1.21105e-07 8.05354e-15)
(0.137222 -1.23111e-07 8.08192e-15)
(0.137222 -1.23389e-07 8.12246e-15)
(0.137222 -1.21929e-07 7.94307e-15)
(0.137222 -1.18798e-07 8.0777e-15)
(0.137222 -1.13857e-07 7.93053e-15)
(0.137222 -1.07215e-07 8.02144e-15)
(0.137222 -9.81706e-08 8.07811e-15)
(0.137222 -8.69742e-08 7.99144e-15)
(0.137222 -7.35526e-08 8.03745e-15)
(0.137222 -4.39204e-08 7.97483e-15)
(0.137222 -8.80712e-08 8.02928e-15)
(0.136768 -1.77777e-07 7.88503e-15)
(0.136768 -1.998e-07 8.01115e-15)
(0.136768 -1.94612e-07 8.03935e-15)
(0.136768 -1.81808e-07 8.09715e-15)
(0.136768 -1.68362e-07 8.0563e-15)
(0.136768 -1.55965e-07 8.08848e-15)
(0.136768 -1.44782e-07 8.07329e-15)
(0.136768 -1.3456e-07 8.12898e-15)
(0.136768 -1.25001e-07 8.09634e-15)
(0.136769 -1.15902e-07 8.05627e-15)
(0.136769 -1.07162e-07 8.10905e-15)
(0.136769 -9.87561e-08 8.09182e-15)
(0.136769 -9.06817e-08 8.16187e-15)
(0.136769 -8.29363e-08 8.14347e-15)
(0.136769 -7.54544e-08 8.18655e-15)
(0.136769 -6.81677e-08 8.16737e-15)
(0.136769 -6.08389e-08 8.2059e-15)
(0.136769 -5.32789e-08 8.29918e-15)
(0.136769 -4.52864e-08 8.29954e-15)
(0.136769 -3.4622e-08 8.32444e-15)
(0.136769 -2.9254e-08 8.34271e-15)
(0.136769 -2.55879e-08 8.36992e-15)
(0.136769 -2.03297e-08 8.35784e-15)
(0.136769 -1.1817e-08 8.39083e-15)
(0.136769 9.04066e-09 8.36357e-15)
(0.13677 3.48416e-08 8.40406e-15)
(0.13677 5.84961e-08 8.48637e-15)
(0.13677 7.69742e-08 8.50121e-15)
(0.13677 9.02258e-08 8.55339e-15)
(0.13677 9.93609e-08 8.55173e-15)
(0.13677 1.05561e-07 8.56869e-15)
(0.13677 1.0973e-07 8.62556e-15)
(0.13677 1.12486e-07 8.6219e-15)
(0.13677 1.14242e-07 8.68483e-15)