/*--------------------------------*- C++ -*----------------------------------*\
  =========                 |
  \\      /  F ield         | OpenFOAM: The Open Source CFD Toolbox
   \\    /   O peration     | Website:  https://openfoam.org
    \\  /    A nd           | Version:  7
     \\/     M anipulation  |
\*---------------------------------------------------------------------------*/
FoamFile
{
    version     2.0;
    format      ascii;
    class       volScalarField;
    location    "2500";
    object      omega;
}
// * * * * * * * * * * * * * * * * * * * * * * * * * * * * * * * * * * * * * //

dimensions      [0 0 -1 0 0 0 0];

internalField   nonuniform List<scalar> 
3974
(
0.680421
0.680432
0.680438
0.680444
0.680449
0.680454
0.680458
0.680461
0.680465
0.680468
0.680471
0.680473
0.680476
0.680478
0.68048
0.680482
0.680483
0.680485
0.680486
0.680488
0.680489
0.68049
0.680491
0.680492
0.680493
0.680494
0.680494
0.680495
0.680496
0.680496
0.680497
0.680497
0.680498
0.680498
0.680498
0.680499
0.680499
0.6805
0.643528
0.643533
0.643526
0.643527
0.643531
0.643535
0.643539
0.643542
0.643546
0.643549
0.643552
0.643554
0.643557
0.643559
0.643562
0.643564
0.643566
0.643567
0.643569
0.643571
0.643572
0.643574
0.643575
0.643576
0.643577
0.643578
0.643579
0.64358
0.643581
0.643582
0.643583
0.643583
0.643584
0.643584
0.643585
0.643586
0.643586
0.643586
0.643587
0.643586
0.643611
0.643615
0.609019
0.609014
0.609007
0.609007
0.609003
0.609002
0.609004
0.609006
0.609009
0.609012
0.609015
0.609017
0.60902
0.609022
0.609025
0.609027
0.609029
0.609031
0.609033
0.609035
0.609037
0.609038
0.60904
0.609041
0.609043
0.609044
0.609045
0.609046
0.609048
0.609049
0.609049
0.60905
0.609051
0.609052
0.609053
0.609054
0.609054
0.609055
0.609056
0.609056
0.609057
0.609056
0.609067
0.609073
0.609087
0.609084
0.609077
0.609071
0.609066
0.609061
0.609057
0.609054
0.609051
0.609048
0.609045
0.609043
0.609041
0.609039
0.609038
0.57664
0.576636
0.57663
0.576628
0.576626
0.576625
0.576626
0.576627
0.576629
0.576632
0.576634
0.576636
0.576639
0.576641
0.576643
0.576645
0.576648
0.57665
0.576652
0.576653
0.576655
0.576657
0.576659
0.57666
0.576662
0.576663
0.576664
0.576666
0.576667
0.576668
0.576669
0.57667
0.576671
0.576672
0.576673
0.576674
0.576675
0.576676
0.576676
0.576677
0.576678
0.576678
0.576683
0.576687
0.576695
0.576697
0.576695
0.576691
0.576688
0.576684
0.576681
0.576679
0.576676
0.576674
0.576672
0.57667
0.576669
0.576667
0.576667
0.546206
0.546203
0.546199
0.546197
0.546196
0.546195
0.546196
0.546197
0.546199
0.546201
0.546203
0.546205
0.546207
0.546209
0.546211
0.546214
0.546216
0.546218
0.54622
0.546222
0.546223
0.546225
0.546227
0.546229
0.54623
0.546232
0.546233
0.546235
0.546236
0.546237
0.546239
0.54624
0.546241
0.546242
0.546243
0.546244
0.546245
0.546246
0.546247
0.546248
0.546249
0.54625
0.546252
0.546255
0.546259
0.546262
0.546262
0.54626
0.546258
0.546256
0.546254
0.546252
0.54625
0.546249
0.546247
0.546246
0.546245
0.546244
0.546245
0.517547
0.517542
0.51754
0.517539
0.517538
0.517538
0.517539
0.51754
0.517541
0.517543
0.517545
0.517547
0.517549
0.517552
0.517554
0.517556
0.517558
0.51756
0.517562
0.517564
0.517566
0.517568
0.51757
0.517572
0.517574
0.517575
0.517577
0.517579
0.51758
0.517582
0.517583
0.517585
0.517586
0.517587
0.517588
0.51759
0.517591
0.517592
0.517593
0.517594
0.517596
0.517596
0.517598
0.5176
0.517602
0.517604
0.517605
0.517605
0.517604
0.517603
0.517602
0.517601
0.5176
0.517598
0.517597
0.517597
0.517596
0.517595
0.517598
0.490508
0.490502
0.490501
0.4905
0.4905
0.490501
0.490502
0.490503
0.490505
0.490507
0.490509
0.490511
0.490513
0.490515
0.490518
0.49052
0.490522
0.490524
0.490526
0.490529
0.490531
0.490533
0.490535
0.490537
0.490539
0.490541
0.490542
0.490544
0.490546
0.490548
0.490549
0.490551
0.490552
0.490554
0.490555
0.490557
0.490558
0.49056
0.490561
0.490562
0.490564
0.490565
0.490566
0.490568
0.490569
0.490571
0.490572
0.490573
0.490573
0.490572
0.490572
0.490571
0.49057
0.49057
0.490569
0.490569
0.490569
0.490567
0.490572
0.464957
0.46495
0.464948
0.464948
0.464949
0.46495
0.464951
0.464953
0.464955
0.464957
0.464959
0.464961
0.464964
0.464966
0.464968
0.464971
0.464973
0.464976
0.464978
0.46498
0.464982
0.464985
0.464987
0.464989
0.464991
0.464993
0.464995
0.464997
0.464999
0.465001
0.465003
0.465005
0.465006
0.465008
0.46501
0.465011
0.465013
0.465015
0.465016
0.465018
0.465019
0.465021
0.465022
0.465024
0.465025
0.465027
0.465028
0.465029
0.465029
0.465029
0.465029
0.465029
0.465029
0.465029
0.465029
0.465029
0.465029
0.465028
0.465034
0.440776
0.440767
0.440766
0.440766
0.440767
0.440769
0.44077
0.440772
0.440774
0.440777
0.440779
0.440781
0.440784
0.440786
0.440789
0.440791
0.440794
0.440796
0.440799
0.440801
0.440804
0.440806
0.440809
0.440811
0.440813
0.440815
0.440818
0.44082
0.440822
0.440824
0.440826
0.440828
0.44083
0.440832
0.440834
0.440836
0.440838
0.440839
0.440841
0.440843
0.440845
0.440846
0.440848
0.44085
0.440851
0.440853
0.440854
0.440855
0.440856
0.440856
0.440857
0.440857
0.440858
0.440858
0.440858
0.440858
0.440859
0.440858
0.440866
0.417861
0.41785
0.417849
0.41785
0.417851
0.417853
0.417855
0.417857
0.41786
0.417862
0.417865
0.417867
0.41787
0.417873
0.417875
0.417878
0.417881
0.417883
0.417886
0.417889
0.417891
0.417894
0.417896
0.417899
0.417901
0.417904
0.417906
0.417909
0.417911
0.417913
0.417916
0.417918
0.41792
0.417922
0.417924
0.417926
0.417928
0.41793
0.417932
0.417934
0.417936
0.417938
0.41794
0.417942
0.417944
0.417945
0.417947
0.417948
0.417949
0.41795
0.417951
0.417952
0.417952
0.417953
0.417954
0.417954
0.417955
0.417954
0.417964
0.396122
0.396109
0.396107
0.396109
0.39611
0.396112
0.396115
0.396117
0.39612
0.396122
0.396125
0.396128
0.396131
0.396133
0.396136
0.396139
0.396142
0.396145
0.396148
0.396151
0.396154
0.396156
0.396159
0.396162
0.396164
0.396167
0.39617
0.396172
0.396175
0.396177
0.39618
0.396182
0.396185
0.396187
0.396189
0.396192
0.396194
0.396196
0.396198
0.396201
0.396203
0.396205
0.396207
0.396209
0.396211
0.396213
0.396215
0.396216
0.396218
0.396219
0.39622
0.396221
0.396222
0.396223
0.396224
0.396225
0.396226
0.396225
0.396237
0.375476
0.375462
0.37546
0.375462
0.375464
0.375466
0.375468
0.375471
0.375474
0.375477
0.375479
0.375482
0.375485
0.375488
0.375492
0.375495
0.375498
0.375501
0.375504
0.375507
0.37551
0.375513
0.375516
0.375519
0.375522
0.375524
0.375527
0.37553
0.375533
0.375536
0.375538
0.375541
0.375543
0.375546
0.375549
0.375551
0.375554
0.375556
0.375558
0.375561
0.375563
0.375566
0.375568
0.37557
0.375572
0.375574
0.375576
0.375578
0.37558
0.375582
0.375583
0.375585
0.375586
0.375587
0.375589
0.37559
0.375591
0.37559
0.375603
0.355854
0.355838
0.355836
0.355838
0.35584
0.355842
0.355845
0.355848
0.355851
0.355854
0.355857
0.35586
0.355863
0.355866
0.355869
0.355873
0.355876
0.355879
0.355882
0.355886
0.355889
0.355892
0.355895
0.355898
0.355901
0.355904
0.355907
0.35591
0.355913
0.355916
0.355919
0.355922
0.355925
0.355928
0.35593
0.355933
0.355936
0.355938
0.355941
0.355944
0.355946
0.355949
0.355951
0.355954
0.355956
0.355959
0.355961
0.355963
0.355965
0.355967
0.355969
0.355971
0.355972
0.355974
0.355975
0.355977
0.355979
0.355978
0.355992
0.33719
0.337173
0.337171
0.337173
0.337175
0.337178
0.337181
0.337184
0.337187
0.33719
0.337193
0.337197
0.3372
0.337203
0.337207
0.33721
0.337213
0.337217
0.33722
0.337223
0.337227
0.33723
0.337234
0.337237
0.33724
0.337243
0.337247
0.33725
0.337253
0.337256
0.337259
0.337262
0.337265
0.337268
0.337271
0.337274
0.337277
0.33728
0.337283
0.337286
0.337288
0.337291
0.337294
0.337297
0.337299
0.337302
0.337304
0.337307
0.337309
0.337311
0.337313
0.337315
0.337317
0.337319
0.337321
0.337323
0.337325
0.337324
0.33734
0.31943
0.319412
0.31941
0.319411
0.319414
0.319417
0.31942
0.319423
0.319426
0.319429
0.319433
0.319436
0.31944
0.319443
0.319447
0.31945
0.319454
0.319457
0.319461
0.319464
0.319468
0.319471
0.319475
0.319478
0.319482
0.319485
0.319489
0.319492
0.319495
0.319499
0.319502
0.319505
0.319508
0.319511
0.319515
0.319518
0.319521
0.319524
0.319527
0.31953
0.319533
0.319536
0.319539
0.319542
0.319545
0.319548
0.31955
0.319553
0.319556
0.319558
0.31956
0.319563
0.319565
0.319567
0.319569
0.319571
0.319574
0.319573
0.31959
0.302522
0.302503
0.302501
0.302502
0.302505
0.302508
0.302512
0.302515
0.302518
0.302522
0.302525
0.302529
0.302532
0.302536
0.302539
0.302543
0.302547
0.30255
0.302554
0.302558
0.302561
0.302565
0.302569
0.302572
0.302576
0.302579
0.302583
0.302586
0.30259
0.302593
0.302597
0.3026
0.302604
0.302607
0.30261
0.302614
0.302617
0.30262
0.302624
0.302627
0.30263
0.302633
0.302636
0.302639
0.302642
0.302645
0.302648
0.302651
0.302654
0.302657
0.30266
0.302662
0.302665
0.302667
0.30267
0.302672
0.302675
0.302674
0.302692
0.286422
0.286402
0.286399
0.286401
0.286404
0.286408
0.286411
0.286414
0.286418
0.286421
0.286425
0.286429
0.286432
0.286436
0.28644
0.286444
0.286447
0.286451
0.286455
0.286459
0.286462
0.286466
0.28647
0.286474
0.286477
0.286481
0.286485
0.286489
0.286492
0.286496
0.286499
0.286503
0.286507
0.28651
0.286514
0.286517
0.286521
0.286524
0.286527
0.286531
0.286534
0.286538
0.286541
0.286544
0.286547
0.286551
0.286554
0.286557
0.28656
0.286563
0.286566
0.286569
0.286571
0.286574
0.286577
0.286579
0.286582
0.286582
0.2866
0.27109
0.271068
0.271065
0.271068
0.271071
0.271074
0.271078
0.271081
0.271085
0.271089
0.271092
0.271096
0.2711
0.271104
0.271107
0.271111
0.271115
0.271119
0.271123
0.271127
0.271131
0.271135
0.271138
0.271142
0.271146
0.27115
0.271154
0.271158
0.271161
0.271165
0.271169
0.271173
0.271176
0.27118
0.271184
0.271187
0.271191
0.271195
0.271198
0.271202
0.271205
0.271209
0.271212
0.271216
0.271219
0.271222
0.271226
0.271229
0.271232
0.271236
0.271239
0.271242
0.271245
0.271248
0.271251
0.271253
0.271257
0.271256
0.271275
0.256488
0.256465
0.256463
0.256465
0.256468
0.256472
0.256475
0.256479
0.256483
0.256487
0.25649
0.256494
0.256498
0.256502
0.256506
0.25651
0.256514
0.256518
0.256522
0.256526
0.25653
0.256534
0.256538
0.256542
0.256546
0.256549
0.256553
0.256557
0.256561
0.256565
0.256569
0.256573
0.256577
0.256581
0.256584
0.256588
0.256592
0.256596
0.256599
0.256603
0.256607
0.25661
0.256614
0.256618
0.256621
0.256625
0.256628
0.256632
0.256635
0.256638
0.256642
0.256645
0.256648
0.256651
0.256655
0.256657
0.256661
0.256661
0.256681
0.242584
0.24256
0.242558
0.24256
0.242563
0.242567
0.242571
0.242575
0.242578
0.242582
0.242586
0.24259
0.242594
0.242598
0.242602
0.242606
0.24261
0.242614
0.242618
0.242622
0.242626
0.24263
0.242635
0.242639
0.242643
0.242647
0.242651
0.242655
0.242659
0.242663
0.242667
0.242671
0.242675
0.242679
0.242682
0.242686
0.24269
0.242694
0.242698
0.242702
0.242706
0.242709
0.242713
0.242717
0.24272
0.242724
0.242728
0.242731
0.242735
0.242739
0.242742
0.242745
0.242749
0.242752
0.242756
0.242759
0.242762
0.242762
0.242783
0.229348
0.229323
0.229321
0.229323
0.229326
0.22933
0.229334
0.229338
0.229342
0.229346
0.22935
0.229354
0.229358
0.229362
0.229366
0.22937
0.229374
0.229379
0.229383
0.229387
0.229391
0.229395
0.229399
0.229403
0.229407
0.229412
0.229416
0.22942
0.229424
0.229428
0.229432
0.229436
0.22944
0.229444
0.229448
0.229452
0.229456
0.22946
0.229464
0.229468
0.229472
0.229476
0.22948
0.229483
0.229487
0.229491
0.229495
0.229498
0.229502
0.229506
0.22951
0.229513
0.229517
0.22952
0.229524
0.229527
0.229531
0.229531
0.229552
0.216752
0.216727
0.216724
0.216726
0.21673
0.216734
0.216738
0.216742
0.216746
0.21675
0.216754
0.216758
0.216762
0.216766
0.216771
0.216775
0.216779
0.216783
0.216787
0.216791
0.216796
0.2168
0.216804
0.216808
0.216812
0.216817
0.216821
0.216825
0.216829
0.216833
0.216837
0.216841
0.216846
0.21685
0.216854
0.216858
0.216862
0.216866
0.21687
0.216874
0.216878
0.216882
0.216886
0.21689
0.216894
0.216898
0.216901
0.216905
0.216909
0.216913
0.216917
0.21692
0.216924
0.216928
0.216931
0.216935
0.216939
0.216939
0.21696
0.204771
0.204745
0.204742
0.204745
0.204749
0.204753
0.204757
0.204761
0.204765
0.204769
0.204773
0.204777
0.204781
0.204786
0.20479
0.204794
0.204798
0.204802
0.204807
0.204811
0.204815
0.204819
0.204824
0.204828
0.204832
0.204836
0.20484
0.204845
0.204849
0.204853
0.204857
0.204862
0.204866
0.20487
0.204874
0.204878
0.204882
0.204886
0.20489
0.204894
0.204899
0.204903
0.204907
0.204911
0.204915
0.204919
0.204923
0.204926
0.20493
0.204934
0.204938
0.204942
0.204946
0.204949
0.204953
0.204957
0.204961
0.204961
0.204982
0.193381
0.193355
0.193352
0.193355
0.193358
0.193363
0.193367
0.193371
0.193375
0.193379
0.193383
0.193388
0.193392
0.193396
0.1934
0.193405
0.193409
0.193413
0.193417
0.193422
0.193426
0.19343
0.193434
0.193439
0.193443
0.193447
0.193451
0.193456
0.19346
0.193464
0.193468
0.193473
0.193477
0.193481
0.193485
0.193489
0.193494
0.193498
0.193502
0.193506
0.19351
0.193514
0.193518
0.193522
0.193526
0.19353
0.193534
0.193538
0.193542
0.193546
0.19355
0.193554
0.193558
0.193562
0.193566
0.193569
0.193574
0.193574
0.193595
0.18256
0.182534
0.182531
0.182534
0.182538
0.182542
0.182546
0.18255
0.182555
0.182559
0.182563
0.182567
0.182571
0.182576
0.18258
0.182584
0.182589
0.182593
0.182597
0.182601
0.182606
0.18261
0.182614
0.182619
0.182623
0.182627
0.182631
0.182636
0.18264
0.182644
0.182648
0.182653
0.182657
0.182661
0.182665
0.18267
0.182674
0.182678
0.182682
0.182686
0.18269
0.182694
0.182699
0.182703
0.182707
0.182711
0.182715
0.182719
0.182723
0.182727
0.182731
0.182735
0.182739
0.182743
0.182747
0.18275
0.182755
0.182755
0.182776
0.172288
0.172262
0.172259
0.172262
0.172265
0.17227
0.172274
0.172278
0.172282
0.172287
0.172291
0.172295
0.172299
0.172304
0.172308
0.172312
0.172317
0.172321
0.172325
0.172329
0.172334
0.172338
0.172342
0.172347
0.172351
0.172355
0.172359
0.172364
0.172368
0.172372
0.172376
0.172381
0.172385
0.172389
0.172393
0.172398
0.172402
0.172406
0.17241
0.172414
0.172419
0.172423
0.172427
0.172431
0.172435
0.172439
0.172443
0.172447
0.172451
0.172455
0.172459
0.172463
0.172467
0.172471
0.172475
0.172479
0.172483
0.172484
0.172505
0.162544
0.162518
0.162515
0.162518
0.162522
0.162526
0.16253
0.162534
0.162539
0.162543
0.162547
0.162551
0.162556
0.16256
0.162564
0.162569
0.162573
0.162577
0.162581
0.162586
0.16259
0.162594
0.162599
0.162603
0.162607
0.162611
0.162616
0.16262
0.162624
0.162628
0.162633
0.162637
0.162641
0.162645
0.16265
0.162654
0.162658
0.162662
0.162666
0.162671
0.162675
0.162679
0.162683
0.162687
0.162691
0.162695
0.162699
0.162703
0.162707
0.162712
0.162716
0.16272
0.162723
0.162727
0.162731
0.162735
0.16274
0.16274
0.162761
0.15331
0.153283
0.153281
0.153283
0.153287
0.153291
0.153296
0.1533
0.153304
0.153308
0.153313
0.153317
0.153321
0.153325
0.15333
0.153334
0.153338
0.153343
0.153347
0.153351
0.153356
0.15336
0.153364
0.153368
0.153373
0.153377
0.153381
0.153385
0.15339
0.153394
0.153398
0.153402
0.153406
0.153411
0.153415
0.153419
0.153423
0.153427
0.153432
0.153436
0.15344
0.153444
0.153448
0.153452
0.153456
0.15346
0.153464
0.153468
0.153472
0.153476
0.15348
0.153484
0.153488
0.153492
0.153496
0.1535
0.153504
0.153505
0.153526
0.144566
0.14454
0.144537
0.14454
0.144544
0.144548
0.144552
0.144556
0.144561
0.144565
0.144569
0.144573
0.144578
0.144582
0.144586
0.14459
0.144595
0.144599
0.144603
0.144607
0.144612
0.144616
0.14462
0.144624
0.144629
0.144633
0.144637
0.144641
0.144645
0.14465
0.144654
0.144658
0.144662
0.144666
0.144671
0.144675
0.144679
0.144683
0.144687
0.144691
0.144695
0.144699
0.144704
0.144708
0.144712
0.144716
0.14472
0.144724
0.144728
0.144732
0.144736
0.14474
0.144744
0.144748
0.144751
0.144755
0.14476
0.144761
0.14478
0.136296
0.136269
0.136267
0.136269
0.136273
0.136277
0.136281
0.136286
0.13629
0.136294
0.136298
0.136303
0.136307
0.136311
0.136315
0.13632
0.136324
0.136328
0.136332
0.136336
0.136341
0.136345
0.136349
0.136353
0.136357
0.136362
0.136366
0.13637
0.136374
0.136378
0.136382
0.136387
0.136391
0.136395
0.136399
0.136403
0.136407
0.136411
0.136415
0.136419
0.136423
0.136427
0.136431
0.136436
0.13644
0.136444
0.136448
0.136452
0.136455
0.136459
0.136463
0.136467
0.136471
0.136475
0.136479
0.136483
0.136487
0.136488
0.136507
0.12848
0.128454
0.128452
0.128454
0.128458
0.128462
0.128466
0.12847
0.128475
0.128479
0.128483
0.128487
0.128491
0.128496
0.1285
0.128504
0.128508
0.128512
0.128516
0.128521
0.128525
0.128529
0.128533
0.128537
0.128541
0.128545
0.12855
0.128554
0.128558
0.128562
0.128566
0.12857
0.128574
0.128578
0.128582
0.128586
0.12859
0.128594
0.128598
0.128602
0.128606
0.12861
0.128614
0.128618
0.128622
0.128626
0.12863
0.128634
0.128638
0.128642
0.128646
0.12865
0.128653
0.128657
0.128661
0.128665
0.128669
0.12867
0.128689
0.121103
0.121077
0.121075
0.121077
0.121081
0.121085
0.121089
0.121093
0.121097
0.121101
0.121106
0.12111
0.121114
0.121118
0.121122
0.121126
0.12113
0.121135
0.121139
0.121143
0.121147
0.121151
0.121155
0.121159
0.121163
0.121167
0.121171
0.121175
0.121179
0.121183
0.121187
0.121191
0.121195
0.121199
0.121203
0.121207
0.121211
0.121215
0.121219
0.121223
0.121227
0.121231
0.121235
0.121239
0.121243
0.121247
0.12125
0.121254
0.121258
0.121262
0.121266
0.12127
0.121273
0.121277
0.121281
0.121285
0.121289
0.12129
0.121308
0.114146
0.114121
0.114119
0.114121
0.114125
0.114129
0.114133
0.114137
0.114141
0.114145
0.114149
0.114153
0.114157
0.114161
0.114166
0.11417
0.114174
0.114178
0.114182
0.114186
0.11419
0.114194
0.114198
0.114202
0.114206
0.11421
0.114214
0.114218
0.114222
0.114226
0.11423
0.114234
0.114237
0.114241
0.114245
0.114249
0.114253
0.114257
0.114261
0.114265
0.114269
0.114272
0.114276
0.11428
0.114284
0.114288
0.114291
0.114295
0.114299
0.114303
0.114306
0.11431
0.114314
0.114317
0.114321
0.114325
0.114329
0.11433
0.114347
0.107594
0.10757
0.107567
0.10757
0.107573
0.107577
0.107581
0.107585
0.107589
0.107593
0.107597
0.107601
0.107605
0.107609
0.107613
0.107617
0.107621
0.107625
0.107629
0.107633
0.107637
0.107641
0.107645
0.107649
0.107653
0.107656
0.10766
0.107664
0.107668
0.107672
0.107676
0.10768
0.107683
0.107687
0.107691
0.107695
0.107699
0.107703
0.107706
0.10771
0.107714
0.107718
0.107721
0.107725
0.107729
0.107732
0.107736
0.10774
0.107743
0.107747
0.107751
0.107754
0.107758
0.107762
0.107765
0.107769
0.107773
0.107774
0.10779
0.10143
0.101406
0.101403
0.101406
0.101409
0.101413
0.101417
0.101421
0.101425
0.101429
0.101433
0.101436
0.10144
0.101444
0.101448
0.101452
0.101456
0.10146
0.101464
0.101467
0.101471
0.101475
0.101479
0.101483
0.101487
0.10149
0.101494
0.101498
0.101502
0.101506
0.101509
0.101513
0.101517
0.101521
0.101524
0.101528
0.101532
0.101535
0.101539
0.101543
0.101546
0.10155
0.101554
0.101557
0.101561
0.101564
0.101568
0.101572
0.101575
0.101579
0.101582
0.101586
0.101589
0.101593
0.101596
0.1016
0.101603
0.101605
0.10162
0.0956363
0.095613
0.0956106
0.095613
0.0956165
0.0956202
0.095624
0.0956277
0.0956315
0.0956353
0.0956391
0.0956429
0.0956466
0.0956504
0.0956542
0.095658
0.0956617
0.0956655
0.0956693
0.095673
0.0956768
0.0956805
0.0956843
0.095688
0.0956917
0.0956954
0.0956991
0.0957028
0.0957065
0.0957101
0.0957138
0.0957174
0.095721
0.0957247
0.0957283
0.0957319
0.0957355
0.0957391
0.0957426
0.0957462
0.0957497
0.0957532
0.0957568
0.0957603
0.0957638
0.0957673
0.0957707
0.0957742
0.0957777
0.0957811
0.0957846
0.095788
0.0957914
0.0957948
0.0957982
0.0958015
0.0958051
0.0958066
0.0958211
0.0901976
0.090175
0.0901727
0.0901751
0.0901784
0.090182
0.0901857
0.0901894
0.090193
0.0901967
0.0902004
0.0902041
0.0902077
0.0902114
0.0902151
0.0902187
0.0902224
0.090226
0.0902297
0.0902333
0.090237
0.0902406
0.0902442
0.0902478
0.0902514
0.090255
0.0902586
0.0902622
0.0902657
0.0902693
0.0902728
0.0902764
0.0902799
0.0902834
0.0902869
0.0902904
0.0902939
0.0902973
0.0903008
0.0903042
0.0903077
0.0903111
0.0903145
0.0903179
0.0903213
0.0903246
0.090328
0.0903314
0.0903347
0.090338
0.0903414
0.0903447
0.090348
0.0903512
0.0903545
0.0903577
0.0903612
0.0903627
0.0903764
0.0850977
0.0850757
0.0850736
0.0850759
0.0850791
0.0850826
0.0850862
0.0850897
0.0850933
0.0850968
0.0851004
0.0851039
0.0851075
0.085111
0.0851146
0.0851181
0.0851217
0.0851252
0.0851287
0.0851323
0.0851358
0.0851393
0.0851428
0.0851463
0.0851498
0.0851533
0.0851567
0.0851602
0.0851636
0.0851671
0.0851705
0.0851739
0.0851773
0.0851807
0.0851841
0.0851874
0.0851908
0.0851941
0.0851975
0.0852008
0.0852041
0.0852074
0.0852107
0.085214
0.0852172
0.0852205
0.0852237
0.085227
0.0852302
0.0852334
0.0852366
0.0852398
0.085243
0.0852461
0.0852493
0.0852524
0.0852557
0.0852573
0.0852701
0.0803205
0.0802994
0.0802973
0.0802995
0.0803027
0.0803061
0.0803095
0.0803129
0.0803164
0.0803198
0.0803232
0.0803267
0.0803301
0.0803335
0.0803369
0.0803404
0.0803438
0.0803472
0.0803506
0.080354
0.0803574
0.0803608
0.0803642
0.0803675
0.0803709
0.0803742
0.0803776
0.0803809
0.0803842
0.0803875
0.0803908
0.0803941
0.0803974
0.0804007
0.0804039
0.0804072
0.0804104
0.0804136
0.0804168
0.08042
0.0804232
0.0804264
0.0804296
0.0804327
0.0804359
0.080439
0.0804421
0.0804452
0.0804483
0.0804514
0.0804545
0.0804575
0.0804606
0.0804636
0.0804667
0.0804696
0.0804728
0.0804744
0.0804863
0.0758507
0.0758303
0.0758283
0.0758305
0.0758335
0.0758368
0.0758401
0.0758434
0.0758467
0.07585
0.0758533
0.0758566
0.0758599
0.0758632
0.0758665
0.0758698
0.0758731
0.0758764
0.0758796
0.0758829
0.0758862
0.0758894
0.0758927
0.0758959
0.0758991
0.0759024
0.0759056
0.0759088
0.075912
0.0759151
0.0759183
0.0759215
0.0759246
0.0759278
0.0759309
0.075934
0.0759371
0.0759402
0.0759433
0.0759464
0.0759494
0.0759525
0.0759555
0.0759585
0.0759616
0.0759646
0.0759676
0.0759705
0.0759735
0.0759765
0.0759794
0.0759824
0.0759853
0.0759882
0.0759911
0.0759939
0.075997
0.0759986
0.0760096
0.0716727
0.0716532
0.0716513
0.0716534
0.0716563
0.0716594
0.0716626
0.0716658
0.071669
0.0716722
0.0716753
0.0716785
0.0716816
0.0716848
0.071688
0.0716911
0.0716943
0.0716974
0.0717006
0.0717037
0.0717068
0.0717099
0.0717131
0.0717162
0.0717193
0.0717223
0.0717254
0.0717285
0.0717315
0.0717346
0.0717376
0.0717407
0.0717437
0.0717467
0.0717497
0.0717527
0.0717557
0.0717586
0.0717616
0.0717645
0.0717674
0.0717704
0.0717733
0.0717762
0.071779
0.0717819
0.0717848
0.0717876
0.0717905
0.0717933
0.0717961
0.0717989
0.0718017
0.0718045
0.0718073
0.07181
0.0718129
0.0718145
0.0718247
0.0677717
0.067753
0.0677512
0.0677532
0.0677561
0.0677591
0.0677621
0.0677652
0.0677682
0.0677712
0.0677743
0.0677773
0.0677803
0.0677833
0.0677864
0.0677894
0.0677924
0.0677954
0.0677984
0.0678014
0.0678044
0.0678074
0.0678104
0.0678133
0.0678163
0.0678192
0.0678222
0.0678251
0.067828
0.0678309
0.0678338
0.0678367
0.0678396
0.0678425
0.0678454
0.0678482
0.0678511
0.0678539
0.0678567
0.0678595
0.0678623
0.0678651
0.0678679
0.0678707
0.0678734
0.0678761
0.0678789
0.0678816
0.0678843
0.067887
0.0678897
0.0678924
0.067895
0.0678977
0.0679003
0.0679029
0.0679057
0.0679073
0.0679167
0.0641331
0.0641152
0.0641135
0.0641155
0.0641182
0.064121
0.0641239
0.0641269
0.0641298
0.0641327
0.0641356
0.0641385
0.0641414
0.0641442
0.0641471
0.06415
0.0641529
0.0641557
0.0641586
0.0641615
0.0641643
0.0641671
0.06417
0.0641728
0.0641756
0.0641784
0.0641813
0.064184
0.0641868
0.0641896
0.0641924
0.0641951
0.0641979
0.0642006
0.0642034
0.0642061
0.0642088
0.0642115
0.0642142
0.0642168
0.0642195
0.0642222
0.0642248
0.0642274
0.0642301
0.0642327
0.0642353
0.0642379
0.0642404
0.064243
0.0642456
0.0642481
0.0642506
0.0642532
0.0642557
0.0642582
0.0642608
0.0642623
0.0642709
0.0607426
0.0607256
0.060724
0.0607259
0.0607285
0.0607312
0.060734
0.0607368
0.0607395
0.0607423
0.0607451
0.0607478
0.0607506
0.0607533
0.0607561
0.0607588
0.0607615
0.0607642
0.060767
0.0607697
0.0607724
0.0607751
0.0607778
0.0607805
0.0607832
0.0607858
0.0607885
0.0607912
0.0607938
0.0607964
0.0607991
0.0608017
0.0608043
0.0608069
0.0608095
0.0608121
0.0608147
0.0608172
0.0608198
0.0608223
0.0608248
0.0608274
0.0608299
0.0608324
0.0608349
0.0608373
0.0608398
0.0608423
0.0608447
0.0608472
0.0608496
0.060852
0.0608544
0.0608568
0.0608592
0.0608615
0.060864
0.0608655
0.0608734
0.0575866
0.0575705
0.057569
0.0575708
0.0575732
0.0575758
0.0575785
0.0575811
0.0575838
0.0575864
0.057589
0.0575917
0.0575943
0.0575969
0.0575995
0.0576021
0.0576047
0.0576072
0.0576098
0.0576124
0.057615
0.0576175
0.0576201
0.0576226
0.0576252
0.0576277
0.0576302
0.0576327
0.0576352
0.0576377
0.0576402
0.0576427
0.0576452
0.0576477
0.0576501
0.0576526
0.057655
0.0576574
0.0576598
0.0576623
0.0576647
0.057667
0.0576694
0.0576718
0.0576741
0.0576765
0.0576788
0.0576812
0.0576835
0.0576858
0.0576881
0.0576904
0.0576926
0.0576949
0.0576972
0.0576994
0.0577017
0.0577032
0.0577104
0.0546519
0.0546366
0.0546352
0.0546369
0.0546392
0.0546417
0.0546443
0.0546468
0.0546493
0.0546518
0.0546543
0.0546567
0.0546592
0.0546617
0.0546641
0.0546666
0.054669
0.0546715
0.0546739
0.0546764
0.0546788
0.0546812
0.0546836
0.054686
0.0546884
0.0546908
0.0546932
0.0546956
0.054698
0.0547003
0.0547027
0.054705
0.0547073
0.0547097
0.054712
0.0547143
0.0547166
0.0547189
0.0547212
0.0547235
0.0547257
0.054728
0.0547302
0.0547325
0.0547347
0.0547369
0.0547391
0.0547413
0.0547435
0.0547457
0.0547479
0.05475
0.0547522
0.0547543
0.0547564
0.0547586
0.0547608
0.0547622
0.0547687
0.0519257
0.0519113
0.05191
0.0519116
0.0519138
0.0519162
0.0519186
0.051921
0.0519233
0.0519257
0.0519281
0.0519304
0.0519327
0.0519351
0.0519374
0.0519397
0.051942
0.0519443
0.0519466
0.0519489
0.0519512
0.0519535
0.0519558
0.051958
0.0519603
0.0519625
0.0519648
0.051967
0.0519693
0.0519715
0.0519737
0.0519759
0.0519781
0.0519803
0.0519825
0.0519847
0.0519868
0.051989
0.0519912
0.0519933
0.0519954
0.0519976
0.0519997
0.0520018
0.0520039
0.052006
0.0520081
0.0520101
0.0520122
0.0520142
0.0520163
0.0520183
0.0520203
0.0520224
0.0520244
0.0520264
0.0520284
0.0520298
0.0520357
0.049396
0.0493824
0.0493812
0.0493827
0.0493848
0.0493871
0.0493893
0.0493916
0.0493938
0.0493961
0.0493983
0.0494005
0.0494027
0.0494049
0.0494071
0.0494093
0.0494115
0.0494136
0.0494158
0.0494179
0.0494201
0.0494222
0.0494244
0.0494265
0.0494286
0.0494307
0.0494329
0.049435
0.0494371
0.0494391
0.0494412
0.0494433
0.0494454
0.0494474
0.0494495
0.0494515
0.0494536
0.0494556
0.0494576
0.0494596
0.0494617
0.0494636
0.0494656
0.0494676
0.0494696
0.0494716
0.0494735
0.0494755
0.0494774
0.0494793
0.0494812
0.0494832
0.0494851
0.049487
0.0494888
0.0494907
0.0494926
0.049494
0.0494993
0.0470512
0.0470384
0.0470372
0.0470387
0.0470407
0.0470428
0.047045
0.0470471
0.0470492
0.0470513
0.0470534
0.0470555
0.0470576
0.0470597
0.0470617
0.0470638
0.0470658
0.0470679
0.0470699
0.0470719
0.0470739
0.0470759
0.0470779
0.0470799
0.0470819
0.0470839
0.0470859
0.0470879
0.0470898
0.0470918
0.0470937
0.0470957
0.0470976
0.0470995
0.0471015
0.0471034
0.0471053
0.0471072
0.0471091
0.047111
0.0471129
0.0471147
0.0471166
0.0471184
0.0471203
0.0471221
0.047124
0.0471258
0.0471276
0.0471294
0.0471312
0.047133
0.0471348
0.0471366
0.0471383
0.0471401
0.0471419
0.0471432
0.0471479
0.0448803
0.0448683
0.0448673
0.0448687
0.0448706
0.0448726
0.0448746
0.0448766
0.0448786
0.0448806
0.0448826
0.0448845
0.0448865
0.0448884
0.0448904
0.0448923
0.0448942
0.0448961
0.044898
0.0448999
0.0449018
0.0449037
0.0449055
0.0449074
0.0449093
0.0449111
0.0449129
0.0449148
0.0449166
0.0449185
0.0449203
0.0449221
0.0449239
0.0449257
0.0449275
0.0449293
0.0449311
0.0449328
0.0449346
0.0449364
0.0449381
0.0449399
0.0449416
0.0449434
0.0449451
0.0449468
0.0449485
0.0449502
0.0449519
0.0449536
0.0449553
0.044957
0.0449587
0.0449603
0.044962
0.0449636
0.0449653
0.0449666
0.0449708
0.0428731
0.0428619
0.0428609
0.0428623
0.0428641
0.042866
0.0428679
0.0428698
0.0428716
0.0428735
0.0428754
0.0428772
0.042879
0.0428809
0.0428827
0.0428845
0.0428863
0.042888
0.0428898
0.0428916
0.0428933
0.0428951
0.0428968
0.0428986
0.0429003
0.042902
0.0429038
0.0429055
0.0429072
0.0429089
0.0429106
0.0429123
0.042914
0.0429156
0.0429173
0.042919
0.0429206
0.0429223
0.0429239
0.0429256
0.0429272
0.0429289
0.0429305
0.0429321
0.0429337
0.0429353
0.0429369
0.0429385
0.0429401
0.0429417
0.0429432
0.0429448
0.0429464
0.0429479
0.0429495
0.042951
0.0429526
0.0429538
0.0429575
0.04102
0.0410094
0.0410086
0.0410098
0.0410115
0.0410133
0.0410151
0.0410169
0.0410187
0.0410204
0.0410222
0.0410239
0.0410256
0.0410273
0.041029
0.0410307
0.0410324
0.041034
0.0410357
0.0410373
0.041039
0.0410406
0.0410422
0.0410438
0.0410455
0.0410471
0.0410487
0.0410503
0.0410518
0.0410534
0.041055
0.0410566
0.0410581
0.0410597
0.0410612
0.0410628
0.0410643
0.0410659
0.0410674
0.0410689
0.0410705
0.041072
0.0410735
0.041075
0.0410765
0.041078
0.0410795
0.0410809
0.0410824
0.0410839
0.0410853
0.0410868
0.0410882
0.0410897
0.0410911
0.0410926
0.041094
0.0410952
0.0410985
0.0393118
0.0393019
0.0393012
0.0393024
0.039304
0.0393057
0.0393074
0.0393091
0.0393107
0.0393124
0.039314
0.0393156
0.0393172
0.0393188
0.0393204
0.039322
0.0393235
0.0393251
0.0393266
0.0393281
0.0393297
0.0393312
0.0393327
0.0393342
0.0393357
0.0393372
0.0393387
0.0393401
0.0393416
0.0393431
0.0393445
0.039346
0.0393474
0.0393489
0.0393503
0.0393518
0.0393532
0.0393546
0.039356
0.0393574
0.0393589
0.0393603
0.0393617
0.0393631
0.0393644
0.0393658
0.0393672
0.0393686
0.0393699
0.0393713
0.0393727
0.039374
0.0393754
0.0393767
0.039378
0.0393794
0.0393807
0.0393818
0.0393847
0.0377403
0.0377311
0.0377304
0.0377316
0.0377331
0.0377347
0.0377363
0.0377378
0.0377394
0.037741
0.0377425
0.037744
0.0377455
0.037747
0.0377485
0.0377499
0.0377514
0.0377528
0.0377542
0.0377557
0.0377571
0.0377585
0.0377599
0.0377613
0.0377627
0.037764
0.0377654
0.0377668
0.0377681
0.0377695
0.0377709
0.0377722
0.0377735
0.0377749
0.0377762
0.0377775
0.0377788
0.0377802
0.0377815
0.0377828
0.0377841
0.0377854
0.0377867
0.037788
0.0377893
0.0377905
0.0377918
0.0377931
0.0377943
0.0377956
0.0377969
0.0377981
0.0377994
0.0378006
0.0378018
0.0378031
0.0378043
0.0378053
0.0378079
0.0362977
0.0362892
0.0362886
0.0362897
0.0362912
0.0362926
0.0362941
0.0362956
0.0362971
0.0362985
0.0363
0.0363014
0.0363028
0.0363042
0.0363056
0.0363069
0.0363083
0.0363096
0.0363109
0.0363123