/*--------------------------------*- C++ -*----------------------------------*\
  =========                 |
  \\      /  F ield         | OpenFOAM: The Open Source CFD Toolbox
   \\    /   O peration     | Website:  https://openfoam.org
    \\  /    A nd           | Version:  7
     \\/     M anipulation  |
\*---------------------------------------------------------------------------*/
FoamFile
{
    version     2.0;
    format      ascii;
    class       volScalarField;
    location    "3000";
    object      k;
}
// * * * * * * * * * * * * * * * * * * * * * * * * * * * * * * * * * * * * * //

dimensions      [0 2 -2 0 0 0 0];

internalField   nonuniform List<scalar> 
4000
(
6.51615e-05
6.51573e-05
6.5157e-05
6.51575e-05
6.51581e-05
6.51587e-05
6.51593e-05
6.51599e-05
6.51605e-05
6.5161e-05
6.51616e-05
6.51621e-05
6.51627e-05
6.51632e-05
6.51637e-05
6.51643e-05
6.51648e-05
6.51653e-05
6.51659e-05
6.51664e-05
6.51669e-05
6.51674e-05
6.51679e-05
6.51684e-05
6.51689e-05
6.51694e-05
6.51699e-05
6.51704e-05
6.51709e-05
6.51714e-05
6.51719e-05
6.51724e-05
6.51729e-05
6.51733e-05
6.51738e-05
6.51743e-05
6.51748e-05
6.51753e-05
6.51758e-05
6.51763e-05
6.51768e-05
6.51773e-05
6.51777e-05
6.51782e-05
6.51785e-05
6.51732e-05
6.51697e-05
6.51684e-05
6.51682e-05
6.51684e-05
6.51688e-05
6.51692e-05
6.51696e-05
6.51701e-05
6.51706e-05
6.51711e-05
6.51716e-05
6.51721e-05
6.51726e-05
6.51731e-05
6.51736e-05
6.51741e-05
6.51746e-05
6.51751e-05
6.51756e-05
6.51761e-05
6.51766e-05
6.51771e-05
6.51776e-05
6.51781e-05
6.51786e-05
6.5179e-05
6.51795e-05
6.518e-05
6.51805e-05
6.51809e-05
6.51814e-05
6.51819e-05
6.51824e-05
6.51828e-05
6.51833e-05
6.51837e-05
6.51842e-05
6.51846e-05
6.51851e-05
6.51855e-05
6.5186e-05
6.51864e-05
6.51868e-05
6.51872e-05
6.51877e-05
6.51881e-05
6.51885e-05
6.51889e-05
6.51893e-05
6.51897e-05
6.51901e-05
6.51905e-05
6.51909e-05
6.51912e-05
6.51916e-05
6.5192e-05
6.51924e-05
6.51925e-05
6.51871e-05
6.51835e-05
6.51821e-05
6.51818e-05
6.51819e-05
6.51821e-05
6.51824e-05
6.51827e-05
6.5183e-05
6.51834e-05
6.51837e-05
6.51841e-05
6.51844e-05
6.51848e-05
6.51853e-05
6.51834e-05
6.53606e-05
6.53563e-05
6.53557e-05
6.5356e-05
6.53564e-05
6.53569e-05
6.53574e-05
6.53578e-05
6.53583e-05
6.53588e-05
6.53593e-05
6.53598e-05
6.53603e-05
6.53607e-05
6.53612e-05
6.53617e-05
6.53622e-05
6.53627e-05
6.53632e-05
6.53636e-05
6.53641e-05
6.53646e-05
6.53651e-05
6.53656e-05
6.5366e-05
6.53665e-05
6.5367e-05
6.53674e-05
6.53679e-05
6.53683e-05
6.53688e-05
6.53693e-05
6.53697e-05
6.53702e-05
6.53707e-05
6.53712e-05
6.53716e-05
6.53721e-05
6.53726e-05
6.5373e-05
6.53735e-05
6.5374e-05
6.53744e-05
6.53749e-05
6.53754e-05
6.53741e-05
6.53723e-05
6.53708e-05
6.537e-05
6.53695e-05
6.53694e-05
6.53694e-05
6.53696e-05
6.53698e-05
6.537e-05
6.53703e-05
6.53707e-05
6.5371e-05
6.53714e-05
6.53718e-05
6.53722e-05
6.53726e-05
6.5373e-05
6.53734e-05
6.53738e-05
6.53743e-05
6.53747e-05
6.53751e-05
6.53755e-05
6.53759e-05
6.53764e-05
6.53768e-05
6.53772e-05
6.53776e-05
6.53781e-05
6.53785e-05
6.53789e-05
6.53793e-05
6.53798e-05
6.53802e-05
6.53806e-05
6.5381e-05
6.53814e-05
6.53818e-05
6.53822e-05
6.53826e-05
6.5383e-05
6.53834e-05
6.53838e-05
6.53842e-05
6.53846e-05
6.5385e-05
6.53853e-05
6.53857e-05
6.53861e-05
6.53865e-05
6.53868e-05
6.53872e-05
6.53875e-05
6.53879e-05
6.53883e-05
6.53886e-05
6.5389e-05
6.53893e-05
6.53879e-05
6.5386e-05
6.53844e-05
6.53834e-05
6.53829e-05
6.53826e-05
6.53825e-05
6.53825e-05
6.53825e-05
6.53827e-05
6.53828e-05
6.5383e-05
6.53832e-05
6.53834e-05
6.53838e-05
6.5382e-05
6.56792e-05
6.5675e-05
6.56743e-05
6.56744e-05
6.56747e-05
6.5675e-05
6.56754e-05
6.56758e-05
6.56762e-05
6.56766e-05
6.5677e-05
6.56774e-05
6.56779e-05
6.56783e-05
6.56787e-05
6.56792e-05
6.56796e-05
6.56801e-05
6.56805e-05
6.5681e-05
6.56814e-05
6.56819e-05
6.56823e-05
6.56828e-05
6.56832e-05
6.56836e-05
6.56841e-05
6.56845e-05
6.5685e-05
6.56854e-05
6.56858e-05
6.56863e-05
6.56867e-05
6.56872e-05
6.56876e-05
6.56881e-05
6.56885e-05
6.5689e-05
6.56894e-05
6.56899e-05
6.56903e-05
6.56908e-05
6.56912e-05
6.56917e-05
6.56922e-05
6.56921e-05
6.56915e-05
6.56908e-05
6.56901e-05
6.56896e-05
6.56893e-05
6.56892e-05
6.56891e-05
6.56892e-05
6.56893e-05
6.56894e-05
6.56896e-05
6.56899e-05
6.56901e-05
6.56904e-05
6.56907e-05
6.5691e-05
6.56914e-05
6.56917e-05
6.56921e-05
6.56924e-05
6.56928e-05
6.56931e-05
6.56935e-05
6.56938e-05
6.56942e-05
6.56946e-05
6.56949e-05
6.56953e-05
6.56957e-05
6.56961e-05
6.56964e-05
6.56968e-05
6.56972e-05
6.56976e-05
6.56979e-05
6.56983e-05
6.56987e-05
6.5699e-05
6.56994e-05
6.56998e-05
6.57001e-05
6.57005e-05
6.57008e-05
6.57012e-05
6.57015e-05
6.57019e-05
6.57022e-05
6.57026e-05
6.57029e-05
6.57033e-05
6.57036e-05
6.57039e-05
6.57042e-05
6.57046e-05
6.57049e-05
6.57052e-05
6.57055e-05
6.57059e-05
6.57057e-05
6.5705e-05
6.57041e-05
6.57033e-05
6.57027e-05
6.57022e-05
6.57019e-05
6.57017e-05
6.57016e-05
6.57016e-05
6.57016e-05
6.57017e-05
6.57017e-05
6.57018e-05
6.57021e-05
6.57004e-05
6.61101e-05
6.6106e-05
6.61053e-05
6.61053e-05
6.61056e-05
6.61058e-05
6.61061e-05
6.61065e-05
6.61068e-05
6.61071e-05
6.61075e-05
6.61079e-05
6.61082e-05
6.61086e-05
6.6109e-05
6.61094e-05
6.61098e-05
6.61103e-05
6.61107e-05
6.61111e-05
6.61115e-05
6.61119e-05
6.61123e-05
6.61128e-05
6.61132e-05
6.61136e-05
6.6114e-05
6.61144e-05
6.61149e-05
6.61153e-05
6.61157e-05
6.61161e-05
6.61166e-05
6.6117e-05
6.61174e-05
6.61179e-05
6.61183e-05
6.61187e-05
6.61192e-05
6.61196e-05
6.612e-05
6.61205e-05
6.61209e-05
6.61213e-05
6.61218e-05
6.61221e-05
6.61221e-05
6.61219e-05
6.61216e-05
6.61213e-05
6.61211e-05
6.6121e-05
6.61209e-05
6.61209e-05
6.61209e-05
6.6121e-05
6.61211e-05
6.61213e-05
6.61215e-05
6.61217e-05
6.61219e-05
6.61222e-05
6.61224e-05
6.61227e-05
6.6123e-05
6.61233e-05
6.61235e-05
6.61238e-05
6.61242e-05
6.61245e-05
6.61248e-05
6.61251e-05
6.61254e-05
6.61257e-05
6.61261e-05
6.61264e-05
6.61267e-05
6.6127e-05
6.61274e-05
6.61277e-05
6.6128e-05
6.61284e-05
6.61287e-05
6.6129e-05
6.61293e-05
6.61297e-05
6.613e-05
6.61303e-05
6.61306e-05
6.61309e-05
6.61313e-05
6.61316e-05
6.61319e-05
6.61322e-05
6.61325e-05
6.61328e-05
6.61331e-05
6.61334e-05
6.61337e-05
6.6134e-05
6.61343e-05
6.61346e-05
6.61349e-05
6.61352e-05
6.61353e-05
6.61352e-05
6.61349e-05
6.61345e-05
6.6134e-05
6.61336e-05
6.61333e-05
6.61331e-05
6.61329e-05
6.61328e-05
6.61327e-05
6.61327e-05
6.61327e-05
6.61327e-05
6.61329e-05
6.61312e-05
6.66467e-05
6.66426e-05
6.66419e-05
6.66419e-05
6.66421e-05
6.66424e-05
6.66426e-05
6.66429e-05
6.66432e-05
6.66435e-05
6.66438e-05
6.66442e-05
6.66445e-05
6.66449e-05
6.66452e-05
6.66456e-05
6.6646e-05
6.66464e-05
6.66467e-05
6.66471e-05
6.66475e-05
6.66479e-05
6.66483e-05
6.66487e-05
6.66491e-05
6.66495e-05
6.66499e-05
6.66503e-05
6.66507e-05
6.66511e-05
6.66515e-05
6.6652e-05
6.66524e-05
6.66528e-05
6.66532e-05
6.66536e-05
6.66541e-05
6.66545e-05
6.66549e-05
6.66553e-05
6.66557e-05
6.66562e-05
6.66566e-05
6.6657e-05
6.66574e-05
6.66578e-05
6.66581e-05
6.66582e-05
6.66582e-05
6.66582e-05
6.66581e-05
6.6658e-05
6.6658e-05
6.6658e-05
6.6658e-05
6.66581e-05
6.66582e-05
6.66583e-05
6.66585e-05
6.66586e-05
6.66588e-05
6.6659e-05
6.66592e-05
6.66595e-05
6.66597e-05
6.66599e-05
6.66602e-05
6.66604e-05
6.66607e-05
6.66609e-05
6.66612e-05
6.66615e-05
6.66618e-05
6.6662e-05
6.66623e-05
6.66626e-05
6.66629e-05
6.66632e-05
6.66635e-05
6.66637e-05
6.6664e-05
6.66643e-05
6.66646e-05
6.66649e-05
6.66652e-05
6.66655e-05
6.66658e-05
6.6666e-05
6.66663e-05
6.66666e-05
6.66669e-05
6.66672e-05
6.66674e-05
6.66677e-05
6.6668e-05
6.66683e-05
6.66685e-05
6.66688e-05
6.66691e-05
6.66693e-05
6.66696e-05
6.66699e-05
6.66701e-05
6.66704e-05
6.66706e-05
6.66707e-05
6.66707e-05
6.66706e-05
6.66704e-05
6.66701e-05
6.66699e-05
6.66697e-05
6.66696e-05
6.66694e-05
6.66694e-05
6.66693e-05
6.66692e-05
6.66692e-05
6.66693e-05
6.66676e-05
6.72826e-05
6.72785e-05
6.72778e-05
6.72778e-05
6.7278e-05
6.72782e-05
6.72785e-05
6.72787e-05
6.7279e-05
6.72793e-05
6.72796e-05
6.72799e-05
6.72802e-05
6.72805e-05
6.72809e-05
6.72812e-05
6.72816e-05
6.7282e-05
6.72823e-05
6.72827e-05
6.72831e-05
6.72835e-05
6.72839e-05
6.72843e-05
6.72846e-05
6.7285e-05
6.72854e-05
6.72858e-05
6.72862e-05
6.72866e-05
6.7287e-05
6.72874e-05
6.72878e-05
6.72882e-05
6.72886e-05
6.7289e-05
6.72894e-05
6.72898e-05
6.72902e-05
6.72906e-05
6.72911e-05
6.72915e-05
6.72919e-05
6.72923e-05
6.72927e-05
6.7293e-05
6.72934e-05
6.72937e-05
6.72939e-05
6.7294e-05
6.72941e-05
6.72941e-05
6.72942e-05
6.72943e-05
6.72943e-05
6.72944e-05
6.72945e-05
6.72946e-05
6.72948e-05
6.72949e-05
6.72951e-05
6.72952e-05
6.72954e-05
6.72956e-05
6.72958e-05
6.7296e-05
6.72962e-05
6.72964e-05
6.72966e-05
6.72969e-05
6.72971e-05
6.72973e-05
6.72976e-05
6.72978e-05
6.7298e-05
6.72983e-05
6.72985e-05
6.72988e-05
6.7299e-05
6.72993e-05
6.72995e-05
6.72998e-05
6.73e-05
6.73003e-05
6.73005e-05
6.73008e-05
6.7301e-05
6.73013e-05
6.73015e-05
6.73018e-05
6.7302e-05
6.73023e-05
6.73025e-05
6.73027e-05
6.7303e-05
6.73032e-05
6.73035e-05
6.73037e-05
6.7304e-05
6.73042e-05
6.73044e-05
6.73047e-05
6.73049e-05
6.73051e-05
6.73053e-05
6.73055e-05
6.73056e-05
6.73057e-05
6.73056e-05
6.73055e-05
6.73054e-05
6.73053e-05
6.73052e-05
6.73051e-05
6.7305e-05
6.7305e-05
6.73049e-05
6.73049e-05
6.7305e-05
6.73033e-05
6.80117e-05
6.80077e-05
6.8007e-05
6.80071e-05
6.80073e-05
6.80075e-05
6.80077e-05
6.8008e-05
6.80082e-05
6.80085e-05
6.80088e-05
6.80091e-05
6.80094e-05
6.80097e-05
6.80101e-05
6.80104e-05
6.80108e-05
6.80111e-05
6.80115e-05
6.80119e-05
6.80122e-05
6.80126e-05
6.8013e-05
6.80134e-05
6.80137e-05
6.80141e-05
6.80145e-05
6.80149e-05
6.80152e-05
6.80156e-05
6.8016e-05
6.80164e-05
6.80168e-05
6.80172e-05
6.80176e-05
6.8018e-05
6.80184e-05
6.80188e-05
6.80192e-05
6.80196e-05
6.802e-05
6.80204e-05
6.80208e-05
6.80212e-05
6.80215e-05
6.80219e-05
6.80223e-05
6.80226e-05
6.80229e-05
6.80231e-05
6.80233e-05
6.80235e-05
6.80236e-05
6.80237e-05
6.80239e-05
6.8024e-05
6.80241e-05
6.80242e-05
6.80244e-05
6.80245e-05
6.80246e-05
6.80248e-05
6.8025e-05
6.80251e-05
6.80253e-05
6.80255e-05
6.80256e-05
6.80258e-05
6.8026e-05
6.80262e-05
6.80264e-05
6.80266e-05
6.80268e-05
6.8027e-05
6.80272e-05
6.80274e-05
6.80276e-05
6.80279e-05
6.80281e-05
6.80283e-05
6.80285e-05
6.80287e-05
6.80289e-05
6.80292e-05
6.80294e-05
6.80296e-05
6.80298e-05
6.803e-05
6.80302e-05
6.80304e-05
6.80307e-05
6.80309e-05
6.80311e-05
6.80313e-05
6.80315e-05
6.80317e-05
6.80319e-05
6.80322e-05
6.80324e-05
6.80326e-05
6.80328e-05
6.8033e-05
6.80332e-05
6.80334e-05
6.80336e-05
6.80338e-05
6.80339e-05
6.8034e-05
6.80341e-05
6.80341e-05
6.80341e-05
6.80341e-05
6.8034e-05
6.8034e-05
6.80339e-05
6.80339e-05
6.80339e-05
6.80338e-05
6.80339e-05
6.80323e-05
6.88287e-05
6.88247e-05
6.88241e-05
6.88241e-05
6.88244e-05
6.88246e-05
6.88249e-05
6.88251e-05
6.88254e-05
6.88257e-05
6.88259e-05
6.88263e-05
6.88266e-05
6.88269e-05
6.88272e-05
6.88276e-05
6.88279e-05
6.88283e-05
6.88287e-05
6.8829e-05
6.88294e-05
6.88298e-05
6.88301e-05
6.88305e-05
6.88309e-05
6.88312e-05
6.88316e-05
6.8832e-05
6.88324e-05
6.88327e-05
6.88331e-05
6.88335e-05
6.88339e-05
6.88343e-05
6.88347e-05
6.88351e-05
6.88355e-05
6.88358e-05
6.88362e-05
6.88366e-05
6.8837e-05
6.88374e-05
6.88377e-05
6.88381e-05
6.88385e-05
6.88388e-05
6.88392e-05
6.88395e-05
6.88399e-05
6.88401e-05
6.88404e-05
6.88406e-05
6.88408e-05
6.8841e-05
6.88412e-05
6.88413e-05
6.88415e-05
6.88416e-05
6.88418e-05
6.88419e-05
6.8842e-05
6.88422e-05
6.88423e-05
6.88425e-05
6.88426e-05
6.88428e-05
6.8843e-05
6.88431e-05
6.88433e-05
6.88435e-05
6.88436e-05
6.88438e-05
6.8844e-05
6.88442e-05
6.88443e-05
6.88445e-05
6.88447e-05
6.88449e-05
6.88451e-05
6.88452e-05
6.88454e-05
6.88456e-05
6.88458e-05
6.8846e-05
6.88462e-05
6.88464e-05
6.88465e-05
6.88467e-05
6.88469e-05
6.88471e-05
6.88473e-05
6.88475e-05
6.88477e-05
6.88478e-05
6.8848e-05
6.88482e-05
6.88484e-05
6.88486e-05
6.88488e-05
6.88489e-05
6.88491e-05
6.88493e-05
6.88495e-05
6.88497e-05
6.88498e-05
6.885e-05
6.88502e-05
6.88503e-05
6.88504e-05
6.88505e-05
6.88505e-05
6.88506e-05
6.88506e-05
6.88506e-05
6.88506e-05
6.88506e-05
6.88505e-05
6.88505e-05
6.88506e-05
6.88491e-05
6.97285e-05
6.97245e-05
6.97239e-05
6.9724e-05
6.97242e-05
6.97245e-05
6.97248e-05
6.9725e-05
6.97253e-05
6.97256e-05
6.97259e-05
6.97262e-05
6.97266e-05
6.97269e-05
6.97273e-05
6.97276e-05
6.9728e-05
6.97283e-05
6.97287e-05
6.97291e-05
6.97294e-05
6.97298e-05
6.97302e-05
6.97305e-05
6.97309e-05
6.97313e-05
6.97317e-05
6.9732e-05
6.97324e-05
6.97328e-05
6.97332e-05
6.97335e-05
6.97339e-05
6.97343e-05
6.97347e-05
6.97351e-05
6.97355e-05
6.97358e-05
6.97362e-05
6.97366e-05
6.97369e-05
6.97373e-05
6.97377e-05
6.9738e-05
6.97384e-05
6.97387e-05
6.97391e-05
6.97394e-05
6.97397e-05
6.974e-05
6.97403e-05
6.97405e-05
6.97408e-05
6.9741e-05
6.97412e-05
6.97414e-05
6.97415e-05
6.97417e-05
6.97419e-05
6.9742e-05
6.97422e-05
6.97423e-05
6.97425e-05
6.97426e-05
6.97427e-05
6.97429e-05
6.9743e-05
6.97432e-05
6.97433e-05
6.97435e-05
6.97436e-05
6.97438e-05
6.97439e-05
6.97441e-05
6.97442e-05
6.97444e-05
6.97445e-05
6.97447e-05
6.97449e-05
6.9745e-05
6.97452e-05
6.97453e-05
6.97455e-05
6.97457e-05
6.97458e-05
6.9746e-05
6.97461e-05
6.97463e-05
6.97464e-05
6.97466e-05
6.97468e-05
6.97469e-05
6.97471e-05
6.97472e-05
6.97474e-05
6.97476e-05
6.97477e-05
6.97479e-05
6.9748e-05
6.97482e-05
6.97483e-05
6.97485e-05
6.97487e-05
6.97488e-05
6.9749e-05
6.97491e-05
6.97493e-05
6.97494e-05
6.97495e-05
6.97496e-05
6.97497e-05
6.97498e-05
6.97498e-05
6.97499e-05
6.97499e-05
6.97499e-05
6.97499e-05
6.97499e-05
6.97501e-05
6.97486e-05
7.07062e-05
7.07023e-05
7.07018e-05
7.07019e-05
7.07022e-05
7.07025e-05
7.07027e-05
7.0703e-05
7.07034e-05
7.07037e-05
7.0704e-05
7.07044e-05
7.07047e-05
7.07051e-05
7.07054e-05
7.07058e-05
7.07062e-05
7.07065e-05
7.07069e-05
7.07073e-05
7.07077e-05
7.0708e-05
7.07084e-05
7.07088e-05
7.07092e-05
7.07095e-05
7.07099e-05
7.07103e-05
7.07106e-05
7.0711e-05
7.07114e-05
7.07118e-05
7.07121e-05
7.07125e-05
7.07129e-05
7.07133e-05
7.07136e-05
7.0714e-05
7.07144e-05
7.07147e-05
7.07151e-05
7.07154e-05
7.07158e-05
7.07161e-05
7.07164e-05
7.07168e-05
7.07171e-05
7.07174e-05
7.07177e-05
7.0718e-05
7.07183e-05
7.07186e-05
7.07188e-05
7.0719e-05
7.07192e-05
7.07194e-05
7.07196e-05
7.07198e-05
7.072e-05
7.07201e-05
7.07203e-05
7.07204e-05
7.07206e-05
7.07207e-05
7.07209e-05
7.0721e-05
7.07211e-05
7.07213e-05
7.07214e-05
7.07215e-05
7.07217e-05
7.07218e-05
7.07219e-05
7.07221e-05
7.07222e-05
7.07223e-05
7.07225e-05
7.07226e-05
7.07227e-05
7.07229e-05
7.0723e-05
7.07231e-05
7.07233e-05
7.07234e-05
7.07235e-05
7.07237e-05
7.07238e-05
7.07239e-05
7.07241e-05
7.07242e-05
7.07244e-05
7.07245e-05
7.07246e-05
7.07248e-05
7.07249e-05
7.0725e-05
7.07252e-05
7.07253e-05
7.07254e-05
7.07256e-05
7.07257e-05
7.07259e-05
7.0726e-05
7.07261e-05
7.07263e-05
7.07264e-05
7.07265e-05
7.07267e-05
7.07268e-05
7.07269e-05
7.0727e-05
7.07271e-05
7.07271e-05
7.07272e-05
7.07273e-05
7.07273e-05
7.07273e-05
7.07274e-05
7.07275e-05
7.07261e-05
7.17577e-05
7.17539e-05
7.17534e-05
7.17535e-05
7.17539e-05
7.17542e-05
7.17545e-05
7.17548e-05
7.17552e-05
7.17555e-05
7.17559e-05
7.17562e-05
7.17566e-05
7.1757e-05
7.17574e-05
7.17578e-05
7.17582e-05
7.17585e-05
7.17589e-05
7.17593e-05
7.17597e-05
7.17601e-05
7.17605e-05
7.17608e-05
7.17612e-05
7.17616e-05
7.1762e-05
7.17623e-05
7.17627e-05
7.17631e-05
7.17635e-05
7.17638e-05
7.17642e-05
7.17646e-05
7.17649e-05
7.17653e-05
7.17657e-05
7.1766e-05
7.17664e-05
7.17667e-05
7.1767e-05
7.17674e-05
7.17677e-05
7.1768e-05
7.17683e-05
7.17686e-05
7.17689e-05
7.17692e-05
7.17695e-05
7.17698e-05
7.177e-05
7.17703e-05
7.17706e-05
7.17708e-05
7.1771e-05
7.17712e-05
7.17714e-05
7.17716e-05
7.17717e-05
7.17719e-05
7.17721e-05
7.17722e-05
7.17724e-05
7.17725e-05
7.17726e-05
7.17728e-05
7.17729e-05
7.1773e-05
7.17731e-05
7.17733e-05
7.17734e-05
7.17735e-05
7.17736e-05
7.17737e-05
7.17738e-05
7.1774e-05
7.17741e-05
7.17742e-05
7.17743e-05
7.17744e-05
7.17745e-05
7.17747e-05
7.17748e-05
7.17749e-05
7.1775e-05
7.17751e-05
7.17752e-05
7.17754e-05
7.17755e-05
7.17756e-05
7.17757e-05
7.17758e-05
7.17759e-05
7.1776e-05
7.17762e-05
7.17763e-05
7.17764e-05
7.17765e-05
7.17766e-05
7.17768e-05
7.17769e-05
7.1777e-05
7.17771e-05
7.17772e-05
7.17774e-05
7.17775e-05
7.17776e-05
7.17777e-05
7.17778e-05
7.17779e-05
7.1778e-05
7.17781e-05
7.17782e-05
7.17783e-05
7.17784e-05
7.17784e-05
7.17785e-05
7.17785e-05
7.17787e-05
7.17774e-05
7.2879e-05
7.28753e-05
7.28748e-05
7.2875e-05
7.28753e-05
7.28757e-05
7.2876e-05
7.28764e-05
7.28768e-05
7.28772e-05
7.28775e-05
7.28779e-05
7.28783e-05
7.28787e-05
7.28791e-05
7.28796e-05
7.288e-05
7.28804e-05
7.28808e-05
7.28812e-05
7.28816e-05
7.28819e-05
7.28823e-05
7.28827e-05
7.28831e-05
7.28835e-05
7.28838e-05
7.28842e-05
7.28846e-05
7.28849e-05
7.28853e-05
7.28857e-05
7.28861e-05
7.28864e-05
7.28868e-05
7.28871e-05
7.28875e-05
7.28878e-05
7.28881e-05
7.28884e-05
7.28888e-05
7.28891e-05
7.28894e-05
7.28897e-05
7.28899e-05
7.28902e-05
7.28905e-05
7.28908e-05
7.2891e-05
7.28913e-05
7.28916e-05
7.28918e-05
7.2892e-05
7.28923e-05
7.28925e-05
7.28927e-05
7.28929e-05
7.2893e-05
7.28932e-05
7.28934e-05
7.28935e-05
7.28937e-05
7.28938e-05
7.28939e-05
7.28941e-05
7.28942e-05
7.28943e-05
7.28944e-05
7.28946e-05
7.28947e-05
7.28948e-05
7.28949e-05
7.2895e-05
7.28951e-05
7.28952e-05
7.28953e-05
7.28954e-05
7.28955e-05
7.28956e-05
7.28957e-05
7.28958e-05
7.28959e-05
7.2896e-05
7.28961e-05
7.28962e-05
7.28963e-05
7.28964e-05
7.28965e-05
7.28966e-05
7.28967e-05
7.28968e-05
7.28969e-05
7.2897e-05
7.28971e-05
7.28972e-05
7.28973e-05
7.28974e-05
7.28975e-05
7.28976e-05
7.28977e-05
7.28978e-05
7.28979e-05
7.2898e-05
7.28981e-05
7.28982e-05
7.28984e-05
7.28985e-05
7.28986e-05
7.28987e-05
7.28988e-05
7.28989e-05
7.2899e-05
7.28991e-05
7.28992e-05
7.28993e-05
7.28993e-05
7.28994e-05
7.28995e-05
7.28997e-05
7.28985e-05
7.40665e-05
7.40628e-05
7.40623e-05
7.40626e-05
7.4063e-05
7.40633e-05
7.40637e-05
7.40641e-05
7.40645e-05
7.40649e-05
7.40654e-05
7.40658e-05
7.40662e-05
7.40666e-05
7.40671e-05
7.40675e-05
7.40679e-05
7.40683e-05
7.40687e-05
7.40691e-05
7.40695e-05
7.40699e-05
7.40703e-05
7.40707e-05
7.40711e-05
7.40715e-05
7.40718e-05
7.40722e-05
7.40726e-05
7.40729e-05
7.40733e-05
7.40737e-05
7.4074e-05
7.40744e-05
7.40747e-05
7.4075e-05
7.40754e-05
7.40757e-05
7.4076e-05
7.40763e-05
7.40766e-05
7.40769e-05
7.40771e-05
7.40774e-05
7.40777e-05
7.40779e-05
7.40782e-05
7.40784e-05
7.40787e-05
7.40789e-05
7.40791e-05
7.40794e-05
7.40796e-05
7.40798e-05
7.408e-05
7.40802e-05
7.40804e-05
7.40805e-05
7.40807e-05
7.40808e-05
7.4081e-05
7.40811e-05
7.40813e-05
7.40814e-05
7.40815e-05
7.40816e-05
7.40818e-05
7.40819e-05
7.4082e-05
7.40821e-05
7.40822e-05
7.40823e-05
7.40824e-05
7.40825e-05
7.40826e-05
7.40827e-05
7.40828e-05
7.40829e-05
7.4083e-05
7.4083e-05
7.40831e-05
7.40832e-05
7.40833e-05
7.40834e-05
7.40835e-05
7.40836e-05
7.40837e-05
7.40837e-05
7.40838e-05
7.40839e-05
7.4084e-05
7.40841e-05
7.40842e-05
7.40843e-05
7.40844e-05
7.40845e-05
7.40845e-05
7.40846e-05
7.40847e-05
7.40848e-05
7.40849e-05
7.4085e-05
7.40851e-05
7.40852e-05
7.40853e-05
7.40854e-05
7.40855e-05
7.40856e-05
7.40857e-05
7.40858e-05
7.40859e-05
7.4086e-05
7.40861e-05
7.40862e-05
7.40863e-05
7.40864e-05
7.40865e-05
7.40866e-05
7.40868e-05
7.40857e-05
7.53167e-05
7.53131e-05
7.53127e-05
7.5313e-05
7.53134e-05
7.53138e-05
7.53142e-05
7.53146e-05
7.53151e-05
7.53155e-05
7.53159e-05
7.53164e-05
7.53168e-05
7.53173e-05
7.53177e-05
7.53182e-05
7.53186e-05
7.5319e-05
7.53195e-05
7.53199e-05
7.53203e-05
7.53207e-05
7.53211e-05
7.53214e-05
7.53218e-05
7.53222e-05
7.53226e-05
7.53229e-05
7.53233e-05
7.53236e-05
7.5324e-05
7.53243e-05
7.53247e-05
7.5325e-05
7.53253e-05
7.53257e-05
7.5326e-05
7.53263e-05
7.53265e-05
7.53268e-05
7.53271e-05
7.53273e-05
7.53276e-05
7.53278e-05
7.53281e-05
7.53283e-05
7.53285e-05
7.53287e-05
7.5329e-05
7.53292e-05
7.53294e-05
7.53296e-05
7.53298e-05
7.533e-05
7.53302e-05
7.53303e-05
7.53305e-05
7.53307e-05
7.53308e-05
7.5331e-05
7.53311e-05
7.53313e-05
7.53314e-05
7.53315e-05
7.53316e-05
7.53317e-05
7.53319e-05
7.5332e-05
7.53321e-05
7.53322e-05
7.53323e-05
7.53324e-05
7.53325e-05
7.53326e-05
7.53326e-05
7.53327e-05
7.53328e-05
7.53329e-05
7.5333e-05
7.53331e-05
7.53331e-05
7.53332e-05
7.53333e-05
7.53334e-05
7.53335e-05
7.53336e-05
7.53336e-05
7.53337e-05
7.53338e-05
7.53339e-05
7.5334e-05
7.5334e-05
7.53341e-05
7.53342e-05
7.53343e-05
7.53344e-05
7.53344e-05
7.53345e-05
7.53346e-05
7.53347e-05
7.53348e-05
7.53349e-05
7.53349e-05
7.5335e-05
7.53351e-05
7.53352e-05
7.53353e-05
7.53354e-05
7.53355e-05
7.53356e-05
7.53357e-05
7.53358e-05
7.53359e-05
7.5336e-05
7.53361e-05
7.53362e-05
7.53363e-05
7.53364e-05
7.53367e-05
7.53357e-05
7.66267e-05
7.66231e-05
7.66227e-05
7.6623e-05
7.66235e-05
7.66239e-05
7.66244e-05
7.66248e-05
7.66253e-05
7.66257e-05
7.66262e-05
7.66267e-05
7.66271e-05
7.66276e-05
7.66281e-05
7.66285e-05
7.6629e-05
7.66294e-05
7.66298e-05
7.66302e-05
7.66307e-05
7.6631e-05
7.66314e-05
7.66318e-05
7.66322e-05
7.66325e-05
7.66329e-05
7.66332e-05
7.66336e-05
7.66339e-05
7.66343e-05
7.66346e-05
7.66349e-05
7.66353e-05
7.66356e-05
7.66358e-05
7.66361e-05
7.66364e-05
7.66366e-05
7.66369e-05
7.66371e-05
7.66374e-05
7.66376e-05
7.66378e-05
7.6638e-05
7.66382e-05
7.66384e-05
7.66386e-05
7.66388e-05
7.6639e-05
7.66392e-05
7.66394e-05
7.66396e-05
7.66397e-05
7.66399e-05
7.66401e-05
7.66402e-05
7.66404e-05
7.66405e-05
7.66407e-05
7.66408e-05
7.66409e-05
7.66411e-05
7.66412e-05
7.66413e-05
7.66414e-05
7.66415e-05
7.66416e-05
7.66417e-05
7.66418e-05
7.66419e-05
7.6642e-05
7.66421e-05
7.66422e-05
7.66423e-05
7.66424e-05
7.66425e-05
7.66425e-05
7.66426e-05
7.66427e-05
7.66428e-05
7.66429e-05
7.66429e-05
7.6643e-05
7.66431e-05
7.66432e-05
7.66432e-05
7.66433e-05
7.66434e-05
7.66435e-05
7.66435e-05
7.66436e-05
7.66437e-05
7.66438e-05
7.66438e-05
7.66439e-05
7.6644e-05
7.66441e-05
7.66442e-05
7.66442e-05
7.66443e-05
7.66444e-05
7.66445e-05
7.66446e-05
7.66447e-05
7.66447e-05
7.66448e-05
7.66449e-05
7.6645e-05
7.66451e-05
7.66452e-05
7.66453e-05
7.66454e-05
7.66455e-05
7.66457e-05
7.66458e-05
7.66459e-05
7.66461e-05
7.66463e-05
7.66455e-05
7.79935e-05
7.799e-05
7.79897e-05
7.799e-05
7.79905e-05
7.79909e-05
7.79914e-05
7.79919e-05
7.79923e-05
7.79928e-05
7.79933e-05
7.79938e-05
7.79943e-05
7.79947e-05
7.79952e-05
7.79957e-05
7.79961e-05
7.79965e-05
7.7997e-05
7.79974e-05
7.79978e-05
7.79982e-05
7.79985e-05
7.79989e-05
7.79993e-05
7.79996e-05
7.8e-05
7.80003e-05
7.80006e-05
7.8001e-05
7.80013e-05
7.80016e-05
7.80019e-05
7.80022e-05
7.80025e-05
7.80027e-05
7.8003e-05
7.80032e-05
7.80034e-05
7.80036e-05
7.80039e-05
7.80041e-05
7.80043e-05
7.80044e-05
7.80046e-05
7.80048e-05
7.8005e-05
7.80052e-05
7.80054e-05
7.80055e-05
7.80057e-05
7.80059e-05
7.8006e-05
7.80062e-05
7.80064e-05
7.80065e-05
7.80067e-05
7.80068e-05
7.80069e-05
7.80071e-05
7.80072e-05
7.80073e-05
7.80075e-05
7.80076e-05
7.80077e-05
7.80078e-05
7.80079e-05
7.8008e-05
7.80081e-05
7.80082e-05
7.80083e-05
7.80084e-05
7.80085e-05
7.80086e-05
7.80087e-05
7.80088e-05
7.80089e-05
7.8009e-05
7.8009e-05
7.80091e-05
7.80092e-05
7.80093e-05
7.80094e-05
7.80094e-05
7.80095e-05
7.80096e-05
7.80097e-05
7.80097e-05
7.80098e-05
7.80099e-05
7.801e-05
7.801e-05
7.80101e-05
7.80102e-05
7.80103e-05
7.80103e-05
7.80104e-05
7.80105e-05
7.80106e-05
7.80106e-05
7.80107e-05
7.80108e-05
7.80109e-05
7.8011e-05
7.80111e-05
7.80111e-05
7.80112e-05
7.80113e-05
7.80114e-05
7.80115e-05
7.80116e-05
7.80117e-05
7.80119e-05
7.8012e-05
7.80121e-05
7.80123e-05
7.80124e-05
7.80126e-05
7.80128e-05
7.80121e-05
7.94146e-05
7.94111e-05
7.94108e-05
7.94112e-05
7.94117e-05
7.94122e-05
7.94126e-05
7.94131e-05
7.94136e-05
7.94141e-05
7.94146e-05
7.94151e-05
7.94155e-05
7.9416e-05
7.94165e-05
7.94169e-05
7.94174e-05
7.94178e-05
7.94182e-05
7.94186e-05
7.9419e-05
7.94194e-05
7.94197e-05
7.94201e-05
7.94204e-05
7.94208e-05
7.94211e-05
7.94214e-05
7.94217e-05
7.9422e-05
7.94223e-05
7.94226e-05
7.94229e-05
7.94231e-05
7.94234e-05
7.94236e-05
7.94238e-05
7.9424e-05
7.94242e-05
7.94244e-05
7.94246e-05
7.94248e-05
7.9425e-05
7.94251e-05
7.94253e-05
7.94255e-05
7.94256e-05
7.94258e-05
7.9426e-05
7.94261e-05
7.94263e-05
7.94265e-05
7.94266e-05
7.94268e-05
7.94269e-05
7.9427e-05
7.94272e-05
7.94273e-05
7.94275e-05
7.94276e-05
7.94277e-05
7.94279e-05
7.9428e-05
7.94281e-05
7.94282e-05
7.94284e-05
7.94285e-05
7.94286e-05
7.94287e-05
7.94288e-05
7.94289e-05
7.9429e-05
7.94291e-05
7.94292e-05
7.94293e-05
7.94294e-05
7.94294e-05
7.94295e-05
7.94296e-05
7.94297e-05
7.94298e-05
7.94299e-05
7.94299e-05
7.943e-05
7.94301e-05
7.94302e-05
7.94303e-05
7.94303e-05
7.94304e-05
7.94305e-05
7.94306e-05
7.94306e-05
7.94307e-05
7.94308e-05
7.94309e-05
7.9431e-05
7.9431e-05
7.94311e-05
7.94312e-05
7.94313e-05
7.94314e-05
7.94314e-05
7.94315e-05
7.94316e-05
7.94317e-05
7.94318e-05
7.94319e-05
7.9432e-05
7.94321e-05
7.94322e-05
7.94323e-05
7.94324e-05
7.94326e-05
7.94327e-05
7.94329e-05
7.9433e-05
7.94332e-05
7.94333e-05
7.94336e-05
7.9433e-05
8.08875e-05
8.08841e-05
8.08838e-05
8.08842e-05
8.08846e-05
8.08851e-05
8.08856e-05
8.08861e-05
8.08866e-05
8.0887e-05
8.08875e-05
8.0888e-05
8.08885e-05
8.08889e-05
8.08894e-05
8.08898e-05
8.08903e-05
8.08907e-05
8.08911e-05
8.08915e-05
8.08918e-05
8.08922e-05
8.08925e-05
8.08928e-05
8.08932e-05
8.08935e-05
8.08938e-05
8.08941e-05
8.08943e-05
8.08946e-05
8.08949e-05
8.08951e-05
8.08954e-05
8.08956e-05
8.08958e-05
8.0896e-05
8.08962e-05
8.08964e-05
8.08966e-05
8.08968e-05
8.08969e-05
8.08971e-05
8.08973e-05
8.08974e-05
8.08976e-05
8.08977e-05
8.08979e-05
8.0898e-05
8.08982e-05
8.08984e-05
8.08985e-05
8.08987e-05
8.08988e-05
8.0899e-05
8.08991e-05
8.08992e-05
8.08994e-05
8.08995e-05
8.08997e-05
8.08998e-05
8.08999e-05
8.09001e-05
8.09002e-05
8.09003e-05
8.09005e-05
8.09006e-05
8.09007e-05
8.09008e-05
8.09009e-05
8.0901e-05
8.09011e-05
8.09013e-05
8.09014e-05
8.09015e-05
8.09016e-05
8.09017e-05
8.09017e-05
8.09018e-05
8.09019e-05
8.0902e-05
8.09021e-05
8.09022e-05
8.09023e-05
8.09024e-05
8.09025e-05
8.09025e-05
8.09026e-05
8.09027e-05
8.09028e-05
8.09029e-05
8.0903e-05
8.0903e-05
8.09031e-05
8.09032e-05
8.09033e-05
8.09034e-05
8.09035e-05
8.09035e-05
8.09036e-05
8.09037e-05
8.09038e-05
8.09039e-05
8.0904e-05
8.09041e-05
8.09042e-05
8.09042e-05
8.09043e-05
8.09045e-05
8.09046e-05
8.09047e-05
8.09048e-05
8.0905e-05
8.09051e-05
8.09053e-05
8.09054e-05
8.09056e-05
8.09058e-05
8.09059e-05
8.09062e-05
8.09057e-05
8.24099e-05
8.24065e-05
8.24062e-05
8.24066e-05
8.2407e-05
8.24075e-05
8.2408e-05
8.24084e-05
8.24089e-05
8.24094e-05
8.24098e-05
8.24103e-05
8.24108e-05
8.24112e-05
8.24116e-05
8.24121e-05
8.24125e-05
8.24129e-05
8.24132e-05
8.24136e-05
8.24139e-05
8.24142e-05
8.24145e-05
8.24148e-05
8.24151e-05
8.24154e-05
8.24157e-05
8.2416e-05
8.24162e-05
8.24165e-05
8.24167e-05
8.24169e-05
8.24171e-05
8.24173e-05
8.24175e-05
8.24177e-05
8.24179e-05
8.2418e-05
8.24182e-05
8.24184e-05
8.24185e-05
8.24187e-05
8.24188e-05
8.2419e-05
8.24191e-05
8.24193e-05
8.24194e-05
8.24196e-05
8.24198e-05
8.24199e-05
8.24201e-05
8.24202e-05
8.24204e-05
8.24205e-05
8.24207e-05
8.24208e-05
8.2421e-05
8.24211e-05
8.24213e-05
8.24214e-05
8.24216e-05
8.24217e-05
8.24218e-05
8.2422e-05
8.24221e-05
8.24222e-05
8.24224e-05
8.24225e-05
8.24226e-05
8.24227e-05
8.24229e-05
8.2423e-05
8.24231e-05
8.24232e-05
8.24233e-05
8.24234e-05
8.24235e-05
8.24236e-05
8.24237e-05
8.24238e-05
8.24239e-05
8.2424e-05
8.24241e-05
8.24242e-05
8.24243e-05
8.24244e-05
8.24245e-05
8.24246e-05
8.24247e-05
8.24248e-05
8.24249e-05
8.2425e-05
8.2425e-05
8.24251e-05
8.24252e-05
8.24253e-05
8.24254e-05
8.24255e-05
8.24256e-05
8.24257e-05
8.24258e-05
8.24259e-05
8.2426e-05
8.24261e-05
8.24262e-05
8.24263e-05
8.24264e-05
8.24265e-05
8.24266e-05
8.24267e-05
8.24269e-05
8.24271e-05
8.24272e-05
8.24274e-05
8.24276e-05
8.24277e-05
8.24279e-05
8.24281e-05
8.24283e-05
8.24279e-05
8.39795e-05
8.39761e-05
8.39758e-05
8.39762e-05
8.39766e-05
8.39771e-05
8.39775e-05
8.3978e-05
8.39784e-05
8.39788e-05
8.39793e-05
8.39797e-05
8.39801e-05
8.39806e-05
8.3981e-05
8.39814e-05
8.39817e-05
8.39821e-05
8.39824e-05
8.39828e-05
8.39831e-05
8.39833e-05
8.39836e-05
8.39839e-05
8.39841e-05
8.39844e-05
8.39846e-05
8.39849e-05
8.39851e-05
8.39853e-05
8.39855e-05
8.39857e-05
8.39859e-05
8.39861e-05
8.39862e-05
8.39864e-05
8.39866e-05
8.39867e-05
8.39869e-05
8.3987e-05
8.39872e-05
8.39874e-05
8.39875e-05
8.39877e-05
8.39878e-05
8.3988e-05
8.39882e-05
8.39883e-05
8.39885e-05
8.39887e-05
8.39888e-05
8.3989e-05
8.39892e-05
8.39893e-05
8.39895e-05
8.39897e-05
8.39898e-05
8.399e-05
8.39901e-05
8.39903e-05
8.39905e-05
8.39906e-05
8.39908e-05
8.39909e-05
8.39911e-05
8.39912e-05
8.39914e-05
8.39915e-05
8.39916e-05
8.39918e-05
8.39919e-05
8.3992e-05
8.39921e-05
8.39923e-05
8.39924e-05
8.39925e-05
8.39926e-05
8.39927e-05
8.39929e-05
8.3993e-05
8.39931e-05
8.39932e-05
8.39933e-05
8.39934e-05
8.39935e-05
8.39936e-05
8.39937e-05
8.39938e-05
8.39939e-05
8.3994e-05
8.39941e-05
8.39942e-05
8.39943e-05
8.39944e-05
8.39945e-05
8.39946e-05
8.39947e-05
8.39948e-05
8.39949e-05
8.3995e-05
8.39951e-05
8.39952e-05
8.39953e-05
8.39954e-05
8.39955e-05
8.39957e-05
8.39958e-05
8.39959e-05
8.3996e-05
8.39962e-05
8.39964e-05
8.39965e-05
8.39967e-05
8.39969e-05
8.3997e-05
8.39972e-05
8.39974e-05
8.39975e-05
8.39977e-05
8.39974e-05
8.55943e-05
8.55909e-05
8.55906e-05
8.55909e-05
8.55913e-05
8.55917e-05
8.55921e-05
8.55925e-05
8.55929e-05
8.55933e-05
8.55937e-05
8.55941e-05
8.55945e-05
8.55949e-05
8.55953e-05
8.55956e-05
8.55959e-05
8.55963e-05
8.55966e-05
8.55968e-05
8.55971e-05
8.55974e-05
8.55976e-05
8.55978e-05
8.5598e-05
8.55983e-05
8.55985e-05
8.55987e-05
8.55989e-05
8.5599e-05
8.55992e-05
8.55994e-05
8.55996e-05
8.55998e-05
8.55999e-05
8.56001e-05
8.56003e-05
8.56004e-05
8.56006e-05
8.56008e-05
8.56009e-05
8.56011e-05
8.56013e-05
8.56015e-05
8.56017e-05
8.56019e-05
8.5602e-05
8.56022e-05
8.56024e-05
8.56026e-05
8.56028e-05
8.5603e-05
8.56032e-05
8.56034e-05
8.56035e-05
8.56037e-05
8.56039e-05
8.56041e-05
8.56043e-05
8.56044e-05
8.56046e-05
8.56048e-05
8.56049e-05
8.56051e-05
8.56053e-05
8.56054e-05