/*--------------------------------*- C++ -*----------------------------------*\
  =========                 |
  \\      /  F ield         | OpenFOAM: The Open Source CFD Toolbox
   \\    /   O peration     | Website:  https://openfoam.org
    \\  /    A nd           | Version:  7
     \\/     M anipulation  |
\*---------------------------------------------------------------------------*/
FoamFile
{
    version     2.0;
    format      ascii;
    class       surfaceScalarField;
    location    "17000";
    object      phi;
}
// * * * * * * * * * * * * * * * * * * * * * * * * * * * * * * * * * * * * * //

dimensions      [0 3 -1 0 0 0 0];

internalField   nonuniform List<scalar> 
7768
(
0.000358118
-4.51986e-10
0.000358118
-6.14633e-10
0.000358118
-5.18217e-10
0.000358118
-3.70002e-10
0.000358118
-2.34819e-10
0.000358119
-1.22293e-10
0.000358119
-3.00995e-11
0.000358119
4.64912e-11
0.000358119
1.11823e-10
0.000358119
1.68997e-10
0.000358119
2.19988e-10
0.00035812
2.66108e-10
0.00035812
3.0829e-10
0.00035812
3.46978e-10
0.00035812
3.82755e-10
0.00035812
4.15957e-10
0.00035812
4.4942e-10
0.000358121
4.82238e-10
0.000358121
5.32405e-10
0.000358121
5.92464e-10
7.49801e-10
0.000358114
-4.79368e-10
0.000358114
-5.33109e-10
0.000358114
-5.41548e-10
0.000358115
-5.29185e-10
0.000358115
-5.07152e-10
0.000358115
-4.75674e-10
0.000358115
-4.3424e-10
0.000358116
-3.81295e-10
0.000358116
-3.15141e-10
0.000358116
-2.31282e-10
0.000358116
-1.27609e-10
0.000358117
6.34775e-12
0.000358117
1.70827e-10
0.000358117
3.86271e-10
0.000358117
7.55086e-10
3.63663e-10
0.000348976
-6.55263e-10
0.000348976
-8.03843e-10
0.000348977
-7.00776e-10
0.000348977
-5.52651e-10
0.000348977
-4.19229e-10
0.000348977
-3.07982e-10
0.000348977
-2.15986e-10
0.000348977
-1.38419e-10
0.000348978
-7.11026e-11
0.000348978
-1.12343e-11
0.000348978
4.29827e-11
0.000348978
9.28323e-11
0.000348978
1.39214e-10
0.000348979
1.82459e-10
0.000348979
2.23036e-10
0.000348979
2.61194e-10
0.000348979
3.00243e-10
0.000348979
3.38788e-10
0.000348979
3.99747e-10
0.000348979
4.70851e-10
0.000348979
6.67545e-10
0.000348979
8.9764e-10
1.06038e-09
0.000348971
-6.16565e-10
0.000348972
-6.3756e-10
0.000348972
-5.99176e-10
0.000348972
-6.94249e-10
0.000348972
-8.46618e-10
0.000348973
-8.63438e-10
0.000348973
-8.39476e-10
0.000348973
-8.05256e-10
0.000348974
-7.65665e-10
0.000348974
-7.19706e-10
0.000348974
-6.66307e-10
0.000348974
-6.03565e-10
0.000348975
-5.29666e-10
0.000348975
-4.40023e-10
0.000348975
-3.32686e-10
0.000348975
-1.97086e-10
0.000348975
-3.35696e-11
0.000348976
1.75653e-10
0.000348976
5.40664e-10
1.5123e-10
0.00034003
-8.43849e-10
0.000340031
-9.88172e-10
0.000340031
-8.80785e-10
0.000340031
-7.31193e-10
0.000340031
-5.9815e-10
0.000340031
-4.8766e-10
0.000340032
-3.95861e-10
0.000340032
-3.17546e-10
0.000340032
-2.48544e-10
0.000340032
-1.86249e-10
0.000340032
-1.29015e-10
0.000340032
-7.56293e-11
0.000340033
-2.52909e-11
0.000340033
2.2241e-11
0.000340033
6.73766e-11
0.000340033
1.10272e-10
0.000340033
1.54431e-10
0.000340033
1.98453e-10
0.000340034
2.65012e-10
0.000340034
3.47303e-10
0.000340034
4.93742e-10
0.000340034
7.21178e-10
0.000340034
1.01868e-09
0.000340034
1.24319e-09
0.000340034
1.26081e-09
0.000340033
1.20163e-09
0.000340033
1.14201e-09
0.000340033
1.09261e-09
0.000340033
1.05166e-09
0.000340033
1.01636e-09
0.000340032
9.84931e-10
0.000340032
9.56086e-10
0.000340032
9.28997e-10
0.000340032
9.03435e-10
0.000340032
8.79341e-10
0.000340032
8.56362e-10
0.000340032
8.34161e-10
0.000340031
8.12941e-10
0.000340031
7.93093e-10
0.000340031
7.7457e-10
0.000340031
7.56986e-10
0.000340031
7.40007e-10
0.000340031
7.23504e-10
0.000340031
7.07335e-10
0.000340031
6.91119e-10
0.000340031
6.74486e-10
0.000340031
6.57235e-10
0.00034003
6.3915e-10
0.00034003
6.19926e-10
0.00034003
5.99349e-10
0.00034003
5.77395e-10
0.00034003
5.53859e-10
0.00034003
5.28355e-10
0.00034003
5.0104e-10
0.00034003
4.72543e-10
0.00034003
4.43098e-10
0.00034003
4.12352e-10
0.00034003
3.80144e-10
0.00034003
3.46978e-10
0.000340029
3.13347e-10
0.000340029
2.79174e-10
0.000340029
2.443e-10
0.000340029
2.08991e-10
0.000340029
1.73616e-10
0.000340029
1.38344e-10
0.000340029
1.03194e-10
0.000340029
6.8024e-11
0.000340029
3.26059e-11
0.000340029
-2.95586e-12
0.000340029
-3.81416e-11
0.000340029
-7.2644e-11
0.000340029
-1.06706e-10
0.000340028
-1.40618e-10
0.000340028
-1.74264e-10
0.000340028
-2.07418e-10
0.000340028
-2.40111e-10
0.000340028
-2.72376e-10
0.000340028
-3.04073e-10
0.000340028
-3.35164e-10
0.000340028
-3.65655e-10
0.000340028
-3.95418e-10
0.000340028
-4.24439e-10
0.000340028
-4.52824e-10
0.000340028
-4.80438e-10
0.000340028
-5.06949e-10
0.000340027
-5.32196e-10
0.000340027
-5.56119e-10
0.000340027
-5.78586e-10
0.000340027
-5.99368e-10
0.000340027
-6.18025e-10
0.000340027
-6.34149e-10
0.000340027
-6.4744e-10
0.000340027
-6.57487e-10
0.000340027
-6.63435e-10
0.000340027
-6.64619e-10
0.000340027
-6.5866e-10
0.000340027
-6.44377e-10
0.000340027
-6.16722e-10
0.000340027
-5.62478e-10
0.000340027
-6.48168e-10
0.000340027
-7.89389e-10
0.000340027
-7.97669e-10
0.000340027
-7.52704e-10
0.000340027
-8.47874e-10
0.000340027
-1.01626e-09
0.000340028
-1.05516e-09
0.000340028
-1.04044e-09
0.000340028
-1.00789e-09
0.000340028
-9.66e-10
0.000340028
-9.16083e-10
0.000340029
-8.58214e-10
0.000340029
-7.91204e-10
0.000340029
-7.1377e-10
0.000340029
-6.21663e-10
0.000340029
-5.13398e-10
0.00034003
-3.78605e-10
0.00034003
-2.18267e-10
0.00034003
-1.76722e-11
0.00034003
3.39756e-10
-4.48577e-11
0.000331277
-1.00721e-09
0.000331277
-1.15552e-09
0.000331277
-1.05012e-09
0.000331277
-9.00913e-10
0.000331277
-7.68191e-10
0.000331277
-6.58192e-10
0.000331278
-5.66574e-10
0.000331278
-4.87737e-10
0.000331278
-4.17401e-10
0.000331278
-3.53028e-10
0.000331278
-2.93067e-10
0.000331278
-2.36438e-10
0.000331279
-1.82498e-10
0.000331279
-1.31069e-10
0.000331279
-8.17502e-11
0.000331279
-3.4453e-11
0.000331279
1.42515e-11
0.000331279
6.33845e-11
0.000331279
1.3193e-10
0.00033128
2.23087e-10
0.00033128
3.19292e-10
0.00033128
4.95174e-10
0.00033128
7.77471e-10
0.00033128
1.06672e-09
0.00033128
1.24227e-09
0.00033128
1.28123e-09
0.00033128
1.25886e-09
0.00033128
1.22001e-09
0.00033128
1.1806e-09
0.00033128
1.14406e-09
0.00033128
1.11039e-09
0.00033128
1.07884e-09
0.000331279
1.04897e-09
0.000331279
1.02074e-09
0.000331279
9.94077e-10
0.000331279
9.6854e-10
0.000331279
9.43839e-10
0.000331279
9.20288e-10
0.000331279
8.98196e-10
0.000331279
8.77384e-10
0.000331279
8.57494e-10
0.000331278
8.38259e-10
0.000331278
8.19556e-10
0.000331278
8.01221e-10
0.000331278
7.82895e-10
0.000331278
7.64243e-10
0.000331278
7.45088e-10
0.000331278
7.2525e-10
0.000331278
7.04435e-10
0.000331278
6.82407e-10
0.000331278
6.5911e-10
0.000331278
6.34351e-10
0.000331278
6.07814e-10
0.000331277
5.79652e-10
0.000331277
5.50411e-10
0.000331277
5.20218e-10
0.000331277
4.88728e-10
0.000331277
4.55945e-10
0.000331277
4.22412e-10
0.000331277
3.88451e-10
0.000331277
3.53955e-10
0.000331277
3.18924e-10
0.000331277
2.83565e-10
0.000331277
2.48094e-10
0.000331277
2.12706e-10
0.000331277
1.77479e-10
0.000331276
1.42246e-10
0.000331276
1.06848e-10
0.000331276
7.14962e-11
0.000331276
3.65846e-11
0.000331276
2.21101e-12
0.000331276
-3.18696e-11
0.000331276
-6.57966e-11
0.000331276
-9.93831e-11
0.000331276
-1.32481e-10
0.000331276
-1.65142e-10
0.000331276
-1.9731e-10
0.000331276
-2.28881e-10
0.000331276
-2.59919e-10
0.000331276
-2.90378e-10
0.000331275
-3.20052e-10
0.000331275
-3.48944e-10
0.000331275
-3.77211e-10
0.000331275
-4.04756e-10
0.000331275
-4.31276e-10
0.000331275
-4.56552e-10
0.000331275
-4.80478e-10
0.000331275
-5.0302e-10
0.000331275
-5.23972e-10
0.000331275
-5.42809e-10
0.000331275
-5.59147e-10
0.000331275
-5.72758e-10
0.000331275
-5.83226e-10
0.000331274
-5.89764e-10
0.000331274
-5.91796e-10
0.000331274
-5.87688e-10
0.000331274
-5.75936e-10
0.000331274
-5.57965e-10
0.000331274
-5.18807e-10
0.000331274
-6.20379e-10
0.000331274
-7.92333e-10
0.000331274
-8.38613e-10
0.000331274
-8.23328e-10
0.000331274
-9.13709e-10
0.000331274
-1.07086e-09
0.000331274
-1.1293e-09
0.000331275
-1.13792e-09
0.000331275
-1.12265e-09
0.000331275
-1.0919e-09
0.000331275
-1.04886e-09
0.000331275
-9.95122e-10
0.000331275
-9.3068e-10
0.000331275
-8.55175e-10
0.000331275
-7.65039e-10
0.000331276
-6.59547e-10
0.000331276
-5.28834e-10
0.000331276
-3.74567e-10
0.000331276
-1.85297e-10
0.000331276
1.60729e-10
-2.16779e-10
0.000322711
-1.13999e-09
0.000322711
-1.29733e-09
0.000322711
-1.20063e-09
0.000322711
-1.05598e-09
0.000322711
-9.25331e-10
0.000322711
-8.16448e-10
0.000322712
-7.2534e-10
0.000322712
-6.46341e-10
0.000322712
-5.75105e-10
0.000322712
-5.09079e-10
0.000322712
-4.46775e-10
0.000322712
-3.87297e-10
0.000322712
-3.30198e-10
0.000322713
-2.75336e-10
0.000322713
-2.22295e-10
0.000322713
-1.71027e-10
0.000322713
-1.18373e-10
0.000322713
-6.46556e-11
0.000322713
4.06426e-12
0.000322713
1.00169e-10
0.000322714
1.64458e-10
0.000322714
2.83513e-10
0.000322714
5.00179e-10
0.000322714
7.7015e-10
0.000322715
1.03779e-09
0.000322715
1.18825e-09
0.000322715
1.24194e-09
0.000322715
1.24564e-09
0.000322715
1.22925e-09
0.000322715
1.20594e-09
0.000322714
1.18036e-09
0.000322714
1.15391e-09
0.000322714
1.12731e-09
0.000322714
1.10121e-09
0.000322714
1.0759e-09
0.000322714
1.05115e-09
0.000322714
1.02679e-09
0.000322714
1.00331e-09
0.000322714
9.8105e-10
0.000322714
9.59792e-10
0.000322714
9.39212e-10
0.000322714
9.19155e-10
0.000322713
8.99551e-10
0.000322713
8.80229e-10
0.000322713
8.60872e-10
0.000322713
8.41219e-10
0.000322713
8.21123e-10
0.000322713
8.00411e-10
0.000322713
7.78806e-10
0.000322713
7.56078e-10
0.000322713
7.32124e-10
0.000322713
7.06718e-10
0.000322713
6.79652e-10
0.000322713
6.51165e-10
0.000322713
6.21703e-10
0.000322712
5.91233e-10
0.000322712
5.59421e-10
0.000322712
5.26444e-10
0.000322712
4.9289e-10
0.000322712
4.58927e-10
0.000322712
4.24405e-10
0.000322712
3.89482e-10
0.000322712
3.54375e-10
0.000322712
3.19132e-10
0.000322712
2.83906e-10
0.000322712
2.48841e-10
0.000322712
2.13767e-10
0.000322712
1.7855e-10
0.000322712
1.43519e-10
0.000322711
1.09043e-10
0.000322711
7.50266e-11
0.000322711
4.11468e-11
0.000322711
7.36715e-12
0.000322711
-2.60451e-11
0.000322711
-5.89649e-11
0.000322711
-9.14419e-11
0.000322711
-1.23368e-10
0.000322711
-1.54689e-10
0.000322711
-1.85558e-10
0.000322711
-2.1589e-10
0.000322711
-2.4539e-10
0.000322711
-2.74066e-10
0.000322711
-3.02124e-10
0.00032271
-3.29497e-10
0.00032271
-3.55907e-10
0.00032271
-3.81112e-10
0.00032271
-4.04981e-10
0.00032271
-4.2754e-10
0.00032271
-4.48588e-10
0.00032271
-4.67539e-10
0.00032271
-4.84055e-10
0.00032271
-4.97976e-10
0.00032271
-5.08842e-10
0.00032271
-5.15916e-10
0.00032271
-5.18743e-10
0.00032271
-5.16387e-10
0.000322709
-5.0724e-10
0.000322709
-4.96614e-10
0.000322709
-4.71557e-10
0.000322709
-5.63396e-10
0.000322709
-7.25472e-10
0.000322709
-7.96787e-10
0.000322709
-8.16757e-10
0.000322709
-9.10652e-10
0.000322709
-1.05312e-09
0.000322709
-1.12065e-09
0.000322709
-1.14951e-09
0.000322709
-1.15526e-09
0.000322709
-1.14246e-09
0.000322709
-1.11374e-09
0.000322709
-1.07113e-09
0.00032271
-1.01546e-09
0.00032271
-9.47195e-10
0.00032271
-8.63566e-10
0.00032271
-7.64753e-10
0.00032271
-6.4161e-10
0.00032271
-4.96525e-10
0.00032271
-3.21336e-10
0.00032271
9.48052e-12
-3.60154e-10
0.000314329
-1.24022e-09
0.000314329
-1.4091e-09
0.000314329
-1.32646e-09
0.000314329
-1.19117e-09
0.000314329
-1.06559e-09
0.000314329
-9.59431e-10
0.00031433
-8.69714e-10
0.00031433
-7.91185e-10
0.00031433
-7.19626e-10
0.00031433
-6.52474e-10
0.00031433
-5.88316e-10
0.00031433
-5.26484e-10
0.00031433
-4.66727e-10
0.000314331
-4.08931e-10
0.000314331
-3.52679e-10
0.000314331
-2.97933e-10
0.000314331
-2.41925e-10
0.000314331
-1.84272e-10
0.000314331
-1.16041e-10
0.000314331
-1.87669e-11
0.000314331
2.94935e-11
0.000314332
1.04221e-10
0.000314332
2.50823e-10
0.000314332
4.61725e-10
0.000314332
7.47748e-10
0.000314333
9.73e-10
0.000314333
1.10494e-09
0.000314333
1.16765e-09
0.000314333
1.19099e-09
0.000314333
1.19426e-09
0.000314333
1.1871e-09
0.000314333
1.17388e-09
0.000314333
1.15702e-09
0.000314333
1.13828e-09
0.000314333
1.1187e-09
0.000314333
1.09847e-09
0.000314333
1.07768e-09
0.000314333
1.05701e-09
0.000314333
1.03699e-09
0.000314332
1.01743e-09
0.000314332
9.98073e-10
0.000314332
9.78896e-10
0.000314332
9.59933e-10
0.000314332
9.41037e-10
0.000314332
9.21943e-10
0.000314332
9.02489e-10
0.000314332
8.82576e-10
0.000314332
8.62022e-10
0.000314332
8.40563e-10
0.000314332
8.1801e-10
0.000314332
7.94209e-10
0.000314332
7.68864e-10
0.000314332
7.41892e-10
0.000314332
7.13669e-10
0.000314332
6.84557e-10
0.000314332
6.54373e-10
0.000314331
6.22783e-10
0.000314331
5.90089e-10
0.000314331
5.56912e-10
0.000314331
5.23329e-10
0.000314331
4.89153e-10
0.000314331
4.5466e-10
0.000314331
4.20117e-10
0.000314331
3.85447e-10
0.000314331
3.50716e-10
0.000314331
3.16113e-10
0.000314331
2.81477e-10
0.000314331
2.46652e-10
0.000314331
2.12068e-10
0.000314331
1.7816e-10
0.000314331
1.44712e-10
0.00031433
1.11293e-10
0.00031433
7.78821e-11
0.00031433
4.47988e-11
0.00031433
1.2209e-11
0.00031433
-1.99058e-11
0.00031433
-5.1444e-11
0.00031433
-8.23996e-11
0.00031433
-1.12963e-10
0.00031433
-1.43023e-10
0.00031433
-1.72232e-10
0.00031433
-2.00599e-10
0.00031433
-2.28364e-10
0.00031433
-2.55468e-10
0.00031433
-2.81636e-10
0.000314329
-3.06646e-10
0.000314329
-3.3038e-10
0.000314329
-3.52878e-10
0.000314329
-3.73919e-10
0.000314329
-3.92901e-10
0.000314329
-4.09546e-10
0.000314329
-4.23739e-10
0.000314329
-4.34964e-10
0.000314329
-4.42529e-10
0.000314329
-4.46108e-10
0.000314329
-4.45363e-10
0.000314329
-4.38762e-10
0.000314329
-4.33641e-10
0.000314329
-4.20345e-10
0.000314328
-4.99324e-10
0.000314328
-6.37502e-10
0.000314328
-7.14089e-10
0.000314328
-7.57451e-10
0.000314328
-8.56706e-10
0.000314328
-9.87869e-10
0.000314328
-1.05795e-09
0.000314328
-1.09933e-09
0.000314328
-1.12232e-09
0.000314328
-1.1277e-09
0.000314328
-1.11598e-09
0.000314328
-1.08836e-09
0.000314328
-1.04566e-09
0.000314328
-9.88704e-10
0.000314328
-9.15344e-10
0.000314328
-8.26618e-10
0.000314328
-7.14201e-10
0.000314328
-5.81183e-10
0.000314328
-4.2262e-10
0.000314329
-1.1056e-10
-4.72827e-10
0.000306127
-1.30819e-09
0.000306127
-1.4896e-09
0.000306128
-1.42462e-09
0.000306128
-1.30294e-09
0.000306128
-1.18585e-09
0.000306128
-1.08465e-09
0.000306128
-9.97728e-10
0.000306128
-9.20624e-10
0.000306128
-8.49498e-10
0.000306128
-7.81869e-10
0.000306129
-7.16454e-10
0.000306129
-6.52843e-10
0.000306129
-5.90968e-10
0.000306129
-5.30748e-10
0.000306129
-4.71809e-10
0.000306129
-4.14111e-10
0.000306129
-3.55322e-10
0.000306129
-2.94437e-10
0.00030613
-2.26805e-10
0.00030613
-1.31087e-10
0.00030613
-8.90879e-11
0.00030613
-4.32746e-11
0.00030613
4.66831e-11
0.00030613
1.90958e-10
0.000306131
4.47347e-10
0.000306131
6.99706e-10
0.000306131
8.87057e-10
0.000306131
1.00589e-09
0.000306131
1.07486e-09
0.000306132
1.11266e-09
0.000306132
1.13145e-09
0.000306132
1.13803e-09
0.000306132
1.13655e-09
0.000306132
1.12993e-09
0.000306132
1.12013e-09
0.000306132
1.10799e-09
0.000306132
1.09391e-09
0.000306132
1.07881e-09
0.000306132
1.06343e-09
0.000306132
1.04776e-09
0.000306132
1.03162e-09
0.000306131
1.01513e-09
0.000306131
9.98445e-10
0.000306131
9.81491e-10
0.000306131
9.64061e-10
0.000306131
9.46098e-10
0.000306131
9.27568e-10
0.000306131
9.08277e-10
0.000306131
8.87972e-10
0.000306131
8.66522e-10
0.000306131
8.43736e-10
0.000306131
8.19246e-10
0.000306131
7.93081e-10
0.000306131
7.6576e-10
0.000306131
7.37598e-10
0.000306131
7.083e-10
0.000306131
6.77538e-10
0.000306131
6.45665e-10
0.000306131
6.1331e-10
0.000306131
5.8053e-10
0.000306131
5.47128e-10
0.00030613
5.13434e-10
0.00030613
4.79777e-10
0.00030613
4.46017e-10
0.00030613
4.12135e-10
0.00030613
3.78331e-10
0.00030613
3.44439e-10
0.00030613
3.10258e-10
0.00030613
2.76293e-10
0.00030613
2.43086e-10
0.00030613
2.10393e-10
0.00030613
1.77688e-10
0.00030613
1.44897e-10
0.00030613
1.12339e-10
0.00030613
8.02624e-11
0.00030613
4.86956e-11
0.00030613
1.7691e-11
0.000306129
-1.27787e-11
0.000306129
-4.28844e-11
0.000306129
-7.25037e-11
0.000306129
-1.01284e-10
0.000306129
-1.29238e-10
0.000306129
-1.56623e-10
0.000306129
-1.83361e-10
0.000306129
-2.09159e-10
0.000306129
-2.33841e-10
0.000306129
-2.57346e-10
0.000306129
-2.79686e-10
0.000306129
-3.00599e-10
0.000306129
-3.19518e-10
0.000306128
-3.36229e-10
0.000306128
-3.50633e-10
0.000306128
-3.62159e-10
0.000306128
-3.70176e-10
0.000306128
-3.74466e-10
0.000306128
-3.75173e-10
0.000306128
-3.7096e-10
0.000306128
-3.70046e-10
0.000306128
-3.65779e-10
0.000306128
-4.34346e-10
0.000306128
-5.48306e-10
0.000306128
-6.18267e-10
0.000306128
-6.70743e-10
0.000306128
-7.70991e-10
0.000306127
-8.92922e-10
0.000306127
-9.62271e-10
0.000306127
-1.00938e-09
0.000306127
-1.04327e-09
0.000306127
-1.06294e-09
0.000306127
-1.06687e-09
0.000306127
-1.05479e-09
0.000306127
-1.0267e-09
0.000306127
-9.83268e-10
0.000306127
-9.22604e-10
0.000306127
-8.46383e-10
0.000306127
-7.47089e-10
0.000306127
-6.28451e-10
0.000306127
-4.88597e-10
0.000306127
-1.98341e-10
-5.54456e-10
0.000298103
-1.34573e-09
0.000298103
-1.53991e-09
0.000298103
-1.49472e-09
0.000298103
-1.38984e-09
0.000298103
-1.28434e-09
0.000298103
-1.19053e-09
0.000298103
-1.1081e-09
0.000298104
-1.03363e-09
0.000298104
-9.63859e-10
0.000298104
-8.96516e-10
0.000298104
-8.3053e-10
0.000298104
-7.6577e-10
0.000298104
-7.02327e-10
0.000298104
-6.40187e-10
0.000298104
-5.79076e-10
0.000298104
-5.18949e-10
0.000298105
-4.57919e-10
0.000298105
-3.94494e-10
0.000298105
-3.27378e-10
0.000298105
-2.34795e-10
0.000298105
-1.94134e-10
0.000298105
-1.64718e-10
0.000298105
-1.14286e-10
0.000298105
-2.75705e-11
0.000298106
1.78244e-10
0.000298106
4.20251e-10
0.000298106
6.32422e-10
0.000298106
7.91347e-10
0.000298107
9.00966e-10
0.000298107
9.7401e-10
0.000298107
1.02175e-09
0.000298107
1.05182e-09
0.000298107
1.06942e-09
0.000298107
1.07838e-09
0.000298107
1.08152e-09
0.000298107
1.08034e-09
0.000298107
1.07561e-09
0.000298107
1.06847e-09
0.000298107
1.05992e-09
0.000298107
1.05013e-09
0.000298107
1.03908e-09
0.000298107
1.02699e-09
0.000298107
1.01419e-09
0.000298107
1.00067e-09
0.000298107
9.86292e-10
0.000298107
9.7111e-10
0.000298107
9.55156e-10
0.000298107
9.38222e-10
0.000298107
9.20073e-10
0.000298107
9.00648e-10
0.000298107
8.79736e-10
0.000298107
8.56921e-10
0.000298107
8.32323e-10
0.000298107
8.06569e-10
0.000298107
7.79956e-10
0.000298107
7.52151e-10
0.000298107
7.22835e-10
0.000298107
6.9234e-10
0.000298107
6.61277e-10
0.000298107
6.29745e-10
0.000298106
5.97569e-10
0.000298106
5.65075e-10
0.000298106
5.3263e-10
0.000298106
5.00105e-10
0.000298106
4.67427e-10
0.000298106
4.34761e-10
0.000298106
4.01916e-10
0.000298106
3.68657e-10
0.000298106
3.35527e-10
0.000298106
3.03179e-10
0.000298106
2.71414e-10
0.000298106
2.39655e-10
0.000298106
2.0773e-10
0.000298106
1.75925e-10
0.000298106
1.44564e-10
0.000298106
1.13724e-10
0.000298106
8.33988e-11
0.000298105
5.35532e-11
0.000298105
2.40685e-11
0.000298105
-4.94077e-12
0.000298105
-3.31517e-11
0.000298105
-6.0579e-11
0.000298105
-8.74786e-11
0.000298105
-1.13749e-10
0.000298105
-1.39061e-10
0.000298105
-1.63294e-10
0.000298105
-1.86462e-10
0.000298105
-2.08529e-10
0.000298105
-2.29189e-10
0.000298105
-2.47944e-10
0.000298105
-2.64646e-10
0.000298104
-2.7918e-10
0.000298104
-2.90939e-10
0.000298104
-2.99363e-10
0.000298104
-3.04317e-10
0.000298104
-3.06313e-10
0.000298104
-3.04268e-10
0.000298104
-3.06643e-10
0.000298104
-3.08974e-10
0.000298104
-3.69885e-10
0.000298104
-4.64109e-10
0.000298104
-5.23406e-10
0.000298104
-5.74969e-10
0.000298104
-6.70201e-10
0.000298103
-7.82467e-10
0.000298103
-8.48973e-10
0.000298103
-8.96995e-10
0.000298103
-9.35768e-10
0.000298103
-9.64353e-10
0.000298103
-9.80188e-10
0.000298103
-9.81584e-10
0.000298103
-9.67434e-10
0.000298103
-9.37799e-10
0.000298103
-8.90722e-10
0.000298103
-8.28199e-10
0.000298103
-7.43444e-10
0.000298103
-6.40707e-10
0.000298103
-5.20996e-10
0.000298103
-2.54925e-10
-6.06306e-10
0.000290252
-1.35584e-09
0.000290252
-1.56267e-09
0.000290252
-1.53831e-09
0.000290252
-1.45232e-09
0.000290252
-1.36082e-09
0.000290252
-1.27658e-09
0.000290252
-1.20038e-09
0.000290252
-1.12987e-09
0.000290252
-1.06248e-09
0.000290253
-9.96253e-10
0.000290253
-9.30432e-10
0.000290253
-8.65165e-10
0.000290253
-8.00696e-10
0.000290253
-7.37122e-10
0.000290253
-6.74326e-10
0.000290253
-6.12268e-10
0.000290253
-5.49486e-10
0.000290253
-4.84153e-10
0.000290253
-4.17448e-10
0.000290254
-3.28692e-10
0.000290254
-2.87347e-10
0.000290254
-2.65864e-10
0.000290254
-2.40093e-10
0.000290254
-1.96237e-10
0.000290254
-4.34436e-11
0.000290254
1.66698e-10
0.000290255
3.77167e-10
0.000290255
5.55634e-10
0.000290255
6.93848e-10
0.000290255
7.96539e-10
0.000290256
8.71458e-10
0.000290256
9.25283e-10
0.000290256
9.63182e-10
0.000290256
9.89394e-10
0.000290256
1.00731e-09
0.000290256
1.01894e-09
0.000290256
1.02538e-09
0.000290256
1.02798e-09
0.000290256
1.02794e-09
0.000290256
1.02567e-09
0.000290256
1.02127e-09
0.000290256
1.0151e-09
0.000290256
1.00759e-09
0.000290256
9.98839e-10
0.000290256
9.8879e-10
0.000290256
9.7758e-10
0.000290256
9.65302e-10
0.000290256
9.5174e-10
0.000290256
9.36685e-10
0.000290256
9.20143e-10
0.000290256
9.01906e-10
0.000290256
8.81559e-10
0.000290256
8.59281e-10
0.000290256
8.35748e-10
0.000290256
8.11265e-10
0.000290256
7.85536e-10
0.000290256
7.58255e-10
0.000290256
7.29677e-10
0.000290256
7.00378e-10
0.000290256
6.70543e-10
0.000290256
6.40041e-10
0.000290256
6.09146e-10
0.000290256
5.78238e-10
0.000290256
5.47263e-10
0.000290256
5.16124e-10
0.000290255
4.84909e-10
0.000290255
4.53396e-10
0.000290255
4.21338e-10
0.000290255
3.89289e-10
0.000290255
3.57989e-10
0.000290255
3.27329e-10
0.000290255
2.96717e-10
0.000290255
2.65888e-10
0.000290255
2.35067e-10
0.000290255
2.04631e-10
0.000290255
1.74685e-10
0.000290255
1.45186e-10
0.000290255
1.16123e-10
0.000290255
8.74261e-11
0.000290255
5.91796e-11
0.000290255
3.16702e-11
0.000290255
4.89417e-12
0.000290254
-2.13983e-11
0.000290254
-4.70895e-11
0.000290254
-7.18142e-11
0.000290254
-9.54946e-11
0.000290254
-1.18214e-10
0.000290254
-1.39883e-10
0.000290254
-1.60165e-10
0.000290254
-1.78659e-10
0.000290254
-1.95266e-10
0.000290254
-2.09836e-10
0.000290254
-2.21749e-10
0.000290254
-2.30528e-10
0.000290254
-2.36087e-10
0.000290254
-2.3921e-10
0.000290254
-2.39087e-10
0.000290253
-2.44068e-10
0.000290253
-2.51099e-10
0.000290253
-3.06291e-10
0.000290253
-3.85772e-10
0.000290253
-4.34894e-10
0.000290253
-4.80637e-10
0.000290253
-5.66325e-10
0.000290253
-6.67368e-10
0.000290253
-7.2916e-10
0.000290253
-7.74884e-10
0.000290252
-8.13904e-10
0.000290252
-8.46268e-10
0.000290252
-8.69406e-10
0.000290252
-8.80763e-10
0.000290252
-8.78207e-10
0.000290252
-8.61055e-10
0.000290252
-8.27043e-10
0.000290252
-7.78203e-10
0.000290252
-7.08386e-10
0.000290252
-6.22202e-10
0.000290252
-5.2333e-10
0.000290252
-2.83071e-10
-6.31004e-10
0.000282571
-1.34234e-09
0.000282571
-1.56149e-09
0.000282571
-1.55829e-09
0.000282571
-1.4923e-09
0.000282571
-1.41642e-09
0.000282571
-1.34345e-09
0.000282571
-1.27503e-09
0.000282571
-1.20976e-09
0.000282571
-1.14575e-09
0.000282571
-1.08147e-09
0.000282571
-1.01655e-09
0.000282572
-9.51391e-10
0.000282572
-8.86406e-10
0.000282572
-8.21854e-10
0.000282572
-7.57818e-10
0.000282572
-6.9428e-10
0.000282572
-6.30173e-10
0.000282572
-5.63478e-10
0.000282572
-4.9711e-10
0.000282572
-4.12301e-10
0.000282572
-3.6971e-10
0.000282572
-3.51089e-10
0.000282572
-3.39027e-10
0.000282573
-3.23636e-10
0.000282573
-2.16704e-10
0.000282573
-4.62855e-11
0.000282573
1.44868e-10
0.000282573
3.24331e-10
0.000282574
4.76725e-10
0.000282574
5.99647e-10
0.000282574
6.9628e-10
0.000282574
7.70986e-10
0.000282574
8.2795e-10
0.000282574
8.71175e-10
0.000282575
9.0419e-10
0.000282575
9.29277e-10
0.000282575
9.47754e-10
0.000282575
9.61088e-10
0.000282575
9.7064e-10
0.000282575
9.76999e-10
0.000282575
9.80411e-10
0.000282575
9.81318e-10
0.000282575
9.80234e-10
0.000282575
9.7735e-10
0.000282575
9.72689e-10
0.000282575
9.6646e-10
0.000282575
9.58795e-10
0.000282575
9.49479e-10
0.000282575
9.38339e-10
0.000282575
9.25431e-10
0.000282575
9.10575e-10
0.000282575
8.93411e-10
0.000282575
8.74145e-10
0.000282575
8.53439e-10
0.000282575
8.3163e-10
0.000282575
8.08514e-10
0.000282575
7.83796e-10
0.000282575
7.57625e-10
0.000282575
7.30537e-10
0.000282575
7.02825e-10
0.000282575
6.74415e-10
0.000282575
6.45496e-10
0.000282575
6.16441e-10
0.000282575
5.87309e-10
0.000282575
5.58008e-10
0.000282575
5.28518e-10
0.000282575
4.98591e-10
0.000282574
4.67999e-10
0.000282574
4.37289e-10
0.000282574
4.07252e-10
0.000282574
3.77877e-10
0.000282574
3.4859e-10
0.000282574
3.19055e-10
0.000282574
2.89441e-10
0.000282574
2.60126e-10
0.000282574
2.31228e-10
0.000282574
2.02709e-10
0.000282574
1.74599e-10
0.000282574
1.46845e-10
0.000282574
1.19493e-10
0.000282574
9.28083e-11
0.000282574
6.68097e-11
0.000282574
4.12549e-11
0.000282574
1.62633e-11
0.000282574
-7.78145e-12
0.000282573
-3.0828e-11
0.000282573
-5.29908e-11
0.000282573
-7.41293e-11
0.000282573
-9.39182e-11
0.000282573
-1.12066e-10
0.000282573
-1.28488e-10
0.000282573
-1.42985e-10
0.000282573
-1.54962e-10
0.000282573
-1.64034e-10
0.000282573
-1.70131e-10
0.000282573
-1.7423e-10
0.000282573
-1.75769e-10
0.000282573
-1.82819e-10
0.000282573
-1.93162e-10
0.000282573
-2.43839e-10
0.000282572
-3.12595e-10
0.000282572
-3.53749e-10
0.000282572
-3.92446e-10
0.000282572
-4.6649e-10
0.000282572
-5.55047e-10
0.000282572
-6.10536e-10
0.000282572
-6.51861e-10
0.000282572
-6.87949e-10
0.000282572
-7.20002e-10
0.000282571
-7.46114e-10
0.000282571
-7.63488e-10
0.000282571
-7.69321e-10
0.000282571
-7.62285e-10
0.000282571
-7.39747e-10
0.000282571
-7.03577e-10
0.000282571
-6.48194e-10
0.000282571
-5.78391e-10
0.000282571
-5.0032e-10
0.000282571
-2.86758e-10
-6.32218e-10
0.000275056
-1.30955e-09
0.000275056
-1.54056e-09
0.000275056
-1.55834e-09
0.000275056
-1.51271e-09
0.000275056
-1.45331e-09
0.000275057
-1.39276e-09
0.000275057
-1.33331e-09
0.000275057
-1.27436e-09
0.000275057
-1.21463e-09
0.000275057
-1.15307e-09
0.000275057
-1.0897e-09
0.000275057
-1.02521e-09
0.000275057
-9.60168e-10
0.000275057
-8.95052e-10
0.000275057
-8.30168e-10
0.000275057
-7.6554e-10
0.000275057
-7.00461e-10
0.000275057
-6.32846e-10
0.000275057
-5.66775e-10
0.000275058
-4.85707e-10
0.000275058
-4.41916e-10
0.000275058
-4.23413e-10
0.000275058
-4.17779e-10
0.000275058
-4.19201e-10
0.000275058
-3.47611e-10
0.000275058
-2.15844e-10
0.000275058
-5.2661e-11
0.000275059
1.14476e-10
0.000275059
2.6795e-10
0.000275059
4.00626e-10
0.000275059
5.11468e-10
0.000275059
6.02e-10
0.000275059
6.74798e-10
0.00027506
7.33107e-10
0.00027506
7.80157e-10
0.00027506
8.18185e-10
0.00027506
8.4857e-10
0.00027506
8.72833e-10
0.00027506
8.92388e-10
0.00027506
9.0793e-10
0.00027506
9.19815e-10
0.00027506
9.28541e-10
0.00027506
9.34659e-10
0.00027506
9.38426e-10
0.00027506
9.3994e-10
0.00027506
9.39459e-10
0.00027506
9.37129e-10
0.00027506
9.32749e-10
0.00027506
9.2619e-10
0.00027506
9.17527e-10
0.00027506
9.06635e-10
0.00027506
8.93251e-10
0.00027506
8.77583e-10
0.00027506
8.60232e-10
0.00027506
8.41579e-10
0.00027506
8.2154e-10
0.00027506
7.99829e-10
0.00027506
7.7648e-10
0.00027506
7.52003e-10
0.00027506
7.26803e-10
0.00027506
7.00854e-10
0.00027506
6.74243e-10
0.00027506
6.47327e-10
0.00027506
6.20297e-10
0.00027506
5.93082e-10
0.00027506
5.65548e-10
0.00027506
5.3743e-10
0.00027506
5.08548e-10
0.00027506
4.79426e-10
0.00027506
4.50872e-10
0.00027506
4.22961e-10
0.00027506
3.95157e-10
0.00027506
3.67087e-10
0.00027506
3.3887e-10
0.00027506
3.10852e-10
0.00027506
2.83153e-10
0.00027506
2.5577e-10
0.00027506
2.28773e-10
0.00027506
2.02098e-10
0.00027506
1.75755e-10
0.000275059
1.50011e-10
0.000275059
1.24907e-10
0.000275059
1.00217e-10
0.000275059
7.60477e-11
0.000275059
5.27714e-11
0.000275059
3.04285e-11
0.000275059
8.92341e-12
0.000275059
-1.15627e-11
0.000275059
-3.07625e-11
0.000275059
-4.84891e-11
0.000275059
-6.46312e-11
0.000275059
-7.89406e-11
0.000275059
-9.08842e-11
0.000275059
-1.00174e-10
0.000275059
-1.06735e-10
0.000275059
-1.11664e-10
0.000275058
-1.14611e-10
0.000275058
-1.23293e-10
0.000275058
-1.35965e-10
0.000275058
-1.82884e-10
0.000275058
-2.43748e-10
0.000275058
-2.79284e-10
0.000275058
-3.11667e-10
0.000275058
-3.74037e-10
0.000275058
-4.49816e-10
0.000275058
-4.97972e-10
0.000275058
-5.33628e-10
0.000275058
-5.64835e-10
0.000275057
-5.93726e-10
0.000275057
-6.19328e-10
0.000275057
-6.39081e-10
0.000275057
-6.49943e-10
0.000275057
-6.50189e-10
0.000275057
-6.36903e-10
0.000275057
-6.11706e-10
0.000275057
-5.69566e-10
0.000275057
-5.15283e-10
0.000275057
-4.57334e-10
0.000275057
-2.70681e-10
-6.14276e-10
0.000267706
-1.26203e-09
0.000267706
-1.50427e-09
0.000267706
-1.5425e-09
0.000267706
-1.51707e-09
0.000267706
-1.4744e-09
0.000267706
-1.42685e-09
0.000267706
-1.37717e-09
0.000267706
-1.32532e-09
0.000267706
-1.27056e-09
0.000267706
-1.21235e-09
0.000267706
-1.15108e-09
0.000267706
-1.0877e-09
0.000267706
-1.023e-09
0.000267706
-9.57678e-10
0.000267706
-8.92274e-10
0.000267706
-8.26873e-10
0.000267706
-7.61099e-10
0.000267706
-6.92898e-10
0.000267706
-6.27099e-10
0.000267706
-5.49401e-10
0.000267706
-5.04633e-10
0.000267707
-4.84907e-10
0.000267707
-4.81225e-10
0.000267707
-4.91028e-10
0.000267707
-4.44418e-10
0.000267707
-3.45653e-10
0.000267707
-2.12291e-10
0.000267707
-6.50225e-11
0.000267707
7.97393e-11
0.000267708
2.12745e-10
0.000267708
3.29934e-10
0.000267708
4.30206e-10
0.000267708
5.14373e-10
0.000267708
5.84618e-10
0.000267708
6.43525e-10
0.000267709
6.93e-10
0.000267709
7.34323e-10
0.000267709
7.68963e-10
0.000267709
7.9829e-10
0.000267709
8.23015e-10
0.000267709
8.43544e-10
0.000267709
8.60389e-10
0.000267709
8.74091e-10
0.000267709
8.84948e-10
0.000267709
8.93117e-10
0.000267709
8.98872e-10
0.000267709
9.02349e-10
0.000267709
9.03384e-10
0.000267709
9.01887e-10
0.000267709
8.97921e-10
0.000267709
8.91432e-10
0.000267709
8.82284e-10