/*--------------------------------*- C++ -*----------------------------------*\
  =========                 |
  \\      /  F ield         | OpenFOAM: The Open Source CFD Toolbox
   \\    /   O peration     | Website:  https://openfoam.org
    \\  /    A nd           | Version:  7
     \\/     M anipulation  |
\*---------------------------------------------------------------------------*/
FoamFile
{
    version     2.0;
    format      ascii;
    class       volVectorField;
    location    "17000";
    object      U;
}
// * * * * * * * * * * * * * * * * * * * * * * * * * * * * * * * * * * * * * //

dimensions      [0 1 -1 0 0 0 0];

internalField   nonuniform List<vector> 
3963
(
(0.147924 -3.47058e-08 2.8564e-14)
(0.147924 -5.21564e-08 2.85315e-14)
(0.147924 -4.26476e-08 2.84952e-14)
(0.147924 -2.7668e-08 2.84918e-14)
(0.147924 -1.40192e-08 2.84697e-14)
(0.147924 -2.70094e-09 2.84989e-14)
(0.147924 6.52013e-09 2.84964e-14)
(0.147925 1.41209e-08 2.85258e-14)
(0.147925 2.05457e-08 2.8499e-14)
(0.147925 2.61196e-08 2.85054e-14)
(0.147925 3.10497e-08 2.84813e-14)
(0.147925 3.54678e-08 2.84194e-14)
(0.147925 3.94683e-08 2.83942e-14)
(0.147925 4.31021e-08 2.83643e-14)
(0.147925 4.64327e-08 2.83556e-14)
(0.147925 4.94973e-08 2.83829e-14)
(0.147925 5.25499e-08 2.83723e-14)
(0.147925 5.55349e-08 2.83839e-14)
(0.147925 5.98472e-08 2.83594e-14)
(0.147925 6.51058e-08 2.83551e-14)
(0.147925 7.26049e-08 2.83757e-14)
(0.147922 -2.48185e-08 2.8524e-14)
(0.147922 -3.15294e-08 2.86952e-14)
(0.147923 -3.61225e-08 2.85426e-14)
(0.147923 -3.71929e-08 2.8509e-14)
(0.147923 -3.63968e-08 2.85977e-14)
(0.147923 -3.42498e-08 2.84736e-14)
(0.147923 -3.088e-08 2.86161e-14)
(0.147923 -2.61983e-08 2.86851e-14)
(0.147923 -2.00607e-08 2.86506e-14)
(0.147923 -1.20344e-08 2.87312e-14)
(0.147923 -1.90728e-09 2.85723e-14)
(0.147924 1.13553e-08 2.86965e-14)
(0.147924 2.78055e-08 2.8741e-14)
(0.147924 4.96042e-08 2.86908e-14)
(0.147924 8.65154e-08 2.8737e-14)
(0.147924 4.75161e-08 2.85972e-14)
(0.14754 -5.53686e-08 2.82674e-14)
(0.14754 -7.08889e-08 2.82597e-14)
(0.14754 -6.08864e-08 2.82565e-14)
(0.14754 -4.60972e-08 2.82452e-14)
(0.14754 -3.26903e-08 2.82643e-14)
(0.14754 -2.15083e-08 2.82631e-14)
(0.14754 -1.22967e-08 2.82337e-14)
(0.147541 -4.58424e-09 2.82297e-14)
(0.147541 2.05273e-09 2.81997e-14)
(0.147541 7.90862e-09 2.81611e-14)
(0.147541 1.31717e-08 2.81711e-14)
(0.147541 1.79718e-08 2.8121e-14)
(0.147541 2.24015e-08 2.81098e-14)
(0.147541 2.64994e-08 2.80859e-14)
(0.147541 3.03183e-08 2.8096e-14)
(0.147541 3.38874e-08 2.8134e-14)
(0.147541 3.75186e-08 2.81233e-14)
(0.147541 4.10897e-08 2.8147e-14)
(0.147541 4.67411e-08 2.81199e-14)
(0.147541 5.34974e-08 2.81264e-14)
(0.147541 7.12563e-08 2.82206e-14)
(0.147541 8.93157e-08 2.82767e-14)
(0.147541 9.45606e-08 2.82601e-14)
(0.147538 -4.87867e-08 2.8385e-14)
(0.147538 -5.08621e-08 2.82797e-14)
(0.147538 -4.93941e-08 2.82494e-14)
(0.147538 -5.35895e-08 2.8366e-14)
(0.147538 -6.56688e-08 2.82402e-14)
(0.147539 -7.16204e-08 2.83639e-14)
(0.147539 -7.06919e-08 2.82502e-14)
(0.147539 -6.78918e-08 2.82096e-14)
(0.147539 -6.45159e-08 2.83187e-14)
(0.147539 -6.04626e-08 2.81923e-14)
(0.147539 -5.55979e-08 2.83041e-14)
(0.147539 -4.97249e-08 2.84008e-14)
(0.147539 -4.26557e-08 2.83577e-14)
(0.147539 -3.39276e-08 2.84434e-14)
(0.147539 -2.33324e-08 2.82832e-14)
(0.14754 -9.8121e-09 2.83769e-14)
(0.14754 6.62908e-09 2.84554e-14)
(0.14754 2.79192e-08 2.83962e-14)
(0.14754 6.47179e-08 2.84618e-14)
(0.14754 2.57413e-08 2.83116e-14)
(0.147141 -7.53316e-08 2.80029e-14)
(0.147141 -8.97935e-08 2.79847e-14)
(0.147141 -7.91593e-08 2.80146e-14)
(0.147141 -6.42565e-08 2.79921e-14)
(0.147141 -5.09442e-08 2.80658e-14)
(0.147141 -3.9865e-08 2.80057e-14)
(0.147141 -3.06755e-08 2.7885e-14)
(0.147141 -2.28767e-08 2.7927e-14)
(0.147141 -1.6054e-08 2.79007e-14)
(0.147141 -9.93945e-09 2.78304e-14)
(0.147141 -4.36198e-09 2.78433e-14)
(0.147142 8.03833e-10 2.78097e-14)
(0.147142 5.64456e-09 2.78666e-14)
(0.147142 1.01887e-08 2.77931e-14)
(0.147142 1.44795e-08 2.78341e-14)
(0.147142 1.85365e-08 2.79369e-14)
(0.147142 2.27064e-08 2.78595e-14)
(0.147142 2.68394e-08 2.79442e-14)
(0.147142 3.33118e-08 2.78666e-14)
(0.147142 4.10217e-08 2.78801e-14)
(0.147142 5.99827e-08 2.81295e-14)
(0.147142 8.47403e-08 2.80987e-14)
(0.147142 1.07389e-07 2.80691e-14)
(0.147142 1.21103e-07 2.8224e-14)
(0.147142 1.17438e-07 2.8141e-14)
(0.147142 1.1055e-07 2.82512e-14)
(0.147142 1.04852e-07 2.84381e-14)
(0.147142 1.00381e-07 2.83221e-14)
(0.147142 9.67523e-08 2.84752e-14)
(0.147142 9.36375e-08 2.83799e-14)
(0.147142 9.08593e-08 2.84267e-14)
(0.147142 8.82974e-08 2.85314e-14)
(0.147141 8.58727e-08 2.84255e-14)
(0.147141 8.35656e-08 2.85004e-14)
(0.147141 8.13798e-08 2.84109e-14)
(0.147141 7.92889e-08 2.85258e-14)
(0.147141 7.72607e-08 2.86955e-14)
(0.147141 7.53133e-08 2.8549e-14)
(0.147141 7.34907e-08 2.8661e-14)
(0.147141 7.17955e-08 2.85119e-14)
(0.147141 7.019e-08 2.84035e-14)
(0.147141 6.86391e-08 2.82848e-14)
(0.147141 6.71298e-08 2.82265e-14)
(0.147141 6.56491e-08 2.82297e-14)
(0.147141 6.41591e-08 2.81608e-14)
(0.147141 6.26219e-08 2.81277e-14)
(0.147141 6.10151e-08 2.80704e-14)
(0.147141 5.93155e-08 2.80491e-14)
(0.147141 5.74924e-08 2.8084e-14)
(0.147141 5.55253e-08 2.80339e-14)
(0.147141 5.34123e-08 2.80073e-14)
(0.147141 5.11328e-08 2.79508e-14)
(0.147141 4.86478e-08 2.79361e-14)
(0.14714 4.59729e-08 2.79039e-14)
(0.14714 4.3173e-08 2.77496e-14)
(0.14714 4.02755e-08 2.78214e-14)
(0.14714 3.72462e-08 2.783e-14)
(0.14714 3.40635e-08 2.78657e-14)
(0.14714 3.07748e-08 2.78607e-14)
(0.14714 2.74356e-08 2.77115e-14)
(0.14714 2.40404e-08 2.77969e-14)
(0.14714 2.05689e-08 2.78166e-14)
(0.14714 1.70488e-08 2.78452e-14)
(0.14714 1.35228e-08 2.7837e-14)
(0.14714 1.00067e-08 2.76562e-14)
(0.14714 6.50076e-09 2.77813e-14)
(0.14714 2.99107e-09 2.77896e-14)
(0.14714 -5.48046e-10 2.7823e-14)
(0.14714 -4.1094e-09 2.78195e-14)
(0.14714 -7.6357e-09 2.76819e-14)
(0.14714 -1.10882e-08 2.77663e-14)
(0.14714 -1.44905e-08 2.77802e-14)
(0.14714 -1.78776e-08 2.78123e-14)
(0.14714 -2.12419e-08 2.78112e-14)
(0.14714 -2.45574e-08 2.7683e-14)
(0.14714 -2.78249e-08 2.77768e-14)
(0.14714 -3.10516e-08 2.779e-14)
(0.14714 -3.42239e-08 2.78181e-14)
(0.14714 -3.73343e-08 2.7817e-14)
(0.14714 -4.03839e-08 2.76752e-14)
(0.14714 -4.33625e-08 2.78296e-14)
(0.14714 -4.62684e-08 2.7754e-14)
(0.14714 -4.91101e-08 2.77851e-14)
(0.14714 -5.1872e-08 2.78991e-14)
(0.147139 -5.45203e-08 2.77773e-14)
(0.147139 -5.70416e-08 2.79357e-14)
(0.147139 -5.94322e-08 2.78537e-14)
(0.147139 -6.16744e-08 2.78823e-14)
(0.147139 -6.37428e-08 2.79939e-14)
(0.147139 -6.55976e-08 2.78449e-14)
(0.147139 -6.71986e-08 2.79887e-14)
(0.147139 -6.85116e-08 2.78688e-14)
(0.147139 -6.94939e-08 2.79327e-14)
(0.147139 -7.00565e-08 2.80318e-14)
(0.147139 -7.01303e-08 2.78829e-14)
(0.147139 -6.94388e-08 2.80204e-14)
(0.147139 -6.7888e-08 2.79366e-14)
(0.147139 -6.45433e-08 2.79493e-14)
(0.147139 -5.84003e-08 2.80397e-14)
(0.147139 -5.98124e-08 2.78725e-14)
(0.147139 -6.9568e-08 2.80096e-14)
(0.147139 -7.34663e-08 2.79406e-14)
(0.147139 -6.9158e-08 2.79536e-14)
(0.147139 -7.98668e-08 2.80276e-14)
(0.147139 -9.71957e-08 2.78257e-14)
(0.147139 -9.91752e-08 2.79955e-14)
(0.14714 -9.63589e-08 2.78233e-14)
(0.14714 -9.25143e-08 2.79118e-14)
(0.14714 -8.80982e-08 2.79795e-14)
(0.14714 -8.3049e-08 2.78653e-14)
(0.14714 -7.72919e-08 2.79435e-14)
(0.14714 -7.06552e-08 2.80321e-14)
(0.14714 -6.29715e-08 2.80371e-14)
(0.14714 -5.37896e-08 2.80854e-14)
(0.14714 -4.29307e-08 2.78987e-14)
(0.14714 -2.93403e-08 2.80035e-14)
(0.14714 -1.30828e-08 2.80794e-14)
(0.14714 7.47568e-09 2.8071e-14)
(0.147141 4.37025e-08 2.8105e-14)
(0.147141 4.95832e-09 2.79695e-14)
(0.146726 -9.31436e-08 2.76628e-14)
(0.146726 -1.07626e-07 2.77157e-14)
(0.146726 -9.68292e-08 2.77778e-14)
(0.146726 -8.18079e-08 2.77278e-14)
(0.146726 -6.84924e-08 2.77914e-14)
(0.146726 -5.74604e-08 2.77155e-14)
(0.146726 -4.82848e-08 2.76036e-14)
(0.146726 -4.04203e-08 2.7626e-14)
(0.146726 -3.34445e-08 2.75762e-14)
(0.146727 -2.71024e-08 2.7484e-14)
(0.146727 -2.12355e-08 2.75319e-14)
(0.146727 -1.57282e-08 2.74844e-14)
(0.146727 -1.05069e-08 2.75511e-14)
(0.146727 -5.55069e-09 2.74668e-14)
(0.146727 -8.19959e-10 2.75847e-14)
(0.146727 3.69674e-09 2.76673e-14)
(0.146727 8.35146e-09 2.75946e-14)
(0.146727 1.30175e-08 2.76615e-14)
(0.146727 1.98354e-08 2.75497e-14)
(0.146727 2.85655e-08 2.76579e-14)
(0.146727 4.09712e-08 2.79178e-14)
(0.146727 6.19198e-08 2.79033e-14)
(0.146727 9.35189e-08 2.78575e-14)
(0.146728 1.21176e-07 2.80795e-14)
(0.146728 1.30174e-07 2.7921e-14)
(0.146728 1.28044e-07 2.81409e-14)
(0.146728 1.22902e-07 2.82924e-14)
(0.146727 1.17756e-07 2.81467e-14)
(0.146727 1.13264e-07 2.82627e-14)
(0.146727 1.09356e-07 2.81406e-14)
(0.146727 1.05878e-07 2.82902e-14)
(0.146727 1.02693e-07 2.8397e-14)
(0.146727 9.9717e-08 2.82702e-14)
(0.146727 9.69254e-08 2.83958e-14)
(0.146727 9.43043e-08 2.82273e-14)
(0.146727 9.18094e-08 2.84406e-14)
(0.146727 8.94055e-08 2.85294e-14)
(0.146727 8.71164e-08 2.84041e-14)
(0.146727 8.49759e-08 2.85205e-14)
(0.146727 8.29717e-08 2.83473e-14)
(0.146727 8.10653e-08 2.82258e-14)
(0.146727 7.92253e-08 2.81332e-14)
(0.146727 7.74386e-08 2.80661e-14)
(0.146727 7.56894e-08 2.79833e-14)
(0.146727 7.39402e-08 2.79572e-14)
(0.146727 7.21552e-08 2.79378e-14)
(0.146727 7.03154e-08 2.78982e-14)
(0.146727 6.84011e-08 2.78666e-14)
(0.146726 6.63824e-08 2.78224e-14)
(0.146726 6.42368e-08 2.78111e-14)
(0.146726 6.19607e-08 2.77972e-14)
(0.146726 5.95341e-08 2.77611e-14)
(0.146726 5.69208e-08 2.77363e-14)
(0.146726 5.41355e-08 2.77132e-14)
(0.146726 5.12378e-08 2.76129e-14)
(0.146726 4.82466e-08 2.76192e-14)
(0.146726 4.51268e-08 2.76372e-14)
(0.146726 4.18694e-08 2.76601e-14)
(0.146726 3.85263e-08 2.76648e-14)
(0.146726 3.51398e-08 2.75715e-14)
(0.146726 3.17003e-08 2.75951e-14)
(0.146726 2.81984e-08 2.76235e-14)
(0.146726 2.4658e-08 2.76414e-14)
(0.146726 2.11093e-08 2.76422e-14)
(0.146726 1.75705e-08 2.75629e-14)
(0.146726 1.40466e-08 2.75723e-14)
(0.146726 1.05222e-08 2.75944e-14)
(0.146726 6.97743e-09 2.76179e-14)
(0.146726 3.42729e-09 2.76248e-14)
(0.146726 -8.23239e-11 2.75391e-14)
(0.146726 -3.53039e-09 2.7567e-14)
(0.146726 -6.94128e-09 2.75879e-14)
(0.146726 -1.03368e-08 2.76081e-14)
(0.146726 -1.37016e-08 2.7615e-14)
(0.146726 -1.7017e-08 2.7545e-14)
(0.146726 -2.02878e-08 2.7567e-14)
(0.146726 -2.35131e-08 2.75926e-14)
(0.146726 -2.66798e-08 2.76121e-14)
(0.146725 -2.97885e-08 2.76182e-14)
(0.146725 -3.28379e-08 2.7527e-14)
(0.146725 -3.58117e-08 2.75724e-14)
(0.146725 -3.87096e-08 2.75194e-14)
(0.146725 -4.15446e-08 2.75495e-14)
(0.146725 -4.4305e-08 2.7614e-14)
(0.146725 -4.69589e-08 2.75829e-14)
(0.146725 -4.94872e-08 2.76361e-14)
(0.146725 -5.18812e-08 2.75952e-14)
(0.146725 -5.41327e-08 2.76225e-14)
(0.146725 -5.62204e-08 2.76868e-14)
(0.146725 -5.80965e-08 2.76269e-14)
(0.146725 -5.97203e-08 2.76767e-14)
(0.146725 -6.10655e-08 2.76421e-14)
(0.146725 -6.20917e-08 2.76614e-14)
(0.146725 -6.27169e-08 2.7717e-14)
(0.146725 -6.28784e-08 2.76572e-14)
(0.146725 -6.23754e-08 2.77035e-14)
(0.146725 -6.10687e-08 2.76671e-14)
(0.146725 -5.88272e-08 2.76707e-14)
(0.146725 -5.41395e-08 2.77201e-14)
(0.146725 -6.51214e-08 2.76438e-14)
(0.146725 -8.23285e-08 2.76927e-14)
(0.146725 -8.44711e-08 2.76731e-14)
(0.146725 -8.07359e-08 2.76746e-14)
(0.146725 -9.03001e-08 2.7712e-14)
(0.146725 -1.07067e-07 2.76461e-14)
(0.146725 -1.11746e-07 2.76729e-14)
(0.146725 -1.11198e-07 2.76378e-14)
(0.146725 -1.08554e-07 2.76296e-14)
(0.146725 -1.04671e-07 2.76623e-14)
(0.146725 -9.97973e-08 2.76008e-14)
(0.146725 -9.40242e-08 2.76271e-14)
(0.146725 -8.72902e-08 2.76863e-14)
(0.146725 -7.9509e-08 2.77086e-14)
(0.146725 -7.02847e-08 2.77381e-14)
(0.146725 -5.95012e-08 2.76558e-14)
(0.146726 -4.61401e-08 2.76708e-14)
(0.146726 -3.0332e-08 2.77212e-14)
(0.146726 -1.0765e-08 2.77335e-14)
(0.146726 2.45097e-08 2.7753e-14)
(0.146726 -1.36285e-08 2.76769e-14)
(0.146295 -1.08062e-07 2.73608e-14)
(0.146295 -1.23257e-07 2.74672e-14)
(0.146295 -1.13003e-07 2.75946e-14)
(0.146295 -9.81938e-08 2.74373e-14)
(0.146296 -8.49605e-08 2.75185e-14)
(0.146296 -7.39851e-08 2.74052e-14)
(0.146296 -6.4832e-08 2.72563e-14)
(0.146296 -5.69275e-08 2.73357e-14)
(0.146296 -4.98368e-08 2.71976e-14)
(0.146296 -4.33055e-08 2.71222e-14)
(0.146296 -3.71826e-08 2.72248e-14)
(0.146296 -3.1368e-08 2.72577e-14)
(0.146296 -2.58063e-08 2.73115e-14)
(0.146296 -2.04818e-08 2.72707e-14)
(0.146296 -1.5354e-08 2.73748e-14)
(0.146296 -1.04165e-08 2.74558e-14)
(0.146296 -5.33617e-09 2.7359e-14)
(0.146296 -1.81765e-10 2.74409e-14)
(0.146296 6.71172e-09 2.74087e-14)
(0.146297 1.61548e-08 2.74472e-14)
(0.146297 2.38675e-08 2.77025e-14)
(0.146297 3.8591e-08 2.76592e-14)
(0.146297 6.46054e-08 2.7637e-14)
(0.146297 9.41088e-08 2.77703e-14)
(0.146297 1.17426e-07 2.75732e-14)
(0.146297 1.27068e-07 2.79146e-14)
(0.146297 1.28152e-07 2.7989e-14)
(0.146297 1.2581e-07 2.79151e-14)
(0.146297 1.22545e-07 2.7993e-14)
(0.146297 1.192e-07 2.78736e-14)
(0.146297 1.15977e-07 2.81084e-14)
(0.146297 1.12876e-07 2.81484e-14)
(0.146297 1.09894e-07 2.80485e-14)
(0.146297 1.07051e-07 2.80954e-14)
(0.146297 1.04348e-07 2.79311e-14)
(0.146297 1.01746e-07 2.82697e-14)
(0.146297 9.92167e-08 2.82873e-14)
(0.146297 9.68004e-08 2.81883e-14)
(0.146297 9.45273e-08 2.82301e-14)
(0.146297 9.23746e-08 2.8052e-14)
(0.146297 9.03076e-08 2.80225e-14)
(0.146297 8.83042e-08 2.79538e-14)
(0.146297 8.6354e-08 2.78881e-14)
(0.146297 8.44394e-08 2.77522e-14)
(0.146297 8.25263e-08 2.77474e-14)
(0.146296 8.05841e-08 2.77402e-14)
(0.146296 7.85962e-08 2.7712e-14)
(0.146296 7.65452e-08 2.76765e-14)
(0.146296 7.4403e-08 2.75745e-14)
(0.146296 7.21454e-08 2.75865e-14)
(0.146296 6.97647e-08 2.75833e-14)
(0.146296 6.72406e-08 2.756e-14)
(0.146296 6.45463e-08 2.75302e-14)
(0.146296 6.17003e-08 2.75119e-14)
(0.146296 5.87518e-08 2.74223e-14)
(0.146296 5.57061e-08 2.74259e-14)
(0.146296 5.25293e-08 2.74493e-14)
(0.146296 4.92306e-08 2.74584e-14)
(0.146296 4.58666e-08 2.74646e-14)
(0.146296 4.24616e-08 2.73855e-14)
(0.146296 3.90024e-08 2.74071e-14)
(0.146296 3.5497e-08 2.74385e-14)
(0.146296 3.1966e-08 2.74424e-14)
(0.146296 2.84223e-08 2.74431e-14)
(0.146296 2.48839e-08 2.73674e-14)
(0.146296 2.13624e-08 2.73776e-14)
(0.146296 1.78409e-08 2.74064e-14)
(0.146296 1.43049e-08 2.74191e-14)
(0.146296 1.07819e-08 2.74288e-14)
(0.146296 7.30871e-09 2.73593e-14)
(0.146296 3.88418e-09 2.73786e-14)
(0.146296 4.80467e-10 2.74049e-14)
(0.146296 -2.90997e-09 2.74106e-14)
(0.146296 -6.26379e-09 2.74169e-14)
(0.146296 -9.56812e-09 2.73499e-14)
(0.146295 -1.2829e-08 2.73736e-14)
(0.146295 -1.60377e-08 2.74046e-14)
(0.146295 -1.91856e-08 2.74121e-14)
(0.146295 -2.2284e-08 2.74178e-14)
(0.146295 -2.53266e-08 2.73446e-14)
(0.146295 -2.82879e-08 2.73357e-14)
(0.146295 -3.11688e-08 2.7311e-14)
(0.146295 -3.39874e-08 2.73206e-14)
(0.146295 -3.67358e-08 2.73453e-14)
(0.146295 -3.93853e-08 2.73307e-14)
(0.146295 -4.19123e-08 2.73582e-14)
(0.146295 -4.4304e-08 2.73533e-14)
(0.146295 -4.65606e-08 2.73702e-14)
(0.146295 -4.86626e-08 2.73955e-14)
(0.146295 -5.05539e-08 2.73649e-14)
(0.146295 -5.21977e-08 2.73873e-14)
(0.146295 -5.35748e-08 2.73839e-14)
(0.146295 -5.46421e-08 2.73963e-14)
(0.146295 -5.53235e-08 2.74165e-14)
(0.146295 -5.55673e-08 2.73869e-14)
(0.146295 -5.52459e-08 2.74047e-14)
(0.146295 -5.41992e-08 2.7395e-14)
(0.146295 -5.28133e-08 2.73994e-14)
(0.146295 -4.96312e-08 2.74132e-14)
(0.146295 -6.00043e-08 2.73735e-14)
(0.146295 -7.74776e-08 2.73974e-14)
(0.146295 -8.3409e-08 2.73984e-14)
(0.146295 -8.36044e-08 2.74012e-14)
(0.146295 -9.27341e-08 2.74065e-14)
(0.146295 -1.07747e-07 2.73643e-14)
(0.146295 -1.14214e-07 2.73698e-14)
(0.146295 -1.16198e-07 2.73569e-14)
(0.146295 -1.15703e-07 2.73525e-14)
(0.146295 -1.13428e-07 2.73553e-14)
(0.146295 -1.09709e-07 2.73193e-14)
(0.146295 -1.04753e-07 2.73286e-14)
(0.146295 -9.86153e-08 2.73587e-14)
(0.146295 -9.13071e-08 2.73818e-14)
(0.146295 -8.25124e-08 2.73947e-14)
(0.146295 -7.22028e-08 2.73502e-14)
(0.146295 -5.94235e-08 2.73536e-14)
(0.146295 -4.43762e-08 2.73755e-14)
(0.146295 -2.60796e-08 2.7393e-14)
(0.146295 7.86242e-09 2.7401e-14)
(0.146295 -2.94956e-08 2.73627e-14)
(0.145849 -1.19755e-07 2.706e-14)
(0.145849 -1.36022e-07 2.7149e-14)
(0.145849 -1.2694e-07 2.72247e-14)
(0.145849 -1.12826e-07 2.72056e-14)
(0.145849 -9.99298e-08 2.71473e-14)
(0.145849 -8.91255e-08 2.71391e-14)
(0.145849 -8.00534e-08 2.69877e-14)
(0.145849 -7.21562e-08 2.70842e-14)
(0.145849 -6.49997e-08 2.69966e-14)
(0.145849 -5.83265e-08 2.68587e-14)
(0.145849 -5.19908e-08 2.69733e-14)
(0.145849 -4.59135e-08 2.70344e-14)
(0.145849 -4.00593e-08 2.70946e-14)
(0.145849 -3.44154e-08 2.7156e-14)
(0.145849 -2.89399e-08 2.71909e-14)
(0.145849 -2.36285e-08 2.72675e-14)
(0.14585 -1.81829e-08 2.72049e-14)
(0.14585 -1.26e-08 2.72324e-14)
(0.14585 -5.74177e-09 2.72101e-14)
(0.14585 3.99854e-09 2.72716e-14)
(0.14585 9.35145e-09 2.74672e-14)
(0.14585 1.8747e-08 2.74873e-14)
(0.14585 3.68907e-08 2.74169e-14)
(0.14585 6.15506e-08 2.75141e-14)
(0.14585 9.06061e-08 2.74792e-14)
(0.14585 1.10348e-07 2.76214e-14)
(0.14585 1.19867e-07 2.7717e-14)
(0.14585 1.23017e-07 2.76455e-14)
(0.14585 1.23078e-07 2.77119e-14)
(0.145851 1.21801e-07 2.76844e-14)
(0.145851 1.19934e-07 2.78075e-14)
(0.14585 1.17761e-07 2.78686e-14)
(0.14585 1.15432e-07 2.77863e-14)
(0.14585 1.1306e-07 2.78349e-14)
(0.14585 1.10708e-07 2.7795e-14)
(0.14585 1.08365e-07 2.79364e-14)
(0.14585 1.06026e-07 2.80095e-14)
(0.14585 1.03749e-07 2.79269e-14)
(0.14585 1.01573e-07 2.7968e-14)
(0.14585 9.94776e-08 2.79194e-14)
(0.14585 9.74314e-08 2.78092e-14)
(0.14585 9.54254e-08 2.77528e-14)
(0.14585 9.3457e-08 2.76863e-14)
(0.14585 9.15095e-08 2.75855e-14)
(0.14585 8.95532e-08 2.75634e-14)
(0.14585 8.75666e-08 2.75344e-14)
(0.14585 8.55371e-08 2.75147e-14)
(0.14585 8.3447e-08 2.74715e-14)
(0.14585 8.12695e-08 2.7401e-14)
(0.14585 7.89828e-08 2.73879e-14)
(0.14585 7.65741e-08 2.73642e-14)
(0.14585 7.40177e-08 2.73504e-14)
(0.14585 7.1299e-08 2.73141e-14)
(0.14585 6.84479e-08 2.73025e-14)
(0.14585 6.55044e-08 2.71973e-14)
(0.14585 6.24572e-08 2.72414e-14)
(0.14585 5.92728e-08 2.72679e-14)
(0.14585 5.59763e-08 2.72554e-14)
(0.14585 5.26287e-08 2.7261e-14)
(0.14585 4.92412e-08 2.71674e-14)
(0.14585 4.57963e-08 2.72318e-14)
(0.14585 4.23164e-08 2.72632e-14)
(0.14585 3.88256e-08 2.72431e-14)
(0.14585 3.53213e-08 2.72416e-14)
(0.14585 3.18146e-08 2.71474e-14)
(0.14585 2.8323e-08 2.71947e-14)
(0.14585 2.48301e-08 2.72271e-14)
(0.14585 2.13216e-08 2.72213e-14)
(0.145849 1.78365e-08 2.72321e-14)
(0.145849 1.44136e-08 2.71448e-14)
(0.145849 1.10354e-08 2.72015e-14)
(0.145849 7.66409e-09 2.72318e-14)
(0.145849 4.29844e-09 2.72143e-14)
(0.145849 9.68817e-10 2.72182e-14)
(0.145849 -2.31096e-09 2.7131e-14)
(0.145849 -5.5451e-09 2.71956e-14)
(0.145849 -8.7224e-09 2.72281e-14)
(0.145849 -1.18396e-08 2.72135e-14)
(0.145849 -1.49148e-08 2.72169e-14)
(0.145849 -1.79383e-08 2.7129e-14)
(0.145849 -2.08772e-08 2.7103e-14)
(0.145849 -2.37321e-08 2.70884e-14)
(0.145849 -2.65257e-08 2.70926e-14)
(0.145849 -2.92521e-08 2.70796e-14)
(0.145849 -3.18841e-08 2.70712e-14)
(0.145849 -3.43982e-08 2.70913e-14)
(0.145849 -3.67807e-08 2.71026e-14)
(0.145849 -3.90357e-08 2.71194e-14)
(0.145849 -4.11428e-08 2.71076e-14)
(0.145849 -4.30418e-08 2.70912e-14)
(0.145849 -4.47013e-08 2.71072e-14)
(0.145849 -4.6108e-08 2.71181e-14)
(0.145849 -4.72135e-08 2.71327e-14)
(0.145849 -4.79464e-08 2.71167e-14)
(0.145849 -4.82674e-08 2.71014e-14)
(0.145849 -4.81149e-08 2.71141e-14)
(0.145849 -4.73286e-08 2.71199e-14)
(0.145849 -4.65752e-08 2.71292e-14)
(0.145848 -4.47098e-08 2.71067e-14)
(0.145848 -5.33135e-08 2.70882e-14)
(0.145848 -6.85342e-08 2.71082e-14)
(0.145848 -7.6277e-08 2.71212e-14)
(0.145848 -7.97363e-08 2.71294e-14)
(0.145848 -8.94175e-08 2.71011e-14)
(0.145848 -1.03052e-07 2.70714e-14)
(0.145848 -1.10061e-07 2.70742e-14)
(0.145848 -1.13739e-07 2.70743e-14)
(0.145848 -1.15282e-07 2.70778e-14)
(0.145848 -1.14945e-07 2.70478e-14)
(0.145848 -1.12897e-07 2.70255e-14)
(0.145848 -1.09325e-07 2.70369e-14)
(0.145848 -1.04327e-07 2.70407e-14)
(0.145848 -9.79831e-08 2.70597e-14)
(0.145848 -9.00513e-08 2.70503e-14)
(0.145848 -8.05964e-08 2.70308e-14)
(0.145848 -6.87436e-08 2.70408e-14)
(0.145848 -5.4767e-08 2.70314e-14)
(0.145848 -3.80128e-08 2.70521e-14)
(0.145848 -5.77602e-09 2.70452e-14)
(0.145848 -4.23504e-08 2.7031e-14)
(0.145386 -1.28161e-07 2.67677e-14)
(0.145386 -1.45654e-07 2.68461e-14)
(0.145386 -1.38196e-07 2.69076e-14)
(0.145386 -1.25248e-07 2.69565e-14)
(0.145386 -1.13028e-07 2.68475e-14)
(0.145386 -1.02597e-07 2.68656e-14)
(0.145386 -9.37236e-08 2.6749e-14)
(0.145386 -8.59133e-08 2.68745e-14)
(0.145386 -7.87573e-08 2.68151e-14)
(0.145386 -7.20007e-08 2.67047e-14)
(0.145386 -6.55068e-08 2.67837e-14)
(0.145386 -5.92207e-08 2.68281e-14)
(0.145386 -5.31265e-08 2.68934e-14)
(0.145386 -4.72143e-08 2.69125e-14)
(0.145386 -4.14435e-08 2.70259e-14)
(0.145386 -3.581e-08 2.69952e-14)
(0.145386 -3.0058e-08 2.69784e-14)
(0.145386 -2.41158e-08 2.70341e-14)
(0.145387 -1.73207e-08 2.70145e-14)
(0.145387 -7.62226e-09 2.71244e-14)
(0.145387 -3.26251e-09 2.71778e-14)
(0.145387 2.46139e-09 2.71997e-14)
(0.145387 1.39556e-08 2.71691e-14)
(0.145387 3.17317e-08 2.71895e-14)
(0.145387 5.96657e-08 2.71999e-14)
(0.145387 8.45419e-08 2.729e-14)
(0.145387 1.01141e-07 2.73454e-14)
(0.145387 1.10441e-07 2.7345e-14)
(0.145387 1.15034e-07 2.73575e-14)
(0.145388 1.16968e-07 2.7387e-14)
(0.145388 1.17408e-07 2.74579e-14)
(0.145388 1.16938e-07 2.74873e-14)
(0.145388 1.15898e-07 2.74865e-14)
(0.145388 1.1452e-07 2.7485e-14)
(0.145388 1.12956e-07 2.75004e-14)
(0.145388 1.11253e-07 2.7595e-14)
(0.145388 1.09433e-07 2.76234e-14)
(0.145388 1.07578e-07 2.76248e-14)
(0.145388 1.05748e-07 2.7616e-14)
(0.145388 1.03932e-07 2.76201e-14)
(0.145388 1.02107e-07 2.75607e-14)
(0.145387 1.00278e-07 2.75376e-14)
(0.145387 9.8454e-08 2.74622e-14)
(0.145387 9.6623e-08 2.74288e-14)
(0.145387 9.47611e-08 2.73757e-14)
(0.145387 9.28571e-08 2.73177e-14)
(0.145387 9.09043e-08 2.73108e-14)
(0.145387 8.88838e-08 2.725e-14)
(0.145387 8.67698e-08 2.72335e-14)
(0.145387 8.45459e-08 2.71885e-14)
(0.145387 8.21945e-08 2.71371e-14)
(0.145387 7.96822e-08 2.71366e-14)
(0.145387 7.70064e-08 2.7085e-14)
(0.145387 7.42122e-08 2.70873e-14)
(0.145387 7.13329e-08 2.69349e-14)
(0.145387 6.83434e-08 2.70841e-14)
(0.145387 6.52103e-08 2.709e-14)
(0.145387 6.19676e-08 2.70426e-14)
(0.145387 5.86788e-08 2.70547e-14)
(0.145387 5.53495e-08 2.69127e-14)
(0.145387 5.19594e-08 2.70878e-14)
(0.145387 4.85398e-08 2.70943e-14)
(0.145387 4.51209e-08 2.70357e-14)
(0.145387 4.16907e-08 2.70387e-14)
(0.145387 3.82508e-08 2.68943e-14)
(0.145387 3.48217e-08 2.70417e-14)
(0.145387 3.13872e-08 2.70542e-14)
(0.145387 2.79298e-08 2.70167e-14)
(0.145387 2.44969e-08 2.70352e-14)
(0.145387 2.11369e-08 2.68969e-14)
(0.145387 1.7825e-08 2.70481e-14)
(0.145387 1.45127e-08 2.70646e-14)
(0.145387 1.11961e-08 2.7011e-14)
(0.145387 7.90833e-09 2.70194e-14)
(0.145387 4.66991e-09 2.68805e-14)
(0.145387 1.48099e-09 2.7052e-14)
(0.145387 -1.6503e-09 2.70601e-14)
(0.145387 -4.72517e-09 2.70082e-14)
(0.145387 -7.76264e-09 2.70163e-14)
(0.145386 -1.0751e-08 2.68805e-14)
(0.145386 -1.36542e-08 2.68701e-14)
(0.145386 -1.64734e-08 2.68616e-14)
(0.145386 -1.92336e-08 2.68632e-14)
(0.145386 -2.19283e-08 2.68008e-14)
(0.145386 -2.45298e-08 2.68082e-14)
(0.145386 -2.70177e-08 2.68317e-14)
(0.145386 -2.93824e-08 2.68512e-14)
(0.145386 -3.16269e-08 2.6869e-14)
(0.145386 -3.37277e-08 2.6807e-14)
(0.145386 -3.56253e-08 2.68116e-14)
(0.145386 -3.72949e-08 2.68331e-14)
(0.145386 -3.87263e-08 2.68521e-14)
(0.145386 -3.98653e-08 2.68694e-14)
(0.145386 -4.06454e-08 2.68007e-14)
(0.145386 -4.10396e-08 2.68089e-14)
(0.145386 -4.10406e-08 2.6829e-14)
(0.145386 -4.0503e-08 2.68446e-14)
(0.145386 -4.02252e-08 2.68589e-14)
(0.145386 -3.94018e-08 2.67846e-14)
(0.145386 -4.6723e-08 2.67928e-14)
(0.145386 -5.93062e-08 2.68223e-14)
(0.145386 -6.68404e-08 2.68445e-14)
(0.145386 -7.1917e-08 2.68581e-14)
(0.145386 -8.20212e-08 2.67865e-14)
(0.145386 -9.46722e-08 2.67724e-14)
(0.145386 -1.0171e-07 2.67833e-14)
(0.145386 -1.06268e-07 2.67936e-14)
(0.145385 -1.09252e-07 2.68044e-14)
(0.145385 -1.10608e-07 2.67305e-14)
(0.145385 -1.10273e-07 2.6725e-14)
(0.145385 -1.083e-07 2.67496e-14)
(0.145385 -1.04741e-07 2.67227e-14)
(0.145385 -9.96837e-08 2.67429e-14)
(0.145385 -9.29346e-08 2.66952e-14)
(0.145385 -8.46355e-08 2.6705e-14)
(0.145385 -7.39952e-08 2.67315e-14)
(0.145385 -6.13568e-08 2.66741e-14)
(0.145385 -4.6382e-08 2.67116e-14)
(0.145385 -1.61858e-08 2.66772e-14)
(0.145386 -5.20744e-08 2.66921e-14)
(0.144906 -1.33396e-07 2.6496e-14)
(0.144906 -1.52166e-07 2.65562e-14)
(0.144906 -1.46609e-07 2.6596e-14)
(0.144906 -1.35207e-07 2.67034e-14)
(0.144906 -1.24002e-07 2.6597e-14)
(0.144906 -1.1419e-07 2.66019e-14)
(0.144906 -1.05675e-07 2.65736e-14)
(0.144906 -9.80624e-08 2.66897e-14)
(0.144906 -9.0992e-08 2.66291e-14)
(0.144906 -8.42232e-08 2.65413e-14)
(0.144906 -7.76358e-08 2.66369e-14)
(0.144906 -7.12019e-08 2.66191e-14)
(0.144907 -6.4923e-08 2.67124e-14)
(0.144907 -5.87935e-08 2.6685e-14)
(0.144907 -5.27799e-08 2.67923e-14)
(0.144907 -4.68774e-08 2.67923e-14)
(0.144907 -4.0875e-08 2.6748e-14)
(0.144907 -3.46447e-08 2.68902e-14)
(0.144907 -2.79079e-08 2.68056e-14)
(0.144907 -1.8466e-08 2.69024e-14)
(0.144907 -1.44053e-08 2.68994e-14)
(0.144907 -1.08742e-08 2.69134e-14)
(0.144907 -4.20735e-09 2.69035e-14)
(0.144907 7.08895e-09 2.68319e-14)
(0.144907 3.04788e-08 2.69206e-14)
(0.144907 5.58919e-08 2.69812e-14)
(0.144908 7.65511e-08 2.6998e-14)
(0.144908 9.08786e-08 2.7042e-14)
(0.144908 1.00008e-07 2.69764e-14)
(0.144908 1.05598e-07 2.70752e-14)
(0.144908 1.08897e-07 2.71388e-14)
(0.144908 1.10671e-07 2.7091e-14)
(0.144908 1.11405e-07 2.71787e-14)
(0.144908 1.1145e-07 2.71548e-14)
(0.144908 1.11048e-07 2.72471e-14)
(0.144908 1.10317e-07 2.72737e-14)
(0.144908 1.09316e-07 2.7275e-14)
(0.144908 1.08147e-07 2.73143e-14)
(0.144908 1.06899e-07 2.7242e-14)
(0.144908 1.05577e-07 2.73648e-14)
(0.144908 1.04172e-07 2.72865e-14)
(0.144908 1.027e-07 2.7316e-14)
(0.144908 1.01186e-07 2.72117e-14)
(0.144908 9.96252e-08 2.7263e-14)
(0.144908 9.8e-08 2.71674e-14)
(0.144908 9.63102e-08 2.70826e-14)
(0.144908 9.45558e-08 2.71068e-14)
(0.144908 9.27168e-08 2.70057e-14)
(0.144908 9.07685e-08 2.7063e-14)
(0.144908 8.87013e-08 2.69724e-14)
(0.144908 8.64946e-08 2.6894e-14)
(0.144908 8.41085e-08 2.6925e-14)
(0.144908 8.15505e-08 2.68365e-14)
(0.144908 7.88791e-08 2.68707e-14)
(0.144908 7.61245e-08 2.67344e-14)
(0.144908 7.32539e-08 2.68968e-14)
(0.144908 7.02343e-08 2.68998e-14)
(0.144908 6.71012e-08 2.68087e-14)
(0.144908 6.39176e-08 2.68486e-14)
(0.144908 6.06902e-08 2.67209e-14)
(0.144908 5.73995e-08 2.68604e-14)
(0.144908 5.40794e-08 2.69138e-14)
(0.144908 5.0765e-08 2.68086e-14)
(0.144908 4.74421e-08 2.68373e-14)
(0.144908 4.4105e-08 2.67058e-14)
(0.144908 4.07727e-08 2.69142e-14)
(0.144908 3.74279e-08 2.6874e-14)
(0.144908 3.40485e-08 2.67939e-14)
(0.144908 3.06873e-08 2.68408e-14)
(0.144907 2.74044e-08 2.6715e-14)
(0.144907 2.41767e-08 2.68845e-14)
(0.144907 2.09477e-08 2.68857e-14)
(0.144907 1.77056e-08 2.67896e-14)
(0.144907 1.44813e-08 2.68237e-14)
(0.144907 1.13038e-08 2.66967e-14)
(0.144907 8.17864e-09 2.68781e-14)
(0.144907 5.10794e-09 2.68834e-14)
(0.144907 2.08817e-09 2.67845e-14)
(0.144907 -8.95681e-10 2.68188e-14)
(0.144907 -3.83149e-09 2.66968e-14)
(0.144907 -6.68491e-09 2.66469e-14)
(0.144907 -9.4573e-09 2.66327e-14)
(0.144907 -1.21746e-08 2.66305e-14)
(0.144907 -1.4828e-08 2.65187e-14)
(0.144907 -1.73865e-08 2.65477e-14)
(0.144907 -1.98353e-08 2.65795e-14)
(0.144907 -2.21718e-08 2.66025e-14)
(0.144907 -2.43953e-08 2.66182e-14)
(0.144907 -2.64772e-08 2.64596e-14)
(0.144907 -2.83635e-08 2.65352e-14)
(0.144907 -3.00362e-08 2.65666e-14)
(0.144907 -3.14852e-08 2.65889e-14)
(0.144907 -3.26513e-08 2.66056e-14)
(0.144907 -3.34744e-08 2.64435e-14)
(0.144907 -3.39375e-08 2.65192e-14)
(0.144907 -3.40757e-08 2.65505e-14)
(0.144907 -3.37672e-08 2.65719e-14)
(0.144907 -3.38574e-08 2.65879e-14)
(0.144907 -3.38076e-08 2.6421e-14)
(0.144907 -4.0237e-08 2.64985e-14)
(0.144906 -5.05538e-08 2.65414e-14)
(0.144906 -5.70649e-08 2.65707e-14)
(0.144906 -6.24427e-08 2.65864e-14)
(0.144906 -7.2351e-08 2.64156e-14)
(0.144906 -8.40969e-08 2.64786e-14)
(0.144906 -9.09392e-08 2.64984e-14)
(0.144906 -9.57913e-08 2.65166e-14)
(0.144906 -9.95491e-08 2.65309e-14)
(0.144906 -1.02084e-07 2.64078e-14)
(0.144906 -1.03169e-07 2.6431e-14)
(0.144906 -1.02696e-07 2.64681e-14)
(0.144906 -1.00614e-07 2.63449e-14)
(0.144906 -9.69665e-08 2.64341e-14)
(0.144906 -9.15678e-08 2.6297e-14)
(0.144906 -8.46084e-08 2.63837e-14)
(0.144906 -7.53754e-08 2.6429e-14)
(0.144906 -6.42709e-08 2.63321e-14)
(0.144906 -5.12552e-08 2.6378e-14)
(0.144906 -2.33745e-08 2.63128e-14)
(0.144906 -5.87185e-08 2.6358e-14)
(0.14441 -1.35711e-07 2.61441e-14)
(0.14441 -1.55757e-07 2.62534e-14)
(0.14441 -1.52252e-07 2.62911e-14)
(0.14441 -1.42659e-07 2.63631e-14)
(0.14441 -1.32752e-07 2.63013e-14)
(0.14441 -1.23795e-07 2.63359e-14)
(0.14441 -1.15818e-07 2.63482e-14)
(0.14441 -1.08534e-07 2.64211e-14)
(0.14441 -1.01649e-07 2.64007e-14)
(0.14441 -9.49485e-08 2.63662e-14)
(0.14441 -8.83399e-08 2.6408e-14)
(0.14441 -8.18228e-08 2.63964e-14)
(0.14441 -7.54143e-08 2.64493e-14)
(0.14441 -6.91175e-08 2.64482e-14)
(0.14441 -6.29116e-08 2.64868e-14)
(0.14441 -5.67916e-08 2.64686e-14)
(0.14441 -5.05907e-08 2.6492e-14)
(0.14441 -4.41394e-08 2.65712e-14)
(0.14441 -3.74491e-08 2.65689e-14)
(0.14441 -2.83713e-08 2.65986e-14)
(0.14441 -2.42988e-08 2.66129e-14)
(0.144411 -2.19034e-08 2.66287e-14)
(0.144411 -1.83807e-08 2.66265e-14)
(0.144411 -1.2176e-08 2.66796e-14)
(0.144411 5.708e-09 2.66582e-14)
(0.144411 2.86655e-08 2.66852e-14)
(0.144411 5.03284e-08 2.67738e-14)
(0.144411 6.76712e-08 2.67593e-14)
(0.144411 8.03814e-08 2.68033e-14)
(0.144411 8.93443e-08 2.67946e-14)
(0.144411 9.55561e-08 2.6823e-14)
(0.144411 9.97731e-08 2.69022e-14)
(0.144412 1.02538e-07 2.68952e-14)
(0.144412 1.0427e-07 2.69325e-14)