/*--------------------------------*- C++ -*----------------------------------*\
  =========                 |
  \\      /  F ield         | OpenFOAM: The Open Source CFD Toolbox
   \\    /   O peration     | Website:  https://openfoam.org
    \\  /    A nd           | Version:  7
     \\/     M anipulation  |
\*---------------------------------------------------------------------------*/
FoamFile
{
    version     2.0;
    format      ascii;
    class       volScalarField;
    location    "1500";
    object      omega;
}
// * * * * * * * * * * * * * * * * * * * * * * * * * * * * * * * * * * * * * //

dimensions      [0 0 -1 0 0 0 0];

internalField   nonuniform List<scalar> 
4037
(
0.609981
0.609978
0.60998
0.609982
0.609985
0.609988
0.609991
0.609994
0.609998
0.610002
0.610007
0.610011
0.610016
0.610021
0.610026
0.610031
0.610036
0.61004
0.610045
0.610049
0.610053
0.610057
0.61006
0.610063
0.610066
0.610068
0.61007
0.610071
0.610072
0.610073
0.610073
0.610073
0.610073
0.610073
0.610072
0.610071
0.61007
0.610069
0.610068
0.610066
0.610065
0.610064
0.610063
0.610061
0.61006
0.610059
0.610058
0.610057
0.610056
0.610055
0.610055
0.610054
0.610053
0.610053
0.610052
0.610052
0.610052
0.610051
0.610051
0.610051
0.610051
0.610051
0.610051
0.610051
0.610051
0.610051
0.610052
0.610052
0.610052
0.610052
0.610052
0.610052
0.610052
0.610052
0.610052
0.610052
0.610051
0.648419
0.648407
0.648403
0.648401
0.648399
0.648397
0.648395
0.648394
0.648392
0.648391
0.64839
0.648389
0.648388
0.648388
0.648387
0.648388
0.648388
0.648389
0.648389
0.648391
0.648392
0.648394
0.648396
0.648401
0.64842
0.648428
0.648433
0.648437
0.64844
0.648444
0.648447
0.648451
0.648455
0.64846
0.648464
0.648469
0.648474
0.648479
0.648484
0.648488
0.648493
0.648498
0.648502
0.648507
0.648511
0.648514
0.648517
0.64852
0.648523
0.648525
0.648526
0.648527
0.648528
0.648528
0.648528
0.648528
0.648527
0.648526
0.648525
0.648524
0.648523
0.648522
0.64852
0.648519
0.648517
0.648516
0.648514
0.648513
0.648511
0.64851
0.648509
0.648508
0.648507
0.648506
0.648505
0.648504
0.648503
0.648503
0.648502
0.648502
0.648501
0.648501
0.648501
0.648501
0.6485
0.6485
0.6485
0.6485
0.6485
0.648501
0.648501
0.648501
0.648501
0.648501
0.648501
0.648501
0.648501
0.648501
0.648501
0.6485
0.648503
0.648462
0.648453
0.648455
0.648457
0.64846
0.648461
0.648462
0.648463
0.648464
0.648464
0.648464
0.648464
0.648463
0.648463
0.648462
0.648461
0.64846
0.648457
0.648466
0.689476
0.689466
0.689462
0.689459
0.689457
0.689455
0.689453
0.68945
0.689449
0.689447
0.689445
0.689444
0.689443
0.689442
0.689442
0.689442
0.689442
0.689442
0.689443
0.689444
0.689446
0.689448
0.68945
0.689453
0.689464
0.689472
0.689478
0.689482
0.689486
0.689489
0.689493
0.689497
0.689502
0.689506
0.689511
0.689515
0.68952
0.689525
0.68953
0.689535
0.68954
0.689544
0.689549
0.689553
0.689556
0.68956
0.689563
0.689565
0.689567
0.689569
0.68957
0.689571
0.689572
0.689572
0.689571
0.689571
0.68957
0.689568
0.689567
0.689566
0.689564
0.689562
0.689561
0.689559
0.689557
0.689556
0.689554
0.689552
0.689551
0.689549
0.689548
0.689547
0.689546
0.689545
0.689544
0.689543
0.689542
0.689541
0.689541
0.68954
0.68954
0.689539
0.689539
0.689539
0.689538
0.689538
0.689538
0.689538
0.689538
0.689538
0.689538
0.689538
0.689538
0.689538
0.689538
0.689538
0.689538
0.689538
0.689538
0.689537
0.689539
0.689521
0.689509
0.689506
0.689505
0.689506
0.689507
0.689507
0.689507
0.689507
0.689507
0.689507
0.689506
0.689506
0.689505
0.689504
0.689503
0.689502
0.6895
0.689505
0.733412
0.733406
0.733402
0.733399
0.733396
0.733393
0.73339
0.733387
0.733385
0.733383
0.733381
0.733379
0.733378
0.733377
0.733377
0.733376
0.733376
0.733377
0.733377
0.733378
0.73338
0.733382
0.733384
0.733386
0.733392
0.733397
0.733402
0.733406
0.733409
0.733413
0.733417
0.733421
0.733425
0.73343
0.733434
0.733439
0.733444
0.733449
0.733453
0.733458
0.733463
0.733467
0.733471
0.733475
0.733479
0.733482
0.733485
0.733487
0.733489
0.73349
0.733491
0.733491
0.733492
0.733491
0.733491
0.73349
0.733488
0.733487
0.733485
0.733483
0.733482
0.73348
0.733478
0.733476
0.733474
0.733472
0.73347
0.733468
0.733467
0.733465
0.733464
0.733463
0.733461
0.73346
0.733459
0.733458
0.733457
0.733456
0.733456
0.733455
0.733455
0.733454
0.733454
0.733453
0.733453
0.733453
0.733453
0.733453
0.733452
0.733452
0.733452
0.733452
0.733452
0.733452
0.733452
0.733452
0.733452
0.733451
0.733451
0.73345
0.733451
0.733445
0.733438
0.733434
0.733432
0.733431
0.733431
0.733431
0.733431
0.733431
0.73343
0.73343
0.733429
0.733428
0.733427
0.733426
0.733425
0.733424
0.733422
0.733424
0.780566
0.780564
0.78056
0.780556
0.780552
0.780548
0.780545
0.780542
0.780539
0.780537
0.780534
0.780532
0.780531
0.78053
0.780529
0.780528
0.780528
0.780528
0.780529
0.78053
0.780531
0.780533
0.780535
0.780538
0.780541
0.780544
0.780548
0.780551
0.780554
0.780558
0.780561
0.780565
0.780569
0.780574
0.780578
0.780582
0.780587
0.780592
0.780596
0.780601
0.780605
0.780609
0.780613
0.780617
0.78062
0.780623
0.780626
0.780628
0.780629
0.78063
0.780631
0.780631
0.780631
0.78063
0.780629
0.780628
0.780626
0.780624
0.780622
0.78062
0.780618
0.780616
0.780614
0.780612
0.78061
0.780608
0.780606
0.780604
0.780602
0.780601
0.780599
0.780598
0.780596
0.780595
0.780594
0.780593
0.780592
0.780591
0.78059
0.78059
0.780589
0.780589
0.780588
0.780588
0.780587
0.780587
0.780587
0.780586
0.780586
0.780586
0.780586
0.780586
0.780586
0.780585
0.780585
0.780585
0.780585
0.780584
0.780584
0.780583
0.780583
0.780581
0.780578
0.780575
0.780574
0.780573
0.780572
0.780572
0.780571
0.780571
0.78057
0.78057
0.780569
0.780568
0.780566
0.780565
0.780564
0.780563
0.780561
0.780561
0.83134
0.831342
0.831338
0.831333
0.831329
0.831324
0.83132
0.831317
0.831313
0.83131
0.831308
0.831305
0.831304
0.831302
0.831301
0.8313
0.8313
0.8313
0.831301
0.831301
0.831303
0.831304
0.831306
0.831309
0.831312
0.831314
0.831316
0.831319
0.831322
0.831325
0.831328
0.831332
0.831335
0.831339
0.831344
0.831348
0.831352
0.831357
0.831361
0.831365
0.831369
0.831373
0.831377
0.83138
0.831383
0.831386
0.831388
0.83139
0.831391
0.831392
0.831392
0.831392
0.831391
0.83139
0.831389
0.831387
0.831385
0.831383
0.831381
0.831379
0.831376
0.831374
0.831372
0.831369
0.831367
0.831365
0.831363
0.831361
0.831359
0.831357
0.831356
0.831354
0.831353
0.831352
0.83135
0.831349
0.831348
0.831347
0.831347
0.831346
0.831345
0.831345
0.831344
0.831344
0.831343
0.831343
0.831342
0.831342
0.831342
0.831342
0.831341
0.831341
0.831341
0.831341
0.83134
0.83134
0.831339
0.831339
0.831338
0.831338
0.831337
0.831336
0.831336
0.831334
0.831333
0.831333
0.831332
0.831332
0.831331
0.831331
0.83133
0.831329
0.831328
0.831327
0.831326
0.831324
0.831323
0.831322
0.831321
0.831318
0.886209
0.886214
0.88621
0.886205
0.886199
0.886194
0.88619
0.886185
0.886181
0.886178
0.886175
0.886172
0.88617
0.886168
0.886167
0.886166
0.886166
0.886166
0.886166
0.886167
0.886168
0.88617
0.886172
0.886175
0.886177
0.886179
0.886181
0.886183
0.886185
0.886188
0.88619
0.886194
0.886197
0.886201
0.886205
0.886209
0.886213
0.886217
0.886221
0.886225
0.886229
0.886232
0.886236
0.886239
0.886241
0.886244
0.886245
0.886247
0.886248
0.886248
0.886248
0.886247
0.886246
0.886245
0.886243
0.886242
0.886239
0.886237
0.886235
0.886232
0.88623
0.886227
0.886225
0.886222
0.88622
0.886218
0.886215
0.886213
0.886211
0.88621
0.886208
0.886206
0.886205
0.886204
0.886202
0.886201
0.8862
0.886199
0.886198
0.886198
0.886197
0.886196
0.886196
0.886195
0.886194
0.886194
0.886194
0.886193
0.886193
0.886192
0.886192
0.886192
0.886191
0.886191
0.886191
0.88619
0.88619
0.886189
0.886188
0.886188
0.886187
0.886186
0.886186
0.886186
0.886186
0.886186
0.886185
0.886185
0.886185
0.886184
0.886183
0.886182
0.886181
0.88618
0.886179
0.886177
0.886176
0.886175
0.886175
0.886168
0.945733
0.945741
0.945737
0.945731
0.945725
0.945719
0.945714
0.945709
0.945704
0.9457
0.945697
0.945694
0.945692
0.94569
0.945688
0.945687
0.945687
0.945687
0.945687
0.945688
0.945689
0.94569
0.945692
0.945695
0.945697
0.945699
0.945701
0.945703
0.945705
0.945707
0.945709
0.945712
0.945715
0.945719
0.945722
0.945726
0.94573
0.945733
0.945737
0.945741
0.945744
0.945747
0.94575
0.945753
0.945755
0.945757
0.945759
0.94576
0.94576
0.94576
0.94576
0.945759
0.945758
0.945756
0.945754
0.945752
0.94575
0.945747
0.945744
0.945742
0.945739
0.945736
0.945734
0.945731
0.945729
0.945726
0.945724
0.945722
0.94572
0.945718
0.945716
0.945715
0.945713
0.945712
0.945711
0.94571
0.945709
0.945707
0.945707
0.945706
0.945705
0.945704
0.945703
0.945703
0.945702
0.945702
0.945701
0.945701
0.9457
0.9457
0.945699
0.945699
0.945699
0.945698
0.945698
0.945697
0.945696
0.945696
0.945695
0.945694
0.945693
0.945692
0.945692
0.945693
0.945693
0.945693
0.945693
0.945693
0.945693
0.945692
0.945692
0.945691
0.94569
0.945688
0.945687
0.945686
0.945684
0.945683
0.945684
0.945674
1.01058
1.01059
1.01059
1.01058
1.01057
1.01057
1.01056
1.01055
1.01055
1.01055
1.01054
1.01054
1.01054
1.01053
1.01053
1.01053
1.01053
1.01053
1.01053
1.01053
1.01053
1.01053
1.01054
1.01054
1.01054
1.01054
1.01054
1.01055
1.01055
1.01055
1.01055
1.01055
1.01056
1.01056
1.01056
1.01057
1.01057
1.01057
1.01058
1.01058
1.01058
1.01059
1.01059
1.01059
1.01059
1.01059
1.0106
1.0106
1.0106
1.0106
1.01059
1.01059
1.01059
1.01059
1.01059
1.01059
1.01058
1.01058
1.01058
1.01057
1.01057
1.01057
1.01057
1.01056
1.01056
1.01056
1.01056
1.01055
1.01055
1.01055
1.01055
1.01055
1.01055
1.01054
1.01054
1.01054
1.01054
1.01054
1.01054
1.01054
1.01054
1.01054
1.01054
1.01053
1.01053
1.01053
1.01053
1.01053
1.01053
1.01053
1.01053
1.01053
1.01053
1.01053
1.01053
1.01053
1.01053
1.01053
1.01052
1.01052
1.01052
1.01052
1.01052
1.01052
1.01052
1.01052
1.01052
1.01052
1.01052
1.01052
1.01052
1.01052
1.01052
1.01052
1.01052
1.01052
1.01052
1.01051
1.01052
1.0105
1.08155
1.08156
1.08156
1.08155
1.08154
1.08154
1.08153
1.08152
1.08152
1.08151
1.08151
1.0815
1.0815
1.0815
1.0815
1.0815
1.0815
1.08149
1.08149
1.0815
1.0815
1.0815
1.0815
1.0815
1.0815
1.08151
1.08151
1.08151
1.08151
1.08151
1.08152
1.08152
1.08152
1.08152
1.08153
1.08153
1.08153
1.08153
1.08154
1.08154
1.08154
1.08155
1.08155
1.08155
1.08155
1.08155
1.08155
1.08155
1.08155
1.08155
1.08155
1.08155
1.08155
1.08155
1.08154
1.08154
1.08154
1.08154
1.08153
1.08153
1.08153
1.08152
1.08152
1.08152
1.08152
1.08151
1.08151
1.08151
1.08151
1.08151
1.0815
1.0815
1.0815
1.0815
1.0815
1.0815
1.0815
1.08149
1.08149
1.08149
1.08149
1.08149
1.08149
1.08149
1.08149
1.08149
1.08149
1.08149
1.08149
1.08148
1.08148
1.08148
1.08148
1.08148
1.08148
1.08148
1.08148
1.08148
1.08148
1.08148
1.08148
1.08147
1.08147
1.08147
1.08147
1.08147
1.08147
1.08148
1.08148
1.08147
1.08147
1.08147
1.08147
1.08147
1.08147
1.08147
1.08147
1.08147
1.08147
1.08145
1.1596
1.15962
1.15962
1.15961
1.1596
1.15959
1.15958
1.15957
1.15957
1.15956
1.15956
1.15955
1.15955
1.15955
1.15955
1.15954
1.15954
1.15954
1.15954
1.15954
1.15954
1.15955
1.15955
1.15955
1.15955
1.15955
1.15956
1.15956
1.15956
1.15956
1.15956
1.15957
1.15957
1.15957
1.15957
1.15958
1.15958
1.15958
1.15958
1.15959
1.15959
1.15959
1.15959
1.15959
1.15959
1.1596
1.1596
1.1596
1.1596
1.15959
1.15959
1.15959
1.15959
1.15959
1.15958
1.15958
1.15958
1.15958
1.15957
1.15957
1.15957
1.15956
1.15956
1.15956
1.15956
1.15955
1.15955
1.15955
1.15955
1.15954
1.15954
1.15954
1.15954
1.15954
1.15954
1.15954
1.15953
1.15953
1.15953
1.15953
1.15953
1.15953
1.15953
1.15953
1.15953
1.15953
1.15952
1.15952
1.15952
1.15952
1.15952
1.15952
1.15952
1.15952
1.15952
1.15952
1.15952
1.15952
1.15951
1.15951
1.15951
1.15951
1.15951
1.15951
1.15951
1.15951
1.15951
1.15951
1.15951
1.15951
1.15951
1.15951
1.15951
1.15951
1.15951
1.15951
1.1595
1.1595
1.15951
1.15949
1.24591
1.24593
1.24592
1.24591
1.2459
1.24589
1.24588
1.24588
1.24587
1.24586
1.24586
1.24585
1.24585
1.24585
1.24585
1.24584
1.24584
1.24584
1.24584
1.24584
1.24584
1.24584
1.24585
1.24585
1.24585
1.24585
1.24586
1.24586
1.24586
1.24586
1.24586
1.24586
1.24587
1.24587
1.24587
1.24587
1.24588
1.24588
1.24588
1.24588
1.24588
1.24589
1.24589
1.24589
1.24589
1.24589
1.24589
1.24589
1.24589
1.24589
1.24589
1.24588
1.24588
1.24588
1.24588
1.24587
1.24587
1.24587
1.24586
1.24586
1.24586
1.24585
1.24585
1.24585
1.24585
1.24584
1.24584
1.24584
1.24584
1.24584
1.24583
1.24583
1.24583
1.24583
1.24583
1.24583
1.24582
1.24582
1.24582
1.24582
1.24582
1.24582
1.24582
1.24582
1.24582
1.24582
1.24581
1.24581
1.24581
1.24581
1.24581
1.24581
1.24581
1.24581
1.24581
1.24581
1.24581
1.2458
1.2458
1.2458
1.2458
1.2458
1.2458
1.2458
1.2458
1.2458
1.2458
1.2458
1.2458
1.2458
1.2458
1.2458
1.2458
1.2458
1.24579
1.24579
1.24579
1.24579
1.24579
1.24577
1.34189
1.34191
1.34191
1.3419
1.34189
1.34187
1.34186
1.34186
1.34185
1.34184
1.34184
1.34183
1.34183
1.34182
1.34182
1.34182
1.34182
1.34182
1.34182
1.34182
1.34182
1.34182
1.34182
1.34182
1.34183
1.34183
1.34183
1.34183
1.34184
1.34184
1.34184
1.34184
1.34184
1.34185
1.34185
1.34185
1.34185
1.34185
1.34185
1.34186
1.34186
1.34186
1.34186
1.34186
1.34186
1.34186
1.34186
1.34186
1.34186
1.34186
1.34186
1.34185
1.34185
1.34185
1.34185
1.34184
1.34184
1.34184
1.34183
1.34183
1.34183
1.34182
1.34182
1.34182
1.34182
1.34181
1.34181
1.34181
1.34181
1.3418
1.3418
1.3418
1.3418
1.3418
1.3418
1.3418
1.34179
1.34179
1.34179
1.34179
1.34179
1.34179
1.34179
1.34179
1.34179
1.34178
1.34178
1.34178
1.34178
1.34178
1.34178
1.34178
1.34178
1.34178
1.34178
1.34177
1.34177
1.34177
1.34177
1.34177
1.34177
1.34177
1.34177
1.34176
1.34176
1.34176
1.34176
1.34176
1.34176
1.34176
1.34176
1.34176
1.34176
1.34176
1.34176
1.34176
1.34176
1.34175
1.34176
1.34174
1.44931
1.44934
1.44933
1.44932
1.4493
1.44929
1.44928
1.44927
1.44926
1.44926
1.44925
1.44925
1.44924
1.44924
1.44924
1.44923
1.44923
1.44923
1.44923
1.44923
1.44923
1.44923
1.44924
1.44924
1.44924
1.44924
1.44925
1.44925
1.44925
1.44925
1.44925
1.44926
1.44926
1.44926
1.44926
1.44926
1.44926
1.44926
1.44927
1.44927
1.44927
1.44927
1.44927
1.44927
1.44927
1.44927
1.44927
1.44927
1.44927
1.44927
1.44926
1.44926
1.44926
1.44926
1.44925
1.44925
1.44925
1.44924
1.44924
1.44924
1.44923
1.44923
1.44923
1.44923
1.44922
1.44922
1.44922
1.44922
1.44921
1.44921
1.44921
1.44921
1.44921
1.44921
1.4492
1.4492
1.4492
1.4492
1.4492
1.4492
1.4492
1.4492
1.44919
1.44919
1.44919
1.44919
1.44919
1.44919
1.44919
1.44919
1.44919
1.44918
1.44918
1.44918
1.44918
1.44918
1.44918
1.44918
1.44918
1.44917
1.44917
1.44917
1.44917
1.44917
1.44917
1.44917
1.44917
1.44917
1.44917
1.44917
1.44917
1.44917
1.44916
1.44916
1.44916
1.44916
1.44916
1.44916
1.44916
1.44914
1.57036
1.57039
1.57038
1.57037
1.57035
1.57034
1.57032
1.57031
1.5703
1.5703
1.57029
1.57029
1.57028
1.57028
1.57027
1.57027
1.57027
1.57027
1.57027
1.57027
1.57027
1.57027
1.57027
1.57028
1.57028
1.57028
1.57028
1.57029
1.57029
1.57029
1.57029
1.57029
1.5703
1.5703
1.5703
1.5703
1.5703
1.5703
1.5703
1.5703
1.5703
1.57031
1.57031
1.57031
1.57031
1.57031
1.5703
1.5703
1.5703
1.5703
1.5703
1.57029
1.57029
1.57029
1.57029
1.57028
1.57028
1.57028
1.57027
1.57027
1.57027
1.57026
1.57026
1.57026
1.57026
1.57025
1.57025
1.57025
1.57025
1.57025
1.57024
1.57024
1.57024
1.57024
1.57024
1.57024
1.57023
1.57023
1.57023
1.57023
1.57023
1.57023
1.57023
1.57023
1.57022
1.57022
1.57022
1.57022
1.57022
1.57022
1.57022
1.57022
1.57022
1.57021
1.57021
1.57021
1.57021
1.57021
1.57021
1.57021
1.5702
1.5702
1.5702
1.5702
1.5702
1.5702
1.5702
1.5702
1.5702
1.5702
1.57019
1.57019
1.57019
1.57019
1.57019
1.57019
1.57019
1.57019
1.57019
1.57016
1.70778
1.70782
1.70781
1.70779
1.70777
1.70776
1.70774
1.70773
1.70772
1.70771
1.70771
1.7077
1.7077
1.70769
1.70769
1.70769
1.70769
1.70768
1.70768
1.70769
1.70769
1.70769
1.70769
1.70769
1.70769
1.7077
1.7077
1.7077
1.7077
1.70771
1.70771
1.70771
1.70771
1.70771
1.70771
1.70771
1.70772
1.70772
1.70772
1.70772
1.70772
1.70772
1.70772
1.70772
1.70772
1.70772
1.70772
1.70771
1.70771
1.70771
1.70771
1.70771
1.7077
1.7077
1.7077
1.70769
1.70769
1.70769
1.70768
1.70768
1.70768
1.70767
1.70767
1.70767
1.70767
1.70766
1.70766
1.70766
1.70766
1.70766
1.70765
1.70765
1.70765
1.70765
1.70765
1.70765
1.70764
1.70764
1.70764
1.70764
1.70764
1.70764
1.70764
1.70764
1.70763
1.70763
1.70763
1.70763
1.70763
1.70763
1.70763
1.70763
1.70762
1.70762
1.70762
1.70762
1.70762
1.70762
1.70762
1.70761
1.70761
1.70761
1.70761
1.70761
1.70761
1.7076
1.7076
1.7076
1.7076
1.7076
1.7076
1.7076
1.7076
1.7076
1.7076
1.7076
1.70759
1.70759
1.7076
1.70757
1.86508
1.86512
1.86511
1.86509
1.86507
1.86505
1.86504
1.86502
1.86501
1.865
1.86499
1.86499
1.86498
1.86498
1.86498
1.86497
1.86497
1.86497
1.86497
1.86497
1.86497
1.86497
1.86498
1.86498
1.86498
1.86498
1.86499
1.86499
1.86499
1.86499
1.865
1.865
1.865
1.865
1.865
1.865
1.865
1.865
1.865
1.865
1.865
1.865
1.865
1.865
1.865
1.865
1.865
1.865
1.865
1.86499
1.86499
1.86499
1.86499
1.86498
1.86498
1.86498
1.86497
1.86497
1.86497
1.86496
1.86496
1.86496
1.86495
1.86495
1.86495
1.86495
1.86494
1.86494
1.86494
1.86494
1.86494
1.86493
1.86493
1.86493
1.86493
1.86493
1.86493
1.86493
1.86492
1.86492
1.86492
1.86492
1.86492
1.86492
1.86492
1.86491
1.86491
1.86491
1.86491
1.86491
1.86491
1.86491
1.86491
1.8649
1.8649
1.8649
1.8649
1.8649
1.8649
1.86489
1.86489
1.86489
1.86489
1.86489
1.86489
1.86488
1.86488
1.86488
1.86488
1.86488
1.86488
1.86488
1.86488
1.86488
1.86487
1.86487
1.86487
1.86487
1.86488
1.86485
2.04675
2.04679
2.04677
2.04675
2.04673
2.04671
2.04669
2.04668
2.04666
2.04665
2.04664
2.04664
2.04663
2.04663
2.04663
2.04662
2.04662
2.04662
2.04662
2.04662
2.04662
2.04663
2.04663
2.04663
2.04664
2.04664
2.04664
2.04664
2.04665
2.04665
2.04665
2.04665
2.04665
2.04665
2.04665
2.04665
2.04665
2.04665
2.04665
2.04665
2.04665
2.04665
2.04665
2.04665
2.04665
2.04665
2.04665
2.04665
2.04664
2.04664
2.04664
2.04664
2.04663
2.04663
2.04663
2.04662
2.04662
2.04662
2.04661
2.04661
2.04661
2.04661
2.0466
2.0466
2.0466
2.04659
2.04659
2.04659
2.04659
2.04659
2.04658
2.04658
2.04658
2.04658
2.04658
2.04658
2.04657
2.04657
2.04657
2.04657
2.04657
2.04657
2.04657
2.04656
2.04656
2.04656
2.04656
2.04656
2.04656
2.04656
2.04655
2.04655
2.04655
2.04655
2.04655
2.04655
2.04655
2.04654
2.04654
2.04654
2.04654
2.04654
2.04653
2.04653
2.04653
2.04653
2.04653
2.04653
2.04653
2.04652
2.04652
2.04652
2.04652
2.04652
2.04652
2.04652
2.04652
2.04651
2.04652
2.04649
2.25864
2.25868
2.25866
2.25863
2.25861
2.25858
2.25856
2.25855
2.25853
2.25852
2.25851
2.25851
2.2585
2.2585
2.25849
2.25849
2.25849
2.25849
2.25849
2.25849
2.2585
2.2585
2.2585
2.2585
2.25851
2.25851
2.25851
2.25851
2.25852
2.25852
2.25852
2.25852
2.25852
2.25852
2.25852
2.25852
2.25852
2.25852
2.25852
2.25852
2.25852
2.25852
2.25852
2.25852
2.25852
2.25852
2.25851
2.25851
2.25851
2.25851
2.25851
2.2585
2.2585
2.2585
2.25849
2.25849
2.25849
2.25848
2.25848
2.25848
2.25847
2.25847
2.25847
2.25847
2.25846
2.25846
2.25846
2.25846
2.25845
2.25845
2.25845
2.25845
2.25845
2.25845
2.25844
2.25844
2.25844
2.25844
2.25844
2.25844
2.25843
2.25843
2.25843
2.25843
2.25843
2.25843
2.25842
2.25842
2.25842
2.25842
2.25842
2.25842
2.25842
2.25841
2.25841
2.25841
2.25841
2.25841
2.25841
2.2584
2.2584
2.2584
2.2584
2.2584
2.25839
2.25839
2.25839
2.25839
2.25839
2.25839
2.25839
2.25838
2.25838
2.25838
2.25838
2.25838
2.25838
2.25838
2.25839
2.25835
2.50848
2.50852
2.50849
2.50846
2.50843
2.5084
2.50838
2.50836
2.50835
2.50834
2.50833
2.50832
2.50832
2.50831
2.50831
2.50831
2.50831
2.50831
2.50831
2.50831
2.50831
2.50832
2.50832
2.50832
2.50833
2.50833
2.50833
2.50833
2.50834
2.50834
2.50834
2.50834
2.50834
2.50834
2.50834
2.50834
2.50834
2.50834
2.50834
2.50834
2.50834
2.50834
2.50834
2.50833
2.50833
2.50833
2.50833
2.50833
2.50833
2.50832
2.50832
2.50832
2.50832
2.50831
2.50831
2.50831
2.5083
2.5083
2.5083
2.50829
2.50829
2.50829
2.50828
2.50828
2.50828
2.50828
2.50827
2.50827
2.50827
2.50827
2.50827
2.50826
2.50826
2.50826
2.50826
2.50826
2.50825
2.50825
2.50825
2.50825
2.50825
2.50825
2.50824
2.50824
2.50824
2.50824
2.50824
2.50824
2.50824
2.50823
2.50823
2.50823
2.50823
2.50823
2.50823
2.50822
2.50822
2.50822
2.50822
2.50822
2.50821
2.50821
2.50821
2.50821
2.50821
2.50821
2.5082
2.5082
2.5082
2.5082
2.5082
2.5082
2.50819
2.50819
2.50819
2.50819
2.50819
2.50819
2.5082
2.50817
2.80664
2.80668
2.80665
2.80661
2.80658
2.80654
2.80652
2.8065
2.80648
2.80647
2.80646
2.80645
2.80645
2.80645
2.80645
2.80645
2.80645
2.80645
2.80645
2.80645
2.80645
2.80646
2.80646
2.80646
2.80647
2.80647
2.80647
2.80647
2.80648
2.80648
2.80648
2.80648
2.80648
2.80648
2.80648
2.80648
2.80648
2.80648
2.80648
2.80648
2.80648
2.80647
2.80647
2.80647
2.80647
2.80647
2.80647
2.80646
2.80646
2.80646
2.80646
2.80645
2.80645
2.80645
2.80645
2.80644
2.80644
2.80644
2.80643
2.80643
2.80643
2.80642
2.80642
2.80642
2.80641
2.80641
2.80641
2.80641
2.80641
2.8064
2.8064
2.8064
2.8064
2.80639
2.80639
2.80639
2.80639
2.80639
2.80639
2.80638
2.80638
2.80638
2.80638
2.80638
2.80638
2.80637
2.80637
2.80637
2.80637
2.80637
2.80637
2.80636
2.80636
2.80636
2.80636
2.80636
2.80636
2.80635
2.80635
2.80635
2.80635
2.80635
2.80634
2.80634
2.80634
2.80634
2.80634
2.80633
2.80633
2.80633
2.80633
2.80633
2.80633
2.80633
2.80632
2.80632
2.80632
2.80632
2.80634
2.8063
3.16728
3.16732
3.16729
3.16724
3.16719
3.16716
3.16713
3.1671
3.16709
3.16708
3.16707
3.16706
3.16706
3.16706
3.16706
3.16706
3.16706
3.16706
3.16706
3.16707
3.16707
3.16707
3.16708
3.16708
3.16708
3.16709
3.16709
3.16709
3.16709
3.16709
3.1671
3.1671
3.1671
3.1671
3.1671
3.16709
3.16709
3.16709
3.16709
3.16709
3.16709
3.16709
3.16709
3.16708
3.16708
3.16708
3.16708
3.16708
3.16707
3.16707
3.16707
3.16707
3.16706
3.16706
3.16706
3.16705
3.16705
3.16705
3.16704
3.16704
3.16704
3.16703
3.16703
3.16703
3.16703
3.16702
3.16702
3.16702
3.16702
3.16701
3.16701
3.16701
3.16701
3.16701
3.167
3.167
3.167
3.167
3.167
3.16699
3.16699
3.16699
3.16699
3.16699
3.16699
3.16698
3.16698
3.16698
3.16698
3.16698
3.16698
3.16697
3.16697
3.16697
3.16697
3.16697
3.16696
3.16696
3.16696
3.16696
3.16696
3.16696
3.16695
3.16695
3.16695
3.16695
3.16695
3.16694
3.16694
3.16694
3.16694
3.16694
3.16694
3.16693
3.16693
3.16693
3.16693
3.16693
3.16695
3.16691
3.61013
3.61016
3.61011
3.61005
3.60999
3.60995
3.60992
3.6099
3.60988
3.60987
3.60986
3.60986
3.60986
3.60986
3.60986
3.60986
3.60986
3.60987
3.60987
3.60987
3.60988
3.60988
3.60988
3.60989
3.60989
3.6099
3.6099
3.6099
3.6099
3.6099
3.6099
3.6099
3.6099
3.6099
3.6099
3.6099
3.6099
3.6099
3.6099
3.60989
3.60989
3.60989
3.60989
3.60989
3.60989
3.60988
3.60988
3.60988
3.60988
3.60987
3.60987
3.60987
3.60987
3.60986
3.60986
3.60986
3.60985
3.60985
3.60985
3.60984
3.60984
3.60984
3.60983
3.60983
3.60983
3.60982
3.60982
3.60982
3.60982
3.60981
3.60981
3.60981
3.60981
3.60981
3.6098
3.6098
3.6098
3.6098
3.6098
3.60979
3.60979
3.60979
3.60979
3.60979
3.60978
3.60978
3.60978
3.60978
3.60978
3.60978
3.60977
3.60977
3.60977
3.60977
3.60977
3.60977
3.60976
3.60976
3.60976
3.60976
3.60976
3.60976
3.60975
3.60975
3.60975
3.60975
3.60975
3.60974
3.60974
3.60974
3.60974
3.60974
3.60974
3.60973
3.60973
3.60973
3.60973
3.60974
3.60975
3.60972
4.16331
4.16333
4.16326
4.16318
4.16312
4.16307
4.16304
4.16302
4.163
4.16299
4.16299
4.16299
4.16299
4.16299
4.16299
4.163
4.163
4.16301
4.16301
4.16301
4.16302
4.16302
4.16303
4.16303
4.16304
4.16304
4.16304
4.16304
4.16304
4.16304
4.16304
4.16304
4.16304
4.16304
4.16304
4.16304
4.16304
4.16304
4.16304
4.16303
4.16303
4.16303
4.16303
4.16303
4.16302
4.16302
4.16302
4.16302
4.16301
4.16301
4.16301
4.16301
4.163
4.163
4.163
4.16299
4.16299
4.16298
4.16298
4.16298
4.16297
4.16297
4.16297
4.16296
4.16296
4.16296
4.16296
4.16295
4.16295
4.16295
4.16295
4.16294
4.16294
4.16294
4.16294
4.16293
4.16293
4.16293
4.16293
4.16293
4.16292
4.16292
4.16292
4.16292
4.16292
4.16292
4.16291
4.16291
4.16291
4.16291
4.16291
4.16291
4.1629
4.1629
4.1629
4.1629
4.1629
4.16289
4.16289
4.16289
4.16289
4.16289
4.16289
4.16289
4.16288
4.16288
4.16288
4.16288
4.16288
4.16287
4.16287
4.16287
4.16287
4.16287
4.16287
4.16287
4.16287
4.16287
4.16289
4.16287
4.86842
4.86843
4.86833
4.86823
4.86816
4.86811
4.86808
4.86806
4.86805
4.86805
4.86804
4.86805
4.86805
4.86805
4.86806
4.86806
4.86807
4.86807
4.86808
4.86808
4.86809
4.86809
4.8681
4.8681
4.8681
4.86811
4.86811
4.86811
4.86811
4.86811
4.86811
4.86811
4.86811
4.86811
4.86811
4.86811
4.8681
4.8681
4.8681
4.8681
4.8681
4.86809
4.86809
4.86809
4.86809
4.86809
4.86808
4.86808
4.86808
4.86807
4.86807
4.86807
4.86806
4.86806
4.86806
4.86805
4.86805
4.86804
4.86804
4.86804
4.86803
4.86803
4.86803
4.86802
4.86802
4.86802
4.86801
4.86801
4.86801
4.86801
4.868
4.868
4.868
4.868
4.86799
4.86799
4.86799
4.86799
4.86799
4.86798
4.86798
4.86798
4.86798
4.86798
4.86798
4.86797
4.86797
4.86797
4.86797
4.86797
4.86797
4.86796
4.86796
4.86796
4.86796
4.86796
4.86796
4.86795
4.86795
4.86795
4.86795
4.86795
4.86795
4.86795
4.86795
4.86794
4.86794
4.86794
4.86794
4.86793
4.86793
4.86793
4.86793
4.86793
4.86793
4.86793
4.86793
4.86794
4.86796
4.86795
5.79038
5.79035
5.79022
5.7901
5.79003
5.78998
5.78995
5.78994
5.78994
5.78994
5.78994
5.78994
5.78995
5.78996
5.78996
5.78997
5.78997
5.78998
5.78998
5.78999
5.78999
5.79
5.79
5.79001
5.79001
5.79001
5.79002
5.79002
5.79002
5.79002
5.79002
5.79002
5.79002
5.79002
5.79001
5.79001
5.79001
5.79001
5.79001
5.79
5.79
5.79
5.79
5.78999
5.78999
5.78999
5.78998
5.78998
5.78998
5.78997
5.78997
5.78997
5.78996
5.78996
5.78995
5.78995
5.78995
5.78994
5.78994
5.78993
5.78993
5.78993
5.78992
5.78992
5.78992
5.78991
5.78991
5.78991
5.78991
5.7899
5.7899
5.7899
5.7899
5.78989
5.78989
5.78989
5.78989
5.78988
5.78988
5.78988
5.78988
5.78988
5.78988
5.78987
5.78987
5.78987
5.78987
5.78987
5.78987
5.78986
5.78986
5.78986
5.78986
5.78986
5.78986
5.78985
5.78985
5.78985
5.78985
5.78985
5.78985
5.78985
5.78985
5.78985
5.78985
5.78984
5.78984
5.78984
5.78984
5.78984
5.78984
5.78984
5.78984
5.78984
5.78984
5.78984
5.78984
5.78986
5.78987
5.78988
7.04016
7.04008
7.03991
7.03978
7.03971
7.03967
7.03965
7.03965
7.03965
7.03966
7.03967
7.03967
7.03968
7.03969
7.0397
7.0397
7.03971
7.03972
7.03972
7.03973
7.03973
7.03974
7.03974
7.03975
7.03975
7.03975
7.03975
7.03975
7.03975
7.03975
7.03975
7.03975
7.03975
7.03975
7.03975
7.03975
7.03975
7.03974
7.03974
7.03974
7.03974
7.03973
7.03973
7.03972
7.03972
7.03972
7.03971
7.03971
7.0397
7.0397
7.0397
7.03969
7.03969
7.03968
7.03968
7.03967
7.03967
7.03966
7.03966
7.03966
7.03965
7.03965
7.03965
7.03964
7.03964
7.03964
7.03963
7.03963
7.03963
7.03963
7.03962
7.03962
7.03962
7.03962
7.03961
7.03961
7.03961
7.03961
7.03961
7.0396
7.0396
7.0396
7.0396
7.0396
7.0396
7.03959
7.03959
7.03959
7.03959
7.03959
7.03959
7.03959
7.03959
7.03958
7.03958
7.03958
7.03958
7.03958
7.03958
7.03958
7.03958
7.03958
7.03958
7.03958
7.03958
7.03957
7.03957
7.03957
7.03957
7.03957
7.03957
7.03957
7.03957
7.03957
7.03957
7.03958
7.03958
7.0396
7.03962
7.03964
8.83555
8.8354
8.8352
8.83508
8.83502
8.835
8.835
8.835
8.83501
8.83502
8.83503
8.83504
8.83505
8.83506
8.83507
8.83508
8.83508
8.83509
8.83509
8.8351
8.8351
8.83511
8.83511
8.83512
8.83512
8.83512
8.83512
8.83512
8.83512
8.83512
8.83512
8.83512
8.83512
8.83512
8.83512
8.83512
8.83512
8.83512
8.83511
8.83511
8.8351
8.8351
8.8351
8.83509
8.83509
8.83508
8.83508
8.83507
8.83507
8.83506
8.83506
8.83505
8.83505
8.83504
8.83504
8.83503
8.83503
8.83502
8.83502
8.83502
8.83501
8.83501
8.835
8.835
8.835
8.835
8.83499
8.83499
8.83499
8.83499
8.83498
8.83498
8.83498
8.83498
8.83498
8.83497
8.83497
8.83497
8.83497
8.83497
8.83496
8.83496
8.83496
8.83496
8.83496
8.83496
8.83496
8.83495
8.83495
8.83495
8.83495
8.83495
8.83495
8.83495
8.83495
8.83495
8.83495
8.83494
8.83494
8.83494
8.83494
8.83495
8.83495
8.83495
8.83494
8.83494
8.83494
8.83494
8.83494
8.83494
8.83494
8.83495
8.83495
8.83495
8.83496
8.83496
8.83497
8.83499
8.835
8.83505
11.6755
11.6753
11.6751
11.675
11.675
11.675
11.675
11.675
11.675
11.675
11.675
11.675
11.6751
11.6751
11.6751
11.6751
11.6751
11.6751
11.6751
11.6751
11.6751
11.6751
11.6751
11.6751
11.6751
11.6751
11.6751
11.6751
11.6751
11.6751
11.6751
11.6751
11.6751
11.6751
11.6751
11.6751
11.6751
11.6751
11.6751
11.6751
11.6751
11.6751
11.6751
11.6751
11.6751
11.6751
11.6751
11.6751
11.6751
11.675
11.675
11.675
11.675
11.675
11.675
11.675
11.675
11.675
11.675
11.675
11.675
11.675
11.675
11.675
11.675
11.675
11.675
11.675
11.675
11.675
11.675
11.675
11.675
11.675
11.675
11.675
11.675
11.675
11.675
11.675
11.675
11.675
11.675
11.675
11.675
11.675
11.675
11.675
11.6749
11.6749
11.6749
11.6749
11.6749
11.6749
11.6749
11.6749
11.6749
11.6749
11.6749
11.6749
11.6749
11.6749
11.6749
11.6749
11.6749
11.6749
11.6749
11.6749
11.6749
11.6749
11.675
11.675
11.675
11.675
11.675
11.675
11.675
11.675
11.675
11.6751
16.8474
16.8472
16.847
16.847
16.847
16.847
16.847
16.847
16.8471
16.8471
16.8471
16.8471
16.8471
16.8471
16.8471
16.8471
16.8471
16.8471
16.8471
16.8471
16.8471
16.8471
16.8471
16.8471
16.8471
16.8471
16.8471
16.8471
16.8471
16.8471
16.8471
16.8472
16.8472
16.8472
16.8471
16.8471
16.8471
16.8471
16.8471
16.8471
16.8471
16.8471
16.8471
16.8471
16.8471
16.8471
16.8471
16.8471
16.8471
16.8471
16.8471
16.8471
16.8471
16.8471
16.8471
16.8471
16.847
16.847
16.847
16.847
16.847
16.847
16.847
16.847
16.847
16.847
16.847
16.847
16.847
16.847
16.847
16.847
16.847
16.847
16.847
16.847
16.847
16.847
16.847
16.847
16.847
16.847
16.847
16.847
16.847
16.847
16.847
16.847
16.847
16.847
16.847
16.847
16.847
16.847
16.847
16.847
16.847
16.847
16.847
16.847
16.847
16.847
16.847
16.847
16.847
16.847
16.847
16.847
16.847
16.847
16.847
16.847
16.847
16.847
16.847
16.847
16.847
16.8471
16.8471
16.8472
28.0364
28.0362
28.0361
28.0361
28.0361
28.0362
28.0362
28.0362
28.0362
28.0362
28.0362
28.0362
28.0362
28.0362
28.0362
28.0362
28.0362
28.0362
28.0362
28.0362
28.0363
28.0363
28.0363
28.0363
28.0363
28.0363
28.0363
28.0363
28.0363
28.0363
28.0363
28.0363
28.0363
28.0363
28.0363
28.0363
28.0363
28.0363
28.0363
28.0363
28.0363
28.0362
28.0362
28.0362
28.0362
28.0362
28.0362
28.0362
28.0362
28.0362
28.0362
28.0362
28.0362
28.0362
28.0362
28.0362
28.0362
28.0362
28.0362
28.0362
28.0362