/*--------------------------------*- C++ -*----------------------------------*\
  =========                 |
  \\      /  F ield         | OpenFOAM: The Open Source CFD Toolbox
   \\    /   O peration     | Website:  https://openfoam.org
    \\  /    A nd           | Version:  7
     \\/     M anipulation  |
\*---------------------------------------------------------------------------*/
FoamFile
{
    version     2.0;
    format      ascii;
    class       volVectorField;
    location    "1500";
    object      U;
}
// * * * * * * * * * * * * * * * * * * * * * * * * * * * * * * * * * * * * * //

dimensions      [0 1 -1 0 0 0 0];

internalField   nonuniform List<vector> 
4037
(
(0.121343 -8.45399e-08 -2.65646e-16)
(0.121343 -7.9217e-08 -3.19127e-16)
(0.121343 -4.83142e-08 -5.37838e-16)
(0.121343 -3.46735e-08 -4.45685e-16)
(0.121343 -3.22319e-08 -6.77913e-16)
(0.121343 -3.61468e-08 -7.37072e-16)
(0.121343 -4.3942e-08 -8.05815e-16)
(0.121343 -5.43726e-08 -1.00305e-15)
(0.121343 -6.67077e-08 -8.32127e-16)
(0.121343 -8.04152e-08 -1.01026e-15)
(0.121343 -9.50707e-08 -1.11027e-15)
(0.121343 -1.1031e-07 -1.07695e-15)
(0.121343 -1.25805e-07 -1.26675e-15)
(0.121343 -1.4126e-07 -9.8303e-16)
(0.121343 -1.56399e-07 -1.10977e-15)
(0.121343 -1.70971e-07 -1.20745e-15)
(0.121343 -1.84751e-07 -1.05051e-15)
(0.121343 -1.97546e-07 -6.95963e-16)
(0.121343 -2.09201e-07 -6.14856e-16)
(0.121343 -2.196e-07 -5.06639e-16)
(0.121343 -2.28662e-07 -4.57404e-16)
(0.121343 -2.36333e-07 -4.16326e-16)
(0.121343 -2.42587e-07 -1.30302e-16)
(0.121343 -2.47412e-07 -2.12167e-16)
(0.121343 -2.50817e-07 -1.3302e-16)
(0.121343 -2.52833e-07 -1.3364e-16)
(0.121343 -2.53518e-07 -1.35577e-16)
(0.121343 -2.52959e-07 1.6603e-16)
(0.121343 -2.51274e-07 7.54154e-17)
(0.121342 -2.48608e-07 2.90617e-16)
(0.121342 -2.45122e-07 2.44006e-16)
(0.121342 -2.40983e-07 2.30809e-16)
(0.121342 -2.36353e-07 4.75353e-16)
(0.121342 -2.31383e-07 4.12246e-16)
(0.121342 -2.26201e-07 6.40716e-16)
(0.121342 -2.20913e-07 4.9186e-16)
(0.121342 -2.15601e-07 4.62994e-16)
(0.121341 -2.10324e-07 6.65291e-16)
(0.121341 -2.0512e-07 5.61467e-16)
(0.121341 -2.00008e-07 7.62487e-16)
(0.121341 -1.94995e-07 6.88817e-16)
(0.121341 -1.90074e-07 6.52916e-16)
(0.121341 -1.85229e-07 9.27733e-16)
(0.121341 -1.80437e-07 8.02729e-16)
(0.12134 -1.75673e-07 9.32779e-16)
(0.12134 -1.70908e-07 8.29553e-16)
(0.12134 -1.66116e-07 7.72268e-16)
(0.12134 -1.61274e-07 9.86037e-16)
(0.12134 -1.56365e-07 8.89952e-16)
(0.12134 -1.51379e-07 1.06027e-15)
(0.12134 -1.46311e-07 9.76484e-16)
(0.12134 -1.41165e-07 9.13384e-16)
(0.12134 -1.35951e-07 1.17267e-15)
(0.121339 -1.30684e-07 1.04392e-15)
(0.121339 -1.25381e-07 1.25926e-15)
(0.121339 -1.20061e-07 1.10393e-15)
(0.121339 -1.14743e-07 1.03074e-15)
(0.121339 -1.09443e-07 1.00962e-15)
(0.121339 -1.04174e-07 1.0155e-15)
(0.121339 -9.89441e-08 1.03384e-15)
(0.121339 -9.37541e-08 1.05867e-15)
(0.121339 -8.85974e-08 1.07848e-15)
(0.121339 -8.34569e-08 1.0906e-15)
(0.121339 -7.83073e-08 1.09875e-15)
(0.121339 -7.31081e-08 1.11026e-15)
(0.121339 -6.78136e-08 1.13108e-15)
(0.121339 -6.23516e-08 1.13855e-15)
(0.121338 -5.66608e-08 1.15186e-15)
(0.121338 -5.06168e-08 1.16233e-15)
(0.121338 -4.41668e-08 1.15374e-15)
(0.121338 -3.70576e-08 1.16266e-15)
(0.121338 -2.93566e-08 1.18669e-15)
(0.121338 -2.02808e-08 1.20674e-15)
(0.121338 -1.08488e-08 1.22048e-15)
(0.121338 4.5545e-09 1.22405e-15)
(0.121338 1.20012e-08 1.24005e-15)
(0.121338 1.11668e-07 1.25629e-15)
(0.120268 1.0736e-07 1.30065e-15)
(0.120268 2.1414e-07 9.25753e-16)
(0.120269 3.04631e-07 8.97545e-16)
(0.120269 3.34456e-07 1.01275e-15)
(0.120269 3.42746e-07 1.01971e-15)
(0.120269 3.32529e-07 1.12664e-15)
(0.120269 3.14084e-07 1.13134e-15)
(0.120269 2.93819e-07 1.07284e-15)
(0.12027 2.74361e-07 1.11135e-15)
(0.12027 2.57231e-07 1.05412e-15)
(0.12027 2.42879e-07 9.93326e-16)
(0.12027 2.31234e-07 8.79124e-16)
(0.12027 2.21961e-07 8.33941e-16)
(0.12027 2.14583e-07 7.39646e-16)
(0.12027 2.08524e-07 7.71536e-16)
(0.12027 2.03228e-07 7.01757e-16)
(0.12027 1.98077e-07 6.56893e-16)
(0.120271 1.92548e-07 6.18659e-16)
(0.120271 1.86074e-07 5.64708e-16)
(0.120271 1.77749e-07 5.87235e-16)
(0.120271 1.68113e-07 4.24129e-16)
(0.120271 1.5054e-07 2.28205e-16)
(0.120271 1.4133e-07 2.05307e-16)
(0.120271 2.87779e-08 -6.82452e-18)
(0.120271 -8.60217e-08 -1.35007e-16)
(0.120271 -6.66686e-08 -2.0916e-16)
(0.120271 -4.20909e-08 -4.56982e-16)
(0.120271 -3.40624e-08 -4.07769e-16)
(0.120271 -3.39511e-08 -5.49568e-16)
(0.120271 -3.88192e-08 -6.43183e-16)
(0.120271 -4.69696e-08 -6.70573e-16)
(0.120271 -5.7433e-08 -8.91407e-16)
(0.120271 -6.95951e-08 -7.80211e-16)
(0.120271 -8.29837e-08 -8.90465e-16)
(0.120271 -9.72101e-08 -9.53757e-16)
(0.120271 -1.11932e-07 -9.37771e-16)
(0.120271 -1.26839e-07 -1.10242e-15)
(0.120271 -1.41644e-07 -9.46098e-16)
(0.120271 -1.56082e-07 -1.03206e-15)
(0.120271 -1.69909e-07 -1.09206e-15)
(0.120271 -1.82905e-07 -9.92877e-16)
(0.120271 -1.94884e-07 -7.21346e-16)
(0.120271 -2.05698e-07 -5.75219e-16)
(0.120271 -2.15236e-07 -5.38334e-16)
(0.120271 -2.23423e-07 -4.28594e-16)
(0.120271 -2.30214e-07 -3.87484e-16)
(0.12027 -2.35587e-07 -2.11065e-16)
(0.12027 -2.3954e-07 -1.62619e-16)
(0.12027 -2.42088e-07 -1.64681e-16)
(0.12027 -2.43269e-07 -9.59783e-17)
(0.12027 -2.43149e-07 -1.0065e-16)
(0.12027 -2.41826e-07 8.87127e-17)
(0.12027 -2.39428e-07 1.12761e-16)
(0.12027 -2.36106e-07 2.85679e-16)
(0.12027 -2.3203e-07 2.94948e-16)
(0.12027 -2.27373e-07 2.79874e-16)
(0.120269 -2.22302e-07 4.52396e-16)
(0.120269 -2.1697e-07 4.53302e-16)
(0.120269 -2.11507e-07 5.73885e-16)
(0.120269 -2.06017e-07 5.53115e-16)
(0.120269 -2.00581e-07 5.0684e-16)
(0.120269 -1.95255e-07 6.41866e-16)
(0.120269 -1.90071e-07 6.1646e-16)
(0.120268 -1.85047e-07 7.59676e-16)
(0.120268 -1.80183e-07 7.47009e-16)
(0.120268 -1.75465e-07 6.99532e-16)
(0.120268 -1.70873e-07 8.58852e-16)
(0.120268 -1.66377e-07 8.22891e-16)
(0.120268 -1.61947e-07 9.12276e-16)
(0.120268 -1.57547e-07 8.84712e-16)
(0.120268 -1.53145e-07 8.24629e-16)
(0.120267 -1.48712e-07 9.69178e-16)
(0.120267 -1.44227e-07 9.34236e-16)
(0.120267 -1.39674e-07 1.0444e-15)
(0.120267 -1.35044e-07 1.02624e-15)
(0.120267 -1.30338e-07 9.62183e-16)
(0.120267 -1.25563e-07 1.09454e-15)
(0.120267 -1.2073e-07 1.07268e-15)
(0.120267 -1.15854e-07 1.19247e-15)
(0.120267 -1.10952e-07 1.15112e-15)
(0.120267 -1.06042e-07 1.08827e-15)
(0.120267 -1.01138e-07 1.05163e-15)
(0.120266 -9.62529e-08 1.04113e-15)
(0.120266 -9.13945e-08 1.04229e-15)
(0.120266 -8.65631e-08 1.05135e-15)
(0.120266 -8.17525e-08 1.06028e-15)
(0.120266 -7.69458e-08 1.06992e-15)
(0.120266 -7.21184e-08 1.07839e-15)
(0.120266 -6.72307e-08 1.08612e-15)
(0.120266 -6.2238e-08 1.09852e-15)
(0.120266 -5.70695e-08 1.10701e-15)
(0.120266 -5.16653e-08 1.11987e-15)
(0.120266 -4.59037e-08 1.13295e-15)
(0.120266 -3.97335e-08 1.12938e-15)
(0.120266 -3.29089e-08 1.13528e-15)
(0.120266 -2.54937e-08 1.15271e-15)
(0.120266 -1.67552e-08 1.1737e-15)
(0.120266 -7.59481e-09 1.19064e-15)
(0.120266 6.81599e-09 1.19763e-15)
(0.120266 1.49715e-08 1.20893e-15)
(0.120266 9.60864e-08 1.22423e-15)
(0.120266 2.02026e-07 1.24081e-15)
(0.120266 2.18751e-07 1.25043e-15)
(0.120267 2.05054e-07 1.2504e-15)
(0.120267 1.94395e-07 1.25775e-15)
(0.120267 1.91739e-07 1.25833e-15)
(0.120267 1.9443e-07 1.25844e-15)
(0.120267 2.00836e-07 1.25744e-15)
(0.120267 2.09998e-07 1.2522e-15)
(0.120267 2.21923e-07 1.2583e-15)
(0.120267 2.3584e-07 1.26085e-15)
(0.120267 2.52507e-07 1.25759e-15)
(0.120267 2.69835e-07 1.24572e-15)
(0.120267 2.89593e-07 1.23133e-15)
(0.120267 3.0636e-07 1.22806e-15)
(0.120267 3.2219e-07 1.22693e-15)
(0.120267 3.28135e-07 1.2204e-15)
(0.120267 3.13563e-07 1.21101e-15)
(0.120268 2.89091e-07 1.20219e-15)
(0.120267 1.7264e-07 1.17985e-15)
(0.119155 6.40369e-08 1.31577e-15)
(0.119155 1.82959e-07 8.56048e-16)
(0.119156 2.80253e-07 8.82922e-16)
(0.119156 3.15447e-07 1.00993e-15)
(0.119156 3.26502e-07 1.00716e-15)
(0.119156 3.17403e-07 1.07025e-15)
(0.119156 2.99604e-07 1.05961e-15)
(0.119156 2.79804e-07 1.08601e-15)
(0.119156 2.60769e-07 1.05289e-15)
(0.119157 2.44054e-07 9.73553e-16)
(0.119157 2.30104e-07 1.0018e-15)
(0.119157 2.18843e-07 7.35141e-16)
(0.119157 2.09929e-07 8.57275e-16)
(0.119157 2.02881e-07 6.11611e-16)
(0.119157 1.97119e-07 8.39263e-16)
(0.119157 1.92088e-07 7.75662e-16)
(0.119157 1.87181e-07 5.93585e-16)
(0.119157 1.8187e-07 6.74321e-16)
(0.119158 1.75624e-07 4.99555e-16)
(0.119158 1.67486e-07 6.64605e-16)
(0.119158 1.58121e-07 4.74733e-16)
(0.119158 1.40797e-07 3.03577e-16)
(0.119158 1.3074e-07 2.64352e-16)
(0.119158 4.14219e-08 2.71934e-18)
(0.119157 -4.38009e-08 -3.29167e-17)
(0.119157 -3.23831e-08 -1.38186e-16)
(0.119157 -2.76046e-08 -4.23163e-16)
(0.119157 -2.85375e-08 -3.3425e-16)
(0.119157 -3.21509e-08 -5.11732e-16)
(0.119157 -3.8798e-08 -4.96899e-16)
(0.119157 -4.78174e-08 -5.50408e-16)
(0.119157 -5.86475e-08 -8.15708e-16)
(0.119157 -7.08628e-08 -6.85604e-16)
(0.119157 -8.40915e-08 -8.42265e-16)
(0.119157 -9.8004e-08 -8.02371e-16)
(0.119157 -1.12296e-07 -8.07464e-16)
(0.119157 -1.26682e-07 -1.02802e-15)
(0.119157 -1.40894e-07 -8.53444e-16)
(0.119157 -1.54681e-07 -9.79548e-16)
(0.119157 -1.67808e-07 -9.32242e-16)
(0.119157 -1.80067e-07 -8.71023e-16)
(0.119157 -1.91279e-07 -6.65759e-16)
(0.119157 -2.01303e-07 -5.16198e-16)
(0.119157 -2.10036e-07 -4.46132e-16)
(0.119156 -2.1741e-07 -3.70498e-16)
(0.119156 -2.23388e-07 -3.35979e-16)
(0.119156 -2.27955e-07 -1.90507e-16)
(0.119156 -2.31112e-07 -1.15746e-16)
(0.119156 -2.32885e-07 -7.3356e-17)
(0.119156 -2.33317e-07 -5.15299e-17)
(0.119156 -2.32483e-07 -5.8262e-17)
(0.119156 -2.30488e-07 8.68376e-17)
(0.119156 -2.27467e-07 1.41136e-16)
(0.119156 -2.23581e-07 2.81201e-16)
(0.119156 -2.19005e-07 3.38331e-16)
(0.119155 -2.13917e-07 3.30151e-16)
(0.119155 -2.08489e-07 4.60202e-16)
(0.119155 -2.02874e-07 4.81976e-16)
(0.119155 -1.97202e-07 5.79802e-16)
(0.119155 -1.91577e-07 5.93852e-16)
(0.119155 -1.86076e-07 5.52416e-16)
(0.119155 -1.80753e-07 6.53199e-16)
(0.119154 -1.75636e-07 6.56584e-16)
(0.119154 -1.70736e-07 7.63649e-16)
(0.119154 -1.6605e-07 7.83391e-16)
(0.119154 -1.61559e-07 7.42274e-16)
(0.119154 -1.57236e-07 8.47276e-16)
(0.119154 -1.53048e-07 8.40644e-16)
(0.119154 -1.48955e-07 9.14838e-16)
(0.119154 -1.44918e-07 9.18696e-16)
(0.119153 -1.40899e-07 8.66293e-16)
(0.119153 -1.36865e-07 9.63467e-16)
(0.119153 -1.32789e-07 9.61059e-16)
(0.119153 -1.28651e-07 1.04543e-15)
(0.119153 -1.24439e-07 1.05489e-15)
(0.119153 -1.2015e-07 9.99142e-16)
(0.119153 -1.15788e-07 1.09058e-15)
(0.119153 -1.11363e-07 1.08954e-15)
(0.119153 -1.06886e-07 1.17589e-15)
(0.119153 -1.02374e-07 1.17634e-15)
(0.119153 -9.78432e-08 1.12883e-15)
(0.119152 -9.33074e-08 1.08808e-15)
(0.119152 -8.87786e-08 1.06548e-15)
(0.119152 -8.4264e-08 1.05077e-15)
(0.119152 -7.97646e-08 1.04661e-15)
(0.119152 -7.52743e-08 1.04647e-15)
(0.119152 -7.0777e-08 1.05264e-15)
(0.119152 -6.62488e-08 1.06017e-15)
(0.119152 -6.16512e-08 1.06241e-15)
(0.119152 -5.69406e-08 1.06962e-15)
(0.119152 -5.20479e-08 1.07607e-15)
(0.119152 -4.69148e-08 1.08999e-15)
(0.119152 -4.14221e-08 1.10582e-15)
(0.119152 -3.55207e-08 1.10552e-15)
(0.119152 -2.89727e-08 1.10992e-15)
(0.119152 -2.18361e-08 1.12316e-15)
(0.119152 -1.3441e-08 1.14414e-15)
(0.119152 -4.52404e-09 1.16333e-15)
(0.119152 8.5978e-09 1.1705e-15)
(0.119152 1.87407e-08 1.17949e-15)
(0.119152 5.90609e-08 1.19272e-15)
(0.119152 1.3467e-07 1.20994e-15)
(0.119153 1.80278e-07 1.22154e-15)
(0.119153 1.88515e-07 1.22252e-15)
(0.119153 1.86836e-07 1.22539e-15)
(0.119153 1.87154e-07 1.2254e-15)
(0.119153 1.90859e-07 1.22767e-15)
(0.119153 1.97625e-07 1.23121e-15)
(0.119154 2.06828e-07 1.22872e-15)
(0.119154 2.18567e-07 1.23113e-15)
(0.119154 2.32129e-07 1.2335e-15)
(0.119154 2.48245e-07 1.23063e-15)
(0.119154 2.64886e-07 1.22122e-15)
(0.119154 2.83633e-07 1.20613e-15)
(0.119154 2.9932e-07 1.19795e-15)
(0.119154 3.13102e-07 1.19581e-15)
(0.119154 3.17411e-07 1.19183e-15)
(0.119154 2.97129e-07 1.18506e-15)
(0.119154 2.69579e-07 1.17536e-15)
(0.119154 1.38213e-07 1.14606e-15)
(0.117999 2.01134e-08 1.22932e-15)
(0.117999 1.5367e-07 8.90549e-16)
(0.117999 2.58046e-07 9.16904e-16)
(0.117999 2.9751e-07 1.05129e-15)
(0.117999 3.1076e-07 1.00026e-15)
(0.117999 3.0257e-07 1.03744e-15)
(0.118 2.85331e-07 9.86815e-16)
(0.118 2.65959e-07 9.86214e-16)
(0.118 2.47335e-07 9.79959e-16)
(0.118 2.31036e-07 8.78658e-16)
(0.118 2.17493e-07 8.85872e-16)
(0.118 2.06622e-07 7.54348e-16)
(0.118 1.98073e-07 7.98814e-16)
(0.118 1.91357e-07 6.6449e-16)
(0.118001 1.85898e-07 8.47205e-16)
(0.118001 1.81137e-07 6.53365e-16)
(0.118001 1.7648e-07 6.12397e-16)
(0.118001 1.71397e-07 6.40014e-16)
(0.118001 1.65392e-07 5.20145e-16)
(0.118001 1.57472e-07 7.31113e-16)
(0.118001 1.48375e-07 4.52837e-16)
(0.118001 1.31605e-07 3.53395e-16)
(0.118001 1.19981e-07 3.16201e-16)
(0.118001 6.35887e-08 7.12219e-17)
(0.118001 4.68307e-09 6.57055e-17)
(0.118001 -1.54608e-09 -1.81366e-16)
(0.118001 -1.09505e-08 -3.46829e-16)
(0.118001 -1.97452e-08 -2.16825e-16)
(0.118 -2.76746e-08 -4.30957e-16)
(0.118 -3.6654e-08 -3.43174e-16)
(0.118 -4.69149e-08 -4.37869e-16)
(0.118 -5.83667e-08 -6.93447e-16)
(0.118 -7.08165e-08 -5.40371e-16)
(0.118 -8.40182e-08 -6.83135e-16)
(0.118 -9.77171e-08 -6.22887e-16)
(0.118 -1.11657e-07 -6.68144e-16)
(0.118 -1.25586e-07 -8.9462e-16)
(0.118 -1.39258e-07 -6.9974e-16)
(0.118 -1.52441e-07 -8.04012e-16)
(0.118 -1.64914e-07 -7.45279e-16)
(0.118 -1.7648e-07 -7.08446e-16)
(0.118 -1.8697e-07 -5.38703e-16)
(0.118 -1.96252e-07 -4.23739e-16)
(0.118 -2.04232e-07 -3.55835e-16)
(0.118 -2.10849e-07 -2.9454e-16)
(0.118 -2.16074e-07 -2.69925e-16)
(0.118 -2.19898e-07 -1.2514e-16)
(0.118 -2.2233e-07 -5.72307e-17)
(0.118 -2.234e-07 -2.04887e-17)
(0.118 -2.2316e-07 8.30456e-19)
(0.117999 -2.21692e-07 -9.89406e-18)
(0.117999 -2.19106e-07 1.29557e-16)
(0.117999 -2.15545e-07 1.78847e-16)
(0.117999 -2.11177e-07 3.23269e-16)
(0.117999 -2.06181e-07 3.84803e-16)
(0.117999 -2.00741e-07 3.77713e-16)
(0.117999 -1.95028e-07 5.01289e-16)
(0.117999 -1.89199e-07 5.13015e-16)
(0.117999 -1.83381e-07 6.11659e-16)
(0.117998 -1.77677e-07 6.29636e-16)
(0.117998 -1.72161e-07 5.93207e-16)
(0.117998 -1.66882e-07 6.95374e-16)
(0.117998 -1.61866e-07 6.93133e-16)
(0.117998 -1.57119e-07 7.93818e-16)
(0.117998 -1.52631e-07 8.15339e-16)
(0.117998 -1.4838e-07 7.77356e-16)
(0.117997 -1.44333e-07 8.74936e-16)
(0.117997 -1.4045e-07 8.61965e-16)
(0.117997 -1.3669e-07 9.40513e-16)
(0.117997 -1.33006e-07 9.45967e-16)
(0.117997 -1.29356e-07 8.97825e-16)
(0.117997 -1.25702e-07 9.92333e-16)
(0.117997 -1.22013e-07 9.83726e-16)
(0.117997 -1.18266e-07 1.06749e-15)
(0.117997 -1.14446e-07 1.07687e-15)
(0.117996 -1.10547e-07 1.02562e-15)
(0.117996 -1.0657e-07 1.11482e-15)
(0.117996 -1.02523e-07 1.10416e-15)
(0.117996 -9.84176e-08 1.18864e-15)
(0.117996 -9.42675e-08 1.19497e-15)
(0.117996 -9.00878e-08 1.1549e-15)
(0.117996 -8.58928e-08 1.11684e-15)
(0.117996 -8.16937e-08 1.08592e-15)
(0.117996 -7.7498e-08 1.05582e-15)
(0.117996 -7.33067e-08 1.04056e-15)
(0.117996 -6.91143e-08 1.03266e-15)
(0.117996 -6.49054e-08 1.03718e-15)
(0.117996 -6.0657e-08 1.04359e-15)
(0.117996 -5.63316e-08 1.03887e-15)
(0.117996 -5.18871e-08 1.04303e-15)
(0.117996 -4.72561e-08 1.04696e-15)
(0.117995 -4.23817e-08 1.06309e-15)
(0.117995 -3.71479e-08 1.08146e-15)
(0.117995 -3.1507e-08 1.08067e-15)
(0.117995 -2.523e-08 1.08553e-15)
(0.117995 -1.83676e-08 1.09586e-15)
(0.117995 -1.03205e-08 1.11888e-15)
(0.117995 -1.63389e-09 1.13935e-15)
(0.117995 1.00815e-08 1.14331e-15)
(0.117995 2.26347e-08 1.15124e-15)
(0.117995 2.57797e-08 1.16351e-15)
(0.117996 6.89651e-08 1.18206e-15)
(0.117996 1.36038e-07 1.19461e-15)
(0.117996 1.64591e-07 1.19387e-15)
(0.117997 1.73707e-07 1.19455e-15)
(0.117997 1.7886e-07 1.1941e-15)
(0.117997 1.84695e-07 1.20033e-15)
(0.117997 1.92451e-07 1.20738e-15)
(0.117997 2.02087e-07 1.20489e-15)
(0.117997 2.1391e-07 1.20578e-15)
(0.117997 2.27315e-07 1.2082e-15)
(0.117997 2.4303e-07 1.20565e-15)
(0.117997 2.59112e-07 1.19679e-15)
(0.117997 2.7696e-07 1.17962e-15)
(0.117997 2.91686e-07 1.16992e-15)
(0.117997 3.03567e-07 1.16787e-15)
(0.117997 3.06426e-07 1.16537e-15)
(0.117997 2.80707e-07 1.15917e-15)
(0.117998 2.50508e-07 1.14656e-15)
(0.117998 1.0306e-07 1.11902e-15)
(0.116797 -2.46822e-08 1.15512e-15)
(0.116798 1.28102e-07 9.27682e-16)
(0.116798 2.38344e-07 1.00128e-15)
(0.116798 2.80973e-07 1.17388e-15)
(0.116798 2.95823e-07 9.77339e-16)
(0.116798 2.88271e-07 1.02172e-15)
(0.116798 2.71473e-07 8.97123e-16)
(0.116799 2.52479e-07 8.94298e-16)
(0.116799 2.34248e-07 9.06257e-16)
(0.116799 2.18358e-07 7.57027e-16)
(0.116799 2.05222e-07 7.74763e-16)
(0.116799 1.94738e-07 7.37401e-16)
(0.116799 1.86548e-07 7.50016e-16)
(0.116799 1.80159e-07 6.86346e-16)
(0.116799 1.74994e-07 7.74378e-16)
(0.116799 1.70496e-07 6.94405e-16)
(0.1168 1.66082e-07 6.3318e-16)
(0.1168 1.61224e-07 6.18971e-16)
(0.1168 1.55459e-07 5.33728e-16)
(0.1168 1.4777e-07 6e-16)
(0.1168 1.38935e-07 4.84512e-16)
(0.1168 1.22843e-07 3.99561e-16)
(0.1168 1.10097e-07 3.5574e-16)
(0.1168 6.94183e-08 2.06972e-16)
(0.1168 2.9341e-08 1.73525e-16)
(0.1168 2.14809e-08 7.22934e-17)
(0.1168 5.4744e-09 -6.12639e-17)
(0.1168 -9.35924e-09 -5.72592e-17)
(0.1168 -2.13999e-08 -1.64563e-16)
(0.116799 -3.28569e-08 -1.61021e-16)
(0.116799 -4.45369e-08 -2.28514e-16)
(0.116799 -5.67562e-08 -3.58584e-16)
(0.116799 -6.95535e-08 -3.4419e-16)
(0.116799 -8.28162e-08 -4.30935e-16)
(0.116799 -9.63717e-08 -4.05519e-16)
(0.116799 -1.10017e-07 -4.35751e-16)
(0.116799 -1.23538e-07 -5.49576e-16)
(0.116799 -1.36716e-07 -4.87555e-16)
(0.116799 -1.49338e-07 -5.45899e-16)
(0.116799 -1.612e-07 -5.11062e-16)
(0.116799 -1.72118e-07 -5.19457e-16)
(0.116799 -1.81934e-07 -3.48278e-16)
(0.116799 -1.90526e-07 -3.04155e-16)
(0.116799 -1.97809e-07 -2.52145e-16)
(0.116799 -2.03731e-07 -2.05735e-16)
(0.116799 -2.08269e-07 -1.93278e-16)
(0.116799 -2.11421e-07 -1.41974e-17)
(0.116799 -2.13204e-07 1.21409e-17)
(0.116799 -2.13652e-07 4.2522e-17)
(0.116798 -2.12824e-07 5.88762e-17)
(0.116798 -2.10806e-07 4.31105e-17)
(0.116798 -2.07716e-07 2.16734e-16)
(0.116798 -2.03702e-07 2.25111e-16)
(0.116798 -1.98936e-07 4.0426e-16)
(0.116798 -1.93603e-07 4.34675e-16)
(0.116798 -1.87887e-07 4.24142e-16)
(0.116798 -1.81964e-07 5.79779e-16)
(0.116798 -1.75986e-07 5.46587e-16)
(0.116797 -1.70083e-07 6.75777e-16)
(0.116797 -1.64354e-07 6.63615e-16)
(0.116797 -1.58869e-07 6.28915e-16)
(0.116797 -1.53673e-07 7.69884e-16)
(0.116797 -1.48789e-07 7.25926e-16)
(0.116797 -1.44217e-07 8.54284e-16)
(0.116797 -1.39943e-07 8.44662e-16)
(0.116797 -1.35941e-07 8.06072e-16)
(0.116796 -1.32173e-07 9.37782e-16)
(0.116796 -1.28595e-07 8.82888e-16)
(0.116796 -1.25159e-07 9.93961e-16)
(0.116796 -1.21815e-07 9.68267e-16)
(0.116796 -1.18519e-07 9.21067e-16)
(0.116796 -1.15226e-07 1.05275e-15)
(0.116796 -1.11903e-07 1.00206e-15)
(0.116796 -1.08524e-07 1.11532e-15)
(0.116796 -1.0507e-07 1.09434e-15)
(0.116795 -1.01535e-07 1.04423e-15)
(0.116795 -9.79165e-08 1.16887e-15)
(0.116795 -9.42212e-08 1.11503e-15)
(0.116795 -9.04591e-08 1.23009e-15)
(0.116795 -8.66437e-08 1.20967e-15)
(0.116795 -8.27892e-08 1.16885e-15)
(0.116795 -7.89092e-08 1.13855e-15)
(0.116795 -7.5015e-08 1.10032e-15)
(0.116795 -7.11142e-08 1.05322e-15)
(0.116795 -6.72082e-08 1.03066e-15)
(0.116795 -6.32919e-08 1.01664e-15)
(0.116795 -5.9351e-08 1.02255e-15)
(0.116795 -5.53633e-08 1.02733e-15)
(0.116795 -5.12927e-08 1.01286e-15)
(0.116795 -4.70983e-08 1.0179e-15)
(0.116794 -4.27146e-08 1.01954e-15)
(0.116794 -3.80863e-08 1.04021e-15)
(0.116794 -3.31009e-08 1.05938e-15)
(0.116794 -2.77117e-08 1.05361e-15)
(0.116794 -2.16996e-08 1.06195e-15)
(0.116794 -1.51068e-08 1.07028e-15)
(0.116794 -7.40835e-09 1.09936e-15)
(0.116794 1.04687e-09 1.11899e-15)
(0.116794 1.14196e-08 1.11507e-15)
(0.116794 2.54671e-08 1.124e-15)
(0.116794 1.31184e-08 1.13626e-15)
(0.116794 3.27045e-08 1.15809e-15)
(0.116795 9.93754e-08 1.16996e-15)
(0.116795 1.38572e-07 1.16475e-15)
(0.116795 1.57055e-07 1.16519e-15)
(0.116795 1.67688e-07 1.16503e-15)
(0.116795 1.76364e-07 1.17738e-15)
(0.116796 1.85587e-07 1.18609e-15)
(0.116796 1.95973e-07 1.18003e-15)
(0.116796 2.081e-07 1.18213e-15)
(0.116796 2.21515e-07 1.1858e-15)
(0.116796 2.36963e-07 1.18233e-15)
(0.116796 2.52601e-07 1.17175e-15)
(0.116796 2.69658e-07 1.15076e-15)
(0.116796 2.83537e-07 1.14329e-15)
(0.116796 2.93667e-07 1.14331e-15)
(0.116796 2.9526e-07 1.14086e-15)
(0.116796 2.64384e-07 1.13311e-15)
(0.116797 2.32172e-07 1.11538e-15)
(0.116797 6.55163e-08 1.09575e-15)
(0.115549 -6.97725e-08 1.08487e-15)
(0.115549 1.04377e-07 1.035e-15)
(0.115549 2.20542e-07 1.08989e-15)
(0.11555 2.65817e-07 1.07964e-15)
(0.11555 2.81754e-07 9.05451e-16)
(0.11555 2.74554e-07 1.07019e-15)
(0.11555 2.58062e-07 8.05041e-16)
(0.11555 2.39385e-07 8.13994e-16)
(0.11555 2.21523e-07 8.34555e-16)
(0.11555 2.06034e-07 6.41674e-16)
(0.115551 1.93297e-07 6.76837e-16)
(0.115551 1.83194e-07 7.00516e-16)
(0.115551 1.75353e-07 7.04557e-16)
(0.115551 1.69281e-07 6.89926e-16)
(0.115551 1.64398e-07 7.1303e-16)
(0.115551 1.60153e-07 6.81651e-16)
(0.115551 1.55975e-07 6.40132e-16)
(0.115551 1.51341e-07 6.02343e-16)
(0.115551 1.45816e-07 5.37233e-16)
(0.115551 1.38373e-07 5.45055e-16)
(0.115552 1.29807e-07 4.80312e-16)
(0.115552 1.14432e-07 4.366e-16)
(0.115552 1.01084e-07 3.84948e-16)
(0.115552 6.85916e-08 3.0848e-16)
(0.115552 4.16788e-08 2.82781e-16)
(0.115552 3.74952e-08 2.22438e-16)
(0.115552 1.95516e-08 1.68414e-16)
(0.115551 1.04851e-09 1.10848e-16)
(0.115551 -1.4244e-08 4.77812e-17)
(0.115551 -2.79646e-08 2.85574e-17)
(0.115551 -4.10547e-08 -1.82221e-17)
(0.115551 -5.40848e-08 -6.18485e-17)
(0.115551 -6.72816e-08 -1.32426e-16)
(0.115551 -8.06552e-08 -1.62273e-16)
(0.115551 -9.4113e-08 -1.70205e-16)
(0.115551 -1.07507e-07 -1.90065e-16)
(0.115551 -1.20659e-07 -2.47259e-16)
(0.115551 -1.33381e-07 -2.55671e-16)
(0.115551 -1.45482e-07 -2.69978e-16)
(0.115551 -1.56774e-07 -2.59983e-16)
(0.115551 -1.67087e-07 -3.11266e-16)
(0.115551 -1.76276e-07 -2.27411e-16)
(0.115551 -1.84229e-07 -1.78724e-16)
(0.115551 -1.9087e-07 -1.34328e-16)
(0.115551 -1.96157e-07 -1.08255e-16)
(0.115551 -2.00073e-07 -1.06497e-16)
(0.11555 -2.02624e-07 1.75101e-17)
(0.11555 -2.03831e-07 7.72939e-17)
(0.11555 -2.03735e-07 1.14426e-16)
(0.11555 -2.02398e-07 1.20279e-16)
(0.11555 -1.99912e-07 1.01629e-16)
(0.11555 -1.964e-07 2.22686e-16)
(0.11555 -1.92015e-07 2.66983e-16)
(0.11555 -1.86931e-07 4.00371e-16)
(0.11555 -1.81337e-07 4.77558e-16)
(0.115549 -1.75419e-07 4.74856e-16)
(0.115549 -1.69351e-07 5.7247e-16)
(0.115549 -1.63287e-07 5.70279e-16)
(0.115549 -1.57353e-07 6.51826e-16)
(0.115549 -1.51645e-07 6.87131e-16)
(0.115549 -1.4623e-07 6.64366e-16)
(0.115549 -1.4115e-07 7.53171e-16)
(0.115549 -1.36421e-07 7.43081e-16)
(0.115548 -1.32041e-07 8.21996e-16)
(0.115548 -1.27993e-07 8.6021e-16)
(0.115548 -1.24243e-07 8.33531e-16)
(0.115548 -1.20752e-07 9.10249e-16)
(0.115548 -1.17471e-07 8.89404e-16)
(0.115548 -1.14348e-07 9.53286e-16)
(0.115548 -1.1133e-07 9.73258e-16)
(0.115548 -1.08367e-07 9.41053e-16)
(0.115548 -1.05414e-07 1.02074e-15)
(0.115547 -1.02434e-07 1.004e-15)
(0.115547 -9.9397e-08 1.0678e-15)
(0.115547 -9.62844e-08 1.09802e-15)
(0.115547 -9.30859e-08 1.06069e-15)
(0.115547 -8.97991e-08 1.12854e-15)
(0.115547 -8.64288e-08 1.10905e-15)
(0.115547 -8.29843e-08 1.17669e-15)
(0.115547 -7.9478e-08 1.21151e-15)
(0.115547 -7.59236e-08 1.17369e-15)
(0.115547 -7.23347e-08 1.15533e-15)
(0.115547 -6.87224e-08 1.10622e-15)
(0.115547 -6.50945e-08 1.03877e-15)
(0.115547 -6.14529e-08 1.01731e-15)
(0.115547 -5.77932e-08 9.97295e-16)
(0.115546 -5.41018e-08 1.00783e-15)
(0.115546 -5.03577e-08 1.00903e-15)
(0.115546 -4.65261e-08 9.81258e-16)
(0.115546 -4.25675e-08 9.94703e-16)
(0.115546 -3.84185e-08 9.93479e-16)
(0.115546 -3.40253e-08 1.02412e-15)
(0.115546 -2.9279e-08 1.03819e-15)
(0.115546 -2.41341e-08 1.02195e-15)
(0.115546 -1.83815e-08 1.04028e-15)
(0.115546 -1.20544e-08 1.04608e-15)
(0.115546 -4.70332e-09 1.08749e-15)
(0.115546 3.51005e-09 1.10131e-15)
(0.115546 1.26781e-08 1.08377e-15)
(0.115546 2.73575e-08 1.09878e-15)
(0.115546 8.9697e-09 1.11073e-15)
(0.115546 1.26401e-08 1.13909e-15)
(0.115546 7.13913e-08 1.14709e-15)
(0.115547 1.14157e-07 1.13366e-15)
(0.115547 1.39099e-07 1.1378e-15)
(0.115547 1.54683e-07 1.13856e-15)
(0.115547 1.6638e-07 1.16019e-15)
(0.115547 1.7733e-07 1.16681e-15)
(0.115547 1.88673e-07 1.15294e-15)
(0.115547 2.01263e-07 1.16077e-15)
(0.115547 2.14815e-07 1.16681e-15)
(0.115547 2.30099e-07 1.16012e-15)
(0.115548 2.45389e-07 1.14528e-15)
(0.115548 2.61745e-07 1.11839e-15)
(0.115548 2.74879e-07 1.11924e-15)
(0.115548 2.83399e-07 1.12281e-15)
(0.115548 2.83901e-07 1.1181e-15)
(0.115548 2.48152e-07 1.10638e-15)
(0.115548 2.14553e-07 1.08128e-15)
(0.115548 2.74601e-08 1.07584e-15)
(0.114251 -1.14513e-07 1.01545e-15)
(0.114251 8.18614e-08 1.00564e-15)
(0.114251 2.04248e-07 1.07235e-15)
(0.114251 2.51957e-07 9.39351e-16)
(0.114251 2.68611e-07 8.40935e-16)
(0.114251 2.61512e-07 8.87422e-16)
(0.114251 2.45192e-07 7.7298e-16)
(0.114252 2.26771e-07 7.7192e-16)
(0.114252 2.0925e-07 7.52432e-16)
(0.114252 1.94145e-07 6.07518e-16)
(0.114252 1.81795e-07 6.23115e-16)
(0.114252 1.72057e-07 7.09214e-16)
(0.114252 1.64549e-07 6.59192e-16)
(0.114252 1.58774e-07 6.9068e-16)
(0.114252 1.54155e-07 6.58896e-16)
(0.114252 1.50147e-07 6.52164e-16)
(0.114253 1.46192e-07 6.55669e-16)
(0.114253 1.41772e-07 5.80293e-16)
(0.114253 1.36483e-07 5.10979e-16)
(0.114253 1.29295e-07 4.98316e-16)
(0.114253 1.21005e-07 4.82223e-16)
(0.114253 1.06344e-07 4.701e-16)
(0.114253 9.28405e-08 4.03039e-16)
(0.114253 6.52668e-08 3.85093e-16)
(0.114253 4.71787e-08 3.91642e-16)
(0.114253 4.7433e-08 4.03438e-16)
(0.114253 3.03633e-08 3.53275e-16)
(0.114253 1.04151e-08 2.64422e-16)
(0.114253 -6.98353e-09 2.96619e-16)
(0.114253 -2.24893e-08 2.21499e-16)
(0.114253 -3.68141e-08 2.25057e-16)
(0.114253 -5.05995e-08 2.39323e-16)
(0.114253 -6.41878e-08 7.35118e-17)
(0.114253 -7.76844e-08 9.09292e-17)
(0.114253 -9.10658e-08 6.99214e-17)
(0.114253 -1.04233e-07 2.82268e-17)
(0.114253 -1.17047e-07 2.13699e-17)
(0.114252 -1.29346e-07 -2.93413e-17)
(0.114252 -1.4096e-07 2.96223e-17)
(0.114252 -1.5172e-07 -4.751e-18)
(0.114252 -1.6147e-07 -9.97257e-17)
(0.114252 -1.70078e-07 -6.69865e-17)
(0.114252 -1.77443e-07 -3.97583e-17)
(0.114252 -1.83498e-07 -5.70633e-18)
(0.114252 -1.88209e-07 -7.64152e-18)
(0.114252 -1.91568e-07 -1.41038e-17)
(0.114252 -1.93585e-07 8.70217e-17)
(0.114252 -1.94289e-07 1.51804e-16)
(0.114252 -1.93723e-07 1.93831e-16)
(0.114252 -1.91955e-07 1.81339e-16)
(0.114251 -1.8908e-07 1.62389e-16)
(0.114251 -1.85225e-07 2.65575e-16)
(0.114251 -1.80545e-07 3.15933e-16)
(0.114251 -1.75219e-07 4.27569e-16)
(0.114251 -1.69435e-07 5.32269e-16)
(0.114251 -1.63381e-07 5.27809e-16)
(0.114251 -1.57231e-07 5.95663e-16)
(0.114251 -1.51136e-07 5.94842e-16)
(0.11425 -1.45219e-07 6.59221e-16)
(0.11425 -1.39573e-07 7.24141e-16)
(0.11425 -1.34262e-07 6.97917e-16)
(0.11425 -1.29322e-07 7.61771e-16)
(0.11425 -1.24768e-07 7.56263e-16)
(0.11425 -1.20593e-07 8.13921e-16)
(0.11425 -1.16775e-07 8.8242e-16)
(0.11425 -1.13278e-07 8.57424e-16)
(0.11425 -1.10058e-07 9.08577e-16)
(0.114249 -1.07063e-07 8.92425e-16)
(0.114249 -1.04238e-07 9.35264e-16)
(0.114249 -1.01528e-07 9.74435e-16)
(0.114249 -9.8878e-08 9.55272e-16)
(0.114249 -9.62419e-08 1.01439e-15)
(0.114249 -9.35795e-08 1.00111e-15)
(0.114249 -9.08598e-08 1.04321e-15)
(0.114249 -8.80619e-08 1.11029e-15)
(0.114249 -8.51742e-08 1.07295e-15)
(0.114249 -8.21931e-08 1.10895e-15)
(0.114249 -7.91223e-08 1.09698e-15)
(0.114248 -7.59703e-08 1.14375e-15)
(0.114248 -7.2749e-08 1.22296e-15)
(0.114248 -6.94717e-08 1.16879e-15)
(0.114248 -6.61516e-08 1.16584e-15)
(0.114248 -6.28001e-08 1.09883e-15)
(0.114248 -5.94251e-08 1.00773e-15)
(0.114248 -5.6029e-08 1.00801e-15)
(0.114248 -5.2608e-08 9.74545e-16)
(0.114248 -4.91496e-08 9.92018e-16)
(0.114248 -4.56337e-08 9.84664e-16)
(0.114248 -4.20271e-08 9.40703e-16)
(0.114248 -3.82916e-08 9.78336e-16)
(0.114248 -3.43659e-08 9.67408e-16)
(0.114248 -3.0198e-08 1.02311e-15)
(0.114248 -2.56825e-08 1.01518e-15)
(0.114248 -2.07753e-08 9.82369e-16)
(0.114248 -1.52776e-08 1.0261e-15)
(0.114248 -9.21315e-09 1.02255e-15)
(0.114248 -2.20638e-09 1.08334e-15)
(0.114248 5.75001e-09 1.08276e-15)
(0.114248 1.38684e-08 1.04653e-15)
(0.114248 2.85258e-08 1.08197e-15)
(0.114248 8.21699e-09 1.08662e-15)
(0.114248 1.91841e-09 1.1254e-15)
(0.114248 5.13848e-08 1.12394e-15)
(0.114248 9.32477e-08 1.09802e-15)
(0.114248 1.21596e-07 1.1162e-15)
(0.114248 1.40912e-07 1.11549e-15)
(0.114248 1.55343e-07 1.14951e-15)
(0.114248 1.68036e-07 1.14723e-15)
(0.114249 1.8042e-07 1.12158e-15)
(0.114249 1.93561e-07 1.14247e-15)
(0.114249 2.07332e-07 1.15134e-15)
(0.114249 2.22528e-07 1.13765e-15)
(0.114249 2.37543e-07 1.11582e-15)
(0.114249 2.53278e-07 1.08126e-15)
(0.114249 2.65757e-07 1.10193e-15)
(0.114249 2.72803e-07 1.10704e-15)
(0.114249 2.72377e-07 1.09596e-15)
(0.114249 2.32061e-07 1.07757e-15)
(0.11425 1.97639e-07 1.04334e-15)
(0.11425 -1.01808e-08 1.0621e-15)
(0.112898 -1.58349e-07 1.00316e-15)
(0.112898 6.0452e-08 9.84328e-16)
(0.112899 1.89197e-07 1.02192e-15)
(0.112899 2.39245e-07 9.65774e-16)
(0.112899 2.56374e-07 8.17431e-16)
(0.112899 2.49188e-07 7.61245e-16)
(0.112899 2.32926e-07 7.35019e-16)
(0.112899 2.14703e-07 7.42819e-16)
(0.112899 1.97494e-07 6.46803e-16)
(0.1129 1.82753e-07 5.82544e-16)
(0.1129 1.70769e-07 5.88083e-16)
(0.1129 1.61373e-07 6.03757e-16)
(0.1129 1.54173e-07 6.11856e-16)
(0.1129 1.48668e-07 6.20785e-16)
(0.1129 1.44289e-07 4.74735e-16)
(0.1129 1.40496e-07 6.27933e-16)
(0.1129 1.36746e-07 6.03165e-16)
(0.1129 1.32529e-07 5.46248e-16)
(0.1129 1.27468e-07 4.77726e-16)
(0.112901 1.20539e-07 3.85418e-16)
(0.112901 1.12536e-07 4.20182e-16)
(0.112901 9.85646e-08 4.41696e-16)
(0.112901 8.52397e-08 4.04795e-16)
(0.112901 6.08622e-08 4.75191e-16)
(0.112901 4.84528e-08 4.3388e-16)
(0.112901 5.25827e-08 4.41692e-16)
(0.112901 3.78503e-08 5.00442e-16)
(0.112901 1.81504e-08 3.8551e-16)
(0.112901 -2.03153e-10 4.44716e-16)
(0.112901 -1.68716e-08 3.45578e-16)
(0.112901 -3.21294e-08 3.36987e-16)
(0.112901 -4.65303e-08 3.8713e-16)