/*--------------------------------*- C++ -*----------------------------------*\
  =========                 |
  \\      /  F ield         | OpenFOAM: The Open Source CFD Toolbox
   \\    /   O peration     | Website:  https://openfoam.org
    \\  /    A nd           | Version:  7
     \\/     M anipulation  |
\*---------------------------------------------------------------------------*/
FoamFile
{
    version     2.0;
    format      ascii;
    class       volScalarField;
    location    "4500";
    object      omega;
}
// * * * * * * * * * * * * * * * * * * * * * * * * * * * * * * * * * * * * * //

dimensions      [0 0 -1 0 0 0 0];

internalField   nonuniform List<scalar> 
3974
(
0.648902
0.648911
0.648916
0.648922
0.648928
0.648934
0.648939
0.648944
0.648948
0.648952
0.648956
0.64896
0.648963
0.648966
0.64897
0.648972
0.648975
0.648978
0.648981
0.648983
0.648985
0.648988
0.64899
0.648992
0.648993
0.648995
0.648997
0.648998
0.649
0.649001
0.649003
0.649004
0.649005
0.649006
0.649007
0.649008
0.649009
0.64901
0.613884
0.613887
0.613859
0.61385
0.613849
0.613851
0.613854
0.613857
0.613861
0.613864
0.613868
0.613871
0.613874
0.613877
0.61388
0.613883
0.613886
0.613889
0.613891
0.613894
0.613896
0.613899
0.613901
0.613903
0.613905
0.613907
0.613909
0.613911
0.613912
0.613914
0.613916
0.613917
0.613918
0.61392
0.613921
0.613922
0.613923
0.613924
0.613926
0.613923
0.61398
0.613993
0.581151
0.581148
0.581121
0.581111
0.581093
0.581081
0.581075
0.581073
0.581073
0.581075
0.581077
0.581079
0.581081
0.581084
0.581086
0.581089
0.581091
0.581094
0.581096
0.581099
0.581101
0.581104
0.581106
0.581108
0.58111
0.581113
0.581115
0.581117
0.581118
0.58112
0.581122
0.581124
0.581125
0.581127
0.581128
0.58113
0.581131
0.581132
0.581134
0.581135
0.581137
0.581134
0.581162
0.581176
0.581229
0.581238
0.581233
0.581226
0.58122
0.581214
0.581208
0.581203
0.581198
0.581194
0.581189
0.581185
0.581182
0.581179
0.581173
0.55043
0.55043
0.550413
0.550401
0.550387
0.550375
0.550367
0.550362
0.55036
0.55036
0.55036
0.550362
0.550363
0.550365
0.550367
0.550369
0.550371
0.550373
0.550375
0.550377
0.550379
0.550382
0.550384
0.550386
0.550388
0.55039
0.550392
0.550394
0.550396
0.550398
0.5504
0.550402
0.550403
0.550405
0.550407
0.550408
0.55041
0.550411
0.550412
0.550414
0.550415
0.550414
0.550427
0.550438
0.550469
0.550486
0.55049
0.550489
0.550486
0.550483
0.550479
0.550476
0.550472
0.550469
0.550465
0.550462
0.550459
0.550457
0.550451
0.521577
0.521578
0.521568
0.521557
0.521546
0.521535
0.521527
0.521521
0.521518
0.521516
0.521516
0.521516
0.521517
0.521518
0.521519
0.521521
0.521522
0.521524
0.521526
0.521528
0.52153
0.521532
0.521534
0.521536
0.521538
0.521541
0.521543
0.521545
0.521547
0.521548
0.52155
0.521552
0.521554
0.521556
0.521557
0.521559
0.52156
0.521562
0.521563
0.521565
0.521567
0.521566
0.521573
0.52158
0.521598
0.521614
0.521622
0.521625
0.521626
0.521624
0.521623
0.521621
0.521618
0.521616
0.521614
0.521612
0.52161
0.521608
0.521603
0.494424
0.494425
0.494419
0.49441
0.494402
0.494393
0.494385
0.494379
0.494375
0.494373
0.494372
0.494371
0.494371
0.494372
0.494373
0.494374
0.494375
0.494377
0.494378
0.49438
0.494382
0.494384
0.494386
0.494388
0.49439
0.494392
0.494394
0.494396
0.494398
0.4944
0.494402
0.494404
0.494406
0.494408
0.49441
0.494411
0.494413
0.494415
0.494416
0.494418
0.494419
0.49442
0.494424
0.494428
0.494439
0.494451
0.49446
0.494465
0.494468
0.494469
0.494468
0.494468
0.494467
0.494466
0.494464
0.494463
0.494461
0.49446
0.494456
0.468822
0.468823
0.468819
0.468813
0.468806
0.468799
0.468792
0.468787
0.468783
0.46878
0.468779
0.468778
0.468778
0.468778
0.468778
0.468779
0.46878
0.468781
0.468783
0.468785
0.468786
0.468788
0.46879
0.468792
0.468794
0.468797
0.468799
0.468801
0.468803
0.468805
0.468807
0.468809
0.468811
0.468813
0.468814
0.468816
0.468818
0.46882
0.468822
0.468823
0.468825
0.468826
0.468828
0.468832
0.468838
0.468846
0.468854
0.46886
0.468864
0.468866
0.468868
0.468868
0.468868
0.468868
0.468867
0.468867
0.468866
0.468866
0.468863
0.444642
0.444642
0.444639
0.444635
0.44463
0.444624
0.444619
0.444614
0.444611
0.444608
0.444607
0.444606
0.444605
0.444605
0.444605
0.444606
0.444607
0.444608
0.444609
0.444611
0.444613
0.444614
0.444616
0.444619
0.444621
0.444623
0.444625
0.444627
0.444629
0.444631
0.444633
0.444635
0.444637
0.444639
0.444641
0.444643
0.444645
0.444647
0.444649
0.444651
0.444653
0.444654
0.444656
0.444658
0.444663
0.444668
0.444675
0.44468
0.444685
0.444688
0.44469
0.444691
0.444692
0.444693
0.444693
0.444693
0.444693
0.444693
0.444692
0.42177
0.421768
0.421766
0.421763
0.421759
0.421755
0.421751
0.421747
0.421744
0.421742
0.42174
0.42174
0.421739
0.421739
0.421739
0.42174
0.42174
0.421741
0.421743
0.421744
0.421746
0.421748
0.42175
0.421752
0.421754
0.421756
0.421758
0.42176
0.421763
0.421765
0.421767
0.421769
0.421771
0.421773
0.421775
0.421777
0.42178
0.421782
0.421784
0.421785
0.421787
0.421789
0.421791
0.421793
0.421796
0.421801
0.421805
0.42181
0.421814
0.421818
0.42182
0.421823
0.421824
0.421825
0.421826
0.421827
0.421827
0.421828
0.421829
0.400104
0.400101
0.400099
0.400097
0.400094
0.400091
0.400088
0.400085
0.400083
0.400081
0.40008
0.400079
0.400079
0.400079
0.400079
0.400079
0.40008
0.400081
0.400082
0.400084
0.400085
0.400087
0.400089
0.400091
0.400094
0.400096
0.400098
0.4001
0.400103
0.400105
0.400107
0.400109
0.400112
0.400114
0.400116
0.400118
0.40012
0.400123
0.400125
0.400127
0.400129
0.400131
0.400133
0.400135
0.400138
0.400141
0.400145
0.400149
0.400153
0.400156
0.400159
0.400161
0.400163
0.400165
0.400167
0.400168
0.400169
0.400169
0.400172
0.379556
0.379552
0.37955
0.379548
0.379546
0.379544
0.379542
0.379539
0.379538
0.379537
0.379536
0.379535
0.379535
0.379535
0.379536
0.379536
0.379537
0.379538
0.379539
0.379541
0.379542
0.379544
0.379546
0.379549
0.379551
0.379553
0.379555
0.379558
0.37956
0.379562
0.379565
0.379567
0.37957
0.379572
0.379574
0.379577
0.379579
0.379581
0.379583
0.379586
0.379588
0.37959
0.379592
0.379594
0.379597
0.3796
0.379603
0.379606
0.37961
0.379613
0.379616
0.379619
0.379621
0.379623
0.379625
0.379627
0.379628
0.379629
0.379633
0.360048
0.360042
0.36004
0.360038
0.360037
0.360035
0.360034
0.360032
0.360031
0.36003
0.36003
0.36003
0.36003
0.36003
0.360031
0.360032
0.360032
0.360034
0.360035
0.360037
0.360038
0.36004
0.360043
0.360045
0.360047
0.360049
0.360052
0.360054
0.360057
0.360059
0.360062
0.360064
0.360067
0.360069
0.360072
0.360074
0.360076
0.360079
0.360081
0.360084
0.360086
0.360088
0.360091
0.360093
0.360095
0.360098
0.360101
0.360104
0.360107
0.36011
0.360113
0.360116
0.360119
0.360121
0.360123
0.360125
0.360127
0.360128
0.360134
0.341509
0.341502
0.341499
0.341498
0.341497
0.341496
0.341495
0.341494
0.341494
0.341494
0.341494
0.341494
0.341494
0.341495
0.341495
0.341496
0.341497
0.341499
0.3415
0.341502
0.341504
0.341506
0.341508
0.34151
0.341513
0.341515
0.341518
0.34152
0.341523
0.341525
0.341528
0.341531
0.341533
0.341536
0.341538
0.341541
0.341544
0.341546
0.341549
0.341551
0.341554
0.341556
0.341559
0.341561
0.341564
0.341566
0.341569
0.341572
0.341575
0.341578
0.341581
0.341584
0.341587
0.341589
0.341592
0.341594
0.341596
0.341597
0.341604
0.323879
0.32387
0.323867
0.323866
0.323866
0.323865
0.323864
0.323864
0.323864
0.323864
0.323865
0.323865
0.323866
0.323867
0.323868
0.323869
0.32387
0.323871
0.323873
0.323875
0.323877
0.323879
0.323882
0.323884
0.323886
0.323889
0.323892
0.323894
0.323897
0.3239
0.323902
0.323905
0.323908
0.323911
0.323913
0.323916
0.323919
0.323922
0.323924
0.323927
0.32393
0.323932
0.323935
0.323938
0.32394
0.323943
0.323945
0.323948
0.323951
0.323954
0.323957
0.32396
0.323963
0.323966
0.323968
0.32397
0.323973
0.323974
0.323982
0.307101
0.307091
0.307089
0.307088
0.307087
0.307087
0.307087
0.307087
0.307087
0.307088
0.307089
0.30709
0.307091
0.307092
0.307093
0.307094
0.307096
0.307097
0.307099
0.307101
0.307103
0.307106
0.307108
0.307111
0.307113
0.307116
0.307119
0.307121
0.307124
0.307127
0.30713
0.307133
0.307136
0.307138
0.307141
0.307144
0.307147
0.30715
0.307153
0.307156
0.307158
0.307161
0.307164
0.307167
0.30717
0.307172
0.307175
0.307178
0.307181
0.307184
0.307187
0.30719
0.307193
0.307195
0.307198
0.307201
0.307203
0.307204
0.307214
0.291129
0.291117
0.291115
0.291114
0.291114
0.291114
0.291114
0.291114
0.291115
0.291116
0.291117
0.291118
0.291119
0.291121
0.291122
0.291124
0.291125
0.291127
0.291129
0.291131
0.291134
0.291136
0.291139
0.291141
0.291144
0.291147
0.29115
0.291153
0.291156
0.291159
0.291162
0.291165
0.291168
0.291171
0.291174
0.291177
0.29118
0.291183
0.291186
0.291189
0.291192
0.291194
0.291197
0.2912
0.291203
0.291206
0.291209
0.291212
0.291215
0.291218
0.291221
0.291224
0.291227
0.29123
0.291232
0.291235
0.291238
0.291239
0.291249
0.275917
0.275904
0.275901
0.275901
0.275901
0.275901
0.275901
0.275902
0.275903
0.275904
0.275906
0.275907
0.275909
0.27591
0.275912
0.275914
0.275916
0.275918
0.27592
0.275922
0.275925
0.275927
0.27593
0.275933
0.275936
0.275939
0.275942
0.275945
0.275948
0.275951
0.275954
0.275957
0.27596
0.275963
0.275966
0.27597
0.275973
0.275976
0.275979
0.275982
0.275985
0.275988
0.275991
0.275994
0.275997
0.276
0.276003
0.276006
0.276009
0.276012
0.276015
0.276018
0.276021
0.276024
0.276027
0.27603
0.276033
0.276034
0.276046
0.261427
0.261413
0.26141
0.261409
0.26141
0.26141
0.261411
0.261412
0.261413
0.261414
0.261416
0.261418
0.261419
0.261421
0.261423
0.261425
0.261427
0.261429
0.261432
0.261434
0.261437
0.26144
0.261443
0.261446
0.261449
0.261452
0.261455
0.261458
0.261461
0.261464
0.261468
0.261471
0.261474
0.261477
0.26148
0.261484
0.261487
0.26149
0.261493
0.261497
0.2615
0.261503
0.261506
0.261509
0.261513
0.261516
0.261519
0.261522
0.261525
0.261528
0.261531
0.261535
0.261538
0.261541
0.261544
0.261547
0.26155
0.261551
0.261563
0.247623
0.247608
0.247605
0.247604
0.247605
0.247605
0.247606
0.247607
0.247609
0.247611
0.247612
0.247614
0.247616
0.247618
0.24762
0.247623
0.247625
0.247627
0.24763
0.247633
0.247635
0.247638
0.247641
0.247644
0.247648
0.247651
0.247654
0.247657
0.24766
0.247664
0.247667
0.24767
0.247674
0.247677
0.247681
0.247684
0.247687
0.247691
0.247694
0.247697
0.247701
0.247704
0.247707
0.247711
0.247714
0.247717
0.24772
0.247724
0.247727
0.24773
0.247733
0.247737
0.24774
0.247743
0.247746
0.247749
0.247752
0.247754
0.247766
0.234473
0.234457
0.234454
0.234454
0.234454
0.234455
0.234456
0.234457
0.234459
0.234461
0.234463
0.234465
0.234467
0.23447
0.234472
0.234474
0.234477
0.234479
0.234482
0.234485
0.234488
0.234491
0.234494
0.234497
0.2345
0.234504
0.234507
0.23451
0.234514
0.234517
0.234521
0.234524
0.234528
0.234531
0.234535
0.234538
0.234541
0.234545
0.234548
0.234552
0.234555
0.234559
0.234562
0.234566
0.234569
0.234572
0.234576
0.234579
0.234582
0.234586
0.234589
0.234592
0.234596
0.234599
0.234602
0.234605
0.234609
0.23461
0.234623
0.221949
0.221932
0.221929
0.221928
0.221929
0.22193
0.221931
0.221933
0.221935
0.221937
0.221939
0.221941
0.221943
0.221946
0.221948
0.221951
0.221953
0.221956
0.221959
0.221962
0.221965
0.221968
0.221972
0.221975
0.221978
0.221982
0.221985
0.221989
0.221992
0.221996
0.221999
0.222003
0.222006
0.22201
0.222013
0.222017
0.222021
0.222024
0.222028
0.222031
0.222035
0.222038
0.222042
0.222045
0.222049
0.222052
0.222056
0.222059
0.222063
0.222066
0.22207
0.222073
0.222076
0.22208
0.222083
0.222086
0.22209
0.222091
0.222104
0.210023
0.210005
0.210002
0.210002
0.210002
0.210004
0.210005
0.210007
0.210009
0.210011
0.210013
0.210015
0.210018
0.210021
0.210023
0.210026
0.210029
0.210032
0.210035
0.210038
0.210041
0.210044
0.210048
0.210051
0.210055
0.210058
0.210062
0.210065
0.210069
0.210072
0.210076
0.21008
0.210083
0.210087
0.210091
0.210094
0.210098
0.210102
0.210105
0.210109
0.210112
0.210116
0.21012
0.210123
0.210127
0.21013
0.210134
0.210138
0.210141
0.210145
0.210148
0.210152
0.210155
0.210158
0.210162
0.210165
0.210169
0.21017
0.210184
0.198671
0.198653
0.198649
0.198649
0.19865
0.198651
0.198653
0.198655
0.198657
0.198659
0.198661
0.198664
0.198667
0.198669
0.198672
0.198675
0.198678
0.198681
0.198684
0.198687
0.198691
0.198694
0.198698
0.198701
0.198705
0.198708
0.198712
0.198716
0.198719
0.198723
0.198727
0.19873
0.198734
0.198738
0.198741
0.198745
0.198749
0.198753
0.198756
0.19876
0.198764
0.198767
0.198771
0.198775
0.198779
0.198782
0.198786
0.198789
0.198793
0.198797
0.1988
0.198804
0.198807
0.198811
0.198814
0.198818
0.198821
0.198823
0.198836
0.18787
0.187851
0.187848
0.187848
0.187849
0.18785
0.187852
0.187854
0.187856
0.187859
0.187861
0.187864
0.187866
0.187869
0.187872
0.187875
0.187878
0.187881
0.187885
0.187888
0.187891
0.187895
0.187899
0.187902
0.187906
0.187909
0.187913
0.187917
0.187921
0.187924
0.187928
0.187932
0.187936
0.18794
0.187943
0.187947
0.187951
0.187955
0.187958
0.187962
0.187966
0.18797
0.187974
0.187977
0.187981
0.187985
0.187988
0.187992
0.187996
0.187999
0.188003
0.188007
0.18801
0.188014
0.188017
0.188021
0.188024
0.188026
0.18804
0.1776
0.17758
0.177577
0.177577
0.177578
0.177579
0.177581
0.177583
0.177586
0.177588
0.177591
0.177594
0.177596
0.177599
0.177602
0.177605
0.177608
0.177612
0.177615
0.177619
0.177622
0.177626
0.177629
0.177633
0.177637
0.177641
0.177644
0.177648
0.177652
0.177656
0.17766
0.177663
0.177667
0.177671
0.177675
0.177679
0.177683
0.177686
0.17769
0.177694
0.177698
0.177702
0.177706
0.177709
0.177713
0.177717
0.177721
0.177724
0.177728
0.177732
0.177735
0.177739
0.177743
0.177746
0.17775
0.177753
0.177757
0.177759
0.177773
0.167839
0.16782
0.167816
0.167816
0.167817
0.167819
0.167821
0.167823
0.167825
0.167828
0.167831
0.167833
0.167836
0.167839
0.167842
0.167846
0.167849
0.167852
0.167856
0.167859
0.167863
0.167866
0.16787
0.167874
0.167878
0.167882
0.167885
0.167889
0.167893
0.167897
0.167901
0.167905
0.167909
0.167912
0.167916
0.16792
0.167924
0.167928
0.167932
0.167936
0.16794
0.167943
0.167947
0.167951
0.167955
0.167959
0.167962
0.167966
0.16797
0.167974
0.167977
0.167981
0.167985
0.167988
0.167992
0.167996
0.167999
0.168001
0.168015
0.15857
0.15855
0.158546
0.158546
0.158548
0.158549
0.158551
0.158554
0.158556
0.158559
0.158562
0.158564
0.158567
0.158571
0.158574
0.158577
0.15858
0.158584
0.158587
0.158591
0.158594
0.158598
0.158602
0.158606
0.15861
0.158613
0.158617
0.158621
0.158625
0.158629
0.158633
0.158637
0.158641
0.158645
0.158649
0.158652
0.158656
0.15866
0.158664
0.158668
0.158672
0.158676
0.15868
0.158683
0.158687
0.158691
0.158695
0.158699
0.158703
0.158706
0.15871
0.158714
0.158717
0.158721
0.158725
0.158728
0.158732
0.158734
0.158747
0.149773
0.149753
0.14975
0.14975
0.149751
0.149753
0.149755
0.149757
0.14976
0.149763
0.149766
0.149769
0.149772
0.149775
0.149778
0.149781
0.149785
0.149788
0.149792
0.149795
0.149799
0.149803
0.149807
0.14981
0.149814
0.149818
0.149822
0.149826
0.14983
0.149834
0.149838
0.149842
0.149846
0.14985
0.149853
0.149857
0.149861
0.149865
0.149869
0.149873
0.149877
0.149881
0.149885
0.149888
0.149892
0.149896
0.1499
0.149904
0.149908
0.149911
0.149915
0.149919
0.149922
0.149926
0.14993
0.149933
0.149937
0.149939
0.149952
0.141433
0.141413
0.141409
0.141409
0.141411
0.141413
0.141415
0.141417
0.14142
0.141422
0.141425
0.141428
0.141431
0.141434
0.141438
0.141441
0.141444
0.141448
0.141452
0.141455
0.141459
0.141463
0.141467
0.141471
0.141474
0.141478
0.141482
0.141486
0.14149
0.141494
0.141498
0.141502
0.141506
0.14151
0.141514
0.141518
0.141521
0.141525
0.141529
0.141533
0.141537
0.141541
0.141545
0.141549
0.141552
0.141556
0.14156
0.141564
0.141568
0.141571
0.141575
0.141579
0.141583
0.141586
0.14159
0.141594
0.141597
0.141599
0.141612
0.133531
0.133511
0.133507
0.133507
0.133509
0.133511
0.133513
0.133515
0.133518
0.133521
0.133524
0.133527
0.13353
0.133533
0.133536
0.13354
0.133543
0.133547
0.13355
0.133554
0.133558
0.133562
0.133565
0.133569
0.133573
0.133577
0.133581
0.133585
0.133589
0.133593
0.133597
0.133601
0.133604
0.133608
0.133612
0.133616
0.13362
0.133624
0.133628
0.133632
0.133636
0.133639
0.133643
0.133647
0.133651
0.133655
0.133659
0.133662
0.133666
0.13367
0.133674
0.133677
0.133681
0.133685
0.133688
0.133692
0.133696
0.133698
0.13371
0.126051
0.126031
0.126028
0.126028
0.12603
0.126031
0.126034
0.126036
0.126039
0.126041
0.126044
0.126047
0.126051
0.126054
0.126057
0.12606
0.126064
0.126067
0.126071
0.126075
0.126079
0.126082
0.126086
0.12609
0.126094
0.126098
0.126102
0.126106
0.12611
0.126114
0.126118
0.126121
0.126125
0.126129
0.126133
0.126137
0.126141
0.126145
0.126149
0.126152
0.126156
0.12616
0.126164
0.126168
0.126171
0.126175
0.126179
0.126183
0.126187
0.12619
0.126194
0.126198
0.126201
0.126205
0.126209
0.126212
0.126216
0.126218
0.126229
0.118978
0.118958
0.118955
0.118955
0.118957
0.118959
0.118961
0.118963
0.118966
0.118969
0.118972
0.118975
0.118978
0.118981
0.118984
0.118988
0.118991
0.118995
0.118998
0.119002
0.119006
0.11901
0.119014
0.119017
0.119021
0.119025
0.119029
0.119033
0.119037
0.119041
0.119045
0.119048
0.119052
0.119056
0.11906
0.119064
0.119068
0.119071
0.119075
0.119079
0.119083
0.119087
0.11909
0.119094
0.119098
0.119102
0.119105
0.119109
0.119113
0.119117
0.11912
0.119124
0.119127
0.119131
0.119135
0.119138
0.119142
0.119144
0.119155
0.112296
0.112276
0.112273
0.112273
0.112275
0.112276
0.112279
0.112281
0.112284
0.112287
0.11229
0.112293
0.112296
0.112299
0.112302
0.112306
0.112309
0.112313
0.112316
0.11232
0.112324
0.112327
0.112331
0.112335
0.112339
0.112343
0.112347
0.11235
0.112354
0.112358
0.112362
0.112366
0.11237
0.112373
0.112377
0.112381
0.112385
0.112389
0.112392
0.112396
0.1124
0.112404
0.112407
0.112411
0.112415
0.112418
0.112422
0.112426
0.112429
0.112433
0.112437
0.11244
0.112444
0.112447
0.112451
0.112454
0.112458
0.11246
0.112471
0.105989
0.105969
0.105966
0.105966
0.105968
0.10597
0.105972
0.105974
0.105977
0.10598
0.105983
0.105986
0.105989
0.105992
0.105995
0.105999
0.106002
0.106006
0.106009
0.106013
0.106017
0.10602
0.106024
0.106028
0.106032
0.106036
0.106039
0.106043
0.106047
0.106051
0.106055
0.106058
0.106062
0.106066
0.10607
0.106073
0.106077
0.106081
0.106084
0.106088
0.106092
0.106095
0.106099
0.106103
0.106106
0.10611
0.106114
0.106117
0.106121
0.106124
0.106128
0.106132
0.106135
0.106139
0.106142
0.106145
0.106149
0.106151
0.106161
0.100042
0.100022
0.100019
0.10002
0.100021
0.100023
0.100025
0.100028
0.10003
0.100033
0.100036
0.100039
0.100042
0.100045
0.100048
0.100052
0.100055
0.100059
0.100062
0.100066
0.10007
0.100073
0.100077
0.100081
0.100085
0.100088
0.100092
0.100096
0.100099
0.100103
0.100107
0.100111
0.100114
0.100118
0.100122
0.100125
0.100129
0.100133
0.100136
0.10014
0.100144
0.100147
0.100151
0.100154
0.100158
0.100161
0.100165
0.100169
0.100172
0.100176
0.100179
0.100183
0.100186
0.100189
0.100193
0.100196
0.1002
0.100202
0.100211
0.0944398
0.094421
0.0944178
0.0944183
0.0944198
0.0944217
0.0944239
0.0944263
0.0944289
0.0944317
0.0944345
0.0944374
0.0944405
0.0944436
0.0944468
0.0944501
0.0944535
0.0944569
0.0944604
0.094464
0.0944676
0.0944713
0.0944749
0.0944786
0.0944823
0.094486
0.0944897
0.0944933
0.094497
0.0945007
0.0945043
0.094508
0.0945116
0.0945152
0.0945188
0.0945224
0.094526
0.0945296
0.0945331
0.0945367
0.0945402
0.0945437
0.0945473
0.0945508
0.0945543
0.0945577
0.0945612
0.0945647
0.0945681
0.0945715
0.0945749
0.0945783
0.0945817
0.094585
0.0945883
0.0945916
0.094595
0.0945976
0.0946055
0.0891683
0.08915
0.0891468
0.0891474
0.0891489
0.0891508
0.089153
0.0891554
0.0891579
0.0891606
0.0891634
0.0891663
0.0891693
0.0891723
0.0891755
0.0891787
0.0891821
0.0891855
0.0891889
0.0891924
0.089196
0.0891996
0.0892032
0.0892068
0.0892104
0.089214
0.0892176
0.0892212
0.0892248
0.0892284
0.089232
0.0892355
0.0892391
0.0892426
0.0892461
0.0892496
0.0892531
0.0892566
0.0892601
0.0892636
0.089267
0.0892705
0.0892739
0.0892773
0.0892807
0.0892841
0.0892875
0.0892909
0.0892942
0.0892976
0.0893009
0.0893042
0.0893075
0.0893107
0.089314
0.0893172
0.0893204
0.0893231
0.0893301
0.0842128
0.0841949
0.0841919
0.0841924
0.0841939
0.0841959
0.084198
0.0842004
0.0842029
0.0842055
0.0842083
0.0842111
0.084214
0.084217
0.0842201
0.0842233
0.0842266
0.0842299
0.0842333
0.0842367
0.0842402
0.0842437
0.0842473
0.0842508
0.0842543
0.0842579
0.0842614
0.0842649
0.0842684
0.0842719
0.0842754
0.0842789
0.0842823
0.0842858
0.0842892
0.0842926
0.084296
0.0842994
0.0843028
0.0843062
0.0843096
0.0843129
0.0843162
0.0843196
0.0843229
0.0843262
0.0843295
0.0843327
0.084336
0.0843392
0.0843425
0.0843457
0.0843489
0.084352
0.0843552
0.0843583
0.0843615
0.0843641
0.0843704
0.079559
0.0795416
0.0795387
0.0795393
0.0795408
0.0795426
0.0795448
0.0795471
0.0795495
0.0795521
0.0795548
0.0795576
0.0795604
0.0795634
0.0795664
0.0795695
0.0795727
0.079576
0.0795793
0.0795827
0.0795861
0.0795895
0.0795929
0.0795964
0.0795998
0.0796033
0.0796067
0.0796101
0.0796135
0.0796169
0.0796203
0.0796237
0.0796271
0.0796304
0.0796338
0.0796371
0.0796404
0.0796437
0.079647
0.0796503
0.0796536
0.0796568
0.0796601
0.0796633
0.0796665
0.0796697
0.0796729
0.0796761
0.0796792
0.0796824
0.0796855
0.0796886
0.0796917
0.0796948
0.0796978
0.0797009
0.0797039
0.0797066
0.0797121
0.0751929
0.075176
0.0751733
0.0751738
0.0751753
0.0751772
0.0751792
0.0751815
0.0751839
0.0751864
0.075189
0.0751917
0.0751945
0.0751974
0.0752004
0.0752034
0.0752065
0.0752097
0.075213
0.0752162
0.0752196
0.0752229
0.0752262
0.0752296
0.075233
0.0752363
0.0752396
0.075243
0.0752463
0.0752496
0.0752529
0.0752562
0.0752594
0.0752627
0.0752659
0.0752692
0.0752724
0.0752756
0.0752788
0.0752819
0.0752851
0.0752882
0.0752914
0.0752945
0.0752976
0.0753007
0.0753038
0.0753069
0.0753099
0.075313
0.075316
0.075319
0.075322
0.075325
0.0753279
0.0753309
0.0753338
0.0753365
0.0753412
0.0711008
0.0710845
0.0710818
0.0710824
0.0710839
0.0710857
0.0710877
0.07109
0.0710923
0.0710948
0.0710973
0.0710999
0.0711027
0.0711055
0.0711083
0.0711113
0.0711143
0.0711174
0.0711206
0.0711238
0.071127
0.0711303
0.0711335
0.0711368
0.07114
0.0711433
0.0711465
0.0711497
0.0711529
0.0711561
0.0711593
0.0711625
0.0711657
0.0711688
0.071172
0.0711751
0.0711782
0.0711813
0.0711844
0.0711874
0.0711905
0.0711935
0.0711966
0.0711996
0.0712026
0.0712056
0.0712086
0.0712115
0.0712145
0.0712174
0.0712203
0.0712232
0.0712261
0.071229
0.0712318
0.0712347
0.0712375
0.0712401
0.0712441
0.0672693
0.0672536
0.0672511
0.0672517
0.0672532
0.0672549
0.0672569
0.0672591
0.0672614
0.0672638
0.0672662
0.0672688
0.0672714
0.0672741
0.0672769
0.0672798
0.0672828
0.0672858
0.0672888
0.0672919
0.0672951
0.0672982
0.0673014
0.0673045
0.0673077
0.0673108
0.0673139
0.067317
0.0673202
0.0673233
0.0673263
0.0673294
0.0673325
0.0673355
0.0673385
0.0673416
0.0673446
0.0673475
0.0673505
0.0673535
0.0673564
0.0673593
0.0673623
0.0673652
0.0673681
0.0673709
0.0673738
0.0673767
0.0673795
0.0673823
0.0673851
0.0673879
0.0673907
0.0673935
0.0673962
0.067399
0.0674017
0.0674043
0.0674075
0.0636855
0.0636704
0.063668
0.0636686
0.0636701
0.0636718
0.0636738
0.0636759
0.0636781
0.0636804
0.0636828
0.0636853
0.0636878
0.0636904
0.0636932
0.0636959
0.0636988
0.0637017
0.0637047
0.0637077
0.0637107
0.0637137
0.0637168
0.0637198
0.0637229
0.0637259
0.0637289
0.0637319
0.0637349
0.0637379
0.0637409
0.0637439
0.0637468
0.0637497
0.0637527
0.0637556
0.0637585
0.0637613
0.0637642
0.063767
0.0637699
0.0637727
0.0637755
0.0637783
0.0637811
0.0637838
0.0637866
0.0637893
0.0637921
0.0637948
0.0637975
0.0638002
0.0638028
0.0638055
0.0638081
0.0638108
0.0638134
0.063816
0.0638184
0.0603367
0.0603222
0.06032
0.0603206
0.060322
0.0603237
0.0603256
0.0603276
0.0603298
0.060332
0.0603344
0.0603367
0.0603392
0.0603418
0.0603444
0.0603471
0.0603498
0.0603526
0.0603555
0.0603584
0.0603613
0.0603643
0.0603672
0.0603701
0.0603731
0.060376
0.0603789
0.0603818
0.0603847
0.0603876
0.0603904
0.0603933
0.0603961
0.0603989
0.0604017
0.0604045
0.0604073
0.06041
0.0604128
0.0604155
0.0604183
0.060421
0.0604237
0.0604263
0.060429
0.0604317
0.0604343
0.0604369
0.0604395
0.0604421
0.0604447
0.0604473
0.0604499
0.0604524
0.0604549
0.0604575
0.06046
0.0604625
0.0604643
0.0572106
0.0571967
0.0571947
0.0571953
0.0571967
0.0571984
0.0572002
0.0572022
0.0572043
0.0572064
0.0572087
0.057211
0.0572134
0.0572158
0.0572183
0.0572209
0.0572236
0.0572263
0.0572291
0.0572319
0.0572347
0.0572375
0.0572403
0.0572432
0.057246
0.0572488
0.0572516
0.0572544
0.0572571
0.0572599
0.0572627
0.0572654
0.0572681
0.0572708
0.0572735
0.0572762
0.0572788
0.0572815
0.0572841
0.0572867
0.0572894
0.0572919
0.0572945
0.0572971
0.0572996
0.0573022
0.0573047
0.0573072
0.0573097
0.0573122
0.0573147
0.0573172
0.0573196
0.0573221
0.0573245
0.0573269
0.0573293
0.0573317
0.0573328
0.0542956
0.0542823
0.0542804
0.054281
0.0542824
0.054284
0.0542858
0.0542878
0.0542898
0.0542919
0.054294
0.0542962
0.0542985
0.0543009
0.0543033
0.0543058
0.0543084
0.054311
0.0543136
0.0543163
0.054319
0.0543217
0.0543245
0.0543272
0.0543299
0.0543326
0.0543353
0.0543379
0.0543406
0.0543432
0.0543459
0.0543485
0.0543511
0.0543537
0.0543562
0.0543588
0.0543614
0.0543639
0.0543664
0.0543689
0.0543714
0.0543739
0.0543764
0.0543788
0.0543813
0.0543837
0.0543861
0.0543885
0.0543909
0.0543933
0.0543956
0.054398
0.0544003
0.0544027
0.054405
0.0544073
0.0544095
0.054412
0.0544124
0.0515802
0.0515675
0.0515657
0.0515664
0.0515678
0.0515694
0.0515711
0.051573
0.0515749
0.0515769
0.051579
0.0515812
0.0515834
0.0515856
0.0515879
0.0515903
0.0515928
0.0515953
0.0515978
0.0516004
0.051603
0.0516056
0.0516082
0.0516108
0.0516134
0.051616
0.0516186
0.0516211
0.0516237
0.0516262
0.0516287
0.0516312
0.0516337
0.0516362
0.0516387
0.0516411
0.0516435
0.051646
0.0516484
0.0516508
0.0516531
0.0516555
0.0516579
0.0516602
0.0516625
0.0516648
0.0516672
0.0516694
0.0516717
0.051674
0.0516762
0.0516785
0.0516807
0.0516829
0.0516851
0.0516873
0.0516895
0.0516918
0.0516917
0.0490537
0.0490416
0.0490399
0.0490406
0.049042
0.0490435
0.0490452
0.049047
0.0490489
0.0490509
0.0490529
0.0490549
0.049057
0.0490592
0.0490614
0.0490637
0.0490661
0.0490685
0.0490709
0.0490734
0.0490759
0.0490784
0.0490809
0.0490833
0.0490858
0.0490883
0.0490908
0.0490932
0.0490956
0.049098
0.0491004
0.0491028
0.0491052
0.0491076
0.0491099
0.0491123
0.0491146
0.0491169
0.0491192
0.0491215
0.0491237
0.049126
0.0491282
0.0491305
0.0491327
0.0491349
0.0491371
0.0491392
0.0491414
0.0491436
0.0491457
0.0491479
0.04915
0.0491521
0.0491542
0.0491563
0.0491583
0.0491606
0.0491599
0.0467057
0.0466942
0.0466926
0.0466934
0.0466947
0.0466962
0.0466979
0.0466996
0.0467014
0.0467033
0.0467052
0.0467072
0.0467092
0.0467113
0.0467134
0.0467156
0.0467179
0.0467202
0.0467225
0.0467249
0.0467272
0.0467296
0.046732
0.0467344
0.0467368
0.0467391
0.0467415
0.0467438
0.0467461
0.0467484
0.0467507
0.046753
0.0467552
0.0467575
0.0467597
0.046762
0.0467642
0.0467664
0.0467685
0.0467707
0.0467729
0.046775
0.0467772
0.0467793
0.0467814
0.0467835
0.0467856
0.0467876
0.0467897
0.0467917
0.0467938
0.0467958
0.0467978
0.0467998
0.0468018
0.0468038
0.0468057
0.0468079
0.0468067
0.0445264
0.0445154
0.0445141
0.0445148
0.0445161
0.0445176
0.0445192
0.0445209
0.0445227
0.0445245
0.0445263
0.0445282
0.0445301
0.0445321
0.0445342
0.0445363
0.0445384
0.0445406
0.0445428
0.0445451
0.0445474
0.0445497
0.0445519
0.0445542
0.0445565
0.0445587
0.0445609
0.0445632
0.0445654
0.0445676
0.0445697
0.0445719
0.0445741
0.0445762
0.0445783
0.0445804
0.0445825
0.0445846
0.0445867
0.0445888
0.0445908
0.0445929
0.0445949
0.0445969
0.0445989
0.0446009
0.0446029
0.0446048
0.0446068
0.0446087
0.0446107
0.0446126
0.0446145
0.0446164
0.0446183
0.0446201
0.044622
0.0446241
0.0446224
0.0425066
0.0424962
0.0424949
0.0424957
0.042497
0.0424985
0.0425001
0.0425017
0.0425034
0.0425051
0.0425069
0.0425087
0.0425106
0.0425125
0.0425144
0.0425164
0.0425185
0.0425206
0.0425227
0.0425249
0.042527
0.0425292
0.0425314
0.0425335
0.0425357
0.0425378
0.04254
0.0425421
0.0425442
0.0425463
0.0425483
0.0425504
0.0425524
0.0425545
0.0425565
0.0425585
0.0425605
0.0425625
0.0425644
0.0425664
0.0425683
0.0425703
0.0425722
0.0425741
0.042576
0.0425779
0.0425797
0.0425816
0.0425834
0.0425853
0.0425871
0.0425889
0.0425907
0.0425925
0.0425943
0.0425961
0.0425979
0.0425999
0.0425978
0.0406376
0.0406277
0.0406266
0.0406274
0.0406287
0.0406302
0.0406317
0.0406333
0.0406349
0.0406366
0.0406383
0.04064
0.0406418
0.0406436
0.0406455
0.0406474
0.0406493
0.0406514
0.0406534
0.0406554
0.0406575
0.0406596
0.0406617
0.0406637
0.0406658
0.0406678
0.0406698
0.0406718
0.0406738
0.0406758
0.0406778
0.0406797
0.0406817
0.0406836
0.0406855
0.0406874
0.0406893
0.0406912
0.040693
0.0406949
0.0406967
0.0406986
0.0407004
0.0407022
0.040704
0.0407058
0.0407075
0.0407093
0.040711
0.0407128
0.0407145
0.0407162
0.0407179
0.0407196
0.0407213
0.040723
0.0407247
0.0407266
0.0407241
0.0389114
0.038902
0.038901
0.0389018
0.0389031
0.0389045
0.038906
0.0389075
0.0389091
0.0389107
0.0389123
0.038914
0.0389157
0.0389175
0.0389192
0.0389211
0.0389229
0.0389249
0.0389268
0.0389288
0.0389307
0.0389327
0.0389347
0.0389367
0.0389386
0.0389406
0.0389425
0.0389444
0.0389463
0.0389482
0.03895
0.0389519
0.0389537
0.0389555
0.0389573
0.0389591
0.0389609
0.0389627
0.0389645
0.0389662
0.038968
0.0389697
0.0389714
0.0389731
0.0389748
0.0389765
0.0389782
0.0389798
0.0389815
0.0389831
0.0389848
0.0389864
0.038988
0.0389896
0.0389912
0.0389928
0.0389943
0.0389962
0.0389933
0.0373202
0.0373113
0.0373104
0.0373113
0.0373125
0.0373139
0.0373154
0.0373169
0.0373184
0.03732
0.0373216
0.0373232
0.0373248
0.0373265
0.0373282
0.0373299
0.0373317
0.0373336
0.0373354
0.0373373
0.0373392
0.0373411
0.037343
0.0373448
0.0373467
0.0373485
0.0373504
0.0373522
0.037354
0.0373557
0.0373575
0.0373593
0.037361
0.0373627
0.0373644
0.0373661
0.0373678
0.0373695
0.0373712
0.0373728
0.0373745
0.0373761
0.0373777
0.0373793
0.0373809
0.0373825
0.0373841
0.0373857
0.0373872
0.0373888
0.0373903
0.0373918
0.0373934
0.0373949
0.0373964
0.0373979
0.0373993
0.0374011
0.0373979
0.0358573
0.0358488
0.035848
0.0358489
0.0358502
0.0358516
0.035853
0.0358545
0.035856
0.0358575
0.035859
0.0358605
0.0358621
0.0358637
0.0358654
0.0358671
0.0358688
0.0358705