/*--------------------------------*- C++ -*----------------------------------*\
  =========                 |
  \\      /  F ield         | OpenFOAM: The Open Source CFD Toolbox
   \\    /   O peration     | Website:  https://openfoam.org
    \\  /    A nd           | Version:  7
     \\/     M anipulation  |
\*---------------------------------------------------------------------------*/
FoamFile
{
    version     2.0;
    format      ascii;
    class       surfaceScalarField;
    location    "4500";
    object      phi;
}
// * * * * * * * * * * * * * * * * * * * * * * * * * * * * * * * * * * * * * //

dimensions      [0 3 -1 0 0 0 0];

internalField   nonuniform List<scalar> 
7821
(
0.000124759
4.09512e-10
0.000124759
4.35731e-10
0.000124759
4.333e-10
0.000124759
4.22648e-10
0.000124759
4.07962e-10
0.000124759
3.93176e-10
0.000124759
3.81325e-10
0.000124759
3.74598e-10
0.000124759
3.74155e-10
0.000124759
3.7996e-10
0.000124759
3.90811e-10
0.000124759
4.04692e-10
0.000124759
4.19378e-10
0.000124759
4.33018e-10
0.000124759
4.44473e-10
0.00012476
4.53321e-10
0.00012476
4.59637e-10
0.00012476
4.63709e-10
0.00012476
4.65832e-10
0.00012476
4.66224e-10
0.00012476
4.65035e-10
0.00012476
4.62401e-10
0.00012476
4.58487e-10
0.00012476
4.53492e-10
0.00012476
4.476e-10
0.00012476
4.40933e-10
0.00012476
4.33496e-10
0.00012476
4.25183e-10
0.00012476
4.15807e-10
0.00012476
4.05198e-10
0.00012476
3.93224e-10
0.00012476
3.79895e-10
0.00012476
3.65196e-10
0.00012476
3.49251e-10
0.00012476
3.31772e-10
0.00012476
3.12348e-10
0.00012476
2.9101e-10
2.5346e-10
0.000128856
6.57992e-11
0.000128856
2.35122e-10
0.000128856
3.25551e-10
0.000128856
3.56545e-10
0.000128856
3.67165e-10
0.000128856
3.63988e-10
0.000128856
3.54064e-10
0.000128856
3.42764e-10
0.000128856
3.33642e-10
0.000128856
3.29108e-10
0.000128856
3.30445e-10
0.000128857
3.37724e-10
0.000128857
3.49844e-10
0.000128857
3.64893e-10
0.000128857
3.80732e-10
0.000128857
3.95575e-10
0.000128857
4.08324e-10
0.000128857
4.18576e-10
0.000128857
4.26407e-10
0.000128857
4.32099e-10
0.000128857
4.35937e-10
0.000128857
4.38123e-10
0.000128857
4.38797e-10
0.000128857
4.38083e-10
0.000128857
4.36134e-10
0.000128857
4.33137e-10
0.000128857
4.29265e-10
0.000128857
4.24628e-10
0.000128857
4.19222e-10
0.000128857
4.12934e-10
0.000128857
4.05573e-10
0.000128857
3.96964e-10
0.000128857
3.86969e-10
0.000128857
3.75599e-10
0.000128857
3.62809e-10
0.000128857
3.48822e-10
0.000128857
3.32999e-10
0.000128857
3.16589e-10
0.000128857
2.94336e-10
0.000128857
2.81212e-10
0.000128857
2.60008e-10
1.91802e-10
0.000133041
-7.15959e-10
0.000133041
-2.50993e-10
0.000133041
3.68668e-11
0.000133041
1.82945e-10
0.000133041
2.535e-10
0.000133041
2.85268e-10
0.000133041
3.00269e-10
0.000133041
3.01356e-10
0.000133041
2.94968e-10
0.000133041
2.86647e-10
0.000133041
2.80103e-10
0.000133041
2.77808e-10
0.000133041
2.81084e-10
0.000133041
2.90053e-10
0.000133041
3.03691e-10
0.000133042
3.20172e-10
0.000133042
3.37439e-10
0.000133042
3.53768e-10
0.000133042
3.68099e-10
0.000133042
3.80044e-10
0.000133042
3.89682e-10
0.000133042
3.97283e-10
0.000133042
4.03119e-10
0.000133042
4.07378e-10
0.000133042
4.10187e-10
0.000133042
4.11656e-10
0.000133042
4.11928e-10
0.000133042
4.11175e-10
0.000133042
4.0956e-10
0.000133042
4.0718e-10
0.000133042
4.04023e-10
0.000133042
3.99971e-10
0.000133042
3.94827e-10
0.000133042
3.88415e-10
0.000133042
3.80588e-10
0.000133042
3.71358e-10
0.000133042
3.60655e-10
0.000133042
3.48781e-10
0.000133042
3.34851e-10
0.000133042
3.21175e-10
0.000133042
3.00243e-10
0.000133042
2.98516e-10
0.000133042
2.96836e-10
0.000133042
2.65016e-10
0.000133042
2.09703e-10
0.000133042
1.29676e-10
0.000133042
4.96488e-11
0.000133041
-2.57422e-11
0.000133041
-9.89845e-11
0.000133041
-1.71851e-10
0.000133041
-2.44635e-10
0.000133041
-3.1736e-10
0.000133041
-3.8747e-10
0.000133041
-4.54957e-10
0.000133041
-5.08902e-10
0.000133041
-5.5629e-10
0.000133041
-5.54559e-10
0.000133041
-5.35773e-10
-4.29565e-10
0.000137316
-6.78669e-10
0.000137316
-2.37133e-10
0.000137316
1.97145e-11
0.000137316
1.52025e-10
0.000137316
2.06599e-10
0.000137317
2.29549e-10
0.000137317
2.40897e-10
0.000137317
2.41413e-10
0.000137317
2.3586e-10
0.000137317
2.28951e-10
0.000137317
2.2405e-10
0.000137317
2.23447e-10
0.000137317
2.28364e-10
0.000137317
2.38889e-10
0.000137317
2.54019e-10
0.000137317
2.71978e-10
0.000137317
2.90768e-10
0.000137317
3.08714e-10
0.000137317
3.24786e-10
0.000137317
3.38607e-10
0.000137317
3.50246e-10
0.000137317
3.59963e-10
0.000137317
3.6801e-10
0.000137317
3.7456e-10
0.000137317
3.79721e-10
0.000137317
3.83593e-10
0.000137317
3.86301e-10
0.000137318
3.88004e-10
0.000137318
3.88851e-10
0.000137318
3.8893e-10
0.000137318
3.88217e-10
0.000137318
3.8659e-10
0.000137318
3.83849e-10
0.000137318
3.79812e-10
0.000137318
3.74328e-10
0.000137318
3.67408e-10
0.000137318
3.58958e-10
0.000137318
3.49338e-10
0.000137318
3.37539e-10
0.000137318
3.263e-10
0.000137318
3.08357e-10
0.000137318
3.0715e-10
0.000137318
3.11877e-10
0.000137318
3.07872e-10
0.000137317
2.8563e-10
0.000137317
2.2216e-10
0.000137317
1.44537e-10
0.000137317
6.50496e-11
0.000137317
-1.3269e-11
0.000137317
-9.07198e-11
0.000137317
-1.67522e-10
0.000137317
-2.43814e-10
0.000137317
-3.172e-10
0.000137317
-3.87765e-10
0.000137317
-4.44604e-10
0.000137317
-4.95333e-10
0.000137317
-4.94296e-10
0.000137316
-4.82433e-10
-3.56706e-10
0.000141686
-6.48207e-10
0.000141686
-2.16273e-10
0.000141686
2.13805e-11
0.000141686
1.38529e-10
0.000141686
1.7901e-10
0.000141686
1.90212e-10
0.000141686
1.93078e-10
0.000141686
1.88737e-10
0.000141686
1.8091e-10
0.000141686
1.7328e-10
0.000141686
1.68566e-10
0.000141686
1.68665e-10
0.000141686
1.74558e-10
0.000141686
1.86203e-10
0.000141686
2.02548e-10
0.000141686
2.21824e-10
0.000141686
2.4206e-10
0.000141686
2.6161e-10
0.000141686
2.79456e-10
0.000141686
2.95221e-10
0.000141686
3.08961e-10
0.000141686
3.20914e-10
0.000141686
3.3131e-10
0.000141687
3.40301e-10
0.000141687
3.47977e-10
0.000141687
3.54417e-10
0.000141687
3.59732e-10
0.000141687
3.64064e-10
0.000141687
3.67546e-10
0.000141687
3.70253e-10
0.000141687
3.72153e-10
0.000141687
3.73117e-10
0.000141687
3.7294e-10
0.000141687
3.7144e-10
0.000141687
3.68456e-10
0.000141687
3.63998e-10
0.000141687
3.57956e-10
0.000141687
3.50718e-10
0.000141687
3.41259e-10
0.000141687
3.32284e-10
0.000141687
3.1805e-10
0.000141687
3.15211e-10
0.000141687
3.19496e-10
0.000141687
3.26468e-10
0.000141687
3.25279e-10
0.000141687
2.86203e-10
0.000141687
2.23466e-10
0.000141686
1.4908e-10
0.000141686
7.08782e-11
0.000141686
-8.28381e-12
0.000141686
-8.73792e-11
0.000141686
-1.66119e-10
0.000141686
-2.42048e-10
0.000141686
-3.15199e-10
0.000141686
-3.74708e-10
0.000141686
-4.28585e-10
0.000141686
-4.2873e-10
0.000141686
-4.23692e-10
-2.81597e-10
0.000146151
-6.24409e-10
0.000146151
-1.96455e-10
0.000146151
3.12836e-11
0.000146151
1.36549e-10
0.000146151
1.65315e-10
0.000146151
1.64907e-10
0.000146151
1.57412e-10
0.000146151
1.45501e-10
0.000146151
1.32806e-10
0.000146151
1.22333e-10
0.000146151
1.16175e-10
0.000146151
1.15756e-10
0.000146152
1.21728e-10
0.000146152
1.33842e-10
0.000146152
1.50939e-10
0.000146152
1.71203e-10
0.000146152
1.9266e-10
0.000146152
2.13667e-10
0.000146152
2.33203e-10
0.000146152
2.50878e-10
0.000146152
2.66724e-10
0.000146152
2.80951e-10
0.000146152
2.9376e-10
0.000146152
3.05278e-10
0.000146152
3.15569e-10
0.000146152
3.24693e-10
0.000146152
3.3274e-10
0.000146152
3.3983e-10
0.000146152
3.46081e-10
0.000146152
3.51553e-10
0.000146152
3.56203e-10
0.000146152
3.59897e-10
0.000146152
3.62424e-10
0.000146152
3.63599e-10
0.000146152
3.63252e-10
0.000146152
3.61391e-10
0.000146152
3.57892e-10
0.000146152
3.53151e-10
0.000146152
3.46204e-10
0.000146152
3.39458e-10
0.000146152
3.28996e-10
0.000146152
3.25225e-10
0.000146152
3.26822e-10
0.000146152
3.35865e-10
0.000146152
3.44874e-10
0.000146152
3.26309e-10
0.000146152
2.82853e-10
0.000146152
2.20521e-10
0.000146152
1.48101e-10
0.000146152
7.1053e-11
0.000146152
-7.81242e-12
0.000146152
-8.72825e-11
0.000146152
-1.64558e-10
0.000146152
-2.39439e-10
0.000146151
-3.01107e-10
0.000146151
-3.57691e-10
0.000146151
-3.59372e-10
0.000146151
-3.6106e-10
-2.05351e-10
0.000150716
-6.05752e-10
0.000150716
-1.80811e-10
0.000150716
4.25193e-11
0.000150716
1.40148e-10
0.000150716
1.60266e-10
0.000150716
1.49984e-10
0.000150716
1.32336e-10
0.000150716
1.11832e-10
0.000150716
9.26783e-11
0.000150716
7.77139e-11
0.000150716
6.86451e-11
0.000150716
6.6494e-11
0.000150716
7.15791e-11
0.000150716
8.34115e-11
0.000150716
1.0068e-10
0.000150716
1.21492e-10
0.000150716
1.43837e-10
0.000150716
1.66052e-10
0.000150716
1.871e-10
0.000150717
2.06562e-10
0.000150717
2.24437e-10
0.000150717
2.409e-10
0.000150717
2.56117e-10
0.000150717
2.70183e-10
0.000150717
2.83135e-10
0.000150717
2.95006e-10
0.000150717
3.0586e-10
0.000150717
3.15798e-10
0.000150717
3.24914e-10
0.000150717
3.33252e-10
0.000150717
3.40759e-10
0.000150717
3.47292e-10
0.000150717
3.52635e-10
0.000150717
3.56598e-10
0.000150717
3.59005e-10
0.000150717
3.59855e-10
0.000150717
3.59016e-10
0.000150717
3.56874e-10
0.000150717
3.52569e-10
0.000150717
3.48112e-10
0.000150717
3.41187e-10
0.000150717
3.37715e-10
0.000150717
3.36829e-10
0.000150717
3.44077e-10
0.000150717
3.55935e-10
0.000150717
3.50765e-10
0.000150717
3.24998e-10
0.000150717
2.77681e-10
0.000150717
2.15268e-10
0.000150717
1.44026e-10
0.000150716
6.81853e-11
0.000150716
-9.96249e-12
0.000150716
-8.70842e-11
0.000150716
-1.62573e-10
0.000150716
-2.25665e-10
0.000150716
-2.84331e-10
0.000150716
-2.87733e-10
0.000150716
-2.96192e-10
-1.28625e-10
0.000155383
-5.90455e-10
0.000155382
-1.69804e-10
0.000155382
5.12895e-11
0.000155382
1.44664e-10
0.000155382
1.59259e-10
0.000155382
1.41555e-10
0.000155383
1.15213e-10
0.000155383
8.64555e-11
0.000155383
6.0341e-11
0.000155383
3.99536e-11
0.000155383
2.69219e-11
0.000155383
2.20374e-11
0.000155383
2.53577e-11
0.000155383
3.61714e-11
0.000155383
5.30084e-11
0.000155383
7.38802e-11
0.000155383
9.67202e-11
0.000155383
1.19832e-10
0.000155383
1.42145e-10
0.000155383
1.63203e-10
0.000155383
1.82966e-10
0.000155383
2.01564e-10
0.000155383
2.19125e-10
0.000155383
2.35706e-10
0.000155383
2.51311e-10
0.000155383
2.65943e-10
0.000155383
2.79638e-10
0.000155383
2.92469e-10
0.000155383
3.04508e-10
0.000155383
3.15779e-10
0.000155383
3.26217e-10
0.000155383
3.35669e-10
0.000155383
3.43914e-10
0.000155383
3.50754e-10
0.000155383
3.56005e-10
0.000155383
3.59659e-10
0.000155383
3.61576e-10
0.000155383
3.62121e-10
0.000155383
3.60551e-10
0.000155383
3.58488e-10
0.000155383
3.54801e-10
0.000155383
3.52617e-10
0.000155383
3.50388e-10
0.000155383
3.54899e-10
0.000155383
3.65653e-10
0.000155383
3.67416e-10
0.000155383
3.54934e-10
0.000155383
3.22111e-10
0.000155383
2.71664e-10
0.000155383
2.08905e-10
0.000155383
1.38572e-10
0.000155383
6.37842e-11
0.000155383
-1.15903e-11
0.000155383
-8.64392e-11
0.000155383
-1.50087e-10
0.000155383
-2.10097e-10
0.000155383
-2.15253e-10
0.000155383
-2.30708e-10
-5.21616e-11
0.000160154
-5.77e-10
0.000160154
-1.62632e-10
0.000160154
5.60839e-11
0.000160154
1.47089e-10
0.000160154
1.5872e-10
0.000160154
1.36113e-10
0.000160154
1.03118e-10
0.000160154
6.73366e-11
0.000160154
3.46779e-11
0.000160154
8.69026e-12
0.000160154
-8.81754e-12
0.000160154
-1.70849e-11
0.000160154
-1.61922e-11
0.000160154
-7.01198e-12
0.000160154
8.85029e-12
0.000160154
2.93127e-11
0.000160154
5.22493e-11
0.000160154
7.59218e-11
0.000160154
9.922e-11
0.000160154
1.21645e-10
0.000160154
1.43109e-10
0.000160154
1.63697e-10
0.000160154
1.83491e-10
0.000160154
2.02507e-10
0.000160154
2.20714e-10
0.000160154
2.3808e-10
0.000160154
2.54607e-10
0.000160154
2.7034e-10
0.000160154
2.85323e-10
0.000160155
2.99562e-10
0.000160155
3.12973e-10
0.000160155
3.25394e-10
0.000160155
3.36598e-10
0.000160155
3.46378e-10
0.000160155
3.54541e-10
0.000160155
3.61068e-10
0.000160155
3.65815e-10
0.000160155
3.69117e-10
0.000160155
3.70347e-10
0.000160155
3.70789e-10
0.000160154
3.70085e-10
0.000160154
3.69803e-10
0.000160154
3.67481e-10
0.000160154
3.69749e-10
0.000160154
3.7791e-10
0.000160154
3.82106e-10
0.000160154
3.78077e-10
0.000160154
3.57143e-10
0.000160154
3.18506e-10
0.000160154
2.65497e-10
0.000160154
2.024e-10
0.000160154
1.32664e-10
0.000160154
6.04969e-11
0.000160154
-1.24955e-11
0.000160154
-7.58096e-11
0.000160154
-1.36406e-10
0.000160154
-1.43246e-10
0.000160154
-1.66084e-10
2.31655e-11
0.000165032
-5.64277e-10
0.000165032
-1.58088e-10
0.000165032
5.68077e-11
0.000165032
1.45902e-10
0.000165032
1.56232e-10
0.000165032
1.30874e-10
0.000165032
9.33483e-11
0.000165032
5.22161e-11
0.000165032
1.40604e-11
0.000165032
-1.70651e-11
0.000165032
-3.90197e-11
0.000165032
-5.09061e-11
0.000165032
-5.28098e-11
0.000165032
-4.56784e-11
0.000165032
-3.12047e-11
0.000165033
-1.15409e-11
0.000165033
1.11375e-11
0.000165033
3.50532e-11
0.000165033
5.90573e-11
0.000165033
8.26066e-11
0.000165033
1.05566e-10
0.000165033
1.2797e-10
0.000165033
1.49856e-10
0.000165033
1.71196e-10
0.000165033
1.9192e-10
0.000165033
2.11956e-10
0.000165033
2.31274e-10
0.000165033
2.49884e-10
0.000165033
2.67803e-10
0.000165033
2.8501e-10
0.000165033
3.01408e-10
0.000165033
3.16822e-10
0.000165033
3.31014e-10
0.000165033
3.43771e-10
0.000165033
3.5489e-10
0.000165033
3.64339e-10
0.000165033
3.71966e-10
0.000165033
3.78077e-10
0.000165033
3.82146e-10
0.000165033
3.85189e-10
0.000165033
3.87286e-10
0.000165033
3.89228e-10
0.000165033
3.87824e-10
0.000165033
3.88865e-10
0.000165033
3.94417e-10
0.000165033
3.98529e-10
0.000165033
3.9896e-10
0.000165033
3.86589e-10
0.000165033
3.58163e-10
0.000165033
3.14823e-10
0.000165033
2.5975e-10
0.000165033
1.96181e-10
0.000165032
1.28354e-10
0.000165032
5.82543e-11
0.000165032
-3.92621e-12
0.000165032
-6.44124e-11
0.000165032
-7.28341e-11
0.000165032
-1.03572e-10
9.64456e-11
0.000170021
-5.51554e-10
0.000170021
-1.5501e-10
0.000170021
5.40871e-11
0.000170021
1.40681e-10
0.000170021
1.5044e-10
0.000170021
1.23884e-10
0.000170021
8.37049e-11
0.000170021
3.89792e-11
0.000170021
-3.29568e-12
0.000170021
-3.86468e-11
0.000170021
-6.4562e-11
0.000170021
-7.99041e-11
0.000170021
-8.46534e-11
0.000170021
-7.9744e-11
0.000170021
-6.68956e-11
0.000170021
-4.8294e-11
0.000170021
-2.61428e-11
0.000170021
-2.24521e-12
0.000170021
2.22185e-11
0.000170021
4.66658e-11
0.000170021
7.09163e-11
0.000170021
9.49575e-11
0.000170021
1.1878e-10
0.000170021
1.42313e-10
0.000170021
1.65444e-10
0.000170021
1.88064e-10
0.000170021
2.10105e-10
0.000170021
2.31541e-10
0.000170021
2.52358e-10
0.000170021
2.72511e-10
0.000170021
2.91882e-10
0.000170021
3.10284e-10
0.000170021
3.27471e-10
0.000170021
3.43219e-10
0.000170021
3.57314e-10
0.000170021
3.69708e-10
0.000170021
3.80246e-10
0.000170021
3.89199e-10
0.000170021
3.96127e-10
0.000170021
4.01838e-10
0.000170021
4.06622e-10
0.000170021
4.10921e-10
0.000170021
4.1114e-10
0.000170021
4.11994e-10
0.000170021
4.15638e-10
0.000170021
4.18646e-10
0.000170021
4.20804e-10
0.000170021
4.13879e-10
0.000170021
3.9339e-10
0.000170021
3.58654e-10
0.000170021
3.11498e-10
0.000170021
2.54551e-10
0.000170021
1.91749e-10
0.000170021
1.25282e-10
0.000170021
6.4851e-11
0.000170021
5.02646e-12
0.000170021
-4.91207e-12
0.000170021
-4.41684e-11
1.66844e-10
0.000175122
-5.38384e-10
0.000175122
-1.52459e-10
0.000175122
4.8805e-11
0.000175122
1.31686e-10
0.000175122
1.40831e-10
0.000175122
1.1398e-10
0.000175122
7.2599e-11
0.000175122
2.58738e-11
0.000175122
-1.90658e-11
0.000175122
-5.74866e-11
0.000175122
-8.65534e-11
0.000175122
-1.04857e-10
0.000175122
-1.12203e-10
0.000175122
-1.0944e-10
0.000175122
-9.82558e-11
0.000175122
-8.08269e-11
0.000175122
-5.93561e-11
0.000175122
-3.56534e-11
0.000175122
-1.09165e-11
0.000175122
1.42425e-11
0.000175122
3.96047e-11
0.000175122
6.51151e-11
0.000175122
9.07208e-11
0.000175122
1.1631e-10
0.000175122
1.4173e-10
0.000175122
1.66833e-10
0.000175122
1.9151e-10
0.000175122
2.15701e-10
0.000175122
2.39358e-10
0.000175122
2.6241e-10
0.000175122
2.84719e-10
0.000175122
3.06085e-10
0.000175122
3.26249e-10
0.000175122
3.44979e-10
0.000175122
3.62047e-10
0.000175122
3.77392e-10
0.000175122
3.9085e-10
0.000175122
4.02658e-10
0.000175122
4.12444e-10
0.000175122
4.20863e-10
0.000175122
4.28265e-10
0.000175122
4.34957e-10
0.000175122
4.37229e-10
0.000175122
4.38757e-10
0.000175122
4.41415e-10
0.000175122
4.43239e-10
0.000175122
4.45569e-10
0.000175122
4.41652e-10
0.000175122
4.26771e-10
0.000175122
3.99038e-10
0.000175122
3.59014e-10
0.000175122
3.08527e-10
0.000175122
2.50952e-10
0.000175122
1.88501e-10
0.000175122
1.30185e-10
0.000175122
7.13717e-11
0.000175122
5.98788e-11
0.000175122
1.1396e-11
2.33681e-10
0.000180338
-5.24511e-10
0.000180338
-1.49754e-10
0.000180338
4.1837e-11
0.000180338
1.19528e-10
0.000180338
1.2747e-10
0.000180338
1.00647e-10
0.000180338
5.90383e-11
0.000180338
1.16041e-11
0.000180338
-3.46538e-11
0.000180338
-7.49262e-11
0.000180338
-1.06158e-10
0.000180338
-1.26697e-10
0.000180338
-1.3615e-10
0.000180338
-1.35235e-10
0.000180338
-1.25559e-10
0.000180338
-1.09251e-10
0.000180338
-8.84836e-11
0.000180338
-6.50493e-11
0.000180338
-4.01464e-11
0.000180339
-1.44028e-11
0.000180339
1.19341e-11
0.000180339
3.87747e-11
0.000180339
6.60288e-11
0.000180339
9.3547e-11
0.000180339
1.21138e-10
0.000180339
1.48616e-10
0.000180339
1.75835e-10
0.000180339
2.02697e-10
0.000180339
2.29122e-10
0.000180339
2.5501e-10
0.000180339
2.80204e-10
0.000180339
3.04488e-10
0.000180339
3.27594e-10
0.000180339
3.49276e-10
0.000180339
3.69297e-10
0.000180339
3.87575e-10
0.000180339
4.03943e-10
0.000180339
4.186e-10
0.000180339
4.31229e-10
0.000180339
4.42368e-10
0.000180339
4.52342e-10
0.000180339
4.61416e-10
0.000180339
4.65972e-10
0.000180338
4.68797e-10
0.000180338
4.71344e-10
0.000180338
4.72387e-10
0.000180338
4.74231e-10
0.000180338
4.71673e-10
0.000180338
4.60398e-10
0.000180338
4.3793e-10
0.000180338
4.03851e-10
0.000180338
3.59186e-10
0.000180338
3.06603e-10
0.000180338
2.48187e-10
0.000180338
1.9207e-10
0.000180338
1.34383e-10
0.000180338
1.2115e-10
0.000180338
6.26527e-11
2.9648e-10
0.000185672
-5.09801e-10
0.000185672
-1.4644e-10
0.000185672
3.39286e-11
0.000185672
1.04929e-10
0.000185673
1.10766e-10
0.000185673
8.38473e-11
0.000185673
4.25404e-11
0.000185673
-4.6679e-12
0.000185673
-5.11166e-11
0.000185673
-9.20968e-11
0.000185673
-1.24462e-10
0.000185673
-1.46384e-10
0.000185673
-1.57287e-10
0.000185673
-1.57742e-10
0.000185673
-1.49251e-10
0.000185673
-1.33862e-10
0.000185673
-1.13689e-10
0.000185673
-9.04871e-11
0.000185673
-6.54354e-11
0.000185673
-3.91629e-11
0.000185673
-1.19325e-11
0.000185673
1.61412e-11
0.000185673
4.49382e-11
0.000185673
7.42773e-11
0.000185673
1.03933e-10
0.000185673
1.33685e-10
0.000185673
1.6335e-10
0.000185673
1.92794e-10
0.000185673
2.21905e-10
0.000185673
2.50556e-10
0.000185673
2.78569e-10
0.000185673
3.05713e-10
0.000185673
3.31708e-10
0.000185673
3.56297e-10
0.000185673
3.79231e-10
0.000185673
4.0041e-10
0.000185673
4.19658e-10
0.000185673
4.37142e-10
0.000185673
4.52582e-10
0.000185673
4.66427e-10
0.000185673
4.78937e-10
0.000185673
4.90361e-10
0.000185673
4.97301e-10
0.000185673
5.01832e-10
0.000185673
5.04978e-10
0.000185673
5.05814e-10
0.000185673
5.07086e-10
0.000185673
5.04941e-10
0.000185673
4.95762e-10
0.000185673
4.76964e-10
0.000185672
4.47502e-10
0.000185672
4.07723e-10
0.000185672
3.59559e-10
0.000185672
3.04872e-10
0.000185672
2.50766e-10
0.000185672
1.94076e-10
0.000185672
1.78747e-10
0.000185672
1.09373e-10
3.54971e-10
0.000191127
-4.94188e-10
0.000191127
-1.42234e-10
0.000191127
2.56598e-11
0.000191127
8.85855e-11
0.000191127
9.12914e-11
0.000191127
6.38548e-11
0.000191127
2.30147e-11
0.000191128
-2.33764e-11
0.000191128
-6.9155e-11
0.000191128
-1.09861e-10
0.000191128
-1.42383e-10
0.000191128
-1.64804e-10
0.000191128
-1.76414e-10
0.000191128
-1.77646e-10
0.000191128
-1.69884e-10
0.000191128
-1.55083e-10
0.000191128
-1.35278e-10
0.000191128
-1.12166e-10
0.000191128
-8.68915e-11
0.000191128
-6.00687e-11
0.000191128
-3.19632e-11
0.000191128
-2.7034e-12
0.000191128
2.75701e-11
0.000191128
5.86512e-11
0.000191128
9.02865e-11
0.000191128
1.22223e-10
0.000191128
1.54245e-10
0.000191128
1.86186e-10
0.000191128
2.17899e-10
0.000191128
2.49234e-10
0.000191128
2.79991e-10
0.000191128
3.09925e-10
0.000191128
3.38744e-10
0.000191128
3.66182e-10
0.000191128
3.91975e-10
0.000191128
4.16007e-10
0.000191128
4.3809e-10
0.000191128
4.58361e-10
0.000191128
4.76567e-10
0.000191128
4.93084e-10
0.000191128
5.08093e-10
0.000191128
5.21824e-10
0.000191128
5.31165e-10
0.000191128
5.37641e-10
0.000191128
5.41903e-10
0.000191128
5.43097e-10
0.000191127
5.44024e-10
0.000191127
5.41871e-10
0.000191127
5.33774e-10
0.000191127
5.17347e-10
0.000191127
4.91227e-10
0.000191127
4.55277e-10
0.000191127
4.1074e-10
0.000191127
3.59227e-10
0.000191127
3.0671e-10
0.000191127
2.50663e-10
0.000191127
2.32708e-10
0.000191127
1.51539e-10
4.09085e-10
0.000196706
-4.77647e-10
0.000196706
-1.36976e-10
0.000196706
1.74556e-11
0.000196706
7.11039e-11
0.000196706
6.96519e-11
0.000196706
4.11131e-11
0.000196706
6.41167e-13
0.000196706
-4.46348e-11
0.000196706
-8.9149e-11
0.000196706
-1.288e-10
0.000196706
-1.60625e-10
0.000196706
-1.82708e-10
0.000196706
-1.94264e-10
0.000196706
-1.9562e-10
0.000196706
-1.88052e-10
0.000196706
-1.73414e-10
0.000196706
-1.53652e-10
0.000196706
-1.30396e-10
0.000196706
-1.04739e-10
0.000196706
-7.72695e-11
0.000196706
-4.82426e-11
0.000196706
-1.77896e-11
0.000196706
1.39381e-11
0.000196706
4.67172e-11
0.000196706
8.02725e-11
0.000196706
1.14325e-10
0.000196706
1.48629e-10
0.000196706
1.82986e-10
0.000196706
2.17223e-10
0.000196706
2.51162e-10
0.000196706
2.84585e-10
0.000196706
3.17232e-10
0.000196706
3.48804e-10
0.000196706
3.7902e-10
0.000196706
4.07607e-10
0.000196706
4.34429e-10
0.000196706
4.59291e-10
0.000196706
4.82295e-10
0.000196706
5.03208e-10
0.000196706
5.22346e-10
0.000196706
5.39807e-10
0.000196706
5.55799e-10
0.000196706
5.67508e-10
0.000196706
5.76045e-10
0.000196706
5.81768e-10
0.000196706
5.83787e-10
0.000196706
5.84715e-10
0.000196706
5.82474e-10
0.000196706
5.74869e-10
0.000196705
5.59852e-10
0.000196705
5.35977e-10
0.000196705
5.02815e-10
0.000196705
4.61017e-10
0.000196705
4.1196e-10
0.000196705
3.60433e-10
0.000196705
3.04486e-10
0.000196705
2.83219e-10
0.000196705
1.89297e-10
4.58925e-10
0.00020241
-4.60176e-10
0.00020241
-1.30585e-10
0.00020241
9.61399e-12
0.00020241
5.29775e-11
0.00020241
4.642e-11
0.00020241
1.61344e-11
0.00020241
-2.42359e-11
0.00020241
-6.8324e-11
0.00020241
-1.11215e-10
0.00020241
-1.49241e-10
0.00020241
-1.79672e-10
0.00020241
-2.00677e-10
0.00020241
-2.11459e-10
0.00020241
-2.12281e-10
0.00020241
-2.04333e-10
0.00020241
-1.89374e-10
0.00020241
-1.69265e-10
0.00020241
-1.45557e-10
0.00020241
-1.19287e-10
0.00020241
-9.10076e-11
0.00020241
-6.09526e-11
0.00020241
-2.9246e-11
0.00020241
3.95871e-12
0.00020241
3.84295e-11
0.00020241
7.38759e-11
0.00020241
1.09998e-10
0.00020241
1.46526e-10
0.00020241
1.83233e-10
0.00020241
2.19921e-10
0.00020241
2.56388e-10
0.00020241
2.92399e-10
0.00020241
3.27683e-10
0.00020241
3.61929e-10
0.00020241
3.94847e-10
0.00020241
4.26153e-10
0.00020241
4.55694e-10
0.00020241
4.83264e-10
0.00020241
5.08935e-10
0.00020241
5.32486e-10
0.00020241
5.54179e-10
0.00020241
5.74037e-10
0.00020241
5.92233e-10
0.00020241
6.06251e-10
0.00020241
6.16883e-10
0.00020241
6.24269e-10
0.00020241
6.27457e-10
0.00020241
6.28739e-10
0.00020241
6.26517e-10
0.00020241
6.1912e-10
0.00020241
6.04867e-10
0.00020241
5.8237e-10
0.000202409
5.51062e-10
0.000202409
5.11118e-10
0.000202409
4.63723e-10
0.000202409
4.12475e-10
0.000202409
3.55948e-10
0.000202409
3.30559e-10
0.000202409
2.22922e-10
5.04728e-10
0.000208243
-4.41788e-10
0.000208243
-1.23032e-10
0.000208243
2.33835e-12
0.000208243
3.45944e-11
0.000208243
2.20993e-11
0.000208243
-1.05672e-11
0.000208243
-5.11904e-11
0.000208243
-9.41744e-11
0.000208243
-1.35274e-10
0.000208243
-1.71295e-10
0.000208243
-1.998e-10
0.000208243
-2.19112e-10
0.000208243
-2.28481e-10
0.000208243
-2.28151e-10
0.000208243
-2.19253e-10
0.000208243
-2.03471e-10
0.000208243
-1.82582e-10
0.000208243
-1.58066e-10
0.000208243
-1.30901e-10
0.000208243
-1.01593e-10
0.000208243
-7.03508e-11
0.000208243
-3.72824e-11
0.000208243
-2.53492e-12
0.000208243
3.36583e-11
0.000208243
7.09981e-11
0.000208243
1.0917e-10
0.000208243
1.47884e-10
0.000208243
1.8689e-10
0.000208243
2.25967e-10
0.000208243
2.64894e-10
0.000208243
3.0342e-10
0.000208243
3.41262e-10
0.000208243
3.78102e-10
0.000208243
4.13642e-10
0.000208243
4.47587e-10
0.000208243
4.79766e-10
0.000208243
5.09966e-10
0.000208243
5.38226e-10
0.000208243
5.64336e-10
0.000208243
5.88506e-10
0.000208243
6.10695e-10
0.000208243
6.31034e-10
0.000208243
6.47283e-10
0.000208243
6.59987e-10
0.000208243
6.69134e-10
0.000208243
6.73715e-10
0.000208243
6.75647e-10
0.000208242
6.73629e-10
0.000208242
6.66359e-10
0.000208242
6.52478e-10
0.000208242
6.30719e-10
0.000208242
6.00488e-10
0.000208242
5.61582e-10
0.000208242
5.15052e-10
0.000208242
4.63323e-10
0.000208242
4.05451e-10
0.000208242
3.75048e-10
0.000208242
2.52763e-10
5.46828e-10
0.000214207
-4.22508e-10
0.000214207
-1.14322e-10
0.000214207
-4.2346e-12
0.000214207
1.62548e-11
0.000214207
-2.88394e-12
0.000214207
-3.85131e-11
0.000214207
-7.97725e-11
0.000214207
-1.21831e-10
0.000214207
-1.61111e-10
0.000214207
-1.94906e-10
0.000214207
-2.2111e-10
0.000214207
-2.38249e-10
0.000214207
-2.45668e-10
0.000214207
-2.43635e-10
0.000214207
-2.33256e-10
0.000214207
-2.16158e-10
0.000214207
-1.94051e-10
0.000214207
-1.68348e-10
0.000214207
-1.39969e-10
0.000214207
-1.09377e-10
0.000214207
-7.67486e-11
0.000214207
-4.21707e-11
0.000214207
-5.77767e-12
0.000214207
3.22021e-11
0.000214207
7.14672e-11
0.000214207
1.11694e-10
0.000214207
1.52576e-10
0.000214207
1.93847e-10
0.000214207
2.35265e-10
0.000214207
2.76592e-10
0.000214207
3.17565e-10
0.000214207
3.57892e-10
0.000214207
3.97247e-10
0.000214207
4.35325e-10
0.000214207
4.71824e-10
0.000214207
5.06557e-10
0.000214207
5.393e-10
0.000214207
5.70066e-10
0.000214207
5.98647e-10
0.000214207
6.25207e-10
0.000214207
6.49649e-10
0.000214207
6.72061e-10
0.000214207
6.90451e-10
0.000214207
7.05172e-10
0.000214207
7.16101e-10
0.000214207
7.22196e-10
0.000214207
7.25e-10
0.000214207
7.23377e-10
0.000214207
7.16259e-10
0.000214207
7.02542e-10
0.000214207
6.81083e-10
0.000214206
6.51317e-10
0.000214206
6.12746e-10
0.000214206
5.6633e-10
0.000214206
5.13367e-10
0.000214206
4.53351e-10
0.000214206
4.17002e-10
0.000214206
2.7921e-10
5.85613e-10
0.000220306
-4.02367e-10
0.000220306
-1.04478e-10
0.000220306
-1.00126e-11
0.000220306
-1.80826e-12
0.000220306
-2.81748e-11
0.000220306
-6.72761e-11
0.000220306
-1.09544e-10
0.000220306
-1.50904e-10
0.000220306
-1.88429e-10
0.000220306
-2.19901e-10
0.000220306
-2.43565e-10
0.000220306
-2.58178e-10
0.000220306
-2.63223e-10
0.000220306
-2.59025e-10
0.000220306
-2.46694e-10
0.000220306
-2.27824e-10
0.000220306
-2.04076e-10
0.000220306
-1.76805e-10
0.000220306
-1.46882e-10
0.000220306
-1.14729e-10
0.000220306
-8.04896e-11
0.000220306
-4.42261e-11
0.000220306
-6.05604e-12
0.000220306
3.3802e-11
0.000220306
7.50495e-11
0.000220306
1.17358e-10
0.000220306
1.60412e-10
0.000220306
2.03929e-10
0.000220306
2.47653e-10
0.000220306
2.91331e-10
0.000220306
3.34691e-10
0.000220306
3.77432e-10
0.000220306
4.19226e-10
0.000220306
4.59761e-10
0.000220306
4.98727e-10
0.000220306
5.35924e-10
0.000220306
5.71121e-10
0.000220306
6.04301e-10
0.000220306
6.35257e-10
0.000220305
6.64113e-10
0.000220305
6.90722e-10
0.000220305
7.15129e-10
0.000220305
7.35563e-10
0.000220305
7.52221e-10
0.000220305
7.64902e-10
0.000220305
7.72555e-10
0.000220305
7.76371e-10
0.000220305
7.75301e-10
0.000220305
7.6841e-10
0.000220305
7.54763e-10
0.000220305
7.33319e-10
0.000220305
7.03561e-10
0.000220305
6.64746e-10
0.000220305
6.17773e-10
0.000220305
5.62872e-10
0.000220305
4.99921e-10
0.000220305
4.56696e-10
0.000220305
3.02652e-10
6.21497e-10
0.000226541
-3.81404e-10
0.000226541
-9.35387e-11
0.000226541
-1.4932e-11
0.000226541
-1.94095e-11
0.000226541
-5.34774e-11
0.000226541
-9.64821e-11
0.000226541
-1.40098e-10
0.000226541
-1.80999e-10
0.000226541
-2.1689e-10
0.000226541
-2.46033e-10
0.000226541
-2.67025e-10
0.000226541
-2.78877e-10
0.000226541
-2.81229e-10
0.000226541
-2.74497e-10
0.000226541
-2.59819e-10
0.000226541
-2.38778e-10
0.000226541
-2.13002e-10
0.000226541
-1.83804e-10
0.000226541
-1.52014e-10
0.000226541
-1.18019e-10
0.000226541
-8.1931e-11
0.000226541
-4.37894e-11
0.000226541
-3.69198e-12
0.000226541
3.8156e-11
0.000226541
8.14626e-11
0.000226541
1.25899e-10
0.000226541
1.71144e-10
0.000226541
2.16904e-10
0.000226541
2.62911e-10
0.000226541
3.08901e-10
0.000226541
3.54595e-10
0.000226541
3.99687e-10
0.000226541
4.43846e-10
0.000226541
4.86756e-10
0.000226541
5.28104e-10
0.000226541
5.67674e-10
0.000226541
6.05229e-10
0.000226541
6.40727e-10
0.000226541
6.73959e-10
0.000226541
7.05009e-10
0.000226541
7.33692e-10
0.000226541
7.60008e-10
0.000226541
7.82382e-10
0.000226541
8.00883e-10
0.000226541
8.15252e-10
0.000226541
8.24447e-10
0.000226541
8.29345e-10
0.000226541
8.28938e-10
0.00022654
8.2235e-10
0.00022654
8.08745e-10
0.00022654
7.8714e-10
0.00022654
7.57058e-10
0.00022654
7.17542e-10
0.00022654
6.69437e-10
0.00022654
6.11965e-10
0.00022654
5.45335e-10
0.00022654
4.94345e-10
0.00022654
3.2345e-10
6.54882e-10
0.000232916
-3.59666e-10
0.000232916
-8.15475e-11
0.000232916
-1.89462e-11
0.000232916
-3.6396e-11
0.000232916
-7.85403e-11
0.000232916
-1.25804e-10
0.000232916
-1.71064e-10
0.000232916
-2.11737e-10
0.000232916
-2.46146e-10
0.000232917
-2.73012e-10
0.000232917
-2.91285e-10
0.000232917
-3.00233e-10
0.000232917
-2.99675e-10
0.000232917
-2.90133e-10
0.000232917
-2.72795e-10
0.000232917
-2.49251e-10
0.000232917
-2.21111e-10
0.000232917
-1.89662e-10
0.000232917
-1.55705e-10
0.000232917
-1.19597e-10
0.000232917
-8.1427e-11
0.000232917
-4.12111e-11
0.000232917
9.72153e-13
0.000232917
4.49326e-11
0.000232917
9.03873e-11
0.000232917
1.37011e-10
0.000232917
1.84478e-10