/*--------------------------------*- C++ -*----------------------------------*\
  =========                 |
  \\      /  F ield         | OpenFOAM: The Open Source CFD Toolbox
   \\    /   O peration     | Website:  https://openfoam.org
    \\  /    A nd           | Version:  7
     \\/     M anipulation  |
\*---------------------------------------------------------------------------*/
FoamFile
{
    version     2.0;
    format      ascii;
    class       volVectorField;
    location    "4500";
    object      U;
}
// * * * * * * * * * * * * * * * * * * * * * * * * * * * * * * * * * * * * * //

dimensions      [0 1 -1 0 0 0 0];

internalField   nonuniform List<vector> 
3974
(
(0.116725 4.49519e-08 5.19341e-15)
(0.116725 4.74295e-08 5.23913e-15)
(0.116725 4.64883e-08 5.19358e-15)
(0.116725 4.4977e-08 5.23931e-15)
(0.116725 4.32585e-08 5.19176e-15)
(0.116725 4.16113e-08 5.17584e-15)
(0.116725 4.02997e-08 5.16699e-15)
(0.116725 3.95287e-08 5.06047e-15)
(0.116725 3.9407e-08 5.17013e-15)
(0.116725 3.99251e-08 5.13913e-15)
(0.116725 4.09574e-08 5.14224e-15)
(0.116725 4.22973e-08 5.11813e-15)
(0.116725 4.3718e-08 5.00998e-15)
(0.116725 4.50315e-08 5.1301e-15)
(0.116725 4.61218e-08 5.02216e-15)
(0.116725 4.69459e-08 5.08097e-15)
(0.116726 4.7511e-08 5.05228e-15)
(0.116726 4.78462e-08 5.004e-15)
(0.116726 4.79818e-08 5.06329e-15)
(0.116726 4.794e-08 4.9705e-15)
(0.116726 4.77363e-08 5.02512e-15)
(0.116726 4.73851e-08 5.02993e-15)
(0.116726 4.69034e-08 4.92714e-15)
(0.116726 4.63116e-08 5.02863e-15)
(0.116726 4.56288e-08 4.98533e-15)
(0.116726 4.48677e-08 5.00525e-15)
(0.116726 4.40293e-08 5.01494e-15)
(0.116726 4.31032e-08 4.9764e-15)
(0.116726 4.20712e-08 5.02984e-15)
(0.116726 4.09164e-08 4.94466e-15)
(0.116726 3.96259e-08 5.00358e-15)
(0.116726 3.82008e-08 5.0381e-15)
(0.116726 3.6641e-08 4.91756e-15)
(0.116726 3.49539e-08 5.00103e-15)
(0.116726 3.31297e-08 5.03033e-15)
(0.116726 3.10333e-08 4.95691e-15)
(0.116726 2.90106e-08 5.01034e-15)
(0.116726 2.33881e-08 4.89169e-15)
(0.117775 7.91468e-09 5.54931e-15)
(0.117775 2.68928e-08 5.46597e-15)
(0.117775 3.74986e-08 5.47348e-15)
(0.117775 3.97902e-08 5.51416e-15)
(0.117775 4.0147e-08 5.44965e-15)
(0.117775 3.94857e-08 5.4859e-15)
(0.117775 3.82659e-08 5.4316e-15)
(0.117775 3.69604e-08 5.4345e-15)
(0.117775 3.59061e-08 5.45731e-15)
(0.117775 3.53352e-08 5.34966e-15)
(0.117775 3.53713e-08 5.4132e-15)
(0.117775 3.60167e-08 5.37605e-15)
(0.117775 3.71566e-08 5.39377e-15)
(0.117775 3.85947e-08 5.40314e-15)
(0.117775 4.01127e-08 5.29489e-15)
(0.117775 4.15289e-08 5.35959e-15)
(0.117775 4.27313e-08 5.27118e-15)
(0.117775 4.36786e-08 5.32626e-15)
(0.117775 4.43786e-08 5.34069e-15)
(0.117775 4.48597e-08 5.24592e-15)
(0.117775 4.51509e-08 5.29687e-15)
(0.117775 4.52733e-08 5.22984e-15)
(0.117775 4.52413e-08 5.27829e-15)
(0.117776 4.50679e-08 5.30559e-15)
(0.117776 4.47692e-08 5.20872e-15)
(0.117776 4.43642e-08 5.25259e-15)
(0.117776 4.3871e-08 5.19468e-15)
(0.117776 4.33011e-08 5.24884e-15)
(0.117776 4.26544e-08 5.28775e-15)
(0.117776 4.19201e-08 5.21758e-15)
(0.117776 4.10791e-08 5.25148e-15)
(0.117776 4.01144e-08 5.20692e-15)
(0.117776 3.90122e-08 5.23322e-15)
(0.117776 3.77738e-08 5.27448e-15)
(0.117776 3.63959e-08 5.21149e-15)
(0.117776 3.48964e-08 5.2407e-15)
(0.117776 3.32268e-08 5.27145e-15)
(0.117776 3.1439e-08 5.23184e-15)
(0.117776 2.92391e-08 5.25308e-15)
(0.117776 2.65414e-08 5.18552e-15)
(0.117776 2.27561e-08 5.21273e-15)
(0.117776 1.41975e-08 5.24688e-15)
(0.118792 -7.36723e-08 5.83211e-15)
(0.118792 -2.5134e-08 5.75814e-15)
(0.118792 5.70296e-09 5.78928e-15)
(0.118792 2.07359e-08 5.8062e-15)
(0.118792 2.84417e-08 5.76171e-15)
(0.118792 3.17534e-08 5.79182e-15)
(0.118792 3.32455e-08 5.69328e-15)
(0.118792 3.32465e-08 5.74485e-15)
(0.118792 3.24811e-08 5.66776e-15)
(0.118792 3.15274e-08 5.70522e-15)
(0.118792 3.07593e-08 5.74107e-15)
(0.118793 3.04255e-08 5.60108e-15)
(0.118793 3.06592e-08 5.66886e-15)
(0.118793 3.14717e-08 5.62496e-15)
(0.118793 3.27579e-08 5.66189e-15)
(0.118793 3.43315e-08 5.68265e-15)
(0.118793 3.59831e-08 5.5449e-15)
(0.118793 3.75375e-08 5.60367e-15)
(0.118793 3.88869e-08 5.50632e-15)
(0.118793 3.9992e-08 5.58395e-15)
(0.118793 4.08605e-08 5.6189e-15)
(0.118793 4.15202e-08 5.49863e-15)
(0.118793 4.19988e-08 5.5395e-15)
(0.118793 4.23162e-08 5.46729e-15)
(0.118793 4.24854e-08 5.53806e-15)
(0.118793 4.25184e-08 5.57563e-15)
(0.118793 4.243e-08 5.45774e-15)
(0.118793 4.22381e-08 5.49259e-15)
(0.118793 4.19595e-08 5.41736e-15)
(0.118793 4.16047e-08 5.50424e-15)
(0.118793 4.11727e-08 5.557e-15)
(0.118793 4.0652e-08 5.45953e-15)
(0.118793 4.00232e-08 5.4922e-15)
(0.118793 3.92688e-08 5.42715e-15)
(0.118793 3.83744e-08 5.48046e-15)
(0.118793 3.73413e-08 5.52147e-15)
(0.118793 3.61636e-08 5.48923e-15)
(0.118793 3.4868e-08 5.49089e-15)
(0.118793 3.33757e-08 5.50815e-15)
(0.118793 3.18792e-08 5.49131e-15)
(0.118793 2.96744e-08 5.49814e-15)
(0.118793 2.92966e-08 5.46169e-15)
(0.118793 2.84832e-08 5.46153e-15)
(0.118793 2.31061e-08 5.48394e-15)
(0.118793 1.54939e-08 5.47133e-15)
(0.118793 7.41736e-09 5.48343e-15)
(0.118793 -3.46886e-11 5.4549e-15)
(0.118793 -7.10546e-09 5.45521e-15)
(0.118793 -1.40824e-08 5.48203e-15)
(0.118793 -2.10961e-08 5.4774e-15)
(0.118793 -2.81479e-08 5.49573e-15)
(0.118792 -3.52263e-08 5.47277e-15)
(0.118792 -4.20645e-08 5.47365e-15)
(0.118792 -4.86545e-08 5.48488e-15)
(0.118792 -5.39051e-08 5.46478e-15)
(0.118792 -5.84779e-08 5.48277e-15)
(0.118792 -5.82852e-08 5.46378e-15)
(0.118792 -5.60586e-08 5.48758e-15)
(0.118792 -4.65641e-08 5.51985e-15)
(0.119779 -6.96115e-08 6.09716e-15)
(0.119779 -2.45005e-08 5.98958e-15)
(0.119779 2.45922e-09 6.04231e-15)
(0.119779 1.6228e-08 6.05094e-15)
(0.119779 2.23778e-08 6.04034e-15)
(0.119779 2.52961e-08 6.07029e-15)
(0.119779 2.67885e-08 5.89958e-15)
(0.119779 2.69805e-08 6.01782e-15)
(0.119779 2.64547e-08 5.82903e-15)
(0.119779 2.57397e-08 5.98799e-15)
(0.119779 2.51982e-08 6.0181e-15)
(0.119779 2.50736e-08 5.85696e-15)
(0.119779 2.54963e-08 5.93654e-15)
(0.119779 2.64792e-08 5.86509e-15)
(0.119779 2.79223e-08 5.9471e-15)
(0.11978 2.96468e-08 5.95638e-15)
(0.11978 3.14503e-08 5.74554e-15)
(0.11978 3.31637e-08 5.86439e-15)
(0.11978 3.46825e-08 5.75788e-15)
(0.11978 3.59688e-08 5.85953e-15)
(0.11978 3.70303e-08 5.89265e-15)
(0.11978 3.78934e-08 5.69495e-15)
(0.11978 3.85845e-08 5.79789e-15)
(0.11978 3.91217e-08 5.70554e-15)
(0.11978 3.95169e-08 5.81508e-15)
(0.11978 3.97805e-08 5.84213e-15)
(0.11978 3.99261e-08 5.68881e-15)
(0.11978 3.99703e-08 5.7477e-15)
(0.11978 3.99286e-08 5.65371e-15)
(0.11978 3.98104e-08 5.77726e-15)
(0.11978 3.96138e-08 5.82252e-15)
(0.11978 3.93268e-08 5.64525e-15)
(0.11978 3.89296e-08 5.7501e-15)
(0.11978 3.84043e-08 5.61773e-15)
(0.11978 3.77359e-08 5.74666e-15)
(0.11978 3.69258e-08 5.77736e-15)
(0.11978 3.59655e-08 5.75538e-15)
(0.11978 3.48887e-08 5.74236e-15)
(0.11978 3.3598e-08 5.74581e-15)
(0.11978 3.2359e-08 5.74279e-15)
(0.11978 3.03853e-08 5.74387e-15)
(0.11978 3.0453e-08 5.72676e-15)
(0.11978 3.08638e-08 5.71095e-15)
(0.11978 2.93948e-08 5.72126e-15)
(0.11978 2.56898e-08 5.7216e-15)
(0.11978 1.8188e-08 5.72863e-15)
(0.11978 1.00052e-08 5.71888e-15)
(0.11978 2.0779e-09 5.70686e-15)
(0.11978 -5.59888e-09 5.72045e-15)
(0.119779 -1.31696e-08 5.72914e-15)
(0.119779 -2.06821e-08 5.74114e-15)
(0.119779 -2.81545e-08 5.73612e-15)
(0.119779 -3.53434e-08 5.72258e-15)
(0.119779 -4.22554e-08 5.72178e-15)
(0.119779 -4.77984e-08 5.71701e-15)
(0.119779 -5.27077e-08 5.72879e-15)
(0.119779 -5.25579e-08 5.72742e-15)
(0.119779 -5.10246e-08 5.74435e-15)
(0.119779 -3.93943e-08 5.76251e-15)
(0.120737 -6.61823e-08 6.36162e-15)
(0.120737 -2.27516e-08 6.29491e-15)
(0.120737 1.69089e-09 6.31295e-15)
(0.120737 1.41381e-08 6.30344e-15)
(0.120737 1.88421e-08 6.31702e-15)
(0.120737 2.05884e-08 6.34486e-15)
(0.120737 2.13784e-08 6.25389e-15)
(0.120737 2.127e-08 6.31571e-15)
(0.120737 2.06695e-08 6.22815e-15)
(0.120737 1.99945e-08 6.29905e-15)
(0.120737 1.9552e-08 6.27962e-15)
(0.120737 1.95548e-08 6.15883e-15)
(0.120737 2.01154e-08 6.24021e-15)
(0.120737 2.12382e-08 6.18121e-15)
(0.120737 2.2822e-08 6.26357e-15)
(0.120737 2.46907e-08 6.21783e-15)
(0.120737 2.66467e-08 6.09187e-15)
(0.120737 2.85245e-08 6.15261e-15)
(0.120737 3.02221e-08 6.06018e-15)
(0.120737 3.17021e-08 6.18644e-15)
(0.120737 3.29711e-08 6.15417e-15)
(0.120737 3.4054e-08 6.0424e-15)
(0.120737 3.4975e-08 6.08028e-15)
(0.120737 3.57506e-08 6.01513e-15)
(0.120737 3.63907e-08 6.12766e-15)
(0.120737 3.69043e-08 6.0979e-15)
(0.120737 3.73033e-08 5.99031e-15)
(0.120738 3.76028e-08 6.02088e-15)
(0.120738 3.7817e-08 5.95408e-15)
(0.120738 3.7954e-08 6.08686e-15)
(0.120738 3.80111e-08 6.07715e-15)
(0.120738 3.79757e-08 5.9851e-15)
(0.120738 3.78275e-08 6.0269e-15)
(0.120738 3.75484e-08 5.96036e-15)
(0.120738 3.71227e-08 6.05067e-15)
(0.120738 3.65517e-08 6.0357e-15)
(0.120738 3.58249e-08 6.01308e-15)
(0.120738 3.49803e-08 5.99124e-15)
(0.120738 3.39141e-08 5.98337e-15)
(0.120738 3.2907e-08 5.99159e-15)
(0.120738 3.12895e-08 5.9896e-15)
(0.120738 3.11259e-08 5.98637e-15)
(0.120738 3.16895e-08 5.95328e-15)
(0.120738 3.21793e-08 5.95923e-15)
(0.120738 3.13056e-08 5.97077e-15)
(0.120738 2.60985e-08 5.97477e-15)
(0.120737 1.88778e-08 5.97847e-15)
(0.120737 1.09969e-08 5.95975e-15)
(0.120737 3.03951e-09 5.9611e-15)
(0.120737 -4.8756e-09 5.98065e-15)
(0.120737 -1.27255e-08 5.98858e-15)
(0.120737 -2.05145e-08 5.99661e-15)
(0.120737 -2.80063e-08 5.97307e-15)
(0.120737 -3.52109e-08 5.96101e-15)
(0.120737 -4.10394e-08 5.9675e-15)
(0.120737 -4.62796e-08 5.97523e-15)
(0.120737 -4.62266e-08 5.98705e-15)
(0.120737 -4.53849e-08 6.00405e-15)
(0.120737 -3.19302e-08 6.00808e-15)
(0.121667 -6.34891e-08 6.61027e-15)
(0.121667 -2.05764e-08 6.58598e-15)
(0.121666 2.5111e-09 6.58718e-15)
(0.121666 1.35455e-08 6.55184e-15)
(0.121666 1.69354e-08 6.60545e-15)
(0.121667 1.74421e-08 6.6083e-15)
(0.121667 1.72237e-08 6.56733e-15)
(0.121667 1.64521e-08 6.60017e-15)
(0.121667 1.54741e-08 6.54366e-15)
(0.121667 1.46134e-08 6.65962e-15)
(0.121667 1.4107e-08 6.51849e-15)
(0.121667 1.41208e-08 6.4715e-15)
(0.121667 1.47373e-08 6.55555e-15)
(0.121667 1.59431e-08 6.48545e-15)
(0.121667 1.76287e-08 6.57123e-15)
(0.121667 1.96159e-08 6.45756e-15)
(0.121667 2.17083e-08 6.39614e-15)
(0.121667 2.37419e-08 6.4719e-15)
(0.121667 2.56154e-08 6.38632e-15)
(0.121667 2.72904e-08 6.53519e-15)
(0.121667 2.87719e-08 6.39636e-15)
(0.121667 3.00823e-08 6.34173e-15)
(0.121667 3.12433e-08 6.36055e-15)
(0.121667 3.22689e-08 6.32595e-15)
(0.121667 3.3167e-08 6.43742e-15)
(0.121667 3.39446e-08 6.33262e-15)
(0.121667 3.46118e-08 6.28015e-15)
(0.121667 3.51818e-08 6.33786e-15)
(0.121667 3.56672e-08 6.26636e-15)
(0.121667 3.60748e-08 6.44115e-15)
(0.121667 3.64009e-08 6.3105e-15)
(0.121667 3.66323e-08 6.27175e-15)
(0.121667 3.67483e-08 6.30028e-15)
(0.121667 3.67304e-08 6.26286e-15)
(0.121667 3.65622e-08 6.39194e-15)
(0.121667 3.62447e-08 6.28755e-15)
(0.121667 3.5766e-08 6.2639e-15)
(0.121667 3.51658e-08 6.24485e-15)
(0.121667 3.43432e-08 6.21984e-15)
(0.121667 3.3558e-08 6.24145e-15)
(0.121667 3.23266e-08 6.23501e-15)
(0.121667 3.19772e-08 6.24443e-15)
(0.121667 3.22953e-08 6.13733e-15)
(0.121667 3.32652e-08 6.1976e-15)
(0.121667 3.38868e-08 6.22236e-15)
(0.121667 3.11319e-08 6.22081e-15)
(0.121667 2.57982e-08 6.23631e-15)
(0.121667 1.88535e-08 6.21826e-15)
(0.121667 1.12072e-08 6.2041e-15)
(0.121667 3.30557e-09 6.23549e-15)
(0.121667 -4.65863e-09 6.23714e-15)
(0.121667 -1.26169e-08 6.25711e-15)
(0.121667 -2.03119e-08 6.1939e-15)
(0.121667 -2.77395e-08 6.20238e-15)
(0.121667 -3.38155e-08 6.21958e-15)
(0.121667 -3.93536e-08 6.22142e-15)
(0.121667 -3.94405e-08 6.24654e-15)
(0.121667 -3.92756e-08 6.26539e-15)
(0.121667 -2.43324e-08 6.25357e-15)
(0.12257 -6.14057e-08 6.85684e-15)
(0.12257 -1.87505e-08 6.86364e-15)
(0.12257 3.71399e-09 6.85631e-15)
(0.12257 1.37623e-08 6.78777e-15)
(0.12257 1.61239e-08 6.81645e-15)
(0.12257 1.55302e-08 6.86652e-15)
(0.12257 1.42458e-08 6.86396e-15)
(0.12257 1.26276e-08 6.88401e-15)
(0.12257 1.10562e-08 6.83837e-15)
(0.12257 9.81289e-09 6.85779e-15)
(0.12257 9.08056e-09 6.80641e-15)
(0.12257 8.97828e-09 6.77151e-15)
(0.12257 9.55343e-09 6.80243e-15)
(0.12257 1.07691e-08 6.77204e-15)
(0.12257 1.25021e-08 6.81331e-15)
(0.12257 1.45679e-08 6.74063e-15)
(0.12257 1.67676e-08 6.69652e-15)
(0.12257 1.89364e-08 6.71712e-15)
(0.12257 2.09718e-08 6.6861e-15)
(0.12257 2.28336e-08 6.74339e-15)
(0.12257 2.45236e-08 6.67867e-15)
(0.12257 2.60611e-08 6.64109e-15)
(0.12257 2.74648e-08 6.64059e-15)
(0.12257 2.87456e-08 6.62303e-15)
(0.12257 2.99089e-08 6.67692e-15)
(0.12257 3.09593e-08 6.61262e-15)
(0.12257 3.19047e-08 6.57243e-15)
(0.12257 3.27561e-08 6.57101e-15)
(0.12257 3.35242e-08 6.56169e-15)
(0.12257 3.42143e-08 6.63872e-15)
(0.12257 3.48216e-08 6.59253e-15)
(0.12257 3.53322e-08 6.55975e-15)
(0.12257 3.5725e-08 6.56941e-15)
(0.12257 3.59809e-08 6.54777e-15)
(0.12257 3.60829e-08 6.58603e-15)
(0.12257 3.60314e-08 6.51031e-15)
(0.12257 3.58134e-08 6.51184e-15)
(0.12257 3.54685e-08 6.49366e-15)
(0.12257 3.49046e-08 6.45401e-15)
(0.12257 3.43437e-08 6.49594e-15)
(0.12257 3.34821e-08 6.47886e-15)
(0.12257 3.30966e-08 6.50359e-15)
(0.12257 3.3116e-08 6.46988e-15)
(0.12257 3.39871e-08 6.4413e-15)
(0.12257 3.51681e-08 6.47889e-15)
(0.12257 3.41502e-08 6.46526e-15)
(0.12257 3.07736e-08 6.49603e-15)
(0.12257 2.52745e-08 6.47677e-15)
(0.12257 1.84662e-08 6.44766e-15)
(0.12257 1.0978e-08 6.49788e-15)
(0.12257 3.17939e-09 6.48553e-15)
(0.12257 -4.75165e-09 6.52113e-15)
(0.12257 -1.25101e-08 6.49478e-15)
(0.12257 -2.00588e-08 6.44537e-15)
(0.12257 -2.63178e-08 6.47701e-15)
(0.12257 -3.20987e-08 6.466e-15)
(0.12257 -3.23524e-08 6.5102e-15)
(0.12257 -3.28593e-08 6.5276e-15)
(0.12257 -1.66626e-08 6.49541e-15)
(0.123447 -5.97467e-08 7.09619e-15)
(0.123447 -1.74254e-08 7.1376e-15)
(0.123447 4.7749e-09 7.11361e-15)
(0.123447 1.42603e-08 7.00082e-15)
(0.123447 1.59231e-08 7.04847e-15)
(0.123447 1.44581e-08 7.12521e-15)
(0.123447 1.22099e-08 7.15441e-15)
(0.123447 9.72185e-09 7.14366e-15)
(0.123447 7.45441e-09 7.12212e-15)
(0.123447 5.69649e-09 7.09064e-15)
(0.123447 4.60791e-09 7.06938e-15)
(0.123447 4.27462e-09 7.05828e-15)
(0.123447 4.71278e-09 7.04981e-15)
(0.123447 5.86117e-09 7.05387e-15)
(0.123448 7.58037e-09 7.033e-15)
(0.123448 9.6765e-09 7.00091e-15)
(0.123448 1.19459e-08 6.98707e-15)
(0.123448 1.42208e-08 6.98296e-15)
(0.123448 1.63962e-08 6.9762e-15)
(0.123448 1.84283e-08 6.9581e-15)
(0.123448 2.03154e-08 6.93945e-15)
(0.123448 2.20728e-08 6.93276e-15)
(0.123448 2.37153e-08 6.90254e-15)
(0.123448 2.52506e-08 6.91111e-15)
(0.123448 2.66807e-08 6.89833e-15)
(0.123448 2.80077e-08 6.87097e-15)
(0.123448 2.92365e-08 6.86091e-15)
(0.123448 3.03759e-08 6.83513e-15)
(0.123448 3.14344e-08 6.84755e-15)
(0.123448 3.24154e-08 6.86835e-15)
(0.123448 3.33129e-08 6.85274e-15)
(0.123448 3.41122e-08 6.84407e-15)
(0.123448 3.47916e-08 6.8214e-15)
(0.123448 3.53315e-08 6.8231e-15)
(0.123448 3.57141e-08 6.8057e-15)
(0.123448 3.59389e-08 6.71544e-15)
(0.123448 3.59923e-08 6.76207e-15)
(0.123448 3.59121e-08 6.74367e-15)
(0.123448 3.56179e-08 6.67908e-15)
(0.123448 3.52906e-08 6.75948e-15)
(0.123448 3.47681e-08 6.71759e-15)
(0.123448 3.44692e-08 6.77082e-15)
(0.123448 3.42855e-08 6.74014e-15)
(0.123448 3.48764e-08 6.67634e-15)
(0.123448 3.60711e-08 6.74627e-15)
(0.123448 3.60343e-08 6.70499e-15)
(0.123448 3.42417e-08 6.76366e-15)
(0.123448 3.02845e-08 6.7373e-15)
(0.123448 2.46298e-08 6.68675e-15)
(0.123448 1.78882e-08 6.77297e-15)
(0.123448 1.05315e-08 6.73033e-15)
(0.123448 2.84066e-09 6.79485e-15)
(0.123448 -4.8211e-09 6.76192e-15)
(0.123448 -1.23684e-08 6.68321e-15)
(0.123447 -1.87278e-08 6.74552e-15)
(0.123447 -2.46811e-08 6.70609e-15)
(0.123447 -2.51116e-08 6.78471e-15)
(0.123447 -2.63033e-08 6.78846e-15)
(0.123447 -8.98105e-09 6.72946e-15)
(0.1243 -5.83396e-08 7.35017e-15)
(0.1243 -1.65439e-08 7.32886e-15)
(0.1243 5.46767e-09 7.34961e-15)
(0.1243 1.46602e-08 7.17454e-15)
(0.1243 1.59195e-08 7.30568e-15)
(0.1243 1.3844e-08 7.40366e-15)
(0.1243 1.08218e-08 7.3575e-15)
(0.1243 7.5543e-09 7.39733e-15)
(0.1243 4.59288e-09 7.31582e-15)
(0.1243 2.26648e-09 7.30692e-15)
(0.1243 7.42176e-10 7.32228e-15)
(0.1243 9.3084e-11 7.24994e-15)
(0.1243 3.14805e-10 7.29505e-15)
(0.1243 1.32614e-09 7.24747e-15)
(0.1243 2.9723e-09 7.24636e-15)
(0.1243 5.04935e-09 7.25336e-15)
(0.1243 7.34754e-09 7.18534e-15)
(0.1243 9.69518e-09 7.25277e-15)
(0.124301 1.19832e-08 7.17828e-15)
(0.124301 1.41641e-08 7.16896e-15)
(0.124301 1.62313e-08 7.19306e-15)
(0.124301 1.81957e-08 7.1324e-15)
(0.124301 2.0068e-08 7.15388e-15)
(0.124301 2.18517e-08 7.11115e-15)
(0.124301 2.35455e-08 7.11284e-15)
(0.124301 2.51481e-08 7.12335e-15)
(0.124301 2.66615e-08 7.0617e-15)
(0.124301 2.80916e-08 7.0942e-15)
(0.124301 2.94443e-08 7.04489e-15)
(0.124301 3.07211e-08 7.0901e-15)
(0.124301 3.19146e-08 7.10776e-15)
(0.124301 3.30091e-08 7.03899e-15)
(0.124301 3.39821e-08 7.06283e-15)
(0.124301 3.48136e-08 7.01146e-15)
(0.124301 3.54847e-08 7.02087e-15)
(0.124301 3.5994e-08 6.99136e-15)
(0.124301 3.63272e-08 7.02944e-15)
(0.124301 3.65197e-08 6.98045e-15)
(0.124301 3.6503e-08 6.97408e-15)
(0.124301 3.64209e-08 7.0379e-15)
(0.124301 3.62079e-08 7.02947e-15)
(0.124301 3.6076e-08 7.05712e-15)
(0.124301 3.58225e-08 6.99272e-15)
(0.124301 3.61422e-08 6.98039e-15)
(0.124301 3.71038e-08 7.03419e-15)
(0.124301 3.74848e-08 7.01945e-15)
(0.124301 3.677e-08 7.05226e-15)
(0.124301 3.41632e-08 6.98834e-15)
(0.124301 2.97402e-08 7.00346e-15)
(0.124301 2.39451e-08 7.06724e-15)
(0.124301 1.7248e-08 7.05014e-15)
(0.124301 9.99063e-09 7.09315e-15)
(0.1243 2.58344e-09 7.01823e-15)
(0.1243 -4.8355e-09 6.99532e-15)
(0.1243 -1.12045e-08 7.04048e-15)
(0.1243 -1.72534e-08 7.02178e-15)
(0.1243 -1.78572e-08 7.08507e-15)
(0.1243 -1.9765e-08 7.04148e-15)
(0.1243 -1.36864e-09 7.04025e-15)
(0.125129 -5.70516e-08 7.61688e-15)
(0.125129 -1.5988e-08 7.51012e-15)
(0.125129 5.73375e-09 7.61269e-15)
(0.125129 1.47428e-08 7.46882e-15)
(0.125129 1.58127e-08 7.60506e-15)
(0.125129 1.33681e-08 7.67443e-15)
(0.125129 9.79041e-09 7.54366e-15)
(0.125129 5.89896e-09 7.65956e-15)
(0.125129 2.32445e-09 7.49066e-15)
(0.125129 -5.51954e-10 7.50559e-15)
(0.125129 -2.53475e-09 7.57062e-15)
(0.125129 -3.54419e-09 7.4206e-15)
(0.125129 -3.59159e-09 7.55438e-15)
(0.125129 -2.77018e-09 7.42289e-15)
(0.125129 -1.24631e-09 7.44743e-15)
(0.125129 7.67503e-10 7.50297e-15)
(0.125129 3.05574e-09 7.36718e-15)
(0.12513 5.44241e-09 7.51271e-15)
(0.12513 7.81441e-09 7.36314e-15)
(0.12513 1.01196e-08 7.3736e-15)
(0.12513 1.23467e-08 7.44507e-15)
(0.12513 1.45018e-08 7.31265e-15)
(0.12513 1.65907e-08 7.38791e-15)
(0.12513 1.86129e-08 7.29727e-15)
(0.12513 2.05633e-08 7.32147e-15)
(0.12513 2.24368e-08 7.37589e-15)
(0.12513 2.42321e-08 7.24912e-15)
(0.12513 2.59519e-08 7.32576e-15)
(0.12513 2.75993e-08 7.23031e-15)
(0.12513 2.91737e-08 7.29179e-15)
(0.12513 3.06658e-08 7.36021e-15)
(0.12513 3.20591e-08 7.21815e-15)
(0.12513 3.33302e-08 7.2907e-15)
(0.12513 3.44582e-08 7.1888e-15)
(0.12513 3.54233e-08 7.22047e-15)
(0.12513 3.62228e-08 7.26113e-15)
(0.12513 3.68422e-08 7.28388e-15)
(0.12513 3.73135e-08 7.2006e-15)
(0.12513 3.75793e-08 7.25816e-15)
(0.12513 3.77531e-08 7.34426e-15)
(0.12513 3.78277e-08 7.33164e-15)
(0.12513 3.79073e-08 7.32619e-15)
(0.12513 3.77019e-08 7.22711e-15)
(0.12513 3.78424e-08 7.27633e-15)
(0.12513 3.85177e-08 7.30616e-15)
(0.12513 3.89733e-08 7.32749e-15)
(0.12513 3.88757e-08 7.32304e-15)
(0.12513 3.72945e-08 7.22518e-15)
(0.12513 3.39967e-08 7.2929e-15)
(0.12513 2.9201e-08 7.38298e-15)
(0.12513 2.32902e-08 7.36007e-15)
(0.12513 1.661e-08 7.40114e-15)
(0.125129 9.59072e-09 7.2591e-15)
(0.125129 2.41592e-09 7.32729e-15)
(0.125129 -3.87578e-09 7.34974e-15)
(0.125129 -9.94531e-09 7.33421e-15)
(0.125129 -1.07122e-08 7.39316e-15)
(0.125129 -1.33818e-08 7.28005e-15)
(0.125129 6.08295e-09 7.33243e-15)
(0.125935 -5.57923e-08 7.80626e-15)
(0.125935 -1.56325e-08 7.65844e-15)
(0.125935 5.6132e-09 7.73171e-15)
(0.125935 1.4421e-08 7.71954e-15)
(0.125935 1.54189e-08 7.79017e-15)
(0.125935 1.27935e-08 7.86629e-15)
(0.125935 8.86629e-09 7.69093e-15)
(0.125935 4.52993e-09 7.79338e-15)
(0.125935 4.70647e-10 7.61735e-15)
(0.125935 -2.88178e-09 7.63095e-15)
(0.125935 -5.29422e-09 7.73621e-15)
(0.125935 -6.66635e-09 7.55195e-15)
(0.125935 -7.00358e-09 7.67895e-15)
(0.125935 -6.40196e-09 7.55216e-15)
(0.125935 -5.03364e-09 7.57617e-15)
(0.125935 -3.11654e-09 7.67075e-15)
(0.125935 -8.70276e-10 7.51955e-15)
(0.125935 1.52571e-09 7.65458e-15)
(0.125935 3.95465e-09 7.49778e-15)
(0.125935 6.36009e-09 7.50535e-15)
(0.125936 8.72606e-09 7.61852e-15)
(0.125936 1.10536e-08 7.45067e-15)
(0.125936 1.33439e-08 7.56081e-15)
(0.125936 1.55922e-08 7.44018e-15)
(0.125936 1.77892e-08 7.45992e-15)
(0.125936 1.99259e-08 7.55079e-15)
(0.125936 2.19973e-08 7.40454e-15)
(0.125936 2.40028e-08 7.50831e-15)
(0.125936 2.59425e-08 7.37706e-15)
(0.125936 2.78131e-08 7.42675e-15)
(0.125936 2.96039e-08 7.52797e-15)
(0.125936 3.12968e-08 7.36624e-15)
(0.125936 3.28677e-08 7.46085e-15)
(0.125936 3.42946e-08 7.33081e-15)
(0.125936 3.55569e-08 7.35537e-15)
(0.125936 3.66504e-08 7.45202e-15)
(0.125936 3.75599e-08 7.45545e-15)
(0.125936 3.83142e-08 7.39363e-15)
(0.125936 3.88654e-08 7.47516e-15)
(0.125936 3.93034e-08 7.48576e-15)
(0.125936 3.9651e-08 7.54617e-15)
(0.125936 3.99628e-08 7.5087e-15)
(0.125936 3.98917e-08 7.43249e-15)
(0.125936 3.99639e-08 7.50285e-15)
(0.125936 4.04028e-08 7.4976e-15)
(0.125936 4.07697e-08 7.54698e-15)
(0.125936 4.09502e-08 7.5117e-15)
(0.125936 4.00558e-08 7.43683e-15)
(0.125936 3.7672e-08 7.52651e-15)
(0.125935 3.38076e-08 7.53068e-15)
(0.125935 2.8713e-08 7.58127e-15)
(0.125935 2.26885e-08 7.55747e-15)
(0.125935 1.61496e-08 7.46788e-15)
(0.125935 9.30979e-09 7.52479e-15)
(0.125935 3.16813e-09 7.51165e-15)
(0.125935 -2.85817e-09 7.55804e-15)
(0.125935 -3.77796e-09 7.55318e-15)
(0.125935 -7.26665e-09 7.48162e-15)
(0.125935 1.32843e-08 7.5657e-15)
(0.126719 -5.4505e-08 8.00077e-15)
(0.126719 -1.53703e-08 7.8674e-15)
(0.126719 5.19017e-09 7.90964e-15)
(0.126719 1.36967e-08 7.95345e-15)
(0.126719 1.46513e-08 7.99325e-15)
(0.126719 1.19672e-08 8.04461e-15)
(0.126719 7.85935e-09 7.82316e-15)
(0.126719 3.2503e-09 7.96178e-15)
(0.126719 -1.14668e-09 7.7497e-15)
(0.126719 -4.86677e-09 7.84087e-15)
(0.126719 -7.6404e-09 7.91882e-15)
(0.126719 -9.34002e-09 7.75999e-15)
(0.126719 -9.9559e-09 7.84628e-15)
(0.126719 -9.57853e-09 7.72034e-15)
(0.126719 -8.3796e-09 7.78908e-15)
(0.126719 -6.57826e-09 7.85612e-15)
(0.126719 -4.39557e-09 7.72515e-15)
(0.126719 -2.01271e-09 7.81364e-15)
(0.126719 4.51001e-10 7.69616e-15)
(0.126719 2.93555e-09 7.72834e-15)
(0.126719 5.4207e-09 7.81043e-15)
(0.126719 7.90291e-09 7.66997e-15)
(0.126719 1.03789e-08 7.74306e-15)
(0.126719 1.28395e-08 7.65911e-15)
(0.126719 1.52713e-08 7.68634e-15)
(0.126719 1.76615e-08 7.74665e-15)
(0.126719 2.00012e-08 7.58529e-15)
(0.126719 2.22861e-08 7.68724e-15)
(0.126719 2.45131e-08 7.54997e-15)
(0.126719 2.66764e-08 7.63961e-15)
(0.126719 2.87632e-08 7.71247e-15)
(0.126719 3.07542e-08 7.53812e-15)
(0.126719 3.26242e-08 7.64443e-15)
(0.126719 3.43503e-08 7.50579e-15)
(0.126719 3.59105e-08 7.5727e-15)
(0.126719 3.72993e-08 7.66917e-15)
(0.126719 3.85009e-08 7.67893e-15)
(0.126719 3.95405e-08 7.56138e-15)
(0.126719 4.0378e-08 7.70849e-15)
(0.126719 4.10855e-08 7.72301e-15)
(0.126719 4.16976e-08 7.77223e-15)
(0.126719 4.22485e-08 7.73538e-15)
(0.126719 4.23668e-08 7.60492e-15)
(0.126719 4.2469e-08 7.74586e-15)
(0.126719 4.27618e-08 7.73944e-15)
(0.126719 4.29976e-08 7.78037e-15)
(0.126719 4.32473e-08 7.7435e-15)
(0.126719 4.27558e-08 7.61234e-15)
(0.126719 4.10437e-08 7.75812e-15)
(0.126719 3.79663e-08 7.76697e-15)
(0.126719 3.36369e-08 7.81304e-15)
(0.126719 2.82799e-08 7.78453e-15)
(0.126719 2.22652e-08 7.67744e-15)
(0.126719 1.58171e-08 7.76673e-15)
(0.126719 9.87551e-09 7.75502e-15)
(0.126719 3.93858e-09 7.79915e-15)
(0.126719 2.86849e-09 7.78311e-15)
(0.126719 -1.50584e-09 7.66013e-15)
(0.126719 2.01586e-08 7.802e-15)
(0.12748 -5.31565e-08 8.19644e-15)
(0.12748 -1.51206e-08 8.11673e-15)
(0.12748 4.55718e-09 8.11477e-15)
(0.12748 1.26206e-08 8.17332e-15)
(0.12748 1.34942e-08 8.20581e-15)
(0.12748 1.08094e-08 8.23101e-15)
(0.127481 6.64223e-09 8.14281e-15)
(0.127481 1.90684e-09 8.1615e-15)
(0.127481 -2.68425e-09 8.06456e-15)
(0.127481 -6.64933e-09 8.0803e-15)
(0.127481 -9.69083e-09 8.10919e-15)
(0.127481 -1.16542e-08 8.00554e-15)
(0.127481 -1.251e-08 8.0526e-15)
(0.127481 -1.23371e-08 8.00003e-15)
(0.127481 -1.13012e-08 8.0295e-15)
(0.127481 -9.61846e-09 8.05046e-15)
(0.127481 -7.50824e-09 7.98014e-15)
(0.127481 -5.15127e-09 8.01203e-15)
(0.127481 -2.66779e-09 7.94747e-15)
(0.127481 -1.20161e-10 7.97404e-15)
(0.127481 2.468e-09 8.01018e-15)
(0.127481 5.0892e-09 7.91996e-15)
(0.127481 7.73609e-09 7.96369e-15)
(0.127481 1.03955e-08 7.91501e-15)
(0.127481 1.30501e-08 7.93973e-15)
(0.127481 1.56831e-08 7.95145e-15)
(0.127481 1.82817e-08 7.87906e-15)
(0.127481 2.08381e-08 7.9021e-15)
(0.127481 2.33457e-08 7.84594e-15)
(0.127481 2.57961e-08 7.87791e-15)
(0.127481 2.81744e-08 7.90817e-15)
(0.127481 3.04599e-08 7.82999e-15)
(0.127481 3.26262e-08 7.85886e-15)
(0.127481 3.46495e-08 7.79957e-15)
(0.127481 3.65064e-08 7.82024e-15)
(0.127481 3.81899e-08 7.83082e-15)
(0.127481 3.96834e-08 7.89251e-15)
(0.127481 4.10087e-08 7.86505e-15)
(0.127481 4.21317e-08 7.90285e-15)
(0.127481 4.31112e-08 7.9515e-15)
(0.127481 4.39824e-08 7.92895e-15)
(0.127481 4.47727e-08 7.94768e-15)
(0.127481 4.51119e-08 7.91238e-15)
(0.127481 4.53183e-08 7.94401e-15)
(0.127481 4.55595e-08 7.97513e-15)
(0.127481 4.56899e-08 7.94442e-15)
(0.127481 4.59061e-08 7.96214e-15)
(0.127481 4.56136e-08 7.92886e-15)
(0.127481 4.43505e-08 7.9524e-15)
(0.127481 4.18848e-08 7.99715e-15)
(0.127481 3.8215e-08 7.97582e-15)
(0.127481 3.3481e-08 8.00147e-15)
(0.127481 2.79867e-08 7.95227e-15)
(0.12748 2.19498e-08 7.9681e-15)
(0.12748 1.62309e-08 7.99903e-15)
(0.12748 1.04069e-08 7.97241e-15)
(0.12748 9.17613e-09 8.00463e-15)
(0.12748 3.84115e-09 7.96718e-15)
(0.12748 2.66474e-08 8.00281e-15)
(0.128221 -5.17289e-08 8.392e-15)
(0.128221 -1.48277e-08 8.36169e-15)
(0.128221 3.79701e-09 8.32592e-15)
(0.128221 1.12639e-08 8.39757e-15)
(0.128221 1.19765e-08 8.41467e-15)
(0.128221 9.29733e-09 8.42016e-15)
(0.128221 5.14411e-09 8.38599e-15)
(0.128221 3.93839e-10 8.37149e-15)
(0.128221 -4.26588e-09 8.32361e-15)
(0.128221 -8.35517e-09 8.33043e-15)
(0.128221 -1.15607e-08 8.30161e-15)
(0.128221 -1.37063e-08 8.26489e-15)
(0.128221 -1.47427e-08 8.27217e-15)
(0.128221 -1.4734e-08 8.25981e-15)
(0.128221 -1.38363e-08 8.27998e-15)
(0.128221 -1.22589e-08 8.24735e-15)
(0.128221 -1.02166e-08 8.22678e-15)
(0.128221 -7.88733e-09 8.22692e-15)
(0.128221 -5.3904e-09 8.20408e-15)
(0.128221 -2.789e-09 8.23024e-15)
(0.128221 -1.08978e-10 8.212e-15)
(0.128221 2.63916e-09 8.18857e-15)
(0.128221 5.44469e-09 8.1936e-15)
(0.128221 8.29089e-09 8.18501e-15)
(0.128221 1.11568e-08 8.20099e-15)
(0.128221 1.4022e-08 8.15969e-15)
(0.128221 1.68699e-08 8.13588e-15)
(0.128221 1.96888e-08 8.12653e-15)
(0.128221 2.24692e-08 8.1047e-15)
(0.128221 2.51997e-08 8.13048e-15)
(0.128221 2.78635e-08 8.1077e-15)
(0.128221 3.04381e-08 8.08366e-15)
(0.128221 3.28963e-08 8.08438e-15)
(0.128221 3.52129e-08 8.06279e-15)
(0.128221 3.73635e-08 8.07992e-15)
(0.128221 3.93391e-08 7.99786e-15)
(0.128221 4.11225e-08 8.11782e-15)
(0.128221 4.2732e-08 8.13857e-15)
(0.128221 4.4138e-08 8.11201e-15)
(0.128221 4.53894e-08 8.18849e-15)
(0.128221 4.6516e-08 8.07968e-15)
(0.128221 4.75432e-08 8.16761e-15)
(0.128221 4.81182e-08 8.18237e-15)
(0.128221 4.84796e-08 8.15318e-15)
(0.128221 4.875e-08 8.21722e-15)
(0.128221 4.88297e-08 8.10088e-15)
(0.128221 4.89826e-08 8.1873e-15)
(0.128221 4.87633e-08 8.2117e-15)
(0.128221 4.7772e-08 8.16336e-15)
(0.128221 4.57464e-08 8.23718e-15)
(0.128221 4.26045e-08 8.13203e-15)
(0.128221 3.84103e-08 8.22607e-15)
(0.128221 3.3393e-08 8.22394e-15)
(0.128221 2.77512e-08 8.18358e-15)
(0.128221 2.22491e-08 8.25152e-15)
(0.128221 1.6537e-08 8.13905e-15)
(0.128221 1.51186e-08 8.2359e-15)
(0.128221 8.74027e-09 8.25448e-15)
(0.128221 3.27136e-08 8.21671e-15)
(0.128941 -5.02129e-08 8.58593e-15)
(0.128941 -1.44562e-08 8.59536e-15)
(0.128941 2.97606e-09 8.5325e-15)
(0.128941 9.69989e-09 8.62227e-15)
(0.128941 1.01513e-08 8.61647e-15)
(0.128941 7.44663e-09 8.60897e-15)
(0.128941 3.33958e-09 8.62077e-15)
(0.128941 -1.3503e-09 8.57764e-15)
(0.128941 -5.97887e-09 8.57019e-15)
(0.128941 -1.00846e-08 8.58324e-15)
(0.128941 -1.33518e-08 8.48384e-15)
(0.128941 -1.55906e-08 8.5132e-15)
(0.128941 -1.67356e-08 8.49077e-15)
(0.128941 -1.68361e-08 8.51056e-15)
(0.128941 -1.60364e-08 8.53514e-15)
(0.128941 -1.45369e-08 8.43489e-15)
(0.128941 -1.25453e-08 8.47184e-15)
(0.128941 -1.02345e-08 8.44442e-15)
(0.128941 -7.72116e-09 8.45608e-15)
(0.128941 -5.06769e-09 8.49009e-15)
(0.128941 -2.30086e-09 8.40369e-15)
(0.128941 5.66902e-10 8.44343e-15)
(0.128941 3.52231e-09 8.42107e-15)
(0.128941 6.54581e-09 8.4443e-15)
(0.128941 9.61328e-09 8.46704e-15)
(0.128941 1.27009e-08 8.35776e-15)
(0.128941 1.57887e-08 8.38783e-15)
(0.128941 1.88614e-08 8.35155e-15)
(0.128941 2.19062e-08 8.36002e-15)
(0.128941 2.4909e-08 8.38958e-15)
(0.128941 2.7851e-08 8.29863e-15)
(0.128941 3.07083e-08 8.33468e-15)
(0.128941 3.34523e-08 8.30883e-15)
(0.128941 3.6057e-08 8.31967e-15)
(0.128941 3.84965e-08 8.34309e-15)
(0.128941 4.07601e-08 8.22238e-15)
(0.128941 4.28296e-08 8.30368e-15)
(0.128941 4.47201e-08 8.43141e-15)
(0.128941 4.64053e-08 8.31202e-15)
(0.128941 4.7926e-08 8.3677e-15)
(0.128941 4.93045e-08 8.27876e-15)
(0.128941 5.05647e-08 8.34579e-15)
(0.128941 5.13805e-08 8.50326e-15)
(0.128941 5.1928e-08 8.35119e-15)
(0.128941 5.22889e-08 8.39873e-15)
(0.128941 5.2378e-08 8.30368e-15)
(0.128941 5.24803e-08 8.36913e-15)
(0.128941 5.22706e-08 8.46228e-15)
(0.128941 5.14263e-08 8.36751e-15)
(0.128941 4.96939e-08 8.41943e-15)
(0.128941 4.69461e-08 8.33546e-15)
(0.128941 4.31882e-08 8.40811e-15)
(0.128941 3.85764e-08 8.484e-15)
(0.12894 3.32844e-08 8.39144e-15)
(0.12894 2.79672e-08 8.44517e-15)
(0.12894 2.2342e-08 8.35282e-15)