/*--------------------------------*- C++ -*----------------------------------*\
  =========                 |
  \\      /  F ield         | OpenFOAM: The Open Source CFD Toolbox
   \\    /   O peration     | Website:  https://openfoam.org
    \\  /    A nd           | Version:  7
     \\/     M anipulation  |
\*---------------------------------------------------------------------------*/
FoamFile
{
    version     2.0;
    format      ascii;
    class       volScalarField;
    location    "2000";
    object      k;
}
// * * * * * * * * * * * * * * * * * * * * * * * * * * * * * * * * * * * * * //

dimensions      [0 2 -2 0 0 0 0];

internalField   nonuniform List<scalar> 
4037
(
0.000161552
0.000161553
0.000161556
0.000161557
0.000161559
0.00016156
0.000161561
0.000161562
0.000161563
0.000161564
0.000161565
0.000161566
0.000161567
0.000161568
0.000161569
0.00016157
0.000161571
0.000161571
0.000161572
0.000161573
0.000161574
0.000161574
0.000161575
0.000161576
0.000161576
0.000161577
0.000161578
0.000161578
0.000161579
0.000161579
0.00016158
0.00016158
0.000161581
0.000161582
0.000161582
0.000161583
0.000161583
0.000161583
0.000161584
0.000161584
0.000161585
0.000161585
0.000161585
0.000161586
0.000161586
0.000161586
0.000161586
0.000161587
0.000161587
0.000161587
0.000161587
0.000161587
0.000161587
0.000161588
0.000161588
0.000161588
0.000161588
0.000161588
0.000161588
0.000161588
0.000161588
0.000161588
0.000161587
0.000161587
0.000161587
0.000161587
0.000161587
0.000161587
0.000161587
0.000161587
0.000161586
0.000161586
0.000161586
0.000161586
0.000161586
0.000161586
0.000161586
0.00016338
0.000163377
0.000163376
0.000163375
0.000163375
0.000163375
0.000163374
0.000163374
0.000163374
0.000163374
0.000163373
0.000163373
0.000163373
0.000163373
0.000163373
0.000163373
0.000163373
0.000163374
0.000163374
0.000163374
0.000163374
0.000163374
0.000163375
0.000163375
0.000163381
0.000163385
0.000163387
0.000163389
0.000163391
0.000163392
0.000163394
0.000163395
0.000163396
0.000163397
0.000163398
0.000163399
0.0001634
0.000163401
0.000163402
0.000163403
0.000163404
0.000163404
0.000163405
0.000163406
0.000163407
0.000163408
0.000163408
0.000163409
0.00016341
0.00016341
0.000163411
0.000163411
0.000163412
0.000163413
0.000163413
0.000163414
0.000163414
0.000163415
0.000163415
0.000163416
0.000163416
0.000163417
0.000163417
0.000163418
0.000163418
0.000163418
0.000163419
0.000163419
0.000163419
0.000163419
0.00016342
0.00016342
0.00016342
0.00016342
0.00016342
0.000163421
0.000163421
0.000163421
0.000163421
0.000163421
0.000163421
0.000163421
0.000163421
0.000163421
0.000163421
0.000163421
0.000163421
0.00016342
0.00016342
0.00016342
0.00016342
0.00016342
0.00016342
0.00016342
0.00016342
0.000163419
0.000163419
0.000163419
0.000163419
0.000163419
0.00016342
0.000163409
0.000163405
0.000163403
0.000163402
0.000163401
0.0001634
0.000163399
0.000163398
0.000163397
0.000163397
0.000163396
0.000163395
0.000163394
0.000163394
0.000163393
0.000163392
0.000163392
0.000163391
0.000163392
0.000165096
0.000165093
0.000165091
0.00016509
0.00016509
0.000165089
0.000165089
0.000165089
0.000165088
0.000165088
0.000165088
0.000165088
0.000165088
0.000165088
0.000165088
0.000165088
0.000165088
0.000165088
0.000165088
0.000165088
0.000165088
0.000165089
0.000165089
0.000165089
0.000165092
0.000165095
0.000165097
0.000165099
0.000165101
0.000165102
0.000165104
0.000165105
0.000165106
0.000165107
0.000165109
0.00016511
0.000165111
0.000165112
0.000165113
0.000165113
0.000165114
0.000165115
0.000165116
0.000165117
0.000165118
0.000165118
0.000165119
0.00016512
0.00016512
0.000165121
0.000165122
0.000165122
0.000165123
0.000165124
0.000165124
0.000165125
0.000165125
0.000165126
0.000165126
0.000165127
0.000165127
0.000165128
0.000165128
0.000165128
0.000165129
0.000165129
0.00016513
0.00016513
0.00016513
0.00016513
0.000165131
0.000165131
0.000165131
0.000165131
0.000165131
0.000165131
0.000165132
0.000165132
0.000165132
0.000165132
0.000165132
0.000165132
0.000165132
0.000165132
0.000165131
0.000165131
0.000165131
0.000165131
0.000165131
0.000165131
0.000165131
0.000165131
0.00016513
0.00016513
0.00016513
0.00016513
0.00016513
0.00016513
0.00016513
0.000165129
0.00016513
0.000165125
0.000165121
0.000165119
0.000165117
0.000165116
0.000165115
0.000165114
0.000165113
0.000165112
0.000165111
0.000165111
0.00016511
0.000165109
0.000165108
0.000165108
0.000165107
0.000165106
0.000165105
0.000165107
0.00016668
0.000166676
0.000166675
0.000166674
0.000166673
0.000166673
0.000166672
0.000166672
0.000166671
0.000166671
0.000166671
0.00016667
0.00016667
0.00016667
0.00016667
0.00016667
0.00016667
0.000166671
0.000166671
0.000166671
0.000166671
0.000166671
0.000166672
0.000166672
0.000166673
0.000166675
0.000166677
0.000166678
0.00016668
0.000166681
0.000166683
0.000166684
0.000166685
0.000166686
0.000166687
0.000166688
0.000166689
0.00016669
0.000166691
0.000166692
0.000166693
0.000166694
0.000166695
0.000166696
0.000166696
0.000166697
0.000166698
0.000166699
0.000166699
0.0001667
0.000166701
0.000166701
0.000166702
0.000166702
0.000166703
0.000166704
0.000166704
0.000166705
0.000166705
0.000166706
0.000166706
0.000166706
0.000166707
0.000166707
0.000166708
0.000166708
0.000166708
0.000166709
0.000166709
0.000166709
0.000166709
0.00016671
0.00016671
0.00016671
0.00016671
0.00016671
0.00016671
0.00016671
0.00016671
0.00016671
0.00016671
0.00016671
0.00016671
0.00016671
0.00016671
0.00016671
0.00016671
0.00016671
0.00016671
0.000166709
0.000166709
0.000166709
0.000166709
0.000166709
0.000166709
0.000166709
0.000166708
0.000166708
0.000166708
0.000166708
0.000166708
0.000166707
0.000166704
0.000166702
0.000166701
0.000166699
0.000166698
0.000166697
0.000166696
0.000166695
0.000166695
0.000166694
0.000166693
0.000166692
0.000166691
0.000166691
0.00016669
0.000166689
0.000166688
0.00016669
0.000168121
0.000168118
0.000168116
0.000168115
0.000168114
0.000168114
0.000168113
0.000168112
0.000168112
0.000168112
0.000168111
0.000168111
0.000168111
0.000168111
0.000168111
0.000168111
0.000168111
0.000168111
0.000168111
0.000168112
0.000168112
0.000168112
0.000168112
0.000168113
0.000168113
0.000168114
0.000168115
0.000168116
0.000168118
0.000168119
0.00016812
0.000168121
0.000168122
0.000168124
0.000168125
0.000168126
0.000168127
0.000168128
0.000168129
0.000168129
0.00016813
0.000168131
0.000168132
0.000168133
0.000168134
0.000168134
0.000168135
0.000168136
0.000168137
0.000168137
0.000168138
0.000168139
0.000168139
0.00016814
0.00016814
0.000168141
0.000168141
0.000168142
0.000168142
0.000168143
0.000168143
0.000168144
0.000168144
0.000168145
0.000168145
0.000168145
0.000168146
0.000168146
0.000168146
0.000168146
0.000168147
0.000168147
0.000168147
0.000168147
0.000168147
0.000168147
0.000168147
0.000168147
0.000168148
0.000168148
0.000168147
0.000168147
0.000168147
0.000168147
0.000168147
0.000168147
0.000168147
0.000168147
0.000168147
0.000168147
0.000168146
0.000168146
0.000168146
0.000168146
0.000168146
0.000168146
0.000168145
0.000168145
0.000168145
0.000168145
0.000168145
0.000168145
0.000168143
0.000168142
0.000168141
0.00016814
0.000168139
0.000168138
0.000168137
0.000168136
0.000168135
0.000168135
0.000168134
0.000168133
0.000168132
0.000168132
0.000168131
0.00016813
0.000168129
0.000168131
0.00016941
0.000169407
0.000169405
0.000169404
0.000169403
0.000169402
0.000169401
0.0001694
0.0001694
0.000169399
0.000169399
0.000169399
0.000169399
0.000169399
0.000169399
0.000169399
0.000169399
0.000169399
0.000169399
0.000169399
0.0001694
0.0001694
0.0001694
0.000169401
0.000169401
0.000169401
0.000169402
0.000169403
0.000169404
0.000169405
0.000169406
0.000169407
0.000169408
0.000169409
0.00016941
0.000169411
0.000169412
0.000169413
0.000169414
0.000169415
0.000169415
0.000169416
0.000169417
0.000169418
0.000169419
0.00016942
0.00016942
0.000169421
0.000169422
0.000169422
0.000169423
0.000169424
0.000169424
0.000169425
0.000169425
0.000169426
0.000169426
0.000169427
0.000169427
0.000169428
0.000169428
0.000169429
0.000169429
0.00016943
0.00016943
0.00016943
0.000169431
0.000169431
0.000169431
0.000169431
0.000169432
0.000169432
0.000169432
0.000169432
0.000169432
0.000169432
0.000169432
0.000169432
0.000169432
0.000169432
0.000169432
0.000169432
0.000169432
0.000169432
0.000169432
0.000169432
0.000169432
0.000169432
0.000169431
0.000169431
0.000169431
0.000169431
0.000169431
0.000169431
0.000169431
0.00016943
0.00016943
0.00016943
0.00016943
0.00016943
0.00016943
0.00016943
0.000169429
0.000169429
0.000169428
0.000169427
0.000169426
0.000169425
0.000169424
0.000169424
0.000169423
0.000169422
0.000169421
0.000169421
0.00016942
0.000169419
0.000169419
0.000169418
0.000169417
0.000169418
0.000170533
0.00017053
0.000170528
0.000170527
0.000170526
0.000170525
0.000170524
0.000170523
0.000170523
0.000170522
0.000170522
0.000170522
0.000170521
0.000170521
0.000170521
0.000170521
0.000170522
0.000170522
0.000170522
0.000170522
0.000170523
0.000170523
0.000170523
0.000170524
0.000170524
0.000170524
0.000170524
0.000170525
0.000170526
0.000170526
0.000170527
0.000170528
0.000170529
0.00017053
0.000170531
0.000170532
0.000170533
0.000170534
0.000170534
0.000170535
0.000170536
0.000170537
0.000170538
0.000170539
0.000170539
0.00017054
0.000170541
0.000170542
0.000170542
0.000170543
0.000170544
0.000170544
0.000170545
0.000170545
0.000170546
0.000170546
0.000170547
0.000170548
0.000170548
0.000170548
0.000170549
0.000170549
0.00017055
0.00017055
0.00017055
0.000170551
0.000170551
0.000170551
0.000170552
0.000170552
0.000170552
0.000170552
0.000170552
0.000170553
0.000170553
0.000170553
0.000170553
0.000170553
0.000170553
0.000170553
0.000170553
0.000170553
0.000170553
0.000170552
0.000170552
0.000170552
0.000170552
0.000170552
0.000170552
0.000170552
0.000170551
0.000170551
0.000170551
0.000170551
0.000170551
0.000170551
0.00017055
0.00017055
0.00017055
0.00017055
0.00017055
0.00017055
0.00017055
0.000170549
0.000170549
0.000170549
0.000170548
0.000170547
0.000170547
0.000170546
0.000170545
0.000170545
0.000170544
0.000170543
0.000170543
0.000170542
0.000170541
0.000170541
0.00017054
0.000170541
0.000171477
0.000171474
0.000171473
0.000171471
0.00017147
0.000171469
0.000171468
0.000171467
0.000171466
0.000171466
0.000171465
0.000171465
0.000171465
0.000171465
0.000171465
0.000171465
0.000171465
0.000171465
0.000171466
0.000171466
0.000171466
0.000171467
0.000171467
0.000171467
0.000171468
0.000171468
0.000171468
0.000171468
0.000171469
0.000171469
0.00017147
0.000171471
0.000171471
0.000171472
0.000171473
0.000171474
0.000171475
0.000171476
0.000171476
0.000171477
0.000171478
0.000171479
0.00017148
0.00017148
0.000171481
0.000171482
0.000171483
0.000171483
0.000171484
0.000171485
0.000171485
0.000171486
0.000171487
0.000171487
0.000171488
0.000171488
0.000171489
0.000171489
0.00017149
0.00017149
0.000171491
0.000171491
0.000171491
0.000171492
0.000171492
0.000171492
0.000171493
0.000171493
0.000171493
0.000171494
0.000171494
0.000171494
0.000171494
0.000171494
0.000171494
0.000171494
0.000171494
0.000171494
0.000171494
0.000171494
0.000171494
0.000171494
0.000171494
0.000171494
0.000171494
0.000171494
0.000171494
0.000171493
0.000171493
0.000171493
0.000171493
0.000171493
0.000171493
0.000171492
0.000171492
0.000171492
0.000171492
0.000171492
0.000171492
0.000171491
0.000171491
0.000171491
0.000171491
0.000171491
0.000171491
0.000171491
0.00017149
0.00017149
0.00017149
0.000171489
0.000171489
0.000171488
0.000171487
0.000171487
0.000171486
0.000171486
0.000171485
0.000171484
0.000171484
0.000171485
0.000172226
0.000172223
0.000172221
0.000172219
0.000172218
0.000172217
0.000172216
0.000172215
0.000172214
0.000172214
0.000172213
0.000172213
0.000172213
0.000172213
0.000172213
0.000172213
0.000172213
0.000172213
0.000172214
0.000172214
0.000172214
0.000172215
0.000172215
0.000172215
0.000172216
0.000172216
0.000172216
0.000172216
0.000172217
0.000172217
0.000172218
0.000172218
0.000172219
0.000172219
0.00017222
0.000172221
0.000172222
0.000172222
0.000172223
0.000172224
0.000172225
0.000172226
0.000172226
0.000172227
0.000172228
0.000172229
0.000172229
0.00017223
0.000172231
0.000172231
0.000172232
0.000172232
0.000172233
0.000172234
0.000172234
0.000172235
0.000172235
0.000172236
0.000172236
0.000172237
0.000172237
0.000172237
0.000172238
0.000172238
0.000172239
0.000172239
0.000172239
0.000172239
0.00017224
0.00017224
0.00017224
0.00017224
0.00017224
0.00017224
0.000172241
0.000172241
0.000172241
0.000172241
0.000172241
0.000172241
0.00017224
0.00017224
0.00017224
0.00017224
0.00017224
0.00017224
0.00017224
0.00017224
0.000172239
0.000172239
0.000172239
0.000172239
0.000172239
0.000172238
0.000172238
0.000172238
0.000172238
0.000172238
0.000172238
0.000172237
0.000172237
0.000172237
0.000172237
0.000172237
0.000172237
0.000172237
0.000172237
0.000172237
0.000172237
0.000172236
0.000172236
0.000172235
0.000172235
0.000172234
0.000172234
0.000172233
0.000172233
0.000172232
0.000172231
0.000172233
0.000172759
0.000172756
0.000172754
0.000172752
0.000172751
0.000172749
0.000172748
0.000172748
0.000172747
0.000172746
0.000172746
0.000172746
0.000172746
0.000172746
0.000172746
0.000172746
0.000172746
0.000172746
0.000172747
0.000172747
0.000172747
0.000172748
0.000172748
0.000172748
0.000172749
0.000172749
0.000172749
0.000172749
0.00017275
0.00017275
0.00017275
0.000172751
0.000172751
0.000172752
0.000172752
0.000172753
0.000172754
0.000172755
0.000172755
0.000172756
0.000172757
0.000172757
0.000172758
0.000172759
0.00017276
0.00017276
0.000172761
0.000172762
0.000172762
0.000172763
0.000172763
0.000172764
0.000172765
0.000172765
0.000172766
0.000172766
0.000172767
0.000172767
0.000172768
0.000172768
0.000172769
0.000172769
0.000172769
0.00017277
0.00017277
0.00017277
0.000172771
0.000172771
0.000172771
0.000172771
0.000172771
0.000172772
0.000172772
0.000172772
0.000172772
0.000172772
0.000172772
0.000172772
0.000172772
0.000172772
0.000172772
0.000172772
0.000172772
0.000172772
0.000172771
0.000172771
0.000172771
0.000172771
0.000172771
0.00017277
0.00017277
0.00017277
0.00017277
0.00017277
0.00017277
0.000172769
0.000172769
0.000172769
0.000172769
0.000172769
0.000172769
0.000172768
0.000172768
0.000172769
0.000172769
0.000172769
0.000172769
0.000172769
0.000172768
0.000172768
0.000172768
0.000172767
0.000172767
0.000172767
0.000172766
0.000172766
0.000172765
0.000172765
0.000172764
0.000172765
0.000173054
0.000173051
0.000173049
0.000173047
0.000173045
0.000173044
0.000173043
0.000173042
0.000173041
0.000173041
0.000173041
0.00017304
0.00017304
0.00017304
0.00017304
0.00017304
0.000173041
0.000173041
0.000173041
0.000173042
0.000173042
0.000173042
0.000173043
0.000173043
0.000173044
0.000173044
0.000173044
0.000173044
0.000173044
0.000173045
0.000173045
0.000173045
0.000173046
0.000173046
0.000173047
0.000173047
0.000173048
0.000173049
0.000173049
0.00017305
0.000173051
0.000173051
0.000173052
0.000173053
0.000173053
0.000173054
0.000173055
0.000173055
0.000173056
0.000173056
0.000173057
0.000173058
0.000173058
0.000173059
0.000173059
0.00017306
0.00017306
0.000173061
0.000173061
0.000173062
0.000173062
0.000173062
0.000173063
0.000173063
0.000173063
0.000173064
0.000173064
0.000173064
0.000173065
0.000173065
0.000173065
0.000173065
0.000173065
0.000173065
0.000173065
0.000173065
0.000173065
0.000173065
0.000173065
0.000173065
0.000173065
0.000173065
0.000173065
0.000173065
0.000173065
0.000173065
0.000173064
0.000173064
0.000173064
0.000173064
0.000173064
0.000173063
0.000173063
0.000173063
0.000173063
0.000173063
0.000173062
0.000173062
0.000173062
0.000173062
0.000173062
0.000173062
0.000173062
0.000173062
0.000173062
0.000173062
0.000173062
0.000173062
0.000173062
0.000173062
0.000173062
0.000173061
0.000173061
0.000173061
0.00017306
0.00017306
0.000173059
0.000173059
0.000173058
0.000173059
0.000173083
0.00017308
0.000173078
0.000173076
0.000173074
0.000173073
0.000173071
0.000173071
0.00017307
0.000173069
0.000173069
0.000173069
0.000173069
0.000173069
0.000173069
0.000173069
0.000173069
0.00017307
0.00017307
0.00017307
0.000173071
0.000173071
0.000173072
0.000173072
0.000173072
0.000173073
0.000173073
0.000173073
0.000173073
0.000173074
0.000173074
0.000173074
0.000173075
0.000173075
0.000173075
0.000173076
0.000173076
0.000173077
0.000173078
0.000173078
0.000173079
0.000173079
0.00017308
0.000173081
0.000173081
0.000173082
0.000173083
0.000173083
0.000173084
0.000173084
0.000173085
0.000173086
0.000173086
0.000173087
0.000173087
0.000173088
0.000173088
0.000173089
0.000173089
0.000173089
0.00017309
0.00017309
0.000173091
0.000173091
0.000173091
0.000173092
0.000173092
0.000173092
0.000173092
0.000173092
0.000173093
0.000173093
0.000173093
0.000173093
0.000173093
0.000173093
0.000173093
0.000173093
0.000173093
0.000173093
0.000173093
0.000173093
0.000173093
0.000173092
0.000173092
0.000173092
0.000173092
0.000173092
0.000173092
0.000173091
0.000173091
0.000173091
0.000173091
0.000173091
0.00017309
0.00017309
0.00017309
0.00017309
0.00017309
0.000173089
0.000173089
0.000173089
0.000173089
0.000173089
0.000173089
0.000173089
0.000173089
0.00017309
0.00017309
0.00017309
0.000173089
0.000173089
0.000173089
0.000173089
0.000173088
0.000173088
0.000173088
0.000173087
0.000173087
0.000173088
0.000172812
0.000172809
0.000172807
0.000172805
0.000172803
0.000172802
0.000172801
0.0001728
0.000172799
0.000172799
0.000172798
0.000172798
0.000172798
0.000172798
0.000172798
0.000172799
0.000172799
0.000172799
0.000172799
0.0001728
0.0001728
0.000172801
0.000172801
0.000172801
0.000172802
0.000172802
0.000172803
0.000172803
0.000172803
0.000172803
0.000172803
0.000172804
0.000172804
0.000172804
0.000172805
0.000172805
0.000172806
0.000172806
0.000172807
0.000172807
0.000172808
0.000172808
0.000172809
0.00017281
0.00017281
0.000172811
0.000172811
0.000172812
0.000172812
0.000172813
0.000172814
0.000172814
0.000172815
0.000172815
0.000172816
0.000172816
0.000172817
0.000172817
0.000172818
0.000172818
0.000172818
0.000172819
0.000172819
0.000172819
0.00017282
0.00017282
0.00017282
0.00017282
0.000172821
0.000172821
0.000172821
0.000172821
0.000172821
0.000172821
0.000172821
0.000172821
0.000172821
0.000172821
0.000172821
0.000172821
0.000172821
0.000172821
0.000172821
0.000172821
0.000172821
0.00017282
0.00017282
0.00017282
0.00017282
0.00017282
0.000172819
0.000172819
0.000172819
0.000172819
0.000172819
0.000172818
0.000172818
0.000172818
0.000172818
0.000172818
0.000172818
0.000172817
0.000172817
0.000172817
0.000172817
0.000172817
0.000172818
0.000172818
0.000172818
0.000172818
0.000172818
0.000172818
0.000172818
0.000172817
0.000172817
0.000172817
0.000172816
0.000172816
0.000172816
0.000172817
0.000172201
0.000172198
0.000172196
0.000172194
0.000172192
0.000172191
0.000172189
0.000172189
0.000172188
0.000172188
0.000172187
0.000172187
0.000172187
0.000172187
0.000172188
0.000172188
0.000172188
0.000172188
0.000172189
0.000172189
0.000172189
0.00017219
0.00017219
0.000172191
0.000172191
0.000172191
0.000172192
0.000172192
0.000172192
0.000172193
0.000172193
0.000172193
0.000172193
0.000172194
0.000172194
0.000172194
0.000172195
0.000172195
0.000172196
0.000172196
0.000172197
0.000172197
0.000172198
0.000172198
0.000172199
0.000172199
0.0001722
0.000172201
0.000172201
0.000172202
0.000172202
0.000172203
0.000172203
0.000172204
0.000172204
0.000172205
0.000172205
0.000172206
0.000172206
0.000172206
0.000172207
0.000172207
0.000172207
0.000172208
0.000172208
0.000172208
0.000172209
0.000172209
0.000172209
0.000172209
0.000172209
0.000172209
0.00017221
0.00017221
0.00017221
0.00017221
0.00017221
0.00017221
0.00017221
0.00017221
0.000172209
0.000172209
0.000172209
0.000172209
0.000172209
0.000172209
0.000172208
0.000172208
0.000172208
0.000172208
0.000172208
0.000172207
0.000172207
0.000172207
0.000172207
0.000172207
0.000172206
0.000172206
0.000172206
0.000172206
0.000172206
0.000172206
0.000172205
0.000172205
0.000172205
0.000172205
0.000172206
0.000172206
0.000172206
0.000172206
0.000172206
0.000172206
0.000172206
0.000172206
0.000172205
0.000172205
0.000172205
0.000172205
0.000172204
0.000172205
0.0001712
0.000171197
0.000171194
0.000171192
0.00017119
0.000171189
0.000171188
0.000171187
0.000171187
0.000171186
0.000171186
0.000171186
0.000171186
0.000171186
0.000171186
0.000171187
0.000171187
0.000171187
0.000171187
0.000171188
0.000171188
0.000171189
0.000171189
0.000171189
0.00017119
0.00017119
0.000171191
0.000171191
0.000171191
0.000171192
0.000171192
0.000171192
0.000171192
0.000171193
0.000171193
0.000171193
0.000171193
0.000171194
0.000171194
0.000171195
0.000171195
0.000171196
0.000171196
0.000171197
0.000171197
0.000171198
0.000171198
0.000171199
0.000171199
0.0001712
0.0001712
0.000171201
0.000171201
0.000171202
0.000171202
0.000171203
0.000171203
0.000171204
0.000171204
0.000171204
0.000171205
0.000171205
0.000171205
0.000171206
0.000171206
0.000171206
0.000171207
0.000171207
0.000171207
0.000171207
0.000171207
0.000171207
0.000171208
0.000171208
0.000171208
0.000171208
0.000171208
0.000171208
0.000171208
0.000171207
0.000171207
0.000171207
0.000171207
0.000171207
0.000171207
0.000171207
0.000171206
0.000171206
0.000171206
0.000171206
0.000171206
0.000171205
0.000171205
0.000171205
0.000171205
0.000171204
0.000171204
0.000171204
0.000171204
0.000171204
0.000171204
0.000171203
0.000171203
0.000171203
0.000171203
0.000171203
0.000171203
0.000171203
0.000171204
0.000171204
0.000171204
0.000171204
0.000171204
0.000171204
0.000171204
0.000171203
0.000171203
0.000171203
0.000171203
0.000171203
0.000169746
0.000169743
0.00016974
0.000169738
0.000169736
0.000169735
0.000169734
0.000169733
0.000169733
0.000169732
0.000169732
0.000169732
0.000169732
0.000169732
0.000169732
0.000169733
0.000169733
0.000169733
0.000169734
0.000169734
0.000169734
0.000169735
0.000169735
0.000169736
0.000169736
0.000169736
0.000169737
0.000169737
0.000169738
0.000169738
0.000169738
0.000169738
0.000169739
0.000169739
0.000169739
0.000169739
0.00016974
0.00016974
0.00016974
0.000169741
0.000169741
0.000169742
0.000169742
0.000169742
0.000169743
0.000169743
0.000169744
0.000169744
0.000169745
0.000169745
0.000169746
0.000169746
0.000169747
0.000169747
0.000169748
0.000169748
0.000169749
0.000169749
0.000169749
0.00016975
0.00016975
0.000169751
0.000169751
0.000169751
0.000169751
0.000169752
0.000169752
0.000169752
0.000169752
0.000169752
0.000169753
0.000169753
0.000169753
0.000169753
0.000169753
0.000169753
0.000169753
0.000169753
0.000169753
0.000169753
0.000169753
0.000169753
0.000169752
0.000169752
0.000169752
0.000169752
0.000169752
0.000169751
0.000169751
0.000169751
0.000169751
0.000169751
0.00016975
0.00016975
0.00016975
0.00016975
0.00016975
0.000169749
0.000169749
0.000169749
0.000169749
0.000169749
0.000169749
0.000169748
0.000169748
0.000169748
0.000169748
0.000169749
0.000169749
0.000169749
0.000169749
0.000169749
0.000169749
0.000169749
0.000169749
0.000169749
0.000169748
0.000169748
0.000169748
0.000169749
0.000167761
0.000167757
0.000167755
0.000167753
0.000167751
0.00016775
0.000167749
0.000167748
0.000167748
0.000167747
0.000167747
0.000167747
0.000167747
0.000167747
0.000167748
0.000167748
0.000167748
0.000167749
0.000167749
0.000167749
0.00016775
0.00016775
0.00016775
0.000167751
0.000167751
0.000167752
0.000167752
0.000167752
0.000167753
0.000167753
0.000167753
0.000167754
0.000167754
0.000167754
0.000167754
0.000167754
0.000167755
0.000167755
0.000167755
0.000167756
0.000167756
0.000167757
0.000167757
0.000167757
0.000167758
0.000167758
0.000167759
0.000167759
0.00016776
0.00016776
0.000167761
0.000167761
0.000167761
0.000167762
0.000167762
0.000167763
0.000167763
0.000167764
0.000167764
0.000167764
0.000167765
0.000167765
0.000167765
0.000167766
0.000167766
0.000167766
0.000167766
0.000167767
0.000167767
0.000167767
0.000167767
0.000167767
0.000167767
0.000167767
0.000167767
0.000167767
0.000167767
0.000167767
0.000167767
0.000167767
0.000167767
0.000167767
0.000167767
0.000167767
0.000167766
0.000167766
0.000167766
0.000167766
0.000167766
0.000167765
0.000167765
0.000167765
0.000167765
0.000167765
0.000167764
0.000167764
0.000167764
0.000167764
0.000167764
0.000167763
0.000167763
0.000167763
0.000167763
0.000167763
0.000167763
0.000167763
0.000167763
0.000167763
0.000167763
0.000167763
0.000167763
0.000167763
0.000167763
0.000167763
0.000167763
0.000167763
0.000167763
0.000167763
0.000167763
0.000167763
0.000165146
0.000165143
0.00016514
0.000165138
0.000165136
0.000165135
0.000165134
0.000165134
0.000165133
0.000165133
0.000165133
0.000165133
0.000165133
0.000165133
0.000165133
0.000165134
0.000165134
0.000165134
0.000165134
0.000165135
0.000165135
0.000165136
0.000165136
0.000165136
0.000165137
0.000165137
0.000165138
0.000165138
0.000165138
0.000165139
0.000165139
0.000165139
0.00016514
0.00016514
0.00016514
0.00016514
0.00016514
0.000165141
0.000165141
0.000165141
0.000165142
0.000165142
0.000165142
0.000165143
0.000165143
0.000165144
0.000165144
0.000165144
0.000165145
0.000165145
0.000165146
0.000165146
0.000165147
0.000165147
0.000165147
0.000165148
0.000165148
0.000165149
0.000165149
0.000165149
0.00016515
0.00016515
0.00016515
0.000165151
0.000165151
0.000165151
0.000165151
0.000165152
0.000165152
0.000165152
0.000165152
0.000165152
0.000165152
0.000165152
0.000165152
0.000165152
0.000165152
0.000165152
0.000165152
0.000165152
0.000165152
0.000165152
0.000165152
0.000165151
0.000165151
0.000165151
0.000165151
0.000165151
0.00016515
0.00016515
0.00016515
0.00016515
0.00016515
0.000165149
0.000165149
0.000165149
0.000165149
0.000165149
0.000165148
0.000165148
0.000165148
0.000165148
0.000165148
0.000165148
0.000165148
0.000165147
0.000165147
0.000165148
0.000165148
0.000165148
0.000165148
0.000165148
0.000165148
0.000165148
0.000165148
0.000165148
0.000165148
0.000165148
0.000165147
0.000165148
0.000161776
0.000161772
0.00016177
0.000161767
0.000161766
0.000161765
0.000161764
0.000161764
0.000161763
0.000161763
0.000161763
0.000161763
0.000161763
0.000161763
0.000161764
0.000161764
0.000161764
0.000161764
0.000161765
0.000161765
0.000161765
0.000161766
0.000161766
0.000161767
0.000161767
0.000161767
0.000161768
0.000161768
0.000161769
0.000161769
0.000161769
0.00016177
0.00016177
0.00016177
0.00016177
0.00016177
0.000161771
0.000161771
0.000161771
0.000161771
0.000161772
0.000161772
0.000161772
0.000161773
0.000161773
0.000161773
0.000161774
0.000161774
0.000161775
0.000161775
0.000161775
0.000161776
0.000161776
0.000161777
0.000161777
0.000161777
0.000161778
0.000161778
0.000161779
0.000161779
0.000161779
0.000161779
0.00016178
0.00016178
0.00016178
0.000161781
0.000161781
0.000161781
0.000161781
0.000161781
0.000161781
0.000161782
0.000161782
0.000161782
0.000161782
0.000161782
0.000161782
0.000161782
0.000161782
0.000161781
0.000161781
0.000161781
0.000161781
0.000161781
0.000161781
0.000161781
0.00016178
0.00016178
0.00016178
0.00016178
0.00016178
0.000161779
0.000161779
0.000161779
0.000161779
0.000161778
0.000161778
0.000161778
0.000161778
0.000161778
0.000161778
0.000161777
0.000161777
0.000161777
0.000161777
0.000161777
0.000161777
0.000161777
0.000161777
0.000161777
0.000161777
0.000161777
0.000161777
0.000161777
0.000161777
0.000161777
0.000161777
0.000161777
0.000161777
0.000161778
0.000157488
0.000157485
0.000157483
0.00015748
0.000157479
0.000157478
0.000157477
0.000157477
0.000157477
0.000157477
0.000157477
0.000157477
0.000157477
0.000157477
0.000157477
0.000157477
0.000157478
0.000157478
0.000157478
0.000157478
0.000157479
0.000157479
0.00015748
0.00015748
0.00015748
0.000157481
0.000157481
0.000157482
0.000157482
0.000157482
0.000157483
0.000157483
0.000157483
0.000157483
0.000157483
0.000157484
0.000157484
0.000157484
0.000157484
0.000157484
0.000157485
0.000157485
0.000157485
0.000157486
0.000157486
0.000157486
0.000157487
0.000157487
0.000157487
0.000157488
0.000157488
0.000157489
0.000157489
0.000157489
0.00015749
0.00015749
0.000157491
0.000157491
0.000157491
0.000157492
0.000157492
0.000157492
0.000157492
0.000157493
0.000157493
0.000157493
0.000157493
0.000157494
0.000157494
0.000157494
0.000157494
0.000157494
0.000157494
0.000157494
0.000157494
0.000157494
0.000157494
0.000157494
0.000157494
0.000157494
0.000157494
0.000157494
0.000157494
0.000157494
0.000157493
0.000157493
0.000157493
0.000157493
0.000157493
0.000157492
0.000157492
0.000157492
0.000157492
0.000157492
0.000157491
0.000157491
0.000157491
0.000157491
0.000157491
0.00015749
0.00015749
0.00015749
0.00015749
0.00015749
0.00015749
0.00015749
0.00015749
0.00015749
0.00015749
0.00015749
0.00015749
0.00015749
0.00015749
0.00015749
0.00015749
0.00015749
0.00015749
0.00015749
0.00015749
0.000157491
0.000152077
0.000152073
0.000152071
0.000152069
0.000152068
0.000152067
0.000152066
0.000152066
0.000152066
0.000152066
0.000152066
0.000152066
0.000152066
0.000152066
0.000152066
0.000152066
0.000152066
0.000152067
0.000152067
0.000152067
0.000152068
0.000152068
0.000152068
0.000152069
0.000152069
0.000152069
0.00015207
0.00015207
0.000152071
0.000152071
0.000152071
0.000152072
0.000152072
0.000152072
0.000152072
0.000152072
0.000152072
0.000152073
0.000152073
0.000152073
0.000152073
0.000152074
0.000152074
0.000152074
0.000152074
0.000152075
0.000152075
0.000152075
0.000152076
0.000152076
0.000152077
0.000152077
0.000152077
0.000152078
0.000152078
0.000152078
0.000152079
0.000152079
0.000152079
0.00015208
0.00015208
0.00015208
0.000152081
0.000152081
0.000152081
0.000152081
0.000152081
0.000152082
0.000152082
0.000152082
0.000152082
0.000152082
0.000152082
0.000152082
0.000152082
0.000152082
0.000152082
0.000152082
0.000152082
0.000152082
0.000152082
0.000152082
0.000152082
0.000152082
0.000152081
0.000152081
0.000152081
0.000152081
0.000152081
0.00015208
0.00015208
0.00015208
0.00015208
0.00015208
0.000152079
0.000152079
0.000152079
0.000152079
0.000152079
0.000152078
0.000152078
0.000152078
0.000152078
0.000152078
0.000152078
0.000152078
0.000152078
0.000152078
0.000152078
0.000152078
0.000152078