/*--------------------------------*- C++ -*----------------------------------*\
  =========                 |
  \\      /  F ield         | OpenFOAM: The Open Source CFD Toolbox
   \\    /   O peration     | Website:  https://openfoam.org
    \\  /    A nd           | Version:  7
     \\/     M anipulation  |
\*---------------------------------------------------------------------------*/
FoamFile
{
    version     2.0;
    format      ascii;
    class       volScalarField;
    location    "2000";
    object      omega;
}
// * * * * * * * * * * * * * * * * * * * * * * * * * * * * * * * * * * * * * //

dimensions      [0 0 -1 0 0 0 0];

internalField   nonuniform List<scalar> 
4037
(
0.639939
0.639929
0.639924
0.63992
0.639916
0.639913
0.63991
0.639908
0.639905
0.639903
0.639901
0.6399
0.639898
0.639896
0.639895
0.639893
0.639892
0.63989
0.639889
0.639888
0.639887
0.639885
0.639884
0.639883
0.639882
0.639881
0.63988
0.639879
0.639878
0.639877
0.639877
0.639876
0.639876
0.639875
0.639875
0.639875
0.639874
0.639874
0.639875
0.639875
0.639875
0.639876
0.639877
0.639878
0.639879
0.63988
0.639881
0.639883
0.639884
0.639886
0.639888
0.63989
0.639892
0.639894
0.639897
0.639899
0.639901
0.639904
0.639906
0.639908
0.63991
0.639913
0.639915
0.639917
0.639919
0.639921
0.639922
0.639924
0.639926
0.639927
0.639928
0.63993
0.639931
0.639932
0.639933
0.639934
0.639932
0.677599
0.677598
0.677596
0.677594
0.677592
0.67759
0.677588
0.677586
0.677584
0.677582
0.67758
0.677579
0.677578
0.677576
0.677575
0.677574
0.677573
0.677572
0.677572
0.677571
0.67757
0.67757
0.677569
0.67757
0.677564
0.677557
0.677551
0.677546
0.677543
0.67754
0.677537
0.677534
0.677532
0.677529
0.677527
0.677525
0.677523
0.677522
0.67752
0.677518
0.677517
0.677515
0.677514
0.677512
0.677511
0.67751
0.677509
0.677507
0.677506
0.677505
0.677504
0.677503
0.677502
0.677501
0.6775
0.6775
0.677499
0.677499
0.677498
0.677498
0.677498
0.677498
0.677498
0.677498
0.677498
0.677499
0.6775
0.6775
0.677501
0.677503
0.677504
0.677505
0.677507
0.677509
0.677511
0.677513
0.677515
0.677517
0.677519
0.677521
0.677523
0.677526
0.677528
0.67753
0.677532
0.677534
0.677537
0.677539
0.67754
0.677542
0.677544
0.677546
0.677547
0.677548
0.67755
0.677551
0.677552
0.677553
0.677553
0.677554
0.677553
0.677559
0.677566
0.677571
0.677576
0.677579
0.677582
0.677584
0.677586
0.677588
0.677589
0.67759
0.677591
0.677592
0.677592
0.677592
0.677593
0.677593
0.677593
0.677594
0.717846
0.717848
0.717846
0.717844
0.717841
0.717838
0.717836
0.717833
0.717831
0.717829
0.717827
0.717825
0.717824
0.717822
0.717821
0.71782
0.717818
0.717817
0.717817
0.717816
0.717815
0.717814
0.717814
0.717814
0.717811
0.717806
0.7178
0.717796
0.717792
0.717788
0.717785
0.717782
0.71778
0.717778
0.717775
0.717773
0.717771
0.717769
0.717768
0.717766
0.717764
0.717763
0.717761
0.71776
0.717758
0.717757
0.717755
0.717754
0.717753
0.717752
0.71775
0.717749
0.717748
0.717747
0.717747
0.717746
0.717745
0.717744
0.717744
0.717744
0.717743
0.717743
0.717743
0.717743
0.717744
0.717744
0.717745
0.717746
0.717747
0.717748
0.717749
0.71775
0.717752
0.717754
0.717756
0.717757
0.717759
0.717761
0.717764
0.717766
0.717768
0.71777
0.717772
0.717775
0.717777
0.717779
0.717781
0.717783
0.717785
0.717786
0.717788
0.717789
0.717791
0.717792
0.717793
0.717794
0.717795
0.717796
0.717796
0.717797
0.717796
0.717799
0.717805
0.717809
0.717813
0.717817
0.717819
0.717822
0.717823
0.717825
0.717826
0.717827
0.717828
0.717829
0.717829
0.717829
0.717829
0.71783
0.71783
0.717829
0.761019
0.761024
0.761022
0.761019
0.761016
0.761013
0.76101
0.761007
0.761004
0.761002
0.760999
0.760997
0.760995
0.760994
0.760992
0.760991
0.760989
0.760988
0.760987
0.760986
0.760986
0.760985
0.760984
0.760984
0.760982
0.760978
0.760973
0.760968
0.760964
0.76096
0.760957
0.760954
0.760952
0.760949
0.760947
0.760944
0.760942
0.76094
0.760938
0.760937
0.760935
0.760933
0.760931
0.76093
0.760928
0.760927
0.760925
0.760924
0.760923
0.760922
0.76092
0.760919
0.760918
0.760917
0.760916
0.760915
0.760914
0.760914
0.760913
0.760913
0.760913
0.760912
0.760912
0.760912
0.760913
0.760913
0.760914
0.760915
0.760915
0.760916
0.760918
0.760919
0.760921
0.760922
0.760924
0.760926
0.760928
0.76093
0.760932
0.760934
0.760936
0.760938
0.76094
0.760942
0.760944
0.760946
0.760948
0.76095
0.760952
0.760953
0.760955
0.760956
0.760958
0.760959
0.76096
0.76096
0.760961
0.760962
0.760962
0.760963
0.760962
0.760965
0.760969
0.760973
0.760977
0.76098
0.760983
0.760985
0.760987
0.760988
0.760989
0.76099
0.760991
0.760991
0.760992
0.760992
0.760992
0.760992
0.760993
0.760989
0.80747
0.807477
0.807475
0.807472
0.807468
0.807464
0.80746
0.807457
0.807454
0.807451
0.807448
0.807446
0.807444
0.807442
0.80744
0.807438
0.807437
0.807436
0.807435
0.807434
0.807433
0.807432
0.807431
0.807431
0.807429
0.807426
0.807422
0.807417
0.807413
0.80741
0.807406
0.807403
0.8074
0.807398
0.807395
0.807393
0.807391
0.807389
0.807387
0.807385
0.807383
0.807381
0.807379
0.807378
0.807376
0.807375
0.807373
0.807372
0.80737
0.807369
0.807368
0.807366
0.807365
0.807364
0.807363
0.807362
0.807361
0.807361
0.80736
0.80736
0.807359
0.807359
0.807359
0.807359
0.807359
0.80736
0.80736
0.807361
0.807362
0.807363
0.807364
0.807365
0.807367
0.807368
0.80737
0.807372
0.807373
0.807375
0.807377
0.807379
0.807381
0.807384
0.807386
0.807388
0.80739
0.807391
0.807393
0.807395
0.807397
0.807398
0.807399
0.807401
0.807402
0.807403
0.807404
0.807404
0.807405
0.807405
0.807406
0.807406
0.807405
0.807407
0.80741
0.807414
0.807417
0.80742
0.807423
0.807425
0.807427
0.807428
0.807429
0.80743
0.80743
0.807431
0.807431
0.807431
0.807431
0.807431
0.807433
0.807426
0.857612
0.857621
0.85762
0.857615
0.857611
0.857606
0.857602
0.857598
0.857595
0.857591
0.857588
0.857586
0.857583
0.857581
0.857579
0.857577
0.857576
0.857574
0.857573
0.857572
0.857571
0.85757
0.857569
0.857569
0.857568
0.857565
0.857562
0.857558
0.857554
0.85755
0.857547
0.857544
0.857541
0.857538
0.857535
0.857533
0.857531
0.857528
0.857526
0.857524
0.857522
0.857521
0.857519
0.857517
0.857515
0.857514
0.857512
0.857511
0.857509
0.857508
0.857507
0.857505
0.857504
0.857503
0.857502
0.857501
0.8575
0.857499
0.857499
0.857498
0.857498
0.857498
0.857498
0.857498
0.857498
0.857498
0.857499
0.857499
0.8575
0.857501
0.857502
0.857503
0.857505
0.857506
0.857508
0.857509
0.857511
0.857513
0.857515
0.857517
0.857519
0.857521
0.857523
0.857524
0.857526
0.857528
0.85753
0.857531
0.857533
0.857534
0.857536
0.857537
0.857538
0.857539
0.857539
0.85754
0.85754
0.85754
0.85754
0.857541
0.85754
0.857541
0.857543
0.857546
0.857549
0.857552
0.857554
0.857556
0.857558
0.857559
0.85756
0.857561
0.857561
0.857562
0.857562
0.857562
0.857562
0.857561
0.857564
0.857555
0.911932
0.911944
0.911942
0.911937
0.911932
0.911927
0.911922
0.911917
0.911913
0.91191
0.911906
0.911903
0.9119
0.911898
0.911896
0.911894
0.911892
0.911891
0.911889
0.911888
0.911887
0.911886
0.911885
0.911885
0.911884
0.911882
0.911879
0.911875
0.911872
0.911868
0.911865
0.911862
0.911859
0.911856
0.911854
0.911851
0.911849
0.911847
0.911844
0.911842
0.91184
0.911838
0.911837
0.911835
0.911833
0.911832
0.91183
0.911828
0.911827
0.911825
0.911824
0.911823
0.911822
0.91182
0.911819
0.911818
0.911818
0.911817
0.911816
0.911816
0.911815
0.911815
0.911815
0.911815
0.911815
0.911815
0.911815
0.911816
0.911817
0.911818
0.911819
0.91182
0.911821
0.911822
0.911824
0.911826
0.911827
0.911829
0.911831
0.911833
0.911834
0.911836
0.911838
0.91184
0.911842
0.911843
0.911845
0.911846
0.911848
0.911849
0.91185
0.911851
0.911852
0.911853
0.911853
0.911854
0.911854
0.911854
0.911854
0.911854
0.911853
0.911853
0.911855
0.911857
0.91186
0.911862
0.911864
0.911866
0.911867
0.911868
0.911869
0.91187
0.91187
0.911871
0.911871
0.91187
0.91187
0.91187
0.911873
0.911861
0.971006
0.971021
0.971018
0.971013
0.971006
0.971
0.970995
0.97099
0.970985
0.970981
0.970977
0.970974
0.970971
0.970968
0.970966
0.970964
0.970962
0.97096
0.970959
0.970958
0.970956
0.970956
0.970955
0.970954
0.970953
0.970952
0.970949
0.970946
0.970943
0.97094
0.970936
0.970933
0.97093
0.970928
0.970925
0.970923
0.97092
0.970918
0.970916
0.970914
0.970912
0.97091
0.970908
0.970906
0.970904
0.970903
0.970901
0.9709
0.970898
0.970897
0.970895
0.970894
0.970893
0.970892
0.97089
0.970889
0.970889
0.970888
0.970887
0.970886
0.970886
0.970886
0.970886
0.970885
0.970886
0.970886
0.970886
0.970887
0.970887
0.970888
0.970889
0.97089
0.970891
0.970893
0.970894
0.970895
0.970897
0.970899
0.9709
0.970902
0.970904
0.970906
0.970907
0.970909
0.970911
0.970912
0.970914
0.970915
0.970916
0.970917
0.970918
0.970919
0.97092
0.97092
0.970921
0.970921
0.970921
0.970921
0.970921
0.97092
0.97092
0.97092
0.97092
0.970922
0.970924
0.970926
0.970927
0.970929
0.97093
0.970931
0.970932
0.970932
0.970933
0.970933
0.970933
0.970933
0.970933
0.970932
0.970935
0.970921
1.03552
1.03553
1.03553
1.03552
1.03552
1.03551
1.0355
1.0355
1.03549
1.03549
1.03548
1.03548
1.03548
1.03547
1.03547
1.03547
1.03547
1.03547
1.03546
1.03546
1.03546
1.03546
1.03546
1.03546
1.03546
1.03546
1.03546
1.03545
1.03545
1.03545
1.03544
1.03544
1.03544
1.03544
1.03543
1.03543
1.03543
1.03543
1.03542
1.03542
1.03542
1.03542
1.03542
1.03541
1.03541
1.03541
1.03541
1.03541
1.03541
1.0354
1.0354
1.0354
1.0354
1.0354
1.0354
1.0354
1.0354
1.0354
1.03539
1.03539
1.03539
1.03539
1.03539
1.03539
1.03539
1.03539
1.03539
1.03539
1.03539
1.0354
1.0354
1.0354
1.0354
1.0354
1.0354
1.0354
1.0354
1.03541
1.03541
1.03541
1.03541
1.03541
1.03541
1.03541
1.03542
1.03542
1.03542
1.03542
1.03542
1.03542
1.03542
1.03542
1.03542
1.03542
1.03543
1.03543
1.03543
1.03542
1.03542
1.03542
1.03542
1.03542
1.03542
1.03542
1.03542
1.03543
1.03543
1.03543
1.03543
1.03543
1.03543
1.03543
1.03543
1.03543
1.03543
1.03543
1.03543
1.03543
1.03543
1.03542
1.10628
1.1063
1.1063
1.10629
1.10628
1.10627
1.10627
1.10626
1.10625
1.10625
1.10625
1.10624
1.10624
1.10623
1.10623
1.10623
1.10623
1.10623
1.10622
1.10622
1.10622
1.10622
1.10622
1.10622
1.10622
1.10622
1.10622
1.10621
1.10621
1.10621
1.10621
1.1062
1.1062
1.1062
1.10619
1.10619
1.10619
1.10619
1.10619
1.10618
1.10618
1.10618
1.10618
1.10618
1.10617
1.10617
1.10617
1.10617
1.10617
1.10617
1.10616
1.10616
1.10616
1.10616
1.10616
1.10616
1.10616
1.10616
1.10616
1.10616
1.10616
1.10616
1.10615
1.10615
1.10615
1.10615
1.10616
1.10616
1.10616
1.10616
1.10616
1.10616
1.10616
1.10616
1.10616
1.10616
1.10616
1.10617
1.10617
1.10617
1.10617
1.10617
1.10617
1.10617
1.10618
1.10618
1.10618
1.10618
1.10618
1.10618
1.10618
1.10618
1.10618
1.10618
1.10618
1.10618
1.10618
1.10618
1.10618
1.10618
1.10618
1.10618
1.10618
1.10618
1.10618
1.10618
1.10618
1.10618
1.10618
1.10618
1.10618
1.10619
1.10619
1.10618
1.10618
1.10618
1.10618
1.10618
1.10619
1.10617
1.18428
1.18431
1.1843
1.18429
1.18428
1.18427
1.18427
1.18426
1.18425
1.18425
1.18424
1.18424
1.18423
1.18423
1.18423
1.18422
1.18422
1.18422
1.18422
1.18422
1.18422
1.18422
1.18421
1.18421
1.18421
1.18421
1.18421
1.18421
1.18421
1.1842
1.1842
1.1842
1.1842
1.18419
1.18419
1.18419
1.18419
1.18419
1.18418
1.18418
1.18418
1.18418
1.18418
1.18417
1.18417
1.18417
1.18417
1.18417
1.18417
1.18416
1.18416
1.18416
1.18416
1.18416
1.18416
1.18416
1.18416
1.18416
1.18415
1.18415
1.18415
1.18415
1.18415
1.18415
1.18415
1.18415
1.18415
1.18415
1.18415
1.18415
1.18416
1.18416
1.18416
1.18416
1.18416
1.18416
1.18416
1.18416
1.18416
1.18417
1.18417
1.18417
1.18417
1.18417
1.18417
1.18417
1.18417
1.18417
1.18418
1.18418
1.18418
1.18418
1.18418
1.18418
1.18418
1.18418
1.18418
1.18418
1.18418
1.18418
1.18417
1.18417
1.18417
1.18417
1.18417
1.18417
1.18417
1.18417
1.18417
1.18417
1.18418
1.18418
1.18417
1.18417
1.18417
1.18417
1.18417
1.18417
1.18418
1.18416
1.27071
1.27074
1.27073
1.27072
1.27071
1.2707
1.27069
1.27069
1.27068
1.27067
1.27067
1.27066
1.27066
1.27065
1.27065
1.27065
1.27065
1.27064
1.27064
1.27064
1.27064
1.27064
1.27064
1.27064
1.27064
1.27064
1.27063
1.27063
1.27063
1.27063
1.27063
1.27062
1.27062
1.27062
1.27062
1.27062
1.27061
1.27061
1.27061
1.27061
1.27061
1.2706
1.2706
1.2706
1.2706
1.2706
1.27059
1.27059
1.27059
1.27059
1.27059
1.27059
1.27059
1.27059
1.27058
1.27058
1.27058
1.27058
1.27058
1.27058
1.27058
1.27058
1.27058
1.27058
1.27058
1.27058
1.27058
1.27058
1.27058
1.27058
1.27058
1.27058
1.27058
1.27058
1.27058
1.27059
1.27059
1.27059
1.27059
1.27059
1.27059
1.27059
1.27059
1.2706
1.2706
1.2706
1.2706
1.2706
1.2706
1.2706
1.2706
1.2706
1.2706
1.2706
1.2706
1.2706
1.2706
1.2706
1.2706
1.2706
1.2706
1.2706
1.27059
1.27059
1.27059
1.27059
1.27059
1.27059
1.27059
1.27059
1.27059
1.27059
1.27059
1.27059
1.27059
1.27059
1.27059
1.27059
1.2706
1.27057
1.36703
1.36706
1.36705
1.36704
1.36703
1.36702
1.36701
1.367
1.36699
1.36698
1.36698
1.36697
1.36697
1.36696
1.36696
1.36696
1.36695
1.36695
1.36695
1.36695
1.36695
1.36695
1.36695
1.36695
1.36694
1.36694
1.36694
1.36694
1.36694
1.36694
1.36694
1.36693
1.36693
1.36693
1.36693
1.36693
1.36692
1.36692
1.36692
1.36692
1.36692
1.36691
1.36691
1.36691
1.36691
1.36691
1.36691
1.3669
1.3669
1.3669
1.3669
1.3669
1.3669
1.3669
1.3669
1.3669
1.36689
1.36689
1.36689
1.36689
1.36689
1.36689
1.36689
1.36689
1.36689
1.36689
1.36689
1.36689
1.36689
1.36689
1.36689
1.36689
1.36689
1.36689
1.3669
1.3669
1.3669
1.3669
1.3669
1.3669
1.3669
1.3669
1.3669
1.3669
1.36691
1.36691
1.36691
1.36691
1.36691
1.36691
1.36691
1.36691
1.36691
1.36691
1.36691
1.36691
1.36691
1.36691
1.36691
1.3669
1.3669
1.3669
1.3669
1.3669
1.3669
1.3669
1.3669
1.3669
1.3669
1.3669
1.3669
1.3669
1.3669
1.3669
1.36689
1.36689
1.36689
1.36689
1.3669
1.36687
1.47503
1.47505
1.47505
1.47503
1.47502
1.47501
1.475
1.47499
1.47498
1.47497
1.47496
1.47496
1.47495
1.47495
1.47495
1.47494
1.47494
1.47494
1.47494
1.47494
1.47494
1.47493
1.47493
1.47493
1.47493
1.47493
1.47493
1.47493
1.47493
1.47493
1.47493
1.47492
1.47492
1.47492
1.47492
1.47491
1.47491
1.47491
1.47491
1.47491
1.47491
1.4749
1.4749
1.4749
1.4749
1.4749
1.4749
1.47489
1.47489
1.47489
1.47489
1.47489
1.47489
1.47489
1.47489
1.47489
1.47488
1.47488
1.47488
1.47488
1.47488
1.47488
1.47488
1.47488
1.47488
1.47488
1.47488
1.47488
1.47488
1.47488
1.47488
1.47488
1.47488
1.47488
1.47489
1.47489
1.47489
1.47489
1.47489
1.47489
1.47489
1.47489
1.47489
1.47489
1.47489
1.47489
1.47489
1.4749
1.4749
1.4749
1.4749
1.4749
1.4749
1.4749
1.4749
1.47489
1.47489
1.47489
1.47489
1.47489
1.47489
1.47489
1.47489
1.47489
1.47488
1.47488
1.47488
1.47488
1.47488
1.47488
1.47488
1.47488
1.47488
1.47488
1.47488
1.47488
1.47488
1.47487
1.47488
1.47485
1.59694
1.59697
1.59696
1.59694
1.59693
1.59691
1.5969
1.59689
1.59688
1.59687
1.59687
1.59686
1.59686
1.59685
1.59685
1.59684
1.59684
1.59684
1.59684
1.59684
1.59684
1.59683
1.59683
1.59683
1.59683
1.59683
1.59683
1.59683
1.59683
1.59683
1.59683
1.59682
1.59682
1.59682
1.59682
1.59682
1.59682
1.59681
1.59681
1.59681
1.59681
1.59681
1.5968
1.5968
1.5968
1.5968
1.5968
1.5968
1.5968
1.59679
1.59679
1.59679
1.59679
1.59679
1.59679
1.59679
1.59679
1.59679
1.59679
1.59679
1.59679
1.59679
1.59679
1.59679
1.59679
1.59679
1.59679
1.59679
1.59679
1.59679
1.59679
1.59679
1.59679
1.59679
1.59679
1.59679
1.59679
1.59679
1.59679
1.59679
1.59679
1.59679
1.59679
1.59679
1.5968
1.5968
1.5968
1.5968
1.5968
1.5968
1.5968
1.5968
1.5968
1.5968
1.5968
1.59679
1.59679
1.59679
1.59679
1.59679
1.59679
1.59679
1.59679
1.59678
1.59678
1.59678
1.59678
1.59678
1.59678
1.59678
1.59678
1.59678
1.59678
1.59677
1.59677
1.59677
1.59677
1.59677
1.59678
1.59675
1.73557
1.7356
1.73559
1.73557
1.73555
1.73554
1.73552
1.73551
1.7355
1.7355
1.73549
1.73548
1.73548
1.73547
1.73547
1.73547
1.73546
1.73546
1.73546
1.73546
1.73546
1.73546
1.73545
1.73545
1.73545
1.73545
1.73545
1.73545
1.73545
1.73545
1.73545
1.73545
1.73545
1.73544
1.73544
1.73544
1.73544
1.73544
1.73543
1.73543
1.73543
1.73543
1.73543
1.73543
1.73542
1.73542
1.73542
1.73542
1.73542
1.73542
1.73542
1.73542
1.73542
1.73541
1.73541
1.73541
1.73541
1.73541
1.73541
1.73541
1.73541
1.73541
1.73541
1.73541
1.73541
1.73541
1.73541
1.73541
1.73541
1.73541
1.73541
1.73541
1.73541
1.73541
1.73541
1.73541
1.73541
1.73541
1.73541
1.73541
1.73542
1.73542
1.73542
1.73542
1.73542
1.73542
1.73542
1.73542
1.73542
1.73542
1.73542
1.73542
1.73542
1.73542
1.73542
1.73542
1.73541
1.73541
1.73541
1.73541
1.73541
1.73541
1.73541
1.7354
1.7354
1.7354
1.7354
1.7354
1.7354
1.7354
1.7354
1.73539
1.73539
1.73539
1.73539
1.73539
1.73539
1.73539
1.73539
1.73536
1.89449
1.89453
1.89451
1.89449
1.89447
1.89445
1.89444
1.89443
1.89442
1.89441
1.8944
1.89439
1.89439
1.89438
1.89438
1.89438
1.89437
1.89437
1.89437
1.89437
1.89437
1.89437
1.89437
1.89437
1.89437
1.89437
1.89436
1.89436
1.89436
1.89436
1.89436
1.89436
1.89436
1.89436
1.89435
1.89435
1.89435
1.89435
1.89435
1.89435
1.89434
1.89434
1.89434
1.89434
1.89434
1.89434
1.89434
1.89433
1.89433
1.89433
1.89433
1.89433
1.89433
1.89433
1.89433
1.89433
1.89433
1.89433
1.89433
1.89433
1.89433
1.89432
1.89432
1.89432
1.89432
1.89432
1.89432
1.89432
1.89432
1.89432
1.89432
1.89432
1.89432
1.89433
1.89433
1.89433
1.89433
1.89433
1.89433
1.89433
1.89433
1.89433
1.89433
1.89433
1.89433
1.89433
1.89433
1.89433
1.89433
1.89433
1.89433
1.89433
1.89433
1.89433
1.89433
1.89433
1.89433
1.89432
1.89432
1.89432
1.89432
1.89432
1.89432
1.89431
1.89431
1.89431
1.89431
1.89431
1.89431
1.89431
1.8943
1.8943
1.8943
1.8943
1.8943
1.8943
1.8943
1.89429
1.8943
1.89427
2.0783
2.07833
2.07832
2.0783
2.07827
2.07825
2.07824
2.07822
2.07821
2.0782
2.07819
2.07819
2.07818
2.07818
2.07817
2.07817
2.07817
2.07817
2.07816
2.07816
2.07816
2.07816
2.07816
2.07816
2.07816
2.07816
2.07816
2.07816
2.07816
2.07816
2.07816
2.07815
2.07815
2.07815
2.07815
2.07815
2.07815
2.07814
2.07814
2.07814
2.07814
2.07814
2.07814
2.07813
2.07813
2.07813
2.07813
2.07813
2.07813
2.07813
2.07813
2.07813
2.07813
2.07813
2.07813
2.07812
2.07812
2.07812
2.07812
2.07812
2.07812
2.07812
2.07812
2.07812
2.07812
2.07812
2.07812
2.07812
2.07812
2.07812
2.07812
2.07812
2.07812
2.07812
2.07812
2.07812
2.07812
2.07812
2.07812
2.07812
2.07812
2.07812
2.07812
2.07812
2.07813
2.07813
2.07813
2.07813
2.07813
2.07812
2.07812
2.07812
2.07812
2.07812
2.07812
2.07812
2.07812
2.07812
2.07812
2.07811
2.07811
2.07811
2.07811
2.07811
2.07811
2.0781
2.0781
2.0781
2.0781
2.0781
2.0781
2.07809
2.07809
2.07809
2.07809
2.07809
2.07809
2.07809
2.07809
2.07806
2.29298
2.29302
2.293
2.29297
2.29294
2.29292
2.2929
2.29289
2.29288
2.29287
2.29286
2.29285
2.29284
2.29284
2.29284
2.29283
2.29283
2.29283
2.29283
2.29283
2.29283
2.29283
2.29283
2.29283
2.29283
2.29283
2.29282
2.29282
2.29282
2.29282
2.29282
2.29282
2.29282
2.29282
2.29281
2.29281
2.29281
2.29281
2.29281
2.29281
2.29281
2.2928
2.2928
2.2928
2.2928
2.2928
2.2928
2.2928
2.2928
2.2928
2.29279
2.29279
2.29279
2.29279
2.29279
2.29279
2.29279
2.29279
2.29279
2.29279
2.29279
2.29279
2.29279
2.29279
2.29279
2.29279
2.29279
2.29279
2.29279
2.29279
2.29279
2.29279
2.29279
2.29279
2.29279
2.29279
2.29279
2.29279
2.29279
2.29279
2.29279
2.29279
2.29279
2.29279
2.29279
2.29279
2.29279
2.29279
2.29279
2.29279
2.29279
2.29279
2.29279
2.29279
2.29279
2.29279
2.29278
2.29278
2.29278
2.29278
2.29278
2.29278
2.29277
2.29277
2.29277
2.29277
2.29277
2.29276
2.29276
2.29276
2.29276
2.29276
2.29276
2.29275
2.29275
2.29275
2.29275
2.29275
2.29276
2.29272
2.54645
2.54649
2.54647
2.54643
2.54641
2.54638
2.54636
2.54634
2.54633
2.54632
2.54631
2.5463
2.5463
2.54629
2.54629
2.54629
2.54629
2.54629
2.54628
2.54628
2.54628
2.54628
2.54628
2.54628
2.54628
2.54628
2.54628
2.54628
2.54628
2.54628
2.54628
2.54628
2.54627
2.54627
2.54627
2.54627
2.54627
2.54627
2.54626
2.54626
2.54626
2.54626
2.54626
2.54626
2.54626
2.54626
2.54626
2.54625
2.54625
2.54625
2.54625
2.54625
2.54625
2.54625
2.54625
2.54625
2.54625
2.54625
2.54625
2.54625
2.54625
2.54625
2.54625
2.54625
2.54625
2.54625
2.54625
2.54625
2.54625
2.54625
2.54625
2.54625
2.54625
2.54625
2.54625
2.54625
2.54625
2.54625
2.54625
2.54625
2.54625
2.54625
2.54625
2.54625
2.54625
2.54625
2.54625
2.54625
2.54625
2.54625
2.54625
2.54625
2.54625
2.54624
2.54624
2.54624
2.54624
2.54624
2.54624
2.54624
2.54623
2.54623
2.54623
2.54623
2.54623
2.54622
2.54622
2.54622
2.54622
2.54622
2.54621
2.54621
2.54621
2.54621
2.54621
2.5462
2.5462
2.5462
2.54621
2.54617
2.84937
2.8494
2.84937
2.84934
2.8493
2.84927
2.84925
2.84923
2.84922
2.84921
2.8492
2.84919
2.84919
2.84918
2.84918
2.84918
2.84918
2.84918
2.84918
2.84917
2.84917
2.84917
2.84917
2.84917
2.84917
2.84917
2.84917
2.84917
2.84917
2.84917
2.84917
2.84917
2.84917
2.84916
2.84916
2.84916
2.84916
2.84916
2.84916
2.84915
2.84915
2.84915
2.84915
2.84915
2.84915
2.84915
2.84915
2.84915
2.84915
2.84915
2.84915
2.84915
2.84914
2.84914
2.84914
2.84914
2.84914
2.84914
2.84914
2.84914
2.84914
2.84914
2.84914
2.84914
2.84914
2.84914
2.84914
2.84914
2.84914
2.84914
2.84914
2.84914
2.84914
2.84914
2.84914
2.84914
2.84914
2.84914
2.84914
2.84914
2.84914
2.84914
2.84914
2.84914
2.84914
2.84914
2.84914
2.84914
2.84914
2.84914
2.84914
2.84914
2.84914
2.84914
2.84913
2.84913
2.84913
2.84913
2.84913
2.84913
2.84913
2.84912
2.84912
2.84912
2.84912
2.84912
2.84911
2.84911
2.84911
2.84911
2.8491
2.8491
2.8491
2.8491
2.8491
2.84909
2.84909
2.84909
2.8491
2.84907
3.21627
3.21631
3.21627
3.21623
3.21619
3.21615
3.21613
3.21611
3.2161
3.21609
3.21608
3.21607
3.21607
3.21607
3.21606
3.21606
3.21606
3.21606
3.21606
3.21606
3.21606
3.21606
3.21606
3.21606
3.21606
3.21606
3.21606
3.21606
3.21605
3.21605
3.21605
3.21605
3.21605
3.21605
3.21605
3.21604
3.21604
3.21604
3.21604
3.21604
3.21604
3.21604
3.21603
3.21603
3.21603
3.21603
3.21603
3.21603
3.21603
3.21603
3.21603
3.21603
3.21603
3.21603
3.21603
3.21603
3.21603
3.21603
3.21603
3.21603
3.21603
3.21603
3.21603
3.21603
3.21603
3.21603
3.21603
3.21603
3.21603
3.21603
3.21603
3.21603
3.21603
3.21603
3.21603
3.21603
3.21603
3.21603
3.21603
3.21603
3.21603
3.21603
3.21603
3.21603
3.21603
3.21603
3.21603
3.21603
3.21602
3.21602
3.21602
3.21602
3.21602
3.21602
3.21602
3.21602
3.21602
3.21601
3.21601
3.21601
3.21601
3.21601
3.21601
3.216
3.216
3.216
3.216
3.21599
3.21599
3.21599
3.21599
3.21598
3.21598
3.21598
3.21598
3.21598
3.21598
3.21598
3.21599
3.21595
3.66749
3.66751
3.66747
3.66741
3.66737
3.66733
3.66731
3.66729
3.66727
3.66726
3.66726
3.66725
3.66725
3.66725
3.66724
3.66724
3.66724
3.66724
3.66724
3.66724
3.66724
3.66724
3.66724
3.66724
3.66724
3.66724
3.66724
3.66724
3.66724
3.66724
3.66723
3.66723
3.66723
3.66723
3.66723
3.66723
3.66722
3.66722
3.66722
3.66722
3.66722
3.66722
3.66722
3.66722
3.66722
3.66722
3.66722
3.66722
3.66721
3.66721
3.66721
3.66721
3.66721
3.66721
3.66721
3.66721
3.66721
3.66721
3.66721
3.66721
3.66721
3.66721
3.66721
3.66721
3.66721
3.66721
3.66721
3.66721
3.66721
3.66721
3.66721
3.66721
3.66721
3.66721
3.66721
3.66721
3.66721
3.66721
3.66721
3.66721
3.66721
3.66721
3.66721
3.66721
3.66721
3.66721
3.66721
3.66721
3.66721
3.66721
3.66721
3.66721
3.66721
3.66721
3.6672
3.6672
3.6672
3.6672
3.6672
3.6672
3.66719
3.66719
3.66719
3.66719
3.66719
3.66718
3.66718
3.66718
3.66718
3.66717
3.66717
3.66717
3.66717
3.66716
3.66716
3.66716
3.66716
3.66716
3.66718
3.66714
4.23203
4.23204
4.23198
4.23192
4.23187
4.23183
4.2318
4.23178
4.23177
4.23176
4.23176
4.23175
4.23175
4.23175
4.23175
4.23175
4.23175
4.23175
4.23175
4.23175
4.23175
4.23175
4.23175
4.23175
4.23175
4.23175
4.23175
4.23175
4.23174
4.23174
4.23174
4.23174
4.23174
4.23174
4.23173
4.23173
4.23173
4.23173
4.23173
4.23173
4.23173
4.23172
4.23172
4.23172
4.23172
4.23172
4.23172
4.23172
4.23172
4.23172
4.23172
4.23172
4.23172
4.23172
4.23172
4.23172
4.23172
4.23172
4.23172
4.23172
4.23172
4.23172
4.23172
4.23172
4.23172
4.23172
4.23172
4.23172
4.23172
4.23172
4.23172
4.23172
4.23172
4.23172
4.23172
4.23172
4.23172
4.23172
4.23172
4.23172
4.23172
4.23172
4.23172
4.23172
4.23172
4.23172
4.23172
4.23172
4.23172
4.23172
4.23172
4.23172
4.23172
4.23172
4.23171
4.23171
4.23171
4.23171
4.23171
4.23171
4.2317
4.2317
4.2317
4.2317
4.2317
4.23169
4.23169
4.23169
4.23169
4.23168
4.23168
4.23168
4.23168
4.23167
4.23167
4.23167
4.23167
4.23168
4.23169
4.23166
4.95272
4.95272
4.95264
4.95257
4.95251
4.95247
4.95245
4.95243
4.95242
4.95241
4.95241
4.95241
4.95241
4.95241
4.9524
4.9524
4.9524
4.9524
4.9524
4.9524
4.9524
4.9524
4.9524
4.95241
4.95241
4.9524
4.9524
4.9524
4.9524
4.9524
4.9524
4.9524
4.95239
4.95239
4.95239
4.95239
4.95239
4.95239
4.95238
4.95238
4.95238
4.95238
4.95238
4.95238
4.95238
4.95238
4.95238
4.95238
4.95238
4.95238
4.95238
4.95238
4.95238
4.95238
4.95238
4.95238
4.95238
4.95239
4.95239
4.95239
4.95239
4.95239
4.95239
4.95239
4.95239
4.95239
4.95239
4.95239
4.95239
4.95239
4.95239
4.95239
4.95239
4.95239
4.95239
4.95239
4.95239
4.95239
4.95239
4.95239
4.95239
4.95239
4.95239
4.95239
4.95239
4.95239
4.95239
4.95239
4.95239
4.95238
4.95238
4.95238
4.95238
4.95238
4.95238
4.95238
4.95238
4.95237
4.95237
4.95237
4.95237
4.95237
4.95236
4.95236
4.95236
4.95236
4.95235
4.95235
4.95235
4.95235
4.95234
4.95234
4.95234
4.95234
4.95234
4.95234
4.95234
4.95234
4.95236
4.95233
5.89595
5.89592
5.89582
5.89573
5.89567
5.89563
5.89561
5.8956
5.89559
5.89559
5.89559
5.89558
5.89558
5.89558
5.89559
5.89559
5.89559
5.89559
5.89559
5.89559
5.89559
5.89559
5.89559
5.89559
5.89559
5.89559
5.89558
5.89558
5.89558
5.89558
5.89558
5.89558
5.89557
5.89557
5.89557
5.89557
5.89557
5.89557
5.89557
5.89557
5.89557
5.89557
5.89557
5.89557
5.89557
5.89557
5.89557
5.89557
5.89557
5.89557
5.89557
5.89557
5.89557
5.89557
5.89557
5.89557
5.89557
5.89557
5.89557
5.89557
5.89558
5.89558
5.89558
5.89558
5.89558
5.89558
5.89558
5.89558
5.89558
5.89558
5.89558
5.89558
5.89558
5.89558
5.89558
5.89558
5.89558
5.89558
5.89558
5.89558
5.89558
5.89558
5.89558
5.89558
5.89558
5.89558
5.89558
5.89558
5.89558
5.89558
5.89558
5.89557
5.89557
5.89557
5.89557
5.89557
5.89557
5.89556
5.89556
5.89556
5.89556
5.89556
5.89556
5.89555
5.89555
5.89555
5.89555
5.89554
5.89554
5.89554
5.89554
5.89553
5.89553
5.89553
5.89553
5.89553
5.89553
5.89554
5.89556
5.89554
7.17343
7.17337
7.17324
7.17315
7.17309
7.17306
7.17304
7.17303
7.17303
7.17303
7.17303
7.17303
7.17303
7.17303
7.17303
7.17303
7.17303
7.17303
7.17303
7.17303
7.17303
7.17303
7.17303
7.17303
7.17303
7.17303
7.17303
7.17303
7.17303
7.17302
7.17302
7.17302
7.17302
7.17302
7.17302
7.17302
7.17302
7.17302
7.17302
7.17302
7.17302
7.17302
7.17302
7.17302
7.17302
7.17302
7.17302
7.17302
7.17302
7.17302
7.17302
7.17302
7.17303
7.17303
7.17303
7.17303
7.17303
7.17303
7.17303
7.17303
7.17303
7.17304
7.17304
7.17304
7.17304
7.17304
7.17304
7.17304
7.17304
7.17304
7.17304
7.17304
7.17304
7.17304
7.17305
7.17305
7.17305
7.17305
7.17305
7.17305
7.17305
7.17305
7.17305
7.17305
7.17305
7.17304
7.17304
7.17304
7.17304
7.17304
7.17304
7.17304
7.17304
7.17304
7.17303
7.17303
7.17303
7.17303
7.17303
7.17302
7.17302
7.17302
7.17302
7.17302
7.17301
7.17301
7.17301
7.17301
7.173
7.173
7.173
7.173
7.173
7.173
7.173
7.173
7.173
7.17301
7.17303
7.17303
9.0001
8.99998
8.99983
8.99974
8.9997
8.99968
8.99967
8.99967
8.99967
8.99967
8.99967
8.99967
8.99967
8.99967
8.99967
8.99967
8.99967
8.99967
8.99967
8.99967
8.99967
8.99967
8.99967
8.99967
8.99967
8.99967
8.99967
8.99967
8.99966
8.99966
8.99966
8.99966
8.99966
8.99966
8.99966
8.99966
8.99966
8.99966
8.99966
8.99966
8.99966
8.99966
8.99966
8.99966
8.99967
8.99967
8.99967
8.99967
8.99967
8.99967
8.99967
8.99968
8.99968
8.99968
8.99968
8.99968
8.99968
8.99969
8.99969
8.99969
8.99969
8.99969
8.99969
8.9997
8.9997
8.9997
8.9997
8.9997
8.9997
8.9997
8.9997
8.99971
8.99971
8.99971
8.99971
8.99971
8.99971
8.99971
8.99971
8.99971
8.99971
8.99971
8.99971
8.99971
8.99971
8.99971
8.99971
8.99971
8.9997
8.9997
8.9997
8.9997
8.9997
8.9997
8.99969
8.99969
8.99969
8.99969
8.99969
8.99968
8.99968
8.99968
8.99968
8.99968
8.99967
8.99967
8.99967
8.99967
8.99967
8.99966
8.99966
8.99966
8.99966
8.99966
8.99966
8.99967
8.99967
8.99968
8.99969
8.99971
11.8636
11.8635
11.8633
11.8632
11.8632
11.8632
11.8632
11.8632
11.8632
11.8632
11.8632
11.8632
11.8632
11.8632
11.8632
11.8632
11.8632
11.8632
11.8632
11.8632
11.8632
11.8632
11.8632
11.8632
11.8632
11.8632
11.8632
11.8632
11.8632
11.8632
11.8632
11.8632
11.8632
11.8632
11.8632
11.8632
11.8632
11.8632
11.8632
11.8632
11.8632
11.8632
11.8632
11.8632
11.8632
11.8632
11.8632
11.8632
11.8632
11.8632
11.8632
11.8632
11.8632
11.8632
11.8632
11.8632
11.8632
11.8632
11.8632
11.8632
11.8632
11.8632
11.8632
11.8632
11.8633
11.8633
11.8633
11.8633
11.8633
11.8633
11.8633
11.8633
11.8633
11.8633
11.8633
11.8633
11.8633
11.8633
11.8633
11.8633
11.8633
11.8633
11.8633
11.8633
11.8633
11.8633
11.8633
11.8633
11.8633
11.8633
11.8633
11.8633
11.8633
11.8633
11.8633
11.8632
11.8632
11.8632
11.8632
11.8632
11.8632
11.8632
11.8632
11.8632
11.8632
11.8632
11.8632
11.8632
11.8632
11.8632
11.8632
11.8632
11.8632
11.8632
11.8632
11.8632
11.8632
11.8633
11.8633
11.8633
17.0327
17.0326
17.0324
17.0324
17.0324
17.0324
17.0324
17.0324
17.0324
17.0324
17.0324
17.0324
17.0324
17.0324
17.0324
17.0324
17.0324
17.0324
17.0324
17.0324
17.0324
17.0324
17.0324
17.0324
17.0324
17.0324
17.0324
17.0324
17.0324
17.0324
17.0324
17.0324
17.0324
17.0324
17.0324
17.0324
17.0324
17.0324
17.0324
17.0324
17.0324
17.0324
17.0324
17.0324
17.0324
17.0324
17.0324
17.0324
17.0324
17.0324
17.0324
17.0324
17.0324
17.0324
17.0324
17.0324
17.0324
17.0324
17.0324
17.0324
17.0325
17.0325
17.0325
17.0325
17.0325
17.0325
17.0325
17.0325
17.0325
17.0325
17.0325
17.0325
17.0325
17.0325
17.0325
17.0325
17.0325
17.0325
17.0325
17.0325
17.0325
17.0325
17.0325
17.0325
17.0325
17.0325
17.0325
17.0325
17.0325
17.0325
17.0325
17.0325
17.0325
17.0325
17.0325
17.0325
17.0325
17.0325
17.0325
17.0325
17.0325
17.0325
17.0325
17.0324
17.0324
17.0324
17.0324
17.0324
17.0324
17.0324
17.0324
17.0324
17.0324
17.0324
17.0325
17.0325
17.0325
17.0325
17.0325
17.0325
28.1829
28.1828
28.1827
28.1827
28.1827
28.1827
28.1827
28.1827
28.1827
28.1827
28.1827
28.1827
28.1827
28.1827
28.1827
28.1827
28.1827
28.1827
28.1827
28.1827
28.1827
28.1827
28.1827
28.1827
28.1827
28.1827
28.1827
28.1827
28.1827
28.1827
28.1827
28.1827
28.1827
28.1827
28.1827
28.1827
28.1827
28.1827