/*--------------------------------*- C++ -*----------------------------------*\
  =========                 |
  \\      /  F ield         | OpenFOAM: The Open Source CFD Toolbox
   \\    /   O peration     | Website:  https://openfoam.org
    \\  /    A nd           | Version:  7
     \\/     M anipulation  |
\*---------------------------------------------------------------------------*/
FoamFile
{
    version     2.0;
    format      ascii;
    class       volVectorField;
    location    "2000";
    object      U;
}
// * * * * * * * * * * * * * * * * * * * * * * * * * * * * * * * * * * * * * //

dimensions      [0 1 -1 0 0 0 0];

internalField   nonuniform List<vector> 
4037
(
(0.125816 -1.491e-07 1.76127e-16)
(0.125816 -1.32484e-07 1.14333e-16)
(0.125816 -1.01134e-07 -1.57349e-16)
(0.125816 -7.96959e-08 4.59218e-17)
(0.125816 -6.42482e-08 -1.56945e-16)
(0.125816 -5.19363e-08 -2.99685e-16)
(0.125816 -4.13947e-08 -2.56963e-16)
(0.125816 -3.20308e-08 -4.81049e-16)
(0.125816 -2.35543e-08 -2.65604e-16)
(0.125816 -1.57872e-08 -4.12024e-16)
(0.125816 -8.60228e-09 -4.64259e-16)
(0.125816 -1.89322e-09 -4.14738e-16)
(0.125816 4.43178e-09 -5.98114e-16)
(0.125816 1.04481e-08 -3.51635e-16)
(0.125816 1.62099e-08 -4.8343e-16)
(0.125816 2.17462e-08 -5.09836e-16)
(0.125816 2.70616e-08 -3.63218e-16)
(0.125816 3.21397e-08 2.28156e-17)
(0.125816 3.69499e-08 1.00186e-16)
(0.125816 4.14546e-08 1.56391e-16)
(0.125816 4.56155e-08 1.86577e-16)
(0.125816 4.9399e-08 2.28335e-16)
(0.125816 5.27785e-08 5.14531e-16)
(0.125816 5.57358e-08 4.62102e-16)
(0.125816 5.82609e-08 4.8645e-16)
(0.125816 6.0352e-08 4.63026e-16)
(0.125816 6.20147e-08 4.6547e-16)
(0.125816 6.32612e-08 6.99462e-16)
(0.125816 6.41103e-08 6.64165e-16)
(0.125816 6.45854e-08 9.07326e-16)
(0.125816 6.47126e-08 8.00135e-16)
(0.125816 6.45192e-08 7.82031e-16)
(0.125816 6.40302e-08 1.01045e-15)
(0.125816 6.32673e-08 8.72146e-16)
(0.125816 6.22471e-08 1.16603e-15)
(0.125816 6.09806e-08 1.00349e-15)
(0.125816 5.94736e-08 9.60164e-16)
(0.125816 5.77273e-08 1.19941e-15)
(0.125816 5.57394e-08 1.05214e-15)
(0.125816 5.35049e-08 1.22039e-15)
(0.125816 5.10177e-08 1.07929e-15)
(0.125816 4.82709e-08 1.03114e-15)
(0.125816 4.5258e-08 1.26912e-15)
(0.125816 4.19732e-08 1.13342e-15)
(0.125816 3.84122e-08 1.38518e-15)
(0.125816 3.45721e-08 1.19833e-15)
(0.125816 3.04524e-08 1.14704e-15)
(0.125816 2.60552e-08 1.32806e-15)
(0.125816 2.13852e-08 1.22652e-15)
(0.125816 1.6451e-08 1.35221e-15)
(0.125816 1.12648e-08 1.22174e-15)
(0.125816 5.84308e-09 1.13358e-15)
(0.125816 2.08028e-10 1.34229e-15)
(0.125816 -5.61166e-09 1.2047e-15)
(0.125816 -1.15822e-08 1.40611e-15)
(0.125816 -1.7665e-08 1.26794e-15)
(0.125816 -2.38169e-08 1.21205e-15)
(0.125816 -2.99905e-08 1.17758e-15)
(0.125816 -3.61347e-08 1.15953e-15)
(0.125816 -4.21947e-08 1.14269e-15)
(0.125816 -4.81134e-08 1.13651e-15)
(0.125816 -5.38316e-08 1.13289e-15)
(0.125816 -5.92882e-08 1.12073e-15)
(0.125816 -6.44227e-08 1.10436e-15)
(0.125816 -6.91713e-08 1.10338e-15)
(0.125816 -7.34746e-08 1.10175e-15)
(0.125816 -7.72647e-08 1.08867e-15)
(0.125816 -8.04883e-08 1.08086e-15)
(0.125816 -8.30614e-08 1.07783e-15)
(0.125816 -8.49524e-08 1.06825e-15)
(0.125816 -8.60113e-08 1.06595e-15)
(0.125816 -8.62901e-08 1.06404e-15)
(0.125815 -8.53234e-08 1.06637e-15)
(0.125815 -8.37055e-08 1.05702e-15)
(0.125815 -7.80597e-08 1.05272e-15)
(0.125815 -7.6649e-08 1.06104e-15)
(0.125815 -1.7678e-08 1.05415e-15)
(0.1247 -1.60042e-07 1.143e-15)
(0.1247 -8.35536e-08 7.63476e-16)
(0.124701 -2.61753e-08 7.51503e-16)
(0.124701 -1.4381e-09 8.90272e-16)
(0.124701 1.10082e-08 9.14263e-16)
(0.124701 1.19576e-08 1.05422e-15)
(0.124701 7.65856e-09 1.06899e-15)
(0.124701 1.49151e-09 1.0386e-15)
(0.124701 -4.94269e-09 1.10123e-15)
(0.124701 -1.06177e-08 1.05996e-15)
(0.124701 -1.50999e-08 1.02159e-15)
(0.124701 -1.82326e-08 9.70852e-16)
(0.124701 -2.00392e-08 9.45352e-16)
(0.124701 -2.06575e-08 8.91321e-16)
(0.124701 -2.03485e-08 9.19157e-16)
(0.124701 -1.93767e-08 8.37264e-16)
(0.124701 -1.81245e-08 7.83647e-16)
(0.124701 -1.68425e-08 7.79168e-16)
(0.124701 -1.59301e-08 7.41627e-16)
(0.124701 -1.58208e-08 8.05448e-16)
(0.124701 -1.61821e-08 6.82801e-16)
(0.124701 -2.10465e-08 5.24424e-16)
(0.124701 -2.01214e-08 5.29975e-16)
(0.124701 -8.22966e-08 3.59375e-16)
(0.124701 -1.42535e-07 2.59803e-16)
(0.124701 -1.18305e-07 1.99258e-16)
(0.124701 -9.13379e-08 -2.06273e-17)
(0.1247 -7.34434e-08 6.29466e-17)
(0.1247 -5.96078e-08 -1.1814e-16)
(0.1247 -4.81403e-08 -1.62409e-16)
(0.1247 -3.81244e-08 -1.6838e-16)
(0.1247 -2.91273e-08 -3.65677e-16)
(0.1247 -2.09276e-08 -2.20845e-16)
(0.1247 -1.33833e-08 -3.1791e-16)
(0.1247 -6.38717e-09 -3.28192e-16)
(0.1247 1.55475e-10 -3.07127e-16)
(0.1247 6.32984e-09 -4.78848e-16)
(0.1247 1.22076e-08 -3.23529e-16)
(0.1247 1.78406e-08 -3.81675e-16)
(0.1247 2.32563e-08 -4.13379e-16)
(0.1247 2.84581e-08 -3.16518e-16)
(0.1247 3.34289e-08 -3.59337e-19)
(0.1247 3.81374e-08 1.12827e-16)
(0.1247 4.25459e-08 1.68785e-16)
(0.1247 4.66163e-08 2.13027e-16)
(0.1247 5.03153e-08 2.46371e-16)
(0.1247 5.36165e-08 4.32639e-16)
(0.1247 5.65017e-08 4.79344e-16)
(0.1247 5.89609e-08 4.89541e-16)
(0.1247 6.09915e-08 4.84722e-16)
(0.1247 6.25984e-08 4.84019e-16)
(0.1247 6.37933e-08 6.6558e-16)
(0.1247 6.45942e-08 6.75639e-16)
(0.1247 6.50241e-08 8.29577e-16)
(0.1247 6.51091e-08 8.32651e-16)
(0.1247 6.48762e-08 7.96221e-16)
(0.1247 6.43507e-08 9.36619e-16)
(0.1247 6.35544e-08 9.09789e-16)
(0.1247 6.25039e-08 1.06618e-15)
(0.1247 6.12107e-08 1.03912e-15)
(0.1247 5.96806e-08 9.9061e-16)
(0.1247 5.79151e-08 1.13182e-15)
(0.1247 5.59122e-08 1.07298e-15)
(0.1247 5.36674e-08 1.15498e-15)
(0.1247 5.11748e-08 1.12398e-15)
(0.1247 4.84281e-08 1.07329e-15)
(0.1247 4.54209e-08 1.19643e-15)
(0.1247 4.2148e-08 1.16309e-15)
(0.1247 3.86055e-08 1.26689e-15)
(0.1247 3.47909e-08 1.23638e-15)
(0.1247 3.07043e-08 1.17422e-15)
(0.1247 2.63479e-08 1.29135e-15)
(0.1247 2.17271e-08 1.24545e-15)
(0.1247 1.68508e-08 1.33076e-15)
(0.1247 1.17317e-08 1.2555e-15)
(0.1247 6.38659e-09 1.16472e-15)
(0.1247 8.3799e-10 1.26272e-15)
(0.1247 -4.88511e-09 1.22443e-15)
(0.1247 -1.07485e-08 1.33077e-15)
(0.1247 -1.67135e-08 1.30036e-15)
(0.1247 -2.27368e-08 1.24263e-15)
(0.1247 -2.87714e-08 1.19867e-15)
(0.1247 -3.47664e-08 1.16756e-15)
(0.1247 -4.06678e-08 1.13933e-15)
(0.1247 -4.6419e-08 1.11874e-15)
(0.1247 -5.1962e-08 1.10386e-15)
(0.1247 -5.72369e-08 1.08969e-15)
(0.1247 -6.21844e-08 1.0747e-15)
(0.1247 -6.67426e-08 1.06446e-15)
(0.1247 -7.08537e-08 1.05565e-15)
(0.1247 -7.4452e-08 1.04311e-15)
(0.1247 -7.74863e-08 1.03801e-15)
(0.1247 -7.98752e-08 1.03739e-15)
(0.1247 -8.15889e-08 1.02834e-15)
(0.1247 -8.24829e-08 1.02132e-15)
(0.1247 -8.26065e-08 1.02023e-15)
(0.1247 -8.15264e-08 1.02203e-15)
(0.1247 -7.97609e-08 1.01765e-15)
(0.1247 -7.44211e-08 1.01249e-15)
(0.1247 -7.22688e-08 1.01605e-15)
(0.124699 -2.44964e-08 1.008e-15)
(0.1247 3.70888e-08 9.96295e-16)
(0.1247 4.343e-08 9.91068e-16)
(0.1247 3.32426e-08 9.89396e-16)
(0.1247 2.60689e-08 9.93346e-16)
(0.1247 2.41668e-08 1.00046e-15)
(0.1247 2.56926e-08 1.00778e-15)
(0.1247 2.95332e-08 1.01214e-15)
(0.1247 3.50014e-08 1.01068e-15)
(0.1247 4.19393e-08 1.01108e-15)
(0.1247 4.97857e-08 1.01358e-15)
(0.1247 5.86796e-08 1.01901e-15)
(0.1247 6.73838e-08 1.01606e-15)
(0.1247 7.60187e-08 1.00998e-15)
(0.1247 8.20616e-08 1.01455e-15)
(0.1247 8.34803e-08 1.02125e-15)
(0.1247 7.89058e-08 1.01989e-15)
(0.1247 5.10064e-08 1.01628e-15)
(0.1247 1.98739e-08 1.01548e-15)
(0.1247 -9.10541e-08 1.00375e-15)
(0.123547 -1.7855e-07 1.15082e-15)
(0.123547 -9.59512e-08 7.47978e-16)
(0.123547 -3.55498e-08 7.34091e-16)
(0.123547 -8.00745e-09 8.88493e-16)
(0.123547 5.79646e-09 9.09022e-16)
(0.123547 7.31799e-09 9.96374e-16)
(0.123547 3.39404e-09 1.0066e-15)
(0.123547 -2.46758e-09 1.05636e-15)
(0.123547 -8.59341e-09 1.05172e-15)
(0.123547 -1.39454e-08 9.96167e-16)
(0.123547 -1.8097e-08 1.03707e-15)
(0.123547 -2.09003e-08 8.35046e-16)
(0.123547 -2.23881e-08 9.75678e-16)
(0.123547 -2.2706e-08 7.6697e-16)
(0.123547 -2.21198e-08 9.94832e-16)
(0.123547 -2.08996e-08 9.09598e-16)
(0.123547 -1.94233e-08 6.79456e-16)
(0.123547 -1.79478e-08 8.3409e-16)
(0.123547 -1.68434e-08 6.91107e-16)
(0.123547 -1.65788e-08 8.90748e-16)
(0.123547 -1.67416e-08 7.25529e-16)
(0.123547 -2.13852e-08 6.01323e-16)
(0.123547 -2.10281e-08 5.8732e-16)
(0.123547 -6.82727e-08 3.70835e-16)
(0.123547 -1.10806e-07 3.44649e-16)
(0.123547 -9.26142e-08 2.66194e-16)
(0.123546 -7.76553e-08 2.5173e-17)
(0.123546 -6.51404e-08 1.19854e-16)
(0.123546 -5.36847e-08 -7.77174e-17)
(0.123546 -4.35237e-08 -4.80587e-17)
(0.123546 -3.43317e-08 -8.36908e-17)
(0.123546 -2.59059e-08 -2.81753e-16)
(0.123546 -1.81304e-08 -1.38585e-16)
(0.123546 -1.09188e-08 -2.70461e-16)
(0.123546 -4.19563e-09 -2.04783e-16)
(0.123546 2.115e-09 -2.02051e-16)
(0.123546 8.08701e-09 -4.29697e-16)
(0.123546 1.37852e-08 -2.46382e-16)
(0.123546 1.92566e-08 -3.5024e-16)
(0.123546 2.45258e-08 -2.95351e-16)
(0.123546 2.95937e-08 -2.19665e-16)
(0.123546 3.44412e-08 1.48922e-17)
(0.123546 3.90358e-08 1.47939e-16)
(0.123546 4.3339e-08 1.90478e-16)
(0.123546 4.73123e-08 2.55508e-16)
(0.123546 5.09221e-08 2.78623e-16)
(0.123546 5.41421e-08 4.24316e-16)
(0.123546 5.6954e-08 4.96223e-16)
(0.123546 5.93471e-08 5.0301e-16)
(0.123546 6.13184e-08 5.13561e-16)
(0.123546 6.2872e-08 5.09845e-16)
(0.123546 6.40188e-08 6.49532e-16)
(0.123546 6.47764e-08 6.88577e-16)
(0.123546 6.51672e-08 8.17195e-16)
(0.123546 6.52171e-08 8.52015e-16)
(0.123546 6.49531e-08 8.22744e-16)
(0.123546 6.44006e-08 9.28716e-16)
(0.123546 6.35813e-08 9.34467e-16)
(0.123546 6.25122e-08 1.04345e-15)
(0.123546 6.12047e-08 1.06089e-15)
(0.123546 5.96648e-08 1.01949e-15)
(0.123546 5.78944e-08 1.11416e-15)
(0.123546 5.58914e-08 1.08884e-15)
(0.123546 5.36518e-08 1.15277e-15)
(0.123546 5.117e-08 1.14983e-15)
(0.123546 4.84397e-08 1.10505e-15)
(0.123546 4.54553e-08 1.1911e-15)
(0.123546 4.22117e-08 1.17887e-15)
(0.123546 3.87052e-08 1.25657e-15)
(0.123546 3.49338e-08 1.25563e-15)
(0.123546 3.08978e-08 1.19721e-15)
(0.123546 2.65998e-08 1.27585e-15)
(0.123546 2.20456e-08 1.24913e-15)
(0.123546 1.72443e-08 1.30291e-15)
(0.123546 1.2209e-08 1.27104e-15)
(0.123546 6.95687e-09 1.1885e-15)
(0.123546 1.51038e-09 1.25119e-15)
(0.123546 -4.10124e-09 1.23369e-15)
(0.123546 -9.84347e-09 1.3132e-15)
(0.123546 -1.56775e-08 1.31267e-15)
(0.123546 -2.15604e-08 1.26466e-15)
(0.123546 -2.74451e-08 1.21623e-15)
(0.123546 -3.32815e-08 1.17578e-15)
(0.123546 -3.9016e-08 1.13451e-15)
(0.123546 -4.4593e-08 1.10268e-15)
(0.123546 -4.99555e-08 1.07926e-15)
(0.123546 -5.50449e-08 1.06215e-15)
(0.123546 -5.98033e-08 1.04613e-15)
(0.123546 -6.41705e-08 1.02756e-15)
(0.123546 -6.80906e-08 1.0129e-15)
(0.123546 -7.14998e-08 9.99668e-16)
(0.123546 -7.43491e-08 9.98007e-16)
(0.123546 -7.65598e-08 9.98625e-16)
(0.123546 -7.81037e-08 9.86837e-16)
(0.123546 -7.88426e-08 9.78501e-16)
(0.123546 -7.88215e-08 9.75993e-16)
(0.123546 -7.76455e-08 9.79923e-16)
(0.123546 -7.57362e-08 9.80692e-16)
(0.123545 -7.08702e-08 9.74098e-16)
(0.123545 -6.73607e-08 9.73296e-16)
(0.123545 -4.3749e-08 9.65039e-16)
(0.123546 2.48252e-10 9.57374e-16)
(0.123546 2.40487e-08 9.55152e-16)
(0.123546 2.66891e-08 9.50623e-16)
(0.123546 2.47414e-08 9.52927e-16)
(0.123546 2.46476e-08 9.58248e-16)
(0.123546 2.68687e-08 9.70344e-16)
(0.123546 3.10137e-08 9.80563e-16)
(0.123546 3.65846e-08 9.79499e-16)
(0.123546 4.3477e-08 9.78562e-16)
(0.123546 5.11698e-08 9.80417e-16)
(0.123546 5.97822e-08 9.84768e-16)
(0.123546 6.81298e-08 9.84413e-16)
(0.123546 7.62049e-08 9.77994e-16)
(0.123546 8.16847e-08 9.8017e-16)
(0.123546 8.19589e-08 9.89344e-16)
(0.123546 7.6586e-08 9.94274e-16)
(0.123546 4.55754e-08 9.93596e-16)
(0.123546 1.28562e-08 9.91137e-16)
(0.123546 -1.05408e-07 9.72532e-16)
(0.122353 -1.97034e-07 1.08191e-15)
(0.122353 -1.06928e-07 6.75682e-16)
(0.122353 -4.34257e-08 7.65347e-16)
(0.122353 -1.37236e-08 9.2597e-16)
(0.122353 1.12049e-09 9.03988e-16)
(0.122353 3.097e-09 9.66907e-16)
(0.122353 -5.06544e-10 9.43342e-16)
(0.122353 -6.09279e-09 9.7075e-16)
(0.122353 -1.19276e-08 9.93904e-16)
(0.122353 -1.69687e-08 9.18946e-16)
(0.122353 -2.08004e-08 9.41585e-16)
(0.122353 -2.32868e-08 8.72784e-16)
(0.122353 -2.44709e-08 9.2012e-16)
(0.122353 -2.45062e-08 8.24393e-16)
(0.122353 -2.3663e-08 1.05001e-15)
(0.122353 -2.22159e-08 8.03058e-16)
(0.122353 -2.05379e-08 7.5239e-16)
(0.122353 -1.88907e-08 8.1035e-16)
(0.122353 -1.76174e-08 7.21534e-16)
(0.122353 -1.72123e-08 9.66361e-16)
(0.122353 -1.72118e-08 7.27141e-16)
(0.122353 -2.15075e-08 6.52647e-16)
(0.122353 -2.20896e-08 6.38557e-16)
(0.122353 -4.93015e-08 4.33424e-16)
(0.122353 -7.63324e-08 4.36701e-16)
(0.122353 -6.95222e-08 2.77945e-16)
(0.122353 -6.33289e-08 1.38608e-16)
(0.122353 -5.56349e-08 2.19434e-16)
(0.122353 -4.69015e-08 4.40298e-17)
(0.122352 -3.83513e-08 8.42547e-17)
(0.122352 -3.0191e-08 1.93202e-17)
(0.122352 -2.24849e-08 -1.30636e-16)
(0.122352 -1.5245e-08 -9.64809e-18)
(0.122352 -8.4521e-09 -1.32791e-16)
(0.122352 -2.06968e-09 -5.96998e-17)
(0.122352 3.95478e-09 -1.45034e-16)
(0.122352 9.68088e-09 -3.1003e-16)
(0.122352 1.51642e-08 -1.19759e-16)
(0.122352 2.04457e-08 -2.0587e-16)
(0.122352 2.55453e-08 -1.42297e-16)
(0.122352 3.04608e-08 -8.69009e-17)
(0.122352 3.51704e-08 1.05809e-16)
(0.122352 3.96399e-08 2.12702e-16)
(0.122352 4.38291e-08 2.6147e-16)
(0.122352 4.76989e-08 3.09611e-16)
(0.122352 5.12152e-08 3.22742e-16)
(0.122352 5.43512e-08 4.62377e-16)
(0.122352 5.70882e-08 5.25451e-16)
(0.122352 5.9415e-08 5.38294e-16)
(0.122352 6.13279e-08 5.4957e-16)
(0.122352 6.28301e-08 5.41444e-16)
(0.122352 6.39319e-08 6.74929e-16)
(0.122352 6.46502e-08 7.08652e-16)
(0.122352 6.50071e-08 8.35097e-16)
(0.122352 6.50283e-08 8.72588e-16)
(0.122352 6.47406e-08 8.49406e-16)
(0.122352 6.41695e-08 9.55806e-16)
(0.122352 6.33367e-08 9.57678e-16)
(0.122352 6.22594e-08 1.05925e-15)
(0.122352 6.09488e-08 1.08037e-15)
(0.122352 5.94112e-08 1.043e-15)
(0.122352 5.76485e-08 1.13305e-15)
(0.122352 5.5659e-08 1.10549e-15)
(0.122352 5.34386e-08 1.17118e-15)
(0.122352 5.0982e-08 1.16941e-15)
(0.122352 4.82832e-08 1.12739e-15)
(0.122352 4.53368e-08 1.21155e-15)
(0.122352 4.21378e-08 1.19133e-15)
(0.122352 3.8683e-08 1.26732e-15)
(0.122352 3.49704e-08 1.26724e-15)
(0.122352 3.10006e-08 1.21114e-15)
(0.122352 2.67766e-08 1.28449e-15)
(0.122352 2.23043e-08 1.24986e-15)
(0.122352 1.75931e-08 1.30306e-15)
(0.122352 1.26563e-08 1.28002e-15)
(0.122352 7.51118e-09 1.20353e-15)
(0.122352 2.18043e-09 1.2649e-15)
(0.122352 -3.30675e-09 1.23838e-15)
(0.122352 -8.91566e-09 1.3153e-15)
(0.122352 -1.46075e-08 1.31779e-15)
(0.122352 -2.03395e-08 1.27438e-15)
(0.122352 -2.60652e-08 1.22656e-15)
(0.122352 -3.17347e-08 1.17967e-15)
(0.122352 -3.72955e-08 1.12545e-15)
(0.122352 -4.26927e-08 1.08506e-15)
(0.122352 -4.78704e-08 1.05508e-15)
(0.122352 -5.27713e-08 1.03641e-15)
(0.122352 -5.7339e-08 1.0177e-15)
(0.122352 -6.15151e-08 9.90053e-16)
(0.122352 -6.52454e-08 9.71334e-16)
(0.122352 -6.84682e-08 9.5757e-16)
(0.122352 -7.11364e-08 9.60799e-16)
(0.122352 -7.31744e-08 9.61739e-16)
(0.122352 -7.45554e-08 9.44388e-16)
(0.122352 -7.51474e-08 9.36413e-16)
(0.122352 -7.49912e-08 9.33398e-16)
(0.122352 -7.37331e-08 9.4163e-16)
(0.122352 -7.16889e-08 9.46088e-16)
(0.122352 -6.73622e-08 9.35429e-16)
(0.122352 -6.23076e-08 9.32116e-16)
(0.122352 -6.06549e-08 9.23701e-16)
(0.122352 -3.49996e-08 9.21552e-16)
(0.122352 2.20701e-09 9.21151e-16)
(0.122352 1.66456e-08 9.12999e-16)
(0.122352 2.08098e-08 9.14082e-16)
(0.122352 2.34528e-08 9.17596e-16)
(0.122352 2.6914e-08 9.36246e-16)
(0.122352 3.16622e-08 9.51496e-16)
(0.122352 3.75177e-08 9.48417e-16)
(0.122352 4.44866e-08 9.47619e-16)
(0.122352 5.21143e-08 9.50009e-16)
(0.122352 6.05133e-08 9.53197e-16)
(0.122352 6.85631e-08 9.528e-16)
(0.122352 7.61356e-08 9.44496e-16)
(0.122352 8.11154e-08 9.46895e-16)
(0.122352 8.03365e-08 9.59302e-16)
(0.122352 7.42767e-08 9.68171e-16)
(0.122352 4.03481e-08 9.69409e-16)
(0.122352 6.31464e-09 9.65274e-16)
(0.122352 -1.19904e-07 9.48303e-16)
(0.121117 -2.15762e-07 9.98603e-16)
(0.121117 -1.15504e-07 7.66335e-16)
(0.121117 -4.96154e-08 8.43667e-16)
(0.121117 -1.84079e-08 9.83169e-16)
(0.121117 -2.86878e-09 8.84776e-16)
(0.121117 -5.94628e-10 9.55653e-16)
(0.121117 -3.95259e-09 8.64412e-16)
(0.121117 -9.30208e-09 8.91039e-16)
(0.121117 -1.48686e-08 9.34558e-16)
(0.121117 -1.96154e-08 8.22676e-16)
(0.121117 -2.31427e-08 8.48583e-16)
(0.121117 -2.53289e-08 8.46475e-16)
(0.121117 -2.62283e-08 8.76807e-16)
(0.121117 -2.60027e-08 8.30439e-16)
(0.121117 -2.49261e-08 9.2999e-16)
(0.121117 -2.32771e-08 8.45842e-16)
(0.121117 -2.14231e-08 7.8516e-16)
(0.121117 -1.96292e-08 8.01113e-16)
(0.121117 -1.82129e-08 7.5365e-16)
(0.121117 -1.76856e-08 8.60674e-16)
(0.121117 -1.7552e-08 7.57989e-16)
(0.121117 -2.14665e-08 7.07156e-16)
(0.121117 -2.27442e-08 6.78111e-16)
(0.121117 -4.03752e-08 5.589e-16)
(0.121117 -5.63789e-08 5.37332e-16)
(0.121117 -5.13257e-08 4.63477e-16)
(0.121117 -4.96174e-08 3.48327e-16)
(0.121117 -4.58089e-08 3.49697e-16)
(0.121117 -3.97346e-08 2.32939e-16)
(0.121117 -3.28999e-08 2.46557e-16)
(0.121117 -2.58843e-08 2.01818e-16)
(0.121116 -1.89917e-08 1.24595e-16)
(0.121116 -1.23631e-08 1.57534e-16)
(0.121116 -6.0507e-09 8.0915e-17)
(0.121116 -5.975e-11 1.22062e-16)
(0.121116 5.63674e-09 1.07469e-16)
(0.121116 1.10824e-08 -1.70665e-17)
(0.121116 1.63222e-08 6.37121e-17)
(0.121116 2.139e-08 1.08308e-17)
(0.121116 2.63007e-08 5.51514e-17)
(0.121116 3.10479e-08 7.00501e-17)
(0.121116 3.56071e-08 2.57235e-16)
(0.121116 3.99414e-08 3.01732e-16)
(0.121116 4.40091e-08 3.40409e-16)
(0.121116 4.777e-08 3.73507e-16)
(0.121116 5.1189e-08 3.76936e-16)
(0.121116 5.42389e-08 5.4435e-16)
(0.121116 5.69003e-08 5.66507e-16)
(0.121116 5.91612e-08 5.8058e-16)
(0.121116 6.10172e-08 5.89259e-16)
(0.121116 6.24708e-08 5.7725e-16)
(0.121116 6.35313e-08 7.39143e-16)
(0.121116 6.42152e-08 7.34784e-16)
(0.121116 6.4544e-08 8.87959e-16)
(0.121116 6.45434e-08 8.96502e-16)
(0.121116 6.424e-08 8.75424e-16)
(0.121116 6.36592e-08 1.01488e-15)
(0.121116 6.28228e-08 9.79238e-16)
(0.121116 6.17478e-08 1.10654e-15)
(0.121116 6.04456e-08 1.09786e-15)
(0.121116 5.89226e-08 1.06172e-15)
(0.121116 5.71806e-08 1.18541e-15)
(0.121116 5.5218e-08 1.12088e-15)
(0.121116 5.30309e-08 1.21553e-15)
(0.121116 5.0614e-08 1.18376e-15)
(0.121116 4.79617e-08 1.14226e-15)
(0.121116 4.50686e-08 1.25879e-15)
(0.121116 4.19299e-08 1.19918e-15)
(0.121116 3.85424e-08 1.30145e-15)
(0.121116 3.49046e-08 1.27191e-15)
(0.121116 3.1017e-08 1.21647e-15)
(0.121116 2.68829e-08 1.32036e-15)
(0.121116 2.25082e-08 1.24716e-15)
(0.121116 1.79027e-08 1.32937e-15)
(0.121116 1.30796e-08 1.28412e-15)
(0.121116 8.05657e-09 1.21066e-15)
(0.121116 2.85596e-09 1.30436e-15)
(0.121116 -2.49302e-09 1.23687e-15)
(0.121116 -7.95566e-09 1.34071e-15)
(0.121116 -1.34933e-08 1.31799e-15)
(0.121116 -1.90634e-08 1.27308e-15)
(0.121116 -2.46201e-08 1.22921e-15)
(0.121116 -3.01142e-08 1.17608e-15)
(0.121116 -3.54939e-08 1.10812e-15)
(0.121116 -4.07054e-08 1.06387e-15)
(0.121116 -4.56939e-08 1.02914e-15)
(0.121116 -5.04035e-08 1.01198e-15)
(0.121116 -5.47794e-08 9.88661e-16)
(0.121116 -5.87647e-08 9.49679e-16)
(0.121116 -6.23072e-08 9.2959e-16)
(0.121116 -6.53473e-08 9.15595e-16)
(0.121116 -6.78398e-08 9.273e-16)
(0.121116 -6.9712e-08 9.26627e-16)
(0.121116 -7.09385e-08 8.99596e-16)
(0.121116 -7.1394e-08 8.94871e-16)
(0.121116 -7.11141e-08 8.92382e-16)
(0.121116 -6.97883e-08 9.08285e-16)
(0.121116 -6.76266e-08 9.1388e-16)
(0.121116 -6.38138e-08 8.95176e-16)
(0.121116 -5.773e-08 8.92117e-16)
(0.121116 -6.52422e-08 8.83814e-16)
(0.121116 -5.28586e-08 8.90453e-16)
(0.121116 -1.49903e-08 8.89425e-16)
(0.121116 5.88214e-09 8.73905e-16)
(0.121116 1.53703e-08 8.76088e-16)
(0.121116 2.10463e-08 8.78131e-16)
(0.121116 2.60729e-08 9.0699e-16)
(0.121116 3.16366e-08 9.25212e-16)
(0.121116 3.79123e-08 9.15977e-16)
(0.121116 4.50508e-08 9.18733e-16)
(0.121116 5.26831e-08 9.22282e-16)
(0.121116 6.09241e-08 9.22963e-16)
(0.121116 6.87262e-08 9.20234e-16)
(0.121116 7.58478e-08 9.08127e-16)
(0.121116 8.0386e-08 9.14268e-16)
(0.121116 7.86443e-08 9.31773e-16)
(0.121116 7.20051e-08 9.42608e-16)
(0.121116 3.53474e-08 9.43702e-16)
(0.121116 3.87205e-10 9.3678e-16)
(0.121116 -1.3556e-07 9.26289e-16)
(0.119836 -2.34461e-07 9.28394e-16)
(0.119836 -1.22784e-07 8.75444e-16)
(0.119836 -5.44468e-08 9.3538e-16)
(0.119836 -2.20532e-08 9.4216e-16)
(0.119836 -6.12209e-09 8.23252e-16)
(0.119836 -3.72017e-09 9.45681e-16)
(0.119836 -6.91772e-09 7.25488e-16)
(0.119836 -1.20736e-08 8.20015e-16)
(0.119836 -1.73969e-08 8.76609e-16)
(0.119836 -2.18685e-08 6.64588e-16)
(0.119836 -2.51098e-08 7.68187e-16)
(0.119836 -2.7016e-08 8.16116e-16)
(0.119836 -2.76538e-08 8.38204e-16)
(0.119836 -2.71925e-08 8.385e-16)
(0.119836 -2.59091e-08 8.67084e-16)
(0.119836 -2.40855e-08 8.38541e-16)
(0.119836 -2.20827e-08 8.14424e-16)
(0.119836 -2.01682e-08 7.96358e-16)
(0.119836 -1.86353e-08 7.79072e-16)
(0.119836 -1.80059e-08 8.15908e-16)
(0.119836 -1.77654e-08 7.77169e-16)
(0.119836 -2.13126e-08 7.50475e-16)
(0.119836 -2.30172e-08 7.08435e-16)
(0.119836 -3.5666e-08 6.55841e-16)
(0.119836 -4.39896e-08 6.38126e-16)
(0.119836 -3.74409e-08 6.00993e-16)
(0.119836 -3.75624e-08 5.3596e-16)
(0.119836 -3.63983e-08 4.89251e-16)
(0.119836 -3.25856e-08 4.27453e-16)
(0.119836 -2.7398e-08 4.20033e-16)
(0.119836 -2.15522e-08 4.02152e-16)
(0.119836 -1.55178e-08 3.67283e-16)
(0.119836 -9.54566e-09 3.40721e-16)
(0.119836 -3.75514e-09 3.03607e-16)
(0.119836 1.80765e-09 3.18987e-16)
(0.119836 7.14426e-09 3.17611e-16)
(0.119836 1.22819e-08 2.66761e-16)
(0.119836 1.72546e-08 2.61827e-16)
(0.119836 2.20887e-08 2.40634e-16)
(0.119836 2.67935e-08 2.67925e-16)
(0.119836 3.13584e-08 2.45177e-16)
(0.119836 3.57555e-08 3.47671e-16)
(0.119836 3.99454e-08 3.97245e-16)
(0.119836 4.38846e-08 4.30612e-16)
(0.119836 4.75313e-08 4.45155e-16)
(0.119836 5.08495e-08 4.41182e-16)
(0.119836 5.38112e-08 5.56704e-16)
(0.119836 5.63961e-08 6.06406e-16)
(0.119836 5.85916e-08 6.29197e-16)
(0.119836 6.03922e-08 6.30512e-16)
(0.119836 6.17995e-08 6.17963e-16)
(0.119836 6.28223e-08 7.289e-16)
(0.119836 6.34763e-08 7.5663e-16)
(0.119836 6.37828e-08 8.6575e-16)
(0.119836 6.37669e-08 9.14806e-16)
(0.119836 6.34553e-08 9.04922e-16)
(0.119836 6.28732e-08 9.92933e-16)
(0.119836 6.20424e-08 9.88605e-16)
(0.119836 6.09799e-08 1.07203e-15)
(0.119836 5.96969e-08 1.10246e-15)
(0.119836 5.81999e-08 1.07932e-15)
(0.119836 5.64906e-08 1.15788e-15)
(0.119836 5.45675e-08 1.12394e-15)
(0.119836 5.24268e-08 1.17646e-15)
(0.119836 5.00633e-08 1.18193e-15)
(0.119836 4.74713e-08 1.15383e-15)
(0.119836 4.46456e-08 1.22012e-15)
(0.119836 4.15816e-08 1.19127e-15)
(0.119836 3.82762e-08 1.24757e-15)
(0.119836 3.47278e-08 1.26026e-15)
(0.119836 3.09372e-08 1.21748e-15)
(0.119836 2.69077e-08 1.271e-15)
(0.119836 2.26454e-08 1.22984e-15)
(0.119836 1.81599e-08 1.27022e-15)
(0.119836 1.34649e-08 1.27559e-15)
(0.119836 8.57769e-09 1.21419e-15)
(0.119836 3.52065e-09 1.25725e-15)
(0.119836 -1.67732e-09 1.21844e-15)
(0.119836 -6.98163e-09 1.27913e-15)
(0.119836 -1.23538e-08 1.30584e-15)
(0.119836 -1.77518e-08 1.26309e-15)
(0.119836 -2.31304e-08 1.22635e-15)
(0.119836 -2.84411e-08 1.16204e-15)
(0.119836 -3.36331e-08 1.07836e-15)
(0.119836 -3.86536e-08 1.03963e-15)
(0.119836 -4.34492e-08 1.00019e-15)
(0.119836 -4.79653e-08 9.89157e-16)
(0.119836 -5.21485e-08 9.57577e-16)
(0.119836 -5.5944e-08 9.03877e-16)
(0.119835 -5.93011e-08 8.87333e-16)
(0.119835 -6.21626e-08 8.7292e-16)
(0.119835 -6.4485e-08 8.99428e-16)
(0.119835 -6.61985e-08 8.92126e-16)
(0.119835 -6.72793e-08 8.50456e-16)
(0.119835 -6.76084e-08 8.54983e-16)
(0.119835 -6.72166e-08 8.52338e-16)
(0.119835 -6.58359e-08 8.80996e-16)
(0.119835 -6.35777e-08 8.83025e-16)
(0.119835 -6.02175e-08 8.51238e-16)
(0.119835 -5.35785e-08 8.53037e-16)
(0.119835 -6.47022e-08 8.44994e-16)
(0.119835 -6.12849e-08 8.68152e-16)
(0.119835 -2.72006e-08 8.60023e-16)
(0.119835 -3.77411e-09 8.31355e-16)
(0.119835 9.5136e-09 8.3921e-16)
(0.119835 1.79415e-08 8.39761e-16)
(0.119835 2.46015e-08 8.85618e-16)
(0.119835 3.10835e-08 9.0112e-16)
(0.119835 3.78595e-08 8.80279e-16)
(0.119835 4.52267e-08 8.93349e-16)
(0.119835 5.29103e-08 8.97486e-16)
(0.119835 6.10331e-08 8.92991e-16)
(0.119835 6.86257e-08 8.85695e-16)
(0.119835 7.53392e-08 8.67942e-16)
(0.119835 7.94863e-08 8.82882e-16)
(0.119835 7.68668e-08 9.07353e-16)
(0.119836 6.97491e-08 9.17552e-16)
(0.119835 3.0553e-08 9.15849e-16)
(0.119836 -4.94507e-09 9.04994e-16)
(0.119836 -1.51321e-07 9.06205e-16)
(0.118507 -2.52807e-07 8.62593e-16)
(0.118507 -1.29195e-07 8.5753e-16)
(0.118507 -5.81773e-08 9.23696e-16)
(0.118507 -2.472e-08 8.74327e-16)
(0.118507 -8.61453e-09 7.10167e-16)
(0.118507 -6.23482e-09 8.33321e-16)
(0.118507 -9.35668e-09 7.46791e-16)
(0.118507 -1.43647e-08 7.79778e-16)
(0.118507 -1.94728e-08 8.11096e-16)
(0.118507 -2.36919e-08 6.98677e-16)
(0.118507 -2.66701e-08 7.20485e-16)
(0.118507 -2.83216e-08 8.27792e-16)
(0.118507 -2.87253e-08 7.98344e-16)
(0.118507 -2.80578e-08 8.03246e-16)
(0.118507 -2.6598e-08 8.13855e-16)
(0.118507 -2.46298e-08 8.20427e-16)
(0.118507 -2.25077e-08 8.07952e-16)
(0.118507 -2.05001e-08 7.87534e-16)
(0.118507 -1.88782e-08 8.20291e-16)
(0.118507 -1.81683e-08 7.63953e-16)
(0.118507 -1.78445e-08 7.86843e-16)
(0.118507 -2.10594e-08 7.87703e-16)
(0.118507 -2.29666e-08 7.2792e-16)
(0.118507 -3.26736e-08 7.16769e-16)
(0.118507 -3.58834e-08 7.38297e-16)
(0.118507 -2.72678e-08 7.61016e-16)
(0.118507 -2.75779e-08 7.49276e-16)
(0.118507 -2.78733e-08 6.18413e-16)
(0.118507 -2.57719e-08 6.56486e-16)
(0.118507 -2.20353e-08 5.98224e-16)
(0.118507 -1.73088e-08 5.78864e-16)
(0.118507 -1.21336e-08 6.38006e-16)
(0.118507 -6.83646e-09 5.17812e-16)
(0.118507 -1.59176e-09 4.97695e-16)
(0.118507 3.51815e-09 5.2226e-16)
(0.118507 8.47127e-09 5.63531e-16)
(0.118507 1.32792e-08 5.51385e-16)
(0.118507 1.79654e-08 4.5591e-16)
(0.118507 2.25486e-08 4.51821e-16)
(0.118507 2.70325e-08 4.86427e-16)
(0.118507 3.14023e-08 4.24472e-16)
(0.118507 3.56265e-08 4.75486e-16)
(0.118507 3.96634e-08 5.06032e-16)
(0.118507 4.34671e-08 5.30236e-16)
(0.118507 4.69943e-08 5.20178e-16)
(0.118507 5.02081e-08 5.11738e-16)
(0.118507 5.30793e-08 6.05165e-16)
(0.118507 5.55867e-08 6.5668e-16)
(0.118507 5.77168e-08 6.83487e-16)
(0.118507 5.94632e-08 6.70296e-16)
(0.118507 6.08267e-08 6.60982e-16)
(0.118507 6.18151e-08 7.51149e-16)
(0.118507 6.24435e-08 7.84438e-16)
(0.118507 6.27329e-08 8.74907e-16)
(0.118507 6.2708e-08 9.4573e-16)
(0.118507 6.23953e-08 9.36026e-16)
(0.118507 6.18198e-08 9.95574e-16)
(0.118507 6.10033e-08 9.9567e-16)
(0.118507 5.99625e-08 1.06016e-15)
(0.118507 5.87088e-08 1.10569e-15)
(0.118507 5.72484e-08 1.09303e-15)
(0.118507 5.5583e-08 1.15695e-15)
(0.118507 5.37111e-08 1.12432e-15)
(0.118507 5.16288e-08 1.16069e-15)
(0.118507 4.93311e-08 1.17626e-15)
(0.118507 4.68123e-08 1.15973e-15)
(0.118507 4.40671e-08 1.20103e-15)
(0.118507 4.1091e-08 1.17711e-15)
(0.118507 3.7881e-08 1.21027e-15)
(0.118507 3.44356e-08 1.25074e-15)
(0.118507 3.07556e-08 1.21273e-15)
(0.118507 2.68442e-08 1.24105e-15)
(0.118507 2.27078e-08 1.20696e-15)
(0.118507 1.83559e-08 1.23336e-15)
(0.118507 1.3802e-08 1.27417e-15)
(0.118507 9.06354e-09 1.21217e-15)
(0.118507 4.16251e-09 1.2299e-15)
(0.118507 -8.72552e-10 1.19308e-15)
(0.118507 -6.00732e-09 1.23739e-15)
(0.118507 -1.12036e-08 1.30139e-15)
(0.118507 -1.642e-08 1.24364e-15)
(0.118507 -2.1612e-08 1.22458e-15)
(0.118507 -2.67321e-08 1.13389e-15)
(0.118507 -3.17303e-08 1.03188e-15)
(0.118507 -3.65552e-08 1.0186e-15)
(0.118507 -4.11546e-08 9.67775e-16)
(0.118507 -4.54754e-08 9.68003e-16)
(0.118507 -4.94659e-08 9.21486e-16)
(0.118507 -5.30728e-08 8.498e-16)
(0.118507 -5.62474e-08 8.45285e-16)
(0.118507 -5.89347e-08 8.29133e-16)
(0.118507 -6.10929e-08 8.82251e-16)
(0.118507 -6.26554e-08 8.54946e-16)
(0.118507 -6.35992e-08 7.94381e-16)
(0.118506 -6.38124e-08 8.22382e-16)
(0.118506 -6.33204e-08 8.12045e-16)
(0.118506 -6.18969e-08 8.59296e-16)
(0.118506 -5.95642e-08 8.50365e-16)
(0.118506 -5.65884e-08 8.00781e-16)
(0.118506 -4.97556e-08 8.14341e-16)
(0.118506 -6.20544e-08 8.06114e-16)
(0.118506 -6.43057e-08 8.6194e-16)
(0.118506 -3.4961e-08 8.31277e-16)
(0.118506 -1.14668e-08 7.8275e-16)
(0.118506 4.02892e-09 8.02827e-16)
(0.118506 1.46026e-08 8.02053e-16)
(0.118506 2.27508e-08 8.78937e-16)
(0.118506 3.01465e-08 8.76483e-16)
(0.118506 3.74482e-08 8.3837e-16)
(0.118506 4.5072e-08 8.71795e-16)
(0.118506 5.2834e-08 8.74976e-16)
(0.118506 6.08649e-08 8.61425e-16)
(0.118507 6.8277e-08 8.47677e-16)
(0.118507 7.46189e-08 8.23013e-16)
(0.118507 7.84198e-08 8.53958e-16)
(0.118507 7.50047e-08 8.86558e-16)
(0.118507 6.75035e-08 8.9205e-16)
(0.118507 2.59679e-08 8.84485e-16)
(0.118507 -9.71488e-09 8.69153e-16)
(0.118507 -1.6667e-07 8.91583e-16)
(0.117126 -2.70503e-07 8.51789e-16)
(0.117126 -1.34844e-07 8.4338e-16)
(0.117126 -6.09954e-08 8.88393e-16)
(0.117126 -2.65133e-08 8.42097e-16)
(0.117126 -1.03677e-08 7.46046e-16)
(0.117126 -8.1222e-09 7.38396e-16)
(0.117126 -1.1241e-08 7.07876e-16)
(0.117126 -1.61444e-08 7.50328e-16)
(0.117126 -2.10671e-08 7.67892e-16)
(0.117126 -2.50601e-08 6.70731e-16)
(0.117126 -2.78028e-08 6.90996e-16)
(0.117126 -2.92298e-08 7.33249e-16)
(0.117126 -2.94321e-08 7.56026e-16)
(0.117126 -2.85921e-08 7.74547e-16)
(0.117127 -2.69896e-08 6.95517e-16)
(0.117127 -2.49093e-08 8.15477e-16)
(0.117127 -2.26989e-08 8.04142e-16)
(0.117127 -2.0627e-08 7.61785e-16)
(0.117127 -1.89437e-08 7.46316e-16)
(0.117127 -1.81756e-08 6.1246e-16)
(0.117127 -1.77904e-08 7.34802e-16)
(0.117127 -2.07146e-08 7.67042e-16)
(0.117126 -2.26627e-08 7.32675e-16)
(0.117126 -3.05382e-08 8.05416e-16)
(0.117126 -3.05112e-08 7.7387e-16)
(0.117126 -2.00528e-08 7.96884e-16)
(0.117126 -1.96488e-08 8.82015e-16)
(0.117126 -2.0476e-08 7.22624e-16)
(0.117126 -1.95165e-08 7.36006e-16)
(0.117126 -1.69591e-08 7.13594e-16)
(0.117126 -1.32427e-08 7.43475e-16)
(0.117126 -8.89071e-09 8.28611e-16)
(0.117126 -4.26396e-09 6.7116e-16)
(0.117126 4.25979e-10 7.37417e-16)
(0.117126 5.06837e-09 6.63634e-16)
(0.117126 9.62137e-09 6.92945e-16)
(0.117126 1.40828e-08 7.42636e-16)