/*--------------------------------*- C++ -*----------------------------------*\
  =========                 |
  \\      /  F ield         | OpenFOAM: The Open Source CFD Toolbox
   \\    /   O peration     | Website:  https://openfoam.org
    \\  /    A nd           | Version:  7
     \\/     M anipulation  |
\*---------------------------------------------------------------------------*/
FoamFile
{
    version     2.0;
    format      ascii;
    class       surfaceScalarField;
    location    "18000";
    object      phi;
}
// * * * * * * * * * * * * * * * * * * * * * * * * * * * * * * * * * * * * * //

dimensions      [0 3 -1 0 0 0 0];

internalField   nonuniform List<scalar> 
47680
(
2.19929e-06
1.99104e-12
2.1993e-06
-4.72973e-12
2.1993e-06
-8.48133e-12
2.19931e-06
-7.13547e-12
2.19931e-06
-3.42844e-12
2.19931e-06
4.63283e-13
2.19931e-06
3.59751e-12
2.1993e-06
5.76734e-12
2.1993e-06
7.04828e-12
2.19929e-06
7.60978e-12
2.19928e-06
7.64705e-12
2.19928e-06
7.31523e-12
2.19927e-06
6.73291e-12
2.19926e-06
6.00616e-12
2.19926e-06
5.22099e-12
2.19925e-06
4.42118e-12
2.19925e-06
3.61253e-12
2.19925e-06
2.81686e-12
2.19924e-06
2.06569e-12
2.19924e-06
1.35035e-12
2.19924e-06
6.55741e-13
2.19924e-06
-6.58831e-15
2.19924e-06
-6.18549e-13
2.19924e-06
-1.16018e-12
2.19925e-06
-1.62661e-12
2.19925e-06
-2.03903e-12
2.19925e-06
-2.4237e-12
2.19925e-06
-2.79086e-12
2.19926e-06
-3.12194e-12
2.19926e-06
-3.39943e-12
2.19926e-06
-3.63529e-12
2.19927e-06
-3.85691e-12
2.19927e-06
-4.06545e-12
2.19928e-06
-4.24588e-12
2.19928e-06
-4.3683e-12
2.19928e-06
-4.4543e-12
2.19929e-06
-4.50736e-12
2.19929e-06
-4.57517e-12
2.1993e-06
-4.53171e-12
2.1993e-06
-4.47235e-12
2.19931e-06
-4.14517e-12
2.19931e-06
-3.83795e-12
2.19931e-06
-3.09029e-12
2.19932e-06
-2.18576e-12
2.19932e-06
-1.08953e-12
2.19932e-06
4.15752e-13
2.19932e-06
7.95084e-13
2.19931e-06
8.62807e-13
2.19931e-06
6.5507e-13
2.19931e-06
6.56327e-14
2.19931e-06
-3.01348e-13
2.19931e-06
-6.45839e-13
2.19932e-06
-9.48145e-13
2.19932e-06
-1.17543e-12
2.19932e-06
-1.33254e-12
2.19932e-06
-1.40273e-12
2.19932e-06
-1.37037e-12
2.19932e-06
-1.25731e-12
2.19932e-06
-1.08201e-12
2.19932e-06
-8.30521e-13
2.19932e-06
-4.94002e-13
2.19932e-06
-1.02781e-13
2.19932e-06
2.96621e-13
2.19932e-06
6.90838e-13
2.19932e-06
1.07518e-12
2.19932e-06
1.42346e-12
2.19932e-06
1.71454e-12
2.19932e-06
1.94062e-12
2.19932e-06
2.11254e-12
2.19931e-06
2.26596e-12
2.19931e-06
2.40508e-12
2.19931e-06
2.4856e-12
2.19931e-06
2.49476e-12
2.1993e-06
2.45945e-12
2.1993e-06
2.40164e-12
2.1993e-06
2.34221e-12
2.1993e-06
2.28031e-12
2.19929e-06
2.1882e-12
2.19929e-06
2.06172e-12
2.19929e-06
1.91592e-12
2.19929e-06
1.75387e-12
2.19929e-06
1.59241e-12
2.19929e-06
1.44554e-12
2.19928e-06
1.32759e-12
2.19928e-06
1.16896e-12
2.19928e-06
9.77797e-13
2.19928e-06
6.72572e-13
2.19928e-06
4.07703e-13
2.19928e-06
2.5293e-13
2.19928e-06
1.44187e-13
2.19928e-06
1.36475e-13
2.19928e-06
8.86662e-14
2.19928e-06
2.11366e-14
2.19928e-06
-4.13204e-14
2.19928e-06
-1.40135e-13
2.19928e-06
-2.52267e-13
2.19928e-06
-4.11388e-13
2.19928e-06
-5.25973e-13
2.19928e-06
-6.94391e-13
2.19928e-06
-6.42176e-13
2.19928e-06
-6.68887e-13
2.19928e-06
-3.06667e-13
2.19928e-06
1.05452e-13
2.19928e-06
7.36236e-13
2.19928e-06
1.62742e-12
2.19928e-06
1.66928e-12
2.19928e-06
1.44286e-12
2.19928e-06
8.90189e-13
2.19928e-06
1.81278e-13
2.19928e-06
-5.28303e-13
2.19928e-06
-1.1865e-12
2.19928e-06
-1.71643e-12
2.19928e-06
-2.15108e-12
2.19929e-06
-2.40389e-12
2.19929e-06
-2.55312e-12
2.19929e-06
-2.5224e-12
2.19929e-06
-1.95064e-12
2.19929e-06
-2.03525e-12
2.1993e-06
-1.25397e-12
2.63819e-12
6.7953e-06
2.54645e-12
6.79532e-06
-2.07716e-11
6.79534e-06
-3.23873e-11
6.79536e-06
-2.59772e-11
6.79537e-06
-1.12501e-11
6.79537e-06
3.83229e-12
6.79535e-06
1.5856e-11
6.79533e-06
2.41079e-11
6.79531e-06
2.89176e-11
6.79529e-06
3.0951e-11
6.79527e-06
3.09522e-11
6.79524e-06
2.95218e-11
6.79522e-06
2.71228e-11
6.79521e-06
2.41585e-11
6.79519e-06
2.09611e-11
6.79518e-06
1.77097e-11
6.79517e-06
1.44433e-11
6.79516e-06
1.12386e-11
6.79515e-06
8.20241e-12
6.79515e-06
5.31608e-12
6.79515e-06
2.53406e-12
6.79515e-06
-1.11757e-13
6.79515e-06
-2.5564e-12
6.79515e-06
-4.72612e-12
6.79516e-06
-6.60527e-12
6.79516e-06
-8.26698e-12
6.79517e-06
-9.80637e-12
6.79518e-06
-1.12623e-11
6.79519e-06
-1.25781e-11
6.7952e-06
-1.36913e-11
6.79521e-06
-1.46392e-11
6.79522e-06
-1.55119e-11
6.79523e-06
-1.63265e-11
6.79525e-06
-1.7027e-11
6.79526e-06
-1.75217e-11
6.79527e-06
-1.78621e-11
6.79529e-06
-1.80948e-11
6.7953e-06
-1.83303e-11
6.79531e-06
-1.82275e-11
6.79533e-06
-1.79692e-11
6.79534e-06
-1.68663e-11
6.79535e-06
-1.56596e-11
6.79536e-06
-1.29924e-11
6.79537e-06
-9.66626e-12
6.79537e-06
-5.50916e-12
6.79537e-06
-1.14624e-13
6.79537e-06
1.81275e-12
6.79537e-06
2.33002e-12
6.79537e-06
1.74831e-12
6.79537e-06
-1.57331e-13
6.79537e-06
-1.524e-12
6.79537e-06
-2.757e-12
6.79538e-06
-3.83999e-12
6.79538e-06
-4.65452e-12
6.79538e-06
-5.19641e-12
6.79539e-06
-5.40235e-12
6.79539e-06
-5.21604e-12
6.79539e-06
-4.70546e-12
6.7954e-06
-3.94123e-12
6.7954e-06
-2.88793e-12
6.7954e-06
-1.51989e-12
6.7954e-06
5.16811e-14
6.7954e-06
1.65912e-12
6.7954e-06
3.23679e-12
6.79539e-06
4.75795e-12
6.79539e-06
6.13285e-12
6.79538e-06
7.28391e-12
6.79538e-06
8.18138e-12
6.79537e-06
8.86413e-12
6.79536e-06
9.45597e-12
6.79536e-06
9.97406e-12
6.79535e-06
1.02764e-11
6.79534e-06
1.03131e-11
6.79533e-06
1.01692e-11
6.79532e-06
9.9302e-12
6.79532e-06
9.67507e-12
6.79531e-06
9.40601e-12
6.7953e-06
9.03186e-12
6.7953e-06
8.53152e-12
6.79529e-06
7.95104e-12
6.79528e-06
7.31465e-12
6.79528e-06
6.67558e-12
6.79528e-06
6.09213e-12
6.79527e-06
5.59872e-12
6.79527e-06
4.98229e-12
6.79526e-06
4.22105e-12
6.79526e-06
3.07557e-12
6.79526e-06
2.03598e-12
6.79526e-06
1.37081e-12
6.79526e-06
9.24869e-13
6.79526e-06
8.2662e-13
6.79526e-06
6.39168e-13
6.79526e-06
3.80565e-13
6.79526e-06
1.14537e-13
6.79526e-06
-2.75752e-13
6.79526e-06
-7.57691e-13
6.79526e-06
-1.39339e-12
6.79526e-06
-1.94933e-12
6.79526e-06
-2.62015e-12
6.79526e-06
-2.65019e-12
6.79527e-06
-2.79302e-12
6.79527e-06
-1.69786e-12
6.79527e-06
-2.85748e-13
6.79527e-06
1.96861e-12
6.79526e-06
5.03492e-12
6.79526e-06
5.48558e-12
6.79526e-06
4.74364e-12
6.79525e-06
2.82993e-12
6.79525e-06
2.79965e-13
6.79526e-06
-2.34619e-12
6.79526e-06
-4.79947e-12
6.79526e-06
-6.81701e-12
6.79527e-06
-8.45516e-12
6.79528e-06
-9.45629e-12
6.79528e-06
-1.00561e-11
6.79529e-06
-9.95609e-12
6.7953e-06
-8.01316e-12
6.7953e-06
-8.30178e-12
6.79531e-06
-4.62701e-12
7.62189e-12
1.17011e-05
-4.25827e-12
1.17011e-05
-5.11961e-11
1.17012e-05
-7.05087e-11
1.17012e-05
-5.3484e-11
1.17012e-05
-2.03063e-11
1.17012e-05
1.2757e-11
1.17012e-05
3.88181e-11
1.17011e-05
5.65422e-11
1.17011e-05
6.67288e-11
1.17011e-05
7.0858e-11
1.1701e-05
7.05405e-11
1.1701e-05
6.70899e-11
1.1701e-05
6.15232e-11
1.17009e-05
5.47153e-11
1.17009e-05
4.73879e-11
1.17009e-05
3.9952e-11
1.17009e-05
3.25187e-11
1.17008e-05
2.52421e-11
1.17008e-05
1.83339e-11
1.17008e-05
1.17762e-11
1.17008e-05
5.48801e-12
1.17008e-05
-4.77171e-13
1.17008e-05
-5.9855e-12
1.17008e-05
-1.08853e-11
1.17008e-05
-1.51442e-11
1.17009e-05
-1.89143e-11
1.17009e-05
-2.23893e-11
1.17009e-05
-2.56541e-11
1.17009e-05
-2.86062e-11
1.17009e-05
-3.11221e-11
1.17009e-05
-3.32643e-11
1.17009e-05
-3.52111e-11
1.1701e-05
-3.70112e-11
1.1701e-05
-3.85537e-11
1.1701e-05
-3.96697e-11
1.1701e-05
-4.04386e-11
1.17011e-05
-4.09846e-11
1.17011e-05
-4.14774e-11
1.17011e-05
-4.13308e-11
1.17011e-05
-4.07582e-11
1.17011e-05
-3.85646e-11
1.17012e-05
-3.59434e-11
1.17012e-05
-3.04445e-11
1.17012e-05
-2.34413e-11
1.17012e-05
-1.45504e-11
1.17012e-05
-3.32089e-12
1.17012e-05
1.5302e-12
1.17012e-05
3.16549e-12
1.17012e-05
2.32488e-12
1.17012e-05
-1.23754e-12
1.17012e-05
-4.05656e-12
1.17012e-05
-6.58016e-12
1.17012e-05
-8.78689e-12
1.17012e-05
-1.044e-11
1.17012e-05
-1.14959e-11
1.17012e-05
-1.18143e-11
1.17012e-05
-1.1273e-11
1.17013e-05
-1.00031e-11
1.17013e-05
-8.15526e-12
1.17013e-05
-5.6811e-12
1.17013e-05
-2.54321e-12
1.17013e-05
1.02605e-12
1.17013e-05
4.67132e-12
1.17013e-05
8.23273e-12
1.17012e-05
1.16368e-11
1.17012e-05
1.47033e-11
1.17012e-05
1.72709e-11
1.17012e-05
1.92774e-11
1.17012e-05
2.08036e-11
1.17012e-05
2.20963e-11
1.17012e-05
2.31978e-11
1.17012e-05
2.38379e-11
1.17012e-05
2.39108e-11
1.17011e-05
2.3578e-11
1.17011e-05
2.30221e-11
1.17011e-05
2.24138e-11
1.17011e-05
2.17686e-11
1.17011e-05
2.09096e-11
1.17011e-05
1.97834e-11
1.17011e-05
1.84801e-11
1.17011e-05
1.7061e-11
1.1701e-05
1.56324e-11
1.1701e-05
1.43199e-11
1.1701e-05
1.31755e-11
1.1701e-05
1.1804e-11
1.1701e-05
1.00993e-11
1.1701e-05
7.62784e-12
1.1701e-05
5.321e-12
1.1701e-05
3.7597e-12
1.1701e-05
2.72156e-12
1.1701e-05
2.39973e-12
1.1701e-05
1.97163e-12
1.1701e-05
1.40097e-12
1.1701e-05
7.78614e-13
1.1701e-05
-1.09908e-13
1.1701e-05
-1.24897e-12
1.1701e-05
-2.71129e-12
1.1701e-05
-4.10951e-12
1.1701e-05
-5.67936e-12
1.1701e-05
-6.10365e-12
1.1701e-05
-6.57086e-12
1.1701e-05
-4.6667e-12
1.1701e-05
-1.92254e-12
1.1701e-05
2.64165e-12
1.1701e-05
8.78605e-12
1.1701e-05
1.01271e-11
1.1701e-05
8.78204e-12
1.1701e-05
4.96652e-12
1.1701e-05
-2.7365e-13
1.1701e-05
-5.79781e-12
1.1701e-05
-1.10041e-11
1.1701e-05
-1.53441e-11
1.1701e-05
-1.88586e-11
1.1701e-05
-2.10771e-11
1.17011e-05
-2.24226e-11
1.17011e-05
-2.2255e-11
1.17011e-05
-1.84183e-11
1.17011e-05
-1.89583e-11
1.17011e-05
-9.89935e-12
1.21028e-11
1.69068e-05
-2.52857e-11
1.69068e-05
-9.93289e-11
1.69069e-05
-1.20597e-10
1.69069e-05
-8.5167e-11
1.69069e-05
-2.63347e-11
1.69069e-05
3.04596e-11
1.69068e-05
7.46505e-11
1.69068e-05
1.04394e-10
1.69067e-05
1.21202e-10
1.69067e-05
1.27648e-10
1.69066e-05
1.26472e-10
1.69066e-05
1.19921e-10
1.69065e-05
1.09743e-10
1.69065e-05
9.74319e-11
1.69064e-05
8.42233e-11
1.69064e-05
7.08504e-11
1.69064e-05
5.75373e-11
1.69064e-05
4.4531e-11
1.69064e-05
3.2165e-11
1.69063e-05
2.04415e-11
1.69063e-05
9.24567e-12
1.69063e-05
-1.34405e-12
1.69063e-05
-1.11164e-11
1.69064e-05
-1.98226e-11
1.69064e-05
-2.74165e-11
1.69064e-05
-3.4149e-11
1.69064e-05
-4.03316e-11
1.69064e-05
-4.61043e-11
1.69064e-05
-5.13248e-11
1.69065e-05
-5.57977e-11
1.69065e-05
-5.96083e-11
1.69065e-05
-6.30355e-11
1.69066e-05
-6.61724e-11
1.69066e-05
-6.8855e-11
1.69066e-05
-7.08269e-11
1.69066e-05
-7.21992e-11
1.69067e-05
-7.31924e-11
1.69067e-05
-7.40337e-11
1.69067e-05
-7.38708e-11
1.69068e-05
-7.29112e-11
1.69068e-05
-6.94096e-11
1.69068e-05
-6.49776e-11
1.69069e-05
-5.59689e-11
1.69069e-05
-4.43103e-11
1.69069e-05
-2.93696e-11
1.69069e-05
-1.07509e-11
1.69069e-05
-1.59983e-12
1.69069e-05
2.06209e-12
1.69069e-05
1.36547e-12
1.69069e-05
-3.84438e-12
1.69069e-05
-8.31881e-12
1.69069e-05
-1.23653e-11
1.69069e-05
-1.58807e-11
1.69069e-05
-1.84888e-11
1.69069e-05
-2.00677e-11
1.6907e-05
-2.0366e-11
1.6907e-05
-1.91752e-11
1.6907e-05
-1.66982e-11
1.6907e-05
-1.31925e-11
1.6907e-05
-8.61503e-12
1.6907e-05
-2.93209e-12
1.6907e-05
3.46348e-12
1.6907e-05
9.97241e-12
1.6907e-05
1.62991e-11
1.69069e-05
2.2301e-11
1.69069e-05
2.76823e-11
1.69069e-05
3.21854e-11
1.69069e-05
3.57094e-11
1.69069e-05
3.83884e-11
1.69069e-05
4.0613e-11
1.69068e-05
4.24578e-11
1.69068e-05
4.35129e-11
1.69068e-05
4.36109e-11
1.69068e-05
4.29994e-11
1.69068e-05
4.19808e-11
1.69068e-05
4.08468e-11
1.69067e-05
3.96378e-11
1.69067e-05
3.80784e-11
1.69067e-05
3.60741e-11
1.69067e-05
3.37652e-11
1.69067e-05
3.12678e-11
1.69067e-05
2.8753e-11
1.69066e-05
2.64245e-11
1.69066e-05
2.43505e-11
1.69066e-05
2.1924e-11
1.69066e-05
1.89151e-11
1.69066e-05
1.46762e-11
1.69066e-05
1.0646e-11
1.69066e-05
7.80251e-12
1.69066e-05
5.90191e-12
1.69066e-05
5.19053e-12
1.69066e-05
4.40441e-12
1.69066e-05
3.39857e-12
1.69066e-05
2.255e-12
1.69066e-05
6.41111e-13
1.69066e-05
-1.46969e-12
1.69066e-05
-4.15393e-12
1.69066e-05
-6.84997e-12
1.69066e-05
-9.79868e-12
1.69066e-05
-1.10632e-11
1.69066e-05
-1.22173e-11
1.69066e-05
-9.67435e-12
1.69066e-05
-5.53333e-12
1.69066e-05
1.69931e-12
1.69066e-05
1.14874e-11
1.69066e-05
1.41683e-11
1.69066e-05
1.23194e-11
1.69066e-05
6.32955e-12
1.69066e-05
-2.14531e-12
1.69066e-05
-1.12764e-11
1.69066e-05
-1.99703e-11
1.69066e-05
-2.72959e-11
1.69066e-05
-3.32307e-11
1.69067e-05
-3.70753e-11
1.69067e-05
-3.9436e-11
1.69067e-05
-3.92382e-11
1.69067e-05
-3.32072e-11
1.69067e-05
-3.40426e-11
1.69067e-05
-1.66602e-11
1.30125e-11
2.23332e-05
-6.71523e-11
2.23332e-05
-1.65142e-10
2.23333e-05
-1.77138e-10
2.23333e-05
-1.1473e-10
2.23333e-05
-2.47335e-11
2.23333e-05
5.94232e-11
2.23332e-05
1.24106e-10
2.23332e-05
1.67216e-10
2.23331e-05
1.91148e-10
2.2333e-05
1.99741e-10
2.2333e-05
1.97018e-10
2.23329e-05
1.86291e-10
2.23328e-05
1.70159e-10
2.23328e-05
1.50841e-10
2.23327e-05
1.3018e-10
2.23327e-05
1.09302e-10
2.23327e-05
8.85776e-11
2.23326e-05
6.83581e-11
2.23326e-05
4.9108e-11
2.23326e-05
3.08699e-11
2.23326e-05
1.35121e-11
2.23326e-05
-2.8645e-12
2.23326e-05
-1.79662e-11
2.23326e-05
-3.14412e-11
2.23326e-05
-4.32389e-11
2.23327e-05
-5.37241e-11
2.23327e-05
-6.33256e-11
2.23327e-05
-7.2244e-11
2.23327e-05
-8.03074e-11
2.23328e-05
-8.72474e-11
2.23328e-05
-9.31636e-11
2.23328e-05
-9.84417e-11
2.23329e-05
-1.03231e-10
2.23329e-05
-1.07318e-10
2.2333e-05
-1.10361e-10
2.2333e-05
-1.12511e-10
2.2333e-05
-1.14091e-10
2.23331e-05
-1.15379e-10
2.23331e-05
-1.15244e-10
2.23332e-05
-1.13872e-10
2.23332e-05
-1.08952e-10
2.23332e-05
-1.02451e-10
2.23333e-05
-8.9496e-11
2.23333e-05
-7.25178e-11
2.23333e-05
-5.06103e-11
2.23333e-05
-2.34819e-11
2.23333e-05
-8.79639e-12
2.23334e-05
-2.0786e-12
2.23334e-05
-1.99192e-12
2.23334e-05
-8.53042e-12
2.23334e-05
-1.45951e-11
2.23334e-05
-2.01954e-11
2.23334e-05
-2.50322e-11
2.23334e-05
-2.85682e-11
2.23334e-05
-3.05586e-11
2.23334e-05
-3.06039e-11
2.23334e-05
-2.83937e-11
2.23334e-05
-2.42129e-11
2.23334e-05
-1.84473e-11
2.23334e-05
-1.108e-11
2.23334e-05
-2.10706e-12
2.23334e-05
7.88017e-12
2.23334e-05
1.79965e-11
2.23334e-05
2.77791e-11
2.23334e-05
3.69934e-11
2.23334e-05
4.52166e-11
2.23334e-05
5.20883e-11
2.23333e-05
5.74737e-11
2.23333e-05
6.1568e-11
2.23333e-05
6.49115e-11
2.23333e-05
6.76089e-11
2.23332e-05
6.91159e-11
2.23332e-05
6.92122e-11
2.23332e-05
6.82341e-11
2.23332e-05
6.6616e-11
2.23331e-05
6.47924e-11
2.23331e-05
6.28376e-11
2.23331e-05
6.03718e-11
2.23331e-05
5.72562e-11
2.23331e-05
5.36908e-11
2.2333e-05
4.98592e-11
2.2333e-05
4.60019e-11
2.2333e-05
4.2401e-11
2.2333e-05
3.91364e-11
2.2333e-05
3.53726e-11
2.2333e-05
3.07259e-11
2.2333e-05
2.43415e-11
2.23329e-05
1.8202e-11
2.23329e-05
1.37351e-11
2.23329e-05
1.07157e-11
2.23329e-05
9.43526e-12
2.23329e-05
8.16133e-12
2.23329e-05
6.59094e-12
2.23329e-05
4.75134e-12
2.23329e-05
2.16473e-12
2.23329e-05
-1.25279e-12
2.23329e-05
-5.57744e-12
2.23329e-05
-1.00557e-11
2.23329e-05
-1.49069e-11
2.23329e-05
-1.75452e-11
2.23329e-05
-1.98588e-11
2.2333e-05
-1.70365e-11
2.2333e-05
-1.16633e-11
2.2333e-05
-1.69472e-12
2.2333e-05
1.19902e-11
2.2333e-05
1.63727e-11
2.2333e-05
1.42625e-11
2.2333e-05
6.09698e-12
2.2333e-05
-5.83158e-12
2.2333e-05
-1.8961e-11
2.2333e-05
-3.16022e-11
2.2333e-05
-4.23555e-11
2.2333e-05
-5.10964e-11
2.2333e-05
-5.6891e-11
2.23331e-05
-6.05059e-11
2.23331e-05
-6.03466e-11
2.23331e-05
-5.20125e-11
2.23331e-05
-5.32659e-11
2.23331e-05
-2.4152e-11
6.36177e-12
2.7797e-05
-1.31661e-10
2.77971e-05
-2.41081e-10
2.77971e-05
-2.30812e-10
2.77972e-05
-1.35495e-10
2.77971e-05
-1.26293e-11
2.77971e-05
9.92478e-11
2.7797e-05
1.84504e-10
2.7797e-05
2.40966e-10
2.77969e-05
2.71875e-10
2.77968e-05
2.82299e-10
2.77967e-05
2.77518e-10
2.77966e-05
2.61915e-10
2.77966e-05
2.38975e-10
2.77965e-05
2.11688e-10
2.77965e-05
1.82553e-10
2.77964e-05
1.5313e-10
2.77964e-05
1.23958e-10
2.77964e-05
9.54938e-11
2.77963e-05
6.83425e-11
2.77963e-05
4.26139e-11
2.77963e-05
1.81815e-11
2.77963e-05
-4.82879e-12
2.77963e-05
-2.60431e-11
2.77963e-05
-4.50097e-11
2.77964e-05
-6.16918e-11
2.77964e-05
-7.65704e-11
2.77964e-05
-9.01718e-11
2.77964e-05
-1.02754e-10
2.77965e-05
-1.1413e-10
2.77965e-05
-1.23962e-10
2.77966e-05
-1.32354e-10
2.77966e-05
-1.39802e-10
2.77966e-05
-1.46519e-10
2.77967e-05
-1.52241e-10
2.77967e-05
-1.56557e-10
2.77968e-05
-1.59669e-10
2.77968e-05
-1.61995e-10
2.77969e-05
-1.63848e-10
2.77969e-05
-1.63822e-10
2.7797e-05
-1.62082e-10
2.7797e-05
-1.55755e-10
2.77971e-05
-1.47094e-10
2.77971e-05
-1.30018e-10
2.77971e-05
-1.0741e-10
2.77972e-05
-7.80622e-11
2.77972e-05
-4.17668e-11
2.77972e-05
-2.0572e-11
2.77972e-05
-9.80008e-12
2.77972e-05
-8.15236e-12
2.77972e-05
-1.54663e-11
2.77972e-05
-2.28167e-11
2.77972e-05
-2.97957e-11
2.77972e-05
-3.58087e-11
2.77973e-05
-4.01214e-11
2.77973e-05
-4.23229e-11
2.77973e-05
-4.18294e-11
2.77973e-05
-3.8225e-11
2.77973e-05
-3.18873e-11
2.77973e-05
-2.33449e-11
2.77973e-05
-1.26249e-11
2.77973e-05
2.20041e-13
2.77973e-05
1.43659e-11
2.77973e-05
2.86188e-11
2.77973e-05
4.23383e-11
2.77973e-05
5.5184e-11
2.77972e-05
6.66012e-11
2.77972e-05
7.61356e-11
2.77972e-05
8.36255e-11
2.77972e-05
8.93287e-11
2.77971e-05
9.39258e-11
2.77971e-05
9.75418e-11
2.77971e-05
9.95126e-11
2.7797e-05
9.95869e-11
2.7797e-05
9.81886e-11
2.7797e-05
9.58833e-11
2.77969e-05
9.32591e-11
2.77969e-05
9.0426e-11
2.77969e-05
8.68986e-11
2.77969e-05
8.25003e-11
2.77968e-05
7.75055e-11
2.77968e-05
7.21685e-11
2.77968e-05
6.67927e-11
2.77968e-05
6.17297e-11
2.77968e-05
5.70655e-11
2.77967e-05
5.17305e-11
2.77967e-05
4.51774e-11
2.77967e-05
3.63732e-11
2.77967e-05
2.78576e-11
2.77967e-05
2.15189e-11
2.77967e-05
1.71748e-11
2.77967e-05
1.51566e-11
2.77967e-05
1.3258e-11
2.77967e-05
1.09848e-11
2.77967e-05
8.26506e-12
2.77967e-05
4.45057e-12
2.77967e-05
-6.01287e-13
2.77967e-05
-6.96024e-12
2.77967e-05
-1.36727e-11
2.77967e-05
-2.09211e-11
2.77967e-05
-2.54633e-11
2.77967e-05
-2.94273e-11
2.77967e-05
-2.67696e-11
2.77967e-05
-2.04703e-11
2.77967e-05
-7.90808e-12
2.77967e-05
9.69544e-12
2.77967e-05
1.60619e-11
2.77967e-05
1.40482e-11
2.77967e-05
3.97167e-12
2.77967e-05
-1.12996e-11
2.77967e-05
-2.84797e-11
2.77968e-05
-4.52198e-11
2.77968e-05
-5.95982e-11
2.77968e-05
-7.13629e-11
2.77968e-05
-7.93495e-11
2.77968e-05
-8.44366e-11
2.77969e-05
-8.44273e-11
2.77969e-05
-7.38849e-11
2.77969e-05
-7.56981e-11
2.77969e-05
-3.17473e-11
-1.20961e-11
3.30735e-05
-2.10844e-10
3.30736e-05
-3.14841e-10
3.30737e-05
-2.73268e-10
3.30737e-05
-1.43834e-10
3.30736e-05
9.54724e-12
3.30736e-05
1.46386e-10
3.30735e-05
2.50226e-10
3.30735e-05
3.18892e-10
3.30734e-05
3.56227e-10
3.30733e-05
3.68282e-10
3.30732e-05
3.61385e-10
3.30731e-05
3.40853e-10
3.30731e-05
3.11008e-10
3.3073e-05
2.75595e-10
3.30729e-05
2.37768e-10
3.30729e-05
1.99521e-10
3.30728e-05
1.61565e-10
3.30728e-05
1.24466e-10
3.30728e-05
8.89753e-11
3.30728e-05
5.53021e-11
3.30728e-05
2.33522e-11
3.30728e-05
-6.7187e-12
3.30728e-05
-3.44559e-11
3.30728e-05
-5.93218e-11
3.30728e-05
-8.13162e-11
3.30729e-05
-1.01025e-10
3.30729e-05
-1.19029e-10
3.30729e-05
-1.35636e-10
3.30729e-05
-1.50664e-10
3.3073e-05
-1.63699e-10
3.3073e-05
-1.74853e-10
3.30731e-05
-1.84739e-10
3.30731e-05
-1.93624e-10
3.30732e-05
-2.01188e-10
3.30732e-05
-2.0697e-10
3.30733e-05
-2.11246e-10
3.30733e-05
-2.14508e-10
3.30734e-05
-2.17078e-10
3.30734e-05
-2.17289e-10
3.30735e-05
-2.15306e-10
3.30735e-05
-2.07707e-10
3.30736e-05
-1.96959e-10
3.30736e-05
-1.75832e-10
3.30737e-05
-1.4762e-10
3.30737e-05
-1.10768e-10
3.30737e-05
-6.50735e-11
3.30737e-05
-3.67166e-11
3.30738e-05
-2.10609e-11
3.30738e-05
-1.70677e-11
3.30738e-05
-2.448e-11
3.30738e-05
-3.26339e-11
3.30738e-05
-4.06425e-11
3.30738e-05
-4.75513e-11
3.30738e-05
-5.23952e-11
3.30738e-05
-5.45491e-11
3.30738e-05
-5.32195e-11
3.30739e-05
-4.78939e-11
3.30739e-05
-3.90613e-11
3.30739e-05
-2.73974e-11
3.30739e-05
-1.29822e-11
3.30739e-05
4.05057e-12
3.30739e-05
2.26225e-11
3.30738e-05
4.12371e-11
3.30738e-05
5.90891e-11
3.30738e-05
7.57291e-11
3.30738e-05
9.04738e-11
3.30738e-05
1.02797e-10
3.30737e-05
1.12516e-10
3.30737e-05
1.1994e-10
3.30737e-05
1.25868e-10
3.30736e-05
1.30431e-10
3.30736e-05
1.3287e-10
3.30736e-05
1.32932e-10
3.30735e-05
1.3112e-10
3.30735e-05
1.28118e-10
3.30735e-05
1.24666e-10
3.30734e-05
1.20902e-10
3.30734e-05
1.16236e-10
3.30734e-05
1.1048e-10
3.30734e-05
1.03994e-10
3.30733e-05
9.70947e-11
3.30733e-05
9.01278e-11
3.30733e-05
8.34993e-11
3.30733e-05
7.73016e-11
3.30732e-05
7.02351e-11
3.30732e-05
6.16032e-11
3.30732e-05
5.02375e-11
3.30732e-05
3.92239e-11
3.30732e-05
3.08841e-11
3.30732e-05
2.5078e-11
3.30732e-05
2.21775e-11
3.30732e-05
1.95182e-11
3.30732e-05
1.63939e-11
3.30732e-05
1.25998e-11
3.30732e-05
7.30588e-12
3.30732e-05
3.21857e-13
3.30732e-05
-8.40261e-12
3.30732e-05
-1.77212e-11
3.30732e-05
-2.77724e-11
3.30732e-05
-3.46657e-11
3.30732e-05
-4.07015e-11
3.30732e-05
-3.86316e-11
3.30732e-05
-3.17478e-11
3.30732e-05
-1.6839e-11
3.30732e-05
4.57825e-12
3.30732e-05
1.31611e-11
3.30732e-05
1.16797e-11
3.30732e-05
1.66358e-13
3.30732e-05
-1.80605e-11
3.30733e-05
-3.90385e-11
3.30733e-05
-5.97384e-11
3.30733e-05
-7.77062e-11
3.30733e-05
-9.2558e-11
3.30733e-05
-1.029e-10
3.30734e-05
-1.09659e-10
3.30734e-05
-1.09951e-10
3.30734e-05
-9.75053e-11
3.30734e-05
-9.98351e-11
3.30734e-05
-3.96777e-11
-4.24474e-11
3.80178e-05
-2.89305e-10
3.80179e-05
-3.76477e-10
3.80179e-05
-3.01476e-10
3.80179e-05
-1.40538e-10
3.80179e-05
3.89008e-11
3.80178e-05
1.96426e-10
3.80177e-05
3.15741e-10
3.80177e-05
3.94789e-10
3.80176e-05
4.37767e-10
3.80175e-05
4.51378e-10
3.80174e-05
4.42677e-10
3.80173e-05
4.17702e-10
3.80173e-05
3.81503e-10
3.80172e-05
3.38516e-10
3.80172e-05
2.92494e-10
3.80171e-05
2.45822e-10
3.80171e-05
1.99375e-10
3.8017e-05
1.53836e-10
3.8017e-05
1.10107e-10
3.8017e-05
6.852e-11
3.8017e-05
2.90443e-11
3.8017e-05
-8.12539e-12
3.8017e-05
-4.24477e-11
3.8017e-05
-7.33236e-11
3.8017e-05
-1.0082e-10
3.80171e-05
-1.25593e-10
3.80171e-05
-1.48227e-10
3.80171e-05
-1.69071e-10
3.80172e-05
-1.87953e-10
3.80172e-05
-2.04388e-10
3.80172e-05
-2.18511e-10
3.80173e-05
-2.31058e-10
3.80173e-05
-2.42315e-10
3.80174e-05
-2.51897e-10
3.80174e-05
-2.59332e-10
3.80175e-05
-2.64991e-10
3.80176e-05
-2.69401e-10
3.80176e-05
-2.72863e-10
3.80177e-05
-2.73482e-10
3.80177e-05
-2.71443e-10
3.80178e-05
-2.62791e-10
3.80178e-05
-2.50146e-10
3.80179e-05
-2.25209e-10
3.80179e-05
-1.91656e-10
3.8018e-05
-1.47521e-10
3.8018e-05
-9.24983e-11
3.8018e-05
-5.66372e-11
3.8018e-05
-3.55179e-11
3.8018e-05
-2.85104e-11
3.8018e-05
-3.53364e-11
3.80181e-05
-4.37167e-11
3.80181e-05
-5.2281e-11
3.80181e-05
-5.96966e-11
3.80181e-05
-6.4736e-11
3.80181e-05
-6.65183e-11
3.80181e-05
-6.40276e-11
3.80181e-05
-5.66868e-11
3.80181e-05
-4.51189e-11
3.80181e-05
-3.01428e-11
3.80181e-05
-1.18947e-11
3.80181e-05
9.38803e-12
3.80181e-05
3.23719e-11
3.80181e-05
5.52929e-11
3.80181e-05
7.72096e-11
3.80181e-05
9.75665e-11
3.8018e-05
1.15571e-10
3.8018e-05
1.30652e-10
3.8018e-05
1.42608e-10
3.80179e-05
1.51779e-10
3.80179e-05
1.59051e-10
3.80179e-05
1.64546e-10
3.80178e-05
1.67445e-10
3.80178e-05
1.67525e-10
3.80178e-05
1.65357e-10
3.80177e-05
1.6172e-10
3.80177e-05
1.57488e-10
3.80177e-05
1.52808e-10
3.80176e-05
1.46997e-10
3.80176e-05
1.39892e-10
3.80176e-05
1.31955e-10
3.80176e-05
1.23539e-10
3.80175e-05
1.15e-10
3.80175e-05
1.06783e-10
3.80175e-05
9.89859e-11
3.80175e-05
9.00992e-11
3.80175e-05
7.93119e-11
3.80174e-05
6.53676e-11
3.80174e-05
5.18635e-11
3.80174e-05
4.14971e-11
3.80174e-05
3.41565e-11
3.80174e-05
3.02577e-11
3.80174e-05
2.67045e-11
3.80174e-05
2.25686e-11
3.80174e-05
1.74917e-11
3.80174e-05
1.04688e-11
3.80174e-05
1.28453e-12
3.80174e-05
-1.00797e-11
3.80174e-05
-2.23019e-11
3.80174e-05
-3.54709e-11
3.80174e-05
-4.50602e-11
3.80174e-05
-5.34908e-11
3.80174e-05
-5.23597e-11
3.80174e-05
-4.52023e-11
3.80175e-05
-2.82062e-11
3.80175e-05
-3.11754e-12
3.80175e-05
7.87444e-12
3.80175e-05
7.36801e-12
3.80175e-05
-5.01479e-12
3.80175e-05
-2.56443e-11
3.80175e-05
-4.9948e-11
3.80175e-05
-7.42419e-11
3.80175e-05
-9.55714e-11
3.80175e-05
-1.13438e-10
3.80176e-05
-1.26208e-10
3.80176e-05
-1.3479e-10
3.80176e-05
-1.35527e-10
3.80176e-05
-1.21642e-10
3.80177e-05
-1.24104e-10
3.80177e-05
-4.89098e-11
-7.84366e-11
4.26015e-05
-3.52673e-10
4.26016e-05
-4.20369e-10
4.26016e-05
-3.15829e-10
4.26016e-05
-1.28334e-10
4.26016e-05
7.22355e-11
4.26015e-05
2.46066e-10
4.26014e-05
3.77541e-10
4.26014e-05
4.64896e-10
4.26013e-05
5.12565e-10
4.26012e-05
5.27619e-10
4.26012e-05
5.1752e-10
4.26011e-05
4.88804e-10
4.2601e-05
4.47128e-10
4.2601e-05
3.9752e-10
4.26009e-05
3.44229e-10
4.26009e-05
2.89948e-10
4.26008e-05
2.35707e-10
4.26008e-05
1.82319e-10
4.26008e-05
1.30827e-10
4.26008e-05
8.17031e-11
4.26008e-05
3.50073e-11
4.26008e-05
-9.00688e-12
4.26008e-05
-4.97102e-11
4.26008e-05
-8.64837e-11
4.26008e-05
-1.19484e-10
4.26008e-05
-1.49386e-10
4.26008e-05
-1.7673e-10
4.26009e-05
-2.01891e-10
4.26009e-05
-2.24702e-10
4.2601e-05
-2.44633e-10
4.2601e-05
-2.61871e-10
4.2601e-05
-2.77256e-10
4.26011e-05
-2.9104e-10
4.26011e-05
-3.02771e-10
4.26012e-05
-3.12033e-10
4.26013e-05
-3.19298e-10
4.26013e-05
-3.25072e-10
4.26014e-05
-3.29603e-10
4.26014e-05
-3.30817e-10
4.26015e-05
-3.28939e-10
4.26015e-05
-3.19493e-10
4.26016e-05
-3.05203e-10
4.26016e-05
-2.7678e-10
4.26017e-05
-2.38264e-10
4.26017e-05
-1.87206e-10
4.26018e-05
-1.23092e-10
4.26018e-05
-7.96307e-11
4.26018e-05
-5.27249e-11
4.26018e-05
-4.22146e-11
4.26018e-05
-4.7854e-11
4.26018e-05
-5.58732e-11
4.26019e-05
-6.44558e-11
4.26019e-05
-7.19047e-11
4.26019e-05
-7.67086e-11
4.26019e-05
-7.77034e-11
4.26019e-05
-7.36615e-11
4.26019e-05
-6.39941e-11
4.26019e-05
-4.94873e-11
4.26019e-05
-3.10943e-11
4.26019e-05
-9.00913e-12
4.26019e-05
1.64123e-11
4.26019e-05
4.35989e-11
4.26019e-05
7.05757e-11
4.26019e-05
9.62989e-11
4.26018e-05
1.20115e-10
4.26018e-05
1.41154e-10
4.26018e-05
1.58836e-10
4.26017e-05
1.72938e-10
4.26017e-05
1.83794e-10
4.26017e-05
1.92345e-10
4.26016e-05
1.98702e-10
4.26016e-05
2.02024e-10
4.26016e-05
2.0215e-10
4.26015e-05
1.99702e-10
4.26015e-05
1.95529e-10
4.26015e-05
1.90607e-10
4.26014e-05
1.85062e-10
4.26014e-05
1.7814e-10
4.26014e-05
1.6975e-10
4.26014e-05
1.60467e-10
4.26013e-05
1.50645e-10
4.26013e-05
1.40614e-10
4.26013e-05
1.30845e-10
4.26013e-05
1.21434e-10
4.26012e-05
1.10691e-10
4.26012e-05
9.77486e-11
4.26012e-05
8.13024e-11
4.26012e-05
6.54083e-11
4.26012e-05
5.30641e-11
4.26012e-05
4.41642e-11
4.26012e-05
3.91745e-11
4.26011e-05
3.45967e-11
4.26011e-05
2.92746e-11
4.26011e-05
2.26898e-11
4.26011e-05
1.36828e-11
4.26011e-05
2.04252e-12
4.26011e-05
-1.22081e-11
4.26011e-05
-2.75913e-11
4.26011e-05
-4.41338e-11
4.26012e-05
-5.66835e-11
4.26012e-05
-6.77505e-11
4.26012e-05
-6.78296e-11
4.26012e-05
-6.06488e-11
4.26012e-05
-4.17782e-11
4.26012e-05
-1.3136e-11
4.26012e-05
4.22868e-13
4.26012e-05
1.28228e-12
4.26012e-05
-1.14174e-11
4.26013e-05
-3.38395e-11
4.26013e-05
-6.08746e-11
4.26013e-05
-8.82515e-11
4.26013e-05
-1.12585e-10
4.26013e-05
-1.33285e-10
4.26013e-05
-1.48456e-10
4.26014e-05
-1.58929e-10
4.26014e-05
-1.60199e-10
4.26014e-05
-1.45401e-10
4.26014e-05
-1.47292e-10
4.26014e-05
-6.0214e-11
-1.12139e-10
4.68666e-05
-3.93154e-10
4.68666e-05
-4.43766e-10
4.68666e-05
-3.16838e-10
4.68666e-05
-1.09138e-10
4.68666e-05
1.07536e-10
4.68665e-05
2.93616e-10
4.68665e-05
4.34136e-10
4.68664e-05
5.27709e-10
4.68663e-05
5.78983e-10
4.68663e-05
5.95207e-10
4.68662e-05
5.83986e-10
4.68661e-05
5.52184e-10
4.68661e-05
5.05956e-10
4.6866e-05
4.50797e-10
4.6866e-05
3.91311e-10
4.68659e-05
3.30403e-10
4.68659e-05
2.69253e-10
4.68659e-05
2.08816e-10
4.68659e-05
1.50254e-10
4.68658e-05
9.41753e-11
4.68658e-05
4.07659e-11
4.68658e-05
-9.63812e-12
4.68658e-05
-5.63354e-11
4.68659e-05
-9.87406e-11
4.68659e-05
-1.37108e-10
4.68659e-05
-1.72071e-10
4.68659e-05
-2.04082e-10
4.6866e-05
-2.33521e-10
4.6866e-05
-2.60226e-10
4.6866e-05
-2.83668e-10
4.68661e-05
-3.04118e-10
4.68661e-05
-3.22463e-10
4.68662e-05
-3.3886e-10
4.68662e-05
-3.52821e-10
4.68663e-05
-3.64058e-10
4.68663e-05
-3.73145e-10
4.68664e-05
-3.8049e-10
4.68664e-05
-3.86254e-10
4.68665e-05
-3.88238e-10
4.68666e-05
-3.86735e-10
4.68666e-05
-3.76755e-10
4.68667e-05
-3.61098e-10
4.68667e-05
-3.29545e-10
4.68668e-05
-2.86473e-10
4.68668e-05
-2.28876e-10
4.68668e-05
-1.55974e-10
4.68669e-05
-1.04986e-10
4.68669e-05
-7.21784e-11
4.68669e-05
-5.78601e-11
4.68669e-05
-6.18429e-11
4.68669e-05
-6.8968e-11
4.68669e-05
-7.70223e-11
4.6867e-05
-8.39717e-11
4.6867e-05
-8.80137e-11
4.6867e-05
-8.76998e-11
4.6867e-05
-8.16328e-11
4.6867e-05
-6.92835e-11
4.6867e-05
-5.16311e-11
4.6867e-05
-2.97534e-11
4.6867e-05
-3.90363e-12
4.6867e-05
2.54394e-11
4.6867e-05
5.65047e-11
4.68669e-05
8.71684e-11
4.68669e-05
1.16317e-10
4.68669e-05
1.43213e-10
4.68669e-05
1.6695e-10
4.68668e-05
1.86982e-10
4.68668e-05
2.03053e-10
4.68668e-05
2.15452e-10
4.68668e-05
2.2514e-10
4.68667e-05
2.32224e-10
4.68667e-05
2.35891e-10
4.68666e-05
2.36065e-10
4.68666e-05
2.33407e-10
4.68666e-05
2.28806e-10
4.68666e-05
2.23297e-10
4.68665e-05
2.16947e-10
4.68665e-05
2.0896e-10
4.68665e-05
1.99374e-10
4.68664e-05
1.88875e-10
4.68664e-05
1.77786e-10
4.68664e-05
1.66383e-10
4.68664e-05
1.55135e-10
4.68663e-05
1.44131e-10
4.68663e-05
1.31536e-10
4.68663e-05
1.16492e-10
4.68663e-05
9.76866e-11
4.68663e-05
7.9562e-11
4.68662e-05
6.53348e-11
4.68662e-05
5.48811e-11
4.68662e-05
4.87224e-11
4.68662e-05
4.29854e-11
4.68662e-05
3.62894e-11
4.68662e-05
2.79549e-11
4.68662e-05
1.66954e-11
4.68662e-05
2.33744e-12
4.68662e-05
-1.50448e-11
4.68662e-05
-3.38317e-11
4.68662e-05
-5.39703e-11
4.68662e-05
-6.9691e-11
4.68663e-05
-8.35763e-11
4.68663e-05
-8.50618e-11
4.68663e-05
-7.80302e-11
4.68663e-05
-5.74195e-11
4.68663e-05
-2.52821e-11
4.68663e-05
-9.01538e-12
4.68663e-05
-6.46925e-12
4.68663e-05
-1.89959e-11
4.68663e-05
-4.26099e-11
4.68664e-05
-7.17359e-11
4.68664e-05
-1.01619e-10
4.68664e-05
-1.28533e-10
4.68664e-05
-1.51808e-10
4.68664e-05
-1.69257e-10
4.68664e-05
-1.816e-10
4.68665e-05
-1.83418e-10
4.68665e-05
-1.68209e-10
4.68665e-05
-1.68663e-10
4.68665e-05
-7.36167e-11
-1.3868e-10
5.08758e-05
-4.09521e-10
5.08758e-05
-4.46036e-10
5.08758e-05
-3.04365e-10
5.08758e-05
-8.33544e-11
5.08757e-05
1.44259e-10
5.08757e-05
3.38739e-10
5.08756e-05
4.85409e-10
5.08756e-05
5.83176e-10
5.08755e-05
6.36878e-10
5.08755e-05
6.53793e-10
5.08754e-05