/*--------------------------------*- C++ -*----------------------------------*\
  =========                 |
  \\      /  F ield         | OpenFOAM: The Open Source CFD Toolbox
   \\    /   O peration     | Website:  https://openfoam.org
    \\  /    A nd           | Version:  7
     \\/     M anipulation  |
\*---------------------------------------------------------------------------*/
FoamFile
{
    version     2.0;
    format      ascii;
    class       volVectorField;
    location    "18000";
    object      U;
}
// * * * * * * * * * * * * * * * * * * * * * * * * * * * * * * * * * * * * * //

dimensions      [0 1 -1 0 0 0 0];

internalField   nonuniform List<vector> 
24000
(
(0.00434514 9.2599e-11 8.01322e-16)
(0.00434514 -4.36256e-11 7.92015e-16)
(0.00434516 -1.23615e-10 7.97871e-16)
(0.00434518 -1.13435e-10 7.28559e-16)
(0.00434519 -6.63626e-11 3.91374e-16)
(0.00434519 -1.42641e-11 7.06158e-16)
(0.00434518 2.84208e-11 4.45864e-16)
(0.00434517 5.85628e-11 7.2422e-16)
(0.00434516 7.68576e-11 7.73012e-16)
(0.00434515 8.54811e-11 5.00879e-16)
(0.00434513 8.72735e-11 7.43389e-16)
(0.00434512 8.42414e-11 7.491e-16)
(0.0043451 7.78997e-11 7.51456e-16)
(0.00434509 6.97604e-11 7.32648e-16)
(0.00434508 6.10083e-11 6.84813e-16)
(0.00434507 5.20577e-11 7.39427e-16)
(0.00434506 4.27206e-11 7.30891e-16)
(0.00434505 3.34351e-11 7.32973e-16)
(0.00434505 2.48706e-11 7.12183e-16)
(0.00434505 1.66235e-11 6.70705e-16)
(0.00434504 8.32536e-12 7.31185e-16)
(0.00434504 3.73858e-13 6.92983e-16)
(0.00434504 -6.97005e-12 7.09615e-16)
(0.00434505 -1.33531e-11 6.9317e-16)
(0.00434505 -1.87196e-11 6.35768e-16)
(0.00434505 -2.34916e-11 7.31914e-16)
(0.00434506 -2.80889e-11 7.07092e-16)
(0.00434506 -3.26433e-11 7.22797e-16)
(0.00434507 -3.66976e-11 6.81297e-16)
(0.00434507 -3.99239e-11 6.28346e-16)
(0.00434508 -4.26578e-11 7.20383e-16)
(0.00434509 -4.5495e-11 6.96649e-16)
(0.0043451 -4.82073e-11 7.04514e-16)
(0.00434511 -5.06709e-11 6.80391e-16)
(0.00434511 -5.19115e-11 6.34125e-16)
(0.00434512 -5.31153e-11 7.03002e-16)
(0.00434513 -5.3214e-11 6.78207e-16)
(0.00434514 -5.49331e-11 6.97268e-16)
(0.00434515 -5.28171e-11 6.69511e-16)
(0.00434516 -5.31991e-11 6.26628e-16)
(0.00434517 -4.55093e-11 6.60493e-16)
(0.00434517 -4.26663e-11 8.69379e-16)
(0.00434518 -2.87743e-11 7.17325e-16)
(0.00434519 -1.40731e-11 7.13306e-16)
(0.00434519 4.59664e-13 7.25312e-16)
(0.00434519 2.90291e-11 7.37925e-16)
(0.00434519 2.4932e-11 9.55522e-16)
(0.00434519 2.35895e-11 7.5619e-16)
(0.00434519 1.82111e-11 7.50121e-16)
(0.00434519 4.51157e-12 7.56517e-16)
(0.00434519 1.1568e-13 7.61224e-16)
(0.00434519 -6.11471e-12 9.88047e-16)
(0.00434519 -1.10897e-11 7.67448e-16)
(0.00434519 -1.48471e-11 1.00983e-15)
(0.00434519 -1.76989e-11 7.45232e-16)
(0.0043452 -1.93412e-11 7.92894e-16)
(0.0043452 -1.95117e-11 1.01218e-15)
(0.0043452 -1.87776e-11 7.86659e-16)
(0.0043452 -1.73881e-11 1.05222e-15)
(0.00434521 -1.48615e-11 7.38182e-16)
(0.00434521 -1.09922e-11 7.95627e-16)
(0.00434521 -6.33296e-12 9.27376e-16)
(0.00434521 -1.67245e-12 7.97492e-16)
(0.00434521 3.03531e-12 1.00019e-15)
(0.0043452 7.83986e-12 7.57948e-16)
(0.0043452 1.21946e-11 8.1386e-16)
(0.0043452 1.5787e-11 9.45109e-16)
(0.0043452 1.85297e-11 8.08731e-16)
(0.00434519 2.05767e-11 1.06603e-15)
(0.00434519 2.26804e-11 7.412e-16)
(0.00434518 2.48239e-11 8.16079e-16)
(0.00434518 2.59538e-11 1.00106e-15)
(0.00434517 2.59782e-11 8.26598e-16)
(0.00434517 2.55578e-11 9.60325e-16)
(0.00434516 2.49407e-11 7.32474e-16)
(0.00434516 2.44352e-11 8.16527e-16)
(0.00434515 2.39706e-11 1.06178e-15)
(0.00434515 2.28966e-11 8.22847e-16)
(0.00434514 2.1258e-11 9.85469e-16)
(0.00434514 1.94867e-11 7.39435e-16)
(0.00434514 1.73679e-11 6.45465e-16)
(0.00434513 1.5391e-11 7.39767e-16)
(0.00434513 1.35079e-11 8.22385e-16)
(0.00434513 1.25416e-11 4.93214e-16)
(0.00434513 1.0177e-11 7.20751e-16)
(0.00434512 8.02426e-12 6.04628e-16)
(0.00434512 3.15659e-12 6.67515e-16)
(0.00434512 -1.87056e-13 7.90566e-16)
(0.00434512 -1.19826e-12 5.22393e-16)
(0.00434512 -2.57868e-12 6.96794e-16)
(0.00434512 -1.52848e-12 4.9837e-16)
(0.00434512 -2.37022e-12 7.05907e-16)
(0.00434512 -3.35051e-12 8.02462e-16)
(0.00434512 -3.78703e-12 5.03675e-16)
(0.00434512 -5.26022e-12 7.1389e-16)
(0.00434512 -5.95155e-12 4.92687e-16)
(0.00434512 -8.34892e-12 7.19442e-16)
(0.00434512 -7.87658e-12 7.94892e-16)
(0.00434512 -1.09015e-11 5.03565e-16)
(0.00434512 -6.04846e-12 6.83074e-16)
(0.00434513 -7.27233e-12 5.66927e-16)
(0.00434513 2.62963e-12 7.03662e-16)
(0.00434513 1.01261e-11 8.09027e-16)
(0.00434513 2.03315e-11 6.00731e-16)
(0.00434512 3.90204e-11 7.07525e-16)
(0.00434512 3.32456e-11 5.42076e-16)
(0.00434512 2.94819e-11 6.78499e-16)
(0.00434511 1.86e-11 7.98439e-16)
(0.00434511 6.68449e-12 5.95709e-16)
(0.00434511 -4.21147e-12 6.72661e-16)
(0.00434512 -1.42847e-11 5.83826e-16)
(0.00434512 -2.15302e-11 5.82181e-16)
(0.00434512 -2.8039e-11 7.77447e-16)
(0.00434513 -3.09004e-11 6.24276e-16)
(0.00434513 -3.2441e-11 6.59519e-16)
(0.00434514 -3.21283e-11 6.07437e-16)
(0.00434514 -2.03738e-11 5.46124e-16)
(0.00434514 -2.04467e-11 7.8335e-16)
(0.00434515 -2.35368e-11 6.26048e-16)
(0.00434515 6.9961e-11 7.25525e-16)
(0.0131155 3.37488e-10 2.42643e-15)
(0.0131155 -9.9245e-10 2.39335e-15)
(0.0131156 -1.71814e-09 2.41161e-15)
(0.0131156 -1.42821e-09 2.19795e-15)
(0.0131156 -6.69437e-10 1.52288e-15)
(0.0131156 1.2088e-10 2.14411e-15)
(0.0131156 7.55404e-10 1.60669e-15)
(0.0131156 1.19352e-09 2.20077e-15)
(0.0131156 1.45112e-09 2.33454e-15)
(0.0131155 1.56287e-09 1.88286e-15)
(0.0131155 1.56829e-09 2.2602e-15)
(0.0131154 1.49883e-09 2.26436e-15)
(0.0131154 1.37865e-09 2.27297e-15)
(0.0131153 1.22917e-09 2.21568e-15)
(0.0131153 1.06787e-09 2.07241e-15)
(0.0131153 9.03616e-10 2.24384e-15)
(0.0131153 7.37812e-10 2.21132e-15)
(0.0131152 5.74815e-10 2.21645e-15)
(0.0131152 4.20832e-10 2.15218e-15)
(0.0131152 2.74199e-10 2.03488e-15)
(0.0131152 1.32097e-10 2.21313e-15)
(0.0131152 -3.34761e-12 2.09826e-15)
(0.0131152 -1.2845e-10 2.14723e-15)
(0.0131152 -2.39179e-10 2.09385e-15)
(0.0131152 -3.34707e-10 1.91822e-15)
(0.0131152 -4.19177e-10 2.21953e-15)
(0.0131152 -4.97871e-10 2.13199e-15)
(0.0131153 -5.72828e-10 2.18349e-15)
(0.0131153 -6.40417e-10 2.05239e-15)
(0.0131153 -6.97142e-10 1.89388e-15)
(0.0131153 -7.45445e-10 2.18071e-15)
(0.0131153 -7.90622e-10 2.10902e-15)
(0.0131154 -8.331e-10 2.13369e-15)
(0.0131154 -8.69699e-10 2.05494e-15)
(0.0131154 -8.94817e-10 1.91841e-15)
(0.0131154 -9.1215e-10 2.12994e-15)
(0.0131155 -9.23479e-10 2.04621e-15)
(0.0131155 -9.36438e-10 2.10792e-15)
(0.0131155 -9.28802e-10 2.02416e-15)
(0.0131155 -9.15297e-10 1.89197e-15)
(0.0131156 -8.51303e-10 2.00023e-15)
(0.0131156 -7.87229e-10 2.17796e-15)
(0.0131156 -6.37535e-10 2.16067e-15)
(0.0131156 -4.55461e-10 2.15807e-15)
(0.0131156 -2.31229e-10 2.19257e-15)
(0.0131157 6.68954e-11 2.23115e-15)
(0.0131156 1.50076e-10 2.30722e-15)
(0.0131156 1.65201e-10 2.28026e-15)
(0.0131156 1.24215e-10 2.2699e-15)
(0.0131156 9.09581e-12 2.28883e-15)
(0.0131156 -6.57206e-11 2.30342e-15)
(0.0131156 -1.34397e-10 2.38059e-15)
(0.0131157 -1.94938e-10 2.31527e-15)
(0.0131157 -2.40401e-10 2.41139e-15)
(0.0131157 -2.71522e-10 2.12842e-15)
(0.0131157 -2.84941e-10 2.40096e-15)
(0.0131157 -2.77614e-10 2.44337e-15)
(0.0131157 -2.53761e-10 2.37284e-15)
(0.0131157 -2.17103e-10 2.50222e-15)
(0.0131157 -1.65011e-10 2.26863e-15)
(0.0131157 -9.57982e-11 2.41031e-15)
(0.0131157 -1.56516e-11 2.44606e-15)
(0.0131157 6.62203e-11 2.40613e-15)
(0.0131157 1.46899e-10 2.46246e-15)
(0.0131157 2.25328e-10 2.19919e-15)
(0.0131157 2.96331e-10 2.46836e-15)
(0.0131157 3.55655e-10 2.4993e-15)
(0.0131157 4.01774e-10 2.44063e-15)
(0.0131156 4.36857e-10 2.54981e-15)
(0.0131156 4.68042e-10 2.29135e-15)
(0.0131156 4.9598e-10 2.47198e-15)
(0.0131156 5.12148e-10 2.57385e-15)
(0.0131156 5.13946e-10 2.49246e-15)
(0.0131156 5.06633e-10 2.54426e-15)
(0.0131156 4.94705e-10 2.13316e-15)
(0.0131155 4.82375e-10 2.46964e-15)
(0.0131155 4.69413e-10 2.56146e-15)
(0.0131155 4.50457e-10 2.48142e-15)
(0.0131155 4.24623e-10 2.57324e-15)
(0.0131155 3.94737e-10 2.36829e-15)
(0.0131155 3.61701e-10 2.31394e-15)
(0.0131155 3.28715e-10 2.18086e-15)
(0.0131155 2.98824e-10 2.48644e-15)
(0.0131155 2.74302e-10 2.19224e-15)
(0.0131154 2.42124e-10 2.27261e-15)
(0.0131154 2.02683e-10 2.23711e-15)
(0.0131154 1.41127e-10 2.01979e-15)
(0.0131154 8.72769e-11 2.39367e-15)
(0.0131154 5.50393e-11 2.20074e-15)
(0.0131154 3.30638e-11 2.07338e-15)
(0.0131154 3.05862e-11 2.16847e-15)
(0.0131154 2.09085e-11 2.22679e-15)
(0.0131154 7.26555e-12 2.42448e-15)
(0.0131154 -5.85123e-12 2.17516e-15)
(0.0131154 -2.58768e-11 2.05649e-15)
(0.0131154 -4.95189e-11 2.15926e-15)
(0.0131154 -8.16476e-11 2.20836e-15)
(0.0131154 -1.06789e-10 2.40498e-15)
(0.0131154 -1.40095e-10 2.17375e-15)
(0.0131154 -1.32936e-10 1.99062e-15)
(0.0131154 -1.37262e-10 2.1377e-15)
(0.0131154 -6.7242e-11 2.22522e-15)
(0.0131154 1.51079e-11 2.4452e-15)
(0.0131154 1.42805e-10 2.21843e-15)
(0.0131154 3.17569e-10 2.0773e-15)
(0.0131154 3.3011e-10 2.20785e-15)
(0.0131154 2.83982e-10 2.17926e-15)
(0.0131154 1.73871e-10 2.41091e-15)
(0.0131154 3.15415e-11 2.20054e-15)
(0.0131154 -1.11641e-10 1.97312e-15)
(0.0131154 -2.44243e-10 2.15567e-15)
(0.0131154 -3.51692e-10 2.12902e-15)
(0.0131154 -4.39196e-10 2.35594e-15)
(0.0131155 -4.90722e-10 2.2346e-15)
(0.0131155 -5.21192e-10 1.96836e-15)
(0.0131155 -5.13957e-10 2.18399e-15)
(0.0131155 -4.00919e-10 2.10263e-15)
(0.0131155 -4.19826e-10 2.37575e-15)
(0.0131155 -2.43418e-10 2.24508e-15)
(0.0131155 5.11298e-10 2.06144e-15)
(0.0220627 1.54637e-10 4.11059e-15)
(0.0220627 -3.23213e-09 4.0236e-15)
(0.0220628 -4.8229e-09 4.0588e-15)
(0.0220629 -3.79637e-09 3.67692e-15)
(0.0220629 -1.57596e-09 3.33154e-15)
(0.0220629 6.74422e-10 3.67809e-15)
(0.0220629 2.46003e-09 3.46007e-15)
(0.0220628 3.68085e-09 3.76995e-15)
(0.0220627 4.38835e-09 3.92424e-15)
(0.0220627 4.68267e-09 3.63214e-15)
(0.0220626 4.67436e-09 3.86384e-15)
(0.0220625 4.45302e-09 3.80797e-15)
(0.0220624 4.08772e-09 3.83059e-15)
(0.0220624 3.6384e-09 3.7268e-15)
(0.0220623 3.15431e-09 3.50143e-15)
(0.0220623 2.66252e-09 3.81902e-15)
(0.0220622 2.16944e-09 3.72454e-15)
(0.0220622 1.68613e-09 3.73429e-15)
(0.0220622 1.22795e-09 3.61495e-15)
(0.0220622 7.92611e-10 3.44728e-15)
(0.0220622 3.73781e-10 3.74201e-15)
(0.0220622 -2.42265e-11 3.53428e-15)
(0.0220622 -3.91772e-10 3.62698e-15)
(0.0220622 -7.18177e-10 3.50694e-15)
(0.0220622 -1.00115e-09 3.21044e-15)
(0.0220622 -1.25149e-09 3.77914e-15)
(0.0220622 -1.48301e-09 3.56339e-15)
(0.0220623 -1.70149e-09 3.67571e-15)
(0.0220623 -1.89892e-09 3.40852e-15)
(0.0220623 -2.06637e-09 3.18424e-15)
(0.0220624 -2.20892e-09 3.711e-15)
(0.0220624 -2.33961e-09 3.55698e-15)
(0.0220624 -2.46126e-09 3.60505e-15)
(0.0220625 -2.56557e-09 3.45509e-15)
(0.0220625 -2.63992e-09 3.23516e-15)
(0.0220625 -2.69091e-09 3.62749e-15)
(0.0220626 -2.72646e-09 3.42279e-15)
(0.0220626 -2.76047e-09 3.55323e-15)
(0.0220627 -2.74714e-09 3.39267e-15)
(0.0220627 -2.70739e-09 3.16972e-15)
(0.0220628 -2.54831e-09 3.38751e-15)
(0.0220628 -2.3674e-09 3.48066e-15)
(0.0220628 -1.97701e-09 3.63158e-15)
(0.0220629 -1.48699e-09 3.6372e-15)
(0.0220629 -8.69903e-10 3.69585e-15)
(0.0220629 -8.15819e-11 3.76054e-15)
(0.0220629 2.2033e-10 3.74139e-15)
(0.0220629 3.0679e-10 3.83381e-15)
(0.0220629 2.27817e-10 3.82663e-15)
(0.0220629 -4.25753e-11 3.86088e-15)
(0.0220629 -2.43463e-10 3.88516e-15)
(0.0220629 -4.23277e-10 3.84801e-15)
(0.0220629 -5.81057e-10 3.89441e-15)
(0.0220629 -6.99554e-10 3.87889e-15)
(0.0220629 -7.77311e-10 4.12222e-15)
(0.022063 -8.04887e-10 4.06317e-15)
(0.022063 -7.7399e-10 3.94817e-15)
(0.022063 -6.94396e-10 3.99158e-15)
(0.022063 -5.76459e-10 4.00349e-15)
(0.022063 -4.15595e-10 4.14392e-15)
(0.022063 -2.08433e-10 4.08234e-15)
(0.022063 2.86689e-11 3.98484e-15)
(0.022063 2.71007e-10 4.0468e-15)
(0.022063 5.08489e-10 4.0154e-15)
(0.022063 7.36717e-10 4.42538e-15)
(0.022063 9.42727e-10 4.18839e-15)
(0.0220629 1.11516e-09 4.07316e-15)
(0.0220629 1.24963e-09 4.10538e-15)
(0.0220629 1.35193e-09 4.08592e-15)
(0.0220629 1.43994e-09 4.38562e-15)
(0.0220629 1.51628e-09 4.19075e-15)
(0.0220628 1.5607e-09 4.13944e-15)
(0.0220628 1.56585e-09 4.19078e-15)
(0.0220628 1.54386e-09 4.15248e-15)
(0.0220628 1.50744e-09 4.37797e-15)
(0.0220627 1.46826e-09 4.1865e-15)
(0.0220627 1.42684e-09 4.12348e-15)
(0.0220627 1.37013e-09 4.17254e-15)
(0.0220627 1.29482e-09 4.16529e-15)
(0.0220626 1.20751e-09 4.2558e-15)
(0.0220626 1.11209e-09 4.04903e-15)
(0.0220626 1.01616e-09 4.39543e-15)
(0.0220626 9.2855e-10 4.21025e-15)
(0.0220626 8.53449e-10 3.90143e-15)
(0.0220626 7.61204e-10 4.09727e-15)
(0.0220625 6.46611e-10 3.93406e-15)
(0.0220625 4.76782e-10 4.03392e-15)
(0.0220625 3.2127e-10 4.07039e-15)
(0.0220625 2.19849e-10 3.85406e-15)
(0.0220625 1.52468e-10 4.03246e-15)
(0.0220625 1.35438e-10 3.86252e-15)
(0.0220625 1.07271e-10 4.25561e-15)
(0.0220625 6.86786e-11 4.10317e-15)
(0.0220625 2.80603e-11 3.83628e-15)
(0.0220625 -3.07423e-11 4.08693e-15)
(0.0220625 -1.04658e-10 3.8571e-15)
(0.0220625 -2.00594e-10 4.0668e-15)
(0.0220625 -2.87907e-10 4.06731e-15)
(0.0220625 -3.89087e-10 3.83434e-15)
(0.0220625 -4.02119e-10 4.1257e-15)
(0.0220625 -4.25281e-10 3.77752e-15)
(0.0220625 -2.7301e-10 4.2337e-15)
(0.0220625 -6.94519e-11 4.14097e-15)
(0.0220625 2.59784e-10 3.87848e-15)
(0.0220625 7.02243e-10 4.08368e-15)
(0.0220625 7.77908e-10 3.86395e-15)
(0.0220625 6.71792e-10 4.01864e-15)
(0.0220625 3.94052e-10 4.08458e-15)
(0.0220625 2.09769e-11 3.84394e-15)
(0.0220625 -3.65893e-10 3.97674e-15)
(0.0220625 -7.27818e-10 3.79707e-15)
(0.0220625 -1.0268e-09 3.72046e-15)
(0.0220626 -1.26891e-09 3.9889e-15)
(0.0220626 -1.41841e-09 3.86856e-15)
(0.0220626 -1.50815e-09 4.1285e-15)
(0.0220626 -1.49301e-09 3.81732e-15)
(0.0220626 -1.21294e-09 3.73146e-15)
(0.0220627 -1.25436e-09 4.02497e-15)
(0.0220627 -6.75921e-10 3.89321e-15)
(0.0220627 1.04208e-09 4.09642e-15)
(0.031142 -1.08993e-09 5.80684e-15)
(0.0311421 -7.13064e-09 5.66992e-15)
(0.0311422 -9.32514e-09 5.72599e-15)
(0.0311423 -6.88454e-09 5.17947e-15)
(0.0311423 -2.43226e-09 5.1413e-15)
(0.0311423 1.94518e-09 5.3079e-15)
(0.0311423 5.37435e-09 5.23098e-15)
(0.0311422 7.69441e-09 5.42981e-15)
(0.0311421 9.01708e-09 5.55284e-15)
(0.031142 9.54019e-09 5.40304e-15)
(0.0311419 9.47636e-09 5.5504e-15)
(0.0311418 8.9993e-09 5.36352e-15)
(0.0311417 8.2435e-09 5.42004e-15)
(0.0311416 7.32435e-09 5.2411e-15)
(0.0311415 6.3369e-09 4.86481e-15)
(0.0311415 5.33622e-09 5.51973e-15)
(0.0311414 4.33794e-09 5.24843e-15)
(0.0311414 3.36176e-09 5.28076e-15)
(0.0311413 2.43465e-09 5.07177e-15)
(0.0311413 1.55525e-09 4.92252e-15)
(0.0311413 7.13475e-10 5.45954e-15)
(0.0311413 -8.40337e-11 4.97564e-15)
(0.0311413 -8.20169e-10 5.16126e-15)
(0.0311413 -1.47517e-09 4.84885e-15)
(0.0311413 -2.0451e-09 4.46757e-15)
(0.0311414 -2.54978e-09 5.63543e-15)
(0.0311414 -3.01428e-09 5.10474e-15)
(0.0311414 -3.44956e-09 5.20047e-15)
(0.0311415 -3.84313e-09 4.92742e-15)
(0.0311415 -4.17914e-09 4.39595e-15)
(0.0311416 -4.46527e-09 5.23784e-15)
(0.0311416 -4.72418e-09 4.7375e-15)
(0.0311417 -4.96259e-09 5.12423e-15)
(0.0311417 -5.16665e-09 4.89912e-15)
(0.0311418 -5.3151e-09 4.42711e-15)
(0.0311418 -5.4175e-09 5.30792e-15)
(0.0311419 -5.49084e-09 4.9133e-15)
(0.031142 -5.55495e-09 5.03618e-15)
(0.031142 -5.53797e-09 4.68186e-15)
(0.0311421 -5.46189e-09 4.55153e-15)
(0.0311421 -5.17992e-09 4.84522e-15)
(0.0311422 -4.83418e-09 4.82545e-15)
(0.0311422 -4.12023e-09 5.14761e-15)
(0.0311423 -3.20549e-09 5.14446e-15)
(0.0311423 -2.0392e-09 5.23613e-15)
(0.0311423 -5.7843e-10 5.31973e-15)
(0.0311423 8.64017e-11 5.18872e-15)
(0.0311423 3.24955e-10 5.43046e-15)
(0.0311423 2.32868e-10 5.41189e-15)
(0.0311423 -2.11789e-10 5.47164e-15)
(0.0311424 -5.75005e-10 5.49839e-15)
(0.0311424 -9.00342e-10 5.33696e-15)
(0.0311424 -1.18381e-09 5.51588e-15)
(0.0311424 -1.39536e-09 5.38884e-15)
(0.0311424 -1.52776e-09 5.70468e-15)
(0.0311424 -1.56229e-09 5.7055e-15)
(0.0311424 -1.48288e-09 5.47434e-15)
(0.0311425 -1.30624e-09 5.65143e-15)
(0.0311425 -1.05217e-09 5.54667e-15)
(0.0311425 -7.15563e-10 5.73512e-15)
(0.0311425 -2.92392e-10 5.75471e-15)
(0.0311425 1.86862e-10 5.52974e-15)
(0.0311425 6.75585e-10 5.72731e-15)
(0.0311425 1.15204e-09 5.58341e-15)
(0.0311424 1.60599e-09 5.96075e-15)
(0.0311424 2.01406e-09 5.89933e-15)
(0.0311424 2.35553e-09 5.66182e-15)
(0.0311424 2.6224e-09 5.81185e-15)
(0.0311423 2.82525e-09 5.65841e-15)
(0.0311423 2.99571e-09 5.90622e-15)
(0.0311423 3.13939e-09 5.92064e-15)
(0.0311422 3.22225e-09 5.73583e-15)
(0.0311422 3.23074e-09 5.93012e-15)
(0.0311421 3.18525e-09 5.78112e-15)
(0.0311421 3.10967e-09 5.90315e-15)
(0.0311421 3.02647e-09 5.90852e-15)
(0.031142 2.93811e-09 5.71469e-15)
(0.031142 2.82206e-09 5.90409e-15)
(0.031142 2.67115e-09 5.78915e-15)
(0.031142 2.49683e-09 5.97074e-15)
(0.0311419 2.30759e-09 5.77416e-15)
(0.0311419 2.11708e-09 5.93594e-15)
(0.0311419 1.9417e-09 5.92094e-15)
(0.0311419 1.78735e-09 5.60616e-15)
(0.0311418 1.6043e-09 5.72583e-15)
(0.0311418 1.37669e-09 5.59225e-15)
(0.0311418 1.05065e-09 5.75336e-15)
(0.0311418 7.44178e-10 5.76674e-15)
(0.0311418 5.33327e-10 5.51414e-15)
(0.0311418 3.93326e-10 5.66418e-15)
(0.0311418 3.46375e-10 5.52026e-15)
(0.0311418 2.88717e-10 5.75525e-15)
(0.0311418 2.12904e-10 5.7867e-15)
(0.0311418 1.28593e-10 5.49396e-15)
(0.0311418 8.97164e-12 5.71287e-15)
(0.0311418 -1.45954e-10 5.5532e-15)
(0.0311418 -3.43677e-10 5.6806e-15)
(0.0311418 -5.37058e-10 5.73658e-15)
(0.0311418 -7.50815e-10 5.4936e-15)
(0.0311418 -8.22755e-10 5.53669e-15)
(0.0311418 -8.93256e-10 5.38793e-15)
(0.0311418 -6.62902e-10 5.69114e-15)
(0.0311418 -3.1632e-10 5.83843e-15)
(0.0311418 2.69864e-10 5.5441e-15)
(0.0311418 1.05709e-09 5.7562e-15)
(0.0311418 1.24562e-09 5.50326e-15)
(0.0311418 1.0795e-09 5.68422e-15)
(0.0311418 5.90437e-10 5.76744e-15)
(0.0311418 -8.7406e-11 5.48444e-15)
(0.0311418 -8.07362e-10 5.61701e-15)
(0.0311418 -1.48778e-09 5.4192e-15)
(0.0311418 -2.05705e-09 5.34334e-15)
(0.0311419 -2.51748e-09 5.68985e-15)
(0.0311419 -2.81075e-09 5.51393e-15)
(0.0311419 -2.98893e-09 5.59522e-15)
(0.0311419 -2.9677e-09 5.43772e-15)
(0.031142 -2.47744e-09 5.37837e-15)
(0.031142 -2.54467e-09 5.74408e-15)
(0.031142 -1.2891e-09 5.5533e-15)
(0.031142 1.39605e-09 5.68592e-15)
(0.0401876 -4.16375e-09 7.50403e-15)
(0.0401877 -1.29031e-08 7.27565e-15)
(0.0401878 -1.48303e-08 7.37579e-15)
(0.0401879 -1.01134e-08 7.04885e-15)
(0.040188 -2.75156e-09 6.98064e-15)
(0.0401879 4.25549e-09 7.03723e-15)
(0.0401879 9.67287e-09 7.0008e-15)
(0.0401877 1.32987e-08 7.13818e-15)
(0.0401876 1.53282e-08 7.22731e-15)
(0.0401875 1.60818e-08 7.15956e-15)
(0.0401874 1.58965e-08 7.27461e-15)
(0.0401872 1.50495e-08 6.86958e-15)
(0.0401871 1.37562e-08 7.0235e-15)
(0.040187 1.22008e-08 6.69899e-15)
(0.0401869 1.05355e-08 6.57839e-15)
(0.0401869 8.85183e-09 7.01914e-15)
(0.0401868 7.1787e-09 6.69674e-15)
(0.0401867 5.54581e-09 6.84058e-15)
(0.0401867 3.99294e-09 6.45738e-15)
(0.0401867 2.52165e-09 6.43499e-15)
(0.0401867 1.11906e-09 6.92965e-15)
(0.0401867 -2.05918e-10 6.69704e-15)
(0.0401867 -1.42795e-09 6.7551e-15)
(0.0401867 -2.51707e-09 6.79172e-15)
(0.0401867 -3.46812e-09 6.39231e-15)
(0.0401868 -4.31185e-09 7.04025e-15)
(0.0401868 -5.08556e-09 6.86021e-15)
(0.0401868 -5.80623e-09 6.76902e-15)
(0.0401869 -6.45781e-09 6.65516e-15)
(0.0401869 -7.01701e-09 6.33519e-15)
(0.040187 -7.49341e-09 6.94953e-15)
(0.0401871 -7.92012e-09 6.84451e-15)
(0.0401871 -8.30909e-09 6.69009e-15)
(0.0401872 -8.64126e-09 6.64218e-15)
(0.0401873 -8.88662e-09 6.31382e-15)
(0.0401873 -9.05801e-09 6.82245e-15)
(0.0401874 -9.18269e-09 6.65198e-15)
(0.0401875 -9.28613e-09 6.57771e-15)
(0.0401876 -9.26902e-09 6.56552e-15)
(0.0401876 -9.15131e-09 6.26921e-15)
(0.0401877 -8.72985e-09 6.41131e-15)
(0.0401878 -8.18577e-09 6.51869e-15)
(0.0401878 -7.09194e-09 6.73366e-15)
(0.0401879 -5.66881e-09 6.66267e-15)
(0.0401879 -3.83962e-09 6.80402e-15)
(0.040188 -1.57051e-09 6.87807e-15)
(0.040188 -4.06538e-10 6.97268e-15)
(0.040188 8.56155e-11 7.08978e-15)
(0.040188 3.48393e-11 6.99987e-15)
(0.040188 -5.66261e-10 7.10419e-15)
(0.040188 -1.0993e-09 7.10736e-15)
(0.040188 -1.5843e-09 7.1702e-15)
(0.040188 -2.00391e-09 7.19094e-15)
(0.0401881 -2.31334e-09 7.24673e-15)
(0.0401881 -2.49526e-09 7.21073e-15)
(0.0401881 -2.51802e-09 7.30797e-15)
(0.0401881 -2.35602e-09 7.30658e-15)
(0.0401881 -2.03356e-09 7.35957e-15)
(0.0401881 -1.58243e-09 7.4364e-15)
(0.0401882 -9.99092e-10 7.49264e-15)
(0.0401882 -2.81086e-10 7.3916e-15)
(0.0401882 5.23071e-10 7.38151e-15)
(0.0401881 1.33983e-09 7.45451e-15)
(0.0401881 2.13179e-09 7.46133e-15)
(0.0401881 2.88058e-09 7.49709e-15)
(0.0401881 3.55043e-09 7.57524e-15)
(0.040188 4.1104e-09 7.59123e-15)
(0.040188 4.54861e-09 7.57008e-15)
(0.040188 4.88156e-09 7.57332e-15)
(0.0401879 5.15586e-09 7.52257e-15)
(0.0401879 5.3806e-09 7.62018e-15)
(0.0401878 5.50766e-09 7.64403e-15)
(0.0401878 5.51737e-09 7.71415e-15)
(0.0401877 5.43901e-09 7.7211e-15)
(0.0401877 5.30937e-09 7.56078e-15)
(0.0401876 5.16444e-09 7.6063e-15)
(0.0401876 5.00968e-09 7.63197e-15)
(0.0401876 4.81232e-09 7.68154e-15)
(0.0401875 4.56068e-09 7.74998e-15)
(0.0401875 4.27157e-09 7.58427e-15)
(0.0401874 3.95984e-09 7.8381e-15)
(0.0401874 3.64609e-09 7.64039e-15)
(0.0401874 3.35476e-09 7.60925e-15)
(0.0401874 3.09327e-09 7.6041e-15)
(0.0401873 2.78954e-09 7.23321e-15)
(0.0401873 2.41333e-09 7.57529e-15)
(0.0401873 1.8892e-09 7.4925e-15)
(0.0401873 1.38825e-09 7.46019e-15)
(0.0401873 1.03002e-09 7.49592e-15)
(0.0401873 7.89981e-10 7.01199e-15)
(0.0401872 6.95083e-10 7.51086e-15)
(0.0401872 5.95419e-10 7.4685e-15)
(0.0401872 4.69763e-10 7.45622e-15)
(0.0401872 3.24733e-10 7.46411e-15)
(0.0401872 1.20384e-10 7.39547e-15)
(0.0401872 -1.48544e-10 7.60276e-15)
(0.0401872 -4.89718e-10 7.25086e-15)
(0.0401872 -8.37502e-10 7.40436e-15)
(0.0401872 -1.21547e-09 7.46605e-15)
(0.0401872 -1.39741e-09 7.20124e-15)
(0.0401873 -1.55871e-09 7.31236e-15)
(0.0401873 -1.27904e-09 7.36746e-15)
(0.0401873 -7.95879e-10 7.50938e-15)
(0.0401873 6.75107e-11 7.51145e-15)
(0.0401873 1.23974e-09 7.41998e-15)
(0.0401873 1.58376e-09 7.46034e-15)
(0.0401873 1.37621e-09 7.38083e-15)
(0.0401873 6.62194e-10 7.4357e-15)
(0.0401873 -3.59442e-10 7.4201e-15)
(0.0401873 -1.4692e-09 7.31393e-15)
(0.0401873 -2.52987e-09 7.34106e-15)
(0.0401873 -3.4266e-09 7.33248e-15)
(0.0401874 -4.15317e-09 7.45999e-15)
(0.0401874 -4.62785e-09 7.47143e-15)
(0.0401874 -4.92033e-09 7.16404e-15)
(0.0401875 -4.8986e-09 7.35501e-15)
(0.0401875 -4.1779e-09 7.39262e-15)
(0.0401876 -4.27924e-09 7.53386e-15)
(0.0401876 -2.01729e-09 7.5221e-15)
(0.0401876 1.17403e-09 7.40733e-15)
(0.0488647 -9.58647e-09 9.19991e-15)
(0.0488648 -2.01845e-08 8.85885e-15)
(0.048865 -2.05538e-08 8.96755e-15)
(0.048865 -1.27708e-08 8.81632e-15)
(0.048865 -2.11214e-09 8.78612e-15)
(0.048865 7.73653e-09 8.73922e-15)
(0.0488649 1.52721e-08 8.72886e-15)
(0.0488648 2.02742e-08 8.82125e-15)
(0.0488646 2.30284e-08 8.87133e-15)
(0.0488645 2.39852e-08 8.85211e-15)
(0.0488643 2.36137e-08 8.95263e-15)
(0.0488642 2.23015e-08 8.54172e-15)
(0.0488641 2.03536e-08 8.6142e-15)
(0.048864 1.80307e-08 8.34052e-15)
(0.0488639 1.55499e-08 8.18294e-15)
(0.0488638 1.30451e-08 8.59954e-15)
(0.0488637 1.05615e-08 8.3336e-15)
(0.0488637 8.13947e-09 8.388e-15)
(0.0488636 5.8324e-09 7.9993e-15)
(0.0488636 3.6473e-09 7.98157e-15)
(0.0488636 1.57051e-09 8.24119e-15)
(0.0488636 -3.86793e-10 8.27116e-15)
(0.0488636 -2.19119e-09 8.33518e-15)
(0.0488636 -3.8022e-09 8.24734e-15)
(0.0488636 -5.21497e-09 8.14311e-15)
(0.0488637 -6.47196e-09 8.41838e-15)
(0.0488637 -7.62172e-09 8.22709e-15)
(0.0488638 -8.68749e-09 8.24358e-15)
(0.0488638 -9.65099e-09 8.09382e-15)
(0.0488639 -1.04817e-08 8.06194e-15)
(0.0488639 -1.11899e-08 8.33472e-15)
(0.048864 -1.18197e-08 8.21197e-15)
(0.0488641 -1.23892e-08 8.1737e-15)
(0.0488642 -1.28747e-08 7.99743e-15)
(0.0488642 -1.32381e-08 7.94999e-15)
(0.0488643 -1.34965e-08 8.18502e-15)
(0.0488644 -1.36875e-08 8.03223e-15)
(0.0488645 -1.38411e-08 8.03834e-15)
(0.0488646 -1.38299e-08 7.95573e-15)
(0.0488647 -1.36715e-08 7.93978e-15)
(0.0488648 -1.31058e-08 7.98875e-15)
(0.0488648 -1.23458e-08 8.16907e-15)
(0.0488649 -1.08419e-08 8.29825e-15)
(0.048865 -8.86156e-09 8.29826e-15)
(0.048865 -6.29962e-09 8.3856e-15)
(0.0488651 -3.13267e-09 8.38356e-15)
(0.0488651 -1.35484e-09 8.61305e-15)
(0.0488651 -5.01952e-10 8.71057e-15)
(0.0488651 -4.35832e-10 8.82114e-15)
(0.0488651 -1.14636e-09 8.731e-15)
(0.0488651 -1.82931e-09 8.65333e-15)
(0.0488652 -2.46656e-09 8.83255e-15)
(0.0488652 -3.0156e-09 8.8251e-15)
(0.0488652 -3.41373e-09 9.08702e-15)
(0.0488652 -3.62921e-09 8.9936e-15)
(0.0488652 -3.61363e-09 8.8541e-15)
(0.0488653 -3.33065e-09 9.29299e-15)
(0.0488653 -2.81313e-09 9.02069e-15)
(0.0488653 -2.10661e-09 9.17749e-15)
(0.0488653 -1.21129e-09 9.16328e-15)
(0.0488653 -1.29032e-10 8.98222e-15)
(0.0488653 1.06986e-09 9.25084e-15)
(0.0488653 2.28144e-09 9.13303e-15)
(0.0488652 3.45048e-09 9.24353e-15)
(0.0488652 4.54834e-09 9.33975e-15)
(0.0488652 5.52609e-09 9.15822e-15)
(0.0488651 6.34258e-09 9.44453e-15)
(0.0488651 6.98278e-09 9.28905e-15)
(0.0488651 7.46955e-09 9.35013e-15)
(0.048865 7.86442e-09 9.41543e-15)
(0.048865 8.17916e-09 9.23098e-15)
(0.0488649 8.35287e-09 9.41039e-15)
(0.0488648 8.36124e-09 9.4396e-15)
(0.0488648 8.24242e-09 9.8218e-15)
(0.0488647 8.04676e-09 9.458e-15)
(0.0488647 7.82539e-09 9.24144e-15)
(0.0488646 7.58762e-09 9.39043e-15)
(0.0488646 7.29002e-09 9.40915e-15)
(0.0488645 6.91649e-09 9.54875e-15)
(0.0488645 6.49038e-09 9.44327e-15)
(0.0488645 6.03376e-09 9.89993e-15)
(0.0488644 5.57418e-09 9.29809e-15)
(0.0488644 5.14367e-09 9.26088e-15)
(0.0488644 4.75062e-09 9.5055e-15)
(0.0488643 4.29955e-09 9.02907e-15)
(0.0488643 3.74372e-09 9.47698e-15)
(0.0488643 2.98788e-09 9.16191e-15)
(0.0488643 2.25859e-09 9.12403e-15)
(0.0488642 1.72212e-09 9.43001e-15)
(0.0488642 1.35776e-09 8.80647e-15)
(0.0488642 1.19663e-09 9.58602e-15)
(0.0488642 1.04127e-09 8.98309e-15)
(0.0488642 8.52323e-10 9.09356e-15)
(0.0488642 6.28517e-10 9.38036e-15)
(0.0488642 3.1397e-10 9.01749e-15)
(0.0488642 -1.02753e-10 9.4849e-15)
(0.0488642 -6.29135e-10 9.06977e-15)
(0.0488642 -1.17968e-09 9.05967e-15)
(0.0488642 -1.77472e-09 9.36413e-15)
(0.0488642 -2.12233e-09 8.83982e-15)
(0.0488642 -2.42527e-09 9.40833e-15)
(0.0488642 -2.13962e-09 8.99758e-15)
(0.0488643 -1.54625e-09 9.14875e-15)
(0.0488643 -4.12068e-10 9.39395e-15)
(0.0488643 1.1568e-09 8.91304e-15)
(0.0488643 1.68921e-09 9.35306e-15)
(0.0488643 1.47236e-09 9.00557e-15)
(0.0488643 5.48391e-10 9.07026e-15)
(0.0488643 -8.21431e-10 9.27262e-15)
(0.0488643 -2.34317e-09 8.80446e-15)
(0.0488643 -3.81535e-09 9.21411e-15)
(0.0488644 -5.07248e-09 9.24413e-15)
(0.0488644 -6.09623e-09 9.19713e-15)
(0.0488644 -6.78147e-09 9.33341e-15)
(0.0488645 -7.21178e-09 8.95229e-15)
(0.0488645 -7.19933e-09 9.38997e-15)
(0.0488645 -6.24795e-09 9.33574e-15)
(0.0488646 -6.40009e-09 9.28836e-15)
(0.0488646 -2.78233e-09 9.38671e-15)
(0.0488646 -9.89378e-11 9.02123e-15)
(0.056798 -1.70318e-08 1.08038e-14)
(0.0567982 -2.79487e-08 1.05051e-14)
(0.0567983 -2.55292e-08 1.05201e-14)
(0.0567983 -1.42774e-08 1.04734e-14)
(0.0567983 -3.6836e-10 1.04282e-14)
(0.0567983 1.21749e-08 1.03543e-14)
(0.0567982 2.1713e-08 1.03348e-14)
(0.056798 2.80215e-08 1.0394e-14)
(0.0567979 3.14595e-08 1.04224e-14)
(0.0567977 3.25909e-08 1.04129e-14)
(0.0567976 3.20035e-08 1.05059e-14)
(0.0567975 3.0188e-08 9.91598e-15)
(0.0567973 2.75376e-08 1.00958e-14)
(0.0567972 2.43909e-08 9.52474e-15)
(0.0567971 2.1032e-08 9.68628e-15)
(0.056797 1.76396e-08 1.01549e-14)
(0.0567969 1.42764e-08 9.74897e-15)
(0.0567969 1.09933e-08 9.83415e-15)
(0.0567968 7.85851e-09 9.42673e-15)
(0.0567968 4.88727e-09 9.44936e-15)
(0.0567968 2.06784e-09 9.53329e-15)
(0.0567968 -5.86034e-10 9.71047e-15)
(0.0567968 -3.03292e-09 9.7934e-15)
(0.0567968 -5.22281e-09 9.56957e-15)
(0.0567969 -7.1532e-09 9.76722e-15)
(0.0567969 -8.8779e-09 9.78074e-15)
(0.0567969 -1.04535e-08 9.50133e-15)
(0.056797 -1.19087e-08 9.59303e-15)
(0.0567971 -1.32249e-08 9.42847e-15)
(0.0567971 -1.43643e-08 9.67097e-15)
(0.0567972 -1.53373e-08 9.69945e-15)
(0.0567973 -1.61997e-08 9.34894e-15)
(0.0567973 -1.69756e-08 9.54044e-15)
(0.0567974 -1.76365e-08 9.17445e-15)
(0.0567975 -1.81376e-08 9.50071e-15)
(0.0567976 -1.85025e-08 9.52468e-15)
(0.0567977 -1.87774e-08 9.28895e-15)
(0.0567978 -1.89948e-08 9.39055e-15)
(0.0567979 -1.90002e-08 9.23739e-15)
(0.056798 -1.88099e-08 9.46041e-15)
(0.0567981 -1.81081e-08 9.46795e-15)
(0.0567981 -1.71324e-08 9.74863e-15)
(0.0567982 -1.52152e-08 9.76291e-15)
(0.0567983 -1.2666e-08 9.82598e-15)
(0.0567984 -9.34764e-09 9.81027e-15)
(0.0567984 -5.24178e-09 9.79157e-15)
(0.0567984 -2.7692e-09 1.01899e-14)
(0.0567985 -1.46121e-09 1.01831e-14)
(0.0567985 -1.19587e-09 1.02315e-14)
(0.0567985 -1.95006e-09 1.0174e-14)
(0.0567985 -2.74041e-09 1.00866e-14)
(0.0567985 -3.50187e-09 1.04291e-14)
(0.0567986 -4.15785e-09 1.02872e-14)
(0.0567986 -4.62413e-09 1.05664e-14)
(0.0567986 -4.84978e-09 1.05333e-14)
(0.0567986 -4.76636e-09 1.02343e-14)
(0.0567986 -4.32692e-09 1.0614e-14)
(0.0567987 -3.57428e-09 1.05358e-14)
(0.0567987 -2.5687e-09 1.08231e-14)
(0.0567987 -1.31543e-09 1.07575e-14)
(0.0567987 1.76657e-10 1.03975e-14)
(0.0567987 1.8126e-09 1.0737e-14)
(0.0567986 3.45721e-09 1.06588e-14)
(0.0567986 5.03748e-09 1.0893e-14)
(0.0567986 6.51377e-09 1.08959e-14)
(0.0567985 7.82383e-09 1.0568e-14)
(0.0567985 8.91794e-09 1.09706e-14)
(0.0567984 9.77866e-09 1.08175e-14)
(0.0567984 1.04347e-08 1.1037e-14)
(0.0567983 1.0961e-08 1.09951e-14)
(0.0567983 1.13705e-08 1.06629e-14)
(0.0567982 1.15915e-08 1.10669e-14)
(0.0567982 1.1598e-08 1.09947e-14)
(0.0567981 1.14365e-08 1.12117e-14)
(0.0567981 1.11698e-08 1.10904e-14)
(0.056798 1.0865e-08 1.07012e-14)
(0.056798 1.05348e-08 1.10664e-14)
(0.0567979 1.01254e-08 1.09649e-14)
(0.0567979 9.61745e-09 1.12376e-14)
(0.0567978 9.04256e-09 1.10668e-14)
(0.0567978 8.42961e-09 1.12543e-14)
(0.0567977 7.81177e-09 1.09815e-14)
(0.0567977 7.22738e-09 1.08573e-14)
(0.0567976 6.68551e-09 1.13188e-14)
(0.0567976 6.06719e-09 1.08465e-14)