/*--------------------------------*- C++ -*----------------------------------*\
  =========                 |
  \\      /  F ield         | OpenFOAM: The Open Source CFD Toolbox
   \\    /   O peration     | Website:  https://openfoam.org
    \\  /    A nd           | Version:  7
     \\/     M anipulation  |
\*---------------------------------------------------------------------------*/
FoamFile
{
    version     2.0;
    format      ascii;
    class       volScalarField;
    location    "97500";
    object      nut;
}
// * * * * * * * * * * * * * * * * * * * * * * * * * * * * * * * * * * * * * //

dimensions      [0 2 -1 0 0 0 0];

internalField   nonuniform List<scalar> 
600
(
3.20875e-18
5.63718e-16
1.19098e-14
9.25377e-14
4.25048e-13
1.42491e-12
3.88234e-12
9.14096e-12
1.93183e-11
3.75739e-11
6.8432e-11
1.18166e-10
1.95254e-10
3.10911e-10
4.79716e-10
7.20332e-10
1.05634e-09
1.51722e-09
2.1394e-09
2.96756e-09
4.05598e-09
5.4702e-09
7.2887e-09
9.60494e-09
1.25295e-08
1.61925e-08
2.07461e-08
2.63674e-08
3.32615e-08
4.16644e-08
5.18465e-08
6.41161e-08
7.88228e-08
9.63607e-08
1.17172e-07
1.41751e-07
1.70643e-07
2.04455e-07
2.43846e-07
2.89539e-07
3.42314e-07
4.0301e-07
4.72524e-07
5.51803e-07
6.41848e-07
7.43697e-07
8.58428e-07
9.87144e-07
1.13097e-06
1.29102e-06
1.46844e-06
1.66432e-06
1.87974e-06
2.11576e-06
2.37336e-06
2.65348e-06
2.95698e-06
3.28468e-06
3.63728e-06
4.01543e-06
4.41969e-06
4.85054e-06
5.30838e-06
5.79356e-06
6.30631e-06
6.84685e-06
7.4153e-06
8.01176e-06
8.63627e-06
9.28882e-06
9.96939e-06
1.06779e-05
1.14143e-05
1.21784e-05
1.29702e-05
1.37895e-05
1.46362e-05
1.55101e-05
1.6411e-05
1.72844e-05
1.81661e-05
1.90732e-05
2.00088e-05
2.09737e-05
2.19683e-05
2.29932e-05
2.40485e-05
2.51348e-05
2.62524e-05
2.74015e-05
2.85826e-05
2.9796e-05
3.10421e-05
3.2321e-05
3.36332e-05
3.4979e-05
3.63587e-05
3.77726e-05
3.9221e-05
4.07042e-05
4.22226e-05
4.37763e-05
4.53657e-05
4.6991e-05
4.86522e-05
5.03494e-05
5.20832e-05
5.3854e-05
5.56619e-05
5.75073e-05
5.93904e-05
6.13114e-05
6.32706e-05
6.52681e-05
6.73042e-05
6.93791e-05
7.14931e-05
7.36463e-05
7.5839e-05
7.80714e-05
8.03437e-05
8.2656e-05
8.50087e-05
8.74019e-05
8.98357e-05
9.23105e-05
9.48263e-05
9.73834e-05
9.9982e-05
0.000102622
0.000105304
0.000108028
0.000110794
0.000113603
0.000116454
0.000119348
0.000122284
0.000125264
0.000128286
0.000131352
0.000134462
0.000137615
0.000140811
0.000144052
0.000147336
0.000150665
0.000154037
0.000157454
0.000160916
0.000164422
0.000167972
0.000171568
0.000175208
0.000178893
0.000182622
0.000186397
0.000190217
0.000194082
0.000197992
0.000201948
0.000205948
0.000209994
0.000214085
0.000218221
0.000222402
0.000226629
0.000230901
0.000235217
0.000239579
0.000243986
0.000248438
0.000252935
0.000257477
0.000262063
0.000266694
0.000271369
0.000276088
0.000280852
0.00028566
0.000290511
0.000295406
0.000300345
0.000305327
0.000310351
0.000315419
0.000320528
0.00032568
0.000330874
0.00033611
0.000341387
0.000346704
0.000352063
0.000357461
0.0003629
0.000368378
0.000373895
0.00037945
0.000385044
0.000390675
0.000396344
0.000402049
0.000407791
0.000413568
0.000419381
0.000425228
0.00043111
0.000437026
0.000442976
0.00044896
0.00045498
0.000461036
0.000467131
0.000473269
0.000479455
0.000485696
0.000492005
0.000498394
0.000504883
0.000511496
0.000518264
0.000525219
0.000532401
0.000539848
0.000547591
0.000555646
0.000563989
0.00057254
0.000581118
0.000589389
0.000596807
0.000603888
0.000610994
0.000618123
0.000625274
0.000632447
0.000639639
0.00064685
0.000654078
0.000661323
0.000668583
0.000675857
0.000683143
0.000690441
0.000697748
0.000705065
0.000712389
0.000719719
0.000727054
0.000734392
0.000741733
0.000749074
0.000756414
0.000763752
0.000771086
0.000778414
0.000785736
0.000793049
0.000800351
0.000807642
0.000814918
0.000822179
0.000829422
0.000836645
0.000843845
0.000851021
0.000858169
0.000865287
0.000872372
0.00087942
0.000886428
0.000893391
0.000900307
0.000907169
0.000913973
0.000920712
0.000927382
0.000933974
0.000940481
0.000946894
0.000953205
0.000959403
0.000965477
0.000971414
0.000977202
0.000982824
0.000988267
0.000993511
0.000998539
0.00100333
0.00100786
0.00101212
0.00101607
0.00101969
0.00102295
0.00102584
0.00102831
0.00103034
0.00103191
0.00103298
0.00103353
0.00103353
0.00103298
0.00103191
0.00103034
0.00102831
0.00102584
0.00102295
0.00101969
0.00101607
0.00101212
0.00100786
0.00100333
0.000998539
0.000993511
0.000988267
0.000982824
0.000977202
0.000971414
0.000965477
0.000959403
0.000953205
0.000946894
0.000940481
0.000933974
0.000927382
0.000920712
0.000913973
0.000907169
0.000900307
0.000893391
0.000886428
0.00087942
0.000872372
0.000865287
0.000858169
0.000851021
0.000843845
0.000836645
0.000829422
0.000822179
0.000814918
0.000807642
0.000800351
0.000793049
0.000785736
0.000778414
0.000771086
0.000763752
0.000756414
0.000749074
0.000741733
0.000734392
0.000727054
0.000719719
0.000712389
0.000705065
0.000697748
0.000690441
0.000683143
0.000675857
0.000668583
0.000661323
0.000654078
0.00064685
0.000639639
0.000632447
0.000625274
0.000618123
0.000610994
0.000603888
0.000596807
0.000589389
0.000581118
0.00057254
0.000563989
0.000555646
0.000547591
0.000539848
0.000532401
0.000525219
0.000518264
0.000511496
0.000504883
0.000498394
0.000492005
0.000485696
0.000479455
0.000473269
0.000467131
0.000461036
0.00045498
0.00044896
0.000442976
0.000437026
0.00043111
0.000425228
0.000419381
0.000413568
0.000407791
0.000402049
0.000396344
0.000390675
0.000385044
0.00037945
0.000373895
0.000368378
0.0003629
0.000357461
0.000352063
0.000346704
0.000341387
0.00033611
0.000330874
0.00032568
0.000320528
0.000315419
0.000310351
0.000305327
0.000300345
0.000295406
0.000290511
0.00028566
0.000280852
0.000276088
0.000271369
0.000266694
0.000262063
0.000257477
0.000252935
0.000248438
0.000243986
0.000239579
0.000235217
0.000230901
0.000226629
0.000222402
0.000218221
0.000214085
0.000209994
0.000205948
0.000201948
0.000197992
0.000194082
0.000190217
0.000186397
0.000182622
0.000178893
0.000175208
0.000171568
0.000167972
0.000164422
0.000160916
0.000157454
0.000154037
0.000150665
0.000147336
0.000144052
0.000140811
0.000137615
0.000134462
0.000131352
0.000128286
0.000125264
0.000122284
0.000119348
0.000116454
0.000113603
0.000110794
0.000108028
0.000105304
0.000102622
9.9982e-05
9.73834e-05
9.48263e-05
9.23105e-05
8.98357e-05
8.74019e-05
8.50087e-05
8.2656e-05
8.03437e-05
7.80714e-05
7.5839e-05
7.36463e-05
7.14931e-05
6.93791e-05
6.73042e-05
6.52681e-05
6.32706e-05
6.13114e-05
5.93904e-05
5.75073e-05
5.56619e-05
5.3854e-05
5.20832e-05
5.03494e-05
4.86522e-05
4.6991e-05
4.53657e-05
4.37763e-05
4.22226e-05
4.07042e-05
3.9221e-05
3.77726e-05
3.63587e-05
3.4979e-05
3.36332e-05
3.2321e-05
3.10421e-05
2.9796e-05
2.85826e-05
2.74015e-05
2.62524e-05
2.51348e-05
2.40485e-05
2.29932e-05
2.19683e-05
2.09737e-05
2.00087e-05
1.90732e-05
1.81661e-05
1.72844e-05
1.6411e-05
1.55101e-05
1.46362e-05
1.37895e-05
1.29702e-05
1.21784e-05
1.14143e-05
1.06779e-05
9.96939e-06
9.28882e-06
8.63627e-06
8.01176e-06
7.4153e-06
6.84685e-06
6.30631e-06
5.79356e-06
5.30838e-06
4.85054e-06
4.41969e-06
4.01543e-06
3.63728e-06
3.28468e-06
2.95698e-06
2.65348e-06
2.37336e-06
2.11576e-06
1.87974e-06
1.66432e-06
1.46844e-06
1.29102e-06
1.13097e-06
9.87144e-07
8.58428e-07
7.43697e-07
6.41848e-07
5.51803e-07
4.72524e-07
4.0301e-07
3.42314e-07
2.89539e-07
2.43846e-07
2.04455e-07
1.70643e-07
1.41751e-07
1.17172e-07
9.63607e-08
7.88228e-08
6.41161e-08
5.18465e-08
4.16644e-08
3.32615e-08
2.63674e-08
2.07461e-08
1.61925e-08
1.25295e-08
9.60495e-09
7.2887e-09
5.4702e-09
4.05599e-09
2.96756e-09
2.1394e-09
1.51722e-09
1.05634e-09
7.20331e-10
4.79716e-10
3.10911e-10
1.95254e-10
1.18166e-10
6.84319e-11
3.75739e-11
1.93183e-11
9.14097e-12
3.88234e-12
1.42491e-12
4.25047e-13
9.25375e-14
1.19098e-14
5.63718e-16
3.20875e-18
)
;

boundaryField
{
    bottomWall
    {
        type            nutUWallFunction;
        Cmu             0.09;
        kappa           0.41;
        E               9.8;
        value           uniform 0;
    }
    topWall
    {
        type            nutUWallFunction;
        Cmu             0.09;
        kappa           0.41;
        E               9.8;
        value           uniform 0;
    }
    sides1_half0
    {
        type            empty;
    }
    sides1_half1
    {
        type            empty;
    }
    sides2_half0
    {
        type            empty;
    }
    sides2_half1
    {
        type            empty;
    }
    inout1_half0
    {
        type            cyclic;
    }
    inout1_half1
    {
        type            cyclic;
    }
    inout2_half0
    {
        type            cyclic;
    }
    inout2_half1
    {
        type            cyclic;
    }
}


// ************************************************************************* //
