/*--------------------------------*- C++ -*----------------------------------*\
  =========                 |
  \\      /  F ield         | OpenFOAM: The Open Source CFD Toolbox
   \\    /   O peration     | Website:  https://openfoam.org
    \\  /    A nd           | Version:  7
     \\/     M anipulation  |
\*---------------------------------------------------------------------------*/
FoamFile
{
    version     2.0;
    format      ascii;
    class       surfaceScalarField;
    location    "97500";
    object      phi;
}
// * * * * * * * * * * * * * * * * * * * * * * * * * * * * * * * * * * * * * //

dimensions      [0 3 -1 0 0 0 0];

internalField   nonuniform List<scalar> 
599
(
-3.7558e-16
-3.02089e-16
-3.14117e-16
-2.43003e-16
-2.26556e-16
-2.47452e-16
-2.5376e-16
-2.2488e-16
-2.46405e-16
-2.3731e-16
-2.32123e-16
-1.75164e-16
-1.78178e-16
-1.40153e-16
-1.15305e-16
-8.53265e-17
-9.41674e-17
-3.78751e-17
-3.43665e-17
-8.8842e-17
-5.69831e-17
-4.0044e-17
-3.09227e-17
-2.2953e-17
-8.91099e-17
-1.16739e-16
-1.47584e-16
-1.40903e-16
-1.30851e-16
-1.20287e-16
-1.31497e-16
-9.58405e-17
-1.64657e-16
-9.51421e-17
-5.00792e-17
3.23244e-17
3.37524e-17
-1.37704e-17
-3.36693e-17
5.72333e-19
-8.3205e-18
-5.18405e-17
1.89007e-17
-5.38106e-18
7.18589e-18
-3.20825e-17
-1.81793e-17
-1.14897e-16
-8.95221e-17
-8.79056e-17
-3.28778e-17
-3.93406e-18
-1.24655e-17
5.80596e-18
7.30645e-17
3.22338e-17
-1.33506e-17
-5.7897e-17
-6.22162e-17
1.70648e-17
3.84721e-18
-2.46826e-17
-4.25273e-17
-6.46823e-17
-1.40673e-16
-1.67811e-16
-1.86754e-16
-2.18477e-16
-1.72079e-16
-1.27965e-16
-1.77822e-16
-1.2659e-16
-1.64859e-16
-1.93159e-16
-1.42838e-16
-2.42753e-16
-2.51001e-16
-2.13045e-16
-2.74397e-16
-2.24826e-16
-2.47609e-16
-2.28472e-16
-2.07839e-16
-2.12955e-16
-1.99264e-16
-1.98277e-16
-2.1272e-16
-1.85227e-16
-1.73737e-16
-1.58031e-16
-7.39935e-17
-5.33758e-17
-9.28638e-17
-8.40549e-17
-7.19212e-17
-1.31176e-16
-1.307e-16
-1.32436e-16
-1.17309e-16
-9.41765e-17
-8.05373e-17
-1.07075e-16
-7.2232e-17
-9.16082e-17
-4.52433e-17
-2.47421e-17
-3.46378e-17
-5.00153e-19
-3.10219e-17
2.27524e-17
2.99345e-17
4.26861e-17
3.3495e-17
6.48709e-17
4.2752e-17
2.59667e-17
3.07335e-17
2.11133e-18
-9.33067e-18
-2.07723e-17
-3.43642e-17
-5.63575e-17
-6.08296e-17
-3.96723e-17
-2.74317e-17
-2.16942e-17
-1.79593e-17
-2.31924e-17
-4.04985e-17
-5.84553e-17
-4.34506e-17
-3.82149e-17
-2.80936e-17
-4.69343e-17
-2.26056e-17
-1.48298e-17
1.31247e-17
4.26888e-17
9.07047e-18
1.15215e-17
1.53132e-17
-1.20417e-17
-1.04334e-17
-1.2276e-17
2.23294e-17
-1.18091e-18
2.42659e-18
-2.73963e-17
-1.84182e-17
-4.50989e-17
-2.11999e-17
-3.8839e-17
-4.3679e-17
-2.84278e-17
-1.40421e-17
-1.81318e-18
1.3269e-18
7.53794e-18
4.08839e-18
-1.78629e-17
8.59871e-18
2.94056e-17
2.23914e-17
1.33737e-17
-2.19716e-17
-3.13544e-17
-4.86596e-17
-5.39688e-17
-5.84078e-17
-9.61841e-17
-1.2246e-16
-8.44198e-17
-8.78776e-17
-6.66302e-17
-8.95492e-17
-9.12949e-17
-1.05027e-16
-6.06532e-17
-5.09987e-17
-9.92277e-17
-7.21438e-17
-1.07103e-16
-1.05349e-16
-9.77194e-17
-1.16915e-16
-7.98059e-17
-9.30295e-17
-7.77366e-17
-6.52784e-17
-6.25357e-17
-3.47148e-17
-5.47505e-17
-8.13129e-17
-6.54332e-17
-2.59618e-17
-4.98426e-17
-5.81146e-17
-8.48946e-17
-7.06496e-17
-6.28286e-17
-7.00749e-17
-5.29812e-17
-4.08592e-17
-6.37662e-17
-4.8599e-17
-3.87465e-17
-2.55934e-17
-7.03189e-17
-3.26628e-17
-2.18312e-17
-3.59771e-17
-3.93434e-17
3.08639e-18
-1.40979e-17
-5.89747e-17
-7.65192e-17
-7.30406e-17
-7.72113e-17
-7.90462e-17
-1.13117e-16
-1.17499e-16
-1.31586e-16
-1.33578e-16
-1.07143e-16
-7.61291e-17
-7.55842e-17
-1.08634e-16
-1.39218e-16
-1.45269e-16
-1.56488e-16
-1.47941e-16
-1.40397e-16
-1.36115e-16
-9.54079e-17
-1.06871e-16
-1.30122e-16
-1.32091e-16
-1.39535e-16
-1.45577e-16
-1.57396e-16
-1.46317e-16
-1.31946e-16
-1.36643e-16
-1.15621e-16
-1.05704e-16
-1.26247e-16
-1.25182e-16
-1.12073e-16
-1.20293e-16
-1.20956e-16
-1.22954e-16
-1.10136e-16
-9.56046e-17
-9.75513e-17
-7.48553e-17
-5.46193e-17
-6.00644e-17
-4.34744e-17
-4.6631e-17
-7.29254e-17
-9.13211e-17
-7.11098e-17
-7.51818e-17
-9.24474e-17
-9.15568e-17
-9.8863e-17
-9.34522e-17
-1.22432e-16
-1.37923e-16
-1.40745e-16
-1.52683e-16
-1.72792e-16
-1.89836e-16
-1.91871e-16
-1.93081e-16
-2.3771e-16
-1.97344e-16
-2.02399e-16
-1.76298e-16
-1.83432e-16
-2.05252e-16
-1.97906e-16
-2.23132e-16
-2.12942e-16
-2.33463e-16
-2.78783e-16
-2.8132e-16
-2.88413e-16
-2.77905e-16
-2.45474e-16
-2.86872e-16
-2.6488e-16
-2.29703e-16
-2.51159e-16
-2.64466e-16
-2.42885e-16
-2.32848e-16
-2.65222e-16
-2.56337e-16
-2.44726e-16
-2.08297e-16
-2.40957e-16
-2.2789e-16
-1.87349e-16
-1.81666e-16
-1.81282e-16
-1.72173e-16
-1.91637e-16
-2.09368e-16
-1.92616e-16
-2.11192e-16
-2.30142e-16
-2.32674e-16
-2.07025e-16
-2.02944e-16
-1.68242e-16
-1.63372e-16
-1.40357e-16
-1.52653e-16
-1.41578e-16
-1.77432e-16
-1.61323e-16
-1.55975e-16
-2.06986e-16
-1.64094e-16
-1.57097e-16
-1.45537e-16
-1.46318e-16
-1.6252e-16
-1.62422e-16
-1.41464e-16
-1.31377e-16
-1.4714e-16
-1.42807e-16
-1.41704e-16
-1.19349e-16
-1.17696e-16
-1.23064e-16
-1.02024e-16
-7.78094e-17
-5.74359e-17
-5.75412e-17
-7.30802e-17
-8.25282e-17
-1.10674e-16
-7.62545e-17
-7.32667e-17
-2.21286e-17
-6.87719e-17
-6.21044e-17
-8.66458e-17
-7.88905e-17
-9.51547e-17
-9.04916e-17
-5.24186e-17
-1.22338e-17
-2.77772e-17
-3.83534e-17
-4.40574e-17
-5.64691e-17
-3.27153e-17
-2.7042e-17
-3.59698e-17
-6.46573e-17
-7.814e-17
-5.99276e-17
-5.96971e-17
-7.28865e-17
-4.71111e-17
-1.6681e-17
-4.15207e-17
-5.72333e-17
-7.09993e-17
-7.50409e-17
-8.05114e-17
-4.35733e-17
-4.3035e-17
-5.43848e-17
-8.6348e-17
-3.65604e-17
-4.79898e-17
-7.32462e-17
-4.69461e-17
-3.31167e-17
-3.47247e-17
-5.02552e-17
-5.47876e-17
-6.12558e-17
-9.22377e-17
-7.2292e-17
-7.7021e-17
-5.75555e-17
-6.25794e-17
-5.11539e-17
-6.89347e-17
-3.80387e-17
-5.9532e-17
-8.41664e-17
-6.65584e-17
-7.5657e-17
-7.94872e-17
-5.94458e-17
-4.46847e-17
-3.75198e-17
-5.46928e-17
-5.07467e-17
-3.47072e-17
-6.17382e-17
-7.34455e-17
-5.32632e-17
-6.69183e-17
-6.58267e-17
-7.09322e-17
-1.01379e-16
-9.71377e-17
-9.71272e-17
-8.9215e-17
-4.30799e-17
-2.29288e-17
-3.30397e-17
-1.36911e-17
4.53002e-18
-1.17471e-18
-4.78287e-17
-6.7797e-17
-5.54019e-17
-8.35697e-17
-9.8194e-17
-8.94164e-17
-1.04513e-16
-1.28035e-16
-1.51856e-16
-1.6343e-16
-1.71379e-16
-1.52431e-16
-1.57318e-16
-1.59523e-16
-1.30153e-16
-1.29407e-16
-1.8136e-16
-1.69104e-16
-1.569e-16
-1.96432e-16
-2.11707e-16
-2.02175e-16
-1.99715e-16
-1.99253e-16
-1.92881e-16
-2.11645e-16
-2.01334e-16
-1.93905e-16
-1.80691e-16
-1.94491e-16
-1.84698e-16
-2.21998e-16
-2.45708e-16
-2.85247e-16
-3.29341e-16
-3.0307e-16
-3.34443e-16
-2.97439e-16
-2.6619e-16
-2.44377e-16
-2.17766e-16
-2.14812e-16
-2.28953e-16
-2.51595e-16
-2.78048e-16
-3.05342e-16
-3.14738e-16
-2.91125e-16
-3.19015e-16
-3.07449e-16
-2.89002e-16
-3.08881e-16
-3.09136e-16
-3.22536e-16
-3.29181e-16
-3.2439e-16
-3.65904e-16
-3.40571e-16
-3.70485e-16
-3.61095e-16
-3.48735e-16
-3.65959e-16
-3.41399e-16
-3.21208e-16
-3.29853e-16
-3.55331e-16
-3.77472e-16
-3.96306e-16
-4.14182e-16
-4.33752e-16
-4.17741e-16
-4.13346e-16
-4.1355e-16
-4.32708e-16
-3.85567e-16
-4.05413e-16
-4.27172e-16
-4.0401e-16
-4.43711e-16
-4.26206e-16
-4.3135e-16
-4.5544e-16
-4.4561e-16
-4.38355e-16
-4.71124e-16
-4.58323e-16
-4.70072e-16
-4.71824e-16
-4.37251e-16
-4.27873e-16
-4.16318e-16
-4.65586e-16
-3.67546e-16
-3.70492e-16
-3.80886e-16
-3.40572e-16
-3.61376e-16
-3.55802e-16
-4.31459e-16
-3.74164e-16
-3.57763e-16
-4.46471e-16
-3.92815e-16
-3.53865e-16
-3.56978e-16
-3.27004e-16
-3.89485e-16
-2.88944e-16
-3.76445e-16
-3.00822e-16
-4.08557e-16
-3.71239e-16
-3.99726e-16
-3.33832e-16
-3.02288e-16
-2.5724e-16
-2.92781e-16
-1.60273e-16
-1.6945e-16
-1.32813e-16
-2.071e-16
-1.3846e-16
-1.6279e-16
-1.8158e-16
-1.67952e-16
-1.32801e-16
-1.25921e-16
-9.61147e-17
-1.54652e-16
-6.28659e-17
-8.83808e-17
-4.42007e-17
-1.04697e-16
-8.94157e-17
-8.14342e-17
-5.01348e-17
-6.81599e-17
-4.99005e-17
4.40692e-17
6.66523e-18
8.18871e-18
5.133e-17
1.40671e-17
2.10867e-18
2.09947e-17
-1.13741e-17
-1.49789e-17
1.16695e-17
3.68568e-17
2.95971e-17
1.16624e-17
5.04425e-17
5.99604e-17
4.42999e-18
-1.3694e-17
3.19953e-18
1.28163e-17
-7.52449e-18
-3.18566e-18
-1.73828e-17
-3.4804e-17
-3.38595e-17
-3.37675e-17
-3.03524e-17
-9.39262e-18
1.02421e-17
3.96721e-17
3.75151e-18
3.10858e-17
2.25245e-17
1.38768e-17
-6.25881e-18
7.83377e-18
-1.53025e-17
-6.75263e-18
6.47847e-18
)
;

boundaryField
{
    bottomWall
    {
        type            calculated;
        value           uniform 0;
    }
    topWall
    {
        type            calculated;
        value           uniform 0;
    }
    sides1_half0
    {
        type            empty;
        value           nonuniform 0();
    }
    sides1_half1
    {
        type            empty;
        value           nonuniform 0();
    }
    sides2_half0
    {
        type            empty;
        value           nonuniform 0();
    }
    sides2_half1
    {
        type            empty;
        value           nonuniform 0();
    }
    inout1_half0
    {
        type            cyclic;
        value           nonuniform List<scalar> 
300
(
7.13252e-09
2.18399e-08
3.72297e-08
5.33268e-08
7.01567e-08
8.77457e-08
1.06121e-07
1.25311e-07
1.45344e-07
1.66251e-07
1.88062e-07
2.1081e-07
2.34527e-07
2.59248e-07
2.85009e-07
3.11844e-07
3.39792e-07
3.68891e-07
3.99182e-07
4.30706e-07
4.63504e-07
4.97621e-07
5.33102e-07
5.69992e-07
6.0834e-07
6.48194e-07
6.89605e-07
7.32623e-07
7.77302e-07
8.23695e-07
8.71856e-07
9.21843e-07
9.73711e-07
1.02752e-06
1.08332e-06
1.14118e-06
1.20116e-06
1.26331e-06
1.32769e-06
1.39436e-06
1.46338e-06
1.5348e-06
1.60868e-06
1.68507e-06
1.76402e-06
1.84558e-06
1.92979e-06
2.01669e-06
2.10633e-06
2.19873e-06
2.29393e-06
2.39195e-06
2.49282e-06
2.59654e-06
2.70315e-06
2.81264e-06
2.92503e-06
3.04032e-06
3.15852e-06
3.27962e-06
3.40362e-06
3.53053e-06
3.66035e-06
3.79306e-06
3.92868e-06
4.06721e-06
4.20864e-06
4.35299e-06
4.50026e-06
4.65046e-06
4.8036e-06
4.95971e-06
5.11879e-06
5.28087e-06
5.44598e-06
5.61414e-06
5.78539e-06
5.95975e-06
6.13727e-06
6.31805e-06
6.50221e-06
6.68982e-06
6.88092e-06
7.07556e-06
7.27377e-06
7.47561e-06
7.68112e-06
7.89035e-06
8.10335e-06
8.32017e-06
8.54087e-06
8.7655e-06
8.99412e-06
9.2268e-06
9.46358e-06
9.70455e-06
9.94975e-06
1.01993e-05
1.04532e-05
1.07115e-05
1.09744e-05
1.12419e-05
1.1514e-05
1.17909e-05
1.20727e-05
1.23593e-05
1.2651e-05
1.29478e-05
1.32497e-05
1.3557e-05
1.38696e-05
1.41876e-05
1.45113e-05
1.48406e-05
1.51756e-05
1.55165e-05
1.58634e-05
1.62164e-05
1.65755e-05
1.69409e-05
1.73128e-05
1.76912e-05
1.80762e-05
1.8468e-05
1.88667e-05
1.92724e-05
1.96852e-05
2.01054e-05
2.05329e-05
2.09679e-05
2.14107e-05
2.18612e-05
2.23197e-05
2.27863e-05
2.32612e-05
2.37445e-05
2.42363e-05
2.47368e-05
2.52461e-05
2.57645e-05
2.62921e-05
2.68291e-05
2.73756e-05
2.79317e-05
2.84978e-05
2.90738e-05
2.96602e-05
3.02569e-05
3.08642e-05
3.14824e-05
3.21115e-05
3.27518e-05
3.34035e-05
3.40668e-05
3.47419e-05
3.5429e-05
3.61284e-05
3.68402e-05
3.75647e-05
3.83021e-05
3.90526e-05
3.98165e-05
4.0594e-05
4.13853e-05
4.21907e-05
4.30105e-05
4.38449e-05
4.46942e-05
4.55586e-05
4.64384e-05
4.73339e-05
4.82454e-05
4.9173e-05
5.01172e-05
5.10783e-05
5.20564e-05
5.3052e-05
5.40653e-05
5.50967e-05
5.61464e-05
5.72149e-05
5.83023e-05
5.94091e-05
6.05356e-05
6.16822e-05
6.28491e-05
6.40368e-05
6.52457e-05
6.6476e-05
6.77282e-05
6.90027e-05
7.02998e-05
7.16199e-05
7.29635e-05
7.43309e-05
7.57226e-05
7.7139e-05
7.85805e-05
8.00476e-05
8.15407e-05
8.30602e-05
8.46066e-05
8.61804e-05
8.77821e-05
8.9412e-05
9.10708e-05
9.27589e-05
9.44768e-05
9.6225e-05
9.8004e-05
9.98144e-05
0.000101657
0.000103531
0.000105439
0.00010738
0.000109355
0.000111365
0.00011341
0.00011549
0.000117607
0.00011976
0.000121951
0.000124179
0.000126446
0.000128751
0.000131095
0.000133478
0.000135902
0.000138367
0.000140874
0.000143423
0.000146016
0.000148654
0.000151337
0.000154066
0.000156841
0.000159663
0.000162534
0.000165453
0.000168421
0.00017144
0.00017451
0.000177631
0.000180805
0.000184033
0.000187314
0.00019065
0.000194042
0.00019749
0.000200995
0.000204558
0.00020818
0.000211861
0.000215603
0.000219406
0.000223271
0.000227199
0.00023119
0.000235246
0.000239367
0.000243554
0.000247808
0.000252129
0.000256519
0.000260978
0.000265507
0.000270106
0.000274777
0.000279519
0.000284335
0.000289224
0.000294188
0.000299226
0.000304339
0.000309529
0.000314795
0.000320139
0.000325561
0.00033106
0.000336639
0.000342296
0.000348033
0.00035385
0.000359747
0.000365724
0.000371781
0.000377919
0.000384138
0.000390437
0.000396816
0.000403276
0.000409815
0.000416433
0.00042313
0.000429904
0.000436756
0.000443683
0.000450685
0.00045776
0.000464907
)
;
    }
    inout1_half1
    {
        type            cyclic;
        value           nonuniform List<scalar> 
300
(
-7.13252e-09
-2.18399e-08
-3.72297e-08
-5.33268e-08
-7.01567e-08
-8.77457e-08
-1.06121e-07
-1.25311e-07
-1.45344e-07
-1.66251e-07
-1.88062e-07
-2.1081e-07
-2.34527e-07
-2.59248e-07
-2.85009e-07
-3.11844e-07
-3.39792e-07
-3.68891e-07
-3.99182e-07
-4.30706e-07
-4.63504e-07
-4.97621e-07
-5.33102e-07
-5.69992e-07
-6.0834e-07
-6.48194e-07
-6.89605e-07
-7.32623e-07
-7.77302e-07
-8.23695e-07
-8.71856e-07
-9.21843e-07
-9.73711e-07
-1.02752e-06
-1.08332e-06
-1.14118e-06
-1.20116e-06
-1.26331e-06
-1.32769e-06
-1.39436e-06
-1.46338e-06
-1.5348e-06
-1.60868e-06
-1.68507e-06
-1.76402e-06
-1.84558e-06
-1.92979e-06
-2.01669e-06
-2.10633e-06
-2.19873e-06
-2.29393e-06
-2.39195e-06
-2.49282e-06
-2.59654e-06
-2.70315e-06
-2.81264e-06
-2.92503e-06
-3.04032e-06
-3.15852e-06
-3.27962e-06
-3.40362e-06
-3.53053e-06
-3.66035e-06
-3.79306e-06
-3.92868e-06
-4.06721e-06
-4.20864e-06
-4.35299e-06
-4.50026e-06
-4.65046e-06
-4.8036e-06
-4.95971e-06
-5.11879e-06
-5.28087e-06
-5.44598e-06
-5.61414e-06
-5.78539e-06
-5.95975e-06
-6.13727e-06
-6.31805e-06
-6.50221e-06
-6.68982e-06
-6.88092e-06
-7.07556e-06
-7.27377e-06
-7.47561e-06
-7.68112e-06
-7.89035e-06
-8.10335e-06
-8.32017e-06
-8.54087e-06
-8.7655e-06
-8.99412e-06
-9.2268e-06
-9.46358e-06
-9.70455e-06
-9.94975e-06
-1.01993e-05
-1.04532e-05
-1.07115e-05
-1.09744e-05
-1.12419e-05
-1.1514e-05
-1.17909e-05
-1.20727e-05
-1.23593e-05
-1.2651e-05
-1.29478e-05
-1.32497e-05
-1.3557e-05
-1.38696e-05
-1.41876e-05
-1.45113e-05
-1.48406e-05
-1.51756e-05
-1.55165e-05
-1.58634e-05
-1.62164e-05
-1.65755e-05
-1.69409e-05
-1.73128e-05
-1.76912e-05
-1.80762e-05
-1.8468e-05
-1.88667e-05
-1.92724e-05
-1.96852e-05
-2.01054e-05
-2.05329e-05
-2.09679e-05
-2.14107e-05
-2.18612e-05
-2.23197e-05
-2.27863e-05
-2.32612e-05
-2.37445e-05
-2.42363e-05
-2.47368e-05
-2.52461e-05
-2.57645e-05
-2.62921e-05
-2.68291e-05
-2.73756e-05
-2.79317e-05
-2.84978e-05
-2.90738e-05
-2.96602e-05
-3.02569e-05
-3.08642e-05
-3.14824e-05
-3.21115e-05
-3.27518e-05
-3.34035e-05
-3.40668e-05
-3.47419e-05
-3.5429e-05
-3.61284e-05
-3.68402e-05
-3.75647e-05
-3.83021e-05
-3.90526e-05
-3.98165e-05
-4.0594e-05
-4.13853e-05
-4.21907e-05
-4.30105e-05
-4.38449e-05
-4.46942e-05
-4.55586e-05
-4.64384e-05
-4.73339e-05
-4.82454e-05
-4.9173e-05
-5.01172e-05
-5.10783e-05
-5.20564e-05
-5.3052e-05
-5.40653e-05
-5.50967e-05
-5.61464e-05
-5.72149e-05
-5.83023e-05
-5.94091e-05
-6.05356e-05
-6.16822e-05
-6.28491e-05
-6.40368e-05
-6.52457e-05
-6.6476e-05
-6.77282e-05
-6.90027e-05
-7.02998e-05
-7.16199e-05
-7.29635e-05
-7.43309e-05
-7.57226e-05
-7.7139e-05
-7.85805e-05
-8.00476e-05
-8.15407e-05
-8.30602e-05
-8.46066e-05
-8.61804e-05
-8.77821e-05
-8.9412e-05
-9.10708e-05
-9.27589e-05
-9.44768e-05
-9.6225e-05
-9.8004e-05
-9.98144e-05
-0.000101657
-0.000103531
-0.000105439
-0.00010738
-0.000109355
-0.000111365
-0.00011341
-0.00011549
-0.000117607
-0.00011976
-0.000121951
-0.000124179
-0.000126446
-0.000128751
-0.000131095
-0.000133478
-0.000135902
-0.000138367
-0.000140874
-0.000143423
-0.000146016
-0.000148654
-0.000151337
-0.000154066
-0.000156841
-0.000159663
-0.000162534
-0.000165453
-0.000168421
-0.00017144
-0.00017451
-0.000177631
-0.000180805
-0.000184033
-0.000187314
-0.00019065
-0.000194042
-0.00019749
-0.000200995
-0.000204558
-0.00020818
-0.000211861
-0.000215603
-0.000219406
-0.000223271
-0.000227199
-0.00023119
-0.000235246
-0.000239367
-0.000243554
-0.000247808
-0.000252129
-0.000256519
-0.000260978
-0.000265507
-0.000270106
-0.000274777
-0.000279519
-0.000284335
-0.000289224
-0.000294188
-0.000299226
-0.000304339
-0.000309529
-0.000314795
-0.000320139
-0.000325561
-0.00033106
-0.000336639
-0.000342296
-0.000348033
-0.00035385
-0.000359747
-0.000365724
-0.000371781
-0.000377919
-0.000384138
-0.000390437
-0.000396816
-0.000403276
-0.000409815
-0.000416433
-0.00042313
-0.000429904
-0.000436756
-0.000443683
-0.000450685
-0.00045776
-0.000464907
)
;
    }
    inout2_half0
    {
        type            cyclic;
        value           nonuniform List<scalar> 
300
(
0.000464907
0.00045776
0.000450685
0.000443683
0.000436756
0.000429904
0.00042313
0.000416433
0.000409815
0.000403276
0.000396816
0.000390437
0.000384138
0.000377919
0.000371781
0.000365724
0.000359747
0.00035385
0.000348033
0.000342296
0.000336639
0.00033106
0.000325561
0.000320139
0.000314796
0.000309529
0.000304339
0.000299226
0.000294188
0.000289224
0.000284335
0.00027952
0.000274777
0.000270106
0.000265507
0.000260978
0.000256519
0.000252129
0.000247808
0.000243554
0.000239367
0.000235246
0.00023119
0.000227199
0.000223271
0.000219406
0.000215603
0.000211861
0.00020818
0.000204558
0.000200995
0.000197489
0.000194042
0.00019065
0.000187314
0.000184033
0.000180805
0.000177632
0.00017451
0.00017144
0.000168421
0.000165453
0.000162534
0.000159663
0.000156841
0.000154066
0.000151337
0.000148654
0.000146016
0.000143423
0.000140874
0.000138367
0.000135902
0.000133478
0.000131095
0.000128751
0.000126446
0.000124179
0.000121951
0.00011976
0.000117607
0.00011549
0.00011341
0.000111365
0.000109355
0.00010738
0.000105439
0.000103531
0.000101657
9.98144e-05
9.8004e-05
9.6225e-05
9.44768e-05
9.27589e-05
9.10708e-05
8.9412e-05
8.77821e-05
8.61804e-05
8.46067e-05
8.30602e-05
8.15407e-05
8.00476e-05
7.85806e-05
7.7139e-05
7.57226e-05
7.43309e-05
7.29635e-05
7.16199e-05
7.02997e-05
6.90027e-05
6.77282e-05
6.6476e-05
6.52457e-05
6.40368e-05
6.28491e-05
6.16822e-05
6.05356e-05
5.94091e-05
5.83023e-05
5.72149e-05
5.61464e-05
5.50967e-05
5.40653e-05
5.3052e-05
5.20565e-05
5.10783e-05
5.01173e-05
4.9173e-05
4.82453e-05
4.73339e-05
4.64384e-05
4.55586e-05
4.46942e-05
4.38449e-05
4.30105e-05
4.21907e-05
4.13853e-05
4.0594e-05
3.98165e-05
3.90526e-05
3.83021e-05
3.75647e-05
3.68402e-05
3.61284e-05
3.5429e-05
3.47419e-05
3.40668e-05
3.34035e-05
3.27518e-05
3.21115e-05
3.14824e-05
3.08642e-05
3.02569e-05
2.96602e-05
2.90738e-05
2.84977e-05
2.79317e-05
2.73756e-05
2.68291e-05
2.62921e-05
2.57646e-05
2.52461e-05
2.47368e-05
2.42363e-05
2.37445e-05
2.32612e-05
2.27863e-05
2.23197e-05
2.18612e-05
2.14107e-05
2.09679e-05
2.05329e-05
2.01054e-05
1.96852e-05
1.92724e-05
1.88667e-05
1.8468e-05
1.80762e-05
1.76912e-05
1.73128e-05
1.69409e-05
1.65755e-05
1.62163e-05
1.58634e-05
1.55165e-05
1.51756e-05
1.48406e-05
1.45113e-05
1.41876e-05
1.38696e-05
1.3557e-05
1.32497e-05
1.29478e-05
1.2651e-05
1.23593e-05
1.20727e-05
1.17909e-05
1.1514e-05
1.12419e-05
1.09744e-05
1.07115e-05
1.04532e-05
1.01993e-05
9.94976e-06
9.70454e-06
9.46359e-06
9.22679e-06
8.99413e-06
8.76549e-06
8.54087e-06
8.32018e-06
8.10335e-06
7.89036e-06
7.68112e-06
7.47562e-06
7.27377e-06
7.07556e-06
6.88092e-06
6.68982e-06
6.5022e-06
6.31805e-06
6.13727e-06
5.95975e-06
5.78539e-06
5.61414e-06
5.44598e-06
5.28088e-06
5.11879e-06
4.95971e-06
4.8036e-06
4.65046e-06
4.50026e-06
4.35299e-06
4.20865e-06
4.06721e-06
3.92868e-06
3.79306e-06
3.66034e-06
3.53053e-06
3.40363e-06
3.27961e-06
3.15852e-06
3.04032e-06
2.92503e-06
2.81264e-06
2.70315e-06
2.59654e-06
2.49282e-06
2.39195e-06
2.29393e-06
2.19873e-06
2.10633e-06
2.01669e-06
1.92979e-06
1.84558e-06
1.76402e-06
1.68507e-06
1.60868e-06
1.5348e-06
1.46337e-06
1.39436e-06
1.32769e-06
1.26331e-06
1.20116e-06
1.14118e-06
1.08333e-06
1.02752e-06
9.73712e-07
9.21844e-07
8.71854e-07
8.23695e-07
7.77301e-07
7.32623e-07
6.89607e-07
6.48194e-07
6.08338e-07
5.69994e-07
5.33101e-07
4.97622e-07
4.63503e-07
4.30708e-07
3.99182e-07
3.68891e-07
3.39791e-07
3.11845e-07
2.85007e-07
2.59249e-07
2.34528e-07
2.1081e-07
1.88062e-07
1.6625e-07
1.45344e-07
1.25311e-07
1.06121e-07
8.77457e-08
7.01568e-08
5.33266e-08
3.72298e-08
2.18399e-08
7.13252e-09
)
;
    }
    inout2_half1
    {
        type            cyclic;
        value           nonuniform List<scalar> 
300
(
-0.000464907
-0.00045776
-0.000450685
-0.000443683
-0.000436756
-0.000429904
-0.00042313
-0.000416433
-0.000409815
-0.000403276
-0.000396816
-0.000390437
-0.000384138
-0.000377919
-0.000371781
-0.000365724
-0.000359747
-0.00035385
-0.000348033
-0.000342296
-0.000336639
-0.00033106
-0.000325561
-0.000320139
-0.000314796
-0.000309529
-0.000304339
-0.000299226
-0.000294188
-0.000289224
-0.000284335
-0.00027952
-0.000274777
-0.000270106
-0.000265507
-0.000260978
-0.000256519
-0.000252129
-0.000247808
-0.000243554
-0.000239367
-0.000235246
-0.00023119
-0.000227199
-0.000223271
-0.000219406
-0.000215603
-0.000211861
-0.00020818
-0.000204558
-0.000200995
-0.000197489
-0.000194042
-0.00019065
-0.000187314
-0.000184033
-0.000180805
-0.000177632
-0.00017451
-0.00017144
-0.000168421
-0.000165453
-0.000162534
-0.000159663
-0.000156841
-0.000154066
-0.000151337
-0.000148654
-0.000146016
-0.000143423
-0.000140874
-0.000138367
-0.000135902
-0.000133478
-0.000131095
-0.000128751
-0.000126446
-0.000124179
-0.000121951
-0.00011976
-0.000117607
-0.00011549
-0.00011341
-0.000111365
-0.000109355
-0.00010738
-0.000105439
-0.000103531
-0.000101657
-9.98144e-05
-9.8004e-05
-9.6225e-05
-9.44768e-05
-9.27589e-05
-9.10708e-05
-8.9412e-05
-8.77821e-05
-8.61804e-05
-8.46067e-05
-8.30602e-05
-8.15407e-05
-8.00476e-05
-7.85806e-05
-7.7139e-05
-7.57226e-05
-7.43309e-05
-7.29635e-05
-7.16199e-05
-7.02997e-05
-6.90027e-05
-6.77282e-05
-6.6476e-05
-6.52457e-05
-6.40368e-05
-6.28491e-05
-6.16822e-05
-6.05356e-05
-5.94091e-05
-5.83023e-05
-5.72149e-05
-5.61464e-05
-5.50967e-05
-5.40653e-05
-5.3052e-05
-5.20565e-05
-5.10783e-05
-5.01173e-05
-4.9173e-05
-4.82453e-05
-4.73339e-05
-4.64384e-05
-4.55586e-05
-4.46942e-05
-4.38449e-05
-4.30105e-05
-4.21907e-05
-4.13853e-05
-4.0594e-05
-3.98165e-05
-3.90526e-05
-3.83021e-05
-3.75647e-05
-3.68402e-05
-3.61284e-05
-3.5429e-05
-3.47419e-05
-3.40668e-05
-3.34035e-05
-3.27518e-05
-3.21115e-05
-3.14824e-05
-3.08642e-05
-3.02569e-05
-2.96602e-05
-2.90738e-05
-2.84977e-05
-2.79317e-05
-2.73756e-05
-2.68291e-05
-2.62921e-05
-2.57646e-05
-2.52461e-05
-2.47368e-05
-2.42363e-05
-2.37445e-05
-2.32612e-05
-2.27863e-05
-2.23197e-05
-2.18612e-05
-2.14107e-05
-2.09679e-05
-2.05329e-05
-2.01054e-05
-1.96852e-05
-1.92724e-05
-1.88667e-05
-1.8468e-05
-1.80762e-05
-1.76912e-05
-1.73128e-05
-1.69409e-05
-1.65755e-05
-1.62163e-05
-1.58634e-05
-1.55165e-05
-1.51756e-05
-1.48406e-05
-1.45113e-05
-1.41876e-05
-1.38696e-05
-1.3557e-05
-1.32497e-05
-1.29478e-05
-1.2651e-05
-1.23593e-05
-1.20727e-05
-1.17909e-05
-1.1514e-05
-1.12419e-05
-1.09744e-05
-1.07115e-05
-1.04532e-05
-1.01993e-05
-9.94976e-06
-9.70454e-06
-9.46359e-06
-9.22679e-06
-8.99413e-06
-8.76549e-06
-8.54087e-06
-8.32018e-06
-8.10335e-06
-7.89036e-06
-7.68112e-06
-7.47562e-06
-7.27377e-06
-7.07556e-06
-6.88092e-06
-6.68982e-06
-6.5022e-06
-6.31805e-06
-6.13727e-06
-5.95975e-06
-5.78539e-06
-5.61414e-06
-5.44598e-06
-5.28088e-06
-5.11879e-06
-4.95971e-06
-4.8036e-06
-4.65046e-06
-4.50026e-06
-4.35299e-06
-4.20865e-06
-4.06721e-06
-3.92868e-06
-3.79306e-06
-3.66034e-06
-3.53053e-06
-3.40363e-06
-3.27961e-06
-3.15852e-06
-3.04032e-06
-2.92503e-06
-2.81264e-06
-2.70315e-06
-2.59654e-06
-2.49282e-06
-2.39195e-06
-2.29393e-06
-2.19873e-06
-2.10633e-06
-2.01669e-06
-1.92979e-06
-1.84558e-06
-1.76402e-06
-1.68507e-06
-1.60868e-06
-1.5348e-06
-1.46337e-06
-1.39436e-06
-1.32769e-06
-1.26331e-06
-1.20116e-06
-1.14118e-06
-1.08333e-06
-1.02752e-06
-9.73712e-07
-9.21844e-07
-8.71854e-07
-8.23695e-07
-7.77301e-07
-7.32623e-07
-6.89607e-07
-6.48194e-07
-6.08338e-07
-5.69994e-07
-5.33101e-07
-4.97622e-07
-4.63503e-07
-4.30708e-07
-3.99182e-07
-3.68891e-07
-3.39791e-07
-3.11845e-07
-2.85007e-07
-2.59249e-07
-2.34528e-07
-2.1081e-07
-1.88062e-07
-1.6625e-07
-1.45344e-07
-1.25311e-07
-1.06121e-07
-8.77457e-08
-7.01568e-08
-5.33266e-08
-3.72298e-08
-2.18399e-08
-7.13252e-09
)
;
    }
}


// ************************************************************************* //
