/*--------------------------------*- C++ -*----------------------------------*\
  =========                 |
  \\      /  F ield         | OpenFOAM: The Open Source CFD Toolbox
   \\    /   O peration     | Website:  https://openfoam.org
    \\  /    A nd           | Version:  7
     \\/     M anipulation  |
\*---------------------------------------------------------------------------*/
FoamFile
{
    version     2.0;
    format      ascii;
    class       volVectorField;
    location    "97500";
    object      U;
}
// * * * * * * * * * * * * * * * * * * * * * * * * * * * * * * * * * * * * * //

dimensions      [0 1 -1 0 0 0 0];

internalField   nonuniform List<vector> 
600
(
(0.000231037 -9.38941e-15 0)
(0.000696625 -1.94295e-14 0)
(0.00116936 -1.62738e-14 0)
(0.00164937 -1.47408e-14 0)
(0.00213674 -1.17485e-14 0)
(0.00263159 -1.19416e-14 0)
(0.00313405 -1.18745e-14 0)
(0.00364421 -1.25843e-14 0)
(0.0041622 -1.17501e-14 0)
(0.00468815 -1.22407e-14 0)
(0.00522215 -1.22239e-14 0)
(0.00576435 -9.59037e-15 0)
(0.00631486 -8.52508e-15 0)
(0.00687381 -8.12074e-15 0)
(0.00744133 -6.64125e-15 0)
(0.00801753 -5.21022e-15 0)
(0.00860256 -3.96984e-15 0)
(0.00919653 -2.91895e-15 0)
(0.00979959 -2.22231e-15 0)
(0.0104119 -2.08361e-15 0)
(0.0110335 -5.22382e-15 0)
(0.0116646 -1.34841e-15 0)
(0.0123053 -2.68478e-15 0)
(0.0129557 -1.45166e-15 0)
(0.013616 -1.87401e-15 0)
(0.0142863 -5.37491e-15 0)
(0.0149667 -5.10317e-15 0)
(0.0156573 -7.05408e-15 0)
(0.0163582 -7.86073e-15 0)
(0.0170696 -5.7704e-15 0)
(0.0177916 -6.96229e-15 0)
(0.0185241 -5.01942e-15 0)
(0.0192673 -7.11468e-15 0)
(0.0200213 -6.36656e-15 0)
(0.020786 -4.69686e-15 0)
(0.0215615 6.29243e-16 0)
(0.0223478 2.04133e-15 0)
(0.0231449 -2.80896e-17 0)
(0.0239527 -7.20031e-16 0)
(0.024771 -6.26446e-16 0)
(0.0255998 -5.42481e-16 0)
(0.0264388 -7.81368e-16 0)
(0.027288 -1.77357e-15 0)
(0.0281469 6.78268e-16 0)
(0.0290153 -1.01279e-15 0)
(0.0298928 -1.75425e-15 0)
(0.0307791 -6.75072e-16 0)
(0.0316735 -3.33641e-15 0)
(0.0325757 -5.15725e-15 0)
(0.0334851 -4.96589e-15 0)
(0.0344009 -4.34947e-15 0)
(0.0353226 -2.32627e-15 0)
(0.0362495 -4.70081e-16 0)
(0.0371808 -3.7878e-16 0)
(0.0381157 1.68223e-15 0)
(0.0390534 1.90897e-15 0)
(0.0399932 7.80555e-16 0)
(0.0409342 -1.80441e-15 0)
(0.0418756 -2.55023e-15 0)
(0.0428166 -1.17102e-15 0)
(0.0437564 4.01131e-16 0)
(0.0446942 -4.59022e-16 0)
(0.0456294 -1.1172e-15 0)
(0.0465611 -2.96623e-15 0)
(0.0474888 -4.02838e-15 0)
(0.0484119 -7.76435e-15 0)
(0.0493297 -8.413e-15 0)
(0.0502418 -9.35291e-15 0)
(0.0511477 -1.04553e-14 0)
(0.052047 -5.96682e-15 0)
(0.0529392 -6.2319e-15 0)
(0.0538242 -8.38166e-15 0)
(0.0547016 -6.94053e-15 0)
(0.0555711 -7.54802e-15 0)
(0.0564327 -8.17169e-15 0)
(0.0572861 -9.53647e-15 0)
(0.0581312 -1.18282e-14 0)
(0.0589679 -1.16117e-14 0)
(0.0597962 -1.11343e-14 0)
(0.0606167 -1.19477e-14 0)
(0.0614302 -1.27477e-14 0)
(0.0622366 -1.12318e-14 0)
(0.0630361 -9.99764e-15 0)
(0.0638285 -1.14107e-14 0)
(0.0646137 -9.06838e-15 0)
(0.0653917 -9.14952e-15 0)
(0.0661625 -1.06716e-14 0)
(0.0669259 -9.76853e-15 0)
(0.0676821 -9.53036e-15 0)
(0.0684309 -8.18335e-15 0)
(0.0691725 -5.49027e-15 0)
(0.0699067 -3.22898e-15 0)
(0.0706337 -3.86339e-15 0)
(0.0713535 -4.50589e-15 0)
(0.0720661 -2.89571e-15 0)
(0.0727716 -5.87827e-15 0)
(0.0734699 -7.53668e-15 0)
(0.0741613 -6.56362e-15 0)
(0.0748458 -5.33931e-15 0)
(0.0755234 -5.01053e-15 0)
(0.0761942 -4.5516e-15 0)
(0.0768583 -5.02352e-15 0)
(0.0775158 -4.39507e-15 0)
(0.0781668 -4.2695e-15 0)
(0.0788114 -2.65129e-15 0)
(0.0794497 -2.59265e-15 0)
(0.0800817 -8.38872e-16 0)
(0.0807076 -9.28827e-16 0)
(0.0813275 -4.52716e-16 0)
(0.0819415 -9.95987e-16 0)
(0.0825497 1.15525e-15 0)
(0.0831521 2.41757e-15 0)
(0.083749 1.65688e-15 0)
(0.0843403 3.67566e-15 0)
(0.0849263 1.97461e-15 0)
(0.0855069 2.08179e-15 0)
(0.0860824 1.24726e-15 0)
(0.0866528 1.30771e-15 0)
(0.0872181 -2.55932e-16 0)
(0.0877786 -3.15915e-16 0)
(0.0883343 -1.51133e-15 0)
(0.0888853 -1.77325e-15 0)
(0.0894318 -2.67677e-15 0)
(0.0899737 -3.14544e-15 0)
(0.0905112 -1.48631e-15 0)
(0.0910444 -1.15942e-15 0)
(0.0915734 -9.88334e-16 0)
(0.0920982 -1.52894e-15 0)
(0.0926191 -9.15423e-16 0)
(0.093136 -2.16918e-15 0)
(0.093649 -2.29855e-15 0)
(0.0941582 -2.56941e-15 0)
(0.0946637 -1.20055e-15 0)
(0.0951657 -1.7642e-15 0)
(0.0956641 -2.43302e-15 0)
(0.096159 -9.12396e-16 0)
(0.0966506 -2.77186e-16 0)
(0.0971389 1.10243e-15 0)
(0.0976239 1.69027e-15 0)
(0.0981058 -1.26736e-16 0)
(0.0985846 2.48632e-16 0)
(0.0990604 8.58662e-16 0)
(0.0995332 -6.55009e-16 0)
(0.100003 -3.49469e-16 0)
(0.10047 2.22146e-16 0)
(0.100935 1.6576e-15 0)
(0.101396 -4.39233e-16 0)
(0.101856 -1.05094e-15 0)
(0.102312 -9.0911e-17 0)
(0.102766 -1.84459e-15 0)
(0.103218 -1.73959e-15 0)
(0.103667 -1.45598e-15 0)
(0.104114 -1.6518e-15 0)
(0.104558 -1.29248e-15 0)
(0.105001 -9.2715e-16 0)
(0.105441 -9.33981e-16 0)
(0.105879 6.81176e-16 0)
(0.106315 6.76211e-16 0)
(0.106748 -6.27085e-16 0)
(0.10718 -9.49225e-16 0)
(0.10761 3.21596e-16 0)
(0.108038 1.10482e-15 0)
(0.108464 6.96619e-16 0)
(0.108889 7.52753e-16 0)
(0.109311 5.3614e-17 0)
(0.109732 -3.82385e-16 0)
(0.110151 -1.67378e-15 0)
(0.110569 -2.6736e-15 0)
(0.110985 -2.61247e-15 0)
(0.111399 -3.37622e-15 0)
(0.111812 -5.89213e-15 0)
(0.112223 -4.37387e-15 0)
(0.112632 -4.16468e-15 0)
(0.113041 -3.97095e-15 0)
(0.113447 -4.18754e-15 0)
(0.113853 -4.42993e-15 0)
(0.114257 -4.25353e-15 0)
(0.11466 -4.82515e-15 0)
(0.115061 -2.84995e-15 0)
(0.115461 -3.73924e-15 0)
(0.11586 -4.30473e-15 0)
(0.116258 -3.83765e-15 0)
(0.116654 -5.12373e-15 0)
(0.117049 -5.16712e-15 0)
(0.117443 -5.17692e-15 0)
(0.117836 -4.84905e-15 0)
(0.118228 -4.94989e-15 0)
(0.118619 -3.82021e-15 0)
(0.119008 -3.82956e-15 0)
(0.119397 -3.46053e-15 0)
(0.119785 -2.71599e-15 0)
(0.120171 -2.2779e-15 0)
(0.120557 -3.63916e-15 0)
(0.120941 -3.84847e-15 0)
(0.121325 -2.57839e-15 0)
(0.121707 -1.65778e-15 0)
(0.122089 -3.45057e-15 0)
(0.122469 -2.68973e-15 0)
(0.122849 -3.41773e-15 0)
(0.123228 -3.27785e-15 0)
(0.123606 -2.28648e-15 0)
(0.123983 -3.62269e-15 0)
(0.124359 -1.96456e-15 0)
(0.124734 -2.76495e-15 0)
(0.125108 -2.65417e-15 0)
(0.125482 -2.06254e-15 0)
(0.125854 -1.58164e-15 0)
(0.126226 -2.71601e-15 0)
(0.126596 -2.67401e-15 0)
(0.126966 -1.73938e-15 0)
(0.127335 -1.50014e-15 0)
(0.127703 -1.94837e-15 0)
(0.128071 -8.35323e-16 0)
(0.128437 -3.76867e-16 0)
(0.128802 -2.15169e-15 0)
(0.129167 -2.99652e-15 0)
(0.12953 -3.48635e-15 0)
(0.129892 -3.95097e-15 0)
(0.130254 -4.05509e-15 0)
(0.130614 -5.32662e-15 0)
(0.130972 -6.25106e-15 0)
(0.13133 -5.45915e-15 0)
(0.131685 -7.07267e-15 0)
(0.132039 -4.98122e-15 0)
(0.132391 -5.1208e-15 0)
(0.132741 -3.4146e-15 0)
(0.133089 -4.81276e-15 0)
(0.133435 -6.29559e-15 0)
(0.133779 -7.39469e-15 0)
(0.13412 -7.01899e-15 0)
(0.134461 -6.96287e-15 0)
(0.1348 -7.56022e-15 0)
(0.135137 -6.52742e-15 0)
(0.135474 -5.57341e-15 0)
(0.135808 -5.76086e-15 0)
(0.136142 -6.28437e-15 0)
(0.136473 -6.79076e-15 0)
(0.136803 -6.86587e-15 0)
(0.137132 -7.24077e-15 0)
(0.137459 -8.12363e-15 0)
(0.137784 -7.44899e-15 0)
(0.138108 -6.15609e-15 0)
(0.13843 -6.67401e-15 0)
(0.138749 -6.92571e-15 0)
(0.139068 -5.29594e-15 0)
(0.139384 -5.56771e-15 0)
(0.139698 -6.41269e-15 0)
(0.14001 -5.21851e-15 0)
(0.14032 -5.68295e-15 0)
(0.140628 -6.40237e-15 0)
(0.140933 -5.15011e-15 0)
(0.141236 -5.96971e-15 0)
(0.141537 -5.40663e-15 0)
(0.141836 -3.92769e-15 0)
(0.142131 -4.46121e-15 0)
(0.142425 -3.42898e-15 0)
(0.142715 -3.2465e-15 0)
(0.143003 -2.87866e-15 0)
(0.143287 -2.39428e-15 0)
(0.143569 -3.04988e-15 0)
(0.143848 -3.98486e-15 0)
(0.144123 -4.21153e-15 0)
(0.144395 -4.2835e-15 0)
(0.144664 -4.39415e-15 0)
(0.144929 -4.29723e-15 0)
(0.14519 -4.47142e-15 0)
(0.145448 -4.76854e-15 0)
(0.145702 -5.69317e-15 0)
(0.145951 -6.90849e-15 0)
(0.146197 -7.09935e-15 0)
(0.146438 -6.77736e-15 0)
(0.146674 -7.65672e-15 0)
(0.146906 -8.69636e-15 0)
(0.147133 -9.67016e-15 0)
(0.147355 -8.60267e-15 0)
(0.147571 -1.05833e-14 0)
(0.147782 -1.08827e-14 0)
(0.147988 -1.03815e-14 0)
(0.148188 -8.30916e-15 0)
(0.148382 -9.01797e-15 0)
(0.14857 -9.51035e-15 0)
(0.148751 -1.02445e-14 0)
(0.148926 -1.06049e-14 0)
(0.149093 -1.09144e-14 0)
(0.149254 -1.15297e-14 0)
(0.149407 -1.24534e-14 0)
(0.149552 -1.29917e-14 0)
(0.14969 -1.43424e-14 0)
(0.149819 -1.35749e-14 0)
(0.14994 -1.3263e-14 0)
(0.150052 -1.30594e-14 0)
(0.150154 -1.3811e-14 0)
(0.150247 -1.17102e-14 0)
(0.15033 -1.24486e-14 0)
(0.150402 -1.26977e-14 0)
(0.150464 -1.26115e-14 0)
(0.150514 -1.18451e-14 0)
(0.150553 -1.21307e-14 0)
(0.150579 -1.3499e-14 0)
(0.150593 -1.18556e-14 0)
(0.150593 -1.14213e-14 0)
(0.150579 -1.13264e-14 0)
(0.150553 -1.12245e-14 0)
(0.150514 -1.06265e-14 0)
(0.150464 -9.19264e-15 0)
(0.150402 -9.38683e-15 0)
(0.15033 -8.24719e-15 0)
(0.150247 -9.19403e-15 0)
(0.150154 -1.08112e-14 0)
(0.150052 -9.42473e-15 0)
(0.14994 -1.01068e-14 0)
(0.149819 -1.10059e-14 0)
(0.14969 -1.11842e-14 0)
(0.149552 -1.23695e-14 0)
(0.149407 -9.95754e-15 0)
(0.149254 -9.73828e-15 0)
(0.149093 -9.23311e-15 0)
(0.148926 -7.47431e-15 0)
(0.148751 -7.54728e-15 0)
(0.14857 -6.52865e-15 0)
(0.148382 -8.49358e-15 0)
(0.148188 -8.65229e-15 0)
(0.147988 -8.23877e-15 0)
(0.147782 -8.81425e-15 0)
(0.147571 -9.60558e-15 0)
(0.147355 -8.04384e-15 0)
(0.147133 -7.11747e-15 0)
(0.146906 -7.68253e-15 0)
(0.146674 -7.36395e-15 0)
(0.146438 -8.7765e-15 0)
(0.146197 -7.35565e-15 0)
(0.145951 -7.79103e-15 0)
(0.145702 -6.72312e-15 0)
(0.145448 -6.85323e-15 0)
(0.14519 -7.54751e-15 0)
(0.144929 -5.88929e-15 0)
(0.144664 -6.01871e-15 0)
(0.144395 -6.12571e-15 0)
(0.144123 -6.70959e-15 0)
(0.143848 -4.71735e-15 0)
(0.143569 -2.39892e-15 0)
(0.143287 -3.25265e-15 0)
(0.143003 -2.75332e-15 0)
(0.142715 -3.83801e-15 0)
(0.142425 -5.8162e-15 0)
(0.142131 -3.6543e-15 0)
(0.141836 -3.59335e-15 0)
(0.141537 -2.85022e-15 0)
(0.141236 -1.75038e-15 0)
(0.140933 -3.58781e-15 0)
(0.140628 -3.65768e-15 0)
(0.14032 -4.86665e-15 0)
(0.14001 -4.09125e-15 0)
(0.139698 -5.12503e-15 0)
(0.139384 -3.08405e-15 0)
(0.139068 -2.27505e-15 0)
(0.138749 -9.81027e-16 0)
(0.13843 -1.75156e-15 0)
(0.138108 -1.79632e-15 0)
(0.137784 -3.3837e-15 0)
(0.137459 -2.84875e-15 0)
(0.137132 -1.6421e-15 0)
(0.136803 -7.6605e-16 0)
(0.136473 -3.17524e-15 0)
(0.136142 -3.9462e-15 0)
(0.135808 -3.13799e-15 0)
(0.135474 -3.53611e-15 0)
(0.135137 -3.2346e-15 0)
(0.1348 -2.61419e-15 0)
(0.134461 -2.03697e-15 0)
(0.13412 -2.70915e-15 0)
(0.133779 -1.8861e-15 0)
(0.133435 -2.68451e-15 0)
(0.133089 -3.92022e-15 0)
(0.132741 -3.62871e-15 0)
(0.132391 -3.10474e-15 0)
(0.132039 -2.74391e-15 0)
(0.131685 -1.83987e-15 0)
(0.13133 -3.49978e-15 0)
(0.130972 -2.86181e-15 0)
(0.130614 -2.08044e-15 0)
(0.130254 -2.85451e-15 0)
(0.129892 -3.62928e-15 0)
(0.12953 -2.43019e-15 0)
(0.129167 -1.68296e-15 0)
(0.128802 -1.78956e-15 0)
(0.128437 -1.85609e-15 0)
(0.128071 -2.63015e-15 0)
(0.127703 -4.01022e-15 0)
(0.127335 -4.24934e-15 0)
(0.126966 -3.89309e-15 0)
(0.126596 -3.21576e-15 0)
(0.126226 -2.71787e-15 0)
(0.125854 -3.24083e-15 0)
(0.125482 -2.4773e-15 0)
(0.125108 -2.75962e-15 0)
(0.124734 -2.75755e-15 0)
(0.124359 -3.91127e-15 0)
(0.123983 -4.21304e-15 0)
(0.123606 -3.76817e-15 0)
(0.123228 -3.15189e-15 0)
(0.122849 -4.21009e-15 0)
(0.122469 -3.07912e-15 0)
(0.122089 -1.2658e-15 0)
(0.121707 -2.74683e-15 0)
(0.121325 -2.80216e-15 0)
(0.120941 -2.00986e-15 0)
(0.120557 -2.61125e-15 0)
(0.120171 -3.15581e-15 0)
(0.119785 -3.48032e-15 0)
(0.119397 -2.88701e-15 0)
(0.119008 -2.95728e-15 0)
(0.118619 -3.26553e-15 0)
(0.118228 -4.29859e-15 0)
(0.117836 -4.83089e-15 0)
(0.117443 -4.74291e-15 0)
(0.117049 -4.33457e-15 0)
(0.116654 -3.36898e-15 0)
(0.116258 -1.61037e-15 0)
(0.11586 -1.18596e-15 0)
(0.115461 -1.15421e-15 0)
(0.115061 -5.63848e-16 0)
(0.11466 -3.93194e-16 0)
(0.114257 -1.10677e-15 0)
(0.113853 -2.82891e-15 0)
(0.113447 -3.16424e-15 0)
(0.113041 -3.08384e-15 0)
(0.112632 -5.14134e-15 0)
(0.112223 -4.75861e-15 0)
(0.111812 -4.87909e-15 0)
(0.111399 -5.65191e-15 0)
(0.110985 -7.29254e-15 0)
(0.110569 -7.57844e-15 0)
(0.110151 -8.52987e-15 0)
(0.109732 -7.81132e-15 0)
(0.109311 -8.16723e-15 0)
(0.108889 -8.73785e-15 0)
(0.108464 -7.29838e-15 0)
(0.108038 -6.59004e-15 0)
(0.10761 -7.12723e-15 0)
(0.10718 -8.20776e-15 0)
(0.106748 -8.03255e-15 0)
(0.106315 -9.36238e-15 0)
(0.105879 -9.97189e-15 0)
(0.105441 -1.02762e-14 0)
(0.105001 -9.77112e-15 0)
(0.104558 -1.00225e-14 0)
(0.104114 -9.59526e-15 0)
(0.103667 -9.48631e-15 0)
(0.103218 -1.04513e-14 0)
(0.102766 -9.26617e-15 0)
(0.102312 -1.00385e-14 0)
(0.101856 -8.90433e-15 0)
(0.101396 -9.70626e-15 0)
(0.100935 -1.06779e-14 0)
(0.10047 -1.17208e-14 0)
(0.100003 -1.30791e-14 0)
(0.0995332 -1.57632e-14 0)
(0.0990604 -1.64149e-14 0)
(0.0985846 -1.50919e-14 0)
(0.0981058 -1.61165e-14 0)
(0.0976239 -1.38666e-14 0)
(0.0971389 -1.28945e-14 0)
(0.0966506 -1.18765e-14 0)
(0.096159 -1.1069e-14 0)
(0.0956641 -1.12059e-14 0)
(0.0951657 -1.20331e-14 0)
(0.0946637 -1.32058e-14 0)
(0.0941582 -1.46224e-14 0)
(0.093649 -1.56828e-14 0)
(0.093136 -1.48179e-14 0)
(0.0926191 -1.47145e-14 0)
(0.0920982 -1.6319e-14 0)
(0.0915734 -1.53585e-14 0)
(0.0910444 -1.51179e-14 0)
(0.0905112 -1.55531e-14 0)
(0.0899737 -1.61241e-14 0)
(0.0894318 -1.66313e-14 0)
(0.0888853 -1.65367e-14 0)
(0.0883343 -1.67006e-14 0)
(0.0877786 -1.80798e-14 0)
(0.0872181 -1.74339e-14 0)
(0.0866528 -1.8105e-14 0)
(0.0860824 -1.68545e-14 0)
(0.0855069 -1.76379e-14 0)
(0.0849263 -1.81561e-14 0)
(0.0843403 -1.62183e-14 0)
(0.083749 -1.65358e-14 0)
(0.0831521 -1.64109e-14 0)
(0.0825497 -1.81872e-14 0)
(0.0819415 -1.94164e-14 0)
(0.0813275 -2.02394e-14 0)
(0.0807076 -2.12315e-14 0)
(0.0800817 -2.00863e-14 0)
(0.0794497 -2.13531e-14 0)
(0.0788114 -2.04669e-14 0)
(0.0781668 -2.17404e-14 0)
(0.0775158 -2.0257e-14 0)
(0.0768583 -1.94725e-14 0)
(0.0761942 -2.0195e-14 0)
(0.0755234 -2.11276e-14 0)
(0.0748458 -2.19782e-14 0)
(0.0741613 -2.13092e-14 0)
(0.0734699 -2.17238e-14 0)
(0.0727716 -2.22235e-14 0)
(0.0720661 -2.11872e-14 0)
(0.0713535 -2.27023e-14 0)
(0.0706337 -2.24338e-14 0)
(0.0699067 -2.38749e-14 0)
(0.0691725 -2.37566e-14 0)
(0.0684309 -2.30954e-14 0)
(0.0676821 -2.21428e-14 0)
(0.0669259 -2.18671e-14 0)
(0.0661625 -2.2476e-14 0)
(0.0653917 -2.16377e-14 0)
(0.0646137 -2.03002e-14 0)
(0.0638285 -1.88477e-14 0)
(0.0630361 -2.02565e-14 0)
(0.0622366 -1.87403e-14 0)
(0.0614302 -1.81598e-14 0)
(0.0606167 -1.61685e-14 0)
(0.0597962 -2.0886e-14 0)
(0.0589679 -1.99392e-14 0)
(0.0581312 -1.78225e-14 0)
(0.0572861 -2.06181e-14 0)
(0.0564327 -2.01436e-14 0)
(0.0555711 -1.91507e-14 0)
(0.0547016 -1.74278e-14 0)
(0.0538242 -1.69744e-14 0)
(0.0529392 -1.88731e-14 0)
(0.052047 -1.5873e-14 0)
(0.0511477 -1.85286e-14 0)
(0.0502418 -1.73811e-14 0)
(0.0493297 -1.69946e-14 0)
(0.0484119 -1.97583e-14 0)
(0.0474888 -1.91697e-14 0)
(0.0465611 -1.83297e-14 0)
(0.0456294 -1.56159e-14 0)
(0.0446942 -1.43756e-14 0)
(0.0437564 -1.37231e-14 0)
(0.0428166 -1.21644e-14 0)
(0.0418756 -8.94063e-15 0)
(0.0409342 -8.26706e-15 0)
(0.0399932 -9.73225e-15 0)
(0.0390534 -7.5774e-15 0)
(0.0381157 -9.41743e-15 0)
(0.0371808 -9.88401e-15 0)
(0.0362495 -8.64565e-15 0)
(0.0353226 -7.24679e-15 0)
(0.0344009 -5.65447e-15 0)
(0.0334851 -5.72778e-15 0)
(0.0325757 -5.66785e-15 0)
(0.0316735 -7.17524e-15 0)
(0.0307791 -3.54439e-15 0)
(0.0298928 -3.0356e-15 0)
(0.0290153 -2.89824e-15 0)
(0.0281469 -5.31481e-15 0)
(0.027288 -4.31636e-15 0)
(0.0264388 -2.84323e-15 0)
(0.0255998 -2.45524e-15 0)
(0.024771 -2.93394e-15 0)
(0.0239527 -1.18513e-15 0)
(0.0231449 1.76312e-15 0)
(0.0223478 -4.50115e-17 0)
(0.0215615 3.02284e-15 0)
(0.020786 9.94726e-16 0)
(0.0200213 8.92244e-16 0)
(0.0192673 9.02215e-16 0)
(0.0185241 -7.7065e-17 0)
(0.0177916 -7.34919e-16 0)
(0.0170696 -2.8171e-16 0)
(0.0163582 1.2319e-15 0)
(0.0156573 1.65628e-15 0)
(0.0149667 1.26503e-15 0)
(0.0142863 2.71962e-15 0)
(0.013616 2.78139e-15 0)
(0.0129557 1.72114e-15 0)
(0.0123053 2.46913e-16 0)
(0.0116646 -9.82091e-16 0)
(0.0110335 4.53844e-16 0)
(0.0104119 1.72726e-16 0)
(0.00979959 -3.86984e-16 0)
(0.00919653 -1.32713e-16 0)
(0.00860256 -1.2689e-15 0)
(0.00801753 -1.46219e-15 0)
(0.00744133 -1.83719e-15 0)
(0.00687381 -1.46006e-15 0)
(0.00631486 -6.88514e-16 0)
(0.00576435 4.30448e-16 0)
(0.00522215 6.4924e-16 0)
(0.00468815 7.63811e-16 0)
(0.00416221 1.58881e-15 0)
(0.00364421 7.4926e-16 0)
(0.00313405 8.10421e-16 0)
(0.00263159 -1.87336e-16 0)
(0.00213674 8.97834e-16 0)
(0.00164937 -8.24887e-16 0)
(0.00116937 -5.99359e-16 0)
(0.000696625 2.19214e-16 0)
(0.000231037 -3.17023e-17 0)
)
;

boundaryField
{
    bottomWall
    {
        type            noSlip;
    }
    topWall
    {
        type            noSlip;
    }
    sides1_half0
    {
        type            empty;
    }
    sides1_half1
    {
        type            empty;
    }
    sides2_half0
    {
        type            empty;
    }
    sides2_half1
    {
        type            empty;
    }
    inout1_half0
    {
        type            cyclic;
    }
    inout1_half1
    {
        type            cyclic;
    }
    inout2_half0
    {
        type            cyclic;
    }
    inout2_half1
    {
        type            cyclic;
    }
}


// ************************************************************************* //
