/*--------------------------------*- C++ -*----------------------------------*\
  =========                 |
  \\      /  F ield         | OpenFOAM: The Open Source CFD Toolbox
   \\    /   O peration     | Website:  https://openfoam.org
    \\  /    A nd           | Version:  7
     \\/     M anipulation  |
\*---------------------------------------------------------------------------*/
FoamFile
{
    version     2.0;
    format      ascii;
    class       volScalarField;
    location    "97000";
    object      nut;
}
// * * * * * * * * * * * * * * * * * * * * * * * * * * * * * * * * * * * * * //

dimensions      [0 2 -1 0 0 0 0];

internalField   nonuniform List<scalar> 
600
(
3.20876e-18
5.63719e-16
1.19098e-14
9.25378e-14
4.25048e-13
1.42491e-12
3.88234e-12
9.14097e-12
1.93183e-11
3.75739e-11
6.84321e-11
1.18166e-10
1.95254e-10
3.10911e-10
4.79716e-10
7.20332e-10
1.05634e-09
1.51722e-09
2.1394e-09
2.96756e-09
4.05599e-09
5.4702e-09
7.28871e-09
9.60495e-09
1.25295e-08
1.61925e-08
2.07461e-08
2.63675e-08
3.32615e-08
4.16644e-08
5.18465e-08
6.41162e-08
7.88229e-08
9.63608e-08
1.17172e-07
1.41751e-07
1.70644e-07
2.04455e-07
2.43846e-07
2.89539e-07
3.42314e-07
4.0301e-07
4.72524e-07
5.51804e-07
6.41848e-07
7.43698e-07
8.58429e-07
9.87145e-07
1.13097e-06
1.29102e-06
1.46844e-06
1.66432e-06
1.87975e-06
2.11576e-06
2.37336e-06
2.65348e-06
2.95699e-06
3.28468e-06
3.63728e-06
4.01543e-06
4.41969e-06
4.85054e-06
5.30839e-06
5.79356e-06
6.30632e-06
6.84685e-06
7.41531e-06
8.01177e-06
8.63628e-06
9.28883e-06
9.9694e-06
1.06779e-05
1.14143e-05
1.21785e-05
1.29702e-05
1.37896e-05
1.46362e-05
1.55101e-05
1.6411e-05
1.72844e-05
1.81661e-05
1.90732e-05
2.00088e-05
2.09737e-05
2.19683e-05
2.29932e-05
2.40486e-05
2.51349e-05
2.62524e-05
2.74016e-05
2.85827e-05
2.97961e-05
3.10421e-05
3.2321e-05
3.36333e-05
3.49791e-05
3.63588e-05
3.77727e-05
3.92211e-05
4.07043e-05
4.22226e-05
4.37763e-05
4.53657e-05
4.69911e-05
4.86522e-05
5.03494e-05
5.20833e-05
5.3854e-05
5.5662e-05
5.75074e-05
5.93905e-05
6.13115e-05
6.32706e-05
6.52681e-05
6.73042e-05
6.93792e-05
7.14931e-05
7.36464e-05
7.58391e-05
7.80715e-05
8.03437e-05
8.26561e-05
8.50088e-05
8.74019e-05
8.98358e-05
9.23106e-05
9.48264e-05
9.73835e-05
9.99821e-05
0.000102622
0.000105304
0.000108028
0.000110795
0.000113603
0.000116454
0.000119348
0.000122284
0.000125264
0.000128286
0.000131352
0.000134462
0.000137615
0.000140811
0.000144052
0.000147336
0.000150665
0.000154037
0.000157455
0.000160916
0.000164422
0.000167973
0.000171568
0.000175208
0.000178893
0.000182623
0.000186397
0.000190217
0.000194082
0.000197992
0.000201948
0.000205948
0.000209994
0.000214085
0.000218221
0.000222403
0.000226629
0.000230901
0.000235218
0.00023958
0.000243987
0.000248439
0.000252935
0.000257477
0.000262063
0.000266694
0.000271369
0.000276089
0.000280853
0.00028566
0.000290512
0.000295407
0.000300345
0.000305327
0.000310352
0.000315419
0.000320529
0.000325681
0.000330875
0.00033611
0.000341387
0.000346705
0.000352063
0.000357462
0.0003629
0.000368378
0.000373895
0.000379451
0.000385044
0.000390676
0.000396344
0.00040205
0.000407791
0.000413569
0.000419381
0.000425228
0.00043111
0.000437026
0.000442976
0.000448961
0.00045498
0.000461037
0.000467132
0.00047327
0.000479455
0.000485697
0.000492005
0.000498394
0.000504884
0.000511497
0.000518264
0.00052522
0.000532402
0.000539849
0.000547592
0.000555646
0.00056399
0.000572541
0.000581118
0.00058939
0.000596808
0.000603889
0.000610995
0.000618124
0.000625275
0.000632448
0.00063964
0.000646851
0.000654079
0.000661324
0.000668584
0.000675858
0.000683144
0.000690442
0.00069775
0.000705066
0.00071239
0.00071972
0.000727055
0.000734394
0.000741734
0.000749075
0.000756415
0.000763753
0.000771087
0.000778415
0.000785737
0.00079305
0.000800353
0.000807643
0.00081492
0.000822181
0.000829423
0.000836646
0.000843847
0.000851022
0.00085817
0.000865288
0.000872373
0.000879421
0.000886429
0.000893393
0.000900308
0.00090717
0.000913974
0.000920714
0.000927383
0.000933975
0.000940482
0.000946896
0.000953207
0.000959405
0.000965479
0.000971416
0.000977204
0.000982826
0.000988269
0.000993513
0.000998541
0.00100333
0.00100787
0.00101212
0.00101607
0.00101969
0.00102296
0.00102584
0.00102831
0.00103034
0.00103191
0.00103298
0.00103353
0.00103353
0.00103298
0.00103191
0.00103034
0.00102831
0.00102584
0.00102296
0.00101969
0.00101607
0.00101212
0.00100787
0.00100333
0.000998541
0.000993513
0.000988269
0.000982826
0.000977204
0.000971416
0.000965479
0.000959405
0.000953207
0.000946896
0.000940482
0.000933975
0.000927383
0.000920714
0.000913974
0.00090717
0.000900308
0.000893393
0.000886429
0.000879421
0.000872373
0.000865288
0.00085817
0.000851022
0.000843847
0.000836646
0.000829423
0.000822181
0.00081492
0.000807643
0.000800353
0.00079305
0.000785737
0.000778415
0.000771087
0.000763753
0.000756415
0.000749075
0.000741734
0.000734394
0.000727055
0.00071972
0.00071239
0.000705066
0.00069775
0.000690442
0.000683144
0.000675858
0.000668584
0.000661324
0.000654079
0.000646851
0.00063964
0.000632448
0.000625275
0.000618124
0.000610995
0.000603889
0.000596808
0.00058939
0.000581118
0.000572541
0.00056399
0.000555646
0.000547592
0.000539849
0.000532402
0.00052522
0.000518264
0.000511497
0.000504884
0.000498394
0.000492005
0.000485697
0.000479455
0.00047327
0.000467132
0.000461037
0.00045498
0.000448961
0.000442976
0.000437026
0.00043111
0.000425228
0.000419381
0.000413569
0.000407791
0.00040205
0.000396344
0.000390676
0.000385044
0.000379451
0.000373895
0.000368378
0.0003629
0.000357462
0.000352063
0.000346705
0.000341387
0.00033611
0.000330875
0.000325681
0.000320529
0.000315419
0.000310352
0.000305327
0.000300345
0.000295407
0.000290512
0.00028566
0.000280853
0.000276089
0.000271369
0.000266694
0.000262063
0.000257477
0.000252935
0.000248439
0.000243987
0.00023958
0.000235218
0.000230901
0.000226629
0.000222403
0.000218221
0.000214085
0.000209994
0.000205948
0.000201948
0.000197992
0.000194082
0.000190217
0.000186397
0.000182623
0.000178893
0.000175208
0.000171568
0.000167973
0.000164422
0.000160916
0.000157455
0.000154037
0.000150665
0.000147336
0.000144052
0.000140811
0.000137615
0.000134462
0.000131352
0.000128286
0.000125264
0.000122284
0.000119348
0.000116454
0.000113603
0.000110795
0.000108028
0.000105304
0.000102622
9.99821e-05
9.73835e-05
9.48264e-05
9.23106e-05
8.98358e-05
8.74019e-05
8.50088e-05
8.26561e-05
8.03437e-05
7.80715e-05
7.58391e-05
7.36464e-05
7.14931e-05
6.93792e-05
6.73042e-05
6.52681e-05
6.32706e-05
6.13115e-05
5.93905e-05
5.75074e-05
5.5662e-05
5.3854e-05
5.20833e-05
5.03494e-05
4.86522e-05
4.69911e-05
4.53657e-05
4.37763e-05
4.22226e-05
4.07043e-05
3.92211e-05
3.77727e-05
3.63588e-05
3.49791e-05
3.36333e-05
3.2321e-05
3.10421e-05
2.97961e-05
2.85827e-05
2.74016e-05
2.62524e-05
2.51349e-05
2.40486e-05
2.29932e-05
2.19683e-05
2.09737e-05
2.00088e-05
1.90732e-05
1.81661e-05
1.72844e-05
1.6411e-05
1.55101e-05
1.46362e-05
1.37896e-05
1.29703e-05
1.21785e-05
1.14143e-05
1.06779e-05
9.9694e-06
9.28883e-06
8.63628e-06
8.01177e-06
7.41531e-06
6.84685e-06
6.30632e-06
5.79356e-06
5.30839e-06
4.85054e-06
4.41969e-06
4.01543e-06
3.63728e-06
3.28468e-06
2.95698e-06
2.65348e-06
2.37336e-06
2.11576e-06
1.87975e-06
1.66432e-06
1.46844e-06
1.29102e-06
1.13097e-06
9.87145e-07
8.58429e-07
7.43698e-07
6.41848e-07
5.51804e-07
4.72524e-07
4.0301e-07
3.42314e-07
2.89539e-07
2.43846e-07
2.04455e-07
1.70644e-07
1.41751e-07
1.17172e-07
9.63608e-08
7.88229e-08
6.41162e-08
5.18465e-08
4.16644e-08
3.32615e-08
2.63675e-08
2.07461e-08
1.61925e-08
1.25295e-08
9.60495e-09
7.28871e-09
5.47021e-09
4.05599e-09
2.96756e-09
2.1394e-09
1.51722e-09
1.05634e-09
7.20332e-10
4.79716e-10
3.10912e-10
1.95254e-10
1.18166e-10
6.8432e-11
3.75739e-11
1.93183e-11
9.14098e-12
3.88235e-12
1.42491e-12
4.25047e-13
9.25376e-14
1.19098e-14
5.63718e-16
3.20875e-18
)
;

boundaryField
{
    bottomWall
    {
        type            nutUWallFunction;
        Cmu             0.09;
        kappa           0.41;
        E               9.8;
        value           uniform 0;
    }
    topWall
    {
        type            nutUWallFunction;
        Cmu             0.09;
        kappa           0.41;
        E               9.8;
        value           uniform 0;
    }
    sides1_half0
    {
        type            empty;
    }
    sides1_half1
    {
        type            empty;
    }
    sides2_half0
    {
        type            empty;
    }
    sides2_half1
    {
        type            empty;
    }
    inout1_half0
    {
        type            cyclic;
    }
    inout1_half1
    {
        type            cyclic;
    }
    inout2_half0
    {
        type            cyclic;
    }
    inout2_half1
    {
        type            cyclic;
    }
}


// ************************************************************************* //
