/*--------------------------------*- C++ -*----------------------------------*\
  =========                 |
  \\      /  F ield         | OpenFOAM: The Open Source CFD Toolbox
   \\    /   O peration     | Website:  https://openfoam.org
    \\  /    A nd           | Version:  7
     \\/     M anipulation  |
\*---------------------------------------------------------------------------*/
FoamFile
{
    version     2.0;
    format      ascii;
    class       volVectorField;
    location    "97000";
    object      U;
}
// * * * * * * * * * * * * * * * * * * * * * * * * * * * * * * * * * * * * * //

dimensions      [0 1 -1 0 0 0 0];

internalField   nonuniform List<vector> 
600
(
(0.000231037 -6.1075e-15 0)
(0.000696625 7.63533e-16 0)
(0.00116936 1.53427e-15 0)
(0.00164937 3.04189e-15 0)
(0.00213674 6.12631e-15 0)
(0.00263159 5.93486e-15 0)
(0.00313405 5.95222e-15 0)
(0.00364421 6.29624e-15 0)
(0.0041622 6.44897e-15 0)
(0.00468815 5.80291e-15 0)
(0.00522215 5.99221e-15 0)
(0.00576435 6.65009e-15 0)
(0.00631486 5.45488e-15 0)
(0.00687381 6.50183e-15 0)
(0.00744133 7.40317e-15 0)
(0.00801753 8.63934e-15 0)
(0.00860256 1.04328e-14 0)
(0.00919653 8.44026e-15 0)
(0.00979959 9.05176e-15 0)
(0.0104119 9.1604e-15 0)
(0.0110335 9.2951e-15 0)
(0.0116646 9.86018e-15 0)
(0.0123053 1.02008e-14 0)
(0.0129557 1.15264e-14 0)
(0.013616 1.18061e-14 0)
(0.0142863 1.08621e-14 0)
(0.0149667 1.01732e-14 0)
(0.0156573 1.1535e-14 0)
(0.0163582 9.5969e-15 0)
(0.0170696 1.13534e-14 0)
(0.0177916 1.32723e-14 0)
(0.0185241 1.34254e-14 0)
(0.0192673 1.0907e-14 0)
(0.0200213 8.6613e-15 0)
(0.020786 8.48757e-15 0)
(0.0215615 8.20237e-15 0)
(0.0223479 5.50831e-15 0)
(0.0231449 4.39278e-15 0)
(0.0239527 5.02525e-15 0)
(0.024771 2.28247e-15 0)
(0.0255998 1.23953e-15 0)
(0.0264388 3.76636e-15 0)
(0.027288 1.66514e-16 0)
(0.0281469 -1.01361e-15 0)
(0.0290153 3.4713e-15 0)
(0.0298928 5.2595e-15 0)
(0.0307791 4.22204e-15 0)
(0.0316735 6.62172e-15 0)
(0.0325757 5.71924e-15 0)
(0.0334851 7.11834e-15 0)
(0.0344009 9.33422e-15 0)
(0.0353226 9.96775e-15 0)
(0.0362495 1.3654e-14 0)
(0.0371808 1.58763e-14 0)
(0.0381157 1.42838e-14 0)
(0.0390535 1.68327e-14 0)
(0.0399932 1.65922e-14 0)
(0.0409342 1.80079e-14 0)
(0.0418756 1.88355e-14 0)
(0.0428166 2.20121e-14 0)
(0.0437564 2.16359e-14 0)
(0.0446942 2.34675e-14 0)
(0.0456294 2.35312e-14 0)
(0.0465611 2.37741e-14 0)
(0.0474888 2.53418e-14 0)
(0.0484119 2.47093e-14 0)
(0.0493297 2.33488e-14 0)
(0.0502418 2.18629e-14 0)
(0.0511477 2.0855e-14 0)
(0.052047 2.43922e-14 0)
(0.0529393 2.31167e-14 0)
(0.0538242 2.30683e-14 0)
(0.0547016 2.33827e-14 0)
(0.0555711 2.41947e-14 0)
(0.0564327 2.15366e-14 0)
(0.0572861 2.27069e-14 0)
(0.0581312 2.02453e-14 0)
(0.0589679 1.8876e-14 0)
(0.0597962 1.64136e-14 0)
(0.0606168 1.6863e-14 0)
(0.0614302 1.42533e-14 0)
(0.0622367 1.21689e-14 0)
(0.0630361 1.11638e-14 0)
(0.0638285 1.19511e-14 0)
(0.0646137 1.15275e-14 0)
(0.0653917 1.26136e-14 0)
(0.0661625 1.27392e-14 0)
(0.066926 1.30812e-14 0)
(0.0676821 1.39161e-14 0)
(0.068431 1.2845e-14 0)
(0.0691725 1.15355e-14 0)
(0.0699067 1.21061e-14 0)
(0.0706337 9.02148e-15 0)
(0.0713535 9.31273e-15 0)
(0.0720661 7.68102e-15 0)
(0.0727716 7.78074e-15 0)
(0.07347 7.16937e-15 0)
(0.0741613 7.62983e-15 0)
(0.0748458 8.30238e-15 0)
(0.0755234 7.41149e-15 0)
(0.0761942 8.82771e-15 0)
(0.0768583 8.01541e-15 0)
(0.0775158 7.11225e-15 0)
(0.0781668 8.41812e-15 0)
(0.0788114 8.31787e-15 0)
(0.0794497 7.60236e-15 0)
(0.0800817 7.51488e-15 0)
(0.0807076 8.04201e-15 0)
(0.0813275 7.39548e-15 0)
(0.0819415 8.94868e-15 0)
(0.0825497 9.13815e-15 0)
(0.0831521 8.76881e-15 0)
(0.083749 8.28257e-15 0)
(0.0843403 7.02175e-15 0)
(0.0849263 6.33241e-15 0)
(0.0855069 6.40721e-15 0)
(0.0860824 5.99938e-15 0)
(0.0866528 6.17476e-15 0)
(0.0872181 4.64177e-15 0)
(0.0877786 5.0577e-15 0)
(0.0883343 4.42771e-15 0)
(0.0888853 4.76408e-15 0)
(0.0894318 3.6586e-15 0)
(0.0899737 3.159e-15 0)
(0.0905112 5.59448e-15 0)
(0.0910444 5.23771e-15 0)
(0.0915734 4.97195e-15 0)
(0.0920982 5.85113e-15 0)
(0.0926191 5.94437e-15 0)
(0.093136 7.50551e-15 0)
(0.093649 8.82547e-15 0)
(0.0941582 6.90056e-15 0)
(0.0946637 7.72479e-15 0)
(0.0951657 8.76575e-15 0)
(0.0956641 9.44769e-15 0)
(0.096159 8.84025e-15 0)
(0.0966506 9.57978e-15 0)
(0.0971389 9.41443e-15 0)
(0.0976239 9.22461e-15 0)
(0.0981058 9.07682e-15 0)
(0.0985846 8.42022e-15 0)
(0.0990604 9.62445e-15 0)
(0.0995332 8.0243e-15 0)
(0.100003 5.78475e-15 0)
(0.10047 5.50476e-15 0)
(0.100935 4.26026e-15 0)
(0.101396 4.79893e-15 0)
(0.101856 4.16252e-15 0)
(0.102312 2.52739e-15 0)
(0.102766 3.54773e-15 0)
(0.103218 3.33366e-15 0)
(0.103667 3.34013e-15 0)
(0.104114 1.75687e-15 0)
(0.104558 2.33894e-15 0)
(0.105001 3.20027e-15 0)
(0.105441 3.10822e-15 0)
(0.105879 2.45771e-15 0)
(0.106315 1.77749e-15 0)
(0.106748 2.32828e-15 0)
(0.10718 2.71241e-15 0)
(0.10761 1.93402e-15 0)
(0.108038 2.42106e-15 0)
(0.108464 1.48687e-15 0)
(0.108889 1.39125e-15 0)
(0.109311 1.84564e-15 0)
(0.109732 2.23314e-15 0)
(0.110151 1.68184e-15 0)
(0.110569 3.08644e-16 0)
(0.110985 -3.3842e-16 0)
(0.111399 -6.3343e-16 0)
(0.111812 5.05031e-16 0)
(0.112223 -1.22907e-15 0)
(0.112632 -1.95059e-15 0)
(0.113041 -2.69013e-15 0)
(0.113447 -2.89543e-15 0)
(0.113853 -4.26043e-15 0)
(0.114257 -3.64657e-15 0)
(0.11466 -4.29544e-15 0)
(0.115061 -1.93532e-15 0)
(0.115461 -2.51169e-15 0)
(0.11586 -2.8827e-15 0)
(0.116258 -4.06287e-15 0)
(0.116654 -2.47869e-15 0)
(0.117049 -3.64282e-15 0)
(0.117443 -3.58414e-15 0)
(0.117836 -2.76183e-15 0)
(0.118228 -2.44761e-15 0)
(0.118619 -1.57329e-15 0)
(0.119008 -5.87918e-16 0)
(0.119397 2.76064e-16 0)
(0.119785 1.43171e-15 0)
(0.120171 2.58813e-15 0)
(0.120557 2.43905e-15 0)
(0.120941 8.66299e-16 0)
(0.121325 3.20731e-15 0)
(0.121707 3.01534e-15 0)
(0.122089 1.13223e-15 0)
(0.122469 2.41382e-15 0)
(0.122849 1.64343e-15 0)
(0.123228 1.97331e-15 0)
(0.123606 2.21657e-15 0)
(0.123983 4.07402e-15 0)
(0.124359 3.94693e-15 0)
(0.124734 4.56084e-15 0)
(0.125108 5.21196e-15 0)
(0.125482 6.15994e-15 0)
(0.125854 6.88889e-15 0)
(0.126226 6.63953e-15 0)
(0.126596 6.71966e-15 0)
(0.126966 7.76467e-15 0)
(0.127335 6.26191e-15 0)
(0.127703 4.34971e-15 0)
(0.128071 3.94032e-15 0)
(0.128437 2.81049e-15 0)
(0.128802 3.0669e-15 0)
(0.129167 3.7451e-15 0)
(0.12953 2.58402e-15 0)
(0.129892 1.43583e-15 0)
(0.130254 2.41803e-15 0)
(0.130614 1.07281e-15 0)
(0.130972 5.24161e-16 0)
(0.13133 1.10858e-16 0)
(0.131685 3.48702e-16 0)
(0.132039 -4.36497e-16 0)
(0.132391 -1.708e-15 0)
(0.132741 3.05327e-16 0)
(0.133089 -7.11447e-16 0)
(0.133435 -1.10389e-15 0)
(0.133779 -2.1921e-15 0)
(0.13412 -2.314e-15 0)
(0.134461 -2.29597e-15 0)
(0.1348 -3.04063e-15 0)
(0.135137 -1.89921e-15 0)
(0.135474 -4.41814e-15 0)
(0.135808 -2.53362e-15 0)
(0.136142 -3.99425e-15 0)
(0.136473 -3.29799e-15 0)
(0.136803 -2.63835e-15 0)
(0.137132 -2.36711e-15 0)
(0.137459 -3.04528e-15 0)
(0.137784 -1.57062e-15 0)
(0.138108 -1.43261e-15 0)
(0.13843 -2.31529e-15 0)
(0.138749 -1.66857e-15 0)
(0.139068 3.37687e-17 0)
(0.139384 3.77228e-17 0)
(0.139698 -1.07798e-15 0)
(0.14001 1.24418e-16 0)
(0.14032 7.23695e-16 0)
(0.140628 1.16917e-15 0)
(0.140933 2.66157e-15 0)
(0.141236 -2.38318e-16 0)
(0.141537 3.07075e-15 0)
(0.141836 2.98873e-15 0)
(0.142131 6.05671e-15 0)
(0.142425 3.73556e-15 0)
(0.142715 4.07858e-15 0)
(0.143003 3.7304e-15 0)
(0.143287 3.48346e-15 0)
(0.143569 2.87004e-15 0)
(0.143848 2.10702e-15 0)
(0.144123 3.49557e-15 0)
(0.144395 2.30277e-15 0)
(0.144664 3.1545e-15 0)
(0.144929 2.17668e-15 0)
(0.14519 1.9948e-15 0)
(0.145448 3.26514e-15 0)
(0.145702 3.44102e-15 0)
(0.145951 6.59639e-15 0)
(0.146197 6.01739e-15 0)
(0.146438 3.56924e-15 0)
(0.146674 5.19915e-15 0)
(0.146906 4.72404e-15 0)
(0.147133 2.95195e-15 0)
(0.147355 2.39198e-15 0)
(0.147571 4.13552e-15 0)
(0.147782 1.39374e-15 0)
(0.147988 3.33357e-15 0)
(0.148188 2.13189e-15 0)
(0.148382 1.14153e-15 0)
(0.14857 2.14242e-15 0)
(0.148751 2.7201e-15 0)
(0.148926 1.83679e-15 0)
(0.149093 2.5899e-15 0)
(0.149254 1.85617e-15 0)
(0.149407 2.44027e-15 0)
(0.149552 9.20003e-16 0)
(0.14969 1.86976e-15 0)
(0.149819 1.41592e-15 0)
(0.14994 1.54483e-15 0)
(0.150052 1.07059e-16 0)
(0.150154 -2.37112e-16 0)
(0.150247 1.55842e-15 0)
(0.15033 9.66963e-16 0)
(0.150402 1.66534e-15 0)
(0.150464 -2.04061e-16 0)
(0.150514 -1.27521e-15 0)
(0.150553 -2.78131e-18 0)
(0.150579 -2.14776e-15 0)
(0.150593 -4.45062e-15 0)
(0.150593 -2.84729e-15 0)
(0.150579 -3.34852e-15 0)
(0.150553 -2.7339e-15 0)
(0.150514 -1.96448e-15 0)
(0.150464 -2.49963e-15 0)
(0.150402 -3.66275e-16 0)
(0.15033 -1.27562e-15 0)
(0.150247 -1.23502e-15 0)
(0.150154 -6.27197e-16 0)
(0.150052 -1.09426e-16 0)
(0.14994 1.3925e-15 0)
(0.149819 1.43867e-15 0)
(0.14969 5.07071e-15 0)
(0.149552 3.80239e-15 0)
(0.149407 4.9232e-15 0)
(0.149254 5.33578e-15 0)
(0.149093 6.45878e-15 0)
(0.148926 7.03425e-15 0)
(0.148751 7.54073e-15 0)
(0.14857 6.1181e-15 0)
(0.148382 5.50427e-15 0)
(0.148188 5.11103e-15 0)
(0.147988 5.46513e-15 0)
(0.147782 6.20001e-15 0)
(0.147571 6.57193e-15 0)
(0.147355 4.74529e-15 0)
(0.147133 6.53346e-15 0)
(0.146906 6.00839e-15 0)
(0.146674 8.40039e-15 0)
(0.146438 9.25571e-15 0)
(0.146197 8.60476e-15 0)
(0.145951 7.34506e-15 0)
(0.145702 5.83604e-15 0)
(0.145448 5.93926e-15 0)
(0.14519 7.69187e-15 0)
(0.144929 5.89003e-15 0)
(0.144664 5.20978e-15 0)
(0.144395 5.40551e-15 0)
(0.144123 6.65993e-15 0)
(0.143848 5.48971e-15 0)
(0.143569 6.65538e-15 0)
(0.143287 5.72343e-15 0)
(0.143003 4.77593e-15 0)
(0.142715 4.21472e-15 0)
(0.142425 4.3599e-15 0)
(0.142131 1.87163e-15 0)
(0.141836 1.41512e-15 0)
(0.141537 3.78302e-15 0)
(0.141236 3.72267e-15 0)
(0.140933 4.37748e-15 0)
(0.140628 4.87953e-15 0)
(0.14032 1.88127e-15 0)
(0.14001 3.36377e-15 0)
(0.139698 1.77324e-15 0)
(0.139384 1.63877e-16 0)
(0.139068 -1.18654e-15 0)
(0.138749 -1.51621e-15 0)
(0.13843 -1.97457e-15 0)
(0.138108 2.54205e-16 0)
(0.137784 5.2213e-16 0)
(0.137459 8.83115e-17 0)
(0.137132 7.59872e-16 0)
(0.136803 1.88167e-15 0)
(0.136473 -1.75762e-16 0)
(0.136142 -7.45343e-16 0)
(0.135808 -1.30601e-15 0)
(0.135474 -1.62068e-15 0)
(0.135137 -1.87408e-15 0)
(0.1348 -1.84912e-15 0)
(0.134461 -1.82389e-15 0)
(0.13412 -2.77082e-15 0)
(0.133779 -3.17949e-15 0)
(0.133435 -3.58831e-15 0)
(0.133089 -2.91253e-15 0)
(0.132741 -2.91197e-15 0)
(0.132391 -3.93791e-15 0)
(0.132039 -2.96988e-15 0)
(0.131685 -3.1551e-15 0)
(0.13133 -4.74315e-15 0)
(0.130972 -3.83233e-15 0)
(0.130614 -5.15383e-15 0)
(0.130254 -3.95848e-15 0)
(0.129892 -2.52503e-15 0)
(0.12953 -3.55105e-15 0)
(0.129167 -4.63578e-15 0)
(0.128802 -6.37862e-15 0)
(0.128437 -4.71851e-15 0)
(0.128071 -4.72095e-15 0)
(0.127703 -5.82601e-15 0)
(0.127335 -5.82294e-15 0)
(0.126966 -3.55554e-15 0)
(0.126596 -4.39464e-15 0)
(0.126226 -3.6015e-15 0)
(0.125854 -6.11947e-15 0)
(0.125482 -4.97227e-15 0)
(0.125108 -7.08948e-15 0)
(0.124734 -6.59268e-15 0)
(0.124359 -6.98873e-15 0)
(0.123983 -6.84323e-15 0)
(0.123606 -6.73952e-15 0)
(0.123228 -3.79185e-15 0)
(0.122849 -2.92664e-15 0)
(0.122469 -2.09901e-15 0)
(0.122089 -1.8598e-15 0)
(0.121707 -1.70087e-15 0)
(0.121325 -2.49787e-15 0)
(0.120941 -9.90217e-16 0)
(0.120557 1.08239e-15 0)
(0.120171 2.26375e-16 0)
(0.119785 7.73888e-16 0)
(0.119397 1.04498e-15 0)
(0.119008 3.32846e-16 0)
(0.118619 -1.28202e-15 0)
(0.118228 1.14186e-15 0)
(0.117836 1.63136e-15 0)
(0.117443 1.16446e-15 0)
(0.117049 1.23817e-15 0)
(0.116654 1.62278e-15 0)
(0.116258 1.3889e-15 0)
(0.11586 -4.45266e-16 0)
(0.115461 1.25769e-15 0)
(0.115061 1.80514e-15 0)
(0.11466 2.104e-15 0)
(0.114257 1.94772e-15 0)
(0.113853 2.64525e-15 0)
(0.113447 3.76095e-15 0)
(0.113041 2.27567e-15 0)
(0.112632 2.14516e-15 0)
(0.112223 2.40286e-15 0)
(0.111812 9.24638e-16 0)
(0.111399 1.75221e-15 0)
(0.110985 7.95955e-16 0)
(0.110569 2.91983e-15 0)
(0.110151 2.60144e-15 0)
(0.109732 1.86352e-15 0)
(0.109311 3.48954e-15 0)
(0.108889 1.32056e-15 0)
(0.108464 1.94725e-15 0)
(0.108038 2.52289e-15 0)
(0.10761 2.08134e-15 0)
(0.10718 3.94609e-15 0)
(0.106748 3.57146e-15 0)
(0.106315 2.66372e-15 0)
(0.105879 1.1899e-15 0)
(0.105441 3.24258e-16 0)
(0.105001 2.31387e-15 0)
(0.104558 1.95059e-15 0)
(0.104114 1.44111e-15 0)
(0.103667 -5.52017e-16 0)
(0.103218 9.66119e-17 0)
(0.102766 -8.61176e-16 0)
(0.102312 -8.20741e-16 0)
(0.101856 -1.10008e-15 0)
(0.101396 -1.70287e-15 0)
(0.100935 -1.79715e-15 0)
(0.10047 -4.65261e-16 0)
(0.100003 -2.0298e-15 0)
(0.0995332 -2.45479e-15 0)
(0.0990604 -4.5412e-15 0)
(0.0985846 -4.51289e-15 0)
(0.0981058 -3.83496e-15 0)
(0.0976239 -3.40488e-15 0)
(0.0971389 -5.82686e-16 0)
(0.0966506 -1.46055e-15 0)
(0.096159 -1.97143e-15 0)
(0.0956641 -2.93491e-15 0)
(0.0951657 -2.60246e-15 0)
(0.0946637 -3.68901e-15 0)
(0.0941582 -2.00676e-15 0)
(0.093649 -2.26908e-15 0)
(0.093136 -2.5627e-15 0)
(0.0926191 -3.85015e-15 0)
(0.0920982 -3.73706e-15 0)
(0.0915734 -5.1592e-15 0)
(0.0910444 -4.43367e-15 0)
(0.0905112 -4.76037e-15 0)
(0.0899737 -5.03099e-15 0)
(0.0894318 -6.17047e-15 0)
(0.0888853 -6.79332e-15 0)
(0.0883343 -9.68846e-15 0)
(0.0877786 -8.52226e-15 0)
(0.0872181 -9.07e-15 0)
(0.0866528 -1.01024e-14 0)
(0.0860824 -1.19664e-14 0)
(0.0855069 -1.25328e-14 0)
(0.0849263 -1.27969e-14 0)
(0.0843403 -1.20971e-14 0)
(0.083749 -1.22838e-14 0)
(0.0831521 -1.02016e-14 0)
(0.0825497 -1.09051e-14 0)
(0.0819415 -1.08777e-14 0)
(0.0813275 -8.85429e-15 0)
(0.0807076 -8.5259e-15 0)
(0.0800817 -1.08162e-14 0)
(0.0794497 -1.09164e-14 0)
(0.0788114 -1.18183e-14 0)
(0.0781668 -1.17425e-14 0)
(0.0775158 -1.2609e-14 0)
(0.0768583 -1.14545e-14 0)
(0.0761942 -1.20497e-14 0)
(0.0755234 -1.16109e-14 0)
(0.0748458 -9.41945e-15 0)
(0.0741613 -9.38104e-15 0)
(0.07347 -9.95781e-15 0)
(0.0727716 -9.46422e-15 0)
(0.0720661 -9.36711e-15 0)
(0.0713535 -1.09172e-14 0)
(0.0706337 -1.01173e-14 0)
(0.0699067 -1.23419e-14 0)
(0.0691725 -1.16271e-14 0)
(0.068431 -1.18302e-14 0)
(0.0676821 -1.24311e-14 0)
(0.066926 -9.1506e-15 0)
(0.0661625 -8.38271e-15 0)
(0.0653917 -8.4976e-15 0)
(0.0646137 -5.92743e-15 0)
(0.0638285 -2.72147e-15 0)
(0.0630361 -4.10074e-15 0)
(0.0622367 -6.59744e-15 0)
(0.0614302 -8.91533e-15 0)
(0.0606168 -1.27513e-14 0)
(0.0597962 -1.45906e-14 0)
(0.0589679 -1.55026e-14 0)
(0.0581312 -1.15385e-14 0)
(0.0572861 -1.26961e-14 0)
(0.0564327 -1.34427e-14 0)
(0.0555711 -1.44446e-14 0)
(0.0547016 -1.02257e-14 0)
(0.0538242 -8.73407e-15 0)
(0.0529393 -1.03667e-14 0)
(0.052047 -1.1021e-14 0)
(0.0511477 -9.81304e-15 0)
(0.0502418 -1.25814e-14 0)
(0.0493297 -9.13598e-15 0)
(0.0484119 -7.70352e-15 0)
(0.0474888 -2.36726e-15 0)
(0.0465611 -3.49378e-15 0)
(0.0456294 -2.31964e-15 0)
(0.0446942 -4.56073e-15 0)
(0.0437564 -4.38562e-15 0)
(0.0428166 -1.05556e-15 0)
(0.0418756 -7.54869e-16 0)
(0.0409342 2.33103e-15 0)
(0.0399932 2.14792e-15 0)
(0.0390535 -2.87478e-16 0)
(0.0381157 -3.06166e-15 0)
(0.0371808 -1.42956e-15 0)
(0.0362495 -2.73527e-15 0)
(0.0353226 -6.06519e-15 0)
(0.0344009 -8.44659e-15 0)
(0.0334851 -7.69976e-15 0)
(0.0325757 -7.9931e-15 0)
(0.0316735 -9.76568e-15 0)
(0.0307791 -7.18549e-15 0)
(0.0298928 -6.85616e-15 0)
(0.0290153 -9.39956e-15 0)
(0.0281469 -8.00847e-15 0)
(0.027288 -1.01868e-14 0)
(0.0264388 -1.02393e-14 0)
(0.0255998 -9.09442e-15 0)
(0.024771 -7.68734e-15 0)
(0.0239527 -8.77398e-15 0)
(0.0231449 -9.4595e-15 0)
(0.0223479 -9.46814e-15 0)
(0.0215615 -1.31131e-14 0)
(0.020786 -8.57795e-15 0)
(0.0200213 -7.25701e-15 0)
(0.0192673 -6.07247e-15 0)
(0.0185241 -7.455e-15 0)
(0.0177916 -5.54715e-15 0)
(0.0170696 -4.54919e-15 0)
(0.0163582 -5.94374e-15 0)
(0.0156573 -5.16738e-15 0)
(0.0149667 -6.60203e-15 0)
(0.0142863 -6.81987e-15 0)
(0.013616 -5.23849e-15 0)
(0.0129557 -5.84269e-15 0)
(0.0123053 -5.77655e-15 0)
(0.0116646 -5.15743e-15 0)
(0.0110335 -5.33984e-15 0)
(0.0104119 -4.3706e-15 0)
(0.00979959 -2.54405e-15 0)
(0.00919653 -3.28506e-15 0)
(0.00860256 -4.1287e-15 0)
(0.00801753 -4.44376e-15 0)
(0.00744133 -4.8346e-15 0)
(0.00687381 -5.45445e-15 0)
(0.00631486 -4.7184e-15 0)
(0.00576435 -3.17997e-15 0)
(0.00522215 -3.22301e-15 0)
(0.00468815 -1.40649e-15 0)
(0.00416221 -9.83259e-18 0)
(0.00364421 6.35603e-16 0)
(0.00313405 -3.47522e-16 0)
(0.00263159 -5.28931e-17 0)
(0.00213674 -1.28922e-15 0)
(0.00164937 -3.71917e-17 0)
(0.00116937 -1.07195e-15 0)
(0.000696625 2.22706e-16 0)
(0.000231037 -4.08142e-17 0)
)
;

boundaryField
{
    bottomWall
    {
        type            noSlip;
    }
    topWall
    {
        type            noSlip;
    }
    sides1_half0
    {
        type            empty;
    }
    sides1_half1
    {
        type            empty;
    }
    sides2_half0
    {
        type            empty;
    }
    sides2_half1
    {
        type            empty;
    }
    inout1_half0
    {
        type            cyclic;
    }
    inout1_half1
    {
        type            cyclic;
    }
    inout2_half0
    {
        type            cyclic;
    }
    inout2_half1
    {
        type            cyclic;
    }
}


// ************************************************************************* //
