/*--------------------------------*- C++ -*----------------------------------*\
  =========                 |
  \\      /  F ield         | OpenFOAM: The Open Source CFD Toolbox
   \\    /   O peration     | Website:  https://openfoam.org
    \\  /    A nd           | Version:  7
     \\/     M anipulation  |
\*---------------------------------------------------------------------------*/
FoamFile
{
    version     2.0;
    format      ascii;
    class       surfaceScalarField;
    location    "17000";
    object      phi;
}
// * * * * * * * * * * * * * * * * * * * * * * * * * * * * * * * * * * * * * //

dimensions      [0 3 -1 0 0 0 0];

internalField   nonuniform List<scalar> 
7768
(
0.000338882
-5.92121e-10
0.000338883
-7.74191e-10
0.000338883
-6.67343e-10
0.000338883
-5.03425e-10
0.000338883
-3.55566e-10
0.000338883
-2.33657e-10
0.000338884
-1.3437e-10
0.000338884
-5.28761e-11
0.000338884
1.66531e-11
0.000338884
7.69823e-11
0.000338884
1.29236e-10
0.000338884
1.75225e-10
0.000338885
2.17582e-10
0.000338885
2.56242e-10
0.000338885
2.90883e-10
0.000338885
3.23546e-10
0.000338885
3.58706e-10
0.000338885
3.93142e-10
0.000338886
4.45876e-10
0.000338886
5.10396e-10
6.77803e-10
0.000338878
-5.0052e-10
0.000338878
-5.64279e-10
0.000338879
-5.77799e-10
0.000338879
-5.7189e-10
0.000338879
-5.56227e-10
0.00033888
-5.29486e-10
0.00033888
-4.92635e-10
0.00033888
-4.43584e-10
0.000338881
-3.78169e-10
0.000338881
-2.93209e-10
0.000338881
-1.87728e-10
0.000338881
-4.68232e-11
0.000338881
1.28686e-10
0.000338882
3.65797e-10
0.000338882
7.49565e-10
3.01145e-10
0.000330274
-8.06453e-10
0.000330274
-9.73029e-10
0.000330274
-8.58468e-10
0.000330275
-6.94204e-10
0.000330275
-5.47926e-10
0.000330275
-4.27389e-10
0.000330275
-3.28516e-10
0.000330275
-2.45159e-10
0.000330276
-1.72591e-10
0.000330276
-1.08499e-10
0.000330276
-5.19467e-11
0.000330276
-2.05409e-12
0.000330276
4.5251e-11
0.000330276
8.93253e-11
0.000330277
1.29519e-10
0.000330277
1.67912e-10
0.000330277
2.09242e-10
0.000330277
2.50196e-10
0.000330277
3.15111e-10
0.000330277
3.92739e-10
0.000330277
6.10049e-10
0.000330277
8.58682e-10
1.02656e-09
0.000330269
-6.1441e-10
0.000330269
-6.41037e-10
0.000330269
-6.04616e-10
0.00033027
-7.20904e-10
0.00033027
-8.99011e-10
0.00033027
-9.23823e-10
0.000330271
-9.02211e-10
0.000330271
-8.71444e-10
0.000330271
-8.3587e-10
0.000330272
-7.9314e-10
0.000330272
-7.43373e-10
0.000330272
-6.8276e-10
0.000330272
-6.08669e-10
0.000330273
-5.17312e-10
0.000330273
-4.08048e-10
0.000330273
-2.64782e-10
0.000330273
-8.96668e-11
0.000330273
1.41219e-10
0.000330274
5.22595e-10
7.73776e-11
0.000321848
-1.00612e-09
0.000321849
-1.16789e-09
0.000321849
-1.04777e-09
0.000321849
-8.8109e-10
0.000321849
-7.34923e-10
0.000321849
-6.15811e-10
0.00032185
-5.16741e-10
0.00032185
-4.31554e-10
0.00032185
-3.56656e-10
0.00032185
-2.89189e-10
0.00032185
-2.28817e-10
0.000321851
-1.74387e-10
0.000321851
-1.22285e-10
0.000321851
-7.32109e-11
0.000321851
-2.77467e-11
0.000321851
1.61488e-11
0.000321851
6.24712e-11
0.000321851
1.09439e-10
0.000321852
1.81483e-10
0.000321852
2.71242e-10
0.000321852
4.38358e-10
0.000321852
6.9153e-10
0.000321852
1.01191e-09
0.000321852
1.24555e-09
0.000321852
1.25538e-09
0.000321851
1.19089e-09
0.000321851
1.12827e-09
0.000321851
1.07813e-09
0.000321851
1.03804e-09
0.00032185
1.00489e-09
0.00032185
9.74801e-10
0.00032185
9.46535e-10
0.00032185
9.22194e-10
0.00032185
8.99666e-10
0.00032185
8.78074e-10
0.000321849
8.58938e-10
0.000321849
8.41294e-10
0.000321849
8.2566e-10
0.000321849
8.11403e-10
0.000321849
7.97846e-10
0.000321849
7.85031e-10
0.000321849
7.73556e-10
0.000321849
7.63553e-10
0.000321848
7.53882e-10
0.000321848
7.43576e-10
0.000321848
7.32103e-10
0.000321848
7.21583e-10
0.000321848
7.09364e-10
0.000321848
6.95333e-10
0.000321848
6.79955e-10
0.000321848
6.61341e-10
0.000321848
6.41857e-10
0.000321848
6.20945e-10
0.000321848
5.97117e-10
0.000321847
5.71365e-10
0.000321847
5.44444e-10
0.000321847
5.14946e-10
0.000321847
4.84197e-10
0.000321847
4.52301e-10
0.000321847
4.19468e-10
0.000321847
3.84385e-10
0.000321847
3.48225e-10
0.000321847
3.12571e-10
0.000321847
2.75857e-10
0.000321847
2.39481e-10
0.000321847
2.02261e-10
0.000321846
1.65914e-10
0.000321846
1.28461e-10
0.000321846
8.86681e-11
0.000321846
5.08939e-11
0.000321846
1.51826e-11
0.000321846
-2.18702e-11
0.000321846
-6.08436e-11
0.000321846
-9.89115e-11
0.000321846
-1.3462e-10
0.000321846
-1.69409e-10
0.000321846
-2.05327e-10
0.000321846
-2.40495e-10
0.000321846
-2.73942e-10
0.000321846
-3.07167e-10
0.000321845
-3.39973e-10
0.000321845
-3.72112e-10
0.000321845
-4.05909e-10
0.000321845
-4.39876e-10
0.000321845
-4.70255e-10
0.000321845
-4.9706e-10
0.000321845
-5.2253e-10
0.000321845
-5.47229e-10
0.000321845
-5.70535e-10
0.000321845
-5.92409e-10
0.000321845
-6.1034e-10
0.000321845
-6.25046e-10
0.000321845
-6.37312e-10
0.000321844
-6.44469e-10
0.000321844
-6.4535e-10
0.000321844
-6.39001e-10
0.000321844
-6.23649e-10
0.000321844
-5.95142e-10
0.000321844
-5.41637e-10
0.000321844
-6.44204e-10
0.000321844
-8.07864e-10
0.000321845
-8.21707e-10
0.000321845
-7.77937e-10
0.000321845
-8.93391e-10
0.000321845
-1.08733e-09
0.000321845
-1.13737e-09
0.000321846
-1.12547e-09
0.000321846
-1.09473e-09
0.000321846
-1.05573e-09
0.000321846
-1.00796e-09
0.000321846
-9.52738e-10
0.000321847
-8.85819e-10
0.000321847
-8.0769e-10
0.000321847
-7.13706e-10
0.000321847
-6.02381e-10
0.000321847
-4.59984e-10
0.000321848
-2.88427e-10
0.000321848
-6.62824e-11
0.000321848
3.09021e-10
-1.29656e-10
0.000313602
-1.17969e-09
0.000313602
-1.3459e-09
0.000313602
-1.2278e-09
0.000313602
-1.06071e-09
0.000313603
-9.14397e-10
0.000313603
-7.95169e-10
0.000313603
-6.95599e-10
0.000313603
-6.09078e-10
0.000313603
-5.31782e-10
0.000313603
-4.61661e-10
0.000313604
-3.98178e-10
0.000313604
-3.38848e-10
0.000313604
-2.8276e-10
0.000313604
-2.29315e-10
0.000313604
-1.79111e-10
0.000313604
-1.3014e-10
0.000313605
-7.9017e-11
0.000313605
-2.65948e-11
0.000313605
4.82873e-11
0.000313605
1.47251e-10
0.000313605
2.60647e-10
0.000313605
4.62433e-10
0.000313606
7.75249e-10
0.000313606
1.08503e-09
0.000313606
1.26153e-09
0.000313606
1.29684e-09
0.000313605
1.2695e-09
0.000313605
1.22733e-09
0.000313605
1.18708e-09
0.000313605
1.14991e-09
0.000313605
1.11633e-09
0.000313605
1.0856e-09
0.000313605
1.0575e-09
0.000313604
1.03126e-09
0.000313604
1.00749e-09
0.000313604
9.84878e-10
0.000313604
9.63573e-10
0.000313604
9.44304e-10
0.000313604
9.26854e-10
0.000313604
9.10564e-10
0.000313604
8.94592e-10
0.000313604
8.80673e-10
0.000313603
8.68221e-10
0.000313603
8.55789e-10
0.000313603
8.4318e-10
0.000313603
8.29704e-10
0.000313603
8.16043e-10
0.000313603
8.01282e-10
0.000313603
7.85789e-10
0.000313603
7.68085e-10
0.000313603
7.48282e-10
0.000313603
7.28571e-10
0.000313602
7.05409e-10
0.000313602
6.79887e-10
0.000313602
6.53096e-10
0.000313602
6.24269e-10
0.000313602
5.94431e-10
0.000313602
5.62735e-10
0.000313602
5.30368e-10
0.000313602
4.97243e-10
0.000313602
4.60463e-10
0.000313602
4.24505e-10
0.000313602
3.88969e-10
0.000313602
3.5125e-10
0.000313602
3.15193e-10
0.000313601
2.77632e-10
0.000313601
2.40079e-10
0.000313601
2.02246e-10
0.000313601
1.63101e-10
0.000313601
1.25422e-10
0.000313601
8.79704e-11
0.000313601
5.015e-11
0.000313601
1.26169e-11
0.000313601
-2.47974e-11
0.000313601
-6.11365e-11
0.000313601
-9.58675e-11
0.000313601
-1.30687e-10
0.000313601
-1.65517e-10
0.000313601
-1.99733e-10
0.0003136
-2.32779e-10
0.0003136
-2.65439e-10
0.0003136
-2.97827e-10
0.0003136
-3.3168e-10
0.0003136
-3.64512e-10
0.0003136
-3.94475e-10
0.0003136
-4.22125e-10
0.0003136
-4.47848e-10
0.0003136
-4.72484e-10
0.0003136
-4.95206e-10
0.0003136
-5.16053e-10
0.0003136
-5.34036e-10
0.0003136
-5.49838e-10
0.000313599
-5.6281e-10
0.000313599
-5.70413e-10
0.000313599
-5.73002e-10
0.000313599
-5.68351e-10
0.000313599
-5.55105e-10
0.000313599
-5.37722e-10
0.000313599
-5.01077e-10
0.000313599
-6.21471e-10
0.000313599
-8.19117e-10
0.000313599
-8.74882e-10
0.000313599
-8.63455e-10
0.000313599
-9.71878e-10
0.000313599
-1.15216e-09
0.000313599
-1.22482e-09
0.0003136
-1.23898e-09
0.0003136
-1.22571e-09
0.0003136
-1.19854e-09
0.0003136
-1.15674e-09
0.0003136
-1.10397e-09
0.0003136
-1.03909e-09
0.0003136
-9.62873e-10
0.000313601
-8.7086e-10
0.000313601
-7.61412e-10
0.000313601
-6.23305e-10
0.000313601
-4.58183e-10
0.000313601
-2.48295e-10
0.000313601
1.17436e-10
-3.12131e-10
0.00030553
-1.32226e-09
0.000305531
-1.4984e-09
0.000305531
-1.38991e-09
0.000305531
-1.22719e-09
0.000305531
-1.08205e-09
0.000305531
-9.61995e-10
0.000305531
-8.62352e-10
0.000305532
-7.75159e-10
0.000305532
-6.95434e-10
0.000305532
-6.23732e-10
0.000305532
-5.57811e-10
0.000305532
-4.94589e-10
0.000305532
-4.34429e-10
0.000305532
-3.77035e-10
0.000305533
-3.22426e-10
0.000305533
-2.68796e-10
0.000305533
-2.13317e-10
0.000305533
-1.55933e-10
0.000305533
-8.06176e-11
0.000305533
2.39233e-11
0.000305533
1.01647e-10
0.000305534
2.42283e-10
0.000305534
4.87494e-10
0.000305534
7.85743e-10
0.000305534
1.06784e-09
0.000305535
1.22194e-09
0.000305535
1.27283e-09
0.000305534
1.27182e-09
0.000305534
1.25361e-09
0.000305534
1.22792e-09
0.000305534
1.20047e-09
0.000305534
1.17487e-09
0.000305534
1.15018e-09
0.000305534
1.12511e-09
0.000305534
1.10197e-09
0.000305534
1.07963e-09
0.000305534
1.0582e-09
0.000305534
1.03815e-09
0.000305533
1.01885e-09
0.000305533
1.00137e-09
0.000305533
9.85383e-10
0.000305533
9.70662e-10
0.000305533
9.56517e-10
0.000305533
9.41785e-10
0.000305533
9.28055e-10
0.000305533
9.14419e-10
0.000305533
8.98155e-10
0.000305533
8.81446e-10
0.000305533
8.64838e-10
0.000305533
8.46465e-10
0.000305532
8.27017e-10
0.000305532
8.05892e-10
0.000305532
7.80843e-10
0.000305532
7.55163e-10
0.000305532
7.28048e-10
0.000305532
6.98299e-10
0.000305532
6.68083e-10
0.000305532
6.35532e-10
0.000305532
6.03364e-10
0.000305532
5.69999e-10
0.000305532
5.33021e-10
0.000305532
4.9758e-10
0.000305532
4.61885e-10
0.000305532
4.23997e-10
0.000305531
3.87439e-10
0.000305531
3.49496e-10
0.000305531
3.11615e-10
0.000305531
2.74662e-10
0.000305531
2.36238e-10
0.000305531
1.97894e-10
0.000305531
1.59846e-10
0.000305531
1.2169e-10
0.000305531
8.46097e-11
0.000305531
4.86964e-11
0.000305531
1.2646e-11
0.000305531
-2.25241e-11
0.000305531
-5.70086e-11
0.000305531
-9.16289e-11
0.00030553
-1.25898e-10
0.00030553
-1.58253e-10
0.00030553
-1.90803e-10
0.00030553
-2.23826e-10
0.00030553
-2.57194e-10
0.00030553
-2.88143e-10
0.00030553
-3.17535e-10
0.00030553
-3.46291e-10
0.00030553
-3.72404e-10
0.00030553
-3.97659e-10
0.00030553
-4.19595e-10
0.00030553
-4.39534e-10
0.00030553
-4.58053e-10
0.000305529
-4.7399e-10
0.000305529
-4.87135e-10
0.000305529
-4.94694e-10
0.000305529
-4.98352e-10
0.000305529
-4.96542e-10
0.000305529
-4.8754e-10
0.000305529
-4.78099e-10
0.000305529
-4.55137e-10
0.000305529
-5.65459e-10
0.000305529
-7.52058e-10
0.000305529
-8.35339e-10
0.000305529
-8.64409e-10
0.000305529
-9.76285e-10
0.000305529
-1.1402e-09
0.000305529
-1.22253e-09
0.000305529
-1.25959e-09
0.000305529
-1.2694e-09
0.000305529
-1.26139e-09
0.000305529
-1.23371e-09
0.000305529
-1.19118e-09
0.000305529
-1.13623e-09
0.000305529
-1.06735e-09
0.000305529
-9.81251e-10
0.00030553
-8.78716e-10
0.00030553
-7.48523e-10
0.00030553
-5.92119e-10
0.00030553
-3.97262e-10
0.00030553
-4.63869e-11
-4.66441e-10
0.000297631
-1.43231e-09
0.000297631
-1.6204e-09
0.000297631
-1.52693e-09
0.000297631
-1.37436e-09
0.000297631
-1.23372e-09
0.000297631
-1.11428e-09
0.000297631
-1.01446e-09
0.000297632
-9.27523e-10
0.000297632
-8.46998e-10
0.000297632
-7.73983e-10
0.000297632
-7.05979e-10
0.000297632
-6.3947e-10
0.000297632
-5.75399e-10
0.000297632
-5.14595e-10
0.000297633
-4.55661e-10
0.000297633
-3.97832e-10
0.000297633
-3.38807e-10
0.000297633
-2.76957e-10
0.000297633
-2.02271e-10
0.000297633
-9.57501e-11
0.000297633
-3.76968e-11
0.000297634
5.27629e-11
0.000297634
2.22613e-10
0.000297634
4.62403e-10
0.000297634
7.73683e-10
0.000297635
1.0126e-09
0.000297635
1.14748e-09
0.000297635
1.20759e-09
0.000297635
1.22907e-09
0.000297635
1.23025e-09
0.000297635
1.22035e-09
0.000297635
1.20707e-09
0.000297635
1.19207e-09
0.000297635
1.17401e-09
0.000297635
1.15564e-09
0.000297635
1.13699e-09
0.000297635
1.11898e-09
0.000297634
1.10241e-09
0.000297634
1.08382e-09
0.000297634
1.06708e-09
0.000297634
1.05284e-09
0.000297634
1.03852e-09
0.000297634
1.02474e-09
0.000297634
1.00965e-09
0.000297634
9.94921e-10
0.000297634
9.81425e-10
0.000297634
9.65478e-10
0.000297634
9.47881e-10
0.000297634
9.30444e-10
0.000297634
9.13224e-10
0.000297634
8.94474e-10
0.000297634
8.71784e-10
0.000297633
8.46813e-10
0.000297633
8.2128e-10
0.000297633
7.94253e-10
0.000297633
7.6432e-10
0.000297633
7.34088e-10
0.000297633
7.02152e-10
0.000297633
6.69492e-10
0.000297633
6.35609e-10
0.000297633
5.9991e-10
0.000297633
5.65513e-10
0.000297633
5.29259e-10
0.000297633
4.92173e-10
0.000297633
4.55762e-10
0.000297633
4.17499e-10
0.000297633
3.79945e-10
0.000297632
3.43847e-10
0.000297632
3.06293e-10
0.000297632
2.67683e-10
0.000297632
2.30184e-10
0.000297632
1.9231e-10
0.000297632
1.55099e-10
0.000297632
1.19948e-10
0.000297632
8.43689e-11
0.000297632
4.99499e-11
0.000297632
1.56141e-11
0.000297632
-1.9022e-11
0.000297632
-5.29044e-11
0.000297632
-8.54347e-11
0.000297632
-1.18151e-10
0.000297631
-1.5087e-10
0.000297631
-1.82579e-10
0.000297631
-2.12182e-10
0.000297631
-2.416e-10
0.000297631
-2.70539e-10
0.000297631
-2.96666e-10
0.000297631
-3.21402e-10
0.000297631
-3.43453e-10
0.000297631
-3.64511e-10
0.000297631
-3.83055e-10
0.000297631
-3.97823e-10
0.000297631
-4.10538e-10
0.000297631
-4.19047e-10
0.00029763
-4.23495e-10
0.00029763
-4.24246e-10
0.00029763
-4.19724e-10
0.00029763
-4.16266e-10
0.00029763
-4.04482e-10
0.00029763
-5.00394e-10
0.00029763
-6.60104e-10
0.00029763
-7.49114e-10
0.00029763
-8.05938e-10
0.00029763
-9.24074e-10
0.00029763
-1.07649e-09
0.00029763
-1.1606e-09
0.00029763
-1.21182e-09
0.00029763
-1.24239e-09
0.00029763
-1.25347e-09
0.00029763
-1.24391e-09
0.00029763
-1.21742e-09
0.00029763
-1.17632e-09
0.00029763
-1.11861e-09
0.00029763
-1.04289e-09
0.00029763
-9.50085e-10
0.00029763
-8.31226e-10
0.00029763
-6.8843e-10
0.00029763
-5.10691e-10
0.00029763
-1.7844e-10
-5.8982e-10
0.000289899
-1.50977e-09
0.000289899
-1.71034e-09
0.000289899
-1.63571e-09
0.000289899
-1.49822e-09
0.000289899
-1.36636e-09
0.0002899
-1.25028e-09
0.0002899
-1.151e-09
0.0002899
-1.06455e-09
0.0002899
-9.84827e-10
0.0002899
-9.10906e-10
0.0002899
-8.41075e-10
0.0002899
-7.71606e-10
0.0002899
-7.04086e-10
0.000289901
-6.40734e-10
0.000289901
-5.78709e-10
0.000289901
-5.17352e-10
0.000289901
-4.54036e-10
0.000289901
-3.88032e-10
0.000289901
-3.14738e-10
0.000289901
-2.09771e-10
0.000289901
-1.60336e-10
0.000289902
-1.03868e-10
0.000289902
3.0745e-12
0.000289902
1.72262e-10
0.000289902
4.59202e-10
0.000289903
7.33854e-10
0.000289903
9.31318e-10
0.000289903
1.05196e-09
0.000289903
1.12057e-09
0.000289903
1.1578e-09
0.000289903
1.17529e-09
0.000289903
1.18153e-09
0.000289903
1.18131e-09
0.000289903
1.17503e-09
0.000289903
1.16657e-09
0.000289903
1.15607e-09
0.000289903
1.1432e-09
0.000289903
1.13261e-09
0.000289903
1.11932e-09
0.000289903
1.10541e-09
0.000289903
1.09341e-09
0.000289903
1.08156e-09
0.000289903
1.07032e-09
0.000289903
1.05663e-09
0.000289903
1.04236e-09
0.000289903
1.02984e-09
0.000289903
1.01528e-09
0.000289903
9.98875e-10
0.000289903
9.8281e-10
0.000289903
9.66013e-10
0.000289903
9.47893e-10
0.000289903
9.25714e-10
0.000289902
9.01897e-10
0.000289902
8.76828e-10
0.000289902
8.50204e-10
0.000289902
8.20456e-10
0.000289902
7.90775e-10
0.000289902
7.61242e-10
0.000289902
7.28411e-10
0.000289902
6.93813e-10
0.000289902
6.60055e-10
0.000289902
6.26868e-10
0.000289902
5.90473e-10
0.000289902
5.54273e-10
0.000289902
5.18318e-10
0.000289902
4.8128e-10
0.000289902
4.4476e-10
0.000289902
4.08229e-10
0.000289902
3.71865e-10
0.000289901
3.34266e-10
0.000289901
2.96935e-10
0.000289901
2.59885e-10
0.000289901
2.23758e-10
0.000289901
1.8904e-10
0.000289901
1.53757e-10
0.000289901
1.19744e-10
0.000289901
8.531e-11
0.000289901
5.2058e-11
0.000289901
1.90369e-11
0.000289901
-1.4913e-11
0.000289901
-4.79674e-11
0.000289901
-7.92752e-11
0.000289901
-1.09139e-10
0.0002899
-1.38e-10
0.0002899
-1.6707e-10
0.0002899
-1.95393e-10
0.0002899
-2.21044e-10
0.0002899
-2.45446e-10
0.0002899
-2.68871e-10
0.0002899
-2.89906e-10
0.0002899
-3.0746e-10
0.0002899
-3.22705e-10
0.0002899
-3.34654e-10
0.0002899
-3.44036e-10
0.0002899
-3.50244e-10
0.0002899
-3.51801e-10
0.0002899
-3.50624e-10
0.000289899
-3.52595e-10
0.000289899
-3.5044e-10
0.000289899
-4.33573e-10
0.000289899
-5.65283e-10
0.000289899
-6.47705e-10
0.000289899
-7.15767e-10
0.000289899
-8.35992e-10
0.000289899
-9.78902e-10
0.000289899
-1.06121e-09
0.000289899
-1.1191e-09
0.000289899
-1.16356e-09
0.000289899
-1.19059e-09
0.000289898
-1.1991e-09
0.000289898
-1.18952e-09
0.000289898
-1.16332e-09
0.000289898
-1.11913e-09
0.000289898
-1.05757e-09
0.000289898
-9.77825e-10
0.000289899
-8.7188e-10
0.000289899
-7.45748e-10
0.000289899
-5.88794e-10
0.000289899
-2.77442e-10
-6.80718e-10
0.000282332
-1.55646e-09
0.000282332
-1.77098e-09
0.000282332
-1.71675e-09
0.000282332
-1.59664e-09
0.000282332
-1.47665e-09
0.000282332
-1.36743e-09
0.000282333
-1.27102e-09
0.000282333
-1.18612e-09
0.000282333
-1.10791e-09
0.000282333
-1.03325e-09
0.000282333
-9.61868e-10
0.000282333
-8.91091e-10
0.000282333
-8.20556e-10
0.000282333
-7.54413e-10
0.000282333
-6.90311e-10
0.000282334
-6.26071e-10
0.000282334
-5.58896e-10
0.000282334
-4.89339e-10
0.000282334
-4.16701e-10
0.000282334
-3.15824e-10
0.000282334
-2.6947e-10
0.000282334
-2.32503e-10
0.000282334
-1.70991e-10
0.000282335
-6.46016e-11
0.000282335
1.71699e-10
0.000282335
4.40966e-10
0.000282336
6.69267e-10
0.000282336
8.35209e-10
0.000282336
9.48441e-10
0.000282336
1.02338e-09
0.000282336
1.07171e-09
0.000282336
1.10183e-09
0.000282336
1.12143e-09
0.000282336
1.13063e-09
0.000282336
1.13478e-09
0.000282336
1.1362e-09
0.000282336
1.13209e-09
0.000282336
1.12882e-09
0.000282336
1.12342e-09
0.000282336
1.11497e-09
0.000282336
1.10727e-09
0.000282336
1.10007e-09
0.000282336
1.09176e-09
0.000282336
1.08065e-09
0.000282336
1.06967e-09
0.000282336
1.05924e-09
0.000282336
1.04704e-09
0.000282336
1.03377e-09
0.000282336
1.01958e-09
0.000282336
1.00357e-09
0.000282336
9.86299e-10
0.000282336
9.66795e-10
0.000282336
9.45301e-10
0.000282336
9.20436e-10
0.000282336
8.9454e-10
0.000282336
8.66841e-10
0.000282336
8.38524e-10
0.000282336
8.10644e-10
0.000282336
7.78184e-10
0.000282336
7.44232e-10
0.000282336
7.12691e-10
0.000282336
6.80281e-10
0.000282335
6.45407e-10
0.000282335
6.1058e-10
0.000282335
5.74942e-10
0.000282335
5.39602e-10
0.000282335
5.04421e-10
0.000282335
4.67186e-10
0.000282335
4.31779e-10
0.000282335
3.9613e-10
0.000282335
3.59708e-10
0.000282335
3.2441e-10
0.000282335
2.8915e-10
0.000282335
2.54305e-10
0.000282335
2.20533e-10
0.000282335
1.86481e-10
0.000282335
1.51694e-10
0.000282335
1.20447e-10
0.000282334
8.83067e-11
0.000282334
5.39872e-11
0.000282334
2.11175e-11
0.000282334
-8.82444e-12
0.000282334
-3.81864e-11
0.000282334
-6.72076e-11
0.000282334
-9.41082e-11
0.000282334
-1.21081e-10
0.000282334
-1.47281e-10
0.000282334
-1.71553e-10
0.000282334
-1.95117e-10
0.000282334
-2.15668e-10
0.000282334
-2.3271e-10
0.000282334
-2.49183e-10
0.000282333
-2.60768e-10
0.000282333
-2.6988e-10
0.000282333
-2.77508e-10
0.000282333
-2.80651e-10
0.000282333
-2.82261e-10
0.000282333
-2.87545e-10
0.000282333
-2.92944e-10
0.000282333
-3.6664e-10
0.000282333
-4.75486e-10
0.000282333
-5.46998e-10
0.000282333
-6.14527e-10
0.000282333
-7.30095e-10
0.000282332
-8.62135e-10
0.000282332
-9.41423e-10
0.000282332
-1.00027e-09
0.000282332
-1.0514e-09
0.000282332
-1.08991e-09
0.000282332
-1.11232e-09
0.000282332
-1.1178e-09
0.000282332
-1.1065e-09
0.000282332
-1.07718e-09
0.000282332
-1.03005e-09
0.000282332
-9.65466e-10
0.000282332
-8.74721e-10
0.000282332
-7.65533e-10
0.000282332
-6.31567e-10
0.000282332
-3.43986e-10
-7.40115e-10
0.000274926
-1.5745e-09
0.000274927
-1.80441e-09
0.000274927
-1.77102e-09
0.000274927
-1.66986e-09
0.000274927
-1.56392e-09
0.000274927
-1.46427e-09
0.000274927
-1.37413e-09
0.000274927
-1.29254e-09
0.000274927
-1.21564e-09
0.000274927
-1.14116e-09
0.000274927
-1.06864e-09
0.000274927
-9.9719e-10
0.000274928
-9.25114e-10
0.000274928
-8.56101e-10
0.000274928
-7.89623e-10
0.000274928
-7.22864e-10
0.000274928
-6.53291e-10
0.000274928
-5.81071e-10
0.000274928
-5.08492e-10
0.000274928
-4.11563e-10
0.000274928
-3.65555e-10
0.000274928
-3.39246e-10
0.000274929
-3.06397e-10
0.000274929
-2.48361e-10
0.000274929
-6.96022e-11
0.000274929
1.69181e-10
0.00027493
4.00517e-10
0.00027493
5.90577e-10
0.00027493
7.37367e-10
0.00027493
8.45167e-10
0.00027493
9.22025e-10
0.00027493
9.7775e-10
0.000274931
1.01922e-09
0.000274931
1.04597e-09
0.000274931
1.06448e-09
0.000274931
1.07977e-09
0.000274931
1.08828e-09
0.000274931
1.09326e-09
0.000274931
1.09691e-09
0.000274931
1.09691e-09
0.000274931
1.0954e-09
0.000274931
1.09347e-09
0.000274931
1.08926e-09
0.000274931
1.08357e-09
0.000274931
1.07718e-09
0.000274931
1.06938e-09
0.000274931
1.06079e-09
0.000274931
1.05118e-09
0.000274931
1.04028e-09
0.000274931
1.02675e-09
0.000274931
1.01043e-09
0.000274931
9.93274e-10
0.000274931
9.75127e-10
0.000274931
9.52272e-10
0.000274931
9.27748e-10
0.000274931
9.02879e-10
0.000274931
8.76432e-10
0.000274931
8.49592e-10
0.000274931
8.18673e-10
0.00027493
7.87026e-10
0.00027493
7.57325e-10
0.00027493
7.25941e-10
0.00027493
6.92901e-10
0.00027493
6.59897e-10
0.00027493
6.25643e-10
0.00027493
5.91465e-10
0.00027493
5.57468e-10
0.00027493
5.21734e-10
0.00027493
4.8651e-10
0.00027493
4.52204e-10
0.00027493
4.18356e-10
0.00027493
3.84745e-10
0.00027493
3.49694e-10
0.00027493
3.15372e-10
0.00027493
2.83524e-10
0.00027493
2.49782e-10
0.00027493
2.16057e-10
0.000274929
1.85247e-10
0.000274929
1.53251e-10
0.000274929
1.20605e-10
0.000274929
8.88222e-11
0.000274929
5.92143e-11
0.000274929
3.01562e-11
0.000274929
1.51984e-12
0.000274929
-2.34933e-11
0.000274929
-4.90821e-11
0.000274929
-7.60425e-11
0.000274929
-9.97719e-11
0.000274929
-1.22459e-10
0.000274929
-1.43385e-10
0.000274929
-1.6038e-10
0.000274928
-1.76281e-10
0.000274928
-1.88559e-10
0.000274928
-1.98031e-10
0.000274928
-2.05652e-10
0.000274928
-2.10876e-10
0.000274928
-2.14901e-10
0.000274928
-2.22858e-10
0.000274928
-2.33675e-10
0.000274928
-3.00045e-10
0.000274928
-3.92127e-10
0.000274928
-4.53174e-10
0.000274928
-5.1401e-10
0.000274928
-6.1892e-10
0.000274927
-7.38478e-10
0.000274927
-8.13258e-10
0.000274927
-8.70337e-10
0.000274927
-9.2215e-10
0.000274927
-9.6623e-10
0.000274927
-9.97457e-10
0.000274927
-1.01464e-09
0.000274927
-1.01632e-09
0.000274927
-1.00121e-09
0.000274926
-9.68011e-10
0.000274926
-9.18671e-10
0.000274926
-8.44492e-10
0.000274926
-7.52467e-10
0.000274926
-6.41667e-10
0.000274926
-3.8058e-10
-7.71313e-10
0.000267679
-1.56703e-09
0.000267679
-1.81225e-09
0.000267679
-1.80116e-09
0.000267679
-1.72019e-09
0.000267679
-1.62982e-09
0.000267679
-1.54187e-09
0.00026768
-1.45961e-09
0.00026768
-1.38278e-09
0.00026768
-1.30849e-09
0.00026768
-1.23531e-09
0.00026768
-1.16189e-09
0.00026768
-1.08935e-09
0.00026768
-1.01686e-09
0.00026768
-9.46006e-10
0.00026768
-8.77289e-10
0.00026768
-8.08381e-10
0.00026768
-7.37604e-10
0.000267681
-6.63502e-10
0.000267681
-5.90349e-10
0.000267681
-4.96484e-10
0.000267681
-4.49205e-10
0.000267681
-4.2828e-10
0.000267681
-4.11967e-10
0.000267681
-3.87344e-10
0.000267681
-2.60853e-10
0.000267682
-6.40228e-11
0.000267682
1.51069e-10
0.000267682
3.46246e-10
0.000267682
5.10976e-10
0.000267682
6.4238e-10
0.000267683
7.43563e-10
0.000267683
8.22656e-10
0.000267683
8.8359e-10
0.000267683
9.28328e-10
0.000267683
9.63247e-10
0.000267683
9.92959e-10
0.000267683
1.01427e-09
0.000267683
1.02951e-09
0.000267683
1.04418e-09
0.000267683
1.05369e-09
0.000267684
1.05926e-09
0.000267684
1.06294e-09
0.000267684
1.06506e-09
0.000267684
1.06683e-09
0.000267684
1.0657e-09
0.000267684
1.0617e-09
0.000267684
1.05701e-09
0.000267684
1.05147e-09
0.000267684
1.04516e-09
0.000267684
1.03527e-09
0.000267684
1.02089e-09
0.000267684
1.00658e-09
0.000267684
9.91591e-10
0.000267684
9.71716e-10
0.000267684
9.50366e-10
0.000267683
9.28282e-10
0.000267683
9.03756e-10
0.000267683
8.78638e-10
0.000267683
8.50506e-10
0.000267683
8.21497e-10
0.000267683
7.93134e-10
0.000267683
7.64195e-10
0.000267683
7.33565e-10
0.000267683
7.01166e-10
0.000267683
6.69218e-10
0.000267683
6.37212e-10
0.000267683
6.04097e-10
0.000267683
5.70721e-10
0.000267683
5.35966e-10
0.000267683
5.02881e-10
0.000267683
4.72088e-10
0.000267683
4.39635e-10
0.000267683
4.05232e-10
0.000267683
3.7244e-10
0.000267683
3.41672e-10
0.000267683
3.09126e-10
0.000267683
2.77168e-10
0.000267682
2.46447e-10
0.000267682
2.15112e-10
0.000267682
1.83815e-10
0.000267682
1.53724e-10
0.000267682
1.24517e-10
0.000267682
9.57173e-11
0.000267682
6.82777e-11
0.000267682
4.38546e-11
0.000267682
1.9264e-11
0.000267682
-6.40919e-12
0.000267682
-3.00152e-11
0.000267682
-5.2382e-11
0.000267682
-7.33907e-11
0.000267682
-9.04847e-11
0.000267682
-1.05304e-10
0.000267681
-1.1832e-10
0.000267681
-1.28424e-10
0.000267681
-1.36081e-10
0.000267681
-1.42928e-10
0.000267681
-1.48405e-10
0.000267681
-1.58614e-10
0.000267681
-1.73865e-10
0.000267681
-2.34719e-10
0.000267681
-3.14692e-10
0.000267681
-3.67014e-10
0.000267681
-4.19664e-10
0.000267681
-5.114e-10
0.000267681
-6.16907e-10
0.00026768
-6.85561e-10
0.00026768
-7.39056e-10
0.00026768
-7.86879e-10
0.00026768
-8.31146e-10
0.00026768
-8.67419e-10
0.00026768
-8.92154e-10
0.00026768
-9.03498e-10
0.00026768
-9.0037e-10
0.000267679
-8.80023e-10
0.000267679
-8.44599e-10
0.000267679
-7.8624e-10
0.000267679
-7.12385e-10
0.000267679
-6.248e-10
0.000267679
-3.91703e-10
-7.78399e-10
0.000260587
-1.53922e-09
0.000260587
-1.79805e-09
0.000260587
-1.81036e-09
0.000260587
-1.7501e-09
0.000260587
-1.67624e-09
0.000260587
-1.60186e-09
0.000260587
-1.52849e-09
0.000260587
-1.45776e-09
0.000260587
-1.38742e-09
0.000260588
-1.31501e-09
0.000260588
-1.24185e-09
0.000260588
-1.16973e-09
0.000260588
-1.09693e-09
0.000260588
-1.02455e-09
0.000260588
-9.53802e-10
0.000260588
-8.83267e-10
0.000260588
-8.11196e-10
0.000260588
-7.35637e-10
0.000260588
-6.62357e-10
0.000260588
-5.7179e-10
0.000260588
-5.2305e-10
0.000260588
-5.02963e-10
0.000260589
-4.94903e-10
0.000260589
-4.91417e-10
0.000260589
-4.05571e-10
0.000260589
-2.51619e-10
0.000260589
-6.50492e-11
0.000260589
1.21181e-10
0.00026059
2.89855e-10
0.00026059
4.33724e-10
0.00026059
5.51973e-10
0.00026059
6.48717e-10
0.00026059
7.26365e-10
0.000260591
7.87787e-10
0.000260591
8.39157e-10
0.000260591
8.81755e-10
0.000260591
9.15421e-10
0.000260591
9.43296e-10
0.000260591
9.6867e-10
0.000260591
9.87913e-10
0.000260591
1.00208e-09
0.000260591
1.01248e-09
0.000260591
1.02211e-09
0.000260591
1.03102e-09
0.000260591
1.03606e-09
0.000260591
1.03801e-09
0.000260591
1.03773e-09
0.000260591
1.03667e-09
0.000260591
1.03492e-09
0.000260591
1.02943e-09
0.000260591
1.01856e-09
0.000260591
1.00817e-09
0.000260591
9.96315e-10
0.000260591
9.7989e-10
0.000260591
9.62197e-10
0.000260591
9.42855e-10
0.000260591
9.21327e-10
0.000260591
8.98521e-10
0.000260591
8.73168e-10
0.000260591
8.4698e-10
0.000260591
8.20598e-10
0.000260591
7.94647e-10
0.000260591
7.66766e-10
0.000260591
7.35729e-10
0.000260591
7.06536e-10
0.000260591
6.76113e-10
0.000260591
6.44303e-10
0.000260591
6.13416e-10
0.000260591
5.8005e-10
0.000260591
5.48466e-10
0.000260591
5.20362e-10
0.000260591
4.89172e-10
0.000260591
4.55814e-10
0.000260591
4.24479e-10
0.000260591
3.9508e-10
0.000260591
3.64706e-10
0.00026059
3.34026e-10
0.00026059
3.03776e-10
0.00026059
2.73987e-10
0.00026059
2.43716e-10
0.00026059
2.1473e-10
0.00026059
1.86969e-10
0.00026059
1.58291e-10
0.00026059
1.3192e-10
0.00026059
1.08013e-10
0.00026059
8.41779e-11
0.00026059
6.04607e-11
0.00026059
3.74589e-11
0.00026059
1.50748e-11
0.00026059
-5.87654e-12
0.00026059
-2.31067e-11
0.00026059
-3.72725e-11
0.000260589
-5.04141e-11
0.000260589
-6.1087e-11
0.000260589
-6.86124e-11
0.000260589
-7.71061e-11
0.000260589
-8.39602e-11
0.000260589
-9.63557e-11
0.000260589
-1.14603e-10
0.000260589
-1.70392e-10
0.000260589
-2.42383e-10
0.000260589
-2.88006e-10
0.000260589
-3.32825e-10
0.000260589
-4.11454e-10
0.000260589
-5.0292e-10
0.000260588
-5.64407e-10
0.000260588
-6.11658e-10
0.000260588
-6.53824e-10
0.000260588
-6.94894e-10
0.000260588
-7.31494e-10
0.000260588
-7.60228e-10
0.000260588
-7.78476e-10
0.000260588
-7.84121e-10
0.000260587
-7.73848e-10
0.000260587
-7.50825e-10
0.000260587
-7.07252e-10
0.000260587
-6.51301e-10
0.000260587
-5.86442e-10
0.000260587
-3.81696e-10
-7.66112e-10
0.000253647
-1.49531e-09
0.000253647
-1.76641e-09
0.000253647
-1.80229e-09
0.000253647
-1.76327e-09
0.000253647
-1.70658e-09
0.000253647
-1.64646e-09
0.000253647
-1.58343e-09
0.000253647
-1.51869e-09
0.000253647
-1.45213e-09
0.000253647
-1.38198e-09
0.000253647
-1.31067e-09
0.000253648
-1.23953e-09
0.000253648
-1.16623e-09
0.000253648
-1.09217e-09
0.000253648
-1.01962e-09
0.000253648
-9.48261e-10
0.000253648
-8.74589e-10
0.000253648
-7.97857e-10
0.000253648
-7.24826e-10
0.000253648
-6.37532e-10
0.000253648
-5.87986e-10
0.000253648
-5.65967e-10
0.000253648
-5.60458e-10
0.000253648
-5.69024e-10
0.000253648
-5.12009e-10
0.000253649
-3.95393e-10
0.000253649
-2.41648e-10
0.000253649
-7.44419e-11
0.000253649
8.74944e-11
0.000253649
2.33497e-10
0.00025365
3.59858e-10
0.00025365
4.6841e-10
0.00025365
5.5968e-10
0.00025365
6.35107e-10
0.00025365
6.99915e-10
0.00025365
7.53892e-10
0.00025365
7.99633e-10
0.000253651
8.39622e-10
0.000253651
8.74611e-10
0.000253651
9.0368e-10
0.000253651
9.27492e-10
0.000253651
9.46293e-10
0.000253651
9.63626e-10
0.000253651
9.79246e-10
0.000253651
9.90907e-10
0.000253651
9.995e-10
0.000253651
1.00489e-09
0.000253651
1.00879e-09
0.000253651
1.01162e-09
0.000253651
1.01109e-09
0.000253651
1.00481e-09
0.000253651
9.98363e-10
0.000253651
9.9071e-10
0.000253651
9.78275e-10
0.000253651
9.63177e-10
0.000253651