/*--------------------------------*- C++ -*----------------------------------*\
  =========                 |
  \\      /  F ield         | OpenFOAM: The Open Source CFD Toolbox
   \\    /   O peration     | Website:  https://openfoam.org
    \\  /    A nd           | Version:  7
     \\/     M anipulation  |
\*---------------------------------------------------------------------------*/
FoamFile
{
    version     2.0;
    format      ascii;
    class       volVectorField;
    location    "47500";
    object      U;
}
// * * * * * * * * * * * * * * * * * * * * * * * * * * * * * * * * * * * * * //

dimensions      [0 1 -1 0 0 0 0];

internalField   nonuniform List<vector> 
100
(
(0.00779469 9.00866e-15 0)
(0.0236633 -4.23321e-14 0)
(0.0398641 -4.87741e-14 0)
(0.0549171 -1.1259e-14 0)
(0.0671104 -1.7176e-14 0)
(0.0764366 -1.28276e-15 0)
(0.0837073 5.75919e-17 0)
(0.0895886 2.52657e-14 0)
(0.0945084 2.52585e-14 0)
(0.0987373 3.65122e-14 0)
(0.102452 2.35558e-14 0)
(0.105771 2.51989e-14 0)
(0.10878 2.54546e-14 0)
(0.111538 2.80731e-14 0)
(0.114091 2.49125e-14 0)
(0.116472 2.35641e-14 0)
(0.11871 2.06603e-14 0)
(0.120824 1.70534e-14 0)
(0.122831 2.01175e-14 0)
(0.124746 1.92037e-14 0)
(0.126579 1.66713e-14 0)
(0.12834 1.46595e-14 0)
(0.130036 1.58219e-14 0)
(0.131674 1.62005e-14 0)
(0.133259 1.55704e-14 0)
(0.134796 1.39264e-14 0)
(0.136289 1.20097e-14 0)
(0.13774 8.86083e-15 0)
(0.139154 1.13929e-14 0)
(0.140531 7.27953e-15 0)
(0.141873 1.03517e-14 0)
(0.143183 1.1201e-14 0)
(0.14446 1.29774e-14 0)
(0.145705 1.5171e-14 0)
(0.146918 1.78975e-14 0)
(0.1481 1.73017e-14 0)
(0.149248 1.70081e-14 0)
(0.150363 1.79829e-14 0)
(0.151441 1.45731e-14 0)
(0.152481 1.02999e-14 0)
(0.153478 8.71179e-15 0)
(0.15443 7.51257e-15 0)
(0.155329 9.20262e-15 0)
(0.15617 9.74011e-15 0)
(0.156943 8.57105e-15 0)
(0.157636 7.77492e-15 0)
(0.158235 1.00411e-14 0)
(0.158721 5.45622e-15 0)
(0.159072 9.47386e-15 0)
(0.159261 8.33285e-15 0)
(0.159261 9.2541e-15 0)
(0.159072 1.20488e-14 0)
(0.158723 8.15481e-15 0)
(0.158239 6.31075e-15 0)
(0.157642 7.69534e-16 0)
(0.156952 1.4947e-15 0)
(0.156183 -1.87996e-16 0)
(0.155346 -5.77717e-16 0)
(0.15445 -1.34889e-15 0)
(0.153502 -5.41775e-16 0)
(0.152508 -2.63907e-15 0)
(0.151472 -5.04873e-15 0)
(0.150397 -2.27935e-15 0)
(0.149287 -4.20673e-15 0)
(0.148142 -3.73857e-15 0)
(0.146964 -6.90686e-15 0)
(0.145754 -9.62391e-15 0)
(0.144513 -9.29947e-15 0)
(0.14324 -1.46017e-14 0)
(0.141934 -9.26663e-15 0)
(0.140595 -7.12754e-15 0)
(0.139222 -4.64727e-15 0)
(0.137812 -7.92204e-15 0)
(0.136364 -8.54504e-15 0)
(0.134875 -1.12353e-14 0)
(0.133341 -1.52632e-14 0)
(0.13176 -1.10983e-14 0)
(0.130126 -1.33165e-14 0)
(0.128434 -4.25131e-15 0)
(0.126677 -4.12124e-15 0)
(0.124848 -3.63903e-16 0)
(0.122938 9.38748e-16 0)
(0.120934 -2.70889e-15 0)
(0.118825 -2.74624e-15 0)
(0.116593 -6.41037e-15 0)
(0.114216 -5.62973e-15 0)
(0.111669 -1.26899e-15 0)
(0.108918 -4.83047e-15 0)
(0.105917 -3.08156e-16 0)
(0.102605 -2.8666e-15 0)
(0.0989003 -3.05584e-15 0)
(0.0946828 -1.50332e-14 0)
(0.089777 -9.70887e-15 0)
(0.0839133 -2.06143e-14 0)
(0.0766647 -2.21719e-14 0)
(0.0673632 -2.19372e-14 0)
(0.0551827 -3.31706e-14 0)
(0.0400953 1.79952e-14 0)
(0.0238117 -6.01088e-15 0)
(0.00784917 -3.14172e-15 0)
)
;

boundaryField
{
    bottomWall
    {
        type            noSlip;
    }
    topWall
    {
        type            noSlip;
    }
    sides1_half0
    {
        type            empty;
    }
    sides1_half1
    {
        type            empty;
    }
    sides2_half0
    {
        type            empty;
    }
    sides2_half1
    {
        type            empty;
    }
    inout1_half0
    {
        type            cyclic;
    }
    inout1_half1
    {
        type            cyclic;
    }
    inout2_half0
    {
        type            cyclic;
    }
    inout2_half1
    {
        type            cyclic;
    }
}


// ************************************************************************* //
