/*--------------------------------*- C++ -*----------------------------------*\
  =========                 |
  \\      /  F ield         | OpenFOAM: The Open Source CFD Toolbox
   \\    /   O peration     | Website:  https://openfoam.org
    \\  /    A nd           | Version:  7
     \\/     M anipulation  |
\*---------------------------------------------------------------------------*/
FoamFile
{
    version     2.0;
    format      ascii;
    class       volVectorField;
    location    "19500";
    object      U;
}
// * * * * * * * * * * * * * * * * * * * * * * * * * * * * * * * * * * * * * //

dimensions      [0 1 -1 0 0 0 0];

internalField   nonuniform List<vector> 
3974
(
(0.123235 2.24702e-08 2.51827e-14)
(0.123235 2.60903e-08 2.52258e-14)
(0.123235 2.76854e-08 2.51848e-14)
(0.123235 2.85881e-08 2.52413e-14)
(0.123235 2.91434e-08 2.51797e-14)
(0.123235 2.96257e-08 2.51604e-14)
(0.123235 3.02234e-08 2.51487e-14)
(0.123235 3.10152e-08 2.50577e-14)
(0.123235 3.20061e-08 2.51491e-14)
(0.123235 3.32008e-08 2.50587e-14)
(0.123235 3.463e-08 2.50913e-14)
(0.123235 3.62952e-08 2.50605e-14)
(0.123235 3.81066e-08 2.4977e-14)
(0.123235 3.9924e-08 2.50965e-14)
(0.123235 4.16477e-08 2.50203e-14)
(0.123235 4.32067e-08 2.50724e-14)
(0.123235 4.45429e-08 2.50374e-14)
(0.123235 4.56354e-08 2.4914e-14)
(0.123235 4.64621e-08 2.50102e-14)
(0.123235 4.70044e-08 2.4974e-14)
(0.123236 4.7305e-08 2.50041e-14)
(0.123236 4.74029e-08 2.49946e-14)
(0.123236 4.72806e-08 2.49044e-14)
(0.123236 4.69314e-08 2.50009e-14)
(0.123236 4.63858e-08 2.49597e-14)
(0.123236 4.57023e-08 2.49686e-14)
(0.123236 4.49416e-08 2.49565e-14)
(0.123236 4.40861e-08 2.48784e-14)
(0.123236 4.30738e-08 2.49869e-14)
(0.123236 4.19256e-08 2.49103e-14)
(0.123236 4.06952e-08 2.49565e-14)
(0.123236 3.93973e-08 2.49927e-14)
(0.123236 3.80255e-08 2.48979e-14)
(0.123236 3.66285e-08 2.49837e-14)
(0.123236 3.51163e-08 2.50131e-14)
(0.123236 3.35197e-08 2.49285e-14)
(0.123236 3.15314e-08 2.49846e-14)
(0.123236 2.97289e-08 2.48881e-14)
(0.124328 -2.70049e-09 2.56639e-14)
(0.124328 8.80702e-09 2.5617e-14)
(0.124328 1.52561e-08 2.56267e-14)
(0.124328 1.8991e-08 2.56622e-14)
(0.124328 2.15623e-08 2.56056e-14)
(0.124328 2.31046e-08 2.56571e-14)
(0.124328 2.40512e-08 2.55811e-14)
(0.124328 2.4809e-08 2.55987e-14)
(0.124328 2.56292e-08 2.56099e-14)
(0.124328 2.66167e-08 2.55277e-14)
(0.124328 2.7781e-08 2.55604e-14)
(0.124328 2.9129e-08 2.54945e-14)
(0.124328 3.06952e-08 2.55166e-14)
(0.124328 3.24802e-08 2.55161e-14)
(0.124328 3.43977e-08 2.54464e-14)
(0.124328 3.63222e-08 2.54999e-14)
(0.124328 3.81632e-08 2.54539e-14)
(0.124329 3.98475e-08 2.54922e-14)
(0.124329 4.13133e-08 2.54856e-14)
(0.124329 4.25364e-08 2.53799e-14)
(0.124329 4.34976e-08 2.54147e-14)
(0.124329 4.41835e-08 2.53606e-14)
(0.124329 4.46326e-08 2.54117e-14)
(0.124329 4.48813e-08 2.54374e-14)
(0.124329 4.49156e-08 2.53601e-14)
(0.124329 4.47269e-08 2.5395e-14)
(0.124329 4.43421e-08 2.53406e-14)
(0.124329 4.38199e-08 2.53773e-14)
(0.124329 4.32225e-08 2.5391e-14)
(0.124329 4.25344e-08 2.53251e-14)
(0.124329 4.16928e-08 2.53798e-14)
(0.124329 4.07102e-08 2.53404e-14)
(0.124329 3.96367e-08 2.53543e-14)
(0.124329 3.84906e-08 2.54034e-14)
(0.124329 3.72662e-08 2.53638e-14)
(0.124329 3.60253e-08 2.53923e-14)
(0.124329 3.46469e-08 2.54143e-14)
(0.124329 3.33144e-08 2.53701e-14)
(0.124329 3.11708e-08 2.53942e-14)
(0.124329 3.15637e-08 2.53433e-14)
(0.124329 3.14276e-08 2.53654e-14)
(0.124329 2.67658e-08 2.53968e-14)
(0.125388 -4.77862e-08 2.61357e-14)
(0.125388 -2.23785e-08 2.60245e-14)
(0.125388 -4.79958e-09 2.60716e-14)
(0.125388 4.13764e-09 2.61177e-14)
(0.125388 8.50322e-09 2.60694e-14)
(0.125388 1.25554e-08 2.60959e-14)
(0.125388 1.54757e-08 2.60322e-14)
(0.125388 1.73081e-08 2.60799e-14)
(0.125388 1.85095e-08 2.59839e-14)
(0.125389 1.94868e-08 2.60338e-14)
(0.125389 2.05057e-08 2.60575e-14)
(0.125389 2.16843e-08 2.5945e-14)
(0.125389 2.30311e-08 2.59764e-14)
(0.125389 2.45502e-08 2.58954e-14)
(0.125389 2.62746e-08 2.59407e-14)
(0.125389 2.82012e-08 2.59593e-14)
(0.125389 3.02459e-08 2.58602e-14)
(0.125389 3.22982e-08 2.59103e-14)
(0.125389 3.42766e-08 2.58579e-14)
(0.125389 3.61069e-08 2.59104e-14)
(0.125389 3.77256e-08 2.59231e-14)
(0.125389 3.9104e-08 2.57892e-14)
(0.125389 4.02225e-08 2.58293e-14)
(0.125389 4.10745e-08 2.57387e-14)
(0.125389 4.16961e-08 2.58242e-14)
(0.125389 4.21188e-08 2.5869e-14)
(0.125389 4.23308e-08 2.57586e-14)
(0.125389 4.23235e-08 2.57981e-14)
(0.125389 4.2121e-08 2.57364e-14)
(0.125389 4.17807e-08 2.57893e-14)
(0.125389 4.13629e-08 2.58192e-14)
(0.125389 4.08558e-08 2.57133e-14)
(0.125389 4.02001e-08 2.57814e-14)
(0.125389 3.94021e-08 2.57207e-14)
(0.125389 3.85067e-08 2.57634e-14)
(0.125389 3.75319e-08 2.58178e-14)
(0.125389 3.64697e-08 2.58055e-14)
(0.125389 3.53926e-08 2.58029e-14)
(0.125389 3.41626e-08 2.58115e-14)
(0.125389 3.30587e-08 2.57917e-14)
(0.125389 3.09748e-08 2.58039e-14)
(0.125389 3.21762e-08 2.57794e-14)
(0.125389 3.39208e-08 2.57786e-14)
(0.125389 3.28086e-08 2.57955e-14)
(0.125389 2.9128e-08 2.57775e-14)
(0.125389 2.10155e-08 2.57975e-14)
(0.125389 1.25329e-08 2.57856e-14)
(0.125389 4.6542e-09 2.57973e-14)
(0.125389 -2.8013e-09 2.58213e-14)
(0.125389 -1.00981e-08 2.58098e-14)
(0.125389 -1.73017e-08 2.58242e-14)
(0.125389 -2.44245e-08 2.58056e-14)
(0.125389 -3.11656e-08 2.58089e-14)
(0.125389 -3.7575e-08 2.5832e-14)
(0.125389 -4.22723e-08 2.58272e-14)
(0.125389 -4.6378e-08 2.58474e-14)
(0.125389 -4.45181e-08 2.58298e-14)
(0.125388 -4.19823e-08 2.58474e-14)
(0.125388 -2.3969e-08 2.58753e-14)
(0.126418 -4.46135e-08 2.65549e-14)
(0.126418 -2.10202e-08 2.64218e-14)
(0.126418 -6.19906e-09 2.64904e-14)
(0.126418 2.17615e-09 2.65192e-14)
(0.126418 5.28574e-09 2.65012e-14)
(0.126418 8.02211e-09 2.65274e-14)
(0.126418 1.02823e-08 2.63949e-14)
(0.126418 1.18979e-08 2.6511e-14)
(0.126418 1.3073e-08 2.63977e-14)
(0.126418 1.41023e-08 2.64739e-14)
(0.126418 1.52139e-08 2.64946e-14)
(0.126418 1.65154e-08 2.62659e-14)
(0.126418 1.80043e-08 2.64004e-14)
(0.126418 1.96717e-08 2.62974e-14)
(0.126418 2.1543e-08 2.63723e-14)
(0.126418 2.3609e-08 2.63909e-14)
(0.126418 2.57849e-08 2.62596e-14)
(0.126418 2.79711e-08 2.63293e-14)
(0.126418 3.0094e-08 2.62513e-14)
(0.126418 3.20796e-08 2.63388e-14)
(0.126418 3.38636e-08 2.63509e-14)
(0.126418 3.5413e-08 2.61972e-14)
(0.126418 3.67062e-08 2.62526e-14)
(0.126418 3.77406e-08 2.61465e-14)
(0.126418 3.85508e-08 2.62483e-14)
(0.126418 3.91644e-08 2.62918e-14)
(0.126419 3.95719e-08 2.61127e-14)
(0.126419 3.9765e-08 2.6208e-14)
(0.126419 3.97637e-08 2.61211e-14)
(0.126419 3.96216e-08 2.6216e-14)
(0.126419 3.9397e-08 2.62411e-14)
(0.126419 3.90834e-08 2.61078e-14)
(0.126419 3.86274e-08 2.61921e-14)
(0.126419 3.80298e-08 2.60642e-14)
(0.126419 3.73298e-08 2.61908e-14)
(0.126419 3.65444e-08 2.62363e-14)
(0.126419 3.56602e-08 2.62315e-14)
(0.126419 3.47544e-08 2.62058e-14)
(0.126419 3.36888e-08 2.62035e-14)
(0.126419 3.27667e-08 2.62006e-14)
(0.126419 3.09888e-08 2.6209e-14)
(0.126419 3.12944e-08 2.62016e-14)
(0.126419 3.31485e-08 2.61892e-14)
(0.126419 3.51343e-08 2.61938e-14)
(0.126419 3.49842e-08 2.6192e-14)
(0.126419 2.89396e-08 2.6205e-14)
(0.126419 2.07426e-08 2.62079e-14)
(0.126419 1.24685e-08 2.62041e-14)
(0.126418 4.52179e-09 2.62163e-14)
(0.126418 -3.2234e-09 2.62199e-14)
(0.126418 -1.0829e-08 2.62301e-14)
(0.126418 -1.83104e-08 2.62285e-14)
(0.126418 -2.538e-08 2.62172e-14)
(0.126418 -3.20967e-08 2.62265e-14)
(0.126418 -3.70859e-08 2.62355e-14)
(0.126418 -4.15062e-08 2.62518e-14)
(0.126418 -3.97229e-08 2.62504e-14)
(0.126418 -3.77316e-08 2.62573e-14)
(0.126418 -1.81239e-08 2.62733e-14)
(0.127418 -4.2469e-08 2.69635e-14)
(0.127418 -1.82594e-08 2.68701e-14)
(0.127418 -4.80487e-09 2.69398e-14)
(0.127418 2.19456e-09 2.69397e-14)
(0.127418 4.08375e-09 2.69257e-14)
(0.127418 5.33695e-09 2.69543e-14)
(0.127418 6.46116e-09 2.69046e-14)
(0.127418 7.39228e-09 2.6959e-14)
(0.127418 8.19968e-09 2.68588e-14)
(0.127418 9.04819e-09 2.69428e-14)
(0.127418 1.00897e-08 2.6913e-14)
(0.127418 1.13976e-08 2.68071e-14)
(0.127418 1.29468e-08 2.68432e-14)
(0.127418 1.47054e-08 2.67588e-14)
(0.127418 1.66838e-08 2.683e-14)
(0.127418 1.88638e-08 2.68042e-14)
(0.127418 2.11569e-08 2.67167e-14)
(0.127418 2.34683e-08 2.67672e-14)
(0.127418 2.57302e-08 2.67098e-14)
(0.127418 2.78695e-08 2.67921e-14)
(0.127418 2.98203e-08 2.67624e-14)
(0.127418 3.15469e-08 2.6652e-14)
(0.127418 3.30246e-08 2.6693e-14)
(0.127418 3.42514e-08 2.6599e-14)
(0.127418 3.52595e-08 2.67096e-14)
(0.127418 3.60748e-08 2.66982e-14)
(0.127418 3.66911e-08 2.66009e-14)
(0.127418 3.70999e-08 2.66359e-14)
(0.127418 3.73148e-08 2.65765e-14)
(0.127419 3.73839e-08 2.667e-14)
(0.127419 3.73639e-08 2.66493e-14)
(0.127419 3.72548e-08 2.6549e-14)
(0.127419 3.70098e-08 2.66303e-14)
(0.127419 3.6625e-08 2.65587e-14)
(0.127419 3.61344e-08 2.66532e-14)
(0.127419 3.55539e-08 2.66541e-14)
(0.127419 3.4863e-08 2.66443e-14)
(0.127419 3.41366e-08 2.65941e-14)
(0.127419 3.32502e-08 2.6589e-14)
(0.127419 3.24787e-08 2.66012e-14)
(0.127419 3.10967e-08 2.66082e-14)
(0.127419 3.05589e-08 2.66142e-14)
(0.127419 3.17463e-08 2.65905e-14)
(0.127419 3.42369e-08 2.65892e-14)
(0.127419 3.60613e-08 2.65993e-14)
(0.127419 3.34106e-08 2.66077e-14)
(0.127419 2.71471e-08 2.66217e-14)
(0.127419 1.94855e-08 2.66063e-14)
(0.127418 1.15675e-08 2.66077e-14)
(0.127418 3.65587e-09 2.66235e-14)
(0.127418 -4.1796e-09 2.66316e-14)
(0.127418 -1.19064e-08 2.6643e-14)
(0.127418 -1.92312e-08 2.66224e-14)
(0.127418 -2.62069e-08 2.66184e-14)
(0.127418 -3.14652e-08 2.6639e-14)
(0.127418 -3.61777e-08 2.66539e-14)
(0.127418 -3.45263e-08 2.66635e-14)
(0.127418 -3.30468e-08 2.66659e-14)
(0.127418 -1.2523e-08 2.66688e-14)
(0.12839 -4.13012e-08 2.73606e-14)
(0.12839 -1.57418e-08 2.73235e-14)
(0.12839 -2.57099e-09 2.74465e-14)
(0.12839 3.37177e-09 2.73469e-14)
(0.12839 4.23932e-09 2.7323e-14)
(0.12839 4.20164e-09 2.74065e-14)
(0.12839 4.07213e-09 2.73542e-14)
(0.12839 4.03565e-09 2.74617e-14)
(0.12839 4.18862e-09 2.73329e-14)
(0.12839 4.62155e-09 2.74133e-14)
(0.12839 5.40983e-09 2.73047e-14)
(0.12839 6.58175e-09 2.72549e-14)
(0.12839 8.08261e-09 2.73086e-14)
(0.12839 9.85093e-09 2.72246e-14)
(0.12839 1.18752e-08 2.73357e-14)
(0.12839 1.41247e-08 2.71917e-14)
(0.12839 1.65042e-08 2.71605e-14)
(0.12839 1.89186e-08 2.72279e-14)
(0.12839 2.13034e-08 2.71614e-14)
(0.12839 2.35843e-08 2.72504e-14)
(0.12839 2.56939e-08 2.71497e-14)
(0.12839 2.75941e-08 2.71061e-14)
(0.12839 2.9258e-08 2.71615e-14)
(0.12839 3.06805e-08 2.70735e-14)
(0.12839 3.189e-08 2.72524e-14)
(0.12839 3.2912e-08 2.70821e-14)
(0.12839 3.37453e-08 2.70467e-14)
(0.12839 3.43801e-08 2.70627e-14)
(0.12839 3.48218e-08 2.70244e-14)
(0.12839 3.51118e-08 2.71276e-14)
(0.12839 3.53059e-08 2.70337e-14)
(0.12839 3.54103e-08 2.69991e-14)
(0.12839 3.53848e-08 2.70476e-14)
(0.12839 3.52222e-08 2.70091e-14)
(0.12839 3.49521e-08 2.71438e-14)
(0.12839 3.45887e-08 2.70595e-14)
(0.12839 3.41043e-08 2.70458e-14)
(0.12839 3.3566e-08 2.6923e-14)
(0.12839 3.28709e-08 2.69689e-14)
(0.12839 3.22382e-08 2.69971e-14)
(0.12839 3.12442e-08 2.70011e-14)
(0.12839 3.02344e-08 2.70206e-14)
(0.12839 3.05999e-08 2.69642e-14)
(0.12839 3.25962e-08 2.69798e-14)
(0.12839 3.50347e-08 2.70036e-14)
(0.128391 3.49855e-08 2.70051e-14)
(0.12839 3.11976e-08 2.70301e-14)
(0.12839 2.49941e-08 2.70157e-14)
(0.12839 1.77381e-08 2.69967e-14)
(0.12839 1.00661e-08 2.70242e-14)
(0.12839 2.26479e-09 2.70283e-14)
(0.12839 -5.52778e-09 2.70521e-14)
(0.12839 -1.29838e-08 2.69926e-14)
(0.12839 -2.01299e-08 2.7009e-14)
(0.12839 -2.56046e-08 2.70412e-14)
(0.12839 -3.05618e-08 2.70525e-14)
(0.12839 -2.90855e-08 2.70716e-14)
(0.12839 -2.80731e-08 2.70733e-14)
(0.12839 -7.12884e-09 2.70607e-14)
(0.129335 -4.08715e-08 2.77518e-14)
(0.129335 -1.39586e-08 2.77559e-14)
(0.129335 -4.15607e-10 2.77981e-14)
(0.129335 5.0594e-09 2.77289e-14)
(0.129335 5.24036e-09 2.77222e-14)
(0.129335 4.19254e-09 2.77753e-14)
(0.129335 2.91195e-09 2.77914e-14)
(0.129335 1.82956e-09 2.78141e-14)
(0.129335 1.1612e-09 2.77741e-14)
(0.129335 9.96989e-10 2.7801e-14)
(0.129335 1.36665e-09 2.77386e-14)
(0.129335 2.26062e-09 2.76961e-14)
(0.129335 3.59609e-09 2.76978e-14)
(0.129335 5.28085e-09 2.76661e-14)
(0.129335 7.27751e-09 2.76811e-14)
(0.129335 9.5393e-09 2.76232e-14)
(0.129335 1.19613e-08 2.75987e-14)
(0.129335 1.44461e-08 2.76127e-14)
(0.129335 1.69284e-08 2.75938e-14)
(0.129335 1.93308e-08 2.76324e-14)
(0.129335 2.15824e-08 2.75812e-14)
(0.129335 2.36446e-08 2.75483e-14)
(0.129335 2.54885e-08 2.75434e-14)
(0.129335 2.71034e-08 2.75163e-14)
(0.129335 2.85122e-08 2.75608e-14)
(0.129335 2.97409e-08 2.75116e-14)
(0.129335 3.07938e-08 2.74844e-14)
(0.129335 3.16596e-08 2.74826e-14)
(0.129335 3.23342e-08 2.74625e-14)
(0.129335 3.28519e-08 2.75089e-14)
(0.129335 3.32674e-08 2.74611e-14)
(0.129335 3.35919e-08 2.74379e-14)
(0.129335 3.37913e-08 2.74668e-14)
(0.129335 3.38578e-08 2.7439e-14)
(0.129335 3.38166e-08 2.74909e-14)
(0.129335 3.3679e-08 2.74282e-14)
(0.129335 3.34114e-08 2.74391e-14)
(0.129335 3.30701e-08 2.73896e-14)
(0.129335 3.2576e-08 2.73495e-14)
(0.129335 3.20845e-08 2.73914e-14)
(0.129335 3.14299e-08 2.73867e-14)
(0.129335 3.02547e-08 2.74235e-14)
(0.129335 2.99418e-08 2.74015e-14)
(0.129336 3.11588e-08 2.73685e-14)
(0.129336 3.33618e-08 2.74083e-14)
(0.129336 3.47534e-08 2.73964e-14)
(0.129336 3.31515e-08 2.7437e-14)
(0.129336 2.87658e-08 2.74195e-14)
(0.129335 2.26677e-08 2.73836e-14)
(0.129335 1.56474e-08 2.74263e-14)
(0.129335 8.18378e-09 2.74193e-14)
(0.129335 5.44552e-10 2.74598e-14)
(0.129335 -6.88412e-09 2.74377e-14)
(0.129335 -1.40817e-08 2.73965e-14)
(0.129335 -1.96951e-08 2.74455e-14)
(0.129335 -2.48293e-08 2.74464e-14)
(0.129335 -2.35542e-08 2.74777e-14)
(0.129335 -2.29831e-08 2.74782e-14)
(0.129335 -1.88776e-09 2.74465e-14)
(0.130254 -4.09131e-08 2.81397e-14)
(0.130254 -1.29158e-08 2.81779e-14)
(0.130254 1.26098e-09 2.81933e-14)
(0.130254 6.73365e-09 2.80828e-14)
(0.130254 6.59302e-09 2.81012e-14)
(0.130254 4.85638e-09 2.81788e-14)
(0.130254 2.6524e-09 2.82219e-14)
(0.130254 6.0684e-10 2.8211e-14)
(0.130254 -9.17697e-10 2.82015e-14)
(0.130254 -1.77574e-09 2.81778e-14)
(0.130254 -1.94196e-09 2.81439e-14)
(0.130254 -1.44332e-09 2.81257e-14)
(0.130254 -3.80415e-10 2.80967e-14)
(0.130254 1.12955e-09 2.80948e-14)
(0.130254 3.02297e-09 2.8059e-14)
(0.130254 5.23419e-09 2.80275e-14)
(0.130254 7.64805e-09 2.8026e-14)
(0.130254 1.01633e-08 2.80103e-14)
(0.130254 1.27116e-08 2.80163e-14)
(0.130254 1.5209e-08 2.80066e-14)
(0.130254 1.758e-08 2.79878e-14)
(0.130255 1.9786e-08 2.79792e-14)
(0.130255 2.17968e-08 2.79415e-14)
(0.130255 2.35948e-08 2.79414e-14)
(0.130255 2.51958e-08 2.79384e-14)
(0.130255 2.66269e-08 2.79178e-14)
(0.130255 2.78972e-08 2.79133e-14)
(0.130255 2.89932e-08 2.78905e-14)
(0.130255 2.99025e-08 2.78913e-14)
(0.130255 3.06518e-08 2.78767e-14)
(0.130255 3.12938e-08 2.78629e-14)
(0.130255 3.18425e-08 2.7866e-14)
(0.130255 3.22697e-08 2.78564e-14)
(0.130255 3.25695e-08 2.78572e-14)
(0.130255 3.27627e-08 2.785e-14)
(0.130255 3.28563e-08 2.7773e-14)
(0.130255 3.28129e-08 2.78301e-14)
(0.130255 3.26769e-08 2.77946e-14)
(0.130255 3.23914e-08 2.77183e-14)
(0.130255 3.20513e-08 2.77899e-14)
(0.130255 3.16807e-08 2.77624e-14)
(0.130255 3.05434e-08 2.78288e-14)
(0.130255 2.97917e-08 2.78071e-14)
(0.130255 3.02535e-08 2.7744e-14)
(0.130255 3.18184e-08 2.78213e-14)
(0.130255 3.37131e-08 2.77791e-14)
(0.130255 3.3644e-08 2.78482e-14)
(0.130255 3.09827e-08 2.78273e-14)
(0.130255 2.62713e-08 2.77618e-14)
(0.130255 2.02091e-08 2.7836e-14)
(0.130255 1.33591e-08 2.78016e-14)
(0.130255 6.09424e-09 2.78716e-14)
(0.130255 -1.1367e-09 2.78442e-14)
(0.130255 -8.25172e-09 2.77739e-14)
(0.130255 -1.39102e-08 2.78552e-14)
(0.130254 -1.91413e-08 2.78321e-14)
(0.130254 -1.80769e-08 2.78858e-14)
(0.130254 -1.79493e-08 2.78787e-14)
(0.130254 3.19131e-09 2.78222e-14)
(0.131149 -4.1199e-08 2.85349e-14)
(0.131149 -1.24724e-08 2.85126e-14)
(0.131149 2.31352e-09 2.8573e-14)
(0.131149 8.04712e-09 2.83979e-14)
(0.131149 7.89586e-09 2.84946e-14)
(0.131149 5.78574e-09 2.85957e-14)
(0.131149 2.93579e-09 2.85662e-14)
(0.131149 1.10084e-10 2.86044e-14)
(0.131149 -2.19517e-09 2.85381e-14)
(0.131149 -3.75318e-09 2.85352e-14)
(0.131149 -4.50828e-09 2.85358e-14)
(0.131149 -4.4804e-09 2.84625e-14)
(0.131149 -3.77189e-09 2.84802e-14)
(0.131149 -2.51365e-09 2.84315e-14)
(0.131149 -7.91908e-10 2.84257e-14)
(0.131149 1.30834e-09 2.84194e-14)
(0.131149 3.66271e-09 2.83615e-14)
(0.131149 6.16671e-09 2.83991e-14)
(0.131149 8.74618e-09 2.83506e-14)
(0.131149 1.13083e-08 2.83727e-14)
(0.131149 1.37726e-08 2.8384e-14)
(0.131149 1.61002e-08 2.83171e-14)
(0.131149 1.82594e-08 2.83207e-14)
(0.131149 2.02258e-08 2.82752e-14)
(0.131149 2.20082e-08 2.83071e-14)
(0.131149 2.36337e-08 2.83152e-14)
(0.131149 2.51146e-08 2.82526e-14)
(0.131149 2.64354e-08 2.82848e-14)
(0.131149 2.75771e-08 2.82307e-14)
(0.131149 2.85593e-08 2.82338e-14)
(0.131149 2.94299e-08 2.82549e-14)
(0.131149 3.02045e-08 2.82036e-14)
(0.131149 3.08604e-08 2.82452e-14)
(0.131149 3.13954e-08 2.81882e-14)
(0.131149 3.18257e-08 2.81998e-14)
(0.131149 3.21527e-08 2.81815e-14)
(0.131149 3.23379e-08 2.82283e-14)
(0.131149 3.24148e-08 2.81765e-14)
(0.131149 3.23434e-08 2.81551e-14)
(0.131149 3.21677e-08 2.82003e-14)
(0.131149 3.20351e-08 2.82058e-14)
(0.131149 3.10532e-08 2.82435e-14)
(0.131149 3.00912e-08 2.81921e-14)
(0.131149 2.99622e-08 2.81832e-14)
(0.131149 3.07979e-08 2.82568e-14)
(0.131149 3.25917e-08 2.82308e-14)
(0.131149 3.33686e-08 2.82723e-14)
(0.131149 3.2064e-08 2.822e-14)
(0.131149 2.87032e-08 2.8208e-14)
(0.131149 2.37401e-08 2.82692e-14)
(0.131149 1.76964e-08 2.82527e-14)
(0.131149 1.09901e-08 2.8294e-14)
(0.131149 4.11387e-09 2.82354e-14)
(0.131149 -2.78656e-09 2.82165e-14)
(0.131149 -8.39306e-09 2.82753e-14)
(0.131149 -1.36389e-08 2.82858e-14)
(0.131149 -1.27818e-08 2.83035e-14)
(0.131149 -1.31265e-08 2.82675e-14)
(0.131149 8.05464e-09 2.82699e-14)
(0.132019 -4.15627e-08 2.89722e-14)
(0.132019 -1.24488e-08 2.88314e-14)
(0.132019 2.75817e-09 2.90025e-14)
(0.132019 8.83271e-09 2.88215e-14)
(0.132019 8.87968e-09 2.88946e-14)
(0.132019 6.66004e-09 2.90366e-14)
(0.132019 3.43583e-09 2.88902e-14)
(0.132019 5.70533e-11 2.90355e-14)
(0.132019 -2.88001e-09 2.88546e-14)
(0.132019 -5.06727e-09 2.88714e-14)
(0.132019 -6.39867e-09 2.89185e-14)
(0.132019 -6.86693e-09 2.8779e-14)
(0.13202 -6.5593e-09 2.88496e-14)
(0.13202 -5.60622e-09 2.87437e-14)
(0.13202 -4.10949e-09 2.87572e-14)
(0.13202 -2.17095e-09 2.88076e-14)
(0.13202 7.85707e-11 2.86758e-14)
(0.13202 2.53209e-09 2.8763e-14)
(0.13202 5.10805e-09 2.86671e-14)
(0.13202 7.70405e-09 2.87066e-14)
(0.13202 1.02344e-08 2.87747e-14)
(0.13202 1.26594e-08 2.86332e-14)
(0.13202 1.49456e-08 2.87237e-14)
(0.13202 1.70622e-08 2.85901e-14)
(0.13202 1.90118e-08 2.8645e-14)
(0.13202 2.08209e-08 2.87073e-14)
(0.13202 2.25023e-08 2.85749e-14)
(0.13202 2.40389e-08 2.86533e-14)
(0.13202 2.54075e-08 2.85504e-14)
(0.13202 2.66202e-08 2.86076e-14)
(0.13202 2.77191e-08 2.86442e-14)
(0.13202 2.8719e-08 2.85233e-14)
(0.13202 2.96031e-08 2.86011e-14)
(0.13202 3.03728e-08 2.85055e-14)
(0.13202 3.10401e-08 2.85344e-14)
(0.13202 3.16e-08 2.85809e-14)
(0.13202 3.20156e-08 2.86527e-14)
(0.13202 3.23112e-08 2.85328e-14)
(0.13202 3.24583e-08 2.857e-14)
(0.13202 3.24595e-08 2.86402e-14)
(0.13202 3.25326e-08 2.86386e-14)
(0.13202 3.17629e-08 2.86505e-14)
(0.13202 3.07656e-08 2.85553e-14)
(0.13202 3.02501e-08 2.86399e-14)
(0.13202 3.04434e-08 2.86542e-14)
(0.13202 3.18308e-08 2.86728e-14)
(0.13202 3.2904e-08 2.87148e-14)
(0.13202 3.24967e-08 2.85909e-14)
(0.13202 3.02653e-08 2.86679e-14)
(0.13202 2.63778e-08 2.87061e-14)
(0.13202 2.12219e-08 2.86958e-14)
(0.13202 1.5193e-08 2.87758e-14)
(0.13202 8.79254e-09 2.86003e-14)
(0.13202 2.21914e-09 2.86435e-14)
(0.13202 -3.24818e-09 2.87242e-14)
(0.13202 -8.43369e-09 2.87273e-14)
(0.13202 -7.77535e-09 2.87174e-14)
(0.13202 -8.64241e-09 2.86402e-14)
(0.13202 1.26288e-08 2.87323e-14)
(0.132867 -4.18936e-08 2.92559e-14)
(0.132867 -1.2674e-08 2.91168e-14)
(0.132867 2.69995e-09 2.92202e-14)
(0.132867 9.0603e-09 2.91949e-14)
(0.132867 9.40169e-09 2.92411e-14)
(0.132867 7.2594e-09 2.9325e-14)
(0.132867 3.89139e-09 2.91636e-14)
(0.132867 1.86912e-10 2.92674e-14)
(0.132867 -3.19803e-09 2.9119e-14)
(0.132867 -5.89104e-09 2.91319e-14)
(0.132867 -7.73089e-09 2.92148e-14)
(0.132867 -8.67169e-09 2.90598e-14)
(0.132867 -8.77242e-09 2.91473e-14)
(0.132867 -8.14932e-09 2.90116e-14)
(0.132867 -6.91038e-09 2.90287e-14)
(0.132867 -5.16893e-09 2.91076e-14)
(0.132867 -3.05836e-09 2.89522e-14)
(0.132867 -6.87488e-10 2.90653e-14)
(0.132867 1.85393e-09 2.89454e-14)
(0.132867 4.45496e-09 2.89794e-14)
(0.132867 7.02539e-09 2.90758e-14)
(0.132867 9.52401e-09 2.89137e-14)
(0.132867 1.1915e-08 2.89876e-14)
(0.132867 1.41618e-08 2.88636e-14)
(0.132867 1.62623e-08 2.89192e-14)
(0.132867 1.82421e-08 2.901e-14)
(0.132867 2.01122e-08 2.88668e-14)
(0.132867 2.18536e-08 2.8963e-14)
(0.132867 2.34403e-08 2.88277e-14)
(0.132867 2.4878e-08 2.88443e-14)
(0.132867 2.62018e-08 2.89503e-14)
(0.132867 2.74251e-08 2.8813e-14)
(0.132867 2.85352e-08 2.89104e-14)
(0.132867 2.95372e-08 2.87812e-14)
(0.132867 3.04385e-08 2.88016e-14)
(0.132867 3.12291e-08 2.89016e-14)
(0.132867 3.1875e-08 2.89104e-14)
(0.132867 3.23926e-08 2.88571e-14)
(0.132867 3.27608e-08 2.89239e-14)
(0.132867 3.295e-08 2.8916e-14)
(0.132867 3.32091e-08 2.89858e-14)
(0.132867 3.26715e-08 2.89601e-14)
(0.132867 3.17556e-08 2.88929e-14)
(0.132867 3.10395e-08 2.89576e-14)
(0.132867 3.07537e-08 2.89772e-14)
(0.132867 3.16441e-08 2.90174e-14)
(0.132867 3.26529e-08 2.89939e-14)
(0.132867 3.27205e-08 2.8932e-14)
(0.132867 3.13121e-08 2.89932e-14)
(0.132867 2.83534e-08 2.89965e-14)
(0.132867 2.40587e-08 2.90435e-14)
(0.132867 1.87482e-08 2.90195e-14)
(0.132867 1.28935e-08 2.89244e-14)
(0.132867 6.72616e-09 2.90001e-14)
(0.132867 1.46396e-09 2.90075e-14)
(0.132867 -3.60314e-09 2.90814e-14)
(0.132867 -3.13728e-09 2.90346e-14)
(0.132867 -4.59364e-09 2.89909e-14)
(0.132867 1.68405e-08 2.9065e-14)
(0.133692 -4.21234e-08 2.9577e-14)
(0.133692 -1.3008e-08 2.94521e-14)
(0.133692 2.27454e-09 2.9518e-14)
(0.133692 8.78449e-09 2.95499e-14)
(0.133692 9.42003e-09 2.95732e-14)
(0.133692 7.45987e-09 2.96333e-14)
(0.133692 4.11938e-09 2.94659e-14)
(0.133692 2.87588e-10 2.95583e-14)
(0.133692 -3.35869e-09 2.94116e-14)
(0.133692 -6.40755e-09 2.94664e-14)
(0.133692 -8.64973e-09 2.95223e-14)
(0.133692 -9.99877e-09 2.9353e-14)
(0.133692 -1.04786e-08 2.94568e-14)
(0.133692 -1.01808e-08 2.93113e-14)
(0.133692 -9.2092e-09 2.93637e-14)
(0.133692 -7.6813e-09 2.94253e-14)
(0.133692 -5.72899e-09 2.92919e-14)
(0.133692 -3.46268e-09 2.93681e-14)
(0.133692 -9.79921e-10 2.92067e-14)
(0.133692 1.60208e-09 2.93175e-14)
(0.133692 4.18989e-09 2.9391e-14)
(0.133692 6.74051e-09 2.91807e-14)
(0.133692 9.21549e-09 2.9305e-14)
(0.133692 1.15729e-08 2.92091e-14)
(0.133692 1.38074e-08 2.92571e-14)
(0.133692 1.59438e-08 2.93276e-14)
(0.133692 1.79903e-08 2.92034e-14)
(0.133693 1.99244e-08 2.92739e-14)
(0.133693 2.17182e-08 2.91297e-14)
(0.133693 2.3372e-08 2.91942e-14)
(0.133693 2.49148e-08 2.92725e-14)
(0.133693 2.6358e-08 2.90811e-14)
(0.133693 2.76913e-08 2.92127e-14)
(0.133693 2.8921e-08 2.91134e-14)
(0.133693 3.00515e-08 2.915e-14)
(0.133693 3.10693e-08 2.92456e-14)
(0.133693 3.19435e-08 2.92586e-14)
(0.133693 3.26839e-08 2.91152e-14)
(0.133693 3.3274e-08 2.92804e-14)
(0.133693 3.36599e-08 2.92869e-14)
(0.133693 3.40947e-08 2.9343e-14)
(0.133693 3.37895e-08 2.93209e-14)
(0.133693 3.30241e-08 2.91901e-14)
(0.133693 3.22529e-08 2.93198e-14)
(0.133693 3.1663e-08 2.93288e-14)
(0.133692 3.20943e-08 2.9373e-14)
(0.133692 3.28502e-08 2.93506e-14)
(0.133692 3.30704e-08 2.9229e-14)
(0.133692 3.21761e-08 2.93563e-14)
(0.133692 2.9933e-08 2.9356e-14)
(0.133692 2.63901e-08 2.94038e-14)
(0.133692 2.1766e-08 2.93821e-14)
(0.133692 1.64709e-08 2.92357e-14)
(0.133692 1.07472e-08 2.93655e-14)
(0.133692 5.72649e-09 2.93851e-14)
(0.133692 8.11976e-10 2.94439e-14)
(0.133692 1.0818e-09 2.94072e-14)
(0.133692 -1.04446e-09 2.9297e-14)
(0.133692 2.06298e-08 2.94333e-14)
(0.134496 -4.22129e-08 2.98958e-14)
(0.134496 -1.33469e-08 2.98274e-14)
(0.134496 1.6138e-09 2.98388e-14)
(0.134496 8.1015e-09 2.98889e-14)
(0.134496 8.96249e-09 2.99128e-14)
(0.134496 7.21699e-09 2.99439e-14)
(0.134496 4.01257e-09 2.98618e-14)
(0.134496 2.07217e-10 2.98818e-14)
(0.134496 -3.53421e-09 2.98078e-14)
(0.134496 -6.78601e-09 2.98208e-14)
(0.134496 -9.30499e-09 2.98335e-14)
(0.134496 -1.09699e-08 2.9759e-14)
(0.134496 -1.17697e-08 2.97847e-14)
(0.134496 -1.17655e-08 2.97156e-14)
(0.134496 -1.10478e-08 2.97314e-14)
(0.134496 -9.7298e-09 2.97484e-14)
(0.134496 -7.93885e-09 2.96666e-14)
(0.134496 -5.78685e-09 2.97034e-14)
(0.134496 -3.37766e-09 2.96562e-14)
(0.134496 -8.31718e-10 2.96807e-14)
(0.134496 1.7559e-09 2.97126e-14)
(0.134496 4.34095e-09 2.96291e-14)
(0.134496 6.88254e-09 2.96471e-14)
(0.134496 9.33351e-09 2.95889e-14)
(0.134496 1.16858e-08 2.96263e-14)
(0.134496 1.39648e-08 2.96514e-14)
(0.134496 1.61753e-08 2.95879e-14)
(0.134496 1.82901e-08 2.96103e-14)
(0.134496 2.02783e-08 2.95479e-14)
(0.134496 2.21367e-08 2.95689e-14)
(0.134496 2.38905e-08 2.96011e-14)
(0.134496 2.55492e-08 2.95338e-14)
(0.134496 2.71014e-08 2.95491e-14)
(0.134496 2.85528e-08 2.9498e-14)
(0.134496 2.99065e-08 2.95207e-14)
(0.134496 3.11476e-08 2.95325e-14)
(0.134496 3.22465e-08 2.95889e-14)
(0.134496 3.32075e-08 2.95697e-14)
(0.134496 3.40185e-08 2.96001e-14)
(0.134496 3.46074e-08 2.96445e-14)
(0.134496 3.52129e-08 2.96292e-14)
(0.134496 3.51323e-08 2.96576e-14)
(0.134496 3.45533e-08 2.96224e-14)
(0.134496 3.38298e-08 2.96384e-14)
(0.134496 3.3089e-08 2.96798e-14)
(0.134496 3.31593e-08 2.96588e-14)
(0.134496 3.36003e-08 2.96868e-14)
(0.134496 3.37653e-08 2.96584e-14)
(0.134496 3.31252e-08 2.96756e-14)
(0.134496 3.13705e-08 2.97138e-14)
(0.134496 2.8422e-08 2.96939e-14)
(0.134496 2.43962e-08 2.97207e-14)
(0.134496 1.96233e-08 2.96601e-14)
(0.134496 1.43377e-08 2.96974e-14)
(0.134496 9.56156e-09 2.97473e-14)
(0.134496 4.8057e-09 2.97349e-14)
(0.134496 4.86059e-09 2.97563e-14)
(0.134496 1.97173e-09 2.97315e-14)
(0.134496 2.39578e-08 2.97567e-14)
(0.135278 -4.21405e-08 3.02101e-14)
(0.135278 -1.36187e-08 3.01892e-14)
(0.135278 8.29669e-10 3.0165e-14)
(0.135278 7.11907e-09 3.02444e-14)
(0.135278 8.0973e-09 3.02491e-14)
(0.135278 6.54443e-09 3.02559e-14)
(0.135278 3.52832e-09 3.02276e-14)
(0.135278 -1.46057e-10 3.02075e-14)
(0.135278 -3.85011e-09 3.01726e-14)
(0.135278 -7.16634e-09 3.01798e-14)
(0.135278 -9.83428e-09 3.01424e-14)
(0.135278 -1.17084e-08 3.0118e-14)
(0.135278 -1.27487e-08 3.01193e-14)
(0.135278 -1.2985e-08 3.0096e-14)
(0.135278 -1.24869e-08 3.01059e-14)
(0.135278 -1.13564e-08 3.00703e-14)
(0.135278 -9.71412e-09 3.00446e-14)
(0.135278 -7.67356e-09 3.00466e-14)
(0.135278 -5.34237e-09 3.00311e-14)
(0.135278 -2.84091e-09 3.00539e-14)
(0.135278 -2.64285e-10 3.00327e-14)
(0.135278 2.34307e-09 3.00048e-14)
(0.135278 4.93858e-09 2.99979e-14)
(0.135278 7.47005e-09 2.99803e-14)
(0.135278 9.92687e-09 3.00035e-14)
(0.135278 1.23352e-08 2.99756e-14)
(0.135278 1.46977e-08 2.99575e-14)
(0.135278 1.69815e-08 2.99557e-14)
(0.135278 1.91507e-08 2.99333e-14)
(0.135278 2.12008e-08 2.99514e-14)
(0.135278 2.31564e-08 2.9928e-14)
(0.135278 2.5025e-08 2.99055e-14)
(0.135278 2.67911e-08 2.98964e-14)
(0.135278 2.84575e-08 2.98783e-14)
(0.135278 3.00278e-08 2.99005e-14)
(0.135278 3.14873e-08 2.98205e-14)
(0.135278 3.28058e-08 2.9929e-14)
(0.135278 3.3983e-08 2.99673e-14)
(0.135278 3.50122e-08 2.99303e-14)
(0.135278 3.58072e-08 3.00051e-14)
(0.135278 3.65812e-08 2.99042e-14)
(0.135278 3.6715e-08 2.99958e-14)
(0.135278 3.63383e-08 3.0022e-14)
(0.135278 3.57292e-08 2.99701e-14)
(0.135278 3.49561e-08 3.00385e-14)
(0.135278 3.47784e-08 2.99347e-14)
(0.135278 3.49214e-08 3.00268e-14)
(0.135278 3.49229e-08 3.00463e-14)
(0.135278 3.43475e-08 3.00061e-14)
(0.135278 3.28769e-08 3.00771e-14)
(0.135278 3.03513e-08 2.99738e-14)
(0.135278 2.68022e-08 3.00635e-14)
(0.135278 2.24744e-08 3.00733e-14)
(0.135278 1.75832e-08 3.0038e-14)
(0.135278 1.30221e-08 3.01132e-14)
(0.135278 8.40216e-09 3.00159e-14)
(0.135278 8.2048e-09 3.01067e-14)
(0.135278 4.44975e-09 3.01179e-14)
(0.135278 2.68093e-08 3.00881e-14)
(0.136039 -4.18951e-08 3.05188e-14)
(0.136039 -1.37763e-08 3.0538e-14)
(0.136039 9.48144e-12 3.04825e-14)
(0.136039 5.93859e-09 3.06079e-14)
(0.136039 6.9101e-09 3.05824e-14)
(0.136039 5.49285e-09 3.0565e-14)
(0.136039 2.67289e-09 3.05742e-14)
(0.136039 -8.11794e-10 3.05251e-14)
(0.136039 -4.38442e-09 3.05239e-14)
(0.136039 -7.65172e-09 3.05388e-14)
(0.136039 -1.03516e-08 3.04372e-14)
(0.136039 -1.23268e-08 3.04717e-14)
(0.136039 -1.35179e-08 3.04503e-14)
(0.136039 -1.39271e-08 3.04629e-14)
(0.136039 -1.35984e-08 3.048e-14)
(0.136039 -1.26169e-08 3.03785e-14)
(0.136039 -1.10965e-08 3.04117e-14)
(0.136039 -9.15259e-09 3.03864e-14)
(0.136039 -6.89315e-09 3.04013e-14)
(0.136039 -4.43536e-09 3.04294e-14)
(0.136039 -1.87285e-09 3.03397e-14)
(0.136039 7.51115e-10 3.0374e-14)
(0.136039 3.39359e-09 3.03442e-14)
(0.136039 5.99787e-09 3.03567e-14)
(0.136039 8.54972e-09 3.03828e-14)
(0.136039 1.10758e-08 3.02869e-14)
(0.136039 1.35791e-08 3.03248e-14)
(0.136039 1.60208e-08 3.02999e-14)
(0.136039 1.83583e-08 3.03115e-14)
(0.136039 2.0587e-08 3.03345e-14)
(0.136039 2.27344e-08 3.02412e-14)
(0.136039 2.48063e-08 3.02736e-14)
(0.136039 2.67809e-08 3.02419e-14)
(0.136039 2.86556e-08 3.02538e-14)
(0.136039 3.04356e-08 3.02804e-14)
(0.136039 3.21076e-08 3.01607e-14)
(0.136039 3.36392e-08 3.02286e-14)
(0.136039 3.50268e-08 3.03299e-14)
(0.136039 3.62696e-08 3.02495e-14)
(0.136039 3.72706e-08 3.03029e-14)
(0.136039 3.82119e-08 3.02203e-14)
(0.136039 3.85506e-08 3.0288e-14)
(0.136039 3.83809e-08 3.04465e-14)
(0.136039 3.79255e-08 3.02922e-14)
(0.136039 3.72035e-08 3.03369e-14)
(0.136039 3.68817e-08 3.02528e-14)
(0.136039 3.67829e-08 3.03224e-14)
(0.136039 3.65854e-08 3.04762e-14)
(0.136039 3.59552e-08 3.0325e-14)
(0.136039 3.46071e-08 3.03792e-14)
(0.136039 3.23449e-08 3.02958e-14)
(0.136039 2.91392e-08 3.03633e-14)