/*--------------------------------*- C++ -*----------------------------------*\
  =========                 |
  \\      /  F ield         | OpenFOAM: The Open Source CFD Toolbox
   \\    /   O peration     | Website:  https://openfoam.org
    \\  /    A nd           | Version:  7
     \\/     M anipulation  |
\*---------------------------------------------------------------------------*/
FoamFile
{
    version     2.0;
    format      ascii;
    class       volScalarField;
    location    "5000";
    object      k;
}
// * * * * * * * * * * * * * * * * * * * * * * * * * * * * * * * * * * * * * //

dimensions      [0 2 -2 0 0 0 0];

internalField   nonuniform List<scalar> 
4000
(
9.23973e-05
9.23975e-05
9.23976e-05
9.23977e-05
9.23978e-05
9.2398e-05
9.23981e-05
9.23981e-05
9.23982e-05
9.23983e-05
9.23983e-05
9.23984e-05
9.23984e-05
9.23985e-05
9.23986e-05
9.23986e-05
9.23987e-05
9.23987e-05
9.23988e-05
9.23988e-05
9.23988e-05
9.23989e-05
9.23989e-05
9.23989e-05
9.2399e-05
9.2399e-05
9.2399e-05
9.2399e-05
9.2399e-05
9.2399e-05
9.23991e-05
9.23991e-05
9.23991e-05
9.23991e-05
9.23991e-05
9.23991e-05
9.23991e-05
9.23991e-05
9.2399e-05
9.2399e-05
9.2399e-05
9.2399e-05
9.2399e-05
9.2399e-05
9.2399e-05
9.23991e-05
9.23992e-05
9.23994e-05
9.23994e-05
9.23995e-05
9.23996e-05
9.23997e-05
9.23998e-05
9.23998e-05
9.23999e-05
9.24e-05
9.24e-05
9.24001e-05
9.24001e-05
9.24002e-05
9.24002e-05
9.24003e-05
9.24003e-05
9.24003e-05
9.24004e-05
9.24004e-05
9.24004e-05
9.24005e-05
9.24005e-05
9.24005e-05
9.24005e-05
9.24005e-05
9.24005e-05
9.24005e-05
9.24005e-05
9.24005e-05
9.24005e-05
9.24004e-05
9.24004e-05
9.24004e-05
9.24003e-05
9.24003e-05
9.24002e-05
9.24002e-05
9.24001e-05
9.24001e-05
9.24e-05
9.23999e-05
9.23999e-05
9.23998e-05
9.23997e-05
9.23996e-05
9.23995e-05
9.23994e-05
9.23993e-05
9.23992e-05
9.2399e-05
9.23989e-05
9.23988e-05
9.23986e-05
9.23985e-05
9.23983e-05
9.23982e-05
9.2398e-05
9.23981e-05
9.2398e-05
9.2398e-05
9.23979e-05
9.23979e-05
9.23978e-05
9.23977e-05
9.23976e-05
9.23976e-05
9.23975e-05
9.23973e-05
9.23972e-05
9.23971e-05
9.2397e-05
9.23969e-05
9.23968e-05
9.25143e-05
9.25145e-05
9.25146e-05
9.25148e-05
9.25149e-05
9.2515e-05
9.25151e-05
9.25152e-05
9.25153e-05
9.25153e-05
9.25154e-05
9.25155e-05
9.25155e-05
9.25156e-05
9.25156e-05
9.25157e-05
9.25158e-05
9.25158e-05
9.25159e-05
9.25159e-05
9.2516e-05
9.2516e-05
9.25161e-05
9.25161e-05
9.25162e-05
9.25162e-05
9.25162e-05
9.25163e-05
9.25163e-05
9.25163e-05
9.25163e-05
9.25164e-05
9.25164e-05
9.25164e-05
9.25164e-05
9.25164e-05
9.25164e-05
9.25165e-05
9.25165e-05
9.25165e-05
9.25165e-05
9.25165e-05
9.25165e-05
9.25165e-05
9.25165e-05
9.25165e-05
9.25166e-05
9.25167e-05
9.25168e-05
9.25169e-05
9.2517e-05
9.2517e-05
9.25171e-05
9.25172e-05
9.25172e-05
9.25173e-05
9.25174e-05
9.25174e-05
9.25175e-05
9.25175e-05
9.25176e-05
9.25176e-05
9.25177e-05
9.25177e-05
9.25177e-05
9.25178e-05
9.25178e-05
9.25178e-05
9.25178e-05
9.25178e-05
9.25178e-05
9.25178e-05
9.25178e-05
9.25178e-05
9.25178e-05
9.25178e-05
9.25178e-05
9.25178e-05
9.25177e-05
9.25177e-05
9.25177e-05
9.25176e-05
9.25176e-05
9.25175e-05
9.25175e-05
9.25174e-05
9.25173e-05
9.25173e-05
9.25172e-05
9.25171e-05
9.2517e-05
9.25169e-05
9.25168e-05
9.25167e-05
9.25166e-05
9.25165e-05
9.25164e-05
9.25163e-05
9.25161e-05
9.2516e-05
9.25159e-05
9.25157e-05
9.25156e-05
9.25154e-05
9.25153e-05
9.25152e-05
9.25152e-05
9.25151e-05
9.2515e-05
9.25149e-05
9.25148e-05
9.25147e-05
9.25146e-05
9.25145e-05
9.25144e-05
9.25143e-05
9.25142e-05
9.2514e-05
9.25139e-05
9.25139e-05
9.27054e-05
9.27056e-05
9.27057e-05
9.27058e-05
9.2706e-05
9.27061e-05
9.27062e-05
9.27063e-05
9.27064e-05
9.27064e-05
9.27065e-05
9.27066e-05
9.27066e-05
9.27067e-05
9.27068e-05
9.27068e-05
9.27069e-05
9.2707e-05
9.2707e-05
9.27071e-05
9.27072e-05
9.27072e-05
9.27073e-05
9.27074e-05
9.27074e-05
9.27075e-05
9.27075e-05
9.27076e-05
9.27076e-05
9.27077e-05
9.27077e-05
9.27077e-05
9.27078e-05
9.27078e-05
9.27079e-05
9.27079e-05
9.27079e-05
9.27079e-05
9.2708e-05
9.2708e-05
9.2708e-05
9.2708e-05
9.27081e-05
9.27081e-05
9.27081e-05
9.27081e-05
9.27082e-05
9.27082e-05
9.27083e-05
9.27084e-05
9.27084e-05
9.27085e-05
9.27086e-05
9.27087e-05
9.27087e-05
9.27088e-05
9.27088e-05
9.27089e-05
9.27089e-05
9.2709e-05
9.2709e-05
9.27091e-05
9.27091e-05
9.27091e-05
9.27092e-05
9.27092e-05
9.27092e-05
9.27092e-05
9.27093e-05
9.27093e-05
9.27093e-05
9.27093e-05
9.27093e-05
9.27093e-05
9.27093e-05
9.27092e-05
9.27092e-05
9.27092e-05
9.27092e-05
9.27091e-05
9.27091e-05
9.2709e-05
9.2709e-05
9.27089e-05
9.27089e-05
9.27088e-05
9.27087e-05
9.27087e-05
9.27086e-05
9.27085e-05
9.27084e-05
9.27083e-05
9.27082e-05
9.27081e-05
9.2708e-05
9.27079e-05
9.27078e-05
9.27076e-05
9.27075e-05
9.27074e-05
9.27072e-05
9.27071e-05
9.27069e-05
9.27068e-05
9.27067e-05
9.27065e-05
9.27064e-05
9.27063e-05
9.27062e-05
9.27061e-05
9.2706e-05
9.27059e-05
9.27058e-05
9.27057e-05
9.27055e-05
9.27054e-05
9.27053e-05
9.27051e-05
9.2705e-05
9.2705e-05
9.29663e-05
9.29665e-05
9.29666e-05
9.29668e-05
9.29669e-05
9.2967e-05
9.29671e-05
9.29672e-05
9.29673e-05
9.29674e-05
9.29674e-05
9.29675e-05
9.29676e-05
9.29677e-05
9.29678e-05
9.29678e-05
9.29679e-05
9.2968e-05
9.29681e-05
9.29682e-05
9.29683e-05
9.29683e-05
9.29684e-05
9.29685e-05
9.29686e-05
9.29686e-05
9.29687e-05
9.29688e-05
9.29688e-05
9.29689e-05
9.2969e-05
9.2969e-05
9.29691e-05
9.29691e-05
9.29692e-05
9.29693e-05
9.29693e-05
9.29694e-05
9.29694e-05
9.29694e-05
9.29695e-05
9.29695e-05
9.29695e-05
9.29696e-05
9.29696e-05
9.29696e-05
9.29697e-05
9.29697e-05
9.29698e-05
9.29698e-05
9.29699e-05
9.297e-05
9.297e-05
9.29701e-05
9.29701e-05
9.29702e-05
9.29702e-05
9.29703e-05
9.29703e-05
9.29704e-05
9.29704e-05
9.29705e-05
9.29705e-05
9.29705e-05
9.29706e-05
9.29706e-05
9.29706e-05
9.29706e-05
9.29706e-05
9.29706e-05
9.29706e-05
9.29706e-05
9.29706e-05
9.29706e-05
9.29706e-05
9.29706e-05
9.29705e-05
9.29705e-05
9.29705e-05
9.29704e-05
9.29704e-05
9.29703e-05
9.29703e-05
9.29702e-05
9.29702e-05
9.29701e-05
9.297e-05
9.29699e-05
9.29698e-05
9.29698e-05
9.29697e-05
9.29696e-05
9.29695e-05
9.29694e-05
9.29692e-05
9.29691e-05
9.2969e-05
9.29689e-05
9.29687e-05
9.29686e-05
9.29685e-05
9.29683e-05
9.29682e-05
9.2968e-05
9.29679e-05
9.29677e-05
9.29676e-05
9.29674e-05
9.29673e-05
9.29672e-05
9.2967e-05
9.29669e-05
9.29668e-05
9.29666e-05
9.29665e-05
9.29664e-05
9.29662e-05
9.29661e-05
9.29659e-05
9.29659e-05
9.32935e-05
9.32937e-05
9.32938e-05
9.32939e-05
9.3294e-05
9.32942e-05
9.32943e-05
9.32944e-05
9.32945e-05
9.32946e-05
9.32947e-05
9.32947e-05
9.32948e-05
9.32949e-05
9.3295e-05
9.32951e-05
9.32952e-05
9.32953e-05
9.32954e-05
9.32955e-05
9.32956e-05
9.32957e-05
9.32958e-05
9.32959e-05
9.3296e-05
9.32961e-05
9.32962e-05
9.32963e-05
9.32964e-05
9.32965e-05
9.32965e-05
9.32966e-05
9.32967e-05
9.32968e-05
9.32968e-05
9.32969e-05
9.3297e-05
9.32971e-05
9.32971e-05
9.32972e-05
9.32972e-05
9.32973e-05
9.32973e-05
9.32974e-05
9.32974e-05
9.32975e-05
9.32975e-05
9.32975e-05
9.32976e-05
9.32976e-05
9.32977e-05
9.32977e-05
9.32978e-05
9.32978e-05
9.32979e-05
9.32979e-05
9.3298e-05
9.3298e-05
9.32981e-05
9.32981e-05
9.32981e-05
9.32982e-05
9.32982e-05
9.32982e-05
9.32982e-05
9.32982e-05
9.32983e-05
9.32983e-05
9.32983e-05
9.32983e-05
9.32983e-05
9.32982e-05
9.32982e-05
9.32982e-05
9.32982e-05
9.32982e-05
9.32981e-05
9.32981e-05
9.3298e-05
9.3298e-05
9.32979e-05
9.32979e-05
9.32978e-05
9.32977e-05
9.32977e-05
9.32976e-05
9.32975e-05
9.32974e-05
9.32973e-05
9.32973e-05
9.32972e-05
9.32971e-05
9.32969e-05
9.32968e-05
9.32967e-05
9.32966e-05
9.32965e-05
9.32963e-05
9.32962e-05
9.3296e-05
9.32959e-05
9.32957e-05
9.32956e-05
9.32954e-05
9.32953e-05
9.32951e-05
9.32949e-05
9.32948e-05
9.32946e-05
9.32945e-05
9.32943e-05
9.32942e-05
9.3294e-05
9.32939e-05
9.32937e-05
9.32936e-05
9.32934e-05
9.32932e-05
9.32931e-05
9.3293e-05
9.36838e-05
9.3684e-05
9.36841e-05
9.36842e-05
9.36843e-05
9.36845e-05
9.36846e-05
9.36847e-05
9.36848e-05
9.36849e-05
9.3685e-05
9.36851e-05
9.36852e-05
9.36853e-05
9.36854e-05
9.36855e-05
9.36857e-05
9.36858e-05
9.36859e-05
9.3686e-05
9.36862e-05
9.36863e-05
9.36864e-05
9.36865e-05
9.36866e-05
9.36867e-05
9.36869e-05
9.3687e-05
9.36871e-05
9.36872e-05
9.36873e-05
9.36874e-05
9.36875e-05
9.36876e-05
9.36877e-05
9.36878e-05
9.36879e-05
9.36879e-05
9.3688e-05
9.36881e-05
9.36882e-05
9.36882e-05
9.36883e-05
9.36884e-05
9.36884e-05
9.36885e-05
9.36885e-05
9.36886e-05
9.36886e-05
9.36886e-05
9.36887e-05
9.36887e-05
9.36888e-05
9.36888e-05
9.36888e-05
9.36889e-05
9.36889e-05
9.3689e-05
9.3689e-05
9.3689e-05
9.3689e-05
9.3689e-05
9.36891e-05
9.36891e-05
9.36891e-05
9.36891e-05
9.36891e-05
9.36891e-05
9.36891e-05
9.36891e-05
9.3689e-05
9.3689e-05
9.3689e-05
9.3689e-05
9.36889e-05
9.36889e-05
9.36888e-05
9.36888e-05
9.36887e-05
9.36887e-05
9.36886e-05
9.36886e-05
9.36885e-05
9.36884e-05
9.36883e-05
9.36882e-05
9.36882e-05
9.36881e-05
9.3688e-05
9.36879e-05
9.36877e-05
9.36876e-05
9.36875e-05
9.36874e-05
9.36873e-05
9.36871e-05
9.3687e-05
9.36869e-05
9.36867e-05
9.36866e-05
9.36864e-05
9.36863e-05
9.36861e-05
9.36859e-05
9.36858e-05
9.36856e-05
9.36854e-05
9.36852e-05
9.36851e-05
9.36849e-05
9.36847e-05
9.36846e-05
9.36844e-05
9.36842e-05
9.3684e-05
9.36839e-05
9.36837e-05
9.36835e-05
9.36834e-05
9.36833e-05
9.41345e-05
9.41347e-05
9.41348e-05
9.41349e-05
9.41351e-05
9.41352e-05
9.41353e-05
9.41354e-05
9.41356e-05
9.41357e-05
9.41358e-05
9.41359e-05
9.4136e-05
9.41362e-05
9.41363e-05
9.41364e-05
9.41366e-05
9.41367e-05
9.41369e-05
9.4137e-05
9.41372e-05
9.41373e-05
9.41374e-05
9.41376e-05
9.41377e-05
9.41379e-05
9.4138e-05
9.41381e-05
9.41383e-05
9.41384e-05
9.41385e-05
9.41386e-05
9.41388e-05
9.41389e-05
9.4139e-05
9.41391e-05
9.41392e-05
9.41393e-05
9.41394e-05
9.41395e-05
9.41396e-05
9.41397e-05
9.41397e-05
9.41398e-05
9.41399e-05
9.41399e-05
9.414e-05
9.414e-05
9.41401e-05
9.41401e-05
9.41402e-05
9.41402e-05
9.41402e-05
9.41403e-05
9.41403e-05
9.41403e-05
9.41403e-05
9.41404e-05
9.41404e-05
9.41404e-05
9.41404e-05
9.41404e-05
9.41404e-05
9.41404e-05
9.41404e-05
9.41404e-05
9.41404e-05
9.41404e-05
9.41403e-05
9.41403e-05
9.41403e-05
9.41402e-05
9.41402e-05
9.41402e-05
9.41401e-05
9.41401e-05
9.414e-05
9.41399e-05
9.41399e-05
9.41398e-05
9.41397e-05
9.41397e-05
9.41396e-05
9.41395e-05
9.41394e-05
9.41393e-05
9.41392e-05
9.41391e-05
9.4139e-05
9.41389e-05
9.41387e-05
9.41386e-05
9.41385e-05
9.41384e-05
9.41382e-05
9.41381e-05
9.4138e-05
9.41378e-05
9.41377e-05
9.41375e-05
9.41373e-05
9.41372e-05
9.4137e-05
9.41368e-05
9.41366e-05
9.41365e-05
9.41363e-05
9.41361e-05
9.41359e-05
9.41357e-05
9.41355e-05
9.41353e-05
9.41352e-05
9.4135e-05
9.41348e-05
9.41346e-05
9.41344e-05
9.41342e-05
9.41341e-05
9.4134e-05
9.46433e-05
9.46435e-05
9.46436e-05
9.46438e-05
9.46439e-05
9.46441e-05
9.46442e-05
9.46443e-05
9.46445e-05
9.46446e-05
9.46447e-05
9.46449e-05
9.4645e-05
9.46452e-05
9.46453e-05
9.46455e-05
9.46456e-05
9.46458e-05
9.4646e-05
9.46462e-05
9.46463e-05
9.46465e-05
9.46467e-05
9.46468e-05
9.4647e-05
9.46471e-05
9.46473e-05
9.46475e-05
9.46476e-05
9.46478e-05
9.46479e-05
9.46481e-05
9.46482e-05
9.46483e-05
9.46485e-05
9.46486e-05
9.46487e-05
9.46488e-05
9.4649e-05
9.46491e-05
9.46492e-05
9.46493e-05
9.46493e-05
9.46494e-05
9.46495e-05
9.46496e-05
9.46496e-05
9.46497e-05
9.46497e-05
9.46497e-05
9.46498e-05
9.46498e-05
9.46498e-05
9.46498e-05
9.46499e-05
9.46499e-05
9.46499e-05
9.46499e-05
9.46499e-05
9.46499e-05
9.46499e-05
9.46499e-05
9.46499e-05
9.46498e-05
9.46498e-05
9.46498e-05
9.46498e-05
9.46497e-05
9.46497e-05
9.46497e-05
9.46496e-05
9.46496e-05
9.46495e-05
9.46495e-05
9.46494e-05
9.46493e-05
9.46493e-05
9.46492e-05
9.46491e-05
9.4649e-05
9.46489e-05
9.46488e-05
9.46487e-05
9.46486e-05
9.46485e-05
9.46484e-05
9.46483e-05
9.46482e-05
9.46481e-05
9.46479e-05
9.46478e-05
9.46477e-05
9.46475e-05
9.46474e-05
9.46473e-05
9.46471e-05
9.4647e-05
9.46468e-05
9.46466e-05
9.46465e-05
9.46463e-05
9.46461e-05
9.4646e-05
9.46458e-05
9.46456e-05
9.46454e-05
9.46452e-05
9.4645e-05
9.46448e-05
9.46446e-05
9.46444e-05
9.46442e-05
9.4644e-05
9.46438e-05
9.46436e-05
9.46434e-05
9.46432e-05
9.4643e-05
9.46428e-05
9.46428e-05
9.52082e-05
9.52084e-05
9.52086e-05
9.52087e-05
9.52089e-05
9.5209e-05
9.52092e-05
9.52093e-05
9.52095e-05
9.52096e-05
9.52098e-05
9.521e-05
9.52101e-05
9.52103e-05
9.52105e-05
9.52107e-05
9.52109e-05
9.52111e-05
9.52113e-05
9.52114e-05
9.52116e-05
9.52118e-05
9.5212e-05
9.52122e-05
9.52124e-05
9.52126e-05
9.52128e-05
9.52129e-05
9.52131e-05
9.52133e-05
9.52135e-05
9.52136e-05
9.52138e-05
9.52139e-05
9.52141e-05
9.52142e-05
9.52144e-05
9.52145e-05
9.52146e-05
9.52148e-05
9.52149e-05
9.5215e-05
9.52151e-05
9.52151e-05
9.52152e-05
9.52153e-05
9.52153e-05
9.52154e-05
9.52154e-05
9.52155e-05
9.52155e-05
9.52155e-05
9.52155e-05
9.52155e-05
9.52155e-05
9.52155e-05
9.52155e-05
9.52155e-05
9.52155e-05
9.52155e-05
9.52155e-05
9.52154e-05
9.52154e-05
9.52154e-05
9.52153e-05
9.52153e-05
9.52153e-05
9.52152e-05
9.52151e-05
9.52151e-05
9.5215e-05
9.5215e-05
9.52149e-05
9.52148e-05
9.52147e-05
9.52147e-05
9.52146e-05
9.52145e-05
9.52144e-05
9.52143e-05
9.52142e-05
9.52141e-05
9.5214e-05
9.52139e-05
9.52137e-05
9.52136e-05
9.52135e-05
9.52134e-05
9.52132e-05
9.52131e-05
9.52129e-05
9.52128e-05
9.52126e-05
9.52125e-05
9.52123e-05
9.52122e-05
9.5212e-05
9.52118e-05
9.52117e-05
9.52115e-05
9.52113e-05
9.52111e-05
9.52109e-05
9.52108e-05
9.52106e-05
9.52104e-05
9.52102e-05
9.521e-05
9.52098e-05
9.52095e-05
9.52093e-05
9.52091e-05
9.52089e-05
9.52087e-05
9.52085e-05
9.52083e-05
9.52081e-05
9.52079e-05
9.52077e-05
9.52076e-05
9.58274e-05
9.58277e-05
9.58278e-05
9.5828e-05
9.58282e-05
9.58284e-05
9.58285e-05
9.58287e-05
9.58289e-05
9.58291e-05
9.58293e-05
9.58294e-05
9.58296e-05
9.58298e-05
9.583e-05
9.58303e-05
9.58305e-05
9.58307e-05
9.58309e-05
9.58311e-05
9.58314e-05
9.58316e-05
9.58318e-05
9.5832e-05
9.58322e-05
9.58324e-05
9.58326e-05
9.58328e-05
9.5833e-05
9.58332e-05
9.58334e-05
9.58336e-05
9.58338e-05
9.5834e-05
9.58341e-05
9.58343e-05
9.58344e-05
9.58346e-05
9.58347e-05
9.58348e-05
9.58349e-05
9.58351e-05
9.58351e-05
9.58352e-05
9.58353e-05
9.58354e-05
9.58354e-05
9.58355e-05
9.58355e-05
9.58355e-05
9.58355e-05
9.58356e-05
9.58356e-05
9.58356e-05
9.58355e-05
9.58355e-05
9.58355e-05
9.58355e-05
9.58354e-05
9.58354e-05
9.58354e-05
9.58353e-05
9.58353e-05
9.58352e-05
9.58352e-05
9.58351e-05
9.5835e-05
9.5835e-05
9.58349e-05
9.58348e-05
9.58348e-05
9.58347e-05
9.58346e-05
9.58345e-05
9.58344e-05
9.58343e-05
9.58342e-05
9.58341e-05
9.5834e-05
9.58339e-05
9.58337e-05
9.58336e-05
9.58335e-05
9.58334e-05
9.58332e-05
9.58331e-05
9.5833e-05
9.58328e-05
9.58327e-05
9.58325e-05
9.58324e-05
9.58322e-05
9.5832e-05
9.58319e-05
9.58317e-05
9.58315e-05
9.58314e-05
9.58312e-05
9.5831e-05
9.58308e-05
9.58306e-05
9.58304e-05
9.58302e-05
9.583e-05
9.58298e-05
9.58296e-05
9.58294e-05
9.58292e-05
9.5829e-05
9.58288e-05
9.58286e-05
9.58283e-05
9.58281e-05
9.58279e-05
9.58277e-05
9.58275e-05
9.58273e-05
9.58271e-05
9.58269e-05
9.58268e-05
9.64995e-05
9.64998e-05
9.65e-05
9.65001e-05
9.65003e-05
9.65005e-05
9.65007e-05
9.6501e-05
9.65012e-05
9.65014e-05
9.65016e-05
9.65018e-05
9.6502e-05
9.65022e-05
9.65025e-05
9.65027e-05
9.6503e-05
9.65032e-05
9.65035e-05
9.65037e-05
9.6504e-05
9.65042e-05
9.65045e-05
9.65047e-05
9.65049e-05
9.65052e-05
9.65054e-05
9.65056e-05
9.65058e-05
9.65061e-05
9.65063e-05
9.65065e-05
9.65067e-05
9.65068e-05
9.6507e-05
9.65072e-05
9.65073e-05
9.65075e-05
9.65076e-05
9.65078e-05
9.65079e-05
9.6508e-05
9.65081e-05
9.65081e-05
9.65082e-05
9.65083e-05
9.65083e-05
9.65083e-05
9.65084e-05
9.65084e-05
9.65084e-05
9.65084e-05
9.65084e-05
9.65084e-05
9.65083e-05
9.65083e-05
9.65083e-05
9.65082e-05
9.65082e-05
9.65081e-05
9.65081e-05
9.6508e-05
9.65079e-05
9.65079e-05
9.65078e-05
9.65077e-05
9.65076e-05
9.65075e-05
9.65074e-05
9.65073e-05
9.65072e-05
9.65071e-05
9.6507e-05
9.65069e-05
9.65068e-05
9.65067e-05
9.65066e-05
9.65065e-05
9.65063e-05
9.65062e-05
9.65061e-05
9.65059e-05
9.65058e-05
9.65056e-05
9.65055e-05
9.65053e-05
9.65052e-05
9.6505e-05
9.65049e-05
9.65047e-05
9.65045e-05
9.65044e-05
9.65042e-05
9.6504e-05
9.65038e-05
9.65037e-05
9.65035e-05
9.65033e-05
9.65031e-05
9.65029e-05
9.65027e-05
9.65025e-05
9.65023e-05
9.65021e-05
9.65019e-05
9.65016e-05
9.65014e-05
9.65012e-05
9.6501e-05
9.65008e-05
9.65005e-05
9.65003e-05
9.65001e-05
9.64999e-05
9.64997e-05
9.64995e-05
9.64993e-05
9.64991e-05
9.64989e-05
9.64988e-05
9.7223e-05
9.72233e-05
9.72236e-05
9.72238e-05
9.7224e-05
9.72242e-05
9.72245e-05
9.72247e-05
9.7225e-05
9.72252e-05
9.72254e-05
9.72257e-05
9.72259e-05
9.72262e-05
9.72265e-05
9.72268e-05
9.7227e-05
9.72273e-05
9.72276e-05
9.72279e-05
9.72281e-05
9.72284e-05
9.72287e-05
9.72289e-05
9.72292e-05
9.72294e-05
9.72297e-05
9.72299e-05
9.72302e-05
9.72304e-05
9.72306e-05
9.72308e-05
9.7231e-05
9.72312e-05
9.72314e-05
9.72316e-05
9.72317e-05
9.72319e-05
9.7232e-05
9.72321e-05
9.72323e-05
9.72324e-05
9.72324e-05
9.72325e-05
9.72326e-05
9.72326e-05
9.72326e-05
9.72326e-05
9.72327e-05
9.72327e-05
9.72326e-05
9.72326e-05
9.72326e-05
9.72326e-05
9.72325e-05
9.72325e-05
9.72324e-05
9.72324e-05
9.72323e-05
9.72322e-05
9.72321e-05
9.72321e-05
9.7232e-05
9.72319e-05
9.72318e-05
9.72317e-05
9.72316e-05
9.72315e-05
9.72314e-05
9.72313e-05
9.72311e-05
9.7231e-05
9.72309e-05
9.72308e-05
9.72306e-05
9.72305e-05
9.72304e-05
9.72302e-05
9.72301e-05
9.72299e-05
9.72298e-05
9.72296e-05
9.72295e-05
9.72293e-05
9.72292e-05
9.7229e-05
9.72288e-05
9.72287e-05
9.72285e-05
9.72283e-05
9.72281e-05
9.7228e-05
9.72278e-05
9.72276e-05
9.72274e-05
9.72272e-05
9.7227e-05
9.72268e-05
9.72266e-05
9.72264e-05
9.72262e-05
9.7226e-05
9.72257e-05
9.72255e-05
9.72253e-05
9.72251e-05
9.72249e-05
9.72246e-05
9.72244e-05
9.72242e-05
9.7224e-05
9.72237e-05
9.72235e-05
9.72233e-05
9.72231e-05
9.72229e-05
9.72227e-05
9.72225e-05
9.72223e-05
9.72223e-05
9.79969e-05
9.79972e-05
9.79975e-05
9.79977e-05
9.7998e-05
9.79983e-05
9.79985e-05
9.79988e-05
9.79991e-05
9.79994e-05
9.79996e-05
9.79999e-05
9.80002e-05
9.80005e-05
9.80008e-05
9.80011e-05
9.80014e-05
9.80017e-05
9.8002e-05
9.80023e-05
9.80026e-05
9.80029e-05
9.80032e-05
9.80035e-05
9.80038e-05
9.80041e-05
9.80043e-05
9.80046e-05
9.80048e-05
9.80051e-05
9.80053e-05
9.80055e-05
9.80057e-05
9.80059e-05
9.80061e-05
9.80063e-05
9.80064e-05
9.80066e-05
9.80067e-05
9.80068e-05
9.80069e-05
9.8007e-05
9.80071e-05
9.80071e-05
9.80071e-05
9.80072e-05
9.80072e-05
9.80072e-05
9.80072e-05
9.80072e-05
9.80071e-05
9.80071e-05
9.8007e-05
9.8007e-05
9.80069e-05
9.80069e-05
9.80068e-05
9.80067e-05
9.80066e-05
9.80065e-05
9.80064e-05
9.80063e-05
9.80062e-05
9.80061e-05
9.8006e-05
9.80059e-05
9.80058e-05
9.80056e-05
9.80055e-05
9.80054e-05
9.80052e-05
9.80051e-05
9.8005e-05
9.80048e-05
9.80047e-05
9.80045e-05
9.80044e-05
9.80042e-05
9.80041e-05
9.80039e-05
9.80037e-05
9.80036e-05
9.80034e-05
9.80032e-05
9.80031e-05
9.80029e-05
9.80027e-05
9.80025e-05
9.80023e-05
9.80021e-05
9.8002e-05
9.80018e-05
9.80016e-05
9.80014e-05
9.80012e-05
9.8001e-05
9.80007e-05
9.80005e-05
9.80003e-05
9.80001e-05
9.79999e-05
9.79997e-05
9.79994e-05
9.79992e-05
9.7999e-05
9.79988e-05
9.79985e-05
9.79983e-05
9.79981e-05
9.79978e-05
9.79976e-05
9.79974e-05
9.79972e-05
9.7997e-05
9.79968e-05
9.79966e-05
9.79964e-05
9.79962e-05
9.79961e-05
9.7996e-05
9.882e-05
9.88203e-05
9.88206e-05
9.88209e-05
9.88212e-05
9.88216e-05
9.88219e-05
9.88222e-05
9.88225e-05
9.88228e-05
9.88231e-05
9.88234e-05
9.88238e-05
9.88241e-05
9.88244e-05
9.88248e-05
9.88251e-05
9.88254e-05
9.88258e-05
9.88261e-05
9.88264e-05
9.88267e-05
9.8827e-05
9.88273e-05
9.88276e-05
9.88279e-05
9.88282e-05
9.88285e-05
9.88287e-05
9.8829e-05
9.88292e-05
9.88295e-05
9.88297e-05
9.88299e-05
9.883e-05
9.88302e-05
9.88303e-05
9.88305e-05
9.88306e-05
9.88307e-05
9.88307e-05
9.88308e-05
9.88308e-05
9.88309e-05
9.88309e-05
9.88309e-05
9.88309e-05
9.88308e-05
9.88308e-05
9.88308e-05
9.88307e-05
9.88307e-05
9.88306e-05
9.88305e-05
9.88304e-05
9.88304e-05
9.88303e-05
9.88302e-05
9.88301e-05
9.88299e-05
9.88298e-05
9.88297e-05
9.88296e-05
9.88295e-05
9.88293e-05
9.88292e-05
9.88291e-05
9.88289e-05
9.88288e-05
9.88286e-05
9.88285e-05
9.88283e-05
9.88282e-05
9.8828e-05
9.88279e-05
9.88277e-05
9.88275e-05
9.88274e-05
9.88272e-05
9.8827e-05
9.88268e-05
9.88267e-05
9.88265e-05
9.88263e-05
9.88261e-05
9.88259e-05
9.88257e-05
9.88255e-05
9.88253e-05
9.88251e-05
9.88249e-05
9.88247e-05
9.88245e-05
9.88243e-05
9.88241e-05
9.88239e-05
9.88237e-05
9.88234e-05
9.88232e-05
9.8823e-05
9.88228e-05
9.88225e-05
9.88223e-05
9.88221e-05
9.88218e-05
9.88216e-05
9.88214e-05
9.88211e-05
9.88209e-05
9.88207e-05
9.88205e-05
9.88202e-05
9.882e-05
9.88198e-05
9.88197e-05
9.88195e-05
9.88193e-05
9.88192e-05
9.88191e-05
9.8819e-05
9.96913e-05
9.96917e-05
9.96921e-05
9.96924e-05
9.96928e-05
9.96931e-05
9.96935e-05
9.96938e-05
9.96942e-05
9.96945e-05
9.96949e-05
9.96952e-05
9.96956e-05
9.9696e-05
9.96963e-05
9.96967e-05
9.96971e-05
9.96974e-05
9.96978e-05
9.96981e-05
9.96985e-05
9.96988e-05
9.96991e-05
9.96994e-05
9.96997e-05
9.97e-05
9.97003e-05
9.97006e-05
9.97009e-05
9.97011e-05
9.97014e-05
9.97016e-05
9.97018e-05
9.9702e-05
9.97021e-05
9.97023e-05
9.97024e-05
9.97025e-05
9.97026e-05
9.97027e-05
9.97027e-05
9.97027e-05
9.97028e-05
9.97028e-05
9.97027e-05
9.97027e-05
9.97027e-05
9.97026e-05
9.97026e-05
9.97025e-05
9.97024e-05
9.97024e-05
9.97023e-05
9.97022e-05
9.97021e-05
9.9702e-05
9.97018e-05
9.97017e-05
9.97016e-05
9.97015e-05
9.97013e-05
9.97012e-05
9.97011e-05
9.97009e-05
9.97008e-05
9.97006e-05
9.97005e-05
9.97003e-05
9.97002e-05
9.97e-05
9.96998e-05
9.96997e-05
9.96995e-05
9.96993e-05
9.96992e-05
9.9699e-05
9.96988e-05
9.96986e-05
9.96984e-05
9.96983e-05
9.96981e-05
9.96979e-05
9.96977e-05
9.96975e-05
9.96973e-05
9.96971e-05
9.96969e-05
9.96967e-05
9.96965e-05
9.96963e-05
9.9696e-05
9.96958e-05
9.96956e-05
9.96954e-05
9.96952e-05
9.9695e-05
9.96947e-05
9.96945e-05
9.96943e-05
9.9694e-05
9.96938e-05
9.96936e-05
9.96933e-05
9.96931e-05
9.96929e-05
9.96926e-05
9.96924e-05
9.96922e-05
9.96919e-05
9.96917e-05
9.96915e-05
9.96913e-05
9.96911e-05
9.96909e-05
9.96908e-05
9.96906e-05
9.96905e-05
9.96904e-05
9.96903e-05
9.96903e-05
0.00010061
0.000100611
0.000100611
0.000100611
0.000100612
0.000100612
0.000100612
0.000100613
0.000100613
0.000100614
0.000100614
0.000100614
0.000100615
0.000100615
0.000100616
0.000100616
0.000100616
0.000100617
0.000100617
0.000100617
0.000100618
0.000100618
0.000100619
0.000100619
0.000100619
0.000100619
0.00010062
0.00010062
0.00010062
0.000100621
0.000100621
0.000100621
0.000100621
0.000100621
0.000100621
0.000100622
0.000100622
0.000100622
0.000100622
0.000100622
0.000100622
0.000100622
0.000100622
0.000100622
0.000100622
0.000100622
0.000100622
0.000100622
0.000100622
0.000100621
0.000100621
0.000100621
0.000100621
0.000100621
0.000100621
0.000100621
0.000100621
0.00010062
0.00010062
0.00010062
0.00010062
0.00010062
0.00010062
0.00010062
0.000100619
0.000100619
0.000100619
0.000100619
0.000100619
0.000100619
0.000100618
0.000100618
0.000100618
0.000100618
0.000100618
0.000100617
0.000100617
0.000100617
0.000100617
0.000100617
0.000100617
0.000100616
0.000100616
0.000100616
0.000100616
0.000100616
0.000100615
0.000100615
0.000100615
0.000100615
0.000100614
0.000100614
0.000100614
0.000100614
0.000100614
0.000100613
0.000100613
0.000100613
0.000100613
0.000100612
0.000100612
0.000100612
0.000100612
0.000100611
0.000100611
0.000100611
0.000100611
0.00010061
0.00010061
0.00010061
0.00010061
0.00010061
0.000100609
0.000100609
0.000100609
0.000100609
0.000100609
0.000100609
0.000100609
0.000100609
0.000101575
0.000101576
0.000101576
0.000101577
0.000101577
0.000101578
0.000101578
0.000101578
0.000101579
0.000101579
0.00010158
0.00010158
0.00010158
0.000101581
0.000101581
0.000101582
0.000101582
0.000101583
0.000101583
0.000101583
0.000101584
0.000101584
0.000101584
0.000101585
0.000101585
0.000101585
0.000101586
0.000101586
0.000101586
0.000101586
0.000101587
0.000101587
0.000101587
0.000101587
0.000101587
0.000101587
0.000101587
0.000101587
0.000101587
0.000101587
0.000101587
0.000101587
0.000101587
0.000101587
0.000101587
0.000101587
0.000101587
0.000101587
0.000101587
0.000101587
0.000101586
0.000101586
0.000101586
0.000101586
0.000101586
0.000101586
0.000101586
0.000101586
0.000101585
0.000101585
0.000101585
0.000101585
0.000101585
0.000101585
0.000101584
0.000101584
0.000101584
0.000101584
0.000101584
0.000101583
0.000101583
0.000101583
0.000101583
0.000101583
0.000101583
0.000101582
0.000101582
0.000101582
0.000101582
0.000101582
0.000101581
0.000101581
0.000101581
0.000101581
0.00010158
0.00010158
0.00010158
0.00010158
0.00010158
0.000101579
0.000101579
0.000101579
0.000101579
0.000101578
0.000101578
0.000101578
0.000101578
0.000101578
0.000101577
0.000101577
0.000101577
0.000101577
0.000101576
0.000101576
0.000101576
0.000101576
0.000101575
0.000101575
0.000101575
0.000101575
0.000101575
0.000101574
0.000101574
0.000101574
0.000101574
0.000101574
0.000101574
0.000101574
0.000101574
0.000101574
0.000102586
0.000102587
0.000102587
0.000102588
0.000102588
0.000102589
0.000102589
0.00010259
0.00010259
0.00010259
0.000102591
0.000102591
0.000102592
0.000102592
0.000102593
0.000102593
0.000102593
0.000102594
0.000102594
0.000102595
0.000102595
0.000102595
0.000102596
0.000102596
0.000102596
0.000102597
0.000102597
0.000102597
0.000102597
0.000102598
0.000102598
0.000102598
0.000102598
0.000102598
0.000102598
0.000102598
0.000102598
0.000102598
0.000102598
0.000102598
0.000102598
0.000102598
0.000102598
0.000102598
0.000102598
0.000102598
0.000102598
0.000102597
0.000102597
0.000102597
0.000102597
0.000102597
0.000102597
0.000102597
0.000102596
0.000102596
0.000102596
0.000102596
0.000102596
0.000102596
0.000102595
0.000102595
0.000102595
0.000102595
0.000102595
0.000102595
0.000102594
0.000102594
0.000102594
0.000102594
0.000102594
0.000102593
0.000102593
0.000102593
0.000102593
0.000102593
0.000102592
0.000102592
0.000102592
0.000102592
0.000102592
0.000102591
0.000102591
0.000102591
0.000102591
0.000102591
0.00010259
0.00010259
0.00010259
0.00010259
0.000102589
0.000102589
0.000102589
0.000102589
0.000102589
0.000102588
0.000102588
0.000102588
0.000102588
0.000102587
0.000102587
0.000102587
0.000102587
0.000102586
0.000102586
0.000102586
0.000102586
0.000102585
0.000102585
0.000102585
0.000102585
0.000102585
0.000102585
0.000102585
0.000102585
0.000102585
0.000102585
0.000102585
0.000102585
0.000102585
0.000103642
0.000103642
0.000103643
0.000103643
0.000103644
0.000103644
0.000103645
0.000103645
0.000103646
0.000103646
0.000103647
0.000103647
0.000103648
0.000103648
0.000103649
0.000103649
0.000103649
0.00010365
0.00010365
0.000103651
0.000103651
0.000103651
0.000103652
0.000103652
0.000103652
0.000103653
0.000103653
0.000103653
0.000103653
0.000103654
0.000103654
0.000103654
0.000103654
0.000103654
0.000103654
0.000103654
0.000103654
0.000103654
0.000103654
0.000103654
0.000103654
0.000103653
0.000103653
0.000103653
0.000103653
0.000103653
0.000103653
0.000103653
0.000103653
0.000103652
0.000103652
0.000103652
0.000103652
0.000103652
0.000103652
0.000103651
0.000103651
0.000103651
0.000103651
0.000103651
0.00010365
0.00010365
0.00010365
0.00010365
0.00010365
0.00010365
0.000103649
0.000103649
0.000103649
0.000103649
0.000103649
0.000103648
0.000103648
0.000103648
0.000103648
0.000103648
0.000103647
0.000103647
0.000103647
0.000103647
0.000103647
0.000103646
0.000103646
0.000103646
0.000103646
0.000103645
0.000103645
0.000103645
0.000103645
0.000103645
0.000103644
0.000103644
0.000103644
0.000103644
0.000103643
0.000103643
0.000103643
0.000103643
0.000103642
0.000103642
0.000103642
0.000103642
0.000103642
0.000103641
0.000103641
0.000103641
0.000103641
0.00010364
0.00010364
0.00010364
0.00010364
0.00010364
0.00010364
0.00010364
0.00010364
0.00010364
0.00010364
0.00010364
0.00010364
0.00010364
0.000104741
0.000104742
0.000104743
0.000104743
0.000104744
0.000104744
0.000104745
0.000104745
0.000104746
0.000104746
0.000104747
0.000104747
0.000104747
0.000104748
0.000104748
0.000104749
0.000104749
0.00010475
0.00010475
0.00010475
0.000104751
0.000104751
0.000104751
0.000104752
0.000104752
0.000104752
0.000104753
0.000104753
0.000104753
0.000104753
0.000104753
0.000104753
0.000104753
0.000104753
0.000104753
0.000104753
0.000104753
0.000104753
0.000104753
0.000104753
0.000104753
0.000104752
0.000104752
0.000104752
0.000104752
0.000104752
0.000104752
0.000104751
0.000104751
0.000104751
0.000104751
0.000104751
0.000104751
0.00010475
0.00010475
0.00010475
0.00010475
0.00010475
0.00010475
0.000104749
0.000104749
0.000104749
0.000104749
0.000104749
0.000104748
0.000104748
0.000104748
0.000104748
0.000104748
0.000104747
0.000104747
0.000104747
0.000104747
0.000104747
0.000104747
0.000104746
0.000104746
0.000104746
0.000104746
0.000104745
0.000104745
0.000104745
0.000104745
0.000104745
0.000104744
0.000104744
0.000104744
0.000104744
0.000104744
0.000104743
0.000104743
0.000104743
0.000104743
0.000104742
0.000104742
0.000104742
0.000104742
0.000104741
0.000104741
0.000104741
0.000104741
0.00010474
0.00010474
0.00010474
0.00010474
0.00010474
0.000104739
0.000104739
0.000104739
0.000104739
0.000104739
0.000104739
0.000104739
0.000104739
0.000104739
0.000104739
0.000104739
0.000104739
0.00010474
0.00010474
0.000105884
0.000105884
0.000105885
0.000105886
0.000105886
0.000105887
0.000105887
0.000105888
0.000105888
0.000105889
0.000105889
0.00010589
0.00010589
0.00010589
0.000105891
0.000105891
0.000105892
0.000105892
0.000105893
0.000105893
0.000105893
0.000105894
0.000105894
0.000105894
0.000105894
0.000105895
0.000105895
0.000105895
0.000105895
0.000105895
0.000105895
0.000105895
0.000105895
0.000105895
0.000105895
0.000105895
0.000105895
0.000105895
0.000105895
0.000105894
0.000105894
0.000105894
0.000105894
0.000105894
0.000105893
0.000105893
0.000105893
0.000105893
0.000105893
0.000105893
0.000105892
0.000105892
0.000105892
0.000105892
0.000105892
0.000105892
0.000105891
0.000105891
0.000105891
0.000105891
0.000105891
0.00010589
0.00010589
0.00010589
0.00010589
0.00010589