/*--------------------------------*- C++ -*----------------------------------*\
  =========                 |
  \\      /  F ield         | OpenFOAM: The Open Source CFD Toolbox
   \\    /   O peration     | Website:  https://openfoam.org
    \\  /    A nd           | Version:  7
     \\/     M anipulation  |
\*---------------------------------------------------------------------------*/
FoamFile
{
    version     2.0;
    format      ascii;
    class       surfaceScalarField;
    location    "2500";
    object      phi;
}
// * * * * * * * * * * * * * * * * * * * * * * * * * * * * * * * * * * * * * //

dimensions      [0 3 -1 0 0 0 0];

internalField   nonuniform List<scalar> 
7821
(
0.000124675
-7.97324e-10
0.000124675
-7.73973e-10
0.000124675
-7.02273e-10
0.000124676
-6.50539e-10
0.000124676
-6.0503e-10
0.000124676
-5.60805e-10
0.000124676
-5.16425e-10
0.000124676
-4.71655e-10
0.000124676
-4.2651e-10
0.000124676
-3.81051e-10
0.000124676
-3.35387e-10
0.000124676
-2.897e-10
0.000124676
-2.44242e-10
0.000124676
-1.99321e-10
0.000124676
-1.55279e-10
0.000124676
-1.12453e-10
0.000124676
-7.11501e-11
0.000124676
-3.16175e-11
0.000124676
5.97224e-12
0.000124676
4.15277e-11
0.000124676
7.50325e-11
0.000124676
1.06528e-10
0.000124676
1.36093e-10
0.000124676
1.63817e-10
0.000124676
1.89788e-10
0.000124676
2.14074e-10
0.000124676
2.36735e-10
0.000124676
2.5781e-10
0.000124676
2.77361e-10
0.000124676
2.95451e-10
0.000124676
3.12173e-10
0.000124676
3.27778e-10
0.000124676
3.42184e-10
0.000124676
3.57017e-10
0.000124676
3.69512e-10
0.000124676
3.9546e-10
0.000124676
3.96677e-10
6.30803e-10
0.000128791
-2.35866e-10
0.000128791
-5.7054e-10
0.000128791
-8.01039e-10
0.000128791
-7.58433e-10
0.000128791
-7.14397e-10
0.000128791
-6.71829e-10
0.000128791
-6.28274e-10
0.000128791
-5.83801e-10
0.000128791
-5.38315e-10
0.000128791
-4.92037e-10
0.000128791
-4.45167e-10
0.000128791
-3.97862e-10
0.000128791
-3.50289e-10
0.000128791
-3.02664e-10
0.000128791
-2.55256e-10
0.000128791
-2.08382e-10
0.000128791
-1.62379e-10
0.000128791
-1.17581e-10
0.000128791
-7.42944e-11
0.000128791
-3.27678e-11
0.000128791
6.81918e-12
0.000128791
4.43663e-11
0.000128791
7.98476e-11
0.000128791
1.13296e-10
0.000128791
1.44781e-10
0.000128791
1.74388e-10
0.000128791
2.02198e-10
0.000128791
2.28274e-10
0.000128791
2.52672e-10
0.000128791
2.75422e-10
0.000128791
2.96579e-10
0.000128791
3.16191e-10
0.000128791
3.34346e-10
0.000128791
3.51263e-10
0.000128791
3.66879e-10
0.000128791
3.82681e-10
0.000128791
3.96092e-10
0.000128791
4.2167e-10
0.000128791
4.24397e-10
0.000128791
6.10967e-10
0.000128791
8.22474e-10
1.02593e-09
0.000132993
1.22476e-09
0.000132993
3.2683e-10
0.000132993
-2.03961e-10
0.000132993
-4.47039e-10
0.000132993
-6.70131e-10
0.000132993
-7.02349e-10
0.000132993
-6.98662e-10
0.000132993
-6.74302e-10
0.000132993
-6.38675e-10
0.000132993
-5.97579e-10
0.000132993
-5.53264e-10
0.000132993
-5.06969e-10
0.000132993
-4.59377e-10
0.000132993
-4.10912e-10
0.000132993
-3.61899e-10
0.000132993
-3.12657e-10
0.000132993
-2.63515e-10
0.000132993
-2.14824e-10
0.000132993
-1.6694e-10
0.000132993
-1.20207e-10
0.000132993
-7.49382e-11
0.000132993
-3.13942e-11
0.000132993
1.02324e-11
0.000132993
4.98267e-11
0.000132993
8.73489e-11
0.000132993
1.22818e-10
0.000132993
1.56296e-10
0.000132993
1.87857e-10
0.000132993
2.17577e-10
0.000132993
2.45511e-10
0.000132993
2.7171e-10
0.000132993
2.96194e-10
0.000132993
3.19011e-10
0.000132993
3.40194e-10
0.000132993
3.59825e-10
0.000132993
3.78085e-10
0.000132993
3.9494e-10
0.000132993
4.11686e-10
0.000132993
4.26129e-10
0.000132993
4.50236e-10
0.000132993
4.59509e-10
0.000132993
5.36068e-10
0.000132993
6.89603e-10
0.000132993
9.42724e-10
0.000132993
1.12811e-09
0.000132993
1.0588e-09
0.000132993
9.18074e-10
0.000132993
7.86388e-10
0.000132993
6.73441e-10
0.000132993
5.73346e-10
0.000132993
4.81797e-10
0.000132993
3.96379e-10
0.000132993
3.24501e-10
0.000132993
2.60494e-10
0.000132993
2.50052e-10
0.000132993
2.36054e-10
0.000132993
4.55939e-10
0.000132993
5.37802e-10
1.6897e-09
0.000137287
1.19102e-09
0.000137286
4.31964e-10
0.000137286
-5.7807e-11
0.000137286
-3.22394e-10
0.000137286
-5.43671e-10
0.000137286
-6.21319e-10
0.000137286
-6.568e-10
0.000137286
-6.56207e-10
0.000137286
-6.33684e-10
0.000137286
-5.99646e-10
0.000137286
-5.59022e-10
0.000137286
-5.14461e-10
0.000137286
-4.67389e-10
0.000137286
-4.18654e-10
0.000137286
-3.68848e-10
0.000137286
-3.18457e-10
0.000137286
-2.67921e-10
0.000137286
-2.17656e-10
0.000137286
-1.6806e-10
0.000137286
-1.19504e-10
0.000137286
-7.23222e-11
0.000137286
-2.67958e-11
0.000137286
1.68614e-11
0.000137286
5.85134e-11
0.000137286
9.81015e-11
0.000137286
1.35628e-10
0.000137286
1.71141e-10
0.000137286
2.04703e-10
0.000137286
2.36382e-10
0.000137286
2.66224e-10
0.000137286
2.94271e-10
0.000137286
3.20536e-10
0.000137286
3.45055e-10
0.000137286
3.67846e-10
0.000137286
3.88985e-10
0.000137286
4.08611e-10
0.000137286
4.26723e-10
0.000137286
4.44385e-10
0.000137286
4.59938e-10
0.000137286
4.81978e-10
0.000137286
4.98277e-10
0.000137286
5.09704e-10
0.000137286
6.03941e-10
0.000137286
7.85277e-10
0.000137286
9.59858e-10
0.000137286
1.01734e-09
0.000137286
9.45799e-10
0.000137286
8.39087e-10
0.000137286
7.33325e-10
0.000137286
6.34406e-10
0.000137286
5.41729e-10
0.000137286
4.54098e-10
0.000137286
3.78826e-10
0.000137286
3.11079e-10
0.000137286
2.94807e-10
0.000137285
2.7583e-10
0.000137285
4.85401e-10
0.000137285
5.60525e-10
1.67541e-09
0.000141673
1.11725e-09
0.000141672
4.97739e-10
0.000141672
6.13393e-11
0.000141672
-2.04421e-10
0.000141672
-4.23699e-10
0.000141672
-5.2842e-10
0.000141672
-5.95299e-10
0.000141672
-6.19137e-10
0.000141672
-6.12786e-10
0.000141672
-5.88763e-10
0.000141672
-5.54157e-10
0.000141672
-5.13079e-10
0.000141672
-4.67836e-10
0.000141672
-4.19818e-10
0.000141672
-3.69964e-10
0.000141672
-3.18988e-10
0.000141672
-2.67484e-10
0.000141672
-2.15966e-10
0.000141672
-1.64898e-10
0.000141672
-1.14695e-10
0.000141672
-6.5726e-11
0.000141672
-1.83038e-11
0.000141672
2.73288e-11
0.000141672
7.10086e-11
0.000141672
1.12652e-10
0.000141672
1.52241e-10
0.000141672
1.89804e-10
0.000141672
2.25391e-10
0.000141672
2.59056e-10
0.000141672
2.90837e-10
0.000141672
3.20765e-10
0.000141672
3.4884e-10
0.000141672
3.7509e-10
0.000141672
3.99515e-10
0.000141672
4.22183e-10
0.000141672
4.4319e-10
0.000141671
4.62569e-10
0.000141671
4.8112e-10
0.000141671
4.97804e-10
0.000141671
5.17672e-10
0.000141671
5.39329e-10
0.000141671
5.15141e-10
0.000141671
5.59988e-10
0.000141671
6.79506e-10
0.000141672
8.21698e-10
0.000141672
9.44075e-10
0.000141672
9.38631e-10
0.000141672
8.68885e-10
0.000141672
7.7969e-10
0.000141672
6.87544e-10
0.000141672
5.97102e-10
0.000141671
5.09427e-10
0.000141671
4.32166e-10
0.000141671
3.61618e-10
0.000141671
3.39768e-10
0.000141671
3.16101e-10
0.000141671
5.12838e-10
0.000141671
5.82336e-10
1.63162e-09
0.000146154
1.01407e-09
0.000146154
5.27177e-10
0.000146154
1.50647e-10
0.000146154
-1.01579e-10
0.000146154
-3.1473e-10
0.000146154
-4.33554e-10
0.000146154
-5.22131e-10
0.000146154
-5.67222e-10
0.000146154
-5.77511e-10
0.000146154
-5.65125e-10
0.000146154
-5.38235e-10
0.000146154
-5.02103e-10
0.000146154
-4.59878e-10
0.000146154
-4.13525e-10
0.000146154
-3.64373e-10
0.000146154
-3.13404e-10
0.000146154
-2.61394e-10
0.000146154
-2.08986e-10
0.000146154
-1.56728e-10
0.000146154
-1.05096e-10
0.000146154
-5.45078e-11
0.000146154
-5.31536e-12
0.000146154
4.22014e-11
0.000146154
8.78458e-11
0.000146154
1.31504e-10
0.000146154
1.73132e-10
0.000146154
2.12737e-10
0.000146154
2.50351e-10
0.000146153
2.86012e-10
0.000146153
3.19746e-10
0.000146153
3.5157e-10
0.000146153
3.81473e-10
0.000146153
4.0947e-10
0.000146153
4.35543e-10
0.000146153
4.59752e-10
0.000146153
4.82145e-10
0.000146153
5.02792e-10
0.000146153
5.22212e-10
0.000146153
5.39991e-10
0.000146153
5.57893e-10
0.000146153
5.82697e-10
0.000146153
5.41475e-10
0.000146153
5.50114e-10
0.000146153
6.1903e-10
0.000146153
7.21035e-10
0.000146153
8.65298e-10
0.000146153
9.08417e-10
0.000146153
8.77447e-10
0.000146153
8.11004e-10
0.000146153
7.30725e-10
0.000146153
6.45994e-10
0.000146153
5.60634e-10
0.000146153
4.82968e-10
0.000146153
4.10714e-10
0.000146153
3.83677e-10
0.000146153
3.55694e-10
0.000146153
5.37326e-10
0.000146153
6.01588e-10
1.57059e-09
0.000150735
8.91558e-10
0.000150735
5.2538e-10
0.000150735
2.09525e-10
0.000150735
-1.91267e-11
0.000150735
-2.2074e-10
0.000150734
-3.44031e-10
0.000150734
-4.44918e-10
0.000150734
-5.05873e-10
0.000150734
-5.30957e-10
0.000150734
-5.30256e-10
0.000150734
-5.11852e-10
0.000150734
-4.81596e-10
0.000150734
-4.43276e-10
0.000150734
-3.99366e-10
0.000150734
-3.51572e-10
0.000150734
-3.01152e-10
0.000150734
-2.49081e-10
0.000150734
-1.96143e-10
0.000150734
-1.42986e-10
0.000150734
-9.01609e-11
0.000150734
-3.81403e-11
0.000150734
1.26746e-11
0.000150734
6.19613e-11
0.000150734
1.09485e-10
0.000150734
1.55096e-10
0.000150734
1.9872e-10
0.000150734
2.4034e-10
0.000150734
2.79964e-10
0.000150734
3.17615e-10
0.000150734
3.533e-10
0.000150734
3.87023e-10
0.000150734
4.18758e-10
0.000150734
4.48508e-10
0.000150734
4.76234e-10
0.000150734
5.01987e-10
0.000150734
5.25765e-10
0.000150734
5.47674e-10
0.000150733
5.67946e-10
0.000150733
5.86749e-10
0.000150733
6.03033e-10
0.000150733
6.29024e-10
0.000150733
5.8158e-10
0.000150733
5.66229e-10
0.000150733
5.96583e-10
0.000150733
6.59407e-10
0.000150733
7.98669e-10
0.000150733
8.69431e-10
0.000150733
8.71081e-10
0.000150733
8.28883e-10
0.000150733
7.63709e-10
0.000150733
6.87553e-10
0.000150733
6.06678e-10
0.000150733
5.30152e-10
0.000150733
4.573e-10
0.000150733
4.25515e-10
0.000150733
3.93581e-10
0.000150733
5.58161e-10
0.000150733
6.16517e-10
1.49942e-09
0.000155416
7.5773e-10
0.000155416
4.98882e-10
0.000155416
2.40435e-10
0.000155416
4.07996e-11
0.000155416
-1.4443e-10
0.000155416
-2.64935e-10
0.000155416
-3.70019e-10
0.000155416
-4.40665e-10
0.000155416
-4.77104e-10
0.000155416
-4.86689e-10
0.000155416
-4.76503e-10
0.000155416
-4.52376e-10
0.000155416
-4.18406e-10
0.000155416
-3.77428e-10
0.000155416
-3.31462e-10
0.000155416
-2.82015e-10
0.000155416
-2.30251e-10
0.000155416
-1.77097e-10
0.000155416
-1.23307e-10
0.000155416
-6.95089e-11
0.000155416
-1.62403e-11
0.000155416
3.6046e-11
0.000155416
8.69812e-11
0.000155416
1.36288e-10
0.000155416
1.83778e-10
0.000155416
2.29344e-10
0.000155416
2.72939e-10
0.000155415
3.14546e-10
0.000155415
3.54168e-10
0.000155415
3.91791e-10
0.000155415
4.27406e-10
0.000155415
4.60969e-10
0.000155415
4.92468e-10
0.000155415
5.21844e-10
0.000155415
5.49136e-10
0.000155415
5.74292e-10
0.000155415
5.9745e-10
0.000155415
6.1856e-10
0.000155415
6.38295e-10
0.000155415
6.53348e-10
0.000155415
6.79092e-10
0.000155415
6.31224e-10
0.000155415
6.01492e-10
0.000155415
6.04359e-10
0.000155415
6.33645e-10
0.000155415
7.5375e-10
0.000155415
8.34052e-10
0.000155415
8.58148e-10
0.000155415
8.37449e-10
0.000155415
7.88105e-10
0.000155415
7.22164e-10
0.000155415
6.47365e-10
0.000155415
5.7324e-10
0.000155415
5.00746e-10
0.000155415
4.6459e-10
0.000155415
4.28973e-10
0.000155415
5.74864e-10
0.000155415
6.25713e-10
1.42196e-09
0.000160202
6.18301e-10
0.000160202
4.54024e-10
0.000160202
2.475e-10
0.000160202
7.85855e-11
0.000160202
-8.69364e-11
0.000160202
-1.99395e-10
0.000160202
-3.02182e-10
0.000160202
-3.76562e-10
0.000160202
-4.2012e-10
0.000160201
-4.37519e-10
0.000160201
-4.34341e-10
0.000160201
-4.15876e-10
0.000160201
-3.86189e-10
0.000160201
-3.48274e-10
0.000160201
-3.04353e-10
0.000160201
-2.56122e-10
0.000160201
-2.04907e-10
0.000160201
-1.51762e-10
0.000160201
-9.75405e-11
0.000160201
-4.29506e-11
0.000160201
1.14095e-11
0.000160201
6.50333e-11
0.000160201
1.17504e-10
0.000160201
1.68502e-10
0.000160201
2.17797e-10
0.000160201
2.65247e-10
0.000160201
3.10772e-10
0.000160201
3.54329e-10
0.000160201
3.95895e-10
0.000160201
4.35439e-10
0.000160201
4.72932e-10
0.000160201
5.08311e-10
0.000160201
5.4155e-10
0.000160201
5.72567e-10
0.000160201
6.0139e-10
0.000160201
6.27913e-10
0.0001602
6.52301e-10
0.0001602
6.7424e-10
0.0001602
6.9481e-10
0.0001602
7.08989e-10
0.0001602
7.33581e-10
0.0001602
6.88104e-10
0.0001602
6.50787e-10
0.0001602
6.35338e-10
0.0001602
6.38423e-10
0.0001602
7.33996e-10
0.0001602
8.10928e-10
0.0001602
8.46755e-10
0.0001602
8.42112e-10
0.0001602
8.06954e-10
0.0001602
7.51362e-10
0.0001602
6.83367e-10
0.0001602
6.12404e-10
0.0001602
5.40917e-10
0.0001602
5.006e-10
0.0001602
4.6138e-10
0.0001602
5.87194e-10
0.0001602
6.28248e-10
1.3401e-09
0.000165094
4.77042e-10
0.000165094
3.96157e-10
0.000165094
2.3535e-10
0.000165094
9.62905e-11
0.000165094
-4.79345e-11
0.000165094
-1.48863e-10
0.000165094
-2.44525e-10
0.000165094
-3.1749e-10
0.000165094
-3.63821e-10
0.000165094
-3.8596e-10
0.000165093
-3.87865e-10
0.000165093
-3.73962e-10
0.000165093
-3.47982e-10
0.000165093
-3.12869e-10
0.000165093
-2.70916e-10
0.000165093
-2.23926e-10
0.000165093
-1.73338e-10
0.000165093
-1.20305e-10
0.000165093
-6.57656e-11
0.000165093
-1.04959e-11
0.000165093
4.48485e-11
0.000165093
9.97113e-11
0.000165093
1.53631e-10
0.000165093
2.06244e-10
0.000165093
2.57282e-10
0.000165093
3.06564e-10
0.000165093
3.53977e-10
0.000165093
3.99452e-10
0.000165093
4.42938e-10
0.000165093
4.84382e-10
0.000165093
5.23735e-10
0.000165093
5.60918e-10
0.000165093
5.95885e-10
0.000165093
6.28532e-10
0.000165092
6.58873e-10
0.000165092
6.86749e-10
0.000165092
7.12348e-10
0.000165092
7.3511e-10
0.000165092
7.56425e-10
0.000165092
7.70033e-10
0.000165092
7.92992e-10
0.000165092
7.51064e-10
0.000165092
7.106e-10
0.000165092
6.83836e-10
0.000165092
6.67955e-10
0.000165092
7.3895e-10
0.000165092
8.0485e-10
0.000165092
8.43327e-10
0.000165092
8.48319e-10
0.000165092
8.24036e-10
0.000165092
7.77528e-10
0.000165092
7.16092e-10
0.000165092
6.48422e-10
0.000165092
5.78167e-10
0.000165092
5.33641e-10
0.000165092
4.90647e-10
0.000165092
5.95157e-10
0.000165092
6.23679e-10
1.25477e-09
0.000170095
3.36272e-10
0.000170095
3.29405e-10
0.000170095
2.08366e-10
0.000170095
9.68305e-11
0.000170095
-2.59972e-11
0.000170095
-1.13446e-10
0.000170095
-1.98704e-10
0.000170095
-2.66182e-10
0.000170095
-3.11326e-10
0.000170095
-3.34974e-10
0.000170095
-3.3962e-10
0.000170095
-3.28701e-10
0.000170094
-3.05416e-10
0.000170094
-2.72478e-10
0.000170094
-2.32118e-10
0.000170094
-1.86161e-10
0.000170094
-1.36094e-10
0.000170094
-8.31336e-11
0.000170094
-2.82762e-11
0.000170094
2.76481e-11
0.000170094
8.39369e-11
0.000170094
1.39992e-10
0.000170094
1.95313e-10
0.000170094
2.49495e-10
0.000170094
3.02234e-10
0.000170094
3.53312e-10
0.000170094
4.02585e-10
0.000170094
4.49952e-10
0.000170094
4.95338e-10
0.000170094
5.38665e-10
0.000170094
5.79866e-10
0.000170094
6.18838e-10
0.000170094
6.55522e-10
0.000170093
6.89788e-10
0.000170093
7.21635e-10
0.000170093
7.50851e-10
0.000170093
7.77639e-10
0.000170093
8.01221e-10
0.000170093
8.23203e-10
0.000170093
8.36487e-10
0.000170093
8.57636e-10
0.000170093
8.19567e-10
0.000170093
7.7865e-10
0.000170093
7.45574e-10
0.000170093
7.16945e-10
0.000170093
7.66063e-10
0.000170093
8.17479e-10
0.000170093
8.52071e-10
0.000170093
8.60664e-10
0.000170093
8.43166e-10
0.000170093
8.03448e-10
0.000170093
7.4745e-10
0.000170093
6.8255e-10
0.000170093
6.13273e-10
0.000170093
5.64178e-10
0.000170093
5.16937e-10
0.000170093
5.98999e-10
0.000170093
6.11994e-10
1.16647e-09
0.000175207
1.9733e-10
0.000175207
2.56742e-10
0.000175207
1.70288e-10
0.000175207
8.33412e-11
0.000175207
-1.903e-11
0.000175207
-9.22712e-11
0.000175207
-1.65178e-10
0.000175207
-2.24231e-10
0.000175207
-2.64897e-10
0.000175207
-2.8702e-10
0.000175207
-2.91941e-10
0.000175207
-2.82151e-10
0.000175207
-2.60229e-10
0.000175207
-2.28537e-10
0.000175207
-1.89132e-10
0.000175207
-1.43773e-10
0.000175207
-9.39373e-11
0.000175207
-4.08576e-11
0.000175207
1.44396e-11
0.000175207
7.10918e-11
0.000175207
1.28365e-10
0.000175207
1.8563e-10
0.000175207
2.42353e-10
0.000175207
2.98098e-10
0.000175207
3.52527e-10
0.000175207
4.0539e-10
0.000175206
4.56511e-10
0.000175206
5.05759e-10
0.000175206
5.53035e-10
0.000175206
5.98238e-10
0.000175206
6.41277e-10
0.000175206
6.82033e-10
0.000175206
7.20425e-10
0.000175206
7.56301e-10
0.000175206
7.89644e-10
0.000175206
8.2019e-10
0.000175206
8.48149e-10
0.000175206
8.72551e-10
0.000175206
8.95138e-10
0.000175206
9.08294e-10
0.000175206
9.2765e-10
0.000175205
8.93359e-10
0.000175205
8.53509e-10
0.000175205
8.17487e-10
0.000175205
7.80993e-10
0.000175205
8.11979e-10
0.000175205
8.48338e-10
0.000175205
8.75083e-10
0.000175205
8.82419e-10
0.000175205
8.67635e-10
0.000175205
8.31886e-10
0.000175205
7.7956e-10
0.000175205
7.16342e-10
0.000175205
6.47323e-10
0.000175205
5.9297e-10
0.000175205
5.40701e-10
0.000175205
5.99192e-10
0.000175205
5.93542e-10
1.07563e-09
0.000180434
6.09337e-11
0.000180434
1.80214e-10
0.000180434
1.24085e-10
0.000180434
5.8764e-11
0.000180434
-2.46695e-11
0.000180434
-8.38468e-11
0.000180434
-1.43515e-10
0.000180434
-1.92248e-10
0.000180434
-2.2593e-10
0.000180434
-2.43924e-10
0.000180434
-2.46777e-10
0.000180434
-2.36186e-10
0.000180434
-2.1412e-10
0.000180434
-1.82531e-10
0.000180434
-1.43233e-10
0.000180434
-9.78465e-11
0.000180434
-4.77824e-11
0.000180434
5.75192e-12
0.000180434
6.17327e-11
0.000180434
1.19289e-10
0.000180434
1.77671e-10
0.000180434
2.36231e-10
0.000180433
2.94416e-10
0.000180433
3.51764e-10
0.000180433
4.0791e-10
0.000180433
4.62576e-10
0.000180433
5.15556e-10
0.000180433
5.66695e-10
0.000180433
6.15867e-10
0.000180433
6.62948e-10
0.000180433
7.07829e-10
0.000180433
7.50368e-10
0.000180433
7.90468e-10
0.000180433
8.27951e-10
0.000180433
8.62784e-10
0.000180433
8.94654e-10
0.000180433
9.23771e-10
0.000180433
9.48998e-10
0.000180432
9.72146e-10
0.000180432
9.85332e-10
0.000180432
1.00302e-09
0.000180432
9.72278e-10
0.000180432
9.34282e-10
0.000180432
8.9745e-10
0.000180432
8.56665e-10
0.000180432
8.73309e-10
0.000180432
8.95719e-10
0.000180432
9.12773e-10
0.000180432
9.1546e-10
0.000180432
8.99884e-10
0.000180432
8.65227e-10
0.000180432
8.14467e-10
0.000180432
7.51433e-10
0.000180432
6.81567e-10
0.000180432
6.20974e-10
0.000180432
5.62602e-10
0.000180432
5.96386e-10
0.000180432
5.68955e-10
9.82755e-10
0.000185778
-7.25607e-11
0.000185778
1.01178e-10
0.000185778
7.19965e-11
0.000185778
2.56298e-11
0.000185778
-4.05847e-11
0.000185778
-8.63798e-11
0.000185778
-1.32697e-10
0.000185778
-1.70082e-10
0.000185778
-1.95053e-10
0.000185778
-2.06861e-10
0.000185778
-2.05596e-10
0.000185778
-1.92366e-10
0.000185778
-1.68611e-10
0.000185778
-1.35879e-10
0.000185777
-9.57025e-11
0.000185777
-4.952e-11
0.000185777
1.36776e-12
0.000185777
5.58168e-11
0.000185777
1.12836e-10
0.000185777
1.71567e-10
0.000185777
2.31265e-10
0.000185777
2.91278e-10
0.000185777
3.51043e-10
0.000185777
4.10083e-10
0.000185777
4.68013e-10
0.000185777
5.24533e-10
0.000185777
5.79414e-10
0.000185777
6.32474e-10
0.000185777
6.83567e-10
0.000185777
7.32547e-10
0.000185777
7.79283e-10
0.000185776
8.23618e-10
0.000185776
8.65432e-10
0.000185776
9.04528e-10
0.000185776
9.40852e-10
0.000185776
9.74046e-10
0.000185776
1.00431e-09
0.000185776
1.03038e-09
0.000185776
1.05406e-09
0.000185776
1.06741e-09
0.000185776
1.08362e-09
0.000185776
1.05615e-09
0.000185776
1.02036e-09
0.000185775
9.83996e-10
0.000185775
9.4138e-10
0.000185775
9.47018e-10
0.000185775
9.57372e-10
0.000185775
9.64398e-10
0.000185775
9.60434e-10
0.000185775
9.41401e-10
0.000185775
9.0526e-10
0.000185775
8.53911e-10
0.000185775
7.89358e-10
0.000185775
7.17269e-10
0.000185775
6.4923e-10
0.000185775
5.83434e-10
0.000185775
5.91359e-10
0.000185775
5.39061e-10
8.8846e-10
0.00019124
-2.02998e-10
0.000191241
2.05183e-11
0.000191241
1.56497e-11
0.000191241
-1.40109e-11
0.000191241
-6.46673e-11
0.000191241
-9.80186e-11
0.000191241
-1.31378e-10
0.000191241
-1.57055e-10
0.000191241
-1.72268e-10
0.000191241
-1.76403e-10
0.000191241
-1.69362e-10
0.000191241
-1.51874e-10
0.00019124
-1.24971e-10
0.00019124
-8.98425e-11
0.00019124
-4.77444e-11
0.00019124
8.63917e-14
0.00019124
5.24876e-11
0.00019124
1.08406e-10
0.00019124
1.66908e-10
0.00019124
2.27169e-10
0.00019124
2.88465e-10
0.00019124
3.50153e-10
0.00019124
4.11672e-10
0.00019124
4.72541e-10
0.00019124
5.32365e-10
0.00019124
5.90825e-10
0.00019124
6.47675e-10
0.00019124
7.02713e-10
0.00019124
7.55772e-10
0.000191239
8.06687e-10
0.000191239
8.55309e-10
0.000191239
9.01462e-10
0.000191239
9.4501e-10
0.000191239
9.85732e-10
0.000191239
1.02356e-09
0.000191239
1.05808e-09
0.000191239
1.0895e-09
0.000191239
1.11642e-09
0.000191239
1.14063e-09
0.000191239
1.15424e-09
0.000191239
1.16921e-09
0.000191238
1.14476e-09
0.000191238
1.11129e-09
0.000191238
1.07609e-09
0.000191238
1.03324e-09
0.000191238
1.03057e-09
0.000191238
1.03096e-09
0.000191238
1.02854e-09
0.000191238
1.01705e-09
0.000191238
9.92783e-10
0.000191238
9.53092e-10
0.000191238
8.99182e-10
0.000191238
8.31388e-10
0.000191238
7.55573e-10
0.000191238
6.78748e-10
0.000191238
6.04032e-10
0.000191238
5.84946e-10
0.000191238
5.04816e-10
7.93483e-10
0.000196825
-3.30324e-10
0.000196825
-6.11894e-11
0.000196825
-4.38013e-11
0.000196825
-5.8567e-11
0.000196825
-9.5123e-11
0.000196825
-1.17019e-10
0.000196826
-1.38093e-10
0.000196825
-1.52164e-10
0.000196825
-1.57126e-10
0.000196825
-1.52623e-10
0.000196825
-1.38571e-10
0.000196825
-1.155e-10
0.000196825
-8.41622e-11
0.000196825
-4.54663e-11
0.000196825
-4.20646e-13
0.000196825
4.99346e-11
0.000196825
1.04586e-10
0.000196825
1.62587e-10
0.000196825
2.23079e-10
0.000196825
2.85288e-10
0.000196825
3.48522e-10
0.000196825
4.12162e-10
0.000196825
4.7566e-10
0.000196825
5.3854e-10
0.000196825
6.00404e-10
0.000196825
6.60925e-10
0.000196825
7.19842e-10
0.000196824
7.76937e-10
0.000196824
8.32028e-10
0.000196824
8.84933e-10
0.000196824
9.35486e-10
0.000196824
9.83494e-10
0.000196824
1.02881e-09
0.000196824
1.07118e-09
0.000196824
1.11052e-09
0.000196824
1.1464e-09
0.000196824
1.17897e-09
0.000196824
1.20677e-09
0.000196824
1.23151e-09
0.000196823
1.2455e-09
0.000196823
1.25944e-09
0.000196823
1.23777e-09
0.000196823
1.20662e-09
0.000196823
1.17294e-09
0.000196823
1.13081e-09
0.000196823
1.12193e-09
0.000196823
1.11429e-09
0.000196823
1.10348e-09
0.000196823
1.08438e-09
0.000196823
1.05389e-09
0.000196823
1.00917e-09
0.000196822
9.51059e-10
0.000196822
8.78442e-10
0.000196822
7.97396e-10
0.000196822
7.10411e-10
0.000196822
6.25188e-10
0.000196822
5.77982e-10
0.000196822
4.67228e-10
6.98641e-10
0.000202535
-4.54525e-10
0.000202535
-1.43555e-10
0.000202535
-1.05542e-10
0.000202535
-1.06838e-10
0.000202535
-1.30492e-10
0.000202535
-1.41841e-10
0.000202535
-1.51409e-10
0.000202535
-1.54262e-10
0.000202535
-1.48882e-10
0.000202535
-1.35223e-10
0.000202535
-1.13327e-10
0.000202535
-8.36674e-11
0.000202535
-4.68375e-11
0.000202535
-3.54744e-12
0.000202535
4.53922e-11
0.000202535
9.91159e-11
0.000202535
1.56754e-10
0.000202535
2.17472e-10
0.000202534
2.80492e-10
0.000202534
3.45104e-10
0.000202534
4.10659e-10
0.000202534
4.76569e-10
0.000202534
5.4231e-10
0.000202534
6.0742e-10
0.000202534
6.71503e-10
0.000202534
7.34233e-10
0.000202534
7.9534e-10
0.000202534
8.54596e-10
0.000202534
9.11804e-10
0.000202534
9.6677e-10
0.000202534
1.01931e-09
0.000202534
1.06923e-09
0.000202533
1.11634e-09
0.000202533
1.1604e-09
0.000202533
1.20129e-09
0.000202533
1.23854e-09
0.000202533
1.27229e-09
0.000202533
1.301e-09
0.000202533
1.32629e-09
0.000202533
1.34075e-09
0.000202533
1.35389e-09
0.000202533
1.33482e-09
0.000202532
1.30592e-09
0.000202532
1.27389e-09
0.000202532
1.23303e-09
0.000202532
1.21946e-09
0.000202532
1.20544e-09
0.000202532
1.18742e-09
0.000202532
1.16113e-09
0.000202532
1.12406e-09
0.000202532
1.07338e-09
0.000202532
1.00982e-09
0.000202532
9.31039e-10
0.000202532
8.43366e-10
0.000202532
7.44908e-10
0.000202532
6.4758e-10
0.000202532
5.7123e-10
0.000202532
4.27297e-10
6.04779e-10
0.000208371
-5.75602e-10
0.000208371
-2.26296e-10
0.000208371
-1.68991e-10
0.000208371
-1.5793e-10
0.000208371
-1.69623e-10
0.000208371
-1.71182e-10
0.000208371
-1.70014e-10
0.000208371
-1.62179e-10
0.000208371
-1.46643e-10
0.000208371
-1.23647e-10
0.000208371
-9.34262e-11
0.000208371
-5.64855e-11
0.000208371
-1.33572e-11
0.000208371
3.53678e-11
0.000208371
8.90214e-11
0.000208371
1.46879e-10
0.000208371
2.08198e-10
0.000208371
2.72249e-10
0.000208371
3.3834e-10
0.000208371
4.05822e-10
0.000208371
4.741e-10
0.000208371
5.42623e-10
0.000208371
6.10896e-10
0.000208371
6.78478e-10
0.000208371
7.44985e-10
0.000208371
8.10095e-10
0.000208371
8.73535e-10
0.00020837
9.35072e-10
0.00020837
9.945e-10
0.00020837
1.05161e-09
0.00020837
1.10622e-09
0.00020837
1.1581e-09
0.00020837
1.20707e-09
0.00020837
1.25286e-09
0.00020837
1.29533e-09
0.00020837
1.33398e-09
0.00020837
1.36894e-09
0.00020837
1.3986e-09
0.000208369
1.42448e-09
0.000208369
1.4395e-09
0.000208369
1.45205e-09
0.000208369
1.43541e-09
0.000208369
1.40868e-09
0.000208369
1.37832e-09
0.000208369
1.33898e-09
0.000208369
1.32184e-09
0.000208369
1.30276e-09
0.000208369
1.27868e-09
0.000208368
1.24585e-09
0.000208368
1.20227e-09
0.000208368
1.14515e-09
0.000208368
1.0753e-09
0.000208368
9.89306e-10
0.000208368
8.93794e-10
0.000208368
7.82685e-10
0.000208368
6.71723e-10
0.000208368
5.65345e-10
0.000208368
3.85964e-10
5.12732e-10
0.000214338
-6.93552e-10
0.000214338
-3.09185e-10
0.000214338
-2.33715e-10
0.000214338
-2.11175e-10
0.000214338
-2.11623e-10
0.000214338
-2.03982e-10
0.000214338
-1.92767e-10
0.000214338
-1.74816e-10
0.000214338
-1.49465e-10
0.000214338
-1.172e-10
0.000214338
-7.84537e-11
0.000214338
-3.38188e-11
0.000214338
1.61665e-11
0.000214338
7.09653e-11
0.000214338
1.29998e-10
0.000214338
1.92644e-10
0.000214338
2.5826e-10
0.000214338
3.26213e-10
0.000214338
3.95885e-10
0.000214338
4.66695e-10
0.000214338
5.38096e-10
0.000214337
6.0958e-10
0.000214337
6.80685e-10
0.000214337
7.50995e-10
0.000214337
8.20144e-10
0.000214337
8.87819e-10
0.000214337
9.53751e-10
0.000214337
1.0177e-09
0.000214337
1.07946e-09
0.000214337
1.13882e-09
0.000214337
1.19557e-09
0.000214337
1.24949e-09
0.000214337
1.30038e-09
0.000214336
1.34795e-09
0.000214336
1.39204e-09
0.000214336
1.43214e-09
0.000214336
1.46833e-09
0.000214336
1.49899e-09
0.000214336
1.5255e-09
0.000214336
1.54117e-09
0.000214336
1.55334e-09
0.000214336
1.53899e-09
0.000214336
1.51436e-09
0.000214335
1.48563e-09
0.000214335
1.44788e-09
0.000214335
1.42795e-09
0.000214335
1.40483e-09
0.000214335
1.37568e-09
0.000214335
1.33706e-09
0.000214335
1.28728e-09
0.000214335
1.22363e-09
0.000214335
1.14698e-09
0.000214335
1.05302e-09
0.000214335
9.48681e-10
0.000214335
8.23932e-10
0.000214335
6.97939e-10
0.000214335
5.60829e-10
0.000214335
3.4407e-10
4.23276e-10
0.000220437
-8.0836e-10
0.000220437
-3.92021e-10
0.000220437
-2.99372e-10
0.000220437
-2.66062e-10
0.000220437
-2.55804e-10
0.000220437
-2.3939e-10
0.000220437
-2.18705e-10
0.000220437
-1.91185e-10
0.000220437
-1.56438e-10
0.000220437
-1.15127e-10
0.000220437
-6.78681e-11
0.000220437
-1.5358e-11
0.000220437
4.18183e-11
0.000220437
1.0313e-10
0.000220437
1.6804e-10
0.000220437
2.35993e-10
0.000220437
3.06424e-10
0.000220437
3.78771e-10
0.000220437
4.52485e-10
0.000220437
5.27043e-10
0.000220437
6.01945e-10
0.000220437
6.76726e-10
0.000220437
7.50958e-10
0.000220436
8.24253e-10
0.000220436
8.96266e-10
0.000220436
9.66696e-10
0.000220436
1.03528e-09
0.000220436
1.10179e-09
0.000220436
1.16601e-09
0.000220436
1.22771e-09
0.000220436
1.2867e-09
0.000220436
1.34273e-09
0.000220436
1.3956e-09
0.000220436
1.445e-09
0.000220436
1.49077e-09
0.000220435
1.53237e-09
0.000220435
1.56983e-09
0.000220435
1.60154e-09
0.000220435
1.62873e-09
0.000220435
1.64513e-09
0.000220435
1.65713e-09
0.000220435
1.64494e-09
0.000220435
1.62233e-09
0.000220435
1.59517e-09
0.000220434
1.559e-09
0.000220434
1.53685e-09
0.000220434
1.51044e-09
0.000220434
1.47704e-09
0.000220434
1.43334e-09
0.000220434
1.37781e-09
0.000220434
1.30773e-09
0.000220434
1.22408e-09
0.000220434
1.12168e-09
0.000220434
1.00775e-09
0.000220434
8.68592e-10
0.000220434
7.26349e-10
0.000220434
5.58022e-10
0.000220434
3.02333e-10
3.37104e-10
0.000226671
-9.19998e-10
0.000226671
-4.74607e-10
0.000226672
-3.6567e-10
0.000226672
-3.22179e-10
0.000226672
-3.01628e-10
0.000226672
-2.76735e-10
0.000226672
-2.47041e-10
0.000226672
-2.1044e-10
0.000226672
-1.66728e-10
0.000226672
-1.16684e-10
0.000226672
-6.10718e-11
0.000226672
-6.86085e-13
0.000226672
6.3824e-11
0.000226672
1.31903e-10
0.000226672
2.03023e-10
0.000226672
2.76665e-10
0.000226672
3.5231e-10
0.000226671
4.29451e-10
0.000226671
5.07596e-10
0.000226671
5.86267e-10
0.000226671
6.65009e-10
0.000226671
7.43395e-10
0.000226671
8.21029e-10
0.000226671
8.97552e-10
0.000226671
9.72641e-10
0.000226671
1.04601e-09
0.000226671
1.11742e-09
0.000226671
1.18662e-09
0.000226671
1.25341e-09
0.000226671
1.31757e-09
0.00022667
1.37888e-09
0.00022667
1.4371e-09
0.00022667
1.49202e-09
0.00022667
1.54332e-09
0.00022667
1.59082e-09
0.00022667
1.63395e-09
0.00022667
1.67273e-09
0.00022667
1.70555e-09
0.00022667
1.73348e-09
0.00022667
1.75069e-09
0.000226669
1.76271e-09
0.000226669
1.75258e-09
0.000226669
1.73192e-09
0.000226669
1.70625e-09
0.000226669
1.6716e-09
0.000226669
1.64763e-09
0.000226669
1.6185e-09
0.000226669
1.58149e-09
0.000226669
1.53333e-09
0.000226669
1.47254e-09
0.000226668
1.39631e-09
0.000226668
1.30562e-09
0.000226668
1.19454e-09
0.000226668
1.0705e-09
0.000226668
9.16387e-10
0.000226668
7.56883e-10
0.000226668
5.57096e-10
0.000226668
2.61338e-10
2.54804e-10
0.000233044
-1.02842e-09
0.000233044
-5.56748e-10
0.000233044
-4.32343e-10
0.000233044
-3.7918e-10
0.000233044
-3.48659e-10
0.000233044
-3.15481e-10
0.000233045
-2.77137e-10
0.000233045
-2.31869e-10
0.000233045
-1.79603e-10
0.000233045
-1.2118e-10
0.000233045
-5.74651e-11
0.000233045
1.0665e-11
0.000233045
8.24979e-11
0.000233044
1.5744e-10
0.000233044
2.34951e-10
0.000233044
3.14521e-10
0.000233044
3.95659e-10
0.000233044
4.77894e-10
0.000233044
5.60772e-10
0.000233044
6.43853e-10
0.000233044
7.26719e-10
0.000233044
8.08974e-10
0.000233044
8.90253e-10
0.000233044
9.70223e-10
0.000233044
1.04858e-09
0.000233044
1.12507e-09