/*--------------------------------*- C++ -*----------------------------------*\
  =========                 |
  \\      /  F ield         | OpenFOAM: The Open Source CFD Toolbox
   \\    /   O peration     | Website:  https://openfoam.org
    \\  /    A nd           | Version:  7
     \\/     M anipulation  |
\*---------------------------------------------------------------------------*/
FoamFile
{
    version     2.0;
    format      ascii;
    class       volScalarField;
    location    "96000";
    object      k;
}
// * * * * * * * * * * * * * * * * * * * * * * * * * * * * * * * * * * * * * //

dimensions      [0 2 -2 0 0 0 0];

internalField   nonuniform List<scalar> 
600
(
8.61893e-13
2.5877e-11
1.83647e-10
6.69292e-10
1.73617e-09
3.68634e-09
6.86881e-09
1.16803e-08
1.85672e-08
2.80276e-08
4.06152e-08
5.69413e-08
7.76795e-08
1.03569e-07
1.35419e-07
1.74113e-07
2.20612e-07
2.75963e-07
3.413e-07
4.17851e-07
5.06942e-07
6.10006e-07
7.28583e-07
8.64328e-07
1.01902e-06
1.19455e-06
1.39296e-06
1.6164e-06
1.86717e-06
2.1477e-06
2.46057e-06
2.80848e-06
3.19427e-06
3.62091e-06
4.09147e-06
4.60916e-06
5.17724e-06
5.79908e-06
6.47805e-06
7.21758e-06
8.02104e-06
8.89178e-06
9.83302e-06
1.08478e-05
1.1939e-05
1.31093e-05
1.43608e-05
1.56954e-05
1.71146e-05
1.86193e-05
2.02098e-05
2.18858e-05
2.36466e-05
2.54906e-05
2.74155e-05
2.94186e-05
3.14963e-05
3.36446e-05
3.58588e-05
3.81339e-05
4.04642e-05
4.2844e-05
4.52671e-05
4.77272e-05
5.02179e-05
5.27328e-05
5.52657e-05
5.78104e-05
6.03608e-05
6.29114e-05
6.54566e-05
6.79914e-05
7.05111e-05
7.30112e-05
7.54879e-05
7.79375e-05
8.03568e-05
8.2743e-05
8.50936e-05
8.74077e-05
8.96857e-05
9.19265e-05
9.41285e-05
9.62902e-05
9.84104e-05
0.000100488
0.000102522
0.000104511
0.000106456
0.000108355
0.000110209
0.000112016
0.000113778
0.000115493
0.000117163
0.000118788
0.000120367
0.000121901
0.000123392
0.000124838
0.000126241
0.000127602
0.00012892
0.000130198
0.000131435
0.000132632
0.00013379
0.00013491
0.000135993
0.000137039
0.000138049
0.000139024
0.000139965
0.000140873
0.000141747
0.00014259
0.000143402
0.000144183
0.000144935
0.000145658
0.000146353
0.00014702
0.00014766
0.000148274
0.000148862
0.000149426
0.000149965
0.00015048
0.000150973
0.000151442
0.00015189
0.000152316
0.000152721
0.000153105
0.000153469
0.000153814
0.000154139
0.000154446
0.000154734
0.000155004
0.000155257
0.000155492
0.00015571
0.000155912
0.000156097
0.000156267
0.000156421
0.000156559
0.000156682
0.000156791
0.000156884
0.000156964
0.000157029
0.00015708
0.000157117
0.000157141
0.000157151
0.000157149
0.000157133
0.000157104
0.000157062
0.000157008
0.000156941
0.000156862
0.000156771
0.000156667
0.000156551
0.000156423
0.000156284
0.000156132
0.000155969
0.000155794
0.000155607
0.000155409
0.000155199
0.000154978
0.000154745
0.0001545
0.000154244
0.000153977
0.000153698
0.000153408
0.000153106
0.000152793
0.000152469
0.000152132
0.000151785
0.000151426
0.000151055
0.000150673
0.000150279
0.000149873
0.000149455
0.000149026
0.000148585
0.000148132
0.000147667
0.00014719
0.000146701
0.000146199
0.000145685
0.000145159
0.000144621
0.000144069
0.000143505
0.000142929
0.000142339
0.000141736
0.00014112
0.000140491
0.000139849
0.000139193
0.000138523
0.00013784
0.000137143
0.000136432
0.000135707
0.000134968
0.000134216
0.000133449
0.000132669
0.000131875
0.000131069
0.00013025
0.000129419
0.000128577
0.000127724
0.000126861
0.000125987
0.000125103
0.000124208
0.000123301
0.000122382
0.000121451
0.000120509
0.000119555
0.00011859
0.000117613
0.000116626
0.000115627
0.000114617
0.000113597
0.000112565
0.000111524
0.000110472
0.00010941
0.000108338
0.000107257
0.000106166
0.000105067
0.00010396
0.000102844
0.00010172
0.000100589
9.9452e-05
9.83082e-05
9.71587e-05
9.60041e-05
9.48451e-05
9.36822e-05
9.25162e-05
9.13479e-05
9.01781e-05
8.90075e-05
8.78373e-05
8.66682e-05
8.55013e-05
8.43377e-05
8.31786e-05
8.2025e-05
8.08784e-05
7.97399e-05
7.86109e-05
7.7493e-05
7.63876e-05
7.52964e-05
7.42209e-05
7.31629e-05
7.21242e-05
7.11067e-05
7.01123e-05
6.91431e-05
6.82012e-05
6.72887e-05
6.64078e-05
6.55611e-05
6.47507e-05
6.39793e-05
6.32495e-05
6.25637e-05
6.19249e-05
6.13359e-05
6.07994e-05
6.03186e-05
5.98965e-05
5.95362e-05
5.92411e-05
5.90146e-05
5.88599e-05
5.87808e-05
5.87808e-05
5.88599e-05
5.90146e-05
5.92411e-05
5.95362e-05
5.98965e-05
6.03186e-05
6.07994e-05
6.13359e-05
6.19249e-05
6.25637e-05
6.32495e-05
6.39793e-05
6.47507e-05
6.55611e-05
6.64078e-05
6.72887e-05
6.82012e-05
6.91431e-05
7.01123e-05
7.11067e-05
7.21242e-05
7.31629e-05
7.42209e-05
7.52964e-05
7.63876e-05
7.7493e-05
7.86109e-05
7.97399e-05
8.08784e-05
8.2025e-05
8.31786e-05
8.43377e-05
8.55013e-05
8.66682e-05
8.78373e-05
8.90075e-05
9.01781e-05
9.13479e-05
9.25162e-05
9.36822e-05
9.48451e-05
9.60041e-05
9.71587e-05
9.83082e-05
9.9452e-05
0.000100589
0.00010172
0.000102844
0.00010396
0.000105067
0.000106166
0.000107257
0.000108338
0.00010941
0.000110472
0.000111524
0.000112565
0.000113597
0.000114617
0.000115627
0.000116626
0.000117613
0.00011859
0.000119555
0.000120509
0.000121451
0.000122382
0.000123301
0.000124208
0.000125103
0.000125987
0.000126861
0.000127724
0.000128577
0.000129419
0.00013025
0.000131069
0.000131875
0.000132669
0.000133449
0.000134216
0.000134968
0.000135707
0.000136432
0.000137143
0.00013784
0.000138523
0.000139193
0.000139849
0.000140491
0.00014112
0.000141736
0.000142339
0.000142929
0.000143505
0.000144069
0.000144621
0.000145159
0.000145685
0.000146199
0.000146701
0.00014719
0.000147667
0.000148132
0.000148585
0.000149026
0.000149455
0.000149873
0.000150279
0.000150673
0.000151055
0.000151426
0.000151785
0.000152132
0.000152469
0.000152793
0.000153106
0.000153408
0.000153698
0.000153977
0.000154244
0.0001545
0.000154745
0.000154978
0.000155199
0.000155409
0.000155607
0.000155794
0.000155969
0.000156132
0.000156284
0.000156423
0.000156551
0.000156667
0.000156771
0.000156862
0.000156941
0.000157008
0.000157062
0.000157104
0.000157133
0.000157149
0.000157151
0.000157141
0.000157117
0.00015708
0.000157029
0.000156964
0.000156884
0.000156791
0.000156682
0.000156559
0.000156421
0.000156267
0.000156097
0.000155912
0.00015571
0.000155492
0.000155257
0.000155004
0.000154734
0.000154446
0.000154139
0.000153814
0.000153469
0.000153105
0.000152721
0.000152316
0.00015189
0.000151442
0.000150973
0.00015048
0.000149965
0.000149426
0.000148862
0.000148274
0.00014766
0.00014702
0.000146353
0.000145658
0.000144935
0.000144183
0.000143402
0.00014259
0.000141747
0.000140873
0.000139965
0.000139024
0.000138049
0.000137039
0.000135993
0.00013491
0.00013379
0.000132632
0.000131435
0.000130198
0.00012892
0.000127602
0.000126241
0.000124838
0.000123392
0.000121901
0.000120367
0.000118788
0.000117163
0.000115493
0.000113778
0.000112016
0.000110209
0.000108355
0.000106456
0.000104511
0.000102522
0.000100488
9.84104e-05
9.62902e-05
9.41285e-05
9.19265e-05
8.96857e-05
8.74077e-05
8.50936e-05
8.2743e-05
8.03568e-05
7.79375e-05
7.54879e-05
7.30112e-05
7.05111e-05
6.79914e-05
6.54566e-05
6.29114e-05
6.03608e-05
5.78104e-05
5.52657e-05
5.27328e-05
5.02179e-05
4.77272e-05
4.52671e-05
4.2844e-05
4.04643e-05
3.81339e-05
3.58588e-05
3.36446e-05
3.14963e-05
2.94186e-05
2.74155e-05
2.54906e-05
2.36466e-05
2.18858e-05
2.02098e-05
1.86193e-05
1.71146e-05
1.56954e-05
1.43608e-05
1.31093e-05
1.1939e-05
1.08478e-05
9.83302e-06
8.89178e-06
8.02104e-06
7.21758e-06
6.47805e-06
5.79908e-06
5.17724e-06
4.60916e-06
4.09147e-06
3.62091e-06
3.19427e-06
2.80848e-06
2.46057e-06
2.1477e-06
1.86717e-06
1.6164e-06
1.39296e-06
1.19455e-06
1.01902e-06
8.64328e-07
7.28583e-07
6.10006e-07
5.06942e-07
4.17851e-07
3.413e-07
2.75963e-07
2.20612e-07
1.74113e-07
1.35419e-07
1.03569e-07
7.76796e-08
5.69413e-08
4.06151e-08
2.80277e-08
1.85672e-08
1.16803e-08
6.86882e-09
3.68633e-09
1.73616e-09
6.69292e-10
1.83647e-10
2.5877e-11
8.61892e-13
)
;

boundaryField
{
    bottomWall
    {
        type            kqRWallFunction;
        value           uniform 8.61893e-13;
    }
    topWall
    {
        type            kqRWallFunction;
        value           uniform 8.61892e-13;
    }
    sides1_half0
    {
        type            empty;
    }
    sides1_half1
    {
        type            empty;
    }
    sides2_half0
    {
        type            empty;
    }
    sides2_half1
    {
        type            empty;
    }
    inout1_half0
    {
        type            cyclic;
    }
    inout1_half1
    {
        type            cyclic;
    }
    inout2_half0
    {
        type            cyclic;
    }
    inout2_half1
    {
        type            cyclic;
    }
}


// ************************************************************************* //
