/*--------------------------------*- C++ -*----------------------------------*\
  =========                 |
  \\      /  F ield         | OpenFOAM: The Open Source CFD Toolbox
   \\    /   O peration     | Website:  https://openfoam.org
    \\  /    A nd           | Version:  7
     \\/     M anipulation  |
\*---------------------------------------------------------------------------*/
FoamFile
{
    version     2.0;
    format      ascii;
    class       volScalarField;
    location    "96000";
    object      nut;
}
// * * * * * * * * * * * * * * * * * * * * * * * * * * * * * * * * * * * * * //

dimensions      [0 2 -1 0 0 0 0];

internalField   nonuniform List<scalar> 
600
(
3.20876e-18
5.6372e-16
1.19098e-14
9.25379e-14
4.25049e-13
1.42491e-12
3.88235e-12
9.14099e-12
1.93183e-11
3.7574e-11
6.84322e-11
1.18166e-10
1.95254e-10
3.10912e-10
4.79717e-10
7.20334e-10
1.05635e-09
1.51722e-09
2.13941e-09
2.96757e-09
4.056e-09
5.47022e-09
7.28872e-09
9.60497e-09
1.25295e-08
1.61925e-08
2.07462e-08
2.63675e-08
3.32616e-08
4.16645e-08
5.18466e-08
6.41163e-08
7.8823e-08
9.6361e-08
1.17173e-07
1.41751e-07
1.70644e-07
2.04455e-07
2.43847e-07
2.8954e-07
3.42315e-07
4.03011e-07
4.72525e-07
5.51805e-07
6.4185e-07
7.43699e-07
8.5843e-07
9.87147e-07
1.13097e-06
1.29103e-06
1.46844e-06
1.66432e-06
1.87975e-06
2.11577e-06
2.37336e-06
2.65348e-06
2.95699e-06
3.28468e-06
3.63729e-06
4.01544e-06
4.4197e-06
4.85055e-06
5.3084e-06
5.79357e-06
6.30633e-06
6.84687e-06
7.41532e-06
8.01178e-06
8.63629e-06
9.28884e-06
9.96941e-06
1.06779e-05
1.14143e-05
1.21785e-05
1.29703e-05
1.37896e-05
1.46362e-05
1.55101e-05
1.64111e-05
1.72844e-05
1.81661e-05
1.90732e-05
2.00088e-05
2.09737e-05
2.19684e-05
2.29932e-05
2.40486e-05
2.51349e-05
2.62524e-05
2.74016e-05
2.85827e-05
2.97961e-05
3.10421e-05
3.23211e-05
3.36333e-05
3.49791e-05
3.63588e-05
3.77727e-05
3.92211e-05
4.07043e-05
4.22227e-05
4.37764e-05
4.53658e-05
4.69912e-05
4.86523e-05
5.03495e-05
5.20834e-05
5.38541e-05
5.56621e-05
5.75075e-05
5.93906e-05
6.13116e-05
6.32707e-05
6.52682e-05
6.73044e-05
6.93793e-05
7.14933e-05
7.36465e-05
7.58392e-05
7.80716e-05
8.03439e-05
8.26563e-05
8.50089e-05
8.74021e-05
8.9836e-05
9.23107e-05
9.48266e-05
9.73837e-05
9.99823e-05
0.000102622
0.000105305
0.000108029
0.000110795
0.000113603
0.000116454
0.000119348
0.000122285
0.000125264
0.000128287
0.000131353
0.000134462
0.000137615
0.000140812
0.000144052
0.000147337
0.000150665
0.000154038
0.000157455
0.000160916
0.000164422
0.000167973
0.000171568
0.000175208
0.000178893
0.000182623
0.000186398
0.000190218
0.000194083
0.000197993
0.000201948
0.000205949
0.000209995
0.000214085
0.000218222
0.000222403
0.00022663
0.000230901
0.000235218
0.00023958
0.000243987
0.000248439
0.000252936
0.000257478
0.000262064
0.000266695
0.00027137
0.00027609
0.000280853
0.000285661
0.000290512
0.000295407
0.000300346
0.000305328
0.000310352
0.00031542
0.00032053
0.000325682
0.000330876
0.000336111
0.000341388
0.000346706
0.000352064
0.000357463
0.000362901
0.000368379
0.000373896
0.000379452
0.000385045
0.000390677
0.000396345
0.000402051
0.000407792
0.00041357
0.000419382
0.00042523
0.000431111
0.000437027
0.000442977
0.000448962
0.000454982
0.000461038
0.000467133
0.000473271
0.000479457
0.000485698
0.000492006
0.000498396
0.000504885
0.000511498
0.000518266
0.000525221
0.000532403
0.00053985
0.000547594
0.000555648
0.000563992
0.000572543
0.00058112
0.000589391
0.00059681
0.000603891
0.000610997
0.000618126
0.000625277
0.00063245
0.000639642
0.000646853
0.000654081
0.000661326
0.000668586
0.00067586
0.000683146
0.000690444
0.000697752
0.000705068
0.000712392
0.000719723
0.000727058
0.000734396
0.000741736
0.000749077
0.000756418
0.000763755
0.000771089
0.000778418
0.00078574
0.000793053
0.000800355
0.000807646
0.000814923
0.000822183
0.000829426
0.000836649
0.00084385
0.000851025
0.000858174
0.000865292
0.000872376
0.000879425
0.000886432
0.000893396
0.000900312
0.000907174
0.000913978
0.000920717
0.000927387
0.000933979
0.000940486
0.0009469
0.000953211
0.000959409
0.000965483
0.00097142
0.000977208
0.000982831
0.000988273
0.000993517
0.000998546
0.00100334
0.00100787
0.00101213
0.00101608
0.0010197
0.00102296
0.00102584
0.00102831
0.00103035
0.00103192
0.00103299
0.00103354
0.00103354
0.00103299
0.00103192
0.00103035
0.00102831
0.00102584
0.00102296
0.0010197
0.00101608
0.00101213
0.00100787
0.00100334
0.000998546
0.000993517
0.000988273
0.000982831
0.000977208
0.00097142
0.000965483
0.000959409
0.000953211
0.0009469
0.000940486
0.000933979
0.000927387
0.000920717
0.000913978
0.000907174
0.000900312
0.000893396
0.000886432
0.000879425
0.000872376
0.000865292
0.000858174
0.000851025
0.00084385
0.000836649
0.000829426
0.000822183
0.000814923
0.000807646
0.000800355
0.000793053
0.00078574
0.000778418
0.000771089
0.000763755
0.000756418
0.000749077
0.000741736
0.000734396
0.000727058
0.000719723
0.000712392
0.000705068
0.000697752
0.000690444
0.000683146
0.00067586
0.000668586
0.000661326
0.000654081
0.000646853
0.000639642
0.00063245
0.000625277
0.000618126
0.000610997
0.000603891
0.00059681
0.000589391
0.00058112
0.000572543
0.000563992
0.000555648
0.000547594
0.00053985
0.000532403
0.000525221
0.000518266
0.000511498
0.000504885
0.000498396
0.000492006
0.000485698
0.000479457
0.000473271
0.000467133
0.000461038
0.000454982
0.000448962
0.000442977
0.000437027
0.000431111
0.00042523
0.000419382
0.00041357
0.000407792
0.000402051
0.000396345
0.000390677
0.000385045
0.000379452
0.000373896
0.000368379
0.000362901
0.000357463
0.000352064
0.000346706
0.000341388
0.000336111
0.000330876
0.000325682
0.00032053
0.00031542
0.000310352
0.000305328
0.000300346
0.000295407
0.000290512
0.000285661
0.000280853
0.00027609
0.00027137
0.000266695
0.000262064
0.000257478
0.000252936
0.000248439
0.000243987
0.00023958
0.000235218
0.000230901
0.00022663
0.000222403
0.000218222
0.000214085
0.000209995
0.000205949
0.000201948
0.000197993
0.000194083
0.000190218
0.000186398
0.000182623
0.000178893
0.000175208
0.000171568
0.000167973
0.000164422
0.000160916
0.000157455
0.000154038
0.000150665
0.000147337
0.000144052
0.000140812
0.000137615
0.000134462
0.000131353
0.000128287
0.000125264
0.000122285
0.000119348
0.000116454
0.000113603
0.000110795
0.000108029
0.000105305
0.000102622
9.99823e-05
9.73837e-05
9.48266e-05
9.23107e-05
8.9836e-05
8.74021e-05
8.50089e-05
8.26563e-05
8.03439e-05
7.80716e-05
7.58392e-05
7.36465e-05
7.14933e-05
6.93793e-05
6.73044e-05
6.52683e-05
6.32707e-05
6.13116e-05
5.93906e-05
5.75075e-05
5.56621e-05
5.38541e-05
5.20834e-05
5.03495e-05
4.86523e-05
4.69912e-05
4.53658e-05
4.37764e-05
4.22227e-05
4.07043e-05
3.92211e-05
3.77727e-05
3.63588e-05
3.49791e-05
3.36333e-05
3.23211e-05
3.10421e-05
2.97961e-05
2.85827e-05
2.74016e-05
2.62524e-05
2.51349e-05
2.40486e-05
2.29932e-05
2.19684e-05
2.09737e-05
2.00088e-05
1.90732e-05
1.81661e-05
1.72844e-05
1.64111e-05
1.55101e-05
1.46362e-05
1.37896e-05
1.29703e-05
1.21785e-05
1.14143e-05
1.06779e-05
9.96941e-06
9.28884e-06
8.63629e-06
8.01178e-06
7.41532e-06
6.84686e-06
6.30633e-06
5.79357e-06
5.3084e-06
4.85055e-06
4.4197e-06
4.01544e-06
3.63729e-06
3.28468e-06
2.95699e-06
2.65348e-06
2.37336e-06
2.11577e-06
1.87975e-06
1.66432e-06
1.46844e-06
1.29103e-06
1.13097e-06
9.87147e-07
8.5843e-07
7.43699e-07
6.41849e-07
5.51805e-07
4.72525e-07
4.03011e-07
3.42315e-07
2.8954e-07
2.43847e-07
2.04455e-07
1.70644e-07
1.41751e-07
1.17173e-07
9.6361e-08
7.8823e-08
6.41163e-08
5.18466e-08
4.16645e-08
3.32616e-08
2.63675e-08
2.07462e-08
1.61925e-08
1.25295e-08
9.60497e-09
7.28872e-09
5.47022e-09
4.056e-09
2.96757e-09
2.13941e-09
1.51722e-09
1.05635e-09
7.20334e-10
4.79717e-10
3.10912e-10
1.95255e-10
1.18166e-10
6.84321e-11
3.7574e-11
1.93184e-11
9.141e-12
3.88235e-12
1.42491e-12
4.25048e-13
9.25378e-14
1.19098e-14
5.6372e-16
3.20876e-18
)
;

boundaryField
{
    bottomWall
    {
        type            nutUWallFunction;
        Cmu             0.09;
        kappa           0.41;
        E               9.8;
        value           uniform 0;
    }
    topWall
    {
        type            nutUWallFunction;
        Cmu             0.09;
        kappa           0.41;
        E               9.8;
        value           uniform 0;
    }
    sides1_half0
    {
        type            empty;
    }
    sides1_half1
    {
        type            empty;
    }
    sides2_half0
    {
        type            empty;
    }
    sides2_half1
    {
        type            empty;
    }
    inout1_half0
    {
        type            cyclic;
    }
    inout1_half1
    {
        type            cyclic;
    }
    inout2_half0
    {
        type            cyclic;
    }
    inout2_half1
    {
        type            cyclic;
    }
}


// ************************************************************************* //
