/*--------------------------------*- C++ -*----------------------------------*\
  =========                 |
  \\      /  F ield         | OpenFOAM: The Open Source CFD Toolbox
   \\    /   O peration     | Website:  https://openfoam.org
    \\  /    A nd           | Version:  7
     \\/     M anipulation  |
\*---------------------------------------------------------------------------*/
FoamFile
{
    version     2.0;
    format      ascii;
    class       surfaceScalarField;
    location    "96000";
    object      phi;
}
// * * * * * * * * * * * * * * * * * * * * * * * * * * * * * * * * * * * * * //

dimensions      [0 3 -1 0 0 0 0];

internalField   nonuniform List<scalar> 
599
(
8.43423e-16
7.34224e-16
8.19884e-16
7.06042e-16
7.92961e-16
6.5582e-16
7.20739e-16
6.06167e-16
6.89885e-16
5.83525e-16
6.77013e-16
5.78487e-16
6.52138e-16
5.55531e-16
6.74415e-16
6.01317e-16
6.70712e-16
5.80304e-16
6.88525e-16
5.99634e-16
7.04031e-16
5.82124e-16
7.17061e-16
6.22483e-16
7.1931e-16
6.09174e-16
7.10641e-16
6.13958e-16
6.97013e-16
6.31024e-16
6.84072e-16
6.10877e-16
6.52125e-16
5.83851e-16
6.46592e-16
5.28e-16
6.36214e-16
5.29732e-16
6.43074e-16
5.76295e-16
7.36332e-16
6.5491e-16
7.5643e-16
6.15726e-16
6.34814e-16
5.45021e-16
5.29694e-16
4.18304e-16
4.26523e-16
3.52701e-16
3.78158e-16
2.75116e-16
4.05665e-16
3.10131e-16
3.9684e-16
4.04275e-16
4.4816e-16
3.75306e-16
3.71956e-16
3.73318e-16
4.24354e-16
2.61292e-16
2.74857e-16
2.42682e-16
3.07791e-16
3.06967e-16
3.61906e-16
2.55021e-16
3.36061e-16
2.84699e-16
4.08245e-16
3.44921e-16
3.56284e-16
2.70391e-16
3.90249e-16
2.93414e-16
3.44074e-16
2.74552e-16
3.32279e-16
3.9346e-16
4.96493e-16
4.31495e-16
4.99974e-16
4.31964e-16
4.7421e-16
3.13042e-16
3.74278e-16
2.65312e-16
3.00454e-16
2.80167e-16
3.43718e-16
2.63142e-16
2.94157e-16
2.31813e-16
2.97929e-16
2.16824e-16
2.73281e-16
1.87461e-16
2.6162e-16
2.03916e-16
2.81725e-16
2.14558e-16
2.29637e-16
1.70729e-16
2.42049e-16
1.81308e-16
1.98328e-16
1.30839e-16
1.67955e-16
8.96213e-17
1.32812e-16
7.857e-17
1.43932e-16
1.07873e-16
1.85678e-16
1.1768e-16
2.12494e-16
1.34877e-16
2.30816e-16
1.91676e-16
2.32044e-16
1.62932e-16
2.26465e-16
1.62128e-16
2.20959e-16
1.97442e-16
2.54795e-16
1.86386e-16
2.40829e-16
1.62321e-16
1.93276e-16
1.56694e-16
1.85511e-16
1.30732e-16
1.69231e-16
1.37552e-16
2.02196e-16
1.75663e-16
2.33595e-16
1.58311e-16
1.97481e-16
1.08869e-16
1.76831e-16
1.39139e-16
1.64437e-16
1.29629e-16
1.64775e-16
6.19515e-17
1.001e-16
6.30423e-17
1.27204e-16
7.75706e-17
1.28369e-16
8.12275e-17
1.49033e-16
6.75554e-17
1.15172e-16
6.37952e-17
7.55325e-17
3.52856e-17
5.32251e-17
2.26955e-17
4.90067e-17
2.85175e-17
7.04954e-17
4.33488e-17
1.00421e-16
5.46461e-17
1.1504e-16
3.25795e-17
1.20647e-16
8.15738e-17
1.32721e-16
1.15242e-16
1.95408e-16
1.30735e-16
1.52603e-16
1.02017e-16
1.40064e-16
8.4514e-17
1.05709e-16
7.69488e-17
1.45442e-16
1.19339e-16
1.46089e-16
1.47619e-16
2.14736e-16
1.26559e-16
1.58004e-16
1.16122e-16
1.93839e-16
1.15713e-16
1.97449e-16
1.61671e-16
2.51857e-16
2.09524e-16
3.14178e-16
2.54264e-16
3.08642e-16
2.53863e-16
3.13077e-16
2.74928e-16
3.1775e-16
2.56995e-16
3.31161e-16
2.57502e-16
3.50317e-16
3.37025e-16
3.602e-16
3.16283e-16
3.40936e-16
2.47508e-16
2.92269e-16
2.05062e-16
2.46981e-16
1.61401e-16
2.16605e-16
1.65328e-16
2.75908e-16
2.08331e-16
2.66804e-16
1.97889e-16
2.93582e-16
1.98149e-16
2.54224e-16
2.15254e-16
2.38878e-16
1.87487e-16
2.60437e-16
2.62871e-16
3.17056e-16
2.36596e-16
3.09987e-16
2.59176e-16
3.50102e-16
2.72392e-16
3.18206e-16
2.77929e-16
3.60447e-16
3.06376e-16
3.88648e-16
3.43243e-16
3.99677e-16
3.47074e-16
4.05853e-16
3.21851e-16
3.79379e-16
2.95493e-16
3.25315e-16
2.98606e-16
3.34126e-16
2.93926e-16
3.05221e-16
2.41796e-16
3.21321e-16
2.60108e-16
2.78269e-16
2.49358e-16
2.77887e-16
2.02259e-16
2.38216e-16
1.98519e-16
2.70535e-16
2.26173e-16
2.78724e-16
2.41853e-16
2.65535e-16
1.95745e-16
2.58614e-16
2.12434e-16
2.64762e-16
2.12681e-16
2.9306e-16
2.20349e-16
2.775e-16
2.04331e-16
2.43203e-16
2.03041e-16
2.75931e-16
2.00924e-16
2.77031e-16
2.37801e-16
2.7331e-16
2.28734e-16
2.62601e-16
2.40449e-16
2.71775e-16
2.27518e-16
2.74799e-16
2.26602e-16
3.10282e-16
2.30837e-16
2.5817e-16
1.98166e-16
2.46283e-16
1.74918e-16
2.07674e-16
1.22764e-16
1.43509e-16
1.43922e-16
1.69562e-16
1.23407e-16
1.67246e-16
1.48789e-16
1.60985e-16
1.34199e-16
2.28111e-16
1.91268e-16
2.80955e-16
2.04828e-16
2.82476e-16
2.74918e-16
3.04586e-16
2.32946e-16
2.87159e-16
2.50967e-16
2.84211e-16
2.27973e-16
2.92438e-16
2.32304e-16
2.92129e-16
2.14595e-16
2.79699e-16
2.03162e-16
2.75579e-16
1.89713e-16
2.68343e-16
1.73517e-16
2.74681e-16
2.51774e-16
2.89707e-16
2.34583e-16
3.31986e-16
2.22741e-16
2.86015e-16
2.63527e-16
3.47623e-16
2.77438e-16
3.34484e-16
2.46183e-16
3.30545e-16
2.83634e-16
3.628e-16
2.57208e-16
3.80405e-16
3.22637e-16
3.94711e-16
3.2395e-16
4.00773e-16
3.46943e-16
4.29997e-16
3.54106e-16
4.39703e-16
3.22052e-16
3.63079e-16
3.26475e-16
3.49184e-16
3.05252e-16
3.5943e-16
2.91491e-16
3.84134e-16
3.18991e-16
3.61646e-16
3.22906e-16
3.98081e-16
3.12091e-16
3.68275e-16
3.03101e-16
3.8798e-16
3.45379e-16
3.96002e-16
3.22766e-16
3.86125e-16
3.49146e-16
3.66935e-16
3.00354e-16
3.6285e-16
2.67614e-16
3.57165e-16
2.6834e-16
3.00786e-16
2.20635e-16
3.28869e-16
2.49177e-16
2.94609e-16
2.13527e-16
2.15862e-16
1.61679e-16
1.86783e-16
1.09847e-16
1.92092e-16
1.6469e-16
1.84777e-16
1.22463e-16
2.10775e-16
1.62157e-16
2.35686e-16
1.80104e-16
2.37759e-16
1.49457e-16
1.88243e-16
1.33682e-16
1.89153e-16
1.58346e-16
2.30088e-16
1.99232e-16
2.49534e-16
1.58429e-16
2.14744e-16
1.34627e-16
1.56523e-16
7.65906e-17
1.76154e-16
1.55598e-16
2.41315e-16
1.4228e-16
2.24492e-16
1.70749e-16
2.48696e-16
1.77008e-16
2.4794e-16
1.68864e-16
1.72267e-16
1.24067e-16
2.0744e-16
1.6657e-16
1.76649e-16
1.08566e-16
1.76678e-16
1.30625e-16
1.84233e-16
1.49428e-16
2.04737e-16
1.01182e-16
1.39776e-16
8.95367e-17
1.36187e-16
1.14674e-16
1.39174e-16
9.07687e-17
1.6751e-16
1.402e-16
1.76735e-16
1.06631e-16
1.68759e-16
1.25649e-16
1.18174e-16
8.07967e-17
1.53557e-16
1.15322e-16
1.87071e-16
1.2344e-16
1.65429e-16
9.3973e-17
1.36502e-16
7.79401e-17
1.20138e-16
7.91e-17
1.30556e-16
1.02965e-16
1.57594e-16
1.15248e-16
1.56511e-16
8.71629e-17
1.53517e-16
9.84117e-17
1.154e-16
7.35012e-17
1.06098e-16
4.45179e-17
5.30978e-17
-3.05301e-17
-6.11861e-17
-6.03846e-17
-3.05423e-17
-5.44184e-17
-3.03209e-18
-3.41124e-17
-9.46881e-18
-5.26386e-17
-2.6642e-17
-6.99181e-17
9.97025e-18
-7.69621e-17
-2.32977e-17
-4.36453e-17
1.07898e-17
1.28175e-17
4.00713e-17
-9.28237e-18
-3.25871e-18
-3.58596e-17
1.24481e-18
9.12486e-18
1.46766e-17
-2.07536e-17
3.54981e-17
1.29004e-17
8.67763e-17
6.42109e-17
1.39335e-16
5.3202e-17
1.55788e-16
9.66701e-17
1.70832e-16
1.41704e-16
1.71633e-16
1.26507e-16
2.76255e-16
1.67256e-16
2.11675e-16
2.63936e-16
2.362e-16
2.33262e-16
2.43002e-16
1.15942e-16
2.2683e-16
2.02749e-16
1.79278e-16
1.78837e-16
2.00407e-16
1.57933e-16
1.19118e-16
1.5741e-16
8.53294e-17
4.60144e-17
1.09493e-16
6.98337e-17
-2.09837e-17
1.75935e-17
-1.59297e-17
2.61838e-17
4.95093e-17
5.24853e-18
-5.29816e-17
-4.93467e-17
3.25951e-17
3.41424e-17
8.59989e-17
6.70366e-17
1.66046e-16
1.84505e-16
1.00533e-16
1.32422e-16
1.01108e-16
1.56728e-16
9.55464e-17
6.35474e-17
-8.38754e-17
-1.28852e-16
-2.62774e-16
-1.71429e-16
-1.7336e-16
-1.62331e-16
-1.56689e-16
-8.2939e-17
-9.4052e-17
-9.61925e-17
-7.48109e-17
-1.00595e-16
-5.46749e-17
-8.40776e-17
-5.9163e-17
1.91717e-17
-3.35729e-18
3.42076e-17
9.35422e-17
1.11124e-16
1.35307e-16
1.66106e-16
1.60442e-16
1.6054e-16
1.65376e-16
1.54278e-16
1.32666e-16
1.15655e-16
1.3366e-16
1.56582e-16
1.39097e-16
9.35146e-17
5.90224e-17
6.56841e-17
5.64368e-17
6.95391e-17
6.67934e-17
8.2585e-17
2.87528e-17
4.35199e-17
2.23755e-17
4.27665e-17
5.55573e-17
8.08722e-17
9.07351e-17
5.98993e-17
1.02736e-16
7.05991e-17
4.55356e-17
-2.22836e-18
4.85289e-18
)
;

boundaryField
{
    bottomWall
    {
        type            calculated;
        value           uniform 0;
    }
    topWall
    {
        type            calculated;
        value           uniform 0;
    }
    sides1_half0
    {
        type            empty;
        value           nonuniform 0();
    }
    sides1_half1
    {
        type            empty;
        value           nonuniform 0();
    }
    sides2_half0
    {
        type            empty;
        value           nonuniform 0();
    }
    sides2_half1
    {
        type            empty;
        value           nonuniform 0();
    }
    inout1_half0
    {
        type            cyclic;
        value           nonuniform List<scalar> 
300
(
7.13253e-09
2.18399e-08
3.72297e-08
5.33269e-08
7.01567e-08
8.77457e-08
1.06121e-07
1.25311e-07
1.45344e-07
1.66251e-07
1.88062e-07
2.1081e-07
2.34527e-07
2.59249e-07
2.85009e-07
3.11844e-07
3.39792e-07
3.68891e-07
3.99182e-07
4.30706e-07
4.63504e-07
4.97621e-07
5.33102e-07
5.69992e-07
6.0834e-07
6.48194e-07
6.89605e-07
7.32623e-07
7.77302e-07
8.23695e-07
8.71856e-07
9.21843e-07
9.73711e-07
1.02752e-06
1.08332e-06
1.14118e-06
1.20116e-06
1.26331e-06
1.32769e-06
1.39436e-06
1.46338e-06
1.5348e-06
1.60868e-06
1.68507e-06
1.76402e-06
1.84558e-06
1.92979e-06
2.01669e-06
2.10633e-06
2.19873e-06
2.29393e-06
2.39195e-06
2.49282e-06
2.59654e-06
2.70315e-06
2.81264e-06
2.92503e-06
3.04032e-06
3.15852e-06
3.27962e-06
3.40362e-06
3.53053e-06
3.66035e-06
3.79306e-06
3.92869e-06
4.06721e-06
4.20865e-06
4.35299e-06
4.50026e-06
4.65046e-06
4.80361e-06
4.95971e-06
5.11879e-06
5.28087e-06
5.44598e-06
5.61414e-06
5.78539e-06
5.95975e-06
6.13727e-06
6.31805e-06
6.50221e-06
6.68982e-06
6.88092e-06
7.07556e-06
7.27377e-06
7.47561e-06
7.68112e-06
7.89035e-06
8.10335e-06
8.32017e-06
8.54087e-06
8.7655e-06
8.99412e-06
9.2268e-06
9.46358e-06
9.70455e-06
9.94975e-06
1.01993e-05
1.04532e-05
1.07115e-05
1.09744e-05
1.12419e-05
1.1514e-05
1.17909e-05
1.20727e-05
1.23593e-05
1.2651e-05
1.29478e-05
1.32497e-05
1.3557e-05
1.38696e-05
1.41876e-05
1.45113e-05
1.48406e-05
1.51756e-05
1.55165e-05
1.58634e-05
1.62164e-05
1.65755e-05
1.69409e-05
1.73128e-05
1.76912e-05
1.80762e-05
1.8468e-05
1.88667e-05
1.92724e-05
1.96852e-05
2.01054e-05
2.05329e-05
2.09679e-05
2.14107e-05
2.18612e-05
2.23197e-05
2.27863e-05
2.32612e-05
2.37444e-05
2.42363e-05
2.47368e-05
2.52461e-05
2.57645e-05
2.62921e-05
2.68291e-05
2.73756e-05
2.79317e-05
2.84978e-05
2.90738e-05
2.96602e-05
3.02569e-05
3.08642e-05
3.14824e-05
3.21115e-05
3.27518e-05
3.34035e-05
3.40668e-05
3.47419e-05
3.5429e-05
3.61284e-05
3.68402e-05
3.75647e-05
3.83021e-05
3.90526e-05
3.98165e-05
4.0594e-05
4.13853e-05
4.21907e-05
4.30105e-05
4.38449e-05
4.46942e-05
4.55586e-05
4.64384e-05
4.73339e-05
4.82454e-05
4.9173e-05
5.01172e-05
5.10783e-05
5.20564e-05
5.3052e-05
5.40653e-05
5.50967e-05
5.61464e-05
5.72149e-05
5.83023e-05
5.94091e-05
6.05356e-05
6.16822e-05
6.28491e-05
6.40368e-05
6.52457e-05
6.6476e-05
6.77282e-05
6.90027e-05
7.02998e-05
7.16199e-05
7.29635e-05
7.43309e-05
7.57226e-05
7.7139e-05
7.85805e-05
8.00476e-05
8.15407e-05
8.30602e-05
8.46066e-05
8.61804e-05
8.77821e-05
8.9412e-05
9.10708e-05
9.27589e-05
9.44768e-05
9.6225e-05
9.8004e-05
9.98144e-05
0.000101657
0.000103531
0.000105439
0.00010738
0.000109355
0.000111365
0.00011341
0.00011549
0.000117607
0.00011976
0.000121951
0.000124179
0.000126446
0.000128751
0.000131095
0.000133478
0.000135902
0.000138367
0.000140874
0.000143423
0.000146016
0.000148654
0.000151337
0.000154066
0.000156841
0.000159663
0.000162534
0.000165453
0.000168421
0.00017144
0.00017451
0.000177632
0.000180805
0.000184033
0.000187314
0.00019065
0.000194042
0.00019749
0.000200995
0.000204558
0.00020818
0.000211861
0.000215603
0.000219406
0.000223271
0.000227199
0.00023119
0.000235246
0.000239367
0.000243554
0.000247808
0.000252129
0.000256519
0.000260978
0.000265507
0.000270106
0.000274777
0.000279519
0.000284335
0.000289224
0.000294188
0.000299226
0.000304339
0.000309529
0.000314795
0.000320139
0.000325561
0.00033106
0.000336639
0.000342296
0.000348033
0.00035385
0.000359747
0.000365724
0.000371781
0.000377919
0.000384138
0.000390437
0.000396816
0.000403276
0.000409815
0.000416433
0.00042313
0.000429904
0.000436756
0.000443683
0.000450685
0.00045776
0.000464907
)
;
    }
    inout1_half1
    {
        type            cyclic;
        value           nonuniform List<scalar> 
300
(
-7.13253e-09
-2.18399e-08
-3.72297e-08
-5.33269e-08
-7.01567e-08
-8.77457e-08
-1.06121e-07
-1.25311e-07
-1.45344e-07
-1.66251e-07
-1.88062e-07
-2.1081e-07
-2.34527e-07
-2.59249e-07
-2.85009e-07
-3.11844e-07
-3.39792e-07
-3.68891e-07
-3.99182e-07
-4.30706e-07
-4.63504e-07
-4.97621e-07
-5.33102e-07
-5.69992e-07
-6.0834e-07
-6.48194e-07
-6.89605e-07
-7.32623e-07
-7.77302e-07
-8.23695e-07
-8.71856e-07
-9.21843e-07
-9.73711e-07
-1.02752e-06
-1.08332e-06
-1.14118e-06
-1.20116e-06
-1.26331e-06
-1.32769e-06
-1.39436e-06
-1.46338e-06
-1.5348e-06
-1.60868e-06
-1.68507e-06
-1.76402e-06
-1.84558e-06
-1.92979e-06
-2.01669e-06
-2.10633e-06
-2.19873e-06
-2.29393e-06
-2.39195e-06
-2.49282e-06
-2.59654e-06
-2.70315e-06
-2.81264e-06
-2.92503e-06
-3.04032e-06
-3.15852e-06
-3.27962e-06
-3.40362e-06
-3.53053e-06
-3.66035e-06
-3.79306e-06
-3.92869e-06
-4.06721e-06
-4.20865e-06
-4.35299e-06
-4.50026e-06
-4.65046e-06
-4.80361e-06
-4.95971e-06
-5.11879e-06
-5.28087e-06
-5.44598e-06
-5.61414e-06
-5.78539e-06
-5.95975e-06
-6.13727e-06
-6.31805e-06
-6.50221e-06
-6.68982e-06
-6.88092e-06
-7.07556e-06
-7.27377e-06
-7.47561e-06
-7.68112e-06
-7.89035e-06
-8.10335e-06
-8.32017e-06
-8.54087e-06
-8.7655e-06
-8.99412e-06
-9.2268e-06
-9.46358e-06
-9.70455e-06
-9.94975e-06
-1.01993e-05
-1.04532e-05
-1.07115e-05
-1.09744e-05
-1.12419e-05
-1.1514e-05
-1.17909e-05
-1.20727e-05
-1.23593e-05
-1.2651e-05
-1.29478e-05
-1.32497e-05
-1.3557e-05
-1.38696e-05
-1.41876e-05
-1.45113e-05
-1.48406e-05
-1.51756e-05
-1.55165e-05
-1.58634e-05
-1.62164e-05
-1.65755e-05
-1.69409e-05
-1.73128e-05
-1.76912e-05
-1.80762e-05
-1.8468e-05
-1.88667e-05
-1.92724e-05
-1.96852e-05
-2.01054e-05
-2.05329e-05
-2.09679e-05
-2.14107e-05
-2.18612e-05
-2.23197e-05
-2.27863e-05
-2.32612e-05
-2.37444e-05
-2.42363e-05
-2.47368e-05
-2.52461e-05
-2.57645e-05
-2.62921e-05
-2.68291e-05
-2.73756e-05
-2.79317e-05
-2.84978e-05
-2.90738e-05
-2.96602e-05
-3.02569e-05
-3.08642e-05
-3.14824e-05
-3.21115e-05
-3.27518e-05
-3.34035e-05
-3.40668e-05
-3.47419e-05
-3.5429e-05
-3.61284e-05
-3.68402e-05
-3.75647e-05
-3.83021e-05
-3.90526e-05
-3.98165e-05
-4.0594e-05
-4.13853e-05
-4.21907e-05
-4.30105e-05
-4.38449e-05
-4.46942e-05
-4.55586e-05
-4.64384e-05
-4.73339e-05
-4.82454e-05
-4.9173e-05
-5.01172e-05
-5.10783e-05
-5.20564e-05
-5.3052e-05
-5.40653e-05
-5.50967e-05
-5.61464e-05
-5.72149e-05
-5.83023e-05
-5.94091e-05
-6.05356e-05
-6.16822e-05
-6.28491e-05
-6.40368e-05
-6.52457e-05
-6.6476e-05
-6.77282e-05
-6.90027e-05
-7.02998e-05
-7.16199e-05
-7.29635e-05
-7.43309e-05
-7.57226e-05
-7.7139e-05
-7.85805e-05
-8.00476e-05
-8.15407e-05
-8.30602e-05
-8.46066e-05
-8.61804e-05
-8.77821e-05
-8.9412e-05
-9.10708e-05
-9.27589e-05
-9.44768e-05
-9.6225e-05
-9.8004e-05
-9.98144e-05
-0.000101657
-0.000103531
-0.000105439
-0.00010738
-0.000109355
-0.000111365
-0.00011341
-0.00011549
-0.000117607
-0.00011976
-0.000121951
-0.000124179
-0.000126446
-0.000128751
-0.000131095
-0.000133478
-0.000135902
-0.000138367
-0.000140874
-0.000143423
-0.000146016
-0.000148654
-0.000151337
-0.000154066
-0.000156841
-0.000159663
-0.000162534
-0.000165453
-0.000168421
-0.00017144
-0.00017451
-0.000177632
-0.000180805
-0.000184033
-0.000187314
-0.00019065
-0.000194042
-0.00019749
-0.000200995
-0.000204558
-0.00020818
-0.000211861
-0.000215603
-0.000219406
-0.000223271
-0.000227199
-0.00023119
-0.000235246
-0.000239367
-0.000243554
-0.000247808
-0.000252129
-0.000256519
-0.000260978
-0.000265507
-0.000270106
-0.000274777
-0.000279519
-0.000284335
-0.000289224
-0.000294188
-0.000299226
-0.000304339
-0.000309529
-0.000314795
-0.000320139
-0.000325561
-0.00033106
-0.000336639
-0.000342296
-0.000348033
-0.00035385
-0.000359747
-0.000365724
-0.000371781
-0.000377919
-0.000384138
-0.000390437
-0.000396816
-0.000403276
-0.000409815
-0.000416433
-0.00042313
-0.000429904
-0.000436756
-0.000443683
-0.000450685
-0.00045776
-0.000464907
)
;
    }
    inout2_half0
    {
        type            cyclic;
        value           nonuniform List<scalar> 
300
(
0.000464907
0.00045776
0.000450685
0.000443683
0.000436756
0.000429904
0.00042313
0.000416433
0.000409815
0.000403276
0.000396816
0.000390437
0.000384138
0.000377919
0.000371781
0.000365724
0.000359747
0.00035385
0.000348033
0.000342296
0.000336639
0.00033106
0.000325561
0.000320139
0.000314796
0.000309529
0.000304339
0.000299226
0.000294188
0.000289224
0.000284335
0.00027952
0.000274777
0.000270106
0.000265507
0.000260978
0.000256519
0.000252129
0.000247808
0.000243554
0.000239367
0.000235246
0.00023119
0.000227199
0.000223271
0.000219406
0.000215603
0.000211861
0.00020818
0.000204558
0.000200995
0.000197489
0.000194042
0.00019065
0.000187314
0.000184033
0.000180805
0.000177632
0.00017451
0.00017144
0.000168421
0.000165453
0.000162534
0.000159663
0.000156841
0.000154066
0.000151337
0.000148654
0.000146016
0.000143423
0.000140874
0.000138367
0.000135902
0.000133478
0.000131095
0.000128751
0.000126446
0.000124179
0.000121951
0.00011976
0.000117607
0.00011549
0.00011341
0.000111365
0.000109355
0.00010738
0.000105439
0.000103531
0.000101657
9.98144e-05
9.8004e-05
9.6225e-05
9.44768e-05
9.27589e-05
9.10708e-05
8.9412e-05
8.77821e-05
8.61804e-05
8.46067e-05
8.30602e-05
8.15407e-05
8.00476e-05
7.85806e-05
7.7139e-05
7.57226e-05
7.43309e-05
7.29635e-05
7.16199e-05
7.02997e-05
6.90027e-05
6.77282e-05
6.6476e-05
6.52457e-05
6.40368e-05
6.28491e-05
6.16822e-05
6.05356e-05
5.94091e-05
5.83023e-05
5.72148e-05
5.61464e-05
5.50967e-05
5.40653e-05
5.3052e-05
5.20565e-05
5.10783e-05
5.01173e-05
4.9173e-05
4.82453e-05
4.73339e-05
4.64384e-05
4.55586e-05
4.46942e-05
4.38449e-05
4.30105e-05
4.21907e-05
4.13853e-05
4.0594e-05
3.98165e-05
3.90526e-05
3.83021e-05
3.75647e-05
3.68402e-05
3.61284e-05
3.5429e-05
3.47419e-05
3.40668e-05
3.34035e-05
3.27518e-05
3.21115e-05
3.14824e-05
3.08642e-05
3.02569e-05
2.96602e-05
2.90738e-05
2.84977e-05
2.79317e-05
2.73756e-05
2.68291e-05
2.62921e-05
2.57646e-05
2.52461e-05
2.47368e-05
2.42363e-05
2.37444e-05
2.32612e-05
2.27863e-05
2.23197e-05
2.18612e-05
2.14107e-05
2.09679e-05
2.05329e-05
2.01054e-05
1.96852e-05
1.92724e-05
1.88667e-05
1.8468e-05
1.80762e-05
1.76912e-05
1.73128e-05
1.69409e-05
1.65755e-05
1.62163e-05
1.58634e-05
1.55165e-05
1.51756e-05
1.48406e-05
1.45113e-05
1.41877e-05
1.38696e-05
1.3557e-05
1.32497e-05
1.29478e-05
1.2651e-05
1.23593e-05
1.20727e-05
1.17909e-05
1.1514e-05
1.12419e-05
1.09744e-05
1.07115e-05
1.04532e-05
1.01993e-05
9.94976e-06
9.70454e-06
9.46359e-06
9.22679e-06
8.99413e-06
8.7655e-06
8.54087e-06
8.32018e-06
8.10335e-06
7.89036e-06
7.68112e-06
7.47562e-06
7.27378e-06
7.07556e-06
6.88092e-06
6.68982e-06
6.5022e-06
6.31805e-06
6.13727e-06
5.95975e-06
5.78539e-06
5.61414e-06
5.44598e-06
5.28088e-06
5.11879e-06
4.95971e-06
4.8036e-06
4.65046e-06
4.50026e-06
4.35299e-06
4.20865e-06
4.06721e-06
3.92868e-06
3.79306e-06
3.66034e-06
3.53053e-06
3.40363e-06
3.27961e-06
3.15852e-06
3.04032e-06
2.92503e-06
2.81264e-06
2.70315e-06
2.59654e-06
2.49282e-06
2.39195e-06
2.29393e-06
2.19873e-06
2.10633e-06
2.01669e-06
1.92979e-06
1.84558e-06
1.76402e-06
1.68507e-06
1.60868e-06
1.5348e-06
1.46338e-06
1.39436e-06
1.32769e-06
1.26331e-06
1.20116e-06
1.14118e-06
1.08333e-06
1.02752e-06
9.73713e-07
9.21844e-07
8.71854e-07
8.23695e-07
7.77301e-07
7.32624e-07
6.89607e-07
6.48194e-07
6.08338e-07
5.69994e-07
5.33101e-07
4.97622e-07
4.63503e-07
4.30708e-07
3.99182e-07
3.68891e-07
3.39791e-07
3.11845e-07
2.85007e-07
2.59249e-07
2.34528e-07
2.1081e-07
1.88062e-07
1.6625e-07
1.45344e-07
1.25311e-07
1.06121e-07
8.77457e-08
7.01568e-08
5.33266e-08
3.72298e-08
2.18399e-08
7.13252e-09
)
;
    }
    inout2_half1
    {
        type            cyclic;
        value           nonuniform List<scalar> 
300
(
-0.000464907
-0.00045776
-0.000450685
-0.000443683
-0.000436756
-0.000429904
-0.00042313
-0.000416433
-0.000409815
-0.000403276
-0.000396816
-0.000390437
-0.000384138
-0.000377919
-0.000371781
-0.000365724
-0.000359747
-0.00035385
-0.000348033
-0.000342296
-0.000336639
-0.00033106
-0.000325561
-0.000320139
-0.000314796
-0.000309529
-0.000304339
-0.000299226
-0.000294188
-0.000289224
-0.000284335
-0.00027952
-0.000274777
-0.000270106
-0.000265507
-0.000260978
-0.000256519
-0.000252129
-0.000247808
-0.000243554
-0.000239367
-0.000235246
-0.00023119
-0.000227199
-0.000223271
-0.000219406
-0.000215603
-0.000211861
-0.00020818
-0.000204558
-0.000200995
-0.000197489
-0.000194042
-0.00019065
-0.000187314
-0.000184033
-0.000180805
-0.000177632
-0.00017451
-0.00017144
-0.000168421
-0.000165453
-0.000162534
-0.000159663
-0.000156841
-0.000154066
-0.000151337
-0.000148654
-0.000146016
-0.000143423
-0.000140874
-0.000138367
-0.000135902
-0.000133478
-0.000131095
-0.000128751
-0.000126446
-0.000124179
-0.000121951
-0.00011976
-0.000117607
-0.00011549
-0.00011341
-0.000111365
-0.000109355
-0.00010738
-0.000105439
-0.000103531
-0.000101657
-9.98144e-05
-9.8004e-05
-9.6225e-05
-9.44768e-05
-9.27589e-05
-9.10708e-05
-8.9412e-05
-8.77821e-05
-8.61804e-05
-8.46067e-05
-8.30602e-05
-8.15407e-05
-8.00476e-05
-7.85806e-05
-7.7139e-05
-7.57226e-05
-7.43309e-05
-7.29635e-05
-7.16199e-05
-7.02997e-05
-6.90027e-05
-6.77282e-05
-6.6476e-05
-6.52457e-05
-6.40368e-05
-6.28491e-05
-6.16822e-05
-6.05356e-05
-5.94091e-05
-5.83023e-05
-5.72148e-05
-5.61464e-05
-5.50967e-05
-5.40653e-05
-5.3052e-05
-5.20565e-05
-5.10783e-05
-5.01173e-05
-4.9173e-05
-4.82453e-05
-4.73339e-05
-4.64384e-05
-4.55586e-05
-4.46942e-05
-4.38449e-05
-4.30105e-05
-4.21907e-05
-4.13853e-05
-4.0594e-05
-3.98165e-05
-3.90526e-05
-3.83021e-05
-3.75647e-05
-3.68402e-05
-3.61284e-05
-3.5429e-05
-3.47419e-05
-3.40668e-05
-3.34035e-05
-3.27518e-05
-3.21115e-05
-3.14824e-05
-3.08642e-05
-3.02569e-05
-2.96602e-05
-2.90738e-05
-2.84977e-05
-2.79317e-05
-2.73756e-05
-2.68291e-05
-2.62921e-05
-2.57646e-05
-2.52461e-05
-2.47368e-05
-2.42363e-05
-2.37444e-05
-2.32612e-05
-2.27863e-05
-2.23197e-05
-2.18612e-05
-2.14107e-05
-2.09679e-05
-2.05329e-05
-2.01054e-05
-1.96852e-05
-1.92724e-05
-1.88667e-05
-1.8468e-05
-1.80762e-05
-1.76912e-05
-1.73128e-05
-1.69409e-05
-1.65755e-05
-1.62163e-05
-1.58634e-05
-1.55165e-05
-1.51756e-05
-1.48406e-05
-1.45113e-05
-1.41877e-05
-1.38696e-05
-1.3557e-05
-1.32497e-05
-1.29478e-05
-1.2651e-05
-1.23593e-05
-1.20727e-05
-1.17909e-05
-1.1514e-05
-1.12419e-05
-1.09744e-05
-1.07115e-05
-1.04532e-05
-1.01993e-05
-9.94976e-06
-9.70454e-06
-9.46359e-06
-9.22679e-06
-8.99413e-06
-8.7655e-06
-8.54087e-06
-8.32018e-06
-8.10335e-06
-7.89036e-06
-7.68112e-06
-7.47562e-06
-7.27378e-06
-7.07556e-06
-6.88092e-06
-6.68982e-06
-6.5022e-06
-6.31805e-06
-6.13727e-06
-5.95975e-06
-5.78539e-06
-5.61414e-06
-5.44598e-06
-5.28088e-06
-5.11879e-06
-4.95971e-06
-4.8036e-06
-4.65046e-06
-4.50026e-06
-4.35299e-06
-4.20865e-06
-4.06721e-06
-3.92868e-06
-3.79306e-06
-3.66034e-06
-3.53053e-06
-3.40363e-06
-3.27961e-06
-3.15852e-06
-3.04032e-06
-2.92503e-06
-2.81264e-06
-2.70315e-06
-2.59654e-06
-2.49282e-06
-2.39195e-06
-2.29393e-06
-2.19873e-06
-2.10633e-06
-2.01669e-06
-1.92979e-06
-1.84558e-06
-1.76402e-06
-1.68507e-06
-1.60868e-06
-1.5348e-06
-1.46338e-06
-1.39436e-06
-1.32769e-06
-1.26331e-06
-1.20116e-06
-1.14118e-06
-1.08333e-06
-1.02752e-06
-9.73713e-07
-9.21844e-07
-8.71854e-07
-8.23695e-07
-7.77301e-07
-7.32624e-07
-6.89607e-07
-6.48194e-07
-6.08338e-07
-5.69994e-07
-5.33101e-07
-4.97622e-07
-4.63503e-07
-4.30708e-07
-3.99182e-07
-3.68891e-07
-3.39791e-07
-3.11845e-07
-2.85007e-07
-2.59249e-07
-2.34528e-07
-2.1081e-07
-1.88062e-07
-1.6625e-07
-1.45344e-07
-1.25311e-07
-1.06121e-07
-8.77457e-08
-7.01568e-08
-5.33266e-08
-3.72298e-08
-2.18399e-08
-7.13252e-09
)
;
    }
}


// ************************************************************************* //
