/*--------------------------------*- C++ -*----------------------------------*\
  =========                 |
  \\      /  F ield         | OpenFOAM: The Open Source CFD Toolbox
   \\    /   O peration     | Website:  https://openfoam.org
    \\  /    A nd           | Version:  7
     \\/     M anipulation  |
\*---------------------------------------------------------------------------*/
FoamFile
{
    version     2.0;
    format      ascii;
    class       volVectorField;
    location    "96000";
    object      U;
}
// * * * * * * * * * * * * * * * * * * * * * * * * * * * * * * * * * * * * * //

dimensions      [0 1 -1 0 0 0 0];

internalField   nonuniform List<vector> 
600
(
(0.000231037 4.81972e-15 0)
(0.000696625 5.17479e-14 0)
(0.00116936 3.67517e-14 0)
(0.00164937 3.86676e-14 0)
(0.00213674 3.68098e-14 0)
(0.00263159 3.65124e-14 0)
(0.00313405 3.45104e-14 0)
(0.00364421 3.33388e-14 0)
(0.0041622 3.21024e-14 0)
(0.00468815 3.18209e-14 0)
(0.00522215 3.08027e-14 0)
(0.00576435 3.17647e-14 0)
(0.00631486 3.12355e-14 0)
(0.00687381 2.97847e-14 0)
(0.00744133 2.99509e-14 0)
(0.00801753 3.24749e-14 0)
(0.00860256 3.27252e-14 0)
(0.00919653 3.05163e-14 0)
(0.00979959 3.08783e-14 0)
(0.0104119 3.28913e-14 0)
(0.0110335 3.29837e-14 0)
(0.0116646 3.17191e-14 0)
(0.0123053 3.27638e-14 0)
(0.0129557 3.3043e-14 0)
(0.013616 3.44144e-14 0)
(0.0142863 3.24132e-14 0)
(0.0149667 3.2847e-14 0)
(0.0156573 3.33142e-14 0)
(0.0163582 3.27094e-14 0)
(0.0170696 3.22785e-14 0)
(0.0177916 3.25751e-14 0)
(0.0185241 3.25329e-14 0)
(0.0192673 3.33385e-14 0)
(0.0200213 3.06068e-14 0)
(0.020786 3.06033e-14 0)
(0.0215615 2.88811e-14 0)
(0.0223479 2.90217e-14 0)
(0.0231449 3.04267e-14 0)
(0.0239527 2.784e-14 0)
(0.024771 3.07985e-14 0)
(0.0255998 3.40989e-14 0)
(0.0264388 3.51717e-14 0)
(0.027288 3.5434e-14 0)
(0.0281469 3.43389e-14 0)
(0.0290153 3.06204e-14 0)
(0.0298928 2.99155e-14 0)
(0.0307791 2.67879e-14 0)
(0.0316735 2.40009e-14 0)
(0.0325757 2.02335e-14 0)
(0.0334851 1.97729e-14 0)
(0.0344009 1.79773e-14 0)
(0.0353227 1.49925e-14 0)
(0.0362495 1.78417e-14 0)
(0.0371808 1.76611e-14 0)
(0.0381157 1.5643e-14 0)
(0.0390535 2.07002e-14 0)
(0.0399932 2.04248e-14 0)
(0.0409342 2.20259e-14 0)
(0.0418756 1.94375e-14 0)
(0.0428166 1.78708e-14 0)
(0.0437564 2.0258e-14 0)
(0.0446942 1.82197e-14 0)
(0.0456294 1.42064e-14 0)
(0.0465611 1.27963e-14 0)
(0.0474888 1.42084e-14 0)
(0.0484119 1.55164e-14 0)
(0.0493297 1.75497e-14 0)
(0.0502418 1.47896e-14 0)
(0.0511477 1.52642e-14 0)
(0.052047 1.60827e-14 0)
(0.0529393 1.76681e-14 0)
(0.0538242 1.78569e-14 0)
(0.0547016 1.6949e-14 0)
(0.0555711 1.46914e-14 0)
(0.0564327 1.61791e-14 0)
(0.0572861 1.59829e-14 0)
(0.0581312 1.62375e-14 0)
(0.0589679 1.57009e-14 0)
(0.0597963 1.57733e-14 0)
(0.0606168 1.93975e-14 0)
(0.0614302 2.21297e-14 0)
(0.0622367 2.19842e-14 0)
(0.0630361 2.35266e-14 0)
(0.0638285 2.21415e-14 0)
(0.0646137 2.33055e-14 0)
(0.0653917 2.09145e-14 0)
(0.0661625 1.69917e-14 0)
(0.066926 1.59965e-14 0)
(0.0676821 1.38116e-14 0)
(0.068431 1.44127e-14 0)
(0.0691725 1.51975e-14 0)
(0.0699067 1.48638e-14 0)
(0.0706337 1.46497e-14 0)
(0.0713535 1.25326e-14 0)
(0.0720661 1.21898e-14 0)
(0.0727716 1.31592e-14 0)
(0.07347 1.21526e-14 0)
(0.0741613 1.14011e-14 0)
(0.0748458 1.18394e-14 0)
(0.0755234 1.17356e-14 0)
(0.0761942 1.22146e-14 0)
(0.0768583 1.1793e-14 0)
(0.0775158 1.18543e-14 0)
(0.0781668 1.00682e-14 0)
(0.0788114 1.09134e-14 0)
(0.0794497 9.80451e-15 0)
(0.0800817 9.66107e-15 0)
(0.0807076 7.60793e-15 0)
(0.0813275 7.72998e-15 0)
(0.0819415 5.50513e-15 0)
(0.0825497 5.81741e-15 0)
(0.0831521 5.53212e-15 0)
(0.083749 4.53372e-15 0)
(0.0843403 7.31247e-15 0)
(0.0849263 6.46725e-15 0)
(0.0855069 7.7759e-15 0)
(0.0860824 9.34102e-15 0)
(0.0866528 7.68591e-15 0)
(0.0872181 9.91509e-15 0)
(0.0877786 9.88689e-15 0)
(0.0883343 1.11134e-14 0)
(0.0888853 1.03507e-14 0)
(0.0894318 9.97728e-15 0)
(0.0899737 9.47401e-15 0)
(0.0905112 1.04254e-14 0)
(0.0910444 9.9814e-15 0)
(0.0915734 1.10644e-14 0)
(0.0920982 1.14789e-14 0)
(0.0926191 1.04394e-14 0)
(0.0931359 1.03287e-14 0)
(0.093649 9.47004e-15 0)
(0.0941582 8.82827e-15 0)
(0.0946637 8.83231e-15 0)
(0.0951657 6.65031e-15 0)
(0.0956641 7.61152e-15 0)
(0.096159 7.83039e-15 0)
(0.0966506 8.82819e-15 0)
(0.0971388 1.02065e-14 0)
(0.0976239 9.59225e-15 0)
(0.0981058 1.04812e-14 0)
(0.0985846 8.98543e-15 0)
(0.0990604 7.21243e-15 0)
(0.0995332 7.46748e-15 0)
(0.100003 7.77136e-15 0)
(0.10047 7.60253e-15 0)
(0.100935 7.15976e-15 0)
(0.101396 7.8057e-15 0)
(0.101856 5.64231e-15 0)
(0.102312 3.94336e-15 0)
(0.102766 4.04043e-15 0)
(0.103218 4.16544e-15 0)
(0.103667 4.88923e-15 0)
(0.104114 5.53143e-15 0)
(0.104558 5.20325e-15 0)
(0.105001 6.57494e-15 0)
(0.105441 5.48381e-15 0)
(0.105879 4.31293e-15 0)
(0.106315 4.53966e-15 0)
(0.106748 2.9542e-15 0)
(0.10718 3.46673e-15 0)
(0.10761 1.72032e-15 0)
(0.108038 2.34733e-15 0)
(0.108464 2.46682e-15 0)
(0.108889 1.88423e-15 0)
(0.109311 1.58977e-15 0)
(0.109732 3.33357e-15 0)
(0.110151 3.15782e-15 0)
(0.110569 3.43869e-15 0)
(0.110985 4.58942e-15 0)
(0.111399 3.84775e-15 0)
(0.111812 3.93083e-15 0)
(0.112223 4.79364e-15 0)
(0.112632 5.84462e-15 0)
(0.113041 6.37363e-15 0)
(0.113447 7.60828e-15 0)
(0.113853 8.3423e-15 0)
(0.114257 7.43373e-15 0)
(0.11466 6.81777e-15 0)
(0.115061 5.61215e-15 0)
(0.115461 5.4403e-15 0)
(0.11586 5.66904e-15 0)
(0.116258 4.59046e-15 0)
(0.116654 4.84067e-15 0)
(0.117049 7.37687e-15 0)
(0.117443 7.33494e-15 0)
(0.117836 7.32095e-15 0)
(0.118228 8.9677e-15 0)
(0.118619 8.17153e-15 0)
(0.119008 7.12584e-15 0)
(0.119397 6.6158e-15 0)
(0.119785 7.97246e-15 0)
(0.120171 7.71021e-15 0)
(0.120557 7.68311e-15 0)
(0.120941 9.1728e-15 0)
(0.121325 1.06593e-14 0)
(0.121707 1.19701e-14 0)
(0.122089 1.25144e-14 0)
(0.122469 1.4168e-14 0)
(0.122849 1.45841e-14 0)
(0.123228 1.38777e-14 0)
(0.123606 1.3979e-14 0)
(0.123983 1.48849e-14 0)
(0.124359 1.47708e-14 0)
(0.124734 1.49358e-14 0)
(0.125108 1.40389e-14 0)
(0.125482 1.51859e-14 0)
(0.125854 1.59826e-14 0)
(0.126226 1.63549e-14 0)
(0.126596 1.68317e-14 0)
(0.126966 1.73725e-14 0)
(0.127335 1.6405e-14 0)
(0.127703 1.39592e-14 0)
(0.128071 1.36315e-14 0)
(0.128437 1.28783e-14 0)
(0.128802 1.14742e-14 0)
(0.129167 9.82416e-15 0)
(0.12953 9.90341e-15 0)
(0.129892 9.24773e-15 0)
(0.130254 1.09649e-14 0)
(0.130614 1.18426e-14 0)
(0.130972 1.14422e-14 0)
(0.13133 1.17725e-14 0)
(0.131685 1.27552e-14 0)
(0.132039 1.25329e-14 0)
(0.132391 1.10022e-14 0)
(0.132741 1.22917e-14 0)
(0.133089 1.02056e-14 0)
(0.133435 1.09375e-14 0)
(0.133779 1.11023e-14 0)
(0.13412 1.30687e-14 0)
(0.134461 1.39536e-14 0)
(0.1348 1.33691e-14 0)
(0.135137 1.39483e-14 0)
(0.135474 1.42681e-14 0)
(0.135808 1.5572e-14 0)
(0.136142 1.56616e-14 0)
(0.136473 1.51733e-14 0)
(0.136803 1.4892e-14 0)
(0.137132 1.53036e-14 0)
(0.137459 1.74563e-14 0)
(0.137784 1.77281e-14 0)
(0.138108 1.80757e-14 0)
(0.13843 1.85027e-14 0)
(0.138749 1.77673e-14 0)
(0.139068 1.87721e-14 0)
(0.139384 1.81501e-14 0)
(0.139698 1.82601e-14 0)
(0.14001 1.62825e-14 0)
(0.14032 1.5271e-14 0)
(0.140628 1.58658e-14 0)
(0.140933 1.59053e-14 0)
(0.141236 1.59708e-14 0)
(0.141537 1.48097e-14 0)
(0.141836 1.38721e-14 0)
(0.142131 1.39694e-14 0)
(0.142425 1.49167e-14 0)
(0.142715 1.35054e-14 0)
(0.143003 1.35421e-14 0)
(0.143287 1.33071e-14 0)
(0.143569 1.22658e-14 0)
(0.143848 1.02769e-14 0)
(0.144123 1.15868e-14 0)
(0.144395 1.1847e-14 0)
(0.144664 1.24426e-14 0)
(0.144929 1.15055e-14 0)
(0.14519 1.30078e-14 0)
(0.145448 1.23316e-14 0)
(0.145702 1.2537e-14 0)
(0.145951 1.07567e-14 0)
(0.146197 1.11098e-14 0)
(0.146438 1.19477e-14 0)
(0.146674 1.25006e-14 0)
(0.146906 1.27304e-14 0)
(0.147133 1.24347e-14 0)
(0.147355 1.30951e-14 0)
(0.147571 1.29513e-14 0)
(0.147782 1.05585e-14 0)
(0.147988 1.1843e-14 0)
(0.148188 1.22228e-14 0)
(0.148382 1.09994e-14 0)
(0.14857 1.23624e-14 0)
(0.148751 1.28348e-14 0)
(0.148926 1.29628e-14 0)
(0.149093 1.26733e-14 0)
(0.149254 1.23957e-14 0)
(0.149407 1.24453e-14 0)
(0.149552 1.3166e-14 0)
(0.14969 1.21556e-14 0)
(0.149819 1.24924e-14 0)
(0.14994 1.27969e-14 0)
(0.150052 1.31368e-14 0)
(0.150154 1.32581e-14 0)
(0.150247 1.26487e-14 0)
(0.15033 1.20613e-14 0)
(0.150402 1.09066e-14 0)
(0.150464 9.88281e-15 0)
(0.150514 8.18076e-15 0)
(0.150553 9.4644e-15 0)
(0.150579 6.76741e-15 0)
(0.150593 6.57657e-15 0)
(0.150593 8.13926e-15 0)
(0.150579 6.81633e-15 0)
(0.150553 7.98977e-15 0)
(0.150514 7.30668e-15 0)
(0.150464 7.73111e-15 0)
(0.150402 7.92736e-15 0)
(0.15033 8.02488e-15 0)
(0.150247 1.13939e-14 0)
(0.150154 1.14327e-14 0)
(0.150052 1.19056e-14 0)
(0.14994 1.29888e-14 0)
(0.149819 1.36817e-14 0)
(0.14969 1.4683e-14 0)
(0.149552 1.40811e-14 0)
(0.149407 1.28144e-14 0)
(0.149254 1.40744e-14 0)
(0.149093 1.41433e-14 0)
(0.148926 1.28576e-14 0)
(0.148751 1.20189e-14 0)
(0.14857 1.40623e-14 0)
(0.148382 1.27501e-14 0)
(0.148188 1.29612e-14 0)
(0.147988 1.22434e-14 0)
(0.147782 1.22134e-14 0)
(0.147571 1.23517e-14 0)
(0.147355 1.16317e-14 0)
(0.147133 1.2131e-14 0)
(0.146906 1.16055e-14 0)
(0.146674 1.11794e-14 0)
(0.146438 1.2161e-14 0)
(0.146197 1.35076e-14 0)
(0.145951 1.45177e-14 0)
(0.145702 1.37038e-14 0)
(0.145448 1.32618e-14 0)
(0.14519 1.2307e-14 0)
(0.144929 1.32304e-14 0)
(0.144664 1.53502e-14 0)
(0.144395 1.5723e-14 0)
(0.144123 1.61595e-14 0)
(0.143848 1.44325e-14 0)
(0.143569 1.46981e-14 0)
(0.143287 1.45128e-14 0)
(0.143003 1.64341e-14 0)
(0.142715 1.59912e-14 0)
(0.142425 1.64271e-14 0)
(0.142131 1.74502e-14 0)
(0.141836 1.85836e-14 0)
(0.141537 1.83739e-14 0)
(0.141236 1.84638e-14 0)
(0.140933 1.89216e-14 0)
(0.140628 1.94156e-14 0)
(0.14032 1.96945e-14 0)
(0.14001 2.03539e-14 0)
(0.139698 1.92403e-14 0)
(0.139384 1.66868e-14 0)
(0.139068 1.73278e-14 0)
(0.138749 1.71804e-14 0)
(0.13843 1.57746e-14 0)
(0.138108 1.68225e-14 0)
(0.137784 1.64842e-14 0)
(0.137459 1.67756e-14 0)
(0.137132 1.7151e-14 0)
(0.136803 1.66742e-14 0)
(0.136473 1.77827e-14 0)
(0.136142 1.81385e-14 0)
(0.135808 1.71417e-14 0)
(0.135474 1.79322e-14 0)
(0.135137 1.56926e-14 0)
(0.1348 1.72892e-14 0)
(0.134461 1.78831e-14 0)
(0.13412 1.82402e-14 0)
(0.133779 1.71099e-14 0)
(0.133435 1.88515e-14 0)
(0.133089 1.77704e-14 0)
(0.132741 1.87743e-14 0)
(0.132391 1.67016e-14 0)
(0.132039 1.72343e-14 0)
(0.131685 1.5553e-14 0)
(0.13133 1.62476e-14 0)
(0.130972 1.49841e-14 0)
(0.130614 1.46642e-14 0)
(0.130254 1.2867e-14 0)
(0.129892 1.36825e-14 0)
(0.12953 1.3903e-14 0)
(0.129167 1.3654e-14 0)
(0.128802 1.33579e-14 0)
(0.128437 1.0127e-14 0)
(0.128071 9.55445e-15 0)
(0.127703 8.7985e-15 0)
(0.127335 7.37302e-15 0)
(0.126966 7.66787e-15 0)
(0.126596 9.40939e-15 0)
(0.126226 8.66971e-15 0)
(0.125854 7.46649e-15 0)
(0.125482 9.46072e-15 0)
(0.125108 9.68521e-15 0)
(0.124734 9.80271e-15 0)
(0.124359 1.05769e-14 0)
(0.123983 1.06402e-14 0)
(0.123606 9.90628e-15 0)
(0.123228 8.24785e-15 0)
(0.122849 7.92537e-15 0)
(0.122469 7.8496e-15 0)
(0.122089 9.28786e-15 0)
(0.121707 9.73894e-15 0)
(0.121325 1.05455e-14 0)
(0.120941 1.07458e-14 0)
(0.120557 1.00376e-14 0)
(0.120171 9.10608e-15 0)
(0.119785 9.26776e-15 0)
(0.119397 7.50991e-15 0)
(0.119008 6.15672e-15 0)
(0.118619 5.41153e-15 0)
(0.118228 7.52061e-15 0)
(0.117836 9.89873e-15 0)
(0.117443 9.49145e-15 0)
(0.117049 9.37205e-15 0)
(0.116654 1.02218e-14 0)
(0.116258 1.07903e-14 0)
(0.11586 9.83861e-15 0)
(0.115461 1.0544e-14 0)
(0.115061 1.00352e-14 0)
(0.11466 8.45791e-15 0)
(0.114257 7.2063e-15 0)
(0.113853 8.32015e-15 0)
(0.113447 9.23233e-15 0)
(0.113041 8.23171e-15 0)
(0.112632 7.22971e-15 0)
(0.112223 7.04724e-15 0)
(0.111812 8.13802e-15 0)
(0.111399 7.61401e-15 0)
(0.110985 8.60348e-15 0)
(0.110569 9.09825e-15 0)
(0.110151 7.6903e-15 0)
(0.109732 5.39004e-15 0)
(0.109311 6.14933e-15 0)
(0.108889 6.10552e-15 0)
(0.108464 6.27268e-15 0)
(0.108038 6.07608e-15 0)
(0.10761 5.36305e-15 0)
(0.10718 5.93794e-15 0)
(0.106748 7.45291e-15 0)
(0.106315 8.22979e-15 0)
(0.105879 6.7034e-15 0)
(0.105441 6.71799e-15 0)
(0.105001 7.47585e-15 0)
(0.104558 5.67924e-15 0)
(0.104114 4.97623e-15 0)
(0.103667 5.43307e-15 0)
(0.103218 7.02544e-15 0)
(0.102766 6.98249e-15 0)
(0.102312 7.79227e-15 0)
(0.101856 7.48328e-15 0)
(0.101396 5.96339e-15 0)
(0.100935 6.38736e-15 0)
(0.10047 5.20436e-15 0)
(0.100003 4.8932e-15 0)
(0.0995332 4.42565e-15 0)
(0.0990604 5.87883e-15 0)
(0.0985846 6.09089e-15 0)
(0.0981058 6.12927e-15 0)
(0.0976239 6.89737e-15 0)
(0.0971388 6.88478e-15 0)
(0.0966506 6.28351e-15 0)
(0.096159 6.23444e-15 0)
(0.0956641 6.4852e-15 0)
(0.0951657 4.77961e-15 0)
(0.0946637 4.73981e-15 0)
(0.0941582 4.08738e-15 0)
(0.093649 4.48387e-15 0)
(0.0931359 2.78732e-15 0)
(0.0926191 2.93252e-17 0)
(0.0920982 -2.09814e-15 0)
(0.0915734 -2.73109e-15 0)
(0.0910444 -2.26874e-15 0)
(0.0905112 -2.8202e-15 0)
(0.0899737 -8.58578e-16 0)
(0.0894318 -1.69898e-15 0)
(0.0888853 -5.89229e-17 0)
(0.0883343 -1.86336e-15 0)
(0.0877786 -2.05941e-15 0)
(0.0872181 -2.04839e-15 0)
(0.0866528 -1.69637e-15 0)
(0.0860824 -1.33458e-15 0)
(0.0855069 -1.61243e-15 0)
(0.0849263 -1.7265e-15 0)
(0.0843403 -9.32574e-16 0)
(0.083749 1.00452e-15 0)
(0.0831521 9.66814e-16 0)
(0.0825497 3.50312e-16 0)
(0.0819415 -5.37942e-16 0)
(0.0813275 -1.44412e-15 0)
(0.0807076 8.03104e-17 0)
(0.0800817 1.52733e-16 0)
(0.0794497 8.77052e-16 0)
(0.0788114 1.1647e-16 0)
(0.0781668 7.94813e-16 0)
(0.0775158 1.57955e-15 0)
(0.0768583 1.60908e-15 0)
(0.0761942 3.37291e-15 0)
(0.0755234 4.51185e-15 0)
(0.0748458 5.48535e-15 0)
(0.0741613 5.32758e-15 0)
(0.07347 6.70725e-15 0)
(0.0727716 5.83761e-15 0)
(0.0720661 8.60047e-15 0)
(0.0713535 7.1133e-15 0)
(0.0706337 8.47138e-15 0)
(0.0699067 9.61976e-15 0)
(0.0691725 1.16641e-14 0)
(0.068431 9.53467e-15 0)
(0.0676821 1.00273e-14 0)
(0.066926 1.45536e-14 0)
(0.0661625 1.19547e-14 0)
(0.0653917 1.08903e-14 0)
(0.0646137 9.64998e-15 0)
(0.0638285 7.94949e-15 0)
(0.0630361 1.14979e-14 0)
(0.0622367 9.84373e-15 0)
(0.0614302 9.25706e-15 0)
(0.0606168 1.16771e-14 0)
(0.0597963 7.54399e-15 0)
(0.0589679 6.6884e-15 0)
(0.0581312 7.79273e-15 0)
(0.0572861 6.14185e-15 0)
(0.0564327 2.05214e-15 0)
(0.0555711 3.18911e-15 0)
(0.0547016 5.1455e-15 0)
(0.0538242 1.23154e-15 0)
(0.0529393 5.21274e-17 0)
(0.052047 6.18557e-17 0)
(0.0511477 2.57004e-16 0)
(0.0502418 3.45408e-15 0)
(0.0493297 8.62067e-16 0)
(0.0484119 -8.63651e-16 0)
(0.0474888 -2.88719e-15 0)
(0.0465611 8.04369e-16 0)
(0.0456294 9.70355e-16 0)
(0.0446942 3.37527e-15 0)
(0.0437564 4.75028e-15 0)
(0.0428166 5.95906e-15 0)
(0.0418756 8.41405e-15 0)
(0.0409342 7.49204e-15 0)
(0.0399932 5.6592e-15 0)
(0.0390535 6.18404e-15 0)
(0.0381157 5.28e-15 0)
(0.0371808 6.47578e-15 0)
(0.0362495 3.66613e-15 0)
(0.0353227 2.40777e-16 0)
(0.0344009 -4.65351e-15 0)
(0.0334851 -1.01767e-14 0)
(0.0325757 -1.18052e-14 0)
(0.0316735 -7.98465e-15 0)
(0.0307791 -8.13794e-15 0)
(0.0298928 -5.94702e-15 0)
(0.0290153 -7.46518e-15 0)
(0.0281469 -4.91852e-15 0)
(0.027288 -3.6333e-15 0)
(0.0264388 -4.95947e-15 0)
(0.0255998 -5.28442e-15 0)
(0.024771 -4.02741e-15 0)
(0.0239527 -3.87417e-15 0)
(0.0231449 -2.09965e-15 0)
(0.0223479 -1.18902e-15 0)
(0.0215615 1.68707e-15 0)
(0.020786 -6.01162e-16 0)
(0.0200213 3.52186e-15 0)
(0.0192673 6.2677e-15 0)
(0.0185241 6.33618e-15 0)
(0.0177916 7.22992e-15 0)
(0.0170696 8.44795e-15 0)
(0.0163582 8.32396e-15 0)
(0.0156573 8.24153e-15 0)
(0.0149667 7.15711e-15 0)
(0.0142863 8.06185e-15 0)
(0.013616 5.51396e-15 0)
(0.0129557 6.04747e-15 0)
(0.0123053 8.10359e-15 0)
(0.0116646 6.73843e-15 0)
(0.0110335 5.80028e-15 0)
(0.0104119 3.72321e-15 0)
(0.00979959 2.82662e-15 0)
(0.00919653 2.96318e-15 0)
(0.00860256 3.40515e-15 0)
(0.00801753 3.32322e-15 0)
(0.00744133 3.79171e-15 0)
(0.00687381 2.96955e-15 0)
(0.00631486 2.06257e-15 0)
(0.00576435 7.78117e-16 0)
(0.00522215 1.63014e-15 0)
(0.00468815 2.88848e-15 0)
(0.00416221 2.43107e-15 0)
(0.00364421 5.40613e-15 0)
(0.00313405 3.99643e-15 0)
(0.00263159 3.66127e-15 0)
(0.00213674 4.46774e-15 0)
(0.00164937 3.12395e-15 0)
(0.00116937 7.24618e-17 0)
(0.000696625 -3.15724e-16 0)
(0.000231037 1.71697e-16 0)
)
;

boundaryField
{
    bottomWall
    {
        type            noSlip;
    }
    topWall
    {
        type            noSlip;
    }
    sides1_half0
    {
        type            empty;
    }
    sides1_half1
    {
        type            empty;
    }
    sides2_half0
    {
        type            empty;
    }
    sides2_half1
    {
        type            empty;
    }
    inout1_half0
    {
        type            cyclic;
    }
    inout1_half1
    {
        type            cyclic;
    }
    inout2_half0
    {
        type            cyclic;
    }
    inout2_half1
    {
        type            cyclic;
    }
}


// ************************************************************************* //
