/*--------------------------------*- C++ -*----------------------------------*\
  =========                 |
  \\      /  F ield         | OpenFOAM: The Open Source CFD Toolbox
   \\    /   O peration     | Website:  https://openfoam.org
    \\  /    A nd           | Version:  7
     \\/     M anipulation  |
\*---------------------------------------------------------------------------*/
FoamFile
{
    version     2.0;
    format      ascii;
    class       volScalarField;
    location    "2500";
    object      nut;
}
// * * * * * * * * * * * * * * * * * * * * * * * * * * * * * * * * * * * * * //

dimensions      [0 2 -1 0 0 0 0];

internalField   nonuniform List<scalar> 
3963
(
0.00105133
0.00105156
0.00105158
0.00105156
0.00105153
0.0010515
0.00105147
0.00105144
0.00105142
0.00105139
0.00105136
0.00105134
0.00105131
0.00105128
0.00105126
0.00105123
0.0010512
0.00105118
0.00105115
0.00105112
0.00105109
0.00105099
0.00105088
0.00105076
0.00105068
0.00105063
0.00105059
0.00105055
0.00105052
0.00105049
0.00105046
0.00105043
0.00105041
0.00105038
0.00105036
0.00105035
0.00105023
0.00101334
0.00101355
0.00101358
0.00101356
0.00101353
0.0010135
0.00101347
0.00101344
0.00101341
0.00101339
0.00101336
0.00101333
0.0010133
0.00101327
0.00101325
0.00101322
0.00101319
0.00101316
0.00101314
0.00101311
0.00101302
0.00101375
0.00101403
0.00101417
0.00101407
0.00101396
0.00101391
0.00101354
0.0010133
0.00101313
0.00101301
0.00101292
0.00101285
0.00101279
0.00101273
0.00101269
0.00101264
0.0010126
0.00101257
0.00101253
0.0010125
0.00101248
0.00101236
0.000976421
0.000976607
0.000976631
0.000976615
0.00097659
0.000976561
0.000976531
0.000976502
0.000976472
0.000976443
0.000976414
0.000976385
0.000976357
0.000976329
0.000976301
0.000976274
0.000976246
0.000976218
0.00097619
0.000976169
0.000976099
0.000976338
0.000976511
0.000977352
0.000977717
0.000977834
0.00097788
0.000977906
0.000977926
0.00097794
0.000977951
0.000977958
0.000977963
0.000977967
0.000977969
0.000977969
0.000977969
0.000977969
0.000977967
0.000977965
0.000977963
0.000977961
0.000977958
0.000977955
0.000977952
0.000977948
0.000977945
0.000977941
0.000977937
0.000977933
0.000977929
0.000977925
0.00097792
0.000977916
0.000977911
0.000977906
0.000977901
0.000977896
0.000977891
0.000977886
0.000977881
0.000977875
0.00097787
0.000977864
0.000977859
0.000977853
0.000977847
0.000977841
0.000977835
0.000977829
0.000977823
0.000977817
0.000977811
0.000977805
0.000977799
0.000977793
0.000977787
0.00097778
0.000977774
0.000977768
0.000977762
0.000977757
0.000977751
0.000977745
0.000977739
0.000977734
0.000977729
0.000977723
0.000977718
0.000977713
0.000977708
0.000977703
0.000977698
0.000977693
0.000977688
0.000977683
0.000977679
0.000977674
0.000977668
0.00097768
0.000977362
0.000977164
0.000977032
0.000976955
0.000976773
0.000976583
0.000976423
0.000976294
0.000976189
0.000976102
0.000976028
0.000975964
0.000975906
0.000975854
0.000975807
0.000975763
0.000975722
0.00097568
0.000975658
0.000975532
0.000940586
0.000940749
0.000940767
0.00094075
0.000940725
0.000940697
0.000940669
0.00094064
0.000940611
0.000940581
0.000940553
0.000940524
0.000940496
0.000940469
0.000940442
0.000940415
0.000940387
0.00094036
0.000940333
0.00094031
0.000940261
0.000940324
0.0009404
0.000940751
0.000941068
0.000941264
0.000941376
0.000941446
0.000941494
0.000941531
0.000941559
0.000941582
0.000941599
0.000941614
0.000941626
0.000941635
0.000941643
0.000941649
0.000941654
0.000941658
0.000941661
0.000941664
0.000941665
0.000941666
0.000941667
0.000941667
0.000941667
0.000941667
0.000941666
0.000941665
0.000941664
0.000941662
0.00094166
0.000941658
0.000941656
0.000941653
0.000941651
0.000941648
0.000941644
0.000941641
0.000941638
0.000941634
0.00094163
0.000941626
0.000941622
0.000941618
0.000941614
0.00094161
0.000941605
0.0009416
0.000941596
0.000941591
0.000941586
0.000941581
0.000941577
0.000941572
0.000941567
0.000941562
0.000941557
0.000941552
0.000941547
0.000941543
0.000941538
0.000941533
0.000941529
0.000941524
0.00094152
0.000941516
0.000941511
0.000941507
0.000941503
0.000941499
0.000941495
0.000941491
0.000941487
0.000941483
0.000941479
0.000941475
0.00094147
0.00094148
0.000941366
0.000941233
0.000941118
0.000941036
0.000940927
0.000940799
0.000940672
0.000940558
0.000940457
0.00094037
0.000940294
0.000940226
0.000940165
0.00094011
0.000940059
0.000940011
0.000939968
0.000939923
0.000939899
0.000939774
0.00090584
0.000905985
0.000905997
0.000905979
0.000905954
0.000905927
0.0009059
0.000905872
0.000905844
0.000905816
0.000905788
0.000905761
0.000905734
0.000905707
0.000905681
0.000905655
0.000905628
0.000905602
0.000905576
0.000905552
0.000905517
0.000905519
0.000905539
0.000905675
0.000905862
0.000906025
0.000906145
0.00090623
0.000906293
0.000906341
0.000906379
0.00090641
0.000906435
0.000906456
0.000906474
0.000906489
0.000906502
0.000906513
0.000906522
0.00090653
0.000906537
0.000906543
0.000906548
0.000906552
0.000906556
0.000906559
0.000906561
0.000906563
0.000906565
0.000906566
0.000906567
0.000906567
0.000906567
0.000906567
0.000906566
0.000906566
0.000906564
0.000906563
0.000906561
0.00090656
0.000906558
0.000906555
0.000906553
0.000906551
0.000906548
0.000906545
0.000906542
0.000906539
0.000906536
0.000906532
0.000906529
0.000906525
0.000906521
0.000906518
0.000906514
0.00090651
0.000906506
0.000906502
0.000906498
0.000906495
0.000906491
0.000906487
0.000906483
0.00090648
0.000906476
0.000906472
0.000906469
0.000906465
0.000906462
0.000906459
0.000906456
0.000906452
0.000906449
0.000906446
0.000906443
0.00090644
0.000906436
0.000906433
0.000906429
0.000906433
0.000906394
0.000906324
0.000906246
0.000906178
0.000906105
0.000906019
0.000905928
0.000905837
0.000905753
0.000905675
0.000905605
0.00090554
0.000905482
0.000905427
0.000905377
0.00090533
0.000905286
0.000905242
0.000905217
0.000905096
0.000872186
0.000872318
0.000872326
0.000872308
0.000872283
0.000872258
0.000872232
0.000872205
0.000872179
0.000872152
0.000872126
0.0008721
0.000872074
0.000872049
0.000872024
0.000871999
0.000871974
0.00087195
0.000871925
0.000871901
0.000871873
0.000871857
0.000871851
0.000871895
0.000871984
0.000872086
0.00087218
0.000872256
0.000872317
0.000872366
0.000872406
0.000872439
0.000872467
0.000872491
0.000872511
0.000872529
0.000872544
0.000872558
0.000872569
0.00087258
0.000872589
0.000872597
0.000872604
0.00087261
0.000872615
0.00087262
0.000872624
0.000872628
0.000872631
0.000872634
0.000872636
0.000872638
0.000872639
0.00087264
0.000872641
0.000872641
0.000872641
0.000872641
0.000872641
0.00087264
0.000872639
0.000872638
0.000872637
0.000872635
0.000872634
0.000872632
0.00087263
0.000872628
0.000872625
0.000872623
0.000872621
0.000872618
0.000872615
0.000872612
0.000872609
0.000872607
0.000872604
0.000872601
0.000872598
0.000872595
0.000872592
0.000872589
0.000872586
0.000872583
0.00087258
0.000872577
0.000872574
0.000872572
0.000872569
0.000872567
0.000872564
0.000872562
0.000872559
0.000872557
0.000872554
0.000872551
0.000872549
0.000872546
0.000872543
0.000872544
0.000872531
0.000872498
0.000872452
0.000872405
0.000872354
0.000872297
0.000872233
0.000872167
0.000872101
0.000872038
0.000871978
0.000871921
0.000871868
0.000871819
0.000871772
0.000871728
0.000871687
0.000871645
0.000871621
0.000871505
0.000839627
0.000839746
0.000839753
0.000839735
0.000839712
0.000839688
0.000839664
0.000839639
0.000839615
0.00083959
0.000839565
0.000839541
0.000839517
0.000839494
0.00083947
0.000839447
0.000839424
0.000839401
0.000839377
0.000839355
0.000839331
0.00083931
0.000839295
0.0008393
0.000839333
0.000839385
0.000839444
0.000839499
0.000839548
0.00083959
0.000839626
0.000839657
0.000839684
0.000839707
0.000839727
0.000839744
0.00083976
0.000839774
0.000839786
0.000839797
0.000839807
0.000839816
0.000839824
0.000839831
0.000839837
0.000839843
0.000839848
0.000839852
0.000839856
0.00083986
0.000839863
0.000839866
0.000839868
0.00083987
0.000839872
0.000839873
0.000839874
0.000839875
0.000839875
0.000839875
0.000839875
0.000839875
0.000839874
0.000839874
0.000839873
0.000839872
0.00083987
0.000839869
0.000839868
0.000839866
0.000839864
0.000839862
0.00083986
0.000839858
0.000839856
0.000839854
0.000839852
0.000839849
0.000839847
0.000839845
0.000839843
0.00083984
0.000839838
0.000839836
0.000839834
0.000839832
0.00083983
0.000839828
0.000839826
0.000839824
0.000839822
0.00083982
0.000839818
0.000839816
0.000839814
0.000839812
0.00083981
0.000839808
0.000839805
0.000839805
0.0008398
0.000839785
0.000839761
0.000839731
0.000839698
0.00083966
0.000839617
0.00083957
0.000839521
0.000839472
0.000839424
0.000839378
0.000839333
0.00083929
0.000839249
0.000839209
0.000839172
0.000839134
0.000839112
0.000839004
0.000808155
0.000808265
0.000808271
0.000808255
0.000808233
0.000808211
0.000808189
0.000808167
0.000808144
0.000808121
0.000808099
0.000808077
0.000808055
0.000808033
0.000808012
0.00080799
0.000807969
0.000807947
0.000807926
0.000807905
0.000807883
0.000807863
0.000807845
0.000807835
0.00080784
0.00080786
0.00080789
0.000807924
0.000807957
0.000807988
0.000808016
0.000808041
0.000808064
0.000808083
0.000808101
0.000808117
0.000808132
0.000808144
0.000808156
0.000808167
0.000808176
0.000808185
0.000808193
0.0008082
0.000808206
0.000808212
0.000808217
0.000808222
0.000808227
0.000808231
0.000808234
0.000808237
0.00080824
0.000808242
0.000808244
0.000808246
0.000808248
0.000808249
0.00080825
0.000808251
0.000808251
0.000808251
0.000808251
0.000808251
0.000808251
0.00080825
0.00080825
0.000808249
0.000808248
0.000808247
0.000808246
0.000808245
0.000808243
0.000808242
0.00080824
0.000808239
0.000808237
0.000808236
0.000808234
0.000808232
0.00080823
0.000808229
0.000808227
0.000808226
0.000808224
0.000808222
0.000808221
0.000808219
0.000808218
0.000808217
0.000808215
0.000808214
0.000808212
0.000808211
0.000808209
0.000808208
0.000808206
0.000808205
0.000808203
0.000808202
0.000808199
0.000808193
0.00080818
0.000808163
0.000808142
0.000808117
0.000808089
0.000808057
0.000808022
0.000807986
0.000807949
0.000807912
0.000807876
0.00080784
0.000807806
0.000807772
0.00080774
0.000807706
0.000807688
0.000807587
0.000777761
0.000777861
0.000777868
0.000777854
0.000777835
0.000777815
0.000777795
0.000777775
0.000777755
0.000777734
0.000777714
0.000777694
0.000777674
0.000777655
0.000777635
0.000777616
0.000777596
0.000777576
0.000777557
0.000777537
0.000777518
0.000777499
0.000777481
0.000777467
0.00077746
0.000777462
0.000777472
0.000777488
0.000777507
0.000777526
0.000777545
0.000777563
0.00077758
0.000777596
0.00077761
0.000777623
0.000777635
0.000777646
0.000777656
0.000777665
0.000777674
0.000777681
0.000777689
0.000777695
0.000777701
0.000777707
0.000777712
0.000777717
0.000777721
0.000777725
0.000777728
0.000777732
0.000777734
0.000777737
0.000777739
0.000777741
0.000777743
0.000777744
0.000777746
0.000777747
0.000777747
0.000777748
0.000777749
0.000777749
0.000777749
0.000777749
0.000777749
0.000777748
0.000777748
0.000777747
0.000777747
0.000777746
0.000777745
0.000777744
0.000777743
0.000777742
0.000777741
0.00077774
0.000777738
0.000777737
0.000777736
0.000777735
0.000777734
0.000777732
0.000777731
0.00077773
0.000777729
0.000777728
0.000777727
0.000777726
0.000777725
0.000777724
0.000777723
0.000777722
0.000777721
0.00077772
0.000777719
0.000777717
0.000777716
0.000777715
0.000777713
0.00077771
0.000777704
0.000777694
0.000777681
0.000777665
0.000777647
0.000777625
0.000777602
0.000777576
0.000777548
0.00077752
0.000777492
0.000777463
0.000777435
0.000777407
0.00077738
0.000777351
0.000777336
0.000777244
0.000748427
0.00074852
0.000748527
0.000748515
0.000748499
0.000748482
0.000748464
0.000748446
0.000748428
0.00074841
0.000748392
0.000748374
0.000748357
0.000748339
0.000748322
0.000748304
0.000748287
0.000748269
0.000748251
0.000748234
0.000748216
0.000748199
0.000748182
0.000748167
0.000748155
0.000748148
0.000748147
0.000748151
0.000748159
0.000748169
0.00074818
0.000748191
0.000748202
0.000748213
0.000748223
0.000748233
0.000748242
0.00074825
0.000748258
0.000748266
0.000748273
0.000748279
0.000748285
0.000748291
0.000748296
0.000748301
0.000748306
0.00074831
0.000748314
0.000748318
0.000748321
0.000748324
0.000748327
0.000748329
0.000748331
0.000748333
0.000748335
0.000748337
0.000748338
0.000748339
0.00074834
0.000748341
0.000748341
0.000748342
0.000748342
0.000748342
0.000748343
0.000748343
0.000748342
0.000748342
0.000748342
0.000748341
0.000748341
0.00074834
0.00074834
0.000748339
0.000748338
0.000748337
0.000748337
0.000748336
0.000748335
0.000748334
0.000748333
0.000748333
0.000748332
0.000748331
0.000748331
0.00074833
0.000748329
0.000748329
0.000748328
0.000748327
0.000748327
0.000748326
0.000748325
0.000748324
0.000748323
0.000748323
0.000748321
0.00074832
0.000748319
0.000748317
0.000748314
0.000748308
0.000748301
0.000748291
0.000748279
0.000748265
0.000748248
0.00074823
0.000748211
0.00074819
0.000748168
0.000748146
0.000748123
0.000748101
0.000748079
0.000748054
0.000748043
0.000747959
0.000720135
0.000720219
0.000720227
0.000720218
0.000720204
0.000720189
0.000720174
0.000720159
0.000720143
0.000720127
0.000720111
0.000720095
0.00072008
0.000720064
0.000720049
0.000720033
0.000720018
0.000720002
0.000719986
0.00071997
0.000719955
0.00071994
0.000719924
0.00071991
0.000719897
0.000719887
0.00071988
0.000719877
0.000719877
0.000719879
0.000719884
0.000719889
0.000719895
0.000719901
0.000719908
0.000719914
0.00071992
0.000719926
0.000719932
0.000719938
0.000719943
0.000719948
0.000719953
0.000719957
0.000719962
0.000719966
0.000719969
0.000719973
0.000719976
0.000719979
0.000719982
0.000719985
0.000719987
0.00071999
0.000719992
0.000719993
0.000719995
0.000719997
0.000719998
0.000719999
0.00072
0.000720001
0.000720002
0.000720002
0.000720003
0.000720003
0.000720003
0.000720004
0.000720004
0.000720004
0.000720004
0.000720003
0.000720003
0.000720003
0.000720002
0.000720002
0.000720002
0.000720001
0.000720001
0.00072
0.00072
0.000719999
0.000719999
0.000719998
0.000719998
0.000719998
0.000719997
0.000719997
0.000719997
0.000719996
0.000719996
0.000719995
0.000719995
0.000719995
0.000719994
0.000719994
0.000719993
0.000719992
0.000719991
0.00071999
0.000719989
0.000719988
0.000719986
0.000719983
0.000719978
0.000719972
0.000719964
0.000719955
0.000719944
0.000719931
0.000719917
0.000719902
0.000719886
0.000719869
0.000719851
0.000719833
0.000719816
0.000719795
0.000719787
0.000719711
0.000692857
0.000692935
0.000692943
0.000692935
0.000692924
0.000692912
0.000692899
0.000692886
0.000692872
0.000692859
0.000692845
0.000692831
0.000692818
0.000692804
0.000692791
0.000692777
0.000692763
0.000692749
0.000692735
0.000692721
0.000692707
0.000692694
0.00069268
0.000692667
0.000692654
0.000692643
0.000692634
0.000692627
0.000692623
0.000692621
0.00069262
0.000692621
0.000692623
0.000692626
0.000692629
0.000692633
0.000692636
0.00069264
0.000692643
0.000692647
0.000692651
0.000692654
0.000692658
0.000692661
0.000692664
0.000692667
0.00069267
0.000692673
0.000692676
0.000692678
0.000692681
0.000692683
0.000692685
0.000692687
0.000692689
0.00069269
0.000692692
0.000692693
0.000692694
0.000692695
0.000692696
0.000692697
0.000692698
0.000692698
0.000692699
0.000692699
0.0006927
0.0006927
0.0006927
0.000692701
0.000692701
0.000692701
0.000692701
0.000692701
0.0006927
0.0006927
0.0006927
0.0006927
0.0006927
0.000692699
0.000692699
0.000692699
0.000692699
0.000692699
0.000692699
0.000692698
0.000692698
0.000692698
0.000692698
0.000692698
0.000692698
0.000692698
0.000692697
0.000692697
0.000692697
0.000692696
0.000692696
0.000692695
0.000692695
0.000692694
0.000692693
0.000692692
0.000692691
0.000692688
0.000692686
0.000692682
0.000692676
0.00069267
0.000692663
0.000692654
0.000692644
0.000692633
0.000692621
0.000692608
0.000692595
0.000692581
0.000692567
0.00069255
0.000692545
0.000692477
0.000666566
0.000666637
0.000666645
0.00066664
0.000666631
0.000666621
0.00066661
0.000666599
0.000666588
0.000666576
0.000666564
0.000666552
0.00066654
0.000666529
0.000666517
0.000666505
0.000666493
0.000666481
0.000666468
0.000666456
0.000666444
0.000666432
0.00066642
0.000666408
0.000666397
0.000666386
0.000666376
0.000666368
0.000666361
0.000666357
0.000666353
0.000666351
0.00066635
0.00066635
0.000666351
0.000666352
0.000666353
0.000666355
0.000666356
0.000666358
0.000666361
0.000666363
0.000666365
0.000666367
0.000666369
0.000666371
0.000666374
0.000666376
0.000666378
0.00066638
0.000666381
0.000666383
0.000666385
0.000666386
0.000666388
0.000666389
0.00066639
0.000666391
0.000666392
0.000666393
0.000666394
0.000666395
0.000666396
0.000666396
0.000666397
0.000666398
0.000666398
0.000666398
0.000666399
0.000666399
0.000666399
0.000666399
0.000666399
0.0006664
0.0006664
0.0006664
0.0006664
0.0006664
0.0006664
0.0006664
0.0006664
0.0006664
0.0006664
0.0006664
0.0006664
0.0006664
0.0006664
0.0006664
0.0006664
0.0006664
0.0006664
0.0006664
0.0006664
0.0006664
0.0006664
0.0006664
0.000666399
0.000666399
0.000666398
0.000666398
0.000666397
0.000666396
0.000666395
0.000666393
0.000666391
0.000666389
0.000666385
0.000666381
0.000666375
0.000666369
0.000666362
0.000666354
0.000666345
0.000666336
0.000666325
0.000666315
0.000666303
0.00066629
0.000666287
0.000666226
0.000641231
0.000641295
0.000641303
0.000641299
0.000641292
0.000641284
0.000641276
0.000641266
0.000641257
0.000641247
0.000641236
0.000641226
0.000641217
0.000641207
0.000641196
0.000641186
0.000641176
0.000641165
0.000641154
0.000641143
0.000641133
0.000641122
0.000641112
0.000641101
0.000641091
0.000641081
0.000641072
0.000641063
0.000641056
0.00064105
0.000641045
0.000641041
0.000641038
0.000641036
0.000641035
0.000641034
0.000641034
0.000641034
0.000641034
0.000641035
0.000641036
0.000641037
0.000641038
0.000641039
0.00064104
0.000641041
0.000641043
0.000641044
0.000641046
0.000641047
0.000641048
0.00064105
0.000641051
0.000641052
0.000641053
0.000641054
0.000641055
0.000641056
0.000641057
0.000641058
0.000641059
0.000641059
0.00064106
0.000641061
0.000641061
0.000641062
0.000641062
0.000641063
0.000641063
0.000641063
0.000641064
0.000641064
0.000641064
0.000641064
0.000641065
0.000641065
0.000641065
0.000641065
0.000641065
0.000641065
0.000641066
0.000641066
0.000641066
0.000641066
0.000641066
0.000641067
0.000641067
0.000641067
0.000641067
0.000641067
0.000641068
0.000641068
0.000641068
0.000641068
0.000641068
0.000641068
0.000641067
0.000641067
0.000641067
0.000641066
0.000641065
0.000641065
0.000641064
0.000641062
0.000641061
0.000641059
0.000641056
0.000641053
0.000641049
0.000641045
0.00064104
0.000641034
0.000641027
0.00064102
0.000641012
0.000641003
0.000640995
0.000640984
0.000640982
0.000640928
0.000616817
0.000616875
0.000616883
0.00061688
0.000616875
0.000616869
0.000616861
0.000616854
0.000616846
0.000616837
0.000616829
0.00061682
0.000616812
0.000616803
0.000616795
0.000616786
0.000616777
0.000616767
0.000616758
0.000616749
0.00061674
0.000616731
0.000616721
0.000616712
0.000616703
0.000616695
0.000616686
0.000616678
0.000616671
0.000616664
0.000616659
0.000616654
0.00061665
0.000616647
0.000616644
0.000616642
0.00061664
0.000616639
0.000616639
0.000616638
0.000616638
0.000616638
0.000616638
0.000616639
0.000616639
0.00061664
0.000616641
0.000616641
0.000616642
0.000616643
0.000616644
0.000616645
0.000616646
0.000616647
0.000616647
0.000616648
0.000616649
0.00061665
0.00061665
0.000616651
0.000616652
0.000616652
0.000616653
0.000616654
0.000616654
0.000616655
0.000616655
0.000616656
0.000616656
0.000616657
0.000616657
0.000616657
0.000616658
0.000616658
0.000616658
0.000616658
0.000616659
0.000616659
0.000616659
0.00061666
0.00061666
0.00061666
0.000616661
0.000616661
0.000616661
0.000616662
0.000616662
0.000616662
0.000616663
0.000616663
0.000616663
0.000616663
0.000616664
0.000616664
0.000616664
0.000616664
0.000616664
0.000616663
0.000616663
0.000616662
0.000616662
0.000616661
0.00061666
0.000616659
0.000616658
0.000616656
0.000616654
0.000616652
0.000616649
0.000616646
0.000616642
0.000616637
0.000616632
0.000616627
0.00061662
0.000616614
0.000616607
0.000616598
0.000616598
0.00061655
0.00059329
0.000593341
0.000593349
0.000593348
0.000593343
0.000593338
0.000593333
0.000593326
0.00059332
0.000593313
0.000593306
0.000593298
0.000593291
0.000593284
0.000593277
0.000593269
0.000593261
0.000593253
0.000593245
0.000593237
0.000593229
0.000593222
0.000593214
0.000593206
0.000593198
0.00059319
0.000593183
0.000593175
0.000593169
0.000593162
0.000593157
0.000593151
0.000593147
0.000593143
0.00059314
0.000593137
0.000593135
0.000593133
0.000593131
0.00059313
0.000593129
0.000593129
0.000593128
0.000593128
0.000593128
0.000593128
0.000593128
0.000593129
0.000593129
0.00059313
0.00059313
0.000593131
0.000593131
0.000593132
0.000593132
0.000593133
0.000593134
0.000593134
0.000593135
0.000593135
0.000593136
0.000593137
0.000593137
0.000593138
0.000593138
0.000593139
0.000593139
0.00059314
0.00059314
0.000593141
0.000593141
0.000593141
0.000593142
0.000593142
0.000593143
0.000593143
0.000593143
0.000593144
0.000593144
0.000593145
0.000593145
0.000593146
0.000593146
0.000593146
0.000593147
0.000593147
0.000593148
0.000593148
0.000593149
0.000593149
0.000593149
0.00059315
0.00059315
0.00059315
0.00059315
0.00059315
0.00059315
0.00059315
0.000593149
0.000593149
0.000593148
0.000593148
0.000593147
0.000593146
0.000593145
0.000593143
0.000593142
0.00059314
0.000593137
0.000593135
0.000593132
0.000593128
0.000593124
0.00059312
0.000593115
0.00059311
0.000593104
0.000593097
0.000593097
0.000593055
0.000570613
0.000570658
0.000570665
0.000570664
0.000570661
0.000570657
0.000570653
0.000570648
0.000570642
0.000570636
0.00057063
0.000570624
0.000570618
0.000570612
0.000570606
0.0005706
0.000570593
0.000570586
0.000570579
0.000570572
0.000570566
0.000570559
0.000570552
0.000570545
0.000570539
0.000570532
0.000570525
0.000570519
0.000570513
0.000570507
0.000570501
0.000570496
0.000570492
0.000570488
0.000570484
0.000570481
0.000570478
0.000570476
0.000570474
0.000570473
0.000570471
0.00057047
0.000570469
0.000570469
0.000570468
0.000570468
0.000570468
0.000570468
0.000570468
0.000570468
0.000570468
0.000570469
0.000570469
0.000570469
0.00057047
0.00057047
0.000570471
0.000570471
0.000570472
0.000570472
0.000570473
0.000570473
0.000570474
0.000570474
0.000570475
0.000570475
0.000570476
0.000570476
0.000570477
0.000570477
0.000570478
0.000570478
0.000570479
0.000570479
0.00057048
0.00057048
0.000570481
0.000570481
0.000570482
0.000570482
0.000570483
0.000570483
0.000570484
0.000570484
0.000570485
0.000570485
0.000570486
0.000570486
0.000570487
0.000570487
0.000570488
0.000570488
0.000570488
0.000570488
0.000570488
0.000570488
0.000570488
0.000570488
0.000570488
0.000570487
0.000570487
0.000570486
0.000570485
0.000570484
0.000570483
0.000570482
0.000570481
0.000570479
0.000570477
0.000570475
0.000570472
0.000570469
0.000570466
0.000570463
0.000570459
0.000570454
0.00057045
0.000570444
0.000570445
0.000570407
0.000548748
0.000548787
0.000548794
0.000548794
0.000548792
0.000548788
0.000548785
0.000548781
0.000548776
0.000548771
0.000548766
0.000548761
0.000548756
0.000548751
0.000548746
0.000548741
0.000548735
0.000548729
0.000548723
0.000548717
0.000548712
0.000548706
0.0005487
0.000548694
0.000548689
0.000548683
0.000548677
0.000548671
0.000548666
0.000548661
0.000548656
0.000548651
0.000548647
0.000548643
0.000548639
0.000548636
0.000548633
0.000548631
0.000548628
0.000548627
0.000548625
0.000548624
0.000548622
0.000548622
0.000548621
0.00054862
0.00054862
0.00054862
0.00054862
0.00054862
0.00054862
0.00054862
0.00054862
0.00054862
0.000548621
0.000548621
0.000548621
0.000548622
0.000548622
0.000548623
0.000548623
0.000548623
0.000548624
0.000548624
0.000548625
0.000548626
0.000548626
0.000548627
0.000548627
0.000548628
0.000548628
0.000548629
0.000548629
0.00054863
0.00054863
0.000548631
0.000548632
0.000548632
0.000548633
0.000548633
0.000548634
0.000548634
0.000548635
0.000548636
0.000548636
0.000548637
0.000548637
0.000548638
0.000548638
0.000548639
0.000548639
0.00054864
0.00054864
0.00054864
0.00054864
0.00054864
0.00054864
0.00054864
0.00054864
0.000548639
0.000548639
0.000548638
0.000548637
0.000548637
0.000548635
0.000548634
0.000548633
0.000548631
0.00054863
0.000548628
0.000548626
0.000548623
0.000548621
0.000548618
0.000548614
0.000548611
0.000548607
0.000548602
0.000548603
0.00054857
0.000527658
0.000527692
0.000527699
0.000527699
0.000527697
0.000527694
0.000527692
0.000527688
0.000527684
0.00052768
0.000527676
0.000527672
0.000527668
0.000527664
0.000527659
0.000527655
0.00052765
0.000527645
0.00052764
0.000527635
0.00052763
0.000527625
0.00052762
0.000527615
0.000527611
0.000527606
0.000527601
0.000527596
0.000527591
0.000527586
0.000527582
0.000527578
0.000527574
0.00052757
0.000527567
0.000527564
0.000527561
0.000527558
0.000527556
0.000527554
0.000527552
0.000527551
0.00052755
0.000527549
0.000527548
0.000527547
0.000527547
0.000527546
0.000527546
0.000527546
0.000527546
0.000527546
0.000527546
0.000527546
0.000527547
0.000527547
0.000527547
0.000527547
0.000527548
0.000527548
0.000527549
0.000527549
0.00052755
0.00052755
0.000527551
0.000527551
0.000527552
0.000527552
0.000527553
0.000527554
0.000527554
0.000527555
0.000527555
0.000527556
0.000527557
0.000527557
0.000527558
0.000527559
0.000527559
0.00052756
0.000527561
0.000527561
0.000527562
0.000527563
0.000527563
0.000527564
0.000527564
0.000527565
0.000527565
0.000527566
0.000527566
0.000527567
0.000527567
0.000527567
0.000527567
0.000527567
0.000527567
0.000527567
0.000527567
0.000527566
0.000527566
0.000527565
0.000527565
0.000527564
0.000527563
0.000527562
0.00052756
0.000527559
0.000527557
0.000527556
0.000527554
0.000527552
0.000527549
0.000527547
0.000527544
0.000527541
0.000527538
0.000527533
0.000527534
0.000527506
0.000507306
0.000507335
0.000507341
0.000507341
0.00050734
0.000507338
0.000507336
0.000507333
0.00050733
0.000507326
0.000507323
0.00050732
0.000507316
0.000507313
0.000507309
0.000507305
0.000507301
0.000507297
0.000507293
0.000507289
0.000507284
0.00050728
0.000507276
0.000507272
0.000507268
0.000507264
0.000507259
0.000507255
0.000507251
0.000507247
0.000507243
0.000507239
0.000507236
0.000507233
0.000507229
0.000507226
0.000507224
0.000507221
0.000507219
0.000507217
0.000507216
0.000507214
0.000507213
0.000507212
0.000507211
0.000507211
0.00050721
0.00050721
0.000507209
0.000507209
0.000507209
0.000507209
0.000507209
0.000507209
0.00050721
0.00050721
0.00050721
0.000507211
0.000507211
0.000507211
0.000507212
0.000507212
0.000507213
0.000507213
0.000507214
0.000507215
0.000507215
0.000507216
0.000507216
0.000507217
0.000507218
0.000507218
0.000507219
0.00050722
0.00050722
0.000507221
0.000507222
0.000507222
0.000507223
0.000507224
0.000507225
0.000507225
0.000507226
0.000507227
0.000507227
0.000507228
0.000507229
0.000507229
0.00050723
0.00050723
0.000507231
0.000507231
0.000507231
0.000507232
0.000507232
0.000507232
0.000507232
0.000507231
0.000507231
0.000507231
0.00050723
0.00050723
0.000507229
0.000507228
0.000507227
0.000507226
0.000507225
0.000507224
0.000507222
0.000507221
0.000507219
0.000507217
0.000507215
0.000507213
0.00050721
0.000507207
0.000507205
0.000507201
0.000507202
0.000507177
0.000487655
0.00048768
0.000487685
0.000487685
0.000487684
0.000487682
0.000487681
0.000487678
0.000487676
0.000487673
0.00048767
0.000487667
0.000487665
0.000487662
0.000487659
0.000487655
0.000487652
0.000487648
0.000487645
0.000487641
0.000487638
0.000487634
0.000487631
0.000487627
0.000487624
0.00048762
0.000487617
0.000487613
0.00048761
0.000487606
0.000487603
0.000487599
0.000487596
0.000487593
0.00048759
0.000487588
0.000487585
0.000487583
0.000487581
0.00048758
0.000487578
0.000487577
0.000487576
0.000487575
0.000487574
0.000487573
0.000487573
0.000487573
0.000487572
0.000487572
0.000487572
0.000487572
0.000487572
0.000487572
0.000487573
0.000487573
0.000487573
0.000487574
0.000487574
0.000487575
0.000487575
0.000487576
0.000487576
0.000487577
0.000487577
0.000487578
0.000487579
0.000487579
0.00048758
0.000487581
0.000487581
0.000487582
0.000487583
0.000487584
0.000487584
0.000487585
0.000487586
0.000487586
0.000487587
0.000487588
0.000487589
0.000487589
0.00048759
0.000487591
0.000487592
0.000487592
0.000487593
0.000487594
0.000487594
0.000487595
0.000487595
0.000487595
0.000487596
0.000487596
0.000487596
0.000487596
0.000487596
0.000487596
0.000487595
0.000487595
0.000487594
0.000487594
0.000487593
0.000487592
0.000487591
0.00048759
0.000487589
0.000487588
0.000487587
0.000487585
0.000487584
0.000487582
0.00048758
0.000487578
0.000487576
0.000487573
0.000487571
0.000487567
0.000487568
0.000487547
0.000468669
0.000468689
0.000468693
0.000468693
0.000468693
0.000468692
0.00046869
0.000468688
0.000468686
0.000468684
0.000468681
0.000468679
0.000468677
0.000468674
0.000468672
0.000468669
0.000468666
0.000468663
0.00046866
0.000468657
0.000468654
0.000468652
0.000468649
0.000468646
0.000468643
0.00046864
0.000468637
0.000468634
0.000468631
0.000468628
0.000468625
0.000468622
0.000468619
0.000468616
0.000468614
0.000468612
0.00046861
0.000468608
0.000468606
0.000468605
0.000468603
0.000468602
0.000468601
0.0004686
0.0004686
0.000468599
0.000468599
0.000468599
0.000468598
0.000468598
0.000468598
0.000468598
0.000468599
0.000468599
0.000468599
0.000468599
0.0004686
0.0004686
0.000468601
0.000468601
0.000468602
0.000468602
0.000468603
0.000468604
0.000468604
0.000468605
0.000468606
0.000468606
0.000468607
0.000468608
0.000468609
0.000468609
0.00046861
0.000468611
0.000468612
0.000468612
0.000468613
0.000468614
0.000468615
0.000468616
0.000468616
0.000468617
0.000468618
0.000468619
0.000468619
0.00046862
0.000468621
0.000468621
0.000468622
0.000468622
0.000468623
0.000468623
0.000468623
0.000468624
0.000468624
0.000468624
0.000468623
0.000468623
0.000468623
0.000468623
0.000468622
0.000468621
0.000468621
0.00046862
0.000468619
0.000468618
0.000468617
0.000468616
0.000468615
0.000468613
0.000468612
0.00046861
0.000468609
0.000468607
0.000468605
0.000468602
0.0004686