/*--------------------------------*- C++ -*----------------------------------*\
  =========                 |
  \\      /  F ield         | OpenFOAM: The Open Source CFD Toolbox
   \\    /   O peration     | Website:  https://openfoam.org
    \\  /    A nd           | Version:  7
     \\/     M anipulation  |
\*---------------------------------------------------------------------------*/
FoamFile
{
    version     2.0;
    format      ascii;
    class       surfaceScalarField;
    location    "18500";
    object      phi;
}
// * * * * * * * * * * * * * * * * * * * * * * * * * * * * * * * * * * * * * //

dimensions      [0 3 -1 0 0 0 0];

internalField   nonuniform List<scalar> 
7920
(
0.000136862
-6.14746e-10
0.000136862
-5.38314e-10
0.000136862
-4.69111e-10
0.000136862
-4.04714e-10
0.000136862
-3.43583e-10
0.000136862
-2.854e-10
0.000136862
-2.30391e-10
0.000136862
-1.7843e-10
0.000136862
-1.28997e-10
0.000136862
-8.16573e-11
0.000136862
-3.62997e-11
0.000136862
6.84832e-12
0.000136862
4.79587e-11
0.000136862
8.79417e-11
0.000136862
1.27286e-10
0.000136862
1.65502e-10
0.000136862
2.01952e-10
0.000136862
2.36735e-10
0.000136862
2.70411e-10
0.000136862
3.03003e-10
0.000136862
3.34059e-10
0.000136862
3.63313e-10
0.000136862
3.9085e-10
0.000136862
4.16985e-10
0.000136862
4.41913e-10
0.000136862
4.65136e-10
0.000136862
4.85901e-10
0.000136862
5.04326e-10
0.000136862
5.21002e-10
0.000136862
5.36166e-10
0.000136862
5.49919e-10
0.000136862
5.62332e-10
0.000136862
5.73157e-10
0.000136862
5.82285e-10
0.000136862
5.90101e-10
0.000136862
5.96958e-10
0.000136862
6.02964e-10
0.000136862
6.08161e-10
0.000136862
6.12635e-10
0.000136862
6.16463e-10
0.000136862
6.19417e-10
0.000136862
6.21127e-10
0.000136862
6.21686e-10
0.000136862
6.2165e-10
0.000136862
6.21281e-10
0.000136862
6.20368e-10
0.000136862
6.18793e-10
0.000136862
6.16738e-10
0.000136862
6.14444e-10
0.000136862
6.11884e-10
0.000136862
6.08721e-10
0.000136862
6.04926e-10
0.000136862
6.00998e-10
0.000136862
5.97231e-10
0.000136862
5.93481e-10
0.000136862
5.89643e-10
0.000136862
5.85759e-10
0.000136862
5.81742e-10
0.000136862
5.77358e-10
0.000136862
5.72705e-10
0.000136862
5.68141e-10
0.000136862
5.63678e-10
0.000136862
5.59007e-10
0.000136862
5.54085e-10
0.000136862
5.49297e-10
0.000136862
5.44889e-10
0.000136862
5.40821e-10
0.000136862
5.3697e-10
0.000136862
5.33291e-10
0.000136862
5.29625e-10
0.000136862
5.25513e-10
0.000136862
5.20106e-10
0.000136862
5.12103e-10
0.000136862
5.01389e-10
0.000136862
4.83739e-10
0.000136862
4.66393e-10
4.10684e-10
0.000132547
-8.1611e-10
0.000132547
-1.1113e-09
0.000132547
-1.3622e-09
0.000132547
-1.56124e-09
0.000132547
-1.70885e-09
0.000132547
-1.81043e-09
0.000132547
-1.8697e-09
0.000132547
-1.89121e-09
0.000132547
-1.8802e-09
0.000132547
-1.84235e-09
0.000132547
-1.78302e-09
0.000132547
-1.70723e-09
0.000132547
-1.61999e-09
0.000132547
-1.52571e-09
0.000132547
-1.42789e-09
0.000132547
-1.32867e-09
0.000132547
-1.23027e-09
0.000132547
-1.13389e-09
0.000132547
-1.04222e-09
0.000132547
-9.55789e-10
0.000132547
-8.77179e-10
0.000132547
-8.06622e-10
0.000132547
-7.47257e-10
0.000132547
-6.69049e-10
0.000132547
-5.74806e-10
0.000132547
-4.99609e-10
0.000132546
-4.33453e-10
0.000132546
-3.71198e-10
0.000132546
-3.11612e-10
0.000132546
-2.54664e-10
0.000132546
-2.00641e-10
0.000132546
-1.49364e-10
0.000132546
-1.0038e-10
0.000132546
-5.34652e-11
0.000132546
-8.64301e-12
0.000132546
3.39243e-11
0.000132546
7.44962e-11
0.000132546
1.13932e-10
0.000132546
1.52614e-10
0.000132546
1.89986e-10
0.000132546
2.25427e-10
0.000132546
2.59131e-10
0.000132546
2.91703e-10
0.000132546
3.2312e-10
0.000132546
3.52858e-10
0.000132546
3.80688e-10
0.000132546
4.06813e-10
0.000132546
4.3157e-10
0.000132546
4.55058e-10
0.000132546
4.76735e-10
0.000132546
4.95948e-10
0.000132546
5.12904e-10
0.000132546
5.28223e-10
0.000132546
5.42101e-10
0.000132546
5.54583e-10
0.000132546
5.65733e-10
0.000132546
5.75365e-10
0.000132546
5.83443e-10
0.000132546
5.90309e-10
0.000132546
5.96241e-10
0.000132546
6.01414e-10
0.000132546
6.0589e-10
0.000132546
6.09638e-10
0.000132546
6.12703e-10
0.000132546
6.14924e-10
0.000132546
6.15996e-10
0.000132546
6.16039e-10
0.000132546
6.15582e-10
0.000132546
6.14884e-10
0.000132546
6.13717e-10
0.000132546
6.11888e-10
0.000132546
6.09575e-10
0.000132546
6.07051e-10
0.000132546
6.04258e-10
0.000132546
6.00917e-10
0.000132546
5.97062e-10
0.000132546
5.93138e-10
0.000132546
5.89408e-10
0.000132546
5.85699e-10
0.000132546
5.81861e-10
0.000132546
5.7797e-10
0.000132546
5.73987e-10
0.000132546
5.6972e-10
0.000132546
5.65281e-10
0.000132546
5.60964e-10
0.000132546
5.56682e-10
0.000132546
5.52159e-10
0.000132546
5.47446e-10
0.000132546
5.42897e-10
0.000132546
5.3872e-10
0.000132546
5.34839e-10
0.000132546
5.3109e-10
0.000132546
5.27438e-10
0.000132546
5.23779e-10
0.000132546
5.19711e-10
0.000132546
5.14406e-10
0.000132546
5.06477e-10
0.000132546
4.96126e-10
0.000132546
4.78444e-10
0.000132546
4.62584e-10
0.000132546
4.03556e-10
0.000132546
3.23185e-10
0.000132546
2.87935e-10
0.000132546
2.68502e-10
0.000132546
2.51657e-10
0.000132546
2.38069e-10
0.000132546
2.27653e-10
0.000132546
2.20145e-10
0.000132546
2.14933e-10
0.000132546
2.10821e-10
0.000132546
2.06938e-10
0.000132546
2.02024e-10
0.000132546
1.95942e-10
0.000132546
1.83802e-10
0.000132546
1.67418e-10
0.000132546
1.28809e-10
0.000132546
8.39785e-11
0.000132546
-2.82223e-11
0.000132547
-1.75193e-10
-4.41009e-10
0.000128321
-8.09934e-10
0.000128321
-1.10432e-09
0.000128321
-1.35708e-09
0.000128321
-1.55875e-09
0.000128321
-1.70929e-09
0.000128321
-1.81335e-09
0.000128321
-1.87423e-09
0.000128321
-1.89642e-09
0.000128321
-1.88543e-09
0.000128321
-1.84719e-09
0.000128321
-1.78729e-09
0.000128321
-1.7109e-09
0.000128321
-1.62309e-09
0.000128321
-1.52824e-09
0.000128321
-1.42971e-09
0.000128321
-1.32968e-09
0.000128321
-1.23052e-09
0.000128321
-1.13346e-09
0.000128321
-1.04106e-09
0.000128321
-9.53826e-10
0.000128321
-8.74408e-10
0.000128321
-8.02143e-10
0.000128321
-7.4207e-10
0.000128321
-6.6273e-10
0.000128321
-5.62636e-10
0.000128321
-4.81106e-10
0.000128321
-4.11834e-10
0.000128321
-3.48301e-10
0.000128321
-2.88255e-10
0.000128321
-2.31234e-10
0.000128321
-1.77239e-10
0.000128321
-1.25897e-10
0.000128321
-7.67776e-11
0.00012832
-2.98362e-11
0.00012832
1.48122e-11
0.00012832
5.71362e-11
0.00012832
9.75204e-11
0.00012832
1.36737e-10
0.00012832
1.75029e-10
0.00012832
2.118e-10
0.00012832
2.46501e-10
0.00012832
2.79408e-10
0.00012832
3.11117e-10
0.00012832
3.41539e-10
0.00012832
3.7013e-10
0.00012832
3.96735e-10
0.00012832
4.21651e-10
0.00012832
4.45183e-10
0.00012832
4.67298e-10
0.00012832
4.87462e-10
0.00012832
5.05191e-10
0.00012832
5.20776e-10
0.00012832
5.34812e-10
0.00012832
5.47456e-10
0.00012832
5.58685e-10
0.00012832
5.68539e-10
0.00012832
5.76924e-10
0.00012832
5.83931e-10
0.00012832
5.89855e-10
0.00012832
5.94862e-10
0.00012832
5.99183e-10
0.00012832
6.02904e-10
0.00012832
6.05861e-10
0.00012832
6.0807e-10
0.00012832
6.09492e-10
0.00012832
6.09919e-10
0.00012832
6.09452e-10
0.00012832
6.08531e-10
0.00012832
6.07411e-10
0.00012832
6.05908e-10
0.00012832
6.03781e-10
0.00012832
6.01166e-10
0.00012832
5.98345e-10
0.00012832
5.95254e-10
0.00012832
5.9169e-10
0.00012832
5.87764e-10
0.00012832
5.83843e-10
0.00012832
5.80115e-10
0.00012832
5.76385e-10
0.00012832
5.72478e-10
0.00012832
5.68507e-10
0.00012832
5.64515e-10
0.00012832
5.60367e-10
0.00012832
5.56149e-10
0.00012832
5.52055e-10
0.00012832
5.47913e-10
0.00012832
5.43511e-10
0.00012832
5.39007e-10
0.00012832
5.34698e-10
0.00012832
5.30729e-10
0.00012832
5.27005e-10
0.00012832
5.23329e-10
0.00012832
5.1968e-10
0.00012832
5.1601e-10
0.00012832
5.11974e-10
0.00012832
5.06768e-10
0.00012832
4.98958e-10
0.00012832
4.88904e-10
0.00012832
4.71802e-10
0.00012832
4.55155e-10
0.00012832
4.08666e-10
0.00012832
3.32349e-10
0.00012832
2.80309e-10
0.00012832
2.5199e-10
0.00012832
2.33656e-10
0.000128321
2.20779e-10
0.000128321
2.11303e-10
0.000128321
2.04586e-10
0.000128321
1.99943e-10
0.000128321
1.96193e-10
0.000128321
1.92555e-10
0.000128321
1.87701e-10
0.000128321
1.81462e-10
0.000128321
1.68938e-10
0.000128321
1.52227e-10
0.000128321
1.13144e-10
0.000128321
6.81991e-11
0.000128321
-4.33322e-11
0.000128321
-1.90989e-10
-4.47111e-10
0.000124181
-7.99141e-10
0.000124181
-1.0905e-09
0.000124181
-1.34497e-09
0.000124181
-1.54972e-09
0.000124181
-1.70357e-09
0.000124181
-1.81039e-09
0.000124181
-1.87308e-09
0.000124181
-1.89621e-09
0.000124181
-1.88551e-09
0.000124181
-1.8472e-09
0.000124181
-1.78708e-09
0.000124181
-1.7105e-09
0.000124181
-1.62254e-09
0.000124181
-1.52752e-09
0.000124181
-1.42863e-09
0.000124181
-1.3281e-09
0.000124181
-1.22851e-09
0.000124181
-1.13104e-09
0.000124181
-1.03807e-09
0.000124181
-9.50171e-10
0.000124181
-8.70044e-10
0.000124181
-7.96563e-10
0.000124181
-7.34802e-10
0.000124181
-6.58676e-10
0.000124181
-5.61777e-10
0.000124181
-4.76762e-10
0.000124181
-4.02796e-10
0.000124181
-3.35844e-10
0.000124181
-2.7368e-10
0.000124181
-2.15353e-10
0.000124181
-1.60403e-10
0.000124181
-1.08223e-10
0.000124181
-5.8397e-11
0.000124181
-1.09972e-11
0.000124181
3.38424e-11
0.000124181
7.62681e-11
0.000124181
1.16802e-10
0.000124181
1.56102e-10
0.000124181
1.9425e-10
0.000124181
2.30645e-10
0.000124181
2.6486e-10
0.000124181
2.97241e-10
0.000124181
3.283e-10
0.000124181
3.57877e-10
0.000124181
3.85482e-10
0.000124181
4.1107e-10
0.000124181
4.34984e-10
0.000124181
4.57428e-10
0.000124181
4.78222e-10
0.000124181
4.96915e-10
0.000124181
5.13263e-10
0.000124181
5.27601e-10
0.000124181
5.40442e-10
0.000124181
5.51903e-10
0.000124181
5.619e-10
0.000124181
5.70435e-10
0.000124181
5.7754e-10
0.000124181
5.83476e-10
0.000124181
5.88486e-10
0.000124181
5.92591e-10
0.000124181
5.96052e-10
0.000124181
5.98981e-10
0.000124181
6.0109e-10
0.000124181
6.02372e-10
0.000124181
6.02956e-10
0.000124181
6.02761e-10
0.000124181
6.01817e-10
0.000124181
6.00407e-10
0.000124181
5.98771e-10
0.000124181
5.96845e-10
0.000124181
5.94387e-10
0.000124181
5.91439e-10
0.000124181
5.88261e-10
0.000124181
5.8482e-10
0.000124181
5.81016e-10
0.000124181
5.77031e-10
0.000124181
5.7312e-10
0.000124181
5.69356e-10
0.000124181
5.65538e-10
0.000124181
5.615e-10
0.000124181
5.574e-10
0.000124181
5.53382e-10
0.000124181
5.49364e-10
0.000124181
5.45363e-10
0.000124181
5.41451e-10
0.000124181
5.37412e-10
0.000124181
5.3313e-10
0.000124181
5.28852e-10
0.000124181
5.24793e-10
0.000124181
5.21009e-10
0.000124181
5.17398e-10
0.000124181
5.13764e-10
0.000124181
5.10105e-10
0.000124181
5.06423e-10
0.000124181
5.02416e-10
0.000124181
4.97298e-10
0.000124181
4.89654e-10
0.000124181
4.7985e-10
0.000124181
4.63766e-10
0.000124181
4.45368e-10
0.000124181
4.12264e-10
0.000124181
3.51054e-10
0.000124181
2.911e-10
0.000124181
2.51426e-10
0.000124181
2.26973e-10
0.000124181
2.11653e-10
0.000124181
2.01252e-10
0.000124181
1.9416e-10
0.000124181
1.89275e-10
0.000124181
1.85308e-10
0.000124181
1.81494e-10
0.000124181
1.76362e-10
0.000124181
1.69664e-10
0.000124181
1.56511e-10
0.000124181
1.39279e-10
0.000124181
9.96765e-11
0.000124181
5.45362e-11
0.000124181
-5.6002e-11
0.000124181
-2.03682e-10
-4.50169e-10
0.000120125
-7.84288e-10
0.000120125
-1.06999e-09
0.000120125
-1.32517e-09
0.000120125
-1.53319e-09
0.000120125
-1.69084e-09
0.000120125
-1.80085e-09
0.000120125
-1.86577e-09
0.000120125
-1.89023e-09
0.000120125
-1.88026e-09
0.000120125
-1.84229e-09
0.000120125
-1.78236e-09
0.000120125
-1.70598e-09
0.000120125
-1.61829e-09
0.000120125
-1.52348e-09
0.000120125
-1.42457e-09
0.000120125
-1.3239e-09
0.000120125
-1.22419e-09
0.000120125
-1.12658e-09
0.000120125
-1.03322e-09
0.000120125
-9.44797e-10
0.000120125
-8.64061e-10
0.000120125
-7.8975e-10
0.000120125
-7.26019e-10
0.000120125
-6.53078e-10
0.000120125
-5.62912e-10
0.000120125
-4.78937e-10
0.000120125
-4.02102e-10
0.000120125
-3.31674e-10
0.000120125
-2.66727e-10
0.000120125
-2.0632e-10
0.000120125
-1.49662e-10
0.000120125
-9.60201e-11
0.000120125
-4.50393e-11
0.000120125
3.15763e-12
0.000120125
4.85023e-11
0.000120125
9.13452e-11
0.000120125
1.32325e-10
0.000120125
1.71959e-10
0.000120125
2.10159e-10
0.000120125
2.46368e-10
0.000120125
2.8033e-10
0.000120125
3.12421e-10
0.000120125
3.43003e-10
0.000120125
3.71855e-10
0.000120125
3.98623e-10
0.000120125
4.234e-10
0.000120125
4.46505e-10
0.000120125
4.67966e-10
0.000120125
4.87478e-10
0.000120125
5.04758e-10
0.000120125
5.19855e-10
0.000120125
5.33093e-10
0.000120125
5.44829e-10
0.000120125
5.55142e-10
0.000120125
5.63921e-10
0.000120125
5.71135e-10
0.000120125
5.7696e-10
0.000120125
5.8185e-10
0.000120125
5.85982e-10
0.000120125
5.89216e-10
0.000120125
5.91816e-10
0.000120125
5.93912e-10
0.000120125
5.95122e-10
0.000120125
5.95436e-10
0.000120125
5.9518e-10
0.000120125
5.94409e-10
0.000120125
5.93034e-10
0.000120125
5.9112e-10
0.000120125
5.88886e-10
0.000120125
5.86455e-10
0.000120125
5.83635e-10
0.000120125
5.80332e-10
0.000120125
5.76741e-10
0.000120125
5.72916e-10
0.000120125
5.68886e-10
0.000120125
5.64872e-10
0.000120125
5.60977e-10
0.000120125
5.57134e-10
0.000120125
5.53163e-10
0.000120125
5.48948e-10
0.000120125
5.447e-10
0.000120125
5.4066e-10
0.000120125
5.36786e-10
0.000120125
5.32978e-10
0.000120125
5.29192e-10
0.000120125
5.25229e-10
0.000120125
5.21088e-10
0.000120125
5.17068e-10
0.000120125
5.13268e-10
0.000120125
5.09644e-10
0.000120125
5.06102e-10
0.000120125
5.02481e-10
0.000120125
4.98814e-10
0.000120125
4.95137e-10
0.000120125
4.91161e-10
0.000120125
4.86119e-10
0.000120125
4.78681e-10
0.000120125
4.69111e-10
0.000120125
4.54244e-10
0.000120125
4.34189e-10
0.000120125
4.10856e-10
0.000120125
3.67502e-10
0.000120125
3.09688e-10
0.000120125
2.62518e-10
0.000120125
2.3079e-10
0.000120125
2.10839e-10
0.000120125
1.97792e-10
0.000120125
1.89138e-10
0.000120125
1.83166e-10
0.000120125
1.78374e-10
0.000120125
1.73936e-10
0.000120125
1.68163e-10
0.000120125
1.60694e-10
0.000120125
1.46661e-10
0.000120125
1.28703e-10
0.000120125
8.85185e-11
0.000120125
4.30931e-11
0.000120125
-6.61545e-11
0.000120125
-2.13179e-10
-4.50304e-10
0.000116149
-7.65329e-10
0.000116149
-1.04312e-09
0.000116149
-1.2976e-09
0.000116149
-1.50871e-09
0.000116149
-1.67052e-09
0.000116149
-1.78424e-09
0.000116149
-1.8519e-09
0.000116149
-1.87825e-09
0.000116149
-1.86954e-09
0.000116149
-1.83242e-09
0.000116149
-1.77314e-09
0.000116149
-1.69739e-09
0.000116149
-1.61036e-09
0.000116149
-1.5161e-09
0.000116149
-1.41752e-09
0.000116149
-1.31705e-09
0.000116149
-1.21754e-09
0.000116149
-1.12001e-09
0.000116149
-1.02646e-09
0.000116149
-9.37662e-10
0.000116149
-8.56422e-10
0.000116149
-7.81543e-10
0.000116149
-7.15985e-10
0.000116148
-6.45053e-10
0.000116148
-5.61768e-10
0.000116148
-4.81875e-10
0.000116149
-4.05051e-10
0.000116149
-3.32619e-10
0.000116149
-2.65309e-10
0.000116148
-2.02695e-10
0.000116148
-1.43983e-10
0.000116148
-8.85429e-11
0.000116148
-3.61663e-11
0.000116148
1.30242e-11
0.000116148
5.90955e-11
0.000116148
1.02604e-10
0.000116148
1.44259e-10
0.000116148
1.84397e-10
0.000116148
2.22782e-10
0.000116148
2.58954e-10
0.000116148
2.92852e-10
0.000116148
3.24836e-10
0.000116148
3.55066e-10
0.000116148
3.83293e-10
0.000116148
4.09366e-10
0.000116148
4.33518e-10
0.000116148
4.55964e-10
0.000116148
4.7651e-10
0.000116148
4.94772e-10
0.000116148
5.10725e-10
0.000116148
5.24724e-10
0.000116148
5.37011e-10
0.000116148
5.47719e-10
0.000116148
5.56904e-10
0.000116148
5.64473e-10
0.000116148
5.70389e-10
0.000116148
5.74977e-10
0.000116148
5.78865e-10
0.000116148
5.82151e-10
0.000116148
5.84541e-10
0.000116148
5.86279e-10
0.000116148
5.87505e-10
0.000116148
5.87784e-10
0.000116148
5.87123e-10
0.000116148
5.86058e-10
0.000116148
5.8477e-10
0.000116148
5.83004e-10
0.000116148
5.80576e-10
0.000116148
5.77688e-10
0.000116148
5.7469e-10
0.000116148
5.71477e-10
0.000116148
5.67787e-10
0.000116148
5.63742e-10
0.000116148
5.59523e-10
0.000116148
5.55308e-10
0.000116148
5.51304e-10
0.000116148
5.47419e-10
0.000116148
5.43453e-10
0.000116149
5.39279e-10
0.000116149
5.34866e-10
0.000116149
5.3048e-10
0.000116149
5.2644e-10
0.000116149
5.22709e-10
0.000116149
5.19049e-10
0.000116149
5.15328e-10
0.000116149
5.11428e-10
0.000116149
5.07467e-10
0.000116149
5.03739e-10
0.000116149
5.00202e-10
0.000116149
4.96711e-10
0.000116149
4.93202e-10
0.000116149
4.89582e-10
0.000116149
4.85925e-10
0.000116149
4.82279e-10
0.000116149
4.78341e-10
0.000116149
4.73368e-10
0.000116149
4.66168e-10
0.000116149
4.56836e-10
0.000116149
4.43191e-10
0.000116149
4.22071e-10
0.000116149
4.04681e-10
0.000116149
3.77142e-10
0.000116149
3.27891e-10
0.000116149
2.79126e-10
0.000116149
2.41999e-10
0.000116149
2.16971e-10
0.000116149
2.00283e-10
0.000116149
1.89174e-10
0.000116149
1.81409e-10
0.000116149
1.75261e-10
0.000116149
1.69781e-10
0.000116149
1.63024e-10
0.000116149
1.54497e-10
0.000116149
1.39356e-10
0.000116149
1.20477e-10
0.000116149
7.96533e-11
0.000116149
3.38654e-11
0.000116149
-7.37929e-11
0.000116149
-2.19546e-10
-4.4731e-10
0.000112248
-7.41913e-10
0.000112248
-1.01004e-09
0.000112248
-1.26243e-09
0.000112248
-1.47619e-09
0.000112248
-1.64236e-09
0.000112248
-1.76025e-09
0.000112248
-1.83125e-09
0.000112248
-1.86014e-09
0.000112248
-1.85334e-09
0.000112248
-1.81764e-09
0.000112248
-1.7595e-09
0.000112248
-1.6848e-09
0.000112248
-1.5988e-09
0.000112248
-1.50542e-09
0.000112248
-1.40748e-09
0.000112248
-1.30754e-09
0.000112248
-1.20849e-09
0.000112248
-1.11125e-09
0.000112248
-1.0177e-09
0.000112248
-9.28702e-10
0.000112248
-8.47069e-10
0.000112248
-7.71779e-10
0.000112248
-7.047e-10
0.000112248
-6.34658e-10
0.000112248
-5.56918e-10
0.000112248
-4.82261e-10
0.000112248
-4.07875e-10
0.000112248
-3.35473e-10
0.000112248
-2.6696e-10
0.000112248
-2.02611e-10
0.000112248
-1.41968e-10
0.000112248
-8.4756e-11
0.000112248
-3.0993e-11
0.000112248
1.92252e-11
0.000112248
6.6128e-11
0.000112248
1.10451e-10
0.000112248
1.52913e-10
0.000112248
1.93637e-10
0.000112248
2.32268e-10
0.000112248
2.68503e-10
0.000112248
3.02467e-10
0.000112248
3.34449e-10
0.000112248
3.64401e-10
0.000112248
3.92096e-10
0.000112248
4.17615e-10
0.000112248
4.41287e-10
0.000112248
4.63159e-10
0.000112248
4.82819e-10
0.000112248
4.99878e-10
0.000112248
5.14625e-10
0.000112248
5.27684e-10
0.000112248
5.39148e-10
0.000112248
5.48887e-10
0.000112248
5.56945e-10
0.000112248
5.63318e-10
0.000112248
5.67998e-10
0.000112248
5.71431e-10
0.000112248
5.74364e-10
0.000112248
5.76819e-10
0.000112248
5.78383e-10
0.000112248
5.79259e-10
0.000112248
5.79591e-10
0.000112248
5.78933e-10
0.000112248
5.77332e-10
0.000112248
5.75514e-10
0.000112248
5.73759e-10
0.000112248
5.71626e-10
0.000112248
5.6868e-10
0.000112248
5.65121e-10
0.000112248
5.61529e-10
0.000112248
5.57884e-10
0.000112248
5.53766e-10
0.000112248
5.49241e-10
0.000112248
5.44649e-10
0.000112248
5.40302e-10
0.000112248
5.36336e-10
0.000112248
5.32444e-10
0.000112248
5.2832e-10
0.000112248
5.23919e-10
0.000112248
5.19317e-10
0.000112248
5.14837e-10
0.000112248
5.10828e-10
0.000112248
5.07215e-10
0.000112248
5.03633e-10
0.000112248
4.99922e-10
0.000112248
4.96092e-10
0.000112248
4.92354e-10
0.000112248
4.88938e-10
0.000112248
4.85655e-10
0.000112248
4.8228e-10
0.000112248
4.78791e-10
0.000112248
4.75181e-10
0.000112248
4.7157e-10
0.000112248
4.67988e-10
0.000112248
4.64098e-10
0.000112248
4.59194e-10
0.000112248
4.52254e-10
0.000112248
4.43169e-10
0.000112248
4.3063e-10
0.000112248
4.09128e-10
0.000112248
3.94913e-10
0.000112248
3.79384e-10
0.000112248
3.41169e-10
0.000112248
2.95871e-10
0.000112248
2.56654e-10
0.000112248
2.27669e-10
0.000112248
2.07326e-10
0.000112248
1.93378e-10
0.000112248
1.83398e-10
0.000112248
1.75527e-10
0.000112248
1.68679e-10
0.000112248
1.60651e-10
0.000112248
1.50837e-10
0.000112248
1.34416e-10
0.000112248
1.14452e-10
0.000112248
7.29547e-11
0.000112248
2.67526e-11
0.000112248
-7.89974e-11
0.000112248
-2.22976e-10
-4.40986e-10
0.000108419
-7.13624e-10
0.000108419
-9.70721e-10
0.000108419
-1.21989e-09
0.000108419
-1.43579e-09
0.000108419
-1.60636e-09
0.000108419
-1.72882e-09
0.000108419
-1.80377e-09
0.000108419
-1.83592e-09
0.000108419
-1.83173e-09
0.000108419
-1.79805e-09
0.000108419
-1.74155e-09
0.000108419
-1.66834e-09
0.000108419
-1.5837e-09
0.000108419
-1.49149e-09
0.000108419
-1.3945e-09
0.000108419
-1.29538e-09
0.000108419
-1.19699e-09
0.000108419
-1.1002e-09
0.000108419
-1.00685e-09
0.000108419
-9.17831e-10
0.000108419
-8.35915e-10
0.000108419
-7.60301e-10
0.000108419
-6.92007e-10
0.000108419
-6.22103e-10
0.000108419
-5.48265e-10
0.000108419
-4.78676e-10
0.000108419
-4.08163e-10
0.000108419
-3.37629e-10
0.000108419
-2.69329e-10
0.000108419
-2.04117e-10
0.000108419
-1.42086e-10
0.000108419
-8.34835e-11
0.000108419
-2.85883e-11
0.000108419
2.25346e-11
0.000108419
7.02481e-11
0.000108419
1.15408e-10
0.000108419
1.5869e-10
0.000108419
1.99984e-10
0.000108419
2.3886e-10
0.000108419
2.75205e-10
0.000108419
3.09286e-10
0.000108419
3.41286e-10
0.000108419
3.70993e-10
0.000108419
3.98249e-10
0.000108419
4.23344e-10
0.000108419
4.46622e-10
0.000108419
4.67928e-10
0.000108419
4.86701e-10
0.000108419
5.02637e-10
0.000108419
5.16332e-10
0.000108419
5.28594e-10
0.000108419
5.39321e-10
0.000108419
5.48122e-10
0.000108419
5.55057e-10
0.000108419
5.60268e-10
0.000108419
5.63815e-10
0.000108419
5.66201e-10
0.000108419
5.68213e-10
0.000108419
5.69828e-10
0.000108419
5.70577e-10
0.000108419
5.70601e-10
0.000108419
5.70035e-10
0.000108419
5.68471e-10
0.000108419
5.66001e-10
0.000108419
5.63494e-10
0.000108419
5.61297e-10
0.000108419
5.58795e-10
0.000108419
5.55342e-10
0.000108419
5.51145e-10
0.000108419
5.46967e-10
0.000108419
5.42846e-10
0.000108419
5.38255e-10
0.000108419
5.33249e-10
0.000108419
5.28326e-10
0.000108419
5.23898e-10
0.000108419
5.19972e-10
0.000108419
5.16044e-10
0.000108419
5.11751e-10
0.000108419
5.07135e-10
0.000108419
5.02389e-10
0.000108419
4.97882e-10
0.000108419
4.93937e-10
0.000108419
4.90389e-10
0.000108419
4.86804e-10
0.000108419
4.83065e-10
0.000108419
4.79327e-10
0.000108419
4.7584e-10
0.000108419
4.7273e-10
0.000108419
4.69682e-10
0.000108419
4.66419e-10
0.000108419
4.62966e-10
0.000108419
4.59406e-10
0.000108419
4.55894e-10
0.000108419
4.52412e-10
0.000108419
4.48579e-10
0.000108419
4.43752e-10
0.000108419
4.37086e-10
0.000108419
4.28247e-10
0.000108419
4.16644e-10
0.000108419
3.95332e-10
0.000108419
3.82651e-10
0.000108419
3.75324e-10
0.000108419
3.4788e-10
0.000108419
3.0916e-10
0.000108419
2.71165e-10
0.000108419
2.4024e-10
0.000108419
2.17083e-10
0.000108419
2.00481e-10
0.000108419
1.88226e-10
0.000108419
1.78486e-10
0.000108419
1.7007e-10
0.000108419
1.60583e-10
0.000108419
1.49338e-10
0.000108419
1.31536e-10
0.000108419
1.10379e-10
0.000108419
6.82115e-11
0.000108419
2.15732e-11
0.000108419
-8.19214e-11
0.000108419
-2.23751e-10
-4.31256e-10
0.000104658
-6.80125e-10
0.000104658
-9.25058e-10
0.000104658
-1.17015e-09
0.000104658
-1.38774e-09
0.000104658
-1.56271e-09
0.000104658
-1.6901e-09
0.000104658
-1.76963e-09
0.000104658
-1.80577e-09
0.000104658
-1.80487e-09
0.000104658
-1.77382e-09
0.000104658
-1.71947e-09
0.000104658
-1.64815e-09
0.000104658
-1.56517e-09
0.000104658
-1.47436e-09
0.000104658
-1.3786e-09
0.000104658
-1.28056e-09
0.000104658
-1.18296e-09
0.000104658
-1.08675e-09
0.000104658
-9.93783e-10
0.000104658
-9.04927e-10
0.000104658
-8.22843e-10
0.000104658
-7.46949e-10
0.000104658
-6.77685e-10
0.000104658
-6.0752e-10
0.000104658
-5.36188e-10
0.000104658
-4.70857e-10
0.000104658
-4.04716e-10
0.000104658
-3.37309e-10
0.000104658
-2.70506e-10
0.000104658
-2.05464e-10
0.000104658
-1.42879e-10
0.000104658
-8.35472e-11
0.000104658
-2.79726e-11
0.000104658
2.3798e-11
0.000104658
7.21784e-11
0.000104658
1.18061e-10
0.000104658
1.62039e-10
0.000104658
2.03796e-10
0.000104658
2.42865e-10
0.000104658
2.79307e-10
0.000104658
3.13467e-10
0.000104658
3.45422e-10
0.000104658
3.74885e-10
0.000104658
4.01798e-10
0.000104658
4.26574e-10
0.000104658
4.49474e-10
0.000104658
4.70153e-10
0.000104658
4.88024e-10
0.000104658
5.02958e-10
0.000104658
5.15778e-10
0.000104658
5.27345e-10
0.000104658
5.37359e-10
0.000104658
5.45234e-10
0.000104658
5.51068e-10
0.000104658
5.55189e-10
0.000104658
5.57741e-10
0.000104658
5.59194e-10
0.000104658
5.6029e-10
0.000104658
5.61032e-10
0.000104658
5.6098e-10
0.000104658
5.60183e-10
0.000104658
5.58745e-10
0.000104658
5.56338e-10
0.000104658
5.53097e-10
0.000104658
5.49959e-10
0.000104658
5.47306e-10
0.000104658
5.44412e-10
0.000104658
5.40488e-10
0.000104658
5.35737e-10
0.000104658
5.31011e-10
0.000104658
5.26374e-10
0.000104658
5.21272e-10
0.000104658
5.15812e-10
0.000104658
5.10616e-10
0.000104658
5.06128e-10
0.000104658
5.0221e-10
0.000104658
4.98215e-10
0.000104658
4.93774e-10
0.000104658
4.89e-10
0.000104658
4.84184e-10
0.000104658
4.79732e-10
0.000104658
4.75871e-10
0.000104658
4.72325e-10
0.000104658
4.68661e-10
0.000104658
4.64879e-10
0.000104658
4.61252e-10
0.000104658
4.58015e-10
0.000104658
4.55175e-10
0.000104658
4.52339e-10
0.000104658
4.49204e-10
0.000104658
4.45832e-10
0.000104658
4.42389e-10
0.000104658
4.3904e-10
0.000104658
4.35693e-10
0.000104658
4.31927e-10
0.000104658
4.27194e-10
0.000104658
4.20806e-10
0.000104658
4.122e-10
0.000104658
4.01358e-10
0.000104658
3.80639e-10
0.000104658
3.68675e-10
0.000104658
3.66484e-10
0.000104658
3.48147e-10
0.000104658
3.17197e-10
0.000104658
2.82907e-10
0.000104658
2.52246e-10
0.000104658
2.27638e-10
0.000104658
2.09044e-10
0.000104658
1.94805e-10
0.000104658
1.83284e-10
0.000104658
1.73252e-10
0.000104658
1.62233e-10
0.000104658
1.4952e-10
0.000104658
1.3033e-10
0.000104658
1.07943e-10
0.000104658
6.51543e-11
0.000104658
1.8081e-11
0.000104658
-8.2784e-11
0.000104658
-2.2222e-10
-4.18187e-10
0.00010096
-6.4122e-10
0.00010096
-8.72922e-10
0.00010096
-1.11333e-09
0.00010096
-1.33234e-09
0.00010096
-1.51175e-09
0.00010096
-1.64443e-09
0.00010096
-1.72917e-09
0.00010096
-1.76998e-09
0.00010096
-1.77303e-09
0.00010096
-1.74518e-09
0.00010096
-1.69347e-09
0.00010096
-1.62439e-09
0.00010096
-1.54329e-09
0.00010096
-1.45407e-09
0.00010096
-1.3598e-09
0.00010096
-1.26304e-09
0.00010096
-1.16633e-09
0.00010096
-1.07077e-09
0.00010096
-9.78353e-10
0.00010096
-8.89833e-10
0.00010096
-8.07703e-10
0.00010096
-7.31561e-10
0.00010096
-6.61509e-10
0.00010096
-5.90944e-10
0.00010096
-5.21143e-10
0.00010096
-4.59108e-10
0.00010096
-3.97187e-10
0.00010096
-3.33527e-10
0.00010096
-2.69164e-10
0.00010096
-2.05289e-10
0.00010096
-1.43113e-10
0.00010096
-8.38739e-11
0.00010096
-2.82024e-11
0.00010096
2.38512e-11
0.00010096
7.26417e-11
0.00010096
1.18998e-10
0.00010096
1.63423e-10
0.00010096
2.05453e-10
0.00010096
2.44615e-10
0.00010096
2.81081e-10
0.00010096
3.15197e-10
0.00010096
3.46979e-10
0.00010096
3.76174e-10
0.00010096
4.02828e-10
0.00010096
4.27344e-10
0.00010096
4.49812e-10
0.00010096
4.69756e-10
0.00010096
4.8672e-10
0.00010096
5.00806e-10
0.00010096
5.12928e-10
0.00010096
5.23844e-10
0.00010096
5.33109e-10
0.00010096
5.40063e-10
0.00010096
5.44861e-10
0.00010096
5.48001e-10
0.00010096
5.49704e-10
0.00010096
5.50324e-10
0.00010096
5.50488e-10
0.00010096
5.50316e-10
0.00010096
5.49483e-10
0.00010096
5.4792e-10
0.00010096
5.45667e-10
0.00010096
5.42501e-10
0.00010096
5.38601e-10
0.00010096
5.34878e-10
0.00010096
5.31727e-10
0.00010096
5.28404e-10
0.00010096
5.24064e-10
0.00010096
5.1888e-10
0.00010096
5.13668e-10
0.00010096
5.08487e-10
0.00010096
5.0287e-10
0.00010096
4.97013e-10
0.00010096
4.916e-10
0.00010096
4.87035e-10
0.00010096
4.83058e-10
0.00010096
4.78973e-10
0.00010096
4.7444e-10
0.00010096
4.69601e-10
0.00010096
4.64808e-10
0.00010096
4.60488e-10
0.00010096
4.56724e-10
0.00010096
4.53125e-10
0.00010096
4.49337e-10
0.00010096
4.45513e-10
0.00010096
4.42004e-10
0.00010096
4.38978e-10
0.00010096
4.36348e-10
0.00010096
4.337e-10
0.00010096
4.30723e-10
0.00010096
4.275e-10
0.00010096
4.24257e-10
0.00010096
4.21143e-10
0.00010096
4.17964e-10
0.00010096
4.14281e-10
0.00010096
4.09663e-10
0.00010096
4.03545e-10
0.00010096
3.95158e-10
0.00010096
3.84925e-10
0.00010096
3.65046e-10
0.00010096
3.5348e-10
0.00010096
3.54251e-10
0.00010096
3.42921e-10
0.00010096
3.19536e-10
0.00010096
2.90361e-10
0.00010096
2.61847e-10
0.00010096
2.37298e-10
0.00010096
2.17663e-10
0.00010096
2.02005e-10
0.00010096
1.88989e-10
0.00010096
1.77448e-10
0.00010096
1.64956e-10
0.00010096
1.50847e-10
0.00010096
1.30358e-10
0.00010096
1.06791e-10
0.00010096
6.34793e-11
0.00010096
1.59851e-11
0.00010096
-8.18559e-11
0.00010096
-2.18772e-10
-4.01978e-10
9.73207e-05
-5.96867e-10
9.73207e-05
-8.14257e-10
9.73206e-05
-1.04958e-09
9.73205e-05
-1.26992e-09
9.73205e-05
-1.45394e-09
9.73204e-05
-1.59233e-09
9.73204e-05
-1.68286e-09
9.73203e-05
-1.72896e-09
9.73203e-05
-1.73653e-09
9.73203e-05
-1.7124e-09
9.73202e-05
-1.66373e-09
9.73202e-05
-1.59718e-09
9.73202e-05
-1.51814e-09
9.73202e-05
-1.43066e-09
9.73201e-05
-1.33804e-09
9.73201e-05
-1.24272e-09
9.73201e-05
-1.14695e-09
9.73201e-05
-1.05212e-09
9.73201e-05
-9.60376e-10
9.732e-05
-8.72355e-10
9.732e-05
-7.90315e-10
9.732e-05
-7.13974e-10
9.732e-05
-6.43288e-10
9.732e-05
-5.72358e-10
9.732e-05
-5.03517e-10
9.73199e-05
-4.43928e-10
9.73199e-05
-3.85728e-10
9.73199e-05
-3.25919e-10
9.73199e-05
-2.64562e-10
9.73199e-05
-2.02688e-10
9.73199e-05
-1.41861e-10
9.73199e-05
-8.35667e-11
9.73199e-05
-2.84415e-11
9.73199e-05
2.3447e-11
9.73199e-05
7.22955e-11
9.73199e-05
1.18769e-10
9.73199e-05
1.63287e-10
9.73199e-05
2.05328e-10
9.73199e-05
2.44432e-10
9.73199e-05
2.80788e-10
9.73199e-05
3.14677e-10
9.73199e-05
3.46118e-10
9.73199e-05
3.75e-10
9.73199e-05
4.01437e-10
9.73199e-05
4.25696e-10
9.73199e-05
4.47627e-10
9.73199e-05
4.66719e-10
9.73199e-05
4.82785e-10
9.73199e-05
4.96187e-10
9.73199e-05
5.07758e-10
9.73199e-05
5.18011e-10
9.73199e-05
5.2645e-10
9.732e-05
5.32495e-10
9.732e-05
5.36365e-10
9.732e-05
5.38654e-10
9.732e-05
5.39635e-10
9.732e-05
5.39498e-10
9.732e-05
5.38723e-10
9.732e-05
5.37608e-10
9.732e-05
5.3602e-10
9.732e-05
5.33761e-10
9.73201e-05
5.30771e-10
9.73201e-05
5.26945e-10
9.73201e-05
5.225e-10
9.73201e-05
5.18238e-10
9.73201e-05
5.14532e-10
9.73201e-05
5.10737e-10
9.73202e-05
5.0605e-10
9.73202e-05