/*--------------------------------*- C++ -*----------------------------------*\
  =========                 |
  \\      /  F ield         | OpenFOAM: The Open Source CFD Toolbox
   \\    /   O peration     | Website:  https://openfoam.org
    \\  /    A nd           | Version:  7
     \\/     M anipulation  |
\*---------------------------------------------------------------------------*/
FoamFile
{
    version     2.0;
    format      ascii;
    class       volScalarField;
    location    "2000";
    object      k;
}
// * * * * * * * * * * * * * * * * * * * * * * * * * * * * * * * * * * * * * //

dimensions      [0 2 -2 0 0 0 0];

internalField   nonuniform List<scalar> 
24000
(
6.72349e-09
6.72345e-09
6.7234e-09
6.72333e-09
6.72328e-09
6.72324e-09
6.7232e-09
6.72318e-09
6.72318e-09
6.72319e-09
6.72321e-09
6.72324e-09
6.72328e-09
6.72332e-09
6.72337e-09
6.72342e-09
6.72348e-09
6.72354e-09
6.72359e-09
6.72365e-09
6.72371e-09
6.72378e-09
6.72384e-09
6.7239e-09
6.72396e-09
6.72402e-09
6.72408e-09
6.72414e-09
6.7242e-09
6.72426e-09
6.72431e-09
6.72437e-09
6.72442e-09
6.72448e-09
6.72453e-09
6.72458e-09
6.72463e-09
6.72468e-09
6.72473e-09
6.72477e-09
6.72481e-09
6.72485e-09
6.72487e-09
6.72489e-09
6.72488e-09
6.72485e-09
6.72487e-09
6.7249e-09
6.72494e-09
6.72498e-09
6.72502e-09
6.72506e-09
6.72509e-09
6.72512e-09
6.72515e-09
6.72518e-09
6.72521e-09
6.72524e-09
6.72528e-09
6.72532e-09
6.72536e-09
6.72541e-09
6.72545e-09
6.72549e-09
6.72553e-09
6.72556e-09
6.72559e-09
6.72561e-09
6.72563e-09
6.72564e-09
6.72564e-09
6.72564e-09
6.72563e-09
6.72561e-09
6.72559e-09
6.72557e-09
6.72554e-09
6.7255e-09
6.72547e-09
6.72543e-09
6.72539e-09
6.72535e-09
6.7253e-09
6.72526e-09
6.72521e-09
6.72516e-09
6.72511e-09
6.72506e-09
6.72502e-09
6.72497e-09
6.72493e-09
6.72489e-09
6.72484e-09
6.72479e-09
6.72475e-09
6.7247e-09
6.72465e-09
6.7246e-09
6.72454e-09
6.72448e-09
6.72441e-09
6.72433e-09
6.72426e-09
6.72416e-09
6.72404e-09
6.72398e-09
6.72395e-09
6.72393e-09
6.72391e-09
6.7239e-09
6.72389e-09
6.72388e-09
6.72387e-09
6.72386e-09
6.72385e-09
6.72384e-09
6.72384e-09
6.72381e-09
6.72381e-09
6.72367e-09
2.0262e-07
2.02619e-07
2.02617e-07
2.02615e-07
2.02613e-07
2.02612e-07
2.02611e-07
2.02611e-07
2.0261e-07
2.02611e-07
2.02611e-07
2.02612e-07
2.02613e-07
2.02615e-07
2.02616e-07
2.02618e-07
2.02619e-07
2.02621e-07
2.02623e-07
2.02625e-07
2.02626e-07
2.02628e-07
2.0263e-07
2.02632e-07
2.02634e-07
2.02636e-07
2.02638e-07
2.02639e-07
2.02641e-07
2.02643e-07
2.02645e-07
2.02646e-07
2.02648e-07
2.0265e-07
2.02651e-07
2.02653e-07
2.02654e-07
2.02656e-07
2.02657e-07
2.02658e-07
2.0266e-07
2.02661e-07
2.02661e-07
2.02662e-07
2.02661e-07
2.02661e-07
2.02661e-07
2.02662e-07
2.02663e-07
2.02665e-07
2.02666e-07
2.02667e-07
2.02668e-07
2.02669e-07
2.0267e-07
2.02671e-07
2.02671e-07
2.02672e-07
2.02674e-07
2.02675e-07
2.02676e-07
2.02677e-07
2.02679e-07
2.0268e-07
2.02681e-07
2.02682e-07
2.02683e-07
2.02684e-07
2.02684e-07
2.02684e-07
2.02684e-07
2.02684e-07
2.02684e-07
2.02684e-07
2.02683e-07
2.02682e-07
2.02681e-07
2.0268e-07
2.02679e-07
2.02678e-07
2.02677e-07
2.02676e-07
2.02674e-07
2.02673e-07
2.02672e-07
2.0267e-07
2.02669e-07
2.02667e-07
2.02666e-07
2.02664e-07
2.02663e-07
2.02662e-07
2.0266e-07
2.02659e-07
2.02658e-07
2.02656e-07
2.02655e-07
2.02653e-07
2.02651e-07
2.02649e-07
2.02647e-07
2.02645e-07
2.02643e-07
2.0264e-07
2.02636e-07
2.02635e-07
2.02634e-07
2.02633e-07
2.02632e-07
2.02632e-07
2.02632e-07
2.02631e-07
2.02631e-07
2.02631e-07
2.02631e-07
2.0263e-07
2.0263e-07
2.02629e-07
2.02629e-07
2.02625e-07
1.47089e-06
1.47088e-06
1.47087e-06
1.47085e-06
1.47084e-06
1.47083e-06
1.47083e-06
1.47082e-06
1.47082e-06
1.47082e-06
1.47083e-06
1.47083e-06
1.47084e-06
1.47085e-06
1.47086e-06
1.47087e-06
1.47089e-06
1.4709e-06
1.47091e-06
1.47092e-06
1.47094e-06
1.47095e-06
1.47096e-06
1.47098e-06
1.47099e-06
1.471e-06
1.47102e-06
1.47103e-06
1.47104e-06
1.47106e-06
1.47107e-06
1.47108e-06
1.47109e-06
1.4711e-06
1.47112e-06
1.47113e-06
1.47114e-06
1.47115e-06
1.47116e-06
1.47117e-06
1.47118e-06
1.47119e-06
1.47119e-06
1.47119e-06
1.47119e-06
1.47119e-06
1.47119e-06
1.4712e-06
1.47121e-06
1.47121e-06
1.47122e-06
1.47123e-06
1.47124e-06
1.47125e-06
1.47125e-06
1.47126e-06
1.47126e-06
1.47127e-06
1.47128e-06
1.47129e-06
1.4713e-06
1.47131e-06
1.47132e-06
1.47133e-06
1.47133e-06
1.47134e-06
1.47135e-06
1.47135e-06
1.47136e-06
1.47136e-06
1.47136e-06
1.47136e-06
1.47135e-06
1.47135e-06
1.47135e-06
1.47134e-06
1.47134e-06
1.47133e-06
1.47132e-06
1.47131e-06
1.4713e-06
1.47129e-06
1.47128e-06
1.47127e-06
1.47126e-06
1.47125e-06
1.47124e-06
1.47123e-06
1.47122e-06
1.47121e-06
1.4712e-06
1.47119e-06
1.47118e-06
1.47117e-06
1.47116e-06
1.47115e-06
1.47114e-06
1.47113e-06
1.47112e-06
1.4711e-06
1.47109e-06
1.47107e-06
1.47106e-06
1.47103e-06
1.47101e-06
1.471e-06
1.47099e-06
1.47098e-06
1.47098e-06
1.47098e-06
1.47098e-06
1.47097e-06
1.47097e-06
1.47097e-06
1.47097e-06
1.47097e-06
1.47096e-06
1.47096e-06
1.47096e-06
1.47093e-06
5.4397e-06
5.43965e-06
5.43961e-06
5.43956e-06
5.43952e-06
5.43949e-06
5.43946e-06
5.43945e-06
5.43944e-06
5.43945e-06
5.43947e-06
5.43949e-06
5.43952e-06
5.43956e-06
5.4396e-06
5.43964e-06
5.43968e-06
5.43973e-06
5.43978e-06
5.43983e-06
5.43987e-06
5.43992e-06
5.43997e-06
5.44002e-06
5.44007e-06
5.44012e-06
5.44017e-06
5.44022e-06
5.44026e-06
5.44031e-06
5.44035e-06
5.4404e-06
5.44044e-06
5.44049e-06
5.44053e-06
5.44057e-06
5.44061e-06
5.44065e-06
5.44069e-06
5.44072e-06
5.44075e-06
5.44078e-06
5.4408e-06
5.44081e-06
5.44081e-06
5.44079e-06
5.4408e-06
5.44082e-06
5.44085e-06
5.44089e-06
5.44092e-06
5.44095e-06
5.44098e-06
5.441e-06
5.44102e-06
5.44105e-06
5.44107e-06
5.4411e-06
5.44113e-06
5.44116e-06
5.44119e-06
5.44123e-06
5.44126e-06
5.4413e-06
5.44133e-06
5.44135e-06
5.44138e-06
5.44139e-06
5.4414e-06
5.44141e-06
5.44141e-06
5.44141e-06
5.4414e-06
5.44139e-06
5.44137e-06
5.44135e-06
5.44133e-06
5.4413e-06
5.44127e-06
5.44124e-06
5.44121e-06
5.44118e-06
5.44114e-06
5.4411e-06
5.44107e-06
5.44103e-06
5.44099e-06
5.44095e-06
5.44091e-06
5.44088e-06
5.44084e-06
5.4408e-06
5.44077e-06
5.44073e-06
5.44069e-06
5.44066e-06
5.44061e-06
5.44057e-06
5.44053e-06
5.44048e-06
5.44042e-06
5.44036e-06
5.4403e-06
5.44022e-06
5.44013e-06
5.44009e-06
5.44006e-06
5.44004e-06
5.44003e-06
5.44002e-06
5.44001e-06
5.44e-06
5.43999e-06
5.43998e-06
5.43998e-06
5.43997e-06
5.43997e-06
5.43995e-06
5.43994e-06
5.43985e-06
1.39046e-05
1.39044e-05
1.39043e-05
1.39042e-05
1.39041e-05
1.3904e-05
1.3904e-05
1.39039e-05
1.39039e-05
1.3904e-05
1.3904e-05
1.39041e-05
1.39041e-05
1.39042e-05
1.39043e-05
1.39044e-05
1.39045e-05
1.39047e-05
1.39048e-05
1.39049e-05
1.3905e-05
1.39051e-05
1.39053e-05
1.39054e-05
1.39055e-05
1.39056e-05
1.39058e-05
1.39059e-05
1.3906e-05
1.39061e-05
1.39062e-05
1.39063e-05
1.39064e-05
1.39065e-05
1.39067e-05
1.39068e-05
1.39069e-05
1.3907e-05
1.3907e-05
1.39071e-05
1.39072e-05
1.39073e-05
1.39073e-05
1.39074e-05
1.39074e-05
1.39073e-05
1.39073e-05
1.39074e-05
1.39075e-05
1.39076e-05
1.39076e-05
1.39077e-05
1.39078e-05
1.39078e-05
1.39079e-05
1.39079e-05
1.3908e-05
1.39081e-05
1.39081e-05
1.39082e-05
1.39083e-05
1.39084e-05
1.39085e-05
1.39086e-05
1.39086e-05
1.39087e-05
1.39088e-05
1.39088e-05
1.39088e-05
1.39088e-05
1.39088e-05
1.39088e-05
1.39088e-05
1.39088e-05
1.39087e-05
1.39087e-05
1.39086e-05
1.39086e-05
1.39085e-05
1.39084e-05
1.39083e-05
1.39082e-05
1.39082e-05
1.39081e-05
1.3908e-05
1.39079e-05
1.39078e-05
1.39077e-05
1.39076e-05
1.39075e-05
1.39074e-05
1.39073e-05
1.39072e-05
1.39071e-05
1.3907e-05
1.39069e-05
1.39068e-05
1.39067e-05
1.39066e-05
1.39065e-05
1.39064e-05
1.39062e-05
1.39061e-05
1.39059e-05
1.39057e-05
1.39055e-05
1.39055e-05
1.39054e-05
1.39054e-05
1.39054e-05
1.39053e-05
1.39053e-05
1.39053e-05
1.39053e-05
1.39053e-05
1.39052e-05
1.39052e-05
1.39052e-05
1.39052e-05
1.3905e-05
2.7639e-05
2.76386e-05
2.76384e-05
2.76382e-05
2.7638e-05
2.76379e-05
2.76378e-05
2.76377e-05
2.76377e-05
2.76378e-05
2.76379e-05
2.7638e-05
2.76382e-05
2.76383e-05
2.76385e-05
2.76387e-05
2.76389e-05
2.76392e-05
2.76394e-05
2.76396e-05
2.76399e-05
2.76401e-05
2.76403e-05
2.76406e-05
2.76408e-05
2.7641e-05
2.76412e-05
2.76415e-05
2.76417e-05
2.76419e-05
2.76421e-05
2.76423e-05
2.76425e-05
2.76427e-05
2.76429e-05
2.76431e-05
2.76433e-05
2.76435e-05
2.76437e-05
2.76438e-05
2.7644e-05
2.76441e-05
2.76442e-05
2.76443e-05
2.76443e-05
2.76442e-05
2.76442e-05
2.76443e-05
2.76445e-05
2.76446e-05
2.76448e-05
2.76449e-05
2.7645e-05
2.76451e-05
2.76452e-05
2.76453e-05
2.76455e-05
2.76456e-05
2.76457e-05
2.76459e-05
2.7646e-05
2.76462e-05
2.76464e-05
2.76465e-05
2.76467e-05
2.76468e-05
2.76469e-05
2.76469e-05
2.7647e-05
2.7647e-05
2.7647e-05
2.7647e-05
2.76469e-05
2.76469e-05
2.76468e-05
2.76467e-05
2.76466e-05
2.76464e-05
2.76463e-05
2.76462e-05
2.7646e-05
2.76458e-05
2.76457e-05
2.76455e-05
2.76453e-05
2.76451e-05
2.76449e-05
2.76447e-05
2.76446e-05
2.76444e-05
2.76442e-05
2.76441e-05
2.76439e-05
2.76437e-05
2.76435e-05
2.76433e-05
2.76431e-05
2.76429e-05
2.76427e-05
2.76425e-05
2.76422e-05
2.76419e-05
2.76417e-05
2.76413e-05
2.76409e-05
2.76407e-05
2.76406e-05
2.76405e-05
2.76404e-05
2.76404e-05
2.76403e-05
2.76403e-05
2.76403e-05
2.76402e-05
2.76402e-05
2.76402e-05
2.76402e-05
2.76401e-05
2.76401e-05
2.76398e-05
4.52962e-05
4.52953e-05
4.5295e-05
4.52946e-05
4.52944e-05
4.52942e-05
4.52942e-05
4.52941e-05
4.52941e-05
4.52942e-05
4.52944e-05
4.52946e-05
4.52948e-05
4.52951e-05
4.52954e-05
4.52957e-05
4.5296e-05
4.52964e-05
4.52967e-05
4.52971e-05
4.52974e-05
4.52978e-05
4.52982e-05
4.52985e-05
4.52989e-05
4.52992e-05
4.52996e-05
4.52999e-05
4.53002e-05
4.53006e-05
4.53009e-05
4.53012e-05
4.53015e-05
4.53018e-05
4.53021e-05
4.53024e-05
4.53027e-05
4.53029e-05
4.53032e-05
4.53034e-05
4.53036e-05
4.53039e-05
4.5304e-05
4.53041e-05
4.53041e-05
4.53041e-05
4.53041e-05
4.53043e-05
4.53045e-05
4.53047e-05
4.53049e-05
4.53051e-05
4.53053e-05
4.53055e-05
4.53056e-05
4.53058e-05
4.53059e-05
4.53061e-05
4.53064e-05
4.53066e-05
4.53068e-05
4.53071e-05
4.53073e-05
4.53075e-05
4.53077e-05
4.53079e-05
4.5308e-05
4.53081e-05
4.53082e-05
4.53082e-05
4.53082e-05
4.53082e-05
4.53081e-05
4.5308e-05
4.53078e-05
4.53077e-05
4.53075e-05
4.53073e-05
4.53071e-05
4.53068e-05
4.53066e-05
4.53063e-05
4.53061e-05
4.53058e-05
4.53055e-05
4.53052e-05
4.53049e-05
4.53046e-05
4.53044e-05
4.53041e-05
4.53038e-05
4.53036e-05
4.53033e-05
4.5303e-05
4.53027e-05
4.53024e-05
4.53021e-05
4.53018e-05
4.53015e-05
4.53011e-05
4.53008e-05
4.53003e-05
4.52999e-05
4.52994e-05
4.52989e-05
4.52985e-05
4.52983e-05
4.52982e-05
4.52981e-05
4.5298e-05
4.5298e-05
4.52979e-05
4.52978e-05
4.52978e-05
4.52978e-05
4.52978e-05
4.52978e-05
4.52977e-05
4.52976e-05
4.52974e-05
6.41074e-05
6.4106e-05
6.41054e-05
6.41049e-05
6.41047e-05
6.41045e-05
6.41045e-05
6.41044e-05
6.41045e-05
6.41046e-05
6.41049e-05
6.41052e-05
6.41055e-05
6.41059e-05
6.41063e-05
6.41067e-05
6.41072e-05
6.41076e-05
6.41081e-05
6.41086e-05
6.4109e-05
6.41095e-05
6.411e-05
6.41105e-05
6.41109e-05
6.41114e-05
6.41118e-05
6.41123e-05
6.41127e-05
6.41131e-05
6.41135e-05
6.41139e-05
6.41143e-05
6.41147e-05
6.41151e-05
6.41155e-05
6.41158e-05
6.41162e-05
6.41165e-05
6.41168e-05
6.41171e-05
6.41173e-05
6.41175e-05
6.41177e-05
6.41178e-05
6.41177e-05
6.41178e-05
6.4118e-05
6.41182e-05
6.41185e-05
6.41188e-05
6.4119e-05
6.41192e-05
6.41194e-05
6.41196e-05
6.41199e-05
6.41201e-05
6.41203e-05
6.41206e-05
6.41209e-05
6.41213e-05
6.41216e-05
6.41219e-05
6.41222e-05
6.41224e-05
6.41226e-05
6.41227e-05
6.41229e-05
6.41229e-05
6.41229e-05
6.41229e-05
6.41228e-05
6.41227e-05
6.41225e-05
6.41223e-05
6.41221e-05
6.41218e-05
6.41216e-05
6.41213e-05
6.41209e-05
6.41206e-05
6.41203e-05
6.41199e-05
6.41195e-05
6.41192e-05
6.41188e-05
6.41184e-05
6.4118e-05
6.41177e-05
6.41173e-05
6.41169e-05
6.41166e-05
6.41162e-05
6.41159e-05
6.41155e-05
6.41151e-05
6.41147e-05
6.41143e-05
6.41138e-05
6.41133e-05
6.41129e-05
6.41123e-05
6.41118e-05
6.41112e-05
6.41106e-05
6.41101e-05
6.41098e-05
6.41097e-05
6.41095e-05
6.41094e-05
6.41094e-05
6.41093e-05
6.41092e-05
6.41092e-05
6.41092e-05
6.41092e-05
6.41092e-05
6.41091e-05
6.41091e-05
6.4109e-05
8.17107e-05
8.17088e-05
8.17078e-05
8.17073e-05
8.17069e-05
8.17069e-05
8.17069e-05
8.17069e-05
8.1707e-05
8.17072e-05
8.17075e-05
8.17079e-05
8.17083e-05
8.17088e-05
8.17093e-05
8.17098e-05
8.17103e-05
8.17109e-05
8.17115e-05
8.1712e-05
8.17126e-05
8.17132e-05
8.17138e-05
8.17143e-05
8.17149e-05
8.17154e-05
8.1716e-05
8.17165e-05
8.1717e-05
8.17175e-05
8.1718e-05
8.17184e-05
8.17189e-05
8.17194e-05
8.17198e-05
8.17202e-05
8.17206e-05
8.1721e-05
8.17214e-05
8.17218e-05
8.17221e-05
8.17224e-05
8.17226e-05
8.17228e-05
8.1723e-05
8.17229e-05
8.1723e-05
8.17232e-05
8.17235e-05
8.17238e-05
8.17241e-05
8.17244e-05
8.17246e-05
8.17249e-05
8.17251e-05
8.17254e-05
8.17256e-05
8.1726e-05
8.17263e-05
8.17267e-05
8.17271e-05
8.17274e-05
8.17278e-05
8.17281e-05
8.17283e-05
8.17285e-05
8.17287e-05
8.17288e-05
8.17288e-05
8.17288e-05
8.17287e-05
8.17286e-05
8.17285e-05
8.17282e-05
8.1728e-05
8.17277e-05
8.17274e-05
8.1727e-05
8.17267e-05
8.17263e-05
8.17259e-05
8.17254e-05
8.1725e-05
8.17246e-05
8.17241e-05
8.17236e-05
8.17232e-05
8.17227e-05
8.17223e-05
8.17218e-05
8.17214e-05
8.1721e-05
8.17206e-05
8.17201e-05
8.17196e-05
8.17192e-05
8.17187e-05
8.17181e-05
8.17176e-05
8.1717e-05
8.17165e-05
8.17159e-05
8.17153e-05
8.17147e-05
8.17139e-05
8.17134e-05
8.17131e-05
8.17128e-05
8.17127e-05
8.17126e-05
8.17125e-05
8.17124e-05
8.17124e-05
8.17124e-05
8.17124e-05
8.17124e-05
8.17124e-05
8.17124e-05
8.17123e-05
8.17126e-05
9.69633e-05
9.69609e-05
9.69597e-05
9.69589e-05
9.69585e-05
9.69585e-05
9.69586e-05
9.69586e-05
9.69588e-05
9.69591e-05
9.69595e-05
9.69599e-05
9.69604e-05
9.6961e-05
9.69616e-05
9.69622e-05
9.69628e-05
9.69635e-05
9.69641e-05
9.69648e-05
9.69654e-05
9.69661e-05
9.69667e-05
9.69673e-05
9.6968e-05
9.69686e-05
9.69692e-05
9.69698e-05
9.69704e-05
9.69709e-05
9.69714e-05
9.6972e-05
9.69725e-05
9.6973e-05
9.69735e-05
9.69739e-05
9.69744e-05
9.69748e-05
9.69752e-05
9.69756e-05
9.6976e-05
9.69763e-05
9.69766e-05
9.69768e-05
9.6977e-05
9.6977e-05
9.69771e-05
9.69773e-05
9.69776e-05
9.69779e-05
9.69782e-05
9.69785e-05
9.69788e-05
9.69791e-05
9.69793e-05
9.69796e-05
9.698e-05
9.69803e-05
9.69807e-05
9.69812e-05
9.69816e-05
9.6982e-05
9.69823e-05
9.69826e-05
9.69829e-05
9.69831e-05
9.69832e-05
9.69833e-05
9.69833e-05
9.69833e-05
9.69832e-05
9.6983e-05
9.69828e-05
9.69825e-05
9.69822e-05
9.69819e-05
9.69815e-05
9.69811e-05
9.69806e-05
9.69802e-05
9.69797e-05
9.69792e-05
9.69787e-05
9.69782e-05
9.69777e-05
9.69772e-05
9.69766e-05
9.69761e-05
9.69756e-05
9.69751e-05
9.69746e-05
9.69741e-05
9.69736e-05
9.69731e-05
9.69726e-05
9.6972e-05
9.69714e-05
9.69708e-05
9.69702e-05
9.69696e-05
9.69689e-05
9.69683e-05
9.69677e-05
9.6967e-05
9.69663e-05
9.69657e-05
9.69653e-05
9.69651e-05
9.69649e-05
9.69648e-05
9.69647e-05
9.69647e-05
9.69646e-05
9.69646e-05
9.69646e-05
9.69647e-05
9.69647e-05
9.69648e-05
9.69647e-05
9.69652e-05
0.00010965
0.000109648
0.000109646
0.000109645
0.000109645
0.000109645
0.000109645
0.000109645
0.000109645
0.000109646
0.000109646
0.000109647
0.000109647
0.000109648
0.000109648
0.000109649
0.00010965
0.000109651
0.000109651
0.000109652
0.000109653
0.000109653
0.000109654
0.000109655
0.000109656
0.000109656
0.000109657
0.000109658
0.000109658
0.000109659
0.000109659
0.00010966
0.00010966
0.000109661
0.000109662
0.000109662
0.000109662
0.000109663
0.000109663
0.000109664
0.000109664
0.000109665
0.000109665
0.000109665
0.000109665
0.000109665
0.000109666
0.000109666
0.000109666
0.000109666
0.000109667
0.000109667
0.000109667
0.000109667
0.000109668
0.000109668
0.000109669
0.000109669
0.000109669
0.00010967
0.00010967
0.000109671
0.000109671
0.000109671
0.000109672
0.000109672
0.000109672
0.000109672
0.000109672
0.000109672
0.000109672
0.000109671
0.000109671
0.000109671
0.000109671
0.00010967
0.00010967
0.000109669
0.000109669
0.000109668
0.000109668
0.000109667
0.000109667
0.000109666
0.000109665
0.000109665
0.000109664
0.000109664
0.000109663
0.000109663
0.000109662
0.000109661
0.000109661
0.00010966
0.00010966
0.000109659
0.000109658
0.000109658
0.000109657
0.000109656
0.000109656
0.000109655
0.000109654
0.000109654
0.000109653
0.000109652
0.000109652
0.000109652
0.000109651
0.000109651
0.000109651
0.000109651
0.000109651
0.000109651
0.000109651
0.000109651
0.000109651
0.000109652
0.000109652
0.000109652
0.000119996
0.000119994
0.000119992
0.000119991
0.00011999
0.00011999
0.00011999
0.00011999
0.000119991
0.000119991
0.000119992
0.000119992
0.000119993
0.000119993
0.000119994
0.000119995
0.000119996
0.000119996
0.000119997
0.000119998
0.000119999
0.00012
0.00012
0.000120001
0.000120002
0.000120003
0.000120003
0.000120004
0.000120005
0.000120005
0.000120006
0.000120007
0.000120007
0.000120008
0.000120008
0.000120009
0.000120009
0.00012001
0.00012001
0.000120011
0.000120011
0.000120011
0.000120012
0.000120012
0.000120012
0.000120012
0.000120013
0.000120013
0.000120013
0.000120013
0.000120014
0.000120014
0.000120014
0.000120015
0.000120015
0.000120015
0.000120016
0.000120016
0.000120017
0.000120017
0.000120018
0.000120018
0.000120018
0.000120019
0.000120019
0.000120019
0.000120019
0.000120019
0.000120019
0.000120019
0.000120019
0.000120019
0.000120018
0.000120018
0.000120017
0.000120017
0.000120016
0.000120016
0.000120015
0.000120015
0.000120014
0.000120014
0.000120013
0.000120012
0.000120012
0.000120011
0.00012001
0.00012001
0.000120009
0.000120009
0.000120008
0.000120007
0.000120007
0.000120006
0.000120005
0.000120005
0.000120004
0.000120003
0.000120002
0.000120002
0.000120001
0.00012
0.00012
0.000119999
0.000119998
0.000119998
0.000119997
0.000119997
0.000119997
0.000119997
0.000119997
0.000119997
0.000119997
0.000119997
0.000119997
0.000119997
0.000119997
0.000119997
0.000119997
0.000119998
0.000128358
0.000128355
0.000128353
0.000128352
0.000128351
0.000128351
0.000128351
0.000128352
0.000128352
0.000128352
0.000128353
0.000128354
0.000128354
0.000128355
0.000128356
0.000128357
0.000128358
0.000128358
0.000128359
0.00012836
0.000128361
0.000128362
0.000128363
0.000128363
0.000128364
0.000128365
0.000128366
0.000128366
0.000128367
0.000128368
0.000128368
0.000128369
0.00012837
0.00012837
0.000128371
0.000128371
0.000128372
0.000128373
0.000128373
0.000128373
0.000128374
0.000128374
0.000128375
0.000128375
0.000128375
0.000128375
0.000128375
0.000128376
0.000128376
0.000128376
0.000128376
0.000128377
0.000128377
0.000128377
0.000128378
0.000128378
0.000128379
0.000128379
0.00012838
0.00012838
0.000128381
0.000128381
0.000128382
0.000128382
0.000128382
0.000128382
0.000128382
0.000128382
0.000128382
0.000128382
0.000128382
0.000128381
0.000128381
0.00012838
0.00012838
0.000128379
0.000128379
0.000128378
0.000128378
0.000128377
0.000128376
0.000128376
0.000128375
0.000128374
0.000128374
0.000128373
0.000128372
0.000128372
0.000128371
0.00012837
0.00012837
0.000128369
0.000128368
0.000128368
0.000128367
0.000128366
0.000128365
0.000128365
0.000128364
0.000128363
0.000128362
0.000128362
0.000128361
0.00012836
0.00012836
0.000128359
0.000128358
0.000128358
0.000128358
0.000128358
0.000128358
0.000128358
0.000128358
0.000128358
0.000128358
0.000128358
0.000128358
0.000128359
0.000128359
0.00012836
0.000135089
0.000135086
0.000135084
0.000135083
0.000135082
0.000135082
0.000135082
0.000135082
0.000135083
0.000135083
0.000135084
0.000135084
0.000135085
0.000135086
0.000135087
0.000135088
0.000135089
0.00013509
0.00013509
0.000135091
0.000135092
0.000135093
0.000135094
0.000135095
0.000135096
0.000135097
0.000135097
0.000135098
0.000135099
0.0001351
0.0001351
0.000135101
0.000135102
0.000135102
0.000135103
0.000135103
0.000135104
0.000135105
0.000135105
0.000135106
0.000135106
0.000135106
0.000135107
0.000135107
0.000135107
0.000135108
0.000135108
0.000135108
0.000135108
0.000135108
0.000135109
0.000135109
0.000135109
0.00013511
0.00013511
0.000135111
0.000135111
0.000135112
0.000135112
0.000135113
0.000135113
0.000135114
0.000135114
0.000135114
0.000135114
0.000135115
0.000135115
0.000135114
0.000135114
0.000135114
0.000135114
0.000135113
0.000135113
0.000135112
0.000135112
0.000135111
0.000135111
0.00013511
0.000135109
0.000135109
0.000135108
0.000135107
0.000135107
0.000135106
0.000135105
0.000135104
0.000135104
0.000135103
0.000135102
0.000135101
0.000135101
0.0001351
0.000135099
0.000135098
0.000135098
0.000135097
0.000135096
0.000135095
0.000135094
0.000135093
0.000135093
0.000135092
0.000135091
0.000135091
0.00013509
0.000135089
0.000135089
0.000135089
0.000135089
0.000135088
0.000135088
0.000135088
0.000135089
0.000135089
0.000135089
0.000135089
0.000135089
0.00013509
0.00013509
0.000135091
0.000140494
0.000140491
0.000140489
0.000140487
0.000140486
0.000140486
0.000140486
0.000140486
0.000140487
0.000140487
0.000140488
0.000140489
0.00014049
0.00014049
0.000140491
0.000140492
0.000140493
0.000140494
0.000140495
0.000140496
0.000140497
0.000140498
0.000140499
0.0001405
0.000140501
0.000140502
0.000140502
0.000140503
0.000140504
0.000140505
0.000140505
0.000140506
0.000140507
0.000140508
0.000140508
0.000140509
0.000140509
0.00014051
0.00014051
0.000140511
0.000140511
0.000140512
0.000140512
0.000140512
0.000140513
0.000140513
0.000140513
0.000140513
0.000140514
0.000140514
0.000140514
0.000140514
0.000140515
0.000140515
0.000140516
0.000140516
0.000140517
0.000140518
0.000140518
0.000140519
0.000140519
0.000140519
0.00014052
0.00014052
0.00014052
0.00014052
0.00014052
0.00014052
0.00014052
0.000140519
0.000140519
0.000140519
0.000140518
0.000140518
0.000140517
0.000140516
0.000140516
0.000140515
0.000140514
0.000140514
0.000140513
0.000140512
0.000140511
0.00014051
0.00014051
0.000140509
0.000140508
0.000140507
0.000140507
0.000140506
0.000140505
0.000140504
0.000140503
0.000140503
0.000140502
0.000140501
0.0001405
0.000140499
0.000140498
0.000140497
0.000140496
0.000140496
0.000140495
0.000140495
0.000140494
0.000140493
0.000140493
0.000140493
0.000140492
0.000140492
0.000140492
0.000140492
0.000140492
0.000140493
0.000140493
0.000140493
0.000140493
0.000140494
0.000140494
0.000140495
0.000144818
0.000144815
0.000144813
0.000144812
0.000144811
0.00014481
0.00014481
0.000144811
0.000144811
0.000144812
0.000144812
0.000144813
0.000144814
0.000144815
0.000144816
0.000144817
0.000144818
0.000144819
0.00014482
0.000144821
0.000144822
0.000144823
0.000144824
0.000144825
0.000144826
0.000144827
0.000144827
0.000144828
0.000144829
0.00014483
0.000144831
0.000144831
0.000144832
0.000144833
0.000144833
0.000144834
0.000144835
0.000144835
0.000144836
0.000144836
0.000144837
0.000144837
0.000144838
0.000144838
0.000144838
0.000144839
0.000144839
0.000144839
0.000144839
0.000144839
0.00014484
0.00014484
0.00014484
0.000144841
0.000144841
0.000144842
0.000144843
0.000144843
0.000144844
0.000144845
0.000144845
0.000144845
0.000144846
0.000144846
0.000144846
0.000144846
0.000144846
0.000144845
0.000144845
0.000144845
0.000144844
0.000144844
0.000144843
0.000144843
0.000144842
0.000144841
0.000144841
0.00014484
0.000144839
0.000144838
0.000144838
0.000144837
0.000144836
0.000144835
0.000144834
0.000144833
0.000144833
0.000144832
0.000144831
0.00014483
0.000144829
0.000144829
0.000144828
0.000144827
0.000144826
0.000144825
0.000144824
0.000144823
0.000144822
0.000144821
0.00014482
0.00014482
0.000144819
0.000144818
0.000144818
0.000144817
0.000144817
0.000144817
0.000144816
0.000144816
0.000144816
0.000144816
0.000144817
0.000144817
0.000144817
0.000144817
0.000144818
0.000144818
0.000144818
0.00014482
0.000148258
0.000148256
0.000148254
0.000148252
0.000148251
0.000148251
0.000148251
0.000148251
0.000148251
0.000148252
0.000148252
0.000148253
0.000148254
0.000148255
0.000148256
0.000148257
0.000148258
0.000148259
0.00014826
0.000148261
0.000148262
0.000148263
0.000148264
0.000148265
0.000148266
0.000148267
0.000148268
0.000148269
0.00014827
0.000148271
0.000148272
0.000148272
0.000148273
0.000148274
0.000148275
0.000148275
0.000148276
0.000148276
0.000148277
0.000148277
0.000148278
0.000148278
0.000148279
0.000148279
0.00014828
0.00014828
0.00014828
0.00014828
0.00014828
0.000148281
0.000148281
0.000148281
0.000148282
0.000148282
0.000148283
0.000148284
0.000148284
0.000148285
0.000148286
0.000148286
0.000148287
0.000148287
0.000148287
0.000148287
0.000148287
0.000148287
0.000148287
0.000148287
0.000148286
0.000148286
0.000148285
0.000148285
0.000148284
0.000148284
0.000148283
0.000148282
0.000148281
0.000148281
0.00014828
0.000148279
0.000148278
0.000148277
0.000148276
0.000148276
0.000148275
0.000148274
0.000148273
0.000148272
0.000148271
0.00014827
0.000148269
0.000148269
0.000148268
0.000148267
0.000148266
0.000148264
0.000148263
0.000148262
0.000148262
0.000148261
0.00014826
0.000148259
0.000148259
0.000148258
0.000148258
0.000148257
0.000148257
0.000148256
0.000148256
0.000148256
0.000148256
0.000148256
0.000148256
0.000148257
0.000148257
0.000148257
0.000148258
0.000148258
0.000148258
0.00014826
0.000150968
0.000150966
0.000150964
0.000150962
0.000150961
0.000150961
0.000150961
0.000150961
0.000150961
0.000150962
0.000150962
0.000150963
0.000150964
0.000150965
0.000150966
0.000150967
0.000150968
0.000150969
0.000150971
0.000150972
0.000150973
0.000150974
0.000150975
0.000150976
0.000150977
0.000150978
0.000150979
0.00015098
0.000150981
0.000150981
0.000150982
0.000150983
0.000150984
0.000150985
0.000150985
0.000150986
0.000150987
0.000150987
0.000150988
0.000150988
0.000150989
0.000150989
0.00015099
0.00015099
0.000150991
0.000150991
0.000150991
0.000150991
0.000150991
0.000150992
0.000150992
0.000150992
0.000150993
0.000150994
0.000150994
0.000150995
0.000150996
0.000150996
0.000150997
0.000150997
0.000150998
0.000150998
0.000150998
0.000150998
0.000150998
0.000150998
0.000150998
0.000150997
0.000150997
0.000150996
0.000150996
0.000150995
0.000150995
0.000150994
0.000150993
0.000150993
0.000150992
0.000150991
0.00015099
0.000150989
0.000150988
0.000150987
0.000150986
0.000150986
0.000150985
0.000150984
0.000150983
0.000150982
0.000150981
0.00015098
0.000150979
0.000150978
0.000150977
0.000150976
0.000150975
0.000150974
0.000150973
0.000150972
0.000150971
0.00015097
0.000150969
0.000150969
0.000150968
0.000150968
0.000150967
0.000150967
0.000150966
0.000150966
0.000150966
0.000150966
0.000150966
0.000150966
0.000150966
0.000150966
0.000150967
0.000150967
0.000150968
0.000150968
0.000150968
0.00015097
0.000153069
0.000153066
0.000153064
0.000153063
0.000153062
0.000153061
0.000153061
0.000153061
0.000153062
0.000153062
0.000153063
0.000153064
0.000153065
0.000153066
0.000153067
0.000153068
0.000153069
0.00015307
0.000153071
0.000153073
0.000153074
0.000153075
0.000153076
0.000153077
0.000153078
0.000153079
0.00015308
0.000153081
0.000153082
0.000153083
0.000153084
0.000153084
0.000153085
0.000153086
0.000153087
0.000153087
0.000153088
0.000153089
0.000153089
0.00015309
0.00015309
0.000153091
0.000153091
0.000153092
0.000153092
0.000153092
0.000153093
0.000153093
0.000153093
0.000153093
0.000153094
0.000153094
0.000153095
0.000153095
0.000153096
0.000153097
0.000153098
0.000153098
0.000153099
0.000153099
0.000153099
0.0001531
0.0001531
0.0001531
0.0001531
0.000153099
0.000153099
0.000153099
0.000153098
0.000153098
0.000153097
0.000153096
0.000153096
0.000153095
0.000153094
0.000153093
0.000153092
0.000153092
0.000153091
0.00015309
0.000153089
0.000153088
0.000153087
0.000153086
0.000153085
0.000153084
0.000153083
0.000153082
0.000153081
0.00015308
0.000153079
0.000153078
0.000153077
0.000153076
0.000153075
0.000153074
0.000153073
0.000153072
0.000153071
0.00015307
0.000153069
0.000153068
0.000153068
0.000153068
0.000153067
0.000153067
0.000153066
0.000153066
0.000153066
0.000153066
0.000153066
0.000153066
0.000153067
0.000153067
0.000153067
0.000153068
0.000153068
0.000153069
0.000153069
0.000153071
0.000154655
0.000154653
0.000154651
0.00015465
0.000154649
0.000154648
0.000154648
0.000154648
0.000154649
0.000154649
0.00015465
0.000154651
0.000154652
0.000154653
0.000154654
0.000154655
0.000154656
0.000154657
0.000154658
0.00015466
0.000154661
0.000154662
0.000154663
0.000154664
0.000154665
0.000154666
0.000154667
0.000154668
0.000154669
0.00015467
0.000154671
0.000154672
0.000154673
0.000154673
0.000154674
0.000154675
0.000154675
0.000154676
0.000154677
0.000154677
0.000154678
0.000154678
0.000154679
0.000154679
0.00015468
0.00015468
0.00015468
0.00015468
0.000154681
0.000154681
0.000154681
0.000154682
0.000154683
0.000154683
0.000154684
0.000154685
0.000154686
0.000154686
0.000154687
0.000154687
0.000154687
0.000154687
0.000154687
0.000154687
0.000154687
0.000154687
0.000154686
0.000154686
0.000154685
0.000154685
0.000154684
0.000154683
0.000154683
0.000154682
0.000154681
0.00015468
0.000154679
0.000154678
0.000154677
0.000154676
0.000154675
0.000154674
0.000154673
0.000154672
0.000154671
0.000154671
0.00015467
0.000154669
0.000154668
0.000154667
0.000154665
0.000154664
0.000154663
0.000154662
0.000154661
0.000154659
0.000154658
0.000154657
0.000154657
0.000154656
0.000154655
0.000154655
0.000154654
0.000154654
0.000154653
0.000154653
0.000154653
0.000154653
0.000154652
0.000154652
0.000154653
0.000154653
0.000154653
0.000154653
0.000154654
0.000154654
0.000154655
0.000154655
0.000154656
0.000154657
0.000155804
0.000155802
0.0001558
0.000155799
0.000155798
0.000155797
0.000155797
0.000155797
0.000155798
0.000155798
0.000155799
0.0001558
0.000155801
0.000155802
0.000155803
0.000155804
0.000155805
0.000155806
0.000155807
0.000155808
0.00015581
0.000155811
0.000155812
0.000155813
0.000155814
0.000155815
0.000155816
0.000155817
0.000155818
0.000155819
0.00015582
0.000155821
0.000155822
0.000155823
0.000155823
0.000155824
0.000155825
0.000155825
0.000155826
0.000155827
0.000155827
0.000155828
0.000155828
0.000155829
0.000155829
0.00015583
0.00015583
0.00015583
0.00015583
0.00015583
0.000155831
0.000155832
0.000155832
0.000155833
0.000155834
0.000155835
0.000155835
0.000155836
0.000155836
0.000155836
0.000155837
0.000155837
0.000155836
0.000155836