/*--------------------------------*- C++ -*----------------------------------*\
  =========                 |
  \\      /  F ield         | OpenFOAM: The Open Source CFD Toolbox
   \\    /   O peration     | Website:  https://openfoam.org
    \\  /    A nd           | Version:  7
     \\/     M anipulation  |
\*---------------------------------------------------------------------------*/
FoamFile
{
    version     2.0;
    format      ascii;
    class       volScalarField;
    location    "2000";
    object      omega;
}
// * * * * * * * * * * * * * * * * * * * * * * * * * * * * * * * * * * * * * //

dimensions      [0 0 -1 0 0 0 0];

internalField   nonuniform List<scalar> 
24000
(
999.269
999.269
999.269
999.269
999.269
999.269
999.269
999.269
999.269
999.269
999.269
999.269
999.269
999.269
999.269
999.269
999.269
999.269
999.269
999.269
999.269
999.269
999.269
999.269
999.269
999.269
999.269
999.269
999.269
999.269
999.269
999.269
999.269
999.269
999.269
999.269
999.269
999.269
999.269
999.269
999.269
999.269
999.269
999.269
999.269
999.269
999.269
999.269
999.269
999.269
999.269
999.269
999.269
999.269
999.269
999.269
999.269
999.269
999.269
999.269
999.269
999.269
999.269
999.269
999.269
999.269
999.269
999.269
999.269
999.269
999.269
999.269
999.269
999.269
999.269
999.269
999.269
999.269
999.269
999.269
999.269
999.269
999.269
999.269
999.269
999.269
999.269
999.269
999.269
999.269
999.269
999.269
999.269
999.269
999.269
999.269
999.269
999.269
999.269
999.269
999.269
999.269
999.269
999.269
999.269
999.269
999.269
999.269
999.269
999.269
999.269
999.269
999.269
999.269
999.269
999.269
999.269
999.269
999.269
999.269
173.156
173.156
173.156
173.156
173.156
173.156
173.156
173.156
173.156
173.156
173.156
173.156
173.156
173.156
173.156
173.156
173.156
173.156
173.156
173.156
173.156
173.156
173.156
173.156
173.156
173.156
173.156
173.156
173.156
173.156
173.156
173.156
173.156
173.156
173.156
173.156
173.156
173.156
173.156
173.156
173.156
173.156
173.156
173.156
173.156
173.156
173.156
173.156
173.156
173.156
173.156
173.156
173.156
173.156
173.156
173.156
173.156
173.156
173.156
173.156
173.156
173.156
173.156
173.156
173.156
173.156
173.156
173.156
173.156
173.156
173.156
173.156
173.156
173.156
173.156
173.156
173.156
173.156
173.156
173.156
173.156
173.156
173.156
173.156
173.156
173.156
173.156
173.156
173.156
173.156
173.156
173.156
173.156
173.156
173.156
173.156
173.156
173.156
173.156
173.156
173.156
173.156
173.156
173.156
173.156
173.156
173.156
173.156
173.156
173.156
173.156
173.156
173.156
173.156
173.156
173.156
173.156
173.156
173.156
173.156
58.7549
58.7548
58.7548
58.7548
58.7548
58.7548
58.7548
58.7548
58.7548
58.7548
58.7548
58.7548
58.7548
58.7548
58.7548
58.7548
58.7548
58.7548
58.7548
58.7548
58.7548
58.7548
58.7548
58.7548
58.7548
58.7548
58.7548
58.7548
58.7548
58.7548
58.7548
58.7549
58.7549
58.7549
58.7549
58.7549
58.7549
58.7549
58.7549
58.7549
58.7549
58.7549
58.7549
58.7549
58.7549
58.7549
58.7549
58.7549
58.7549
58.7549
58.7549
58.7549
58.7549
58.7549
58.7549
58.7549
58.7549
58.7549
58.7549
58.7549
58.7549
58.7549
58.7549
58.7549
58.7549
58.7549
58.7549
58.7549
58.7549
58.7549
58.7549
58.7549
58.7549
58.7549
58.7549
58.7549
58.7549
58.7549
58.7549
58.7549
58.7549
58.7549
58.7549
58.7549
58.7549
58.7549
58.7549
58.7549
58.7549
58.7549
58.7549
58.7549
58.7549
58.7549
58.7549
58.7549
58.7549
58.7549
58.7549
58.7549
58.7549
58.7549
58.7549
58.7549
58.7549
58.7549
58.7549
58.7549
58.7549
58.7549
58.7549
58.7549
58.7549
58.7549
58.7549
58.7549
58.7549
58.7549
58.7549
58.7549
28.3291
28.329
28.3289
28.3289
28.329
28.329
28.329
28.329
28.329
28.329
28.329
28.329
28.329
28.329
28.329
28.329
28.329
28.329
28.329
28.329
28.329
28.329
28.329
28.329
28.329
28.329
28.329
28.329
28.329
28.329
28.329
28.329
28.329
28.329
28.329
28.329
28.329
28.329
28.329
28.329
28.3291
28.3291
28.3291
28.3291
28.3291
28.3291
28.3291
28.3291
28.3291
28.3291
28.329
28.3291
28.3291
28.3291
28.3291
28.3291
28.3291
28.3291
28.3291
28.3291
28.3291
28.3291
28.3291
28.3291
28.3291
28.3291
28.3291
28.3291
28.3291
28.3291
28.3291
28.3291
28.3291
28.3291
28.3291
28.3291
28.3291
28.3291
28.3291
28.3291
28.3291
28.3291
28.3291
28.3291
28.3291
28.3291
28.3291
28.3291
28.3291
28.3291
28.3291
28.3291
28.3291
28.3291
28.3291
28.3291
28.3291
28.3291
28.3291
28.3291
28.3291
28.3291
28.3291
28.3291
28.3291
28.3291
28.3291
28.329
28.329
28.329
28.329
28.329
28.329
28.329
28.329
28.329
28.329
28.329
28.329
28.3291
16.9624
16.9623
16.9622
16.9621
16.9621
16.9621
16.9621
16.9621
16.9621
16.9621
16.9621
16.9621
16.9621
16.9621
16.9621
16.9621
16.9621
16.9621
16.9621
16.9621
16.9621
16.9621
16.9621
16.9621
16.9621
16.9621
16.9621
16.9622
16.9622
16.9622
16.9622
16.9622
16.9622
16.9622
16.9622
16.9622
16.9622
16.9622
16.9622
16.9622
16.9622
16.9622
16.9622
16.9622
16.9623
16.9623
16.9623
16.9622
16.9622
16.9622
16.9622
16.9622
16.9622
16.9622
16.9622
16.9622
16.9623
16.9623
16.9623
16.9623
16.9623
16.9623
16.9623
16.9623
16.9623
16.9623
16.9623
16.9623
16.9623
16.9623
16.9623
16.9623
16.9623
16.9623
16.9623
16.9623
16.9623
16.9623
16.9623
16.9623
16.9623
16.9623
16.9623
16.9623
16.9623
16.9623
16.9623
16.9623
16.9623
16.9623
16.9623
16.9623
16.9623
16.9623
16.9623
16.9623
16.9623
16.9623
16.9623
16.9623
16.9623
16.9623
16.9623
16.9623
16.9623
16.9623
16.9622
16.9622
16.9622
16.9622
16.9622
16.9622
16.9622
16.9622
16.9622
16.9622
16.9622
16.9622
16.9622
16.9622
11.7113
11.7111
11.711
11.7109
11.7109
11.7109
11.7109
11.7109
11.7109
11.7109
11.7109
11.7109
11.7109
11.7109
11.7109
11.7109
11.7109
11.7109
11.7109
11.7109
11.7109
11.7109
11.7109
11.7109
11.7109
11.7109
11.7109
11.7109
11.7109
11.7109
11.7109
11.7109
11.7109
11.7109
11.7109
11.711
11.711
11.711
11.711
11.711
11.711
11.711
11.711
11.711
11.711
11.711
11.711
11.711
11.711
11.711
11.711
11.711
11.711
11.711
11.711
11.711
11.711
11.711
11.711
11.711
11.711
11.711
11.711
11.7111
11.7111
11.7111
11.7111
11.7111
11.7111
11.7111
11.7111
11.7111
11.7111
11.7111
11.7111
11.7111
11.7111
11.7111
11.7111
11.7111
11.7111
11.7111
11.7111
11.7111
11.7111
11.7111
11.7111
11.7111
11.7111
11.7111
11.7111
11.7111
11.7111
11.7111
11.7111
11.7111
11.7111
11.7111
11.7111
11.7111
11.7111
11.7111
11.7111
11.7111
11.7111
11.7111
11.711
11.711
11.711
11.711
11.711
11.711
11.711
11.711
11.711
11.711
11.711
11.711
11.711
11.711
8.83787
8.83774
8.83759
8.83751
8.83747
8.83745
8.83744
8.83744
8.83743
8.83743
8.83743
8.83743
8.83743
8.83743
8.83743
8.83743
8.83742
8.83742
8.83742
8.83742
8.83742
8.83742
8.83742
8.83742
8.83742
8.83742
8.83743
8.83743
8.83743
8.83743
8.83743
8.83743
8.83743
8.83744
8.83744
8.83744
8.83745
8.83745
8.83745
8.83746
8.83746
8.83747
8.83748
8.83749
8.83751
8.83752
8.83752
8.83752
8.83751
8.8375
8.83749
8.83748
8.83748
8.83748
8.83748
8.83749
8.83749
8.8375
8.8375
8.83751
8.83751
8.83752
8.83752
8.83752
8.83753
8.83753
8.83754
8.83754
8.83754
8.83755
8.83755
8.83755
8.83756
8.83756
8.83756
8.83757
8.83757
8.83757
8.83757
8.83757
8.83757
8.83758
8.83758
8.83758
8.83758
8.83758
8.83758
8.83758
8.83757
8.83757
8.83757
8.83757
8.83756
8.83756
8.83756
8.83756
8.83755
8.83755
8.83755
8.83755
8.83755
8.83755
8.83756
8.83756
8.83757
8.83757
8.83755
8.83753
8.83752
8.8375
8.83749
8.83749
8.83748
8.83748
8.83747
8.83747
8.83747
8.83748
8.83749
8.8375
7.02923
7.02915
7.02901
7.02892
7.02887
7.02884
7.02882
7.02881
7.0288
7.0288
7.0288
7.0288
7.02879
7.02879
7.02879
7.02879
7.02879
7.02878
7.02878
7.02878
7.02878
7.02878
7.02878
7.02877
7.02877
7.02877
7.02877
7.02877
7.02877
7.02877
7.02877
7.02877
7.02877
7.02877
7.02877
7.02877
7.02877
7.02877
7.02877
7.02878
7.02878
7.02879
7.02879
7.0288
7.02882
7.02884
7.02884
7.02884
7.02883
7.02882
7.02881
7.02881
7.0288
7.0288
7.0288
7.0288
7.0288
7.0288
7.02881
7.02881
7.02882
7.02882
7.02882
7.02883
7.02883
7.02883
7.02884
7.02884
7.02884
7.02884
7.02885
7.02885
7.02885
7.02886
7.02886
7.02886
7.02886
7.02887
7.02887
7.02887
7.02887
7.02887
7.02887
7.02888
7.02888
7.02888
7.02888
7.02888
7.02888
7.02888
7.02888
7.02887
7.02887
7.02887
7.02887
7.02887
7.02887
7.02887
7.02886
7.02886
7.02887
7.02887
7.02887
7.02888
7.0289
7.0289
7.02889
7.02887
7.02886
7.02885
7.02883
7.02883
7.02882
7.02882
7.02881
7.02881
7.02881
7.02882
7.02883
7.02883
5.77401
5.77397
5.77385
5.77376
5.7737
5.77367
5.77365
5.77363
5.77362
5.77362
5.77361
5.77361
5.7736
5.7736
5.7736
5.7736
5.77359
5.77359
5.77359
5.77358
5.77358
5.77358
5.77358
5.77357
5.77357
5.77357
5.77357
5.77356
5.77356
5.77356
5.77356
5.77356
5.77355
5.77355
5.77355
5.77355
5.77355
5.77355
5.77355
5.77355
5.77355
5.77355
5.77356
5.77357
5.77358
5.7736
5.77361
5.77361
5.7736
5.77359
5.77359
5.77358
5.77357
5.77357
5.77357
5.77356
5.77357
5.77357
5.77357
5.77357
5.77358
5.77358
5.77358
5.77358
5.77359
5.77359
5.77359
5.77359
5.77359
5.7736
5.7736
5.7736
5.7736
5.7736
5.77361
5.77361
5.77361
5.77361
5.77362
5.77362
5.77362
5.77362
5.77362
5.77363
5.77363
5.77363
5.77363
5.77363
5.77363
5.77363
5.77363
5.77363
5.77363
5.77363
5.77363
5.77363
5.77363
5.77363
5.77363
5.77363
5.77363
5.77363
5.77364
5.77365
5.77366
5.77367
5.77366
5.77365
5.77364
5.77363
5.77362
5.77361
5.7736
5.7736
5.7736
5.7736
5.77359
5.7736
5.77361
5.7736
4.84948
4.84946
4.84937
4.84929
4.84924
4.8492
4.84917
4.84915
4.84914
4.84913
4.84912
4.84912
4.84912
4.84911
4.84911
4.8491
4.8491
4.8491
4.84909
4.84909
4.84909
4.84908
4.84908
4.84908
4.84907
4.84907
4.84907
4.84906
4.84906
4.84906
4.84905
4.84905
4.84905
4.84905
4.84904
4.84904
4.84904
4.84904
4.84904
4.84904
4.84904
4.84904
4.84904
4.84905
4.84906
4.84907
4.84908
4.84908
4.84908
4.84907
4.84907
4.84906
4.84905
4.84905
4.84905
4.84904
4.84904
4.84904
4.84905
4.84905
4.84905
4.84905
4.84905
4.84905
4.84906
4.84906
4.84906
4.84906
4.84906
4.84906
4.84906
4.84907
4.84907
4.84907
4.84907
4.84907
4.84907
4.84908
4.84908
4.84908
4.84908
4.84909
4.84909
4.84909
4.84909
4.84909
4.8491
4.8491
4.8491
4.8491
4.8491
4.8491
4.8491
4.8491
4.8491
4.8491
4.8491
4.8491
4.8491
4.8491
4.8491
4.8491
4.84911
4.84912
4.84913
4.84914
4.84914
4.84913
4.84912
4.84912
4.84911
4.8491
4.84909
4.84909
4.84908
4.84908
4.84908
4.84909
4.8491
4.84907
4.143
4.14301
4.14294
4.14287
4.14281
4.14277
4.14275
4.14273
4.14271
4.1427
4.14269
4.14269
4.14268
4.14268
4.14267
4.14267
4.14266
4.14266
4.14266
4.14265
4.14265
4.14265
4.14264
4.14264
4.14263
4.14263
4.14263
4.14262
4.14262
4.14261
4.14261
4.14261
4.1426
4.1426
4.1426
4.14259
4.14259
4.14259
4.14259
4.14258
4.14258
4.14258
4.14259
4.14259
4.1426
4.14261
4.14262
4.14262
4.14262
4.14262
4.14261
4.1426
4.1426
4.14259
4.14259
4.14259
4.14259
4.14259
4.14259
4.14259
4.14259
4.14259
4.14259
4.14259
4.14259
4.14259
4.1426
4.1426
4.1426
4.1426
4.1426
4.1426
4.1426
4.1426
4.1426
4.14261
4.14261
4.14261
4.14261
4.14261
4.14262
4.14262
4.14262
4.14262
4.14262
4.14263
4.14263
4.14263
4.14263
4.14263
4.14263
4.14263
4.14263
4.14263
4.14263
4.14263
4.14263
4.14263
4.14263
4.14263
4.14263
4.14264
4.14264
4.14265
4.14266
4.14267
4.14267
4.14267
4.14266
4.14266
4.14265
4.14265
4.14264
4.14264
4.14263
4.14263
4.14263
4.14263
4.14264
4.14261
3.58913
3.58915
3.5891
3.58904
3.58899
3.58895
3.58893
3.58891
3.58889
3.58888
3.58887
3.58886
3.58886
3.58885
3.58885
3.58884
3.58884
3.58883
3.58883
3.58883
3.58882
3.58882
3.58881
3.58881
3.58881
3.5888
3.5888
3.58879
3.58879
3.58879
3.58878
3.58878
3.58877
3.58877
3.58877
3.58876
3.58876
3.58876
3.58875
3.58875
3.58875
3.58875
3.58875
3.58875
3.58876
3.58877
3.58877
3.58878
3.58878
3.58877
3.58877
3.58876
3.58876
3.58876
3.58875
3.58875
3.58875
3.58875
3.58875
3.58875
3.58875
3.58875
3.58875
3.58875
3.58875
3.58875
3.58875
3.58875
3.58875
3.58875
3.58875
3.58876
3.58876
3.58876
3.58876
3.58876
3.58876
3.58876
3.58876
3.58877
3.58877
3.58877
3.58877
3.58877
3.58878
3.58878
3.58878
3.58878
3.58878
3.58878
3.58878
3.58878
3.58878
3.58878
3.58878
3.58878
3.58878
3.58878
3.58878
3.58878
3.58878
3.58879
3.58879
3.5888
3.58881
3.58882
3.58882
3.58882
3.58882
3.58881
3.58881
3.5888
3.5888
3.58879
3.58879
3.58879
3.58879
3.58879
3.5888
3.58876
3.14609
3.14612
3.14608
3.14603
3.14598
3.14595
3.14592
3.1459
3.14589
3.14588
3.14587
3.14586
3.14585
3.14585
3.14584
3.14584
3.14583
3.14583
3.14582
3.14582
3.14582
3.14581
3.14581
3.1458
3.1458
3.1458
3.14579
3.14579
3.14578
3.14578
3.14578
3.14577
3.14577
3.14576
3.14576
3.14576
3.14575
3.14575
3.14574
3.14574
3.14574
3.14574
3.14574
3.14574
3.14574
3.14575
3.14576
3.14576
3.14576
3.14576
3.14575
3.14575
3.14575
3.14574
3.14574
3.14574
3.14573
3.14573
3.14573
3.14573
3.14573
3.14574
3.14574
3.14574
3.14574
3.14574
3.14574
3.14574
3.14574
3.14574
3.14574
3.14574
3.14574
3.14574
3.14574
3.14574
3.14574
3.14574
3.14575
3.14575
3.14575
3.14575
3.14575
3.14575
3.14575
3.14576
3.14576
3.14576
3.14576
3.14576
3.14576
3.14576
3.14576
3.14576
3.14576
3.14576
3.14576
3.14576
3.14576
3.14576
3.14576
3.14576
3.14577
3.14577
3.14578
3.14579
3.14579
3.14579
3.14579
3.14579
3.14579
3.14578
3.14578
3.14578
3.14577
3.14577
3.14577
3.14577
3.14578
3.14574
2.78562
2.78566
2.78562
2.78558
2.78554
2.78551
2.78549
2.78547
2.78546
2.78544
2.78543
2.78543
2.78542
2.78541
2.78541
2.7854
2.7854
2.78539
2.78539
2.78539
2.78538
2.78538
2.78537
2.78537
2.78537
2.78536
2.78536
2.78535
2.78535
2.78535
2.78534
2.78534
2.78533
2.78533
2.78533
2.78532
2.78532
2.78531
2.78531
2.78531
2.7853
2.7853
2.7853
2.7853
2.7853
2.78531
2.78531
2.78532
2.78532
2.78532
2.78531
2.78531
2.78531
2.7853
2.7853
2.7853
2.7853
2.7853
2.7853
2.7853
2.7853
2.7853
2.7853
2.7853
2.7853
2.7853
2.7853
2.7853
2.7853
2.7853
2.7853
2.7853
2.7853
2.7853
2.7853
2.7853
2.7853
2.7853
2.7853
2.78531
2.78531
2.78531
2.78531
2.78531
2.78531
2.78531
2.78532
2.78532
2.78532
2.78532
2.78532
2.78532
2.78532
2.78532
2.78532
2.78532
2.78532
2.78532
2.78532
2.78532
2.78532
2.78532
2.78532
2.78533
2.78533
2.78534
2.78534
2.78534
2.78534
2.78534
2.78534
2.78534
2.78533
2.78533
2.78533
2.78533
2.78533
2.78533
2.78534
2.7853
2.48795
2.48798
2.48796
2.48792
2.48789
2.48786
2.48784
2.48782
2.48781
2.48779
2.48778
2.48778
2.48777
2.48776
2.48776
2.48775
2.48775
2.48774
2.48774
2.48774
2.48773
2.48773
2.48773
2.48772
2.48772
2.48771
2.48771
2.48771
2.4877
2.4877
2.4877
2.48769
2.48769
2.48768
2.48768
2.48768
2.48767
2.48767
2.48766
2.48766
2.48766
2.48765
2.48765
2.48765
2.48765
2.48766
2.48766
2.48766
2.48766
2.48766
2.48766
2.48766
2.48765
2.48765
2.48765
2.48765
2.48765
2.48765
2.48765
2.48765
2.48765
2.48765
2.48765
2.48765
2.48765
2.48765
2.48765
2.48765
2.48765
2.48765
2.48765
2.48765
2.48765
2.48765
2.48765
2.48765
2.48765
2.48765
2.48765
2.48766
2.48766
2.48766
2.48766
2.48766
2.48766
2.48766
2.48766
2.48767
2.48767
2.48767
2.48767
2.48767
2.48767
2.48767
2.48767
2.48767
2.48766
2.48766
2.48766
2.48766
2.48766
2.48766
2.48766
2.48767
2.48767
2.48768
2.48768
2.48768
2.48768
2.48768
2.48768
2.48768
2.48768
2.48768
2.48767
2.48767
2.48767
2.48767
2.48768
2.48764
2.23884
2.23888
2.23886
2.23883
2.2388
2.23878
2.23876
2.23874
2.23873
2.23872
2.23871
2.2387
2.23869
2.23868
2.23868
2.23867
2.23867
2.23867
2.23866
2.23866
2.23866
2.23865
2.23865
2.23864
2.23864
2.23864
2.23863
2.23863
2.23863
2.23862
2.23862
2.23862
2.23861
2.23861
2.2386
2.2386
2.2386
2.23859
2.23859
2.23858
2.23858
2.23858
2.23858
2.23857
2.23858
2.23858
2.23858
2.23858
2.23858
2.23858
2.23858
2.23858
2.23857
2.23857
2.23857
2.23857
2.23857
2.23857
2.23857
2.23857
2.23857
2.23857
2.23857
2.23857
2.23857
2.23857
2.23857
2.23857
2.23857
2.23857
2.23857
2.23857
2.23857
2.23858
2.23858
2.23858
2.23858
2.23858
2.23858
2.23858
2.23858
2.23858
2.23858
2.23858
2.23858
2.23859
2.23859
2.23859
2.23859
2.23859
2.23859
2.23859
2.23859
2.23859
2.23859
2.23859
2.23858
2.23858
2.23858
2.23858
2.23858
2.23858
2.23858
2.23858
2.23859
2.23859
2.2386
2.2386
2.2386
2.2386
2.23859
2.23859
2.23859
2.23859
2.23859
2.23859
2.23859
2.23859
2.2386
2.23856
2.0279
2.02793
2.02792
2.02789
2.02787
2.02784
2.02783
2.02781
2.0278
2.02779
2.02778
2.02777
2.02776
2.02776
2.02775
2.02775
2.02774
2.02774
2.02774
2.02773
2.02773
2.02772
2.02772
2.02772
2.02771
2.02771
2.02771
2.0277
2.0277
2.0277
2.02769
2.02769
2.02769
2.02768
2.02768
2.02768
2.02767
2.02767
2.02766
2.02766
2.02766
2.02765
2.02765
2.02765
2.02765
2.02765
2.02765
2.02765
2.02765
2.02765
2.02765
2.02765
2.02765
2.02765
2.02764
2.02764
2.02764
2.02764
2.02765
2.02765
2.02765
2.02765
2.02765
2.02765
2.02765
2.02765
2.02765
2.02765
2.02765
2.02765
2.02765
2.02765
2.02765
2.02765
2.02765
2.02765
2.02765
2.02766
2.02766
2.02766
2.02766
2.02766
2.02766
2.02766
2.02766
2.02766
2.02766
2.02766
2.02766
2.02767
2.02767
2.02767
2.02766
2.02766
2.02766
2.02766
2.02766
2.02766
2.02765
2.02765
2.02765
2.02765
2.02765
2.02765
2.02766
2.02766
2.02766
2.02766
2.02766
2.02766
2.02766
2.02766
2.02766
2.02766
2.02766
2.02766
2.02766
2.02766
2.02767
2.02763
1.84733
1.84737
1.84735
1.84733
1.84731
1.84729
1.84727
1.84726
1.84725
1.84724
1.84723
1.84722
1.84722
1.84721
1.8472
1.8472
1.8472
1.84719
1.84719
1.84719
1.84718
1.84718
1.84718
1.84717
1.84717
1.84717
1.84716
1.84716
1.84716
1.84715
1.84715
1.84715
1.84714
1.84714
1.84714
1.84713
1.84713
1.84712
1.84712
1.84712
1.84711
1.84711
1.84711
1.84711
1.84711
1.84711
1.84711
1.84711
1.84711
1.84711
1.8471
1.8471
1.8471
1.8471
1.8471
1.8471
1.8471
1.8471
1.8471
1.8471
1.84711
1.84711
1.84711
1.84711
1.84711
1.84711
1.84711
1.84711
1.84711
1.84711
1.84711
1.84711
1.84711
1.84711
1.84711
1.84712
1.84712
1.84712
1.84712
1.84712
1.84712
1.84712
1.84712
1.84712
1.84712
1.84712
1.84712
1.84712
1.84712
1.84712
1.84712
1.84712
1.84712
1.84712
1.84712
1.84712
1.84712
1.84711
1.84711
1.84711
1.84711
1.84711
1.84711
1.84711
1.84711
1.84711
1.84712
1.84712
1.84712
1.84711
1.84711
1.84711
1.84711
1.84711
1.84711
1.84711
1.84711
1.84711
1.84712
1.84708
1.69127
1.6913
1.69129
1.69127
1.69125
1.69123
1.69122
1.69121
1.6912
1.69119
1.69118
1.69117
1.69116
1.69116
1.69115
1.69115
1.69115
1.69114
1.69114
1.69114
1.69113
1.69113
1.69113
1.69112
1.69112
1.69112
1.69112
1.69111
1.69111
1.69111
1.6911
1.6911
1.6911
1.69109
1.69109
1.69109
1.69108
1.69108
1.69108
1.69107
1.69107
1.69107
1.69106
1.69106
1.69106
1.69106
1.69106
1.69106
1.69106
1.69106
1.69106
1.69106
1.69106
1.69106
1.69106
1.69106
1.69106
1.69106
1.69106
1.69106
1.69106
1.69106
1.69107
1.69107
1.69107
1.69107
1.69107
1.69107
1.69107
1.69107
1.69107
1.69107
1.69107
1.69107
1.69107
1.69108
1.69108
1.69108
1.69108
1.69108
1.69108
1.69108
1.69108
1.69108
1.69108
1.69108
1.69108
1.69108
1.69108
1.69108
1.69108
1.69108
1.69108
1.69108
1.69108
1.69108
1.69107
1.69107
1.69107
1.69106
1.69106
1.69106
1.69106
1.69106
1.69106
1.69107
1.69107
1.69107
1.69107
1.69107
1.69106
1.69106
1.69106
1.69106
1.69106
1.69106
1.69106
1.69106
1.69107
1.69103
1.55518
1.55522
1.55521
1.55519
1.55517
1.55516
1.55514
1.55513
1.55512
1.55511
1.5551
1.5551
1.55509
1.55509
1.55508
1.55508
1.55507
1.55507
1.55507
1.55506
1.55506
1.55506
1.55506
1.55505
1.55505
1.55505
1.55505
1.55504
1.55504
1.55504
1.55503
1.55503
1.55503
1.55502
1.55502
1.55502
1.55501
1.55501
1.55501
1.555
1.555
1.555
1.555
1.55499
1.55499
1.55499
1.55499
1.55499
1.55499
1.55499
1.55499
1.55499
1.55499
1.55499
1.55499
1.55499
1.55499
1.55499
1.555
1.555
1.555
1.555
1.555
1.555
1.555
1.55501
1.55501
1.55501
1.55501
1.55501
1.55501
1.55501
1.55501
1.55501
1.55501
1.55501
1.55501
1.55502
1.55502
1.55502
1.55502
1.55502
1.55502
1.55502
1.55502
1.55502
1.55502
1.55502
1.55502
1.55502
1.55502
1.55502
1.55502
1.55502
1.55501
1.55501
1.55501
1.55501
1.555
1.555
1.555
1.555
1.55499
1.55499
1.555
1.555
1.555
1.555
1.555
1.555
1.55499
1.55499
1.55499
1.55499
1.55499
1.55499
1.55499
1.55499
1.555
1.55497
1.43556
1.43559
1.43559
1.43557
1.43556
1.43554
1.43553
1.43552
1.43551
1.4355
1.43549
1.43549
1.43548
1.43548
1.43547
1.43547
1.43546
1.43546
1.43546
1.43546
1.43545
1.43545
1.43545
1.43545
1.43544
1.43544
1.43544
1.43544
1.43543
1.43543
1.43543
1.43542
1.43542
1.43542
1.43542
1.43541
1.43541
1.43541
1.4354
1.4354
1.4354
1.43539
1.43539
1.43539
1.43539
1.43539
1.43539
1.43539
1.43539
1.43538
1.43538
1.43538
1.43538
1.43538
1.43539
1.43539
1.43539
1.43539
1.43539
1.4354
1.4354
1.4354
1.4354
1.4354
1.43541
1.43541
1.43541
1.43541
1.43541
1.43541
1.43541
1.43541
1.43541
1.43541
1.43542
1.43542
1.43542
1.43542
1.43542
1.43542
1.43542
1.43542
1.43542
1.43542
1.43542
1.43542
1.43542
1.43542
1.43542
1.43542
1.43542
1.43542
1.43542
1.43542
1.43541
1.43541
1.43541
1.4354
1.4354
1.4354
1.43539
1.43539
1.43539
1.43539
1.43539
1.43539
1.43539
1.43539
1.43539
1.43539
1.43539
1.43539
1.43539
1.43539
1.43539
1.43539
1.43539
1.43539
1.43539
1.43536
1.32964
1.32967
1.32966
1.32965
1.32963
1.32962
1.32961
1.3296
1.32959
1.32958
1.32958
1.32957
1.32957
1.32956
1.32956
1.32955
1.32955
1.32955
1.32954
1.32954
1.32954
1.32954
1.32953
1.32953
1.32953
1.32953
1.32952
1.32952
1.32952
1.32952
1.32952
1.32951
1.32951
1.32951
1.3295
1.3295
1.3295
1.3295
1.32949
1.32949
1.32949
1.32948
1.32948
1.32948
1.32948
1.32948
1.32948
1.32948
1.32948
1.32947
1.32947
1.32947
1.32947
1.32948
1.32948
1.32948
1.32948
1.32949
1.32949
1.32949
1.32949
1.3295
1.3295
1.3295
1.3295
1.3295
1.3295
1.32951
1.32951
1.32951
1.32951
1.32951
1.32951
1.32951
1.32951
1.32951
1.32952
1.32952
1.32952
1.32952
1.32952
1.32952
1.32952
1.32952
1.32952
1.32952
1.32952
1.32952
1.32952
1.32952
1.32952
1.32952
1.32952
1.32951
1.32951
1.32951
1.3295
1.3295
1.3295
1.32949
1.32949
1.32949
1.32948
1.32948
1.32948
1.32948
1.32948
1.32948
1.32948
1.32948
1.32948
1.32948
1.32948
1.32948
1.32948
1.32948
1.32948
1.32948
1.32948
1.32945
1.23521
1.23523
1.23523
1.23522
1.23521
1.23519
1.23518
1.23517
1.23517
1.23516
1.23515
1.23515
1.23514
1.23514
1.23513
1.23513
1.23513
1.23513
1.23512
1.23512
1.23512
1.23512
1.23511
1.23511
1.23511
1.23511
1.23511
1.2351
1.2351
1.2351
1.2351
1.23509
1.23509
1.23509
1.23509
1.23508
1.23508
1.23508
1.23508
1.23507
1.23507
1.23507
1.23507
1.23506
1.23506
1.23506
1.23506
1.23506
1.23506
1.23506
1.23506
1.23506
1.23506
1.23506
1.23507
1.23507
1.23507
1.23508
1.23508
1.23508
1.23508
1.23509
1.23509
1.23509
1.23509
1.23509
1.2351
1.2351
1.2351
1.2351
1.2351
1.2351
1.2351
1.2351
1.23511
1.23511
1.23511
1.23511
1.23511
1.23511
1.23511
1.23511
1.23511
1.23511
1.23511
1.23511
1.23512
1.23512
1.23512
1.23512
1.23511
1.23511
1.23511
1.2351
1.2351
1.2351
1.23509
1.23509
1.23508
1.23508
1.23508
1.23507
1.23507
1.23507
1.23507
1.23507
1.23507
1.23507
1.23507
1.23507
1.23506
1.23506
1.23506
1.23506
1.23506
1.23506
1.23506
1.23506
1.23507
1.23504
1.1505
1.15052
1.15052
1.15051
1.1505
1.15049
1.15048
1.15047
1.15047
1.15046
1.15045
1.15045
1.15044
1.15044
1.15044
1.15043
1.15043
1.15043
1.15042
1.15042
1.15042
1.15042
1.15042
1.15041
1.15041
1.15041
1.15041
1.15041
1.1504
1.1504
1.1504
1.1504
1.1504
1.15039
1.15039
1.15039
1.15039
1.15038
1.15038
1.15038
1.15038
1.15037
1.15037
1.15037
1.15037
1.15037
1.15037
1.15037
1.15037
1.15037
1.15037
1.15037
1.15037
1.15037
1.15038
1.15038
1.15039
1.15039
1.15039
1.15039
1.1504
1.1504
1.1504
1.1504
1.15041
1.15041
1.15041
1.15041
1.15041
1.15041
1.15042
1.15042
1.15042
1.15042
1.15042
1.15042
1.15042
1.15042
1.15043
1.15043
1.15043
1.15043
1.15043
1.15043
1.15043
1.15043
1.15043
1.15043
1.15043
1.15043
1.15043
1.15043
1.15042
1.15042
1.15041
1.15041
1.1504
1.1504
1.15039
1.15039
1.15039
1.15038
1.15038
1.15038
1.15038
1.15038
1.15038
1.15038
1.15038
1.15037
1.15037
1.15037
1.15037
1.15037
1.15037
1.15037
1.15037
1.15037
1.15037
1.15035
1.07408
1.0741
1.0741
1.07409
1.07408
1.07407
1.07406
1.07406
1.07405
1.07404
1.07404
1.07403
1.07403
1.07403
1.07402
1.07402
1.07402
1.07401
1.07401
1.07401
1.07401
1.07401
1.074
1.074
1.074
1.074
1.074
1.074
1.07399
1.07399
1.07399
1.07399
1.07399
1.07399
1.07398
1.07398
1.07398
1.07398
1.07397
1.07397
1.07397
1.07397
1.07397
1.07396
1.07396
1.07396
1.07396
1.07396
1.07396
1.07396
1.07396
1.07396
1.07397
1.07397
1.07398
1.07398
1.07399
1.07399
1.07399
1.074
1.074
1.074
1.074
1.074
1.07401
1.07401
1.07401
1.07401
1.07401
1.07402
1.07402
1.07402
1.07402
1.07402
1.07402
1.07402
1.07403
1.07403
1.07403
1.07403
1.07403
1.07403
1.07403
1.07403
1.07403
1.07403
1.07404
1.07404
1.07404
1.07403
1.07403
1.07403
1.07402
1.07402
1.07401
1.07401
1.074
1.074
1.07399
1.07399
1.07398
1.07398
1.07398
1.07398
1.07398
1.07398
1.07397
1.07397
1.07397
1.07397
1.07397
1.07397
1.07397
1.07397
1.07397
1.07397
1.07397
1.07396
1.07397
1.07395
1.00477
1.0048
1.00479
1.00479
1.00478
1.00477
1.00476
1.00475
1.00475
1.00474
1.00474
1.00473
1.00473
1.00473
1.00472
1.00472
1.00472
1.00472
1.00471
1.00471
1.00471
1.00471
1.00471
1.0047
1.0047
1.0047
1.0047
1.0047
1.0047
1.0047
1.00469
1.00469
1.00469
1.00469
1.00469
1.00469
1.00468
1.00468
1.00468
1.00468
1.00467
1.00467
1.00467
1.00467
1.00467
1.00467
1.00467
1.00467
1.00467
1.00467
1.00467
1.00467
1.00468
1.00468
1.00469
1.00469
1.0047
1.0047
1.0047
1.00471
1.00471
1.00471
1.00472
1.00472
1.00472
1.00472
1.00472
1.00473
1.00473
1.00473
1.00473
1.00473
1.00473
1.00474
1.00474
1.00474
1.00474
1.00474
1.00474
1.00474
1.00475
1.00475
1.00475
1.00475
1.00475
1.00475
1.00475
1.00475
1.00475
1.00475
1.00475
1.00474
1.00473
1.00473
1.00472
1.00472
1.00471
1.00471
1.0047
1.0047
1.00469
1.00469
1.00469
1.00469
1.00469
1.00469
1.00468
1.00468
1.00468
1.00468
1.00468
1.00468
1.00468
1.00468
1.00467
1.00467
1.00467
1.00467
1.00468
1.00466
0.941613
0.941631
0.941628
0.941621
0.941614
0.941607
0.9416
0.941594
0.941588
0.941583
0.941579
0.941575
0.941571
0.941568
0.941565
0.941563
0.94156
0.941558
0.941556
0.941554
0.941553
0.941551
0.94155
0.941549
0.941547
0.941546
0.941545
0.941544
0.941542
0.941541
0.94154
0.941538
0.941537
0.941535
0.941534
0.941532
0.94153
0.941528
0.941527
0.941525
0.941523
0.941521
0.941519
0.941518
0.941517
0.941517
0.941516
0.941516
0.941516
0.941517
0.941522
0.941528
0.941534
0.94154
0.941545
0.94155
0.941554
0.941558
0.941561
0.941564
0.941567
0.94157
0.941572
0.941575
0.941577
0.941579
0.941581
0.941583
0.941585
0.941587
0.941589
0.94159
0.941592
0.941594
0.941595
0.941597
0.941598
0.9416
0.941601
0.941603
0.941604
0.941605
0.941606
0.941607
0.941608
0.941609
0.94161
0.94161
0.941609
0.941606
0.941601
0.941595
0.941589
0.941583
0.941576
0.94157
0.941565
0.94156
0.941555
0.941551
0.941547
0.941544
0.941541
0.94154
0.941539
0.941538
0.941536
0.941535
0.941534
0.941532
0.941531
0.94153
0.941528
0.941527
0.941526
0.941525
0.941524
0.941523
0.941527
0.941509
0.883789
0.883804
0.883802
0.883796
0.883789
0.883783
0.883777
0.883772
0.883767
0.883762
0.883758
0.883754
0.883751
0.883748
0.883746
0.883744
0.883742
0.88374
0.883738
0.883736
0.883735
0.883734
0.883732
0.883731
0.88373
0.883729
0.883728
0.883727
0.883726
0.883725
0.883724
0.883722
0.883721
0.88372
0.883719
0.883717
0.883716
0.883714
0.883712
0.883711
0.883709
0.883707
0.883706
0.883705
0.883704
0.883704
0.883704
0.883704
0.883704
0.883707
0.883714
0.883721
0.883728
0.883735
0.88374
0.883745
0.883749
0.883753
0.883756
0.883759
0.883762
0.883765
0.883767
0.88377
0.883772
0.883774
0.883776
0.883778
0.88378
0.883782
0.883784
0.883786
0.883788
0.883789
0.883791
0.883793
0.883794
0.883796
0.883797
0.883799
0.8838
0.883802
0.883803
0.883804
0.883805
0.883806
0.883807
0.883807
0.883805
0.883801
0.883794
0.883788
0.88378
0.883773
0.883767
0.883761
0.883755
0.88375
0.883746
0.883741
0.883738
0.883734
0.883732
0.88373
0.88373
0.883729
0.883727
0.883726
0.883725
0.883723
0.883722
0.88372
0.883719
0.883717
0.883716
0.883715
0.883714
0.883713
0.883716
0.8837
0.830631
0.830644
0.830642
0.830636
0.83063
0.830625
0.83062
0.830615
0.830611
0.830607
0.830603
0.8306
0.830597
0.830594
0.830592
0.83059
0.830588
0.830587
0.830585
0.830584
0.830582
0.830581
0.83058
0.830579
0.830579
0.830578
0.830577
0.830576
0.830575
0.830574
0.830573
0.830572
0.830571
0.83057
0.830569
0.830568
0.830567
0.830565
0.830564
0.830563
0.830561
0.83056
0.830558
0.830557
0.830557
0.830557
0.830557
0.830557
0.830558
0.830563
0.830572
0.830581
0.830589
0.830596
0.830601
0.830606
0.83061
0.830613
0.830617
0.83062
0.830623
0.830625
0.830628
0.83063
0.830632
0.830634
0.830637
0.830639
0.830641
0.830643
0.830645
0.830647
0.830649
0.83065
0.830652
0.830654
0.830656
0.830657
0.830659
0.830661
0.830662
0.830663
0.830665
0.830666
0.830667
0.830668
0.83067
0.830669
0.830665
0.830659
0.830652
0.830644
0.830636
0.830629
0.830622
0.830616
0.830611
0.830606
0.830601
0.830597
0.830594
0.830591
0.830588
0.830587
0.830586
0.830585
0.830584
0.830583
0.830581
0.830579
0.830578
0.830576
0.830574
0.830573
0.830572
0.83057
0.830569
0.830568
0.83057
0.830557
0.781573
0.781583
0.781581
0.781576
0.781571
0.781566
0.781562
0.781558
0.781554
0.781551
0.781547
0.781545
0.781542
0.78154
0.781538
0.781536
0.781534
0.781533
0.781532
0.781531
0.78153
0.781529
0.781528
0.781527
0.781527
0.781526
0.781525
0.781525
0.781524
0.781523
0.781523
0.781522
0.781521
0.78152
0.781519
0.781518
0.781517
0.781516
0.781515
0.781514
0.781513
0.781512
0.78151
0.78151
0.78151
0.78151
0.781509
0.781511
0.781511
0.78152
0.781532
0.781542
0.78155
0.781556
0.781561
0.781566
0.78157
0.781573
0.781577
0.78158
0.781582
0.781585
0.781587
0.78159
0.781592
0.781594
0.781596
0.781599
0.781601
0.781603
0.781605
0.781607
0.781609
0.781611
0.781613
0.781615
0.781616
0.781618
0.78162
0.781622
0.781623
0.781625
0.781626
0.781627
0.781629
0.78163
0.781632
0.781629
0.781624
0.781616
0.781607
0.781598
0.78159
0.781583
0.781576
0.78157
0.781565
0.781561
0.781556
0.781553
0.781549
0.781546
0.781544
0.781543
0.781542
0.781541
0.78154
0.781538
0.781537
0.781535
0.781533
0.781531
0.781529
0.781528
0.781526
0.781525
0.781524
0.781523
0.781524
0.781514
0.736136
0.736143
0.736141
0.736137
0.736133
0.736129
0.736125
0.736121
0.736118
0.736115
0.736113
0.73611
0.736108
0.736106
0.736105
0.736103
0.736102
0.736101
0.7361
0.736099
0.736098
0.736097
0.736097
0.736096
0.736096
0.736095
0.736095
0.736094
0.736094
0.736093
0.736093
0.736093
0.736092
0.736091
0.736091
0.73609
0.736089
0.736088
0.736088
0.736087
0.736086
0.736085
0.736084
0.736083
0.736083
0.736084
0.736083
0.736085
0.736086
0.7361
0.736114
0.736124
0.736132
0.736137