/*--------------------------------*- C++ -*----------------------------------*\
  =========                 |
  \\      /  F ield         | OpenFOAM: The Open Source CFD Toolbox
   \\    /   O peration     | Website:  https://openfoam.org
    \\  /    A nd           | Version:  7
     \\/     M anipulation  |
\*---------------------------------------------------------------------------*/
FoamFile
{
    version     2.0;
    format      ascii;
    class       surfaceScalarField;
    location    "2000";
    object      phi;
}
// * * * * * * * * * * * * * * * * * * * * * * * * * * * * * * * * * * * * * //

dimensions      [0 3 -1 0 0 0 0];

internalField   nonuniform List<scalar> 
47680
(
2.00923e-06
8.48983e-11
2.00928e-06
-4.92839e-11
2.00931e-06
-3.02322e-11
2.00933e-06
-1.54531e-11
2.00934e-06
-1.10254e-11
2.00934e-06
-5.0499e-12
2.00935e-06
-2.37188e-12
2.00935e-06
-6.51363e-13
2.00935e-06
3.30167e-13
2.00935e-06
7.42891e-13
2.00935e-06
8.21073e-13
2.00934e-06
6.7993e-13
2.00934e-06
4.02968e-13
2.00934e-06
4.13332e-14
2.00934e-06
-3.63782e-13
2.00935e-06
-7.78758e-13
2.00935e-06
-1.1816e-12
2.00935e-06
-1.5617e-12
2.00935e-06
-1.91734e-12
2.00935e-06
-2.25092e-12
2.00935e-06
-2.56709e-12
2.00936e-06
-2.86909e-12
2.00936e-06
-3.15887e-12
2.00936e-06
-3.43771e-12
2.00937e-06
-3.70614e-12
2.00937e-06
-3.96475e-12
2.00938e-06
-4.21249e-12
2.00938e-06
-4.44991e-12
2.00939e-06
-4.67288e-12
2.00939e-06
-4.88707e-12
2.0094e-06
-5.08401e-12
2.0094e-06
-5.2851e-12
2.00941e-06
-5.45834e-12
2.00941e-06
-5.66309e-12
2.00942e-06
-5.77991e-12
2.00942e-06
-5.99033e-12
2.00943e-06
-5.89349e-12
2.00944e-06
-6.0975e-12
2.00944e-06
-5.29522e-12
2.00945e-06
-5.54504e-12
2.00945e-06
-2.65886e-12
2.00945e-06
-3.27408e-12
2.00945e-06
4.66135e-12
2.00944e-06
3.69067e-12
2.00943e-06
1.58556e-11
2.00941e-06
2.03419e-11
2.00941e-06
8.87898e-13
2.00941e-06
-1.6922e-12
2.00941e-06
-4.83087e-12
2.00942e-06
-5.5161e-12
2.00943e-06
-8.02013e-12
2.00943e-06
-7.73272e-12
2.00944e-06
-6.92929e-12
2.00945e-06
-6.09657e-12
2.00945e-06
-5.24547e-12
2.00946e-06
-4.59198e-12
2.00946e-06
-4.1371e-12
2.00947e-06
-3.87838e-12
2.00947e-06
-3.78827e-12
2.00947e-06
-3.82111e-12
2.00948e-06
-3.9264e-12
2.00948e-06
-4.05584e-12
2.00949e-06
-4.16877e-12
2.00949e-06
-4.23598e-12
2.00949e-06
-4.23948e-12
2.0095e-06
-4.17184e-12
2.0095e-06
-4.0338e-12
2.00951e-06
-3.83121e-12
2.00951e-06
-3.57301e-12
2.00951e-06
-3.27001e-12
2.00952e-06
-2.9331e-12
2.00952e-06
-2.57301e-12
2.00952e-06
-2.19849e-12
2.00952e-06
-1.81867e-12
2.00952e-06
-1.439e-12
2.00952e-06
-1.06708e-12
2.00953e-06
-7.03265e-13
2.00953e-06
-3.58236e-13
2.00953e-06
-2.01629e-14
2.00953e-06
2.84832e-13
2.00952e-06
6.07548e-13
2.00952e-06
8.64178e-13
2.00952e-06
1.2323e-12
2.00952e-06
1.44286e-12
2.00952e-06
1.97758e-12
2.00952e-06
2.17856e-12
2.00951e-06
2.59419e-12
2.00951e-06
1.99416e-12
2.00951e-06
1.17664e-12
2.00951e-06
8.97174e-13
2.00951e-06
2.28278e-13
2.00951e-06
6.7716e-13
2.00951e-06
8.62631e-13
2.00951e-06
9.86949e-13
2.00951e-06
9.76104e-13
2.00951e-06
1.19924e-12
2.0095e-06
1.11241e-12
2.0095e-06
2.01269e-12
2.0095e-06
1.88494e-12
2.0095e-06
4.82946e-12
2.00949e-06
4.34448e-12
2.00948e-06
1.21524e-11
2.00947e-06
1.13862e-11
2.00944e-06
2.27192e-11
2.00942e-06
2.77188e-11
2.00941e-06
5.41499e-12
2.00941e-06
1.9483e-12
2.00941e-06
-9.69389e-13
2.00941e-06
-2.95503e-12
2.00942e-06
-2.86376e-12
2.00942e-06
-2.9503e-12
2.00942e-06
-2.35251e-12
2.00942e-06
-2.51192e-12
2.00943e-06
-1.02014e-12
2.00943e-06
-2.09483e-12
2.00942e-06
2.76823e-12
2.00943e-06
-1.12726e-12
2.00941e-06
1.7058e-11
2.00941e-06
1.5053e-12
8.94255e-11
6.20908e-06
2.9626e-10
6.20915e-06
-1.19614e-10
6.20923e-06
-1.06997e-10
6.20927e-06
-5.63356e-11
6.20929e-06
-3.90833e-11
6.20931e-06
-1.90851e-11
6.20932e-06
-8.89924e-12
6.20932e-06
-2.71874e-12
6.20932e-06
8.2504e-13
6.20932e-06
2.32077e-12
6.20931e-06
2.56343e-12
6.20931e-06
1.98493e-12
6.20931e-06
8.87907e-13
6.20931e-06
-5.28449e-13
6.20931e-06
-2.10785e-12
6.20932e-06
-3.72249e-12
6.20932e-06
-5.28777e-12
6.20933e-06
-6.76588e-12
6.20933e-06
-8.14976e-12
6.20934e-06
-9.4509e-12
6.20935e-06
-1.06853e-11
6.20936e-06
-1.18652e-11
6.20937e-06
-1.29974e-11
6.20938e-06
-1.40852e-11
6.20939e-06
-1.51295e-11
6.2094e-06
-1.61322e-11
6.20941e-06
-1.70905e-11
6.20943e-06
-1.80033e-11
6.20944e-06
-1.88627e-11
6.20946e-06
-1.96789e-11
6.20947e-06
-2.04436e-11
6.20949e-06
-2.11961e-11
6.2095e-06
-2.18907e-11
6.20952e-06
-2.26215e-11
6.20954e-06
-2.31712e-11
6.20956e-06
-2.38195e-11
6.20957e-06
-2.3776e-11
6.20959e-06
-2.40967e-11
6.20961e-06
-2.19948e-11
6.20962e-06
-2.16588e-11
6.20964e-06
-1.31972e-11
6.20964e-06
-1.24166e-11
6.20964e-06
1.24459e-11
6.20963e-06
1.36949e-11
6.20959e-06
5.49695e-11
6.20954e-06
7.12714e-11
6.20953e-06
1.06964e-11
6.20953e-06
-5.18357e-12
6.20954e-06
-1.65134e-11
6.20956e-06
-2.07191e-11
6.20958e-06
-2.92863e-11
6.2096e-06
-2.94524e-11
6.20962e-06
-2.68802e-11
6.20964e-06
-2.39637e-11
6.20965e-06
-2.09443e-11
6.20967e-06
-1.85646e-11
6.20968e-06
-1.6915e-11
6.20969e-06
-1.59882e-11
6.2097e-06
-1.56815e-11
6.20972e-06
-1.58232e-11
6.20973e-06
-1.62201e-11
6.20974e-06
-1.66882e-11
6.20975e-06
-1.70739e-11
6.20977e-06
-1.72675e-11
6.20978e-06
-1.72042e-11
6.20979e-06
-1.68581e-11
6.20981e-06
-1.62349e-11
6.20982e-06
-1.53582e-11
6.20983e-06
-1.42657e-11
6.20984e-06
-1.29994e-11
6.20985e-06
-1.16027e-11
6.20985e-06
-1.0117e-11
6.20986e-06
-8.578e-12
6.20986e-06
-7.02045e-12
6.20987e-06
-5.46805e-12
6.20987e-06
-3.94674e-12
6.20987e-06
-2.466e-12
6.20987e-06
-1.05254e-12
6.20987e-06
3.0922e-13
6.20987e-06
1.5711e-12
6.20987e-06
2.83683e-12
6.20987e-06
3.93641e-12
6.20986e-06
5.29634e-12
6.20986e-06
6.27857e-12
6.20985e-06
8.14842e-12
6.20985e-06
9.14697e-12
6.20984e-06
1.05829e-11
6.20983e-06
8.71468e-12
6.20983e-06
5.90043e-12
6.20982e-06
4.543e-12
6.20982e-06
2.31696e-12
6.20982e-06
3.48321e-12
6.20981e-06
4.26285e-12
6.20981e-06
4.68691e-12
6.20981e-06
4.83568e-12
6.2098e-06
5.44139e-12
6.2098e-06
5.61893e-12
6.20979e-06
8.17787e-12
6.20978e-06
8.98426e-12
6.20977e-06
1.77766e-11
6.20976e-06
1.8928e-11
6.20973e-06
4.35524e-11
6.20969e-06
4.51302e-11
6.20963e-06
8.39693e-11
6.20956e-06
1.01135e-10
6.20953e-06
3.11931e-11
6.20952e-06
1.14366e-11
6.20952e-06
-1.73888e-13
6.20953e-06
-8.21974e-12
6.20953e-06
-9.25333e-12
6.20954e-06
-9.62606e-12
6.20955e-06
-8.40917e-12
6.20955e-06
-8.14046e-12
6.20955e-06
-4.78955e-12
6.20956e-06
-5.52187e-12
6.20955e-06
6.25201e-12
6.20955e-06
1.73382e-12
6.20952e-06
5.14652e-11
6.2095e-06
2.05208e-11
2.97945e-10
1.06936e-05
5.99989e-10
1.06936e-05
-1.61761e-10
1.06937e-05
-2.03891e-10
1.06938e-05
-1.15731e-10
1.06938e-05
-7.89036e-11
1.06938e-05
-4.02127e-11
1.06938e-05
-1.88817e-11
1.06938e-05
-6.19305e-12
1.06938e-05
1.02551e-12
1.06938e-05
4.05356e-12
1.06938e-05
4.44041e-12
1.06938e-05
3.08902e-12
1.06938e-05
6.24761e-13
1.06938e-05
-2.52342e-12
1.06938e-05
-6.01626e-12
1.06939e-05
-9.57895e-12
1.06939e-05
-1.30304e-11
1.06939e-05
-1.62894e-11
1.06939e-05
-1.93425e-11
1.06939e-05
-2.22158e-11
1.06939e-05
-2.49441e-11
1.06939e-05
-2.75537e-11
1.06939e-05
-3.00563e-11
1.0694e-05
-3.24572e-11
1.0694e-05
-3.47588e-11
1.0694e-05
-3.69608e-11
1.0694e-05
-3.90615e-11
1.0694e-05
-4.1055e-11
1.06941e-05
-4.29335e-11
1.06941e-05
-4.47082e-11
1.06941e-05
-4.63822e-11
1.06941e-05
-4.80046e-11
1.06942e-05
-4.95424e-11
1.06942e-05
-5.10826e-11
1.06942e-05
-5.23747e-11
1.06943e-05
-5.36487e-11
1.06943e-05
-5.38816e-11
1.06943e-05
-5.41838e-11
1.06944e-05
-5.06312e-11
1.06944e-05
-4.87214e-11
1.06944e-05
-3.32078e-11
1.06944e-05
-2.83509e-11
1.06944e-05
1.89827e-11
1.06944e-05
2.74125e-11
1.06943e-05
1.09704e-10
1.06943e-05
1.44718e-10
1.06942e-05
3.27191e-11
1.06942e-05
-7.6144e-12
1.06943e-05
-3.27745e-11
1.06943e-05
-4.38364e-11
1.06943e-05
-6.14828e-11
1.06944e-05
-6.35504e-11
1.06944e-05
-5.90336e-11
1.06944e-05
-5.32382e-11
1.06944e-05
-4.71354e-11
1.06945e-05
-4.22331e-11
1.06945e-05
-3.88455e-11
1.06945e-05
-3.69728e-11
1.06945e-05
-3.63974e-11
1.06945e-05
-3.6746e-11
1.06946e-05
-3.76009e-11
1.06946e-05
-3.85637e-11
1.06946e-05
-3.93073e-11
1.06946e-05
-3.95988e-11
1.06947e-05
-3.93044e-11
1.06947e-05
-3.83762e-11
1.06947e-05
-3.68295e-11
1.06947e-05
-3.47218e-11
1.06947e-05
-3.21388e-11
1.06948e-05
-2.91758e-11
1.06948e-05
-2.59287e-11
1.06948e-05
-2.24897e-11
1.06948e-05
-1.89404e-11
1.06948e-05
-1.53536e-11
1.06948e-05
-1.17868e-11
1.06948e-05
-8.29181e-12
1.06948e-05
-4.90066e-12
1.06948e-05
-1.65644e-12
1.06948e-05
1.44651e-12
1.06948e-05
4.35071e-12
1.06948e-05
7.19556e-12
1.06948e-05
9.75868e-12
1.06948e-05
1.27061e-11
1.06948e-05
1.5065e-11
1.06948e-05
1.89481e-11
1.06948e-05
2.13965e-11
1.06947e-05
2.43828e-11
1.06947e-05
2.09839e-11
1.06947e-05
1.53728e-11
1.06947e-05
1.2127e-11
1.06947e-05
7.65286e-12
1.06947e-05
9.4579e-12
1.06947e-05
1.11198e-11
1.06947e-05
1.20321e-11
1.06947e-05
1.25623e-11
1.06947e-05
1.36864e-11
1.06947e-05
1.45807e-11
1.06947e-05
1.92592e-11
1.06946e-05
2.2242e-11
1.06946e-05
3.86013e-11
1.06946e-05
4.4154e-11
1.06945e-05
9.11994e-11
1.06945e-05
9.98661e-11
1.06944e-05
1.77661e-10
1.06943e-05
2.13259e-10
1.06942e-05
8.29247e-11
1.06942e-05
3.35435e-11
1.06942e-05
6.21526e-12
1.06942e-05
-1.21227e-11
1.06942e-05
-1.6529e-11
1.06942e-05
-1.79287e-11
1.06942e-05
-1.6637e-11
1.06942e-05
-1.55818e-11
1.06942e-05
-1.07284e-11
1.06943e-05
-9.46818e-12
1.06943e-05
9.25157e-12
1.06942e-05
9.12641e-12
1.06942e-05
9.56599e-11
1.06942e-05
5.97333e-11
5.78615e-10
1.54586e-05
9.64259e-10
1.54586e-05
-1.51433e-10
1.54587e-05
-2.89458e-10
1.54587e-05
-1.82219e-10
1.54588e-05
-1.24229e-10
1.54588e-05
-6.54721e-11
1.54588e-05
-3.11998e-11
1.54588e-05
-1.08886e-11
1.54588e-05
5.19465e-13
1.54588e-05
5.2302e-12
1.54588e-05
5.60093e-12
1.54588e-05
3.08694e-12
1.54588e-05
-1.29252e-12
1.54588e-05
-6.81768e-12
1.54588e-05
-1.29126e-11
1.54588e-05
-1.91162e-11
1.54588e-05
-2.51217e-11
1.54589e-05
-3.07907e-11
1.54589e-05
-3.61046e-11
1.54589e-05
-4.11098e-11
1.54589e-05
-4.58653e-11
1.54589e-05
-5.04145e-11
1.5459e-05
-5.47752e-11
1.5459e-05
-5.8953e-11
1.5459e-05
-6.29492e-11
1.5459e-05
-6.67633e-11
1.54591e-05
-7.03936e-11
1.54591e-05
-7.3832e-11
1.54591e-05
-7.70724e-11
1.54592e-05
-8.01276e-11
1.54592e-05
-8.30153e-11
1.54593e-05
-8.57938e-11
1.54593e-05
-8.84537e-11
1.54593e-05
-9.10633e-11
1.54594e-05
-9.33514e-11
1.54594e-05
-9.5457e-11
1.54595e-05
-9.61359e-11
1.54595e-05
-9.64253e-11
1.54595e-05
-9.12739e-11
1.54596e-05
-8.71963e-11
1.54596e-05
-6.34968e-11
1.54596e-05
-5.25038e-11
1.54596e-05
2.1124e-11
1.54596e-05
4.14262e-11
1.54596e-05
1.73067e-10
1.54595e-05
2.33168e-10
1.54594e-05
6.66918e-11
1.54594e-05
-6.13408e-12
1.54595e-05
-5.13588e-11
1.54595e-05
-7.26512e-11
1.54595e-05
-1.02227e-10
1.54596e-05
-1.07938e-10
1.54596e-05
-1.02079e-10
1.54596e-05
-9.31677e-11
1.54597e-05
-8.35342e-11
1.54597e-05
-7.56743e-11
1.54598e-05
-7.02657e-11
1.54598e-05
-6.73463e-11
1.54598e-05
-6.65455e-11
1.54598e-05
-6.72292e-11
1.54599e-05
-6.86828e-11
1.54599e-05
-7.02308e-11
1.54599e-05
-7.13242e-11
1.546e-05
-7.15798e-11
1.546e-05
-7.07817e-11
1.546e-05
-6.88609e-11
1.54601e-05
-6.58559e-11
1.54601e-05
-6.18753e-11
1.54601e-05
-5.7072e-11
1.54601e-05
-5.16151e-11
1.54602e-05
-4.56729e-11
1.54602e-05
-3.94065e-11
1.54602e-05
-3.29599e-11
1.54602e-05
-2.64582e-11
1.54602e-05
-2.00048e-11
1.54602e-05
-1.36869e-11
1.54602e-05
-7.56771e-12
1.54602e-05
-1.71308e-12
1.54602e-05
3.86765e-12
1.54602e-05
9.10919e-12
1.54602e-05
1.41849e-11
1.54602e-05
1.88292e-11
1.54602e-05
2.39569e-11
1.54602e-05
2.82779e-11
1.54601e-05
3.47945e-11
1.54601e-05
3.93081e-11
1.54601e-05
4.43573e-11
1.54601e-05
3.94594e-11
1.54601e-05
3.06027e-11
1.54601e-05
2.48168e-11
1.54601e-05
1.75051e-11
1.546e-05
1.97179e-11
1.546e-05
2.23593e-11
1.546e-05
2.39689e-11
1.546e-05
2.50912e-11
1.546e-05
2.69614e-11
1.546e-05
2.89375e-11
1.546e-05
3.62311e-11
1.54599e-05
4.22833e-11
1.54599e-05
6.75753e-11
1.54599e-05
7.96946e-11
1.54598e-05
1.5298e-10
1.54597e-05
1.73225e-10
1.54596e-05
2.97876e-10
1.54595e-05
3.57566e-10
1.54594e-05
1.6206e-10
1.54594e-05
7.30189e-11
1.54593e-05
2.20709e-11
1.54593e-05
-1.09915e-11
1.54593e-05
-2.16922e-11
1.54594e-05
-2.56148e-11
1.54594e-05
-2.512e-11
1.54594e-05
-2.36544e-11
1.54594e-05
-1.75855e-11
1.54594e-05
-1.39202e-11
1.54594e-05
1.22524e-11
1.54594e-05
1.90581e-11
1.54593e-05
1.46478e-10
1.54593e-05
1.15491e-10
8.95418e-10
2.04485e-05
1.35867e-09
2.04484e-05
-8.13233e-11
2.04485e-05
-3.39276e-10
2.04485e-05
-2.41071e-10
2.04486e-05
-1.67931e-10
2.04486e-05
-9.13522e-11
2.04486e-05
-4.44351e-11
2.04486e-05
-1.64871e-11
2.04486e-05
-9.99838e-13
2.04486e-05
5.22958e-12
2.04486e-05
5.30527e-12
2.04486e-05
1.2272e-12
2.04486e-05
-5.56471e-12
2.04486e-05
-1.40237e-11
2.04487e-05
-2.33062e-11
2.04487e-05
-3.27369e-11
2.04487e-05
-4.18636e-11
2.04487e-05
-5.04815e-11
2.04487e-05
-5.85655e-11
2.04487e-05
-6.61869e-11
2.04488e-05
-7.34333e-11
2.04488e-05
-8.0367e-11
2.04488e-05
-8.70114e-11
2.04489e-05
-9.337e-11
2.04489e-05
-9.94408e-11
2.04489e-05
-1.05222e-10
2.0449e-05
-1.10715e-10
2.0449e-05
-1.15912e-10
2.04491e-05
-1.2081e-10
2.04491e-05
-1.25427e-10
2.04492e-05
-1.29794e-10
2.04492e-05
-1.33982e-10
2.04493e-05
-1.38002e-10
2.04493e-05
-1.41914e-10
2.04494e-05
-1.45408e-10
2.04494e-05
-1.48549e-10
2.04495e-05
-1.49816e-10
2.04495e-05
-1.50192e-10
2.04496e-05
-1.43362e-10
2.04496e-05
-1.36828e-10
2.04497e-05
-1.04243e-10
2.04497e-05
-8.56663e-11
2.04497e-05
1.64823e-11
2.04497e-05
5.25829e-11
2.04496e-05
2.38906e-10
2.04495e-05
3.29276e-10
2.04495e-05
1.10326e-10
2.04495e-05
8.71262e-13
2.04495e-05
-6.98057e-11
2.04495e-05
-1.04613e-10
2.04496e-05
-1.48711e-10
2.04496e-05
-1.59967e-10
2.04497e-05
-1.53977e-10
2.04497e-05
-1.4234e-10
2.04498e-05
-1.29267e-10
2.04498e-05
-1.18445e-10
2.04499e-05
-1.11042e-10
2.04499e-05
-1.07171e-10
2.04499e-05
-1.06287e-10
2.045e-05
-1.07445e-10
2.045e-05
-1.09587e-10
2.04501e-05
-1.1172e-10
2.04501e-05
-1.13046e-10
2.04501e-05
-1.13021e-10
2.04502e-05
-1.11347e-10
2.04502e-05
-1.07943e-10
2.04503e-05
-1.02885e-10
2.04503e-05
-9.63499e-11
2.04503e-05
-8.85765e-11
2.04504e-05
-7.98242e-11
2.04504e-05
-7.03516e-11
2.04504e-05
-6.04027e-11
2.04504e-05
-5.01973e-11
2.04504e-05
-3.99244e-11
2.04504e-05
-2.97438e-11
2.04505e-05
-1.97869e-11
2.04505e-05
-1.01532e-11
2.04505e-05
-9.39849e-13
2.04505e-05
7.82782e-12
2.04504e-05
1.60728e-11
2.04504e-05
2.4004e-11
2.04504e-05
3.13152e-11
2.04504e-05
3.91794e-11
2.04504e-05
4.6004e-11
2.04504e-05
5.56953e-11
2.04503e-05
6.28285e-11
2.04503e-05
7.04131e-11
2.04503e-05
6.42578e-11
2.04503e-05
5.20356e-11
2.04503e-05
4.32802e-11
2.04502e-05
3.26896e-11
2.04502e-05
3.50088e-11
2.04502e-05
3.85792e-11
2.04502e-05
4.10635e-11
2.04502e-05
4.29856e-11
2.04502e-05
4.58817e-11
2.04501e-05
4.92545e-11
2.04501e-05
5.96181e-11
2.04501e-05
6.93475e-11
2.045e-05
1.04489e-10
2.045e-05
1.24728e-10
2.04499e-05
2.26428e-10
2.04498e-05
2.6196e-10
2.04497e-05
4.38413e-10
2.04495e-05
5.26644e-10
2.04494e-05
2.66831e-10
2.04494e-05
1.32349e-10
2.04493e-05
5.06723e-11
2.04493e-05
-1.5593e-12
2.04493e-05
-2.18432e-11
2.04493e-05
-3.03885e-11
2.04493e-05
-3.19625e-11
2.04493e-05
-3.10435e-11
2.04494e-05
-2.42182e-11
2.04494e-05
-1.85754e-11
2.04494e-05
1.54568e-11
2.04493e-05
3.00736e-11
2.04493e-05
2.00679e-10
2.04492e-05
1.83117e-10
1.22147e-09
2.55222e-05
1.75786e-09
2.55221e-05
4.30098e-11
2.55221e-05
-3.41129e-10
2.55221e-05
-2.79231e-10
2.55221e-05
-2.03029e-10
2.55222e-05
-1.1442e-10
2.55222e-05
-5.71714e-11
2.55222e-05
-2.25887e-11
2.55222e-05
-3.6176e-12
2.55222e-05
3.76938e-12
2.55222e-05
3.26274e-12
2.55222e-05
-2.67823e-12
2.55222e-05
-1.22201e-11
2.55222e-05
-2.39822e-11
2.55222e-05
-3.68442e-11
2.55222e-05
-4.99049e-11
2.55223e-05
-6.25565e-11
2.55223e-05
-7.45184e-11
2.55223e-05
-8.57564e-11
2.55223e-05
-9.63679e-11
2.55224e-05
-1.0647e-10
2.55224e-05
-1.16142e-10
2.55225e-05
-1.25413e-10
2.55225e-05
-1.34282e-10
2.55225e-05
-1.42739e-10
2.55226e-05
-1.50783e-10
2.55226e-05
-1.58414e-10
2.55227e-05
-1.65633e-10
2.55227e-05
-1.7244e-10
2.55228e-05
-1.78861e-10
2.55228e-05
-1.8494e-10
2.55229e-05
-1.90765e-10
2.5523e-05
-1.96358e-10
2.5523e-05
-2.01783e-10
2.55231e-05
-2.06676e-10
2.55231e-05
-2.11055e-10
2.55232e-05
-2.1307e-10
2.55233e-05
-2.13697e-10
2.55233e-05
-2.05248e-10
2.55234e-05
-1.96227e-10
2.55234e-05
-1.54566e-10
2.55235e-05
-1.27621e-10
2.55235e-05
3.80073e-12
2.55235e-05
5.84126e-11
2.55234e-05
3.02121e-10
2.55233e-05
4.26653e-10
2.55233e-05
1.60372e-10
2.55233e-05
1.38479e-11
2.55233e-05
-8.56538e-11
2.55233e-05
-1.3675e-10
2.55234e-05
-1.97572e-10
2.55234e-05
-2.16326e-10
2.55235e-05
-2.11849e-10
2.55235e-05
-1.98496e-10
2.55236e-05
-1.8264e-10
2.55236e-05
-1.69302e-10
2.55237e-05
-1.60243e-10
2.55237e-05
-1.55684e-10
2.55238e-05
-1.54903e-10
2.55238e-05
-1.56634e-10
2.55239e-05
-1.59458e-10
2.55239e-05
-1.62059e-10
2.5524e-05
-1.63395e-10
2.5524e-05
-1.62762e-10
2.55241e-05
-1.59797e-10
2.55241e-05
-1.54417e-10
2.55242e-05
-1.46748e-10
2.55242e-05
-1.3705e-10
2.55243e-05
-1.25657e-10
2.55243e-05
-1.12931e-10
2.55243e-05
-9.92293e-11
2.55243e-05
-8.48876e-11
2.55244e-05
-7.02102e-11
2.55244e-05
-5.54577e-11
2.55244e-05
-4.08514e-11
2.55244e-05
-2.65746e-11
2.55244e-05
-1.27677e-11
2.55244e-05
4.36911e-13
2.55244e-05
1.29952e-11
2.55244e-05
2.4812e-11
2.55244e-05
3.61338e-11
2.55244e-05
4.66135e-11
2.55243e-05
5.76829e-11
2.55243e-05
6.74666e-11
2.55243e-05
8.07629e-11
2.55243e-05
9.09763e-11
2.55242e-05
1.01509e-10
2.55242e-05
9.4479e-11
2.55242e-05
7.90498e-11
2.55241e-05
6.71552e-11
2.55241e-05
5.30317e-11
2.55241e-05
5.516e-11
2.55241e-05
5.9526e-11
2.55241e-05
6.30015e-11
2.5524e-05
6.59174e-11
2.5524e-05
7.0114e-11
2.5524e-05
7.51465e-11
2.5524e-05
8.88995e-11
2.55239e-05
1.02645e-10
2.55239e-05
1.48019e-10
2.55238e-05
1.7725e-10
2.55237e-05
3.08052e-10
2.55236e-05
3.61362e-10
2.55235e-05
5.92025e-10
2.55233e-05
7.12076e-10
2.55232e-05
3.9252e-10
2.55231e-05
2.10994e-10
2.55231e-05
9.37095e-11
2.5523e-05
1.84275e-11
2.5523e-05
-1.47081e-11
2.5523e-05
-3.02988e-11
2.5523e-05
-3.55793e-11
2.5523e-05
-3.65472e-11
2.5523e-05
-2.97454e-11
2.55231e-05
-2.30113e-11
2.55231e-05
1.87653e-11
2.5523e-05
4.10576e-11
2.5523e-05
2.55065e-10
2.55229e-05
2.56568e-10
1.53688e-09
3.04872e-05
2.14174e-09
3.0487e-05
2.09155e-10
3.0487e-05
-2.94546e-10
3.0487e-05
-2.88798e-10
3.0487e-05
-2.23795e-10
3.0487e-05
-1.31454e-10
3.0487e-05
-6.78669e-11
3.0487e-05
-2.84948e-11
3.0487e-05
-6.96251e-12
3.0487e-05
1.13597e-12
3.0487e-05
-1.61594e-13
3.0487e-05
-8.08392e-12
3.04871e-05
-2.04799e-11
3.04871e-05
-3.56642e-11
3.04871e-05
-5.22497e-11
3.04871e-05
-6.91138e-11
3.04871e-05
-8.54906e-11
3.04872e-05
-1.01017e-10
3.04872e-05
-1.15644e-10
3.04872e-05
-1.29489e-10
3.04873e-05
-1.42695e-10
3.04873e-05
-1.55359e-10
3.04873e-05
-1.67509e-10
3.04874e-05
-1.79137e-10
3.04874e-05
-1.90227e-10
3.04875e-05
-2.00773e-10
3.04875e-05
-2.10777e-10
3.04876e-05
-2.20242e-10
3.04876e-05
-2.29179e-10
3.04877e-05
-2.3762e-10
3.04878e-05
-2.45623e-10
3.04878e-05
-2.53295e-10
3.04879e-05
-2.60666e-10
3.0488e-05
-2.67814e-10
3.0488e-05
-2.74309e-10
3.04881e-05
-2.80141e-10
3.04882e-05
-2.83109e-10
3.04882e-05
-2.84216e-10
3.04883e-05
-2.74372e-10
3.04884e-05
-2.6306e-10
3.04884e-05
-2.12619e-10
3.04885e-05
-1.77187e-10
3.04885e-05
-1.69741e-11
3.04885e-05
5.74515e-11
3.04884e-05
3.59037e-10
3.04883e-05
5.20553e-10
3.04883e-05
2.13641e-10
3.04883e-05
3.23599e-11
3.04883e-05
-9.69456e-11
3.04883e-05
-1.66149e-10
3.04884e-05
-2.45349e-10
3.04884e-05
-2.73481e-10
3.04885e-05
-2.72398e-10
3.04885e-05
-2.58838e-10
3.04886e-05
-2.4136e-10
3.04887e-05
-2.26361e-10
3.04887e-05
-2.1624e-10
3.04888e-05
-2.11369e-10
3.04888e-05
-2.10869e-10
3.04889e-05
-2.13181e-10
3.04889e-05
-2.16556e-10
3.0489e-05
-2.1939e-10
3.0489e-05
-2.20424e-10
3.04891e-05
-2.18826e-10
3.04892e-05
-2.1418e-10
3.04892e-05
-2.06415e-10
3.04893e-05
-1.95716e-10
3.04893e-05
-1.82427e-10
3.04893e-05
-1.66978e-10
3.04894e-05
-1.49835e-10
3.04894e-05
-1.31455e-10
3.04894e-05
-1.12267e-10
3.04895e-05
-9.2659e-11
3.04895e-05
-7.2966e-11
3.04895e-05
-5.34733e-11
3.04895e-05
-3.4419e-11
3.04895e-05
-1.59884e-11
3.04895e-05
1.65033e-12
3.04895e-05
1.84318e-11
3.04895e-05
3.4234e-11
3.04895e-05
4.93405e-11
3.04895e-05
6.33622e-11
3.04894e-05
7.79827e-11
3.04894e-05
9.10653e-11
3.04894e-05
1.08267e-10
3.04894e-05
1.21906e-10
3.04893e-05
1.35733e-10
3.04893e-05
1.28289e-10
3.04893e-05
1.10015e-10
3.04892e-05
9.50558e-11
3.04892e-05
7.73475e-11
3.04892e-05
7.90496e-11
3.04892e-05
8.4066e-11
3.04891e-05
8.85959e-11
3.04891e-05
9.26725e-11
3.04891e-05
9.83935e-11
3.0489e-05
1.05275e-10
3.0489e-05
1.22544e-10
3.0489e-05
1.40375e-10
3.04889e-05
1.95834e-10
3.04889e-05
2.34239e-10
3.04888e-05
3.93609e-10
3.04887e-05
4.65828e-10
3.04885e-05
7.51043e-10
3.04883e-05
9.05366e-10
3.04882e-05
5.32714e-10
3.04881e-05
3.05842e-10
3.0488e-05
1.50894e-10
3.0488e-05
4.98376e-11
3.0488e-05
1.01938e-12
3.0488e-05
-2.40255e-11
3.0488e-05
-3.48586e-11
3.0488e-05
-3.92398e-11
3.0488e-05
-3.35581e-11
3.0488e-05
-2.68105e-11
3.0488e-05
2.19641e-11
3.0488e-05
5.11773e-11
3.04879e-05
3.06884e-10
3.04879e-05
3.29791e-10
1.82646e-09
3.51965e-05
2.49493e-09
3.51963e-05
4.01806e-10
3.51962e-05
-2.0674e-10
3.51962e-05
-2.67416e-10
3.51962e-05
-2.26218e-10
3.51962e-05
-1.39226e-10
3.51962e-05
-7.44274e-11
3.51962e-05
-3.28573e-11
3.51962e-05
-1.00374e-11
3.51962e-05
-1.80941e-12
3.51962e-05
-4.10174e-12
3.51962e-05
-1.40151e-11
3.51962e-05
-2.91985e-11
3.51962e-05
-4.77255e-11
3.51962e-05
-6.79751e-11
3.51963e-05
-8.86211e-11
3.51963e-05
-1.08746e-10
3.51963e-05
-1.27902e-10
3.51963e-05
-1.46017e-10
3.51964e-05
-1.6322e-10
3.51964e-05
-1.79674e-10
3.51964e-05
-1.95485e-10
3.51965e-05
-2.10683e-10
3.51965e-05
-2.25249e-10
3.51966e-05
-2.39159e-10
3.51966e-05
-2.52401e-10
3.51967e-05
-2.64975e-10
3.51967e-05
-2.76886e-10
3.51968e-05
-2.8815e-10
3.51969e-05
-2.9881e-10
3.51969e-05
-3.08938e-10
3.5197e-05
-3.1866e-10
3.51971e-05
-3.28017e-10
3.51971e-05
-3.37098e-10
3.51972e-05
-3.45413e-10
3.51973e-05
-3.52928e-10
3.51974e-05
-3.57105e-10
3.51974e-05
-3.58969e-10
3.51975e-05
-3.48083e-10
3.51976e-05
-3.3484e-10
3.51976e-05
-2.76259e-10
3.51977e-05
-2.32731e-10
3.51977e-05
-4.50263e-11
3.51977e-05
4.92915e-11
3.51977e-05
4.07762e-10
3.51976e-05
6.08157e-10
3.51975e-05
2.67408e-10
3.51975e-05
5.51849e-11
3.51975e-05
-1.02883e-10
3.51975e-05
-1.90843e-10
3.51976e-05
-2.89404e-10
3.51976e-05
-3.28532e-10
3.51977e-05
-3.32728e-10
3.51978e-05
-3.20741e-10
3.51978e-05
-3.0315e-10
3.51979e-05
-2.87648e-10
3.5198e-05
-2.77261e-10
3.5198e-05
-2.7253e-10
3.51981e-05
-2.7247e-10
3.51981e-05
-2.75288e-10
3.51982e-05
-2.78981e-10
3.51983e-05
-2.81721e-10
3.51983e-05
-2.82089e-10
3.51984e-05
-2.79162e-10
3.51984e-05
-2.72497e-10
3.51985e-05
-2.62046e-10
3.51985e-05
-2.48051e-10
3.51986e-05
-2.30935e-10
3.51986e-05
-2.11221e-10
3.51987e-05
-1.89464e-10
3.51987e-05
-1.66215e-10
3.51987e-05
-1.41989e-10
3.51988e-05
-1.17253e-10
3.51988e-05
-9.24138e-11
3.51988e-05
-6.78189e-11
3.51988e-05
-4.37609e-11
3.51988e-05
-2.04707e-11
3.51988e-05
1.84573e-12
3.51988e-05
2.30999e-11
3.51988e-05
4.31389e-11
3.51988e-05
6.22777e-11
3.51988e-05
8.00839e-11
3.51988e-05
9.84784e-11
3.51987e-05
1.15083e-10
3.51987e-05
1.36375e-10
3.51987e-05
1.53682e-10
3.51986e-05
1.71077e-10
3.51986e-05
1.63696e-10
3.51986e-05
1.43047e-10
3.51985e-05
1.2528e-10
3.51985e-05
1.04111e-10
3.51985e-05
1.05266e-10
3.51985e-05
1.1084e-10
3.51984e-05
1.16471e-10
3.51984e-05
1.21856e-10
3.51984e-05
1.29267e-10
3.51983e-05
1.38109e-10
3.51983e-05
1.58843e-10
3.51983e-05
1.806e-10
3.51982e-05
2.45601e-10
3.51982e-05
2.92804e-10
3.51981e-05
4.79409e-10
3.5198e-05
5.70521e-10
3.51978e-05
9.09283e-10
3.51976e-05
1.09965e-09
3.51975e-05
6.81026e-10
3.51974e-05
4.12492e-10
3.51973e-05
2.20326e-10
3.51972e-05
9.22237e-11
3.51972e-05
2.5671e-11
3.51972e-05
-1.09086e-11
3.51972e-05
-2.9122e-11
3.51972e-05
-3.84595e-11
3.51972e-05
-3.51921e-11
3.51972e-05
-2.95648e-11
3.51972e-05
2.49877e-11
3.51972e-05
6.00273e-11
3.51971e-05
3.54321e-10
3.51971e-05
3.9877e-10
2.08043e-09
3.95996e-05
2.8077e-09
3.95994e-05
6.05508e-10
3.95993e-05
-8.8911e-11
3.95993e-05
-2.1746e-10
3.95992e-05
-2.08579e-10
3.95992e-05
-1.34993e-10
3.95992e-05
-7.44183e-11
3.95992e-05
-3.37858e-11
3.95992e-05
-1.13585e-11
3.95992e-05
-3.8441e-12
3.95992e-05
-7.47792e-12
3.95992e-05
-1.94378e-11
3.95993e-05
-3.73138e-11
3.95993e-05
-5.90309e-11
3.95993e-05
-8.27878e-11
3.95993e-05
-1.07086e-10
3.95993e-05
-1.30874e-10
3.95993e-05
-1.53619e-10
3.95994e-05
-1.75222e-10
3.95994e-05
-1.95816e-10
3.95994e-05
-2.15577e-10
3.95995e-05
-2.34615e-10
3.95995e-05
-2.52959e-10
3.95996e-05
-2.70579e-10
3.95996e-05
-2.87443e-10
3.95997e-05
-3.03531e-10
3.95997e-05
-3.18837e-10
3.95998e-05
-3.33366e-10
3.95998e-05
-3.47135e-10
3.95999e-05
-3.60196e-10
3.96e-05
-3.72635e-10
3.96e-05
-3.84599e-10
3.96001e-05
-3.96142e-10
3.96002e-05
-4.07365e-10
3.96002e-05
-4.17724e-10
3.96003e-05
-4.27158e-10
3.96004e-05
-4.32818e-10
3.96005e-05
-4.35738e-10
3.96005e-05
-4.24231e-10
3.96006e-05
-4.09501e-10
3.96007e-05
-3.43588e-10
3.96007e-05
-2.9265e-10
3.96008e-05
-7.91156e-11
3.96008e-05
3.43674e-11
3.96008e-05
4.48059e-10
3.96007e-05
6.88408e-10
3.96006e-05
3.1958e-10
3.96006e-05
8.05803e-11
3.96006e-05
-1.0394e-10
3.96006e-05
-2.10233e-10
3.96007e-05
-3.28439e-10
3.96007e-05
-3.79755e-10
3.96008e-05
-3.90897e-10
3.96008e-05
-3.82285e-10
3.96009e-05
-3.6623e-10
3.9601e-05
-3.51547e-10
3.9601e-05
-3.41811e-10
3.96011e-05
-3.3773e-10
3.96011e-05
-3.38263e-10
3.96012e-05
-3.41471e-10
3.96013e-05
-3.45191e-10
3.96013e-05
-3.4746e-10
3.96014e-05
-3.4677e-10
3.96015e-05
-3.42156e-10
3.96015e-05
-3.33175e-10
3.96016e-05
-3.19811e-10
3.96016e-05
-3.02362e-10
3.96017e-05
-2.81321e-10
3.96017e-05
-2.57286e-10
3.96018e-05
-2.30893e-10
3.96018e-05
-2.02769e-10
3.96019e-05
-1.73505e-10
3.96019e-05
-1.43638e-10
3.96019e-05
-1.13638e-10
3.96019e-05
-8.39123e-11
3.96019e-05
-5.48029e-11
3.96019e-05
-2.65874e-11
3.96019e-05
4.91354e-13
3.96019e-05
2.63194e-11
3.96019e-05
5.07125e-11
3.96019e-05
7.40087e-11
3.96019e-05
9.57331e-11
3.96019e-05
1.18025e-10
3.96019e-05
1.38283e-10
3.96018e-05
1.63765e-10
3.96018e-05
1.84899e-10
3.96018e-05
2.06077e-10
3.96017e-05
1.99184e-10
3.96017e-05
1.76645e-10
3.96017e-05
1.56426e-10
3.96016e-05
1.3205e-10
3.96016e-05
1.32679e-10
3.96016e-05
1.38826e-10
3.96015e-05
1.45642e-10
3.96015e-05
1.52484e-10
3.96015e-05
1.61712e-10
3.96014e-05
1.72565e-10
3.96014e-05
1.96594e-10
3.96014e-05
2.21966e-10
3.96013e-05
2.95735e-10
3.96013e-05
3.51014e-10
3.96012e-05
5.63144e-10
3.96011e-05
6.72368e-10
3.96009e-05
1.06309e-09
3.96007e-05
1.29061e-09
3.96006e-05
8.32282e-10
3.96005e-05
5.26434e-10
3.96004e-05
2.9916e-10
3.96003e-05
1.44101e-10
3.96003e-05
5.87114e-11
3.96003e-05
9.07367e-12
3.96003e-05
-1.81034e-11
3.96003e-05
-3.38132e-11
3.96003e-05
-3.42913e-11
3.96003e-05
-3.08985e-11
3.96003e-05
2.79757e-11
3.96003e-05
6.76337e-11
3.96002e-05
3.96585e-10
3.96002e-05
4.61917e-10
2.29538e-09
4.37172e-05
3.0762e-09
4.3717e-05
8.07345e-10
4.37169e-05
4.67285e-11
4.37168e-05
-1.44726e-10
4.37168e-05
-1.71875e-10
4.37167e-05
-1.17417e-10
4.37167e-05
-6.58714e-11
4.37167e-05
-2.94189e-11
4.37167e-05
-9.34781e-12
4.37167e-05
-3.66622e-12
4.37167e-05
-9.20719e-12
4.37167e-05
-2.34193e-11
4.37167e-05
-4.39794e-11
4.37168e-05
-6.87693e-11
4.37168e-05
-9.58753e-11
4.37168e-05
-1.2367e-10
4.37168e-05
-1.50989e-10
4.37168e-05
-1.77231e-10
4.37169e-05
-2.02265e-10
4.37169e-05
-2.26223e-10
4.37169e-05
-2.49288e-10
4.3717e-05
-2.71574e-10
4.3717e-05
-2.93102e-10
4.3717e-05
-3.1384e-10
4.37171e-05
-3.33743e-10
4.37171e-05
-3.52783e-10
4.37172e-05
-3.70947e-10
4.37172e-05
-3.88232e-10
4.37173e-05
-4.04656e-10
4.37174e-05
-4.20278e-10
4.37174e-05
-4.35196e-10
4.37175e-05
-4.49578e-10
4.37176e-05
-4.63494e-10
4.37176e-05
-4.77053e-10
4.37177e-05
-4.8967e-10
4.37178e-05
-5.01248e-10
4.37178e-05
-5.08664e-10
4.37179e-05
-5.12935e-10
4.3718e-05
-5.01236e-10
4.37181e-05
-4.85484e-10
4.37181e-05
-4.13086e-10
4.37182e-05
-3.55538e-10
4.37182e-05
-1.17888e-10
4.37183e-05
1.36143e-11
4.37182e-05
4.80806e-10
4.37182e-05
7.61569e-10
4.37181e-05
3.68892e-10
4.37181e-05
1.06826e-10
4.37181e-05
-1.01337e-10
4.37181e-05
-2.24788e-10
4.37181e-05
-3.62339e-10
4.37182e-05
-4.26561e-10
4.37182e-05
-4.45977e-10
4.37183e-05
-4.42376e-10
4.37184e-05
-4.29465e-10
4.37184e-05
-4.16939e-10
4.37185e-05
-4.08793e-10
4.37186e-05
-4.0588e-10
4.37186e-05
-4.07151e-10
4.37187e-05
-4.10612e-10
4.37188e-05
-4.14046e-10
4.37188e-05
-4.15452e-10
4.37189e-05
-4.13308e-10
4.3719e-05
-4.06658e-10
4.3719e-05
-3.95088e-10
4.37191e-05
-3.78626e-10
4.37191e-05
-3.57622e-10
4.37192e-05
-3.32627e-10
4.37192e-05
-3.04302e-10
4.37193e-05
-2.73345e-10
4.37193e-05
-2.40446e-10
4.37194e-05
-2.06257e-10
4.37194e-05
-1.71373e-10
4.37194e-05
-1.36319e-10
4.37194e-05
-1.01553e-10
4.37194e-05
-6.74634e-11
4.37194e-05
-3.43716e-11
4.37194e-05
-2.55761e-12
4.37194e-05
2.78395e-11
4.37194e-05
5.66041e-11
4.37194e-05
8.40916e-11
4.37194e-05
1.09784e-10
4.37194e-05
1.36021e-10
4.37194e-05
1.59993e-10
4.37193e-05
1.89707e-10
4.37193e-05
2.14768e-10
4.37193e-05
2.3989e-10
4.37192e-05
2.33835e-10
4.37192e-05
2.0984e-10
4.37192e-05
1.87553e-10
4.37192e-05
1.60305e-10
4.37191e-05
1.60573e-10
4.37191e-05
1.67436e-10
4.37191e-05
1.75596e-10
4.3719e-05
1.84074e-10
4.3719e-05
1.95229e-10
4.3719e-05
2.08096e-10
4.37189e-05
2.35173e-10
4.37189e-05
2.63753e-10
4.37188e-05
3.45415e-10
4.37188e-05
4.07877e-10
4.37187e-05
6.43735e-10
4.37186e-05
7.69871e-10
4.37185e-05
1.21093e-09
4.37183e-05
1.47621e-09
4.37181e-05
9.82907e-10
4.3718e-05
6.43793e-10
4.37179e-05
3.84276e-10
4.37179e-05
2.03341e-10
4.37178e-05
9.89116e-11
4.37178e-05
3.53426e-11
4.37178e-05
-1.9832e-12
4.37178e-05
-2.5237e-11
4.37178e-05
-3.06878e-11
4.37178e-05
-3.05586e-11
4.37178e-05
3.11369e-11
4.37178e-05
7.42484e-11
4.37177e-05
4.33596e-10
4.37177e-05
5.19087e-10
2.47274e-09
4.75982e-05
3.30097e-09
4.75981e-05
9.98385e-10
4.75979e-05
1.89298e-10
4.75978e-05
-5.65949e-11
4.75978e-05
-1.19395e-10
4.75977e-05