/*--------------------------------*- C++ -*----------------------------------*\
  =========                 |
  \\      /  F ield         | OpenFOAM: The Open Source CFD Toolbox
   \\    /   O peration     | Website:  https://openfoam.org
    \\  /    A nd           | Version:  7
     \\/     M anipulation  |
\*---------------------------------------------------------------------------*/
FoamFile
{
    version     2.0;
    format      ascii;
    class       volVectorField;
    location    "2000";
    object      U;
}
// * * * * * * * * * * * * * * * * * * * * * * * * * * * * * * * * * * * * * //

dimensions      [0 1 -1 0 0 0 0];

internalField   nonuniform List<vector> 
24000
(
(0.00396968 1.67383e-09 1.0136e-17)
(0.00396965 -1.95266e-09 -9.32659e-18)
(0.00396979 -2.9967e-10 -8.42735e-18)
(0.00396981 -2.8258e-10 -7.38197e-17)
(0.00396985 -1.80034e-10 -3.61285e-16)
(0.00396986 -6.43101e-11 -8.77118e-17)
(0.00396987 -3.43903e-11 -3.46544e-16)
(0.00396987 -4.64286e-12 -7.53033e-17)
(0.00396987 1.0512e-11 -2.93717e-17)
(0.00396987 1.70769e-11 -3.33649e-16)
(0.00396987 1.84842e-11 -6.10068e-17)
(0.00396986 1.665e-11 -5.23134e-17)
(0.00396986 1.31062e-11 -4.78969e-17)
(0.00396986 8.40289e-12 -7.10122e-17)
(0.00396986 3.02598e-12 -1.14697e-16)
(0.00396986 -2.53872e-12 -4.78929e-17)
(0.00396987 -7.9624e-12 -6.49552e-17)
(0.00396987 -1.30557e-11 -6.52993e-17)
(0.00396987 -1.77887e-11 -9.11344e-17)
(0.00396988 -2.21721e-11 -1.30083e-16)
(0.00396988 -2.62808e-11 -6.68083e-17)
(0.00396989 -3.01822e-11 -1.27762e-16)
(0.00396989 -3.3902e-11 -9.65086e-17)
(0.0039699 -3.75008e-11 -1.0445e-16)
(0.00396991 -4.09903e-11 -1.5895e-16)
(0.00396991 -4.4426e-11 -6.92469e-17)
(0.00396992 -4.77476e-11 -9.90449e-17)
(0.00396993 -5.10808e-11 -8.09812e-17)
(0.00396994 -5.41259e-11 -1.12401e-16)
(0.00396995 -5.73372e-11 -1.69027e-16)
(0.00396996 -5.98197e-11 -7.69764e-17)
(0.00396997 -6.31655e-11 -9.53009e-17)
(0.00396998 -6.46146e-11 -8.10832e-17)
(0.00396999 -6.90508e-11 -1.04751e-16)
(0.00397 -6.76246e-11 -1.59905e-16)
(0.00397001 -7.53854e-11 -9.27593e-17)
(0.00397002 -6.48339e-11 -1.0697e-16)
(0.00397004 -8.1826e-11 -9.0836e-17)
(0.00397005 -4.43987e-11 -1.16066e-16)
(0.00397006 -8.60626e-11 -1.56576e-16)
(0.00397007 2.07092e-11 -1.20744e-16)
(0.00397008 -7.39572e-11 6.39864e-17)
(0.00397007 1.66135e-10 -7.66316e-17)
(0.00397006 3.12283e-11 -8.35361e-17)
(0.00397005 3.05056e-10 -7.45333e-17)
(0.00397 3.96659e-10 -6.54987e-17)
(0.00396998 -1.3844e-10 1.79586e-16)
(0.00396999 -1.20929e-11 -4.65244e-17)
(0.00396999 -1.06274e-10 -5.69491e-17)
(0.00397 -7.23365e-11 -5.08883e-17)
(0.00397002 -1.37645e-10 -4.46828e-17)
(0.00397003 -1.05741e-10 1.22807e-16)
(0.00397005 -9.23333e-11 -3.23794e-17)
(0.00397006 -7.67935e-11 2.15513e-16)
(0.00397007 -6.2188e-11 -8.61432e-17)
(0.00397008 -5.19824e-11 -1.61525e-17)
(0.00397009 -4.4716e-11 1.38142e-16)
(0.0039701 -4.05601e-11 -1.2034e-17)
(0.00397011 -3.89902e-11 1.52522e-16)
(0.00397011 -3.93606e-11 -9.34318e-17)
(0.00397012 -4.09645e-11 -6.49089e-18)
(0.00397013 -4.31134e-11 2.30879e-16)
(0.00397014 -4.52276e-11 1.84666e-18)
(0.00397015 -4.68806e-11 2.1102e-16)
(0.00397015 -4.77851e-11 -8.24309e-17)
(0.00397016 -4.78187e-11 9.95433e-18)
(0.00397017 -4.69652e-11 2.27012e-16)
(0.00397018 -4.52848e-11 1.74976e-17)
(0.00397019 -4.28729e-11 2.88538e-16)
(0.00397019 -3.98812e-11 -2.25099e-17)
(0.0039702 -3.64192e-11 2.35851e-17)
(0.0039702 -3.26567e-11 1.66668e-16)
(0.00397021 -2.86656e-11 1.94197e-17)
(0.00397021 -2.46164e-11 1.5584e-16)
(0.00397022 -2.04767e-11 -3.47372e-17)
(0.00397022 -1.65111e-11 3.18555e-17)
(0.00397022 -1.24288e-11 2.0077e-16)
(0.00397022 -8.86717e-12 3.42913e-17)
(0.00397022 -4.76177e-12 2.27373e-16)
(0.00397022 -1.9984e-12 -3.43584e-17)
(0.00397022 2.73944e-12 -2.71584e-16)
(0.00397022 3.98851e-12 -5.54681e-17)
(0.00397022 1.11914e-11 2.97026e-17)
(0.00397021 1.00553e-11 -2.42998e-16)
(0.00397021 2.22838e-11 -6.25732e-17)
(0.00397021 1.9533e-11 -2.49236e-16)
(0.0039702 2.98901e-11 -7.46374e-17)
(0.0039702 1.41006e-11 1.43281e-17)
(0.00397019 -2.2675e-12 -2.11806e-16)
(0.00397019 1.13695e-12 -1.25762e-16)
(0.00397019 -1.68151e-11 -3.27349e-16)
(0.00397019 1.31032e-12 -8.39139e-17)
(0.00397019 -1.63132e-13 -5.14181e-21)
(0.00397019 4.32177e-12 -2.42068e-16)
(0.00397018 -1.07482e-12 -9.76804e-17)
(0.00397018 1.00612e-11 -1.96263e-16)
(0.00397018 -5.61574e-12 -8.72608e-17)
(0.00397018 3.17794e-11 1.75385e-18)
(0.00397017 -7.40947e-12 -2.00704e-16)
(0.00397017 9.74828e-11 -1.12495e-16)
(0.00397016 8.60151e-12 -2.17128e-16)
(0.00397014 2.39587e-10 -7.34813e-17)
(0.00397012 1.19793e-10 -1.03078e-18)
(0.00397009 3.62315e-10 -2.08668e-16)
(0.00397003 4.87682e-10 -4.00257e-17)
(0.00396999 -1.19818e-10 -1.75095e-16)
(0.00397 5.15474e-12 -6.75437e-17)
(0.00396999 -6.39542e-11 -1.55963e-18)
(0.00397 -7.93019e-11 -2.06182e-16)
(0.00397 -5.63501e-11 -8.12054e-17)
(0.00397001 -6.54988e-11 -1.93812e-16)
(0.00397001 -3.15769e-11 -2.5075e-16)
(0.00397002 -6.59081e-11 -1.98639e-17)
(0.00397002 2.05226e-11 -2.05797e-16)
(0.00397003 -9.92163e-11 -1.24032e-16)
(0.00397002 1.60435e-10 -1.89132e-16)
(0.00397003 -1.97004e-10 -1.93315e-16)
(0.00397 5.77725e-10 -5.51049e-18)
(0.00397 -3.6622e-10 -2.40975e-16)
(0.00396994 1.96538e-09 -5.67838e-17)
(0.0119842 1.66285e-08 3.46783e-17)
(0.011984 -9.00342e-09 -2.81396e-17)
(0.0119843 -6.2007e-09 -2.6582e-17)
(0.0119844 -3.06547e-09 -2.37519e-16)
(0.0119844 -2.20043e-09 -6.88317e-16)
(0.0119845 -1.02159e-09 -2.51079e-16)
(0.0119845 -4.74936e-10 -8.21208e-16)
(0.0119845 -1.33482e-10 -2.16043e-16)
(0.0119845 6.30465e-11 -9.01557e-17)
(0.0119845 1.45575e-10 -7.68769e-16)
(0.0119845 1.6067e-10 -1.72954e-16)
(0.0119845 1.31454e-10 -1.60558e-16)
(0.0119845 7.46404e-11 -1.4507e-16)
(0.0119845 8.15196e-13 -2.15277e-16)
(0.0119845 -8.17197e-11 -3.5382e-16)
(0.0119845 -1.66193e-10 -1.32888e-16)
(0.0119845 -2.48118e-10 -1.95396e-16)
(0.0119845 -3.25477e-10 -1.97851e-16)
(0.0119845 -3.97836e-10 -2.76027e-16)
(0.0119845 -4.65784e-10 -3.84549e-16)
(0.0119846 -5.30198e-10 -2.04929e-16)
(0.0119846 -5.91755e-10 -3.93796e-16)
(0.0119846 -6.50835e-10 -2.93754e-16)
(0.0119846 -7.07656e-10 -3.15393e-16)
(0.0119846 -7.62293e-10 -4.73248e-16)
(0.0119847 -8.14911e-10 -2.0191e-16)
(0.0119847 -8.65315e-10 -3.01352e-16)
(0.0119847 -9.13493e-10 -2.45423e-16)
(0.0119847 -9.58832e-10 -3.51426e-16)
(0.0119848 -1.00215e-09 -5.06561e-16)
(0.0119848 -1.04242e-09 -2.26875e-16)
(0.0119848 -1.08272e-09 -2.9512e-16)
(0.0119849 -1.1188e-09 -2.46266e-16)
(0.0119849 -1.1588e-09 -3.15312e-16)
(0.0119849 -1.18535e-09 -4.86335e-16)
(0.011985 -1.22323e-09 -2.81737e-16)
(0.011985 -1.21216e-09 -3.26435e-16)
(0.011985 -1.23949e-09 -2.74932e-16)
(0.0119851 -1.10103e-09 -3.47711e-16)
(0.0119851 -1.11392e-09 -4.82431e-16)
(0.0119851 -5.89025e-10 -3.65367e-16)
(0.0119851 -6.30227e-10 -2.27986e-16)
(0.0119851 8.66505e-10 -2.3734e-16)
(0.0119851 7.78013e-10 -2.51919e-16)
(0.0119851 3.17197e-09 -2.24788e-16)
(0.011985 4.01321e-09 -1.96498e-16)
(0.0119849 2.8528e-10 -9.76083e-17)
(0.0119849 -3.59829e-10 -1.465e-16)
(0.0119849 -9.51805e-10 -1.69898e-16)
(0.011985 -1.12721e-09 -1.52555e-16)
(0.011985 -1.6091e-09 -1.33843e-16)
(0.011985 -1.5704e-09 -4.11975e-17)
(0.0119851 -1.40895e-09 -1.02611e-16)
(0.0119851 -1.24296e-09 2.15905e-18)
(0.0119851 -1.07281e-09 -1.84628e-16)
(0.0119852 -9.41519e-10 -4.72543e-17)
(0.0119852 -8.50418e-10 1.40212e-17)
(0.0119852 -7.98806e-10 -4.28567e-17)
(0.0119852 -7.81096e-10 5.92329e-17)
(0.0119853 -7.88045e-10 -3.26755e-16)
(0.0119853 -8.09394e-10 -1.75892e-17)
(0.0119853 -8.35374e-10 6.42828e-17)
(0.0119853 -8.57762e-10 -1.22106e-18)
(0.0119854 -8.70634e-10 6.33563e-17)
(0.0119854 -8.70459e-10 -9.29056e-17)
(0.0119854 -8.55719e-10 3.37493e-17)
(0.0119854 -8.26645e-10 9.28272e-17)
(0.0119855 -7.84373e-10 4.6182e-17)
(0.0119855 -7.30822e-10 1.89465e-16)
(0.0119855 -6.68159e-10 2.16251e-17)
(0.0119855 -5.98656e-10 7.73075e-17)
(0.0119855 -5.24408e-10 1.1708e-16)
(0.0119856 -4.47264e-10 5.29601e-17)
(0.0119856 -3.691e-10 1.13871e-16)
(0.0119856 -2.91032e-10 -2.31196e-16)
(0.0119856 -2.1452e-10 9.84565e-17)
(0.0119856 -1.39844e-10 1.74134e-16)
(0.0119856 -6.87431e-11 9.78742e-17)
(0.0119856 3.30744e-13 1.37023e-16)
(0.0119856 6.35587e-11 -1.64474e-16)
(0.0119856 1.28728e-10 -1.20329e-16)
(0.0119856 1.82987e-10 -2.04319e-16)
(0.0119856 2.5578e-10 9.00987e-17)
(0.0119856 3.0236e-10 -1.41858e-16)
(0.0119856 4.06733e-10 -2.6811e-16)
(0.0119855 4.52308e-10 -1.57007e-16)
(0.0119855 5.31911e-10 -1.45985e-16)
(0.0119855 4.14735e-10 4.27266e-17)
(0.0119855 2.53791e-10 -1.9663e-16)
(0.0119855 1.90558e-10 -2.34495e-16)
(0.0119855 6.32203e-11 -2.1385e-16)
(0.0119855 1.45148e-10 -2.13388e-16)
(0.0119855 1.85972e-10 -4.99542e-19)
(0.0119855 2.08476e-10 -2.59763e-16)
(0.0119855 2.11271e-10 -1.5148e-16)
(0.0119855 2.48939e-10 -2.03709e-16)
(0.0119854 2.45629e-10 -3.5279e-16)
(0.0119854 4.05292e-10 4.8158e-18)
(0.0119854 4.1635e-10 -2.08359e-16)
(0.0119854 9.55621e-10 -2.31672e-16)
(0.0119854 9.36907e-10 -2.36085e-16)
(0.0119853 2.41469e-09 -1.85853e-16)
(0.0119853 2.3555e-09 3.65244e-19)
(0.0119852 4.59871e-09 -2.37847e-16)
(0.011985 5.51847e-09 -9.24107e-17)
(0.0119849 1.23779e-09 -1.7801e-16)
(0.0119849 4.08069e-10 -1.83133e-16)
(0.0119849 -1.60101e-10 -2.45958e-18)
(0.0119849 -5.68525e-10 -2.20878e-16)
(0.0119849 -5.67985e-10 -3.96497e-16)
(0.0119849 -5.76928e-10 -2.31324e-16)
(0.0119849 -4.79465e-10 -3.24321e-16)
(0.011985 -4.80113e-10 -5.46857e-17)
(0.011985 -2.39988e-10 -2.11531e-16)
(0.011985 -3.5539e-10 -2.36531e-16)
(0.011985 4.49411e-10 -2.11641e-16)
(0.011985 -4.39235e-11 -2.36112e-16)
(0.0119849 3.1586e-09 -1.26608e-17)
(0.0119849 7.22823e-10 -1.6395e-16)
(0.0119848 1.76275e-08 -1.51465e-16)
(0.0201632 4.28594e-08 8.07669e-17)
(0.0201629 -1.53541e-08 -5.29638e-17)
(0.0201632 -1.54596e-08 -4.83375e-17)
(0.0201633 -8.24151e-09 -4.55383e-16)
(0.0201634 -5.67046e-09 -6.65621e-16)
(0.0201635 -2.81311e-09 -3.66143e-16)
(0.0201635 -1.30933e-09 -6.08065e-16)
(0.0201635 -4.08397e-10 -3.06762e-16)
(0.0201635 1.07354e-10 -1.63401e-16)
(0.0201635 3.24213e-10 -5.28663e-16)
(0.0201635 3.56686e-10 -2.32764e-16)
(0.0201635 2.68228e-10 -2.80872e-16)
(0.0201635 1.02988e-10 -2.45403e-16)
(0.0201635 -1.09436e-10 -3.70673e-16)
(0.0201635 -3.45756e-10 -6.18948e-16)
(0.0201635 -5.87081e-10 -1.66227e-16)
(0.0201635 -8.20912e-10 -3.31333e-16)
(0.0201635 -1.04169e-09 -3.34797e-16)
(0.0201636 -1.24841e-09 -4.73484e-16)
(0.0201636 -1.44285e-09 -6.26569e-16)
(0.0201636 -1.62737e-09 -3.4204e-16)
(0.0201636 -1.8038e-09 -6.95847e-16)
(0.0201637 -1.97306e-09 -4.90443e-16)
(0.0201637 -2.13561e-09 -5.30726e-16)
(0.0201637 -2.29162e-09 -7.82528e-16)
(0.0201638 -2.44116e-09 -2.79985e-16)
(0.0201638 -2.58403e-09 -5.23079e-16)
(0.0201638 -2.71984e-09 -4.09927e-16)
(0.0201639 -2.84783e-09 -6.48259e-16)
(0.0201639 -2.96903e-09 -8.4297e-16)
(0.020164 -3.08307e-09 -3.44025e-16)
(0.020164 -3.19438e-09 -5.29023e-16)
(0.0201641 -3.2987e-09 -4.15902e-16)
(0.0201641 -3.40549e-09 -5.318e-16)
(0.0201642 -3.49072e-09 -8.39881e-16)
(0.0201643 -3.58161e-09 -4.6363e-16)
(0.0201643 -3.58621e-09 -5.56935e-16)
(0.0201644 -3.61772e-09 -4.60902e-16)
(0.0201644 -3.33822e-09 -5.82474e-16)
(0.0201645 -3.24244e-09 -8.45913e-16)
(0.0201645 -2.07338e-09 -6.08009e-16)
(0.0201646 -1.84522e-09 -5.50227e-16)
(0.0201646 1.66032e-09 -4.03219e-16)
(0.0201645 2.022e-09 -4.2544e-16)
(0.0201645 7.97923e-09 -3.75206e-16)
(0.0201643 1.03401e-08 -3.26121e-16)
(0.0201642 1.82367e-09 -3.45129e-16)
(0.0201642 -7.22514e-10 -2.52134e-16)
(0.0201643 -2.39044e-09 -2.83016e-16)
(0.0201643 -3.06887e-09 -2.51921e-16)
(0.0201644 -4.30858e-09 -2.2135e-16)
(0.0201644 -4.37419e-09 -2.40779e-16)
(0.0201645 -4.01136e-09 -1.77119e-16)
(0.0201645 -3.58797e-09 -1.90448e-16)
(0.0201646 -3.14861e-09 1.71193e-16)
(0.0201646 -2.80025e-09 -5.59041e-17)
(0.0201647 -2.55932e-09 -1.49041e-16)
(0.0201647 -2.42477e-09 -8.10809e-17)
(0.0201648 -2.38139e-09 -6.64506e-17)
(0.0201648 -2.40353e-09 1.87525e-16)
(0.0201648 -2.46253e-09 6.67225e-19)
(0.0201649 -2.53098e-09 -7.60766e-17)
(0.0201649 -2.58627e-09 -1.07624e-17)
(0.020165 -2.61217e-09 -3.2772e-17)
(0.020165 -2.59921e-09 1.15201e-16)
(0.020165 -2.54381e-09 9.01194e-17)
(0.0201651 -2.4468e-09 -2.41826e-18)
(0.0201651 -2.31189e-09 6.83483e-17)
(0.0201652 -2.14475e-09 1.02341e-16)
(0.0201652 -1.95175e-09 2.79565e-16)
(0.0201652 -1.73934e-09 1.59557e-16)
(0.0201652 -1.51374e-09 3.66791e-17)
(0.0201653 -1.28045e-09 8.12629e-17)
(0.0201653 -1.04438e-09 6.15354e-17)
(0.0201653 -8.09377e-10 5.68538e-16)
(0.0201653 -5.79012e-10 1.83627e-16)
(0.0201653 -3.55157e-10 1.07751e-16)
(0.0201653 -1.41172e-10 1.5784e-16)
(0.0201653 6.42088e-11 1.1206e-16)
(0.0201653 2.55604e-10 2.91487e-16)
(0.0201653 4.45314e-10 3.79022e-17)
(0.0201653 6.13324e-10 2.10717e-16)
(0.0201653 8.14186e-10 1.73951e-16)
(0.0201653 9.66828e-10 -1.0758e-16)
(0.0201653 1.23894e-09 1.17528e-16)
(0.0201652 1.39544e-09 -9.48823e-17)
(0.0201652 1.6031e-09 2.51968e-16)
(0.0201652 1.33949e-09 9.04696e-17)
(0.0201652 9.3293e-10 -1.65575e-16)
(0.0201651 7.21325e-10 2.89283e-16)
(0.0201651 4.02496e-10 -2.0404e-16)
(0.0201651 5.57327e-10 1.64947e-16)
(0.0201651 6.74744e-10 1.27929e-17)
(0.0201651 7.36174e-10 -2.41594e-16)
(0.0201651 7.65035e-10 -9.42811e-18)
(0.0201651 8.47004e-10 -1.71555e-16)
(0.0201651 8.91709e-10 3.45042e-16)
(0.020165 1.2423e-09 2.55375e-17)
(0.020165 1.40832e-09 -2.11488e-16)
(0.020165 2.63034e-09 -1.9254e-17)
(0.0201649 2.90903e-09 -2.1406e-16)
(0.0201649 6.38747e-09 2.0173e-16)
(0.0201648 6.78159e-09 2.00073e-17)
(0.0201647 1.24023e-08 -2.59303e-16)
(0.0201644 1.48509e-08 1.01147e-16)
(0.0201642 4.99361e-09 -1.7493e-16)
(0.0201642 1.85717e-09 3.22257e-17)
(0.0201642 1.05723e-10 1.13216e-17)
(0.0201642 -1.10323e-09 -2.34559e-16)
(0.0201642 -1.30673e-09 1.33349e-16)
(0.0201642 -1.36586e-09 -2.636e-16)
(0.0201642 -1.22318e-09 -3.68029e-16)
(0.0201642 -1.15465e-09 -7.33398e-17)
(0.0201642 -7.38326e-10 -2.09577e-16)
(0.0201643 -7.31257e-10 -4.54159e-17)
(0.0201642 7.83605e-10 -2.12031e-16)
(0.0201643 4.75705e-10 -2.81398e-16)
(0.0201642 7.17792e-09 -4.72281e-18)
(0.0201642 3.62448e-09 -1.59093e-16)
(0.020164 4.27211e-08 1.0653e-16)
(0.0284748 7.71394e-08 1.18778e-16)
(0.0284744 -1.73576e-08 -8.90038e-17)
(0.0284746 -2.53455e-08 -7.79279e-17)
(0.0284748 -1.49076e-08 -7.45752e-16)
(0.0284749 -1.00948e-08 -5.93369e-16)
(0.0284749 -5.21491e-09 -4.32598e-16)
(0.028475 -2.45515e-09 -5.30282e-16)
(0.028475 -8.22006e-10 -3.36054e-16)
(0.028475 1.01227e-10 -2.56574e-16)
(0.028475 4.8578e-10 -4.29464e-16)
(0.028475 5.27225e-10 -2.33411e-16)
(0.028475 3.42303e-10 -4.20893e-16)
(0.028475 1.18453e-11 -3.45962e-16)
(0.028475 -4.07941e-10 -5.54986e-16)
(0.028475 -8.72279e-10 -9.31287e-16)
(0.028475 -1.34525e-09 -1.77421e-16)
(0.028475 -1.80318e-09 -4.86983e-16)
(0.028475 -2.23538e-09 -4.76251e-16)
(0.0284751 -2.64031e-09 -7.0076e-16)
(0.0284751 -3.02149e-09 -8.4118e-16)
(0.0284751 -3.38347e-09 -4.60225e-16)
(0.0284752 -3.72973e-09 -9.15883e-16)
(0.0284752 -4.06169e-09 -6.61649e-16)
(0.0284753 -4.37996e-09 -9.07774e-16)
(0.0284753 -4.68478e-09 -1.40702e-15)
(0.0284754 -4.97611e-09 -1.05933e-16)
(0.0284754 -5.25372e-09 -6.66598e-16)
(0.0284755 -5.51691e-09 -5.62425e-16)
(0.0284756 -5.76494e-09 -9.7582e-16)
(0.0284756 -5.99894e-09 -1.16806e-15)
(0.0284757 -6.22001e-09 -4.90513e-16)
(0.0284758 -6.43344e-09 -8.55739e-16)
(0.0284758 -6.63699e-09 -5.83792e-16)
(0.0284759 -6.83843e-09 -7.52687e-16)
(0.028476 -7.01159e-09 -1.12491e-15)
(0.0284761 -7.17532e-09 -6.05455e-16)
(0.0284761 -7.21634e-09 -9.32672e-16)
(0.0284762 -7.24396e-09 -6.37184e-16)
(0.0284763 -6.80919e-09 -8.26909e-16)
(0.0284764 -6.5192e-09 -1.29341e-15)
(0.0284764 -4.57394e-09 -8.26572e-16)
(0.0284765 -3.82278e-09 -8.66613e-16)
(0.0284765 2.17083e-09 -5.51524e-16)
(0.0284765 3.49592e-09 -6.09281e-16)
(0.0284764 1.40598e-08 -5.18719e-16)
(0.0284762 1.86369e-08 -4.52036e-16)
(0.0284761 4.652e-09 -5.91245e-16)
(0.0284761 -8.35658e-10 -3.42108e-16)
(0.0284761 -4.20403e-09 -3.97655e-16)
(0.0284762 -5.73112e-09 -3.41674e-16)
(0.0284762 -8.02769e-09 -3.06858e-16)
(0.0284763 -8.3629e-09 -4.45276e-16)
(0.0284764 -7.8169e-09 -2.36195e-16)
(0.0284765 -7.07715e-09 -3.81236e-16)
(0.0284765 -6.29391e-09 -5.84062e-17)
(0.0284766 -5.66138e-09 -9.01903e-17)
(0.0284767 -5.22539e-09 -3.31576e-16)
(0.0284767 -4.98672e-09 -1.10921e-16)
(0.0284768 -4.91638e-09 -1.93224e-16)
(0.0284768 -4.96525e-09 -2.29941e-17)
(0.0284769 -5.07808e-09 -1.27541e-17)
(0.028477 -5.20246e-09 -2.22486e-16)
(0.028477 -5.2955e-09 -1.18574e-17)
(0.0284771 -5.32698e-09 -1.25796e-16)
(0.0284771 -5.27959e-09 1.44442e-16)
(0.0284772 -5.14744e-09 1.11828e-16)
(0.0284772 -4.93294e-09 -1.07191e-16)
(0.0284773 -4.644e-09 9.8927e-17)
(0.0284773 -4.29215e-09 3.99698e-17)
(0.0284774 -3.89013e-09 3.10011e-16)
(0.0284774 -3.4507e-09 2.03258e-16)
(0.0284775 -2.98615e-09 -5.5809e-17)
(0.0284775 -2.50738e-09 1.21508e-16)
(0.0284775 -2.02395e-09 1.28333e-18)
(0.0284775 -1.54367e-09 2.24894e-16)
(0.0284775 -1.07324e-09 2.43266e-16)
(0.0284775 -6.17208e-10 3.68837e-17)
(0.0284776 -1.80897e-10 2.29378e-16)
(0.0284775 2.35628e-10 8.35215e-17)
(0.0284775 6.26248e-10 3.77899e-16)
(0.0284775 1.00669e-09 1.36521e-16)
(0.0284775 1.35231e-09 2.83912e-16)
(0.0284775 1.74223e-09 2.19505e-16)
(0.0284775 2.06243e-09 -9.03636e-17)
(0.0284774 2.56895e-09 1.15884e-16)
(0.0284774 2.90223e-09 -6.42769e-17)
(0.0284774 3.29141e-09 5.39496e-17)
(0.0284773 2.86937e-09 1.14978e-16)
(0.0284773 2.15115e-09 -1.71988e-16)
(0.0284773 1.71314e-09 -5.0496e-17)
(0.0284773 1.1365e-09 -2.14262e-16)
(0.0284772 1.34717e-09 -6.80776e-17)
(0.0284772 1.56221e-09 8.45961e-18)
(0.0284772 1.68358e-09 -2.49629e-16)
(0.0284772 1.76104e-09 -6.27644e-17)
(0.0284772 1.90506e-09 -1.78125e-16)
(0.0284771 2.04076e-09 -9.15056e-18)
(0.0284771 2.62989e-09 1.80203e-17)
(0.0284771 3.0645e-09 -2.38192e-16)
(0.028477 5.12578e-09 -3.52953e-17)
(0.028477 5.96497e-09 -2.31733e-16)
(0.0284769 1.1927e-08 -3.99409e-17)
(0.0284768 1.32656e-08 2.22062e-17)
(0.0284766 2.32628e-08 -2.98724e-16)
(0.0284763 2.78657e-08 9.62813e-18)
(0.0284761 1.1538e-08 -2.25468e-16)
(0.028476 4.83522e-09 -4.41124e-17)
(0.028476 1.11645e-09 2.87377e-18)
(0.0284759 -1.33535e-09 -2.83467e-16)
(0.028476 -2.00746e-09 -1.67948e-16)
(0.028476 -2.22585e-09 -3.44535e-16)
(0.028476 -2.10775e-09 -4.24804e-16)
(0.028476 -1.96442e-09 -5.72655e-17)
(0.028476 -1.40654e-09 -2.40336e-16)
(0.028476 -1.1595e-09 -6.42948e-17)
(0.028476 1.08281e-09 -2.5738e-16)
(0.028476 1.37661e-09 -3.22526e-16)
(0.0284759 1.20329e-08 3.92926e-17)
(0.0284759 8.4667e-09 -1.73861e-16)
(0.0284757 7.34228e-08 6.43669e-17)
(0.0367966 1.15933e-07 1.60394e-16)
(0.0367961 -1.32453e-08 -1.61672e-16)
(0.0367962 -3.26527e-08 -1.26444e-16)
(0.0367963 -2.16023e-08 -4.59842e-16)
(0.0367964 -1.47553e-08 -4.36591e-16)
(0.0367965 -7.87527e-09 -5.33502e-16)
(0.0367965 -3.77559e-09 -4.42874e-16)
(0.0367965 -1.34868e-09 -3.0968e-16)
(0.0367965 3.56579e-12 -2.42849e-16)
(0.0367965 5.55032e-10 -3.51465e-16)
(0.0367965 5.8238e-10 -1.88278e-16)
(0.0367965 2.59622e-10 -6.02203e-16)
(0.0367965 -2.90409e-10 -4.31524e-16)
(0.0367965 -9.79782e-10 -8.03317e-16)
(0.0367965 -1.73798e-09 -9.35638e-16)
(0.0367966 -2.5086e-09 -3.31292e-16)
(0.0367966 -3.25412e-09 -7.38187e-16)
(0.0367966 -3.95768e-09 -6.04902e-16)
(0.0367967 -4.61717e-09 -9.84713e-16)
(0.0367967 -5.23842e-09 -1.012e-15)
(0.0367968 -5.82875e-09 -5.2911e-16)
(0.0367968 -6.39341e-09 -8.93861e-16)
(0.0367969 -6.93451e-09 -7.34121e-16)
(0.0367969 -7.4526e-09 -6.36224e-16)
(0.036797 -7.94765e-09 -9.99137e-16)
(0.0367971 -8.4196e-09 -3.91605e-16)
(0.0367971 -8.86831e-09 -5.59359e-16)
(0.0367972 -9.29305e-09 -6.59688e-16)
(0.0367973 -9.69328e-09 -7.63058e-16)
(0.0367974 -1.00705e-08 -1.07546e-15)
(0.0367974 -1.04272e-08 -4.83608e-16)
(0.0367975 -1.07698e-08 -6.26002e-16)
(0.0367976 -1.10984e-08 -7.02825e-16)
(0.0367977 -1.1419e-08 -6.63757e-16)
(0.0367978 -1.17032e-08 -1.09493e-15)
(0.0367979 -1.19603e-08 -6.18946e-16)
(0.036798 -1.20532e-08 -6.78912e-16)
(0.0367981 -1.20822e-08 -7.76835e-16)
(0.0367982 -1.14809e-08 -7.56874e-16)
(0.0367983 -1.09516e-08 -1.11967e-15)
(0.0367984 -8.14029e-09 -9.52291e-16)
(0.0367984 -6.68425e-09 -8.45382e-16)
(0.0367985 2.0908e-09 -6.3476e-16)
(0.0367985 4.83189e-09 -8.19257e-16)
(0.0367984 2.06718e-08 -6.3737e-16)
(0.0367982 2.80626e-08 -5.74239e-16)
(0.0367981 8.62612e-09 -4.88685e-16)
(0.036798 -4.39687e-10 -3.70506e-16)
(0.0367981 -6.12763e-09 -5.19725e-16)
(0.0367981 -8.85044e-09 -4.06419e-16)
(0.0367982 -1.24777e-08 -3.93958e-16)
(0.0367983 -1.32712e-08 -2.96382e-16)
(0.0367984 -1.26373e-08 -2.39013e-16)
(0.0367985 -1.15875e-08 -2.3627e-16)
(0.0367985 -1.04402e-08 -7.15161e-17)
(0.0367986 -9.49933e-09 -1.54928e-16)
(0.0367987 -8.85398e-09 -2.01015e-16)
(0.0367988 -8.51032e-09 -9.46923e-17)
(0.0367988 -8.42251e-09 1.12994e-17)
(0.0367989 -8.51218e-09 5.5003e-17)
(0.036799 -8.69124e-09 -5.64886e-17)
(0.0367991 -8.87678e-09 -4.97079e-17)
(0.0367991 -9.00168e-09 3.12689e-17)
(0.0367992 -9.01964e-09 1.38152e-16)
(0.0367993 -8.90491e-09 2.18841e-16)
(0.0367994 -8.64975e-09 9.78643e-17)
(0.0367994 -8.25954e-09 1.39342e-16)
(0.0367995 -7.74838e-09 1.74281e-16)
(0.0367996 -7.13544e-09 3.63373e-16)
(0.0367996 -6.4419e-09 2.37481e-16)
(0.0367997 -5.68877e-09 2.12821e-16)
(0.0367997 -4.89607e-09 1.78066e-16)
(0.0367997 -4.08169e-09 2.11968e-16)
(0.0367998 -3.26117e-09 2.80074e-16)
(0.0367998 -2.44746e-09 3.6219e-16)
(0.0367998 -1.65127e-09 2.66664e-16)
(0.0367998 -8.8063e-10 2.969e-16)
(0.0367998 -1.4356e-10 3.45384e-16)
(0.0367998 5.58247e-10 3.76486e-16)
(0.0367998 1.21787e-09 4.51777e-16)
(0.0367998 1.85441e-09 5.29851e-16)
(0.0367998 2.4392e-09 2.92778e-16)
(0.0367997 3.07677e-09 2.4798e-16)
(0.0367997 3.6222e-09 2.37959e-16)
(0.0367997 4.42177e-09 -6.11742e-17)
(0.0367996 4.99178e-09 3.2078e-16)
(0.0367996 5.61239e-09 -2.17605e-17)
(0.0367995 5.04821e-09 1.24666e-16)
(0.0367995 3.99069e-09 1.32146e-16)
(0.0367995 3.26988e-09 -2.39141e-16)
(0.0367994 2.38254e-09 1.02062e-16)
(0.0367994 2.61927e-09 -3.55252e-17)
(0.0367994 2.93337e-09 2.30879e-18)
(0.0367993 3.13506e-09 6.0753e-17)
(0.0367993 3.28257e-09 -4.22689e-16)
(0.0367993 3.51468e-09 1.51502e-16)
(0.0367992 3.77588e-09 -1.48107e-17)
(0.0367992 4.6516e-09 4.3653e-18)
(0.0367992 5.43138e-09 5.11819e-17)
(0.0367991 8.44469e-09 -1.78463e-17)
(0.036799 1.00371e-08 7.32885e-17)
(0.0367989 1.87731e-08 -1.68553e-16)
(0.0367988 2.14872e-08 1.24619e-17)
(0.0367986 3.64898e-08 -2.6524e-17)
(0.0367983 4.37681e-08 -4.53191e-17)
(0.036798 2.08472e-08 3.94263e-17)
(0.0367979 9.75316e-09 -2.10234e-16)
(0.0367978 3.26979e-09 -1.65988e-17)
(0.0367978 -8.84383e-10 -2.58024e-17)
(0.0367978 -2.34643e-09 -1.61442e-16)
(0.0367978 -2.90889e-09 -1.23154e-16)
(0.0367978 -2.92332e-09 -1.19549e-16)
(0.0367978 -2.77333e-09 2.24369e-17)
(0.0367978 -2.11029e-09 3.82505e-17)
(0.0367978 -1.62601e-09 -8.1816e-17)
(0.0367978 1.38943e-09 -6.61848e-18)
(0.0367978 2.45814e-09 1.06503e-17)
(0.0367977 1.73682e-08 1.5043e-16)
(0.0367977 1.47755e-08 1.17147e-16)
(0.0367974 1.06186e-07 7.77333e-17)
(0.0448662 1.56363e-07 2.26138e-16)
(0.0448656 -3.06118e-09 -2.04251e-16)
(0.0448656 -3.53855e-08 -1.62523e-16)
(0.0448657 -2.67764e-08 -2.65975e-16)
(0.0448657 -1.89038e-08 -2.7266e-16)
(0.0448658 -1.04366e-08 -3.08695e-16)
(0.0448658 -5.12891e-09 -3.21197e-16)
(0.0448658 -1.95686e-09 -2.50695e-16)
(0.0448658 -2.11341e-10 -2.46785e-16)
(0.0448658 4.80149e-10 -2.57911e-16)
(0.0448658 4.63937e-10 -1.26476e-16)
(0.0448659 -3.33726e-11 -5.17204e-16)
(0.0448659 -8.46631e-10 -4.58941e-16)
(0.0448659 -1.85395e-09 -7.99914e-16)
(0.0448659 -2.95684e-09 -9.39469e-16)
(0.0448659 -4.07645e-09 -3.71345e-16)
(0.044866 -5.15988e-09 -7.18669e-16)
(0.044866 -6.18303e-09 -6.87681e-16)
(0.044866 -7.14304e-09 -1.01287e-15)
(0.0448661 -8.04848e-09 -1.08471e-15)
(0.0448661 -8.90961e-09 -8.45238e-16)
(0.0448662 -9.73363e-09 -8.57987e-16)
(0.0448663 -1.05232e-08 -7.48583e-16)
(0.0448663 -1.12784e-08 -8.64499e-16)
(0.0448664 -1.19988e-08 -9.51801e-16)
(0.0448665 -1.26843e-08 -6.71294e-16)
(0.0448666 -1.3335e-08 -7.56789e-16)
(0.0448667 -1.39503e-08 -7.69833e-16)
(0.0448668 -1.45304e-08 -9.411e-16)
(0.0448668 -1.50772e-08 -1.01408e-15)
(0.0448669 -1.55946e-08 -7.49647e-16)
(0.044867 -1.60904e-08 -8.94919e-16)
(0.0448671 -1.65664e-08 -8.52592e-16)
(0.0448672 -1.70286e-08 -9.04935e-16)
(0.0448673 -1.74435e-08 -1.04457e-15)
(0.0448675 -1.78145e-08 -8.50986e-16)
(0.0448676 -1.79738e-08 -9.68178e-16)
(0.0448677 -1.80184e-08 -9.36054e-16)
(0.0448678 -1.72488e-08 -1.02452e-15)
(0.0448679 -1.6466e-08 -1.08986e-15)
(0.044868 -1.27442e-08 -1.02144e-15)
(0.0448681 -1.04717e-08 -8.14196e-16)
(0.0448681 1.22751e-09 -6.82776e-16)
(0.0448681 5.7272e-09 -6.12725e-16)
(0.0448681 2.72331e-08 -6.88653e-16)
(0.0448679 3.79059e-08 -6.80734e-16)
(0.0448678 1.34396e-08 -4.64848e-16)
(0.0448677 5.79116e-10 -3.74299e-16)
(0.0448677 -7.89506e-09 -4.49772e-16)
(0.0448678 -1.21364e-08 -4.12901e-16)
(0.0448679 -1.73415e-08 -4.75558e-16)
(0.0448679 -1.87936e-08 -2.50465e-16)
(0.0448681 -1.82222e-08 -2.14259e-16)
(0.0448682 -1.69358e-08 1.66553e-16)
(0.0448682 -1.54622e-08 -4.17619e-17)
(0.0448683 -1.42348e-08 -2.37318e-16)
(0.0448684 -1.33981e-08 4.15277e-17)
(0.0448685 -1.29678e-08 -5.46512e-17)
(0.0448686 -1.28797e-08 2.96119e-16)
(0.0448687 -1.3023e-08 1.04299e-16)
(0.0448688 -1.32733e-08 -7.72564e-17)
(0.0448689 -1.35146e-08 2.10604e-16)
(0.0448689 -1.36542e-08 9.08341e-17)
(0.044869 -1.36293e-08 2.75696e-16)
(0.0448691 -1.34065e-08 3.05248e-16)
(0.0448692 -1.29772e-08 7.86513e-17)
(0.0448693 -1.23514e-08 3.84875e-16)
(0.0448694 -1.15507e-08 2.7061e-16)
(0.0448694 -1.06037e-08 6.43028e-16)
(0.0448695 -9.54136e-09 5.10115e-16)
(0.0448695 -8.39452e-09 2.21031e-16)
(0.0448696 -7.192e-09 4.7883e-16)
(0.0448696 -5.96001e-09 3.18779e-16)
(0.0448697 -4.72091e-09 4.68509e-16)
(0.0448697 -3.49366e-09 4.80466e-16)
(0.0448697 -2.29396e-09 2.89106e-16)
(0.0448697 -1.13369e-09 6.03343e-16)
(0.0448697 -2.4251e-11 4.74764e-16)
(0.0448697 1.03094e-09 5.99356e-16)
(0.0448697 2.02342e-09 5.71796e-16)
(0.0448697 2.976e-09 8.73334e-16)
(0.0448697 3.85604e-09 3.73436e-16)
(0.0448696 4.79405e-09 2.97564e-16)
(0.0448696 5.61593e-09 5.49864e-16)
(0.0448695 6.75813e-09 1.34111e-16)
(0.0448695 7.61684e-09 6.82739e-16)
(0.0448694 8.51431e-09 5.20272e-17)
(0.0448694 7.84213e-09 1.86075e-16)
(0.0448693 6.44935e-09 4.2394e-16)
(0.0448693 5.41515e-09 -1.53797e-16)
(0.0448693 4.18101e-09 4.41469e-16)
(0.0448692 4.41101e-09 2.16332e-17)
(0.0448692 4.81278e-09 4.62687e-17)
(0.0448691 5.10976e-09 3.65704e-16)
(0.0448691 5.34786e-09 -2.57219e-16)
(0.0448691 5.69711e-09 4.90718e-16)
(0.044869 6.11284e-09 6.92787e-17)
(0.044869 7.31557e-09 2.73281e-17)
(0.0448689 8.48741e-09 3.36031e-16)
(0.0448689 1.25183e-08 2.85779e-17)
(0.0448688 1.4986e-08 3.75981e-16)
(0.0448687 2.66323e-08 -1.66387e-16)
(0.0448685 3.10421e-08 4.84306e-17)
(0.0448683 5.14051e-08 2.06127e-16)
(0.044868 6.17567e-08 -9.45953e-17)
(0.0448677 3.25808e-08 3.48317e-16)
(0.0448675 1.67343e-08 -1.97488e-16)
(0.0448674 6.85016e-09 -1.74628e-18)
(0.0448673 5.51652e-10 1.93271e-16)
(0.0448673 -2.04421e-09 -1.82808e-16)
(0.0448673 -3.18853e-09 2.90178e-16)
(0.0448673 -3.48533e-09 1.60452e-16)
(0.0448673 -3.44967e-09 1.2839e-16)
(0.0448673 -2.74215e-09 2.98873e-16)
(0.0448674 -2.09545e-09 -2.02058e-16)
(0.0448673 1.71389e-09 2.35151e-16)
(0.0448674 3.57928e-09 3.33233e-16)
(0.0448673 2.28679e-08 2.92226e-16)
(0.0448672 2.19719e-08 3.64054e-16)
(0.0448669 1.38678e-07 8.6149e-17)
(0.0523568 1.96022e-07 3.32212e-16)
(0.0523562 1.20481e-08 -3.79351e-17)
(0.0523561 -3.29512e-08 -1.10124e-16)
(0.0523561 -2.92666e-08 -1.32309e-16)
(0.0523562 -2.18349e-08 -1.36468e-16)
(0.0523562 -1.25413e-08 -1.67521e-16)
(0.0523562 -6.36119e-09 -1.93416e-16)
(0.0523562 -2.59306e-09 -1.6361e-16)
(0.0523562 -5.32262e-10 -1.52988e-16)
(0.0523562 2.58528e-10 -1.72024e-16)
(0.0523562 1.74368e-10 -5.41584e-17)
(0.0523562 -5.17836e-10 -5.26133e-16)
(0.0523563 -1.61598e-09 -4.45296e-16)
(0.0523563 -2.96525e-09 -9.7645e-16)
(0.0523563 -4.4394e-09 -9.27261e-16)
(0.0523563 -5.93666e-09 -3.53306e-16)
(0.0523564 -7.38815e-09 -7.90568e-16)
(0.0523564 -8.76173e-09 -7.3883e-16)
(0.0523565 -1.00534e-08 -1.10796e-15)
(0.0523565 -1.1274e-08 -1.09398e-15)
(0.0523566 -1.24367e-08 -1.05906e-15)
(0.0523566 -1.35505e-08 -8.63117e-16)
(0.0523567 -1.46183e-08 -7.5195e-16)
(0.0523568 -1.56397e-08 -1.01375e-15)
(0.0523569 -1.66135e-08 -8.80793e-16)
(0.0523569 -1.75392e-08 -8.20588e-16)
(0.052357 -1.84172e-08 -9.42405e-16)
(0.0523571 -1.92476e-08 -8.62197e-16)
(0.0523572 -2.00309e-08 -1.05789e-15)
(0.0523573 -2.07701e-08 -9.37534e-16)
(0.0523574 -2.14703e-08 -9.01148e-16)
(0.0523575 -2.21411e-08 -1.26044e-15)
(0.0523576 -2.27853e-08 -9.95761e-16)
(0.0523577 -2.34097e-08 -1.27459e-15)
(0.0523579 -2.39749e-08 -1.01794e-15)
(0.052358 -2.44808e-08 -1.00781e-15)
(0.0523581 -2.47247e-08 -1.2243e-15)
(0.0523582 -2.48051e-08 -1.086e-15)
(0.0523583 -2.3882e-08 -1.27629e-15)
(0.0523585 -2.28561e-08 -1.09434e-15)
(0.0523586 -1.82325e-08 -1.06022e-15)
(0.0523587 -1.51023e-08 -7.32929e-16)
(0.0523587 -4.76932e-10 -7.14474e-16)
(0.0523587 5.97853e-09 -7.37022e-16)
(0.0523587 3.32912e-08 -7.21649e-16)
(0.0523586 4.75754e-08 -7.53864e-16)
(0.0523584 1.87213e-08 -3.66899e-16)
(0.0523584 2.20411e-09 -3.97229e-16)
(0.0523584 -9.26927e-09 -3.92639e-16)
(0.0523584 -1.52695e-08 -4.45179e-16)
(0.0523585 -2.22509e-08 -5.32802e-16)
(0.0523586 -2.45591e-08 -1.26923e-16)
(0.0523587 -2.42349e-08 -2.25216e-16)
(0.0523588 -2.2845e-08 1.48747e-17)
(0.0523589 -2.11409e-08 -6.12328e-18)
(0.052359 -1.96951e-08 -3.51791e-16)
(0.0523591 -1.87158e-08 2.40068e-17)
(0.0523592 -1.8232e-08 -1.47735e-17)
(0.0523592 -1.81628e-08 3.09721e-16)
(0.0523593 -1.83654e-08 2.35819e-16)
(0.0523594 -1.868e-08 -1.49009e-16)
(0.0523595 -1.8959e-08 2.18565e-16)
(0.0523596 -1.90859e-08 1.42352e-16)
(0.0523597 -1.8983e-08 4.76312e-16)
(0.0523598 -1.86106e-08 4.07555e-16)
(0.0523599 -1.79609e-08 2.18421e-17)
(0.05236 -1.70492e-08 4.34809e-16)
(0.0523601 -1.59058e-08 3.21343e-16)