/*--------------------------------*- C++ -*----------------------------------*\
  =========                 |
  \\      /  F ield         | OpenFOAM: The Open Source CFD Toolbox
   \\    /   O peration     | Website:  https://openfoam.org
    \\  /    A nd           | Version:  7
     \\/     M anipulation  |
\*---------------------------------------------------------------------------*/
FoamFile
{
    version     2.0;
    format      ascii;
    class       volScalarField;
    location    "3500";
    object      k;
}
// * * * * * * * * * * * * * * * * * * * * * * * * * * * * * * * * * * * * * //

dimensions      [0 2 -2 0 0 0 0];

internalField   nonuniform List<scalar> 
4026
(
0.00016673
0.000166729
0.000166729
0.000166729
0.000166728
0.000166728
0.000166728
0.000166728
0.000166728
0.000166728
0.000166728
0.000166728
0.000166729
0.000166729
0.00016673
0.00016673
0.000166731
0.000166731
0.000166732
0.000166732
0.000166733
0.000166734
0.000166734
0.000166735
0.000166736
0.000166736
0.000166737
0.000166738
0.000166738
0.000166739
0.00016674
0.00016674
0.000166741
0.000166741
0.000166742
0.000166742
0.000166743
0.000166743
0.000166744
0.000166744
0.000166745
0.000166745
0.000166746
0.000166746
0.000166747
0.000166733
0.000166733
0.000166732
0.000166732
0.000166732
0.000166731
0.000166731
0.000166731
0.000166731
0.000166731
0.000166731
0.000166731
0.000166731
0.000166731
0.000166731
0.000166732
0.000166134
0.000166134
0.000166133
0.000166133
0.000166133
0.000166133
0.000166133
0.000166133
0.000166133
0.000166133
0.000166133
0.000166134
0.000166134
0.000166134
0.000166135
0.000166135
0.000166136
0.000166136
0.000166137
0.000166138
0.000166138
0.000166139
0.00016614
0.00016614
0.000166141
0.000166142
0.000166142
0.000166143
0.000166144
0.000166144
0.000166145
0.000166145
0.000166146
0.000166146
0.000166147
0.000166147
0.000166148
0.000166148
0.000166149
0.000166149
0.00016615
0.00016615
0.00016615
0.000166151
0.000166151
0.000166137
0.000166137
0.000166136
0.000166136
0.000166136
0.000166136
0.000166135
0.000166135
0.000166135
0.000166135
0.000166135
0.000166135
0.000166135
0.000166136
0.000166136
0.000166136
0.000165455
0.000165455
0.000165454
0.000165454
0.000165454
0.000165454
0.000165454
0.000165454
0.000165455
0.000165455
0.000165455
0.000165455
0.000165456
0.000165456
0.000165457
0.000165457
0.000165458
0.000165458
0.000165459
0.000165459
0.00016546
0.000165461
0.000165461
0.000165462
0.000165463
0.000165463
0.000165464
0.000165465
0.000165465
0.000165466
0.000165466
0.000165467
0.000165467
0.000165468
0.000165468
0.000165469
0.000165469
0.00016547
0.00016547
0.00016547
0.000165471
0.000165471
0.000165471
0.000165472
0.000165472
0.000165458
0.000165457
0.000165457
0.000165457
0.000165456
0.000165456
0.000165456
0.000165456
0.000165456
0.000165456
0.000165456
0.000165456
0.000165456
0.000165456
0.000165456
0.000165457
0.000164696
0.000164695
0.000164695
0.000164695
0.000164695
0.000164695
0.000164696
0.000164696
0.000164696
0.000164696
0.000164697
0.000164697
0.000164697
0.000164698
0.000164698
0.000164699
0.000164699
0.0001647
0.000164701
0.000164701
0.000164702
0.000164702
0.000164703
0.000164704
0.000164704
0.000164705
0.000164706
0.000164706
0.000164707
0.000164707
0.000164708
0.000164708
0.000164709
0.000164709
0.00016471
0.00016471
0.00016471
0.000164711
0.000164711
0.000164712
0.000164712
0.000164712
0.000164713
0.000164713
0.000164713
0.000164699
0.000164698
0.000164697
0.000164697
0.000164697
0.000164697
0.000164697
0.000164697
0.000164697
0.000164697
0.000164697
0.000164697
0.000164697
0.000164697
0.000164697
0.000164698
0.000163859
0.000163859
0.000163859
0.000163859
0.000163859
0.00016386
0.00016386
0.00016386
0.00016386
0.000163861
0.000163861
0.000163862
0.000163862
0.000163863
0.000163863
0.000163864
0.000163864
0.000163865
0.000163865
0.000163866
0.000163866
0.000163867
0.000163868
0.000163868
0.000163869
0.00016387
0.00016387
0.000163871
0.000163871
0.000163872
0.000163872
0.000163873
0.000163873
0.000163874
0.000163874
0.000163874
0.000163875
0.000163875
0.000163875
0.000163876
0.000163876
0.000163876
0.000163877
0.000163877
0.000163877
0.000163863
0.000163862
0.000163861
0.000163861
0.000163861
0.000163861
0.00016386
0.00016386
0.00016386
0.00016386
0.00016386
0.000163861
0.000163861
0.000163861
0.000163861
0.000163861
0.000162949
0.000162949
0.000162949
0.000162949
0.000162949
0.00016295
0.00016295
0.00016295
0.000162951
0.000162951
0.000162951
0.000162952
0.000162952
0.000162953
0.000162953
0.000162954
0.000162955
0.000162955
0.000162956
0.000162956
0.000162957
0.000162958
0.000162958
0.000162959
0.000162959
0.00016296
0.00016296
0.000162961
0.000162961
0.000162962
0.000162962
0.000162963
0.000162963
0.000162964
0.000162964
0.000162964
0.000162965
0.000162965
0.000162965
0.000162966
0.000162966
0.000162966
0.000162966
0.000162967
0.000162967
0.000162952
0.000162951
0.000162951
0.00016295
0.00016295
0.00016295
0.00016295
0.00016295
0.00016295
0.00016295
0.00016295
0.00016295
0.00016295
0.00016295
0.00016295
0.000162951
0.000161967
0.000161966
0.000161967
0.000161967
0.000161967
0.000161968
0.000161968
0.000161969
0.000161969
0.00016197
0.00016197
0.000161971
0.000161971
0.000161972
0.000161972
0.000161973
0.000161973
0.000161974
0.000161974
0.000161975
0.000161976
0.000161976
0.000161977
0.000161977
0.000161978
0.000161978
0.000161979
0.00016198
0.00016198
0.00016198
0.000161981
0.000161981
0.000161982
0.000161982
0.000161982
0.000161983
0.000161983
0.000161983
0.000161984
0.000161984
0.000161984
0.000161984
0.000161985
0.000161985
0.000161985
0.00016197
0.000161969
0.000161969
0.000161968
0.000161968
0.000161968
0.000161968
0.000161968
0.000161968
0.000161968
0.000161968
0.000161968
0.000161968
0.000161968
0.000161968
0.000161969
0.000160915
0.000160915
0.000160915
0.000160916
0.000160916
0.000160917
0.000160917
0.000160918
0.000160918
0.000160919
0.000160919
0.00016092
0.00016092
0.000160921
0.000160922
0.000160922
0.000160923
0.000160923
0.000160924
0.000160924
0.000160925
0.000160926
0.000160926
0.000160927
0.000160927
0.000160928
0.000160928
0.000160929
0.000160929
0.00016093
0.00016093
0.000160931
0.000160931
0.000160931
0.000160932
0.000160932
0.000160932
0.000160932
0.000160933
0.000160933
0.000160933
0.000160933
0.000160933
0.000160933
0.000160934
0.000160919
0.000160918
0.000160917
0.000160917
0.000160917
0.000160917
0.000160917
0.000160917
0.000160917
0.000160917
0.000160917
0.000160917
0.000160917
0.000160917
0.000160917
0.000160918
0.000159797
0.000159797
0.000159797
0.000159798
0.000159798
0.000159799
0.000159799
0.0001598
0.0001598
0.000159801
0.000159801
0.000159802
0.000159803
0.000159803
0.000159804
0.000159804
0.000159805
0.000159806
0.000159806
0.000159807
0.000159807
0.000159808
0.000159809
0.000159809
0.00015981
0.00015981
0.000159811
0.000159811
0.000159811
0.000159812
0.000159812
0.000159813
0.000159813
0.000159813
0.000159814
0.000159814
0.000159814
0.000159814
0.000159815
0.000159815
0.000159815
0.000159815
0.000159815
0.000159815
0.000159816
0.0001598
0.000159799
0.000159799
0.000159799
0.000159798
0.000159798
0.000159798
0.000159798
0.000159798
0.000159798
0.000159798
0.000159798
0.000159798
0.000159799
0.000159799
0.000159799
0.000158614
0.000158613
0.000158614
0.000158614
0.000158615
0.000158616
0.000158616
0.000158617
0.000158617
0.000158618
0.000158619
0.000158619
0.00015862
0.000158621
0.000158621
0.000158622
0.000158622
0.000158623
0.000158624
0.000158624
0.000158625
0.000158625
0.000158626
0.000158626
0.000158627
0.000158627
0.000158628
0.000158628
0.000158629
0.000158629
0.000158629
0.00015863
0.00015863
0.00015863
0.000158631
0.000158631
0.000158631
0.000158631
0.000158632
0.000158632
0.000158632
0.000158632
0.000158632
0.000158632
0.000158633
0.000158617
0.000158616
0.000158616
0.000158615
0.000158615
0.000158615
0.000158615
0.000158615
0.000158615
0.000158615
0.000158615
0.000158615
0.000158615
0.000158615
0.000158616
0.000158616
0.000157368
0.000157367
0.000157368
0.000157369
0.000157369
0.00015737
0.000157371
0.000157371
0.000157372
0.000157373
0.000157373
0.000157374
0.000157375
0.000157375
0.000157376
0.000157376
0.000157377
0.000157378
0.000157378
0.000157379
0.000157379
0.00015738
0.000157381
0.000157381
0.000157382
0.000157382
0.000157382
0.000157383
0.000157383
0.000157384
0.000157384
0.000157384
0.000157385
0.000157385
0.000157385
0.000157385
0.000157386
0.000157386
0.000157386
0.000157386
0.000157386
0.000157386
0.000157386
0.000157386
0.000157387
0.000157371
0.00015737
0.00015737
0.00015737
0.000157369
0.000157369
0.000157369
0.000157369
0.000157369
0.000157369
0.000157369
0.000157369
0.00015737
0.00015737
0.00015737
0.00015737
0.000156061
0.000156061
0.000156062
0.000156062
0.000156063
0.000156064
0.000156064
0.000156065
0.000156066
0.000156067
0.000156067
0.000156068
0.000156069
0.000156069
0.00015607
0.000156071
0.000156071
0.000156072
0.000156072
0.000156073
0.000156074
0.000156074
0.000156075
0.000156075
0.000156076
0.000156076
0.000156076
0.000156077
0.000156077
0.000156078
0.000156078
0.000156078
0.000156079
0.000156079
0.000156079
0.000156079
0.000156079
0.00015608
0.00015608
0.00015608
0.00015608
0.00015608
0.00015608
0.00015608
0.00015608
0.000156065
0.000156064
0.000156063
0.000156063
0.000156063
0.000156063
0.000156063
0.000156063
0.000156063
0.000156063
0.000156063
0.000156063
0.000156063
0.000156063
0.000156063
0.000156064
0.000154696
0.000154696
0.000154697
0.000154698
0.000154698
0.000154699
0.0001547
0.000154701
0.000154701
0.000154702
0.000154703
0.000154704
0.000154704
0.000154705
0.000154706
0.000154706
0.000154707
0.000154707
0.000154708
0.000154709
0.000154709
0.00015471
0.00015471
0.000154711
0.000154711
0.000154712
0.000154712
0.000154712
0.000154713
0.000154713
0.000154714
0.000154714
0.000154714
0.000154714
0.000154714
0.000154715
0.000154715
0.000154715
0.000154715
0.000154715
0.000154715
0.000154715
0.000154715
0.000154715
0.000154716
0.0001547
0.000154699
0.000154699
0.000154699
0.000154699
0.000154699
0.000154699
0.000154699
0.000154699
0.000154699
0.000154699
0.000154699
0.000154699
0.000154699
0.000154699
0.000154699
0.000153276
0.000153276
0.000153276
0.000153277
0.000153278
0.000153279
0.000153279
0.00015328
0.000153281
0.000153282
0.000153282
0.000153283
0.000153284
0.000153284
0.000153285
0.000153286
0.000153287
0.000153287
0.000153288
0.000153288
0.000153289
0.000153289
0.00015329
0.00015329
0.000153291
0.000153291
0.000153292
0.000153292
0.000153292
0.000153293
0.000153293
0.000153293
0.000153294
0.000153294
0.000153294
0.000153294
0.000153294
0.000153294
0.000153294
0.000153294
0.000153294
0.000153295
0.000153295
0.000153294
0.000153295
0.00015328
0.000153279
0.000153278
0.000153278
0.000153278
0.000153278
0.000153278
0.000153278
0.000153278
0.000153278
0.000153278
0.000153278
0.000153278
0.000153278
0.000153278
0.000153279
0.000151801
0.000151801
0.000151802
0.000151803
0.000151803
0.000151804
0.000151805
0.000151806
0.000151807
0.000151807
0.000151808
0.000151809
0.00015181
0.00015181
0.000151811
0.000151812
0.000151812
0.000151813
0.000151814
0.000151814
0.000151815
0.000151815
0.000151816
0.000151816
0.000151817
0.000151817
0.000151818
0.000151818
0.000151818
0.000151819
0.000151819
0.000151819
0.000151819
0.000151819
0.00015182
0.00015182
0.00015182
0.00015182
0.00015182
0.00015182
0.00015182
0.00015182
0.00015182
0.00015182
0.00015182
0.000151805
0.000151804
0.000151804
0.000151804
0.000151804
0.000151804
0.000151804
0.000151804
0.000151804
0.000151804
0.000151804
0.000151804
0.000151804
0.000151804
0.000151804
0.000151805
0.000150276
0.000150276
0.000150276
0.000150277
0.000150278
0.000150279
0.00015028
0.000150281
0.000150281
0.000150282
0.000150283
0.000150284
0.000150284
0.000150285
0.000150286
0.000150286
0.000150287
0.000150288
0.000150288
0.000150289
0.00015029
0.00015029
0.000150291
0.000150291
0.000150291
0.000150292
0.000150292
0.000150293
0.000150293
0.000150293
0.000150293
0.000150294
0.000150294
0.000150294
0.000150294
0.000150294
0.000150294
0.000150294
0.000150295
0.000150295
0.000150295
0.000150295
0.000150294
0.000150294
0.000150295
0.00015028
0.000150279
0.000150279
0.000150278
0.000150278
0.000150278
0.000150278
0.000150279
0.000150279
0.000150279
0.000150279
0.000150279
0.000150279
0.000150279
0.000150279
0.000150279
0.000148702
0.000148702
0.000148702
0.000148703
0.000148704
0.000148705
0.000148706
0.000148707
0.000148707
0.000148708
0.000148709
0.00014871
0.00014871
0.000148711
0.000148712
0.000148713
0.000148713
0.000148714
0.000148714
0.000148715
0.000148716
0.000148716
0.000148717
0.000148717
0.000148717
0.000148718
0.000148718
0.000148719
0.000148719
0.000148719
0.000148719
0.00014872
0.00014872
0.00014872
0.00014872
0.00014872
0.00014872
0.00014872
0.00014872
0.00014872
0.00014872
0.00014872
0.00014872
0.00014872
0.00014872
0.000148706
0.000148705
0.000148705
0.000148704
0.000148705
0.000148705
0.000148705
0.000148705
0.000148705
0.000148705
0.000148705
0.000148705
0.000148705
0.000148705
0.000148705
0.000148705
0.000147082
0.000147082
0.000147082
0.000147083
0.000147084
0.000147085
0.000147086
0.000147087
0.000147087
0.000147088
0.000147089
0.00014709
0.000147091
0.000147091
0.000147092
0.000147093
0.000147093
0.000147094
0.000147095
0.000147095
0.000147096
0.000147096
0.000147097
0.000147097
0.000147098
0.000147098
0.000147098
0.000147099
0.000147099
0.000147099
0.000147099
0.0001471
0.0001471
0.0001471
0.0001471
0.0001471
0.0001471
0.0001471
0.0001471
0.0001471
0.0001471
0.0001471
0.0001471
0.0001471
0.0001471
0.000147086
0.000147085
0.000147085
0.000147085
0.000147085
0.000147085
0.000147085
0.000147085
0.000147085
0.000147085
0.000147085
0.000147085
0.000147085
0.000147085
0.000147085
0.000147086
0.000145419
0.000145419
0.000145419
0.00014542
0.000145421
0.000145422
0.000145423
0.000145424
0.000145425
0.000145425
0.000145426
0.000145427
0.000145428
0.000145428
0.000145429
0.00014543
0.00014543
0.000145431
0.000145432
0.000145432
0.000145433
0.000145433
0.000145434
0.000145434
0.000145435
0.000145435
0.000145435
0.000145436
0.000145436
0.000145436
0.000145436
0.000145437
0.000145437
0.000145437
0.000145437
0.000145437
0.000145437
0.000145437
0.000145437
0.000145437
0.000145437
0.000145437
0.000145437
0.000145437
0.000145437
0.000145423
0.000145422
0.000145422
0.000145422
0.000145422
0.000145422
0.000145422
0.000145422
0.000145422
0.000145422
0.000145422
0.000145422
0.000145422
0.000145422
0.000145422
0.000145423
0.000143716
0.000143716
0.000143716
0.000143717
0.000143718
0.000143719
0.00014372
0.000143721
0.000143722
0.000143723
0.000143723
0.000143724
0.000143725
0.000143726
0.000143726
0.000143727
0.000143728
0.000143728
0.000143729
0.000143729
0.00014373
0.00014373
0.000143731
0.000143731
0.000143732
0.000143732
0.000143732
0.000143733
0.000143733
0.000143733
0.000143733
0.000143734
0.000143734
0.000143734
0.000143734
0.000143734
0.000143734
0.000143734
0.000143734
0.000143734
0.000143734
0.000143734
0.000143734
0.000143734
0.000143734
0.00014372
0.000143719
0.000143719
0.000143719
0.000143719
0.000143719
0.000143719
0.000143719
0.00014372
0.00014372
0.00014372
0.00014372
0.00014372
0.00014372
0.00014372
0.00014372
0.000141976
0.000141976
0.000141977
0.000141978
0.000141978
0.000141979
0.00014198
0.000141981
0.000141982
0.000141983
0.000141984
0.000141984
0.000141985
0.000141986
0.000141986
0.000141987
0.000141988
0.000141988
0.000141989
0.00014199
0.00014199
0.000141991
0.000141991
0.000141992
0.000141992
0.000141992
0.000141993
0.000141993
0.000141993
0.000141993
0.000141994
0.000141994
0.000141994
0.000141994
0.000141994
0.000141994
0.000141994
0.000141994
0.000141994
0.000141994
0.000141994
0.000141994
0.000141994
0.000141994
0.000141994
0.000141981
0.00014198
0.000141979
0.000141979
0.00014198
0.00014198
0.00014198
0.00014198
0.00014198
0.00014198
0.00014198
0.00014198
0.00014198
0.00014198
0.00014198
0.000141981
0.000140203
0.000140203
0.000140203
0.000140204
0.000140205
0.000140206
0.000140207
0.000140208
0.000140209
0.000140209
0.00014021
0.000140211
0.000140212
0.000140212
0.000140213
0.000140214
0.000140214
0.000140215
0.000140216
0.000140216
0.000140217
0.000140217
0.000140218
0.000140218
0.000140218
0.000140219
0.000140219
0.000140219
0.00014022
0.00014022
0.00014022
0.00014022
0.00014022
0.000140221
0.000140221
0.000140221
0.000140221
0.000140221
0.000140221
0.000140221
0.000140221
0.000140221
0.000140221
0.00014022
0.000140221
0.000140207
0.000140206
0.000140206
0.000140206
0.000140206
0.000140206
0.000140207
0.000140207
0.000140207
0.000140207
0.000140207
0.000140207
0.000140207
0.000140207
0.000140207
0.000140208
0.0001384
0.000138399
0.0001384
0.000138401
0.000138402
0.000138402
0.000138403
0.000138404
0.000138405
0.000138406
0.000138407
0.000138407
0.000138408
0.000138409
0.000138409
0.00013841
0.000138411
0.000138411
0.000138412
0.000138412
0.000138413
0.000138413
0.000138414
0.000138414
0.000138415
0.000138415
0.000138415
0.000138416
0.000138416
0.000138416
0.000138416
0.000138417
0.000138417
0.000138417
0.000138417
0.000138417
0.000138417
0.000138417
0.000138417
0.000138417
0.000138417
0.000138417
0.000138417
0.000138417
0.000138417
0.000138404
0.000138403
0.000138403
0.000138403
0.000138403
0.000138403
0.000138403
0.000138403
0.000138404
0.000138404
0.000138404
0.000138404
0.000138404
0.000138404
0.000138404
0.000138404
0.000136569
0.000136569
0.000136569
0.00013657
0.000136571
0.000136572
0.000136573
0.000136574
0.000136575
0.000136575
0.000136576
0.000136577
0.000136578
0.000136578
0.000136579
0.00013658
0.00013658
0.000136581
0.000136581
0.000136582
0.000136583
0.000136583
0.000136584
0.000136584
0.000136584
0.000136585
0.000136585
0.000136585
0.000136585
0.000136586
0.000136586
0.000136586
0.000136586
0.000136586
0.000136586
0.000136587
0.000136587
0.000136587
0.000136587
0.000136587
0.000136587
0.000136586
0.000136586
0.000136586
0.000136587
0.000136574
0.000136573
0.000136572
0.000136573
0.000136573
0.000136573
0.000136573
0.000136573
0.000136573
0.000136574
0.000136574
0.000136574
0.000136574
0.000136574
0.000136574
0.000136574
0.000134716
0.000134715
0.000134716
0.000134717
0.000134718
0.000134719
0.00013472
0.00013472
0.000134721
0.000134722
0.000134723
0.000134723
0.000134724
0.000134725
0.000134725
0.000134726
0.000134727
0.000134727
0.000134728
0.000134728
0.000134729
0.000134729
0.00013473
0.00013473
0.000134731
0.000134731
0.000134731
0.000134732
0.000134732
0.000134732
0.000134732
0.000134732
0.000134733
0.000134733
0.000134733
0.000134733
0.000134733
0.000134733
0.000134733
0.000134733
0.000134733
0.000134733
0.000134733
0.000134733
0.000134733
0.000134721
0.000134719
0.000134719
0.000134719
0.00013472
0.00013472
0.00013472
0.00013472
0.00013472
0.00013472
0.000134721
0.000134721
0.000134721
0.000134721
0.000134721
0.000134721
0.000132843
0.000132843
0.000132843
0.000132844
0.000132845
0.000132846
0.000132847
0.000132847
0.000132848
0.000132849
0.00013285
0.00013285
0.000132851
0.000132852
0.000132852
0.000132853
0.000132854
0.000132854
0.000132855
0.000132855
0.000132856
0.000132856
0.000132857
0.000132857
0.000132858
0.000132858
0.000132858
0.000132859
0.000132859
0.000132859
0.000132859
0.000132859
0.00013286
0.00013286
0.00013286
0.00013286
0.00013286
0.00013286
0.00013286
0.00013286
0.00013286
0.00013286
0.00013286
0.00013286
0.00013286
0.000132848
0.000132847
0.000132846
0.000132847
0.000132847
0.000132847
0.000132847
0.000132847
0.000132848
0.000132848
0.000132848
0.000132848
0.000132848
0.000132848
0.000132848
0.000132849
0.000130955
0.000130954
0.000130955
0.000130955
0.000130956
0.000130957
0.000130958
0.000130959
0.00013096
0.00013096
0.000130961
0.000130962
0.000130962
0.000130963
0.000130964
0.000130964
0.000130965
0.000130965
0.000130966
0.000130967
0.000130967
0.000130968
0.000130968
0.000130968
0.000130969
0.000130969
0.000130969
0.00013097
0.00013097
0.00013097
0.00013097
0.00013097
0.000130971
0.000130971
0.000130971
0.000130971
0.000130971
0.000130971
0.000130971
0.000130971
0.000130971
0.000130971
0.000130971
0.000130971
0.000130971
0.000130959
0.000130958
0.000130958
0.000130958
0.000130958
0.000130959
0.000130959
0.000130959
0.000130959
0.000130959
0.000130959
0.00013096
0.00013096
0.00013096
0.00013096
0.00013096
0.000129054
0.000129053
0.000129054
0.000129055
0.000129055
0.000129056
0.000129057
0.000129058
0.000129059
0.000129059
0.00012906
0.000129061
0.000129062
0.000129062
0.000129063
0.000129063
0.000129064
0.000129065
0.000129065
0.000129066
0.000129066
0.000129067
0.000129067
0.000129068
0.000129068
0.000129068
0.000129069
0.000129069
0.000129069
0.000129069
0.000129069
0.00012907
0.00012907
0.00012907
0.00012907
0.00012907
0.00012907
0.00012907
0.00012907
0.00012907
0.00012907
0.00012907
0.00012907
0.00012907
0.00012907
0.000129059
0.000129057
0.000129057
0.000129058
0.000129058
0.000129058
0.000129058
0.000129058
0.000129059
0.000129059
0.000129059
0.000129059
0.000129059
0.000129059
0.000129059
0.00012906
0.000127145
0.000127144
0.000127145
0.000127146
0.000127146
0.000127147
0.000127148
0.000127149
0.00012715
0.00012715
0.000127151
0.000127152
0.000127152
0.000127153
0.000127154
0.000127154
0.000127155
0.000127155
0.000127156
0.000127157
0.000127157
0.000127158
0.000127158
0.000127158
0.000127159
0.000127159
0.000127159
0.00012716
0.00012716
0.00012716
0.00012716
0.00012716
0.000127161
0.000127161
0.000127161
0.000127161
0.000127161
0.000127161
0.000127161
0.000127161
0.000127161
0.000127161
0.000127161
0.000127161
0.000127161
0.00012715
0.000127149
0.000127149
0.000127149
0.000127149
0.000127149
0.000127149
0.00012715
0.00012715
0.00012715
0.00012715
0.00012715
0.000127151
0.000127151
0.000127151
0.000127151
0.000125232
0.000125231
0.000125231
0.000125232
0.000125233
0.000125234
0.000125235
0.000125235
0.000125236
0.000125237
0.000125238
0.000125238
0.000125239
0.000125239
0.00012524
0.000125241
0.000125241
0.000125242
0.000125242
0.000125243
0.000125243
0.000125244
0.000125244
0.000125245
0.000125245
0.000125245
0.000125246
0.000125246
0.000125246
0.000125246
0.000125247
0.000125247
0.000125247
0.000125247
0.000125247
0.000125247
0.000125247
0.000125248
0.000125248
0.000125248
0.000125248
0.000125248
0.000125248
0.000125247
0.000125248
0.000125237
0.000125235
0.000125235
0.000125235
0.000125236
0.000125236
0.000125236
0.000125236
0.000125237
0.000125237
0.000125237
0.000125237
0.000125237
0.000125237
0.000125237
0.000125238
0.000123317
0.000123317
0.000123317
0.000123318
0.000123319
0.000123319
0.00012332
0.000123321
0.000123322
0.000123322
0.000123323
0.000123324
0.000123324
0.000123325
0.000123326
0.000123326
0.000123327
0.000123327
0.000123328
0.000123328
0.000123329
0.000123329
0.00012333
0.00012333
0.000123331
0.000123331
0.000123331
0.000123332
0.000123332
0.000123332
0.000123332
0.000123332
0.000123333
0.000123333
0.000123333
0.000123333
0.000123333
0.000123333
0.000123333
0.000123333
0.000123333
0.000123333
0.000123333
0.000123333
0.000123333
0.000123323
0.000123321
0.000123321
0.000123321
0.000123322
0.000123322
0.000123322
0.000123322
0.000123323
0.000123323
0.000123323
0.000123323
0.000123323
0.000123323
0.000123324
0.000123324
0.000121406
0.000121405
0.000121406
0.000121406
0.000121407
0.000121408
0.000121409
0.00012141
0.00012141
0.000121411
0.000121412
0.000121412
0.000121413
0.000121414
0.000121414
0.000121415
0.000121415
0.000121416
0.000121416
0.000121417
0.000121417
0.000121418
0.000121418
0.000121419
0.000121419
0.000121419
0.00012142
0.00012142
0.00012142
0.000121421
0.000121421
0.000121421
0.000121421
0.000121421
0.000121421
0.000121422
0.000121422
0.000121422
0.000121422
0.000121422
0.000121422
0.000121422
0.000121422
0.000121422
0.000121422
0.000121412
0.00012141
0.00012141
0.00012141
0.00012141
0.000121411
0.000121411
0.000121411
0.000121412
0.000121412
0.000121412
0.000121412
0.000121412
0.000121412
0.000121412
0.000121413
0.000119501
0.0001195
0.000119501
0.000119502
0.000119502
0.000119503
0.000119504
0.000119505
0.000119505
0.000119506
0.000119507
0.000119507
0.000119508
0.000119509
0.000119509
0.00011951
0.00011951
0.000119511
0.000119511
0.000119512
0.000119512
0.000119513
0.000119513
0.000119514
0.000119514
0.000119514
0.000119515
0.000119515
0.000119515
0.000119516
0.000119516
0.000119516
0.000119516
0.000119516
0.000119517
0.000119517
0.000119517
0.000119517
0.000119517
0.000119517
0.000119517
0.000119517
0.000119517
0.000119517
0.000119517
0.000119507
0.000119505
0.000119505
0.000119506
0.000119506
0.000119506
0.000119506
0.000119507
0.000119507
0.000119507
0.000119507
0.000119508
0.000119508
0.000119508
0.000119508
0.000119508
0.000117607
0.000117606
0.000117606
0.000117607
0.000117608
0.000117608
0.000117609
0.00011761
0.000117611
0.000117611
0.000117612
0.000117613
0.000117613
0.000117614
0.000117614
0.000117615
0.000117615
0.000117616
0.000117617
0.000117617
0.000117618
0.000117618
0.000117618
0.000117619
0.000117619
0.00011762
0.00011762
0.00011762
0.00011762
0.000117621
0.000117621
0.000117621
0.000117621
0.000117622
0.000117622
0.000117622
0.000117622
0.000117622
0.000117622
0.000117622
0.000117622
0.000117622
0.000117622
0.000117622
0.000117623
0.000117613
0.000117611
0.000117611
0.000117611
0.000117611
0.000117612
0.000117612
0.000117612
0.000117612
0.000117613
0.000117613
0.000117613
0.000117613
0.000117613
0.000117614
0.000117614
0.000115726
0.000115725
0.000115725
0.000115726
0.000115726
0.000115727
0.000115728
0.000115729
0.000115729
0.00011573
0.000115731
0.000115731
0.000115732
0.000115732
0.000115733
0.000115734
0.000115734
0.000115735
0.000115735
0.000115736
0.000115736
0.000115737
0.000115737
0.000115738
0.000115738
0.000115738
0.000115739
0.000115739
0.000115739
0.000115739
0.00011574
0.00011574
0.00011574
0.00011574
0.00011574
0.000115741
0.000115741
0.000115741
0.000115741
0.000115741
0.000115741
0.000115741
0.000115741
0.000115741
0.000115741
0.000115732
0.00011573
0.00011573
0.00011573
0.00011573
0.000115731
0.000115731
0.000115731
0.000115732
0.000115732
0.000115732
0.000115732
0.000115732
0.000115733
0.000115733
0.000115733
0.000113861
0.00011386
0.000113861
0.000113861
0.000113862
0.000113863
0.000113864
0.000113864
0.000113865
0.000113866
0.000113866
0.000113867
0.000113867
0.000113868
0.000113869
0.000113869
0.00011387
0.00011387
0.000113871
0.000113871
0.000113872
0.000113872
0.000113873
0.000113873
0.000113873
0.000113874
0.000113874
0.000113874
0.000113875
0.000113875
0.000113875
0.000113876
0.000113876
0.000113876
0.000113876
0.000113876
0.000113876
0.000113877
0.000113877
0.000113877
0.000113877
0.000113877
0.000113877
0.000113877
0.000113877
0.000113868
0.000113866
0.000113866
0.000113866
0.000113866
0.000113867
0.000113867
0.000113867
0.000113867
0.000113868
0.000113868
0.000113868
0.000113868
0.000113869
0.000113869
0.000113869
0.000112017
0.000112016
0.000112016
0.000112017
0.000112018
0.000112019
0.000112019
0.00011202
0.000112021
0.000112021
0.000112022
0.000112023
0.000112023
0.000112024
0.000112024
0.000112025
0.000112025
0.000112026
0.000112026
0.000112027
0.000112027
0.000112028
0.000112028
0.000112029
0.000112029
0.00011203
0.00011203
0.00011203
0.000112031
0.000112031
0.000112031
0.000112031
0.000112032
0.000112032
0.000112032
0.000112032
0.000112032
0.000112032
0.000112033
0.000112033
0.000112033
0.000112033
0.000112033
0.000112033
0.000112033
0.000112024
0.000112022
0.000112022
0.000112022
0.000112022
0.000112023
0.000112023
0.000112023
0.000112024
0.000112024
0.000112024
0.000112024
0.000112024
0.000112025
0.000112025
0.000112025
0.000110196
0.000110195
0.000110195
0.000110196
0.000110197
0.000110198
0.000110198
0.000110199
0.0001102
0.0001102
0.000110201
0.000110202
0.000110202
0.000110203
0.000110203
0.000110204
0.000110204
0.000110205
0.000110205
0.000110206
0.000110206
0.000110207
0.000110207
0.000110208
0.000110208
0.000110209
0.000110209
0.000110209
0.00011021
0.00011021
0.00011021
0.00011021
0.000110211
0.000110211
0.000110211
0.000110211
0.000110211
0.000110212
0.000110212
0.000110212
0.000110212
0.000110212
0.000110212
0.000110212
0.000110212
0.000110203
0.000110201
0.000110201
0.000110201
0.000110202
0.000110202
0.000110202
0.000110203
0.000110203
0.000110203
0.000110203
0.000110204
0.000110204
0.000110204
0.000110204
0.000110205
0.000108402
0.0001084
0.000108401
0.000108401
0.000108402
0.000108403
0.000108404
0.000108404
0.000108405
0.000108406
0.000108406
0.000108407
0.000108407
0.000108408
0.000108408
0.000108409
0.00010841
0.00010841
0.000108411
0.000108411
0.000108412
0.000108412
0.000108413
0.000108413
0.000108413
0.000108414
0.000108414
0.000108415
0.000108415
0.000108415
0.000108415
0.000108416
0.000108416
0.000108416
0.000108416
0.000108417
0.000108417
0.000108417
0.000108417
0.000108417
0.000108417
0.000108418
0.000108418
0.000108418
0.000108418
0.000108409
0.000108407
0.000108407
0.000108407
0.000108407
0.000108408
0.000108408
0.000108408
0.000108408
0.000108409
0.000108409
0.000108409
0.000108409
0.00010841
0.00010841
0.00010841
0.000106636
0.000106635
0.000106635
0.000106636
0.000106637
0.000106637
0.000106638
0.000106639
0.000106639
0.00010664
0.000106641
0.000106641
0.000106642
0.000106642
0.000106643
0.000106643
0.000106644
0.000106644
0.000106645
0.000106646
0.000106646
0.000106646
0.000106647
0.000106647
0.000106648
0.000106648
0.000106649
0.000106649
0.000106649
0.00010665
0.00010665
0.00010665
0.00010665
0.000106651
0.000106651
0.000106651
0.000106651
0.000106652
0.000106652
0.000106652
0.000106652
0.000106652
0.000106652
0.000106652
0.000106652
0.000106643
0.000106642
0.000106641
0.000106642
0.000106642
0.000106642
0.000106643
0.000106643
0.000106643
0.000106644
0.000106644
0.000106644
0.000106644
0.000106644
0.000106645
0.000106645
0.000104903
0.000104901
0.000104902
0.000104902
0.000104903
0.000104904
0.000104904
0.000104905
0.000104906
0.000104906
0.000104907
0.000104907
0.000104908
0.000104909
0.000104909
0.00010491
0.00010491
0.000104911
0.000104911
0.000104912
0.000104912
0.000104913
0.000104913
0.000104914
0.000104914
0.000104915
0.000104915
0.000104915
0.000104916
0.000104916