/*--------------------------------*- C++ -*----------------------------------*\
  =========                 |
  \\      /  F ield         | OpenFOAM: The Open Source CFD Toolbox
   \\    /   O peration     | Website:  https://openfoam.org
    \\  /    A nd           | Version:  7
     \\/     M anipulation  |
\*---------------------------------------------------------------------------*/
FoamFile
{
    version     2.0;
    format      ascii;
    class       surfaceScalarField;
    location    "3500";
    object      phi;
}
// * * * * * * * * * * * * * * * * * * * * * * * * * * * * * * * * * * * * * //

dimensions      [0 3 -1 0 0 0 0];

internalField   nonuniform List<scalar> 
7859
(
0.000132722
1.04973e-09
0.000132722
1.37877e-09
0.000132722
1.61664e-09
0.000132722
1.73112e-09
0.000132722
1.74703e-09
0.000132722
1.69041e-09
0.000132722
1.58282e-09
0.000132722
1.44081e-09
0.000132722
1.27649e-09
0.000132722
1.099e-09
0.000132722
9.15246e-10
0.000132723
7.30273e-10
0.000132723
5.47653e-10
0.000132723
3.69974e-10
0.000132723
1.99323e-10
0.000132723
3.74744e-11
0.000132723
-1.14209e-10
0.000132723
-2.54943e-10
0.000132723
-3.84528e-10
0.000132723
-5.03191e-10
0.000132723
-6.11374e-10
0.000132723
-7.09602e-10
0.000132723
-7.98459e-10
0.000132723
-8.78601e-10
0.000132723
-9.50761e-10
0.000132723
-1.01571e-09
0.000132723
-1.07423e-09
0.000132723
-1.12707e-09
0.000132723
-1.1749e-09
0.000132723
-1.21839e-09
0.000132723
-1.25812e-09
0.000132723
-1.29465e-09
0.000132723
-1.32846e-09
0.000132723
-1.35995e-09
0.000132723
-1.38934e-09
0.000132723
-1.41675e-09
0.000132723
-1.44168e-09
0.000132723
-1.46392e-09
0.000132723
-1.48056e-09
0.000132723
-1.49203e-09
0.000132723
-1.48627e-09
0.000132723
-1.47209e-09
0.000132723
-1.40204e-09
0.000132723
-1.31383e-09
-1.13841e-09
0.000132723
-1.18868e-10
0.000132723
3.20721e-10
0.000132723
5.25911e-10
0.000132723
5.87927e-10
0.000132723
5.66324e-10
0.000132722
4.98608e-10
0.000132722
4.0882e-10
0.000132722
3.12476e-10
0.000132722
2.16313e-10
0.000132722
1.33476e-10
0.000132722
6.06042e-11
0.000132722
2.94505e-11
0.000132722
9.78875e-12
0.000132722
1.00703e-10
0.000132722
2.26896e-10
5.54201e-10
0.000136996
1.05712e-09
0.000136996
1.38008e-09
0.000136996
1.60582e-09
0.000136996
1.70899e-09
0.000136996
1.71688e-09
0.000136996
1.65514e-09
0.000136996
1.54443e-09
0.000136996
1.40063e-09
0.000136996
1.23538e-09
0.000136996
1.05758e-09
0.000136996
8.74003e-10
0.000136996
6.89579e-10
0.000136996
5.07764e-10
0.000136996
3.31049e-10
0.000136996
1.61448e-10
0.000136996
6.88963e-13
0.000136996
-1.49894e-10
0.000136996
-2.89528e-10
0.000136996
-4.18011e-10
0.000136996
-5.35558e-10
0.000136996
-6.42593e-10
0.000136996
-7.39627e-10
0.000136996
-8.27233e-10
0.000136996
-9.06062e-10
0.000136997
-9.76848e-10
0.000136997
-1.04037e-09
0.000136997
-1.09742e-09
0.000136997
-1.14875e-09
0.000136997
-1.19508e-09
0.000136997
-1.23706e-09
0.000136997
-1.27532e-09
0.000136997
-1.31041e-09
0.000136997
-1.34284e-09
0.000136997
-1.37302e-09
0.000136997
-1.40118e-09
0.000136997
-1.4275e-09
0.000136997
-1.45147e-09
0.000136997
-1.47293e-09
0.000136997
-1.48901e-09
0.000136997
-1.50014e-09
0.000136997
-1.49415e-09
0.000136997
-1.48051e-09
0.000136997
-1.40805e-09
0.000136997
-1.32479e-09
-1.12143e-09
0.000136996
-1.06842e-11
0.000136996
4.1479e-10
0.000136996
6.08155e-10
0.000136996
6.60254e-10
0.000136996
6.30209e-10
0.000136996
5.55369e-10
0.000136996
4.59335e-10
0.000136996
3.57243e-10
0.000136996
2.5564e-10
0.000136996
1.67414e-10
0.000136996
8.95183e-11
0.000136996
5.28651e-11
0.000136996
2.85612e-11
0.000136996
1.13862e-10
0.000136996
2.29734e-10
5.56456e-10
0.000141363
1.06387e-09
0.000141363
1.37785e-09
0.000141363
1.59175e-09
0.000141363
1.68367e-09
0.000141363
1.68332e-09
0.000141363
1.61622e-09
0.000141363
1.50231e-09
0.000141363
1.35674e-09
0.000141363
1.19063e-09
0.000141363
1.01261e-09
0.000141363
8.2929e-10
0.000141363
6.45519e-10
0.000141363
4.64655e-10
0.000141363
2.89099e-10
0.000141363
1.20783e-10
0.000141363
-3.86246e-11
0.000141364
-1.87832e-10
0.000141364
-3.26088e-10
0.000141364
-4.53193e-10
0.000141364
-5.69353e-10
0.000141364
-6.74975e-10
0.000141364
-7.70559e-10
0.000141364
-8.56668e-10
0.000141364
-9.3395e-10
0.000141364
-1.00314e-09
0.000141364
-1.06502e-09
0.000141364
-1.12039e-09
0.000141364
-1.17003e-09
0.000141364
-1.21465e-09
0.000141364
-1.25495e-09
0.000141364
-1.29154e-09
0.000141364
-1.32501e-09
0.000141364
-1.35587e-09
0.000141364
-1.38457e-09
0.000141364
-1.41135e-09
0.000141364
-1.43641e-09
0.000141364
-1.45929e-09
0.000141364
-1.47984e-09
0.000141364
-1.49526e-09
0.000141364
-1.50597e-09
0.000141364
-1.49979e-09
0.000141364
-1.48664e-09
0.000141364
-1.41234e-09
0.000141364
-1.33404e-09
-1.10495e-09
0.000141364
9.61919e-11
0.000141364
5.07627e-10
0.000141363
6.91071e-10
0.000141363
7.33829e-10
0.000141363
6.95429e-10
0.000141363
6.13478e-10
0.000141363
5.11232e-10
0.000141363
4.03437e-10
0.000141363
2.96436e-10
0.000141363
2.02802e-10
0.000141363
1.19823e-10
0.000141363
7.74506e-11
0.000141363
4.82179e-11
0.000141363
1.27231e-10
0.000141363
2.3138e-10
5.5891e-10
0.000145827
1.0704e-09
0.000145827
1.3734e-09
0.000145827
1.57457e-09
0.000145827
1.65509e-09
0.000145827
1.64636e-09
0.000145827
1.57375e-09
0.000145827
1.45654e-09
0.000145827
1.30921e-09
0.000145827
1.14234e-09
0.000145827
9.64206e-10
0.000145827
7.81274e-10
0.000145827
5.98287e-10
0.000145827
4.18525e-10
0.000145827
2.44306e-10
0.000145827
7.7487e-11
0.000145827
-8.03322e-11
0.000145827
-2.2791e-10
0.000145827
-3.64522e-10
0.000145827
-4.89981e-10
0.000145827
-6.04485e-10
0.000145827
-7.08433e-10
0.000145827
-8.02313e-10
0.000145827
-8.86683e-10
0.000145827
-9.62188e-10
0.000145827
-1.02956e-09
0.000145828
-1.08959e-09
0.000145828
-1.14309e-09
0.000145828
-1.19084e-09
0.000145828
-1.23357e-09
0.000145828
-1.27199e-09
0.000145828
-1.30673e-09
0.000145828
-1.33841e-09
0.000145828
-1.36754e-09
0.000145828
-1.39459e-09
0.000145828
-1.41983e-09
0.000145828
-1.44349e-09
0.000145828
-1.46515e-09
0.000145828
-1.48466e-09
0.000145828
-1.49934e-09
0.000145828
-1.50956e-09
0.000145828
-1.50325e-09
0.000145828
-1.49055e-09
0.000145828
-1.41508e-09
0.000145828
-1.34196e-09
-1.08995e-09
0.000145827
2.0009e-10
0.000145827
5.97868e-10
0.000145827
7.73067e-10
0.000145827
8.07605e-10
0.000145827
7.61333e-10
0.000145827
6.72453e-10
0.000145827
5.64091e-10
0.000145827
4.50682e-10
0.000145827
3.38375e-10
0.000145827
2.39375e-10
0.000145827
1.51303e-10
0.000145827
1.03033e-10
0.000145827
6.85954e-11
0.000145827
1.40675e-10
0.000145827
2.31646e-10
5.6073e-10
0.000150389
1.07661e-09
0.000150389
1.36752e-09
0.000150389
1.55471e-09
0.00015039
1.62336e-09
0.00015039
1.60608e-09
0.00015039
1.52782e-09
0.00015039
1.40722e-09
0.00015039
1.25813e-09
0.00015039
1.09057e-09
0.00015039
9.12476e-10
0.00015039
7.30089e-10
0.00015039
5.48045e-10
0.00015039
3.69547e-10
0.00015039
1.96842e-10
0.00015039
3.17191e-11
0.00015039
-1.24291e-10
0.00015039
-2.7e-10
0.00015039
-4.04718e-10
0.00015039
-5.28271e-10
0.00015039
-6.40859e-10
0.00015039
-7.42876e-10
0.00015039
-8.34805e-10
0.00015039
-9.17198e-10
0.00015039
-9.907e-10
0.00015039
-1.05604e-09
0.00015039
-1.11402e-09
0.00015039
-1.16545e-09
0.00015039
-1.21111e-09
0.00015039
-1.25177e-09
0.000150391
-1.28814e-09
0.000150391
-1.32087e-09
0.000150391
-1.35058e-09
0.000150391
-1.37782e-09
0.000150391
-1.40307e-09
0.000150391
-1.42663e-09
0.000150391
-1.44874e-09
0.000150391
-1.46905e-09
0.000150391
-1.48742e-09
0.000150391
-1.50129e-09
0.000150391
-1.51095e-09
0.000150391
-1.5046e-09
0.000150391
-1.49234e-09
0.000150391
-1.4164e-09
0.000150391
-1.34895e-09
-1.07647e-09
0.00015039
3.00789e-10
0.00015039
6.84593e-10
0.00015039
8.52419e-10
0.00015039
8.79996e-10
0.00015039
8.26751e-10
0.00015039
7.31433e-10
0.00015039
6.17232e-10
0.00015039
4.98406e-10
0.00015039
3.80966e-10
0.00015039
2.76715e-10
0.00015039
1.83607e-10
0.00015039
1.29317e-10
0.000150389
8.94282e-11
0.000150389
1.53959e-10
0.000150389
2.30348e-10
5.61255e-10
0.000155054
1.08217e-09
0.000155054
1.36063e-09
0.000155054
1.53262e-09
0.000155054
1.5887e-09
0.000155054
1.56256e-09
0.000155054
1.47851e-09
0.000155055
1.35445e-09
0.000155055
1.20359e-09
0.000155055
1.03543e-09
0.000155055
8.57515e-10
0.000155055
6.75852e-10
0.000155055
4.94932e-10
0.000155055
3.17877e-10
0.000155055
1.4687e-10
0.000155055
-1.63627e-11
0.000155055
-1.70353e-10
0.000155055
-3.13966e-10
0.000155055
-4.4655e-10
0.000155055
-5.6795e-10
0.000155055
-6.78371e-10
0.000155055
-7.7821e-10
0.000155055
-8.67946e-10
0.000155055
-9.48133e-10
0.000155055
-1.01941e-09
0.000155055
-1.08252e-09
0.000155055
-1.13824e-09
0.000155055
-1.18741e-09
0.000155055
-1.23081e-09
0.000155055
-1.26922e-09
0.000155055
-1.30336e-09
0.000155055
-1.33391e-09
0.000155055
-1.3615e-09
0.000155055
-1.3867e-09
0.000155055
-1.40999e-09
0.000155055
-1.43173e-09
0.000155055
-1.45217e-09
0.000155055
-1.47102e-09
0.000155055
-1.48815e-09
0.000155055
-1.50114e-09
0.000155055
-1.5102e-09
0.000155055
-1.50389e-09
0.000155055
-1.49212e-09
0.000155055
-1.41641e-09
0.000155055
-1.35543e-09
-1.0644e-09
0.000155055
3.98603e-10
0.000155055
7.67627e-10
0.000155055
9.27918e-10
0.000155055
9.49431e-10
0.000155055
8.90277e-10
0.000155055
7.8929e-10
0.000155055
6.69748e-10
0.000155055
5.45854e-10
0.000155054
4.23564e-10
0.000155054
3.1427e-10
0.000155054
2.16257e-10
0.000155054
1.55895e-10
0.000155054
1.10353e-10
0.000155054
1.66761e-10
0.000155054
2.27252e-10
5.59955e-10
0.000159824
1.08668e-09
0.000159824
1.35279e-09
0.000159824
1.50857e-09
0.000159824
1.55134e-09
0.000159824
1.51595e-09
0.000159824
1.42593e-09
0.000159824
1.29833e-09
0.000159824
1.14569e-09
0.000159824
9.77007e-10
0.000159824
7.99422e-10
0.000159824
6.1867e-10
0.000159824
4.39074e-10
0.000159824
2.63657e-10
0.000159825
9.45417e-11
0.000159825
-6.66048e-11
0.000159825
-2.1837e-10
0.000159825
-3.5967e-10
0.000159825
-4.8989e-10
0.000159825
-6.089e-10
0.000159825
-7.16915e-10
0.000159825
-8.14337e-10
0.000159825
-9.0165e-10
0.000159825
-9.79407e-10
0.000159825
-1.04825e-09
0.000159825
-1.10891e-09
0.000159825
-1.16219e-09
0.000159825
-1.20891e-09
0.000159825
-1.24988e-09
0.000159825
-1.28587e-09
0.000159825
-1.31763e-09
0.000159825
-1.34584e-09
0.000159825
-1.37115e-09
0.000159825
-1.39415e-09
0.000159825
-1.41536e-09
0.000159825
-1.43515e-09
0.000159825
-1.4538e-09
0.000159825
-1.47108e-09
0.000159825
-1.48688e-09
0.000159825
-1.49893e-09
0.000159825
-1.50737e-09
0.000159825
-1.50122e-09
0.000159825
-1.49001e-09
0.000159825
-1.41521e-09
0.000159825
-1.36175e-09
-1.05367e-09
0.000159825
4.9385e-10
0.000159824
8.47259e-10
0.000159824
9.99016e-10
0.000159824
1.01473e-09
0.000159824
9.50578e-10
0.000159824
8.44817e-10
0.000159824
7.20615e-10
0.000159824
5.92155e-10
0.000159824
4.65416e-10
0.000159824
3.51381e-10
0.000159824
2.48676e-10
0.000159824
1.82265e-10
0.000159824
1.30922e-10
0.000159824
1.7868e-10
0.000159824
2.22068e-10
5.56403e-10
0.000164701
1.08977e-09
0.000164701
1.34387e-09
0.000164701
1.4827e-09
0.000164701
1.51147e-09
0.000164701
1.46641e-09
0.000164701
1.37022e-09
0.000164701
1.23898e-09
0.000164701
1.08456e-09
0.000164701
9.1542e-10
0.000164701
7.38306e-10
0.000164701
5.58654e-10
0.000164701
3.8059e-10
0.000164702
2.07021e-10
0.000164702
4.00007e-11
0.000164702
-1.18857e-10
0.000164702
-2.68191e-10
0.000164702
-4.06965e-10
0.000164702
-5.34604e-10
0.000164702
-6.50997e-10
0.000164702
-7.56378e-10
0.000164702
-8.51157e-10
0.000164702
-9.35824e-10
0.000164702
-1.01094e-09
0.000164702
-1.07714e-09
0.000164702
-1.13517e-09
0.000164702
-1.18582e-09
0.000164702
-1.22991e-09
0.000164702
-1.26827e-09
0.000164702
-1.30168e-09
0.000164702
-1.33089e-09
0.000164702
-1.35661e-09
0.000164702
-1.37951e-09
0.000164702
-1.40019e-09
0.000164702
-1.41918e-09
0.000164702
-1.4369e-09
0.000164702
-1.45365e-09
0.000164702
-1.46926e-09
0.000164702
-1.48366e-09
0.000164702
-1.49473e-09
0.000164702
-1.50254e-09
0.000164702
-1.49667e-09
0.000164702
-1.48614e-09
0.000164702
-1.41295e-09
0.000164702
-1.36819e-09
-1.0443e-09
0.000164701
5.86674e-10
0.000164701
9.23921e-10
0.000164701
1.06567e-09
0.000164701
1.07522e-09
0.000164701
1.00662e-09
0.000164701
8.96912e-10
0.000164701
7.68811e-10
0.000164701
6.36401e-10
0.000164701
5.05714e-10
0.000164701
3.87329e-10
0.000164701
2.80219e-10
0.000164701
2.07856e-10
0.000164701
1.50622e-10
0.000164701
1.89256e-10
0.000164701
2.14452e-10
5.50244e-10
0.000169688
1.09108e-09
0.000169688
1.33363e-09
0.000169688
1.45499e-09
0.000169688
1.4692e-09
0.000169688
1.41406e-09
0.000169688
1.31149e-09
0.000169688
1.17653e-09
0.000169688
1.02033e-09
0.000169688
8.50799e-10
0.000169689
6.7429e-10
0.000169689
4.95924e-10
0.000169689
3.19605e-10
0.000169689
1.48101e-10
0.000169689
-1.66111e-11
0.000169689
-1.72972e-10
0.000169689
-3.19668e-10
0.000169689
-4.55709e-10
0.000169689
-5.80552e-10
0.000169689
-6.94115e-10
0.000169689
-7.96645e-10
0.000169689
-8.88565e-10
0.000169689
-9.70376e-10
0.000169689
-1.04264e-09
0.000169689
-1.10601e-09
0.000169689
-1.16121e-09
0.000169689
-1.20905e-09
0.000169689
-1.25035e-09
0.000169689
-1.28594e-09
0.000169689
-1.31662e-09
0.000169689
-1.34314e-09
0.000169689
-1.36623e-09
0.000169689
-1.38657e-09
0.000169689
-1.40479e-09
0.000169689
-1.42145e-09
0.000169689
-1.43699e-09
0.000169689
-1.45174e-09
0.000169689
-1.46561e-09
0.000169689
-1.47853e-09
0.000169689
-1.48861e-09
0.000169689
-1.49578e-09
0.000169689
-1.49034e-09
0.000169689
-1.48066e-09
0.000169689
-1.40973e-09
0.000169689
-1.37495e-09
-1.03631e-09
0.000169689
6.77034e-10
0.000169689
9.97992e-10
0.000169688
1.12815e-09
0.000169688
1.13066e-09
0.000169688
1.05774e-09
0.000169688
9.4471e-10
0.000169688
8.13435e-10
0.000169688
6.77735e-10
0.000169688
5.43665e-10
0.000169688
4.21385e-10
0.000169688
3.10218e-10
0.000169688
2.32065e-10
0.000169688
1.68903e-10
0.000169688
1.97991e-10
0.000169688
2.04029e-10
5.41168e-10
0.000174788
1.09032e-09
0.000174788
1.32181e-09
0.000174788
1.42535e-09
0.000174788
1.42455e-09
0.000174788
1.359e-09
0.000174788
1.24986e-09
0.000174788
1.11112e-09
0.000174788
9.53137e-10
0.000174788
7.83288e-10
0.000174789
6.07516e-10
0.000174789
4.30616e-10
0.000174789
2.56251e-10
0.000174789
8.70344e-11
0.000174789
-7.51504e-11
0.000174789
-2.28801e-10
0.000174789
-3.72651e-10
0.000174789
-5.05753e-10
0.000174789
-6.27595e-10
0.000174789
-7.3812e-10
0.000174789
-8.37594e-10
0.000174789
-9.26452e-10
0.000174789
-1.00521e-09
0.000174789
-1.07443e-09
0.000174789
-1.13478e-09
0.000174789
-1.18698e-09
0.000174789
-1.23184e-09
0.000174789
-1.27019e-09
0.000174789
-1.30286e-09
0.000174789
-1.33065e-09
0.000174789
-1.35434e-09
0.000174789
-1.37467e-09
0.000174789
-1.39234e-09
0.000174789
-1.40799e-09
0.000174789
-1.4222e-09
0.000174789
-1.43546e-09
0.000174789
-1.44812e-09
0.000174789
-1.46017e-09
0.000174789
-1.47157e-09
0.000174789
-1.48063e-09
0.000174789
-1.4872e-09
0.000174789
-1.48233e-09
0.000174789
-1.4737e-09
0.000174789
-1.40573e-09
0.000174789
-1.3822e-09
-1.02974e-09
0.000174788
7.6478e-10
0.000174788
1.06972e-09
0.000174788
1.1868e-09
0.000174788
1.18116e-09
0.000174788
1.10366e-09
0.000174788
9.87645e-10
0.000174788
8.53791e-10
0.000174788
7.15426e-10
0.000174788
5.78551e-10
0.000174788
4.52865e-10
0.000174788
3.38024e-10
0.000174788
2.54291e-10
0.000174788
1.85209e-10
0.000174788
2.0438e-10
0.000174788
1.9041e-10
5.28896e-10
0.000180003
1.08723e-09
0.000180003
1.30813e-09
0.000180004
1.39362e-09
0.000180004
1.3775e-09
0.000180004
1.30129e-09
0.000180004
1.18544e-09
0.000180004
1.04287e-09
0.000180004
8.83135e-10
0.000180004
7.13046e-10
0.000180004
5.3814e-10
0.000180004
3.6288e-10
0.000180004
1.90676e-10
0.000180004
2.39676e-11
0.000180004
-1.35467e-10
0.000180004
-2.86191e-10
0.000180004
-4.26987e-10
0.000180004
-5.56945e-10
0.000180004
-6.75588e-10
0.000180004
-7.82878e-10
0.000180005
-8.791e-10
0.000180005
-9.64704e-10
0.000180005
-1.04022e-09
0.000180005
-1.10622e-09
0.000180005
-1.16337e-09
0.000180005
-1.21241e-09
0.000180005
-1.25413e-09
0.000180005
-1.28938e-09
0.000180005
-1.31898e-09
0.000180005
-1.34376e-09
0.000180005
-1.3645e-09
0.000180005
-1.38195e-09
0.000180005
-1.39682e-09
0.000180005
-1.40979e-09
0.000180005
-1.42146e-09
0.000180005
-1.43235e-09
0.000180005
-1.44284e-09
0.000180005
-1.45301e-09
0.000180005
-1.46285e-09
0.000180005
-1.4709e-09
0.000180005
-1.4769e-09
0.000180005
-1.47277e-09
0.000180005
-1.46543e-09
0.000180005
-1.40109e-09
0.000180005
-1.39007e-09
-1.02459e-09
0.000180004
8.49734e-10
0.000180004
1.13922e-09
0.000180004
1.24197e-09
0.000180004
1.227e-09
0.000180004
1.14438e-09
0.000180004
1.02544e-09
0.000180004
8.89418e-10
0.000180004
7.48923e-10
0.000180004
6.09781e-10
0.000180003
4.81171e-10
0.000180003
3.63048e-10
0.000180003
2.73971e-10
0.000180003
1.99007e-10
0.000180003
2.07934e-10
0.000180003
1.7322e-10
5.13185e-10
0.000185337
1.08161e-09
0.000185337
1.29239e-09
0.000185337
1.35967e-09
0.000185337
1.32801e-09
0.000185337
1.24096e-09
0.000185337
1.11832e-09
0.000185337
9.71918e-10
0.000185337
8.10481e-10
0.000185338
6.40247e-10
0.000185338
4.66338e-10
0.000185338
2.92889e-10
0.000185338
1.23046e-10
0.000185338
-4.09369e-11
0.000185338
-1.974e-10
0.000185338
-3.44981e-10
0.000185338
-4.82514e-10
0.000185338
-6.09129e-10
0.000185338
-7.24378e-10
0.000185338
-8.28245e-10
0.000185338
-9.21032e-10
0.000185338
-1.0032e-09
0.000185338
-1.0753e-09
0.000185338
-1.13792e-09
0.000185338
-1.19171e-09
0.000185338
-1.23743e-09
0.000185338
-1.27587e-09
0.000185338
-1.30788e-09
0.000185338
-1.33429e-09
0.000185338
-1.35593e-09
0.000185338
-1.3736e-09
0.000185338
-1.38806e-09
0.000185338
-1.40004e-09
0.000185338
-1.41023e-09
0.000185338
-1.41927e-09
0.000185338
-1.42771e-09
0.000185338
-1.43598e-09
0.000185338
-1.44422e-09
0.000185338
-1.45246e-09
0.000185338
-1.45952e-09
0.000185338
-1.465e-09
0.000185338
-1.46179e-09
0.000185338
-1.45601e-09
0.000185338
-1.39598e-09
0.000185338
-1.39866e-09
-1.02084e-09
0.000185337
9.31752e-10
0.000185337
1.20653e-09
0.000185337
1.29398e-09
0.000185337
1.26851e-09
0.000185337
1.18009e-09
0.000185337
1.05808e-09
0.000185337
9.20096e-10
0.000185337
7.77869e-10
0.000185337
6.36922e-10
0.000185337
5.05828e-10
0.000185337
3.84792e-10
0.000185337
2.90614e-10
0.000185337
2.09817e-10
0.000185337
2.08209e-10
0.000185337
1.52127e-10
4.93833e-10
0.000190792
1.07333e-09
0.000190792
1.27439e-09
0.000190792
1.32338e-09
0.000190792
1.27606e-09
0.000190792
1.17807e-09
0.000190792
1.0486e-09
0.000190792
8.98405e-10
0.000190792
7.35345e-10
0.000190792
5.65074e-10
0.000190792
3.92303e-10
0.000190792
2.20834e-10
0.000190792
5.35474e-11
0.000190792
-1.07499e-10
0.000190792
-2.60775e-10
0.000190792
-4.04999e-10
0.000190793
-5.39064e-10
0.000190793
-6.6214e-10
0.000190793
-7.73809e-10
0.000190793
-8.74074e-10
0.000190793
-9.63253e-10
0.000190793
-1.04183e-09
0.000190793
-1.11035e-09
0.000190793
-1.16942e-09
0.000190793
-1.21971e-09
0.000190793
-1.26197e-09
0.000190793
-1.29701e-09
0.000190793
-1.32565e-09
0.000190793
-1.34876e-09
0.000190793
-1.36715e-09
0.000190793
-1.38164e-09
0.000190793
-1.39301e-09
0.000190793
-1.40201e-09
0.000190793
-1.40935e-09
0.000190793
-1.41569e-09
0.000190793
-1.42162e-09
0.000190793
-1.4276e-09
0.000190793
-1.43389e-09
0.000190793
-1.44053e-09
0.000190793
-1.44661e-09
0.000190793
-1.45166e-09
0.000190793
-1.44954e-09
0.000190793
-1.44561e-09
0.000190793
-1.39057e-09
0.000190793
-1.40807e-09
-1.01847e-09
0.000190792
1.01076e-09
0.000190792
1.27165e-09
0.000190792
1.34305e-09
0.000190792
1.30608e-09
0.000190792
1.21111e-09
0.000190792
1.0857e-09
0.000190792
9.45806e-10
0.000190792
8.02104e-10
0.000190792
6.59707e-10
0.000190792
5.265e-10
0.000190792
4.02877e-10
0.000190792
3.03821e-10
0.000190792
2.17239e-10
0.000190792
2.04824e-10
0.000190792
1.26858e-10
4.70697e-10
0.00019637
1.0623e-09
0.00019637
1.25403e-09
0.00019637
1.28468e-09
0.00019637
1.22162e-09
0.00019637
1.11267e-09
0.00019637
9.76399e-10
0.00019637
8.22481e-10
0.00019637
6.57907e-10
0.00019637
4.87733e-10
0.00019637
3.16247e-10
0.00019637
1.46928e-10
0.00019637
-1.76128e-11
0.00019637
-1.75518e-10
0.000196371
-3.25395e-10
0.000196371
-4.66056e-10
0.000196371
-5.96454e-10
0.000196371
-7.15803e-10
0.000196371
-8.23712e-10
0.000196371
-9.20207e-10
0.000196371
-1.00562e-09
0.000196371
-1.08044e-09
0.000196371
-1.14524e-09
0.000196371
-1.20063e-09
0.000196371
-1.24729e-09
0.000196371
-1.28597e-09
0.000196371
-1.31748e-09
0.000196371
-1.34265e-09
0.000196371
-1.36235e-09
0.000196371
-1.3774e-09
0.000196371
-1.38864e-09
0.000196371
-1.39684e-09
0.000196371
-1.40279e-09
0.000196371
-1.4072e-09
0.000196371
-1.41078e-09
0.000196371
-1.41415e-09
0.000196371
-1.41781e-09
0.000196371
-1.42212e-09
0.000196371
-1.42716e-09
0.000196371
-1.43231e-09
0.000196371
-1.43701e-09
0.000196371
-1.43619e-09
0.000196371
-1.43441e-09
0.000196371
-1.38505e-09
0.000196371
-1.41837e-09
-1.01739e-09
0.00019637
1.08677e-09
0.00019637
1.33459e-09
0.00019637
1.38938e-09
0.00019637
1.34004e-09
0.00019637
1.23782e-09
0.00019637
1.10861e-09
0.00019637
9.66693e-10
0.00019637
8.21638e-10
0.00019637
6.78034e-10
0.00019637
5.43001e-10
0.00019637
4.17049e-10
0.00019637
3.13306e-10
0.00019637
2.20964e-10
0.00019637
1.97486e-10
0.00019637
9.72237e-11
4.43704e-10
0.000202074
1.0485e-09
0.000202074
1.23126e-09
0.000202074
1.24357e-09
0.000202074
1.16476e-09
0.000202074
1.04485e-09
0.000202074
9.01847e-10
0.000202074
7.4432e-10
0.000202075
5.78371e-10
0.000202075
4.08445e-10
0.000202075
2.38406e-10
0.000202075
7.14072e-11
0.000202075
-9.02026e-11
0.000202075
-2.4477e-10
0.000202075
-3.91048e-10
0.000202075
-5.27946e-10
0.000202075
-6.54487e-10
0.000202075
-7.69928e-10
0.000202075
-8.7391e-10
0.000202075
-9.66477e-10
0.000202075
-1.04797e-09
0.000202075
-1.1189e-09
0.000202075
-1.17985e-09
0.000202075
-1.23144e-09
0.000202075
-1.27436e-09
0.000202075
-1.30935e-09
0.000202075
-1.33723e-09
0.000202076
-1.35885e-09
0.000202076
-1.37505e-09
0.000202076
-1.38669e-09
0.000202076
-1.3946e-09
0.000202076
-1.39957e-09
0.000202076
-1.4024e-09
0.000202076
-1.40385e-09
0.000202076
-1.40462e-09
0.000202076
-1.40539e-09
0.000202076
-1.40672e-09
0.000202075
-1.40903e-09
0.000202075
-1.41249e-09
0.000202075
-1.41676e-09
0.000202075
-1.42122e-09
0.000202075
-1.42189e-09
0.000202075
-1.42259e-09
0.000202075
-1.37958e-09
0.000202075
-1.42961e-09
-1.01755e-09
0.000202074
1.15987e-09
0.000202074
1.39537e-09
0.000202074
1.43314e-09
0.000202074
1.37072e-09
0.000202074
1.26058e-09
0.000202074
1.12713e-09
0.000202074
9.83018e-10
0.000202074
8.36622e-10
0.000202074
6.91945e-10
0.000202074
5.5528e-10
0.000202074
4.27184e-10
0.000202074
3.18896e-10
0.000202074
2.20791e-10
0.000202074
1.85997e-10
0.000202074
6.31311e-11
4.12862e-10
0.000207908
1.032e-09
0.000207908
1.20611e-09
0.000207908
1.20011e-09
0.000207908
1.10557e-09
0.000207908
9.74762e-10
0.000207908
8.25129e-10
0.000207908
6.64133e-10
0.000207908
4.9697e-10
0.000207908
3.27459e-10
0.000207908
1.59037e-10
0.000207908
-5.46751e-12
0.000207908
-1.63965e-10
0.000207908
-3.15007e-10
0.000207909
-4.57494e-10
0.000207909
-5.90444e-10
0.000207909
-7.12947e-10
0.000207909
-8.24313e-10
0.000207909
-9.24212e-10
0.000207909
-1.01271e-09
0.000207909
-1.09015e-09
0.000207909
-1.15708e-09
0.000207909
-1.21406e-09
0.000207909
-1.26174e-09
0.000207909
-1.30082e-09
0.000207909
-1.33203e-09
0.000207909
-1.35621e-09
0.000207909
-1.37419e-09
0.000207909
-1.38685e-09
0.000207909
-1.39502e-09
0.000207909
-1.39954e-09
0.000207909
-1.40124e-09
0.000207909
-1.40092e-09
0.000207909
-1.39936e-09
0.000207909
-1.3973e-09
0.000207909
-1.39545e-09
0.000207909
-1.39443e-09
0.000207909
-1.39477e-09
0.000207909
-1.39668e-09
0.000207909
-1.40013e-09
0.000207909
-1.40447e-09
0.000207909
-1.40683e-09
0.000207909
-1.41035e-09
0.000207909
-1.37434e-09
0.000207909
-1.44184e-09
-1.01883e-09
0.000207908
1.23022e-09
0.000207908
1.45406e-09
0.000207908
1.4745e-09
0.000207908
1.39842e-09
0.000207908
1.27979e-09
0.000207908
1.14167e-09
0.000207908
9.95115e-10
0.000207908
8.47305e-10
0.000207908
7.01599e-10
0.000207908
5.63412e-10
0.000207908
4.33278e-10
0.000207908
3.20537e-10
0.000207908
2.16625e-10
0.000207908
1.70262e-10
0.000207908
2.45913e-11
3.78271e-10
0.000213873
1.01292e-09
0.000213873
1.17869e-09
0.000213873
1.15444e-09
0.000213873
1.04424e-09
0.000213873
9.02617e-10
0.000213873
7.46475e-10
0.000213873
5.8217e-10
0.000213873
4.13971e-10
0.000213874
2.45057e-10
0.000213874
7.84283e-11
0.000213874
-8.3408e-11
0.000213874
-2.38619e-10
0.000213874
-3.85956e-10
0.000213874
-5.24475e-10
0.000213874
-6.53301e-10
0.000213874
-7.71602e-10
0.000213874
-8.78739e-10
0.000213874
-9.74413e-10
0.000213874
-1.05871e-09
0.000213874
-1.13199e-09
0.000213874
-1.1948e-09
0.000213874
-1.24772e-09
0.000213874
-1.29142e-09
0.000213874
-1.32657e-09
0.000213874
-1.35394e-09
0.000213874
-1.37436e-09
0.000213874
-1.38866e-09
0.000213874
-1.39771e-09
0.000213874
-1.40237e-09
0.000213874
-1.40348e-09
0.000213874
-1.40188e-09
0.000213874
-1.39839e-09
0.000213874
-1.3938e-09
0.000213874
-1.3889e-09
0.000213874
-1.38445e-09
0.000213874
-1.38109e-09
0.000213874
-1.37947e-09
0.000213874
-1.37988e-09
0.000213874
-1.38259e-09
0.000213874
-1.38694e-09
0.000213874
-1.39119e-09
0.000213874
-1.39788e-09
0.000213874
-1.36951e-09
0.000213874
-1.45507e-09
-1.02114e-09
0.000213873
1.29801e-09
0.000213873
1.51076e-09
0.000213873
1.51362e-09
0.000213873
1.42343e-09
0.000213873
1.29581e-09
0.000213873
1.15261e-09
0.000213873
1.00336e-09
0.000213873
8.54009e-10
0.000213873
7.07244e-10
0.000213873
5.6757e-10
0.000213873
4.35434e-10
0.000213873
3.18277e-10
0.000213873
2.08478e-10
0.000213873
1.50292e-10
0.000213873
-1.8276e-11
3.40125e-10
0.000219973
9.91474e-10
0.000219973
1.14917e-09
0.000219973
1.10679e-09
0.000219973
9.81015e-10
0.000219973
8.28687e-10
0.000219973
6.66178e-10
0.000219974
4.98733e-10
0.000219974
3.29684e-10
0.000219974
1.61554e-10
0.000219974
-3.10157e-12
0.000219974
-1.62097e-10
0.000219974
-3.13852e-10
0.000219974
-4.57319e-10
0.000219974
-5.91705e-10
0.000219974
-7.16249e-10
0.000219974
-8.30198e-10
0.000219974
-9.32968e-10
0.000219974
-1.02429e-09
0.000219974
-1.10428e-09
0.000219974
-1.1733e-09
0.000219974
-1.2319e-09
0.000219974
-1.2807e-09
0.000219974
-1.32034e-09
0.000219974
-1.35152e-09
0.000219975
-1.375e-09
0.000219975
-1.39161e-09
0.000219975
-1.4022e-09
0.000219975
-1.40763e-09
0.000219975
-1.40876e-09
0.000219975
-1.40645e-09
0.000219975
-1.40154e-09
0.000219975
-1.39487e-09
0.000219975
-1.38727e-09
0.000219975
-1.37954e-09
0.000219975
-1.37249e-09
0.000219975
-1.36683e-09
0.000219974
-1.36329e-09
0.000219974
-1.36227e-09
0.000219974
-1.36432e-09
0.000219974
-1.36884e-09
0.000219974
-1.37518e-09
0.000219974
-1.38537e-09
0.000219974
-1.36524e-09
0.000219974
-1.46932e-09
-1.02434e-09
0.000219973
1.36347e-09
0.000219973
1.56558e-09
0.000219973
1.55068e-09
0.000219973
1.446e-09
0.000219973
1.30899e-09
0.000219973
1.16036e-09
0.000219973
1.00814e-09
0.000219973
8.57098e-10
0.000219973
7.09193e-10
0.000219973
5.68008e-10
0.000219973
4.33842e-10
0.000219973
3.12261e-10
0.000219973
1.96459e-10
0.000219973
1.26195e-10
0.000219973
-6.52441e-11
2.98713e-10
0.000226211
9.67943e-10
0.000226211
1.1178e-09
0.000226211
1.05743e-09
0.000226211
9.16216e-10
0.000226211
7.53316e-10
0.000226211
5.84589e-10
0.000226211
4.14179e-10
0.000226211
2.44465e-10
0.000226211
7.7306e-11
0.000226211
-8.51993e-11
0.000226211
-2.41188e-10
0.000226212
-3.89329e-10
0.000226212
-5.28771e-10
0.000226212
-6.58876e-10
0.000226212
-7.78996e-10
0.000226212
-8.88464e-10
0.000226212
-9.86748e-10
0.000226212
-1.07362e-09
0.000226212
-1.1492e-09
0.000226212
-1.21388e-09
0.000226212
-1.26822e-09
0.000226212
-1.31283e-09
0.000226212
-1.34837e-09
0.000226212
-1.37555e-09
0.000226212
-1.39512e-09
0.000226212
-1.40791e-09
0.000226212
-1.41478e-09
0.000226212
-1.41658e-09
0.000226212
-1.41419e-09
0.000226212
-1.40847e-09
0.000226212
-1.40027e-09
0.000226212
-1.39045e-09
0.000226212
-1.37985e-09
0.000226212
-1.36932e-09
0.000226212
-1.35972e-09
0.000226212
-1.35179e-09
0.000226212
-1.3464e-09
0.000226212
-1.34401e-09
0.000226212
-1.34552e-09
0.000226212
-1.35035e-09
0.000226212
-1.359e-09
0.000226212
-1.37301e-09
0.000226212
-1.36169e-09
0.000226212
-1.48457e-09
-1.02831e-09
0.000226211
1.42682e-09
0.000226211
1.61867e-09
0.000226211
1.58588e-09
0.000226211
1.4664e-09
0.000226211
1.31966e-09
0.000226211
1.16529e-09
0.000226211
1.00987e-09
0.000226211
8.56959e-10
0.000226211
7.07798e-10
0.000226211
5.65035e-10
0.000226211
4.28762e-10
0.000226211
3.02712e-10
0.000226211
1.80761e-10
0.000226211
9.8174e-11
0.000226211
-1.15984e-10
2.54412e-10
0.000232589
9.42669e-10
0.000232589
1.08489e-09
0.000232589
1.00671e-09
0.000232589
8.50234e-10
0.000232589
6.76912e-10
0.000232589
5.02122e-10
0.000232589
3.28917e-10
0.000232589
1.58718e-10
0.000232589
-7.29034e-12
0.00023259
-1.67476e-10
0.00023259
-3.20302e-10
0.00023259
-4.64682e-10
0.00023259
-5.99962e-10
0.00023259
-7.25656e-10
0.00023259
-8.41231e-10
0.00023259
-9.46107e-10
0.00023259
-1.03981e-09
0.00023259
-1.12214e-09
0.00023259
-1.19325e-09
0.00023259
-1.25354e-09
0.00023259
-1.30357e-09
0.00023259
-1.34396e-09
0.00023259
-1.37539e-09
0.00023259
-1.39855e-09
0.00023259
-1.41421e-09
0.00023259
-1.42319e-09
0.00023259
-1.42635e-09
0.00023259
-1.42455e-09
0.00023259
-1.41866e-09
0.00023259
-1.40956e-09
0.00023259
-1.39811e-09
0.00023259
-1.38518e-09
0.00023259
-1.37164e-09
0.00023259
-1.35837e-09
0.00023259
-1.34626e-09
0.00023259
-1.33613e-09
0.00023259
-1.32897e-09
0.00023259
-1.32531e-09
0.00023259
-1.32638e-09
0.00023259
-1.3317e-09
0.00023259
-1.34284e-09
0.00023259
-1.36101e-09
0.00023259
-1.359e-09
0.00023259
-1.50077e-09
-1.0329e-09
0.000232589
1.48826e-09
0.000232589
1.67015e-09
0.000232589
1.61938e-09
0.000232589
1.48491e-09
0.000232589
1.32816e-09
0.000232589
1.16777e-09
0.000232589
1.00893e-09
0.000232589
8.53984e-10
0.000232589
7.03436e-10
0.000232589
5.58997e-10
0.000232589
4.20505e-10
0.000232589
2.89914e-10
0.000232589
1.6165e-10
0.000232589
6.65113e-11
0.000232589
-1.70074e-10
2.07688e-10
0.00023911
9.16054e-10
0.00023911
1.05082e-09
0.000239111
9.55068e-10
0.000239111