/*--------------------------------*- C++ -*----------------------------------*\
  =========                 |
  \\      /  F ield         | OpenFOAM: The Open Source CFD Toolbox
   \\    /   O peration     | Website:  https://openfoam.org
    \\  /    A nd           | Version:  7
     \\/     M anipulation  |
\*---------------------------------------------------------------------------*/
FoamFile
{
    version     2.0;
    format      ascii;
    class       volScalarField;
    location    "15500";
    object      k;
}
// * * * * * * * * * * * * * * * * * * * * * * * * * * * * * * * * * * * * * //

dimensions      [0 2 -2 0 0 0 0];

internalField   nonuniform List<scalar> 
4000
(
9.42849e-05
9.42851e-05
9.42853e-05
9.42854e-05
9.42856e-05
9.42857e-05
9.42859e-05
9.4286e-05
9.42861e-05
9.42862e-05
9.42864e-05
9.42865e-05
9.42866e-05
9.42867e-05
9.42868e-05
9.42869e-05
9.4287e-05
9.4287e-05
9.42871e-05
9.42872e-05
9.42873e-05
9.42874e-05
9.42874e-05
9.42875e-05
9.42876e-05
9.42876e-05
9.42877e-05
9.42877e-05
9.42878e-05
9.42878e-05
9.42879e-05
9.42879e-05
9.42879e-05
9.4288e-05
9.4288e-05
9.4288e-05
9.4288e-05
9.42881e-05
9.42881e-05
9.42881e-05
9.42881e-05
9.42881e-05
9.42881e-05
9.42881e-05
9.42881e-05
9.42882e-05
9.42883e-05
9.42884e-05
9.42885e-05
9.42886e-05
9.42887e-05
9.42888e-05
9.42889e-05
9.42889e-05
9.4289e-05
9.42891e-05
9.42892e-05
9.42892e-05
9.42893e-05
9.42893e-05
9.42894e-05
9.42894e-05
9.42895e-05
9.42895e-05
9.42895e-05
9.42895e-05
9.42895e-05
9.42896e-05
9.42896e-05
9.42896e-05
9.42895e-05
9.42895e-05
9.42895e-05
9.42895e-05
9.42894e-05
9.42894e-05
9.42894e-05
9.42893e-05
9.42892e-05
9.42892e-05
9.42891e-05
9.4289e-05
9.4289e-05
9.42889e-05
9.42888e-05
9.42887e-05
9.42886e-05
9.42885e-05
9.42884e-05
9.42883e-05
9.42881e-05
9.4288e-05
9.42879e-05
9.42878e-05
9.42876e-05
9.42875e-05
9.42873e-05
9.42872e-05
9.4287e-05
9.42869e-05
9.42867e-05
9.42865e-05
9.42863e-05
9.42862e-05
9.42861e-05
9.4286e-05
9.42859e-05
9.42859e-05
9.42858e-05
9.42857e-05
9.42856e-05
9.42856e-05
9.42855e-05
9.42854e-05
9.42853e-05
9.42852e-05
9.42851e-05
9.4285e-05
9.42849e-05
9.42848e-05
9.441e-05
9.44102e-05
9.44103e-05
9.44105e-05
9.44106e-05
9.44108e-05
9.44109e-05
9.4411e-05
9.44112e-05
9.44113e-05
9.44114e-05
9.44115e-05
9.44116e-05
9.44117e-05
9.44118e-05
9.44119e-05
9.4412e-05
9.44121e-05
9.44122e-05
9.44123e-05
9.44124e-05
9.44125e-05
9.44126e-05
9.44126e-05
9.44127e-05
9.44128e-05
9.44128e-05
9.44129e-05
9.4413e-05
9.4413e-05
9.44131e-05
9.44131e-05
9.44132e-05
9.44132e-05
9.44133e-05
9.44133e-05
9.44133e-05
9.44134e-05
9.44134e-05
9.44134e-05
9.44135e-05
9.44135e-05
9.44135e-05
9.44135e-05
9.44135e-05
9.44136e-05
9.44136e-05
9.44137e-05
9.44138e-05
9.44139e-05
9.4414e-05
9.44141e-05
9.44142e-05
9.44142e-05
9.44143e-05
9.44144e-05
9.44145e-05
9.44145e-05
9.44146e-05
9.44147e-05
9.44147e-05
9.44147e-05
9.44148e-05
9.44148e-05
9.44148e-05
9.44149e-05
9.44149e-05
9.44149e-05
9.44149e-05
9.44149e-05
9.44149e-05
9.44149e-05
9.44149e-05
9.44148e-05
9.44148e-05
9.44148e-05
9.44147e-05
9.44147e-05
9.44146e-05
9.44146e-05
9.44145e-05
9.44144e-05
9.44143e-05
9.44143e-05
9.44142e-05
9.44141e-05
9.4414e-05
9.44139e-05
9.44138e-05
9.44137e-05
9.44135e-05
9.44134e-05
9.44133e-05
9.44132e-05
9.4413e-05
9.44129e-05
9.44127e-05
9.44126e-05
9.44124e-05
9.44123e-05
9.44121e-05
9.44119e-05
9.44118e-05
9.44116e-05
9.44114e-05
9.44113e-05
9.44112e-05
9.44111e-05
9.4411e-05
9.44109e-05
9.44108e-05
9.44107e-05
9.44106e-05
9.44105e-05
9.44104e-05
9.44103e-05
9.44102e-05
9.44101e-05
9.441e-05
9.44099e-05
9.46265e-05
9.46267e-05
9.46268e-05
9.4627e-05
9.46271e-05
9.46273e-05
9.46274e-05
9.46275e-05
9.46277e-05
9.46278e-05
9.46279e-05
9.4628e-05
9.46281e-05
9.46282e-05
9.46284e-05
9.46285e-05
9.46286e-05
9.46287e-05
9.46288e-05
9.46289e-05
9.4629e-05
9.46291e-05
9.46291e-05
9.46292e-05
9.46293e-05
9.46294e-05
9.46295e-05
9.46296e-05
9.46296e-05
9.46297e-05
9.46298e-05
9.46299e-05
9.46299e-05
9.463e-05
9.463e-05
9.46301e-05
9.46302e-05
9.46302e-05
9.46303e-05
9.46303e-05
9.46304e-05
9.46304e-05
9.46304e-05
9.46305e-05
9.46305e-05
9.46305e-05
9.46306e-05
9.46306e-05
9.46307e-05
9.46308e-05
9.46309e-05
9.46309e-05
9.4631e-05
9.46311e-05
9.46312e-05
9.46312e-05
9.46313e-05
9.46314e-05
9.46314e-05
9.46315e-05
9.46315e-05
9.46316e-05
9.46316e-05
9.46317e-05
9.46317e-05
9.46317e-05
9.46317e-05
9.46317e-05
9.46317e-05
9.46317e-05
9.46317e-05
9.46317e-05
9.46317e-05
9.46317e-05
9.46316e-05
9.46316e-05
9.46316e-05
9.46315e-05
9.46315e-05
9.46314e-05
9.46313e-05
9.46313e-05
9.46312e-05
9.46311e-05
9.4631e-05
9.46309e-05
9.46308e-05
9.46307e-05
9.46306e-05
9.46305e-05
9.46304e-05
9.46303e-05
9.46301e-05
9.463e-05
9.46299e-05
9.46297e-05
9.46296e-05
9.46295e-05
9.46293e-05
9.46291e-05
9.4629e-05
9.46288e-05
9.46286e-05
9.46285e-05
9.46283e-05
9.46281e-05
9.4628e-05
9.46279e-05
9.46277e-05
9.46276e-05
9.46275e-05
9.46274e-05
9.46273e-05
9.46271e-05
9.4627e-05
9.46269e-05
9.46268e-05
9.46267e-05
9.46265e-05
9.46264e-05
9.49294e-05
9.49296e-05
9.49297e-05
9.49298e-05
9.493e-05
9.49301e-05
9.49303e-05
9.49304e-05
9.49305e-05
9.49306e-05
9.49308e-05
9.49309e-05
9.4931e-05
9.49311e-05
9.49313e-05
9.49314e-05
9.49315e-05
9.49316e-05
9.49317e-05
9.49318e-05
9.49319e-05
9.4932e-05
9.49321e-05
9.49322e-05
9.49323e-05
9.49324e-05
9.49325e-05
9.49326e-05
9.49327e-05
9.49328e-05
9.49329e-05
9.4933e-05
9.49331e-05
9.49332e-05
9.49332e-05
9.49333e-05
9.49334e-05
9.49335e-05
9.49335e-05
9.49336e-05
9.49337e-05
9.49337e-05
9.49338e-05
9.49338e-05
9.49339e-05
9.49339e-05
9.4934e-05
9.4934e-05
9.49341e-05
9.49341e-05
9.49342e-05
9.49343e-05
9.49343e-05
9.49344e-05
9.49345e-05
9.49345e-05
9.49346e-05
9.49347e-05
9.49347e-05
9.49348e-05
9.49348e-05
9.49349e-05
9.49349e-05
9.49349e-05
9.4935e-05
9.4935e-05
9.4935e-05
9.4935e-05
9.4935e-05
9.4935e-05
9.4935e-05
9.4935e-05
9.4935e-05
9.49349e-05
9.49349e-05
9.49349e-05
9.49348e-05
9.49348e-05
9.49347e-05
9.49346e-05
9.49346e-05
9.49345e-05
9.49344e-05
9.49343e-05
9.49343e-05
9.49342e-05
9.49341e-05
9.4934e-05
9.49338e-05
9.49337e-05
9.49336e-05
9.49335e-05
9.49334e-05
9.49332e-05
9.49331e-05
9.4933e-05
9.49328e-05
9.49327e-05
9.49325e-05
9.49323e-05
9.49322e-05
9.4932e-05
9.49319e-05
9.49317e-05
9.49315e-05
9.49313e-05
9.49312e-05
9.4931e-05
9.49308e-05
9.49307e-05
9.49305e-05
9.49304e-05
9.49303e-05
9.49301e-05
9.493e-05
9.49299e-05
9.49297e-05
9.49296e-05
9.49294e-05
9.49293e-05
9.53143e-05
9.53144e-05
9.53145e-05
9.53147e-05
9.53148e-05
9.5315e-05
9.53151e-05
9.53152e-05
9.53154e-05
9.53155e-05
9.53156e-05
9.53157e-05
9.53159e-05
9.5316e-05
9.53161e-05
9.53163e-05
9.53164e-05
9.53165e-05
9.53166e-05
9.53168e-05
9.53169e-05
9.5317e-05
9.53171e-05
9.53172e-05
9.53174e-05
9.53175e-05
9.53176e-05
9.53177e-05
9.53178e-05
9.53179e-05
9.5318e-05
9.53181e-05
9.53182e-05
9.53183e-05
9.53184e-05
9.53185e-05
9.53186e-05
9.53187e-05
9.53188e-05
9.53189e-05
9.5319e-05
9.5319e-05
9.53191e-05
9.53192e-05
9.53193e-05
9.53193e-05
9.53194e-05
9.53194e-05
9.53195e-05
9.53195e-05
9.53196e-05
9.53197e-05
9.53197e-05
9.53198e-05
9.53198e-05
9.53199e-05
9.532e-05
9.532e-05
9.53201e-05
9.53201e-05
9.53202e-05
9.53202e-05
9.53202e-05
9.53202e-05
9.53203e-05
9.53203e-05
9.53203e-05
9.53203e-05
9.53203e-05
9.53203e-05
9.53203e-05
9.53202e-05
9.53202e-05
9.53202e-05
9.53202e-05
9.53201e-05
9.53201e-05
9.532e-05
9.53199e-05
9.53199e-05
9.53198e-05
9.53197e-05
9.53196e-05
9.53196e-05
9.53195e-05
9.53194e-05
9.53193e-05
9.53191e-05
9.5319e-05
9.53189e-05
9.53188e-05
9.53187e-05
9.53185e-05
9.53184e-05
9.53183e-05
9.53181e-05
9.5318e-05
9.53178e-05
9.53177e-05
9.53175e-05
9.53173e-05
9.53172e-05
9.5317e-05
9.53168e-05
9.53166e-05
9.53165e-05
9.53163e-05
9.53161e-05
9.53159e-05
9.53157e-05
9.53156e-05
9.53154e-05
9.53153e-05
9.53151e-05
9.53149e-05
9.53148e-05
9.53146e-05
9.53145e-05
9.53143e-05
9.53142e-05
9.57773e-05
9.57774e-05
9.57776e-05
9.57777e-05
9.57778e-05
9.5778e-05
9.57781e-05
9.57782e-05
9.57784e-05
9.57785e-05
9.57786e-05
9.57788e-05
9.57789e-05
9.57791e-05
9.57792e-05
9.57793e-05
9.57795e-05
9.57796e-05
9.57798e-05
9.57799e-05
9.578e-05
9.57802e-05
9.57803e-05
9.57805e-05
9.57806e-05
9.57807e-05
9.57809e-05
9.5781e-05
9.57811e-05
9.57813e-05
9.57814e-05
9.57815e-05
9.57816e-05
9.57817e-05
9.57819e-05
9.5782e-05
9.57821e-05
9.57822e-05
9.57823e-05
9.57824e-05
9.57825e-05
9.57826e-05
9.57827e-05
9.57828e-05
9.57829e-05
9.57829e-05
9.5783e-05
9.57831e-05
9.57831e-05
9.57832e-05
9.57832e-05
9.57833e-05
9.57834e-05
9.57834e-05
9.57835e-05
9.57835e-05
9.57836e-05
9.57836e-05
9.57836e-05
9.57837e-05
9.57837e-05
9.57837e-05
9.57838e-05
9.57838e-05
9.57838e-05
9.57838e-05
9.57838e-05
9.57838e-05
9.57838e-05
9.57838e-05
9.57837e-05
9.57837e-05
9.57837e-05
9.57836e-05
9.57836e-05
9.57835e-05
9.57835e-05
9.57834e-05
9.57833e-05
9.57833e-05
9.57832e-05
9.57831e-05
9.5783e-05
9.57829e-05
9.57828e-05
9.57827e-05
9.57826e-05
9.57825e-05
9.57824e-05
9.57822e-05
9.57821e-05
9.5782e-05
9.57818e-05
9.57817e-05
9.57816e-05
9.57814e-05
9.57813e-05
9.57811e-05
9.57809e-05
9.57808e-05
9.57806e-05
9.57804e-05
9.57803e-05
9.57801e-05
9.57799e-05
9.57797e-05
9.57795e-05
9.57793e-05
9.57791e-05
9.57789e-05
9.57788e-05
9.57786e-05
9.57784e-05
9.57782e-05
9.57781e-05
9.57779e-05
9.57777e-05
9.57775e-05
9.57774e-05
9.57772e-05
9.63152e-05
9.63153e-05
9.63154e-05
9.63156e-05
9.63157e-05
9.63158e-05
9.6316e-05
9.63161e-05
9.63163e-05
9.63164e-05
9.63166e-05
9.63167e-05
9.63169e-05
9.6317e-05
9.63172e-05
9.63173e-05
9.63175e-05
9.63176e-05
9.63178e-05
9.6318e-05
9.63181e-05
9.63183e-05
9.63184e-05
9.63186e-05
9.63188e-05
9.63189e-05
9.63191e-05
9.63192e-05
9.63194e-05
9.63195e-05
9.63197e-05
9.63198e-05
9.632e-05
9.63201e-05
9.63202e-05
9.63204e-05
9.63205e-05
9.63206e-05
9.63208e-05
9.63209e-05
9.6321e-05
9.63211e-05
9.63212e-05
9.63213e-05
9.63214e-05
9.63215e-05
9.63216e-05
9.63216e-05
9.63217e-05
9.63218e-05
9.63218e-05
9.63219e-05
9.63219e-05
9.6322e-05
9.6322e-05
9.63221e-05
9.63221e-05
9.63221e-05
9.63222e-05
9.63222e-05
9.63222e-05
9.63222e-05
9.63222e-05
9.63222e-05
9.63222e-05
9.63222e-05
9.63222e-05
9.63222e-05
9.63222e-05
9.63221e-05
9.63221e-05
9.63221e-05
9.6322e-05
9.6322e-05
9.63219e-05
9.63219e-05
9.63218e-05
9.63217e-05
9.63216e-05
9.63215e-05
9.63215e-05
9.63214e-05
9.63213e-05
9.63212e-05
9.6321e-05
9.63209e-05
9.63208e-05
9.63207e-05
9.63206e-05
9.63204e-05
9.63203e-05
9.63202e-05
9.632e-05
9.63199e-05
9.63197e-05
9.63196e-05
9.63194e-05
9.63192e-05
9.63191e-05
9.63189e-05
9.63187e-05
9.63185e-05
9.63184e-05
9.63182e-05
9.6318e-05
9.63178e-05
9.63176e-05
9.63174e-05
9.63172e-05
9.6317e-05
9.63168e-05
9.63166e-05
9.63164e-05
9.63162e-05
9.6316e-05
9.63158e-05
9.63157e-05
9.63155e-05
9.63153e-05
9.63151e-05
9.69251e-05
9.69252e-05
9.69253e-05
9.69255e-05
9.69256e-05
9.69258e-05
9.69259e-05
9.6926e-05
9.69262e-05
9.69264e-05
9.69265e-05
9.69267e-05
9.69269e-05
9.6927e-05
9.69272e-05
9.69274e-05
9.69275e-05
9.69277e-05
9.69279e-05
9.69281e-05
9.69283e-05
9.69284e-05
9.69286e-05
9.69288e-05
9.6929e-05
9.69292e-05
9.69293e-05
9.69295e-05
9.69297e-05
9.69299e-05
9.693e-05
9.69302e-05
9.69304e-05
9.69305e-05
9.69307e-05
9.69308e-05
9.6931e-05
9.69311e-05
9.69313e-05
9.69314e-05
9.69315e-05
9.69317e-05
9.69318e-05
9.69319e-05
9.6932e-05
9.69321e-05
9.69322e-05
9.69322e-05
9.69323e-05
9.69324e-05
9.69324e-05
9.69325e-05
9.69325e-05
9.69326e-05
9.69326e-05
9.69327e-05
9.69327e-05
9.69327e-05
9.69327e-05
9.69327e-05
9.69327e-05
9.69327e-05
9.69327e-05
9.69327e-05
9.69327e-05
9.69327e-05
9.69327e-05
9.69326e-05
9.69326e-05
9.69326e-05
9.69325e-05
9.69324e-05
9.69324e-05
9.69323e-05
9.69323e-05
9.69322e-05
9.69321e-05
9.6932e-05
9.69319e-05
9.69318e-05
9.69317e-05
9.69316e-05
9.69315e-05
9.69314e-05
9.69313e-05
9.69311e-05
9.6931e-05
9.69309e-05
9.69307e-05
9.69306e-05
9.69305e-05
9.69303e-05
9.69301e-05
9.693e-05
9.69298e-05
9.69297e-05
9.69295e-05
9.69293e-05
9.69292e-05
9.6929e-05
9.69288e-05
9.69286e-05
9.69284e-05
9.69282e-05
9.6928e-05
9.69278e-05
9.69276e-05
9.69274e-05
9.69272e-05
9.6927e-05
9.69268e-05
9.69266e-05
9.69264e-05
9.69262e-05
9.6926e-05
9.69258e-05
9.69256e-05
9.69254e-05
9.69252e-05
9.6925e-05
9.76045e-05
9.76046e-05
9.76048e-05
9.76049e-05
9.7605e-05
9.76052e-05
9.76054e-05
9.76055e-05
9.76057e-05
9.76059e-05
9.7606e-05
9.76062e-05
9.76064e-05
9.76066e-05
9.76068e-05
9.7607e-05
9.76072e-05
9.76074e-05
9.76076e-05
9.76078e-05
9.7608e-05
9.76082e-05
9.76084e-05
9.76086e-05
9.76088e-05
9.7609e-05
9.76092e-05
9.76094e-05
9.76096e-05
9.76098e-05
9.761e-05
9.76102e-05
9.76104e-05
9.76105e-05
9.76107e-05
9.76109e-05
9.76111e-05
9.76112e-05
9.76114e-05
9.76115e-05
9.76117e-05
9.76118e-05
9.76119e-05
9.7612e-05
9.76121e-05
9.76122e-05
9.76123e-05
9.76124e-05
9.76125e-05
9.76126e-05
9.76126e-05
9.76127e-05
9.76127e-05
9.76127e-05
9.76128e-05
9.76128e-05
9.76128e-05
9.76128e-05
9.76128e-05
9.76128e-05
9.76128e-05
9.76128e-05
9.76128e-05
9.76127e-05
9.76127e-05
9.76127e-05
9.76126e-05
9.76126e-05
9.76125e-05
9.76125e-05
9.76124e-05
9.76123e-05
9.76123e-05
9.76122e-05
9.76121e-05
9.7612e-05
9.76119e-05
9.76118e-05
9.76117e-05
9.76116e-05
9.76115e-05
9.76114e-05
9.76112e-05
9.76111e-05
9.7611e-05
9.76108e-05
9.76107e-05
9.76105e-05
9.76104e-05
9.76102e-05
9.76101e-05
9.76099e-05
9.76098e-05
9.76096e-05
9.76094e-05
9.76093e-05
9.76091e-05
9.76089e-05
9.76087e-05
9.76085e-05
9.76083e-05
9.76081e-05
9.7608e-05
9.76078e-05
9.76076e-05
9.76073e-05
9.76071e-05
9.76069e-05
9.76067e-05
9.76065e-05
9.76063e-05
9.76061e-05
9.76059e-05
9.76057e-05
9.76054e-05
9.76052e-05
9.7605e-05
9.76048e-05
9.76046e-05
9.76044e-05
9.83512e-05
9.83514e-05
9.83515e-05
9.83516e-05
9.83518e-05
9.8352e-05
9.83521e-05
9.83523e-05
9.83525e-05
9.83527e-05
9.83529e-05
9.83531e-05
9.83533e-05
9.83535e-05
9.83538e-05
9.8354e-05
9.83542e-05
9.83544e-05
9.83547e-05
9.83549e-05
9.83551e-05
9.83553e-05
9.83556e-05
9.83558e-05
9.8356e-05
9.83563e-05
9.83565e-05
9.83567e-05
9.83569e-05
9.83571e-05
9.83573e-05
9.83575e-05
9.83577e-05
9.83579e-05
9.83581e-05
9.83583e-05
9.83585e-05
9.83587e-05
9.83588e-05
9.8359e-05
9.83592e-05
9.83593e-05
9.83594e-05
9.83595e-05
9.83597e-05
9.83598e-05
9.83598e-05
9.83599e-05
9.836e-05
9.83601e-05
9.83601e-05
9.83602e-05
9.83602e-05
9.83602e-05
9.83602e-05
9.83602e-05
9.83602e-05
9.83602e-05
9.83602e-05
9.83602e-05
9.83602e-05
9.83602e-05
9.83601e-05
9.83601e-05
9.836e-05
9.836e-05
9.83599e-05
9.83598e-05
9.83598e-05
9.83597e-05
9.83596e-05
9.83595e-05
9.83594e-05
9.83593e-05
9.83592e-05
9.83591e-05
9.8359e-05
9.83589e-05
9.83588e-05
9.83586e-05
9.83585e-05
9.83584e-05
9.83582e-05
9.83581e-05
9.8358e-05
9.83578e-05
9.83577e-05
9.83575e-05
9.83573e-05
9.83572e-05
9.8357e-05
9.83568e-05
9.83567e-05
9.83565e-05
9.83563e-05
9.83561e-05
9.83559e-05
9.83557e-05
9.83556e-05
9.83554e-05
9.83552e-05
9.8355e-05
9.83548e-05
9.83546e-05
9.83543e-05
9.83541e-05
9.83539e-05
9.83537e-05
9.83535e-05
9.83533e-05
9.83531e-05
9.83528e-05
9.83526e-05
9.83524e-05
9.83522e-05
9.8352e-05
9.83517e-05
9.83515e-05
9.83513e-05
9.83512e-05
9.91633e-05
9.91635e-05
9.91636e-05
9.91638e-05
9.9164e-05
9.91641e-05
9.91643e-05
9.91646e-05
9.91648e-05
9.9165e-05
9.91652e-05
9.91654e-05
9.91657e-05
9.91659e-05
9.91662e-05
9.91664e-05
9.91667e-05
9.91669e-05
9.91672e-05
9.91674e-05
9.91677e-05
9.91679e-05
9.91682e-05
9.91685e-05
9.91687e-05
9.9169e-05
9.91692e-05
9.91694e-05
9.91697e-05
9.91699e-05
9.91701e-05
9.91704e-05
9.91706e-05
9.91708e-05
9.9171e-05
9.91712e-05
9.91714e-05
9.91716e-05
9.91718e-05
9.91719e-05
9.91721e-05
9.91722e-05
9.91723e-05
9.91725e-05
9.91726e-05
9.91727e-05
9.91727e-05
9.91728e-05
9.91729e-05
9.91729e-05
9.9173e-05
9.9173e-05
9.9173e-05
9.91731e-05
9.91731e-05
9.91731e-05
9.9173e-05
9.9173e-05
9.9173e-05
9.9173e-05
9.91729e-05
9.91729e-05
9.91728e-05
9.91727e-05
9.91727e-05
9.91726e-05
9.91725e-05
9.91724e-05
9.91723e-05
9.91723e-05
9.91722e-05
9.9172e-05
9.91719e-05
9.91718e-05
9.91717e-05
9.91716e-05
9.91714e-05
9.91713e-05
9.91712e-05
9.9171e-05
9.91709e-05
9.91707e-05
9.91706e-05
9.91704e-05
9.91703e-05
9.91701e-05
9.91699e-05
9.91698e-05
9.91696e-05
9.91694e-05
9.91692e-05
9.91691e-05
9.91689e-05
9.91687e-05
9.91685e-05
9.91683e-05
9.91681e-05
9.91679e-05
9.91677e-05
9.91675e-05
9.91673e-05
9.91671e-05
9.91669e-05
9.91667e-05
9.91665e-05
9.91662e-05
9.9166e-05
9.91658e-05
9.91656e-05
9.91654e-05
9.91651e-05
9.91649e-05
9.91647e-05
9.91645e-05
9.91642e-05
9.9164e-05
9.91638e-05
9.91636e-05
9.91634e-05
9.91632e-05
0.000100039
0.000100039
0.000100039
0.00010004
0.00010004
0.00010004
0.00010004
0.00010004
0.000100041
0.000100041
0.000100041
0.000100041
0.000100042
0.000100042
0.000100042
0.000100043
0.000100043
0.000100043
0.000100043
0.000100044
0.000100044
0.000100044
0.000100045
0.000100045
0.000100045
0.000100045
0.000100046
0.000100046
0.000100046
0.000100046
0.000100047
0.000100047
0.000100047
0.000100047
0.000100048
0.000100048
0.000100048
0.000100048
0.000100048
0.000100048
0.000100049
0.000100049
0.000100049
0.000100049
0.000100049
0.000100049
0.000100049
0.000100049
0.000100049
0.000100049
0.000100049
0.000100049
0.000100049
0.000100049
0.000100049
0.000100049
0.000100049
0.000100049
0.000100049
0.000100049
0.000100049
0.000100049
0.000100049
0.000100049
0.000100049
0.000100049
0.000100049
0.000100049
0.000100048
0.000100048
0.000100048
0.000100048
0.000100048
0.000100048
0.000100048
0.000100048
0.000100047
0.000100047
0.000100047
0.000100047
0.000100047
0.000100047
0.000100047
0.000100046
0.000100046
0.000100046
0.000100046
0.000100046
0.000100045
0.000100045
0.000100045
0.000100045
0.000100045
0.000100044
0.000100044
0.000100044
0.000100044
0.000100044
0.000100043
0.000100043
0.000100043
0.000100043
0.000100043
0.000100042
0.000100042
0.000100042
0.000100042
0.000100041
0.000100041
0.000100041
0.000100041
0.000100041
0.00010004
0.00010004
0.00010004
0.00010004
0.000100039
0.000100039
0.000100039
0.000100039
0.000100977
0.000100977
0.000100977
0.000100977
0.000100978
0.000100978
0.000100978
0.000100978
0.000100979
0.000100979
0.000100979
0.00010098
0.00010098
0.00010098
0.00010098
0.000100981
0.000100981
0.000100981
0.000100982
0.000100982
0.000100982
0.000100983
0.000100983
0.000100983
0.000100984
0.000100984
0.000100984
0.000100984
0.000100985
0.000100985
0.000100985
0.000100985
0.000100986
0.000100986
0.000100986
0.000100986
0.000100987
0.000100987
0.000100987
0.000100987
0.000100987
0.000100987
0.000100987
0.000100988
0.000100988
0.000100988
0.000100988
0.000100988
0.000100988
0.000100988
0.000100988
0.000100988
0.000100988
0.000100988
0.000100988
0.000100988
0.000100988
0.000100988
0.000100988
0.000100988
0.000100987
0.000100987
0.000100987
0.000100987
0.000100987
0.000100987
0.000100987
0.000100987
0.000100987
0.000100986
0.000100986
0.000100986
0.000100986
0.000100986
0.000100986
0.000100986
0.000100985
0.000100985
0.000100985
0.000100985
0.000100985
0.000100985
0.000100984
0.000100984
0.000100984
0.000100984
0.000100984
0.000100983
0.000100983
0.000100983
0.000100983
0.000100983
0.000100982
0.000100982
0.000100982
0.000100982
0.000100982
0.000100981
0.000100981
0.000100981
0.000100981
0.00010098
0.00010098
0.00010098
0.00010098
0.00010098
0.000100979
0.000100979
0.000100979
0.000100979
0.000100978
0.000100978
0.000100978
0.000100978
0.000100978
0.000100977
0.000100977
0.000100977
0.000100977
0.000100977
0.000101975
0.000101975
0.000101976
0.000101976
0.000101976
0.000101976
0.000101977
0.000101977
0.000101977
0.000101978
0.000101978
0.000101978
0.000101979
0.000101979
0.000101979
0.00010198
0.00010198
0.00010198
0.000101981
0.000101981
0.000101981
0.000101982
0.000101982
0.000101982
0.000101983
0.000101983
0.000101983
0.000101984
0.000101984
0.000101984
0.000101984
0.000101985
0.000101985
0.000101985
0.000101985
0.000101986
0.000101986
0.000101986
0.000101986
0.000101986
0.000101986
0.000101986
0.000101987
0.000101987
0.000101987
0.000101987
0.000101987
0.000101987
0.000101987
0.000101987
0.000101987
0.000101987
0.000101987
0.000101987
0.000101987
0.000101987
0.000101987
0.000101986
0.000101986
0.000101986
0.000101986
0.000101986
0.000101986
0.000101986
0.000101986
0.000101986
0.000101985
0.000101985
0.000101985
0.000101985
0.000101985
0.000101985
0.000101985
0.000101984
0.000101984
0.000101984
0.000101984
0.000101984
0.000101983
0.000101983
0.000101983
0.000101983
0.000101983
0.000101983
0.000101982
0.000101982
0.000101982
0.000101982
0.000101982
0.000101981
0.000101981
0.000101981
0.000101981
0.00010198
0.00010198
0.00010198
0.00010198
0.00010198
0.000101979
0.000101979
0.000101979
0.000101979
0.000101978
0.000101978
0.000101978
0.000101978
0.000101978
0.000101977
0.000101977
0.000101977
0.000101977
0.000101976
0.000101976
0.000101976
0.000101976
0.000101976
0.000101975
0.000101975
0.000101975
0.000101975
0.000103033
0.000103033
0.000103033
0.000103033
0.000103034
0.000103034
0.000103034
0.000103035
0.000103035
0.000103035
0.000103036
0.000103036
0.000103037
0.000103037
0.000103037
0.000103038
0.000103038
0.000103038
0.000103039
0.000103039
0.00010304
0.00010304
0.00010304
0.000103041
0.000103041
0.000103041
0.000103042
0.000103042
0.000103042
0.000103042
0.000103043
0.000103043
0.000103043
0.000103043
0.000103044
0.000103044
0.000103044
0.000103044
0.000103044
0.000103044
0.000103045
0.000103045
0.000103045
0.000103045
0.000103045
0.000103045
0.000103045
0.000103045
0.000103045
0.000103045
0.000103045
0.000103045
0.000103045
0.000103045
0.000103045
0.000103044
0.000103044
0.000103044
0.000103044
0.000103044
0.000103044
0.000103044
0.000103044
0.000103044
0.000103043
0.000103043
0.000103043
0.000103043
0.000103043
0.000103043
0.000103042
0.000103042
0.000103042
0.000103042
0.000103042
0.000103042
0.000103041
0.000103041
0.000103041
0.000103041
0.000103041
0.00010304
0.00010304
0.00010304
0.00010304
0.00010304
0.000103039
0.000103039
0.000103039
0.000103039
0.000103038
0.000103038
0.000103038
0.000103038
0.000103038
0.000103037
0.000103037
0.000103037
0.000103037
0.000103036
0.000103036
0.000103036
0.000103036
0.000103035
0.000103035
0.000103035
0.000103035
0.000103035
0.000103034
0.000103034
0.000103034
0.000103034
0.000103033
0.000103033
0.000103033
0.000103033
0.000103033
0.000103033
0.000103032
0.000103032
0.000104148
0.000104148
0.000104148
0.000104149
0.000104149
0.00010415
0.00010415
0.00010415
0.000104151
0.000104151
0.000104152
0.000104152
0.000104152
0.000104153
0.000104153
0.000104154
0.000104154
0.000104154
0.000104155
0.000104155
0.000104156
0.000104156
0.000104156
0.000104157
0.000104157
0.000104157
0.000104158
0.000104158
0.000104158
0.000104159
0.000104159
0.000104159
0.000104159
0.00010416
0.00010416
0.00010416
0.00010416
0.00010416
0.00010416
0.00010416
0.00010416
0.000104161
0.000104161
0.000104161
0.000104161
0.000104161
0.000104161
0.000104161
0.00010416
0.00010416
0.00010416
0.00010416
0.00010416
0.00010416
0.00010416
0.00010416
0.00010416
0.00010416
0.00010416
0.000104159
0.000104159
0.000104159
0.000104159
0.000104159
0.000104159
0.000104159
0.000104158
0.000104158
0.000104158
0.000104158
0.000104158
0.000104157
0.000104157
0.000104157
0.000104157
0.000104157
0.000104156
0.000104156
0.000104156
0.000104156
0.000104156
0.000104155
0.000104155
0.000104155
0.000104155
0.000104155
0.000104154
0.000104154
0.000104154
0.000104154
0.000104153
0.000104153
0.000104153
0.000104153
0.000104153
0.000104152
0.000104152
0.000104152
0.000104152
0.000104151
0.000104151
0.000104151
0.000104151
0.00010415
0.00010415
0.00010415
0.00010415
0.000104149
0.000104149
0.000104149
0.000104149
0.000104149
0.000104148
0.000104148
0.000104148
0.000104148
0.000104148
0.000104148
0.000104148
0.000104148
0.00010532
0.00010532
0.00010532
0.000105321
0.000105321
0.000105322
0.000105322
0.000105322
0.000105323
0.000105323
0.000105324
0.000105324
0.000105325
0.000105325
0.000105326
0.000105326
0.000105326
0.000105327
0.000105327
0.000105328
0.000105328
0.000105328
0.000105329
0.000105329
0.000105329
0.00010533
0.00010533
0.00010533
0.000105331
0.000105331
0.000105331
0.000105332
0.000105332
0.000105332
0.000105332
0.000105332
0.000105332
0.000105332
0.000105333
0.000105333
0.000105333
0.000105333
0.000105333
0.000105333
0.000105333
0.000105333
0.000105333
0.000105333
0.000105332
0.000105332
0.000105332
0.000105332
0.000105332
0.000105332
0.000105332
0.000105332
0.000105332
0.000105331
0.000105331
0.000105331
0.000105331
0.000105331
0.000105331
0.00010533
0.00010533
0.00010533
0.00010533
0.00010533
0.00010533
0.000105329
0.000105329
0.000105329
0.000105329
0.000105329
0.000105328
0.000105328
0.000105328
0.000105328
0.000105328
0.000105327
0.000105327
0.000105327
0.000105327
0.000105326
0.000105326
0.000105326
0.000105326
0.000105326
0.000105325
0.000105325
0.000105325
0.000105325
0.000105324
0.000105324
0.000105324
0.000105324
0.000105324
0.000105323
0.000105323
0.000105323
0.000105323
0.000105322
0.000105322
0.000105322
0.000105322
0.000105321
0.000105321
0.000105321
0.000105321
0.00010532
0.00010532
0.00010532
0.00010532
0.00010532
0.00010532
0.00010532
0.000105319
0.000105319
0.000105319
0.000105319
0.000106547
0.000106547
0.000106547
0.000106548
0.000106548
0.000106549
0.000106549
0.00010655
0.00010655
0.000106551
0.000106551
0.000106552
0.000106552
0.000106553
0.000106553
0.000106553
0.000106554
0.000106554
0.000106555
0.000106555
0.000106555
0.000106556
0.000106556
0.000106557
0.000106557
0.000106557
0.000106558
0.000106558
0.000106558
0.000106559
0.000106559
0.000106559
0.000106559
0.000106559
0.000106559
0.00010656
0.00010656
0.00010656
0.00010656
0.00010656
0.00010656
0.00010656
0.00010656
0.00010656
0.00010656
0.00010656
0.000106559
0.000106559
0.000106559
0.000106559
0.000106559
0.000106559
0.000106559
0.000106559
0.000106559
0.000106558
0.000106558
0.000106558
0.000106558
0.000106558
0.000106558
0.000106557
0.000106557
0.000106557
0.000106557
0.000106557
0.000106557
0.000106556
0.000106556
0.000106556
0.000106556
0.000106556
0.000106555
0.000106555
0.000106555
0.000106555
0.000106554
0.000106554
0.000106554
0.000106554
0.000106554
0.000106553
0.000106553
0.000106553
0.000106553
0.000106553
0.000106552
0.000106552
0.000106552
0.000106552
0.000106551
0.000106551
0.000106551
0.000106551
0.00010655
0.00010655
0.00010655
0.00010655
0.000106549
0.000106549
0.000106549
0.000106549
0.000106548
0.000106548
0.000106548
0.000106548
0.000106548
0.000106547
0.000106547
0.000106547
0.000106547
0.000106547
0.000106547
0.000106546
0.000106546
0.000106546
0.000106546
0.000106546
0.000106546
0.000106546
0.000107827
0.000107828
0.000107828
0.000107829
0.000107829
0.00010783
0.00010783
0.000107831
0.000107831
0.000107832
0.000107832
0.000107833
0.000107833
0.000107834
0.000107834
0.000107835
0.000107835
0.000107835
0.000107836
0.000107836
0.000107837
0.000107837
0.000107837
0.000107838
0.000107838
0.000107838
0.000107839
0.000107839
0.000107839
0.00010784
0.00010784
0.00010784
0.00010784
0.00010784
0.00010784
0.00010784
0.00010784
0.00010784
0.00010784
0.00010784
0.00010784
0.00010784
0.00010784
0.00010784
0.00010784
0.00010784
0.00010784
0.00010784
0.00010784
0.00010784
0.000107839
0.000107839
0.000107839
0.000107839
0.000107839
0.000107839
0.000107839
0.000107838
0.000107838
0.000107838
0.000107838
0.000107838
0.000107837
0.000107837
0.000107837
0.000107837
0.000107837
0.000107836
0.000107836
0.000107836
0.000107836
0.000107836
0.000107835
0.000107835
0.000107835
0.000107835
0.000107835
0.000107834
0.000107834
0.000107834
0.000107834
0.000107833
0.000107833
0.000107833
0.000107833
0.000107833
0.000107832
0.000107832
0.000107832
0.000107832
0.000107831
0.000107831
0.000107831
0.000107831
0.000107831
0.00010783
0.00010783
0.00010783
0.00010783
0.000107829
0.000107829
0.000107829
0.000107829
0.000107828
0.000107828
0.000107828
0.000107828
0.000107827
0.000107827
0.000107827
0.000107827
0.000107827
0.000107827
0.000107827
0.000107827
0.000107827
0.000107827
0.000107827
0.000107827
0.000107827
0.00010916
0.000109161
0.000109161
0.000109162
0.000109162
0.000109163
0.000109163
0.000109164
0.000109164
0.000109165
0.000109165
0.000109166
0.000109166
0.000109167
0.000109167
0.000109168
0.000109168
0.000109169
0.000109169
0.00010917
0.00010917
0.00010917
0.000109171
0.000109171
0.000109171
0.000109172
0.000109172
0.000109172
0.000109173
0.000109173
0.000109173
0.000109173
0.000109173
0.000109173
0.000109173
0.000109173
0.000109173
0.000109173
0.000109173
0.000109173
0.000109173
0.000109173
0.000109173
0.000109173
0.000109173
0.000109173
0.000109172
0.000109172
0.000109172
0.000109172
0.000109172
0.000109172
0.000109172
0.000109171
0.000109171
0.000109171
0.000109171
0.000109171
0.00010917
0.00010917
0.00010917
0.00010917
0.00010917
0.00010917
0.000109169
0.000109169
0.000109169
0.000109169
0.000109169
0.000109168
0.000109168
0.000109168
0.000109168
0.000109168
0.000109167
0.000109167
0.000109167
0.000109167
0.000109166
0.000109166
0.000109166
0.000109166
0.000109166
0.000109165
0.000109165
0.000109165
0.000109165
0.000109164
0.000109164
0.000109164
0.000109164
0.000109164
0.000109163
0.000109163
0.000109163
0.000109163
0.000109162
0.000109162
0.000109162
0.000109162
0.000109161
0.000109161
0.000109161
0.000109161
0.00010916
0.00010916
0.00010916
0.00010916
0.00010916
0.00010916
0.00010916
0.000109159
0.000109159
0.000109159
0.00010916
0.00010916
0.00010916
0.00010916
0.00010916
0.00010916
0.000110544
0.000110545
0.000110545
0.000110546
0.000110546
0.000110547
0.000110547
0.000110548
0.000110548
0.000110549
0.000110549
0.00011055
0.00011055
0.000110551
0.000110551
0.000110552
0.000110552
0.000110553
0.000110553
0.000110553
0.000110554
0.000110554
0.000110555
0.000110555
0.000110555
0.000110556
0.000110556
0.000110556
0.000110556
0.000110556
0.000110557
0.000110557
0.000110557
0.000110557
0.000110557
0.000110557
0.000110557
0.000110556
0.000110556
0.000110556
0.000110556
0.000110556
0.000110556
0.000110556
0.000110556
0.000110556
0.000110555
0.000110555
0.000110555
0.000110555
0.000110555
0.000110555
0.000110554
0.000110554
0.000110554
0.000110554
0.000110554
0.000110554
0.000110553
0.000110553
0.000110553
0.000110553
0.000110553
0.000110552
0.000110552
0.000110552
0.000110552
0.000110552