/*--------------------------------*- C++ -*----------------------------------*\
  =========                 |
  \\      /  F ield         | OpenFOAM: The Open Source CFD Toolbox
   \\    /   O peration     | Website:  https://openfoam.org
    \\  /    A nd           | Version:  7
     \\/     M anipulation  |
\*---------------------------------------------------------------------------*/
FoamFile
{
    version     2.0;
    format      ascii;
    class       volScalarField;
    location    "15500";
    object      omega;
}
// * * * * * * * * * * * * * * * * * * * * * * * * * * * * * * * * * * * * * //

dimensions      [0 0 -1 0 0 0 0];

internalField   nonuniform List<scalar> 
4000
(
0.0292827
0.0292756
0.0292755
0.0292768
0.0292783
0.0292798
0.0292812
0.0292826
0.029284
0.0292853
0.0292866
0.0292878
0.029289
0.0292901
0.0292913
0.0292924
0.0292935
0.0292945
0.0292956
0.0292967
0.0292977
0.0292988
0.0292998
0.0293009
0.0293019
0.029303
0.029304
0.029305
0.029306
0.029307
0.029308
0.0293089
0.0293098
0.0293107
0.0293116
0.0293125
0.0293133
0.0293142
0.029315
0.0293158
0.0293167
0.0293175
0.0293183
0.0293191
0.0293187
0.0293083
0.0293021
0.0293002
0.0293001
0.0293007
0.0293015
0.0293024
0.0293034
0.0293043
0.0293053
0.0293062
0.0293071
0.0293081
0.029309
0.02931
0.0293109
0.0293118
0.0293127
0.0293136
0.0293145
0.0293154
0.0293163
0.0293172
0.0293181
0.0293191
0.02932
0.0293208
0.0293217
0.0293226
0.0293235
0.0293243
0.0293251
0.0293259
0.0293267
0.0293275
0.0293283
0.029329
0.0293298
0.0293305
0.0293312
0.0293319
0.0293326
0.0293332
0.0293339
0.0293345
0.0293352
0.0293358
0.0293364
0.029337
0.0293375
0.0293381
0.0293386
0.0293392
0.0293397
0.0293402
0.0293407
0.0293412
0.0293417
0.029341
0.0293303
0.0293238
0.0293215
0.0293211
0.0293214
0.0293219
0.0293224
0.029323
0.0293236
0.0293242
0.0293248
0.0293254
0.029326
0.0293265
0.0293273
0.0293216
0.0294279
0.0294204
0.0294196
0.0294204
0.0294216
0.0294229
0.0294241
0.0294254
0.0294266
0.0294278
0.0294289
0.0294301
0.0294312
0.0294322
0.0294333
0.0294343
0.0294353
0.0294363
0.0294373
0.0294383
0.0294393
0.0294403
0.0294412
0.0294422
0.0294432
0.0294442
0.0294452
0.0294462
0.0294471
0.0294481
0.029449
0.0294499
0.0294508
0.0294516
0.0294525
0.0294533
0.0294541
0.0294549
0.0294557
0.0294565
0.0294572
0.029458
0.0294588
0.0294595
0.02946
0.0294569
0.0294531
0.0294504
0.029449
0.0294484
0.0294484
0.0294486
0.029449
0.0294495
0.0294501
0.0294507
0.0294514
0.0294521
0.0294528
0.0294536
0.0294543
0.0294551
0.0294559
0.0294566
0.0294574
0.0294582
0.029459
0.0294598
0.0294606
0.0294614
0.0294622
0.029463
0.0294638
0.0294646
0.0294654
0.0294661
0.0294669
0.0294677
0.0294684
0.0294691
0.0294698
0.0294705
0.0294712
0.0294719
0.0294726
0.0294732
0.0294739
0.0294745
0.0294751
0.0294757
0.0294763
0.0294769
0.0294774
0.029478
0.0294785
0.0294791
0.0294796
0.0294801
0.0294806
0.0294811
0.0294816
0.029482
0.0294825
0.0294826
0.0294793
0.0294751
0.0294721
0.0294703
0.0294695
0.0294691
0.029469
0.0294691
0.0294692
0.0294695
0.0294698
0.0294701
0.0294705
0.0294708
0.0294714
0.0294661
0.0296828
0.0296752
0.0296742
0.0296747
0.0296756
0.0296766
0.0296777
0.0296788
0.0296798
0.0296809
0.0296819
0.029683
0.029684
0.0296849
0.0296859
0.0296868
0.0296878
0.0296887
0.0296896
0.0296905
0.0296915
0.0296924
0.0296933
0.0296942
0.0296952
0.0296961
0.029697
0.029698
0.0296989
0.0296998
0.0297006
0.0297015
0.0297023
0.0297032
0.029704
0.0297048
0.0297055
0.0297063
0.0297071
0.0297078
0.0297085
0.0297093
0.02971
0.0297107
0.0297113
0.0297107
0.0297092
0.0297074
0.0297061
0.0297052
0.0297047
0.0297046
0.0297046
0.0297049
0.0297052
0.0297056
0.029706
0.0297065
0.0297071
0.0297077
0.0297083
0.0297089
0.0297095
0.0297102
0.0297108
0.0297115
0.0297122
0.0297129
0.0297136
0.0297143
0.0297151
0.0297158
0.0297165
0.0297172
0.029718
0.0297187
0.0297194
0.0297201
0.0297207
0.0297214
0.0297221
0.0297227
0.0297234
0.029724
0.0297246
0.0297253
0.0297259
0.0297265
0.029727
0.0297276
0.0297282
0.0297287
0.0297293
0.0297298
0.0297303
0.0297308
0.0297313
0.0297318
0.0297323
0.0297327
0.0297332
0.0297336
0.029734
0.0297344
0.0297335
0.0297316
0.0297296
0.0297279
0.0297268
0.029726
0.0297255
0.0297252
0.0297251
0.0297251
0.0297251
0.0297253
0.0297254
0.0297256
0.029726
0.0297209
0.0300446
0.030037
0.0300359
0.0300363
0.030037
0.0300378
0.0300387
0.0300397
0.0300406
0.0300415
0.0300425
0.0300434
0.0300443
0.0300452
0.030046
0.0300469
0.0300478
0.0300486
0.0300495
0.0300503
0.0300512
0.0300521
0.0300529
0.0300538
0.0300547
0.0300556
0.0300565
0.0300573
0.0300582
0.0300591
0.0300599
0.0300607
0.0300615
0.0300623
0.0300631
0.0300638
0.0300646
0.0300653
0.030066
0.0300667
0.0300674
0.0300681
0.0300688
0.0300695
0.0300701
0.0300704
0.03007
0.0300693
0.0300685
0.0300678
0.0300674
0.0300671
0.030067
0.0300671
0.0300672
0.0300675
0.0300678
0.0300682
0.0300686
0.030069
0.0300695
0.03007
0.0300706
0.0300711
0.0300717
0.0300723
0.0300729
0.0300735
0.0300742
0.0300748
0.0300755
0.0300761
0.0300768
0.0300774
0.0300781
0.0300788
0.0300794
0.0300801
0.0300807
0.0300813
0.030082
0.0300826
0.0300832
0.0300838
0.0300844
0.030085
0.0300855
0.0300861
0.0300867
0.0300872
0.0300877
0.0300883
0.0300888
0.0300893
0.0300898
0.0300903
0.0300907
0.0300912
0.0300916
0.0300921
0.0300925
0.0300929
0.0300934
0.0300937
0.0300937
0.0300931
0.030092
0.030091
0.03009
0.0300892
0.0300886
0.0300882
0.0300879
0.0300878
0.0300877
0.0300877
0.0300877
0.0300878
0.0300881
0.0300829
0.0305117
0.030504
0.0305028
0.0305031
0.0305037
0.0305044
0.0305052
0.030506
0.0305068
0.0305077
0.0305085
0.0305093
0.0305101
0.0305109
0.0305117
0.0305125
0.0305133
0.0305141
0.0305149
0.0305157
0.0305165
0.0305173
0.0305181
0.030519
0.0305198
0.0305206
0.0305215
0.0305223
0.0305231
0.030524
0.0305248
0.0305255
0.0305263
0.030527
0.0305278
0.0305285
0.0305292
0.0305299
0.0305306
0.0305313
0.030532
0.0305326
0.0305333
0.0305339
0.0305346
0.0305351
0.0305353
0.0305352
0.0305349
0.0305346
0.0305344
0.0305342
0.0305341
0.0305342
0.0305343
0.0305344
0.0305347
0.030535
0.0305353
0.0305357
0.0305361
0.0305365
0.030537
0.0305375
0.030538
0.0305385
0.0305391
0.0305396
0.0305402
0.0305408
0.0305414
0.030542
0.0305426
0.0305432
0.0305439
0.0305445
0.0305451
0.0305457
0.0305463
0.0305469
0.0305475
0.0305481
0.0305487
0.0305493
0.0305498
0.0305504
0.0305509
0.0305515
0.030552
0.0305525
0.030553
0.0305535
0.030554
0.0305545
0.030555
0.0305555
0.0305559
0.0305564
0.0305568
0.0305572
0.0305576
0.0305581
0.0305584
0.0305588
0.0305591
0.030559
0.0305586
0.0305581
0.0305575
0.030557
0.0305565
0.0305561
0.0305558
0.0305556
0.0305554
0.0305554
0.0305553
0.0305553
0.0305555
0.0305504
0.0310832
0.0310754
0.0310741
0.0310743
0.0310748
0.0310754
0.0310761
0.0310768
0.0310776
0.0310783
0.031079
0.0310798
0.0310805
0.0310812
0.031082
0.0310827
0.0310834
0.0310842
0.0310849
0.0310856
0.0310864
0.0310872
0.0310879
0.0310887
0.0310895
0.0310903
0.0310911
0.0310919
0.0310927
0.0310935
0.0310942
0.031095
0.0310957
0.0310964
0.0310971
0.0310978
0.0310985
0.0310992
0.0310998
0.0311005
0.0311011
0.0311018
0.0311024
0.031103
0.0311037
0.0311042
0.0311047
0.031105
0.0311051
0.0311051
0.0311051
0.0311051
0.0311051
0.0311052
0.0311053
0.0311055
0.0311057
0.031106
0.0311063
0.0311066
0.031107
0.0311074
0.0311078
0.0311083
0.0311088
0.0311092
0.0311097
0.0311103
0.0311108
0.0311114
0.0311119
0.0311125
0.0311131
0.0311137
0.0311143
0.0311148
0.0311154
0.031116
0.0311166
0.0311172
0.0311177
0.0311183
0.0311189
0.0311194
0.03112
0.0311205
0.031121
0.0311216
0.0311221
0.0311226
0.0311231
0.0311236
0.0311241
0.0311246
0.031125
0.0311255
0.0311259
0.0311263
0.0311268
0.0311272
0.0311276
0.031128
0.0311284
0.0311288
0.0311291
0.0311293
0.0311293
0.0311291
0.0311289
0.0311286
0.0311283
0.031128
0.0311278
0.0311276
0.0311274
0.0311273
0.0311273
0.0311273
0.0311275
0.0311224
0.0317591
0.031751
0.0317497
0.0317498
0.0317503
0.0317508
0.0317514
0.0317521
0.0317527
0.0317534
0.031754
0.0317547
0.0317554
0.031756
0.0317567
0.0317574
0.031758
0.0317587
0.0317594
0.0317601
0.0317608
0.0317615
0.0317623
0.031763
0.0317638
0.0317645
0.0317653
0.0317661
0.0317668
0.0317676
0.0317683
0.031769
0.0317697
0.0317704
0.0317711
0.0317717
0.0317724
0.031773
0.0317737
0.0317743
0.0317749
0.0317755
0.0317761
0.0317767
0.0317774
0.0317779
0.0317785
0.0317789
0.0317793
0.0317795
0.0317797
0.0317799
0.0317801
0.0317802
0.0317804
0.0317807
0.0317809
0.0317812
0.0317815
0.0317818
0.0317822
0.0317826
0.031783
0.0317835
0.0317839
0.0317844
0.0317849
0.0317854
0.0317859
0.0317864
0.031787
0.0317875
0.0317881
0.0317887
0.0317892
0.0317898
0.0317904
0.0317909
0.0317915
0.0317921
0.0317926
0.0317932
0.0317937
0.0317943
0.0317948
0.0317953
0.0317959
0.0317964
0.0317969
0.0317974
0.0317979
0.0317984
0.0317988
0.0317993
0.0317998
0.0318002
0.0318007
0.0318011
0.0318015
0.0318019
0.0318023
0.0318027
0.0318031
0.0318035
0.0318038
0.0318041
0.0318043
0.0318044
0.0318044
0.0318043
0.0318042
0.031804
0.0318039
0.0318038
0.0318037
0.0318037
0.0318036
0.0318036
0.0318038
0.0317988
0.0325401
0.0325319
0.0325304
0.0325305
0.0325309
0.0325314
0.0325319
0.0325325
0.0325331
0.0325337
0.0325343
0.0325349
0.0325355
0.0325361
0.0325367
0.0325373
0.0325379
0.0325385
0.0325392
0.0325398
0.0325405
0.0325412
0.0325419
0.0325426
0.0325433
0.032544
0.0325448
0.0325455
0.0325462
0.0325469
0.0325476
0.0325483
0.032549
0.0325496
0.0325503
0.0325509
0.0325515
0.0325522
0.0325528
0.0325534
0.032554
0.0325546
0.0325552
0.0325558
0.0325564
0.032557
0.0325575
0.0325581
0.0325585
0.0325589
0.0325593
0.0325596
0.0325599
0.0325602
0.0325605
0.0325608
0.0325611
0.0325614
0.0325617
0.0325621
0.0325625
0.0325629
0.0325633
0.0325638
0.0325642
0.0325647
0.0325652
0.0325657
0.0325662
0.0325668
0.0325673
0.0325678
0.0325684
0.032569
0.0325695
0.0325701
0.0325707
0.0325712
0.0325718
0.0325723
0.0325729
0.0325735
0.032574
0.0325745
0.0325751
0.0325756
0.0325761
0.0325766
0.0325772
0.0325777
0.0325781
0.0325786
0.0325791
0.0325796
0.03258
0.0325805
0.0325809
0.0325813
0.0325818
0.0325822
0.0325826
0.032583
0.0325834
0.0325837
0.0325841
0.0325844
0.0325847
0.0325849
0.0325851
0.0325851
0.0325852
0.0325852
0.0325852
0.0325852
0.0325851
0.0325851
0.0325852
0.0325852
0.0325854
0.0325805
0.0334279
0.0334194
0.0334178
0.0334178
0.0334181
0.0334186
0.0334191
0.0334196
0.0334201
0.0334207
0.0334212
0.0334217
0.0334223
0.0334228
0.0334234
0.033424
0.0334245
0.0334251
0.0334257
0.0334263
0.0334269
0.0334276
0.0334283
0.0334289
0.0334296
0.0334303
0.033431
0.0334317
0.0334324
0.033433
0.0334337
0.0334344
0.033435
0.0334356
0.0334363
0.0334369
0.0334375
0.0334381
0.0334387
0.0334393
0.0334399
0.0334405
0.033441
0.0334416
0.0334422
0.0334428
0.0334434
0.033444
0.0334445
0.033445
0.0334454
0.0334459
0.0334463
0.0334467
0.0334471
0.0334474
0.0334478
0.0334482
0.0334486
0.033449
0.0334495
0.0334499
0.0334504
0.0334508
0.0334513
0.0334518
0.0334523
0.0334528
0.0334534
0.0334539
0.0334545
0.033455
0.0334556
0.0334561
0.0334567
0.0334573
0.0334578
0.0334584
0.033459
0.0334596
0.0334601
0.0334607
0.0334612
0.0334618
0.0334623
0.0334629
0.0334634
0.0334639
0.0334644
0.0334649
0.0334654
0.0334659
0.0334664
0.0334669
0.0334673
0.0334678
0.0334682
0.0334687
0.0334691
0.0334695
0.0334699
0.0334703
0.0334707
0.0334711
0.0334715
0.0334718
0.0334721
0.0334724
0.0334727
0.0334729
0.033473
0.0334731
0.0334732
0.0334733
0.0334734
0.0334734
0.0334735
0.0334736
0.0334738
0.0334691
0.0344247
0.0344159
0.0344143
0.0344142
0.0344144
0.0344148
0.0344153
0.0344157
0.0344162
0.0344167
0.0344171
0.0344176
0.0344181
0.0344186
0.0344191
0.0344196
0.0344202
0.0344207
0.0344212
0.0344218
0.0344224
0.034423
0.0344236
0.0344243
0.0344249
0.0344256
0.0344262
0.0344269
0.0344275
0.0344282
0.0344288
0.0344295
0.0344301
0.0344307
0.0344313
0.0344319
0.0344325
0.034433
0.0344336
0.0344342
0.0344348
0.0344354
0.034436
0.0344365
0.0344371
0.0344377
0.0344383
0.0344389
0.0344395
0.03444
0.0344406
0.0344411
0.0344416
0.0344421
0.0344425
0.034443
0.0344435
0.0344439
0.0344444
0.0344449
0.0344454
0.0344458
0.0344463
0.0344469
0.0344474
0.0344479
0.0344484
0.034449
0.0344496
0.0344501
0.0344507
0.0344513
0.0344519
0.0344524
0.034453
0.0344536
0.0344542
0.0344548
0.0344554
0.034456
0.0344565
0.0344571
0.0344577
0.0344583
0.0344588
0.0344594
0.0344599
0.0344604
0.034461
0.0344615
0.034462
0.0344625
0.034463
0.0344635
0.0344639
0.0344644
0.0344649
0.0344653
0.0344658
0.0344662
0.0344666
0.034467
0.0344674
0.0344678
0.0344682
0.0344686
0.0344689
0.0344692
0.0344695
0.0344698
0.0344701
0.0344703
0.0344704
0.0344706
0.0344707
0.0344709
0.034471
0.0344711
0.0344714
0.0344669
0.0355336
0.0355245
0.0355227
0.0355225
0.0355227
0.035523
0.0355234
0.0355238
0.0355242
0.0355246
0.035525
0.0355254
0.0355259
0.0355263
0.0355268
0.0355272
0.0355277
0.0355282
0.0355287
0.0355292
0.0355298
0.0355303
0.0355309
0.0355315
0.0355321
0.0355328
0.0355334
0.035534
0.0355346
0.0355352
0.0355359
0.0355364
0.035537
0.0355376
0.0355382
0.0355388
0.0355394
0.0355399
0.0355405
0.0355411
0.0355417
0.0355422
0.0355428
0.0355434
0.035544
0.0355446
0.0355452
0.0355459
0.0355465
0.0355471
0.0355477
0.0355483
0.0355488
0.0355494
0.0355499
0.0355505
0.035551
0.0355516
0.0355521
0.0355526
0.0355532
0.0355537
0.0355543
0.0355549
0.0355554
0.035556
0.0355566
0.0355572
0.0355578
0.0355584
0.035559
0.0355596
0.0355602
0.0355609
0.0355615
0.0355621
0.0355627
0.0355633
0.0355639
0.0355645
0.0355651
0.0355657
0.0355663
0.0355669
0.0355675
0.0355681
0.0355686
0.0355692
0.0355697
0.0355703
0.0355708
0.0355713
0.0355718
0.0355723
0.0355728
0.0355733
0.0355738
0.0355742
0.0355747
0.0355751
0.0355756
0.035576
0.0355764
0.0355768
0.0355772
0.0355776
0.035578
0.0355784
0.0355787
0.035579
0.0355793
0.0355796
0.0355798
0.03558
0.0355803
0.0355804
0.0355806
0.0355808
0.0355812
0.0355768
0.0367581
0.0367487
0.0367467
0.0367464
0.0367465
0.0367467
0.036747
0.0367473
0.0367477
0.036748
0.0367484
0.0367488
0.0367491
0.0367495
0.0367499
0.0367503
0.0367507
0.0367512
0.0367516
0.0367521
0.0367526
0.0367531
0.0367537
0.0367542
0.0367548
0.0367554
0.036756
0.0367566
0.0367572
0.0367577
0.0367583
0.0367589
0.0367595
0.03676
0.0367606
0.0367612
0.0367617
0.0367623
0.0367629
0.0367635
0.036764
0.0367646
0.0367652
0.0367659
0.0367665
0.0367671
0.0367678
0.0367684
0.036769
0.0367697
0.0367703
0.036771
0.0367716
0.0367723
0.0367729
0.0367735
0.0367741
0.0367748
0.0367754
0.036776
0.0367766
0.0367773
0.0367779
0.0367785
0.0367791
0.0367798
0.0367804
0.0367811
0.0367817
0.0367824
0.036783
0.0367837
0.0367843
0.036785
0.0367857
0.0367863
0.036787
0.0367876
0.0367883
0.0367889
0.0367895
0.0367902
0.0367908
0.0367914
0.036792
0.0367926
0.0367932
0.0367938
0.0367944
0.0367949
0.0367955
0.036796
0.0367966
0.0367971
0.0367976
0.0367981
0.0367986
0.0367991
0.0367996
0.0368
0.0368005
0.0368009
0.0368014
0.0368018
0.0368022
0.0368026
0.036803
0.0368034
0.0368038
0.0368041
0.0368045
0.0368048
0.0368051
0.0368054
0.0368056
0.0368058
0.0368061
0.0368062
0.0368067
0.0368025
0.0381025
0.0380927
0.0380906
0.0380901
0.0380901
0.0380903
0.0380905
0.0380907
0.038091
0.0380912
0.0380915
0.0380918
0.0380921
0.0380924
0.0380927
0.0380931
0.0380934
0.0380938
0.0380942
0.0380946
0.0380951
0.0380956
0.0380961
0.0380966
0.0380971
0.0380977
0.0380982
0.0380988
0.0380993
0.0380999
0.0381005
0.038101
0.0381015
0.0381021
0.0381026
0.0381032
0.0381038
0.0381044
0.0381049
0.0381055
0.0381061
0.0381068
0.0381074
0.0381081
0.0381087
0.0381094
0.0381101
0.0381108
0.0381115
0.0381122
0.0381129
0.0381136
0.0381143
0.038115
0.0381157
0.0381164
0.0381171
0.0381178
0.0381185
0.0381193
0.03812
0.0381207
0.0381214
0.0381221
0.0381228
0.0381235
0.0381242
0.0381249
0.0381256
0.0381263
0.038127
0.0381277
0.0381284
0.0381292
0.0381299
0.0381306
0.0381313
0.038132
0.0381326
0.0381333
0.038134
0.0381347
0.0381353
0.038136
0.0381366
0.0381373
0.0381379
0.0381385
0.0381391
0.0381397
0.0381403
0.0381409
0.0381414
0.038142
0.0381425
0.038143
0.0381436
0.0381441
0.0381446
0.0381451
0.0381455
0.038146
0.0381465
0.0381469
0.0381474
0.0381478
0.0381482
0.0381487
0.0381491
0.0381495
0.0381498
0.0381502
0.0381505
0.0381508
0.0381511
0.0381514
0.0381516
0.0381518
0.0381522
0.0381483
0.0395717
0.0395615
0.0395591
0.0395585
0.0395584
0.0395584
0.0395585
0.0395586
0.0395588
0.039559
0.0395591
0.0395594
0.0395596
0.0395598
0.0395601
0.0395603
0.0395606
0.0395609
0.0395613
0.0395616
0.039562
0.0395625
0.0395629
0.0395634
0.0395639
0.0395644
0.0395649
0.0395654
0.039566
0.0395665
0.039567
0.0395676
0.0395681
0.0395686
0.0395692
0.0395697
0.0395703
0.0395709
0.0395715
0.0395722
0.0395728
0.0395735
0.0395742
0.0395749
0.0395756
0.0395763
0.0395771
0.0395778
0.0395786
0.0395793
0.0395801
0.0395809
0.0395817
0.0395825
0.0395833
0.0395841
0.0395849
0.0395857
0.0395865
0.0395873
0.0395881
0.0395889
0.0395896
0.0395904
0.0395912
0.039592
0.0395928
0.0395936
0.0395943
0.0395951
0.0395959
0.0395967
0.0395974
0.0395982
0.039599
0.0395997
0.0396005
0.0396012
0.039602
0.0396027
0.0396034
0.0396041
0.0396048
0.0396055
0.0396062
0.0396069
0.0396075
0.0396082
0.0396088
0.0396095
0.0396101
0.0396107
0.0396113
0.0396119
0.0396124
0.039613
0.0396136
0.0396141
0.0396146
0.0396151
0.0396157
0.0396162
0.0396167
0.0396171
0.0396176
0.0396181
0.0396185
0.039619
0.0396194
0.0396198
0.0396202
0.0396206
0.039621
0.0396213
0.0396216
0.0396218
0.0396221
0.0396223
0.0396227
0.0396189
0.0411711
0.0411604
0.0411578
0.041157
0.0411567
0.0411566
0.0411566
0.0411565
0.0411566
0.0411566
0.0411567
0.0411568
0.041157
0.0411571
0.0411573
0.0411575
0.0411577
0.0411579
0.0411582
0.0411585
0.0411588
0.0411592
0.0411596
0.04116
0.0411605
0.041161
0.0411614
0.0411619
0.0411624
0.0411629
0.0411634
0.0411639
0.0411645
0.041165
0.0411656
0.0411662
0.0411668
0.0411674
0.0411681
0.0411688
0.0411695
0.0411702
0.041171
0.0411717
0.0411725
0.0411733
0.0411742
0.041175
0.0411759
0.0411767
0.0411776
0.0411785
0.0411794
0.0411802
0.0411811
0.041182
0.0411829
0.0411838
0.0411847
0.0411856
0.0411865
0.0411874
0.0411882
0.0411891
0.04119
0.0411908
0.0411917
0.0411926
0.0411934
0.0411943
0.0411951
0.041196
0.0411968
0.0411976
0.0411985
0.0411993
0.0412001
0.0412009
0.0412017
0.0412025
0.0412033
0.041204
0.0412048
0.0412055
0.0412062
0.0412069
0.0412077
0.0412084
0.041209
0.0412097
0.0412104
0.041211
0.0412116
0.0412123
0.0412129
0.0412135
0.0412141
0.0412146
0.0412152
0.0412157
0.0412163
0.0412168
0.0412173
0.0412179
0.0412184
0.0412189
0.0412194
0.0412198
0.0412203
0.0412207
0.0412211
0.0412215
0.0412219
0.0412222
0.0412225
0.0412228
0.041223
0.0412231
0.0412235
0.04122
0.0429066
0.0428953
0.0428925
0.0428915
0.042891
0.0428907
0.0428905
0.0428904
0.0428903
0.0428902
0.0428902
0.0428902
0.0428902
0.0428902
0.0428903
0.0428904
0.0428905
0.0428907
0.0428909
0.0428911
0.0428914
0.0428917
0.0428921
0.0428924
0.0428929
0.0428933
0.0428937
0.0428942
0.0428946
0.0428951
0.0428956
0.0428961
0.0428967
0.0428973
0.0428979
0.0428985
0.0428992
0.0428999
0.0429006
0.0429014
0.0429022
0.042903
0.0429039
0.0429047
0.0429056
0.0429065
0.0429075
0.0429084
0.0429094
0.0429103
0.0429113
0.0429123
0.0429133
0.0429143
0.0429153
0.0429163
0.0429173
0.0429183
0.0429193
0.0429203
0.0429213
0.0429222
0.0429232
0.0429242
0.0429252
0.0429261
0.0429271
0.042928
0.042929
0.0429299
0.0429308
0.0429317
0.0429327
0.0429336
0.0429345
0.0429353
0.0429362
0.0429371
0.0429379
0.0429388
0.0429396
0.0429404
0.0429412
0.042942
0.0429428
0.0429435
0.0429443
0.042945
0.0429458
0.0429465
0.0429472
0.0429479
0.0429485
0.0429492
0.0429499
0.0429505
0.0429511
0.0429517
0.0429523
0.0429529
0.0429535
0.0429541
0.0429546
0.0429552
0.0429557
0.0429562
0.0429568
0.0429573
0.0429577
0.0429582
0.0429586
0.042959
0.0429593
0.0429596
0.0429599
0.0429601
0.0429602
0.0429603
0.0429607
0.0429573
0.0447848
0.0447729
0.0447697
0.0447685
0.0447678
0.0447674
0.044767
0.0447666
0.0447664
0.0447662
0.044766
0.0447658
0.0447657
0.0447657
0.0447656
0.0447656
0.0447657
0.0447657
0.0447659
0.044766
0.0447662
0.0447665
0.0447668
0.0447671
0.0447675
0.0447679
0.0447683
0.0447687
0.0447691
0.0447696
0.0447701
0.0447707
0.0447713
0.0447719
0.0447726
0.0447733
0.0447741
0.0447749
0.0447757
0.0447766
0.0447775
0.0447785
0.0447795
0.0447805
0.0447815
0.0447826
0.0447836
0.0447847
0.0447858
0.0447869
0.044788
0.0447891
0.0447902
0.0447913
0.0447924
0.0447936
0.0447947
0.0447958
0.0447969
0.044798
0.0447991
0.0448002
0.0448013
0.0448023
0.0448034
0.0448045
0.0448055
0.0448066
0.0448076
0.0448086
0.0448096
0.0448106
0.0448116
0.0448126
0.0448135
0.0448145
0.0448154
0.0448164
0.0448173
0.0448182
0.0448191
0.0448199
0.0448208
0.0448216
0.0448225
0.0448233
0.0448241
0.0448249
0.0448257
0.0448264
0.0448272
0.0448279
0.0448286
0.0448293
0.04483
0.0448307
0.0448313
0.044832
0.0448326
0.0448333
0.0448339
0.0448345
0.0448351
0.0448357
0.0448362
0.0448368
0.0448373
0.0448379
0.0448383
0.0448388
0.0448392
0.0448395
0.0448398
0.0448401
0.0448402
0.0448404
0.0448404
0.0448404
0.0448406
0.0448374
0.0468126
0.0468001
0.0467965
0.0467951
0.0467942
0.0467934
0.0467928
0.0467923
0.0467919
0.0467915
0.0467912
0.0467909
0.0467907
0.0467905
0.0467903
0.0467902
0.0467901
0.0467901
0.0467902
0.0467903
0.0467904
0.0467906
0.0467909
0.0467911
0.0467915
0.0467918
0.0467922
0.0467926
0.046793
0.0467935
0.0467941
0.0467947
0.0467954
0.0467961
0.0467969
0.0467978
0.0467987
0.0467996
0.0468006
0.0468017
0.0468028
0.0468039
0.046805
0.0468062
0.0468074
0.0468086
0.0468098
0.046811
0.0468123
0.0468135
0.0468148
0.046816
0.0468173
0.0468185
0.0468198
0.046821
0.0468223
0.0468235
0.0468247
0.046826
0.0468272
0.0468284
0.0468296
0.0468308
0.0468319
0.0468331
0.0468342
0.0468354
0.0468365
0.0468376
0.0468387
0.0468398
0.0468409
0.0468419
0.046843
0.046844
0.046845
0.046846
0.046847
0.0468479
0.0468489
0.0468498
0.0468507
0.0468516
0.0468525
0.0468534
0.0468542
0.0468551
0.0468559
0.0468567
0.0468575
0.0468583
0.046859
0.0468598
0.0468605
0.0468612
0.0468619
0.0468626
0.0468633
0.046864
0.0468646
0.0468653
0.0468659
0.0468665
0.0468671
0.0468677
0.0468683
0.0468688
0.0468693
0.0468697
0.04687
0.0468703
0.0468705
0.0468706
0.0468707
0.0468706
0.0468705
0.0468703
0.0468704
0.0468673
0.0489977
0.0489844
0.0489805
0.0489787
0.0489775
0.0489765
0.0489757
0.048975
0.0489743
0.0489738
0.0489733
0.0489729
0.0489725
0.0489722
0.0489719
0.0489717
0.0489715
0.0489714
0.0489714
0.0489714
0.0489715
0.0489716
0.0489718
0.0489721
0.0489723
0.0489727
0.048973
0.0489734
0.0489739
0.0489745
0.0489751
0.0489759
0.0489767
0.0489776
0.0489785
0.0489796
0.0489807
0.0489818
0.048983
0.0489843
0.0489856
0.0489869
0.0489883
0.0489896
0.048991
0.0489924
0.0489938
0.0489952
0.0489967
0.0489981
0.0489995
0.0490009
0.0490023
0.0490037
0.0490051
0.0490065
0.0490079
0.0490092
0.0490106
0.049012
0.0490133
0.0490146
0.0490159
0.0490172
0.0490185
0.0490197
0.049021
0.0490222
0.0490235
0.0490247
0.0490258
0.049027
0.0490281
0.0490293
0.0490304
0.0490315
0.0490326
0.0490336
0.0490347
0.0490357
0.0490367
0.0490377
0.0490387
0.0490396
0.0490406
0.0490415
0.0490424
0.0490433
0.0490442
0.049045
0.0490459
0.0490467
0.0490475
0.0490483
0.049049
0.0490498
0.0490506
0.0490513
0.049052
0.0490527
0.0490534
0.0490541
0.0490548
0.0490554
0.0490561
0.0490567
0.0490572
0.0490577
0.0490582
0.0490585
0.0490587
0.0490589
0.0490589
0.0490588
0.0490586
0.0490584
0.0490581
0.0490577
0.0490575
0.0490546
0.0513479
0.0513338
0.0513294
0.0513273
0.0513258
0.0513246
0.0513235
0.0513226
0.0513218
0.051321
0.0513203
0.0513198
0.0513192
0.0513188
0.0513184
0.0513181
0.0513178
0.0513176
0.0513175
0.0513175
0.0513175
0.0513176
0.0513178
0.051318
0.0513182
0.0513185
0.0513189
0.0513194
0.05132
0.0513207
0.0513215
0.0513224
0.0513234
0.0513245
0.0513258
0.051327
0.0513284
0.0513298
0.0513313
0.0513328
0.0513344
0.0513359
0.0513375
0.0513391
0.0513407
0.0513424
0.051344
0.0513456
0.0513472
0.0513488
0.0513504
0.051352
0.0513535
0.0513551
0.0513567
0.0513582
0.0513597
0.0513612
0.0513627
0.0513642
0.0513657
0.0513671
0.0513685
0.0513699
0.0513713
0.0513727
0.051374
0.0513754
0.0513767
0.051378
0.0513792
0.0513805
0.0513817
0.0513829
0.0513841
0.0513853
0.0513864
0.0513876
0.0513887
0.0513898
0.0513908
0.0513919
0.0513929
0.0513939
0.0513949
0.0513959
0.0513968
0.0513978
0.0513987
0.0513996
0.0514005
0.0514013
0.0514022
0.051403
0.0514038
0.0514046
0.0514054
0.0514062
0.051407
0.0514077
0.0514085
0.0514092
0.0514099
0.0514106
0.0514112
0.0514118
0.0514124
0.0514128
0.0514131
0.0514133
0.0514133
0.0514132
0.051413
0.0514126
0.0514122
0.0514117
0.0514111
0.0514104
0.0514099
0.0514071
0.0538717
0.0538568
0.0538519
0.0538495
0.0538477
0.0538462
0.0538449
0.0538437
0.0538426
0.0538417
0.0538409
0.0538401
0.0538395
0.0538389
0.0538384
0.053838
0.0538376
0.0538374
0.0538372
0.0538371
0.0538371
0.0538372
0.0538373
0.0538375
0.0538377
0.0538381
0.0538386
0.0538392
0.0538399
0.0538408
0.0538419
0.0538431
0.0538444
0.0538459
0.0538474
0.053849
0.0538507
0.0538525
0.0538543
0.0538561
0.0538579
0.0538598
0.0538617
0.0538635
0.0538654
0.0538672
0.0538691
0.0538709
0.0538727
0.0538745
0.0538763
0.0538781
0.0538798
0.0538816
0.0538833
0.053885
0.0538866
0.0538883
0.0538899
0.0538915
0.0538931
0.0538947
0.0538962
0.0538977
0.0538992
0.0539007
0.0539021
0.0539035
0.0539049
0.0539063
0.0539077
0.053909
0.0539103
0.0539116
0.0539128
0.0539141
0.0539153
0.0539165
0.0539177
0.0539188
0.0539199
0.053921
0.0539221
0.0539232
0.0539242
0.0539253
0.0539263
0.0539272
0.0539282
0.0539292
0.0539301
0.053931
0.0539319
0.0539328
0.0539336
0.0539345
0.0539353
0.0539361
0.0539369
0.0539377
0.0539385
0.0539392
0.05394
0.0539407
0.0539413
0.0539419
0.0539423
0.0539426
0.0539427
0.0539426
0.0539424
0.0539419
0.0539413
0.0539405
0.0539397
0.0539388
0.0539379
0.0539368
0.053936
0.0539333
0.056578
0.0565623
0.0565569
0.0565541
0.056552
0.0565502
0.0565486
0.0565472
0.056546
0.0565449
0.0565439
0.056543
0.0565422
0.0565415
0.056541
0.0565405
0.05654
0.0565397
0.0565395
0.0565394
0.0565393
0.0565394
0.0565395
0.0565397
0.05654
0.0565404
0.0565411
0.0565419
0.056543
0.0565442
0.0565456
0.0565473
0.056549
0.0565509
0.0565529
0.0565549
0.056557
0.0565591
0.0565613
0.0565635
0.0565656
0.0565678
0.05657
0.0565722
0.0565743
0.0565764
0.0565785
0.0565805
0.0565826
0.0565846
0.0565865
0.0565885
0.0565904
0.0565923
0.0565942
0.056596
0.0565978
0.0565996
0.0566014
0.0566031
0.0566048
0.0566065
0.0566082
0.0566098
0.0566114
0.0566129
0.0566145
0.056616
0.0566175
0.0566189
0.0566204
0.0566218
0.0566231
0.0566245
0.0566258
0.0566271
0.0566284
0.0566296
0.0566309
0.0566321
0.0566333
0.0566344
0.0566355
0.0566367
0.0566377
0.0566388
0.0566399
0.0566409
0.0566419
0.0566429
0.0566439
0.0566448
0.0566457
0.0566467
0.0566476
0.0566484
0.0566493
0.0566502
0.056651
0.0566518
0.0566526
0.0566534
0.0566542
0.0566549
0.0566555
0.0566559
0.0566562
0.0566562
0.0566559
0.0566554
0.0566546
0.0566537
0.0566526
0.0566513
0.05665
0.0566487
0.0566473
0.0566459
0.0566447
0.0566421
0.0594761
0.0594595
0.0594537
0.0594506
0.0594481
0.0594461
0.0594443
0.0594426
0.0594412
0.05944
0.0594388
0.0594378
0.059437
0.0594362
0.0594356
0.059435
0.0594346
0.0594342
0.059434
0.0594338
0.0594337
0.0594338
0.0594339
0.0594341
0.0594346
0.0594352
0.0594362
0.0594374
0.0594389
0.0594407
0.0594427
0.0594449
0.0594472
0.0594496
0.0594521
0.0594546
0.0594572
0.0594597
0.0594623
0.0594649
0.0594674
0.0594699
0.0594724
0.0594749
0.0594773
0.0594796
0.059482
0.0594843
0.0594865
0.0594887
0.0594909
0.059493
0.0594951
0.0594972
0.0594992
0.0595012
0.0595031
0.059505
0.0595069
0.0595088
0.0595106
0.0595124
0.0595141
0.0595159
0.0595175
0.0595192
0.0595208
0.0595224
0.059524
0.0595255
0.059527
0.0595285
0.0595299
0.0595313
0.0595327
0.0595341
0.0595354
0.0595367
0.059538
0.0595392
0.0595404
0.0595416
0.0595428
0.059544
0.0595451
0.0595462
0.0595473
0.0595484
0.0595494
0.0595505
0.0595515
0.0595524
0.0595534
0.0595544
0.0595553
0.0595562
0.0595571
0.059558
0.0595589
0.0595597
0.0595606
0.0595614
0.0595621
0.0595628
0.0595632
0.0595634
0.0595634
0.0595629
0.059562
0.0595609
0.0595594
0.0595578
0.059556
0.0595542
0.0595523
0.0595505
0.0595487
0.0595469
0.0595453
0.0595428
0.0625758
0.0625585
0.0625522
0.0625487
0.062546
0.0625437
0.0625416
0.0625399
0.0625383
0.0625369
0.0625357
0.0625346
0.0625337
0.0625329
0.0625322
0.0625316
0.0625312
0.0625308
0.0625305
0.0625304
0.0625304
0.0625304
0.0625306
0.062531
0.0625317
0.0625327
0.0625342
0.0625361
0.0625383
0.0625408
0.0625435
0.0625464
0.0625493
0.0625524
0.0625555
0.0625585
0.0625616
0.0625647
0.0625677
0.0625706
0.0625735
0.0625764
0.0625792
0.0625819
0.0625846
0.0625872
0.0625898
0.0625923
0.0625948
0.0625972
0.0625995
0.0626018
0.0626041
0.0626063
0.0626084
0.0626106
0.0626126
0.0626147
0.0626167
0.0626186
0.0626205
0.0626224
0.0626243
0.0626261
0.0626278
0.0626296
0.0626313
0.0626329
0.0626346
0.0626361
0.0626377
0.0626392
0.0626407
0.0626422
0.0626436
0.062645
0.0626464
0.0626477
0.0626491
0.0626503
0.0626516
0.0626529
0.0626541
0.0626553
0.0626564
0.0626576
0.0626587
0.0626598
0.0626609
0.0626619
0.062663
0.062664
0.062665
0.062666
0.0626669
0.0626679
0.0626688
0.0626697
0.0626706
0.0626715
0.0626724
0.0626732
0.0626739
0.0626744
0.0626745
0.0626743
0.0626736
0.0626724
0.0626706
0.0626685
0.0626662
0.0626637
0.0626612
0.0626587
0.0626562
0.0626538
0.0626516
0.0626494
0.0626474
0.0626452
0.0658875
0.0658693
0.0658626
0.0658588
0.0658558
0.0658533
0.0658511
0.0658492
0.0658476
0.0658461
0.0658449
0.0658438
0.0658428
0.065842
0.0658413
0.0658408
0.0658403
0.06584
0.0658398
0.0658397
0.0658397
0.0658398
0.0658401
0.0658408
0.065842
0.0658437
0.065846
0.0658488
0.065852
0.0658554
0.065859
0.0658627
0.0658665
0.0658703
0.065874
0.0658776
0.0658812
0.0658847
0.0658882
0.0658915
0.0658948
0.065898
0.0659011
0.0659041
0.0659071
0.0659099
0.0659127
0.0659154
0.065918
0.0659206
0.0659231
0.0659255
0.0659279
0.0659303
0.0659326
0.0659348
0.065937
0.0659391
0.0659412
0.0659432
0.0659452
0.0659472
0.0659491
0.065951
0.0659528
0.0659546
0.0659564
0.0659581
0.0659597
0.0659614
0.065963
0.0659646
0.0659661
0.0659676
0.0659691
0.0659705
0.0659719
0.0659733
0.0659746
0.065976
0.0659773
0.0659785