/*--------------------------------*- C++ -*----------------------------------*\
  =========                 |
  \\      /  F ield         | OpenFOAM: The Open Source CFD Toolbox
   \\    /   O peration     | Website:  https://openfoam.org
    \\  /    A nd           | Version:  7
     \\/     M anipulation  |
\*---------------------------------------------------------------------------*/
FoamFile
{
    version     2.0;
    format      ascii;
    class       surfaceScalarField;
    location    "18500";
    object      phi;
}
// * * * * * * * * * * * * * * * * * * * * * * * * * * * * * * * * * * * * * //

dimensions      [0 3 -1 0 0 0 0];

internalField   nonuniform List<scalar> 
47680
(
2.19929e-06
1.99288e-12
2.19929e-06
-4.73424e-12
2.1993e-06
-8.48739e-12
2.19931e-06
-7.13946e-12
2.19931e-06
-3.42999e-12
2.19931e-06
4.63682e-13
2.19931e-06
3.59899e-12
2.1993e-06
5.76957e-12
2.19929e-06
7.0504e-12
2.19928e-06
7.61163e-12
2.19928e-06
7.64846e-12
2.19927e-06
7.3163e-12
2.19926e-06
6.73374e-12
2.19926e-06
6.00691e-12
2.19925e-06
5.2216e-12
2.19925e-06
4.42179e-12
2.19924e-06
3.61292e-12
2.19924e-06
2.8171e-12
2.19924e-06
2.06592e-12
2.19924e-06
1.35056e-12
2.19924e-06
6.5602e-13
2.19924e-06
-6.38952e-15
2.19924e-06
-6.18569e-13
2.19924e-06
-1.15997e-12
2.19924e-06
-1.6264e-12
2.19924e-06
-2.0388e-12
2.19924e-06
-2.42361e-12
2.19925e-06
-2.79068e-12
2.19925e-06
-3.12193e-12
2.19925e-06
-3.39913e-12
2.19926e-06
-3.63507e-12
2.19926e-06
-3.85684e-12
2.19927e-06
-4.06536e-12
2.19927e-06
-4.24596e-12
2.19927e-06
-4.36823e-12
2.19928e-06
-4.45422e-12
2.19928e-06
-4.50711e-12
2.19929e-06
-4.57506e-12
2.19929e-06
-4.53131e-12
2.1993e-06
-4.47219e-12
2.1993e-06
-4.1449e-12
2.1993e-06
-3.83785e-12
2.19931e-06
-3.09026e-12
2.19931e-06
-2.18566e-12
2.19931e-06
-1.08947e-12
2.19931e-06
4.15769e-13
2.19931e-06
7.95209e-13
2.19931e-06
8.62889e-13
2.19931e-06
6.55119e-13
2.19931e-06
6.57888e-14
2.19931e-06
-3.01274e-13
2.19931e-06
-6.45787e-13
2.19931e-06
-9.47942e-13
2.19931e-06
-1.1753e-12
2.19931e-06
-1.33242e-12
2.19931e-06
-1.40264e-12
2.19932e-06
-1.37018e-12
2.19932e-06
-1.25726e-12
2.19932e-06
-1.08206e-12
2.19932e-06
-8.30537e-13
2.19932e-06
-4.94009e-13
2.19932e-06
-1.02914e-13
2.19932e-06
2.96407e-13
2.19932e-06
6.9092e-13
2.19932e-06
1.07512e-12
2.19932e-06
1.42334e-12
2.19931e-06
1.7143e-12
2.19931e-06
1.94044e-12
2.19931e-06
2.11232e-12
2.19931e-06
2.26598e-12
2.19931e-06
2.40489e-12
2.1993e-06
2.48546e-12
2.1993e-06
2.49475e-12
2.1993e-06
2.45934e-12
2.1993e-06
2.40134e-12
2.19929e-06
2.34205e-12
2.19929e-06
2.28003e-12
2.19929e-06
2.18795e-12
2.19929e-06
2.06172e-12
2.19928e-06
1.91575e-12
2.19928e-06
1.75378e-12
2.19928e-06
1.59242e-12
2.19928e-06
1.44551e-12
2.19928e-06
1.32763e-12
2.19928e-06
1.1688e-12
2.19928e-06
9.77785e-13
2.19928e-06
6.72526e-13
2.19928e-06
4.0755e-13
2.19928e-06
2.52746e-13
2.19928e-06
1.43867e-13
2.19927e-06
1.36337e-13
2.19927e-06
8.838e-14
2.19927e-06
2.09136e-14
2.19927e-06
-4.13622e-14
2.19927e-06
-1.4017e-13
2.19928e-06
-2.5225e-13
2.19928e-06
-4.1157e-13
2.19928e-06
-5.25974e-13
2.19928e-06
-6.94419e-13
2.19928e-06
-6.42028e-13
2.19928e-06
-6.68857e-13
2.19928e-06
-3.06713e-13
2.19928e-06
1.0531e-13
2.19928e-06
7.36155e-13
2.19928e-06
1.62719e-12
2.19927e-06
1.66931e-12
2.19927e-06
1.44272e-12
2.19927e-06
8.90457e-13
2.19927e-06
1.81297e-13
2.19927e-06
-5.28313e-13
2.19927e-06
-1.18633e-12
2.19928e-06
-1.71639e-12
2.19928e-06
-2.15098e-12
2.19928e-06
-2.40398e-12
2.19928e-06
-2.5532e-12
2.19928e-06
-2.5226e-12
2.19929e-06
-1.95103e-12
2.19929e-06
-2.03601e-12
2.19929e-06
-1.25618e-12
2.6397e-12
6.79529e-06
2.54732e-12
6.7953e-06
-2.07894e-11
6.79533e-06
-3.24086e-11
6.79534e-06
-2.5991e-11
6.79535e-06
-1.12546e-11
6.79535e-06
3.83504e-12
6.79534e-06
1.58626e-11
6.79532e-06
2.41165e-11
6.7953e-06
2.89257e-11
6.79527e-06
3.09583e-11
6.79525e-06
3.09572e-11
6.79523e-06
2.95263e-11
6.79521e-06
2.71258e-11
6.79519e-06
2.41615e-11
6.79517e-06
2.09636e-11
6.79516e-06
1.77118e-11
6.79515e-06
1.44451e-11
6.79514e-06
1.124e-11
6.79513e-06
8.20348e-12
6.79513e-06
5.31707e-12
6.79513e-06
2.53494e-12
6.79513e-06
-1.11152e-13
6.79513e-06
-2.55562e-12
6.79513e-06
-4.72561e-12
6.79514e-06
-6.60445e-12
6.79515e-06
-8.26619e-12
6.79515e-06
-9.80554e-12
6.79516e-06
-1.12614e-11
6.79517e-06
-1.25775e-11
6.79518e-06
-1.36906e-11
6.79519e-06
-1.46383e-11
6.7952e-06
-1.55113e-11
6.79522e-06
-1.63259e-11
6.79523e-06
-1.70262e-11
6.79524e-06
-1.75207e-11
6.79526e-06
-1.78617e-11
6.79527e-06
-1.80945e-11
6.79528e-06
-1.83294e-11
6.7953e-06
-1.8226e-11
6.79531e-06
-1.79684e-11
6.79532e-06
-1.68656e-11
6.79533e-06
-1.5659e-11
6.79534e-06
-1.2992e-11
6.79535e-06
-9.66603e-12
6.79536e-06
-5.50902e-12
6.79536e-06
-1.14707e-13
6.79536e-06
1.81285e-12
6.79535e-06
2.33018e-12
6.79535e-06
1.74864e-12
6.79535e-06
-1.56791e-13
6.79535e-06
-1.52337e-12
6.79536e-06
-2.75618e-12
6.79536e-06
-3.83923e-12
6.79536e-06
-4.65387e-12
6.79537e-06
-5.19617e-12
6.79537e-06
-5.40216e-12
6.79538e-06
-5.2152e-12
6.79538e-06
-4.7056e-12
6.79538e-06
-3.9412e-12
6.79538e-06
-2.88767e-12
6.79538e-06
-1.52044e-12
6.79538e-06
5.1302e-14
6.79538e-06
1.65855e-12
6.79538e-06
3.23633e-12
6.79538e-06
4.75724e-12
6.79537e-06
6.13199e-12
6.79537e-06
7.28275e-12
6.79536e-06
8.18042e-12
6.79535e-06
8.86317e-12
6.79535e-06
9.45511e-12
6.79534e-06
9.97277e-12
6.79533e-06
1.02754e-11
6.79532e-06
1.03126e-11
6.79532e-06
1.01684e-11
6.79531e-06
9.92933e-12
6.7953e-06
9.67432e-12
6.79529e-06
9.40571e-12
6.79529e-06
9.03144e-12
6.79528e-06
8.53124e-12
6.79527e-06
7.95076e-12
6.79527e-06
7.31478e-12
6.79526e-06
6.67561e-12
6.79526e-06
6.09233e-12
6.79525e-06
5.59826e-12
6.79525e-06
4.98189e-12
6.79525e-06
4.22097e-12
6.79524e-06
3.07514e-12
6.79524e-06
2.03548e-12
6.79524e-06
1.37084e-12
6.79524e-06
9.23935e-13
6.79524e-06
8.26024e-13
6.79524e-06
6.3881e-13
6.79524e-06
3.79819e-13
6.79524e-06
1.14563e-13
6.79524e-06
-2.76024e-13
6.79524e-06
-7.57785e-13
6.79524e-06
-1.39343e-12
6.79524e-06
-1.94924e-12
6.79524e-06
-2.62044e-12
6.79525e-06
-2.65027e-12
6.79525e-06
-2.79272e-12
6.79525e-06
-1.69799e-12
6.79525e-06
-2.85963e-13
6.79525e-06
1.9682e-12
6.79525e-06
5.03463e-12
6.79524e-06
5.4857e-12
6.79524e-06
4.74364e-12
6.79524e-06
2.83007e-12
6.79524e-06
2.79946e-13
6.79524e-06
-2.34584e-12
6.79524e-06
-4.7991e-12
6.79525e-06
-6.81644e-12
6.79525e-06
-8.45473e-12
6.79526e-06
-9.45616e-12
6.79527e-06
-1.00566e-11
6.79528e-06
-9.95674e-12
6.79528e-06
-8.01447e-12
6.79529e-06
-8.30508e-12
6.79529e-06
-4.63385e-12
7.62458e-12
1.17011e-05
-4.268e-12
1.17011e-05
-5.12355e-11
1.17011e-05
-7.05517e-11
1.17012e-05
-5.35108e-11
1.17012e-05
-2.03144e-11
1.17012e-05
1.27636e-11
1.17011e-05
3.88341e-11
1.17011e-05
5.65617e-11
1.17011e-05
6.67468e-11
1.1701e-05
7.08737e-11
1.1701e-05
7.05517e-11
1.1701e-05
6.70995e-11
1.17009e-05
6.15303e-11
1.17009e-05
5.47215e-11
1.17009e-05
4.73932e-11
1.17008e-05
3.99566e-11
1.17008e-05
3.2523e-11
1.17008e-05
2.52454e-11
1.17008e-05
1.83365e-11
1.17008e-05
1.17787e-11
1.17008e-05
5.48998e-12
1.17008e-05
-4.75342e-13
1.17008e-05
-5.98408e-12
1.17008e-05
-1.08838e-11
1.17008e-05
-1.51425e-11
1.17008e-05
-1.89127e-11
1.17008e-05
-2.23878e-11
1.17008e-05
-2.5652e-11
1.17009e-05
-2.86046e-11
1.17009e-05
-3.11201e-11
1.17009e-05
-3.32628e-11
1.17009e-05
-3.52098e-11
1.17009e-05
-3.70095e-11
1.1701e-05
-3.8552e-11
1.1701e-05
-3.96678e-11
1.1701e-05
-4.04367e-11
1.1701e-05
-4.09833e-11
1.17011e-05
-4.14753e-11
1.17011e-05
-4.13287e-11
1.17011e-05
-4.07567e-11
1.17011e-05
-3.85633e-11
1.17011e-05
-3.59418e-11
1.17012e-05
-3.04435e-11
1.17012e-05
-2.34404e-11
1.17012e-05
-1.45493e-11
1.17012e-05
-3.32067e-12
1.17012e-05
1.53104e-12
1.17012e-05
3.16588e-12
1.17012e-05
2.32581e-12
1.17012e-05
-1.23601e-12
1.17012e-05
-4.05527e-12
1.17012e-05
-6.5789e-12
1.17012e-05
-8.78537e-12
1.17012e-05
-1.04388e-11
1.17012e-05
-1.1495e-11
1.17012e-05
-1.18133e-11
1.17012e-05
-1.12722e-11
1.17012e-05
-1.00029e-11
1.17012e-05
-8.15512e-12
1.17012e-05
-5.68094e-12
1.17012e-05
-2.54378e-12
1.17012e-05
1.02578e-12
1.17012e-05
4.67018e-12
1.17012e-05
8.23105e-12
1.17012e-05
1.16354e-11
1.17012e-05
1.47012e-11
1.17012e-05
1.72687e-11
1.17012e-05
1.92752e-11
1.17012e-05
2.08019e-11
1.17012e-05
2.20943e-11
1.17012e-05
2.31951e-11
1.17011e-05
2.38358e-11
1.17011e-05
2.39085e-11
1.17011e-05
2.35761e-11
1.17011e-05
2.30206e-11
1.17011e-05
2.24128e-11
1.17011e-05
2.17676e-11
1.17011e-05
2.09087e-11
1.1701e-05
1.97831e-11
1.1701e-05
1.84799e-11
1.1701e-05
1.70612e-11
1.1701e-05
1.56325e-11
1.1701e-05
1.43198e-11
1.1701e-05
1.31751e-11
1.1701e-05
1.1803e-11
1.1701e-05
1.00989e-11
1.1701e-05
7.62671e-12
1.1701e-05
5.32046e-12
1.1701e-05
3.75883e-12
1.1701e-05
2.72037e-12
1.1701e-05
2.39856e-12
1.1701e-05
1.97102e-12
1.1701e-05
1.39999e-12
1.1701e-05
7.77816e-13
1.1701e-05
-1.10295e-13
1.1701e-05
-1.24938e-12
1.1701e-05
-2.71162e-12
1.1701e-05
-4.10928e-12
1.1701e-05
-5.67931e-12
1.1701e-05
-6.10406e-12
1.1701e-05
-6.57122e-12
1.1701e-05
-4.66669e-12
1.1701e-05
-1.9228e-12
1.1701e-05
2.64154e-12
1.1701e-05
8.78588e-12
1.1701e-05
1.01269e-11
1.1701e-05
8.78173e-12
1.1701e-05
4.96691e-12
1.1701e-05
-2.73082e-13
1.1701e-05
-5.79688e-12
1.1701e-05
-1.10034e-11
1.1701e-05
-1.53435e-11
1.1701e-05
-1.88581e-11
1.1701e-05
-2.10772e-11
1.1701e-05
-2.24234e-11
1.1701e-05
-2.22561e-11
1.17011e-05
-1.84204e-11
1.17011e-05
-1.89655e-11
1.17011e-05
-9.91215e-12
1.21025e-11
1.69067e-05
-2.53209e-11
1.69068e-05
-9.9399e-11
1.69068e-05
-1.20665e-10
1.69068e-05
-8.5207e-11
1.69068e-05
-2.63436e-11
1.69068e-05
3.04745e-11
1.69068e-05
7.46803e-11
1.69067e-05
1.04428e-10
1.69067e-05
1.21233e-10
1.69066e-05
1.27675e-10
1.69066e-05
1.26492e-10
1.69065e-05
1.19937e-10
1.69065e-05
1.09756e-10
1.69064e-05
9.74432e-11
1.69064e-05
8.42333e-11
1.69064e-05
7.08592e-11
1.69063e-05
5.75447e-11
1.69063e-05
4.45371e-11
1.69063e-05
3.21703e-11
1.69063e-05
2.04455e-11
1.69063e-05
9.24953e-12
1.69063e-05
-1.34094e-12
1.69063e-05
-1.11135e-11
1.69063e-05
-1.98197e-11
1.69063e-05
-2.74135e-11
1.69063e-05
-3.41457e-11
1.69064e-05
-4.03282e-11
1.69064e-05
-4.61009e-11
1.69064e-05
-5.13217e-11
1.69064e-05
-5.57943e-11
1.69065e-05
-5.96057e-11
1.69065e-05
-6.30326e-11
1.69065e-05
-6.61696e-11
1.69065e-05
-6.88522e-11
1.69066e-05
-7.08236e-11
1.69066e-05
-7.21957e-11
1.69066e-05
-7.31893e-11
1.69067e-05
-7.403e-11
1.69067e-05
-7.38671e-11
1.69067e-05
-7.29078e-11
1.69068e-05
-6.94072e-11
1.69068e-05
-6.49746e-11
1.69068e-05
-5.59669e-11
1.69068e-05
-4.43083e-11
1.69069e-05
-2.93673e-11
1.69069e-05
-1.075e-11
1.69069e-05
-1.59854e-12
1.69069e-05
2.06333e-12
1.69069e-05
1.36725e-12
1.69069e-05
-3.8422e-12
1.69069e-05
-8.31659e-12
1.69069e-05
-1.23634e-11
1.69069e-05
-1.58779e-11
1.69069e-05
-1.84864e-11
1.69069e-05
-2.00658e-11
1.69069e-05
-2.03645e-11
1.69069e-05
-1.91738e-11
1.69069e-05
-1.6698e-11
1.69069e-05
-1.31926e-11
1.69069e-05
-8.61504e-12
1.69069e-05
-2.93327e-12
1.69069e-05
3.46226e-12
1.69069e-05
9.97046e-12
1.69069e-05
1.62966e-11
1.69069e-05
2.22981e-11
1.69069e-05
2.76791e-11
1.69069e-05
3.21817e-11
1.69069e-05
3.57055e-11
1.69068e-05
3.83852e-11
1.69068e-05
4.06091e-11
1.69068e-05
4.24532e-11
1.69068e-05
4.3509e-11
1.69068e-05
4.36071e-11
1.69067e-05
4.29963e-11
1.69067e-05
4.19782e-11
1.69067e-05
4.08447e-11
1.69067e-05
3.96363e-11
1.69067e-05
3.80777e-11
1.69067e-05
3.60743e-11
1.69066e-05
3.37651e-11
1.69066e-05
3.12683e-11
1.69066e-05
2.8753e-11
1.69066e-05
2.64239e-11
1.69066e-05
2.43491e-11
1.69066e-05
2.19226e-11
1.69066e-05
1.89138e-11
1.69066e-05
1.46745e-11
1.69066e-05
1.06441e-11
1.69066e-05
7.80082e-12
1.69066e-05
5.90028e-12
1.69066e-05
5.18894e-12
1.69066e-05
4.4031e-12
1.69065e-05
3.39723e-12
1.69065e-05
2.25443e-12
1.69065e-05
6.40793e-13
1.69065e-05
-1.47025e-12
1.69065e-05
-4.15432e-12
1.69066e-05
-6.84979e-12
1.69066e-05
-9.79868e-12
1.69066e-05
-1.10639e-11
1.69066e-05
-1.22177e-11
1.69066e-05
-9.67429e-12
1.69066e-05
-5.53349e-12
1.69066e-05
1.69952e-12
1.69066e-05
1.1487e-11
1.69066e-05
1.41676e-11
1.69066e-05
1.23197e-11
1.69066e-05
6.33028e-12
1.69066e-05
-2.14469e-12
1.69066e-05
-1.12756e-11
1.69066e-05
-1.99692e-11
1.69066e-05
-2.72951e-11
1.69066e-05
-3.32306e-11
1.69066e-05
-3.70755e-11
1.69066e-05
-3.94372e-11
1.69067e-05
-3.92407e-11
1.69067e-05
-3.32106e-11
1.69067e-05
-3.40545e-11
1.69067e-05
-1.6678e-11
1.30015e-11
2.23331e-05
-6.72299e-11
2.23332e-05
-1.65251e-10
2.23332e-05
-1.77231e-10
2.23333e-05
-1.1478e-10
2.23333e-05
-2.47402e-11
2.23332e-05
5.94501e-11
2.23332e-05
1.24153e-10
2.23331e-05
1.67269e-10
2.23331e-05
1.91196e-10
2.2333e-05
1.99781e-10
2.23329e-05
1.97048e-10
2.23328e-05
1.86315e-10
2.23328e-05
1.70178e-10
2.23327e-05
1.50858e-10
2.23327e-05
1.30195e-10
2.23326e-05
1.09315e-10
2.23326e-05
8.85896e-11
2.23326e-05
6.83679e-11
2.23326e-05
4.91169e-11
2.23326e-05
3.08769e-11
2.23326e-05
1.35181e-11
2.23326e-05
-2.85936e-12
2.23326e-05
-1.79614e-11
2.23326e-05
-3.14364e-11
2.23326e-05
-4.32342e-11
2.23326e-05
-5.37187e-11
2.23326e-05
-6.33206e-11
2.23327e-05
-7.22386e-11
2.23327e-05
-8.03021e-11
2.23327e-05
-8.72423e-11
2.23328e-05
-9.31594e-11
2.23328e-05
-9.84372e-11
2.23328e-05
-1.03227e-10
2.23329e-05
-1.07314e-10
2.23329e-05
-1.10355e-10
2.23329e-05
-1.12506e-10
2.2333e-05
-1.14085e-10
2.2333e-05
-1.15373e-10
2.23331e-05
-1.15238e-10
2.23331e-05
-1.13867e-10
2.23332e-05
-1.08948e-10
2.23332e-05
-1.02447e-10
2.23332e-05
-8.94925e-11
2.23333e-05
-7.25148e-11
2.23333e-05
-5.06075e-11
2.23333e-05
-2.34803e-11
2.23333e-05
-8.79462e-12
2.23333e-05
-2.0767e-12
2.23333e-05
-1.98962e-12
2.23333e-05
-8.52761e-12
2.23333e-05
-1.45921e-11
2.23333e-05
-2.01921e-11
2.23333e-05
-2.50289e-11
2.23333e-05
-2.85648e-11
2.23334e-05
-3.05555e-11
2.23334e-05
-3.06013e-11
2.23334e-05
-2.83919e-11
2.23334e-05
-2.42126e-11
2.23334e-05
-1.84477e-11
2.23334e-05
-1.10806e-11
2.23334e-05
-2.10861e-12
2.23334e-05
7.87818e-12
2.23334e-05
1.79939e-11
2.23334e-05
2.77753e-11
2.23333e-05
3.6989e-11
2.23333e-05
4.52111e-11
2.23333e-05
5.20822e-11
2.23333e-05
5.74678e-11
2.23333e-05
6.15626e-11
2.23332e-05
6.49051e-11
2.23332e-05
6.76027e-11
2.23332e-05
6.91103e-11
2.23332e-05
6.92064e-11
2.23331e-05
6.82294e-11
2.23331e-05
6.66123e-11
2.23331e-05
6.47895e-11
2.23331e-05
6.28359e-11
2.2333e-05
6.03713e-11
2.2333e-05
5.72559e-11
2.2333e-05
5.36905e-11
2.2333e-05
4.98593e-11
2.2333e-05
4.6002e-11
2.2333e-05
4.24003e-11
2.23329e-05
3.91342e-11
2.23329e-05
3.53704e-11
2.23329e-05
3.07233e-11
2.23329e-05
2.43384e-11
2.23329e-05
1.81993e-11
2.23329e-05
1.37325e-11
2.23329e-05
1.07134e-11
2.23329e-05
9.43315e-12
2.23329e-05
8.15916e-12
2.23329e-05
6.58901e-12
2.23329e-05
4.75039e-12
2.23329e-05
2.1635e-12
2.23329e-05
-1.25386e-12
2.23329e-05
-5.57776e-12
2.23329e-05
-1.00555e-11
2.23329e-05
-1.49073e-11
2.23329e-05
-1.75461e-11
2.23329e-05
-1.9859e-11
2.23329e-05
-1.70364e-11
2.23329e-05
-1.16629e-11
2.23329e-05
-1.69472e-12
2.23329e-05
1.19893e-11
2.23329e-05
1.63721e-11
2.23329e-05
1.42629e-11
2.23329e-05
6.09773e-12
2.23329e-05
-5.83042e-12
2.23329e-05
-1.89604e-11
2.23329e-05
-3.16008e-11
2.23329e-05
-4.23544e-11
2.2333e-05
-5.1096e-11
2.2333e-05
-5.68912e-11
2.2333e-05
-6.05077e-11
2.2333e-05
-6.03499e-11
2.2333e-05
-5.20167e-11
2.23331e-05
-5.32831e-11
2.23331e-05
-2.41739e-11
6.33137e-12
2.77969e-05
-1.31792e-10
2.7797e-05
-2.41234e-10
2.77971e-05
-2.30931e-10
2.77971e-05
-1.35555e-10
2.77971e-05
-1.26316e-11
2.7797e-05
9.92882e-11
2.7797e-05
1.8457e-10
2.77969e-05
2.41039e-10
2.77968e-05
2.71941e-10
2.77967e-05
2.82354e-10
2.77967e-05
2.7756e-10
2.77966e-05
2.61948e-10
2.77965e-05
2.39002e-10
2.77965e-05
2.11712e-10
2.77964e-05
1.82573e-10
2.77964e-05
1.53148e-10
2.77963e-05
1.23975e-10
2.77963e-05
9.5508e-11
2.77963e-05
6.83553e-11
2.77963e-05
4.2624e-11
2.77963e-05
1.81901e-11
2.77963e-05
-4.82124e-12
2.77963e-05
-2.60357e-11
2.77963e-05
-4.50029e-11
2.77963e-05
-6.16848e-11
2.77963e-05
-7.65628e-11
2.77964e-05
-9.01648e-11
2.77964e-05
-1.02746e-10
2.77964e-05
-1.14123e-10
2.77965e-05
-1.23955e-10
2.77965e-05
-1.32348e-10
2.77965e-05
-1.39796e-10
2.77966e-05
-1.46513e-10
2.77966e-05
-1.52236e-10
2.77967e-05
-1.5655e-10
2.77967e-05
-1.59661e-10
2.77968e-05
-1.61987e-10
2.77968e-05
-1.6384e-10
2.77969e-05
-1.63814e-10
2.77969e-05
-1.62075e-10
2.7797e-05
-1.55749e-10
2.7797e-05
-1.47088e-10
2.7797e-05
-1.30013e-10
2.77971e-05
-1.07406e-10
2.77971e-05
-7.80581e-11
2.77971e-05
-4.1764e-11
2.77971e-05
-2.05693e-11
2.77971e-05
-9.79757e-12
2.77971e-05
-8.14938e-12
2.77972e-05
-1.54632e-11
2.77972e-05
-2.2813e-11
2.77972e-05
-2.97917e-11
2.77972e-05
-3.58042e-11
2.77972e-05
-4.01167e-11
2.77972e-05
-4.23185e-11
2.77972e-05
-4.18264e-11
2.77972e-05
-3.82226e-11
2.77972e-05
-3.18867e-11
2.77972e-05
-2.33457e-11
2.77972e-05
-1.26265e-11
2.77972e-05
2.17501e-13
2.77972e-05
1.43629e-11
2.77972e-05
2.86147e-11
2.77972e-05
4.23327e-11
2.77972e-05
5.51782e-11
2.77972e-05
6.65935e-11
2.77971e-05
7.61273e-11
2.77971e-05
8.36172e-11
2.77971e-05
8.93202e-11
2.77971e-05
9.39167e-11
2.7797e-05
9.75328e-11
2.7797e-05
9.95042e-11
2.7797e-05
9.9579e-11
2.77969e-05
9.8182e-11
2.77969e-05
9.58783e-11
2.77969e-05
9.32549e-11
2.77969e-05
9.04234e-11
2.77968e-05
8.68977e-11
2.77968e-05
8.24998e-11
2.77968e-05
7.75057e-11
2.77968e-05
7.21691e-11
2.77967e-05
6.67927e-11
2.77967e-05
6.1728e-11
2.77967e-05
5.70626e-11
2.77967e-05
5.17268e-11
2.77967e-05
4.51731e-11
2.77967e-05
3.63688e-11
2.77966e-05
2.78535e-11
2.77966e-05
2.15157e-11
2.77966e-05
1.71719e-11
2.77966e-05
1.51539e-11
2.77966e-05
1.32556e-11
2.77966e-05
1.09825e-11
2.77966e-05
8.26379e-12
2.77966e-05
4.4494e-12
2.77966e-05
-6.02065e-13
2.77966e-05
-6.96087e-12
2.77966e-05
-1.36729e-11
2.77966e-05
-2.09215e-11
2.77966e-05
-2.54642e-11
2.77966e-05
-2.94275e-11
2.77966e-05
-2.67693e-11
2.77967e-05
-2.04696e-11
2.77967e-05
-7.9078e-12
2.77967e-05
9.69487e-12
2.77967e-05
1.60612e-11
2.77967e-05
1.40482e-11
2.77967e-05
3.97254e-12
2.77967e-05
-1.12982e-11
2.77967e-05
-2.84785e-11
2.77967e-05
-4.52178e-11
2.77967e-05
-5.95971e-11
2.77967e-05
-7.13623e-11
2.77968e-05
-7.93497e-11
2.77968e-05
-8.44392e-11
2.77968e-05
-8.44323e-11
2.77968e-05
-7.38908e-11
2.77968e-05
-7.57209e-11
2.77969e-05
-3.17722e-11
-1.21517e-11
3.30735e-05
-2.11029e-10
3.30735e-05
-3.15039e-10
3.30736e-05
-2.73414e-10
3.30736e-05
-1.43903e-10
3.30736e-05
9.54828e-12
3.30735e-05
1.46439e-10
3.30735e-05
2.50309e-10
3.30734e-05
3.18984e-10
3.30733e-05
3.56311e-10
3.30732e-05
3.68351e-10
3.30731e-05
3.61438e-10
3.30731e-05
3.40895e-10
3.3073e-05
3.11043e-10
3.30729e-05
2.75626e-10
3.30729e-05
2.37795e-10
3.30728e-05
1.99546e-10
3.30728e-05
1.61587e-10
3.30727e-05
1.24484e-10
3.30727e-05
8.89919e-11
3.30727e-05
5.53154e-11
3.30727e-05
2.33639e-11
3.30727e-05
-6.70841e-12
3.30727e-05
-3.44459e-11
3.30727e-05
-5.93123e-11
3.30728e-05
-8.13066e-11
3.30728e-05
-1.01014e-10
3.30728e-05
-1.19019e-10
3.30728e-05
-1.35625e-10
3.30729e-05
-1.50654e-10
3.30729e-05
-1.63689e-10
3.3073e-05
-1.74844e-10
3.3073e-05
-1.84731e-10
3.30731e-05
-1.93616e-10
3.30731e-05
-2.0118e-10
3.30732e-05
-2.0696e-10
3.30732e-05
-2.11236e-10
3.30733e-05
-2.14496e-10
3.30733e-05
-2.17067e-10
3.30734e-05
-2.17278e-10
3.30734e-05
-2.15296e-10
3.30735e-05
-2.07698e-10
3.30735e-05
-1.96951e-10
3.30736e-05
-1.75825e-10
3.30736e-05
-1.47614e-10
3.30736e-05
-1.10762e-10
3.30737e-05
-6.50693e-11
3.30737e-05
-3.67127e-11
3.30737e-05
-2.10574e-11
3.30737e-05
-1.70639e-11
3.30737e-05
-2.44761e-11
3.30737e-05
-3.26292e-11
3.30737e-05
-4.06375e-11
3.30737e-05
-4.75455e-11
3.30737e-05
-5.23892e-11
3.30738e-05
-5.45439e-11
3.30738e-05
-5.32157e-11
3.30738e-05
-4.78912e-11
3.30738e-05
-3.90607e-11
3.30738e-05
-2.73984e-11
3.30738e-05
-1.29844e-11
3.30738e-05
4.04683e-12
3.30738e-05
2.26182e-11
3.30738e-05
4.12314e-11
3.30738e-05
5.9082e-11
3.30737e-05
7.57213e-11
3.30737e-05
9.04641e-11
3.30737e-05
1.02787e-10
3.30737e-05
1.12505e-10
3.30736e-05
1.19929e-10
3.30736e-05
1.25857e-10
3.30736e-05
1.30419e-10
3.30735e-05
1.32859e-10
3.30735e-05
1.32921e-10
3.30735e-05
1.31111e-10
3.30734e-05
1.28111e-10
3.30734e-05
1.24661e-10
3.30734e-05
1.20899e-10
3.30733e-05
1.16235e-10
3.30733e-05
1.10479e-10
3.30733e-05
1.03994e-10
3.30733e-05
9.70953e-11
3.30732e-05
9.01274e-11
3.30732e-05
8.34971e-11
3.30732e-05
7.72976e-11
3.30732e-05
7.02297e-11
3.30732e-05
6.1597e-11
3.30731e-05
5.02311e-11
3.30731e-05
3.92178e-11
3.30731e-05
3.08792e-11
3.30731e-05
2.50739e-11
3.30731e-05
2.21739e-11
3.30731e-05
1.95152e-11
3.30731e-05
1.63913e-11
3.30731e-05
1.2598e-11
3.30731e-05
7.30421e-12
3.30731e-05
3.20674e-13
3.30731e-05
-8.40347e-12
3.30731e-05
-1.77219e-11
3.30731e-05
-2.77731e-11
3.30731e-05
-3.46668e-11
3.30731e-05
-4.07016e-11
3.30731e-05
-3.86311e-11
3.30731e-05
-3.17471e-11
3.30731e-05
-1.68387e-11
3.30732e-05
4.57746e-12
3.30732e-05
1.31602e-11
3.30732e-05
1.16794e-11
3.30732e-05
1.67108e-13
3.30732e-05
-1.80591e-11
3.30732e-05
-3.90371e-11
3.30732e-05
-5.97363e-11
3.30732e-05
-7.77048e-11
3.30732e-05
-9.25572e-11
3.30733e-05
-1.029e-10
3.30733e-05
-1.09662e-10
3.30733e-05
-1.09957e-10
3.30733e-05
-9.7513e-11
3.30734e-05
-9.98634e-11
3.30734e-05
-3.97059e-11
-4.25284e-11
3.80177e-05
-2.89534e-10
3.80178e-05
-3.76715e-10
3.80178e-05
-3.01649e-10
3.80178e-05
-1.40619e-10
3.80178e-05
3.89022e-11
3.80177e-05
1.96488e-10
3.80177e-05
3.15838e-10
3.80176e-05
3.94898e-10
3.80175e-05
4.37867e-10
3.80174e-05
4.5146e-10
3.80173e-05
4.4274e-10
3.80173e-05
4.17752e-10
3.80172e-05
3.81544e-10
3.80171e-05
3.38553e-10
3.80171e-05
2.92528e-10
3.8017e-05
2.45853e-10
3.8017e-05
1.99402e-10
3.8017e-05
1.5386e-10
3.80169e-05
1.10127e-10
3.80169e-05
6.85373e-11
3.80169e-05
2.90593e-11
3.80169e-05
-8.11189e-12
3.80169e-05
-4.24349e-11
3.80169e-05
-7.33112e-11
3.8017e-05
-1.00808e-10
3.8017e-05
-1.25579e-10
3.8017e-05
-1.48214e-10
3.8017e-05
-1.69058e-10
3.80171e-05
-1.8794e-10
3.80171e-05
-2.04376e-10
3.80172e-05
-2.185e-10
3.80172e-05
-2.31048e-10
3.80173e-05
-2.42305e-10
3.80173e-05
-2.51887e-10
3.80174e-05
-2.59321e-10
3.80174e-05
-2.64978e-10
3.80175e-05
-2.69387e-10
3.80175e-05
-2.72848e-10
3.80176e-05
-2.73468e-10
3.80176e-05
-2.7143e-10
3.80177e-05
-2.62781e-10
3.80178e-05
-2.50137e-10
3.80178e-05
-2.252e-10
3.80178e-05
-1.91647e-10
3.80179e-05
-1.47513e-10
3.80179e-05
-9.24926e-11
3.80179e-05
-5.66323e-11
3.80179e-05
-3.55134e-11
3.8018e-05
-2.85059e-11
3.8018e-05
-3.53318e-11
3.8018e-05
-4.37111e-11
3.8018e-05
-5.2275e-11
3.8018e-05
-5.96897e-11
3.8018e-05
-6.47289e-11
3.8018e-05
-6.6512e-11
3.8018e-05
-6.40231e-11
3.8018e-05
-5.66839e-11
3.80181e-05
-4.51184e-11
3.80181e-05
-3.01443e-11
3.80181e-05
-1.18976e-11
3.8018e-05
9.38331e-12
3.8018e-05
3.23664e-11
3.8018e-05
5.52858e-11
3.8018e-05
7.72007e-11
3.8018e-05
9.75568e-11
3.8018e-05
1.15558e-10
3.80179e-05
1.30638e-10
3.80179e-05
1.42595e-10
3.80179e-05
1.51765e-10
3.80178e-05
1.59037e-10
3.80178e-05
1.64532e-10
3.80178e-05
1.67431e-10
3.80177e-05
1.67512e-10
3.80177e-05
1.65346e-10
3.80177e-05
1.61711e-10
3.80176e-05
1.57481e-10
3.80176e-05
1.52803e-10
3.80176e-05
1.46996e-10
3.80175e-05
1.39891e-10
3.80175e-05
1.31956e-10
3.80175e-05
1.2354e-10
3.80175e-05
1.14999e-10
3.80174e-05
1.0678e-10
3.80174e-05
9.89808e-11
3.80174e-05
9.00922e-11
3.80174e-05
7.93042e-11
3.80174e-05
6.53593e-11
3.80174e-05
5.18555e-11
3.80173e-05
4.14906e-11
3.80173e-05
3.41512e-11
3.80173e-05
3.02528e-11
3.80173e-05
2.67009e-11
3.80173e-05
2.25653e-11
3.80173e-05
1.74893e-11
3.80173e-05
1.04667e-11
3.80173e-05
1.28295e-12
3.80173e-05
-1.00809e-11
3.80173e-05
-2.2303e-11
3.80173e-05
-3.54716e-11
3.80173e-05
-4.50611e-11
3.80173e-05
-5.3491e-11
3.80174e-05
-5.2359e-11
3.80174e-05
-4.52015e-11
3.80174e-05
-2.82059e-11
3.80174e-05
-3.11853e-12
3.80174e-05
7.87321e-12
3.80174e-05
7.36771e-12
3.80174e-05
-5.01446e-12
3.80174e-05
-2.56431e-11
3.80174e-05
-4.99464e-11
3.80174e-05
-7.42396e-11
3.80175e-05
-9.55698e-11
3.80175e-05
-1.13437e-10
3.80175e-05
-1.26209e-10
3.80175e-05
-1.34793e-10
3.80175e-05
-1.35535e-10
3.80176e-05
-1.21652e-10
3.80176e-05
-1.24137e-10
3.80176e-05
-4.89421e-11
-7.85386e-11
4.26015e-05
-3.52933e-10
4.26015e-05
-4.20639e-10
4.26015e-05
-3.16026e-10
4.26015e-05
-1.28429e-10
4.26015e-05
7.22331e-11
4.26014e-05
2.46133e-10
4.26014e-05
3.77649e-10
4.26013e-05
4.65018e-10
4.26012e-05
5.12677e-10
4.26011e-05
5.27712e-10
4.26011e-05
5.17592e-10
4.2601e-05
4.88862e-10
4.26009e-05
4.47177e-10
4.26009e-05
3.97565e-10
4.26008e-05
3.44269e-10
4.26008e-05
2.89985e-10
4.26007e-05
2.3574e-10
4.26007e-05
1.82347e-10
4.26007e-05
1.30852e-10
4.26007e-05
8.17244e-11
4.26007e-05
3.50256e-11
4.26007e-05
-8.99023e-12
4.26007e-05
-4.96944e-11
4.26007e-05
-8.6468e-11
4.26007e-05
-1.19468e-10
4.26007e-05
-1.49369e-10
4.26008e-05
-1.76713e-10
4.26008e-05
-2.01874e-10
4.26008e-05
-2.24686e-10
4.26009e-05
-2.44618e-10
4.26009e-05
-2.61857e-10
4.2601e-05
-2.77243e-10
4.2601e-05
-2.91028e-10
4.26011e-05
-3.02759e-10
4.26011e-05
-3.12018e-10
4.26012e-05
-3.19282e-10
4.26012e-05
-3.25055e-10
4.26013e-05
-3.29585e-10
4.26013e-05
-3.308e-10
4.26014e-05
-3.28923e-10
4.26015e-05
-3.19479e-10
4.26015e-05
-3.05191e-10
4.26016e-05
-2.76769e-10
4.26016e-05
-2.38253e-10
4.26016e-05
-1.87196e-10
4.26017e-05
-1.23085e-10
4.26017e-05
-7.96242e-11
4.26017e-05
-5.27191e-11
4.26017e-05
-4.22094e-11
4.26017e-05
-4.78486e-11
4.26018e-05
-5.58666e-11
4.26018e-05
-6.44485e-11
4.26018e-05
-7.18965e-11
4.26018e-05
-7.67003e-11
4.26018e-05
-7.7696e-11
4.26018e-05
-7.36562e-11
4.26018e-05
-6.39909e-11
4.26018e-05
-4.9487e-11
4.26018e-05
-3.10965e-11
4.26018e-05
-9.01311e-12
4.26018e-05
1.64067e-11
4.26018e-05
4.35923e-11
4.26018e-05
7.05673e-11
4.26018e-05
9.62884e-11
4.26017e-05
1.20104e-10
4.26017e-05
1.41139e-10
4.26017e-05
1.5882e-10
4.26017e-05
1.72921e-10
4.26016e-05
1.83778e-10
4.26016e-05
1.92328e-10
4.26016e-05
1.98685e-10
4.26015e-05
2.02007e-10
4.26015e-05
2.02134e-10
4.26015e-05
1.99688e-10
4.26014e-05
1.95518e-10
4.26014e-05
1.90598e-10
4.26014e-05
1.85056e-10
4.26013e-05
1.78137e-10
4.26013e-05
1.69749e-10
4.26013e-05
1.60467e-10
4.26012e-05
1.50645e-10
4.26012e-05
1.40614e-10
4.26012e-05
1.30842e-10
4.26012e-05
1.21427e-10
4.26012e-05
1.10683e-10
4.26011e-05
9.77388e-11
4.26011e-05
8.12922e-11
4.26011e-05
6.53984e-11
4.26011e-05
5.30558e-11
4.26011e-05
4.41572e-11
4.26011e-05
3.91682e-11
4.26011e-05
3.45917e-11
4.26011e-05
2.92704e-11
4.26011e-05
2.26866e-11
4.26011e-05
1.36803e-11
4.26011e-05
2.0402e-12
4.26011e-05
-1.22097e-11
4.26011e-05
-2.75927e-11
4.26011e-05
-4.41348e-11
4.26011e-05
-5.66848e-11
4.26011e-05
-6.77509e-11
4.26011e-05
-6.78292e-11
4.26011e-05
-6.0648e-11
4.26011e-05
-4.1778e-11
4.26011e-05
-1.31375e-11
4.26012e-05
4.21209e-13
4.26012e-05
1.28133e-12
4.26012e-05
-1.14174e-11
4.26012e-05
-3.38385e-11
4.26012e-05
-6.0873e-11
4.26012e-05
-8.82495e-11
4.26012e-05
-1.12584e-10
4.26012e-05
-1.33284e-10
4.26013e-05
-1.48457e-10
4.26013e-05
-1.58933e-10
4.26013e-05
-1.60208e-10
4.26013e-05
-1.45412e-10
4.26014e-05
-1.47329e-10
4.26014e-05
-6.02516e-11
-1.12256e-10
4.68665e-05
-3.93432e-10
4.68665e-05
-4.44059e-10
4.68665e-05
-3.17057e-10
4.68665e-05
-1.09249e-10
4.68665e-05
1.07527e-10
4.68664e-05
2.93683e-10
4.68664e-05
4.3425e-10
4.68663e-05
5.27838e-10
4.68662e-05
5.79105e-10
4.68662e-05
5.95308e-10
4.68661e-05
5.84066e-10
4.6866e-05
5.52249e-10
4.6866e-05
5.06011e-10
4.68659e-05
4.50848e-10
4.68659e-05
3.91357e-10
4.68658e-05
3.30445e-10
4.68658e-05
2.69291e-10
4.68658e-05
2.0885e-10
4.68658e-05
1.50283e-10
4.68658e-05
9.42005e-11
4.68658e-05
4.07878e-11
4.68658e-05
-9.61812e-12
4.68658e-05
-5.63163e-11
4.68658e-05
-9.87218e-11
4.68658e-05
-1.37089e-10
4.68658e-05
-1.72051e-10
4.68658e-05
-2.04061e-10
4.68659e-05
-2.33501e-10
4.68659e-05
-2.60207e-10
4.68659e-05
-2.8365e-10
4.6866e-05
-3.04102e-10
4.6866e-05
-3.22448e-10
4.68661e-05
-3.38846e-10
4.68661e-05
-3.52806e-10
4.68662e-05
-3.64042e-10
4.68662e-05
-3.73126e-10
4.68663e-05
-3.80469e-10
4.68663e-05
-3.86232e-10
4.68664e-05
-3.88218e-10
4.68665e-05
-3.86717e-10
4.68665e-05
-3.76739e-10
4.68666e-05
-3.61084e-10
4.68666e-05
-3.29531e-10
4.68667e-05
-2.8646e-10
4.68667e-05
-2.28865e-10
4.68668e-05
-1.55965e-10
4.68668e-05
-1.04978e-10
4.68668e-05
-7.21714e-11
4.68668e-05
-5.78539e-11
4.68668e-05
-6.18367e-11
4.68668e-05
-6.89605e-11
4.68669e-05
-7.70139e-11
4.68669e-05
-8.39622e-11
4.68669e-05
-8.80041e-11
4.68669e-05
-8.76912e-11
4.68669e-05
-8.16267e-11
4.68669e-05
-6.92802e-11
4.68669e-05
-5.16313e-11
4.68669e-05
-2.97563e-11
4.68669e-05
-3.90855e-12
4.68669e-05
2.54326e-11
4.68669e-05
5.64966e-11
4.68669e-05
8.71587e-11
4.68668e-05
1.16305e-10
4.68668e-05
1.432e-10
4.68668e-05
1.66934e-10
4.68668e-05
1.86965e-10
4.68667e-05
2.03034e-10
4.68667e-05
2.15433e-10
4.68667e-05
2.2512e-10
4.68666e-05
2.32205e-10
4.68666e-05
2.35872e-10
4.68666e-05
2.36046e-10
4.68665e-05
2.33391e-10
4.68665e-05
2.28792e-10
4.68665e-05
2.23286e-10
4.68664e-05
2.1694e-10
4.68664e-05
2.08956e-10
4.68664e-05
1.99373e-10
4.68663e-05
1.88876e-10
4.68663e-05
1.77787e-10
4.68663e-05
1.66382e-10
4.68663e-05
1.55132e-10
4.68662e-05
1.44124e-10
4.68662e-05
1.31526e-10
4.68662e-05
1.1648e-10
4.68662e-05
9.76742e-11
4.68662e-05
7.95502e-11
4.68662e-05
6.53244e-11
4.68662e-05
5.48721e-11
4.68661e-05
4.87146e-11
4.68661e-05
4.29792e-11
4.68661e-05
3.62844e-11
4.68661e-05
2.79509e-11
4.68661e-05
1.66921e-11
4.68661e-05
2.33434e-12
4.68661e-05
-1.50472e-11
4.68661e-05
-3.38338e-11
4.68661e-05
-5.39717e-11
4.68661e-05
-6.96924e-11
4.68662e-05
-8.3577e-11
4.68662e-05
-8.50619e-11
4.68662e-05
-7.80297e-11
4.68662e-05
-5.74199e-11
4.68662e-05
-2.52843e-11
4.68662e-05
-9.01782e-12
4.68662e-05
-6.47089e-12
4.68663e-05
-1.89965e-11
4.68663e-05
-4.26093e-11
4.68663e-05
-7.17347e-11
4.68663e-05
-1.01617e-10
4.68663e-05
-1.28531e-10
4.68663e-05
-1.51808e-10
4.68663e-05
-1.69258e-10
4.68664e-05
-1.81605e-10
4.68664e-05
-1.83429e-10
4.68664e-05
-1.68223e-10
4.68664e-05
-1.68704e-10
4.68664e-05
-7.36603e-11
-1.38808e-10
5.08757e-05
-4.09806e-10
5.08757e-05
-4.46343e-10
5.08757e-05
-3.04601e-10
5.08757e-05
-8.34805e-11
5.08756e-05
1.44239e-10
5.08756e-05
3.38802e-10
5.08755e-05
4.85523e-10
5.08755e-05
5.83309e-10
5.08754e-05
6.37004e-10