/*--------------------------------*- C++ -*----------------------------------*\
  =========                 |
  \\      /  F ield         | OpenFOAM: The Open Source CFD Toolbox
   \\    /   O peration     | Website:  https://openfoam.org
    \\  /    A nd           | Version:  7
     \\/     M anipulation  |
\*---------------------------------------------------------------------------*/
FoamFile
{
    version     2.0;
    format      ascii;
    class       volVectorField;
    location    "18500";
    object      U;
}
// * * * * * * * * * * * * * * * * * * * * * * * * * * * * * * * * * * * * * //

dimensions      [0 1 -1 0 0 0 0];

internalField   nonuniform List<vector> 
24000
(
(0.00434513 9.27117e-11 8.2083e-16)
(0.00434513 -4.37118e-11 8.1412e-16)
(0.00434515 -1.23717e-10 8.18764e-16)
(0.00434516 -1.13504e-10 7.51621e-16)
(0.00434518 -6.63952e-11 4.71536e-16)
(0.00434518 -1.42726e-11 7.31094e-16)
(0.00434517 2.8424e-11 4.07517e-16)
(0.00434516 5.85958e-11 7.37103e-16)
(0.00434515 7.68829e-11 7.84372e-16)
(0.00434514 8.5506e-11 4.93574e-16)
(0.00434512 8.72974e-11 7.59727e-16)
(0.00434511 8.42626e-11 7.67735e-16)
(0.00434509 7.79083e-11 7.71709e-16)
(0.00434508 6.97668e-11 7.52473e-16)
(0.00434507 6.10138e-11 7.16321e-16)
(0.00434506 5.20698e-11 7.75185e-16)
(0.00434505 4.27263e-11 7.64485e-16)
(0.00434504 3.34339e-11 7.60859e-16)
(0.00434504 2.48686e-11 7.34592e-16)
(0.00434504 1.662e-11 6.87871e-16)
(0.00434503 8.33737e-12 7.68444e-16)
(0.00434503 3.78235e-13 7.12349e-16)
(0.00434503 -6.96033e-12 7.28243e-16)
(0.00434504 -1.33593e-11 7.17093e-16)
(0.00434504 -1.87211e-11 6.57971e-16)
(0.00434504 -2.34955e-11 7.51063e-16)
(0.00434505 -2.80822e-11 7.30986e-16)
(0.00434505 -3.26415e-11 7.37832e-16)
(0.00434506 -3.66902e-11 6.97273e-16)
(0.00434506 -3.99176e-11 6.5342e-16)
(0.00434507 -4.26491e-11 7.33168e-16)
(0.00434508 -4.54918e-11 7.10278e-16)
(0.00434509 -4.8201e-11 7.23083e-16)
(0.00434509 -5.06756e-11 6.79103e-16)
(0.0043451 -5.19157e-11 6.32941e-16)
(0.00434511 -5.31183e-11 7.19406e-16)
(0.00434512 -5.32134e-11 7.01254e-16)
(0.00434513 -5.49313e-11 7.15505e-16)
(0.00434514 -5.28005e-11 6.84345e-16)
(0.00434515 -5.3196e-11 6.44286e-16)
(0.00434516 -4.55044e-11 6.80592e-16)
(0.00434516 -4.2664e-11 9.49904e-16)
(0.00434517 -2.87704e-11 7.4025e-16)
(0.00434518 -1.40765e-11 7.31635e-16)
(0.00434518 4.53462e-13 7.40368e-16)
(0.00434518 2.9027e-11 7.52658e-16)
(0.00434518 2.49384e-11 9.92366e-16)
(0.00434518 2.35785e-11 7.72365e-16)
(0.00434518 1.82101e-11 7.63616e-16)
(0.00434517 4.5153e-12 7.71136e-16)
(0.00434518 1.12905e-13 7.79525e-16)
(0.00434518 -6.11581e-12 9.28961e-16)
(0.00434518 -1.10867e-11 7.88601e-16)
(0.00434518 -1.48485e-11 9.41063e-16)
(0.00434518 -1.76936e-11 7.06621e-16)
(0.00434519 -1.93366e-11 8.00078e-16)
(0.00434519 -1.95051e-11 9.4432e-16)
(0.00434519 -1.87745e-11 8.09522e-16)
(0.00434519 -1.73902e-11 9.89997e-16)
(0.00434519 -1.48647e-11 7.29779e-16)
(0.0043452 -1.09939e-11 8.12352e-16)
(0.0043452 -6.33216e-12 1.0608e-15)
(0.0043452 -1.67977e-12 8.20279e-16)
(0.0043452 3.04273e-12 1.02478e-15)
(0.00434519 7.84129e-12 8.08404e-16)
(0.00434519 1.21933e-11 8.32374e-16)
(0.00434519 1.57844e-11 9.69852e-16)
(0.00434518 1.8524e-11 8.31273e-16)
(0.00434518 2.05846e-11 1.09878e-15)
(0.00434518 2.2684e-11 7.94917e-16)
(0.00434517 2.48242e-11 8.45416e-16)
(0.00434517 2.59543e-11 1.08784e-15)
(0.00434516 2.59823e-11 8.40358e-16)
(0.00434516 2.55581e-11 1.02334e-15)
(0.00434515 2.49363e-11 8.00079e-16)
(0.00434515 2.44355e-11 8.39968e-16)
(0.00434514 2.39624e-11 9.72436e-16)
(0.00434514 2.28876e-11 8.4034e-16)
(0.00434513 2.12647e-11 9.85086e-16)
(0.00434513 1.94863e-11 7.5046e-16)
(0.00434513 1.73563e-11 5.97679e-16)
(0.00434512 1.53892e-11 7.77428e-16)
(0.00434512 1.35082e-11 8.4363e-16)
(0.00434512 1.25399e-11 6.04953e-16)
(0.00434512 1.01726e-11 7.48948e-16)
(0.00434511 8.02573e-12 6.54049e-16)
(0.00434511 3.15473e-12 7.05073e-16)
(0.00434511 -1.88595e-13 8.23234e-16)
(0.00434511 -1.19463e-12 5.7564e-16)
(0.00434511 -2.58928e-12 7.33509e-16)
(0.00434511 -1.52209e-12 5.87026e-16)
(0.00434511 -2.37148e-12 7.23919e-16)
(0.00434511 -3.35313e-12 8.16453e-16)
(0.00434511 -3.78564e-12 6.02892e-16)
(0.00434511 -5.25747e-12 7.21825e-16)
(0.00434511 -5.94947e-12 5.79799e-16)
(0.00434511 -8.34749e-12 7.14156e-16)
(0.00434511 -7.86954e-12 8.15938e-16)
(0.00434511 -1.09081e-11 6.24573e-16)
(0.00434511 -6.03979e-12 7.37304e-16)
(0.00434511 -7.27063e-12 5.5983e-16)
(0.00434512 2.6271e-12 7.46199e-16)
(0.00434512 1.01221e-11 8.19391e-16)
(0.00434512 2.033e-11 6.15891e-16)
(0.00434511 3.90098e-11 7.40598e-16)
(0.00434511 3.32506e-11 6.04026e-16)
(0.00434511 2.94751e-11 7.18108e-16)
(0.0043451 1.86135e-11 8.15602e-16)
(0.0043451 6.68825e-12 6.01934e-16)
(0.0043451 -4.20886e-12 7.22837e-16)
(0.0043451 -1.42795e-11 6.41503e-16)
(0.00434511 -2.15368e-11 6.19787e-16)
(0.00434511 -2.80385e-11 8.01359e-16)
(0.00434512 -3.09088e-11 5.9681e-16)
(0.00434512 -3.2447e-11 7.37501e-16)
(0.00434513 -3.21232e-11 6.37058e-16)
(0.00434513 -2.03857e-11 5.33933e-16)
(0.00434513 -2.04579e-11 7.9649e-16)
(0.00434514 -2.36014e-11 6.47232e-16)
(0.00434514 7.0023e-11 7.46628e-16)
(0.0131155 3.37779e-10 2.48478e-15)
(0.0131155 -9.93379e-10 2.46094e-15)
(0.0131155 -1.71934e-09 2.4759e-15)
(0.0131156 -1.42902e-09 2.27318e-15)
(0.0131156 -6.69722e-10 1.64091e-15)
(0.0131156 1.21014e-10 2.2244e-15)
(0.0131156 7.55741e-10 1.61889e-15)
(0.0131156 1.19395e-09 2.23636e-15)
(0.0131155 1.45154e-09 2.37014e-15)
(0.0131155 1.56327e-09 1.7492e-15)
(0.0131154 1.56854e-09 2.30647e-15)
(0.0131154 1.49905e-09 2.32142e-15)
(0.0131153 1.37881e-09 2.33396e-15)
(0.0131153 1.22933e-09 2.27486e-15)
(0.0131153 1.06798e-09 2.16891e-15)
(0.0131152 9.03736e-10 2.34874e-15)
(0.0131152 7.37904e-10 2.3114e-15)
(0.0131152 5.749e-10 2.30145e-15)
(0.0131152 4.20883e-10 2.22176e-15)
(0.0131152 2.74241e-10 2.07561e-15)
(0.0131152 1.32141e-10 2.3243e-15)
(0.0131152 -3.31788e-12 2.15061e-15)
(0.0131152 -1.28447e-10 2.20083e-15)
(0.0131152 -2.39151e-10 2.16593e-15)
(0.0131152 -3.34668e-10 1.99447e-15)
(0.0131152 -4.1912e-10 2.27244e-15)
(0.0131152 -4.9785e-10 2.21327e-15)
(0.0131152 -5.72778e-10 2.23301e-15)
(0.0131152 -6.40387e-10 2.1017e-15)
(0.0131153 -6.97104e-10 1.9788e-15)
(0.0131153 -7.45415e-10 2.22564e-15)
(0.0131153 -7.90608e-10 2.15622e-15)
(0.0131153 -8.33077e-10 2.1901e-15)
(0.0131154 -8.69668e-10 2.05468e-15)
(0.0131154 -8.94766e-10 1.91435e-15)
(0.0131154 -9.12125e-10 2.17082e-15)
(0.0131154 -9.23468e-10 2.11854e-15)
(0.0131155 -9.36434e-10 2.16505e-15)
(0.0131155 -9.28747e-10 2.0741e-15)
(0.0131155 -9.15266e-10 1.9489e-15)
(0.0131155 -8.51268e-10 2.05945e-15)
(0.0131156 -7.87199e-10 2.24675e-15)
(0.0131156 -6.37529e-10 2.23239e-15)
(0.0131156 -4.55456e-10 2.21486e-15)
(0.0131156 -2.31215e-10 2.23918e-15)
(0.0131156 6.6908e-11 2.27605e-15)
(0.0131156 1.50081e-10 2.36894e-15)
(0.0131156 1.65205e-10 2.32775e-15)
(0.0131156 1.24201e-10 2.30997e-15)
(0.0131156 9.12801e-12 2.33158e-15)
(0.0131156 -6.5682e-11 2.35752e-15)
(0.0131156 -1.34371e-10 2.42427e-15)
(0.0131156 -1.9489e-10 2.37952e-15)
(0.0131156 -2.40349e-10 2.45753e-15)
(0.0131156 -2.71509e-10 2.25491e-15)
(0.0131156 -2.84924e-10 2.41894e-15)
(0.0131156 -2.77561e-10 2.48494e-15)
(0.0131157 -2.53755e-10 2.44263e-15)
(0.0131157 -2.17109e-10 2.54826e-15)
(0.0131157 -1.6499e-10 2.01654e-15)
(0.0131157 -9.58138e-11 2.46167e-15)
(0.0131157 -1.56909e-11 2.55111e-15)
(0.0131157 6.61736e-11 2.47261e-15)
(0.0131157 1.46894e-10 2.53018e-15)
(0.0131157 2.25293e-10 2.33077e-15)
(0.0131157 2.96297e-10 2.52705e-15)
(0.0131156 3.5561e-10 2.55124e-15)
(0.0131156 4.01721e-10 2.50723e-15)
(0.0131156 4.36797e-10 2.62175e-15)
(0.0131156 4.67983e-10 2.50055e-15)
(0.0131156 4.95914e-10 2.56164e-15)
(0.0131156 5.12095e-10 2.6285e-15)
(0.0131156 5.13942e-10 2.53377e-15)
(0.0131155 5.06591e-10 2.64041e-15)
(0.0131155 4.94654e-10 2.4546e-15)
(0.0131155 4.82331e-10 2.54587e-15)
(0.0131155 4.69374e-10 2.57973e-15)
(0.0131155 4.50427e-10 2.53553e-15)
(0.0131155 4.24625e-10 2.60317e-15)
(0.0131155 3.94701e-10 2.22402e-15)
(0.0131155 3.61732e-10 2.39437e-15)
(0.0131154 3.28726e-10 2.23764e-15)
(0.0131154 2.98823e-10 2.55303e-15)
(0.0131154 2.74292e-10 2.28515e-15)
(0.0131154 2.42094e-10 2.37137e-15)
(0.0131154 2.02671e-10 2.33351e-15)
(0.0131154 1.4112e-10 2.23893e-15)
(0.0131154 8.72377e-11 2.48611e-15)
(0.0131154 5.50197e-11 2.30814e-15)
(0.0131154 3.29943e-11 2.25735e-15)
(0.0131154 3.0546e-11 2.22215e-15)
(0.0131154 2.08632e-11 2.10546e-15)
(0.0131154 7.20471e-12 2.47183e-15)
(0.0131154 -5.85128e-12 2.23697e-15)
(0.0131154 -2.59051e-11 2.31497e-15)
(0.0131154 -4.95203e-11 2.22472e-15)
(0.0131154 -8.16652e-11 2.1146e-15)
(0.0131154 -1.06779e-10 2.46647e-15)
(0.0131154 -1.40118e-10 2.2661e-15)
(0.0131154 -1.32916e-10 2.0844e-15)
(0.0131154 -1.37246e-10 2.26474e-15)
(0.0131154 -6.72357e-11 2.10503e-15)
(0.0131154 1.51028e-11 2.4811e-15)
(0.0131154 1.42787e-10 2.26566e-15)
(0.0131154 3.17539e-10 2.09253e-15)
(0.0131154 3.30103e-10 2.23217e-15)
(0.0131154 2.83974e-10 2.24875e-15)
(0.0131154 1.73884e-10 2.46315e-15)
(0.0131154 3.1533e-11 2.24942e-15)
(0.0131154 -1.11611e-10 2.23999e-15)
(0.0131154 -2.4422e-10 2.28455e-15)
(0.0131154 -3.51652e-10 2.22565e-15)
(0.0131154 -4.39177e-10 2.42854e-15)
(0.0131154 -4.90717e-10 2.24744e-15)
(0.0131154 -5.21215e-10 2.16378e-15)
(0.0131155 -5.13998e-10 2.28759e-15)
(0.0131155 -4.00994e-10 2.19493e-15)
(0.0131155 -4.19985e-10 2.41427e-15)
(0.0131155 -2.43841e-10 2.29781e-15)
(0.0131155 5.1159e-10 2.12858e-15)
(0.0220626 1.54494e-10 4.20634e-15)
(0.0220627 -3.23479e-09 4.13979e-15)
(0.0220627 -4.82598e-09 4.16949e-15)
(0.0220628 -3.79833e-09 3.81681e-15)
(0.0220628 -1.57661e-09 3.53575e-15)
(0.0220628 6.74799e-10 3.79841e-15)
(0.0220628 2.46107e-09 3.46724e-15)
(0.0220628 3.68215e-09 3.84487e-15)
(0.0220627 4.38957e-09 3.97972e-15)
(0.0220626 4.68374e-09 3.66752e-15)
(0.0220625 4.67514e-09 3.94602e-15)
(0.0220625 4.45368e-09 3.90429e-15)
(0.0220624 4.08822e-09 3.93347e-15)
(0.0220623 3.63882e-09 3.82482e-15)
(0.0220623 3.15467e-09 3.66615e-15)
(0.0220622 2.66284e-09 3.98764e-15)
(0.0220622 2.16974e-09 3.88802e-15)
(0.0220622 1.68634e-09 3.87764e-15)
(0.0220621 1.22811e-09 3.73608e-15)
(0.0220621 7.92772e-10 3.46447e-15)
(0.0220621 3.73911e-10 3.93893e-15)
(0.0220621 -2.41074e-11 3.61333e-15)
(0.0220621 -3.91657e-10 3.71194e-15)
(0.0220621 -7.18072e-10 3.62756e-15)
(0.0220621 -1.00103e-09 3.37416e-15)
(0.0220622 -1.25137e-09 3.85805e-15)
(0.0220622 -1.48289e-09 3.73256e-15)
(0.0220622 -1.70135e-09 3.76872e-15)
(0.0220622 -1.89885e-09 3.51241e-15)
(0.0220623 -2.06625e-09 3.33994e-15)
(0.0220623 -2.20882e-09 3.7967e-15)
(0.0220623 -2.33952e-09 3.64738e-15)
(0.0220624 -2.46115e-09 3.70061e-15)
(0.0220624 -2.56548e-09 3.46714e-15)
(0.0220625 -2.63978e-09 3.23054e-15)
(0.0220625 -2.6908e-09 3.66555e-15)
(0.0220625 -2.72638e-09 3.54866e-15)
(0.0220626 -2.76035e-09 3.65333e-15)
(0.0220626 -2.74696e-09 3.50325e-15)
(0.0220627 -2.70729e-09 3.28942e-15)
(0.0220627 -2.54821e-09 3.48512e-15)
(0.0220628 -2.36729e-09 3.61179e-15)
(0.0220628 -1.97698e-09 3.75506e-15)
(0.0220628 -1.48695e-09 3.73471e-15)
(0.0220628 -8.69853e-10 3.77655e-15)
(0.0220629 -8.15715e-11 3.83698e-15)
(0.0220629 2.20363e-10 3.81654e-15)
(0.0220629 3.06811e-10 3.91308e-15)
(0.0220628 2.27877e-10 3.89097e-15)
(0.0220629 -4.24815e-11 3.9302e-15)
(0.0220629 -2.43372e-10 3.97397e-15)
(0.0220629 -4.23185e-10 3.93509e-15)
(0.0220629 -5.8094e-10 4.00419e-15)
(0.0220629 -6.99486e-10 3.97904e-15)
(0.0220629 -7.77257e-10 4.08206e-15)
(0.0220629 -8.04859e-10 4.09913e-15)
(0.0220629 -7.73918e-10 4.03818e-15)
(0.0220629 -6.9441e-10 4.10815e-15)
(0.0220629 -5.76455e-10 4.09753e-15)
(0.0220629 -4.15585e-10 4.39812e-15)
(0.0220629 -2.08484e-10 4.18536e-15)
(0.0220629 2.86318e-11 4.09957e-15)
(0.0220629 2.7093e-10 4.15597e-15)
(0.0220629 5.08393e-10 4.12457e-15)
(0.0220629 7.36616e-10 4.57546e-15)
(0.0220629 9.42604e-10 4.2862e-15)
(0.0220629 1.11499e-09 4.14907e-15)
(0.0220629 1.24948e-09 4.2161e-15)
(0.0220628 1.3518e-09 4.19065e-15)
(0.0220628 1.4398e-09 4.43629e-15)
(0.0220628 1.51609e-09 4.34417e-15)
(0.0220628 1.56056e-09 4.22341e-15)
(0.0220627 1.56571e-09 4.25885e-15)
(0.0220627 1.54373e-09 4.2502e-15)
(0.0220627 1.5073e-09 4.57918e-15)
(0.0220627 1.46818e-09 4.3138e-15)
(0.0220627 1.42678e-09 4.20649e-15)
(0.0220626 1.37008e-09 4.26413e-15)
(0.0220626 1.29478e-09 4.23526e-15)
(0.0220626 1.2075e-09 4.68551e-15)
(0.0220626 1.1121e-09 4.19737e-15)
(0.0220625 1.01617e-09 4.38141e-15)
(0.0220625 9.28564e-10 4.31678e-15)
(0.0220625 8.53423e-10 4.02464e-15)
(0.0220625 7.61152e-10 4.43205e-15)
(0.0220625 6.46589e-10 4.06985e-15)
(0.0220625 4.76698e-10 4.13111e-15)
(0.0220625 3.21239e-10 4.21006e-15)
(0.0220625 2.1982e-10 4.00332e-15)
(0.0220625 1.52364e-10 4.32357e-15)
(0.0220625 1.35347e-10 3.9426e-15)
(0.0220625 1.07214e-10 4.31567e-15)
(0.0220625 6.86169e-11 4.18504e-15)
(0.0220625 2.80309e-11 3.92473e-15)
(0.0220625 -3.07767e-11 4.1465e-15)
(0.0220625 -1.04691e-10 3.97277e-15)
(0.0220625 -2.00627e-10 4.4824e-15)
(0.0220625 -2.8788e-10 4.18089e-15)
(0.0220625 -3.89094e-10 3.94455e-15)
(0.0220625 -4.02154e-10 4.1302e-15)
(0.0220625 -4.25265e-10 3.9537e-15)
(0.0220625 -2.73028e-10 4.20322e-15)
(0.0220625 -6.94751e-11 4.20151e-15)
(0.0220625 2.59761e-10 3.95435e-15)
(0.0220625 7.02218e-10 4.16102e-15)
(0.0220625 7.77922e-10 3.91858e-15)
(0.0220625 6.71768e-10 4.29683e-15)
(0.0220625 3.94078e-10 4.16915e-15)
(0.0220625 2.09936e-11 3.93758e-15)
(0.0220625 -3.6583e-10 4.15285e-15)
(0.0220625 -7.27752e-10 3.97541e-15)
(0.0220625 -1.02673e-09 3.87126e-15)
(0.0220625 -1.26887e-09 4.11174e-15)
(0.0220625 -1.4184e-09 3.95522e-15)
(0.0220625 -1.50822e-09 4.21193e-15)
(0.0220626 -1.49308e-09 3.99653e-15)
(0.0220626 -1.21311e-09 3.83873e-15)
(0.0220626 -1.25488e-09 4.08975e-15)
(0.0220626 -6.76895e-10 3.96974e-15)
(0.0220626 1.04233e-09 4.20191e-15)
(0.031142 -1.09184e-09 5.93639e-15)
(0.031142 -7.13588e-09 5.83897e-15)
(0.0311421 -9.33062e-09 5.88747e-15)
(0.0311422 -6.88789e-09 5.2006e-15)
(0.0311422 -2.43315e-09 5.33076e-15)
(0.0311422 1.94621e-09 5.45018e-15)
(0.0311422 5.37655e-09 5.34371e-15)
(0.0311421 7.69699e-09 5.54738e-15)
(0.031142 9.01948e-09 5.62765e-15)
(0.0311419 9.54226e-09 5.4902e-15)
(0.0311418 9.47787e-09 5.66706e-15)
(0.0311417 9.00057e-09 5.50429e-15)
(0.0311416 8.24447e-09 5.5674e-15)
(0.0311415 7.32518e-09 5.37715e-15)
(0.0311414 6.33765e-09 5.22629e-15)
(0.0311414 5.33688e-09 5.73787e-15)
(0.0311413 4.33848e-09 5.46772e-15)
(0.0311413 3.3622e-09 5.48156e-15)
(0.0311413 2.43503e-09 5.25158e-15)
(0.0311412 1.55557e-09 5.02895e-15)
(0.0311412 7.13762e-10 5.66182e-15)
(0.0311412 -8.38078e-11 5.1262e-15)
(0.0311412 -8.19977e-10 5.27834e-15)
(0.0311412 -1.47497e-09 4.85431e-15)
(0.0311413 -2.04486e-09 4.65082e-15)
(0.0311413 -2.54955e-09 5.44718e-15)
(0.0311413 -3.01403e-09 5.28501e-15)
(0.0311414 -3.44929e-09 5.34725e-15)
(0.0311414 -3.84291e-09 4.88114e-15)
(0.0311414 -4.17889e-09 4.73847e-15)
(0.0311415 -4.46506e-09 5.5218e-15)
(0.0311415 -4.72398e-09 4.84477e-15)
(0.0311416 -4.96238e-09 5.25529e-15)
(0.0311416 -5.16641e-09 4.95524e-15)
(0.0311417 -5.31485e-09 4.62429e-15)
(0.0311418 -5.41723e-09 5.23826e-15)
(0.0311418 -5.49061e-09 5.06886e-15)
(0.0311419 -5.55465e-09 5.18157e-15)
(0.0311419 -5.53771e-09 4.8112e-15)
(0.031142 -5.46163e-09 4.68938e-15)
(0.0311421 -5.17973e-09 4.98077e-15)
(0.0311421 -4.83398e-09 5.0107e-15)
(0.0311422 -4.12009e-09 5.32724e-15)
(0.0311422 -3.20533e-09 5.27761e-15)
(0.0311422 -2.03904e-09 5.35272e-15)
(0.0311423 -5.78383e-10 5.42969e-15)
(0.0311423 8.64998e-11 5.2983e-15)
(0.0311423 3.25024e-10 5.54396e-15)
(0.0311423 2.33013e-10 5.4912e-15)
(0.0311423 -2.116e-10 5.56495e-15)
(0.0311423 -5.74842e-10 5.6212e-15)
(0.0311423 -9.00175e-10 5.46555e-15)
(0.0311423 -1.1836e-09 5.67246e-15)
(0.0311423 -1.3952e-09 5.5187e-15)
(0.0311423 -1.52762e-09 5.7061e-15)
(0.0311423 -1.56216e-09 5.77215e-15)
(0.0311424 -1.48278e-09 5.59705e-15)
(0.0311424 -1.30621e-09 5.8136e-15)
(0.0311424 -1.05218e-09 5.68092e-15)
(0.0311424 -7.15545e-10 5.97711e-15)
(0.0311424 -2.92469e-10 5.90674e-15)
(0.0311424 1.86803e-10 5.68348e-15)
(0.0311424 6.75447e-10 5.88101e-15)
(0.0311424 1.15183e-09 5.74276e-15)
(0.0311424 1.60579e-09 6.10536e-15)
(0.0311423 2.01378e-09 6.02019e-15)
(0.0311423 2.35525e-09 5.77364e-15)
(0.0311423 2.6221e-09 5.96781e-15)
(0.0311422 2.82504e-09 5.80794e-15)
(0.0311422 2.99543e-09 6.20508e-15)
(0.0311422 3.13903e-09 6.1087e-15)
(0.0311421 3.22197e-09 5.84327e-15)
(0.0311421 3.23044e-09 6.0235e-15)
(0.0311421 3.18501e-09 5.90252e-15)
(0.031142 3.10948e-09 6.14541e-15)
(0.031142 3.02633e-09 6.07617e-15)
(0.031142 2.93799e-09 5.84443e-15)
(0.0311419 2.82197e-09 6.03326e-15)
(0.0311419 2.67115e-09 5.88641e-15)
(0.0311419 2.49681e-09 6.129e-15)
(0.0311418 2.30761e-09 6.00026e-15)
(0.0311418 2.1171e-09 6.12664e-15)
(0.0311418 1.94166e-09 6.08104e-15)
(0.0311418 1.78725e-09 5.75479e-15)
(0.0311418 1.60419e-09 5.97977e-15)
(0.0311417 1.37662e-09 5.78499e-15)
(0.0311417 1.05051e-09 5.80988e-15)
(0.0311417 7.44055e-10 5.94469e-15)
(0.0311417 5.33193e-10 5.71258e-15)
(0.0311417 3.93196e-10 5.78081e-15)
(0.0311417 3.46233e-10 5.65276e-15)
(0.0311417 2.88617e-10 5.78567e-15)
(0.0311417 2.12773e-10 5.89973e-15)
(0.0311417 1.28508e-10 5.62511e-15)
(0.0311417 8.95138e-12 5.82012e-15)
(0.0311417 -1.45979e-10 5.69235e-15)
(0.0311417 -3.43715e-10 5.86413e-15)
(0.0311417 -5.37051e-10 5.89353e-15)
(0.0311417 -7.50814e-10 5.63535e-15)
(0.0311417 -8.22809e-10 5.73424e-15)
(0.0311417 -8.933e-10 5.64225e-15)
(0.0311417 -6.62889e-10 5.84905e-15)
(0.0311417 -3.16358e-10 5.93871e-15)
(0.0311417 2.69876e-10 5.63716e-15)
(0.0311417 1.05707e-09 5.78185e-15)
(0.0311417 1.24557e-09 5.58481e-15)
(0.0311417 1.07951e-09 5.77613e-15)
(0.0311417 5.90485e-10 5.88226e-15)
(0.0311417 -8.7335e-11 5.60615e-15)
(0.0311417 -8.07273e-10 5.81938e-15)
(0.0311417 -1.48768e-09 5.65765e-15)
(0.0311418 -2.05699e-09 5.55246e-15)
(0.0311418 -2.51745e-09 5.86525e-15)
(0.0311418 -2.81077e-09 5.65891e-15)
(0.0311418 -2.98903e-09 5.90543e-15)
(0.0311419 -2.96789e-09 5.67294e-15)
(0.0311419 -2.47771e-09 5.52372e-15)
(0.0311419 -2.5456e-09 5.83746e-15)
(0.031142 -1.29064e-09 5.65166e-15)
(0.0311419 1.39563e-09 5.85415e-15)
(0.0401875 -4.16912e-09 7.66236e-15)
(0.0401876 -1.29118e-08 7.50038e-15)
(0.0401878 -1.48384e-08 7.59174e-15)
(0.0401878 -1.0118e-08 7.12731e-15)
(0.0401879 -2.75238e-09 7.18716e-15)
(0.0401878 4.2575e-09 7.23296e-15)
(0.0401878 9.67664e-09 7.16871e-15)
(0.0401877 1.3303e-08 7.30082e-15)
(0.0401875 1.53322e-08 7.19257e-15)
(0.0401874 1.6085e-08 7.27913e-15)
(0.0401873 1.58991e-08 7.42645e-15)
(0.0401871 1.50515e-08 7.06289e-15)
(0.040187 1.37578e-08 7.22007e-15)
(0.0401869 1.22022e-08 6.87057e-15)
(0.0401868 1.05367e-08 6.82017e-15)
(0.0401868 8.8529e-09 7.26509e-15)
(0.0401867 7.17965e-09 6.95986e-15)
(0.0401867 5.54659e-09 7.09405e-15)
(0.0401866 3.99363e-09 6.69315e-15)
(0.0401866 2.52218e-09 6.5525e-15)
(0.0401866 1.11954e-09 7.20011e-15)
(0.0401866 -2.05506e-10 6.87555e-15)
(0.0401866 -1.42759e-09 6.91923e-15)
(0.0401866 -2.51667e-09 7.00605e-15)
(0.0401866 -3.46777e-09 6.64411e-15)
(0.0401867 -4.31144e-09 7.1944e-15)
(0.0401867 -5.08515e-09 7.12686e-15)
(0.0401867 -5.80581e-09 6.95651e-15)
(0.0401868 -6.45739e-09 6.83131e-15)
(0.0401868 -7.01662e-09 6.54231e-15)
(0.0401869 -7.49306e-09 7.09674e-15)
(0.040187 -7.91975e-09 6.97927e-15)
(0.040187 -8.30873e-09 6.84375e-15)
(0.0401871 -8.64093e-09 6.75383e-15)
(0.0401872 -8.8862e-09 6.40129e-15)
(0.0401872 -9.0576e-09 6.93898e-15)
(0.0401873 -9.18226e-09 6.86316e-15)
(0.0401874 -9.28567e-09 6.7633e-15)
(0.0401875 -9.26856e-09 6.76146e-15)
(0.0401875 -9.1509e-09 6.45505e-15)
(0.0401876 -8.72954e-09 6.56794e-15)
(0.0401877 -8.18541e-09 6.77849e-15)
(0.0401877 -7.09168e-09 6.97357e-15)
(0.0401878 -5.66857e-09 6.79089e-15)
(0.0401878 -3.83937e-09 6.95411e-15)
(0.0401879 -1.57039e-09 7.0233e-15)
(0.0401879 -4.06394e-10 7.14918e-15)
(0.0401879 8.57598e-11 7.24362e-15)
(0.0401879 3.50431e-11 7.05413e-15)
(0.0401879 -5.66014e-10 7.21829e-15)
(0.0401879 -1.09903e-09 7.26513e-15)
(0.0401879 -1.58404e-09 7.3359e-15)
(0.040188 -2.00363e-09 7.39411e-15)
(0.040188 -2.31304e-09 7.3829e-15)
(0.040188 -2.49501e-09 7.44302e-15)
(0.040188 -2.51783e-09 7.41321e-15)
(0.040188 -2.35587e-09 7.45896e-15)
(0.040188 -2.03354e-09 7.5641e-15)
(0.0401881 -1.58246e-09 7.58398e-15)
(0.0401881 -9.99112e-10 7.71463e-15)
(0.0401881 -2.812e-10 7.60214e-15)
(0.0401881 5.22922e-10 7.60583e-15)
(0.040188 1.33959e-09 7.65752e-15)
(0.040188 2.13148e-09 7.69545e-15)
(0.040188 2.88022e-09 7.82786e-15)
(0.040188 3.55002e-09 7.71805e-15)
(0.0401879 4.10991e-09 7.73069e-15)
(0.0401879 4.54815e-09 7.77008e-15)
(0.0401879 4.88113e-09 7.75458e-15)
(0.0401878 5.15535e-09 7.78059e-15)
(0.0401878 5.38006e-09 7.83533e-15)
(0.0401877 5.50719e-09 7.76732e-15)
(0.0401877 5.51691e-09 7.83123e-15)
(0.0401876 5.43865e-09 7.89422e-15)
(0.0401876 5.30907e-09 7.78392e-15)
(0.0401875 5.1642e-09 7.81672e-15)
(0.0401875 5.00953e-09 7.80298e-15)
(0.0401875 4.81226e-09 7.84874e-15)
(0.0401874 4.56066e-09 7.8735e-15)
(0.0401874 4.27155e-09 7.92872e-15)
(0.0401874 3.95987e-09 8.12502e-15)
(0.0401873 3.64609e-09 7.74885e-15)
(0.0401873 3.3547e-09 7.82353e-15)
(0.0401873 3.09311e-09 7.78223e-15)
(0.0401872 2.78936e-09 7.49093e-15)
(0.0401872 2.41315e-09 7.81152e-15)
(0.0401872 1.88896e-09 7.63476e-15)
(0.0401872 1.38803e-09 7.66892e-15)
(0.0401872 1.02982e-09 7.73588e-15)
(0.0401872 7.89786e-10 7.21301e-15)
(0.0401872 6.94904e-10 7.6826e-15)
(0.0401871 5.95256e-10 7.55243e-15)
(0.0401871 4.69604e-10 7.59425e-15)
(0.0401871 3.24661e-10 7.6335e-15)
(0.0401871 1.20292e-10 7.4994e-15)
(0.0401871 -1.48626e-10 7.76835e-15)
(0.0401871 -4.89749e-10 7.43024e-15)
(0.0401871 -8.37487e-10 7.59648e-15)
(0.0401871 -1.21552e-09 7.63038e-15)
(0.0401872 -1.39749e-09 7.39866e-15)
(0.0401872 -1.55874e-09 7.69696e-15)
(0.0401872 -1.27903e-09 7.6255e-15)
(0.0401872 -7.95869e-10 7.65942e-15)
(0.0401872 6.75167e-11 7.62033e-15)
(0.0401872 1.23968e-09 7.47574e-15)
(0.0401872 1.58372e-09 7.5648e-15)
(0.0401872 1.37625e-09 7.51975e-15)
(0.0401872 6.62263e-10 7.57621e-15)
(0.0401872 -3.59351e-10 7.56969e-15)
(0.0401872 -1.46914e-09 7.53942e-15)
(0.0401872 -2.52974e-09 7.64417e-15)
(0.0401872 -3.4265e-09 7.60221e-15)
(0.0401873 -4.15316e-09 7.68893e-15)
(0.0401873 -4.62786e-09 7.66138e-15)
(0.0401873 -4.92049e-09 7.59378e-15)
(0.0401874 -4.8989e-09 7.65141e-15)
(0.0401874 -4.17827e-09 7.58036e-15)
(0.0401875 -4.28068e-09 7.65775e-15)
(0.0401875 -2.01929e-09 7.64402e-15)
(0.0401875 1.17207e-09 7.52885e-15)
(0.0488646 -9.59683e-09 9.35665e-15)
(0.0488647 -2.01975e-08 9.11642e-15)
(0.0488648 -2.05644e-08 9.23006e-15)
(0.0488649 -1.27764e-08 9.07076e-15)
(0.0488649 -2.1126e-09 9.01802e-15)
(0.0488649 7.73988e-09 8.95975e-15)
(0.0488648 1.52777e-08 8.9491e-15)
(0.0488647 2.02804e-08 9.0219e-15)
(0.0488645 2.30342e-08 9.02572e-15)
(0.0488644 2.399e-08 9.01423e-15)
(0.0488642 2.36174e-08 9.14084e-15)
(0.0488641 2.23043e-08 8.79568e-15)
(0.048864 2.03559e-08 8.86623e-15)
(0.0488638 1.80328e-08 8.53269e-15)
(0.0488637 1.55516e-08 8.43659e-15)
(0.0488637 1.30467e-08 8.86284e-15)
(0.0488636 1.05629e-08 8.61771e-15)
(0.0488635 8.14064e-09 8.68348e-15)
(0.0488635 5.83348e-09 8.29333e-15)
(0.0488635 3.64815e-09 8.21091e-15)
(0.0488635 1.57122e-09 8.51044e-15)
(0.0488635 -3.86175e-10 8.51514e-15)
(0.0488635 -2.19059e-09 8.54843e-15)
(0.0488635 -3.80163e-09 8.48414e-15)
(0.0488635 -5.2144e-09 8.38515e-15)
(0.0488636 -6.47133e-09 8.61121e-15)
(0.0488636 -7.62113e-09 8.53597e-15)
(0.0488636 -8.68682e-09 8.48154e-15)
(0.0488637 -9.65039e-09 8.28671e-15)
(0.0488638 -1.04811e-08 8.24653e-15)
(0.0488638 -1.11894e-08 8.49387e-15)
(0.0488639 -1.18191e-08 8.34006e-15)
(0.048864 -1.23887e-08 8.34306e-15)
(0.0488641 -1.28742e-08 8.18241e-15)
(0.0488641 -1.32374e-08 8.11374e-15)
(0.0488642 -1.34959e-08 8.38114e-15)
(0.0488643 -1.36868e-08 8.27981e-15)
(0.0488644 -1.38404e-08 8.26165e-15)
(0.0488645 -1.38292e-08 8.16546e-15)
(0.0488646 -1.36709e-08 8.13956e-15)
(0.0488646 -1.31053e-08 8.16716e-15)
(0.0488647 -1.23453e-08 8.58097e-15)
(0.0488648 -1.08415e-08 8.59858e-15)
(0.0488649 -8.8612e-09 8.65195e-15)
(0.0488649 -6.2993e-09 8.55723e-15)
(0.048865 -3.13246e-09 8.56643e-15)
(0.048865 -1.35463e-09 8.80132e-15)
(0.048865 -5.01739e-10 8.91627e-15)
(0.048865 -4.35584e-10 8.80876e-15)
(0.048865 -1.14607e-09 8.8606e-15)
(0.048865 -1.82897e-09 8.85074e-15)
(0.0488651 -2.4662e-09 9.04549e-15)
(0.0488651 -3.0152e-09 9.07723e-15)
(0.0488651 -3.41332e-09 9.15195e-15)
(0.0488651 -3.62884e-09 9.11725e-15)
(0.0488651 -3.61336e-09 9.01912e-15)
(0.0488651 -3.33044e-09 9.21208e-15)
(0.0488652 -2.81307e-09 9.26416e-15)
(0.0488652 -2.10665e-09 9.5348e-15)
(0.0488652 -1.21139e-09 9.44077e-15)
(0.0488652 -1.29238e-10 9.22001e-15)
(0.0488652 1.06961e-09 9.35755e-15)
(0.0488652 2.28112e-09 9.39115e-15)
(0.0488651 3.45002e-09 9.64287e-15)
(0.0488651 4.54785e-09 9.53662e-15)
(0.0488651 5.52543e-09 9.36014e-15)
(0.048865 6.34186e-09 9.5016e-15)
(0.048865 6.98209e-09 9.52419e-15)
(0.0488649 7.46886e-09 9.59234e-15)
(0.0488649 7.86364e-09 9.6743e-15)
(0.0488648 8.1784e-09 9.47569e-15)
(0.0488648 8.35215e-09 9.57726e-15)
(0.0488647 8.36058e-09 9.58341e-15)
(0.0488647 8.24187e-09 9.72861e-15)
(0.0488646 8.04632e-09 9.71974e-15)
(0.0488646 7.82504e-09 9.48626e-15)
(0.0488645 7.5874e-09 9.60397e-15)
(0.0488645 7.28996e-09 9.61532e-15)
(0.0488644 6.91643e-09 9.86065e-15)
(0.0488644 6.49038e-09 9.69678e-15)
(0.0488643 6.0338e-09 1.02138e-14)
(0.0488643 5.57417e-09 9.62655e-15)
(0.0488643 5.14355e-09 9.5245e-15)
(0.0488642 4.75037e-09 9.72957e-15)
(0.0488642 4.29926e-09 9.19402e-15)
(0.0488642 3.74337e-09 9.89278e-15)
(0.0488642 2.98751e-09 9.19276e-15)
(0.0488641 2.25826e-09 9.39019e-15)
(0.0488641 1.72184e-09 9.67665e-15)
(0.0488641 1.3575e-09 9.20358e-15)
(0.0488641 1.1964e-09 9.95496e-15)
(0.0488641 1.04103e-09 9.23492e-15)
(0.0488641 8.5209e-10 9.3024e-15)
(0.0488641 6.28418e-10 9.56016e-15)
(0.0488641 3.13852e-10 8.86689e-15)
(0.0488641 -1.02845e-10 9.80884e-15)
(0.0488641 -6.29173e-10 9.17007e-15)
(0.0488641 -1.17967e-09 9.26797e-15)
(0.0488641 -1.77475e-09 9.54586e-15)
(0.0488641 -2.12242e-09 9.09361e-15)
(0.0488641 -2.42528e-09 9.73821e-15)
(0.0488641 -2.1396e-09 9.33191e-15)
(0.0488641 -1.54619e-09 9.35093e-15)
(0.0488642 -4.12069e-10 9.49287e-15)
(0.0488642 1.15673e-09 9.13343e-15)
(0.0488642 1.68915e-09 9.65417e-15)
(0.0488642 1.47238e-09 9.01867e-15)
(0.0488642 5.48481e-10 9.24951e-15)
(0.0488642 -8.21305e-10 9.44867e-15)
(0.0488642 -2.34307e-09 9.19737e-15)
(0.0488642 -3.81516e-09 9.58966e-15)
(0.0488642 -5.07238e-09 9.56269e-15)
(0.0488643 -6.09619e-09 9.47532e-15)
(0.0488643 -6.78149e-09 9.55739e-15)
(0.0488644 -7.212e-09 9.23449e-15)
(0.0488644 -7.19975e-09 9.70627e-15)
(0.0488644 -6.24846e-09 9.55908e-15)
(0.0488645 -6.4021e-09 9.44612e-15)
(0.0488645 -2.78467e-09 9.53963e-15)
(0.0488645 -1.03215e-10 9.20532e-15)
(0.0567979 -1.70477e-08 1.09925e-14)
(0.0567981 -2.79663e-08 1.08172e-14)
(0.0567982 -2.55425e-08 1.08069e-14)
(0.0567982 -1.42838e-08 1.07472e-14)
(0.0567982 -3.68382e-10 1.06867e-14)
(0.0567981 1.21796e-08 1.06237e-14)
(0.056798 2.17205e-08 1.05926e-14)
(0.0567979 2.80298e-08 1.06286e-14)
(0.0567978 3.14671e-08 1.06276e-14)
(0.0567976 3.25971e-08 1.06201e-14)
(0.0567975 3.20083e-08 1.07308e-14)
(0.0567973 3.01917e-08 1.02002e-14)
(0.0567972 2.75407e-08 1.04037e-14)
(0.0567971 2.43937e-08 1.00307e-14)
(0.056797 2.10344e-08 9.95705e-15)
(0.0567969 1.76417e-08 1.04446e-14)
(0.0567968 1.42783e-08 1.00741e-14)
(0.0567968 1.0995e-08 1.01508e-14)
(0.0567967 7.85998e-09 9.62156e-15)
(0.0567967 4.88843e-09 9.73153e-15)
(0.0567967 2.06884e-09 9.81849e-15)
(0.0567967 -5.85152e-10 1.00089e-14)
(0.0567967 -3.03206e-09 1.00525e-14)
(0.0567967 -5.222e-09 9.63933e-15)
(0.0567967 -7.15237e-09 9.99678e-15)
(0.0567968 -8.87701e-09 9.99494e-15)
(0.0567968 -1.04527e-08 9.82082e-15)
(0.0567969 -1.19078e-08 9.88786e-15)
(0.0567969 -1.32241e-08 9.5066e-15)
(0.056797 -1.43635e-08 9.80951e-15)
(0.0567971 -1.53366e-08 9.87189e-15)
(0.0567971 -1.61989e-08 9.48563e-15)
(0.0567972 -1.69749e-08 9.72753e-15)
(0.0567973 -1.76358e-08 9.42427e-15)
(0.0567974 -1.81368e-08 9.68287e-15)
(0.0567975 -1.85017e-08 9.7671e-15)
(0.0567976 -1.87764e-08 9.56007e-15)
(0.0567977 -1.89938e-08 9.64731e-15)
(0.0567978 -1.89993e-08 9.39077e-15)
(0.0567978 -1.88091e-08 9.71543e-15)
(0.0567979 -1.81073e-08 9.68145e-15)
(0.056798 -1.71317e-08 1.00579e-14)
(0.0567981 -1.52146e-08 1.00784e-14)
(0.0567982 -1.26654e-08 1.00471e-14)
(0.0567982 -9.34714e-09 1.00421e-14)
(0.0567983 -5.24144e-09 1.00105e-14)
(0.0567983 -2.76886e-09 1.04366e-14)
(0.0567983 -1.46091e-09 1.04069e-14)
(0.0567984 -1.19553e-09 1.03698e-14)
(0.0567984 -1.94971e-09 1.0368e-14)
(0.0567984 -2.73999e-09 1.03193e-14)
(0.0567984 -3.50142e-09 1.06867e-14)
(0.0567984 -4.15735e-09 1.05874e-14)
(0.0567985 -4.62361e-09 1.08083e-14)
(0.0567985 -4.8493e-09 1.07533e-14)
(0.0567985 -4.76601e-09 1.04619e-14)
(0.0567985 -4.32667e-09 1.08584e-14)
(0.0567985 -3.57423e-09 1.08155e-14)
(0.0567985 -2.56879e-09 1.10687e-14)
(0.0567985 -1.31563e-09 1.10421e-14)
(0.0567985 1.76337e-10 1.06711e-14)
(0.0567985 1.81224e-09 1.1044e-14)
(0.0567985 3.45672e-09 1.09512e-14)
(0.0567985 5.03684e-09 1.12128e-14)
(0.0567985 6.51309e-09 1.11713e-14)
(0.0567984 7.82296e-09 1.08309e-14)
(0.0567984 8.91701e-09 1.12006e-14)
(0.0567983 9.77769e-09 1.10912e-14)
(0.0567983 1.04338e-08 1.13085e-14)
(0.0567982 1.09599e-08 1.12826e-14)
(0.0567982 1.13695e-08 1.09393e-14)
(0.0567981 1.15906e-08 1.12651e-14)
(0.056798 1.15971e-08 1.11811e-14)
(0.056798 1.14357e-08 1.14562e-14)
(0.0567979 1.11693e-08 1.13645e-14)
(0.0567979 1.08646e-08 1.09823e-14)
(0.0567978 1.05346e-08 1.13211e-14)
(0.0567978 1.01253e-08 1.121e-14)
(0.0567977 9.61741e-09 1.14619e-14)
(0.0567977 9.04259e-09 1.13309e-14)
(0.0567976 8.42967e-09 1.15898e-14)
(0.0567976 7.81174e-09 1.13447e-14)
(0.0567976 7.22718e-09 1.11632e-14)
(0.0567975 6.68516e-09 1.15957e-14)
(0.0567975 6.06675e-09 1.11312e-14)