/*--------------------------------*- C++ -*----------------------------------*\
  =========                 |
  \\      /  F ield         | OpenFOAM: The Open Source CFD Toolbox
   \\    /   O peration     | Website:  https://openfoam.org
    \\  /    A nd           | Version:  7
     \\/     M anipulation  |
\*---------------------------------------------------------------------------*/
FoamFile
{
    version     2.0;
    format      ascii;
    class       volVectorField;
    location    "19000";
    object      U;
}
// * * * * * * * * * * * * * * * * * * * * * * * * * * * * * * * * * * * * * //

dimensions      [0 1 -1 0 0 0 0];

internalField   nonuniform List<vector> 
4000
(
(0.145231 -2.15654e-08 3.51808e-14)
(0.145231 -2.59156e-08 3.5167e-14)
(0.145231 -2.92309e-08 3.51118e-14)
(0.145231 -3.21271e-08 3.512e-14)
(0.145231 -3.47718e-08 3.50479e-14)
(0.145231 -3.72069e-08 3.50072e-14)
(0.145231 -3.94494e-08 3.50424e-14)
(0.145231 -4.14785e-08 3.50363e-14)
(0.145231 -4.32822e-08 3.50178e-14)
(0.145231 -4.48824e-08 3.50488e-14)
(0.145231 -4.62899e-08 3.5037e-14)
(0.145231 -4.75062e-08 3.49466e-14)
(0.145231 -4.85507e-08 3.4956e-14)
(0.145231 -4.94352e-08 3.4885e-14)
(0.145231 -5.01667e-08 3.49142e-14)
(0.145231 -5.07641e-08 3.49014e-14)
(0.145231 -5.12446e-08 3.48173e-14)
(0.145231 -5.16266e-08 3.48451e-14)
(0.145231 -5.19093e-08 3.47928e-14)
(0.145231 -5.20893e-08 3.48328e-14)
(0.145231 -5.2175e-08 3.48211e-14)
(0.145231 -5.21544e-08 3.48539e-14)
(0.145231 -5.20286e-08 3.48618e-14)
(0.145231 -5.17959e-08 3.48423e-14)
(0.145231 -5.1443e-08 3.48788e-14)
(0.145231 -5.09899e-08 3.48543e-14)
(0.145231 -5.04589e-08 3.48417e-14)
(0.145231 -4.9858e-08 3.48403e-14)
(0.145231 -4.92108e-08 3.48398e-14)
(0.145231 -4.85349e-08 3.48724e-14)
(0.145231 -4.78338e-08 3.4848e-14)
(0.145231 -4.71215e-08 3.48311e-14)
(0.145231 -4.63932e-08 3.48333e-14)
(0.145231 -4.56232e-08 3.48169e-14)
(0.145231 -4.47801e-08 3.4851e-14)
(0.14523 -4.37994e-08 3.4809e-14)
(0.14523 -4.25968e-08 3.47589e-14)
(0.14523 -4.10475e-08 3.475e-14)
(0.14523 -3.89459e-08 3.47356e-14)
(0.14523 -3.60082e-08 3.47774e-14)
(0.14523 -3.18021e-08 3.47853e-14)
(0.14523 -2.56938e-08 3.47793e-14)
(0.14523 -1.64924e-08 3.47691e-14)
(0.14523 -2.32175e-09 3.47712e-14)
(0.14523 2.05378e-08 3.47707e-14)
(0.14523 4.43513e-08 3.47635e-14)
(0.14523 5.95627e-08 3.47545e-14)
(0.14523 6.87606e-08 3.47394e-14)
(0.14523 7.43514e-08 3.47449e-14)
(0.14523 7.74839e-08 3.47456e-14)
(0.14523 7.89546e-08 3.47383e-14)
(0.14523 7.92829e-08 3.47214e-14)
(0.14523 7.87971e-08 3.47086e-14)
(0.14523 7.77293e-08 3.47014e-14)
(0.14523 7.62633e-08 3.47048e-14)
(0.14523 7.4515e-08 3.47235e-14)
(0.14523 7.25451e-08 3.47469e-14)
(0.14523 7.0424e-08 3.47315e-14)
(0.14523 6.82191e-08 3.47293e-14)
(0.14523 6.59505e-08 3.47093e-14)
(0.14523 6.36337e-08 3.47321e-14)
(0.14523 6.12804e-08 3.47497e-14)
(0.14523 5.89027e-08 3.4746e-14)
(0.14523 5.65203e-08 3.47388e-14)
(0.14523 5.41321e-08 3.47219e-14)
(0.14523 5.1744e-08 3.47391e-14)
(0.14523 4.93728e-08 3.47631e-14)
(0.14523 4.70182e-08 3.47598e-14)
(0.14523 4.4685e-08 3.47715e-14)
(0.14523 4.23754e-08 3.47659e-14)
(0.14523 4.00967e-08 3.47884e-14)
(0.14523 3.78411e-08 3.48124e-14)
(0.14523 3.55892e-08 3.48147e-14)
(0.14523 3.33339e-08 3.48132e-14)
(0.14523 3.10796e-08 3.48124e-14)
(0.14523 2.88249e-08 3.48336e-14)
(0.14523 2.65447e-08 3.48661e-14)
(0.14523 2.42347e-08 3.48481e-14)
(0.14523 2.18801e-08 3.48335e-14)
(0.14523 1.94718e-08 3.48204e-14)
(0.14523 1.7018e-08 3.48236e-14)
(0.14523 1.4505e-08 3.48586e-14)
(0.14523 1.19165e-08 3.48705e-14)
(0.14523 9.24997e-09 3.48852e-14)
(0.14523 6.50053e-09 3.49223e-14)
(0.14523 3.6604e-09 3.49362e-14)
(0.14523 7.22534e-10 3.49616e-14)
(0.14523 -2.30767e-09 3.49621e-14)
(0.14523 -5.42821e-09 3.49629e-14)
(0.14523 -8.63605e-09 3.4997e-14)
(0.14523 -1.19147e-08 3.501e-14)
(0.14523 -1.52611e-08 3.5036e-14)
(0.14523 -1.86412e-08 3.50343e-14)
(0.14523 -2.20024e-08 3.50356e-14)
(0.14523 -2.52963e-08 3.50581e-14)
(0.14523 -2.84345e-08 3.50652e-14)
(0.14523 -3.1273e-08 3.50929e-14)
(0.145231 -3.36135e-08 3.5076e-14)
(0.145231 -3.51881e-08 3.50654e-14)
(0.145231 -3.55584e-08 3.50841e-14)
(0.145231 -3.40784e-08 3.50922e-14)
(0.145231 -2.9564e-08 3.51138e-14)
(0.145231 -2.01006e-08 3.51053e-14)
(0.145231 -1.94488e-09 3.5103e-14)
(0.145231 1.71932e-08 3.5126e-14)
(0.145231 2.77945e-08 3.51404e-14)
(0.145231 3.24852e-08 3.51659e-14)
(0.145231 3.37197e-08 3.5158e-14)
(0.145231 3.26833e-08 3.51487e-14)
(0.145231 3.01994e-08 3.51699e-14)
(0.145231 2.67917e-08 3.5176e-14)
(0.145231 2.28168e-08 3.51708e-14)
(0.145231 1.85183e-08 3.51477e-14)
(0.145231 1.40849e-08 3.51431e-14)
(0.145231 9.6656e-09 3.51658e-14)
(0.145231 5.35951e-09 3.5181e-14)
(0.145231 1.23738e-09 3.51878e-14)
(0.145231 -2.7509e-09 3.5172e-14)
(0.145231 -7.3365e-09 3.51605e-14)
(0.145231 -1.44785e-08 3.51744e-14)
(0.145218 -2.71652e-08 3.51495e-14)
(0.145218 -3.21966e-08 3.51321e-14)
(0.145218 -3.46087e-08 3.49793e-14)
(0.145218 -3.62584e-08 3.50386e-14)
(0.145218 -3.76798e-08 3.49565e-14)
(0.145218 -3.90035e-08 3.50433e-14)
(0.145218 -4.02557e-08 3.52064e-14)
(0.145218 -4.14099e-08 3.50649e-14)
(0.145218 -4.24507e-08 3.50878e-14)
(0.145218 -4.33839e-08 3.51658e-14)
(0.145218 -4.42052e-08 3.50506e-14)
(0.145218 -4.49128e-08 3.49693e-14)
(0.145218 -4.55173e-08 3.4931e-14)
(0.145218 -4.60212e-08 3.48834e-14)
(0.145218 -4.64234e-08 3.48708e-14)
(0.145218 -4.67345e-08 3.48572e-14)
(0.145218 -4.69642e-08 3.48168e-14)
(0.145218 -4.71295e-08 3.48074e-14)
(0.145218 -4.7229e-08 3.47805e-14)
(0.145218 -4.72543e-08 3.47785e-14)
(0.145218 -4.72039e-08 3.47138e-14)
(0.145218 -4.70664e-08 3.48333e-14)
(0.145218 -4.68407e-08 3.48294e-14)
(0.145218 -4.65149e-08 3.48152e-14)
(0.145218 -4.60738e-08 3.48832e-14)
(0.145218 -4.55379e-08 3.48002e-14)
(0.145218 -4.4922e-08 3.48105e-14)
(0.145218 -4.42292e-08 3.48184e-14)
(0.145218 -4.34876e-08 3.48269e-14)
(0.145218 -4.27186e-08 3.49091e-14)
(0.145218 -4.19195e-08 3.48179e-14)
(0.145218 -4.11017e-08 3.48302e-14)
(0.145218 -4.02521e-08 3.48309e-14)
(0.145218 -3.93448e-08 3.48356e-14)
(0.145218 -3.83492e-08 3.49538e-14)
(0.145218 -3.71916e-08 3.48068e-14)
(0.145218 -3.57798e-08 3.47801e-14)
(0.145218 -3.39824e-08 3.47598e-14)
(0.145218 -3.1605e-08 3.47164e-14)
(0.145218 -2.83606e-08 3.49017e-14)
(0.145218 -2.38228e-08 3.4849e-14)
(0.145218 -1.74035e-08 3.48367e-14)
(0.145218 -8.09014e-09 3.48271e-14)
(0.145218 5.41369e-09 3.48262e-14)
(0.145218 2.5384e-08 3.48269e-14)
(0.145217 4.63024e-08 3.48227e-14)
(0.145217 6.09851e-08 3.48147e-14)
(0.145217 7.0518e-08 3.48058e-14)
(0.145217 7.6532e-08 3.48066e-14)
(0.145217 8.0018e-08 3.48083e-14)
(0.145217 8.17411e-08 3.48042e-14)
(0.145217 8.22348e-08 3.47932e-14)
(0.145217 8.1843e-08 3.47812e-14)
(0.145217 8.07993e-08 3.47751e-14)
(0.145217 7.93024e-08 3.47707e-14)
(0.145217 7.74722e-08 3.47803e-14)
(0.145217 7.53713e-08 3.47932e-14)
(0.145217 7.30845e-08 3.47965e-14)
(0.145217 7.06824e-08 3.47947e-14)
(0.145217 6.81892e-08 3.47856e-14)
(0.145217 6.5631e-08 3.4803e-14)
(0.145217 6.30139e-08 3.48196e-14)
(0.145217 6.03595e-08 3.48217e-14)
(0.145217 5.76899e-08 3.48151e-14)
(0.145217 5.49972e-08 3.48049e-14)
(0.145217 5.23007e-08 3.48195e-14)
(0.145217 4.96131e-08 3.48374e-14)
(0.145217 4.69334e-08 3.48456e-14)
(0.145217 4.42721e-08 3.4854e-14)
(0.145217 4.16275e-08 3.48574e-14)
(0.145217 3.90112e-08 3.48813e-14)
(0.145217 3.6419e-08 3.49037e-14)
(0.145217 3.38313e-08 3.49129e-14)
(0.145217 3.1238e-08 3.49144e-14)
(0.145217 2.86469e-08 3.49104e-14)
(0.145217 2.60635e-08 3.49219e-14)
(0.145217 2.3455e-08 3.49369e-14)
(0.145217 2.08246e-08 3.49369e-14)
(0.145217 1.81567e-08 3.49325e-14)
(0.145217 1.54412e-08 3.49213e-14)
(0.145217 1.26885e-08 3.48739e-14)
(0.145217 9.88544e-09 3.49156e-14)
(0.145218 7.02039e-09 3.4922e-14)
(0.145218 4.09541e-09 3.49196e-14)
(0.145218 1.10733e-09 3.49786e-14)
(0.145218 -1.95788e-09 3.49565e-14)
(0.145218 -5.09846e-09 3.50003e-14)
(0.145218 -8.30849e-09 3.50048e-14)
(0.145218 -1.15779e-08 3.49947e-14)
(0.145218 -1.4898e-08 3.50437e-14)
(0.145218 -1.8264e-08 3.50163e-14)
(0.145218 -2.16547e-08 3.50732e-14)
(0.145218 -2.50264e-08 3.50673e-14)
(0.145218 -2.83303e-08 3.50544e-14)
(0.145218 -3.15144e-08 3.50826e-14)
(0.145218 -3.44795e-08 3.50627e-14)
(0.145218 -3.70767e-08 3.51164e-14)
(0.145218 -3.91115e-08 3.50901e-14)
(0.145218 -4.03173e-08 3.50591e-14)
(0.145218 -4.02768e-08 3.51013e-14)
(0.145218 -3.83761e-08 3.50715e-14)
(0.145218 -3.35981e-08 3.51129e-14)
(0.145218 -2.46159e-08 3.51069e-14)
(0.145218 -9.12683e-09 3.50908e-14)
(0.145218 7.39057e-09 3.51273e-14)
(0.145218 1.77917e-08 3.51154e-14)
(0.145218 2.32113e-08 3.51592e-14)
(0.145218 2.53483e-08 3.51569e-14)
(0.145218 2.52417e-08 3.51374e-14)
(0.145218 2.36936e-08 3.51638e-14)
(0.145218 2.12525e-08 3.51492e-14)
(0.145218 1.83056e-08 3.51304e-14)
(0.145218 1.51286e-08 3.51139e-14)
(0.145218 1.19402e-08 3.51031e-14)
(0.145218 8.90925e-09 3.51352e-14)
(0.145218 6.15155e-09 3.51241e-14)
(0.145218 3.74476e-09 3.51253e-14)
(0.145218 1.44553e-09 3.51216e-14)
(0.145218 -2.79621e-09 3.51152e-14)
(0.145218 -1.47427e-08 3.51489e-14)
(0.145194 -3.2659e-08 3.51243e-14)
(0.145194 -3.8251e-08 3.50976e-14)
(0.145194 -3.96572e-08 3.50427e-14)
(0.145194 -3.99867e-08 3.5018e-14)
(0.145194 -4.01263e-08 3.498e-14)
(0.145194 -4.02824e-08 3.50007e-14)
(0.145194 -4.04892e-08 3.50437e-14)
(0.145194 -4.0726e-08 3.50291e-14)
(0.145194 -4.09661e-08 3.50278e-14)
(0.145194 -4.11962e-08 3.50395e-14)
(0.145194 -4.13955e-08 3.50034e-14)
(0.145194 -4.15623e-08 3.49455e-14)
(0.145194 -4.17062e-08 3.49e-14)
(0.145194 -4.18016e-08 3.48583e-14)
(0.145194 -4.18483e-08 3.48327e-14)
(0.145194 -4.18554e-08 3.48158e-14)
(0.145194 -4.18195e-08 3.47925e-14)
(0.145194 -4.17597e-08 3.47761e-14)
(0.145194 -4.16723e-08 3.47548e-14)
(0.145194 -4.154e-08 3.47403e-14)
(0.145194 -4.13524e-08 3.47105e-14)
(0.145194 -4.10971e-08 3.47548e-14)
(0.145194 -4.07784e-08 3.47777e-14)
(0.145194 -4.03641e-08 3.47698e-14)
(0.145194 -3.98339e-08 3.48239e-14)
(0.145194 -3.92169e-08 3.48122e-14)
(0.145194 -3.85175e-08 3.48083e-14)
(0.145194 -3.77391e-08 3.48138e-14)
(0.145194 -3.69165e-08 3.48208e-14)
(0.145194 -3.60644e-08 3.48695e-14)
(0.145194 -3.51812e-08 3.48566e-14)
(0.145194 -3.42738e-08 3.48461e-14)
(0.145194 -3.33291e-08 3.48544e-14)
(0.145194 -3.23246e-08 3.48447e-14)
(0.145194 -3.12201e-08 3.48946e-14)
(0.145194 -2.9942e-08 3.4863e-14)
(0.145194 -2.83883e-08 3.48193e-14)
(0.145194 -2.64318e-08 3.48158e-14)
(0.145194 -2.38915e-08 3.48049e-14)
(0.145193 -2.04775e-08 3.48598e-14)
(0.145193 -1.57954e-08 3.48801e-14)
(0.145193 -9.3424e-09 3.48824e-14)
(0.145193 -2.83261e-10 3.48791e-14)
(0.145193 1.22119e-08 3.48839e-14)
(0.145193 2.93821e-08 3.48863e-14)
(0.145193 4.75434e-08 3.48817e-14)
(0.145193 6.15044e-08 3.48751e-14)
(0.145193 7.12527e-08 3.48682e-14)
(0.145193 7.76937e-08 3.48722e-14)
(0.145193 8.15912e-08 3.48751e-14)
(0.145193 8.36325e-08 3.48706e-14)
(0.145193 8.4348e-08 3.48597e-14)
(0.145193 8.40867e-08 3.48478e-14)
(0.145193 8.31004e-08 3.48412e-14)
(0.145193 8.15989e-08 3.48298e-14)
(0.145193 7.97121e-08 3.48545e-14)
(0.145193 7.75135e-08 3.486e-14)
(0.145193 7.5093e-08 3.48677e-14)
(0.145193 7.25222e-08 3.48705e-14)
(0.145193 6.98295e-08 3.48605e-14)
(0.145193 6.70551e-08 3.48892e-14)
(0.145193 6.42081e-08 3.49008e-14)
(0.145193 6.13079e-08 3.49005e-14)
(0.145193 5.8376e-08 3.48955e-14)
(0.145193 5.54163e-08 3.48845e-14)
(0.145193 5.24454e-08 3.49154e-14)
(0.145193 4.94693e-08 3.49287e-14)
(0.145193 4.64957e-08 3.49374e-14)
(0.145193 4.35403e-08 3.49471e-14)
(0.145193 4.05988e-08 3.49492e-14)
(0.145193 3.76829e-08 3.49872e-14)
(0.145193 3.47859e-08 3.50101e-14)
(0.145193 3.18909e-08 3.50152e-14)
(0.145193 2.89916e-08 3.50154e-14)
(0.145193 2.60962e-08 3.50059e-14)
(0.145193 2.32095e-08 3.50251e-14)
(0.145193 2.03089e-08 3.50319e-14)
(0.145193 1.73887e-08 3.5034e-14)
(0.145193 1.44313e-08 3.5036e-14)
(0.145193 1.14399e-08 3.50215e-14)
(0.145193 8.41921e-09 3.48969e-14)
(0.145193 5.35202e-09 3.49846e-14)
(0.145193 2.24078e-09 3.49732e-14)
(0.145193 -9.18504e-10 3.49531e-14)
(0.145193 -4.13037e-09 3.51292e-14)
(0.145193 -7.39512e-09 3.49859e-14)
(0.145193 -1.07156e-08 3.5118e-14)
(0.145194 -1.40795e-08 3.50453e-14)
(0.145194 -1.74788e-08 3.50129e-14)
(0.145194 -2.09025e-08 3.51421e-14)
(0.145194 -2.43347e-08 3.49873e-14)
(0.145194 -2.77605e-08 3.5151e-14)
(0.145194 -3.11275e-08 3.50987e-14)
(0.145194 -3.43768e-08 3.50617e-14)
(0.145194 -3.74545e-08 3.5169e-14)
(0.145194 -4.02622e-08 3.50558e-14)
(0.145194 -4.26618e-08 3.51462e-14)
(0.145194 -4.44532e-08 3.51132e-14)
(0.145194 -4.53892e-08 3.50358e-14)
(0.145194 -4.50806e-08 3.52193e-14)
(0.145194 -4.29751e-08 3.50659e-14)
(0.145194 -3.82635e-08 3.51702e-14)
(0.145194 -3.0067e-08 3.51038e-14)
(0.145194 -1.71138e-08 3.50641e-14)
(0.145194 -3.05638e-09 3.51917e-14)
(0.145194 6.98452e-09 3.50438e-14)
(0.145194 1.3052e-08 3.5176e-14)
(0.145194 1.61222e-08 3.51475e-14)
(0.145194 1.70231e-08 3.5115e-14)
(0.145194 1.64929e-08 3.51597e-14)
(0.145194 1.5093e-08 3.51186e-14)
(0.145194 1.32363e-08 3.51018e-14)
(0.145194 1.12249e-08 3.5083e-14)
(0.145194 9.31597e-09 3.50575e-14)
(0.145194 7.70543e-09 3.5185e-14)
(0.145194 6.53016e-09 3.50216e-14)
(0.145194 5.86877e-09 3.5069e-14)
(0.145194 5.28956e-09 3.5074e-14)
(0.145194 1.4589e-09 3.50672e-14)
(0.145194 -1.51044e-08 3.51276e-14)
(0.145159 -3.79456e-08 3.50765e-14)
(0.145159 -4.40309e-08 3.50601e-14)
(0.145159 -4.43541e-08 3.50374e-14)
(0.145159 -4.32701e-08 3.50175e-14)
(0.145159 -4.20437e-08 3.4989e-14)
(0.145159 -4.09692e-08 3.49843e-14)
(0.145159 -4.00817e-08 3.49937e-14)
(0.145159 -3.93445e-08 3.49831e-14)
(0.145159 -3.87325e-08 3.4971e-14)
(0.145159 -3.82255e-08 3.49631e-14)
(0.145159 -3.77779e-08 3.49346e-14)
(0.145159 -3.73816e-08 3.4893e-14)
(0.145159 -3.70299e-08 3.48519e-14)
(0.145159 -3.6699e-08 3.48152e-14)
(0.145159 -3.63735e-08 3.47874e-14)
(0.145159 -3.60599e-08 3.47726e-14)
(0.145159 -3.57556e-08 3.47595e-14)
(0.145159 -3.54729e-08 3.47432e-14)
(0.145159 -3.52001e-08 3.47228e-14)
(0.145159 -3.49145e-08 3.47039e-14)
(0.145159 -3.45977e-08 3.46874e-14)
(0.145159 -3.42377e-08 3.47095e-14)
(0.145159 -3.38296e-08 3.47359e-14)
(0.145159 -3.33259e-08 3.47528e-14)
(0.145159 -3.27178e-08 3.4791e-14)
(0.145159 -3.20366e-08 3.48069e-14)
(0.145159 -3.1271e-08 3.48143e-14)
(0.145159 -3.04127e-08 3.4822e-14)
(0.145159 -2.95155e-08 3.4833e-14)
(0.145159 -2.85973e-08 3.4864e-14)
(0.145159 -2.76469e-08 3.48751e-14)
(0.145159 -2.66845e-08 3.48781e-14)
(0.145159 -2.56855e-08 3.48806e-14)
(0.145159 -2.46242e-08 3.48808e-14)
(0.145159 -2.34618e-08 3.49025e-14)
(0.145159 -2.21173e-08 3.49035e-14)
(0.145159 -2.04969e-08 3.48887e-14)
(0.145159 -1.84742e-08 3.48805e-14)
(0.145159 -1.58773e-08 3.48734e-14)
(0.145159 -1.24383e-08 3.48967e-14)
(0.145159 -7.78915e-09 3.49159e-14)
(0.145159 -1.49868e-09 3.49271e-14)
(0.145159 7.0614e-09 3.49284e-14)
(0.145159 1.84081e-08 3.49466e-14)
(0.145159 3.31308e-08 3.4949e-14)
(0.145159 4.87248e-08 3.49396e-14)
(0.145159 6.15629e-08 3.49337e-14)
(0.145159 7.11524e-08 3.49273e-14)
(0.145159 7.78358e-08 3.49427e-14)
(0.145159 8.20946e-08 3.49453e-14)
(0.145159 8.4471e-08 3.4936e-14)
(0.145159 8.54457e-08 3.4922e-14)
(0.145159 8.53646e-08 3.49096e-14)
(0.145159 8.44784e-08 3.49062e-14)
(0.145159 8.30137e-08 3.48821e-14)
(0.145159 8.11098e-08 3.49573e-14)
(0.145159 7.88461e-08 3.49471e-14)
(0.145159 7.63218e-08 3.49447e-14)
(0.145159 7.36151e-08 3.4951e-14)
(0.145159 7.07581e-08 3.49285e-14)
(0.145159 6.78066e-08 3.4957e-14)
(0.145159 6.47579e-08 3.49929e-14)
(0.145159 6.16344e-08 3.49836e-14)
(0.145159 5.84814e-08 3.49777e-14)
(0.145159 5.52912e-08 3.49564e-14)
(0.145159 5.20766e-08 3.50425e-14)
(0.145159 4.88447e-08 3.50298e-14)
(0.145159 4.56106e-08 3.50325e-14)
(0.145159 4.23969e-08 3.50447e-14)
(0.145159 3.91899e-08 3.50362e-14)
(0.145159 3.60041e-08 3.50804e-14)
(0.145159 3.28415e-08 3.51238e-14)
(0.145159 2.96781e-08 3.51224e-14)
(0.145159 2.65002e-08 3.51222e-14)
(0.145159 2.33252e-08 3.50987e-14)
(0.145159 2.01769e-08 3.5168e-14)
(0.145159 1.70137e-08 3.51418e-14)
(0.145159 1.38287e-08 3.51369e-14)
(0.145159 1.06143e-08 3.51437e-14)
(0.145159 7.36927e-09 3.51241e-14)
(0.145159 4.10959e-09 3.50779e-14)
(0.145159 8.13426e-10 3.49409e-14)
(0.145159 -2.52094e-09 3.49801e-14)
(0.145159 -5.8884e-09 3.49313e-14)
(0.145159 -9.29561e-09 3.50207e-14)
(0.145159 -1.2742e-08 3.51166e-14)
(0.145159 -1.62164e-08 3.50266e-14)
(0.145159 -1.97158e-08 3.50472e-14)
(0.145159 -2.32309e-08 3.49272e-14)
(0.145159 -2.67348e-08 3.50113e-14)
(0.145159 -3.02285e-08 3.51042e-14)
(0.145159 -3.36796e-08 3.51168e-14)
(0.145159 -3.70253e-08 3.50648e-14)
(0.145159 -4.02237e-08 3.50108e-14)
(0.145159 -4.32122e-08 3.50751e-14)
(0.145159 -4.58807e-08 3.51156e-14)
(0.145159 -4.81055e-08 3.51351e-14)
(0.145159 -4.97079e-08 3.50719e-14)
(0.145159 -5.0447e-08 3.50305e-14)
(0.145159 -4.99822e-08 3.50531e-14)
(0.145159 -4.78403e-08 3.52106e-14)
(0.145159 -4.33852e-08 3.50489e-14)
(0.145159 -3.60685e-08 3.50501e-14)
(0.145159 -2.52635e-08 3.49877e-14)
(0.145159 -1.34266e-08 3.50123e-14)
(0.145159 -4.12254e-09 3.51354e-14)
(0.145159 2.23411e-09 3.50901e-14)
(0.145159 6.08482e-09 3.51005e-14)
(0.145159 7.977e-09 3.50266e-14)
(0.145159 8.50901e-09 3.50401e-14)
(0.145159 8.20764e-09 3.51901e-14)
(0.145159 7.50034e-09 3.51213e-14)
(0.145159 6.72102e-09 3.50579e-14)
(0.145159 6.14563e-09 3.50391e-14)
(0.145159 5.99909e-09 3.50441e-14)
(0.145159 6.4442e-09 3.51589e-14)
(0.145159 7.56473e-09 3.50737e-14)
(0.145159 8.76063e-09 3.50296e-14)
(0.145159 5.47911e-09 3.49757e-14)
(0.145159 -1.54438e-08 3.50383e-14)
(0.145114 -4.29197e-08 3.50955e-14)
(0.145114 -4.94282e-08 3.5012e-14)
(0.145114 -4.86138e-08 3.50264e-14)
(0.145114 -4.60595e-08 3.50182e-14)
(0.145114 -4.33844e-08 3.49905e-14)
(0.145114 -4.09983e-08 3.49773e-14)
(0.145114 -3.89563e-08 3.49606e-14)
(0.145114 -3.72028e-08 3.4934e-14)
(0.145114 -3.56951e-08 3.49124e-14)
(0.145114 -3.441e-08 3.48888e-14)
(0.145114 -3.32899e-08 3.48556e-14)
(0.145114 -3.23017e-08 3.48226e-14)
(0.145114 -3.14406e-08 3.47871e-14)
(0.145114 -3.0673e-08 3.47572e-14)
(0.145114 -2.99712e-08 3.47317e-14)
(0.145114 -2.93251e-08 3.47276e-14)
(0.145114 -2.87511e-08 3.47254e-14)
(0.145114 -2.825e-08 3.47078e-14)
(0.145114 -2.77997e-08 3.46858e-14)
(0.145114 -2.73721e-08 3.4664e-14)
(0.145114 -2.69394e-08 3.46581e-14)
(0.145114 -2.64907e-08 3.46816e-14)
(0.145114 -2.60105e-08 3.47106e-14)
(0.145114 -2.54418e-08 3.474e-14)
(0.145114 -2.47692e-08 3.47804e-14)
(0.145114 -2.4026e-08 3.48107e-14)
(0.145114 -2.31944e-08 3.48298e-14)
(0.145114 -2.22844e-08 3.4839e-14)
(0.145114 -2.13409e-08 3.48525e-14)
(0.145114 -2.03857e-08 3.48775e-14)
(0.145114 -1.94047e-08 3.48972e-14)
(0.145114 -1.84011e-08 3.49082e-14)
(0.145114 -1.73827e-08 3.49095e-14)
(0.145114 -1.63211e-08 3.49134e-14)
(0.145114 -1.51558e-08 3.49306e-14)
(0.145114 -1.38191e-08 3.49457e-14)
(0.145114 -1.22132e-08 3.49505e-14)
(0.145114 -1.02084e-08 3.49439e-14)
(0.145114 -7.66452e-09 3.49383e-14)
(0.145114 -4.3177e-09 3.49502e-14)
(0.145114 1.5881e-10 3.49618e-14)
(0.145114 6.10044e-09 3.49804e-14)
(0.145114 1.40051e-08 3.49769e-14)
(0.145114 2.41707e-08 3.50244e-14)
(0.145114 3.67902e-08 3.50137e-14)
(0.145114 5.01058e-08 3.49927e-14)
(0.145114 6.15785e-08 3.49884e-14)
(0.145114 7.05996e-08 3.4983e-14)
(0.145114 7.72045e-08 3.50293e-14)
(0.145114 8.16411e-08 3.50179e-14)
(0.145114 8.42726e-08 3.49969e-14)
(0.145114 8.54899e-08 3.49785e-14)
(0.145114 8.55932e-08 3.49665e-14)
(0.145114 8.48317e-08 3.49774e-14)
(0.145114 8.34285e-08 3.49191e-14)
(0.145114 8.15379e-08 3.49848e-14)
(0.145114 7.92496e-08 3.50295e-14)
(0.145114 7.66576e-08 3.50296e-14)
(0.145114 7.38539e-08 3.50352e-14)
(0.145114 7.0871e-08 3.49763e-14)
(0.145114 6.77628e-08 3.50435e-14)
(0.145114 6.45517e-08 3.50819e-14)
(0.145114 6.12551e-08 3.50701e-14)
(0.145114 5.79024e-08 3.50665e-14)
(0.145114 5.45128e-08 3.50139e-14)
(0.145114 5.10923e-08 3.50855e-14)
(0.145114 4.76412e-08 3.51152e-14)
(0.145114 4.41856e-08 3.51266e-14)
(0.145114 4.07506e-08 3.51495e-14)
(0.145114 3.73143e-08 3.5105e-14)
(0.145114 3.38927e-08 3.51951e-14)
(0.145114 3.04936e-08 3.52343e-14)
(0.145114 2.70871e-08 3.52288e-14)
(0.145114 2.36664e-08 3.52456e-14)
(0.145114 2.02551e-08 3.51774e-14)
(0.145114 1.68712e-08 3.52257e-14)
(0.145114 1.34764e-08 3.52499e-14)
(0.145114 1.00635e-08 3.52433e-14)
(0.145114 6.61621e-09 3.52547e-14)
(0.145114 3.14771e-09 3.52076e-14)
(0.145114 -3.23426e-10 3.52395e-14)
(0.145114 -3.82065e-09 3.51834e-14)
(0.145114 -7.34718e-09 3.5155e-14)
(0.145114 -1.09037e-08 3.5191e-14)
(0.145114 -1.44788e-08 3.5164e-14)
(0.145114 -1.80795e-08 3.52139e-14)
(0.145114 -2.16983e-08 3.5218e-14)
(0.145114 -2.53043e-08 3.51939e-14)
(0.145114 -2.8907e-08 3.51929e-14)
(0.145114 -3.24871e-08 3.51956e-14)
(0.145114 -3.60222e-08 3.52448e-14)
(0.145114 -3.94841e-08 3.52197e-14)
(0.145114 -4.28108e-08 3.5199e-14)
(0.145114 -4.59493e-08 3.52261e-14)
(0.145114 -4.88446e-08 3.51943e-14)
(0.145114 -5.1399e-08 3.52376e-14)
(0.145114 -5.34829e-08 3.52265e-14)
(0.145114 -5.49181e-08 3.51812e-14)
(0.145114 -5.55237e-08 3.51645e-14)
(0.145114 -5.50028e-08 3.51681e-14)
(0.145114 -5.29205e-08 3.5217e-14)
(0.145114 -4.88283e-08 3.51856e-14)
(0.145114 -4.23831e-08 3.51623e-14)
(0.145114 -3.33316e-08 3.5173e-14)
(0.145114 -2.33974e-08 3.51704e-14)
(0.145114 -1.50389e-08 3.52557e-14)
(0.145114 -8.75904e-09 3.52319e-14)
(0.145114 -4.42441e-09 3.51947e-14)
(0.145114 -1.71451e-09 3.51999e-14)
(0.145114 -1.78589e-10 3.51703e-14)
(0.145114 6.25161e-10 3.52444e-14)
(0.145114 1.10354e-09 3.52598e-14)
(0.145114 1.59101e-09 3.51949e-14)
(0.145114 2.38874e-09 3.51707e-14)
(0.145114 3.76158e-09 3.51525e-14)
(0.145114 5.87551e-09 3.52152e-14)
(0.145114 8.82618e-09 3.51931e-14)
(0.145114 1.18806e-08 3.51485e-14)
(0.145114 9.3233e-09 3.51429e-14)
(0.145114 -1.56765e-08 3.51101e-14)
(0.14506 -4.74772e-08 3.51234e-14)
(0.14506 -5.43264e-08 3.50688e-14)
(0.14506 -5.23134e-08 3.50436e-14)
(0.14506 -4.82233e-08 3.5021e-14)
(0.14506 -4.40537e-08 3.49838e-14)
(0.14506 -4.03105e-08 3.49764e-14)
(0.14506 -3.70586e-08 3.49283e-14)
(0.14506 -3.42358e-08 3.48767e-14)
(0.14506 -3.17993e-08 3.48504e-14)
(0.14506 -2.97121e-08 3.48097e-14)
(0.14506 -2.78929e-08 3.4766e-14)
(0.14506 -2.63034e-08 3.47418e-14)
(0.14506 -2.49123e-08 3.47087e-14)
(0.14506 -2.36965e-08 3.46883e-14)
(0.14506 -2.26191e-08 3.46647e-14)
(0.14506 -2.16568e-08 3.46867e-14)
(0.14506 -2.08154e-08 3.46967e-14)
(0.14506 -2.01015e-08 3.4669e-14)
(0.14506 -1.94859e-08 3.46436e-14)
(0.14506 -1.89329e-08 3.46179e-14)
(0.14506 -1.84105e-08 3.46299e-14)
(0.145059 -1.78974e-08 3.46724e-14)
(0.145059 -1.73631e-08 3.47045e-14)
(0.145059 -1.67405e-08 3.47429e-14)
(0.145059 -1.6024e-08 3.47951e-14)
(0.145059 -1.52474e-08 3.48336e-14)
(0.145059 -1.43905e-08 3.48593e-14)
(0.145059 -1.34415e-08 3.48625e-14)
(0.145059 -1.24673e-08 3.48797e-14)
(0.145059 -1.14927e-08 3.4906e-14)
(0.145059 -1.04996e-08 3.49322e-14)
(0.145059 -9.52172e-09 3.49474e-14)
(0.145059 -8.54082e-09 3.49407e-14)
(0.145059 -7.52415e-09 3.49477e-14)
(0.145059 -6.42545e-09 3.49697e-14)
(0.145059 -5.15868e-09 3.49963e-14)
(0.145059 -3.64563e-09 3.50145e-14)
(0.145059 -1.76473e-09 3.50039e-14)
(0.145059 6.24407e-10 3.50013e-14)
(0.145059 3.75605e-09 3.50134e-14)
(0.145059 7.92615e-09 3.50141e-14)
(0.145059 1.34144e-08 3.50159e-14)
(0.145059 2.05673e-08 3.5023e-14)
(0.145059 2.95424e-08 3.51531e-14)
(0.145059 4.03432e-08 3.5071e-14)
(0.145059 5.16692e-08 3.50339e-14)
(0.145059 6.17001e-08 3.50269e-14)
(0.145059 6.98837e-08 3.50288e-14)
(0.145059 7.61096e-08 3.5164e-14)
(0.145059 8.04688e-08 3.50844e-14)
(0.145059 8.31753e-08 3.50467e-14)
(0.145059 8.45306e-08 3.50793e-14)
(0.145059 8.47843e-08 3.50183e-14)
(0.145059 8.41292e-08 3.50228e-14)
(0.145059 8.27972e-08 3.49432e-14)
(0.145059 8.09492e-08 3.50598e-14)
(0.145059 7.86578e-08 3.50963e-14)
(0.145059 7.60171e-08 3.51146e-14)
(0.145059 7.31351e-08 3.51569e-14)
(0.145059 7.00582e-08 3.50148e-14)
(0.145059 6.68584e-08 3.51287e-14)
(0.145059 6.35232e-08 3.52075e-14)
(0.145059 6.00642e-08 3.51588e-14)
(0.145059 5.65546e-08 3.51921e-14)
(0.145059 5.30083e-08 3.5056e-14)
(0.145059 4.94188e-08 3.5184e-14)
(0.145059 4.57871e-08 3.52052e-14)
(0.145059 4.21503e-08 3.52158e-14)
(0.145059 3.85228e-08 3.52837e-14)
(0.145059 3.48883e-08 3.50608e-14)
(0.145059 3.12699e-08 3.52956e-14)
(0.145059 2.76597e-08 3.53327e-14)
(0.145059 2.40451e-08 3.53317e-14)
(0.145059 2.04276e-08 3.538e-14)
(0.145059 1.68105e-08 3.51978e-14)
(0.145059 1.32225e-08 3.53942e-14)
(0.145059 9.61803e-09 3.54015e-14)
(0.145059 5.99672e-09 3.53502e-14)
(0.145059 2.3637e-09 3.54016e-14)
(0.145059 -1.2917e-09 3.52218e-14)
(0.145059 -4.95233e-09 3.53706e-14)
(0.145059 -8.62652e-09 3.53386e-14)
(0.145059 -1.23043e-08 3.53064e-14)
(0.145059 -1.60182e-08 3.5426e-14)
(0.145059 -1.97562e-08 3.53396e-14)
(0.145059 -2.34826e-08 3.53886e-14)
(0.145059 -2.72054e-08 3.53562e-14)
(0.145059 -3.09169e-08 3.53243e-14)
(0.145059 -3.46021e-08 3.54279e-14)
(0.145059 -3.82269e-08 3.53326e-14)
(0.145059 -4.17789e-08 3.53955e-14)
(0.145059 -4.5237e-08 3.53456e-14)
(0.145059 -4.85421e-08 3.53113e-14)
(0.145059 -5.16263e-08 3.53704e-14)
(0.145059 -5.44285e-08 3.53288e-14)
(0.145059 -5.68595e-08 3.53721e-14)
(0.145059 -5.88137e-08 3.53257e-14)
(0.145059 -6.01394e-08 3.528e-14)
(0.145059 -6.06574e-08 3.53243e-14)
(0.145059 -6.01128e-08 3.52858e-14)
(0.145059 -5.817e-08 3.53397e-14)
(0.145059 -5.4486e-08 3.5288e-14)
(0.145059 -4.8857e-08 3.52555e-14)
(0.14506 -4.12367e-08 3.53629e-14)
(0.14506 -3.28786e-08 3.52813e-14)
(0.14506 -2.54959e-08 3.54091e-14)
(0.14506 -1.9541e-08 3.5324e-14)
(0.14506 -1.50134e-08 3.5272e-14)
(0.14506 -1.17109e-08 3.53766e-14)
(0.14506 -9.32253e-09 3.52772e-14)
(0.14506 -7.49487e-09 3.53478e-14)
(0.14506 -5.85695e-09 3.54377e-14)
(0.14506 -4.07819e-09 3.53096e-14)
(0.14506 -1.87262e-09 3.5307e-14)
(0.14506 1.03672e-09 3.52483e-14)
(0.14506 4.85517e-09 3.53053e-14)
(0.14506 9.69407e-09 3.53307e-14)
(0.14506 1.46785e-08 3.52349e-14)
(0.14506 1.3069e-08 3.52599e-14)
(0.14506 -1.5686e-08 3.51903e-14)
(0.144996 -5.14662e-08 3.51244e-14)
(0.144996 -5.85827e-08 3.51306e-14)
(0.144996 -5.53212e-08 3.50612e-14)
(0.144996 -4.96538e-08 3.50199e-14)
(0.144996 -4.39411e-08 3.49648e-14)
(0.144996 -3.87988e-08 3.49915e-14)
(0.144996 -3.4306e-08 3.48797e-14)
(0.144996 -3.03916e-08 3.48022e-14)
(0.144996 -2.70027e-08 3.47881e-14)
(0.144996 -2.4088e-08 3.47161e-14)
(0.144996 -2.15659e-08 3.46641e-14)
(0.144996 -1.93588e-08 3.46602e-14)
(0.144996 -1.74398e-08 3.46207e-14)
(0.144996 -1.5784e-08 3.46159e-14)
(0.144995 -1.43338e-08 3.45826e-14)
(0.144995 -1.30641e-08 3.46672e-14)
(0.144995 -1.19719e-08 3.46799e-14)
(0.144995 -1.10603e-08 3.46219e-14)
(0.144995 -1.02995e-08 3.45968e-14)
(0.144995 -9.6455e-09 3.45627e-14)
(0.144995 -9.06689e-09 3.4613e-14)
(0.144995 -8.51436e-09 3.4691e-14)
(0.144995 -7.95726e-09 3.47172e-14)
(0.144995 -7.32799e-09 3.47661e-14)
(0.144995 -6.59594e-09 3.48439e-14)
(0.144995 -5.78912e-09 3.48793e-14)
(0.144995 -4.9065e-09 3.49094e-14)
(0.144995 -3.94999e-09 3.48877e-14)
(0.144995 -2.98162e-09 3.49144e-14)
(0.144995 -2.03309e-09 3.49492e-14)
(0.144995 -1.08777e-09 3.49892e-14)
(0.144995 -1.66115e-10 3.50065e-14)
(0.144995 7.32498e-10 3.49706e-14)
(0.144995 1.64327e-09 3.49846e-14)
(0.144995 2.61001e-09 3.5018e-14)
(0.144995 3.70682e-09 3.50618e-14)
(0.144995 5.0367e-09 3.50892e-14)
(0.144995 6.71311e-09 3.50559e-14)
(0.144995 8.84448e-09 3.50615e-14)
(0.144995 1.16657e-08 3.50832e-14)
(0.144995 1.54288e-08 3.50634e-14)
(0.144995 2.0341e-08 3.50554e-14)
(0.144995 2.66739e-08 3.5043e-14)
(0.144995 3.44889e-08 3.50849e-14)
(0.144995 4.36861e-08 3.50747e-14)
(0.144995 5.32665e-08 3.50598e-14)
(0.144995 6.19065e-08 3.50583e-14)
(0.144995 6.91157e-08 3.50561e-14)
(0.144995 7.47211e-08 3.51028e-14)
(0.144995 7.87662e-08 3.50957e-14)
(0.144995 8.13726e-08 3.50826e-14)
(0.144995 8.27239e-08 3.50677e-14)
(0.144995 8.30208e-08 3.50634e-14)
(0.144995 8.24263e-08 3.50813e-14)
(0.144995 8.11424e-08 3.50351e-14)
(0.144995 7.93256e-08 3.50973e-14)
(0.144995 7.70371e-08 3.51606e-14)
(0.144995 7.43747e-08 3.51685e-14)
(0.144995 7.14477e-08 3.51774e-14)
(0.144995 6.83076e-08 3.51249e-14)
(0.144995 6.50173e-08 3.51796e-14)
(0.144995 6.15872e-08 3.52253e-14)
(0.144995 5.80289e-08 3.52236e-14)
(0.144995 5.43942e-08 3.52251e-14)
(0.144995 5.07159e-08 3.51809e-14)
(0.144995 4.69906e-08 3.52411e-14)
(0.144995 4.32218e-08 3.52771e-14)
(0.144995 3.9439e-08 3.52948e-14)
(0.144995 3.5657e-08 3.53219e-14)
(0.144995 3.18588e-08 3.52869e-14)
(0.144995 2.80687e-08 3.53673e-14)
(0.144995 2.42857e-08 3.54078e-14)
(0.144995 2.04982e-08 3.54088e-14)
(0.144995 1.67169e-08 3.54297e-14)
(0.144995 1.29366e-08 3.53708e-14)
(0.144995 9.16948e-09 3.54159e-14)
(0.144995 5.38778e-09 3.54439e-14)
(0.144995 1.60703e-09 3.54362e-14)
(0.144995 -2.18996e-09 3.54451e-14)
(0.144995 -6.00916e-09 3.54063e-14)
(0.144995 -9.82563e-09 3.5447e-14)
(0.144995 -1.36442e-08 3.54505e-14)
(0.144995 -1.74678e-08 3.54297e-14)
(0.144995 -2.13108e-08 3.54704e-14)
(0.144995 -2.51521e-08 3.54385e-14)
(0.144995 -2.89955e-08 3.54575e-14)
(0.144995 -3.28231e-08 3.54562e-14)
(0.144995 -3.6601e-08 3.54307e-14)
(0.144995 -4.03399e-08 3.54386e-14)
(0.144995 -4.39996e-08 3.54212e-14)
(0.144995 -4.7562e-08 3.54364e-14)
(0.144995 -5.10021e-08 3.54233e-14)
(0.144995 -5.4257e-08 3.53936e-14)
(0.144995 -5.7268e-08 3.54192e-14)
(0.144995 -5.99784e-08 3.53856e-14)
(0.144995 -6.23172e-08 3.54036e-14)
(0.144995 -6.41629e-08 3.53932e-14)
(0.144995 -6.53734e-08 3.5358e-14)
(0.144995 -6.5831e-08 3.53674e-14)
(0.144995 -6.53206e-08 3.53429e-14)
(0.144995 -6.3543e-08 3.53567e-14)
(0.144995 -6.02814e-08 3.53448e-14)
(0.144995 -5.53925e-08 3.53207e-14)
(0.144995 -4.89447e-08 3.53434e-14)
(0.144995 -4.18847e-08 3.53292e-14)
(0.144995 -3.54132e-08 3.53778e-14)
(0.144995 -2.9899e-08 3.53577e-14)
(0.144995 -2.53649e-08 3.53283e-14)
(0.144996 -2.16791e-08 3.53413e-14)
(0.144996 -1.86133e-08 3.53252e-14)
(0.144996 -1.58897e-08 3.53515e-14)
(0.144996 -1.3167e-08 3.53926e-14)