/*--------------------------------*- C++ -*----------------------------------*\
  =========                 |
  \\      /  F ield         | OpenFOAM: The Open Source CFD Toolbox
   \\    /   O peration     | Website:  https://openfoam.org
    \\  /    A nd           | Version:  7
     \\/     M anipulation  |
\*---------------------------------------------------------------------------*/
FoamFile
{
    version     2.0;
    format      ascii;
    class       volScalarField;
    location    "4500";
    object      nut;
}
// * * * * * * * * * * * * * * * * * * * * * * * * * * * * * * * * * * * * * //

dimensions      [0 2 -1 0 0 0 0];

internalField   nonuniform List<scalar> 
4026
(
0.000287391
0.000287387
0.000287388
0.00028739
0.000287392
0.000287394
0.000287397
0.000287399
0.000287401
0.000287403
0.000287405
0.000287407
0.000287409
0.000287412
0.000287414
0.000287416
0.000287418
0.00028742
0.000287422
0.000287424
0.000287425
0.000287427
0.000287428
0.00028743
0.000287431
0.000287432
0.000287434
0.000287435
0.000287436
0.000287437
0.000287438
0.000287438
0.000287439
0.00028744
0.000287441
0.000287441
0.000287442
0.000287442
0.000287443
0.000287443
0.000287444
0.000287444
0.000287444
0.000287444
0.000287446
0.000287383
0.000287384
0.000287388
0.000287391
0.000287393
0.000287396
0.000287398
0.0002874
0.000287402
0.000287404
0.000287405
0.000287407
0.000287408
0.00028741
0.00028741
0.000287416
0.000302369
0.000302365
0.000302365
0.000302368
0.00030237
0.000302373
0.000302376
0.000302378
0.00030238
0.000302382
0.000302384
0.000302387
0.000302389
0.000302391
0.000302394
0.000302396
0.000302398
0.0003024
0.000302402
0.000302404
0.000302405
0.000302407
0.000302408
0.00030241
0.000302411
0.000302412
0.000302414
0.000302415
0.000302416
0.000302416
0.000302417
0.000302418
0.000302419
0.000302419
0.00030242
0.000302421
0.000302421
0.000302421
0.000302422
0.000302422
0.000302422
0.000302422
0.000302423
0.000302422
0.000302424
0.000302353
0.000302354
0.000302358
0.000302362
0.000302365
0.000302368
0.000302371
0.000302373
0.000302375
0.000302377
0.000302379
0.000302381
0.000302382
0.000302384
0.000302384
0.000302389
0.000317825
0.000317822
0.000317823
0.000317825
0.000317828
0.000317831
0.000317834
0.000317836
0.000317839
0.000317841
0.000317843
0.000317846
0.000317848
0.00031785
0.000317853
0.000317855
0.000317857
0.000317859
0.000317861
0.000317863
0.000317865
0.000317866
0.000317868
0.000317869
0.00031787
0.000317872
0.000317873
0.000317874
0.000317875
0.000317875
0.000317876
0.000317877
0.000317877
0.000317878
0.000317878
0.000317879
0.000317879
0.000317879
0.000317879
0.00031788
0.00031788
0.00031788
0.00031788
0.000317879
0.000317881
0.000317804
0.000317804
0.000317808
0.000317812
0.000317816
0.00031782
0.000317823
0.000317825
0.000317828
0.00031783
0.000317831
0.000317833
0.000317835
0.000317836
0.000317837
0.000317842
0.000333791
0.000333789
0.000333791
0.000333793
0.000333796
0.000333799
0.000333802
0.000333805
0.000333808
0.00033381
0.000333812
0.000333815
0.000333817
0.00033382
0.000333822
0.000333824
0.000333827
0.000333829
0.000333831
0.000333833
0.000333834
0.000333836
0.000333837
0.000333838
0.00033384
0.000333841
0.000333842
0.000333843
0.000333843
0.000333844
0.000333845
0.000333845
0.000333846
0.000333846
0.000333846
0.000333846
0.000333847
0.000333847
0.000333847
0.000333847
0.000333846
0.000333846
0.000333846
0.000333845
0.000333847
0.000333766
0.000333766
0.000333769
0.000333773
0.000333777
0.000333781
0.000333784
0.000333787
0.000333789
0.000333791
0.000333793
0.000333795
0.000333797
0.000333798
0.0003338
0.000333803
0.0003503
0.0003503
0.000350302
0.000350305
0.000350308
0.000350311
0.000350314
0.000350317
0.00035032
0.000350323
0.000350325
0.000350327
0.00035033
0.000350332
0.000350335
0.000350337
0.000350339
0.000350342
0.000350343
0.000350345
0.000350347
0.000350348
0.00035035
0.000350351
0.000350352
0.000350353
0.000350354
0.000350354
0.000350355
0.000350356
0.000350356
0.000350356
0.000350357
0.000350357
0.000350357
0.000350357
0.000350357
0.000350357
0.000350357
0.000350356
0.000350356
0.000350355
0.000350355
0.000350354
0.000350355
0.000350271
0.000350271
0.000350274
0.000350278
0.000350281
0.000350285
0.000350288
0.000350291
0.000350294
0.000350296
0.000350298
0.0003503
0.000350301
0.000350303
0.000350304
0.000350307
0.000367387
0.000367389
0.000367392
0.000367395
0.000367398
0.000367402
0.000367405
0.000367409
0.000367411
0.000367414
0.000367416
0.000367419
0.000367421
0.000367424
0.000367426
0.000367429
0.000367431
0.000367433
0.000367435
0.000367436
0.000367438
0.000367439
0.000367441
0.000367442
0.000367443
0.000367443
0.000367444
0.000367445
0.000367445
0.000367445
0.000367446
0.000367446
0.000367446
0.000367446
0.000367446
0.000367445
0.000367445
0.000367445
0.000367444
0.000367444
0.000367443
0.000367442
0.000367441
0.000367441
0.00036744
0.000367354
0.000367355
0.000367357
0.00036736
0.000367364
0.000367368
0.000367371
0.000367374
0.000367376
0.000367378
0.00036738
0.000367382
0.000367384
0.000367385
0.000367387
0.000367388
0.000385091
0.000385095
0.000385098
0.000385102
0.000385105
0.000385109
0.000385113
0.000385116
0.000385119
0.000385122
0.000385124
0.000385127
0.000385129
0.000385132
0.000385134
0.000385136
0.000385139
0.000385141
0.000385142
0.000385144
0.000385145
0.000385147
0.000385148
0.000385149
0.000385149
0.00038515
0.00038515
0.000385151
0.000385151
0.000385151
0.000385151
0.000385151
0.000385151
0.000385151
0.00038515
0.00038515
0.000385149
0.000385148
0.000385147
0.000385147
0.000385146
0.000385145
0.000385143
0.000385142
0.00038514
0.000385053
0.000385055
0.000385057
0.00038506
0.000385063
0.000385066
0.000385069
0.000385072
0.000385074
0.000385076
0.000385078
0.00038508
0.000385081
0.000385083
0.000385084
0.000385085
0.000403451
0.000403457
0.000403461
0.000403465
0.000403469
0.000403473
0.000403477
0.000403481
0.000403484
0.000403486
0.000403489
0.000403491
0.000403494
0.000403496
0.000403498
0.000403501
0.000403503
0.000403505
0.000403506
0.000403508
0.000403509
0.00040351
0.000403511
0.000403512
0.000403512
0.000403513
0.000403513
0.000403513
0.000403513
0.000403513
0.000403512
0.000403512
0.000403512
0.000403511
0.00040351
0.000403509
0.000403508
0.000403507
0.000403506
0.000403505
0.000403503
0.000403502
0.0004035
0.000403499
0.000403495
0.000403408
0.000403411
0.000403413
0.000403415
0.000403418
0.000403421
0.000403424
0.000403426
0.000403428
0.00040343
0.000403432
0.000403433
0.000403435
0.000403436
0.000403438
0.000403436
0.00042251
0.000422519
0.000422524
0.000422528
0.000422533
0.000422537
0.000422541
0.000422544
0.000422547
0.00042255
0.000422553
0.000422555
0.000422557
0.00042256
0.000422562
0.000422564
0.000422566
0.000422568
0.000422569
0.000422571
0.000422572
0.000422572
0.000422573
0.000422573
0.000422574
0.000422574
0.000422574
0.000422574
0.000422573
0.000422573
0.000422572
0.000422571
0.00042257
0.000422569
0.000422568
0.000422567
0.000422566
0.000422564
0.000422563
0.000422561
0.000422559
0.000422557
0.000422555
0.000422554
0.000422548
0.00042246
0.000422465
0.000422467
0.000422469
0.000422472
0.000422474
0.000422476
0.000422479
0.000422481
0.000422482
0.000422484
0.000422485
0.000422486
0.000422487
0.000422489
0.000422485
0.000442313
0.000442325
0.000442331
0.000442336
0.00044234
0.000442345
0.000442349
0.000442352
0.000442355
0.000442358
0.000442361
0.000442363
0.000442365
0.000442367
0.00044237
0.000442372
0.000442373
0.000442375
0.000442376
0.000442377
0.000442378
0.000442379
0.000442379
0.000442379
0.000442379
0.000442379
0.000442378
0.000442378
0.000442377
0.000442376
0.000442375
0.000442374
0.000442372
0.000442371
0.000442369
0.000442368
0.000442366
0.000442364
0.000442362
0.00044236
0.000442358
0.000442355
0.000442353
0.000442351
0.000442343
0.000442255
0.000442262
0.000442265
0.000442266
0.000442268
0.000442271
0.000442273
0.000442274
0.000442276
0.000442277
0.000442278
0.000442279
0.00044228
0.00044228
0.000442282
0.000442277
0.000462908
0.000462923
0.00046293
0.000462935
0.00046294
0.000462944
0.000462948
0.000462952
0.000462955
0.000462958
0.00046296
0.000462963
0.000462965
0.000462967
0.000462969
0.000462971
0.000462972
0.000462973
0.000462974
0.000462975
0.000462976
0.000462976
0.000462976
0.000462976
0.000462975
0.000462974
0.000462974
0.000462973
0.000462971
0.00046297
0.000462969
0.000462967
0.000462965
0.000462963
0.000462961
0.000462959
0.000462957
0.000462954
0.000462952
0.000462949
0.000462946
0.000462943
0.00046294
0.000462938
0.000462927
0.00046284
0.00046285
0.000462853
0.000462854
0.000462856
0.000462858
0.000462859
0.000462861
0.000462862
0.000462863
0.000462863
0.000462864
0.000462864
0.000462864
0.000462866
0.000462859
0.000484344
0.000484363
0.000484371
0.000484376
0.000484381
0.000484386
0.00048439
0.000484394
0.000484397
0.0004844
0.000484402
0.000484404
0.000484406
0.000484408
0.00048441
0.000484411
0.000484413
0.000484414
0.000484414
0.000484415
0.000484415
0.000484415
0.000484414
0.000484413
0.000484412
0.000484411
0.00048441
0.000484409
0.000484407
0.000484405
0.000484403
0.000484401
0.000484398
0.000484396
0.000484393
0.00048439
0.000484388
0.000484384
0.000484381
0.000484378
0.000484374
0.000484371
0.000484367
0.000484365
0.000484351
0.000484265
0.000484278
0.000484282
0.000484283
0.000484284
0.000484285
0.000484287
0.000484288
0.000484288
0.000484289
0.000484289
0.000484289
0.000484289
0.000484288
0.00048429
0.00048428
0.000506675
0.000506698
0.000506707
0.000506713
0.000506718
0.000506723
0.000506727
0.00050673
0.000506734
0.000506736
0.000506738
0.00050674
0.000506742
0.000506743
0.000506745
0.000506746
0.000506747
0.000506748
0.000506748
0.000506748
0.000506748
0.000506747
0.000506746
0.000506745
0.000506744
0.000506742
0.00050674
0.000506738
0.000506736
0.000506733
0.000506731
0.000506728
0.000506725
0.000506722
0.000506718
0.000506715
0.000506711
0.000506708
0.000506704
0.0005067
0.000506696
0.000506691
0.000506687
0.000506685
0.000506667
0.000506582
0.000506599
0.000506603
0.000506605
0.000506606
0.000506606
0.000506607
0.000506607
0.000506608
0.000506607
0.000506607
0.000506606
0.000506606
0.000506605
0.000506607
0.000506594
0.000529955
0.000529983
0.000529993
0.000529999
0.000530005
0.000530009
0.000530013
0.000530017
0.00053002
0.000530022
0.000530024
0.000530026
0.000530027
0.000530029
0.00053003
0.000530031
0.000530031
0.000530032
0.000530031
0.000530031
0.00053003
0.000530029
0.000530027
0.000530026
0.000530024
0.000530021
0.000530019
0.000530016
0.000530013
0.00053001
0.000530007
0.000530003
0.00053
0.000529996
0.000529992
0.000529988
0.000529983
0.000529979
0.000529974
0.000529969
0.000529964
0.000529959
0.000529954
0.000529951
0.000529931
0.000529847
0.000529868
0.000529873
0.000529874
0.000529875
0.000529875
0.000529876
0.000529875
0.000529875
0.000529874
0.000529873
0.000529872
0.000529871
0.000529869
0.000529871
0.000529855
0.000554243
0.000554275
0.000554287
0.000554294
0.000554299
0.000554304
0.000554308
0.000554311
0.000554314
0.000554316
0.000554318
0.000554319
0.00055432
0.000554321
0.000554322
0.000554322
0.000554323
0.000554322
0.000554322
0.000554321
0.000554319
0.000554318
0.000554316
0.000554313
0.00055431
0.000554308
0.000554304
0.000554301
0.000554297
0.000554293
0.000554289
0.000554285
0.00055428
0.000554276
0.000554271
0.000554266
0.000554261
0.000554255
0.00055425
0.000554244
0.000554238
0.000554232
0.000554226
0.000554223
0.000554199
0.000554117
0.000554143
0.000554149
0.00055415
0.00055415
0.00055415
0.00055415
0.000554149
0.000554148
0.000554147
0.000554145
0.000554143
0.000554141
0.000554139
0.000554141
0.000554121
0.000579599
0.000579636
0.000579649
0.000579657
0.000579662
0.000579667
0.000579671
0.000579674
0.000579676
0.000579678
0.000579679
0.00057968
0.000579681
0.000579682
0.000579682
0.000579682
0.000579682
0.000579681
0.00057968
0.000579678
0.000579676
0.000579673
0.000579671
0.000579668
0.000579664
0.00057966
0.000579656
0.000579652
0.000579648
0.000579643
0.000579638
0.000579633
0.000579627
0.000579622
0.000579616
0.00057961
0.000579604
0.000579598
0.000579591
0.000579585
0.000579578
0.000579571
0.000579563
0.00057956
0.000579532
0.000579453
0.000579484
0.00057949
0.000579492
0.000579491
0.000579491
0.00057949
0.000579489
0.000579487
0.000579485
0.000579482
0.00057948
0.000579477
0.000579474
0.000579476
0.000579452
0.000606084
0.000606129
0.000606143
0.000606151
0.000606156
0.00060616
0.000606164
0.000606167
0.000606169
0.000606171
0.000606172
0.000606172
0.000606172
0.000606172
0.000606172
0.000606172
0.000606171
0.000606169
0.000606168
0.000606165
0.000606162
0.000606159
0.000606156
0.000606152
0.000606147
0.000606143
0.000606138
0.000606133
0.000606127
0.000606122
0.000606116
0.00060611
0.000606103
0.000606097
0.00060609
0.000606083
0.000606076
0.000606068
0.000606061
0.000606053
0.000606045
0.000606037
0.000606028
0.000606025
0.000605992
0.000605916
0.000605953
0.000605961
0.000605962
0.000605961
0.00060596
0.000605959
0.000605957
0.000605954
0.000605951
0.000605948
0.000605945
0.000605942
0.000605937
0.000605939
0.000605911
0.000633766
0.000633817
0.000633833
0.000633841
0.000633846
0.00063385
0.000633854
0.000633857
0.000633858
0.000633859
0.00063386
0.00063386
0.000633859
0.000633859
0.000633858
0.000633857
0.000633855
0.000633853
0.000633851
0.000633847
0.000633844
0.00063384
0.000633835
0.00063383
0.000633825
0.00063382
0.000633814
0.000633808
0.000633801
0.000633794
0.000633788
0.00063378
0.000633773
0.000633765
0.000633757
0.000633749
0.000633741
0.000633732
0.000633723
0.000633715
0.000633705
0.000633696
0.000633686
0.000633682
0.000633644
0.000633572
0.000633615
0.000633624
0.000633625
0.000633624
0.000633623
0.000633621
0.000633618
0.000633615
0.000633611
0.000633607
0.000633603
0.000633599
0.000633594
0.000633595
0.000633562
0.00066271
0.000662769
0.000662786
0.000662794
0.0006628
0.000662804
0.000662807
0.000662809
0.00066281
0.000662811
0.000662811
0.00066281
0.000662809
0.000662808
0.000662807
0.000662805
0.000662802
0.000662799
0.000662796
0.000662792
0.000662787
0.000662782
0.000662777
0.000662771
0.000662765
0.000662758
0.000662751
0.000662744
0.000662736
0.000662728
0.00066272
0.000662712
0.000662703
0.000662694
0.000662685
0.000662676
0.000662666
0.000662656
0.000662646
0.000662636
0.000662626
0.000662615
0.000662604
0.000662599
0.000662556
0.000662488
0.000662538
0.000662548
0.00066255
0.000662548
0.000662546
0.000662543
0.00066254
0.000662536
0.000662531
0.000662526
0.000662521
0.000662516
0.00066251
0.00066251
0.000662473
0.000692986
0.000693053
0.000693073
0.000693081
0.000693086
0.00069309
0.000693093
0.000693094
0.000693095
0.000693095
0.000693094
0.000693093
0.000693091
0.000693089
0.000693087
0.000693084
0.000693081
0.000693077
0.000693073
0.000693068
0.000693062
0.000693056
0.000693049
0.000693042
0.000693035
0.000693027
0.000693019
0.000693011
0.000693002
0.000692993
0.000692983
0.000692974
0.000692964
0.000692953
0.000692943
0.000692932
0.000692921
0.00069291
0.000692899
0.000692887
0.000692875
0.000692863
0.00069285
0.000692844
0.000692796
0.000692733
0.000692791
0.000692802
0.000692803
0.000692802
0.000692799
0.000692795
0.000692791
0.000692786
0.00069278
0.000692774
0.000692768
0.000692762
0.000692755
0.000692755
0.000692713
0.000724665
0.000724741
0.000724763
0.000724772
0.000724777
0.00072478
0.000724782
0.000724783
0.000724783
0.000724783
0.000724781
0.000724779
0.000724776
0.000724774
0.00072477
0.000724767
0.000724762
0.000724757
0.000724752
0.000724746
0.000724739
0.000724732
0.000724724
0.000724716
0.000724707
0.000724698
0.000724689
0.000724679
0.000724669
0.000724658
0.000724647
0.000724636
0.000724625
0.000724613
0.000724601
0.000724589
0.000724577
0.000724564
0.000724551
0.000724538
0.000724524
0.000724511
0.000724496
0.000724489
0.000724436
0.000724377
0.000724444
0.000724457
0.000724458
0.000724456
0.000724452
0.000724448
0.000724442
0.000724436
0.00072443
0.000724423
0.000724415
0.000724408
0.0007244
0.000724399
0.000724352
0.00075782
0.000757906
0.00075793
0.000757939
0.000757943
0.000757946
0.000757948
0.000757948
0.000757948
0.000757946
0.000757944
0.000757941
0.000757937
0.000757933
0.000757929
0.000757924
0.000757919
0.000757913
0.000757906
0.000757899
0.000757891
0.000757882
0.000757873
0.000757863
0.000757853
0.000757843
0.000757832
0.000757821
0.000757809
0.000757797
0.000757785
0.000757772
0.000757759
0.000757746
0.000757732
0.000757719
0.000757704
0.00075769
0.000757675
0.000757661
0.000757645
0.00075763
0.000757614
0.000757606
0.000757547
0.000757493
0.00075757
0.000757585
0.000757586
0.000757583
0.000757578
0.000757573
0.000757566
0.000757559
0.000757552
0.000757543
0.000757535
0.000757527
0.000757516
0.000757515
0.000757463
0.000792524
0.00079262
0.000792647
0.000792656
0.00079266
0.000792663
0.000792663
0.000792663
0.000792661
0.000792659
0.000792656
0.000792652
0.000792647
0.000792642
0.000792637
0.000792631
0.000792624
0.000792617
0.000792609
0.0007926
0.00079259
0.00079258
0.00079257
0.000792559
0.000792547
0.000792535
0.000792523
0.00079251
0.000792497
0.000792483
0.000792469
0.000792455
0.00079244
0.000792425
0.00079241
0.000792394
0.000792378
0.000792362
0.000792346
0.000792329
0.000792312
0.000792295
0.000792276
0.000792267
0.000792203
0.000792155
0.000792242
0.000792259
0.000792259
0.000792256
0.000792251
0.000792244
0.000792237
0.000792228
0.000792219
0.00079221
0.0007922
0.00079219
0.000792179
0.000792177
0.000792119
0.000828851
0.000828959
0.000828988
0.000828997
0.000829001
0.000829003
0.000829003
0.000829002
0.000828999
0.000828995
0.000828991
0.000828986
0.00082898
0.000828974
0.000828967
0.00082896
0.000828952
0.000828943
0.000828933
0.000828923
0.000828912
0.000828901
0.000828888
0.000828876
0.000828863
0.000828849
0.000828835
0.00082882
0.000828805
0.00082879
0.000828774
0.000828758
0.000828742
0.000828725
0.000828708
0.00082869
0.000828672
0.000828654
0.000828636
0.000828617
0.000828598
0.000828579
0.000828558
0.000828548
0.000828477
0.000828436
0.000828534
0.000828553
0.000828554
0.00082855
0.000828543
0.000828536
0.000828527
0.000828517
0.000828507
0.000828496
0.000828485
0.000828474
0.000828461
0.000828458
0.000828395
0.000866876
0.000866997
0.000867028
0.000867037
0.000867041
0.000867042
0.000867041
0.000867039
0.000867035
0.00086703
0.000867024
0.000867018
0.000867011
0.000867003
0.000866995
0.000866986
0.000866977
0.000866966
0.000866955
0.000866943
0.00086693
0.000866917
0.000866903
0.000866889
0.000866874
0.000866858
0.000866842
0.000866826
0.000866809
0.000866792
0.000866774
0.000866756
0.000866738
0.000866719
0.0008667
0.00086668
0.00086666
0.00086664
0.00086662
0.000866599
0.000866578
0.000866557
0.000866534
0.000866521
0.000866445
0.000866412
0.000866521
0.000866542
0.000866543
0.000866538
0.000866531
0.000866522
0.000866512
0.000866501
0.000866489
0.000866477
0.000866464
0.000866451
0.000866436
0.000866432
0.000866363
0.000906673
0.000906807
0.00090684
0.00090685
0.000906853
0.000906853
0.000906851
0.000906848
0.000906843
0.000906836
0.000906829
0.000906821
0.000906813
0.000906804
0.000906794
0.000906783
0.000906772
0.00090676
0.000906747
0.000906733
0.000906719
0.000906704
0.000906688
0.000906671
0.000906655
0.000906637
0.000906619
0.000906601
0.000906582
0.000906563
0.000906543
0.000906523
0.000906502
0.000906481
0.00090646
0.000906438
0.000906416
0.000906394
0.000906371
0.000906348
0.000906325
0.000906301
0.000906276
0.000906262
0.00090618
0.000906154
0.000906277
0.0009063
0.000906301
0.000906295
0.000906286
0.000906276
0.000906265
0.000906252
0.000906239
0.000906225
0.00090621
0.000906195
0.000906179
0.000906173
0.000906099
0.000948314
0.000948462
0.000948499
0.000948508
0.000948511
0.00094851
0.000948507
0.000948502
0.000948495
0.000948488
0.000948479
0.000948469
0.000948459
0.000948448
0.000948437
0.000948424
0.000948411
0.000948397
0.000948382
0.000948367
0.00094835
0.000948333
0.000948315
0.000948296
0.000948277
0.000948258
0.000948238
0.000948217
0.000948196
0.000948175
0.000948153
0.00094813
0.000948108
0.000948084
0.000948061
0.000948037
0.000948012
0.000947988
0.000947963
0.000947937
0.000947911
0.000947886
0.000947858
0.000947841
0.000947754
0.000947737
0.000947874
0.0009479
0.0009479
0.000947893
0.000947883
0.000947872
0.000947859
0.000947844
0.000947829
0.000947813
0.000947797
0.00094778
0.000947762
0.000947754
0.000947675
0.000991871
0.000992034
0.000992074
0.000992083
0.000992085
0.000992083
0.000992078
0.000992072
0.000992064
0.000992054
0.000992044
0.000992033
0.000992021
0.000992008
0.000991994
0.00099198
0.000991965
0.000991949
0.000991932
0.000991914
0.000991895
0.000991875
0.000991855
0.000991835
0.000991813
0.000991791
0.000991769
0.000991746
0.000991723
0.000991699
0.000991675
0.00099165
0.000991625
0.000991599
0.000991573
0.000991547
0.00099152
0.000991493
0.000991465
0.000991437
0.000991409
0.00099138
0.00099135
0.000991331
0.000991238
0.000991232
0.000991383
0.000991412
0.000991412
0.000991404
0.000991392
0.000991379
0.000991364
0.000991348
0.000991331
0.000991313
0.000991295
0.000991276
0.000991255
0.000991246
0.000991162
0.00103741
0.00103759
0.00103763
0.00103764
0.00103764
0.00103764
0.00103763
0.00103763
0.00103762
0.0010376
0.00103759
0.00103758
0.00103757
0.00103755
0.00103753
0.00103752
0.0010375
0.00103748
0.00103746
0.00103744
0.00103742
0.0010374
0.00103738
0.00103735
0.00103733
0.00103731
0.00103728
0.00103726
0.00103723
0.0010372
0.00103718
0.00103715
0.00103712
0.00103709
0.00103706
0.00103704
0.00103701
0.00103698
0.00103695
0.00103692
0.00103688
0.00103685
0.00103682
0.0010368
0.0010367
0.00103671
0.00103687
0.0010369
0.0010369
0.00103689
0.00103688
0.00103687
0.00103685
0.00103683
0.00103681
0.00103679
0.00103677
0.00103675
0.00103673
0.00103672
0.00103663
0.001085
0.0010852
0.00108524
0.00108525
0.00108525
0.00108525
0.00108524
0.00108523
0.00108522
0.0010852
0.00108519
0.00108517
0.00108516
0.00108514
0.00108512
0.0010851
0.00108508
0.00108506
0.00108504
0.00108502
0.00108499
0.00108497
0.00108494
0.00108492
0.00108489
0.00108487
0.00108484
0.00108481
0.00108478
0.00108475
0.00108472
0.00108469
0.00108466
0.00108463
0.0010846
0.00108457
0.00108454
0.0010845
0.00108447
0.00108444
0.0010844
0.00108437
0.00108433
0.00108431
0.00108421
0.00108422
0.00108441
0.00108444
0.00108444
0.00108443
0.00108442
0.0010844
0.00108438
0.00108436
0.00108434
0.00108432
0.00108429
0.00108427
0.00108424
0.00108423
0.00108414
0.0011347
0.00113491
0.00113496
0.00113497
0.00113497
0.00113496
0.00113495
0.00113494
0.00113493
0.00113491
0.00113489
0.00113488
0.00113486
0.00113484
0.00113482
0.0011348
0.00113477
0.00113475
0.00113472
0.0011347
0.00113467
0.00113464
0.00113462
0.00113459
0.00113456
0.00113453
0.0011345
0.00113447
0.00113444
0.00113441
0.00113437
0.00113434
0.00113431
0.00113427
0.00113424
0.0011342
0.00113417
0.00113413
0.0011341
0.00113406
0.00113402
0.00113399
0.00113395
0.00113392
0.00113381
0.00113385
0.00113405
0.00113408
0.00113408
0.00113407
0.00113405
0.00113404
0.00113401
0.00113399
0.00113397
0.00113394
0.00113392
0.00113389
0.00113386
0.00113385
0.00113375
0.00118656
0.00118679
0.00118684
0.00118685
0.00118685
0.00118684
0.00118683
0.00118681
0.0011868
0.00118678
0.00118676
0.00118674
0.00118672
0.00118669
0.00118667
0.00118665
0.00118662
0.00118659
0.00118657
0.00118654
0.00118651
0.00118648
0.00118645
0.00118642
0.00118638
0.00118635
0.00118632
0.00118628
0.00118625
0.00118622
0.00118618
0.00118614
0.00118611
0.00118607
0.00118603
0.001186
0.00118596
0.00118592
0.00118588
0.00118584
0.0011858
0.00118576
0.00118572
0.00118569
0.00118558
0.00118562
0.00118584
0.00118589
0.00118588
0.00118587
0.00118585
0.00118583
0.00118581
0.00118578
0.00118576
0.00118573
0.0011857
0.00118567
0.00118564
0.00118562
0.00118552
0.00124063
0.00124088
0.00124093
0.00124094
0.00124094
0.00124092
0.00124091
0.00124089
0.00124087
0.00124085
0.00124083
0.00124081
0.00124078
0.00124076
0.00124073
0.00124071
0.00124068
0.00124065
0.00124062
0.00124058
0.00124055
0.00124052
0.00124048
0.00124045
0.00124041
0.00124038
0.00124034
0.0012403
0.00124027
0.00124023
0.00124019
0.00124015
0.00124011
0.00124007
0.00124003
0.00123999
0.00123995
0.00123991
0.00123987
0.00123982
0.00123978
0.00123974
0.00123969
0.00123966
0.00123955
0.00123961
0.00123985
0.00123989
0.00123989
0.00123987
0.00123985
0.00123983
0.0012398
0.00123978
0.00123975
0.00123972
0.00123969
0.00123965
0.00123962
0.0012396
0.0012395
0.00129694
0.00129721
0.00129727
0.00129728
0.00129727
0.00129726
0.00129724
0.00129722
0.0012972
0.00129718
0.00129715
0.00129713
0.0012971
0.00129707
0.00129704
0.00129701
0.00129698
0.00129694
0.00129691
0.00129687
0.00129684
0.0012968
0.00129676
0.00129672
0.00129669
0.00129665
0.00129661
0.00129657
0.00129653
0.00129649
0.00129644
0.0012964
0.00129636
0.00129632
0.00129627
0.00129623
0.00129618
0.00129614
0.00129609
0.00129605
0.001296
0.00129595
0.00129591
0.00129587
0.00129576
0.00129584
0.0012961
0.00129614
0.00129614
0.00129612
0.0012961
0.00129607
0.00129604
0.00129601
0.00129598
0.00129595
0.00129591
0.00129588
0.00129584
0.00129581
0.00129571
0.00135553
0.00135583
0.00135589
0.00135589
0.00135588
0.00135587
0.00135585
0.00135582
0.0013558
0.00135577
0.00135574
0.00135571
0.00135568
0.00135565
0.00135562
0.00135558
0.00135555
0.00135551
0.00135547
0.00135543
0.00135539
0.00135535
0.00135531
0.00135527
0.00135523
0.00135519
0.00135514
0.0013551
0.00135506
0.00135501
0.00135497
0.00135492
0.00135488
0.00135483
0.00135478
0.00135473
0.00135469
0.00135464
0.00135459
0.00135454
0.00135449
0.00135444
0.00135439
0.00135435
0.00135423
0.00135434
0.00135462
0.00135467
0.00135466
0.00135464
0.00135462
0.00135459
0.00135456
0.00135452
0.00135449
0.00135445
0.00135441
0.00135437
0.00135433
0.0013543
0.0013542
0.00141642
0.00141673
0.00141679
0.0014168
0.00141679
0.00141677
0.00141674
0.00141672
0.00141669
0.00141666
0.00141663
0.00141659
0.00141656
0.00141652
0.00141649
0.00141645
0.00141641
0.00141637
0.00141633
0.00141628
0.00141624
0.0014162
0.00141615
0.00141611
0.00141606
0.00141601
0.00141597
0.00141592
0.00141587
0.00141582
0.00141578
0.00141573
0.00141568
0.00141563
0.00141558
0.00141553
0.00141547
0.00141542
0.00141537
0.00141532
0.00141526
0.00141521
0.00141515
0.00141511
0.001415
0.00141512
0.00141543
0.00141548
0.00141547
0.00141545
0.00141542
0.00141539
0.00141536
0.00141532
0.00141528
0.00141524
0.0014152
0.00141516
0.00141511
0.00141508
0.00141498
0.0014796
0.00147993
0.00148
0.00148
0.00147999
0.00147996
0.00147994
0.00147991
0.00147987
0.00147984
0.00147981
0.00147977
0.00147973
0.00147969
0.00147965
0.00147961
0.00147956
0.00147952
0.00147947
0.00147942
0.00147938
0.00147933
0.00147928
0.00147923
0.00147918
0.00147913
0.00147908
0.00147903
0.00147898
0.00147893
0.00147887
0.00147882
0.00147877
0.00147871
0.00147866
0.00147861
0.00147855
0.0014785
0.00147844
0.00147838
0.00147833
0.00147827
0.00147821
0.00147816
0.00147805
0.0014782
0.00147853
0.00147858
0.00147858
0.00147855
0.00147852
0.00147849
0.00147845
0.00147841
0.00147837
0.00147832
0.00147828
0.00147823
0.00147818
0.00147814
0.00147805
0.00154506
0.00154542
0.00154549
0.00154549
0.00154547
0.00154544
0.00154541
0.00154538
0.00154534
0.0015453
0.00154527
0.00154522
0.00154518
0.00154514
0.00154509
0.00154505
0.001545
0.00154495
0.0015449
0.00154485
0.00154479
0.00154474
0.00154469
0.00154463
0.00154458
0.00154453
0.00154447
0.00154442
0.00154436
0.00154431
0.00154425
0.00154419
0.00154414
0.00154408
0.00154402
0.00154396
0.00154391
0.00154385
0.00154379
0.00154373
0.00154367
0.00154361
0.00154354
0.00154349
0.00154339
0.00154357
0.00154391
0.00154397
0.00154396
0.00154394
0.0015439
0.00154386
0.00154382
0.00154378
0.00154373
0.00154369
0.00154364
0.00154359
0.00154354
0.00154349
0.0015434
0.00161278
0.00161316
0.00161323
0.00161323
0.00161321
0.00161318
0.00161314
0.00161311
0.00161307
0.00161302
0.00161298
0.00161293
0.00161289
0.00161284
0.00161279
0.00161274
0.00161269
0.00161263
0.00161258
0.00161252
0.00161246
0.00161241
0.00161235
0.00161229
0.00161223
0.00161217
0.00161211
0.00161206
0.001612
0.00161194
0.00161188
0.00161182
0.00161176
0.0016117
0.00161163
0.00161157
0.00161151
0.00161145
0.00161138
0.00161132
0.00161126
0.00161119
0.00161113
0.00161107
0.00161097
0.00161119
0.00161155
0.00161162
0.00161161
0.00161158
0.00161154
0.0016115
0.00161145
0.0016114
0.00161135
0.0016113
0.00161125
0.0016112
0.00161114
0.00161109
0.001611
0.00168272
0.00168312
0.00168319
0.00168319
0.00168316
0.00168313
0.00168309
0.00168304
0.001683
0.00168295
0.0016829
0.00168285
0.0016828
0.00168275
0.00168269
0.00168264
0.00168258
0.00168252
0.00168246
0.0016824
0.00168234
0.00168228
0.00168221
0.00168215
0.00168209
0.00168203
0.00168196
0.0016819
0.00168184
0.00168177
0.00168171
0.00168165
0.00168158
0.00168152
0.00168145
0.00168139
0.00168132
0.00168125
0.00168119
0.00168112
0.00168105
0.00168098
0.00168092
0.00168085
0.00168077
0.00168102
0.00168141
0.00168147
0.00168146
0.00168143
0.00168138
0.00168134
0.00168129
0.00168124
0.00168118
0.00168113
0.00168107
0.00168101
0.00168095
0.00168089
0.00168082
0.0017548
0.00175522
0.0017553
0.00175529
0.00175526
0.00175522
0.00175517
0.00175513
0.00175508
0.00175502
0.00175497
0.00175492
0.00175486
0.0017548
0.00175474
0.00175468
0.00175462
0.00175455
0.00175449
0.00175442
0.00175435
0.00175429
0.00175422
0.00175415
0.00175409
0.00175402
0.00175395
0.00175388
0.00175382
0.00175375
0.00175368
0.00175361
0.00175355
0.00175348
0.00175341
0.00175334
0.00175327
0.0017532
0.00175313
0.00175306
0.00175299
0.00175292
0.00175284
0.00175277
0.0017527
0.00175299
0.0017534
0.00175347
0.00175346
0.00175342
0.00175337
0.00175332
0.00175327
0.00175322
0.00175316
0.0017531
0.00175304
0.00175297
0.00175291
0.00175284
0.00175278
0.00182894
0.00182938
0.00182946
0.00182945
0.00182941
0.00182937
0.00182932
0.00182926
0.00182921
0.00182915
0.00182909
0.00182903
0.00182897
0.00182891
0.00182884
0.00182878
0.00182871
0.00182864
0.00182857
0.0018285
0.00182842
0.00182835
0.00182828
0.00182821
0.00182814
0.00182806
0.00182799
0.00182792
0.00182785
0.00182778
0.0018277
0.00182763
0.00182756