/*--------------------------------*- C++ -*----------------------------------*\
  =========                 |
  \\      /  F ield         | OpenFOAM: The Open Source CFD Toolbox
   \\    /   O peration     | Website:  https://openfoam.org
    \\  /    A nd           | Version:  7
     \\/     M anipulation  |
\*---------------------------------------------------------------------------*/
FoamFile
{
    version     2.0;
    format      ascii;
    class       volScalarField;
    location    "4500";
    object      omega;
}
// * * * * * * * * * * * * * * * * * * * * * * * * * * * * * * * * * * * * * //

dimensions      [0 0 -1 0 0 0 0];

internalField   nonuniform List<scalar> 
4026
(
0.581178
0.581186
0.581183
0.581178
0.581172
0.581166
0.581161
0.581156
0.581152
0.581148
0.581145
0.581141
0.581138
0.581135
0.581131
0.581129
0.581126
0.581124
0.581122
0.581121
0.58112
0.581119
0.581118
0.581117
0.581117
0.581116
0.581116
0.581116
0.581116
0.581116
0.581117
0.581117
0.581117
0.581118
0.581118
0.581118
0.581119
0.581119
0.58112
0.58112
0.581121
0.581121
0.581122
0.581123
0.58112
0.581199
0.581195
0.581187
0.581179
0.581173
0.581167
0.581162
0.581157
0.581153
0.58115
0.581146
0.581143
0.581141
0.581138
0.581138
0.581127
0.550448
0.550454
0.550452
0.550447
0.550442
0.550436
0.550431
0.550427
0.550423
0.55042
0.550417
0.550413
0.55041
0.550407
0.550404
0.550402
0.5504
0.550398
0.550396
0.550395
0.550394
0.550393
0.550392
0.550392
0.550392
0.550391
0.550391
0.550391
0.550392
0.550392
0.550392
0.550393
0.550393
0.550394
0.550394
0.550395
0.550395
0.550396
0.550397
0.550397
0.550398
0.550399
0.550399
0.550401
0.550397
0.550481
0.550477
0.550468
0.55046
0.550453
0.550446
0.550441
0.550436
0.550432
0.550429
0.550426
0.550423
0.55042
0.550417
0.550417
0.550408
0.521591
0.521596
0.521593
0.521589
0.521584
0.521579
0.521574
0.52157
0.521567
0.521564
0.521561
0.521558
0.521555
0.521552
0.52155
0.521548
0.521546
0.521544
0.521542
0.521541
0.52154
0.52154
0.521539
0.521539
0.521539
0.521539
0.521539
0.521539
0.521539
0.52154
0.52154
0.521541
0.521541
0.521542
0.521543
0.521544
0.521544
0.521545
0.521546
0.521547
0.521548
0.521549
0.521549
0.521551
0.521548
0.521629
0.521627
0.521619
0.521611
0.521604
0.521597
0.521592
0.521587
0.521583
0.52158
0.521577
0.521574
0.521571
0.521569
0.521568
0.521561
0.494436
0.494439
0.494436
0.494432
0.494428
0.494423
0.494419
0.494415
0.494412
0.494409
0.494406
0.494404
0.494402
0.494399
0.494397
0.494395
0.494393
0.494392
0.49439
0.494389
0.494389
0.494388
0.494388
0.494388
0.494388
0.494388
0.494388
0.494389
0.494389
0.49439
0.49439
0.494391
0.494392
0.494393
0.494393
0.494394
0.494395
0.494396
0.494397
0.494398
0.494399
0.4944
0.494401
0.494403
0.494401
0.494476
0.494475
0.494469
0.494462
0.494455
0.494449
0.494444
0.494439
0.494435
0.494432
0.494429
0.494426
0.494424
0.494422
0.49442
0.494415
0.468834
0.468835
0.468832
0.468828
0.468824
0.46882
0.468816
0.468812
0.468809
0.468807
0.468805
0.468802
0.4688
0.468798
0.468796
0.468795
0.468793
0.468792
0.468791
0.46879
0.46879
0.468789
0.468789
0.468789
0.46879
0.46879
0.46879
0.468791
0.468791
0.468792
0.468793
0.468794
0.468795
0.468796
0.468797
0.468798
0.468799
0.4688
0.468801
0.468802
0.468804
0.468805
0.468806
0.468807
0.468807
0.468876
0.468875
0.46887
0.468864
0.468858
0.468852
0.468847
0.468843
0.468839
0.468836
0.468833
0.468831
0.468829
0.468827
0.468825
0.468822
0.444654
0.444653
0.44465
0.444646
0.444642
0.444638
0.444635
0.444632
0.444629
0.444627
0.444625
0.444623
0.444621
0.444619
0.444618
0.444616
0.444615
0.444614
0.444613
0.444613
0.444613
0.444612
0.444613
0.444613
0.444613
0.444614
0.444614
0.444615
0.444616
0.444617
0.444618
0.444619
0.44462
0.444621
0.444622
0.444623
0.444625
0.444626
0.444627
0.444629
0.44463
0.444631
0.444633
0.444634
0.444635
0.444697
0.444696
0.444691
0.444686
0.444681
0.444676
0.444672
0.444668
0.444665
0.444662
0.444659
0.444657
0.444655
0.444654
0.444652
0.44465
0.421782
0.421778
0.421775
0.421771
0.421768
0.421764
0.421761
0.421758
0.421756
0.421754
0.421752
0.421751
0.421749
0.421748
0.421747
0.421745
0.421744
0.421744
0.421743
0.421743
0.421743
0.421743
0.421743
0.421744
0.421744
0.421745
0.421746
0.421747
0.421748
0.421749
0.42175
0.421751
0.421752
0.421754
0.421755
0.421756
0.421758
0.421759
0.421761
0.421762
0.421764
0.421765
0.421767
0.421768
0.421771
0.421826
0.421824
0.42182
0.421816
0.421812
0.421807
0.421803
0.4218
0.421797
0.421795
0.421793
0.421791
0.421789
0.421788
0.421786
0.421786
0.400116
0.400111
0.400107
0.400104
0.4001
0.400097
0.400094
0.400092
0.40009
0.400088
0.400087
0.400085
0.400084
0.400083
0.400082
0.400081
0.40008
0.40008
0.400079
0.400079
0.40008
0.40008
0.40008
0.400081
0.400082
0.400083
0.400084
0.400085
0.400086
0.400087
0.400088
0.40009
0.400091
0.400093
0.400094
0.400096
0.400097
0.400099
0.400101
0.400102
0.400104
0.400106
0.400108
0.400109
0.400113
0.400162
0.400158
0.400155
0.400152
0.400148
0.400144
0.400141
0.400138
0.400136
0.400134
0.400132
0.40013
0.400129
0.400128
0.400126
0.400127
0.379567
0.379561
0.379557
0.379553
0.37955
0.379548
0.379545
0.379543
0.379541
0.37954
0.379538
0.379538
0.379537
0.379536
0.379535
0.379534
0.379534
0.379533
0.379533
0.379534
0.379534
0.379535
0.379535
0.379536
0.379537
0.379538
0.379539
0.379541
0.379542
0.379543
0.379545
0.379546
0.379548
0.37955
0.379551
0.379553
0.379555
0.379557
0.379558
0.37956
0.379562
0.379564
0.379566
0.379567
0.379573
0.379616
0.379611
0.379608
0.379605
0.379602
0.379599
0.379596
0.379594
0.379592
0.37959
0.379589
0.379588
0.379586
0.379586
0.379584
0.379587
0.360058
0.36005
0.360046
0.360043
0.36004
0.360037
0.360035
0.360033
0.360032
0.36003
0.36003
0.360029
0.360028
0.360028
0.360027
0.360027
0.360026
0.360026
0.360027
0.360027
0.360028
0.360028
0.360029
0.36003
0.360032
0.360033
0.360034
0.360036
0.360037
0.360039
0.36004
0.360042
0.360044
0.360046
0.360048
0.360049
0.360051
0.360053
0.360055
0.360057
0.360059
0.360062
0.360064
0.360065
0.360071
0.360109
0.360102
0.360099
0.360097
0.360095
0.360092
0.36009
0.360088
0.360087
0.360085
0.360084
0.360084
0.360083
0.360082
0.360081
0.360085
0.341519
0.341509
0.341505
0.341502
0.341499
0.341497
0.341495
0.341493
0.341492
0.341491
0.341491
0.34149
0.34149
0.341489
0.341489
0.341489
0.341489
0.341489
0.34149
0.34149
0.341491
0.341492
0.341493
0.341494
0.341496
0.341497
0.341499
0.3415
0.341502
0.341504
0.341506
0.341507
0.341509
0.341511
0.341513
0.341516
0.341518
0.34152
0.341522
0.341524
0.341526
0.341529
0.341531
0.341532
0.34154
0.341573
0.341564
0.341561
0.341559
0.341557
0.341556
0.341554
0.341552
0.341551
0.34155
0.34155
0.341549
0.341549
0.341549
0.341547
0.341552
0.323887
0.323876
0.323872
0.323869
0.323867
0.323865
0.323863
0.323862
0.323861
0.32386
0.32386
0.323859
0.323859
0.323859
0.323859
0.323859
0.323859
0.32386
0.323861
0.323861
0.323862
0.323864
0.323865
0.323866
0.323868
0.323869
0.323871
0.323873
0.323875
0.323877
0.323879
0.323881
0.323883
0.323885
0.323887
0.32389
0.323892
0.323894
0.323896
0.323899
0.323901
0.323904
0.323906
0.323907
0.323916
0.323944
0.323935
0.323932
0.32393
0.323928
0.323927
0.323926
0.323924
0.323924
0.323923
0.323923
0.323923
0.323923
0.323923
0.323921
0.323928
0.307109
0.307097
0.307092
0.30709
0.307088
0.307086
0.307085
0.307083
0.307083
0.307082
0.307082
0.307082
0.307082
0.307082
0.307083
0.307083
0.307083
0.307084
0.307085
0.307086
0.307087
0.307088
0.30709
0.307091
0.307093
0.307095
0.307097
0.307099
0.307101
0.307103
0.307105
0.307107
0.30711
0.307112
0.307114
0.307117
0.307119
0.307122
0.307124
0.307127
0.307129
0.307132
0.307135
0.307136
0.307146
0.307169
0.307158
0.307155
0.307154
0.307153
0.307151
0.307151
0.30715
0.307149
0.307149
0.307149
0.307149
0.307149
0.30715
0.307149
0.307156
0.291136
0.291122
0.291118
0.291115
0.291113
0.291112
0.291111
0.29111
0.291109
0.291109
0.291109
0.291109
0.29111
0.29111
0.29111
0.291111
0.291112
0.291112
0.291113
0.291115
0.291116
0.291118
0.291119
0.291121
0.291123
0.291125
0.291127
0.291129
0.291131
0.291134
0.291136
0.291138
0.291141
0.291143
0.291146
0.291148
0.291151
0.291153
0.291156
0.291159
0.291162
0.291164
0.291167
0.291168
0.291179
0.291199
0.291187
0.291184
0.291182
0.291181
0.291181
0.29118
0.29118
0.291179
0.29118
0.29118
0.29118
0.291181
0.291181
0.29118
0.291189
0.275923
0.275908
0.275904
0.275901
0.2759
0.275899
0.275898
0.275897
0.275897
0.275897
0.275897
0.275897
0.275898
0.275898
0.275899
0.2759
0.275901
0.275902
0.275903
0.275904
0.275906
0.275908
0.275909
0.275911
0.275913
0.275915
0.275918
0.27592
0.275922
0.275925
0.275927
0.27593
0.275932
0.275935
0.275938
0.27594
0.275943
0.275946
0.275949
0.275951
0.275954
0.275957
0.27596
0.275962
0.275973
0.275989
0.275976
0.275973
0.275972
0.275971
0.27597
0.27597
0.27597
0.27597
0.275971
0.275971
0.275972
0.275972
0.275973
0.275972
0.275982
0.261432
0.261416
0.261411
0.261409
0.261408
0.261407
0.261406
0.261406
0.261406
0.261406
0.261406
0.261407
0.261408
0.261408
0.261409
0.26141
0.261411
0.261412
0.261414
0.261415
0.261417
0.261419
0.261421
0.261423
0.261425
0.261427
0.26143
0.261432
0.261435
0.261437
0.26144
0.261443
0.261445
0.261448
0.261451
0.261454
0.261457
0.26146
0.261463
0.261465
0.261468
0.261471
0.261475
0.261476
0.261488
0.261501
0.261487
0.261484
0.261483
0.261482
0.261482
0.261482
0.261482
0.261482
0.261483
0.261484
0.261485
0.261485
0.261487
0.261486
0.261496
0.247627
0.24761
0.247606
0.247604
0.247602
0.247602
0.247601
0.247601
0.247601
0.247602
0.247602
0.247603
0.247604
0.247605
0.247606
0.247607
0.247608
0.247609
0.247611
0.247613
0.247615
0.247617
0.247619
0.247621
0.247623
0.247626
0.247628
0.247631
0.247633
0.247636
0.247639
0.247642
0.247644
0.247647
0.24765
0.247653
0.247656
0.247659
0.247662
0.247665
0.247669
0.247672
0.247675
0.247676
0.247689
0.247699
0.247684
0.247681
0.24768
0.247679
0.247679
0.24768
0.24768
0.247681
0.247682
0.247682
0.247684
0.247685
0.247686
0.247685
0.247696
0.234477
0.234459
0.234454
0.234452
0.234451
0.234451
0.23445
0.234451
0.234451
0.234451
0.234452
0.234453
0.234454
0.234455
0.234456
0.234458
0.234459
0.234461
0.234462
0.234464
0.234466
0.234468
0.234471
0.234473
0.234475
0.234478
0.234481
0.234483
0.234486
0.234489
0.234492
0.234495
0.234498
0.234501
0.234504
0.234507
0.23451
0.234513
0.234516
0.234519
0.234523
0.234526
0.234529
0.234531
0.234544
0.234552
0.234536
0.234532
0.234531
0.234531
0.234531
0.234532
0.234532
0.234533
0.234534
0.234535
0.234537
0.234538
0.234539
0.234539
0.23455
0.221952
0.221933
0.221928
0.221926
0.221926
0.221925
0.221925
0.221925
0.221926
0.221927
0.221928
0.221929
0.22193
0.221931
0.221932
0.221934
0.221935
0.221937
0.221939
0.221941
0.221943
0.221945
0.221948
0.22195
0.221953
0.221955
0.221958
0.221961
0.221964
0.221967
0.22197
0.221973
0.221976
0.221979
0.221982
0.221985
0.221988
0.221992
0.221995
0.221998
0.222002
0.222005
0.222009
0.22201
0.222024
0.222029
0.222012
0.222008
0.222008
0.222008
0.222008
0.222009
0.222009
0.222011
0.222012
0.222013
0.222014
0.222016
0.222018
0.222017
0.222029
0.210025
0.210006
0.210001
0.209999
0.209999
0.209998
0.209998
0.209999
0.21
0.21
0.210002
0.210003
0.210004
0.210005
0.210007
0.210008
0.21001
0.210012
0.210014
0.210016
0.210018
0.210021
0.210023
0.210026
0.210028
0.210031
0.210034
0.210037
0.21004
0.210043
0.210046
0.210049
0.210052
0.210055
0.210059
0.210062
0.210065
0.210069
0.210072
0.210075
0.210079
0.210082
0.210086
0.210088
0.210101
0.210105
0.210087
0.210083
0.210083
0.210083
0.210083
0.210084
0.210085
0.210086
0.210088
0.210089
0.210091
0.210092
0.210094
0.210094
0.210106
0.198673
0.198653
0.198648
0.198646
0.198646
0.198646
0.198646
0.198647
0.198647
0.198648
0.19865
0.198651
0.198652
0.198654
0.198656
0.198657
0.198659
0.198661
0.198663
0.198665
0.198668
0.19867
0.198673
0.198675
0.198678
0.198681
0.198684
0.198687
0.19869
0.198693
0.198696
0.198699
0.198703
0.198706
0.198709
0.198713
0.198716
0.198719
0.198723
0.198726
0.19873
0.198733
0.198737
0.198739
0.198753
0.198754
0.198736
0.198732
0.198731
0.198732
0.198732
0.198733
0.198735
0.198736
0.198737
0.198739
0.198741
0.198742
0.198745
0.198744
0.198757
0.187871
0.187851
0.187846
0.187845
0.187844
0.187844
0.187845
0.187846
0.187847
0.187848
0.187849
0.187851
0.187852
0.187854
0.187855
0.187857
0.187859
0.187861
0.187863
0.187866
0.187868
0.187871
0.187874
0.187876
0.187879
0.187882
0.187885
0.187888
0.187891
0.187894
0.187898
0.187901
0.187904
0.187907
0.187911
0.187914
0.187918
0.187921
0.187925
0.187928
0.187932
0.187935
0.187939
0.187941
0.187955
0.187955
0.187936
0.187932
0.187931
0.187932
0.187933
0.187934
0.187935
0.187937
0.187938
0.18794
0.187942
0.187944
0.187946
0.187946
0.187958
0.1776
0.17758
0.177575
0.177573
0.177573
0.177573
0.177574
0.177575
0.177576
0.177577
0.177579
0.17758
0.177582
0.177584
0.177586
0.177587
0.17759
0.177592
0.177594
0.177596
0.177599
0.177602
0.177604
0.177607
0.17761
0.177613
0.177616
0.177619
0.177622
0.177626
0.177629
0.177632
0.177635
0.177639
0.177642
0.177646
0.177649
0.177653
0.177656
0.17766
0.177663
0.177667
0.177671
0.177673
0.177687
0.177685
0.177666
0.177662
0.177661
0.177662
0.177663
0.177664
0.177666
0.177667
0.177669
0.177671
0.177673
0.177675
0.177677
0.177677
0.17769
0.16784
0.167818
0.167813
0.167812
0.167812
0.167813
0.167813
0.167814
0.167816
0.167817
0.167819
0.16782
0.167822
0.167824
0.167826
0.167828
0.16783
0.167832
0.167835
0.167837
0.16784
0.167842
0.167845
0.167848
0.167851
0.167854
0.167857
0.16786
0.167863
0.167867
0.16787
0.167873
0.167877
0.16788
0.167884
0.167887
0.167891
0.167894
0.167898
0.167901
0.167905
0.167909
0.167913
0.167915
0.167928
0.167925
0.167906
0.167902
0.167901
0.167902
0.167903
0.167904
0.167906
0.167908
0.16791
0.167911
0.167914
0.167916
0.167918
0.167918
0.167931
0.15857
0.158549
0.158544
0.158543
0.158543
0.158543
0.158544
0.158545
0.158546
0.158548
0.15855
0.158551
0.158553
0.158555
0.158557
0.158559
0.158561
0.158564
0.158566
0.158569
0.158571
0.158574
0.158577
0.15858
0.158583
0.158586
0.158589
0.158592
0.158596
0.158599
0.158602
0.158606
0.158609
0.158612
0.158616
0.158619
0.158623
0.158626
0.15863
0.158634
0.158637
0.158641
0.158645
0.158647
0.15866
0.158656
0.158636
0.158632
0.158632
0.158633
0.158634
0.158636
0.158637
0.158639
0.158641
0.158643
0.158645
0.158647
0.15865
0.15865
0.158662
0.149773
0.149752
0.149747
0.149746
0.149746
0.149747
0.149748
0.149749
0.14975
0.149752
0.149754
0.149755
0.149757
0.149759
0.149762
0.149764
0.149766
0.149768
0.149771
0.149774
0.149776
0.149779
0.149782
0.149785
0.149788
0.149791
0.149794
0.149797
0.149801
0.149804
0.149807
0.149811
0.149814
0.149817
0.149821
0.149824
0.149828
0.149832
0.149835
0.149839
0.149842
0.149846
0.14985
0.149852
0.149865
0.14986
0.14984
0.149836
0.149836
0.149837
0.149838
0.149839
0.149841
0.149843
0.149845
0.149847
0.149849
0.149852
0.149854
0.149855
0.149867
0.141432
0.141411
0.141406
0.141405
0.141405
0.141406
0.141407
0.141408
0.14141
0.141412
0.141413
0.141415
0.141417
0.141419
0.141422
0.141424
0.141426
0.141429
0.141431
0.141434
0.141437
0.14144
0.141442
0.141445
0.141448
0.141452
0.141455
0.141458
0.141461
0.141464
0.141468
0.141471
0.141475
0.141478
0.141481
0.141485
0.141488
0.141492
0.141496
0.141499
0.141503
0.141507
0.14151
0.141513
0.141525
0.141519
0.141499
0.141495
0.141495
0.141496
0.141497
0.141499
0.141501
0.141503
0.141505
0.141507
0.141509
0.141511
0.141514
0.141515
0.141526
0.13353
0.133508
0.133504
0.133503
0.133503
0.133504
0.133505
0.133507
0.133508
0.13351
0.133512
0.133514
0.133516
0.133518
0.13352
0.133523
0.133525
0.133528
0.13353
0.133533
0.133536
0.133539
0.133542
0.133545
0.133548
0.133551
0.133554
0.133557
0.13356
0.133564
0.133567
0.13357
0.133574
0.133577
0.133581
0.133584
0.133588
0.133591
0.133595
0.133598
0.133602
0.133605
0.133609
0.133612
0.133624
0.133617
0.133596
0.133593
0.133593
0.133594
0.133595
0.133597
0.133598
0.133601
0.133603
0.133605
0.133607
0.13361
0.133612
0.133613
0.133624
0.12605
0.126029
0.126024
0.126023
0.126024
0.126025
0.126026
0.126028
0.126029
0.126031
0.126033
0.126035
0.126037
0.126039
0.126042
0.126044
0.126046
0.126049
0.126052
0.126054
0.126057
0.12606
0.126063
0.126066
0.126069
0.126072
0.126075
0.126079
0.126082
0.126085
0.126088
0.126092
0.126095
0.126098
0.126102
0.126105
0.126109
0.126112
0.126116
0.126119
0.126123
0.126127
0.12613
0.126133
0.126144
0.126137
0.126116
0.126112
0.126112
0.126113
0.126115
0.126117
0.126119
0.126121
0.126123
0.126125
0.126127
0.12613
0.126132
0.126134
0.126144
0.118976
0.118955
0.118951
0.11895
0.118951
0.118952
0.118953
0.118955
0.118957
0.118958
0.11896
0.118963
0.118965
0.118967
0.118969
0.118972
0.118974
0.118977
0.118979
0.118982
0.118985
0.118988
0.118991
0.118994
0.118997
0.119
0.119003
0.119006
0.119009
0.119013
0.119016
0.119019
0.119023
0.119026
0.119029
0.119033
0.119036
0.11904
0.119043
0.119047
0.11905
0.119054
0.119057
0.11906
0.119071
0.119062
0.119042
0.119038
0.119038
0.11904
0.119041
0.119043
0.119045
0.119047
0.119049
0.119051
0.119054
0.119056
0.119059
0.11906
0.11907
0.112293
0.112273
0.112268
0.112268
0.112269
0.11227
0.112271
0.112273
0.112275
0.112277
0.112279
0.112281
0.112283
0.112285
0.112288
0.11229
0.112293
0.112295
0.112298
0.112301
0.112303
0.112306
0.112309
0.112312
0.112315
0.112318
0.112321
0.112325
0.112328
0.112331
0.112334
0.112337
0.112341
0.112344
0.112347
0.112351
0.112354
0.112357
0.112361
0.112364
0.112368
0.112371
0.112375
0.112377
0.112388
0.112379
0.112359
0.112355
0.112355
0.112356
0.112358
0.11236
0.112362
0.112364
0.112366
0.112368
0.112371
0.112373
0.112376
0.112377
0.112387
0.105986
0.105966
0.105961
0.105961
0.105962
0.105963
0.105965
0.105966
0.105968
0.10597
0.105972
0.105974
0.105977
0.105979
0.105981
0.105984
0.105986
0.105989
0.105992
0.105994
0.105997
0.106
0.106003
0.106006
0.106009
0.106012
0.106015
0.106018
0.106021
0.106024
0.106027
0.106031
0.106034
0.106037
0.10604
0.106044
0.106047
0.10605
0.106054
0.106057
0.106061
0.106064
0.106068
0.10607
0.10608
0.10607
0.10605
0.106047
0.106047
0.106048
0.10605
0.106051
0.106053
0.106056
0.106058
0.10606
0.106063
0.106065
0.106068
0.106069
0.106078
0.100039
0.100019
0.100015
0.100014
0.100015
0.100016
0.100018
0.10002
0.100022
0.100024
0.100026
0.100028
0.10003
0.100033
0.100035
0.100037
0.10004
0.100043
0.100045
0.100048
0.100051
0.100054
0.100057
0.10006
0.100063
0.100066
0.100069
0.100072
0.100075
0.100078
0.100081
0.100084
0.100087
0.10009
0.100094
0.100097
0.1001
0.100103
0.100107
0.10011
0.100113
0.100117
0.10012
0.100123
0.100131
0.100121
0.100102
0.100098
0.100099
0.1001
0.100101
0.100103
0.100105
0.100107
0.10011
0.100112
0.100114
0.100117
0.100119
0.100121
0.100129
0.0944362
0.0944168
0.094413
0.0944128
0.0944138
0.0944151
0.0944167
0.0944185
0.0944204
0.0944225
0.0944246
0.0944268
0.0944291
0.0944314
0.0944338
0.0944363
0.0944389
0.0944415
0.0944442
0.0944469
0.0944497
0.0944526
0.0944554
0.0944583
0.0944613
0.0944642
0.0944671
0.0944701
0.0944731
0.0944761
0.0944792
0.0944823
0.0944853
0.0944885
0.0944916
0.0944947
0.0944979
0.0945011
0.0945043
0.0945075
0.0945108
0.094514
0.0945174
0.09452
0.094528
0.0945173
0.0944984
0.094495
0.0944952
0.0944965
0.0944981
0.0945
0.094502
0.0945042
0.0945064
0.0945088
0.0945112
0.0945136
0.0945162
0.0945181
0.0945253
0.0891644
0.0891454
0.0891418
0.0891418
0.0891428
0.0891442
0.0891458
0.0891476
0.0891496
0.0891517
0.0891538
0.089156
0.0891583
0.0891607
0.0891631
0.0891656
0.0891681
0.0891708
0.0891734
0.0891762
0.089179
0.0891818
0.0891846
0.0891874
0.0891903
0.0891932
0.0891961
0.089199
0.0892019
0.0892049
0.0892079
0.0892109
0.0892139
0.0892169
0.08922
0.089223
0.0892261
0.0892292
0.0892323
0.0892355
0.0892386
0.0892418
0.089245
0.0892477
0.0892548
0.0892437
0.0892252
0.089222
0.0892222
0.0892235
0.0892252
0.089227
0.089229
0.0892312
0.0892335
0.0892358
0.0892382
0.0892406
0.0892432
0.0892451
0.0892517
0.0842085
0.0841901
0.0841866
0.0841867
0.0841878
0.0841892
0.0841909
0.0841928
0.0841948
0.0841968
0.084199
0.0842012
0.0842035
0.0842059
0.0842083
0.0842108
0.0842133
0.0842159
0.0842186
0.0842213
0.084224
0.0842268
0.0842296
0.0842324
0.0842352
0.084238
0.0842409
0.0842437
0.0842466
0.0842495
0.0842524
0.0842553
0.0842582
0.0842612
0.0842641
0.0842671
0.0842701
0.0842731
0.0842761
0.0842792
0.0842822
0.0842853
0.0842884
0.0842911
0.0842974
0.0842859
0.0842679
0.0842647
0.0842651
0.0842664
0.084268
0.0842699
0.0842719
0.084274
0.0842763
0.0842786
0.084281
0.0842834
0.0842859
0.084288
0.0842937
0.0795543
0.0795365
0.0795332
0.0795334
0.0795345
0.079536
0.0795377
0.0795396
0.0795416
0.0795437
0.0795459
0.0795481
0.0795504
0.0795527
0.0795551
0.0795576
0.0795601
0.0795627
0.0795654
0.079568
0.0795708
0.0795735
0.0795762
0.079579
0.0795817
0.0795845
0.0795873
0.0795901
0.0795929
0.0795957
0.0795985
0.0796013
0.0796042
0.079607
0.0796099
0.0796128
0.0796157
0.0796186
0.0796215
0.0796244
0.0796274
0.0796304
0.0796334
0.079636
0.0796415
0.0796296
0.0796121
0.0796091
0.0796095
0.0796108
0.0796125
0.0796143
0.0796163
0.0796185
0.0796207
0.079623
0.0796253
0.0796277
0.0796302
0.0796323
0.0796374
0.0751877
0.0751706
0.0751675
0.0751678
0.075169
0.0751705
0.0751723
0.0751742
0.0751762
0.0751783
0.0751804
0.0751827
0.0751849
0.0751873
0.0751897
0.0751921
0.0751946
0.0751972
0.0751998
0.0752024
0.0752051
0.0752078
0.0752105
0.0752132
0.0752159
0.0752186
0.0752213
0.075224
0.0752267
0.0752295
0.0752322
0.0752349
0.0752377
0.0752405
0.0752432
0.075246
0.0752488
0.0752516
0.0752544
0.0752573
0.0752601
0.075263
0.0752659
0.0752685
0.0752732
0.0752609
0.075244
0.0752411
0.0752416
0.0752429
0.0752445
0.0752464
0.0752484
0.0752505
0.0752527
0.0752549
0.0752572
0.0752596
0.075262
0.0752642
0.0752685
0.0710952
0.0710787
0.0710759
0.0710762
0.0710775
0.071079
0.0710808
0.0710827
0.0710848
0.0710868
0.071089
0.0710912
0.0710935
0.0710958
0.0710982
0.0711006
0.0711031
0.0711056
0.0711082
0.0711108
0.0711134
0.0711161
0.0711187
0.0711213
0.071124
0.0711266
0.0711293
0.0711319
0.0711345
0.0711372
0.0711398
0.0711425
0.0711451
0.0711478
0.0711505
0.0711532
0.0711559
0.0711586
0.0711613
0.071164
0.0711668
0.0711695
0.0711723
0.0711749
0.0711788
0.0711661
0.0711498
0.0711471
0.0711476
0.0711489
0.0711505
0.0711524
0.0711543
0.0711564
0.0711586
0.0711608
0.0711631
0.0711654
0.0711678
0.07117
0.0711736
0.0672634
0.0672475
0.0672449
0.0672453
0.0672466
0.0672482
0.06725
0.067252
0.067254
0.0672561
0.0672582
0.0672604
0.0672627
0.067265
0.0672673
0.0672697
0.0672722
0.0672747
0.0672772
0.0672798
0.0672824
0.0672849
0.0672875
0.0672901
0.0672927
0.0672952
0.0672978
0.0673004
0.0673029
0.0673055
0.067308
0.0673106
0.0673132
0.0673158
0.0673183
0.0673209
0.0673235
0.0673261
0.0673287
0.0673313
0.067334
0.0673366
0.0673392
0.0673418
0.067345
0.067332
0.0673162
0.0673137
0.0673142
0.0673155
0.0673171
0.067319
0.0673209
0.0673229
0.0673251
0.0673272
0.0673295
0.0673317
0.0673341
0.0673364
0.0673393
0.0636792
0.063664
0.0636615
0.0636621
0.0636634
0.0636651
0.0636669
0.0636688
0.0636708
0.0636729
0.0636751
0.0636772
0.0636795
0.0636817
0.0636841
0.0636864
0.0636889
0.0636913
0.0636938
0.0636963
0.0636989
0.0637014
0.0637039
0.0637064
0.0637089
0.0637114
0.0637139
0.0637164
0.0637189
0.0637214
0.0637238
0.0637263
0.0637288
0.0637313
0.0637337
0.0637362
0.0637387
0.0637412
0.0637437
0.0637462
0.0637487
0.0637512
0.0637538
0.0637563
0.0637587
0.0637453
0.0637302
0.0637278
0.0637284
0.0637297
0.0637313
0.0637331
0.063735
0.063737
0.0637391
0.0637413
0.0637435
0.0637457
0.063748
0.0637503
0.0637525
0.06033
0.0603154
0.0603132
0.0603138
0.0603152
0.0603169
0.0603187
0.0603207
0.0603227
0.0603247
0.0603269
0.060329
0.0603312
0.0603335
0.0603358
0.0603381
0.0603405
0.0603429
0.0603454
0.0603478
0.0603503
0.0603528
0.0603552
0.0603577
0.0603601
0.0603625
0.060365
0.0603674
0.0603698
0.0603722
0.0603745
0.0603769
0.0603793
0.0603817
0.0603841
0.0603864
0.0603888
0.0603912
0.0603936
0.060396
0.0603984
0.0604008
0.0604032
0.0604057
0.0604074
0.0603937
0.0603792
0.060377
0.0603775
0.0603789
0.0603805
0.0603823
0.0603841
0.0603861
0.0603882
0.0603903
0.0603924
0.0603946
0.0603968
0.0603991
0.0604007
0.0572035
0.0571897
0.0571876
0.0571883
0.0571898
0.0571915
0.0571933
0.0571953
0.0571973
0.0571993
0.0572014
0.0572036
0.0572057
0.057208
0.0572102
0.0572125
0.0572149
0.0572172
0.0572196
0.0572221
0.0572245
0.0572269
0.0572293
0.0572317
0.057234
0.0572364
0.0572387
0.0572411
0.0572434
0.0572457
0.057248
0.0572503
0.0572526
0.0572548
0.0572571
0.0572594
0.0572617
0.057264
0.0572663
0.0572685
0.0572708
0.0572731
0.0572754
0.0572778
0.0572788
0.0572648
0.0572509
0.0572489
0.0572495
0.0572508
0.0572524
0.0572542
0.057256
0.0572579
0.0572599
0.057262
0.0572641
0.0572662
0.0572684
0.0572707
0.0572717
0.0542881
0.0542749
0.0542731
0.0542738
0.0542753
0.054277
0.0542789
0.0542808
0.0542828
0.0542849
0.054287
0.0542891
0.0542912
0.0542934
0.0542956
0.0542979
0.0543002
0.0543025
0.0543049
0.0543072
0.0543096
0.0543119
0.0543143
0.0543166
0.0543189
0.0543212
0.0543234
0.0543257
0.0543279
0.0543301
0.0543324
0.0543346
0.0543368
0.0543389
0.0543411
0.0543433
0.0543455
0.0543477
0.0543498
0.054352
0.0543542
0.0543564
0.0543585
0.0543609
0.0543613
0.0543469
0.0543337
0.0543317
0.0543324
0.0543337
0.0543353
0.054337
0.0543389
0.0543408
0.0543427
0.0543447
0.0543467
0.0543488
0.0543509
0.0543532
0.0543537
0.0515723
0.0515598
0.0515581
0.051559
0.0515605
0.0515623
0.0515641
0.051566
0.051568
0.0515701
0.0515721
0.0515742
0.0515763
0.0515785
0.0515807
0.0515829
0.0515851
0.0515874
0.0515897
0.051592
0.0515943
0.0515966
0.0515989
0.0516011
0.0516034
0.0516056
0.0516078
0.0516099
0.0516121
0.0516142
0.0516164
0.0516185
0.0516206
0.0516227
0.0516248
0.0516269
0.0516289
0.051631
0.0516331
0.0516352
0.0516372
0.0516393
0.0516414
0.0516436
0.0516434
0.0516287
0.0516161
0.0516143
0.051615
0.0516163
0.0516179
0.0516196
0.0516214
0.0516232
0.0516251
0.0516271
0.0516291
0.0516311
0.0516332
0.0516354
0.0516353
0.0490454
0.0490335
0.049032
0.049033
0.0490345
0.0490363
0.0490382
0.0490401
0.0490421
0.0490441
0.0490461
0.0490482
0.0490503
0.0490524
0.0490545
0.0490567
0.0490589
0.0490611
0.0490634
0.0490656
0.0490679
0.0490701
0.0490723
0.0490745
0.0490767
0.0490788
0.0490809
0.049083
0.0490851
0.0490872
0.0490892
0.0490912
0.0490932
0.0490953
0.0490973
0.0490992
0.0491012
0.0491032
0.0491052
0.0491071
0.0491091
0.0491111
0.049113
0.0491152
0.0491144
0.0490994
0.0490873
0.0490857
0.0490865
0.0490878
0.0490894
0.049091
0.0490928
0.0490946
0.0490964
0.0490983
0.0491003
0.0491022
0.0491042
0.0491065
0.0491059
0.046697
0.0466857
0.0466845
0.0466855
0.046687
0.0466888
0.0466907
0.0466926
0.0466946
0.0466966
0.0466986
0.0467006
0.0467027
0.0467047
0.0467068
0.046709
0.0467111
0.0467133
0.0467155
0.0467177
0.0467199
0.0467221
0.0467242
0.0467263
0.0467284
0.0467305
0.0467326
0.0467346
0.0467366
0.0467386
0.0467405
0.0467425
0.0467444
0.0467463
0.0467482
0.0467501
0.046752
0.0467539
0.0467558
0.0467576
0.0467595
0.0467614
0.0467632
0.0467653
0.046764
0.0467486
0.0467372
0.0467357
0.0467365
0.0467378
0.0467393
0.046741
0.0467427
0.0467445
0.0467463
0.0467481
0.04675
0.0467519
0.0467539
0.0467561
0.046755
0.0445173
0.0445066
0.0445056
0.0445067
0.0445083
0.0445101
0.0445119
0.0445139
0.0445158
0.0445178
0.0445198
0.0445218
0.0445238
0.0445258
0.0445279
0.04453
0.0445321
0.0445342
0.0445364
0.0445385
0.0445406
0.0445427
0.0445448
0.0445469
0.0445489
0.0445509
0.0445529
0.0445549
0.0445568
0.0445587
0.0445606
0.0445625
0.0445643
0.0445661
0.044568
0.0445698
0.0445716
0.0445734
0.0445751
0.0445769
0.0445787
0.0445804
0.0445822
0.0445842
0.0445824
0.0445666
0.0445558
0.0445544
0.0445552
0.0445566
0.0445581
0.0445597
0.0445614
0.0445632
0.0445649
0.0445667
0.0445686
0.0445704
0.0445723
0.0445745
0.0445729
0.0424971
0.042487
0.0424862
0.0424873
0.042489
0.0424908
0.0424926
0.0424946
0.0424965
0.0424985
0.0425004
0.0425024
0.0425044
0.0425064
0.0425084
0.0425104
0.0425125
0.0425146
0.0425167
0.0425187
0.0425208
0.0425229
0.0425249
0.0425269
0.0425289
0.0425308
0.0425327
0.0425346
0.0425365
0.0425383
0.0425401
0.0425419
0.0425437
0.0425454
0.0425472
0.0425489
0.0425506
0.0425523
0.042554
0.0425557
0.0425574
0.042559
0.0425607
0.0425626
0.0425604
0.0425442
0.0425339
0.0425327
0.0425336
0.0425349
0.0425364
0.042538
0.0425397
0.0425414
0.0425431
0.0425448
0.0425466
0.0425484
0.0425503
0.0425524
0.0425504
0.0406277
0.0406182
0.0406175
0.0406187
0.0406204
0.0406223
0.0406241
0.0406261
0.040628
0.0406299
0.0406319
0.0406338
0.0406358
0.0406377
0.0406397
0.0406417
0.0406437
0.0406457
0.0406478
0.0406498
0.0406518
0.0406538
0.0406558
0.0406577
0.0406596
0.0406615
0.0406634
0.0406652
0.040667
0.0406687
0.0406705
0.0406722
0.0406739
0.0406756
0.0406772
0.0406789
0.0406805
0.0406821
0.0406837
0.0406853
0.0406869
0.0406885
0.04069
0.0406918
0.0406892
0.0406727
0.0406629
0.0406619
0.0406627
0.0406641
0.0406656
0.0406672
0.0406688
0.0406704
0.0406721
0.0406738
0.0406756
0.0406773
0.0406791
0.0406812
0.0406789
0.0389011
0.0388921
0.0388916
0.0388928
0.0388946
0.0388964
0.0388983
0.0389002
0.0389021
0.0389041
0.038906
0.0389079
0.0389098
0.0389117
0.0389137
0.0389156
0.0389176
0.0389196
0.0389215
0.0389235
0.0389255
0.0389274
0.0389293
0.0389312
0.0389331
0.0389349
0.0389367
0.0389385
0.0389402
0.0389419
0.0389435
0.0389452
0.0389468
0.0389484
0.03895
0.0389516
0.0389531
0.0389546
0.0389562
0.0389577
0.0389592
0.0389607
0.0389621
0.0389638
0.0389609
0.038944
0.0389347
0.0389337
0.0389347
0.038936
0.0389375
0.0389391
0.0389407
0.0389423
0.0389439
0.0389456
0.0389473
0.038949
0.0389507
0.0389527
0.0389501
0.0373096
0.0373011
0.0373007
0.0373021
0.0373038
0.0373057
0.0373076
0.0373095
0.0373114
0.0373133
0.0373152
0.0373171
0.037319
0.0373209
0.0373228
0.0373247
0.0373266
0.0373285
0.0373305
0.0373324
0.0373343
0.0373362
0.0373381
0.0373399
0.0373417
0.0373435
0.0373452
0.0373469
0.0373485
0.0373502
0.0373518
0.0373534
0.0373549
0.0373565
0.037358
0.0373595
0.0373609
0.0373624
0.0373638
0.0373653
0.0373667
0.0373681
0.0373694
0.0373711
0.0373678
0.0373505
0.0373416
0.0373409
0.0373418
0.0373432
0.0373446
0.0373462
0.0373477
0.0373493