/*--------------------------------*- C++ -*----------------------------------*\
  =========                 |
  \\      /  F ield         | OpenFOAM: The Open Source CFD Toolbox
   \\    /   O peration     | Website:  https://openfoam.org
    \\  /    A nd           | Version:  7
     \\/     M anipulation  |
\*---------------------------------------------------------------------------*/
FoamFile
{
    version     2.0;
    format      ascii;
    class       surfaceScalarField;
    location    "16500";
    object      phi;
}
// * * * * * * * * * * * * * * * * * * * * * * * * * * * * * * * * * * * * * //

dimensions      [0 3 -1 0 0 0 0];

internalField   nonuniform List<scalar> 
7846
(
0.00078409
-1.75208e-10
0.000784091
-2.2116e-10
0.000784091
-2.4852e-10
0.000784091
-2.70307e-10
0.000784091
-2.90498e-10
0.000784091
-3.10032e-10
0.000784091
-3.28905e-10
0.000784091
-3.4698e-10
0.000784091
-3.64125e-10
0.00078409
-3.8025e-10
0.00078409
-3.95307e-10
0.00078409
-4.09271e-10
0.00078409
-4.22135e-10
0.00078409
-4.33919e-10
0.00078409
-4.44673e-10
0.00078409
-4.54457e-10
0.00078409
-4.63329e-10
0.00078409
-4.71333e-10
0.00078409
-4.7848e-10
0.00078409
-4.84753e-10
0.00078409
-4.9011e-10
0.00078409
-4.94487e-10
0.00078409
-4.97814e-10
0.00078409
-5.00048e-10
0.00078409
-5.01202e-10
0.00078409
-5.01342e-10
0.00078409
-5.00581e-10
0.000784089
-4.99057e-10
0.000784089
-4.96911e-10
0.000784089
-4.94259e-10
0.000784089
-4.91172e-10
0.000784089
-4.87652e-10
0.000784089
-4.83619e-10
0.000784089
-4.78877e-10
0.000784089
-4.73076e-10
0.000784089
-4.65652e-10
0.000784089
-4.55744e-10
0.000784089
-4.42098e-10
0.000784089
-4.22876e-10
0.000784089
-3.95479e-10
0.000784089
-3.55927e-10
0.000784088
-2.98645e-10
0.000784088
-2.13152e-10
0.000784088
-8.45829e-11
0.000784088
1.22906e-10
0.000784088
3.46719e-10
0.000784088
4.97241e-10
0.000784088
5.91192e-10
0.000784088
6.50244e-10
0.000784088
6.85261e-10
0.000784088
7.04014e-10
0.000784088
7.11667e-10
0.000784088
7.11521e-10
0.000784088
7.05859e-10
0.000784088
6.96294e-10
0.000784088
6.83984e-10
0.000784088
6.69756e-10
0.000784088
6.54188e-10
0.000784088
6.37686e-10
0.000784088
6.20527e-10
0.000784088
6.02875e-10
0.000784088
5.84819e-10
0.000784088
5.66408e-10
0.000784088
5.47666e-10
0.000784088
5.28597e-10
0.000784088
5.09197e-10
0.000784088
4.89469e-10
0.000784088
4.69416e-10
0.000784088
4.49028e-10
0.000784088
4.28301e-10
0.000784088
4.07257e-10
0.000784088
3.85918e-10
0.000784088
3.64288e-10
0.000784088
3.42352e-10
0.000784088
3.20092e-10
0.000784088
2.97491e-10
0.000784088
2.7452e-10
0.000784088
2.51123e-10
0.000784088
2.27225e-10
0.000784088
2.0276e-10
0.000784088
1.77684e-10
0.000784088
1.51956e-10
0.000784089
1.25521e-10
0.000784089
9.83265e-11
0.000784089
7.03322e-11
0.000784089
4.15214e-11
0.000784089
1.19002e-11
0.000784089
-1.85162e-11
0.000784089
-4.97022e-11
0.000784089
-8.15972e-11
0.000784089
-1.14083e-10
0.000784089
-1.4697e-10
0.000784089
-1.79975e-10
0.000784089
-2.12689e-10
0.000784089
-2.44517e-10
0.00078409
-2.74587e-10
0.00078409
-3.01642e-10
0.00078409
-3.2386e-10
0.00078409
-3.38659e-10
0.00078409
-3.42041e-10
0.00078409
-3.28342e-10
0.00078409
-2.86908e-10
0.00078409
-2.02625e-10
0.00078409
-3.91838e-11
0.00078409
1.41065e-10
0.00078409
2.48531e-10
0.00078409
3.00335e-10
0.00078409
3.18602e-10
0.00078409
3.14606e-10
0.00078409
2.96477e-10
0.000784091
2.69685e-10
0.000784091
2.3782e-10
0.000784091
2.03465e-10
0.000784091
1.68537e-10
0.000784091
1.34518e-10
0.000784091
1.02506e-10
0.000784091
7.34701e-11
0.000784091
4.68306e-11
0.00078409
1.0909e-11
-7.85634e-11
0.000765992
-2.13752e-10
0.000765992
-2.65466e-10
0.000765992
-2.82627e-10
0.000765992
-2.91138e-10
0.000765992
-2.98655e-10
0.000765992
-3.06929e-10
0.000765992
-3.15956e-10
0.000765992
-3.25465e-10
0.000765992
-3.35174e-10
0.000765992
-3.44847e-10
0.000765992
-3.54315e-10
0.000765992
-3.63444e-10
0.000765992
-3.72133e-10
0.000765991
-3.80329e-10
0.000765991
-3.88014e-10
0.000765991
-3.95192e-10
0.000765991
-4.01867e-10
0.000765991
-4.08029e-10
0.000765991
-4.13642e-10
0.000765991
-4.18643e-10
0.000765991
-4.22944e-10
0.000765991
-4.26431e-10
0.000765991
-4.2898e-10
0.000765991
-4.3051e-10
0.000765991
-4.31006e-10
0.000765991
-4.30524e-10
0.000765991
-4.29171e-10
0.000765991
-4.27082e-10
0.00076599
-4.24398e-10
0.00076599
-4.21226e-10
0.00076599
-4.17627e-10
0.00076599
-4.13581e-10
0.00076599
-4.0897e-10
0.00076599
-4.03555e-10
0.00076599
-3.96945e-10
0.00076599
-3.88533e-10
0.00076599
-3.7742e-10
0.00076599
-3.62315e-10
0.00076599
-3.41374e-10
0.00076599
-3.12035e-10
0.00076599
-2.70514e-10
0.000765989
-2.1169e-10
0.000765989
-1.26695e-10
0.000765989
-5.43434e-12
0.000765989
1.73176e-10
0.000765989
3.67312e-10
0.000765989
5.11718e-10
0.000765989
6.08753e-10
0.000765989
6.71962e-10
0.000765989
7.10359e-10
0.000765989
7.31322e-10
0.000765989
7.40088e-10
0.000765989
7.40134e-10
0.000765989
7.33889e-10
0.000765989
7.23089e-10
0.000765989
7.08994e-10
0.000765989
6.92517e-10
0.000765989
6.74312e-10
0.000765989
6.54852e-10
0.000765989
6.34473e-10
0.000765989
6.13389e-10
0.000765989
5.91731e-10
0.000765989
5.69591e-10
0.000765989
5.47032e-10
0.000765989
5.24089e-10
0.000765989
5.0078e-10
0.000765989
4.77128e-10
0.000765989
4.53152e-10
0.000765989
4.28858e-10
0.000765989
4.04251e-10
0.000765989
3.7936e-10
0.000765989
3.54219e-10
0.000765989
3.2884e-10
0.000765989
3.03221e-10
0.000765989
2.77354e-10
0.000765989
2.51235e-10
0.000765989
2.24847e-10
0.000765989
1.98144e-10
0.000765989
1.71067e-10
0.000765989
1.43563e-10
0.000765989
1.15601e-10
0.00076599
8.71527e-11
0.00076599
5.81811e-11
0.00076599
2.86465e-11
0.00076599
-1.4753e-12
0.00076599
-3.21779e-11
0.00076599
-6.34274e-11
0.00076599
-9.51829e-11
0.00076599
-1.27394e-10
0.00076599
-1.59967e-10
0.00076599
-1.92745e-10
0.00076599
-2.255e-10
0.00076599
-2.57908e-10
0.00076599
-2.89517e-10
0.000765991
-3.19686e-10
0.000765991
-3.47511e-10
0.000765991
-3.71708e-10
0.000765991
-3.90467e-10
0.000765991
-4.0126e-10
0.000765991
-4.00285e-10
0.000765991
-3.82329e-10
0.000765991
-3.38331e-10
0.000765991
-2.57916e-10
0.000765991
-1.19542e-10
0.000765991
3.53212e-11
0.000765991
1.41631e-10
0.000765991
2.02199e-10
0.000765991
2.3111e-10
0.000765992
2.379e-10
0.000765992
2.30421e-10
0.000765992
2.14356e-10
0.000765992
1.9362e-10
0.000765992
1.71136e-10
0.000765992
1.49144e-10
0.000765992
1.29479e-10
0.000765992
1.13511e-10
0.000765992
1.02524e-10
0.000765992
9.49362e-11
0.000765992
6.80425e-11
-6.48127e-11
0.000748248
-2.53429e-10
0.000748248
-3.10295e-10
0.000748248
-3.16474e-10
0.000748248
-3.10883e-10
0.000748248
-3.04974e-10
0.000748248
-3.01322e-10
0.000748248
-2.99919e-10
0.000748248
-3.00336e-10
0.000748248
-3.02121e-10
0.000748248
-3.04889e-10
0.000748248
-3.08341e-10
0.000748248
-3.12233e-10
0.000748248
-3.16374e-10
0.000748248
-3.20635e-10
0.000748248
-3.24936e-10
0.000748248
-3.29221e-10
0.000748248
-3.33446e-10
0.000748248
-3.37549e-10
0.000748248
-3.41446e-10
0.000748248
-3.45026e-10
0.000748247
-3.48152e-10
0.000748247
-3.50651e-10
0.000748247
-3.52335e-10
0.000748247
-3.5308e-10
0.000748247
-3.52842e-10
0.000748247
-3.51666e-10
0.000748247
-3.4966e-10
0.000748247
-3.46961e-10
0.000748247
-3.43708e-10
0.000748247
-3.40014e-10
0.000748247
-3.35934e-10
0.000748247
-3.31439e-10
0.000748247
-3.26381e-10
0.000748246
-3.20492e-10
0.000748246
-3.13352e-10
0.000748246
-3.04333e-10
0.000748246
-2.92521e-10
0.000748246
-2.76628e-10
0.000748246
-2.54852e-10
0.000748246
-2.24755e-10
0.000748246
-1.82863e-10
0.000748246
-1.24696e-10
0.000748246
-4.31434e-11
0.000748246
6.8355e-11
0.000748246
2.21087e-10
0.000748246
3.87079e-10
0.000748246
5.20777e-10
0.000748246
6.17698e-10
0.000748246
6.84224e-10
0.000748245
7.26352e-10
0.000748245
7.50237e-10
0.000748245
7.60836e-10
0.000748245
7.61704e-10
0.000748245
7.55414e-10
0.000748245
7.43844e-10
0.000748245
7.28373e-10
0.000748245
7.10014e-10
0.000748245
6.89508e-10
0.000748245
6.67407e-10
0.000748245
6.4411e-10
0.000748245
6.1988e-10
0.000748245
5.94898e-10
0.000748245
5.69297e-10
0.000748245
5.43187e-10
0.000748245
5.16635e-10
0.000748245
4.89681e-10
0.000748245
4.62365e-10
0.000748245
4.34725e-10
0.000748245
4.06781e-10
0.000748245
3.78549e-10
0.000748245
3.50066e-10
0.000748245
3.21375e-10
0.000748246
2.92499e-10
0.000748246
2.63445e-10
0.000748246
2.34216e-10
0.000748246
2.0482e-10
0.000748246
1.75253e-10
0.000748246
1.45478e-10
0.000748246
1.15448e-10
0.000748246
8.51236e-11
0.000748246
5.44874e-11
0.000748246
2.3526e-11
0.000748246
-7.78245e-12
0.000748246
-3.9464e-11
0.000748246
-7.1528e-11
0.000748246
-1.03946e-10
0.000748246
-1.36661e-10
0.000748246
-1.69608e-10
0.000748246
-2.02714e-10
0.000748247
-2.35855e-10
0.000748247
-2.6884e-10
0.000748247
-3.01408e-10
0.000748247
-3.33208e-10
0.000748247
-3.63755e-10
0.000748247
-3.92386e-10
0.000748247
-4.18186e-10
0.000748247
-4.39892e-10
0.000748247
-4.55763e-10
0.000748247
-4.63412e-10
0.000748247
-4.5937e-10
0.000748247
-4.39062e-10
0.000748247
-3.95169e-10
0.000748247
-3.2082e-10
0.000748248
-2.04263e-10
0.000748248
-7.30313e-11
0.000748248
2.77035e-11
0.000748248
9.40031e-11
0.000748248
1.32877e-10
0.000748248
1.50946e-10
0.000748248
1.54954e-10
0.000748248
1.50431e-10
0.000748248
1.41525e-10
0.000748248
1.31485e-10
0.000748248
1.22893e-10
0.000748248
1.17947e-10
0.000748248
1.18294e-10
0.000748248
1.25519e-10
0.000748248
1.37144e-10
0.000748248
1.19994e-10
-5.40463e-11
0.000730858
-2.93402e-10
0.000730858
-3.54928e-10
0.000730858
-3.49682e-10
0.000730858
-3.2935e-10
0.000730858
-3.09278e-10
0.000730858
-2.92961e-10
0.000730858
-2.80451e-10
0.000730858
-2.71173e-10
0.000730858
-2.64499e-10
0.000730858
-2.59886e-10
0.000730858
-2.56892e-10
0.000730858
-2.55159e-10
0.000730858
-2.54405e-10
0.000730858
-2.54425e-10
0.000730858
-2.55072e-10
0.000730857
-2.56232e-10
0.000730857
-2.57811e-10
0.000730857
-2.597e-10
0.000730857
-2.61767e-10
0.000730857
-2.63848e-10
0.000730857
-2.65753e-10
0.000730857
-2.67239e-10
0.000730857
-2.68046e-10
0.000730857
-2.67995e-10
0.000730857
-2.67012e-10
0.000730857
-2.65136e-10
0.000730857
-2.62477e-10
0.000730856
-2.5918e-10
0.000730856
-2.55393e-10
0.000730856
-2.51236e-10
0.000730856
-2.46775e-10
0.000730856
-2.41974e-10
0.000730856
-2.36673e-10
0.000730856
-2.30581e-10
0.000730856
-2.23263e-10
0.000730856
-2.14085e-10
0.000730856
-2.02136e-10
0.000730856
-1.86158e-10
0.000730855
-1.64431e-10
0.000730855
-1.34688e-10
0.000730855
-9.38252e-11
0.000730855
-3.80456e-11
0.000730855
3.81457e-11
0.000730855
1.3884e-10
0.000730855
2.69328e-10
0.000730855
4.102e-10
0.000730855
5.29983e-10
0.000730855
6.22269e-10
0.000730855
6.89044e-10
0.000730855
7.33453e-10
0.000730855
7.59877e-10
0.000730855
7.72465e-10
0.000730855
7.74531e-10
0.000730855
7.68641e-10
0.000730855
7.5675e-10
0.000730855
7.40337e-10
0.000730855
7.20509e-10
0.000730855
6.98096e-10
0.000730855
6.73731e-10
0.000730855
6.47876e-10
0.000730855
6.2085e-10
0.000730855
5.92878e-10
0.000730855
5.64145e-10
0.000730855
5.34805e-10
0.000730855
5.0496e-10
0.000730855
4.74672e-10
0.000730855
4.43998e-10
0.000730855
4.12999e-10
0.000730855
3.81707e-10
0.000730855
3.50148e-10
0.000730855
3.18367e-10
0.000730855
2.86418e-10
0.000730855
2.54335e-10
0.000730855
2.22132e-10
0.000730855
1.89825e-10
0.000730855
1.57431e-10
0.000730855
1.24955e-10
0.000730855
9.23732e-11
0.000730855
5.96474e-11
0.000730855
2.67519e-11
0.000730855
-6.31822e-12
0.000730856
-3.95601e-11
0.000730856
-7.29798e-11
0.000730856
-1.0659e-10
0.000730856
-1.40387e-10
0.000730856
-1.74324e-10
0.000730856
-2.08321e-10
0.000730856
-2.42297e-10
0.000730856
-2.76154e-10
0.000730856
-3.09737e-10
0.000730856
-3.42827e-10
0.000730856
-3.75142e-10
0.000730856
-4.06307e-10
0.000730856
-4.35819e-10
0.000730856
-4.63004e-10
0.000730857
-4.86965e-10
0.000730857
-5.06488e-10
0.000730857
-5.1995e-10
0.000730857
-5.25166e-10
0.000730857
-5.19068e-10
0.000730857
-4.97779e-10
0.000730857
-4.55578e-10
0.000730857
-3.88034e-10
0.000730857
-2.89374e-10
0.000730857
-1.78501e-10
0.000730857
-8.63493e-11
0.000730857
-1.86709e-11
0.000730858
2.72442e-11
0.000730858
5.5271e-11
0.000730858
7.04909e-11
0.000730858
7.77502e-11
0.000730858
8.11037e-11
0.000730858
8.39735e-11
0.000730858
8.92177e-11
0.000730858
9.9368e-11
0.000730858
1.16337e-10
0.000730858
1.4201e-10
0.000730858
1.73155e-10
0.000730858
1.66926e-10
-4.5617e-11
0.000713818
-3.328e-10
0.000713818
-3.98349e-10
0.000713818
-3.81327e-10
0.000713818
-3.45806e-10
0.000713818
-3.10996e-10
0.000713818
-2.81378e-10
0.000713818
-2.57133e-10
0.000713818
-2.37578e-10
0.000713818
-2.21927e-10
0.000713817
-2.09473e-10
0.000713817
-1.99632e-10
0.000713817
-1.91923e-10
0.000713817
-1.8597e-10
0.000713817
-1.81491e-10
0.000713817
-1.78267e-10
0.000713817
-1.76125e-10
0.000713817
-1.74923e-10
0.000713817
-1.74508e-10
0.000713817
-1.74698e-10
0.000713817
-1.75275e-10
0.000713817
-1.75988e-10
0.000713817
-1.76512e-10
0.000713816
-1.76501e-10
0.000713816
-1.75711e-10
0.000713816
-1.74034e-10
0.000713816
-1.71505e-10
0.000713816
-1.68247e-10
0.000713816
-1.6442e-10
0.000713816
-1.60189e-10
0.000713816
-1.55692e-10
0.000713816
-1.51011e-10
0.000713816
-1.46118e-10
0.000713816
-1.40846e-10
0.000713815
-1.34893e-10
0.000713815
-1.27821e-10
0.000713815
-1.18996e-10
0.000713815
-1.07527e-10
0.000713815
-9.21984e-11
0.000713815
-7.13959e-11
0.000713815
-4.3046e-11
0.000713815
-4.42689e-12
0.000713815
4.76148e-11
0.000713815
1.17216e-10
0.000713815
2.06793e-10
0.000713814
3.18177e-10
0.000713814
4.37279e-10
0.000713814
5.42043e-10
0.000713814
6.26238e-10
0.000713814
6.89749e-10
0.000713814
7.33834e-10
0.000713814
7.61239e-10
0.000713814
7.75062e-10
0.000713814
7.78082e-10
0.000713814
7.72643e-10
0.000713814
7.60643e-10
0.000713814
7.43584e-10
0.000713814
7.22626e-10
0.000713814
6.98668e-10
0.000713814
6.72412e-10
0.000713814
6.44376e-10
0.000713814
6.14926e-10
0.000713814
5.84334e-10
0.000713814
5.52835e-10
0.000713814
5.20626e-10
0.000713814
4.87844e-10
0.000713814
4.54575e-10
0.000713815
4.20895e-10
0.000713815
3.86882e-10
0.000713815
3.52585e-10
0.000713815
3.18038e-10
0.000713815
2.83293e-10
0.000713815
2.48415e-10
0.000713815
2.13452e-10
0.000713815
1.78427e-10
0.000713815
1.43362e-10
0.000713815
1.08282e-10
0.000713815
7.32036e-11
0.000713815
3.81122e-11
0.000713815
2.97995e-12
0.000713815
-3.22082e-11
0.000713815
-6.74431e-11
0.000713815
-1.02705e-10
0.000713815
-1.37983e-10
0.000713815
-1.7328e-10
0.000713815
-2.08577e-10
0.000713815
-2.43812e-10
0.000713816
-2.78891e-10
0.000713816
-3.13715e-10
0.000713816
-3.48161e-10
0.000713816
-3.82046e-10
0.000713816
-4.15127e-10
0.000713816
-4.47105e-10
0.000713816
-4.7759e-10
0.000713816
-5.06068e-10
0.000713816
-5.3187e-10
0.000713816
-5.54136e-10
0.000713816
-5.71722e-10
0.000713816
-5.83158e-10
0.000713816
-5.86497e-10
0.000713816
-5.791e-10
0.000713816
-5.57759e-10
0.000713817
-5.181e-10
0.000713817
-4.57331e-10
0.000713817
-3.73125e-10
0.000713817
-2.78997e-10
0.000713817
-1.96321e-10
0.000713817
-1.30552e-10
0.000713817
-8.09709e-11
0.000713817
-4.54762e-11
0.000713817
-2.05094e-11
0.000713817
-2.15154e-12
0.000713817
1.32625e-11
0.000713818
2.91072e-11
0.000713818
4.83776e-11
0.000713818
7.38613e-11
0.000713818
1.0769e-10
0.000713818
1.52034e-10
0.000713818
2.03077e-10
0.000713818
2.09231e-10
-3.88528e-11
0.000697124
-3.7054e-10
0.000697124
-4.39329e-10
0.000697124
-4.10152e-10
0.000697124
-3.59085e-10
0.000697124
-3.09125e-10
0.000697124
-2.65743e-10
0.000697124
-2.29286e-10
0.000697124
-1.98997e-10
0.000697124
-1.73949e-10
0.000697124
-1.5328e-10
0.000697124
-1.36267e-10
0.000697124
-1.22306e-10
0.000697123
-1.10925e-10
0.000697123
-1.01759e-10
0.000697123
-9.4517e-11
0.000697123
-8.89662e-11
0.000697123
-8.49217e-11
0.000697123
-8.21832e-11
0.000697123
-8.05231e-11
0.000697123
-7.9666e-11
0.000697123
-7.92919e-11
0.000697123
-7.89819e-11
0.000697123
-7.8283e-11
0.000697122
-7.68768e-11
0.000697122
-7.46136e-11
0.000697122
-7.15327e-11
0.000697122
-6.77797e-11
0.000697122
-6.35414e-11
0.000697122
-5.90112e-11
0.000697122
-5.4357e-11
0.000697122
-4.9684e-11
0.000697122
-4.49803e-11
0.000697122
-4.0082e-11
0.000697121
-3.46859e-11
0.000697121
-2.83527e-11
0.000697121
-2.0459e-11
0.000697121
-1.01343e-11
0.000697121
3.78097e-12
0.000697121
2.27923e-11
0.000697121
4.87757e-11
0.000697121
8.40926e-11
0.000697121
1.31329e-10
0.000697121
1.93543e-10
0.000697121
2.72036e-10
0.000697121
3.6674e-10
0.00069712
4.67029e-10
0.00069712
5.57024e-10
0.00069712
6.31244e-10
0.00069712
6.88758e-10
0.00069712
7.29857e-10
0.00069712
7.56146e-10
0.00069712
7.69771e-10
0.00069712
7.72884e-10
0.00069712
7.67455e-10
0.00069712
7.55194e-10
0.00069712
7.37525e-10
0.00069712
7.15599e-10
0.000697121
6.90342e-10
0.000697121
6.6249e-10
0.000697121
6.32601e-10
0.000697121
6.01078e-10
0.000697121
5.68233e-10
0.000697121
5.34343e-10
0.000697121
4.99642e-10
0.000697121
4.643e-10
0.000697121
4.28425e-10
0.000697121
3.92116e-10
0.000697121
3.55466e-10
0.000697121
3.18536e-10
0.000697121
2.81369e-10
0.000697121
2.44024e-10
0.000697121
2.0658e-10
0.000697121
1.69097e-10
0.000697121
1.31607e-10
0.000697121
9.41348e-11
0.000697121
5.67128e-11
0.000697121
1.93655e-11
0.000697121
-1.79098e-11
0.000697121
-5.51326e-11
0.000697121
-9.23077e-11
0.000697121
-1.29411e-10
0.000697121
-1.66406e-10
0.000697121
-2.03267e-10
0.000697122
-2.39986e-10
0.000697122
-2.76532e-10
0.000697122
-3.12828e-10
0.000697122
-3.4877e-10
0.000697122
-3.84243e-10
0.000697122
-4.19101e-10
0.000697122
-4.53132e-10
0.000697122
-4.86074e-10
0.000697122
-5.17615e-10
0.000697122
-5.47355e-10
0.000697122
-5.74778e-10
0.000697122
-5.9923e-10
0.000697122
-6.19899e-10
0.000697122
-6.35734e-10
0.000697122
-6.45434e-10
0.000697123
-6.47309e-10
0.000697123
-6.3915e-10
0.000697123
-6.18357e-10
0.000697123
-5.8162e-10
0.000697123
-5.27229e-10
0.000697123
-4.54736e-10
0.000697123
-3.74144e-10
0.000697123
-3.00493e-10
0.000697123
-2.3836e-10
0.000697123
-1.87722e-10
0.000697123
-1.47322e-10
0.000697123
-1.14628e-10
0.000697124
-8.654e-11
0.000697124
-5.98852e-11
0.000697124
-3.14911e-11
0.000697124
1.63634e-12
0.000697124
4.24373e-11
0.000697124
9.31911e-11
0.000697124
1.56333e-10
0.000697124
2.2763e-10
0.000697124
2.47778e-10
-3.27565e-11
0.000680772
-4.05181e-10
0.000680772
-4.76378e-10
0.000680772
-4.34647e-10
0.000680772
-3.67738e-10
0.000680772
-3.02351e-10
0.000680772
-2.44925e-10
0.000680772
-1.95975e-10
0.000680772
-1.54678e-10
0.000680772
-1.19976e-10
0.000680772
-9.08657e-11
0.000680772
-6.64853e-11
0.000680772
-4.61152e-11
0.000680772
-2.91854e-11
0.000680772
-1.52465e-11
0.000680772
-3.93373e-12
0.000680772
5.04233e-12
0.000680771
1.1908e-11
0.000680771
1.69068e-11
0.000680771
2.03091e-11
0.000680771
2.24494e-11
0.000680771
2.37221e-11
0.000680771
2.46614e-11
0.000680771
2.58471e-11
0.000680771
2.76834e-11
0.000680771
3.03674e-11
0.000680771
3.38486e-11
0.00068077
3.79445e-11
0.00068077
4.24252e-11
0.00068077
4.70539e-11
0.00068077
5.16227e-11
0.00068077
5.59919e-11
0.00068077
6.01503e-11
0.00068077
6.4252e-11
0.00068077
6.85978e-11
0.00068077
7.36243e-11
0.000680769
7.99458e-11
0.000680769
8.84096e-11
0.000680769
1.00123e-10
0.000680769
1.16487e-10
0.000680769
1.39191e-10
0.000680769
1.70274e-10
0.000680769
2.11846e-10
0.000680769
2.66141e-10
0.000680769
3.3373e-10
0.000680769
4.13563e-10
0.000680769
4.97397e-10
0.000680769
5.73455e-10
0.000680769
6.37014e-10
0.000680769
6.8688e-10
0.000680769
7.2294e-10
0.000680769
7.46139e-10
0.000680769
7.57946e-10
0.000680769
7.59955e-10
0.000680769
7.53735e-10
0.000680769
7.40734e-10
0.000680769
7.22223e-10
0.000680769
6.99281e-10
0.000680769
6.72805e-10
0.000680769
6.43534e-10
0.000680769
6.12035e-10
0.000680769
5.78729e-10
0.000680769
5.43958e-10
0.000680769
5.08027e-10
0.000680769
4.712e-10
0.000680769
4.33672e-10
0.000680769
3.95575e-10
0.000680769
3.57022e-10
0.000680769
3.1812e-10
0.000680769
2.78945e-10
0.000680769
2.39545e-10
0.000680769
1.99986e-10
0.000680769
1.60358e-10
0.000680769
1.20735e-10
0.000680769
8.1158e-11
0.000680769
4.16506e-11
0.000680769
2.25024e-12
0.00068077
-3.70097e-11
0.00068077
-7.61227e-11
0.00068077
-1.151e-10
0.00068077
-1.53934e-10
0.00068077
-1.92588e-10
0.00068077
-2.31008e-10
0.00068077
-2.69159e-10
0.00068077
-3.0702e-10
0.00068077
-3.44549e-10
0.00068077
-3.81658e-10
0.00068077
-4.18231e-10
0.00068077
-4.54141e-10
0.00068077
-4.89217e-10
0.00068077
-5.23226e-10
0.00068077
-5.55886e-10
0.000680771
-5.86877e-10
0.000680771
-6.15791e-10
0.000680771
-6.42116e-10
0.000680771
-6.6522e-10
0.000680771
-6.84354e-10
0.000680771
-6.98562e-10
0.000680771
-7.06732e-10
0.000680771
-7.07432e-10
0.000680771
-6.98873e-10
0.000680771
-6.78989e-10
0.000680771
-6.45273e-10
0.000680771
-5.96707e-10
0.000680771
-5.33818e-10
0.000680771
-4.64179e-10
0.000680771
-3.98551e-10
0.000680772
-3.40609e-10
0.000680772
-2.90463e-10
0.000680772
-2.47129e-10
0.000680772
-2.08609e-10
0.000680772
-1.72356e-10
0.000680772
-1.35612e-10
0.000680772
-9.5444e-11
0.000680772
-4.89409e-11
0.000680772
6.9057e-12
0.000680772
7.44535e-11
0.000680772
1.56374e-10
0.000680772
2.48189e-10
0.000680772
2.83986e-10
-2.58722e-11
0.000664758
-4.34904e-10
0.000664758
-5.07723e-10
0.000664758
-4.53096e-10
0.000664758
-3.70137e-10
0.000664758
-2.89186e-10
0.000664758
-2.1762e-10
0.000664758
-1.56101e-10
0.000664758
-1.03735e-10
0.000664758
-5.93277e-11
0.000664758
-2.17345e-11
0.000664758
1.00347e-11
0.000664758
3.68146e-11
0.000664758
5.92734e-11
0.000664758
7.79451e-11
0.000664758
9.32643e-11
0.000664757
1.05574e-10
0.000664757
1.1514e-10
0.000664757
1.22243e-10
0.000664757
1.27191e-10
0.000664757
1.30376e-10
0.000664757
1.32275e-10
0.000664757
1.3356e-10
0.000664757
1.3496e-10
0.000664757
1.36977e-10
0.000664756
1.39863e-10
0.000664756
1.43546e-10
0.000664756
1.47785e-10
0.000664756
1.52288e-10
0.000664756
1.56757e-10
0.000664756
1.60932e-10
0.000664756
1.64627e-10
0.000664756
1.67803e-10
0.000664756
1.706e-10
0.000664756
1.73318e-10
0.000664755
1.76394e-10
0.000664755
1.80437e-10
0.000664755
1.86279e-10
0.000664755
1.94983e-10
0.000664755
2.07856e-10
0.000664755
2.26425e-10
0.000664755
2.52453e-10
0.000664755
2.87664e-10
0.000664755
3.33676e-10
0.000664755
3.90595e-10
0.000664755
4.56915e-10
0.000664755
5.26109e-10
0.000664755
5.89205e-10
0.000664755
6.42117e-10
0.000664755
6.83575e-10
0.000664755
7.1332e-10
0.000664755
7.31957e-10
0.000664755
7.40535e-10
0.000664755
7.40246e-10
0.000664755
7.32315e-10
0.000664755
7.17924e-10
0.000664755
6.9816e-10
0.000664755
6.73984e-10
0.000664755
6.46227e-10
0.000664755
6.1559e-10
0.000664755
5.82627e-10
0.000664755
5.47756e-10
0.000664755
5.11329e-10
0.000664755
4.73665e-10
0.000664755
4.35048e-10
0.000664755
3.95691e-10
0.000664755
3.5574e-10
0.000664755
3.1532e-10
0.000664755
2.7455e-10
0.000664755
2.33518e-10
0.000664755
1.92278e-10
0.000664755
1.50897e-10
0.000664755
1.09477e-10
0.000664755
6.81046e-11
0.000664755
2.68255e-11
0.000664755
-1.43358e-11
0.000664756
-5.53395e-11
0.000664756
-9.61448e-11
0.000664756
-1.36737e-10
0.000664756
-1.77118e-10
0.000664756
-2.17272e-10
0.000664756
-2.57145e-10
0.000664756
-2.96671e-10
0.000664756
-3.35806e-10
0.000664756
-3.74521e-10
0.000664756
-4.12761e-10
0.000664756
-4.50426e-10
0.000664756
-4.87391e-10
0.000664756
-5.23515e-10
0.000664756
-5.58609e-10
0.000664756
-5.92418e-10
0.000664756
-6.24646e-10
0.000664757
-6.54964e-10
0.000664757
-6.82958e-10
0.000664757
-7.08125e-10
0.000664757
-7.2986e-10
0.000664757
-7.47482e-10
0.000664757
-7.60134e-10
0.000664757
-7.66906e-10
0.000664757
-7.66618e-10
0.000664757
-7.57885e-10
0.000664757
-7.39103e-10
0.000664757
-7.08347e-10
0.000664757
-6.65018e-10
0.000664757
-6.10108e-10
0.000664757
-5.49433e-10
0.000664758
-4.90733e-10
0.000664758
-4.36881e-10
0.000664758
-3.87914e-10
0.000664758
-3.42857e-10
0.000664758
-2.99922e-10
0.000664758
-2.56852e-10
0.000664758
-2.11155e-10
0.000664758
-1.60089e-10
0.000664758
-1.00841e-10
0.000664758
-3.03812e-11
0.000664758
5.36766e-11
0.000664758
1.54217e-10
0.000664758
2.66699e-10
0.000664758
3.19774e-10
-1.63063e-11
0.000649077
-4.57606e-10
0.000649077
-5.31375e-10
0.000649077
-4.63639e-10
0.000649077
-3.64568e-10
0.000649077
-2.68089e-10
0.000649077
-1.82484e-10
0.000649077
-1.0854e-10
0.000649077
-4.5268e-11
0.000649077
8.67733e-12
0.000649077
5.45829e-11
0.000649076
9.35673e-11
0.000649076
1.26579e-10
0.000649076
1.54385e-10
0.000649076
1.77601e-10
0.000649076
1.96727e-10
0.000649076
2.12159e-10
0.000649076
2.24193e-10
0.000649076
2.33145e-10
0.000649076
2.39346e-10
0.000649076
2.43249e-10
0.000649075
2.45418e-10
0.000649075
2.46684e-10
0.000649075
2.47955e-10
0.000649075
2.49844e-10
0.000649075
2.52665e-10
0.000649075
2.56305e-10
0.000649075
2.60443e-10
0.000649075
2.64697e-10
0.000649074
2.68687e-10
0.000649074
2.72082e-10
0.000649074
2.74649e-10
0.000649074
2.76314e-10
0.000649074
2.77207e-10
0.000649074
2.77632e-10
0.000649074
2.78034e-10
0.000649074
2.79032e-10
0.000649074
2.81453e-10
0.000649074
2.8633e-10
0.000649073
2.94895e-10
0.000649073
3.08538e-10
0.000649073
3.28794e-10
0.000649073
3.57083e-10
0.000649073
3.94574e-10
0.000649073
4.41085e-10
0.000649073
4.94946e-10
0.000649073
5.5091e-10
0.000649073
6.0199e-10
0.000649073
6.44623e-10
0.000649073
6.77511e-10
0.000649073
7.00335e-10
0.000649073
7.13522e-10
0.000649073
7.17882e-10
0.000649073
7.14348e-10
0.000649073
7.0389e-10
0.000649073
6.87468e-10
0.000649073
6.6599e-10
0.000649073
6.4029e-10
0.000649073
6.11104e-10
0.000649073
5.79073e-10
0.000649073
5.44717e-10
0.000649073
5.08436e-10
0.000649073
4.70567e-10
0.000649074
4.31434e-10
0.000649074
3.91325e-10
0.000649074
3.50465e-10
0.000649074
3.09007e-10
0.000649074
2.67079e-10
0.000649074
2.24812e-10
0.000649074
1.82302e-10
0.000649074
1.39607e-10
0.000649074
9.67939e-11
0.000649074
5.39705e-11
0.000649074
1.12364e-11
0.000649074
-3.13609e-11
0.000649074
-7.37967e-11
0.000649074
-1.16029e-10
0.000649074
-1.58011e-10
0.000649074
-1.9972e-10
0.000649074
-2.41151e-10
0.000649074
-2.82277e-10
0.000649075
-3.23035e-10
0.000649075
-3.63347e-10
0.000649075
-4.0316e-10
0.000649075
-4.42438e-10
0.000649075
-4.81116e-10
0.000649075
-5.1908e-10
0.000649075
-5.56196e-10
0.000649075
-5.92309e-10
0.000649075
-6.27216e-10
0.000649075
-6.60645e-10
0.000649075
-6.92288e-10
0.000649075
-7.21805e-10
0.000649075
-7.48779e-10
0.000649075
-7.72716e-10
0.000649075
-7.93041e-10
0.000649076
-8.09143e-10
0.000649076
-8.20265e-10
0.000649076
-8.25709e-10
0.000649076
-8.24534e-10
0.000649076
-8.15753e-10
0.000649076
-7.98157e-10
0.000649076
-7.70214e-10
0.000649076
-7.31551e-10
0.000649076
-6.83359e-10
0.000649076
-6.30141e-10
0.000649076
-5.77376e-10
0.000649076
-5.27216e-10
0.000649076
-4.79552e-10
0.000649076
-4.33328e-10
0.000649077
-3.86802e-10
0.000649077
-3.37827e-10
0.000649077
-2.84041e-10
0.000649077
-2.22815e-10
0.000649077
-1.51414e-10
0.000649077
-6.68001e-11
0.000649077
3.34177e-11
0.000649077
1.52328e-10
0.000649077
2.85507e-10
0.000649077
3.57419e-10
-1.84718e-12
0.000633723
-4.71047e-10
0.000633723
-5.45254e-10
0.000633723
-4.6439e-10
0.000633723
-3.49354e-10
0.000633723
-2.37599e-10
0.000633723
-1.38282e-10
0.000633723
-5.22843e-11
0.000633723
2.15031e-11
0.000633723
8.45925e-11
0.000633723
1.38423e-10
0.000633722
1.84246e-10
0.000633722
2.23123e-10
0.000633722
2.55921e-10
0.000633722
2.83335e-10
0.000633722
3.05927e-10
0.000633722
3.24139e-10
0.000633722
3.38297e-10
0.000633722
3.48741e-10
0.000633722
3.55811e-10
0.000633721
3.60019e-10
0.000633721
3.62016e-10
0.000633721
3.62822e-10
0.000633721
3.63557e-10
0.000633721
3.64953e-10
0.000633721
3.67398e-10
0.000633721
3.70715e-10
0.000633721
3.74464e-10
0.000633721
3.78143e-10
0.00063372
3.8126e-10
0.00063372
3.83407e-10
0.00063372
3.84293e-10
0.00063372
3.83817e-10
0.00063372
3.82106e-10
0.00063372
3.79481e-10
0.00063372
3.76412e-10
0.00063372
3.73547e-10
0.00063372
3.71725e-10
0.000633719
3.71969e-10
0.000633719
3.75454e-10
0.000633719
3.8346e-10
0.000633719
3.97342e-10
0.000633719
4.18282e-10
0.000633719
4.47128e-10
0.000633719
4.83526e-10
0.000633719
5.25802e-10
0.000633719
5.69685e-10
0.000633719
6.09638e-10
0.000633719
6.42527e-10
0.000633719
6.67053e-10
0.000633719
6.82841e-10
0.000633719
6.9021e-10
0.000633719
6.89822e-10
0.000633719
6.82452e-10
0.000633719
6.68898e-10
0.000633719
6.49953e-10
0.000633719
6.2638e-10
0.000633719
5.98889e-10
0.000633719
5.6812e-10
0.000633719
5.34644e-10
0.000633719
4.98935e-10
0.00063372
4.61359e-10
0.00063372
4.22227e-10
0.00063372
3.8185e-10
0.00063372
3.40518e-10
0.00063372
2.98456e-10
0.00063372
2.55813e-10
0.00063372
2.12716e-10
0.00063372
1.69301e-10
0.00063372
1.25675e-10
0.00063372
8.18945e-11
0.00063372
3.80254e-11
0.00063372
-5.82203e-12
0.00063372
-4.95422e-11
0.00063372
-9.30861e-11
0.00063372
-1.36429e-10
0.00063372
-1.79524e-10
0.00063372
-2.22319e-10
0.00063372
-2.64788e-10
0.000633721
-3.06918e-10
0.000633721
-3.48678e-10
0.000633721
-3.89994e-10
0.000633721
-4.30777e-10
0.000633721
-4.70966e-10
0.000633721
-5.10523e-10
0.000633721
-5.49371e-10
0.000633721
-5.87383e-10
0.000633721
-6.24414e-10
0.000633721
-6.60296e-10
0.000633721
-6.94816e-10
0.000633721
-7.27689e-10
0.000633721
-7.58597e-10
0.000633721
-7.87189e-10
0.000633721
-8.13042e-10
0.000633722
-8.35671e-10
0.000633722
-8.54529e-10
0.000633722
-8.69079e-10
0.000633722
-8.7866e-10
0.000633722
-8.82794e-10
0.000633722
-8.80764e-10
0.000633722
-8.71985e-10
0.000633722
-8.55593e-10
0.000633722
-8.30278e-10
0.000633722
-7.95752e-10
0.000633722
-7.53286e-10
0.000633722
-7.06385e-10
0.000633722
-6.5871e-10
0.000633722
-6.11736e-10
0.000633722
-5.65171e-10
0.000633723
-5.17851e-10
0.000633723
-4.6802e-10
0.000633723
-4.13555e-10
0.000633723
-3.5214e-10
0.000633723
-2.81202e-10
0.000633723
-1.98054e-10
0.000633723
-9.96522e-11
0.000633723
1.63939e-11
0.000633723
1.53375e-10
0.000633723
3.07177e-10
0.000633723
3.99376e-10
1.98666e-11
0.000618691
-4.73039e-10
0.000618691
-5.47366e-10
0.000618691
-4.53591e-10
0.000618691
-3.22993e-10
0.000618691
-1.9647e-10
0.000618691
-8.40172e-11
0.000618691
1.34207e-11
0.000618691
9.71003e-11
0.000618691
1.68717e-10
0.00061869
2.29873e-10
0.00061869
2.81956e-10