/*--------------------------------*- C++ -*----------------------------------*\
  =========                 |
  \\      /  F ield         | OpenFOAM: The Open Source CFD Toolbox
   \\    /   O peration     | Website:  https://openfoam.org
    \\  /    A nd           | Version:  7
     \\/     M anipulation  |
\*---------------------------------------------------------------------------*/
FoamFile
{
    version     2.0;
    format      ascii;
    class       surfaceScalarField;
    location    "19500";
    object      phi;
}
// * * * * * * * * * * * * * * * * * * * * * * * * * * * * * * * * * * * * * //

dimensions      [0 3 -1 0 0 0 0];

internalField   nonuniform List<scalar> 
47680
(
2.0155e-06
-3.01371e-14
2.01551e-06
-6.51689e-12
2.01551e-06
-7.61799e-12
2.01552e-06
-4.59222e-12
2.01552e-06
-5.06332e-13
2.01552e-06
3.01226e-12
2.01551e-06
5.63433e-12
2.0155e-06
7.34133e-12
2.01549e-06
8.27845e-12
2.01549e-06
8.51675e-12
2.01548e-06
8.12622e-12
2.01547e-06
7.4565e-12
2.01546e-06
6.81188e-12
2.01546e-06
6.02281e-12
2.01545e-06
5.25843e-12
2.01545e-06
4.53333e-12
2.01544e-06
3.60719e-12
2.01544e-06
2.85948e-12
2.01544e-06
2.09984e-12
2.01544e-06
1.24172e-12
2.01544e-06
5.29764e-13
2.01544e-06
-9.96524e-14
2.01544e-06
-7.20881e-13
2.01544e-06
-1.39707e-12
2.01544e-06
-1.95566e-12
2.01544e-06
-2.2892e-12
2.01545e-06
-2.71303e-12
2.01545e-06
-3.18434e-12
2.01545e-06
-3.42697e-12
2.01546e-06
-3.64419e-12
2.01546e-06
-4.01432e-12
2.01547e-06
-4.2769e-12
2.01547e-06
-4.37949e-12
2.01547e-06
-4.49079e-12
2.01548e-06
-4.68652e-12
2.01548e-06
-4.80272e-12
2.01549e-06
-4.78415e-12
2.01549e-06
-4.86043e-12
2.0155e-06
-4.85399e-12
2.0155e-06
-4.89788e-12
2.01551e-06
-4.48994e-12
2.01551e-06
-4.00886e-12
2.01551e-06
-3.16306e-12
2.01552e-06
-2.28698e-12
2.01552e-06
-1.22736e-12
2.01552e-06
4.63816e-13
2.01552e-06
1.00393e-12
2.01552e-06
1.07017e-12
2.01551e-06
7.31724e-13
2.01551e-06
1.06692e-13
2.01551e-06
-2.97022e-13
2.01552e-06
-7.13231e-13
2.01552e-06
-1.04969e-12
2.01552e-06
-1.31493e-12
2.01552e-06
-1.50342e-12
2.01552e-06
-1.65843e-12
2.01552e-06
-1.69162e-12
2.01552e-06
-1.59042e-12
2.01553e-06
-1.36462e-12
2.01553e-06
-1.11867e-12
2.01553e-06
-8.18279e-13
2.01553e-06
-4.09718e-13
2.01553e-06
1.31179e-14
2.01553e-06
4.29323e-13
2.01553e-06
7.97266e-13
2.01553e-06
1.09358e-12
2.01552e-06
1.43453e-12
2.01552e-06
1.75448e-12
2.01552e-06
1.90692e-12
2.01552e-06
2.06202e-12
2.01552e-06
2.1186e-12
2.01551e-06
2.19752e-12
2.01551e-06
2.27287e-12
2.01551e-06
2.22203e-12
2.01551e-06
2.27963e-12
2.01551e-06
2.29785e-12
2.0155e-06
2.14457e-12
2.0155e-06
1.93834e-12
2.0155e-06
1.81148e-12
2.0155e-06
1.67865e-12
2.0155e-06
1.50323e-12
2.01549e-06
1.3995e-12
2.01549e-06
1.32844e-12
2.01549e-06
1.15298e-12
2.01549e-06
9.30009e-13
2.01549e-06
7.12221e-13
2.01549e-06
2.65443e-13
2.01549e-06
-8.4021e-14
2.01549e-06
-1.65499e-13
2.01549e-06
-1.61461e-13
2.01549e-06
-2.72812e-14
2.01549e-06
-5.41136e-15
2.01549e-06
-4.37275e-14
2.01549e-06
-1.39725e-13
2.01549e-06
-3.07215e-13
2.01549e-06
-4.12033e-13
2.01549e-06
-5.74072e-13
2.01549e-06
-6.99047e-13
2.01549e-06
-8.04156e-13
2.01549e-06
-7.07532e-13
2.0155e-06
-6.96082e-13
2.0155e-06
-2.31687e-13
2.0155e-06
1.3204e-13
2.01549e-06
9.07444e-13
2.01549e-06
2.0693e-12
2.01549e-06
2.16248e-12
2.01549e-06
1.94089e-12
2.01549e-06
1.27982e-12
2.01549e-06
4.35697e-13
2.01549e-06
-3.52407e-13
2.01549e-06
-1.04255e-12
2.01549e-06
-1.53463e-12
2.01549e-06
-1.96425e-12
2.01549e-06
-2.24487e-12
2.0155e-06
-2.44314e-12
2.0155e-06
-2.36993e-12
2.0155e-06
-1.76121e-12
2.0155e-06
-2.02696e-12
2.0155e-06
-3.42578e-13
3.20959e-12
6.22746e-06
-5.02254e-12
6.22748e-06
-2.59065e-11
6.2275e-06
-2.8158e-11
6.22751e-06
-1.57828e-11
6.22751e-06
1.57017e-13
6.2275e-06
1.37758e-11
6.22748e-06
2.37941e-11
6.22746e-06
3.02726e-11
6.22743e-06
3.37544e-11
6.22741e-06
3.44258e-11
6.22738e-06
3.27715e-11
6.22736e-06
3.01064e-11
6.22734e-06
2.73839e-11
6.22732e-06
2.42259e-11
6.22731e-06
2.11186e-11
6.22729e-06
1.80796e-11
6.22728e-06
1.44464e-11
6.22727e-06
1.13479e-11
6.22727e-06
8.27112e-12
6.22726e-06
4.91364e-12
6.22726e-06
2.01792e-12
6.22726e-06
-5.61379e-13
6.22726e-06
-3.09504e-12
6.22727e-06
-5.72208e-12
6.22727e-06
-7.89905e-12
6.22728e-06
-9.33388e-12
6.22729e-06
-1.10038e-11
6.2273e-06
-1.28159e-11
6.22731e-06
-1.38889e-11
6.22732e-06
-1.48057e-11
6.22733e-06
-1.61519e-11
6.22735e-06
-1.71542e-11
6.22736e-06
-1.76158e-11
6.22737e-06
-1.80796e-11
6.22739e-06
-1.87999e-11
6.2274e-06
-1.92559e-11
6.22742e-06
-1.92558e-11
6.22743e-06
-1.94984e-11
6.22745e-06
-1.95616e-11
6.22746e-06
-1.96519e-11
6.22747e-06
-1.82176e-11
6.22749e-06
-1.63375e-11
6.2275e-06
-1.33554e-11
6.2275e-06
-1.01404e-11
6.22751e-06
-6.08265e-12
6.22751e-06
-3.90255e-14
6.22751e-06
2.50763e-12
6.22751e-06
3.05536e-12
6.22751e-06
2.04635e-12
6.22751e-06
-6.84842e-15
6.22751e-06
-1.50596e-12
6.22751e-06
-3.00171e-12
6.22751e-06
-4.2563e-12
6.22752e-06
-5.22212e-12
6.22752e-06
-5.90001e-12
6.22753e-06
-6.40656e-12
6.22753e-06
-6.45499e-12
6.22753e-06
-5.98638e-12
6.22754e-06
-5.0727e-12
6.22754e-06
-4.03934e-12
6.22754e-06
-2.78298e-12
6.22754e-06
-1.15433e-12
6.22754e-06
5.35623e-13
6.22754e-06
2.17785e-12
6.22754e-06
3.64314e-12
6.22753e-06
4.86042e-12
6.22753e-06
6.18816e-12
6.22752e-06
7.40245e-12
6.22752e-06
8.04936e-12
6.22751e-06
8.61655e-12
6.2275e-06
8.86574e-12
6.2275e-06
9.16367e-12
6.22749e-06
9.42609e-12
6.22748e-06
9.2814e-12
6.22748e-06
9.41854e-12
6.22747e-06
9.42162e-12
6.22746e-06
8.85288e-12
6.22746e-06
8.06318e-12
6.22745e-06
7.51649e-12
6.22745e-06
7.00062e-12
6.22744e-06
6.35288e-12
6.22744e-06
5.91065e-12
6.22743e-06
5.58213e-12
6.22743e-06
4.89734e-12
6.22743e-06
4.03826e-12
6.22742e-06
3.06306e-12
6.22742e-06
1.38737e-12
6.22742e-06
1.3093e-13
6.22742e-06
-2.3958e-13
6.22742e-06
-2.45567e-13
6.22742e-06
1.72945e-13
6.22742e-06
2.54079e-13
6.22742e-06
9.60043e-14
6.22742e-06
-2.743e-13
6.22742e-06
-8.86322e-13
6.22742e-06
-1.36077e-12
6.22742e-06
-1.9997e-12
6.22743e-06
-2.56791e-12
6.22743e-06
-3.01619e-12
6.22743e-06
-2.8769e-12
6.22743e-06
-2.87651e-12
6.22743e-06
-1.45212e-12
6.22743e-06
-1.63947e-13
6.22743e-06
2.66136e-12
6.22743e-06
6.74979e-12
6.22742e-06
7.41574e-12
6.22742e-06
6.65024e-12
6.22741e-06
4.35205e-12
6.22741e-06
1.33022e-12
6.22741e-06
-1.56517e-12
6.22742e-06
-4.11938e-12
6.22742e-06
-6.01638e-12
6.22743e-06
-7.62392e-12
6.22743e-06
-8.73678e-12
6.22744e-06
-9.55124e-12
6.22745e-06
-9.32624e-12
6.22745e-06
-7.26746e-12
6.22746e-06
-8.04608e-12
6.22746e-06
-1.29998e-12
8.49307e-12
1.0724e-05
-2.06174e-11
1.07241e-05
-5.90098e-11
1.07241e-05
-5.91608e-11
1.07241e-05
-3.03574e-11
1.07241e-05
4.88185e-12
1.07241e-05
3.46405e-11
1.07241e-05
5.62929e-11
1.0724e-05
7.01851e-11
1.0724e-05
7.74682e-11
1.07239e-05
7.84082e-11
1.07239e-05
7.4452e-11
1.07238e-05
6.84227e-11
1.07238e-05
6.20528e-11
1.07238e-05
5.48855e-11
1.07238e-05
4.7766e-11
1.07237e-05
4.06846e-11
1.07237e-05
3.25461e-11
1.07237e-05
2.53977e-11
1.07237e-05
1.83795e-11
1.07237e-05
1.09034e-11
1.07237e-05
4.30551e-12
1.07237e-05
-1.63302e-12
1.07237e-05
-7.43528e-12
1.07237e-05
-1.32341e-11
1.07237e-05
-1.80452e-11
1.07237e-05
-2.14258e-11
1.07237e-05
-2.51715e-11
1.07237e-05
-2.91541e-11
1.07238e-05
-3.17259e-11
1.07238e-05
-3.38707e-11
1.07238e-05
-3.67009e-11
1.07238e-05
-3.88605e-11
1.07239e-05
-3.99739e-11
1.07239e-05
-4.106e-11
1.07239e-05
-4.25872e-11
1.07239e-05
-4.3601e-11
1.07239e-05
-4.36934e-11
1.0724e-05
-4.41842e-11
1.0724e-05
-4.44304e-11
1.0724e-05
-4.45449e-11
1.0724e-05
-4.15548e-11
1.07241e-05
-3.7458e-11
1.07241e-05
-3.14088e-11
1.07241e-05
-2.46573e-11
1.07241e-05
-1.59175e-11
1.07241e-05
-3.35071e-12
1.07241e-05
2.85065e-12
1.07241e-05
4.61192e-12
1.07241e-05
2.95774e-12
1.07241e-05
-9.16622e-13
1.07241e-05
-4.01185e-12
1.07241e-05
-7.10221e-12
1.07241e-05
-9.74653e-12
1.07241e-05
-1.17483e-11
1.07241e-05
-1.31208e-11
1.07241e-05
-1.4058e-11
1.07242e-05
-1.39918e-11
1.07242e-05
-1.28074e-11
1.07242e-05
-1.07043e-11
1.07242e-05
-8.28042e-12
1.07242e-05
-5.34156e-12
1.07242e-05
-1.65613e-12
1.07242e-05
2.15239e-12
1.07242e-05
5.81887e-12
1.07242e-05
9.1141e-12
1.07242e-05
1.19081e-11
1.07241e-05
1.48441e-11
1.07241e-05
1.74781e-11
1.07241e-05
1.89643e-11
1.07241e-05
2.01695e-11
1.07241e-05
2.07551e-11
1.07241e-05
2.13972e-11
1.07241e-05
2.19365e-11
1.07241e-05
2.16749e-11
1.0724e-05
2.18401e-11
1.0724e-05
2.17176e-11
1.0724e-05
2.04913e-11
1.0724e-05
1.87648e-11
1.0724e-05
1.74756e-11
1.0724e-05
1.63402e-11
1.0724e-05
1.49619e-11
1.0724e-05
1.39244e-11
1.0724e-05
1.31063e-11
1.0724e-05
1.1582e-11
1.0724e-05
9.67553e-12
1.0724e-05
7.31152e-12
1.0724e-05
3.70176e-12
1.0724e-05
1.12922e-12
1.0724e-05
2.60466e-13
1.0724e-05
1.84647e-13
1.07239e-05
9.43688e-13
1.07239e-05
1.08604e-12
1.07239e-05
7.15722e-13
1.07239e-05
-9.01821e-14
1.07239e-05
-1.39305e-12
1.07239e-05
-2.53822e-12
1.0724e-05
-3.99546e-12
1.0724e-05
-5.37497e-12
1.0724e-05
-6.48277e-12
1.0724e-05
-6.54432e-12
1.0724e-05
-6.72485e-12
1.0724e-05
-4.1909e-12
1.0724e-05
-1.64032e-12
1.0724e-05
4.22885e-12
1.0724e-05
1.25919e-11
1.0724e-05
1.43887e-11
1.07239e-05
1.29328e-11
1.07239e-05
8.3277e-12
1.07239e-05
2.14925e-12
1.07239e-05
-3.88935e-12
1.0724e-05
-9.2788e-12
1.0724e-05
-1.33893e-11
1.0724e-05
-1.68262e-11
1.0724e-05
-1.93053e-11
1.0724e-05
-2.11702e-11
1.0724e-05
-2.08022e-11
1.0724e-05
-1.67254e-11
1.0724e-05
-1.80242e-11
1.0724e-05
-2.98858e-12
1.15431e-11
1.55009e-05
-5.31931e-11
1.55009e-05
-1.06562e-10
1.5501e-05
-9.70685e-11
1.5501e-05
-4.38818e-11
1.5501e-05
1.73392e-11
1.55009e-05
6.82676e-11
1.55009e-05
1.04915e-10
1.55008e-05
1.28214e-10
1.55008e-05
1.4004e-10
1.55007e-05
1.40615e-10
1.55007e-05
1.33153e-10
1.55006e-05
1.22392e-10
1.55005e-05
1.10777e-10
1.55005e-05
9.79229e-11
1.55005e-05
8.50053e-11
1.55004e-05
7.20642e-11
1.55004e-05
5.7614e-11
1.55004e-05
4.46933e-11
1.55004e-05
3.20902e-11
1.55004e-05
1.8917e-11
1.55004e-05
7.11102e-12
1.55004e-05
-3.64857e-12
1.55004e-05
-1.41098e-11
1.55004e-05
-2.42074e-11
1.55004e-05
-3.25847e-11
1.55004e-05
-3.87911e-11
1.55004e-05
-4.54468e-11
1.55005e-05
-5.23892e-11
1.55005e-05
-5.71621e-11
1.55005e-05
-6.1086e-11
1.55005e-05
-6.58155e-11
1.55006e-05
-6.94654e-11
1.55006e-05
-7.15422e-11
1.55006e-05
-7.36018e-11
1.55007e-05
-7.61826e-11
1.55007e-05
-7.79043e-11
1.55007e-05
-7.81844e-11
1.55008e-05
-7.9042e-11
1.55008e-05
-7.95873e-11
1.55008e-05
-7.96876e-11
1.55009e-05
-7.46286e-11
1.55009e-05
-6.76692e-11
1.55009e-05
-5.79951e-11
1.5501e-05
-4.67772e-11
1.5501e-05
-3.19821e-11
1.5501e-05
-1.11234e-11
1.5501e-05
3.50328e-13
1.5501e-05
4.30384e-12
1.5501e-05
2.38153e-12
1.5501e-05
-3.30398e-12
1.5501e-05
-8.23908e-12
1.5501e-05
-1.32761e-11
1.5501e-05
-1.76379e-11
1.5501e-05
-2.08808e-11
1.5501e-05
-2.30331e-11
1.5501e-05
-2.43463e-11
1.5501e-05
-2.38944e-11
1.55011e-05
-2.15493e-11
1.55011e-05
-1.77157e-11
1.55011e-05
-1.32439e-11
1.55011e-05
-7.82979e-12
1.55011e-05
-1.22778e-12
1.55011e-05
5.52891e-12
1.55011e-05
1.19795e-11
1.55011e-05
1.78176e-11
1.5501e-05
2.28472e-11
1.5501e-05
2.79745e-11
1.5501e-05
3.24876e-11
1.5501e-05
3.51165e-11
1.5501e-05
3.71569e-11
1.5501e-05
3.82136e-11
1.55009e-05
3.9314e-11
1.55009e-05
4.01991e-11
1.55009e-05
3.97891e-11
1.55009e-05
3.98679e-11
1.55009e-05
3.94285e-11
1.55009e-05
3.73062e-11
1.55008e-05
3.43127e-11
1.55008e-05
3.19602e-11
1.55008e-05
3.00024e-11
1.55008e-05
2.76659e-11
1.55008e-05
2.5764e-11
1.55008e-05
2.41864e-11
1.55008e-05
2.14856e-11
1.55008e-05
1.81144e-11
1.55008e-05
1.36574e-11
1.55007e-05
7.51253e-12
1.55007e-05
3.41271e-12
1.55007e-05
1.857e-12
1.55007e-05
1.59369e-12
1.55007e-05
2.66319e-12
1.55007e-05
2.80504e-12
1.55007e-05
2.10911e-12
1.55007e-05
7.26873e-13
1.55007e-05
-1.49578e-12
1.55007e-05
-3.63346e-12
1.55007e-05
-6.28856e-12
1.55007e-05
-8.88366e-12
1.55007e-05
-1.10613e-11
1.55008e-05
-1.17244e-11
1.55008e-05
-1.2449e-11
1.55008e-05
-8.94472e-12
1.55008e-05
-5.05369e-12
1.55008e-05
4.57978e-12
1.55008e-05
1.81761e-11
1.55008e-05
2.15282e-11
1.55007e-05
1.94228e-11
1.55007e-05
1.21507e-11
1.55007e-05
2.22744e-12
1.55007e-05
-7.64172e-12
1.55008e-05
-1.65915e-11
1.55008e-05
-2.35623e-11
1.55008e-05
-2.93612e-11
1.55008e-05
-3.37013e-11
1.55008e-05
-3.70569e-11
1.55008e-05
-3.66186e-11
1.55008e-05
-3.01523e-11
1.55009e-05
-3.18423e-11
1.55009e-05
-5.35244e-12
7.8034e-12
2.05011e-05
-1.07781e-10
2.05011e-05
-1.66845e-10
2.05012e-05
-1.36359e-10
2.05012e-05
-5.10759e-11
2.05012e-05
4.08866e-11
2.05011e-05
1.16261e-10
2.0501e-05
1.69941e-10
2.0501e-05
2.03782e-10
2.05009e-05
2.20275e-10
2.05008e-05
2.19437e-10
2.05007e-05
2.07346e-10
2.05007e-05
1.91006e-10
2.05006e-05
1.72642e-10
2.05006e-05
1.52213e-10
2.05005e-05
1.31763e-10
2.05005e-05
1.11211e-10
2.05004e-05
8.87873e-11
2.05004e-05
6.85081e-11
2.05004e-05
4.87962e-11
2.05004e-05
2.85059e-11
2.05004e-05
1.01158e-11
2.05004e-05
-6.87683e-12
2.05004e-05
-2.33115e-11
2.05004e-05
-3.86254e-11
2.05004e-05
-5.13539e-11
2.05005e-05
-6.12564e-11
2.05005e-05
-7.16205e-11
2.05005e-05
-8.22354e-11
2.05005e-05
-8.98885e-11
2.05006e-05
-9.61087e-11
2.05006e-05
-1.03039e-10
2.05007e-05
-1.08418e-10
2.05007e-05
-1.11785e-10
2.05007e-05
-1.15215e-10
2.05008e-05
-1.19047e-10
2.05008e-05
-1.21596e-10
2.05009e-05
-1.22524e-10
2.05009e-05
-1.23946e-10
2.0501e-05
-1.24574e-10
2.0501e-05
-1.24557e-10
2.0501e-05
-1.16954e-10
2.05011e-05
-1.06787e-10
2.05011e-05
-9.33266e-11
2.05011e-05
-7.69205e-11
2.05012e-05
-5.50098e-11
2.05012e-05
-2.45021e-11
2.05012e-05
-6.32396e-12
2.05012e-05
8.8597e-13
2.05012e-05
-6.25524e-13
2.05012e-05
-7.73737e-12
2.05012e-05
-1.45012e-11
2.05012e-05
-2.16564e-11
2.05012e-05
-2.78954e-11
2.05012e-05
-3.24217e-11
2.05012e-05
-3.53081e-11
2.05013e-05
-3.68076e-11
2.05013e-05
-3.55602e-11
2.05013e-05
-3.15479e-11
2.05013e-05
-2.5451e-11
2.05013e-05
-1.82672e-11
2.05013e-05
-9.565e-12
2.05013e-05
7.73072e-13
2.05013e-05
1.12085e-11
2.05013e-05
2.10903e-11
2.05013e-05
3.01121e-11
2.05013e-05
3.79839e-11
2.05012e-05
4.58012e-11
2.05012e-05
5.25419e-11
2.05012e-05
5.65397e-11
2.05012e-05
5.9572e-11
2.05011e-05
6.12297e-11
2.05011e-05
6.28975e-11
2.05011e-05
6.41758e-11
2.05011e-05
6.356e-11
2.05011e-05
6.33811e-11
2.0501e-05
6.23683e-11
2.0501e-05
5.91272e-11
2.0501e-05
5.45843e-11
2.0501e-05
5.09092e-11
2.0501e-05
4.7999e-11
2.05009e-05
4.45016e-11
2.05009e-05
4.14621e-11
2.05009e-05
3.8839e-11
2.05009e-05
3.46258e-11
2.05009e-05
2.93778e-11
2.05009e-05
2.2127e-11
2.05009e-05
1.30969e-11
2.05009e-05
7.49715e-12
2.05009e-05
5.02697e-12
2.05009e-05
4.38189e-12
2.05009e-05
5.6404e-12
2.05009e-05
5.63741e-12
2.05008e-05
4.48441e-12
2.05008e-05
2.41144e-12
2.05008e-05
-9.51843e-13
2.05008e-05
-4.41934e-12
2.05008e-05
-8.67124e-12
2.05009e-05
-1.29017e-11
2.05009e-05
-1.66214e-11
2.05009e-05
-1.84127e-11
2.05009e-05
-2.02072e-11
2.05009e-05
-1.60918e-11
2.05009e-05
-1.10048e-11
2.05009e-05
2.8631e-12
2.05009e-05
2.21731e-11
2.05009e-05
2.7264e-11
2.05009e-05
2.47659e-11
2.05009e-05
1.48127e-11
2.05009e-05
9.8253e-13
2.05009e-05
-1.30124e-11
2.05009e-05
-2.59625e-11
2.05009e-05
-3.62273e-11
2.05009e-05
-4.47758e-11
2.05009e-05
-5.14315e-11
2.0501e-05
-5.67092e-11
2.0501e-05
-5.62751e-11
2.0501e-05
-4.72005e-11
2.0501e-05
-4.91313e-11
2.0501e-05
-8.01966e-12
-6.95751e-12
2.55805e-05
-1.8267e-10
2.55806e-05
-2.33133e-10
2.55806e-05
-1.70727e-10
2.55806e-05
-4.85828e-11
2.55806e-05
7.63832e-11
2.55805e-05
1.77026e-10
2.55805e-05
2.48139e-10
2.55804e-05
2.92773e-10
2.55803e-05
3.13504e-10
2.55802e-05
3.11293e-10
2.55801e-05
2.94164e-10
2.558e-05
2.70762e-10
2.55799e-05
2.44325e-10
2.55799e-05
2.14887e-10
2.55798e-05
1.85648e-10
2.55798e-05
1.56102e-10
2.55797e-05
1.24485e-10
2.55797e-05
9.56607e-11
2.55797e-05
6.76713e-11
2.55797e-05
3.92165e-11
2.55797e-05
1.31832e-11
2.55797e-05
-1.12343e-11
2.55797e-05
-3.46805e-11
2.55797e-05
-5.57388e-11
2.55797e-05
-7.34024e-11
2.55798e-05
-8.78118e-11
2.55798e-05
-1.0256e-10
2.55798e-05
-1.17416e-10
2.55799e-05
-1.28527e-10
2.55799e-05
-1.37441e-10
2.558e-05
-1.46728e-10
2.558e-05
-1.54009e-10
2.55801e-05
-1.59037e-10
2.55801e-05
-1.64206e-10
2.55802e-05
-1.69409e-10
2.55802e-05
-1.72973e-10
2.55803e-05
-1.75085e-10
2.55803e-05
-1.7725e-10
2.55804e-05
-1.77742e-10
2.55804e-05
-1.77515e-10
2.55805e-05
-1.68165e-10
2.55805e-05
-1.54988e-10
2.55806e-05
-1.36788e-10
2.55806e-05
-1.14523e-10
2.55806e-05
-8.47617e-11
2.55806e-05
-4.36705e-11
2.55807e-05
-1.76983e-11
2.55807e-05
-6.27873e-12
2.55807e-05
-6.48448e-12
2.55807e-05
-1.4366e-11
2.55807e-05
-2.27743e-11
2.55807e-05
-3.20406e-11
2.55807e-05
-4.01278e-11
2.55807e-05
-4.58084e-11
2.55807e-05
-4.92794e-11
2.55807e-05
-5.0675e-11
2.55808e-05
-4.81455e-11
2.55808e-05
-4.2015e-11
2.55808e-05
-3.32458e-11
2.55808e-05
-2.27708e-11
2.55808e-05
-1.00554e-11
2.55808e-05
4.66288e-12
2.55808e-05
1.92645e-11
2.55808e-05
3.30047e-11
2.55807e-05
4.5699e-11
2.55807e-05
5.68799e-11
2.55807e-05
6.77237e-11
2.55807e-05
7.68772e-11
2.55807e-05
8.23671e-11
2.55806e-05
8.65118e-11
2.55806e-05
8.8913e-11
2.55806e-05
9.12693e-11
2.55805e-05
9.29583e-11
2.55805e-05
9.20418e-11
2.55805e-05
9.14009e-11
2.55805e-05
8.95506e-11
2.55804e-05
8.50464e-11
2.55804e-05
7.87722e-11
2.55804e-05
7.36626e-11
2.55804e-05
6.9792e-11
2.55803e-05
6.49349e-11
2.55803e-05
6.04966e-11
2.55803e-05
5.65625e-11
2.55803e-05
5.05416e-11
2.55803e-05
4.30479e-11
2.55803e-05
3.36154e-11
2.55803e-05
2.1869e-11
2.55802e-05
1.38456e-11
2.55802e-05
1.00299e-11
2.55802e-05
8.72565e-12
2.55802e-05
9.95584e-12
2.55802e-05
9.58485e-12
2.55802e-05
7.85218e-12
2.55802e-05
5.00772e-12
2.55802e-05
2.76619e-13
2.55802e-05
-4.85594e-12
2.55802e-05
-1.10754e-11
2.55802e-05
-1.7326e-11
2.55802e-05
-2.30636e-11
2.55802e-05
-2.6561e-11
2.55803e-05
-3.00105e-11
2.55803e-05
-2.57347e-11
2.55803e-05
-1.97083e-11
2.55803e-05
-2.51406e-12
2.55803e-05
2.23749e-11
2.55803e-05
3.03069e-11
2.55803e-05
2.80301e-11
2.55803e-05
1.57413e-11
2.55803e-05
-1.72513e-12
2.55803e-05
-1.97674e-11
2.55803e-05
-3.68718e-11
2.55803e-05
-5.06178e-11
2.55803e-05
-6.21686e-11
2.55803e-05
-7.15758e-11
2.55804e-05
-7.91731e-11
2.55804e-05
-7.87441e-11
2.55804e-05
-6.69855e-11
2.55804e-05
-6.90226e-11
2.55804e-05
-1.0594e-11
-3.37824e-11
3.05437e-05
-2.65662e-10
3.05437e-05
-2.9673e-10
3.05437e-05
-1.95682e-10
3.05437e-05
-3.59115e-11
3.05437e-05
1.20916e-10
3.05436e-05
2.45417e-10
3.05435e-05
3.33162e-10
3.05434e-05
3.88158e-10
3.05433e-05
4.12368e-10
3.05432e-05
4.08983e-10
3.05431e-05
3.87151e-10
3.05431e-05
3.55799e-10
3.0543e-05
3.20968e-10
3.05429e-05
2.82166e-10
3.05429e-05
2.43371e-10
3.05428e-05
2.04322e-10
3.05428e-05
1.62994e-10
3.05427e-05
1.24745e-10
3.05427e-05
8.7846e-11
3.05427e-05
5.09897e-11
3.05427e-05
1.66848e-11
3.05427e-05
-1.62816e-11
3.05427e-05
-4.73057e-11
3.05427e-05
-7.41156e-11
3.05428e-05
-9.71433e-11
3.05428e-05
-1.1678e-10
3.05428e-05
-1.3636e-10
3.05429e-05
-1.55839e-10
3.05429e-05
-1.70825e-10
3.0543e-05
-1.82632e-10
3.0543e-05
-1.94288e-10
3.05431e-05
-2.03642e-10
3.05431e-05
-2.10782e-10
3.05432e-05
-2.18036e-10
3.05432e-05
-2.24906e-10
3.05433e-05
-2.29777e-10
3.05433e-05
-2.33092e-10
3.05434e-05
-2.35992e-10
3.05435e-05
-2.36739e-10
3.05435e-05
-2.36425e-10
3.05436e-05
-2.25818e-10
3.05436e-05
-2.10278e-10
3.05437e-05
-1.86861e-10
3.05437e-05
-1.58391e-10
3.05438e-05
-1.20358e-10
3.05438e-05
-6.81267e-11
3.05438e-05
-3.39967e-11
3.05438e-05
-1.73864e-11
3.05438e-05
-1.49877e-11
3.05438e-05
-2.31644e-11
3.05438e-05
-3.29999e-11
3.05438e-05
-4.39258e-11
3.05439e-05
-5.36399e-11
3.05439e-05
-6.01958e-11
3.05439e-05
-6.40526e-11
3.05439e-05
-6.49894e-11
3.05439e-05
-6.06942e-11
3.05439e-05
-5.21923e-11
3.05439e-05
-4.05537e-11
3.05439e-05
-2.63433e-11
3.05439e-05
-8.80196e-12
3.05439e-05
1.06303e-11
3.05439e-05
2.92501e-11
3.05439e-05
4.69945e-11
3.05439e-05
6.36583e-11
3.05439e-05
7.84065e-11
3.05438e-05
9.23899e-11
3.05438e-05
1.03951e-10
3.05438e-05
1.10963e-10
3.05438e-05
1.16326e-10
3.05437e-05
1.19924e-10
3.05437e-05
1.23101e-10
3.05437e-05
1.24891e-10
3.05436e-05
1.23536e-10
3.05436e-05
1.22233e-10
3.05436e-05
1.1934e-10
3.05435e-05
1.13573e-10
3.05435e-05
1.0581e-10
3.05435e-05
9.93827e-11
3.05435e-05
9.43885e-11
3.05434e-05
8.79174e-11
3.05434e-05
8.18623e-11
3.05434e-05
7.64143e-11
3.05434e-05
6.86426e-11
3.05434e-05
5.86979e-11
3.05433e-05
4.75091e-11
3.05433e-05
3.33789e-11
3.05433e-05
2.23281e-11
3.05433e-05
1.68373e-11
3.05433e-05
1.45288e-11
3.05433e-05
1.54281e-11
3.05433e-05
1.46898e-11
3.05433e-05
1.2314e-11
3.05433e-05
8.36542e-12
3.05433e-05
1.99826e-12
3.05433e-05
-5.10535e-12
3.05433e-05
-1.35874e-11
3.05433e-05
-2.21614e-11
3.05433e-05
-3.03463e-11
3.05433e-05
-3.6098e-11
3.05433e-05
-4.17263e-11
3.05433e-05
-3.79559e-11
3.05434e-05
-3.13071e-11
3.05434e-05
-1.13685e-11
3.05434e-05
1.85399e-11
3.05434e-05
3.00528e-11
3.05434e-05
2.8912e-11
3.05434e-05
1.49412e-11
3.05434e-05
-5.80108e-12
3.05434e-05
-2.75477e-11
3.05434e-05
-4.81728e-11
3.05434e-05
-6.53422e-11
3.05434e-05
-8.03458e-11
3.05434e-05
-9.29624e-11
3.05435e-05
-1.03181e-10
3.05435e-05
-1.02591e-10
3.05435e-05
-8.82497e-11
3.05435e-05
-9.02482e-11
3.05435e-05
-1.38951e-11
-6.74479e-11
3.52424e-05
-3.39308e-10
3.52424e-05
-3.4975e-10
3.52425e-05
-2.10081e-10
3.52424e-05
-1.50266e-11
3.52424e-05
1.69992e-10
3.52423e-05
3.15491e-10
3.52422e-05
4.18421e-10
3.52421e-05
4.82788e-10
3.5242e-05
5.09444e-10
3.5242e-05
5.04977e-10
3.52419e-05
4.79172e-10
3.52418e-05
4.40548e-10
3.52417e-05
3.97972e-10
3.52416e-05
3.50099e-10
3.52416e-05
3.01737e-10
3.52415e-05
2.5329e-10
3.52415e-05
2.02315e-10
3.52415e-05
1.54839e-10
3.52414e-05
1.09054e-10
3.52414e-05
6.35006e-11
3.52414e-05
2.05083e-11
3.52414e-05
-2.12425e-11
3.52414e-05
-5.97288e-11
3.52415e-05
-9.23007e-11
3.52415e-05
-1.2116e-10
3.52415e-05
-1.46636e-10
3.52415e-05
-1.712e-10
3.52416e-05
-1.95036e-10
3.52416e-05
-2.14139e-10
3.52417e-05
-2.29295e-10
3.52417e-05
-2.43238e-10
3.52418e-05
-2.54926e-10
3.52418e-05
-2.64729e-10
3.52419e-05
-2.74334e-10
3.52419e-05
-2.83e-10
3.5242e-05
-2.89504e-10
3.52421e-05
-2.94086e-10
3.52421e-05
-2.9812e-10
3.52422e-05
-2.9956e-10
3.52422e-05
-2.98888e-10
3.52423e-05
-2.8661e-10
3.52424e-05
-2.69205e-10
3.52424e-05
-2.41691e-10
3.52425e-05
-2.07201e-10
3.52425e-05
-1.60716e-10
3.52425e-05
-9.70991e-11
3.52426e-05
-5.48503e-11
3.52426e-05
-3.22414e-11
3.52426e-05
-2.60622e-11
3.52426e-05
-3.42162e-11
3.52426e-05
-4.46906e-11
3.52426e-05
-5.67105e-11
3.52426e-05
-6.77744e-11
3.52426e-05
-7.47879e-11
3.52427e-05
-7.88214e-11
3.52427e-05
-7.88608e-11
3.52427e-05
-7.23541e-11
3.52427e-05
-6.15005e-11
3.52427e-05
-4.64771e-11
3.52427e-05
-2.8127e-11
3.52427e-05
-5.69505e-12
3.52427e-05
1.82844e-11
3.52427e-05
4.05058e-11
3.52427e-05
6.23034e-11
3.52426e-05
8.30651e-11
3.52426e-05
1.01412e-10
3.52426e-05
1.18424e-10
3.52426e-05
1.32222e-10
3.52425e-05
1.40729e-10
3.52425e-05
1.47447e-10
3.52425e-05
1.52668e-10
3.52424e-05
1.56636e-10
3.52424e-05
1.58208e-10
3.52424e-05
1.56355e-10
3.52423e-05
1.54198e-10
3.52423e-05
1.50151e-10
3.52423e-05
1.43317e-10
3.52423e-05
1.34867e-10
3.52422e-05
1.27349e-10
3.52422e-05
1.20696e-10
3.52422e-05
1.12336e-10
3.52422e-05
1.04528e-10
3.52421e-05
9.74559e-11
3.52421e-05
8.80059e-11
3.52421e-05
7.54933e-11
3.52421e-05
6.22483e-11
3.52421e-05
4.64098e-11
3.52421e-05
3.28368e-11
3.52421e-05
2.52283e-11
3.5242e-05
2.15302e-11
3.5242e-05
2.1788e-11
3.5242e-05
2.06153e-11
3.5242e-05
1.74958e-11
3.5242e-05
1.21639e-11
3.5242e-05
3.9274e-12
3.5242e-05
-5.4177e-12
3.5242e-05
-1.6368e-11
3.5242e-05
-2.74889e-11
3.5242e-05
-3.85124e-11
3.5242e-05
-4.70063e-11
3.52421e-05
-5.5235e-11
3.52421e-05
-5.24311e-11
3.52421e-05
-4.53938e-11
3.52421e-05
-2.28112e-11
3.52421e-05
1.17823e-11
3.52421e-05
2.65585e-11
3.52421e-05
2.71258e-11
3.52421e-05
1.26533e-11
3.52421e-05
-1.07e-11
3.52421e-05
-3.5538e-11
3.52421e-05
-5.90179e-11
3.52422e-05
-7.95999e-11
3.52422e-05
-9.84288e-11
3.52422e-05
-1.14628e-10
3.52422e-05
-1.27089e-10
3.52422e-05
-1.25922e-10
3.52423e-05
-1.09826e-10
3.52423e-05
-1.11671e-10
3.52423e-05
-1.95777e-11
-9.9522e-11
3.96273e-05
-3.90939e-10
3.96274e-05
-3.85276e-10
3.96274e-05
-2.13458e-10
3.96273e-05
1.12842e-11
3.96273e-05
2.20039e-10
3.96272e-05
3.83604e-10
3.96271e-05
4.99188e-10
3.9627e-05
5.71246e-10
3.9627e-05
5.99621e-10
3.96269e-05
5.94521e-10
3.96268e-05
5.65578e-10
3.96267e-05
5.21186e-10
3.96266e-05
4.71932e-10
3.96266e-05
4.15544e-10
3.96265e-05
3.583e-10
3.96265e-05
3.00853e-10
3.96264e-05
2.40663e-10
3.96264e-05
1.84642e-10
3.96264e-05
1.30368e-10
3.96263e-05
7.59932e-11
3.96263e-05
2.47773e-11
3.96263e-05
-2.55562e-11
3.96264e-05
-7.15372e-11
3.96264e-05
-1.09472e-10
3.96264e-05
-1.4404e-10
3.96264e-05
-1.75806e-10
3.96265e-05
-2.05822e-10
3.96265e-05
-2.33796e-10
3.96265e-05
-2.5663e-10
3.96266e-05
-2.75217e-10
3.96266e-05
-2.91852e-10
3.96267e-05
-3.06359e-10
3.96267e-05
-3.19452e-10
3.96268e-05
-3.31506e-10
3.96269e-05
-3.41761e-10
3.96269e-05
-3.49558e-10
3.9627e-05
-3.55649e-10
3.9627e-05
-3.61829e-10
3.96271e-05
-3.64095e-10
3.96272e-05
-3.62786e-10
3.96272e-05
-3.49569e-10
3.96273e-05
-3.30755e-10
3.96274e-05
-2.99327e-10
3.96274e-05
-2.59019e-10
3.96275e-05
-2.04041e-10
3.96275e-05
-1.29767e-10
3.96275e-05
-7.96684e-11
3.96275e-05
-5.03682e-11
3.96275e-05
-3.96621e-11
3.96276e-05
-4.69582e-11
3.96276e-05
-5.78627e-11
3.96276e-05
-7.06866e-11
3.96276e-05
-8.21374e-11
3.96276e-05
-8.90147e-11
3.96276e-05
-9.23369e-11
3.96276e-05
-9.08653e-11
3.96276e-05
-8.24617e-11
3.96277e-05
-6.95457e-11
3.96277e-05
-5.07025e-11
3.96277e-05
-2.79351e-11
3.96277e-05
-8.51362e-13
3.96276e-05
2.78361e-11
3.96276e-05
5.32809e-11
3.96276e-05
7.85937e-11
3.96276e-05
1.03429e-10
3.96276e-05
1.25199e-10
3.96275e-05
1.44937e-10
3.96275e-05
1.60685e-10
3.96275e-05
1.70658e-10
3.96275e-05
1.78927e-10
3.96274e-05
1.85263e-10
3.96274e-05
1.89655e-10
3.96274e-05
1.91575e-10
3.96273e-05
1.89339e-10
3.96273e-05
1.86101e-10
3.96273e-05
1.80901e-10
3.96272e-05
1.73443e-10
3.96272e-05
1.64847e-10
3.96272e-05
1.56213e-10
3.96271e-05
1.47686e-10
3.96271e-05
1.37343e-10
3.96271e-05
1.27747e-10
3.96271e-05
1.19025e-10
3.96271e-05
1.07786e-10
3.9627e-05
9.32422e-11
3.9627e-05
7.81574e-11
3.9627e-05
6.05162e-11
3.9627e-05
4.46715e-11
3.9627e-05
3.47633e-11
3.9627e-05
2.94425e-11
3.9627e-05
2.88174e-11
3.9627e-05
2.69373e-11
3.9627e-05
2.28705e-11
3.9627e-05
1.60733e-11
3.9627e-05
5.8023e-12
3.9627e-05
-6.03008e-12
3.9627e-05
-1.95746e-11
3.9627e-05
-3.34287e-11
3.9627e-05
-4.77011e-11
3.9627e-05
-5.93783e-11
3.9627e-05
-7.05328e-11
3.9627e-05
-6.87666e-11
3.9627e-05
-6.14183e-11
3.9627e-05
-3.71003e-11
3.96271e-05
2.18157e-12
3.96271e-05
2.0668e-11
3.96271e-05
2.25322e-11
3.96271e-05
8.51677e-12
3.96271e-05
-1.59097e-11
3.96271e-05
-4.29624e-11
3.96271e-05
-6.90434e-11
3.96271e-05
-9.32899e-11
3.96271e-05
-1.16067e-10
3.96271e-05
-1.35302e-10
3.96272e-05
-1.49409e-10
3.96272e-05
-1.47897e-10
3.96272e-05
-1.31123e-10
3.96272e-05
-1.31954e-10
3.96272e-05
-2.78234e-11
-1.24356e-10
4.37206e-05
-4.16093e-10
4.37206e-05
-3.98613e-10
4.37206e-05
-2.04379e-10
4.37206e-05
4.23583e-11
4.37205e-05
2.69733e-10
4.37205e-05
4.4789e-10
4.37204e-05
5.73261e-10
4.37203e-05
6.50781e-10
4.37202e-05
6.80471e-10
4.37201e-05
6.75147e-10
4.37201e-05
6.43739e-10
4.372e-05
5.94783e-10
4.37199e-05
5.40019e-10
4.37199e-05
4.76523e-10
4.37198e-05
4.11404e-10
4.37198e-05
3.45602e-10
4.37197e-05
2.76889e-10
4.37197e-05
2.12856e-10
4.37197e-05
1.50557e-10
4.37197e-05
8.77663e-11
4.37197e-05
2.88953e-11
4.37197e-05
-2.93119e-11
4.37197e-05
-8.2234e-11
4.37197e-05
-1.2524e-10
4.37197e-05
-1.64932e-10
4.37197e-05
-2.03463e-10
4.37198e-05
-2.397e-10
4.37198e-05
-2.70835e-10
4.37198e-05
-2.97349e-10
4.37199e-05
-3.19941e-10
4.37199e-05
-3.3933e-10
4.372e-05
-3.5637e-10
4.372e-05
-3.73392e-10
4.37201e-05
-3.88575e-10
4.37202e-05
-4.00114e-10
4.37202e-05
-4.09137e-10
4.37203e-05
-4.17188e-10
4.37203e-05
-4.25101e-10
4.37204e-05
-4.27849e-10
4.37205e-05
-4.26844e-10
4.37205e-05
-4.1369e-10
4.37206e-05
-3.93847e-10
4.37207e-05
-3.58234e-10
4.37207e-05
-3.12291e-10
4.37208e-05
-2.49748e-10
4.37208e-05
-1.65727e-10
4.37208e-05
-1.07312e-10
4.37208e-05
-7.1236e-11
4.37209e-05
-5.55115e-11
4.37209e-05
-6.08321e-11
4.37209e-05
-7.215e-11
4.37209e-05
-8.53601e-11
4.37209e-05
-9.62998e-11
4.37209e-05
-1.02454e-10
4.37209e-05
-1.0431e-10
4.37209e-05
-1.00749e-10
4.3721e-05
-9.07659e-11
4.3721e-05
-7.60543e-11
4.3721e-05
-5.30793e-11
4.3721e-05
-2.49276e-11
4.3721e-05
6.82556e-12
4.37209e-05
3.91701e-11
4.37209e-05
6.70875e-11
4.37209e-05
9.57497e-11
4.37209e-05
1.24711e-10
4.37209e-05
1.49494e-10
4.37208e-05
1.71501e-10
4.37208e-05
1.88847e-10
4.37208e-05
2.00322e-10
4.37208e-05
2.10342e-10
4.37207e-05
2.17304e-10
4.37207e-05
2.21691e-10
4.37207e-05
2.23561e-10
4.37206e-05
2.20893e-10
4.37206e-05
2.17157e-10
4.37206e-05
2.11007e-10
4.37205e-05
2.03631e-10
4.37205e-05
1.95014e-10
4.37205e-05
1.84826e-10
4.37204e-05
1.74586e-10
4.37204e-05
1.62379e-10
4.37204e-05
1.51053e-10
4.37204e-05
1.40701e-10
4.37204e-05
1.27625e-10
4.37203e-05
1.11458e-10
4.37203e-05
9.47821e-11
4.37203e-05
7.50323e-11
4.37203e-05
5.70008e-11
4.37203e-05
4.49982e-11
4.37203e-05
3.80166e-11
4.37203e-05
3.63515e-11
4.37203e-05
3.35259e-11
4.37203e-05
2.82542e-11
4.37203e-05
1.98779e-11
4.37203e-05
7.40906e-12
4.37203e-05
-7.15519e-12
4.37203e-05
-2.33381e-11
4.37203e-05
-4.01355e-11
4.37203e-05
-5.81509e-11
4.37203e-05
-7.34102e-11
4.37203e-05
-8.77126e-11
4.37203e-05
-8.68915e-11
4.37203e-05
-7.92898e-11
4.37204e-05
-5.36894e-11
4.37204e-05
-1.01538e-11
4.37204e-05
1.22618e-11
4.37204e-05
1.58448e-11
4.37204e-05
3.21499e-12
4.37204e-05
-2.10942e-11
4.37204e-05
-4.95988e-11
4.37204e-05
-7.80924e-11
4.37204e-05
-1.06497e-10
4.37204e-05
-1.33173e-10
4.37205e-05
-1.54747e-10
4.37205e-05
-1.7018e-10
4.37205e-05
-1.68564e-10
4.37205e-05
-1.51083e-10
4.37205e-05
-1.50052e-10
4.37206e-05
-3.83908e-11
-1.4021e-10
4.75726e-05
-4.1552e-10
4.75726e-05
-3.88408e-10
4.75726e-05
-1.80994e-10
4.75725e-05
7.88755e-11
4.75725e-05
3.19289e-10
4.75724e-05
5.07913e-10
4.75724e-05
6.40191e-10
4.75723e-05
7.20488e-10
4.75722e-05
7.5122e-10
4.75722e-05
7.46201e-10
4.75721e-05
7.12698e-10