/*--------------------------------*- C++ -*----------------------------------*\
  =========                 |
  \\      /  F ield         | OpenFOAM: The Open Source CFD Toolbox
   \\    /   O peration     | Website:  https://openfoam.org
    \\  /    A nd           | Version:  7
     \\/     M anipulation  |
\*---------------------------------------------------------------------------*/
FoamFile
{
    version     2.0;
    format      ascii;
    class       volVectorField;
    location    "19500";
    object      U;
}
// * * * * * * * * * * * * * * * * * * * * * * * * * * * * * * * * * * * * * //

dimensions      [0 1 -1 0 0 0 0];

internalField   nonuniform List<vector> 
24000
(
(0.00398202 5.95301e-11 8.25006e-16)
(0.00398203 -9.09243e-11 8.22122e-16)
(0.00398205 -1.18226e-10 8.25645e-16)
(0.00398206 -8.25558e-11 7.63002e-16)
(0.00398206 -2.80129e-11 4.7496e-16)
(0.00398206 1.83664e-11 7.38863e-16)
(0.00398205 5.47681e-11 4.83021e-16)
(0.00398204 7.8545e-11 7.60039e-16)
(0.00398202 9.21708e-11 8.04911e-16)
(0.00398201 9.80983e-11 4.87429e-16)
(0.00398199 9.4004e-11 7.73897e-16)
(0.00398197 8.53698e-11 7.8133e-16)
(0.00398196 8.00507e-11 7.8417e-16)
(0.00398195 7.00085e-11 7.59219e-16)
(0.00398194 6.13019e-11 7.32803e-16)
(0.00398193 5.48709e-11 7.76133e-16)
(0.00398192 4.19228e-11 7.64175e-16)
(0.00398191 3.49576e-11 7.64774e-16)
(0.00398191 2.62573e-11 7.38072e-16)
(0.0039819 1.46152e-11 6.89514e-16)
(0.0039819 7.08028e-12 7.6059e-16)
(0.0039819 1.87452e-13 7.11803e-16)
(0.0039819 -6.50571e-12 7.38074e-16)
(0.0039819 -1.57287e-11 7.11572e-16)
(0.00398191 -2.32253e-11 6.63128e-16)
(0.00398191 -2.54288e-11 7.47496e-16)
(0.00398192 -3.10694e-11 7.08406e-16)
(0.00398192 -3.79284e-11 7.36328e-16)
(0.00398193 -3.9092e-11 7.09639e-16)
(0.00398194 -4.10004e-11 6.73517e-16)
(0.00398194 -4.75611e-11 7.60051e-16)
(0.00398195 -5.10616e-11 7.3559e-16)
(0.00398196 -5.14542e-11 7.50808e-16)
(0.00398197 -5.26036e-11 7.22377e-16)
(0.00398198 -5.58959e-11 6.5225e-16)
(0.00398199 -5.74129e-11 7.51621e-16)
(0.003982 -5.57895e-11 7.21783e-16)
(0.00398201 -5.83795e-11 7.3027e-16)
(0.00398202 -5.6045e-11 6.91701e-16)
(0.00398203 -5.87785e-11 6.39635e-16)
(0.00398203 -4.98591e-11 6.81397e-16)
(0.00398204 -4.47578e-11 9.44868e-16)
(0.00398205 -2.87158e-11 7.50414e-16)
(0.00398206 -1.44961e-11 7.51791e-16)
(0.00398206 -1.27392e-12 7.6317e-16)
(0.00398206 3.12902e-11 7.72277e-16)
(0.00398206 2.92263e-11 9.11993e-16)
(0.00398206 2.74138e-11 7.94193e-16)
(0.00398205 1.89633e-11 7.84195e-16)
(0.00398205 5.28576e-12 7.89326e-16)
(0.00398205 1.69209e-13 7.955e-16)
(0.00398205 -7.35236e-12 9.23557e-16)
(0.00398206 -1.21043e-11 8.02353e-16)
(0.00398206 -1.65082e-11 1.00132e-15)
(0.00398206 -1.94462e-11 7.23146e-16)
(0.00398206 -2.27749e-11 8.03791e-16)
(0.00398207 -2.39533e-11 1.01415e-15)
(0.00398207 -2.34913e-11 8.13887e-16)
(0.00398207 -2.06557e-11 1.08496e-15)
(0.00398208 -1.83485e-11 7.73084e-16)
(0.00398208 -1.54298e-11 8.24607e-16)
(0.00398208 -1.02293e-11 1.05821e-15)
(0.00398208 -5.22366e-12 8.34639e-16)
(0.00398208 6.1724e-14 9.85666e-16)
(0.00398208 4.56424e-12 7.85868e-16)
(0.00398208 7.54288e-12 8.45255e-16)
(0.00398207 1.21205e-11 1.04515e-15)
(0.00398207 1.69732e-11 8.45584e-16)
(0.00398207 1.7778e-11 1.00869e-15)
(0.00398206 2.07061e-11 8.11463e-16)
(0.00398206 2.07517e-11 8.5153e-16)
(0.00398206 2.19744e-11 1.04418e-15)
(0.00398205 2.36007e-11 8.56626e-16)
(0.00398205 2.17195e-11 1.05586e-15)
(0.00398204 2.39621e-11 8.14182e-16)
(0.00398204 2.49642e-11 8.62619e-16)
(0.00398203 2.23157e-11 1.03806e-15)
(0.00398203 1.93066e-11 8.62164e-16)
(0.00398203 1.8542e-11 1.05249e-15)
(0.00398202 1.67294e-11 8.11199e-16)
(0.00398202 1.37844e-11 6.9713e-16)
(0.00398202 1.30478e-11 7.537e-16)
(0.00398201 1.27729e-11 8.62161e-16)
(0.00398201 1.03767e-11 6.79481e-16)
(0.00398201 6.92671e-12 7.66853e-16)
(0.00398201 6.15431e-12 6.30636e-16)
(0.00398201 -1.05285e-12 7.79101e-16)
(0.00398201 -7.0114e-12 8.36495e-16)
(0.00398201 -6.77452e-12 5.68305e-16)
(0.00398201 -6.84313e-12 7.64543e-16)
(0.00398201 -3.29796e-12 6.11232e-16)
(0.00398201 -3.40333e-12 7.16675e-16)
(0.00398201 -3.78674e-12 8.30575e-16)
(0.00398201 -5.01736e-12 6.28746e-16)
(0.00398201 -8.12587e-12 7.25071e-16)
(0.00398201 -8.20244e-12 5.88087e-16)
(0.00398201 -1.07797e-11 7.49706e-16)
(0.00398201 -1.09138e-11 8.27653e-16)
(0.00398201 -1.26143e-11 5.54486e-16)
(0.00398201 -7.18619e-12 7.08563e-16)
(0.00398201 -8.05594e-12 5.7434e-16)
(0.00398202 4.5023e-12 7.32755e-16)
(0.00398202 1.0034e-11 8.224e-16)
(0.00398202 2.23664e-11 6.47809e-16)
(0.00398201 4.53029e-11 7.62649e-16)
(0.00398201 3.95174e-11 6.40563e-16)
(0.003982 3.66398e-11 7.454e-16)
(0.003982 2.36164e-11 8.24159e-16)
(0.003982 9.26419e-12 6.43844e-16)
(0.003982 -2.98894e-12 7.56862e-16)
(0.003982 -1.38641e-11 6.31097e-16)
(0.003982 -2.00664e-11 6.15325e-16)
(0.00398201 -2.68187e-11 8.17312e-16)
(0.00398201 -3.00301e-11 6.55722e-16)
(0.00398201 -3.19215e-11 7.51449e-16)
(0.00398202 -3.06765e-11 6.35293e-16)
(0.00398202 -1.74228e-11 5.89406e-16)
(0.00398203 -2.36664e-11 8.18991e-16)
(0.00398203 -9.78409e-12 5.86424e-16)
(0.00398203 9.71767e-11 7.36108e-16)
(0.0120195 -7.09197e-11 2.49526e-15)
(0.0120195 -1.33191e-09 2.48465e-15)
(0.0120196 -1.53244e-09 2.49632e-15)
(0.0120196 -9.07058e-10 2.31165e-15)
(0.0120196 -7.55048e-11 1.67653e-15)
(0.0120196 6.38954e-10 2.2442e-15)
(0.0120196 1.16911e-09 1.85997e-15)
(0.0120196 1.51369e-09 2.30774e-15)
(0.0120195 1.70195e-09 2.43341e-15)
(0.0120195 1.74684e-09 1.5911e-15)
(0.0120194 1.66535e-09 2.34903e-15)
(0.0120194 1.52872e-09 2.3615e-15)
(0.0120193 1.39445e-09 2.37191e-15)
(0.0120193 1.2329e-09 2.29583e-15)
(0.0120192 1.07627e-09 2.21254e-15)
(0.0120192 9.25632e-10 2.34232e-15)
(0.0120192 7.37589e-10 2.30955e-15)
(0.0120192 5.83062e-10 2.3136e-15)
(0.0120192 4.2705e-10 2.23183e-15)
(0.0120192 2.52595e-10 2.07364e-15)
(0.0120191 1.0624e-10 2.29768e-15)
(0.0120191 -2.30692e-11 2.14599e-15)
(0.0120191 -1.50956e-10 2.23111e-15)
(0.0120192 -2.88348e-10 2.151e-15)
(0.0120192 -4.01578e-10 2.00879e-15)
(0.0120192 -4.71257e-10 2.25879e-15)
(0.0120192 -5.5775e-10 2.14051e-15)
(0.0120192 -6.53001e-10 2.22409e-15)
(0.0120192 -7.03843e-10 2.13835e-15)
(0.0120192 -7.4908e-10 2.03469e-15)
(0.0120193 -8.23075e-10 2.30815e-15)
(0.0120193 -8.76203e-10 2.21144e-15)
(0.0120193 -8.97755e-10 2.26912e-15)
(0.0120193 -9.20702e-10 2.19025e-15)
(0.0120194 -9.60006e-10 1.97867e-15)
(0.0120194 -9.83511e-10 2.26948e-15)
(0.0120194 -9.81308e-10 2.18189e-15)
(0.0120195 -9.95531e-10 2.21091e-15)
(0.0120195 -9.95801e-10 2.08804e-15)
(0.0120195 -1.00232e-09 1.92671e-15)
(0.0120195 -9.21973e-10 2.06146e-15)
(0.0120196 -8.22391e-10 2.24202e-15)
(0.0120196 -6.53367e-10 2.26362e-15)
(0.0120196 -4.77185e-10 2.27512e-15)
(0.0120196 -2.59445e-10 2.30891e-15)
(0.0120196 7.56189e-11 2.33601e-15)
(0.0120196 1.91635e-10 2.39866e-15)
(0.0120196 2.06456e-10 2.39582e-15)
(0.0120196 1.39982e-10 2.37245e-15)
(0.0120196 1.73467e-11 2.38721e-15)
(0.0120196 -6.48848e-11 2.40604e-15)
(0.0120196 -1.47889e-10 2.44202e-15)
(0.0120196 -2.15975e-10 2.42114e-15)
(0.0120196 -2.69046e-10 2.55901e-15)
(0.0120196 -3.06951e-10 2.13429e-15)
(0.0120196 -3.37243e-10 2.43443e-15)
(0.0120197 -3.43057e-10 2.49167e-15)
(0.0120197 -3.21389e-10 2.4563e-15)
(0.0120197 -2.75137e-10 2.59375e-15)
(0.0120197 -2.24162e-10 2.42896e-15)
(0.0120197 -1.61862e-10 2.49913e-15)
(0.0120197 -7.83352e-11 2.57944e-15)
(0.0120197 8.29913e-12 2.51733e-15)
(0.0120197 9.31557e-11 2.59769e-15)
(0.0120197 1.68265e-10 2.29007e-15)
(0.0120197 2.29373e-10 2.55899e-15)
(0.0120197 2.9883e-10 2.59208e-15)
(0.0120197 3.63176e-10 2.55144e-15)
(0.0120196 3.95099e-10 2.63179e-15)
(0.0120196 4.25818e-10 2.46895e-15)
(0.0120196 4.37817e-10 2.58031e-15)
(0.0120196 4.53796e-10 2.68191e-15)
(0.0120196 4.68419e-10 2.58291e-15)
(0.0120196 4.59109e-10 2.62904e-15)
(0.0120196 4.69674e-10 2.36542e-15)
(0.0120196 4.72456e-10 2.61388e-15)
(0.0120195 4.41436e-10 2.68434e-15)
(0.0120195 3.99648e-10 2.59879e-15)
(0.0120195 3.73251e-10 2.71291e-15)
(0.0120195 3.46224e-10 2.54168e-15)
(0.0120195 3.11056e-10 2.47446e-15)
(0.0120195 2.89493e-10 2.43998e-15)
(0.0120195 2.74413e-10 2.60666e-15)
(0.0120195 2.38462e-10 2.40385e-15)
(0.0120195 1.93494e-10 2.4043e-15)
(0.0120195 1.47374e-10 2.32415e-15)
(0.0120195 5.72897e-11 2.26407e-15)
(0.0120195 -1.24853e-11 2.53563e-15)
(0.0120195 -2.98731e-11 2.31207e-15)
(0.0120195 -2.86707e-11 2.35384e-15)
(0.0120195 -2.84012e-12 2.26691e-15)
(0.0120195 1.69992e-12 2.09085e-15)
(0.0120195 -6.33613e-12 2.50553e-15)
(0.0120195 -2.6078e-11 2.30455e-15)
(0.0120195 -5.94362e-11 2.31553e-15)
(0.0120195 -8.1901e-11 2.33413e-15)
(0.0120195 -1.14546e-10 2.35889e-15)
(0.0120195 -1.41327e-10 2.5071e-15)
(0.0120195 -1.62117e-10 2.28043e-15)
(0.0120195 -1.46002e-10 2.07921e-15)
(0.0120195 -1.42277e-10 2.21018e-15)
(0.0120195 -5.27323e-11 2.28143e-15)
(0.0120195 2.09416e-11 2.48848e-15)
(0.0120195 1.78037e-10 2.30512e-15)
(0.0120195 4.07298e-10 2.35193e-15)
(0.0120195 4.30956e-10 2.29867e-15)
(0.0120195 3.8494e-10 2.27478e-15)
(0.0120194 2.53213e-10 2.48859e-15)
(0.0120194 8.39427e-11 2.31104e-15)
(0.0120194 -7.48376e-11 2.35231e-15)
(0.0120194 -2.13576e-10 2.29092e-15)
(0.0120195 -3.13796e-10 2.23713e-15)
(0.0120195 -4.00157e-10 2.47678e-15)
(0.0120195 -4.57444e-10 2.33488e-15)
(0.0120195 -4.98187e-10 2.35714e-15)
(0.0120195 -4.82479e-10 2.30787e-15)
(0.0120195 -3.6307e-10 2.22373e-15)
(0.0120195 -4.14836e-10 2.48324e-15)
(0.0120195 -5.81055e-11 2.33643e-15)
(0.0120195 6.08241e-10 2.09211e-15)
(0.0202204 -9.71169e-10 4.22559e-15)
(0.0202204 -3.91289e-09 4.17948e-15)
(0.0202205 -4.14357e-09 4.20334e-15)
(0.0202206 -2.25789e-09 3.8837e-15)
(0.0202206 1.28901e-10 3.59291e-15)
(0.0202205 2.15809e-09 3.83456e-15)
(0.0202205 3.64412e-09 3.60892e-15)
(0.0202204 4.60195e-09 3.9422e-15)
(0.0202203 5.11195e-09 4.09149e-15)
(0.0202203 5.19957e-09 3.70802e-15)
(0.0202202 4.94439e-09 4.01822e-15)
(0.0202201 4.54018e-09 3.969e-15)
(0.02022 4.12302e-09 3.99744e-15)
(0.02022 3.64789e-09 3.86236e-15)
(0.0202199 3.17923e-09 3.72563e-15)
(0.0202199 2.71637e-09 3.94344e-15)
(0.0202198 2.17142e-09 3.88303e-15)
(0.0202198 1.70113e-09 3.90032e-15)
(0.0202198 1.23617e-09 3.75336e-15)
(0.0202198 7.33505e-10 3.46479e-15)
(0.0202198 2.96097e-10 3.89092e-15)
(0.0202198 -9.46245e-11 3.58239e-15)
(0.0202198 -4.77904e-10 3.76349e-15)
(0.0202198 -8.70218e-10 3.62476e-15)
(0.0202198 -1.19522e-09 3.39652e-15)
(0.0202198 -1.41452e-09 3.81839e-15)
(0.0202198 -1.66522e-09 3.59356e-15)
(0.0202199 -1.93512e-09 3.74921e-15)
(0.0202199 -2.1e-09 3.57658e-15)
(0.0202199 -2.23975e-09 3.42662e-15)
(0.02022 -2.43741e-09 3.93637e-15)
(0.02022 -2.58588e-09 3.67014e-15)
(0.02022 -2.65689e-09 3.82083e-15)
(0.0202201 -2.72625e-09 3.69606e-15)
(0.0202201 -2.83219e-09 3.35093e-15)
(0.0202202 -2.90147e-09 3.82762e-15)
(0.0202202 -2.90259e-09 3.6568e-15)
(0.0202203 -2.93687e-09 3.73345e-15)
(0.0202203 -2.95064e-09 3.51337e-15)
(0.0202204 -2.96098e-09 3.22082e-15)
(0.0202204 -2.75177e-09 3.48733e-15)
(0.0202205 -2.47039e-09 3.62352e-15)
(0.0202205 -2.03536e-09 3.81122e-15)
(0.0202205 -1.5621e-09 3.83555e-15)
(0.0202205 -9.57834e-10 3.89543e-15)
(0.0202206 -7.46533e-11 3.9393e-15)
(0.0202206 3.19602e-10 3.90778e-15)
(0.0202206 4.11786e-10 4.02953e-15)
(0.0202206 2.72119e-10 3.99751e-15)
(0.0202206 -2.04032e-11 4.02488e-15)
(0.0202206 -2.40805e-10 4.0559e-15)
(0.0202206 -4.59427e-10 3.99229e-15)
(0.0202206 -6.44379e-10 4.07445e-15)
(0.0202206 -7.85734e-10 4.09877e-15)
(0.0202206 -8.84388e-10 4.16535e-15)
(0.0202206 -9.55912e-10 4.12879e-15)
(0.0202206 -9.59212e-10 4.0563e-15)
(0.0202206 -8.85596e-10 4.13398e-15)
(0.0202206 -7.47079e-10 4.14838e-15)
(0.0202207 -5.89345e-10 4.65155e-15)
(0.0202207 -3.97636e-10 4.24033e-15)
(0.0202207 -1.523e-10 4.16783e-15)
(0.0202207 1.02032e-10 4.2326e-15)
(0.0202207 3.48327e-10 4.22512e-15)
(0.0202207 5.68515e-10 4.55525e-15)
(0.0202206 7.52886e-10 4.33074e-15)
(0.0202206 9.5139e-10 4.22297e-15)
(0.0202206 1.13142e-09 4.29025e-15)
(0.0202206 1.22962e-09 4.2644e-15)
(0.0202206 1.31286e-09 4.46649e-15)
(0.0202205 1.35107e-09 4.36489e-15)
(0.0202205 1.39518e-09 4.29811e-15)
(0.0202205 1.43305e-09 4.34153e-15)
(0.0202205 1.41305e-09 4.29868e-15)
(0.0202205 1.43028e-09 4.52558e-15)
(0.0202204 1.42769e-09 4.42707e-15)
(0.0202204 1.34337e-09 4.31485e-15)
(0.0202204 1.2258e-09 4.36603e-15)
(0.0202204 1.14197e-09 4.35682e-15)
(0.0202203 1.0648e-09 4.71562e-15)
(0.0202203 9.69327e-10 4.31447e-15)
(0.0202203 9.01872e-10 4.4169e-15)
(0.0202203 8.50635e-10 4.41941e-15)
(0.0202203 7.47999e-10 4.15324e-15)
(0.0202203 6.19532e-10 4.50458e-15)
(0.0202203 4.69238e-10 4.10486e-15)
(0.0202203 2.20844e-10 4.53271e-15)
(0.0202203 3.68538e-11 4.29553e-15)
(0.0202203 -1.96918e-11 4.0291e-15)
(0.0202203 -2.11527e-11 4.41211e-15)
(0.0202203 3.7612e-11 3.99459e-15)
(0.0202203 4.92482e-11 4.14246e-15)
(0.0202203 2.50409e-11 4.23189e-15)
(0.0202203 -3.03682e-11 4.0267e-15)
(0.0202203 -1.20494e-10 4.56084e-15)
(0.0202203 -1.93954e-10 4.06894e-15)
(0.0202203 -2.9007e-10 4.46225e-15)
(0.0202203 -3.78026e-10 4.25155e-15)
(0.0202203 -4.46702e-10 3.98732e-15)
(0.0202203 -4.34676e-10 4.31071e-15)
(0.0202203 -4.36875e-10 3.95291e-15)
(0.0202203 -2.38009e-10 4.18563e-15)
(0.0202203 -5.06561e-11 4.20913e-15)
(0.0202203 3.6436e-10 3.98526e-15)
(0.0202203 9.58567e-10 4.25284e-15)
(0.0202203 1.06732e-09 4.01643e-15)
(0.0202203 9.56052e-10 4.18633e-15)
(0.0202202 6.21979e-10 4.19938e-15)
(0.0202202 1.8042e-10 4.00557e-15)
(0.0202202 -2.45081e-10 4.24819e-15)
(0.0202203 -6.21011e-10 4.01626e-15)
(0.0202203 -9.03077e-10 3.91447e-15)
(0.0202203 -1.14054e-09 4.19316e-15)
(0.0202203 -1.30718e-09 4.04393e-15)
(0.0202203 -1.43002e-09 4.28539e-15)
(0.0202203 -1.39772e-09 4.04604e-15)
(0.0202204 -1.10139e-09 3.92774e-15)
(0.0202204 -1.20741e-09 4.20437e-15)
(0.0202204 -1.87663e-10 4.05364e-15)
(0.0202204 1.10741e-09 4.19892e-15)
(0.0285524 -3.25825e-09 5.9867e-15)
(0.0285525 -7.9485e-09 5.90185e-15)
(0.0285526 -7.69192e-09 5.93831e-15)
(0.0285527 -3.77239e-09 5.26058e-15)
(0.0285527 9.10802e-10 5.42745e-15)
(0.0285526 4.84132e-09 5.5246e-15)
(0.0285525 7.68588e-09 5.42724e-15)
(0.0285524 9.50232e-09 5.66504e-15)
(0.0285523 1.04419e-08 5.78578e-15)
(0.0285522 1.05286e-08 5.58896e-15)
(0.0285521 9.98246e-09 5.77446e-15)
(0.028552 9.16762e-09 5.5902e-15)
(0.0285519 8.30519e-09 5.65783e-15)
(0.0285518 7.35057e-09 5.43718e-15)
(0.0285517 6.38976e-09 5.15557e-15)
(0.0285517 5.4314e-09 5.59009e-15)
(0.0285516 4.3433e-09 5.46284e-15)
(0.0285516 3.37991e-09 5.52118e-15)
(0.0285515 2.43693e-09 5.27808e-15)
(0.0285515 1.44057e-09 5.03612e-15)
(0.0285515 5.55519e-10 5.64111e-15)
(0.0285515 -2.44657e-10 4.95492e-15)
(0.0285515 -1.02498e-09 5.34502e-15)
(0.0285515 -1.7946e-09 5.18097e-15)
(0.0285516 -2.43263e-09 4.84801e-15)
(0.0285516 -2.89034e-09 5.45726e-15)
(0.0285516 -3.39065e-09 5.1646e-15)
(0.0285517 -3.91848e-09 5.32243e-15)
(0.0285517 -4.26825e-09 5.11678e-15)
(0.0285518 -4.55844e-09 4.86098e-15)
(0.0285518 -4.92765e-09 5.71241e-15)
(0.0285519 -5.21073e-09 5.30449e-15)
(0.0285519 -5.36207e-09 5.4058e-15)
(0.028552 -5.51159e-09 5.22254e-15)
(0.028552 -5.71164e-09 4.62404e-15)
(0.0285521 -5.84347e-09 5.60166e-15)
(0.0285522 -5.85045e-09 5.0578e-15)
(0.0285522 -5.91331e-09 5.30116e-15)
(0.0285523 -5.95814e-09 5.01294e-15)
(0.0285524 -5.97046e-09 4.49542e-15)
(0.0285524 -5.57325e-09 4.98456e-15)
(0.0285525 -5.03167e-09 5.04656e-15)
(0.0285525 -4.25723e-09 5.40956e-15)
(0.0285526 -3.37718e-09 5.42403e-15)
(0.0285526 -2.22793e-09 5.52399e-15)
(0.0285526 -5.92747e-10 5.57789e-15)
(0.0285527 2.50371e-10 5.42905e-15)
(0.0285527 5.08286e-10 5.70683e-15)
(0.0285527 3.14303e-10 5.64893e-15)
(0.0285527 -1.70362e-10 5.70163e-15)
(0.0285527 -5.69311e-10 5.73849e-15)
(0.0285527 -9.69367e-10 5.56758e-15)
(0.0285527 -1.31353e-09 5.77274e-15)
(0.0285527 -1.57226e-09 5.67473e-15)
(0.0285527 -1.7476e-09 5.80564e-15)
(0.0285527 -1.8625e-09 5.82486e-15)
(0.0285528 -1.84382e-09 5.63999e-15)
(0.0285528 -1.67796e-09 5.85839e-15)
(0.0285528 -1.39332e-09 5.75177e-15)
(0.0285528 -1.06399e-09 5.98774e-15)
(0.0285528 -6.64979e-10 5.97159e-15)
(0.0285528 -1.70411e-10 5.78664e-15)
(0.0285528 3.38733e-10 5.99253e-15)
(0.0285528 8.27495e-10 5.8753e-15)
(0.0285528 1.26771e-09 6.11016e-15)
(0.0285528 1.64338e-09 6.09005e-15)
(0.0285527 2.03338e-09 5.85727e-15)
(0.0285527 2.38053e-09 6.06844e-15)
(0.0285527 2.57913e-09 5.93687e-15)
(0.0285527 2.73681e-09 6.18678e-15)
(0.0285526 2.81565e-09 6.15112e-15)
(0.0285526 2.90005e-09 5.94142e-15)
(0.0285526 2.96929e-09 6.14222e-15)
(0.0285525 2.93619e-09 6.00008e-15)
(0.0285525 2.9518e-09 6.32545e-15)
(0.0285525 2.92875e-09 6.23173e-15)
(0.0285524 2.76623e-09 5.96554e-15)
(0.0285524 2.53761e-09 6.17057e-15)
(0.0285524 2.36277e-09 6.03811e-15)
(0.0285523 2.21187e-09 6.34072e-15)
(0.0285523 2.03102e-09 6.15129e-15)
(0.0285523 1.8907e-09 6.27338e-15)
(0.0285523 1.77765e-09 6.23698e-15)
(0.0285523 1.57427e-09 5.92374e-15)
(0.0285522 1.31997e-09 6.06312e-15)
(0.0285522 9.90722e-10 5.88407e-15)
(0.0285522 5.14355e-10 6.09175e-15)
(0.0285522 1.87958e-10 6.05295e-15)
(0.0285522 7.22846e-11 5.762e-15)
(0.0285522 5.98806e-11 5.90247e-15)
(0.0285522 1.53754e-10 5.69975e-15)
(0.0285522 1.70403e-10 5.79348e-15)
(0.0285522 1.19822e-10 5.96192e-15)
(0.0285522 1.29877e-11 5.75554e-15)
(0.0285522 -1.5828e-10 5.96137e-15)
(0.0285522 -3.14556e-10 5.81237e-15)
(0.0285522 -5.10987e-10 6.03889e-15)
(0.0285522 -6.9972e-10 6.01084e-15)
(0.0285522 -8.53188e-10 5.71207e-15)
(0.0285522 -8.77789e-10 5.8254e-15)
(0.0285522 -9.11989e-10 5.69007e-15)
(0.0285522 -6.02649e-10 5.8328e-15)
(0.0285522 -2.78933e-10 5.93859e-15)
(0.0285523 4.88875e-10 5.68029e-15)
(0.0285522 1.57009e-09 5.94051e-15)
(0.0285522 1.81221e-09 5.73417e-15)
(0.0285522 1.62856e-09 5.84156e-15)
(0.0285522 1.03694e-09 5.91962e-15)
(0.0285522 2.39304e-10 5.70488e-15)
(0.0285522 -5.44584e-10 5.89788e-15)
(0.0285522 -1.24684e-09 5.715e-15)
(0.0285522 -1.78716e-09 5.63342e-15)
(0.0285523 -2.23764e-09 5.98073e-15)
(0.0285523 -2.56672e-09 5.76811e-15)
(0.0285523 -2.81634e-09 6.00161e-15)
(0.0285523 -2.77212e-09 5.76111e-15)
(0.0285524 -2.25038e-09 5.65054e-15)
(0.0285524 -2.40358e-09 5.99525e-15)
(0.0285524 -3.95646e-10 5.78682e-15)
(0.0285524 1.15581e-09 5.88779e-15)
(0.0368908 -7.61345e-09 7.76986e-15)
(0.036891 -1.34204e-08 7.62346e-15)
(0.0368911 -1.16815e-08 7.67712e-15)
(0.0368911 -4.90407e-09 7.3951e-15)
(0.0368911 2.66393e-09 7.30043e-15)
(0.036891 8.93136e-09 7.14885e-15)
(0.0368909 1.34178e-08 7.26409e-15)
(0.0368908 1.62556e-08 7.44244e-15)
(0.0368906 1.76712e-08 7.54193e-15)
(0.0368905 1.76498e-08 7.43836e-15)
(0.0368903 1.66831e-08 7.5782e-15)
(0.0368902 1.53765e-08 7.16924e-15)
(0.0368901 1.39093e-08 7.33985e-15)
(0.03689 1.22728e-08 6.96635e-15)
(0.0368899 1.06394e-08 6.93203e-15)
(0.0368898 8.9995e-09 7.28883e-15)
(0.0368898 7.18847e-09 6.99577e-15)
(0.0368897 5.56192e-09 7.15991e-15)
(0.0368897 3.97719e-09 6.7438e-15)
(0.0368897 2.33086e-09 6.58593e-15)
(0.0368896 8.49424e-10 7.20162e-15)
(0.0368896 -5.06564e-10 6.88285e-15)
(0.0368897 -1.82373e-09 7.01819e-15)
(0.0368897 -3.07728e-09 7.06659e-15)
(0.0368897 -4.11634e-09 6.69738e-15)
(0.0368897 -4.90184e-09 7.21884e-15)
(0.0368898 -5.73552e-09 7.02974e-15)
(0.0368898 -6.59773e-09 6.96222e-15)
(0.0368899 -7.20332e-09 6.94072e-15)
(0.03689 -7.69963e-09 6.69338e-15)
(0.03689 -8.27735e-09 7.33073e-15)
(0.0368901 -8.72376e-09 7.13501e-15)
(0.0368902 -8.98748e-09 7.06989e-15)
(0.0368902 -9.252e-09 7.068e-15)
(0.0368903 -9.56741e-09 6.60809e-15)
(0.0368904 -9.77725e-09 7.1691e-15)
(0.0368905 -9.83555e-09 7.05438e-15)
(0.0368906 -9.94543e-09 6.92643e-15)
(0.0368906 -9.99849e-09 6.81557e-15)
(0.0368907 -1.00041e-08 6.42854e-15)
(0.0368908 -9.35071e-09 6.60629e-15)
(0.0368909 -8.49042e-09 6.81774e-15)
(0.0368909 -7.36005e-09 7.07941e-15)
(0.036891 -5.99539e-09 7.00571e-15)
(0.036891 -4.1784e-09 7.18321e-15)
(0.0368911 -1.63422e-09 7.22489e-15)
(0.0368911 -1.82557e-10 7.29364e-15)
(0.0368911 3.47508e-10 7.44605e-15)
(0.0368911 1.52937e-10 7.29305e-15)
(0.0368911 -5.01161e-10 7.40497e-15)
(0.0368911 -1.08985e-09 7.4228e-15)
(0.0368911 -1.69926e-09 7.51549e-15)
(0.0368911 -2.22776e-09 7.5319e-15)
(0.0368912 -2.61714e-09 7.58364e-15)
(0.0368912 -2.87099e-09 7.61143e-15)
(0.0368912 -3.01685e-09 7.49573e-15)
(0.0368912 -2.94181e-09 7.55487e-15)
(0.0368913 -2.63446e-09 7.6412e-15)
(0.0368913 -2.14768e-09 7.72287e-15)
(0.0368913 -1.57855e-09 7.78726e-15)
(0.0368913 -8.91395e-10 7.67691e-15)
(0.0368913 -6.09148e-11 7.77282e-15)
(0.0368913 7.85564e-10 7.81031e-15)
(0.0368913 1.58967e-09 7.84628e-15)
(0.0368912 2.31971e-09 7.75966e-15)
(0.0368912 2.95211e-09 7.82742e-15)
(0.0368912 3.58954e-09 7.80087e-15)
(0.0368912 4.1457e-09 7.89333e-15)
(0.0368911 4.47242e-09 7.96142e-15)
(0.0368911 4.72252e-09 8.02454e-15)
(0.036891 4.85355e-09 7.90905e-15)
(0.036891 4.98905e-09 7.90726e-15)
(0.036891 5.09724e-09 7.9924e-15)
(0.0368909 5.04715e-09 8.05597e-15)
(0.0368909 5.0464e-09 8.14176e-15)
(0.0368908 4.97959e-09 8.01077e-15)
(0.0368908 4.71521e-09 7.92855e-15)
(0.0368908 4.34273e-09 8.02006e-15)
(0.0368907 4.0457e-09 8.05264e-15)
(0.0368907 3.80425e-09 8.14537e-15)
(0.0368907 3.51663e-09 8.29882e-15)
(0.0368906 3.27586e-09 8.14069e-15)
(0.0368906 3.07238e-09 8.04879e-15)
(0.0368906 2.73266e-09 8.01651e-15)
(0.0368905 2.31099e-09 7.63958e-15)
(0.0368905 1.71143e-09 8.0145e-15)
(0.0368905 9.51303e-10 7.8221e-15)
(0.0368905 4.92381e-10 7.79709e-15)
(0.0368905 3.01353e-10 7.82043e-15)
(0.0368905 2.62398e-10 7.62037e-15)
(0.0368905 3.83739e-10 7.73456e-15)
(0.0368905 3.94186e-10 7.41073e-15)
(0.0368905 3.04698e-10 7.6845e-15)
(0.0368905 1.34827e-10 7.79697e-15)
(0.0368905 -1.39773e-10 7.70369e-15)
(0.0368905 -4.1231e-10 7.91519e-15)
(0.0368905 -7.48796e-10 7.48843e-15)
(0.0368905 -1.08064e-09 7.76639e-15)
(0.0368905 -1.36425e-09 7.76143e-15)
(0.0368905 -1.47345e-09 7.43599e-15)
(0.0368905 -1.58575e-09 7.75937e-15)
(0.0368905 -1.1922e-09 7.61644e-15)
(0.0368905 -7.37543e-10 7.65919e-15)
(0.0368906 4.59813e-10 7.6984e-15)
(0.0368906 2.10726e-09 7.49456e-15)
(0.0368905 2.49678e-09 7.81092e-15)
(0.0368905 2.24999e-09 7.60339e-15)
(0.0368905 1.38178e-09 7.64308e-15)
(0.0368905 1.91426e-10 7.71733e-15)
(0.0368905 -1.00099e-09 7.58706e-15)
(0.0368905 -2.09182e-09 7.71376e-15)
(0.0368906 -2.94638e-09 7.72836e-15)
(0.0368906 -3.65529e-09 7.84207e-15)
(0.0368906 -4.19419e-09 7.8119e-15)
(0.0368906 -4.61478e-09 7.565e-15)
(0.0368907 -4.56807e-09 7.78253e-15)
(0.0368907 -3.79251e-09 7.74396e-15)
(0.0368907 -3.97692e-09 7.85802e-15)
(0.0368908 -6.56031e-10 7.83895e-15)
(0.0368908 2.42581e-10 7.50288e-15)
(0.0449683 -1.42883e-08 9.54226e-15)
(0.0449685 -1.99061e-08 9.28751e-15)
(0.0449686 -1.55118e-08 9.38172e-15)
(0.0449686 -5.2244e-09 9.20411e-15)
(0.0449686 5.64034e-09 9.16933e-15)
(0.0449685 1.44584e-08 9.08663e-15)
(0.0449683 2.07076e-08 9.07499e-15)
(0.0449682 2.46376e-08 9.20851e-15)
(0.044968 2.65136e-08 9.26754e-15)
(0.0449679 2.63878e-08 9.23169e-15)
(0.0449677 2.4925e-08 9.35098e-15)
(0.0449676 2.29237e-08 8.9344e-15)
(0.0449674 2.06926e-08 9.02316e-15)
(0.0449673 1.82188e-08 8.70105e-15)
(0.0449672 1.57578e-08 8.60168e-15)
(0.0449671 1.3268e-08 8.9925e-15)
(0.044967 1.05816e-08 8.72834e-15)
(0.044967 8.14913e-09 8.79381e-15)
(0.0449669 5.7828e-09 8.40991e-15)
(0.0449669 3.35529e-09 8.2929e-15)
(0.0449669 1.15062e-09 8.58198e-15)
(0.0449669 -8.92943e-10 8.60098e-15)
(0.0449669 -2.86991e-09 8.68714e-15)
(0.044967 -4.68268e-09 8.62624e-15)
(0.044967 -6.19177e-09 8.48589e-15)
(0.044967 -7.39063e-09 8.72042e-15)
(0.0449671 -8.63486e-09 8.54476e-15)
(0.0449671 -9.89985e-09 8.54547e-15)
(0.0449672 -1.08263e-08 8.46187e-15)
(0.0449673 -1.15747e-08 8.4544e-15)
(0.0449673 -1.23849e-08 8.76769e-15)
(0.0449674 -1.30145e-08 8.66607e-15)
(0.0449675 -1.34251e-08 8.65512e-15)
(0.0449676 -1.38467e-08 8.52487e-15)
(0.0449677 -1.42898e-08 8.37965e-15)
(0.0449678 -1.45887e-08 8.63178e-15)
(0.0449679 -1.4734e-08 8.49073e-15)
(0.044968 -1.49101e-08 8.4806e-15)
(0.0449681 -1.49637e-08 8.26041e-15)
(0.0449681 -1.49517e-08 8.2008e-15)
(0.0449682 -1.41245e-08 8.25863e-15)
(0.0449683 -1.29434e-08 8.5511e-15)
(0.0449684 -1.13366e-08 8.73217e-15)
(0.0449685 -9.40948e-09 8.89867e-15)
(0.0449685 -6.83544e-09 8.8518e-15)
(0.0449686 -3.26812e-09 8.83156e-15)
(0.0449686 -1.07185e-09 9.03677e-15)
(0.0449686 -1.66709e-10 9.15742e-15)
(0.0449686 -2.85056e-10 9.08158e-15)
(0.0449686 -1.04775e-09 9.11232e-15)
(0.0449687 -1.81529e-09 9.05576e-15)
(0.0449687 -2.64724e-09 9.55029e-15)
(0.0449687 -3.36764e-09 9.27382e-15)
(0.0449687 -3.88335e-09 9.54647e-15)
(0.0449687 -4.20505e-09 9.32035e-15)
(0.0449688 -4.35712e-09 9.16239e-15)
(0.0449688 -4.17996e-09 9.50128e-15)
(0.0449688 -3.68063e-09 9.39225e-15)
(0.0449688 -2.94454e-09 9.54839e-15)
(0.0449688 -2.07126e-09 9.52478e-15)
(0.0449688 -1.01881e-09 9.36635e-15)
(0.0449688 2.23525e-10 9.71737e-15)
(0.0449688 1.47671e-09 9.60583e-15)
(0.0449688 2.65285e-09 9.72454e-15)
(0.0449688 3.73092e-09 9.68854e-15)
(0.0449688 4.6761e-09 9.53652e-15)
(0.0449687 5.6048e-09 9.66041e-15)
(0.0449687 6.39817e-09 9.68191e-15)
(0.0449686 6.87123e-09 9.98478e-15)
(0.0449686 7.22796e-09 9.82794e-15)
(0.0449685 7.41956e-09 9.61808e-15)
(0.0449685 7.6166e-09 9.77292e-15)
(0.0449684 7.77225e-09 9.80166e-15)
(0.0449684 7.69883e-09 1.00963e-14)
(0.0449683 7.66259e-09 9.97091e-15)
(0.0449683 7.52467e-09 9.72284e-15)
(0.0449682 7.13872e-09 9.95377e-15)
(0.0449682 6.59097e-09 9.83313e-15)
(0.0449682 6.1501e-09 1.01256e-14)
(0.0449681 5.81744e-09 9.93419e-15)
(0.0449681 5.40461e-09 1.03595e-14)
(0.044968 5.03598e-09 9.7781e-15)
(0.044968 4.71345e-09 9.8304e-15)
(0.044968 4.20021e-09 1.00271e-14)
(0.044968 3.56862e-09 9.5513e-15)
(0.0449679 2.7582e-09 1.02058e-14)
(0.0449679 1.71146e-09 9.59385e-15)
(0.0449679 1.01295e-09 9.53539e-15)
(0.0449679 7.07559e-10 9.83183e-15)
(0.0449679 6.18275e-10 9.33906e-15)
(0.0449679 7.49969e-10 9.90616e-15)
(0.0449679 7.30775e-10 9.02071e-15)
(0.0449679 5.87976e-10 9.42578e-15)
(0.0449679 3.50089e-10 9.75562e-15)
(0.0449679 -4.89466e-11 9.28625e-15)
(0.0449679 -4.7203e-10 1.00697e-14)
(0.0449679 -9.88351e-10 9.5687e-15)
(0.0449679 -1.5049e-09 9.49993e-15)
(0.0449679 -1.96768e-09 9.73268e-15)
(0.0449679 -2.21885e-09 9.34161e-15)
(0.0449679 -2.4678e-09 9.82266e-15)
(0.0449679 -2.02976e-09 9.33958e-15)
(0.0449679 -1.46444e-09 9.40184e-15)
(0.044968 7.35895e-11 9.64628e-15)
(0.044968 2.29692e-09 9.20508e-15)
(0.044968 2.96257e-09 9.79641e-15)
(0.0449679 2.70161e-09 9.33923e-15)
(0.0449679 1.57107e-09 9.367e-15)
(0.0449679 -8.5789e-13 9.66698e-15)
(0.0449679 -1.61031e-09 9.29374e-15)
(0.044968 -3.12875e-09 9.66871e-15)
(0.044968 -4.33126e-09 9.7449e-15)
(0.044968 -5.32592e-09 9.68091e-15)
(0.044968 -6.11788e-09 9.78621e-15)
(0.0449681 -6.7546e-09 9.2848e-15)
(0.0449681 -6.71253e-09 9.90565e-15)
(0.0449682 -5.66653e-09 9.7699e-15)
(0.0449682 -5.86736e-09 9.69835e-15)
(0.0449682 -9.02373e-10 9.82152e-15)
(0.0449682 -1.91673e-09 9.41297e-15)
(0.0524534 -2.25142e-08 1.12592e-14)
(0.0524535 -2.6696e-08 1.11175e-14)
(0.0524536 -1.85677e-08 1.10352e-14)
(0.0524536 -4.441e-09 1.09699e-14)
(0.0524536 9.715e-09 1.08892e-14)
(0.0524535 2.10473e-08 1.07868e-14)
(0.0524533 2.90395e-08 1.07859e-14)
(0.0524532 3.40491e-08 1.08803e-14)
(0.052453 3.63221e-08 1.09218e-14)
(0.0524528 3.60224e-08 1.09009e-14)
(0.0524527 3.40558e-08 1.10123e-14)
(0.0524525 3.1324e-08 1.0546e-14)
(0.0524524 2.82599e-08 1.06154e-14)
(0.0524523 2.48436e-08 1.02458e-14)
(0.0524522 2.14361e-08 1.01901e-14)
(0.0524521 1.80117e-08 1.06553e-14)
(0.052452 1.43639e-08 1.01129e-14)
(0.0524519 1.0998e-08 1.03273e-14)
(0.0524519 7.75317e-09 9.90062e-15)
(0.0524519 4.50192e-09 9.89297e-15)
(0.0524518 1.49111e-09 9.96073e-15)
(0.0524518 -1.37941e-09 1.01614e-14)
(0.0524519 -4.10077e-09 1.02473e-14)
(0.0524519 -6.49337e-09 9.94607e-15)
(0.0524519 -8.52223e-09 1.01561e-14)
(0.052452 -1.0211e-08 1.01752e-14)
(0.052452 -1.1921e-08 9.68147e-15)
(0.0524521 -1.36449e-08 1.00293e-14)
(0.0524522 -1.49472e-08 9.88562e-15)
(0.0524522 -1.59715e-08 1.01067e-14)
(0.0524523 -1.70181e-08 1.01992e-14)
(0.0524524 -1.78458e-08 1.00206e-14)
(0.0524525 -1.84429e-08 1.01189e-14)
(0.0524526 -1.9058e-08 9.61118e-15)
(0.0524527 -1.96655e-08 1.00882e-14)
(0.0524528 -2.00832e-08 1.00722e-14)
(0.0524529 -2.03452e-08 9.69639e-15)
(0.052453 -2.05844e-08 9.92358e-15)
(0.0524531 -2.06439e-08 9.67719e-15)
(0.0524532 -2.06255e-08 9.83424e-15)
(0.0524533 -1.96043e-08 9.8338e-15)
(0.0524534 -1.81587e-08 1.0219e-14)
(0.0524535 -1.60748e-08 1.02837e-14)
(0.0524535 -1.35345e-08 1.03603e-14)
(0.0524536 -1.01464e-08 1.0386e-14)
(0.0524537 -5.47982e-09 1.03462e-14)
(0.0524537 -2.47937e-09 1.07298e-14)
(0.0524537 -1.08911e-09 1.07311e-14)
(0.0524537 -1.0014e-09 1.07277e-14)
(0.0524537 -1.82511e-09 1.06701e-14)
(0.0524538 -2.75556e-09 1.05906e-14)
(0.0524538 -3.77308e-09 1.09881e-14)
(0.0524538 -4.67291e-09 1.08379e-14)
(0.0524538 -5.29422e-09 1.11125e-14)
(0.0524538 -5.66873e-09 1.10433e-14)
(0.0524539 -5.79473e-09 1.06754e-14)
(0.0524539 -5.46229e-09 1.10846e-14)
(0.0524539 -4.73247e-09 1.10124e-14)
(0.0524539 -3.72455e-09 1.13145e-14)
(0.0524539 -2.49861e-09 1.12538e-14)
(0.0524539 -9.79739e-10 1.09035e-14)
(0.0524539 7.26387e-10 1.13522e-14)
(0.0524539 2.38951e-09 1.12293e-14)
(0.0524539 3.96672e-09 1.14849e-14)
(0.0524539 5.4319e-09 1.14333e-14)
(0.0524538 6.72707e-09 1.10857e-14)
(0.0524538 7.97037e-09 1.14227e-14)
(0.0524538 9.01004e-09 1.13454e-14)
(0.0524537 9.63629e-09 1.16344e-14)
(0.0524537 1.01099e-08 1.15392e-14)
(0.0524536 1.04102e-08 1.11628e-14)
(0.0524536 1.06856e-08 1.15385e-14)
(0.0524535 1.08562e-08 1.14743e-14)
(0.0524534 1.07445e-08 1.17702e-14)
(0.0524534 1.06527e-08 1.16714e-14)
(0.0524533 1.04193e-08 1.12703e-14)
(0.0524533 9.90284e-09 1.15839e-14)
(0.0524532 9.18889e-09 1.15136e-14)
(0.0524532 8.60573e-09 1.17805e-14)
(0.0524532 8.16787e-09 1.16353e-14)
(0.0524531 7.6074e-09 1.22194e-14)
(0.0524531 7.08618e-09 1.17676e-14)
(0.052453 6.61997e-09 1.15386e-14)
(0.052453 5.93547e-09 1.18654e-14)
(0.052453 5.06432e-09 1.1453e-14)