/*--------------------------------*- C++ -*----------------------------------*\
  =========                 |
  \\      /  F ield         | OpenFOAM: The Open Source CFD Toolbox
   \\    /   O peration     | Website:  https://openfoam.org
    \\  /    A nd           | Version:  7
     \\/     M anipulation  |
\*---------------------------------------------------------------------------*/
FoamFile
{
    version     2.0;
    format      ascii;
    class       volVectorField;
    location    "46500";
    object      C;
}
// * * * * * * * * * * * * * * * * * * * * * * * * * * * * * * * * * * * * * //

dimensions      [0 1 0 0 0 0 0];

internalField   nonuniform List<vector> 
100
(
(0.05 0.0025201 0)
(0.05 0.0076821 0)
(0.05 0.0130936 0)
(0.05 0.0187665 0)
(0.05 0.0247136 0)
(0.05 0.0309482 0)
(0.05 0.037484 0)
(0.05 0.0443356 0)
(0.05 0.0515184 -2.89121e-19)
(0.05 0.0590483 0)
(0.05 0.0669421 4.0726e-18)
(0.05 0.0752173 0)
(0.05 0.0838925 0)
(0.05 0.0929869 6.64432e-18)
(0.05 0.102521 0)
(0.05 0.112515 0)
(0.05 0.122993 0)
(0.05 0.133977 0)
(0.05 0.145492 0)
(0.05 0.157563 0)
(0.05 0.170218 0)
(0.05 0.183484 0)
(0.05 0.197391 0)
(0.05 0.21197 0)
(0.05 0.227254 2.09387e-18)
(0.05 0.243277 0)
(0.05 0.260074 0)
(0.05 0.277682 -2.89121e-19)
(0.05 0.296142 0)
(0.05 0.315493 0)
(0.05 0.33578 0)
(0.05 0.357047 -2.89121e-19)
(0.05 0.379342 -2.89121e-19)
(0.05 0.402714 0)
(0.05 0.427216 0)
(0.05 0.452902 0)
(0.05 0.479829 0)
(0.05 0.508057 0)
(0.05 0.53765 0)
(0.05 0.568672 0)
(0.05 0.601194 0)
(0.05 0.635288 0)
(0.05 0.671029 -5.20882e-18)
(0.05 0.708497 0)
(0.05 0.747776 0)
(0.05 0.788954 0)
(0.05 0.832121 0)
(0.05 0.877374 0)
(0.05 0.924814 0)
(0.05 0.974547 0)
(0.05 1.02537 5.02932e-18)
(0.05 1.07495 -2.62174e-18)
(0.05 1.12226 0)
(0.05 1.16739 0)
(0.05 1.21046 0)
(0.05 1.25154 0)
(0.05 1.29074 0)
(0.05 1.32814 -3.3815e-18)
(0.05 1.36382 -2.89121e-19)
(0.05 1.39787 1.98767e-18)
(0.05 1.43035 0)
(0.05 1.46134 -4.3101e-18)
(0.05 1.49091 0)
(0.05 1.51912 2.33892e-18)
(0.05 1.54604 0)
(0.05 1.57172 0)
(0.05 1.59622 0)
(0.05 1.6196 0)
(0.05 1.6419 0)
(0.05 1.66318 0)
(0.05 1.68348 0)
(0.05 1.70286 0)
(0.05 1.72134 0)
(0.05 1.73897 0)
(0.05 1.7558 0)
(0.05 1.77185 0)
(0.05 1.78716 0)
(0.05 1.80177 0)
(0.05 1.81571 0)
(0.05 1.82902 4.63665e-18)
(0.05 1.84171 0)
(0.05 1.85381 -7.74215e-18)
(0.05 1.86537 3.0811e-18)
(0.05 1.87639 0)
(0.05 1.8869 0)
(0.05 1.89694 0)
(0.05 1.90651 0)
(0.05 1.91564 0)
(0.05 1.92436 0)
(0.05 1.93267 0)
(0.05 1.9406 0)
(0.05 1.94817 0)
(0.05 1.95539 0)
(0.05 1.96228 0)
(0.05 1.96886 0)
(0.05 1.97513 0)
(0.05 1.98111 0)
(0.05 1.98682 0)
(0.05 1.99227 0)
(0.05 1.99746 0)
)
;

boundaryField
{
    bottomWall
    {
        type            calculated;
        value           uniform (0.05 0 0);
    }
    topWall
    {
        type            calculated;
        value           uniform (0.05 2 0);
    }
    sides1_half0
    {
        type            empty;
    }
    sides1_half1
    {
        type            empty;
    }
    sides2_half0
    {
        type            empty;
    }
    sides2_half1
    {
        type            empty;
    }
    inout1_half0
    {
        type            cyclic;
    }
    inout1_half1
    {
        type            cyclic;
    }
    inout2_half0
    {
        type            cyclic;
    }
    inout2_half1
    {
        type            cyclic;
    }
}


// ************************************************************************* //
