/*--------------------------------*- C++ -*----------------------------------*\
  =========                 |
  \\      /  F ield         | OpenFOAM: The Open Source CFD Toolbox
   \\    /   O peration     | Website:  https://openfoam.org
    \\  /    A nd           | Version:  7
     \\/     M anipulation  |
\*---------------------------------------------------------------------------*/
FoamFile
{
    version     2.0;
    format      ascii;
    class       volScalarField;
    location    "46500";
    object      nut;
}
// * * * * * * * * * * * * * * * * * * * * * * * * * * * * * * * * * * * * * //

dimensions      [0 2 -1 0 0 0 0];

internalField   nonuniform List<scalar> 
100
(
2.48641e-10
4.35742e-08
8.74802e-07
5.11136e-06
1.41368e-05
2.65668e-05
4.11973e-05
5.74339e-05
7.49655e-05
9.36073e-05
0.000113238
0.000133772
0.000155143
0.000177299
0.000200192
0.00022378
0.000248021
0.000272873
0.000298292
0.000324229
0.000350633
0.000377446
0.000404607
0.000432045
0.000459683
0.000487435
0.000515206
0.000542891
0.000570373
0.000597524
0.000624204
0.000650256
0.000675511
0.000699784
0.000722872
0.000744556
0.000764602
0.000782756
0.000798752
0.000812316
0.000823172
0.000831061
0.000835765
0.000837154
0.000835255
0.000830354
0.000823136
0.000814821
0.000807212
0.000802473
0.000802496
0.000807251
0.000814859
0.000823173
0.000830406
0.000835341
0.000837296
0.00083598
0.000831363
0.000823573
0.000812822
0.000799367
0.000783482
0.000765437
0.000745499
0.000723916
0.000700924
0.00067674
0.000651566
0.000625587
0.000598971
0.000571873
0.000544436
0.000516785
0.000489039
0.000461302
0.000433669
0.000406226
0.000379052
0.000352216
0.00032578
0.000299804
0.000274338
0.000249431
0.000225127
0.00020147
0.000178502
0.000156265
0.000134807
0.000114181
9.44531e-05
7.57097e-05
5.80717e-05
4.17237e-05
2.69755e-05
1.44183e-05
5.25648e-06
9.18558e-07
6.1478e-08
1.93031e-08
)
;

boundaryField
{
    bottomWall
    {
        type            nutUWallFunction;
        Cmu             0.09;
        kappa           0.41;
        E               9.8;
        value           uniform 0;
    }
    topWall
    {
        type            nutUWallFunction;
        Cmu             0.09;
        kappa           0.41;
        E               9.8;
        value           uniform 0;
    }
    sides1_half0
    {
        type            empty;
    }
    sides1_half1
    {
        type            empty;
    }
    sides2_half0
    {
        type            empty;
    }
    sides2_half1
    {
        type            empty;
    }
    inout1_half0
    {
        type            cyclic;
    }
    inout1_half1
    {
        type            cyclic;
    }
    inout2_half0
    {
        type            cyclic;
    }
    inout2_half1
    {
        type            cyclic;
    }
}


// ************************************************************************* //
