/*--------------------------------*- C++ -*----------------------------------*\
  =========                 |
  \\      /  F ield         | OpenFOAM: The Open Source CFD Toolbox
   \\    /   O peration     | Website:  https://openfoam.org
    \\  /    A nd           | Version:  7
     \\/     M anipulation  |
\*---------------------------------------------------------------------------*/
FoamFile
{
    version     2.0;
    format      ascii;
    class       volVectorField;
    location    "46500";
    object      U;
}
// * * * * * * * * * * * * * * * * * * * * * * * * * * * * * * * * * * * * * //

dimensions      [0 1 -1 0 0 0 0];

internalField   nonuniform List<vector> 
100
(
(0.00779469 2.89782e-14 0)
(0.0236633 1.5269e-13 0)
(0.0398641 1.2249e-13 0)
(0.0549171 1.03301e-13 0)
(0.0671104 7.60642e-14 0)
(0.0764366 5.12494e-14 0)
(0.0837073 5.31185e-14 0)
(0.0895886 5.77486e-14 0)
(0.0945084 5.49957e-14 0)
(0.0987373 5.67026e-14 0)
(0.102452 5.26526e-14 0)
(0.105771 5.85818e-14 0)
(0.10878 5.98775e-14 0)
(0.111538 6.01529e-14 0)
(0.114091 5.93863e-14 0)
(0.116472 6.32275e-14 0)
(0.11871 5.65987e-14 0)
(0.120824 5.61292e-14 0)
(0.122831 5.2452e-14 0)
(0.124746 5.10315e-14 0)
(0.126579 4.7767e-14 0)
(0.12834 4.36116e-14 0)
(0.130036 4.09005e-14 0)
(0.131674 3.94791e-14 0)
(0.133259 3.83057e-14 0)
(0.134796 3.79646e-14 0)
(0.136289 3.58059e-14 0)
(0.13774 3.6481e-14 0)
(0.139154 3.51318e-14 0)
(0.140531 3.46885e-14 0)
(0.141873 3.56023e-14 0)
(0.143183 3.52407e-14 0)
(0.14446 3.23873e-14 0)
(0.145705 2.96565e-14 0)
(0.146918 2.80146e-14 0)
(0.1481 2.60342e-14 0)
(0.149248 2.29413e-14 0)
(0.150363 2.83189e-14 0)
(0.151441 2.78169e-14 0)
(0.152481 2.5369e-14 0)
(0.153478 2.6669e-14 0)
(0.15443 2.39279e-14 0)
(0.155329 2.52701e-14 0)
(0.15617 2.32047e-14 0)
(0.156943 1.98998e-14 0)
(0.157636 2.19045e-14 0)
(0.158235 2.24655e-14 0)
(0.158721 2.05517e-14 0)
(0.159072 2.18218e-14 0)
(0.159261 1.77832e-14 0)
(0.159261 1.44237e-14 0)
(0.159072 1.40586e-14 0)
(0.158723 1.45365e-14 0)
(0.158239 1.48168e-14 0)
(0.157642 1.50792e-14 0)
(0.156952 1.61083e-14 0)
(0.156183 1.69623e-14 0)
(0.155346 1.63616e-14 0)
(0.15445 1.44471e-14 0)
(0.153502 1.18873e-14 0)
(0.152508 1.27279e-14 0)
(0.151472 1.31748e-14 0)
(0.150397 1.19056e-14 0)
(0.149287 1.10194e-14 0)
(0.148142 1.21354e-14 0)
(0.146964 1.03333e-14 0)
(0.145754 1.22272e-14 0)
(0.144513 9.0893e-15 0)
(0.14324 1.27523e-14 0)
(0.141934 1.15053e-14 0)
(0.140595 1.25603e-14 0)
(0.139222 1.57335e-14 0)
(0.137812 1.54427e-14 0)
(0.136364 1.63526e-14 0)
(0.134875 1.46485e-14 0)
(0.133341 1.0045e-14 0)
(0.13176 1.1545e-14 0)
(0.130126 1.30509e-14 0)
(0.128434 7.87299e-15 0)
(0.126677 1.05611e-14 0)
(0.124848 8.54588e-15 0)
(0.122938 7.65004e-15 0)
(0.120934 9.95014e-15 0)
(0.118825 1.42594e-14 0)
(0.116593 9.77443e-15 0)
(0.114216 1.41786e-14 0)
(0.111669 2.26026e-14 0)
(0.108918 2.86087e-14 0)
(0.105917 2.91793e-14 0)
(0.102605 2.91201e-14 0)
(0.0989003 3.3444e-14 0)
(0.0946828 4.09213e-14 0)
(0.089777 5.21743e-14 0)
(0.0839133 5.65996e-14 0)
(0.0766647 4.60608e-14 0)
(0.0673632 4.01353e-14 0)
(0.0551827 5.28799e-14 0)
(0.0400953 2.53104e-14 0)
(0.0238117 5.45659e-15 0)
(0.00784917 -9.40427e-16 0)
)
;

boundaryField
{
    bottomWall
    {
        type            noSlip;
    }
    topWall
    {
        type            noSlip;
    }
    sides1_half0
    {
        type            empty;
    }
    sides1_half1
    {
        type            empty;
    }
    sides2_half0
    {
        type            empty;
    }
    sides2_half1
    {
        type            empty;
    }
    inout1_half0
    {
        type            cyclic;
    }
    inout1_half1
    {
        type            cyclic;
    }
    inout2_half0
    {
        type            cyclic;
    }
    inout2_half1
    {
        type            cyclic;
    }
}


// ************************************************************************* //
