/*--------------------------------*- C++ -*----------------------------------*\
  =========                 |
  \\      /  F ield         | OpenFOAM: The Open Source CFD Toolbox
   \\    /   O peration     | Website:  https://openfoam.org
    \\  /    A nd           | Version:  7
     \\/     M anipulation  |
\*---------------------------------------------------------------------------*/
FoamFile
{
    version     2.0;
    format      ascii;
    class       volScalarField;
    location    "4000";
    object      k;
}
// * * * * * * * * * * * * * * * * * * * * * * * * * * * * * * * * * * * * * //

dimensions      [0 2 -2 0 0 0 0];

internalField   nonuniform List<scalar> 
3974
(
0.000168336
0.000168336
0.000168336
0.000168336
0.000168336
0.000168336
0.000168336
0.000168336
0.000168336
0.000168336
0.000168336
0.000168336
0.000168336
0.000168336
0.000168335
0.000168335
0.000168335
0.000168335
0.000168335
0.000168335
0.000168334
0.000168334
0.000168334
0.000168334
0.000168334
0.000168333
0.000168333
0.000168333
0.000168332
0.000168332
0.000168332
0.000168331
0.000168331
0.000168331
0.00016833
0.00016833
0.000168329
0.000168329
0.000167946
0.000167946
0.000167946
0.000167946
0.000167946
0.000167946
0.000167946
0.000167946
0.000167946
0.000167946
0.000167946
0.000167946
0.000167946
0.000167946
0.000167946
0.000167946
0.000167946
0.000167946
0.000167946
0.000167945
0.000167945
0.000167945
0.000167945
0.000167945
0.000167944
0.000167944
0.000167944
0.000167944
0.000167943
0.000167943
0.000167943
0.000167942
0.000167942
0.000167942
0.000167941
0.000167941
0.00016794
0.00016794
0.00016794
0.000167939
0.000167938
0.000167938
0.000167468
0.000167468
0.000167468
0.000167468
0.000167468
0.000167468
0.000167469
0.000167469
0.000167469
0.000167469
0.000167469
0.000167469
0.000167469
0.000167469
0.000167469
0.000167469
0.000167469
0.000167469
0.000167469
0.000167469
0.000167469
0.000167469
0.000167469
0.000167468
0.000167468
0.000167468
0.000167468
0.000167468
0.000167467
0.000167467
0.000167467
0.000167466
0.000167466
0.000167466
0.000167465
0.000167465
0.000167465
0.000167464
0.000167464
0.000167463
0.000167463
0.000167462
0.000167461
0.000167461
0.00016746
0.000167459
0.000167459
0.000167458
0.000167458
0.000167457
0.000167457
0.000167456
0.000167456
0.000167456
0.000167455
0.000167455
0.000167455
0.000167454
0.000167454
0.000166908
0.000166908
0.000166908
0.000166908
0.000166908
0.000166908
0.000166909
0.000166909
0.000166909
0.000166909
0.000166909
0.000166909
0.000166909
0.000166909
0.000166909
0.000166909
0.000166909
0.000166909
0.000166909
0.000166909
0.000166909
0.000166909
0.000166909
0.000166909
0.000166909
0.000166909
0.000166908
0.000166908
0.000166908
0.000166908
0.000166907
0.000166907
0.000166907
0.000166906
0.000166906
0.000166905
0.000166905
0.000166905
0.000166904
0.000166904
0.000166903
0.000166902
0.000166902
0.000166901
0.0001669
0.0001669
0.000166899
0.000166898
0.000166898
0.000166897
0.000166897
0.000166896
0.000166896
0.000166896
0.000166895
0.000166895
0.000166894
0.000166894
0.000166894
0.000166269
0.000166269
0.000166269
0.000166269
0.00016627
0.00016627
0.00016627
0.00016627
0.00016627
0.000166271
0.000166271
0.000166271
0.000166271
0.000166271
0.000166271
0.000166271
0.000166271
0.000166271
0.000166271
0.000166271
0.000166271
0.000166271
0.000166271
0.000166271
0.000166271
0.00016627
0.00016627
0.00016627
0.00016627
0.000166269
0.000166269
0.000166269
0.000166268
0.000166268
0.000166268
0.000166267
0.000166267
0.000166266
0.000166266
0.000166265
0.000166265
0.000166264
0.000166263
0.000166263
0.000166262
0.000166261
0.000166261
0.00016626
0.000166259
0.000166259
0.000166258
0.000166258
0.000166257
0.000166257
0.000166256
0.000166256
0.000166255
0.000166255
0.000166255
0.000165555
0.000165555
0.000165555
0.000165555
0.000165556
0.000165556
0.000165556
0.000165556
0.000165557
0.000165557
0.000165557
0.000165557
0.000165557
0.000165557
0.000165557
0.000165558
0.000165558
0.000165558
0.000165558
0.000165558
0.000165558
0.000165557
0.000165557
0.000165557
0.000165557
0.000165557
0.000165557
0.000165556
0.000165556
0.000165556
0.000165556
0.000165555
0.000165555
0.000165554
0.000165554
0.000165554
0.000165553
0.000165553
0.000165552
0.000165552
0.000165551
0.00016555
0.00016555
0.000165549
0.000165548
0.000165548
0.000165547
0.000165546
0.000165546
0.000165545
0.000165544
0.000165544
0.000165543
0.000165543
0.000165542
0.000165542
0.000165541
0.000165541
0.00016554
0.000164769
0.000164769
0.000164769
0.000164769
0.000164769
0.00016477
0.00016477
0.00016477
0.000164771
0.000164771
0.000164771
0.000164771
0.000164771
0.000164772
0.000164772
0.000164772
0.000164772
0.000164772
0.000164772
0.000164772
0.000164772
0.000164772
0.000164772
0.000164772
0.000164771
0.000164771
0.000164771
0.000164771
0.000164771
0.00016477
0.00016477
0.00016477
0.000164769
0.000164769
0.000164768
0.000164768
0.000164767
0.000164767
0.000164766
0.000164766
0.000164765
0.000164765
0.000164764
0.000164763
0.000164763
0.000164762
0.000164761
0.00016476
0.00016476
0.000164759
0.000164758
0.000164758
0.000164757
0.000164757
0.000164756
0.000164755
0.000164755
0.000164754
0.000164754
0.000163913
0.000163913
0.000163913
0.000163914
0.000163914
0.000163914
0.000163915
0.000163915
0.000163915
0.000163915
0.000163916
0.000163916
0.000163916
0.000163916
0.000163916
0.000163917
0.000163917
0.000163917
0.000163917
0.000163917
0.000163917
0.000163917
0.000163917
0.000163917
0.000163916
0.000163916
0.000163916
0.000163916
0.000163916
0.000163915
0.000163915
0.000163915
0.000163914
0.000163914
0.000163913
0.000163913
0.000163912
0.000163912
0.000163911
0.000163911
0.00016391
0.00016391
0.000163909
0.000163908
0.000163908
0.000163907
0.000163906
0.000163905
0.000163904
0.000163904
0.000163903
0.000163902
0.000163902
0.000163901
0.0001639
0.0001639
0.000163899
0.000163899
0.000163898
0.000162991
0.000162991
0.000162991
0.000162991
0.000162992
0.000162992
0.000162992
0.000162993
0.000162993
0.000162993
0.000162994
0.000162994
0.000162994
0.000162994
0.000162994
0.000162995
0.000162995
0.000162995
0.000162995
0.000162995
0.000162995
0.000162995
0.000162995
0.000162995
0.000162995
0.000162995
0.000162994
0.000162994
0.000162994
0.000162994
0.000162993
0.000162993
0.000162992
0.000162992
0.000162992
0.000162991
0.000162991
0.00016299
0.00016299
0.000162989
0.000162988
0.000162988
0.000162987
0.000162986
0.000162986
0.000162985
0.000162984
0.000162983
0.000162982
0.000162982
0.000162981
0.00016298
0.000162979
0.000162979
0.000162978
0.000162977
0.000162977
0.000162976
0.000162975
0.000162004
0.000162004
0.000162004
0.000162005
0.000162005
0.000162005
0.000162006
0.000162006
0.000162006
0.000162007
0.000162007
0.000162007
0.000162008
0.000162008
0.000162008
0.000162008
0.000162008
0.000162009
0.000162009
0.000162009
0.000162009
0.000162009
0.000162009
0.000162009
0.000162008
0.000162008
0.000162008
0.000162008
0.000162008
0.000162007
0.000162007
0.000162007
0.000162006
0.000162006
0.000162005
0.000162005
0.000162004
0.000162004
0.000162003
0.000162003
0.000162002
0.000162001
0.000162001
0.000162
0.000161999
0.000161999
0.000161998
0.000161997
0.000161996
0.000161995
0.000161994
0.000161994
0.000161993
0.000161992
0.000161991
0.000161991
0.00016199
0.000161989
0.000161988
0.000160955
0.000160955
0.000160955
0.000160956
0.000160956
0.000160956
0.000160957
0.000160957
0.000160957
0.000160958
0.000160958
0.000160959
0.000160959
0.000160959
0.000160959
0.00016096
0.00016096
0.00016096
0.00016096
0.00016096
0.00016096
0.00016096
0.00016096
0.00016096
0.00016096
0.00016096
0.00016096
0.000160959
0.000160959
0.000160959
0.000160959
0.000160958
0.000160958
0.000160957
0.000160957
0.000160956
0.000160956
0.000160955
0.000160955
0.000160954
0.000160954
0.000160953
0.000160952
0.000160952
0.000160951
0.00016095
0.000160949
0.000160948
0.000160947
0.000160947
0.000160946
0.000160945
0.000160944
0.000160943
0.000160942
0.000160942
0.000160941
0.00016094
0.000160939
0.000159846
0.000159846
0.000159847
0.000159847
0.000159847
0.000159847
0.000159848
0.000159848
0.000159849
0.000159849
0.000159849
0.00015985
0.00015985
0.00015985
0.000159851
0.000159851
0.000159851
0.000159851
0.000159851
0.000159852
0.000159852
0.000159852
0.000159852
0.000159852
0.000159851
0.000159851
0.000159851
0.000159851
0.000159851
0.00015985
0.00015985
0.00015985
0.000159849
0.000159849
0.000159848
0.000159848
0.000159847
0.000159847
0.000159846
0.000159846
0.000159845
0.000159844
0.000159844
0.000159843
0.000159842
0.000159842
0.000159841
0.00015984
0.000159839
0.000159838
0.000159837
0.000159836
0.000159835
0.000159835
0.000159834
0.000159833
0.000159832
0.000159831
0.00015983
0.000158679
0.000158679
0.00015868
0.00015868
0.00015868
0.000158681
0.000158681
0.000158681
0.000158682
0.000158682
0.000158683
0.000158683
0.000158683
0.000158684
0.000158684
0.000158684
0.000158685
0.000158685
0.000158685
0.000158685
0.000158685
0.000158685
0.000158685
0.000158685
0.000158685
0.000158685
0.000158685
0.000158685
0.000158684
0.000158684
0.000158684
0.000158683
0.000158683
0.000158683
0.000158682
0.000158682
0.000158681
0.000158681
0.00015868
0.000158679
0.000158679
0.000158678
0.000158677
0.000158677
0.000158676
0.000158675
0.000158674
0.000158673
0.000158673
0.000158672
0.000158671
0.00015867
0.000158669
0.000158668
0.000158667
0.000158666
0.000158665
0.000158665
0.000158664
0.000157456
0.000157457
0.000157457
0.000157457
0.000157458
0.000157458
0.000157459
0.000157459
0.000157459
0.00015746
0.00015746
0.000157461
0.000157461
0.000157461
0.000157462
0.000157462
0.000157462
0.000157462
0.000157463
0.000157463
0.000157463
0.000157463
0.000157463
0.000157463
0.000157463
0.000157463
0.000157463
0.000157462
0.000157462
0.000157462
0.000157462
0.000157461
0.000157461
0.00015746
0.00015746
0.00015746
0.000157459
0.000157458
0.000157458
0.000157457
0.000157457
0.000157456
0.000157455
0.000157455
0.000157454
0.000157453
0.000157452
0.000157451
0.00015745
0.00015745
0.000157449
0.000157448
0.000157447
0.000157446
0.000157445
0.000157444
0.000157443
0.000157442
0.000157441
0.00015618
0.000156181
0.000156181
0.000156181
0.000156182
0.000156182
0.000156182
0.000156183
0.000156183
0.000156184
0.000156184
0.000156185
0.000156185
0.000156185
0.000156186
0.000156186
0.000156186
0.000156186
0.000156187
0.000156187
0.000156187
0.000156187
0.000156187
0.000156187
0.000156187
0.000156187
0.000156187
0.000156187
0.000156186
0.000156186
0.000156186
0.000156185
0.000156185
0.000156185
0.000156184
0.000156184
0.000156183
0.000156183
0.000156182
0.000156182
0.000156181
0.00015618
0.00015618
0.000156179
0.000156178
0.000156177
0.000156177
0.000156176
0.000156175
0.000156174
0.000156173
0.000156172
0.000156171
0.00015617
0.000156169
0.000156168
0.000156167
0.000156166
0.000156165
0.000154853
0.000154853
0.000154853
0.000154854
0.000154854
0.000154855
0.000154855
0.000154855
0.000154856
0.000154856
0.000154857
0.000154857
0.000154858
0.000154858
0.000154858
0.000154859
0.000154859
0.000154859
0.000154859
0.00015486
0.00015486
0.00015486
0.00015486
0.00015486
0.00015486
0.00015486
0.00015486
0.000154859
0.000154859
0.000154859
0.000154859
0.000154858
0.000154858
0.000154858
0.000154857
0.000154857
0.000154856
0.000154856
0.000154855
0.000154854
0.000154854
0.000154853
0.000154853
0.000154852
0.000154851
0.00015485
0.000154849
0.000154849
0.000154848
0.000154847
0.000154846
0.000154845
0.000154844
0.000154843
0.000154842
0.000154841
0.00015484
0.000154839
0.000154838
0.000153476
0.000153476
0.000153477
0.000153477
0.000153478
0.000153478
0.000153479
0.000153479
0.000153479
0.00015348
0.00015348
0.000153481
0.000153481
0.000153482
0.000153482
0.000153482
0.000153482
0.000153483
0.000153483
0.000153483
0.000153483
0.000153483
0.000153483
0.000153483
0.000153483
0.000153483
0.000153483
0.000153483
0.000153483
0.000153483
0.000153482
0.000153482
0.000153482
0.000153481
0.000153481
0.00015348
0.00015348
0.000153479
0.000153479
0.000153478
0.000153478
0.000153477
0.000153476
0.000153476
0.000153475
0.000153474
0.000153473
0.000153473
0.000153472
0.000153471
0.00015347
0.000153469
0.000153468
0.000153467
0.000153466
0.000153465
0.000153464
0.000153463
0.000153462
0.000152053
0.000152053
0.000152054
0.000152054
0.000152055
0.000152055
0.000152055
0.000152056
0.000152056
0.000152057
0.000152057
0.000152058
0.000152058
0.000152058
0.000152059
0.000152059
0.000152059
0.00015206
0.00015206
0.00015206
0.00015206
0.00015206
0.00015206
0.00015206
0.00015206
0.00015206
0.00015206
0.00015206
0.00015206
0.00015206
0.000152059
0.000152059
0.000152059
0.000152058
0.000152058
0.000152058
0.000152057
0.000152057
0.000152056
0.000152055
0.000152055
0.000152054
0.000152054
0.000152053
0.000152052
0.000152051
0.000152051
0.00015205
0.000152049
0.000152048
0.000152047
0.000152046
0.000152045
0.000152044
0.000152043
0.000152042
0.000152041
0.00015204
0.000152039
0.000150585
0.000150586
0.000150586
0.000150587
0.000150587
0.000150588
0.000150588
0.000150589
0.000150589
0.000150589
0.00015059
0.00015059
0.000150591
0.000150591
0.000150591
0.000150592
0.000150592
0.000150592
0.000150593
0.000150593
0.000150593
0.000150593
0.000150593
0.000150593
0.000150593
0.000150593
0.000150593
0.000150593
0.000150593
0.000150593
0.000150592
0.000150592
0.000150592
0.000150591
0.000150591
0.00015059
0.00015059
0.000150589
0.000150589
0.000150588
0.000150588
0.000150587
0.000150587
0.000150586
0.000150585
0.000150584
0.000150584
0.000150583
0.000150582
0.000150581
0.00015058
0.000150579
0.000150578
0.000150577
0.000150576
0.000150575
0.000150574
0.000150573
0.000150572
0.000149076
0.000149077
0.000149077
0.000149078
0.000149078
0.000149079
0.000149079
0.00014908
0.00014908
0.000149081
0.000149081
0.000149081
0.000149082
0.000149082
0.000149083
0.000149083
0.000149083
0.000149083
0.000149084
0.000149084
0.000149084
0.000149084
0.000149084
0.000149084
0.000149084
0.000149084
0.000149084
0.000149084
0.000149084
0.000149084
0.000149084
0.000149083
0.000149083
0.000149083
0.000149082
0.000149082
0.000149081
0.000149081
0.00014908
0.00014908
0.000149079
0.000149079
0.000149078
0.000149077
0.000149077
0.000149076
0.000149075
0.000149074
0.000149073
0.000149073
0.000149072
0.000149071
0.00014907
0.000149069
0.000149068
0.000149067
0.000149066
0.000149065
0.000149064
0.000147529
0.000147529
0.00014753
0.00014753
0.000147531
0.000147531
0.000147532
0.000147532
0.000147533
0.000147533
0.000147533
0.000147534
0.000147534
0.000147535
0.000147535
0.000147535
0.000147536
0.000147536
0.000147536
0.000147536
0.000147536
0.000147537
0.000147537
0.000147537
0.000147537
0.000147537
0.000147537
0.000147537
0.000147536
0.000147536
0.000147536
0.000147536
0.000147535
0.000147535
0.000147535
0.000147534
0.000147534
0.000147533
0.000147533
0.000147532
0.000147532
0.000147531
0.000147531
0.00014753
0.000147529
0.000147529
0.000147528
0.000147527
0.000147526
0.000147525
0.000147524
0.000147524
0.000147523
0.000147522
0.000147521
0.00014752
0.000147519
0.000147518
0.000147517
0.000145945
0.000145946
0.000145946
0.000145947
0.000145947
0.000145948
0.000145948
0.000145949
0.000145949
0.000145949
0.00014595
0.00014595
0.000145951
0.000145951
0.000145951
0.000145952
0.000145952
0.000145952
0.000145953
0.000145953
0.000145953
0.000145953
0.000145953
0.000145953
0.000145953
0.000145953
0.000145953
0.000145953
0.000145953
0.000145953
0.000145953
0.000145952
0.000145952
0.000145952
0.000145951
0.000145951
0.00014595
0.00014595
0.00014595
0.000145949
0.000145948
0.000145948
0.000145947
0.000145947
0.000145946
0.000145945
0.000145945
0.000145944
0.000145943
0.000145942
0.000145941
0.00014594
0.00014594
0.000145939
0.000145938
0.000145937
0.000145936
0.000145935
0.000145934
0.000144329
0.000144329
0.00014433
0.00014433
0.000144331
0.000144331
0.000144332
0.000144332
0.000144333
0.000144333
0.000144333
0.000144334
0.000144334
0.000144335
0.000144335
0.000144335
0.000144336
0.000144336
0.000144336
0.000144336
0.000144336
0.000144337
0.000144337
0.000144337
0.000144337
0.000144337
0.000144337
0.000144337
0.000144336
0.000144336
0.000144336
0.000144336
0.000144336
0.000144335
0.000144335
0.000144335
0.000144334
0.000144334
0.000144333
0.000144333
0.000144332
0.000144332
0.000144331
0.00014433
0.00014433
0.000144329
0.000144328
0.000144328
0.000144327
0.000144326
0.000144325
0.000144324
0.000144324
0.000144323
0.000144322
0.000144321
0.00014432
0.000144319
0.000144318
0.000142683
0.000142683
0.000142683
0.000142684
0.000142685
0.000142685
0.000142685
0.000142686
0.000142686
0.000142687
0.000142687
0.000142688
0.000142688
0.000142688
0.000142689
0.000142689
0.000142689
0.00014269
0.00014269
0.00014269
0.00014269
0.00014269
0.00014269
0.00014269
0.000142691
0.000142691
0.00014269
0.00014269
0.00014269
0.00014269
0.00014269
0.00014269
0.000142689
0.000142689
0.000142689
0.000142688
0.000142688
0.000142688
0.000142687
0.000142687
0.000142686
0.000142686
0.000142685
0.000142685
0.000142684
0.000142683
0.000142683
0.000142682
0.000142681
0.00014268
0.00014268
0.000142679
0.000142678
0.000142677
0.000142676
0.000142675
0.000142674
0.000142673
0.000142672
0.00014101
0.00014101
0.000141011
0.000141011
0.000141012
0.000141012
0.000141013
0.000141013
0.000141014
0.000141014
0.000141014
0.000141015
0.000141015
0.000141016
0.000141016
0.000141016
0.000141017
0.000141017
0.000141017
0.000141017
0.000141017
0.000141018
0.000141018
0.000141018
0.000141018
0.000141018
0.000141018
0.000141018
0.000141018
0.000141017
0.000141017
0.000141017
0.000141017
0.000141016
0.000141016
0.000141016
0.000141015
0.000141015
0.000141015
0.000141014
0.000141014
0.000141013
0.000141013
0.000141012
0.000141011
0.000141011
0.00014101
0.000141009
0.000141009
0.000141008
0.000141007
0.000141006
0.000141006
0.000141005
0.000141004
0.000141003
0.000141002
0.000141001
0.000141
0.000139314
0.000139314
0.000139315
0.000139315
0.000139316
0.000139316
0.000139317
0.000139317
0.000139318
0.000139318
0.000139318
0.000139319
0.000139319
0.00013932
0.00013932
0.00013932
0.000139321
0.000139321
0.000139321
0.000139321
0.000139321
0.000139322
0.000139322
0.000139322
0.000139322
0.000139322
0.000139322
0.000139322
0.000139322
0.000139321
0.000139321
0.000139321
0.000139321
0.000139321
0.00013932
0.00013932
0.00013932
0.000139319
0.000139319
0.000139318
0.000139318
0.000139317
0.000139317
0.000139316
0.000139316
0.000139315
0.000139315
0.000139314
0.000139313
0.000139312
0.000139312
0.000139311
0.00013931
0.000139309
0.000139308
0.000139307
0.000139307
0.000139306
0.000139305
0.000137598
0.000137599
0.000137599
0.0001376
0.0001376
0.000137601
0.000137601
0.000137601
0.000137602
0.000137602
0.000137603
0.000137603
0.000137604
0.000137604
0.000137604
0.000137605
0.000137605
0.000137605
0.000137605
0.000137605
0.000137606
0.000137606
0.000137606
0.000137606
0.000137606
0.000137606
0.000137606
0.000137606
0.000137606
0.000137606
0.000137606
0.000137605
0.000137605
0.000137605
0.000137605
0.000137604
0.000137604
0.000137604
0.000137603
0.000137603
0.000137602
0.000137602
0.000137601
0.000137601
0.0001376
0.0001376
0.000137599
0.000137599
0.000137598
0.000137597
0.000137596
0.000137596
0.000137595
0.000137594
0.000137593
0.000137592
0.000137591
0.000137591
0.00013759
0.000135866
0.000135867
0.000135867
0.000135868
0.000135868
0.000135869
0.000135869
0.00013587
0.00013587
0.00013587
0.000135871
0.000135871
0.000135872
0.000135872
0.000135872
0.000135873
0.000135873
0.000135873
0.000135873
0.000135873
0.000135874
0.000135874
0.000135874
0.000135874
0.000135874
0.000135874
0.000135874
0.000135874
0.000135874
0.000135874
0.000135874
0.000135873
0.000135873
0.000135873
0.000135873
0.000135873
0.000135872
0.000135872
0.000135871
0.000135871
0.000135871
0.00013587
0.00013587
0.000135869
0.000135869
0.000135868
0.000135868
0.000135867
0.000135866
0.000135866
0.000135865
0.000135864
0.000135863
0.000135863
0.000135862
0.000135861
0.00013586
0.000135859
0.000135858
0.000134122
0.000134122
0.000134123
0.000134123
0.000134124
0.000134124
0.000134124
0.000134125
0.000134125
0.000134126
0.000134126
0.000134127
0.000134127
0.000134127
0.000134128
0.000134128
0.000134128
0.000134128
0.000134129
0.000134129
0.000134129
0.000134129
0.000134129
0.000134129
0.000134129
0.000134129
0.000134129
0.000134129
0.000134129
0.000134129
0.000134129
0.000134129
0.000134129
0.000134128
0.000134128
0.000134128
0.000134128
0.000134127
0.000134127
0.000134127
0.000134126
0.000134126
0.000134125
0.000134125
0.000134124
0.000134124
0.000134123
0.000134123
0.000134122
0.000134121
0.000134121
0.00013412
0.000134119
0.000134119
0.000134118
0.000134117
0.000134116
0.000134115
0.000134114
0.000132368
0.000132368
0.000132369
0.000132369
0.00013237
0.00013237
0.000132371
0.000132371
0.000132372
0.000132372
0.000132372
0.000132373
0.000132373
0.000132374
0.000132374
0.000132374
0.000132374
0.000132375
0.000132375
0.000132375
0.000132375
0.000132375
0.000132375
0.000132376
0.000132376
0.000132376
0.000132376
0.000132376
0.000132376
0.000132375
0.000132375
0.000132375
0.000132375
0.000132375
0.000132375
0.000132374
0.000132374
0.000132374
0.000132373
0.000132373
0.000132373
0.000132372
0.000132372
0.000132371
0.000132371
0.00013237
0.00013237
0.000132369
0.000132369
0.000132368
0.000132367
0.000132367
0.000132366
0.000132365
0.000132365
0.000132364
0.000132363
0.000132362
0.000132361
0.000130609
0.000130609
0.00013061
0.00013061
0.000130611
0.000130611
0.000130612
0.000130612
0.000130612
0.000130613
0.000130613
0.000130614
0.000130614
0.000130614
0.000130615
0.000130615
0.000130615
0.000130615
0.000130616
0.000130616
0.000130616
0.000130616
0.000130616
0.000130616
0.000130616
0.000130616
0.000130616
0.000130616
0.000130616
0.000130616
0.000130616
0.000130616
0.000130616
0.000130616
0.000130615
0.000130615
0.000130615
0.000130615
0.000130614
0.000130614
0.000130614
0.000130613
0.000130613
0.000130612
0.000130612
0.000130611
0.000130611
0.00013061
0.00013061
0.000130609
0.000130609
0.000130608
0.000130607
0.000130607
0.000130606
0.000130605
0.000130604
0.000130604
0.000130603
0.000128848
0.000128848
0.000128849
0.000128849
0.00012885
0.00012885
0.000128851
0.000128851
0.000128851
0.000128852
0.000128852
0.000128853
0.000128853
0.000128853
0.000128854
0.000128854
0.000128854
0.000128854
0.000128855
0.000128855
0.000128855
0.000128855
0.000128855
0.000128855
0.000128855
0.000128855
0.000128855
0.000128855
0.000128855
0.000128855
0.000128855
0.000128855
0.000128855
0.000128855
0.000128854
0.000128854
0.000128854
0.000128854
0.000128853
0.000128853
0.000128853
0.000128852
0.000128852
0.000128852
0.000128851
0.000128851
0.00012885
0.00012885
0.000128849
0.000128849
0.000128848
0.000128847
0.000128847
0.000128846
0.000128845
0.000128845
0.000128844
0.000128843
0.000128842
0.000127089
0.000127089
0.000127089
0.00012709
0.00012709
0.000127091
0.000127091
0.000127092
0.000127092
0.000127092
0.000127093
0.000127093
0.000127094
0.000127094
0.000127094
0.000127094
0.000127095
0.000127095
0.000127095
0.000127095
0.000127096
0.000127096
0.000127096
0.000127096
0.000127096
0.000127096
0.000127096
0.000127096
0.000127096
0.000127096
0.000127096
0.000127096
0.000127096
0.000127095
0.000127095
0.000127095
0.000127095
0.000127094
0.000127094
0.000127094
0.000127094
0.000127093
0.000127093
0.000127092
0.000127092
0.000127092
0.000127091
0.000127091
0.00012709
0.00012709
0.000127089
0.000127089
0.000127088
0.000127087
0.000127087
0.000127086
0.000127085
0.000127085
0.000127084
0.000125335
0.000125335
0.000125335
0.000125336
0.000125336
0.000125337
0.000125337
0.000125338
0.000125338
0.000125338
0.000125339
0.000125339
0.000125339
0.00012534
0.00012534
0.00012534
0.000125341
0.000125341
0.000125341
0.000125341
0.000125341
0.000125342
0.000125342
0.000125342
0.000125342
0.000125342
0.000125342
0.000125342
0.000125342
0.000125342
0.000125342
0.000125342
0.000125342
0.000125341
0.000125341
0.000125341
0.000125341
0.000125341
0.00012534
0.00012534
0.00012534
0.000125339
0.000125339
0.000125339
0.000125338
0.000125338
0.000125337
0.000125337
0.000125336
0.000125336
0.000125335
0.000125335
0.000125334
0.000125334
0.000125333
0.000125332
0.000125332
0.000125331
0.00012533
0.00012359
0.00012359
0.00012359
0.000123591
0.000123591
0.000123591
0.000123592
0.000123592
0.000123593
0.000123593
0.000123593
0.000123594
0.000123594
0.000123594
0.000123595
0.000123595
0.000123595
0.000123595
0.000123596
0.000123596
0.000123596
0.000123596
0.000123596
0.000123596
0.000123596
0.000123597
0.000123597
0.000123597
0.000123597
0.000123596
0.000123596
0.000123596
0.000123596
0.000123596
0.000123596
0.000123596
0.000123596
0.000123595
0.000123595
0.000123595
0.000123595
0.000123594
0.000123594
0.000123594
0.000123593
0.000123593
0.000123592
0.000123592
0.000123592
0.000123591
0.000123591
0.00012359
0.000123589
0.000123589
0.000123588
0.000123588
0.000123587
0.000123586
0.000123586
0.000121857
0.000121857
0.000121857
0.000121857
0.000121858
0.000121858
0.000121859
0.000121859
0.000121859
0.00012186
0.00012186
0.000121861
0.000121861
0.000121861
0.000121861
0.000121862
0.000121862
0.000121862
0.000121862
0.000121863
0.000121863
0.000121863
0.000121863
0.000121863
0.000121863
0.000121863
0.000121863
0.000121863
0.000121863
0.000121863
0.000121863
0.000121863
0.000121863
0.000121863
0.000121863
0.000121863
0.000121862
0.000121862
0.000121862
0.000121862
0.000121861
0.000121861
0.000121861
0.000121861
0.00012186
0.00012186
0.000121859
0.000121859
0.000121859
0.000121858
0.000121858
0.000121857
0.000121857
0.000121856
0.000121856
0.000121855
0.000121854
0.000121854
0.000121853
0.000120139
0.000120139
0.000120139
0.00012014
0.00012014
0.00012014
0.000120141
0.000120141
0.000120142
0.000120142
0.000120142
0.000120143
0.000120143
0.000120143
0.000120144
0.000120144
0.000120144
0.000120144
0.000120145
0.000120145
0.000120145
0.000120145
0.000120145
0.000120145
0.000120145
0.000120146
0.000120146
0.000120146
0.000120146
0.000120146
0.000120146
0.000120145
0.000120145
0.000120145
0.000120145
0.000120145
0.000120145
0.000120145
0.000120144
0.000120144
0.000120144
0.000120144
0.000120143
0.000120143
0.000120143
0.000120142
0.000120142
0.000120142
0.000120141
0.000120141
0.00012014
0.00012014
0.000120139
0.000120139
0.000120138
0.000120138
0.000120137
0.000120137
0.000120136
0.00011844
0.00011844
0.00011844
0.000118441
0.000118441
0.000118441
0.000118442
0.000118442
0.000118443
0.000118443
0.000118443
0.000118444
0.000118444
0.000118444
0.000118445
0.000118445
0.000118445
0.000118445
0.000118446
0.000118446
0.000118446
0.000118446
0.000118446
0.000118446
0.000118446
0.000118446
0.000118446
0.000118446
0.000118447
0.000118446
0.000118446
0.000118446
0.000118446
0.000118446
0.000118446
0.000118446
0.000118446
0.000118446
0.000118445
0.000118445
0.000118445
0.000118445
0.000118444
0.000118444
0.000118444
0.000118444
0.000118443
0.000118443
0.000118442
0.000118442
0.000118442
0.000118441
0.000118441
0.00011844
0.00011844
0.000118439
0.000118439
0.000118438
0.000118438
0.000116763
0.000116762
0.000116763
0.000116763
0.000116764
0.000116764
0.000116764
0.000116765
0.000116765
0.000116765
0.000116766
0.000116766
0.000116767
0.000116767
0.000116767
0.000116767
0.000116768
0.000116768
0.000116768
0.000116768
0.000116768
0.000116769
0.000116769
0.000116769
0.000116769
0.000116769
0.000116769
0.000116769
0.000116769
0.000116769
0.000116769
0.000116769
0.000116769
0.000116769
0.000116769
0.000116769
0.000116769
0.000116768
0.000116768
0.000116768
0.000116768
0.000116768
0.000116767
0.000116767
0.000116767
0.000116766
0.000116766
0.000116766
0.000116765
0.000116765
0.000116765
0.000116764
0.000116764
0.000116763
0.000116763
0.000116762
0.000116762
0.000116761
0.000116761
0.00011511
0.00011511
0.00011511
0.000115111
0.000115111
0.000115111
0.000115112
0.000115112
0.000115112
0.000115113
0.000115113
0.000115113
0.000115114
0.000115114
0.000115114
0.000115115
0.000115115
0.000115115
0.000115115
0.000115116
0.000115116
0.000115116
0.000115116
0.000115116
0.000115116
0.000115116
0.000115116
0.000115116
0.000115116
0.000115116
0.000115116
0.000115116
0.000115116
0.000115116
0.000115116
0.000115116
0.000115116
0.000115116
0.000115116
0.000115115
0.000115115
0.000115115
0.000115115
0.000115115
0.000115114
0.000115114
0.000115114
0.000115113
0.000115113
0.000115113
0.000115112
0.000115112
0.000115112
0.000115111
0.000115111
0.00011511
0.00011511
0.000115109
0.000115109
0.000113485
0.000113485
0.000113485
0.000113485
0.000113486
0.000113486
0.000113486
0.000113487
0.000113487
0.000113488
0.000113488
0.000113488
0.000113489
0.000113489
0.000113489
0.000113489
0.00011349
0.00011349
0.00011349
0.00011349
0.00011349
0.000113491
0.000113491
0.000113491
0.000113491
0.000113491
0.000113491
0.000113491
0.000113491
0.000113491
0.000113491
0.000113491
0.000113491
0.000113491
0.000113491
0.000113491
0.000113491
0.000113491
0.000113491
0.00011349
0.00011349
0.00011349
0.00011349
0.00011349
0.000113489
0.000113489
0.000113489
0.000113489
0.000113488
0.000113488
0.000113488
0.000113487
0.000113487
0.000113486
0.000113486
0.000113485
0.000113485
0.000113484
0.000113484
0.00011189
0.00011189
0.00011189
0.00011189
0.000111891
0.000111891
0.000111891
0.000111892
0.000111892
0.000111892
0.000111893
0.000111893
0.000111893
0.000111894
0.000111894
0.000111894
0.000111895
0.000111895
0.000111895
0.000111895
0.000111895
0.000111896
0.000111896
0.000111896
0.000111896
0.000111896
0.000111896
0.000111896
0.000111896
0.000111896
0.000111896
0.000111896
0.000111896
0.000111896
0.000111896
0.000111896
0.000111896
0.000111896
0.000111896
0.000111896
0.000111895
0.000111895
0.000111895
0.000111895
0.000111895
0.000111894
0.000111894
0.000111894
0.000111894
0.000111893
0.000111893
0.000111893
0.000111892
0.000111892
0.000111891
0.000111891
0.00011189
0.00011189
0.00011189
0.000110328
0.000110327
0.000110328
0.000110328
0.000110328
0.000110329
0.000110329
0.000110329
0.00011033
0.00011033
0.000110331
0.000110331
0.000110331
0.000110331
0.000110332
0.000110332
0.000110332
0.000110333
0.000110333
0.000110333
0.000110333
0.000110333
0.000110333