/*--------------------------------*- C++ -*----------------------------------*\
  =========                 |
  \\      /  F ield         | OpenFOAM: The Open Source CFD Toolbox
   \\    /   O peration     | Website:  https://openfoam.org
    \\  /    A nd           | Version:  7
     \\/     M anipulation  |
\*---------------------------------------------------------------------------*/
FoamFile
{
    version     2.0;
    format      ascii;
    class       volScalarField;
    location    "4000";
    object      omega;
}
// * * * * * * * * * * * * * * * * * * * * * * * * * * * * * * * * * * * * * //

dimensions      [0 0 -1 0 0 0 0];

internalField   nonuniform List<scalar> 
3974
(
0.649242
0.649251
0.649257
0.649263
0.649269
0.649275
0.64928
0.649285
0.64929
0.649294
0.649298
0.649301
0.649305
0.649308
0.649311
0.649314
0.649317
0.649319
0.649322
0.649324
0.649327
0.649329
0.649331
0.649333
0.649334
0.649336
0.649338
0.649339
0.649341
0.649342
0.649343
0.649345
0.649346
0.649347
0.649348
0.649349
0.64935
0.64935
0.614173
0.614175
0.614147
0.61414
0.614139
0.614142
0.614145
0.614149
0.614152
0.614156
0.61416
0.614163
0.614166
0.614169
0.614172
0.614175
0.614178
0.614181
0.614183
0.614186
0.614188
0.614191
0.614193
0.614195
0.614197
0.614199
0.614201
0.614202
0.614204
0.614206
0.614207
0.614209
0.61421
0.614211
0.614212
0.614214
0.614215
0.614216
0.614217
0.614214
0.614272
0.614284
0.581391
0.581388
0.58136
0.581351
0.581333
0.581321
0.581316
0.581315
0.581315
0.581317
0.581319
0.581322
0.581324
0.581327
0.58133
0.581332
0.581335
0.581337
0.58134
0.581342
0.581345
0.581347
0.58135
0.581352
0.581354
0.581356
0.581358
0.58136
0.581362
0.581364
0.581365
0.581367
0.581369
0.58137
0.581372
0.581373
0.581374
0.581376
0.581377
0.581378
0.581379
0.581377
0.581404
0.581419
0.581471
0.581479
0.581473
0.581465
0.581458
0.581452
0.581446
0.581441
0.581436
0.581432
0.581428
0.581424
0.58142
0.581417
0.581411
0.550622
0.550621
0.550604
0.550592
0.550578
0.550566
0.550559
0.550555
0.550554
0.550554
0.550555
0.550557
0.550558
0.55056
0.550562
0.550564
0.550566
0.550568
0.550571
0.550573
0.550575
0.550578
0.55058
0.550582
0.550584
0.550586
0.550588
0.55059
0.550592
0.550594
0.550596
0.550598
0.550599
0.550601
0.550602
0.550604
0.550605
0.550607
0.550608
0.550609
0.550611
0.550609
0.550622
0.550633
0.550663
0.55068
0.550683
0.550681
0.550678
0.550674
0.55067
0.550667
0.550663
0.55066
0.550656
0.550653
0.55065
0.550648
0.550642
0.521722
0.521723
0.521712
0.521701
0.52169
0.52168
0.521672
0.521667
0.521664
0.521663
0.521663
0.521664
0.521665
0.521666
0.521667
0.521669
0.521671
0.521673
0.521675
0.521677
0.521679
0.521681
0.521683
0.521685
0.521688
0.52169
0.521692
0.521694
0.521696
0.521698
0.521699
0.521701
0.521703
0.521705
0.521706
0.521708
0.521709
0.521711
0.521712
0.521714
0.521715
0.521715
0.521721
0.521729
0.521746
0.521761
0.521769
0.521771
0.521771
0.52177
0.521768
0.521765
0.521763
0.521761
0.521758
0.521756
0.521754
0.521753
0.521747
0.494523
0.494524
0.494517
0.494508
0.494499
0.494491
0.494484
0.494479
0.494475
0.494474
0.494473
0.494473
0.494473
0.494474
0.494475
0.494476
0.494477
0.494479
0.494481
0.494483
0.494485
0.494487
0.494489
0.494491
0.494493
0.494495
0.494498
0.4945
0.494502
0.494504
0.494505
0.494507
0.494509
0.494511
0.494513
0.494514
0.494516
0.494518
0.494519
0.494521
0.494522
0.494523
0.494526
0.494531
0.494541
0.494553
0.494561
0.494566
0.494568
0.494568
0.494568
0.494567
0.494566
0.494565
0.494563
0.494562
0.494561
0.494559
0.494556
0.468876
0.468876
0.468872
0.468865
0.468859
0.468852
0.468846
0.468841
0.468838
0.468836
0.468835
0.468834
0.468834
0.468834
0.468835
0.468836
0.468837
0.468839
0.46884
0.468842
0.468844
0.468846
0.468848
0.46885
0.468853
0.468855
0.468857
0.468859
0.468861
0.468863
0.468865
0.468867
0.468869
0.468871
0.468873
0.468874
0.468876
0.468878
0.46888
0.468881
0.468883
0.468884
0.468886
0.46889
0.468896
0.468904
0.468911
0.468917
0.46892
0.468922
0.468923
0.468923
0.468923
0.468923
0.468922
0.468922
0.468921
0.46892
0.468918
0.444652
0.444652
0.444648
0.444644
0.444639
0.444633
0.444629
0.444625
0.444622
0.44462
0.444618
0.444618
0.444617
0.444618
0.444618
0.444619
0.44462
0.444621
0.444623
0.444624
0.444626
0.444628
0.44463
0.444633
0.444635
0.444637
0.444639
0.444641
0.444643
0.444645
0.444647
0.44465
0.444652
0.444654
0.444656
0.444657
0.444659
0.444661
0.444663
0.444665
0.444667
0.444668
0.44467
0.444673
0.444677
0.444682
0.444688
0.444693
0.444697
0.4447
0.444702
0.444703
0.444704
0.444704
0.444705
0.444704
0.444704
0.444704
0.444704
0.421737
0.421735
0.421733
0.421729
0.421725
0.421721
0.421718
0.421715
0.421712
0.421711
0.421709
0.421709
0.421708
0.421708
0.421709
0.421709
0.42171
0.421712
0.421713
0.421715
0.421717
0.421719
0.421721
0.421723
0.421725
0.421727
0.42173
0.421732
0.421734
0.421736
0.421739
0.421741
0.421743
0.421745
0.421747
0.421749
0.421751
0.421753
0.421755
0.421757
0.421759
0.421761
0.421763
0.421765
0.421768
0.421772
0.421777
0.421781
0.421785
0.421788
0.421791
0.421793
0.421794
0.421795
0.421796
0.421796
0.421797
0.421797
0.421798
0.400031
0.400027
0.400024
0.400022
0.400019
0.400016
0.400013
0.400011
0.400009
0.400008
0.400007
0.400007
0.400007
0.400007
0.400007
0.400008
0.400009
0.40001
0.400011
0.400013
0.400015
0.400017
0.400019
0.400021
0.400024
0.400026
0.400028
0.40003
0.400033
0.400035
0.400037
0.40004
0.400042
0.400044
0.400046
0.400049
0.400051
0.400053
0.400055
0.400057
0.400059
0.400061
0.400063
0.400065
0.400068
0.400071
0.400075
0.400079
0.400082
0.400086
0.400088
0.400091
0.400093
0.400094
0.400095
0.400097
0.400098
0.400098
0.400101
0.379443
0.379438
0.379435
0.379433
0.379431
0.379429
0.379427
0.379426
0.379425
0.379424
0.379423
0.379423
0.379423
0.379423
0.379424
0.379425
0.379426
0.379427
0.379429
0.37943
0.379432
0.379434
0.379437
0.379439
0.379441
0.379443
0.379446
0.379448
0.379451
0.379453
0.379455
0.379458
0.37946
0.379463
0.379465
0.379467
0.37947
0.379472
0.379474
0.379476
0.379479
0.379481
0.379483
0.379485
0.379488
0.37949
0.379494
0.379497
0.3795
0.379503
0.379506
0.379509
0.379511
0.379513
0.379515
0.379516
0.379518
0.379518
0.379523
0.359896
0.359889
0.359887
0.359885
0.359884
0.359883
0.359881
0.359881
0.35988
0.35988
0.35988
0.35988
0.35988
0.35988
0.359881
0.359882
0.359883
0.359884
0.359886
0.359888
0.35989
0.359892
0.359894
0.359897
0.359899
0.359902
0.359904
0.359907
0.359909
0.359912
0.359914
0.359917
0.359919
0.359922
0.359924
0.359927
0.359929
0.359932
0.359934
0.359936
0.359939
0.359941
0.359944
0.359946
0.359948
0.359951
0.359954
0.359957
0.35996
0.359963
0.359966
0.359968
0.359971
0.359973
0.359975
0.359977
0.359979
0.359979
0.359986
0.341321
0.341313
0.34131
0.341309
0.341308
0.341307
0.341307
0.341306
0.341306
0.341306
0.341307
0.341307
0.341308
0.341308
0.341309
0.34131
0.341312
0.341313
0.341315
0.341317
0.341319
0.341321
0.341324
0.341326
0.341329
0.341331
0.341334
0.341336
0.341339
0.341342
0.341344
0.341347
0.34135
0.341352
0.341355
0.341357
0.34136
0.341363
0.341365
0.341368
0.34137
0.341373
0.341375
0.341378
0.34138
0.341383
0.341386
0.341389
0.341391
0.341394
0.341397
0.3414
0.341403
0.341405
0.341407
0.34141
0.341412
0.341412
0.34142
0.323656
0.323647
0.323644
0.323643
0.323642
0.323642
0.323642
0.323642
0.323642
0.323643
0.323643
0.323644
0.323645
0.323646
0.323647
0.323648
0.32365
0.323651
0.323653
0.323655
0.323658
0.32366
0.323663
0.323665
0.323668
0.32367
0.323673
0.323676
0.323679
0.323681
0.323684
0.323687
0.32369
0.323692
0.323695
0.323698
0.323701
0.323704
0.323706
0.323709
0.323712
0.323714
0.323717
0.32372
0.323722
0.323725
0.323728
0.32373
0.323733
0.323736
0.323739
0.323742
0.323745
0.323747
0.32375
0.323752
0.323755
0.323755
0.323764
0.306847
0.306836
0.306833
0.306832
0.306832
0.306831
0.306832
0.306832
0.306833
0.306834
0.306835
0.306836
0.306837
0.306838
0.30684
0.306841
0.306843
0.306845
0.306847
0.306849
0.306851
0.306854
0.306857
0.306859
0.306862
0.306865
0.306868
0.30687
0.306873
0.306876
0.306879
0.306882
0.306885
0.306888
0.306891
0.306894
0.306897
0.3069
0.306902
0.306905
0.306908
0.306911
0.306914
0.306917
0.306919
0.306922
0.306925
0.306928
0.306931
0.306934
0.306936
0.306939
0.306942
0.306945
0.306948
0.30695
0.306953
0.306954
0.306963
0.290844
0.290831
0.290828
0.290828
0.290828
0.290828
0.290828
0.290829
0.29083
0.290831
0.290833
0.290834
0.290836
0.290837
0.290839
0.29084
0.290842
0.290844
0.290847
0.290849
0.290852
0.290854
0.290857
0.29086
0.290863
0.290866
0.290868
0.290871
0.290874
0.290877
0.29088
0.290884
0.290887
0.29089
0.290893
0.290896
0.290899
0.290902
0.290905
0.290908
0.290911
0.290914
0.290917
0.29092
0.290923
0.290926
0.290928
0.290931
0.290934
0.290937
0.29094
0.290943
0.290946
0.290949
0.290952
0.290954
0.290957
0.290958
0.290969
0.275604
0.27559
0.275587
0.275586
0.275587
0.275587
0.275588
0.275589
0.27559
0.275592
0.275593
0.275595
0.275597
0.275598
0.2756
0.275602
0.275604
0.275607
0.275609
0.275612
0.275614
0.275617
0.27562
0.275623
0.275626
0.275629
0.275632
0.275635
0.275638
0.275641
0.275645
0.275648
0.275651
0.275654
0.275657
0.27566
0.275664
0.275667
0.27567
0.275673
0.275676
0.275679
0.275682
0.275686
0.275689
0.275692
0.275695
0.275698
0.275701
0.275704
0.275707
0.27571
0.275713
0.275716
0.275719
0.275721
0.275724
0.275725
0.275737
0.261088
0.261073
0.261069
0.261069
0.261069
0.26107
0.261071
0.261073
0.261074
0.261076
0.261078
0.26108
0.261082
0.261083
0.261085
0.261088
0.26109
0.261092
0.261095
0.261098
0.261101
0.261104
0.261107
0.26111
0.261113
0.261116
0.261119
0.261122
0.261126
0.261129
0.261132
0.261135
0.261139
0.261142
0.261145
0.261149
0.261152
0.261155
0.261159
0.261162
0.261165
0.261168
0.261172
0.261175
0.261178
0.261181
0.261184
0.261187
0.261191
0.261194
0.261197
0.2612
0.261203
0.261206
0.261209
0.261212
0.261215
0.261216
0.261229
0.24726
0.247244
0.247241
0.24724
0.247241
0.247242
0.247243
0.247245
0.247247
0.247248
0.24725
0.247253
0.247255
0.247257
0.247259
0.247261
0.247264
0.247267
0.247269
0.247272
0.247275
0.247278
0.247282
0.247285
0.247288
0.247291
0.247295
0.247298
0.247301
0.247305
0.247308
0.247311
0.247315
0.247318
0.247322
0.247325
0.247329
0.247332
0.247335
0.247339
0.247342
0.247346
0.247349
0.247352
0.247356
0.247359
0.247362
0.247365
0.247369
0.247372
0.247375
0.247378
0.247381
0.247385
0.247388
0.247391
0.247394
0.247395
0.247408
0.234089
0.234072
0.234069
0.234068
0.234069
0.23407
0.234072
0.234073
0.234075
0.234078
0.23408
0.234082
0.234084
0.234087
0.234089
0.234092
0.234094
0.234097
0.2341
0.234103
0.234106
0.23411
0.234113
0.234116
0.23412
0.234123
0.234126
0.23413
0.234133
0.234137
0.23414
0.234144
0.234147
0.234151
0.234154
0.234158
0.234161
0.234165
0.234168
0.234172
0.234175
0.234179
0.234182
0.234186
0.234189
0.234193
0.234196
0.234199
0.234203
0.234206
0.234209
0.234213
0.234216
0.234219
0.234222
0.234226
0.234229
0.23423
0.234244
0.221545
0.221527
0.221524
0.221524
0.221525
0.221526
0.221528
0.22153
0.221532
0.221534
0.221537
0.221539
0.221541
0.221544
0.221547
0.221549
0.221552
0.221555
0.221558
0.221561
0.221565
0.221568
0.221571
0.221575
0.221578
0.221582
0.221585
0.221589
0.221593
0.221596
0.2216
0.221603
0.221607
0.221611
0.221614
0.221618
0.221621
0.221625
0.221629
0.221632
0.221636
0.221639
0.221643
0.221647
0.22165
0.221654
0.221657
0.221661
0.221664
0.221668
0.221671
0.221674
0.221678
0.221681
0.221684
0.221688
0.221691
0.221692
0.221706
0.209602
0.209584
0.209581
0.209581
0.209582
0.209583
0.209585
0.209587
0.209589
0.209592
0.209594
0.209597
0.209599
0.209602
0.209605
0.209608
0.209611
0.209614
0.209617
0.20962
0.209624
0.209627
0.209631
0.209634
0.209638
0.209642
0.209645
0.209649
0.209653
0.209656
0.20966
0.209664
0.209667
0.209671
0.209675
0.209678
0.209682
0.209686
0.20969
0.209693
0.209697
0.209701
0.209704
0.209708
0.209712
0.209715
0.209719
0.209722
0.209726
0.209729
0.209733
0.209736
0.20974
0.209743
0.209747
0.20975
0.209753
0.209755
0.209769
0.198236
0.198217
0.198214
0.198214
0.198215
0.198217
0.198219
0.198221
0.198223
0.198226
0.198228
0.198231
0.198234
0.198237
0.19824
0.198243
0.198246
0.198249
0.198252
0.198256
0.198259
0.198263
0.198266
0.19827
0.198274
0.198277
0.198281
0.198285
0.198289
0.198292
0.198296
0.1983
0.198304
0.198307
0.198311
0.198315
0.198319
0.198323
0.198326
0.19833
0.198334
0.198338
0.198341
0.198345
0.198349
0.198353
0.198356
0.19836
0.198363
0.198367
0.198371
0.198374
0.198378
0.198381
0.198385
0.198388
0.198392
0.198393
0.198407
0.187424
0.187404
0.1874
0.187401
0.187402
0.187404
0.187406
0.187408
0.187411
0.187413
0.187416
0.187419
0.187422
0.187425
0.187428
0.187431
0.187434
0.187438
0.187441
0.187445
0.187448
0.187452
0.187455
0.187459
0.187463
0.187467
0.187471
0.187474
0.187478
0.187482
0.187486
0.18749
0.187493
0.187497
0.187501
0.187505
0.187509
0.187513
0.187517
0.18752
0.187524
0.187528
0.187532
0.187536
0.187539
0.187543
0.187547
0.187551
0.187554
0.187558
0.187562
0.187565
0.187569
0.187572
0.187576
0.187579
0.187583
0.187585
0.187599
0.177143
0.177123
0.17712
0.17712
0.177122
0.177123
0.177126
0.177128
0.177131
0.177133
0.177136
0.177139
0.177142
0.177145
0.177148
0.177152
0.177155
0.177158
0.177162
0.177166
0.177169
0.177173
0.177177
0.177181
0.177184
0.177188
0.177192
0.177196
0.1772
0.177204
0.177208
0.177211
0.177215
0.177219
0.177223
0.177227
0.177231
0.177235
0.177239
0.177243
0.177246
0.17725
0.177254
0.177258
0.177262
0.177266
0.177269
0.177273
0.177277
0.177281
0.177284
0.177288
0.177292
0.177295
0.177299
0.177302
0.177306
0.177308
0.177322
0.167375
0.167355
0.167352
0.167352
0.167354
0.167356
0.167358
0.16736
0.167363
0.167366
0.167369
0.167372
0.167375
0.167378
0.167381
0.167385
0.167388
0.167392
0.167395
0.167399
0.167403
0.167406
0.16741
0.167414
0.167418
0.167422
0.167426
0.16743
0.167434
0.167437
0.167441
0.167445
0.167449
0.167453
0.167457
0.167461
0.167465
0.167469
0.167473
0.167477
0.167481
0.167485
0.167488
0.167492
0.167496
0.1675
0.167504
0.167508
0.167511
0.167515
0.167519
0.167523
0.167526
0.16753
0.167534
0.167537
0.167541
0.167543
0.167557
0.158101
0.15808
0.158077
0.158077
0.158079
0.158081
0.158083
0.158086
0.158089
0.158092
0.158095
0.158098
0.158101
0.158104
0.158107
0.158111
0.158114
0.158118
0.158122
0.158125
0.158129
0.158133
0.158137
0.158141
0.158145
0.158149
0.158153
0.158156
0.15816
0.158164
0.158168
0.158172
0.158176
0.15818
0.158184
0.158188
0.158192
0.158196
0.1582
0.158204
0.158208
0.158212
0.158216
0.158219
0.158223
0.158227
0.158231
0.158235
0.158239
0.158242
0.158246
0.15825
0.158254
0.158257
0.158261
0.158265
0.158268
0.15827
0.158284
0.149302
0.149281
0.149277
0.149278
0.14928
0.149282
0.149284
0.149287
0.14929
0.149293
0.149296
0.149299
0.149302
0.149305
0.149309
0.149312
0.149316
0.149319
0.149323
0.149327
0.149331
0.149335
0.149338
0.149342
0.149346
0.14935
0.149354
0.149358
0.149362
0.149366
0.14937
0.149374
0.149378
0.149382
0.149386
0.14939
0.149394
0.149398
0.149402
0.149406
0.14941
0.149414
0.149417
0.149421
0.149425
0.149429
0.149433
0.149437
0.149441
0.149444
0.149448
0.149452
0.149456
0.149459
0.149463
0.149467
0.14947
0.149472
0.149486
0.14096
0.140939
0.140936
0.140936
0.140938
0.14094
0.140943
0.140945
0.140948
0.140951
0.140954
0.140957
0.140961
0.140964
0.140967
0.140971
0.140974
0.140978
0.140982
0.140986
0.14099
0.140994
0.140997
0.141001
0.141005
0.141009
0.141013
0.141017
0.141021
0.141025
0.141029
0.141033
0.141037
0.141041
0.141045
0.141049
0.141053
0.141057
0.141061
0.141065
0.141069
0.141073
0.141077
0.14108
0.141084
0.141088
0.141092
0.141096
0.1411
0.141103
0.141107
0.141111
0.141115
0.141118
0.141122
0.141126
0.141129
0.141131
0.141144
0.133059
0.133038
0.133035
0.133035
0.133037
0.133039
0.133042
0.133045
0.133047
0.133051
0.133054
0.133057
0.13306
0.133063
0.133067
0.13307
0.133074
0.133078
0.133082
0.133085
0.133089
0.133093
0.133097
0.133101
0.133105
0.133109
0.133113
0.133117
0.133121
0.133125
0.133129
0.133133
0.133137
0.133141
0.133145
0.133149
0.133152
0.133156
0.13316
0.133164
0.133168
0.133172
0.133176
0.13318
0.133184
0.133188
0.133191
0.133195
0.133199
0.133203
0.133206
0.13321
0.133214
0.133218
0.133221
0.133225
0.133229
0.133231
0.133243
0.125582
0.125561
0.125558
0.125559
0.125561
0.125563
0.125565
0.125568
0.125571
0.125574
0.125577
0.12558
0.125584
0.125587
0.12559
0.125594
0.125598
0.125601
0.125605
0.125609
0.125613
0.125617
0.125621
0.125625
0.125629
0.125633
0.125637
0.125641
0.125644
0.125648
0.125652
0.125656
0.12566
0.125664
0.125668
0.125672
0.125676
0.12568
0.125684
0.125688
0.125691
0.125695
0.125699
0.125703
0.125707
0.125711
0.125714
0.125718
0.125722
0.125726
0.125729
0.125733
0.125737
0.12574
0.125744
0.125748
0.125751
0.125754
0.125765
0.118513
0.118493
0.118489
0.11849
0.118492
0.118494
0.118497
0.1185
0.118503
0.118506
0.118509
0.118512
0.118515
0.118519
0.118522
0.118526
0.118529
0.118533
0.118537
0.118541
0.118545
0.118548
0.118552
0.118556
0.11856
0.118564
0.118568
0.118572
0.118576
0.11858
0.118584
0.118588
0.118592
0.118595
0.118599
0.118603
0.118607
0.118611
0.118615
0.118619
0.118622
0.118626
0.11863
0.118634
0.118638
0.118641
0.118645
0.118649
0.118653
0.118656
0.11866
0.118664
0.118667
0.118671
0.118674
0.118678
0.118682
0.118684
0.118695
0.111837
0.111817
0.111813
0.111814
0.111816
0.111818
0.111821
0.111824
0.111827
0.11183
0.111833
0.111836
0.111839
0.111843
0.111846
0.11185
0.111853
0.111857
0.111861
0.111864
0.111868
0.111872
0.111876
0.11188
0.111884
0.111888
0.111892
0.111895
0.111899
0.111903
0.111907
0.111911
0.111915
0.111919
0.111922
0.111926
0.11193
0.111934
0.111938
0.111941
0.111945
0.111949
0.111953
0.111957
0.11196
0.111964
0.111968
0.111971
0.111975
0.111979
0.111982
0.111986
0.11199
0.111993
0.111997
0.112
0.112004
0.112006
0.112016
0.105537
0.105517
0.105514
0.105515
0.105517
0.105519
0.105522
0.105524
0.105527
0.10553
0.105533
0.105536
0.10554
0.105543
0.105546
0.10555
0.105554
0.105557
0.105561
0.105565
0.105569
0.105572
0.105576
0.10558
0.105584
0.105588
0.105592
0.105595
0.105599
0.105603
0.105607
0.105611
0.105615
0.105618
0.105622
0.105626
0.10563
0.105633
0.105637
0.105641
0.105645
0.105648
0.105652
0.105656
0.105659
0.105663
0.105667
0.10567
0.105674
0.105677
0.105681
0.105684
0.105688
0.105691
0.105695
0.105698
0.105702
0.105704
0.105714
0.0995987
0.0995791
0.099576
0.0995769
0.0995788
0.0995811
0.0995836
0.0995864
0.0995892
0.0995922
0.0995952
0.0995984
0.0996016
0.0996049
0.0996083
0.0996118
0.0996154
0.099619
0.0996227
0.0996265
0.0996302
0.099634
0.0996378
0.0996416
0.0996454
0.0996491
0.0996529
0.0996567
0.0996605
0.0996642
0.0996679
0.0996717
0.0996754
0.0996791
0.0996828
0.0996865
0.0996902
0.0996939
0.0996975
0.0997012
0.0997048
0.0997085
0.0997121
0.0997157
0.0997193
0.0997229
0.0997264
0.09973
0.0997335
0.099737
0.0997405
0.099744
0.0997474
0.0997509
0.0997543
0.0997576
0.0997611
0.0997636
0.0997725
0.0940066
0.0939874
0.0939845
0.0939853
0.0939872
0.0939895
0.093992
0.0939947
0.0939976
0.0940005
0.0940035
0.0940066
0.0940098
0.0940131
0.0940164
0.0940199
0.0940234
0.094027
0.0940306
0.0940343
0.094038
0.0940417
0.0940454
0.0940492
0.0940529
0.0940566
0.0940603
0.094064
0.0940677
0.0940714
0.094075
0.0940787
0.0940824
0.094086
0.0940896
0.0940932
0.0940968
0.0941004
0.094104
0.0941076
0.0941111
0.0941147
0.0941182
0.0941218
0.0941253
0.0941288
0.0941322
0.0941357
0.0941392
0.0941426
0.094146
0.0941494
0.0941528
0.0941561
0.0941595
0.0941628
0.0941661
0.0941687
0.0941768
0.0887459
0.0887272
0.0887244
0.0887252
0.0887271
0.0887294
0.0887319
0.0887345
0.0887373
0.0887402
0.0887432
0.0887462
0.0887493
0.0887526
0.0887559
0.0887593
0.0887628
0.0887663
0.0887699
0.0887735
0.0887771
0.0887807
0.0887844
0.088788
0.0887917
0.0887953
0.0887989
0.0888026
0.0888062
0.0888098
0.0888134
0.088817
0.0888205
0.0888241
0.0888276
0.0888311
0.0888347
0.0888382
0.0888417
0.0888451
0.0888486
0.0888521
0.0888555
0.088859
0.0888624
0.0888658
0.0888692
0.0888726
0.0888759
0.0888793
0.0888826
0.0888859
0.0888892
0.0888925
0.0888957
0.0888989
0.0889022
0.0889048
0.0889121
0.0838021
0.0837838
0.0837811
0.083782
0.0837838
0.0837861
0.0837885
0.0837911
0.0837939
0.0837967
0.0837996
0.0838026
0.0838057
0.0838088
0.0838121
0.0838154
0.0838188
0.0838223
0.0838258
0.0838293
0.0838329
0.0838364
0.08384
0.0838436
0.0838471
0.0838507
0.0838542
0.0838578
0.0838613
0.0838648
0.0838683
0.0838718
0.0838753
0.0838787
0.0838822
0.0838856
0.083889
0.0838925
0.0838959
0.0838992
0.0839026
0.083906
0.0839093
0.0839127
0.083916
0.0839193
0.0839226
0.0839259
0.0839292
0.0839324
0.0839356
0.0839389
0.0839421
0.0839452
0.0839484
0.0839515
0.0839547
0.0839573
0.0839638
0.0791605
0.0791428
0.0791402
0.0791411
0.079143
0.0791452
0.0791476
0.0791501
0.0791528
0.0791556
0.0791584
0.0791613
0.0791643
0.0791674
0.0791706
0.0791739
0.0791772
0.0791806
0.079184
0.0791875
0.0791909
0.0791944
0.0791979
0.0792014
0.0792048
0.0792083
0.0792118
0.0792152
0.0792186
0.0792221
0.0792255
0.0792288
0.0792322
0.0792356
0.0792389
0.0792423
0.0792456
0.0792489
0.0792522
0.0792555
0.0792588
0.0792621
0.0792653
0.0792685
0.0792718
0.079275
0.0792782
0.0792814
0.0792845
0.0792877
0.0792908
0.0792939
0.079297
0.0793001
0.0793032
0.0793062
0.0793093
0.0793119
0.0793175
0.0748073
0.0747902
0.0747877
0.0747886
0.0747904
0.0747926
0.0747949
0.0747974
0.0748
0.0748027
0.0748055
0.0748083
0.0748113
0.0748143
0.0748174
0.0748206
0.0748238
0.0748271
0.0748305
0.0748338
0.0748372
0.0748406
0.074844
0.0748473
0.0748507
0.0748541
0.0748574
0.0748608
0.0748641
0.0748674
0.0748707
0.074874
0.0748773
0.0748806
0.0748838
0.0748871
0.0748903
0.0748935
0.0748967
0.0748999
0.074903
0.0749062
0.0749093
0.0749125
0.0749156
0.0749187
0.0749218
0.0749249
0.0749279
0.074931
0.074934
0.074937
0.07494
0.074943
0.074946
0.0749489
0.0749518
0.0749545
0.0749593
0.0707285
0.0707119
0.0707096
0.0707105
0.0707123
0.0707144
0.0707167
0.0707191
0.0707216
0.0707243
0.070727
0.0707297
0.0707326
0.0707355
0.0707386
0.0707417
0.0707448
0.070748
0.0707513
0.0707545
0.0707578
0.0707611
0.0707644
0.0707677
0.0707709
0.0707742
0.0707775
0.0707807
0.0707839
0.0707871
0.0707903
0.0707935
0.0707967
0.0707998
0.070803
0.0708061
0.0708092
0.0708123
0.0708154
0.0708185
0.0708216
0.0708246
0.0708276
0.0708307
0.0708337
0.0708367
0.0708397
0.0708426
0.0708456
0.0708485
0.0708514
0.0708544
0.0708572
0.0708601
0.070863
0.0708658
0.0708686
0.0708713
0.0708753
0.0669106
0.0668947
0.0668924
0.0668934
0.0668951
0.0668972
0.0668994
0.0669018
0.0669042
0.0669068
0.0669094
0.0669121
0.0669149
0.0669177
0.0669207
0.0669237
0.0669267
0.0669298
0.066933
0.0669362
0.0669393
0.0669425
0.0669457
0.0669489
0.066952
0.0669552
0.0669583
0.0669615
0.0669646
0.0669677
0.0669708
0.0669738
0.0669769
0.06698
0.066983
0.066986
0.066989
0.066992
0.066995
0.0669979
0.0670009
0.0670038
0.0670068
0.0670097
0.0670126
0.0670154
0.0670183
0.0670212
0.067024
0.0670268
0.0670297
0.0670325
0.0670352
0.067038
0.0670408
0.0670435
0.0670462
0.0670488
0.0670521
0.0633406
0.0633252
0.0633231
0.0633241
0.0633258
0.0633278
0.06333
0.0633322
0.0633346
0.0633371
0.0633396
0.0633422
0.0633449
0.0633477
0.0633505
0.0633534
0.0633564
0.0633594
0.0633625
0.0633655
0.0633686
0.0633717
0.0633747
0.0633778
0.0633809
0.0633839
0.0633869
0.06339
0.063393
0.0633959
0.0633989
0.0634019
0.0634048
0.0634078
0.0634107
0.0634136
0.0634165
0.0634194
0.0634222
0.0634251
0.0634279
0.0634307
0.0634335
0.0634363
0.0634391
0.0634419
0.0634447
0.0634474
0.0634501
0.0634528
0.0634555
0.0634582
0.0634609
0.0634636
0.0634662
0.0634688
0.0634714
0.063474
0.0634766
0.0600055
0.0599909
0.0599889
0.0599898
0.0599915
0.0599934
0.0599956
0.0599978
0.0600001
0.0600024
0.0600049
0.0600074
0.06001
0.0600127
0.0600154
0.0600182
0.0600211
0.060024
0.060027
0.0600299
0.0600329
0.0600358
0.0600388
0.0600417
0.0600447
0.0600476
0.0600505
0.0600534
0.0600563
0.0600592
0.0600621
0.0600649
0.0600678
0.0600706
0.0600734
0.0600762
0.0600789
0.0600817
0.0600845
0.0600872
0.0600899
0.0600926
0.0600953
0.060098
0.0601007
0.0601033
0.060106
0.0601086
0.0601112
0.0601138
0.0601164
0.060119
0.0601215
0.0601241
0.0601266
0.0601291
0.0601316
0.0601341
0.060136
0.0568933
0.0568792
0.0568774
0.0568783
0.0568799
0.0568818
0.0568839
0.056886
0.0568882
0.0568905
0.0568929
0.0568953
0.0568978
0.0569004
0.056903
0.0569057
0.0569085
0.0569113
0.0569141
0.056917
0.0569198
0.0569227
0.0569255
0.0569284
0.0569312
0.056934
0.0569368
0.0569396
0.0569424
0.0569451
0.0569479
0.0569506
0.0569533
0.056956
0.0569587
0.0569614
0.0569641
0.0569667
0.0569693
0.056972
0.0569746
0.0569772
0.0569797
0.0569823
0.0569849
0.0569874
0.0569899
0.0569924
0.0569949
0.0569974
0.0569999
0.0570024
0.0570048
0.0570073
0.0570097
0.0570121
0.0570145
0.0570169
0.0570181
0.0539918
0.0539784
0.0539767
0.0539776
0.0539792
0.0539811
0.053983
0.0539851
0.0539872
0.0539894
0.0539917
0.0539941
0.0539965
0.0539989
0.0540015
0.0540041
0.0540067
0.0540094
0.0540122
0.0540149
0.0540176
0.0540204
0.0540231
0.0540258
0.0540285
0.0540312
0.0540339
0.0540366
0.0540392
0.0540419
0.0540445
0.0540471
0.0540497
0.0540523
0.0540549
0.0540574
0.05406
0.0540625
0.054065
0.0540675
0.05407
0.0540725
0.054075
0.0540774
0.0540799
0.0540823
0.0540847
0.0540871
0.0540895
0.0540919
0.0540942
0.0540966
0.0540989
0.0541012
0.0541035
0.0541058
0.0541081
0.0541105
0.0541111
0.0512898
0.051277
0.0512754
0.0512763
0.0512779
0.0512797
0.0512816
0.0512836
0.0512857
0.0512878
0.05129
0.0512922
0.0512945
0.0512969
0.0512993
0.0513018
0.0513044
0.051307
0.0513096
0.0513122
0.0513148
0.0513175
0.0513201
0.0513227
0.0513253
0.0513279
0.0513304
0.051333
0.0513355
0.051338
0.0513406
0.0513431
0.0513455
0.051348
0.0513505
0.0513529
0.0513553
0.0513578
0.0513602
0.0513625
0.0513649
0.0513673
0.0513696
0.051372
0.0513743
0.0513766
0.0513789
0.0513812
0.0513835
0.0513857
0.051388
0.0513902
0.0513924
0.0513947
0.0513969
0.051399
0.0514012
0.0514035
0.0514035
0.0487763
0.0487641
0.0487627
0.0487636
0.0487651
0.0487669
0.0487687
0.0487706
0.0487726
0.0487747
0.0487767
0.0487789
0.0487811
0.0487834
0.0487857
0.0487881
0.0487906
0.048793
0.0487955
0.048798
0.0488006
0.0488031
0.0488056
0.0488081
0.0488105
0.048813
0.0488155
0.0488179
0.0488203
0.0488227
0.0488251
0.0488275
0.0488299
0.0488322
0.0488346
0.0488369
0.0488392
0.0488415
0.0488438
0.0488461
0.0488483
0.0488506
0.0488528
0.0488551
0.0488573
0.0488595
0.0488617
0.0488638
0.048866
0.0488681
0.0488703
0.0488724
0.0488745
0.0488766
0.0488787
0.0488808
0.0488829
0.0488851
0.0488846
0.046441
0.0464294
0.046428
0.046429
0.0464305
0.0464322
0.0464339
0.0464358
0.0464377
0.0464396
0.0464417
0.0464437
0.0464458
0.046448
0.0464502
0.0464525
0.0464549
0.0464572
0.0464596
0.046462
0.0464644
0.0464668
0.0464692
0.0464716
0.0464739
0.0464763
0.0464786
0.046481
0.0464833
0.0464856
0.0464878
0.0464901
0.0464924
0.0464946
0.0464968
0.0464991
0.0465013
0.0465035
0.0465056
0.0465078
0.0465099
0.0465121
0.0465142
0.0465163
0.0465184
0.0465205
0.0465226
0.0465247
0.0465267
0.0465288
0.0465308
0.0465328
0.0465348
0.0465368
0.0465388
0.0465408
0.0465427
0.0465449
0.0465439
0.0442739
0.0442629
0.0442617
0.0442626
0.0442641
0.0442657
0.0442674
0.0442692
0.044271
0.0442729
0.0442748
0.0442768
0.0442788
0.0442809
0.044283
0.0442852
0.0442875
0.0442897
0.044292
0.0442943
0.0442966
0.0442989
0.0443012
0.0443034
0.0443057
0.0443079
0.0443101
0.0443123
0.0443145
0.0443167
0.0443189
0.0443211
0.0443232
0.0443253
0.0443274
0.0443295
0.0443316
0.0443337
0.0443358
0.0443378
0.0443399
0.0443419
0.0443439
0.0443459
0.0443479
0.0443499
0.0443519
0.0443538
0.0443558
0.0443577
0.0443596
0.0443616
0.0443635
0.0443654
0.0443672
0.0443691
0.044371
0.044373
0.0443716
0.0422658
0.0422554
0.0422543
0.0422552
0.0422566
0.0422582
0.0422599
0.0422616
0.0422634
0.0422652
0.042267
0.0422689
0.0422708
0.0422728
0.0422748
0.0422769
0.0422791
0.0422812
0.0422834
0.0422856
0.0422878
0.0422899
0.0422921
0.0422943
0.0422964
0.0422985
0.0423007
0.0423028
0.0423048
0.0423069
0.042309
0.042311
0.0423131
0.0423151
0.0423171
0.0423191
0.0423211
0.042323
0.042325
0.0423269
0.0423289
0.0423308
0.0423327
0.0423346
0.0423365
0.0423384
0.0423402
0.0423421
0.0423439
0.0423458
0.0423476
0.0423494
0.0423512
0.042353
0.0423548
0.0423566
0.0423583
0.0423603
0.0423584
0.040408
0.0403981
0.0403971
0.0403981
0.0403995
0.040401
0.0404026
0.0404043
0.040406
0.0404077
0.0404094
0.0404112
0.0404131
0.040415
0.0404169
0.0404189
0.0404209
0.040423
0.0404251
0.0404272
0.0404292
0.0404313
0.0404334
0.0404354
0.0404375
0.0404395
0.0404415
0.0404435
0.0404455
0.0404474
0.0404494
0.0404513
0.0404533
0.0404552
0.0404571
0.040459
0.0404608
0.0404627
0.0404646
0.0404664
0.0404682
0.0404701
0.0404719
0.0404737
0.0404754
0.0404772
0.040479
0.0404807
0.0404825
0.0404842
0.0404859
0.0404876
0.0404893
0.040491
0.0404927
0.0404944
0.040496
0.0404979
0.0404957
0.0386923
0.0386829
0.038682
0.038683
0.0386843
0.0386858
0.0386874
0.038689
0.0386906
0.0386923
0.038694
0.0386957
0.0386974
0.0386993
0.0387011
0.038703
0.0387049
0.0387069
0.0387089
0.0387109
0.0387129
0.0387148
0.0387168
0.0387187
0.0387207
0.0387226
0.0387245
0.0387264
0.0387283
0.0387301
0.038732
0.0387338
0.0387356
0.0387375
0.0387393
0.038741
0.0387428
0.0387446
0.0387463
0.0387481
0.0387498
0.0387515
0.0387532
0.0387549
0.0387566
0.0387583
0.03876
0.0387616
0.0387633
0.0387649
0.0387665
0.0387681
0.0387697
0.0387713
0.0387729
0.0387745
0.0387761
0.0387779
0.0387752
0.0371111
0.0371022
0.0371014
0.0371024
0.0371037
0.0371052
0.0371067
0.0371083
0.0371098
0.0371114
0.037113
0.0371147
0.0371164
0.0371181
0.0371199
0.0371217
0.0371235
0.0371254
0.0371273
0.0371292
0.0371311
0.0371329
0.0371348
0.0371367
0.0371385
0.0371403
0.0371421
0.0371439
0.0371457
0.0371475
0.0371492
0.037151
0.0371527
0.0371544
0.0371561
0.0371578
0.0371595
0.0371611
0.0371628
0.0371644
0.0371661
0.0371677
0.0371693
0.0371709
0.0371725
0.0371741
0.0371756
0.0371772
0.0371787
0.0371803
0.0371818
0.0371833
0.0371848
0.0371863
0.0371878
0.0371893
0.0371908
0.0371925
0.0371896
0.0356575
0.0356491
0.0356484
0.0356493
0.0356507
0.0356521
0.0356536
0.0356551
0.0356566
0.0356581
0.0356597
0.0356613