/*--------------------------------*- C++ -*----------------------------------*\
  =========                 |
  \\      /  F ield         | OpenFOAM: The Open Source CFD Toolbox
   \\    /   O peration     | Website:  https://openfoam.org
    \\  /    A nd           | Version:  7
     \\/     M anipulation  |
\*---------------------------------------------------------------------------*/
FoamFile
{
    version     2.0;
    format      ascii;
    class       surfaceScalarField;
    location    "4000";
    object      phi;
}
// * * * * * * * * * * * * * * * * * * * * * * * * * * * * * * * * * * * * * //

dimensions      [0 3 -1 0 0 0 0];

internalField   nonuniform List<scalar> 
7821
(
0.000124624
5.42307e-10
0.000124624
5.56271e-10
0.000124624
5.35303e-10
0.000124624
5.08438e-10
0.000124624
4.80107e-10
0.000124624
4.54928e-10
0.000124624
4.36176e-10
0.000124624
4.25279e-10
0.000124624
4.21712e-10
0.000124624
4.23602e-10
0.000124624
4.28695e-10
0.000124624
4.35186e-10
0.000124624
4.42065e-10
0.000124624
4.48994e-10
0.000124624
4.55898e-10
0.000124624
4.62587e-10
0.000124624
4.68562e-10
0.000124624
4.73082e-10
0.000124624
4.75404e-10
0.000124624
4.75051e-10
0.000124624
4.71967e-10
0.000124624
4.66489e-10
0.000124624
4.59161e-10
0.000124624
4.50506e-10
0.000124624
4.40856e-10
0.000124624
4.30326e-10
0.000124624
4.18888e-10
0.000124625
4.06509e-10
0.000124625
3.93219e-10
0.000124625
3.79148e-10
0.000124625
3.64414e-10
0.000124625
3.49092e-10
0.000124625
3.33061e-10
0.000124625
3.1599e-10
0.000124625
2.97473e-10
0.000124625
2.75368e-10
0.000124625
2.52602e-10
1.92505e-10
0.000128719
1.36823e-10
0.000128719
3.42155e-10
0.000128719
4.49976e-10
0.000128719
4.68769e-10
0.000128719
4.65092e-10
0.000128719
4.47623e-10
0.000128719
4.24945e-10
0.000128719
4.03659e-10
0.000128719
3.87737e-10
0.000128719
3.78941e-10
0.000128719
3.76972e-10
0.000128719
3.80153e-10
0.000128719
3.86389e-10
0.00012872
3.93994e-10
0.00012872
4.02039e-10
0.00012872
4.10224e-10
0.00012872
4.18488e-10
0.00012872
4.26638e-10
0.00012872
4.34173e-10
0.00012872
4.40348e-10
0.00012872
4.44416e-10
0.00012872
4.45895e-10
0.00012872
4.44718e-10
0.00012872
4.41208e-10
0.00012872
4.35894e-10
0.00012872
4.29282e-10
0.00012872
4.21697e-10
0.00012872
4.13245e-10
0.00012872
4.03896e-10
0.00012872
3.9361e-10
0.00012872
3.82412e-10
0.00012872
3.70421e-10
0.00012872
3.57745e-10
0.00012872
3.4446e-10
0.00012872
3.30412e-10
0.00012872
3.15388e-10
0.00012872
2.98593e-10
0.00012872
2.79775e-10
0.00012872
2.55839e-10
0.00012872
2.26014e-10
0.00012872
1.84477e-10
9.24074e-11
0.000132902
-8.13805e-10
0.000132902
-2.46898e-10
0.000132902
1.02652e-10
0.000132902
2.75343e-10
0.000132902
3.60861e-10
0.000132902
3.87103e-10
0.000132902
3.92096e-10
0.000132902
3.81261e-10
0.000132902
3.63429e-10
0.000132902
3.45829e-10
0.000132902
3.328e-10
0.000132903
3.26305e-10
0.000132903
3.26208e-10
0.000132903
3.30987e-10
0.000132903
3.38692e-10
0.000132903
3.47748e-10
0.000132903
3.57294e-10
0.000132903
3.67068e-10
0.000132903
3.77018e-10
0.000132903
3.8695e-10
0.000132903
3.96358e-10
0.000132903
4.04492e-10
0.000132903
4.10604e-10
0.000132903
4.14205e-10
0.000132903
4.15219e-10
0.000132903
4.1395e-10
0.000132903
4.1091e-10
0.000132903
4.06593e-10
0.000132903
4.01311e-10
0.000132903
3.95168e-10
0.000132903
3.88129e-10
0.000132903
3.80151e-10
0.000132903
3.71248e-10
0.000132903
3.61533e-10
0.000132903
3.51101e-10
0.000132903
3.40031e-10
0.000132903
3.28139e-10
0.000132903
3.15318e-10
0.000132903
3.00477e-10
0.000132903
2.84707e-10
0.000132903
2.61692e-10
0.000132903
2.52646e-10
0.000132903
2.36885e-10
0.000132903
1.80441e-10
0.000132903
1.03721e-10
0.000132903
2.16789e-11
0.000132903
-5.3198e-11
0.000132903
-1.22262e-10
0.000132903
-1.89605e-10
0.000132902
-2.57204e-10
0.000132902
-3.25338e-10
0.000132902
-3.93997e-10
0.000132902
-4.60818e-10
0.000132902
-5.25471e-10
0.000132902
-5.7834e-10
0.000132902
-6.24233e-10
0.000132902
-6.28365e-10
0.000132902
-6.07945e-10
-5.49059e-10
0.000137176
-7.67575e-10
0.000137176
-2.38528e-10
0.000137176
7.29735e-11
0.000137176
2.31939e-10
0.000137176
2.99852e-10
0.000137176
3.20549e-10
0.000137176
3.25269e-10
0.000137176
3.16257e-10
0.000137176
3.00804e-10
0.000137176
2.8555e-10
0.000137176
2.74668e-10
0.000137176
2.7008e-10
0.000137176
2.71679e-10
0.000137176
2.7802e-10
0.000137176
2.87249e-10
0.000137177
2.97869e-10
0.000137177
3.09072e-10
0.000137177
3.20616e-10
0.000137177
3.32452e-10
0.000137177
3.44377e-10
0.000137177
3.55875e-10
0.000137177
3.66195e-10
0.000137177
3.74581e-10
0.000137177
3.80538e-10
0.000137177
3.83973e-10
0.000137177
3.85174e-10
0.000137177
3.84633e-10
0.000137177
3.82827e-10
0.000137177
3.8006e-10
0.000137177
3.76431e-10
0.000137177
3.71902e-10
0.000137177
3.66423e-10
0.000137177
3.60004e-10
0.000137177
3.52745e-10
0.000137177
3.4473e-10
0.000137177
3.36039e-10
0.000137177
3.26466e-10
0.000137177
3.15983e-10
0.000137177
3.03333e-10
0.000137177
2.90317e-10
0.000137177
2.7e-10
0.000137177
2.66377e-10
0.000137177
2.62082e-10
0.000137177
2.41258e-10
0.000137177
2.01024e-10
0.000137177
1.26948e-10
0.000137177
4.87177e-11
0.000137177
-2.74578e-11
0.000137176
-1.01399e-10
0.000137176
-1.74359e-10
0.000137176
-2.46894e-10
0.000137176
-3.19286e-10
0.000137176
-3.89419e-10
0.000137176
-4.57156e-10
0.000137176
-5.12821e-10
0.000137176
-5.62092e-10
0.000137176
-5.66353e-10
0.000137176
-5.53355e-10
-4.69543e-10
0.000141543
-7.26563e-10
0.000141543
-2.19615e-10
0.000141543
6.59735e-11
0.000141543
2.08053e-10
0.000141543
2.60359e-10
0.000141543
2.7076e-10
0.000141543
2.69288e-10
0.000141543
2.57509e-10
0.000141544
2.41361e-10
0.000141544
2.26456e-10
0.000141544
2.16415e-10
0.000141544
2.12881e-10
0.000141544
2.15628e-10
0.000141544
2.23194e-10
0.000141544
2.33752e-10
0.000141544
2.45844e-10
0.000141544
2.58685e-10
0.000141544
2.72032e-10
0.000141544
2.85824e-10
0.000141544
2.99841e-10
0.000141544
3.13555e-10
0.000141544
3.26203e-10
0.000141544
3.37021e-10
0.000141544
3.45502e-10
0.000141544
3.51535e-10
0.000141544
3.55386e-10
0.000141544
3.57525e-10
0.000141544
3.58411e-10
0.000141544
3.58338e-10
0.000141544
3.57399e-10
0.000141544
3.55552e-10
0.000141544
3.52745e-10
0.000141544
3.48974e-10
0.000141544
3.44332e-10
0.000141544
3.38889e-10
0.000141544
3.32726e-10
0.000141544
3.2562e-10
0.000141544
3.17601e-10
0.000141544
3.0735e-10
0.000141544
2.96899e-10
0.000141544
2.80164e-10
0.000141544
2.7744e-10
0.000141544
2.76418e-10
0.000141544
2.72164e-10
0.000141544
2.57052e-10
0.000141544
2.04189e-10
0.000141544
1.36503e-10
0.000141544
6.23104e-11
0.000141544
-1.34019e-11
0.000141544
-8.91637e-11
0.000141544
-1.64603e-10
0.000141544
-2.39778e-10
0.000141544
-3.12609e-10
0.000141544
-3.83029e-10
0.000141544
-4.4133e-10
0.000141543
-4.9384e-10
0.000141543
-4.98683e-10
0.000141543
-4.93101e-10
-3.86258e-10
0.000146007
-6.91299e-10
0.000146007
-1.99307e-10
0.000146007
7.01508e-11
0.000146007
1.97759e-10
0.000146007
2.36675e-10
0.000146007
2.35808e-10
0.000146007
2.25283e-10
0.000146007
2.07542e-10
0.000146007
1.8797e-10
0.000146007
1.71324e-10
0.000146007
1.60589e-10
0.000146008
1.57001e-10
0.000146008
1.60105e-10
0.000146008
1.68336e-10
0.000146008
1.79835e-10
0.000146008
1.93135e-10
0.000146008
2.07441e-10
0.000146008
2.22489e-10
0.000146008
2.38191e-10
0.000146008
2.54298e-10
0.000146008
2.70259e-10
0.000146008
2.85296e-10
0.000146008
2.98633e-10
0.000146008
3.09744e-10
0.000146008
3.18495e-10
0.000146008
3.25127e-10
0.000146008
3.30081e-10
0.000146008
3.33799e-10
0.000146008
3.36562e-10
0.000146008
3.38457e-10
0.000146008
3.39438e-10
0.000146008
3.39446e-10
0.000146008
3.38466e-10
0.000146008
3.36581e-10
0.000146008
3.33847e-10
0.000146008
3.30342e-10
0.000146008
3.25834e-10
0.000146008
3.2039e-10
0.000146008
3.12712e-10
0.000146008
3.04764e-10
0.000146008
2.91821e-10
0.000146008
2.89399e-10
0.000146008
2.88259e-10
0.000146008
2.90139e-10
0.000146008
2.89085e-10
0.000146008
2.56508e-10
0.000146008
2.05513e-10
0.000146008
1.40735e-10
0.000146008
6.88648e-11
0.000146008
-6.05784e-12
0.000146008
-8.20615e-11
0.000146008
-1.58449e-10
0.000146008
-2.32898e-10
0.000146008
-3.05232e-10
0.000146007
-3.65717e-10
0.000146007
-4.21079e-10
0.000146007
-4.26837e-10
0.000146007
-4.28641e-10
-3.0117e-10
0.00015057
-6.60763e-10
0.00015057
-1.8141e-10
0.00015057
7.79896e-11
0.00015057
1.94967e-10
0.00015057
2.23365e-10
0.00015057
2.12265e-10
0.00015057
1.92095e-10
0.00015057
1.66831e-10
0.00015057
1.41989e-10
0.00015057
1.21885e-10
0.00015057
1.0902e-10
0.000150571
1.04238e-10
0.000150571
1.06817e-10
0.000150571
1.15039e-10
0.000150571
1.26968e-10
0.000150571
1.41092e-10
0.000150571
1.56578e-10
0.000150571
1.73121e-10
0.000150571
1.90587e-10
0.000150571
2.08691e-10
0.000150571
2.2685e-10
0.000150571
2.44265e-10
0.000150571
2.6014e-10
0.000150571
2.73924e-10
0.000150571
2.85459e-10
0.000150571
2.94951e-10
0.000150571
3.02812e-10
0.000150571
3.09462e-10
0.000150571
3.15166e-10
0.000150571
3.20006e-10
0.000150571
3.23929e-10
0.000150571
3.26868e-10
0.000150571
3.28797e-10
0.000150571
3.29784e-10
0.000150571
3.29873e-10
0.000150571
3.29139e-10
0.000150571
3.27342e-10
0.000150571
3.2457e-10
0.000150571
3.19599e-10
0.000150571
3.14184e-10
0.000150571
3.04908e-10
0.000150571
3.03329e-10
0.000150571
3.014e-10
0.000150571
3.0438e-10
0.000150571
3.09473e-10
0.000150571
2.91588e-10
0.000150571
2.57216e-10
0.000150571
2.0558e-10
0.000150571
1.41996e-10
0.000150571
7.15785e-11
0.000150571
-2.2997e-12
0.000150571
-7.79618e-11
0.000150571
-1.52624e-10
0.000150571
-2.25827e-10
0.00015057
-2.87815e-10
0.00015057
-3.45445e-10
0.00015057
-3.52301e-10
0.00015057
-3.61564e-10
-2.15363e-10
0.000155235
-6.33512e-10
0.000155235
-1.66881e-10
0.000155235
8.51897e-11
0.000155235
1.94804e-10
0.000155235
2.15672e-10
0.000155235
1.96342e-10
0.000155235
1.67375e-10
0.000155235
1.34409e-10
0.000155235
1.03476e-10
0.000155235
7.88353e-11
0.000155235
6.27565e-11
0.000155235
5.58076e-11
0.000155236
5.70378e-11
0.000155236
6.45738e-11
0.000155236
7.63825e-11
0.000155236
9.08882e-11
0.000155236
1.07201e-10
0.000155236
1.2496e-10
0.000155236
1.43976e-10
0.000155236
1.63915e-10
0.000155236
1.84158e-10
0.000155236
2.03877e-10
0.000155236
2.22249e-10
0.000155236
2.38698e-10
0.000155236
2.5303e-10
0.000155236
2.65415e-10
0.000155236
2.76232e-10
0.000155236
2.85873e-10
0.000155236
2.94588e-10
0.000155236
3.02449e-10
0.000155236
3.09397e-10
0.000155236
3.15354e-10
0.000155236
3.20281e-10
0.000155236
3.24233e-10
0.000155236
3.27237e-10
0.000155236
3.29364e-10
0.000155236
3.30371e-10
0.000155236
3.30357e-10
0.000155236
3.28189e-10
0.000155236
3.25386e-10
0.000155236
3.19551e-10
0.000155236
3.19445e-10
0.000155236
3.17245e-10
0.000155236
3.19499e-10
0.000155236
3.2612e-10
0.000155236
3.17112e-10
0.000155236
2.96077e-10
0.000155236
2.5788e-10
0.000155236
2.04942e-10
0.000155236
1.41829e-10
0.000155236
7.2548e-11
0.000155236
-4.1224e-13
0.000155236
-7.37632e-11
0.000155236
-1.46646e-10
0.000155235
-2.09312e-10
0.000155235
-2.68506e-10
0.000155235
-2.765e-10
0.000155235
-2.9345e-10
-1.2978e-10
0.000160005
-6.08244e-10
0.000160005
-1.55281e-10
0.000160005
8.98314e-11
0.000160005
1.9402e-10
0.000160005
2.09862e-10
0.000160005
1.84549e-10
0.000160005
1.48389e-10
0.000160005
1.08502e-10
0.000160005
7.15538e-11
0.000160005
4.19996e-11
0.000160005
2.21055e-11
0.000160005
1.23243e-11
0.000160005
1.15638e-11
0.000160005
1.78329e-11
0.000160005
2.90135e-11
0.000160005
4.34643e-11
0.000160005
6.02345e-11
0.000160005
7.88997e-11
0.000160005
9.92112e-11
0.000160005
1.20781e-10
0.000160005
1.42947e-10
0.000160006
1.64848e-10
0.000160006
1.85633e-10
0.000160006
2.04692e-10
0.000160006
2.21792e-10
0.000160006
2.37061e-10
0.000160006
2.50842e-10
0.000160006
2.63497e-10
0.000160006
2.75257e-10
0.000160006
2.86183e-10
0.000160006
2.96207e-10
0.000160006
3.05241e-10
0.000160006
3.13231e-10
0.000160006
3.20213e-10
0.000160006
3.26202e-10
0.000160006
3.3126e-10
0.000160006
3.35144e-10
0.000160006
3.37954e-10
0.000160006
3.38657e-10
0.000160006
3.38554e-10
0.000160006
3.35948e-10
0.000160006
3.37756e-10
0.000160006
3.36114e-10
0.000160006
3.37485e-10
0.000160006
3.43501e-10
0.000160006
3.39007e-10
0.000160006
3.27183e-10
0.000160006
3.00542e-10
0.000160005
2.5857e-10
0.000160005
2.04265e-10
0.000160005
1.4139e-10
0.000160005
7.28243e-11
0.000160005
2.2145e-12
0.000160005
-6.91675e-11
0.000160005
-1.3165e-10
0.000160005
-1.91669e-10
0.000160005
-2.00745e-10
0.000160005
-2.25747e-10
-4.53837e-11
0.000164882
-5.8398e-10
0.000164882
-1.45669e-10
0.000164882
9.14897e-11
0.000164882
1.90846e-10
0.000164882
2.03346e-10
0.000164882
1.74061e-10
0.000164882
1.32541e-10
0.000164882
8.70483e-11
0.000164882
4.48117e-11
0.000164882
1.05805e-11
0.000164882
-1.3229e-11
0.000164882
-2.61355e-11
0.000164882
-2.92687e-11
0.000164882
-2.46741e-11
0.000164882
-1.45206e-11
0.000164882
-4.97728e-13
0.000164882
1.63911e-11
0.000164882
3.56628e-11
0.000164882
5.70085e-11
0.000164882
7.99862e-11
0.000164882
1.03891e-10
0.000164882
1.27825e-10
0.000164883
1.50904e-10
0.000164883
1.72483e-10
0.000164883
1.92286e-10
0.000164883
2.10397e-10
0.000164883
2.27117e-10
0.000164883
2.42775e-10
0.000164883
2.57583e-10
0.000164883
2.71588e-10
0.000164883
2.84711e-10
0.000164883
2.96853e-10
0.000164883
3.07943e-10
0.000164883
3.17999e-10
0.000164883
3.27018e-10
0.000164883
3.35056e-10
0.000164883
3.41868e-10
0.000164883
3.47552e-10
0.000164883
3.5117e-10
0.000164883
3.53842e-10
0.000164883
3.54304e-10
0.000164883
3.58272e-10
0.000164883
3.57931e-10
0.000164883
3.58961e-10
0.000164883
3.63805e-10
0.000164883
3.61163e-10
0.000164883
3.54928e-10
0.000164882
3.37068e-10
0.000164882
3.04928e-10
0.000164882
2.5965e-10
0.000164882
2.04126e-10
0.000164882
1.41132e-10
0.000164882
7.44096e-11
0.000164882
5.55771e-12
0.000164882
-5.5949e-11
0.000164882
-1.16102e-10
0.000164882
-1.26173e-10
0.000164882
-1.59706e-10
3.6887e-11
0.000169869
-5.60056e-10
0.000169869
-1.37073e-10
0.000169869
9.05294e-11
0.000169869
1.8463e-10
0.000169869
1.94588e-10
0.000169869
1.62836e-10
0.000169869
1.17665e-10
0.000169869
6.80638e-11
0.000169869
2.16435e-11
0.000169869
-1.6577e-11
0.000169869
-4.39684e-11
0.000169869
-5.99256e-11
0.000169869
-6.55244e-11
0.000169869
-6.27956e-11
0.000169869
-5.39124e-11
0.000169869
-4.05822e-11
0.000169869
-2.38414e-11
0.000169869
-4.21908e-12
0.000169869
1.79239e-11
0.000169869
4.20964e-11
0.000169869
6.75517e-11
0.000169869
9.33574e-11
0.00016987
1.18596e-10
0.00016987
1.42584e-10
0.00016987
1.65002e-10
0.00016987
1.85886e-10
0.00016987
2.05492e-10
0.00016987
2.24116e-10
0.00016987
2.41947e-10
0.00016987
2.59017e-10
0.00016987
2.75236e-10
0.00016987
2.90491e-10
0.00016987
3.04694e-10
0.00016987
3.17842e-10
0.00016987
3.29916e-10
0.00016987
3.4096e-10
0.00016987
3.50731e-10
0.00016987
3.59322e-10
0.00016987
3.65876e-10
0.00016987
3.71376e-10
0.00016987
3.74798e-10
0.00016987
3.81038e-10
0.00016987
3.82534e-10
0.00016987
3.8394e-10
0.00016987
3.87864e-10
0.000169869
3.85787e-10
0.000169869
3.82528e-10
0.000169869
3.70697e-10
0.000169869
3.46512e-10
0.000169869
3.0951e-10
0.000169869
2.61434e-10
0.000169869
2.0458e-10
0.000169869
1.42484e-10
0.000169869
7.69286e-11
0.000169869
1.70265e-11
0.000169869
-4.26927e-11
0.000169869
-5.37093e-11
0.000169869
-9.63423e-11
1.1619e-10
0.000174969
-5.36059e-10
0.000174969
-1.2869e-10
0.000174969
8.76308e-11
0.000174969
1.75429e-10
0.000174969
1.82898e-10
0.000174969
1.49597e-10
0.000174969
1.02154e-10
0.000174969
4.98697e-11
0.000174969
5.05997e-13
0.000174969
-4.07501e-11
0.000174969
-7.10731e-11
0.000174969
-8.96952e-11
0.000174969
-9.75785e-11
0.000174969
-9.6681e-11
0.000174969
-8.91328e-11
0.000174969
-7.66238e-11
0.000174969
-6.01966e-11
0.000174969
-4.0407e-11
0.000174969
-1.76538e-11
0.000174969
7.53204e-12
0.000174969
3.43683e-11
0.000174969
6.18917e-11
0.000174969
8.91531e-11
0.000174969
1.15431e-10
0.000174969
1.40361e-10
0.000174969
1.63931e-10
0.000174969
1.86351e-10
0.000174969
2.07883e-10
0.000174969
2.28689e-10
0.000174969
2.48788e-10
0.000174969
2.68077e-10
0.000174969
2.86428e-10
0.000174969
3.03733e-10
0.000174969
3.19971e-10
0.000174969
3.35103e-10
0.000174969
3.4916e-10
0.000174969
3.619e-10
0.000174969
3.7341e-10
0.000174969
3.82905e-10
0.000174969
3.91258e-10
0.000174969
3.97566e-10
0.000174969
4.06115e-10
0.000174969
4.09784e-10
0.000174969
4.12208e-10
0.000174969
4.15797e-10
0.000174969
4.13901e-10
0.000174969
4.12026e-10
0.000174969
4.03981e-10
0.000174969
3.85721e-10
0.000174969
3.55679e-10
0.000174969
3.14487e-10
0.000174969
2.63759e-10
0.000174969
2.06584e-10
0.000174969
1.44763e-10
0.000174969
8.6866e-11
0.000174969
2.79635e-11
0.000174969
1.59544e-11
0.000174968
-3.64251e-11
1.9184e-10
0.000180184
-5.11742e-10
0.000180184
-1.19935e-10
0.000180184
8.35157e-11
0.000180184
1.6368e-10
0.000180184
1.68178e-10
0.000180184
1.33704e-10
0.000180184
8.49574e-11
0.000180184
3.11914e-11
0.000180184
-1.99193e-11
0.000180184
-6.31594e-11
0.000180184
-9.55764e-11
0.000180184
-1.16253e-10
0.000180184
-1.26014e-10
0.000180184
-1.26707e-10
0.000180184
-1.20381e-10
0.000180184
-1.08676e-10
0.000180184
-9.26106e-11
0.000180184
-7.27459e-11
0.000180184
-4.95009e-11
0.000180184
-2.34331e-11
0.000180184
4.64925e-12
0.000180184
3.37581e-11
0.000180184
6.29167e-11
0.000180184
9.13683e-11
0.000180184
1.18705e-10
0.000180184
1.44867e-10
0.000180184
1.70018e-10
0.000180184
1.94384e-10
0.000180184
2.18102e-10
0.000180184
2.41176e-10
0.000180184
2.63489e-10
0.000180184
2.84898e-10
0.000180184
3.05277e-10
0.000180184
3.24581e-10
0.000180184
3.42753e-10
0.000180184
3.5981e-10
0.000180184
3.75511e-10
0.000180184
3.89935e-10
0.000180184
4.02357e-10
0.000180184
4.13564e-10
0.000180184
4.22705e-10
0.000180184
4.33564e-10
0.000180184
4.39583e-10
0.000180184
4.43512e-10
0.000180184
4.47394e-10
0.000180184
4.45801e-10
0.000180184
4.44521e-10
0.000180184
4.38682e-10
0.000180184
4.24537e-10
0.000180184
3.99949e-10
0.000180184
3.64663e-10
0.000180184
3.19587e-10
0.000180184
2.67213e-10
0.000180184
2.09226e-10
0.000180184
1.53474e-10
0.000180184
9.55539e-11
0.000180184
8.23638e-11
0.000180184
1.95188e-11
2.63346e-10
0.000185517
-4.86961e-10
0.000185517
-1.10421e-10
0.000185517
7.88155e-11
0.000185517
1.49967e-10
0.000185517
1.50692e-10
0.000185517
1.14992e-10
0.000185517
6.55134e-11
0.000185517
1.11737e-11
0.000185517
-4.06466e-11
0.000185517
-8.48509e-11
0.000185517
-1.18457e-10
0.000185517
-1.40447e-10
0.000185517
-1.51518e-10
0.000185517
-1.53396e-10
0.000185517
-1.48024e-10
0.000185517
-1.36964e-10
0.000185517
-1.21191e-10
0.000185517
-1.01245e-10
0.000185517
-7.75467e-11
0.000185518
-5.06659e-11
0.000185518
-2.14252e-11
0.000185518
9.17119e-12
0.000185518
4.01248e-11
0.000185518
7.06482e-11
0.000185518
1.00293e-10
0.000185518
1.28952e-10
0.000185518
1.56747e-10
0.000185518
1.83865e-10
0.000185518
2.10422e-10
0.000185518
2.36403e-10
0.000185518
2.6168e-10
0.000185518
2.86094e-10
0.000185518
3.09498e-10
0.000185518
3.31829e-10
0.000185518
3.53006e-10
0.000185518
3.73033e-10
0.000185518
3.91669e-10
0.000185518
4.08983e-10
0.000185518
4.24303e-10
0.000185518
4.38342e-10
0.000185518
4.50268e-10
0.000185518
4.6342e-10
0.000185517
4.71862e-10
0.000185517
4.7762e-10
0.000185517
4.82339e-10
0.000185517
4.81379e-10
0.000185517
4.80448e-10
0.000185517
4.75846e-10
0.000185517
4.64404e-10
0.000185517
4.43841e-10
0.000185517
4.13313e-10
0.000185517
3.73113e-10
0.000185517
3.25093e-10
0.000185517
2.70731e-10
0.000185517
2.17009e-10
0.000185517
1.60008e-10
0.000185517
1.45283e-10
0.000185517
7.11879e-11
3.30415e-10
0.000190971
-4.61638e-10
0.000190971
-9.99111e-11
0.000190971
7.40267e-11
0.000190971
1.3488e-10
0.000190971
1.30889e-10
0.000190971
9.36191e-11
0.000190971
4.36411e-11
0.000190971
-1.06616e-11
0.000190971
-6.23692e-11
0.000190971
-1.06636e-10
0.000190971
-1.40555e-10
0.000190971
-1.63074e-10
0.000190971
-1.74799e-10
0.000190971
-1.7734e-10
0.000190971
-1.7253e-10
0.000190971
-1.6184e-10
0.000190971
-1.46178e-10
0.000190971
-1.26048e-10
0.000190971
-1.01854e-10
0.000190972
-7.4161e-11
0.000190972
-4.3795e-11
0.000190972
-1.17667e-11
0.000190972
2.09115e-11
0.000190972
5.34272e-11
0.000190972
8.52957e-11
0.000190972
1.16367e-10
0.000190972
1.4672e-10
0.000190972
1.76508e-10
0.000190972
2.05823e-10
0.000190972
2.34636e-10
0.000190972
2.62805e-10
0.000190972
2.90157e-10
0.000190972
3.16528e-10
0.000190972
3.41828e-10
0.000190972
3.6596e-10
0.000190972
3.88912e-10
0.000190972
4.10441e-10
0.000190972
4.30606e-10
0.000190972
4.48778e-10
0.000190971
4.65609e-10
0.000190971
4.80265e-10
0.000190971
4.95685e-10
0.000190971
5.06557e-10
0.000190971
5.14336e-10
0.000190971
5.203e-10
0.000190971
5.20345e-10
0.000190971
5.19822e-10
0.000190971
5.1596e-10
0.000190971
5.06236e-10
0.000190971
4.88501e-10
0.000190971
4.61594e-10
0.000190971
4.25354e-10
0.000190971
3.81022e-10
0.000190971
3.29835e-10
0.000190971
2.77801e-10
0.000190971
2.21443e-10
0.000190971
2.04662e-10
0.000190971
1.18478e-10
3.92939e-10
0.000196549
-4.35728e-10
0.000196549
-8.82799e-11
0.000196549
6.95132e-11
0.000196549
1.18944e-10
0.000196549
1.09281e-10
0.000196549
6.99265e-11
0.000196549
1.94311e-11
0.000196549
-3.4487e-11
0.000196549
-8.54858e-11
0.000196549
-1.29077e-10
0.000196549
-1.62523e-10
0.000196549
-1.84814e-10
0.000196549
-1.96511e-10
0.000196549
-1.99134e-10
0.000196549
-1.94415e-10
0.000196549
-1.83727e-10
0.000196549
-1.67906e-10
0.000196549
-1.47403e-10
0.000196549
-1.22592e-10
0.000196549
-9.40221e-11
0.000196549
-6.25076e-11
0.000196549
-2.90566e-11
0.000196549
5.31252e-12
0.000196549
3.9769e-11
0.000196549
7.37973e-11
0.000196549
1.07208e-10
0.000196549
1.40042e-10
0.000196549
1.72422e-10
0.000196549
2.04415e-10
0.000196549
2.3598e-10
0.000196549
2.66964e-10
0.000196549
2.9718e-10
0.000196549
3.26444e-10
0.000196549
3.54648e-10
0.000196549
3.81671e-10
0.000196549
4.07488e-10
0.000196549
4.31853e-10
0.000196549
4.54814e-10
0.000196549
4.7578e-10
0.000196549
4.95343e-10
0.000196549
5.1267e-10
0.000196549
5.30323e-10
0.000196549
5.4359e-10
0.000196549
5.53481e-10
0.000196549
5.60968e-10
0.000196549
5.62339e-10
0.000196549
5.62422e-10
0.000196549
5.59122e-10
0.000196549
5.505e-10
0.000196548
5.34678e-10
0.000196548
5.10389e-10
0.000196548
4.77181e-10
0.000196548
4.35762e-10
0.000196548
3.87136e-10
0.000196548
3.36275e-10
0.000196548
2.80102e-10
0.000196548
2.60593e-10
0.000196548
1.61448e-10
4.50976e-10
0.000202252
-4.09205e-10
0.000202252
-7.54711e-11
0.000202252
6.55295e-11
0.000202252
1.02594e-10
0.000202252
8.63647e-11
0.000202252
4.43429e-11
0.000202252
-6.85437e-12
0.000202252
-6.02485e-11
0.000202252
-1.10149e-10
0.000202252
-1.52502e-10
0.000202252
-1.84819e-10
0.000202252
-2.06201e-10
0.000202252
-2.17215e-10
0.000202252
-2.19328e-10
0.000202252
-2.14187e-10
0.000202253
-2.03078e-10
0.000202253
-1.8676e-10
0.000202253
-1.65628e-10
0.000202253
-1.40015e-10
0.000202253
-1.10441e-10
0.000202253
-7.77008e-11
0.000202253
-4.27903e-11
0.000202253
-6.72566e-12
0.000202253
2.96511e-11
0.000202253
6.57993e-11
0.000202253
1.01496e-10
0.000202253
1.36748e-10
0.000202253
1.71646e-10
0.000202253
2.06242e-10
0.000202253
2.40479e-10
0.000202253
2.74197e-10
0.000202253
3.07196e-10
0.000202253
3.39275e-10
0.000202253
3.70304e-10
0.000202253
4.00145e-10
0.000202253
4.28754e-10
0.000202253
4.55886e-10
0.000202253
4.81575e-10
0.000202252
5.05265e-10
0.000202252
5.27487e-10
0.000202252
5.47413e-10
0.000202252
5.67256e-10
0.000202252
5.82859e-10
0.000202252
5.94885e-10
0.000202252
6.0406e-10
0.000202252
6.06991e-10
0.000202252
6.07908e-10
0.000202252
6.05176e-10
0.000202252
5.9732e-10
0.000202252
5.82771e-10
0.000202252
5.60284e-10
0.000202252
5.29257e-10
0.000202252
4.89957e-10
0.000202252
4.43194e-10
0.000202252
3.92876e-10
0.000202252
3.36293e-10
0.000202252
3.13259e-10
0.000202252
2.00276e-10
5.04709e-10
0.000208085
-3.82058e-10
0.000208085
-6.14744e-11
0.000208085
6.22468e-11
0.000208085
8.61767e-11
0.000208085
6.25902e-11
0.000208085
1.7317e-11
0.000208085
-3.48592e-11
0.000208085
-8.77392e-11
0.000208085
-1.36324e-10
0.000208085
-1.77043e-10
0.000208085
-2.07715e-10
0.000208085
-2.2761e-10
0.000208085
-2.37352e-10
0.000208085
-2.3839e-10
0.000208085
-2.32312e-10
0.000208085
-2.20333e-10
0.000208085
-2.03142e-10
0.000208085
-1.81077e-10
0.000208085
-1.54426e-10
0.000208085
-1.23672e-10
0.000208085
-8.95836e-11
0.000208085
-5.31353e-11
0.000208085
-1.53341e-11
0.000208085
2.2973e-11
0.000208085
6.12266e-11
0.000208085
9.91754e-11
0.000208085
1.36795e-10
0.000208085
1.74152e-10
0.000208085
2.1128e-10
0.000208085
2.48114e-10
0.000208085
2.84485e-10
0.000208085
3.20182e-10
0.000208085
3.54991e-10
0.000208085
3.88762e-10
0.000208085
4.21338e-10
0.000208085
4.52659e-10
0.000208085
4.82478e-10
0.000208085
5.10816e-10
0.000208085
5.37146e-10
0.000208085
5.61941e-10
0.000208085
5.84384e-10
0.000208085
6.06364e-10
0.000208085
6.24226e-10
0.000208085
6.38363e-10
0.000208085
6.49305e-10
0.000208085
6.53942e-10
0.000208085
6.55894e-10
0.000208085
6.5382e-10
0.000208085
6.46581e-10
0.000208084
6.32889e-10
0.000208084
6.11583e-10
0.000208084
5.82012e-10
0.000208084
5.44088e-10
0.000208084
4.98469e-10
0.000208084
4.48008e-10
0.000208084
3.90331e-10
0.000208084
3.62892e-10
0.000208084
2.35224e-10
5.5442e-10
0.000214049
-3.54285e-10
0.000214049
-4.63071e-11
0.000214049
5.97788e-11
0.000214049
6.99629e-11
0.000214049
3.83461e-11
0.000214049
-1.07209e-11
0.000214049
-6.41902e-11
0.000214049
-1.16661e-10
0.000214049
-1.63842e-10
0.000214049
-2.02674e-10
0.000214049
-2.31322e-10
0.000214049
-2.49268e-10
0.000214049
-2.57234e-10
0.000214049
-2.56688e-10
0.000214049
-2.49188e-10
0.000214049
-2.35896e-10
0.000214049
-2.17443e-10
0.000214049
-1.94117e-10
0.000214049
-1.66159e-10
0.000214049
-1.34014e-10
0.000214049
-9.84175e-11
0.000214049
-6.03182e-11
0.000214049
-2.07079e-11
0.000214049
1.95678e-11
0.000214049
5.99362e-11
0.000214049
1.00123e-10
0.000214049
1.40077e-10
0.000214049
1.79844e-10
0.000214049
2.19444e-10
0.000214049
2.58803e-10
0.000214049
2.97748e-10
0.000214049
3.36061e-10
0.000214049
3.73513e-10
0.000214049
4.09936e-10
0.000214049
4.45158e-10
0.000214049
4.79101e-10
0.000214049
5.11518e-10
0.000214049
5.42415e-10
0.000214049
5.71293e-10
0.000214049
5.98565e-10
0.000214049
6.23432e-10
0.000214049
6.47486e-10
0.000214049
6.67519e-10
0.000214049
6.8371e-10
0.000214049
6.96433e-10
0.000214049
7.02843e-10
0.000214049
7.05976e-10
0.000214049
7.04671e-10
0.000214049
6.98009e-10
0.000214049
6.84923e-10
0.000214049
6.64354e-10
0.000214048
6.35653e-10
0.000214048
5.9845e-10
0.000214048
5.53286e-10
0.000214048
5.01992e-10
0.000214048
4.42495e-10
0.000214048
4.09727e-10
0.000214048
2.66596e-10
6.00445e-10
0.000220148
-3.25891e-10
0.000220148
-3.00034e-11
0.000220148
5.82006e-11
0.000220148
5.4167e-11
0.000220148
1.39628e-11
0.000220148
-3.93767e-11
0.000220148
-9.4452e-11
0.000220148
-1.46672e-10
0.000220148
-1.92453e-10
0.000220148
-2.29258e-10
0.000220148
-2.55622e-10
0.000220148
-2.71269e-10
0.000220148
-2.77053e-10
0.000220148
-2.7449e-10
0.000220148
-2.65132e-10
0.000220148
-2.50112e-10
0.000220148
-2.3002e-10
0.000220148
-2.05099e-10
0.000220148
-1.75552e-10
0.000220148
-1.41785e-10
0.000220148
-1.04497e-10
0.000220148
-6.46087e-11
0.000220148
-2.30919e-11
0.000220148
1.92136e-11
0.000220148
6.1727e-11
0.000220148
1.04155e-10
0.000220148
1.46426e-10
0.000220148
1.88567e-10
0.000220148
2.30586e-10
0.000220148
2.72407e-10
0.000220148
3.13851e-10
0.000220148
3.54696e-10
0.000220148
3.94702e-10
0.000220148
4.33685e-10
0.000220148
4.71459e-10
0.000220148
5.0793e-10
0.000220148
5.42848e-10
0.000220148
5.76207e-10
0.000220148
6.07531e-10
0.000220148
6.37176e-10
0.000220148
6.64362e-10
0.000220148
6.90416e-10
0.000220148
7.12522e-10
0.000220148
7.30689e-10
0.000220147
7.45165e-10
0.000220147
7.53351e-10
0.000220147
7.5775e-10
0.000220147
7.57308e-10
0.000220147
7.51234e-10
0.000220147
7.38615e-10
0.000220147
7.18476e-10
0.000220147
6.90191e-10
0.000220147
6.53156e-10
0.000220147
6.07825e-10
0.000220147
5.55039e-10
0.000220147
4.92996e-10
0.000220147
4.53973e-10
0.000220147
2.94707e-10
6.43152e-10
0.000226384
-2.96888e-10
0.000226384
-1.26073e-11
0.000226384
5.75636e-11
0.000226384
3.8962e-11
0.000226384
-1.02783e-11
0.000226384
-6.82977e-11
0.000226384
-1.25268e-10
0.000226384
-1.77415e-10
0.000226384
-2.21858e-10
0.000226384
-2.56582e-10
0.000226384
-2.80502e-10
0.000226384
-2.93604e-10
0.000226384
-2.96895e-10
0.000226384
-2.91962e-10
0.000226384
-2.80377e-10
0.000226384
-2.63261e-10
0.000226384
-2.41181e-10
0.000226384
-2.14348e-10
0.000226384
-1.82933e-10
0.000226384
-1.47306e-10
0.000226384
-1.08133e-10
0.000226384
-6.63037e-11
0.000226384
-2.27671e-11
0.000226384
2.16461e-11
0.000226384
6.63507e-11
0.000226384
1.11039e-10
0.000226384
1.55622e-10
0.000226384
2.00111e-10
0.000226384
2.44507e-10
0.000226384
2.8873e-10
0.000226384
3.32604e-10
0.000226384
3.75899e-10
0.000226384
4.18371e-10
0.000226384
4.59821e-10
0.000226384
5.00049e-10
0.000226384
5.38947e-10
0.000226384
5.76265e-10
0.000226384
6.11981e-10
0.000226384
6.45642e-10
0.000226384
6.77546e-10
0.000226384
7.0694e-10
0.000226384
7.3491e-10
0.000226383
7.58983e-10
0.000226383
7.79032e-10
0.000226383
7.95199e-10
0.000226383
8.05117e-10
0.000226383
8.10811e-10
0.000226383
8.11292e-10
0.000226383
8.05828e-10
0.000226383
7.936e-10
0.000226383
7.73685e-10
0.000226383
7.45477e-10
0.000226383
7.08162e-10
0.000226383
6.62117e-10
0.000226383
6.0724e-10
0.000226383
5.41958e-10
0.000226383
4.95786e-10
0.000226383
3.19858e-10
6.82905e-10
0.00023276
-2.67294e-10
0.00023276
5.83128e-12
0.00023276
5.79048e-11
0.00023276
2.44936e-11
0.00023276
-3.41332e-11
0.00023276
-9.71687e-11
0.00023276
-1.56288e-10
0.00023276
-2.0854e-10
0.00023276
-2.51739e-10
0.00023276
-2.84388e-10
0.00023276
-3.05784e-10
0.00023276
-3.16182e-10
0.00023276
-3.16758e-10
0.00023276
-3.09185e-10
0.00023276
-2.95075e-10
0.00023276
-2.75553e-10
0.00023276
-2.5118e-10
0.00023276
-2.22148e-10
0.00023276
-1.88604e-10
0.00023276
-1.5089e-10
0.00023276
-1.0964e-10
0.00023276
-6.57136e-11
0.00023276
-2.00369e-11
0.00023276
2.65707e-11
0.00023276
7.35226e-11
0.00023276
1.205e-10
0.00023276
1.67399e-10