/*--------------------------------*- C++ -*----------------------------------*\
  =========                 |
  \\      /  F ield         | OpenFOAM: The Open Source CFD Toolbox
   \\    /   O peration     | Website:  https://openfoam.org
    \\  /    A nd           | Version:  7
     \\/     M anipulation  |
\*---------------------------------------------------------------------------*/
FoamFile
{
    version     2.0;
    format      ascii;
    class       volVectorField;
    location    "46000";
    object      U;
}
// * * * * * * * * * * * * * * * * * * * * * * * * * * * * * * * * * * * * * //

dimensions      [0 1 -1 0 0 0 0];

internalField   nonuniform List<vector> 
100
(
(0.00779469 1.61077e-14 0)
(0.0236633 7.73791e-14 0)
(0.0398641 8.74233e-14 0)
(0.0549171 8.91707e-14 0)
(0.0671104 9.41919e-14 0)
(0.0764366 8.5814e-14 0)
(0.0837073 6.86229e-14 0)
(0.0895886 8.18622e-14 0)
(0.0945084 7.94366e-14 0)
(0.0987373 7.0338e-14 0)
(0.102452 6.85069e-14 0)
(0.105771 7.63552e-14 0)
(0.10878 6.48564e-14 0)
(0.111538 6.33814e-14 0)
(0.114091 6.41547e-14 0)
(0.116472 6.211e-14 0)
(0.11871 5.89669e-14 0)
(0.120824 5.8662e-14 0)
(0.122831 5.75381e-14 0)
(0.124746 5.65627e-14 0)
(0.126579 6.01684e-14 0)
(0.12834 6.49817e-14 0)
(0.130036 6.05969e-14 0)
(0.131674 5.96191e-14 0)
(0.133259 5.6615e-14 0)
(0.134796 5.95142e-14 0)
(0.136289 5.97087e-14 0)
(0.13774 5.81082e-14 0)
(0.139154 5.47423e-14 0)
(0.140531 5.55817e-14 0)
(0.141873 5.48652e-14 0)
(0.143183 5.54202e-14 0)
(0.14446 5.78405e-14 0)
(0.145705 5.66814e-14 0)
(0.146918 5.80652e-14 0)
(0.1481 5.63778e-14 0)
(0.149248 5.79785e-14 0)
(0.150363 5.91125e-14 0)
(0.151441 5.97884e-14 0)
(0.152481 6.05099e-14 0)
(0.153478 5.86782e-14 0)
(0.15443 6.17456e-14 0)
(0.155329 5.65141e-14 0)
(0.15617 5.6277e-14 0)
(0.156943 6.00826e-14 0)
(0.157636 5.76026e-14 0)
(0.158235 5.96973e-14 0)
(0.158721 5.98494e-14 0)
(0.159072 6.25118e-14 0)
(0.159261 6.05468e-14 0)
(0.159261 5.55923e-14 0)
(0.159072 5.78092e-14 0)
(0.158723 5.93218e-14 0)
(0.158239 5.78463e-14 0)
(0.157642 5.94057e-14 0)
(0.156952 6.22474e-14 0)
(0.156183 6.37536e-14 0)
(0.155346 6.52891e-14 0)
(0.15445 6.32953e-14 0)
(0.153502 6.35271e-14 0)
(0.152508 6.06746e-14 0)
(0.151472 6.31725e-14 0)
(0.150397 6.44682e-14 0)
(0.149287 6.31152e-14 0)
(0.148142 6.68904e-14 0)
(0.146964 6.66246e-14 0)
(0.145754 6.6491e-14 0)
(0.144513 6.45389e-14 0)
(0.14324 6.7583e-14 0)
(0.141934 6.68705e-14 0)
(0.140595 6.61272e-14 0)
(0.139222 6.90431e-14 0)
(0.137812 7.0322e-14 0)
(0.136364 7.04438e-14 0)
(0.134875 7.48662e-14 0)
(0.133341 7.51011e-14 0)
(0.13176 7.15811e-14 0)
(0.130126 7.39178e-14 0)
(0.128434 7.20434e-14 0)
(0.126677 7.08235e-14 0)
(0.124848 7.06596e-14 0)
(0.122938 7.35509e-14 0)
(0.120934 7.05837e-14 0)
(0.118825 7.1847e-14 0)
(0.116593 6.98402e-14 0)
(0.114216 7.51969e-14 0)
(0.111669 7.641e-14 0)
(0.108918 7.35279e-14 0)
(0.105917 6.83458e-14 0)
(0.102605 6.89559e-14 0)
(0.0989003 6.89737e-14 0)
(0.0946828 6.9859e-14 0)
(0.089777 6.20925e-14 0)
(0.0839133 6.76321e-14 0)
(0.0766647 5.60704e-14 0)
(0.0673632 3.99056e-14 0)
(0.0551827 2.91489e-14 0)
(0.0400953 3.22566e-14 0)
(0.0238117 4.55695e-16 0)
(0.00784917 -1.28607e-15 0)
)
;

boundaryField
{
    bottomWall
    {
        type            noSlip;
    }
    topWall
    {
        type            noSlip;
    }
    sides1_half0
    {
        type            empty;
    }
    sides1_half1
    {
        type            empty;
    }
    sides2_half0
    {
        type            empty;
    }
    sides2_half1
    {
        type            empty;
    }
    inout1_half0
    {
        type            cyclic;
    }
    inout1_half1
    {
        type            cyclic;
    }
    inout2_half0
    {
        type            cyclic;
    }
    inout2_half1
    {
        type            cyclic;
    }
}


// ************************************************************************* //
