# y+ ()       
# Time        	patch         	min           	max           	average       
500           	bottomWall	8.631368e-02	8.631368e-02	8.631368e-02
500           	topWall	8.631366e-02	8.631366e-02	8.631366e-02
1000          	bottomWall	6.919713e-02	6.919713e-02	6.919713e-02
1000          	topWall	6.919711e-02	6.919711e-02	6.919711e-02
1500          	bottomWall	6.031994e-02	6.031994e-02	6.031994e-02
1500          	topWall	6.031992e-02	6.031992e-02	6.031992e-02
2000          	bottomWall	5.449611e-02	5.449611e-02	5.449611e-02
2000          	topWall	5.449610e-02	5.449610e-02	5.449610e-02
2500          	bottomWall	5.024520e-02	5.024520e-02	5.024520e-02
2500          	topWall	5.024518e-02	5.024518e-02	5.024518e-02
3000          	bottomWall	4.694640e-02	4.694640e-02	4.694640e-02
3000          	topWall	4.694639e-02	4.694639e-02	4.694639e-02
3500          	bottomWall	4.428232e-02	4.428232e-02	4.428232e-02
3500          	topWall	4.428230e-02	4.428230e-02	4.428230e-02
4000          	bottomWall	4.207005e-02	4.207005e-02	4.207005e-02
4000          	topWall	4.207004e-02	4.207004e-02	4.207004e-02
4500          	bottomWall	4.019756e-02	4.019756e-02	4.019756e-02
4500          	topWall	4.019755e-02	4.019755e-02	4.019755e-02
5000          	bottomWall	3.859268e-02	3.859268e-02	3.859268e-02
5000          	topWall	3.859267e-02	3.859267e-02	3.859267e-02
5500          	bottomWall	3.720724e-02	3.720724e-02	3.720724e-02
5500          	topWall	3.720723e-02	3.720723e-02	3.720723e-02
6000          	bottomWall	3.600803e-02	3.600803e-02	3.600803e-02
6000          	topWall	3.600802e-02	3.600802e-02	3.600802e-02
6500          	bottomWall	3.497136e-02	3.497136e-02	3.497136e-02
6500          	topWall	3.497135e-02	3.497135e-02	3.497135e-02
7000          	bottomWall	3.407923e-02	3.407923e-02	3.407923e-02
7000          	topWall	3.407922e-02	3.407922e-02	3.407922e-02
7500          	bottomWall	3.331640e-02	3.331640e-02	3.331640e-02
7500          	topWall	3.331639e-02	3.331639e-02	3.331639e-02
8000          	bottomWall	3.266811e-02	3.266811e-02	3.266811e-02
8000          	topWall	3.266810e-02	3.266810e-02	3.266810e-02
8500          	bottomWall	3.211876e-02	3.211876e-02	3.211876e-02
8500          	topWall	3.211875e-02	3.211875e-02	3.211875e-02
9000          	bottomWall	3.165251e-02	3.165251e-02	3.165251e-02
9000          	topWall	3.165250e-02	3.165250e-02	3.165250e-02
9500          	bottomWall	3.125456e-02	3.125456e-02	3.125456e-02
9500          	topWall	3.125455e-02	3.125455e-02	3.125455e-02
10000         	bottomWall	3.091226e-02	3.091226e-02	3.091226e-02
10000         	topWall	3.091226e-02	3.091226e-02	3.091226e-02
10500         	bottomWall	3.061549e-02	3.061549e-02	3.061549e-02
10500         	topWall	3.061548e-02	3.061548e-02	3.061548e-02
11000         	bottomWall	3.035675e-02	3.035675e-02	3.035675e-02
11000         	topWall	3.035674e-02	3.035674e-02	3.035674e-02
11500         	bottomWall	3.013106e-02	3.013106e-02	3.013106e-02
11500         	topWall	3.013105e-02	3.013105e-02	3.013105e-02
12000         	bottomWall	2.993502e-02	2.993502e-02	2.993502e-02
12000         	topWall	2.993501e-02	2.993501e-02	2.993501e-02
12500         	bottomWall	2.976325e-02	2.976325e-02	2.976325e-02
12500         	topWall	2.976324e-02	2.976324e-02	2.976324e-02
13000         	bottomWall	2.961255e-02	2.961255e-02	2.961255e-02
13000         	topWall	2.961254e-02	2.961254e-02	2.961254e-02
13500         	bottomWall	2.948182e-02	2.948182e-02	2.948182e-02
13500         	topWall	2.948181e-02	2.948181e-02	2.948181e-02
14000         	bottomWall	2.937031e-02	2.937031e-02	2.937031e-02
14000         	topWall	2.937030e-02	2.937030e-02	2.937030e-02
14500         	bottomWall	2.927728e-02	2.927728e-02	2.927728e-02
14500         	topWall	2.927727e-02	2.927727e-02	2.927727e-02
15000         	bottomWall	2.920188e-02	2.920188e-02	2.920188e-02
15000         	topWall	2.920187e-02	2.920187e-02	2.920187e-02
15500         	bottomWall	2.914310e-02	2.914310e-02	2.914310e-02
15500         	topWall	2.914309e-02	2.914309e-02	2.914309e-02
16000         	bottomWall	2.909979e-02	2.909979e-02	2.909979e-02
16000         	topWall	2.909978e-02	2.909978e-02	2.909978e-02
16500         	bottomWall	2.907066e-02	2.907066e-02	2.907066e-02
16500         	topWall	2.907065e-02	2.907065e-02	2.907065e-02
17000         	bottomWall	2.905439e-02	2.905439e-02	2.905439e-02
17000         	topWall	2.905438e-02	2.905438e-02	2.905438e-02
17500         	bottomWall	2.904960e-02	2.904960e-02	2.904960e-02
17500         	topWall	2.904959e-02	2.904959e-02	2.904959e-02
18000         	bottomWall	2.905488e-02	2.905488e-02	2.905488e-02
18000         	topWall	2.905487e-02	2.905487e-02	2.905487e-02
18500         	bottomWall	2.906883e-02	2.906883e-02	2.906883e-02
18500         	topWall	2.906882e-02	2.906882e-02	2.906882e-02
19000         	bottomWall	2.909008e-02	2.909008e-02	2.909008e-02
19000         	topWall	2.909008e-02	2.909008e-02	2.909008e-02
19500         	bottomWall	2.911734e-02	2.911734e-02	2.911734e-02
19500         	topWall	2.911734e-02	2.911734e-02	2.911734e-02
20000         	bottomWall	2.914937e-02	2.914937e-02	2.914937e-02
20000         	topWall	2.914936e-02	2.914936e-02	2.914936e-02
20500         	bottomWall	2.918502e-02	2.918502e-02	2.918502e-02
20500         	topWall	2.918501e-02	2.918501e-02	2.918501e-02
21000         	bottomWall	2.922330e-02	2.922330e-02	2.922330e-02
21000         	topWall	2.922329e-02	2.922329e-02	2.922329e-02
21500         	bottomWall	2.926332e-02	2.926332e-02	2.926332e-02
21500         	topWall	2.926332e-02	2.926332e-02	2.926332e-02
22000         	bottomWall	2.930433e-02	2.930433e-02	2.930433e-02
22000         	topWall	2.930433e-02	2.930433e-02	2.930433e-02
22500         	bottomWall	2.934569e-02	2.934569e-02	2.934569e-02
22500         	topWall	2.934568e-02	2.934568e-02	2.934568e-02
23000         	bottomWall	2.938683e-02	2.938683e-02	2.938683e-02
23000         	topWall	2.938682e-02	2.938682e-02	2.938682e-02
23500         	bottomWall	2.942731e-02	2.942731e-02	2.942731e-02
23500         	topWall	2.942730e-02	2.942730e-02	2.942730e-02
24000         	bottomWall	2.946676e-02	2.946676e-02	2.946676e-02
24000         	topWall	2.946675e-02	2.946675e-02	2.946675e-02
24500         	bottomWall	2.950488e-02	2.950488e-02	2.950488e-02
24500         	topWall	2.950487e-02	2.950487e-02	2.950487e-02
25000         	bottomWall	2.954145e-02	2.954145e-02	2.954145e-02
25000         	topWall	2.954144e-02	2.954144e-02	2.954144e-02
25500         	bottomWall	2.957629e-02	2.957629e-02	2.957629e-02
25500         	topWall	2.957628e-02	2.957628e-02	2.957628e-02
26000         	bottomWall	2.960927e-02	2.960927e-02	2.960927e-02
26000         	topWall	2.960926e-02	2.960926e-02	2.960926e-02
26500         	bottomWall	2.964031e-02	2.964031e-02	2.964031e-02
26500         	topWall	2.964030e-02	2.964030e-02	2.964030e-02
27000         	bottomWall	2.966935e-02	2.966935e-02	2.966935e-02
27000         	topWall	2.966935e-02	2.966935e-02	2.966935e-02
27500         	bottomWall	2.969639e-02	2.969639e-02	2.969639e-02
27500         	topWall	2.969638e-02	2.969638e-02	2.969638e-02
28000         	bottomWall	2.972141e-02	2.972141e-02	2.972141e-02
28000         	topWall	2.972140e-02	2.972140e-02	2.972140e-02
28500         	bottomWall	2.974442e-02	2.974442e-02	2.974442e-02
28500         	topWall	2.974442e-02	2.974442e-02	2.974442e-02
29000         	bottomWall	2.976548e-02	2.976548e-02	2.976548e-02
29000         	topWall	2.976547e-02	2.976547e-02	2.976547e-02
29500         	bottomWall	2.978465e-02	2.978465e-02	2.978465e-02
29500         	topWall	2.978464e-02	2.978464e-02	2.978464e-02
30000         	bottomWall	2.980204e-02	2.980204e-02	2.980204e-02
30000         	topWall	2.980203e-02	2.980203e-02	2.980203e-02
30500         	bottomWall	2.981772e-02	2.981772e-02	2.981772e-02
30500         	topWall	2.981771e-02	2.981771e-02	2.981771e-02
31000         	bottomWall	2.983178e-02	2.983178e-02	2.983178e-02
31000         	topWall	2.983178e-02	2.983178e-02	2.983178e-02
31500         	bottomWall	2.984430e-02	2.984430e-02	2.984430e-02
31500         	topWall	2.984429e-02	2.984429e-02	2.984429e-02
32000         	bottomWall	2.985535e-02	2.985535e-02	2.985535e-02
32000         	topWall	2.985535e-02	2.985535e-02	2.985535e-02
32500         	bottomWall	2.986503e-02	2.986503e-02	2.986503e-02
32500         	topWall	2.986503e-02	2.986503e-02	2.986503e-02
33000         	bottomWall	2.987343e-02	2.987343e-02	2.987343e-02
33000         	topWall	2.987342e-02	2.987342e-02	2.987342e-02
33500         	bottomWall	2.988062e-02	2.988062e-02	2.988062e-02
33500         	topWall	2.988061e-02	2.988061e-02	2.988061e-02
34000         	bottomWall	2.988671e-02	2.988671e-02	2.988671e-02
34000         	topWall	2.988670e-02	2.988670e-02	2.988670e-02
34500         	bottomWall	2.989177e-02	2.989177e-02	2.989177e-02
34500         	topWall	2.989176e-02	2.989176e-02	2.989176e-02
35000         	bottomWall	2.989590e-02	2.989590e-02	2.989590e-02
35000         	topWall	2.989590e-02	2.989590e-02	2.989590e-02
35500         	bottomWall	2.989918e-02	2.989918e-02	2.989918e-02
35500         	topWall	2.989918e-02	2.989918e-02	2.989918e-02
36000         	bottomWall	2.990169e-02	2.990169e-02	2.990169e-02
36000         	topWall	2.990168e-02	2.990168e-02	2.990168e-02
36500         	bottomWall	2.990350e-02	2.990350e-02	2.990350e-02
36500         	topWall	2.990350e-02	2.990350e-02	2.990350e-02
37000         	bottomWall	2.990469e-02	2.990469e-02	2.990469e-02
37000         	topWall	2.990469e-02	2.990469e-02	2.990469e-02
37500         	bottomWall	2.990533e-02	2.990533e-02	2.990533e-02
37500         	topWall	2.990532e-02	2.990532e-02	2.990532e-02
38000         	bottomWall	2.990547e-02	2.990547e-02	2.990547e-02
38000         	topWall	2.990547e-02	2.990547e-02	2.990547e-02
38500         	bottomWall	2.990519e-02	2.990519e-02	2.990519e-02
38500         	topWall	2.990518e-02	2.990518e-02	2.990518e-02
39000         	bottomWall	2.990454e-02	2.990454e-02	2.990454e-02
39000         	topWall	2.990453e-02	2.990453e-02	2.990453e-02
39500         	bottomWall	2.990356e-02	2.990356e-02	2.990356e-02
39500         	topWall	2.990355e-02	2.990355e-02	2.990355e-02
40000         	bottomWall	2.990232e-02	2.990232e-02	2.990232e-02
40000         	topWall	2.990231e-02	2.990231e-02	2.990231e-02
40500         	bottomWall	2.990085e-02	2.990085e-02	2.990085e-02
40500         	topWall	2.990084e-02	2.990084e-02	2.990084e-02
41000         	bottomWall	2.989919e-02	2.989919e-02	2.989919e-02
41000         	topWall	2.989918e-02	2.989918e-02	2.989918e-02
41500         	bottomWall	2.989739e-02	2.989739e-02	2.989739e-02
41500         	topWall	2.989738e-02	2.989738e-02	2.989738e-02
42000         	bottomWall	2.989548e-02	2.989548e-02	2.989548e-02
42000         	topWall	2.989547e-02	2.989547e-02	2.989547e-02
42500         	bottomWall	2.989349e-02	2.989349e-02	2.989349e-02
42500         	topWall	2.989348e-02	2.989348e-02	2.989348e-02
43000         	bottomWall	2.989145e-02	2.989145e-02	2.989145e-02
43000         	topWall	2.989144e-02	2.989144e-02	2.989144e-02
43500         	bottomWall	2.988937e-02	2.988937e-02	2.988937e-02
43500         	topWall	2.988937e-02	2.988937e-02	2.988937e-02
44000         	bottomWall	2.988730e-02	2.988730e-02	2.988730e-02
44000         	topWall	2.988729e-02	2.988729e-02	2.988729e-02
44500         	bottomWall	2.988524e-02	2.988524e-02	2.988524e-02
44500         	topWall	2.988523e-02	2.988523e-02	2.988523e-02
45000         	bottomWall	2.988320e-02	2.988320e-02	2.988320e-02
45000         	topWall	2.988320e-02	2.988320e-02	2.988320e-02
45500         	bottomWall	2.988122e-02	2.988122e-02	2.988122e-02
45500         	topWall	2.988121e-02	2.988121e-02	2.988121e-02
46000         	bottomWall	2.987928e-02	2.987928e-02	2.987928e-02
46000         	topWall	2.987927e-02	2.987927e-02	2.987927e-02
46500         	bottomWall	2.987741e-02	2.987741e-02	2.987741e-02
46500         	topWall	2.987741e-02	2.987741e-02	2.987741e-02
47000         	bottomWall	2.987562e-02	2.987562e-02	2.987562e-02
47000         	topWall	2.987561e-02	2.987561e-02	2.987561e-02
47500         	bottomWall	2.987390e-02	2.987390e-02	2.987390e-02
47500         	topWall	2.987390e-02	2.987390e-02	2.987390e-02
48000         	bottomWall	2.987227e-02	2.987227e-02	2.987227e-02
48000         	topWall	2.987227e-02	2.987227e-02	2.987227e-02
48500         	bottomWall	2.987074e-02	2.987074e-02	2.987074e-02
48500         	topWall	2.987073e-02	2.987073e-02	2.987073e-02
49000         	bottomWall	2.986929e-02	2.986929e-02	2.986929e-02
49000         	topWall	2.986929e-02	2.986929e-02	2.986929e-02
49500         	bottomWall	2.986795e-02	2.986795e-02	2.986795e-02
49500         	topWall	2.986794e-02	2.986794e-02	2.986794e-02
50000         	bottomWall	2.986669e-02	2.986669e-02	2.986669e-02
50000         	topWall	2.986669e-02	2.986669e-02	2.986669e-02
50500         	bottomWall	2.986554e-02	2.986554e-02	2.986554e-02
50500         	topWall	2.986553e-02	2.986553e-02	2.986553e-02
51000         	bottomWall	2.986447e-02	2.986447e-02	2.986447e-02
51000         	topWall	2.986447e-02	2.986447e-02	2.986447e-02
51500         	bottomWall	2.986350e-02	2.986350e-02	2.986350e-02
51500         	topWall	2.986350e-02	2.986350e-02	2.986350e-02
52000         	bottomWall	2.986262e-02	2.986262e-02	2.986262e-02
52000         	topWall	2.986261e-02	2.986261e-02	2.986261e-02
52500         	bottomWall	2.986182e-02	2.986182e-02	2.986182e-02
52500         	topWall	2.986182e-02	2.986182e-02	2.986182e-02
53000         	bottomWall	2.986111e-02	2.986111e-02	2.986111e-02
53000         	topWall	2.986110e-02	2.986110e-02	2.986110e-02
53500         	bottomWall	2.986047e-02	2.986047e-02	2.986047e-02
53500         	topWall	2.986046e-02	2.986046e-02	2.986046e-02
54000         	bottomWall	2.985990e-02	2.985990e-02	2.985990e-02
54000         	topWall	2.985989e-02	2.985989e-02	2.985989e-02
54500         	bottomWall	2.985941e-02	2.985941e-02	2.985941e-02
54500         	topWall	2.985940e-02	2.985940e-02	2.985940e-02
55000         	bottomWall	2.985898e-02	2.985898e-02	2.985898e-02
55000         	topWall	2.985897e-02	2.985897e-02	2.985897e-02
55500         	bottomWall	2.985861e-02	2.985861e-02	2.985861e-02
55500         	topWall	2.985861e-02	2.985861e-02	2.985861e-02
56000         	bottomWall	2.985831e-02	2.985831e-02	2.985831e-02
56000         	topWall	2.985830e-02	2.985830e-02	2.985830e-02
56500         	bottomWall	2.985806e-02	2.985806e-02	2.985806e-02
56500         	topWall	2.985805e-02	2.985805e-02	2.985805e-02
57000         	bottomWall	2.985785e-02	2.985785e-02	2.985785e-02
57000         	topWall	2.985785e-02	2.985785e-02	2.985785e-02
57500         	bottomWall	2.985770e-02	2.985770e-02	2.985770e-02
57500         	topWall	2.985769e-02	2.985769e-02	2.985769e-02
58000         	bottomWall	2.985758e-02	2.985758e-02	2.985758e-02
58000         	topWall	2.985757e-02	2.985757e-02	2.985757e-02
58500         	bottomWall	2.985750e-02	2.985750e-02	2.985750e-02
58500         	topWall	2.985750e-02	2.985750e-02	2.985750e-02
59000         	bottomWall	2.985746e-02	2.985746e-02	2.985746e-02
59000         	topWall	2.985745e-02	2.985745e-02	2.985745e-02
59500         	bottomWall	2.985745e-02	2.985745e-02	2.985745e-02
59500         	topWall	2.985744e-02	2.985744e-02	2.985744e-02
60000         	bottomWall	2.985746e-02	2.985746e-02	2.985746e-02
60000         	topWall	2.985745e-02	2.985745e-02	2.985745e-02
60500         	bottomWall	2.985749e-02	2.985749e-02	2.985749e-02
60500         	topWall	2.985748e-02	2.985748e-02	2.985748e-02
61000         	bottomWall	2.985755e-02	2.985755e-02	2.985755e-02
61000         	topWall	2.985754e-02	2.985754e-02	2.985754e-02
61500         	bottomWall	2.985762e-02	2.985762e-02	2.985762e-02
61500         	topWall	2.985761e-02	2.985761e-02	2.985761e-02
62000         	bottomWall	2.985771e-02	2.985771e-02	2.985771e-02
62000         	topWall	2.985770e-02	2.985770e-02	2.985770e-02
62500         	bottomWall	2.985781e-02	2.985781e-02	2.985781e-02
62500         	topWall	2.985780e-02	2.985780e-02	2.985780e-02
63000         	bottomWall	2.985792e-02	2.985792e-02	2.985792e-02
63000         	topWall	2.985791e-02	2.985791e-02	2.985791e-02
63500         	bottomWall	2.985804e-02	2.985804e-02	2.985804e-02
63500         	topWall	2.985803e-02	2.985803e-02	2.985803e-02
64000         	bottomWall	2.985816e-02	2.985816e-02	2.985816e-02
64000         	topWall	2.985816e-02	2.985816e-02	2.985816e-02
64500         	bottomWall	2.985829e-02	2.985829e-02	2.985829e-02
64500         	topWall	2.985828e-02	2.985828e-02	2.985828e-02
65000         	bottomWall	2.985841e-02	2.985841e-02	2.985841e-02
65000         	topWall	2.985841e-02	2.985841e-02	2.985841e-02
65500         	bottomWall	2.985853e-02	2.985853e-02	2.985853e-02
65500         	topWall	2.985853e-02	2.985853e-02	2.985853e-02
66000         	bottomWall	2.985865e-02	2.985865e-02	2.985865e-02
66000         	topWall	2.985864e-02	2.985864e-02	2.985864e-02
66500         	bottomWall	2.985876e-02	2.985876e-02	2.985876e-02
66500         	topWall	2.985875e-02	2.985875e-02	2.985875e-02
67000         	bottomWall	2.985885e-02	2.985885e-02	2.985885e-02
67000         	topWall	2.985885e-02	2.985885e-02	2.985885e-02
67500         	bottomWall	2.985894e-02	2.985894e-02	2.985894e-02
67500         	topWall	2.985893e-02	2.985893e-02	2.985893e-02
68000         	bottomWall	2.985902e-02	2.985902e-02	2.985902e-02
68000         	topWall	2.985901e-02	2.985901e-02	2.985901e-02
68500         	bottomWall	2.985909e-02	2.985909e-02	2.985909e-02
68500         	topWall	2.985908e-02	2.985908e-02	2.985908e-02
69000         	bottomWall	2.985915e-02	2.985915e-02	2.985915e-02
69000         	topWall	2.985914e-02	2.985914e-02	2.985914e-02
69500         	bottomWall	2.985919e-02	2.985919e-02	2.985919e-02
69500         	topWall	2.985918e-02	2.985918e-02	2.985918e-02
70000         	bottomWall	2.985923e-02	2.985923e-02	2.985923e-02
70000         	topWall	2.985922e-02	2.985922e-02	2.985922e-02
70500         	bottomWall	2.985926e-02	2.985926e-02	2.985926e-02
70500         	topWall	2.985925e-02	2.985925e-02	2.985925e-02
71000         	bottomWall	2.985928e-02	2.985928e-02	2.985928e-02
71000         	topWall	2.985927e-02	2.985927e-02	2.985927e-02
71500         	bottomWall	2.985929e-02	2.985929e-02	2.985929e-02
71500         	topWall	2.985929e-02	2.985929e-02	2.985929e-02
72000         	bottomWall	2.985930e-02	2.985930e-02	2.985930e-02
72000         	topWall	2.985929e-02	2.985929e-02	2.985929e-02
72500         	bottomWall	2.985930e-02	2.985930e-02	2.985930e-02
72500         	topWall	2.985929e-02	2.985929e-02	2.985929e-02
73000         	bottomWall	2.985929e-02	2.985929e-02	2.985929e-02
73000         	topWall	2.985929e-02	2.985929e-02	2.985929e-02
73500         	bottomWall	2.985928e-02	2.985928e-02	2.985928e-02
73500         	topWall	2.985928e-02	2.985928e-02	2.985928e-02
74000         	bottomWall	2.985927e-02	2.985927e-02	2.985927e-02
74000         	topWall	2.985926e-02	2.985926e-02	2.985926e-02
74500         	bottomWall	2.985925e-02	2.985925e-02	2.985925e-02
74500         	topWall	2.985925e-02	2.985925e-02	2.985925e-02
75000         	bottomWall	2.985923e-02	2.985923e-02	2.985923e-02
75000         	topWall	2.985923e-02	2.985923e-02	2.985923e-02
75500         	bottomWall	2.985921e-02	2.985921e-02	2.985921e-02
75500         	topWall	2.985921e-02	2.985921e-02	2.985921e-02
76000         	bottomWall	2.985919e-02	2.985919e-02	2.985919e-02
76000         	topWall	2.985919e-02	2.985919e-02	2.985919e-02
76500         	bottomWall	2.985917e-02	2.985917e-02	2.985917e-02
76500         	topWall	2.985916e-02	2.985916e-02	2.985916e-02
77000         	bottomWall	2.985915e-02	2.985915e-02	2.985915e-02
77000         	topWall	2.985914e-02	2.985914e-02	2.985914e-02
77500         	bottomWall	2.985913e-02	2.985913e-02	2.985913e-02
77500         	topWall	2.985912e-02	2.985912e-02	2.985912e-02
78000         	bottomWall	2.985911e-02	2.985911e-02	2.985911e-02
78000         	topWall	2.985910e-02	2.985910e-02	2.985910e-02
78500         	bottomWall	2.985909e-02	2.985909e-02	2.985909e-02
78500         	topWall	2.985908e-02	2.985908e-02	2.985908e-02
79000         	bottomWall	2.985907e-02	2.985907e-02	2.985907e-02
79000         	topWall	2.985906e-02	2.985906e-02	2.985906e-02
79500         	bottomWall	2.985905e-02	2.985905e-02	2.985905e-02
79500         	topWall	2.985905e-02	2.985905e-02	2.985905e-02
80000         	bottomWall	2.985904e-02	2.985904e-02	2.985904e-02
80000         	topWall	2.985903e-02	2.985903e-02	2.985903e-02
80500         	bottomWall	2.985903e-02	2.985903e-02	2.985903e-02
80500         	topWall	2.985902e-02	2.985902e-02	2.985902e-02
81000         	bottomWall	2.985901e-02	2.985901e-02	2.985901e-02
81000         	topWall	2.985901e-02	2.985901e-02	2.985901e-02
81500         	bottomWall	2.985900e-02	2.985900e-02	2.985900e-02
81500         	topWall	2.985900e-02	2.985900e-02	2.985900e-02
82000         	bottomWall	2.985900e-02	2.985900e-02	2.985900e-02
82000         	topWall	2.985899e-02	2.985899e-02	2.985899e-02
82500         	bottomWall	2.985899e-02	2.985899e-02	2.985899e-02
82500         	topWall	2.985898e-02	2.985898e-02	2.985898e-02
83000         	bottomWall	2.985898e-02	2.985898e-02	2.985898e-02
83000         	topWall	2.985898e-02	2.985898e-02	2.985898e-02
83500         	bottomWall	2.985898e-02	2.985898e-02	2.985898e-02
83500         	topWall	2.985897e-02	2.985897e-02	2.985897e-02
84000         	bottomWall	2.985898e-02	2.985898e-02	2.985898e-02
84000         	topWall	2.985897e-02	2.985897e-02	2.985897e-02
84500         	bottomWall	2.985898e-02	2.985898e-02	2.985898e-02
84500         	topWall	2.985897e-02	2.985897e-02	2.985897e-02
85000         	bottomWall	2.985898e-02	2.985898e-02	2.985898e-02
85000         	topWall	2.985897e-02	2.985897e-02	2.985897e-02
85500         	bottomWall	2.985898e-02	2.985898e-02	2.985898e-02
85500         	topWall	2.985898e-02	2.985898e-02	2.985898e-02
86000         	bottomWall	2.985899e-02	2.985899e-02	2.985899e-02
86000         	topWall	2.985898e-02	2.985898e-02	2.985898e-02
86500         	bottomWall	2.985899e-02	2.985899e-02	2.985899e-02
86500         	topWall	2.985898e-02	2.985898e-02	2.985898e-02
87000         	bottomWall	2.985900e-02	2.985900e-02	2.985900e-02
87000         	topWall	2.985899e-02	2.985899e-02	2.985899e-02
87500         	bottomWall	2.985900e-02	2.985900e-02	2.985900e-02
87500         	topWall	2.985900e-02	2.985900e-02	2.985900e-02
88000         	bottomWall	2.985901e-02	2.985901e-02	2.985901e-02
88000         	topWall	2.985900e-02	2.985900e-02	2.985900e-02
88500         	bottomWall	2.985902e-02	2.985902e-02	2.985902e-02
88500         	topWall	2.985901e-02	2.985901e-02	2.985901e-02
89000         	bottomWall	2.985903e-02	2.985903e-02	2.985903e-02
89000         	topWall	2.985902e-02	2.985902e-02	2.985902e-02
89500         	bottomWall	2.985903e-02	2.985903e-02	2.985903e-02
89500         	topWall	2.985903e-02	2.985903e-02	2.985903e-02
90000         	bottomWall	2.985904e-02	2.985904e-02	2.985904e-02
90000         	topWall	2.985903e-02	2.985903e-02	2.985903e-02
90500         	bottomWall	2.985905e-02	2.985905e-02	2.985905e-02
90500         	topWall	2.985904e-02	2.985904e-02	2.985904e-02
91000         	bottomWall	2.985906e-02	2.985906e-02	2.985906e-02
91000         	topWall	2.985905e-02	2.985905e-02	2.985905e-02
91500         	bottomWall	2.985906e-02	2.985906e-02	2.985906e-02
91500         	topWall	2.985906e-02	2.985906e-02	2.985906e-02
92000         	bottomWall	2.985907e-02	2.985907e-02	2.985907e-02
92000         	topWall	2.985906e-02	2.985906e-02	2.985906e-02
92500         	bottomWall	2.985908e-02	2.985908e-02	2.985908e-02
92500         	topWall	2.985907e-02	2.985907e-02	2.985907e-02
93000         	bottomWall	2.985908e-02	2.985908e-02	2.985908e-02
93000         	topWall	2.985907e-02	2.985907e-02	2.985907e-02
93500         	bottomWall	2.985909e-02	2.985909e-02	2.985909e-02
93500         	topWall	2.985908e-02	2.985908e-02	2.985908e-02
94000         	bottomWall	2.985909e-02	2.985909e-02	2.985909e-02
94000         	topWall	2.985908e-02	2.985908e-02	2.985908e-02
94500         	bottomWall	2.985909e-02	2.985909e-02	2.985909e-02
94500         	topWall	2.985908e-02	2.985908e-02	2.985908e-02
95000         	bottomWall	2.985909e-02	2.985909e-02	2.985909e-02
95000         	topWall	2.985909e-02	2.985909e-02	2.985909e-02
95500         	bottomWall	2.985910e-02	2.985910e-02	2.985910e-02
95500         	topWall	2.985909e-02	2.985909e-02	2.985909e-02
96000         	bottomWall	2.985910e-02	2.985910e-02	2.985910e-02
96000         	topWall	2.985909e-02	2.985909e-02	2.985909e-02
96500         	bottomWall	2.985910e-02	2.985910e-02	2.985910e-02
96500         	topWall	2.985909e-02	2.985909e-02	2.985909e-02
97000         	bottomWall	2.985910e-02	2.985910e-02	2.985910e-02
97000         	topWall	2.985909e-02	2.985909e-02	2.985909e-02
97500         	bottomWall	2.985910e-02	2.985910e-02	2.985910e-02
97500         	topWall	2.985909e-02	2.985909e-02	2.985909e-02
98000         	bottomWall	2.985909e-02	2.985909e-02	2.985909e-02
98000         	topWall	2.985909e-02	2.985909e-02	2.985909e-02
98500         	bottomWall	2.985909e-02	2.985909e-02	2.985909e-02
98500         	topWall	2.985908e-02	2.985908e-02	2.985908e-02
99000         	bottomWall	2.985909e-02	2.985909e-02	2.985909e-02
99000         	topWall	2.985908e-02	2.985908e-02	2.985908e-02
99500         	bottomWall	2.985909e-02	2.985909e-02	2.985909e-02
99500         	topWall	2.985908e-02	2.985908e-02	2.985908e-02
100000        	bottomWall	2.985909e-02	2.985909e-02	2.985909e-02
100000        	topWall	2.985908e-02	2.985908e-02	2.985908e-02
