/*--------------------------------*- C++ -*----------------------------------*\
  =========                 |
  \\      /  F ield         | OpenFOAM: The Open Source CFD Toolbox
   \\    /   O peration     | Website:  https://openfoam.org
    \\  /    A nd           | Version:  7
     \\/     M anipulation  |
\*---------------------------------------------------------------------------*/
FoamFile
{
    version     2.0;
    format      ascii;
    class       volScalarField;
    location    "16500";
    object      nut;
}
// * * * * * * * * * * * * * * * * * * * * * * * * * * * * * * * * * * * * * //

dimensions      [0 2 -1 0 0 0 0];

internalField   nonuniform List<scalar> 
4026
(
0.000284817
0.000284812
0.000284813
0.000284815
0.000284817
0.000284819
0.000284822
0.000284824
0.000284826
0.000284828
0.000284831
0.000284832
0.000284835
0.000284837
0.000284839
0.000284842
0.000284844
0.000284846
0.000284848
0.000284849
0.000284851
0.000284853
0.000284855
0.000284856
0.000284857
0.000284858
0.00028486
0.000284861
0.000284862
0.000284863
0.000284864
0.000284865
0.000284866
0.000284867
0.000284867
0.000284868
0.000284868
0.000284869
0.000284869
0.00028487
0.00028487
0.000284871
0.000284871
0.000284871
0.000284873
0.000284809
0.00028481
0.000284813
0.000284816
0.000284819
0.000284821
0.000284823
0.000284826
0.000284828
0.00028483
0.000284831
0.000284833
0.000284834
0.000284836
0.000284836
0.000284842
0.000299507
0.000299502
0.000299502
0.000299505
0.000299507
0.000299509
0.000299512
0.000299515
0.000299517
0.00029952
0.000299522
0.000299524
0.000299526
0.000299529
0.000299531
0.000299534
0.000299536
0.000299538
0.00029954
0.000299541
0.000299544
0.000299545
0.000299546
0.000299548
0.000299549
0.00029955
0.000299552
0.000299553
0.000299554
0.000299555
0.000299556
0.000299557
0.000299557
0.000299558
0.000299559
0.000299559
0.00029956
0.00029956
0.000299561
0.000299561
0.000299561
0.000299561
0.000299562
0.000299561
0.000299564
0.000299491
0.000299492
0.000299495
0.000299499
0.000299503
0.000299505
0.000299508
0.000299511
0.000299513
0.000299515
0.000299517
0.000299519
0.000299521
0.000299522
0.000299523
0.000299528
0.000314651
0.000314647
0.000314648
0.00031465
0.000314653
0.000314656
0.000314659
0.000314661
0.000314664
0.000314666
0.000314669
0.000314671
0.000314674
0.000314676
0.000314678
0.000314681
0.000314683
0.000314685
0.000314687
0.000314689
0.000314691
0.000314693
0.000314694
0.000314696
0.000314697
0.000314698
0.000314699
0.0003147
0.000314701
0.000314702
0.000314703
0.000314703
0.000314704
0.000314705
0.000314706
0.000314706
0.000314706
0.000314706
0.000314707
0.000314707
0.000314707
0.000314707
0.000314707
0.000314707
0.000314709
0.000314631
0.00031463
0.000314634
0.000314638
0.000314642
0.000314646
0.000314648
0.000314651
0.000314654
0.000314656
0.000314658
0.00031466
0.000314662
0.000314663
0.000314664
0.000314669
0.000330279
0.000330277
0.000330278
0.000330281
0.000330283
0.000330287
0.00033029
0.000330293
0.000330296
0.000330298
0.0003303
0.000330303
0.000330305
0.000330307
0.00033031
0.000330313
0.000330315
0.000330318
0.00033032
0.000330321
0.000330323
0.000330325
0.000330326
0.000330328
0.000330329
0.00033033
0.000330331
0.000330332
0.000330333
0.000330334
0.000330334
0.000330335
0.000330336
0.000330336
0.000330336
0.000330336
0.000330337
0.000330337
0.000330337
0.000330337
0.000330337
0.000330336
0.000330336
0.000330336
0.000330338
0.000330256
0.000330255
0.000330258
0.000330262
0.000330266
0.000330269
0.000330273
0.000330276
0.000330279
0.000330281
0.000330283
0.000330285
0.000330286
0.000330288
0.000330289
0.000330293
0.000346424
0.000346423
0.000346425
0.000346427
0.00034643
0.000346433
0.000346437
0.00034644
0.000346444
0.000346446
0.000346449
0.000346451
0.000346453
0.000346456
0.000346458
0.000346461
0.000346464
0.000346466
0.000346468
0.00034647
0.000346472
0.000346473
0.000346474
0.000346475
0.000346477
0.000346478
0.000346479
0.00034648
0.000346481
0.000346481
0.000346482
0.000346482
0.000346482
0.000346483
0.000346483
0.000346483
0.000346483
0.000346483
0.000346483
0.000346482
0.000346482
0.000346482
0.000346482
0.000346481
0.000346482
0.000346397
0.000346396
0.000346399
0.000346402
0.000346406
0.00034641
0.000346413
0.000346416
0.000346418
0.000346421
0.000346423
0.000346425
0.000346427
0.000346429
0.000346429
0.000346433
0.000363118
0.000363119
0.000363121
0.000363124
0.000363127
0.000363131
0.000363134
0.000363137
0.000363141
0.000363144
0.000363146
0.000363149
0.000363151
0.000363154
0.000363156
0.000363158
0.000363161
0.000363163
0.000363165
0.000363168
0.000363169
0.00036317
0.000363172
0.000363173
0.000363174
0.000363175
0.000363176
0.000363176
0.000363177
0.000363178
0.000363178
0.000363178
0.000363178
0.000363179
0.000363179
0.000363178
0.000363178
0.000363178
0.000363178
0.000363177
0.000363176
0.000363176
0.000363175
0.000363174
0.000363174
0.000363088
0.000363087
0.000363089
0.000363092
0.000363095
0.000363099
0.000363102
0.000363105
0.000363108
0.00036311
0.000363113
0.000363114
0.000363116
0.000363118
0.000363119
0.000363121
0.000380397
0.0003804
0.000380403
0.000380406
0.00038041
0.000380413
0.000380417
0.000380421
0.000380424
0.000380427
0.000380429
0.000380432
0.000380434
0.000380437
0.000380439
0.000380443
0.000380445
0.000380447
0.000380448
0.000380451
0.000380452
0.000380453
0.000380455
0.000380455
0.000380457
0.000380457
0.000380458
0.000380459
0.000380459
0.000380459
0.000380459
0.00038046
0.00038046
0.000380459
0.000380459
0.000380459
0.000380458
0.000380457
0.000380456
0.000380456
0.000380455
0.000380454
0.000380453
0.000380452
0.000380451
0.000380363
0.000380363
0.000380365
0.000380367
0.00038037
0.000380373
0.000380376
0.00038038
0.000380382
0.000380384
0.000380387
0.000380388
0.000380389
0.000380391
0.000380392
0.000380394
0.0003983
0.000398304
0.000398309
0.000398312
0.000398316
0.00039832
0.000398324
0.000398328
0.000398331
0.000398334
0.000398337
0.000398339
0.000398342
0.000398345
0.000398347
0.000398349
0.000398352
0.000398353
0.000398356
0.000398357
0.000398358
0.00039836
0.000398361
0.000398362
0.000398362
0.000398363
0.000398364
0.000398364
0.000398364
0.000398363
0.000398363
0.000398363
0.000398363
0.000398362
0.000398362
0.000398361
0.000398361
0.000398359
0.000398358
0.000398358
0.000398356
0.000398354
0.000398353
0.000398352
0.000398349
0.00039826
0.000398262
0.000398264
0.000398266
0.000398268
0.000398271
0.000398274
0.000398276
0.000398279
0.000398281
0.000398283
0.000398285
0.000398286
0.000398287
0.000398289
0.000398288
0.000416867
0.000416874
0.000416879
0.000416883
0.000416887
0.000416892
0.000416895
0.000416899
0.000416903
0.000416906
0.000416909
0.000416911
0.000416913
0.000416916
0.000416918
0.00041692
0.000416922
0.000416925
0.000416927
0.000416928
0.00041693
0.00041693
0.000416931
0.000416932
0.000416932
0.000416932
0.000416933
0.000416933
0.000416932
0.000416932
0.000416932
0.000416931
0.000416931
0.000416929
0.000416928
0.000416928
0.000416926
0.000416924
0.000416923
0.000416922
0.00041692
0.000416919
0.000416917
0.000416916
0.00041691
0.000416821
0.000416825
0.000416826
0.000416828
0.00041683
0.000416832
0.000416835
0.000416838
0.00041684
0.000416842
0.000416843
0.000416845
0.000416846
0.000416847
0.000416848
0.000416846
0.000436141
0.00043615
0.000436156
0.00043616
0.000436165
0.00043617
0.000436174
0.000436177
0.000436181
0.000436184
0.000436188
0.000436189
0.000436192
0.000436195
0.000436196
0.000436199
0.0004362
0.000436202
0.000436204
0.000436205
0.000436207
0.000436207
0.000436207
0.000436208
0.000436208
0.000436208
0.000436208
0.000436208
0.000436207
0.000436207
0.000436206
0.000436204
0.000436204
0.000436202
0.000436201
0.000436199
0.000436197
0.000436196
0.000436194
0.000436192
0.00043619
0.000436187
0.000436185
0.000436184
0.000436177
0.000436088
0.000436093
0.000436095
0.000436097
0.000436098
0.000436101
0.000436103
0.000436105
0.000436107
0.000436108
0.00043611
0.000436111
0.000436111
0.000436112
0.000436113
0.00043611
0.000456167
0.00045618
0.000456186
0.000456191
0.000456195
0.000456201
0.000456205
0.000456209
0.000456212
0.000456216
0.000456219
0.000456221
0.000456224
0.000456225
0.000456227
0.000456228
0.000456231
0.000456233
0.000456233
0.000456235
0.000456235
0.000456237
0.000456237
0.000456236
0.000456236
0.000456236
0.000456235
0.000456235
0.000456233
0.000456233
0.000456232
0.00045623
0.000456228
0.000456226
0.000456225
0.000456223
0.000456221
0.000456218
0.000456216
0.000456214
0.00045621
0.000456208
0.000456205
0.000456204
0.000456193
0.000456105
0.000456113
0.000456116
0.000456117
0.000456119
0.000456119
0.000456121
0.000456123
0.000456124
0.000456125
0.000456126
0.000456127
0.000456127
0.000456129
0.00045613
0.000456123
0.000476993
0.00047701
0.000477017
0.000477023
0.000477028
0.000477032
0.000477037
0.000477041
0.000477044
0.000477048
0.000477049
0.000477053
0.000477054
0.000477056
0.000477058
0.000477059
0.000477061
0.000477063
0.000477063
0.000477065
0.000477065
0.000477065
0.000477065
0.000477065
0.000477064
0.000477064
0.000477062
0.000477061
0.000477059
0.000477059
0.000477057
0.000477055
0.000477053
0.000477051
0.000477047
0.000477045
0.000477042
0.00047704
0.000477036
0.000477033
0.000477031
0.000477026
0.000477023
0.000477022
0.000477009
0.000476922
0.000476932
0.000476935
0.000476936
0.000476938
0.000476938
0.00047694
0.000476941
0.000476942
0.000476943
0.000476943
0.000476942
0.000476944
0.000476944
0.000476945
0.000476936
0.000498671
0.00049869
0.0004987
0.000498704
0.000498709
0.000498714
0.000498719
0.000498723
0.000498726
0.00049873
0.000498732
0.000498734
0.000498735
0.000498737
0.000498739
0.000498741
0.000498743
0.000498743
0.000498745
0.000498745
0.000498745
0.000498743
0.000498743
0.000498743
0.000498742
0.00049874
0.00049874
0.000498738
0.000498736
0.000498733
0.000498731
0.000498727
0.000498725
0.000498723
0.00049872
0.000498716
0.000498713
0.000498709
0.000498706
0.000498703
0.000498698
0.000498695
0.00049869
0.000498689
0.000498672
0.000498587
0.000498601
0.000498603
0.000498605
0.000498606
0.000498606
0.000498607
0.000498608
0.000498609
0.000498608
0.000498608
0.000498608
0.000498607
0.000498607
0.000498609
0.000498597
0.000521251
0.000521274
0.000521284
0.00052129
0.000521295
0.000521301
0.000521305
0.000521308
0.000521312
0.000521316
0.000521318
0.00052132
0.000521322
0.000521322
0.000521324
0.000521326
0.000521326
0.000521326
0.000521326
0.000521326
0.000521326
0.000521326
0.000521324
0.000521324
0.000521322
0.00052132
0.000521318
0.000521315
0.000521313
0.000521311
0.000521306
0.000521304
0.000521301
0.000521296
0.000521293
0.000521289
0.000521286
0.000521281
0.000521277
0.000521272
0.000521267
0.000521263
0.000521258
0.000521256
0.000521236
0.000521153
0.000521171
0.000521175
0.000521175
0.000521176
0.000521177
0.000521176
0.000521177
0.000521176
0.000521175
0.000521175
0.000521174
0.000521174
0.000521172
0.000521173
0.000521159
0.000544788
0.000544817
0.000544829
0.000544835
0.000544841
0.000544845
0.000544849
0.000544854
0.000544858
0.00054486
0.000544862
0.000544864
0.000544864
0.000544866
0.000544866
0.000544868
0.000544868
0.000544868
0.000544868
0.000544868
0.000544866
0.000544866
0.000544864
0.000544861
0.000544859
0.000544856
0.000544854
0.000544851
0.000544848
0.000544844
0.000544841
0.000544838
0.000544833
0.000544829
0.000544824
0.000544819
0.000544815
0.00054481
0.000544804
0.000544798
0.000544794
0.000544788
0.000544782
0.000544778
0.000544756
0.000544674
0.000544696
0.000544701
0.000544701
0.000544702
0.000544703
0.000544702
0.000544701
0.0005447
0.0005447
0.000544699
0.000544696
0.000544696
0.000544693
0.000544695
0.000544677
0.000569342
0.000569379
0.000569389
0.000569396
0.000569402
0.000569407
0.000569411
0.000569416
0.000569418
0.000569421
0.000569423
0.000569423
0.000569425
0.000569425
0.000569425
0.000569427
0.000569427
0.000569427
0.000569425
0.000569424
0.000569422
0.000569421
0.000569419
0.000569416
0.000569413
0.00056941
0.000569405
0.000569402
0.000569399
0.000569394
0.00056939
0.000569385
0.000569379
0.000569375
0.000569369
0.000569363
0.000569357
0.000569353
0.000569347
0.00056934
0.000569334
0.000569327
0.00056932
0.000569316
0.000569291
0.000569209
0.000569238
0.000569243
0.000569244
0.000569243
0.000569244
0.000569243
0.000569242
0.000569241
0.000569238
0.000569237
0.000569235
0.000569232
0.000569229
0.000569231
0.000569208
0.000594974
0.000595014
0.000595028
0.000595036
0.00059504
0.000595045
0.00059505
0.000595053
0.000595057
0.000595058
0.00059506
0.00059506
0.000595062
0.000595062
0.000595062
0.000595062
0.000595062
0.000595061
0.000595058
0.000595058
0.000595055
0.000595052
0.000595049
0.000595046
0.000595043
0.000595037
0.000595034
0.000595028
0.000595024
0.000595018
0.000595014
0.000595008
0.000595001
0.000594995
0.000594988
0.000594984
0.000594977
0.00059497
0.000594963
0.000594955
0.000594948
0.000594941
0.000594931
0.000594928
0.000594896
0.00059482
0.000594852
0.00059486
0.000594861
0.00059486
0.000594859
0.000594857
0.000594857
0.000594853
0.000594852
0.000594849
0.000594846
0.000594843
0.000594837
0.000594839
0.000594814
0.000621744
0.000621791
0.000621804
0.000621812
0.00062182
0.000621823
0.000621828
0.00062183
0.000621833
0.000621836
0.000621836
0.000621835
0.000621835
0.000621835
0.000621835
0.000621834
0.000621834
0.000621833
0.00062183
0.000621827
0.000621824
0.00062182
0.000621817
0.000621813
0.000621809
0.000621803
0.000621799
0.000621792
0.000621788
0.000621781
0.000621774
0.000621767
0.00062176
0.000621752
0.000621745
0.000621737
0.00062173
0.000621722
0.000621714
0.000621706
0.000621698
0.000621689
0.000621678
0.000621675
0.00062164
0.000621565
0.000621603
0.000621613
0.000621611
0.000621613
0.000621612
0.000621608
0.000621607
0.000621603
0.0006216
0.000621596
0.000621593
0.000621589
0.000621583
0.000621585
0.000621555
0.000649717
0.000649769
0.000649786
0.000649795
0.000649801
0.000649806
0.000649809
0.000649812
0.000649815
0.000649814
0.000649817
0.000649817
0.000649816
0.000649813
0.000649812
0.000649812
0.000649811
0.000649808
0.000649804
0.0006498
0.000649796
0.000649792
0.000649788
0.000649784
0.000649777
0.000649772
0.000649765
0.000649757
0.000649753
0.000649745
0.000649737
0.000649729
0.000649721
0.000649713
0.000649705
0.000649696
0.000649687
0.000649676
0.000649667
0.000649658
0.000649649
0.000649637
0.000649628
0.000649621
0.000649582
0.00064951
0.000649555
0.000649566
0.000649567
0.000649566
0.000649565
0.000649561
0.000649557
0.000649556
0.000649552
0.000649545
0.000649542
0.000649538
0.000649531
0.00064953
0.000649497
0.000678958
0.000679021
0.00067904
0.000679049
0.000679052
0.000679058
0.000679061
0.000679064
0.000679067
0.000679067
0.000679066
0.000679066
0.000679065
0.000679061
0.000679061
0.00067906
0.000679056
0.000679051
0.00067905
0.000679046
0.000679038
0.000679034
0.000679029
0.000679021
0.000679016
0.000679008
0.000679
0.000678994
0.000678986
0.000678977
0.000678968
0.000678959
0.00067895
0.000678941
0.000678929
0.000678919
0.00067891
0.0006789
0.000678887
0.000678877
0.000678867
0.000678853
0.000678843
0.000678836
0.000678793
0.000678724
0.000678778
0.000678786
0.000678788
0.000678787
0.000678786
0.000678782
0.000678777
0.000678773
0.000678769
0.000678765
0.000678757
0.000678753
0.000678746
0.000678745
0.000678705
0.000709541
0.000709612
0.000709632
0.000709639
0.000709645
0.000709649
0.000709652
0.000709655
0.000709658
0.000709657
0.000709656
0.000709656
0.000709651
0.00070965
0.000709646
0.000709645
0.00070964
0.000709635
0.00070963
0.000709625
0.00070962
0.000709615
0.000709606
0.000709601
0.000709591
0.000709582
0.000709573
0.000709563
0.000709554
0.000709544
0.000709534
0.000709524
0.000709514
0.000709504
0.000709493
0.000709479
0.000709469
0.000709458
0.000709443
0.000709432
0.000709421
0.000709406
0.000709391
0.000709387
0.000709335
0.000709272
0.000709334
0.000709344
0.000709346
0.000709345
0.000709341
0.00070934
0.000709335
0.000709327
0.000709322
0.000709318
0.000709309
0.000709301
0.000709293
0.000709292
0.000709248
0.00074153
0.000741611
0.000741634
0.000741641
0.000741648
0.000741651
0.000741655
0.000741654
0.000741657
0.000741656
0.000741655
0.00074165
0.000741649
0.000741644
0.000741643
0.000741637
0.000741632
0.000741626
0.000741621
0.000741615
0.000741609
0.000741599
0.000741593
0.000741583
0.000741573
0.000741562
0.000741556
0.000741545
0.000741534
0.00074152
0.000741509
0.000741497
0.000741486
0.000741475
0.000741459
0.000741447
0.000741436
0.00074142
0.000741408
0.000741391
0.000741379
0.000741362
0.00074135
0.000741341
0.000741284
0.000741226
0.000741296
0.00074131
0.000741309
0.000741308
0.000741303
0.000741299
0.000741294
0.000741289
0.000741284
0.000741275
0.000741266
0.000741257
0.000741248
0.000741247
0.000741198
0.000775001
0.000775091
0.000775116
0.000775123
0.000775131
0.000775134
0.000775138
0.000775136
0.000775135
0.000775134
0.000775133
0.000775127
0.000775126
0.00077512
0.000775114
0.000775112
0.000775106
0.0007751
0.000775089
0.000775082
0.000775076
0.000775065
0.000775058
0.000775046
0.000775035
0.000775023
0.000775011
0.000774999
0.000774987
0.000774975
0.000774963
0.00077495
0.000774933
0.000774921
0.000774908
0.00077489
0.000774877
0.00077486
0.000774846
0.000774828
0.000774814
0.000774796
0.000774778
0.000774772
0.00077471
0.000774655
0.000774736
0.000774753
0.000774752
0.000774751
0.000774745
0.00077474
0.000774735
0.000774725
0.00077472
0.00077471
0.0007747
0.00077469
0.00077468
0.000774679
0.000774625
0.000810022
0.000810122
0.000810149
0.000810162
0.000810166
0.000810169
0.000810173
0.000810171
0.00081017
0.000810168
0.000810162
0.00081016
0.000810153
0.000810147
0.00081014
0.000810138
0.000810131
0.000810119
0.000810111
0.000810104
0.000810091
0.000810084
0.000810071
0.000810058
0.000810045
0.000810032
0.000810019
0.000810006
0.000809992
0.000809979
0.000809965
0.000809951
0.000809932
0.000809918
0.000809904
0.000809884
0.00080987
0.00080985
0.000809835
0.000809815
0.0008098
0.00080978
0.00080976
0.000809749
0.000809684
0.000809633
0.000809723
0.000809742
0.000809746
0.00080974
0.000809734
0.000809729
0.000809723
0.000809712
0.000809701
0.000809696
0.000809685
0.000809674
0.000809658
0.000809657
0.000809597
0.000846667
0.000846782
0.000846812
0.000846821
0.00084683
0.000846829
0.000846832
0.00084683
0.000846829
0.000846821
0.000846819
0.000846812
0.00084681
0.000846802
0.000846794
0.000846786
0.000846778
0.000846765
0.000846756
0.000846748
0.000846734
0.00084672
0.000846711
0.000846697
0.000846682
0.000846668
0.000846653
0.000846638
0.000846623
0.000846608
0.000846587
0.000846572
0.000846556
0.000846535
0.000846519
0.000846498
0.000846481
0.00084646
0.000846443
0.000846421
0.000846404
0.000846382
0.000846359
0.000846347
0.000846276
0.00084623
0.000846335
0.000846355
0.000846355
0.000846354
0.000846348
0.000846342
0.00084633
0.000846318
0.000846312
0.0008463
0.000846288
0.000846276
0.000846259
0.000846258
0.000846192
0.000885013
0.00088514
0.000885174
0.000885183
0.000885187
0.000885191
0.000885189
0.000885186
0.000885184
0.000885176
0.000885173
0.000885165
0.000885156
0.000885147
0.000885138
0.000885129
0.00088512
0.000885111
0.000885096
0.000885086
0.000885071
0.000885061
0.000885045
0.000885029
0.000885013
0.000884996
0.00088498
0.000884963
0.000884947
0.000884924
0.000884907
0.000884889
0.000884872
0.000884849
0.000884831
0.000884807
0.000884789
0.000884765
0.000884747
0.000884722
0.000884704
0.000884679
0.000884654
0.000884641
0.000884562
0.000884527
0.000884638
0.000884661
0.000884666
0.000884659
0.000884653
0.000884646
0.000884633
0.000884621
0.000884614
0.000884601
0.000884582
0.000884569
0.000884556
0.000884548
0.000884481
0.000925125
0.000925265
0.000925302
0.000925312
0.000925316
0.00092532
0.000925317
0.000925315
0.000925312
0.000925302
0.000925293
0.000925289
0.00092528
0.00092527
0.00092526
0.000925249
0.000925232
0.000925222
0.000925205
0.000925194
0.000925177
0.000925159
0.000925148
0.00092513
0.000925112
0.000925094
0.000925075
0.000925057
0.000925031
0.000925013
0.000924994
0.000924974
0.000924949
0.000924929
0.000924909
0.000924883
0.000924863
0.000924836
0.000924816
0.000924789
0.000924762
0.000924741
0.000924713
0.000924699
0.000924612
0.000924585
0.000924714
0.000924739
0.000924739
0.000924732
0.000924724
0.000924717
0.000924703
0.000924689
0.000924675
0.000924661
0.000924647
0.000924632
0.000924611
0.000924603
0.000924529
0.000967079
0.000967234
0.000967275
0.000967286
0.00096729
0.000967287
0.000967284
0.00096728
0.000967277
0.000967266
0.000967255
0.000967251
0.00096724
0.000967229
0.00096721
0.000967199
0.000967187
0.000967168
0.000967156
0.000967137
0.000967124
0.000967105
0.000967085
0.000967065
0.000967045
0.000967024
0.000967004
0.000966983
0.000966962
0.000966941
0.000966913
0.000966892
0.00096687
0.000966841
0.000966819
0.00096679
0.000966768
0.000966746
0.000966716
0.000966686
0.000966663
0.000966633
0.00096661
0.000966586
0.000966497
0.000966479
0.000966615
0.000966644
0.00096665
0.000966643
0.000966635
0.00096662
0.000966612
0.000966596
0.000966581
0.000966565
0.000966542
0.000966527
0.000966511
0.000966502
0.00096642
0.00101094
0.00101112
0.00101115
0.00101116
0.00101117
0.00101116
0.00101116
0.00101116
0.00101115
0.00101114
0.00101113
0.00101112
0.0010111
0.00101109
0.00101108
0.00101106
0.00101104
0.00101103
0.00101101
0.00101099
0.00101097
0.00101095
0.00101093
0.00101091
0.00101088
0.00101086
0.00101084
0.00101081
0.00101079
0.00101077
0.00101074
0.00101071
0.00101069
0.00101067
0.00101063
0.00101061
0.00101058
0.00101055
0.00101052
0.00101049
0.00101046
0.00101043
0.0010104
0.00101038
0.00101028
0.00101027
0.00101043
0.00101046
0.00101047
0.00101046
0.00101044
0.00101043
0.00101042
0.0010104
0.00101038
0.00101037
0.00101035
0.00101033
0.00101031
0.0010103
0.00101021
0.00105678
0.00105697
0.00105701
0.00105702
0.00105702
0.00105702
0.00105701
0.00105701
0.001057
0.00105698
0.00105697
0.00105695
0.00105694
0.00105692
0.00105691
0.0010569
0.00105687
0.00105686
0.00105683
0.00105682
0.00105679
0.00105677
0.00105674
0.00105672
0.00105669
0.00105667
0.00105664
0.00105662
0.00105659
0.00105657
0.00105654
0.0010565
0.00105648
0.00105645
0.00105642
0.00105639
0.00105636
0.00105633
0.0010563
0.00105626
0.00105623
0.0010562
0.00105617
0.00105614
0.00105605
0.00105604
0.00105621
0.00105625
0.00105625
0.00105624
0.00105623
0.00105621
0.0010562
0.00105618
0.00105616
0.00105614
0.00105612
0.0010561
0.00105607
0.00105606
0.00105597
0.00110465
0.00110485
0.00110489
0.00110491
0.00110491
0.00110491
0.0011049
0.00110488
0.00110488
0.00110486
0.00110485
0.00110483
0.00110482
0.0011048
0.00110477
0.00110476
0.00110474
0.00110471
0.0011047
0.00110467
0.00110464
0.00110461
0.00110459
0.00110456
0.00110454
0.00110451
0.00110447
0.00110445
0.00110442
0.00110439
0.00110436
0.00110433
0.0011043
0.00110426
0.00110423
0.0011042
0.00110416
0.00110413
0.0011041
0.00110406
0.00110403
0.00110399
0.00110396
0.00110393
0.00110383
0.00110384
0.00110402
0.00110406
0.00110406
0.00110405
0.00110404
0.00110402
0.00110401
0.00110399
0.00110397
0.00110394
0.00110392
0.0011039
0.00110387
0.00110385
0.00110376
0.0011546
0.00115483
0.00115487
0.00115489
0.00115488
0.00115488
0.00115487
0.00115486
0.00115485
0.00115483
0.00115481
0.00115479
0.00115477
0.00115476
0.00115473
0.00115471
0.00115469
0.00115466
0.00115463
0.00115461
0.00115458
0.00115455
0.00115452
0.00115449
0.00115447
0.00115444
0.00115441
0.00115437
0.00115433
0.0011543
0.00115427
0.00115423
0.0011542
0.00115417
0.00115414
0.00115409
0.00115406
0.00115403
0.00115398
0.00115395
0.00115391
0.00115387
0.00115383
0.0011538
0.0011537
0.00115371
0.00115392
0.00115396
0.00115396
0.00115395
0.00115394
0.00115392
0.0011539
0.00115387
0.00115385
0.00115383
0.00115381
0.00115377
0.00115375
0.00115372
0.00115364
0.0012067
0.00120693
0.001207
0.001207
0.001207
0.00120699
0.00120698
0.00120698
0.00120696
0.00120694
0.00120692
0.0012069
0.00120688
0.00120684
0.00120682
0.0012068
0.00120677
0.00120675
0.00120671
0.00120668
0.00120666
0.00120662
0.00120659
0.00120656
0.00120652
0.00120649
0.00120645
0.00120642
0.00120638
0.00120635
0.00120631
0.00120627
0.00120624
0.0012062
0.00120616
0.00120613
0.00120608
0.00120604
0.001206
0.00120597
0.00120592
0.00120588
0.00120584
0.0012058
0.00120569
0.00120573
0.00120596
0.001206
0.001206
0.00120599
0.00120598
0.00120595
0.00120593
0.0012059
0.00120588
0.00120585
0.00120582
0.00120579
0.00120575
0.00120574
0.00120564
0.00126097
0.00126124
0.00126129
0.0012613
0.0012613
0.00126129
0.00126128
0.00126126
0.00126124
0.00126122
0.0012612
0.00126117
0.00126115
0.00126112
0.0012611
0.00126107
0.00126104
0.00126101
0.00126097
0.00126094
0.00126091
0.00126087
0.00126083
0.0012608
0.00126076
0.00126072
0.00126069
0.00126065
0.00126061
0.00126057
0.00126053
0.00126049
0.00126045
0.00126041
0.00126037
0.00126033
0.00126028
0.00126024
0.0012602
0.00126015
0.00126011
0.00126006
0.00126002
0.00125998
0.00125987
0.00125992
0.00126017
0.00126022
0.00126022
0.0012602
0.00126018
0.00126016
0.00126014
0.00126011
0.00126008
0.00126005
0.00126002
0.00125998
0.00125995
0.00125992
0.00125982
0.00131747
0.00131775
0.00131781
0.00131782
0.00131781
0.0013178
0.00131778
0.00131776
0.00131774
0.00131772
0.00131769
0.00131767
0.00131764
0.00131761
0.00131758
0.00131754
0.00131751
0.00131748
0.00131744
0.0013174
0.00131737
0.00131733
0.00131729
0.00131725
0.00131721
0.00131717
0.00131713
0.00131709
0.00131704
0.001317
0.00131696
0.00131691
0.00131687
0.00131683
0.00131678
0.00131674
0.00131669
0.00131664
0.0013166
0.00131655
0.0013165
0.00131645
0.0013164
0.00131636
0.00131626
0.00131632
0.00131659
0.00131664
0.00131664
0.00131662
0.0013166
0.00131658
0.00131655
0.00131652
0.00131649
0.00131645
0.00131642
0.00131638
0.00131635
0.00131631
0.00131622
0.00137619
0.00137649
0.00137656
0.00137657
0.00137656
0.00137654
0.00137652
0.0013765
0.00137648
0.00137645
0.00137642
0.00137639
0.00137636
0.00137632
0.00137629
0.00137625
0.00137622
0.00137618
0.00137614
0.0013761
0.00137606
0.00137601
0.00137597
0.00137593
0.00137588
0.00137584
0.0013758
0.00137575
0.0013757
0.00137566
0.00137561
0.00137556
0.00137552
0.00137547
0.00137542
0.00137537
0.00137532
0.00137527
0.00137522
0.00137517
0.00137512
0.00137507
0.00137502
0.00137497
0.00137487
0.00137495
0.00137524
0.0013753
0.0013753
0.00137528
0.00137525
0.00137523
0.0013752
0.00137516
0.00137513
0.00137509
0.00137505
0.00137501
0.00137497
0.00137494
0.00137484
0.00143716
0.00143748
0.00143755
0.00143756
0.00143755
0.00143753
0.00143751
0.00143748
0.00143745
0.00143742
0.00143739
0.00143735
0.00143732
0.00143728
0.00143724
0.0014372
0.00143716
0.00143712
0.00143708
0.00143703
0.00143699
0.00143694
0.00143689
0.00143685
0.0014368
0.00143675
0.0014367
0.00143665
0.0014366
0.00143655
0.0014365
0.00143645
0.0014364
0.00143635
0.0014363
0.00143625
0.0014362
0.00143614
0.00143609
0.00143604
0.00143598
0.00143593
0.00143587
0.00143582
0.00143572
0.00143583
0.00143614
0.00143619
0.00143619
0.00143617
0.00143615
0.00143612
0.00143608
0.00143605
0.00143601
0.00143597
0.00143593
0.00143588
0.00143584
0.0014358
0.00143571
0.00150037
0.00150071
0.00150078
0.00150079
0.00150078
0.00150075
0.00150073
0.0015007
0.00150067
0.00150063
0.00150059
0.00150056
0.00150052
0.00150048
0.00150043
0.00150039
0.00150035
0.0015003
0.00150025
0.0015002
0.00150015
0.0015001
0.00150005
0.0015
0.00149995
0.00149989
0.00149984
0.00149979
0.00149974
0.00149968
0.00149963
0.00149958
0.00149952
0.00149947
0.00149941
0.00149936
0.0014993
0.00149924
0.00149919
0.00149913
0.00149907
0.00149901
0.00149895
0.0014989
0.0014988
0.00149894
0.00149927
0.00149933
0.00149933
0.00149931
0.00149928
0.00149924
0.00149921
0.00149917
0.00149912
0.00149908
0.00149903
0.00149899
0.00149894
0.00149889
0.00149881
0.0015658
0.00156616
0.00156624
0.00156624
0.00156622
0.0015662
0.00156617
0.00156614
0.0015661
0.00156606
0.00156602
0.00156598
0.00156593
0.00156589
0.00156584
0.00156579
0.00156574
0.00156569
0.00156564
0.00156559
0.00156553
0.00156548
0.00156542
0.00156537
0.00156531
0.00156525
0.0015652
0.00156514
0.00156508
0.00156503
0.00156497
0.00156491
0.00156485
0.0015648
0.00156474
0.00156468
0.00156462
0.00156456
0.0015645
0.00156444
0.00156437
0.00156431
0.00156425
0.00156419
0.0015641
0.00156427
0.00156462
0.00156468
0.00156468
0.00156466
0.00156462
0.00156459
0.00156454
0.0015645
0.00156446
0.00156441
0.00156436
0.00156431
0.00156425
0.0015642
0.00156412
0.00163341
0.0016338
0.00163387
0.00163387
0.00163385
0.00163383
0.00163379
0.00163375
0.00163371
0.00163367
0.00163362
0.00163358
0.00163353
0.00163348
0.00163343
0.00163337
0.00163332
0.00163326
0.0016332
0.00163315
0.00163309
0.00163303
0.00163297
0.00163291
0.00163285
0.00163279
0.00163273
0.00163267
0.00163261
0.00163254
0.00163248
0.00163242
0.00163236
0.0016323
0.00163224
0.00163217
0.00163211
0.00163204
0.00163198
0.00163192
0.00163185
0.00163179
0.00163172
0.00163166
0.00163157
0.00163177
0.00163215
0.00163222
0.00163221
0.00163218
0.00163215
0.00163211
0.00163206
0.00163202
0.00163197
0.00163192
0.00163186
0.00163181
0.00163175
0.00163169
0.00163162
0.00170315
0.00170356
0.00170363
0.00170363
0.00170361
0.00170357
0.00170354
0.00170349
0.00170345
0.0017034
0.00170335
0.0017033
0.00170324
0.00170319
0.00170313
0.00170307
0.00170302
0.00170295
0.00170289
0.00170283
0.00170276
0.0017027
0.00170264
0.00170257
0.00170251
0.00170244
0.00170238
0.00170231
0.00170224
0.00170218
0.00170211
0.00170205
0.00170198
0.00170192
0.00170185
0.00170179
0.00170172
0.00170165
0.00170158
0.00170152
0.00170145
0.00170138
0.00170131
0.00170124
0.00170117
0.00170141
0.00170181
0.00170187
0.00170187
0.00170184
0.0017018
0.00170175
0.00170171
0.00170165
0.0017016
0.00170155
0.00170149
0.00170143
0.00170137
0.00170131
0.00170124
0.00177493
0.00177536
0.00177544
0.00177544
0.00177541
0.00177537
0.00177532
0.00177528
0.00177523
0.00177517
0.00177512
0.00177506
0.001775
0.00177494
0.00177488
0.00177482
0.00177475
0.00177469
0.00177462
0.00177455
0.00177448
0.00177441
0.00177434
0.00177427
0.0017742
0.00177413
0.00177406
0.001774
0.00177393
0.00177386
0.00177379
0.00177372
0.00177365
0.00177358