/*--------------------------------*- C++ -*----------------------------------*\
  =========                 |
  \\      /  F ield         | OpenFOAM: The Open Source CFD Toolbox
   \\    /   O peration     | Website:  https://openfoam.org
    \\  /    A nd           | Version:  7
     \\/     M anipulation  |
\*---------------------------------------------------------------------------*/
FoamFile
{
    version     2.0;
    format      ascii;
    class       volVectorField;
    location    "18000";
    object      U;
}
// * * * * * * * * * * * * * * * * * * * * * * * * * * * * * * * * * * * * * //

dimensions      [0 1 -1 0 0 0 0];

internalField   nonuniform List<vector> 
4000
(
(0.153868 -1.56031e-08 3.38205e-14)
(0.153868 -1.98482e-08 3.3808e-14)
(0.153868 -2.30703e-08 3.37512e-14)
(0.153868 -2.59098e-08 3.3737e-14)
(0.153868 -2.85633e-08 3.36782e-14)
(0.153868 -3.10791e-08 3.3648e-14)
(0.153868 -3.34566e-08 3.37024e-14)
(0.153868 -3.56894e-08 3.36938e-14)
(0.153868 -3.77721e-08 3.36764e-14)
(0.153868 -3.97028e-08 3.3702e-14)
(0.153868 -4.14834e-08 3.36954e-14)
(0.153868 -4.3117e-08 3.36107e-14)
(0.153868 -4.46074e-08 3.36197e-14)
(0.153868 -4.59607e-08 3.35537e-14)
(0.153868 -4.71854e-08 3.35882e-14)
(0.153868 -4.82902e-08 3.35781e-14)
(0.153868 -4.9284e-08 3.34921e-14)
(0.153867 -5.01737e-08 3.35122e-14)
(0.153867 -5.0963e-08 3.34583e-14)
(0.153867 -5.16523e-08 3.35028e-14)
(0.153867 -5.22397e-08 3.34967e-14)
(0.153867 -5.27212e-08 3.35315e-14)
(0.153867 -5.30922e-08 3.35376e-14)
(0.153867 -5.33503e-08 3.35302e-14)
(0.153867 -5.34981e-08 3.35456e-14)
(0.153867 -5.35429e-08 3.35147e-14)
(0.153867 -5.34961e-08 3.35053e-14)
(0.153867 -5.33718e-08 3.35126e-14)
(0.153867 -5.31843e-08 3.3514e-14)
(0.153867 -5.29457e-08 3.35409e-14)
(0.153867 -5.26639e-08 3.35118e-14)
(0.153867 -5.23407e-08 3.34916e-14)
(0.153867 -5.197e-08 3.34949e-14)
(0.153867 -5.15347e-08 3.34924e-14)
(0.153867 -5.10026e-08 3.35205e-14)
(0.153867 -5.03197e-08 3.34783e-14)
(0.153867 -4.94029e-08 3.34442e-14)
(0.153867 -4.81295e-08 3.34416e-14)
(0.153867 -4.63179e-08 3.34116e-14)
(0.153867 -4.37089e-08 3.34549e-14)
(0.153867 -3.98991e-08 3.34642e-14)
(0.153867 -3.43166e-08 3.34465e-14)
(0.153867 -2.58433e-08 3.34328e-14)
(0.153867 -1.27335e-08 3.34356e-14)
(0.153867 9.42256e-09 3.34358e-14)
(0.153867 3.33188e-08 3.34321e-14)
(0.153867 4.87096e-08 3.3443e-14)
(0.153867 5.798e-08 3.34232e-14)
(0.153867 6.36986e-08 3.342e-14)
(0.153867 6.70496e-08 3.34164e-14)
(0.153867 6.88301e-08 3.34086e-14)
(0.153867 6.95531e-08 3.34075e-14)
(0.153867 6.95411e-08 3.33894e-14)
(0.153867 6.90152e-08 3.33821e-14)
(0.153867 6.8131e-08 3.33721e-14)
(0.153867 6.69996e-08 3.33744e-14)
(0.153867 6.56993e-08 3.33834e-14)
(0.153867 6.42842e-08 3.33778e-14)
(0.153867 6.27919e-08 3.33649e-14)
(0.153867 6.1247e-08 3.33527e-14)
(0.153867 5.96634e-08 3.33681e-14)
(0.153867 5.80479e-08 3.33784e-14)
(0.153867 5.64033e-08 3.33782e-14)
(0.153867 5.47303e-08 3.33778e-14)
(0.153867 5.30275e-08 3.33723e-14)
(0.153867 5.12932e-08 3.33911e-14)
(0.153867 4.95271e-08 3.34221e-14)
(0.153867 4.77282e-08 3.34217e-14)
(0.153867 4.58949e-08 3.34373e-14)
(0.153867 4.40266e-08 3.34215e-14)
(0.153867 4.21248e-08 3.344e-14)
(0.153867 4.01914e-08 3.34733e-14)
(0.153867 3.8226e-08 3.34789e-14)
(0.153867 3.62266e-08 3.34822e-14)
(0.153867 3.41908e-08 3.34786e-14)
(0.153867 3.21164e-08 3.34888e-14)
(0.153867 2.99998e-08 3.35187e-14)
(0.153867 2.78347e-08 3.35027e-14)
(0.153867 2.5613e-08 3.34968e-14)
(0.153867 2.33274e-08 3.34766e-14)
(0.153867 2.09728e-08 3.3476e-14)
(0.153867 1.85442e-08 3.35188e-14)
(0.153867 1.60356e-08 3.35297e-14)
(0.153867 1.34408e-08 3.3531e-14)
(0.153867 1.07549e-08 3.35472e-14)
(0.153867 7.97525e-09 3.35634e-14)
(0.153867 5.10082e-09 3.35942e-14)
(0.153867 2.13177e-09 3.35985e-14)
(0.153867 -9.30682e-10 3.35983e-14)
(0.153867 -4.08216e-09 3.36187e-14)
(0.153867 -7.31296e-09 3.36218e-14)
(0.153867 -1.06063e-08 3.36474e-14)
(0.153867 -1.39364e-08 3.36487e-14)
(0.153867 -1.72647e-08 3.36418e-14)
(0.153867 -2.05347e-08 3.36572e-14)
(0.153867 -2.36616e-08 3.36668e-14)
(0.153867 -2.65222e-08 3.36891e-14)
(0.153867 -2.89357e-08 3.36827e-14)
(0.153867 -3.06441e-08 3.36742e-14)
(0.153867 -3.12421e-08 3.3688e-14)
(0.153867 -3.01494e-08 3.36868e-14)
(0.153867 -2.62319e-08 3.37071e-14)
(0.153867 -1.77204e-08 3.37136e-14)
(0.153867 -1.58308e-10 3.37238e-14)
(0.153867 1.91679e-08 3.37467e-14)
(0.153868 3.00048e-08 3.37509e-14)
(0.153868 3.47747e-08 3.37652e-14)
(0.153868 3.6088e-08 3.37637e-14)
(0.153868 3.51639e-08 3.37677e-14)
(0.153868 3.28289e-08 3.37919e-14)
(0.153868 2.96202e-08 3.37863e-14)
(0.153868 2.58809e-08 3.3774e-14)
(0.153868 2.18528e-08 3.37569e-14)
(0.153868 1.77112e-08 3.37591e-14)
(0.153868 1.35866e-08 3.37876e-14)
(0.153868 9.57508e-09 3.38052e-14)
(0.153868 5.75622e-09 3.38234e-14)
(0.153868 2.12436e-09 3.38087e-14)
(0.153868 -1.93133e-09 3.37998e-14)
(0.153868 -8.65469e-09 3.38168e-14)
(0.153853 -1.93669e-08 3.37936e-14)
(0.153853 -2.42677e-08 3.37786e-14)
(0.153853 -2.65212e-08 3.36737e-14)
(0.153853 -2.80646e-08 3.36706e-14)
(0.153853 -2.94763e-08 3.35835e-14)
(0.153853 -3.08909e-08 3.36869e-14)
(0.153853 -3.23081e-08 3.37644e-14)
(0.153853 -3.37077e-08 3.37416e-14)
(0.153853 -3.50696e-08 3.37524e-14)
(0.153853 -3.63774e-08 3.38281e-14)
(0.153853 -3.76206e-08 3.37109e-14)
(0.153853 -3.87912e-08 3.36385e-14)
(0.153853 -3.98839e-08 3.3604e-14)
(0.153853 -4.0897e-08 3.356e-14)
(0.153853 -4.1832e-08 3.35494e-14)
(0.153853 -4.26921e-08 3.35373e-14)
(0.153853 -4.34805e-08 3.34963e-14)
(0.153853 -4.41987e-08 3.34828e-14)
(0.153853 -4.48456e-08 3.34544e-14)
(0.153853 -4.54172e-08 3.34539e-14)
(0.153853 -4.5907e-08 3.33893e-14)
(0.153853 -4.63065e-08 3.35091e-14)
(0.153853 -4.66061e-08 3.35069e-14)
(0.153853 -4.67997e-08 3.34964e-14)
(0.153853 -4.68873e-08 3.35627e-14)
(0.153853 -4.68751e-08 3.34575e-14)
(0.153853 -4.67738e-08 3.34189e-14)
(0.153853 -4.65971e-08 3.34865e-14)
(0.153853 -4.63589e-08 3.34998e-14)
(0.153853 -4.60703e-08 3.35776e-14)
(0.153853 -4.57376e-08 3.34798e-14)
(0.153853 -4.53597e-08 3.34888e-14)
(0.153853 -4.49264e-08 3.34902e-14)
(0.153853 -4.44158e-08 3.35016e-14)
(0.153853 -4.37904e-08 3.36297e-14)
(0.153853 -4.29913e-08 3.34735e-14)
(0.153853 -4.19297e-08 3.34628e-14)
(0.153853 -4.04776e-08 3.34533e-14)
(0.153853 -3.84491e-08 3.33447e-14)
(0.153853 -3.55842e-08 3.35766e-14)
(0.153853 -3.14906e-08 3.35321e-14)
(0.153853 -2.56269e-08 3.35135e-14)
(0.153853 -1.70159e-08 3.3497e-14)
(0.153853 -4.42744e-09 3.34921e-14)
(0.153853 1.48832e-08 3.34918e-14)
(0.153853 3.57532e-08 3.34891e-14)
(0.153853 5.05449e-08 3.34879e-14)
(0.153853 6.01441e-08 3.34814e-14)
(0.153853 6.62733e-08 3.348e-14)
(0.153853 6.99357e-08 3.34779e-14)
(0.153853 7.19048e-08 3.3472e-14)
(0.153853 7.27094e-08 3.34658e-14)
(0.153852 7.26909e-08 3.34542e-14)
(0.153852 7.2085e-08 3.34467e-14)
(0.153852 7.10585e-08 3.34356e-14)
(0.153852 6.97318e-08 3.34374e-14)
(0.153852 6.81914e-08 3.34459e-14)
(0.153852 6.64985e-08 3.3445e-14)
(0.153852 6.4697e-08 3.34384e-14)
(0.153852 6.28172e-08 3.34286e-14)
(0.153852 6.0878e-08 3.34357e-14)
(0.153852 5.88902e-08 3.345e-14)
(0.153852 5.68608e-08 3.34572e-14)
(0.153852 5.47941e-08 3.34608e-14)
(0.153852 5.26919e-08 3.34603e-14)
(0.153852 5.05549e-08 3.34791e-14)
(0.153852 4.83844e-08 3.35027e-14)
(0.153852 4.61815e-08 3.3514e-14)
(0.153852 4.39459e-08 3.35203e-14)
(0.153852 4.16778e-08 3.3515e-14)
(0.153852 3.93796e-08 3.35335e-14)
(0.153852 3.7054e-08 3.35596e-14)
(0.153852 3.47021e-08 3.35706e-14)
(0.153852 3.23228e-08 3.35768e-14)
(0.153853 2.9915e-08 3.35734e-14)
(0.153853 2.74774e-08 3.35815e-14)
(0.153853 2.5008e-08 3.35956e-14)
(0.153853 2.25015e-08 3.35968e-14)
(0.153853 1.99512e-08 3.35932e-14)
(0.153853 1.73514e-08 3.35787e-14)
(0.153853 1.46981e-08 3.35421e-14)
(0.153853 1.19878e-08 3.35908e-14)
(0.153853 9.21598e-09 3.35914e-14)
(0.153853 6.37804e-09 3.35693e-14)
(0.153853 3.47073e-09 3.35868e-14)
(0.153853 4.93549e-10 3.35837e-14)
(0.153853 -2.55149e-09 3.36428e-14)
(0.153853 -5.66151e-09 3.36489e-14)
(0.153853 -8.83265e-09 3.36282e-14)
(0.153853 -1.20572e-08 3.36422e-14)
(0.153853 -1.53213e-08 3.36153e-14)
(0.153853 -1.86039e-08 3.36691e-14)
(0.153853 -2.18745e-08 3.36784e-14)
(0.153853 -2.50896e-08 3.36591e-14)
(0.153853 -2.81871e-08 3.3682e-14)
(0.153853 -3.10773e-08 3.36766e-14)
(0.153853 -3.36322e-08 3.37308e-14)
(0.153853 -3.56686e-08 3.37103e-14)
(0.153853 -3.69285e-08 3.36802e-14)
(0.153853 -3.70178e-08 3.36977e-14)
(0.153853 -3.53857e-08 3.36634e-14)
(0.153853 -3.10366e-08 3.37067e-14)
(0.153853 -2.27139e-08 3.37176e-14)
(0.153853 -7.62699e-09 3.37071e-14)
(0.153853 9.09126e-09 3.37399e-14)
(0.153853 1.98159e-08 3.37225e-14)
(0.153853 2.54745e-08 3.37648e-14)
(0.153853 2.78391e-08 3.37656e-14)
(0.153853 2.79595e-08 3.37605e-14)
(0.153853 2.66508e-08 3.37961e-14)
(0.153853 2.44796e-08 3.37525e-14)
(0.153853 2.18238e-08 3.37354e-14)
(0.153853 1.89585e-08 3.37298e-14)
(0.153853 1.60911e-08 3.37232e-14)
(0.153853 1.33868e-08 3.37496e-14)
(0.153853 1.09689e-08 3.37414e-14)
(0.153853 8.94996e-09 3.37537e-14)
(0.153853 7.22114e-09 3.37487e-14)
(0.153853 4.05959e-09 3.37438e-14)
(0.153853 -7.07577e-09 3.37892e-14)
(0.153826 -2.32937e-08 3.3778e-14)
(0.153826 -2.87362e-08 3.37498e-14)
(0.153826 -2.99251e-08 3.36948e-14)
(0.153826 -3.00987e-08 3.36556e-14)
(0.153826 -3.02076e-08 3.36198e-14)
(0.153826 -3.0466e-08 3.36508e-14)
(0.153826 -3.08723e-08 3.37171e-14)
(0.153826 -3.13913e-08 3.36994e-14)
(0.153826 -3.19866e-08 3.36953e-14)
(0.153826 -3.26274e-08 3.37e-14)
(0.153826 -3.32906e-08 3.36689e-14)
(0.153826 -3.39575e-08 3.36185e-14)
(0.153826 -3.46136e-08 3.35771e-14)
(0.153826 -3.52497e-08 3.35377e-14)
(0.153826 -3.58611e-08 3.35127e-14)
(0.153826 -3.64453e-08 3.34961e-14)
(0.153826 -3.7e-08 3.34725e-14)
(0.153826 -3.75218e-08 3.34542e-14)
(0.153826 -3.80047e-08 3.34321e-14)
(0.153826 -3.84399e-08 3.34181e-14)
(0.153825 -3.88165e-08 3.33882e-14)
(0.153825 -3.91202e-08 3.34308e-14)
(0.153825 -3.93358e-08 3.34522e-14)
(0.153825 -3.94532e-08 3.34579e-14)
(0.153825 -3.94696e-08 3.34908e-14)
(0.153825 -3.93899e-08 3.34717e-14)
(0.153825 -3.92248e-08 3.347e-14)
(0.153825 -3.89878e-08 3.34842e-14)
(0.153825 -3.86926e-08 3.34931e-14)
(0.153825 -3.83502e-08 3.35355e-14)
(0.153825 -3.79662e-08 3.35193e-14)
(0.153825 -3.75377e-08 3.35062e-14)
(0.153825 -3.70513e-08 3.35137e-14)
(0.153825 -3.64814e-08 3.35151e-14)
(0.153825 -3.5787e-08 3.35566e-14)
(0.153825 -3.49062e-08 3.35254e-14)
(0.153825 -3.37477e-08 3.34983e-14)
(0.153825 -3.21816e-08 3.35018e-14)
(0.153825 -3.00247e-08 3.3477e-14)
(0.153825 -2.70253e-08 3.35363e-14)
(0.153825 -2.28182e-08 3.35621e-14)
(0.153825 -1.69201e-08 3.3561e-14)
(0.153825 -8.5313e-09 3.35519e-14)
(0.153825 3.15887e-09 3.35519e-14)
(0.153825 1.96867e-08 3.35513e-14)
(0.153825 3.7646e-08 3.35462e-14)
(0.153825 5.16165e-08 3.35419e-14)
(0.153825 6.14098e-08 3.35381e-14)
(0.153825 6.79569e-08 3.35411e-14)
(0.153825 7.2007e-08 3.35412e-14)
(0.153825 7.42515e-08 3.35349e-14)
(0.153825 7.52123e-08 3.3527e-14)
(0.153825 7.52477e-08 3.35168e-14)
(0.153825 7.46107e-08 3.35089e-14)
(0.153825 7.3483e-08 3.34939e-14)
(0.153825 7.19967e-08 3.35048e-14)
(0.153825 7.0248e-08 3.3515e-14)
(0.153825 6.83065e-08 3.35143e-14)
(0.153825 6.62233e-08 3.35114e-14)
(0.153825 6.40349e-08 3.35009e-14)
(0.153825 6.17652e-08 3.35114e-14)
(0.153825 5.94295e-08 3.35317e-14)
(0.153825 5.70391e-08 3.35421e-14)
(0.153825 5.46026e-08 3.35486e-14)
(0.153825 5.21249e-08 3.3548e-14)
(0.153825 4.96089e-08 3.35769e-14)
(0.153825 4.70577e-08 3.36017e-14)
(0.153825 4.44742e-08 3.36121e-14)
(0.153825 4.18597e-08 3.36166e-14)
(0.153825 3.92152e-08 3.36094e-14)
(0.153825 3.65439e-08 3.36419e-14)
(0.153825 3.38498e-08 3.36617e-14)
(0.153825 3.11345e-08 3.36695e-14)
(0.153825 2.83983e-08 3.36744e-14)
(0.153825 2.5641e-08 3.36678e-14)
(0.153825 2.28628e-08 3.36911e-14)
(0.153825 2.00626e-08 3.36988e-14)
(0.153825 1.72364e-08 3.37018e-14)
(0.153825 1.43786e-08 3.37007e-14)
(0.153825 1.1485e-08 3.36828e-14)
(0.153825 8.55285e-09 3.36026e-14)
(0.153825 5.58018e-09 3.37299e-14)
(0.153825 2.56401e-09 3.36536e-14)
(0.153825 -4.98965e-10 3.35823e-14)
(0.153825 -3.6104e-09 3.37331e-14)
(0.153825 -6.76857e-09 3.35532e-14)
(0.153825 -9.9688e-09 3.37711e-14)
(0.153825 -1.32058e-08 3.36964e-14)
(0.153825 -1.64733e-08 3.36507e-14)
(0.153825 -1.97605e-08 3.37323e-14)
(0.153825 -2.30499e-08 3.36249e-14)
(0.153825 -2.63169e-08 3.3709e-14)
(0.153825 -2.95275e-08 3.37045e-14)
(0.153825 -3.26345e-08 3.36534e-14)
(0.153825 -3.55725e-08 3.37134e-14)
(0.153825 -3.82498e-08 3.36758e-14)
(0.153825 -4.05382e-08 3.38718e-14)
(0.153825 -4.22588e-08 3.37417e-14)
(0.153825 -4.3164e-08 3.36677e-14)
(0.153825 -4.28875e-08 3.37611e-14)
(0.153825 -4.09367e-08 3.35264e-14)
(0.153825 -3.64914e-08 3.3765e-14)
(0.153825 -2.87115e-08 3.37185e-14)
(0.153825 -1.6015e-08 3.36745e-14)
(0.153825 -1.76797e-09 3.37393e-14)
(0.153826 8.63933e-09 3.36996e-14)
(0.153826 1.50682e-08 3.38207e-14)
(0.153826 1.85073e-08 3.37612e-14)
(0.153826 1.97632e-08 3.37426e-14)
(0.153826 1.95806e-08 3.38096e-14)
(0.153826 1.85322e-08 3.37223e-14)
(0.153826 1.7028e-08 3.37079e-14)
(0.153826 1.53793e-08 3.37065e-14)
(0.153826 1.38284e-08 3.36764e-14)
(0.153826 1.2577e-08 3.37836e-14)
(0.153826 1.17759e-08 3.36918e-14)
(0.153826 1.15686e-08 3.37036e-14)
(0.153826 1.17496e-08 3.37017e-14)
(0.153826 9.51593e-09 3.36893e-14)
(0.153826 -5.86093e-09 3.37754e-14)
(0.153786 -2.72957e-08 3.37326e-14)
(0.153786 -3.32281e-08 3.37143e-14)
(0.153786 -3.32935e-08 3.3692e-14)
(0.153786 -3.2022e-08 3.36681e-14)
(0.153786 -3.07501e-08 3.36428e-14)
(0.153786 -2.97789e-08 3.36442e-14)
(0.153786 -2.9109e-08 3.36628e-14)
(0.153786 -2.86894e-08 3.36549e-14)
(0.153786 -2.84663e-08 3.36425e-14)
(0.153786 -2.83931e-08 3.36315e-14)
(0.153786 -2.84332e-08 3.36057e-14)
(0.153786 -2.85566e-08 3.3569e-14)
(0.153786 -2.87399e-08 3.35313e-14)
(0.153786 -2.89664e-08 3.34954e-14)
(0.153786 -2.92249e-08 3.34667e-14)
(0.153786 -2.9507e-08 3.34511e-14)
(0.153786 -2.98056e-08 3.34379e-14)
(0.153786 -3.01123e-08 3.3421e-14)
(0.153786 -3.04163e-08 3.34002e-14)
(0.153786 -3.07038e-08 3.33814e-14)
(0.153786 -3.09588e-08 3.33647e-14)
(0.153786 -3.11606e-08 3.33841e-14)
(0.153786 -3.12874e-08 3.34086e-14)
(0.153786 -3.1324e-08 3.34273e-14)
(0.153786 -3.12649e-08 3.34561e-14)
(0.153786 -3.1114e-08 3.34692e-14)
(0.153786 -3.08822e-08 3.34805e-14)
(0.153786 -3.05833e-08 3.34933e-14)
(0.153786 -3.02316e-08 3.35044e-14)
(0.153786 -2.98384e-08 3.35307e-14)
(0.153786 -2.94095e-08 3.35396e-14)
(0.153786 -2.89415e-08 3.35411e-14)
(0.153786 -2.84188e-08 3.35417e-14)
(0.153786 -2.78131e-08 3.35417e-14)
(0.153786 -2.70814e-08 3.35604e-14)
(0.153786 -2.61603e-08 3.35613e-14)
(0.153786 -2.49583e-08 3.35552e-14)
(0.153786 -2.33473e-08 3.35524e-14)
(0.153786 -2.11505e-08 3.35455e-14)
(0.153786 -1.81318e-08 3.35711e-14)
(0.153786 -1.39612e-08 3.35926e-14)
(0.153786 -8.2244e-09 3.36044e-14)
(0.153785 -2.94724e-10 3.36035e-14)
(0.153785 1.03406e-08 3.36177e-14)
(0.153785 2.44485e-08 3.36151e-14)
(0.153785 3.97321e-08 3.36026e-14)
(0.153785 5.24494e-08 3.35947e-14)
(0.153785 6.20028e-08 3.35916e-14)
(0.153785 6.87507e-08 3.36056e-14)
(0.153785 7.31324e-08 3.36065e-14)
(0.153785 7.56771e-08 3.35964e-14)
(0.153785 7.68481e-08 3.35889e-14)
(0.153785 7.69964e-08 3.35779e-14)
(0.153785 7.6384e-08 3.35717e-14)
(0.153785 7.52053e-08 3.35443e-14)
(0.153785 7.36048e-08 3.35636e-14)
(0.153785 7.1689e-08 3.3592e-14)
(0.153785 6.95369e-08 3.35894e-14)
(0.153785 6.72076e-08 3.35867e-14)
(0.153785 6.47444e-08 3.35671e-14)
(0.153785 6.21764e-08 3.3588e-14)
(0.153785 5.95238e-08 3.36244e-14)
(0.153785 5.68024e-08 3.36352e-14)
(0.153785 5.40255e-08 3.3643e-14)
(0.153785 5.12013e-08 3.36328e-14)
(0.153785 4.83351e-08 3.37207e-14)
(0.153785 4.54316e-08 3.37075e-14)
(0.153785 4.24957e-08 3.37146e-14)
(0.153785 3.95301e-08 3.37191e-14)
(0.153785 3.65368e-08 3.36973e-14)
(0.153785 3.35199e-08 3.37328e-14)
(0.153785 3.04842e-08 3.37738e-14)
(0.153785 2.74326e-08 3.37728e-14)
(0.153785 2.43662e-08 3.37788e-14)
(0.153785 2.12858e-08 3.37611e-14)
(0.153786 1.81928e-08 3.3836e-14)
(0.153786 1.50872e-08 3.38191e-14)
(0.153786 1.19661e-08 3.38137e-14)
(0.153786 8.82502e-09 3.38129e-14)
(0.153786 5.6609e-09 3.37863e-14)
(0.153786 2.47255e-09 3.37535e-14)
(0.153786 -7.40589e-10 3.36665e-14)
(0.153786 -3.97993e-09 3.36583e-14)
(0.153786 -7.24742e-09 3.36194e-14)
(0.153786 -1.05433e-08 3.3548e-14)
(0.153786 -1.38638e-08 3.37918e-14)
(0.153786 -1.7202e-08 3.36877e-14)
(0.153786 -2.05505e-08 3.36947e-14)
(0.153786 -2.39008e-08 3.36073e-14)
(0.153786 -2.72389e-08 3.36503e-14)
(0.153786 -3.05443e-08 3.36901e-14)
(0.153786 -3.37897e-08 3.37286e-14)
(0.153786 -3.69385e-08 3.36843e-14)
(0.153786 -3.99412e-08 3.35567e-14)
(0.153786 -4.27305e-08 3.36108e-14)
(0.153786 -4.52155e-08 3.37394e-14)
(0.153786 -4.72714e-08 3.37694e-14)
(0.153786 -4.8729e-08 3.36961e-14)
(0.153786 -4.93586e-08 3.36622e-14)
(0.153786 -4.88317e-08 3.35937e-14)
(0.153786 -4.6725e-08 3.36788e-14)
(0.153786 -4.23901e-08 3.36397e-14)
(0.153786 -3.52816e-08 3.36644e-14)
(0.153786 -2.45856e-08 3.35992e-14)
(0.153786 -1.25511e-08 3.36066e-14)
(0.153786 -2.87416e-09 3.3786e-14)
(0.153786 3.90746e-09 3.36972e-14)
(0.153786 8.21941e-09 3.37023e-14)
(0.153786 1.05685e-08 3.3714e-14)
(0.153786 1.15482e-08 3.36887e-14)
(0.153786 1.16854e-08 3.37716e-14)
(0.153786 1.13978e-08 3.37323e-14)
(0.153786 1.10239e-08 3.36961e-14)
(0.153786 1.08387e-08 3.36646e-14)
(0.153786 1.108e-08 3.35928e-14)
(0.153786 1.19263e-08 3.37662e-14)
(0.153786 1.35515e-08 3.36663e-14)
(0.153786 1.56664e-08 3.36701e-14)
(0.153786 1.44559e-08 3.35466e-14)
(0.153786 -4.91664e-09 3.36234e-14)
(0.153735 -3.12883e-08 3.37451e-14)
(0.153735 -3.76579e-08 3.36668e-14)
(0.153735 -3.65633e-08 3.36843e-14)
(0.153735 -3.37928e-08 3.36783e-14)
(0.153735 -3.10727e-08 3.3655e-14)
(0.153735 -2.88003e-08 3.36452e-14)
(0.153735 -2.69862e-08 3.3636e-14)
(0.153735 -2.55665e-08 3.36111e-14)
(0.153735 -2.44703e-08 3.35878e-14)
(0.153735 -2.36349e-08 3.35618e-14)
(0.153735 -2.30093e-08 3.35299e-14)
(0.153735 -2.25516e-08 3.35011e-14)
(0.153735 -2.2229e-08 3.34684e-14)
(0.153735 -2.20171e-08 3.34372e-14)
(0.153735 -2.1898e-08 3.34088e-14)
(0.153735 -2.18572e-08 3.34031e-14)
(0.153735 -2.1883e-08 3.34013e-14)
(0.153735 -2.19622e-08 3.33832e-14)
(0.153735 -2.20791e-08 3.33608e-14)
(0.153735 -2.22147e-08 3.33392e-14)
(0.153735 -2.23471e-08 3.33332e-14)
(0.153735 -2.24483e-08 3.33545e-14)
(0.153735 -2.24885e-08 3.33829e-14)
(0.153735 -2.24468e-08 3.34118e-14)
(0.153735 -2.23141e-08 3.34459e-14)
(0.153735 -2.20942e-08 3.34743e-14)
(0.153735 -2.17985e-08 3.34972e-14)
(0.153735 -2.14419e-08 3.35103e-14)
(0.153735 -2.10398e-08 3.3523e-14)
(0.153734 -2.06049e-08 3.35453e-14)
(0.153734 -2.01443e-08 3.35647e-14)
(0.153734 -1.96546e-08 3.3576e-14)
(0.153734 -1.91192e-08 3.35748e-14)
(0.153734 -1.85083e-08 3.35743e-14)
(0.153734 -1.7778e-08 3.35883e-14)
(0.153734 -1.68647e-08 3.36016e-14)
(0.153734 -1.56781e-08 3.36075e-14)
(0.153734 -1.40941e-08 3.36043e-14)
(0.153734 -1.19456e-08 3.36028e-14)
(0.153734 -9.01518e-09 3.36174e-14)
(0.153734 -5.01145e-09 3.36319e-14)
(0.153734 4.12188e-10 3.36523e-14)
(0.153734 7.7319e-09 3.36549e-14)
(0.153734 1.72582e-08 3.37022e-14)
(0.153734 2.9306e-08 3.36832e-14)
(0.153734 4.22459e-08 3.36544e-14)
(0.153734 5.34848e-08 3.36422e-14)
(0.153734 6.23731e-08 3.36406e-14)
(0.153734 6.89643e-08 3.3684e-14)
(0.153734 7.34558e-08 3.36735e-14)
(0.153734 7.61957e-08 3.36538e-14)
(0.153734 7.75468e-08 3.36517e-14)
(0.153734 7.78181e-08 3.36382e-14)
(0.153734 7.72595e-08 3.36352e-14)
(0.153734 7.60672e-08 3.35725e-14)
(0.153734 7.43923e-08 3.36365e-14)
(0.153734 7.23498e-08 3.3671e-14)
(0.153734 7.0027e-08 3.36673e-14)
(0.153734 6.74909e-08 3.3663e-14)
(0.153734 6.4791e-08 3.36177e-14)
(0.153734 6.19618e-08 3.36704e-14)
(0.153734 5.90283e-08 3.37379e-14)
(0.153734 5.60113e-08 3.37348e-14)
(0.153734 5.29285e-08 3.3744e-14)
(0.153734 4.97919e-08 3.37079e-14)
(0.153734 4.66089e-08 3.37771e-14)
(0.153734 4.33862e-08 3.38121e-14)
(0.153734 4.01306e-08 3.38174e-14)
(0.153734 3.68462e-08 3.38319e-14)
(0.153734 3.35361e-08 3.37644e-14)
(0.153734 3.0205e-08 3.38401e-14)
(0.153734 2.6859e-08 3.38702e-14)
(0.153734 2.3502e-08 3.38736e-14)
(0.153734 2.0136e-08 3.38933e-14)
(0.153734 1.67628e-08 3.38436e-14)
(0.153734 1.33846e-08 3.38939e-14)
(0.153734 1.00025e-08 3.39368e-14)
(0.153734 6.61462e-09 3.39291e-14)
(0.153734 3.21761e-09 3.39257e-14)
(0.153734 -1.90558e-10 3.38713e-14)
(0.153734 -3.60967e-09 3.39112e-14)
(0.153734 -7.03862e-09 3.38707e-14)
(0.153734 -1.04772e-08 3.38239e-14)
(0.153734 -1.39262e-08 3.38085e-14)
(0.153734 -1.73844e-08 3.37767e-14)
(0.153734 -2.08463e-08 3.38684e-14)
(0.153734 -2.43032e-08 3.38744e-14)
(0.153734 -2.77461e-08 3.38375e-14)
(0.153734 -3.11639e-08 3.3838e-14)
(0.153734 -3.45397e-08 3.37936e-14)
(0.153734 -3.78503e-08 3.38721e-14)
(0.153734 -4.10666e-08 3.38595e-14)
(0.153735 -4.41501e-08 3.38264e-14)
(0.153735 -4.70499e-08 3.38142e-14)
(0.153735 -4.96986e-08 3.38055e-14)
(0.153735 -5.20077e-08 3.38773e-14)
(0.153735 -5.3859e-08 3.38604e-14)
(0.153735 -5.50969e-08 3.38242e-14)
(0.153735 -5.55141e-08 3.38167e-14)
(0.153735 -5.48246e-08 3.37721e-14)
(0.153735 -5.26748e-08 3.38148e-14)
(0.153735 -4.85654e-08 3.37971e-14)
(0.153735 -4.21498e-08 3.37903e-14)
(0.153735 -3.30646e-08 3.37785e-14)
(0.153735 -2.28848e-08 3.37706e-14)
(0.153735 -1.41426e-08 3.38641e-14)
(0.153735 -7.41635e-09 3.38413e-14)
(0.153735 -2.57481e-09 3.38202e-14)
(0.153735 6.57845e-10 3.38582e-14)
(0.153735 2.70501e-09 3.38462e-14)
(0.153735 4.00545e-09 3.38915e-14)
(0.153735 4.9494e-09 3.39075e-14)
(0.153735 5.88118e-09 3.38453e-14)
(0.153735 7.09689e-09 3.38027e-14)
(0.153735 8.86472e-09 3.37622e-14)
(0.153735 1.13883e-08 3.38486e-14)
(0.153735 1.48709e-08 3.38632e-14)
(0.153735 1.89563e-08 3.3801e-14)
(0.153735 1.89047e-08 3.37854e-14)
(0.153735 -4.17705e-09 3.37585e-14)
(0.153672 -3.51773e-08 3.37728e-14)
(0.153672 -4.19126e-08 3.37271e-14)
(0.153672 -3.96223e-08 3.37072e-14)
(0.153672 -3.53137e-08 3.36881e-14)
(0.153672 -3.1096e-08 3.36535e-14)
(0.153672 -2.74666e-08 3.36454e-14)
(0.153672 -2.44512e-08 3.36108e-14)
(0.153672 -2.19775e-08 3.3558e-14)
(0.153672 -1.99595e-08 3.35276e-14)
(0.153672 -1.83187e-08 3.34843e-14)
(0.153672 -1.69897e-08 3.34401e-14)
(0.153672 -1.59183e-08 3.34214e-14)
(0.153672 -1.50622e-08 3.33922e-14)
(0.153672 -1.4389e-08 3.3368e-14)
(0.153672 -1.38735e-08 3.33392e-14)
(0.153672 -1.34952e-08 3.33588e-14)
(0.153672 -1.3238e-08 3.33706e-14)
(0.153672 -1.30839e-08 3.33392e-14)
(0.153672 -1.30125e-08 3.33139e-14)
(0.153672 -1.29992e-08 3.32896e-14)
(0.153672 -1.30157e-08 3.3304e-14)
(0.153672 -1.30251e-08 3.33439e-14)
(0.153672 -1.29882e-08 3.33767e-14)
(0.153672 -1.2877e-08 3.34162e-14)
(0.153672 -1.26788e-08 3.34598e-14)
(0.153672 -1.23973e-08 3.34962e-14)
(0.153672 -1.20456e-08 3.35263e-14)
(0.153672 -1.16406e-08 3.35345e-14)
(0.153672 -1.11999e-08 3.35503e-14)
(0.153672 -1.07386e-08 3.35761e-14)
(0.153672 -1.02657e-08 3.36032e-14)
(0.153672 -9.77889e-09 3.36219e-14)
(0.153672 -9.26158e-09 3.36125e-14)
(0.153672 -8.68337e-09 3.36106e-14)
(0.153672 -8.00015e-09 3.36289e-14)
(0.153672 -7.14912e-09 3.36541e-14)
(0.153672 -6.04195e-09 3.36676e-14)
(0.153672 -4.55991e-09 3.36583e-14)
(0.153672 -2.54682e-09 3.36625e-14)
(0.153672 1.94782e-10 3.36752e-14)
(0.153672 3.91859e-09 3.36793e-14)
(0.153672 8.90992e-09 3.37435e-14)
(0.153672 1.55231e-08 3.36994e-14)
(0.153672 2.39333e-08 3.38347e-14)
(0.153672 3.42034e-08 3.37449e-14)
(0.153672 4.5124e-08 3.36941e-14)
(0.153672 5.48546e-08 3.36788e-14)
(0.153672 6.28097e-08 3.3681e-14)
(0.153672 6.89165e-08 3.37664e-14)
(0.153672 7.32356e-08 3.37361e-14)
(0.153672 7.59728e-08 3.37004e-14)
(0.153672 7.73858e-08 3.36948e-14)
(0.153672 7.77209e-08 3.36939e-14)
(0.153672 7.71959e-08 3.3792e-14)
(0.153672 7.59937e-08 3.35933e-14)
(0.153672 7.42626e-08 3.37626e-14)
(0.153672 7.21201e-08 3.38532e-14)
(0.153672 6.96585e-08 3.37408e-14)
(0.153672 6.69504e-08 3.37307e-14)
(0.153672 6.40504e-08 3.36459e-14)
(0.153672 6.09972e-08 3.38275e-14)
(0.153672 5.78204e-08 3.38146e-14)
(0.153672 5.45455e-08 3.38379e-14)
(0.153672 5.11945e-08 3.388e-14)
(0.153672 4.77827e-08 3.37555e-14)
(0.153672 4.43198e-08 3.39382e-14)
(0.153672 4.08146e-08 3.39129e-14)
(0.153672 3.72758e-08 3.39152e-14)
(0.153672 3.37088e-08 3.39705e-14)
(0.153672 3.01174e-08 3.38281e-14)
(0.153672 2.65073e-08 3.39939e-14)
(0.153672 2.28857e-08 3.4077e-14)
(0.153672 1.92579e-08 3.39678e-14)
(0.153672 1.56266e-08 3.39775e-14)
(0.153672 1.19943e-08 3.39017e-14)
(0.153672 8.36394e-09 3.40621e-14)
(0.153672 4.73748e-09 3.40289e-14)
(0.153672 1.11412e-09 3.40462e-14)
(0.153672 -2.50852e-09 3.40804e-14)
(0.153672 -6.13142e-09 3.39378e-14)
(0.153672 -9.75294e-09 3.41529e-14)
(0.153672 -1.33702e-08 3.40264e-14)
(0.153672 -1.69816e-08 3.39735e-14)
(0.153672 -2.05866e-08 3.41317e-14)
(0.153672 -2.41828e-08 3.39792e-14)
(0.153672 -2.77632e-08 3.40992e-14)
(0.153672 -3.13179e-08 3.40079e-14)
(0.153672 -3.48361e-08 3.39651e-14)
(0.153672 -3.83043e-08 3.40665e-14)
(0.153672 -4.1703e-08 3.39578e-14)
(0.153672 -4.50066e-08 3.4084e-14)
(0.153672 -4.81846e-08 3.3998e-14)
(0.153672 -5.11974e-08 3.39472e-14)
(0.153672 -5.39933e-08 3.40503e-14)
(0.153672 -5.6506e-08 3.39556e-14)
(0.153672 -5.86514e-08 3.4022e-14)
(0.153672 -6.03196e-08 3.39764e-14)
(0.153672 -6.13714e-08 3.39332e-14)
(0.153672 -6.16245e-08 3.39767e-14)
(0.153672 -6.08363e-08 3.39183e-14)
(0.153672 -5.87178e-08 3.3962e-14)
(0.153672 -5.48901e-08 3.3928e-14)
(0.153672 -4.91389e-08 3.38914e-14)
(0.153672 -4.13506e-08 3.39379e-14)
(0.153672 -3.26748e-08 3.38932e-14)
(0.153672 -2.48761e-08 3.40937e-14)
(0.153672 -1.84566e-08 3.39591e-14)
(0.153672 -1.33998e-08 3.39163e-14)
(0.153672 -9.5553e-09 3.39866e-14)
(0.153672 -6.62996e-09 3.39567e-14)
(0.153672 -4.27794e-09 3.40703e-14)
(0.153672 -2.15742e-09 3.40583e-14)
(0.153672 6.09793e-11 3.39657e-14)
(0.153672 2.67928e-09 3.39601e-14)
(0.153672 5.98607e-09 3.38894e-14)
(0.153672 1.02036e-08 3.39616e-14)
(0.153672 1.55628e-08 3.40564e-14)
(0.153672 2.16571e-08 3.39075e-14)
(0.153672 2.29212e-08 3.39672e-14)
(0.153672 -3.56413e-09 3.38417e-14)
(0.153599 -3.88387e-08 3.37798e-14)
(0.153599 -4.5857e-08 3.3851e-14)
(0.153599 -4.23309e-08 3.37281e-14)
(0.153599 -3.64513e-08 3.36933e-14)
(0.153599 -3.07017e-08 3.36266e-14)
(0.153599 -2.56776e-08 3.36454e-14)
(0.153599 -2.14222e-08 3.35717e-14)
(0.153599 -1.78568e-08 3.34834e-14)
(0.153599 -1.48818e-08 3.34638e-14)
(0.153599 -1.24042e-08 3.33946e-14)
(0.153599 -1.03446e-08 3.33325e-14)
(0.153599 -8.63679e-09 3.3338e-14)
(0.153599 -7.22875e-09 3.33066e-14)
(0.153599 -6.07983e-09 3.32957e-14)
(0.153599 -5.15726e-09 3.32549e-14)
(0.153599 -4.43489e-09 3.3332e-14)
(0.153599 -3.89209e-09 3.33534e-14)
(0.153599 -3.5066e-09 3.32766e-14)
(0.153599 -3.25344e-09 3.32588e-14)
(0.153599 -3.10213e-09 3.32309e-14)
(0.153599 -3.01715e-09 3.32951e-14)
(0.153599 -2.95135e-09 3.33683e-14)
(0.153599 -2.85373e-09 3.33914e-14)
(0.153599 -2.68852e-09 3.345e-14)
(0.153599 -2.43857e-09 3.35061e-14)
(0.153599 -2.10815e-09 3.35389e-14)
(0.153599 -1.71325e-09 3.35702e-14)
(0.153599 -1.27425e-09 3.35611e-14)
(0.153599 -8.12206e-10 3.3592e-14)
(0.153599 -3.45554e-10 3.36249e-14)
(0.153599 1.13735e-10 3.36573e-14)
(0.153599 5.65886e-10 3.3682e-14)
(0.153599 1.02693e-09 3.36497e-14)
(0.153599 1.52712e-09 3.36491e-14)
(0.153599 2.11027e-09 3.36793e-14)
(0.153599 2.83819e-09 3.37204e-14)
(0.153599 3.79672e-09 3.37386e-14)
(0.153599 5.09913e-09 3.37097e-14)
(0.153599 6.89059e-09 3.37342e-14)
(0.153599 9.34913e-09 3.37461e-14)
(0.153599 1.26939e-08 3.37287e-14)
(0.153598 1.7158e-08 3.3725e-14)
(0.153598 2.3001e-08 3.3721e-14)
(0.153598 3.03091e-08 3.37648e-14)
(0.153598 3.90115e-08 3.37434e-14)
(0.153598 4.81804e-08 3.37171e-14)
(0.153598 5.64688e-08 3.37069e-14)
(0.153598 6.33715e-08 3.37099e-14)
(0.153598 6.87739e-08 3.37541e-14)
(0.153598 7.26756e-08 3.37463e-14)
(0.153598 7.5195e-08 3.37329e-14)
(0.153598 7.65068e-08 3.37377e-14)
(0.153598 7.67953e-08 3.37329e-14)
(0.153598 7.6237e-08 3.37353e-14)
(0.153598 7.49908e-08 3.36825e-14)
(0.153598 7.31929e-08 3.37509e-14)
(0.153598 7.09558e-08 3.3793e-14)
(0.153598 6.8372e-08 3.3796e-14)
(0.153598 6.55161e-08 3.37934e-14)
(0.153598 6.24451e-08 3.37569e-14)
(0.153598 5.92007e-08 3.38186e-14)
(0.153598 5.58159e-08 3.38914e-14)
(0.153598 5.232e-08 3.38973e-14)
(0.153598 4.87384e-08 3.39118e-14)
(0.153598 4.50894e-08 3.38819e-14)
(0.153599 4.1385e-08 3.39465e-14)
(0.153599 3.76359e-08 3.39834e-14)
(0.153599 3.38523e-08 3.39949e-14)
(0.153599 3.0041e-08 3.40123e-14)
(0.153599 2.62065e-08 3.39488e-14)
(0.153599 2.23552e-08 3.40107e-14)
(0.153599 1.84954e-08 3.40407e-14)
(0.153599 1.4634e-08 3.40483e-14)
(0.153599 1.07746e-08 3.40708e-14)
(0.153599 6.91958e-09 3.40254e-14)
(0.153599 3.07258e-09 3.40661e-14)
(0.153599 -7.63541e-10 3.41233e-14)
(0.153599 -4.58859e-09 3.41252e-14)
(0.153599 -8.40407e-09 3.41239e-14)
(0.153599 -1.22099e-08 3.40779e-14)
(0.153599 -1.6003e-08 3.41336e-14)
(0.153599 -1.97787e-08 3.41263e-14)
(0.153599 -2.35342e-08 3.40962e-14)
(0.153599 -2.72679e-08 3.41178e-14)
(0.153599 -3.09761e-08 3.40949e-14)
(0.153599 -3.46506e-08 3.4115e-14)
(0.153599 -3.82803e-08 3.41043e-14)
(0.153599 -4.18532e-08 3.40675e-14)
(0.153599 -4.53534e-08 3.40745e-14)
(0.153599 -4.87586e-08 3.40478e-14)
(0.153599 -5.20415e-08 3.4084e-14)
(0.153599 -5.51705e-08 3.40752e-14)
(0.153599 -5.81051e-08 3.40384e-14)
(0.153599 -6.07939e-08 3.40479e-14)
(0.153599 -6.31723e-08 3.40323e-14)
(0.153599 -6.51621e-08 3.40539e-14)
(0.153599 -6.66626e-08 3.40467e-14)
(0.153599 -6.75528e-08 3.40147e-14)
(0.153599 -6.76765e-08 3.40263e-14)
(0.153599 -6.68338e-08 3.39858e-14)
(0.153599 -6.47927e-08 3.40035e-14)
(0.153599 -6.12674e-08 3.39926e-14)
(0.153599 -5.61291e-08 3.39679e-14)
(0.153599 -4.93965e-08 3.39728e-14)
(0.153599 -4.19326e-08 3.39595e-14)
(0.153599 -3.49923e-08 3.40117e-14)
(0.153599 -2.89839e-08 3.40049e-14)
(0.153599 -2.39204e-08 3.39783e-14)
(0.153599 -1.96996e-08 3.40127e-14)