/*--------------------------------*- C++ -*----------------------------------*\
  =========                 |
  \\      /  F ield         | OpenFOAM: The Open Source CFD Toolbox
   \\    /   O peration     | Website:  https://openfoam.org
    \\  /    A nd           | Version:  7
     \\/     M anipulation  |
\*---------------------------------------------------------------------------*/
FoamFile
{
    version     2.0;
    format      ascii;
    class       volScalarField;
    location    "4500";
    object      k;
}
// * * * * * * * * * * * * * * * * * * * * * * * * * * * * * * * * * * * * * //

dimensions      [0 2 -2 0 0 0 0];

internalField   nonuniform List<scalar> 
4037
(
0.000168219
0.000168219
0.000168219
0.000168219
0.000168219
0.000168219
0.000168219
0.00016822
0.00016822
0.00016822
0.00016822
0.000168221
0.000168221
0.000168221
0.000168222
0.000168222
0.000168222
0.000168223
0.000168223
0.000168223
0.000168224
0.000168224
0.000168225
0.000168225
0.000168226
0.000168226
0.000168227
0.000168227
0.000168228
0.000168228
0.000168229
0.000168229
0.00016823
0.00016823
0.000168231
0.000168231
0.000168232
0.000168232
0.000168233
0.000168233
0.000168234
0.000168234
0.000168235
0.000168235
0.000168236
0.000168236
0.000168236
0.000168237
0.000168237
0.000168238
0.000168238
0.000168238
0.000168239
0.000168239
0.000168239
0.00016824
0.00016824
0.00016824
0.00016824
0.000168241
0.000168241
0.000168241
0.000168241
0.000168241
0.000168242
0.000168242
0.000168242
0.000168242
0.000168242
0.000168242
0.000168242
0.000168242
0.000168242
0.000168242
0.000168242
0.000168242
0.000168242
0.000168653
0.000168652
0.000168651
0.000168649
0.000168648
0.000168647
0.000168646
0.000168645
0.000168644
0.000168643
0.000168642
0.000168642
0.000168641
0.000168641
0.00016864
0.00016864
0.000168639
0.000168639
0.000168639
0.000168639
0.000168639
0.000168638
0.000168638
0.000168638
0.000168638
0.000168638
0.000168638
0.000168638
0.000168638
0.000168638
0.000168638
0.000168638
0.000168639
0.000168639
0.000168639
0.00016864
0.00016864
0.00016864
0.000168641
0.000168641
0.000168641
0.000168642
0.000168642
0.000168643
0.000168643
0.000168644
0.000168644
0.000168644
0.000168645
0.000168645
0.000168646
0.000168646
0.000168647
0.000168647
0.000168648
0.000168648
0.000168649
0.000168649
0.00016865
0.00016865
0.000168651
0.000168651
0.000168652
0.000168652
0.000168653
0.000168653
0.000168654
0.000168654
0.000168655
0.000168655
0.000168656
0.000168656
0.000168656
0.000168657
0.000168657
0.000168658
0.000168658
0.000168658
0.000168659
0.000168659
0.000168659
0.000168659
0.00016866
0.00016866
0.00016866
0.00016866
0.00016866
0.000168661
0.000168661
0.000168661
0.000168661
0.000168661
0.000168661
0.000168661
0.000168661
0.000168661
0.000168661
0.000168661
0.000168661
0.000168661
0.000168661
0.000168662
0.000168662
0.000168661
0.000168661
0.000168661
0.00016866
0.00016866
0.00016866
0.000168659
0.000168659
0.000168658
0.000168658
0.000168657
0.000168657
0.000168656
0.000168655
0.000168655
0.000168654
0.000168654
0.000168982
0.000168981
0.000168979
0.000168978
0.000168976
0.000168975
0.000168974
0.000168973
0.000168972
0.000168971
0.00016897
0.00016897
0.000168969
0.000168969
0.000168968
0.000168968
0.000168968
0.000168967
0.000168967
0.000168967
0.000168967
0.000168967
0.000168967
0.000168967
0.000168966
0.000168966
0.000168966
0.000168966
0.000168967
0.000168967
0.000168967
0.000168967
0.000168968
0.000168968
0.000168968
0.000168969
0.000168969
0.000168969
0.00016897
0.00016897
0.000168971
0.000168971
0.000168971
0.000168972
0.000168972
0.000168973
0.000168973
0.000168974
0.000168974
0.000168975
0.000168975
0.000168976
0.000168976
0.000168977
0.000168977
0.000168978
0.000168978
0.000168979
0.000168979
0.00016898
0.00016898
0.000168981
0.000168981
0.000168982
0.000168982
0.000168983
0.000168983
0.000168984
0.000168984
0.000168984
0.000168985
0.000168985
0.000168986
0.000168986
0.000168986
0.000168987
0.000168987
0.000168987
0.000168988
0.000168988
0.000168988
0.000168989
0.000168989
0.000168989
0.000168989
0.000168989
0.00016899
0.00016899
0.00016899
0.00016899
0.00016899
0.00016899
0.00016899
0.00016899
0.00016899
0.000168991
0.000168991
0.000168991
0.000168991
0.00016899
0.00016899
0.000168991
0.00016899
0.00016899
0.00016899
0.00016899
0.000168989
0.000168989
0.000168988
0.000168988
0.000168987
0.000168987
0.000168986
0.000168986
0.000168985
0.000168985
0.000168984
0.000168984
0.000168983
0.000168982
0.000169215
0.000169213
0.000169212
0.00016921
0.000169209
0.000169207
0.000169206
0.000169205
0.000169204
0.000169203
0.000169202
0.000169202
0.000169201
0.000169201
0.0001692
0.0001692
0.0001692
0.000169199
0.000169199
0.000169199
0.000169199
0.000169199
0.000169199
0.000169199
0.000169199
0.000169199
0.000169199
0.000169199
0.000169199
0.000169199
0.0001692
0.0001692
0.0001692
0.000169201
0.000169201
0.000169202
0.000169202
0.000169203
0.000169203
0.000169203
0.000169204
0.000169204
0.000169205
0.000169205
0.000169206
0.000169206
0.000169207
0.000169207
0.000169208
0.000169208
0.000169209
0.000169209
0.00016921
0.00016921
0.000169211
0.000169211
0.000169212
0.000169212
0.000169213
0.000169213
0.000169214
0.000169214
0.000169215
0.000169215
0.000169215
0.000169216
0.000169216
0.000169217
0.000169217
0.000169218
0.000169218
0.000169218
0.000169219
0.000169219
0.00016922
0.00016922
0.00016922
0.000169221
0.000169221
0.000169221
0.000169221
0.000169222
0.000169222
0.000169222
0.000169222
0.000169223
0.000169223
0.000169223
0.000169223
0.000169223
0.000169223
0.000169223
0.000169223
0.000169224
0.000169224
0.000169224
0.000169224
0.000169224
0.000169224
0.000169224
0.000169224
0.000169223
0.000169223
0.000169223
0.000169223
0.000169222
0.000169222
0.000169222
0.000169221
0.000169221
0.00016922
0.00016922
0.000169219
0.000169219
0.000169218
0.000169217
0.000169217
0.000169216
0.000169216
0.000169215
0.000169344
0.000169342
0.000169341
0.000169339
0.000169338
0.000169336
0.000169335
0.000169334
0.000169333
0.000169332
0.000169331
0.00016933
0.00016933
0.000169329
0.000169329
0.000169329
0.000169328
0.000169328
0.000169328
0.000169328
0.000169328
0.000169328
0.000169328
0.000169328
0.000169328
0.000169328
0.000169328
0.000169328
0.000169328
0.000169329
0.000169329
0.00016933
0.00016933
0.00016933
0.000169331
0.000169331
0.000169332
0.000169332
0.000169333
0.000169333
0.000169334
0.000169334
0.000169335
0.000169335
0.000169336
0.000169336
0.000169337
0.000169337
0.000169338
0.000169338
0.000169339
0.000169339
0.00016934
0.00016934
0.000169341
0.000169341
0.000169342
0.000169342
0.000169343
0.000169343
0.000169344
0.000169344
0.000169344
0.000169345
0.000169345
0.000169346
0.000169346
0.000169347
0.000169347
0.000169347
0.000169348
0.000169348
0.000169349
0.000169349
0.000169349
0.00016935
0.00016935
0.00016935
0.000169351
0.000169351
0.000169351
0.000169351
0.000169352
0.000169352
0.000169352
0.000169352
0.000169352
0.000169353
0.000169353
0.000169353
0.000169353
0.000169353
0.000169353
0.000169353
0.000169353
0.000169353
0.000169353
0.000169353
0.000169353
0.000169353
0.000169353
0.000169353
0.000169353
0.000169353
0.000169352
0.000169352
0.000169352
0.000169351
0.000169351
0.00016935
0.00016935
0.000169349
0.000169349
0.000169348
0.000169347
0.000169347
0.000169346
0.000169346
0.000169345
0.000169345
0.000169361
0.00016936
0.000169358
0.000169356
0.000169355
0.000169353
0.000169352
0.000169351
0.00016935
0.000169349
0.000169348
0.000169347
0.000169347
0.000169346
0.000169346
0.000169345
0.000169345
0.000169345
0.000169345
0.000169345
0.000169345
0.000169345
0.000169345
0.000169345
0.000169345
0.000169345
0.000169345
0.000169346
0.000169346
0.000169346
0.000169347
0.000169347
0.000169348
0.000169348
0.000169349
0.000169349
0.00016935
0.00016935
0.000169351
0.000169351
0.000169352
0.000169352
0.000169353
0.000169353
0.000169354
0.000169354
0.000169355
0.000169355
0.000169356
0.000169356
0.000169357
0.000169357
0.000169358
0.000169358
0.000169359
0.000169359
0.00016936
0.00016936
0.000169361
0.000169361
0.000169362
0.000169362
0.000169362
0.000169363
0.000169363
0.000169364
0.000169364
0.000169365
0.000169365
0.000169365
0.000169366
0.000169366
0.000169367
0.000169367
0.000169367
0.000169368
0.000169368
0.000169368
0.000169368
0.000169369
0.000169369
0.000169369
0.000169369
0.00016937
0.00016937
0.00016937
0.00016937
0.00016937
0.000169371
0.000169371
0.000169371
0.000169371
0.000169371
0.000169371
0.000169371
0.000169371
0.000169371
0.000169371
0.000169371
0.000169371
0.000169371
0.000169371
0.000169371
0.00016937
0.00016937
0.00016937
0.000169369
0.000169369
0.000169368
0.000169368
0.000169367
0.000169367
0.000169366
0.000169366
0.000169365
0.000169364
0.000169364
0.000169363
0.000169363
0.000169362
0.000169257
0.000169255
0.000169253
0.000169251
0.00016925
0.000169248
0.000169247
0.000169246
0.000169245
0.000169244
0.000169243
0.000169242
0.000169242
0.000169241
0.000169241
0.00016924
0.00016924
0.00016924
0.00016924
0.00016924
0.00016924
0.00016924
0.00016924
0.00016924
0.00016924
0.00016924
0.00016924
0.000169241
0.000169241
0.000169242
0.000169242
0.000169243
0.000169243
0.000169244
0.000169244
0.000169245
0.000169245
0.000169246
0.000169247
0.000169247
0.000169248
0.000169248
0.000169249
0.000169249
0.00016925
0.00016925
0.000169251
0.000169251
0.000169252
0.000169252
0.000169253
0.000169253
0.000169254
0.000169254
0.000169255
0.000169255
0.000169256
0.000169256
0.000169257
0.000169257
0.000169258
0.000169258
0.000169258
0.000169259
0.000169259
0.00016926
0.00016926
0.00016926
0.000169261
0.000169261
0.000169262
0.000169262
0.000169262
0.000169263
0.000169263
0.000169263
0.000169264
0.000169264
0.000169264
0.000169264
0.000169265
0.000169265
0.000169265
0.000169265
0.000169266
0.000169266
0.000169266
0.000169266
0.000169266
0.000169266
0.000169266
0.000169267
0.000169267
0.000169267
0.000169267
0.000169267
0.000169267
0.000169267
0.000169267
0.000169267
0.000169267
0.000169267
0.000169266
0.000169266
0.000169266
0.000169265
0.000169265
0.000169264
0.000169264
0.000169263
0.000169263
0.000169262
0.000169262
0.000169261
0.000169261
0.00016926
0.000169259
0.000169259
0.000169258
0.000169258
0.000169018
0.000169016
0.000169014
0.000169013
0.000169011
0.000169009
0.000169008
0.000169007
0.000169005
0.000169005
0.000169004
0.000169003
0.000169002
0.000169002
0.000169001
0.000169001
0.000169001
0.000169001
0.000169001
0.000169001
0.000169001
0.000169001
0.000169001
0.000169001
0.000169001
0.000169001
0.000169002
0.000169002
0.000169002
0.000169003
0.000169004
0.000169004
0.000169005
0.000169005
0.000169006
0.000169006
0.000169007
0.000169008
0.000169008
0.000169009
0.000169009
0.00016901
0.00016901
0.000169011
0.000169012
0.000169012
0.000169013
0.000169013
0.000169014
0.000169014
0.000169015
0.000169015
0.000169016
0.000169016
0.000169017
0.000169017
0.000169018
0.000169018
0.000169018
0.000169019
0.000169019
0.00016902
0.00016902
0.000169021
0.000169021
0.000169021
0.000169022
0.000169022
0.000169023
0.000169023
0.000169023
0.000169024
0.000169024
0.000169024
0.000169025
0.000169025
0.000169025
0.000169025
0.000169026
0.000169026
0.000169026
0.000169026
0.000169027
0.000169027
0.000169027
0.000169027
0.000169027
0.000169028
0.000169028
0.000169028
0.000169028
0.000169028
0.000169028
0.000169028
0.000169028
0.000169028
0.000169028
0.000169028
0.000169028
0.000169028
0.000169028
0.000169028
0.000169028
0.000169028
0.000169027
0.000169027
0.000169026
0.000169026
0.000169025
0.000169025
0.000169024
0.000169024
0.000169023
0.000169023
0.000169022
0.000169021
0.000169021
0.00016902
0.000169019
0.000169019
0.000168631
0.000168629
0.000168627
0.000168625
0.000168623
0.000168622
0.00016862
0.000168619
0.000168618
0.000168617
0.000168616
0.000168615
0.000168615
0.000168614
0.000168614
0.000168613
0.000168613
0.000168613
0.000168613
0.000168613
0.000168613
0.000168613
0.000168613
0.000168613
0.000168614
0.000168614
0.000168614
0.000168615
0.000168615
0.000168616
0.000168616
0.000168617
0.000168617
0.000168618
0.000168619
0.000168619
0.00016862
0.000168621
0.000168621
0.000168622
0.000168622
0.000168623
0.000168624
0.000168624
0.000168625
0.000168625
0.000168626
0.000168626
0.000168627
0.000168627
0.000168628
0.000168628
0.000168629
0.000168629
0.00016863
0.00016863
0.000168631
0.000168631
0.000168632
0.000168632
0.000168632
0.000168633
0.000168633
0.000168634
0.000168634
0.000168634
0.000168635
0.000168635
0.000168636
0.000168636
0.000168636
0.000168637
0.000168637
0.000168637
0.000168637
0.000168638
0.000168638
0.000168638
0.000168639
0.000168639
0.000168639
0.000168639
0.00016864
0.00016864
0.00016864
0.00016864
0.00016864
0.00016864
0.00016864
0.000168641
0.000168641
0.000168641
0.000168641
0.000168641
0.000168641
0.000168641
0.000168641
0.000168641
0.000168641
0.000168641
0.000168641
0.000168641
0.000168641
0.00016864
0.00016864
0.00016864
0.000168639
0.000168639
0.000168638
0.000168638
0.000168637
0.000168637
0.000168636
0.000168635
0.000168635
0.000168634
0.000168634
0.000168633
0.000168632
0.000168632
0.000168078
0.000168076
0.000168074
0.000168072
0.00016807
0.000168068
0.000168067
0.000168065
0.000168064
0.000168063
0.000168062
0.000168062
0.000168061
0.00016806
0.00016806
0.00016806
0.00016806
0.000168059
0.000168059
0.000168059
0.00016806
0.00016806
0.00016806
0.00016806
0.00016806
0.000168061
0.000168061
0.000168061
0.000168062
0.000168062
0.000168063
0.000168064
0.000168064
0.000168065
0.000168066
0.000168066
0.000168067
0.000168068
0.000168068
0.000168069
0.00016807
0.00016807
0.000168071
0.000168071
0.000168072
0.000168073
0.000168073
0.000168074
0.000168074
0.000168075
0.000168075
0.000168076
0.000168076
0.000168077
0.000168077
0.000168077
0.000168078
0.000168078
0.000168079
0.000168079
0.00016808
0.00016808
0.00016808
0.000168081
0.000168081
0.000168081
0.000168082
0.000168082
0.000168082
0.000168083
0.000168083
0.000168083
0.000168084
0.000168084
0.000168084
0.000168085
0.000168085
0.000168085
0.000168085
0.000168086
0.000168086
0.000168086
0.000168086
0.000168086
0.000168087
0.000168087
0.000168087
0.000168087
0.000168087
0.000168087
0.000168087
0.000168088
0.000168088
0.000168088
0.000168088
0.000168088
0.000168088
0.000168088
0.000168088
0.000168088
0.000168088
0.000168088
0.000168088
0.000168087
0.000168087
0.000168087
0.000168086
0.000168086
0.000168085
0.000168085
0.000168084
0.000168083
0.000168083
0.000168082
0.000168082
0.000168081
0.00016808
0.00016808
0.000168079
0.000168079
0.000167338
0.000167336
0.000167333
0.000167331
0.000167329
0.000167328
0.000167326
0.000167325
0.000167324
0.000167323
0.000167322
0.000167321
0.00016732
0.00016732
0.00016732
0.000167319
0.000167319
0.000167319
0.000167319
0.000167319
0.000167319
0.000167319
0.00016732
0.00016732
0.00016732
0.00016732
0.000167321
0.000167321
0.000167322
0.000167322
0.000167323
0.000167324
0.000167324
0.000167325
0.000167326
0.000167326
0.000167327
0.000167328
0.000167328
0.000167329
0.00016733
0.00016733
0.000167331
0.000167332
0.000167332
0.000167333
0.000167333
0.000167334
0.000167334
0.000167335
0.000167335
0.000167336
0.000167336
0.000167337
0.000167337
0.000167338
0.000167338
0.000167338
0.000167339
0.000167339
0.00016734
0.00016734
0.00016734
0.000167341
0.000167341
0.000167341
0.000167342
0.000167342
0.000167342
0.000167343
0.000167343
0.000167343
0.000167344
0.000167344
0.000167344
0.000167344
0.000167345
0.000167345
0.000167345
0.000167345
0.000167346
0.000167346
0.000167346
0.000167346
0.000167346
0.000167347
0.000167347
0.000167347
0.000167347
0.000167347
0.000167347
0.000167347
0.000167347
0.000167347
0.000167347
0.000167347
0.000167347
0.000167347
0.000167347
0.000167347
0.000167347
0.000167347
0.000167347
0.000167347
0.000167347
0.000167346
0.000167346
0.000167346
0.000167345
0.000167345
0.000167344
0.000167343
0.000167343
0.000167342
0.000167342
0.000167341
0.00016734
0.00016734
0.000167339
0.000167339
0.000166385
0.000166383
0.000166381
0.000166379
0.000166377
0.000166375
0.000166373
0.000166372
0.000166371
0.00016637
0.000166369
0.000166368
0.000166368
0.000166367
0.000166367
0.000166366
0.000166366
0.000166366
0.000166366
0.000166366
0.000166366
0.000166366
0.000166367
0.000166367
0.000166367
0.000166368
0.000166368
0.000166369
0.000166369
0.00016637
0.00016637
0.000166371
0.000166372
0.000166372
0.000166373
0.000166374
0.000166374
0.000166375
0.000166376
0.000166377
0.000166377
0.000166378
0.000166378
0.000166379
0.00016638
0.00016638
0.000166381
0.000166381
0.000166382
0.000166382
0.000166383
0.000166383
0.000166384
0.000166384
0.000166385
0.000166385
0.000166386
0.000166386
0.000166386
0.000166387
0.000166387
0.000166387
0.000166388
0.000166388
0.000166388
0.000166389
0.000166389
0.000166389
0.00016639
0.00016639
0.00016639
0.000166391
0.000166391
0.000166391
0.000166391
0.000166392
0.000166392
0.000166392
0.000166392
0.000166393
0.000166393
0.000166393
0.000166393
0.000166393
0.000166394
0.000166394
0.000166394
0.000166394
0.000166394
0.000166394
0.000166394
0.000166394
0.000166394
0.000166395
0.000166395
0.000166395
0.000166395
0.000166395
0.000166395
0.000166395
0.000166395
0.000166395
0.000166394
0.000166394
0.000166394
0.000166394
0.000166393
0.000166393
0.000166392
0.000166392
0.000166391
0.000166391
0.00016639
0.00016639
0.000166389
0.000166388
0.000166388
0.000166387
0.000166386
0.000166386
0.000165189
0.000165186
0.000165184
0.000165182
0.00016518
0.000165179
0.000165177
0.000165176
0.000165174
0.000165173
0.000165172
0.000165172
0.000165171
0.00016517
0.00016517
0.00016517
0.00016517
0.000165169
0.00016517
0.00016517
0.00016517
0.00016517
0.00016517
0.000165171
0.000165171
0.000165171
0.000165172
0.000165172
0.000165173
0.000165173
0.000165174
0.000165175
0.000165175
0.000165176
0.000165177
0.000165177
0.000165178
0.000165179
0.00016518
0.00016518
0.000165181
0.000165182
0.000165182
0.000165183
0.000165183
0.000165184
0.000165185
0.000165185
0.000165186
0.000165186
0.000165187
0.000165187
0.000165188
0.000165188
0.000165188
0.000165189
0.000165189
0.00016519
0.00016519
0.00016519
0.000165191
0.000165191
0.000165191
0.000165192
0.000165192
0.000165192
0.000165193
0.000165193
0.000165193
0.000165193
0.000165194
0.000165194
0.000165194
0.000165195
0.000165195
0.000165195
0.000165195
0.000165195
0.000165196
0.000165196
0.000165196
0.000165196
0.000165197
0.000165197
0.000165197
0.000165197
0.000165197
0.000165197
0.000165197
0.000165197
0.000165198
0.000165198
0.000165198
0.000165198
0.000165198
0.000165198
0.000165198
0.000165198
0.000165198
0.000165198
0.000165198
0.000165198
0.000165198
0.000165198
0.000165197
0.000165197
0.000165197
0.000165196
0.000165196
0.000165195
0.000165195
0.000165194
0.000165194
0.000165193
0.000165193
0.000165192
0.000165191
0.000165191
0.00016519
0.00016519
0.00016371
0.000163708
0.000163706
0.000163704
0.000163702
0.0001637
0.000163698
0.000163697
0.000163696
0.000163695
0.000163694
0.000163693
0.000163692
0.000163692
0.000163691
0.000163691
0.000163691
0.000163691
0.000163691
0.000163691
0.000163691
0.000163691
0.000163692
0.000163692
0.000163692
0.000163693
0.000163693
0.000163694
0.000163694
0.000163695
0.000163695
0.000163696
0.000163697
0.000163697
0.000163698
0.000163699
0.0001637
0.0001637
0.000163701
0.000163702
0.000163702
0.000163703
0.000163704
0.000163704
0.000163705
0.000163706
0.000163706
0.000163707
0.000163707
0.000163708
0.000163708
0.000163709
0.000163709
0.000163709
0.00016371
0.00016371
0.000163711
0.000163711
0.000163711
0.000163712
0.000163712
0.000163712
0.000163713
0.000163713
0.000163713
0.000163714
0.000163714
0.000163714
0.000163714
0.000163715
0.000163715
0.000163715
0.000163715
0.000163716
0.000163716
0.000163716
0.000163716
0.000163717
0.000163717
0.000163717
0.000163717
0.000163717
0.000163718
0.000163718
0.000163718
0.000163718
0.000163718
0.000163718
0.000163718
0.000163718
0.000163719
0.000163719
0.000163719
0.000163719
0.000163719
0.000163719
0.000163719
0.000163719
0.000163719
0.000163719
0.000163719
0.000163719
0.000163719
0.000163719
0.000163719
0.000163718
0.000163718
0.000163718
0.000163717
0.000163717
0.000163716
0.000163716
0.000163715
0.000163715
0.000163714
0.000163713
0.000163713
0.000163712
0.000163711
0.000163711
0.000161901
0.000161899
0.000161897
0.000161895
0.000161893
0.000161892
0.00016189
0.000161888
0.000161887
0.000161886
0.000161885
0.000161884
0.000161884
0.000161883
0.000161883
0.000161882
0.000161882
0.000161882
0.000161882
0.000161882
0.000161883
0.000161883
0.000161883
0.000161884
0.000161884
0.000161884
0.000161885
0.000161885
0.000161886
0.000161886
0.000161887
0.000161888
0.000161888
0.000161889
0.00016189
0.000161891
0.000161891
0.000161892
0.000161893
0.000161893
0.000161894
0.000161895
0.000161895
0.000161896
0.000161896
0.000161897
0.000161898
0.000161898
0.000161899
0.000161899
0.0001619
0.0001619
0.000161901
0.000161901
0.000161901
0.000161902
0.000161902
0.000161902
0.000161903
0.000161903
0.000161903
0.000161904
0.000161904
0.000161904
0.000161905
0.000161905
0.000161905
0.000161905
0.000161906
0.000161906
0.000161906
0.000161906
0.000161907
0.000161907
0.000161907
0.000161907
0.000161907
0.000161908
0.000161908
0.000161908
0.000161908
0.000161908
0.000161909
0.000161909
0.000161909
0.000161909
0.000161909
0.000161909
0.000161909
0.00016191
0.00016191
0.00016191
0.00016191
0.00016191
0.00016191
0.00016191
0.00016191
0.00016191
0.00016191
0.00016191
0.00016191
0.00016191
0.00016191
0.00016191
0.00016191
0.00016191
0.000161909
0.000161909
0.000161909
0.000161908
0.000161908
0.000161907
0.000161907
0.000161906
0.000161905
0.000161905
0.000161904
0.000161904
0.000161903
0.000161903
0.000159704
0.000159702
0.0001597
0.000159698
0.000159696
0.000159694
0.000159692
0.000159691
0.000159689
0.000159688
0.000159687
0.000159686
0.000159686
0.000159685
0.000159685
0.000159685
0.000159684
0.000159684
0.000159684
0.000159685
0.000159685
0.000159685
0.000159686
0.000159686
0.000159686
0.000159687
0.000159687
0.000159688
0.000159688
0.000159689
0.000159689
0.00015969
0.000159691
0.000159691
0.000159692
0.000159693
0.000159693
0.000159694
0.000159695
0.000159695
0.000159696
0.000159697
0.000159697
0.000159698
0.000159699
0.000159699
0.0001597
0.0001597
0.000159701
0.000159701
0.000159702
0.000159702
0.000159703
0.000159703
0.000159703
0.000159704
0.000159704
0.000159704
0.000159705
0.000159705
0.000159705
0.000159706
0.000159706
0.000159706
0.000159706
0.000159707
0.000159707
0.000159707
0.000159707
0.000159708
0.000159708
0.000159708
0.000159708
0.000159709
0.000159709
0.000159709
0.000159709
0.000159709
0.00015971
0.00015971
0.00015971
0.00015971
0.00015971
0.00015971
0.000159711
0.000159711
0.000159711
0.000159711
0.000159711
0.000159711
0.000159711
0.000159711
0.000159711
0.000159712
0.000159712
0.000159712
0.000159712
0.000159712
0.000159712
0.000159712
0.000159712
0.000159712
0.000159712
0.000159712
0.000159711
0.000159711
0.000159711
0.000159711
0.00015971
0.00015971
0.00015971
0.000159709
0.000159709
0.000159708
0.000159707
0.000159707
0.000159706
0.000159706
0.000159705
0.000159705
0.000157042
0.00015704
0.000157038
0.000157036
0.000157034
0.000157032
0.000157031
0.000157029
0.000157028
0.000157026
0.000157025
0.000157024
0.000157024
0.000157023
0.000157023
0.000157023
0.000157022
0.000157022
0.000157023
0.000157023
0.000157023
0.000157023
0.000157024
0.000157024
0.000157025
0.000157025
0.000157025
0.000157026
0.000157026
0.000157027
0.000157028
0.000157028
0.000157029
0.000157029
0.00015703
0.000157031
0.000157031
0.000157032
0.000157033
0.000157033
0.000157034
0.000157035
0.000157035
0.000157036
0.000157037
0.000157037
0.000157038
0.000157038
0.000157039
0.000157039
0.00015704
0.00015704
0.00015704
0.000157041
0.000157041
0.000157041
0.000157042
0.000157042
0.000157042
0.000157043
0.000157043
0.000157043
0.000157044
0.000157044
0.000157044
0.000157044
0.000157045
0.000157045
0.000157045
0.000157045
0.000157045
0.000157046
0.000157046
0.000157046
0.000157046
0.000157046
0.000157047
0.000157047
0.000157047
0.000157047
0.000157047
0.000157048
0.000157048
0.000157048
0.000157048
0.000157048
0.000157048
0.000157048
0.000157049
0.000157049
0.000157049
0.000157049
0.000157049
0.000157049
0.000157049
0.000157049
0.000157049
0.000157049
0.000157049
0.000157049
0.000157049
0.000157049
0.000157049
0.000157049
0.000157049
0.000157049
0.000157049
0.000157048
0.000157048
0.000157048
0.000157047
0.000157047
0.000157046
0.000157046
0.000157045
0.000157045
0.000157044
0.000157044
0.000157043
0.000157043
0.000153821
0.000153819
0.000153817
0.000153816
0.000153814
0.000153812
0.00015381
0.000153809
0.000153807
0.000153806
0.000153805
0.000153804
0.000153803
0.000153803
0.000153802
0.000153802
0.000153802
0.000153802
0.000153802
0.000153802
0.000153802
0.000153803
0.000153803
0.000153804
0.000153804
0.000153804
0.000153805
0.000153805
0.000153806
0.000153806
0.000153807
0.000153808
0.000153808
0.000153809
0.000153809
0.00015381
0.000153811
0.000153811
0.000153812
0.000153813
0.000153813
0.000153814
0.000153814
0.000153815
0.000153816
0.000153816
0.000153817
0.000153817
0.000153818
0.000153818
0.000153818
0.000153819
0.000153819
0.00015382
0.00015382
0.00015382
0.000153821
0.000153821
0.000153821
0.000153822
0.000153822
0.000153822
0.000153822
0.000153823
0.000153823
0.000153823
0.000153823
0.000153823
0.000153824
0.000153824
0.000153824
0.000153824
0.000153825
0.000153825
0.000153825
0.000153825
0.000153825
0.000153826
0.000153826
0.000153826
0.000153826
0.000153826
0.000153826
0.000153826
0.000153827
0.000153827
0.000153827
0.000153827
0.000153827
0.000153827
0.000153827
0.000153827
0.000153828
0.000153828
0.000153828
0.000153828
0.000153828
0.000153828
0.000153828
0.000153828
0.000153828
0.000153828
0.000153828
0.000153828
0.000153828
0.000153828
0.000153827
0.000153827
0.000153827
0.000153827
0.000153826
0.000153826
0.000153825
0.000153825
0.000153824
0.000153824
0.000153823
0.000153823
0.000153822
0.000153822
0.000149921
0.000149919
0.000149918
0.000149916
0.000149914
0.000149912
0.000149911
0.000149909
0.000149907
0.000149906
0.000149905
0.000149904
0.000149903
0.000149903
0.000149902
0.000149902
0.000149902
0.000149902
0.000149902
0.000149902
0.000149903
0.000149903
0.000149903
0.000149904
0.000149904
0.000149905
0.000149905
0.000149906
0.000149906
0.000149907
0.000149907
0.000149908
0.000149908
0.000149909
0.000149909
0.00014991
0.000149911
0.000149911
0.000149912
0.000149912
0.000149913
0.000149914
0.000149914
0.000149915
0.000149915
0.000149916
0.000149916
0.000149917
0.000149917
0.000149918
0.000149918
0.000149918
0.000149919
0.000149919
0.00014992
0.00014992
0.00014992
0.000149921
0.000149921
0.000149921
0.000149921
0.000149922
0.000149922
0.000149922
0.000149922
0.000149922
0.000149923
0.000149923
0.000149923
0.000149923
0.000149923
0.000149924
0.000149924
0.000149924
0.000149924
0.000149924
0.000149925
0.000149925
0.000149925
0.000149925
0.000149925
0.000149925
0.000149926
0.000149926
0.000149926
0.000149926
0.000149926
0.000149926
0.000149926
0.000149927
0.000149927
0.000149927
0.000149927
0.000149927
0.000149927
0.000149927
0.000149927
0.000149927
0.000149927
0.000149927
0.000149927
0.000149927
0.000149927
0.000149927
0.000149927
0.000149927
0.000149927
0.000149927
0.000149926
0.000149926
0.000149926
0.000149925
0.000149925
0.000149925
0.000149924
0.000149924
0.000149923
0.000149923
0.000149922
0.000149922
0.000145187
0.000145186
0.000145185
0.000145183
0.000145181
0.00014518
0.000145178
0.000145176
0.000145174
0.000145173
0.000145172
0.000145171
0.00014517
0.00014517
0.000145169
0.000145169
0.000145169
0.000145169
0.000145169
0.000145169
0.00014517
0.00014517
0.00014517
0.000145171
0.000145171
0.000145172
0.000145172
0.000145172
0.000145173
0.000145173
0.000145174
0.000145174
0.000145175
0.000145175
0.000145176
0.000145177
0.000145177
0.000145178
0.000145178
0.000145179
0.000145179
0.00014518
0.000145181
0.000145181
0.000145182
0.000145182
0.000145183
0.000145183
0.000145183
0.000145184
0.000145184
0.000145185
0.000145185
0.000145185
0.000145186
0.000145186
0.000145186
0.000145187
0.000145187
0.000145187
0.000145187
0.000145188
0.000145188
0.000145188
0.000145188
0.000145188
0.000145189
0.000145189
0.000145189
0.000145189
0.000145189
0.00014519
0.00014519
0.00014519
0.00014519
0.00014519
0.000145191
0.000145191
0.000145191
0.000145191
0.000145191
0.000145191
0.000145192
0.000145192
0.000145192
0.000145192
0.000145192
0.000145192
0.000145192
0.000145192
0.000145193
0.000145193
0.000145193
0.000145193
0.000145193
0.000145193
0.000145193
0.000145193
0.000145193
0.000145193
0.000145193
0.000145193
0.000145193
0.000145193
0.000145193
0.000145193
0.000145193
0.000145193
0.000145193
0.000145192
0.000145192
0.000145192
0.000145191
0.000145191
0.00014519
0.00014519
0.00014519
0.000145189
0.000145188
0.000145188
0.000139424
0.000139423
0.000139422
0.00013942
0.000139418
0.000139416
0.000139415
0.000139413
0.000139411
0.00013941
0.000139409
0.000139408
0.000139407
0.000139406
0.000139406
0.000139406
0.000139406
0.000139406
0.000139406
0.000139406
0.000139406
0.000139407
0.000139407
0.000139407
0.000139408
0.000139408
0.000139409
0.000139409
0.000139409
0.00013941
0.00013941
0.000139411
0.000139411
0.000139412
0.000139412
0.000139413
0.000139413
0.000139414
0.000139414
0.000139415
0.000139416
0.000139416
0.000139417
0.000139417
0.000139418
0.000139418
0.000139419
0.000139419
0.000139419
0.00013942
0.00013942
0.000139421
0.000139421
0.000139421
0.000139422
0.000139422
0.000139422
0.000139422
0.000139423
0.000139423
0.000139423
0.000139423
0.000139424
0.000139424
0.000139424
0.000139424
0.000139424
0.000139425
0.000139425
0.000139425
0.000139425
0.000139425
0.000139425
0.000139426
0.000139426
0.000139426
0.000139426
0.000139426
0.000139426
0.000139427
0.000139427
0.000139427
0.000139427
0.000139427
0.000139427
0.000139428
0.000139428
0.000139428
0.000139428
0.000139428
0.000139428
0.000139428
0.000139428
0.000139428
0.000139428
0.000139428
0.000139429
0.000139429
0.000139429
0.000139429
0.000139429
0.000139429
0.000139429
0.000139429
0.000139429
0.000139429
0.000139429
0.000139428