/*--------------------------------*- C++ -*----------------------------------*\
  =========                 |
  \\      /  F ield         | OpenFOAM: The Open Source CFD Toolbox
   \\    /   O peration     | Website:  https://openfoam.org
    \\  /    A nd           | Version:  7
     \\/     M anipulation  |
\*---------------------------------------------------------------------------*/
FoamFile
{
    version     2.0;
    format      ascii;
    class       volScalarField;
    location    "4500";
    object      omega;
}
// * * * * * * * * * * * * * * * * * * * * * * * * * * * * * * * * * * * * * //

dimensions      [0 0 -1 0 0 0 0];

internalField   nonuniform List<scalar> 
4037
(
0.609852
0.609837
0.609824
0.609816
0.609808
0.609803
0.609798
0.609793
0.609789
0.609786
0.609783
0.60978
0.609778
0.609775
0.609773
0.609772
0.60977
0.609769
0.609767
0.609766
0.609765
0.609764
0.609763
0.609762
0.609761
0.609761
0.60976
0.609759
0.609759
0.609758
0.609758
0.609757
0.609757
0.609756
0.609756
0.609755
0.609755
0.609755
0.609754
0.609754
0.609753
0.609753
0.609752
0.609752
0.609751
0.609751
0.609751
0.60975
0.60975
0.609749
0.609749
0.609748
0.609748
0.609747
0.609747
0.609746
0.609746
0.609745
0.609745
0.609745
0.609744
0.609744
0.609744
0.609743
0.609743
0.609743
0.609743
0.609742
0.609742
0.609742
0.609742
0.609742
0.609742
0.609742
0.609742
0.609743
0.60974
0.644678
0.644691
0.644691
0.644688
0.644684
0.64468
0.644676
0.644672
0.644669
0.644667
0.644664
0.644661
0.644658
0.644655
0.644653
0.64465
0.644648
0.644646
0.644645
0.644643
0.644642
0.644641
0.644641
0.644642
0.644604
0.64458
0.644565
0.644555
0.644546
0.644539
0.644533
0.644528
0.644524
0.64452
0.644517
0.644513
0.644511
0.644508
0.644506
0.644504
0.644502
0.6445
0.644499
0.644497
0.644496
0.644495
0.644494
0.644493
0.644492
0.644491
0.64449
0.64449
0.644489
0.644488
0.644488
0.644487
0.644486
0.644486
0.644485
0.644485
0.644484
0.644484
0.644483
0.644483
0.644482
0.644481
0.644481
0.64448
0.64448
0.644479
0.644479
0.644478
0.644478
0.644477
0.644477
0.644476
0.644476
0.644475
0.644474
0.644474
0.644473
0.644473
0.644472
0.644472
0.644472
0.644471
0.644471
0.64447
0.64447
0.64447
0.64447
0.644469
0.644469
0.644469
0.644469
0.644469
0.644469
0.644469
0.644469
0.64447
0.644464
0.644526
0.644552
0.644562
0.644569
0.644575
0.644581
0.644585
0.64459
0.644593
0.644597
0.6446
0.644604
0.644606
0.644609
0.644612
0.644614
0.644616
0.64462
0.644611
0.681908
0.681925
0.681927
0.681924
0.68192
0.681916
0.681912
0.681908
0.681905
0.681902
0.681899
0.681896
0.681893
0.68189
0.681887
0.681884
0.681882
0.681879
0.681878
0.681876
0.681875
0.681874
0.681873
0.681875
0.681856
0.681835
0.68182
0.681808
0.681799
0.681791
0.681785
0.681779
0.681774
0.68177
0.681767
0.681763
0.68176
0.681757
0.681755
0.681753
0.681751
0.681749
0.681747
0.681746
0.681744
0.681743
0.681742
0.681741
0.68174
0.681739
0.681738
0.681737
0.681736
0.681735
0.681734
0.681734
0.681733
0.681732
0.681732
0.681731
0.68173
0.68173
0.681729
0.681728
0.681728
0.681727
0.681726
0.681726
0.681725
0.681725
0.681724
0.681723
0.681723
0.681722
0.681721
0.681721
0.68172
0.68172
0.681719
0.681718
0.681718
0.681717
0.681717
0.681716
0.681716
0.681715
0.681715
0.681715
0.681714
0.681714
0.681714
0.681713
0.681713
0.681713
0.681713
0.681713
0.681713
0.681713
0.681712
0.681713
0.681708
0.681739
0.681765
0.681781
0.68179
0.681798
0.681804
0.681809
0.681814
0.681818
0.681822
0.681826
0.681829
0.681832
0.681835
0.681837
0.68184
0.681841
0.681846
0.681836
0.721955
0.721974
0.721976
0.721974
0.72197
0.721966
0.721962
0.721957
0.721954
0.721951
0.721948
0.721945
0.721941
0.721938
0.721935
0.721932
0.721929
0.721927
0.721925
0.721924
0.721922
0.721921
0.72192
0.721921
0.721912
0.721898
0.721884
0.721873
0.721863
0.721856
0.721849
0.721843
0.721838
0.721834
0.72183
0.721827
0.721823
0.721821
0.721818
0.721816
0.721813
0.721811
0.72181
0.721808
0.721806
0.721805
0.721804
0.721802
0.721801
0.7218
0.721799
0.721798
0.721797
0.721796
0.721795
0.721794
0.721794
0.721793
0.721792
0.721791
0.72179
0.72179
0.721789
0.721788
0.721788
0.721787
0.721786
0.721785
0.721785
0.721784
0.721783
0.721783
0.721782
0.721781
0.72178
0.72178
0.721779
0.721778
0.721778
0.721777
0.721777
0.721776
0.721775
0.721775
0.721774
0.721774
0.721773
0.721773
0.721772
0.721772
0.721772
0.721771
0.721771
0.721771
0.721771
0.72177
0.72177
0.72177
0.72177
0.721771
0.721767
0.721782
0.721801
0.721817
0.721828
0.721836
0.721843
0.721848
0.721853
0.721858
0.721862
0.721866
0.721869
0.721872
0.721875
0.721878
0.72188
0.721882
0.721887
0.721875
0.765163
0.765184
0.765187
0.765185
0.765181
0.765177
0.765172
0.765168
0.765164
0.765161
0.765157
0.765154
0.765151
0.765147
0.765144
0.765141
0.765138
0.765136
0.765134
0.765132
0.765131
0.765129
0.765128
0.765129
0.765124
0.765115
0.765105
0.765095
0.765086
0.765079
0.765072
0.765067
0.765062
0.765057
0.765053
0.76505
0.765047
0.765044
0.765041
0.765038
0.765036
0.765034
0.765032
0.76503
0.765029
0.765027
0.765026
0.765024
0.765023
0.765022
0.765021
0.76502
0.765019
0.765017
0.765016
0.765016
0.765015
0.765014
0.765013
0.765012
0.765011
0.76501
0.765009
0.765008
0.765008
0.765007
0.765006
0.765005
0.765004
0.765004
0.765003
0.765002
0.765001
0.765001
0.765
0.764999
0.764998
0.764998
0.764997
0.764996
0.764995
0.764995
0.764994
0.764994
0.764993
0.764992
0.764992
0.764991
0.764991
0.764991
0.76499
0.76499
0.764989
0.764989
0.764989
0.764989
0.764989
0.764989
0.764988
0.764989
0.764987
0.764993
0.765005
0.765018
0.765029
0.765037
0.765044
0.76505
0.765055
0.765059
0.765064
0.765067
0.765071
0.765074
0.765077
0.765079
0.765082
0.765084
0.765089
0.765076
0.811938
0.81196
0.811964
0.811962
0.811959
0.811954
0.811949
0.811945
0.811941
0.811937
0.811933
0.81193
0.811926
0.811923
0.811919
0.811916
0.811913
0.81191
0.811908
0.811907
0.811905
0.811904
0.811903
0.811903
0.811901
0.811895
0.811888
0.81188
0.811873
0.811866
0.81186
0.811854
0.81185
0.811845
0.811842
0.811838
0.811835
0.811832
0.811829
0.811827
0.811824
0.811822
0.81182
0.811818
0.811817
0.811815
0.811813
0.811812
0.81181
0.811809
0.811808
0.811807
0.811805
0.811804
0.811803
0.811802
0.811801
0.8118
0.811799
0.811798
0.811797
0.811796
0.811795
0.811794
0.811793
0.811792
0.811791
0.811791
0.81179
0.811789
0.811788
0.811787
0.811786
0.811785
0.811785
0.811784
0.811783
0.811782
0.811781
0.811781
0.81178
0.811779
0.811779
0.811778
0.811777
0.811777
0.811776
0.811776
0.811775
0.811775
0.811774
0.811774
0.811773
0.811773
0.811773
0.811773
0.811772
0.811772
0.811772
0.811772
0.811771
0.811773
0.811781
0.81179
0.811799
0.811807
0.811813
0.811819
0.811824
0.811828
0.811833
0.811836
0.81184
0.811843
0.811846
0.811848
0.811851
0.811852
0.811858
0.811843
0.862756
0.86278
0.862784
0.862782
0.862779
0.862774
0.862769
0.862764
0.86276
0.862756
0.862752
0.862748
0.862745
0.862741
0.862737
0.862734
0.862731
0.862728
0.862726
0.862724
0.862723
0.862721
0.86272
0.86272
0.862719
0.862716
0.862711
0.862705
0.862699
0.862693
0.862688
0.862683
0.862679
0.862675
0.862671
0.862668
0.862664
0.862662
0.862659
0.862656
0.862654
0.862652
0.86265
0.862648
0.862646
0.862644
0.862643
0.862641
0.86264
0.862638
0.862637
0.862635
0.862634
0.862633
0.862632
0.86263
0.862629
0.862628
0.862627
0.862626
0.862625
0.862624
0.862623
0.862622
0.862621
0.86262
0.862619
0.862618
0.862617
0.862616
0.862615
0.862614
0.862613
0.862612
0.862611
0.86261
0.86261
0.862609
0.862608
0.862607
0.862606
0.862606
0.862605
0.862604
0.862604
0.862603
0.862602
0.862602
0.862601
0.862601
0.8626
0.8626
0.862599
0.862599
0.862599
0.862598
0.862598
0.862598
0.862598
0.862598
0.862597
0.862598
0.862602
0.862608
0.862615
0.862621
0.862627
0.862633
0.862637
0.862641
0.862645
0.862649
0.862652
0.862655
0.862658
0.86266
0.862663
0.862664
0.86267
0.862654
0.91818
0.918205
0.91821
0.918208
0.918205
0.9182
0.918195
0.918189
0.918185
0.918181
0.918177
0.918173
0.918169
0.918165
0.918161
0.918158
0.918155
0.918152
0.91815
0.918148
0.918147
0.918145
0.918144
0.918144
0.918143
0.918141
0.918138
0.918134
0.91813
0.918125
0.91812
0.918116
0.918112
0.918109
0.918105
0.918102
0.918099
0.918096
0.918094
0.918091
0.918089
0.918087
0.918085
0.918083
0.918081
0.918079
0.918077
0.918076
0.918074
0.918072
0.918071
0.91807
0.918068
0.918067
0.918065
0.918064
0.918063
0.918062
0.91806
0.918059
0.918058
0.918057
0.918056
0.918055
0.918053
0.918052
0.918051
0.91805
0.918049
0.918048
0.918047
0.918046
0.918045
0.918044
0.918043
0.918042
0.918042
0.918041
0.91804
0.918039
0.918038
0.918037
0.918037
0.918036
0.918035
0.918035
0.918034
0.918033
0.918033
0.918032
0.918032
0.918031
0.918031
0.91803
0.91803
0.91803
0.91803
0.918029
0.918029
0.918029
0.918029
0.918029
0.918031
0.918034
0.918039
0.918044
0.918049
0.918054
0.918058
0.918062
0.918065
0.918069
0.918072
0.918074
0.918077
0.918079
0.918082
0.918083
0.918089
0.918071
0.97888
0.978907
0.978912
0.97891
0.978906
0.978902
0.978896
0.978891
0.978886
0.978882
0.978878
0.978874
0.97887
0.978866
0.978862
0.978858
0.978855
0.978852
0.97885
0.978848
0.978847
0.978846
0.978845
0.978844
0.978843
0.978842
0.978841
0.978838
0.978835
0.978831
0.978827
0.978824
0.97882
0.978817
0.978814
0.978811
0.978808
0.978806
0.978803
0.978801
0.978799
0.978796
0.978794
0.978792
0.97879
0.978789
0.978787
0.978785
0.978784
0.978782
0.97878
0.978779
0.978777
0.978776
0.978774
0.978773
0.978772
0.97877
0.978769
0.978768
0.978766
0.978765
0.978764
0.978763
0.978761
0.97876
0.978759
0.978758
0.978757
0.978756
0.978755
0.978754
0.978753
0.978752
0.978751
0.97875
0.978749
0.978748
0.978747
0.978746
0.978745
0.978744
0.978744
0.978743
0.978742
0.978742
0.978741
0.97874
0.97874
0.978739
0.978739
0.978738
0.978738
0.978737
0.978737
0.978737
0.978736
0.978736
0.978736
0.978736
0.978735
0.978735
0.978736
0.978738
0.978741
0.978745
0.978749
0.978753
0.978756
0.978759
0.978763
0.978765
0.978768
0.978771
0.978773
0.978775
0.978778
0.978779
0.978785
0.978766
1.04566
1.04569
1.04569
1.04569
1.04569
1.04568
1.04568
1.04567
1.04566
1.04566
1.04566
1.04565
1.04565
1.04564
1.04564
1.04564
1.04563
1.04563
1.04563
1.04563
1.04563
1.04562
1.04562
1.04562
1.04562
1.04562
1.04562
1.04562
1.04562
1.04561
1.04561
1.04561
1.0456
1.0456
1.0456
1.0456
1.04559
1.04559
1.04559
1.04559
1.04558
1.04558
1.04558
1.04558
1.04558
1.04557
1.04557
1.04557
1.04557
1.04557
1.04557
1.04556
1.04556
1.04556
1.04556
1.04556
1.04556
1.04556
1.04555
1.04555
1.04555
1.04555
1.04555
1.04555
1.04555
1.04554
1.04554
1.04554
1.04554
1.04554
1.04554
1.04554
1.04554
1.04554
1.04553
1.04553
1.04553
1.04553
1.04553
1.04553
1.04553
1.04553
1.04553
1.04553
1.04553
1.04553
1.04552
1.04552
1.04552
1.04552
1.04552
1.04552
1.04552
1.04552
1.04552
1.04552
1.04552
1.04552
1.04552
1.04552
1.04552
1.04552
1.04552
1.04552
1.04552
1.04552
1.04553
1.04553
1.04553
1.04554
1.04554
1.04554
1.04554
1.04555
1.04555
1.04555
1.04555
1.04555
1.04556
1.04554
1.11948
1.11951
1.11951
1.11951
1.11951
1.1195
1.1195
1.11949
1.11949
1.11948
1.11948
1.11947
1.11947
1.11946
1.11946
1.11946
1.11945
1.11945
1.11945
1.11945
1.11945
1.11945
1.11944
1.11944
1.11944
1.11944
1.11944
1.11944
1.11944
1.11944
1.11944
1.11943
1.11943
1.11943
1.11943
1.11942
1.11942
1.11942
1.11942
1.11942
1.11941
1.11941
1.11941
1.11941
1.11941
1.1194
1.1194
1.1194
1.1194
1.1194
1.11939
1.11939
1.11939
1.11939
1.11939
1.11939
1.11938
1.11938
1.11938
1.11938
1.11938
1.11938
1.11938
1.11937
1.11937
1.11937
1.11937
1.11937
1.11937
1.11937
1.11937
1.11936
1.11936
1.11936
1.11936
1.11936
1.11936
1.11936
1.11936
1.11936
1.11936
1.11935
1.11935
1.11935
1.11935
1.11935
1.11935
1.11935
1.11935
1.11935
1.11935
1.11935
1.11935
1.11935
1.11935
1.11935
1.11935
1.11935
1.11935
1.11935
1.11935
1.11935
1.11934
1.11935
1.11935
1.11935
1.11935
1.11935
1.11935
1.11936
1.11936
1.11936
1.11936
1.11936
1.11937
1.11937
1.11937
1.11937
1.11938
1.11936
1.20151
1.20154
1.20155
1.20155
1.20154
1.20154
1.20153
1.20153
1.20152
1.20152
1.20151
1.20151
1.2015
1.2015
1.2015
1.20149
1.20149
1.20149
1.20149
1.20148
1.20148
1.20148
1.20148
1.20148
1.20148
1.20148
1.20148
1.20148
1.20148
1.20148
1.20147
1.20147
1.20147
1.20147
1.20147
1.20147
1.20146
1.20146
1.20146
1.20146
1.20145
1.20145
1.20145
1.20145
1.20145
1.20144
1.20144
1.20144
1.20144
1.20144
1.20144
1.20143
1.20143
1.20143
1.20143
1.20143
1.20143
1.20142
1.20142
1.20142
1.20142
1.20142
1.20142
1.20141
1.20141
1.20141
1.20141
1.20141
1.20141
1.20141
1.20141
1.2014
1.2014
1.2014
1.2014
1.2014
1.2014
1.2014
1.2014
1.2014
1.2014
1.20139
1.20139
1.20139
1.20139
1.20139
1.20139
1.20139
1.20139
1.20139
1.20139
1.20139
1.20139
1.20139
1.20139
1.20139
1.20139
1.20139
1.20139
1.20139
1.20139
1.20138
1.20138
1.20138
1.20139
1.20139
1.20139
1.20139
1.20139
1.20139
1.20139
1.20139
1.2014
1.2014
1.2014
1.2014
1.2014
1.2014
1.20141
1.20139
1.29319
1.29322
1.29323
1.29323
1.29322
1.29322
1.29321
1.29321
1.2932
1.2932
1.29319
1.29319
1.29319
1.29318
1.29318
1.29317
1.29317
1.29317
1.29317
1.29317
1.29317
1.29316
1.29316
1.29316
1.29316
1.29316
1.29316
1.29316
1.29316
1.29316
1.29316
1.29316
1.29316
1.29315
1.29315
1.29315
1.29315
1.29315
1.29315
1.29314
1.29314
1.29314
1.29314
1.29314
1.29313
1.29313
1.29313
1.29313
1.29313
1.29312
1.29312
1.29312
1.29312
1.29312
1.29311
1.29311
1.29311
1.29311
1.29311
1.29311
1.2931
1.2931
1.2931
1.2931
1.2931
1.2931
1.2931
1.29309
1.29309
1.29309
1.29309
1.29309
1.29309
1.29309
1.29309
1.29309
1.29308
1.29308
1.29308
1.29308
1.29308
1.29308
1.29308
1.29308
1.29308
1.29308
1.29308
1.29308
1.29308
1.29307
1.29307
1.29307
1.29307
1.29307
1.29307
1.29307
1.29307
1.29307
1.29307
1.29307
1.29307
1.29307
1.29307
1.29307
1.29307
1.29307
1.29307
1.29307
1.29307
1.29307
1.29308
1.29308
1.29308
1.29308
1.29308
1.29308
1.29308
1.29308
1.29309
1.29307
1.39628
1.39631
1.39632
1.39632
1.39632
1.39631
1.39631
1.3963
1.39629
1.39629
1.39629
1.39628
1.39628
1.39628
1.39627
1.39627
1.39627
1.39626
1.39626
1.39626
1.39626
1.39626
1.39626
1.39626
1.39626
1.39626
1.39626
1.39626
1.39626
1.39626
1.39625
1.39625
1.39625
1.39625
1.39625
1.39625
1.39625
1.39624
1.39624
1.39624
1.39624
1.39624
1.39624
1.39623
1.39623
1.39623
1.39623
1.39623
1.39622
1.39622
1.39622
1.39622
1.39622
1.39621
1.39621
1.39621
1.39621
1.39621
1.39621
1.3962
1.3962
1.3962
1.3962
1.3962
1.3962
1.39619
1.39619
1.39619
1.39619
1.39619
1.39619
1.39619
1.39619
1.39618
1.39618
1.39618
1.39618
1.39618
1.39618
1.39618
1.39618
1.39618
1.39618
1.39618
1.39617
1.39617
1.39617
1.39617
1.39617
1.39617
1.39617
1.39617
1.39617
1.39617
1.39617
1.39617
1.39617
1.39617
1.39617
1.39617
1.39617
1.39617
1.39617
1.39617
1.39617
1.39617
1.39617
1.39617
1.39617
1.39617
1.39617
1.39617
1.39617
1.39617
1.39617
1.39617
1.39618
1.39618
1.39618
1.39616
1.51298
1.51301
1.51302
1.51302
1.51302
1.51301
1.51301
1.513
1.513
1.51299
1.51299
1.51299
1.51298
1.51298
1.51298
1.51297
1.51297
1.51297
1.51297
1.51297
1.51297
1.51297
1.51297
1.51296
1.51296
1.51296
1.51296
1.51296
1.51296
1.51296
1.51296
1.51296
1.51296
1.51296
1.51296
1.51295
1.51295
1.51295
1.51295
1.51295
1.51295
1.51294
1.51294
1.51294
1.51294
1.51294
1.51293
1.51293
1.51293
1.51293
1.51293
1.51292
1.51292
1.51292
1.51292
1.51292
1.51292
1.51291
1.51291
1.51291
1.51291
1.51291
1.5129
1.5129
1.5129
1.5129
1.5129
1.5129
1.5129
1.5129
1.51289
1.51289
1.51289
1.51289
1.51289
1.51289
1.51289
1.51289
1.51289
1.51289
1.51288
1.51288
1.51288
1.51288
1.51288
1.51288
1.51288
1.51288
1.51288
1.51288
1.51288
1.51288
1.51288
1.51288
1.51288
1.51288
1.51288
1.51288
1.51288
1.51288
1.51288
1.51288
1.51287
1.51287
1.51287
1.51287
1.51287
1.51287
1.51287
1.51287
1.51288
1.51288
1.51288
1.51288
1.51288
1.51288
1.51288
1.51288
1.51288
1.51286
1.64605
1.64608
1.64609
1.64609
1.64609
1.64609
1.64608
1.64608
1.64607
1.64607
1.64606
1.64606
1.64606
1.64606
1.64605
1.64605
1.64605
1.64605
1.64605
1.64605
1.64605
1.64604
1.64604
1.64604
1.64604
1.64604
1.64604
1.64604
1.64604
1.64604
1.64604
1.64604
1.64604
1.64604
1.64604
1.64603
1.64603
1.64603
1.64603
1.64603
1.64603
1.64602
1.64602
1.64602
1.64602
1.64602
1.64601
1.64601
1.64601
1.64601
1.64601
1.646
1.646
1.646
1.646
1.646
1.64599
1.64599
1.64599
1.64599
1.64599
1.64599
1.64598
1.64598
1.64598
1.64598
1.64598
1.64598
1.64598
1.64597
1.64597
1.64597
1.64597
1.64597
1.64597
1.64597
1.64597
1.64597
1.64597
1.64596
1.64596
1.64596
1.64596
1.64596
1.64596
1.64596
1.64596
1.64596
1.64596
1.64596
1.64596
1.64596
1.64596
1.64596
1.64596
1.64596
1.64596
1.64596
1.64596
1.64596
1.64596
1.64596
1.64596
1.64596
1.64595
1.64595
1.64595
1.64595
1.64595
1.64595
1.64595
1.64595
1.64595
1.64595
1.64595
1.64596
1.64596
1.64596
1.64596
1.64594
1.799
1.79903
1.79904
1.79904
1.79904
1.79904
1.79904
1.79903
1.79903
1.79903
1.79902
1.79902
1.79902
1.79902
1.79902
1.79901
1.79901
1.79901
1.79901
1.79901
1.79901
1.79901
1.79901
1.79901
1.79901
1.79901
1.79901
1.79901
1.799
1.799
1.799
1.799
1.799
1.799
1.799
1.799
1.799
1.79899
1.79899
1.79899
1.79899
1.79899
1.79899
1.79898
1.79898
1.79898
1.79898
1.79898
1.79897
1.79897
1.79897
1.79897
1.79896
1.79896
1.79896
1.79896
1.79896
1.79895
1.79895
1.79895
1.79895
1.79895
1.79895
1.79894
1.79894
1.79894
1.79894
1.79894
1.79894
1.79894
1.79894
1.79894
1.79893
1.79893
1.79893
1.79893
1.79893
1.79893
1.79893
1.79893
1.79893
1.79893
1.79893
1.79893
1.79893
1.79893
1.79892
1.79892
1.79892
1.79892
1.79892
1.79892
1.79892
1.79892
1.79892
1.79892
1.79892
1.79892
1.79892
1.79892
1.79892
1.79892
1.79892
1.79892
1.79892
1.79892
1.79892
1.79892
1.79892
1.79892
1.79892
1.79892
1.79892
1.79892
1.79892
1.79892
1.79892
1.79892
1.79892
1.7989
1.97635
1.97638
1.97639
1.9764
1.9764
1.9764
1.9764
1.97639
1.97639
1.97639
1.97639
1.97638
1.97638
1.97638
1.97638
1.97638
1.97638
1.97638
1.97638
1.97638
1.97638
1.97638
1.97638
1.97637
1.97637
1.97637
1.97637
1.97637
1.97637
1.97637
1.97637
1.97637
1.97636
1.97636
1.97636
1.97636
1.97636
1.97636
1.97636
1.97635
1.97635
1.97635
1.97635
1.97635
1.97635
1.97634
1.97634
1.97634
1.97634
1.97633
1.97633
1.97633
1.97633
1.97633
1.97632
1.97632
1.97632
1.97632
1.97632
1.97631
1.97631
1.97631
1.97631
1.97631
1.97631
1.97631
1.9763
1.9763
1.9763
1.9763
1.9763
1.9763
1.9763
1.9763
1.9763
1.9763
1.9763
1.9763
1.97629
1.97629
1.97629
1.97629
1.97629
1.97629
1.97629
1.97629
1.97629
1.97629
1.97629
1.97629
1.97629
1.97629
1.97629
1.97629
1.97629
1.97629
1.97629
1.97629
1.97629
1.97629
1.97629
1.97629
1.97629
1.97629
1.97629
1.97629
1.97629
1.97629
1.97629
1.97629
1.97629
1.97629
1.97628
1.97628
1.97628
1.97628
1.97628
1.97628
1.97629
1.97627
2.18398
2.18401
2.18403
2.18403
2.18404
2.18404
2.18404
2.18404
2.18404
2.18403
2.18403
2.18403
2.18403
2.18403
2.18403
2.18403
2.18403
2.18403
2.18403
2.18403
2.18403
2.18403
2.18403
2.18403
2.18402
2.18402
2.18402
2.18402
2.18402
2.18402
2.18402
2.18402
2.18401
2.18401
2.18401
2.18401
2.18401
2.18401
2.184
2.184
2.184
2.184
2.184
2.184
2.18399
2.18399
2.18399
2.18399
2.18398
2.18398
2.18398
2.18398
2.18398
2.18397
2.18397
2.18397
2.18397
2.18397
2.18397
2.18396
2.18396
2.18396
2.18396
2.18396
2.18396
2.18396
2.18395
2.18395
2.18395
2.18395
2.18395
2.18395
2.18395
2.18395
2.18395
2.18395
2.18395
2.18395
2.18395
2.18394
2.18394
2.18394
2.18394
2.18394
2.18394
2.18394
2.18394
2.18394
2.18394
2.18394
2.18394
2.18394
2.18394
2.18394
2.18394
2.18394
2.18394
2.18394
2.18394
2.18394
2.18394
2.18394
2.18394
2.18394
2.18394
2.18394
2.18394
2.18394
2.18394
2.18394
2.18394
2.18394
2.18394
2.18394
2.18394
2.18394
2.18394
2.18394
2.18394
2.18393
2.42967
2.4297
2.42972
2.42973
2.42974
2.42974
2.42974
2.42974
2.42974
2.42974
2.42974
2.42974
2.42974
2.42974
2.42974
2.42974
2.42974
2.42974
2.42974
2.42974
2.42974
2.42974
2.42974
2.42974
2.42974
2.42973
2.42973
2.42973
2.42973
2.42973
2.42973
2.42972
2.42972
2.42972
2.42972
2.42972
2.42972
2.42971
2.42971
2.42971
2.42971
2.42971
2.4297
2.4297
2.4297
2.4297
2.4297
2.42969
2.42969
2.42969
2.42969
2.42969
2.42968
2.42968
2.42968
2.42968
2.42968
2.42967
2.42967
2.42967
2.42967
2.42967
2.42967
2.42967
2.42966
2.42966
2.42966
2.42966
2.42966
2.42966
2.42966
2.42966
2.42966
2.42966
2.42966
2.42966
2.42966
2.42966
2.42966
2.42966
2.42966
2.42966
2.42965
2.42965
2.42965
2.42965
2.42965
2.42965
2.42965
2.42965
2.42965
2.42965
2.42965
2.42965
2.42965
2.42965
2.42965
2.42965
2.42965
2.42965
2.42965
2.42965
2.42965
2.42965
2.42965
2.42965
2.42965
2.42965
2.42965
2.42965
2.42965
2.42965
2.42965
2.42965
2.42965
2.42965
2.42965
2.42965
2.42965
2.42964
2.72384
2.72387
2.7239
2.72391
2.72393
2.72393
2.72394
2.72394
2.72394
2.72394
2.72394
2.72394
2.72394
2.72395
2.72395
2.72395
2.72395
2.72395
2.72395
2.72395
2.72394
2.72394
2.72394
2.72394
2.72394
2.72394
2.72393
2.72393
2.72393
2.72393
2.72393
2.72392
2.72392
2.72392
2.72392
2.72392
2.72391
2.72391
2.72391
2.72391
2.72391
2.72391
2.7239
2.7239
2.7239
2.7239
2.72389
2.72389
2.72389
2.72389
2.72389
2.72388
2.72388
2.72388
2.72388
2.72388
2.72388
2.72387
2.72387
2.72387
2.72387
2.72387
2.72387
2.72387
2.72387
2.72386
2.72386
2.72386
2.72386
2.72386
2.72386
2.72386
2.72386
2.72386
2.72386
2.72386
2.72386
2.72386
2.72386
2.72386
2.72386
2.72386
2.72386
2.72386
2.72386
2.72386
2.72386
2.72386
2.72386
2.72386
2.72386
2.72386
2.72386
2.72386
2.72386
2.72386
2.72386
2.72386
2.72386
2.72386
2.72386
2.72386
2.72386
2.72386
2.72386
2.72386
2.72386
2.72386
2.72386
2.72386
2.72386
2.72386
2.72386
2.72386
2.72386
2.72386
2.72386
2.72386
2.72386
2.72386
3.08074
3.08077
3.08081
3.08083
3.08085
3.08086
3.08086
3.08087
3.08087
3.08087
3.08088
3.08088
3.08088
3.08088
3.08088
3.08089
3.08089
3.08089
3.08088
3.08088
3.08088
3.08088
3.08088
3.08088
3.08087
3.08087
3.08087
3.08087
3.08086
3.08086
3.08086
3.08086
3.08085
3.08085
3.08085
3.08085
3.08085
3.08084
3.08084
3.08084
3.08084
3.08084
3.08083
3.08083
3.08083
3.08083
3.08083
3.08082
3.08082
3.08082
3.08082
3.08082
3.08081
3.08081
3.08081
3.08081
3.08081
3.08081
3.08081
3.0808
3.0808
3.0808
3.0808
3.0808
3.0808
3.0808
3.0808
3.0808
3.0808
3.0808
3.0808
3.0808
3.0808
3.0808
3.0808
3.0808
3.0808
3.0808
3.0808
3.0808
3.0808
3.0808
3.0808
3.0808
3.0808
3.0808
3.0808
3.0808
3.0808
3.0808
3.0808
3.0808
3.0808
3.0808
3.0808
3.0808
3.0808
3.0808
3.0808
3.0808
3.0808
3.0808
3.0808
3.0808
3.0808
3.0808
3.0808
3.0808
3.0808
3.0808
3.0808
3.0808
3.0808
3.0808
3.0808
3.0808
3.0808
3.0808
3.0808
3.0808
3.52021
3.52024
3.52029
3.52032
3.52034
3.52036
3.52036
3.52037
3.52037
3.52038
3.52038
3.52039
3.52039
3.52039
3.52039
3.52039
3.52039
3.52039
3.52039
3.52039
3.52039
3.52039
3.52038
3.52038
3.52038
3.52037
3.52037
3.52037
3.52037
3.52036
3.52036
3.52036
3.52035
3.52035
3.52035
3.52035
3.52035
3.52034
3.52034
3.52034
3.52034
3.52034
3.52033
3.52033
3.52033
3.52033
3.52033
3.52032
3.52032
3.52032
3.52032
3.52032
3.52032
3.52031
3.52031
3.52031
3.52031
3.52031
3.52031
3.52031
3.52031
3.52031
3.52031
3.5203
3.5203
3.5203
3.5203
3.5203
3.5203
3.5203
3.5203
3.5203
3.5203
3.5203
3.5203
3.5203
3.52031
3.52031
3.52031
3.52031
3.52031
3.52031
3.52031
3.52031
3.52031
3.52031
3.52031
3.52031
3.52031
3.52031
3.52031
3.52031
3.52031
3.52031
3.52031
3.52031
3.52031
3.52031
3.52031
3.52031
3.52031
3.52032
3.52032
3.52032
3.52032
3.52032
3.52032
3.52032
3.52032
3.52032
3.52032
3.52032
3.52031
3.52031
3.52031
3.52031
3.52031
3.52031
3.52031
3.52033
4.07055
4.07059
4.07066
4.0707
4.07073
4.07075
4.07075
4.07076
4.07077
4.07077
4.07078
4.07078
4.07078
4.07079
4.07079
4.07079
4.07079
4.07079
4.07078
4.07078
4.07078
4.07078
4.07077
4.07077
4.07077
4.07076
4.07076
4.07076
4.07075
4.07075
4.07075
4.07074
4.07074
4.07074
4.07074
4.07073
4.07073
4.07073
4.07073
4.07073
4.07072
4.07072
4.07072
4.07072
4.07072
4.07072
4.07071
4.07071
4.07071
4.07071
4.07071
4.07071
4.0707
4.0707
4.0707
4.0707
4.0707
4.0707
4.0707
4.0707
4.0707
4.0707
4.0707
4.0707
4.0707
4.0707
4.0707
4.0707
4.0707
4.0707
4.0707
4.0707
4.0707
4.0707
4.0707
4.0707
4.0707
4.0707
4.0707
4.07071
4.07071
4.07071
4.07071
4.07071
4.07071
4.07071
4.07071
4.07071
4.07071
4.07071
4.07071
4.07071
4.07071
4.07071
4.07071
4.07071
4.07072
4.07072
4.07072
4.07072
4.07072
4.07072
4.07072
4.07072
4.07072
4.07072
4.07072
4.07072
4.07072
4.07072
4.07072
4.07072
4.07072
4.07072
4.07072
4.07072
4.07072
4.07072
4.07072
4.07074
4.77362
4.77368
4.77377
4.77382
4.77385
4.77387
4.77388
4.77389
4.77389
4.7739
4.7739
4.77391
4.77391
4.77391
4.77391
4.77391
4.77391
4.77391
4.7739
4.7739
4.7739
4.77389
4.77389
4.77389
4.77388
4.77388
4.77387
4.77387
4.77387
4.77386
4.77386
4.77386
4.77385
4.77385
4.77385
4.77385
4.77385
4.77384
4.77384
4.77384
4.77384
4.77384
4.77384
4.77383
4.77383
4.77383
4.77383
4.77383
4.77383
4.77383
4.77383
4.77383
4.77382
4.77382
4.77382
4.77382
4.77382
4.77382
4.77382
4.77382
4.77382
4.77382
4.77382
4.77382
4.77383
4.77383
4.77383
4.77383
4.77383
4.77383
4.77383
4.77383
4.77383
4.77383
4.77383
4.77383
4.77383
4.77384
4.77384
4.77384
4.77384
4.77384
4.77384
4.77384
4.77384
4.77384
4.77384
4.77384
4.77385
4.77385
4.77385
4.77385
4.77385
4.77385
4.77385
4.77385
4.77385
4.77385
4.77385
4.77386
4.77386
4.77386
4.77386
4.77386
4.77386
4.77386
4.77386
4.77386
4.77386
4.77386
4.77386
4.77386
4.77386
4.77386
4.77386
4.77386
4.77386
4.77386
4.77386
4.77389
5.69469
5.69479
5.6949
5.69497
5.695
5.69501
5.69502
5.69503
5.69503
5.69504
5.69504
5.69504
5.69504
5.69504
5.69504
5.69504
5.69503
5.69503
5.69503
5.69502
5.69502
5.69501
5.69501
5.69501
5.695
5.695
5.69499
5.69499
5.69499
5.69498
5.69498
5.69498
5.69497
5.69497
5.69497
5.69497
5.69497
5.69497
5.69496
5.69496
5.69496
5.69496
5.69496
5.69496
5.69496
5.69496
5.69496
5.69496
5.69496
5.69496
5.69496
5.69495
5.69495
5.69496
5.69496
5.69496
5.69496
5.69496
5.69496
5.69496
5.69496
5.69496
5.69496
5.69496
5.69496
5.69496
5.69497
5.69497
5.69497
5.69497
5.69497
5.69497
5.69497
5.69497
5.69498
5.69498
5.69498
5.69498
5.69498
5.69498
5.69498
5.69499
5.69499
5.69499
5.69499
5.69499
5.69499
5.69499
5.69499
5.69499
5.695
5.695
5.695
5.695
5.695
5.695
5.695
5.695
5.695
5.69501
5.69501
5.69501
5.69501
5.69501
5.69501
5.69501
5.69501
5.69501
5.69501
5.69501
5.69501
5.69501
5.69501
5.69501
5.69501
5.69501
5.69501
5.69501
5.69501
5.69505
6.94534
6.94549
6.94563
6.94569
6.94572
6.94573
6.94573
6.94573
6.94574
6.94574
6.94574
6.94574
6.94573
6.94573
6.94573
6.94572
6.94572
6.94571
6.94571
6.9457
6.9457
6.94569
6.94569
6.94568
6.94568
6.94567
6.94567
6.94567
6.94567
6.94566
6.94566
6.94566
6.94566
6.94565
6.94565
6.94565
6.94565
6.94565
6.94565
6.94565
6.94565
6.94565
6.94565
6.94565
6.94565
6.94565
6.94565
6.94565
6.94565
6.94565
6.94565
6.94565
6.94565
6.94565
6.94565
6.94565
6.94566
6.94566
6.94566
6.94566
6.94566
6.94566
6.94567
6.94567
6.94567
6.94567
6.94567
6.94567
6.94568
6.94568
6.94568
6.94568
6.94568
6.94569
6.94569
6.94569
6.94569
6.94569
6.94569
6.9457
6.9457
6.9457
6.9457
6.9457
6.9457
6.94571
6.94571
6.94571
6.94571
6.94571
6.94571
6.94572
6.94572
6.94572
6.94572
6.94572
6.94572
6.94572
6.94573
6.94573
6.94573
6.94573
6.94573
6.94573
6.94573
6.94573
6.94573
6.94573
6.94573
6.94573
6.94574
6.94574
6.94574
6.94574
6.94574
6.94574
6.94574
6.94574
6.94574
6.94578
8.74438
8.74459
8.74473
8.74479
8.7448
8.74481
8.7448
8.7448
8.7448
8.7448
8.74479
8.74479
8.74478
8.74477
8.74477
8.74476
8.74475
8.74475
8.74474
8.74474
8.74473
8.74473
8.74472
8.74472
8.74471
8.74471
8.74471
8.7447
8.7447
8.7447
8.7447
8.7447
8.74469
8.74469
8.74469
8.74469
8.74469
8.74469
8.74469
8.74469
8.74469
8.74469
8.7447
8.7447
8.7447
8.7447
8.7447
8.7447
8.7447
8.74471
8.74471
8.74471
8.74471
8.74471
8.74472
8.74472
8.74472
8.74472
8.74472
8.74473
8.74473
8.74473
8.74473
8.74474
8.74474
8.74474
8.74474
8.74475
8.74475
8.74475
8.74475
8.74476
8.74476
8.74476
8.74476
8.74476
8.74477
8.74477
8.74477
8.74477
8.74478
8.74478
8.74478
8.74478
8.74478
8.74479
8.74479
8.74479
8.74479
8.74479
8.7448
8.7448
8.7448
8.7448
8.7448
8.7448
8.74481
8.74481
8.74481
8.74481
8.74481
8.74481
8.74481
8.74482
8.74482
8.74482
8.74482
8.74482
8.74482
8.74482
8.74482
8.74482
8.74482
8.74482
8.74482
8.74482
8.74482
8.74482
8.74482
8.74486
11.5925
11.5928
11.5929
11.5929
11.5929
11.5929
11.5929
11.5929
11.5929
11.5929
11.5929
11.5929
11.5929
11.5929
11.5929
11.5929
11.5928
11.5928
11.5928
11.5928
11.5928
11.5928
11.5928
11.5928
11.5928
11.5928
11.5928
11.5928
11.5928
11.5928
11.5928
11.5928
11.5928
11.5928
11.5928
11.5928
11.5928
11.5928
11.5928
11.5928
11.5928
11.5928
11.5928
11.5928
11.5928
11.5928
11.5928
11.5928
11.5928
11.5928
11.5928
11.5928
11.5928
11.5928
11.5928
11.5928
11.5928
11.5928
11.5929
11.5929
11.5929
11.5929
11.5929
11.5929
11.5929
11.5929
11.5929
11.5929
11.5929
11.5929
11.5929
11.5929
11.5929
11.5929
11.5929
11.5929
11.5929
11.5929
11.5929
11.5929
11.5929
11.5929
11.5929
11.5929
11.5929
11.5929
11.5929
11.5929
11.5929
11.5929
11.5929
11.5929
11.5929
11.5929
11.5929
11.5929
11.5929
11.5929
11.5929
11.5929
11.593
11.593
11.593
11.593
11.593
11.593
11.593
11.593
11.593
11.593
11.593
11.593
11.593
11.593
11.593
11.593
11.593
11.593
11.593
11.593
16.7791
16.7793
16.7794
16.7794
16.7794
16.7794
16.7794
16.7794
16.7794
16.7794
16.7794
16.7794
16.7794
16.7793
16.7793
16.7793
16.7793
16.7793
16.7793
16.7793
16.7793
16.7793
16.7793
16.7793
16.7793
16.7793
16.7793
16.7793
16.7793
16.7793
16.7793
16.7793
16.7793
16.7793
16.7793
16.7793
16.7793
16.7793
16.7793
16.7793
16.7793
16.7793
16.7793
16.7793
16.7793
16.7793
16.7793
16.7793
16.7793
16.7793
16.7793
16.7793
16.7793
16.7793
16.7793
16.7793
16.7793
16.7793
16.7793
16.7793
16.7793
16.7794
16.7794
16.7794
16.7794
16.7794
16.7794
16.7794
16.7794
16.7794
16.7794
16.7794
16.7794
16.7794
16.7794
16.7794
16.7794
16.7794
16.7794
16.7794
16.7794
16.7794
16.7794
16.7794
16.7794
16.7794
16.7794
16.7794
16.7794
16.7794
16.7794
16.7794
16.7794
16.7794
16.7794
16.7794
16.7794
16.7794
16.7794
16.7794
16.7794
16.7794
16.7794
16.7794
16.7794
16.7794
16.7794
16.7794
16.7794
16.7794
16.7794
16.7794
16.7794
16.7795
16.7795
16.7795
16.7795
16.7795
16.7795
16.7795
27.9887
27.9889
27.9889
27.9889
27.9889
27.9889
27.9889
27.9889
27.9889
27.9889
27.9889
27.9889
27.9888
27.9888
27.9888
27.9888
27.9888
27.9888
27.9888
27.9888
27.9888
27.9888
27.9888
27.9888
27.9888
27.9888
27.9888
27.9888
27.9888
27.9888