/*--------------------------------*- C++ -*----------------------------------*\
  =========                 |
  \\      /  F ield         | OpenFOAM: The Open Source CFD Toolbox
   \\    /   O peration     | Website:  https://openfoam.org
    \\  /    A nd           | Version:  7
     \\/     M anipulation  |
\*---------------------------------------------------------------------------*/
FoamFile
{
    version     2.0;
    format      ascii;
    class       volVectorField;
    location    "4500";
    object      U;
}
// * * * * * * * * * * * * * * * * * * * * * * * * * * * * * * * * * * * * * //

dimensions      [0 1 -1 0 0 0 0];

internalField   nonuniform List<vector> 
4037
(
(0.118051 -5.36663e-08 3.6939e-15)
(0.118051 -4.54915e-08 3.61618e-15)
(0.118051 -3.88968e-08 3.37521e-15)
(0.118051 -3.24709e-08 3.57055e-15)
(0.118051 -2.6148e-08 3.3746e-15)
(0.118051 -2.00044e-08 3.30698e-15)
(0.118051 -1.41055e-08 3.29381e-15)
(0.11805 -8.48499e-09 3.13597e-15)
(0.11805 -3.14831e-09 3.32327e-15)
(0.11805 1.92262e-09 3.11147e-15)
(0.11805 6.76141e-09 3.10139e-15)
(0.11805 1.14073e-08 3.12124e-15)
(0.11805 1.58966e-08 2.93427e-15)
(0.11805 2.02568e-08 3.17975e-15)
(0.11805 2.45051e-08 3.0417e-15)
(0.11805 2.8648e-08 2.95493e-15)
(0.11805 3.26825e-08 3.11449e-15)
(0.11805 3.65969e-08 3.47578e-15)
(0.11805 4.03729e-08 3.57211e-15)
(0.11805 4.39895e-08 3.70042e-15)
(0.11805 4.74275e-08 3.72376e-15)
(0.11805 5.06749e-08 3.73388e-15)
(0.11805 5.37289e-08 4.01956e-15)
(0.11805 5.65957e-08 3.96231e-15)
(0.11805 5.92867e-08 3.99326e-15)
(0.11805 6.18137e-08 3.98259e-15)
(0.11805 6.41842e-08 3.99806e-15)
(0.11805 6.63999e-08 4.20394e-15)
(0.11805 6.84563e-08 4.14852e-15)
(0.11805 7.03464e-08 4.36268e-15)
(0.11805 7.20645e-08 4.29758e-15)
(0.11805 7.36097e-08 4.25895e-15)
(0.11805 7.49881e-08 4.46134e-15)
(0.11805 7.62122e-08 4.40459e-15)
(0.11805 7.72988e-08 4.58191e-15)
(0.11805 7.82655e-08 4.49693e-15)
(0.11805 7.9127e-08 4.45809e-15)
(0.11805 7.98934e-08 4.70265e-15)
(0.11805 8.05693e-08 4.58048e-15)
(0.11805 8.11553e-08 4.71663e-15)
(0.11805 8.16502e-08 4.63393e-15)
(0.11805 8.20535e-08 4.60077e-15)
(0.11805 8.23662e-08 4.8396e-15)
(0.11805 8.25917e-08 4.72326e-15)
(0.11805 8.27351e-08 4.85346e-15)
(0.11805 8.28014e-08 4.75131e-15)
(0.11805 8.27948e-08 4.7026e-15)
(0.11805 8.27176e-08 4.8915e-15)
(0.11805 8.25705e-08 4.80335e-15)
(0.11805 8.23527e-08 4.95309e-15)
(0.11805 8.20633e-08 4.86637e-15)
(0.11805 8.1701e-08 4.81717e-15)
(0.11805 8.12655e-08 5.02411e-15)
(0.11805 8.07567e-08 4.86692e-15)
(0.11805 8.01753e-08 5.02372e-15)
(0.11805 7.95224e-08 4.93147e-15)
(0.11805 7.87995e-08 4.86031e-15)
(0.11805 7.80089e-08 4.83821e-15)
(0.11805 7.71534e-08 4.83418e-15)
(0.11805 7.62366e-08 4.84188e-15)
(0.11805 7.52628e-08 4.85964e-15)
(0.11805 7.42368e-08 4.86313e-15)
(0.11805 7.31633e-08 4.87314e-15)
(0.11805 7.20464e-08 4.87686e-15)
(0.11805 7.08893e-08 4.87884e-15)
(0.11805 6.96928e-08 4.89816e-15)
(0.11805 6.84542e-08 4.90675e-15)
(0.11805 6.71636e-08 4.90944e-15)
(0.11805 6.58038e-08 4.91084e-15)
(0.11805 6.43401e-08 4.9059e-15)
(0.11805 6.27209e-08 4.91382e-15)
(0.11805 6.08747e-08 4.9001e-15)
(0.11805 5.86534e-08 4.89612e-15)
(0.11805 5.60565e-08 4.8889e-15)
(0.11805 5.24043e-08 4.87324e-15)
(0.11805 4.8761e-08 4.88554e-15)
(0.11805 3.82919e-08 4.90575e-15)
(0.117004 -1.22195e-07 4.85131e-15)
(0.117004 -1.6588e-07 4.50011e-15)
(0.117004 -1.9935e-07 4.47314e-15)
(0.117004 -2.22276e-07 4.574e-15)
(0.117004 -2.36226e-07 4.57555e-15)
(0.117004 -2.4303e-07 4.69037e-15)
(0.117004 -2.44244e-07 4.67583e-15)
(0.117004 -2.41095e-07 4.63365e-15)
(0.117004 -2.34617e-07 4.66382e-15)
(0.117004 -2.25669e-07 4.61676e-15)
(0.117004 -2.1495e-07 4.57906e-15)
(0.117004 -2.03009e-07 4.50898e-15)
(0.117004 -1.90283e-07 4.48539e-15)
(0.117004 -1.77127e-07 4.43841e-15)
(0.117004 -1.63853e-07 4.46603e-15)
(0.117004 -1.50684e-07 4.39265e-15)
(0.117004 -1.37845e-07 4.34021e-15)
(0.117004 -1.25405e-07 4.33509e-15)
(0.117004 -1.13612e-07 4.28025e-15)
(0.117004 -1.0247e-07 4.33888e-15)
(0.117004 -9.23664e-08 4.18308e-15)
(0.117004 -8.31348e-08 3.99548e-15)
(0.117004 -7.55691e-08 4.00483e-15)
(0.117004 -6.27582e-08 3.80252e-15)
(0.117004 -4.83727e-08 3.68001e-15)
(0.117004 -4.08422e-08 3.6351e-15)
(0.117004 -3.47825e-08 3.40951e-15)
(0.117004 -2.86549e-08 3.52101e-15)
(0.117004 -2.25389e-08 3.38066e-15)
(0.117004 -1.65469e-08 3.32394e-15)
(0.117004 -1.07625e-08 3.30602e-15)
(0.117004 -5.23276e-09 3.1222e-15)
(0.117004 2.6531e-11 3.25813e-15)
(0.117004 5.02523e-09 3.12312e-15)
(0.117004 9.7905e-09 3.09657e-15)
(0.117004 1.43565e-08 3.12755e-15)
(0.117004 1.87554e-08 2.95012e-15)
(0.117004 2.30122e-08 3.11923e-15)
(0.117004 2.71428e-08 3.01828e-15)
(0.117004 3.11539e-08 2.96402e-15)
(0.117004 3.50434e-08 3.07212e-15)
(0.117004 3.88014e-08 3.36506e-15)
(0.117004 4.24113e-08 3.5173e-15)
(0.117004 4.58538e-08 3.58022e-15)
(0.117004 4.91117e-08 3.66626e-15)
(0.117004 5.21746e-08 3.68122e-15)
(0.117004 5.50417e-08 3.86323e-15)
(0.117004 5.77212e-08 3.90895e-15)
(0.117004 6.02266e-08 3.88128e-15)
(0.117004 6.25714e-08 3.92629e-15)
(0.117004 6.47651e-08 3.9335e-15)
(0.117004 6.68103e-08 4.10242e-15)
(0.117004 6.87039e-08 4.09495e-15)
(0.117004 7.04394e-08 4.26479e-15)
(0.117004 7.20116e-08 4.25992e-15)
(0.117004 7.34199e-08 4.22016e-15)
(0.117004 7.46706e-08 4.36862e-15)
(0.117004 7.57764e-08 4.35647e-15)
(0.117004 7.67542e-08 4.50078e-15)
(0.117004 7.76214e-08 4.46463e-15)
(0.117004 7.83927e-08 4.41613e-15)
(0.117004 7.9078e-08 4.56646e-15)
(0.117004 7.96814e-08 4.52701e-15)
(0.117004 8.02033e-08 4.63256e-15)
(0.117004 8.0642e-08 4.60958e-15)
(0.117004 8.09963e-08 4.56555e-15)
(0.117004 8.12671e-08 4.7106e-15)
(0.117004 8.14574e-08 4.66727e-15)
(0.117004 8.1572e-08 4.76662e-15)
(0.117004 8.16156e-08 4.72672e-15)
(0.117004 8.15921e-08 4.6659e-15)
(0.117004 8.15035e-08 4.80263e-15)
(0.117004 8.135e-08 4.76819e-15)
(0.117004 8.11306e-08 4.86911e-15)
(0.117004 8.08439e-08 4.84164e-15)
(0.117004 8.04884e-08 4.77332e-15)
(0.117004 8.00635e-08 4.89822e-15)
(0.117004 7.95688e-08 4.83118e-15)
(0.117004 7.90048e-08 4.93879e-15)
(0.117004 7.83723e-08 4.90166e-15)
(0.117004 7.76725e-08 4.83372e-15)
(0.117004 7.69075e-08 4.79647e-15)
(0.117004 7.60798e-08 4.7797e-15)
(0.117004 7.51926e-08 4.77262e-15)
(0.117004 7.42501e-08 4.77473e-15)
(0.117004 7.32566e-08 4.77378e-15)
(0.117004 7.22165e-08 4.78114e-15)
(0.117004 7.11336e-08 4.78641e-15)
(0.117004 7.00107e-08 4.78678e-15)
(0.117004 6.88482e-08 4.79769e-15)
(0.117004 6.76431e-08 4.80304e-15)
(0.117004 6.63853e-08 4.8076e-15)
(0.117004 6.50574e-08 4.8109e-15)
(0.117004 6.36255e-08 4.80711e-15)
(0.117004 6.20378e-08 4.8084e-15)
(0.117004 6.02278e-08 4.79922e-15)
(0.117004 5.8043e-08 4.79596e-15)
(0.117004 5.5513e-08 4.79236e-15)
(0.117004 5.18721e-08 4.78134e-15)
(0.117004 4.85009e-08 4.78579e-15)
(0.117004 3.71541e-08 4.79756e-15)
(0.117004 2.33388e-08 4.80446e-15)
(0.117004 1.85637e-08 4.80655e-15)
(0.117004 1.59654e-08 4.79465e-15)
(0.117004 1.33025e-08 4.79054e-15)
(0.117004 1.07474e-08 4.78984e-15)
(0.117004 8.45076e-09 4.7874e-15)
(0.117004 6.45807e-09 4.78066e-15)
(0.117004 4.71585e-09 4.77932e-15)
(0.117004 3.10306e-09 4.78767e-15)
(0.117004 1.55162e-09 4.79414e-15)
(0.117004 -1.40058e-10 4.78692e-15)
(0.117004 -1.9578e-09 4.777e-15)
(0.117004 -4.48417e-09 4.7729e-15)
(0.117004 -7.3318e-09 4.77516e-15)
(0.117004 -1.2621e-08 4.77016e-15)
(0.117004 -1.83414e-08 4.76495e-15)
(0.117004 -3.13628e-08 4.76352e-15)
(0.117004 -4.8288e-08 4.76603e-15)
(0.117004 -7.59326e-08 4.74592e-15)
(0.115924 -1.20615e-07 4.79315e-15)
(0.115924 -1.64668e-07 4.4119e-15)
(0.115924 -1.98587e-07 4.39534e-15)
(0.115924 -2.21974e-07 4.5064e-15)
(0.115924 -2.36255e-07 4.50204e-15)
(0.115924 -2.43264e-07 4.57189e-15)
(0.115924 -2.44574e-07 4.55569e-15)
(0.115924 -2.41442e-07 4.58688e-15)
(0.115924 -2.34936e-07 4.55894e-15)
(0.115924 -2.25944e-07 4.49828e-15)
(0.115924 -2.15171e-07 4.53434e-15)
(0.115924 -2.03164e-07 4.36952e-15)
(0.115924 -1.90351e-07 4.44799e-15)
(0.115924 -1.77087e-07 4.30121e-15)
(0.115924 -1.63694e-07 4.4603e-15)
(0.115924 -1.50412e-07 4.39279e-15)
(0.115924 -1.37475e-07 4.21677e-15)
(0.115924 -1.24958e-07 4.31236e-15)
(0.115924 -1.13099e-07 4.11065e-15)
(0.115924 -1.01893e-07 4.3453e-15)
(0.115924 -9.17236e-08 4.15675e-15)
(0.115924 -8.23051e-08 3.993e-15)
(0.115924 -7.47038e-08 3.98196e-15)
(0.115924 -6.15915e-08 3.73699e-15)
(0.115924 -4.69914e-08 3.70187e-15)
(0.115924 -3.92042e-08 3.62683e-15)
(0.115924 -3.24819e-08 3.38771e-15)
(0.115924 -2.60957e-08 3.4991e-15)
(0.115923 -1.99094e-08 3.33461e-15)
(0.115923 -1.39017e-08 3.34806e-15)
(0.115923 -8.11793e-09 3.31864e-15)
(0.115923 -2.59526e-09 3.10283e-15)
(0.115923 2.65162e-09 3.24245e-15)
(0.115923 7.63137e-09 3.06477e-15)
(0.115923 1.23692e-08 3.13114e-15)
(0.115923 1.6897e-08 3.13386e-15)
(0.115923 2.12445e-08 2.93943e-15)
(0.115923 2.5435e-08 3.10648e-15)
(0.115923 2.94831e-08 2.98148e-15)
(0.115923 3.33955e-08 3.01093e-15)
(0.115923 3.7171e-08 3.08594e-15)
(0.115923 4.08012e-08 3.32279e-15)
(0.115923 4.42711e-08 3.47845e-15)
(0.115923 4.75631e-08 3.57098e-15)
(0.115923 5.06617e-08 3.62306e-15)
(0.115923 5.35585e-08 3.63702e-15)
(0.115923 5.62546e-08 3.78796e-15)
(0.115923 5.87602e-08 3.85401e-15)
(0.115923 6.10907e-08 3.86262e-15)
(0.115923 6.3262e-08 3.8802e-15)
(0.115923 6.52851e-08 3.87827e-15)
(0.115923 6.71643e-08 4.00968e-15)
(0.115923 6.88975e-08 4.03614e-15)
(0.115923 7.04791e-08 4.17914e-15)
(0.115923 7.19047e-08 4.21022e-15)
(0.115923 7.31742e-08 4.17825e-15)
(0.115923 7.4294e-08 4.29013e-15)
(0.115923 7.52773e-08 4.30165e-15)
(0.115923 7.61412e-08 4.41247e-15)
(0.115923 7.69031e-08 4.41768e-15)
(0.115923 7.7578e-08 4.37319e-15)
(0.115923 7.81753e-08 4.4837e-15)
(0.115923 7.86992e-08 4.47335e-15)
(0.115923 7.91496e-08 4.56239e-15)
(0.115923 7.95246e-08 4.56855e-15)
(0.115923 7.98225e-08 4.52591e-15)
(0.115923 8.00439e-08 4.62701e-15)
(0.115923 8.01915e-08 4.61177e-15)
(0.115923 8.02699e-08 4.69376e-15)
(0.115923 8.02836e-08 4.68401e-15)
(0.115923 8.02362e-08 4.6262e-15)
(0.115923 8.01293e-08 4.72492e-15)
(0.115923 7.99628e-08 4.71833e-15)
(0.115923 7.97356e-08 4.80008e-15)
(0.115923 7.94457e-08 4.79788e-15)
(0.115923 7.90915e-08 4.72972e-15)
(0.115923 7.8672e-08 4.80901e-15)
(0.115923 7.81867e-08 4.78047e-15)
(0.115923 7.76359e-08 4.86246e-15)
(0.115923 7.70199e-08 4.85212e-15)
(0.115923 7.634e-08 4.79417e-15)
(0.115923 7.55977e-08 4.75177e-15)
(0.115923 7.47953e-08 4.72531e-15)
(0.115923 7.39358e-08 4.70299e-15)
(0.115923 7.30231e-08 4.69121e-15)
(0.115923 7.2061e-08 4.68363e-15)
(0.115923 7.10536e-08 4.69023e-15)
(0.115923 7.00045e-08 4.69683e-15)
(0.115923 6.89161e-08 4.693e-15)
(0.115924 6.77883e-08 4.69894e-15)
(0.115924 6.66178e-08 4.70149e-15)
(0.115924 6.53945e-08 4.70741e-15)
(0.115924 6.41007e-08 4.71206e-15)
(0.115924 6.27032e-08 4.7059e-15)
(0.115924 6.11504e-08 4.70412e-15)
(0.115924 5.938e-08 4.69716e-15)
(0.115924 5.72388e-08 4.69685e-15)
(0.115924 5.47691e-08 4.6965e-15)
(0.115924 5.12171e-08 4.68569e-15)
(0.115924 4.78401e-08 4.68631e-15)
(0.115924 3.84471e-08 4.69263e-15)
(0.115924 2.5139e-08 4.70316e-15)
(0.115924 1.79938e-08 4.71077e-15)
(0.115924 1.43926e-08 4.70076e-15)
(0.115924 1.16759e-08 4.69457e-15)
(0.115924 9.30445e-09 4.692e-15)
(0.115924 7.19398e-09 4.69227e-15)
(0.115924 5.34825e-09 4.69107e-15)
(0.115924 3.7155e-09 4.68884e-15)
(0.115924 2.18093e-09 4.6932e-15)
(0.115924 6.8144e-10 4.69835e-15)
(0.115924 -9.80279e-10 4.69604e-15)
(0.115924 -2.7837e-09 4.68811e-15)
(0.115924 -5.31179e-09 4.67681e-15)
(0.115924 -8.15767e-09 4.67535e-15)
(0.115924 -1.34606e-08 4.67583e-15)
(0.115924 -1.9157e-08 4.67503e-15)
(0.115924 -3.2052e-08 4.67307e-15)
(0.115924 -4.9166e-08 4.66825e-15)
(0.115924 -7.56259e-08 4.64523e-15)
(0.114807 -1.18504e-07 4.65978e-15)
(0.114807 -1.62862e-07 4.32938e-15)
(0.114807 -1.97242e-07 4.3554e-15)
(0.114807 -2.21078e-07 4.47873e-15)
(0.114807 -2.35679e-07 4.42954e-15)
(0.114807 -2.42886e-07 4.47917e-15)
(0.114807 -2.44293e-07 4.43654e-15)
(0.114807 -2.41189e-07 4.44478e-15)
(0.114807 -2.34679e-07 4.44282e-15)
(0.114807 -2.25676e-07 4.37001e-15)
(0.114807 -2.14894e-07 4.38866e-15)
(0.114807 -2.02867e-07 4.2912e-15)
(0.114807 -1.90012e-07 4.33428e-15)
(0.114807 -1.76679e-07 4.23942e-15)
(0.114807 -1.63202e-07 4.39375e-15)
(0.114807 -1.49835e-07 4.26006e-15)
(0.114807 -1.36826e-07 4.1673e-15)
(0.114807 -1.24255e-07 4.21546e-15)
(0.114807 -1.12352e-07 4.10252e-15)
(0.114807 -1.01103e-07 4.28742e-15)
(0.114807 -9.08816e-08 4.02553e-15)
(0.114807 -8.13446e-08 3.97405e-15)
(0.114807 -7.35224e-08 3.95729e-15)
(0.114807 -6.21381e-08 3.72585e-15)
(0.114807 -4.87143e-08 3.72202e-15)
(0.114807 -3.9551e-08 3.61355e-15)
(0.114807 -3.17634e-08 3.42371e-15)
(0.114807 -2.4803e-08 3.51191e-15)
(0.114807 -1.83042e-08 3.31535e-15)
(0.114807 -1.21129e-08 3.39786e-15)
(0.114807 -6.2109e-09 3.32847e-15)
(0.114807 -6.07076e-10 3.16603e-15)
(0.114807 4.69572e-09 3.27641e-15)
(0.114807 9.71147e-09 3.06637e-15)
(0.114807 1.44679e-08 3.18986e-15)
(0.114806 1.89977e-08 3.11079e-15)
(0.114806 2.33307e-08 3.00902e-15)
(0.114806 2.74892e-08 3.14649e-15)
(0.114806 3.14875e-08 3.03442e-15)
(0.114806 3.53323e-08 3.08265e-15)
(0.114806 3.90231e-08 3.1357e-15)
(0.114806 4.25527e-08 3.33911e-15)
(0.114806 4.59077e-08 3.46418e-15)
(0.114806 4.90722e-08 3.54399e-15)
(0.114806 5.20324e-08 3.59157e-15)
(0.114806 5.47817e-08 3.60108e-15)
(0.114806 5.7323e-08 3.74895e-15)
(0.114806 5.96688e-08 3.8088e-15)
(0.114806 6.18365e-08 3.82567e-15)
(0.114806 6.38441e-08 3.83784e-15)
(0.114806 6.57044e-08 3.82929e-15)
(0.114806 6.74234e-08 3.95826e-15)
(0.114806 6.90003e-08 3.98349e-15)
(0.114806 7.04308e-08 4.12209e-15)
(0.114806 7.1711e-08 4.16092e-15)
(0.114806 7.28416e-08 4.13461e-15)
(0.114806 7.38295e-08 4.24539e-15)
(0.114806 7.46884e-08 4.24932e-15)
(0.114806 7.54354e-08 4.35539e-15)
(0.114806 7.60885e-08 4.36766e-15)
(0.114806 7.66625e-08 4.32721e-15)
(0.114806 7.7167e-08 4.43252e-15)
(0.114806 7.76062e-08 4.42141e-15)
(0.114806 7.79795e-08 4.51289e-15)
(0.114806 7.82849e-08 4.52069e-15)
(0.114806 7.85205e-08 4.4795e-15)
(0.114806 7.86866e-08 4.57527e-15)
(0.114806 7.87857e-08 4.5559e-15)
(0.114806 7.8822e-08 4.63871e-15)
(0.114806 7.87999e-08 4.6333e-15)
(0.114806 7.87227e-08 4.57875e-15)
(0.114806 7.85919e-08 4.67528e-15)
(0.114806 7.84072e-08 4.66317e-15)
(0.114807 7.81669e-08 4.7464e-15)
(0.114807 7.7869e-08 4.74468e-15)
(0.114807 7.75115e-08 4.67928e-15)
(0.114807 7.70933e-08 4.75462e-15)
(0.114807 7.66136e-08 4.72369e-15)
(0.114807 7.60723e-08 4.80191e-15)
(0.114807 7.54699e-08 4.79386e-15)
(0.114807 7.4807e-08 4.74209e-15)
(0.114807 7.4085e-08 4.70093e-15)
(0.114807 7.3306e-08 4.66759e-15)
(0.114807 7.24727e-08 4.62952e-15)
(0.114807 7.15885e-08 4.60676e-15)
(0.114807 7.0657e-08 4.59234e-15)
(0.114807 6.96821e-08 4.60031e-15)
(0.114807 6.86667e-08 4.60768e-15)
(0.114807 6.76131e-08 4.59742e-15)
(0.114807 6.65208e-08 4.60117e-15)
(0.114807 6.53862e-08 4.60099e-15)
(0.114807 6.41989e-08 4.6093e-15)
(0.114807 6.29412e-08 4.61419e-15)
(0.114807 6.15807e-08 4.60302e-15)
(0.114807 6.00662e-08 4.60054e-15)
(0.114807 5.83385e-08 4.59512e-15)
(0.114807 5.62477e-08 4.59938e-15)
(0.114807 5.38318e-08 4.6015e-15)
(0.114807 5.04352e-08 4.58736e-15)
(0.114807 4.6833e-08 4.58703e-15)
(0.114807 4.07308e-08 4.58982e-15)
(0.114807 2.99329e-08 4.60558e-15)
(0.114807 2.03248e-08 4.61698e-15)
(0.114807 1.48162e-08 4.60524e-15)
(0.114807 1.135e-08 4.59928e-15)
(0.114807 8.77964e-09 4.59566e-15)
(0.114807 6.64764e-09 4.60112e-15)
(0.114807 4.8215e-09 4.6037e-15)
(0.114807 3.2104e-09 4.59752e-15)
(0.114807 1.68898e-09 4.59928e-15)
(0.114807 1.90817e-10 4.60623e-15)
(0.114807 -1.48122e-09 4.60589e-15)
(0.114807 -3.30352e-09 4.59731e-15)
(0.114807 -5.85893e-09 4.57875e-15)
(0.114807 -8.7252e-09 4.57732e-15)
(0.114807 -1.40508e-08 4.58335e-15)
(0.114807 -1.97337e-08 4.58397e-15)
(0.114807 -3.24726e-08 4.58033e-15)
(0.114807 -4.96978e-08 4.57004e-15)
(0.114807 -7.49036e-08 4.55135e-15)
(0.113651 -1.15904e-07 4.51867e-15)
(0.113651 -1.60473e-07 4.29368e-15)
(0.113651 -1.95202e-07 4.35997e-15)
(0.113651 -2.19473e-07 4.50746e-15)
(0.113651 -2.34409e-07 4.34731e-15)
(0.113651 -2.41833e-07 4.40963e-15)
(0.113651 -2.43359e-07 4.31068e-15)
(0.113651 -2.40307e-07 4.30984e-15)
(0.113651 -2.33822e-07 4.3233e-15)
(0.113651 -2.24846e-07 4.22667e-15)
(0.113651 -2.14095e-07 4.2475e-15)
(0.113651 -2.02095e-07 4.21405e-15)
(0.113651 -1.89246e-07 4.22957e-15)
(0.113651 -1.75891e-07 4.16957e-15)
(0.113651 -1.6237e-07 4.25216e-15)
(0.113651 -1.48953e-07 4.19194e-15)
(0.113651 -1.35899e-07 4.12513e-15)
(0.113651 -1.23299e-07 4.13206e-15)
(0.113651 -1.11373e-07 4.05781e-15)
(0.113651 -1.00099e-07 4.15864e-15)
(0.113651 -8.98387e-08 4.03848e-15)
(0.113651 -8.02358e-08 3.95286e-15)
(0.113651 -7.21482e-08 3.9258e-15)
(0.113651 -6.19712e-08 3.77765e-15)
(0.113651 -5.00978e-08 3.75197e-15)
(0.113651 -4.06861e-08 3.67213e-15)
(0.113651 -3.21644e-08 3.54885e-15)
(0.113651 -2.45656e-08 3.55216e-15)
(0.113651 -1.76195e-08 3.47326e-15)
(0.113651 -1.11244e-08 3.47758e-15)
(0.113651 -5.00877e-09 3.43404e-15)
(0.113651 7.51035e-10 3.3309e-15)
(0.113651 6.16937e-09 3.35075e-15)
(0.113651 1.12696e-08 3.23979e-15)
(0.113651 1.60851e-08 3.28847e-15)
(0.113651 2.06521e-08 3.27378e-15)
(0.113651 2.50021e-08 3.18177e-15)
(0.113651 2.91583e-08 3.23189e-15)
(0.113651 3.3135e-08 3.16198e-15)
(0.113651 3.69393e-08 3.19059e-15)
(0.113651 4.05713e-08 3.20924e-15)
(0.113651 4.40249e-08 3.40888e-15)
(0.113651 4.72879e-08 3.47113e-15)
(0.113651 5.03462e-08 3.5328e-15)
(0.113651 5.31876e-08 3.57014e-15)
(0.113651 5.58071e-08 3.57368e-15)
(0.113651 5.82098e-08 3.74941e-15)
(0.113651 6.04099e-08 3.7732e-15)
(0.113651 6.24272e-08 3.79066e-15)
(0.113651 6.42814e-08 3.79889e-15)
(0.113651 6.59876e-08 3.78525e-15)
(0.113651 6.75534e-08 3.9452e-15)
(0.113651 6.89796e-08 3.93677e-15)
(0.113651 7.02629e-08 4.09878e-15)
(0.113651 7.14006e-08 4.11474e-15)
(0.113651 7.23941e-08 4.09153e-15)
(0.113651 7.32509e-08 4.23277e-15)
(0.113651 7.3985e-08 4.19831e-15)
(0.113651 7.46141e-08 4.32897e-15)
(0.113651 7.51565e-08 4.31597e-15)
(0.113651 7.56272e-08 4.27799e-15)
(0.113651 7.60359e-08 4.41343e-15)
(0.113651 7.63866e-08 4.3687e-15)
(0.113651 7.66791e-08 4.48751e-15)
(0.113651 7.69109e-08 4.46742e-15)
(0.113651 7.70799e-08 4.42684e-15)
(0.113651 7.71862e-08 4.55241e-15)
(0.113651 7.72322e-08 4.49672e-15)
(0.113651 7.7222e-08 4.60641e-15)
(0.113651 7.71596e-08 4.57606e-15)
(0.113651 7.70483e-08 4.52373e-15)
(0.113651 7.68894e-08 4.65142e-15)
(0.113651 7.66821e-08 4.60274e-15)
(0.113651 7.64248e-08 4.71298e-15)
(0.113651 7.61151e-08 4.68384e-15)
(0.113651 7.57508e-08 4.62109e-15)
(0.113651 7.53305e-08 4.72747e-15)
(0.113651 7.48534e-08 4.66053e-15)
(0.113651 7.4319e-08 4.76299e-15)
(0.113651 7.37276e-08 4.7292e-15)
(0.113651 7.30797e-08 4.67831e-15)
(0.113651 7.23764e-08 4.64288e-15)
(0.113651 7.16193e-08 4.60345e-15)
(0.113651 7.0811e-08 4.54876e-15)
(0.113651 6.99545e-08 4.51951e-15)
(0.113651 6.90532e-08 4.49872e-15)
(0.113651 6.81105e-08 4.51141e-15)
(0.113651 6.71291e-08 4.51807e-15)
(0.113651 6.61108e-08 4.4979e-15)
(0.113651 6.50548e-08 4.5043e-15)
(0.113651 6.39573e-08 4.50153e-15)
(0.113651 6.28077e-08 4.51438e-15)
(0.113651 6.15883e-08 4.51714e-15)
(0.113651 6.02672e-08 4.49769e-15)
(0.113651 5.8794e-08 4.49742e-15)
(0.113651 5.7112e-08 4.49339e-15)
(0.113651 5.50778e-08 4.50462e-15)
(0.113651 5.27122e-08 4.50733e-15)
(0.113651 4.9506e-08 4.4856e-15)
(0.113651 4.56714e-08 4.48845e-15)
(0.113651 4.17263e-08 4.48874e-15)
(0.113651 3.38834e-08 4.51247e-15)
(0.113651 2.38647e-08 4.52521e-15)
(0.113651 1.68525e-08 4.50746e-15)
(0.113651 1.2321e-08 4.50427e-15)
(0.113651 9.22258e-09 4.50103e-15)
(0.113651 6.85234e-09 4.51418e-15)
(0.113651 4.90773e-09 4.51791e-15)
(0.113651 3.22396e-09 4.50418e-15)
(0.113651 1.64677e-09 4.50545e-15)
(0.113651 9.69921e-11 4.51582e-15)
(0.113651 -1.62703e-09 4.5155e-15)
(0.113651 -3.50236e-09 4.50406e-15)
(0.113651 -6.11144e-09 4.47728e-15)
(0.113651 -9.02097e-09 4.48013e-15)
(0.113651 -1.43789e-08 4.49281e-15)
(0.113651 -2.00602e-08 4.4927e-15)
(0.113651 -3.2616e-08 4.48528e-15)
(0.113651 -4.98804e-08 4.46856e-15)
(0.113651 -7.37481e-08 4.45975e-15)
(0.112454 -1.12826e-07 4.38737e-15)
(0.112454 -1.57467e-07 4.3261e-15)
(0.112454 -1.92415e-07 4.36868e-15)
(0.112454 -2.17086e-07 4.35636e-15)
(0.112454 -2.32373e-07 4.2319e-15)
(0.112454 -2.40048e-07 4.34106e-15)
(0.112454 -2.41731e-07 4.16517e-15)
(0.112454 -2.38771e-07 4.18434e-15)
(0.112454 -2.32352e-07 4.20331e-15)
(0.112454 -2.2344e-07 4.06337e-15)
(0.112454 -2.12765e-07 4.11606e-15)
(0.112454 -2.00838e-07 4.12619e-15)
(0.112454 -1.88044e-07 4.12803e-15)
(0.112454 -1.74715e-07 4.0886e-15)
(0.112454 -1.61193e-07 4.12434e-15)
(0.112454 -1.47762e-07 4.10984e-15)
(0.112454 -1.34694e-07 4.07099e-15)
(0.112454 -1.22088e-07 4.05134e-15)
(0.112454 -1.10159e-07 3.99861e-15)
(0.112454 -9.8881e-08 4.03529e-15)
(0.112454 -8.85935e-08 3.97693e-15)
(0.112454 -7.89598e-08 3.9262e-15)
(0.112454 -7.06342e-08 3.88803e-15)
(0.112454 -6.11709e-08 3.80603e-15)
(0.112454 -5.0749e-08 3.7861e-15)
(0.112454 -4.18322e-08 3.73605e-15)
(0.112454 -3.30772e-08 3.65536e-15)
(0.112454 -2.50157e-08 3.6028e-15)
(0.112454 -1.76351e-08 3.5918e-15)
(0.112454 -1.07957e-08 3.57286e-15)
(0.112454 -4.4164e-09 3.53538e-15)
(0.112454 1.54619e-09 3.49723e-15)
(0.112454 7.12081e-09 3.44533e-15)
(0.112454 1.23403e-08 3.40004e-15)
(0.112454 1.72448e-08 3.40808e-15)
(0.112454 2.18753e-08 3.42137e-15)
(0.112454 2.62664e-08 3.36034e-15)
(0.112454 3.04431e-08 3.34034e-15)
(0.112454 3.44205e-08 3.30724e-15)
(0.112454 3.8206e-08 3.31535e-15)
(0.112454 4.18004e-08 3.30114e-15)
(0.112454 4.51984e-08 3.41912e-15)
(0.112454 4.83892e-08 3.48506e-15)
(0.112454 5.136e-08 3.53632e-15)
(0.112454 5.41001e-08 3.55705e-15)
(0.112454 5.66063e-08 3.55594e-15)
(0.112454 5.88853e-08 3.6831e-15)
(0.112454 6.09533e-08 3.73703e-15)
(0.112454 6.28322e-08 3.76224e-15)
(0.112454 6.45437e-08 3.76227e-15)
(0.112454 6.61048e-08 3.74697e-15)
(0.112454 6.75251e-08 3.86262e-15)
(0.112454 6.88068e-08 3.88728e-15)
(0.112454 6.99482e-08 4.00408e-15)
(0.112454 7.09475e-08 4.0633e-15)
(0.112454 7.18069e-08 4.05272e-15)
(0.112454 7.25348e-08 4.14492e-15)
(0.112454 7.31455e-08 4.13897e-15)
(0.112454 7.36573e-08 4.22688e-15)
(0.112454 7.40887e-08 4.25399e-15)
(0.112454 7.44552e-08 4.22846e-15)
(0.112454 7.47665e-08 4.3168e-15)
(0.112454 7.5027e-08 4.30471e-15)
(0.112454 7.52363e-08 4.38131e-15)
(0.112454 7.53918e-08 4.40228e-15)
(0.112454 7.54914e-08 4.37166e-15)
(0.112454 7.55351e-08 4.45016e-15)
(0.112454 7.55251e-08 4.42432e-15)
(0.112454 7.54652e-08 4.49229e-15)
(0.112454 7.53595e-08 4.50408e-15)
(0.112454 7.5211e-08 4.46442e-15)
(0.112454 7.50207e-08 4.54664e-15)
(0.112454 7.4788e-08 4.52829e-15)
(0.112454 7.45107e-08 4.59586e-15)
(0.112454 7.41864e-08 4.60804e-15)
(0.112454 7.38127e-08 4.55819e-15)
(0.112454 7.33881e-08 4.61829e-15)
(0.112454 7.29113e-08 4.582e-15)
(0.112454 7.2382e-08 4.64213e-15)
(0.112454 7.17999e-08 4.65039e-15)
(0.112454 7.11655e-08 4.6043e-15)
(0.112454 7.04796e-08 4.57855e-15)
(0.112454 6.97435e-08 4.52959e-15)
(0.112454 6.89595e-08 4.45658e-15)
(0.112454 6.81303e-08 4.42883e-15)
(0.112454 6.7259e-08 4.40161e-15)
(0.112454 6.63486e-08 4.42416e-15)
(0.112454 6.54016e-08 4.42602e-15)
(0.112454 6.44192e-08 4.39189e-15)
(0.112454 6.34005e-08 4.4089e-15)
(0.112454 6.23414e-08 4.40295e-15)
(0.112454 6.1231e-08 4.42432e-15)
(0.112454 6.00518e-08 4.4197e-15)
(0.112454 5.87726e-08 4.3883e-15)
(0.112454 5.73437e-08 4.39563e-15)
(0.112454 5.57102e-08 4.39207e-15)
(0.112454 5.37377e-08 4.41445e-15)
(0.112454 5.14227e-08 4.41303e-15)
(0.112454 4.84156e-08 4.37863e-15)
(0.112454 4.44325e-08 4.39231e-15)
(0.112454 4.17254e-08 4.38922e-15)
(0.112454 3.65173e-08 4.42512e-15)
(0.112454 2.74174e-08 4.43456e-15)
(0.112454 1.97434e-08 4.40591e-15)
(0.112454 1.42806e-08 4.41027e-15)
(0.112454 1.05199e-08 4.40785e-15)
(0.112454 7.75711e-09 4.43151e-15)
(0.112454 5.57669e-09 4.4323e-15)
(0.112454 3.73543e-09 4.40685e-15)
(0.112454 2.03949e-09 4.41261e-15)
(0.112454 3.89494e-10 4.42698e-15)
(0.112454 -1.42482e-09 4.42427e-15)
(0.112454 -3.38466e-09 4.40763e-15)
(0.112454 -6.0716e-09 4.37088e-15)
(0.112454 -9.04569e-09 4.38453e-15)
(0.112454 -1.44444e-08 4.40434e-15)
(0.112454 -2.01359e-08 4.40083e-15)
(0.112454 -3.2483e-08 4.38715e-15)
(0.112454 -4.97202e-08 4.36251e-15)
(0.112454 -7.21917e-08 4.36911e-15)
(0.111212 -1.0925e-07 4.25694e-15)
(0.111212 -1.53832e-07 4.23914e-15)
(0.111212 -1.88864e-07 4.28712e-15)
(0.111212 -2.13879e-07 4.18678e-15)
(0.111212 -2.29525e-07 4.07914e-15)
(0.111212 -2.3749e-07 4.195e-15)
(0.111212 -2.39381e-07 4.08629e-15)
(0.111212 -2.36564e-07 4.0812e-15)
(0.111212 -2.30258e-07 4.08253e-15)
(0.111212 -2.21457e-07 3.98655e-15)
(0.111212 -2.10901e-07 4.00734e-15)
(0.111212 -1.99094e-07 4.02139e-15)
(0.111212 -1.86403e-07 4.02615e-15)
(0.111212 -1.73148e-07 4.02143e-15)
(0.111212 -1.59669e-07 4.00279e-15)
(0.111212 -1.46262e-07 4.02208e-15)
(0.111212 -1.3321e-07 4.02671e-15)
(0.111212 -1.20622e-07 3.96575e-15)
(0.111212 -1.0871e-07 3.91226e-15)
(0.111212 -9.74439e-08 3.92226e-15)
(0.111212 -8.71432e-08 3.91211e-15)
(0.111212 -7.75015e-08 3.89829e-15)
(0.111212 -6.89933e-08 3.84222e-15)
(0.111212 -5.99388e-08 3.83451e-15)
(0.111212 -5.06738e-08 3.82327e-15)
(0.111212 -4.25415e-08 3.80286e-15)
(0.111212 -3.39878e-08 3.73774e-15)
(0.111212 -2.57537e-08 3.64993e-15)
(0.111212 -1.80718e-08 3.67677e-15)
(0.111212 -1.09322e-08 3.67482e-15)
(0.111212 -4.29411e-09 3.67828e-15)
(0.111212 1.88142e-09 3.67995e-15)
(0.111212 7.6275e-09 3.54118e-15)
(0.111212 1.29825e-08 3.58643e-15)
(0.111212 1.79916e-08 3.54011e-15)
(0.111212 2.27003e-08 3.53478e-15)
(0.111212 2.7147e-08 3.57851e-15)
(0.111212 3.13587e-08 3.44941e-15)
(0.111212 3.53516e-08 3.48306e-15)
(0.111212 3.91337e-08 3.45354e-15)
(0.111212 4.27062e-08 3.39917e-15)
(0.111212 4.60643e-08 3.46494e-15)
(0.111212 4.91985e-08 3.51242e-15)
(0.111212 5.2097e-08 3.5517e-15)
(0.111212 5.47507e-08 3.54867e-15)
(0.111212 5.71577e-08 3.54562e-15)
(0.111212 5.93265e-08 3.65079e-15)
(0.111212 6.1275e-08 3.71054e-15)
(0.111212 6.30268e-08 3.74007e-15)
(0.111212 6.46058e-08 3.7254e-15)
(0.111212 6.60309e-08 3.71246e-15)
(0.111212 6.73136e-08 3.81394e-15)
(0.111212 6.84578e-08 3.84435e-15)
(0.111212 6.94631e-08 3.93967e-15)
(0.111212 7.03291e-08 4.01557e-15)
(0.111212 7.10587e-08 4.01527e-15)
(0.111212 7.1661e-08 4.08148e-15)
(0.111212 7.2151e-08 4.07913e-15)
(0.111212 7.25474e-08 4.1511e-15)
(0.111212 7.28691e-08 4.19209e-15)
(0.111212 7.31318e-08 4.17604e-15)
(0.111212 7.33458e-08 4.24094e-15)
(0.111212 7.35155e-08 4.23666e-15)
(0.111212 7.36407e-08 4.29647e-15)
(0.111212 7.37188e-08 4.3439e-15)
(0.111212 7.37478e-08 4.31289e-15)
(0.111212 7.37274e-08 4.37013e-15)
(0.111212 7.36597e-08 4.34698e-15)
(0.111212 7.35484e-08 4.3991e-15)
(0.111212 7.33975e-08 4.42856e-15)
(0.111212 7.32099e-08 4.39864e-15)
(0.111212 7.29865e-08 4.46321e-15)
(0.111212 7.27264e-08 4.4485e-15)
(0.111212 7.24274e-08 4.49705e-15)
(0.111212 7.20868e-08 4.5336e-15)
(0.111212 7.17021e-08 4.48865e-15)
(0.111212 7.12715e-08 4.52724e-15)
(0.111212 7.07938e-08 4.49645e-15)
(0.111212 7.02682e-08 4.54287e-15)
(0.111212 6.96946e-08 4.56788e-15)
(0.111212 6.90728e-08 4.51823e-15)
(0.111212 6.84036e-08 4.51241e-15)
(0.111212 6.7688e-08 4.44178e-15)
(0.111212 6.69281e-08 4.3486e-15)
(0.111212 6.61261e-08 4.33878e-15)
(0.111212 6.52848e-08 4.29977e-15)
(0.111212 6.44071e-08 4.34315e-15)
(0.111212 6.34949e-08 4.3278e-15)
(0.111212 6.25493e-08 4.2764e-15)
(0.111212 6.15689e-08 4.31421e-15)
(0.111212 6.05493e-08 4.30415e-15)
(0.111212 5.94799e-08 4.3441e-15)
(0.111212 5.83428e-08 4.31877e-15)
(0.111212 5.71075e-08 4.27276e-15)
(0.111212 5.57258e-08 4.30118e-15)
(0.111212 5.41434e-08 4.29088e-15)
(0.111212 5.22369e-08 4.33491e-15)
(0.111212 4.99755e-08 4.31623e-15)
(0.111212 4.71602e-08 4.26383e-15)
(0.111212 4.31335e-08 4.30378e-15)
(0.111212 4.10922e-08 4.29081e-15)
(0.111212 3.7918e-08 4.34354e-15)
(0.111212 3.03063e-08 4.34216e-15)
(0.111212 2.27674e-08 4.29829e-15)
(0.111212 1.67735e-08 4.31843e-15)
(0.111212 1.24272e-08 4.31598e-15)
(0.111212 9.22498e-09 4.35197e-15)
(0.111212 6.74095e-09 4.34356e-15)
(0.111212 4.68279e-09 4.30266e-15)
(0.111212 2.82042e-09 4.32719e-15)
(0.111212 1.03203e-09 4.34005e-15)
(0.111212 -9.03197e-10 4.33103e-15)
(0.111212 -2.97306e-09 4.30675e-15)
(0.111212 -5.7574e-09 4.25819e-15)
(0.111212 -8.81364e-09 4.29654e-15)
(0.111212 -1.4259e-08 4.31754e-15)
(0.111212 -1.99711e-08 4.30685e-15)
(0.111212 -3.20831e-08 4.28455e-15)
(0.111212 -4.92348e-08 4.25099e-15)
(0.111212 -7.02388e-08 4.2777e-15)
(0.109922 -1.05148e-07 4.17616e-15)
(0.109922 -1.49552e-07 4.15645e-15)
(0.109922 -1.84546e-07 4.17674e-15)
(0.109922 -2.0984e-07 4.11918e-15)
(0.109922 -2.25844e-07 4.02914e-15)
(0.109922 -2.34137e-07 4.02954e-15)
(0.109922 -2.36291e-07 3.98599e-15)
(0.109922 -2.33678e-07 3.98655e-15)
(0.109921 -2.27542e-07 3.97246e-15)
(0.109921 -2.18902e-07 3.89414e-15)
(0.109921 -2.0851e-07 3.91169e-15)
(0.109921 -1.96867e-07 3.92092e-15)
(0.109921 -1.84325e-07 3.91879e-15)
(0.109921 -1.71189e-07 3.88964e-15)
(0.109921 -1.57796e-07 3.83009e-15)
(0.109921 -1.4445e-07 3.93875e-15)
(0.109921 -1.31443e-07 3.91676e-15)
(0.109921 -1.18897e-07 3.87074e-15)
(0.109921 -1.0702e-07 3.81606e-15)
(0.109921 -9.57827e-08 3.75119e-15)
(0.109921 -8.54832e-08 3.79608e-15)
(0.109921 -7.5849e-08 3.81298e-15)
(0.109921 -6.72177e-08 3.78524e-15)
(0.109921 -5.83893e-08 3.80869e-15)
(0.109921 -4.99565e-08 3.8018e-15)
(0.109921 -4.26319e-08 3.80762e-15)
(0.109921 -3.45586e-08 3.82785e-15)
(0.109921 -2.64388e-08 3.68284e-15)
(0.109921 -1.86501e-08 3.74294e-15)
(0.109921 -1.13198e-08 3.71046e-15)
(0.109921 -4.47952e-09 3.70576e-15)
(0.109921 1.88111e-09 3.80406e-15)
(0.109921 7.78585e-09 3.61548e-15)
(0.109921 1.32714e-08 3.69504e-15)
(0.109921 1.83845e-08 3.61392e-15)
(0.109921 2.31734e-08 3.66876e-15)
(0.109921 2.76792e-08 3.65896e-15)
(0.109921 3.1931e-08 3.54458e-15)
(0.109921 3.59463e-08 3.6019e-15)
(0.109921 3.97331e-08 3.53637e-15)