/*--------------------------------*- C++ -*----------------------------------*\
  =========                 |
  \\      /  F ield         | OpenFOAM: The Open Source CFD Toolbox
   \\    /   O peration     | Website:  https://openfoam.org
    \\  /    A nd           | Version:  7
     \\/     M anipulation  |
\*---------------------------------------------------------------------------*/
FoamFile
{
    version     2.0;
    format      ascii;
    class       volScalarField;
    location    "1000";
    object      k;
}
// * * * * * * * * * * * * * * * * * * * * * * * * * * * * * * * * * * * * * //

dimensions      [0 2 -2 0 0 0 0];

internalField   nonuniform List<scalar> 
3974
(
0.000116105
0.000116104
0.000116104
0.000116102
0.000116101
0.000116099
0.000116097
0.000116096
0.000116094
0.000116093
0.000116091
0.00011609
0.000116088
0.000116086
0.000116085
0.000116083
0.000116082
0.00011608
0.000116079
0.000116077
0.000116075
0.000116074
0.000116072
0.00011607
0.000116068
0.000116067
0.000116065
0.000116063
0.000116061
0.000116059
0.000116057
0.000116055
0.000116053
0.000116052
0.00011605
0.000116048
0.000116046
0.000116045
0.000112487
0.000112489
0.000112506
0.000112514
0.000112517
0.000112518
0.000112518
0.000112518
0.000112517
0.000112516
0.000112516
0.000112515
0.000112514
0.000112512
0.000112511
0.00011251
0.000112509
0.000112508
0.000112506
0.000112505
0.000112503
0.000112502
0.000112501
0.000112499
0.000112498
0.000112496
0.000112494
0.000112493
0.000112491
0.000112489
0.000112488
0.000112486
0.000112484
0.000112482
0.00011248
0.000112479
0.000112477
0.000112475
0.000112473
0.000112474
0.000112442
0.000112432
0.000108843
0.000108843
0.000108862
0.000108871
0.000108882
0.000108891
0.000108897
0.0001089
0.000108903
0.000108904
0.000108905
0.000108905
0.000108905
0.000108905
0.000108904
0.000108904
0.000108903
0.000108902
0.000108902
0.000108901
0.0001089
0.000108899
0.000108898
0.000108896
0.000108895
0.000108894
0.000108893
0.000108891
0.00010889
0.000108888
0.000108887
0.000108885
0.000108884
0.000108882
0.000108881
0.000108879
0.000108877
0.000108876
0.000108874
0.000108872
0.00010887
0.000108871
0.000108856
0.000108847
0.000108809
0.000108796
0.000108794
0.000108795
0.000108796
0.000108797
0.000108798
0.0001088
0.000108801
0.000108802
0.000108803
0.000108804
0.000108806
0.000108806
0.000108812
0.000105223
0.000105221
0.000105231
0.000105241
0.000105251
0.00010526
0.000105268
0.000105274
0.000105277
0.00010528
0.000105282
0.000105284
0.000105285
0.000105285
0.000105286
0.000105286
0.000105286
0.000105286
0.000105285
0.000105285
0.000105284
0.000105283
0.000105283
0.000105282
0.000105281
0.00010528
0.000105279
0.000105278
0.000105277
0.000105275
0.000105274
0.000105273
0.000105271
0.00010527
0.000105269
0.000105267
0.000105266
0.000105264
0.000105263
0.000105261
0.000105259
0.000105259
0.000105252
0.000105245
0.000105225
0.000105209
0.0001052
0.000105197
0.000105195
0.000105195
0.000105195
0.000105195
0.000105195
0.000105196
0.000105196
0.000105197
0.000105198
0.000105198
0.000105205
0.000101614
0.000101609
0.000101616
0.000101624
0.000101633
0.000101642
0.00010165
0.000101657
0.000101662
0.000101666
0.000101669
0.000101671
0.000101673
0.000101675
0.000101676
0.000101677
0.000101677
0.000101678
0.000101678
0.000101678
0.000101678
0.000101677
0.000101677
0.000101677
0.000101676
0.000101675
0.000101674
0.000101674
0.000101673
0.000101672
0.000101671
0.00010167
0.000101669
0.000101667
0.000101666
0.000101665
0.000101664
0.000101662
0.000101661
0.00010166
0.000101658
0.000101657
0.000101654
0.000101649
0.000101637
0.000101624
0.000101614
0.000101608
0.000101604
0.000101601
0.0001016
0.000101599
0.000101598
0.000101598
0.000101598
0.000101598
0.000101599
0.000101598
0.000101605
9.80345e-05
9.80286e-05
9.80323e-05
9.80388e-05
9.80464e-05
9.80542e-05
9.80618e-05
9.80686e-05
9.80745e-05
9.80793e-05
9.80833e-05
9.80865e-05
9.80893e-05
9.80915e-05
9.80933e-05
9.80948e-05
9.8096e-05
9.80969e-05
9.80976e-05
9.80981e-05
9.80984e-05
9.80985e-05
9.80985e-05
9.80984e-05
9.80982e-05
9.80978e-05
9.80974e-05
9.80969e-05
9.80963e-05
9.80956e-05
9.80948e-05
9.8094e-05
9.80931e-05
9.80922e-05
9.80912e-05
9.80902e-05
9.80891e-05
9.80879e-05
9.80868e-05
9.80856e-05
9.80842e-05
9.80834e-05
9.80813e-05
9.80783e-05
9.80715e-05
9.80622e-05
9.80532e-05
9.80459e-05
9.80407e-05
9.80369e-05
9.80342e-05
9.80322e-05
9.80308e-05
9.80297e-05
9.80291e-05
9.80286e-05
9.80286e-05
9.80272e-05
9.80348e-05
9.4502e-05
9.44951e-05
9.44971e-05
9.4502e-05
9.45081e-05
9.45147e-05
9.45215e-05
9.4528e-05
9.45339e-05
9.4539e-05
9.45435e-05
9.45473e-05
9.45507e-05
9.45535e-05
9.45559e-05
9.4558e-05
9.45597e-05
9.45611e-05
9.45623e-05
9.45632e-05
9.4564e-05
9.45645e-05
9.4565e-05
9.45652e-05
9.45653e-05
9.45653e-05
9.45652e-05
9.4565e-05
9.45647e-05
9.45643e-05
9.45638e-05
9.45633e-05
9.45627e-05
9.4562e-05
9.45612e-05
9.45604e-05
9.45596e-05
9.45587e-05
9.45577e-05
9.45568e-05
9.45556e-05
9.45548e-05
9.45534e-05
9.45515e-05
9.45475e-05
9.45414e-05
9.45344e-05
9.45278e-05
9.45222e-05
9.45178e-05
9.45144e-05
9.45117e-05
9.45095e-05
9.45079e-05
9.45066e-05
9.45056e-05
9.45052e-05
9.45033e-05
9.45108e-05
9.10331e-05
9.10256e-05
9.10266e-05
9.10302e-05
9.1035e-05
9.10405e-05
9.10463e-05
9.10521e-05
9.10576e-05
9.10627e-05
9.10674e-05
9.10715e-05
9.10751e-05
9.10784e-05
9.10812e-05
9.10837e-05
9.10859e-05
9.10878e-05
9.10894e-05
9.10907e-05
9.10919e-05
9.10928e-05
9.10936e-05
9.10942e-05
9.10947e-05
9.1095e-05
9.10952e-05
9.10953e-05
9.10953e-05
9.10952e-05
9.1095e-05
9.10947e-05
9.10944e-05
9.1094e-05
9.10935e-05
9.10929e-05
9.10923e-05
9.10916e-05
9.10909e-05
9.10901e-05
9.10893e-05
9.10885e-05
9.10875e-05
9.10863e-05
9.10839e-05
9.10801e-05
9.10751e-05
9.10698e-05
9.10647e-05
9.10603e-05
9.10566e-05
9.10536e-05
9.1051e-05
9.10489e-05
9.10472e-05
9.10458e-05
9.1045e-05
9.10426e-05
9.10499e-05
8.76441e-05
8.76363e-05
8.76367e-05
8.76395e-05
8.76433e-05
8.76477e-05
8.76526e-05
8.76576e-05
8.76626e-05
8.76673e-05
8.76718e-05
8.7676e-05
8.76798e-05
8.76832e-05
8.76863e-05
8.76891e-05
8.76916e-05
8.76938e-05
8.76957e-05
8.76974e-05
8.76989e-05
8.77002e-05
8.77013e-05
8.77022e-05
8.7703e-05
8.77037e-05
8.77042e-05
8.77046e-05
8.77048e-05
8.7705e-05
8.77051e-05
8.77051e-05
8.7705e-05
8.77048e-05
8.77046e-05
8.77042e-05
8.77039e-05
8.77034e-05
8.77029e-05
8.77024e-05
8.77018e-05
8.77012e-05
8.77005e-05
8.76996e-05
8.76982e-05
8.76958e-05
8.76925e-05
8.76886e-05
8.76845e-05
8.76806e-05
8.76771e-05
8.7674e-05
8.76713e-05
8.7669e-05
8.7667e-05
8.76653e-05
8.76643e-05
8.76616e-05
8.76685e-05
8.4351e-05
8.43431e-05
8.43432e-05
8.43455e-05
8.43485e-05
8.43521e-05
8.43561e-05
8.43603e-05
8.43647e-05
8.4369e-05
8.43731e-05
8.43771e-05
8.43808e-05
8.43842e-05
8.43875e-05
8.43904e-05
8.43931e-05
8.43955e-05
8.43977e-05
8.43996e-05
8.44013e-05
8.44029e-05
8.44043e-05
8.44055e-05
8.44065e-05
8.44075e-05
8.44082e-05
8.44089e-05
8.44094e-05
8.44098e-05
8.44102e-05
8.44104e-05
8.44105e-05
8.44106e-05
8.44106e-05
8.44105e-05
8.44104e-05
8.44101e-05
8.44099e-05
8.44095e-05
8.44092e-05
8.44087e-05
8.44083e-05
8.44077e-05
8.44069e-05
8.44055e-05
8.44034e-05
8.44007e-05
8.43976e-05
8.43944e-05
8.43914e-05
8.43885e-05
8.43859e-05
8.43836e-05
8.43816e-05
8.43798e-05
8.43786e-05
8.43757e-05
8.43824e-05
8.11689e-05
8.11611e-05
8.11611e-05
8.11629e-05
8.11655e-05
8.11685e-05
8.11717e-05
8.11753e-05
8.1179e-05
8.11827e-05
8.11864e-05
8.119e-05
8.11935e-05
8.11969e-05
8.12e-05
8.1203e-05
8.12057e-05
8.12083e-05
8.12106e-05
8.12127e-05
8.12146e-05
8.12163e-05
8.12179e-05
8.12193e-05
8.12206e-05
8.12217e-05
8.12227e-05
8.12236e-05
8.12243e-05
8.1225e-05
8.12255e-05
8.1226e-05
8.12264e-05
8.12266e-05
8.12269e-05
8.1227e-05
8.1227e-05
8.1227e-05
8.1227e-05
8.12269e-05
8.12267e-05
8.12265e-05
8.12262e-05
8.12259e-05
8.12254e-05
8.12246e-05
8.12234e-05
8.12216e-05
8.12195e-05
8.12171e-05
8.12147e-05
8.12123e-05
8.121e-05
8.12078e-05
8.12059e-05
8.12041e-05
8.12029e-05
8.11999e-05
8.12063e-05
7.8112e-05
7.81043e-05
7.81042e-05
7.81059e-05
7.81081e-05
7.81106e-05
7.81133e-05
7.81163e-05
7.81194e-05
7.81226e-05
7.81258e-05
7.81291e-05
7.81323e-05
7.81354e-05
7.81384e-05
7.81412e-05
7.81439e-05
7.81464e-05
7.81488e-05
7.81509e-05
7.81529e-05
7.81548e-05
7.81565e-05
7.8158e-05
7.81595e-05
7.81608e-05
7.81619e-05
7.8163e-05
7.81639e-05
7.81648e-05
7.81655e-05
7.81661e-05
7.81667e-05
7.81672e-05
7.81676e-05
7.81679e-05
7.81682e-05
7.81683e-05
7.81685e-05
7.81686e-05
7.81686e-05
7.81685e-05
7.81685e-05
7.81683e-05
7.81681e-05
7.81677e-05
7.81671e-05
7.8166e-05
7.81647e-05
7.8163e-05
7.81612e-05
7.81593e-05
7.81574e-05
7.81556e-05
7.81539e-05
7.81523e-05
7.81511e-05
7.81482e-05
7.81544e-05
7.51933e-05
7.51857e-05
7.51855e-05
7.5187e-05
7.5189e-05
7.51912e-05
7.51936e-05
7.51961e-05
7.51987e-05
7.52014e-05
7.52042e-05
7.5207e-05
7.52098e-05
7.52126e-05
7.52154e-05
7.5218e-05
7.52206e-05
7.5223e-05
7.52253e-05
7.52275e-05
7.52295e-05
7.52314e-05
7.52331e-05
7.52348e-05
7.52363e-05
7.52377e-05
7.5239e-05
7.52401e-05
7.52412e-05
7.52422e-05
7.52431e-05
7.52439e-05
7.52446e-05
7.52452e-05
7.52458e-05
7.52463e-05
7.52467e-05
7.52471e-05
7.52474e-05
7.52476e-05
7.52478e-05
7.5248e-05
7.52481e-05
7.52481e-05
7.52481e-05
7.5248e-05
7.52477e-05
7.52472e-05
7.52464e-05
7.52454e-05
7.52442e-05
7.52428e-05
7.52414e-05
7.52399e-05
7.52385e-05
7.52371e-05
7.52361e-05
7.52334e-05
7.52394e-05
7.24241e-05
7.24167e-05
7.24165e-05
7.24179e-05
7.24197e-05
7.24216e-05
7.24237e-05
7.24258e-05
7.24281e-05
7.24304e-05
7.24327e-05
7.24352e-05
7.24376e-05
7.24401e-05
7.24426e-05
7.2445e-05
7.24474e-05
7.24496e-05
7.24518e-05
7.24538e-05
7.24558e-05
7.24577e-05
7.24594e-05
7.24611e-05
7.24626e-05
7.24641e-05
7.24654e-05
7.24667e-05
7.24678e-05
7.24689e-05
7.24699e-05
7.24708e-05
7.24716e-05
7.24724e-05
7.24731e-05
7.24737e-05
7.24743e-05
7.24748e-05
7.24753e-05
7.24757e-05
7.2476e-05
7.24763e-05
7.24765e-05
7.24768e-05
7.24769e-05
7.2477e-05
7.2477e-05
7.24769e-05
7.24765e-05
7.2476e-05
7.24752e-05
7.24744e-05
7.24734e-05
7.24723e-05
7.24712e-05
7.24701e-05
7.24693e-05
7.24668e-05
7.24727e-05
6.98142e-05
6.98071e-05
6.98069e-05
6.98082e-05
6.98098e-05
6.98116e-05
6.98134e-05
6.98153e-05
6.98172e-05
6.98192e-05
6.98212e-05
6.98232e-05
6.98254e-05
6.98275e-05
6.98297e-05
6.98318e-05
6.9834e-05
6.9836e-05
6.9838e-05
6.984e-05
6.98418e-05
6.98436e-05
6.98453e-05
6.98469e-05
6.98484e-05
6.98498e-05
6.98512e-05
6.98525e-05
6.98537e-05
6.98548e-05
6.98559e-05
6.98569e-05
6.98578e-05
6.98586e-05
6.98594e-05
6.98602e-05
6.98609e-05
6.98615e-05
6.9862e-05
6.98626e-05
6.9863e-05
6.98635e-05
6.98638e-05
6.98642e-05
6.98645e-05
6.98648e-05
6.9865e-05
6.98651e-05
6.9865e-05
6.98649e-05
6.98645e-05
6.9864e-05
6.98634e-05
6.98627e-05
6.9862e-05
6.98611e-05
6.98606e-05
6.98584e-05
6.98641e-05
6.73716e-05
6.73648e-05
6.73646e-05
6.73658e-05
6.73673e-05
6.73689e-05
6.73706e-05
6.73722e-05
6.73739e-05
6.73756e-05
6.73773e-05
6.7379e-05
6.73808e-05
6.73827e-05
6.73846e-05
6.73864e-05
6.73883e-05
6.73902e-05
6.7392e-05
6.73937e-05
6.73954e-05
6.73971e-05
6.73986e-05
6.74002e-05
6.74016e-05
6.7403e-05
6.74044e-05
6.74057e-05
6.74069e-05
6.7408e-05
6.74091e-05
6.74101e-05
6.74111e-05
6.7412e-05
6.74128e-05
6.74136e-05
6.74144e-05
6.74151e-05
6.74158e-05
6.74164e-05
6.7417e-05
6.74175e-05
6.7418e-05
6.74184e-05
6.74189e-05
6.74193e-05
6.74196e-05
6.74199e-05
6.74201e-05
6.74202e-05
6.74201e-05
6.742e-05
6.74197e-05
6.74193e-05
6.74189e-05
6.74183e-05
6.7418e-05
6.74161e-05
6.74216e-05
6.51022e-05
6.50958e-05
6.50955e-05
6.50966e-05
6.50981e-05
6.50995e-05
6.5101e-05
6.51025e-05
6.51039e-05
6.51054e-05
6.51068e-05
6.51083e-05
6.51098e-05
6.51114e-05
6.5113e-05
6.51146e-05
6.51163e-05
6.51179e-05
6.51195e-05
6.5121e-05
6.51226e-05
6.5124e-05
6.51255e-05
6.51269e-05
6.51283e-05
6.51296e-05
6.51309e-05
6.51321e-05
6.51333e-05
6.51344e-05
6.51355e-05
6.51365e-05
6.51375e-05
6.51384e-05
6.51393e-05
6.51401e-05
6.51409e-05
6.51417e-05
6.51424e-05
6.51431e-05
6.51438e-05
6.51444e-05
6.51449e-05
6.51455e-05
6.5146e-05
6.51465e-05
6.5147e-05
6.51474e-05
6.51477e-05
6.5148e-05
6.51482e-05
6.51483e-05
6.51483e-05
6.51481e-05
6.5148e-05
6.51476e-05
6.51475e-05
6.51459e-05
6.51513e-05
6.30097e-05
6.30037e-05
6.30034e-05
6.30044e-05
6.30057e-05
6.3007e-05
6.30084e-05
6.30097e-05
6.3011e-05
6.30122e-05
6.30135e-05
6.30147e-05
6.3016e-05
6.30173e-05
6.30187e-05
6.30201e-05
6.30215e-05
6.30229e-05
6.30243e-05
6.30256e-05
6.30269e-05
6.30283e-05
6.30296e-05
6.30308e-05
6.30321e-05
6.30333e-05
6.30345e-05
6.30356e-05
6.30367e-05
6.30378e-05
6.30388e-05
6.30398e-05
6.30408e-05
6.30417e-05
6.30426e-05
6.30435e-05
6.30443e-05
6.30451e-05
6.30458e-05
6.30466e-05
6.30473e-05
6.30479e-05
6.30486e-05
6.30492e-05
6.30498e-05
6.30504e-05
6.30509e-05
6.30514e-05
6.30519e-05
6.30523e-05
6.30526e-05
6.30529e-05
6.30531e-05
6.30532e-05
6.30532e-05
6.30531e-05
6.30532e-05
6.30519e-05
6.3057e-05
6.10957e-05
6.109e-05
6.10897e-05
6.10907e-05
6.10918e-05
6.1093e-05
6.10942e-05
6.10954e-05
6.10965e-05
6.10976e-05
6.10987e-05
6.10997e-05
6.11008e-05
6.11019e-05
6.1103e-05
6.11042e-05
6.11054e-05
6.11066e-05
6.11077e-05
6.11089e-05
6.111e-05
6.11112e-05
6.11123e-05
6.11135e-05
6.11146e-05
6.11157e-05
6.11167e-05
6.11178e-05
6.11188e-05
6.11198e-05
6.11208e-05
6.11217e-05
6.11226e-05
6.11235e-05
6.11244e-05
6.11252e-05
6.11261e-05
6.11269e-05
6.11276e-05
6.11284e-05
6.11291e-05
6.11298e-05
6.11305e-05
6.11311e-05
6.11318e-05
6.11324e-05
6.1133e-05
6.11336e-05
6.11341e-05
6.11346e-05
6.11351e-05
6.11355e-05
6.11358e-05
6.11361e-05
6.11363e-05
6.11363e-05
6.11366e-05
6.11355e-05
6.11403e-05
5.93593e-05
5.93541e-05
5.93538e-05
5.93546e-05
5.93557e-05
5.93567e-05
5.93578e-05
5.93588e-05
5.93598e-05
5.93607e-05
5.93616e-05
5.93625e-05
5.93634e-05
5.93643e-05
5.93653e-05
5.93662e-05
5.93672e-05
5.93682e-05
5.93692e-05
5.93702e-05
5.93711e-05
5.93721e-05
5.93731e-05
5.93741e-05
5.9375e-05
5.9376e-05
5.93769e-05
5.93779e-05
5.93788e-05
5.93797e-05
5.93806e-05
5.93815e-05
5.93823e-05
5.93832e-05
5.9384e-05
5.93848e-05
5.93856e-05
5.93864e-05
5.93872e-05
5.93879e-05
5.93887e-05
5.93894e-05
5.93901e-05
5.93907e-05
5.93914e-05
5.93921e-05
5.93927e-05
5.93933e-05
5.93939e-05
5.93945e-05
5.9395e-05
5.93955e-05
5.93959e-05
5.93963e-05
5.93966e-05
5.93968e-05
5.93972e-05
5.93964e-05
5.94008e-05
5.77978e-05
5.7793e-05
5.77928e-05
5.77935e-05
5.77944e-05
5.77953e-05
5.77962e-05
5.77971e-05
5.77979e-05
5.77987e-05
5.77995e-05
5.78003e-05
5.7801e-05
5.78018e-05
5.78025e-05
5.78033e-05
5.78041e-05
5.78049e-05
5.78057e-05
5.78065e-05
5.78073e-05
5.78082e-05
5.7809e-05
5.78098e-05
5.78106e-05
5.78114e-05
5.78123e-05
5.78131e-05
5.78139e-05
5.78147e-05
5.78155e-05
5.78163e-05
5.78171e-05
5.78179e-05
5.78187e-05
5.78194e-05
5.78202e-05
5.7821e-05
5.78217e-05
5.78224e-05
5.78232e-05
5.78239e-05
5.78246e-05
5.78252e-05
5.78259e-05
5.78266e-05
5.78273e-05
5.78279e-05
5.78285e-05
5.78291e-05
5.78297e-05
5.78302e-05
5.78307e-05
5.78312e-05
5.78316e-05
5.78319e-05
5.78323e-05
5.78317e-05
5.78358e-05
5.64064e-05
5.64021e-05
5.64018e-05
5.64024e-05
5.64032e-05
5.6404e-05
5.64048e-05
5.64055e-05
5.64062e-05
5.64069e-05
5.64075e-05
5.64081e-05
5.64088e-05
5.64094e-05
5.641e-05
5.64106e-05
5.64113e-05
5.64119e-05
5.64126e-05
5.64132e-05
5.64139e-05
5.64145e-05
5.64152e-05
5.64159e-05
5.64166e-05
5.64172e-05
5.64179e-05
5.64186e-05
5.64194e-05
5.64201e-05
5.64208e-05
5.64215e-05
5.64222e-05
5.64229e-05
5.64236e-05
5.64243e-05
5.64251e-05
5.64258e-05
5.64265e-05
5.64272e-05
5.64279e-05
5.64286e-05
5.64293e-05
5.64299e-05
5.64306e-05
5.64313e-05
5.64319e-05
5.64326e-05
5.64332e-05
5.64338e-05
5.64344e-05
5.6435e-05
5.64355e-05
5.6436e-05
5.64365e-05
5.64368e-05
5.64373e-05
5.64369e-05
5.64406e-05
5.51785e-05
5.51747e-05
5.51744e-05
5.51749e-05
5.51756e-05
5.51763e-05
5.51769e-05
5.51775e-05
5.51781e-05
5.51786e-05
5.51792e-05
5.51796e-05
5.51801e-05
5.51806e-05
5.51811e-05
5.51816e-05
5.51821e-05
5.51826e-05
5.51831e-05
5.51836e-05
5.51841e-05
5.51846e-05
5.51852e-05
5.51857e-05
5.51863e-05
5.51868e-05
5.51874e-05
5.5188e-05
5.51886e-05
5.51892e-05
5.51898e-05
5.51905e-05
5.51911e-05
5.51917e-05
5.51924e-05
5.5193e-05
5.51937e-05
5.51944e-05
5.5195e-05
5.51957e-05
5.51963e-05
5.5197e-05
5.51977e-05
5.51983e-05
5.5199e-05
5.51996e-05
5.52003e-05
5.52009e-05
5.52016e-05
5.52022e-05
5.52028e-05
5.52034e-05
5.52039e-05
5.52044e-05
5.52049e-05
5.52053e-05
5.52058e-05
5.52055e-05
5.52088e-05
5.41062e-05
5.41029e-05
5.41026e-05
5.4103e-05
5.41035e-05
5.41041e-05
5.41046e-05
5.41051e-05
5.41056e-05
5.4106e-05
5.41064e-05
5.41067e-05
5.41071e-05
5.41074e-05
5.41078e-05
5.41082e-05
5.41086e-05
5.41089e-05
5.41093e-05
5.41097e-05
5.41101e-05
5.41105e-05
5.41109e-05
5.41113e-05
5.41118e-05
5.41122e-05
5.41127e-05
5.41132e-05
5.41137e-05
5.41142e-05
5.41147e-05
5.41153e-05
5.41158e-05
5.41164e-05
5.4117e-05
5.41175e-05
5.41181e-05
5.41187e-05
5.41194e-05
5.412e-05
5.41206e-05
5.41212e-05
5.41219e-05
5.41225e-05
5.41231e-05
5.41238e-05
5.41244e-05
5.4125e-05
5.41256e-05
5.41262e-05
5.41268e-05
5.41274e-05
5.41279e-05
5.41285e-05
5.4129e-05
5.41294e-05
5.41299e-05
5.41297e-05
5.41326e-05
5.31803e-05
5.31775e-05
5.31772e-05
5.31775e-05
5.31779e-05
5.31783e-05
5.31787e-05
5.31791e-05
5.31794e-05
5.31797e-05
5.318e-05
5.31803e-05
5.31805e-05
5.31808e-05
5.3181e-05
5.31813e-05
5.31816e-05
5.31818e-05
5.31821e-05
5.31824e-05
5.31826e-05
5.31829e-05
5.31832e-05
5.31835e-05
5.31839e-05
5.31842e-05
5.31846e-05
5.3185e-05
5.31854e-05
5.31858e-05
5.31863e-05
5.31867e-05
5.31872e-05
5.31877e-05
5.31882e-05
5.31887e-05
5.31893e-05
5.31898e-05
5.31904e-05
5.31909e-05
5.31915e-05
5.31921e-05
5.31927e-05
5.31933e-05
5.31939e-05
5.31945e-05
5.31951e-05
5.31957e-05
5.31963e-05
5.31969e-05
5.31974e-05
5.3198e-05
5.31985e-05
5.3199e-05
5.31995e-05
5.32e-05
5.32005e-05
5.32004e-05
5.32028e-05
5.23909e-05
5.23885e-05
5.23882e-05
5.23884e-05
5.23887e-05
5.2389e-05
5.23893e-05
5.23895e-05
5.23898e-05
5.239e-05
5.23901e-05
5.23903e-05
5.23904e-05
5.23906e-05
5.23907e-05
5.23909e-05
5.23911e-05
5.23912e-05
5.23914e-05
5.23916e-05
5.23917e-05
5.23919e-05
5.23921e-05
5.23924e-05
5.23926e-05
5.23929e-05
5.23931e-05
5.23935e-05
5.23938e-05
5.23941e-05
5.23945e-05
5.23949e-05
5.23953e-05
5.23957e-05
5.23961e-05
5.23966e-05
5.23971e-05
5.23976e-05
5.23981e-05
5.23986e-05
5.23991e-05
5.23997e-05
5.24002e-05
5.24008e-05
5.24013e-05
5.24019e-05
5.24025e-05
5.2403e-05
5.24036e-05
5.24042e-05
5.24047e-05
5.24052e-05
5.24058e-05
5.24062e-05
5.24067e-05
5.24071e-05
5.24076e-05
5.24076e-05
5.24096e-05
5.17273e-05
5.17254e-05
5.17251e-05
5.17252e-05
5.17254e-05
5.17256e-05
5.17258e-05
5.17259e-05
5.1726e-05
5.17261e-05
5.17262e-05
5.17263e-05
5.17263e-05
5.17264e-05
5.17264e-05
5.17265e-05
5.17266e-05
5.17266e-05
5.17267e-05
5.17268e-05
5.17269e-05
5.1727e-05
5.17271e-05
5.17273e-05
5.17274e-05
5.17276e-05
5.17278e-05
5.1728e-05
5.17283e-05
5.17285e-05
5.17288e-05
5.17291e-05
5.17295e-05
5.17298e-05
5.17302e-05
5.17306e-05
5.17311e-05
5.17315e-05
5.17319e-05
5.17324e-05
5.17329e-05
5.17334e-05
5.17339e-05
5.17344e-05
5.1735e-05
5.17355e-05
5.1736e-05
5.17365e-05
5.17371e-05
5.17376e-05
5.17381e-05
5.17386e-05
5.17391e-05
5.17396e-05
5.174e-05
5.17404e-05
5.17408e-05
5.17409e-05
5.17425e-05
5.1179e-05
5.11774e-05
5.11772e-05
5.11772e-05
5.11773e-05
5.11774e-05
5.11774e-05
5.11775e-05
5.11775e-05
5.11775e-05
5.11775e-05
5.11775e-05
5.11774e-05
5.11774e-05
5.11774e-05
5.11774e-05
5.11773e-05
5.11773e-05
5.11773e-05
5.11773e-05
5.11773e-05
5.11774e-05
5.11774e-05
5.11775e-05
5.11776e-05
5.11777e-05
5.11778e-05
5.1178e-05
5.11782e-05
5.11784e-05
5.11786e-05
5.11788e-05
5.11791e-05
5.11794e-05
5.11797e-05
5.11801e-05
5.11805e-05
5.11809e-05
5.11813e-05
5.11817e-05
5.11821e-05
5.11826e-05
5.1183e-05
5.11835e-05
5.1184e-05
5.11845e-05
5.1185e-05
5.11855e-05
5.1186e-05
5.11865e-05
5.11869e-05
5.11874e-05
5.11879e-05
5.11883e-05
5.11887e-05
5.11891e-05
5.11895e-05
5.11896e-05
5.11908e-05
5.07351e-05
5.07339e-05
5.07337e-05
5.07337e-05
5.07337e-05
5.07336e-05
5.07336e-05
5.07335e-05
5.07335e-05
5.07334e-05
5.07333e-05
5.07332e-05
5.0733e-05
5.07329e-05
5.07328e-05
5.07327e-05
5.07327e-05
5.07326e-05
5.07325e-05
5.07324e-05
5.07324e-05
5.07323e-05
5.07323e-05
5.07323e-05
5.07324e-05
5.07324e-05
5.07325e-05
5.07326e-05
5.07327e-05
5.07328e-05
5.0733e-05
5.07332e-05
5.07334e-05
5.07337e-05
5.07339e-05
5.07342e-05
5.07346e-05
5.07349e-05
5.07353e-05
5.07357e-05
5.0736e-05
5.07365e-05
5.07369e-05
5.07373e-05
5.07378e-05
5.07382e-05
5.07387e-05
5.07391e-05
5.07396e-05
5.074e-05
5.07405e-05
5.07409e-05
5.07413e-05
5.07417e-05
5.07421e-05
5.07425e-05
5.07428e-05
5.0743e-05
5.07438e-05
5.03852e-05
5.03844e-05
5.03842e-05
5.03841e-05
5.0384e-05
5.03839e-05
5.03837e-05
5.03836e-05
5.03834e-05
5.03833e-05
5.03831e-05
5.03829e-05
5.03827e-05
5.03825e-05
5.03823e-05
5.03822e-05
5.0382e-05
5.03819e-05
5.03817e-05
5.03816e-05
5.03815e-05
5.03814e-05
5.03813e-05
5.03813e-05
5.03812e-05
5.03812e-05
5.03813e-05
5.03813e-05
5.03814e-05
5.03815e-05
5.03816e-05
5.03817e-05
5.03819e-05
5.03821e-05
5.03823e-05
5.03826e-05
5.03829e-05
5.03832e-05
5.03835e-05
5.03838e-05
5.03842e-05
5.03846e-05
5.03849e-05
5.03853e-05
5.03857e-05
5.03862e-05
5.03866e-05
5.0387e-05
5.03874e-05
5.03878e-05
5.03882e-05
5.03886e-05
5.0389e-05
5.03894e-05
5.03897e-05
5.039e-05
5.03903e-05
5.03905e-05
5.03911e-05
5.01192e-05
5.01187e-05
5.01185e-05
5.01184e-05
5.01182e-05
5.0118e-05
5.01178e-05
5.01175e-05
5.01173e-05
5.01171e-05
5.01168e-05
5.01165e-05
5.01163e-05
5.0116e-05
5.01158e-05
5.01156e-05
5.01154e-05
5.01152e-05
5.0115e-05
5.01148e-05
5.01146e-05
5.01145e-05
5.01143e-05
5.01142e-05
5.01142e-05
5.01141e-05
5.01141e-05
5.01141e-05
5.01141e-05
5.01141e-05
5.01142e-05
5.01143e-05
5.01145e-05
5.01146e-05
5.01148e-05
5.0115e-05
5.01153e-05
5.01155e-05
5.01158e-05
5.01161e-05
5.01164e-05
5.01168e-05
5.01171e-05
5.01175e-05
5.01178e-05
5.01182e-05
5.01186e-05
5.0119e-05
5.01193e-05
5.01197e-05
5.01201e-05
5.01204e-05
5.01208e-05
5.01211e-05
5.01214e-05
5.01217e-05
5.01219e-05
5.01221e-05
5.01224e-05
4.99275e-05
4.99274e-05
4.99272e-05
4.9927e-05
4.99267e-05
4.99264e-05
4.99262e-05
4.99259e-05
4.99256e-05
4.99252e-05
4.99249e-05
4.99246e-05
4.99243e-05
4.9924e-05
4.99237e-05
4.99234e-05
4.99231e-05
4.99229e-05
4.99226e-05
4.99224e-05
4.99222e-05
4.9922e-05
4.99218e-05
4.99217e-05
4.99215e-05
4.99214e-05
4.99214e-05
4.99213e-05
4.99213e-05
4.99213e-05
4.99214e-05
4.99214e-05
4.99215e-05
4.99217e-05
4.99218e-05
4.9922e-05
4.99222e-05
4.99224e-05
4.99227e-05
4.99229e-05
4.99232e-05
4.99235e-05
4.99238e-05
4.99241e-05
4.99245e-05
4.99248e-05
4.99251e-05
4.99255e-05
4.99258e-05
4.99262e-05
4.99265e-05
4.99268e-05
4.99271e-05
4.99274e-05
4.99276e-05
4.99279e-05
4.99281e-05
4.99283e-05
4.99284e-05
4.98012e-05
4.98015e-05
4.98013e-05
4.9801e-05
4.98007e-05
4.98003e-05
4.98e-05
4.97996e-05
4.97992e-05
4.97988e-05
4.97985e-05
4.97981e-05
4.97977e-05
4.97974e-05
4.9797e-05
4.97967e-05
4.97963e-05
4.9796e-05
4.97957e-05
4.97955e-05
4.97952e-05
4.9795e-05
4.97948e-05
4.97946e-05
4.97944e-05
4.97943e-05
4.97942e-05
4.97941e-05
4.9794e-05
4.9794e-05
4.9794e-05
4.97941e-05
4.97941e-05
4.97942e-05
4.97943e-05
4.97945e-05
4.97947e-05
4.97948e-05
4.97951e-05
4.97953e-05
4.97955e-05
4.97958e-05
4.97961e-05
4.97964e-05
4.97967e-05
4.9797e-05
4.97973e-05
4.97976e-05
4.97979e-05
4.97982e-05
4.97985e-05
4.97987e-05
4.9799e-05
4.97993e-05
4.97995e-05
4.97997e-05
4.97999e-05
4.98e-05
4.97999e-05
4.97321e-05
4.97326e-05
4.97324e-05
4.97321e-05
4.97317e-05
4.97313e-05
4.97309e-05
4.97304e-05
4.973e-05
4.97296e-05
4.97291e-05
4.97287e-05
4.97283e-05
4.97279e-05
4.97275e-05
4.97271e-05
4.97267e-05
4.97264e-05
4.97261e-05
4.97257e-05
4.97254e-05
4.97252e-05
4.97249e-05
4.97247e-05
4.97245e-05
4.97243e-05
4.97242e-05
4.97241e-05
4.9724e-05
4.97239e-05
4.97239e-05
4.97239e-05
4.9724e-05
4.9724e-05
4.97241e-05
4.97242e-05
4.97244e-05
4.97245e-05
4.97247e-05
4.97249e-05
4.97251e-05
4.97254e-05
4.97256e-05
4.97259e-05
4.97261e-05
4.97264e-05
4.97267e-05
4.97269e-05
4.97272e-05
4.97275e-05
4.97277e-05
4.9728e-05
4.97282e-05
4.97284e-05
4.97286e-05
4.97288e-05
4.97289e-05
4.97291e-05
4.97287e-05
4.97124e-05
4.97132e-05
4.9713e-05
4.97127e-05
4.97122e-05
4.97117e-05
4.97113e-05
4.97108e-05
4.97103e-05
4.97098e-05
4.97093e-05
4.97089e-05
4.97084e-05
4.97079e-05
4.97075e-05
4.97071e-05
4.97067e-05
4.97063e-05
4.97059e-05
4.97056e-05
4.97052e-05
4.97049e-05
4.97046e-05
4.97044e-05
4.97042e-05
4.9704e-05
4.97038e-05
4.97037e-05
4.97036e-05
4.97035e-05
4.97034e-05
4.97034e-05
4.97034e-05
4.97034e-05
4.97035e-05
4.97036e-05
4.97037e-05
4.97038e-05
4.9704e-05
4.97042e-05
4.97043e-05
4.97046e-05
4.97048e-05
4.9705e-05
4.97052e-05
4.97055e-05
4.97057e-05
4.97059e-05
4.97062e-05
4.97064e-05
4.97066e-05
4.97068e-05
4.9707e-05
4.97072e-05
4.97073e-05
4.97075e-05
4.97076e-05
4.97077e-05
4.97072e-05
4.97353e-05
4.97364e-05
4.97362e-05
4.97358e-05
4.97353e-05
4.97348e-05
4.97342e-05
4.97337e-05
4.97332e-05
4.97327e-05
4.97321e-05
4.97316e-05
4.97311e-05
4.97306e-05
4.97301e-05
4.97297e-05
4.97292e-05
4.97288e-05
4.97284e-05
4.9728e-05
4.97276e-05
4.97273e-05
4.9727e-05
4.97267e-05
4.97265e-05
4.97262e-05
4.9726e-05
4.97259e-05
4.97257e-05
4.97256e-05
4.97255e-05
4.97255e-05
4.97255e-05
4.97255e-05
4.97255e-05
4.97256e-05
4.97257e-05
4.97258e-05
4.97259e-05
4.97261e-05
4.97262e-05
4.97264e-05
4.97266e-05
4.97268e-05
4.9727e-05
4.97272e-05
4.97274e-05
4.97276e-05
4.97278e-05
4.9728e-05
4.97282e-05
4.97283e-05
4.97285e-05
4.97286e-05
4.97287e-05
4.97288e-05
4.97289e-05
4.9729e-05
4.97284e-05
4.97945e-05
4.97957e-05
4.97956e-05
4.97951e-05
4.97946e-05
4.9794e-05
4.97935e-05
4.97929e-05
4.97923e-05
4.97917e-05
4.97912e-05
4.97906e-05
4.97901e-05
4.97895e-05
4.9789e-05
4.97885e-05
4.97881e-05
4.97876e-05
4.97872e-05
4.97867e-05
4.97864e-05
4.9786e-05
4.97856e-05
4.97853e-05
4.97851e-05
4.97848e-05
4.97846e-05
4.97844e-05
4.97842e-05
4.97841e-05
4.9784e-05
4.97839e-05
4.97839e-05
4.97839e-05
4.97839e-05
4.97839e-05
4.9784e-05
4.97841e-05
4.97842e-05
4.97843e-05
4.97844e-05
4.97846e-05
4.97847e-05
4.97849e-05
4.97851e-05
4.97852e-05
4.97854e-05
4.97856e-05
4.97858e-05
4.97859e-05
4.97861e-05
4.97862e-05
4.97863e-05
4.97864e-05
4.97865e-05
4.97866e-05
4.97866e-05
4.97867e-05
4.9786e-05
4.98842e-05
4.98857e-05
4.98856e-05
4.98851e-05
4.98845e-05
4.98839e-05
4.98833e-05
4.98826e-05
4.9882e-05
4.98814e-05
4.98808e-05
4.98802e-05
4.98797e-05
4.98791e-05
4.98785e-05
4.9878e-05
4.98775e-05
4.9877e-05
4.98766e-05
4.98761e-05
4.98757e-05
4.98753e-05
4.98749e-05
4.98746e-05
4.98743e-05
4.9874e-05
4.98738e-05
4.98736e-05
4.98734e-05
4.98732e-05
4.98731e-05
4.9873e-05
4.9873e-05
4.98729e-05
4.98729e-05
4.98729e-05
4.9873e-05
4.9873e-05
4.98731e-05
4.98732e-05
4.98733e-05
4.98734e-05
4.98735e-05
4.98737e-05
4.98738e-05
4.9874e-05
4.98741e-05
4.98743e-05
4.98744e-05
4.98745e-05
4.98747e-05
4.98748e-05
4.98748e-05
4.98749e-05
4.9875e-05
4.9875e-05
4.9875e-05
4.98751e-05
4.98743e-05
4.99994e-05
5.00011e-05
5.0001e-05
5.00004e-05
4.99998e-05
4.99992e-05
4.99985e-05
4.99979e-05
4.99972e-05
4.99966e-05
4.9996e-05
4.99953e-05
4.99947e-05
4.99941e-05
4.99936e-05
4.9993e-05
4.99925e-05
4.9992e-05
4.99915e-05
4.9991e-05
4.99906e-05
4.99901e-05
4.99898e-05
4.99894e-05
4.99891e-05
4.99888e-05
4.99885e-05
4.99883e-05
4.99881e-05
4.99879e-05
4.99877e-05
4.99876e-05
4.99875e-05
4.99875e-05
4.99874e-05
4.99874e-05
4.99875e-05
4.99875e-05
4.99875e-05
4.99876e-05
4.99877e-05
4.99878e-05
4.99879e-05
4.9988e-05
4.99881e-05
4.99882e-05
4.99884e-05
4.99885e-05
4.99886e-05
4.99887e-05
4.99888e-05
4.99888e-05
4.99889e-05
4.99889e-05
4.9989e-05
4.9989e-05
4.99889e-05
4.9989e-05
4.99882e-05
5.01356e-05
5.01374e-05
5.01373e-05
5.01367e-05
5.01361e-05
5.01354e-05
5.01347e-05
5.01341e-05
5.01334e-05
5.01327e-05
5.0132e-05
5.01314e-05
5.01308e-05
5.01301e-05
5.01295e-05
5.01289e-05
5.01284e-05
5.01278e-05
5.01273e-05
5.01268e-05
5.01264e-05
5.01259e-05
5.01255e-05
5.01251e-05
5.01248e-05
5.01245e-05
5.01242e-05
5.01239e-05
5.01237e-05
5.01235e-05
5.01233e-05
5.01232e-05
5.01231e-05
5.0123e-05
5.0123e-05
5.01229e-05
5.01229e-05
5.01229e-05
5.0123e-05
5.0123e-05
5.01231e-05
5.01231e-05
5.01232e-05
5.01233e-05
5.01234e-05
5.01235e-05
5.01236e-05
5.01237e-05
5.01237e-05
5.01238e-05
5.01239e-05
5.01239e-05
5.01239e-05
5.0124e-05
5.01239e-05
5.01239e-05
5.01239e-05
5.01239e-05
5.01231e-05
5.02886e-05
5.02906e-05
5.02905e-05
5.02899e-05
5.02892e-05
5.02885e-05
5.02878e-05
5.02871e-05
5.02864e-05
5.02857e-05
5.0285e-05
5.02843e-05
5.02836e-05
5.0283e-05
5.02824e-05
5.02818e-05
5.02812e-05
5.02806e-05
5.02801e-05
5.02796e-05
5.02791e-05
5.02786e-05
5.02782e-05
5.02778e-05
5.02774e-05
5.02771e-05
5.02768e-05
5.02765e-05
5.02762e-05
5.0276e-05
5.02758e-05
5.02757e-05
5.02755e-05
5.02754e-05
5.02754e-05
5.02753e-05
5.02753e-05
5.02753e-05
5.02753e-05
5.02753e-05
5.02753e-05
5.02754e-05
5.02754e-05
5.02755e-05
5.02755e-05
5.02756e-05
5.02757e-05
5.02757e-05
5.02758e-05
5.02758e-05
5.02759e-05
5.02759e-05
5.02759e-05
5.02759e-05
5.02758e-05
5.02758e-05
5.02757e-05
5.02757e-05
5.02749e-05
5.04548e-05
5.0457e-05
5.04569e-05
5.04563e-05
5.04556e-05
5.04548e-05
5.04541e-05
5.04533e-05
5.04526e-05
5.04519e-05
5.04512e-05
5.04505e-05
5.04498e-05
5.04491e-05
5.04485e-05
5.04478e-05
5.04472e-05
5.04466e-05
5.04461e-05
5.04455e-05
5.0445e-05
5.04445e-05
5.04441e-05
5.04437e-05
5.04433e-05
5.04429e-05
5.04426e-05
5.04423e-05
5.0442e-05
5.04418e-05
5.04416e-05
5.04414e-05
5.04412e-05
5.04411e-05
5.0441e-05
5.04409e-05
5.04409e-05
5.04408e-05
5.04408e-05
5.04408e-05
5.04408e-05
5.04408e-05
5.04409e-05
5.04409e-05
5.0441e-05
5.0441e-05
5.0441e-05
5.04411e-05
5.04411e-05
5.04411e-05
5.04411e-05
5.04411e-05
5.04411e-05
5.0441e-05
5.0441e-05
5.04409e-05
5.04408e-05
5.04407e-05
5.044e-05
5.06311e-05
5.06333e-05
5.06333e-05
5.06326e-05
5.06319e-05
5.06312e-05
5.06304e-05
5.06296e-05
5.06289e-05
5.06281e-05
5.06274e-05
5.06267e-05
5.0626e-05
5.06253e-05
5.06246e-05
5.06239e-05
5.06233e-05
5.06227e-05
5.06221e-05
5.06216e-05
5.0621e-05
5.06205e-05
5.06201e-05
5.06196e-05
5.06192e-05