/*--------------------------------*- C++ -*----------------------------------*\
  =========                 |
  \\      /  F ield         | OpenFOAM: The Open Source CFD Toolbox
   \\    /   O peration     | Website:  https://openfoam.org
    \\  /    A nd           | Version:  7
     \\/     M anipulation  |
\*---------------------------------------------------------------------------*/
FoamFile
{
    version     2.0;
    format      ascii;
    class       volScalarField;
    location    "1000";
    object      nut;
}
// * * * * * * * * * * * * * * * * * * * * * * * * * * * * * * * * * * * * * //

dimensions      [0 2 -1 0 0 0 0];

internalField   nonuniform List<scalar> 
3974
(
0.000183333
0.000183326
0.000183321
0.000183316
0.000183311
0.000183307
0.000183303
0.000183299
0.000183295
0.000183292
0.000183288
0.000183285
0.000183282
0.000183279
0.000183276
0.000183273
0.00018327
0.000183267
0.000183264
0.000183262
0.000183259
0.000183256
0.000183253
0.000183251
0.000183248
0.000183246
0.000183243
0.000183241
0.000183238
0.000183236
0.000183233
0.000183231
0.000183229
0.000183227
0.000183224
0.000183222
0.00018322
0.000183218
0.000190421
0.000190419
0.000190418
0.000190414
0.000190409
0.000190404
0.0001904
0.000190395
0.000190391
0.000190387
0.000190383
0.000190379
0.000190376
0.000190372
0.000190369
0.000190366
0.000190362
0.000190359
0.000190356
0.000190353
0.00019035
0.000190347
0.000190344
0.000190341
0.000190338
0.000190335
0.000190332
0.00019033
0.000190327
0.000190324
0.000190322
0.000190319
0.000190316
0.000190314
0.000190312
0.000190309
0.000190307
0.000190305
0.000190302
0.0001903
0.000190292
0.00019029
0.000197601
0.000197606
0.000197607
0.000197607
0.000197605
0.000197603
0.0001976
0.000197596
0.000197592
0.000197588
0.000197583
0.000197579
0.000197576
0.000197572
0.000197568
0.000197564
0.000197561
0.000197557
0.000197554
0.00019755
0.000197547
0.000197544
0.00019754
0.000197537
0.000197534
0.000197531
0.000197528
0.000197525
0.000197522
0.000197519
0.000197516
0.000197513
0.00019751
0.000197507
0.000197505
0.000197502
0.0001975
0.000197497
0.000197495
0.000197492
0.00019749
0.000197488
0.000197483
0.000197479
0.000197477
0.00019748
0.000197484
0.000197489
0.000197493
0.000197496
0.000197499
0.000197502
0.000197504
0.000197506
0.000197507
0.000197508
0.000197509
0.00019751
0.00019751
0.000204925
0.000204929
0.000204932
0.000204932
0.000204933
0.000204932
0.00020493
0.000204927
0.000204924
0.00020492
0.000204916
0.000204913
0.000204909
0.000204905
0.000204901
0.000204897
0.000204894
0.00020489
0.000204886
0.000204883
0.000204879
0.000204876
0.000204872
0.000204869
0.000204866
0.000204862
0.000204859
0.000204856
0.000204853
0.00020485
0.000204846
0.000204843
0.00020484
0.000204838
0.000204835
0.000204832
0.000204829
0.000204827
0.000204824
0.000204821
0.000204819
0.000204817
0.000204813
0.000204809
0.000204806
0.000204806
0.000204808
0.00020481
0.000204813
0.000204816
0.000204818
0.00020482
0.000204822
0.000204824
0.000204825
0.000204826
0.000204827
0.000204828
0.000204827
0.000212429
0.000212434
0.000212437
0.000212439
0.00021244
0.00021244
0.000212439
0.000212437
0.000212435
0.000212432
0.000212429
0.000212425
0.000212421
0.000212418
0.000212414
0.00021241
0.000212407
0.000212403
0.000212399
0.000212395
0.000212392
0.000212388
0.000212385
0.000212381
0.000212377
0.000212374
0.000212371
0.000212367
0.000212364
0.000212361
0.000212357
0.000212354
0.000212351
0.000212348
0.000212345
0.000212342
0.000212339
0.000212336
0.000212334
0.000212331
0.000212328
0.000212326
0.000212323
0.000212319
0.000212315
0.000212313
0.000212312
0.000212313
0.000212314
0.000212316
0.000212317
0.000212319
0.00021232
0.000212321
0.000212322
0.000212323
0.000212323
0.000212325
0.000212322
0.00022016
0.000220165
0.000220168
0.00022017
0.000220171
0.000220172
0.000220172
0.000220171
0.000220169
0.000220167
0.000220164
0.000220161
0.000220158
0.000220154
0.000220151
0.000220147
0.000220143
0.00022014
0.000220136
0.000220132
0.000220128
0.000220124
0.000220121
0.000220117
0.000220113
0.00022011
0.000220106
0.000220102
0.000220099
0.000220095
0.000220092
0.000220089
0.000220085
0.000220082
0.000220079
0.000220076
0.000220073
0.00022007
0.000220067
0.000220065
0.000220062
0.000220059
0.000220056
0.000220053
0.000220049
0.000220045
0.000220043
0.000220042
0.000220042
0.000220043
0.000220043
0.000220044
0.000220045
0.000220045
0.000220046
0.000220046
0.000220046
0.000220047
0.000220043
0.000228166
0.000228173
0.000228176
0.000228177
0.000228178
0.000228179
0.000228179
0.000228179
0.000228178
0.000228176
0.000228173
0.00022817
0.000228167
0.000228164
0.000228161
0.000228157
0.000228153
0.000228149
0.000228146
0.000228142
0.000228138
0.000228134
0.00022813
0.000228126
0.000228122
0.000228118
0.000228115
0.000228111
0.000228107
0.000228104
0.0002281
0.000228097
0.000228093
0.00022809
0.000228086
0.000228083
0.00022808
0.000228077
0.000228074
0.000228071
0.000228069
0.000228066
0.000228063
0.00022806
0.000228056
0.000228052
0.000228049
0.000228047
0.000228046
0.000228045
0.000228044
0.000228044
0.000228044
0.000228044
0.000228044
0.000228044
0.000228043
0.000228044
0.000228038
0.000236504
0.000236513
0.000236515
0.000236516
0.000236517
0.000236517
0.000236517
0.000236517
0.000236516
0.000236514
0.000236512
0.000236509
0.000236506
0.000236503
0.0002365
0.000236496
0.000236492
0.000236488
0.000236484
0.00023648
0.000236476
0.000236472
0.000236468
0.000236464
0.00023646
0.000236456
0.000236452
0.000236448
0.000236445
0.000236441
0.000236437
0.000236433
0.00023643
0.000236426
0.000236423
0.00023642
0.000236416
0.000236413
0.00023641
0.000236407
0.000236404
0.000236401
0.000236399
0.000236396
0.000236392
0.000236388
0.000236385
0.000236382
0.00023638
0.000236378
0.000236377
0.000236376
0.000236375
0.000236374
0.000236373
0.000236373
0.000236371
0.000236373
0.000236363
0.000245235
0.000245247
0.000245249
0.00024525
0.00024525
0.000245249
0.000245249
0.000245248
0.000245247
0.000245245
0.000245243
0.00024524
0.000245237
0.000245234
0.00024523
0.000245227
0.000245223
0.000245219
0.000245215
0.000245211
0.000245207
0.000245202
0.000245198
0.000245194
0.00024519
0.000245185
0.000245181
0.000245177
0.000245173
0.000245169
0.000245165
0.000245161
0.000245158
0.000245154
0.00024515
0.000245147
0.000245144
0.00024514
0.000245137
0.000245134
0.000245131
0.000245128
0.000245125
0.000245122
0.000245119
0.000245116
0.000245112
0.000245109
0.000245106
0.000245103
0.000245101
0.0002451
0.000245098
0.000245097
0.000245095
0.000245094
0.000245092
0.000245093
0.000245081
0.00025443
0.000254445
0.000254448
0.000254447
0.000254446
0.000254445
0.000254444
0.000254442
0.000254441
0.000254439
0.000254436
0.000254433
0.00025443
0.000254427
0.000254423
0.000254419
0.000254415
0.000254411
0.000254407
0.000254402
0.000254398
0.000254393
0.000254389
0.000254384
0.00025438
0.000254376
0.000254371
0.000254367
0.000254363
0.000254358
0.000254354
0.00025435
0.000254346
0.000254342
0.000254339
0.000254335
0.000254332
0.000254328
0.000254325
0.000254322
0.000254319
0.000254316
0.000254313
0.00025431
0.000254307
0.000254304
0.0002543
0.000254297
0.000254293
0.00025429
0.000254288
0.000254285
0.000254283
0.000254281
0.000254279
0.000254278
0.000254275
0.000254276
0.00025426
0.000264166
0.000264185
0.000264187
0.000264186
0.000264184
0.000264182
0.00026418
0.000264177
0.000264175
0.000264172
0.000264169
0.000264166
0.000264162
0.000264159
0.000264155
0.00026415
0.000264146
0.000264142
0.000264137
0.000264132
0.000264128
0.000264123
0.000264118
0.000264113
0.000264108
0.000264104
0.000264099
0.000264094
0.00026409
0.000264085
0.000264081
0.000264077
0.000264073
0.000264069
0.000264065
0.000264061
0.000264057
0.000264054
0.00026405
0.000264047
0.000264044
0.000264041
0.000264038
0.000264035
0.000264032
0.000264029
0.000264025
0.000264022
0.000264019
0.000264015
0.000264012
0.000264009
0.000264007
0.000264004
0.000264002
0.000264
0.000263997
0.000263998
0.000263978
0.000274527
0.00027455
0.000274552
0.000274551
0.000274548
0.000274544
0.000274541
0.000274538
0.000274535
0.000274531
0.000274527
0.000274523
0.000274519
0.000274515
0.00027451
0.000274506
0.000274501
0.000274496
0.000274491
0.000274486
0.00027448
0.000274475
0.00027447
0.000274465
0.00027446
0.000274455
0.00027445
0.000274445
0.00027444
0.000274435
0.00027443
0.000274426
0.000274421
0.000274417
0.000274413
0.000274409
0.000274405
0.000274401
0.000274398
0.000274394
0.000274391
0.000274388
0.000274385
0.000274382
0.000274379
0.000274376
0.000274373
0.000274369
0.000274366
0.000274363
0.000274359
0.000274356
0.000274353
0.00027435
0.000274347
0.000274345
0.000274341
0.000274343
0.000274319
0.000285606
0.000285633
0.000285636
0.000285634
0.00028563
0.000285625
0.000285621
0.000285616
0.000285612
0.000285607
0.000285603
0.000285598
0.000285593
0.000285587
0.000285582
0.000285577
0.000285572
0.000285566
0.000285561
0.000285555
0.000285549
0.000285543
0.000285538
0.000285532
0.000285526
0.000285521
0.000285516
0.00028551
0.000285505
0.0002855
0.000285495
0.00028549
0.000285485
0.000285481
0.000285476
0.000285472
0.000285468
0.000285464
0.00028546
0.000285456
0.000285453
0.00028545
0.000285447
0.000285444
0.000285441
0.000285438
0.000285434
0.000285431
0.000285428
0.000285425
0.000285421
0.000285418
0.000285415
0.000285411
0.000285408
0.000285405
0.000285401
0.000285403
0.000285374
0.000297503
0.000297535
0.000297539
0.000297535
0.00029753
0.000297525
0.000297519
0.000297513
0.000297508
0.000297502
0.000297496
0.00029749
0.000297484
0.000297478
0.000297472
0.000297466
0.000297459
0.000297453
0.000297447
0.00029744
0.000297434
0.000297428
0.000297421
0.000297415
0.000297409
0.000297403
0.000297397
0.000297391
0.000297386
0.00029738
0.000297375
0.000297369
0.000297364
0.000297359
0.000297355
0.00029735
0.000297346
0.000297341
0.000297337
0.000297334
0.00029733
0.000297327
0.000297323
0.00029732
0.000297317
0.000297314
0.000297311
0.000297308
0.000297305
0.000297301
0.000297298
0.000297294
0.000297291
0.000297287
0.000297284
0.000297281
0.000297276
0.000297278
0.000297245
0.000310325
0.000310363
0.000310367
0.000310363
0.000310356
0.000310349
0.000310342
0.000310335
0.000310328
0.000310321
0.000310314
0.000310307
0.0003103
0.000310292
0.000310285
0.000310278
0.000310271
0.000310264
0.000310257
0.00031025
0.000310242
0.000310235
0.000310228
0.000310221
0.000310215
0.000310208
0.000310201
0.000310195
0.000310189
0.000310183
0.000310177
0.000310171
0.000310166
0.00031016
0.000310155
0.000310151
0.000310146
0.000310141
0.000310137
0.000310133
0.000310129
0.000310126
0.000310122
0.000310119
0.000310116
0.000310113
0.00031011
0.000310106
0.000310103
0.0003101
0.000310096
0.000310093
0.000310089
0.000310086
0.000310082
0.000310078
0.000310073
0.000310076
0.000310037
0.000324186
0.00032423
0.000324234
0.000324229
0.000324221
0.000324213
0.000324205
0.000324196
0.000324188
0.000324179
0.000324171
0.000324162
0.000324153
0.000324145
0.000324137
0.000324129
0.00032412
0.000324112
0.000324104
0.000324096
0.000324088
0.00032408
0.000324072
0.000324064
0.000324057
0.000324049
0.000324042
0.000324035
0.000324028
0.000324022
0.000324015
0.000324009
0.000324003
0.000323998
0.000323992
0.000323987
0.000323982
0.000323977
0.000323972
0.000323968
0.000323964
0.00032396
0.000323957
0.000323953
0.00032395
0.000323947
0.000323944
0.00032394
0.000323937
0.000323934
0.00032393
0.000323927
0.000323923
0.000323919
0.000323915
0.000323912
0.000323906
0.000323909
0.000323865
0.000339204
0.000339255
0.000339259
0.000339253
0.000339244
0.000339234
0.000339224
0.000339214
0.000339204
0.000339194
0.000339184
0.000339174
0.000339164
0.000339154
0.000339144
0.000339135
0.000339125
0.000339116
0.000339107
0.000339098
0.000339088
0.000339079
0.000339071
0.000339062
0.000339054
0.000339046
0.000339038
0.00033903
0.000339023
0.000339015
0.000339008
0.000339002
0.000338995
0.000338989
0.000338983
0.000338977
0.000338972
0.000338967
0.000338962
0.000338957
0.000338953
0.000338949
0.000338945
0.000338942
0.000338938
0.000338935
0.000338932
0.000338928
0.000338925
0.000338922
0.000338918
0.000338914
0.000338911
0.000338907
0.000338902
0.000338898
0.000338892
0.000338897
0.000338846
0.0003555
0.000355557
0.000355562
0.000355555
0.000355544
0.000355533
0.000355521
0.00035551
0.000355498
0.000355486
0.000355475
0.000355463
0.000355451
0.00035544
0.000355429
0.000355418
0.000355407
0.000355397
0.000355386
0.000355376
0.000355366
0.000355356
0.000355346
0.000355336
0.000355327
0.000355318
0.000355309
0.000355301
0.000355293
0.000355285
0.000355277
0.00035527
0.000355263
0.000355256
0.00035525
0.000355244
0.000355238
0.000355232
0.000355227
0.000355222
0.000355218
0.000355213
0.000355209
0.000355206
0.000355202
0.000355198
0.000355195
0.000355192
0.000355188
0.000355185
0.000355181
0.000355177
0.000355173
0.000355169
0.000355165
0.000355161
0.000355154
0.000355159
0.000355102
0.000373196
0.000373261
0.000373266
0.000373257
0.000373245
0.000373232
0.000373219
0.000373205
0.000373192
0.000373179
0.000373165
0.000373152
0.000373139
0.000373126
0.000373113
0.000373101
0.000373089
0.000373077
0.000373065
0.000373054
0.000373042
0.000373031
0.00037302
0.00037301
0.000372999
0.000372989
0.00037298
0.000372971
0.000372962
0.000372953
0.000372945
0.000372937
0.000372929
0.000372922
0.000372915
0.000372909
0.000372902
0.000372896
0.000372891
0.000372886
0.000372881
0.000372876
0.000372872
0.000372868
0.000372864
0.00037286
0.000372857
0.000372853
0.00037285
0.000372846
0.000372842
0.000372838
0.000372834
0.00037283
0.000372825
0.000372821
0.000372813
0.000372819
0.000372756
0.000392413
0.000392486
0.000392491
0.000392481
0.000392467
0.000392452
0.000392437
0.000392422
0.000392407
0.000392392
0.000392377
0.000392362
0.000392347
0.000392332
0.000392318
0.000392304
0.000392291
0.000392277
0.000392264
0.000392251
0.000392239
0.000392226
0.000392214
0.000392203
0.000392191
0.00039218
0.00039217
0.00039216
0.00039215
0.000392141
0.000392132
0.000392123
0.000392115
0.000392107
0.0003921
0.000392093
0.000392086
0.00039208
0.000392074
0.000392069
0.000392063
0.000392058
0.000392054
0.00039205
0.000392046
0.000392042
0.000392038
0.000392034
0.00039203
0.000392027
0.000392023
0.000392018
0.000392014
0.000392009
0.000392004
0.000392
0.000391991
0.000391998
0.000391928
0.000413267
0.000413348
0.000413354
0.000413342
0.000413327
0.00041331
0.000413293
0.000413276
0.000413259
0.000413242
0.000413225
0.000413208
0.000413192
0.000413176
0.00041316
0.000413144
0.000413129
0.000413114
0.0004131
0.000413086
0.000413072
0.000413058
0.000413045
0.000413032
0.00041302
0.000413008
0.000412997
0.000412986
0.000412975
0.000412965
0.000412955
0.000412946
0.000412937
0.000412929
0.000412921
0.000412914
0.000412907
0.0004129
0.000412894
0.000412888
0.000412882
0.000412877
0.000412873
0.000412868
0.000412864
0.00041286
0.000412856
0.000412852
0.000412848
0.000412844
0.000412839
0.000412835
0.00041283
0.000412825
0.00041282
0.000412815
0.000412806
0.000412813
0.000412736
0.000435869
0.000435958
0.000435964
0.000435951
0.000435934
0.000435915
0.000435896
0.000435877
0.000435858
0.000435839
0.000435821
0.000435802
0.000435784
0.000435766
0.000435748
0.000435731
0.000435714
0.000435698
0.000435682
0.000435666
0.000435651
0.000435636
0.000435622
0.000435608
0.000435595
0.000435582
0.00043557
0.000435558
0.000435547
0.000435536
0.000435526
0.000435516
0.000435507
0.000435498
0.000435489
0.000435481
0.000435474
0.000435467
0.00043546
0.000435454
0.000435449
0.000435443
0.000435438
0.000435433
0.000435429
0.000435424
0.00043542
0.000435416
0.000435412
0.000435407
0.000435403
0.000435398
0.000435393
0.000435388
0.000435382
0.000435376
0.000435367
0.000435374
0.000435291
0.000460317
0.000460415
0.000460421
0.000460407
0.000460387
0.000460367
0.000460346
0.000460325
0.000460304
0.000460283
0.000460263
0.000460242
0.000460222
0.000460202
0.000460183
0.000460165
0.000460146
0.000460128
0.000460111
0.000460094
0.000460077
0.000460061
0.000460046
0.000460031
0.000460017
0.000460003
0.00045999
0.000459977
0.000459965
0.000459954
0.000459943
0.000459933
0.000459923
0.000459914
0.000459905
0.000459896
0.000459889
0.000459881
0.000459875
0.000459868
0.000459862
0.000459856
0.000459851
0.000459846
0.000459841
0.000459837
0.000459832
0.000459828
0.000459823
0.000459819
0.000459814
0.000459809
0.000459803
0.000459797
0.000459791
0.000459785
0.000459774
0.000459783
0.000459692
0.0004867
0.000486807
0.000486814
0.000486798
0.000486776
0.000486754
0.000486731
0.000486708
0.000486685
0.000486662
0.00048664
0.000486617
0.000486595
0.000486574
0.000486553
0.000486533
0.000486513
0.000486494
0.000486475
0.000486457
0.000486439
0.000486422
0.000486405
0.000486389
0.000486374
0.000486359
0.000486345
0.000486332
0.00048632
0.000486307
0.000486296
0.000486285
0.000486275
0.000486265
0.000486256
0.000486248
0.00048624
0.000486232
0.000486225
0.000486218
0.000486212
0.000486206
0.000486201
0.000486196
0.000486191
0.000486186
0.000486181
0.000486176
0.000486171
0.000486166
0.000486161
0.000486155
0.00048615
0.000486143
0.000486136
0.000486129
0.000486118
0.000486127
0.00048603
0.000515093
0.000515208
0.000515215
0.000515198
0.000515174
0.00051515
0.000515125
0.0005151
0.000515075
0.00051505
0.000515026
0.000515002
0.000514978
0.000514955
0.000514932
0.000514911
0.000514889
0.000514869
0.000514848
0.000514829
0.00051481
0.000514792
0.000514774
0.000514757
0.000514741
0.000514726
0.000514711
0.000514697
0.000514684
0.000514671
0.000514659
0.000514648
0.000514638
0.000514628
0.000514618
0.00051461
0.000514601
0.000514594
0.000514586
0.00051458
0.000514573
0.000514567
0.000514562
0.000514556
0.000514551
0.000514546
0.000514541
0.000514536
0.000514531
0.000514525
0.00051452
0.000514514
0.000514507
0.0005145
0.000514492
0.000514485
0.000514473
0.000514481
0.000514378
0.000545554
0.000545678
0.000545685
0.000545666
0.000545641
0.000545614
0.000545587
0.00054556
0.000545533
0.000545506
0.00054548
0.000545454
0.000545429
0.000545404
0.00054538
0.000545357
0.000545334
0.000545312
0.00054529
0.00054527
0.00054525
0.00054523
0.000545212
0.000545194
0.000545177
0.000545161
0.000545146
0.000545131
0.000545118
0.000545105
0.000545093
0.000545081
0.00054507
0.00054506
0.000545051
0.000545042
0.000545033
0.000545026
0.000545018
0.000545011
0.000545005
0.000544999
0.000544993
0.000544988
0.000544982
0.000544977
0.000544972
0.000544967
0.000544961
0.000544955
0.000544949
0.000544943
0.000544935
0.000544928
0.000544919
0.000544911
0.000544898
0.000544906
0.000544797
0.000578125
0.000578258
0.000578266
0.000578245
0.000578217
0.000578188
0.000578159
0.00057813
0.000578102
0.000578073
0.000578045
0.000578017
0.00057799
0.000577964
0.000577938
0.000577914
0.00057789
0.000577866
0.000577844
0.000577822
0.000577801
0.000577781
0.000577761
0.000577743
0.000577725
0.000577709
0.000577693
0.000577678
0.000577664
0.000577651
0.000577639
0.000577627
0.000577616
0.000577606
0.000577596
0.000577587
0.000577579
0.000577571
0.000577564
0.000577557
0.000577551
0.000577545
0.000577539
0.000577533
0.000577528
0.000577523
0.000577517
0.000577511
0.000577506
0.000577499
0.000577493
0.000577485
0.000577478
0.000577469
0.00057746
0.000577451
0.000577437
0.000577444
0.00057733
0.000612833
0.000612975
0.000612983
0.000612961
0.000612931
0.0006129
0.000612869
0.000612838
0.000612807
0.000612777
0.000612747
0.000612718
0.000612689
0.000612661
0.000612634
0.000612608
0.000612583
0.000612558
0.000612534
0.000612512
0.00061249
0.000612469
0.000612449
0.00061243
0.000612412
0.000612395
0.000612379
0.000612364
0.000612349
0.000612336
0.000612324
0.000612312
0.000612301
0.000612291
0.000612281
0.000612273
0.000612264
0.000612257
0.00061225
0.000612243
0.000612237
0.000612231
0.000612225
0.000612219
0.000612214
0.000612208
0.000612203
0.000612197
0.000612191
0.000612184
0.000612177
0.000612169
0.00061216
0.000612151
0.000612141
0.000612131
0.000612115
0.000612122
0.000612003
0.000649688
0.000649839
0.000649847
0.000649822
0.000649791
0.000649758
0.000649725
0.000649692
0.000649659
0.000649627
0.000649595
0.000649564
0.000649534
0.000649505
0.000649477
0.000649449
0.000649423
0.000649397
0.000649373
0.000649349
0.000649326
0.000649305
0.000649284
0.000649265
0.000649246
0.000649229
0.000649213
0.000649198
0.000649183
0.00064917
0.000649158
0.000649146
0.000649136
0.000649126
0.000649116
0.000649108
0.0006491
0.000649092
0.000649085
0.000649079
0.000649073
0.000649067
0.000649061
0.000649056
0.00064905
0.000649045
0.000649039
0.000649033
0.000649026
0.000649019
0.000649011
0.000649003
0.000648993
0.000648983
0.000648972
0.000648961
0.000648944
0.00064895
0.000648827
0.000688683
0.000688842
0.00068885
0.000688824
0.000688791
0.000688756
0.00068872
0.000688685
0.000688651
0.000688617
0.000688584
0.000688552
0.00068852
0.000688489
0.00068846
0.000688431
0.000688404
0.000688377
0.000688352
0.000688328
0.000688304
0.000688282
0.000688261
0.000688242
0.000688223
0.000688206
0.000688189
0.000688174
0.00068816
0.000688147
0.000688135
0.000688123
0.000688113
0.000688103
0.000688095
0.000688086
0.000688079
0.000688072
0.000688065
0.000688059
0.000688053
0.000688047
0.000688042
0.000688036
0.000688031
0.000688025
0.000688019
0.000688013
0.000688006
0.000687998
0.00068799
0.00068798
0.00068797
0.000687959
0.000687947
0.000687934
0.000687917
0.000687921
0.000687794
0.000729797
0.000729964
0.000729972
0.000729945
0.000729909
0.000729872
0.000729835
0.000729798
0.000729762
0.000729726
0.000729692
0.000729658
0.000729625
0.000729593
0.000729562
0.000729533
0.000729504
0.000729477
0.000729451
0.000729426
0.000729402
0.00072938
0.000729359
0.000729339
0.00072932
0.000729303
0.000729287
0.000729272
0.000729258
0.000729245
0.000729233
0.000729222
0.000729212
0.000729203
0.000729195
0.000729187
0.00072918
0.000729174
0.000729167
0.000729162
0.000729156
0.000729151
0.000729145
0.00072914
0.000729134
0.000729128
0.000729122
0.000729115
0.000729108
0.0007291
0.000729091
0.000729081
0.00072907
0.000729058
0.000729044
0.000729031
0.000729012
0.000729015
0.000728885
0.000772994
0.00077317
0.000773178
0.000773148
0.000773111
0.000773072
0.000773032
0.000772994
0.000772956
0.000772919
0.000772883
0.000772847
0.000772813
0.00077278
0.000772749
0.000772718
0.000772689
0.000772661
0.000772634
0.000772609
0.000772585
0.000772562
0.000772541
0.000772521
0.000772503
0.000772486
0.00077247
0.000772455
0.000772441
0.000772429
0.000772418
0.000772408
0.000772398
0.00077239
0.000772382
0.000772375
0.000772368
0.000772362
0.000772356
0.000772351
0.000772346
0.000772341
0.000772336
0.00077233
0.000772325
0.000772319
0.000772313
0.000772306
0.000772298
0.000772289
0.000772279
0.000772268
0.000772256
0.000772243
0.000772229
0.000772214
0.000772193
0.000772194
0.000772062
0.000818227
0.00081841
0.000818418
0.000818387
0.000818347
0.000818306
0.000818265
0.000818225
0.000818185
0.000818146
0.000818109
0.000818072
0.000818037
0.000818003
0.00081797
0.000817939
0.000817909
0.000817881
0.000817853
0.000817828
0.000817804
0.000817781
0.00081776
0.00081774
0.000817722
0.000817705
0.000817689
0.000817675
0.000817662
0.00081765
0.00081764
0.00081763
0.000817621
0.000817614
0.000817607
0.0008176
0.000817594
0.000817589
0.000817584
0.000817579
0.000817574
0.000817569
0.000817565
0.000817559
0.000817554
0.000817548
0.000817541
0.000817534
0.000817526
0.000817516
0.000817506
0.000817494
0.000817481
0.000817467
0.000817451
0.000817434
0.000817413
0.000817412
0.000817278
0.000865433
0.000865624
0.000865632
0.000865599
0.000865558
0.000865515
0.000865472
0.00086543
0.000865389
0.000865348
0.000865309
0.000865272
0.000865235
0.0008652
0.000865167
0.000865135
0.000865104
0.000865075
0.000865048
0.000865022
0.000864998
0.000864975
0.000864954
0.000864935
0.000864917
0.0008649
0.000864885
0.000864872
0.000864859
0.000864848
0.000864838
0.00086483
0.000864822
0.000864815
0.000864808
0.000864803
0.000864798
0.000864793
0.000864788
0.000864784
0.00086478
0.000864776
0.000864771
0.000864766
0.000864761
0.000864754
0.000864748
0.00086474
0.000864731
0.000864721
0.00086471
0.000864697
0.000864683
0.000864667
0.00086465
0.000864632
0.000864609
0.000864606
0.000864472
0.000914544
0.000914742
0.000914749
0.000914715
0.000914671
0.000914626
0.000914582
0.000914538
0.000914495
0.000914454
0.000914413
0.000914374
0.000914337
0.000914301
0.000914267
0.000914234
0.000914203
0.000914174
0.000914146
0.00091412
0.000914096
0.000914074
0.000914053
0.000914034
0.000914016
0.000914
0.000913986
0.000913973
0.000913962
0.000913951
0.000913942
0.000913934
0.000913927
0.000913921
0.000913916
0.000913911
0.000913906
0.000913902
0.000913899
0.000913895
0.000913891
0.000913887
0.000913883
0.000913878
0.000913873
0.000913866
0.000913859
0.000913851
0.000913842
0.000913831
0.000913819
0.000913805
0.00091379
0.000913773
0.000913755
0.000913735
0.00091371
0.000913704
0.000913571
0.000965476
0.000965681
0.000965688
0.000965652
0.000965607
0.00096556
0.000965513
0.000965468
0.000965424
0.000965381
0.000965339
0.000965299
0.000965261
0.000965224
0.000965189
0.000965156
0.000965124
0.000965095
0.000965067
0.000965041
0.000965017
0.000964995
0.000964974
0.000964955
0.000964938
0.000964923
0.000964909
0.000964897
0.000964887
0.000964877
0.000964869
0.000964862
0.000964856
0.000964851
0.000964846
0.000964842
0.000964839
0.000964835
0.000964832
0.000964829
0.000964826
0.000964822
0.000964818
0.000964814
0.000964808
0.000964802
0.000964794
0.000964786
0.000964776
0.000964764
0.000964751
0.000964737
0.00096472
0.000964702
0.000964682
0.000964661
0.000964634
0.000964626
0.000964493
0.00101814
0.00101835
0.00101836
0.00101832
0.00101827
0.00101822
0.00101818
0.00101813
0.00101808
0.00101804
0.001018
0.00101795
0.00101792
0.00101788
0.00101784
0.00101781
0.00101778
0.00101775
0.00101772
0.00101769
0.00101767
0.00101765
0.00101763
0.00101761
0.00101759
0.00101758
0.00101756
0.00101755
0.00101754
0.00101753
0.00101753
0.00101752
0.00101752
0.00101751
0.00101751
0.00101751
0.0010175
0.0010175
0.0010175
0.0010175
0.00101749
0.00101749
0.00101749
0.00101748
0.00101748
0.00101747
0.00101746
0.00101745
0.00101744
0.00101743
0.00101742
0.0010174
0.00101738
0.00101736
0.00101734
0.00101732
0.00101729
0.00101728
0.00101715
0.00107243
0.00107265
0.00107266
0.00107262
0.00107257
0.00107252
0.00107247
0.00107242
0.00107237
0.00107233
0.00107228
0.00107224
0.0010722
0.00107216
0.00107213
0.00107209
0.00107206
0.00107203
0.001072
0.00107198
0.00107195
0.00107193
0.00107191
0.00107189
0.00107188
0.00107186
0.00107185
0.00107184
0.00107183
0.00107182
0.00107182
0.00107181
0.00107181
0.0010718
0.0010718
0.0010718
0.0010718
0.0010718
0.00107179
0.00107179
0.00107179
0.00107179
0.00107178
0.00107178
0.00107177
0.00107177
0.00107176
0.00107175
0.00107174
0.00107173
0.00107171
0.00107169
0.00107167
0.00107165
0.00107163
0.00107161
0.00107158
0.00107156
0.00107143
0.00112825
0.00112848
0.00112848
0.00112844
0.00112839
0.00112834
0.00112829
0.00112824
0.00112819
0.00112814
0.00112809
0.00112805
0.00112801
0.00112797
0.00112793
0.0011279
0.00112787
0.00112784
0.00112781
0.00112778
0.00112776
0.00112774
0.00112772
0.0011277
0.00112769
0.00112767
0.00112766
0.00112765
0.00112764
0.00112764
0.00112763
0.00112763
0.00112762
0.00112762
0.00112762
0.00112762
0.00112762
0.00112762
0.00112761
0.00112761
0.00112761
0.00112761
0.0011276
0.0011276
0.00112759
0.00112759
0.00112758
0.00112757
0.00112756
0.00112754
0.00112753
0.00112751
0.00112749
0.00112747
0.00112744
0.00112741
0.00112738
0.00112737
0.00112724
0.00118548
0.00118571
0.00118572
0.00118567
0.00118562
0.00118556
0.00118551
0.00118546
0.00118541
0.00118536
0.00118531
0.00118527
0.00118522
0.00118518
0.00118515
0.00118511
0.00118508
0.00118505
0.00118502
0.00118499
0.00118497
0.00118495
0.00118493
0.00118491
0.0011849
0.00118489
0.00118488
0.00118487
0.00118486
0.00118485
0.00118485
0.00118485
0.00118484
0.00118484
0.00118484
0.00118484
0.00118484
0.00118484
0.00118484
0.00118484
0.00118484
0.00118483
0.00118483
0.00118483
0.00118482
0.00118481
0.0011848
0.00118479
0.00118478
0.00118476
0.00118475
0.00118473
0.00118471
0.00118468
0.00118466
0.00118463
0.0011846
0.00118457
0.00118445
0.00124398
0.00124422
0.00124423
0.00124418
0.00124413
0.00124407
0.00124401
0.00124396
0.00124391
0.00124386
0.00124381
0.00124376
0.00124372
0.00124368
0.00124364
0.00124361
0.00124357
0.00124354
0.00124351
0.00124349
0.00124346
0.00124344
0.00124342
0.00124341
0.00124339
0.00124338
0.00124337
0.00124336
0.00124336
0.00124335
0.00124335
0.00124334
0.00124334
0.00124334
0.00124334
0.00124334
0.00124334
0.00124334
0.00124334
0.00124334
0.00124334
0.00124334
0.00124333
0.00124333
0.00124332
0.00124332
0.00124331
0.0012433
0.00124328
0.00124327
0.00124325
0.00124323
0.0012432
0.00124318
0.00124315
0.00124312
0.00124309
0.00124306
0.00124295
0.00130364
0.00130389
0.00130389
0.00130384
0.00130379
0.00130373
0.00130367
0.00130361
0.00130356
0.00130351
0.00130346
0.00130341
0.00130337
0.00130332
0.00130329
0.00130325
0.00130321
0.00130318
0.00130315
0.00130313
0.0013031
0.00130308
0.00130306
0.00130305
0.00130303
0.00130302
0.00130301
0.001303
0.001303
0.00130299
0.00130299
0.00130299
0.00130299
0.00130299
0.00130299
0.00130299
0.00130299
0.00130299
0.00130299
0.00130299
0.00130299
0.00130299
0.00130298
0.00130298
0.00130297
0.00130297
0.00130296
0.00130294
0.00130293
0.00130291
0.00130289
0.00130287
0.00130285
0.00130282
0.00130279
0.00130276
0.00130272
0.00130269
0.00130259
0.0013643
0.00136456
0.00136456
0.00136451
0.00136445
0.00136439
0.00136433
0.00136427
0.00136422
0.00136416
0.00136411
0.00136406
0.00136402
0.00136398
0.00136394
0.0013639
0.00136386
0.00136383
0.0013638
0.00136377
0.00136375
0.00136373
0.00136371
0.00136369
0.00136368
0.00136367
0.00136366
0.00136365
0.00136365
0.00136364
0.00136364
0.00136364
0.00136364
0.00136364
0.00136364
0.00136364
0.00136364
0.00136364
0.00136364
0.00136364
0.00136364
0.00136364
0.00136364
0.00136363
0.00136363
0.00136362
0.00136361
0.00136359
0.00136358
0.00136356
0.00136354
0.00136352
0.00136349
0.00136346
0.00136343
0.0013634
0.00136336
0.00136333
0.00136323