/*--------------------------------*- C++ -*----------------------------------*\
  =========                 |
  \\      /  F ield         | OpenFOAM: The Open Source CFD Toolbox
   \\    /   O peration     | Website:  https://openfoam.org
    \\  /    A nd           | Version:  7
     \\/     M anipulation  |
\*---------------------------------------------------------------------------*/
FoamFile
{
    version     2.0;
    format      ascii;
    class       volScalarField;
    location    "1000";
    object      omega;
}
// * * * * * * * * * * * * * * * * * * * * * * * * * * * * * * * * * * * * * //

dimensions      [0 0 -1 0 0 0 0];

internalField   nonuniform List<scalar> 
3974
(
0.6333
0.633319
0.633336
0.633346
0.633353
0.633359
0.633364
0.633368
0.633372
0.633376
0.633379
0.633382
0.633385
0.633387
0.633389
0.633391
0.633392
0.633393
0.633394
0.633395
0.633395
0.633395
0.633395
0.633395
0.633394
0.633393
0.633392
0.633391
0.633389
0.633387
0.633385
0.633383
0.63338
0.633377
0.633374
0.633371
0.633366
0.633373
0.59073
0.590748
0.590839
0.59089
0.590921
0.590942
0.590957
0.590969
0.590979
0.590988
0.590995
0.591002
0.591008
0.591013
0.591017
0.591022
0.591025
0.591028
0.591031
0.591034
0.591036
0.591037
0.591039
0.59104
0.591041
0.591041
0.591042
0.591042
0.591041
0.591041
0.59104
0.591039
0.591037
0.591035
0.591033
0.591031
0.591029
0.591026
0.591022
0.591035
0.590893
0.590846
0.550821
0.550812
0.550898
0.550945
0.551005
0.551058
0.551098
0.551127
0.55115
0.551168
0.551183
0.551196
0.551207
0.551216
0.551225
0.551233
0.55124
0.551246
0.551251
0.551256
0.55126
0.551264
0.551268
0.551271
0.551273
0.551276
0.551277
0.551279
0.55128
0.551281
0.551282
0.551282
0.551282
0.551282
0.551281
0.55128
0.551279
0.551277
0.551275
0.551274
0.551269
0.55128
0.551219
0.551183
0.550999
0.550923
0.550899
0.55089
0.550885
0.550882
0.55088
0.550879
0.550879
0.55088
0.550882
0.550885
0.550889
0.550889
0.550918
0.51347
0.51345
0.513494
0.513539
0.513588
0.513636
0.513678
0.513712
0.51374
0.513763
0.513782
0.513798
0.513813
0.513825
0.513836
0.513847
0.513856
0.513864
0.513871
0.513878
0.513884
0.513889
0.513894
0.513898
0.513902
0.513906
0.513909
0.513911
0.513913
0.513915
0.513917
0.513918
0.513919
0.513919
0.513919
0.513919
0.513919
0.513918
0.513917
0.513916
0.513913
0.513919
0.513893
0.513869
0.513778
0.5137
0.513655
0.51363
0.513616
0.513606
0.513599
0.513595
0.513592
0.51359
0.51359
0.513591
0.513594
0.51359
0.513626
0.478341
0.478311
0.478334
0.478369
0.478409
0.478451
0.47849
0.478525
0.478555
0.478581
0.478603
0.478622
0.478639
0.478655
0.478668
0.478681
0.478692
0.478702
0.478711
0.478719
0.478727
0.478734
0.47874
0.478746
0.478751
0.478756
0.47876
0.478763
0.478767
0.47877
0.478772
0.478774
0.478776
0.478777
0.478778
0.478779
0.478779
0.478779
0.478779
0.478778
0.478777
0.47878
0.478769
0.478756
0.47871
0.478653
0.478607
0.478575
0.478554
0.478538
0.478528
0.47852
0.478514
0.47851
0.478508
0.478506
0.478508
0.478502
0.478542
0.445288
0.44525
0.445261
0.445287
0.445318
0.445353
0.445387
0.44542
0.44545
0.445477
0.4455
0.445522
0.445541
0.445558
0.445574
0.445588
0.445601
0.445613
0.445623
0.445633
0.445642
0.445651
0.445658
0.445665
0.445672
0.445677
0.445683
0.445688
0.445692
0.445696
0.445699
0.445702
0.445705
0.445707
0.445709
0.44571
0.445711
0.445712
0.445713
0.445713
0.445712
0.445714
0.44571
0.445704
0.445681
0.445645
0.445609
0.445578
0.445554
0.445536
0.445523
0.445512
0.445504
0.445498
0.445494
0.445491
0.445492
0.445483
0.445526
0.414181
0.414138
0.414142
0.414161
0.414185
0.414213
0.414242
0.414272
0.4143
0.414326
0.41435
0.414372
0.414392
0.41441
0.414427
0.414443
0.414457
0.41447
0.414482
0.414494
0.414504
0.414514
0.414522
0.414531
0.414538
0.414545
0.414551
0.414557
0.414563
0.414567
0.414572
0.414576
0.414579
0.414582
0.414585
0.414587
0.414589
0.414591
0.414592
0.414593
0.414593
0.414594
0.414593
0.414591
0.41458
0.41456
0.414535
0.41451
0.414488
0.41447
0.414456
0.414444
0.414435
0.414428
0.414423
0.414418
0.414418
0.414407
0.414452
0.384912
0.384865
0.384865
0.384879
0.384899
0.384921
0.384946
0.384971
0.384996
0.38502
0.385044
0.385065
0.385086
0.385105
0.385122
0.385139
0.385154
0.385168
0.385181
0.385194
0.385205
0.385216
0.385226
0.385235
0.385243
0.385251
0.385258
0.385265
0.385271
0.385277
0.385282
0.385287
0.385291
0.385295
0.385299
0.385302
0.385305
0.385307
0.385309
0.38531
0.385311
0.385313
0.385313
0.385313
0.385308
0.385298
0.385283
0.385265
0.385248
0.385232
0.385219
0.385207
0.385198
0.38519
0.385184
0.385179
0.385178
0.385166
0.385212
0.357388
0.357339
0.357337
0.357348
0.357364
0.357382
0.357403
0.357424
0.357446
0.357468
0.35749
0.357511
0.35753
0.357549
0.357567
0.357584
0.357599
0.357614
0.357628
0.357641
0.357653
0.357665
0.357675
0.357685
0.357695
0.357703
0.357712
0.357719
0.357726
0.357733
0.357739
0.357744
0.357749
0.357754
0.357758
0.357762
0.357765
0.357768
0.357771
0.357773
0.357775
0.357777
0.357778
0.357779
0.357778
0.357773
0.357765
0.357754
0.357741
0.357729
0.357718
0.357708
0.357699
0.357691
0.357685
0.35768
0.357679
0.357666
0.357712
0.331529
0.331478
0.331476
0.331485
0.331499
0.331514
0.331531
0.33155
0.331569
0.331589
0.331608
0.331628
0.331646
0.331664
0.331682
0.331698
0.331714
0.331729
0.331743
0.331756
0.331769
0.331781
0.331792
0.331803
0.331813
0.331822
0.331831
0.331839
0.331847
0.331854
0.331861
0.331867
0.331872
0.331878
0.331883
0.331887
0.331891
0.331895
0.331898
0.331901
0.331903
0.331905
0.331907
0.331909
0.33191
0.331908
0.331905
0.331899
0.331891
0.331882
0.331874
0.331866
0.331858
0.331852
0.331846
0.331841
0.33184
0.331827
0.331874
0.307265
0.307214
0.30721
0.307219
0.307231
0.307245
0.30726
0.307276
0.307292
0.30731
0.307327
0.307345
0.307362
0.307379
0.307396
0.307412
0.307427
0.307442
0.307456
0.30747
0.307482
0.307495
0.307506
0.307517
0.307527
0.307537
0.307546
0.307555
0.307563
0.307571
0.307578
0.307585
0.307591
0.307597
0.307602
0.307607
0.307612
0.307616
0.30762
0.307623
0.307626
0.307629
0.307631
0.307633
0.307635
0.307636
0.307635
0.307632
0.307628
0.307623
0.307617
0.307611
0.307606
0.307601
0.307596
0.307592
0.307591
0.307578
0.307625
0.284533
0.284482
0.284478
0.284486
0.284497
0.28451
0.284523
0.284537
0.284552
0.284568
0.284583
0.284599
0.284615
0.284631
0.284647
0.284662
0.284676
0.284691
0.284704
0.284718
0.28473
0.284743
0.284754
0.284765
0.284776
0.284786
0.284795
0.284804
0.284813
0.284821
0.284828
0.284835
0.284842
0.284848
0.284854
0.284859
0.284864
0.284869
0.284873
0.284877
0.28488
0.284883
0.284886
0.284889
0.284891
0.284893
0.284894
0.284894
0.284892
0.28489
0.284886
0.284883
0.284879
0.284875
0.284872
0.284869
0.284868
0.284856
0.284904
0.263277
0.263225
0.263221
0.263229
0.26324
0.263251
0.263264
0.263276
0.26329
0.263304
0.263318
0.263332
0.263347
0.263361
0.263375
0.26339
0.263404
0.263417
0.26343
0.263443
0.263455
0.263467
0.263479
0.26349
0.2635
0.26351
0.26352
0.263529
0.263537
0.263545
0.263553
0.26356
0.263567
0.263574
0.26358
0.263586
0.263591
0.263596
0.2636
0.263605
0.263608
0.263612
0.263615
0.263618
0.263621
0.263623
0.263625
0.263626
0.263627
0.263626
0.263625
0.263623
0.263621
0.263619
0.263617
0.263615
0.263616
0.263604
0.263652
0.24344
0.243389
0.243385
0.243393
0.243403
0.243414
0.243426
0.243437
0.24345
0.243462
0.243475
0.243488
0.243501
0.243514
0.243528
0.243541
0.243554
0.243566
0.243579
0.243591
0.243603
0.243614
0.243625
0.243636
0.243646
0.243656
0.243666
0.243675
0.243683
0.243691
0.243699
0.243706
0.243713
0.24372
0.243726
0.243732
0.243738
0.243743
0.243747
0.243752
0.243756
0.24376
0.243763
0.243767
0.24377
0.243773
0.243775
0.243777
0.243779
0.24378
0.24378
0.24378
0.243779
0.243779
0.243778
0.243777
0.243778
0.243767
0.243815
0.224971
0.224921
0.224917
0.224925
0.224935
0.224945
0.224956
0.224967
0.224979
0.22499
0.225002
0.225014
0.225026
0.225038
0.22505
0.225062
0.225074
0.225086
0.225097
0.225109
0.22512
0.225131
0.225141
0.225152
0.225162
0.225171
0.22518
0.225189
0.225197
0.225205
0.225213
0.22522
0.225227
0.225234
0.22524
0.225246
0.225252
0.225257
0.225262
0.225266
0.225271
0.225275
0.225278
0.225282
0.225285
0.225288
0.225291
0.225294
0.225296
0.225298
0.225299
0.2253
0.225301
0.225301
0.225302
0.225301
0.225304
0.225294
0.225341
0.207818
0.207768
0.207765
0.207772
0.207782
0.207792
0.207803
0.207813
0.207824
0.207834
0.207845
0.207856
0.207867
0.207878
0.207889
0.2079
0.207911
0.207922
0.207933
0.207944
0.207954
0.207964
0.207974
0.207984
0.207993
0.208002
0.208011
0.20802
0.208028
0.208035
0.208043
0.20805
0.208057
0.208063
0.208069
0.208075
0.208081
0.208086
0.208091
0.208096
0.2081
0.208104
0.208108
0.208112
0.208115
0.208118
0.208121
0.208124
0.208127
0.208129
0.208131
0.208133
0.208135
0.208136
0.208137
0.208138
0.208141
0.208132
0.208178
0.191927
0.191879
0.191876
0.191882
0.191892
0.191902
0.191912
0.191922
0.191932
0.191942
0.191952
0.191962
0.191972
0.191982
0.191992
0.192002
0.192012
0.192022
0.192032
0.192042
0.192052
0.192061
0.192071
0.19208
0.192088
0.192097
0.192105
0.192113
0.192121
0.192128
0.192135
0.192142
0.192149
0.192155
0.192161
0.192167
0.192172
0.192177
0.192182
0.192187
0.192191
0.192195
0.192199
0.192203
0.192206
0.19221
0.192213
0.192216
0.192219
0.192221
0.192224
0.192226
0.192228
0.19223
0.192232
0.192234
0.192237
0.19223
0.192274
0.177243
0.177197
0.177194
0.1772
0.177209
0.177219
0.177228
0.177238
0.177247
0.177256
0.177266
0.177275
0.177285
0.177294
0.177303
0.177313
0.177322
0.177331
0.17734
0.177349
0.177358
0.177367
0.177375
0.177384
0.177392
0.1774
0.177407
0.177415
0.177422
0.177429
0.177436
0.177442
0.177448
0.177454
0.17746
0.177465
0.177471
0.177476
0.17748
0.177485
0.177489
0.177493
0.177497
0.177501
0.177504
0.177507
0.177511
0.177514
0.177517
0.17752
0.177522
0.177525
0.177528
0.17753
0.177532
0.177534
0.177538
0.177531
0.177574
0.163709
0.163666
0.163663
0.163669
0.163677
0.163686
0.163695
0.163704
0.163713
0.163722
0.163731
0.163739
0.163748
0.163757
0.163765
0.163774
0.163782
0.163791
0.163799
0.163807
0.163815
0.163823
0.163831
0.163839
0.163846
0.163854
0.163861
0.163868
0.163874
0.163881
0.163887
0.163893
0.163899
0.163904
0.16391
0.163915
0.16392
0.163925
0.163929
0.163933
0.163937
0.163941
0.163945
0.163949
0.163952
0.163955
0.163958
0.163962
0.163965
0.163968
0.16397
0.163973
0.163976
0.163978
0.163981
0.163983
0.163987
0.163982
0.164023
0.151267
0.151226
0.151223
0.151229
0.151237
0.151246
0.151254
0.151263
0.151271
0.151279
0.151287
0.151295
0.151303
0.151311
0.151319
0.151327
0.151335
0.151342
0.15135
0.151357
0.151365
0.151372
0.151379
0.151386
0.151393
0.1514
0.151406
0.151412
0.151419
0.151424
0.15143
0.151436
0.151441
0.151446
0.151451
0.151456
0.151461
0.151465
0.151469
0.151473
0.151477
0.151481
0.151484
0.151488
0.151491
0.151494
0.151497
0.1515
0.151503
0.151506
0.151509
0.151512
0.151515
0.151518
0.15152
0.151523
0.151527
0.151522
0.151561
0.139856
0.139817
0.139814
0.13982
0.139827
0.139835
0.139843
0.139851
0.139859
0.139867
0.139874
0.139882
0.139889
0.139896
0.139904
0.139911
0.139918
0.139925
0.139932
0.139938
0.139945
0.139952
0.139958
0.139964
0.139971
0.139977
0.139982
0.139988
0.139994
0.139999
0.140004
0.140009
0.140014
0.140019
0.140023
0.140028
0.140032
0.140036
0.14004
0.140044
0.140047
0.140051
0.140054
0.140057
0.140061
0.140064
0.140067
0.140069
0.140072
0.140075
0.140078
0.140081
0.140084
0.140086
0.140089
0.140092
0.140096
0.140092
0.140128
0.129411
0.129375
0.129373
0.129378
0.129385
0.129392
0.1294
0.129407
0.129414
0.129421
0.129428
0.129435
0.129442
0.129449
0.129455
0.129462
0.129468
0.129475
0.129481
0.129487
0.129493
0.129499
0.129505
0.129511
0.129516
0.129521
0.129527
0.129532
0.129537
0.129542
0.129546
0.129551
0.129555
0.12956
0.129564
0.129568
0.129572
0.129575
0.129579
0.129582
0.129586
0.129589
0.129592
0.129595
0.129598
0.129601
0.129603
0.129606
0.129609
0.129612
0.129614
0.129617
0.12962
0.129622
0.129625
0.129628
0.129632
0.129628
0.129662
0.119871
0.119837
0.119835
0.11984
0.119846
0.119853
0.11986
0.119866
0.119873
0.11988
0.119886
0.119893
0.119899
0.119905
0.119911
0.119917
0.119923
0.119929
0.119934
0.11994
0.119945
0.119951
0.119956
0.119961
0.119966
0.119971
0.119975
0.11998
0.119984
0.119989
0.119993
0.119997
0.120001
0.120005
0.120008
0.120012
0.120015
0.120019
0.120022
0.120025
0.120028
0.120031
0.120034
0.120037
0.120039
0.120042
0.120044
0.120047
0.12005
0.120052
0.120055
0.120057
0.12006
0.120063
0.120065
0.120068
0.120072
0.120069
0.120099
0.11117
0.111138
0.111136
0.111141
0.111147
0.111153
0.111159
0.111165
0.111172
0.111178
0.111184
0.111189
0.111195
0.111201
0.111206
0.111212
0.111217
0.111222
0.111227
0.111232
0.111237
0.111242
0.111247
0.111251
0.111255
0.11126
0.111264
0.111268
0.111272
0.111276
0.111279
0.111283
0.111286
0.11129
0.111293
0.111296
0.111299
0.111302
0.111305
0.111308
0.111311
0.111313
0.111316
0.111318
0.111321
0.111323
0.111326
0.111328
0.11133
0.111333
0.111335
0.111338
0.11134
0.111343
0.111345
0.111348
0.111351
0.111349
0.111377
0.103244
0.103215
0.103214
0.103218
0.103223
0.103229
0.103235
0.10324
0.103246
0.103252
0.103257
0.103262
0.103268
0.103273
0.103278
0.103283
0.103287
0.103292
0.103297
0.103301
0.103305
0.10331
0.103314
0.103318
0.103322
0.103325
0.103329
0.103333
0.103336
0.103339
0.103343
0.103346
0.103349
0.103352
0.103355
0.103357
0.10336
0.103363
0.103365
0.103368
0.10337
0.103373
0.103375
0.103377
0.103379
0.103381
0.103384
0.103386
0.103388
0.10339
0.103392
0.103395
0.103397
0.103399
0.103402
0.103404
0.103408
0.103406
0.103431
0.0960325
0.0960062
0.0960044
0.0960082
0.0960132
0.0960185
0.0960238
0.096029
0.0960341
0.0960392
0.0960441
0.096049
0.0960537
0.0960583
0.0960628
0.0960672
0.0960715
0.0960757
0.0960798
0.0960838
0.0960876
0.0960914
0.096095
0.0960986
0.096102
0.0961053
0.0961085
0.0961116
0.0961146
0.0961175
0.0961203
0.096123
0.0961257
0.0961283
0.0961307
0.0961332
0.0961355
0.0961378
0.09614
0.0961422
0.0961443
0.0961463
0.0961484
0.0961504
0.0961523
0.0961543
0.0961563
0.0961582
0.0961603
0.0961623
0.0961644
0.0961665
0.0961687
0.096171
0.0961733
0.0961756
0.0961787
0.0961773
0.0962003
0.0894743
0.0894503
0.0894487
0.0894521
0.0894567
0.0894615
0.0894663
0.089471
0.0894757
0.0894803
0.0894847
0.0894891
0.0894934
0.0894976
0.0895016
0.0895056
0.0895094
0.0895132
0.0895168
0.0895203
0.0895238
0.0895271
0.0895303
0.0895334
0.0895364
0.0895392
0.089542
0.0895447
0.0895473
0.0895498
0.0895523
0.0895546
0.0895569
0.0895591
0.0895612
0.0895633
0.0895653
0.0895673
0.0895692
0.0895711
0.0895729
0.0895747
0.0895765
0.0895782
0.08958
0.0895818
0.0895835
0.0895853
0.0895871
0.089589
0.0895909
0.0895929
0.089595
0.0895971
0.0895993
0.0896014
0.0896044
0.0896033
0.0896239
0.0835121
0.0834902
0.0834887
0.0834919
0.083496
0.0835004
0.0835047
0.083509
0.0835133
0.0835174
0.0835214
0.0835254
0.0835292
0.083533
0.0835366
0.0835401
0.0835436
0.0835469
0.0835501
0.0835532
0.0835563
0.0835592
0.083562
0.0835647
0.0835673
0.0835698
0.0835722
0.0835745
0.0835767
0.0835789
0.0835809
0.0835829
0.0835849
0.0835868
0.0835886
0.0835904
0.0835921
0.0835938
0.0835954
0.083597
0.0835986
0.0836001
0.0836017
0.0836032
0.0836048
0.0836063
0.0836079
0.0836095
0.0836112
0.0836129
0.0836147
0.0836165
0.0836184
0.0836204
0.0836224
0.0836244
0.0836272
0.0836264
0.0836447
0.0780914
0.0780716
0.0780703
0.0780731
0.0780769
0.0780808
0.0780848
0.0780887
0.0780925
0.0780962
0.0780998
0.0781034
0.0781068
0.0781102
0.0781134
0.0781166
0.0781196
0.0781226
0.0781254
0.0781281
0.0781308
0.0781333
0.0781358
0.0781381
0.0781404
0.0781425
0.0781446
0.0781466
0.0781485
0.0781503
0.078152
0.0781537
0.0781554
0.0781569
0.0781585
0.07816
0.0781614
0.0781628
0.0781642
0.0781656
0.078167
0.0781683
0.0781696
0.078171
0.0781723
0.0781737
0.0781751
0.0781766
0.0781781
0.0781796
0.0781812
0.0781829
0.0781847
0.0781865
0.0781884
0.0781903
0.0781928
0.0781924
0.0782086
0.0731616
0.0731436
0.0731424
0.073145
0.0731484
0.073152
0.0731556
0.0731591
0.0731625
0.0731658
0.0731691
0.0731723
0.0731754
0.0731783
0.0731812
0.073184
0.0731867
0.0731893
0.0731918
0.0731942
0.0731965
0.0731988
0.0732009
0.0732029
0.0732048
0.0732067
0.0732084
0.0732101
0.0732117
0.0732132
0.0732147
0.0732161
0.0732175
0.0732188
0.0732201
0.0732213
0.0732225
0.0732237
0.0732249
0.073226
0.0732272
0.0732283
0.0732295
0.0732306
0.0732318
0.073233
0.0732343
0.0732356
0.0732369
0.0732383
0.0732398
0.0732414
0.073243
0.0732447
0.0732465
0.0732483
0.0732506
0.0732504
0.0732647
0.0686755
0.0686592
0.0686581
0.0686605
0.0686636
0.0686668
0.06867
0.0686732
0.0686762
0.0686793
0.0686822
0.068685
0.0686878
0.0686904
0.068693
0.0686955
0.0686978
0.0687001
0.0687023
0.0687044
0.0687064
0.0687083
0.0687101
0.0687119
0.0687135
0.0687151
0.0687166
0.068718
0.0687193
0.0687206
0.0687218
0.068723
0.0687241
0.0687252
0.0687262
0.0687272
0.0687282
0.0687292
0.0687302
0.0687311
0.0687321
0.0687331
0.068734
0.068735
0.0687361
0.0687371
0.0687382
0.0687394
0.0687406
0.0687419
0.0687433
0.0687447
0.0687462
0.0687478
0.0687494
0.0687511
0.0687533
0.0687532
0.0687659
0.0645897
0.064575
0.0645741
0.0645762
0.064579
0.0645819
0.0645848
0.0645877
0.0645904
0.0645931
0.0645957
0.0645983
0.0646007
0.0646031
0.0646053
0.0646075
0.0646096
0.0646116
0.0646135
0.0646153
0.0646171
0.0646187
0.0646203
0.0646217
0.0646231
0.0646244
0.0646257
0.0646268
0.0646279
0.064629
0.06463
0.0646309
0.0646319
0.0646327
0.0646336
0.0646344
0.0646352
0.064636
0.0646368
0.0646376
0.0646384
0.0646392
0.06464
0.0646409
0.0646418
0.0646427
0.0646437
0.0646447
0.0646458
0.064647
0.0646482
0.0646495
0.0646509
0.0646524
0.064654
0.0646556
0.0646575
0.0646577
0.0646688
0.0608648
0.0608515
0.0608507
0.0608526
0.0608552
0.0608578
0.0608604
0.060863
0.0608655
0.0608679
0.0608702
0.0608725
0.0608747
0.0608767
0.0608788
0.0608807
0.0608825
0.0608842
0.0608859
0.0608875
0.060889
0.0608904
0.0608917
0.0608929
0.0608941
0.0608952
0.0608962
0.0608972
0.0608981
0.0608989
0.0608997
0.0609005
0.0609012
0.0609019
0.0609026
0.0609032
0.0609039
0.0609045
0.0609051
0.0609058
0.0609064
0.0609071
0.0609078
0.0609086
0.0609093
0.0609101
0.060911
0.0609119
0.0609129
0.060914
0.0609151
0.0609163
0.0609176
0.060919
0.0609205
0.0609219
0.0609238
0.0609241
0.0609338
0.0574649
0.0574529
0.0574522
0.0574539
0.0574562
0.0574586
0.057461
0.0574633
0.0574655
0.0574677
0.0574698
0.0574718
0.0574737
0.0574756
0.0574773
0.057479
0.0574806
0.0574821
0.0574836
0.0574849
0.0574862
0.0574874
0.0574885
0.0574895
0.0574905
0.0574914
0.0574922
0.057493
0.0574937
0.0574944
0.057495
0.0574956
0.0574962
0.0574967
0.0574973
0.0574978
0.0574983
0.0574988
0.0574993
0.0574998
0.0575003
0.0575009
0.0575015
0.0575021
0.0575028
0.0575035
0.0575043
0.0575051
0.057506
0.057507
0.057508
0.0575091
0.0575103
0.0575116
0.057513
0.0575144
0.057516
0.0575165
0.057525
0.0543576
0.0543467
0.0543461
0.0543477
0.0543498
0.054352
0.0543541
0.0543562
0.0543582
0.0543601
0.054362
0.0543638
0.0543655
0.0543672
0.0543687
0.0543702
0.0543716
0.0543729
0.0543741
0.0543753
0.0543764
0.0543774
0.0543783
0.0543792
0.05438
0.0543807
0.0543814
0.054382
0.0543825
0.0543831
0.0543835
0.054384
0.0543844
0.0543848
0.0543852
0.0543856
0.054386
0.0543864
0.0543868
0.0543872
0.0543876
0.0543881
0.0543885
0.0543891
0.0543897
0.0543903
0.054391
0.0543917
0.0543925
0.0543934
0.0543944
0.0543954
0.0543965
0.0543977
0.054399
0.0544003
0.0544019
0.0544024
0.0544098
0.0515138
0.0515039
0.0515034
0.0515049
0.0515068
0.0515087
0.0515107
0.0515125
0.0515144
0.0515161
0.0515178
0.0515194
0.0515209
0.0515223
0.0515237
0.051525
0.0515262
0.0515274
0.0515284
0.0515294
0.0515303
0.0515312
0.0515319
0.0515326
0.0515333
0.0515339
0.0515344
0.0515349
0.0515353
0.0515357
0.0515361
0.0515364
0.0515367
0.051537
0.0515373
0.0515375
0.0515378
0.0515381
0.0515384
0.0515387
0.0515391
0.0515394
0.0515398
0.0515403
0.0515408
0.0515413
0.0515419
0.0515426
0.0515434
0.0515442
0.0515451
0.051546
0.0515471
0.0515482
0.0515494
0.0515506
0.0515521
0.0515527
0.0515591
0.0489074
0.0488984
0.0488979
0.0488993
0.048901
0.0489028
0.0489046
0.0489063
0.0489079
0.0489095
0.048911
0.0489124
0.0489138
0.0489151
0.0489163
0.0489174
0.0489184
0.0489194
0.0489203
0.0489212
0.048922
0.0489227
0.0489233
0.0489239
0.0489244
0.0489248
0.0489252
0.0489256
0.0489259
0.0489262
0.0489264
0.0489267
0.0489269
0.0489271
0.0489273
0.0489274
0.0489276
0.0489278
0.048928
0.0489283
0.0489285
0.0489288
0.0489292
0.0489296
0.04893
0.0489305
0.048931
0.0489316
0.0489323
0.0489331
0.0489339
0.0489348
0.0489358
0.0489368
0.0489379
0.0489391
0.0489404
0.0489411
0.0489467
0.046515
0.0465068
0.0465064
0.0465077
0.0465093
0.0465109
0.0465125
0.0465141
0.0465155
0.046517
0.0465183
0.0465196
0.0465208
0.0465219
0.046523
0.046524
0.0465249
0.0465258
0.0465265
0.0465273
0.0465279
0.0465285
0.046529
0.0465295
0.0465299
0.0465302
0.0465305
0.0465308
0.046531
0.0465312
0.0465313
0.0465315
0.0465316
0.0465317
0.0465318
0.0465319
0.046532
0.0465322
0.0465323
0.0465325
0.0465327
0.0465329
0.0465332
0.0465335
0.0465339
0.0465343
0.0465348
0.0465354
0.046536
0.0465367
0.0465374
0.0465383
0.0465392
0.0465402
0.0465412
0.0465423
0.0465436
0.0465443
0.0465492
0.0443159
0.0443085
0.0443081
0.0443093
0.0443107
0.0443122
0.0443137
0.0443151
0.0443165
0.0443177
0.044319
0.0443201
0.0443212
0.0443222
0.0443231
0.044324
0.0443248
0.0443255
0.0443262
0.0443268
0.0443274
0.0443278
0.0443283
0.0443286
0.0443289
0.0443292
0.0443294
0.0443296
0.0443297
0.0443298
0.0443299
0.04433
0.04433
0.0443301
0.0443301
0.0443301
0.0443302
0.0443303
0.0443304
0.0443305
0.0443306
0.0443308
0.044331
0.0443313
0.0443316
0.044332
0.0443325
0.044333
0.0443335
0.0443342
0.0443349
0.0443357
0.0443365
0.0443374
0.0443384
0.0443395
0.0443407
0.0443414
0.0443456
0.0422915
0.0422847
0.0422844
0.0422855
0.0422869
0.0422883
0.0422896
0.0422909
0.0422921
0.0422933
0.0422944
0.0422954
0.0422964
0.0422973
0.0422981
0.0422989
0.0422996
0.0423003
0.0423008
0.0423013
0.0423018
0.0423022
0.0423025
0.0423028
0.042303
0.0423032
0.0423034
0.0423035
0.0423035
0.0423036
0.0423036
0.0423036
0.0423036
0.0423036
0.0423036
0.0423036
0.0423036
0.0423036
0.0423036
0.0423037
0.0423038
0.0423039
0.0423041
0.0423044
0.0423046
0.042305
0.0423054
0.0423058
0.0423064
0.042307
0.0423076
0.0423084
0.0423092
0.04231
0.042311
0.042312
0.0423131
0.0423138
0.0423174
0.0404254
0.0404193
0.040419
0.04042
0.0404213
0.0404225
0.0404238
0.040425
0.0404261
0.0404272
0.0404282
0.0404291
0.04043
0.0404308
0.0404315
0.0404322
0.0404328
0.0404334
0.0404339
0.0404343
0.0404347
0.040435
0.0404353
0.0404355
0.0404357
0.0404358
0.0404359
0.0404359
0.0404359
0.0404359
0.0404359
0.0404358
0.0404358
0.0404357
0.0404357
0.0404356
0.0404356
0.0404356
0.0404356
0.0404356
0.0404357
0.0404358
0.0404359
0.0404361
0.0404364
0.0404367
0.040437
0.0404375
0.040438
0.0404385
0.0404391
0.0404398
0.0404406
0.0404414
0.0404423
0.0404432
0.0404443
0.040445
0.0404481
0.038703
0.0386974
0.0386971
0.0386981
0.0386993
0.0387004
0.0387016
0.0387027
0.0387037
0.0387047
0.0387056
0.0387065
0.0387073
0.038708
0.0387087
0.0387093
0.0387098
0.0387103
0.0387108
0.0387111
0.0387114
0.0387117
0.0387119
0.0387121
0.0387122
0.0387122
0.0387123
0.0387123
0.0387123
0.0387122
0.0387121
0.0387121
0.038712
0.0387119
0.0387118
0.0387117
0.0387116
0.0387116
0.0387116
0.0387116
0.0387116
0.0387117
0.0387118
0.038712
0.0387122
0.0387125
0.0387128
0.0387132
0.0387136
0.0387141
0.0387147
0.0387154
0.0387161
0.0387169
0.0387177
0.0387186
0.0387196
0.0387203
0.038723
0.0371113
0.037106
0.0371059
0.0371068
0.0371079
0.037109
0.03711
0.0371111
0.037112
0.0371129
0.0371138
0.0371146
0.0371153
0.037116
0.0371166
0.0371171
0.0371176
0.037118
0.0371184
0.0371187
0.037119
0.0371192
0.0371193
0.0371195
0.0371195
0.0371196
0.0371196
0.0371195
0.0371195
0.0371194
0.0371193
0.0371192
0.0371191
0.037119
0.0371188
0.0371187
0.0371186
0.0371186
0.0371185
0.0371185
0.0371185
0.0371186
0.0371187
0.0371188
0.037119
0.0371192
0.0371195
0.0371199
0.0371203
0.0371208
0.0371213
0.037122
0.0371226
0.0371234
0.0371241
0.037125
0.0371259
0.0371267
0.0371289
0.0356386
0.0356338
0.0356336
0.0356345
0.0356355
0.0356366
0.0356376
0.0356385
0.0356394
0.0356403
0.035641
0.0356418
0.0356424
0.0356431
0.0356436
0.0356441
0.0356445
0.0356449
0.0356453
0.0356455
0.0356458
0.0356459
0.0356461
0.0356461
0.0356462
0.0356462
0.0356462
0.0356461
0.035646
0.0356459
0.0356458
0.0356457
0.0356455
0.0356454
0.0356453
0.0356451
0.035645
0.0356449
0.0356449
0.0356448
0.0356448
0.0356449
0.0356449
0.035645
0.0356452
0.0356454
0.0356457
0.035646
0.0356464
0.0356469
0.0356474
0.035648
0.0356486
0.0356493
0.03565
0.0356508
0.0356517
0.0356525
0.0356544
0.0342748
0.0342703
0.0342702
0.034271
0.034272
0.034273
0.0342739
0.0342748
0.0342757
0.0342764
0.0342772
0.0342779
0.0342785
0.0342791
0.0342796
0.03428
0.0342804
0.0342808
0.0342811
0.0342813
0.0342815
0.0342817
0.0342818
0.0342818
0.0342818
0.0342818
0.0342818
0.0342817
0.0342816
0.0342815
0.0342814
0.0342812
0.0342811
0.0342809
0.0342808
0.0342806
0.0342805
0.0342804
0.0342803
0.0342803
0.0342802
0.0342803
0.0342803
0.0342804
0.0342806
0.0342808
0.034281
0.0342813
0.0342817
0.0342821
0.0342826
0.0342831
0.0342837
0.0342844
0.0342851
0.0342858
0.0342867
0.0342874
0.034289
0.0330107
0.0330066
0.0330065
0.0330073
0.0330082
0.0330091
0.03301
0.0330109
0.0330116
0.0330124
0.0330131
0.0330137
0.0330143
0.0330148
0.0330153
0.0330157
0.0330161
0.0330164
0.0330167
0.0330169
0.0330171
0.0330172
0.0330173
0.0330174
0.0330174
0.0330173
0.0330173
0.0330172
0.0330171
0.033017
0.0330168
0.0330167
0.0330165
0.0330164
0.0330162
0.0330161
0.0330159
0.0330158
0.0330157
0.0330157
0.0330156
0.0330156
0.0330157
0.0330158
0.0330159
0.0330161
0.0330163
0.0330166
0.033017
0.0330173
0.0330178
0.0330183
0.0330189
0.0330195
0.0330201
0.0330209
0.0330216
0.0330224
0.0330237
0.0318383
0.0318344
0.0318344
0.0318351
0.031836
0.0318369
0.0318377
0.0318385
0.0318393
0.03184
0.0318407
0.0318413
0.0318418
0.0318423
0.0318428
0.0318432
0.0318435
0.0318438
0.0318441
0.0318443
0.0318444
0.0318446
0.0318446
0.0318447
0.0318447
0.0318446
0.0318446
0.0318445
0.0318444
0.0318443
0.0318441
0.031844
0.0318438
0.0318436
0.0318435
0.0318433
0.0318432
0.0318431
0.031843
0.0318429
0.0318429
0.0318429
0.0318429
0.031843
0.0318431
0.0318433
0.0318435
0.0318438
0.0318441
0.0318445
0.0318449
0.0318454
0.0318459
0.0318465
0.0318471
0.0318478
0.0318485
0.0318492
0.0318503
0.0307503
0.0307467
0.0307467
0.0307474
0.0307483
0.0307491
0.0307499
0.0307507
0.0307514
0.0307521
0.0307527
0.0307533
0.0307538
0.0307543
0.0307547
0.0307551
0.0307555
0.0307557
0.030756
0.0307562
0.0307563
0.0307564
0.0307565
0.0307566
0.0307566
0.0307565
0.0307565
0.0307564
0.0307563
0.0307561
0.030756
0.0307559
0.0307557
0.0307555
0.0307554
0.0307552
0.0307551
0.030755
0.0307549
0.0307548
0.0307548
0.0307548
0.0307548
0.0307549
0.030755
0.0307551
0.0307553
0.0307556
0.0307559
0.0307562
0.0307566
0.0307571
0.0307576
0.0307581
0.0307587
0.0307593
0.03076
0.0307607
0.0307616
0.0297405
0.0297371
0.0297371
0.0297378
0.0297386
0.0297394
0.0297402
0.0297409
0.0297416
0.0297423
0.0297429
0.0297434
0.0297439
0.0297444
0.0297448
0.0297452
0.0297455
0.0297458
0.029746
0.0297462
0.0297464
0.0297465
0.0297466
0.0297466
0.0297466
0.0297466
0.0297465
0.0297465
0.0297464
0.0297463
0.0297461
0.029746
0.0297458
0.0297457
0.0297455
0.0297454
0.0297453
0.0297452
0.0297451
0.029745
0.029745
0.0297449
0.029745
0.029745
0.0297451
0.0297453
0.0297454
0.0297457
0.0297459
0.0297463
0.0297466
0.0297471
0.0297475
0.029748
0.0297486
0.0297492
0.0297498
0.0297505
0.0297512
0.0288031
0.0287999
0.0287999
0.0288006
0.0288013
0.0288021
0.0288029
0.0288036
0.0288043
0.0288049
0.0288055
0.028806
0.0288065
0.028807
0.0288074
0.0288078
0.0288081
0.0288084
0.0288086
0.0288088
0.028809
0.0288091
0.0288092
0.0288092
0.0288092
0.0288092
0.0288092
0.0288091
0.028809
0.0288089
0.0288088
0.0288087
0.0288085
0.0288084
0.0288083
0.0288081
0.028808
0.0288079
0.0288078
0.0288077
0.0288077
0.0288077
0.0288077
0.0288078
0.0288078
0.028808
0.0288081
0.0288084
0.0288086
0.0288089
0.0288093
0.0288097
0.0288101
0.0288106
0.0288111
0.0288117
0.0288123
0.0288129
0.0288134
0.0279331
0.0279301
0.0279301
0.0279308
0.0279315
0.0279323
0.027933
0.0279337
0.0279344
0.027935
0.0279356
0.0279361
0.0279366
0.027937
0.0279374
0.0279378
0.0279381
0.0279384
0.0279386
0.0279388
0.027939
0.0279391
0.0279392
0.0279393
0.0279393
0.0279393
0.0279393
0.0279393
0.0279392
0.0279391
0.027939
0.0279389
0.0279388
0.0279386
0.0279385
0.0279384
0.0279383
0.0279382
0.0279381
0.027938
0.027938
0.027938
0.027938
0.027938
0.0279381
0.0279382
0.0279384
0.0279386
0.0279388
0.0279391
0.0279394
0.0279398
0.0279402
0.0279407
0.0279412
0.0279417
0.0279423
0.0279429
0.0279432
0.0271261
0.0271233
0.0271233
0.027124
0.0271247
0.0271254
0.0271261
0.0271268
0.0271275
0.0271281
0.0271286
0.0271291
0.0271296
0.0271301
0.0271305
0.0271309
0.0271312
0.0271315
0.0271317
0.0271319
0.0271321
0.0271323
0.0271324
0.0271324
0.0271325
0.0271325
0.0271325
0.0271325
0.0271324
0.0271324
0.0271323
0.0271322
0.0271321
0.027132
0.0271319
0.0271318
0.0271317
0.0271316
0.0271315
0.0271314
0.0271314
0.0271314
0.0271314
0.0271315
0.0271315
0.0271316
0.0271318
0.027132
0.0271322
0.0271325
0.0271328
0.0271331
0.0271335
0.0271339
0.0271344
0.0271349
0.0271354
0.027136
0.0271361
0.0263783
0.0263756
0.0263756
0.0263762
0.0263769
0.0263777
0.0263784
0.026379
0.0263796
0.0263802
0.0263808
0.0263813
0.0263818
0.0263823
0.0263827
0.026383
0.0263834
0.0263837
0.0263839
0.0263842
0.0263844
0.0263845
0.0263847
0.0263848
0.0263848
0.0263849
0.0263849
0.0263849
0.0263848
0.0263848
0.0263847
0.0263847
0.0263846
0.0263845
0.0263844
0.0263843
0.0263842
0.0263842
0.0263841
0.026384
0.026384
0.026384
0.026384
0.0263841
0.0263841
0.0263842
0.0263844
0.0263845
0.0263848
0.026385
0.0263853
0.0263856
0.026386
0.0263863
0.0263868
0.0263872
0.0263877
0.0263883
0.0263883
0.0256861
0.0256835
0.0256835
0.0256841
0.0256848
0.0256855
0.0256862
0.0256869
0.0256875
0.0256881
0.0256886
0.0256892
0.0256897
0.0256901
0.0256905
0.0256909
0.0256913
0.0256916
0.0256919
0.0256921