/*--------------------------------*- C++ -*----------------------------------*\
  =========                 |
  \\      /  F ield         | OpenFOAM: The Open Source CFD Toolbox
   \\    /   O peration     | Website:  https://openfoam.org
    \\  /    A nd           | Version:  7
     \\/     M anipulation  |
\*---------------------------------------------------------------------------*/
FoamFile
{
    version     2.0;
    format      ascii;
    class       volVectorField;
    location    "18500";
    object      U;
}
// * * * * * * * * * * * * * * * * * * * * * * * * * * * * * * * * * * * * * //

dimensions      [0 1 -1 0 0 0 0];

internalField   nonuniform List<vector> 
24000
(
(0.00398204 5.93886e-11 8.06859e-16)
(0.00398204 -9.08233e-11 7.90469e-16)
(0.00398206 -1.18096e-10 7.95617e-16)
(0.00398207 -8.24672e-11 7.21601e-16)
(0.00398208 -2.79603e-11 4.42263e-16)
(0.00398208 1.83723e-11 7.04911e-16)
(0.00398207 5.47608e-11 4.41587e-16)
(0.00398205 7.85258e-11 7.21773e-16)
(0.00398204 9.21457e-11 7.63493e-16)
(0.00398202 9.80651e-11 4.7409e-16)
(0.003982 9.39801e-11 7.43329e-16)
(0.00398199 8.53369e-11 7.44294e-16)
(0.00398197 8.00292e-11 7.46854e-16)
(0.00398196 6.99952e-11 7.258e-16)
(0.00398195 6.12858e-11 7.02166e-16)
(0.00398194 5.48701e-11 7.40254e-16)
(0.00398193 4.19188e-11 7.25268e-16)
(0.00398193 3.49659e-11 7.29e-16)
(0.00398192 2.6265e-11 7.03868e-16)
(0.00398192 1.46146e-11 6.61904e-16)
(0.00398192 7.08729e-12 7.47663e-16)
(0.00398192 1.84648e-13 6.89316e-16)
(0.00398192 -6.50699e-12 7.07944e-16)
(0.00398192 -1.57318e-11 6.86489e-16)
(0.00398192 -2.32317e-11 6.37585e-16)
(0.00398193 -2.54332e-11 7.28719e-16)
(0.00398193 -3.10679e-11 6.97987e-16)
(0.00398194 -3.79217e-11 7.08889e-16)
(0.00398194 -3.90885e-11 6.82759e-16)
(0.00398195 -4.10113e-11 6.36283e-16)
(0.00398196 -4.7565e-11 7.15803e-16)
(0.00398197 -5.10684e-11 6.87146e-16)
(0.00398198 -5.14611e-11 7.09846e-16)
(0.00398198 -5.26066e-11 6.65871e-16)
(0.00398199 -5.59016e-11 6.18093e-16)
(0.003982 -5.74207e-11 7.13685e-16)
(0.00398201 -5.57863e-11 6.90409e-16)
(0.00398202 -5.83881e-11 7.01594e-16)
(0.00398203 -5.60462e-11 6.59955e-16)
(0.00398204 -5.87821e-11 6.14454e-16)
(0.00398205 -4.986e-11 6.51997e-16)
(0.00398206 -4.47496e-11 9.40115e-16)
(0.00398207 -2.87044e-11 7.18145e-16)
(0.00398207 -1.44942e-11 7.16638e-16)
(0.00398208 -1.27153e-12 7.28688e-16)
(0.00398208 3.12828e-11 7.37851e-16)
(0.00398207 2.92112e-11 9.51263e-16)
(0.00398207 2.73942e-11 7.59282e-16)
(0.00398207 1.89424e-11 7.48146e-16)
(0.00398207 5.27125e-12 7.54753e-16)
(0.00398207 1.55875e-13 7.59151e-16)
(0.00398207 -7.3645e-12 1.01647e-15)
(0.00398207 -1.21033e-11 7.65473e-16)
(0.00398207 -1.64952e-11 1.00074e-15)
(0.00398208 -1.94374e-11 7.06705e-16)
(0.00398208 -2.27708e-11 7.79272e-16)
(0.00398208 -2.39495e-11 9.29974e-16)
(0.00398209 -2.34869e-11 7.83347e-16)
(0.00398209 -2.06548e-11 1.07383e-15)
(0.00398209 -1.83527e-11 7.37007e-16)
(0.00398209 -1.54347e-11 8.00155e-16)
(0.0039821 -1.02324e-11 9.28496e-16)
(0.0039821 -5.22669e-12 8.00268e-16)
(0.0039821 5.10556e-14 9.5028e-16)
(0.00398209 4.5611e-12 7.17565e-16)
(0.00398209 7.53806e-12 8.05778e-16)
(0.00398209 1.21281e-11 9.55745e-16)
(0.00398209 1.69778e-11 8.05804e-16)
(0.00398208 1.77803e-11 9.82586e-16)
(0.00398208 2.06952e-11 7.31918e-16)
(0.00398207 2.07557e-11 8.15406e-16)
(0.00398207 2.19775e-11 9.98746e-16)
(0.00398207 2.36048e-11 8.20723e-16)
(0.00398206 2.17159e-11 9.78474e-16)
(0.00398206 2.39613e-11 7.81473e-16)
(0.00398205 2.49649e-11 8.22254e-16)
(0.00398205 2.23212e-11 1.09958e-15)
(0.00398204 1.93113e-11 8.22675e-16)
(0.00398204 1.85435e-11 1.0248e-15)
(0.00398204 1.67271e-11 7.96156e-16)
(0.00398203 1.37804e-11 5.93752e-16)
(0.00398203 1.30472e-11 7.14749e-16)
(0.00398203 1.27781e-11 8.18966e-16)
(0.00398203 1.03802e-11 6.11169e-16)
(0.00398202 6.92441e-12 7.57098e-16)
(0.00398202 6.15512e-12 5.45636e-16)
(0.00398202 -1.0549e-12 7.49108e-16)
(0.00398202 -7.01187e-12 7.99347e-16)
(0.00398202 -6.77019e-12 4.87899e-16)
(0.00398202 -6.83358e-12 7.09749e-16)
(0.00398202 -3.30092e-12 5.2915e-16)
(0.00398202 -3.4084e-12 7.42633e-16)
(0.00398202 -3.78274e-12 7.94397e-16)
(0.00398202 -5.01513e-12 5.37265e-16)
(0.00398202 -8.12886e-12 6.89134e-16)
(0.00398202 -8.20093e-12 5.93363e-16)
(0.00398202 -1.07804e-11 6.87871e-16)
(0.00398203 -1.09086e-11 7.92002e-16)
(0.00398203 -1.26181e-11 5.05506e-16)
(0.00398203 -7.18614e-12 7.05458e-16)
(0.00398203 -8.05087e-12 5.118e-16)
(0.00398203 4.51559e-12 7.16325e-16)
(0.00398203 1.00402e-11 8.02762e-16)
(0.00398203 2.23701e-11 6.18472e-16)
(0.00398203 4.53102e-11 7.45675e-16)
(0.00398202 3.95234e-11 6.2424e-16)
(0.00398202 3.66325e-11 7.41475e-16)
(0.00398202 2.36242e-11 7.95312e-16)
(0.00398201 9.26232e-12 5.27943e-16)
(0.00398201 -2.98277e-12 7.19869e-16)
(0.00398201 -1.38594e-11 5.57093e-16)
(0.00398202 -2.0065e-11 5.92353e-16)
(0.00398202 -2.68112e-11 7.84237e-16)
(0.00398203 -3.00247e-11 6.27637e-16)
(0.00398203 -3.19162e-11 7.05541e-16)
(0.00398203 -3.06728e-11 6.19089e-16)
(0.00398204 -1.74056e-11 5.72473e-16)
(0.00398204 -2.36561e-11 7.84497e-16)
(0.00398205 -9.70926e-12 5.52951e-16)
(0.00398204 9.70914e-11 7.24531e-16)
(0.0120196 -7.13579e-11 2.44092e-15)
(0.0120196 -1.33077e-09 2.39001e-15)
(0.0120196 -1.53092e-09 2.4054e-15)
(0.0120197 -9.06002e-10 2.18562e-15)
(0.0120197 -7.505e-11 1.54305e-15)
(0.0120197 6.38956e-10 2.14034e-15)
(0.0120196 1.16886e-09 1.43674e-15)
(0.0120196 1.51335e-09 2.19264e-15)
(0.0120195 1.70153e-09 2.30254e-15)
(0.0120195 1.74639e-09 1.68682e-15)
(0.0120194 1.66491e-09 2.25614e-15)
(0.0120194 1.52836e-09 2.24978e-15)
(0.0120194 1.39416e-09 2.25795e-15)
(0.0120193 1.23269e-09 2.19345e-15)
(0.0120193 1.07612e-09 2.12817e-15)
(0.0120193 9.25548e-10 2.24594e-15)
(0.0120192 7.37544e-10 2.19242e-15)
(0.0120192 5.83033e-10 2.20385e-15)
(0.0120192 4.27027e-10 2.1276e-15)
(0.0120192 2.52561e-10 1.99618e-15)
(0.0120192 1.06245e-10 2.25653e-15)
(0.0120192 -2.31096e-11 2.07779e-15)
(0.0120192 -1.51001e-10 2.13994e-15)
(0.0120192 -2.88389e-10 2.07271e-15)
(0.0120192 -4.01633e-10 1.92767e-15)
(0.0120192 -4.71349e-10 2.2108e-15)
(0.0120192 -5.57814e-10 2.11716e-15)
(0.0120193 -6.53065e-10 2.14481e-15)
(0.0120193 -7.03914e-10 2.05566e-15)
(0.0120193 -7.49177e-10 1.92161e-15)
(0.0120193 -8.23148e-10 2.16633e-15)
(0.0120193 -8.76262e-10 2.07032e-15)
(0.0120194 -8.97826e-10 2.14414e-15)
(0.0120194 -9.20781e-10 2.01667e-15)
(0.0120194 -9.60081e-10 1.86924e-15)
(0.0120194 -9.83593e-10 2.15909e-15)
(0.0120195 -9.81405e-10 2.08276e-15)
(0.0120195 -9.95617e-10 2.12267e-15)
(0.0120195 -9.95881e-10 1.99706e-15)
(0.0120196 -1.00242e-09 1.8544e-15)
(0.0120196 -9.22059e-10 1.97315e-15)
(0.0120196 -8.22483e-10 2.17948e-15)
(0.0120196 -6.53457e-10 2.16453e-15)
(0.0120197 -4.77309e-10 2.1682e-15)
(0.0120197 -2.59584e-10 2.20346e-15)
(0.0120197 7.54736e-11 2.23169e-15)
(0.0120197 1.91446e-10 2.37189e-15)
(0.0120197 2.06291e-10 2.28688e-15)
(0.0120197 1.39813e-10 2.26434e-15)
(0.0120197 1.72146e-11 2.28291e-15)
(0.0120197 -6.49071e-11 2.29686e-15)
(0.0120197 -1.47858e-10 2.39621e-15)
(0.0120197 -2.1592e-10 2.30731e-15)
(0.0120197 -2.68983e-10 2.39846e-15)
(0.0120197 -3.06848e-10 2.08034e-15)
(0.0120197 -3.37178e-10 2.36183e-15)
(0.0120197 -3.43041e-10 2.41685e-15)
(0.0120197 -3.21442e-10 2.36089e-15)
(0.0120197 -2.75155e-10 2.44823e-15)
(0.0120197 -2.24198e-10 2.30948e-15)
(0.0120197 -1.61907e-10 2.42265e-15)
(0.0120197 -7.83696e-11 2.45215e-15)
(0.0120197 8.26609e-12 2.41524e-15)
(0.0120197 9.31467e-11 2.49504e-15)
(0.0120197 1.68243e-10 2.29104e-15)
(0.0120197 2.29451e-10 2.43798e-15)
(0.0120197 2.98856e-10 2.49813e-15)
(0.0120197 3.63228e-10 2.43203e-15)
(0.0120197 3.95162e-10 2.53547e-15)
(0.0120197 4.25872e-10 2.33249e-15)
(0.0120197 4.37871e-10 2.46677e-15)
(0.0120197 4.53879e-10 2.56229e-15)
(0.0120196 4.68494e-10 2.47442e-15)
(0.0120196 4.59189e-10 2.55872e-15)
(0.0120196 4.69709e-10 2.21726e-15)
(0.0120196 4.72501e-10 2.49295e-15)
(0.0120196 4.41482e-10 2.53341e-15)
(0.0120196 3.99669e-10 2.4818e-15)
(0.0120196 3.73264e-10 2.53197e-15)
(0.0120196 3.46263e-10 2.4728e-15)
(0.0120195 3.11113e-10 2.3573e-15)
(0.0120195 2.89525e-10 2.3266e-15)
(0.0120195 2.74446e-10 2.47775e-15)
(0.0120195 2.38519e-10 2.25807e-15)
(0.0120195 1.93521e-10 2.13703e-15)
(0.0120195 1.47393e-10 2.2502e-15)
(0.0120195 5.72934e-11 2.18225e-15)
(0.0120195 -1.24735e-11 2.42211e-15)
(0.0120195 -2.98367e-11 2.15507e-15)
(0.0120195 -2.86348e-11 2.22103e-15)
(0.0120195 -2.84106e-12 2.19344e-15)
(0.0120195 1.67677e-12 2.12914e-15)
(0.0120195 -6.34054e-12 2.40609e-15)
(0.0120195 -2.61032e-11 2.1982e-15)
(0.0120195 -5.9429e-11 2.14078e-15)
(0.0120195 -8.18769e-11 2.17367e-15)
(0.0120195 -1.14518e-10 2.21403e-15)
(0.0120195 -1.41258e-10 2.39535e-15)
(0.0120195 -1.62023e-10 2.16219e-15)
(0.0120195 -1.45923e-10 2.23523e-15)
(0.0120195 -1.42211e-10 2.17382e-15)
(0.0120195 -5.26541e-11 2.23551e-15)
(0.0120195 2.10209e-11 2.4282e-15)
(0.0120195 1.78105e-10 2.22238e-15)
(0.0120195 4.07395e-10 2.26108e-15)
(0.0120195 4.31024e-10 2.23836e-15)
(0.0120195 3.84965e-10 2.09941e-15)
(0.0120195 2.53249e-10 2.40694e-15)
(0.0120195 8.39615e-11 2.18325e-15)
(0.0120195 -7.48339e-11 2.02621e-15)
(0.0120195 -2.13568e-10 2.23912e-15)
(0.0120195 -3.13827e-10 2.16044e-15)
(0.0120195 -4.00141e-10 2.37817e-15)
(0.0120195 -4.57454e-10 2.24136e-15)
(0.0120195 -4.9817e-10 2.18471e-15)
(0.0120195 -4.82389e-10 2.21685e-15)
(0.0120196 -3.63022e-10 2.13826e-15)
(0.0120196 -4.14626e-10 2.37788e-15)
(0.0120196 -5.755e-11 2.23013e-15)
(0.0120196 6.07878e-10 2.09306e-15)
(0.0202205 -9.71176e-10 4.134e-15)
(0.0202205 -3.90967e-09 4.01824e-15)
(0.0202206 -4.13964e-09 4.04972e-15)
(0.0202206 -2.25521e-09 3.67138e-15)
(0.0202206 1.29974e-10 3.3774e-15)
(0.0202206 2.15799e-09 3.64483e-15)
(0.0202206 3.6433e-09 3.44349e-15)
(0.0202205 4.60082e-09 3.75598e-15)
(0.0202204 5.11073e-09 3.85586e-15)
(0.0202203 5.19823e-09 3.56008e-15)
(0.0202203 4.94315e-09 3.85671e-15)
(0.0202202 4.53908e-09 3.78099e-15)
(0.0202201 4.12214e-09 3.80335e-15)
(0.02022 3.64723e-09 3.68676e-15)
(0.02022 3.17877e-09 3.59737e-15)
(0.0202199 2.71609e-09 3.81954e-15)
(0.0202199 2.17124e-09 3.68872e-15)
(0.0202199 1.701e-09 3.7122e-15)
(0.0202199 1.23607e-09 3.57591e-15)
(0.0202198 7.33361e-10 3.35823e-15)
(0.0202198 2.96051e-10 3.79837e-15)
(0.0202198 -9.47554e-11 3.46834e-15)
(0.0202198 -4.78051e-10 3.60946e-15)
(0.0202198 -8.70447e-10 3.46804e-15)
(0.0202199 -1.19546e-09 3.23197e-15)
(0.0202199 -1.41476e-09 3.74492e-15)
(0.0202199 -1.66551e-09 3.57763e-15)
(0.0202199 -1.93536e-09 3.62053e-15)
(0.02022 -2.10021e-09 3.43195e-15)
(0.02022 -2.24001e-09 3.23017e-15)
(0.02022 -2.43765e-09 3.68231e-15)
(0.0202201 -2.58608e-09 3.46076e-15)
(0.0202201 -2.65712e-09 3.61014e-15)
(0.0202202 -2.72644e-09 3.38648e-15)
(0.0202202 -2.83236e-09 3.13562e-15)
(0.0202203 -2.9017e-09 3.64733e-15)
(0.0202203 -2.90281e-09 3.4791e-15)
(0.0202203 -2.93712e-09 3.57979e-15)
(0.0202204 -2.95093e-09 3.34923e-15)
(0.0202204 -2.96134e-09 3.10041e-15)
(0.0202205 -2.75214e-09 3.3385e-15)
(0.0202205 -2.47074e-09 3.47911e-15)
(0.0202206 -2.0357e-09 3.64087e-15)
(0.0202206 -1.56248e-09 3.65408e-15)
(0.0202206 -9.58252e-10 3.71519e-15)
(0.0202206 -7.50773e-11 3.7626e-15)
(0.0202206 3.19161e-10 3.76227e-15)
(0.0202206 4.11365e-10 3.84138e-15)
(0.0202206 2.71747e-10 3.81751e-15)
(0.0202206 -2.0645e-11 3.84997e-15)
(0.0202206 -2.40817e-10 3.87325e-15)
(0.0202206 -4.59341e-10 3.82581e-15)
(0.0202206 -6.44217e-10 3.87807e-15)
(0.0202207 -7.85559e-10 3.87023e-15)
(0.0202207 -8.84184e-10 4.06194e-15)
(0.0202207 -9.55739e-10 4.00888e-15)
(0.0202207 -9.59166e-10 3.90193e-15)
(0.0202207 -8.85638e-10 3.96538e-15)
(0.0202207 -7.47166e-10 3.96724e-15)
(0.0202207 -5.89454e-10 4.14502e-15)
(0.0202207 -3.97737e-10 4.10162e-15)
(0.0202207 -1.52395e-10 3.99467e-15)
(0.0202207 1.0196e-10 4.06311e-15)
(0.0202207 3.48342e-10 4.05791e-15)
(0.0202207 5.68511e-10 4.16111e-15)
(0.0202207 7.52974e-10 4.13304e-15)
(0.0202207 9.51477e-10 4.04956e-15)
(0.0202207 1.13158e-09 4.09256e-15)
(0.0202207 1.22978e-09 4.08448e-15)
(0.0202206 1.31307e-09 4.36758e-15)
(0.0202206 1.35128e-09 4.18142e-15)
(0.0202206 1.39539e-09 4.1105e-15)
(0.0202206 1.43322e-09 4.15913e-15)
(0.0202206 1.41322e-09 4.15276e-15)
(0.0202205 1.43043e-09 4.5142e-15)
(0.0202205 1.42786e-09 4.22174e-15)
(0.0202205 1.34351e-09 4.11461e-15)
(0.0202205 1.22592e-09 4.1729e-15)
(0.0202204 1.14204e-09 4.1315e-15)
(0.0202204 1.06489e-09 4.38081e-15)
(0.0202204 9.69448e-10 4.10128e-15)
(0.0202204 9.01968e-10 4.19174e-15)
(0.0202204 8.50721e-10 4.20201e-15)
(0.0202204 7.48078e-10 3.94723e-15)
(0.0202204 6.19595e-10 4.19095e-15)
(0.0202203 4.69257e-10 3.94841e-15)
(0.0202203 2.2088e-10 4.19045e-15)
(0.0202203 3.69034e-11 4.10504e-15)
(0.0202203 -1.9669e-11 3.81656e-15)
(0.0202203 -2.11214e-11 4.22949e-15)
(0.0202203 3.75785e-11 3.85691e-15)
(0.0202203 4.92254e-11 4.29754e-15)
(0.0202203 2.50416e-11 4.06996e-15)
(0.0202203 -3.03759e-11 3.82662e-15)
(0.0202203 -1.20468e-10 4.14058e-15)
(0.0202203 -1.9382e-10 3.81066e-15)
(0.0202203 -2.89942e-10 4.02047e-15)
(0.0202203 -3.77829e-10 4.06106e-15)
(0.0202203 -4.46471e-10 3.80321e-15)
(0.0202204 -4.34445e-10 4.05576e-15)
(0.0202204 -4.3663e-10 3.84347e-15)
(0.0202204 -2.37754e-10 4.08e-15)
(0.0202204 -5.04123e-11 4.10317e-15)
(0.0202204 3.64531e-10 3.85134e-15)
(0.0202204 9.58775e-10 4.13613e-15)
(0.0202203 1.06747e-09 3.89324e-15)
(0.0202203 9.56132e-10 4.11184e-15)
(0.0202203 6.22011e-10 4.07041e-15)
(0.0202203 1.80415e-10 3.80517e-15)
(0.0202203 -2.4506e-10 4.06827e-15)
(0.0202203 -6.21048e-10 3.8954e-15)
(0.0202203 -9.03104e-10 3.78022e-15)
(0.0202204 -1.14053e-09 4.02999e-15)
(0.0202204 -1.30718e-09 3.87884e-15)
(0.0202204 -1.42994e-09 4.20794e-15)
(0.0202204 -1.39751e-09 3.85578e-15)
(0.0202204 -1.10125e-09 3.75846e-15)
(0.0202205 -1.20683e-09 4.02504e-15)
(0.0202205 -1.8639e-10 3.86845e-15)
(0.0202205 1.10705e-09 4.1228e-15)
(0.0285525 -3.25635e-09 5.83722e-15)
(0.0285526 -7.94211e-09 5.66262e-15)
(0.0285527 -7.6849e-09 5.71768e-15)
(0.0285528 -3.76786e-09 5.17466e-15)
(0.0285528 9.12456e-10 5.11255e-15)
(0.0285527 4.84083e-09 5.20927e-15)
(0.0285526 7.68414e-09 5.20897e-15)
(0.0285525 9.50004e-09 5.40816e-15)
(0.0285524 1.04394e-08 5.41786e-15)
(0.0285523 1.0526e-08 5.33171e-15)
(0.0285522 9.98001e-09 5.53583e-15)
(0.0285521 9.16548e-09 5.32387e-15)
(0.028552 8.30346e-09 5.3799e-15)
(0.0285519 7.34924e-09 5.18405e-15)
(0.0285518 6.38887e-09 5.11241e-15)
(0.0285518 5.43079e-09 5.54012e-15)
(0.0285517 4.34287e-09 5.19654e-15)
(0.0285517 3.3796e-09 5.24962e-15)
(0.0285517 2.4367e-09 5.02388e-15)
(0.0285516 1.44029e-09 4.83325e-15)
(0.0285516 5.55296e-10 5.34188e-15)
(0.0285516 -2.44987e-10 4.93865e-15)
(0.0285516 -1.02539e-09 5.13028e-15)
(0.0285517 -1.79511e-09 4.8129e-15)
(0.0285517 -2.43315e-09 4.63602e-15)
(0.0285517 -2.89091e-09 5.2991e-15)
(0.0285517 -3.39126e-09 5.0696e-15)
(0.0285518 -3.91902e-09 5.14365e-15)
(0.0285518 -4.26874e-09 4.8974e-15)
(0.0285519 -4.55901e-09 4.58761e-15)
(0.0285519 -4.92816e-09 5.20919e-15)
(0.028552 -5.2111e-09 4.79095e-15)
(0.028552 -5.36253e-09 5.11075e-15)
(0.0285521 -5.51202e-09 4.8507e-15)
(0.0285522 -5.71204e-09 4.50087e-15)
(0.0285522 -5.84392e-09 5.33859e-15)
(0.0285523 -5.8509e-09 4.97276e-15)
(0.0285523 -5.91383e-09 5.0755e-15)
(0.0285524 -5.95881e-09 4.79705e-15)
(0.0285525 -5.97125e-09 4.46224e-15)
(0.0285525 -5.57412e-09 4.76926e-15)
(0.0285526 -5.03257e-09 4.82603e-15)
(0.0285527 -4.25815e-09 5.16601e-15)
(0.0285527 -3.37812e-09 5.16489e-15)
(0.0285527 -2.22889e-09 5.26452e-15)
(0.0285528 -5.93562e-10 5.32512e-15)
(0.0285528 2.49625e-10 5.18904e-15)
(0.0285528 5.07653e-10 5.4368e-15)
(0.0285528 3.13834e-10 5.39973e-15)
(0.0285528 -1.7059e-10 5.45619e-15)
(0.0285528 -5.69233e-10 5.4814e-15)
(0.0285528 -9.69149e-10 5.28398e-15)
(0.0285528 -1.31313e-09 5.48861e-15)
(0.0285528 -1.57188e-09 5.38291e-15)
(0.0285528 -1.74728e-09 5.72112e-15)
(0.0285528 -1.86226e-09 5.65306e-15)
(0.0285529 -1.84374e-09 5.39883e-15)
(0.0285529 -1.67799e-09 5.6069e-15)
(0.0285529 -1.39347e-09 5.50673e-15)
(0.0285529 -1.06417e-09 5.74212e-15)
(0.0285529 -6.65133e-10 5.76483e-15)
(0.0285529 -1.70553e-10 5.54336e-15)
(0.0285529 3.38606e-10 5.75068e-15)
(0.0285529 8.27522e-10 5.66126e-15)
(0.0285529 1.26779e-09 5.83265e-15)
(0.0285529 1.64355e-09 5.82761e-15)
(0.0285529 2.03366e-09 5.62794e-15)
(0.0285528 2.38089e-09 5.7991e-15)
(0.0285528 2.5795e-09 5.67323e-15)
(0.0285528 2.73727e-09 5.8897e-15)
(0.0285527 2.81608e-09 5.88901e-15)
(0.0285527 2.90049e-09 5.68795e-15)
(0.0285527 2.96968e-09 5.88301e-15)
(0.0285526 2.93653e-09 5.78649e-15)
(0.0285526 2.95209e-09 6.04647e-15)
(0.0285526 2.92905e-09 5.95798e-15)
(0.0285525 2.76649e-09 5.70303e-15)
(0.0285525 2.53786e-09 5.90421e-15)
(0.0285525 2.36298e-09 5.75704e-15)
(0.0285525 2.21209e-09 6.0844e-15)
(0.0285524 2.03128e-09 5.82047e-15)
(0.0285524 1.89092e-09 5.9396e-15)
(0.0285524 1.77782e-09 5.92026e-15)
(0.0285524 1.57442e-09 5.6377e-15)
(0.0285524 1.32007e-09 5.78823e-15)
(0.0285523 9.90846e-10 5.64679e-15)
(0.0285523 5.14404e-10 5.85711e-15)
(0.0285523 1.88038e-10 5.77753e-15)
(0.0285523 7.22969e-11 5.47234e-15)
(0.0285523 5.99244e-11 5.67854e-15)
(0.0285523 1.53698e-10 5.51883e-15)
(0.0285523 1.70403e-10 5.74674e-15)
(0.0285523 1.19881e-10 5.72617e-15)
(0.0285523 1.30378e-11 5.4712e-15)
(0.0285523 -1.58133e-10 5.53524e-15)
(0.0285523 -3.14252e-10 5.44938e-15)
(0.0285523 -5.10618e-10 5.65451e-15)
(0.0285523 -6.99296e-10 5.72619e-15)
(0.0285523 -8.5272e-10 5.45173e-15)
(0.0285523 -8.77289e-10 5.66073e-15)
(0.0285523 -9.11481e-10 5.49035e-15)
(0.0285524 -6.02147e-10 5.69577e-15)
(0.0285524 -2.78462e-10 5.77745e-15)
(0.0285524 4.89243e-10 5.4888e-15)
(0.0285524 1.57046e-09 5.72808e-15)
(0.0285523 1.81253e-09 5.54438e-15)
(0.0285523 1.62873e-09 5.69101e-15)
(0.0285523 1.03698e-09 5.73055e-15)
(0.0285523 2.39289e-10 5.43453e-15)
(0.0285523 -5.44585e-10 5.66904e-15)
(0.0285523 -1.24691e-09 5.54111e-15)
(0.0285523 -1.78721e-09 5.43932e-15)
(0.0285524 -2.23762e-09 5.75376e-15)
(0.0285524 -2.5667e-09 5.52942e-15)
(0.0285524 -2.81625e-09 5.62415e-15)
(0.0285525 -2.77175e-09 5.47826e-15)
(0.0285525 -2.25008e-09 5.3996e-15)
(0.0285525 -2.40244e-09 5.73983e-15)
(0.0285525 -3.93655e-10 5.5222e-15)
(0.0285525 1.1562e-09 5.73696e-15)
(0.036891 -7.60745e-09 7.54016e-15)
(0.0368911 -1.34097e-08 7.26968e-15)
(0.0368912 -1.16711e-08 7.37735e-15)
(0.0368912 -4.89776e-09 6.89972e-15)
(0.0368912 2.66582e-09 6.92864e-15)
(0.0368911 8.93008e-09 6.95602e-15)
(0.036891 1.34147e-08 6.95978e-15)
(0.0368909 1.62517e-08 7.11665e-15)
(0.0368908 1.76671e-08 7.11915e-15)
(0.0368906 1.76456e-08 7.06838e-15)
(0.0368905 1.66791e-08 7.25781e-15)
(0.0368904 1.5373e-08 6.82232e-15)
(0.0368902 1.39065e-08 6.97573e-15)
(0.0368901 1.22707e-08 6.63368e-15)
(0.03689 1.06379e-08 6.66524e-15)
(0.03689 8.99845e-09 7.02927e-15)
(0.0368899 7.18773e-09 6.64495e-15)
(0.0368899 5.56133e-09 6.80682e-15)
(0.0368898 3.9767e-09 6.41697e-15)
(0.0368898 2.33032e-09 6.32761e-15)
(0.0368898 8.48921e-10 6.96339e-15)
(0.0368898 -5.07167e-10 6.63647e-15)
(0.0368898 -1.82442e-09 6.73344e-15)
(0.0368898 -3.07815e-09 6.76439e-15)
(0.0368898 -4.11729e-09 6.3991e-15)
(0.0368899 -4.90281e-09 6.99616e-15)
(0.0368899 -5.73656e-09 6.86137e-15)
(0.03689 -6.59874e-09 6.70515e-15)
(0.03689 -7.20426e-09 6.63149e-15)
(0.0368901 -7.70057e-09 6.32032e-15)
(0.0368902 -8.27821e-09 6.89239e-15)
(0.0368902 -8.7245e-09 6.69477e-15)
(0.0368903 -8.98823e-09 6.66339e-15)
(0.0368904 -9.25273e-09 6.59984e-15)
(0.0368905 -9.56807e-09 6.22834e-15)
(0.0368905 -9.77798e-09 6.83435e-15)
(0.0368906 -9.83629e-09 6.71571e-15)
(0.0368907 -9.9463e-09 6.62366e-15)
(0.0368908 -9.99961e-09 6.52549e-15)
(0.0368909 -1.00055e-08 6.15871e-15)
(0.0368909 -9.35233e-09 6.31013e-15)
(0.036891 -8.49223e-09 6.53427e-15)
(0.0368911 -7.36187e-09 6.76581e-15)
(0.0368911 -5.99722e-09 6.66762e-15)
(0.0368912 -4.18011e-09 6.84145e-15)
(0.0368912 -1.63553e-09 6.89195e-15)
(0.0368912 -1.83616e-10 6.95534e-15)
(0.0368912 3.46767e-10 7.09485e-15)
(0.0368912 1.52535e-10 6.97783e-15)
(0.0368913 -5.01176e-10 7.08993e-15)
(0.0368913 -1.08957e-09 7.09082e-15)
(0.0368913 -1.69879e-09 7.07343e-15)
(0.0368913 -2.22711e-09 7.15211e-15)
(0.0368913 -2.61652e-09 7.23297e-15)
(0.0368913 -2.87046e-09 7.22226e-15)
(0.0368914 -3.01651e-09 7.27829e-15)
(0.0368914 -2.94169e-09 7.23544e-15)
(0.0368914 -2.63449e-09 7.30084e-15)
(0.0368914 -2.14788e-09 7.37609e-15)
(0.0368914 -1.57879e-09 7.47612e-15)
(0.0368914 -8.91627e-10 7.39315e-15)
(0.0368914 -6.10956e-11 7.40639e-15)
(0.0368914 7.85445e-10 7.48606e-15)
(0.0368914 1.58976e-09 7.6514e-15)
(0.0368914 2.31994e-09 7.62778e-15)
(0.0368914 2.95246e-09 7.49087e-15)
(0.0368913 3.59003e-09 7.57246e-15)
(0.0368913 4.14634e-09 7.56402e-15)
(0.0368913 4.47309e-09 7.60478e-15)
(0.0368912 4.7233e-09 7.50224e-15)
(0.0368912 4.85423e-09 7.57226e-15)
(0.0368911 4.98975e-09 7.58773e-15)
(0.0368911 5.09791e-09 7.65409e-15)
(0.0368911 5.04776e-09 7.7797e-15)
(0.036891 5.04695e-09 7.84207e-15)
(0.036891 4.98013e-09 7.67014e-15)
(0.0368909 4.71565e-09 7.60536e-15)
(0.0368909 4.34317e-09 7.68436e-15)
(0.0368909 4.04609e-09 7.72717e-15)
(0.0368908 3.80467e-09 7.77469e-15)
(0.0368908 3.51701e-09 7.84666e-15)
(0.0368908 3.27624e-09 7.639e-15)
(0.0368907 3.07268e-09 7.6251e-15)
(0.0368907 2.73291e-09 7.64182e-15)
(0.0368907 2.31116e-09 7.48698e-15)
(0.0368907 1.71157e-09 7.69333e-15)
(0.0368907 9.51362e-10 7.35749e-15)
(0.0368906 4.92391e-10 7.44811e-15)
(0.0368906 3.01323e-10 7.45369e-15)
(0.0368906 2.62364e-10 7.16647e-15)
(0.0368906 3.8366e-10 7.5057e-15)
(0.0368906 3.94173e-10 7.26008e-15)
(0.0368906 3.04774e-10 7.37924e-15)
(0.0368906 1.34976e-10 7.43559e-15)
(0.0368906 -1.39455e-10 7.18737e-15)
(0.0368906 -4.11772e-10 7.41916e-15)
(0.0368906 -7.48095e-10 7.17658e-15)
(0.0368906 -1.07988e-09 7.38342e-15)
(0.0368906 -1.36346e-09 7.42117e-15)
(0.0368906 -1.47254e-09 7.28947e-15)
(0.0368907 -1.58488e-09 7.4531e-15)
(0.0368907 -1.19141e-09 7.20144e-15)
(0.0368907 -7.36787e-10 7.43959e-15)
(0.0368907 4.60453e-10 7.44264e-15)
(0.0368907 2.10785e-09 7.22667e-15)
(0.0368907 2.49726e-09 7.54279e-15)
(0.0368907 2.25025e-09 7.35218e-15)
(0.0368907 1.38188e-09 7.38351e-15)
(0.0368907 1.91393e-10 7.37953e-15)
(0.0368907 -1.00103e-09 7.3509e-15)
(0.0368907 -2.09193e-09 7.49491e-15)
(0.0368907 -2.94642e-09 7.47187e-15)
(0.0368907 -3.6553e-09 7.55087e-15)
(0.0368908 -4.19419e-09 7.50648e-15)
(0.0368908 -4.61463e-09 7.1719e-15)
(0.0368908 -4.56756e-09 7.40427e-15)
(0.0368909 -3.79208e-09 7.41284e-15)
(0.0368909 -3.97513e-09 7.52651e-15)
(0.0368909 -6.53431e-10 7.4986e-15)
(0.0368909 2.44769e-10 7.43817e-15)
(0.0449685 -1.4276e-08 9.24232e-15)
(0.0449686 -1.989e-08 8.72702e-15)
(0.0449687 -1.54979e-08 8.99513e-15)
(0.0449688 -5.21663e-09 8.83966e-15)
(0.0449687 5.64205e-09 8.74269e-15)
(0.0449686 1.44559e-08 8.64543e-15)
(0.0449685 2.07028e-08 8.70872e-15)
(0.0449684 2.46318e-08 8.80369e-15)
(0.0449682 2.65075e-08 8.75184e-15)
(0.044968 2.63817e-08 8.78763e-15)
(0.0449679 2.49192e-08 8.94529e-15)
(0.0449677 2.29186e-08 8.50692e-15)
(0.0449676 2.06886e-08 8.57495e-15)
(0.0449675 1.82157e-08 8.28956e-15)
(0.0449674 1.57557e-08 8.24307e-15)
(0.0449673 1.32665e-08 8.62659e-15)
(0.0449672 1.05806e-08 8.30844e-15)
(0.0449672 8.1482e-09 8.36403e-15)
(0.0449671 5.78201e-09 8.01816e-15)
(0.0449671 3.35447e-09 7.92557e-15)
(0.0449671 1.14977e-09 8.25734e-15)
(0.0449671 -8.93946e-10 8.26694e-15)
(0.0449671 -2.87103e-09 8.33332e-15)
(0.0449671 -4.68403e-09 8.24886e-15)
(0.0449672 -6.19325e-09 8.13808e-15)
(0.0449672 -7.39215e-09 8.38533e-15)
(0.0449672 -8.63648e-09 8.20679e-15)
(0.0449673 -9.90143e-09 8.20385e-15)
(0.0449674 -1.08277e-08 8.02107e-15)
(0.0449674 -1.15761e-08 7.97916e-15)
(0.0449675 -1.23862e-08 8.25869e-15)
(0.0449676 -1.30157e-08 8.04931e-15)
(0.0449677 -1.34262e-08 8.14041e-15)
(0.0449678 -1.38478e-08 8.02656e-15)
(0.0449678 -1.42909e-08 7.94815e-15)
(0.0449679 -1.45897e-08 8.21522e-15)
(0.044968 -1.47351e-08 8.08111e-15)
(0.0449681 -1.49114e-08 8.09987e-15)
(0.0449682 -1.49653e-08 7.93782e-15)
(0.0449683 -1.49538e-08 7.83744e-15)
(0.0449684 -1.41271e-08 7.87853e-15)
(0.0449685 -1.29464e-08 8.47455e-15)
(0.0449686 -1.13397e-08 8.35094e-15)
(0.0449686 -9.41259e-09 8.48528e-15)
(0.0449687 -6.83816e-09 8.42888e-15)
(0.0449687 -3.27009e-09 8.41858e-15)
(0.0449688 -1.07321e-09 8.62699e-15)
(0.0449688 -1.67422e-10 8.72353e-15)
(0.0449688 -2.85195e-10 8.68812e-15)
(0.0449688 -1.04741e-09 8.72485e-15)
(0.0449688 -1.8146e-09 8.65201e-15)
(0.0449688 -2.64634e-09 8.92937e-15)
(0.0449689 -3.36662e-09 8.78973e-15)
(0.0449689 -3.88246e-09 8.98e-15)
(0.0449689 -4.20437e-09 9.05605e-15)
(0.0449689 -4.35665e-09 8.84174e-15)
(0.044969 -4.17977e-09 8.94841e-15)
(0.044969 -3.68071e-09 8.97604e-15)
(0.044969 -2.94479e-09 9.29681e-15)
(0.044969 -2.07155e-09 9.13182e-15)
(0.044969 -1.01911e-09 9.00446e-15)
(0.044969 2.23349e-10 9.15917e-15)
(0.044969 1.47663e-09 9.18535e-15)
(0.044969 2.65302e-09 9.55415e-15)
(0.0449689 3.73128e-09 9.36352e-15)
(0.0449689 4.67669e-09 9.1104e-15)
(0.0449689 5.60559e-09 9.30128e-15)
(0.0449688 6.39914e-09 9.30397e-15)
(0.0449688 6.87232e-09 9.41341e-15)
(0.0449688 7.22914e-09 9.39193e-15)
(0.0449687 7.42065e-09 9.21625e-15)
(0.0449687 7.61766e-09 9.52197e-15)
(0.0449686 7.77325e-09 9.3862e-15)
(0.0449686 7.69976e-09 9.73996e-15)
(0.0449685 7.66345e-09 9.61422e-15)
(0.0449685 7.52548e-09 9.31817e-15)
(0.0449684 7.13943e-09 9.41424e-15)
(0.0449684 6.59166e-09 9.42603e-15)
(0.0449683 6.15072e-09 9.5627e-15)
(0.0449683 5.81809e-09 9.48991e-15)
(0.0449682 5.40522e-09 9.9431e-15)
(0.0449682 5.03656e-09 9.1749e-15)
(0.0449682 4.7139e-09 9.30264e-15)
(0.0449681 4.2006e-09 9.56127e-15)
(0.0449681 3.56887e-09 9.12754e-15)
(0.0449681 2.7584e-09 9.77692e-15)
(0.0449681 1.7115e-09 9.18238e-15)
(0.0449681 1.01288e-09 9.1203e-15)
(0.0449681 7.07402e-10 9.40542e-15)
(0.0449681 6.18116e-10 8.83136e-15)
(0.044968 7.49835e-10 9.59332e-15)
(0.044968 7.30732e-10 8.89977e-15)
(0.044968 5.88094e-10 9.05042e-15)
(0.044968 3.50382e-10 9.32543e-15)
(0.044968 -4.8382e-11 8.87774e-15)
(0.044968 -4.71182e-10 9.65323e-15)
(0.044968 -9.87219e-10 8.99234e-15)
(0.044968 -1.50369e-09 9.0471e-15)
(0.044968 -1.96639e-09 9.32907e-15)
(0.0449681 -2.21749e-09 8.78969e-15)
(0.0449681 -2.46654e-09 9.38402e-15)
(0.0449681 -2.02865e-09 9.00467e-15)
(0.0449681 -1.46338e-09 9.09894e-15)
(0.0449681 7.44892e-11 9.3351e-15)
(0.0449681 2.29777e-09 8.86084e-15)
(0.0449681 2.96323e-09 9.44973e-15)
(0.0449681 2.70199e-09 8.9933e-15)
(0.0449681 1.57123e-09 9.03974e-15)
(0.0449681 -8.71545e-13 9.24972e-15)
(0.0449681 -1.61039e-09 8.844e-15)
(0.0449681 -3.1289e-09 9.53415e-15)
(0.0449682 -4.33134e-09 9.42806e-15)
(0.0449682 -5.32596e-09 9.32452e-15)
(0.0449682 -6.11785e-09 9.42087e-15)
(0.0449683 -6.75442e-09 8.95486e-15)
(0.0449683 -6.71189e-09 9.31957e-15)
(0.0449683 -5.66589e-09 9.3508e-15)
(0.0449684 -5.86486e-09 9.29061e-15)
(0.0449684 -8.9927e-10 9.40784e-15)
(0.0449684 -1.91168e-09 8.91476e-15)
(0.0524536 -2.24947e-08 1.08718e-14)
(0.0524537 -2.6674e-08 1.0569e-14)
(0.0524538 -1.85504e-08 1.05888e-14)
(0.0524538 -4.43194e-09 1.05311e-14)
(0.0524538 9.71643e-09 1.04226e-14)
(0.0524537 2.10435e-08 1.03412e-14)
(0.0524535 2.90329e-08 1.03504e-14)
(0.0524534 3.40413e-08 1.03985e-14)
(0.0524532 3.63138e-08 1.03881e-14)
(0.052453 3.60142e-08 1.03952e-14)
(0.0524529 3.40481e-08 1.05249e-14)
(0.0524527 3.13172e-08 9.90645e-15)
(0.0524526 2.82545e-08 1.00904e-14)
(0.0524524 2.48395e-08 9.76038e-15)
(0.0524523 2.14332e-08 9.75468e-15)
(0.0524522 1.80096e-08 1.02079e-14)
(0.0524522 1.43624e-08 9.74933e-15)
(0.0524521 1.09966e-08 9.83339e-15)
(0.0524521 7.75196e-09 9.43917e-15)
(0.052452 4.50069e-09 9.45144e-15)
(0.052452 1.48979e-09 9.54744e-15)
(0.052452 -1.38088e-09 9.75932e-15)
(0.052452 -4.10244e-09 9.82332e-15)
(0.0524521 -6.49532e-09 9.60986e-15)
(0.0524521 -8.52438e-09 9.75401e-15)
(0.0524522 -1.02132e-08 9.74915e-15)
(0.0524522 -1.19233e-08 9.54449e-15)
(0.0524523 -1.36472e-08 9.60792e-15)
(0.0524523 -1.49494e-08 9.21423e-15)
(0.0524524 -1.59735e-08 9.51377e-15)
(0.0524525 -1.702e-08 9.61178e-15)
(0.0524526 -1.78474e-08 9.36867e-15)
(0.0524527 -1.84445e-08 9.51369e-15)
(0.0524528 -1.90596e-08 9.1974e-15)
(0.0524529 -1.96669e-08 9.58558e-15)
(0.0524529 -2.00846e-08 9.57983e-15)
(0.052453 -2.03466e-08 9.37204e-15)
(0.0524531 -2.05861e-08 9.47061e-15)
(0.0524532 -2.06461e-08 9.09734e-15)
(0.0524534 -2.06284e-08 9.37571e-15)
(0.0524535 -1.9608e-08 9.37731e-15)
(0.0524535 -1.81632e-08 9.78815e-15)
(0.0524536 -1.60796e-08 9.82917e-15)
(0.0524537 -1.35392e-08 9.87742e-15)
(0.0524538 -1.01504e-08 9.88781e-15)
(0.0524538 -5.48271e-09 9.85318e-15)
(0.0524539 -2.48111e-09 1.02302e-14)
(0.0524539 -1.08978e-09 1.02319e-14)
(0.0524539 -1.00121e-09 1.02644e-14)
(0.0524539 -1.82427e-09 1.02057e-14)
(0.0524539 -2.75433e-09 1.01065e-14)
(0.052454 -3.7716e-09 1.04024e-14)
(0.052454 -4.67146e-09 1.03074e-14)
(0.052454 -5.29296e-09 1.06363e-14)
(0.052454 -5.66781e-09 1.06219e-14)
(0.0524541 -5.79412e-09 1.02599e-14)
(0.0524541 -5.46204e-09 1.06134e-14)
(0.0524541 -4.73255e-09 1.05161e-14)
(0.0524541 -3.72482e-09 1.08293e-14)
(0.0524541 -2.49893e-09 1.08026e-14)
(0.0524541 -9.80071e-10 1.0454e-14)
(0.0524541 7.26193e-10 1.08329e-14)
(0.0524541 2.38953e-09 1.07633e-14)
(0.0524541 3.96705e-09 1.11445e-14)
(0.0524541 5.4325e-09 1.09918e-14)
(0.052454 6.72796e-09 1.05831e-14)
(0.052454 7.97152e-09 1.10176e-14)
(0.0524539 9.01145e-09 1.08625e-14)
(0.0524539 9.63785e-09 1.11376e-14)
(0.0524538 1.01116e-08 1.10626e-14)
(0.0524538 1.04118e-08 1.07021e-14)
(0.0524537 1.06872e-08 1.10752e-14)
(0.0524537 1.08577e-08 1.09823e-14)
(0.0524536 1.07459e-08 1.13389e-14)
(0.0524536 1.06539e-08 1.12411e-14)
(0.0524535 1.04205e-08 1.08041e-14)
(0.0524535 9.90386e-09 1.11276e-14)
(0.0524534 9.1899e-09 1.10365e-14)
(0.0524534 8.60662e-09 1.13106e-14)
(0.0524533 8.16877e-09 1.11329e-14)
(0.0524533 7.60826e-09 1.13157e-14)
(0.0524533 7.08701e-09 1.10529e-14)
(0.0524532 6.62063e-09 1.09416e-14)
(0.0524532 5.93606e-09 1.13098e-14)
(0.0524532 5.06472e-09 1.09968e-14)