/*--------------------------------*- C++ -*----------------------------------*\
  =========                 |
  \\      /  F ield         | OpenFOAM: The Open Source CFD Toolbox
   \\    /   O peration     | Website:  https://openfoam.org
    \\  /    A nd           | Version:  7
     \\/     M anipulation  |
\*---------------------------------------------------------------------------*/
FoamFile
{
    version     2.0;
    format      ascii;
    class       volScalarField;
    location    "1500";
    object      k;
}
// * * * * * * * * * * * * * * * * * * * * * * * * * * * * * * * * * * * * * //

dimensions      [0 2 -2 0 0 0 0];

internalField   nonuniform List<scalar> 
4000
(
4.02243e-05
4.0227e-05
4.02275e-05
4.02274e-05
4.02272e-05
4.0227e-05
4.02268e-05
4.02266e-05
4.02265e-05
4.02263e-05
4.02261e-05
4.0226e-05
4.02258e-05
4.02257e-05
4.02255e-05
4.02254e-05
4.02252e-05
4.02251e-05
4.02249e-05
4.02248e-05
4.02246e-05
4.02245e-05
4.02244e-05
4.02242e-05
4.0224e-05
4.02239e-05
4.02237e-05
4.02236e-05
4.02234e-05
4.02232e-05
4.02231e-05
4.02229e-05
4.02227e-05
4.02225e-05
4.02223e-05
4.02222e-05
4.0222e-05
4.02218e-05
4.02215e-05
4.02213e-05
4.02211e-05
4.02209e-05
4.02207e-05
4.02204e-05
4.022e-05
4.02225e-05
4.02245e-05
4.02254e-05
4.02258e-05
4.02258e-05
4.02257e-05
4.02255e-05
4.02253e-05
4.0225e-05
4.02248e-05
4.02246e-05
4.02243e-05
4.0224e-05
4.02237e-05
4.02234e-05
4.02231e-05
4.02228e-05
4.02225e-05
4.02222e-05
4.02219e-05
4.02215e-05
4.02212e-05
4.02209e-05
4.02205e-05
4.02202e-05
4.02198e-05
4.02195e-05
4.02191e-05
4.02188e-05
4.02184e-05
4.02181e-05
4.02177e-05
4.02173e-05
4.0217e-05
4.02166e-05
4.02162e-05
4.02159e-05
4.02155e-05
4.02151e-05
4.02147e-05
4.02144e-05
4.0214e-05
4.02136e-05
4.02133e-05
4.02129e-05
4.02125e-05
4.02122e-05
4.02118e-05
4.02115e-05
4.02111e-05
4.02108e-05
4.02104e-05
4.02101e-05
4.02097e-05
4.02094e-05
4.02091e-05
4.02088e-05
4.02084e-05
4.0208e-05
4.02104e-05
4.02123e-05
4.02132e-05
4.02135e-05
4.02135e-05
4.02134e-05
4.02132e-05
4.0213e-05
4.02128e-05
4.02126e-05
4.02124e-05
4.02122e-05
4.0212e-05
4.02118e-05
4.02116e-05
4.02116e-05
4.02569e-05
4.02596e-05
4.02601e-05
4.02602e-05
4.02601e-05
4.026e-05
4.02599e-05
4.02598e-05
4.02597e-05
4.02596e-05
4.02594e-05
4.02593e-05
4.02592e-05
4.02591e-05
4.0259e-05
4.02589e-05
4.02588e-05
4.02587e-05
4.02585e-05
4.02584e-05
4.02583e-05
4.02582e-05
4.02581e-05
4.0258e-05
4.02578e-05
4.02577e-05
4.02576e-05
4.02574e-05
4.02573e-05
4.02572e-05
4.0257e-05
4.02569e-05
4.02567e-05
4.02565e-05
4.02564e-05
4.02562e-05
4.0256e-05
4.02559e-05
4.02557e-05
4.02555e-05
4.02553e-05
4.02551e-05
4.02549e-05
4.02547e-05
4.02544e-05
4.02547e-05
4.02555e-05
4.02563e-05
4.02568e-05
4.02571e-05
4.02573e-05
4.02574e-05
4.02574e-05
4.02573e-05
4.02572e-05
4.02571e-05
4.02569e-05
4.02567e-05
4.02565e-05
4.02563e-05
4.02561e-05
4.02559e-05
4.02556e-05
4.02554e-05
4.02551e-05
4.02548e-05
4.02545e-05
4.02543e-05
4.0254e-05
4.02537e-05
4.02534e-05
4.0253e-05
4.02527e-05
4.02524e-05
4.02521e-05
4.02518e-05
4.02514e-05
4.02511e-05
4.02508e-05
4.02504e-05
4.02501e-05
4.02497e-05
4.02494e-05
4.02491e-05
4.02487e-05
4.02484e-05
4.0248e-05
4.02477e-05
4.02473e-05
4.0247e-05
4.02467e-05
4.02463e-05
4.0246e-05
4.02457e-05
4.02453e-05
4.0245e-05
4.02447e-05
4.02443e-05
4.0244e-05
4.02437e-05
4.02434e-05
4.02431e-05
4.02428e-05
4.02424e-05
4.02427e-05
4.02434e-05
4.02441e-05
4.02446e-05
4.02449e-05
4.02451e-05
4.02452e-05
4.02452e-05
4.02451e-05
4.02451e-05
4.0245e-05
4.02449e-05
4.02448e-05
4.02446e-05
4.02445e-05
4.02445e-05
4.03096e-05
4.03122e-05
4.03127e-05
4.03129e-05
4.03129e-05
4.03128e-05
4.03128e-05
4.03127e-05
4.03127e-05
4.03126e-05
4.03125e-05
4.03125e-05
4.03124e-05
4.03123e-05
4.03122e-05
4.03122e-05
4.03121e-05
4.0312e-05
4.03119e-05
4.03118e-05
4.03117e-05
4.03117e-05
4.03116e-05
4.03115e-05
4.03114e-05
4.03113e-05
4.03112e-05
4.03111e-05
4.03109e-05
4.03108e-05
4.03107e-05
4.03106e-05
4.03105e-05
4.03103e-05
4.03102e-05
4.031e-05
4.03099e-05
4.03097e-05
4.03096e-05
4.03094e-05
4.03092e-05
4.0309e-05
4.03088e-05
4.03087e-05
4.03084e-05
4.03083e-05
4.03085e-05
4.03087e-05
4.0309e-05
4.03093e-05
4.03095e-05
4.03096e-05
4.03097e-05
4.03097e-05
4.03097e-05
4.03096e-05
4.03095e-05
4.03094e-05
4.03093e-05
4.03091e-05
4.0309e-05
4.03088e-05
4.03086e-05
4.03084e-05
4.03082e-05
4.03079e-05
4.03077e-05
4.03074e-05
4.03072e-05
4.03069e-05
4.03067e-05
4.03064e-05
4.03061e-05
4.03058e-05
4.03055e-05
4.03052e-05
4.03049e-05
4.03046e-05
4.03043e-05
4.0304e-05
4.03037e-05
4.03034e-05
4.03031e-05
4.03028e-05
4.03025e-05
4.03021e-05
4.03018e-05
4.03015e-05
4.03012e-05
4.03009e-05
4.03006e-05
4.03002e-05
4.02999e-05
4.02996e-05
4.02993e-05
4.0299e-05
4.02987e-05
4.02984e-05
4.02981e-05
4.02978e-05
4.02975e-05
4.02972e-05
4.02969e-05
4.02966e-05
4.02965e-05
4.02965e-05
4.02967e-05
4.0297e-05
4.02972e-05
4.02974e-05
4.02975e-05
4.02976e-05
4.02976e-05
4.02976e-05
4.02976e-05
4.02976e-05
4.02975e-05
4.02975e-05
4.02974e-05
4.02974e-05
4.03809e-05
4.03834e-05
4.0384e-05
4.03841e-05
4.03842e-05
4.03842e-05
4.03842e-05
4.03841e-05
4.03841e-05
4.03841e-05
4.03841e-05
4.0384e-05
4.0384e-05
4.03839e-05
4.03839e-05
4.03838e-05
4.03838e-05
4.03838e-05
4.03837e-05
4.03836e-05
4.03836e-05
4.03835e-05
4.03835e-05
4.03834e-05
4.03833e-05
4.03832e-05
4.03832e-05
4.03831e-05
4.0383e-05
4.03829e-05
4.03828e-05
4.03827e-05
4.03826e-05
4.03825e-05
4.03823e-05
4.03822e-05
4.03821e-05
4.0382e-05
4.03818e-05
4.03817e-05
4.03815e-05
4.03814e-05
4.03812e-05
4.0381e-05
4.03808e-05
4.03807e-05
4.03806e-05
4.03806e-05
4.03806e-05
4.03807e-05
4.03808e-05
4.03809e-05
4.03809e-05
4.03809e-05
4.03809e-05
4.03809e-05
4.03808e-05
4.03807e-05
4.03806e-05
4.03805e-05
4.03804e-05
4.03802e-05
4.03801e-05
4.03799e-05
4.03797e-05
4.03795e-05
4.03793e-05
4.03791e-05
4.03789e-05
4.03787e-05
4.03784e-05
4.03782e-05
4.03779e-05
4.03777e-05
4.03774e-05
4.03772e-05
4.03769e-05
4.03766e-05
4.03763e-05
4.03761e-05
4.03758e-05
4.03755e-05
4.03752e-05
4.03749e-05
4.03746e-05
4.03743e-05
4.0374e-05
4.03737e-05
4.03734e-05
4.03731e-05
4.03728e-05
4.03726e-05
4.03723e-05
4.0372e-05
4.03717e-05
4.03714e-05
4.03711e-05
4.03708e-05
4.03705e-05
4.03703e-05
4.037e-05
4.03697e-05
4.03695e-05
4.03692e-05
4.0369e-05
4.03688e-05
4.03687e-05
4.03688e-05
4.03688e-05
4.03689e-05
4.03689e-05
4.0369e-05
4.0369e-05
4.0369e-05
4.0369e-05
4.0369e-05
4.0369e-05
4.0369e-05
4.0369e-05
4.03689e-05
4.04699e-05
4.04724e-05
4.04729e-05
4.0473e-05
4.04731e-05
4.04731e-05
4.04731e-05
4.04731e-05
4.04731e-05
4.04731e-05
4.04731e-05
4.04731e-05
4.04731e-05
4.04731e-05
4.04731e-05
4.0473e-05
4.0473e-05
4.0473e-05
4.0473e-05
4.04729e-05
4.04729e-05
4.04729e-05
4.04728e-05
4.04728e-05
4.04727e-05
4.04727e-05
4.04726e-05
4.04725e-05
4.04725e-05
4.04724e-05
4.04723e-05
4.04722e-05
4.04721e-05
4.04721e-05
4.0472e-05
4.04719e-05
4.04717e-05
4.04716e-05
4.04715e-05
4.04714e-05
4.04712e-05
4.04711e-05
4.04709e-05
4.04708e-05
4.04706e-05
4.04705e-05
4.04703e-05
4.04702e-05
4.04701e-05
4.04701e-05
4.04701e-05
4.047e-05
4.047e-05
4.047e-05
4.047e-05
4.04699e-05
4.04699e-05
4.04698e-05
4.04697e-05
4.04696e-05
4.04695e-05
4.04694e-05
4.04692e-05
4.04691e-05
4.04689e-05
4.04687e-05
4.04685e-05
4.04684e-05
4.04682e-05
4.0468e-05
4.04677e-05
4.04675e-05
4.04673e-05
4.04671e-05
4.04668e-05
4.04666e-05
4.04663e-05
4.04661e-05
4.04658e-05
4.04656e-05
4.04653e-05
4.0465e-05
4.04648e-05
4.04645e-05
4.04642e-05
4.0464e-05
4.04637e-05
4.04634e-05
4.04631e-05
4.04629e-05
4.04626e-05
4.04623e-05
4.04621e-05
4.04618e-05
4.04615e-05
4.04612e-05
4.0461e-05
4.04607e-05
4.04605e-05
4.04602e-05
4.046e-05
4.04597e-05
4.04595e-05
4.04592e-05
4.0459e-05
4.04588e-05
4.04586e-05
4.04585e-05
4.04584e-05
4.04584e-05
4.04584e-05
4.04584e-05
4.04583e-05
4.04583e-05
4.04583e-05
4.04583e-05
4.04583e-05
4.04583e-05
4.04583e-05
4.04582e-05
4.05759e-05
4.05783e-05
4.05788e-05
4.0579e-05
4.0579e-05
4.0579e-05
4.05791e-05
4.05791e-05
4.05791e-05
4.05791e-05
4.05791e-05
4.05791e-05
4.05791e-05
4.05791e-05
4.05791e-05
4.05791e-05
4.05791e-05
4.05791e-05
4.05791e-05
4.05791e-05
4.05791e-05
4.05791e-05
4.0579e-05
4.0579e-05
4.0579e-05
4.0579e-05
4.05789e-05
4.05789e-05
4.05788e-05
4.05788e-05
4.05787e-05
4.05786e-05
4.05786e-05
4.05785e-05
4.05784e-05
4.05783e-05
4.05782e-05
4.05781e-05
4.0578e-05
4.05779e-05
4.05778e-05
4.05777e-05
4.05775e-05
4.05774e-05
4.05772e-05
4.05771e-05
4.0577e-05
4.05768e-05
4.05767e-05
4.05766e-05
4.05765e-05
4.05764e-05
4.05763e-05
4.05763e-05
4.05762e-05
4.05761e-05
4.0576e-05
4.05759e-05
4.05758e-05
4.05757e-05
4.05756e-05
4.05755e-05
4.05754e-05
4.05752e-05
4.05751e-05
4.05749e-05
4.05747e-05
4.05746e-05
4.05744e-05
4.05742e-05
4.0574e-05
4.05738e-05
4.05736e-05
4.05734e-05
4.05731e-05
4.05729e-05
4.05727e-05
4.05725e-05
4.05722e-05
4.0572e-05
4.05717e-05
4.05715e-05
4.05712e-05
4.0571e-05
4.05707e-05
4.05705e-05
4.05702e-05
4.057e-05
4.05697e-05
4.05695e-05
4.05692e-05
4.0569e-05
4.05687e-05
4.05685e-05
4.05682e-05
4.0568e-05
4.05677e-05
4.05675e-05
4.05672e-05
4.0567e-05
4.05668e-05
4.05665e-05
4.05663e-05
4.05661e-05
4.05659e-05
4.05657e-05
4.05655e-05
4.05653e-05
4.05652e-05
4.05651e-05
4.0565e-05
4.05649e-05
4.05649e-05
4.05648e-05
4.05648e-05
4.05648e-05
4.05647e-05
4.05647e-05
4.05647e-05
4.05646e-05
4.06987e-05
4.0701e-05
4.07015e-05
4.07016e-05
4.07017e-05
4.07017e-05
4.07017e-05
4.07018e-05
4.07018e-05
4.07018e-05
4.07018e-05
4.07018e-05
4.07019e-05
4.07019e-05
4.07019e-05
4.07019e-05
4.07019e-05
4.07019e-05
4.07019e-05
4.07019e-05
4.07019e-05
4.07019e-05
4.07019e-05
4.07019e-05
4.07019e-05
4.07019e-05
4.07018e-05
4.07018e-05
4.07018e-05
4.07017e-05
4.07017e-05
4.07016e-05
4.07016e-05
4.07015e-05
4.07015e-05
4.07014e-05
4.07013e-05
4.07012e-05
4.07011e-05
4.0701e-05
4.07009e-05
4.07008e-05
4.07007e-05
4.07006e-05
4.07005e-05
4.07003e-05
4.07002e-05
4.07e-05
4.06999e-05
4.06998e-05
4.06996e-05
4.06995e-05
4.06994e-05
4.06993e-05
4.06992e-05
4.06991e-05
4.0699e-05
4.06989e-05
4.06988e-05
4.06987e-05
4.06985e-05
4.06984e-05
4.06983e-05
4.06981e-05
4.0698e-05
4.06978e-05
4.06976e-05
4.06975e-05
4.06973e-05
4.06971e-05
4.06969e-05
4.06967e-05
4.06965e-05
4.06963e-05
4.06961e-05
4.06959e-05
4.06957e-05
4.06955e-05
4.06953e-05
4.0695e-05
4.06948e-05
4.06946e-05
4.06944e-05
4.06941e-05
4.06939e-05
4.06937e-05
4.06934e-05
4.06932e-05
4.0693e-05
4.06927e-05
4.06925e-05
4.06922e-05
4.0692e-05
4.06918e-05
4.06916e-05
4.06913e-05
4.06911e-05
4.06909e-05
4.06907e-05
4.06904e-05
4.06902e-05
4.069e-05
4.06898e-05
4.06896e-05
4.06894e-05
4.06892e-05
4.0689e-05
4.06888e-05
4.06887e-05
4.06886e-05
4.06884e-05
4.06883e-05
4.06882e-05
4.06882e-05
4.06881e-05
4.0688e-05
4.0688e-05
4.06879e-05
4.06879e-05
4.06878e-05
4.08382e-05
4.08404e-05
4.08409e-05
4.08411e-05
4.08411e-05
4.08411e-05
4.08412e-05
4.08412e-05
4.08412e-05
4.08412e-05
4.08413e-05
4.08413e-05
4.08413e-05
4.08413e-05
4.08414e-05
4.08414e-05
4.08414e-05
4.08414e-05
4.08414e-05
4.08415e-05
4.08415e-05
4.08415e-05
4.08415e-05
4.08415e-05
4.08415e-05
4.08415e-05
4.08415e-05
4.08414e-05
4.08414e-05
4.08414e-05
4.08414e-05
4.08413e-05
4.08413e-05
4.08412e-05
4.08412e-05
4.08411e-05
4.08411e-05
4.0841e-05
4.08409e-05
4.08408e-05
4.08407e-05
4.08406e-05
4.08405e-05
4.08404e-05
4.08403e-05
4.08402e-05
4.084e-05
4.08399e-05
4.08398e-05
4.08396e-05
4.08395e-05
4.08394e-05
4.08392e-05
4.08391e-05
4.0839e-05
4.08389e-05
4.08387e-05
4.08386e-05
4.08385e-05
4.08384e-05
4.08382e-05
4.08381e-05
4.08379e-05
4.08378e-05
4.08376e-05
4.08375e-05
4.08373e-05
4.08371e-05
4.0837e-05
4.08368e-05
4.08366e-05
4.08364e-05
4.08362e-05
4.0836e-05
4.08359e-05
4.08357e-05
4.08354e-05
4.08352e-05
4.0835e-05
4.08348e-05
4.08346e-05
4.08344e-05
4.08342e-05
4.0834e-05
4.08337e-05
4.08335e-05
4.08333e-05
4.08331e-05
4.08329e-05
4.08326e-05
4.08324e-05
4.08322e-05
4.0832e-05
4.08318e-05
4.08316e-05
4.08313e-05
4.08311e-05
4.08309e-05
4.08307e-05
4.08305e-05
4.08303e-05
4.08301e-05
4.08299e-05
4.08298e-05
4.08296e-05
4.08294e-05
4.08292e-05
4.08291e-05
4.08289e-05
4.08288e-05
4.08286e-05
4.08285e-05
4.08284e-05
4.08283e-05
4.08282e-05
4.08282e-05
4.08281e-05
4.0828e-05
4.0828e-05
4.08278e-05
4.09948e-05
4.0997e-05
4.09974e-05
4.09975e-05
4.09976e-05
4.09976e-05
4.09976e-05
4.09977e-05
4.09977e-05
4.09977e-05
4.09978e-05
4.09978e-05
4.09978e-05
4.09978e-05
4.09979e-05
4.09979e-05
4.09979e-05
4.0998e-05
4.0998e-05
4.0998e-05
4.0998e-05
4.0998e-05
4.09981e-05
4.09981e-05
4.09981e-05
4.09981e-05
4.09981e-05
4.09981e-05
4.09981e-05
4.0998e-05
4.0998e-05
4.0998e-05
4.0998e-05
4.09979e-05
4.09979e-05
4.09978e-05
4.09978e-05
4.09977e-05
4.09976e-05
4.09976e-05
4.09975e-05
4.09974e-05
4.09973e-05
4.09972e-05
4.09971e-05
4.0997e-05
4.09969e-05
4.09968e-05
4.09966e-05
4.09965e-05
4.09964e-05
4.09962e-05
4.09961e-05
4.0996e-05
4.09958e-05
4.09957e-05
4.09956e-05
4.09954e-05
4.09953e-05
4.09951e-05
4.0995e-05
4.09948e-05
4.09947e-05
4.09945e-05
4.09944e-05
4.09942e-05
4.09941e-05
4.09939e-05
4.09937e-05
4.09935e-05
4.09934e-05
4.09932e-05
4.0993e-05
4.09928e-05
4.09926e-05
4.09924e-05
4.09922e-05
4.0992e-05
4.09918e-05
4.09916e-05
4.09914e-05
4.09912e-05
4.0991e-05
4.09908e-05
4.09906e-05
4.09904e-05
4.09902e-05
4.099e-05
4.09898e-05
4.09896e-05
4.09894e-05
4.09892e-05
4.0989e-05
4.09888e-05
4.09886e-05
4.09884e-05
4.09882e-05
4.0988e-05
4.09878e-05
4.09876e-05
4.09875e-05
4.09873e-05
4.09871e-05
4.09869e-05
4.09868e-05
4.09866e-05
4.09864e-05
4.09863e-05
4.09862e-05
4.0986e-05
4.09859e-05
4.09858e-05
4.09857e-05
4.09855e-05
4.09855e-05
4.09854e-05
4.09853e-05
4.09852e-05
4.09852e-05
4.0985e-05
4.11691e-05
4.11711e-05
4.11716e-05
4.11717e-05
4.11717e-05
4.11717e-05
4.11718e-05
4.11718e-05
4.11718e-05
4.11719e-05
4.11719e-05
4.11719e-05
4.1172e-05
4.1172e-05
4.1172e-05
4.11721e-05
4.11721e-05
4.11721e-05
4.11722e-05
4.11722e-05
4.11722e-05
4.11722e-05
4.11723e-05
4.11723e-05
4.11723e-05
4.11723e-05
4.11723e-05
4.11723e-05
4.11723e-05
4.11723e-05
4.11723e-05
4.11723e-05
4.11722e-05
4.11722e-05
4.11722e-05
4.11721e-05
4.11721e-05
4.1172e-05
4.1172e-05
4.11719e-05
4.11719e-05
4.11718e-05
4.11717e-05
4.11716e-05
4.11715e-05
4.11714e-05
4.11713e-05
4.11712e-05
4.11711e-05
4.1171e-05
4.11708e-05
4.11707e-05
4.11706e-05
4.11704e-05
4.11703e-05
4.11701e-05
4.117e-05
4.11699e-05
4.11697e-05
4.11696e-05
4.11694e-05
4.11693e-05
4.11691e-05
4.11689e-05
4.11688e-05
4.11686e-05
4.11685e-05
4.11683e-05
4.11681e-05
4.11679e-05
4.11678e-05
4.11676e-05
4.11674e-05
4.11672e-05
4.1167e-05
4.11669e-05
4.11667e-05
4.11665e-05
4.11663e-05
4.11661e-05
4.11659e-05
4.11657e-05
4.11655e-05
4.11653e-05
4.11651e-05
4.11649e-05
4.11647e-05
4.11645e-05
4.11644e-05
4.11642e-05
4.1164e-05
4.11638e-05
4.11636e-05
4.11634e-05
4.11632e-05
4.11631e-05
4.11629e-05
4.11627e-05
4.11625e-05
4.11624e-05
4.11622e-05
4.1162e-05
4.11619e-05
4.11617e-05
4.11616e-05
4.11614e-05
4.11613e-05
4.11611e-05
4.1161e-05
4.11609e-05
4.11608e-05
4.11606e-05
4.11605e-05
4.11604e-05
4.11603e-05
4.11603e-05
4.11602e-05
4.11601e-05
4.116e-05
4.11598e-05
4.13618e-05
4.13637e-05
4.13641e-05
4.13643e-05
4.13643e-05
4.13643e-05
4.13644e-05
4.13644e-05
4.13644e-05
4.13645e-05
4.13645e-05
4.13645e-05
4.13646e-05
4.13646e-05
4.13647e-05
4.13647e-05
4.13647e-05
4.13648e-05
4.13648e-05
4.13648e-05
4.13649e-05
4.13649e-05
4.13649e-05
4.1365e-05
4.1365e-05
4.1365e-05
4.1365e-05
4.1365e-05
4.1365e-05
4.1365e-05
4.1365e-05
4.1365e-05
4.1365e-05
4.1365e-05
4.13649e-05
4.13649e-05
4.13649e-05
4.13648e-05
4.13648e-05
4.13647e-05
4.13647e-05
4.13646e-05
4.13645e-05
4.13644e-05
4.13643e-05
4.13642e-05
4.13641e-05
4.1364e-05
4.13639e-05
4.13638e-05
4.13637e-05
4.13636e-05
4.13635e-05
4.13633e-05
4.13632e-05
4.1363e-05
4.13629e-05
4.13628e-05
4.13626e-05
4.13625e-05
4.13623e-05
4.13621e-05
4.1362e-05
4.13618e-05
4.13617e-05
4.13615e-05
4.13613e-05
4.13612e-05
4.1361e-05
4.13608e-05
4.13607e-05
4.13605e-05
4.13603e-05
4.13601e-05
4.136e-05
4.13598e-05
4.13596e-05
4.13594e-05
4.13592e-05
4.1359e-05
4.13589e-05
4.13587e-05
4.13585e-05
4.13583e-05
4.13581e-05
4.13579e-05
4.13578e-05
4.13576e-05
4.13574e-05
4.13572e-05
4.1357e-05
4.13569e-05
4.13567e-05
4.13565e-05
4.13564e-05
4.13562e-05
4.1356e-05
4.13559e-05
4.13557e-05
4.13556e-05
4.13554e-05
4.13553e-05
4.13551e-05
4.1355e-05
4.13548e-05
4.13547e-05
4.13546e-05
4.13545e-05
4.13543e-05
4.13542e-05
4.13541e-05
4.1354e-05
4.13539e-05
4.13538e-05
4.13537e-05
4.13536e-05
4.13535e-05
4.13535e-05
4.13534e-05
4.13532e-05
4.15741e-05
4.15759e-05
4.15763e-05
4.15764e-05
4.15764e-05
4.15765e-05
4.15765e-05
4.15765e-05
4.15766e-05
4.15766e-05
4.15766e-05
4.15767e-05
4.15767e-05
4.15768e-05
4.15768e-05
4.15769e-05
4.15769e-05
4.15769e-05
4.1577e-05
4.1577e-05
4.15771e-05
4.15771e-05
4.15771e-05
4.15772e-05
4.15772e-05
4.15772e-05
4.15772e-05
4.15772e-05
4.15773e-05
4.15773e-05
4.15773e-05
4.15773e-05
4.15773e-05
4.15772e-05
4.15772e-05
4.15772e-05
4.15772e-05
4.15771e-05
4.15771e-05
4.1577e-05
4.1577e-05
4.15769e-05
4.15768e-05
4.15768e-05
4.15767e-05
4.15766e-05
4.15765e-05
4.15764e-05
4.15763e-05
4.15762e-05
4.15761e-05
4.1576e-05
4.15759e-05
4.15757e-05
4.15756e-05
4.15755e-05
4.15753e-05
4.15752e-05
4.1575e-05
4.15749e-05
4.15747e-05
4.15746e-05
4.15744e-05
4.15743e-05
4.15741e-05
4.15739e-05
4.15738e-05
4.15736e-05
4.15734e-05
4.15733e-05
4.15731e-05
4.15729e-05
4.15728e-05
4.15726e-05
4.15724e-05
4.15722e-05
4.15721e-05
4.15719e-05
4.15717e-05
4.15715e-05
4.15714e-05
4.15712e-05
4.1571e-05
4.15708e-05
4.15707e-05
4.15705e-05
4.15703e-05
4.15702e-05
4.157e-05
4.15698e-05
4.15697e-05
4.15695e-05
4.15693e-05
4.15692e-05
4.1569e-05
4.15689e-05
4.15687e-05
4.15686e-05
4.15684e-05
4.15683e-05
4.15682e-05
4.1568e-05
4.15679e-05
4.15678e-05
4.15676e-05
4.15675e-05
4.15674e-05
4.15673e-05
4.15672e-05
4.15671e-05
4.1567e-05
4.15669e-05
4.15668e-05
4.15667e-05
4.15666e-05
4.15666e-05
4.15665e-05
4.15664e-05
4.15664e-05
4.15661e-05
4.18072e-05
4.18088e-05
4.18092e-05
4.18093e-05
4.18093e-05
4.18094e-05
4.18094e-05
4.18095e-05
4.18095e-05
4.18096e-05
4.18096e-05
4.18097e-05
4.18097e-05
4.18098e-05
4.18098e-05
4.18099e-05
4.18099e-05
4.181e-05
4.181e-05
4.18101e-05
4.18101e-05
4.18101e-05
4.18102e-05
4.18102e-05
4.18102e-05
4.18103e-05
4.18103e-05
4.18103e-05
4.18103e-05
4.18103e-05
4.18104e-05
4.18104e-05
4.18104e-05
4.18103e-05
4.18103e-05
4.18103e-05
4.18103e-05
4.18102e-05
4.18102e-05
4.18102e-05
4.18101e-05
4.18101e-05
4.181e-05
4.18099e-05
4.18099e-05
4.18098e-05
4.18097e-05
4.18096e-05
4.18095e-05
4.18094e-05
4.18093e-05
4.18092e-05
4.18091e-05
4.1809e-05
4.18088e-05
4.18087e-05
4.18086e-05
4.18084e-05
4.18083e-05
4.18081e-05
4.1808e-05
4.18078e-05
4.18077e-05
4.18075e-05
4.18074e-05
4.18072e-05
4.18071e-05
4.18069e-05
4.18067e-05
4.18066e-05
4.18064e-05
4.18062e-05
4.18061e-05
4.18059e-05
4.18057e-05
4.18056e-05
4.18054e-05
4.18052e-05
4.18051e-05
4.18049e-05
4.18047e-05
4.18046e-05
4.18044e-05
4.18042e-05
4.18041e-05
4.18039e-05
4.18037e-05
4.18036e-05
4.18034e-05
4.18033e-05
4.18031e-05
4.1803e-05
4.18028e-05
4.18027e-05
4.18025e-05
4.18024e-05
4.18023e-05
4.18021e-05
4.1802e-05
4.18019e-05
4.18018e-05
4.18016e-05
4.18015e-05
4.18014e-05
4.18013e-05
4.18012e-05
4.18011e-05
4.1801e-05
4.18009e-05
4.18008e-05
4.18007e-05
4.18006e-05
4.18006e-05
4.18005e-05
4.18004e-05
4.18003e-05
4.18003e-05
4.18002e-05
4.18002e-05
4.17999e-05
4.20626e-05
4.20641e-05
4.20644e-05
4.20645e-05
4.20646e-05
4.20647e-05
4.20647e-05
4.20648e-05
4.20648e-05
4.20649e-05
4.20649e-05
4.2065e-05
4.2065e-05
4.20651e-05
4.20652e-05
4.20652e-05
4.20653e-05
4.20653e-05
4.20654e-05
4.20654e-05
4.20655e-05
4.20655e-05
4.20656e-05
4.20656e-05
4.20656e-05
4.20657e-05
4.20657e-05
4.20657e-05
4.20657e-05
4.20658e-05
4.20658e-05
4.20658e-05
4.20658e-05
4.20658e-05
4.20658e-05
4.20658e-05
4.20657e-05
4.20657e-05
4.20657e-05
4.20656e-05
4.20656e-05
4.20655e-05
4.20655e-05
4.20654e-05
4.20653e-05
4.20653e-05
4.20652e-05
4.20651e-05
4.2065e-05
4.20649e-05
4.20648e-05
4.20647e-05
4.20646e-05
4.20645e-05
4.20644e-05
4.20643e-05
4.20641e-05
4.2064e-05
4.20639e-05
4.20637e-05
4.20636e-05
4.20634e-05
4.20633e-05
4.20631e-05
4.2063e-05
4.20628e-05
4.20627e-05
4.20625e-05
4.20624e-05
4.20622e-05
4.20621e-05
4.20619e-05
4.20617e-05
4.20616e-05
4.20614e-05
4.20612e-05
4.20611e-05
4.20609e-05
4.20608e-05
4.20606e-05
4.20605e-05
4.20603e-05
4.20601e-05
4.206e-05
4.20598e-05
4.20597e-05
4.20595e-05
4.20594e-05
4.20593e-05
4.20591e-05
4.2059e-05
4.20588e-05
4.20587e-05
4.20586e-05
4.20584e-05
4.20583e-05
4.20582e-05
4.20581e-05
4.2058e-05
4.20578e-05
4.20577e-05
4.20576e-05
4.20575e-05
4.20574e-05
4.20573e-05
4.20572e-05
4.20571e-05
4.20571e-05
4.2057e-05
4.20569e-05
4.20568e-05
4.20567e-05
4.20567e-05
4.20566e-05
4.20565e-05
4.20565e-05
4.20564e-05
4.20563e-05
4.20563e-05
4.2056e-05
4.23421e-05
4.23434e-05
4.23437e-05
4.23438e-05
4.23439e-05
4.2344e-05
4.2344e-05
4.23441e-05
4.23442e-05
4.23442e-05
4.23443e-05
4.23443e-05
4.23444e-05
4.23445e-05
4.23445e-05
4.23446e-05
4.23447e-05
4.23447e-05
4.23448e-05
4.23448e-05
4.23449e-05
4.23449e-05
4.2345e-05
4.2345e-05
4.23451e-05
4.23451e-05
4.23451e-05
4.23452e-05
4.23452e-05
4.23452e-05
4.23452e-05
4.23453e-05
4.23453e-05
4.23453e-05
4.23453e-05
4.23452e-05
4.23452e-05
4.23452e-05
4.23452e-05
4.23451e-05
4.23451e-05
4.23451e-05
4.2345e-05
4.23449e-05
4.23449e-05
4.23448e-05
4.23447e-05
4.23447e-05
4.23446e-05
4.23445e-05
4.23444e-05
4.23443e-05
4.23442e-05
4.23441e-05
4.2344e-05
4.23439e-05
4.23437e-05
4.23436e-05
4.23435e-05
4.23434e-05
4.23432e-05
4.23431e-05
4.23429e-05
4.23428e-05
4.23427e-05
4.23425e-05
4.23424e-05
4.23422e-05
4.23421e-05
4.23419e-05
4.23418e-05
4.23416e-05
4.23415e-05
4.23413e-05
4.23412e-05
4.2341e-05
4.23409e-05
4.23407e-05
4.23406e-05
4.23404e-05
4.23403e-05
4.23401e-05
4.234e-05
4.23398e-05
4.23397e-05
4.23395e-05
4.23394e-05
4.23393e-05
4.23391e-05
4.2339e-05
4.23389e-05
4.23388e-05
4.23386e-05
4.23385e-05
4.23384e-05
4.23383e-05
4.23382e-05
4.23381e-05
4.2338e-05
4.23379e-05
4.23378e-05
4.23377e-05
4.23376e-05
4.23375e-05
4.23374e-05
4.23373e-05
4.23373e-05
4.23372e-05
4.23371e-05
4.23371e-05
4.2337e-05
4.23369e-05
4.23369e-05
4.23368e-05
4.23367e-05
4.23367e-05
4.23366e-05
4.23366e-05
4.23365e-05
4.23363e-05
4.26475e-05
4.26486e-05
4.26489e-05
4.2649e-05
4.26491e-05
4.26492e-05
4.26493e-05
4.26494e-05
4.26494e-05
4.26495e-05
4.26496e-05
4.26496e-05
4.26497e-05
4.26498e-05
4.26499e-05
4.26499e-05
4.265e-05
4.26501e-05
4.26501e-05
4.26502e-05
4.26503e-05
4.26503e-05
4.26504e-05
4.26504e-05
4.26505e-05
4.26505e-05
4.26505e-05
4.26506e-05
4.26506e-05
4.26506e-05
4.26507e-05
4.26507e-05
4.26507e-05
4.26507e-05
4.26507e-05
4.26507e-05
4.26507e-05
4.26506e-05
4.26506e-05
4.26506e-05
4.26506e-05
4.26505e-05
4.26505e-05
4.26504e-05
4.26504e-05
4.26503e-05
4.26502e-05
4.26502e-05
4.26501e-05
4.265e-05
4.26499e-05
4.26498e-05
4.26497e-05
4.26496e-05
4.26495e-05
4.26494e-05
4.26493e-05
4.26492e-05
4.26491e-05
4.26489e-05
4.26488e-05
4.26487e-05
4.26486e-05
4.26484e-05
4.26483e-05
4.26482e-05
4.2648e-05
4.26479e-05
4.26477e-05
4.26476e-05
4.26474e-05
4.26473e-05
4.26472e-05
4.2647e-05
4.26469e-05
4.26467e-05
4.26466e-05
4.26465e-05
4.26463e-05
4.26462e-05
4.2646e-05
4.26459e-05
4.26458e-05
4.26457e-05
4.26455e-05
4.26454e-05
4.26453e-05
4.26452e-05
4.2645e-05
4.26449e-05
4.26448e-05
4.26447e-05
4.26446e-05
4.26445e-05
4.26444e-05
4.26443e-05
4.26442e-05
4.26441e-05
4.2644e-05
4.26439e-05
4.26438e-05
4.26437e-05
4.26437e-05
4.26436e-05
4.26435e-05
4.26434e-05
4.26434e-05
4.26433e-05
4.26433e-05
4.26432e-05
4.26431e-05
4.26431e-05
4.2643e-05
4.2643e-05
4.26429e-05
4.26429e-05
4.26428e-05
4.26428e-05
4.26428e-05
4.26425e-05
4.29809e-05
4.29819e-05
4.29822e-05
4.29823e-05
4.29824e-05
4.29825e-05
4.29826e-05
4.29827e-05
4.29827e-05
4.29828e-05
4.29829e-05
4.2983e-05
4.29831e-05
4.29831e-05
4.29832e-05
4.29833e-05
4.29834e-05
4.29835e-05
4.29835e-05
4.29836e-05
4.29837e-05
4.29837e-05
4.29838e-05
4.29838e-05
4.29839e-05
4.29839e-05
4.2984e-05
4.2984e-05
4.29841e-05
4.29841e-05
4.29841e-05
4.29841e-05
4.29841e-05
4.29841e-05
4.29842e-05
4.29841e-05
4.29841e-05
4.29841e-05
4.29841e-05
4.29841e-05
4.29841e-05
4.2984e-05
4.2984e-05
4.29839e-05
4.29839e-05
4.29838e-05
4.29838e-05
4.29837e-05
4.29836e-05
4.29835e-05
4.29835e-05
4.29834e-05
4.29833e-05
4.29832e-05
4.29831e-05
4.2983e-05
4.29829e-05
4.29828e-05
4.29827e-05
4.29826e-05
4.29825e-05
4.29824e-05
4.29822e-05
4.29821e-05
4.2982e-05
4.29819e-05
4.29817e-05
4.29816e-05
4.29815e-05
4.29813e-05
4.29812e-05
4.29811e-05
4.29809e-05
4.29808e-05
4.29807e-05
4.29806e-05
4.29804e-05
4.29803e-05
4.29802e-05
4.298e-05
4.29799e-05
4.29798e-05
4.29797e-05
4.29796e-05
4.29795e-05
4.29793e-05
4.29792e-05
4.29791e-05
4.2979e-05
4.29789e-05
4.29788e-05
4.29787e-05
4.29786e-05
4.29785e-05
4.29784e-05
4.29784e-05
4.29783e-05
4.29782e-05
4.29781e-05
4.2978e-05
4.2978e-05
4.29779e-05
4.29778e-05
4.29778e-05
4.29777e-05
4.29776e-05
4.29776e-05
4.29775e-05
4.29775e-05
4.29774e-05
4.29774e-05
4.29773e-05
4.29773e-05
4.29773e-05
4.29772e-05
4.29772e-05
4.29771e-05
4.29771e-05
4.29771e-05
4.29768e-05
4.33447e-05
4.33455e-05
4.33457e-05
4.33459e-05
4.3346e-05
4.33461e-05
4.33462e-05
4.33463e-05
4.33464e-05
4.33464e-05
4.33465e-05
4.33466e-05
4.33467e-05
4.33468e-05
4.33469e-05
4.3347e-05
4.33471e-05
4.33471e-05
4.33472e-05
4.33473e-05
4.33474e-05
4.33474e-05
4.33475e-05
4.33476e-05
4.33476e-05
4.33477e-05
4.33477e-05
4.33478e-05
4.33478e-05
4.33478e-05
4.33479e-05
4.33479e-05
4.33479e-05
4.33479e-05
4.33479e-05
4.33479e-05
4.33479e-05
4.33479e-05
4.33479e-05
4.33479e-05
4.33479e-05
4.33478e-05
4.33478e-05
4.33478e-05
4.33477e-05
4.33477e-05
4.33476e-05
4.33476e-05
4.33475e-05
4.33474e-05
4.33474e-05
4.33473e-05
4.33472e-05
4.33471e-05
4.3347e-05
4.3347e-05
4.33469e-05
4.33468e-05
4.33467e-05
4.33466e-05
4.33465e-05
4.33464e-05
4.33462e-05
4.33461e-05
4.3346e-05
4.33459e-05
4.33458e-05
4.33457e-05
4.33456e-05
4.33454e-05
4.33453e-05
4.33452e-05
4.33451e-05
4.3345e-05
4.33448e-05
4.33447e-05
4.33446e-05
4.33445e-05
4.33444e-05
4.33443e-05
4.33442e-05
4.33441e-05
4.3344e-05
4.33438e-05
4.33437e-05
4.33436e-05
4.33436e-05
4.33435e-05
4.33434e-05
4.33433e-05
4.33432e-05
4.33431e-05
4.3343e-05
4.3343e-05
4.33429e-05
4.33428e-05
4.33427e-05
4.33427e-05
4.33426e-05
4.33425e-05
4.33425e-05
4.33424e-05
4.33424e-05
4.33423e-05
4.33423e-05
4.33422e-05
4.33422e-05
4.33421e-05
4.33421e-05
4.3342e-05
4.3342e-05
4.3342e-05
4.33419e-05
4.33419e-05
4.33419e-05
4.33418e-05
4.33418e-05
4.33417e-05
4.33417e-05
4.33415e-05
4.37412e-05
4.37418e-05
4.3742e-05
4.37422e-05
4.37423e-05
4.37424e-05
4.37425e-05
4.37426e-05
4.37427e-05
4.37428e-05
4.37429e-05
4.3743e-05
4.37431e-05
4.37432e-05
4.37433e-05
4.37434e-05
4.37435e-05
4.37436e-05
4.37437e-05
4.37437e-05
4.37438e-05
4.37439e-05
4.3744e-05
4.3744e-05
4.37441e-05
4.37441e-05
4.37442e-05
4.37442e-05
4.37443e-05
4.37443e-05
4.37444e-05
4.37444e-05
4.37444e-05
4.37444e-05
4.37445e-05
4.37445e-05
4.37445e-05
4.37445e-05
4.37445e-05
4.37445e-05
4.37444e-05
4.37444e-05
4.37444e-05
4.37444e-05
4.37443e-05
4.37443e-05
4.37443e-05
4.37442e-05
4.37442e-05
4.37441e-05
4.3744e-05
4.3744e-05
4.37439e-05
4.37438e-05
4.37438e-05
4.37437e-05
4.37436e-05
4.37435e-05
4.37434e-05
4.37434e-05
4.37433e-05
4.37432e-05
4.37431e-05
4.3743e-05
4.37429e-05
4.37428e-05
4.37427e-05
4.37426e-05
4.37425e-05
4.37424e-05
4.37423e-05
4.37421e-05
4.3742e-05
4.37419e-05
4.37418e-05
4.37417e-05
4.37416e-05
4.37415e-05
4.37414e-05
4.37413e-05
4.37412e-05
4.37411e-05
4.37411e-05
4.3741e-05
4.37409e-05
4.37408e-05
4.37407e-05
4.37406e-05
4.37406e-05
4.37405e-05
4.37404e-05
4.37403e-05
4.37403e-05
4.37402e-05
4.37401e-05
4.37401e-05
4.374e-05
4.374e-05
4.37399e-05
4.37399e-05
4.37398e-05
4.37398e-05
4.37397e-05
4.37397e-05
4.37397e-05
4.37396e-05
4.37396e-05
4.37395e-05
4.37395e-05
4.37395e-05
4.37395e-05
4.37394e-05
4.37394e-05
4.37394e-05
4.37393e-05
4.37393e-05
4.37393e-05
4.37392e-05
4.37392e-05
4.3739e-05
4.41732e-05
4.41735e-05
4.41737e-05
4.41739e-05
4.4174e-05
4.41741e-05
4.41742e-05
4.41743e-05
4.41744e-05
4.41745e-05
4.41746e-05
4.41748e-05
4.41749e-05
4.4175e-05
4.41751e-05
4.41752e-05
4.41753e-05
4.41754e-05
4.41754e-05
4.41755e-05
4.41756e-05
4.41757e-05
4.41758e-05
4.41758e-05
4.41759e-05
4.4176e-05
4.4176e-05
4.41761e-05
4.41761e-05
4.41762e-05
4.41762e-05
4.41763e-05
4.41763e-05
4.41763e-05
4.41764e-05
4.41764e-05
4.41764e-05
4.41764e-05
4.41764e-05
4.41764e-05
4.41764e-05
4.41764e-05
4.41764e-05
4.41764e-05
4.41764e-05
4.41763e-05
4.41763e-05
4.41763e-05
4.41762e-05
4.41762e-05
4.41761e-05
4.41761e-05
4.4176e-05
4.4176e-05
4.41759e-05
4.41759e-05
4.41758e-05
4.41757e-05
4.41757e-05
4.41756e-05
4.41755e-05
4.41754e-05
4.41753e-05
4.41753e-05
4.41752e-05
4.41751e-05
4.4175e-05
4.41749e-05
4.41748e-05
4.41747e-05
4.41746e-05
4.41745e-05
4.41745e-05
4.41744e-05
4.41743e-05
4.41742e-05
4.41741e-05
4.4174e-05
4.41739e-05
4.41738e-05
4.41738e-05
4.41737e-05
4.41736e-05
4.41735e-05
4.41735e-05
4.41734e-05
4.41733e-05
4.41733e-05
4.41732e-05
4.41731e-05
4.41731e-05
4.4173e-05
4.4173e-05
4.41729e-05
4.41729e-05
4.41728e-05
4.41728e-05
4.41727e-05
4.41727e-05
4.41727e-05
4.41726e-05
4.41726e-05
4.41726e-05
4.41725e-05
4.41725e-05
4.41725e-05
4.41725e-05
4.41724e-05
4.41724e-05
4.41724e-05
4.41724e-05
4.41723e-05
4.41723e-05
4.41723e-05
4.41722e-05
4.41722e-05
4.41722e-05
4.41721e-05
4.41721e-05
4.41719e-05
4.46433e-05
4.46434e-05
4.46435e-05
4.46437e-05
4.46438e-05
4.46439e-05
4.4644e-05
4.46442e-05
4.46443e-05
4.46444e-05
4.46445e-05
4.46446e-05
4.46447e-05
4.46448e-05
4.46449e-05
4.46451e-05
4.46452e-05
4.46453e-05
4.46454e-05
4.46454e-05
4.46455e-05
4.46456e-05
4.46457e-05
4.46458e-05
4.46459e-05
4.46459e-05
4.4646e-05
4.46461e-05
4.46461e-05
4.46462e-05
4.46462e-05
4.46463e-05
4.46463e-05
4.46464e-05
4.46464e-05
4.46464e-05
4.46465e-05
4.46465e-05
4.46465e-05
4.46465e-05
4.46466e-05
4.46466e-05
4.46466e-05
4.46466e-05
4.46466e-05
4.46466e-05
4.46466e-05
4.46465e-05
4.46465e-05
4.46465e-05
4.46465e-05
4.46464e-05
4.46464e-05
4.46464e-05
4.46463e-05
4.46463e-05
4.46462e-05
4.46462e-05
4.46461e-05
4.46461e-05
4.4646e-05
4.46459e-05
4.46459e-05
4.46458e-05
4.46457e-05
4.46456e-05