/*--------------------------------*- C++ -*----------------------------------*\
  =========                 |
  \\      /  F ield         | OpenFOAM: The Open Source CFD Toolbox
   \\    /   O peration     | Website:  https://openfoam.org
    \\  /    A nd           | Version:  7
     \\/     M anipulation  |
\*---------------------------------------------------------------------------*/
FoamFile
{
    version     2.0;
    format      ascii;
    class       volScalarField;
    location    "1500";
    object      omega;
}
// * * * * * * * * * * * * * * * * * * * * * * * * * * * * * * * * * * * * * //

dimensions      [0 0 -1 0 0 0 0];

internalField   nonuniform List<scalar> 
4000
(
0.0228459
0.0228438
0.0228437
0.022844
0.0228444
0.0228448
0.0228452
0.0228456
0.0228461
0.0228465
0.0228469
0.0228473
0.0228477
0.0228481
0.0228486
0.022849
0.0228494
0.0228498
0.0228503
0.0228507
0.0228511
0.0228515
0.0228519
0.0228523
0.0228527
0.0228531
0.0228535
0.0228539
0.0228542
0.0228546
0.0228549
0.0228553
0.0228556
0.0228559
0.0228562
0.0228565
0.0228568
0.0228571
0.0228573
0.0228576
0.0228578
0.022858
0.0228582
0.0228584
0.0228587
0.0228565
0.0228547
0.0228538
0.0228534
0.0228532
0.0228532
0.0228531
0.0228531
0.0228531
0.0228531
0.0228531
0.0228531
0.0228531
0.0228531
0.0228531
0.022853
0.022853
0.022853
0.022853
0.022853
0.022853
0.0228529
0.0228529
0.0228529
0.0228529
0.022853
0.022853
0.022853
0.022853
0.0228531
0.0228531
0.0228532
0.0228532
0.0228533
0.0228534
0.0228535
0.0228536
0.0228537
0.0228538
0.0228539
0.022854
0.0228542
0.0228543
0.0228545
0.0228547
0.0228548
0.022855
0.0228552
0.0228554
0.0228556
0.0228558
0.0228561
0.0228563
0.0228565
0.0228568
0.022857
0.0228573
0.0228576
0.022858
0.0228559
0.0228543
0.0228536
0.0228534
0.0228534
0.0228536
0.0228539
0.0228541
0.0228544
0.0228547
0.022855
0.0228553
0.0228557
0.022856
0.0228564
0.0228566
0.0229072
0.0229051
0.0229048
0.022905
0.0229053
0.0229056
0.022906
0.0229063
0.0229067
0.0229071
0.0229074
0.0229078
0.0229082
0.0229086
0.022909
0.0229094
0.0229098
0.0229102
0.0229106
0.0229109
0.0229113
0.0229117
0.0229121
0.0229125
0.0229129
0.0229132
0.0229136
0.0229139
0.0229143
0.0229146
0.022915
0.0229153
0.0229156
0.0229159
0.0229162
0.0229165
0.0229168
0.022917
0.0229173
0.0229175
0.0229177
0.0229179
0.0229181
0.0229183
0.0229186
0.0229182
0.0229175
0.0229167
0.0229162
0.0229158
0.0229155
0.0229153
0.0229151
0.022915
0.0229149
0.0229148
0.0229147
0.0229146
0.0229146
0.0229145
0.0229144
0.0229144
0.0229143
0.0229142
0.0229142
0.0229141
0.0229141
0.022914
0.022914
0.022914
0.0229139
0.0229139
0.0229139
0.0229139
0.0229139
0.0229139
0.0229139
0.022914
0.022914
0.022914
0.0229141
0.0229142
0.0229142
0.0229143
0.0229144
0.0229145
0.0229146
0.0229147
0.0229148
0.022915
0.0229151
0.0229153
0.0229154
0.0229156
0.0229158
0.022916
0.0229162
0.0229164
0.0229166
0.0229168
0.022917
0.0229173
0.0229175
0.0229178
0.0229176
0.022917
0.0229164
0.022916
0.0229158
0.0229158
0.0229158
0.0229159
0.0229161
0.0229162
0.0229164
0.0229167
0.0229169
0.0229172
0.0229175
0.0229177
0.0230241
0.023022
0.0230217
0.0230219
0.0230221
0.0230224
0.0230227
0.023023
0.0230233
0.0230237
0.023024
0.0230244
0.0230247
0.0230251
0.0230254
0.0230258
0.0230262
0.0230265
0.0230269
0.0230273
0.0230276
0.023028
0.0230283
0.0230287
0.0230291
0.0230294
0.0230298
0.0230301
0.0230304
0.0230308
0.0230311
0.0230314
0.0230317
0.023032
0.0230323
0.0230325
0.0230328
0.023033
0.0230333
0.0230335
0.0230337
0.0230339
0.0230341
0.0230343
0.0230345
0.0230345
0.0230344
0.0230341
0.0230337
0.0230334
0.0230331
0.0230329
0.0230327
0.0230325
0.0230323
0.0230322
0.0230321
0.0230319
0.0230318
0.0230317
0.0230316
0.0230315
0.0230314
0.0230313
0.0230313
0.0230312
0.0230311
0.023031
0.023031
0.0230309
0.0230308
0.0230308
0.0230307
0.0230307
0.0230307
0.0230307
0.0230306
0.0230306
0.0230306
0.0230307
0.0230307
0.0230307
0.0230308
0.0230308
0.0230309
0.0230309
0.023031
0.0230311
0.0230312
0.0230313
0.0230314
0.0230315
0.0230317
0.0230318
0.023032
0.0230321
0.0230323
0.0230325
0.0230327
0.0230329
0.0230331
0.0230333
0.0230335
0.0230338
0.0230339
0.0230339
0.0230338
0.0230336
0.0230334
0.0230334
0.0230333
0.0230334
0.0230335
0.0230336
0.0230337
0.0230339
0.0230341
0.0230344
0.0230346
0.0230348
0.023195
0.0231928
0.0231925
0.0231927
0.0231929
0.0231931
0.0231934
0.0231937
0.023194
0.0231943
0.0231946
0.023195
0.0231953
0.0231956
0.023196
0.0231963
0.0231966
0.023197
0.0231973
0.0231977
0.023198
0.0231984
0.0231987
0.023199
0.0231994
0.0231997
0.0232
0.0232003
0.0232007
0.023201
0.0232013
0.0232016
0.0232019
0.0232021
0.0232024
0.0232027
0.0232029
0.0232032
0.0232034
0.0232036
0.0232038
0.023204
0.0232042
0.0232044
0.0232045
0.0232046
0.0232047
0.0232046
0.0232045
0.0232044
0.0232042
0.023204
0.0232038
0.0232037
0.0232035
0.0232033
0.0232032
0.0232031
0.0232029
0.0232028
0.0232027
0.0232026
0.0232025
0.0232023
0.0232022
0.0232021
0.023202
0.0232019
0.0232019
0.0232018
0.0232017
0.0232016
0.0232016
0.0232015
0.0232015
0.0232014
0.0232014
0.0232013
0.0232013
0.0232013
0.0232013
0.0232013
0.0232013
0.0232014
0.0232014
0.0232014
0.0232015
0.0232015
0.0232016
0.0232017
0.0232018
0.0232019
0.023202
0.0232021
0.0232023
0.0232024
0.0232026
0.0232027
0.0232029
0.0232031
0.0232033
0.0232035
0.0232037
0.0232039
0.0232041
0.0232043
0.0232044
0.0232044
0.0232045
0.0232045
0.0232045
0.0232046
0.0232047
0.0232048
0.0232049
0.0232051
0.0232053
0.0232055
0.0232057
0.0232059
0.0234185
0.0234162
0.0234159
0.0234161
0.0234163
0.0234166
0.0234168
0.0234171
0.0234174
0.0234177
0.023418
0.0234183
0.0234186
0.0234189
0.0234193
0.0234196
0.0234199
0.0234202
0.0234206
0.0234209
0.0234212
0.0234215
0.0234219
0.0234222
0.0234225
0.0234228
0.0234231
0.0234234
0.0234237
0.023424
0.0234243
0.0234246
0.0234249
0.0234251
0.0234254
0.0234256
0.0234259
0.0234261
0.0234263
0.0234265
0.0234267
0.0234269
0.0234271
0.0234272
0.0234274
0.0234275
0.0234276
0.0234277
0.0234277
0.0234276
0.0234276
0.0234275
0.0234274
0.0234272
0.0234271
0.023427
0.0234268
0.0234267
0.0234266
0.0234265
0.0234263
0.0234262
0.0234261
0.023426
0.0234259
0.0234257
0.0234256
0.0234255
0.0234254
0.0234253
0.0234252
0.0234252
0.0234251
0.023425
0.0234249
0.0234249
0.0234248
0.0234248
0.0234247
0.0234247
0.0234247
0.0234247
0.0234247
0.0234247
0.0234247
0.0234247
0.0234248
0.0234248
0.0234249
0.0234249
0.023425
0.0234251
0.0234252
0.0234253
0.0234254
0.0234255
0.0234257
0.0234258
0.023426
0.0234262
0.0234263
0.0234265
0.0234267
0.023427
0.0234272
0.0234274
0.0234276
0.0234278
0.0234279
0.023428
0.0234281
0.0234283
0.0234284
0.0234285
0.0234287
0.0234289
0.0234291
0.0234293
0.0234295
0.0234297
0.023694
0.0236917
0.0236914
0.0236915
0.0236917
0.023692
0.0236923
0.0236926
0.0236928
0.0236931
0.0236934
0.0236937
0.023694
0.0236944
0.0236947
0.023695
0.0236953
0.0236956
0.0236959
0.0236962
0.0236966
0.0236969
0.0236972
0.0236975
0.0236978
0.0236981
0.0236984
0.0236987
0.0236989
0.0236992
0.0236995
0.0236998
0.0237
0.0237003
0.0237005
0.0237008
0.023701
0.0237012
0.0237014
0.0237016
0.0237018
0.023702
0.0237021
0.0237023
0.0237024
0.0237025
0.0237027
0.0237027
0.0237028
0.0237028
0.0237028
0.0237028
0.0237027
0.0237027
0.0237026
0.0237025
0.0237024
0.0237023
0.0237022
0.0237021
0.0237019
0.0237018
0.0237017
0.0237016
0.0237015
0.0237014
0.0237013
0.0237011
0.023701
0.0237009
0.0237008
0.0237008
0.0237007
0.0237006
0.0237005
0.0237004
0.0237004
0.0237003
0.0237003
0.0237002
0.0237002
0.0237002
0.0237002
0.0237001
0.0237001
0.0237002
0.0237002
0.0237002
0.0237003
0.0237003
0.0237004
0.0237004
0.0237005
0.0237006
0.0237007
0.0237009
0.023701
0.0237011
0.0237013
0.0237015
0.0237016
0.0237018
0.023702
0.0237022
0.0237025
0.0237027
0.0237029
0.0237031
0.0237033
0.0237035
0.0237037
0.0237039
0.0237041
0.0237043
0.0237045
0.0237047
0.0237049
0.0237051
0.0237054
0.0237056
0.0240214
0.024019
0.0240187
0.0240189
0.0240191
0.0240194
0.0240197
0.02402
0.0240203
0.0240206
0.0240209
0.0240212
0.0240215
0.0240218
0.0240221
0.0240224
0.0240227
0.024023
0.0240233
0.0240236
0.0240239
0.0240242
0.0240245
0.0240248
0.0240251
0.0240254
0.0240257
0.024026
0.0240262
0.0240265
0.0240268
0.024027
0.0240273
0.0240275
0.0240277
0.0240279
0.0240282
0.0240284
0.0240286
0.0240287
0.0240289
0.0240291
0.0240292
0.0240294
0.0240295
0.0240296
0.0240297
0.0240298
0.0240299
0.02403
0.02403
0.02403
0.02403
0.02403
0.0240299
0.0240299
0.0240298
0.0240297
0.0240296
0.0240295
0.0240294
0.0240293
0.0240292
0.0240291
0.024029
0.0240289
0.0240288
0.0240287
0.0240286
0.0240285
0.0240284
0.0240283
0.0240282
0.0240282
0.0240281
0.024028
0.0240279
0.0240279
0.0240278
0.0240278
0.0240277
0.0240277
0.0240277
0.0240277
0.0240277
0.0240277
0.0240277
0.0240277
0.0240277
0.0240278
0.0240278
0.0240279
0.024028
0.0240281
0.0240282
0.0240283
0.0240284
0.0240286
0.0240287
0.0240289
0.0240291
0.0240293
0.0240295
0.0240297
0.0240299
0.0240301
0.0240304
0.0240306
0.0240309
0.0240311
0.0240314
0.0240316
0.0240318
0.0240321
0.0240323
0.0240325
0.0240328
0.024033
0.0240333
0.0240336
0.0244013
0.0243988
0.0243985
0.0243987
0.0243989
0.0243992
0.0243996
0.0243999
0.0244002
0.0244005
0.0244008
0.0244011
0.0244014
0.0244017
0.024402
0.0244023
0.0244026
0.0244029
0.0244032
0.0244035
0.0244038
0.0244041
0.0244044
0.0244047
0.024405
0.0244052
0.0244055
0.0244058
0.024406
0.0244063
0.0244065
0.0244068
0.024407
0.0244072
0.0244074
0.0244076
0.0244078
0.024408
0.0244082
0.0244084
0.0244086
0.0244087
0.0244088
0.024409
0.0244091
0.0244092
0.0244093
0.0244094
0.0244095
0.0244096
0.0244096
0.0244096
0.0244097
0.0244097
0.0244096
0.0244096
0.0244096
0.0244095
0.0244095
0.0244094
0.0244093
0.0244092
0.0244092
0.0244091
0.024409
0.0244089
0.0244088
0.0244087
0.0244086
0.0244085
0.0244084
0.0244084
0.0244083
0.0244082
0.0244081
0.024408
0.024408
0.0244079
0.0244079
0.0244078
0.0244078
0.0244078
0.0244077
0.0244077
0.0244077
0.0244077
0.0244077
0.0244077
0.0244078
0.0244078
0.0244079
0.0244079
0.024408
0.0244081
0.0244082
0.0244083
0.0244085
0.0244086
0.0244088
0.0244089
0.0244091
0.0244093
0.0244095
0.0244097
0.02441
0.0244102
0.0244105
0.0244107
0.024411
0.0244113
0.0244115
0.0244118
0.0244121
0.0244124
0.0244126
0.0244129
0.0244132
0.0244135
0.0244138
0.0244141
0.0248347
0.024832
0.0248317
0.0248319
0.0248322
0.0248325
0.0248328
0.0248332
0.0248335
0.0248338
0.0248341
0.0248345
0.0248348
0.0248351
0.0248354
0.0248357
0.024836
0.0248363
0.0248366
0.0248369
0.0248372
0.0248374
0.0248377
0.024838
0.0248383
0.0248385
0.0248388
0.024839
0.0248393
0.0248395
0.0248397
0.02484
0.0248402
0.0248404
0.0248406
0.0248408
0.024841
0.0248412
0.0248413
0.0248415
0.0248417
0.0248418
0.0248419
0.0248421
0.0248422
0.0248423
0.0248424
0.0248425
0.0248425
0.0248426
0.0248427
0.0248427
0.0248427
0.0248428
0.0248428
0.0248428
0.0248427
0.0248427
0.0248427
0.0248426
0.0248426
0.0248425
0.0248425
0.0248424
0.0248423
0.0248423
0.0248422
0.0248421
0.0248421
0.024842
0.0248419
0.0248418
0.0248418
0.0248417
0.0248416
0.0248416
0.0248415
0.0248415
0.0248414
0.0248414
0.0248413
0.0248413
0.0248413
0.0248413
0.0248413
0.0248413
0.0248413
0.0248413
0.0248414
0.0248414
0.0248415
0.0248415
0.0248416
0.0248417
0.0248418
0.024842
0.0248421
0.0248422
0.0248424
0.0248426
0.0248428
0.024843
0.0248432
0.0248434
0.0248436
0.0248439
0.0248442
0.0248444
0.0248447
0.024845
0.0248453
0.0248456
0.0248459
0.0248462
0.0248465
0.0248468
0.0248471
0.0248474
0.0248478
0.0248481
0.025323
0.0253202
0.0253199
0.0253201
0.0253204
0.0253207
0.0253211
0.0253214
0.0253218
0.0253221
0.0253224
0.0253227
0.0253231
0.0253234
0.0253237
0.025324
0.0253243
0.0253246
0.0253249
0.0253252
0.0253254
0.0253257
0.025326
0.0253262
0.0253265
0.0253267
0.025327
0.0253272
0.0253274
0.0253277
0.0253279
0.0253281
0.0253283
0.0253285
0.0253287
0.0253289
0.0253291
0.0253292
0.0253294
0.0253295
0.0253297
0.0253298
0.0253299
0.0253301
0.0253302
0.0253303
0.0253304
0.0253305
0.0253305
0.0253306
0.0253307
0.0253307
0.0253308
0.0253308
0.0253308
0.0253308
0.0253308
0.0253308
0.0253308
0.0253308
0.0253308
0.0253308
0.0253307
0.0253307
0.0253306
0.0253306
0.0253305
0.0253305
0.0253304
0.0253304
0.0253303
0.0253303
0.0253302
0.0253302
0.0253301
0.0253301
0.02533
0.02533
0.0253299
0.0253299
0.0253299
0.0253299
0.0253299
0.0253299
0.0253299
0.0253299
0.0253299
0.0253299
0.02533
0.02533
0.0253301
0.0253302
0.0253303
0.0253304
0.0253305
0.0253306
0.0253308
0.0253309
0.0253311
0.0253313
0.0253315
0.0253317
0.0253319
0.0253322
0.0253324
0.0253327
0.025333
0.0253333
0.0253336
0.0253339
0.0253342
0.0253345
0.0253348
0.0253352
0.0253355
0.0253358
0.0253362
0.0253365
0.0253368
0.0253373
0.0258683
0.0258653
0.0258649
0.0258652
0.0258655
0.0258659
0.0258662
0.0258666
0.0258669
0.0258673
0.0258676
0.025868
0.0258683
0.0258686
0.0258689
0.0258692
0.0258695
0.0258698
0.0258701
0.0258703
0.0258706
0.0258709
0.0258711
0.0258714
0.0258716
0.0258719
0.0258721
0.0258723
0.0258725
0.0258727
0.0258729
0.0258731
0.0258733
0.0258735
0.0258737
0.0258739
0.025874
0.0258742
0.0258743
0.0258745
0.0258746
0.0258748
0.0258749
0.025875
0.0258751
0.0258752
0.0258753
0.0258754
0.0258754
0.0258755
0.0258756
0.0258757
0.0258757
0.0258758
0.0258758
0.0258758
0.0258759
0.0258759
0.0258759
0.0258759
0.0258759
0.0258759
0.0258759
0.0258759
0.0258759
0.0258758
0.0258758
0.0258758
0.0258758
0.0258757
0.0258757
0.0258757
0.0258756
0.0258756
0.0258756
0.0258756
0.0258755
0.0258755
0.0258755
0.0258755
0.0258755
0.0258755
0.0258755
0.0258755
0.0258755
0.0258755
0.0258756
0.0258756
0.0258757
0.0258757
0.0258758
0.0258759
0.025876
0.0258761
0.0258763
0.0258764
0.0258766
0.0258767
0.0258769
0.0258771
0.0258773
0.0258776
0.0258778
0.0258781
0.0258783
0.0258786
0.0258789
0.0258792
0.0258795
0.0258798
0.0258802
0.0258805
0.0258809
0.0258812
0.0258816
0.0258819
0.0258823
0.0258827
0.025883
0.0258835
0.0264731
0.0264699
0.0264695
0.0264697
0.0264701
0.0264704
0.0264708
0.0264712
0.0264715
0.0264719
0.0264722
0.0264726
0.0264729
0.0264732
0.0264735
0.0264738
0.0264741
0.0264744
0.0264746
0.0264749
0.0264752
0.0264754
0.0264757
0.0264759
0.0264761
0.0264763
0.0264765
0.0264768
0.026477
0.0264772
0.0264774
0.0264775
0.0264777
0.0264779
0.0264781
0.0264782
0.0264784
0.0264785
0.0264787
0.0264788
0.0264789
0.0264791
0.0264792
0.0264793
0.0264794
0.0264795
0.0264796
0.0264797
0.0264798
0.0264799
0.0264799
0.02648
0.0264801
0.0264802
0.0264802
0.0264803
0.0264803
0.0264804
0.0264804
0.0264805
0.0264805
0.0264805
0.0264805
0.0264806
0.0264806
0.0264806
0.0264806
0.0264806
0.0264806
0.0264806
0.0264806
0.0264806
0.0264806
0.0264806
0.0264806
0.0264806
0.0264806
0.0264806
0.0264806
0.0264806
0.0264806
0.0264806
0.0264806
0.0264806
0.0264807
0.0264807
0.0264808
0.0264808
0.0264809
0.026481
0.0264811
0.0264812
0.0264813
0.0264815
0.0264816
0.0264818
0.0264819
0.0264821
0.0264823
0.0264826
0.0264828
0.026483
0.0264833
0.0264836
0.0264839
0.0264841
0.0264845
0.0264848
0.0264851
0.0264855
0.0264858
0.0264862
0.0264865
0.0264869
0.0264873
0.0264877
0.026488
0.0264884
0.0264888
0.0264894
0.0271404
0.0271369
0.0271365
0.0271367
0.0271371
0.0271375
0.0271379
0.0271382
0.0271386
0.0271389
0.0271393
0.0271396
0.0271399
0.0271402
0.0271405
0.0271408
0.0271411
0.0271414
0.0271416
0.0271419
0.0271421
0.0271423
0.0271426
0.0271428
0.027143
0.0271432
0.0271434
0.0271436
0.0271438
0.027144
0.0271441
0.0271443
0.0271445
0.0271446
0.0271448
0.027145
0.0271451
0.0271452
0.0271454
0.0271455
0.0271457
0.0271458
0.0271459
0.027146
0.0271461
0.0271462
0.0271464
0.0271465
0.0271466
0.0271467
0.0271468
0.0271469
0.027147
0.027147
0.0271471
0.0271472
0.0271473
0.0271474
0.0271475
0.0271475
0.0271476
0.0271477
0.0271477
0.0271478
0.0271478
0.0271479
0.0271479
0.027148
0.027148
0.027148
0.0271481
0.0271481
0.0271481
0.0271481
0.0271481
0.0271482
0.0271482
0.0271482
0.0271482
0.0271483
0.0271483
0.0271483
0.0271484
0.0271484
0.0271485
0.0271485
0.0271486
0.0271487
0.0271488
0.0271489
0.027149
0.0271491
0.0271493
0.0271494
0.0271496
0.0271498
0.02715
0.0271502
0.0271504
0.0271507
0.0271509
0.0271512
0.0271515
0.0271517
0.0271521
0.0271524
0.0271527
0.027153
0.0271534
0.0271538
0.0271541
0.0271545
0.0271549
0.0271553
0.0271557
0.0271561
0.0271565
0.0271569
0.0271572
0.0271579
0.0278738
0.02787
0.0278696
0.0278698
0.0278702
0.0278705
0.0278709
0.0278713
0.0278716
0.027872
0.0278723
0.0278726
0.0278729
0.0278732
0.0278735
0.0278738
0.027874
0.0278743
0.0278745
0.0278748
0.027875
0.0278752
0.0278754
0.0278756
0.0278758
0.027876
0.0278762
0.0278763
0.0278765
0.0278767
0.0278768
0.027877
0.0278772
0.0278773
0.0278775
0.0278776
0.0278778
0.0278779
0.0278781
0.0278782
0.0278783
0.0278785
0.0278786
0.0278787
0.0278789
0.027879
0.0278791
0.0278793
0.0278794
0.0278795
0.0278796
0.0278798
0.0278799
0.02788
0.0278802
0.0278803
0.0278804
0.0278805
0.0278806
0.0278807
0.0278808
0.027881
0.0278811
0.0278811
0.0278812
0.0278813
0.0278814
0.0278815
0.0278816
0.0278816
0.0278817
0.0278818
0.0278818
0.0278819
0.0278819
0.027882
0.027882
0.0278821
0.0278821
0.0278822
0.0278822
0.0278823
0.0278824
0.0278824
0.0278825
0.0278826
0.0278827
0.0278828
0.0278829
0.027883
0.0278832
0.0278833
0.0278835
0.0278837
0.0278839
0.0278841
0.0278843
0.0278845
0.0278848
0.027885
0.0278853
0.0278856
0.0278859
0.0278862
0.0278865
0.0278869
0.0278872
0.0278876
0.027888
0.0278884
0.0278888
0.0278892
0.0278896
0.02789
0.0278904
0.0278908
0.0278912
0.0278916
0.027892
0.0278928
0.0286775
0.0286734
0.0286728
0.028673
0.0286734
0.0286738
0.0286741
0.0286745
0.0286748
0.0286752
0.0286755
0.0286758
0.028676
0.0286763
0.0286766
0.0286768
0.0286771
0.0286773
0.0286775
0.0286777
0.0286779
0.0286781
0.0286783
0.0286785
0.0286786
0.0286788
0.028679
0.0286791
0.0286793
0.0286795
0.0286796
0.0286798
0.0286799
0.0286801
0.0286802
0.0286804
0.0286805
0.0286807
0.0286808
0.028681
0.0286811
0.0286813
0.0286815
0.0286816
0.0286818
0.0286819
0.0286821
0.0286823
0.0286824
0.0286826
0.0286828
0.0286829
0.0286831
0.0286833
0.0286835
0.0286836
0.0286838
0.028684
0.0286841
0.0286843
0.0286844
0.0286846
0.0286847
0.0286849
0.028685
0.0286851
0.0286853
0.0286854
0.0286855
0.0286856
0.0286857
0.0286858
0.0286859
0.028686
0.0286861
0.0286862
0.0286863
0.0286863
0.0286864
0.0286865
0.0286866
0.0286867
0.0286868
0.0286869
0.028687
0.0286871
0.0286872
0.0286873
0.0286875
0.0286876
0.0286878
0.028688
0.0286882
0.0286884
0.0286886
0.0286888
0.0286891
0.0286893
0.0286896
0.0286899
0.0286902
0.0286905
0.0286908
0.0286912
0.0286915
0.0286919
0.0286923
0.0286926
0.028693
0.0286935
0.0286939
0.0286943
0.0286947
0.0286951
0.0286956
0.028696
0.0286964
0.0286968
0.0286971
0.028698
0.0295562
0.0295517
0.0295511
0.0295512
0.0295516
0.0295519
0.0295522
0.0295526
0.0295529
0.0295532
0.0295535
0.0295537
0.029554
0.0295542
0.0295544
0.0295547
0.0295549
0.0295551
0.0295553
0.0295554
0.0295556
0.0295558
0.0295559
0.0295561
0.0295563
0.0295564
0.0295566
0.0295567
0.0295569
0.029557
0.0295572
0.0295573
0.0295575
0.0295576
0.0295578
0.029558
0.0295581
0.0295583
0.0295585
0.0295587
0.0295588
0.029559
0.0295592
0.0295594
0.0295596
0.0295598
0.0295601
0.0295603
0.0295605
0.0295607
0.0295609
0.0295612
0.0295614
0.0295616
0.0295619
0.0295621
0.0295623
0.0295625
0.0295628
0.029563
0.0295632
0.0295634
0.0295636
0.0295638
0.029564
0.0295642
0.0295643
0.0295645
0.0295647
0.0295648
0.029565
0.0295651
0.0295653
0.0295654
0.0295655
0.0295656
0.0295657
0.0295659
0.029566
0.0295661
0.0295662
0.0295663
0.0295664
0.0295666
0.0295667
0.0295668
0.029567
0.0295671
0.0295673
0.0295675
0.0295677
0.0295679
0.0295681
0.0295683
0.0295686
0.0295688
0.0295691
0.0295694
0.0295697
0.02957
0.0295703
0.0295707
0.029571
0.0295714
0.0295718
0.0295722
0.0295726
0.029573
0.0295734
0.0295738
0.0295743
0.0295747
0.0295751
0.0295756
0.029576
0.0295764
0.0295768
0.0295772
0.0295775
0.0295785
0.0305154
0.0305104
0.0305096
0.0305097
0.03051
0.0305103
0.0305106
0.0305109
0.0305112
0.0305114
0.0305117
0.0305119
0.0305121
0.0305123
0.0305125
0.0305127
0.0305129
0.030513
0.0305132
0.0305133
0.0305135
0.0305136
0.0305138
0.0305139
0.0305141
0.0305142
0.0305144
0.0305145
0.0305146
0.0305148
0.0305149
0.0305151
0.0305153
0.0305154
0.0305156
0.0305158
0.030516
0.0305162
0.0305164
0.0305167
0.0305169
0.0305171
0.0305174
0.0305177
0.0305179
0.0305182
0.0305185
0.0305188
0.0305191
0.0305194
0.0305197
0.03052
0.0305203
0.0305206
0.0305209
0.0305212
0.0305214
0.0305217
0.030522
0.0305223
0.0305226
0.0305229
0.0305231
0.0305234
0.0305236
0.0305239
0.0305241
0.0305243
0.0305245
0.0305247
0.0305249
0.0305251
0.0305253
0.0305255
0.0305256
0.0305258
0.0305259
0.0305261
0.0305262
0.0305264
0.0305265
0.0305267
0.0305268
0.030527
0.0305271
0.0305273
0.0305275
0.0305277
0.0305279
0.0305281
0.0305283
0.0305285
0.0305288
0.030529
0.0305293
0.0305296
0.0305299
0.0305302
0.0305305
0.0305309
0.0305312
0.0305316
0.030532
0.0305324
0.0305328
0.0305332
0.0305336
0.0305341
0.0305345
0.030535
0.0305354
0.0305359
0.0305363
0.0305367
0.0305372
0.0305376
0.0305379
0.0305383
0.0305385
0.0305397
0.031561
0.0315555
0.0315545
0.0315546
0.0315548
0.031555
0.0315553
0.0315555
0.0315557
0.0315559
0.0315561
0.0315563
0.0315565
0.0315566
0.0315568
0.0315569
0.0315571
0.0315572
0.0315573
0.0315575
0.0315576
0.0315577
0.0315579
0.031558
0.0315581
0.0315583
0.0315584
0.0315585
0.0315587
0.0315588
0.031559
0.0315592
0.0315594
0.0315596
0.0315598
0.03156
0.0315603
0.0315605
0.0315608
0.0315611
0.0315615
0.0315618
0.0315621
0.0315625
0.0315628
0.0315632
0.0315636
0.031564
0.0315643
0.0315647
0.0315651
0.0315655
0.0315659
0.0315663
0.0315666
0.031567
0.0315674
0.0315678
0.0315681
0.0315685
0.0315688
0.0315692
0.0315695
0.0315698
0.0315701
0.0315704
0.0315707
0.031571
0.0315713
0.0315715
0.0315718
0.031572
0.0315722
0.0315724
0.0315727
0.0315728
0.031573
0.0315732
0.0315734
0.0315736
0.0315738
0.0315739
0.0315741
0.0315743
0.0315745
0.0315747
0.0315749
0.0315751
0.0315753
0.0315756
0.0315758
0.0315761
0.0315763
0.0315766
0.0315769
0.0315772
0.0315776
0.0315779
0.0315783
0.0315786
0.031579
0.0315794
0.0315798
0.0315803
0.0315807
0.0315812
0.0315816
0.0315821
0.0315825
0.031583
0.0315835
0.0315839
0.0315844
0.0315848
0.0315852
0.0315855
0.0315858
0.0315862
0.0315863
0.0315875
0.0326999
0.0326938
0.0326926
0.0326925
0.0326927
0.0326929
0.032693
0.0326932
0.0326934
0.0326935
0.0326936
0.0326938
0.0326939
0.032694
0.0326941
0.0326942
0.0326943
0.0326944
0.0326946
0.0326947
0.0326948
0.0326949
0.032695
0.0326951
0.0326953
0.0326954
0.0326955
0.0326957
0.0326958
0.032696
0.0326962
0.0326964
0.0326967
0.0326969
0.0326972
0.0326975
0.0326979
0.0326983
0.0326987
0.0326991
0.0326995
0.0326999
0.0327004
0.0327009
0.0327013
0.0327018
0.0327023
0.0327028
0.0327033
0.0327038
0.0327043
0.0327047
0.0327052
0.0327057
0.0327062
0.0327067
0.0327071
0.0327076
0.032708
0.0327085
0.0327089
0.0327093
0.0327097
0.0327101
0.0327105
0.0327109
0.0327112
0.0327115
0.0327119
0.0327122
0.0327125
0.0327127
0.032713
0.0327133
0.0327135
0.0327138
0.032714
0.0327142
0.0327144
0.0327146
0.0327149
0.0327151
0.0327153
0.0327155
0.0327157
0.0327159
0.0327162
0.0327164
0.0327167
0.0327169
0.0327172
0.0327175
0.0327178
0.0327181
0.0327184
0.0327188
0.0327191
0.0327195
0.0327199
0.0327203
0.0327207
0.0327211
0.0327216
0.032722
0.0327225
0.032723
0.0327235
0.0327239
0.0327244
0.0327249
0.0327253
0.0327258
0.0327262
0.0327265
0.0327268
0.0327271
0.0327274
0.0327276
0.0327276
0.0327289
0.0339396
0.0339328
0.0339314
0.0339312
0.0339312
0.0339313
0.0339314
0.0339315
0.0339316
0.0339317
0.0339318
0.0339318
0.0339319
0.033932
0.0339321
0.0339322
0.0339322
0.0339323
0.0339324
0.0339325
0.0339326
0.0339327
0.0339329
0.033933
0.0339331
0.0339333
0.0339334
0.0339336
0.0339338
0.033934
0.0339343
0.0339346
0.0339349
0.0339353
0.0339357
0.0339361
0.0339366
0.0339371
0.0339376
0.0339382
0.0339388
0.0339394
0.03394
0.0339406
0.0339412
0.0339418
0.0339424
0.033943
0.0339437
0.0339443
0.0339449
0.0339455
0.0339461
0.0339467
0.0339473
0.0339478
0.0339484
0.033949
0.0339495
0.03395
0.0339505
0.033951
0.0339515
0.033952
0.0339524
0.0339529
0.0339533
0.0339537
0.0339541
0.0339544
0.0339548
0.0339551
0.0339554
0.0339557
0.033956
0.0339563
0.0339565
0.0339568
0.033957
0.0339573
0.0339575
0.0339578
0.033958
0.0339583
0.0339585
0.0339588
0.033959
0.0339593
0.0339596
0.0339599
0.0339602
0.0339605
0.0339608
0.0339612
0.0339615
0.0339619
0.0339623
0.0339627
0.0339631
0.0339635
0.033964
0.0339644
0.0339649
0.0339654
0.0339659
0.0339664
0.0339669
0.0339674
0.0339678
0.0339683
0.0339687
0.0339691
0.0339694
0.0339696
0.0339698
0.03397
0.0339701
0.0339702
0.03397
0.0339714
0.0352885
0.0352809
0.0352793
0.0352789
0.0352789
0.0352789
0.0352789
0.0352789
0.0352789
0.0352789
0.035279
0.035279
0.035279
0.0352791
0.0352791
0.0352792
0.0352793
0.0352793
0.0352794
0.0352795
0.0352796
0.0352798
0.0352799
0.03528
0.0352802
0.0352804
0.0352806
0.0352808
0.0352811
0.0352814
0.0352818
0.0352822
0.0352827
0.0352832
0.0352838
0.0352844
0.0352851
0.0352858
0.0352865
0.0352872
0.035288
0.0352888
0.0352895
0.0352903
0.0352911
0.0352919
0.0352927
0.0352934
0.0352942
0.035295
0.0352957
0.0352964
0.0352972
0.0352979
0.0352986
0.0352993
0.0352999
0.0353006
0.0353012
0.0353018
0.0353024
0.035303
0.0353036
0.0353041
0.0353046
0.0353051
0.0353056
0.035306
0.0353065
0.0353069
0.0353073
0.0353077
0.035308
0.0353084
0.0353087
0.035309
0.0353093
0.0353096
0.0353099
0.0353102
0.0353104
0.0353107
0.035311
0.0353113
0.0353115
0.0353118
0.0353121
0.0353124
0.0353127
0.035313
0.0353134
0.0353137
0.0353141
0.0353144
0.0353148
0.0353152
0.0353156
0.0353161
0.0353165
0.035317
0.0353175
0.0353179
0.0353184
0.035319
0.0353195
0.03532
0.0353205
0.035321
0.0353214
0.0353218
0.0353221
0.0353223
0.0353225
0.0353226
0.0353226
0.0353225
0.0353224
0.0353223
0.0353219
0.0353235
0.036756
0.0367475
0.0367455
0.0367451
0.0367449
0.0367448
0.0367447
0.0367447
0.0367446
0.0367446
0.0367446
0.0367446
0.0367446
0.0367446
0.0367447
0.0367447
0.0367448
0.0367449
0.036745
0.0367451
0.0367452
0.0367454
0.0367456
0.0367457
0.0367459
0.0367462
0.0367464
0.0367468
0.0367472
0.0367476
0.0367482
0.0367488
0.0367495
0.0367503
0.0367511
0.036752
0.0367529
0.0367539
0.0367548
0.0367558
0.0367568
0.0367578
0.0367588
0.0367598
0.0367607
0.0367617
0.0367627
0.0367636
0.0367645
0.0367654
0.0367663
0.0367672
0.036768
0.0367689
0.0367697
0.0367705
0.0367712
0.036772
0.0367727
0.0367734
0.0367741
0.0367748
0.0367754
0.036776
0.0367766
0.0367772
0.0367777
0.0367782
0.0367787
0.0367792
0.0367796
0.03678
0.0367804
0.0367808
0.0367812
0.0367815
0.0367819
0.0367822
0.0367825
0.0367828
0.0367831
0.0367834
0.0367837
0.036784
0.0367843
0.0367846
0.0367849
0.0367853
0.0367856
0.0367859
0.0367863
0.0367867
0.036787
0.0367874
0.0367879
0.0367883
0.0367887
0.0367892
0.0367897
0.0367902
0.0367907
0.0367912
0.0367917
0.0367923
0.0367928
0.0367933
0.0367938
0.0367942
0.0367945
0.0367947
0.0367948
0.0367948
0.0367947
0.0367946
0.0367943
0.036794
0.0367936
0.0367933
0.0367926
0.0367943
0.0383521
0.0383427
0.0383404
0.0383398
0.0383395
0.0383393
0.0383392
0.0383391
0.038339
0.0383389
0.0383389
0.0383389
0.0383389
0.0383389
0.038339
0.0383391
0.0383392
0.0383393
0.0383395
0.0383396
0.0383398
0.03834
0.0383402
0.0383405
0.0383408
0.0383411
0.0383415
0.038342
0.0383427
0.0383434
0.0383442
0.0383452
0.0383462
0.0383473
0.0383484
0.0383496
0.0383509
0.0383521
0.0383534
0.0383546
0.0383559
0.0383571
0.0383584
0.0383596
0.0383607
0.0383619
0.038363
0.0383641
0.0383652
0.0383663
0.0383673
0.0383683
0.0383693
0.0383702
0.0383712
0.0383721
0.0383729
0.0383738
0.0383746
0.0383754
0.0383762
0.0383769
0.0383776
0.0383783
0.0383789
0.0383796
0.0383802
0.0383807
0.0383813
0.0383818
0.0383823
0.0383827
0.0383832
0.0383836
0.038384
0.0383844
0.0383847
0.0383851
0.0383854
0.0383858
0.0383861
0.0383864
0.0383867
0.0383871
0.0383874
0.0383877
0.0383881
0.0383884
0.0383888
0.0383891
0.0383895
0.0383899
0.0383903
0.0383907
0.0383912
0.0383916
0.0383921
0.0383926
0.0383931
0.0383936
0.0383942
0.0383947
0.0383953
0.0383958
0.0383963
0.0383968
0.0383971
0.0383974
0.0383975
0.0383974
0.0383972
0.0383968
0.0383964
0.0383958
0.0383952
0.0383946
0.0383939
0.0383933
0.0383923
0.0383941
0.0400881
0.0400777
0.0400752
0.0400744
0.0400741
0.0400738
0.0400736
0.0400735
0.0400734
0.0400733
0.0400733
0.0400734
0.0400734
0.0400735
0.0400736
0.0400738
0.0400739
0.0400741
0.0400744
0.0400746
0.0400749
0.0400751
0.0400754
0.0400758
0.0400762
0.0400767
0.0400774
0.0400782
0.0400792
0.0400803
0.0400816
0.040083
0.0400844
0.040086
0.0400875
0.0400891
0.0400907
0.0400923
0.0400939
0.0400955
0.040097
0.0400985
0.0401
0.0401014
0.0401028
0.0401042
0.0401055
0.0401068
0.040108
0.0401092
0.0401104
0.0401115
0.0401126
0.0401137
0.0401147
0.0401157
0.0401167
0.0401176
0.0401185
0.0401194
0.0401202
0.040121
0.0401218
0.0401226
0.0401233
0.0401239
0.0401246
0.0401252
0.0401258
0.0401263
0.0401269
0.0401274
0.0401278
0.0401283
0.0401287
0.0401291
0.0401295
0.0401299
0.0401302
0.0401306
0.0401309
0.0401313
0.0401316
0.040132
0.0401323
0.0401327
0.040133
0.0401334
0.0401338
0.0401342
0.0401346
0.040135
0.0401354
0.0401359
0.0401364
0.0401368
0.0401373
0.0401379
0.0401384
0.0401389
0.0401395
0.0401401
0.0401406
0.0401411
0.0401416
0.0401419
0.0401421
0.040142
0.0401417
0.0401411
0.0401403
0.0401394
0.0401385
0.0401374
0.0401364
0.0401353
0.0401343
0.0401334
0.0401321
0.0401341
0.0419764
0.041965
0.0419622
0.0419613
0.0419609
0.0419607
0.0419605
0.0419604
0.0419603
0.0419603
0.0419604
0.0419605
0.0419606
0.0419608
0.041961
0.0419613
0.0419616
0.0419619
0.0419622
0.0419625
0.0419629
0.0419633
0.0419637
0.0419642
0.0419649
0.0419657
0.0419668
0.0419682
0.0419697
0.0419714
0.0419733
0.0419753
0.0419773
0.0419794
0.0419814
0.0419835
0.0419855
0.0419875
0.0419894
0.0419913
0.0419931
0.0419949
0.0419966
0.0419983
0.0419999
0.0420014
0.0420029
0.0420043
0.0420057
0.042007
0.0420083
0.0420096
0.0420108
0.0420119
0.0420131
0.0420141
0.0420152
0.0420162
0.0420172
0.0420181
0.042019
0.0420199
0.0420207
0.0420215
0.0420223
0.042023
0.0420237
0.0420243
0.042025
0.0420255
0.0420261
0.0420266
0.0420271
0.0420276
0.042028
0.0420285
0.0420289
0.0420293
0.0420296
0.04203
0.0420304
0.0420307