/*--------------------------------*- C++ -*----------------------------------*\
  =========                 |
  \\      /  F ield         | OpenFOAM: The Open Source CFD Toolbox
   \\    /   O peration     | Website:  https://openfoam.org
    \\  /    A nd           | Version:  7
     \\/     M anipulation  |
\*---------------------------------------------------------------------------*/
FoamFile
{
    version     2.0;
    format      ascii;
    class       volScalarField;
    location    "2000";
    object      omega;
}
// * * * * * * * * * * * * * * * * * * * * * * * * * * * * * * * * * * * * * //

dimensions      [0 0 -1 0 0 0 0];

internalField   nonuniform List<scalar> 
3963
(
0.0767539
0.0767293
0.0767273
0.07673
0.0767334
0.0767368
0.0767401
0.0767432
0.0767463
0.0767493
0.0767523
0.0767552
0.0767581
0.076761
0.0767639
0.0767668
0.0767696
0.0767724
0.0767753
0.0767778
0.0767823
0.0767931
0.0768059
0.0768194
0.076828
0.0768338
0.0768384
0.0768422
0.0768455
0.0768485
0.0768513
0.0768538
0.0768562
0.0768584
0.0768609
0.076861
0.076874
0.0818397
0.081814
0.0818108
0.0818132
0.0818169
0.0818207
0.0818245
0.0818282
0.0818318
0.0818353
0.0818388
0.0818422
0.0818456
0.0818489
0.0818522
0.0818555
0.0818588
0.081862
0.0818653
0.0818676
0.081879
0.0817927
0.0817585
0.0817426
0.0817555
0.0817693
0.0817757
0.0818199
0.0818489
0.081869
0.0818837
0.0818948
0.0819036
0.0819109
0.0819171
0.0819225
0.0819274
0.0819318
0.0819358
0.0819395
0.0819433
0.0819445
0.0819597
0.0872938
0.0872685
0.0872655
0.0872679
0.0872717
0.0872759
0.0872801
0.0872842
0.0872883
0.0872923
0.0872962
0.0873001
0.0873039
0.0873077
0.0873114
0.0873151
0.0873187
0.0873223
0.0873259
0.0873287
0.087338
0.0873073
0.0872849
0.0871726
0.0871226
0.0871063
0.0871
0.0870964
0.0870938
0.087092
0.0870907
0.0870899
0.0870894
0.0870891
0.0870891
0.0870892
0.0870895
0.0870899
0.0870903
0.0870908
0.0870914
0.087092
0.0870926
0.0870933
0.087094
0.0870946
0.0870953
0.087096
0.0870967
0.0870974
0.087098
0.0870987
0.0870994
0.0871
0.0871007
0.0871014
0.087102
0.0871027
0.0871033
0.087104
0.0871046
0.0871053
0.0871059
0.0871066
0.0871072
0.0871079
0.0871085
0.0871092
0.0871098
0.0871105
0.0871112
0.0871119
0.0871126
0.0871133
0.087114
0.0871147
0.0871155
0.0871162
0.0871169
0.0871177
0.0871185
0.0871192
0.08712
0.0871208
0.0871216
0.0871224
0.0871233
0.0871241
0.0871249
0.0871258
0.0871266
0.0871274
0.0871283
0.0871292
0.08713
0.0871308
0.0871317
0.0871325
0.0871334
0.087132
0.0871736
0.0872002
0.0872185
0.0872293
0.0872532
0.0872782
0.0872997
0.0873171
0.0873313
0.087343
0.0873529
0.0873614
0.0873689
0.0873755
0.0873815
0.087387
0.087392
0.087397
0.0873991
0.0874163
0.0931395
0.0931145
0.0931121
0.093115
0.0931192
0.0931237
0.0931282
0.0931328
0.0931372
0.0931416
0.093146
0.0931502
0.0931544
0.0931586
0.0931626
0.0931667
0.0931706
0.0931746
0.0931785
0.0931818
0.0931889
0.0931803
0.0931699
0.093119
0.0930717
0.093042
0.0930249
0.0930142
0.0930069
0.0930015
0.0929973
0.0929941
0.0929916
0.0929896
0.0929881
0.092987
0.0929861
0.0929854
0.092985
0.0929847
0.0929845
0.0929844
0.0929844
0.0929845
0.0929846
0.0929848
0.092985
0.0929853
0.0929856
0.0929859
0.0929862
0.0929866
0.0929869
0.0929873
0.0929877
0.0929881
0.0929885
0.0929889
0.0929893
0.0929898
0.0929902
0.0929907
0.0929911
0.0929916
0.0929921
0.0929926
0.0929931
0.0929937
0.0929942
0.0929947
0.0929953
0.0929959
0.0929965
0.0929971
0.0929977
0.0929984
0.092999
0.0929997
0.0930004
0.0930011
0.0930018
0.0930026
0.0930033
0.0930041
0.0930048
0.0930056
0.0930064
0.0930072
0.0930081
0.0930089
0.0930098
0.0930106
0.0930115
0.0930123
0.0930132
0.0930141
0.0930149
0.0930158
0.0930168
0.0930156
0.0930319
0.0930515
0.0930688
0.0930815
0.0930975
0.0931163
0.093135
0.0931521
0.093167
0.09318
0.0931913
0.0932012
0.0932101
0.0932181
0.0932253
0.0932319
0.0932379
0.0932439
0.0932467
0.0932657
0.0993994
0.0993742
0.0993724
0.0993758
0.0993805
0.0993853
0.0993902
0.0993951
0.0993999
0.0994046
0.0994093
0.0994139
0.0994184
0.0994229
0.0994273
0.0994316
0.0994359
0.0994401
0.0994443
0.0994481
0.0994537
0.0994537
0.099451
0.0994298
0.0993997
0.0993728
0.0993527
0.0993383
0.0993278
0.0993198
0.0993135
0.0993085
0.0993044
0.0993011
0.0992983
0.0992961
0.0992942
0.0992927
0.0992914
0.0992904
0.0992895
0.0992889
0.0992883
0.0992879
0.0992875
0.0992873
0.0992871
0.0992869
0.0992868
0.0992868
0.0992868
0.0992868
0.0992869
0.099287
0.0992871
0.0992873
0.0992874
0.0992876
0.0992878
0.0992881
0.0992883
0.0992886
0.0992889
0.0992892
0.0992895
0.0992899
0.0992903
0.0992907
0.0992911
0.0992915
0.099292
0.0992925
0.099293
0.0992935
0.099294
0.0992946
0.0992952
0.0992958
0.0992964
0.0992971
0.0992978
0.0992985
0.0992992
0.0992999
0.0993007
0.0993014
0.0993022
0.099303
0.0993039
0.0993047
0.0993056
0.0993064
0.0993073
0.0993082
0.0993091
0.0993099
0.0993108
0.0993117
0.0993127
0.0993124
0.0993186
0.09933
0.0993428
0.0993543
0.0993665
0.0993805
0.0993954
0.0994102
0.0994242
0.0994369
0.0994485
0.0994589
0.0994684
0.0994771
0.099485
0.0994923
0.099499
0.0995057
0.0995089
0.0995296
0.106095
0.10607
0.106068
0.106072
0.106077
0.106082
0.106088
0.106093
0.106098
0.106103
0.106108
0.106113
0.106117
0.106122
0.106127
0.106131
0.106136
0.10614
0.106145
0.106149
0.106154
0.106157
0.106158
0.106151
0.106136
0.106118
0.106101
0.106086
0.106075
0.106066
0.106059
0.106053
0.106048
0.106043
0.10604
0.106037
0.106034
0.106032
0.10603
0.106029
0.106027
0.106026
0.106025
0.106024
0.106023
0.106023
0.106022
0.106022
0.106021
0.106021
0.106021
0.10602
0.10602
0.10602
0.10602
0.10602
0.10602
0.10602
0.10602
0.10602
0.10602
0.10602
0.10602
0.10602
0.106021
0.106021
0.106021
0.106021
0.106022
0.106022
0.106022
0.106023
0.106023
0.106024
0.106024
0.106025
0.106025
0.106026
0.106026
0.106027
0.106027
0.106028
0.106029
0.10603
0.10603
0.106031
0.106032
0.106033
0.106033
0.106034
0.106035
0.106036
0.106037
0.106038
0.106039
0.10604
0.106041
0.106041
0.106042
0.106043
0.106045
0.106051
0.10606
0.106068
0.106078
0.106088
0.1061
0.106112
0.106124
0.106135
0.106146
0.106156
0.106166
0.106174
0.106183
0.10619
0.106197
0.106204
0.106208
0.10623
0.113249
0.113223
0.113221
0.113226
0.113231
0.113236
0.113242
0.113247
0.113253
0.113258
0.113263
0.113268
0.113273
0.113278
0.113283
0.113287
0.113292
0.113297
0.113301
0.113306
0.11331
0.113315
0.113318
0.113317
0.113312
0.113302
0.11329
0.113279
0.113269
0.11326
0.113253
0.113247
0.113242
0.113237
0.113233
0.11323
0.113227
0.113224
0.113222
0.11322
0.113218
0.113217
0.113216
0.113214
0.113213
0.113212
0.113212
0.113211
0.11321
0.11321
0.113209
0.113208
0.113208
0.113208
0.113207
0.113207
0.113207
0.113207
0.113206
0.113206
0.113206
0.113206
0.113206
0.113206
0.113206
0.113206
0.113207
0.113207
0.113207
0.113207
0.113207
0.113208
0.113208
0.113208
0.113209
0.113209
0.11321
0.11321
0.113211
0.113211
0.113212
0.113213
0.113213
0.113214
0.113215
0.113216
0.113216
0.113217
0.113218
0.113219
0.11322
0.113221
0.113222
0.113222
0.113223
0.113224
0.113225
0.113226
0.113227
0.113228
0.113229
0.113232
0.113237
0.113244
0.11325
0.113258
0.113267
0.113276
0.113286
0.113296
0.113305
0.113315
0.113323
0.113332
0.11334
0.113347
0.113354
0.113361
0.113364
0.113388
0.120883
0.120855
0.120854
0.120858
0.120864
0.120869
0.120875
0.12088
0.120886
0.120891
0.120896
0.120901
0.120906
0.120911
0.120916
0.120921
0.120926
0.120931
0.120936
0.12094
0.120945
0.120949
0.120954
0.120956
0.120955
0.120952
0.120945
0.120938
0.120931
0.120924
0.120918
0.120912
0.120907
0.120903
0.120899
0.120896
0.120893
0.12089
0.120888
0.120886
0.120884
0.120882
0.120881
0.120879
0.120878
0.120877
0.120876
0.120875
0.120874
0.120873
0.120873
0.120872
0.120871
0.120871
0.12087
0.12087
0.120869
0.120869
0.120869
0.120869
0.120868
0.120868
0.120868
0.120868
0.120868
0.120868
0.120868
0.120868
0.120868
0.120868
0.120868
0.120869
0.120869
0.120869
0.12087
0.12087
0.12087
0.120871
0.120871
0.120872
0.120873
0.120873
0.120874
0.120875
0.120875
0.120876
0.120877
0.120878
0.120879
0.12088
0.12088
0.120881
0.120882
0.120883
0.120884
0.120885
0.120886
0.120887
0.120888
0.120889
0.12089
0.120892
0.120895
0.120899
0.120904
0.12091
0.120916
0.120923
0.120931
0.120939
0.120947
0.120955
0.120963
0.12097
0.120977
0.120984
0.120991
0.120998
0.121001
0.121025
0.129017
0.128989
0.128987
0.128991
0.128997
0.129002
0.129008
0.129014
0.129019
0.129024
0.12903
0.129035
0.12904
0.129045
0.12905
0.129055
0.12906
0.129065
0.129069
0.129074
0.129079
0.129083
0.129088
0.129092
0.129094
0.129094
0.129092
0.129088
0.129084
0.129079
0.129075
0.12907
0.129066
0.129063
0.129059
0.129056
0.129054
0.129051
0.129049
0.129047
0.129045
0.129043
0.129042
0.12904
0.129039
0.129038
0.129037
0.129035
0.129034
0.129034
0.129033
0.129032
0.129031
0.129031
0.12903
0.129029
0.129029
0.129028
0.129028
0.129028
0.129027
0.129027
0.129027
0.129027
0.129027
0.129026
0.129026
0.129026
0.129026
0.129026
0.129027
0.129027
0.129027
0.129027
0.129028
0.129028
0.129029
0.129029
0.12903
0.12903
0.129031
0.129031
0.129032
0.129033
0.129033
0.129034
0.129035
0.129036
0.129037
0.129038
0.129039
0.12904
0.129041
0.129042
0.129043
0.129044
0.129045
0.129046
0.129047
0.129048
0.129049
0.12905
0.129052
0.129055
0.129058
0.129062
0.129067
0.129072
0.129078
0.129084
0.129091
0.129097
0.129104
0.129111
0.129117
0.129124
0.12913
0.129136
0.129139
0.129163
0.137674
0.137645
0.137643
0.137647
0.137652
0.137658
0.137663
0.137669
0.137674
0.137679
0.137684
0.13769
0.137695
0.1377
0.137705
0.13771
0.137715
0.137719
0.137724
0.137729
0.137734
0.137738
0.137743
0.137747
0.137751
0.137753
0.137754
0.137753
0.137751
0.137749
0.137746
0.137743
0.13774
0.137738
0.137735
0.137733
0.13773
0.137728
0.137726
0.137725
0.137723
0.137721
0.13772
0.137718
0.137717
0.137716
0.137715
0.137714
0.137713
0.137712
0.137711
0.13771
0.137709
0.137709
0.137708
0.137707
0.137707
0.137706
0.137706
0.137705
0.137705
0.137704
0.137704
0.137704
0.137704
0.137704
0.137703
0.137703
0.137703
0.137703
0.137704
0.137704
0.137704
0.137704
0.137705
0.137705
0.137705
0.137706
0.137706
0.137707
0.137708
0.137708
0.137709
0.13771
0.13771
0.137711
0.137712
0.137713
0.137714
0.137715
0.137716
0.137717
0.137718
0.137719
0.13772
0.137721
0.137722
0.137724
0.137725
0.137726
0.137727
0.137728
0.137729
0.137731
0.137734
0.137736
0.13774
0.137744
0.137748
0.137753
0.137758
0.137763
0.137769
0.137775
0.13778
0.137786
0.137791
0.137797
0.137799
0.137824
0.146876
0.146846
0.146843
0.146847
0.146852
0.146857
0.146862
0.146867
0.146873
0.146878
0.146883
0.146888
0.146893
0.146898
0.146903
0.146908
0.146912
0.146917
0.146922
0.146927
0.146931
0.146936
0.14694
0.146945
0.146949
0.146952
0.146955
0.146956
0.146956
0.146956
0.146955
0.146954
0.146952
0.146951
0.146949
0.146947
0.146946
0.146944
0.146942
0.146941
0.14694
0.146938
0.146937
0.146936
0.146935
0.146934
0.146933
0.146932
0.146931
0.14693
0.146929
0.146928
0.146927
0.146926
0.146926
0.146925
0.146924
0.146924
0.146923
0.146923
0.146922
0.146922
0.146922
0.146921
0.146921
0.146921
0.146921
0.146921
0.146921
0.146921
0.146921
0.146921
0.146921
0.146921
0.146922
0.146922
0.146923
0.146923
0.146924
0.146924
0.146925
0.146926
0.146926
0.146927
0.146928
0.146929
0.14693
0.146931
0.146932
0.146933
0.146934
0.146935
0.146936
0.146937
0.146938
0.146939
0.146941
0.146942
0.146943
0.146944
0.146945
0.146946
0.146947
0.146949
0.146951
0.146953
0.146955
0.146958
0.146961
0.146965
0.146969
0.146973
0.146978
0.146982
0.146987
0.146992
0.146996
0.147002
0.147003
0.147028
0.156643
0.156612
0.156609
0.156612
0.156617
0.156622
0.156627
0.156632
0.156637
0.156642
0.156646
0.156651
0.156656
0.156661
0.156666
0.15667
0.156675
0.15668
0.156684
0.156689
0.156694
0.156698
0.156703
0.156707
0.156711
0.156715
0.156719
0.156721
0.156723
0.156724
0.156724
0.156724
0.156724
0.156724
0.156723
0.156722
0.156721
0.15672
0.156719
0.156718
0.156717
0.156716
0.156715
0.156714
0.156713
0.156712
0.156711
0.156711
0.15671
0.156709
0.156708
0.156707
0.156706
0.156706
0.156705
0.156704
0.156704
0.156703
0.156703
0.156702
0.156702
0.156701
0.156701
0.156701
0.1567
0.1567
0.1567
0.1567
0.1567
0.1567
0.1567
0.1567
0.1567
0.156701
0.156701
0.156702
0.156702
0.156703
0.156703
0.156704
0.156705
0.156705
0.156706
0.156707
0.156708
0.156709
0.15671
0.156711
0.156712
0.156713
0.156714
0.156715
0.156716
0.156718
0.156719
0.15672
0.156721
0.156723
0.156724
0.156725
0.156726
0.156727
0.156728
0.15673
0.156731
0.156733
0.156735
0.156737
0.156739
0.156742
0.156745
0.156748
0.156752
0.156756
0.156759
0.156763
0.156767
0.156772
0.156772
0.156798
0.166998
0.166966
0.166962
0.166965
0.166969
0.166974
0.166979
0.166983
0.166988
0.166993
0.166998
0.167002
0.167007
0.167011
0.167016
0.167021
0.167025
0.16703
0.167034
0.167038
0.167043
0.167047
0.167052
0.167056
0.16706
0.167064
0.167068
0.167071
0.167074
0.167076
0.167078
0.167079
0.167079
0.16708
0.16708
0.16708
0.16708
0.167079
0.167079
0.167078
0.167078
0.167077
0.167077
0.167076
0.167075
0.167075
0.167074
0.167073
0.167072
0.167072
0.167071
0.16707
0.167069
0.167069
0.167068
0.167067
0.167067
0.167066
0.167066
0.167065
0.167065
0.167065
0.167064
0.167064
0.167064
0.167064
0.167063
0.167063
0.167063
0.167063
0.167064
0.167064
0.167064
0.167064
0.167065
0.167065
0.167066
0.167066
0.167067
0.167068
0.167069
0.167069
0.16707
0.167071
0.167072
0.167073
0.167074
0.167075
0.167076
0.167078
0.167079
0.16708
0.167081
0.167083
0.167084
0.167085
0.167086
0.167088
0.167089
0.16709
0.167091
0.167093
0.167094
0.167095
0.167096
0.167098
0.167099
0.167101
0.167103
0.167105
0.167107
0.16711
0.167113
0.167116
0.167119
0.167122
0.167125
0.167129
0.167128
0.167154
0.177963
0.17793
0.177926
0.177928
0.177932
0.177936
0.177941
0.177945
0.17795
0.177954
0.177958
0.177963
0.177967
0.177972
0.177976
0.17798
0.177985
0.177989
0.177993
0.177997
0.178002
0.178006
0.17801
0.178014
0.178018
0.178022
0.178026
0.17803
0.178033
0.178036
0.178038
0.17804
0.178042
0.178043
0.178044
0.178044
0.178045
0.178045
0.178045
0.178045
0.178045
0.178045
0.178044
0.178044
0.178043
0.178043
0.178042
0.178042
0.178041
0.178041
0.17804
0.178039
0.178039
0.178038
0.178038
0.178037
0.178037
0.178036
0.178036
0.178035
0.178035
0.178034
0.178034
0.178034
0.178034
0.178034
0.178034
0.178034
0.178034
0.178034
0.178034
0.178034
0.178034
0.178035
0.178035
0.178036
0.178036
0.178037
0.178038
0.178039
0.17804
0.17804
0.178041
0.178042
0.178043
0.178045
0.178046
0.178047
0.178048
0.178049
0.178051
0.178052
0.178053
0.178055
0.178056
0.178057
0.178059
0.17806
0.178061
0.178063
0.178064
0.178065
0.178067
0.178068
0.178069
0.17807
0.178071
0.178073
0.178074
0.178076
0.178078
0.17808
0.178082
0.178084
0.178087
0.17809
0.178092
0.178096
0.178094
0.17812
0.189561
0.189527
0.189523
0.189525
0.189528
0.189532
0.189536
0.18954
0.189544
0.189548
0.189552
0.189556
0.18956
0.189565
0.189569
0.189573
0.189577
0.189581
0.189585
0.189589
0.189593
0.189597
0.189601
0.189605
0.189609
0.189613
0.189617
0.18962
0.189624
0.189627
0.18963
0.189632
0.189634
0.189636
0.189637
0.189639
0.189639
0.18964
0.189641
0.189641
0.189641
0.189641
0.189641
0.189641
0.189641
0.189641
0.189641
0.18964
0.18964
0.189639
0.189639
0.189638
0.189638
0.189637
0.189637
0.189636
0.189636
0.189636
0.189635
0.189635
0.189635
0.189634
0.189634
0.189634
0.189634
0.189634
0.189634
0.189634
0.189634
0.189634
0.189634
0.189635
0.189635
0.189635
0.189636
0.189637
0.189637
0.189638
0.189639
0.18964
0.189641
0.189642
0.189643
0.189644
0.189645
0.189646
0.189648
0.189649
0.18965
0.189652
0.189653
0.189654
0.189656
0.189657
0.189659
0.18966
0.189661
0.189663
0.189664
0.189666
0.189667
0.189668
0.189669
0.189671
0.189672
0.189673
0.189674
0.189675
0.189677
0.189678
0.18968
0.189681
0.189683
0.189685
0.189687
0.189689
0.189691
0.189694
0.189692
0.189718
0.201815
0.201781
0.201776
0.201778
0.201781
0.201784
0.201788
0.201792
0.201795
0.201799
0.201803
0.201807
0.201811
0.201814
0.201818
0.201822
0.201826
0.20183
0.201834
0.201837
0.201841
0.201845
0.201849
0.201853
0.201856
0.20186
0.201864
0.201867
0.201871
0.201874
0.201877
0.20188
0.201882
0.201884
0.201886
0.201887
0.201889
0.20189
0.201891
0.201892
0.201892
0.201892
0.201893
0.201893
0.201893
0.201893
0.201893
0.201893
0.201892
0.201892
0.201892
0.201891
0.201891
0.201891
0.20189
0.20189
0.201889
0.201889
0.201889
0.201889
0.201888
0.201888
0.201888
0.201888
0.201888
0.201888
0.201888
0.201888
0.201888
0.201888
0.201889
0.201889
0.20189
0.20189
0.201891
0.201892
0.201892
0.201893
0.201894
0.201895
0.201896
0.201897
0.201899
0.2019
0.201901
0.201902
0.201904
0.201905
0.201907
0.201908
0.201909
0.201911
0.201912
0.201914
0.201915
0.201917
0.201918
0.20192
0.201921
0.201923
0.201924
0.201926
0.201927
0.201928
0.201929
0.20193
0.201932
0.201933
0.201934
0.201935
0.201936
0.201938
0.201939
0.201941
0.201942
0.201944
0.201946
0.201948
0.201946
0.201971
0.21475
0.214717
0.214712
0.214713
0.214716
0.214719
0.214722
0.214725
0.214729
0.214732
0.214736
0.214739
0.214743
0.214746
0.21475
0.214753
0.214757
0.21476
0.214764
0.214768
0.214771
0.214775
0.214778
0.214782
0.214785
0.214789
0.214792
0.214796
0.214799
0.214802
0.214805
0.214808
0.21481
0.214813
0.214815
0.214817
0.214818
0.21482
0.214821
0.214822
0.214822
0.214823
0.214824
0.214824
0.214824
0.214824
0.214824
0.214824
0.214824
0.214824
0.214824
0.214824
0.214823
0.214823
0.214823
0.214822
0.214822
0.214822
0.214822
0.214822
0.214821
0.214821
0.214821
0.214821
0.214821
0.214821
0.214821
0.214822
0.214822
0.214822
0.214823
0.214823
0.214824
0.214825
0.214825
0.214826
0.214827
0.214828
0.214829
0.21483
0.214831
0.214833
0.214834
0.214835
0.214837
0.214838
0.214839
0.214841
0.214843
0.214844
0.214846
0.214847
0.214849
0.21485
0.214852
0.214854
0.214855
0.214857
0.214858
0.21486
0.214861
0.214862
0.214864
0.214865
0.214866
0.214867
0.214868
0.21487
0.214871
0.214872
0.214873
0.214874
0.214875
0.214877
0.214878
0.214879
0.214881
0.214883
0.21488
0.214905
0.228394
0.228361
0.228355
0.228356
0.228359
0.228361
0.228364
0.228367
0.22837
0.228374
0.228377
0.22838
0.228383
0.228386
0.22839
0.228393
0.228396
0.2284
0.228403
0.228406
0.228409
0.228413
0.228416
0.228419
0.228423
0.228426
0.228429
0.228432
0.228435
0.228438
0.228441
0.228444
0.228447
0.228449
0.228451
0.228453
0.228455
0.228456
0.228457
0.228458
0.228459
0.22846
0.228461
0.228461
0.228462
0.228462
0.228462
0.228462
0.228462
0.228462
0.228462
0.228462
0.228462
0.228462
0.228461
0.228461
0.228461
0.228461
0.228461
0.228461
0.228461
0.228461
0.228461
0.228461
0.228461
0.228461
0.228461
0.228462
0.228462
0.228462
0.228463
0.228464
0.228464
0.228465
0.228466
0.228467
0.228468
0.228469
0.22847
0.228472
0.228473
0.228474
0.228476
0.228477
0.228479
0.22848
0.228482
0.228483
0.228485
0.228486
0.228488
0.22849
0.228491
0.228493
0.228495
0.228496
0.228498
0.2285
0.228501
0.228503
0.228504
0.228506
0.228507
0.228508
0.228509
0.228511
0.228512
0.228513
0.228514
0.228515
0.228516
0.228517
0.228518
0.228519
0.22852
0.228522
0.228523
0.228525
0.228521
0.228547
0.242774
0.242741
0.242735
0.242736
0.242738
0.242741
0.242743
0.242746
0.242749
0.242752
0.242755
0.242758
0.24276
0.242763
0.242766
0.242769
0.242772
0.242775
0.242778
0.242781
0.242785
0.242788
0.242791
0.242794
0.242797
0.2428
0.242803
0.242806
0.242809
0.242811
0.242814
0.242817
0.242819
0.242821
0.242823
0.242825
0.242827
0.242828
0.242829
0.242831
0.242832
0.242832
0.242833
0.242834
0.242834
0.242835
0.242835
0.242835
0.242835
0.242835
0.242835
0.242835
0.242835
0.242835
0.242835
0.242835
0.242835
0.242835
0.242835
0.242835
0.242835
0.242835
0.242835
0.242835
0.242835
0.242835
0.242836
0.242836
0.242837
0.242837
0.242838
0.242839
0.24284
0.242841
0.242842
0.242843
0.242844
0.242845
0.242846
0.242848
0.242849
0.242851
0.242852
0.242854
0.242855
0.242857
0.242859
0.24286
0.242862
0.242864
0.242866
0.242867
0.242869
0.242871
0.242873
0.242874
0.242876
0.242877
0.242879
0.242881
0.242882
0.242884
0.242885
0.242886
0.242887
0.242889
0.24289
0.242891
0.242892
0.242893
0.242894
0.242895
0.242896
0.242897
0.242898
0.242899
0.2429
0.242902
0.242898
0.242923
0.25792
0.257888
0.257883
0.257883
0.257885
0.257887
0.25789
0.257892
0.257895
0.257897
0.2579
0.257903
0.257905
0.257908
0.257911
0.257913
0.257916
0.257919
0.257922
0.257924
0.257927
0.25793
0.257933
0.257936
0.257938
0.257941
0.257944
0.257946
0.257949
0.257952
0.257954
0.257956
0.257958
0.25796
0.257962
0.257964
0.257966
0.257967
0.257968
0.257969
0.25797
0.257971
0.257972
0.257972
0.257973
0.257973
0.257974
0.257974
0.257974
0.257974
0.257974
0.257974
0.257974
0.257974
0.257974
0.257974
0.257974
0.257974
0.257974
0.257974
0.257974
0.257975
0.257975
0.257975
0.257975
0.257976
0.257976
0.257977
0.257977
0.257978
0.257979
0.25798
0.257981
0.257982
0.257983
0.257984
0.257986
0.257987
0.257988
0.25799
0.257991
0.257993
0.257995
0.257996
0.257998
0.258
0.258002
0.258003
0.258005
0.258007
0.258009
0.258011
0.258012
0.258014
0.258016
0.258018
0.258019
0.258021
0.258023
0.258024
0.258026
0.258027
0.258029
0.25803
0.258031
0.258032
0.258033
0.258035
0.258036
0.258037
0.258038
0.258039
0.25804
0.258041
0.258042
0.258043
0.258043
0.258045
0.258042
0.258066
0.273868
0.273837
0.273831
0.273831
0.273833
0.273835
0.273837
0.27384
0.273842
0.273844
0.273846
0.273849
0.273851
0.273854
0.273856
0.273858
0.273861
0.273863
0.273866
0.273868
0.273871
0.273873
0.273876
0.273878
0.273881
0.273883
0.273886
0.273888
0.273891
0.273893
0.273895
0.273897
0.273899
0.2739
0.273902
0.273904
0.273905
0.273906
0.273907
0.273908
0.273909
0.27391
0.273911
0.273911
0.273912
0.273912
0.273912
0.273912
0.273913
0.273913
0.273913
0.273913
0.273913
0.273913
0.273913
0.273913
0.273913
0.273913
0.273913
0.273914
0.273914
0.273914
0.273914
0.273915
0.273915
0.273916
0.273916
0.273917
0.273918
0.273919
0.27392
0.273921
0.273922
0.273923
0.273924
0.273925
0.273927
0.273928
0.27393
0.273932
0.273933
0.273935
0.273937
0.273938
0.27394
0.273942
0.273944
0.273946
0.273948
0.27395
0.273952
0.273953
0.273955
0.273957
0.273959
0.273961
0.273962
0.273964
0.273966
0.273967
0.273969
0.27397
0.273972
0.273973
0.273974
0.273975
0.273976
0.273978
0.273979
0.27398
0.273981
0.273982
0.273983
0.273984
0.273985
0.273986
0.273987
0.273988
0.273985
0.274009
0.290652
0.290622
0.290617
0.290617
0.290619
0.290621
0.290623
0.290625
0.290627
0.290629
0.290631
0.290633
0.290635
0.290637
0.290639
0.290641
0.290644
0.290646
0.290648
0.29065
0.290653
0.290655
0.290657
0.290659
0.290662
0.290664
0.290666
0.290668
0.29067
0.290672
0.290674
0.290675
0.290677
0.290678
0.290679
0.290681
0.290682
0.290683
0.290684
0.290684
0.290685
0.290686
0.290686
0.290687
0.290687
0.290688
0.290688
0.290688
0.290688
0.290688
0.290688
0.290689
0.290689
0.290689
0.290689
0.290689
0.290689
0.290689
0.290689
0.29069
0.29069
0.29069
0.290691
0.290691
0.290692
0.290692
0.290693
0.290694
0.290695
0.290696
0.290697
0.290698
0.290699
0.2907
0.290702
0.290703
0.290705
0.290707
0.290708
0.29071
0.290712
0.290714
0.290715
0.290717
0.290719
0.290721
0.290723
0.290725
0.290727
0.290729
0.290731
0.290733
0.290735
0.290737
0.290738
0.29074
0.290742
0.290744
0.290745
0.290747
0.290748
0.29075
0.290751
0.290752
0.290754
0.290755
0.290756
0.290757
0.290758
0.290759
0.290761
0.290762
0.290763
0.290764
0.290765
0.290766
0.290766
0.290768
0.290765
0.290788
0.308316
0.308287
0.308282
0.308282
0.308283
0.308285
0.308287
0.308288
0.30829
0.308292
0.308294
0.308296
0.308298
0.3083
0.308302
0.308303
0.308305
0.308307
0.308309
0.308311
0.308313
0.308315
0.308317
0.308319
0.308321
0.308323
0.308325
0.308327
0.308328
0.30833
0.308331
0.308332
0.308334
0.308335
0.308335
0.308336
0.308337
0.308338
0.308339
0.308339
0.30834
0.30834
0.308341
0.308341
0.308341
0.308341
0.308342
0.308342
0.308342
0.308342
0.308342
0.308342
0.308342
0.308342
0.308342
0.308343
0.308343
0.308343
0.308343
0.308344
0.308344
0.308344
0.308345
0.308345
0.308346
0.308347
0.308348
0.308349
0.30835
0.308351
0.308352
0.308353
0.308355
0.308356
0.308358
0.308359
0.308361
0.308363
0.308364
0.308366
0.308368
0.30837
0.308372
0.308374
0.308376
0.308378
0.30838
0.308382
0.308384
0.308386
0.308388
0.30839
0.308392
0.308394
0.308396
0.308397
0.308399
0.308401
0.308402
0.308404
0.308405
0.308407
0.308408
0.308409
0.308411
0.308412
0.308413
0.308414
0.308416
0.308417
0.308418
0.308419
0.30842
0.308421
0.308422
0.308423
0.308424
0.308426
0.308422
0.308445
0.326903
0.326876
0.326871
0.326871
0.326872
0.326874
0.326875
0.326877
0.326879
0.32688
0.326882
0.326884
0.326885
0.326887
0.326889
0.32689
0.326892
0.326894
0.326895
0.326897
0.326899
0.3269
0.326902
0.326904
0.326906
0.326907
0.326909
0.32691
0.326911
0.326913
0.326913
0.326914
0.326915
0.326915
0.326916
0.326916
0.326917
0.326917
0.326918
0.326918
0.326918
0.326919
0.326919
0.326919
0.326919
0.326919
0.32692
0.32692
0.32692
0.32692
0.32692
0.32692
0.32692
0.32692
0.32692
0.32692
0.326921
0.326921
0.326921
0.326921
0.326922
0.326922
0.326923
0.326924
0.326924
0.326925
0.326926
0.326927
0.326928
0.32693
0.326931
0.326932
0.326934
0.326935
0.326937
0.326939
0.326941
0.326942
0.326944
0.326946
0.326948
0.32695
0.326952
0.326954
0.326957
0.326959
0.326961
0.326963
0.326965
0.326967
0.326969
0.326971
0.326973
0.326974
0.326976
0.326978
0.32698
0.326981
0.326983
0.326984
0.326986
0.326987
0.326989
0.32699
0.326991
0.326992
0.326994
0.326995
0.326996
0.326998
0.326999
0.327
0.327002
0.327003
0.327004
0.327005
0.327006
0.327007
0.327004
0.327026
0.346467
0.346441
0.346436
0.346436
0.346437
0.346439
0.34644
0.346442
0.346443
0.346444
0.346446
0.346447
0.346449
0.34645
0.346452
0.346453
0.346454
0.346456
0.346457
0.346459
0.34646
0.346462
0.346463
0.346465
0.346466
0.346468
0.346469
0.34647
0.346471
0.346471
0.346471
0.346472
0.346472
0.346472
0.346472
0.346472
0.346473
0.346473
0.346473
0.346473
0.346473
0.346473
0.346473
0.346473
0.346473
0.346473
0.346473
0.346473
0.346473
0.346473
0.346473
0.346473
0.346473
0.346473
0.346473
0.346474
0.346474
0.346474
0.346474
0.346475
0.346475
0.346476
0.346477
0.346477
0.346478
0.346479
0.34648
0.346481
0.346483
0.346484
0.346485
0.346487
0.346489
0.34649
0.346492
0.346494
0.346496
0.346498
0.3465
0.346502
0.346504
0.346506
0.346508
0.34651
0.346512
0.346514
0.346517
0.346519
0.346521
0.346523
0.346525
0.346527
0.346529
0.34653
0.346532
0.346534
0.346536
0.346537
0.346539
0.34654
0.346541
0.346543
0.346544
0.346545
0.346547
0.346548
0.346549
0.346551
0.346553
0.346554
0.346556
0.346557
0.346558
0.346559
0.34656
0.346562
0.346562
0.346564
0.346561
0.346581
0.367064
0.36704
0.367036
0.367036
0.367037
0.367038
0.367039
0.36704
0.367042
0.367043
0.367044
0.367045
0.367046
0.367048
0.367049
0.36705
0.367051
0.367052
0.367054
0.367055
0.367056
0.367057
0.367059
0.36706
0.367061
0.367062
0.367063
0.367063
0.367063
0.367063
0.367063
0.367063
0.367063
0.367063
0.367062
0.367062
0.367062
0.367062
0.367062
0.367061
0.367061
0.367061
0.367061
0.367061
0.367061
0.367061
0.36706
0.36706
0.36706
0.36706
0.36706
0.36706
0.36706
0.36706
0.36706
0.36706
0.367061
0.367061
0.367061
0.367062
0.367062
0.367063
0.367064
0.367065
0.367066
0.367067
0.367068
0.367069
0.36707
0.367072
0.367073
0.367075
0.367077
0.367079
0.367081
0.367083
0.367085
0.367087
0.367089
0.367091
0.367093
0.367095
0.367097
0.367099
0.367102
0.367104
0.367106
0.367108
0.36711
0.367112
0.367114
0.367116
0.367118
0.367119
0.367121
0.367123
0.367124
0.367126
0.367127
0.367129
0.36713
0.367131
0.367132
0.367134
0.367135
0.367137
0.367138
0.36714
0.367142
0.367144
0.367145
0.367147
0.367148
0.367149
0.36715
0.367152
0.367152
0.367154
0.367151
0.367171
0.388761
0.388739
0.388735
0.388735
0.388736
0.388737
0.388738
0.388739
0.38874
0.388741
0.388742
0.388743
0.388743
0.388744
0.388745
0.388746
0.388747
0.388748
0.388749
0.38875
0.388751
0.388752
0.388753
0.388754
0.388755
0.388756
0.388756
0.388756
0.388756
0.388755
0.388754
0.388753
0.388753
0.388752
0.388752
0.388751
0.388751
0.38875
0.38875
0.388749
0.388749
0.388749
0.388748
0.388748
0.388748
0.388747
0.388747
0.388747
0.388747
0.388746
0.388746
0.388746
0.388746
0.388746
0.388746
0.388747
0.388747
0.388747
0.388748
0.388748
0.388749
0.388749
0.38875
0.388751
0.388752
0.388753
0.388755
0.388756
0.388757
0.388759
0.388761
0.388762
0.388764
0.388766
0.388768
0.38877
0.388772
0.388774
0.388777
0.388779
0.388781
0.388783
0.388785
0.388788
0.38879
0.388792
0.388794
0.388796
0.388798
0.3888
0.388802
0.388804
0.388805
0.388807
0.388809
0.38881
0.388812
0.388813
0.388815
0.388816
0.388817
0.388818
0.388819
0.388821
0.388823
0.388825
0.388827
0.388829
0.38883
0.388832
0.388834
0.388835
0.388837
0.388838
0.388839
0.388841
0.388841
0.388843
0.38884
0.388859
0.411632
0.411612
0.411608
0.411608
0.411608
0.411609
0.41161
0.411611
0.411612
0.411612
0.411613
0.411614
0.411615
0.411615
0.411616
0.411617
0.411618
0.411618
0.411619
0.41162
0.411621
0.411622
0.411622
0.411623
0.411624
0.411624
0.411624
0.411623
0.411621
0.41162
0.411619
0.411617
0.411616
0.411615
0.411614
0.411614
0.411613
0.411612
0.411611
0.411611
0.41161
0.41161
0.411609
0.411609
0.411608
0.411608
0.411607
0.411607
0.411607
0.411606
0.411606
0.411606
0.411606
0.411606
0.411606
0.411606
0.411607
0.411607
0.411607
0.411608
0.411609
0.411609
0.41161
0.411611
0.411612
0.411614
0.411615
0.411617
0.411618
0.41162
0.411622
0.411623
0.411625
0.411627
0.411629
0.411632
0.411634
0.411636
0.411638
0.41164
0.411643
0.411645
0.411647
0.411649
0.411651
0.411653
0.411655
0.411657
0.411659
0.411661
0.411663
0.411665
0.411667
0.411668
0.41167
0.411671
0.411673
0.411674
0.411675
0.411676
0.411677
0.411678
0.41168
0.411682
0.411684
0.411686
0.411688
0.41169
0.411692
0.411694
0.411696
0.411698
0.411699
0.411701
0.411702
0.411703
0.411704
0.411706
0.411703
0.41172
0.435761
0.435743
0.43574
0.43574
0.43574
0.435741
0.435741
0.435742
0.435742
0.435743
0.435743
0.435744
0.435744
0.435745
0.435745
0.435746
0.435746
0.435747
0.435747
0.435748
0.435749
0.435749
0.43575
0.435751
0.435751
0.43575
0.435749
0.435747
0.435745
0.435743
0.435741
0.43574
0.435738
0.435737
0.435736
0.435734
0.435733
0.435732
0.435731
0.435731
0.43573
0.435729
0.435728
0.435728
0.435727
0.435727
0.435726
0.435726