/*--------------------------------*- C++ -*----------------------------------*\
  =========                 |
  \\      /  F ield         | OpenFOAM: The Open Source CFD Toolbox
   \\    /   O peration     | Website:  https://openfoam.org
    \\  /    A nd           | Version:  7
     \\/     M anipulation  |
\*---------------------------------------------------------------------------*/
FoamFile
{
    version     2.0;
    format      ascii;
    class       volVectorField;
    location    "2000";
    object      U;
}
// * * * * * * * * * * * * * * * * * * * * * * * * * * * * * * * * * * * * * //

dimensions      [0 1 -1 0 0 0 0];

internalField   nonuniform List<vector> 
3963
(
(0.140036 6.04401e-07 3.6654e-15)
(0.140036 5.06805e-07 3.62595e-15)
(0.140036 4.36429e-07 3.57856e-15)
(0.140036 3.87965e-07 3.56497e-15)
(0.140036 3.45635e-07 3.524e-15)
(0.140036 3.10585e-07 3.62765e-15)
(0.140036 2.80825e-07 3.63901e-15)
(0.140036 2.55124e-07 3.61293e-15)
(0.140036 2.32905e-07 3.57341e-15)
(0.140036 2.13615e-07 3.52903e-15)
(0.140036 1.96815e-07 3.56601e-15)
(0.140036 1.82137e-07 3.49814e-15)
(0.140036 1.69268e-07 3.4753e-15)
(0.140036 1.5794e-07 3.4262e-15)
(0.140036 1.47972e-07 3.40694e-15)
(0.140036 1.39172e-07 3.43921e-15)
(0.140036 1.31679e-07 3.42628e-15)
(0.140036 1.25247e-07 3.42832e-15)
(0.140036 1.21842e-07 3.39822e-15)
(0.140037 1.21118e-07 3.38456e-15)
(0.140037 1.32925e-07 3.37321e-15)
(0.140034 -6.32915e-08 3.53394e-15)
(0.140034 -5.92646e-08 3.74668e-15)
(0.140034 -4.79742e-08 3.58666e-15)
(0.140034 -3.36175e-08 3.54771e-15)
(0.140035 -1.7073e-08 3.67301e-15)
(0.140035 2.2032e-09 3.53134e-15)
(0.140035 2.47742e-08 3.7183e-15)
(0.140035 5.17587e-08 3.78131e-15)
(0.140035 8.36763e-08 3.74637e-15)
(0.140035 1.22748e-07 3.80963e-15)
(0.140035 1.68653e-07 3.63506e-15)
(0.140035 2.27218e-07 3.78812e-15)
(0.140035 2.94161e-07 3.84597e-15)
(0.140035 3.85769e-07 3.79712e-15)
(0.140035 4.93447e-07 3.86772e-15)
(0.140035 5.99163e-07 3.70132e-15)
(0.139739 5.84328e-07 3.41348e-15)
(0.139739 4.8697e-07 3.40015e-15)
(0.139739 4.18911e-07 3.39622e-15)
(0.139739 3.72088e-07 3.3813e-15)
(0.139739 3.30997e-07 3.39701e-15)
(0.139739 2.9699e-07 3.41142e-15)
(0.13974 2.68009e-07 3.38961e-15)
(0.13974 2.4291e-07 3.36605e-15)
(0.13974 2.21153e-07 3.32169e-15)
(0.13974 2.02208e-07 3.2896e-15)
(0.13974 1.85664e-07 3.29617e-15)
(0.13974 1.71172e-07 3.24298e-15)
(0.13974 1.58436e-07 3.25387e-15)
(0.13974 1.47199e-07 3.2039e-15)
(0.13974 1.37287e-07 3.19827e-15)
(0.13974 1.28509e-07 3.24826e-15)
(0.13974 1.21014e-07 3.23841e-15)
(0.13974 1.1449e-07 3.24438e-15)
(0.13974 1.11148e-07 3.21203e-15)
(0.13974 1.09932e-07 3.2031e-15)
(0.13974 1.24337e-07 3.3013e-15)
(0.13974 1.43316e-07 3.38627e-15)
(0.13974 1.58646e-07 3.3938e-15)
(0.139738 -1.00065e-07 3.48972e-15)
(0.139738 -9.80892e-08 3.37555e-15)
(0.139738 -8.7113e-08 3.32495e-15)
(0.139738 -8.67104e-08 3.46124e-15)
(0.139738 -9.32196e-08 3.27994e-15)
(0.139738 -8.66143e-08 3.44325e-15)
(0.139738 -7.22601e-08 3.32878e-15)
(0.139738 -5.63949e-08 3.28276e-15)
(0.139738 -3.8752e-08 3.43347e-15)
(0.139738 -1.85642e-08 3.2778e-15)
(0.139738 4.73637e-09 3.41163e-15)
(0.139738 3.22793e-08 3.53319e-15)
(0.139738 6.45182e-08 3.49018e-15)
(0.139739 1.03752e-07 3.58112e-15)
(0.139739 1.49477e-07 3.41072e-15)
(0.139739 2.07857e-07 3.51062e-15)
(0.139739 2.7404e-07 3.60803e-15)
(0.139739 3.65384e-07 3.54711e-15)
(0.139739 4.72326e-07 3.63551e-15)
(0.139739 5.78459e-07 3.46644e-15)
(0.139428 5.64343e-07 3.20599e-15)
(0.139428 4.66747e-07 3.17464e-15)
(0.139429 4.01324e-07 3.21879e-15)
(0.139429 3.56364e-07 3.19688e-15)
(0.139429 3.16702e-07 3.28427e-15)
(0.139429 2.83848e-07 3.23091e-15)
(0.139429 2.55706e-07 3.08665e-15)
(0.139429 2.31248e-07 3.11184e-15)
(0.139429 2.09984e-07 3.00871e-15)
(0.139429 1.91414e-07 2.99862e-15)
(0.139429 1.75156e-07 3.01833e-15)
(0.139429 1.60881e-07 2.95352e-15)
(0.139429 1.48308e-07 3.00238e-15)
(0.139429 1.37194e-07 2.96864e-15)
(0.139429 1.27368e-07 2.98756e-15)
(0.139429 1.18644e-07 3.12588e-15)
(0.139429 1.1115e-07 3.04105e-15)
(0.139429 1.04575e-07 3.06142e-15)
(0.139429 1.00809e-07 3.01204e-15)
(0.139429 9.90419e-08 3.01974e-15)
(0.139429 1.04183e-07 3.27153e-15)
(0.13943 1.1885e-07 3.35817e-15)
(0.13943 1.46378e-07 3.27724e-15)
(0.13943 1.67334e-07 3.41869e-15)
(0.13943 1.6291e-07 3.36849e-15)
(0.13943 1.48368e-07 3.59256e-15)
(0.13943 1.3231e-07 3.72346e-15)
(0.13943 1.17749e-07 3.61483e-15)
(0.13943 1.04633e-07 3.80257e-15)
(0.13943 9.24967e-08 3.59754e-15)
(0.13943 8.10378e-08 3.79512e-15)
(0.13943 7.0114e-08 3.99986e-15)
(0.13943 5.96578e-08 3.79769e-15)
(0.13943 4.96374e-08 3.93056e-15)
(0.13943 4.00404e-08 3.82601e-15)
(0.13943 3.08609e-08 3.96014e-15)
(0.13943 2.20913e-08 4.09377e-15)
(0.13943 1.3714e-08 3.91267e-15)
(0.13943 5.6957e-09 3.97395e-15)
(0.139429 -2.01788e-09 3.93386e-15)
(0.139429 -9.50318e-09 3.77892e-15)
(0.139429 -1.68576e-08 3.64642e-15)
(0.139429 -2.4193e-08 3.58563e-15)
(0.139429 -3.16252e-08 3.61135e-15)
(0.139429 -3.92582e-08 3.52968e-15)
(0.139429 -4.71668e-08 3.48872e-15)
(0.139429 -5.5381e-08 3.42155e-15)
(0.139429 -6.38767e-08 3.39678e-15)
(0.139429 -7.25776e-08 3.44819e-15)
(0.139429 -8.13694e-08 3.39191e-15)
(0.139429 -9.01169e-08 3.36508e-15)
(0.139429 -9.86797e-08 3.30486e-15)
(0.139429 -1.06924e-07 3.28965e-15)
(0.139429 -1.14735e-07 3.24889e-15)
(0.139429 -1.22015e-07 3.11817e-15)
(0.139429 -1.28694e-07 3.13836e-15)
(0.139429 -1.34721e-07 3.12162e-15)
(0.139429 -1.4007e-07 3.14558e-15)
(0.139429 -1.44729e-07 3.13222e-15)
(0.139429 -1.48708e-07 2.94792e-15)
(0.139429 -1.52024e-07 3.03441e-15)
(0.139429 -1.5471e-07 3.04374e-15)
(0.139428 -1.56805e-07 3.07663e-15)
(0.139428 -1.58354e-07 3.0736e-15)
(0.139428 -1.59406e-07 2.91514e-15)
(0.139428 -1.60016e-07 3.01185e-15)
(0.139428 -1.60236e-07 3.01302e-15)
(0.139428 -1.60121e-07 3.0539e-15)
(0.139428 -1.59725e-07 3.05481e-15)
(0.139428 -1.59098e-07 2.88645e-15)
(0.139428 -1.58291e-07 2.97595e-15)
(0.139428 -1.5735e-07 2.97496e-15)
(0.139428 -1.56316e-07 3.0081e-15)
(0.139428 -1.55229e-07 3.00451e-15)
(0.139428 -1.5412e-07 2.83313e-15)
(0.139428 -1.53019e-07 2.93282e-15)
(0.139428 -1.51948e-07 2.95122e-15)
(0.139428 -1.50923e-07 2.9955e-15)
(0.139428 -1.49954e-07 3.00368e-15)
(0.139428 -1.49046e-07 2.89583e-15)
(0.139428 -1.48193e-07 3.03882e-15)
(0.139428 -1.47387e-07 2.86043e-15)
(0.139427 -1.46608e-07 2.99811e-15)
(0.139427 -1.45833e-07 3.10833e-15)
(0.139427 -1.45028e-07 2.99825e-15)
(0.139427 -1.44155e-07 3.1246e-15)
(0.139427 -1.43167e-07 2.96493e-15)
(0.139427 -1.4201e-07 3.02378e-15)
(0.139427 -1.40624e-07 3.14886e-15)
(0.139427 -1.38945e-07 2.98339e-15)
(0.139427 -1.36902e-07 3.14916e-15)
(0.139427 -1.34422e-07 3.04889e-15)
(0.139427 -1.31431e-07 3.05096e-15)
(0.139427 -1.27845e-07 3.16579e-15)
(0.139427 -1.23608e-07 3.04842e-15)
(0.139427 -1.18598e-07 3.16197e-15)
(0.139427 -1.12835e-07 3.07914e-15)
(0.139427 -1.06342e-07 3.08966e-15)
(0.139427 -9.78546e-08 3.18615e-15)
(0.139427 -1.03656e-07 3.05152e-15)
(0.139427 -1.16469e-07 3.14814e-15)
(0.139427 -1.13134e-07 3.06813e-15)
(0.139427 -1.00674e-07 3.0749e-15)
(0.139427 -1.03159e-07 3.16107e-15)
(0.139427 -1.08132e-07 2.9987e-15)
(0.139427 -9.73456e-08 3.09087e-15)
(0.139427 -8.47418e-08 3.01389e-15)
(0.139428 -7.05119e-08 3.02482e-15)
(0.139428 -5.36609e-08 3.12541e-15)
(0.139428 -3.38187e-08 2.93088e-15)
(0.139428 -1.06867e-08 3.06361e-15)
(0.139428 1.67367e-08 3.18365e-15)
(0.139428 4.87584e-08 3.2018e-15)
(0.139428 8.77032e-08 3.25642e-15)
(0.139428 1.32843e-07 3.10952e-15)
(0.139428 1.90643e-07 3.17539e-15)
(0.139428 2.55654e-07 3.26193e-15)
(0.139428 3.46247e-07 3.26211e-15)
(0.139428 4.51654e-07 3.31167e-15)
(0.139428 5.58085e-07 3.16096e-15)
(0.139103 5.45403e-07 2.90835e-15)
(0.139103 4.47504e-07 2.96123e-15)
(0.139103 3.84335e-07 3.06636e-15)
(0.139103 3.41165e-07 3.00822e-15)
(0.139103 3.03052e-07 3.06885e-15)
(0.139103 2.71461e-07 3.00568e-15)
(0.139103 2.4423e-07 2.86967e-15)
(0.139103 2.20458e-07 2.8551e-15)
(0.139103 1.99714e-07 2.78822e-15)
(0.139103 1.81539e-07 2.68896e-15)
(0.139103 1.65584e-07 2.75138e-15)
(0.139103 1.51542e-07 2.6679e-15)
(0.139103 1.3915e-07 2.77867e-15)
(0.139104 1.28177e-07 2.71895e-15)
(0.139104 1.18454e-07 2.79688e-15)
(0.139104 1.09799e-07 2.91431e-15)
(0.139104 1.02298e-07 2.82909e-15)
(0.139104 9.57047e-08 2.88929e-15)
(0.139104 9.1192e-08 2.74985e-15)
(0.139104 8.94537e-08 2.85547e-15)
(0.139104 8.22032e-08 3.17632e-15)
(0.139104 8.45805e-08 3.19326e-15)
(0.139104 1.07687e-07 3.15069e-15)
(0.139104 1.33386e-07 3.31388e-15)
(0.139104 1.46959e-07 3.23061e-15)
(0.139105 1.44056e-07 3.51793e-15)
(0.139105 1.33099e-07 3.76729e-15)
(0.139105 1.20418e-07 3.54734e-15)
(0.139105 1.07986e-07 3.67167e-15)
(0.139105 9.61693e-08 3.48169e-15)
(0.139105 8.49221e-08 3.73849e-15)
(0.139105 7.41776e-08 3.89064e-15)
(0.139105 6.38948e-08 3.74076e-15)
(0.139105 5.40536e-08 3.81176e-15)
(0.139105 4.46462e-08 3.67185e-15)
(0.139105 3.56688e-08 3.93731e-15)
(0.139105 2.71138e-08 4.07548e-15)
(0.139104 1.89635e-08 3.87085e-15)
(0.139104 1.11844e-08 3.92786e-15)
(0.139104 3.72324e-09 3.80564e-15)
(0.139104 -3.49428e-09 3.68778e-15)
(0.139104 -1.05619e-08 3.58673e-15)
(0.139104 -1.75866e-08 3.52103e-15)
(0.139104 -2.46782e-08 3.45249e-15)
(0.139104 -3.19356e-08 3.41026e-15)
(0.139104 -3.943e-08 3.38666e-15)
(0.139104 -4.71917e-08 3.34552e-15)
(0.139104 -5.52015e-08 3.3144e-15)
(0.139104 -6.33923e-08 3.26465e-15)
(0.139104 -7.16614e-08 3.24768e-15)
(0.139104 -7.98863e-08 3.2423e-15)
(0.139104 -8.79385e-08 3.21037e-15)
(0.139104 -9.56955e-08 3.18381e-15)
(0.139104 -1.03049e-07 3.15552e-15)
(0.139104 -1.09912e-07 3.05274e-15)
(0.139104 -1.16216e-07 3.03168e-15)
(0.139104 -1.21917e-07 3.03064e-15)
(0.139104 -1.26988e-07 3.04016e-15)
(0.139104 -1.31422e-07 3.03744e-15)
(0.139104 -1.35226e-07 2.92803e-15)
(0.139104 -1.38421e-07 2.93624e-15)
(0.139103 -1.41037e-07 2.95455e-15)
(0.139103 -1.43113e-07 2.9758e-15)
(0.139103 -1.44693e-07 2.9855e-15)
(0.139103 -1.45827e-07 2.90792e-15)
(0.139103 -1.46564e-07 2.90901e-15)
(0.139103 -1.46958e-07 2.9249e-15)
(0.139103 -1.47061e-07 2.95038e-15)
(0.139103 -1.46923e-07 2.96235e-15)
(0.139103 -1.46594e-07 2.87893e-15)
(0.139103 -1.46121e-07 2.87155e-15)
(0.139103 -1.45547e-07 2.88381e-15)
(0.139103 -1.44911e-07 2.90377e-15)
(0.139103 -1.44247e-07 2.91202e-15)
(0.139103 -1.43587e-07 2.81741e-15)
(0.139103 -1.42954e-07 2.83256e-15)
(0.139103 -1.42368e-07 2.86005e-15)
(0.139103 -1.41842e-07 2.89159e-15)
(0.139103 -1.41383e-07 2.90976e-15)
(0.139103 -1.40991e-07 2.83268e-15)
(0.139103 -1.40659e-07 2.88336e-15)
(0.139103 -1.40374e-07 2.85456e-15)
(0.139102 -1.40116e-07 2.86039e-15)
(0.139102 -1.39857e-07 2.91783e-15)
(0.139102 -1.39564e-07 2.86201e-15)
(0.139102 -1.39194e-07 2.91389e-15)
(0.139102 -1.387e-07 2.84598e-15)
(0.139102 -1.38027e-07 2.85476e-15)
(0.139102 -1.37115e-07 2.91799e-15)
(0.139102 -1.35898e-07 2.86169e-15)
(0.139102 -1.34307e-07 2.90863e-15)
(0.139102 -1.32268e-07 2.84974e-15)
(0.139102 -1.29706e-07 2.86205e-15)
(0.139102 -1.26544e-07 2.92055e-15)
(0.139102 -1.22718e-07 2.86179e-15)
(0.139102 -1.18152e-07 2.91012e-15)
(0.139102 -1.12781e-07 2.87903e-15)
(0.139102 -1.07129e-07 2.87878e-15)
(0.139102 -9.93208e-08 2.92653e-15)
(0.139102 -1.0829e-07 2.84746e-15)
(0.139102 -1.19375e-07 2.88908e-15)
(0.139102 -1.12827e-07 2.85952e-15)
(0.139102 -1.04129e-07 2.85427e-15)
(0.139102 -1.0306e-07 2.89593e-15)
(0.139102 -1.03836e-07 2.78818e-15)
(0.139102 -9.64702e-08 2.83155e-15)
(0.139102 -8.73172e-08 2.80154e-15)
(0.139102 -7.56287e-08 2.80078e-15)
(0.139102 -6.07021e-08 2.85617e-15)
(0.139102 -4.22849e-08 2.77387e-15)
(0.139102 -2.02335e-08 2.80362e-15)
(0.139102 6.3213e-09 2.87736e-15)
(0.139102 3.7505e-08 2.91296e-15)
(0.139102 7.56294e-08 2.95184e-15)
(0.139102 1.19711e-07 2.88643e-15)
(0.139102 1.76476e-07 2.89787e-15)
(0.139103 2.39857e-07 2.95118e-15)
(0.139103 3.29186e-07 2.97248e-15)
(0.139103 4.32397e-07 3.00527e-15)
(0.139103 5.38666e-07 2.92821e-15)
(0.138762 5.27833e-07 2.66542e-15)
(0.138762 4.29652e-07 2.78036e-15)
(0.138762 3.68456e-07 2.96757e-15)
(0.138762 3.26859e-07 2.79347e-15)
(0.138762 2.90263e-07 2.91984e-15)
(0.138762 2.59975e-07 2.76062e-15)
(0.138762 2.33704e-07 2.55965e-15)
(0.138762 2.10657e-07 2.61565e-15)
(0.138762 1.90458e-07 2.49818e-15)
(0.138762 1.72698e-07 2.36705e-15)
(0.138762 1.57063e-07 2.49429e-15)
(0.138763 1.43271e-07 2.50013e-15)
(0.138763 1.31078e-07 2.5938e-15)
(0.138763 1.20262e-07 2.5901e-15)
(0.138763 1.10657e-07 2.6638e-15)
(0.138763 1.02088e-07 2.78627e-15)
(0.138763 9.45827e-08 2.68557e-15)
(0.138763 8.79881e-08 2.75217e-15)
(0.138763 8.26943e-08 2.71024e-15)
(0.138763 8.07322e-08 2.74588e-15)
(0.138763 6.78134e-08 3.06427e-15)
(0.138763 6.05579e-08 2.97308e-15)
(0.138763 6.68943e-08 3.01687e-15)
(0.138763 8.33833e-08 3.12796e-15)
(0.138763 1.09626e-07 2.98358e-15)
(0.138764 1.21468e-07 3.30457e-15)
(0.138764 1.20351e-07 3.47917e-15)
(0.138764 1.13185e-07 3.38078e-15)
(0.138764 1.0382e-07 3.42063e-15)
(0.138764 9.38854e-08 3.22905e-15)
(0.138764 8.39429e-08 3.68371e-15)
(0.138764 7.41897e-08 3.70352e-15)
(0.138764 6.47092e-08 3.5801e-15)
(0.138764 5.55475e-08 3.62009e-15)
(0.138764 4.67358e-08 3.42483e-15)
(0.138764 3.82948e-08 3.73465e-15)
(0.138764 3.02332e-08 3.84808e-15)
(0.138764 2.25446e-08 3.73484e-15)
(0.138764 1.52041e-08 3.76473e-15)
(0.138764 8.16591e-09 3.57669e-15)
(0.138764 1.36252e-09 3.5624e-15)
(0.138764 -5.29256e-09 3.49414e-15)
(0.138764 -1.18989e-08 3.43518e-15)
(0.138764 -1.85589e-08 3.23497e-15)
(0.138764 -2.53649e-08 3.28813e-15)
(0.138764 -3.2384e-08 3.27884e-15)
(0.138764 -3.96455e-08 3.25495e-15)
(0.138764 -4.71337e-08 3.22354e-15)
(0.138764 -5.47889e-08 3.03739e-15)
(0.138764 -6.25187e-08 3.11068e-15)
(0.138763 -7.02111e-08 3.12007e-15)
(0.138763 -7.77481e-08 3.1054e-15)
(0.138763 -8.50167e-08 3.07472e-15)
(0.138763 -9.19169e-08 3.05296e-15)
(0.138763 -9.83664e-08 2.9555e-15)
(0.138763 -1.04303e-07 2.9399e-15)
(0.138763 -1.09684e-07 2.94988e-15)
(0.138763 -1.14486e-07 2.94577e-15)
(0.138763 -1.18702e-07 2.94293e-15)
(0.138763 -1.22341e-07 2.85327e-15)
(0.138763 -1.25423e-07 2.85544e-15)
(0.138763 -1.27977e-07 2.8811e-15)
(0.138763 -1.30042e-07 2.88991e-15)
(0.138763 -1.3166e-07 2.89913e-15)
(0.138763 -1.3288e-07 2.8243e-15)
(0.138763 -1.3375e-07 2.829e-15)
(0.138763 -1.3432e-07 2.8534e-15)
(0.138763 -1.34642e-07 2.86365e-15)
(0.138762 -1.34763e-07 2.8744e-15)
(0.138762 -1.3473e-07 2.79548e-15)
(0.138762 -1.34587e-07 2.79112e-15)
(0.138762 -1.34374e-07 2.81002e-15)
(0.138762 -1.34128e-07 2.81531e-15)
(0.138762 -1.3388e-07 2.82334e-15)
(0.138762 -1.33657e-07 2.74378e-15)
(0.138762 -1.3348e-07 2.75284e-15)
(0.138762 -1.33366e-07 2.78619e-15)
(0.138762 -1.33323e-07 2.80342e-15)
(0.138762 -1.33356e-07 2.81987e-15)
(0.138762 -1.33462e-07 2.75732e-15)
(0.138762 -1.33631e-07 2.75713e-15)
(0.138762 -1.33847e-07 2.74195e-15)
(0.138762 -1.34088e-07 2.74017e-15)
(0.138762 -1.34324e-07 2.75411e-15)
(0.138762 -1.34518e-07 2.72217e-15)
(0.138762 -1.34628e-07 2.73661e-15)
(0.138762 -1.34605e-07 2.70865e-15)
(0.138762 -1.34392e-07 2.70045e-15)
(0.138762 -1.3393e-07 2.7169e-15)
(0.138762 -1.33152e-07 2.68773e-15)
(0.138762 -1.31988e-07 2.69981e-15)
(0.138762 -1.30367e-07 2.68363e-15)
(0.138762 -1.28213e-07 2.68543e-15)
(0.138762 -1.25453e-07 2.70186e-15)
(0.138762 -1.22018e-07 2.67126e-15)
(0.138762 -1.17866e-07 2.68964e-15)
(0.138762 -1.12881e-07 2.68339e-15)
(0.138762 -1.07775e-07 2.68292e-15)
(0.138762 -1.00891e-07 2.69193e-15)
(0.138762 -1.02981e-07 2.65047e-15)
(0.138762 -1.08019e-07 2.65701e-15)
(0.138762 -1.05153e-07 2.64773e-15)
(0.138762 -1.00833e-07 2.64558e-15)
(0.138762 -9.91791e-08 2.65308e-15)
(0.138762 -9.72266e-08 2.59587e-15)
(0.138762 -9.04602e-08 2.60158e-15)
(0.138762 -8.30156e-08 2.59096e-15)
(0.138762 -7.34997e-08 2.59265e-15)
(0.138762 -6.0757e-08 2.61103e-15)
(0.138762 -4.42772e-08 2.56918e-15)
(0.138762 -2.38927e-08 2.57339e-15)
(0.138762 1.22139e-09 2.60489e-15)
(0.138762 3.10403e-08 2.6366e-15)
(0.138762 6.78619e-08 2.66123e-15)
(0.138762 1.10437e-07 2.63576e-15)
(0.138762 1.65723e-07 2.6403e-15)
(0.138762 2.27024e-07 2.66715e-15)
(0.138762 3.14575e-07 2.69081e-15)
(0.138762 4.1498e-07 2.7092e-15)
(0.138762 5.2063e-07 2.67598e-15)
(0.138405 5.11688e-07 2.43178e-15)
(0.138405 4.13396e-07 2.51771e-15)
(0.138405 3.54061e-07 2.6482e-15)
(0.138405 3.13811e-07 2.64142e-15)
(0.138405 2.78612e-07 2.54634e-15)
(0.138405 2.49578e-07 2.57231e-15)
(0.138406 2.24265e-07 2.30585e-15)
(0.138406 2.01957e-07 2.43751e-15)
(0.138406 1.8232e-07 2.33381e-15)
(0.138406 1.64986e-07 2.17048e-15)
(0.138406 1.49683e-07 2.32024e-15)
(0.138406 1.36154e-07 2.42948e-15)
(0.138406 1.24171e-07 2.45757e-15)
(0.138406 1.13527e-07 2.47583e-15)
(0.138406 1.04052e-07 2.57265e-15)
(0.138406 9.55829e-08 2.70206e-15)
(0.138406 8.80782e-08 2.62833e-15)
(0.138406 8.1485e-08 2.64335e-15)
(0.138406 7.55225e-08 2.67431e-15)
(0.138406 7.29954e-08 2.67436e-15)
(0.138406 5.81431e-08 2.90871e-15)
(0.138406 4.49492e-08 2.96721e-15)
(0.138406 3.93298e-08 2.89132e-15)
(0.138406 4.3968e-08 2.97332e-15)
(0.138406 6.92115e-08 2.95582e-15)
(0.138407 8.87114e-08 3.12607e-15)
(0.138407 9.66532e-08 3.24951e-15)
(0.138407 9.64907e-08 3.17699e-15)
(0.138407 9.18851e-08 3.24207e-15)
(0.138407 8.51955e-08 3.19467e-15)
(0.138407 7.75888e-08 3.36607e-15)
(0.138407 6.96201e-08 3.46458e-15)
(0.138407 6.15696e-08 3.37276e-15)
(0.138407 5.35953e-08 3.42568e-15)
(0.138407 4.57973e-08 3.3934e-15)
(0.138407 3.82411e-08 3.54409e-15)
(0.138407 3.09664e-08 3.63661e-15)
(0.138407 2.39892e-08 3.54579e-15)
(0.138407 1.73015e-08 3.59343e-15)
(0.138407 1.08711e-08 3.55166e-15)
(0.138407 4.64237e-09 3.43533e-15)
(0.138407 -1.46063e-09 3.37876e-15)
(0.138407 -7.52739e-09 3.32182e-15)
(0.138407 -1.36512e-08 3.23355e-15)
(0.138407 -1.99166e-08 3.19769e-15)
(0.138407 -2.63853e-08 3.16799e-15)
(0.138407 -3.30847e-08 3.15447e-15)
(0.138407 -4.00012e-08 3.11653e-15)
(0.138407 -4.70811e-08 3.03415e-15)
(0.138407 -5.42399e-08 3.01567e-15)
(0.138407 -6.13751e-08 3.00042e-15)
(0.138407 -6.83777e-08 2.99422e-15)
(0.138407 -7.51427e-08 2.95753e-15)
(0.138407 -8.1577e-08 2.94394e-15)
(0.138407 -8.76037e-08 2.82466e-15)
(0.138407 -9.31643e-08 2.86086e-15)
(0.138407 -9.82193e-08 2.88172e-15)
(0.138407 -1.02747e-07 2.85456e-15)
(0.138406 -1.06741e-07 2.84895e-15)
(0.138406 -1.1021e-07 2.73789e-15)
(0.138406 -1.13174e-07 2.78951e-15)
(0.138406 -1.15662e-07 2.82476e-15)
(0.138406 -1.17711e-07 2.81061e-15)
(0.138406 -1.19362e-07 2.81551e-15)
(0.138406 -1.20662e-07 2.71265e-15)
(0.138406 -1.21658e-07 2.76946e-15)
(0.138406 -1.22398e-07 2.80114e-15)
(0.138406 -1.2293e-07 2.7856e-15)
(0.138406 -1.23301e-07 2.79194e-15)
(0.138406 -1.23554e-07 2.6872e-15)
(0.138406 -1.2373e-07 2.73026e-15)
(0.138406 -1.23867e-07 2.75501e-15)
(0.138406 -1.23998e-07 2.73467e-15)
(0.138406 -1.24151e-07 2.73884e-15)
(0.138406 -1.2435e-07 2.63568e-15)
(0.138406 -1.24613e-07 2.69068e-15)
(0.138406 -1.24952e-07 2.73088e-15)
(0.138406 -1.25375e-07 2.72351e-15)
(0.138405 -1.25881e-07 2.73547e-15)
(0.138405 -1.26464e-07 2.65343e-15)
(0.138405 -1.27113e-07 2.6351e-15)
(0.138405 -1.27809e-07 2.62724e-15)
(0.138405 -1.28527e-07 2.626e-15)
(0.138405 -1.29234e-07 2.5974e-15)
(0.138405 -1.29893e-07 2.57214e-15)
(0.138405 -1.30459e-07 2.5736e-15)
(0.138405 -1.30883e-07 2.55985e-15)
(0.138405 -1.31107e-07 2.55181e-15)
(0.138405 -1.31071e-07 2.52668e-15)
(0.138405 -1.30708e-07 2.50155e-15)
(0.138405 -1.29949e-07 2.50633e-15)
(0.138405 -1.28722e-07 2.50804e-15)
(0.138405 -1.26952e-07 2.51637e-15)
(0.138405 -1.2457e-07 2.49058e-15)
(0.138405 -1.21503e-07 2.47079e-15)
(0.138405 -1.17734e-07 2.48345e-15)
(0.138405 -1.13122e-07 2.48964e-15)
(0.138405 -1.08384e-07 2.49434e-15)
(0.138405 -1.02313e-07 2.46477e-15)
(0.138405 -1.00762e-07 2.4355e-15)
(0.138405 -1.0069e-07 2.43708e-15)
(0.138405 -9.72471e-08 2.43894e-15)
(0.138405 -9.43786e-08 2.4442e-15)
(0.138405 -9.29293e-08 2.41948e-15)
(0.138405 -8.95631e-08 2.38229e-15)
(0.138405 -8.22556e-08 2.38184e-15)
(0.138405 -7.51368e-08 2.38381e-15)
(0.138405 -6.68169e-08 2.39236e-15)
(0.138405 -5.57707e-08 2.37549e-15)
(0.138405 -4.11254e-08 2.34889e-15)
(0.138405 -2.25419e-08 2.35501e-15)
(0.138405 8.76592e-10 2.34959e-15)
(0.138405 2.90244e-08 2.37418e-15)
(0.138405 6.42149e-08 2.37903e-15)
(0.138405 1.04949e-07 2.37556e-15)
(0.138405 1.58393e-07 2.3924e-15)
(0.138405 2.17232e-07 2.39801e-15)
(0.138405 3.0254e-07 2.4202e-15)
(0.138405 3.9958e-07 2.41751e-15)
(0.138405 5.04105e-07 2.40875e-15)
(0.138032 4.96796e-07 2.2207e-15)
(0.138032 3.98654e-07 2.29536e-15)
(0.138032 3.41218e-07 2.38185e-15)
(0.138032 3.02175e-07 2.47715e-15)
(0.138032 2.68248e-07 2.26339e-15)
(0.138032 2.4038e-07 2.37719e-15)
(0.138032 2.15981e-07 2.21633e-15)
(0.138032 1.94399e-07 2.33914e-15)
(0.138032 1.7532e-07 2.26718e-15)
(0.138032 1.58418e-07 2.14319e-15)
(0.138032 1.43455e-07 2.24083e-15)
(0.138032 1.30199e-07 2.26512e-15)
(0.138033 1.18438e-07 2.35423e-15)
(0.138033 1.07977e-07 2.36823e-15)
(0.138033 9.86451e-08 2.52767e-15)
(0.138033 9.0287e-08 2.52127e-15)
(0.138033 8.27965e-08 2.50385e-15)
(0.138033 7.62026e-08 2.5503e-15)
(0.138033 6.97255e-08 2.5174e-15)
(0.138033 6.64433e-08 2.64466e-15)
(0.138033 5.12763e-08 2.70687e-15)
(0.138033 3.50504e-08 2.75843e-15)
(0.138033 2.22198e-08 2.73353e-15)
(0.138033 1.69086e-08 2.71966e-15)
(0.138033 3.49811e-08 2.74966e-15)
(0.138033 5.49768e-08 2.84774e-15)
(0.138033 6.79884e-08 2.9154e-15)
(0.138033 7.36629e-08 2.9391e-15)
(0.138034 7.40077e-08 2.95361e-15)
(0.138034 7.11593e-08 2.97331e-15)
(0.138034 6.65153e-08 3.0649e-15)
(0.138034 6.08893e-08 3.12087e-15)
(0.138034 5.47474e-08 3.12617e-15)
(0.138034 4.83687e-08 3.11689e-15)
(0.138034 4.19334e-08 3.15151e-15)
(0.138034 3.55617e-08 3.23875e-15)
(0.138034 2.93325e-08 3.29537e-15)
(0.138034 2.32909e-08 3.30829e-15)
(0.138034 1.74515e-08 3.3075e-15)
(0.138034 1.17999e-08 3.31716e-15)
(0.138034 6.29567e-09 3.26407e-15)
(0.138034 8.76235e-10 3.25108e-15)
(0.138034 -4.53606e-09 3.18494e-15)
(0.138034 -1.0024e-08 3.16427e-15)
(0.138034 -1.56633e-08 3.10841e-15)
(0.138034 -2.15094e-08 3.04824e-15)
(0.138034 -2.75871e-08 3.05022e-15)
(0.138034 -3.38835e-08 2.99224e-15)
(0.138034 -4.03493e-08 2.97432e-15)
(0.138034 -4.69068e-08 2.92823e-15)
(0.138034 -5.3461e-08 2.87597e-15)
(0.138034 -5.99107e-08 2.88292e-15)
(0.138034 -6.61579e-08 2.82835e-15)
(0.138034 -7.21153e-08 2.83114e-15)
(0.138034 -7.77107e-08 2.64941e-15)
(0.138033 -8.28888e-08 2.8146e-15)
(0.138033 -8.76124e-08 2.82332e-15)
(0.138033 -9.18608e-08 2.75467e-15)
(0.138033 -9.56288e-08 2.75464e-15)
(0.138033 -9.89245e-08 2.5778e-15)
(0.138033 -1.01767e-07 2.7661e-15)
(0.138033 -1.04185e-07 2.78219e-15)
(0.138033 -1.06214e-07 2.72569e-15)
(0.138033 -1.07894e-07 2.73417e-15)
(0.138033 -1.09269e-07 2.56128e-15)
(0.138033 -1.10384e-07 2.75627e-15)
(0.138033 -1.11287e-07 2.76493e-15)
(0.138033 -1.12021e-07 2.70382e-15)
(0.138033 -1.12631e-07 2.71435e-15)
(0.138033 -1.13159e-07 2.5415e-15)
(0.138033 -1.13642e-07 2.70759e-15)
(0.138033 -1.14114e-07 2.71478e-15)
(0.138033 -1.14607e-07 2.64967e-15)
(0.138033 -1.15144e-07 2.65793e-15)
(0.138033 -1.15747e-07 2.48729e-15)
(0.138033 -1.1643e-07 2.66618e-15)
(0.138032 -1.17203e-07 2.69026e-15)
(0.138032 -1.18069e-07 2.63958e-15)
(0.138032 -1.19025e-07 2.65552e-15)
(0.138032 -1.20063e-07 2.51037e-15)
(0.138032 -1.21167e-07 2.51244e-15)
(0.138032 -1.22317e-07 2.51271e-15)
(0.138032 -1.23485e-07 2.51383e-15)
(0.138032 -1.24637e-07 2.42317e-15)
(0.138032 -1.25734e-07 2.41579e-15)
(0.138032 -1.2673e-07 2.42043e-15)
(0.138032 -1.27573e-07 2.41291e-15)
(0.138032 -1.28206e-07 2.40662e-15)
(0.138032 -1.28568e-07 2.33206e-15)
(0.138032 -1.28594e-07 2.3135e-15)
(0.138032 -1.28212e-07 2.32455e-15)
(0.138032 -1.27352e-07 2.33773e-15)
(0.138032 -1.2594e-07 2.35419e-15)
(0.138032 -1.2391e-07 2.26419e-15)
(0.138032 -1.21185e-07 2.26557e-15)
(0.138032 -1.17765e-07 2.28864e-15)
(0.138032 -1.13501e-07 2.30259e-15)
(0.138032 -1.09042e-07 2.31172e-15)
(0.138032 -1.03563e-07 2.22986e-15)
(0.138032 -1.00388e-07 2.21511e-15)
(0.138032 -9.68707e-08 2.22722e-15)
(0.138032 -9.13258e-08 2.23765e-15)
(0.138032 -8.78695e-08 2.24986e-15)
(0.138032 -8.59777e-08 2.18267e-15)
(0.138032 -8.16744e-08 2.16183e-15)
(0.138032 -7.36821e-08 2.17035e-15)
(0.138032 -6.6133e-08 2.18285e-15)
(0.138032 -5.80551e-08 2.1983e-15)
(0.138032 -4.792e-08 2.13481e-15)
(0.138032 -3.46074e-08 2.12402e-15)
(0.138032 -1.75766e-08 2.14595e-15)
(0.138032 4.21131e-09 2.09611e-15)
(0.138032 3.06356e-08 2.12444e-15)
(0.138032 6.40642e-08 2.09725e-15)
(0.138032 1.02778e-07 2.11686e-15)
(0.138032 1.54139e-07 2.15516e-15)
(0.138032 2.10239e-07 2.13265e-15)
(0.138032 2.92915e-07 2.16149e-15)
(0.138032 3.86112e-07 2.11723e-15)
(0.138032 4.88987e-07 2.13805e-15)
(0.137642 4.82854e-07 2.0355e-15)
(0.137642 3.85166e-07 2.10704e-15)
(0.137642 3.29767e-07 2.14812e-15)
(0.137642 2.91895e-07 2.30558e-15)
(0.137642 2.59169e-07 2.1921e-15)
(0.137642 2.32381e-07 2.20863e-15)
(0.137642 2.08839e-07 2.14828e-15)
(0.137642 1.8795e-07 2.32669e-15)
(0.137642 1.69416e-07 2.20465e-15)
(0.137642 1.52945e-07 2.08972e-15)
(0.137642 1.38326e-07 2.20207e-15)
(0.137642 1.25351e-07 2.16935e-15)
(0.137642 1.13824e-07 2.28311e-15)
(0.137642 1.03559e-07 2.25831e-15)
(0.137642 9.43838e-08 2.39713e-15)
(0.137642 8.61503e-08 2.42575e-15)
(0.137642 7.8693e-08 2.37025e-15)
(0.137642 7.21003e-08 2.52269e-15)
(0.137642 6.52559e-08 2.41601e-15)
(0.137643 6.11857e-08 2.52625e-15)
(0.137643 4.63659e-08 2.52295e-15)
(0.137643 2.89943e-08 2.55668e-15)
(0.137643 1.22973e-08 2.55734e-15)
(0.137643 1.6461e-10 2.49282e-15)
(0.137643 9.99622e-09 2.59884e-15)
(0.137643 2.61116e-08 2.6211e-15)
(0.137643 3.99743e-08 2.57726e-15)
(0.137643 4.89123e-08 2.70584e-15)
(0.137643 5.307e-08 2.6316e-15)
(0.137643 5.37362e-08 2.80311e-15)
(0.137643 5.209e-08 2.80926e-15)
(0.137643 4.89791e-08 2.75779e-15)
(0.137643 4.49604e-08 2.88469e-15)
(0.137644 4.0397e-08 2.8529e-15)
(0.137644 3.55342e-08 2.96041e-15)
(0.137644 3.05416e-08 2.98066e-15)
(0.137644 2.55359e-08 2.99707e-15)
(0.137644 2.05917e-08 3.06481e-15)
(0.137644 1.57469e-08 3.03814e-15)
(0.137644 1.10064e-08 3.08759e-15)
(0.137644 6.34595e-09 3.06687e-15)
(0.137644 1.71712e-09 3.12366e-15)
(0.137644 -2.94526e-09 3.02088e-15)
(0.137644 -7.71302e-09 3.09754e-15)
(0.137644 -1.26528e-08 2.99821e-15)
(0.137644 -1.78137e-08 2.90809e-15)
(0.137644 -2.32168e-08 2.95083e-15)
(0.137644 -2.88496e-08 2.84417e-15)
(0.137644 -3.46659e-08 2.91929e-15)
(0.137644 -4.05934e-08 2.82237e-15)
(0.137644 -4.65437e-08 2.7343e-15)
(0.137643 -5.24221e-08 2.7796e-15)
(0.137643 -5.81366e-08 2.67813e-15)
(0.137643 -6.3605e-08 2.71933e-15)
(0.137643 -6.87589e-08 2.55785e-15)
(0.137643 -7.35459e-08 2.68586e-15)
(0.137643 -7.79305e-08 2.74845e-15)
(0.137643 -8.1893e-08 2.63002e-15)
(0.137643 -8.54283e-08 2.66263e-15)
(0.137643 -8.85443e-08 2.5019e-15)
(0.137643 -9.12593e-08 2.64724e-15)
(0.137643 -9.36007e-08 2.72913e-15)
(0.137643 -9.56022e-08 2.61754e-15)
(0.137643 -9.73027e-08 2.65768e-15)
(0.137643 -9.87441e-08 2.49717e-15)
(0.137643 -9.99699e-08 2.64453e-15)
(0.137643 -1.01024e-07 2.71776e-15)
(0.137643 -1.01949e-07 2.60043e-15)
(0.137643 -1.02787e-07 2.64396e-15)
(0.137643 -1.03575e-07 2.48501e-15)
(0.137643 -1.04349e-07 2.66879e-15)
(0.137643 -1.05141e-07 2.66235e-15)
(0.137643 -1.05978e-07 2.54349e-15)
(0.137642 -1.0688e-07 2.58296e-15)
(0.137642 -1.07867e-07 2.4274e-15)
(0.137642 -1.08949e-07 2.62485e-15)
(0.137642 -1.10133e-07 2.63708e-15)
(0.137642 -1.11419e-07 2.53468e-15)
(0.137642 -1.12801e-07 2.58208e-15)
(0.137642 -1.14267e-07 2.45215e-15)
(0.137642 -1.15801e-07 2.40574e-15)
(0.137642 -1.17378e-07 2.3993e-15)
(0.137642 -1.1897e-07 2.40053e-15)
(0.137642 -1.20539e-07 2.25145e-15)
(0.137642 -1.22045e-07 2.26256e-15)
(0.137642 -1.23442e-07 2.27877e-15)
(0.137642 -1.24676e-07 2.27221e-15)
(0.137642 -1.2569e-07 2.26308e-15)
(0.137642 -1.26422e-07 2.05897e-15)
(0.137642 -1.26807e-07 2.13504e-15)
(0.137642 -1.26773e-07 2.15542e-15)
(0.137642 -1.26253e-07 2.17667e-15)
(0.137642 -1.25171e-07 2.19708e-15)
(0.137642 -1.23465e-07 1.98866e-15)
(0.137642 -1.21054e-07 2.06904e-15)
(0.137642 -1.1795e-07 2.10867e-15)
(0.137642 -1.14002e-07 2.1254e-15)
(0.137642 -1.09775e-07 2.13309e-15)
(0.137642 -1.04691e-07 1.98766e-15)
(0.137642 -1.00753e-07 2.00521e-15)
(0.137642 -9.52382e-08 2.03012e-15)
(0.137642 -8.78201e-08 2.04702e-15)
(0.137642 -8.29251e-08 2.06155e-15)
(0.137642 -7.98491e-08 1.93167e-15)
(0.137642 -7.45764e-08 1.95069e-15)
(0.137642 -6.58801e-08 1.97076e-15)
(0.137642 -5.75348e-08 1.99133e-15)
(0.137642 -4.90278e-08 2.00959e-15)
(0.137642 -3.90623e-08 1.82273e-15)
(0.137642 -2.64459e-08 1.90829e-15)
(0.137642 -1.05034e-08 1.94816e-15)
(0.137642 9.95058e-09 1.84177e-15)
(0.137642 3.48133e-08 1.89319e-15)
(0.137642 6.65352e-08 1.81558e-15)
(0.137642 1.03209e-07 1.87406e-15)
(0.137642 1.52379e-07 1.93294e-15)
(0.137642 2.05581e-07 1.85688e-15)
(0.137642 2.85327e-07 1.91952e-15)
(0.137642 3.74293e-07 1.76817e-15)
(0.137642 4.75011e-07 1.87963e-15)
(0.137234 4.69481e-07 1.76347e-15)
(0.137234 3.72583e-07 1.90142e-15)
(0.137235 3.19417e-07 1.94084e-15)
(0.137235 2.82763e-07 2.039e-15)
(0.137235 2.51232e-07 1.99378e-15)
(0.137235 2.25475e-07 2.02545e-15)
(0.137235 2.02741e-07 2.04232e-15)
(0.137235 1.82513e-07 2.10954e-15)
(0.137235 1.64508e-07 2.07478e-15)
(0.137235 1.48461e-07 2.03059e-15)
(0.137235 1.34191e-07 2.07068e-15)
(0.137235 1.21507e-07 2.04108e-15)
(0.137235 1.10225e-07 2.11083e-15)
(0.137235 1.00171e-07 2.12614e-15)
(0.137235 9.11693e-08 2.17904e-15)
(0.137235 8.30767e-08 2.17824e-15)
(0.137235 7.56762e-08 2.20125e-15)
(0.137235 6.90943e-08 2.28694e-15)
(0.137235 6.20087e-08 2.27871e-15)
(0.137235 5.72203e-08 2.31267e-15)
(0.137235 4.29807e-08 2.33017e-15)
(0.137235 2.55466e-08 2.36519e-15)
(0.137235 7.19204e-09 2.36863e-15)
(0.137235 -8.86283e-09 2.40529e-15)
(0.137235 -6.05382e-09 2.38141e-15)
(0.137235 4.50156e-09 2.40905e-15)
(0.137235 1.62704e-08 2.51735e-15)
(0.137235 2.58418e-08 2.52079e-15)
(0.137235 3.20551e-08 2.58233e-15)
(0.137235 3.52417e-08 2.54503e-15)