/*--------------------------------*- C++ -*----------------------------------*\
  =========                 |
  \\      /  F ield         | OpenFOAM: The Open Source CFD Toolbox
   \\    /   O peration     | Website:  https://openfoam.org
    \\  /    A nd           | Version:  7
     \\/     M anipulation  |
\*---------------------------------------------------------------------------*/
FoamFile
{
    version     2.0;
    format      ascii;
    class       surfaceScalarField;
    location    "19000";
    object      phi;
}
// * * * * * * * * * * * * * * * * * * * * * * * * * * * * * * * * * * * * * //

dimensions      [0 3 -1 0 0 0 0];

internalField   nonuniform List<scalar> 
7768
(
0.000358119
-4.51839e-10
0.000358119
-6.1447e-10
0.000358119
-5.1804e-10
0.000358119
-3.69811e-10
0.000358119
-2.34615e-10
0.00035812
-1.22078e-10
0.00035812
-2.98772e-11
0.00035812
4.67183e-11
0.00035812
1.12052e-10
0.00035812
1.69223e-10
0.000358121
2.20209e-10
0.000358121
2.66321e-10
0.000358121
3.08492e-10
0.000358121
3.47167e-10
0.000358121
3.8293e-10
0.000358121
4.16116e-10
0.000358122
4.49563e-10
0.000358122
4.82364e-10
0.000358122
5.32514e-10
0.000358122
5.92555e-10
7.49874e-10
0.000358115
-4.79259e-10
0.000358115
-5.32995e-10
0.000358115
-5.4143e-10
0.000358116
-5.29063e-10
0.000358116
-5.07028e-10
0.000358116
-4.75548e-10
0.000358117
-4.34112e-10
0.000358117
-3.81168e-10
0.000358117
-3.15014e-10
0.000358117
-2.31157e-10
0.000358117
-1.27486e-10
0.000358118
6.46807e-12
0.000358118
1.70946e-10
0.000358118
3.86387e-10
0.000358118
7.55202e-10
3.63791e-10
0.000348977
-6.5512e-10
0.000348977
-8.03683e-10
0.000348978
-7.00601e-10
0.000348978
-5.52461e-10
0.000348978
-4.19025e-10
0.000348978
-3.07766e-10
0.000348978
-2.15762e-10
0.000348979
-1.38189e-10
0.000348979
-7.08707e-11
0.000348979
-1.10041e-11
0.000348979
4.32076e-11
0.000348979
9.3049e-11
0.000348979
1.3942e-10
0.00034898
1.82652e-10
0.00034898
2.23215e-10
0.00034898
2.61357e-10
0.00034898
3.0039e-10
0.00034898
3.38917e-10
0.00034898
3.99859e-10
0.00034898
4.70945e-10
0.000348981
6.67621e-10
0.000348981
8.97698e-10
1.06042e-09
0.000348972
-6.16478e-10
0.000348973
-6.37469e-10
0.000348973
-5.99081e-10
0.000348973
-6.94149e-10
0.000348974
-8.46513e-10
0.000348974
-8.63328e-10
0.000348974
-8.39362e-10
0.000348974
-8.05138e-10
0.000348975
-7.65544e-10
0.000348975
-7.19583e-10
0.000348975
-6.66183e-10
0.000348975
-6.0344e-10
0.000348976
-5.29542e-10
0.000348976
-4.39901e-10
0.000348976
-3.32566e-10
0.000348976
-1.96968e-10
0.000348976
-3.34542e-11
0.000348977
1.75767e-10
0.000348977
5.40779e-10
1.51356e-10
0.000340032
-8.4371e-10
0.000340032
-9.88016e-10
0.000340032
-8.80613e-10
0.000340032
-7.31004e-10
0.000340032
-5.97947e-10
0.000340032
-4.87443e-10
0.000340033
-3.95635e-10
0.000340033
-3.17313e-10
0.000340033
-2.48308e-10
0.000340033
-1.86015e-10
0.000340033
-1.28785e-10
0.000340034
-7.54083e-11
0.000340034
-2.50807e-11
0.000340034
2.24383e-11
0.000340034
6.75592e-11
0.000340034
1.10439e-10
0.000340034
1.54582e-10
0.000340034
1.98587e-10
0.000340035
2.65127e-10
0.000340035
3.474e-10
0.000340035
4.93821e-10
0.000340035
7.21238e-10
0.000340035
1.01872e-09
0.000340035
1.24322e-09
0.000340035
1.26082e-09
0.000340034
1.20163e-09
0.000340034
1.14198e-09
0.000340034
1.09258e-09
0.000340034
1.05161e-09
0.000340034
1.0163e-09
0.000340034
9.84861e-10
0.000340033
9.56006e-10
0.000340033
9.28907e-10
0.000340033
9.03336e-10
0.000340033
8.79233e-10
0.000340033
8.56246e-10
0.000340033
8.34038e-10
0.000340033
8.12811e-10
0.000340032
7.92958e-10
0.000340032
7.74429e-10
0.000340032
7.56842e-10
0.000340032
7.39859e-10
0.000340032
7.23354e-10
0.000340032
7.07182e-10
0.000340032
6.90964e-10
0.000340032
6.7433e-10
0.000340032
6.57077e-10
0.000340031
6.38991e-10
0.000340031
6.19766e-10
0.000340031
5.9919e-10
0.000340031
5.77236e-10
0.000340031
5.537e-10
0.000340031
5.28198e-10
0.000340031
5.00884e-10
0.000340031
4.72388e-10
0.000340031
4.42943e-10
0.000340031
4.12199e-10
0.000340031
3.79992e-10
0.000340031
3.46828e-10
0.00034003
3.13199e-10
0.00034003
2.79028e-10
0.00034003
2.44158e-10
0.00034003
2.08851e-10
0.00034003
1.73479e-10
0.00034003
1.3821e-10
0.00034003
1.03063e-10
0.00034003
6.78972e-11
0.00034003
3.24828e-11
0.00034003
-3.07506e-12
0.00034003
-3.82567e-11
0.00034003
-7.27549e-11
0.00034003
-1.06812e-10
0.00034003
-1.4072e-10
0.000340029
-1.7436e-10
0.000340029
-2.07509e-10
0.000340029
-2.40196e-10
0.000340029
-2.72455e-10
0.000340029
-3.04145e-10
0.000340029
-3.35229e-10
0.000340029
-3.65712e-10
0.000340029
-3.95466e-10
0.000340029
-4.24479e-10
0.000340029
-4.52857e-10
0.000340029
-4.80462e-10
0.000340029
-5.06966e-10
0.000340029
-5.32205e-10
0.000340028
-5.5612e-10
0.000340028
-5.7858e-10
0.000340028
-5.99355e-10
0.000340028
-6.18005e-10
0.000340028
-6.34123e-10
0.000340028
-6.47407e-10
0.000340028
-6.57448e-10
0.000340028
-6.63389e-10
0.000340028
-6.64568e-10
0.000340028
-6.58603e-10
0.000340028
-6.44315e-10
0.000340028
-6.16655e-10
0.000340028
-5.62407e-10
0.000340028
-6.48092e-10
0.000340028
-7.89308e-10
0.000340028
-7.97584e-10
0.000340028
-7.52614e-10
0.000340028
-8.47778e-10
0.000340029
-1.01616e-09
0.000340029
-1.05505e-09
0.000340029
-1.04033e-09
0.000340029
-1.00778e-09
0.000340029
-9.65882e-10
0.000340029
-9.15963e-10
0.00034003
-8.58093e-10
0.00034003
-7.91082e-10
0.00034003
-7.13649e-10
0.00034003
-6.21544e-10
0.00034003
-5.1328e-10
0.000340031
-3.7849e-10
0.000340031
-2.18154e-10
0.000340031
-1.75607e-11
0.000340031
3.3987e-10
-4.47342e-11
0.000331278
-1.00707e-09
0.000331278
-1.15537e-09
0.000331278
-1.04995e-09
0.000331278
-9.00725e-10
0.000331278
-7.67987e-10
0.000331278
-6.57974e-10
0.000331279
-5.66345e-10
0.000331279
-4.87501e-10
0.000331279
-4.17162e-10
0.000331279
-3.52789e-10
0.000331279
-2.92833e-10
0.000331279
-2.36212e-10
0.00033128
-1.82284e-10
0.00033128
-1.30868e-10
0.00033128
-8.15636e-11
0.00033128
-3.42822e-11
0.00033128
1.44056e-11
0.00033128
6.35214e-11
0.00033128
1.32049e-10
0.000331281
2.23188e-10
0.000331281
3.19374e-10
0.000331281
4.95237e-10
0.000331281
7.77515e-10
0.000331281
1.06675e-09
0.000331281
1.24228e-09
0.000331281
1.28123e-09
0.000331281
1.25884e-09
0.000331281
1.21997e-09
0.000331281
1.18055e-09
0.000331281
1.144e-09
0.000331281
1.11032e-09
0.000331281
1.07876e-09
0.000331281
1.04888e-09
0.00033128
1.02064e-09
0.00033128
9.9397e-10
0.00033128
9.68425e-10
0.00033128
9.43717e-10
0.00033128
9.2016e-10
0.00033128
8.98062e-10
0.00033128
8.77245e-10
0.00033128
8.57351e-10
0.00033128
8.38113e-10
0.000331279
8.19407e-10
0.000331279
8.0107e-10
0.000331279
7.82742e-10
0.000331279
7.64089e-10
0.000331279
7.44933e-10
0.000331279
7.25093e-10
0.000331279
7.04278e-10
0.000331279
6.8225e-10
0.000331279
6.58953e-10
0.000331279
6.34195e-10
0.000331279
6.07659e-10
0.000331279
5.79498e-10
0.000331278
5.50258e-10
0.000331278
5.20066e-10
0.000331278
4.88577e-10
0.000331278
4.55796e-10
0.000331278
4.22264e-10
0.000331278
3.88306e-10
0.000331278
3.53813e-10
0.000331278
3.18784e-10
0.000331278
2.83428e-10
0.000331278
2.4796e-10
0.000331278
2.12575e-10
0.000331278
1.77352e-10
0.000331278
1.42122e-10
0.000331277
1.06728e-10
0.000331277
7.13795e-11
0.000331277
3.64719e-11
0.000331277
2.1023e-12
0.000331277
-3.19741e-11
0.000331277
-6.58966e-11
0.000331277
-9.94783e-11
0.000331277
-1.32571e-10
0.000331277
-1.65227e-10
0.000331277
-1.97389e-10
0.000331277
-2.28953e-10
0.000331277
-2.59983e-10
0.000331277
-2.90436e-10
0.000331276
-3.20101e-10
0.000331276
-3.48986e-10
0.000331276
-3.77245e-10
0.000331276
-4.04782e-10
0.000331276
-4.31295e-10
0.000331276
-4.56564e-10
0.000331276
-4.80483e-10
0.000331276
-5.03017e-10
0.000331276
-5.23963e-10
0.000331276
-5.42793e-10
0.000331276
-5.59125e-10
0.000331276
-5.72731e-10
0.000331276
-5.83193e-10
0.000331276
-5.89725e-10
0.000331275
-5.91751e-10
0.000331275
-5.87638e-10
0.000331275
-5.75881e-10
0.000331275
-5.57905e-10
0.000331275
-5.18743e-10
0.000331275
-6.20309e-10
0.000331275
-7.92258e-10
0.000331275
-8.38533e-10
0.000331275
-8.23243e-10
0.000331275
-9.13618e-10
0.000331275
-1.07076e-09
0.000331275
-1.1292e-09
0.000331276
-1.13781e-09
0.000331276
-1.12254e-09
0.000331276
-1.09178e-09
0.000331276
-1.04874e-09
0.000331276
-9.95004e-10
0.000331276
-9.30561e-10
0.000331276
-8.55056e-10
0.000331277
-7.64922e-10
0.000331277
-6.59433e-10
0.000331277
-5.28721e-10
0.000331277
-3.74457e-10
0.000331277
-1.85187e-10
0.000331277
1.6084e-10
-2.16657e-10
0.000322712
-1.13985e-09
0.000322712
-1.29718e-09
0.000322712
-1.20046e-09
0.000322712
-1.0558e-09
0.000322712
-9.25127e-10
0.000322712
-8.16229e-10
0.000322713
-7.25109e-10
0.000322713
-6.46101e-10
0.000322713
-5.74862e-10
0.000322713
-5.08836e-10
0.000322713
-4.46537e-10
0.000322713
-3.87068e-10
0.000322713
-3.29979e-10
0.000322714
-2.7513e-10
0.000322714
-2.22105e-10
0.000322714
-1.70852e-10
0.000322714
-1.18215e-10
0.000322714
-6.45151e-11
0.000322714
4.18682e-12
0.000322714
1.00274e-10
0.000322715
1.64544e-10
0.000322715
2.8358e-10
0.000322715
5.00226e-10
0.000322715
7.70177e-10
0.000322716
1.0378e-09
0.000322716
1.18825e-09
0.000322716
1.24191e-09
0.000322716
1.2456e-09
0.000322716
1.22921e-09
0.000322716
1.20588e-09
0.000322715
1.18029e-09
0.000322715
1.15384e-09
0.000322715
1.12722e-09
0.000322715
1.10111e-09
0.000322715
1.0758e-09
0.000322715
1.05104e-09
0.000322715
1.02667e-09
0.000322715
1.00318e-09
0.000322715
9.80918e-10
0.000322715
9.59654e-10
0.000322715
9.39071e-10
0.000322715
9.19011e-10
0.000322714
8.99404e-10
0.000322714
8.8008e-10
0.000322714
8.60721e-10
0.000322714
8.41067e-10
0.000322714
8.20969e-10
0.000322714
8.00256e-10
0.000322714
7.78651e-10
0.000322714
7.55923e-10
0.000322714
7.3197e-10
0.000322714
7.06564e-10
0.000322714
6.795e-10
0.000322714
6.51014e-10
0.000322714
6.21552e-10
0.000322714
5.91084e-10
0.000322713
5.59273e-10
0.000322713
5.26298e-10
0.000322713
4.92746e-10
0.000322713
4.58785e-10
0.000322713
4.24265e-10
0.000322713
3.89345e-10
0.000322713
3.54241e-10
0.000322713
3.19001e-10
0.000322713
2.83778e-10
0.000322713
2.48716e-10
0.000322713
2.13646e-10
0.000322713
1.78432e-10
0.000322713
1.43404e-10
0.000322713
1.08933e-10
0.000322712
7.49199e-11
0.000322712
4.10441e-11
0.000322712
7.26864e-12
0.000322712
-2.61392e-11
0.000322712
-5.90542e-11
0.000322712
-9.15258e-11
0.000322712
-1.23446e-10
0.000322712
-1.54761e-10
0.000322712
-1.85623e-10
0.000322712
-2.15948e-10
0.000322712
-2.4544e-10
0.000322712
-2.74108e-10
0.000322712
-3.02159e-10
0.000322712
-3.29525e-10
0.000322711
-3.55928e-10
0.000322711
-3.81126e-10
0.000322711
-4.04988e-10
0.000322711
-4.27541e-10
0.000322711
-4.48584e-10
0.000322711
-4.67528e-10
0.000322711
-4.84038e-10
0.000322711
-4.97954e-10
0.000322711
-5.08815e-10
0.000322711
-5.15883e-10
0.000322711
-5.18705e-10
0.000322711
-5.16344e-10
0.000322711
-5.07192e-10
0.00032271
-4.96561e-10
0.00032271
-4.71499e-10
0.00032271
-5.63333e-10
0.00032271
-7.25402e-10
0.00032271
-7.96711e-10
0.00032271
-8.16676e-10
0.00032271
-9.10565e-10
0.00032271
-1.05303e-09
0.00032271
-1.12055e-09
0.00032271
-1.14941e-09
0.00032271
-1.15515e-09
0.00032271
-1.14235e-09
0.00032271
-1.11362e-09
0.00032271
-1.07101e-09
0.000322711
-1.01534e-09
0.000322711
-9.4708e-10
0.000322711
-8.63452e-10
0.000322711
-7.64641e-10
0.000322711
-6.41501e-10
0.000322711
-4.96418e-10
0.000322711
-3.21229e-10
0.000322711
9.59028e-12
-3.60035e-10
0.00031433
-1.24009e-09
0.00031433
-1.40896e-09
0.00031433
-1.32629e-09
0.00031433
-1.19098e-09
0.00031433
-1.06539e-09
0.00031433
-9.5921e-10
0.000314331
-8.6948e-10
0.000314331
-7.90942e-10
0.000314331
-7.19379e-10
0.000314331
-6.52227e-10
0.000314331
-5.88074e-10
0.000314331
-5.2625e-10
0.000314331
-4.66505e-10
0.000314332
-4.08721e-10
0.000314332
-3.52484e-10
0.000314332
-2.97755e-10
0.000314332
-2.41763e-10
0.000314332
-1.84128e-10
0.000314332
-1.15915e-10
0.000314332
-1.86593e-11
0.000314332
2.95823e-11
0.000314333
1.0429e-10
0.000314333
2.50873e-10
0.000314333
4.61755e-10
0.000314333
7.4776e-10
0.000314334
9.72995e-10
0.000314334
1.10492e-09
0.000314334
1.16762e-09
0.000314334
1.19094e-09
0.000314334
1.1942e-09
0.000314334
1.18703e-09
0.000314334
1.1738e-09
0.000314334
1.15694e-09
0.000314334
1.13819e-09
0.000314334
1.11859e-09
0.000314334
1.09836e-09
0.000314334
1.07756e-09
0.000314334
1.05689e-09
0.000314334
1.03686e-09
0.000314334
1.01729e-09
0.000314333
9.97934e-10
0.000314333
9.78754e-10
0.000314333
9.59789e-10
0.000314333
9.4089e-10
0.000314333
9.21794e-10
0.000314333
9.02339e-10
0.000314333
8.82424e-10
0.000314333
8.6187e-10
0.000314333
8.40411e-10
0.000314333
8.17857e-10
0.000314333
7.94057e-10
0.000314333
7.68713e-10
0.000314333
7.41742e-10
0.000314333
7.1352e-10
0.000314333
6.8441e-10
0.000314333
6.54227e-10
0.000314332
6.22638e-10
0.000314332
5.89945e-10
0.000314332
5.56771e-10
0.000314332
5.2319e-10
0.000314332
4.89017e-10
0.000314332
4.54526e-10
0.000314332
4.19986e-10
0.000314332
3.85319e-10
0.000314332
3.50591e-10
0.000314332
3.15991e-10
0.000314332
2.81359e-10
0.000314332
2.46536e-10
0.000314332
2.11956e-10
0.000314332
1.78051e-10
0.000314332
1.44607e-10
0.000314331
1.11192e-10
0.000314331
7.77849e-11
0.000314331
4.47058e-11
0.000314331
1.21205e-11
0.000314331
-1.99893e-11
0.000314331
-5.1522e-11
0.000314331
-8.24715e-11
0.000314331
-1.13028e-10
0.000314331
-1.43081e-10
0.000314331
-1.72283e-10
0.000314331
-2.00643e-10
0.000314331
-2.28401e-10
0.000314331
-2.55497e-10
0.000314331
-2.81659e-10
0.00031433
-3.06662e-10
0.00031433
-3.3039e-10
0.00031433
-3.52882e-10
0.00031433
-3.73918e-10
0.00031433
-3.92895e-10
0.00031433
-4.09534e-10
0.00031433
-4.23722e-10
0.00031433
-4.34942e-10
0.00031433
-4.42503e-10
0.00031433
-4.46077e-10
0.00031433
-4.45326e-10
0.00031433
-4.3872e-10
0.00031433
-4.33595e-10
0.00031433
-4.20294e-10
0.000314329
-4.99267e-10
0.000314329
-6.37438e-10
0.000314329
-7.14018e-10
0.000314329
-7.57375e-10
0.000314329
-8.56624e-10
0.000314329
-9.8778e-10
0.000314329
-1.05785e-09
0.000314329
-1.09923e-09
0.000314329
-1.12221e-09
0.000314329
-1.12759e-09
0.000314329
-1.11586e-09
0.000314329
-1.08825e-09
0.000314329
-1.04554e-09
0.000314329
-9.88591e-10
0.000314329
-9.15232e-10
0.000314329
-8.26509e-10
0.000314329
-7.14094e-10
0.000314329
-5.81078e-10
0.000314329
-4.22516e-10
0.00031433
-1.10452e-10
-4.7271e-10
0.000306128
-1.30806e-09
0.000306128
-1.48945e-09
0.000306129
-1.42446e-09
0.000306129
-1.30276e-09
0.000306129
-1.18565e-09
0.000306129
-1.08443e-09
0.000306129
-9.97491e-10
0.000306129
-9.20378e-10
0.000306129
-8.49246e-10
0.000306129
-7.81618e-10
0.00030613
-7.16207e-10
0.00030613
-6.52605e-10
0.00030613
-5.90741e-10
0.00030613
-5.30534e-10
0.00030613
-4.71611e-10
0.00030613
-4.13929e-10
0.00030613
-3.55157e-10
0.00030613
-2.9429e-10
0.000306131
-2.26676e-10
0.000306131
-1.30976e-10
0.000306131
-8.89958e-11
0.000306131
-4.32018e-11
0.000306131
4.6736e-11
0.000306131
1.90991e-10
0.000306132
4.47361e-10
0.000306132
6.99702e-10
0.000306132
8.87038e-10
0.000306132
1.00586e-09
0.000306132
1.07481e-09
0.000306133
1.1126e-09
0.000306133
1.13138e-09
0.000306133
1.13796e-09
0.000306133
1.13646e-09
0.000306133
1.12983e-09
0.000306133
1.12003e-09
0.000306133
1.10788e-09
0.000306133
1.09379e-09
0.000306133
1.07868e-09
0.000306133
1.0633e-09
0.000306133
1.04763e-09
0.000306133
1.03148e-09
0.000306132
1.01498e-09
0.000306132
9.98302e-10
0.000306132
9.81346e-10
0.000306132
9.63914e-10
0.000306132
9.4595e-10
0.000306132
9.27419e-10
0.000306132
9.08127e-10
0.000306132
8.87821e-10
0.000306132
8.66371e-10
0.000306132
8.43587e-10
0.000306132
8.19098e-10
0.000306132
7.92933e-10
0.000306132
7.65614e-10
0.000306132
7.37453e-10
0.000306132
7.08157e-10
0.000306132
6.77396e-10
0.000306132
6.45524e-10
0.000306132
6.13171e-10
0.000306132
5.80393e-10
0.000306132
5.46994e-10
0.000306131
5.13303e-10
0.000306131
4.79649e-10
0.000306131
4.45891e-10
0.000306131
4.12012e-10
0.000306131
3.78211e-10
0.000306131
3.44322e-10
0.000306131
3.10145e-10
0.000306131
2.76183e-10
0.000306131
2.42979e-10
0.000306131
2.1029e-10
0.000306131
1.77589e-10
0.000306131
1.44801e-10
0.000306131
1.12247e-10
0.000306131
8.01745e-11
0.000306131
4.86124e-11
0.000306131
1.7613e-11
0.00030613
-1.28509e-11
0.00030613
-4.29502e-11
0.00030613
-7.25627e-11
0.00030613
-1.01336e-10
0.00030613
-1.29283e-10
0.00030613
-1.56661e-10
0.00030613
-1.83392e-10
0.00030613
-2.09184e-10
0.00030613
-2.33861e-10
0.00030613
-2.57359e-10
0.00030613
-2.79694e-10
0.00030613
-3.00602e-10
0.00030613
-3.19516e-10
0.00030613
-3.36223e-10
0.000306129
-3.50622e-10
0.000306129
-3.62143e-10
0.000306129
-3.70155e-10
0.000306129
-3.7444e-10
0.000306129
-3.75143e-10
0.000306129
-3.70925e-10
0.000306129
-3.70006e-10
0.000306129
-3.65734e-10
0.000306129
-4.34294e-10
0.000306129
-5.48248e-10
0.000306129
-6.18202e-10
0.000306129
-6.70672e-10
0.000306129
-7.70913e-10
0.000306128
-8.92836e-10
0.000306128
-9.6218e-10
0.000306128
-1.00928e-09
0.000306128
-1.04316e-09
0.000306128
-1.06283e-09
0.000306128
-1.06677e-09
0.000306128
-1.05468e-09
0.000306128
-1.02659e-09
0.000306128
-9.83158e-10
0.000306128
-9.22495e-10
0.000306128
-8.46277e-10
0.000306128
-7.46986e-10
0.000306128
-6.2835e-10
0.000306128
-4.88496e-10
0.000306128
-1.98236e-10
-5.54342e-10
0.000298104
-1.34561e-09
0.000298104
-1.53977e-09
0.000298104
-1.49456e-09
0.000298104
-1.38966e-09
0.000298104
-1.28414e-09
0.000298104
-1.19031e-09
0.000298104
-1.10786e-09
0.000298105
-1.03338e-09
0.000298105
-9.63603e-10
0.000298105
-8.9626e-10
0.000298105
-8.30279e-10
0.000298105
-7.65527e-10
0.000298105
-7.02096e-10
0.000298105
-6.39969e-10
0.000298105
-5.78874e-10
0.000298105
-5.18763e-10
0.000298106
-4.57751e-10
0.000298106
-3.94343e-10
0.000298106
-3.27245e-10
0.000298106
-2.34681e-10
0.000298106
-1.94039e-10
0.000298106
-1.64642e-10
0.000298106
-1.1423e-10
0.000298106
-2.75343e-11
0.000298107
1.78261e-10
0.000298107
4.2025e-10
0.000298107
6.32404e-10
0.000298107
7.91316e-10
0.000298108
9.00922e-10
0.000298108
9.73955e-10
0.000298108
1.02168e-09
0.000298108
1.05175e-09
0.000298108
1.06933e-09
0.000298108
1.07828e-09
0.000298108
1.08142e-09
0.000298108
1.08023e-09
0.000298108
1.0755e-09
0.000298108
1.06835e-09
0.000298108
1.05979e-09
0.000298108
1.05e-09
0.000298108
1.03894e-09
0.000298108
1.02686e-09
0.000298108
1.01405e-09
0.000298108
1.00053e-09
0.000298108
9.86148e-10
0.000298108
9.70965e-10
0.000298108
9.55009e-10
0.000298108
9.38074e-10
0.000298108
9.19925e-10
0.000298108
9.005e-10
0.000298108
8.79589e-10
0.000298108
8.56775e-10
0.000298108
8.32178e-10
0.000298108
8.06426e-10
0.000298108
7.79813e-10
0.000298108
7.5201e-10
0.000298108
7.22695e-10
0.000298108
6.92202e-10
0.000298108
6.61141e-10
0.000298108
6.29612e-10
0.000298107
5.97438e-10
0.000298107
5.64947e-10
0.000298107
5.32504e-10
0.000298107
4.99982e-10
0.000298107
4.67307e-10
0.000298107
4.34644e-10
0.000298107
4.01803e-10
0.000298107
3.68547e-10
0.000298107
3.35419e-10
0.000298107
3.03074e-10
0.000298107
2.71312e-10
0.000298107
2.39556e-10
0.000298107
2.07635e-10
0.000298107
1.75834e-10
0.000298107
1.44477e-10
0.000298107
1.13642e-10
0.000298107
8.33208e-11
0.000298106
5.34807e-11
0.000298106
2.40022e-11
0.000298106
-5.00061e-12
0.000298106
-3.32049e-11
0.000298106
-6.06254e-11
0.000298106
-8.75185e-11
0.000298106
-1.13782e-10
0.000298106
-1.39089e-10
0.000298106
-1.63316e-10
0.000298106
-1.86479e-10
0.000298106
-2.08542e-10
0.000298106
-2.29196e-10
0.000298106
-2.47947e-10
0.000298106
-2.64644e-10
0.000298105
-2.79174e-10
0.000298105
-2.90929e-10
0.000298105
-2.99348e-10
0.000298105
-3.04297e-10
0.000298105
-3.06288e-10
0.000298105
-3.04239e-10
0.000298105
-3.06608e-10
0.000298105
-3.08935e-10
0.000298105
-3.69839e-10
0.000298105
-4.64057e-10
0.000298105
-5.23346e-10
0.000298105
-5.74903e-10
0.000298105
-6.70128e-10
0.000298104
-7.82386e-10
0.000298104
-8.48886e-10
0.000298104
-8.96902e-10
0.000298104
-9.3567e-10
0.000298104
-9.64251e-10
0.000298104
-9.80083e-10
0.000298104
-9.81477e-10
0.000298104
-9.67326e-10
0.000298104
-9.37692e-10
0.000298104
-8.90616e-10
0.000298104
-8.28096e-10
0.000298104
-7.43343e-10
0.000298104
-6.40609e-10
0.000298104
-5.20899e-10
0.000298104
-2.54823e-10
-6.06196e-10
0.000290253
-1.35572e-09
0.000290253
-1.56253e-09
0.000290253
-1.53816e-09
0.000290253
-1.45214e-09
0.000290253
-1.36062e-09
0.000290253
-1.27636e-09
0.000290253
-1.20014e-09
0.000290253
-1.12962e-09
0.000290253
-1.06222e-09
0.000290254
-9.95993e-10
0.000290254
-9.30177e-10
0.000290254
-8.64918e-10
0.000290254
-8.00461e-10
0.000290254
-7.369e-10
0.000290254
-6.7412e-10
0.000290254
-6.12079e-10
0.000290254
-5.49314e-10
0.000290254
-4.83999e-10
0.000290254
-4.17312e-10
0.000290254
-3.28575e-10
0.000290255
-2.87249e-10
0.000290255
-2.65785e-10
0.000290255
-2.40034e-10
0.000290255
-1.96197e-10
0.000290255
-4.34237e-11
0.000290255
1.667e-10
0.000290256
3.77152e-10
0.000290256
5.55604e-10
0.000290256
6.93806e-10
0.000290256
7.96485e-10
0.000290256
8.71394e-10
0.000290257
9.25209e-10
0.000290257
9.63099e-10
0.000290257
9.89303e-10
0.000290257
1.00721e-09
0.000290257
1.01883e-09
0.000290257
1.02527e-09
0.000290257
1.02786e-09
0.000290257
1.02781e-09
0.000290257
1.02554e-09
0.000290257
1.02114e-09
0.000290257
1.01496e-09
0.000290257
1.00745e-09
0.000290257
9.987e-10
0.000290257
9.88649e-10
0.000290257
9.77437e-10
0.000290257
9.65157e-10
0.000290257
9.51594e-10
0.000290257
9.36539e-10
0.000290257
9.19997e-10
0.000290257
9.01761e-10
0.000290257
8.81415e-10
0.000290257
8.59139e-10
0.000290257
8.35607e-10
0.000290257
8.11125e-10
0.000290257
7.85398e-10
0.000290257
7.58118e-10
0.000290257
7.29542e-10
0.000290257
7.00245e-10
0.000290257
6.70412e-10
0.000290257
6.39912e-10
0.000290257
6.0902e-10
0.000290257
5.78116e-10
0.000290257
5.47143e-10
0.000290257
5.16007e-10
0.000290256
4.84795e-10
0.000290256
4.53285e-10
0.000290256
4.21229e-10
0.000290256
3.89183e-10
0.000290256
3.57886e-10
0.000290256
3.27229e-10
0.000290256
2.9662e-10
0.000290256
2.65794e-10
0.000290256
2.34977e-10
0.000290256
2.04544e-10
0.000290256
1.74602e-10
0.000290256
1.45108e-10
0.000290256
1.1605e-10
0.000290256
8.73591e-11
0.000290256
5.91188e-11
0.000290256
3.16159e-11
0.000290256
4.84625e-12
0.000290255
-2.14401e-11
0.000290255
-4.71254e-11
0.000290255
-7.18446e-11
0.000290255
-9.552e-11
0.000290255
-1.18235e-10
0.000290255
-1.39899e-10
0.000290255
-1.60176e-10
0.000290255
-1.78667e-10
0.000290255
-1.95269e-10
0.000290255
-2.09835e-10
0.000290255
-2.21744e-10
0.000290255
-2.30518e-10
0.000290255
-2.36072e-10
0.000290255
-2.39192e-10
0.000290254
-2.39063e-10
0.000290254
-2.44039e-10
0.000290254
-2.51065e-10
0.000290254
-3.06251e-10
0.000290254
-3.85725e-10
0.000290254
-4.34839e-10
0.000290254
-4.80576e-10
0.000290254
-5.66256e-10
0.000290254
-6.67292e-10
0.000290254
-7.29077e-10
0.000290254
-7.74795e-10
0.000290253
-8.1381e-10
0.000290253
-8.4617e-10
0.000290253
-8.69304e-10
0.000290253
-8.8066e-10
0.000290253
-8.78103e-10
0.000290253
-8.60951e-10
0.000290253
-8.26941e-10
0.000290253
-7.78103e-10
0.000290253
-7.08289e-10
0.000290253
-6.22108e-10
0.000290253
-5.23235e-10
0.000290253
-2.82973e-10
-6.30898e-10
0.000282572
-1.34222e-09
0.000282572
-1.56136e-09
0.000282572
-1.55814e-09
0.000282572
-1.49211e-09
0.000282572
-1.41621e-09
0.000282572
-1.34322e-09
0.000282572
-1.27478e-09
0.000282572
-1.2095e-09
0.000282572
-1.14548e-09
0.000282572
-1.08121e-09
0.000282572
-1.01629e-09
0.000282572
-9.5114e-10
0.000282573
-8.86167e-10
0.000282573
-8.21629e-10
0.000282573
-7.57609e-10
0.000282573
-6.94088e-10
0.000282573
-6.29998e-10
0.000282573
-5.63321e-10
0.000282573
-4.96971e-10
0.000282573
-4.12181e-10
0.000282573
-3.69609e-10
0.000282573
-3.51007e-10
0.000282573
-3.38964e-10
0.000282574
-3.23593e-10
0.000282574
-2.16681e-10
0.000282574
-4.6281e-11
0.000282574
1.44856e-10
0.000282574
3.24304e-10
0.000282575
4.76685e-10
0.000282575
5.99596e-10
0.000282575
6.96218e-10
0.000282575
7.70915e-10
0.000282575
8.2787e-10
0.000282575
8.71086e-10
0.000282575
9.04093e-10
0.000282576
9.29172e-10
0.000282576
9.47642e-10
0.000282576
9.6097e-10
0.000282576
9.70517e-10
0.000282576
9.76872e-10
0.000282576
9.8028e-10
0.000282576
9.81185e-10
0.000282576
9.80099e-10
0.000282576
9.77213e-10
0.000282576
9.7255e-10
0.000282576
9.66319e-10
0.000282576
9.58653e-10
0.000282576
9.49336e-10
0.000282576
9.38196e-10
0.000282576
9.25289e-10
0.000282576
9.10433e-10
0.000282576
8.9327e-10
0.000282576
8.74006e-10
0.000282576
8.53301e-10
0.000282576
8.31494e-10
0.000282576
8.08379e-10
0.000282576
7.83662e-10
0.000282576
7.57493e-10
0.000282576
7.30406e-10
0.000282576
7.02697e-10
0.000282576
6.7429e-10
0.000282576
6.45373e-10
0.000282576
6.16321e-10
0.000282576
5.87191e-10
0.000282576
5.57894e-10
0.000282576
5.28406e-10
0.000282575
4.98481e-10
0.000282575
4.67892e-10
0.000282575
4.37185e-10
0.000282575
4.07151e-10
0.000282575
3.77778e-10
0.000282575
3.48494e-10
0.000282575
3.18962e-10
0.000282575
2.89351e-10
0.000282575
2.60039e-10
0.000282575
2.31145e-10
0.000282575
2.02631e-10
0.000282575
1.74525e-10
0.000282575
1.46778e-10
0.000282575
1.19431e-10
0.000282575
9.27528e-11
0.000282575
6.67602e-11
0.000282575
4.12112e-11
0.000282575
1.62251e-11
0.000282574
-7.81452e-12
0.000282574
-3.08564e-11
0.000282574
-5.30148e-11
0.000282574
-7.41491e-11
0.000282574
-9.39339e-11
0.000282574
-1.12078e-10
0.000282574
-1.28495e-10
0.000282574
-1.42988e-10
0.000282574
-1.54961e-10
0.000282574
-1.64029e-10
0.000282574
-1.70122e-10
0.000282574
-1.74216e-10
0.000282574
-1.7575e-10
0.000282574
-1.82796e-10
0.000282574
-1.93134e-10
0.000282574
-2.43805e-10
0.000282573
-3.12553e-10
0.000282573
-3.53699e-10
0.000282573
-3.9239e-10
0.000282573
-4.66426e-10
0.000282573
-5.54976e-10
0.000282573
-6.10458e-10
0.000282573
-6.51777e-10
0.000282573
-6.8786e-10
0.000282573
-7.19908e-10
0.000282572
-7.46017e-10
0.000282572
-7.63388e-10
0.000282572
-7.6922e-10
0.000282572
-7.62184e-10
0.000282572
-7.39649e-10
0.000282572
-7.03481e-10
0.000282572
-6.48101e-10
0.000282572
-5.78301e-10
0.000282572
-5.0023e-10
0.000282572
-2.86663e-10
-6.32117e-10
0.000275057
-1.30944e-09
0.000275057
-1.54044e-09
0.000275057
-1.55819e-09
0.000275057
-1.51253e-09
0.000275057
-1.45311e-09
0.000275057
-1.39253e-09
0.000275058
-1.33307e-09
0.000275058
-1.2741e-09
0.000275058
-1.21436e-09
0.000275058
-1.1528e-09
0.000275058
-1.08944e-09
0.000275058
-1.02495e-09
0.000275058
-9.59925e-10
0.000275058
-8.94824e-10
0.000275058
-8.29956e-10
0.000275058
-7.65345e-10
0.000275058
-7.00284e-10
0.000275058
-6.32686e-10
0.000275058
-5.66633e-10
0.000275058
-4.85584e-10
0.000275059
-4.41812e-10
0.000275059
-4.23329e-10
0.000275059
-4.17714e-10
0.000275059
-4.19155e-10
0.000275059
-3.47585e-10
0.000275059
-2.15836e-10
0.000275059
-5.26703e-11
0.00027506
1.14451e-10
0.00027506
2.67913e-10
0.00027506
4.00577e-10
0.00027506
5.11409e-10
0.00027506
6.01931e-10
0.00027506
6.74721e-10
0.000275061
7.33021e-10
0.000275061
7.80062e-10
0.000275061
8.18082e-10
0.000275061
8.4846e-10
0.000275061
8.72717e-10
0.000275061
8.92267e-10
0.000275061
9.07805e-10
0.000275061
9.19687e-10
0.000275061
9.28411e-10
0.000275061
9.34527e-10
0.000275061
9.38292e-10
0.000275061
9.39804e-10
0.000275061
9.39321e-10
0.000275061
9.3699e-10
0.000275061
9.32609e-10
0.000275061
9.26049e-10
0.000275061
9.17387e-10
0.000275061
9.06496e-10
0.000275061
8.93113e-10
0.000275061
8.77447e-10
0.000275061
8.60097e-10
0.000275061
8.41445e-10
0.000275061
8.21407e-10
0.000275061
7.99698e-10
0.000275061
7.76351e-10
0.000275061
7.51875e-10
0.000275061
7.26677e-10
0.000275061
7.00731e-10
0.000275061
6.74123e-10
0.000275061
6.4721e-10
0.000275061
6.20182e-10
0.000275061
5.92969e-10
0.000275061
5.65438e-10
0.000275061
5.37323e-10
0.000275061
5.08444e-10
0.000275061
4.79324e-10
0.000275061
4.50773e-10
0.000275061
4.22864e-10
0.000275061
3.95062e-10
0.000275061
3.66995e-10
0.000275061
3.38781e-10
0.000275061
3.10766e-10
0.000275061
2.8307e-10
0.000275061
2.55692e-10
0.000275061
2.28699e-10
0.000275061
2.02029e-10
0.00027506
1.75692e-10
0.00027506
1.49954e-10
0.00027506
1.24856e-10
0.00027506
1.00171e-10
0.00027506
7.60072e-11
0.00027506
5.27356e-11
0.00027506
3.0397e-11
0.00027506
8.89598e-12
0.00027506
-1.15862e-11
0.00027506
-3.07822e-11
0.00027506
-4.8505e-11
0.00027506
-6.46433e-11
0.00027506
-7.8949e-11
0.00027506
-9.08886e-11
0.00027506
-1.00175e-10
0.00027506
-1.06731e-10
0.000275059
-1.11655e-10
0.000275059
-1.14598e-10
0.000275059
-1.23274e-10
0.000275059
-1.35941e-10
0.000275059
-1.82854e-10
0.000275059
-2.43711e-10
0.000275059
-2.7924e-10
0.000275059
-3.11615e-10
0.000275059
-3.73977e-10
0.000275059
-4.4975e-10
0.000275059
-4.97899e-10
0.000275059
-5.33548e-10
0.000275058
-5.64749e-10
0.000275058
-5.93636e-10
0.000275058
-6.19234e-10
0.000275058
-6.38986e-10
0.000275058
-6.49847e-10
0.000275058
-6.50093e-10
0.000275058
-6.36808e-10
0.000275058
-6.11614e-10
0.000275058
-5.69477e-10
0.000275058
-5.15197e-10
0.000275057
-4.57249e-10
0.000275057
-2.70591e-10
-6.1418e-10
0.000267706
-1.26193e-09
0.000267706
-1.50415e-09
0.000267706
-1.54235e-09
0.000267706
-1.51689e-09
0.000267706
-1.47419e-09
0.000267706
-1.42663e-09
0.000267707
-1.37692e-09
0.000267707
-1.32506e-09
0.000267707
-1.27029e-09
0.000267707
-1.21207e-09
0.000267707
-1.15081e-09
0.000267707
-1.08745e-09
0.000267707
-1.02275e-09
0.000267707
-9.57446e-10
0.000267707
-8.92059e-10
0.000267707
-8.26674e-10
0.000267707
-7.60918e-10
0.000267707
-6.92736e-10
0.000267707
-6.26955e-10
0.000267707
-5.49275e-10
0.000267707
-5.04526e-10
0.000267707
-4.8482e-10
0.000267708
-4.81158e-10
0.000267708
-4.9098e-10
0.000267708
-4.44389e-10
0.000267708
-3.45642e-10
0.000267708
-2.12297e-10
0.000267708
-6.50439e-11
0.000267708
7.97049e-11
0.000267709
2.127e-10
0.000267709
3.29878e-10
0.000267709
4.30141e-10
0.000267709
5.14299e-10
0.000267709
5.84534e-10
0.000267709
6.43433e-10
0.000267709
6.929e-10
0.00026771
7.34216e-10
0.00026771
7.6885e-10
0.00026771
7.98172e-10
0.00026771
8.22893e-10
0.00026771
8.4342e-10
0.00026771
8.60262e-10
0.00026771
8.73963e-10
0.00026771
8.84818e-10
0.00026771
8.92984e-10
0.00026771
8.98737e-10
0.00026771
9.02213e-10
0.00026771
9.03247e-10
0.00026771
9.01749e-10
0.00026771
8.97784e-10
0.00026771
8.91296e-10
0.00026771
8.82149e-10