/*--------------------------------*- C++ -*----------------------------------*\
  =========                 |
  \\      /  F ield         | OpenFOAM: The Open Source CFD Toolbox
   \\    /   O peration     | Website:  https://openfoam.org
    \\  /    A nd           | Version:  7
     \\/     M anipulation  |
\*---------------------------------------------------------------------------*/
FoamFile
{
    version     2.0;
    format      ascii;
    class       volScalarField;
    location    "500";
    object      omega;
}
// * * * * * * * * * * * * * * * * * * * * * * * * * * * * * * * * * * * * * //

dimensions      [0 0 -1 0 0 0 0];

internalField   nonuniform List<scalar> 
4000
(
999.269
999.269
999.269
999.269
999.269
999.269
999.269
999.269
999.269
999.269
999.269
999.269
999.269
999.269
999.269
999.269
999.269
999.269
999.269
999.269
999.269
999.269
999.269
999.269
999.269
999.269
999.269
999.269
999.269
999.269
999.269
999.269
999.269
999.269
999.269
999.269
999.269
999.269
999.269
999.269
999.269
999.269
999.269
999.269
999.269
999.269
999.269
999.269
999.269
999.269
999.269
999.269
999.269
999.269
999.269
999.269
999.269
999.269
999.269
999.269
999.269
999.269
999.269
999.269
999.269
999.269
999.269
999.269
999.269
999.269
999.269
999.269
999.269
999.269
999.269
999.269
999.269
999.269
999.269
999.269
999.269
999.269
999.269
999.269
999.269
999.269
999.269
999.269
999.269
999.269
999.269
999.269
999.269
999.269
999.269
999.269
999.269
999.269
999.269
999.269
999.269
999.269
999.269
999.269
999.269
999.269
999.269
999.269
999.269
999.269
999.269
999.269
999.269
999.269
999.269
999.269
999.269
999.269
999.269
999.269
173.325
173.323
173.323
173.323
173.323
173.323
173.323
173.323
173.323
173.323
173.323
173.323
173.323
173.323
173.323
173.323
173.323
173.323
173.323
173.323
173.323
173.323
173.323
173.323
173.323
173.323
173.323
173.323
173.323
173.323
173.323
173.323
173.323
173.323
173.323
173.323
173.323
173.323
173.323
173.323
173.323
173.323
173.323
173.323
173.323
173.323
173.323
173.323
173.323
173.323
173.323
173.323
173.323
173.323
173.323
173.323
173.323
173.323
173.323
173.323
173.323
173.323
173.323
173.323
173.323
173.323
173.323
173.323
173.323
173.323
173.323
173.323
173.323
173.323
173.323
173.323
173.323
173.323
173.323
173.323
173.323
173.323
173.323
173.323
173.323
173.323
173.323
173.323
173.323
173.323
173.323
173.323
173.323
173.323
173.323
173.323
173.323
173.323
173.323
173.323
173.323
173.323
173.323
173.323
173.323
173.323
173.323
173.323
173.323
173.323
173.323
173.323
173.323
173.323
173.323
173.323
173.323
173.323
173.323
173.325
59.1987
59.1982
59.198
59.1983
59.1985
59.1987
59.1988
59.1988
59.1989
59.1989
59.1989
59.1988
59.1988
59.1988
59.1988
59.1988
59.1988
59.1988
59.1988
59.1988
59.1988
59.1987
59.1987
59.1988
59.1988
59.1988
59.1988
59.1988
59.1988
59.1988
59.1988
59.1988
59.1988
59.1988
59.1988
59.1988
59.1988
59.1988
59.1988
59.1988
59.1988
59.1988
59.1988
59.1988
59.1988
59.1987
59.1987
59.1987
59.1987
59.1986
59.1986
59.1986
59.1985
59.1985
59.1985
59.1985
59.1984
59.1984
59.1984
59.1984
59.1984
59.1984
59.1984
59.1984
59.1984
59.1984
59.1984
59.1984
59.1984
59.1984
59.1984
59.1984
59.1984
59.1984
59.1984
59.1984
59.1984
59.1984
59.1984
59.1984
59.1984
59.1984
59.1984
59.1984
59.1984
59.1984
59.1984
59.1984
59.1984
59.1984
59.1984
59.1984
59.1984
59.1984
59.1984
59.1984
59.1984
59.1984
59.1985
59.1985
59.1985
59.1985
59.1985
59.1985
59.1985
59.1985
59.1985
59.1985
59.1986
59.1986
59.1986
59.1986
59.1986
59.1986
59.1986
59.1986
59.1986
59.1986
59.1985
59.1986
29.0803
29.0796
29.0792
29.0793
29.0795
29.0797
29.0798
29.0799
29.08
29.08
29.08
29.08
29.08
29.08
29.0799
29.0799
29.0799
29.0799
29.0799
29.0799
29.0798
29.0798
29.0798
29.0799
29.0799
29.0799
29.0799
29.0799
29.08
29.08
29.08
29.08
29.08
29.08
29.08
29.08
29.08
29.08
29.08
29.08
29.0799
29.0799
29.0799
29.0799
29.0799
29.0798
29.0798
29.0798
29.0798
29.0797
29.0797
29.0796
29.0796
29.0795
29.0795
29.0794
29.0794
29.0793
29.0793
29.0793
29.0793
29.0793
29.0792
29.0792
29.0792
29.0792
29.0792
29.0792
29.0793
29.0793
29.0793
29.0793
29.0793
29.0793
29.0793
29.0793
29.0793
29.0793
29.0793
29.0793
29.0793
29.0793
29.0793
29.0793
29.0793
29.0793
29.0793
29.0793
29.0793
29.0792
29.0792
29.0793
29.0793
29.0793
29.0793
29.0793
29.0793
29.0793
29.0793
29.0793
29.0794
29.0794
29.0794
29.0794
29.0794
29.0794
29.0794
29.0795
29.0795
29.0795
29.0795
29.0795
29.0795
29.0795
29.0795
29.0795
29.0795
29.0795
29.0795
29.0798
17.9205
17.92
17.9193
17.9192
17.9193
17.9194
17.9196
17.9197
17.9197
17.9198
17.9198
17.9198
17.9198
17.9198
17.9198
17.9198
17.9197
17.9197
17.9197
17.9197
17.9197
17.9197
17.9197
17.9197
17.9197
17.9197
17.9198
17.9198
17.9198
17.9198
17.9199
17.9199
17.9199
17.9199
17.9199
17.9199
17.9199
17.9199
17.9199
17.9199
17.9199
17.9198
17.9198
17.9198
17.9197
17.9197
17.9197
17.9197
17.9196
17.9196
17.9196
17.9195
17.9194
17.9194
17.9193
17.9193
17.9192
17.9192
17.9191
17.9191
17.9191
17.919
17.919
17.919
17.919
17.919
17.919
17.919
17.919
17.919
17.919
17.919
17.9191
17.9191
17.9191
17.9191
17.9191
17.9191
17.9191
17.919
17.919
17.919
17.919
17.919
17.919
17.919
17.919
17.919
17.919
17.9189
17.9189
17.9189
17.9189
17.919
17.919
17.919
17.919
17.919
17.919
17.919
17.919
17.919
17.919
17.919
17.9191
17.9191
17.9191
17.9191
17.9191
17.9191
17.9191
17.9191
17.9191
17.9191
17.9191
17.9191
17.9191
17.9192
17.9191
17.9195
12.7194
12.7191
12.7185
12.7182
12.7182
12.7182
12.7183
12.7184
12.7185
12.7185
12.7186
12.7186
12.7186
12.7186
12.7186
12.7186
12.7186
12.7186
12.7186
12.7186
12.7186
12.7186
12.7186
12.7186
12.7186
12.7186
12.7186
12.7187
12.7187
12.7187
12.7188
12.7188
12.7188
12.7188
12.7189
12.7189
12.7189
12.7189
12.7188
12.7188
12.7188
12.7188
12.7187
12.7187
12.7187
12.7187
12.7186
12.7186
12.7186
12.7186
12.7185
12.7185
12.7184
12.7184
12.7183
12.7183
12.7182
12.7182
12.7181
12.7181
12.7181
12.718
12.718
12.718
12.718
12.718
12.718
12.718
12.718
12.718
12.718
12.718
12.718
12.718
12.718
12.718
12.718
12.718
12.718
12.718
12.7179
12.7179
12.7179
12.7179
12.7179
12.7179
12.7179
12.7178
12.7178
12.7178
12.7178
12.7178
12.7177
12.7177
12.7178
12.7178
12.7178
12.7178
12.7178
12.7178
12.7178
12.7178
12.7178
12.7178
12.7178
12.7178
12.7178
12.7178
12.7178
12.7179
12.7179
12.7179
12.7179
12.7179
12.7179
12.7179
12.7178
12.7179
12.7178
12.7182
9.78392
9.78392
9.78345
9.78311
9.78295
9.78292
9.78295
9.78302
9.78309
9.78315
9.78321
9.78325
9.78329
9.78331
9.78333
9.78333
9.78334
9.78333
9.78333
9.78332
9.78331
9.78331
9.78331
9.78331
9.78332
9.78334
9.78336
9.78339
9.78342
9.78346
9.78349
9.78352
9.78355
9.78358
9.7836
9.78362
9.78362
9.78363
9.78362
9.78361
9.78359
9.78357
9.78354
9.78351
9.78348
9.78346
9.78345
9.78344
9.78342
9.78341
9.78339
9.78336
9.78332
9.78327
9.78322
9.78318
9.78313
9.78309
9.78305
9.78301
9.78298
9.78295
9.78293
9.78291
9.78289
9.78288
9.78287
9.78287
9.78286
9.78286
9.78286
9.78286
9.78286
9.78286
9.78285
9.78285
9.78284
9.78282
9.78281
9.78279
9.78277
9.78275
9.78273
9.78271
9.78269
9.78266
9.78264
9.78261
9.78258
9.78255
9.78252
9.78249
9.78248
9.78247
9.78246
9.78245
9.78245
9.78244
9.78243
9.78243
9.78242
9.78241
9.7824
9.7824
9.78241
9.78242
9.78243
9.78244
9.78245
9.78246
9.78247
9.78248
9.78248
9.78248
9.78248
9.78247
9.78245
9.78249
9.78244
9.78267
7.87341
7.87355
7.87326
7.87296
7.87277
7.87268
7.87267
7.8727
7.87276
7.87281
7.87287
7.87292
7.87296
7.873
7.87303
7.87305
7.87306
7.87306
7.87307
7.87306
7.87306
7.87306
7.87306
7.87306
7.87307
7.87308
7.8731
7.87312
7.87315
7.87319
7.87322
7.87326
7.87329
7.87332
7.87335
7.87337
7.87339
7.8734
7.8734
7.8734
7.87339
7.87337
7.87335
7.87332
7.8733
7.87328
7.87327
7.87326
7.87326
7.87326
7.87325
7.87323
7.8732
7.87317
7.87313
7.8731
7.87306
7.87302
7.87299
7.87296
7.87293
7.8729
7.87288
7.87285
7.87284
7.87282
7.87281
7.8728
7.87279
7.87278
7.87277
7.87277
7.87276
7.87276
7.87275
7.87274
7.87273
7.87271
7.8727
7.87268
7.87266
7.87263
7.87261
7.87258
7.87255
7.87252
7.8725
7.87246
7.87243
7.87239
7.87235
7.87232
7.87229
7.87227
7.87225
7.87224
7.87223
7.87221
7.8722
7.87218
7.87217
7.87215
7.87214
7.87213
7.87213
7.87213
7.87213
7.87214
7.87215
7.87216
7.87217
7.87217
7.87218
7.87218
7.87217
7.87216
7.87214
7.87216
7.87212
7.87227
6.5176
6.51779
6.51764
6.51743
6.51726
6.51716
6.51712
6.51713
6.51716
6.5172
6.51725
6.5173
6.51734
6.51738
6.51741
6.51744
6.51746
6.51747
6.51748
6.51748
6.51749
6.51749
6.51749
6.51749
6.51749
6.5175
6.51752
6.51754
6.51757
6.5176
6.51763
6.51767
6.5177
6.51773
6.51777
6.51779
6.51782
6.51783
6.51784
6.51785
6.51784
6.51783
6.51782
6.5178
6.51778
6.51777
6.51776
6.51775
6.51775
6.51776
6.51775
6.51774
6.51773
6.51771
6.51768
6.51766
6.51763
6.5176
6.51757
6.51754
6.51752
6.5175
6.51747
6.51745
6.51743
6.51742
6.5174
6.51739
6.51738
6.51737
6.51736
6.51735
6.51734
6.51733
6.51733
6.51732
6.5173
6.51729
6.51727
6.51725
6.51723
6.5172
6.51718
6.51715
6.51712
6.51709
6.51706
6.51702
6.51699
6.51695
6.5169
6.51687
6.51683
6.5168
6.51678
6.51676
6.51674
6.51672
6.5167
6.51668
6.51666
6.51664
6.51661
6.5166
6.51659
6.51658
6.51658
6.51658
6.51658
6.51659
6.51659
6.5166
6.5166
6.5166
6.51659
6.51658
6.51656
6.51656
6.51654
6.51661
5.50564
5.50583
5.50577
5.50564
5.50552
5.50543
5.50538
5.50537
5.50538
5.50541
5.50544
5.50549
5.50553
5.50557
5.5056
5.50563
5.50565
5.50567
5.50568
5.50569
5.5057
5.5057
5.5057
5.5057
5.50571
5.50572
5.50573
5.50575
5.50577
5.5058
5.50583
5.50586
5.5059
5.50593
5.50596
5.506
5.50602
5.50605
5.50606
5.50607
5.50608
5.50607
5.50607
5.50605
5.50604
5.50603
5.50602
5.50602
5.50602
5.50603
5.50603
5.50603
5.50602
5.506
5.50599
5.50597
5.50595
5.50593
5.50591
5.50588
5.50586
5.50584
5.50582
5.50581
5.50579
5.50577
5.50576
5.50575
5.50573
5.50572
5.50571
5.5057
5.50569
5.50569
5.50568
5.50567
5.50565
5.50564
5.50562
5.50561
5.50558
5.50556
5.50553
5.50551
5.50548
5.50545
5.50542
5.50538
5.50534
5.5053
5.50526
5.50522
5.50519
5.50515
5.50512
5.5051
5.50507
5.50505
5.50502
5.505
5.50497
5.50495
5.50492
5.5049
5.50488
5.50487
5.50486
5.50485
5.50485
5.50485
5.50485
5.50485
5.50485
5.50484
5.50483
5.50482
5.5048
5.5048
5.50478
5.50481
4.72477
4.72493
4.72492
4.72485
4.72477
4.7247
4.72466
4.72464
4.72464
4.72466
4.72469
4.72472
4.72476
4.72479
4.72483
4.72486
4.72488
4.7249
4.72492
4.72493
4.72493
4.72494
4.72494
4.72494
4.72495
4.72495
4.72496
4.72498
4.725
4.72502
4.72505
4.72508
4.72512
4.72515
4.72519
4.72522
4.72525
4.72528
4.7253
4.72531
4.72532
4.72533
4.72532
4.72532
4.72531
4.7253
4.7253
4.7253
4.7253
4.72531
4.72531
4.72531
4.72531
4.72531
4.7253
4.72528
4.72527
4.72525
4.72524
4.72522
4.72521
4.72519
4.72518
4.72516
4.72515
4.72513
4.72512
4.72511
4.7251
4.72508
4.72508
4.72507
4.72506
4.72505
4.72504
4.72503
4.72502
4.72501
4.72499
4.72498
4.72496
4.72494
4.72491
4.72489
4.72486
4.72483
4.7248
4.72477
4.72473
4.72469
4.72465
4.72461
4.72458
4.72454
4.72451
4.72448
4.72445
4.72442
4.72439
4.72437
4.72434
4.72431
4.72428
4.72425
4.72423
4.72421
4.7242
4.72419
4.72418
4.72417
4.72417
4.72416
4.72416
4.72415
4.72414
4.72412
4.7241
4.72409
4.72407
4.72408
4.10671
4.10685
4.10685
4.10682
4.10677
4.10673
4.1067
4.10669
4.10669
4.1067
4.10672
4.10674
4.10677
4.1068
4.10683
4.10686
4.10688
4.1069
4.10692
4.10693
4.10694
4.10695
4.10695
4.10695
4.10696
4.10696
4.10697
4.10698
4.107
4.10702
4.10705
4.10708
4.10711
4.10714
4.10717
4.10721
4.10724
4.10727
4.10729
4.10731
4.10733
4.10734
4.10734
4.10734
4.10734
4.10734
4.10734
4.10734
4.10734
4.10735
4.10736
4.10736
4.10736
4.10736
4.10735
4.10735
4.10734
4.10733
4.10732
4.10731
4.1073
4.10729
4.10727
4.10726
4.10725
4.10724
4.10723
4.10722
4.10721
4.1072
4.10719
4.10718
4.10717
4.10717
4.10716
4.10715
4.10714
4.10713
4.10712
4.10711
4.10709
4.10707
4.10705
4.10703
4.107
4.10698
4.10695
4.10692
4.10689
4.10685
4.10681
4.10677
4.10674
4.1067
4.10667
4.10664
4.1066
4.10657
4.10654
4.10651
4.10648
4.10645
4.10642
4.10639
4.10637
4.10634
4.10632
4.10631
4.10629
4.10628
4.10627
4.10626
4.10625
4.10624
4.10623
4.10621
4.10619
4.10617
4.10616
4.10614
3.60703
3.60714
3.60714
3.60713
3.60711
3.60709
3.60707
3.60706
3.60706
3.60707
3.60708
3.6071
3.60713
3.60715
3.60718
3.6072
3.60723
3.60725
3.60726
3.60728
3.60729
3.60729
3.6073
3.6073
3.6073
3.60731
3.60732
3.60733
3.60734
3.60736
3.60738
3.60741
3.60743
3.60747
3.6075
3.60753
3.60756
3.60759
3.60762
3.60764
3.60766
3.60767
3.60768
3.60769
3.60769
3.60769
3.6077
3.6077
3.60771
3.60772
3.60773
3.60773
3.60773
3.60774
3.60773
3.60773
3.60773
3.60772
3.60772
3.60771
3.60771
3.6077
3.60769
3.60769
3.60768
3.60767
3.60766
3.60765
3.60764
3.60764
3.60763
3.60762
3.60762
3.60761
3.6076
3.6076
3.60759
3.60758
3.60757
3.60756
3.60755
3.60753
3.60752
3.6075
3.60747
3.60745
3.60743
3.6074
3.60737
3.60733
3.6073
3.60726
3.60723
3.60719
3.60716
3.60713
3.6071
3.60707
3.60703
3.607
3.60697
3.60694
3.6069
3.60687
3.60685
3.60682
3.6068
3.60677
3.60676
3.60674
3.60673
3.60671
3.6067
3.60669
3.60667
3.60665
3.60663
3.60661
3.60659
3.60656
3.1955
3.19559
3.19559
3.19558
3.19557
3.19557
3.19556
3.19556
3.19556
3.19557
3.19558
3.1956
3.19562
3.19564
3.19567
3.19569
3.19571
3.19573
3.19574
3.19576
3.19576
3.19577
3.19578
3.19578
3.19578
3.19579
3.19579
3.1958
3.19581
3.19583
3.19585
3.19587
3.1959
3.19592
3.19595
3.19599
3.19602
3.19605
3.19607
3.1961
3.19612
3.19614
3.19615
3.19616
3.19617
3.19618
3.19618
3.19619
3.1962
3.19621
3.19622
3.19623
3.19623
3.19624
3.19624
3.19624
3.19624
3.19624
3.19624
3.19624
3.19624
3.19623
3.19623
3.19623
3.19622
3.19622
3.19621
3.1962
3.1962
3.19619
3.19619
3.19618
3.19618
3.19617
3.19617
3.19616
3.19616
3.19615
3.19615
3.19614
3.19613
3.19611
3.1961
3.19608
3.19606
3.19604
3.19602
3.196
3.19597
3.19594
3.19591
3.19587
3.19584
3.19581
3.19578
3.19575
3.19571
3.19568
3.19565
3.19562
3.19558
3.19555
3.19552
3.19548
3.19546
3.19543
3.1954
3.19538
3.19536
3.19534
3.19532
3.1953
3.19529
3.19527
3.19525
3.19523
3.19521
3.19518
3.19517
3.19513
2.85098
2.85104
2.85104
2.85103
2.85103
2.85103
2.85103
2.85103
2.85104
2.85105
2.85106
2.85108
2.85109
2.85111
2.85113
2.85115
2.85117
2.85119
2.8512
2.85121
2.85122
2.85123
2.85123
2.85124
2.85124
2.85124
2.85125
2.85125
2.85126
2.85128
2.85129
2.85131
2.85134
2.85136
2.85139
2.85142
2.85145
2.85148
2.85151
2.85153
2.85155
2.85157
2.85159
2.8516
2.85162
2.85163
2.85164
2.85165
2.85166
2.85167
2.85168
2.85169
2.8517
2.85171
2.85171
2.85172
2.85172
2.85173
2.85173
2.85173
2.85173
2.85174
2.85174
2.85173
2.85173
2.85173
2.85173
2.85172
2.85172
2.85171
2.85171
2.85171
2.8517
2.8517
2.8517
2.85169
2.85169
2.85169
2.85168
2.85168
2.85167
2.85166
2.85165
2.85163
2.85162
2.8516
2.85158
2.85156
2.85154
2.85151
2.85148
2.85145
2.85142
2.85139
2.85136
2.85133
2.8513
2.85127
2.85124
2.8512
2.85117
2.85114
2.8511
2.85107
2.85104
2.85101
2.85098
2.85096
2.85094
2.85091
2.85089
2.85088
2.85086
2.85084
2.85082
2.85079
2.85077
2.85074
2.85073
2.85069
2.55828
2.55832
2.55831
2.55831
2.5583
2.55831
2.55831
2.55832
2.55833
2.55834
2.55835
2.55837
2.55838
2.5584
2.55842
2.55844
2.55845
2.55847
2.55848
2.55849
2.5585
2.55851
2.55851
2.55851
2.55851
2.55852
2.55852
2.55852
2.55853
2.55854
2.55856
2.55857
2.55859
2.55862
2.55864
2.55867
2.5587
2.55873
2.55875
2.55878
2.5588
2.55882
2.55884
2.55886
2.55887
2.55889
2.5589
2.55891
2.55893
2.55894
2.55895
2.55897
2.55898
2.55899
2.55899
2.559
2.55901
2.55902
2.55903
2.55903
2.55904
2.55904
2.55905
2.55905
2.55905
2.55905
2.55905
2.55905
2.55904
2.55904
2.55904
2.55903
2.55903
2.55903
2.55903
2.55903
2.55903
2.55902
2.55902
2.55902
2.55901
2.55901
2.559
2.55899
2.55898
2.55896
2.55895
2.55893
2.55891
2.55889
2.55886
2.55883
2.55881
2.55878
2.55875
2.55872
2.55869
2.55866
2.55863
2.5586
2.55857
2.55853
2.5585
2.55847
2.55844
2.55841
2.55838
2.55835
2.55833
2.55831
2.55829
2.55827
2.55824
2.55822
2.5582
2.55818
2.55815
2.55813
2.5581
2.55807
2.30633
2.30635
2.30634
2.30633
2.30633
2.30633
2.30634
2.30635
2.30636
2.30637
2.30638
2.3064
2.30641
2.30643
2.30644
2.30646
2.30647
2.30649
2.3065
2.30651
2.30652
2.30652
2.30653
2.30653
2.30653
2.30653
2.30653
2.30654
2.30654
2.30655
2.30656
2.30658
2.30659
2.30661
2.30664
2.30666
2.30669
2.30671
2.30674
2.30677
2.30679
2.30681
2.30683
2.30685
2.30687
2.30688
2.3069
2.30691
2.30693
2.30695
2.30696
2.30697
2.30699
2.307
2.30701
2.30702
2.30704
2.30705
2.30706
2.30707
2.30708
2.30708
2.30709
2.30709
2.3071
2.3071
2.3071
2.3071
2.3071
2.30709
2.30709
2.30709
2.30709
2.30709
2.30709
2.30709
2.30709
2.30709
2.30709
2.30709
2.30708
2.30708
2.30707
2.30707
2.30706
2.30705
2.30704
2.30702
2.307
2.30699
2.30696
2.30694
2.30692
2.30689
2.30687
2.30684
2.30681
2.30678
2.30675
2.30672
2.30669
2.30666
2.30663
2.30659
2.30657
2.30654
2.30651
2.30648
2.30646
2.30644
2.30641
2.30639
2.30637
2.30635
2.30633
2.3063
2.30628
2.30625
2.30622
2.30619
2.0869
2.0869
2.08689
2.08687
2.08687
2.08687
2.08688
2.08688
2.0869
2.08691
2.08692
2.08693
2.08695
2.08696
2.08698
2.08699
2.087
2.08702
2.08703
2.08703
2.08704
2.08705
2.08705
2.08705
2.08705
2.08705
2.08705
2.08706
2.08706
2.08707
2.08708
2.08709
2.0871
2.08712
2.08714
2.08716
2.08719
2.08721
2.08724
2.08726
2.08728
2.08731
2.08733
2.08734
2.08736
2.08738
2.0874
2.08742
2.08743
2.08745
2.08747
2.08748
2.0875
2.08751
2.08753
2.08754
2.08756
2.08757
2.08759
2.0876
2.08761
2.08762
2.08763
2.08763
2.08764
2.08764
2.08764
2.08764
2.08764
2.08764
2.08764
2.08764
2.08764
2.08764
2.08764
2.08764
2.08765
2.08765
2.08765
2.08765
2.08765
2.08764
2.08764
2.08764
2.08763
2.08762
2.08762
2.0876
2.08759
2.08758
2.08756
2.08754
2.08752
2.0875
2.08747
2.08745
2.08742
2.0874
2.08737
2.08734
2.08731
2.08728
2.08725
2.08722
2.08719
2.08716
2.08714
2.08711
2.08709
2.08706
2.08704
2.08702
2.087
2.08698
2.08696
2.08693
2.0869
2.08688
2.08685
2.08682
1.89376
1.89375
1.89373
1.89372
1.89371
1.89371
1.89371
1.89372
1.89373
1.89374
1.89375
1.89377
1.89378
1.89379
1.89381
1.89382
1.89383
1.89384
1.89385
1.89386
1.89386
1.89387
1.89387
1.89387
1.89387
1.89387
1.89387
1.89387
1.89387
1.89388
1.89389
1.8939
1.89391
1.89392
1.89394
1.89396
1.89398
1.89401
1.89403
1.89405
1.89407
1.8941
1.89412
1.89414
1.89415
1.89417
1.89419
1.89421
1.89423
1.89425
1.89427
1.89429
1.8943
1.89432
1.89434
1.89436
1.89437
1.89439
1.89441
1.89442
1.89443
1.89444
1.89445
1.89446
1.89447
1.89447
1.89447
1.89447
1.89447
1.89448
1.89448
1.89448
1.89448
1.89448
1.89448
1.89448
1.89448
1.89449
1.89449
1.89449
1.89449
1.89449
1.89449
1.89449
1.89449
1.89448
1.89448
1.89447
1.89446
1.89445
1.89443
1.89442
1.8944
1.89438
1.89436
1.89434
1.89431
1.89429
1.89426
1.89424
1.89421
1.89418
1.89415
1.89413
1.8941
1.89408
1.89405
1.89403
1.89401
1.89398
1.89396
1.89394
1.89392
1.8939
1.89388
1.89385
1.89383
1.8938
1.89377
1.89375
1.72218
1.72215
1.72213
1.72211
1.7221
1.7221
1.7221
1.72211
1.72212
1.72213
1.72214
1.72215
1.72216
1.72217
1.72218
1.7222
1.72221
1.72222
1.72222
1.72223
1.72223
1.72224
1.72224
1.72224
1.72224
1.72224
1.72224
1.72224
1.72224
1.72224
1.72225
1.72226
1.72227
1.72228
1.7223
1.72231
1.72233
1.72235
1.72237
1.7224
1.72242
1.72244
1.72246
1.72248
1.7225
1.72251
1.72253
1.72255
1.72257
1.7226
1.72262
1.72264
1.72265
1.72267
1.7227
1.72272
1.72273
1.72275
1.72277
1.72278
1.7228
1.72281
1.72282
1.72283
1.72283
1.72284
1.72284
1.72284
1.72284
1.72284
1.72285
1.72285
1.72285
1.72285
1.72285
1.72286
1.72286
1.72286
1.72287
1.72287
1.72287
1.72287
1.72288
1.72288
1.72288
1.72287
1.72287
1.72287
1.72286
1.72285
1.72284
1.72283
1.72281
1.7228
1.72278
1.72276
1.72274
1.72272
1.7227
1.72267
1.72265
1.72262
1.7226
1.72257
1.72255
1.72253
1.72251
1.72248
1.72246
1.72244
1.72243
1.72241
1.72239
1.72237
1.72235
1.72232
1.7223
1.72227
1.72224
1.72223
1.56847
1.56843
1.56841
1.56839
1.56838
1.56838
1.56838
1.56838
1.56839
1.56839
1.5684
1.56841
1.56842
1.56844
1.56845
1.56846
1.56847
1.56847
1.56848
1.56849
1.56849
1.56849
1.56849
1.56849
1.56849
1.56849
1.56849
1.56849
1.56849
1.56849
1.5685
1.5685
1.56851
1.56852
1.56854
1.56855
1.56857
1.56859
1.56861
1.56863
1.56864
1.56866
1.56868
1.5687
1.56872
1.56874
1.56876
1.56878
1.5688
1.56882
1.56884
1.56886
1.56889
1.56891
1.56893
1.56895
1.56897
1.56899
1.56901
1.56902
1.56904
1.56905
1.56906
1.56906
1.56907
1.56907
1.56908
1.56908
1.56908
1.56908
1.56908
1.56909
1.56909
1.56909
1.56909
1.5691
1.5691
1.56911
1.56911
1.56911
1.56912
1.56912
1.56913
1.56913
1.56913
1.56913
1.56913
1.56913
1.56913
1.56912
1.56911
1.5691
1.56909
1.56908
1.56907
1.56905
1.56903
1.56901
1.56899
1.56897
1.56895
1.56893
1.56891
1.56889
1.56887
1.56885
1.56883
1.56881
1.5688
1.56878
1.56876
1.56875
1.56873
1.56871
1.56869
1.56867
1.56864
1.56862
1.56859
1.56858
1.42979
1.42974
1.42971
1.42969
1.42968
1.42968
1.42967
1.42967
1.42968
1.42968
1.42969
1.4297
1.42971
1.42972
1.42973
1.42974
1.42975
1.42975
1.42976
1.42976
1.42977
1.42977
1.42977
1.42977
1.42977
1.42977
1.42976
1.42976
1.42976
1.42977
1.42977
1.42977
1.42978
1.42979
1.4298
1.42981
1.42983
1.42984
1.42986
1.42988
1.4299
1.42991
1.42993
1.42995
1.42997
1.42999
1.43001
1.43003
1.43005
1.43007
1.43009
1.43011
1.43014
1.43016
1.43018
1.4302
1.43022
1.43024
1.43026
1.43027
1.43028
1.43029
1.4303
1.43031
1.43032
1.43032
1.43032
1.43032
1.43033
1.43033
1.43033
1.43033
1.43033
1.43034
1.43034
1.43034
1.43035
1.43035
1.43036
1.43036
1.43037
1.43038
1.43038
1.43038
1.43039
1.43039
1.43039
1.4304
1.4304
1.43039
1.43039
1.43038
1.43038
1.43037
1.43035
1.43034
1.43033
1.43031
1.4303
1.43028
1.43027
1.43025
1.43023
1.43022
1.4302
1.43019
1.43017
1.43016
1.43014
1.43013
1.43011
1.4301
1.43008
1.43007
1.43005
1.43003
1.43001
1.42998
1.42995
1.42995
1.30388
1.30381
1.30378
1.30376
1.30375
1.30375
1.30374
1.30374
1.30374
1.30375
1.30375
1.30376
1.30377
1.30378
1.30379
1.30379
1.3038
1.30381
1.30381
1.30382
1.30382
1.30382
1.30382
1.30382
1.30382
1.30382
1.30381
1.30381
1.30381
1.30381
1.30381
1.30382
1.30382
1.30383
1.30384
1.30385
1.30386
1.30388
1.30389
1.30391
1.30392
1.30394
1.30396
1.30397
1.30399
1.30401
1.30403
1.30405
1.30407
1.30409
1.30411
1.30414
1.30416
1.30418
1.3042
1.30422
1.30424
1.30426
1.30427
1.30428
1.30429
1.3043
1.30431
1.30431
1.30432
1.30432
1.30432
1.30433
1.30433
1.30433
1.30433
1.30433
1.30433
1.30434
1.30434
1.30435
1.30435
1.30436
1.30436
1.30437
1.30438
1.30438
1.30439
1.3044
1.3044
1.30441
1.30441
1.30442
1.30442
1.30442
1.30442
1.30442
1.30441
1.3044
1.3044
1.30439
1.30438
1.30437
1.30436
1.30435
1.30434
1.30433
1.30432
1.30431
1.30429
1.30428
1.30427
1.30426
1.30425
1.30424
1.30423
1.30422
1.3042
1.30419
1.30417
1.30415
1.30413
1.30411
1.30408
1.30409
1.18895
1.18888
1.18885
1.18883
1.18882
1.18881
1.18881
1.1888
1.18881
1.18881
1.18881
1.18882
1.18882
1.18883
1.18884
1.18884
1.18885
1.18886
1.18886
1.18886
1.18887
1.18887
1.18887
1.18887
1.18886
1.18886
1.18886
1.18886
1.18886
1.18886
1.18886
1.18886
1.18887
1.18887
1.18888
1.18889
1.1889
1.18891
1.18893
1.18894
1.18895
1.18897
1.18898
1.189
1.18901
1.18903
1.18905
1.18907
1.18909
1.18911
1.18913
1.18915
1.18917
1.18919
1.18921
1.18923
1.18924
1.18926
1.18927
1.18927
1.18928
1.18929
1.18929
1.1893
1.1893
1.1893
1.1893
1.1893
1.18931
1.18931
1.18931
1.18931
1.18931
1.18932
1.18932
1.18932
1.18933
1.18934
1.18934
1.18935
1.18936
1.18937
1.18938
1.18938
1.18939
1.1894
1.18941
1.18941
1.18942
1.18942
1.18942
1.18942
1.18942
1.18942
1.18942
1.18942
1.18941
1.18941
1.18941
1.1894
1.1894
1.18939
1.18938
1.18938
1.18937
1.18937
1.18936
1.18935
1.18934
1.18934
1.18933
1.18932
1.18931
1.1893
1.18928
1.18927
1.18925
1.18923
1.18919
1.18922
1.08361
1.08353
1.08349
1.08348
1.08347
1.08346
1.08345
1.08345
1.08345
1.08345
1.08346
1.08346
1.08347
1.08347
1.08348
1.08348
1.08349
1.08349
1.0835
1.0835
1.0835
1.0835
1.0835
1.0835
1.0835
1.0835
1.0835
1.08349
1.08349
1.08349
1.08349
1.0835
1.0835
1.0835
1.08351
1.08352
1.08353
1.08354
1.08355
1.08356
1.08357
1.08359
1.0836
1.08361
1.08363
1.08364
1.08366
1.08368
1.0837
1.08372
1.08374
1.08376
1.08377
1.08379
1.0838
1.08381
1.08382
1.08383
1.08383
1.08384
1.08384
1.08384
1.08385
1.08385
1.08385
1.08385
1.08385
1.08385
1.08385
1.08385
1.08385
1.08386
1.08386
1.08386
1.08387
1.08387
1.08388
1.08389
1.08389
1.0839
1.08391
1.08392
1.08393
1.08394
1.08395
1.08396
1.08397
1.08398
1.08398
1.08399
1.084
1.084
1.084
1.08401
1.08401
1.08402
1.08402
1.08402
1.08403
1.08403
1.08403
1.08403
1.08403
1.08403
1.08403
1.08403
1.08402
1.08402
1.08402
1.08401
1.08401
1.084
1.08399
1.08398
1.08397
1.08396
1.08394
1.08392
1.08389
1.08392
0.986737
0.986642
0.98661
0.986593
0.986583
0.986576
0.986571
0.986569
0.986568
0.986569
0.986572
0.986575
0.98658
0.986585
0.98659
0.986595
0.9866
0.986604
0.986608
0.986611
0.986612
0.986613
0.986613
0.986611
0.98661
0.986608
0.986605
0.986604
0.986602
0.986602
0.986602
0.986604
0.986607
0.986611
0.986617
0.986623
0.986631
0.98664
0.986649
0.986659
0.98667
0.986681
0.986693
0.986705
0.986718
0.986732
0.986747
0.986763
0.98678
0.986799
0.986815
0.986827
0.986835
0.986839
0.986842
0.986843
0.986844
0.986845
0.986846
0.986847
0.986848
0.986848
0.986849
0.986849
0.986848
0.986848
0.986848
0.986848
0.986848
0.986848
0.98685
0.986851
0.986854
0.986858
0.986863
0.986868
0.986875
0.986882
0.986891
0.9869
0.98691
0.98692
0.986931
0.986942
0.986953
0.986965
0.986977
0.986988
0.986999
0.987008
0.987018
0.987028
0.987039
0.987051
0.987062
0.987074
0.987086
0.987097
0.987107
0.987116
0.987124
0.987131
0.987136
0.987141
0.987145
0.987148
0.98715
0.987152
0.987152
0.987151
0.987148
0.987144
0.987138
0.98713
0.98712
0.987108
0.987093
0.987079
0.987045
0.987089
0.897439
0.897337
0.897304
0.897289
0.897279
0.897273
0.897269
0.897266
0.897266
0.897267
0.897269
0.897272
0.897276
0.897281
0.897285
0.89729
0.897295
0.897299
0.897302
0.897305
0.897306
0.897307
0.897307
0.897306
0.897304
0.897303
0.897301
0.897299
0.897298
0.897297
0.897298
0.897299
0.897301
0.897305
0.89731
0.897315
0.897322
0.897329
0.897337
0.897346
0.897355
0.897365
0.897375
0.897385
0.897397
0.897409
0.897423
0.897437
0.897452
0.897465
0.897471
0.897469
0.897461
0.897452
0.897442
0.897434
0.897428
0.897423
0.897419
0.897416
0.897414
0.897412
0.89741
0.897408
0.897407
0.897405
0.897404
0.897404
0.897404
0.897404
0.897405
0.897407
0.89741
0.897414
0.897419
0.897425
0.897432
0.89744
0.897449
0.897459
0.89747
0.897482
0.897494
0.897506
0.897519
0.897533
0.897546
0.89756
0.897574
0.897589
0.897606
0.897625
0.897645
0.897666
0.897688
0.897709
0.89773
0.897749
0.897767
0.897783
0.897797
0.897809
0.89782
0.89783
0.89784
0.897847
0.897854
0.897859
0.897862
0.897863
0.897862
0.89786
0.897856
0.89785
0.897842
0.897832
0.897819
0.897808
0.897774
0.897828
0.815018
0.81491
0.814877
0.814863
0.814854
0.814849
0.814846
0.814844
0.814844
0.814846
0.814848
0.814851
0.814855
0.81486
0.814864
0.814869
0.814873
0.814877
0.81488
0.814883
0.814885
0.814886
0.814886
0.814885
0.814884
0.814883
0.814881
0.81488
0.814879
0.814879
0.814879
0.81488
0.814882
0.814885
0.814889
0.814894
0.814899
0.814906
0.814913
0.81492
0.814928
0.814936
0.814945
0.814954
0.814964
0.814974
0.814987
0.814998
0.815008
0.815009
0.814994
0.814968
0.814939
0.814912
0.814891
0.814874
0.814861
0.814851
0.814844
0.814838
0.814833
0.814829
0.814826
0.814823
0.814821
0.814819
0.814817
0.814816
0.814816
0.814816
0.814818
0.81482
0.814823
0.814827
0.814833
0.814839
0.814847
0.814856
0.814866
0.814877
0.814888
0.814901
0.814914
0.814928
0.814942
0.814958
0.814972
0.814989
0.815009
0.815034
0.815062
0.815093
0.815127
0.815161
0.815194
0.815225
0.815254
0.815282
0.815306
0.815329
0.815349
0.815367
0.815383
0.815398
0.815412
0.815424
0.815433
0.81544
0.815445
0.815447
0.815448
0.815447
0.815444
0.81544
0.815434
0.815427
0.815416
0.815408
0.815376
0.815438
0.73892
0.738807
0.738774
0.73876
0.738753
0.738749
0.738748
0.738748
0.738749
0.738751
0.738754
0.738758
0.738762
0.738767
0.738771
0.738776
0.738781
0.738785
0.738788
0.738791
0.738793
0.738795
0.738795
0.738795
0.738795
0.738794
0.738793
0.738792
0.738791
0.738791
0.738792
0.738793
0.738795
0.738798
0.738801
0.738805
0.73881
0.738815
0.738821
0.738827
0.738834
0.738841
0.738848
0.738856
0.738865
0.738873
0.738885
0.738889
0.738889
0.738862
0.738808
0.738747
0.738694
0.738653
0.738623
0.7386
0.738584
0.738571
0.738561
0.738554
0.738548
0.738543
0.738539
0.738536
0.738533
0.738531
0.73853
0.738529
0.738529
0.738529
0.738531
0.738534
0.738537
0.738542
0.738548
0.738555
0.738564
0.738573
0.738584
0.738595
0.738608
0.738621
0.738636
0.738651
0.738667
0.738684
0.738698
0.738722
0.738755
0.738795
0.738841
0.73889
0.73894
0.738988
0.739032
0.739074
0.739111
0.739145
0.739176
0.739204
0.73923
0.739253
0.739273
0.739292
0.73931
0.739324
0.739335
0.739342
0.739346
0.739348
0.73935
0.73935
0.739349
0.739347
0.739343
0.739338
0.73933
0.739325
0.739294
0.739365
0.668705
0.668589
0.668555
0.668543
0.668538
0.668537
0.668537
0.668539
0.668541
0.668545
0.668549
0.668553
0.668558
0.668563
0.668569
0.668574
0.668579
0.668583
0.668587
0.66859
0.668593
0.668595
0.668596
0.668596
0.668597
0.668596
0.668596
0.668596
0.668596
0.668596
0.668597
0.668598
0.6686
0.668603
0.668606
0.668609
0.668614
0.668618
0.668623
0.668628
0.668634
0.66864
0.668646
0.668652
0.66866
0.668666
0.668678
0.668664
0.668645
0.668555
0.668438
0.66834
0.66827
0.668224
0.668192
0.668169
0.668152
0.668139
0.66813
0.668123
0.668117
0.668112
0.668109
0.668106
0.668104
0.668102
0.668101
0.668101
0.668101
0.668102
0.668104
0.668107
0.668112
0.668117
0.668124
0.668131
0.668141
0.668151
0.668162
0.668175
0.668188
0.668202
0.668218
0.668234
0.668251
0.66827
0.668282
0.668326
0.668382
0.668447
0.668519
0.66859
0.668658
0.668719
0.668774
0.668823
0.668867
0.668906
0.668941
0.668973
0.669002
0.669028
0.669051
0.669074
0.669095
0.669109
0.669117
0.669122
0.669124
0.669126
0.669128
0.66913
0.669131
0.669131
0.66913
0.669127
0.669122
0.66912
0.669091
0.669169
0.604023
0.603903
0.60387
0.60386
0.603859
0.60386
0.603863
0.603866
0.603871
0.603876
0.603881
0.603886
0.603892
0.603898
0.603904
0.60391
0.603915
0.60392
0.603925
0.603929
0.603932
0.603934
0.603936
0.603937
0.603938
0.603939
0.603939
0.60394
0.60394
0.603941
0.603942
0.603944
0.603946
0.603948
0.603951
0.603955