/*--------------------------------*- C++ -*----------------------------------*\
  =========                 |
  \\      /  F ield         | OpenFOAM: The Open Source CFD Toolbox
   \\    /   O peration     | Website:  https://openfoam.org
    \\  /    A nd           | Version:  7
     \\/     M anipulation  |
\*---------------------------------------------------------------------------*/
FoamFile
{
    version     2.0;
    format      ascii;
    class       volScalarField;
    location    "4000";
    object      omega;
}
// * * * * * * * * * * * * * * * * * * * * * * * * * * * * * * * * * * * * * //

dimensions      [0 0 -1 0 0 0 0];

internalField   nonuniform List<scalar> 
3974
(
0.676161
0.67617
0.676175
0.67618
0.676185
0.676191
0.676196
0.6762
0.676205
0.676208
0.676212
0.676215
0.676219
0.676222
0.676224
0.676227
0.67623
0.676232
0.676235
0.676237
0.676239
0.676241
0.676243
0.676245
0.676247
0.676248
0.67625
0.676251
0.676253
0.676254
0.676255
0.676256
0.676258
0.676259
0.67626
0.676261
0.676261
0.676262
0.640194
0.640196
0.640167
0.640159
0.640157
0.640159
0.640162
0.640165
0.640168
0.640171
0.640175
0.640178
0.640181
0.640183
0.640186
0.640189
0.640191
0.640194
0.640196
0.640198
0.640201
0.640203
0.640205
0.640207
0.640209
0.640211
0.640212
0.640214
0.640216
0.640217
0.640218
0.64022
0.640221
0.640222
0.640224
0.640225
0.640226
0.640227
0.640228
0.640225
0.640282
0.640295
0.606578
0.606575
0.606547
0.606537
0.606519
0.606507
0.606501
0.606499
0.606499
0.6065
0.606502
0.606504
0.606506
0.606509
0.606511
0.606513
0.606515
0.606518
0.60652
0.606522
0.606524
0.606526
0.606529
0.606531
0.606533
0.606535
0.606536
0.606538
0.60654
0.606542
0.606543
0.606545
0.606546
0.606548
0.606549
0.60655
0.606552
0.606553
0.606554
0.606555
0.606556
0.606554
0.606581
0.606595
0.606648
0.606657
0.606653
0.606646
0.60664
0.606634
0.606629
0.606624
0.60662
0.606616
0.606612
0.606609
0.606605
0.606603
0.606596
0.575035
0.575034
0.575017
0.575004
0.57499
0.574979
0.574971
0.574967
0.574965
0.574964
0.574965
0.574966
0.574967
0.574969
0.57497
0.574972
0.574974
0.574976
0.574978
0.57498
0.574982
0.574984
0.574986
0.574987
0.574989
0.574991
0.574993
0.574995
0.574997
0.574998
0.575
0.575001
0.575003
0.575004
0.575006
0.575007
0.575009
0.57501
0.575011
0.575012
0.575014
0.575012
0.575025
0.575036
0.575066
0.575083
0.575087
0.575086
0.575084
0.57508
0.575077
0.575074
0.575071
0.575068
0.575065
0.575062
0.575059
0.575058
0.575051
0.545415
0.545415
0.545404
0.545393
0.545382
0.545372
0.545364
0.545359
0.545355
0.545354
0.545353
0.545353
0.545354
0.545355
0.545356
0.545357
0.545359
0.54536
0.545362
0.545364
0.545365
0.545367
0.545369
0.545371
0.545373
0.545375
0.545376
0.545378
0.54538
0.545382
0.545383
0.545385
0.545387
0.545388
0.54539
0.545391
0.545392
0.545394
0.545395
0.545396
0.545398
0.545397
0.545404
0.545411
0.545428
0.545443
0.545452
0.545455
0.545455
0.545454
0.545453
0.545451
0.545449
0.545447
0.545445
0.545443
0.545441
0.54544
0.545434
0.517543
0.517544
0.517537
0.517528
0.51752
0.517511
0.517504
0.517498
0.517494
0.517492
0.517491
0.517491
0.517491
0.517491
0.517492
0.517492
0.517494
0.517495
0.517496
0.517498
0.517499
0.517501
0.517503
0.517505
0.517507
0.517508
0.51751
0.517512
0.517514
0.517515
0.517517
0.517519
0.51752
0.517522
0.517524
0.517525
0.517527
0.517528
0.51753
0.517531
0.517532
0.517533
0.517536
0.517541
0.517551
0.517562
0.517571
0.517576
0.517578
0.517579
0.517579
0.517579
0.517578
0.517577
0.517576
0.517575
0.517574
0.517573
0.517569
0.491266
0.491267
0.491263
0.491256
0.491249
0.491243
0.491236
0.491231
0.491228
0.491225
0.491224
0.491223
0.491223
0.491223
0.491223
0.491223
0.491224
0.491225
0.491226
0.491228
0.491229
0.491231
0.491233
0.491235
0.491236
0.491238
0.49124
0.491242
0.491244
0.491245
0.491247
0.491249
0.491251
0.491252
0.491254
0.491255
0.491257
0.491259
0.49126
0.491262
0.491263
0.491264
0.491266
0.491269
0.491275
0.491283
0.491291
0.491296
0.4913
0.491302
0.491303
0.491304
0.491304
0.491304
0.491304
0.491303
0.491303
0.491302
0.4913
0.466451
0.466451
0.466448
0.466443
0.466438
0.466432
0.466427
0.466423
0.46642
0.466417
0.466416
0.466415
0.466414
0.466414
0.466414
0.466415
0.466415
0.466416
0.466417
0.466419
0.46642
0.466422
0.466423
0.466425
0.466427
0.466429
0.466431
0.466432
0.466434
0.466436
0.466438
0.46644
0.466441
0.466443
0.466445
0.466447
0.466448
0.46645
0.466452
0.466453
0.466455
0.466456
0.466458
0.46646
0.466464
0.466469
0.466475
0.46648
0.466484
0.466487
0.466489
0.466491
0.466492
0.466492
0.466493
0.466493
0.466493
0.466493
0.466492
0.442978
0.442976
0.442973
0.44297
0.442966
0.442962
0.442958
0.442955
0.442952
0.44295
0.442949
0.442948
0.442947
0.442947
0.442947
0.442947
0.442948
0.442949
0.44295
0.442951
0.442952
0.442954
0.442956
0.442957
0.442959
0.442961
0.442963
0.442965
0.442967
0.442968
0.44297
0.442972
0.442974
0.442976
0.442978
0.44298
0.442981
0.442983
0.442985
0.442987
0.442988
0.44299
0.442992
0.442994
0.442996
0.443
0.443005
0.443009
0.443013
0.443016
0.443019
0.443021
0.443022
0.443023
0.443024
0.443025
0.443026
0.443026
0.443027
0.420742
0.420739
0.420736
0.420734
0.420731
0.420728
0.420725
0.420722
0.42072
0.420718
0.420717
0.420717
0.420716
0.420716
0.420716
0.420716
0.420717
0.420718
0.420719
0.42072
0.420721
0.420723
0.420725
0.420726
0.420728
0.42073
0.420732
0.420734
0.420736
0.420738
0.42074
0.420742
0.420744
0.420746
0.420748
0.42075
0.420751
0.420753
0.420755
0.420757
0.420759
0.420761
0.420762
0.420764
0.420767
0.420769
0.420773
0.420777
0.42078
0.420783
0.420786
0.420788
0.42079
0.420792
0.420793
0.420795
0.420796
0.420796
0.420799
0.399651
0.399646
0.399643
0.399641
0.399639
0.399637
0.399635
0.399633
0.399632
0.39963
0.39963
0.399629
0.399629
0.399629
0.399629
0.399629
0.39963
0.399631
0.399632
0.399633
0.399635
0.399636
0.399638
0.39964
0.399642
0.399644
0.399646
0.399648
0.39965
0.399652
0.399654
0.399656
0.399658
0.39966
0.399662
0.399664
0.399666
0.399668
0.39967
0.399672
0.399674
0.399676
0.399678
0.39968
0.399682
0.399684
0.399687
0.39969
0.399693
0.399697
0.399699
0.399702
0.399704
0.399706
0.399708
0.399709
0.399711
0.399711
0.399715
0.379622
0.379616
0.379613
0.379612
0.37961
0.379608
0.379607
0.379606
0.379605
0.379604
0.379604
0.379604
0.379604
0.379604
0.379604
0.379604
0.379605
0.379606
0.379607
0.379609
0.37961
0.379612
0.379614
0.379616
0.379618
0.37962
0.379622
0.379624
0.379626
0.379628
0.37963
0.379632
0.379634
0.379637
0.379639
0.379641
0.379643
0.379645
0.379647
0.379649
0.379651
0.379654
0.379656
0.379658
0.37966
0.379662
0.379665
0.379667
0.37967
0.379673
0.379676
0.379678
0.379681
0.379683
0.379685
0.379687
0.379689
0.379689
0.379695
0.360584
0.360576
0.360574
0.360572
0.360571
0.36057
0.360569
0.360568
0.360568
0.360567
0.360567
0.360567
0.360568
0.360568
0.360569
0.360569
0.36057
0.360571
0.360572
0.360574
0.360575
0.360577
0.360579
0.360581
0.360583
0.360585
0.360587
0.36059
0.360592
0.360594
0.360596
0.360599
0.360601
0.360603
0.360605
0.360608
0.36061
0.360612
0.360614
0.360617
0.360619
0.360621
0.360623
0.360625
0.360628
0.36063
0.360632
0.360635
0.360638
0.36064
0.360643
0.360646
0.360648
0.36065
0.360653
0.360655
0.360657
0.360658
0.360664
0.342471
0.342462
0.342459
0.342458
0.342457
0.342456
0.342456
0.342456
0.342455
0.342456
0.342456
0.342456
0.342457
0.342457
0.342458
0.342459
0.34246
0.342461
0.342463
0.342464
0.342466
0.342468
0.34247
0.342472
0.342474
0.342476
0.342478
0.342481
0.342483
0.342485
0.342488
0.34249
0.342493
0.342495
0.342497
0.3425
0.342502
0.342504
0.342507
0.342509
0.342512
0.342514
0.342516
0.342519
0.342521
0.342523
0.342526
0.342528
0.342531
0.342533
0.342536
0.342539
0.342541
0.342544
0.342546
0.342548
0.342551
0.342551
0.342559
0.325227
0.325216
0.325213
0.325212
0.325211
0.325211
0.325211
0.325211
0.325211
0.325212
0.325212
0.325213
0.325214
0.325214
0.325215
0.325216
0.325218
0.325219
0.325221
0.325222
0.325224
0.325226
0.325228
0.32523
0.325233
0.325235
0.325237
0.32524
0.325242
0.325245
0.325247
0.32525
0.325252
0.325255
0.325257
0.32526
0.325262
0.325265
0.325267
0.32527
0.325272
0.325274
0.325277
0.325279
0.325282
0.325284
0.325287
0.325289
0.325292
0.325294
0.325297
0.3253
0.325302
0.325305
0.325307
0.32531
0.325312
0.325313
0.325322
0.308799
0.308787
0.308784
0.308783
0.308782
0.308782
0.308782
0.308783
0.308783
0.308784
0.308785
0.308786
0.308787
0.308788
0.308789
0.30879
0.308792
0.308793
0.308795
0.308797
0.308799
0.308801
0.308803
0.308805
0.308808
0.30881
0.308813
0.308815
0.308818
0.30882
0.308823
0.308825
0.308828
0.308831
0.308833
0.308836
0.308838
0.308841
0.308844
0.308846
0.308849
0.308851
0.308854
0.308857
0.308859
0.308862
0.308864
0.308867
0.30887
0.308872
0.308875
0.308877
0.30888
0.308883
0.308885
0.308888
0.308891
0.308891
0.308901
0.293142
0.293129
0.293126
0.293125
0.293124
0.293124
0.293125
0.293125
0.293126
0.293127
0.293128
0.293129
0.293131
0.293132
0.293133
0.293135
0.293136
0.293138
0.29314
0.293142
0.293144
0.293146
0.293148
0.293151
0.293153
0.293156
0.293158
0.293161
0.293164
0.293166
0.293169
0.293172
0.293174
0.293177
0.29318
0.293183
0.293185
0.293188
0.293191
0.293194
0.293196
0.293199
0.293202
0.293204
0.293207
0.29321
0.293212
0.293215
0.293218
0.293221
0.293223
0.293226
0.293229
0.293231
0.293234
0.293237
0.29324
0.29324
0.293251
0.278214
0.2782
0.278197
0.278196
0.278196
0.278196
0.278197
0.278198
0.278199
0.2782
0.278201
0.278202
0.278204
0.278205
0.278207
0.278208
0.27821
0.278212
0.278214
0.278216
0.278218
0.278221
0.278223
0.278226
0.278228
0.278231
0.278234
0.278236
0.278239
0.278242
0.278245
0.278247
0.27825
0.278253
0.278256
0.278259
0.278262
0.278265
0.278267
0.27827
0.278273
0.278276
0.278279
0.278281
0.278284
0.278287
0.27829
0.278293
0.278295
0.278298
0.278301
0.278304
0.278307
0.278309
0.278312
0.278315
0.278318
0.278319
0.27833
0.26398
0.263965
0.263961
0.26396
0.26396
0.263961
0.263961
0.263962
0.263963
0.263965
0.263966
0.263968
0.263969
0.263971
0.263973
0.263975
0.263976
0.263978
0.263981
0.263983
0.263985
0.263988
0.26399
0.263993
0.263996
0.263998
0.264001
0.264004
0.264007
0.26401
0.264013
0.264016
0.264018
0.264021
0.264024
0.264027
0.26403
0.264033
0.264036
0.264039
0.264042
0.264045
0.264048
0.264051
0.264054
0.264057
0.264059
0.264062
0.264065
0.264068
0.264071
0.264074
0.264077
0.26408
0.264082
0.264085
0.264088
0.264089
0.264101
0.250404
0.250388
0.250384
0.250383
0.250384
0.250384
0.250385
0.250386
0.250388
0.250389
0.250391
0.250392
0.250394
0.250396
0.250398
0.2504
0.250402
0.250404
0.250406
0.250408
0.250411
0.250414
0.250416
0.250419
0.250422
0.250425
0.250428
0.25043
0.250433
0.250436
0.250439
0.250442
0.250445
0.250448
0.250451
0.250454
0.250457
0.250461
0.250464
0.250467
0.25047
0.250473
0.250476
0.250479
0.250482
0.250485
0.250488
0.250491
0.250494
0.250497
0.2505
0.250503
0.250506
0.250508
0.250511
0.250514
0.250517
0.250519
0.250531
0.237457
0.23744
0.237436
0.237435
0.237436
0.237437
0.237438
0.237439
0.23744
0.237442
0.237444
0.237445
0.237447
0.237449
0.237451
0.237453
0.237455
0.237458
0.23746
0.237463
0.237465
0.237468
0.237471
0.237474
0.237476
0.237479
0.237482
0.237485
0.237488
0.237491
0.237494
0.237498
0.237501
0.237504
0.237507
0.23751
0.237513
0.237516
0.237519
0.237523
0.237526
0.237529
0.237532
0.237535
0.237538
0.237541
0.237544
0.237547
0.23755
0.237554
0.237557
0.23756
0.237563
0.237566
0.237569
0.237572
0.237575
0.237576
0.237589
0.22511
0.225093
0.225089
0.225089
0.225089
0.22509
0.225091
0.225092
0.225094
0.225096
0.225097
0.225099
0.225101
0.225103
0.225106
0.225108
0.22511
0.225112
0.225115
0.225118
0.22512
0.225123
0.225126
0.225129
0.225132
0.225135
0.225138
0.225141
0.225144
0.225147
0.22515
0.225154
0.225157
0.22516
0.225163
0.225166
0.22517
0.225173
0.225176
0.225179
0.225182
0.225186
0.225189
0.225192
0.225195
0.225198
0.225201
0.225205
0.225208
0.225211
0.225214
0.225217
0.22522
0.225223
0.225226
0.225229
0.225233
0.225234
0.225247
0.21334
0.213321
0.213318
0.213317
0.213318
0.213319
0.21332
0.213322
0.213323
0.213325
0.213327
0.213329
0.213331
0.213333
0.213335
0.213338
0.21334
0.213343
0.213345
0.213348
0.213351
0.213354
0.213357
0.21336
0.213363
0.213366
0.213369
0.213372
0.213375
0.213379
0.213382
0.213385
0.213388
0.213391
0.213395
0.213398
0.213401
0.213404
0.213408
0.213411
0.213414
0.213418
0.213421
0.213424
0.213427
0.213431
0.213434
0.213437
0.21344
0.213444
0.213447
0.21345
0.213453
0.213456
0.213459
0.213462
0.213466
0.213467
0.213481
0.202121
0.202103
0.202099
0.202098
0.202099
0.2021
0.202102
0.202103
0.202105
0.202107
0.202109
0.202111
0.202113
0.202115
0.202118
0.20212
0.202123
0.202125
0.202128
0.202131
0.202134
0.202137
0.20214
0.202143
0.202146
0.202149
0.202152
0.202155
0.202159
0.202162
0.202165
0.202168
0.202172
0.202175
0.202178
0.202182
0.202185
0.202188
0.202192
0.202195
0.202198
0.202202
0.202205
0.202208
0.202212
0.202215
0.202218
0.202221
0.202225
0.202228
0.202231
0.202234
0.202238
0.202241
0.202244
0.202247
0.202251
0.202252
0.202266
0.191434
0.191414
0.19141
0.19141
0.191411
0.191412
0.191414
0.191415
0.191417
0.191419
0.191421
0.191424
0.191426
0.191428
0.19143
0.191433
0.191435
0.191438
0.191441
0.191444
0.191447
0.19145
0.191453
0.191456
0.191459
0.191462
0.191466
0.191469
0.191472
0.191475
0.191479
0.191482
0.191485
0.191489
0.191492
0.191496
0.191499
0.191502
0.191506
0.191509
0.191512
0.191516
0.191519
0.191523
0.191526
0.191529
0.191533
0.191536
0.191539
0.191543
0.191546
0.191549
0.191552
0.191556
0.191559
0.191562
0.191566
0.191567
0.191581
0.181256
0.181236
0.181233
0.181232
0.181233
0.181235
0.181236
0.181238
0.18124
0.181242
0.181244
0.181246
0.181249
0.181251
0.181254
0.181256
0.181259
0.181261
0.181264
0.181267
0.18127
0.181273
0.181277
0.18128
0.181283
0.181286
0.181289
0.181293
0.181296
0.181299
0.181303
0.181306
0.181309
0.181313
0.181316
0.18132
0.181323
0.181326
0.18133
0.181333
0.181337
0.18134
0.181344
0.181347
0.18135
0.181354
0.181357
0.18136
0.181364
0.181367
0.181371
0.181374
0.181377
0.18138
0.181384
0.181387
0.181391
0.181392
0.181406
0.17157
0.17155
0.171546
0.171546
0.171547
0.171549
0.17155
0.171552
0.171554
0.171556
0.171558
0.171561
0.171563
0.171566
0.171568
0.171571
0.171573
0.171576
0.171579
0.171582
0.171585
0.171588
0.171591
0.171595
0.171598
0.171601
0.171604
0.171608
0.171611
0.171615
0.171618
0.171621
0.171625
0.171628
0.171631
0.171635
0.171638
0.171642
0.171645
0.171649
0.171652
0.171655
0.171659
0.171662
0.171666
0.171669
0.171673
0.171676
0.171679
0.171683
0.171686
0.171689
0.171693
0.171696
0.171699
0.171703
0.171706
0.171708
0.171721
0.162358
0.162337
0.162333
0.162333
0.162335
0.162336
0.162338
0.16234
0.162342
0.162344
0.162346
0.162349
0.162351
0.162353
0.162356
0.162359
0.162361
0.162364
0.162367
0.16237
0.162373
0.162376
0.16238
0.162383
0.162386
0.162389
0.162393
0.162396
0.1624
0.162403
0.162406
0.16241
0.162413
0.162417
0.16242
0.162423
0.162427
0.16243
0.162434
0.162437
0.162441
0.162444
0.162447
0.162451
0.162454
0.162458
0.162461
0.162465
0.162468
0.162471
0.162475
0.162478
0.162481
0.162485
0.162488
0.162491
0.162495
0.162497
0.16251
0.153601
0.153581
0.153577
0.153577
0.153578
0.15358
0.153582
0.153584
0.153586
0.153588
0.15359
0.153593
0.153595
0.153598
0.1536
0.153603
0.153606
0.153609
0.153612
0.153615
0.153618
0.153621
0.153624
0.153627
0.153631
0.153634
0.153637
0.153641
0.153644
0.153647
0.153651
0.153654
0.153658
0.153661
0.153664
0.153668
0.153671
0.153675
0.153678
0.153682
0.153685
0.153689
0.153692
0.153695
0.153699
0.153702
0.153706
0.153709
0.153712
0.153716
0.153719
0.153723
0.153726
0.153729
0.153733
0.153736
0.15374
0.153741
0.153754
0.145285
0.145264
0.14526
0.145261
0.145262
0.145264
0.145265
0.145268
0.14527
0.145272
0.145274
0.145277
0.145279
0.145282
0.145284
0.145287
0.14529
0.145293
0.145296
0.145299
0.145302
0.145305
0.145308
0.145312
0.145315
0.145318
0.145322
0.145325
0.145328
0.145332
0.145335
0.145338
0.145342
0.145345
0.145349
0.145352
0.145356
0.145359
0.145362
0.145366
0.145369
0.145373
0.145376
0.14538
0.145383
0.145386
0.14539
0.145393
0.145397
0.1454
0.145403
0.145407
0.14541
0.145413
0.145417
0.14542
0.145423
0.145425
0.145438
0.137392
0.137372
0.137368
0.137368
0.13737
0.137371
0.137373
0.137375
0.137378
0.13738
0.137382
0.137385
0.137387
0.13739
0.137393
0.137395
0.137398
0.137401
0.137404
0.137407
0.13741
0.137413
0.137417
0.13742
0.137423
0.137426
0.13743
0.137433
0.137437
0.13744
0.137443
0.137447
0.13745
0.137453
0.137457
0.13746
0.137464
0.137467
0.13747
0.137474
0.137477
0.137481
0.137484
0.137487
0.137491
0.137494
0.137498
0.137501
0.137504
0.137508
0.137511
0.137514
0.137518
0.137521
0.137524
0.137528
0.137531
0.137533
0.137545
0.129909
0.129888
0.129885
0.129885
0.129886
0.129888
0.12989
0.129892
0.129894
0.129897
0.129899
0.129902
0.129904
0.129907
0.129909
0.129912
0.129915
0.129918
0.129921
0.129924
0.129927
0.12993
0.129934
0.129937
0.12994
0.129943
0.129947
0.12995
0.129953
0.129957
0.12996
0.129963
0.129967
0.12997
0.129973
0.129977
0.12998
0.129983
0.129987
0.12999
0.129994
0.129997
0.13
0.130004
0.130007
0.13001
0.130014
0.130017
0.13002
0.130024
0.130027
0.13003
0.130034
0.130037
0.13004
0.130043
0.130047
0.130049
0.13006
0.122819
0.122798
0.122795
0.122795
0.122797
0.122799
0.122801
0.122803
0.122805
0.122807
0.12281
0.122812
0.122815
0.122817
0.12282
0.122823
0.122826
0.122829
0.122832
0.122835
0.122838
0.122841
0.122844
0.122847
0.122851
0.122854
0.122857
0.12286
0.122864
0.122867
0.12287
0.122874
0.122877
0.12288
0.122884
0.122887
0.12289
0.122894
0.122897
0.1229
0.122904
0.122907
0.12291
0.122914
0.122917
0.12292
0.122923
0.122927
0.12293
0.122933
0.122937
0.12294
0.122943
0.122946
0.12295
0.122953
0.122956
0.122958
0.122969
0.116108
0.116088
0.116084
0.116085
0.116086
0.116088
0.11609
0.116092
0.116095
0.116097
0.1161
0.116102
0.116105
0.116107
0.11611
0.116113
0.116115
0.116118
0.116121
0.116124
0.116127
0.116131
0.116134
0.116137
0.11614
0.116143
0.116147
0.11615
0.116153
0.116156
0.11616
0.116163
0.116166
0.116169
0.116173
0.116176
0.116179
0.116183
0.116186
0.116189
0.116192
0.116196
0.116199
0.116202
0.116205
0.116209
0.116212
0.116215
0.116218
0.116222
0.116225
0.116228
0.116231
0.116234
0.116238
0.116241
0.116244
0.116246
0.116256
0.109762
0.109742
0.109739
0.109739
0.109741
0.109743
0.109745
0.109747
0.109749
0.109752
0.109754
0.109757
0.109759
0.109762
0.109764
0.109767
0.10977
0.109773
0.109776
0.109779
0.109782
0.109785
0.109788
0.109791
0.109794
0.109798
0.109801
0.109804
0.109807
0.10981
0.109814
0.109817
0.10982
0.109823
0.109826
0.10983
0.109833
0.109836
0.109839
0.109843
0.109846
0.109849
0.109852
0.109855
0.109859
0.109862
0.109865
0.109868
0.109871
0.109875
0.109878
0.109881
0.109884
0.109887
0.10989
0.109893
0.109897
0.109899
0.109908
0.103766
0.103747
0.103744
0.103744
0.103746
0.103748
0.10375
0.103752
0.103755
0.103757
0.103759
0.103762
0.103764
0.103767
0.10377
0.103772
0.103775
0.103778
0.103781
0.103784
0.103787
0.10379
0.103793
0.103796
0.103799
0.103802
0.103805
0.103809
0.103812
0.103815
0.103818
0.103821
0.103824
0.103828
0.103831
0.103834
0.103837
0.10384
0.103843
0.103846
0.10385
0.103853
0.103856
0.103859
0.103862
0.103865
0.103868
0.103872
0.103875
0.103878
0.103881
0.103884
0.103887
0.10389
0.103893
0.103896
0.103899
0.103901
0.10391
0.0981076
0.0980888
0.0980858
0.0980864
0.098088
0.09809
0.098092
0.0980942
0.0980965
0.0980989
0.0981013
0.0981038
0.0981063
0.0981089
0.0981115
0.0981142
0.098117
0.0981198
0.0981227
0.0981256
0.0981286
0.0981316
0.0981347
0.0981377
0.0981408
0.0981439
0.0981469
0.09815
0.0981531
0.0981562
0.0981593
0.0981624
0.0981655
0.0981685
0.0981716
0.0981747
0.0981778
0.0981809
0.0981839
0.098187
0.0981901
0.0981932
0.0981962
0.0981993
0.0982024
0.0982054
0.0982085
0.0982115
0.0982145
0.0982176
0.0982206
0.0982236
0.0982266
0.0982296
0.0982325
0.0982355
0.0982386
0.0982408
0.0982489
0.0927721
0.0927537
0.0927509
0.0927516
0.0927532
0.0927551
0.0927572
0.0927594
0.0927617
0.0927641
0.0927665
0.0927689
0.0927714
0.092774
0.0927766
0.0927792
0.092782
0.0927848
0.0927876
0.0927905
0.0927935
0.0927964
0.0927994
0.0928024
0.0928054
0.0928084
0.0928114
0.0928145
0.0928175
0.0928205
0.0928235
0.0928265
0.0928295
0.0928325
0.0928356
0.0928386
0.0928416
0.0928446
0.0928476
0.0928506
0.0928536
0.0928565
0.0928595
0.0928625
0.0928655
0.0928685
0.0928714
0.0928744
0.0928773
0.0928803
0.0928832
0.0928861
0.092889
0.092892
0.0928949
0.0928977
0.0929007
0.0929029
0.0929103
0.0877463
0.0877284
0.0877257
0.0877264
0.0877281
0.08773
0.0877321
0.0877343
0.0877366
0.0877389
0.0877413
0.0877437
0.0877462
0.0877487
0.0877513
0.0877539
0.0877566
0.0877594
0.0877622
0.0877651
0.087768
0.0877709
0.0877738
0.0877767
0.0877797
0.0877826
0.0877855
0.0877885
0.0877914
0.0877944
0.0877973
0.0878003
0.0878032
0.0878061
0.0878091
0.087812
0.0878149
0.0878178
0.0878207
0.0878236
0.0878266
0.0878295
0.0878324
0.0878352
0.0878381
0.087841
0.0878439
0.0878468
0.0878496
0.0878525
0.0878553
0.0878582
0.087861
0.0878638
0.0878666
0.0878694
0.0878723
0.0878745
0.0878811
0.0830169
0.0829996
0.082997
0.0829978
0.0829994
0.0830014
0.0830035
0.0830057
0.0830079
0.0830103
0.0830126
0.083015
0.0830175
0.08302
0.0830225
0.0830251
0.0830278
0.0830305
0.0830332
0.083036
0.0830389
0.0830417
0.0830446
0.0830474
0.0830503
0.0830532
0.0830561
0.0830589
0.0830618
0.0830647
0.0830675
0.0830704
0.0830732
0.0830761
0.0830789
0.0830818
0.0830846
0.0830874
0.0830902
0.0830931
0.0830959
0.0830987
0.0831015
0.0831043
0.0831071
0.0831099
0.0831127
0.0831155
0.0831182
0.083121
0.0831237
0.0831265
0.0831292
0.083132
0.0831347
0.0831374
0.0831401
0.0831424
0.0831482
0.078571
0.0785542
0.0785518
0.0785526
0.0785543
0.0785563
0.0785584
0.0785605
0.0785628
0.0785651
0.0785674
0.0785698
0.0785722
0.0785746
0.0785771
0.0785797
0.0785823
0.078585
0.0785877
0.0785904
0.0785932
0.078596
0.0785988
0.0786016
0.0786044
0.0786072
0.07861
0.0786128
0.0786156
0.0786183
0.0786211
0.0786239
0.0786267
0.0786294
0.0786322
0.0786349
0.0786377
0.0786404
0.0786431
0.0786459
0.0786486
0.0786513
0.078654
0.0786567
0.0786594
0.0786621
0.0786648
0.0786675
0.0786702
0.0786728
0.0786755
0.0786781
0.0786808
0.0786834
0.078686
0.0786886
0.0786913
0.0786935
0.0786987
0.0743958
0.0743796
0.0743774
0.0743783
0.0743799
0.0743819
0.074384
0.0743861
0.0743884
0.0743906
0.0743929
0.0743953
0.0743976
0.0744001
0.0744025
0.074405
0.0744076
0.0744102
0.0744129
0.0744156
0.0744183
0.074421
0.0744237
0.0744264
0.0744292
0.0744319
0.0744346
0.0744373
0.07444
0.0744427
0.0744454
0.0744481
0.0744508
0.0744534
0.0744561
0.0744588
0.0744614
0.0744641
0.0744667
0.0744693
0.074472
0.0744746
0.0744772
0.0744798
0.0744824
0.074485
0.0744876
0.0744902
0.0744928
0.0744953
0.0744979
0.0745004
0.074503
0.0745055
0.074508
0.0745105
0.0745131
0.0745153
0.0745197
0.070479
0.0704634
0.0704613
0.0704622
0.0704639
0.0704659
0.0704679
0.0704701
0.0704723
0.0704745
0.0704768
0.0704791
0.0704814
0.0704838
0.0704862
0.0704887
0.0704912
0.0704937
0.0704963
0.070499
0.0705016
0.0705042
0.0705069
0.0705096
0.0705122
0.0705149
0.0705175
0.0705201
0.0705227
0.0705254
0.070528
0.0705306
0.0705331
0.0705357
0.0705383
0.0705409
0.0705434
0.070546
0.0705485
0.070551
0.0705536
0.0705561
0.0705586
0.0705611
0.0705636
0.0705661
0.0705686
0.0705711
0.0705736
0.070576
0.0705785
0.0705809
0.0705834
0.0705858
0.0705882
0.0705906
0.0705931
0.0705953
0.070599
0.0668083
0.0667933
0.0667914
0.0667923
0.0667941
0.066796
0.066798
0.0668002
0.0668023
0.0668045
0.0668068
0.066809
0.0668113
0.0668137
0.066816
0.0668184
0.0668209
0.0668234
0.0668259
0.0668285
0.0668311
0.0668337
0.0668362
0.0668388
0.0668414
0.066844
0.0668465
0.0668491
0.0668516
0.0668541
0.0668566
0.0668591
0.0668616
0.0668641
0.0668666
0.0668691
0.0668715
0.066874
0.0668764
0.0668789
0.0668813
0.0668837
0.0668861
0.0668886
0.066891
0.0668933
0.0668957
0.0668981
0.0669005
0.0669028
0.0669052
0.0669075
0.0669099
0.0669122
0.0669145
0.0669168
0.0669192
0.0669213
0.0669244
0.063372
0.0633577
0.0633559
0.0633569
0.0633586
0.0633605
0.0633625
0.0633646
0.0633668
0.0633689
0.0633711
0.0633734
0.0633756
0.0633779
0.0633802
0.0633826
0.063385
0.0633874
0.0633899
0.0633924
0.0633949
0.0633974
0.0633999
0.0634024
0.0634049
0.0634074
0.0634099
0.0634123
0.0634148
0.0634172
0.0634197
0.0634221
0.0634245
0.0634269
0.0634293
0.0634316
0.063434
0.0634364
0.0634387
0.063441
0.0634434
0.0634457
0.063448
0.0634503
0.0634526
0.0634549
0.0634572
0.0634595
0.0634617
0.063464
0.0634663
0.0634685
0.0634707
0.063473
0.0634752
0.0634774
0.0634796
0.0634817
0.0634841
0.0601587
0.060145
0.0601433
0.0601444
0.0601461
0.060148
0.06015
0.060152
0.0601542
0.0601563
0.0601584
0.0601606
0.0601628
0.0601651
0.0601673
0.0601696
0.060172
0.0601744
0.0601768
0.0601792
0.0601816
0.0601841
0.0601865
0.060189
0.0601914
0.0601938
0.0601962
0.0601985
0.0602009
0.0602033
0.0602056
0.0602079
0.0602102
0.0602126
0.0602148
0.0602171
0.0602194
0.0602217
0.0602239
0.0602261
0.0602284
0.0602306
0.0602328
0.060235
0.0602372
0.0602394
0.0602416
0.0602438
0.0602459
0.0602481
0.0602502
0.0602524
0.0602545
0.0602566
0.0602588
0.0602609
0.060263
0.060265
0.0602668
0.0571573
0.0571442
0.0571427
0.0571437
0.0571455
0.0571474
0.0571493
0.0571514
0.0571534
0.0571555
0.0571577
0.0571598
0.0571619
0.0571641
0.0571663
0.0571686
0.0571709
0.0571732
0.0571755
0.0571779
0.0571803
0.0571827
0.057185
0.0571874
0.0571897
0.057192
0.0571944
0.0571966
0.0571989
0.0572012
0.0572035
0.0572057
0.0572079
0.0572101
0.0572123
0.0572145
0.0572167
0.0572189
0.057221
0.0572232
0.0572253
0.0572274
0.0572295
0.0572316
0.0572337
0.0572358
0.0572379
0.05724
0.0572421
0.0572441
0.0572462
0.0572482
0.0572502
0.0572522
0.0572543
0.0572563
0.0572582
0.0572603
0.0572614
0.0543572
0.0543447
0.0543433
0.0543444
0.0543461
0.054348
0.05435
0.054352
0.054354
0.0543561
0.0543581
0.0543602
0.0543623
0.0543645
0.0543666
0.0543688
0.0543711
0.0543733
0.0543756
0.0543779
0.0543802
0.0543825
0.0543848
0.0543871
0.0543893
0.0543916
0.0543938
0.054396
0.0543982
0.0544004
0.0544026
0.0544047
0.0544069
0.054409
0.0544111
0.0544132
0.0544153
0.0544174
0.0544194
0.0544215
0.0544235
0.0544255
0.0544276
0.0544296
0.0544316
0.0544336
0.0544356
0.0544375
0.0544395
0.0544414
0.0544434
0.0544453
0.0544473
0.0544492
0.0544511
0.054453
0.0544549
0.0544569
0.0544574
0.0517482
0.0517363
0.0517351
0.0517362
0.0517379
0.0517398
0.0517417
0.0517437
0.0517457
0.0517477
0.0517498
0.0517518
0.0517539
0.0517559
0.0517581
0.0517602
0.0517624
0.0517646
0.0517668
0.051769
0.0517712
0.0517735
0.0517757
0.0517779
0.0517801
0.0517823
0.0517844
0.0517866
0.0517887
0.0517908
0.0517929
0.0517949
0.051797
0.051799
0.051801
0.0518031
0.0518051
0.051807
0.051809
0.051811
0.0518129
0.0518148
0.0518168
0.0518187
0.0518206
0.0518225
0.0518244
0.0518262
0.0518281
0.05183
0.0518318
0.0518336
0.0518355
0.0518373
0.0518391
0.0518409
0.0518427
0.0518446
0.0518447
0.0493207
0.0493094
0.0493083
0.0493095
0.0493112
0.049313
0.0493149
0.0493169
0.0493188
0.0493208
0.0493228
0.0493248
0.0493268
0.0493288
0.0493309
0.049333
0.0493351
0.0493372
0.0493394
0.0493415
0.0493437
0.0493459
0.049348
0.0493502
0.0493523
0.0493544
0.0493565
0.0493585
0.0493606
0.0493626
0.0493646
0.0493666
0.0493686
0.0493705
0.0493725
0.0493744
0.0493763
0.0493782
0.0493801
0.0493819
0.0493838
0.0493856
0.0493875
0.0493893
0.0493911
0.0493929
0.0493947
0.0493965
0.0493982
0.0494
0.0494017
0.0494035
0.0494052
0.0494069
0.0494087
0.0494104
0.049412
0.0494139
0.0494135
0.0470655
0.0470547
0.0470538
0.047055
0.0470567
0.0470585
0.0470604
0.0470623
0.0470642
0.0470661
0.0470681
0.04707
0.047072
0.047074
0.047076
0.047078
0.04708
0.0470821
0.0470842
0.0470863
0.0470884
0.0470905
0.0470926
0.0470947
0.0470967
0.0470988
0.0471008
0.0471028
0.0471047
0.0471067
0.0471086
0.0471105
0.0471124
0.0471143
0.0471161
0.047118
0.0471198
0.0471216
0.0471234
0.0471252
0.047127
0.0471287
0.0471305
0.0471322
0.0471339
0.0471356
0.0471373
0.047139
0.0471407
0.0471424
0.047144
0.0471457
0.0471473
0.0471489
0.0471506
0.0471522
0.0471537
0.0471555
0.0471547
0.0449739
0.0449636
0.0449628
0.044964
0.0449657
0.0449675
0.0449693
0.0449712
0.0449731
0.044975
0.0449769
0.0449788
0.0449807
0.0449827
0.0449846
0.0449866
0.0449886
0.0449906
0.0449926
0.0449947
0.0449967
0.0449988
0.0450008
0.0450028
0.0450048
0.0450067
0.0450087
0.0450106
0.0450125
0.0450144
0.0450162
0.0450181
0.0450199
0.0450217
0.0450235
0.0450252
0.045027
0.0450287
0.0450304
0.0450321
0.0450338
0.0450355
0.0450371
0.0450388
0.0450404
0.045042
0.0450436
0.0450452
0.0450468
0.0450484
0.04505
0.0450515
0.0450531
0.0450546
0.0450561
0.0450577
0.0450592
0.0450609
0.0450596
0.0430377
0.043028
0.0430272
0.0430285
0.0430301
0.0430319
0.0430337
0.0430356
0.0430374
0.0430393
0.0430412
0.043043
0.0430449
0.0430468
0.0430487
0.0430506
0.0430525
0.0430545
0.0430565
0.0430585
0.0430605
0.0430624
0.0430644
0.0430663
0.0430683
0.0430702
0.0430721
0.0430739
0.0430757
0.0430775
0.0430793
0.0430811
0.0430828
0.0430846
0.0430863
0.0430879
0.0430896
0.0430913
0.0430929
0.0430945
0.0430961
0.0430977
0.0430993
0.0431009
0.0431024
0.0431039
0.0431055
0.043107
0.0431085
0.04311
0.0431115
0.0431129
0.0431144
0.0431158
0.0431173
0.0431187
0.0431201
0.0431218
0.0431201
0.0412493
0.0412401
0.0412395
0.0412408
0.0412424
0.0412442
0.041246
0.0412478
0.0412496
0.0412514
0.0412532
0.0412551
0.0412569
0.0412587
0.0412606
0.0412625
0.0412644
0.0412663
0.0412682
0.0412701
0.0412721
0.041274
0.0412759
0.0412778
0.0412797
0.0412815
0.0412833
0.0412851
0.0412869
0.0412886
0.0412903
0.041292
0.0412937
0.0412954
0.041297
0.0412986
0.0413002
0.0413018
0.0413033
0.0413049
0.0413064
0.0413079
0.0413094
0.0413109
0.0413124
0.0413138
0.0413153
0.0413167
0.0413181
0.0413196
0.0413209
0.0413223
0.0413237
0.0413251
0.0413264
0.0413278
0.0413291
0.0413307
0.0413286
0.0396019
0.0395931
0.0395926
0.0395938
0.0395955
0.0395972
0.039599
0.0396008
0.0396026
0.0396044
0.0396062
0.0396079
0.0396097
0.0396115
0.0396134
0.0396152
0.039617
0.0396189
0.0396208
0.0396226
0.0396245
0.0396264
0.0396283
0.0396301
0.0396319
0.0396337
0.0396355
0.0396372
0.0396389