/*--------------------------------*- C++ -*----------------------------------*\
  =========                 |
  \\      /  F ield         | OpenFOAM: The Open Source CFD Toolbox
   \\    /   O peration     | Website:  https://openfoam.org
    \\  /    A nd           | Version:  7
     \\/     M anipulation  |
\*---------------------------------------------------------------------------*/
FoamFile
{
    version     2.0;
    format      ascii;
    class       volVectorField;
    location    "16000";
    object      U;
}
// * * * * * * * * * * * * * * * * * * * * * * * * * * * * * * * * * * * * * //

dimensions      [0 1 -1 0 0 0 0];

internalField   nonuniform List<vector> 
3963
(
(0.139978 -4.83588e-08 2.73067e-14)
(0.139978 -6.77534e-08 2.72713e-14)
(0.139979 -5.72175e-08 2.72216e-14)
(0.139979 -4.06939e-08 2.72184e-14)
(0.139979 -2.57879e-08 2.71984e-14)
(0.139979 -1.35177e-08 2.72701e-14)
(0.139979 -3.57743e-09 2.72592e-14)
(0.139979 4.50077e-09 2.72471e-14)
(0.139979 1.13252e-08 2.71953e-14)
(0.139979 1.71719e-08 2.71945e-14)
(0.139979 2.2188e-08 2.71743e-14)
(0.139979 2.65936e-08 2.71141e-14)
(0.139979 3.05984e-08 2.70928e-14)
(0.139979 3.42018e-08 2.70496e-14)
(0.139979 3.74017e-08 2.70371e-14)
(0.13998 4.03929e-08 2.70696e-14)
(0.13998 4.35889e-08 2.70532e-14)
(0.13998 4.6714e-08 2.70613e-14)
(0.13998 5.12192e-08 2.70404e-14)
(0.13998 5.67599e-08 2.70418e-14)
(0.13998 6.45613e-08 2.70647e-14)
(0.139977 -2.51857e-08 2.72181e-14)
(0.139977 -3.34001e-08 2.74015e-14)
(0.139977 -3.87448e-08 2.72614e-14)
(0.139977 -4.05864e-08 2.72414e-14)
(0.139977 -4.05366e-08 2.73526e-14)
(0.139977 -3.89457e-08 2.72194e-14)
(0.139977 -3.60661e-08 2.73777e-14)
(0.139978 -3.1832e-08 2.7453e-14)
(0.139978 -2.58109e-08 2.74147e-14)
(0.139978 -1.76939e-08 2.74838e-14)
(0.139978 -7.3991e-09 2.73036e-14)
(0.139978 6.54757e-09 2.74643e-14)
(0.139978 2.40917e-08 2.75093e-14)
(0.139978 4.80624e-08 2.74473e-14)
(0.139978 8.63913e-08 2.74853e-14)
(0.139978 4.16133e-08 2.73329e-14)
(0.139633 -7.00872e-08 2.70334e-14)
(0.139633 -8.74652e-08 2.70188e-14)
(0.139633 -7.63346e-08 2.70007e-14)
(0.139633 -5.99423e-08 2.69845e-14)
(0.139633 -4.52363e-08 2.70067e-14)
(0.139633 -3.3105e-08 2.70106e-14)
(0.139633 -2.31895e-08 2.69594e-14)
(0.139633 -1.49242e-08 2.69803e-14)
(0.139633 -7.79038e-09 2.69217e-14)
(0.139634 -1.53923e-09 2.68635e-14)
(0.139634 3.92311e-09 2.68641e-14)
(0.139634 8.70936e-09 2.68269e-14)
(0.139634 1.32114e-08 2.68296e-14)
(0.139634 1.73661e-08 2.67887e-14)
(0.139634 2.11277e-08 2.67902e-14)
(0.139634 2.46976e-08 2.68377e-14)
(0.139634 2.85524e-08 2.68265e-14)
(0.139634 3.23478e-08 2.68408e-14)
(0.139634 3.83297e-08 2.68069e-14)
(0.139634 4.56831e-08 2.68276e-14)
(0.139634 6.49986e-08 2.69289e-14)
(0.139634 8.43907e-08 2.69759e-14)
(0.139634 8.96062e-08 2.69522e-14)
(0.139631 -4.73954e-08 2.70818e-14)
(0.139631 -5.03892e-08 2.69484e-14)
(0.139631 -4.921e-08 2.69294e-14)
(0.139631 -5.52759e-08 2.7065e-14)
(0.139631 -6.98433e-08 2.69376e-14)
(0.139631 -7.66706e-08 2.70834e-14)
(0.139631 -7.60324e-08 2.69744e-14)
(0.139631 -7.37019e-08 2.69555e-14)
(0.139632 -7.08173e-08 2.70804e-14)
(0.139632 -6.71517e-08 2.69442e-14)
(0.139632 -6.26941e-08 2.70712e-14)
(0.139632 -5.71046e-08 2.7178e-14)
(0.139632 -5.005e-08 2.71344e-14)
(0.139632 -4.11582e-08 2.72115e-14)
(0.139632 -3.03823e-08 2.70201e-14)
(0.139632 -1.61059e-08 2.71356e-14)
(0.139632 1.50961e-09 2.72262e-14)
(0.139633 2.49908e-08 2.7163e-14)
(0.139633 6.33572e-08 2.72219e-14)
(0.139633 1.87671e-08 2.70524e-14)
(0.139273 -9.11474e-08 2.67316e-14)
(0.139273 -1.07371e-07 2.67624e-14)
(0.139273 -9.5508e-08 2.67742e-14)
(0.139273 -7.89044e-08 2.67447e-14)
(0.139273 -6.42769e-08 2.68241e-14)
(0.139273 -5.23083e-08 2.67714e-14)
(0.139273 -4.23637e-08 2.66795e-14)
(0.139273 -3.39194e-08 2.66851e-14)
(0.139273 -2.65569e-08 2.66306e-14)
(0.139273 -1.99574e-08 2.65397e-14)
(0.139273 -1.40845e-08 2.6552e-14)
(0.139273 -8.81801e-09 2.65247e-14)
(0.139273 -3.82971e-09 2.65587e-14)
(0.139274 8.50302e-10 2.65126e-14)
(0.139274 5.14952e-09 2.65825e-14)
(0.139274 9.28032e-09 2.66524e-14)
(0.139274 1.36645e-08 2.65893e-14)
(0.139274 1.8075e-08 2.665e-14)
(0.139274 2.50723e-08 2.65654e-14)
(0.139274 3.35054e-08 2.65932e-14)
(0.139274 5.46654e-08 2.6862e-14)
(0.139274 8.17775e-08 2.68133e-14)
(0.139274 1.05769e-07 2.67702e-14)
(0.139274 1.19882e-07 2.69224e-14)
(0.139274 1.15599e-07 2.69114e-14)
(0.139274 1.08364e-07 2.71245e-14)
(0.139274 1.02458e-07 2.7155e-14)
(0.139274 9.80164e-08 2.70527e-14)
(0.139274 9.45562e-08 2.71412e-14)
(0.139273 9.1726e-08 2.70793e-14)
(0.139273 8.91786e-08 2.72089e-14)
(0.139273 8.67392e-08 2.73574e-14)
(0.139273 8.46186e-08 2.71873e-14)
(0.139273 8.26473e-08 2.72248e-14)
(0.139273 8.07725e-08 2.7119e-14)
(0.139273 7.91052e-08 2.72586e-14)
(0.139273 7.75733e-08 2.73736e-14)
(0.139273 7.62286e-08 2.72343e-14)
(0.139273 7.50039e-08 2.73448e-14)
(0.139273 7.38327e-08 2.72541e-14)
(0.139273 7.27412e-08 2.71064e-14)
(0.139273 7.17602e-08 2.69824e-14)
(0.139273 7.09139e-08 2.69314e-14)
(0.139273 7.0103e-08 2.69544e-14)
(0.139273 6.92179e-08 2.68941e-14)
(0.139272 6.82096e-08 2.68566e-14)
(0.139272 6.73106e-08 2.67925e-14)
(0.139272 6.62274e-08 2.67711e-14)
(0.139272 6.49401e-08 2.68016e-14)
(0.139272 6.35293e-08 2.67563e-14)
(0.139272 6.17501e-08 2.67404e-14)
(0.139272 5.98868e-08 2.66964e-14)
(0.139272 5.78965e-08 2.66935e-14)
(0.139272 5.55629e-08 2.66582e-14)
(0.139272 5.30486e-08 2.65256e-14)
(0.139272 5.04376e-08 2.6544e-14)
(0.139272 4.75874e-08 2.65438e-14)
(0.139272 4.45764e-08 2.65683e-14)
(0.139272 4.13612e-08 2.65598e-14)
(0.139272 3.80784e-08 2.64683e-14)
(0.139272 3.4644e-08 2.65135e-14)
(0.139272 3.11059e-08 2.6523e-14)
(0.139272 2.75347e-08 2.65574e-14)
(0.139272 2.38298e-08 2.65507e-14)
(0.139272 2.02342e-08 2.64499e-14)
(0.139272 1.65335e-08 2.64889e-14)
(0.139272 1.28777e-08 2.6499e-14)
(0.139272 9.1466e-09 2.65333e-14)
(0.139272 5.22175e-09 2.65335e-14)
(0.139272 1.4279e-09 2.64474e-14)
(0.139272 -2.18002e-09 2.64995e-14)
(0.139272 -5.86171e-09 2.65093e-14)
(0.139272 -9.73358e-09 2.65404e-14)
(0.139271 -1.3559e-08 2.65358e-14)
(0.139271 -1.71815e-08 2.64189e-14)
(0.139271 -2.06963e-08 2.65143e-14)
(0.139271 -2.42878e-08 2.65262e-14)
(0.139271 -2.78315e-08 2.65607e-14)
(0.139271 -3.12265e-08 2.65521e-14)
(0.139271 -3.45772e-08 2.64583e-14)
(0.139271 -3.78824e-08 2.65826e-14)
(0.139271 -4.11006e-08 2.64505e-14)
(0.139271 -4.44789e-08 2.65248e-14)
(0.139271 -4.78452e-08 2.66353e-14)
(0.139271 -5.09027e-08 2.6481e-14)
(0.139271 -5.36445e-08 2.66374e-14)
(0.139271 -5.62121e-08 2.65726e-14)
(0.139271 -5.87138e-08 2.65996e-14)
(0.139271 -6.10842e-08 2.66914e-14)
(0.139271 -6.33057e-08 2.6547e-14)
(0.139271 -6.51102e-08 2.67078e-14)
(0.139271 -6.65499e-08 2.65851e-14)
(0.139271 -6.77466e-08 2.66515e-14)
(0.139271 -6.8438e-08 2.67482e-14)
(0.139271 -6.85257e-08 2.65943e-14)
(0.139271 -6.7809e-08 2.67422e-14)
(0.139271 -6.6118e-08 2.66166e-14)
(0.139271 -6.26414e-08 2.66649e-14)
(0.139271 -5.64079e-08 2.67505e-14)
(0.139271 -5.91195e-08 2.65795e-14)
(0.139271 -7.0866e-08 2.6721e-14)
(0.139271 -7.53445e-08 2.66313e-14)
(0.139271 -7.11308e-08 2.66389e-14)
(0.139271 -8.39695e-08 2.67367e-14)
(0.139271 -1.0392e-07 2.66189e-14)
(0.139271 -1.06794e-07 2.67225e-14)
(0.139271 -1.0417e-07 2.6608e-14)
(0.139271 -1.00547e-07 2.66677e-14)
(0.139271 -9.64542e-08 2.67493e-14)
(0.139272 -9.16513e-08 2.6626e-14)
(0.139272 -8.62087e-08 2.67188e-14)
(0.139272 -7.9657e-08 2.68211e-14)
(0.139272 -7.19073e-08 2.68256e-14)
(0.139272 -6.25374e-08 2.68659e-14)
(0.139272 -5.13611e-08 2.66941e-14)
(0.139272 -3.70178e-08 2.67669e-14)
(0.139272 -1.96451e-08 2.68576e-14)
(0.139272 3.11643e-09 2.68471e-14)
(0.139272 4.11102e-08 2.68752e-14)
(0.139272 -3.11424e-09 2.67256e-14)
(0.138897 -1.10021e-07 2.64509e-14)
(0.138897 -1.26226e-07 2.64993e-14)
(0.138897 -1.14131e-07 2.65517e-14)
(0.138897 -9.73592e-08 2.64936e-14)
(0.138898 -8.27046e-08 2.6569e-14)
(0.138898 -7.07488e-08 2.6501e-14)
(0.138898 -6.08499e-08 2.63679e-14)
(0.138898 -5.22386e-08 2.64046e-14)
(0.138898 -4.45627e-08 2.63034e-14)
(0.138898 -3.76476e-08 2.6197e-14)
(0.138898 -3.14222e-08 2.62504e-14)
(0.138898 -2.57378e-08 2.62145e-14)
(0.138898 -2.03315e-08 2.63002e-14)
(0.138898 -1.51819e-08 2.62302e-14)
(0.138898 -1.03775e-08 2.63028e-14)
(0.138898 -5.71317e-09 2.63973e-14)
(0.138898 -7.72569e-10 2.63359e-14)
(0.138898 4.22291e-09 2.63908e-14)
(0.138899 1.16121e-08 2.62639e-14)
(0.138899 2.11236e-08 2.63834e-14)
(0.138899 3.55899e-08 2.66577e-14)
(0.138899 5.92471e-08 2.66232e-14)
(0.138899 9.36378e-08 2.65693e-14)
(0.138899 1.22854e-07 2.67866e-14)
(0.138899 1.31334e-07 2.66673e-14)
(0.138899 1.2861e-07 2.68889e-14)
(0.138899 1.23031e-07 2.7105e-14)
(0.138899 1.17626e-07 2.68909e-14)
(0.138899 1.13155e-07 2.69846e-14)
(0.138899 1.09325e-07 2.68483e-14)
(0.138899 1.05902e-07 2.70821e-14)
(0.138899 1.02819e-07 2.71925e-14)
(0.138899 1.0006e-07 2.70464e-14)
(0.138898 9.7498e-08 2.70826e-14)
(0.138898 9.51653e-08 2.69482e-14)
(0.138898 9.30279e-08 2.72173e-14)
(0.138898 9.0994e-08 2.73415e-14)
(0.138898 8.91694e-08 2.71006e-14)
(0.138898 8.75511e-08 2.71708e-14)
(0.138898 8.60261e-08 2.70609e-14)
(0.138898 8.45576e-08 2.69346e-14)
(0.138898 8.32524e-08 2.68408e-14)
(0.138898 8.2106e-08 2.67828e-14)
(0.138898 8.09873e-08 2.67271e-14)
(0.138898 7.98238e-08 2.67042e-14)
(0.138898 7.85846e-08 2.66792e-14)
(0.138898 7.72995e-08 2.6633e-14)
(0.138898 7.5938e-08 2.66007e-14)
(0.138898 7.45109e-08 2.65497e-14)
(0.138898 7.28125e-08 2.65385e-14)
(0.138898 7.08582e-08 2.65365e-14)
(0.138898 6.88276e-08 2.65124e-14)
(0.138898 6.65914e-08 2.6497e-14)
(0.138898 6.41909e-08 2.64722e-14)
(0.138898 6.15518e-08 2.63517e-14)
(0.138897 5.8728e-08 2.6353e-14)
(0.138897 5.57155e-08 2.63623e-14)
(0.138897 5.25752e-08 2.63753e-14)
(0.138897 4.93982e-08 2.63759e-14)
(0.138897 4.60961e-08 2.62968e-14)
(0.138897 4.24993e-08 2.63129e-14)
(0.138897 3.88404e-08 2.6338e-14)
(0.138897 3.52252e-08 2.63609e-14)
(0.138897 3.15143e-08 2.63633e-14)
(0.138897 2.7861e-08 2.62722e-14)
(0.138897 2.41088e-08 2.62942e-14)
(0.138897 2.0426e-08 2.63158e-14)
(0.138897 1.66786e-08 2.63377e-14)
(0.138897 1.26773e-08 2.63457e-14)
(0.138897 8.85017e-09 2.62738e-14)
(0.138897 5.1845e-09 2.62952e-14)
(0.138897 1.42636e-09 2.63199e-14)
(0.138897 -2.42395e-09 2.63407e-14)
(0.138897 -6.1904e-09 2.63464e-14)
(0.138897 -9.78804e-09 2.62861e-14)
(0.138897 -1.33151e-08 2.63074e-14)
(0.138897 -1.68956e-08 2.63342e-14)
(0.138897 -2.04149e-08 2.63588e-14)
(0.138897 -2.37883e-08 2.63617e-14)
(0.138897 -2.71202e-08 2.62876e-14)
(0.138897 -3.04124e-08 2.63311e-14)
(0.138897 -3.36516e-08 2.62754e-14)
(0.138897 -3.70613e-08 2.63005e-14)
(0.138897 -4.04279e-08 2.63608e-14)
(0.138897 -4.34721e-08 2.62934e-14)
(0.138896 -4.62151e-08 2.6346e-14)
(0.138896 -4.87816e-08 2.63232e-14)
(0.138896 -5.12976e-08 2.63449e-14)
(0.138896 -5.36159e-08 2.63973e-14)
(0.138896 -5.57055e-08 2.63469e-14)
(0.138896 -5.75071e-08 2.64039e-14)
(0.138896 -5.9075e-08 2.63694e-14)
(0.138896 -6.03586e-08 2.63893e-14)
(0.138896 -6.11114e-08 2.6444e-14)
(0.138896 -6.12693e-08 2.63785e-14)
(0.138896 -6.06898e-08 2.64351e-14)
(0.138896 -5.93055e-08 2.64e-14)
(0.138896 -5.7088e-08 2.63958e-14)
(0.138896 -5.25818e-08 2.64428e-14)
(0.138896 -6.5459e-08 2.63619e-14)
(0.138896 -8.51252e-08 2.64146e-14)
(0.138896 -8.79715e-08 2.63645e-14)
(0.138896 -8.44569e-08 2.6378e-14)
(0.138896 -9.59969e-08 2.64294e-14)
(0.138896 -1.1521e-07 2.63622e-14)
(0.138896 -1.21118e-07 2.64111e-14)
(0.138896 -1.20978e-07 2.63854e-14)
(0.138896 -1.18468e-07 2.63985e-14)
(0.138896 -1.14876e-07 2.64389e-14)
(0.138896 -1.10136e-07 2.63704e-14)
(0.138896 -1.04496e-07 2.64113e-14)
(0.138897 -9.77403e-08 2.64843e-14)
(0.138897 -8.9863e-08 2.6506e-14)
(0.138897 -8.04361e-08 2.65279e-14)
(0.138897 -6.9349e-08 2.64192e-14)
(0.138897 -5.51732e-08 2.64472e-14)
(0.138897 -3.81946e-08 2.65079e-14)
(0.138897 -1.65408e-08 2.65175e-14)
(0.138897 2.06355e-08 2.65311e-14)
(0.138897 -2.27998e-08 2.64388e-14)
(0.138507 -1.25943e-07 2.61473e-14)
(0.138507 -1.42979e-07 2.62525e-14)
(0.138507 -1.31467e-07 2.63311e-14)
(0.138507 -1.148e-07 2.62165e-14)
(0.138507 -1.00121e-07 2.63183e-14)
(0.138507 -8.81518e-08 2.61644e-14)
(0.138507 -7.81557e-08 2.60297e-14)
(0.138507 -6.94354e-08 2.61113e-14)
(0.138507 -6.15704e-08 2.59678e-14)
(0.138507 -5.44709e-08 2.58439e-14)
(0.138507 -4.79752e-08 2.59674e-14)
(0.138507 -4.18196e-08 2.59979e-14)
(0.138507 -3.59452e-08 2.60661e-14)
(0.138508 -3.03743e-08 2.60482e-14)
(0.138508 -2.51136e-08 2.61012e-14)
(0.138508 -1.99627e-08 2.61957e-14)
(0.138508 -1.46557e-08 2.61159e-14)
(0.138508 -9.14768e-09 2.61808e-14)
(0.138508 -1.53869e-09 2.61418e-14)
(0.138508 8.73978e-09 2.61843e-14)
(0.138508 1.79345e-08 2.6504e-14)
(0.138508 3.51407e-08 2.63966e-14)
(0.138508 6.43232e-08 2.63562e-14)
(0.138508 9.63847e-08 2.64912e-14)
(0.138508 1.20426e-07 2.6318e-14)
(0.138508 1.29933e-07 2.67052e-14)
(0.138508 1.30548e-07 2.67634e-14)
(0.138508 1.27799e-07 2.66689e-14)
(0.138508 1.24374e-07 2.67315e-14)
(0.138508 1.20882e-07 2.6558e-14)
(0.138508 1.17553e-07 2.68664e-14)
(0.138508 1.14495e-07 2.69559e-14)
(0.138508 1.11731e-07 2.68319e-14)
(0.138508 1.09058e-07 2.68473e-14)
(0.138508 1.06549e-07 2.66679e-14)
(0.138508 1.04204e-07 2.69683e-14)
(0.138508 1.0203e-07 2.7018e-14)
(0.138508 1.00003e-07 2.68988e-14)
(0.138508 9.80861e-08 2.694e-14)
(0.138508 9.63543e-08 2.67722e-14)
(0.138508 9.47221e-08 2.67384e-14)
(0.138508 9.32503e-08 2.66729e-14)
(0.138508 9.18636e-08 2.66161e-14)
(0.138508 9.04526e-08 2.64585e-14)
(0.138508 8.91371e-08 2.65091e-14)
(0.138508 8.7735e-08 2.64928e-14)
(0.138508 8.62462e-08 2.64586e-14)
(0.138508 8.46521e-08 2.64211e-14)
(0.138508 8.29436e-08 2.63084e-14)
(0.138508 8.11425e-08 2.6323e-14)
(0.138508 7.9176e-08 2.63287e-14)
(0.138508 7.71629e-08 2.63178e-14)
(0.138508 7.47573e-08 2.62962e-14)
(0.138507 7.21048e-08 2.62775e-14)
(0.138507 6.93831e-08 2.61745e-14)
(0.138507 6.64772e-08 2.61706e-14)
(0.138507 6.34648e-08 2.61848e-14)
(0.138507 6.0205e-08 2.61853e-14)
(0.138507 5.69459e-08 2.6187e-14)
(0.138507 5.36187e-08 2.61096e-14)
(0.138507 4.98924e-08 2.61269e-14)
(0.138507 4.62958e-08 2.61596e-14)
(0.138507 4.27781e-08 2.61699e-14)
(0.138507 3.89811e-08 2.61736e-14)
(0.138507 3.53148e-08 2.60944e-14)
(0.138507 3.15243e-08 2.61139e-14)
(0.138507 2.77293e-08 2.61412e-14)
(0.138507 2.39426e-08 2.61478e-14)
(0.138507 2.00391e-08 2.61547e-14)
(0.138507 1.62517e-08 2.60844e-14)
(0.138507 1.24961e-08 2.61068e-14)
(0.138507 8.67113e-09 2.61391e-14)
(0.138507 4.8885e-09 2.61484e-14)
(0.138507 1.18093e-09 2.61553e-14)
(0.138507 -2.46397e-09 2.60921e-14)
(0.138507 -5.95761e-09 2.61163e-14)
(0.138507 -9.43041e-09 2.6151e-14)
(0.138507 -1.29177e-08 2.61643e-14)
(0.138507 -1.63676e-08 2.61705e-14)
(0.138507 -1.9628e-08 2.61015e-14)
(0.138507 -2.28984e-08 2.61019e-14)
(0.138507 -2.62143e-08 2.60771e-14)
(0.138507 -2.96141e-08 2.60856e-14)
(0.138506 -3.28531e-08 2.61003e-14)
(0.138506 -3.58354e-08 2.60571e-14)
(0.138506 -3.86493e-08 2.60799e-14)
(0.138506 -4.12589e-08 2.60839e-14)
(0.138506 -4.37479e-08 2.60979e-14)
(0.138506 -4.59617e-08 2.61167e-14)
(0.138506 -4.80634e-08 2.60916e-14)
(0.138506 -4.99268e-08 2.61224e-14)
(0.138506 -5.15006e-08 2.61204e-14)
(0.138506 -5.28319e-08 2.61332e-14)
(0.138506 -5.35755e-08 2.61526e-14)
(0.138506 -5.3895e-08 2.61218e-14)
(0.138506 -5.36438e-08 2.61469e-14)
(0.138506 -5.24954e-08 2.61367e-14)
(0.138506 -5.11367e-08 2.6134e-14)
(0.138506 -4.82147e-08 2.61481e-14)
(0.138506 -6.05883e-08 2.61068e-14)
(0.138506 -8.06562e-08 2.61292e-14)
(0.138506 -8.76411e-08 2.61175e-14)
(0.138506 -8.84725e-08 2.61201e-14)
(0.138506 -9.93625e-08 2.61352e-14)
(0.138506 -1.16613e-07 2.60984e-14)
(0.138506 -1.24558e-07 2.61216e-14)
(0.138506 -1.27209e-07 2.61231e-14)
(0.138506 -1.26986e-07 2.61309e-14)
(0.138506 -1.25085e-07 2.61385e-14)
(0.138506 -1.21464e-07 2.61001e-14)
(0.138506 -1.16562e-07 2.61229e-14)
(0.138506 -1.10402e-07 2.6163e-14)
(0.138506 -1.03011e-07 2.61855e-14)
(0.138506 -9.39577e-08 2.61905e-14)
(0.138506 -8.32162e-08 2.61334e-14)
(0.138506 -6.97386e-08 2.61454e-14)
(0.138506 -5.35573e-08 2.61707e-14)
(0.138506 -3.31819e-08 2.61835e-14)
(0.138506 2.73532e-09 2.61855e-14)
(0.138507 -3.97296e-08 2.6141e-14)
(0.1381 -1.38607e-07 2.58485e-14)
(0.1381 -1.56724e-07 2.59324e-14)
(0.1381 -1.4649e-07 2.60154e-14)
(0.1381 -1.30614e-07 2.59975e-14)
(0.138101 -1.16235e-07 2.6007e-14)
(0.138101 -1.04171e-07 2.5964e-14)
(0.138101 -9.41654e-08 2.57724e-14)
(0.138101 -8.54525e-08 2.58629e-14)
(0.138101 -7.73938e-08 2.56817e-14)
(0.138101 -7.00877e-08 2.55939e-14)
(0.138101 -6.33665e-08 2.57316e-14)
(0.138101 -5.68499e-08 2.57836e-14)
(0.138101 -5.06628e-08 2.58539e-14)
(0.138101 -4.47315e-08 2.58956e-14)
(0.138101 -3.9004e-08 2.59322e-14)
(0.138101 -3.34038e-08 2.60179e-14)
(0.138101 -2.76453e-08 2.59662e-14)
(0.138101 -2.16639e-08 2.59868e-14)
(0.138101 -1.41739e-08 2.60074e-14)
(0.138102 -3.52682e-09 2.60193e-14)
(0.138102 3.02156e-09 2.62233e-14)
(0.138102 1.42823e-08 2.62272e-14)
(0.138102 3.51226e-08 2.61491e-14)
(0.138102 6.2742e-08 2.62493e-14)
(0.138102 9.38731e-08 2.62262e-14)
(0.138102 1.14511e-07 2.63996e-14)
(0.138102 1.23969e-07 2.64832e-14)
(0.138102 1.2668e-07 2.64094e-14)
(0.138102 1.26517e-07 2.64701e-14)
(0.138102 1.24986e-07 2.64245e-14)
(0.138102 1.22867e-07 2.65782e-14)
(0.138102 1.2075e-07 2.66713e-14)
(0.138102 1.1857e-07 2.65799e-14)
(0.138102 1.16273e-07 2.66069e-14)
(0.138102 1.14147e-07 2.65445e-14)
(0.138102 1.11976e-07 2.66704e-14)
(0.138102 1.09904e-07 2.67557e-14)
(0.138102 1.08009e-07 2.66562e-14)
(0.138102 1.06029e-07 2.66975e-14)
(0.138102 1.04261e-07 2.66473e-14)
(0.138102 1.0269e-07 2.65356e-14)
(0.138102 1.01173e-07 2.64847e-14)
(0.138102 9.97709e-08 2.64274e-14)
(0.138102 9.8282e-08 2.63528e-14)
(0.138102 9.67725e-08 2.63322e-14)
(0.138102 9.53924e-08 2.62969e-14)
(0.138102 9.37605e-08 2.62718e-14)
(0.138102 9.19832e-08 2.62268e-14)
(0.138102 9.03133e-08 2.61484e-14)
(0.138102 8.85195e-08 2.61328e-14)
(0.138102 8.65589e-08 2.61177e-14)
(0.138102 8.43025e-08 2.61153e-14)
(0.138102 8.17779e-08 2.60866e-14)
(0.138102 7.92446e-08 2.60755e-14)
(0.138102 7.65299e-08 2.59607e-14)
(0.138102 7.34804e-08 2.59954e-14)
(0.138102 7.04392e-08 2.60126e-14)
(0.138102 6.72201e-08 2.59929e-14)
(0.138101 6.39514e-08 2.59946e-14)
(0.138101 6.05857e-08 2.58978e-14)
(0.138101 5.69398e-08 2.59517e-14)
(0.138101 5.34343e-08 2.59891e-14)
(0.138101 4.97641e-08 2.59789e-14)
(0.138101 4.60065e-08 2.59827e-14)
(0.138101 4.23871e-08 2.58862e-14)
(0.138101 3.8533e-08 2.59472e-14)
(0.138101 3.47276e-08 2.59763e-14)
(0.138101 3.10944e-08 2.59582e-14)
(0.138101 2.7287e-08 2.59623e-14)
(0.138101 2.33887e-08 2.58721e-14)
(0.138101 1.95592e-08 2.59322e-14)
(0.138101 1.5727e-08 2.59682e-14)
(0.138101 1.20174e-08 2.59576e-14)
(0.138101 8.46115e-09 2.5964e-14)
(0.138101 4.86058e-09 2.58771e-14)
(0.138101 1.3813e-09 2.59412e-14)
(0.138101 -2.06579e-09 2.59789e-14)
(0.138101 -5.57738e-09 2.59719e-14)
(0.138101 -9.01825e-09 2.59793e-14)
(0.138101 -1.23033e-08 2.58938e-14)
(0.138101 -1.55766e-08 2.58786e-14)
(0.138101 -1.88572e-08 2.58682e-14)
(0.138101 -2.21195e-08 2.58719e-14)
(0.138101 -2.51507e-08 2.58413e-14)
(0.138101 -2.81271e-08 2.58097e-14)
(0.138101 -3.10466e-08 2.58243e-14)
(0.138101 -3.36816e-08 2.58393e-14)
(0.138101 -3.6184e-08 2.58541e-14)
(0.1381 -3.84207e-08 2.5838e-14)
(0.1381 -4.04726e-08 2.58266e-14)
(0.1381 -4.23075e-08 2.58507e-14)
(0.1381 -4.38512e-08 2.5864e-14)
(0.1381 -4.51638e-08 2.58787e-14)
(0.1381 -4.60363e-08 2.58636e-14)
(0.1381 -4.64283e-08 2.58476e-14)
(0.1381 -4.63288e-08 2.58671e-14)
(0.1381 -4.56783e-08 2.58723e-14)
(0.1381 -4.51392e-08 2.58747e-14)
(0.1381 -4.34605e-08 2.58543e-14)
(0.1381 -5.37886e-08 2.58345e-14)
(0.1381 -7.13736e-08 2.58507e-14)
(0.1381 -8.03947e-08 2.58559e-14)
(0.1381 -8.49754e-08 2.58623e-14)
(0.1381 -9.64787e-08 2.5843e-14)
(0.1381 -1.12221e-07 2.58223e-14)
(0.1381 -1.20692e-07 2.58399e-14)
(0.1381 -1.25309e-07 2.58526e-14)
(0.1381 -1.27434e-07 2.58639e-14)
(0.1381 -1.2759e-07 2.58366e-14)
(0.1381 -1.25667e-07 2.5817e-14)
(0.1381 -1.22111e-07 2.58412e-14)
(0.1381 -1.17195e-07 2.5849e-14)
(0.1381 -1.10769e-07 2.58679e-14)
(0.1381 -1.02607e-07 2.58467e-14)
(0.1381 -9.27165e-08 2.58278e-14)
(0.1381 -8.01551e-08 2.58468e-14)
(0.1381 -6.51486e-08 2.58365e-14)
(0.1381 -4.64227e-08 2.58489e-14)
(0.1381 -1.2115e-08 2.58343e-14)
(0.1381 -5.36727e-08 2.582e-14)
(0.137678 -1.47974e-07 2.55594e-14)
(0.137678 -1.67363e-07 2.56351e-14)
(0.137678 -1.58892e-07 2.57053e-14)
(0.137678 -1.44256e-07 2.57668e-14)
(0.137678 -1.30517e-07 2.56759e-14)
(0.137678 -1.18665e-07 2.57457e-14)
(0.137678 -1.08634e-07 2.55903e-14)
(0.137678 -9.98883e-08 2.56662e-14)
(0.137678 -9.18508e-08 2.55688e-14)
(0.137679 -8.45211e-08 2.54145e-14)
(0.137679 -7.76145e-08 2.55559e-14)
(0.137679 -7.07607e-08 2.55836e-14)
(0.137679 -6.41125e-08 2.56583e-14)
(0.137679 -5.79024e-08 2.56687e-14)
(0.137679 -5.1864e-08 2.5785e-14)
(0.137679 -4.5879e-08 2.57499e-14)
(0.137679 -3.97293e-08 2.57455e-14)
(0.137679 -3.33168e-08 2.58042e-14)
(0.137679 -2.58862e-08 2.57829e-14)
(0.137679 -1.5251e-08 2.58809e-14)
(0.137679 -1.00533e-08 2.59364e-14)
(0.137679 -2.99752e-09 2.59557e-14)
(0.137679 1.04939e-08 2.59149e-14)
(0.137679 3.10784e-08 2.594e-14)
(0.13768 6.19468e-08 2.59549e-14)
(0.13768 8.86435e-08 2.60569e-14)
(0.13768 1.05905e-07 2.61064e-14)
(0.13768 1.15134e-07 2.61163e-14)
(0.13768 1.19563e-07 2.61261e-14)
(0.13768 1.21322e-07 2.61602e-14)
(0.13768 1.21563e-07 2.62493e-14)
(0.13768 1.21057e-07 2.62978e-14)
(0.13768 1.20178e-07 2.62938e-14)
(0.13768 1.18845e-07 2.62653e-14)
(0.13768 1.17382e-07 2.626e-14)
(0.13768 1.15856e-07 2.63423e-14)
(0.13768 1.14194e-07 2.63989e-14)
(0.13768 1.12756e-07 2.63782e-14)
(0.13768 1.11135e-07 2.63673e-14)
(0.13768 1.09518e-07 2.63649e-14)
(0.13768 1.08147e-07 2.63015e-14)
(0.13768 1.06829e-07 2.62831e-14)
(0.13768 1.05522e-07 2.6217e-14)
(0.13768 1.03998e-07 2.62019e-14)
(0.13768 1.02558e-07 2.61521e-14)
(0.13768 1.01239e-07 2.60881e-14)
(0.13768 9.96389e-08 2.60771e-14)
(0.13768 9.79293e-08 2.60151e-14)
(0.13768 9.62012e-08 2.59929e-14)
(0.13768 9.44296e-08 2.59458e-14)
(0.13768 9.26212e-08 2.58989e-14)
(0.13768 9.04187e-08 2.59089e-14)
(0.13768 8.79033e-08 2.58645e-14)
(0.13768 8.53197e-08 2.58683e-14)
(0.13768 8.26246e-08 2.57085e-14)
(0.13768 7.96304e-08 2.58463e-14)
(0.13768 7.66128e-08 2.58433e-14)
(0.13768 7.35179e-08 2.57908e-14)
(0.13768 7.0249e-08 2.57997e-14)
(0.13768 6.67865e-08 2.56526e-14)
(0.13768 6.32704e-08 2.57992e-14)
(0.13768 5.98829e-08 2.58231e-14)
(0.137679 5.6285e-08 2.57803e-14)
(0.137679 5.25641e-08 2.57913e-14)
(0.137679 4.8887e-08 2.5645e-14)
(0.137679 4.51505e-08 2.58059e-14)
(0.137679 4.14274e-08 2.58173e-14)
(0.137679 3.77365e-08 2.57609e-14)
(0.137679 3.40493e-08 2.57694e-14)
(0.137679 3.02454e-08 2.56282e-14)
(0.137679 2.64603e-08 2.57889e-14)
(0.137679 2.26849e-08 2.58042e-14)
(0.137679 1.90151e-08 2.57605e-14)
(0.137679 1.55185e-08 2.57734e-14)
(0.137679 1.19321e-08 2.5633e-14)
(0.137679 8.45551e-09 2.57959e-14)
(0.137679 5.00287e-09 2.58155e-14)
(0.137679 1.63844e-09 2.57739e-14)
(0.137679 -1.72526e-09 2.57891e-14)
(0.137679 -5.06485e-09 2.56562e-14)
(0.137679 -8.37177e-09 2.56568e-14)
(0.137679 -1.162e-08 2.56552e-14)
(0.137679 -1.4731e-08 2.56566e-14)
(0.137679 -1.76515e-08 2.55726e-14)
(0.137679 -2.0587e-08 2.55558e-14)
(0.137679 -2.34878e-08 2.5575e-14)
(0.137679 -2.60669e-08 2.55959e-14)
(0.137679 -2.85749e-08 2.56122e-14)
(0.137679 -3.08633e-08 2.55462e-14)
(0.137679 -3.29269e-08 2.55561e-14)
(0.137679 -3.47689e-08 2.55849e-14)
(0.137679 -3.6327e-08 2.56073e-14)
(0.137678 -3.75477e-08 2.56245e-14)
(0.137678 -3.83962e-08 2.55685e-14)
(0.137678 -3.89906e-08 2.55675e-14)
(0.137678 -3.91259e-08 2.55932e-14)
(0.137678 -3.88251e-08 2.56097e-14)
(0.137678 -3.87618e-08 2.56165e-14)
(0.137678 -3.81277e-08 2.55451e-14)
(0.137678 -4.70701e-08 2.55528e-14)
(0.137678 -6.16004e-08 2.5576e-14)
(0.137678 -7.03936e-08 2.55921e-14)
(0.137678 -7.69726e-08 2.56039e-14)
(0.137678 -8.90426e-08 2.55439e-14)
(0.137678 -1.03801e-07 2.55394e-14)
(0.137678 -1.1218e-07 2.55625e-14)
(0.137678 -1.17765e-07 2.55824e-14)
(0.137678 -1.21639e-07 2.55974e-14)
(0.137678 -1.23654e-07 2.55198e-14)
(0.137678 -1.23656e-07 2.5526e-14)
(0.137678 -1.21824e-07 2.55637e-14)
(0.137678 -1.18429e-07 2.55324e-14)
(0.137678 -1.13272e-07 2.55545e-14)
(0.137678 -1.06334e-07 2.54807e-14)
(0.137678 -9.76635e-08 2.55092e-14)
(0.137678 -8.63316e-08 2.55496e-14)
(0.137678 -7.27725e-08 2.54966e-14)
(0.137678 -5.59849e-08 2.55162e-14)
(0.137678 -2.37094e-08 2.54695e-14)
(0.137678 -6.43875e-08 2.54896e-14)
(0.137239 -1.54166e-07 2.52929e-14)
(0.13724 -1.74873e-07 2.53514e-14)
(0.13724 -1.68333e-07 2.54071e-14)
(0.13724 -1.55376e-07 2.55239e-14)
(0.13724 -1.42696e-07 2.54319e-14)
(0.13724 -1.31336e-07 2.54419e-14)
(0.13724 -1.21487e-07 2.53903e-14)
(0.13724 -1.12906e-07 2.5497e-14)
(0.13724 -1.04966e-07 2.54127e-14)
(0.13724 -9.74523e-08 2.53155e-14)
(0.13724 -9.03653e-08 2.54104e-14)
(0.13724 -8.33761e-08 2.53789e-14)
(0.13724 -7.64596e-08 2.5483e-14)
(0.13724 -6.99334e-08 2.54589e-14)
(0.13724 -6.35841e-08 2.55654e-14)
(0.13724 -5.72794e-08 2.56113e-14)
(0.13724 -5.07453e-08 2.55222e-14)
(0.13724 -4.39403e-08 2.56273e-14)
(0.13724 -3.66452e-08 2.55851e-14)
(0.13724 -2.63336e-08 2.56664e-14)
(0.137241 -2.16133e-08 2.56625e-14)
(0.137241 -1.71827e-08 2.56793e-14)
(0.137241 -9.11804e-09 2.56626e-14)
(0.137241 4.43003e-09 2.56419e-14)
(0.137241 3.09892e-08 2.57293e-14)
(0.137241 5.90218e-08 2.57477e-14)
(0.137241 8.09885e-08 2.56719e-14)
(0.137241 9.57483e-08 2.58184e-14)
(0.137241 1.05049e-07 2.58037e-14)
(0.137241 1.10685e-07 2.59125e-14)
(0.137242 1.13898e-07 2.59441e-14)
(0.137242 1.15628e-07 2.59107e-14)
(0.137242 1.16524e-07 2.59996e-14)
(0.137242 1.16586e-07 2.5907e-14)
(0.137242 1.16296e-07 2.59701e-14)
(0.137242 1.15744e-07 2.60335e-14)
(0.137242 1.14862e-07 2.60562e-14)
(0.137242 1.14129e-07 2.60923e-14)
(0.137242 1.13079e-07 2.60024e-14)
(0.137242 1.11904e-07 2.61278e-14)
(0.137242 1.1091e-07 2.60423e-14)
(0.137242 1.09902e-07 2.60762e-14)
(0.137242 1.08873e-07 2.59811e-14)
(0.137242 1.07601e-07 2.60479e-14)
(0.137242 1.06269e-07 2.59522e-14)
(0.137242 1.05093e-07 2.58594e-14)
(0.137242 1.03768e-07 2.58807e-14)
(0.137242 1.02234e-07 2.57809e-14)
(0.137242 1.00666e-07 2.58379e-14)
(0.137242 9.90592e-08 2.57421e-14)
(0.137242 9.72491e-08 2.56646e-14)
(0.137241 9.50932e-08 2.57047e-14)
(0.137241 9.28328e-08 2.56231e-14)
(0.137241 9.03164e-08 2.566e-14)
(0.137241 8.76694e-08 2.55178e-14)
(0.137241 8.47841e-08 2.56222e-14)
(0.137241 8.18622e-08 2.56637e-14)
(0.137241 7.89537e-08 2.55683e-14)
(0.137241 7.56445e-08 2.56056e-14)
(0.137241 7.22137e-08 2.5472e-14)
(0.137241 6.89604e-08 2.56374e-14)
(0.137241 6.56563e-08 2.56469e-14)
(0.137241 6.20423e-08 2.55635e-14)
(0.137241 5.8511e-08 2.56025e-14)
(0.137241 5.49325e-08 2.54703e-14)
(0.137241 5.124e-08 2.56e-14)
(0.137241 4.76389e-08 2.56452e-14)
(0.137241 4.39629e-08 2.55454e-14)
(0.137241 4.03531e-08 2.55795e-14)
(0.137241 3.66536e-08 2.54505e-14)
(0.137241 3.2948e-08 2.56232e-14)
(0.137241 2.93261e-08 2.56336e-14)
(0.137241 2.57098e-08 2.55457e-14)
(0.137241 2.21957e-08 2.55865e-14)
(0.137241 1.87702e-08 2.54574e-14)
(0.137241 1.53758e-08 2.56351e-14)
(0.137241 1.18722e-08 2.56442e-14)
(0.137241 8.59438e-09 2.55601e-14)
(0.137241 5.32592e-09 2.56032e-14)
(0.137241 1.89398e-09 2.54848e-14)
(0.137241 -1.43894e-09 2.54457e-14)
(0.137241 -4.4923e-09 2.54402e-14)
(0.137241 -7.46589e-09 2.54372e-14)
(0.137241 -1.03892e-08 2.51999e-14)
(0.137241 -1.31809e-08 2.5307e-14)
(0.137241 -1.59687e-08 2.53322e-14)
(0.13724 -1.86263e-08 2.5356e-14)
(0.13724 -2.10354e-08 2.53705e-14)
(0.13724 -2.33724e-08 2.52561e-14)
(0.13724 -2.5525e-08 2.52883e-14)
(0.13724 -2.72637e-08 2.53254e-14)
(0.13724 -2.88236e-08 2.53533e-14)
(0.13724 -3.00134e-08 2.53699e-14)
(0.13724 -3.09695e-08 2.52593e-14)
(0.13724 -3.16283e-08 2.52928e-14)
(0.13724 -3.18987e-08 2.53261e-14)
(0.13724 -3.19774e-08 2.53509e-14)
(0.13724 -3.23558e-08 2.53588e-14)
(0.13724 -3.25438e-08 2.51922e-14)
(0.13724 -4.03093e-08 2.52716e-14)
(0.13724 -5.22673e-08 2.53064e-14)
(0.13724 -6.00114e-08 2.53302e-14)
(0.13724 -6.69916e-08 2.53441e-14)
(0.13724 -7.893e-08 2.51824e-14)
(0.13724 -9.27086e-08 2.52611e-14)
(0.13724 -1.00856e-07 2.52907e-14)
(0.13724 -1.06769e-07 2.53159e-14)
(0.13724 -1.11723e-07 2.5331e-14)
(0.13724 -1.15125e-07 2.52062e-14)
(0.13724 -1.16707e-07 2.52381e-14)
(0.137239 -1.1657e-07 2.52918e-14)
(0.137239 -1.14729e-07 2.52111e-14)
(0.137239 -1.11048e-07 2.52501e-14)
(0.137239 -1.05551e-07 2.50954e-14)
(0.137239 -9.82668e-08 2.51912e-14)
(0.137239 -8.84078e-08 2.5257e-14)
(0.137239 -7.66034e-08 2.5157e-14)
(0.137239 -6.1982e-08 2.51941e-14)
(0.137239 -3.19414e-08 2.51125e-14)
(0.137239 -7.18831e-08 2.51637e-14)
(0.136784 -1.573e-07 2.49483e-14)
(0.136784 -1.7951e-07 2.51139e-14)
(0.136784 -1.7508e-07 2.51175e-14)
(0.136784 -1.63961e-07 2.52009e-14)
(0.136785 -1.52597e-07 2.51387e-14)
(0.136785 -1.42071e-07 2.51794e-14)
(0.136785 -1.32683e-07 2.5202e-14)
(0.136785 -1.24265e-07 2.52519e-14)
(0.136785 -1.16455e-07 2.52075e-14)
(0.136785 -1.09039e-07 2.51685e-14)
(0.136785 -1.01826e-07 2.51858e-14)
(0.136785 -9.46362e-08 2.51572e-14)
(0.136785 -8.74632e-08 2.52254e-14)
(0.136785 -8.06999e-08 2.52334e-14)
(0.136785 -7.41597e-08 2.52675e-14)
(0.136785 -6.75919e-08 2.52445e-14)
(0.136785 -6.07169e-08 2.5281e-14)
(0.136785 -5.3595e-08 2.53688e-14)
(0.136785 -4.63362e-08 2.53592e-14)
(0.136785 -3.64045e-08 2.53681e-14)
(0.136785 -3.18436e-08 2.53821e-14)
(0.136785 -2.88637e-08 2.54038e-14)
(0.136785 -2.44356e-08 2.53975e-14)
(0.136786 -1.65364e-08 2.54542e-14)
(0.136786 4.22837e-09 2.54204e-14)
(0.136786 3.00588e-08 2.54543e-14)
(0.136786 5.36808e-08 2.55448e-14)
(0.136786 7.19535e-08 2.55458e-14)
(0.136786 8.52432e-08 2.55923e-14)
(0.136786 9.45504e-08 2.55953e-14)
(0.136786 1.00882e-07 2.56355e-14)
(0.136786 1.05212e-07 2.57308e-14)
(0.136786 1.08252e-07 2.57258e-14)
(0.136786 1.10012e-07 2.57387e-14)