/*--------------------------------*- C++ -*----------------------------------*\
  =========                 |
  \\      /  F ield         | OpenFOAM: The Open Source CFD Toolbox
   \\    /   O peration     | Website:  https://openfoam.org
    \\  /    A nd           | Version:  7
     \\/     M anipulation  |
\*---------------------------------------------------------------------------*/
FoamFile
{
    version     2.0;
    format      ascii;
    class       volScalarField;
    location    "20000";
    object      nut;
}
// * * * * * * * * * * * * * * * * * * * * * * * * * * * * * * * * * * * * * //

dimensions      [0 2 -1 0 0 0 0];

internalField   nonuniform List<scalar> 
3963
(
0.0013109
0.00131121
0.00131128
0.00131128
0.00131129
0.00131128
0.00131128
0.00131127
0.00131126
0.00131125
0.00131124
0.00131122
0.00131121
0.00131119
0.00131117
0.00131115
0.00131113
0.00131111
0.00131108
0.00131106
0.00131105
0.00131012
0.00131002
0.00130992
0.00130986
0.00130982
0.00130979
0.00130977
0.00130975
0.00130973
0.0013097
0.00130968
0.00130966
0.00130964
0.00130962
0.0013096
0.00130953
0.00125188
0.00125217
0.00125224
0.00125226
0.00125226
0.00125225
0.00125224
0.00125223
0.00125222
0.0012522
0.00125219
0.00125217
0.00125215
0.00125213
0.00125212
0.00125209
0.00125207
0.00125205
0.00125203
0.00125201
0.00125192
0.00125289
0.00125324
0.00125263
0.00125252
0.00125242
0.00125239
0.00125189
0.0012516
0.00125142
0.0012513
0.00125121
0.00125115
0.00125109
0.00125104
0.00125099
0.00125095
0.00125091
0.00125088
0.00125084
0.00125081
0.00125079
0.00125069
0.00119545
0.0011957
0.00119577
0.00119578
0.00119579
0.00119578
0.00119577
0.00119575
0.00119574
0.00119572
0.00119571
0.00119568
0.00119566
0.00119564
0.00119562
0.0011956
0.00119558
0.00119555
0.00119553
0.00119551
0.00119544
0.00119582
0.00119609
0.00119717
0.00119757
0.00119768
0.00119771
0.00119774
0.00119775
0.00119777
0.00119777
0.00119778
0.00119777
0.00119777
0.00119777
0.00119776
0.00119775
0.00119774
0.00119773
0.00119772
0.00119772
0.00119771
0.0011977
0.00119769
0.00119768
0.00119767
0.00119766
0.00119765
0.00119764
0.00119763
0.00119762
0.0011976
0.00119758
0.00119757
0.00119756
0.00119755
0.00119754
0.00119752
0.0011975
0.00119749
0.00119748
0.00119747
0.00119745
0.00119743
0.00119742
0.0011974
0.00119739
0.00119737
0.00119736
0.00119734
0.00119733
0.00119731
0.0011973
0.00119728
0.00119727
0.00119725
0.00119724
0.00119722
0.0011972
0.00119719
0.00119718
0.00119717
0.00119715
0.00119714
0.00119712
0.0011971
0.00119709
0.00119708
0.00119707
0.00119705
0.00119704
0.00119703
0.00119701
0.001197
0.00119699
0.00119699
0.00119697
0.00119696
0.00119695
0.00119696
0.00119652
0.00119627
0.00119613
0.00119606
0.0011958
0.00119555
0.00119534
0.0011952
0.00119508
0.00119499
0.0011949
0.00119484
0.00119478
0.00119472
0.00119467
0.00119462
0.00119458
0.00119454
0.00119451
0.0011944
0.00114154
0.00114175
0.0011418
0.00114182
0.00114182
0.00114181
0.00114179
0.00114178
0.00114177
0.00114175
0.00114173
0.00114171
0.00114169
0.00114167
0.00114165
0.00114163
0.00114161
0.00114158
0.00114156
0.00114154
0.00114149
0.00114162
0.00114177
0.0011423
0.00114272
0.00114295
0.00114307
0.00114315
0.00114321
0.00114324
0.00114328
0.0011433
0.00114332
0.00114333
0.00114335
0.00114335
0.00114335
0.00114335
0.00114336
0.00114336
0.00114336
0.00114335
0.00114336
0.00114335
0.00114335
0.00114334
0.00114333
0.00114333
0.00114332
0.00114331
0.0011433
0.00114329
0.00114329
0.00114328
0.00114327
0.00114326
0.00114325
0.00114324
0.00114323
0.00114322
0.00114321
0.00114319
0.00114318
0.00114317
0.00114316
0.00114315
0.00114314
0.00114313
0.00114311
0.0011431
0.00114309
0.00114307
0.00114306
0.00114305
0.00114303
0.00114302
0.00114301
0.001143
0.00114299
0.00114297
0.00114296
0.00114295
0.00114294
0.00114293
0.00114291
0.00114289
0.00114288
0.00114287
0.00114287
0.00114286
0.00114285
0.00114284
0.00114282
0.00114281
0.0011428
0.00114279
0.00114278
0.00114278
0.00114276
0.00114277
0.00114259
0.00114239
0.00114224
0.00114215
0.001142
0.00114182
0.00114163
0.00114149
0.00114137
0.00114127
0.00114117
0.00114109
0.00114102
0.00114096
0.0011409
0.00114085
0.00114079
0.00114075
0.00114071
0.0011406
0.00109007
0.00109026
0.0010903
0.00109031
0.0010903
0.00109029
0.00109028
0.00109026
0.00109024
0.00109023
0.00109021
0.00109019
0.00109018
0.00109015
0.00109013
0.00109011
0.00109009
0.00109006
0.00109004
0.00109002
0.00108998
0.00109002
0.00109008
0.00109034
0.00109063
0.00109085
0.00109102
0.00109112
0.0010912
0.00109126
0.0010913
0.00109135
0.00109138
0.0010914
0.00109142
0.00109144
0.00109145
0.00109147
0.00109147
0.00109148
0.00109148
0.00109148
0.00109148
0.00109149
0.00109149
0.00109149
0.00109149
0.00109148
0.00109148
0.00109148
0.00109147
0.00109148
0.00109147
0.00109146
0.00109146
0.00109145
0.00109144
0.00109143
0.00109142
0.00109142
0.00109141
0.0010914
0.00109139
0.00109138
0.00109137
0.00109136
0.00109135
0.00109134
0.00109133
0.00109132
0.00109131
0.0010913
0.00109129
0.00109128
0.00109127
0.00109126
0.00109124
0.00109123
0.00109122
0.00109121
0.0010912
0.00109119
0.00109118
0.00109117
0.00109116
0.00109115
0.00109114
0.00109113
0.00109112
0.00109111
0.00109111
0.0010911
0.00109109
0.00109108
0.00109107
0.00109106
0.00109106
0.00109104
0.00109103
0.00109103
0.00109097
0.00109084
0.00109073
0.00109063
0.00109053
0.0010904
0.00109026
0.00109013
0.00109002
0.00108991
0.00108982
0.00108974
0.00108967
0.0010896
0.00108954
0.00108948
0.00108943
0.00108938
0.00108934
0.00108923
0.00104097
0.00104113
0.00104116
0.00104116
0.00104115
0.00104115
0.00104113
0.00104112
0.0010411
0.00104109
0.00104106
0.00104105
0.00104103
0.00104101
0.00104099
0.00104097
0.00104095
0.00104092
0.0010409
0.00104088
0.00104085
0.00104085
0.00104087
0.00104098
0.00104115
0.00104132
0.00104147
0.00104158
0.00104167
0.00104174
0.00104179
0.00104184
0.00104187
0.00104191
0.00104194
0.00104196
0.00104197
0.00104199
0.001042
0.00104201
0.00104202
0.00104203
0.00104204
0.00104204
0.00104205
0.00104205
0.00104206
0.00104206
0.00104206
0.00104205
0.00104205
0.00104205
0.00104205
0.00104204
0.00104204
0.00104204
0.00104204
0.00104203
0.00104202
0.00104202
0.00104201
0.001042
0.00104199
0.00104199
0.00104198
0.00104198
0.00104197
0.00104196
0.00104195
0.00104194
0.00104193
0.00104192
0.00104191
0.0010419
0.00104189
0.00104189
0.00104188
0.00104187
0.00104186
0.00104185
0.00104185
0.00104184
0.00104183
0.00104182
0.00104181
0.0010418
0.00104179
0.00104178
0.00104177
0.00104177
0.00104176
0.00104175
0.00104174
0.00104173
0.00104173
0.00104172
0.00104171
0.0010417
0.0010417
0.0010417
0.00104167
0.00104161
0.00104153
0.00104145
0.00104137
0.00104128
0.00104118
0.00104107
0.00104098
0.00104088
0.0010408
0.00104072
0.00104065
0.00104058
0.00104053
0.00104047
0.00104041
0.00104037
0.00104033
0.00104021
0.000994141
0.000994287
0.000994312
0.000994315
0.000994302
0.000994297
0.000994284
0.000994271
0.000994251
0.000994238
0.000994217
0.000994204
0.000994183
0.000994162
0.000994141
0.000994127
0.000994106
0.000994084
0.000994063
0.000994041
0.000994019
0.000994004
0.000993997
0.000994042
0.000994125
0.00099424
0.000994347
0.000994447
0.000994524
0.000994594
0.000994649
0.000994697
0.000994737
0.000994769
0.000994801
0.000994826
0.000994842
0.000994867
0.000994883
0.000994892
0.000994909
0.000994918
0.000994926
0.000994935
0.000994943
0.000994944
0.000994953
0.000994953
0.000994954
0.000994954
0.000994962
0.000994963
0.000994955
0.000994956
0.000994956
0.000994956
0.000994949
0.000994949
0.000994941
0.000994941
0.000994933
0.000994933
0.000994925
0.000994917
0.000994917
0.000994909
0.000994901
0.000994893
0.000994893
0.000994885
0.000994877
0.000994869
0.00099486
0.000994852
0.000994844
0.000994836
0.000994835
0.000994827
0.000994818
0.00099481
0.000994802
0.000994793
0.000994785
0.000994784
0.000994775
0.000994767
0.000994758
0.00099475
0.000994749
0.00099474
0.000994732
0.000994723
0.000994722
0.000994714
0.000994705
0.000994704
0.000994695
0.000994687
0.000994678
0.000994677
0.000994661
0.00099463
0.000994583
0.000994529
0.000994475
0.000994405
0.000994335
0.00099425
0.000994172
0.000994094
0.000994023
0.000993952
0.000993889
0.000993825
0.000993769
0.00099372
0.000993664
0.000993615
0.000993581
0.000993471
0.000949516
0.000949649
0.000949672
0.000949667
0.000949656
0.000949645
0.000949634
0.000949623
0.000949611
0.000949593
0.000949574
0.000949556
0.000949544
0.000949525
0.000949506
0.000949487
0.000949468
0.000949449
0.000949429
0.00094941
0.00094939
0.00094937
0.000949357
0.000949364
0.000949405
0.000949467
0.000949536
0.000949611
0.000949674
0.00094973
0.000949779
0.000949828
0.000949864
0.0009499
0.000949928
0.000949957
0.000949979
0.000949994
0.000950015
0.00095003
0.000950045
0.000950052
0.000950067
0.000950074
0.000950082
0.000950089
0.000950097
0.000950097
0.000950105
0.000950105
0.000950105
0.000950112
0.000950113
0.000950113
0.000950113
0.000950113
0.000950106
0.000950106
0.000950106
0.000950106
0.000950099
0.000950099
0.000950092
0.000950092
0.000950085
0.000950077
0.000950077
0.00095007
0.000950063
0.000950062
0.000950055
0.000950048
0.00095004
0.00095004
0.000950032
0.000950025
0.000950017
0.00095001
0.000950009
0.000950002
0.000949994
0.000949986
0.000949979
0.000949978
0.00094997
0.000949963
0.000949955
0.000949954
0.000949946
0.000949939
0.000949938
0.00094993
0.000949922
0.000949921
0.000949914
0.000949906
0.000949905
0.000949897
0.000949896
0.000949888
0.000949881
0.000949866
0.000949838
0.000949803
0.000949761
0.000949712
0.000949663
0.0009496
0.000949543
0.00094948
0.000949416
0.00094936
0.000949303
0.000949252
0.000949195
0.000949151
0.000949101
0.000949056
0.000949019
0.00094892
0.000907001
0.000907114
0.000907135
0.000907131
0.000907122
0.000907112
0.000907102
0.000907092
0.000907076
0.000907059
0.000907049
0.000907033
0.000907016
0.000906999
0.000906982
0.000906965
0.000906948
0.000906931
0.000906913
0.000906895
0.000906872
0.000906854
0.000906836
0.00090683
0.000906842
0.000906874
0.000906917
0.000906961
0.000907011
0.000907055
0.000907099
0.000907137
0.000907169
0.000907201
0.000907226
0.000907252
0.000907271
0.000907291
0.00090731
0.000907323
0.000907336
0.000907349
0.000907362
0.000907369
0.000907376
0.000907382
0.000907389
0.000907396
0.000907402
0.000907402
0.000907409
0.000907409
0.000907415
0.000907415
0.000907416
0.000907416
0.000907416
0.000907416
0.000907415
0.000907409
0.000907409
0.000907409
0.000907403
0.000907402
0.000907402
0.000907396
0.000907395
0.000907389
0.000907382
0.000907382
0.000907375
0.000907369
0.000907368
0.000907362
0.000907355
0.000907354
0.000907348
0.000907341
0.00090734
0.000907333
0.000907326
0.00090732
0.000907319
0.000907312
0.000907305
0.000907304
0.000907297
0.000907291
0.00090729
0.000907283
0.000907282
0.000907275
0.000907268
0.000907267
0.00090726
0.000907259
0.000907252
0.000907245
0.000907244
0.000907237
0.000907236
0.000907223
0.00090721
0.000907184
0.000907159
0.000907127
0.000907089
0.000907051
0.000907
0.000906955
0.000906904
0.000906859
0.000906808
0.000906763
0.000906717
0.000906678
0.000906632
0.000906592
0.000906559
0.000906469
0.000866503
0.000866599
0.000866618
0.000866615
0.000866606
0.000866598
0.000866589
0.000866575
0.000866566
0.000866551
0.000866536
0.000866522
0.000866507
0.000866492
0.000866476
0.000866461
0.000866446
0.00086643
0.000866414
0.000866399
0.000866383
0.000866361
0.000866345
0.000866334
0.000866334
0.00086634
0.000866363
0.000866391
0.00086642
0.000866454
0.000866482
0.000866511
0.000866539
0.000866568
0.000866591
0.000866609
0.000866632
0.000866649
0.000866661
0.000866678
0.00086669
0.000866701
0.000866713
0.000866719
0.000866731
0.000866737
0.000866742
0.000866748
0.000866754
0.00086676
0.00086676
0.000866766
0.000866766
0.000866772
0.000866772
0.000866772
0.000866772
0.000866772
0.000866772
0.000866772
0.000866771
0.000866771
0.000866766
0.000866765
0.000866765
0.000866759
0.000866759
0.000866753
0.000866753
0.000866747
0.000866747
0.000866741
0.00086674
0.000866734
0.000866734
0.000866728
0.000866722
0.000866721
0.000866715
0.000866709
0.000866708
0.000866702
0.000866696
0.000866695
0.000866689
0.000866688
0.000866682
0.000866676
0.000866675
0.000866669
0.000866668
0.000866662
0.000866661
0.000866655
0.000866654
0.000866648
0.000866647
0.00086664
0.000866639
0.000866633
0.000866632
0.000866626
0.000866614
0.000866602
0.000866584
0.000866561
0.000866538
0.000866503
0.000866474
0.000866434
0.000866399
0.000866359
0.000866323
0.000866283
0.000866247
0.000866206
0.00086617
0.000866135
0.00086611
0.000866023
0.000827921
0.000828009
0.000828026
0.000828023
0.000828015
0.000828008
0.000828
0.000827992
0.000827979
0.000827966
0.000827953
0.000827945
0.000827931
0.000827918
0.000827904
0.00082789
0.000827876
0.000827857
0.000827843
0.000827829
0.000827814
0.0008278
0.00082778
0.000827771
0.000827761
0.000827756
0.000827762
0.000827777
0.000827793
0.000827814
0.000827834
0.00082786
0.000827881
0.000827897
0.000827917
0.000827933
0.000827954
0.000827964
0.00082798
0.000827996
0.000828006
0.000828017
0.000828022
0.000828033
0.000828043
0.000828048
0.000828054
0.000828059
0.000828064
0.000828069
0.000828074
0.000828075
0.00082808
0.00082808
0.00082808
0.000828085
0.000828085
0.000828085
0.000828085
0.000828085
0.000828085
0.000828085
0.000828085
0.000828085
0.000828079
0.000828079
0.000828079
0.000828074
0.000828073
0.000828068
0.000828068
0.000828062
0.000828062
0.000828057
0.000828056
0.000828051
0.00082805
0.000828045
0.000828045
0.000828039
0.000828033
0.000828033
0.000828027
0.000828027
0.000828021
0.000828021
0.000828015
0.000828014
0.000828009
0.000828008
0.000828002
0.000828002
0.000827996
0.000827995
0.00082799
0.000827989
0.000827983
0.000827982
0.000827981
0.000827976
0.000827975
0.000827969
0.000827963
0.000827952
0.000827942
0.000827931
0.000827909
0.000827888
0.000827867
0.000827841
0.000827809
0.000827782
0.000827751
0.000827719
0.000827687
0.00082766
0.000827627
0.000827595
0.000827573
0.000827494
0.000791168
0.000791247
0.000791262
0.00079126
0.000791257
0.00079125
0.000791243
0.000791236
0.000791225
0.000791213
0.000791206
0.000791194
0.000791181
0.000791169
0.000791157
0.000791144
0.000791132
0.000791119
0.000791106
0.000791093
0.00079108
0.000791063
0.00079105
0.000791036
0.000791028
0.000791019
0.000791015
0.00079102
0.000791029
0.000791039
0.000791053
0.000791067
0.000791082
0.000791096
0.00079111
0.000791124
0.000791134
0.000791148
0.000791158
0.000791172
0.000791181
0.000791191
0.000791196
0.000791205
0.00079121
0.000791219
0.000791224
0.000791229
0.000791234
0.000791238
0.000791238
0.000791243
0.000791248
0.000791248
0.000791253
0.000791253
0.000791253
0.000791253
0.000791253
0.000791253
0.000791253
0.000791253
0.000791253
0.000791253
0.000791253
0.000791253
0.000791248
0.000791248
0.000791248
0.000791243
0.000791243
0.000791242
0.000791238
0.000791237
0.000791232
0.000791232
0.000791227
0.000791227
0.000791222
0.000791222
0.000791217
0.000791216
0.000791211
0.000791211
0.000791206
0.000791205
0.0007912
0.000791199
0.000791199
0.000791194
0.000791193
0.000791188
0.000791187
0.000791182
0.000791182
0.000791181
0.000791176
0.000791175
0.00079117
0.000791169
0.000791168
0.000791163
0.000791158
0.000791153
0.000791147
0.000791137
0.000791123
0.000791108
0.000791093
0.000791074
0.000791054
0.00079103
0.000791006
0.000790981
0.000790957
0.000790932
0.000790908
0.000790878
0.000790863
0.000790792
0.000756152
0.000756227
0.000756241
0.000756238
0.000756236
0.00075623
0.000756223
0.000756217
0.000756211
0.0007562
0.000756193
0.000756182
0.000756171
0.00075616
0.000756153
0.000756142
0.000756131
0.000756119
0.000756107
0.000756096
0.000756084
0.000756068
0.000756056
0.000756044
0.000756032
0.000756024
0.000756016
0.000756016
0.000756017
0.000756021
0.000756026
0.000756035
0.000756044
0.000756053
0.000756065
0.000756074
0.000756083
0.000756092
0.0007561
0.000756109
0.000756117
0.000756126
0.000756131
0.000756139
0.000756144
0.000756148
0.000756152
0.000756157
0.000756161
0.000756165
0.00075617
0.00075617
0.000756174
0.000756179
0.000756179
0.000756179
0.000756183
0.000756183
0.000756184
0.000756184
0.000756184
0.000756184
0.000756184
0.000756184
0.000756184
0.000756184
0.000756184
0.00075618
0.000756179
0.000756179
0.000756175
0.000756175
0.000756175
0.00075617
0.00075617
0.000756166
0.000756166
0.000756165
0.000756161
0.000756161
0.000756156
0.000756156
0.000756151
0.000756151
0.000756151
0.000756146
0.000756146
0.000756141
0.000756141
0.00075614
0.000756135
0.000756135
0.000756134
0.00075613
0.000756129
0.000756124
0.000756124
0.000756123
0.000756119
0.000756118
0.000756117
0.000756112
0.000756112
0.000756107
0.000756102
0.000756093
0.000756088
0.000756075
0.000756065
0.000756052
0.000756034
0.00075602
0.000755998
0.00075598
0.000755962
0.00075594
0.000755921
0.000755899
0.000755884
0.00075582
0.000722787
0.00072285
0.000722863
0.000722865
0.000722863
0.000722861
0.000722855
0.000722849
0.000722843
0.000722837
0.000722827
0.000722821
0.000722811
0.000722801
0.000722794
0.000722784
0.000722774
0.000722763
0.000722753
0.000722746
0.000722731
0.00072272
0.000722709
0.000722698
0.000722687
0.00072268
0.000722669
0.000722666
0.000722662
0.000722663
0.000722663
0.000722668
0.000722672
0.000722676
0.000722684
0.000722688
0.000722696
0.000722704
0.000722708
0.000722716
0.00072272
0.000722728
0.000722732
0.000722736
0.000722744
0.000722748
0.000722752
0.000722756
0.000722757
0.000722761
0.000722765
0.000722765
0.000722769
0.000722773
0.000722773
0.000722774
0.000722778
0.000722778
0.000722778
0.000722778
0.000722778
0.000722779
0.000722779
0.000722779
0.000722779
0.000722779
0.000722779
0.000722775
0.000722775
0.000722775
0.000722775
0.000722772
0.000722771
0.000722771
0.000722768
0.000722767
0.000722767
0.000722763
0.000722763
0.000722763
0.000722759
0.000722759
0.000722755
0.000722754
0.000722754
0.00072275
0.00072275
0.000722749
0.000722745
0.000722745
0.000722744
0.00072274
0.00072274
0.000722739
0.000722735
0.000722735
0.000722734
0.000722733
0.000722729
0.000722729
0.000722728
0.000722724
0.000722723
0.000722719
0.000722714
0.00072271
0.000722705
0.000722697
0.000722688
0.00072268
0.000722667
0.000722655
0.000722642
0.000722629
0.000722613
0.000722596
0.000722579
0.000722562
0.000722549
0.000722495
0.000690978
0.000691036
0.000691051
0.000691052
0.00069105
0.000691048
0.000691043
0.000691041
0.000691035
0.000691029
0.000691024
0.000691015
0.000691009
0.000691
0.000690994
0.000690984
0.000690978
0.000690969
0.000690959
0.000690952
0.000690943
0.000690933
0.000690923
0.000690913
0.000690903
0.000690893
0.000690883
0.000690876
0.000690873
0.00069087
0.000690867
0.000690867
0.000690868
0.000690872
0.000690876
0.000690879
0.000690883
0.000690887
0.000690891
0.000690895
0.000690899
0.000690902
0.000690906
0.00069091
0.000690914
0.000690918
0.000690921
0.000690925
0.000690929
0.000690929
0.000690933
0.000690937
0.000690937
0.000690938
0.000690942
0.000690942
0.000690942
0.000690946
0.000690946
0.000690947
0.000690947
0.000690947
0.000690947
0.000690948
0.000690948
0.000690948
0.000690948
0.000690945
0.000690945
0.000690945
0.000690945
0.000690942
0.000690942
0.000690942
0.000690942
0.000690938
0.000690938
0.000690938
0.000690935
0.000690935
0.000690935
0.000690931
0.000690931
0.000690931
0.000690927
0.000690927
0.000690927
0.000690926
0.000690923
0.000690922
0.000690922
0.000690918
0.000690918
0.000690917
0.000690917
0.000690913
0.000690913
0.000690912
0.000690912
0.000690908
0.000690907
0.000690907
0.000690903
0.000690902
0.000690898
0.000690897
0.000690893
0.000690885
0.000690881
0.000690873
0.000690865
0.000690857
0.000690846
0.000690834
0.000690822
0.000690811
0.000690795
0.00069078
0.000690775
0.000690722
0.000660648
0.000660697
0.00066071
0.000660711
0.000660712
0.00066071
0.000660708
0.000660703
0.000660701
0.000660696
0.00066069
0.000660685
0.00066068
0.000660671
0.000660666
0.00066066
0.000660651
0.000660645
0.000660637
0.000660631
0.000660622
0.000660613
0.000660604
0.000660597
0.000660588
0.000660579
0.00066057
0.000660564
0.000660558
0.000660552
0.000660549
0.000660549
0.000660547
0.000660547
0.000660547
0.000660548
0.000660551
0.000660555
0.000660555
0.000660559
0.000660562
0.000660563
0.000660567
0.00066057
0.000660574
0.000660574
0.000660578
0.000660581
0.000660582
0.000660585
0.000660586
0.000660589
0.00066059
0.000660591
0.000660594
0.000660595
0.000660595
0.000660595
0.000660599
0.000660599
0.0006606
0.0006606
0.0006606
0.000660601
0.000660601
0.000660601
0.000660599
0.000660599
0.000660599
0.000660599
0.000660599
0.000660597
0.000660597
0.000660597
0.000660597
0.000660594
0.000660594
0.000660594
0.000660591
0.000660591
0.000660591
0.000660591
0.000660588
0.000660588
0.000660587
0.000660587
0.000660584
0.000660584
0.000660584
0.000660583
0.00066058
0.00066058
0.000660579
0.000660579
0.000660579
0.000660575
0.000660575
0.000660574
0.000660574
0.00066057
0.00066057
0.000660569
0.000660566
0.000660565
0.000660565
0.000660561
0.000660557
0.000660553
0.000660549
0.000660545
0.000660538
0.000660531
0.000660523
0.000660516
0.000660505
0.000660497
0.000660486
0.000660472
0.000660467
0.000660422
0.000631705
0.000631749
0.00063176
0.000631761
0.000631762
0.000631763
0.000631761
0.000631759
0.000631757
0.000631752
0.000631749
0.000631744
0.000631739
0.000631734
0.000631729
0.000631724
0.000631719
0.00063171
0.000631705
0.000631699
0.000631691
0.000631683
0.000631677
0.000631669
0.00063166
0.000631655
0.000631646
0.00063164
0.000631632
0.000631627
0.000631624
0.000631621
0.000631619
0.000631616
0.000631617
0.000631614
0.000631615
0.000631618
0.000631619
0.000631619
0.00063162
0.000631623
0.000631623
0.000631627
0.000631627
0.000631631
0.000631631
0.000631635
0.000631635
0.000631636
0.000631639
0.00063164
0.000631641
0.000631644
0.000631645
0.000631645
0.000631646
0.000631646
0.00063165
0.00063165
0.000631651
0.000631651
0.000631652
0.000631652
0.00063165
0.00063165
0.000631651
0.000631651
0.000631651
0.000631652
0.000631649
0.000631649
0.00063165
0.00063165
0.00063165
0.000631648
0.000631648
0.000631648
0.000631648
0.000631645
0.000631645
0.000631645
0.000631645
0.000631642
0.000631642
0.000631642
0.000631642
0.000631642
0.000631639
0.000631639
0.000631639
0.000631639
0.000631638
0.000631635
0.000631635
0.000631635
0.000631634
0.000631634
0.000631631
0.00063163
0.00063163
0.000631629
0.000631626
0.000631626
0.000631625
0.000631622
0.000631621
0.000631618
0.000631614
0.00063161
0.000631606
0.0006316
0.000631596
0.000631589
0.000631582
0.000631572
0.000631564
0.000631554
0.00063155
0.000631511
0.000604074
0.000604114
0.000604122
0.000604125
0.000604128
0.000604126
0.000604126
0.000604124
0.000604122
0.00060412
0.000604118
0.000604113
0.000604108
0.000604106
0.000604101
0.000604096
0.000604091
0.000604086
0.000604081
0.000604076
0.000604068
0.000604063
0.000604058
0.00060405
0.000604045
0.000604037
0.000604029
0.000604024
0.000604018
0.000604013
0.000604008
0.000604003
0.000604001
0.000603999
0.000603996
0.000603994
0.000603995
0.000603995
0.000603993
0.000603994
0.000603994
0.000603997
0.000603998
0.000603998
0.000603999
0.000604
0.000604003
0.000604004
0.000604004
0.000604005
0.000604008
0.000604009
0.00060401
0.000604011
0.000604011
0.000604012
0.000604015
0.000604016
0.000604017
0.000604017
0.000604018
0.000604018
0.000604019
0.00060402
0.000604018
0.000604018
0.000604019
0.000604019
0.00060402
0.00060402
0.000604018
0.000604018
0.000604019
0.000604019
0.000604019
0.000604017
0.000604017
0.000604017
0.000604018
0.000604018
0.000604015
0.000604015
0.000604016
0.000604016
0.000604016
0.000604013
0.000604013
0.000604013
0.000604013
0.000604013
0.000604013
0.000604013
0.00060401
0.00060401
0.000604009
0.000604009
0.000604009
0.000604009
0.000604006
0.000604005
0.000604005
0.000604005
0.000604002
0.000604001
0.000604001
0.000603998
0.000603997
0.000603994
0.000603993
0.00060399
0.000603986
0.000603983
0.000603976
0.000603973
0.000603966
0.000603959
0.000603953
0.000603946
0.000603941
0.000603909
0.000577677
0.000577711
0.00057772
0.000577723
0.000577725
0.000577725
0.000577725
0.000577726
0.000577723
0.000577721
0.000577719
0.000577717
0.000577712
0.00057771
0.000577705
0.000577701
0.000577698
0.000577694
0.000577689
0.000577684
0.000577679
0.000577675
0.00057767
0.000577663
0.000577658
0.000577653
0.000577645
0.000577641
0.000577636
0.000577631
0.000577626
0.000577621
0.000577617
0.000577615
0.000577612
0.00057761
0.000577608
0.000577607
0.000577607
0.000577605
0.000577606
0.000577607
0.000577607
0.000577608
0.000577609
0.000577609
0.00057761
0.000577611
0.000577612
0.000577613
0.000577613
0.000577614
0.000577615
0.000577618
0.000577619
0.00057762
0.000577621
0.000577621
0.000577622
0.000577623
0.000577624
0.000577624
0.000577623
0.000577623
0.000577624
0.000577625
0.000577625
0.000577626
0.000577626
0.000577625
0.000577625
0.000577626
0.000577626
0.000577627
0.000577625
0.000577625
0.000577625
0.000577626
0.000577626
0.000577624
0.000577624
0.000577624
0.000577624
0.000577625
0.000577625
0.000577625
0.000577623
0.000577623
0.000577623
0.000577623
0.000577622
0.000577622
0.000577622
0.000577622
0.000577622
0.000577619
0.000577619
0.000577619
0.000577619
0.000577618
0.000577616
0.000577615
0.000577615
0.000577615
0.000577612
0.000577611
0.000577611
0.000577608
0.000577607
0.000577604
0.000577601
0.000577598
0.000577594
0.000577591
0.000577587
0.000577581
0.000577577
0.000577568
0.000577567
0.000577537
0.000552444
0.000552472
0.00055248
0.000552482
0.000552484
0.000552484
0.000552486
0.000552486
0.000552484
0.000552484
0.000552481
0.000552479
0.000552477
0.000552473
0.00055247
0.000552468
0.000552464
0.000552461
0.000552457
0.000552454
0.00055245
0.000552445
0.000552441
0.000552436
0.00055243
0.000552425
0.00055242
0.000552416
0.000552411
0.000552407
0.000552402
0.000552398
0.000552393
0.000552389
0.000552387
0.000552385
0.000552384
0.000552382
0.00055238
0.000552381
0.000552379
0.00055238
0.000552378
0.000552379
0.00055238
0.000552381
0.000552382
0.000552383
0.000552381
0.000552382
0.000552383
0.000552384
0.000552385
0.000552386
0.000552387
0.000552388
0.000552389
0.000552389
0.00055239
0.000552391
0.000552392
0.000552393
0.000552394
0.000552394
0.000552393
0.000552394
0.000552395
0.000552395
0.000552396
0.000552396
0.000552395
0.000552396
0.000552396
0.000552397
0.000552397
0.000552397
0.000552396
0.000552396
0.000552397
0.000552397
0.000552397
0.000552397
0.000552396
0.000552396
0.000552396
0.000552396
0.000552396
0.000552396
0.000552396
0.000552396
0.000552396
0.000552396
0.000552396
0.000552394
0.000552394
0.000552394
0.000552394
0.000552394
0.000552393
0.000552393
0.000552391
0.000552391
0.00055239
0.00055239
0.000552387
0.000552387
0.000552386
0.000552384
0.000552383
0.00055238
0.000552379
0.000552376
0.000552373
0.00055237
0.000552367
0.000552363
0.000552357
0.000552354
0.000552352
0.000552327
0.0005283
0.000528323
0.00052833
0.000528332
0.000528334
0.000528335
0.000528337
0.000528336
0.000528336
0.000528336
0.000528334
0.000528331
0.000528329
0.000528327
0.000528325
0.000528322
0.00052832
0.000528318
0.000528315
0.000528311
0.000528309
0.000528305
0.0005283
0.000528296
0.000528292
0.000528288
0.000528283
0.000528279
0.000528275
0.00052827
0.000528266
0.000528262
0.000528258
0.000528256
0.000528252
0.00052825
0.000528249
0.000528247
0.000528246
0.000528244
0.000528243
0.000528244
0.000528242
0.000528243
0.000528242
0.000528243
0.000528244
0.000528245
0.000528246
0.000528245
0.000528246
0.000528247
0.000528248
0.000528249
0.00052825
0.000528251
0.000528252
0.000528251
0.000528252
0.000528253
0.000528254
0.000528255
0.000528255
0.000528256
0.000528255
0.000528256
0.000528257
0.000528258
0.000528258
0.000528259
0.000528258
0.000528258
0.000528259
0.00052826
0.00052826
0.000528261
0.000528259
0.00052826
0.00052826
0.000528261
0.000528261
0.000528261
0.000528262
0.000528262
0.00052826
0.00052826
0.000528261
0.000528261
0.000528261
0.000528261
0.000528261
0.000528261
0.000528261
0.000528261
0.000528261
0.000528261
0.000528261
0.000528261
0.000528259
0.000528258
0.000528258
0.000528258
0.000528258
0.000528255
0.000528255
0.000528255
0.000528252
0.000528252
0.000528251
0.000528249
0.000528248
0.000528245
0.000528244
0.000528241
0.000528238
0.000528235
0.000528231
0.000528226
0.000528224
0.000528203
0.000505182
0.000505199
0.000505206
0.000505209
0.00050521
0.000505211
0.000505212
0.000505212
0.000505213
0.000505212
0.00050521
0.00050521
0.000505207
0.000505205
0.000505204
0.000505202
0.0005052
0.000505198
0.000505195
0.000505193
0.000505189
0.000505187
0.000505183
0.000505181
0.000505177
0.000505173
0.000505169
0.000505167
0.000505163
0.000505159
0.000505155
0.000505151
0.000505147
0.000505143
0.000505142
0.000505138
0.000505137
0.000505135
0.000505134
0.000505133
0.000505131
0.000505132
0.000505131
0.00050513
0.000505131
0.000505132
0.000505131
0.000505132
0.000505133
0.000505132
0.000505133
0.000505134
0.000505135
0.000505136
0.000505136
0.000505137
0.000505138
0.000505139
0.00050514
0.000505141
0.00050514
0.000505141
0.000505142
0.000505143
0.000505144
0.000505143
0.000505144
0.000505145
0.000505146
0.000505146
0.000505147
0.000505146
0.000505147
0.000505148
0.000505148
0.000505149
0.000505149
0.00050515
0.000505149
0.000505149
0.00050515
0.00050515
0.00050515
0.000505151
0.000505151
0.000505151
0.000505151
0.000505152
0.000505152
0.000505152
0.000505152
0.000505152
0.000505152
0.000505152
0.000505152
0.000505151
0.00050515
0.00050515
0.00050515
0.00050515
0.00050515
0.00050515
0.000505148
0.000505147
0.000505147
0.000505147
0.000505145
0.000505144
0.000505143
0.000505143
0.00050514
0.00050514
0.000505137
0.000505134
0.000505131
0.00050513
0.000505127
0.000505122
0.00050512
0.000505103
0.000483024
0.000483039
0.000483043
0.000483045
0.000483047
0.000483048
0.000483049
0.00048305
0.000483049
0.00048305
0.000483048
0.000483047
0.000483046
0.000483044
0.000483044
0.000483041
0.000483041
0.000483038
0.000483036
0.000483034
0.000483032
0.00048303
0.000483026
0.000483024
0.000483022
0.000483018
0.000483015
0.000483012
0.000483009
0.000483005
0.000483001