/*--------------------------------*- C++ -*----------------------------------*\
  =========                 |
  \\      /  F ield         | OpenFOAM: The Open Source CFD Toolbox
   \\    /   O peration     | Website:  https://openfoam.org
    \\  /    A nd           | Version:  7
     \\/     M anipulation  |
\*---------------------------------------------------------------------------*/
FoamFile
{
    version     2.0;
    format      ascii;
    class       volScalarField;
    location    "20000";
    object      omega;
}
// * * * * * * * * * * * * * * * * * * * * * * * * * * * * * * * * * * * * * //

dimensions      [0 0 -1 0 0 0 0];

internalField   nonuniform List<scalar> 
3963
(
0.0914458
0.0914243
0.0914201
0.0914196
0.0914197
0.0914201
0.0914207
0.0914213
0.0914222
0.0914231
0.0914241
0.0914252
0.0914264
0.0914277
0.0914291
0.0914306
0.0914321
0.0914337
0.0914354
0.0914371
0.0914378
0.0915077
0.0915143
0.0915207
0.0915242
0.0915263
0.0915278
0.091529
0.0915302
0.0915312
0.0915323
0.0915333
0.0915343
0.0915354
0.0915365
0.0915371
0.0915419
0.0970385
0.0970161
0.0970109
0.09701
0.0970103
0.097011
0.0970118
0.0970128
0.0970139
0.0970152
0.0970165
0.0970179
0.0970194
0.097021
0.0970226
0.0970244
0.0970261
0.097028
0.0970299
0.0970315
0.0970382
0.0969635
0.096937
0.0969906
0.0969982
0.0970057
0.0970076
0.0970461
0.0970678
0.0970809
0.0970896
0.0970959
0.0971007
0.0971046
0.097108
0.097111
0.0971137
0.0971162
0.0971185
0.0971207
0.0971229
0.0971243
0.097131
0.10298
0.102959
0.102953
0.102952
0.102952
0.102953
0.102954
0.102956
0.102957
0.102959
0.10296
0.102962
0.102964
0.102966
0.102968
0.10297
0.102972
0.102974
0.102976
0.102978
0.102984
0.102951
0.102928
0.102836
0.102802
0.102793
0.102791
0.102789
0.102789
0.102788
0.102788
0.102788
0.102789
0.102789
0.10279
0.102791
0.102792
0.102793
0.102794
0.102795
0.102796
0.102797
0.102798
0.102799
0.1028
0.102801
0.102802
0.102803
0.102804
0.102805
0.102806
0.102807
0.102809
0.10281
0.102811
0.102812
0.102813
0.102815
0.102816
0.102817
0.102818
0.102819
0.102821
0.102822
0.102823
0.102825
0.102826
0.102827
0.102828
0.10283
0.102831
0.102832
0.102833
0.102835
0.102836
0.102837
0.102838
0.10284
0.102841
0.102842
0.102843
0.102844
0.102845
0.102846
0.102848
0.102849
0.10285
0.102851
0.102852
0.102853
0.102854
0.102855
0.102856
0.102857
0.102858
0.102858
0.102859
0.10286
0.102861
0.10286
0.102897
0.102918
0.10293
0.102936
0.102958
0.102979
0.102996
0.103008
0.103018
0.103025
0.103032
0.103037
0.103042
0.103046
0.10305
0.103054
0.103057
0.10306
0.103062
0.103071
0.109286
0.109266
0.109261
0.10926
0.10926
0.109261
0.109263
0.109264
0.109266
0.109268
0.10927
0.109272
0.109274
0.109276
0.109278
0.10928
0.109282
0.109285
0.109287
0.109289
0.109294
0.109282
0.109267
0.109216
0.109177
0.109155
0.109144
0.109137
0.109132
0.109129
0.109126
0.109124
0.109123
0.109122
0.109121
0.109121
0.109121
0.109121
0.109121
0.109121
0.109121
0.109122
0.109122
0.109123
0.109123
0.109124
0.109125
0.109125
0.109126
0.109127
0.109128
0.109129
0.109129
0.10913
0.109131
0.109132
0.109133
0.109134
0.109135
0.109136
0.109137
0.109139
0.10914
0.109141
0.109142
0.109143
0.109144
0.109145
0.109147
0.109148
0.109149
0.10915
0.109151
0.109152
0.109154
0.109155
0.109156
0.109157
0.109158
0.109159
0.10916
0.109161
0.109162
0.109163
0.109165
0.109166
0.109167
0.109168
0.109168
0.109169
0.10917
0.109171
0.109172
0.109173
0.109174
0.109175
0.109176
0.109176
0.109177
0.109176
0.109193
0.109212
0.109226
0.109235
0.109249
0.109266
0.109283
0.109296
0.109308
0.109317
0.109326
0.109333
0.109339
0.109345
0.10935
0.109354
0.109359
0.109363
0.109366
0.109376
0.115972
0.115952
0.115948
0.115947
0.115948
0.115949
0.115951
0.115953
0.115955
0.115957
0.115959
0.115961
0.115963
0.115966
0.115968
0.115971
0.115973
0.115976
0.115978
0.115981
0.115985
0.115981
0.115974
0.115947
0.115916
0.115892
0.115875
0.115864
0.115856
0.11585
0.115846
0.115842
0.115839
0.115837
0.115835
0.115833
0.115832
0.115831
0.115831
0.11583
0.11583
0.11583
0.11583
0.11583
0.11583
0.11583
0.11583
0.115831
0.115831
0.115831
0.115832
0.115832
0.115833
0.115834
0.115834
0.115835
0.115836
0.115837
0.115838
0.115838
0.115839
0.11584
0.115841
0.115842
0.115843
0.115844
0.115845
0.115846
0.115847
0.115848
0.115849
0.115851
0.115852
0.115853
0.115854
0.115855
0.115856
0.115857
0.115858
0.115859
0.11586
0.115861
0.115862
0.115863
0.115864
0.115865
0.115866
0.115867
0.115868
0.115869
0.115869
0.11587
0.115871
0.115872
0.115873
0.115874
0.115874
0.115875
0.115876
0.115876
0.115883
0.115896
0.115908
0.115918
0.115929
0.115942
0.115957
0.11597
0.115982
0.115993
0.116002
0.11601
0.116017
0.116024
0.11603
0.116036
0.116041
0.116046
0.11605
0.116061
0.123052
0.123033
0.12303
0.12303
0.123031
0.123032
0.123034
0.123036
0.123038
0.12304
0.123043
0.123045
0.123048
0.12305
0.123053
0.123055
0.123058
0.123061
0.123064
0.123066
0.12307
0.12307
0.123068
0.123055
0.123034
0.123014
0.122997
0.122984
0.122974
0.122966
0.12296
0.122955
0.122951
0.122947
0.122944
0.122942
0.12294
0.122938
0.122937
0.122936
0.122935
0.122934
0.122933
0.122933
0.122933
0.122932
0.122932
0.122932
0.122932
0.122933
0.122933
0.122933
0.122933
0.122934
0.122934
0.122935
0.122935
0.122936
0.122937
0.122937
0.122938
0.122939
0.12294
0.12294
0.122941
0.122942
0.122943
0.122944
0.122945
0.122946
0.122947
0.122948
0.122949
0.12295
0.122951
0.122952
0.122953
0.122954
0.122955
0.122956
0.122956
0.122957
0.122958
0.122959
0.12296
0.122961
0.122962
0.122963
0.122964
0.122964
0.122965
0.122966
0.122967
0.122968
0.122968
0.122969
0.12297
0.122971
0.122971
0.122971
0.122975
0.122982
0.122991
0.123
0.123009
0.12302
0.123032
0.123044
0.123055
0.123066
0.123075
0.123084
0.123092
0.1231
0.123106
0.123113
0.123119
0.123124
0.123128
0.123141
0.130543
0.130524
0.130521
0.130521
0.130523
0.130524
0.130526
0.130528
0.130531
0.130533
0.130536
0.130538
0.130541
0.130544
0.130547
0.130549
0.130552
0.130555
0.130558
0.130561
0.130564
0.130566
0.130567
0.130561
0.13055
0.130535
0.130521
0.130508
0.130498
0.130489
0.130482
0.130476
0.130471
0.130467
0.130463
0.13046
0.130458
0.130455
0.130453
0.130452
0.13045
0.130449
0.130448
0.130447
0.130446
0.130446
0.130445
0.130445
0.130445
0.130445
0.130444
0.130444
0.130445
0.130445
0.130445
0.130445
0.130446
0.130446
0.130447
0.130447
0.130448
0.130448
0.130449
0.13045
0.13045
0.130451
0.130452
0.130453
0.130453
0.130454
0.130455
0.130456
0.130457
0.130458
0.130459
0.13046
0.13046
0.130461
0.130462
0.130463
0.130464
0.130465
0.130466
0.130466
0.130467
0.130468
0.130469
0.13047
0.13047
0.130471
0.130472
0.130473
0.130473
0.130474
0.130475
0.130475
0.130476
0.130477
0.130478
0.130478
0.13048
0.130484
0.13049
0.130497
0.130504
0.130513
0.130522
0.130533
0.130543
0.130553
0.130562
0.130571
0.130579
0.130587
0.130594
0.1306
0.130607
0.130613
0.130617
0.130631
0.138459
0.13844
0.138437
0.138438
0.13844
0.138442
0.138444
0.138446
0.138448
0.138451
0.138454
0.138457
0.138459
0.138462
0.138465
0.138468
0.138471
0.138474
0.138477
0.13848
0.138483
0.138486
0.138488
0.138487
0.138481
0.138472
0.138462
0.138451
0.138442
0.138434
0.138427
0.13842
0.138415
0.13841
0.138406
0.138402
0.138399
0.138397
0.138394
0.138392
0.13839
0.138389
0.138387
0.138386
0.138385
0.138384
0.138383
0.138383
0.138382
0.138382
0.138382
0.138381
0.138381
0.138381
0.138381
0.138381
0.138382
0.138382
0.138382
0.138382
0.138383
0.138383
0.138384
0.138384
0.138385
0.138386
0.138386
0.138387
0.138388
0.138388
0.138389
0.13839
0.138391
0.138391
0.138392
0.138393
0.138394
0.138395
0.138395
0.138396
0.138397
0.138398
0.138399
0.138399
0.1384
0.138401
0.138402
0.138402
0.138403
0.138404
0.138404
0.138405
0.138406
0.138406
0.138407
0.138408
0.138408
0.138409
0.138409
0.13841
0.138411
0.138413
0.138417
0.138422
0.138428
0.138435
0.138442
0.138451
0.138459
0.138468
0.138477
0.138485
0.138493
0.1385
0.138508
0.138514
0.138521
0.138527
0.138532
0.138546
0.146816
0.146798
0.146795
0.146796
0.146798
0.1468
0.146802
0.146804
0.146807
0.14681
0.146812
0.146815
0.146818
0.146821
0.146824
0.146827
0.14683
0.146833
0.146836
0.146839
0.146843
0.146846
0.146849
0.14685
0.146848
0.146843
0.146836
0.146829
0.146821
0.146814
0.146807
0.146801
0.146796
0.146791
0.146787
0.146783
0.14678
0.146777
0.146774
0.146772
0.14677
0.146768
0.146766
0.146765
0.146764
0.146763
0.146762
0.146761
0.14676
0.14676
0.146759
0.146759
0.146758
0.146758
0.146758
0.146758
0.146758
0.146758
0.146758
0.146759
0.146759
0.146759
0.14676
0.14676
0.14676
0.146761
0.146761
0.146762
0.146763
0.146763
0.146764
0.146765
0.146765
0.146766
0.146767
0.146767
0.146768
0.146769
0.146769
0.14677
0.146771
0.146772
0.146772
0.146773
0.146774
0.146774
0.146775
0.146776
0.146776
0.146777
0.146777
0.146778
0.146779
0.146779
0.14678
0.14678
0.146781
0.146782
0.146782
0.146783
0.146783
0.146785
0.146787
0.146791
0.146795
0.1468
0.146806
0.146812
0.14682
0.146827
0.146835
0.146842
0.14685
0.146857
0.146864
0.14687
0.146877
0.146883
0.146888
0.146902
0.15563
0.155613
0.15561
0.155611
0.155613
0.155615
0.155617
0.15562
0.155622
0.155625
0.155628
0.155631
0.155634
0.155637
0.15564
0.155643
0.155646
0.155649
0.155652
0.155655
0.155658
0.155662
0.155665
0.155667
0.155667
0.155666
0.155662
0.155657
0.155652
0.155646
0.155641
0.155636
0.155631
0.155626
0.155622
0.155619
0.155615
0.155612
0.15561
0.155607
0.155605
0.155603
0.155601
0.1556
0.155598
0.155597
0.155596
0.155595
0.155594
0.155593
0.155593
0.155592
0.155592
0.155591
0.155591
0.155591
0.155591
0.155591
0.155591
0.155591
0.155591
0.155591
0.155592
0.155592
0.155592
0.155593
0.155593
0.155594
0.155594
0.155595
0.155595
0.155596
0.155596
0.155597
0.155597
0.155598
0.155599
0.155599
0.1556
0.155601
0.155601
0.155602
0.155603
0.155603
0.155604
0.155604
0.155605
0.155606
0.155606
0.155607
0.155607
0.155608
0.155608
0.155609
0.155609
0.15561
0.15561
0.155611
0.155611
0.155612
0.155612
0.155613
0.155615
0.155617
0.15562
0.155624
0.155628
0.155634
0.155639
0.155646
0.155652
0.155659
0.155665
0.155672
0.155678
0.155685
0.155691
0.155697
0.155701
0.155716
0.164919
0.164902
0.164899
0.1649
0.164902
0.164904
0.164906
0.164908
0.164911
0.164914
0.164917
0.164919
0.164922
0.164925
0.164928
0.164931
0.164934
0.164938
0.164941
0.164944
0.164947
0.16495
0.164954
0.164956
0.164958
0.164959
0.164958
0.164955
0.164952
0.164948
0.164944
0.164939
0.164935
0.164932
0.164928
0.164925
0.164921
0.164919
0.164916
0.164913
0.164911
0.164909
0.164908
0.164906
0.164904
0.164903
0.164902
0.164901
0.1649
0.164899
0.164898
0.164898
0.164897
0.164897
0.164897
0.164896
0.164896
0.164896
0.164896
0.164896
0.164896
0.164896
0.164896
0.164896
0.164897
0.164897
0.164897
0.164898
0.164898
0.164899
0.164899
0.1649
0.1649
0.164901
0.164901
0.164902
0.164902
0.164903
0.164903
0.164904
0.164905
0.164905
0.164906
0.164906
0.164907
0.164907
0.164908
0.164908
0.164909
0.164909
0.16491
0.16491
0.164911
0.164911
0.164912
0.164912
0.164913
0.164913
0.164913
0.164914
0.164914
0.164915
0.164916
0.164918
0.16492
0.164922
0.164926
0.16493
0.164934
0.164939
0.164945
0.16495
0.164956
0.164962
0.164968
0.164973
0.164979
0.164985
0.164989
0.165004
0.1747
0.174683
0.17468
0.174681
0.174682
0.174684
0.174686
0.174688
0.174691
0.174694
0.174696
0.174699
0.174702
0.174705
0.174708
0.174711
0.174714
0.174717
0.17472
0.174723
0.174726
0.17473
0.174733
0.174736
0.174738
0.17474
0.174741
0.17474
0.174738
0.174736
0.174733
0.17473
0.174727
0.174724
0.174721
0.174718
0.174716
0.174713
0.174711
0.174708
0.174706
0.174704
0.174703
0.174701
0.1747
0.174698
0.174697
0.174696
0.174695
0.174694
0.174694
0.174693
0.174692
0.174692
0.174691
0.174691
0.174691
0.174691
0.174691
0.174691
0.174691
0.174691
0.174691
0.174691
0.174691
0.174691
0.174692
0.174692
0.174692
0.174693
0.174693
0.174693
0.174694
0.174694
0.174695
0.174695
0.174696
0.174696
0.174697
0.174697
0.174698
0.174698
0.174699
0.174699
0.1747
0.1747
0.174701
0.174701
0.174701
0.174702
0.174702
0.174703
0.174703
0.174704
0.174704
0.174704
0.174705
0.174705
0.174706
0.174706
0.174706
0.174707
0.174708
0.174709
0.17471
0.174712
0.174715
0.174718
0.174721
0.174725
0.174729
0.174734
0.174739
0.174744
0.174749
0.174754
0.174759
0.174765
0.174768
0.174783
0.184991
0.184973
0.18497
0.184971
0.184972
0.184974
0.184976
0.184978
0.18498
0.184983
0.184985
0.184988
0.184991
0.184994
0.184996
0.184999
0.185002
0.185005
0.185008
0.185011
0.185014
0.185018
0.185021
0.185024
0.185027
0.185029
0.185031
0.185031
0.185031
0.18503
0.185029
0.185027
0.185025
0.185023
0.18502
0.185018
0.185016
0.185014
0.185012
0.18501
0.185008
0.185006
0.185005
0.185003
0.185002
0.185001
0.185
0.184999
0.184998
0.184997
0.184996
0.184996
0.184995
0.184994
0.184994
0.184994
0.184993
0.184993
0.184993
0.184993
0.184993
0.184993
0.184993
0.184993
0.184993
0.184993
0.184993
0.184994
0.184994
0.184994
0.184995
0.184995
0.184995
0.184996
0.184996
0.184997
0.184997
0.184997
0.184998
0.184998
0.184999
0.184999
0.185
0.185
0.185
0.185001
0.185001
0.185002
0.185002
0.185002
0.185003
0.185003
0.185003
0.185004
0.185004
0.185005
0.185005
0.185005
0.185006
0.185006
0.185006
0.185007
0.185007
0.185008
0.185009
0.185011
0.185012
0.185015
0.185017
0.18502
0.185024
0.185027
0.185032
0.185036
0.18504
0.185045
0.185049
0.185054
0.185057
0.185072
0.19581
0.195793
0.19579
0.19579
0.195791
0.195792
0.195794
0.195796
0.195798
0.1958
0.195803
0.195805
0.195808
0.195811
0.195813
0.195816
0.195819
0.195822
0.195825
0.195827
0.195831
0.195834
0.195837
0.19584
0.195843
0.195845
0.195848
0.195849
0.19585
0.19585
0.19585
0.195849
0.195848
0.195847
0.195845
0.195844
0.195842
0.19584
0.195839
0.195837
0.195836
0.195834
0.195833
0.195832
0.19583
0.195829
0.195828
0.195827
0.195827
0.195826
0.195825
0.195825
0.195824
0.195823
0.195823
0.195823
0.195822
0.195822
0.195822
0.195822
0.195822
0.195822
0.195822
0.195822
0.195822
0.195822
0.195822
0.195823
0.195823
0.195823
0.195823
0.195824
0.195824
0.195824
0.195825
0.195825
0.195825
0.195826
0.195826
0.195826
0.195827
0.195827
0.195828
0.195828
0.195828
0.195829
0.195829
0.195829
0.19583
0.19583
0.19583
0.195831
0.195831
0.195831
0.195832
0.195832
0.195832
0.195832
0.195833
0.195833
0.195833
0.195834
0.195834
0.195835
0.195836
0.195837
0.195838
0.19584
0.195842
0.195844
0.195847
0.19585
0.195853
0.195856
0.19586
0.195864
0.195868
0.195872
0.195875
0.195889
0.207179
0.207162
0.207158
0.207158
0.207159
0.20716
0.207162
0.207163
0.207165
0.207167
0.207169
0.207172
0.207174
0.207177
0.207179
0.207182
0.207184
0.207187
0.20719
0.207192
0.207195
0.207198
0.207201
0.207204
0.207207
0.20721
0.207213
0.207215
0.207216
0.207217
0.207218
0.207218
0.207218
0.207217
0.207216
0.207215
0.207214
0.207213
0.207212
0.207211
0.20721
0.207209
0.207208
0.207207
0.207206
0.207205
0.207204
0.207203
0.207202
0.207202
0.207201
0.2072
0.2072
0.2072
0.207199
0.207199
0.207199
0.207198
0.207198
0.207198
0.207198
0.207198
0.207198
0.207198
0.207198
0.207198
0.207198
0.207199
0.207199
0.207199
0.207199
0.2072
0.2072
0.2072
0.2072
0.207201
0.207201
0.207201
0.207202
0.207202
0.207202
0.207203
0.207203
0.207203
0.207204
0.207204
0.207204
0.207204
0.207205
0.207205
0.207205
0.207206
0.207206
0.207206
0.207206
0.207207
0.207207
0.207207
0.207207
0.207208
0.207208
0.207208
0.207209
0.207209
0.20721
0.20721
0.207211
0.207213
0.207214
0.207216
0.207218
0.20722
0.207223
0.207226
0.207229
0.207232
0.207236
0.20724
0.207241
0.207256
0.219118
0.219102
0.219098
0.219098
0.219098
0.219099
0.2191
0.219102
0.219103
0.219105
0.219107
0.219109
0.219111
0.219114
0.219116
0.219118
0.219121
0.219123
0.219126
0.219128
0.219131
0.219134
0.219137
0.219139
0.219142
0.219145
0.219148
0.21915
0.219152
0.219154
0.219155
0.219155
0.219156
0.219156
0.219156
0.219156
0.219155
0.219154
0.219154
0.219153
0.219152
0.219152
0.219151
0.21915
0.219149
0.219149
0.219148
0.219147
0.219147
0.219146
0.219146
0.219145
0.219145
0.219145
0.219144
0.219144
0.219144
0.219144
0.219143
0.219143
0.219143
0.219143
0.219143
0.219143
0.219143
0.219143
0.219144
0.219144
0.219144
0.219144
0.219144
0.219145
0.219145
0.219145
0.219145
0.219146
0.219146
0.219146
0.219147
0.219147
0.219147
0.219147
0.219148
0.219148
0.219148
0.219148
0.219149
0.219149
0.219149
0.219149
0.21915
0.21915
0.21915
0.21915
0.21915
0.219151
0.219151
0.219151
0.219151
0.219152
0.219152
0.219152
0.219153
0.219153
0.219153
0.219154
0.219155
0.219156
0.219157
0.219158
0.21916
0.219162
0.219164
0.219166
0.219169
0.219171
0.219174
0.219178
0.219179
0.219193
0.231653
0.231637
0.231633
0.231633
0.231633
0.231633
0.231634
0.231635
0.231636
0.231638
0.231639
0.231641
0.231643
0.231645
0.231647
0.231649
0.231651
0.231654
0.231656
0.231658
0.231661
0.231664
0.231666
0.231669
0.231672
0.231674
0.231677
0.231679
0.231682
0.231684
0.231685
0.231686
0.231687
0.231688
0.231688
0.231689
0.231689
0.231688
0.231688
0.231688
0.231688
0.231687
0.231687
0.231686
0.231686
0.231685
0.231685
0.231684
0.231684
0.231684
0.231683
0.231683
0.231683
0.231682
0.231682
0.231682
0.231682
0.231682
0.231681
0.231681
0.231681
0.231681
0.231681
0.231681
0.231682
0.231682
0.231682
0.231682
0.231682
0.231682
0.231683
0.231683
0.231683
0.231683
0.231683
0.231684
0.231684
0.231684
0.231684
0.231685
0.231685
0.231685
0.231685
0.231686
0.231686
0.231686
0.231686
0.231686
0.231687
0.231687
0.231687
0.231687
0.231687
0.231688
0.231688
0.231688
0.231688
0.231688
0.231689
0.231689
0.231689
0.231689
0.23169
0.23169
0.23169
0.231691
0.231691
0.231692
0.231693
0.231694
0.231695
0.231697
0.231698
0.2317
0.231702
0.231705
0.231707
0.23171
0.231711
0.231724
0.244808
0.244792
0.244789
0.244788
0.244787
0.244788
0.244788
0.244789
0.24479
0.244791
0.244792
0.244794
0.244796
0.244797
0.244799
0.244801
0.244803
0.244805
0.244807
0.244809
0.244812
0.244814
0.244816
0.244819
0.244821
0.244824
0.244827
0.244829
0.244831
0.244833
0.244835
0.244837
0.244838
0.244839
0.24484
0.244841
0.244841
0.244841
0.244842
0.244842
0.244842
0.244841
0.244841
0.244841
0.244841
0.244841
0.24484
0.24484
0.24484
0.24484
0.244839
0.244839
0.244839
0.244839
0.244839
0.244839
0.244838
0.244838
0.244838
0.244838
0.244838
0.244838
0.244838
0.244838
0.244839
0.244839
0.244839
0.244839
0.244839
0.244839
0.24484
0.24484
0.24484
0.24484
0.24484
0.244841
0.244841
0.244841
0.244841
0.244841
0.244842
0.244842
0.244842
0.244842
0.244842
0.244843
0.244843
0.244843
0.244843
0.244843
0.244843
0.244843
0.244844
0.244844
0.244844
0.244844
0.244844
0.244844
0.244845
0.244845
0.244845
0.244845
0.244846
0.244846
0.244846
0.244847
0.244847
0.244848
0.244848
0.244849
0.24485
0.244851
0.244853
0.244854
0.244856
0.244858
0.24486
0.244862
0.244863
0.244875
0.258612
0.258597
0.258593
0.258592
0.258591
0.258591
0.258591
0.258591
0.258592
0.258593
0.258594
0.258595
0.258597
0.258598
0.2586
0.258602
0.258603
0.258605
0.258607
0.258609
0.258611
0.258613
0.258615
0.258618
0.25862
0.258622
0.258625
0.258627
0.258629
0.258631
0.258633
0.258635
0.258637
0.258638
0.258639
0.25864
0.258641
0.258642
0.258642
0.258643
0.258643
0.258643
0.258643
0.258643
0.258643
0.258643
0.258643
0.258643
0.258643
0.258643
0.258643
0.258643
0.258643
0.258642
0.258642
0.258642
0.258642
0.258642
0.258642
0.258642
0.258642
0.258642
0.258643
0.258643
0.258643
0.258643
0.258643
0.258643
0.258643
0.258644
0.258644
0.258644
0.258644
0.258644
0.258645
0.258645
0.258645
0.258645
0.258645
0.258646
0.258646
0.258646
0.258646
0.258646
0.258646
0.258646
0.258647
0.258647
0.258647
0.258647
0.258647
0.258647
0.258647
0.258647
0.258647
0.258648
0.258648
0.258648
0.258648
0.258648
0.258649
0.258649
0.258649
0.258649
0.25865
0.25865
0.25865
0.258651
0.258651
0.258652
0.258653
0.258654
0.258655
0.258656
0.258657
0.258659
0.25866
0.258663
0.258663
0.258675
0.273095
0.273081
0.273077
0.273076
0.273075
0.273075
0.273074
0.273074
0.273075
0.273075
0.273076
0.273077
0.273078
0.27308
0.273081
0.273082
0.273084
0.273085
0.273087
0.273088
0.27309
0.273092
0.273094
0.273096
0.273099
0.273101
0.273103
0.273105
0.273107
0.273109
0.273111
0.273113
0.273115
0.273117
0.273118
0.273119
0.27312
0.273121
0.273122
0.273122
0.273123
0.273123
0.273124
0.273124
0.273124
0.273124
0.273124
0.273124
0.273125
0.273125
0.273125
0.273125
0.273125
0.273125
0.273125
0.273125
0.273125
0.273125
0.273125
0.273125
0.273125
0.273125
0.273125
0.273125
0.273126
0.273126
0.273126
0.273126
0.273126
0.273126
0.273127
0.273127
0.273127
0.273127
0.273127
0.273127
0.273128
0.273128
0.273128
0.273128
0.273128
0.273128
0.273129
0.273129
0.273129
0.273129
0.273129
0.273129
0.273129
0.273129
0.273129
0.273129
0.273129
0.27313
0.27313
0.27313
0.27313
0.27313
0.27313
0.27313
0.273131
0.273131
0.273131
0.273131
0.273132
0.273132
0.273132
0.273133
0.273133
0.273134
0.273134
0.273135
0.273136
0.273137
0.273138
0.273139
0.273141
0.273142
0.273142
0.273153
0.288293
0.28828
0.288276
0.288275
0.288274
0.288273
0.288272
0.288272
0.288272
0.288272
0.288273
0.288274
0.288275
0.288276
0.288277
0.288278
0.288279
0.28828
0.288281
0.288283
0.288284
0.288286
0.288288
0.28829
0.288292
0.288294
0.288296
0.288298
0.2883
0.288302
0.288304
0.288306
0.288308
0.288309
0.288311
0.288312
0.288313
0.288314
0.288315
0.288316
0.288317
0.288317
0.288318
0.288318
0.288319
0.288319
0.288319
0.288319
0.288319
0.28832
0.28832
0.28832
0.28832
0.28832
0.28832
0.28832
0.28832
0.288321
0.288321
0.288321
0.288321
0.288321
0.288321
0.288321
0.288322
0.288322
0.288322
0.288322
0.288322
0.288322
0.288323
0.288323
0.288323
0.288323
0.288323
0.288323
0.288324
0.288324
0.288324
0.288324
0.288324
0.288324
0.288324
0.288324
0.288325
0.288325
0.288325
0.288325
0.288325
0.288325
0.288325
0.288325
0.288325
0.288325
0.288325
0.288325
0.288325
0.288325
0.288326
0.288326
0.288326
0.288326
0.288326
0.288327
0.288327
0.288327
0.288328
0.288328
0.288328
0.288329
0.288329
0.28833
0.28833
0.288331
0.288332
0.288333
0.288334
0.288336
0.288336
0.288346
0.304243
0.304232
0.304228
0.304226
0.304225
0.304224
0.304223
0.304223
0.304222
0.304222
0.304223
0.304223
0.304224
0.304225
0.304225
0.304226
0.304227
0.304228
0.304229
0.30423
0.304232
0.304233
0.304235
0.304236
0.304238
0.30424
0.304242
0.304243
0.304245
0.304247
0.304249
0.304251
0.304253
0.304255
0.304256
0.304258
0.304259
0.30426
0.304261
0.304262
0.304263
0.304263
0.304264
0.304265
0.304265
0.304265
0.304266
0.304266
0.304266
0.304267
0.304267
0.304267
0.304267
0.304267
0.304268
0.304268
0.304268
0.304268
0.304268
0.304268
0.304269
0.304269
0.304269
0.304269
0.304269
0.30427
0.30427
0.30427
0.30427
0.30427
0.30427
0.304271
0.304271
0.304271
0.304271
0.304271
0.304271
0.304271
0.304272
0.304272
0.304272
0.304272
0.304272
0.304272
0.304272
0.304272
0.304272
0.304272
0.304272
0.304272
0.304272
0.304272
0.304272
0.304272
0.304272
0.304273
0.304273
0.304273
0.304273
0.304273
0.304273
0.304273
0.304274
0.304274
0.304274
0.304274
0.304275
0.304275
0.304275
0.304275
0.304276
0.304276
0.304277
0.304278
0.304279
0.304279
0.30428
0.304282
0.304282
0.304291
0.320989
0.320979
0.320976
0.320974
0.320972
0.320971
0.32097
0.320969
0.320969
0.320968
0.320969
0.320969
0.320969
0.32097
0.32097
0.320971
0.320971
0.320972
0.320973
0.320974
0.320975
0.320976
0.320978
0.320979
0.32098
0.320982
0.320984
0.320985
0.320987
0.320989
0.320991
0.320993
0.320995
0.320996
0.320998
0.320999
0.321
0.321002
0.321003
0.321004
0.321004
0.321005
0.321006
0.321006
0.321007
0.321007
0.321008
0.321008
0.321008
0.321009
0.321009
0.321009
0.32101
0.32101
0.32101
0.32101
0.32101
0.321011
0.321011
0.321011
0.321011
0.321012
0.321012
0.321012
0.321012
0.321012
0.321012
0.321013
0.321013
0.321013
0.321013
0.321013
0.321013
0.321014
0.321014
0.321014
0.321014
0.321014
0.321014
0.321014
0.321014
0.321014
0.321014
0.321014
0.321014
0.321014
0.321014
0.321014
0.321014
0.321014
0.321014
0.321014
0.321015
0.321015
0.321015
0.321015
0.321015
0.321015
0.321015
0.321015
0.321015
0.321015
0.321016
0.321016
0.321016
0.321016
0.321016
0.321017
0.321017
0.321017
0.321018
0.321018
0.321019
0.321019
0.32102
0.321021
0.321022
0.321023
0.321023
0.321031
0.338579
0.33857
0.338567
0.338565
0.338564
0.338562
0.338561
0.33856
0.338559
0.338559
0.338559
0.338559
0.338559
0.338559
0.338559
0.338559
0.33856
0.33856
0.338561
0.338561
0.338562
0.338563
0.338564
0.338566
0.338567
0.338568
0.33857
0.338571
0.338573
0.338575
0.338577
0.338579
0.33858
0.338582
0.338583
0.338585
0.338586
0.338587
0.338588
0.338589
0.33859
0.33859
0.338591
0.338592
0.338592
0.338593
0.338593
0.338594
0.338594
0.338594
0.338595
0.338595
0.338595
0.338595
0.338596
0.338596
0.338596
0.338596
0.338597
0.338597
0.338597
0.338597
0.338598
0.338598
0.338598
0.338598
0.338598
0.338598
0.338599
0.338599
0.338599
0.338599
0.338599
0.338599
0.338599
0.3386
0.3386
0.3386
0.3386
0.3386
0.3386
0.3386
0.3386
0.3386
0.3386
0.3386
0.3386
0.3386
0.3386
0.3386
0.3386
0.3386
0.3386
0.3386
0.3386
0.3386
0.3386
0.3386
0.3386
0.3386
0.3386
0.338601
0.338601
0.338601
0.338601
0.338601
0.338601
0.338601
0.338602
0.338602
0.338602
0.338603
0.338603
0.338604
0.338604
0.338605
0.338606
0.338607
0.338607
0.338615
0.357067
0.357059
0.357057
0.357055
0.357053
0.357051
0.35705
0.357049
0.357048
0.357047
0.357047
0.357046
0.357046
0.357046
0.357046
0.357046
0.357046
0.357046
0.357047
0.357047
0.357048
0.357049
0.35705
0.357051
0.357052
0.357053
0.357054
0.357056
0.357058
0.357059
0.357061
0.357063
0.357064
0.357066
0.357067
0.357068
0.357069
0.35707
0.357071
0.357072
0.357073
0.357074
0.357074
0.357075
0.357075
0.357076
0.357076
0.357076
0.357077
0.357077
0.357078
0.357078
0.357078
0.357078
0.357079
0.357079
0.357079
0.357079
0.35708
0.35708
0.35708
0.35708
0.357081
0.357081
0.357081
0.357081
0.357081
0.357082
0.357082
0.357082
0.357082
0.357082
0.357082
0.357082
0.357082
0.357082
0.357082
0.357082
0.357083
0.357083
0.357083
0.357083
0.357083
0.357082
0.357082
0.357082
0.357082
0.357082
0.357082
0.357082
0.357082
0.357082
0.357082
0.357082
0.357082
0.357082
0.357082
0.357082
0.357082
0.357083
0.357083
0.357083
0.357083
0.357083
0.357083
0.357083
0.357083
0.357083
0.357083
0.357083
0.357084
0.357084
0.357085
0.357085
0.357086
0.357087
0.357088
0.357089
0.357089
0.357096
0.376513
0.376507
0.376505
0.376503
0.376501
0.376499
0.376498
0.376496
0.376495
0.376494
0.376493
0.376493
0.376493
0.376493
0.376492
0.376492
0.376492
0.376492
0.376492
0.376492
0.376492
0.376493
0.376494
0.376494
0.376495
0.376496
0.376498
0.3765
0.376501
0.376503
0.376505
0.376507
0.376508
0.376509
0.37651
0.376511
0.376512
0.376513
0.376514
0.376514
0.376515
0.376515
0.376516
0.376516
0.376517
0.376517
0.376518
0.376518
0.376518
0.376519
0.376519
0.376519
0.37652
0.37652
0.37652
0.37652
0.376521
0.376521
0.376521
0.376521
0.376521
0.376522
0.376522
0.376522
0.376522
0.376522
0.376523
0.376523
0.376523
0.376523
0.376523
0.376523
0.376523
0.376523
0.376523
0.376523
0.376523
0.376523
0.376523
0.376523
0.376523
0.376523
0.376523
0.376523
0.376523
0.376523
0.376523
0.376523
0.376523
0.376523
0.376523
0.376523
0.376523
0.376523
0.376523
0.376523
0.376523
0.376523
0.376523
0.376523
0.376523
0.376523
0.376524
0.376524
0.376523
0.376523
0.376523
0.376523
0.376523
0.376523
0.376523
0.376524
0.376525
0.376525
0.376526
0.376527
0.376528
0.376529
0.376529
0.376535
0.396986
0.396982
0.39698
0.396979
0.396977
0.396975
0.396973
0.396971
0.39697
0.396969
0.396968
0.396967
0.396967
0.396966
0.396966
0.396965
0.396965
0.396964
0.396964
0.396964
0.396965
0.396965
0.396965
0.396966
0.396967
0.396968
0.396969
0.396971
0.396974
0.396975
0.396977
0.396978
0.396979
0.39698
0.396981
0.396982
0.396983
0.396983
0.396984
0.396984
0.396984
0.396985
0.396985
0.396986
0.396986
0.396986
0.396986
0.396987
0.396987
0.396987
0.396988
0.396988
0.396988
0.396988
0.396989
0.396989
0.396989
0.396989
0.396989
0.39699
0.39699
0.39699
0.39699
0.39699
0.396991
0.396991
0.396991
0.396991
0.396991
0.396991
0.396991
0.396991
0.396991
0.396991
0.396991
0.396991
0.396991
0.396991
0.396991
0.396991
0.396991
0.396991
0.396991
0.396991
0.396991
0.396991
0.396991
0.39699
0.39699
0.39699
0.39699
0.39699
0.39699
0.39699
0.39699
0.39699
0.39699
0.39699
0.39699
0.39699
0.396991
0.396991
0.396991
0.39699
0.39699
0.396989
0.396989
0.396989
0.396989
0.396989
0.39699
0.39699
0.396991
0.396992
0.396993
0.396994
0.396995
0.396996
0.396996
0.397001
0.418564
0.418562
0.418561
0.418559
0.418557
0.418555
0.418553
0.418551
0.41855
0.418548
0.418547
0.418547
0.418546
0.418545
0.418544
0.418544
0.418543
0.418542
0.418542
0.418542
0.418542
0.418542
0.418542
0.418543
0.418543
0.418545
0.418547
0.418549
0.418552
0.418553
0.418555
0.418556
0.418557
0.418557
0.418558
0.418558
0.418558
0.418559
0.418559
0.418559
0.418559
0.418559
0.41856
0.41856
0.41856
0.41856
0.41856
0.418561
0.418561
0.418561
0.418561
0.418561
0.418562
0.418562
0.418562
0.418562
0.418562
0.418562
0.418563
0.418563
0.418563
0.418563
0.418563
0.418563
0.418563
0.418564
0.418564
0.418564
0.418564
0.418564
0.418564
0.418564
0.418564
0.418564
0.418564
0.418564
0.418564
0.418564
0.418564
0.418563
0.418563
0.418563
0.418563
0.418563
0.418563
0.418563
0.418563
0.418562
0.418562
0.418562
0.418562
0.418562
0.418562
0.418562
0.418562
0.418562
0.418562
0.418562
0.418562
0.418562
0.418562
0.418563
0.418562
0.418561
0.418561
0.41856
0.418559
0.418559
0.418559
0.41856
0.41856
0.418561
0.418562
0.418563
0.418564
0.418565
0.418566
0.418568
0.418568
0.418572
0.441335
0.441335
0.441335
0.441333
0.441331
0.441329
0.441327
0.441324
0.441323
0.441321
0.44132
0.441319
0.441318
0.441317
0.441316
0.441315
0.441314
0.441313
0.441313
0.441312
0.441312
0.441312
0.441312
0.441312
0.441313
0.441315
0.441319
0.441321
0.441324
0.441325
0.441326
0.441327
0.441327
0.441327
0.441327
0.441327
0.441327
0.441327
0.441327
0.441327
0.441327
0.441327
0.441327
0.441327
0.441327
0.441327
0.441327
0.441327
0.441327
0.441327
0.441328
0.441328
0.441328
0.441328
0.441328
0.441328
0.441328
0.441328
0.441328
0.441329
0.441329
0.441329
0.441329
0.441329
0.441329
0.441329
0.441329
0.441329
0.441329
0.441329
0.441329
0.441329
0.441329
0.441329
0.441329
0.441329
0.441329
0.441329
0.441328
0.441328
0.441328
0.441328
0.441328
0.441328
0.441328
0.441327
0.441327
0.441327
0.441327
0.441327
0.441327
0.441327