/*--------------------------------*- C++ -*----------------------------------*\
  =========                 |
  \\      /  F ield         | OpenFOAM: The Open Source CFD Toolbox
   \\    /   O peration     | Website:  https://openfoam.org
    \\  /    A nd           | Version:  7
     \\/     M anipulation  |
\*---------------------------------------------------------------------------*/
FoamFile
{
    version     2.0;
    format      ascii;
    class       volVectorField;
    location    "20000";
    object      U;
}
// * * * * * * * * * * * * * * * * * * * * * * * * * * * * * * * * * * * * * //

dimensions      [0 1 -1 0 0 0 0];

internalField   nonuniform List<vector> 
3963
(
(0.139979 -4.83305e-08 3.27257e-14)
(0.139979 -6.77347e-08 3.26918e-14)
(0.139979 -5.72098e-08 3.2649e-14)
(0.139979 -4.06974e-08 3.26454e-14)
(0.13998 -2.58027e-08 3.26252e-14)
(0.13998 -1.35437e-08 3.2649e-14)
(0.13998 -3.61451e-09 3.26384e-14)
(0.13998 4.45261e-09 3.26605e-14)
(0.13998 1.1266e-08 3.26096e-14)
(0.13998 1.71017e-08 3.26137e-14)
(0.13998 2.21068e-08 3.26007e-14)
(0.13998 2.65016e-08 3.2541e-14)
(0.13998 3.04958e-08 3.25282e-14)
(0.13998 3.40889e-08 3.2492e-14)
(0.13998 3.7279e-08 3.24929e-14)
(0.13998 4.02608e-08 3.25208e-14)
(0.13998 4.34479e-08 3.25035e-14)
(0.139981 4.65647e-08 3.2508e-14)
(0.139981 5.10621e-08 3.24719e-14)
(0.139981 5.65957e-08 3.24776e-14)
(0.139981 6.43906e-08 3.2492e-14)
(0.139977 -2.49697e-08 3.26839e-14)
(0.139978 -3.31917e-08 3.28717e-14)
(0.139978 -3.85451e-08 3.27013e-14)
(0.139978 -4.03964e-08 3.26698e-14)
(0.139978 -4.03571e-08 3.27821e-14)
(0.139978 -3.87775e-08 3.26712e-14)
(0.139978 -3.59099e-08 3.28257e-14)
(0.139978 -3.16884e-08 3.28847e-14)
(0.139978 -2.56806e-08 3.28362e-14)
(0.139979 -1.75774e-08 3.28861e-14)
(0.139979 -7.2967e-09 3.27294e-14)
(0.139979 6.63547e-09 3.28697e-14)
(0.139979 2.4165e-08 3.29285e-14)
(0.139979 4.81208e-08 3.28639e-14)
(0.139979 8.6435e-08 3.28958e-14)
(0.139979 4.16479e-08 3.27536e-14)
(0.139634 -7.00616e-08 3.24356e-14)
(0.139634 -8.7449e-08 3.24204e-14)
(0.139634 -7.6329e-08 3.24133e-14)
(0.139634 -5.99473e-08 3.23993e-14)
(0.139634 -4.52521e-08 3.24189e-14)
(0.139634 -3.31313e-08 3.24159e-14)
(0.139634 -2.32264e-08 3.23664e-14)
(0.139634 -1.49717e-08 3.23666e-14)
(0.139634 -7.84848e-09 3.23189e-14)
(0.139634 -1.60797e-09 3.22682e-14)
(0.139634 3.84376e-09 3.22884e-14)
(0.139635 8.61952e-09 3.22391e-14)
(0.139635 1.31113e-08 3.22502e-14)
(0.139635 1.72559e-08 3.22198e-14)
(0.139635 2.1008e-08 3.22391e-14)
(0.139635 2.45686e-08 3.228e-14)
(0.139635 2.84147e-08 3.22631e-14)
(0.139635 3.2202e-08 3.22789e-14)
(0.139635 3.81763e-08 3.22287e-14)
(0.139635 4.55226e-08 3.2241e-14)
(0.139635 6.48312e-08 3.23348e-14)
(0.139635 8.42172e-08 3.24051e-14)
(0.139635 8.94279e-08 3.23989e-14)
(0.139631 -4.71631e-08 3.25473e-14)
(0.139632 -5.01613e-08 3.24183e-14)
(0.139632 -4.89876e-08 3.24007e-14)
(0.139632 -5.50595e-08 3.25324e-14)
(0.139632 -6.96335e-08 3.23853e-14)
(0.139632 -7.64685e-08 3.25332e-14)
(0.139632 -7.5839e-08 3.23964e-14)
(0.139632 -7.35181e-08 3.23615e-14)
(0.139632 -7.06438e-08 3.24962e-14)
(0.139633 -6.69894e-08 3.23832e-14)
(0.139633 -6.25436e-08 3.24997e-14)
(0.139633 -5.69665e-08 3.25912e-14)
(0.139633 -4.99248e-08 3.25395e-14)
(0.139633 -4.10465e-08 3.2612e-14)
(0.139633 -3.02844e-08 3.2427e-14)
(0.139633 -1.60221e-08 3.25442e-14)
(0.139633 1.57907e-09 3.26283e-14)
(0.139633 2.50458e-08 3.25633e-14)
(0.139633 6.3398e-08 3.26199e-14)
(0.139634 1.87988e-08 3.24709e-14)
(0.139273 -9.11245e-08 3.21226e-14)
(0.139273 -1.07357e-07 3.2147e-14)
(0.139274 -9.55042e-08 3.21726e-14)
(0.139274 -7.89108e-08 3.21467e-14)
(0.139274 -6.42934e-08 3.22196e-14)
(0.139274 -5.23349e-08 3.21574e-14)
(0.139274 -4.24003e-08 3.20662e-14)
(0.139274 -3.39661e-08 3.20563e-14)
(0.139274 -2.66137e-08 3.20094e-14)
(0.139274 -2.00245e-08 3.19264e-14)
(0.139274 -1.41619e-08 3.19535e-14)
(0.139274 -8.90556e-09 3.19222e-14)
(0.139274 -3.9273e-09 3.196e-14)
(0.139274 7.4293e-10 3.19349e-14)
(0.139275 5.03273e-09 3.20203e-14)
(0.139275 9.15453e-09 3.20444e-14)
(0.139275 1.35302e-08 3.20085e-14)
(0.139275 1.79327e-08 3.20743e-14)
(0.139275 2.49225e-08 3.19671e-14)
(0.139275 3.33486e-08 3.19927e-14)
(0.139275 5.45018e-08 3.22059e-14)
(0.139275 8.16076e-08 3.22666e-14)
(0.139275 1.05594e-07 3.22011e-14)
(0.139275 1.19702e-07 3.2389e-14)
(0.139275 1.15416e-07 3.22692e-14)
(0.139275 1.08178e-07 3.24263e-14)
(0.139275 1.02269e-07 3.2636e-14)
(0.139275 9.78255e-08 3.24571e-14)
(0.139274 9.43638e-08 3.25576e-14)
(0.139274 9.15326e-08 3.25312e-14)
(0.139274 8.89849e-08 3.26081e-14)
(0.139274 8.6546e-08 3.2743e-14)
(0.139274 8.44267e-08 3.2597e-14)
(0.139274 8.24574e-08 3.26802e-14)
(0.139274 8.05855e-08 3.26125e-14)
(0.139274 7.89218e-08 3.26943e-14)
(0.139274 7.73942e-08 3.27603e-14)
(0.139274 7.60543e-08 3.26555e-14)
(0.139274 7.48348e-08 3.27443e-14)
(0.139274 7.36691e-08 3.26857e-14)
(0.139274 7.25832e-08 3.2531e-14)
(0.139274 7.16077e-08 3.24118e-14)
(0.139274 7.07667e-08 3.23653e-14)
(0.139273 6.99608e-08 3.23959e-14)
(0.139273 6.90804e-08 3.2337e-14)
(0.139273 6.80765e-08 3.23036e-14)
(0.139273 6.71815e-08 3.22471e-14)
(0.139273 6.6102e-08 3.22249e-14)
(0.139273 6.48183e-08 3.22598e-14)
(0.139273 6.3411e-08 3.22067e-14)
(0.139273 6.16353e-08 3.2171e-14)
(0.139273 5.97756e-08 3.21177e-14)
(0.139273 5.7789e-08 3.21183e-14)
(0.139273 5.54594e-08 3.2092e-14)
(0.139273 5.29495e-08 3.19336e-14)
(0.139273 5.03433e-08 3.20172e-14)
(0.139273 4.74982e-08 3.20283e-14)
(0.139273 4.44928e-08 3.20528e-14)
(0.139273 4.12837e-08 3.20305e-14)
(0.139273 3.80074e-08 3.18836e-14)
(0.139273 3.458e-08 3.19659e-14)
(0.139273 3.10494e-08 3.19695e-14)
(0.139273 2.74859e-08 3.19963e-14)
(0.139273 2.37892e-08 3.199e-14)
(0.139273 2.02021e-08 3.18868e-14)
(0.139273 1.65102e-08 3.19387e-14)
(0.139273 1.28635e-08 3.19657e-14)
(0.139273 9.14182e-09 3.20063e-14)
(0.139273 5.22667e-09 3.20035e-14)
(0.139272 1.4428e-09 3.19e-14)
(0.139272 -2.15489e-09 3.19424e-14)
(0.139272 -5.8261e-09 3.19627e-14)
(0.139272 -9.68725e-09 3.20086e-14)
(0.139272 -1.35018e-08 3.20069e-14)
(0.139272 -1.71132e-08 3.18682e-14)
(0.139272 -2.06169e-08 3.19532e-14)
(0.139272 -2.41971e-08 3.19684e-14)
(0.139272 -2.77295e-08 3.20043e-14)
(0.139272 -3.11134e-08 3.2004e-14)
(0.139272 -3.4453e-08 3.19157e-14)
(0.139272 -3.77472e-08 3.2048e-14)
(0.139272 -4.09548e-08 3.19784e-14)
(0.139272 -4.43227e-08 3.19996e-14)
(0.139272 -4.7679e-08 3.20983e-14)
(0.139272 -5.07271e-08 3.1948e-14)
(0.139272 -5.34599e-08 3.21144e-14)
(0.139272 -5.60191e-08 3.2015e-14)
(0.139272 -5.85131e-08 3.20806e-14)
(0.139272 -6.08763e-08 3.21687e-14)
(0.139272 -6.30916e-08 3.20668e-14)
(0.139272 -6.48906e-08 3.21736e-14)
(0.139272 -6.63255e-08 3.20825e-14)
(0.139272 -6.75184e-08 3.20942e-14)
(0.139272 -6.82068e-08 3.21807e-14)
(0.139272 -6.82925e-08 3.19869e-14)
(0.139272 -6.75748e-08 3.21806e-14)
(0.139272 -6.58837e-08 3.20517e-14)
(0.139272 -6.24081e-08 3.21043e-14)
(0.139272 -5.61768e-08 3.21849e-14)
(0.139272 -5.88909e-08 3.20745e-14)
(0.139272 -7.06407e-08 3.218e-14)
(0.139272 -7.51235e-08 3.20383e-14)
(0.139272 -7.09154e-08 3.20962e-14)
(0.139272 -8.37598e-08 3.21893e-14)
(0.139272 -1.03716e-07 3.20594e-14)
(0.139272 -1.06598e-07 3.21551e-14)
(0.139272 -1.03983e-07 3.20105e-14)
(0.139272 -1.00369e-07 3.20571e-14)
(0.139272 -9.62868e-08 3.21494e-14)
(0.139272 -9.14948e-08 3.20469e-14)
(0.139273 -8.60637e-08 3.21304e-14)
(0.139273 -7.95242e-08 3.22155e-14)
(0.139273 -7.17872e-08 3.22144e-14)
(0.139273 -6.24304e-08 3.22565e-14)
(0.139273 -5.12677e-08 3.2053e-14)
(0.139273 -3.69381e-08 3.21599e-14)
(0.139273 -1.95793e-08 3.22451e-14)
(0.139273 3.16817e-09 3.22317e-14)
(0.139273 4.11481e-08 3.22598e-14)
(0.139273 -3.08511e-09 3.21253e-14)
(0.138898 -1.1e-07 3.18241e-14)
(0.138898 -1.26214e-07 3.18722e-14)
(0.138898 -1.14129e-07 3.19357e-14)
(0.138898 -9.73668e-08 3.18815e-14)
(0.138898 -8.27217e-08 3.19428e-14)
(0.138899 -7.07755e-08 3.18718e-14)
(0.138899 -6.0886e-08 3.17327e-14)
(0.138899 -5.22843e-08 3.17536e-14)
(0.138899 -4.46182e-08 3.16782e-14)
(0.138899 -3.7713e-08 3.15689e-14)
(0.138899 -3.14975e-08 3.16418e-14)
(0.138899 -2.5823e-08 3.1594e-14)
(0.138899 -2.04265e-08 3.16839e-14)
(0.138899 -1.52864e-08 3.1592e-14)
(0.138899 -1.04912e-08 3.17303e-14)
(0.138899 -5.83571e-09 3.18145e-14)
(0.138899 -9.0347e-10 3.16843e-14)
(0.138899 4.08417e-09 3.17972e-14)
(0.138899 1.1466e-08 3.16949e-14)
(0.138899 2.09706e-08 3.17561e-14)
(0.1389 3.54303e-08 3.20245e-14)
(0.1389 5.90813e-08 3.2017e-14)
(0.1389 9.34663e-08 3.19882e-14)
(0.1389 1.22678e-07 3.2199e-14)
(0.1389 1.31154e-07 3.20389e-14)
(0.1389 1.28427e-07 3.22964e-14)
(0.1389 1.22845e-07 3.24378e-14)
(0.1389 1.17438e-07 3.22864e-14)
(0.1389 1.12966e-07 3.24387e-14)
(0.1389 1.09135e-07 3.22896e-14)
(0.1389 1.05712e-07 3.25019e-14)
(0.138899 1.0263e-07 3.25635e-14)
(0.138899 9.98713e-08 3.24339e-14)
(0.138899 9.73116e-08 3.25655e-14)
(0.138899 9.49819e-08 3.23917e-14)
(0.138899 9.28481e-08 3.25743e-14)
(0.138899 9.08187e-08 3.26748e-14)
(0.138899 8.89991e-08 3.25069e-14)
(0.138899 8.73861e-08 3.26874e-14)
(0.138899 8.58666e-08 3.24731e-14)
(0.138899 8.44037e-08 3.23506e-14)
(0.138899 8.31041e-08 3.22615e-14)
(0.138899 8.1963e-08 3.22061e-14)
(0.138899 8.08494e-08 3.21618e-14)
(0.138899 7.96905e-08 3.21367e-14)
(0.138899 7.84557e-08 3.21133e-14)
(0.138899 7.71746e-08 3.20737e-14)
(0.138899 7.58168e-08 3.2042e-14)
(0.138899 7.43932e-08 3.19848e-14)
(0.138899 7.26983e-08 3.19786e-14)
(0.138899 7.07476e-08 3.19579e-14)
(0.138899 6.87206e-08 3.19227e-14)
(0.138898 6.64882e-08 3.19089e-14)
(0.138898 6.40917e-08 3.18919e-14)
(0.138898 6.14569e-08 3.17905e-14)
(0.138898 5.86379e-08 3.18069e-14)
(0.138898 5.56306e-08 3.1829e-14)
(0.138898 5.24959e-08 3.18405e-14)
(0.138898 4.9325e-08 3.183e-14)
(0.138898 4.60293e-08 3.17413e-14)
(0.138898 4.24395e-08 3.17515e-14)
(0.138898 3.87879e-08 3.17678e-14)
(0.138898 3.51804e-08 3.1785e-14)
(0.138898 3.14774e-08 3.17892e-14)
(0.138898 2.78324e-08 3.16971e-14)
(0.138898 2.40888e-08 3.17301e-14)
(0.138898 2.04148e-08 3.17651e-14)
(0.138898 1.66766e-08 3.17932e-14)
(0.138898 1.26847e-08 3.18006e-14)
(0.138898 8.86722e-09 3.17126e-14)
(0.138898 5.21144e-09 3.17292e-14)
(0.138898 1.46342e-09 3.17618e-14)
(0.138898 -2.37656e-09 3.17942e-14)
(0.138898 -6.1325e-09 3.18032e-14)
(0.138898 -9.71949e-09 3.17177e-14)
(0.138898 -1.32357e-08 3.17394e-14)
(0.138898 -1.68054e-08 3.17665e-14)
(0.138898 -2.03139e-08 3.17936e-14)
(0.138898 -2.36766e-08 3.18033e-14)
(0.138898 -2.69978e-08 3.17284e-14)
(0.138898 -3.02795e-08 3.1783e-14)
(0.138898 -3.35085e-08 3.17519e-14)
(0.138897 -3.69083e-08 3.17551e-14)
(0.138897 -4.02653e-08 3.18077e-14)
(0.138897 -4.33004e-08 3.17386e-14)
(0.138897 -4.60348e-08 3.18135e-14)
(0.138897 -4.85933e-08 3.18002e-14)
(0.138897 -5.11019e-08 3.18091e-14)
(0.138897 -5.34135e-08 3.18561e-14)
(0.138897 -5.54972e-08 3.18022e-14)
(0.138897 -5.72935e-08 3.1853e-14)
(0.138897 -5.88569e-08 3.18098e-14)
(0.138897 -6.0137e-08 3.18172e-14)
(0.138897 -6.08871e-08 3.18629e-14)
(0.138897 -6.10432e-08 3.18028e-14)
(0.138897 -6.04628e-08 3.18548e-14)
(0.138897 -5.90786e-08 3.18194e-14)
(0.138897 -5.68623e-08 3.18213e-14)
(0.138897 -5.23581e-08 3.18642e-14)
(0.138897 -6.52377e-08 3.18072e-14)
(0.138897 -8.49069e-08 3.18559e-14)
(0.138897 -8.77577e-08 3.18038e-14)
(0.138897 -8.42485e-08 3.18146e-14)
(0.138897 -9.5794e-08 3.18659e-14)
(0.138897 -1.15013e-07 3.17818e-14)
(0.138897 -1.20928e-07 3.18315e-14)
(0.138897 -1.20798e-07 3.17773e-14)
(0.138897 -1.18297e-07 3.17744e-14)
(0.138897 -1.14715e-07 3.18254e-14)
(0.138897 -1.09985e-07 3.17735e-14)
(0.138897 -1.04357e-07 3.18036e-14)
(0.138897 -9.76128e-08 3.18603e-14)
(0.138898 -8.97479e-08 3.18787e-14)
(0.138898 -8.03338e-08 3.19045e-14)
(0.138898 -6.92599e-08 3.17955e-14)
(0.138898 -5.50975e-08 3.1827e-14)
(0.138898 -3.81324e-08 3.18786e-14)
(0.138898 -1.64922e-08 3.18868e-14)
(0.138898 2.06707e-08 3.19018e-14)
(0.138898 -2.27733e-08 3.18302e-14)
(0.138507 -1.25925e-07 3.15077e-14)
(0.138508 -1.42969e-07 3.16172e-14)
(0.138508 -1.31466e-07 3.17038e-14)
(0.138508 -1.14808e-07 3.15891e-14)
(0.138508 -1.00138e-07 3.1679e-14)
(0.138508 -8.81783e-08 3.15635e-14)
(0.138508 -7.81912e-08 3.13725e-14)
(0.138508 -6.948e-08 3.14488e-14)
(0.138508 -6.16244e-08 3.13253e-14)
(0.138508 -5.45344e-08 3.11605e-14)
(0.138508 -4.80482e-08 3.1327e-14)
(0.138508 -4.19023e-08 3.13577e-14)
(0.138508 -3.60375e-08 3.14315e-14)
(0.138508 -3.04758e-08 3.14246e-14)
(0.138508 -2.52241e-08 3.15051e-14)
(0.138509 -2.0082e-08 3.15981e-14)
(0.138509 -1.47832e-08 3.15425e-14)
(0.138509 -9.28282e-09 3.15601e-14)
(0.138509 -1.6811e-09 3.14999e-14)
(0.138509 8.59059e-09 3.15456e-14)
(0.138509 1.77791e-08 3.18582e-14)
(0.138509 3.49793e-08 3.17789e-14)
(0.138509 6.41561e-08 3.17609e-14)
(0.138509 9.62125e-08 3.18873e-14)
(0.138509 1.2025e-07 3.17386e-14)
(0.138509 1.29753e-07 3.2018e-14)
(0.138509 1.30366e-07 3.21289e-14)
(0.138509 1.27615e-07 3.20579e-14)
(0.138509 1.24189e-07 3.2125e-14)
(0.138509 1.20695e-07 3.19796e-14)
(0.138509 1.17366e-07 3.22318e-14)
(0.138509 1.14309e-07 3.23056e-14)
(0.138509 1.11546e-07 3.22099e-14)
(0.138509 1.08875e-07 3.22664e-14)
(0.138509 1.06369e-07 3.21388e-14)
(0.138509 1.04028e-07 3.23103e-14)
(0.138509 1.01859e-07 3.23944e-14)
(0.138509 9.98367e-08 3.22895e-14)
(0.138509 9.79249e-08 3.23523e-14)
(0.138509 9.61987e-08 3.22245e-14)
(0.138509 9.45722e-08 3.21467e-14)
(0.138509 9.3106e-08 3.20845e-14)
(0.138509 9.17247e-08 3.20281e-14)
(0.138509 9.03188e-08 3.18787e-14)
(0.138509 8.90079e-08 3.19296e-14)
(0.138509 8.76102e-08 3.19133e-14)
(0.138509 8.61253e-08 3.18848e-14)
(0.138509 8.45349e-08 3.18482e-14)
(0.138509 8.283e-08 3.16482e-14)
(0.138509 8.10323e-08 3.17458e-14)
(0.138508 7.90694e-08 3.17397e-14)
(0.138508 7.70599e-08 3.17153e-14)
(0.138508 7.46582e-08 3.16929e-14)
(0.138508 7.20097e-08 3.16807e-14)
(0.138508 6.92925e-08 3.15904e-14)
(0.138508 6.63914e-08 3.1607e-14)
(0.138508 6.33841e-08 3.1633e-14)
(0.138508 6.01299e-08 3.16317e-14)
(0.138508 5.68768e-08 3.1624e-14)
(0.138508 5.3556e-08 3.15395e-14)
(0.138508 4.98366e-08 3.15491e-14)
(0.138508 4.62472e-08 3.15722e-14)
(0.138508 4.2737e-08 3.15774e-14)
(0.138508 3.89478e-08 3.15838e-14)
(0.138508 3.52896e-08 3.15067e-14)
(0.138508 3.15075e-08 3.15349e-14)
(0.138508 2.77211e-08 3.1573e-14)
(0.138508 2.39432e-08 3.15869e-14)
(0.138508 2.00488e-08 3.15951e-14)
(0.138508 1.62707e-08 3.15142e-14)
(0.138508 1.25247e-08 3.15327e-14)
(0.138508 8.7095e-09 3.15691e-14)
(0.138508 4.93681e-09 3.15867e-14)
(0.138508 1.23938e-09 3.15974e-14)
(0.138508 -2.39526e-09 3.1522e-14)
(0.138508 -5.87854e-09 3.15409e-14)
(0.138508 -9.34094e-09 3.15741e-14)
(0.138508 -1.28179e-08 3.15893e-14)
(0.138508 -1.62574e-08 3.16e-14)
(0.138508 -1.95075e-08 3.15331e-14)
(0.138507 -2.27678e-08 3.15387e-14)
(0.138507 -2.6074e-08 3.15222e-14)
(0.138507 -2.94642e-08 3.15203e-14)
(0.138507 -3.26941e-08 3.15323e-14)
(0.138507 -3.56677e-08 3.14984e-14)
(0.138507 -3.84734e-08 3.15336e-14)
(0.138507 -4.10754e-08 3.15374e-14)
(0.138507 -4.35573e-08 3.15456e-14)
(0.138507 -4.57648e-08 3.15552e-14)
(0.138507 -4.78607e-08 3.15252e-14)
(0.138507 -4.97192e-08 3.15508e-14)
(0.138507 -5.12889e-08 3.15419e-14)
(0.138507 -5.26169e-08 3.15464e-14)
(0.138507 -5.3358e-08 3.15546e-14)
(0.138507 -5.3676e-08 3.15233e-14)
(0.138507 -5.3424e-08 3.15495e-14)
(0.138507 -5.22759e-08 3.1542e-14)
(0.138507 -5.09184e-08 3.15438e-14)
(0.138507 -4.79984e-08 3.15543e-14)
(0.138507 -6.03743e-08 3.15243e-14)
(0.138507 -8.04452e-08 3.15491e-14)
(0.138507 -8.74344e-08 3.15331e-14)
(0.138507 -8.82712e-08 3.15389e-14)
(0.138507 -9.91666e-08 3.15519e-14)
(0.138507 -1.16424e-07 3.15076e-14)
(0.138507 -1.24375e-07 3.15256e-14)
(0.138507 -1.27034e-07 3.15022e-14)
(0.138507 -1.26821e-07 3.14993e-14)
(0.138507 -1.24929e-07 3.15119e-14)
(0.138507 -1.21319e-07 3.14815e-14)
(0.138507 -1.16428e-07 3.14946e-14)
(0.138507 -1.1028e-07 3.15197e-14)
(0.138507 -1.029e-07 3.15407e-14)
(0.138507 -9.386e-08 3.15518e-14)
(0.138507 -8.31314e-08 3.14999e-14)
(0.138507 -6.96668e-08 3.15056e-14)
(0.138507 -5.34986e-08 3.15264e-14)
(0.138507 -3.31364e-08 3.15387e-14)
(0.138507 2.7679e-09 3.15412e-14)
(0.138507 -3.97055e-08 3.15057e-14)
(0.138101 -1.38592e-07 3.11967e-14)
(0.138101 -1.56716e-07 3.12906e-14)
(0.138101 -1.46491e-07 3.13738e-14)
(0.138101 -1.30624e-07 3.13544e-14)
(0.138101 -1.16253e-07 3.13007e-14)
(0.138102 -1.04198e-07 3.13105e-14)
(0.138102 -9.42002e-08 3.10434e-14)
(0.138102 -8.5496e-08 3.11793e-14)
(0.138102 -7.74462e-08 3.10256e-14)
(0.138102 -7.01491e-08 3.09435e-14)
(0.138102 -6.34373e-08 3.1071e-14)
(0.138102 -5.693e-08 3.11305e-14)
(0.138102 -5.07521e-08 3.12041e-14)
(0.138102 -4.483e-08 3.12105e-14)
(0.138102 -3.91113e-08 3.13077e-14)
(0.138102 -3.35196e-08 3.14029e-14)
(0.138102 -2.77692e-08 3.13216e-14)
(0.138102 -2.17953e-08 3.13467e-14)
(0.138102 -1.43125e-08 3.13059e-14)
(0.138102 -3.67211e-09 3.13626e-14)
(0.138102 2.87023e-09 3.15658e-14)
(0.138103 1.41253e-08 3.15974e-14)
(0.138103 3.49601e-08 3.15365e-14)
(0.138103 6.25743e-08 3.16332e-14)
(0.138103 9.37011e-08 3.15915e-14)
(0.138103 1.14335e-07 3.17439e-14)
(0.138103 1.23791e-07 3.18507e-14)
(0.138103 1.265e-07 3.17892e-14)
(0.138103 1.26335e-07 3.18624e-14)
(0.138103 1.24803e-07 3.18334e-14)
(0.138103 1.22684e-07 3.19639e-14)
(0.138103 1.20567e-07 3.20289e-14)
(0.138103 1.18388e-07 3.19414e-14)
(0.138103 1.16094e-07 3.19963e-14)
(0.138103 1.1397e-07 3.19617e-14)
(0.138103 1.11804e-07 3.20735e-14)
(0.138103 1.09736e-07 3.21188e-14)
(0.138103 1.07847e-07 3.20298e-14)
(0.138103 1.05872e-07 3.20923e-14)
(0.138103 1.04109e-07 3.20502e-14)
(0.138103 1.02544e-07 3.19378e-14)
(0.138103 1.01033e-07 3.1886e-14)
(0.138103 9.96358e-08 3.18267e-14)
(0.138103 9.8152e-08 3.17602e-14)
(0.138103 9.66473e-08 3.17367e-14)
(0.138103 9.52714e-08 3.17033e-14)
(0.138103 9.36436e-08 3.16835e-14)
(0.138103 9.187e-08 3.16378e-14)
(0.138103 9.02036e-08 3.15516e-14)
(0.138103 8.84133e-08 3.15439e-14)
(0.138103 8.64562e-08 3.15137e-14)
(0.138103 8.42035e-08 3.14984e-14)
(0.138103 8.16828e-08 3.14667e-14)
(0.138103 7.91536e-08 3.14607e-14)
(0.138103 7.64434e-08 3.13575e-14)
(0.138102 7.33987e-08 3.14155e-14)
(0.138102 7.03626e-08 3.14427e-14)
(0.138102 6.71492e-08 3.142e-14)
(0.138102 6.38865e-08 3.14135e-14)
(0.138102 6.05271e-08 3.13102e-14)
(0.138102 5.68879e-08 3.13566e-14)
(0.138102 5.33896e-08 3.1384e-14)
(0.138102 4.97267e-08 3.13688e-14)
(0.138102 4.59767e-08 3.13757e-14)
(0.138102 4.23652e-08 3.12836e-14)
(0.138102 3.85193e-08 3.13539e-14)
(0.138102 3.47223e-08 3.13911e-14)
(0.138102 3.10976e-08 3.13813e-14)
(0.138102 2.72989e-08 3.13882e-14)
(0.138102 2.34097e-08 3.12905e-14)
(0.138102 1.95894e-08 3.13514e-14)
(0.138102 1.57665e-08 3.13863e-14)
(0.138102 1.20665e-08 3.13799e-14)
(0.138102 8.52002e-09 3.13902e-14)
(0.138102 4.92933e-09 3.12975e-14)
(0.138102 1.46e-09 3.13568e-14)
(0.138102 -1.97708e-09 3.13927e-14)
(0.138102 -5.47867e-09 3.13865e-14)
(0.138102 -8.90959e-09 3.13961e-14)
(0.138102 -1.21848e-08 3.1312e-14)
(0.138102 -1.54485e-08 3.12987e-14)
(0.138102 -1.87197e-08 3.129e-14)
(0.138102 -2.19729e-08 3.12878e-14)
(0.138102 -2.49953e-08 3.12571e-14)
(0.138102 -2.79633e-08 3.12378e-14)
(0.138102 -3.08751e-08 3.12608e-14)
(0.138101 -3.35028e-08 3.12737e-14)
(0.138101 -3.59985e-08 3.1285e-14)
(0.138101 -3.82291e-08 3.12526e-14)
(0.138101 -4.02757e-08 3.12351e-14)
(0.138101 -4.21059e-08 3.12567e-14)
(0.138101 -4.36458e-08 3.12668e-14)
(0.138101 -4.49553e-08 3.12758e-14)
(0.138101 -4.58255e-08 3.12442e-14)
(0.138101 -4.62161e-08 3.12294e-14)
(0.138101 -4.61161e-08 3.12518e-14)
(0.138101 -4.54659e-08 3.12601e-14)
(0.138101 -4.49281e-08 3.12664e-14)
(0.138101 -4.32516e-08 3.12432e-14)
(0.138101 -5.3582e-08 3.1229e-14)
(0.138101 -7.11699e-08 3.12488e-14)
(0.138101 -8.01952e-08 3.12529e-14)
(0.138101 -8.47811e-08 3.12613e-14)
(0.138101 -9.62898e-08 3.12355e-14)
(0.138101 -1.12038e-07 3.12123e-14)
(0.138101 -1.20516e-07 3.12257e-14)
(0.138101 -1.25141e-07 3.12222e-14)
(0.138101 -1.27275e-07 3.12241e-14)
(0.138101 -1.27441e-07 3.1196e-14)
(0.138101 -1.25528e-07 3.11781e-14)
(0.138101 -1.21983e-07 3.11931e-14)
(0.138101 -1.17077e-07 3.11841e-14)
(0.138101 -1.10663e-07 3.12033e-14)
(0.138101 -1.02514e-07 3.11932e-14)
(0.138101 -9.26359e-08 3.1175e-14)
(0.138101 -8.00872e-08 3.11866e-14)
(0.138101 -6.50934e-08 3.11788e-14)
(0.138101 -4.63802e-08 3.11914e-14)
(0.138101 -1.2085e-08 3.11746e-14)
(0.138101 -5.36511e-08 3.11641e-14)
(0.137679 -1.47961e-07 3.08941e-14)
(0.137679 -1.67358e-07 3.09846e-14)
(0.137679 -1.58894e-07 3.10508e-14)
(0.137679 -1.44266e-07 3.11075e-14)
(0.137679 -1.30535e-07 3.10041e-14)
(0.137679 -1.18691e-07 3.10232e-14)
(0.137679 -1.08668e-07 3.08884e-14)
(0.137679 -9.99304e-08 3.09618e-14)
(0.137679 -9.19014e-08 3.08885e-14)
(0.137679 -8.45804e-08 3.07443e-14)
(0.13768 -7.76827e-08 3.08769e-14)
(0.13768 -7.08381e-08 3.0916e-14)
(0.13768 -6.41989e-08 3.09955e-14)
(0.13768 -5.79978e-08 3.09984e-14)
(0.13768 -5.1968e-08 3.11404e-14)
(0.13768 -4.59914e-08 3.11186e-14)
(0.13768 -3.98496e-08 3.10951e-14)
(0.13768 -3.34445e-08 3.11476e-14)
(0.13768 -2.60209e-08 3.11062e-14)
(0.13768 -1.53924e-08 3.12083e-14)
(0.13768 -1.02005e-08 3.12696e-14)
(0.13768 -3.15019e-09 3.13099e-14)
(0.13768 1.03359e-08 3.12818e-14)
(0.13768 3.09155e-08 3.13024e-14)
(0.137681 6.17793e-08 3.131e-14)
(0.137681 8.84723e-08 3.14056e-14)
(0.137681 1.0573e-07 3.14763e-14)
(0.137681 1.14958e-07 3.14869e-14)
(0.137681 1.19385e-07 3.15098e-14)
(0.137681 1.21142e-07 3.15392e-14)
(0.137681 1.21384e-07 3.16156e-14)
(0.137681 1.20878e-07 3.1639e-14)
(0.137681 1.2e-07 3.1634e-14)
(0.137681 1.1867e-07 3.16268e-14)
(0.137681 1.17209e-07 3.16746e-14)
(0.137681 1.15688e-07 3.17314e-14)
(0.137681 1.14029e-07 3.17407e-14)
(0.137681 1.12596e-07 3.17306e-14)
(0.137681 1.10981e-07 3.17487e-14)
(0.137681 1.0937e-07 3.1776e-14)
(0.137681 1.08004e-07 3.1698e-14)
(0.137681 1.06692e-07 3.16724e-14)
(0.137681 1.05391e-07 3.16017e-14)
(0.137681 1.03872e-07 3.15883e-14)
(0.137681 1.02437e-07 3.15393e-14)
(0.137681 1.01122e-07 3.14803e-14)
(0.137681 9.95256e-08 3.1474e-14)
(0.137681 9.78198e-08 3.14099e-14)
(0.137681 9.60953e-08 3.13885e-14)
(0.137681 9.43272e-08 3.13387e-14)
(0.137681 9.25224e-08 3.12785e-14)
(0.137681 9.03236e-08 3.12762e-14)
(0.137681 8.78122e-08 3.12264e-14)
(0.137681 8.52328e-08 3.1234e-14)
(0.137681 8.25422e-08 3.10852e-14)
(0.137681 7.95528e-08 3.12504e-14)
(0.137681 7.65405e-08 3.12553e-14)
(0.137681 7.34511e-08 3.11976e-14)
(0.137681 7.01881e-08 3.11993e-14)
(0.13768 6.6732e-08 3.10466e-14)
(0.13768 6.32226e-08 3.1186e-14)
(0.13768 5.9842e-08 3.11996e-14)
(0.13768 5.62513e-08 3.11516e-14)
(0.13768 5.25378e-08 3.11661e-14)
(0.13768 4.88683e-08 3.10252e-14)
(0.13768 4.51398e-08 3.12061e-14)
(0.13768 4.14247e-08 3.12167e-14)
(0.13768 3.7742e-08 3.11683e-14)
(0.13768 3.40634e-08 3.11804e-14)
(0.13768 3.02681e-08 3.10331e-14)
(0.13768 2.64919e-08 3.12037e-14)
(0.13768 2.27255e-08 3.12107e-14)
(0.13768 1.90649e-08 3.11656e-14)
(0.13768 1.55776e-08 3.11822e-14)
(0.13768 1.20008e-08 3.10401e-14)
(0.13768 8.53374e-09 3.12008e-14)
(0.13768 5.0907e-09 3.12195e-14)
(0.13768 1.73587e-09 3.11776e-14)
(0.13768 -1.61828e-09 3.11925e-14)
(0.13768 -4.94844e-09 3.10588e-14)
(0.13768 -8.2461e-09 3.1059e-14)
(0.13768 -1.14853e-08 3.10564e-14)
(0.13768 -1.45876e-08 3.10537e-14)
(0.13768 -1.74997e-08 3.09602e-14)
(0.13768 -2.04273e-08 3.09666e-14)
(0.13768 -2.33206e-08 3.09922e-14)
(0.13768 -2.58928e-08 3.10111e-14)
(0.13768 -2.83945e-08 3.1025e-14)
(0.13768 -3.06772e-08 3.0933e-14)
(0.137679 -3.27357e-08 3.09381e-14)
(0.137679 -3.45733e-08 3.09685e-14)
(0.137679 -3.61278e-08 3.09903e-14)
(0.137679 -3.73457e-08 3.10049e-14)
(0.137679 -3.81921e-08 3.09164e-14)
(0.137679 -3.87853e-08 3.0927e-14)
(0.137679 -3.89202e-08 3.09588e-14)
(0.137679 -3.86199e-08 3.09774e-14)
(0.137679 -3.85579e-08 3.09883e-14)
(0.137679 -3.7926e-08 3.0915e-14)
(0.137679 -4.68708e-08 3.09257e-14)
(0.137679 -6.1404e-08 3.09521e-14)
(0.137679 -7.02014e-08 3.09682e-14)
(0.137679 -7.67854e-08 3.09811e-14)
(0.137679 -8.88607e-08 3.09013e-14)
(0.137679 -1.03625e-07 3.09063e-14)
(0.137679 -1.12011e-07 3.09294e-14)
(0.137679 -1.17604e-07 3.09393e-14)
(0.137679 -1.21486e-07 3.09463e-14)
(0.137679 -1.2351e-07 3.08618e-14)
(0.137679 -1.23523e-07 3.08676e-14)
(0.137679 -1.21701e-07 3.08961e-14)
(0.137679 -1.18317e-07 3.08439e-14)
(0.137679 -1.13171e-07 3.08681e-14)
(0.137679 -1.06245e-07 3.08189e-14)
(0.137679 -9.7587e-08 3.0838e-14)
(0.137679 -8.62675e-08 3.08694e-14)
(0.137679 -7.27207e-08 3.08225e-14)
(0.137679 -5.59454e-08 3.08468e-14)
(0.137679 -2.36819e-08 3.07985e-14)
(0.137679 -6.43682e-08 3.08152e-14)
(0.13724 -1.54154e-07 3.066e-14)
(0.13724 -1.74869e-07 3.06951e-14)
(0.13724 -1.68337e-07 3.07369e-14)
(0.137241 -1.55387e-07 3.08918e-14)
(0.137241 -1.42714e-07 3.07457e-14)
(0.137241 -1.31362e-07 3.07526e-14)
(0.137241 -1.2152e-07 3.06568e-14)
(0.137241 -1.12947e-07 3.08226e-14)
(0.137241 -1.05015e-07 3.07055e-14)
(0.137241 -9.75094e-08 3.06351e-14)
(0.137241 -9.0431e-08 3.07235e-14)
(0.137241 -8.34507e-08 3.06977e-14)
(0.137241 -7.6543e-08 3.08031e-14)
(0.137241 -7.00255e-08 3.07796e-14)
(0.137241 -6.36847e-08 3.09012e-14)
(0.137241 -5.73882e-08 3.091e-14)
(0.137241 -5.0862e-08 3.08574e-14)
(0.137241 -4.40643e-08 3.09466e-14)
(0.137241 -3.67761e-08 3.08938e-14)
(0.137241 -2.6471e-08 3.098e-14)
(0.137241 -2.17564e-08 3.09837e-14)
(0.137242 -1.7331e-08 3.1016e-14)
(0.137242 -9.27139e-09 3.10083e-14)
(0.137242 4.27194e-09 3.09842e-14)
(0.137242 3.08265e-08 3.10705e-14)
(0.137242 5.88551e-08 3.10903e-14)
(0.137242 8.08188e-08 3.10748e-14)
(0.137242 9.55761e-08 3.11802e-14)
(0.137242 1.04875e-07 3.11227e-14)
(0.137242 1.10509e-07 3.1222e-14)
(0.137242 1.13722e-07 3.12872e-14)
(0.137242 1.15453e-07 3.12314e-14)
(0.137243 1.1635e-07 3.13186e-14)
(0.137243 1.16414e-07 3.1249e-14)
(0.137243 1.16127e-07 3.14039e-14)
(0.137243 1.15579e-07 3.1417e-14)
(0.137243 1.14701e-07 3.13439e-14)
(0.137243 1.13973e-07 3.14214e-14)
(0.137243 1.12928e-07 3.1366e-14)
(0.137243 1.1176e-07 3.15207e-14)
(0.137243 1.10771e-07 3.14318e-14)
(0.137243 1.09769e-07 3.14506e-14)
(0.137243 1.08745e-07 3.13491e-14)
(0.137243 1.07478e-07 3.14141e-14)
(0.137243 1.06151e-07 3.13225e-14)
(0.137243 1.0498e-07 3.12374e-14)
(0.137243 1.03658e-07 3.12623e-14)
(0.137242 1.02128e-07 3.11584e-14)
(0.137242 1.00564e-07 3.12147e-14)
(0.137242 9.89605e-08 3.11149e-14)
(0.137242 9.71541e-08 3.10264e-14)
(0.137242 9.50019e-08 3.1055e-14)
(0.137242 9.27455e-08 3.09654e-14)
(0.137242 9.02335e-08 3.10048e-14)
(0.137242 8.7591e-08 3.08736e-14)
(0.137242 8.47106e-08 3.10531e-14)
(0.137242 8.17939e-08 3.1055e-14)
(0.137242 7.8891e-08 3.09533e-14)
(0.137242 7.55878e-08 3.09847e-14)
(0.137242 7.21632e-08 3.08472e-14)
(0.137242 6.89164e-08 3.10046e-14)
(0.137242 6.56191e-08 3.10033e-14)
(0.137242 6.20121e-08 3.09152e-14)
(0.137242 5.8488e-08 3.09581e-14)
(0.137242 5.49169e-08 3.08312e-14)
(0.137242 5.1232e-08 3.10232e-14)
(0.137242 4.76387e-08 3.10331e-14)
(0.137242 4.39707e-08 3.09369e-14)
(0.137242 4.0369e-08 3.09749e-14)
(0.137242 3.66779e-08 3.08405e-14)
(0.137242 3.29808e-08 3.10212e-14)
(0.137242 2.93676e-08 3.10258e-14)
(0.137242 2.57601e-08 3.09328e-14)
(0.137242 2.2255e-08 3.09766e-14)
(0.137242 1.88387e-08 3.08489e-14)
(0.137242 1.54534e-08 3.09793e-14)
(0.137242 1.1959e-08 3.10373e-14)
(0.137242 8.69046e-09 3.09525e-14)
(0.137242 5.43114e-09 3.09925e-14)
(0.137242 2.00825e-09 3.08705e-14)
(0.137242 -1.3158e-09 3.08289e-14)
(0.137242 -4.36054e-09 3.08211e-14)
(0.137242 -7.3258e-09 3.08154e-14)
(0.137242 -1.02412e-08 3.06756e-14)
(0.137241 -1.30252e-08 3.06937e-14)
(0.137241 -1.5806e-08 3.07291e-14)
(0.137241 -1.84569e-08 3.07508e-14)
(0.137241 -2.086e-08 3.07637e-14)
(0.137241 -2.31916e-08 3.06232e-14)
(0.137241 -2.53394e-08 3.06461e-14)
(0.137241 -2.70741e-08 3.06876e-14)
(0.137241 -2.86306e-08 3.07161e-14)
(0.137241 -2.98178e-08 3.07327e-14)
(0.137241 -3.07721e-08 3.05984e-14)
(0.137241 -3.14298e-08 3.06285e-14)
(0.137241 -3.16999e-08 3.06715e-14)
(0.137241 -3.17792e-08 3.0696e-14)
(0.137241 -3.2159e-08 3.07084e-14)
(0.137241 -3.23492e-08 3.05905e-14)
(0.137241 -4.01172e-08 3.06234e-14)
(0.137241 -5.20781e-08 3.06601e-14)
(0.137241 -5.98264e-08 3.06833e-14)
(0.137241 -6.68113e-08 3.06981e-14)
(0.137241 -7.87551e-08 3.05245e-14)
(0.137241 -9.25395e-08 3.06026e-14)
(0.137241 -1.00694e-07 3.06388e-14)
(0.137241 -1.06615e-07 3.06565e-14)
(0.137241 -1.11577e-07 3.06649e-14)
(0.13724 -1.14988e-07 3.04862e-14)
(0.13724 -1.16579e-07 3.056e-14)
(0.13724 -1.16453e-07 3.06042e-14)
(0.13724 -1.14622e-07 3.0454e-14)
(0.13724 -1.10952e-07 3.05421e-14)
(0.13724 -1.05466e-07 3.04072e-14)
(0.13724 -9.81944e-08 3.05038e-14)
(0.13724 -8.83473e-08 3.05576e-14)
(0.13724 -7.6555e-08 3.04218e-14)
(0.13724 -6.19454e-08 3.05083e-14)
(0.13724 -3.19163e-08 3.04222e-14)
(0.13724 -7.18661e-08 3.04739e-14)
(0.136785 -1.57291e-07 3.02511e-14)
(0.136785 -1.79507e-07 3.04393e-14)
(0.136785 -1.75085e-07 3.043e-14)
(0.136785 -1.63972e-07 3.05e-14)
(0.136785 -1.52615e-07 3.04384e-14)
(0.136786 -1.42096e-07 3.04655e-14)
(0.136786 -1.32715e-07 3.04384e-14)
(0.136786 -1.24304e-07 3.05062e-14)
(0.136786 -1.16502e-07 3.04776e-14)
(0.136786 -1.09093e-07 3.04692e-14)
(0.136786 -1.01889e-07 3.04897e-14)
(0.136786 -9.47078e-08 3.0467e-14)
(0.136786 -8.75435e-08 3.05337e-14)
(0.136786 -8.07887e-08 3.05382e-14)
(0.136786 -7.42569e-08 3.0585e-14)
(0.136786 -6.76971e-08 3.05746e-14)
(0.136786 -6.08298e-08 3.05976e-14)
(0.136786 -5.37152e-08 3.06727e-14)
(0.136786 -4.64631e-08 3.06501e-14)
(0.136786 -3.65378e-08 3.06708e-14)
(0.136786 -3.19825e-08 3.06902e-14)
(0.136786 -2.90077e-08 3.07239e-14)
(0.136786 -2.45845e-08 3.07226e-14)
(0.136786 -1.66898e-08 3.07754e-14)
(0.136787 4.07051e-09 3.07485e-14)
(0.136787 2.98969e-08 3.07861e-14)
(0.136787 5.35155e-08 3.08938e-14)
(0.136787 7.17856e-08 3.08899e-14)
(0.136787 8.50733e-08 3.09411e-14)
(0.136787 9.43791e-08 3.09263e-14)
(0.136787 1.0071e-07 3.09566e-14)
(0.136787 1.0504e-07 3.10304e-14)
(0.136787 1.08081e-07 3.10256e-14)