/*--------------------------------*- C++ -*----------------------------------*\
  =========                 |
  \\      /  F ield         | OpenFOAM: The Open Source CFD Toolbox
   \\    /   O peration     | Website:  https://openfoam.org
    \\  /    A nd           | Version:  7
     \\/     M anipulation  |
\*---------------------------------------------------------------------------*/
FoamFile
{
    version     2.0;
    format      ascii;
    class       surfaceScalarField;
    location    "17500";
    object      phi;
}
// * * * * * * * * * * * * * * * * * * * * * * * * * * * * * * * * * * * * * //

dimensions      [0 3 -1 0 0 0 0];

internalField   nonuniform List<scalar> 
47680
(
2.1993e-06
1.98943e-12
2.1993e-06
-4.7258e-12
2.19931e-06
-8.47624e-12
2.19932e-06
-7.13214e-12
2.19932e-06
-3.42711e-12
2.19932e-06
4.63222e-13
2.19932e-06
3.59647e-12
2.19931e-06
5.76609e-12
2.1993e-06
7.04673e-12
2.1993e-06
7.60828e-12
2.19929e-06
7.64545e-12
2.19928e-06
7.31373e-12
2.19927e-06
6.7319e-12
2.19927e-06
6.00545e-12
2.19926e-06
5.22057e-12
2.19926e-06
4.42087e-12
2.19925e-06
3.61218e-12
2.19925e-06
2.81645e-12
2.19925e-06
2.0653e-12
2.19925e-06
1.34995e-12
2.19925e-06
6.55568e-13
2.19925e-06
-6.70073e-15
2.19925e-06
-6.18643e-13
2.19925e-06
-1.16015e-12
2.19925e-06
-1.62673e-12
2.19925e-06
-2.03917e-12
2.19926e-06
-2.42385e-12
2.19926e-06
-2.791e-12
2.19926e-06
-3.12221e-12
2.19927e-06
-3.39944e-12
2.19927e-06
-3.6353e-12
2.19927e-06
-3.85698e-12
2.19928e-06
-4.06551e-12
2.19928e-06
-4.24612e-12
2.19929e-06
-4.36852e-12
2.19929e-06
-4.45448e-12
2.19929e-06
-4.50757e-12
2.1993e-06
-4.57533e-12
2.1993e-06
-4.53178e-12
2.19931e-06
-4.47244e-12
2.19931e-06
-4.14525e-12
2.19932e-06
-3.83816e-12
2.19932e-06
-3.09036e-12
2.19932e-06
-2.18591e-12
2.19932e-06
-1.08956e-12
2.19932e-06
4.15879e-13
2.19932e-06
7.95047e-13
2.19932e-06
8.62761e-13
2.19932e-06
6.55025e-13
2.19932e-06
6.55576e-14
2.19932e-06
-3.01529e-13
2.19932e-06
-6.46019e-13
2.19932e-06
-9.48279e-13
2.19932e-06
-1.17576e-12
2.19932e-06
-1.33282e-12
2.19933e-06
-1.40283e-12
2.19933e-06
-1.3704e-12
2.19933e-06
-1.25743e-12
2.19933e-06
-1.08218e-12
2.19933e-06
-8.30534e-13
2.19933e-06
-4.93958e-13
2.19933e-06
-1.02869e-13
2.19933e-06
2.96617e-13
2.19933e-06
6.91116e-13
2.19933e-06
1.07548e-12
2.19933e-06
1.42369e-12
2.19933e-06
1.71475e-12
2.19932e-06
1.941e-12
2.19932e-06
2.11277e-12
2.19932e-06
2.26644e-12
2.19932e-06
2.40529e-12
2.19931e-06
2.48592e-12
2.19931e-06
2.49502e-12
2.19931e-06
2.45965e-12
2.19931e-06
2.40182e-12
2.1993e-06
2.34235e-12
2.1993e-06
2.28042e-12
2.1993e-06
2.18835e-12
2.1993e-06
2.06195e-12
2.1993e-06
1.91594e-12
2.19929e-06
1.75392e-12
2.19929e-06
1.59243e-12
2.19929e-06
1.44561e-12
2.19929e-06
1.3277e-12
2.19929e-06
1.16891e-12
2.19929e-06
9.78161e-13
2.19929e-06
6.72752e-13
2.19929e-06
4.07925e-13
2.19929e-06
2.53025e-13
2.19929e-06
1.44233e-13
2.19929e-06
1.36671e-13
2.19929e-06
8.8518e-14
2.19929e-06
2.10931e-14
2.19929e-06
-4.12268e-14
2.19929e-06
-1.40058e-13
2.19929e-06
-2.52141e-13
2.19929e-06
-4.11556e-13
2.19929e-06
-5.26021e-13
2.19929e-06
-6.94345e-13
2.19929e-06
-6.42155e-13
2.19929e-06
-6.69006e-13
2.19929e-06
-3.06653e-13
2.19929e-06
1.05283e-13
2.19929e-06
7.36175e-13
2.19929e-06
1.62728e-12
2.19929e-06
1.66922e-12
2.19928e-06
1.44262e-12
2.19928e-06
8.90154e-13
2.19928e-06
1.81124e-13
2.19928e-06
-5.28441e-13
2.19928e-06
-1.18664e-12
2.19929e-06
-1.71649e-12
2.19929e-06
-2.15124e-12
2.19929e-06
-2.40401e-12
2.19929e-06
-2.55317e-12
2.1993e-06
-2.52215e-12
2.1993e-06
-1.95056e-12
2.1993e-06
-2.03478e-12
2.1993e-06
-1.25222e-12
2.63678e-12
6.79532e-06
2.54553e-12
6.79534e-06
-2.0757e-11
6.79536e-06
-3.23699e-11
6.79538e-06
-2.59659e-11
6.79539e-06
-1.12457e-11
6.79538e-06
3.8317e-12
6.79537e-06
1.58519e-11
6.79535e-06
2.41028e-11
6.79533e-06
2.89113e-11
6.79531e-06
3.09448e-11
6.79528e-06
3.09458e-11
6.79526e-06
2.95166e-11
6.79524e-06
2.71187e-11
6.79522e-06
2.4156e-11
6.79521e-06
2.09594e-11
6.79519e-06
1.77082e-11
6.79518e-06
1.44421e-11
6.79517e-06
1.12368e-11
6.79517e-06
8.20087e-12
6.79516e-06
5.31498e-12
6.79516e-06
2.53305e-12
6.79516e-06
-1.12749e-13
6.79516e-06
-2.55668e-12
6.79517e-06
-4.72664e-12
6.79517e-06
-6.60558e-12
6.79518e-06
-8.26732e-12
6.79519e-06
-9.80699e-12
6.7952e-06
-1.12625e-11
6.7952e-06
-1.25788e-11
6.79521e-06
-1.36915e-11
6.79523e-06
-1.46391e-11
6.79524e-06
-1.55126e-11
6.79525e-06
-1.63264e-11
6.79526e-06
-1.7027e-11
6.79528e-06
-1.7522e-11
6.79529e-06
-1.78629e-11
6.7953e-06
-1.80957e-11
6.79532e-06
-1.83308e-11
6.79533e-06
-1.82277e-11
6.79534e-06
-1.79702e-11
6.79536e-06
-1.68669e-11
6.79537e-06
-1.56599e-11
6.79538e-06
-1.29928e-11
6.79539e-06
-9.66629e-12
6.79539e-06
-5.5095e-12
6.79539e-06
-1.14661e-13
6.79539e-06
1.81288e-12
6.79539e-06
2.32973e-12
6.79539e-06
1.7482e-12
6.79539e-06
-1.57665e-13
6.79539e-06
-1.52477e-12
6.79539e-06
-2.75712e-12
6.79539e-06
-3.84026e-12
6.7954e-06
-4.65533e-12
6.7954e-06
-5.19737e-12
6.7954e-06
-5.4035e-12
6.79541e-06
-5.21608e-12
6.79541e-06
-4.70576e-12
6.79541e-06
-3.9417e-12
6.79542e-06
-2.8878e-12
6.79542e-06
-1.52002e-12
6.79542e-06
5.20521e-14
6.79542e-06
1.65961e-12
6.79541e-06
3.23755e-12
6.79541e-06
4.75883e-12
6.79541e-06
6.1339e-12
6.7954e-06
7.28476e-12
6.79539e-06
8.18235e-12
6.79539e-06
8.86509e-12
6.79538e-06
9.4566e-12
6.79537e-06
9.97518e-12
6.79536e-06
1.02777e-11
6.79536e-06
1.03142e-11
6.79535e-06
1.01706e-11
6.79534e-06
9.93119e-12
6.79533e-06
9.67576e-12
6.79533e-06
9.40678e-12
6.79532e-06
9.03262e-12
6.79531e-06
8.53212e-12
6.79531e-06
7.95163e-12
6.7953e-06
7.31486e-12
6.7953e-06
6.67571e-12
6.79529e-06
6.09298e-12
6.79529e-06
5.59905e-12
6.79528e-06
4.9823e-12
6.79528e-06
4.22216e-12
6.79528e-06
3.07608e-12
6.79528e-06
2.03659e-12
6.79528e-06
1.3713e-12
6.79528e-06
9.25123e-13
6.79527e-06
8.271e-13
6.79527e-06
6.39441e-13
6.79527e-06
3.80511e-13
6.79527e-06
1.14878e-13
6.79527e-06
-2.75831e-13
6.79527e-06
-7.57932e-13
6.79527e-06
-1.3937e-12
6.79528e-06
-1.94963e-12
6.79528e-06
-2.62038e-12
6.79528e-06
-2.65039e-12
6.79528e-06
-2.79322e-12
6.79528e-06
-1.69809e-12
6.79528e-06
-2.86113e-13
6.79528e-06
1.96851e-12
6.79528e-06
5.03471e-12
6.79528e-06
5.48533e-12
6.79527e-06
4.74306e-12
6.79527e-06
2.82922e-12
6.79527e-06
2.79218e-13
6.79527e-06
-2.34667e-12
6.79528e-06
-4.80043e-12
6.79528e-06
-6.81732e-12
6.79529e-06
-8.45555e-12
6.79529e-06
-9.45648e-12
6.7953e-06
-1.00565e-11
6.79531e-06
-9.95533e-12
6.79532e-06
-8.01296e-12
6.79532e-06
-8.30003e-12
6.79532e-06
-4.6214e-12
7.61954e-12
1.17011e-05
-4.25115e-12
1.17012e-05
-5.11635e-11
1.17012e-05
-7.04733e-11
1.17012e-05
-5.34621e-11
1.17012e-05
-2.02992e-11
1.17012e-05
1.27539e-11
1.17012e-05
3.88091e-11
1.17012e-05
5.65308e-11
1.17011e-05
6.67153e-11
1.17011e-05
7.08442e-11
1.17011e-05
7.0527e-11
1.1701e-05
6.70785e-11
1.1701e-05
6.15145e-11
1.1701e-05
5.47088e-11
1.17009e-05
4.73837e-11
1.17009e-05
3.99485e-11
1.17009e-05
3.25153e-11
1.17009e-05
2.52381e-11
1.17009e-05
1.83302e-11
1.17009e-05
1.1774e-11
1.17009e-05
5.48587e-12
1.17009e-05
-4.78681e-13
1.17009e-05
-5.98641e-12
1.17009e-05
-1.08859e-11
1.17009e-05
-1.51452e-11
1.17009e-05
-1.89153e-11
1.17009e-05
-2.23905e-11
1.17009e-05
-2.56548e-11
1.17009e-05
-2.86072e-11
1.17009e-05
-3.11224e-11
1.1701e-05
-3.3265e-11
1.1701e-05
-3.52122e-11
1.1701e-05
-3.70109e-11
1.1701e-05
-3.85541e-11
1.1701e-05
-3.96706e-11
1.17011e-05
-4.04397e-11
1.17011e-05
-4.09864e-11
1.17011e-05
-4.14784e-11
1.17011e-05
-4.13317e-11
1.17012e-05
-4.076e-11
1.17012e-05
-3.85658e-11
1.17012e-05
-3.59443e-11
1.17012e-05
-3.04455e-11
1.17012e-05
-2.34422e-11
1.17012e-05
-1.45504e-11
1.17012e-05
-3.32123e-12
1.17012e-05
1.53035e-12
1.17012e-05
3.16496e-12
1.17012e-05
2.32444e-12
1.17012e-05
-1.2384e-12
1.17012e-05
-4.05758e-12
1.17012e-05
-6.58096e-12
1.17013e-05
-8.78792e-12
1.17013e-05
-1.04414e-11
1.17013e-05
-1.14973e-11
1.17013e-05
-1.18151e-11
1.17013e-05
-1.12732e-11
1.17013e-05
-1.00034e-11
1.17013e-05
-8.15576e-12
1.17013e-05
-5.68075e-12
1.17013e-05
-2.54299e-12
1.17013e-05
1.02717e-12
1.17013e-05
4.67253e-12
1.17013e-05
8.2337e-12
1.17013e-05
1.16391e-11
1.17013e-05
1.47048e-11
1.17013e-05
1.72727e-11
1.17012e-05
1.92797e-11
1.17012e-05
2.08062e-11
1.17012e-05
2.2099e-11
1.17012e-05
2.32002e-11
1.17012e-05
2.38407e-11
1.17012e-05
2.39128e-11
1.17012e-05
2.35805e-11
1.17012e-05
2.30242e-11
1.17011e-05
2.24157e-11
1.17011e-05
2.17705e-11
1.17011e-05
2.09111e-11
1.17011e-05
1.97849e-11
1.17011e-05
1.84814e-11
1.17011e-05
1.70615e-11
1.17011e-05
1.56328e-11
1.17011e-05
1.43212e-11
1.17011e-05
1.31763e-11
1.17011e-05
1.18043e-11
1.1701e-05
1.01008e-11
1.1701e-05
7.6294e-12
1.1701e-05
5.32249e-12
1.1701e-05
3.76094e-12
1.1701e-05
2.7228e-12
1.1701e-05
2.40095e-12
1.1701e-05
1.97256e-12
1.1701e-05
1.40104e-12
1.1701e-05
7.7854e-13
1.1701e-05
-1.09947e-13
1.1701e-05
-1.24907e-12
1.1701e-05
-2.71161e-12
1.1701e-05
-4.10974e-12
1.1701e-05
-5.67968e-12
1.1701e-05
-6.10448e-12
1.1701e-05
-6.57176e-12
1.1701e-05
-4.66744e-12
1.17011e-05
-1.92326e-12
1.17011e-05
2.64104e-12
1.1701e-05
8.78552e-12
1.1701e-05
1.0126e-11
1.1701e-05
8.78039e-12
1.1701e-05
4.96529e-12
1.1701e-05
-2.75197e-13
1.1701e-05
-5.79907e-12
1.1701e-05
-1.10058e-11
1.17011e-05
-1.53457e-11
1.17011e-05
-1.88599e-11
1.17011e-05
-2.1078e-11
1.17011e-05
-2.24233e-11
1.17011e-05
-2.22538e-11
1.17011e-05
-1.84183e-11
1.17011e-05
-1.89541e-11
1.17011e-05
-9.89034e-12
1.21022e-11
1.69068e-05
-2.52578e-11
1.69068e-05
-9.92715e-11
1.69069e-05
-1.20541e-10
1.69069e-05
-8.51347e-11
1.69069e-05
-2.63261e-11
1.69069e-05
3.0452e-11
1.69069e-05
7.46341e-11
1.69068e-05
1.04373e-10
1.69068e-05
1.21178e-10
1.69067e-05
1.27623e-10
1.69067e-05
1.26449e-10
1.69066e-05
1.19901e-10
1.69066e-05
1.09728e-10
1.69065e-05
9.74212e-11
1.69065e-05
8.4216e-11
1.69065e-05
7.08442e-11
1.69064e-05
5.75312e-11
1.69064e-05
4.45242e-11
1.69064e-05
3.21591e-11
1.69064e-05
2.04367e-11
1.69064e-05
9.24232e-12
1.69064e-05
-1.34657e-12
1.69064e-05
-1.11182e-11
1.69064e-05
-1.9824e-11
1.69064e-05
-2.74183e-11
1.69064e-05
-3.41512e-11
1.69064e-05
-4.03336e-11
1.69065e-05
-4.61063e-11
1.69065e-05
-5.13265e-11
1.69065e-05
-5.57984e-11
1.69065e-05
-5.96093e-11
1.69066e-05
-6.30366e-11
1.69066e-05
-6.61729e-11
1.69066e-05
-6.88561e-11
1.69067e-05
-7.08284e-11
1.69067e-05
-7.22008e-11
1.69067e-05
-7.31949e-11
1.69068e-05
-7.40355e-11
1.69068e-05
-7.38726e-11
1.69068e-05
-7.29135e-11
1.69068e-05
-6.94116e-11
1.69069e-05
-6.49794e-11
1.69069e-05
-5.59705e-11
1.69069e-05
-4.43122e-11
1.69069e-05
-2.93704e-11
1.69069e-05
-1.07512e-11
1.69069e-05
-1.59993e-12
1.69069e-05
2.0615e-12
1.69069e-05
1.36459e-12
1.6907e-05
-3.84608e-12
1.6907e-05
-8.32025e-12
1.6907e-05
-1.23673e-11
1.6907e-05
-1.58819e-11
1.6907e-05
-1.84906e-11
1.6907e-05
-2.00698e-11
1.6907e-05
-2.03674e-11
1.6907e-05
-1.91763e-11
1.6907e-05
-1.66992e-11
1.6907e-05
-1.31939e-11
1.6907e-05
-8.61452e-12
1.6907e-05
-2.93118e-12
1.6907e-05
3.46487e-12
1.6907e-05
9.97436e-12
1.6907e-05
1.63015e-11
1.6907e-05
2.23041e-11
1.6907e-05
2.76859e-11
1.6907e-05
3.21892e-11
1.69069e-05
3.57137e-11
1.69069e-05
3.83933e-11
1.69069e-05
4.0618e-11
1.69069e-05
4.24626e-11
1.69069e-05
4.35177e-11
1.69069e-05
4.36151e-11
1.69068e-05
4.30039e-11
1.69068e-05
4.19847e-11
1.69068e-05
4.08502e-11
1.69068e-05
3.96407e-11
1.69068e-05
3.80812e-11
1.69067e-05
3.60766e-11
1.69067e-05
3.37671e-11
1.69067e-05
3.12691e-11
1.69067e-05
2.87548e-11
1.69067e-05
2.64267e-11
1.69067e-05
2.43522e-11
1.69067e-05
2.19259e-11
1.69067e-05
1.89175e-11
1.69067e-05
1.46789e-11
1.69066e-05
1.06486e-11
1.69066e-05
7.80499e-12
1.69066e-05
5.90375e-12
1.69066e-05
5.19229e-12
1.69066e-05
4.40548e-12
1.69066e-05
3.39898e-12
1.69066e-05
2.25516e-12
1.69066e-05
6.4126e-13
1.69066e-05
-1.47039e-12
1.69066e-05
-4.15459e-12
1.69066e-05
-6.85083e-12
1.69066e-05
-9.79934e-12
1.69066e-05
-1.10649e-11
1.69066e-05
-1.22189e-11
1.69067e-05
-9.67586e-12
1.69067e-05
-5.53478e-12
1.69067e-05
1.69804e-12
1.69067e-05
1.1486e-11
1.69067e-05
1.41663e-11
1.69066e-05
1.23171e-11
1.69066e-05
6.32722e-12
1.69066e-05
-2.14818e-12
1.69067e-05
-1.12794e-11
1.69067e-05
-1.99737e-11
1.69067e-05
-2.7299e-11
1.69067e-05
-3.32339e-11
1.69067e-05
-3.70768e-11
1.69067e-05
-3.94372e-11
1.69067e-05
-3.92372e-11
1.69068e-05
-3.32073e-11
1.69068e-05
-3.40349e-11
1.69068e-05
-1.66478e-11
1.30202e-11
2.23332e-05
-6.70892e-11
2.23333e-05
-1.65053e-10
2.23333e-05
-1.7706e-10
2.23334e-05
-1.14688e-10
2.23334e-05
-2.4726e-11
2.23333e-05
5.94085e-11
2.23333e-05
1.2408e-10
2.23332e-05
1.67183e-10
2.23332e-05
1.91112e-10
2.23331e-05
1.99705e-10
2.2333e-05
1.96983e-10
2.2333e-05
1.86261e-10
2.23329e-05
1.70136e-10
2.23328e-05
1.50825e-10
2.23328e-05
1.30168e-10
2.23328e-05
1.09292e-10
2.23327e-05
8.85681e-11
2.23327e-05
6.83483e-11
2.23327e-05
4.90991e-11
2.23327e-05
3.08622e-11
2.23327e-05
1.35063e-11
2.23327e-05
-2.86841e-12
2.23327e-05
-1.79691e-11
2.23327e-05
-3.14437e-11
2.23327e-05
-4.32419e-11
2.23327e-05
-5.37273e-11
2.23327e-05
-6.33289e-11
2.23328e-05
-7.22469e-11
2.23328e-05
-8.03098e-11
2.23328e-05
-8.72488e-11
2.23329e-05
-9.31653e-11
2.23329e-05
-9.8443e-11
2.23329e-05
-1.03232e-10
2.2333e-05
-1.0732e-10
2.2333e-05
-1.10363e-10
2.23331e-05
-1.12514e-10
2.23331e-05
-1.14095e-10
2.23331e-05
-1.15382e-10
2.23332e-05
-1.15247e-10
2.23332e-05
-1.13876e-10
2.23333e-05
-1.08955e-10
2.23333e-05
-1.02455e-10
2.23333e-05
-8.94986e-11
2.23334e-05
-7.25207e-11
2.23334e-05
-5.06125e-11
2.23334e-05
-2.34829e-11
2.23334e-05
-8.79706e-12
2.23334e-05
-2.07954e-12
2.23334e-05
-1.99374e-12
2.23334e-05
-8.53295e-12
2.23334e-05
-1.45978e-11
2.23334e-05
-2.01983e-11
2.23334e-05
-2.5035e-11
2.23334e-05
-2.85709e-11
2.23335e-05
-3.05612e-11
2.23335e-05
-3.06059e-11
2.23335e-05
-2.83952e-11
2.23335e-05
-2.42146e-11
2.23335e-05
-1.84491e-11
2.23335e-05
-1.10795e-11
2.23335e-05
-2.1053e-12
2.23335e-05
7.88289e-12
2.23335e-05
1.79998e-11
2.23335e-05
2.77831e-11
2.23335e-05
3.69985e-11
2.23334e-05
4.52219e-11
2.23334e-05
5.20943e-11
2.23334e-05
5.74806e-11
2.23334e-05
6.15756e-11
2.23333e-05
6.49188e-11
2.23333e-05
6.76166e-11
2.23333e-05
6.91238e-11
2.23333e-05
6.9219e-11
2.23332e-05
6.82408e-11
2.23332e-05
6.66219e-11
2.23332e-05
6.47971e-11
2.23332e-05
6.28417e-11
2.23332e-05
6.03756e-11
2.23331e-05
5.72591e-11
2.23331e-05
5.36929e-11
2.23331e-05
4.98613e-11
2.23331e-05
4.60053e-11
2.23331e-05
4.24047e-11
2.2333e-05
3.914e-11
2.2333e-05
3.53765e-11
2.2333e-05
3.07295e-11
2.2333e-05
2.43456e-11
2.2333e-05
1.82055e-11
2.2333e-05
1.3739e-11
2.2333e-05
1.07182e-11
2.2333e-05
9.43757e-12
2.2333e-05
8.16276e-12
2.2333e-05
6.59158e-12
2.2333e-05
4.75145e-12
2.2333e-05
2.16424e-12
2.2333e-05
-1.25401e-12
2.2333e-05
-5.57848e-12
2.2333e-05
-1.00573e-11
2.2333e-05
-1.49085e-11
2.2333e-05
-1.75475e-11
2.2333e-05
-1.98614e-11
2.2333e-05
-1.7039e-11
2.2333e-05
-1.16658e-11
2.2333e-05
-1.69739e-12
2.2333e-05
1.19875e-11
2.2333e-05
1.63696e-11
2.2333e-05
1.42591e-11
2.2333e-05
6.09289e-12
2.2333e-05
-5.83622e-12
2.2333e-05
-1.8966e-11
2.2333e-05
-3.1607e-11
2.2333e-05
-4.23605e-11
2.23331e-05
-5.11011e-11
2.23331e-05
-5.68936e-11
2.23331e-05
-6.05081e-11
2.23331e-05
-6.03455e-11
2.23331e-05
-5.20121e-11
2.23332e-05
-5.32547e-11
2.23332e-05
-2.41372e-11
6.38532e-12
2.77971e-05
-1.31553e-10
2.77971e-05
-2.40956e-10
2.77972e-05
-2.30714e-10
2.77972e-05
-1.35447e-10
2.77972e-05
-1.26241e-11
2.77972e-05
9.92243e-11
2.77971e-05
1.84465e-10
2.7797e-05
2.4092e-10
2.7797e-05
2.71825e-10
2.77969e-05
2.82249e-10
2.77968e-05
2.77471e-10
2.77967e-05
2.61875e-10
2.77966e-05
2.38944e-10
2.77966e-05
2.11666e-10
2.77965e-05
1.82536e-10
2.77965e-05
1.53116e-10
2.77965e-05
1.23945e-10
2.77964e-05
9.54802e-11
2.77964e-05
6.83298e-11
2.77964e-05
4.2603e-11
2.77964e-05
1.81734e-11
2.77964e-05
-4.83461e-12
2.77964e-05
-2.60474e-11
2.77964e-05
-4.50138e-11
2.77964e-05
-6.1696e-11
2.77965e-05
-7.6575e-11
2.77965e-05
-9.01769e-11
2.77965e-05
-1.02758e-10
2.77965e-05
-1.14134e-10
2.77966e-05
-1.23964e-10
2.77966e-05
-1.32355e-10
2.77967e-05
-1.39804e-10
2.77967e-05
-1.46521e-10
2.77968e-05
-1.52245e-10
2.77968e-05
-1.5656e-10
2.77968e-05
-1.59673e-10
2.77969e-05
-1.62e-10
2.77969e-05
-1.63853e-10
2.7797e-05
-1.63826e-10
2.7797e-05
-1.62086e-10
2.77971e-05
-1.55759e-10
2.77971e-05
-1.47099e-10
2.77972e-05
-1.30022e-10
2.77972e-05
-1.07415e-10
2.77972e-05
-7.80653e-11
2.77973e-05
-4.17682e-11
2.77973e-05
-2.05732e-11
2.77973e-05
-9.80172e-12
2.77973e-05
-8.15511e-12
2.77973e-05
-1.547e-11
2.77973e-05
-2.28204e-11
2.77973e-05
-2.97999e-11
2.77973e-05
-3.58125e-11
2.77973e-05
-4.01251e-11
2.77973e-05
-4.23264e-11
2.77973e-05
-4.18325e-11
2.77974e-05
-3.8227e-11
2.77974e-05
-3.1889e-11
2.77974e-05
-2.33465e-11
2.77974e-05
-1.26243e-11
2.77974e-05
2.22162e-13
2.77974e-05
1.43697e-11
2.77974e-05
2.86237e-11
2.77973e-05
4.23442e-11
2.77973e-05
5.51916e-11
2.77973e-05
6.66089e-11
2.77973e-05
7.61446e-11
2.77972e-05
8.36354e-11
2.77972e-05
8.93395e-11
2.77972e-05
9.39368e-11
2.77972e-05
9.75526e-11
2.77971e-05
9.9524e-11
2.77971e-05
9.95971e-11
2.77971e-05
9.81983e-11
2.7797e-05
9.58917e-11
2.7797e-05
9.32656e-11
2.7797e-05
9.04315e-11
2.7797e-05
8.69029e-11
2.77969e-05
8.25037e-11
2.77969e-05
7.75085e-11
2.77969e-05
7.2172e-11
2.77969e-05
6.67976e-11
2.77968e-05
6.17346e-11
2.77968e-05
5.70712e-11
2.77968e-05
5.17366e-11
2.77968e-05
4.51835e-11
2.77968e-05
3.6379e-11
2.77968e-05
2.7863e-11
2.77968e-05
2.15242e-11
2.77968e-05
1.71786e-11
2.77968e-05
1.51594e-11
2.77968e-05
1.326e-11
2.77967e-05
1.09858e-11
2.77967e-05
8.26539e-12
2.77967e-05
4.44998e-12
2.77967e-05
-6.02671e-13
2.77967e-05
-6.96148e-12
2.77967e-05
-1.36746e-11
2.77968e-05
-2.09235e-11
2.77968e-05
-2.54664e-11
2.77968e-05
-2.94309e-11
2.77968e-05
-2.67735e-11
2.77968e-05
-2.04741e-11
2.77968e-05
-7.91217e-12
2.77968e-05
9.69141e-12
2.77968e-05
1.60573e-11
2.77968e-05
1.40432e-11
2.77968e-05
3.96568e-12
2.77968e-05
-1.1306e-11
2.77968e-05
-2.8487e-11
2.77968e-05
-4.52267e-11
2.77968e-05
-5.96054e-11
2.77969e-05
-7.13697e-11
2.77969e-05
-7.93535e-11
2.77969e-05
-8.44402e-11
2.77969e-05
-8.44272e-11
2.7797e-05
-7.38846e-11
2.7797e-05
-7.56836e-11
2.7797e-05
-3.17312e-11
-1.20523e-11
3.30736e-05
-2.10692e-10
3.30737e-05
-3.1468e-10
3.30737e-05
-2.7315e-10
3.30737e-05
-1.43778e-10
3.30737e-05
9.55024e-12
3.30737e-05
1.46355e-10
3.30736e-05
2.50176e-10
3.30735e-05
3.18833e-10
3.30734e-05
3.56164e-10
3.30734e-05
3.68218e-10
3.30733e-05
3.61325e-10
3.30732e-05
3.40802e-10
3.30731e-05
3.10969e-10
3.30731e-05
2.75567e-10
3.3073e-05
2.37747e-10
3.3073e-05
1.99503e-10
3.30729e-05
1.61548e-10
3.30729e-05
1.24448e-10
3.30729e-05
8.89584e-11
3.30729e-05
5.52876e-11
3.30729e-05
2.33414e-11
3.30729e-05
-6.72632e-12
3.30729e-05
-3.44618e-11
3.30729e-05
-5.9327e-11
3.30729e-05
-8.1322e-11
3.30729e-05
-1.01031e-10
3.3073e-05
-1.19036e-10
3.3073e-05
-1.35642e-10
3.3073e-05
-1.50668e-10
3.30731e-05
-1.63702e-10
3.30731e-05
-1.74855e-10
3.30732e-05
-1.84741e-10
3.30732e-05
-1.93627e-10
3.30732e-05
-2.01192e-10
3.30733e-05
-2.06975e-10
3.30733e-05
-2.11252e-10
3.30734e-05
-2.14514e-10
3.30735e-05
-2.17084e-10
3.30735e-05
-2.17295e-10
3.30736e-05
-2.15311e-10
3.30736e-05
-2.07712e-10
3.30737e-05
-1.96965e-10
3.30737e-05
-1.75838e-10
3.30738e-05
-1.47626e-10
3.30738e-05
-1.10772e-10
3.30738e-05
-6.50757e-11
3.30738e-05
-3.67186e-11
3.30738e-05
-2.10629e-11
3.30738e-05
-1.7071e-11
3.30739e-05
-2.44845e-11
3.30739e-05
-3.26388e-11
3.30739e-05
-4.06479e-11
3.30739e-05
-4.75562e-11
3.30739e-05
-5.23998e-11
3.30739e-05
-5.45537e-11
3.30739e-05
-5.32235e-11
3.30739e-05
-4.78964e-11
3.30739e-05
-3.90633e-11
3.30739e-05
-2.73989e-11
3.30739e-05
-1.2981e-11
3.30739e-05
4.05371e-12
3.30739e-05
2.26276e-11
3.30739e-05
4.12438e-11
3.30739e-05
5.90971e-11
3.30739e-05
7.57391e-11
3.30739e-05
9.04846e-11
3.30738e-05
1.02809e-10
3.30738e-05
1.12529e-10
3.30738e-05
1.19954e-10
3.30737e-05
1.25883e-10
3.30737e-05
1.30446e-10
3.30737e-05
1.32885e-10
3.30736e-05
1.32945e-10
3.30736e-05
1.31133e-10
3.30736e-05
1.28129e-10
3.30735e-05
1.24675e-10
3.30735e-05
1.20909e-10
3.30735e-05
1.16242e-10
3.30735e-05
1.10484e-10
3.30734e-05
1.03998e-10
3.30734e-05
9.70995e-11
3.30734e-05
9.01341e-11
3.30734e-05
8.35064e-11
3.30733e-05
7.73097e-11
3.30733e-05
7.02438e-11
3.30733e-05
6.16117e-11
3.30733e-05
5.02453e-11
3.30733e-05
3.92309e-11
3.30733e-05
3.08906e-11
3.30733e-05
2.50828e-11
3.30733e-05
2.2181e-11
3.30732e-05
1.95207e-11
3.30732e-05
1.6395e-11
3.30732e-05
1.26e-11
3.30732e-05
7.30521e-12
3.30732e-05
3.20206e-13
3.30732e-05
-8.40437e-12
3.30732e-05
-1.77241e-11
3.30732e-05
-2.77755e-11
3.30733e-05
-3.46701e-11
3.30733e-05
-4.07064e-11
3.30733e-05
-3.8637e-11
3.30733e-05
-3.17533e-11
3.30733e-05
-1.68446e-11
3.30733e-05
4.57262e-12
3.30733e-05
1.31546e-11
3.30733e-05
1.16726e-11
3.30733e-05
1.58287e-13
3.30733e-05
-1.80693e-11
3.30733e-05
-3.9048e-11
3.30733e-05
-5.97478e-11
3.30734e-05
-7.77155e-11
3.30734e-05
-9.25665e-11
3.30734e-05
-1.02906e-10
3.30734e-05
-1.09664e-10
3.30735e-05
-1.09951e-10
3.30735e-05
-9.75055e-11
3.30735e-05
-9.98178e-11
3.30735e-05
-3.96605e-11
-4.23833e-11
3.80179e-05
-2.89117e-10
3.80179e-05
-3.76284e-10
3.8018e-05
-3.01338e-10
3.8018e-05
-1.40473e-10
3.80179e-05
3.89046e-11
3.80179e-05
1.96389e-10
3.80178e-05
3.15682e-10
3.80177e-05
3.9472e-10
3.80177e-05
4.37692e-10
3.80176e-05
4.51301e-10
3.80175e-05
4.42605e-10
3.80174e-05
4.1764e-10
3.80174e-05
3.81455e-10
3.80173e-05
3.38482e-10
3.80172e-05
2.92468e-10
3.80172e-05
2.458e-10
3.80171e-05
1.99353e-10
3.80171e-05
1.53813e-10
3.80171e-05
1.10086e-10
3.80171e-05
6.85019e-11
3.80171e-05
2.90308e-11
3.80171e-05
-8.13495e-12
3.80171e-05
-4.24552e-11
3.80171e-05
-7.33304e-11
3.80171e-05
-1.00828e-10
3.80171e-05
-1.25601e-10
3.80172e-05
-1.48236e-10
3.80172e-05
-1.69078e-10
3.80172e-05
-1.87958e-10
3.80173e-05
-2.04392e-10
3.80173e-05
-2.18513e-10
3.80174e-05
-2.31061e-10
3.80174e-05
-2.42319e-10
3.80175e-05
-2.51902e-10
3.80175e-05
-2.59339e-10
3.80176e-05
-2.64998e-10
3.80176e-05
-2.69409e-10
3.80177e-05
-2.7287e-10
3.80177e-05
-2.73489e-10
3.80178e-05
-2.7145e-10
3.80179e-05
-2.62799e-10
3.80179e-05
-2.50154e-10
3.8018e-05
-2.25216e-10
3.8018e-05
-1.91663e-10
3.8018e-05
-1.47527e-10
3.80181e-05
-9.25014e-11
3.80181e-05
-5.664e-11
3.80181e-05
-3.55209e-11
3.80181e-05
-2.85144e-11
3.80181e-05
-3.5342e-11
3.80181e-05
-4.37228e-11
3.80182e-05
-5.22877e-11
3.80182e-05
-5.97029e-11
3.80182e-05
-6.47417e-11
3.80182e-05
-6.65237e-11
3.80182e-05
-6.40323e-11
3.80182e-05
-5.66899e-11
3.80182e-05
-4.51211e-11
3.80182e-05
-3.01441e-11
3.80182e-05
-1.1893e-11
3.80182e-05
9.39212e-12
3.80182e-05
3.23782e-11
3.80182e-05
5.53014e-11
3.80182e-05
7.722e-11
3.80181e-05
9.75791e-11
3.80181e-05
1.15584e-10
3.80181e-05
1.30667e-10
3.80181e-05
1.42625e-10
3.8018e-05
1.51797e-10
3.8018e-05
1.5907e-10
3.8018e-05
1.64565e-10
3.80179e-05
1.67464e-10
3.80179e-05
1.67542e-10
3.80179e-05
1.65373e-10
3.80178e-05
1.61734e-10
3.80178e-05
1.57499e-10
3.80178e-05
1.52816e-10
3.80177e-05
1.47004e-10
3.80177e-05
1.39897e-10
3.80177e-05
1.3196e-10
3.80176e-05
1.23545e-10
3.80176e-05
1.15008e-10
3.80176e-05
1.06792e-10
3.80176e-05
9.89966e-11
3.80176e-05
9.01104e-11
3.80175e-05
7.93235e-11
3.80175e-05
6.53779e-11
3.80175e-05
5.18726e-11
3.80175e-05
4.15053e-11
3.80175e-05
3.41627e-11
3.80175e-05
3.02619e-11
3.80175e-05
2.67079e-11
3.80175e-05
2.257e-11
3.80175e-05
1.74918e-11
3.80175e-05
1.04681e-11
3.80175e-05
1.28264e-12
3.80175e-05
-1.00819e-11
3.80175e-05
-2.23055e-11
3.80175e-05
-3.5475e-11
3.80175e-05
-4.50658e-11
3.80175e-05
-5.34976e-11
3.80175e-05
-5.23666e-11
3.80175e-05
-4.52097e-11
3.80175e-05
-2.82139e-11
3.80175e-05
-3.12518e-12
3.80176e-05
7.86582e-12
3.80176e-05
7.35889e-12
3.80176e-05
-5.02531e-12
3.80176e-05
-2.56555e-11
3.80176e-05
-4.996e-11
3.80176e-05
-7.42536e-11
3.80176e-05
-9.55832e-11
3.80176e-05
-1.13449e-10
3.80177e-05
-1.26217e-10
3.80177e-05
-1.34797e-10
3.80177e-05
-1.35528e-10
3.80177e-05
-1.21643e-10
3.80178e-05
-1.24084e-10
3.80178e-05
-4.88912e-11
-7.83566e-11
4.26016e-05
-3.52461e-10
4.26017e-05
-4.2015e-10
4.26017e-05
-3.15671e-10
4.26017e-05
-1.28257e-10
4.26016e-05
7.22434e-11
4.26016e-05
2.46028e-10
4.26015e-05
3.77478e-10
4.26015e-05
4.64819e-10
4.26014e-05
5.12479e-10
4.26013e-05
5.27531e-10
4.26012e-05
5.17437e-10
4.26012e-05
4.88733e-10
4.26011e-05
4.47073e-10
4.2601e-05
3.9748e-10
4.2601e-05
3.44198e-10
4.26009e-05
2.89922e-10
4.26009e-05
2.35681e-10
4.26009e-05
1.82292e-10
4.26009e-05
1.30802e-10
4.26008e-05
8.16816e-11
4.26008e-05
3.49908e-11
4.26008e-05
-9.01846e-12
4.26009e-05
-4.97191e-11
4.26009e-05
-8.64918e-11
4.26009e-05
-1.19493e-10
4.26009e-05
-1.49396e-10
4.26009e-05
-1.7674e-10
4.2601e-05
-2.01899e-10
4.2601e-05
-2.24708e-10
4.2601e-05
-2.44637e-10
4.26011e-05
-2.61874e-10
4.26011e-05
-2.77259e-10
4.26012e-05
-2.91045e-10
4.26012e-05
-3.02778e-10
4.26013e-05
-3.1204e-10
4.26013e-05
-3.19306e-10
4.26014e-05
-3.25081e-10
4.26015e-05
-3.29612e-10
4.26015e-05
-3.30825e-10
4.26016e-05
-3.28947e-10
4.26016e-05
-3.19501e-10
4.26017e-05
-3.05212e-10
4.26017e-05
-2.76788e-10
4.26018e-05
-2.38273e-10
4.26018e-05
-1.87212e-10
4.26018e-05
-1.23096e-10
4.26019e-05
-7.96342e-11
4.26019e-05
-5.27285e-11
4.26019e-05
-4.22196e-11
4.26019e-05
-4.78608e-11
4.26019e-05
-5.58803e-11
4.26019e-05
-6.44636e-11
4.2602e-05
-7.19119e-11
4.2602e-05
-7.67155e-11
4.2602e-05
-7.77095e-11
4.2602e-05
-7.36669e-11
4.2602e-05
-6.39977e-11
4.2602e-05
-4.94898e-11
4.2602e-05
-3.10954e-11
4.2602e-05
-9.00669e-12
4.2602e-05
1.64176e-11
4.2602e-05
4.36069e-11
4.2602e-05
7.05863e-11
4.26019e-05
9.63114e-11
4.26019e-05
1.20131e-10
4.26019e-05
1.4117e-10
4.26019e-05
1.58854e-10
4.26018e-05
1.72958e-10
4.26018e-05
1.83816e-10
4.26018e-05
1.92368e-10
4.26017e-05
1.98725e-10
4.26017e-05
2.02047e-10
4.26017e-05
2.02171e-10
4.26016e-05
1.99722e-10
4.26016e-05
1.95546e-10
4.26016e-05
1.90621e-10
4.26015e-05
1.85073e-10
4.26015e-05
1.78148e-10
4.26015e-05
1.69757e-10
4.26014e-05
1.60473e-10
4.26014e-05
1.50652e-10
4.26014e-05
1.40624e-10
4.26014e-05
1.30856e-10
4.26013e-05
1.21447e-10
4.26013e-05
1.10705e-10
4.26013e-05
9.77628e-11
4.26013e-05
8.13155e-11
4.26013e-05
6.54198e-11
4.26013e-05
5.30742e-11
4.26013e-05
4.41719e-11
4.26012e-05
3.91801e-11
4.26012e-05
3.46005e-11
4.26012e-05
2.92766e-11
4.26012e-05
2.26904e-11
4.26012e-05
1.36821e-11
4.26012e-05
2.04038e-12
4.26012e-05
-1.22108e-11
4.26012e-05
-2.75956e-11
4.26012e-05
-4.41389e-11
4.26012e-05
-5.66905e-11
4.26013e-05
-6.77587e-11
4.26013e-05
-6.78385e-11
4.26013e-05
-6.06581e-11
4.26013e-05
-4.17878e-11
4.26013e-05
-1.31458e-11
4.26013e-05
4.12128e-13
4.26013e-05
1.27069e-12
4.26013e-05
-1.14303e-11
4.26013e-05
-3.38532e-11
4.26014e-05
-6.08892e-11
4.26014e-05
-8.8266e-11
4.26014e-05
-1.126e-10
4.26014e-05
-1.33298e-10
4.26014e-05
-1.48466e-10
4.26015e-05
-1.58937e-10
4.26015e-05
-1.60202e-10
4.26015e-05
-1.45402e-10
4.26015e-05
-1.47271e-10
4.26015e-05
-6.01929e-11
-1.12048e-10
4.68667e-05
-3.92929e-10
4.68667e-05
-4.43531e-10
4.68667e-05
-3.16664e-10
4.68667e-05
-1.09049e-10
4.68667e-05
1.07551e-10
4.68666e-05
2.93581e-10
4.68666e-05
4.34071e-10
4.68665e-05
5.27626e-10
4.68664e-05
5.78891e-10
4.68664e-05
5.9511e-10
4.68663e-05
5.83894e-10
4.68662e-05
5.52105e-10
4.68662e-05
5.05894e-10
4.68661e-05
4.50752e-10
4.68661e-05
3.91276e-10
4.6866e-05
3.30371e-10
4.6866e-05
2.69222e-10
4.6866e-05
2.08785e-10
4.68659e-05
1.50224e-10
4.68659e-05
9.41503e-11
4.68659e-05
4.0747e-11
4.68659e-05
-9.65161e-12
4.68659e-05
-5.63458e-11
4.6866e-05
-9.87504e-11
4.6866e-05
-1.37119e-10
4.6866e-05
-1.72083e-10
4.6866e-05
-2.04093e-10
4.68661e-05
-2.33531e-10
4.68661e-05
-2.60233e-10
4.68661e-05
-2.83673e-10
4.68662e-05
-3.04121e-10
4.68662e-05
-3.22467e-10
4.68663e-05
-3.38866e-10
4.68663e-05
-3.52828e-10
4.68664e-05
-3.64067e-10
4.68664e-05
-3.73154e-10
4.68665e-05
-3.805e-10
4.68665e-05
-3.86263e-10
4.68666e-05
-3.88247e-10
4.68666e-05
-3.86745e-10
4.68667e-05
-3.76765e-10
4.68668e-05
-3.61109e-10
4.68668e-05
-3.29555e-10
4.68669e-05
-2.86482e-10
4.68669e-05
-2.28884e-10
4.68669e-05
-1.5598e-10
4.6867e-05
-1.0499e-10
4.6867e-05
-7.21827e-11
4.6867e-05
-5.78658e-11
4.6867e-05
-6.18506e-11
4.6867e-05
-6.89764e-11
4.6867e-05
-7.70314e-11
4.6867e-05
-8.39801e-11
4.68671e-05
-8.80216e-11
4.68671e-05
-8.77068e-11
4.68671e-05
-8.16385e-11
4.68671e-05
-6.92873e-11
4.68671e-05
-5.16338e-11
4.68671e-05
-2.9754e-11
4.68671e-05
-3.90027e-12
4.68671e-05
2.5446e-11
4.68671e-05
5.65143e-11
4.6867e-05
8.71811e-11
4.6867e-05
1.16332e-10
4.6867e-05
1.43231e-10
4.6867e-05
1.66969e-10
4.68669e-05
1.87004e-10
4.68669e-05
2.03076e-10
4.68669e-05
2.15477e-10
4.68668e-05
2.25166e-10
4.68668e-05
2.32251e-10
4.68668e-05
2.35918e-10
4.68667e-05
2.3609e-10
4.68667e-05
2.33431e-10
4.68667e-05
2.28827e-10
4.68666e-05
2.23314e-10
4.68666e-05
2.16961e-10
4.68666e-05
2.08971e-10
4.68666e-05
1.99383e-10
4.68665e-05
1.88884e-10
4.68665e-05
1.77795e-10
4.68665e-05
1.66394e-10
4.68664e-05
1.55149e-10
4.68664e-05
1.44146e-10
4.68664e-05
1.31552e-10
4.68664e-05
1.16509e-10
4.68664e-05
9.77024e-11
4.68664e-05
7.9576e-11
4.68663e-05
6.53468e-11
4.68663e-05
5.48906e-11
4.68663e-05
4.87294e-11
4.68663e-05
4.29904e-11
4.68663e-05
3.62923e-11
4.68663e-05
2.79559e-11
4.68663e-05
1.66948e-11
4.68663e-05
2.3349e-12
4.68663e-05
-1.50485e-11
4.68663e-05
-3.38369e-11
4.68663e-05
-5.39767e-11
4.68663e-05
-6.96993e-11
4.68663e-05
-8.35863e-11
4.68664e-05
-8.50728e-11
4.68664e-05
-7.80418e-11
4.68664e-05
-5.74315e-11
4.68664e-05
-2.52942e-11
4.68664e-05
-9.02848e-12
4.68664e-05
-6.48319e-12
4.68664e-05
-1.90113e-11
4.68664e-05
-4.26263e-11
4.68665e-05
-7.17531e-11
4.68665e-05
-1.01636e-10
4.68665e-05
-1.2855e-10
4.68665e-05
-1.51824e-10
4.68665e-05
-1.69269e-10
4.68665e-05
-1.81611e-10
4.68666e-05
-1.83422e-10
4.68666e-05
-1.68212e-10
4.68666e-05
-1.68642e-10
4.68666e-05
-7.35928e-11
-1.38582e-10
5.08759e-05
-4.09291e-10
5.08759e-05
-4.4579e-10
5.08759e-05
-3.04179e-10
5.08759e-05
-8.32542e-11
5.08758e-05
1.44283e-10
5.08758e-05
3.38709e-10
5.08757e-05
4.85345e-10
5.08757e-05
5.83091e-10
5.08756e-05
6.36779e-10
5.08756e-05
6.53689e-10
5.08755e-05
6.414e-10
5.08754e-05
6.07001e-10