/*--------------------------------*- C++ -*----------------------------------*\
  =========                 |
  \\      /  F ield         | OpenFOAM: The Open Source CFD Toolbox
   \\    /   O peration     | Website:  https://openfoam.org
    \\  /    A nd           | Version:  7
     \\/     M anipulation  |
\*---------------------------------------------------------------------------*/
FoamFile
{
    version     2.0;
    format      ascii;
    class       volVectorField;
    location    "17500";
    object      U;
}
// * * * * * * * * * * * * * * * * * * * * * * * * * * * * * * * * * * * * * //

dimensions      [0 1 -1 0 0 0 0];

internalField   nonuniform List<vector> 
24000
(
(0.00434515 9.25047e-11 7.92311e-16)
(0.00434515 -4.35412e-11 7.74094e-16)
(0.00434517 -1.23523e-10 7.76169e-16)
(0.00434519 -1.13373e-10 7.04961e-16)
(0.0043452 -6.63322e-11 3.96766e-16)
(0.0043452 -1.42649e-11 6.86523e-16)
(0.00434519 2.84045e-11 4.38306e-16)
(0.00434519 5.8546e-11 7.02464e-16)
(0.00434517 7.6832e-11 7.52412e-16)
(0.00434516 8.54654e-11 4.28753e-16)
(0.00434514 8.72551e-11 7.21134e-16)
(0.00434513 8.42251e-11 7.30554e-16)
(0.00434511 7.78845e-11 7.32562e-16)
(0.0043451 6.97491e-11 7.11298e-16)
(0.00434509 6.10061e-11 6.75905e-16)
(0.00434508 5.20537e-11 7.19353e-16)
(0.00434507 4.27144e-11 7.10498e-16)
(0.00434507 3.34264e-11 7.14298e-16)
(0.00434506 2.48701e-11 6.92833e-16)
(0.00434506 1.66085e-11 6.61203e-16)
(0.00434506 8.32707e-12 7.25639e-16)
(0.00434505 3.74718e-13 6.7922e-16)
(0.00434506 -6.96234e-12 6.89318e-16)
(0.00434506 -1.3355e-11 6.57824e-16)
(0.00434506 -1.87285e-11 6.13553e-16)
(0.00434506 -2.34909e-11 6.94472e-16)
(0.00434507 -2.8085e-11 6.75862e-16)
(0.00434507 -3.26465e-11 7.0101e-16)
(0.00434508 -3.67016e-11 6.77017e-16)
(0.00434509 -3.99228e-11 6.09384e-16)
(0.00434509 -4.26511e-11 6.8455e-16)
(0.0043451 -4.54971e-11 6.69525e-16)
(0.00434511 -4.82111e-11 6.87343e-16)
(0.00434512 -5.06764e-11 6.55463e-16)
(0.00434512 -5.1916e-11 5.95997e-16)
(0.00434513 -5.31153e-11 6.78857e-16)
(0.00434514 -5.3216e-11 6.68004e-16)
(0.00434515 -5.49277e-11 6.87919e-16)
(0.00434516 -5.28102e-11 6.48942e-16)
(0.00434517 -5.32019e-11 6.02585e-16)
(0.00434518 -4.55067e-11 6.39466e-16)
(0.00434519 -4.26652e-11 8.81192e-16)
(0.00434519 -2.87711e-11 7.00746e-16)
(0.0043452 -1.40748e-11 6.9993e-16)
(0.0043452 4.60207e-13 7.09156e-16)
(0.0043452 2.90287e-11 7.18836e-16)
(0.0043452 2.49285e-11 8.77527e-16)
(0.0043452 2.35857e-11 7.37921e-16)
(0.0043452 1.82159e-11 7.27032e-16)
(0.0043452 4.50946e-12 7.33279e-16)
(0.0043452 1.12472e-13 7.40106e-16)
(0.0043452 -6.11826e-12 9.21197e-16)
(0.0043452 -1.10944e-11 7.48496e-16)
(0.0043452 -1.48609e-11 9.73693e-16)
(0.0043452 -1.77025e-11 6.86184e-16)
(0.00434521 -1.93446e-11 7.65526e-16)
(0.00434521 -1.95132e-11 9.95372e-16)
(0.00434521 -1.8777e-11 7.70731e-16)
(0.00434521 -1.73909e-11 9.89497e-16)
(0.00434522 -1.48647e-11 7.18162e-16)
(0.00434522 -1.09928e-11 7.82717e-16)
(0.00434522 -6.33363e-12 1.02311e-15)
(0.00434522 -1.66754e-12 7.80946e-16)
(0.00434522 3.03216e-12 9.72832e-16)
(0.00434522 7.84453e-12 7.20151e-16)
(0.00434521 1.21985e-11 7.88196e-16)
(0.00434521 1.57916e-11 9.32295e-16)
(0.00434521 1.85332e-11 7.94482e-16)
(0.0043452 2.05867e-11 1.03138e-15)
(0.0043452 2.26943e-11 7.09702e-16)
(0.00434519 2.48191e-11 7.91464e-16)
(0.00434519 2.59582e-11 1.07731e-15)
(0.00434518 2.59776e-11 8.03816e-16)
(0.00434518 2.55606e-11 1.02994e-15)
(0.00434517 2.49384e-11 7.30431e-16)
(0.00434517 2.44435e-11 8.03179e-16)
(0.00434516 2.39676e-11 1.01819e-15)
(0.00434516 2.28915e-11 8.01918e-16)
(0.00434516 2.12621e-11 1.0078e-15)
(0.00434515 1.94836e-11 7.08027e-16)
(0.00434515 1.73593e-11 5.04617e-16)
(0.00434514 1.53931e-11 6.82021e-16)
(0.00434514 1.35122e-11 7.97962e-16)
(0.00434514 1.25392e-11 6.26608e-16)
(0.00434514 1.01694e-11 6.6937e-16)
(0.00434513 8.02829e-12 5.77647e-16)
(0.00434513 3.16288e-12 6.69328e-16)
(0.00434513 -1.80304e-13 7.81012e-16)
(0.00434513 -1.19695e-12 5.05468e-16)
(0.00434513 -2.58037e-12 7.08774e-16)
(0.00434513 -1.52156e-12 5.06315e-16)
(0.00434513 -2.37367e-12 6.67798e-16)
(0.00434513 -3.35015e-12 7.67135e-16)
(0.00434513 -3.77612e-12 5.34938e-16)
(0.00434513 -5.25639e-12 6.43813e-16)
(0.00434513 -5.949e-12 5.00296e-16)
(0.00434513 -8.3435e-12 6.63009e-16)
(0.00434513 -7.86922e-12 7.72616e-16)
(0.00434513 -1.09049e-11 5.80434e-16)
(0.00434513 -6.04447e-12 6.57972e-16)
(0.00434514 -7.27442e-12 5.4953e-16)
(0.00434514 2.63449e-12 7.01315e-16)
(0.00434514 1.01224e-11 7.86664e-16)
(0.00434514 2.03318e-11 5.71784e-16)
(0.00434513 3.90135e-11 7.12057e-16)
(0.00434513 3.3251e-11 5.59378e-16)
(0.00434513 2.94802e-11 7.25943e-16)
(0.00434513 1.86075e-11 7.89931e-16)
(0.00434512 6.68378e-12 5.8574e-16)
(0.00434512 -4.21177e-12 6.73746e-16)
(0.00434513 -1.42799e-11 5.61484e-16)
(0.00434513 -2.15339e-11 5.54176e-16)
(0.00434513 -2.80387e-11 7.59101e-16)
(0.00434514 -3.09048e-11 5.9541e-16)
(0.00434514 -3.24401e-11 6.92573e-16)
(0.00434515 -3.21223e-11 5.44252e-16)
(0.00434515 -2.0373e-11 5.75094e-16)
(0.00434516 -2.04589e-11 7.69215e-16)
(0.00434516 -2.34878e-11 4.95163e-16)
(0.00434516 6.99009e-11 7.46206e-16)
(0.0131155 3.37228e-10 2.39997e-15)
(0.0131156 -9.91676e-10 2.34005e-15)
(0.0131156 -1.71713e-09 2.34717e-15)
(0.0131156 -1.42757e-09 2.13184e-15)
(0.0131157 -6.69181e-10 1.48504e-15)
(0.0131157 1.20887e-10 2.08431e-15)
(0.0131157 7.55222e-10 1.71362e-15)
(0.0131156 1.19326e-09 2.1362e-15)
(0.0131156 1.45081e-09 2.27483e-15)
(0.0131155 1.56255e-09 1.6073e-15)
(0.0131155 1.56795e-09 2.18917e-15)
(0.0131155 1.49853e-09 2.2084e-15)
(0.0131154 1.37844e-09 2.2156e-15)
(0.0131154 1.22904e-09 2.14973e-15)
(0.0131153 1.06777e-09 2.04159e-15)
(0.0131153 9.03552e-10 2.18003e-15)
(0.0131153 7.37755e-10 2.14801e-15)
(0.0131153 5.74744e-10 2.15913e-15)
(0.0131153 4.20745e-10 2.09347e-15)
(0.0131152 2.74139e-10 2.00002e-15)
(0.0131152 1.32044e-10 2.20415e-15)
(0.0131152 -3.39552e-12 2.0542e-15)
(0.0131152 -1.28465e-10 2.0888e-15)
(0.0131152 -2.39202e-10 1.98498e-15)
(0.0131153 -3.34729e-10 1.85442e-15)
(0.0131153 -4.1919e-10 2.10279e-15)
(0.0131153 -4.97919e-10 2.03453e-15)
(0.0131153 -5.72841e-10 2.11636e-15)
(0.0131153 -6.40455e-10 2.04013e-15)
(0.0131153 -6.97145e-10 1.83746e-15)
(0.0131154 -7.45452e-10 2.06826e-15)
(0.0131154 -7.90659e-10 2.02788e-15)
(0.0131154 -8.33107e-10 2.0791e-15)
(0.0131154 -8.69695e-10 1.98467e-15)
(0.0131154 -8.94835e-10 1.80165e-15)
(0.0131155 -9.12192e-10 2.05534e-15)
(0.0131155 -9.23527e-10 2.01172e-15)
(0.0131155 -9.36482e-10 2.07912e-15)
(0.0131156 -9.28828e-10 1.96415e-15)
(0.0131156 -9.15359e-10 1.81836e-15)
(0.0131156 -8.51332e-10 1.935e-15)
(0.0131156 -7.87252e-10 2.08732e-15)
(0.0131157 -6.37566e-10 2.11356e-15)
(0.0131157 -4.55472e-10 2.12e-15)
(0.0131157 -2.31265e-10 2.14558e-15)
(0.0131157 6.69256e-11 2.17417e-15)
(0.0131157 1.5008e-10 2.25755e-15)
(0.0131157 1.65192e-10 2.22506e-15)
(0.0131157 1.24178e-10 2.19889e-15)
(0.0131157 9.08098e-12 2.21685e-15)
(0.0131157 -6.57654e-11 2.23862e-15)
(0.0131157 -1.34399e-10 2.3396e-15)
(0.0131157 -1.94943e-10 2.25773e-15)
(0.0131157 -2.40431e-10 2.33185e-15)
(0.0131157 -2.71569e-10 2.04372e-15)
(0.0131157 -2.84984e-10 2.31919e-15)
(0.0131157 -2.77618e-10 2.39329e-15)
(0.0131157 -2.53788e-10 2.32387e-15)
(0.0131157 -2.17139e-10 2.3924e-15)
(0.0131157 -1.65005e-10 2.27135e-15)
(0.0131157 -9.57974e-11 2.37109e-15)
(0.0131157 -1.56481e-11 2.43864e-15)
(0.0131157 6.62277e-11 2.35262e-15)
(0.0131157 1.46951e-10 2.47419e-15)
(0.0131157 2.25368e-10 2.24819e-15)
(0.0131157 2.96394e-10 2.3854e-15)
(0.0131157 3.55687e-10 2.44539e-15)
(0.0131157 4.01807e-10 2.39563e-15)
(0.0131157 4.36893e-10 2.47721e-15)
(0.0131157 4.68063e-10 2.26875e-15)
(0.0131157 4.96039e-10 2.39898e-15)
(0.0131156 5.1221e-10 2.53518e-15)
(0.0131156 5.14009e-10 2.4216e-15)
(0.0131156 5.06694e-10 2.50821e-15)
(0.0131156 4.94747e-10 2.28926e-15)
(0.0131156 4.82384e-10 2.43137e-15)
(0.0131156 4.6945e-10 2.49251e-15)
(0.0131156 4.50507e-10 2.42074e-15)
(0.0131155 4.24663e-10 2.55547e-15)
(0.0131155 3.94752e-10 2.30399e-15)
(0.0131155 3.61719e-10 2.20548e-15)
(0.0131155 3.28724e-10 2.21583e-15)
(0.0131155 2.98858e-10 2.41072e-15)
(0.0131155 2.74323e-10 2.24642e-15)
(0.0131155 2.42118e-10 2.17317e-15)
(0.0131155 2.02742e-10 2.14507e-15)
(0.0131155 1.4115e-10 2.18984e-15)
(0.0131155 8.73159e-11 2.36054e-15)
(0.0131155 5.50544e-11 2.15735e-15)
(0.0131155 3.30708e-11 2.22187e-15)
(0.0131155 3.06139e-11 2.15918e-15)
(0.0131155 2.09043e-11 1.94476e-15)
(0.0131155 7.25217e-12 2.31681e-15)
(0.0131155 -5.85265e-12 2.09101e-15)
(0.0131155 -2.58774e-11 2.12269e-15)
(0.0131155 -4.95111e-11 2.10336e-15)
(0.0131155 -8.16906e-11 2.12991e-15)
(0.0131155 -1.06802e-10 2.33779e-15)
(0.0131155 -1.40103e-10 2.13334e-15)
(0.0131155 -1.32936e-10 2.13991e-15)
(0.0131155 -1.37278e-10 2.10226e-15)
(0.0131155 -6.72455e-11 2.05643e-15)
(0.0131155 1.50862e-11 2.37949e-15)
(0.0131155 1.42805e-10 2.14784e-15)
(0.0131155 3.17555e-10 2.16736e-15)
(0.0131155 3.30093e-10 2.11689e-15)
(0.0131155 2.83935e-10 2.12401e-15)
(0.0131155 1.73841e-10 2.39142e-15)
(0.0131154 3.15039e-11 2.14404e-15)
(0.0131155 -1.11656e-10 2.11729e-15)
(0.0131155 -2.44285e-10 2.10638e-15)
(0.0131155 -3.51691e-10 2.06722e-15)
(0.0131155 -4.39219e-10 2.30192e-15)
(0.0131155 -4.90738e-10 2.16447e-15)
(0.0131155 -5.21208e-10 2.1951e-15)
(0.0131155 -5.13901e-10 2.10599e-15)
(0.0131155 -4.00895e-10 2.102e-15)
(0.0131155 -4.19715e-10 2.33084e-15)
(0.0131156 -2.43062e-10 2.14354e-15)
(0.0131156 5.1105e-10 2.11879e-15)
(0.0220627 1.54719e-10 4.06201e-15)
(0.0220628 -3.22997e-09 3.93454e-15)
(0.0220628 -4.82036e-09 3.95241e-15)
(0.0220629 -3.79473e-09 3.5775e-15)
(0.0220629 -1.57536e-09 3.25561e-15)
(0.0220629 6.74274e-10 3.57181e-15)
(0.0220629 2.45942e-09 3.36886e-15)
(0.0220629 3.68009e-09 3.65811e-15)
(0.0220628 4.38743e-09 3.82327e-15)
(0.0220627 4.68173e-09 3.44477e-15)
(0.0220626 4.67343e-09 3.75391e-15)
(0.0220626 4.45225e-09 3.71175e-15)
(0.0220625 4.08713e-09 3.73353e-15)
(0.0220624 3.63797e-09 3.61318e-15)
(0.0220624 3.15406e-09 3.42421e-15)
(0.0220623 2.66229e-09 3.70324e-15)
(0.0220623 2.16924e-09 3.61495e-15)
(0.0220623 1.68586e-09 3.6365e-15)
(0.0220622 1.2277e-09 3.51689e-15)
(0.0220622 7.92455e-10 3.37711e-15)
(0.0220622 3.73638e-10 3.75652e-15)
(0.0220622 -2.43235e-11 3.43992e-15)
(0.0220622 -3.91814e-10 3.53208e-15)
(0.0220622 -7.18217e-10 3.32353e-15)
(0.0220622 -1.0012e-09 3.11186e-15)
(0.0220623 -1.25156e-09 3.56616e-15)
(0.0220623 -1.48309e-09 3.39745e-15)
(0.0220623 -1.70153e-09 3.56214e-15)
(0.0220623 -1.89903e-09 3.40354e-15)
(0.0220624 -2.06641e-09 3.07274e-15)
(0.0220624 -2.20897e-09 3.49576e-15)
(0.0220624 -2.3397e-09 3.42416e-15)
(0.0220625 -2.46123e-09 3.50876e-15)
(0.0220625 -2.5656e-09 3.32977e-15)
(0.0220626 -2.63997e-09 3.0235e-15)
(0.0220626 -2.69099e-09 3.49795e-15)
(0.0220626 -2.72659e-09 3.357e-15)
(0.0220627 -2.76055e-09 3.50188e-15)
(0.0220627 -2.74718e-09 3.31414e-15)
(0.0220628 -2.70751e-09 3.04531e-15)
(0.0220628 -2.5484e-09 3.27467e-15)
(0.0220629 -2.36746e-09 3.38153e-15)
(0.0220629 -1.97709e-09 3.55648e-15)
(0.0220629 -1.48705e-09 3.58046e-15)
(0.0220629 -8.69921e-10 3.6214e-15)
(0.022063 -8.16071e-11 3.66612e-15)
(0.022063 2.20334e-10 3.64474e-15)
(0.022063 3.06752e-10 3.74121e-15)
(0.022063 2.27801e-10 3.70342e-15)
(0.022063 -4.26396e-11 3.73565e-15)
(0.022063 -2.4354e-10 3.77366e-15)
(0.022063 -4.23338e-10 3.75504e-15)
(0.022063 -5.81126e-10 3.79912e-15)
(0.022063 -6.99676e-10 3.76669e-15)
(0.022063 -7.7743e-10 3.96098e-15)
(0.022063 -8.04997e-10 3.94011e-15)
(0.022063 -7.74008e-10 3.85386e-15)
(0.022063 -6.94427e-10 3.9049e-15)
(0.022063 -5.7651e-10 3.87613e-15)
(0.0220631 -4.15582e-10 4.42186e-15)
(0.0220631 -2.08422e-10 4.02554e-15)
(0.0220631 2.87185e-11 3.90956e-15)
(0.0220631 2.71076e-10 3.95142e-15)
(0.022063 5.08559e-10 3.9578e-15)
(0.022063 7.36876e-10 4.25723e-15)
(0.022063 9.42836e-10 4.04365e-15)
(0.022063 1.11527e-09 3.96549e-15)
(0.022063 1.24978e-09 4.02471e-15)
(0.022063 1.35208e-09 3.99215e-15)
(0.0220629 1.4401e-09 4.29163e-15)
(0.0220629 1.51644e-09 4.07736e-15)
(0.0220629 1.56089e-09 4.02794e-15)
(0.0220629 1.56598e-09 4.06842e-15)
(0.0220628 1.54403e-09 4.05894e-15)
(0.0220628 1.50759e-09 4.18421e-15)
(0.0220628 1.46838e-09 4.1244e-15)
(0.0220628 1.42698e-09 4.04707e-15)
(0.0220627 1.37024e-09 4.074e-15)
(0.0220627 1.29492e-09 4.07313e-15)
(0.0220627 1.20759e-09 4.14993e-15)
(0.0220627 1.11211e-09 3.94788e-15)
(0.0220627 1.01618e-09 4.19622e-15)
(0.0220626 9.2865e-10 4.08516e-15)
(0.0220626 8.53511e-10 3.88511e-15)
(0.0220626 7.61221e-10 4.13806e-15)
(0.0220626 6.46737e-10 3.79455e-15)
(0.0220626 4.76881e-10 4.11845e-15)
(0.0220626 3.21377e-10 4.00238e-15)
(0.0220626 2.19933e-10 3.78377e-15)
(0.0220626 1.52519e-10 4.02949e-15)
(0.0220626 1.35522e-10 3.81866e-15)
(0.0220626 1.07321e-10 4.07511e-15)
(0.0220626 6.87029e-11 3.92313e-15)
(0.0220626 2.80855e-11 3.71528e-15)
(0.0220626 -3.0756e-11 3.86621e-15)
(0.0220626 -1.0467e-10 3.7112e-15)
(0.0220626 -2.00619e-10 3.91888e-15)
(0.0220626 -2.87915e-10 3.96619e-15)
(0.0220626 -3.89117e-10 3.72442e-15)
(0.0220626 -4.02178e-10 3.88546e-15)
(0.0220626 -4.25315e-10 3.74236e-15)
(0.0220626 -2.73047e-10 4.02501e-15)
(0.0220626 -6.94835e-11 4.03447e-15)
(0.0220626 2.59758e-10 3.76747e-15)
(0.0220626 7.02206e-10 4.16504e-15)
(0.0220626 7.77849e-10 3.73941e-15)
(0.0220626 6.71691e-10 4.26076e-15)
(0.0220626 3.93966e-10 4.05223e-15)
(0.0220626 2.08689e-11 3.73129e-15)
(0.0220626 -3.65969e-10 3.91184e-15)
(0.0220626 -7.27948e-10 3.73004e-15)
(0.0220626 -1.02687e-09 3.63787e-15)
(0.0220626 -1.26899e-09 3.90113e-15)
(0.0220626 -1.41846e-09 3.76417e-15)
(0.0220627 -1.50821e-09 3.98816e-15)
(0.0220627 -1.49291e-09 3.76356e-15)
(0.0220627 -1.21292e-09 3.67469e-15)
(0.0220627 -1.2541e-09 3.94723e-15)
(0.0220627 -6.7518e-10 3.77975e-15)
(0.0220627 1.04183e-09 4.11151e-15)
(0.0311421 -1.08847e-09 5.71398e-15)
(0.0311422 -7.12634e-09 5.5488e-15)
(0.0311423 -9.32063e-09 5.57935e-15)
(0.0311424 -6.88184e-09 4.90185e-15)
(0.0311424 -2.43144e-09 4.98678e-15)
(0.0311424 1.94471e-09 5.15264e-15)
(0.0311423 5.37315e-09 5.0776e-15)
(0.0311423 7.69285e-09 5.26986e-15)
(0.0311422 9.01531e-09 5.38935e-15)
(0.0311421 9.53832e-09 5.22696e-15)
(0.0311419 9.4746e-09 5.40286e-15)
(0.0311418 8.9978e-09 5.22829e-15)
(0.0311418 8.24237e-09 5.2832e-15)
(0.0311417 7.32352e-09 5.07902e-15)
(0.0311416 6.33635e-09 4.75713e-15)
(0.0311415 5.33576e-09 5.36876e-15)
(0.0311415 4.33747e-09 5.09393e-15)
(0.0311414 3.36125e-09 5.14104e-15)
(0.0311414 2.43419e-09 4.93789e-15)
(0.0311414 1.55492e-09 4.81377e-15)
(0.0311414 7.13203e-10 5.41129e-15)
(0.0311414 -8.42297e-11 4.89103e-15)
(0.0311414 -8.203e-10 5.02651e-15)
(0.0311414 -1.47527e-09 4.63254e-15)
(0.0311414 -2.04522e-09 4.47852e-15)
(0.0311414 -2.54992e-09 5.08634e-15)
(0.0311415 -3.01442e-09 4.88023e-15)
(0.0311415 -3.44969e-09 5.04348e-15)
(0.0311415 -3.84325e-09 4.70897e-15)
(0.0311416 -4.17919e-09 4.28251e-15)
(0.0311416 -4.46534e-09 5.16016e-15)
(0.0311417 -4.72427e-09 4.69761e-15)
(0.0311417 -4.9626e-09 4.98372e-15)
(0.0311418 -5.16671e-09 4.59473e-15)
(0.0311419 -5.31521e-09 4.19447e-15)
(0.0311419 -5.41763e-09 5.11712e-15)
(0.031142 -5.49103e-09 4.80598e-15)
(0.031142 -5.55506e-09 4.95431e-15)
(0.0311421 -5.53812e-09 4.70994e-15)
(0.0311421 -5.46208e-09 4.38189e-15)
(0.0311422 -5.18005e-09 4.67959e-15)
(0.0311423 -4.83432e-09 4.69934e-15)
(0.0311423 -4.12035e-09 5.04503e-15)
(0.0311424 -3.2056e-09 5.07961e-15)
(0.0311424 -2.03923e-09 5.14048e-15)
(0.0311424 -5.78451e-10 5.18888e-15)
(0.0311424 8.64123e-11 5.05136e-15)
(0.0311424 3.24886e-10 5.30079e-15)
(0.0311424 2.32804e-10 5.23034e-15)
(0.0311424 -2.11931e-10 5.28755e-15)
(0.0311424 -5.75136e-10 5.33702e-15)
(0.0311424 -9.00466e-10 5.20915e-15)
(0.0311425 -1.18391e-09 5.38577e-15)
(0.0311425 -1.39552e-09 5.23872e-15)
(0.0311425 -1.52794e-09 5.56312e-15)
(0.0311425 -1.56238e-09 5.54301e-15)
(0.0311425 -1.48295e-09 5.32914e-15)
(0.0311425 -1.30629e-09 5.52284e-15)
(0.0311425 -1.05228e-09 5.39366e-15)
(0.0311425 -7.15525e-10 5.73879e-15)
(0.0311426 -2.92334e-10 5.66894e-15)
(0.0311425 1.86978e-10 5.41112e-15)
(0.0311425 6.75744e-10 5.5873e-15)
(0.0311425 1.15219e-09 5.47719e-15)
(0.0311425 1.60625e-09 5.70134e-15)
(0.0311425 2.01429e-09 5.70125e-15)
(0.0311425 2.3558e-09 5.48976e-15)
(0.0311424 2.62272e-09 5.68893e-15)
(0.0311424 2.82563e-09 5.54559e-15)
(0.0311424 2.99608e-09 5.81518e-15)
(0.0311423 3.13974e-09 5.76071e-15)
(0.0311423 3.22264e-09 5.56047e-15)
(0.0311423 3.23103e-09 5.75423e-15)
(0.0311422 3.18558e-09 5.63084e-15)
(0.0311422 3.10995e-09 5.85737e-15)
(0.0311422 3.02675e-09 5.82154e-15)
(0.0311421 2.93835e-09 5.62273e-15)
(0.0311421 2.82227e-09 5.7726e-15)
(0.0311421 2.67137e-09 5.62881e-15)
(0.031142 2.497e-09 5.85692e-15)
(0.031142 2.30767e-09 5.65907e-15)
(0.031142 2.11721e-09 5.66381e-15)
(0.031142 1.94186e-09 5.74827e-15)
(0.0311419 1.78747e-09 5.53217e-15)
(0.0311419 1.6044e-09 5.57708e-15)
(0.0311419 1.37685e-09 5.44151e-15)
(0.0311419 1.05085e-09 5.55373e-15)
(0.0311419 7.44366e-10 5.62908e-15)
(0.0311419 5.33493e-10 5.40844e-15)
(0.0311419 3.93482e-10 5.59772e-15)
(0.0311419 3.46517e-10 5.45727e-15)
(0.0311418 2.88813e-10 5.5131e-15)
(0.0311418 2.12902e-10 5.53964e-15)
(0.0311418 1.28594e-10 5.33771e-15)
(0.0311418 8.98066e-12 5.48091e-15)
(0.0311418 -1.45978e-10 5.3002e-15)
(0.0311418 -3.43722e-10 5.53855e-15)
(0.0311418 -5.37119e-10 5.60274e-15)
(0.0311418 -7.50856e-10 5.33356e-15)
(0.0311419 -8.22883e-10 5.48717e-15)
(0.0311419 -8.93384e-10 5.3584e-15)
(0.0311419 -6.62997e-10 5.66092e-15)
(0.0311419 -3.1642e-10 5.68422e-15)
(0.0311419 2.69783e-10 5.38191e-15)
(0.0311419 1.05702e-09 5.54255e-15)
(0.0311419 1.24547e-09 5.3443e-15)
(0.0311419 1.07931e-09 5.7313e-15)
(0.0311419 5.90265e-10 5.69595e-15)
(0.0311419 -8.76152e-11 5.32475e-15)
(0.0311419 -8.07563e-10 5.47762e-15)
(0.0311419 -1.48801e-09 5.33705e-15)
(0.0311419 -2.05728e-09 5.24356e-15)
(0.0311419 -2.5177e-09 5.57158e-15)
(0.031142 -2.81086e-09 5.37665e-15)
(0.031142 -2.98903e-09 5.59715e-15)
(0.031142 -2.9676e-09 5.37818e-15)
(0.0311421 -2.47746e-09 5.28881e-15)
(0.0311421 -2.54407e-09 5.63301e-15)
(0.0311421 -1.28802e-09 5.41079e-15)
(0.0311421 1.39629e-09 5.70263e-15)
(0.0401877 -4.15943e-09 7.36127e-15)
(0.0401878 -1.28959e-08 7.13844e-15)
(0.0401879 -1.48237e-08 7.1898e-15)
(0.040188 -1.01097e-08 6.8681e-15)
(0.0401881 -2.75071e-09 6.76434e-15)
(0.040188 4.25439e-09 6.81607e-15)
(0.040188 9.67073e-09 6.79823e-15)
(0.0401878 1.32961e-08 6.93231e-15)
(0.0401877 1.53253e-08 6.88267e-15)
(0.0401876 1.60787e-08 6.95144e-15)
(0.0401875 1.58937e-08 7.09071e-15)
(0.0401873 1.5047e-08 6.70322e-15)
(0.0401872 1.37544e-08 6.85018e-15)
(0.0401871 1.21995e-08 6.48764e-15)
(0.040187 1.05346e-08 6.39999e-15)
(0.040187 8.85103e-09 6.83018e-15)
(0.0401869 7.17795e-09 6.50304e-15)
(0.0401868 5.545e-09 6.65888e-15)
(0.0401868 3.9922e-09 6.29889e-15)
(0.0401868 2.52105e-09 6.28681e-15)
(0.0401868 1.1186e-09 6.86422e-15)
(0.0401868 -2.06234e-10 6.55355e-15)
(0.0401868 -1.42819e-09 6.60036e-15)
(0.0401868 -2.51725e-09 6.53284e-15)
(0.0401868 -3.46836e-09 6.213e-15)
(0.0401869 -4.31213e-09 6.75901e-15)
(0.0401869 -5.08583e-09 6.61086e-15)
(0.0401869 -5.80646e-09 6.57757e-15)
(0.040187 -6.45801e-09 6.58399e-15)
(0.040187 -7.01713e-09 6.15387e-15)
(0.0401871 -7.49354e-09 6.65416e-15)
(0.0401872 -7.92023e-09 6.61614e-15)
(0.0401872 -8.30917e-09 6.49424e-15)
(0.0401873 -8.64142e-09 6.45901e-15)
(0.0401874 -8.88682e-09 6.03855e-15)
(0.0401874 -9.05824e-09 6.59458e-15)
(0.0401875 -9.18301e-09 6.48818e-15)
(0.0401876 -9.28635e-09 6.45846e-15)
(0.0401877 -9.26923e-09 6.41134e-15)
(0.0401877 -9.15159e-09 6.04266e-15)
(0.0401878 -8.7301e-09 6.19353e-15)
(0.0401879 -8.18601e-09 6.35467e-15)
(0.0401879 -7.09215e-09 6.59998e-15)
(0.040188 -5.66905e-09 6.58557e-15)
(0.040188 -3.83977e-09 6.69351e-15)
(0.0401881 -1.57059e-09 6.71175e-15)
(0.0401881 -4.06571e-10 6.80325e-15)
(0.0401881 8.55302e-11 6.92372e-15)
(0.0401881 3.47231e-11 6.75838e-15)
(0.0401881 -5.66462e-10 6.8592e-15)
(0.0401881 -1.09951e-09 6.89474e-15)
(0.0401881 -1.58455e-09 7.01596e-15)
(0.0401881 -2.00413e-09 7.0304e-15)
(0.0401882 -2.31355e-09 7.04997e-15)
(0.0401882 -2.49549e-09 7.17217e-15)
(0.0401882 -2.5182e-09 7.11318e-15)
(0.0401882 -2.35615e-09 7.11524e-15)
(0.0401882 -2.0337e-09 7.18687e-15)
(0.0401882 -1.58259e-09 7.23637e-15)
(0.0401883 -9.99035e-10 7.3883e-15)
(0.0401883 -2.8095e-10 7.27946e-15)
(0.0401883 5.23291e-10 7.2471e-15)
(0.0401882 1.34008e-09 7.27316e-15)
(0.0401882 2.1321e-09 7.31925e-15)
(0.0401882 2.88097e-09 7.41368e-15)
(0.0401882 3.55087e-09 7.33099e-15)
(0.0401881 4.11086e-09 7.33586e-15)
(0.0401881 4.54917e-09 7.39759e-15)
(0.0401881 4.88215e-09 7.42366e-15)
(0.040188 5.15646e-09 7.37834e-15)
(0.040188 5.3812e-09 7.41574e-15)
(0.0401879 5.50827e-09 7.40844e-15)
(0.0401879 5.51792e-09 7.48554e-15)
(0.0401878 5.43956e-09 7.51892e-15)
(0.0401878 5.30985e-09 7.60784e-15)
(0.0401877 5.16483e-09 7.48547e-15)
(0.0401877 5.01001e-09 7.54954e-15)
(0.0401877 4.81264e-09 7.52632e-15)
(0.0401876 4.56092e-09 7.50844e-15)
(0.0401876 4.27177e-09 7.39995e-15)
(0.0401875 3.96001e-09 7.66286e-15)
(0.0401875 3.64634e-09 7.1906e-15)
(0.0401875 3.35503e-09 7.38063e-15)
(0.0401875 3.09353e-09 7.485e-15)
(0.0401874 2.78981e-09 7.10896e-15)
(0.0401874 2.41364e-09 7.40642e-15)
(0.0401874 1.88953e-09 7.21844e-15)
(0.0401874 1.38854e-09 7.22856e-15)
(0.0401874 1.03034e-09 7.34385e-15)
(0.0401874 7.9019e-10 7.23076e-15)
(0.0401873 6.95298e-10 7.42751e-15)
(0.0401873 5.9555e-10 7.18711e-15)
(0.0401873 4.69814e-10 7.15612e-15)
(0.0401873 3.24757e-10 7.26536e-15)
(0.0401873 1.2036e-10 7.10135e-15)
(0.0401873 -1.48649e-10 7.21087e-15)
(0.0401873 -4.89802e-10 7.04622e-15)
(0.0401873 -8.37628e-10 7.2295e-15)
(0.0401873 -1.21558e-09 7.25279e-15)
(0.0401873 -1.3976e-09 6.91602e-15)
(0.0401874 -1.5589e-09 7.33018e-15)
(0.0401874 -1.27923e-09 7.30892e-15)
(0.0401874 -7.96073e-10 7.32399e-15)
(0.0401874 6.73226e-11 7.29211e-15)
(0.0401874 1.23953e-09 7.17965e-15)
(0.0401874 1.58354e-09 7.28001e-15)
(0.0401874 1.37594e-09 7.16275e-15)
(0.0401874 6.61875e-10 7.3195e-15)
(0.0401874 -3.59807e-10 7.21799e-15)
(0.0401874 -1.4696e-09 7.09957e-15)
(0.0401874 -2.53026e-09 7.25792e-15)
(0.0401874 -3.42699e-09 7.21736e-15)
(0.0401875 -4.15357e-09 7.31399e-15)
(0.0401875 -4.62805e-09 7.29723e-15)
(0.0401875 -4.92048e-09 7.20888e-15)
(0.0401876 -4.89849e-09 7.30568e-15)
(0.0401876 -4.17787e-09 7.27349e-15)
(0.0401876 -4.27828e-09 7.38836e-15)
(0.0401877 -2.01589e-09 7.33956e-15)
(0.0401877 1.17551e-09 7.26298e-15)
(0.0488648 -9.57795e-09 8.98088e-15)
(0.048865 -2.01738e-08 8.67143e-15)
(0.0488651 -2.0545e-08 8.75334e-15)
(0.0488651 -1.27663e-08 8.60261e-15)
(0.0488651 -2.11149e-09 8.50334e-15)
(0.0488651 7.73462e-09 8.46945e-15)
(0.048865 1.52688e-08 8.4758e-15)
(0.0488649 2.02702e-08 8.56571e-15)
(0.0488647 2.30241e-08 8.61551e-15)
(0.0488646 2.39809e-08 8.61317e-15)
(0.0488645 2.36097e-08 8.72891e-15)
(0.0488643 2.2298e-08 8.36989e-15)
(0.0488642 2.03509e-08 8.41332e-15)
(0.0488641 1.80288e-08 8.0892e-15)
(0.048864 1.55485e-08 7.95902e-15)
(0.0488639 1.30439e-08 8.41507e-15)
(0.0488638 1.05604e-08 8.09505e-15)
(0.0488638 8.1383e-09 8.1632e-15)
(0.0488637 5.83134e-09 7.83443e-15)
(0.0488637 3.64636e-09 7.80327e-15)
(0.0488637 1.56981e-09 8.08135e-15)
(0.0488637 -3.87292e-10 8.12403e-15)
(0.0488637 -2.19156e-09 8.15701e-15)
(0.0488637 -3.80253e-09 7.95562e-15)
(0.0488637 -5.21533e-09 7.91243e-15)
(0.0488638 -6.47234e-09 8.1526e-15)
(0.0488638 -7.62214e-09 7.97683e-15)
(0.0488639 -8.68784e-09 8.02329e-15)
(0.0488639 -9.65127e-09 7.98712e-15)
(0.048864 -1.04819e-08 7.85519e-15)
(0.0488641 -1.119e-08 8.04784e-15)
(0.0488641 -1.18198e-08 7.95082e-15)
(0.0488642 -1.23894e-08 7.93088e-15)
(0.0488643 -1.2875e-08 7.82633e-15)
(0.0488644 -1.32384e-08 7.69029e-15)
(0.0488644 -1.34969e-08 7.92183e-15)
(0.0488645 -1.3688e-08 7.79275e-15)
(0.0488646 -1.38415e-08 7.87147e-15)
(0.0488647 -1.38303e-08 7.73352e-15)
(0.0488648 -1.36719e-08 7.66333e-15)
(0.0488649 -1.31061e-08 7.71804e-15)
(0.0488649 -1.23462e-08 7.96807e-15)
(0.048865 -1.08423e-08 8.13221e-15)
(0.0488651 -8.86193e-09 8.1928e-15)
(0.0488651 -6.2999e-09 8.24727e-15)
(0.0488652 -3.1328e-09 8.18543e-15)
(0.0488652 -1.35494e-09 8.53995e-15)
(0.0488652 -5.02091e-10 8.50628e-15)
(0.0488652 -4.36072e-10 8.6815e-15)
(0.0488653 -1.14668e-09 8.43652e-15)
(0.0488653 -1.82962e-09 8.39293e-15)
(0.0488653 -2.46691e-09 8.63152e-15)
(0.0488653 -3.01592e-09 8.63438e-15)
(0.0488653 -3.41404e-09 8.9999e-15)
(0.0488653 -3.62952e-09 8.77121e-15)
(0.0488654 -3.61388e-09 8.62078e-15)
(0.0488654 -3.33082e-09 8.7757e-15)
(0.0488654 -2.8133e-09 8.80555e-15)
(0.0488654 -2.10677e-09 8.95802e-15)
(0.0488654 -1.21123e-09 9.0294e-15)
(0.0488654 -1.2886e-10 8.80696e-15)
(0.0488654 1.07017e-09 9.05404e-15)
(0.0488654 2.28186e-09 8.92339e-15)
(0.0488654 3.45097e-09 9.19825e-15)
(0.0488653 4.54899e-09 9.07331e-15)
(0.0488653 5.52674e-09 8.90126e-15)
(0.0488653 6.34331e-09 9.17872e-15)
(0.0488652 6.98363e-09 9.06498e-15)
(0.0488652 7.47047e-09 9.18359e-15)
(0.0488651 7.86533e-09 9.2237e-15)
(0.0488651 8.18007e-09 8.99521e-15)
(0.048865 8.35381e-09 9.13681e-15)
(0.048865 8.36208e-09 9.16361e-15)
(0.0488649 8.24324e-09 9.29319e-15)
(0.0488649 8.04747e-09 9.30401e-15)
(0.0488648 7.82595e-09 9.06733e-15)
(0.0488648 7.58808e-09 9.38611e-15)
(0.0488647 7.29044e-09 9.23935e-15)
(0.0488647 6.9168e-09 9.42818e-15)
(0.0488646 6.49064e-09 9.21989e-15)
(0.0488646 6.03403e-09 9.56873e-15)
(0.0488645 5.57457e-09 8.98086e-15)
(0.0488645 5.14409e-09 9.00457e-15)
(0.0488645 4.75109e-09 9.33511e-15)
(0.0488644 4.30003e-09 8.88125e-15)
(0.0488644 3.74418e-09 9.51319e-15)
(0.0488644 2.98838e-09 8.83484e-15)
(0.0488644 2.25904e-09 8.84322e-15)
(0.0488644 1.72256e-09 9.1936e-15)
(0.0488643 1.35806e-09 8.81176e-15)
(0.0488643 1.19688e-09 9.59932e-15)
(0.0488643 1.04144e-09 8.55512e-15)
(0.0488643 8.52395e-10 8.76234e-15)
(0.0488643 6.28547e-10 9.10138e-15)
(0.0488643 3.13916e-10 8.72103e-15)
(0.0488643 -1.02876e-10 9.23488e-15)
(0.0488643 -6.29247e-10 8.79146e-15)
(0.0488643 -1.17985e-09 8.83377e-15)
(0.0488643 -1.77492e-09 9.09811e-15)
(0.0488643 -2.12259e-09 8.67788e-15)
(0.0488643 -2.42556e-09 9.31065e-15)
(0.0488644 -2.13994e-09 8.92875e-15)
(0.0488644 -1.54656e-09 8.93363e-15)
(0.0488644 -4.12412e-10 9.1153e-15)
(0.0488644 1.15647e-09 8.7593e-15)
(0.0488644 1.68884e-09 9.13624e-15)
(0.0488644 1.47196e-09 8.88149e-15)
(0.0488644 5.47891e-10 8.9037e-15)
(0.0488644 -8.21979e-10 9.03055e-15)
(0.0488644 -2.34377e-09 8.67579e-15)
(0.0488644 -3.81591e-09 9.06906e-15)
(0.0488645 -5.0731e-09 9.1054e-15)
(0.0488645 -6.09679e-09 9.02196e-15)
(0.0488645 -6.78178e-09 9.12213e-15)
(0.0488646 -7.21208e-09 8.78322e-15)
(0.0488646 -7.19926e-09 9.13721e-15)
(0.0488647 -6.24791e-09 9.17664e-15)
(0.0488647 -6.39879e-09 9.10657e-15)
(0.0488647 -2.78076e-09 9.16454e-15)
(0.0488647 -9.55889e-11 8.8379e-15)
(0.0567982 -1.70186e-08 1.05405e-14)
(0.0567983 -2.79342e-08 1.03221e-14)
(0.0567984 -2.55183e-08 1.02573e-14)
(0.0567985 -1.42721e-08 1.01891e-14)
(0.0567985 -3.67998e-10 1.00954e-14)
(0.0567984 1.21721e-08 1.00297e-14)
(0.0567983 2.17085e-08 1.00359e-14)
(0.0567982 2.80162e-08 1.00889e-14)
(0.056798 3.14539e-08 1.01351e-14)
(0.0567979 3.25851e-08 1.01342e-14)
(0.0567977 3.19982e-08 1.02451e-14)
(0.0567976 3.01834e-08 9.82089e-15)
(0.0567975 2.75341e-08 9.88011e-15)
(0.0567973 2.43884e-08 9.49772e-15)
(0.0567972 2.10301e-08 9.41408e-15)
(0.0567972 1.7638e-08 1.01711e-14)
(0.0567971 1.42748e-08 9.51787e-15)
(0.056797 1.09917e-08 9.56107e-15)
(0.056797 7.85702e-09 9.08185e-15)
(0.056797 4.886e-09 9.23731e-15)
(0.0567969 2.06688e-09 9.31341e-15)
(0.0567969 -5.86708e-10 9.54446e-15)
(0.0567969 -3.03343e-09 9.59395e-15)
(0.056797 -5.22328e-09 9.28965e-15)
(0.056797 -7.15369e-09 9.46508e-15)
(0.056797 -8.87845e-09 9.50061e-15)
(0.0567971 -1.04541e-08 9.21313e-15)
(0.0567971 -1.19092e-08 9.34517e-15)
(0.0567972 -1.32253e-08 9.12981e-15)
(0.0567973 -1.43645e-08 9.40586e-15)
(0.0567973 -1.53375e-08 9.38383e-15)
(0.0567974 -1.61998e-08 9.16094e-15)
(0.0567975 -1.69759e-08 9.25505e-15)
(0.0567976 -1.76368e-08 8.83796e-15)
(0.0567976 -1.8138e-08 9.20828e-15)
(0.0567977 -1.8503e-08 9.2255e-15)
(0.0567978 -1.87779e-08 8.91211e-15)
(0.0567979 -1.89953e-08 9.17159e-15)
(0.056798 -1.90008e-08 9.01332e-15)
(0.0567981 -1.88104e-08 9.14866e-15)
(0.0567982 -1.81086e-08 9.15336e-15)
(0.0567983 -1.71329e-08 9.50658e-15)
(0.0567984 -1.52157e-08 9.56356e-15)
(0.0567984 -1.26664e-08 9.6777e-15)
(0.0567985 -9.348e-09 9.63316e-15)
(0.0567985 -5.24196e-09 9.55981e-15)
(0.0567986 -2.76935e-09 9.94721e-15)
(0.0567986 -1.4614e-09 9.93237e-15)
(0.0567986 -1.19617e-09 9.91297e-15)
(0.0567986 -1.95046e-09 9.85004e-15)
(0.0567986 -2.74085e-09 9.78875e-15)
(0.0567987 -3.50234e-09 1.01971e-14)
(0.0567987 -4.15829e-09 1.00588e-14)
(0.0567987 -4.62457e-09 1.03051e-14)
(0.0567987 -4.85017e-09 1.0272e-14)
(0.0567987 -4.76672e-09 9.96821e-15)
(0.0567988 -4.32715e-09 1.03412e-14)
(0.0567988 -3.57447e-09 1.02766e-14)
(0.0567988 -2.56886e-09 1.05611e-14)
(0.0567988 -1.31536e-09 1.05336e-14)
(0.0567988 1.76921e-10 1.01667e-14)
(0.0567988 1.81305e-09 1.05197e-14)
(0.0567988 3.45779e-09 1.04068e-14)
(0.0567987 5.03817e-09 1.06737e-14)
(0.0567987 6.51464e-09 1.0642e-14)
(0.0567987 7.82475e-09 1.03062e-14)
(0.0567986 8.91899e-09 1.06655e-14)
(0.0567986 9.7798e-09 1.05717e-14)
(0.0567985 1.0436e-08 1.08263e-14)
(0.0567985 1.09623e-08 1.07792e-14)
(0.0567984 1.13718e-08 1.04026e-14)
(0.0567984 1.15929e-08 1.07542e-14)
(0.0567983 1.15992e-08 1.06835e-14)
(0.0567982 1.14376e-08 1.0932e-14)
(0.0567982 1.11708e-08 1.08657e-14)
(0.0567981 1.08658e-08 1.04771e-14)
(0.0567981 1.05355e-08 1.0904e-14)
(0.056798 1.01258e-08 1.07469e-14)
(0.056798 9.61781e-09 1.09368e-14)
(0.0567979 9.04291e-09 1.07927e-14)
(0.0567979 8.43004e-09 1.09515e-14)
(0.0567978 7.81233e-09 1.06699e-14)
(0.0567978 7.22798e-09 1.05953e-14)
(0.0567978 6.68618e-09 1.10194e-14)
(0.0567977 6.06794e-09 1.06778e-14)
(0.0567977 5.31022e-09 1.09983e-14)