/*--------------------------------*- C++ -*----------------------------------*\
  =========                 |
  \\      /  F ield         | OpenFOAM: The Open Source CFD Toolbox
   \\    /   O peration     | Website:  https://openfoam.org
    \\  /    A nd           | Version:  7
     \\/     M anipulation  |
\*---------------------------------------------------------------------------*/
FoamFile
{
    version     2.0;
    format      ascii;
    class       volScalarField;
    location    "1000";
    object      omega;
}
// * * * * * * * * * * * * * * * * * * * * * * * * * * * * * * * * * * * * * //

dimensions      [0 0 -1 0 0 0 0];

internalField   nonuniform List<scalar> 
4000
(
0.020785
0.0207825
0.0207822
0.0207824
0.0207827
0.020783
0.0207833
0.0207836
0.0207839
0.0207842
0.0207845
0.0207848
0.0207851
0.0207854
0.0207858
0.0207861
0.0207864
0.0207868
0.0207871
0.0207875
0.0207879
0.0207882
0.0207886
0.020789
0.0207894
0.0207898
0.0207902
0.0207906
0.0207911
0.0207915
0.0207919
0.0207924
0.0207928
0.0207933
0.0207938
0.0207942
0.0207947
0.0207952
0.0207957
0.0207962
0.0207967
0.0207972
0.0207977
0.0207982
0.0207985
0.0207956
0.0207939
0.0207933
0.0207934
0.0207937
0.0207941
0.0207945
0.020795
0.0207954
0.0207958
0.0207963
0.0207967
0.0207971
0.0207975
0.0207979
0.0207983
0.0207987
0.020799
0.0207994
0.0207997
0.0208
0.0208003
0.0208006
0.0208009
0.0208011
0.0208014
0.0208016
0.0208018
0.020802
0.0208022
0.0208024
0.0208025
0.0208027
0.0208028
0.0208029
0.020803
0.0208031
0.0208032
0.0208033
0.0208033
0.0208034
0.0208034
0.0208035
0.0208035
0.0208036
0.0208036
0.0208037
0.0208037
0.0208038
0.0208038
0.0208038
0.0208039
0.020804
0.020804
0.0208041
0.0208042
0.0208042
0.0208043
0.0208042
0.0208009
0.0207987
0.0207978
0.0207975
0.0207975
0.0207975
0.0207976
0.0207977
0.0207978
0.020798
0.0207981
0.0207983
0.0207985
0.0207987
0.0207989
0.0207976
0.0208344
0.0208319
0.0208314
0.0208315
0.0208316
0.0208318
0.020832
0.0208323
0.0208325
0.0208328
0.020833
0.0208333
0.0208335
0.0208338
0.0208341
0.0208344
0.0208347
0.020835
0.0208353
0.0208357
0.020836
0.0208363
0.0208367
0.0208371
0.0208374
0.0208378
0.0208382
0.0208386
0.020839
0.0208394
0.0208398
0.0208402
0.0208407
0.0208411
0.0208415
0.020842
0.0208424
0.0208429
0.0208434
0.0208438
0.0208443
0.0208448
0.0208453
0.0208458
0.0208462
0.0208457
0.0208448
0.0208442
0.0208438
0.0208438
0.0208439
0.0208441
0.0208444
0.0208447
0.020845
0.0208453
0.0208457
0.020846
0.0208463
0.0208467
0.020847
0.0208473
0.0208476
0.020848
0.0208483
0.0208485
0.0208488
0.0208491
0.0208493
0.0208496
0.0208498
0.02085
0.0208502
0.0208504
0.0208506
0.0208508
0.0208509
0.020851
0.0208512
0.0208513
0.0208514
0.0208515
0.0208516
0.0208516
0.0208517
0.0208518
0.0208518
0.0208519
0.0208519
0.020852
0.020852
0.020852
0.0208521
0.0208521
0.0208521
0.0208522
0.0208522
0.0208522
0.0208523
0.0208523
0.0208524
0.0208524
0.0208525
0.0208526
0.0208516
0.0208503
0.0208493
0.0208486
0.0208481
0.0208479
0.0208477
0.0208477
0.0208476
0.0208476
0.0208477
0.0208477
0.0208478
0.0208479
0.0208481
0.0208469
0.0209281
0.0209256
0.020925
0.020925
0.0209251
0.0209252
0.0209253
0.0209255
0.0209257
0.0209259
0.0209261
0.0209263
0.0209265
0.0209268
0.020927
0.0209273
0.0209275
0.0209278
0.0209281
0.0209284
0.0209287
0.020929
0.0209294
0.0209297
0.02093
0.0209304
0.0209308
0.0209311
0.0209315
0.0209319
0.0209323
0.0209327
0.0209331
0.0209335
0.0209339
0.0209344
0.0209348
0.0209352
0.0209357
0.0209361
0.0209366
0.020937
0.0209375
0.020938
0.0209384
0.0209386
0.0209384
0.0209382
0.020938
0.0209379
0.0209379
0.020938
0.0209381
0.0209383
0.0209386
0.0209388
0.0209391
0.0209394
0.0209397
0.0209399
0.0209402
0.0209405
0.0209408
0.0209411
0.0209414
0.0209416
0.0209419
0.0209421
0.0209423
0.0209426
0.0209428
0.020943
0.0209432
0.0209434
0.0209435
0.0209437
0.0209438
0.020944
0.0209441
0.0209442
0.0209443
0.0209444
0.0209445
0.0209446
0.0209446
0.0209447
0.0209447
0.0209448
0.0209448
0.0209449
0.0209449
0.0209449
0.0209449
0.020945
0.020945
0.020945
0.020945
0.0209451
0.0209451
0.0209451
0.0209452
0.0209452
0.0209453
0.0209453
0.0209451
0.0209445
0.0209438
0.0209432
0.0209427
0.0209424
0.0209421
0.0209419
0.0209418
0.0209417
0.0209416
0.0209416
0.0209416
0.0209417
0.0209418
0.0209406
0.0210646
0.021062
0.0210614
0.0210614
0.0210614
0.0210614
0.0210615
0.0210617
0.0210618
0.0210619
0.0210621
0.0210623
0.0210625
0.0210627
0.0210629
0.0210631
0.0210634
0.0210636
0.0210639
0.0210641
0.0210644
0.0210647
0.021065
0.0210653
0.0210657
0.021066
0.0210663
0.0210667
0.021067
0.0210674
0.0210678
0.0210682
0.0210686
0.0210689
0.0210694
0.0210698
0.0210702
0.0210706
0.021071
0.0210715
0.0210719
0.0210723
0.0210728
0.0210732
0.0210737
0.021074
0.0210742
0.0210743
0.0210743
0.0210743
0.0210744
0.0210745
0.0210746
0.0210748
0.021075
0.0210752
0.0210754
0.0210756
0.0210759
0.0210761
0.0210764
0.0210766
0.0210769
0.0210771
0.0210774
0.0210776
0.0210779
0.0210781
0.0210783
0.0210785
0.0210787
0.0210789
0.0210791
0.0210793
0.0210794
0.0210796
0.0210797
0.0210799
0.02108
0.0210801
0.0210802
0.0210803
0.0210804
0.0210805
0.0210805
0.0210806
0.0210806
0.0210807
0.0210807
0.0210807
0.0210808
0.0210808
0.0210808
0.0210808
0.0210808
0.0210808
0.0210809
0.0210809
0.0210809
0.0210809
0.0210809
0.021081
0.021081
0.021081
0.021081
0.0210808
0.0210804
0.02108
0.0210797
0.0210793
0.0210791
0.0210788
0.0210786
0.0210785
0.0210784
0.0210783
0.0210783
0.0210782
0.0210783
0.0210771
0.0212427
0.02124
0.0212395
0.0212394
0.0212394
0.0212394
0.0212395
0.0212395
0.0212396
0.0212398
0.0212399
0.02124
0.0212402
0.0212404
0.0212406
0.0212408
0.021241
0.0212412
0.0212414
0.0212417
0.0212419
0.0212422
0.0212425
0.0212428
0.0212431
0.0212434
0.0212437
0.0212441
0.0212444
0.0212448
0.0212451
0.0212455
0.0212459
0.0212462
0.0212466
0.021247
0.0212474
0.0212478
0.0212482
0.0212486
0.0212491
0.0212495
0.0212499
0.0212503
0.0212508
0.0212512
0.0212515
0.0212518
0.021252
0.0212521
0.0212523
0.0212524
0.0212526
0.0212527
0.0212529
0.0212531
0.0212533
0.0212535
0.0212538
0.021254
0.0212542
0.0212545
0.0212547
0.021255
0.0212552
0.0212554
0.0212556
0.0212559
0.0212561
0.0212563
0.0212565
0.0212567
0.0212568
0.021257
0.0212572
0.0212573
0.0212574
0.0212576
0.0212577
0.0212578
0.0212579
0.021258
0.0212581
0.0212582
0.0212582
0.0212583
0.0212583
0.0212584
0.0212584
0.0212584
0.0212584
0.0212585
0.0212585
0.0212585
0.0212585
0.0212585
0.0212585
0.0212585
0.0212585
0.0212585
0.0212585
0.0212585
0.0212585
0.0212586
0.0212586
0.0212585
0.0212583
0.0212581
0.0212579
0.0212576
0.0212574
0.0212572
0.021257
0.0212569
0.0212567
0.0212566
0.0212566
0.0212565
0.0212565
0.0212553
0.0214616
0.0214589
0.0214584
0.0214583
0.0214582
0.0214583
0.0214583
0.0214583
0.0214584
0.0214585
0.0214586
0.0214587
0.0214589
0.021459
0.0214592
0.0214594
0.0214596
0.0214598
0.02146
0.0214602
0.0214605
0.0214607
0.021461
0.0214613
0.0214615
0.0214618
0.0214621
0.0214625
0.0214628
0.0214631
0.0214635
0.0214638
0.0214642
0.0214645
0.0214649
0.0214653
0.0214657
0.0214661
0.0214665
0.0214669
0.0214673
0.0214677
0.0214681
0.0214685
0.0214689
0.0214693
0.0214697
0.0214701
0.0214704
0.0214706
0.0214708
0.0214711
0.0214713
0.0214715
0.0214717
0.0214719
0.0214721
0.0214723
0.0214726
0.0214728
0.021473
0.0214733
0.0214735
0.0214737
0.0214739
0.0214742
0.0214744
0.0214746
0.0214748
0.021475
0.0214752
0.0214754
0.0214755
0.0214757
0.0214759
0.021476
0.0214762
0.0214763
0.0214764
0.0214765
0.0214766
0.0214767
0.0214768
0.0214769
0.0214769
0.021477
0.021477
0.0214771
0.0214771
0.0214771
0.0214771
0.0214771
0.0214772
0.0214772
0.0214772
0.0214771
0.0214771
0.0214771
0.0214771
0.0214771
0.0214771
0.0214771
0.0214771
0.0214771
0.0214771
0.0214771
0.021477
0.0214769
0.0214768
0.0214766
0.0214765
0.0214763
0.0214761
0.021476
0.0214759
0.0214758
0.0214757
0.0214756
0.0214756
0.0214744
0.021721
0.0217183
0.0217177
0.0217176
0.0217176
0.0217176
0.0217176
0.0217176
0.0217177
0.0217178
0.0217179
0.021718
0.0217181
0.0217182
0.0217184
0.0217185
0.0217187
0.0217189
0.0217191
0.0217193
0.0217195
0.0217198
0.02172
0.0217203
0.0217206
0.0217208
0.0217211
0.0217214
0.0217217
0.0217221
0.0217224
0.0217227
0.0217231
0.0217234
0.0217238
0.0217242
0.0217245
0.0217249
0.0217253
0.0217257
0.0217261
0.0217265
0.0217269
0.0217273
0.0217277
0.0217281
0.0217285
0.0217289
0.0217292
0.0217295
0.0217298
0.0217301
0.0217303
0.0217306
0.0217308
0.0217311
0.0217313
0.0217316
0.0217318
0.021732
0.0217323
0.0217325
0.0217327
0.021733
0.0217332
0.0217334
0.0217336
0.0217338
0.021734
0.0217342
0.0217344
0.0217346
0.0217348
0.021735
0.0217351
0.0217353
0.0217354
0.0217356
0.0217357
0.0217358
0.0217359
0.021736
0.0217361
0.0217362
0.0217362
0.0217363
0.0217363
0.0217363
0.0217364
0.0217364
0.0217364
0.0217364
0.0217364
0.0217364
0.0217364
0.0217364
0.0217364
0.0217364
0.0217363
0.0217363
0.0217363
0.0217363
0.0217363
0.0217363
0.0217363
0.0217363
0.0217362
0.0217362
0.0217361
0.021736
0.0217359
0.0217358
0.0217357
0.0217355
0.0217354
0.0217353
0.0217353
0.0217352
0.0217352
0.021734
0.0220208
0.022018
0.0220174
0.0220173
0.0220172
0.0220172
0.0220173
0.0220173
0.0220173
0.0220174
0.0220175
0.0220176
0.0220177
0.0220178
0.0220179
0.0220181
0.0220182
0.0220184
0.0220186
0.0220188
0.022019
0.0220192
0.0220195
0.0220197
0.02202
0.0220203
0.0220206
0.0220208
0.0220211
0.0220215
0.0220218
0.0220221
0.0220224
0.0220228
0.0220231
0.0220235
0.0220238
0.0220242
0.0220246
0.0220249
0.0220253
0.0220257
0.0220261
0.0220265
0.0220269
0.0220273
0.0220277
0.0220281
0.0220284
0.0220288
0.0220291
0.0220295
0.0220298
0.0220301
0.0220303
0.0220306
0.0220309
0.0220311
0.0220314
0.0220316
0.0220319
0.0220321
0.0220324
0.0220326
0.0220329
0.0220331
0.0220333
0.0220335
0.0220337
0.0220339
0.0220341
0.0220343
0.0220345
0.0220347
0.0220349
0.022035
0.0220352
0.0220353
0.0220354
0.0220355
0.0220356
0.0220357
0.0220358
0.0220359
0.022036
0.022036
0.0220361
0.0220361
0.0220361
0.0220362
0.0220362
0.0220362
0.0220362
0.0220362
0.0220361
0.0220361
0.0220361
0.0220361
0.022036
0.022036
0.022036
0.022036
0.0220359
0.0220359
0.0220359
0.0220359
0.0220359
0.0220358
0.0220358
0.0220357
0.0220357
0.0220356
0.0220355
0.0220354
0.0220353
0.0220353
0.0220352
0.0220351
0.0220351
0.022034
0.0223611
0.0223583
0.0223576
0.0223575
0.0223575
0.0223575
0.0223575
0.0223575
0.0223576
0.0223576
0.0223577
0.0223578
0.0223579
0.022358
0.0223581
0.0223582
0.0223584
0.0223586
0.0223587
0.0223589
0.0223591
0.0223594
0.0223596
0.0223598
0.0223601
0.0223603
0.0223606
0.0223609
0.0223612
0.0223615
0.0223618
0.0223621
0.0223624
0.0223628
0.0223631
0.0223634
0.0223638
0.0223641
0.0223645
0.0223649
0.0223652
0.0223656
0.022366
0.0223664
0.0223668
0.0223672
0.0223676
0.022368
0.0223683
0.0223687
0.0223691
0.0223694
0.0223698
0.0223701
0.0223704
0.0223707
0.022371
0.0223713
0.0223716
0.0223718
0.0223721
0.0223724
0.0223726
0.0223729
0.0223731
0.0223734
0.0223736
0.0223738
0.0223741
0.0223743
0.0223745
0.0223747
0.0223749
0.0223751
0.0223752
0.0223754
0.0223756
0.0223757
0.0223758
0.022376
0.0223761
0.0223762
0.0223763
0.0223763
0.0223764
0.0223765
0.0223765
0.0223766
0.0223766
0.0223766
0.0223766
0.0223766
0.0223766
0.0223766
0.0223766
0.0223765
0.0223765
0.0223765
0.0223764
0.0223764
0.0223764
0.0223763
0.0223763
0.0223763
0.0223762
0.0223762
0.0223762
0.0223762
0.0223761
0.0223761
0.022376
0.022376
0.0223759
0.0223759
0.0223758
0.0223758
0.0223757
0.0223757
0.0223757
0.0223745
0.0227425
0.0227396
0.022739
0.0227389
0.0227388
0.0227388
0.0227388
0.0227389
0.0227389
0.0227389
0.022739
0.0227391
0.0227392
0.0227393
0.0227394
0.0227395
0.0227397
0.0227398
0.02274
0.0227402
0.0227404
0.0227406
0.0227408
0.022741
0.0227413
0.0227415
0.0227418
0.0227421
0.0227423
0.0227426
0.0227429
0.0227432
0.0227436
0.0227439
0.0227442
0.0227445
0.0227449
0.0227452
0.0227456
0.022746
0.0227463
0.0227467
0.0227471
0.0227474
0.0227478
0.0227482
0.0227486
0.022749
0.0227494
0.0227498
0.0227502
0.0227505
0.0227509
0.0227512
0.0227516
0.0227519
0.0227522
0.0227526
0.0227529
0.0227532
0.0227535
0.0227537
0.022754
0.0227543
0.0227546
0.0227548
0.0227551
0.0227553
0.0227555
0.0227558
0.022756
0.0227562
0.0227564
0.0227566
0.0227568
0.022757
0.0227571
0.0227573
0.0227574
0.0227576
0.0227577
0.0227578
0.0227579
0.022758
0.0227581
0.0227581
0.0227582
0.0227582
0.0227582
0.0227582
0.0227582
0.0227582
0.0227582
0.0227582
0.0227582
0.0227582
0.0227581
0.0227581
0.022758
0.022758
0.022758
0.0227579
0.0227579
0.0227578
0.0227578
0.0227578
0.0227577
0.0227577
0.0227577
0.0227576
0.0227576
0.0227576
0.0227575
0.0227575
0.0227574
0.0227574
0.0227574
0.0227573
0.0227574
0.0227563
0.0231658
0.0231629
0.0231622
0.0231621
0.0231621
0.0231621
0.0231621
0.0231621
0.0231621
0.0231622
0.0231622
0.0231623
0.0231624
0.0231625
0.0231626
0.0231627
0.0231628
0.023163
0.0231631
0.0231633
0.0231635
0.0231637
0.0231639
0.0231641
0.0231644
0.0231646
0.0231649
0.0231651
0.0231654
0.0231657
0.023166
0.0231663
0.0231666
0.0231669
0.0231673
0.0231676
0.0231679
0.0231683
0.0231686
0.023169
0.0231693
0.0231697
0.0231701
0.0231705
0.0231708
0.0231712
0.0231716
0.023172
0.0231724
0.0231728
0.0231732
0.0231736
0.023174
0.0231744
0.0231747
0.0231751
0.0231754
0.0231758
0.0231761
0.0231764
0.0231767
0.0231771
0.0231774
0.0231777
0.0231779
0.0231782
0.0231785
0.0231788
0.023179
0.0231793
0.0231795
0.0231797
0.0231799
0.0231802
0.0231804
0.0231806
0.0231807
0.0231809
0.0231811
0.0231812
0.0231813
0.0231814
0.0231815
0.0231816
0.0231817
0.0231818
0.0231818
0.0231819
0.0231819
0.0231819
0.0231819
0.0231819
0.0231819
0.0231819
0.0231818
0.0231818
0.0231818
0.0231817
0.0231817
0.0231816
0.0231816
0.0231815
0.0231815
0.0231814
0.0231814
0.0231813
0.0231813
0.0231813
0.0231812
0.0231812
0.0231812
0.0231811
0.0231811
0.0231811
0.0231811
0.023181
0.023181
0.023181
0.023181
0.02318
0.0236322
0.0236292
0.0236285
0.0236284
0.0236283
0.0236283
0.0236283
0.0236283
0.0236284
0.0236284
0.0236284
0.0236285
0.0236286
0.0236287
0.0236288
0.0236289
0.023629
0.0236291
0.0236293
0.0236295
0.0236296
0.0236298
0.02363
0.0236303
0.0236305
0.0236307
0.023631
0.0236312
0.0236315
0.0236318
0.0236321
0.0236324
0.0236327
0.023633
0.0236333
0.0236336
0.023634
0.0236343
0.0236347
0.023635
0.0236354
0.0236358
0.0236362
0.0236365
0.0236369
0.0236373
0.0236377
0.0236381
0.0236385
0.0236389
0.0236394
0.0236398
0.0236402
0.0236406
0.0236409
0.0236413
0.0236417
0.0236421
0.0236424
0.0236428
0.0236431
0.0236435
0.0236438
0.0236441
0.0236444
0.0236447
0.023645
0.0236453
0.0236456
0.0236458
0.0236461
0.0236463
0.0236466
0.0236468
0.023647
0.0236472
0.0236474
0.0236476
0.0236478
0.0236479
0.0236481
0.0236482
0.0236483
0.0236484
0.0236485
0.0236486
0.0236486
0.0236487
0.0236487
0.0236487
0.0236487
0.0236487
0.0236487
0.0236487
0.0236486
0.0236486
0.0236485
0.0236485
0.0236484
0.0236484
0.0236483
0.0236483
0.0236482
0.0236482
0.0236481
0.0236481
0.023648
0.023648
0.0236479
0.0236479
0.0236479
0.0236479
0.0236478
0.0236478
0.0236478
0.0236477
0.0236477
0.0236477
0.0236478
0.0236467
0.0241431
0.0241399
0.0241392
0.0241391
0.024139
0.024139
0.024139
0.024139
0.024139
0.024139
0.0241391
0.0241391
0.0241392
0.0241393
0.0241393
0.0241395
0.0241396
0.0241397
0.0241398
0.02414
0.0241402
0.0241404
0.0241406
0.0241408
0.024141
0.0241412
0.0241415
0.0241417
0.024142
0.0241423
0.0241426
0.0241429
0.0241432
0.0241435
0.0241438
0.0241441
0.0241445
0.0241448
0.0241452
0.0241455
0.0241459
0.0241463
0.0241467
0.0241471
0.0241475
0.0241479
0.0241483
0.0241487
0.0241491
0.0241496
0.02415
0.0241504
0.0241508
0.0241513
0.0241517
0.0241521
0.0241525
0.0241529
0.0241533
0.0241536
0.024154
0.0241544
0.0241547
0.0241551
0.0241554
0.0241557
0.0241561
0.0241564
0.0241567
0.024157
0.0241572
0.0241575
0.0241578
0.024158
0.0241582
0.0241585
0.0241587
0.0241589
0.0241591
0.0241592
0.0241594
0.0241595
0.0241596
0.0241597
0.0241598
0.0241599
0.02416
0.02416
0.02416
0.0241601
0.0241601
0.02416
0.02416
0.02416
0.02416
0.0241599
0.0241599
0.0241598
0.0241598
0.0241597
0.0241596
0.0241596
0.0241595
0.0241595
0.0241594
0.0241593
0.0241593
0.0241593
0.0241592
0.0241592
0.0241591
0.0241591
0.0241591
0.0241591
0.024159
0.024159
0.024159
0.024159
0.024159
0.0241581
0.0247001
0.0246968
0.0246961
0.0246959
0.0246958
0.0246958
0.0246958
0.0246958
0.0246958
0.0246958
0.0246958
0.0246958
0.0246959
0.0246959
0.024696
0.0246961
0.0246962
0.0246964
0.0246965
0.0246966
0.0246968
0.024697
0.0246972
0.0246974
0.0246976
0.0246978
0.0246981
0.0246983
0.0246986
0.0246989
0.0246992
0.0246995
0.0246998
0.0247001
0.0247004
0.0247008
0.0247011
0.0247015
0.0247018
0.0247022
0.0247026
0.024703
0.0247034
0.0247038
0.0247042
0.0247047
0.0247051
0.0247055
0.024706
0.0247064
0.0247069
0.0247073
0.0247078
0.0247082
0.0247086
0.0247091
0.0247095
0.0247099
0.0247103
0.0247107
0.0247111
0.0247115
0.0247119
0.0247123
0.0247127
0.024713
0.0247134
0.0247137
0.024714
0.0247143
0.0247146
0.0247149
0.0247152
0.0247155
0.0247157
0.024716
0.0247162
0.0247164
0.0247166
0.0247168
0.024717
0.0247171
0.0247172
0.0247173
0.0247174
0.0247175
0.0247176
0.0247176
0.0247177
0.0247177
0.0247177
0.0247177
0.0247177
0.0247176
0.0247176
0.0247175
0.0247175
0.0247174
0.0247174
0.0247173
0.0247172
0.0247172
0.0247171
0.024717
0.024717
0.0247169
0.0247169
0.0247168
0.0247168
0.0247167
0.0247167
0.0247167
0.0247166
0.0247166
0.0247166
0.0247165
0.0247165
0.0247165
0.0247165
0.0247156
0.0253054
0.0253019
0.0253011
0.0253009
0.0253008
0.0253008
0.0253007
0.0253007
0.0253007
0.0253007
0.0253007
0.0253007
0.0253007
0.0253008
0.0253008
0.0253009
0.025301
0.0253011
0.0253013
0.0253014
0.0253016
0.0253018
0.0253019
0.0253022
0.0253024
0.0253026
0.0253028
0.0253031
0.0253034
0.0253036
0.0253039
0.0253042
0.0253045
0.0253049
0.0253052
0.0253056
0.0253059
0.0253063
0.0253067
0.0253071
0.0253075
0.0253079
0.0253084
0.0253088
0.0253092
0.0253097
0.0253102
0.0253106
0.0253111
0.0253116
0.025312
0.0253125
0.025313
0.0253135
0.0253139
0.0253144
0.0253149
0.0253153
0.0253158
0.0253162
0.0253166
0.025317
0.0253174
0.0253179
0.0253182
0.0253186
0.025319
0.0253194
0.0253197
0.0253201
0.0253204
0.0253207
0.025321
0.0253213
0.0253216
0.0253218
0.0253221
0.0253223
0.0253225
0.0253227
0.0253229
0.025323
0.0253232
0.0253233
0.0253234
0.0253235
0.0253236
0.0253236
0.0253237
0.0253237
0.0253237
0.0253237
0.0253236
0.0253236
0.0253236
0.0253235
0.0253235
0.0253234
0.0253233
0.0253233
0.0253232
0.0253231
0.0253231
0.025323
0.0253229
0.0253229
0.0253228
0.0253228
0.0253227
0.0253227
0.0253226
0.0253226
0.0253225
0.0253225
0.0253225
0.0253224
0.0253223
0.0253223
0.0253223
0.0253214
0.0259612
0.0259576
0.0259568
0.0259565
0.0259564
0.0259563
0.0259562
0.0259562
0.0259561
0.0259561
0.0259561
0.0259561
0.0259561
0.0259561
0.0259562
0.0259562
0.0259563
0.0259564
0.0259566
0.0259567
0.0259569
0.025957
0.0259572
0.0259574
0.0259576
0.0259579
0.0259581
0.0259584
0.0259586
0.0259589
0.0259592
0.0259595
0.0259599
0.0259602
0.0259606
0.0259609
0.0259613
0.0259617
0.0259622
0.0259626
0.025963
0.0259635
0.025964
0.0259644
0.0259649
0.0259654
0.0259659
0.0259664
0.0259669
0.0259674
0.0259679
0.0259685
0.025969
0.0259695
0.02597
0.0259705
0.025971
0.0259714
0.0259719
0.0259724
0.0259728
0.0259733
0.0259737
0.0259742
0.0259746
0.025975
0.0259754
0.0259758
0.0259762
0.0259765
0.0259769
0.0259772
0.0259776
0.0259779
0.0259782
0.0259784
0.0259787
0.025979
0.0259792
0.0259794
0.0259796
0.0259798
0.0259799
0.02598
0.0259802
0.0259802
0.0259803
0.0259804
0.0259804
0.0259804
0.0259804
0.0259804
0.0259804
0.0259804
0.0259803
0.0259803
0.0259802
0.0259801
0.0259801
0.02598
0.0259799
0.0259799
0.0259798
0.0259797
0.0259796
0.0259796
0.0259795
0.0259795
0.0259794
0.0259794
0.0259793
0.0259793
0.0259792
0.0259791
0.0259791
0.025979
0.0259789
0.0259788
0.0259788
0.025978
0.0266705
0.0266666
0.0266657
0.0266654
0.0266652
0.0266651
0.026665
0.0266649
0.0266648
0.0266648
0.0266647
0.0266647
0.0266647
0.0266647
0.0266648
0.0266648
0.0266649
0.026665
0.0266651
0.0266652
0.0266654
0.0266656
0.0266658
0.026666
0.0266662
0.0266664
0.0266667
0.0266669
0.0266672
0.0266675
0.0266678
0.0266681
0.0266685
0.0266689
0.0266693
0.0266697
0.0266701
0.0266705
0.026671
0.0266715
0.026672
0.0266725
0.026673
0.0266735
0.0266741
0.0266746
0.0266752
0.0266757
0.0266763
0.0266768
0.0266774
0.0266779
0.0266785
0.026679
0.0266795
0.0266801
0.0266806
0.0266811
0.0266816
0.0266821
0.0266826
0.0266831
0.0266836
0.026684
0.0266845
0.0266849
0.0266854
0.0266858
0.0266862
0.0266866
0.026687
0.0266873
0.0266877
0.026688
0.0266883
0.0266886
0.0266889
0.0266892
0.0266894
0.0266896
0.0266899
0.02669
0.0266902
0.0266903
0.0266905
0.0266906
0.0266906
0.0266907
0.0266907
0.0266907
0.0266908
0.0266907
0.0266907
0.0266907
0.0266906
0.0266906
0.0266905
0.0266905
0.0266904
0.0266903
0.0266902
0.0266902
0.0266901
0.02669
0.0266899
0.0266899
0.0266898
0.0266897
0.0266897
0.0266896
0.0266895
0.0266895
0.0266894
0.0266893
0.0266892
0.0266891
0.0266889
0.0266888
0.0266887
0.0266879
0.0274362
0.0274321
0.0274311
0.0274307
0.0274305
0.0274303
0.0274302
0.02743
0.0274299
0.0274299
0.0274298
0.0274297
0.0274297
0.0274297
0.0274297
0.0274298
0.0274299
0.02743
0.0274301
0.0274302
0.0274304
0.0274305
0.0274307
0.0274309
0.0274311
0.0274314
0.0274316
0.0274319
0.0274322
0.0274325
0.0274329
0.0274332
0.0274336
0.027434
0.0274345
0.0274349
0.0274354
0.0274359
0.0274365
0.027437
0.0274376
0.0274381
0.0274387
0.0274393
0.0274399
0.0274405
0.0274411
0.0274417
0.0274423
0.0274429
0.0274435
0.0274441
0.0274447
0.0274453
0.0274459
0.0274464
0.027447
0.0274475
0.0274481
0.0274486
0.0274492
0.0274497
0.0274502
0.0274507
0.0274512
0.0274516
0.0274521
0.0274525
0.027453
0.0274534
0.0274538
0.0274542
0.0274546
0.0274549
0.0274553
0.0274556
0.0274559
0.0274562
0.0274564
0.0274567
0.0274569
0.0274571
0.0274572
0.0274574
0.0274575
0.0274576
0.0274577
0.0274578
0.0274578
0.0274578
0.0274578
0.0274578
0.0274578
0.0274578
0.0274577
0.0274576
0.0274576
0.0274575
0.0274574
0.0274574
0.0274573
0.0274572
0.0274571
0.0274571
0.027457
0.0274569
0.0274568
0.0274568
0.0274567
0.0274566
0.0274565
0.0274564
0.0274563
0.0274561
0.027456
0.0274558
0.0274556
0.0274554
0.0274552
0.0274545
0.0282619
0.0282576
0.0282565
0.028256
0.0282558
0.0282556
0.0282554
0.0282552
0.028255
0.0282549
0.0282548
0.0282548
0.0282547
0.0282547
0.0282547
0.0282548
0.0282548
0.0282549
0.028255
0.0282552
0.0282553
0.0282555
0.0282557
0.0282559
0.0282561
0.0282564
0.0282567
0.028257
0.0282573
0.0282576
0.028258
0.0282584
0.0282589
0.0282594
0.0282599
0.0282604
0.028261
0.0282616
0.0282622
0.0282628
0.0282634
0.0282641
0.0282647
0.0282654
0.0282661
0.0282667
0.0282674
0.0282681
0.0282687
0.0282694
0.02827
0.0282707
0.0282713
0.0282719
0.0282726
0.0282732
0.0282738
0.0282744
0.028275
0.0282755
0.0282761
0.0282767
0.0282772
0.0282777
0.0282782
0.0282787
0.0282792
0.0282797
0.0282802
0.0282806
0.028281
0.0282814
0.0282818
0.0282822
0.0282826
0.0282829
0.0282832
0.0282835
0.0282838
0.0282841
0.0282843
0.0282845
0.0282847
0.0282848
0.028285
0.0282851
0.0282852
0.0282852
0.0282853
0.0282853
0.0282853
0.0282853
0.0282853
0.0282852
0.0282852
0.0282851
0.028285
0.028285
0.0282849
0.0282848
0.0282847
0.0282846
0.0282846
0.0282845
0.0282844
0.0282843
0.0282843
0.0282842
0.0282841
0.028284
0.0282838
0.0282836
0.0282835
0.0282832
0.028283
0.0282827
0.0282824
0.0282822
0.0282819
0.0282812
0.0291518
0.0291472
0.0291459
0.0291454
0.0291451
0.0291448
0.0291446
0.0291444
0.0291442
0.029144
0.0291439
0.0291438
0.0291438
0.0291437
0.0291438
0.0291438
0.0291438
0.0291439
0.0291441
0.0291442
0.0291444
0.0291445
0.0291447
0.029145
0.0291452
0.0291455
0.0291458
0.0291461
0.0291465
0.0291469
0.0291474
0.0291479
0.0291484
0.029149
0.0291496
0.0291502
0.0291509
0.0291516
0.0291523
0.029153
0.0291537
0.0291545
0.0291552
0.029156
0.0291567
0.0291574
0.0291582
0.0291589
0.0291596
0.0291604
0.0291611
0.0291618
0.0291625
0.0291631
0.0291638
0.0291645
0.0291651
0.0291658
0.0291664
0.029167
0.0291676
0.0291682
0.0291687
0.0291693
0.0291698
0.0291704
0.0291709
0.0291714
0.0291719
0.0291724
0.0291728
0.0291732
0.0291737
0.0291741
0.0291744
0.0291748
0.0291751
0.0291755
0.0291758
0.029176
0.0291763
0.0291765
0.0291767
0.0291768
0.029177
0.0291771
0.0291772
0.0291772
0.0291773
0.0291773
0.0291773
0.0291773
0.0291772
0.0291772
0.0291771
0.0291771
0.029177
0.0291769
0.0291769
0.0291768
0.0291767
0.0291766
0.0291765
0.0291765
0.0291764
0.0291763
0.0291762
0.0291761
0.0291759
0.0291758
0.0291755
0.0291753
0.029175
0.0291746
0.0291743
0.0291739
0.0291735
0.0291731
0.0291728
0.0291721
0.0301103
0.0301054
0.030104
0.0301034
0.030103
0.0301027
0.0301024
0.0301022
0.0301019
0.0301018
0.0301016
0.0301015
0.0301015
0.0301014
0.0301014
0.0301015
0.0301015
0.0301016
0.0301018
0.0301019
0.0301021
0.0301023
0.0301025
0.0301028
0.030103
0.0301033
0.0301037
0.0301041
0.0301045
0.030105
0.0301056
0.0301062
0.0301069
0.0301076
0.0301083
0.0301091
0.0301099
0.0301107
0.0301115
0.0301123
0.0301132
0.030114
0.0301149
0.0301157
0.0301165
0.0301173
0.0301182
0.030119
0.0301198
0.0301205
0.0301213
0.0301221
0.0301228
0.0301236
0.0301243
0.030125
0.0301257
0.0301263
0.030127
0.0301276
0.0301283
0.0301289
0.0301295
0.0301301
0.0301307
0.0301312
0.0301318
0.0301323
0.0301328
0.0301333
0.0301338
0.0301342
0.0301347
0.0301351
0.0301355
0.0301359
0.0301362
0.0301366
0.0301369
0.0301372
0.0301374
0.0301376
0.0301378
0.030138
0.0301381
0.0301382
0.0301383
0.0301384
0.0301384
0.0301385
0.0301385
0.0301384
0.0301384
0.0301384
0.0301383
0.0301382
0.0301382
0.0301381
0.030138
0.0301379
0.0301378
0.0301378
0.0301377
0.0301376
0.0301375
0.0301374
0.0301373
0.0301371
0.0301369
0.0301366
0.0301362
0.0301359
0.0301354
0.0301349
0.0301344
0.0301339
0.0301334
0.0301329
0.0301324
0.0301318
0.0311426
0.0311373
0.0311358
0.0311351
0.0311347
0.0311343
0.031134
0.0311337
0.0311335
0.0311333
0.0311331
0.031133
0.031133
0.0311329
0.0311329
0.031133
0.0311331
0.0311332
0.0311333
0.0311335
0.0311337
0.0311339
0.0311342
0.0311345
0.0311348
0.0311351
0.0311356
0.0311361
0.0311366
0.0311373
0.031138
0.0311387
0.0311396
0.0311404
0.0311413
0.0311422
0.0311432
0.0311441
0.0311451
0.0311461
0.031147
0.031148
0.0311489
0.0311499
0.0311508
0.0311517
0.0311526
0.0311535
0.0311544
0.0311552
0.031156
0.0311569
0.0311577
0.0311584
0.0311592
0.03116
0.0311607
0.0311614
0.0311621
0.0311628
0.0311634
0.0311641
0.0311647
0.0311653
0.031166
0.0311665
0.0311671
0.0311677
0.0311682
0.0311687
0.0311692
0.0311697
0.0311702
0.0311706
0.031171
0.0311714
0.0311718
0.0311721
0.0311724
0.0311727
0.031173
0.0311732
0.0311734
0.0311736
0.0311737
0.0311739
0.0311739
0.031174
0.031174
0.0311741
0.0311741
0.031174
0.031174
0.0311739
0.0311739
0.0311738
0.0311737
0.0311737
0.0311736
0.0311735
0.0311734
0.0311733
0.0311732
0.0311731
0.031173
0.0311729
0.0311727
0.0311724
0.0311721
0.0311716
0.0311711
0.0311705
0.0311699
0.0311692
0.0311686
0.0311679
0.0311672
0.0311666
0.031166
0.0311654
0.0322545
0.0322488
0.0322472
0.0322464
0.0322459
0.0322455
0.0322452
0.0322449
0.0322446
0.0322444
0.0322443
0.0322442
0.0322441
0.0322441
0.0322441
0.0322442
0.0322443
0.0322445
0.0322446
0.0322448
0.0322451
0.0322453
0.0322456
0.0322459
0.0322463
0.0322468
0.0322473
0.032248
0.0322487
0.0322495
0.0322505
0.0322514
0.0322525
0.0322536
0.0322547
0.0322558
0.0322569
0.032258
0.0322591
0.0322602
0.0322613
0.0322624
0.0322634
0.0322645
0.0322655
0.0322665
0.0322675
0.0322684
0.0322694
0.0322703
0.0322712
0.0322721
0.0322729
0.0322737
0.0322746
0.0322753
0.0322761
0.0322769
0.0322776
0.0322783
0.032279
0.0322797
0.0322804
0.032281
0.0322816
0.0322822
0.0322828
0.0322834
0.032284
0.0322845
0.032285
0.0322855
0.032286
0.0322865
0.0322869
0.0322873
0.0322877
0.0322881
0.0322884
0.0322887
0.0322889
0.0322892
0.0322894
0.0322896
0.0322897
0.0322898
0.0322899
0.03229
0.03229
0.03229
0.03229
0.03229
0.0322899
0.0322899
0.0322898
0.0322897
0.0322897
0.0322896
0.0322895
0.0322894
0.0322893
0.0322892
0.0322892
0.032289
0.0322889
0.0322886
0.0322883
0.0322879
0.0322873
0.0322866
0.0322858
0.032285
0.0322841
0.0322832
0.0322824
0.0322815
0.0322807
0.0322799
0.0322792
0.0322786
0.0334524
0.0334464
0.0334446
0.0334438
0.0334433
0.0334428
0.0334425
0.0334422
0.0334419
0.0334417
0.0334416
0.0334415
0.0334415
0.0334415
0.0334416
0.0334417
0.0334418
0.033442
0.0334422
0.0334425
0.0334428
0.0334431
0.0334434
0.0334438
0.0334443
0.0334449
0.0334457
0.0334465
0.0334476
0.0334487
0.0334499
0.0334511
0.0334524
0.0334537
0.0334551
0.0334564
0.0334577
0.033459
0.0334603
0.0334615
0.0334627
0.0334639
0.0334651
0.0334662
0.0334673
0.0334684
0.0334695
0.0334705
0.0334715
0.0334725
0.0334734
0.0334744
0.0334753
0.0334761
0.033477
0.0334778
0.0334786
0.0334794
0.0334802
0.0334809
0.0334817
0.0334824
0.033483
0.0334837
0.0334844
0.033485
0.0334856
0.0334862
0.0334868
0.0334874
0.0334879
0.0334884
0.0334889
0.0334894
0.0334898
0.0334902
0.0334906
0.033491
0.0334913
0.0334916
0.0334919
0.0334922
0.0334924
0.0334925
0.0334927
0.0334928
0.0334929
0.0334929
0.033493
0.033493
0.033493
0.0334929
0.0334929
0.0334928
0.0334927
0.0334927
0.0334926
0.0334925
0.0334924
0.0334923
0.0334922
0.0334922
0.033492
0.0334919
0.0334916
0.0334912
0.0334906
0.0334899
0.033489
0.033488
0.0334868
0.0334857
0.0334845
0.0334834
0.0334823
0.0334813
0.0334803
0.0334795
0.0334786
0.0334781
0.0347438
0.0347373
0.0347355
0.0347346
0.0347341
0.0347336
0.0347333
0.034733
0.0347328
0.0347326
0.0347325
0.0347325
0.0347325
0.0347326
0.0347327
0.0347329
0.0347331
0.0347333
0.0347336
0.0347339
0.0347342
0.0347346
0.034735
0.0347355
0.0347362
0.0347371
0.0347382
0.0347394
0.0347408
0.0347423
0.0347438
0.0347454
0.034747
0.0347486
0.0347502
0.0347517
0.0347532
0.0347547
0.0347561
0.0347575
0.0347588
0.0347601
0.0347614
0.0347626
0.0347638
0.034765
0.0347661
0.0347672
0.0347683
0.0347693
0.0347703
0.0347713
0.0347722
0.0347731
0.034774
0.0347749
0.0347757
0.0347765
0.0347773
0.0347781
0.0347788
0.0347796
0.0347803
0.034781
0.0347817
0.0347823
0.0347829
0.0347836
0.0347841
0.0347847
0.0347853
0.0347858
0.0347863
0.0347868
0.0347873
0.0347877
0.0347881
0.0347885
0.0347888
0.0347891
0.0347894
0.0347896
0.0347898
0.03479