/*--------------------------------*- C++ -*----------------------------------*\
  =========                 |
  \\      /  F ield         | OpenFOAM: The Open Source CFD Toolbox
   \\    /   O peration     | Website:  https://openfoam.org
    \\  /    A nd           | Version:  7
     \\/     M anipulation  |
\*---------------------------------------------------------------------------*/
FoamFile
{
    version     2.0;
    format      ascii;
    class       surfaceScalarField;
    location    "1000";
    object      phi;
}
// * * * * * * * * * * * * * * * * * * * * * * * * * * * * * * * * * * * * * //

dimensions      [0 3 -1 0 0 0 0];

internalField   nonuniform List<scalar> 
7846
(
0.000719214
-3.82538e-09
0.000719214
-3.15325e-09
0.000719214
-2.61752e-09
0.000719214
-2.16207e-09
0.000719214
-1.73206e-09
0.000719214
-1.35169e-09
0.000719214
-1.02443e-09
0.000719214
-7.5431e-10
0.000719215
-5.44976e-10
0.000719215
-3.9722e-10
0.000719215
-3.10568e-10
0.000719215
-2.83426e-10
0.000719215
-3.13062e-10
0.000719215
-3.95802e-10
0.000719215
-5.27199e-10
0.000719215
-7.02207e-10
0.000719215
-9.15364e-10
0.000719216
-1.16098e-09
0.000719216
-1.43335e-09
0.000719216
-1.72689e-09
0.000719216
-2.03633e-09
0.000719216
-2.35681e-09
0.000719216
-2.68393e-09
0.000719216
-3.01367e-09
0.000719216
-3.34229e-09
0.000719216
-3.66616e-09
0.000719216
-3.98159e-09
0.000719216
-4.28471e-09
0.000719216
-4.57129e-09
0.000719216
-4.83667e-09
0.000719216
-5.07561e-09
0.000719216
-5.28216e-09
0.000719217
-5.4495e-09
0.000719217
-5.56971e-09
0.000719217
-5.63356e-09
0.000719217
-5.63014e-09
0.000719217
-5.54633e-09
0.000719217
-5.36619e-09
0.000719217
-5.06948e-09
0.000719217
-4.63046e-09
0.000719217
-4.012e-09
0.000719217
-3.16412e-09
0.000719217
-1.99523e-09
0.000719217
-3.92315e-10
0.000719217
1.64543e-09
0.000719217
2.13156e-09
0.000719217
6.7321e-10
0.000719217
-4.51451e-10
0.000719217
-8.13803e-10
0.000719217
-8.23102e-10
0.000719216
-6.06496e-10
0.000719216
-2.13455e-10
0.000719216
3.05957e-10
0.000719216
9.2099e-10
0.000719216
1.60901e-09
0.000719216
2.3499e-09
0.000719216
3.12575e-09
0.000719216
3.92026e-09
0.000719216
4.71827e-09
0.000719216
5.5057e-09
0.000719216
6.26956e-09
0.000719216
6.99799e-09
0.000719216
7.68031e-09
0.000719216
8.30715e-09
0.000719216
8.87054e-09
0.000719216
9.3639e-09
0.000719216
9.78218e-09
0.000719216
1.01218e-08
0.000719216
1.03805e-08
0.000719216
1.05577e-08
0.000719216
1.06538e-08
0.000719216
1.06704e-08
0.000719216
1.061e-08
0.000719216
1.04759e-08
0.000719216
1.02721e-08
0.000719216
1.00026e-08
0.000719216
9.67173e-09
0.000719216
9.28388e-09
0.000719216
8.84317e-09
0.000719216
8.35352e-09
0.000719216
7.81855e-09
0.000719216
7.24162e-09
0.000719216
6.62584e-09
0.000719216
5.97424e-09
0.000719216
5.28985e-09
0.000719216
4.5759e-09
0.000719216
3.83602e-09
0.000719216
3.07442e-09
0.000719216
2.29612e-09
0.000719215
1.50714e-09
0.000719215
7.14692e-10
0.000719215
-7.25929e-11
0.000719215
-8.44458e-10
0.000719214
-1.58875e-09
0.000719214
-2.29113e-09
0.000719214
-2.93462e-09
0.000719214
-3.49906e-09
0.000719213
-3.95962e-09
0.000719213
-4.28568e-09
0.000719213
-4.4351e-09
0.000719213
-4.35272e-09
0.000719213
-3.94176e-09
0.000719213
-3.08455e-09
0.000719213
-1.77737e-09
0.000719213
-2.00799e-09
0.000719213
-4.15555e-09
0.000719213
-5.93576e-09
0.000719213
-6.91921e-09
0.000719213
-7.51448e-09
0.000719213
-7.84729e-09
0.000719213
-7.96575e-09
0.000719213
-7.91886e-09
0.000719213
-7.73668e-09
0.000719213
-7.44172e-09
0.000719213
-7.05423e-09
0.000719213
-6.59394e-09
0.000719213
-6.07818e-09
0.000719213
-5.53182e-09
0.000719214
-4.97936e-09
-4.45062e-09
0.000702633
-3.98135e-09
0.000702633
-3.18544e-09
0.000702633
-2.6527e-09
0.000702633
-2.19581e-09
0.000702633
-1.77116e-09
0.000702633
-1.40266e-09
0.000702633
-1.0869e-09
0.000702633
-8.26442e-10
0.000702633
-6.25274e-10
0.000702633
-4.83999e-10
0.000702633
-4.02092e-10
0.000702633
-3.78036e-10
0.000702634
-4.09201e-10
0.000702634
-4.9206e-10
0.000702634
-6.22342e-10
0.000702634
-7.95178e-10
0.000702634
-1.00528e-09
0.000702634
-1.24712e-09
0.000702634
-1.51513e-09
0.000702634
-1.80386e-09
0.000702634
-2.10819e-09
0.000702634
-2.42339e-09
0.000702634
-2.74522e-09
0.000702634
-3.06982e-09
0.000702634
-3.39359e-09
0.000702634
-3.71299e-09
0.000702635
-4.02435e-09
0.000702635
-4.32371e-09
0.000702635
-4.60676e-09
0.000702635
-4.86869e-09
0.000702635
-5.10411e-09
0.000702635
-5.30691e-09
0.000702635
-5.47013e-09
0.000702635
-5.58581e-09
0.000702635
-5.64469e-09
0.000702635
-5.636e-09
0.000702635
-5.54693e-09
0.000702635
-5.36216e-09
0.000702635
-5.06261e-09
0.000702635
-4.62464e-09
0.000702635
-4.01572e-09
0.000702635
-3.19518e-09
0.000702635
-2.0965e-09
0.000702635
-6.70973e-10
0.000702636
1.0575e-09
0.000702636
1.6726e-09
0.000702636
7.34203e-10
0.000702636
-1.71289e-10
0.000702636
-5.4712e-10
0.000702635
-6.01859e-10
0.000702635
-4.23993e-10
0.000702635
-6.27655e-11
0.000702635
4.31541e-10
0.000702635
1.02599e-09
0.000702635
1.69643e-09
0.000702635
2.42197e-09
0.000702635
3.18426e-09
0.000702635
3.96668e-09
0.000702634
4.75388e-09
0.000702634
5.53164e-09
0.000702634
6.28686e-09
0.000702634
7.00756e-09
0.000702634
7.68298e-09
0.000702634
8.30367e-09
0.000702634
8.86155e-09
0.000702634
9.35002e-09
0.000702634
9.76394e-09
0.000702634
1.00997e-08
0.000702635
1.03552e-08
0.000702635
1.05296e-08
0.000702635
1.06236e-08
0.000702635
1.06389e-08
0.000702635
1.05782e-08
0.000702635
1.04449e-08
0.000702635
1.02431e-08
0.000702635
9.9772e-09
0.000702635
9.65176e-09
0.000702635
9.27127e-09
0.000702635
8.84001e-09
0.000702635
8.362e-09
0.000702635
7.84086e-09
0.000702635
7.27986e-09
0.000702635
6.68194e-09
0.000702635
6.04985e-09
0.000702634
5.38622e-09
0.000702634
4.69383e-09
0.000702634
3.97575e-09
0.000702634
3.23559e-09
0.000702634
2.47773e-09
0.000702634
1.70755e-09
0.000702633
9.31642e-10
0.000702633
1.58009e-10
0.000702633
-6.03657e-10
0.000702633
-1.34174e-09
0.000702632
-2.0424e-09
0.000702632
-2.68922e-09
0.000702632
-3.26265e-09
0.000702632
-3.73891e-09
0.000702632
-4.08916e-09
0.000702631
-4.27533e-09
0.000702631
-4.25087e-09
0.000702631
-3.94331e-09
0.000702632
-3.29833e-09
0.000702632
-2.33519e-09
0.000702633
-2.46828e-09
0.000702633
-4.12716e-09
0.000702632
-5.71822e-09
0.000702632
-6.74189e-09
0.000702632
-7.40476e-09
0.000702632
-7.79328e-09
0.000702632
-7.95496e-09
0.000702632
-7.93894e-09
0.000702632
-7.77751e-09
0.000702632
-7.49528e-09
0.000702632
-7.11389e-09
0.000702632
-6.65567e-09
0.000702632
-6.13916e-09
0.000702632
-5.59628e-09
0.000702632
-5.05236e-09
-4.63101e-09
0.000686408
-4.05854e-09
0.000686408
-3.24485e-09
0.000686408
-2.70245e-09
0.000686408
-2.23173e-09
0.000686408
-1.80286e-09
0.000686408
-1.44019e-09
0.000686408
-1.13316e-09
0.000686408
-8.81639e-10
0.000686408
-6.88723e-10
0.000686408
-5.54377e-10
0.000686408
-4.77817e-10
0.000686409
-4.57475e-10
0.000686409
-4.90756e-10
0.000686409
-5.74234e-10
0.000686409
-7.03781e-10
0.000686409
-8.74688e-10
0.000686409
-1.08182e-09
0.000686409
-1.31981e-09
0.000686409
-1.58322e-09
0.000686409
-1.86673e-09
0.000686409
-2.16536e-09
0.000686409
-2.47455e-09
0.000686409
-2.79026e-09
0.000686409
-3.10887e-09
0.000686409
-3.42694e-09
0.000686409
-3.74108e-09
0.000686409
-4.04766e-09
0.000686409
-4.34273e-09
0.000686409
-4.62188e-09
0.000686409
-4.88018e-09
0.00068641
-5.1121e-09
0.00068641
-5.31143e-09
0.00068641
-5.47114e-09
0.00068641
-5.58322e-09
0.000686409
-5.63851e-09
0.000686409
-5.62647e-09
0.000686409
-5.53475e-09
0.000686409
-5.34887e-09
0.000686409
-5.05132e-09
0.000686409
-4.62116e-09
0.000686409
-4.03134e-09
0.00068641
-3.25162e-09
0.00068641
-2.2387e-09
0.00068641
-9.88443e-10
0.000686411
4.52826e-10
0.000686411
1.12427e-09
0.000686411
6.32024e-10
0.000686411
5.28489e-12
0.000686411
-3.06066e-10
0.000686411
-3.64316e-10
0.00068641
-2.09101e-10
0.00068641
1.2472e-10
0.00068641
5.93688e-10
0.00068641
1.16575e-09
0.00068641
1.81631e-09
0.00068641
2.52405e-09
0.00068641
3.27026e-09
0.000686409
4.03808e-09
0.000686409
4.81195e-09
0.000686409
5.57753e-09
0.000686409
6.32158e-09
0.000686409
7.03204e-09
0.000686409
7.69807e-09
0.000686409
8.31014e-09
0.000686409
8.86015e-09
0.000686409
9.34142e-09
0.000686409
9.74881e-09
0.000686409
1.00787e-08
0.000686409
1.03291e-08
0.000686409
1.04992e-08
0.000686409
1.05897e-08
0.000686409
1.06025e-08
0.00068641
1.05404e-08
0.00068641
1.04073e-08
0.00068641
1.02072e-08
0.00068641
9.94479e-09
0.00068641
9.62484e-09
0.00068641
9.25197e-09
0.00068641
8.83059e-09
0.00068641
8.36474e-09
0.00068641
7.858e-09
0.00068641
7.31351e-09
0.00068641
6.73398e-09
0.00068641
6.1218e-09
0.000686409
5.47922e-09
0.000686409
4.80847e-09
0.000686409
4.11208e-09
0.000686409
3.39303e-09
0.000686409
2.65506e-09
0.000686409
1.9029e-09
0.000686408
1.14249e-09
0.000686408
3.81233e-10
0.000686408
-3.71772e-10
0.000686408
-1.10548e-09
0.000686407
-1.80665e-09
0.000686407
-2.45952e-09
0.000686407
-3.0454e-09
0.000686407
-3.54193e-09
0.000686407
-3.92263e-09
0.000686407
-4.15437e-09
0.000686407
-4.20038e-09
0.000686407
-4.01053e-09
0.000686407
-3.57412e-09
0.000686407
-2.93136e-09
0.000686408
-3.03875e-09
0.000686408
-4.28068e-09
0.000686408
-5.62041e-09
0.000686408
-6.60377e-09
0.000686408
-7.28984e-09
0.000686408
-7.71556e-09
0.000686408
-7.91367e-09
0.000686408
-7.92633e-09
0.000686408
-7.785e-09
0.000686408
-7.51527e-09
0.000686408
-7.13971e-09
0.000686408
-6.68285e-09
0.000686408
-6.16364e-09
0.000686408
-5.61961e-09
0.000686408
-5.06617e-09
-4.67927e-09
0.000670534
-4.07298e-09
0.000670534
-3.27522e-09
0.000670534
-2.73778e-09
0.000670534
-2.25822e-09
0.000670534
-1.82474e-09
0.000670534
-1.46524e-09
0.000670534
-1.16493e-09
0.000670534
-9.2141e-10
0.000670534
-7.36462e-10
0.000670534
-6.09137e-10
0.000670534
-5.3822e-10
0.000670534
-5.21969e-10
0.000670534
-5.57751e-10
0.000670534
-6.42199e-10
0.000670534
-7.71291e-10
0.000670534
-9.40454e-10
0.000670535
-1.1447e-09
0.000670535
-1.37878e-09
0.000670535
-1.63738e-09
0.000670535
-1.91532e-09
0.000670535
-2.20775e-09
0.000670535
-2.51029e-09
0.000670535
-2.81916e-09
0.000670535
-3.13099e-09
0.000670535
-3.44261e-09
0.000670535
-3.75081e-09
0.000670535
-4.05205e-09
0.000670535
-4.34238e-09
0.000670535
-4.61733e-09
0.000670535
-4.87189e-09
0.000670535
-5.10043e-09
0.000670535
-5.29663e-09
0.000670535
-5.45341e-09
0.000670535
-5.56281e-09
0.000670535
-5.61581e-09
0.000670535
-5.60215e-09
0.000670535
-5.51008e-09
0.000670535
-5.3261e-09
0.000670535
-5.03443e-09
0.000670535
-4.61708e-09
0.000670535
-4.05245e-09
0.000670535
-3.31983e-09
0.000670535
-2.39447e-09
0.000670535
-1.29806e-09
0.000670536
-8.98784e-11
0.000670536
5.88925e-10
0.000670536
4.2216e-10
0.000670536
5.82148e-11
0.000670536
-1.41544e-10
0.000670536
-1.61502e-10
0.000670536
-2.98185e-12
0.000670536
3.17739e-10
0.000670535
7.68508e-10
0.000670535
1.32148e-09
0.000670535
1.95338e-09
0.000670535
2.64339e-09
0.000670535
3.37293e-09
0.000670535
4.12509e-09
0.000670535
4.8843e-09
0.000670535
5.63613e-09
0.000670535
6.36732e-09
0.000670535
7.06575e-09
0.000670535
7.72055e-09
0.000670535
8.32215e-09
0.000670535
8.86242e-09
0.000670535
9.33468e-09
0.000670535
9.73383e-09
0.000670535
1.00563e-08
0.000670535
1.03e-08
0.000670535
1.04644e-08
0.000670535
1.05504e-08
0.000670535
1.05599e-08
0.000670535
1.04959e-08
0.000670535
1.03625e-08
0.000670535
1.01639e-08
0.000670535
9.90513e-09
0.000670535
9.59093e-09
0.000670535
9.22613e-09
0.000670535
8.8152e-09
0.000670535
8.36215e-09
0.000670535
7.8705e-09
0.000670535
7.34317e-09
0.000670535
6.7826e-09
0.000670535
6.1908e-09
0.000670535
5.56954e-09
0.000670535
4.92052e-09
0.000670535
4.24567e-09
0.000670534
3.54734e-09
0.000670534
2.82861e-09
0.000670534
2.09356e-09
0.000670534
1.3475e-09
0.000670534
5.97217e-10
0.000670533
-1.48787e-10
0.000670533
-8.80066e-10
0.000670533
-1.58399e-09
0.000670533
-2.24555e-09
0.000670533
-2.84706e-09
0.000670532
-3.36771e-09
0.000670532
-3.78362e-09
0.000670532
-4.06658e-09
0.000670532
-4.18862e-09
0.000670532
-4.11728e-09
0.000670533
-3.86668e-09
0.000670533
-3.48874e-09
0.000670534
-3.61833e-09
0.000670534
-4.56231e-09
0.000670534
-5.66437e-09
0.000670534
-6.55774e-09
0.000670534
-7.22263e-09
0.000670534
-7.65699e-09
0.000670534
-7.87457e-09
0.000670534
-7.90607e-09
0.000670534
-7.77875e-09
0.000670534
-7.51734e-09
0.000670534
-7.14432e-09
0.000670534
-6.68574e-09
0.000670534
-6.16027e-09
0.000670534
-5.60999e-09
0.000670534
-5.04155e-09
-4.66412e-09
0.000655005
-4.04431e-09
0.000655005
-3.26818e-09
0.000655005
-2.74451e-09
0.000655005
-2.26496e-09
0.000655005
-1.83144e-09
0.000655006
-1.47596e-09
0.000655006
-1.18209e-09
0.000655006
-9.46277e-10
0.000655006
-7.69161e-10
0.000655006
-6.48896e-10
0.000655006
-5.83791e-10
0.000655006
-5.71866e-10
0.000655006
-6.10404e-10
0.000655006
-6.9606e-10
0.000655006
-8.24895e-10
0.000655006
-9.92447e-10
0.000655006
-1.19385e-09
0.000655006
-1.42397e-09
0.000655006
-1.67759e-09
0.000655006
-1.94966e-09
0.000655006
-2.23545e-09
0.000655006
-2.53077e-09
0.000655006
-2.83213e-09
0.000655006
-3.13649e-09
0.000655006
-3.44098e-09
0.000655006
-3.74263e-09
0.000655006
-4.03804e-09
0.000655006
-4.32328e-09
0.000655006
-4.59386e-09
0.000655006
-4.84466e-09
0.000655006
-5.06997e-09
0.000655006
-5.26341e-09
0.000655006
-5.4179e-09
0.000655006
-5.52551e-09
0.000655006
-5.57741e-09
0.000655006
-5.56372e-09
0.000655006
-5.4733e-09
0.000655006
-5.29373e-09
0.000655006
-5.01096e-09
0.000655006
-4.60991e-09
0.000655006
-4.0739e-09
0.000655006
-3.39008e-09
0.000655006
-2.54731e-09
0.000655006
-1.57995e-09
0.000655007
-5.51477e-10
0.000655007
1.09582e-10
0.000655007
1.63702e-10
0.000655008
1.66105e-11
0.000655007
-5.88704e-11
0.000655007
-1.49902e-11
0.000655007
1.69336e-10
0.000655007
4.93179e-10
0.000655007
9.36152e-10
0.000655007
1.47637e-09
0.000655006
2.09335e-09
0.000655006
2.76771e-09
0.000655006
3.48154e-09
0.000655006
4.21829e-09
0.000655006
4.96256e-09
0.000655006
5.70002e-09
0.000655006
6.41745e-09
0.000655006
7.10277e-09
0.000655006
7.74512e-09
0.000655006
8.33496e-09
0.000655006
8.86418e-09
0.000655006
9.32614e-09
0.000655006
9.71577e-09
0.000655006
1.00296e-08
0.000655006
1.02656e-08
0.000655006
1.04235e-08
0.000655006
1.05042e-08
0.000655006
1.05098e-08
0.000655006
1.04436e-08
0.000655006
1.03097e-08
0.000655006
1.01128e-08
0.000655006
9.85786e-09
0.000655006
9.54987e-09
0.000655006
9.19373e-09
0.000655006
8.79393e-09
0.000655006
8.35445e-09
0.000655006
7.87864e-09
0.000655006
7.36919e-09
0.000655006
6.82819e-09
0.000655006
6.25724e-09
0.000655006
5.65759e-09
0.000655006
5.03037e-09
0.000655006
4.37688e-09
0.000655006
3.69883e-09
0.000655006
2.99864e-09
0.000655005
2.27974e-09
0.000655005
1.5468e-09
0.000655005
8.06026e-10
0.000655005
6.53222e-11
0.000655005
-6.65462e-10
0.000655004
-1.37433e-09
0.000655004
-2.04706e-09
0.000655004
-2.66696e-09
0.000655004
-3.21487e-09
0.000655004
-3.66937e-09
0.000655004
-4.00666e-09
0.000655004
-4.20587e-09
0.000655004
-4.24722e-09
0.000655004
-4.15649e-09
0.000655005
-3.98863e-09
0.000655005
-4.16432e-09
0.000655006
-4.91331e-09
0.000655006
-5.8215e-09
0.000655006
-6.60976e-09
0.000655006
-7.2253e-09
0.000655006
-7.64309e-09
0.000655006
-7.86112e-09
0.000655006
-7.89813e-09
0.000655006
-7.77543e-09
0.000655006
-7.51536e-09
0.000655006
-7.13928e-09
0.000655006
-6.67405e-09
0.000655006
-6.13748e-09
0.000655006
-5.57564e-09
0.000655006
-4.98803e-09
-4.61124e-09
0.000639818
-3.98418e-09
0.000639818
-3.22678e-09
0.000639818
-2.71955e-09
0.000639818
-2.24676e-09
0.000639818
-1.81862e-09
0.000639818
-1.46985e-09
0.000639818
-1.18359e-09
0.000639818
-9.56013e-10
0.000639818
-7.86991e-10
0.000639818
-6.7398e-10
0.000639818
-6.1488e-10
0.000639818
-6.0748e-10
0.000639818
-6.4897e-10
0.000639818
-7.36013e-10
0.000639819
-8.64739e-10
0.000639819
-1.03079e-09
0.000639819
-1.22938e-09
0.000639819
-1.45551e-09
0.000639819
-1.70402e-09
0.000639819
-1.96996e-09
0.000639819
-2.24871e-09
0.000639819
-2.53628e-09
0.000639819
-2.82951e-09
0.000639819
-3.12573e-09
0.000639819
-3.42248e-09
0.000639819
-3.71706e-09
0.000639819
-4.00624e-09
0.000639819
-4.28614e-09
0.000639819
-4.55222e-09
0.000639818
-4.79932e-09
0.000639818
-5.02164e-09
0.000639818
-5.21276e-09
0.000639818
-5.3656e-09
0.000639818
-5.47232e-09
0.000639818
-5.52429e-09
0.000639818
-5.51201e-09
0.000639818
-5.42502e-09
0.000639818
-5.25191e-09
0.000639818
-4.98036e-09
0.000639818
-4.59788e-09
0.000639818
-4.09207e-09
0.000639818
-3.45606e-09
0.000639818
-2.68815e-09
0.000639819
-1.82726e-09
0.000639819
-9.35246e-10
0.000639819
-3.01781e-10
0.00063982
-1.02866e-10
0.00063982
-8.32002e-11
0.00063982
-4.27793e-11
0.00063982
7.40664e-11
0.000639819
2.98061e-10
0.000639819
6.38031e-10
0.000639819
1.08323e-09
0.000639819
1.61779e-09
0.000639819
2.22469e-09
0.000639819
2.88656e-09
0.000639819
3.58669e-09
0.000639819
4.30919e-09
0.000639818
5.03906e-09
0.000639818
5.76224e-09
0.000639818
6.46568e-09
0.000639818
7.13742e-09
0.000639818
7.76668e-09
0.000639818
8.34401e-09
0.000639818
8.86136e-09
0.000639818
9.31218e-09
0.000639818
9.69149e-09
0.000639818
9.99592e-09
0.000639818
1.02237e-08
0.000639818
1.03744e-08
0.000639819
1.04493e-08
0.000639819
1.04508e-08
0.000639819
1.03824e-08
0.000639819
1.02482e-08
0.000639819
1.00532e-08
0.000639819
9.80258e-09
0.000639819
9.50141e-09
0.000639819
9.15465e-09
0.000639819
8.76679e-09
0.000639819
8.34171e-09
0.000639819
7.88255e-09
0.000639819
7.39173e-09
0.000639819
6.87095e-09
0.000639819
6.32132e-09
0.000639819
5.74355e-09
0.000639819
5.13818e-09
0.000639819
4.50585e-09
0.000639818
3.8476e-09
0.000639818
3.16521e-09
0.000639818
2.46145e-09
0.000639818
1.7404e-09
0.000639818
1.00766e-09
0.000639817
2.70578e-10
0.000639817
-4.61579e-10
0.000639817
-1.17745e-09
0.000639817
-1.86355e-09
0.000639817
-2.50423e-09
0.000639817
-3.08182e-09
0.000639816
-3.57714e-09
0.000639816
-3.97008e-09
0.000639816
-4.24499e-09
0.000639817
-4.39053e-09
0.000639817
-4.43603e-09
0.000639817
-4.43376e-09
0.000639818
-4.66411e-09
0.000639818
-5.2926e-09
0.000639818
-6.05496e-09
0.000639819
-6.74408e-09
0.000639819
-7.29854e-09
0.000639819
-7.68313e-09
0.000639819
-7.8857e-09
0.000639819
-7.91517e-09
0.000639819
-7.78676e-09
0.000639819
-7.51977e-09
0.000639819
-7.13372e-09
0.000639819
-6.65575e-09
0.000639819
-6.10239e-09
0.000639819
-5.52341e-09
0.000639819
-4.91239e-09
-4.532e-09
0.000624967
-3.89866e-09
0.000624967
-3.15568e-09
0.000624967
-2.66444e-09
0.000624967
-2.20232e-09
0.000624967
-1.78401e-09
0.000624967
-1.44502e-09
0.000624967
-1.16827e-09
0.000624967
-9.50066e-10
0.000624967
-7.89797e-10
0.000624967
-6.8446e-10
0.000624967
-6.31668e-10
0.000624967
-6.29033e-10
0.000624967
-6.73675e-10
0.000624967
-7.62274e-10
0.000624967
-8.9103e-10
0.000624967
-1.05567e-09
0.000624967
-1.25152e-09
0.000624967
-1.47364e-09
0.000624967
-1.71695e-09
0.000624967
-1.97654e-09
0.000624967
-2.2479e-09
0.000624967
-2.52723e-09
0.000624967
-2.81173e-09
0.000624967
-3.09921e-09
0.000624967
-3.38764e-09
0.000624967
-3.67469e-09
0.000624967
-3.95732e-09
0.000624967
-4.23169e-09
0.000624967
-4.49327e-09
0.000624967
-4.73681e-09
0.000624967
-4.95647e-09
0.000624967
-5.14578e-09
0.000624967
-5.29766e-09
0.000624967
-5.4044e-09
0.000624966
-5.45758e-09
0.000624966
-5.44808e-09
0.000624966
-5.36606e-09
0.000624966
-5.20114e-09
0.000624966
-4.94254e-09
0.000624966
-4.58006e-09
0.000624966
-4.10476e-09
0.000624966
-3.5142e-09
0.000624966
-2.81278e-09
0.000624967
-2.03947e-09
0.000624967
-1.25135e-09
0.000624967
-6.47434e-10
0.000624968
-3.55293e-10
0.000624968
-2.12321e-10
0.000624968
-7.33581e-11
0.000624968
1.14408e-10
0.000624968
3.83521e-10
0.000624967
7.47598e-10
0.000624967
1.20259e-09
0.000624967
1.73769e-09
0.000624967
2.33921e-09
0.000624967
2.99205e-09
0.000624967
3.68089e-09
0.000624967
4.39078e-09
0.000624967
5.1073e-09
0.000624967
5.81681e-09
0.000624967
6.50652e-09
0.000624967
7.16468e-09
0.000624967
7.78068e-09
0.000624967
8.34519e-09
0.000624967
8.85028e-09
0.000624967
9.28955e-09
0.000624967
9.65813e-09
0.000624967
9.95278e-09
0.000624967
1.01719e-08
0.000624967
1.03153e-08
0.000624967
1.03845e-08
0.000624967
1.03819e-08
0.000624967
1.03113e-08
0.000624967
1.01772e-08
0.000624967
9.98466e-09
0.000624967
9.73894e-09
0.000624967
9.44532e-09
0.000624967
9.10878e-09
0.000624967
8.73373e-09
0.000624967
8.32393e-09
0.000624967
7.88227e-09
0.000624967
7.41084e-09
0.000624967
6.9109e-09
0.000624967
6.38306e-09
0.000624967
5.82743e-09
0.000624967
5.24391e-09
0.000624967
4.6325e-09
0.000624967
3.99357e-09
0.000624967
3.32822e-09
0.000624967
2.63861e-09
0.000624966
1.92822e-09
0.000624966
1.20208e-09
0.000624966
4.6701e-10
0.000624966
-2.68271e-10
0.000624966
-9.92996e-10
0.000624965
-1.69443e-09
0.000624965
-2.35783e-09
0.000624965
-2.96691e-09
0.000624965
-3.50439e-09
0.000624965
-3.95306e-09
0.000624965
-4.30085e-09
0.000624965
-4.5415e-09
0.000624966
-4.70336e-09
0.000624966
-4.83291e-09
0.000624966
-5.1186e-09
0.000624967
-5.67653e-09
0.000624967
-6.33447e-09
0.000624967
-6.93946e-09
0.000624967
-7.4323e-09
0.000624967
-7.77547e-09
0.000624968
-7.95165e-09
0.000624968
-7.96289e-09
0.000624968
-7.81927e-09
0.000624968
-7.53709e-09
0.000624968
-7.13378e-09
0.000624968
-6.63648e-09
0.000624968
-6.06018e-09
0.000624967
-5.45834e-09
0.000624967
-4.81918e-09
-4.43152e-09
0.000610447
-3.79036e-09
0.000610446
-3.05833e-09
0.000610446
-2.58176e-09
0.000610446
-2.13226e-09
0.000610446
-1.72694e-09
0.000610446
-1.40049e-09
0.000610446
-1.13531e-09
0.000610446
-9.27895e-10
0.000610446
-7.77314e-10
0.000610446
-6.80273e-10
0.000610446
-6.34221e-10
0.000610446
-6.36665e-10
0.000610446
-6.84702e-10
0.000610446
-7.75054e-10
0.000610446
-9.03997e-10
0.000610446
-1.06736e-09
0.000610446
-1.26055e-09
0.000610446
-1.47869e-09
0.000610446
-1.71675e-09
0.000610446
-1.96985e-09
0.000610446
-2.23351e-09
0.000610446
-2.50413e-09
0.000610446
-2.77934e-09
0.000610446
-3.05749e-09
0.000610446
-3.33707e-09
0.000610446
-3.61619e-09
0.000610446
-3.89201e-09
0.000610446
-4.16078e-09
0.000610446
-4.41793e-09
0.000610446
-4.65817e-09
0.000610446
-4.87559e-09
0.000610446
-5.06369e-09
0.000610445
-5.21541e-09
0.000610445
-5.32313e-09
0.000610445
-5.37865e-09
0.000610445
-5.37321e-09
0.000610445
-5.29759e-09
0.000610445
-5.1423e-09
0.000610445
-4.89795e-09
0.000610445
-4.55627e-09
0.000610445
-4.11107e-09
0.000610445
-3.56297e-09
0.000610445
-2.92013e-09
0.000610445
-2.2192e-09
0.000610446
-1.51114e-09
0.000610446
-9.35295e-10
0.000610446
-5.83874e-10
0.000610446
-3.51711e-10
0.000610446
-1.33326e-10
0.000610446
1.17445e-10
0.000610446
4.31054e-10
0.000610446
8.22525e-10
0.000610446
1.29186e-09
0.000610446
1.83194e-09
0.000610446
2.43191e-09
0.000610446
3.07878e-09
0.000610446
3.7587e-09
0.000610446
4.45774e-09
0.000610446
5.16219e-09
0.000610446
5.85889e-09
0.000610446
6.53545e-09
0.000610446
7.18037e-09
0.000610446
7.78328e-09
0.000610446
8.33501e-09
0.000610446
8.82783e-09
0.000610446
9.25547e-09
0.000610446
9.61324e-09
0.000610446
9.89808e-09
0.000610446
1.01085e-08
0.000610446
1.02448e-08
0.000610446
1.03083e-08
0.000610446
1.03019e-08
0.000610446
1.02297e-08
0.000610446
1.00962e-08
0.000610446
9.90669e-09
0.000610446
9.66666e-09
0.000610446
9.38145e-09
0.000610446
9.05601e-09
0.000610446
8.69471e-09
0.000610446
8.30109e-09
0.000610446
7.87778e-09
0.000610446
7.42649e-09
0.000610446
6.94801e-09
0.000610446
6.44237e-09
0.000610446
5.9091e-09
0.000610446
5.34743e-09
0.000610446
4.75668e-09
0.000610446
4.13655e-09
0.000610446
3.48749e-09
0.000610446
2.81104e-09
0.000610445
2.11011e-09
0.000610445
1.38922e-09
0.000610445
6.54666e-10
0.000610445
-8.53386e-11
0.000610445
-8.20572e-10
0.000610445
-1.53898e-09
0.000610444
-2.22665e-09
0.000610444
-2.86853e-09
0.000610444
-3.44881e-09
0.000610444
-3.95252e-09
0.000610444
-4.36976e-09
0.000610444
-4.69689e-09
0.000610445
-4.95894e-09
0.000610445
-5.19536e-09
0.000610446
-5.53364e-09
0.000610446
-6.05333e-09
0.000610446
-6.63896e-09
0.000610446
-7.17664e-09
0.000610447
-7.6132e-09
0.000610447
-7.9128e-09
0.000610447
-8.05634e-09
0.000610447
-8.04165e-09
0.000610447
-7.87502e-09
0.000610447
-7.57022e-09
0.000610447
-7.14267e-09
0.000610447
-6.61949e-09
0.000610447
-6.01401e-09
0.000610447
-5.38351e-09
0.000610447
-4.71103e-09
-4.31185e-09
0.000596251
-3.65982e-09
0.000596251
-2.93657e-09
0.000596251
-2.47359e-09
0.00059625
-2.03779e-09
0.00059625
-1.64766e-09
0.00059625
-1.33597e-09
0.00059625
-1.08428e-09
0.00059625
-8.89148e-10
0.00059625
-7.49324e-10
0.00059625
-6.61336e-10
0.00059625
-6.22568e-10
0.00059625
-6.3049e-10
0.00059625
-6.82227e-10
0.00059625
-7.74574e-10
0.00059625
-9.03905e-10
0.00059625
-1.06615e-09
0.00059625
-1.25682e-09
0.00059625
-1.47108e-09
0.00059625
-1.70391e-09
0.00059625
-1.95042e-09
0.00059625
-2.20613e-09
0.00059625
-2.4676e-09
0.00059625
-2.73298e-09
0.00059625
-3.00121e-09
0.00059625
-3.27145e-09
0.00059625
-3.54229e-09
0.00059625
-3.81115e-09
0.00059625
-4.07434e-09
0.00059625
-4.32728e-09
0.000596249
-4.5646e-09
0.000596249
-4.78032e-09
0.000596249
-4.96793e-09
0.000596249
-5.12037e-09
0.000596249
-5.23011e-09
0.000596249
-5.28913e-09
0.000596249
-5.28902e-09
0.000596249
-5.22109e-09
0.000596249
-5.07667e-09
0.000596249
-4.84756e-09
0.000596249
-4.52708e-09
0.000596249
-4.11113e-09
0.000596249
-3.60239e-09
0.000596249
-3.01107e-09
0.000596249
-2.37049e-09
0.000596249
-1.72525e-09
0.000596249
-1.17488e-09
0.00059625
-7.86331e-10
0.00059625
-4.90493e-10
0.00059625
-2.10173e-10
0.00059625
9.35329e-11
0.00059625
4.4747e-10
0.00059625
8.66137e-10
0.00059625
1.35162e-09
0.00059625
1.89924e-09
0.00059625
2.50029e-09
0.00059625
3.14355e-09
0.00059625
3.81655e-09
0.000596249
4.50635e-09
0.000596249
5.19999e-09
0.000596249
5.88488e-09
0.000596249
6.54902e-09
0.000596249
7.18126e-09
0.000596249
7.77148e-09
0.000596249
8.31075e-09
0.000596249
8.79153e-09
0.000596249
9.20775e-09
0.00059625
9.55491e-09
0.00059625
9.83016e-09
0.00059625
1.00323e-08
0.00059625
1.01616e-08
0.00059625
1.02199e-08
0.00059625
1.02103e-08
0.00059625
1.01369e-08
0.00059625
1.00047e-08
0.00059625
9.81909e-09
0.00059625
9.58562e-09
0.00059625
9.30972e-09
0.00059625
8.99634e-09
0.00059625
8.64971e-09
0.000596251
8.27318e-09
0.000596251
7.86906e-09
0.000596251
7.43862e-09
0.00059625
6.98215e-09
0.00059625
6.49911e-09
0.00059625
5.98837e-09
0.00059625
5.44851e-09
0.00059625
4.87813e-09
0.00059625
4.27627e-09
0.00059625
3.64276e-09
0.00059625
2.97853e-09
0.000596249
2.28595e-09
0.000596249
1.56903e-09
0.000596249
8.33627e-10
0.000596249
8.74771e-11
0.000596249
-6.59686e-10
0.000596249
-1.39643e-09
0.000596249
-2.10955e-09
0.000596248
-2.78506e-09
0.000596248
-3.40828e-09
0.000596248
-3.96586e-09
0.000596249
-4.449e-09
0.000596249
-4.85487e-09
0.000596249
-5.20416e-09
0.000596249
-5.52913e-09
0.00059625
-5.91619e-09
0.00059625
-6.41818e-09
0.00059625
-6.95504e-09
0.000596251
-7.4406e-09
0.000596251
-7.82841e-09
0.000596251
-8.08584e-09
0.000596251
-8.19399e-09
0.000596251
-8.1484e-09
0.000596251
-7.95281e-09
0.000596251
-7.61914e-09
0.000596251
-7.16109e-09
0.000596251
-6.60587e-09
0.000596251
-5.96515e-09
0.000596251
-5.30025e-09
0.000596251
-4.58898e-09
-4.17326e-09
0.000582374
-3.50626e-09
0.000582374
-2.79089e-09
0.000582374
-2.34114e-09
0.000582374
-1.91996e-09
0.000582374
-1.54674e-09
0.000582374
-1.25164e-09
0.000582374
-1.01515e-09
0.000582374
-8.3372e-10
0.000582374
-7.05755e-10
0.000582374
-6.27649e-10
0.000582374
-5.96785e-10
0.000582374
-6.10656e-10
0.000582374
-6.66461e-10
0.000582373
-7.61101e-10
0.000582373
-8.91074e-10
0.000582373
-1.05243e-09
0.000582373
-1.24076e-09
0.000582373
-1.45131e-09
0.000582373
-1.679e-09
0.000582373
-1.9189e-09
0.000582373
-2.16648e-09
0.000582373
-2.41839e-09
0.000582373
-2.67338e-09
0.000582373
-2.93113e-09
0.000582373
-3.19155e-09
0.000582373
-3.45384e-09
0.000582373
-3.71568e-09
0.000582373
-3.97343e-09
0.000582373
-4.2225e-09
0.000582373
-4.45743e-09
0.000582372
-4.67218e-09
0.000582372
-4.86017e-09
0.000582372
-5.01433e-09
0.000582372
-5.1272e-09
0.000582372
-5.19093e-09
0.000582372
-5.19739e-09
0.000582372
-5.13837e-09
0.000582372
-5.00592e-09
0.000582372
-4.7928e-09
0.000582372
-4.49363e-09
0.000582372
-4.10588e-09
0.000582372
-3.63352e-09
0.000582372
-3.08766e-09
0.000582372
-2.49801e-09
0.000582372
-1.90309e-09
0.000582372
-1.37552e-09
0.000582373
-9.64363e-10
0.000582373
-6.23512e-10
0.000582373
-2.95936e-10
0.000582373
5.06139e-11
0.000582373
4.39102e-10
0.000582373
8.82601e-10
0.000582373
1.38401e-09
0.000582373
1.94009e-09
0.000582373
2.54365e-09
0.000582373
3.18486e-09
0.000582373
3.85241e-09
0.000582373
4.53429e-09
0.000582373
5.21825e-09
0.000582373
5.89227e-09
0.000582373
6.54479e-09
0.000582373
7.16501e-09
0.000582373
7.7431e-09
0.000582373
8.2704e-09
0.000582373
8.73959e-09
0.000582373
9.14481e-09
0.000582373
9.48179e-09
0.000582373
9.74789e-09
0.000582373
9.94212e-09
0.000582373
1.00651e-08
0.000582373
1.01188e-08
0.000582373
1.01065e-08
0.000582373
1.00328e-08
0.000582373
9.90271e-09
0.000582374
9.72182e-09
0.000582374
9.49583e-09
0.000582374
9.23019e-09
0.000582374
8.92981e-09
0.000582374
8.5988e-09
0.000582374
8.24023e-09
0.000582374
7.85607e-09
0.000582374
7.44714e-09
0.000582374
7.0132e-09
0.000582374
6.55308e-09
0.000582374
6.065e-09
0.000582374
5.54684e-09
0.000582374
4.99654e-09
0.000582373
4.41245e-09
0.000582373
3.79377e-09
0.000582373
3.14086e-09
0.000582373
2.45558e-09
0.000582373
1.74148e-09
0.000582373
1.00402e-09
0.000582372
2.50495e-10
0.000582372
-5.09778e-10
0.000582372
-1.26593e-09
0.000582372
-2.00534e-09
0.000582372
-2.71495e-09
0.000582372
-3.38088e-09
0.000582372
-3.99091e-09
0.000582372
-4.53651e-09
0.000582372
-5.01436e-09
0.000582372
-5.44055e-09
0.000582373
-5.84059e-09
0.000582373
-6.27263e-09
0.000582373
-6.76986e-09
0.000582374
-7.27466e-09
0.000582374
-7.72051e-09
0.000582374
-8.06714e-09
0.000582374
-8.28543e-09
0.000582375
-8.35759e-09
0.000582375
-8.27817e-09
0.000582375
-8.04932e-09
0.000582375
-7.68178e-09
0.000582375
-7.18781e-09
0.000582375
-6.59497e-09
0.000582375
-5.91332e-09
0.000582375
-5.20846e-09
0.000582375
-4.45281e-09
-4.01486e-09
0.000568811
-3.32813e-09
0.000568811
-2.62087e-09
0.000568811