/*--------------------------------*- C++ -*----------------------------------*\
  =========                 |
  \\      /  F ield         | OpenFOAM: The Open Source CFD Toolbox
   \\    /   O peration     | Website:  https://openfoam.org
    \\  /    A nd           | Version:  7
     \\/     M anipulation  |
\*---------------------------------------------------------------------------*/
FoamFile
{
    version     2.0;
    format      ascii;
    class       volScalarField;
    location    "4000";
    object      nut;
}
// * * * * * * * * * * * * * * * * * * * * * * * * * * * * * * * * * * * * * //

dimensions      [0 2 -1 0 0 0 0];

internalField   nonuniform List<scalar> 
3963
(
0.00133191
0.00133219
0.00133225
0.00133225
0.00133224
0.00133224
0.00133223
0.00133222
0.00133221
0.0013322
0.00133219
0.00133217
0.00133216
0.00133214
0.00133213
0.00133211
0.00133209
0.00133207
0.00133205
0.00133203
0.00133201
0.00133117
0.00133107
0.00133097
0.00133091
0.00133087
0.00133084
0.00133082
0.0013308
0.00133078
0.00133076
0.00133074
0.00133072
0.0013307
0.00133068
0.00133068
0.00133059
0.00127522
0.0012755
0.00127555
0.00127556
0.00127555
0.00127554
0.00127553
0.00127552
0.00127551
0.00127549
0.00127548
0.00127546
0.00127545
0.00127543
0.00127541
0.00127539
0.00127537
0.00127535
0.00127533
0.00127531
0.00127523
0.00127614
0.00127648
0.00127593
0.00127583
0.00127573
0.00127569
0.00127522
0.00127495
0.00127478
0.00127466
0.00127457
0.00127451
0.00127445
0.00127441
0.00127436
0.00127433
0.00127429
0.00127426
0.00127423
0.0012742
0.00127418
0.00127408
0.00122083
0.00122107
0.00122112
0.00122113
0.00122113
0.00122111
0.0012211
0.00122109
0.00122107
0.00122106
0.00122104
0.00122102
0.00122101
0.00122099
0.00122097
0.00122095
0.00122093
0.00122091
0.00122089
0.00122087
0.0012208
0.00122115
0.00122139
0.00122241
0.0012228
0.00122291
0.00122295
0.00122297
0.00122299
0.001223
0.001223
0.001223
0.001223
0.00122299
0.00122298
0.00122298
0.00122297
0.00122296
0.00122294
0.00122293
0.00122292
0.00122291
0.00122289
0.00122288
0.00122286
0.00122285
0.00122283
0.00122282
0.00122281
0.00122279
0.00122278
0.00122276
0.00122275
0.00122273
0.00122272
0.0012227
0.00122269
0.00122268
0.00122266
0.00122265
0.00122264
0.00122262
0.00122261
0.0012226
0.00122258
0.00122257
0.00122256
0.00122255
0.00122254
0.00122252
0.00122251
0.0012225
0.00122249
0.00122248
0.00122247
0.00122246
0.00122245
0.00122243
0.00122242
0.00122241
0.0012224
0.00122239
0.00122238
0.00122237
0.00122236
0.00122235
0.00122234
0.00122233
0.00122232
0.00122231
0.0012223
0.00122229
0.00122228
0.00122227
0.00122226
0.00122225
0.00122224
0.00122223
0.00122222
0.00122223
0.00122182
0.00122159
0.00122144
0.00122137
0.00122113
0.0012209
0.00122071
0.00122057
0.00122046
0.00122037
0.00122029
0.00122023
0.00122017
0.00122012
0.00122007
0.00122003
0.00121999
0.00121995
0.00121993
0.00121982
0.00116867
0.00116888
0.00116892
0.00116893
0.00116892
0.00116891
0.0011689
0.00116888
0.00116886
0.00116885
0.00116883
0.00116881
0.00116879
0.00116878
0.00116876
0.00116874
0.00116872
0.0011687
0.00116867
0.00116865
0.0011686
0.00116872
0.00116886
0.00116934
0.00116974
0.00116996
0.00117008
0.00117015
0.0011702
0.00117024
0.00117027
0.00117029
0.0011703
0.00117031
0.00117032
0.00117032
0.00117032
0.00117032
0.00117032
0.00117032
0.00117031
0.00117031
0.0011703
0.00117029
0.00117028
0.00117027
0.00117026
0.00117025
0.00117024
0.00117023
0.00117022
0.00117021
0.0011702
0.00117019
0.00117018
0.00117017
0.00117016
0.00117015
0.00117014
0.00117013
0.00117012
0.00117011
0.0011701
0.00117009
0.00117008
0.00117007
0.00117006
0.00117005
0.00117004
0.00117003
0.00117002
0.00117001
0.00117
0.00116999
0.00116998
0.00116998
0.00116997
0.00116996
0.00116995
0.00116994
0.00116993
0.00116992
0.00116991
0.0011699
0.00116989
0.00116989
0.00116988
0.00116987
0.00116986
0.00116985
0.00116984
0.00116983
0.00116982
0.00116982
0.00116981
0.0011698
0.00116979
0.00116978
0.00116977
0.00116978
0.00116961
0.00116944
0.0011693
0.0011692
0.00116906
0.00116889
0.00116873
0.0011686
0.00116848
0.00116838
0.0011683
0.00116822
0.00116816
0.0011681
0.00116805
0.001168
0.00116795
0.00116791
0.00116788
0.00116777
0.00111869
0.00111886
0.0011189
0.0011189
0.00111889
0.00111888
0.00111887
0.00111885
0.00111883
0.00111882
0.0011188
0.00111878
0.00111876
0.00111874
0.00111873
0.00111871
0.00111869
0.00111866
0.00111864
0.00111862
0.00111859
0.00111861
0.00111867
0.00111889
0.00111916
0.00111937
0.00111952
0.00111962
0.0011197
0.00111975
0.00111979
0.00111983
0.00111985
0.00111987
0.00111989
0.0011199
0.00111991
0.00111992
0.00111993
0.00111993
0.00111993
0.00111993
0.00111993
0.00111992
0.00111992
0.00111992
0.00111991
0.00111991
0.0011199
0.00111989
0.00111989
0.00111988
0.00111987
0.00111986
0.00111986
0.00111985
0.00111984
0.00111983
0.00111983
0.00111982
0.00111981
0.0011198
0.00111979
0.00111979
0.00111978
0.00111977
0.00111976
0.00111976
0.00111975
0.00111974
0.00111973
0.00111973
0.00111972
0.00111971
0.0011197
0.0011197
0.00111969
0.00111968
0.00111967
0.00111967
0.00111966
0.00111965
0.00111965
0.00111964
0.00111963
0.00111962
0.00111962
0.00111961
0.0011196
0.00111959
0.00111959
0.00111958
0.00111957
0.00111956
0.00111955
0.00111955
0.00111954
0.00111953
0.00111952
0.00111953
0.00111946
0.00111936
0.00111925
0.00111916
0.00111906
0.00111895
0.00111882
0.00111871
0.0011186
0.00111851
0.00111842
0.00111835
0.00111828
0.00111822
0.00111816
0.00111811
0.00111806
0.00111801
0.00111798
0.00111787
0.00107081
0.00107096
0.00107099
0.00107099
0.00107098
0.00107097
0.00107095
0.00107094
0.00107092
0.00107091
0.00107089
0.00107087
0.00107085
0.00107083
0.00107082
0.0010708
0.00107078
0.00107076
0.00107074
0.00107072
0.00107069
0.00107068
0.0010707
0.00107079
0.00107094
0.0010711
0.00107123
0.00107133
0.00107141
0.00107147
0.00107152
0.00107156
0.0010716
0.00107163
0.00107165
0.00107167
0.00107168
0.00107169
0.0010717
0.00107171
0.00107171
0.00107172
0.00107172
0.00107172
0.00107172
0.00107172
0.00107172
0.00107172
0.00107171
0.00107171
0.00107171
0.0010717
0.0010717
0.00107169
0.00107169
0.00107168
0.00107168
0.00107167
0.00107167
0.00107166
0.00107165
0.00107165
0.00107164
0.00107164
0.00107163
0.00107162
0.00107162
0.00107161
0.00107161
0.0010716
0.0010716
0.00107159
0.00107158
0.00107158
0.00107157
0.00107157
0.00107156
0.00107155
0.00107155
0.00107154
0.00107154
0.00107153
0.00107152
0.00107152
0.00107151
0.00107151
0.0010715
0.00107149
0.00107149
0.00107148
0.00107147
0.00107147
0.00107146
0.00107145
0.00107145
0.00107144
0.00107143
0.00107143
0.00107142
0.00107142
0.00107139
0.00107134
0.00107127
0.0010712
0.00107113
0.00107104
0.00107095
0.00107086
0.00107077
0.00107069
0.00107061
0.00107054
0.00107048
0.00107042
0.00107036
0.00107031
0.00107027
0.00107022
0.00107019
0.00107008
0.00102498
0.00102511
0.00102514
0.00102513
0.00102512
0.00102511
0.0010251
0.00102508
0.00102507
0.00102505
0.00102503
0.00102502
0.001025
0.00102498
0.00102496
0.00102495
0.00102493
0.00102491
0.00102489
0.00102487
0.00102485
0.00102483
0.00102482
0.00102486
0.00102493
0.00102503
0.00102513
0.00102521
0.00102528
0.00102534
0.00102539
0.00102543
0.00102547
0.0010255
0.00102552
0.00102554
0.00102556
0.00102558
0.00102559
0.0010256
0.00102561
0.00102561
0.00102562
0.00102562
0.00102562
0.00102562
0.00102562
0.00102562
0.00102562
0.00102562
0.00102562
0.00102562
0.00102562
0.00102561
0.00102561
0.00102561
0.0010256
0.0010256
0.0010256
0.00102559
0.00102559
0.00102558
0.00102558
0.00102558
0.00102557
0.00102557
0.00102556
0.00102556
0.00102555
0.00102555
0.00102554
0.00102554
0.00102554
0.00102553
0.00102553
0.00102552
0.00102552
0.00102551
0.00102551
0.0010255
0.0010255
0.00102549
0.00102549
0.00102548
0.00102548
0.00102547
0.00102547
0.00102546
0.00102546
0.00102545
0.00102545
0.00102544
0.00102543
0.00102543
0.00102542
0.00102542
0.00102541
0.00102541
0.0010254
0.0010254
0.00102539
0.00102536
0.00102531
0.00102527
0.00102522
0.00102516
0.00102509
0.00102502
0.00102495
0.00102488
0.00102482
0.00102476
0.0010247
0.00102464
0.00102459
0.00102454
0.0010245
0.00102445
0.00102442
0.00102432
0.000981121
0.000981244
0.000981263
0.000981258
0.000981247
0.000981235
0.000981222
0.000981207
0.000981193
0.000981178
0.000981162
0.000981146
0.00098113
0.000981114
0.000981098
0.000981081
0.000981064
0.000981046
0.000981027
0.000981009
0.000980988
0.00098097
0.000980957
0.000980961
0.000980991
0.000981043
0.000981104
0.000981166
0.000981223
0.000981273
0.000981317
0.000981355
0.000981388
0.000981416
0.000981441
0.000981462
0.00098148
0.000981496
0.000981509
0.00098152
0.00098153
0.000981537
0.000981543
0.000981548
0.000981552
0.000981555
0.000981557
0.000981559
0.000981559
0.00098156
0.000981559
0.000981559
0.000981558
0.000981556
0.000981555
0.000981553
0.000981551
0.000981549
0.000981546
0.000981543
0.000981541
0.000981538
0.000981535
0.000981532
0.000981529
0.000981526
0.000981523
0.00098152
0.000981516
0.000981513
0.00098151
0.000981506
0.000981503
0.0009815
0.000981496
0.000981492
0.000981489
0.000981485
0.000981481
0.000981477
0.000981473
0.000981469
0.000981465
0.000981461
0.000981456
0.000981452
0.000981448
0.000981443
0.000981439
0.000981434
0.00098143
0.000981425
0.000981421
0.000981416
0.000981411
0.000981406
0.000981401
0.000981396
0.000981391
0.000981388
0.000981381
0.000981367
0.000981342
0.000981311
0.000981276
0.000981235
0.00098119
0.000981139
0.000981086
0.000981032
0.000980978
0.000980926
0.000980876
0.000980829
0.000980783
0.00098074
0.000980699
0.000980657
0.00098063
0.000980531
0.000939169
0.000939279
0.000939296
0.000939291
0.000939281
0.00093927
0.000939257
0.000939244
0.000939231
0.000939217
0.000939202
0.000939188
0.000939173
0.000939159
0.000939143
0.000939128
0.000939112
0.000939096
0.000939079
0.000939061
0.000939043
0.000939025
0.000939009
0.000939001
0.000939008
0.00093903
0.000939064
0.000939103
0.000939143
0.000939181
0.000939216
0.000939248
0.000939276
0.000939301
0.000939323
0.000939343
0.00093936
0.000939375
0.000939388
0.000939399
0.000939408
0.000939416
0.000939423
0.000939429
0.000939433
0.000939437
0.00093944
0.000939442
0.000939444
0.000939445
0.000939446
0.000939446
0.000939446
0.000939446
0.000939445
0.000939444
0.000939443
0.000939442
0.000939441
0.000939439
0.000939437
0.000939435
0.000939434
0.000939431
0.000939429
0.000939427
0.000939425
0.000939423
0.000939421
0.000939418
0.000939416
0.000939413
0.000939411
0.000939408
0.000939405
0.000939403
0.0009394
0.000939397
0.000939394
0.000939391
0.000939387
0.000939384
0.000939381
0.000939377
0.000939374
0.00093937
0.000939367
0.000939363
0.000939359
0.000939356
0.000939352
0.000939348
0.000939344
0.00093934
0.000939336
0.000939332
0.000939328
0.000939324
0.000939319
0.000939316
0.000939311
0.000939303
0.000939289
0.00093927
0.000939246
0.000939219
0.000939187
0.000939151
0.000939112
0.000939071
0.000939029
0.000938987
0.000938946
0.000938906
0.000938867
0.000938829
0.000938793
0.000938756
0.000938732
0.00093864
0.000899046
0.000899146
0.000899161
0.000899157
0.000899148
0.000899138
0.000899127
0.000899115
0.000899103
0.00089909
0.000899078
0.000899065
0.000899051
0.000899038
0.000899024
0.00089901
0.000898996
0.000898981
0.000898965
0.00089895
0.000898933
0.000898917
0.000898901
0.000898888
0.000898883
0.000898888
0.000898903
0.000898924
0.000898949
0.000898975
0.000899
0.000899024
0.000899047
0.000899067
0.000899085
0.000899102
0.000899117
0.00089913
0.000899142
0.000899152
0.000899161
0.000899168
0.000899175
0.00089918
0.000899185
0.000899189
0.000899192
0.000899195
0.000899197
0.000899198
0.0008992
0.000899201
0.000899201
0.000899202
0.000899202
0.000899202
0.000899201
0.000899201
0.0008992
0.000899199
0.000899198
0.000899197
0.000899196
0.000899195
0.000899193
0.000899192
0.000899191
0.000899189
0.000899187
0.000899186
0.000899184
0.000899182
0.00089918
0.000899178
0.000899176
0.000899174
0.000899172
0.00089917
0.000899168
0.000899165
0.000899163
0.00089916
0.000899157
0.000899154
0.000899152
0.000899149
0.000899146
0.000899143
0.00089914
0.000899137
0.000899133
0.00089913
0.000899127
0.000899124
0.00089912
0.000899117
0.000899113
0.00089911
0.000899106
0.000899103
0.000899099
0.000899094
0.000899086
0.000899074
0.000899059
0.00089904
0.000899019
0.000898994
0.000898966
0.000898935
0.000898904
0.000898871
0.000898838
0.000898805
0.000898773
0.000898741
0.00089871
0.000898678
0.000898658
0.000898574
0.000860678
0.000860767
0.000860782
0.000860779
0.000860772
0.000860763
0.000860754
0.000860743
0.000860733
0.000860722
0.00086071
0.000860699
0.000860687
0.000860675
0.000860663
0.00086065
0.000860637
0.000860624
0.00086061
0.000860596
0.000860581
0.000860566
0.000860551
0.000860538
0.000860528
0.000860524
0.000860526
0.000860535
0.000860548
0.000860563
0.00086058
0.000860596
0.000860612
0.000860627
0.000860642
0.000860655
0.000860667
0.000860678
0.000860687
0.000860696
0.000860704
0.00086071
0.000860716
0.000860721
0.000860725
0.000860729
0.000860732
0.000860735
0.000860737
0.000860739
0.00086074
0.000860742
0.000860743
0.000860743
0.000860744
0.000860744
0.000860744
0.000860744
0.000860744
0.000860744
0.000860743
0.000860743
0.000860742
0.000860741
0.000860741
0.00086074
0.000860739
0.000860738
0.000860737
0.000860736
0.000860734
0.000860733
0.000860732
0.00086073
0.000860729
0.000860727
0.000860726
0.000860724
0.000860722
0.00086072
0.000860718
0.000860716
0.000860714
0.000860712
0.00086071
0.000860707
0.000860705
0.000860702
0.0008607
0.000860697
0.000860695
0.000860692
0.000860689
0.000860686
0.000860683
0.000860681
0.000860678
0.000860675
0.000860672
0.000860669
0.000860666
0.000860662
0.000860657
0.00086065
0.00086064
0.000860628
0.000860613
0.000860596
0.000860576
0.000860554
0.000860531
0.000860506
0.00086048
0.000860454
0.000860428
0.000860401
0.000860376
0.000860348
0.000860332
0.000860256
0.000823987
0.000824068
0.000824082
0.00082408
0.000824075
0.000824068
0.00082406
0.000824051
0.000824042
0.000824032
0.000824022
0.000824012
0.000824002
0.000823992
0.000823981
0.00082397
0.000823959
0.000823947
0.000823935
0.000823922
0.000823909
0.000823895
0.000823881
0.000823868
0.000823857
0.000823849
0.000823845
0.000823845
0.00082385
0.000823857
0.000823866
0.000823876
0.000823886
0.000823897
0.000823907
0.000823916
0.000823925
0.000823933
0.000823941
0.000823948
0.000823954
0.000823959
0.000823964
0.000823968
0.000823972
0.000823975
0.000823978
0.00082398
0.000823982
0.000823984
0.000823986
0.000823987
0.000823988
0.000823989
0.000823989
0.00082399
0.00082399
0.000823991
0.000823991
0.000823991
0.000823991
0.000823991
0.00082399
0.00082399
0.00082399
0.000823989
0.000823989
0.000823988
0.000823987
0.000823987
0.000823986
0.000823985
0.000823984
0.000823983
0.000823982
0.000823981
0.00082398
0.000823978
0.000823977
0.000823976
0.000823974
0.000823972
0.000823971
0.000823969
0.000823967
0.000823965
0.000823963
0.000823961
0.000823959
0.000823957
0.000823955
0.000823953
0.00082395
0.000823948
0.000823946
0.000823943
0.000823941
0.000823938
0.000823936
0.000823933
0.00082393
0.000823928
0.000823924
0.00082392
0.000823913
0.000823905
0.000823895
0.000823884
0.00082387
0.000823854
0.000823837
0.000823819
0.000823799
0.000823779
0.000823758
0.000823737
0.000823716
0.000823693
0.000823681
0.000823612
0.000788898
0.000788971
0.000788985
0.000788984
0.00078898
0.000788975
0.000788969
0.000788961
0.000788954
0.000788946
0.000788937
0.000788929
0.00078892
0.000788911
0.000788902
0.000788892
0.000788882
0.000788872
0.000788861
0.00078885
0.000788838
0.000788826
0.000788814
0.000788802
0.000788791
0.000788781
0.000788774
0.00078877
0.000788768
0.00078877
0.000788773
0.000788778
0.000788783
0.00078879
0.000788796
0.000788802
0.000788808
0.000788814
0.000788819
0.000788824
0.000788829
0.000788833
0.000788836
0.00078884
0.000788842
0.000788845
0.000788847
0.000788849
0.000788851
0.000788852
0.000788854
0.000788855
0.000788856
0.000788857
0.000788858
0.000788858
0.000788859
0.000788859
0.00078886
0.00078886
0.00078886
0.00078886
0.00078886
0.00078886
0.00078886
0.00078886
0.000788859
0.000788859
0.000788859
0.000788858
0.000788858
0.000788857
0.000788857
0.000788856
0.000788855
0.000788855
0.000788854
0.000788853
0.000788852
0.000788851
0.000788849
0.000788848
0.000788847
0.000788845
0.000788844
0.000788842
0.000788841
0.000788839
0.000788838
0.000788836
0.000788834
0.000788832
0.00078883
0.000788828
0.000788826
0.000788824
0.000788822
0.00078882
0.000788818
0.000788816
0.000788813
0.000788811
0.000788809
0.000788805
0.000788801
0.000788796
0.000788789
0.000788781
0.000788772
0.000788761
0.000788749
0.000788735
0.00078872
0.000788705
0.000788689
0.000788672
0.000788655
0.000788637
0.000788627
0.000788566
0.000755336
0.000755401
0.000755414
0.000755415
0.000755413
0.000755409
0.000755404
0.000755398
0.000755392
0.000755385
0.000755378
0.000755371
0.000755364
0.000755356
0.000755348
0.00075534
0.000755331
0.000755322
0.000755313
0.000755303
0.000755293
0.000755282
0.000755271
0.000755261
0.00075525
0.00075524
0.000755232
0.000755226
0.000755221
0.000755219
0.000755218
0.000755219
0.000755221
0.000755224
0.000755227
0.00075523
0.000755234
0.000755237
0.00075524
0.000755244
0.000755247
0.000755249
0.000755252
0.000755254
0.000755256
0.000755258
0.00075526
0.000755261
0.000755263
0.000755264
0.000755265
0.000755266
0.000755267
0.000755268
0.000755268
0.000755269
0.000755269
0.00075527
0.00075527
0.000755271
0.000755271
0.000755271
0.000755271
0.000755271
0.000755271
0.000755271
0.000755271
0.000755271
0.000755271
0.000755271
0.000755271
0.00075527
0.00075527
0.00075527
0.000755269
0.000755269
0.000755268
0.000755267
0.000755267
0.000755266
0.000755265
0.000755264
0.000755263
0.000755262
0.000755261
0.00075526
0.000755258
0.000755257
0.000755256
0.000755254
0.000755253
0.000755251
0.00075525
0.000755248
0.000755246
0.000755245
0.000755243
0.000755241
0.000755239
0.000755237
0.000755236
0.000755234
0.000755232
0.000755229
0.000755226
0.000755223
0.000755218
0.000755213
0.000755206
0.000755199
0.00075519
0.00075518
0.000755169
0.000755158
0.000755145
0.000755132
0.000755119
0.000755104
0.000755097
0.000755043
0.000723225
0.000723283
0.000723296
0.000723298
0.000723297
0.000723294
0.000723291
0.000723287
0.000723282
0.000723276
0.00072327
0.000723264
0.000723258
0.000723252
0.000723245
0.000723238
0.000723231
0.000723223
0.000723215
0.000723207
0.000723198
0.000723188
0.000723179
0.000723169
0.00072316
0.000723151
0.000723142
0.000723135
0.000723129
0.000723125
0.000723122
0.00072312
0.000723119
0.000723119
0.00072312
0.000723121
0.000723122
0.000723124
0.000723125
0.000723127
0.000723129
0.00072313
0.000723132
0.000723133
0.000723134
0.000723135
0.000723137
0.000723138
0.000723139
0.000723139
0.00072314
0.000723141
0.000723142
0.000723142
0.000723143
0.000723144
0.000723144
0.000723145
0.000723145
0.000723145
0.000723146
0.000723146
0.000723146
0.000723146
0.000723146
0.000723147
0.000723147
0.000723147
0.000723147
0.000723147
0.000723147
0.000723147
0.000723146
0.000723146
0.000723146
0.000723146
0.000723145
0.000723145
0.000723144
0.000723144
0.000723143
0.000723142
0.000723141
0.000723141
0.00072314
0.000723139
0.000723138
0.000723137
0.000723136
0.000723135
0.000723133
0.000723132
0.000723131
0.00072313
0.000723128
0.000723127
0.000723125
0.000723124
0.000723122
0.000723121
0.000723119
0.000723118
0.000723116
0.000723114
0.000723112
0.000723109
0.000723106
0.000723102
0.000723098
0.000723093
0.000723086
0.000723079
0.000723071
0.000723063
0.000723053
0.000723043
0.000723033
0.000723021
0.000723016
0.000722969
0.000692493
0.000692545
0.000692558
0.00069256
0.00069256
0.000692559
0.000692556
0.000692553
0.000692549
0.000692545
0.00069254
0.000692536
0.00069253
0.000692525
0.00069252
0.000692514
0.000692508
0.000692501
0.000692494
0.000692487
0.000692479
0.000692471
0.000692463
0.000692455
0.000692446
0.000692438
0.00069243
0.000692423
0.000692416
0.000692411
0.000692406
0.000692403
0.0006924
0.000692398
0.000692397
0.000692397
0.000692396
0.000692396
0.000692397
0.000692397
0.000692398
0.000692398
0.000692399
0.000692399
0.0006924
0.000692401
0.000692401
0.000692402
0.000692402
0.000692403
0.000692403
0.000692404
0.000692404
0.000692405
0.000692405
0.000692406
0.000692406
0.000692407
0.000692407
0.000692408
0.000692408
0.000692408
0.000692408
0.000692409
0.000692409
0.000692409
0.000692409
0.00069241
0.00069241
0.00069241
0.00069241
0.00069241
0.00069241
0.00069241
0.00069241
0.000692409
0.000692409
0.000692409
0.000692409
0.000692408
0.000692408
0.000692407
0.000692407
0.000692406
0.000692405
0.000692405
0.000692404
0.000692403
0.000692402
0.000692401
0.0006924
0.000692399
0.000692398
0.000692397
0.000692396
0.000692395
0.000692394
0.000692392
0.000692391
0.00069239
0.000692389
0.000692387
0.000692386
0.000692384
0.000692383
0.000692381
0.000692379
0.000692376
0.000692373
0.000692369
0.000692365
0.000692359
0.000692354
0.000692347
0.00069234
0.000692332
0.000692325
0.000692315
0.000692312
0.00069227
0.00066307
0.000663115
0.000663127
0.00066313
0.000663131
0.00066313
0.000663129
0.000663127
0.000663124
0.000663121
0.000663117
0.000663113
0.000663109
0.000663105
0.0006631
0.000663095
0.00066309
0.000663085
0.000663079
0.000663073
0.000663066
0.000663059
0.000663052
0.000663045
0.000663037
0.00066303
0.000663023
0.000663016
0.00066301
0.000663004
0.000662999
0.000662994
0.000662991
0.000662988
0.000662986
0.000662984
0.000662982
0.000662981
0.00066298
0.00066298
0.00066298
0.000662979
0.000662979
0.000662979
0.000662979
0.000662979
0.000662979
0.00066298
0.00066298
0.00066298
0.00066298
0.000662981
0.000662981
0.000662982
0.000662982
0.000662982
0.000662983
0.000662983
0.000662983
0.000662984
0.000662984
0.000662984
0.000662985
0.000662985
0.000662985
0.000662986
0.000662986
0.000662986
0.000662986
0.000662987
0.000662987
0.000662987
0.000662987
0.000662987
0.000662987
0.000662987
0.000662987
0.000662987
0.000662986
0.000662986
0.000662986
0.000662985
0.000662985
0.000662985
0.000662984
0.000662984
0.000662983
0.000662982
0.000662982
0.000662981
0.00066298
0.00066298
0.000662979
0.000662978
0.000662977
0.000662976
0.000662975
0.000662974
0.000662973
0.000662972
0.000662971
0.00066297
0.000662968
0.000662967
0.000662966
0.000662965
0.000662963
0.000662961
0.000662959
0.000662956
0.000662953
0.000662949
0.000662945
0.00066294
0.000662935
0.000662929
0.000662923
0.000662915
0.000662913
0.000662877
0.000634885
0.000634925
0.000634936
0.000634939
0.00063494
0.000634941
0.00063494
0.000634939
0.000634937
0.000634934
0.000634931
0.000634928
0.000634925
0.000634921
0.000634918
0.000634914
0.00063491
0.000634905
0.0006349
0.000634895
0.000634889
0.000634883
0.000634877
0.000634871
0.000634864
0.000634858
0.000634852
0.000634845
0.000634839
0.000634834
0.000634829
0.000634824
0.00063482
0.000634816
0.000634813
0.000634811
0.000634808
0.000634807
0.000634805
0.000634804
0.000634803
0.000634802
0.000634802
0.000634801
0.000634801
0.0006348
0.0006348
0.0006348
0.0006348
0.0006348
0.0006348
0.000634801
0.000634801
0.000634801
0.000634801
0.000634802
0.000634802
0.000634802
0.000634803
0.000634803
0.000634803
0.000634804
0.000634804
0.000634804
0.000634805
0.000634805
0.000634805
0.000634806
0.000634806
0.000634806
0.000634806
0.000634807
0.000634807
0.000634807
0.000634807
0.000634807
0.000634807
0.000634807
0.000634807
0.000634807
0.000634806
0.000634806
0.000634806
0.000634806
0.000634805
0.000634805
0.000634805
0.000634804
0.000634804
0.000634803
0.000634803
0.000634802
0.000634801
0.000634801
0.0006348
0.000634799
0.000634798
0.000634797
0.000634797
0.000634796
0.000634795
0.000634794
0.000634793
0.000634792
0.000634791
0.00063479
0.000634788
0.000634787
0.000634785
0.000634783
0.000634781
0.000634778
0.000634775
0.000634772
0.000634767
0.000634763
0.000634758
0.000634752
0.000634751
0.000634719
0.000607872
0.000607907
0.000607916
0.00060792
0.000607922
0.000607923
0.000607923
0.000607922
0.000607921
0.000607919
0.000607916
0.000607914
0.000607911
0.000607909
0.000607906
0.000607903
0.000607899
0.000607895
0.000607891
0.000607887
0.000607882
0.000607877
0.000607872
0.000607866
0.000607861
0.000607855
0.00060785
0.000607844
0.000607839
0.000607834
0.000607829
0.000607824
0.00060782
0.000607816
0.000607812
0.000607809
0.000607807
0.000607805
0.000607803
0.000607801
0.0006078
0.000607798
0.000607797
0.000607797
0.000607796
0.000607796
0.000607795
0.000607795
0.000607795
0.000607795
0.000607795
0.000607795
0.000607795
0.000607795
0.000607795
0.000607796
0.000607796
0.000607796
0.000607796
0.000607797
0.000607797
0.000607797
0.000607798
0.000607798
0.000607798
0.000607799
0.000607799
0.000607799
0.0006078
0.0006078
0.0006078
0.000607801
0.000607801
0.000607801
0.000607801
0.000607801
0.000607802
0.000607802
0.000607802
0.000607802
0.000607802
0.000607801
0.000607801
0.000607801
0.000607801
0.000607801
0.0006078
0.0006078
0.0006078
0.000607799
0.000607799
0.000607798
0.000607798
0.000607797
0.000607797
0.000607796
0.000607796
0.000607795
0.000607794
0.000607793
0.000607793
0.000607792
0.000607791
0.00060779
0.000607789
0.000607789
0.000607788
0.000607786
0.000607785
0.000607784
0.000607782
0.00060778
0.000607778
0.000607775
0.000607772
0.000607768
0.000607764
0.000607759
0.000607759
0.000607732
0.000581967
0.000581997
0.000582005
0.000582009
0.000582011
0.000582012
0.000582012
0.000582012
0.000582011
0.00058201
0.000582008
0.000582006
0.000582004
0.000582002
0.000582
0.000581997
0.000581995
0.000581992
0.000581988
0.000581984
0.00058198
0.000581976
0.000581972
0.000581967
0.000581963
0.000581958
0.000581953
0.000581948
0.000581943
0.000581939
0.000581934
0.000581929
0.000581925
0.000581921
0.000581918
0.000581915
0.000581912
0.00058191
0.000581908
0.000581906
0.000581904
0.000581903
0.000581902
0.000581901
0.0005819
0.000581899
0.000581899
0.000581898
0.000581898
0.000581898
0.000581898
0.000581898
0.000581898
0.000581898
0.000581898
0.000581898
0.000581899
0.000581899
0.000581899
0.0005819
0.0005819
0.0005819
0.000581901
0.000581901
0.000581901
0.000581902
0.000581902
0.000581903
0.000581903
0.000581903
0.000581904
0.000581904
0.000581904
0.000581905
0.000581905
0.000581905
0.000581905
0.000581905
0.000581905
0.000581906
0.000581906
0.000581906
0.000581906
0.000581905
0.000581905
0.000581905
0.000581905
0.000581905
0.000581905
0.000581904
0.000581904
0.000581904
0.000581903
0.000581903
0.000581902
0.000581902
0.000581902
0.000581901
0.0005819
0.0005819
0.000581899
0.000581899
0.000581898
0.000581897
0.000581897
0.000581896
0.000581895
0.000581894
0.000581893
0.000581892
0.000581891
0.000581889
0.000581887
0.000581885
0.000581883
0.00058188
0.000581877
0.000581873
0.000581873
0.000581849
0.000557108
0.000557133
0.00055714
0.000557144
0.000557146
0.000557147
0.000557148
0.000557148
0.000557148
0.000557147
0.000557145
0.000557144
0.000557142
0.000557141
0.000557139
0.000557137
0.000557135
0.000557132
0.00055713
0.000557126
0.000557123
0.00055712
0.000557116
0.000557112
0.000557108
0.000557104
0.0005571
0.000557096
0.000557091
0.000557087
0.000557083
0.000557079
0.000557075
0.000557071
0.000557068
0.000557065
0.000557062
0.00055706
0.000557057
0.000557056
0.000557054
0.000557053
0.000557051
0.00055705
0.000557049
0.000557049
0.000557048
0.000557048
0.000557048
0.000557047
0.000557047
0.000557047
0.000557047
0.000557048
0.000557048
0.000557048
0.000557048
0.000557049
0.000557049
0.000557049
0.00055705
0.00055705
0.00055705
0.000557051
0.000557051
0.000557052
0.000557052
0.000557052
0.000557053
0.000557053
0.000557054
0.000557054
0.000557054
0.000557055
0.000557055
0.000557055
0.000557055
0.000557056
0.000557056
0.000557056
0.000557056
0.000557056
0.000557056
0.000557056
0.000557056
0.000557056
0.000557056
0.000557056
0.000557056
0.000557056
0.000557056
0.000557055
0.000557055
0.000557055
0.000557055
0.000557054
0.000557054
0.000557053
0.000557053
0.000557052
0.000557052
0.000557051
0.000557051
0.00055705
0.00055705
0.000557049
0.000557049
0.000557048
0.000557047
0.000557046
0.000557045
0.000557044
0.000557043
0.000557041
0.000557039
0.000557036
0.000557034
0.00055703
0.00055703
0.000557011
0.000533236
0.000533256
0.000533263
0.000533266
0.000533268
0.00053327
0.000533271
0.000533271
0.000533271
0.00053327
0.000533269
0.000533268
0.000533267
0.000533265
0.000533264
0.000533263
0.000533261
0.000533259
0.000533257
0.000533254
0.000533251
0.000533248
0.000533245
0.000533242
0.000533239
0.000533235
0.000533232
0.000533228
0.000533224
0.000533221
0.000533217
0.000533213
0.000533209
0.000533206
0.000533203
0.0005332
0.000533197
0.000533195
0.000533193
0.000533191
0.00053319
0.000533188
0.000533187
0.000533186
0.000533186
0.000533185
0.000533184
0.000533184
0.000533184
0.000533184
0.000533184
0.000533184
0.000533184
0.000533184
0.000533184
0.000533184
0.000533185
0.000533185
0.000533185
0.000533186
0.000533186
0.000533186
0.000533187
0.000533187
0.000533188
0.000533188
0.000533189
0.000533189
0.00053319
0.00053319
0.000533191
0.000533191
0.000533191
0.000533192
0.000533192
0.000533192
0.000533193
0.000533193
0.000533193
0.000533193
0.000533194
0.000533194
0.000533194
0.000533194
0.000533194
0.000533194
0.000533194
0.000533194
0.000533194
0.000533194
0.000533194
0.000533194
0.000533194
0.000533194
0.000533193
0.000533193
0.000533193
0.000533192
0.000533192
0.000533192
0.000533191
0.000533191
0.00053319
0.00053319
0.00053319
0.000533189
0.000533189
0.000533188
0.000533188
0.000533187
0.000533186
0.000533185
0.000533184
0.000533182
0.000533181
0.000533179
0.000533177
0.000533173
0.000533173
0.000533157
0.000510294
0.000510311
0.000510316
0.000510319
0.000510321
0.000510323
0.000510324
0.000510324
0.000510324
0.000510323
0.000510323
0.000510322
0.000510321
0.00051032
0.000510319
0.000510318
0.000510317
0.000510315
0.000510313
0.000510311
0.000510309
0.000510306
0.000510304
0.000510301
0.000510298
0.000510296
0.000510293
0.000510289
0.000510286
0.000510283
0.000510279
0.000510276
0.000510273
0.00051027
0.000510267
0.000510264
0.000510262
0.00051026
0.000510258
0.000510256
0.000510255
0.000510254
0.000510253
0.000510252
0.000510251
0.000510251