/*--------------------------------*- C++ -*----------------------------------*\
  =========                 |
  \\      /  F ield         | OpenFOAM: The Open Source CFD Toolbox
   \\    /   O peration     | Website:  https://openfoam.org
    \\  /    A nd           | Version:  7
     \\/     M anipulation  |
\*---------------------------------------------------------------------------*/
FoamFile
{
    version     2.0;
    format      ascii;
    class       volScalarField;
    location    "4000";
    object      omega;
}
// * * * * * * * * * * * * * * * * * * * * * * * * * * * * * * * * * * * * * //

dimensions      [0 0 -1 0 0 0 0];

internalField   nonuniform List<scalar> 
3963
(
0.100502
0.10048
0.100476
0.100476
0.100477
0.100477
0.100478
0.100479
0.10048
0.100481
0.100482
0.100483
0.100484
0.100486
0.100487
0.100488
0.10049
0.100491
0.100493
0.100495
0.100496
0.100568
0.100575
0.100582
0.100586
0.100588
0.10059
0.100591
0.100592
0.100593
0.100594
0.100595
0.100596
0.100597
0.100598
0.100598
0.100604
0.106494
0.106471
0.106467
0.106466
0.106467
0.106468
0.106469
0.10647
0.106472
0.106473
0.106474
0.106476
0.106477
0.106479
0.10648
0.106482
0.106484
0.106486
0.106487
0.106489
0.106496
0.106419
0.106391
0.106446
0.106454
0.106462
0.106465
0.106504
0.106527
0.10654
0.10655
0.106556
0.106561
0.106565
0.106569
0.106572
0.106574
0.106577
0.106579
0.106581
0.106583
0.106584
0.106592
0.11284
0.112818
0.112813
0.112813
0.112814
0.112815
0.112816
0.112818
0.112819
0.112821
0.112823
0.112824
0.112826
0.112828
0.11283
0.112832
0.112834
0.112836
0.112838
0.11284
0.112847
0.112813
0.11279
0.112695
0.112659
0.112649
0.112647
0.112645
0.112645
0.112645
0.112645
0.112645
0.112646
0.112647
0.112648
0.112649
0.11265
0.112652
0.112653
0.112654
0.112656
0.112657
0.112659
0.11266
0.112662
0.112663
0.112665
0.112666
0.112668
0.112669
0.112671
0.112672
0.112674
0.112675
0.112677
0.112678
0.112679
0.112681
0.112682
0.112683
0.112684
0.112686
0.112687
0.112688
0.112689
0.11269
0.112691
0.112692
0.112694
0.112695
0.112696
0.112697
0.112698
0.112699
0.1127
0.112701
0.112702
0.112703
0.112703
0.112704
0.112705
0.112706
0.112707
0.112708
0.112709
0.11271
0.112711
0.112712
0.112713
0.112714
0.112714
0.112715
0.112716
0.112717
0.112718
0.112719
0.11272
0.11272
0.112721
0.11272
0.112758
0.11278
0.112793
0.112799
0.112821
0.112843
0.112859
0.112872
0.112882
0.11289
0.112896
0.112902
0.112907
0.112911
0.112915
0.112918
0.112922
0.112925
0.112927
0.112936
0.119555
0.119534
0.11953
0.119529
0.11953
0.119532
0.119533
0.119535
0.119537
0.119539
0.119541
0.119543
0.119545
0.119547
0.119549
0.119552
0.119554
0.119556
0.119559
0.119561
0.119566
0.119553
0.119539
0.119489
0.119448
0.119425
0.119413
0.119406
0.119401
0.119398
0.119396
0.119394
0.119393
0.119393
0.119392
0.119392
0.119392
0.119393
0.119393
0.119394
0.119395
0.119396
0.119396
0.119397
0.119399
0.1194
0.119401
0.119402
0.119403
0.119404
0.119405
0.119406
0.119408
0.119409
0.11941
0.119411
0.119412
0.119413
0.119414
0.119415
0.119416
0.119418
0.119419
0.11942
0.119421
0.119422
0.119422
0.119423
0.119424
0.119425
0.119426
0.119427
0.119428
0.119429
0.11943
0.119431
0.119432
0.119432
0.119433
0.119434
0.119435
0.119436
0.119437
0.119438
0.119438
0.119439
0.11944
0.119441
0.119442
0.119443
0.119443
0.119444
0.119445
0.119446
0.119447
0.119448
0.119448
0.119449
0.11945
0.119449
0.119466
0.119484
0.119498
0.119508
0.119522
0.11954
0.119556
0.11957
0.119581
0.119591
0.119599
0.119606
0.119613
0.119618
0.119623
0.119628
0.119632
0.119636
0.119639
0.11965
0.126654
0.126633
0.126629
0.12663
0.126631
0.126632
0.126634
0.126636
0.126639
0.126641
0.126643
0.126645
0.126648
0.12665
0.126652
0.126655
0.126657
0.12666
0.126662
0.126665
0.126669
0.126666
0.126659
0.126633
0.126602
0.126578
0.126561
0.12655
0.126542
0.126536
0.126532
0.126528
0.126525
0.126523
0.126522
0.126521
0.12652
0.126519
0.126519
0.126519
0.126519
0.126519
0.12652
0.12652
0.126521
0.126521
0.126522
0.126523
0.126524
0.126525
0.126525
0.126526
0.126527
0.126528
0.126529
0.12653
0.126531
0.126532
0.126533
0.126533
0.126534
0.126535
0.126536
0.126537
0.126538
0.126539
0.126539
0.12654
0.126541
0.126542
0.126543
0.126543
0.126544
0.126545
0.126546
0.126546
0.126547
0.126548
0.126549
0.12655
0.12655
0.126551
0.126552
0.126553
0.126553
0.126554
0.126555
0.126556
0.126556
0.126557
0.126558
0.126559
0.12656
0.12656
0.126561
0.126562
0.126563
0.126563
0.126564
0.126564
0.126571
0.126583
0.126595
0.126605
0.126616
0.12663
0.126644
0.126657
0.126669
0.126679
0.126688
0.126696
0.126704
0.12671
0.126716
0.126722
0.126727
0.126732
0.126735
0.126747
0.13415
0.13413
0.134127
0.134127
0.134129
0.134131
0.134133
0.134135
0.134138
0.13414
0.134143
0.134145
0.134148
0.13415
0.134153
0.134155
0.134158
0.134161
0.134163
0.134166
0.13417
0.13417
0.134168
0.134156
0.134137
0.134117
0.1341
0.134087
0.134078
0.13407
0.134064
0.134059
0.134055
0.134052
0.13405
0.134047
0.134046
0.134045
0.134044
0.134043
0.134042
0.134042
0.134042
0.134042
0.134042
0.134042
0.134043
0.134043
0.134044
0.134044
0.134045
0.134045
0.134046
0.134046
0.134047
0.134048
0.134048
0.134049
0.13405
0.134051
0.134051
0.134052
0.134053
0.134053
0.134054
0.134055
0.134055
0.134056
0.134057
0.134057
0.134058
0.134059
0.134059
0.13406
0.134061
0.134061
0.134062
0.134063
0.134063
0.134064
0.134065
0.134065
0.134066
0.134067
0.134068
0.134068
0.134069
0.13407
0.13407
0.134071
0.134072
0.134073
0.134073
0.134074
0.134075
0.134075
0.134076
0.134077
0.134078
0.134078
0.134081
0.134088
0.134097
0.134105
0.134114
0.134125
0.134136
0.134148
0.134159
0.134169
0.134178
0.134187
0.134195
0.134202
0.134209
0.134215
0.13422
0.134226
0.134229
0.134243
0.142058
0.142039
0.142036
0.142037
0.142039
0.142041
0.142044
0.142046
0.142049
0.142051
0.142054
0.142057
0.142059
0.142062
0.142065
0.142068
0.14207
0.142073
0.142076
0.142079
0.142082
0.142085
0.142085
0.142081
0.14207
0.142056
0.142043
0.142031
0.142021
0.142013
0.142006
0.142
0.141996
0.141992
0.141988
0.141986
0.141983
0.141982
0.14198
0.141979
0.141978
0.141977
0.141977
0.141976
0.141976
0.141976
0.141976
0.141976
0.141976
0.141976
0.141977
0.141977
0.141977
0.141978
0.141978
0.141979
0.141979
0.141979
0.14198
0.141981
0.141981
0.141982
0.141982
0.141983
0.141983
0.141984
0.141984
0.141985
0.141985
0.141986
0.141986
0.141987
0.141987
0.141988
0.141989
0.141989
0.14199
0.14199
0.141991
0.141992
0.141992
0.141993
0.141993
0.141994
0.141995
0.141995
0.141996
0.141997
0.141997
0.141998
0.141998
0.141999
0.142
0.142
0.142001
0.142002
0.142002
0.142003
0.142004
0.142004
0.142006
0.14201
0.142015
0.142022
0.142029
0.142037
0.142046
0.142056
0.142066
0.142075
0.142084
0.142092
0.1421
0.142108
0.142114
0.142121
0.142127
0.142133
0.142137
0.142151
0.150394
0.150375
0.150373
0.150374
0.150376
0.150379
0.150381
0.150384
0.150387
0.150389
0.150392
0.150395
0.150398
0.1504
0.150403
0.150406
0.150409
0.150412
0.150415
0.150418
0.150421
0.150424
0.150426
0.150426
0.150421
0.150413
0.150403
0.150394
0.150385
0.150377
0.150371
0.150365
0.15036
0.150356
0.150352
0.150349
0.150346
0.150344
0.150342
0.150341
0.150339
0.150338
0.150337
0.150337
0.150336
0.150336
0.150335
0.150335
0.150335
0.150335
0.150335
0.150335
0.150335
0.150336
0.150336
0.150336
0.150336
0.150337
0.150337
0.150337
0.150338
0.150338
0.150338
0.150339
0.150339
0.15034
0.15034
0.15034
0.150341
0.150341
0.150342
0.150342
0.150343
0.150343
0.150344
0.150344
0.150345
0.150345
0.150346
0.150346
0.150347
0.150347
0.150348
0.150348
0.150349
0.150349
0.15035
0.15035
0.150351
0.150352
0.150352
0.150353
0.150353
0.150354
0.150355
0.150355
0.150356
0.150356
0.150357
0.150357
0.150358
0.150361
0.150364
0.150369
0.150374
0.150381
0.150388
0.150395
0.150403
0.150412
0.15042
0.150427
0.150435
0.150442
0.150449
0.150455
0.150461
0.150467
0.150471
0.150486
0.159173
0.159155
0.159152
0.159154
0.159156
0.159158
0.159161
0.159164
0.159166
0.159169
0.159172
0.159175
0.159178
0.159181
0.159184
0.159187
0.15919
0.159193
0.159196
0.159199
0.159202
0.159205
0.159208
0.15921
0.159208
0.159205
0.159199
0.159192
0.159185
0.159179
0.159173
0.159168
0.159163
0.159159
0.159155
0.159152
0.159149
0.159147
0.159144
0.159143
0.159141
0.15914
0.159139
0.159138
0.159137
0.159137
0.159136
0.159136
0.159135
0.159135
0.159135
0.159135
0.159135
0.159135
0.159135
0.159135
0.159135
0.159135
0.159136
0.159136
0.159136
0.159136
0.159137
0.159137
0.159137
0.159137
0.159138
0.159138
0.159138
0.159139
0.159139
0.159139
0.15914
0.15914
0.15914
0.159141
0.159141
0.159142
0.159142
0.159142
0.159143
0.159143
0.159144
0.159144
0.159145
0.159145
0.159146
0.159146
0.159147
0.159147
0.159148
0.159148
0.159149
0.159149
0.15915
0.15915
0.159151
0.159152
0.159152
0.159153
0.159153
0.159154
0.159157
0.15916
0.159164
0.159168
0.159174
0.15918
0.159186
0.159193
0.1592
0.159207
0.159214
0.159221
0.159227
0.159233
0.159239
0.159245
0.159249
0.159264
0.168411
0.168392
0.16839
0.168391
0.168394
0.168396
0.168399
0.168401
0.168404
0.168407
0.16841
0.168413
0.168416
0.168419
0.168422
0.168425
0.168428
0.168431
0.168434
0.168437
0.16844
0.168443
0.168447
0.168449
0.16845
0.168449
0.168446
0.168442
0.168438
0.168433
0.168428
0.168424
0.16842
0.168416
0.168413
0.168409
0.168407
0.168404
0.168402
0.1684
0.168399
0.168397
0.168396
0.168395
0.168394
0.168394
0.168393
0.168393
0.168392
0.168392
0.168392
0.168391
0.168391
0.168391
0.168391
0.168391
0.168391
0.168391
0.168391
0.168391
0.168391
0.168391
0.168392
0.168392
0.168392
0.168392
0.168392
0.168392
0.168393
0.168393
0.168393
0.168393
0.168394
0.168394
0.168394
0.168394
0.168395
0.168395
0.168395
0.168396
0.168396
0.168397
0.168397
0.168397
0.168398
0.168398
0.168399
0.168399
0.1684
0.1684
0.168401
0.168401
0.168401
0.168402
0.168402
0.168403
0.168403
0.168404
0.168404
0.168405
0.168405
0.168406
0.168408
0.16841
0.168412
0.168416
0.16842
0.168424
0.16843
0.168435
0.168441
0.168447
0.168453
0.168459
0.168465
0.16847
0.168476
0.168482
0.168485
0.168501
0.178124
0.178105
0.178103
0.178104
0.178106
0.178108
0.178111
0.178114
0.178116
0.178119
0.178122
0.178125
0.178128
0.178131
0.178134
0.178137
0.17814
0.178143
0.178146
0.178149
0.178152
0.178155
0.178159
0.178162
0.178164
0.178165
0.178164
0.178162
0.17816
0.178157
0.178153
0.17815
0.178147
0.178144
0.178141
0.178138
0.178136
0.178134
0.178132
0.17813
0.178128
0.178127
0.178126
0.178125
0.178124
0.178123
0.178123
0.178122
0.178121
0.178121
0.178121
0.17812
0.17812
0.17812
0.17812
0.17812
0.17812
0.17812
0.17812
0.17812
0.17812
0.17812
0.17812
0.17812
0.17812
0.17812
0.17812
0.17812
0.17812
0.17812
0.178121
0.178121
0.178121
0.178121
0.178121
0.178122
0.178122
0.178122
0.178122
0.178123
0.178123
0.178123
0.178124
0.178124
0.178124
0.178125
0.178125
0.178125
0.178126
0.178126
0.178127
0.178127
0.178128
0.178128
0.178128
0.178129
0.178129
0.17813
0.17813
0.178131
0.178131
0.178132
0.178133
0.178134
0.178136
0.178138
0.178141
0.178144
0.178148
0.178153
0.178157
0.178162
0.178168
0.178173
0.178178
0.178183
0.178188
0.178193
0.178196
0.178212
0.188329
0.18831
0.188308
0.188309
0.188311
0.188313
0.188315
0.188318
0.18832
0.188323
0.188326
0.188329
0.188331
0.188334
0.188337
0.18834
0.188343
0.188346
0.188349
0.188352
0.188355
0.188358
0.188362
0.188365
0.188368
0.18837
0.188371
0.188371
0.18837
0.188368
0.188366
0.188364
0.188362
0.18836
0.188357
0.188355
0.188353
0.188351
0.18835
0.188348
0.188347
0.188346
0.188345
0.188344
0.188343
0.188342
0.188341
0.188341
0.18834
0.18834
0.18834
0.188339
0.188339
0.188339
0.188339
0.188338
0.188338
0.188338
0.188338
0.188338
0.188338
0.188338
0.188338
0.188338
0.188338
0.188338
0.188338
0.188338
0.188338
0.188338
0.188338
0.188338
0.188338
0.188339
0.188339
0.188339
0.188339
0.188339
0.18834
0.18834
0.18834
0.18834
0.188341
0.188341
0.188341
0.188341
0.188342
0.188342
0.188342
0.188343
0.188343
0.188344
0.188344
0.188344
0.188345
0.188345
0.188346
0.188346
0.188346
0.188347
0.188347
0.188348
0.188348
0.188349
0.18835
0.188352
0.188354
0.188357
0.18836
0.188363
0.188367
0.188371
0.188375
0.188379
0.188384
0.188388
0.188393
0.188397
0.1884
0.188415
0.199044
0.199026
0.199023
0.199024
0.199025
0.199027
0.19903
0.199032
0.199034
0.199037
0.19904
0.199042
0.199045
0.199048
0.19905
0.199053
0.199056
0.199059
0.199062
0.199065
0.199068
0.199071
0.199074
0.199077
0.19908
0.199083
0.199085
0.199086
0.199087
0.199086
0.199086
0.199085
0.199083
0.199082
0.19908
0.199079
0.199078
0.199076
0.199075
0.199074
0.199073
0.199072
0.199071
0.19907
0.199069
0.199069
0.199068
0.199068
0.199067
0.199067
0.199066
0.199066
0.199066
0.199066
0.199065
0.199065
0.199065
0.199065
0.199065
0.199065
0.199065
0.199064
0.199064
0.199064
0.199064
0.199064
0.199064
0.199064
0.199064
0.199064
0.199064
0.199064
0.199064
0.199064
0.199065
0.199065
0.199065
0.199065
0.199065
0.199065
0.199066
0.199066
0.199066
0.199066
0.199067
0.199067
0.199067
0.199067
0.199068
0.199068
0.199068
0.199069
0.199069
0.199069
0.19907
0.19907
0.19907
0.199071
0.199071
0.199071
0.199072
0.199072
0.199073
0.199073
0.199074
0.199075
0.199077
0.199078
0.199081
0.199083
0.199086
0.199089
0.199092
0.199096
0.1991
0.199104
0.199108
0.199112
0.199114
0.199129
0.21029
0.210272
0.210268
0.210269
0.21027
0.210272
0.210274
0.210276
0.210278
0.21028
0.210283
0.210285
0.210288
0.21029
0.210293
0.210296
0.210298
0.210301
0.210304
0.210307
0.21031
0.210313
0.210316
0.210319
0.210322
0.210325
0.210327
0.210329
0.210331
0.210331
0.210332
0.210332
0.210331
0.210331
0.21033
0.210329
0.210328
0.210328
0.210327
0.210326
0.210325
0.210324
0.210324
0.210323
0.210323
0.210322
0.210322
0.210321
0.210321
0.210321
0.21032
0.21032
0.21032
0.21032
0.210319
0.210319
0.210319
0.210319
0.210319
0.210319
0.210319
0.210319
0.210318
0.210318
0.210318
0.210318
0.210318
0.210318
0.210318
0.210318
0.210318
0.210318
0.210318
0.210318
0.210318
0.210318
0.210318
0.210319
0.210319
0.210319
0.210319
0.210319
0.210319
0.21032
0.21032
0.21032
0.21032
0.21032
0.210321
0.210321
0.210321
0.210322
0.210322
0.210322
0.210322
0.210323
0.210323
0.210323
0.210324
0.210324
0.210324
0.210325
0.210325
0.210325
0.210326
0.210327
0.210328
0.210329
0.210331
0.210332
0.210335
0.210337
0.21034
0.210343
0.210346
0.210349
0.210352
0.210356
0.210357
0.210372
0.222086
0.222068
0.222065
0.222064
0.222065
0.222067
0.222068
0.22207
0.222072
0.222074
0.222077
0.222079
0.222081
0.222083
0.222086
0.222088
0.222091
0.222093
0.222096
0.222099
0.222102
0.222105
0.222108
0.222111
0.222114
0.222117
0.222119
0.222122
0.222124
0.222125
0.222126
0.222127
0.222127
0.222128
0.222127
0.222127
0.222127
0.222127
0.222126
0.222126
0.222126
0.222125
0.222125
0.222124
0.222124
0.222124
0.222124
0.222123
0.222123
0.222123
0.222123
0.222122
0.222122
0.222122
0.222122
0.222122
0.222122
0.222122
0.222121
0.222121
0.222121
0.222121
0.222121
0.222121
0.222121
0.222121
0.222121
0.222121
0.222121
0.222121
0.222121
0.222121
0.222121
0.222121
0.222121
0.222121
0.222121
0.222121
0.222121
0.222121
0.222121
0.222121
0.222121
0.222122
0.222122
0.222122
0.222122
0.222122
0.222123
0.222123
0.222123
0.222123
0.222124
0.222124
0.222124
0.222124
0.222125
0.222125
0.222125
0.222125
0.222126
0.222126
0.222126
0.222127
0.222127
0.222127
0.222128
0.222129
0.22213
0.222132
0.222133
0.222135
0.222137
0.222139
0.222142
0.222144
0.222147
0.22215
0.222151
0.222165
0.234455
0.234438
0.234434
0.234433
0.234434
0.234435
0.234436
0.234438
0.23444
0.234441
0.234443
0.234445
0.234448
0.23445
0.234452
0.234454
0.234456
0.234459
0.234461
0.234464
0.234467
0.234469
0.234472
0.234475
0.234478
0.234481
0.234484
0.234486
0.234488
0.23449
0.234492
0.234493
0.234494
0.234495
0.234496
0.234496
0.234496
0.234497
0.234497
0.234497
0.234497
0.234497
0.234497
0.234496
0.234496
0.234496
0.234496
0.234496
0.234496
0.234496
0.234496
0.234496
0.234496
0.234496
0.234495
0.234495
0.234495
0.234495
0.234495
0.234495
0.234495
0.234495
0.234495
0.234495
0.234495
0.234494
0.234494
0.234494
0.234494
0.234494
0.234494
0.234494
0.234494
0.234494
0.234494
0.234494
0.234494
0.234494
0.234494
0.234495
0.234495
0.234495
0.234495
0.234495
0.234495
0.234495
0.234495
0.234496
0.234496
0.234496
0.234496
0.234496
0.234497
0.234497
0.234497
0.234497
0.234497
0.234498
0.234498
0.234498
0.234498
0.234499
0.234499
0.234499
0.234499
0.2345
0.2345
0.234501
0.234502
0.234503
0.234504
0.234505
0.234507
0.234508
0.23451
0.234513
0.234515
0.234517
0.234518
0.234531
0.247422
0.247405
0.247401
0.2474
0.2474
0.247401
0.247402
0.247403
0.247405
0.247406
0.247408
0.24741
0.247412
0.247413
0.247415
0.247417
0.24742
0.247422
0.247424
0.247427
0.247429
0.247432
0.247434
0.247437
0.24744
0.247443
0.247445
0.247448
0.24745
0.247452
0.247454
0.247456
0.247458
0.247459
0.24746
0.247461
0.247462
0.247462
0.247463
0.247463
0.247463
0.247464
0.247464
0.247464
0.247464
0.247464
0.247464
0.247464
0.247465
0.247465
0.247465
0.247465
0.247465
0.247465
0.247465
0.247465
0.247465
0.247465
0.247464
0.247464
0.247464
0.247464
0.247464
0.247464
0.247464
0.247464
0.247464
0.247464
0.247464
0.247464
0.247464
0.247464
0.247464
0.247464
0.247464
0.247464
0.247464
0.247464
0.247464
0.247464
0.247464
0.247464
0.247464
0.247464
0.247465
0.247465
0.247465
0.247465
0.247465
0.247465
0.247465
0.247466
0.247466
0.247466
0.247466
0.247466
0.247466
0.247467
0.247467
0.247467
0.247467
0.247467
0.247468
0.247468
0.247468
0.247468
0.247469
0.247469
0.24747
0.24747
0.247471
0.247472
0.247473
0.247475
0.247476
0.247478
0.247479
0.247482
0.247482
0.247495
0.261013
0.260997
0.260993
0.260992
0.260992
0.260992
0.260992
0.260993
0.260994
0.260996
0.260997
0.260999
0.261
0.261002
0.261004
0.261005
0.261007
0.261009
0.261011
0.261014
0.261016
0.261018
0.261021
0.261023
0.261026
0.261029
0.261031
0.261034
0.261036
0.261039
0.261041
0.261043
0.261044
0.261046
0.261048
0.261049
0.26105
0.261051
0.261052
0.261052
0.261053
0.261053
0.261054
0.261054
0.261055
0.261055
0.261055
0.261056
0.261056
0.261056
0.261056
0.261056
0.261056
0.261057
0.261057
0.261057
0.261057
0.261057
0.261057
0.261057
0.261057
0.261057
0.261057
0.261057
0.261057
0.261057
0.261057
0.261056
0.261056
0.261056
0.261056
0.261056
0.261056
0.261056
0.261056
0.261056
0.261056
0.261056
0.261057
0.261057
0.261057
0.261057
0.261057
0.261057
0.261057
0.261057
0.261057
0.261057
0.261057
0.261058
0.261058
0.261058
0.261058
0.261058
0.261058
0.261058
0.261059
0.261059
0.261059
0.261059
0.261059
0.261059
0.261059
0.26106
0.26106
0.26106
0.26106
0.261061
0.261061
0.261061
0.261062
0.261063
0.261063
0.261064
0.261066
0.261067
0.261068
0.26107
0.26107
0.261082
0.275258
0.275243
0.275239
0.275237
0.275237
0.275237
0.275237
0.275238
0.275238
0.27524
0.275241
0.275242
0.275243
0.275245
0.275246
0.275248
0.275249
0.275251
0.275253
0.275255
0.275257
0.275259
0.275262
0.275264
0.275266
0.275269
0.275271
0.275274
0.275276
0.275278
0.275281
0.275283
0.275285
0.275287
0.275288
0.27529
0.275291
0.275292
0.275293
0.275294
0.275295
0.275296
0.275297
0.275297
0.275298
0.275299
0.275299
0.275299
0.2753
0.2753
0.2753
0.275301
0.275301
0.275301
0.275301
0.275301
0.275301
0.275301
0.275302
0.275302
0.275302
0.275302
0.275302
0.275302
0.275302
0.275302
0.275302
0.275302
0.275302
0.275302
0.275302
0.275302
0.275302
0.275302
0.275302
0.275302
0.275302
0.275302
0.275302
0.275302
0.275302
0.275302
0.275302
0.275302
0.275302
0.275302
0.275302
0.275302
0.275302
0.275303
0.275303
0.275303
0.275303
0.275303
0.275303
0.275303
0.275303
0.275303
0.275304
0.275304
0.275304
0.275304
0.275304
0.275304
0.275304
0.275304
0.275305
0.275305
0.275305
0.275305
0.275306
0.275306
0.275307
0.275307
0.275308
0.275309
0.27531
0.275312
0.275311
0.275323
0.29019
0.290176
0.290172
0.29017
0.290169
0.290169
0.290169
0.290169
0.29017
0.29017
0.290171
0.290172
0.290173
0.290174
0.290176
0.290177
0.290178
0.29018
0.290182
0.290183
0.290185
0.290187
0.290189
0.290191
0.290194
0.290196
0.290198
0.2902
0.290203
0.290205
0.290207
0.290209
0.290212
0.290213
0.290215
0.290217
0.290219
0.29022
0.290221
0.290222
0.290224
0.290225
0.290225
0.290226
0.290227
0.290228
0.290228
0.290229
0.290229
0.29023
0.29023
0.29023
0.290231
0.290231
0.290231
0.290231
0.290232
0.290232
0.290232
0.290232
0.290232
0.290232
0.290232
0.290232
0.290232
0.290232
0.290232
0.290232
0.290232
0.290232
0.290232
0.290232
0.290232
0.290232
0.290232
0.290232
0.290232
0.290232
0.290232
0.290233
0.290233
0.290233
0.290233
0.290233
0.290233
0.290233
0.290233
0.290233
0.290233
0.290233
0.290233
0.290233
0.290233
0.290233
0.290234
0.290234
0.290234
0.290234
0.290234
0.290234
0.290234
0.290234
0.290234
0.290234
0.290234
0.290234
0.290235
0.290235
0.290235
0.290235
0.290235
0.290236
0.290236
0.290236
0.290237
0.290238
0.290239
0.29024
0.290239
0.29025
0.305845
0.305832
0.305828
0.305826
0.305825
0.305824
0.305824
0.305824
0.305824
0.305824
0.305825
0.305826
0.305827
0.305828
0.305828
0.30583
0.305831
0.305832
0.305833
0.305835
0.305837
0.305838
0.30584
0.305842
0.305844
0.305846
0.305848
0.30585
0.305853
0.305855
0.305857
0.305859
0.305861
0.305863
0.305865
0.305867
0.305869
0.30587
0.305872
0.305873
0.305874
0.305875
0.305876
0.305877
0.305878
0.305879
0.305879
0.30588
0.305881
0.305881
0.305882
0.305882
0.305883
0.305883
0.305883
0.305883
0.305884
0.305884
0.305884
0.305884
0.305884
0.305884
0.305885
0.305885
0.305885
0.305885
0.305885
0.305885
0.305885
0.305885
0.305885
0.305885
0.305885
0.305885
0.305885
0.305885
0.305885
0.305885
0.305885
0.305885
0.305885
0.305885
0.305885
0.305885
0.305885
0.305885
0.305886
0.305886
0.305886
0.305886
0.305886
0.305886
0.305886
0.305886
0.305886
0.305886
0.305886
0.305886
0.305886
0.305886
0.305886
0.305886
0.305886
0.305886
0.305886
0.305887
0.305887
0.305887
0.305887
0.305887
0.305887
0.305887
0.305887
0.305888
0.305888
0.305889
0.305889
0.305891
0.30589
0.3059
0.322264
0.322251
0.322247
0.322245
0.322244
0.322243
0.322242
0.322242
0.322242
0.322242
0.322243
0.322243
0.322244
0.322244
0.322245
0.322246
0.322247
0.322248
0.322249
0.32225
0.322252
0.322253
0.322255
0.322257
0.322259
0.32226
0.322262
0.322264
0.322266
0.322268
0.322271
0.322273
0.322275
0.322277
0.322279
0.32228
0.322282
0.322284
0.322285
0.322287
0.322288
0.322289
0.32229
0.322291
0.322292
0.322293
0.322294
0.322294
0.322295
0.322296
0.322296
0.322297
0.322297
0.322297
0.322298
0.322298
0.322298
0.322299
0.322299
0.322299
0.322299
0.322299
0.3223
0.3223
0.3223
0.3223
0.3223
0.3223
0.3223
0.3223
0.3223
0.3223
0.3223
0.3223
0.3223
0.3223
0.3223
0.3223
0.3223
0.3223
0.3223
0.3223
0.322301
0.322301
0.322301
0.322301
0.322301
0.322301
0.322301
0.322301
0.322301
0.322301
0.322301
0.322301
0.322301
0.322301
0.322301
0.322301
0.322301
0.322301
0.322301
0.322301
0.322301
0.322301
0.322301
0.322301
0.322301
0.322301
0.322301
0.322301
0.322301
0.322301
0.322301
0.322302
0.322302
0.322302
0.322303
0.322304
0.322303
0.322312
0.33949
0.339479
0.339475
0.339473
0.339471
0.33947
0.339469
0.339469
0.339469
0.339469
0.339469
0.339469
0.33947
0.33947
0.339471
0.339471
0.339472
0.339473
0.339473
0.339475
0.339476
0.339477
0.339479
0.33948
0.339482
0.339483
0.339485
0.339487
0.339489
0.339491
0.339493
0.339495
0.339497
0.339499
0.339501
0.339503
0.339504
0.339506
0.339507
0.339509
0.33951
0.339511
0.339512
0.339513
0.339514
0.339515
0.339516
0.339517
0.339517
0.339518
0.339518
0.339519
0.339519
0.33952
0.33952
0.339521
0.339521
0.339521
0.339522
0.339522
0.339522
0.339522
0.339522
0.339523
0.339523
0.339523
0.339523
0.339523
0.339523
0.339523
0.339523
0.339523
0.339523
0.339523
0.339523
0.339523
0.339523
0.339523
0.339523
0.339523
0.339523
0.339523
0.339523
0.339523
0.339523
0.339524
0.339524
0.339524
0.339524
0.339524
0.339524
0.339524
0.339524
0.339524
0.339523
0.339523
0.339523
0.339523
0.339523
0.339523
0.339523
0.339523
0.339523
0.339523
0.339523
0.339523
0.339523
0.339523
0.339523
0.339523
0.339523
0.339523
0.339523
0.339523
0.339524
0.339524
0.339524
0.339525
0.339525
0.339533
0.357576
0.357566
0.357562
0.35756
0.357558
0.357557
0.357556
0.357555
0.357555
0.357555
0.357555
0.357555
0.357555
0.357555
0.357555
0.357556
0.357556
0.357557
0.357557
0.357558
0.357559
0.35756
0.357562
0.357563
0.357564
0.357566
0.357567
0.357569
0.357571
0.357573
0.357575
0.357577
0.357579
0.357581
0.357582
0.357584
0.357586
0.357587
0.357589
0.35759
0.357591
0.357592
0.357593
0.357594
0.357595
0.357596
0.357597
0.357598
0.357598
0.357599
0.3576
0.3576
0.357601
0.357601
0.357601
0.357602
0.357602
0.357602
0.357603
0.357603
0.357603
0.357603
0.357604
0.357604
0.357604
0.357604
0.357604
0.357604
0.357604
0.357604
0.357604
0.357605
0.357605
0.357605
0.357605
0.357605
0.357605
0.357605
0.357605
0.357605
0.357605
0.357605
0.357605
0.357605
0.357605
0.357605
0.357605
0.357605
0.357605
0.357605
0.357605
0.357605
0.357605
0.357605
0.357605
0.357605
0.357604
0.357604
0.357604
0.357604
0.357604
0.357604
0.357604
0.357604
0.357604
0.357604
0.357604
0.357603
0.357603
0.357603
0.357603
0.357603
0.357603
0.357604
0.357604
0.357604
0.357605
0.357605
0.357605
0.357612
0.376577
0.376569
0.376565
0.376563
0.376561
0.37656
0.376558
0.376557
0.376557
0.376557
0.376556
0.376556
0.376556
0.376556
0.376556
0.376556
0.376556
0.376557
0.376557
0.376558
0.376559
0.37656
0.376561
0.376562
0.376563
0.376564
0.376566
0.376568
0.37657
0.376572
0.376573
0.376575
0.376577
0.376579
0.37658
0.376582
0.376583
0.376585
0.376586
0.376587
0.376588
0.376589
0.37659
0.376591
0.376592
0.376593
0.376593
0.376594
0.376595
0.376596
0.376596
0.376597
0.376597
0.376598
0.376598
0.376598
0.376599
0.376599
0.376599
0.3766
0.3766
0.3766
0.3766
0.3766
0.376601
0.376601
0.376601
0.376601
0.376601
0.376601
0.376601
0.376601
0.376601
0.376601
0.376601
0.376601
0.376601
0.376601
0.376601
0.376601
0.376601
0.376601
0.376601
0.376601
0.376601
0.376601
0.376601
0.376601
0.376601
0.376601
0.376601
0.376601
0.376601
0.376601
0.376601
0.376601
0.376601
0.376601
0.376601
0.3766
0.3766
0.3766
0.3766
0.3766
0.3766
0.3766
0.376599
0.376599
0.376599
0.376599
0.376598
0.376599
0.376599
0.376599
0.376599
0.3766
0.3766
0.376601
0.3766
0.376606
0.396558
0.396551
0.396548
0.396546
0.396544
0.396542
0.39654
0.396539
0.396539
0.396538
0.396538
0.396538
0.396537
0.396537
0.396537
0.396537
0.396537
0.396537
0.396537
0.396538
0.396538
0.396539
0.39654
0.396541
0.396542
0.396543
0.396544
0.396546
0.396548
0.39655
0.396552
0.396554
0.396555
0.396557
0.396558
0.396559
0.396561
0.396562
0.396563
0.396564
0.396565
0.396566
0.396567
0.396567
0.396568
0.396569
0.39657
0.39657
0.396571
0.396571
0.396572
0.396572
0.396573
0.396573
0.396574
0.396574
0.396574
0.396575
0.396575
0.396575
0.396576
0.396576
0.396576
0.396576
0.396576
0.396576
0.396576
0.396577
0.396577
0.396577
0.396577
0.396577
0.396577
0.396577
0.396577
0.396577
0.396577
0.396577
0.396577
0.396577
0.396577
0.396577
0.396577
0.396577
0.396577
0.396577
0.396577
0.396577
0.396576
0.396576
0.396576
0.396576
0.396576
0.396576
0.396576
0.396576
0.396576
0.396576
0.396576
0.396575
0.396575
0.396575
0.396575
0.396575
0.396574
0.396574
0.396573
0.396573
0.396573
0.396573
0.396573
0.396573
0.396573
0.396573
0.396573
0.396574
0.396574
0.396575
0.396575
0.39658
0.41759
0.417585
0.417582
0.41758
0.417577
0.417576
0.417574
0.417573
0.417572
0.417571
0.417571
0.41757
0.41757
0.417569
0.417569
0.417568
0.417568
0.417568
0.417568
0.417569
0.417569
0.41757
0.41757
0.417571
0.417572
0.417573
0.417575
0.417577
0.417579
0.417581
0.417583
0.417584
0.417585
0.417587
0.417588
0.417589
0.41759
0.417591
0.417591
0.417592
0.417593
0.417594
0.417594
0.417595
0.417596
0.417596
0.417597
0.417598
0.417598
0.417599
0.417599
0.4176
0.4176
0.4176
0.417601
0.417601
0.417601
0.417602
0.417602
0.417602
0.417602
0.417602
0.417603
0.417603
0.417603
0.417603
0.417603
0.417603
0.417603
0.417603
0.417603
0.417603
0.417603
0.417603
0.417603
0.417603
0.417603
0.417603
0.417603
0.417603
0.417603
0.417603
0.417603
0.417603
0.417603
0.417603
0.417603
0.417603
0.417603
0.417603
0.417602
0.417602
0.417602
0.417602
0.417602
0.417602
0.417602
0.417602
0.417601
0.417601
0.417601
0.417601
0.417601
0.4176
0.4176
0.417599
0.417598
0.417598
0.417597
0.417597
0.417597
0.417598
0.417598
0.417598
0.417599
0.417599
0.4176
0.4176
0.4176
0.417604
0.439754
0.439751
0.439748
0.439746
0.439744
0.439742
0.43974
0.439739
0.439738
0.439737
0.439736
0.439735
0.439735
0.439734
0.439733
0.439733
0.439732
0.439732
0.439732
0.439732
0.439732
0.439733
0.439733
0.439734
0.439734
0.439736
0.439738
0.439741
0.439743
0.439745
0.439746
0.439748
0.439749
0.439749
0.43975
0.439751
0.439752
0.439752
0.439753
0.439753
0.439754
0.439754
0.439755
0.439755
0.439756
0.439756
0.439757
0.439757
0.439758
0.439758
0.439758
0.439759
0.439759
0.439759
0.43976
0.43976
0.43976
0.439761
0.439761
0.439761
0.439761
0.439761
0.439761
0.439762
0.439762
0.439762
0.439762
0.439762
0.439762
0.439762
0.439762
0.439762
0.439762
0.439762
0.439762
0.439762
0.439762
0.439762
0.439762
0.439762
0.439762
0.439762
0.439761
0.439761
0.439761
0.439761
0.439761
0.439761
0.439761
0.439761
0.43976
0.43976
0.43976
0.43976
0.43976
0.43976
0.43976
0.439759
0.439759
0.439759
0.439759
0.439759
0.439758
0.439757
0.439756
0.439755
0.439754
0.439754
0.439754
0.439754
0.439754
0.439754
0.439755
0.439755
0.439756
0.439756
0.439757
0.439758
0.439758
0.439761
0.463142
0.463141
0.463139
0.463136
0.463134
0.463132
0.46313
0.463128
0.463127
0.463126
0.463125
0.463124
0.463123
0.463123
0.463122
0.463121
0.46312
0.46312
0.46312
0.463119
0.46312
0.46312
0.46312
0.46312
0.463121
0.463124
0.463127
0.46313
0.463132
0.463134
0.463135
0.463136
0.463136
0.463137
0.463137
0.463137
0.463138
0.463138
0.463138
0.463138
0.463139
0.463139
0.463139
0.46314
0.46314
0.46314
0.463141
0.463141
0.463141
0.463141
0.463142
0.463142
0.463142
0.463142
0.463143
0.463143
0.463143
0.463143
0.463143
0.463144
0.463144
0.463144
0.463144
0.463144
0.463144
0.463144
0.463144
0.463144
0.463144
0.463144
0.463144
0.463144
0.463144
0.463144
0.463144
0.463144
0.463144
0.463144
0.463144
0.463144
0.463144
0.463143
0.463143
0.463143
0.463143
0.463143
0.463143
0.463143
0.463142
0.463142
0.463142
0.463142
0.463142
0.463142
0.463141
0.463141
0.463141
0.463141
0.463141
0.46314
0.46314