/*--------------------------------*- C++ -*----------------------------------*\
  =========                 |
  \\      /  F ield         | OpenFOAM: The Open Source CFD Toolbox
   \\    /   O peration     | Website:  https://openfoam.org
    \\  /    A nd           | Version:  7
     \\/     M anipulation  |
\*---------------------------------------------------------------------------*/
FoamFile
{
    version     2.0;
    format      ascii;
    class       surfaceScalarField;
    location    "4000";
    object      phi;
}
// * * * * * * * * * * * * * * * * * * * * * * * * * * * * * * * * * * * * * //

dimensions      [0 3 -1 0 0 0 0];

internalField   nonuniform List<scalar> 
7768
(
0.000357856
-1.30761e-09
0.000357857
-1.38671e-09
0.000357857
-1.18201e-09
0.000357857
-9.27337e-10
0.000357857
-6.95406e-10
0.000357857
-4.9754e-10
0.000357857
-3.27561e-10
0.000357858
-1.79621e-10
0.000357858
-4.97946e-11
0.000357858
6.4235e-11
0.000357858
1.64104e-10
0.000357858
2.51322e-10
0.000357859
3.27523e-10
0.000357859
3.94365e-10
0.000357859
4.53874e-10
0.000357859
5.07506e-10
0.000357859
5.58765e-10
0.000357859
6.06892e-10
0.00035786
6.70664e-10
0.00035786
7.41671e-10
8.97008e-10
0.000357852
-4.45954e-10
0.000357852
-5.33982e-10
0.000357853
-5.78302e-10
0.000357853
-5.96088e-10
0.000357853
-6.02859e-10
0.000357854
-6.00396e-10
0.000357854
-5.89076e-10
0.000357854
-5.68366e-10
0.000357855
-5.36731e-10
0.000357855
-4.91732e-10
0.000357855
-4.29875e-10
0.000357855
-3.44509e-10
0.000357855
-2.27933e-10
0.000357856
-7.32327e-11
0.000357856
2.54381e-10
-3.29577e-10
0.000348704
-1.51228e-09
0.000348705
-1.5767e-09
0.000348705
-1.36899e-09
0.000348705
-1.11718e-09
0.000348705
-8.88979e-10
0.000348705
-6.93417e-10
0.000348706
-5.23918e-10
0.000348706
-3.74877e-10
0.000348706
-2.42689e-10
0.000348706
-1.25335e-10
0.000348706
-2.14314e-11
0.000348707
7.03245e-11
0.000348707
1.51409e-10
0.000348707
2.23368e-10
0.000348707
2.88225e-10
0.000348707
3.47406e-10
0.000348707
4.04973e-10
0.000348708
4.59677e-10
0.000348708
5.36356e-10
0.000348708
6.21978e-10
0.000348708
8.34239e-10
0.000348708
1.07068e-09
1.2167e-09
0.000348699
-5.57833e-10
0.000348699
-5.98873e-10
0.0003487
-5.81416e-10
0.0003487
-6.93295e-10
0.0003487
-8.73595e-10
0.000348701
-9.21492e-10
0.000348701
-9.2029e-10
0.000348701
-9.08371e-10
0.000348702
-8.92498e-10
0.000348702
-8.71915e-10
0.000348702
-8.45795e-10
0.000348702
-8.1293e-10
0.000348703
-7.71377e-10
0.000348703
-7.18515e-10
0.000348703
-6.50821e-10
0.000348703
-5.61814e-10
0.000348704
-4.43861e-10
0.000348704
-2.93718e-10
0.000348704
3.42491e-11
-5.44898e-10
0.00033975
-1.69966e-09
0.00033975
-1.76172e-09
0.00033975
-1.55284e-09
0.00033975
-1.30198e-09
0.000339751
-1.07609e-09
0.000339751
-8.82397e-10
0.000339751
-7.13474e-10
0.000339751
-5.6362e-10
0.000339751
-4.29396e-10
0.000339752
-3.09029e-10
0.000339752
-2.01371e-10
0.000339752
-1.05326e-10
0.000339752
-1.95839e-11
0.000339752
5.72792e-11
0.000339752
1.27256e-10
0.000339753
1.91744e-10
0.000339753
2.55101e-10
0.000339753
3.16059e-10
0.000339753
3.99918e-10
0.000339753
4.99022e-10
0.000339753
6.72667e-10
0.000339753
9.20562e-10
0.000339753
1.21912e-09
0.000339753
1.43586e-09
0.000339753
1.43931e-09
0.000339753
1.37151e-09
0.000339752
1.30717e-09
0.000339752
1.2539e-09
0.000339752
1.20909e-09
0.000339752
1.16937e-09
0.000339752
1.13276e-09
0.000339751
1.09818e-09
0.000339751
1.06503e-09
0.000339751
1.033e-09
0.000339751
1.00194e-09
0.000339751
9.7181e-10
0.000339751
9.42634e-10
0.00033975
9.14463e-10
0.00033975
8.87377e-10
0.00033975
8.61468e-10
0.00033975
8.36831e-10
0.00033975
8.1354e-10
0.00033975
7.91627e-10
0.00033975
7.71062e-10
0.00033975
7.51738e-10
0.00033975
7.33458e-10
0.000339749
7.15944e-10
0.000339749
6.98843e-10
0.000339749
6.81769e-10
0.000339749
6.64333e-10
0.000339749
6.4618e-10
0.000339749
6.27011e-10
0.000339749
6.06598e-10
0.000339749
5.8479e-10
0.000339749
5.6151e-10
0.000339749
5.36748e-10
0.000339749
5.10547e-10
0.000339748
4.82994e-10
0.000339748
4.54203e-10
0.000339748
4.24309e-10
0.000339748
3.93454e-10
0.000339748
3.61784e-10
0.000339748
3.29435e-10
0.000339748
2.96539e-10
0.000339748
2.63214e-10
0.000339748
2.29566e-10
0.000339748
1.95688e-10
0.000339748
1.61663e-10
0.000339748
1.27561e-10
0.000339747
9.34405e-11
0.000339747
5.9354e-11
0.000339747
2.53442e-11
0.000339747
-8.55282e-12
0.000339747
-4.23063e-11
0.000339747
-7.58896e-11
0.000339747
-1.09279e-10
0.000339747
-1.4245e-10
0.000339747
-1.75379e-10
0.000339747
-2.08037e-10
0.000339747
-2.4039e-10
0.000339747
-2.72398e-10
0.000339747
-3.04007e-10
0.000339746
-3.35152e-10
0.000339746
-3.65754e-10
0.000339746
-3.95713e-10
0.000339746
-4.24907e-10
0.000339746
-4.53191e-10
0.000339746
-4.80383e-10
0.000339746
-5.06268e-10
0.000339746
-5.30569e-10
0.000339746
-5.52962e-10
0.000339746
-5.7298e-10
0.000339746
-5.90122e-10
0.000339746
-6.03421e-10
0.000339746
-6.12104e-10
0.000339746
-6.13446e-10
0.000339745
-6.06316e-10
0.000339745
-5.83552e-10
0.000339745
-5.31494e-10
0.000339745
-6.17814e-10
0.000339746
-7.73243e-10
0.000339746
-8.02735e-10
0.000339746
-7.69467e-10
0.000339746
-8.89969e-10
0.000339746
-1.0943e-09
0.000339747
-1.15697e-09
0.000339747
-1.15805e-09
0.000339747
-1.14234e-09
0.000339747
-1.12006e-09
0.000339748
-1.09242e-09
0.000339748
-1.05935e-09
0.000339748
-1.02011e-09
0.000339748
-9.73054e-10
0.000339748
-9.15845e-10
0.000339749
-8.45216e-10
0.000339749
-7.55157e-10
0.000339749
-6.38211e-10
0.000339749
-4.95242e-10
0.000339749
-1.71013e-10
-7.40643e-10
0.000330988
-1.85919e-09
0.000330989
-1.92884e-09
0.000330989
-1.7255e-09
0.000330989
-1.4773e-09
0.000330989
-1.25354e-09
0.000330989
-1.06144e-09
0.000330989
-8.93121e-10
0.00033099
-7.42707e-10
0.00033099
-6.06804e-10
0.00033099
-4.83812e-10
0.00033099
-3.72783e-10
0.00033099
-2.72819e-10
0.00033099
-1.82774e-10
0.000330991
-1.01347e-10
0.000330991
-2.66024e-11
0.000330991
4.28406e-11
0.000330991
1.1137e-10
0.000330991
1.7814e-10
0.000330991
2.6505e-10
0.000330991
3.74589e-10
0.000330992
4.99374e-10
0.000330992
7.00572e-10
0.000330992
1.00158e-09
0.000330992
1.29786e-09
0.000330992
1.45873e-09
0.000330992
1.48421e-09
0.000330992
1.45186e-09
0.000330992
1.40504e-09
0.000330992
1.35869e-09
0.000330992
1.31529e-09
0.000330991
1.27453e-09
0.000330991
1.23581e-09
0.000330991
1.19869e-09
0.000330991
1.16292e-09
0.000330991
1.12837e-09
0.000330991
1.09498e-09
0.000330991
1.06274e-09
0.00033099
1.03166e-09
0.00033099
1.00181e-09
0.00033099
9.73264e-10
0.00033099
9.46089e-10
0.00033099
9.20349e-10
0.00033099
8.96062e-10
0.00033099
8.73191e-10
0.00033099
8.51624e-10
0.00033099
8.31166e-10
0.00033099
8.11547e-10
0.000330989
7.92429e-10
0.000330989
7.73443e-10
0.000330989
7.54215e-10
0.000330989
7.34404e-10
0.000330989
7.13719e-10
0.000330989
6.91936e-10
0.000330989
6.68903e-10
0.000330989
6.44538e-10
0.000330989
6.18822e-10
0.000330989
5.9179e-10
0.000330989
5.63516e-10
0.000330989
5.34106e-10
0.000330988
5.03681e-10
0.000330988
4.72374e-10
0.000330988
4.40316e-10
0.000330988
4.07638e-10
0.000330988
3.74459e-10
0.000330988
3.4089e-10
0.000330988
3.07031e-10
0.000330988
2.72968e-10
0.000330988
2.38778e-10
0.000330988
2.04526e-10
0.000330988
1.70269e-10
0.000330988
1.36054e-10
0.000330987
1.01922e-10
0.000330987
6.79067e-11
0.000330987
3.4037e-11
0.000330987
3.38087e-13
0.000330987
-3.31667e-11
0.000330987
-6.64546e-11
0.000330987
-9.95012e-11
0.000330987
-1.32278e-10
0.000330987
-1.64753e-10
0.000330987
-1.96882e-10
0.000330987
-2.28615e-10
0.000330987
-2.59887e-10
0.000330987
-2.90619e-10
0.000330987
-3.20713e-10
0.000330986
-3.50051e-10
0.000330986
-3.7849e-10
0.000330986
-4.05855e-10
0.000330986
-4.31938e-10
0.000330986
-4.56475e-10
0.000330986
-4.79159e-10
0.000330986
-4.99558e-10
0.000330986
-5.17207e-10
0.000330986
-5.3126e-10
0.000330986
-5.41003e-10
0.000330986
-5.44488e-10
0.000330986
-5.40225e-10
0.000330986
-5.28598e-10
0.000330986
-4.94055e-10
0.000330986
-6.1281e-10
0.000330986
-8.12184e-10
0.000330986
-8.75361e-10
0.000330986
-8.68214e-10
0.000330986
-9.84578e-10
0.000330986
-1.1797e-09
0.000330986
-1.26099e-09
0.000330986
-1.2832e-09
0.000330986
-1.28197e-09
0.000330986
-1.26814e-09
0.000330987
-1.24511e-09
0.000330987
-1.21422e-09
0.000330987
-1.17582e-09
0.000330987
-1.12903e-09
0.000330987
-1.0722e-09
0.000330987
-1.00259e-09
0.000330988
-9.14953e-10
0.000330988
-8.02126e-10
0.000330988
-6.69244e-10
0.000330988
-3.53003e-10
-9.09763e-10
0.000322416
-1.98592e-09
0.000322416
-2.06914e-09
0.000322416
-1.8787e-09
0.000322417
-1.63745e-09
0.000322417
-1.41752e-09
0.000322417
-1.22757e-09
0.000322417
-1.06018e-09
0.000322417
-9.09575e-10
0.000322417
-7.72422e-10
0.000322418
-6.47265e-10
0.000322418
-5.33332e-10
0.000322418
-4.29908e-10
0.000322418
-3.36007e-10
0.000322418
-2.5045e-10
0.000322418
-1.71378e-10
0.000322419
-9.74176e-11
0.000322419
-2.4361e-11
0.000322419
4.7626e-11
0.000322419
1.35392e-10
0.000322419
2.50923e-10
0.000322419
3.42218e-10
0.000322419
4.86427e-10
0.00032242
7.2689e-10
0.00032242
1.01191e-09
0.00032242
1.27255e-09
0.00032242
1.41225e-09
0.00032242
1.45523e-09
0.00032242
1.44917e-09
0.00032242
1.424e-09
0.00032242
1.39214e-09
0.00032242
1.35805e-09
0.00032242
1.32334e-09
0.00032242
1.28863e-09
0.00032242
1.25425e-09
0.00032242
1.22041e-09
0.00032242
1.18725e-09
0.000322419
1.15489e-09
0.000322419
1.12346e-09
0.000322419
1.09306e-09
0.000322419
1.06381e-09
0.000322419
1.03581e-09
0.000322419
1.00916e-09
0.000322419
9.83885e-10
0.000322419
9.59964e-10
0.000322419
9.37299e-10
0.000322419
9.15713e-10
0.000322419
8.94954e-10
0.000322418
8.74707e-10
0.000322418
8.54626e-10
0.000322418
8.3436e-10
0.000322418
8.13584e-10
0.000322418
7.92021e-10
0.000322418
7.69454e-10
0.000322418
7.45734e-10
0.000322418
7.20779e-10
0.000322418
6.94567e-10
0.000322418
6.67125e-10
0.000322418
6.38522e-10
0.000322418
6.08854e-10
0.000322418
5.78236e-10
0.000322417
5.46788e-10
0.000322417
5.14637e-10
0.000322417
4.81903e-10
0.000322417
4.48699e-10
0.000322417
4.15129e-10
0.000322417
3.81286e-10
0.000322417
3.47253e-10
0.000322417
3.13102e-10
0.000322417
2.78895e-10
0.000322417
2.44684e-10
0.000322417
2.10515e-10
0.000322417
1.76427e-10
0.000322417
1.42451e-10
0.000322417
1.08616e-10
0.000322416
7.49451e-11
0.000322416
4.14617e-11
0.000322416
8.18824e-12
0.000322416
-2.48507e-11
0.000322416
-5.76272e-11
0.000322416
-9.01071e-11
0.000322416
-1.22249e-10
0.000322416
-1.54001e-10
0.000322416
-1.85299e-10
0.000322416
-2.16065e-10
0.000322416
-2.46204e-10
0.000322416
-2.75598e-10
0.000322416
-3.0411e-10
0.000322415
-3.31569e-10
0.000322415
-3.57778e-10
0.000322415
-3.82484e-10
0.000322415
-4.054e-10
0.000322415
-4.26127e-10
0.000322415
-4.44239e-10
0.000322415
-4.59016e-10
0.000322415
-4.69812e-10
0.000322415
-4.75387e-10
0.000322415
-4.74137e-10
0.000322415
-4.71135e-10
0.000322415
-4.52704e-10
0.000322415
-5.67493e-10
0.000322415
-7.63128e-10
0.000322415
-8.53276e-10
0.000322415
-8.82064e-10
0.000322415
-1.00108e-09
0.000322415
-1.18057e-09
0.000322415
-1.2713e-09
0.000322415
-1.31394e-09
0.000322415
-1.33291e-09
0.000322415
-1.33567e-09
0.000322415
-1.32553e-09
0.000322415
-1.30438e-09
0.000322415
-1.27341e-09
0.000322415
-1.23253e-09
0.000322415
-1.18093e-09
0.000322415
-1.11652e-09
0.000322416
-1.03505e-09
0.000322416
-9.29699e-10
0.000322416
-8.09871e-10
0.000322416
-5.05858e-10
-1.04851e-09
0.000314029
-2.07839e-09
0.000314029
-2.17809e-09
0.00031403
-2.0065e-09
0.00031403
-1.77727e-09
0.00031403
-1.56418e-09
0.00031403
-1.37793e-09
0.00031403
-1.21236e-09
0.00031403
-1.06219e-09
0.00031403
-9.24361e-10
0.000314031
-7.97588e-10
0.000314031
-6.81289e-10
0.000314031
-5.74931e-10
0.000314031
-4.77686e-10
0.000314031
-3.88496e-10
0.000314031
-3.05595e-10
0.000314031
-2.27612e-10
0.000314032
-1.50662e-10
0.000314032
-7.41649e-11
0.000314032
1.35545e-11
0.000314032
1.30877e-10
0.000314032
2.04113e-10
0.000314032
3.01872e-10
0.000314033
4.71775e-10
0.000314033
7.00172e-10
0.000314033
9.86135e-10
0.000314033
1.20616e-09
0.000314033
1.32993e-09
0.000314034
1.38346e-09
0.000314034
1.39767e-09
0.000314034
1.39168e-09
0.000314034
1.37525e-09
0.000314034
1.3531e-09
0.000314033
1.32764e-09
0.000314033
1.30025e-09
0.000314033
1.27178e-09
0.000314033
1.2428e-09
0.000314033
1.21372e-09
0.000314033
1.18485e-09
0.000314033
1.15646e-09
0.000314033
1.12878e-09
0.000314033
1.10199e-09
0.000314033
1.07623e-09
0.000314033
1.05161e-09
0.000314033
1.02812e-09
0.000314033
1.00571e-09
0.000314033
9.84233e-10
0.000314033
9.63469e-10
0.000314033
9.43137e-10
0.000314032
9.22921e-10
0.000314032
9.02498e-10
0.000314032
8.81569e-10
0.000314032
8.59874e-10
0.000314032
8.37209e-10
0.000314032
8.13435e-10
0.000314032
7.88471e-10
0.000314032
7.62298e-10
0.000314032
7.34942e-10
0.000314032
7.06468e-10
0.000314032
6.76967e-10
0.000314032
6.46548e-10
0.000314032
6.15327e-10
0.000314032
5.83424e-10
0.000314031
5.50953e-10
0.000314031
5.18022e-10
0.000314031
4.84731e-10
0.000314031
4.51169e-10
0.000314031
4.17414e-10
0.000314031
3.83536e-10
0.000314031
3.49594e-10
0.000314031
3.1564e-10
0.000314031
2.81716e-10
0.000314031
2.47861e-10
0.000314031
2.14105e-10
0.000314031
1.80476e-10
0.000314031
1.46998e-10
0.000314031
1.13693e-10
0.000314031
8.05836e-11
0.00031403
4.76957e-11
0.00031403
1.50575e-11
0.00031403
-1.72966e-11
0.00031403
-4.93247e-11
0.00031403
-8.0975e-11
0.00031403
-1.12184e-10
0.00031403
-1.42874e-10
0.00031403
-1.72951e-10
0.00031403
-2.02302e-10
0.00031403
-2.30791e-10
0.00031403
-2.58255e-10
0.00031403
-2.84504e-10
0.00031403
-3.093e-10
0.000314029
-3.32373e-10
0.000314029
-3.53359e-10
0.000314029
-3.71875e-10
0.000314029
-3.87322e-10
0.000314029
-3.9913e-10
0.000314029
-4.0667e-10
0.000314029
-4.08416e-10
0.000314029
-4.11998e-10
0.000314029
-4.07021e-10
0.000314029
-5.10426e-10
0.000314029
-6.83811e-10
0.000314029
-7.81745e-10
0.000314029
-8.36331e-10
0.000314029
-9.60046e-10
0.000314029
-1.12631e-09
0.000314029
-1.21987e-09
0.000314029
-1.27607e-09
0.000314028
-1.31258e-09
0.000314028
-1.33313e-09
0.000314029
-1.33928e-09
0.000314029
-1.33223e-09
0.000314029
-1.31322e-09
0.000314029
-1.28263e-09
0.000314029
-1.24031e-09
0.000314029
-1.18479e-09
0.000314029
-1.11289e-09
0.000314029
-1.01816e-09
0.000314029
-9.14118e-10
0.000314029
-6.26292e-10
-1.15525e-09
0.000305824
-2.13741e-09
0.000305824
-2.25469e-09
0.000305824
-2.10595e-09
0.000305824
-1.89329e-09
0.000305825
-1.69053e-09
0.000305825
-1.51022e-09
0.000305825
-1.34785e-09
0.000305825
-1.19908e-09
0.000305825
-1.06132e-09
0.000305825
-9.33585e-10
0.000305825
-8.15526e-10
0.000305826
-7.06809e-10
0.000305826
-6.06774e-10
0.000305826
-5.14484e-10
0.000305826
-4.28282e-10
0.000305826
-3.468e-10
0.000305826
-2.66558e-10
0.000305826
-1.86296e-10
0.000305826
-9.88691e-11
0.000305827
1.72043e-11
0.000305827
8.24319e-11
0.000305827
1.48789e-10
0.000305827
2.59471e-10
0.000305827
4.20393e-10
0.000305828
6.80773e-10
0.000305828
9.33039e-10
0.000305828
1.11604e-09
0.000305828
1.22789e-09
0.000305828
1.2887e-09
0.000305828
1.31751e-09
0.000305828
1.32694e-09
0.000305828
1.3244e-09
0.000305828
1.31418e-09
0.000305828
1.29887e-09
0.000305828
1.28015e-09
0.000305828
1.25915e-09
0.000305828
1.23667e-09
0.000305828
1.21331e-09
0.000305828
1.18955e-09
0.000305828
1.16576e-09
0.000305828
1.14228e-09
0.000305828
1.11933e-09
0.000305828
1.09707e-09
0.000305828
1.0756e-09
0.000305828
1.05489e-09
0.000305828
1.03485e-09
0.000305828
1.0153e-09
0.000305828
9.95999e-10
0.000305828
9.7668e-10
0.000305828
9.57053e-10
0.000305828
9.36846e-10
0.000305828
9.15825e-10
0.000305828
8.93805e-10
0.000305828
8.70659e-10
0.000305828
8.46318e-10
0.000305828
8.20767e-10
0.000305827
7.94034e-10
0.000305827
7.66186e-10
0.000305827
7.37313e-10
0.000305827
7.07523e-10
0.000305827
6.76928e-10
0.000305827
6.45644e-10
0.000305827
6.13783e-10
0.000305827
5.8145e-10
0.000305827
5.48742e-10
0.000305827
5.15745e-10
0.000305827
4.82538e-10
0.000305827
4.49186e-10
0.000305827
4.15749e-10
0.000305827
3.82278e-10
0.000305827
3.48816e-10
0.000305827
3.15398e-10
0.000305826
2.82057e-10
0.000305826
2.4882e-10
0.000305826
2.15712e-10
0.000305826
1.82755e-10
0.000305826
1.49973e-10
0.000305826
1.17392e-10
0.000305826
8.50412e-11
0.000305826
5.29559e-11
0.000305826
2.11785e-11
0.000305826
-1.02388e-11
0.000305826
-4.12329e-11
0.000305826
-7.17265e-11
0.000305826
-1.01627e-10
0.000305826
-1.30824e-10
0.000305825
-1.59186e-10
0.000305825
-1.86555e-10
0.000305825
-2.1275e-10
0.000305825
-2.37546e-10
0.000305825
-2.60692e-10
0.000305825
-2.81859e-10
0.000305825
-3.00705e-10
0.000305825
-3.16749e-10
0.000305825
-3.29502e-10
0.000305825
-3.38842e-10
0.000305825
-3.43435e-10
0.000305825
-3.52123e-10
0.000305825
-3.57584e-10
0.000305825
-4.50414e-10
0.000305824
-5.98922e-10
0.000305824
-6.91844e-10
0.000305824
-7.58061e-10
0.000305824
-8.82454e-10
0.000305824
-1.03748e-09
0.000305824
-1.13036e-09
0.000305824
-1.19342e-09
0.000305824
-1.24163e-09
0.000305824
-1.27667e-09
0.000305824
-1.29827e-09
0.000305824
-1.30621e-09
0.000305824
-1.30113e-09
0.000305824
-1.28329e-09
0.000305824
-1.25292e-09
0.000305824
-1.20896e-09
0.000305824
-1.14927e-09
0.000305824
-1.06769e-09
0.000305824
-9.81676e-10
0.000305824
-7.13469e-10
-1.23007e-09
0.000297797
-2.16523e-09
0.000297797
-2.3003e-09
0.000297797
-2.17678e-09
0.000297797
-1.98413e-09
0.000297797
-1.79493e-09
0.000297797
-1.62301e-09
0.000297797
-1.46554e-09
0.000297798
-1.31938e-09
0.000297798
-1.18259e-09
0.000297798
-1.05465e-09
0.000297798
-9.3549e-10
0.000297798
-8.25021e-10
0.000297798
-7.22767e-10
0.000297798
-6.27922e-10
0.000297798
-5.38953e-10
0.000297799
-4.54499e-10
0.000297799
-3.71519e-10
0.000297799
-2.88216e-10
0.000297799
-2.01064e-10
0.000297799
-8.80238e-11
0.000297799
-2.54811e-11
0.000297799
2.22944e-11
0.000297799
9.05102e-11
0.0002978
1.91538e-10
0.0002978
4.0276e-10
0.0002978
6.48132e-10
0.0002978
8.59578e-10
0.000297801
1.01439e-09
0.000297801
1.11769e-09
0.000297801
1.18279e-09
0.000297801
1.2217e-09
0.000297801
1.2429e-09
0.000297801
1.25195e-09
0.000297801
1.25249e-09
0.000297801
1.24697e-09
0.000297801
1.23708e-09
0.000297801
1.22404e-09
0.000297801
1.20878e-09
0.000297801
1.19199e-09
0.000297801
1.17427e-09
0.000297801
1.15606e-09
0.000297801
1.13773e-09
0.000297801
1.11952e-09
0.000297801
1.1016e-09
0.000297801
1.084e-09
0.000297801
1.0667e-09
0.000297801
1.04958e-09
0.000297801
1.03243e-09
0.000297801
1.01505e-09
0.000297801
9.97169e-10
0.000297801
9.78567e-10
0.000297801
9.59036e-10
0.000297801
9.38413e-10
0.000297801
9.16592e-10
0.000297801
8.93516e-10
0.000297801
8.69179e-10
0.000297801
8.4362e-10
0.000297801
8.16909e-10
0.000297801
7.89138e-10
0.000297801
7.60415e-10
0.0002978
7.30855e-10
0.0002978
7.00572e-10
0.0002978
6.69678e-10
0.0002978
6.38277e-10
0.0002978
6.06465e-10
0.0002978
5.74329e-10
0.0002978
5.41945e-10
0.0002978
5.09381e-10
0.0002978
4.76696e-10
0.0002978
4.43942e-10
0.0002978
4.11162e-10
0.0002978
3.78394e-10
0.0002978
3.45669e-10
0.0002978
3.13017e-10
0.0002978
2.80462e-10
0.0002978
2.48029e-10
0.000297799
2.15743e-10
0.000297799
1.8363e-10
0.000297799
1.51722e-10
0.000297799
1.20054e-10
0.000297799
8.86704e-11
0.000297799
5.76228e-11
0.000297799
2.6975e-11
0.000297799
-3.19661e-12
0.000297799
-3.2801e-11
0.000297799
-6.17291e-11
0.000297799
-8.98537e-11
0.000297799
-1.17023e-10
0.000297799
-1.43063e-10
0.000297799
-1.67763e-10
0.000297799
-1.90891e-10
0.000297798
-2.12153e-10
0.000297798
-2.31245e-10
0.000297798
-2.47801e-10
0.000297798
-2.6141e-10
0.000297798
-2.72365e-10
0.000297798
-2.79572e-10
0.000297798
-2.92296e-10
0.000297798
-3.05518e-10
0.000297798
-3.90007e-10
0.000297798
-5.17146e-10
0.000297798
-6.00027e-10
0.000297798
-6.67292e-10
0.000297798
-7.86478e-10
0.000297797
-9.30062e-10
0.000297797
-1.01997e-09
0.000297797
-1.0849e-09
0.000297797
-1.1389e-09
0.000297797
-1.18335e-09
0.000297797
-1.21693e-09
0.000297797
-1.23809e-09
0.000297797
-1.2465e-09
0.000297797
-1.24189e-09
0.000297797
-1.22456e-09
0.000297797
-1.19356e-09
0.000297797
-1.14772e-09
0.000297797
-1.081e-09
0.000297797
-1.01455e-09
0.000297797
-7.68699e-10
-1.27457e-09
0.000289944
-2.1652e-09
0.000289944
-2.31787e-09
0.000289944
-2.22074e-09
0.000289944
-2.05038e-09
0.000289944
-1.87729e-09
0.000289944
-1.71598e-09
0.000289945
-1.56515e-09
0.000289945
-1.42289e-09
0.000289945
-1.28808e-09
0.000289945
-1.16074e-09
0.000289945
-1.04117e-09
0.000289945
-9.2956e-10
0.000289945
-8.25656e-10
0.000289945
-7.2879e-10
0.000289945
-6.37568e-10
0.000289945
-5.5065e-10
0.000289946
-4.65434e-10
0.000289946
-3.79743e-10
0.000289946
-2.92782e-10
0.000289946
-1.83582e-10
0.000289946
-1.21351e-10
0.000289946
-8.31931e-11
0.000289946
-4.22169e-11
0.000289946
1.32309e-11
0.000289947
1.71101e-10
0.000289947
3.86304e-10
0.000289947
5.98756e-10
0.000289947
7.75879e-10
0.000289948
9.09988e-10
0.000289948
1.00629e-09
0.000289948
1.07338e-09
0.000289948
1.11894e-09
0.000289948
1.14881e-09
0.000289948
1.16713e-09
0.000289948
1.17687e-09
0.000289948
1.18018e-09
0.000289948
1.17863e-09
0.000289948
1.17342e-09
0.000289948
1.16549e-09
0.000289948
1.1556e-09
0.000289948
1.14434e-09
0.000289948
1.1322e-09
0.000289948
1.1195e-09
0.000289948
1.1065e-09
0.000289948
1.09331e-09
0.000289948
1.07995e-09
0.000289948
1.06637e-09
0.000289948
1.05242e-09
0.000289948
1.03793e-09
0.000289948
1.0227e-09
0.000289948
1.00654e-09
0.000289948
9.89277e-10
0.000289948
9.70771e-10
0.000289948
9.5094e-10
0.000289948
9.29746e-10
0.000289948
9.07199e-10
0.000289948
8.83345e-10
0.000289948
8.58264e-10
0.000289948
8.32054e-10
0.000289948
8.04828e-10
0.000289948
7.76702e-10
0.000289948
7.47794e-10
0.000289948
7.18216e-10
0.000289948
6.88074e-10
0.000289948
6.57465e-10
0.000289948
6.26477e-10
0.000289948
5.95189e-10
0.000289948
5.63671e-10
0.000289948
5.31982e-10
0.000289947
5.00175e-10
0.000289947
4.68298e-10
0.000289947
4.36387e-10
0.000289947
4.04479e-10
0.000289947
3.72601e-10
0.000289947
3.40783e-10
0.000289947
3.09049e-10
0.000289947
2.77426e-10
0.000289947
2.45944e-10
0.000289947
2.14633e-10
0.000289947
1.83532e-10
0.000289947
1.52685e-10
0.000289947
1.22144e-10
0.000289947
9.19746e-11
0.000289947
6.22515e-11
0.000289947
3.3065e-11
0.000289946
4.522e-12
0.000289946
-2.32539e-11
0.000289946
-5.01161e-11
0.000289946
-7.58995e-11
0.000289946
-1.00406e-10
0.000289946
-1.23422e-10
0.000289946
-1.44687e-10
0.000289946
-1.63938e-10
0.000289946
-1.80909e-10
0.000289946
-1.95274e-10
0.000289946
-2.07651e-10
0.000289946
-2.17192e-10
0.000289946
-2.33152e-10
0.000289946
-2.5203e-10
0.000289946
-3.30021e-10
0.000289945
-4.40513e-10
0.000289945
-5.13137e-10
0.000289945
-5.75858e-10
0.000289945
-6.85263e-10
0.000289945
-8.16095e-10
0.000289945
-9.01057e-10
0.000289945
-9.64427e-10
0.000289945
-1.0195e-09
0.000289945
-1.0683e-09
0.000289944
-1.10943e-09
0.000289944
-1.14047e-09
0.000289944
-1.16022e-09
0.000289944
-1.16771e-09
0.000289944
-1.16303e-09
0.000289944
-1.14516e-09
0.000289944
-1.11373e-09
0.000289944
-1.06265e-09
0.000289944
-1.01654e-09
0.000289944
-7.94998e-10
-1.29167e-09
0.000282262
-2.1414e-09
0.000282262
-2.31128e-09
0.000282262
-2.24091e-09
0.000282262
-2.09408e-09
0.000282262
-1.93883e-09
0.000282262
-1.7899e-09
0.000282262
-1.64724e-09
0.000282263
-1.51013e-09
0.000282263
-1.37829e-09
0.000282263
-1.25233e-09
0.000282263
-1.13303e-09
0.000282263
-1.02088e-09
0.000282263
-9.15864e-10
0.000282263
-8.17479e-10
0.000282263
-7.24481e-10
0.000282263
-6.35566e-10
0.000282263
-5.48552e-10
0.000282263
-4.61038e-10
0.000282264
-3.74195e-10
0.000282264
-2.68998e-10
0.000282264
-2.06239e-10
0.000282264
-1.7214e-10
0.000282264
-1.46865e-10
0.000282264
-1.2244e-10
0.000282264
-1.16913e-11
0.000282264
1.64144e-10
0.000282265
3.5891e-10
0.000282265
5.39287e-10
0.000282265
6.8974e-10
0.000282265
8.08028e-10
0.000282265
8.98116e-10
0.000282266
9.65491e-10
0.000282266
1.01519e-09
0.000282266
1.05126e-09
0.000282266
1.0768e-09
0.000282266
1.09418e-09
0.000282266
1.10518e-09
0.000282266
1.11121e-09
0.000282266
1.11337e-09
0.000282266
1.11256e-09
0.000282266
1.10949e-09
0.000282266
1.10473e-09
0.000282266
1.09872e-09
0.000282266
1.09176e-09
0.000282266
1.08404e-09
0.000282266
1.07563e-09
0.000282266
1.06655e-09
0.000282266
1.0567e-09
0.000282266
1.04595e-09
0.000282266
1.03417e-09
0.000282266
1.02119e-09
0.000282266
1.00688e-09
0.000282266
9.91139e-10
0.000282266
9.739e-10
0.000282266
9.5515e-10
0.000282266
9.34913e-10
0.000282266
9.13252e-10
0.000282266
8.90255e-10
0.000282266
8.6603e-10
0.000282266
8.40696e-10
0.000282266
8.14375e-10
0.000282266
7.87188e-10
0.000282266
7.59251e-10
0.000282266
7.30673e-10
0.000282266
7.01555e-10
0.000282266
6.71988e-10
0.000282266
6.42052e-10
0.000282266
6.1182e-10
0.000282266
5.81357e-10
0.000282266
5.50717e-10
0.000282266
5.1995e-10
0.000282266
4.89096e-10
0.000282266
4.58193e-10
0.000282265
4.27273e-10
0.000282265
3.96365e-10
0.000282265
3.65498e-10
0.000282265
3.34701e-10
0.000282265
3.04003e-10
0.000282265
2.7344e-10
0.000282265
2.43049e-10
0.000282265
2.12877e-10
0.000282265
1.82977e-10
0.000282265
1.53413e-10
0.000282265
1.24262e-10
0.000282265
9.56112e-11
0.000282265
6.75667e-11
0.000282265
4.02486e-11
0.000282265
1.37978e-11
0.000282265
-1.16282e-11
0.000282265
-3.58446e-11
0.000282264
-5.86552e-11
0.000282264
-7.98319e-11
0.000282264
-9.91491e-11
0.000282264
-1.16437e-10
0.000282264
-1.31447e-10
0.000282264
-1.45053e-10
0.000282264
-1.56637e-10
0.000282264
-1.75202e-10
0.000282264
-1.98178e-10
0.000282264
-2.70924e-10
0.000282264
-3.68836e-10
0.000282264
-4.32995e-10
0.000282264
-4.89367e-10
0.000282264
-5.86788e-10
0.000282263
-7.03809e-10
0.000282263
-7.82179e-10
0.000282263
-8.41662e-10
0.000282263
-8.94485e-10
0.000282263
-9.43522e-10
0.000282263
-9.8791e-10
0.000282263
-1.02502e-09
0.000282263
-1.05307e-09
0.000282263
-1.07043e-09
0.000282262
-1.07695e-09
0.000282262
-1.07131e-09
0.000282262
-1.0539e-09
0.000282262
-1.01838e-09
0.000282262
-9.92629e-10
0.000282262
-7.96577e-10
-1.28526e-09
0.000274748
-2.09831e-09
0.000274748
-2.2849e-09
0.000274748
-2.24114e-09
0.000274748
-2.11831e-09
0.000274748
-1.98186e-09
0.000274748
-1.84648e-09
0.000274748
-1.71317e-09
0.000274748
-1.58224e-09
0.000274748
-1.45423e-09
0.000274748
-1.3304e-09
0.000274748
-1.21198e-09
0.000274748
-1.09983e-09
0.000274748
-9.94185e-10
0.000274748
-8.94725e-10
0.000274749
-8.00371e-10
0.000274749
-7.09871e-10
0.000274749
-6.2143e-10
0.000274749
-5.32554e-10
0.000274749
-4.45781e-10
0.000274749
-3.44377e-10
0.000274749
-2.80924e-10
0.000274749
-2.47741e-10
0.000274749
-2.30308e-10
0.000274749
-2.24875e-10
0.000274749
-1.51082e-10
0.00027475
-1.43574e-11
0.00027475
1.53141e-10
0.00027475
3.22785e-10
0.00027475
4.76181e-10
0.00027475
6.05944e-10
0.000274751
7.11657e-10
0.000274751
7.96005e-10
0.000274751
8.62529e-10
0.000274751
9.14587e-10
0.000274751
9.55024e-10
0.000274751
9.86138e-10
0.000274751
1.00976e-09
0.000274751
1.02737e-09
0.000274751
1.04015e-09
0.000274752
1.04907e-09
0.000274752
1.05492e-09
0.000274752
1.05834e-09
0.000274752
1.05981e-09
0.000274752
1.05969e-09
0.000274752
1.05822e-09
0.000274752
1.05554e-09
0.000274752
1.0517e-09
0.000274752
1.04665e-09
0.000274752
1.04034e-09
0.000274752
1.03264e-09
0.000274752
1.02346e-09
0.000274752
1.01268e-09
0.000274752
1.00024e-09
0.000274752
9.86102e-10
0.000274752
9.70272e-10
0.000274752
9.52793e-10
0.000274752
9.33743e-10
0.000274752
9.13223e-10
0.000274752
8.91351e-10
0.000274752
8.68254e-10
0.000274752
8.44061e-10
0.000274752
8.18901e-10
0.000274752
7.92892e-10
0.000274752
7.6615e-10
0.000274751
7.38779e-10
0.000274751
7.10873e-10
0.000274751
6.82519e-10
0.000274751
6.53793e-10
0.000274751
6.24763e-10
0.000274751
5.95488e-10
0.000274751
5.6602e-10
0.000274751
5.36404e-10
0.000274751
5.0668e-10
0.000274751
4.76884e-10
0.000274751
4.47047e-10
0.000274751
4.17202e-10
0.000274751
3.87379e-10
0.000274751
3.5761e-10
0.000274751
3.27932e-10
0.000274751
2.98385e-10
0.000274751
2.69017e-10
0.000274751
2.39882e-10
0.000274751
2.11045e-10
0.000274751
1.8258e-10
0.00027475
1.54577e-10
0.00027475
1.27138e-10
0.00027475
1.00381e-10
0.00027475
7.44412e-11
0.00027475
4.94683e-11
0.00027475
2.5635e-11
0.00027475
3.12017e-12
0.00027475
-1.78791e-11
0.00027475
-3.71734e-11
0.00027475
-5.46774e-11
0.00027475
-7.02188e-11
0.00027475
-8.48685e-11
0.00027475
-9.8209e-11
0.00027475
-1.18865e-10
0.00027475
-1.44809e-10
0.00027475
-2.13147e-10
0.00027475
-3.01487e-10
0.000274749
-3.59328e-10
0.000274749
-4.09663e-10
0.000274749
-4.94974e-10
0.000274749
-5.98042e-10
0.000274749
-6.68747e-10
0.000274749
-7.22894e-10
0.000274749
-7.71363e-10
0.000274749
-8.17707e-10
0.000274749
-8.61881e-10
0.000274748
-9.01497e-10
0.000274748
-9.34624e-10
0.000274748
-9.5915e-10
0.000274748
-9.74739e-10
0.000274748
-9.79731e-10
0.000274748
-9.75216e-10
0.000274748
-9.54474e-10
0.000274748
-9.48421e-10
0.000274748
-7.78328e-10
-1.25981e-09
0.000267397
-2.0406e-09
0.000267397
-2.24327e-09
0.000267397
-2.22561e-09
0.000267397
-2.12666e-09
0.000267397
-2.00932e-09
0.000267398
-1.88811e-09
0.000267398
-1.7649e-09
0.000267398
-1.64089e-09
0.000267398
-1.5174e-09
0.000267398
-1.39629e-09
0.000267398
-1.27926e-09
0.000267398
-1.16756e-09
0.000267398
-1.0617e-09
0.000267398
-9.61536e-10
0.000267398
-8.66175e-10
0.000267398
-7.74428e-10
0.000267398
-6.84858e-10
0.000267398
-5.94977e-10
0.000267398
-5.08238e-10
0.000267398
-4.10233e-10
0.000267398
-3.46149e-10
0.000267399
-3.12245e-10
0.000267399
-2.97702e-10
0.000267399
-3.02414e-10
0.000267399
-2.55219e-10
0.000267399
-1.52327e-10
0.000267399
-1.45967e-11
0.000267399
1.3614e-10
0.000267399
2.82266e-10
0.0002674
4.13892e-10
0.0002674
5.27376e-10
0.0002674
6.22756e-10
0.0002674
7.01807e-10
0.0002674
7.66838e-10
0.0002674
8.2011e-10
0.000267401
8.63618e-10
0.000267401
8.99049e-10
0.000267401
9.27807e-10
0.000267401
9.51059e-10
0.000267401
9.69781e-10
0.000267401
9.84775e-10
0.000267401
9.96693e-10
0.000267401
1.00605e-09
0.000267401
1.01322e-09
0.000267401
1.01849e-09
0.000267401
1.02203e-09
0.000267401
1.02392e-09
0.000267401
1.02419e-09
0.000267401
1.02278e-09
0.000267401
1.01965e-09
0.000267401
1.01471e-09
0.000267401
1.0079e-09
0.000267401
9.99174e-10
0.000267401
9.8853e-10