/*--------------------------------*- C++ -*----------------------------------*\
  =========                 |
  \\      /  F ield         | OpenFOAM: The Open Source CFD Toolbox
   \\    /   O peration     | Website:  https://openfoam.org
    \\  /    A nd           | Version:  7
     \\/     M anipulation  |
\*---------------------------------------------------------------------------*/
FoamFile
{
    version     2.0;
    format      ascii;
    class       volScalarField;
    location    "4000";
    object      k;
}
// * * * * * * * * * * * * * * * * * * * * * * * * * * * * * * * * * * * * * //

dimensions      [0 2 -2 0 0 0 0];

internalField   nonuniform List<scalar> 
4026
(
0.000183606
0.000183606
0.000183605
0.000183605
0.000183605
0.000183604
0.000183604
0.000183604
0.000183604
0.000183604
0.000183604
0.000183604
0.000183605
0.000183605
0.000183605
0.000183606
0.000183606
0.000183607
0.000183607
0.000183608
0.000183608
0.000183609
0.00018361
0.00018361
0.000183611
0.000183611
0.000183612
0.000183612
0.000183613
0.000183614
0.000183614
0.000183615
0.000183615
0.000183616
0.000183616
0.000183617
0.000183617
0.000183617
0.000183618
0.000183618
0.000183619
0.000183619
0.000183619
0.000183619
0.00018362
0.000183607
0.000183607
0.000183607
0.000183606
0.000183606
0.000183606
0.000183606
0.000183606
0.000183606
0.000183606
0.000183606
0.000183606
0.000183606
0.000183606
0.000183606
0.000183606
0.000182964
0.000182964
0.000182963
0.000182963
0.000182963
0.000182963
0.000182963
0.000182963
0.000182963
0.000182963
0.000182963
0.000182963
0.000182963
0.000182964
0.000182964
0.000182965
0.000182965
0.000182966
0.000182966
0.000182967
0.000182967
0.000182968
0.000182968
0.000182969
0.00018297
0.00018297
0.000182971
0.000182971
0.000182972
0.000182972
0.000182973
0.000182973
0.000182974
0.000182974
0.000182975
0.000182975
0.000182976
0.000182976
0.000182976
0.000182977
0.000182977
0.000182977
0.000182977
0.000182978
0.000182978
0.000182965
0.000182965
0.000182964
0.000182964
0.000182964
0.000182964
0.000182964
0.000182964
0.000182964
0.000182964
0.000182964
0.000182964
0.000182964
0.000182964
0.000182964
0.000182964
0.00018224
0.00018224
0.000182239
0.000182239
0.000182239
0.000182239
0.000182239
0.000182239
0.000182239
0.000182239
0.00018224
0.00018224
0.00018224
0.00018224
0.000182241
0.000182241
0.000182242
0.000182242
0.000182243
0.000182243
0.000182244
0.000182244
0.000182245
0.000182245
0.000182246
0.000182247
0.000182247
0.000182248
0.000182248
0.000182249
0.000182249
0.00018225
0.00018225
0.000182251
0.000182251
0.000182251
0.000182252
0.000182252
0.000182252
0.000182253
0.000182253
0.000182253
0.000182254
0.000182254
0.000182254
0.000182241
0.000182241
0.00018224
0.00018224
0.00018224
0.000182239
0.000182239
0.000182239
0.000182239
0.000182239
0.000182239
0.000182239
0.000182239
0.00018224
0.00018224
0.00018224
0.000181437
0.000181437
0.000181437
0.000181437
0.000181436
0.000181436
0.000181437
0.000181437
0.000181437
0.000181437
0.000181437
0.000181438
0.000181438
0.000181438
0.000181439
0.000181439
0.00018144
0.00018144
0.000181441
0.000181441
0.000181442
0.000181442
0.000181443
0.000181443
0.000181444
0.000181444
0.000181445
0.000181445
0.000181446
0.000181446
0.000181447
0.000181447
0.000181448
0.000181448
0.000181449
0.000181449
0.000181449
0.00018145
0.00018145
0.00018145
0.00018145
0.000181451
0.000181451
0.000181451
0.000181451
0.000181438
0.000181438
0.000181437
0.000181437
0.000181437
0.000181436
0.000181436
0.000181436
0.000181436
0.000181436
0.000181436
0.000181436
0.000181436
0.000181437
0.000181437
0.000181437
0.000180558
0.000180558
0.000180558
0.000180558
0.000180558
0.000180558
0.000180558
0.000180559
0.000180559
0.000180559
0.000180559
0.00018056
0.00018056
0.00018056
0.000180561
0.000180561
0.000180562
0.000180562
0.000180563
0.000180563
0.000180564
0.000180564
0.000180565
0.000180565
0.000180566
0.000180566
0.000180567
0.000180567
0.000180568
0.000180568
0.000180569
0.000180569
0.00018057
0.00018057
0.00018057
0.000180571
0.000180571
0.000180571
0.000180572
0.000180572
0.000180572
0.000180572
0.000180573
0.000180573
0.000180573
0.00018056
0.000180559
0.000180559
0.000180558
0.000180558
0.000180558
0.000180558
0.000180558
0.000180558
0.000180558
0.000180558
0.000180558
0.000180558
0.000180558
0.000180558
0.000180558
0.000179607
0.000179607
0.000179607
0.000179607
0.000179607
0.000179607
0.000179607
0.000179608
0.000179608
0.000179608
0.000179609
0.000179609
0.000179609
0.00017961
0.00017961
0.000179611
0.000179611
0.000179612
0.000179612
0.000179613
0.000179613
0.000179614
0.000179614
0.000179615
0.000179615
0.000179616
0.000179616
0.000179617
0.000179617
0.000179617
0.000179618
0.000179618
0.000179619
0.000179619
0.000179619
0.00017962
0.00017962
0.00017962
0.000179621
0.000179621
0.000179621
0.000179621
0.000179621
0.000179621
0.000179622
0.000179608
0.000179608
0.000179607
0.000179607
0.000179607
0.000179606
0.000179606
0.000179606
0.000179606
0.000179606
0.000179606
0.000179606
0.000179606
0.000179606
0.000179607
0.000179607
0.000178585
0.000178585
0.000178585
0.000178585
0.000178586
0.000178586
0.000178586
0.000178586
0.000178587
0.000178587
0.000178587
0.000178588
0.000178588
0.000178589
0.000178589
0.00017859
0.00017859
0.000178591
0.000178591
0.000178592
0.000178592
0.000178593
0.000178593
0.000178594
0.000178594
0.000178594
0.000178595
0.000178595
0.000178596
0.000178596
0.000178597
0.000178597
0.000178597
0.000178598
0.000178598
0.000178598
0.000178599
0.000178599
0.000178599
0.000178599
0.000178599
0.0001786
0.0001786
0.0001786
0.0001786
0.000178587
0.000178586
0.000178586
0.000178585
0.000178585
0.000178585
0.000178585
0.000178585
0.000178585
0.000178585
0.000178585
0.000178585
0.000178585
0.000178585
0.000178585
0.000178585
0.000177495
0.000177495
0.000177496
0.000177496
0.000177496
0.000177496
0.000177497
0.000177497
0.000177497
0.000177498
0.000177498
0.000177499
0.000177499
0.0001775
0.0001775
0.000177501
0.000177501
0.000177502
0.000177502
0.000177502
0.000177503
0.000177503
0.000177504
0.000177504
0.000177505
0.000177505
0.000177506
0.000177506
0.000177507
0.000177507
0.000177507
0.000177508
0.000177508
0.000177508
0.000177509
0.000177509
0.000177509
0.000177509
0.000177509
0.00017751
0.00017751
0.00017751
0.00017751
0.00017751
0.00017751
0.000177497
0.000177496
0.000177496
0.000177496
0.000177495
0.000177495
0.000177495
0.000177495
0.000177495
0.000177495
0.000177495
0.000177495
0.000177495
0.000177495
0.000177495
0.000177495
0.00017634
0.00017634
0.00017634
0.00017634
0.000176341
0.000176341
0.000176342
0.000176342
0.000176342
0.000176343
0.000176343
0.000176344
0.000176344
0.000176345
0.000176345
0.000176346
0.000176346
0.000176346
0.000176347
0.000176347
0.000176348
0.000176348
0.000176349
0.000176349
0.00017635
0.00017635
0.000176351
0.000176351
0.000176351
0.000176352
0.000176352
0.000176352
0.000176353
0.000176353
0.000176353
0.000176353
0.000176354
0.000176354
0.000176354
0.000176354
0.000176354
0.000176354
0.000176354
0.000176355
0.000176355
0.000176341
0.000176341
0.00017634
0.00017634
0.00017634
0.00017634
0.000176339
0.000176339
0.000176339
0.000176339
0.000176339
0.000176339
0.000176339
0.000176339
0.000176339
0.000176339
0.00017512
0.000175121
0.000175121
0.000175121
0.000175122
0.000175122
0.000175122
0.000175123
0.000175123
0.000175124
0.000175124
0.000175125
0.000175125
0.000175126
0.000175126
0.000175127
0.000175127
0.000175128
0.000175128
0.000175129
0.000175129
0.000175129
0.00017513
0.00017513
0.000175131
0.000175131
0.000175132
0.000175132
0.000175132
0.000175133
0.000175133
0.000175133
0.000175134
0.000175134
0.000175134
0.000175134
0.000175134
0.000175135
0.000175135
0.000175135
0.000175135
0.000175135
0.000175135
0.000175135
0.000175135
0.000175122
0.000175122
0.000175121
0.000175121
0.000175121
0.00017512
0.00017512
0.00017512
0.00017512
0.00017512
0.00017512
0.00017512
0.00017512
0.00017512
0.00017512
0.00017512
0.000173839
0.000173839
0.00017384
0.00017384
0.000173841
0.000173841
0.000173842
0.000173842
0.000173843
0.000173843
0.000173843
0.000173844
0.000173844
0.000173845
0.000173845
0.000173846
0.000173846
0.000173847
0.000173847
0.000173848
0.000173848
0.000173849
0.000173849
0.00017385
0.00017385
0.00017385
0.000173851
0.000173851
0.000173851
0.000173852
0.000173852
0.000173852
0.000173853
0.000173853
0.000173853
0.000173853
0.000173853
0.000173854
0.000173854
0.000173854
0.000173854
0.000173854
0.000173854
0.000173854
0.000173854
0.000173841
0.000173841
0.00017384
0.00017384
0.00017384
0.000173839
0.000173839
0.000173839
0.000173839
0.000173839
0.000173839
0.000173839
0.000173839
0.000173839
0.000173839
0.000173839
0.000172498
0.000172499
0.000172499
0.000172499
0.0001725
0.0001725
0.000172501
0.000172501
0.000172502
0.000172502
0.000172503
0.000172503
0.000172504
0.000172504
0.000172505
0.000172505
0.000172506
0.000172506
0.000172507
0.000172507
0.000172508
0.000172508
0.000172509
0.000172509
0.000172509
0.00017251
0.00017251
0.00017251
0.000172511
0.000172511
0.000172511
0.000172512
0.000172512
0.000172512
0.000172512
0.000172512
0.000172512
0.000172513
0.000172513
0.000172513
0.000172513
0.000172513
0.000172513
0.000172513
0.000172513
0.0001725
0.0001725
0.000172499
0.000172499
0.000172499
0.000172499
0.000172498
0.000172498
0.000172498
0.000172498
0.000172498
0.000172498
0.000172498
0.000172498
0.000172498
0.000172498
0.000171099
0.0001711
0.0001711
0.000171101
0.000171101
0.000171102
0.000171102
0.000171103
0.000171103
0.000171104
0.000171104
0.000171105
0.000171106
0.000171106
0.000171107
0.000171107
0.000171108
0.000171108
0.000171109
0.000171109
0.000171109
0.00017111
0.00017111
0.000171111
0.000171111
0.000171111
0.000171112
0.000171112
0.000171112
0.000171112
0.000171113
0.000171113
0.000171113
0.000171113
0.000171113
0.000171114
0.000171114
0.000171114
0.000171114
0.000171114
0.000171114
0.000171114
0.000171114
0.000171114
0.000171114
0.000171101
0.000171101
0.000171101
0.0001711
0.0001711
0.0001711
0.0001711
0.0001711
0.0001711
0.000171099
0.000171099
0.000171099
0.000171099
0.000171099
0.000171099
0.000171099
0.000169645
0.000169645
0.000169646
0.000169646
0.000169647
0.000169647
0.000169648
0.000169649
0.000169649
0.00016965
0.00016965
0.000169651
0.000169651
0.000169652
0.000169652
0.000169653
0.000169653
0.000169654
0.000169654
0.000169655
0.000169655
0.000169656
0.000169656
0.000169656
0.000169657
0.000169657
0.000169657
0.000169658
0.000169658
0.000169658
0.000169658
0.000169658
0.000169659
0.000169659
0.000169659
0.000169659
0.000169659
0.000169659
0.000169659
0.000169659
0.000169659
0.000169659
0.000169659
0.000169659
0.000169659
0.000169647
0.000169647
0.000169646
0.000169646
0.000169646
0.000169646
0.000169646
0.000169645
0.000169645
0.000169645
0.000169645
0.000169645
0.000169645
0.000169645
0.000169645
0.000169645
0.000168137
0.000168137
0.000168138
0.000168138
0.000168139
0.00016814
0.00016814
0.000168141
0.000168141
0.000168142
0.000168142
0.000168143
0.000168144
0.000168144
0.000168145
0.000168145
0.000168146
0.000168146
0.000168146
0.000168147
0.000168147
0.000168148
0.000168148
0.000168148
0.000168149
0.000168149
0.000168149
0.00016815
0.00016815
0.00016815
0.00016815
0.00016815
0.000168151
0.000168151
0.000168151
0.000168151
0.000168151
0.000168151
0.000168151
0.000168151
0.000168151
0.000168151
0.000168151
0.000168151
0.000168151
0.000168139
0.000168139
0.000168138
0.000168138
0.000168138
0.000168138
0.000168138
0.000168137
0.000168137
0.000168137
0.000168137
0.000168137
0.000168137
0.000168137
0.000168137
0.000168137
0.000166577
0.000166578
0.000166578
0.000166579
0.00016658
0.00016658
0.000166581
0.000166581
0.000166582
0.000166583
0.000166583
0.000166584
0.000166584
0.000166585
0.000166585
0.000166586
0.000166586
0.000166587
0.000166587
0.000166588
0.000166588
0.000166588
0.000166589
0.000166589
0.000166589
0.000166589
0.00016659
0.00016659
0.00016659
0.00016659
0.000166591
0.000166591
0.000166591
0.000166591
0.000166591
0.000166591
0.000166591
0.000166591
0.000166591
0.000166591
0.000166591
0.000166591
0.000166591
0.000166591
0.000166591
0.00016658
0.000166579
0.000166579
0.000166579
0.000166579
0.000166578
0.000166578
0.000166578
0.000166578
0.000166578
0.000166578
0.000166578
0.000166578
0.000166578
0.000166577
0.000166577
0.000164969
0.000164969
0.00016497
0.00016497
0.000164971
0.000164972
0.000164972
0.000164973
0.000164973
0.000164974
0.000164975
0.000164975
0.000164976
0.000164976
0.000164977
0.000164977
0.000164978
0.000164978
0.000164979
0.000164979
0.000164979
0.00016498
0.00016498
0.00016498
0.000164981
0.000164981
0.000164981
0.000164981
0.000164982
0.000164982
0.000164982
0.000164982
0.000164982
0.000164982
0.000164982
0.000164982
0.000164982
0.000164982
0.000164982
0.000164982
0.000164982
0.000164982
0.000164982
0.000164982
0.000164982
0.000164971
0.000164971
0.00016497
0.00016497
0.00016497
0.00016497
0.00016497
0.00016497
0.00016497
0.000164969
0.000164969
0.000164969
0.000164969
0.000164969
0.000164969
0.000164969
0.000163313
0.000163314
0.000163315
0.000163315
0.000163316
0.000163316
0.000163317
0.000163318
0.000163318
0.000163319
0.000163319
0.00016332
0.00016332
0.000163321
0.000163322
0.000163322
0.000163323
0.000163323
0.000163323
0.000163324
0.000163324
0.000163324
0.000163325
0.000163325
0.000163325
0.000163325
0.000163326
0.000163326
0.000163326
0.000163326
0.000163326
0.000163327
0.000163327
0.000163327
0.000163327
0.000163327
0.000163327
0.000163327
0.000163327
0.000163327
0.000163327
0.000163327
0.000163326
0.000163326
0.000163326
0.000163316
0.000163315
0.000163315
0.000163315
0.000163315
0.000163315
0.000163315
0.000163314
0.000163314
0.000163314
0.000163314
0.000163314
0.000163314
0.000163314
0.000163314
0.000163314
0.000161614
0.000161615
0.000161615
0.000161616
0.000161616
0.000161617
0.000161618
0.000161618
0.000161619
0.000161619
0.00016162
0.000161621
0.000161621
0.000161622
0.000161622
0.000161623
0.000161623
0.000161624
0.000161624
0.000161624
0.000161625
0.000161625
0.000161625
0.000161625
0.000161626
0.000161626
0.000161626
0.000161626
0.000161627
0.000161627
0.000161627
0.000161627
0.000161627
0.000161627
0.000161627
0.000161627
0.000161627
0.000161627
0.000161627
0.000161627
0.000161627
0.000161627
0.000161627
0.000161626
0.000161626
0.000161616
0.000161616
0.000161616
0.000161616
0.000161616
0.000161615
0.000161615
0.000161615
0.000161615
0.000161615
0.000161615
0.000161615
0.000161615
0.000161614
0.000161614
0.000161614
0.000159873
0.000159874
0.000159874
0.000159875
0.000159875
0.000159876
0.000159877
0.000159877
0.000159878
0.000159879
0.000159879
0.00015988
0.00015988
0.000159881
0.000159881
0.000159882
0.000159882
0.000159883
0.000159883
0.000159883
0.000159884
0.000159884
0.000159884
0.000159884
0.000159885
0.000159885
0.000159885
0.000159885
0.000159885
0.000159886
0.000159886
0.000159886
0.000159886
0.000159886
0.000159886
0.000159886
0.000159886
0.000159886
0.000159886
0.000159886
0.000159886
0.000159885
0.000159885
0.000159885
0.000159885
0.000159875
0.000159875
0.000159875
0.000159875
0.000159875
0.000159875
0.000159874
0.000159874
0.000159874
0.000159874
0.000159874
0.000159874
0.000159874
0.000159874
0.000159874
0.000159873
0.000158094
0.000158094
0.000158095
0.000158095
0.000158096
0.000158097
0.000158097
0.000158098
0.000158098
0.000158099
0.0001581
0.0001581
0.000158101
0.000158101
0.000158102
0.000158102
0.000158103
0.000158103
0.000158103
0.000158104
0.000158104
0.000158104
0.000158105
0.000158105
0.000158105
0.000158105
0.000158105
0.000158106
0.000158106
0.000158106
0.000158106
0.000158106
0.000158106
0.000158106
0.000158106
0.000158106
0.000158106
0.000158106
0.000158106
0.000158106
0.000158106
0.000158106
0.000158105
0.000158105
0.000158105
0.000158096
0.000158096
0.000158095
0.000158095
0.000158095
0.000158095
0.000158095
0.000158095
0.000158095
0.000158095
0.000158095
0.000158095
0.000158094
0.000158094
0.000158094
0.000158094
0.000156279
0.000156279
0.00015628
0.00015628
0.000156281
0.000156281
0.000156282
0.000156283
0.000156283
0.000156284
0.000156284
0.000156285
0.000156286
0.000156286
0.000156287
0.000156287
0.000156287
0.000156288
0.000156288
0.000156289
0.000156289
0.000156289
0.000156289
0.00015629
0.00015629
0.00015629
0.00015629
0.00015629
0.00015629
0.00015629
0.000156291
0.000156291
0.000156291
0.000156291
0.000156291
0.000156291
0.000156291
0.000156291
0.00015629
0.00015629
0.00015629
0.00015629
0.00015629
0.00015629
0.000156289
0.000156281
0.00015628
0.00015628
0.00015628
0.00015628
0.00015628
0.00015628
0.00015628
0.00015628
0.00015628
0.00015628
0.00015628
0.000156279
0.000156279
0.000156279
0.000156279
0.000154431
0.000154431
0.000154432
0.000154433
0.000154433
0.000154434
0.000154434
0.000154435
0.000154436
0.000154436
0.000154437
0.000154437
0.000154438
0.000154438
0.000154439
0.000154439
0.00015444
0.00015444
0.000154441
0.000154441
0.000154441
0.000154441
0.000154442
0.000154442
0.000154442
0.000154442
0.000154442
0.000154442
0.000154443
0.000154443
0.000154443
0.000154443
0.000154443
0.000154443
0.000154443
0.000154443
0.000154443
0.000154443
0.000154442
0.000154442
0.000154442
0.000154442
0.000154442
0.000154442
0.000154441
0.000154433
0.000154433
0.000154433
0.000154433
0.000154433
0.000154432
0.000154432
0.000154432
0.000154432
0.000154432
0.000154432
0.000154432
0.000154432
0.000154432
0.000154432
0.000154431
0.000152554
0.000152554
0.000152555
0.000152556
0.000152556
0.000152557
0.000152558
0.000152558
0.000152559
0.000152559
0.00015256
0.00015256
0.000152561
0.000152561
0.000152562
0.000152562
0.000152563
0.000152563
0.000152563
0.000152564
0.000152564
0.000152564
0.000152564
0.000152565
0.000152565
0.000152565
0.000152565
0.000152565
0.000152565
0.000152565
0.000152565
0.000152566
0.000152566
0.000152566
0.000152565
0.000152565
0.000152565
0.000152565
0.000152565
0.000152565
0.000152565
0.000152565
0.000152564
0.000152564
0.000152564
0.000152556
0.000152556
0.000152556
0.000152556
0.000152556
0.000152556
0.000152556
0.000152556
0.000152555
0.000152555
0.000152555
0.000152555
0.000152555
0.000152555
0.000152555
0.000152555
0.000150651
0.000150652
0.000150652
0.000150653
0.000150654
0.000150654
0.000150655
0.000150655
0.000150656
0.000150656
0.000150657
0.000150658
0.000150658
0.000150659
0.000150659
0.000150659
0.00015066
0.00015066
0.000150661
0.000150661
0.000150661
0.000150661
0.000150662
0.000150662
0.000150662
0.000150662
0.000150662
0.000150662
0.000150662
0.000150662
0.000150662
0.000150662
0.000150662
0.000150662
0.000150662
0.000150662
0.000150662
0.000150662
0.000150662
0.000150662
0.000150662
0.000150662
0.000150661
0.000150661
0.000150661
0.000150653
0.000150653
0.000150653
0.000150653
0.000150653
0.000150653
0.000150653
0.000150653
0.000150653
0.000150653
0.000150653
0.000150653
0.000150652
0.000150652
0.000150652
0.000150652
0.000148726
0.000148727
0.000148727
0.000148728
0.000148728
0.000148729
0.00014873
0.00014873
0.000148731
0.000148731
0.000148732
0.000148732
0.000148733
0.000148733
0.000148734
0.000148734
0.000148735
0.000148735
0.000148735
0.000148736
0.000148736
0.000148736
0.000148736
0.000148736
0.000148736
0.000148737
0.000148737
0.000148737
0.000148737
0.000148737
0.000148737
0.000148737
0.000148737
0.000148737
0.000148737
0.000148737
0.000148737
0.000148737
0.000148737
0.000148736
0.000148736
0.000148736
0.000148736
0.000148736
0.000148735
0.000148728
0.000148728
0.000148728
0.000148728
0.000148728
0.000148728
0.000148728
0.000148728
0.000148728
0.000148728
0.000148728
0.000148727
0.000148727
0.000148727
0.000148727
0.000148727
0.000146782
0.000146783
0.000146783
0.000146784
0.000146784
0.000146785
0.000146786
0.000146786
0.000146787
0.000146787
0.000146788
0.000146788
0.000146789
0.000146789
0.00014679
0.00014679
0.00014679
0.000146791
0.000146791
0.000146791
0.000146792
0.000146792
0.000146792
0.000146792
0.000146792
0.000146792
0.000146793
0.000146793
0.000146793
0.000146793
0.000146793
0.000146793
0.000146793
0.000146793
0.000146793
0.000146793
0.000146793
0.000146792
0.000146792
0.000146792
0.000146792
0.000146792
0.000146792
0.000146791
0.000146791
0.000146784
0.000146784
0.000146784
0.000146784
0.000146784
0.000146784
0.000146784
0.000146784
0.000146784
0.000146784
0.000146784
0.000146784
0.000146784
0.000146783
0.000146783
0.000146783
0.000144823
0.000144824
0.000144824
0.000144825
0.000144825
0.000144826
0.000144826
0.000144827
0.000144828
0.000144828
0.000144829
0.000144829
0.00014483
0.00014483
0.000144831
0.000144831
0.000144831
0.000144832
0.000144832
0.000144832
0.000144832
0.000144833
0.000144833
0.000144833
0.000144833
0.000144833
0.000144833
0.000144833
0.000144833
0.000144834
0.000144834
0.000144834
0.000144834
0.000144833
0.000144833
0.000144833
0.000144833
0.000144833
0.000144833
0.000144833
0.000144833
0.000144832
0.000144832
0.000144832
0.000144832
0.000144825
0.000144825
0.000144825
0.000144825
0.000144825
0.000144825
0.000144825
0.000144825
0.000144825
0.000144825
0.000144825
0.000144825
0.000144825
0.000144824
0.000144824
0.000144824
0.000142853
0.000142853
0.000142854
0.000142854
0.000142855
0.000142856
0.000142856
0.000142857
0.000142857
0.000142858
0.000142858
0.000142859
0.000142859
0.00014286
0.00014286
0.00014286
0.000142861
0.000142861
0.000142861
0.000142862
0.000142862
0.000142862
0.000142862
0.000142862
0.000142863
0.000142863
0.000142863
0.000142863
0.000142863
0.000142863
0.000142863
0.000142863
0.000142863
0.000142863
0.000142863
0.000142863
0.000142863
0.000142863
0.000142862
0.000142862
0.000142862
0.000142862
0.000142862
0.000142861
0.000142861
0.000142855
0.000142854
0.000142854
0.000142854
0.000142854
0.000142854
0.000142854
0.000142855
0.000142855
0.000142854
0.000142854
0.000142854
0.000142854
0.000142854
0.000142854
0.000142854
0.000140875
0.000140875
0.000140876
0.000140876
0.000140877
0.000140878
0.000140878
0.000140879
0.000140879
0.00014088
0.00014088
0.000140881
0.000140881
0.000140882
0.000140882
0.000140882
0.000140883
0.000140883
0.000140883
0.000140884
0.000140884
0.000140884
0.000140884
0.000140884
0.000140884
0.000140885
0.000140885
0.000140885
0.000140885
0.000140885
0.000140885
0.000140885
0.000140885
0.000140885
0.000140885
0.000140885
0.000140884
0.000140884
0.000140884
0.000140884
0.000140884
0.000140884
0.000140883
0.000140883
0.000140883
0.000140877
0.000140876
0.000140876
0.000140876
0.000140877
0.000140877
0.000140877
0.000140877
0.000140877
0.000140877
0.000140877
0.000140877
0.000140877
0.000140876
0.000140876
0.000140876
0.000138893
0.000138894
0.000138894
0.000138895
0.000138895
0.000138896
0.000138896
0.000138897
0.000138897
0.000138898
0.000138898
0.000138899
0.000138899
0.0001389
0.0001389
0.000138901
0.000138901
0.000138901
0.000138902
0.000138902
0.000138902
0.000138902
0.000138902
0.000138903
0.000138903
0.000138903
0.000138903
0.000138903
0.000138903
0.000138903
0.000138903
0.000138903
0.000138903
0.000138903
0.000138903
0.000138903
0.000138903
0.000138903
0.000138902
0.000138902
0.000138902
0.000138902
0.000138902
0.000138901
0.000138901
0.000138895
0.000138895
0.000138895
0.000138895
0.000138895
0.000138895
0.000138895
0.000138895
0.000138895
0.000138895
0.000138895
0.000138895
0.000138895
0.000138895
0.000138895
0.000138895
0.000136912
0.000136912
0.000136913
0.000136913
0.000136914
0.000136914
0.000136915
0.000136915
0.000136916
0.000136916
0.000136917
0.000136917
0.000136918
0.000136918
0.000136919
0.000136919
0.000136919
0.00013692
0.00013692
0.00013692
0.00013692
0.000136921
0.000136921
0.000136921
0.000136921
0.000136921
0.000136921
0.000136921
0.000136921
0.000136921
0.000136921
0.000136921
0.000136921
0.000136921
0.000136921
0.000136921
0.000136921
0.000136921
0.000136921
0.000136921
0.00013692
0.00013692
0.00013692
0.00013692
0.00013692
0.000136914
0.000136913
0.000136913
0.000136913
0.000136913
0.000136914
0.000136914
0.000136914
0.000136914
0.000136914
0.000136914
0.000136914
0.000136914
0.000136914
0.000136914
0.000136914
0.000134934
0.000134935
0.000134935
0.000134936
0.000134936
0.000134937
0.000134937
0.000134938
0.000134938
0.000134939
0.000134939
0.00013494
0.00013494
0.000134941
0.000134941
0.000134941
0.000134942
0.000134942
0.000134942
0.000134943
0.000134943
0.000134943
0.000134943
0.000134943
0.000134943
0.000134943
0.000134944
0.000134944
0.000134944
0.000134944
0.000134944
0.000134944
0.000134944
0.000134944
0.000134944
0.000134944
0.000134943
0.000134943
0.000134943
0.000134943
0.000134943
0.000134943
0.000134943
0.000134942
0.000134942
0.000134936
0.000134936
0.000134936
0.000134936
0.000134936
0.000134936
0.000134936
0.000134936
0.000134936
0.000134936
0.000134936
0.000134936
0.000134936
0.000134936
0.000134936
0.000134936
0.000132965
0.000132965
0.000132965
0.000132966
0.000132967
0.000132967
0.000132968
0.000132968
0.000132969
0.000132969
0.00013297
0.00013297
0.00013297
0.000132971
0.000132971
0.000132972
0.000132972
0.000132972
0.000132973
0.000132973
0.000132973
0.000132973
0.000132973
0.000132973
0.000132974
0.000132974
0.000132974
0.000132974
0.000132974
0.000132974
0.000132974
0.000132974
0.000132974
0.000132974
0.000132974
0.000132974
0.000132974
0.000132974
0.000132973
0.000132973
0.000132973
0.000132973
0.000132973
0.000132973
0.000132972
0.000132967
0.000132966
0.000132966
0.000132966
0.000132966
0.000132967
0.000132967
0.000132967
0.000132967
0.000132967
0.000132967
0.000132967
0.000132967
0.000132967
0.000132967
0.000132967
0.000131007
0.000131007
0.000131007
0.000131008
0.000131008
0.000131009
0.000131009
0.00013101
0.00013101
0.000131011
0.000131011
0.000131012
0.000131012
0.000131013
0.000131013
0.000131013
0.000131014
0.000131014
0.000131014
0.000131015
0.000131015
0.000131015
0.000131015
0.000131015
0.000131015
0.000131016
0.000131016
0.000131016
0.000131016
0.000131016
0.000131016
0.000131016
0.000131016
0.000131016
0.000131016
0.000131016
0.000131016
0.000131015
0.000131015
0.000131015
0.000131015
0.000131015
0.000131015
0.000131015
0.000131014
0.000131009
0.000131008
0.000131008
0.000131008
0.000131009
0.000131009
0.000131009
0.000131009
0.000131009
0.000131009
0.000131009
0.000131009
0.000131009
0.000131009
0.000131009
0.000131009
0.000129064
0.000129064
0.000129065
0.000129065
0.000129066
0.000129066
0.000129067
0.000129067
0.000129068
0.000129068
0.000129069
0.000129069
0.000129069
0.00012907
0.00012907
0.000129071
0.000129071
0.000129071
0.000129072
0.000129072
0.000129072
0.000129072
0.000129072
0.000129073
0.000129073
0.000129073
0.000129073
0.000129073
0.000129073
0.000129073
0.000129073
0.000129073
0.000129073
0.000129073
0.000129073
0.000129073
0.000129073
0.000129073
0.000129073
0.000129073
0.000129072
0.000129072
0.000129072
0.000129072
0.000129072
0.000129066
0.000129066
0.000129066
0.000129066
0.000129066
0.000129066
0.000129066
0.000129066
0.000129066
0.000129066
0.000129066
0.000129066
0.000129066
0.000129066
0.000129066
0.000129066
0.00012714
0.00012714
0.000127141
0.000127141
0.000127142
0.000127142
0.000127143
0.000127143
0.000127144
0.000127144
0.000127145
0.000127145
0.000127146
0.000127146
0.000127146
0.000127147
0.000127147
0.000127148
0.000127148
0.000127148
0.000127148
0.000127148
0.000127149
0.000127149
0.000127149
0.000127149
0.000127149
0.000127149
0.000127149
0.000127149
0.000127149
0.000127149
0.000127149
0.000127149
0.000127149
0.000127149
0.000127149
0.000127149
0.000127149
0.000127149
0.000127149
0.000127149
0.000127148
0.000127148
0.000127148
0.000127143
0.000127142
0.000127142
0.000127142
0.000127142
0.000127142
0.000127143
0.000127143
0.000127143
0.000127143
0.000127143
0.000127143
0.000127143
0.000127143
0.000127143
0.000127143
0.000125239
0.000125239
0.00012524
0.00012524
0.000125241
0.000125241
0.000125242
0.000125242
0.000125243
0.000125243
0.000125244
0.000125244
0.000125244
0.000125245
0.000125245
0.000125246
0.000125246
0.000125246
0.000125247
0.000125247
0.000125247
0.000125247
0.000125247
0.000125248
0.000125248
0.000125248
0.000125248
0.000125248
0.000125248
0.000125248
0.000125248
0.000125248
0.000125248
0.000125248
0.000125248
0.000125248
0.000125248
0.000125248
0.000125248
0.000125248
0.000125248
0.000125248
0.000125247
0.000125247
0.000125247
0.000125242
0.000125241
0.000125241
0.000125241
0.000125241
0.000125241
0.000125242
0.000125242
0.000125242
0.000125242
0.000125242
0.000125242
0.000125242
0.000125242
0.000125242
0.000125242
0.000123364
0.000123364
0.000123365
0.000123365
0.000123366
0.000123366
0.000123367
0.000123367
0.000123368
0.000123368
0.000123368
0.000123369
0.000123369
0.00012337
0.00012337
0.00012337
0.000123371
0.000123371
0.000123371
0.000123372
0.000123372
0.000123372
0.000123372
0.000123372
0.000123373
0.000123373
0.000123373
0.000123373
0.000123373
0.000123373
0.000123373
0.000123373
0.000123373
0.000123373
0.000123373
0.000123373
0.000123373
0.000123373
0.000123373
0.000123373
0.000123373
0.000123373
0.000123372
0.000123372
0.000123372
0.000123367
0.000123366
0.000123366
0.000123366
0.000123366
0.000123366
0.000123367
0.000123367
0.000123367
0.000123367
0.000123367
0.000123367
0.000123367
0.000123367
0.000123367
0.000123367
0.000121519
0.000121518
0.000121519
0.000121519
0.00012152
0.00012152
0.000121521
0.000121521
0.000121522
0.000121522
0.000121523
0.000121523
0.000121524
0.000121524
0.000121524
0.000121525
0.000121525
0.000121525
0.000121526
0.000121526
0.000121526
0.000121526
0.000121527
0.000121527
0.000121527
0.000121527
0.000121527
0.000121527
0.000121527
0.000121527
0.000121527
0.000121528
0.000121528
0.000121528
0.000121528
0.000121528
0.000121527
0.000121527
0.000121527
0.000121527
0.000121527
0.000121527
0.000121527
0.000121527
0.000121527
0.000121521
0.000121521
0.000121521
0.000121521
0.000121521
0.000121521
0.000121521
0.000121521
0.000121521
0.000121521
0.000121522
0.000121522
0.000121522
0.000121522
0.000121522
0.000121522
0.000119706
0.000119706
0.000119706
0.000119706
0.000119707
0.000119707
0.000119708
0.000119708
0.000119709
0.000119709
0.00011971
0.00011971
0.000119711
0.000119711
0.000119711
0.000119712
0.000119712
0.000119712
0.000119713
0.000119713
0.000119713
0.000119713