/*--------------------------------*- C++ -*----------------------------------*\
  =========                 |
  \\      /  F ield         | OpenFOAM: The Open Source CFD Toolbox
   \\    /   O peration     | Website:  https://openfoam.org
    \\  /    A nd           | Version:  7
     \\/     M anipulation  |
\*---------------------------------------------------------------------------*/
FoamFile
{
    version     2.0;
    format      ascii;
    class       surfaceScalarField;
    location    "4000";
    object      phi;
}
// * * * * * * * * * * * * * * * * * * * * * * * * * * * * * * * * * * * * * //

dimensions      [0 3 -1 0 0 0 0];

internalField   nonuniform List<scalar> 
7859
(
0.000140299
6.82912e-10
0.000140299
1.00973e-09
0.000140299
1.25335e-09
0.000140299
1.39491e-09
0.000140299
1.45544e-09
0.000140299
1.45304e-09
0.000140299
1.40246e-09
0.000140299
1.31463e-09
0.000140299
1.19884e-09
0.000140299
1.06351e-09
0.000140299
9.16109e-10
0.000140299
7.62931e-10
0.000140299
6.08892e-10
0.000140299
4.57419e-10
0.000140299
3.10531e-10
0.000140299
1.6915e-10
0.000140299
3.35976e-11
0.000140299
-9.59126e-11
0.000140299
-2.1898e-10
0.000140299
-3.34983e-10
0.000140299
-4.43256e-10
0.000140299
-5.43354e-10
0.000140299
-6.35237e-10
0.000140299
-7.1927e-10
0.000140299
-7.96072e-10
0.000140299
-8.66299e-10
0.000140299
-9.30489e-10
0.000140299
-9.89041e-10
0.000140299
-1.04229e-09
0.000140299
-1.09064e-09
0.000140299
-1.13456e-09
0.000140299
-1.17462e-09
0.000140299
-1.21135e-09
0.000140299
-1.2452e-09
0.000140299
-1.27638e-09
0.000140299
-1.30507e-09
0.000140299
-1.33084e-09
0.000140299
-1.35358e-09
0.000140299
-1.37111e-09
0.000140299
-1.38353e-09
0.000140299
-1.38237e-09
0.000140299
-1.37213e-09
0.0001403
-1.32385e-09
0.0001403
-1.24579e-09
-1.153e-09
0.0001403
-3.01065e-10
0.000140299
1.3156e-10
0.000140299
3.44631e-10
0.000140299
4.26074e-10
0.000140299
4.30309e-10
0.000140299
3.88264e-10
0.000140299
3.20189e-10
0.000140299
2.39231e-10
0.000140299
1.52449e-10
0.000140299
7.24262e-11
0.000140299
-1.51279e-12
0.000140299
-4.31075e-11
0.000140299
-7.39518e-11
0.000140299
-2.03977e-11
0.000140299
7.31507e-11
2.9571e-10
0.000144796
7.05805e-10
0.000144796
1.02866e-09
0.000144796
1.2629e-09
0.000144796
1.39457e-09
0.000144796
1.44735e-09
0.000144796
1.43932e-09
0.000144796
1.3848e-09
0.000144796
1.2944e-09
0.000144796
1.17704e-09
0.000144796
1.04087e-09
0.000144796
8.93118e-10
0.000144796
7.39904e-10
0.000144796
5.86026e-10
0.000144796
4.34833e-10
0.000144796
2.88286e-10
0.000144796
1.47271e-10
0.000144796
1.20915e-11
0.000144796
-1.17038e-10
0.000144796
-2.39707e-10
0.000144796
-3.55282e-10
0.000144796
-4.63096e-10
0.000144796
-5.62708e-10
0.000144796
-6.54081e-10
0.000144796
-7.37585e-10
0.000144796
-8.13834e-10
0.000144796
-8.83484e-10
0.000144796
-9.47072e-10
0.000144796
-1.005e-09
0.000144796
-1.05762e-09
0.000144796
-1.10533e-09
0.000144796
-1.14862e-09
0.000144796
-1.18806e-09
0.000144796
-1.22419e-09
0.000144796
-1.25747e-09
0.000144796
-1.28813e-09
0.000144796
-1.31636e-09
0.000144796
-1.34177e-09
0.000144796
-1.36424e-09
0.000144796
-1.38162e-09
0.000144797
-1.39404e-09
0.000144797
-1.3928e-09
0.000144797
-1.38325e-09
0.000144797
-1.33242e-09
0.000144797
-1.25866e-09
-1.13969e-09
0.000144797
-1.98946e-10
0.000144797
2.21455e-10
0.000144796
4.24671e-10
0.000144796
4.9744e-10
0.000144796
4.93965e-10
0.000144796
4.45242e-10
0.000144796
3.71366e-10
0.000144796
2.85319e-10
0.000144796
1.94009e-10
0.000144796
1.0977e-10
0.000144796
3.19877e-11
0.000144796
-1.36424e-11
0.000144796
-4.80053e-11
0.000144796
2.079e-12
0.000144796
8.82626e-11
3.1214e-10
0.000149393
7.28963e-10
0.000149393
1.04457e-09
0.000149393
1.2698e-09
0.000149393
1.39186e-09
0.000149393
1.43681e-09
0.000149393
1.42293e-09
0.000149393
1.36429e-09
0.000149393
1.27121e-09
0.000149393
1.15229e-09
0.000149393
1.01541e-09
0.000149393
8.67532e-10
0.000149393
7.14554e-10
0.000149393
5.61115e-10
0.000149393
4.10461e-10
0.000149393
2.64496e-10
0.000149393
1.24079e-10
0.000149393
-1.04889e-11
0.000149393
-1.3899e-10
0.000149393
-2.61007e-10
0.000149393
-3.75902e-10
0.000149393
-4.83013e-10
0.000149393
-5.81906e-10
0.000149393
-6.72552e-10
0.000149393
-7.5532e-10
0.000149393
-8.30826e-10
0.000149393
-8.99718e-10
0.000149393
-9.62538e-10
0.000149393
-1.01969e-09
0.000149393
-1.07154e-09
0.000149393
-1.11848e-09
0.000149393
-1.16102e-09
0.000149393
-1.19972e-09
0.000149393
-1.23513e-09
0.000149393
-1.26774e-09
0.000149393
-1.29779e-09
0.000149393
-1.32548e-09
0.000149393
-1.35044e-09
0.000149393
-1.37257e-09
0.000149393
-1.38976e-09
0.000149393
-1.40216e-09
0.000149393
-1.40089e-09
0.000149393
-1.39201e-09
0.000149393
-1.33909e-09
0.000149393
-1.26961e-09
-1.12585e-09
0.000149393
-9.72369e-11
0.000149393
3.10485e-10
0.000149393
5.05636e-10
0.000149393
5.70346e-10
0.000149393
5.59274e-10
0.000149393
5.03858e-10
0.000149393
4.24141e-10
0.000149393
3.32974e-10
0.000149393
2.37136e-10
0.000149393
1.48679e-10
0.000149393
6.70627e-11
0.000149393
1.72949e-11
0.000149393
-2.07286e-11
0.000149393
2.53952e-11
0.000149393
1.03043e-10
3.29896e-10
0.000154092
7.52916e-10
0.000154092
1.05882e-09
0.000154092
1.27409e-09
0.000154092
1.38649e-09
0.000154092
1.42363e-09
0.000154092
1.40386e-09
0.000154092
1.34102e-09
0.000154092
1.2452e-09
0.000154092
1.12472e-09
0.000154092
9.87215e-10
0.000154092
8.39377e-10
0.000154092
6.8687e-10
0.000154092
5.34136e-10
0.000154092
3.84291e-10
0.000154092
2.3917e-10
0.000154092
9.96054e-11
0.000154092
-3.41021e-11
0.000154092
-1.61726e-10
0.000154092
-2.8284e-10
0.000154092
-3.96808e-10
0.000154092
-5.02973e-10
0.000154092
-6.00915e-10
0.000154092
-6.90611e-10
0.000154092
-7.72434e-10
0.000154092
-8.46997e-10
0.000154092
-9.14947e-10
0.000154092
-9.76825e-10
0.000154092
-1.03305e-09
0.000154093
-1.08397e-09
0.000154093
-1.13001e-09
0.000154093
-1.17166e-09
0.000154093
-1.20951e-09
0.000154093
-1.2441e-09
0.000154093
-1.27593e-09
0.000154093
-1.30527e-09
0.000154093
-1.33232e-09
0.000154093
-1.35676e-09
0.000154093
-1.37851e-09
0.000154093
-1.39546e-09
0.000154093
-1.40782e-09
0.000154093
-1.40661e-09
0.000154093
-1.39839e-09
0.000154093
-1.34393e-09
0.000154093
-1.27888e-09
-1.11251e-09
0.000154093
2.11367e-12
0.000154093
3.97184e-10
0.000154093
5.85829e-10
0.000154092
6.4363e-10
0.000154092
6.25504e-10
0.000154092
5.6361e-10
0.000154092
4.7813e-10
0.000154092
3.81875e-10
0.000154092
2.81534e-10
0.000154092
1.88867e-10
0.000154092
1.03428e-10
0.000154092
4.94318e-11
0.000154092
7.61129e-12
0.000154092
4.93282e-11
0.000154092
1.172e-10
3.48116e-10
0.000158897
7.77569e-10
0.000158897
1.07227e-09
0.000158897
1.27615e-09
0.000158897
1.37844e-09
0.000158897
1.40771e-09
0.000158897
1.38205e-09
0.000158897
1.315e-09
0.000158897
1.21643e-09
0.000158897
1.09442e-09
0.000158897
9.56355e-10
0.000158897
8.08695e-10
0.000158897
6.56859e-10
0.000158897
5.05078e-10
0.000158897
3.56314e-10
0.000158897
2.1231e-10
0.000158897
7.38649e-11
0.000158897
-5.87232e-11
0.000158897
-1.85216e-10
0.000158897
-3.05177e-10
0.000158897
-4.17971e-10
0.000158897
-5.22951e-10
0.000158897
-6.19707e-10
0.000158897
-7.08229e-10
0.000158898
-7.88893e-10
0.000158898
-8.62309e-10
0.000158898
-9.29125e-10
0.000158898
-9.89883e-10
0.000158898
-1.045e-09
0.000158898
-1.09485e-09
0.000158898
-1.13984e-09
0.000158898
-1.18048e-09
0.000158898
-1.21735e-09
0.000158898
-1.25101e-09
0.000158898
-1.28196e-09
0.000158898
-1.31049e-09
0.000158898
-1.33683e-09
0.000158898
-1.36069e-09
0.000158898
-1.38198e-09
0.000158898
-1.39868e-09
0.000158898
-1.41098e-09
0.000158898
-1.40992e-09
0.000158898
-1.40239e-09
0.000158898
-1.34696e-09
0.000158898
-1.28676e-09
-1.09975e-09
0.000158898
9.8585e-11
0.000158898
4.80474e-10
0.000158898
6.63415e-10
0.000158898
7.15595e-10
0.000158897
6.91391e-10
0.000158897
6.23581e-10
0.000158897
5.32639e-10
0.000158897
4.31462e-10
0.000158897
3.26723e-10
0.000158897
2.29901e-10
0.000158897
1.40679e-10
0.000158897
8.2392e-11
0.000158897
3.66524e-11
0.000158897
7.35534e-11
0.000158897
1.3045e-10
3.66046e-10
0.000163811
8.02521e-10
0.000163811
1.08535e-09
0.000163811
1.27642e-09
0.000163811
1.36785e-09
0.000163811
1.389e-09
0.000163811
1.35744e-09
0.000163811
1.28622e-09
0.000163811
1.18493e-09
0.000163811
1.06144e-09
0.000163811
9.22894e-10
0.000163811
7.75533e-10
0.000163811
6.24544e-10
0.000163811
4.73944e-10
0.000163811
3.26522e-10
0.000163811
1.83911e-10
0.000163811
4.68599e-11
0.000163811
-8.43411e-11
0.000163811
-2.09443e-10
0.000163811
-3.28e-10
0.000163811
-4.39373e-10
0.000163811
-5.42926e-10
0.000163811
-6.38264e-10
0.000163811
-7.25386e-10
0.000163811
-8.04672e-10
0.000163811
-8.76734e-10
0.000163811
-9.42218e-10
0.000163811
-1.00167e-09
0.000163811
-1.05552e-09
0.000163811
-1.10413e-09
0.000163811
-1.14793e-09
0.000163811
-1.18742e-09
0.000163811
-1.22319e-09
0.000163811
-1.2558e-09
0.000163811
-1.28576e-09
0.000163811
-1.31339e-09
0.000163811
-1.33894e-09
0.000163811
-1.36214e-09
0.000163811
-1.38294e-09
0.000163811
-1.39936e-09
0.000163811
-1.41161e-09
0.000163811
-1.4108e-09
0.000163811
-1.404e-09
0.000163811
-1.34821e-09
0.000163811
-1.29353e-09
-1.08742e-09
0.000163811
1.92215e-10
0.000163811
5.60001e-10
0.000163811
7.37067e-10
0.000163811
7.84564e-10
0.000163811
7.55422e-10
0.000163811
6.82557e-10
0.000163811
5.8671e-10
0.000163811
4.80958e-10
0.000163811
3.72049e-10
0.000163811
2.71211e-10
0.000163811
1.78299e-10
0.000163811
1.15698e-10
0.000163811
6.59418e-11
0.000163811
9.76518e-11
0.000163811
1.42457e-10
3.83025e-10
0.000168836
8.27249e-10
0.000168836
1.09808e-09
0.000168836
1.27518e-09
0.000168836
1.35491e-09
0.000168836
1.36756e-09
0.000168836
1.32999e-09
0.000168836
1.25463e-09
0.000168836
1.15071e-09
0.000168836
1.02581e-09
0.000168836
8.86876e-10
0.000168836
7.39932e-10
0.000168836
5.89953e-10
0.000168836
4.40744e-10
0.000168836
2.94912e-10
0.000168836
1.53965e-10
0.000168836
1.85859e-11
0.000168836
-1.10955e-10
0.000168836
-2.34402e-10
0.000168836
-3.51298e-10
0.000168836
-4.61003e-10
0.000168837
-5.62889e-10
0.000168837
-6.56573e-10
0.000168837
-7.42067e-10
0.000168837
-8.19757e-10
0.000168837
-8.90254e-10
0.000168837
-9.54206e-10
0.000168837
-1.01216e-09
0.000168837
-1.06456e-09
0.000168837
-1.11178e-09
0.000168837
-1.15424e-09
0.000168837
-1.19244e-09
0.000168837
-1.22698e-09
0.000168837
-1.25842e-09
0.000168837
-1.28729e-09
0.000168837
-1.31393e-09
0.000168837
-1.33861e-09
0.000168837
-1.36109e-09
0.000168837
-1.38134e-09
0.000168837
-1.39748e-09
0.000168837
-1.40967e-09
0.000168837
-1.40925e-09
0.000168837
-1.40325e-09
0.000168837
-1.34767e-09
0.000168837
-1.29942e-09
-1.07546e-09
0.000168837
2.831e-10
0.000168837
6.35879e-10
0.000168837
8.06105e-10
0.000168836
8.4924e-10
0.000168836
8.16151e-10
0.000168836
7.39222e-10
0.000168836
6.39227e-10
0.000168836
5.2943e-10
0.000168836
4.1672e-10
0.000168836
3.12103e-10
0.000168836
2.15665e-10
0.000168836
1.48782e-10
0.000168836
9.49471e-11
0.000168836
1.21125e-10
0.000168836
1.52827e-10
3.98481e-10
0.000173976
8.51213e-10
0.000173976
1.11024e-09
0.000173976
1.27251e-09
0.000173976
1.33977e-09
0.000173976
1.34346e-09
0.000173976
1.29972e-09
0.000173976
1.22023e-09
0.000173976
1.11374e-09
0.000173976
9.87539e-10
0.000173976
8.48326e-10
0.000173976
7.01928e-10
0.000173976
5.53116e-10
0.000173976
4.05494e-10
0.000173976
2.61488e-10
0.000173976
1.22467e-10
0.000173976
-1.0966e-11
0.000173976
-1.38571e-10
0.000173976
-2.60094e-10
0.000173976
-3.7507e-10
0.000173976
-4.82857e-10
0.000173976
-5.82833e-10
0.000173976
-6.74631e-10
0.000173976
-7.58269e-10
0.000173976
-8.34141e-10
0.000173976
-9.0286e-10
0.000173976
-9.65078e-10
0.000173976
-1.02135e-09
0.000173976
-1.07212e-09
0.000173976
-1.11777e-09
0.000173976
-1.15873e-09
0.000173976
-1.1955e-09
0.000173976
-1.22868e-09
0.000173976
-1.25884e-09
0.000173976
-1.28652e-09
0.000173976
-1.31207e-09
0.000173976
-1.33579e-09
0.000173976
-1.35749e-09
0.000173976
-1.37715e-09
0.000173976
-1.393e-09
0.000173976
-1.40515e-09
0.000173976
-1.40524e-09
0.000173976
-1.40017e-09
0.000173976
-1.34537e-09
0.000173976
-1.30459e-09
-1.06379e-09
0.000173976
3.71212e-10
0.000173976
7.08395e-10
0.000173976
8.70375e-10
0.000173976
9.08837e-10
0.000173976
8.72422e-10
0.000173976
7.92349e-10
0.000173976
6.89054e-10
0.000173976
5.75875e-10
0.000173976
4.59856e-10
0.000173976
3.51806e-10
0.000173976
2.52081e-10
0.000173976
1.81011e-10
0.000173976
1.23074e-10
0.000173976
1.43412e-10
0.000173976
1.61107e-10
4.11906e-10
0.000179233
8.73897e-10
0.000179233
1.12149e-09
0.000179233
1.26833e-09
0.000179233
1.32246e-09
0.000179233
1.31673e-09
0.000179233
1.26663e-09
0.000179233
1.18298e-09
0.000179233
1.074e-09
0.000179233
9.46615e-10
0.000179233
8.07255e-10
0.000179233
6.61543e-10
0.000179233
5.14058e-10
0.000179233
3.68212e-10
0.000179233
2.26255e-10
0.000179234
8.94128e-11
0.000179234
-4.18048e-11
0.000179234
-1.672e-10
0.000179234
-2.86527e-10
0.000179234
-3.9932e-10
0.000179234
-5.04937e-10
0.000179234
-6.02762e-10
0.000179234
-6.92438e-10
0.000179234
-7.73994e-10
0.000179234
-8.47828e-10
0.000179234
-9.14557e-10
0.000179234
-9.74835e-10
0.000179234
-1.02923e-09
0.000179234
-1.07818e-09
0.000179234
-1.1221e-09
0.000179234
-1.1614e-09
0.000179234
-1.1966e-09
0.000179234
-1.22829e-09
0.000179234
-1.25704e-09
0.000179234
-1.28342e-09
0.000179234
-1.30779e-09
0.000179234
-1.33048e-09
0.000179234
-1.35134e-09
0.000179234
-1.37037e-09
0.000179234
-1.38592e-09
0.000179234
-1.39805e-09
0.000179234
-1.39879e-09
0.000179234
-1.39479e-09
0.000179234
-1.34133e-09
0.000179234
-1.30915e-09
-1.05241e-09
0.000179234
4.56391e-10
0.000179234
7.77813e-10
0.000179234
9.30026e-10
0.000179234
9.63028e-10
0.000179233
9.2347e-10
0.000179233
8.40949e-10
0.000179233
7.35159e-10
0.000179233
6.19316e-10
0.000179233
5.00569e-10
0.000179233
3.89515e-10
0.000179233
2.86814e-10
0.000179233
2.1171e-10
0.000179233
1.4969e-10
0.000179233
1.63918e-10
0.000179233
1.66805e-10
4.22833e-10
0.000184611
8.9483e-10
0.000184611
1.1314e-09
0.000184611
1.26241e-09
0.000184611
1.30292e-09
0.000184611
1.28739e-09
0.000184611
1.23071e-09
0.000184611
1.14286e-09
0.000184611
1.03147e-09
0.000184611
9.03021e-10
0.000184611
7.63662e-10
0.000184611
6.18793e-10
0.000184611
4.728e-10
0.000184611
3.28918e-10
0.000184611
1.89224e-10
0.000184611
5.4802e-11
0.000184611
-7.39381e-11
0.000184611
-1.96852e-10
0.000184611
-3.13714e-10
0.000184611
-4.24061e-10
0.000184611
-5.27254e-10
0.000184611
-6.22685e-10
0.000184611
-7.10005e-10
0.000184611
-7.89252e-10
0.000184611
-8.60828e-10
0.000184611
-9.25354e-10
0.000184611
-9.8349e-10
0.000184611
-1.03581e-09
0.000184611
-1.08277e-09
0.000184611
-1.12477e-09
0.000184611
-1.16226e-09
0.000184611
-1.19574e-09
0.000184611
-1.2258e-09
0.000184611
-1.25303e-09
0.000184611
-1.27799e-09
0.000184611
-1.30109e-09
0.000184611
-1.32267e-09
0.000184611
-1.34263e-09
0.000184611
-1.36099e-09
0.000184611
-1.37625e-09
0.000184611
-1.3884e-09
0.000184611
-1.38993e-09
0.000184611
-1.38717e-09
0.000184611
-1.33562e-09
0.000184611
-1.31317e-09
-1.04127e-09
0.000184611
5.38418e-10
0.000184611
8.44305e-10
0.000184611
9.85338e-10
0.000184611
1.01182e-09
0.000184611
9.68906e-10
0.000184611
8.84336e-10
0.000184611
7.76711e-10
0.000184611
6.58891e-10
0.000184611
5.38024e-10
0.000184611
4.2445e-10
0.000184611
3.19134e-10
0.000184611
2.40199e-10
0.000184611
1.74152e-10
0.000184611
1.82031e-10
0.000184611
1.6941e-10
4.30823e-10
0.000190112
9.13582e-10
0.000190112
1.13958e-09
0.000190112
1.25448e-09
0.000190112
1.28102e-09
0.000190112
1.25537e-09
0.000190112
1.19195e-09
0.000190112
1.09986e-09
0.000190112
9.8612e-10
0.000190112
8.56738e-10
0.000190112
7.17541e-10
0.000190112
5.73684e-10
0.000190112
4.29361e-10
0.000190112
2.87631e-10
0.000190112
1.50409e-10
0.000190112
1.86393e-11
0.000190112
-1.0737e-10
0.000190112
-2.27537e-10
0.000190112
-3.41666e-10
0.000190112
-4.49304e-10
0.000190112
-5.49821e-10
0.000190112
-6.42615e-10
0.000190112
-7.27346e-10
0.000190112
-8.0406e-10
0.000190112
-8.73161e-10
0.000190112
-9.35274e-10
0.000190112
-9.91063e-10
0.000190112
-1.04111e-09
0.000190112
-1.08589e-09
0.000190112
-1.12582e-09
0.000190112
-1.16133e-09
0.000190112
-1.19294e-09
0.000190112
-1.22124e-09
0.000190112
-1.24683e-09
0.000190112
-1.27027e-09
0.000190112
-1.292e-09
0.000190112
-1.31239e-09
0.000190112
-1.33139e-09
0.000190112
-1.34905e-09
0.000190112
-1.36401e-09
0.000190112
-1.37621e-09
0.000190112
-1.37868e-09
0.000190112
-1.37738e-09
0.000190112
-1.3283e-09
0.000190112
-1.31669e-09
-1.03033e-09
0.000190112
6.17086e-10
0.000190112
9.07956e-10
0.000190112
1.03661e-09
0.000190112
1.05543e-09
0.000190112
1.00865e-09
0.000190112
9.2213e-10
0.000190112
8.13127e-10
0.000190112
6.93912e-10
0.000190112
5.71503e-10
0.000190112
4.55901e-10
0.000190112
3.48358e-10
0.000190112
2.65831e-10
0.000190112
1.95837e-10
0.000190112
1.97157e-10
0.000190112
1.68421e-10
4.35467e-10
0.000195739
9.29772e-10
0.000195739
1.14562e-09
0.000195739
1.24423e-09
0.000195739
1.25657e-09
0.000195739
1.22058e-09
0.000195739
1.15028e-09
0.000195739
1.05394e-09
0.000195739
9.37921e-10
0.000195739
8.07745e-10
0.000195739
6.68881e-10
0.000195739
5.2622e-10
0.000195739
3.83754e-10
0.000195739
2.44368e-10
0.000195739
1.09825e-10
0.000195739
-1.90664e-11
0.000195739
-1.421e-10
0.000195739
-2.59263e-10
0.000195739
-3.70395e-10
0.000195739
-4.75066e-10
0.000195739
-5.72655e-10
0.000195739
-6.62571e-10
0.000195739
-7.44483e-10
0.000195739
-8.18442e-10
0.000195739
-8.84853e-10
0.00019574
-9.44345e-10
0.00019574
-9.97589e-10
0.00019574
-1.04518e-09
0.00019574
-1.0876e-09
0.00019574
-1.12527e-09
0.00019574
-1.15865e-09
0.00019574
-1.18825e-09
0.00019574
-1.21465e-09
0.000195739
-1.23847e-09
0.000195739
-1.26028e-09
0.000195739
-1.28055e-09
0.000195739
-1.29967e-09
0.000195739
-1.31766e-09
0.000195739
-1.33459e-09
0.000195739
-1.34926e-09
0.000195739
-1.36156e-09
0.000195739
-1.36511e-09
0.000195739
-1.36548e-09
0.000195739
-1.31945e-09
0.000195739
-1.31973e-09
-1.01952e-09
0.000195739
6.92257e-10
0.000195739
9.68798e-10
0.000195739
1.08412e-09
0.000195739
1.09416e-09
0.000195739
1.04284e-09
0.000195739
9.54216e-10
0.000195739
8.44072e-10
0.000195739
7.23899e-10
0.000195739
6.00444e-10
0.000195739
4.83277e-10
0.000195739
3.73887e-10
0.000195739
2.88015e-10
0.000195739
2.14168e-10
0.000195739
2.08737e-10
0.000195739
1.63369e-10
4.36394e-10
0.000201495
9.4307e-10
0.000201495
1.14917e-09
0.000201495
1.23138e-09
0.000201495
1.22936e-09
0.000201495
1.18289e-09
0.000201495
1.10565e-09
0.000201495
1.00507e-09
0.000201495
8.86852e-10
0.000201495
7.56025e-10
0.000201495
6.17673e-10
0.000201495
4.76405e-10
0.000201495
3.35993e-10
0.000201495
1.99151e-10
0.000201496
6.74915e-11
0.000201496
-5.8301e-11
0.000201496
-1.78123e-10
0.000201496
-2.92032e-10
0.000201496
-3.99913e-10
0.000201496
-5.01362e-10
0.000201496
-5.95775e-10
0.000201496
-6.82576e-10
0.000201496
-7.61442e-10
0.000201496
-8.32427e-10
0.000201496
-8.95939e-10
0.000201496
-9.52607e-10
0.000201496
-1.00311e-09
0.000201496
-1.04805e-09
0.000201496
-1.08793e-09
0.000201496
-1.12319e-09
0.000201496
-1.15428e-09
0.000201496
-1.18171e-09
0.000201496
-1.20609e-09
0.000201496
-1.22801e-09
0.000201496
-1.24809e-09
0.000201496
-1.26681e-09
0.000201496
-1.28459e-09
0.000201496
-1.30151e-09
0.000201496
-1.31767e-09
0.000201496
-1.33206e-09
0.000201496
-1.34451e-09
0.000201496
-1.3493e-09
0.000201496
-1.35157e-09
0.000201496
-1.30916e-09
0.000201496
-1.32233e-09
-1.00874e-09
0.000201495
7.63893e-10
0.000201495
1.02686e-09
0.000201495
1.1281e-09
0.000201495
1.12836e-09
0.000201495
1.07174e-09
0.000201495
9.80685e-10
0.000201495
8.69434e-10
0.000201495
7.48576e-10
0.000201495
6.24459e-10
0.000201495
5.06123e-10
0.000201495
3.95232e-10
0.000201495
3.06252e-10
0.000201495
2.28642e-10
0.000201495
2.16278e-10
0.000201495
1.53841e-10
4.33284e-10
0.000207383
9.53204e-10
0.000207383
1.14995e-09
0.000207383
1.21568e-09
0.000207383
1.19921e-09
0.000207383
1.14219e-09
0.000207383
1.05799e-09
0.000207384
9.53202e-10
0.000207384
8.32893e-10
0.000207384
7.01569e-10
0.000207384
5.63918e-10
0.000207384
4.24245e-10
0.000207384
2.86094e-10
0.000207384
1.52001e-10
0.000207384
2.34338e-11
0.000207384
-9.90444e-11
0.000207384
-2.15427e-10
0.000207384
-3.25841e-10
0.000207384
-4.30224e-10
0.000207384
-5.28204e-10
0.000207384
-6.19201e-10
0.000207384
-7.02655e-10
0.000207384
-7.78252e-10
0.000207384
-8.4605e-10
0.000207384
-9.06457e-10
0.000207384
-9.60104e-10
0.000207384
-1.00768e-09
0.000207384
-1.04979e-09
0.000207384
-1.08696e-09
0.000207384
-1.11963e-09
0.000207384
-1.14827e-09
0.000207384
-1.17341e-09
0.000207384
-1.19562e-09
0.000207384
-1.21554e-09
0.000207384
-1.23379e-09
0.000207384
-1.25086e-09
0.000207384
-1.26722e-09
0.000207384
-1.28302e-09
0.000207384
-1.29839e-09
0.000207384
-1.31251e-09
0.000207384
-1.32516e-09
0.000207384
-1.33134e-09
0.000207384
-1.33577e-09
0.000207384
-1.29753e-09
0.000207384
-1.32449e-09
-9.97906e-10
0.000207384
8.3206e-10
0.000207384
1.08219e-09
0.000207384
1.16876e-09
0.000207384
1.15836e-09
0.000207383
1.0957e-09
0.000207383
1.00177e-09
0.000207383
8.89288e-10
0.000207383
7.67858e-10
0.000207383
6.43336e-10
0.000207383
5.2414e-10
0.000207383
4.12031e-10
0.000207383
3.20151e-10
0.000207383
2.38847e-10
0.000207383
2.19368e-10
0.000207383
1.39505e-10
4.25884e-10
0.000213407
9.59966e-10
0.000213407
1.14773e-09
0.000213407
1.19691e-09
0.000213407
1.16595e-09
0.000213407
1.09837e-09
0.000213407
1.00724e-09
0.000213407
8.98323e-10
0.000213407
7.7604e-10
0.000213407
6.4438e-10
0.000213407
5.07625e-10
0.000213407
3.69759e-10
0.000213407
2.34084e-10
0.000213407
1.02949e-10
0.000213407
-2.23176e-11
0.000213407
-1.41269e-10
0.000213407
-2.5399e-10
0.000213407
-3.6068e-10
0.000213407
-4.61328e-10
0.000213407
-5.55602e-10
0.000213407
-6.4295e-10
0.000213408
-7.22832e-10
0.000213408
-7.94945e-10
0.000213408
-8.59349e-10
0.000213408
-9.16454e-10
0.000213408
-9.6689e-10
0.000213408
-1.01135e-09
0.000213408
-1.05046e-09
0.000213408
-1.08475e-09
0.000213408
-1.11468e-09
0.000213408
-1.14073e-09
0.000213408
-1.16342e-09
0.000213408
-1.18335e-09
0.000213408
-1.20115e-09
0.000213407
-1.21746e-09
0.000213407
-1.2328e-09
0.000213407
-1.24768e-09
0.000213407
-1.2623e-09
0.000213407
-1.27685e-09
0.000213407
-1.29071e-09
0.000213407
-1.30364e-09
0.000213407
-1.31135e-09
0.000213407
-1.31819e-09
0.000213407
-1.2847e-09
0.000213407
-1.32622e-09
-9.86908e-10
0.000213407
8.96922e-10
0.000213407
1.1349e-09
0.000213407
1.20632e-09
0.000213407
1.18451e-09
0.000213407
1.11509e-09
0.000213407
1.01779e-09
0.000213407
9.03839e-10
0.000213407
7.81819e-10
0.000213407
6.57024e-10
0.000213407
5.37175e-10
0.000213407
4.24058e-10
0.000213407
3.29437e-10
0.000213407
2.44476e-10
0.000213407
2.17687e-10
0.000213407
1.20118e-10
4.1402e-10
0.000219568
9.63218e-10
0.000219568
1.14233e-09
0.000219568
1.17496e-09
0.000219568
1.1295e-09
0.000219568
1.05138e-09
0.000219568
9.53373e-10
0.000219568
8.40428e-10
0.000219568
7.16309e-10
0.000219568
5.84486e-10
0.000219568
4.48824e-10
0.000219569
3.1298e-10
0.000219569
1.79997e-10
0.000219569
5.20352e-11
0.000219569
-6.97229e-11
0.000219569
-1.84939e-10
0.000219569
-2.93786e-10
0.000219569
-3.96531e-10
0.000219569
-4.93219e-10
0.000219569
-5.83561e-10
0.000219569
-6.67038e-10
0.000219569
-7.43132e-10
0.000219569
-8.11554e-10
0.000219569
-8.72367e-10
0.000219569
-9.25981e-10
0.000219569
-9.73025e-10
0.000219569
-1.0142e-09
0.000219569
-1.05013e-09
0.000219569
-1.08138e-09
0.000219569
-1.10843e-09
0.000219569
-1.13174e-09
0.000219569
-1.15186e-09
0.000219569
-1.16939e-09
0.000219569
-1.18496e-09
0.000219569
-1.19923e-09
0.000219569
-1.21276e-09
0.000219569
-1.22608e-09
0.000219569
-1.23949e-09
0.000219569
-1.2532e-09
0.000219569
-1.26682e-09
0.000219569
-1.28007e-09
0.000219569
-1.28947e-09
0.000219569
-1.29896e-09
0.000219569
-1.27077e-09
0.000219569
-1.32755e-09
-9.7564e-10
0.000219568
9.58715e-10
0.000219568
1.18512e-09
0.000219568
1.24099e-09
0.000219568
1.20712e-09
0.000219568
1.13029e-09
0.000219568
1.02912e-09
0.000219568
9.13389e-10
0.000219568
7.90655e-10
0.000219568
6.65607e-10
0.000219568
5.45215e-10
0.000219568
4.31214e-10
0.000219568
3.33954e-10
0.000219568
2.45332e-10
0.000219568
2.11023e-10
0.000219568
9.5542e-11
3.97607e-10
0.00022587
9.62901e-10
0.00022587
1.13369e-09
0.000225871
1.14976e-09
0.000225871
1.08981e-09
0.000225871
1.00119e-09
0.000225871
8.96401e-10
0.000225871
7.79552e-10
0.000225871
6.53746e-10
0.000225871
5.21936e-10
0.000225871
3.87568e-10
0.000225871
2.5396e-10
0.000225871
1.23888e-10
0.000225871
-6.88011e-13
0.000225871
-1.1873e-10
0.000225871
-2.30008e-10
0.000225871
-3.34776e-10
0.000225871
-4.33367e-10
0.000225871
-5.25883e-10
0.000225871
-6.12079e-10
0.000225871
-6.91474e-10
0.000225871
-7.63577e-10
0.000225871
-8.28112e-10
0.000225871
-8.85148e-10
0.000225871
-9.35092e-10
0.000225871
-9.78573e-10
0.000225871
-1.01629e-09
0.000225871
-1.0489e-09
0.000225871
-1.07697e-09
0.000225871
-1.10097e-09
0.000225871
-1.12142e-09
0.000225871
-1.13885e-09
0.000225871
-1.15386e-09
0.000225871
-1.1671e-09
0.000225871
-1.17924e-09
0.000225871
-1.19089e-09
0.000225871
-1.20259e-09
0.000225871
-1.21473e-09
0.000225871
-1.22759e-09
0.000225871
-1.24098e-09
0.000225871
-1.25463e-09
0.000225871
-1.26586e-09
0.000225871
-1.27826e-09
0.000225871
-1.2559e-09
0.000225871
-1.32846e-09
-9.63997e-10
0.000225871
1.01773e-09
0.000225871
1.23305e-09
0.00022587
1.273e-09
0.00022587
1.22652e-09
0.00022587
1.1417e-09
0.00022587
1.03615e-09
0.00022587
9.18296e-10
0.00022587
7.94652e-10
0.00022587
6.6928e-10
0.00022587
5.48363e-10
0.00022587
4.33522e-10
0.00022587
3.33664e-10
0.00022587
2.4133e-10
0.00022587
1.99269e-10
0.00022587
6.57476e-11
3.76653e-10
0.000232317
9.59032e-10
0.000232317
1.12178e-09
0.000232317
1.12132e-09
0.000232317
1.04693e-09
0.000232317
9.47866e-10
0.000232317
8.36394e-10
0.000232317
7.15774e-10
0.000232317
5.88438e-10
0.000232317
4.5682e-10
0.000232317
3.23943e-10
0.000232317
1.9278e-10
0.000232318
6.58321e-11
0.000232318
-5.51481e-11
0.000232318
-1.69272e-10
0.000232318
-2.76414e-10
0.000232318
-3.76908e-10
0.000232318
-4.7115e-10
0.000232318
-5.59295e-10
0.000232318
-6.41147e-10
0.000232318
-7.16265e-10
0.000232318
-7.84186e-10
0.000232318
-8.44652e-10
0.000232318
-8.97736e-10
0.000232318
-9.43844e-10
0.000232318
-9.83604e-10
0.000232318
-1.01772e-09
0.000232318
-1.04686e-09
0.000232318
-1.0716e-09
0.000232318
-1.09244e-09
0.000232318
-1.1099e-09
0.000232318
-1.12451e-09
0.000232318
-1.1369e-09
0.000232318
-1.14772e-09
0.000232318
-1.15765e-09
0.000232318
-1.16734e-09
0.000232318
-1.17737e-09
0.000232318
-1.18821e-09
0.000232318
-1.2002e-09
0.000232318
-1.21337e-09
0.000232318
-1.2275e-09
0.000232318
-1.24068e-09
0.000232318
-1.25624e-09
0.000232318
-1.24021e-09
0.000232318
-1.32898e-09
-9.51879e-10
0.000232317
1.07426e-09
0.000232317
1.27889e-09
0.000232317
1.30262e-09
0.000232317
1.24303e-09
0.000232317
1.14969e-09
0.000232317
1.03929e-09
0.000232317
9.18955e-10
0.000232317
7.94154e-10
0.000232317
6.68317e-10
0.000232317
5.46817e-10
0.000232317
4.31104e-10
0.000232317
3.28632e-10
0.000232317
2.32487e-10
0.000232317
1.82422e-10
0.000232317
3.08145e-11
3.51267e-10
0.000238911
9.51706e-10
0.000238911
1.10667e-09
0.000238911
1.08974e-09
0.000238911
1.00095e-09
0.000238911
8.91528e-10
0.000238911
7.73481e-10
0.000238911
6.49227e-10
0.000238911
5.20517e-10
0.000238911
3.89265e-10
0.000238911
2.58069e-10
0.000238911
1.29553e-10
0.000238911
5.93308e-12
0.000238911
-1.11251e-10
0.000238911
-2.21262e-10
0.000238911
-3.24082e-10
0.000238911
-4.20118e-10
0.000238911
-5.09828e-10
0.000238911
-5.9342e-10
0.000238912
-6.70746e-10
0.000238912
-7.41408e-10
0.000238912
-8.04974e-10
0.000238912
-8.61203e-10
0.000238912
-9.10176e-10
0.000238912
-9.52297e-10
0.000238912
-9.88192e-10
0.000238912
-1.01857e-09
0.000238912
-1.04411e-09
0.000238912
-1.06539e-09
0.000238912
-1.08296e-09
0.000238912
-1.09731e-09
0.000238912
-1.10901e-09
0.000238912
-1.11868e-09
0.000238912
-1.12699e-09
0.000238911
-1.13464e-09
0.000238911
-1.1423e-09
0.000238911
-1.15061e-09
0.000238911
-1.16012e-09
0.000238911
-1.17123e-09
0.000238911
-1.18421e-09
0.000238911
-1.19888e-09
0.000238911
-1.21414e-09
0.000238911
-1.23309e-09
0.000238911
-1.22388e-09
0.000238911
-1.3291e-09
-9.39186e-10
0.000238911
1.12862e-09
0.00023891
1.32288e-09
0.00023891
1.33008e-09
0.00023891
1.25696e-09
0.00023891
1.15463e-09
0.00023891
1.03896e-09
0.00023891
9.15773e-10
0.00023891
7.89544e-10
0.00023891
6.63052e-10
0.00023891
5.40852e-10
0.00023891
4.2417e-10
0.00023891
3.19014e-10
0.000238911
2.18918e-10
0.000238911
1.6058e-10
0.000238911
-9.07122e-12
3.21652e-10
0.000245655
9.41093e-10
0.000245655
1.0885e-09
0.000245655
1.05517e-09
0.000245655
9.52071e-10
0.000245655
8.32369e-10
0.000245655
7.07855e-10
0.000245655
5.80101e-10
0.000245655
4.50168e-10
0.000245655
3.19447e-10
0.000245655
1.90109e-10
0.000245655
6.4425e-11
0.000245655
-5.56754e-11
0.000245655
-1.68875e-10
0.000245655
-2.74593e-10
0.000245655
-3.72916e-10
0.000245655
-4.64326e-10
0.000245655
-5.49338e-10
0.000245655
-6.28212e-10
0.000245655
-7.00849e-10
0.000245655
-7.66895e-10
0.000245655
-8.2595e-10
0.000245656
-8.77793e-10
0.000245656
-9.22513e-10
0.000245656
-9.60511e-10
0.000245656
-9.92413e-10
0.000245656
-1.01893e-09
0.000245656
-1.04075e-09
0.000245656
-1.05848e-09
0.000245656
-1.07265e-09
0.000245656
-1.08381e-09
0.000245655
-1.09251e-09
0.000245655
-1.09938e-09
0.000245655
-1.1051e-09
0.000245655
-1.1104e-09
0.000245655
-1.11598e-09
0.000245655
-1.12253e-09
0.000245655
-1.13068e-09
0.000245655
-1.1409e-09
0.000245655
-1.15371e-09
0.000245655
-1.16899e-09
0.000245655
-1.18646e-09
0.000245655
-1.20901e-09
0.000245655
-1.20704e-09
0.000245655
-1.32883e-09
-9.25827e-10
0.000245654
1.18109e-09
0.000245654
1.36523e-09
0.000245654
1.35566e-09
0.000245654
1.26863e-09
0.000245654
1.15688e-09
0.000245654
1.03554e-09
0.000245654
9.09163e-10
0.000245654
7.81225e-10
0.000245654
6.53856e-10
0.000245654
5.30792e-10
0.000245654
4.12995e-10
0.000245654
3.05041e-10
0.000245654
2.00821e-10
0.000245654
1.33931e-10
0.000245654
-5.36243e-11
2.881e-10
0.000252552
9.27432e-10
0.000252552
1.06748e-09
0.000252552
1.01785e-09