/*--------------------------------*- C++ -*----------------------------------*\
  =========                 |
  \\      /  F ield         | OpenFOAM: The Open Source CFD Toolbox
   \\    /   O peration     | Website:  https://openfoam.org
    \\  /    A nd           | Version:  7
     \\/     M anipulation  |
\*---------------------------------------------------------------------------*/
FoamFile
{
    version     2.0;
    format      ascii;
    class       volScalarField;
    location    "1500";
    object      k;
}
// * * * * * * * * * * * * * * * * * * * * * * * * * * * * * * * * * * * * * //

dimensions      [0 2 -2 0 0 0 0];

internalField   nonuniform List<scalar> 
3974
(
0.000151368
0.000151367
0.000151366
0.000151364
0.000151363
0.000151361
0.00015136
0.000151358
0.000151357
0.000151356
0.000151355
0.000151354
0.000151352
0.000151351
0.00015135
0.000151349
0.000151348
0.000151347
0.000151346
0.000151345
0.000151344
0.000151343
0.000151342
0.000151341
0.00015134
0.000151339
0.000151338
0.000151337
0.000151336
0.000151335
0.000151333
0.000151332
0.000151331
0.00015133
0.000151329
0.000151328
0.000151326
0.000151326
0.000148652
0.000148653
0.000148661
0.000148664
0.000148664
0.000148664
0.000148663
0.000148663
0.000148662
0.000148661
0.00014866
0.000148659
0.000148658
0.000148657
0.000148656
0.000148655
0.000148654
0.000148653
0.000148653
0.000148652
0.000148651
0.00014865
0.000148649
0.000148648
0.000148647
0.000148646
0.000148645
0.000148644
0.000148643
0.000148642
0.000148641
0.00014864
0.000148639
0.000148638
0.000148637
0.000148636
0.000148635
0.000148634
0.000148633
0.000148633
0.000148617
0.000148613
0.000145836
0.000145836
0.000145845
0.00014585
0.000145855
0.000145859
0.000145862
0.000145863
0.000145863
0.000145863
0.000145863
0.000145863
0.000145862
0.000145862
0.000145861
0.000145861
0.00014586
0.00014586
0.000145859
0.000145858
0.000145857
0.000145857
0.000145856
0.000145855
0.000145855
0.000145854
0.000145853
0.000145852
0.000145851
0.000145851
0.00014585
0.000145849
0.000145848
0.000145847
0.000145846
0.000145845
0.000145844
0.000145843
0.000145842
0.000145841
0.00014584
0.00014584
0.000145833
0.000145828
0.000145809
0.000145803
0.000145803
0.000145804
0.000145805
0.000145806
0.000145806
0.000145807
0.000145808
0.000145809
0.00014581
0.00014581
0.000145811
0.000145811
0.000145814
0.000142948
0.000142947
0.000142953
0.000142958
0.000142963
0.000142968
0.000142972
0.000142974
0.000142976
0.000142977
0.000142977
0.000142978
0.000142978
0.000142978
0.000142978
0.000142977
0.000142977
0.000142977
0.000142976
0.000142976
0.000142975
0.000142975
0.000142974
0.000142974
0.000142973
0.000142973
0.000142972
0.000142971
0.000142971
0.00014297
0.000142969
0.000142969
0.000142968
0.000142967
0.000142966
0.000142965
0.000142965
0.000142964
0.000142963
0.000142962
0.000142961
0.000142961
0.000142957
0.000142953
0.000142942
0.000142934
0.00014293
0.000142929
0.000142928
0.000142928
0.000142928
0.000142929
0.000142929
0.000142929
0.00014293
0.00014293
0.000142931
0.000142931
0.000142934
0.000139984
0.000139982
0.000139986
0.000139991
0.000139996
0.000140001
0.000140005
0.000140008
0.000140011
0.000140013
0.000140014
0.000140015
0.000140016
0.000140016
0.000140016
0.000140017
0.000140017
0.000140017
0.000140017
0.000140017
0.000140016
0.000140016
0.000140016
0.000140015
0.000140015
0.000140015
0.000140014
0.000140014
0.000140013
0.000140013
0.000140012
0.000140012
0.000140011
0.00014001
0.00014001
0.000140009
0.000140008
0.000140008
0.000140007
0.000140006
0.000140005
0.000140005
0.000140003
0.00014
0.000139993
0.000139985
0.00013998
0.000139977
0.000139975
0.000139974
0.000139974
0.000139973
0.000139973
0.000139973
0.000139973
0.000139973
0.000139973
0.000139973
0.000139977
0.000136955
0.000136952
0.000136955
0.000136959
0.000136963
0.000136968
0.000136972
0.000136976
0.000136979
0.000136982
0.000136984
0.000136985
0.000136986
0.000136987
0.000136988
0.000136989
0.000136989
0.00013699
0.00013699
0.00013699
0.00013699
0.00013699
0.00013699
0.00013699
0.00013699
0.00013699
0.000136989
0.000136989
0.000136989
0.000136988
0.000136988
0.000136988
0.000136987
0.000136987
0.000136986
0.000136986
0.000136985
0.000136985
0.000136984
0.000136983
0.000136983
0.000136982
0.000136981
0.000136979
0.000136974
0.000136969
0.000136963
0.000136959
0.000136957
0.000136955
0.000136954
0.000136953
0.000136952
0.000136951
0.000136951
0.000136951
0.000136951
0.00013695
0.000136954
0.000133871
0.000133867
0.000133868
0.000133871
0.000133875
0.000133879
0.000133884
0.000133887
0.000133891
0.000133894
0.000133896
0.000133898
0.0001339
0.000133901
0.000133903
0.000133904
0.000133904
0.000133905
0.000133906
0.000133906
0.000133906
0.000133907
0.000133907
0.000133907
0.000133907
0.000133907
0.000133907
0.000133907
0.000133907
0.000133907
0.000133906
0.000133906
0.000133906
0.000133906
0.000133905
0.000133905
0.000133905
0.000133904
0.000133904
0.000133903
0.000133903
0.000133902
0.000133901
0.0001339
0.000133897
0.000133893
0.000133889
0.000133885
0.000133881
0.000133879
0.000133877
0.000133876
0.000133875
0.000133874
0.000133873
0.000133873
0.000133872
0.000133871
0.000133875
0.000130739
0.000130735
0.000130736
0.000130738
0.000130741
0.000130745
0.000130749
0.000130752
0.000130756
0.000130759
0.000130762
0.000130764
0.000130766
0.000130768
0.000130769
0.000130771
0.000130772
0.000130773
0.000130774
0.000130774
0.000130775
0.000130776
0.000130776
0.000130776
0.000130777
0.000130777
0.000130777
0.000130777
0.000130777
0.000130777
0.000130777
0.000130777
0.000130777
0.000130777
0.000130777
0.000130776
0.000130776
0.000130776
0.000130775
0.000130775
0.000130775
0.000130774
0.000130774
0.000130773
0.000130771
0.000130768
0.000130765
0.000130762
0.000130758
0.000130756
0.000130754
0.000130752
0.00013075
0.000130749
0.000130748
0.000130747
0.000130747
0.000130746
0.00013075
0.00012757
0.000127566
0.000127566
0.000127568
0.000127571
0.000127574
0.000127577
0.00012758
0.000127583
0.000127587
0.000127589
0.000127592
0.000127594
0.000127596
0.000127598
0.0001276
0.000127601
0.000127602
0.000127603
0.000127604
0.000127605
0.000127606
0.000127607
0.000127607
0.000127608
0.000127608
0.000127608
0.000127609
0.000127609
0.000127609
0.000127609
0.000127609
0.000127609
0.000127609
0.000127609
0.000127609
0.000127609
0.000127609
0.000127609
0.000127609
0.000127608
0.000127608
0.000127608
0.000127607
0.000127606
0.000127605
0.000127602
0.000127599
0.000127597
0.000127594
0.000127592
0.00012759
0.000127588
0.000127587
0.000127586
0.000127585
0.000127584
0.000127582
0.000127586
0.000124373
0.000124369
0.000124369
0.00012437
0.000124372
0.000124375
0.000124378
0.00012438
0.000124383
0.000124386
0.000124389
0.000124392
0.000124394
0.000124396
0.000124398
0.0001244
0.000124402
0.000124403
0.000124404
0.000124406
0.000124407
0.000124408
0.000124408
0.000124409
0.00012441
0.00012441
0.000124411
0.000124412
0.000124412
0.000124412
0.000124413
0.000124413
0.000124413
0.000124413
0.000124413
0.000124413
0.000124413
0.000124413
0.000124413
0.000124413
0.000124413
0.000124413
0.000124413
0.000124413
0.000124412
0.000124411
0.000124409
0.000124407
0.000124405
0.000124403
0.000124401
0.000124399
0.000124397
0.000124396
0.000124394
0.000124393
0.000124392
0.000124391
0.000124395
0.000121157
0.000121152
0.000121152
0.000121154
0.000121155
0.000121157
0.00012116
0.000121162
0.000121165
0.000121168
0.00012117
0.000121173
0.000121175
0.000121177
0.000121179
0.000121181
0.000121183
0.000121185
0.000121186
0.000121187
0.000121189
0.00012119
0.000121191
0.000121192
0.000121193
0.000121193
0.000121194
0.000121195
0.000121195
0.000121196
0.000121196
0.000121197
0.000121197
0.000121197
0.000121198
0.000121198
0.000121198
0.000121198
0.000121198
0.000121198
0.000121198
0.000121198
0.000121198
0.000121198
0.000121198
0.000121197
0.000121196
0.000121195
0.000121193
0.000121191
0.00012119
0.000121188
0.000121186
0.000121185
0.000121184
0.000121182
0.000121182
0.00012118
0.000121183
0.000117932
0.000117926
0.000117926
0.000117927
0.000117929
0.000117931
0.000117933
0.000117935
0.000117937
0.00011794
0.000117942
0.000117944
0.000117947
0.000117949
0.000117951
0.000117953
0.000117955
0.000117956
0.000117958
0.000117959
0.000117961
0.000117962
0.000117963
0.000117964
0.000117965
0.000117966
0.000117967
0.000117968
0.000117968
0.000117969
0.00011797
0.00011797
0.000117971
0.000117971
0.000117972
0.000117972
0.000117972
0.000117973
0.000117973
0.000117973
0.000117973
0.000117973
0.000117973
0.000117973
0.000117973
0.000117973
0.000117973
0.000117972
0.000117971
0.000117969
0.000117968
0.000117966
0.000117965
0.000117964
0.000117962
0.000117961
0.00011796
0.000117958
0.000117962
0.000114705
0.0001147
0.0001147
0.000114701
0.000114702
0.000114704
0.000114706
0.000114708
0.00011471
0.000114712
0.000114714
0.000114716
0.000114718
0.00011472
0.000114722
0.000114724
0.000114726
0.000114728
0.000114729
0.000114731
0.000114732
0.000114734
0.000114735
0.000114736
0.000114737
0.000114738
0.000114739
0.00011474
0.000114741
0.000114742
0.000114742
0.000114743
0.000114744
0.000114744
0.000114745
0.000114745
0.000114746
0.000114746
0.000114746
0.000114747
0.000114747
0.000114747
0.000114747
0.000114748
0.000114748
0.000114748
0.000114747
0.000114747
0.000114746
0.000114745
0.000114744
0.000114743
0.000114742
0.000114741
0.00011474
0.000114739
0.000114738
0.000114736
0.00011474
0.000111488
0.000111482
0.000111482
0.000111483
0.000111484
0.000111486
0.000111488
0.000111489
0.000111491
0.000111493
0.000111495
0.000111497
0.000111499
0.000111501
0.000111502
0.000111504
0.000111506
0.000111508
0.000111509
0.000111511
0.000111512
0.000111514
0.000111515
0.000111516
0.000111517
0.000111519
0.00011152
0.000111521
0.000111521
0.000111522
0.000111523
0.000111524
0.000111525
0.000111525
0.000111526
0.000111527
0.000111527
0.000111528
0.000111528
0.000111529
0.000111529
0.000111529
0.00011153
0.00011153
0.00011153
0.00011153
0.00011153
0.00011153
0.00011153
0.000111529
0.000111529
0.000111528
0.000111527
0.000111526
0.000111525
0.000111524
0.000111523
0.000111522
0.000111526
0.000108287
0.000108282
0.000108282
0.000108283
0.000108284
0.000108286
0.000108287
0.000108289
0.00010829
0.000108292
0.000108294
0.000108295
0.000108297
0.000108299
0.000108301
0.000108302
0.000108304
0.000108306
0.000108307
0.000108309
0.00010831
0.000108312
0.000108313
0.000108314
0.000108315
0.000108317
0.000108318
0.000108319
0.00010832
0.000108321
0.000108322
0.000108322
0.000108323
0.000108324
0.000108325
0.000108325
0.000108326
0.000108327
0.000108327
0.000108328
0.000108328
0.000108329
0.000108329
0.000108329
0.00010833
0.00010833
0.00010833
0.00010833
0.00010833
0.00010833
0.00010833
0.000108329
0.000108329
0.000108328
0.000108327
0.000108327
0.000108326
0.000108324
0.000108328
0.000105114
0.000105109
0.000105108
0.000105109
0.000105111
0.000105112
0.000105113
0.000105115
0.000105116
0.000105118
0.000105119
0.000105121
0.000105122
0.000105124
0.000105126
0.000105127
0.000105129
0.00010513
0.000105132
0.000105133
0.000105135
0.000105136
0.000105138
0.000105139
0.00010514
0.000105141
0.000105142
0.000105143
0.000105144
0.000105145
0.000105146
0.000105147
0.000105148
0.000105149
0.00010515
0.00010515
0.000105151
0.000105152
0.000105153
0.000105153
0.000105154
0.000105154
0.000105155
0.000105155
0.000105156
0.000105156
0.000105156
0.000105157
0.000105157
0.000105157
0.000105157
0.000105157
0.000105156
0.000105156
0.000105155
0.000105155
0.000105154
0.000105153
0.000105157
0.000101976
0.00010197
0.00010197
0.000101971
0.000101972
0.000101974
0.000101975
0.000101976
0.000101978
0.000101979
0.000101981
0.000101982
0.000101983
0.000101985
0.000101986
0.000101988
0.000101989
0.000101991
0.000101992
0.000101994
0.000101995
0.000101996
0.000101998
0.000101999
0.000102
0.000102001
0.000102002
0.000102003
0.000102004
0.000102005
0.000102006
0.000102007
0.000102008
0.000102009
0.00010201
0.000102011
0.000102012
0.000102012
0.000102013
0.000102014
0.000102014
0.000102015
0.000102016
0.000102016
0.000102017
0.000102017
0.000102018
0.000102018
0.000102018
0.000102019
0.000102019
0.000102019
0.000102019
0.000102018
0.000102018
0.000102018
0.000102018
0.000102016
0.000102021
9.88815e-05
9.8876e-05
9.88758e-05
9.88768e-05
9.88781e-05
9.88794e-05
9.88807e-05
9.8882e-05
9.88833e-05
9.88845e-05
9.88858e-05
9.88871e-05
9.88884e-05
9.88898e-05
9.88911e-05
9.88925e-05
9.88939e-05
9.88952e-05
9.88966e-05
9.88979e-05
9.88992e-05
9.89004e-05
9.89016e-05
9.89028e-05
9.8904e-05
9.89051e-05
9.89063e-05
9.89073e-05
9.89084e-05
9.89094e-05
9.89104e-05
9.89113e-05
9.89123e-05
9.89132e-05
9.8914e-05
9.89149e-05
9.89157e-05
9.89165e-05
9.89172e-05
9.8918e-05
9.89187e-05
9.89194e-05
9.892e-05
9.89206e-05
9.89212e-05
9.89218e-05
9.89223e-05
9.89228e-05
9.89233e-05
9.89236e-05
9.89239e-05
9.89241e-05
9.89242e-05
9.89242e-05
9.89241e-05
9.89239e-05
9.89239e-05
9.89227e-05
9.89272e-05
9.58393e-05
9.58337e-05
9.58335e-05
9.58345e-05
9.58358e-05
9.58371e-05
9.58384e-05
9.58397e-05
9.58409e-05
9.58421e-05
9.58433e-05
9.58445e-05
9.58457e-05
9.5847e-05
9.58482e-05
9.58495e-05
9.58507e-05
9.5852e-05
9.58532e-05
9.58545e-05
9.58557e-05
9.58569e-05
9.5858e-05
9.58592e-05
9.58603e-05
9.58614e-05
9.58625e-05
9.58635e-05
9.58645e-05
9.58655e-05
9.58665e-05
9.58675e-05
9.58684e-05
9.58693e-05
9.58702e-05
9.58711e-05
9.58719e-05
9.58727e-05
9.58735e-05
9.58743e-05
9.5875e-05
9.58757e-05
9.58764e-05
9.58771e-05
9.58778e-05
9.58784e-05
9.5879e-05
9.58796e-05
9.58801e-05
9.58805e-05
9.58809e-05
9.58813e-05
9.58815e-05
9.58817e-05
9.58818e-05
9.58818e-05
9.58819e-05
9.58808e-05
9.58855e-05
9.28571e-05
9.28515e-05
9.28513e-05
9.28523e-05
9.28536e-05
9.28549e-05
9.28561e-05
9.28574e-05
9.28586e-05
9.28597e-05
9.28609e-05
9.2862e-05
9.28632e-05
9.28643e-05
9.28655e-05
9.28666e-05
9.28678e-05
9.2869e-05
9.28701e-05
9.28713e-05
9.28724e-05
9.28735e-05
9.28746e-05
9.28757e-05
9.28767e-05
9.28778e-05
9.28788e-05
9.28798e-05
9.28808e-05
9.28818e-05
9.28828e-05
9.28837e-05
9.28846e-05
9.28855e-05
9.28864e-05
9.28873e-05
9.28881e-05
9.28889e-05
9.28898e-05
9.28905e-05
9.28913e-05
9.28921e-05
9.28928e-05
9.28935e-05
9.28942e-05
9.28948e-05
9.28955e-05
9.28961e-05
9.28967e-05
9.28972e-05
9.28977e-05
9.28982e-05
9.28985e-05
9.28988e-05
9.28991e-05
9.28992e-05
9.28995e-05
9.28985e-05
9.29033e-05
8.99424e-05
8.99368e-05
8.99366e-05
8.99376e-05
8.99389e-05
8.99401e-05
8.99414e-05
8.99426e-05
8.99438e-05
8.99449e-05
8.9946e-05
8.99471e-05
8.99482e-05
8.99493e-05
8.99504e-05
8.99514e-05
8.99525e-05
8.99536e-05
8.99547e-05
8.99557e-05
8.99568e-05
8.99578e-05
8.99589e-05
8.99599e-05
8.99609e-05
8.99619e-05
8.99628e-05
8.99638e-05
8.99648e-05
8.99657e-05
8.99666e-05
8.99676e-05
8.99684e-05
8.99693e-05
8.99702e-05
8.9971e-05
8.99719e-05
8.99727e-05
8.99735e-05
8.99743e-05
8.99751e-05
8.99759e-05
8.99766e-05
8.99773e-05
8.9978e-05
8.99787e-05
8.99794e-05
8.99801e-05
8.99807e-05
8.99813e-05
8.99819e-05
8.99824e-05
8.99828e-05
8.99832e-05
8.99836e-05
8.99838e-05
8.99842e-05
8.99834e-05
8.99882e-05
8.71023e-05
8.70967e-05
8.70965e-05
8.70975e-05
8.70987e-05
8.71e-05
8.71012e-05
8.71024e-05
8.71036e-05
8.71047e-05
8.71058e-05
8.71068e-05
8.71078e-05
8.71089e-05
8.71099e-05
8.71109e-05
8.71119e-05
8.71129e-05
8.71139e-05
8.71149e-05
8.71159e-05
8.71169e-05
8.71178e-05
8.71188e-05
8.71197e-05
8.71206e-05
8.71216e-05
8.71225e-05
8.71234e-05
8.71243e-05
8.71252e-05
8.71261e-05
8.71269e-05
8.71278e-05
8.71286e-05
8.71294e-05
8.71303e-05
8.71311e-05
8.71319e-05
8.71327e-05
8.71334e-05
8.71342e-05
8.7135e-05
8.71357e-05
8.71364e-05
8.71371e-05
8.71378e-05
8.71385e-05
8.71392e-05
8.71398e-05
8.71404e-05
8.71409e-05
8.71415e-05
8.71419e-05
8.71424e-05
8.71427e-05
8.71432e-05
8.71425e-05
8.71473e-05
8.43432e-05
8.43377e-05
8.43375e-05
8.43385e-05
8.43397e-05
8.43409e-05
8.43421e-05
8.43433e-05
8.43444e-05
8.43455e-05
8.43466e-05
8.43476e-05
8.43486e-05
8.43496e-05
8.43505e-05
8.43515e-05
8.43524e-05
8.43534e-05
8.43543e-05
8.43553e-05
8.43562e-05
8.43571e-05
8.4358e-05
8.43589e-05
8.43597e-05
8.43606e-05
8.43615e-05
8.43623e-05
8.43632e-05
8.4364e-05
8.43649e-05
8.43657e-05
8.43665e-05
8.43674e-05
8.43682e-05
8.4369e-05
8.43698e-05
8.43706e-05
8.43713e-05
8.43721e-05
8.43729e-05
8.43736e-05
8.43744e-05
8.43751e-05
8.43758e-05
8.43765e-05
8.43772e-05
8.43779e-05
8.43786e-05
8.43792e-05
8.43799e-05
8.43805e-05
8.4381e-05
8.43815e-05
8.4382e-05
8.43824e-05
8.4383e-05
8.43824e-05
8.43871e-05
8.16711e-05
8.16657e-05
8.16655e-05
8.16664e-05
8.16676e-05
8.16688e-05
8.167e-05
8.16711e-05
8.16723e-05
8.16733e-05
8.16743e-05
8.16753e-05
8.16763e-05
8.16772e-05
8.16782e-05
8.16791e-05
8.168e-05
8.16809e-05
8.16818e-05
8.16826e-05
8.16835e-05
8.16844e-05
8.16852e-05
8.1686e-05
8.16868e-05
8.16876e-05
8.16885e-05
8.16893e-05
8.16901e-05
8.16909e-05
8.16917e-05
8.16924e-05
8.16932e-05
8.1694e-05
8.16948e-05
8.16955e-05
8.16963e-05
8.16971e-05
8.16978e-05
8.16985e-05
8.16993e-05
8.17e-05
8.17007e-05
8.17015e-05
8.17022e-05
8.17029e-05
8.17036e-05
8.17043e-05
8.17049e-05
8.17056e-05
8.17062e-05
8.17068e-05
8.17074e-05
8.1708e-05
8.17085e-05
8.17089e-05
8.17095e-05
8.1709e-05
8.17137e-05
7.90912e-05
7.90859e-05
7.90857e-05
7.90866e-05
7.90878e-05
7.90889e-05
7.90901e-05
7.90912e-05
7.90923e-05
7.90933e-05
7.90943e-05
7.90953e-05
7.90962e-05
7.90971e-05
7.9098e-05
7.90989e-05
7.90998e-05
7.91006e-05
7.91015e-05
7.91023e-05
7.91031e-05
7.91039e-05
7.91047e-05
7.91054e-05
7.91062e-05
7.9107e-05
7.91077e-05
7.91085e-05
7.91092e-05
7.911e-05
7.91107e-05
7.91115e-05
7.91122e-05
7.91129e-05
7.91136e-05
7.91144e-05
7.91151e-05
7.91158e-05
7.91165e-05
7.91172e-05
7.91179e-05
7.91186e-05
7.91193e-05
7.912e-05
7.91207e-05
7.91214e-05
7.91221e-05
7.91228e-05
7.91234e-05
7.91241e-05
7.91247e-05
7.91253e-05
7.91259e-05
7.91265e-05
7.91271e-05
7.91275e-05
7.91281e-05
7.91277e-05
7.91323e-05
7.66081e-05
7.66029e-05
7.66027e-05
7.66036e-05
7.66047e-05
7.66058e-05
7.66069e-05
7.6608e-05
7.66091e-05
7.66101e-05
7.6611e-05
7.6612e-05
7.66129e-05
7.66138e-05
7.66146e-05
7.66155e-05
7.66163e-05
7.66171e-05
7.66179e-05
7.66187e-05
7.66195e-05
7.66202e-05
7.6621e-05
7.66217e-05
7.66224e-05
7.66231e-05
7.66238e-05
7.66245e-05
7.66252e-05
7.66259e-05
7.66266e-05
7.66273e-05
7.6628e-05
7.66287e-05
7.66293e-05
7.663e-05
7.66307e-05
7.66314e-05
7.6632e-05
7.66327e-05
7.66334e-05
7.66341e-05
7.66347e-05
7.66354e-05
7.66361e-05
7.66367e-05
7.66374e-05
7.6638e-05
7.66387e-05
7.66393e-05
7.66399e-05
7.66406e-05
7.66412e-05
7.66417e-05
7.66423e-05
7.66428e-05
7.66434e-05
7.6643e-05
7.66475e-05
7.42255e-05
7.42205e-05
7.42203e-05
7.42211e-05
7.42222e-05
7.42233e-05
7.42244e-05
7.42254e-05
7.42264e-05
7.42274e-05
7.42283e-05
7.42292e-05
7.42301e-05
7.4231e-05
7.42318e-05
7.42326e-05
7.42334e-05
7.42342e-05
7.42349e-05
7.42357e-05
7.42364e-05
7.42371e-05
7.42378e-05
7.42385e-05
7.42392e-05
7.42398e-05
7.42405e-05
7.42411e-05
7.42418e-05
7.42424e-05
7.42431e-05
7.42437e-05
7.42444e-05
7.4245e-05
7.42456e-05
7.42463e-05
7.42469e-05
7.42475e-05
7.42482e-05
7.42488e-05
7.42494e-05
7.42501e-05
7.42507e-05
7.42513e-05
7.4252e-05
7.42526e-05
7.42532e-05
7.42538e-05
7.42545e-05
7.42551e-05
7.42557e-05
7.42563e-05
7.42569e-05
7.42574e-05
7.4258e-05
7.42585e-05
7.42591e-05
7.42588e-05
7.4263e-05
7.19466e-05
7.19417e-05
7.19415e-05
7.19423e-05
7.19433e-05
7.19443e-05
7.19454e-05
7.19464e-05
7.19474e-05
7.19483e-05
7.19492e-05
7.19501e-05
7.19509e-05
7.19517e-05
7.19525e-05
7.19533e-05
7.19541e-05
7.19548e-05
7.19555e-05
7.19563e-05
7.1957e-05
7.19576e-05
7.19583e-05
7.19589e-05
7.19595e-05
7.19602e-05
7.19608e-05
7.19614e-05
7.1962e-05
7.19626e-05
7.19632e-05
7.19638e-05
7.19644e-05
7.1965e-05
7.19656e-05
7.19661e-05
7.19667e-05
7.19673e-05
7.19679e-05
7.19685e-05
7.19691e-05
7.19697e-05
7.19703e-05
7.19709e-05
7.19715e-05
7.19721e-05
7.19727e-05
7.19732e-05
7.19738e-05
7.19744e-05
7.1975e-05
7.19756e-05
7.19761e-05
7.19767e-05
7.19772e-05
7.19777e-05
7.19783e-05
7.19781e-05
7.19821e-05
6.97734e-05
6.97688e-05
6.97685e-05
6.97693e-05
6.97703e-05
6.97713e-05
6.97723e-05
6.97732e-05
6.97742e-05
6.97751e-05
6.97759e-05
6.97768e-05
6.97776e-05
6.97784e-05
6.97791e-05
6.97799e-05
6.97806e-05
6.97813e-05
6.9782e-05
6.97827e-05
6.97833e-05
6.9784e-05
6.97846e-05
6.97852e-05
6.97858e-05
6.97864e-05
6.97869e-05
6.97875e-05
6.97881e-05
6.97886e-05
6.97892e-05
6.97897e-05
6.97903e-05
6.97908e-05
6.97914e-05
6.97919e-05
6.97924e-05
6.9793e-05
6.97935e-05
6.97941e-05
6.97946e-05
6.97952e-05
6.97957e-05
6.97963e-05
6.97968e-05
6.97974e-05
6.97979e-05
6.97985e-05
6.97991e-05
6.97996e-05
6.98002e-05
6.98007e-05
6.98012e-05
6.98018e-05
6.98023e-05
6.98027e-05
6.98033e-05
6.98031e-05
6.9807e-05
6.77077e-05
6.77032e-05
6.7703e-05
6.77037e-05
6.77046e-05
6.77055e-05
6.77065e-05
6.77074e-05
6.77083e-05
6.77092e-05
6.771e-05
6.77108e-05
6.77115e-05
6.77123e-05
6.7713e-05
6.77137e-05
6.77144e-05
6.77151e-05
6.77157e-05
6.77164e-05
6.7717e-05
6.77176e-05
6.77182e-05
6.77188e-05
6.77193e-05
6.77199e-05
6.77204e-05
6.77209e-05
6.77214e-05
6.77219e-05
6.77225e-05
6.7723e-05
6.77235e-05
6.7724e-05
6.77245e-05
6.7725e-05
6.77255e-05
6.7726e-05
6.77265e-05
6.7727e-05
6.77275e-05
6.7728e-05
6.77285e-05
6.7729e-05
6.77295e-05
6.773e-05
6.77305e-05
6.77311e-05
6.77316e-05
6.77321e-05
6.77326e-05
6.77331e-05
6.77336e-05
6.77341e-05
6.77346e-05
6.77351e-05
6.77356e-05
6.77354e-05
6.7739e-05
6.57499e-05
6.57456e-05
6.57454e-05
6.57461e-05
6.57469e-05
6.57478e-05
6.57487e-05
6.57496e-05
6.57504e-05
6.57513e-05
6.5752e-05
6.57528e-05
6.57535e-05
6.57542e-05
6.57549e-05
6.57556e-05
6.57562e-05
6.57569e-05
6.57575e-05
6.57581e-05
6.57587e-05
6.57593e-05
6.57598e-05
6.57603e-05
6.57609e-05
6.57614e-05
6.57618e-05
6.57623e-05
6.57628e-05
6.57633e-05
6.57638e-05
6.57642e-05
6.57647e-05
6.57652e-05
6.57656e-05
6.57661e-05
6.57665e-05
6.5767e-05
6.57674e-05
6.57679e-05
6.57683e-05
6.57688e-05
6.57693e-05
6.57697e-05
6.57702e-05
6.57707e-05
6.57711e-05
6.57716e-05
6.57721e-05
6.57726e-05
6.57731e-05
6.57735e-05
6.5774e-05
6.57745e-05
6.57749e-05
6.57753e-05
6.57759e-05
6.57757e-05
6.57791e-05
6.39001e-05
6.38961e-05
6.38958e-05
6.38965e-05
6.38973e-05
6.38981e-05
6.3899e-05
6.38998e-05
6.39006e-05
6.39013e-05
6.39021e-05
6.39028e-05
6.39035e-05
6.39041e-05
6.39048e-05
6.39054e-05
6.3906e-05
6.39066e-05
6.39072e-05
6.39078e-05
6.39083e-05
6.39088e-05
6.39094e-05
6.39099e-05
6.39103e-05
6.39108e-05
6.39113e-05
6.39117e-05
6.39122e-05
6.39126e-05
6.3913e-05
6.39134e-05
6.39139e-05
6.39143e-05
6.39147e-05
6.39151e-05
6.39155e-05
6.39159e-05
6.39163e-05
6.39168e-05
6.39172e-05
6.39176e-05
6.3918e-05
6.39184e-05
6.39189e-05
6.39193e-05
6.39197e-05
6.39202e-05
6.39206e-05
6.3921e-05
6.39215e-05
6.39219e-05
6.39223e-05
6.39228e-05
6.39232e-05
6.39236e-05
6.39241e-05
6.39239e-05
6.39271e-05
6.21575e-05
6.21537e-05
6.21535e-05
6.21541e-05
6.21549e-05
6.21557e-05
6.21564e-05
6.21572e-05
6.21579e-05
6.21586e-05
6.21593e-05
6.216e-05
6.21606e-05
6.21612e-05
6.21618e-05
6.21624e-05
6.2163e-05
6.21636e-05
6.21641e-05
6.21646e-05
6.21651e-05
6.21656e-05
6.21661e-05
6.21666e-05
6.2167e-05
6.21674e-05
6.21679e-05
6.21683e-05
6.21687e-05
6.21691e-05
6.21695e-05
6.21699e-05
6.21702e-05
6.21706e-05
6.2171e-05
6.21714e-05
6.21717e-05
6.21721e-05
6.21725e-05
6.21728e-05
6.21732e-05
6.21736e-05
6.2174e-05
6.21743e-05
6.21747e-05
6.21751e-05
6.21755e-05
6.21759e-05
6.21763e-05
6.21767e-05
6.21771e-05
6.21775e-05
6.21779e-05
6.21783e-05
6.21787e-05
6.2179e-05
6.21795e-05
6.21793e-05
6.21822e-05
6.05207e-05
6.05172e-05
6.0517e-05
6.05175e-05
6.05183e-05
6.0519e-05
6.05197e-05
6.05204e-05
6.05211e-05
6.05217e-05
6.05224e-05
6.0523e-05
6.05236e-05
6.05241e-05
6.05247e-05
6.05252e-05
6.05258e-05
6.05263e-05
6.05268e-05
6.05273e-05
6.05278e-05
6.05282e-05
6.05286e-05
6.05291e-05
6.05295e-05
6.05299e-05
6.05303e-05
6.05306e-05
6.0531e-05
6.05314e-05
6.05317e-05
6.05321e-05
6.05324e-05
6.05327e-05
6.05331e-05
6.05334e-05
6.05337e-05
6.05341e-05
6.05344e-05
6.05347e-05
6.0535e-05
6.05354e-05
6.05357e-05
6.0536e-05
6.05364e-05
6.05367e-05
6.05371e-05
6.05374e-05
6.05378e-05
6.05381e-05
6.05385e-05
6.05389e-05
6.05392e-05
6.05396e-05
6.05399e-05
6.05402e-05
6.05406e-05
6.05405e-05
6.05431e-05
5.89877e-05
5.89845e-05
5.89843e-05
5.89848e-05
5.89854e-05
5.89861e-05
5.89868e-05
5.89874e-05
5.8988e-05
5.89886e-05
5.89892e-05
5.89898e-05
5.89903e-05
5.89908e-05
5.89913e-05
5.89918e-05
5.89923e-05
5.89928e-05
5.89933e-05
5.89937e-05
5.89941e-05
5.89946e-05
5.8995e-05
5.89953e-05
5.89957e-05
5.89961e-05
5.89964e-05
5.89967e-05
5.89971e-05
5.89974e-05
5.89977e-05
5.8998e-05
5.89983e-05
5.89986e-05
5.89989e-05
5.89992e-05
5.89995e-05
5.89998e-05
5.90001e-05
5.90004e-05
5.90006e-05
5.90009e-05
5.90012e-05
5.90015e-05
5.90018e-05
5.90021e-05
5.90024e-05
5.90027e-05
5.9003e-05
5.90034e-05
5.90037e-05
5.9004e-05
5.90043e-05
5.90046e-05
5.90049e-05
5.90052e-05
5.90056e-05
5.90055e-05
5.90078e-05
5.7556e-05
5.7553e-05
5.75528e-05
5.75533e-05
5.75539e-05
5.75545e-05
5.75551e-05
5.75556e-05
5.75562e-05
5.75568e-05
5.75573e-05
5.75578e-05
5.75583e-05
5.75588e-05
5.75592e-05
5.75597e-05
5.75601e-05
5.75605e-05
5.75609e-05
5.75614e-05
5.75617e-05
5.75621e-05
5.75625e-05
5.75628e-05
5.75631e-05
5.75635e-05
5.75638e-05
5.75641e-05
5.75644e-05
5.75646e-05
5.75649e-05
5.75652e-05
5.75655e-05
5.75657e-05
5.7566e-05
5.75662e-05
5.75665e-05
5.75667e-05
5.7567e-05
5.75672e-05
5.75675e-05
5.75677e-05
5.7568e-05
5.75682e-05
5.75685e-05
5.75687e-05
5.7569e-05
5.75693e-05
5.75695e-05
5.75698e-05
5.75701e-05
5.75704e-05
5.75706e-05
5.75709e-05
5.75712e-05
5.75714e-05
5.75717e-05
5.75716e-05
5.75737e-05
5.62224e-05
5.62197e-05
5.62195e-05
5.622e-05
5.62205e-05
5.6221e-05
5.62216e-05
5.62221e-05
5.62226e-05
5.62231e-05
5.62236e-05
5.6224e-05
5.62245e-05
5.62249e-05
5.62253e-05
5.62257e-05
5.62261e-05
5.62265e-05
5.62268e-05
5.62272e-05
5.62275e-05
5.62279e-05
5.62282e-05
5.62285e-05
5.62288e-05
5.62291e-05
5.62293e-05
5.62296e-05
5.62298e-05
5.62301e-05
5.62303e-05
5.62306e-05
5.62308e-05
5.6231e-05
5.62312e-05
5.62314e-05
5.62316e-05
5.62319e-05
5.62321e-05
5.62323e-05
5.62325e-05
5.62327e-05
5.62329e-05
5.62331e-05
5.62333e-05
5.62335e-05
5.62338e-05
5.6234e-05
5.62342e-05
5.62344e-05
5.62347e-05
5.62349e-05
5.62352e-05
5.62354e-05
5.62356e-05
5.62358e-05
5.62361e-05
5.6236e-05
5.62379e-05
5.49836e-05
5.49812e-05
5.49811e-05
5.49814e-05
5.49819e-05
5.49824e-05
5.49829e-05
5.49834e-05
5.49838e-05
5.49842e-05
5.49847e-05
5.49851e-05
5.49854e-05
5.49858e-05
5.49862e-05
5.49865e-05
5.49869e-05
5.49872e-05
5.49875e-05
5.49878e-05
5.49881e-05
5.49884e-05
5.49887e-05
5.4989e-05
5.49892e-05
5.49894e-05
5.49897e-05
5.49899e-05
5.49901e-05
5.49903e-05
5.49905e-05
5.49907e-05
5.49909e-05
5.49911e-05
5.49913e-05
5.49914e-05
5.49916e-05
5.49918e-05
5.49919e-05
5.49921e-05
5.49923e-05
5.49924e-05
5.49926e-05
5.49928e-05
5.4993e-05
5.49931e-05
5.49933e-05
5.49935e-05
5.49937e-05
5.49939e-05
5.49941e-05
5.49943e-05
5.49945e-05
5.49947e-05
5.49948e-05
5.4995e-05
5.49952e-05
5.49952e-05
5.49968e-05
5.38359e-05
5.38337e-05
5.38336e-05
5.3834e-05
5.38344e-05
5.38348e-05
5.38352e-05
5.38356e-05
5.3836e-05
5.38364e-05
5.38368e-05
5.38371e-05
5.38375e-05
5.38378e-05
5.38381e-05
5.38384e-05
5.38387e-05
5.3839e-05
5.38393e-05
5.38395e-05
5.38398e-05
5.384e-05
5.38402e-05
5.38405e-05
5.38407e-05
5.38409e-05
5.38411e-05
5.38412e-05
5.38414e-05
5.38416e-05
5.38417e-05
5.38419e-05
5.3842e-05
5.38422e-05
5.38423e-05
5.38425e-05
5.38426e-05
5.38427e-05
5.38428e-05
5.3843e-05
5.38431e-05
5.38432e-05
5.38434e-05
5.38435e-05
5.38436e-05
5.38438e-05
5.38439e-05
5.38441e-05
5.38442e-05
5.38444e-05
5.38445e-05
5.38447e-05
5.38448e-05
5.3845e-05
5.38451e-05
5.38453e-05
5.38454e-05
5.38454e-05
5.38467e-05
5.27752e-05
5.27733e-05
5.27732e-05
5.27735e-05
5.27739e-05
5.27743e-05
5.27746e-05
5.2775e-05
5.27753e-05
5.27757e-05
5.2776e-05
5.27763e-05
5.27765e-05
5.27768e-05
5.27771e-05
5.27773e-05
5.27776e-05
5.27778e-05
5.2778e-05
5.27783e-05
5.27785e-05
5.27787e-05
5.27788e-05
5.2779e-05
5.27792e-05
5.27793e-05
5.27795e-05
5.27796e-05
5.27797e-05
5.27799e-05
5.278e-05
5.27801e-05
5.27802e-05
5.27803e-05
5.27804e-05
5.27805e-05
5.27806e-05
5.27807e-05
5.27808e-05
5.27809e-05
5.2781e-05
5.27811e-05
5.27812e-05
5.27813e-05
5.27814e-05
5.27815e-05
5.27816e-05
5.27817e-05
5.27818e-05
5.27819e-05
5.2782e-05
5.27821e-05
5.27822e-05
5.27823e-05
5.27824e-05
5.27825e-05
5.27827e-05
5.27826e-05
5.27837e-05
5.17973e-05
5.17957e-05
5.17957e-05
5.17959e-05
5.17962e-05
5.17966e-05
5.17969e-05
5.17972e-05
5.17975e-05
5.17977e-05
5.1798e-05
5.17982e-05
5.17985e-05
5.17987e-05
5.17989e-05
5.17991e-05
5.17993e-05
5.17995e-05
5.17997e-05
5.17998e-05
5.18e-05
5.18002e-05
5.18003e-05
5.18004e-05
5.18006e-05
5.18007e-05
5.18008e-05
5.18009e-05
5.1801e-05
5.1801e-05
5.18011e-05
5.18012e-05
5.18013e-05
5.18013e-05
5.18014e-05
5.18015e-05
5.18015e-05
5.18016e-05
5.18016e-05
5.18017e-05
5.18017e-05
5.18018e-05
5.18018e-05
5.18019e-05
5.18019e-05
5.1802e-05
5.18021e-05
5.18021e-05
5.18022e-05
5.18023e-05
5.18023e-05
5.18024e-05
5.18025e-05
5.18026e-05
5.18026e-05
5.18027e-05
5.18028e-05
5.18027e-05
5.18036e-05
5.0898e-05
5.08967e-05
5.08967e-05
5.08969e-05
5.08971e-05
5.08974e-05
5.08977e-05
5.08979e-05
5.08981e-05
5.08984e-05
5.08986e-05
5.08988e-05
5.0899e-05
5.08991e-05
5.08993e-05
5.08995e-05
5.08996e-05
5.08997e-05
5.08999e-05
5.09e-05
5.09001e-05
5.09002e-05
5.09003e-05
5.09004e-05
5.09005e-05
5.09006e-05
5.09006e-05
5.09007e-05
5.09007e-05
5.09008e-05
5.09008e-05
5.09008e-05
5.09009e-05
5.09009e-05
5.09009e-05
5.0901e-05
5.0901e-05
5.0901e-05
5.0901e-05
5.0901e-05
5.0901e-05
5.0901e-05
5.09011e-05
5.09011e-05
5.09011e-05
5.09011e-05
5.09011e-05
5.09011e-05
5.09012e-05
5.09012e-05
5.09012e-05
5.09013e-05
5.09013e-05
5.09013e-05
5.09014e-05
5.09014e-05
5.09015e-05
5.09014e-05
5.09021e-05
5.00728e-05
5.00718e-05
5.00718e-05
5.0072e-05
5.00722e-05
5.00724e-05
5.00726e-05
5.00728e-05
5.0073e-05
5.00732e-05
5.00733e-05
5.00735e-05
5.00736e-05
5.00737e-05
5.00739e-05
5.0074e-05
5.00741e-05
5.00742e-05
5.00742e-05
5.00743e-05
5.00744e-05
5.00745e-05
5.00745e-05
5.00746e-05