/*--------------------------------*- C++ -*----------------------------------*\
  =========                 |
  \\      /  F ield         | OpenFOAM: The Open Source CFD Toolbox
   \\    /   O peration     | Website:  https://openfoam.org
    \\  /    A nd           | Version:  7
     \\/     M anipulation  |
\*---------------------------------------------------------------------------*/
FoamFile
{
    version     2.0;
    format      ascii;
    class       volVectorField;
    location    "17000";
    object      U;
}
// * * * * * * * * * * * * * * * * * * * * * * * * * * * * * * * * * * * * * //

dimensions      [0 1 -1 0 0 0 0];

internalField   nonuniform List<vector> 
4037
(
(0.118116 -6.68439e-08 2.0302e-14)
(0.118116 -5.79136e-08 2.02226e-14)
(0.118116 -4.98819e-08 2.0026e-14)
(0.118116 -4.25771e-08 2.01831e-14)
(0.118116 -3.57771e-08 1.98881e-14)
(0.118116 -2.96205e-08 1.98615e-14)
(0.118116 -2.37589e-08 1.98799e-14)
(0.118116 -1.80706e-08 1.96594e-14)
(0.118116 -1.27139e-08 1.99068e-14)
(0.118116 -7.8289e-09 1.97361e-14)
(0.118115 -2.98797e-09 1.96739e-14)
(0.118115 1.83101e-09 1.97134e-14)
(0.118115 6.40527e-09 1.95055e-14)
(0.118115 1.09019e-08 1.97603e-14)
(0.118115 1.51431e-08 1.96412e-14)
(0.118115 1.9172e-08 1.95561e-14)
(0.118115 2.30465e-08 1.97111e-14)
(0.118115 2.67883e-08 2.01042e-14)
(0.118115 3.05526e-08 2.01821e-14)
(0.118115 3.41446e-08 2.0271e-14)
(0.118115 3.74216e-08 2.03003e-14)
(0.118115 4.04594e-08 2.03244e-14)
(0.118115 4.34213e-08 2.05763e-14)
(0.118115 4.63135e-08 2.05711e-14)
(0.118115 4.90353e-08 2.05776e-14)
(0.118115 5.15253e-08 2.05745e-14)
(0.118115 5.38605e-08 2.05621e-14)
(0.118115 5.61747e-08 2.08501e-14)
(0.118115 5.81159e-08 2.07332e-14)
(0.118115 5.98811e-08 2.09379e-14)
(0.118115 6.15773e-08 2.082e-14)
(0.118115 6.29954e-08 2.08002e-14)
(0.118115 6.43527e-08 2.09843e-14)
(0.118115 6.56603e-08 2.09195e-14)
(0.118115 6.68746e-08 2.11321e-14)
(0.118115 6.78409e-08 2.10059e-14)
(0.118115 6.86544e-08 2.09749e-14)
(0.118115 6.93976e-08 2.11975e-14)
(0.118115 7.01095e-08 2.11431e-14)
(0.118115 7.08092e-08 2.12578e-14)
(0.118115 7.14286e-08 2.11705e-14)
(0.118115 7.19905e-08 2.11254e-14)
(0.118115 7.24689e-08 2.13238e-14)
(0.118115 7.27918e-08 2.12438e-14)
(0.118115 7.29777e-08 2.14046e-14)
(0.118115 7.31508e-08 2.13098e-14)
(0.118115 7.33069e-08 2.12775e-14)
(0.118115 7.34271e-08 2.15066e-14)
(0.118115 7.34666e-08 2.13801e-14)
(0.118115 7.34527e-08 2.15499e-14)
(0.118115 7.34505e-08 2.13903e-14)
(0.118115 7.34684e-08 2.13348e-14)
(0.118115 7.33322e-08 2.15069e-14)
(0.118115 7.29772e-08 2.1424e-14)
(0.118115 7.26565e-08 2.16093e-14)
(0.118115 7.22392e-08 2.1467e-14)
(0.118115 7.17531e-08 2.14181e-14)
(0.118115 7.13911e-08 2.14097e-14)
(0.118115 7.08893e-08 2.14052e-14)
(0.118115 7.02284e-08 2.13972e-14)
(0.118115 6.94542e-08 2.14031e-14)
(0.118115 6.87089e-08 2.14142e-14)
(0.118115 6.79339e-08 2.14216e-14)
(0.118115 6.71777e-08 2.14243e-14)
(0.118115 6.65172e-08 2.14194e-14)
(0.118115 6.5799e-08 2.14317e-14)
(0.118115 6.4961e-08 2.14337e-14)
(0.118115 6.40355e-08 2.14383e-14)
(0.118115 6.33085e-08 2.14364e-14)
(0.118115 6.25429e-08 2.14396e-14)
(0.118115 6.15054e-08 2.1452e-14)
(0.118115 6.02507e-08 2.1467e-14)
(0.118115 5.87047e-08 2.14692e-14)
(0.118115 5.68566e-08 2.1468e-14)
(0.118115 5.42966e-08 2.14722e-14)
(0.118115 5.1462e-08 2.1477e-14)
(0.118115 4.59141e-08 2.14771e-14)
(0.117068 -1.0376e-07 2.12615e-14)
(0.117068 -1.38678e-07 2.09305e-14)
(0.117068 -1.67407e-07 2.09146e-14)
(0.117068 -1.8908e-07 2.10174e-14)
(0.117068 -2.03959e-07 2.10283e-14)
(0.117068 -2.13187e-07 2.11304e-14)
(0.117069 -2.17619e-07 2.11401e-14)
(0.117069 -2.17848e-07 2.1101e-14)
(0.117069 -2.14513e-07 2.11388e-14)
(0.117069 -2.08459e-07 2.10838e-14)
(0.117069 -2.00363e-07 2.10359e-14)
(0.117069 -1.90619e-07 2.09573e-14)
(0.117069 -1.79781e-07 2.09133e-14)
(0.117069 -1.68523e-07 2.08615e-14)
(0.117069 -1.57134e-07 2.08861e-14)
(0.117069 -1.45558e-07 2.08059e-14)
(0.117069 -1.34218e-07 2.07493e-14)
(0.117069 -1.23097e-07 2.07585e-14)
(0.117069 -1.12491e-07 2.07276e-14)
(0.117069 -1.02521e-07 2.07689e-14)
(0.117069 -9.34588e-08 2.06254e-14)
(0.117069 -8.55385e-08 2.0431e-14)
(0.117069 -7.86124e-08 2.04538e-14)
(0.117069 -7.08331e-08 2.0242e-14)
(0.117068 -6.12691e-08 2.01432e-14)
(0.117068 -5.24999e-08 2.00832e-14)
(0.117068 -4.52048e-08 1.98588e-14)
(0.117068 -3.83712e-08 1.9966e-14)
(0.117068 -3.18692e-08 1.97931e-14)
(0.117068 -2.59278e-08 1.97496e-14)
(0.117068 -2.02695e-08 1.97314e-14)
(0.117068 -1.46994e-08 1.95451e-14)
(0.117068 -9.40271e-09 1.96905e-14)
(0.117068 -4.58145e-09 1.95901e-14)
(0.117068 1.81294e-10 1.95717e-14)
(0.117068 4.89413e-09 1.95709e-14)
(0.117068 9.39625e-09 1.93829e-14)
(0.117068 1.37936e-08 1.95473e-14)
(0.117068 1.79523e-08 1.94539e-14)
(0.117068 2.1844e-08 1.94146e-14)
(0.117068 2.5553e-08 1.95304e-14)
(0.117068 2.91298e-08 1.98547e-14)
(0.117068 3.2763e-08 1.99788e-14)
(0.117068 3.62117e-08 2.00043e-14)
(0.117068 3.9288e-08 2.0091e-14)
(0.117068 4.21737e-08 2.01121e-14)
(0.117068 4.49386e-08 2.03208e-14)
(0.117068 4.76384e-08 2.03557e-14)
(0.117068 5.02021e-08 2.03147e-14)
(0.117068 5.24926e-08 2.03516e-14)
(0.117068 5.46749e-08 2.03437e-14)
(0.117068 5.68382e-08 2.05528e-14)
(0.117068 5.85956e-08 2.05267e-14)
(0.117068 6.02137e-08 2.06453e-14)
(0.117068 6.17693e-08 2.0633e-14)
(0.117068 6.30884e-08 2.06001e-14)
(0.117068 6.43003e-08 2.07405e-14)
(0.117068 6.54966e-08 2.07219e-14)
(0.117068 6.6652e-08 2.0849e-14)
(0.117068 6.74675e-08 2.08277e-14)
(0.117068 6.8188e-08 2.0791e-14)
(0.117068 6.88793e-08 2.09679e-14)
(0.117068 6.94984e-08 2.09357e-14)
(0.117068 7.01377e-08 2.10235e-14)
(0.117068 7.07183e-08 2.09995e-14)
(0.117068 7.12379e-08 2.0947e-14)
(0.117068 7.16742e-08 2.10815e-14)
(0.117068 7.19623e-08 2.10551e-14)
(0.117068 7.21084e-08 2.11667e-14)
(0.117068 7.22394e-08 2.11326e-14)
(0.117068 7.24035e-08 2.10782e-14)
(0.117068 7.25236e-08 2.12145e-14)
(0.117068 7.25311e-08 2.11848e-14)
(0.117068 7.24997e-08 2.12718e-14)
(0.117068 7.25001e-08 2.12145e-14)
(0.117068 7.25525e-08 2.11481e-14)
(0.117068 7.24042e-08 2.12597e-14)
(0.117068 7.2026e-08 2.1227e-14)
(0.117068 7.17245e-08 2.13295e-14)
(0.117068 7.13155e-08 2.12878e-14)
(0.117068 7.08922e-08 2.12384e-14)
(0.117068 7.05673e-08 2.12144e-14)
(0.117068 7.0079e-08 2.11973e-14)
(0.117068 6.94248e-08 2.11771e-14)
(0.117068 6.86829e-08 2.11708e-14)
(0.117068 6.79905e-08 2.11716e-14)
(0.117068 6.7227e-08 2.11774e-14)
(0.117068 6.6453e-08 2.11808e-14)
(0.117068 6.58178e-08 2.11766e-14)
(0.117068 6.51672e-08 2.11795e-14)
(0.117068 6.43099e-08 2.11803e-14)
(0.117068 6.34101e-08 2.11851e-14)
(0.117068 6.26981e-08 2.11869e-14)
(0.117068 6.19235e-08 2.1188e-14)
(0.117068 6.09277e-08 2.11944e-14)
(0.117068 5.97221e-08 2.12038e-14)
(0.117068 5.82227e-08 2.12106e-14)
(0.117068 5.64319e-08 2.12155e-14)
(0.117068 5.38767e-08 2.12178e-14)
(0.117068 5.13309e-08 2.12196e-14)
(0.117068 4.42057e-08 2.12221e-14)
(0.117068 3.53662e-08 2.12245e-14)
(0.117068 3.12867e-08 2.12269e-14)
(0.117068 2.82555e-08 2.12309e-14)
(0.117068 2.54348e-08 2.1232e-14)
(0.117068 2.3075e-08 2.12303e-14)
(0.117068 2.10647e-08 2.12289e-14)
(0.117068 1.94485e-08 2.12284e-14)
(0.117068 1.81604e-08 2.12306e-14)
(0.117068 1.69861e-08 2.12311e-14)
(0.117068 1.58677e-08 2.12205e-14)
(0.117068 1.48896e-08 2.12085e-14)
(0.117068 1.37843e-08 2.12011e-14)
(0.117068 1.18062e-08 2.11858e-14)
(0.117068 9.48028e-09 2.11827e-14)
(0.117068 4.76382e-09 2.11876e-14)
(0.117068 -5.67446e-10 2.11886e-14)
(0.117068 -1.33906e-08 2.11792e-14)
(0.117068 -3.01371e-08 2.11649e-14)
(0.117068 -6.02571e-08 2.11463e-14)
(0.115987 -1.03191e-07 2.10513e-14)
(0.115987 -1.38133e-07 2.06844e-14)
(0.115987 -1.67188e-07 2.0686e-14)
(0.115987 -1.89162e-07 2.07988e-14)
(0.115987 -2.04264e-07 2.07986e-14)
(0.115987 -2.13715e-07 2.08695e-14)
(0.115987 -2.18292e-07 2.08664e-14)
(0.115987 -2.18577e-07 2.09e-14)
(0.115987 -2.15228e-07 2.08779e-14)
(0.115987 -2.09059e-07 2.08088e-14)
(0.115987 -2.00876e-07 2.0834e-14)
(0.115987 -1.91043e-07 2.06057e-14)
(0.115987 -1.80106e-07 2.07194e-14)
(0.115987 -1.68731e-07 2.05658e-14)
(0.115987 -1.5719e-07 2.07316e-14)
(0.115987 -1.45557e-07 2.06474e-14)
(0.115987 -1.34118e-07 2.04772e-14)
(0.115987 -1.22871e-07 2.05804e-14)
(0.115987 -1.12209e-07 2.04465e-14)
(0.115987 -1.02145e-07 2.0614e-14)
(0.115987 -9.30102e-08 2.04418e-14)
(0.115987 -8.49095e-08 2.02899e-14)
(0.115987 -7.79815e-08 2.02785e-14)
(0.115987 -6.8817e-08 2.00148e-14)
(0.115987 -5.78813e-08 1.99938e-14)
(0.115987 -4.93176e-08 1.99231e-14)
(0.115987 -4.20468e-08 1.96815e-14)
(0.115987 -3.52781e-08 1.97855e-14)
(0.115987 -2.88731e-08 1.95884e-14)
(0.115987 -2.29989e-08 1.96234e-14)
(0.115987 -1.74191e-08 1.95731e-14)
(0.115987 -1.18881e-08 1.93609e-14)
(0.115987 -6.59473e-09 1.95205e-14)
(0.115987 -1.79446e-09 1.93916e-14)
(0.115987 2.91212e-09 1.94434e-14)
(0.115987 7.55845e-09 1.94273e-14)
(0.115987 1.20263e-08 1.92105e-14)
(0.115987 1.63929e-08 1.93813e-14)
(0.115987 2.04676e-08 1.92551e-14)
(0.115987 2.42522e-08 1.9308e-14)
(0.115987 2.78325e-08 1.93912e-14)
(0.115987 3.12888e-08 1.96394e-14)
(0.115987 3.48406e-08 1.9783e-14)
(0.115987 3.81172e-08 1.98434e-14)
(0.115987 4.10013e-08 1.98959e-14)
(0.115987 4.37746e-08 1.99126e-14)
(0.115987 4.63807e-08 2.00718e-14)
(0.115987 4.89143e-08 2.01381e-14)
(0.115986 5.13076e-08 2.01326e-14)
(0.115986 5.34113e-08 2.01481e-14)
(0.115986 5.54452e-08 2.01346e-14)
(0.115986 5.74313e-08 2.02885e-14)
(0.115986 5.90544e-08 2.0309e-14)
(0.115986 6.05382e-08 2.04129e-14)
(0.115986 6.19154e-08 2.04313e-14)
(0.115986 6.31013e-08 2.04003e-14)
(0.115986 6.42173e-08 2.05044e-14)
(0.115986 6.53113e-08 2.05136e-14)
(0.115986 6.63474e-08 2.06178e-14)
(0.115986 6.70704e-08 2.06297e-14)
(0.115986 6.76855e-08 2.05971e-14)
(0.115986 6.8296e-08 2.07201e-14)
(0.115986 6.88024e-08 2.0723e-14)
(0.115986 6.93593e-08 2.08037e-14)
(0.115986 6.99204e-08 2.08076e-14)
(0.115987 7.04013e-08 2.07574e-14)
(0.115987 7.08006e-08 2.08529e-14)
(0.115987 7.10052e-08 2.08479e-14)
(0.115987 7.11003e-08 2.09365e-14)
(0.115987 7.1189e-08 2.09325e-14)
(0.115987 7.13497e-08 2.08781e-14)
(0.115987 7.1472e-08 2.09823e-14)
(0.115987 7.14462e-08 2.09737e-14)
(0.115987 7.13973e-08 2.104e-14)
(0.115987 7.14048e-08 2.10155e-14)
(0.115987 7.14385e-08 2.09496e-14)
(0.115987 7.12592e-08 2.10306e-14)
(0.115987 7.09296e-08 2.10147e-14)
(0.115987 7.06106e-08 2.10924e-14)
(0.115987 7.01967e-08 2.10855e-14)
(0.115987 6.98407e-08 2.1044e-14)
(0.115987 6.95508e-08 2.10122e-14)
(0.115987 6.90678e-08 2.09852e-14)
(0.115987 6.8411e-08 2.09531e-14)
(0.115987 6.772e-08 2.09354e-14)
(0.115987 6.70417e-08 2.09278e-14)
(0.115987 6.62819e-08 2.09303e-14)
(0.115987 6.5535e-08 2.09333e-14)
(0.115987 6.48884e-08 2.09261e-14)
(0.115987 6.42682e-08 2.09232e-14)
(0.115987 6.34431e-08 2.09216e-14)
(0.115987 6.25864e-08 2.09285e-14)
(0.115987 6.19013e-08 2.09333e-14)
(0.115987 6.10909e-08 2.09315e-14)
(0.115987 6.0134e-08 2.09333e-14)
(0.115987 5.90135e-08 2.0939e-14)
(0.115987 5.7559e-08 2.09497e-14)
(0.115987 5.58164e-08 2.09592e-14)
(0.115987 5.32955e-08 2.09586e-14)
(0.115987 5.08224e-08 2.09606e-14)
(0.115987 4.39889e-08 2.09629e-14)
(0.115987 3.45059e-08 2.09677e-14)
(0.115987 2.92475e-08 2.09742e-14)
(0.115987 2.59507e-08 2.09754e-14)
(0.115987 2.33167e-08 2.09773e-14)
(0.115987 2.12264e-08 2.09739e-14)
(0.115987 1.93808e-08 2.09779e-14)
(0.115987 1.78934e-08 2.0982e-14)
(0.115987 1.67492e-08 2.09793e-14)
(0.115987 1.56333e-08 2.09763e-14)
(0.115987 1.45746e-08 2.09692e-14)
(0.115987 1.35869e-08 2.09617e-14)
(0.115987 1.24479e-08 2.09532e-14)
(0.115987 1.04858e-08 2.09363e-14)
(0.115987 8.15415e-09 2.09296e-14)
(0.115987 3.37043e-09 2.09343e-14)
(0.115987 -1.98024e-09 2.09374e-14)
(0.115987 -1.47541e-08 2.09314e-14)
(0.115987 -3.16699e-08 2.09153e-14)
(0.115987 -6.08846e-08 2.0892e-14)
(0.114869 -1.02088e-07 2.07481e-14)
(0.114869 -1.36937e-07 2.04443e-14)
(0.114869 -1.66311e-07 2.04861e-14)
(0.114869 -1.88618e-07 2.06015e-14)
(0.114869 -2.04014e-07 2.05606e-14)
(0.114869 -2.13669e-07 2.06201e-14)
(0.114869 -2.18357e-07 2.05834e-14)
(0.114869 -2.18723e-07 2.05945e-14)
(0.114869 -2.15385e-07 2.05985e-14)
(0.114869 -2.09146e-07 2.05175e-14)
(0.114869 -2.00902e-07 2.05242e-14)
(0.114869 -1.91024e-07 2.04174e-14)
(0.114869 -1.80056e-07 2.04399e-14)
(0.114869 -1.68623e-07 2.03434e-14)
(0.114869 -1.56961e-07 2.05031e-14)
(0.114869 -1.45256e-07 2.03618e-14)
(0.114869 -1.33746e-07 2.02612e-14)
(0.114869 -1.22421e-07 2.03278e-14)
(0.114869 -1.11703e-07 2.02386e-14)
(0.114869 -1.016e-07 2.04419e-14)
(0.114869 -9.2447e-08 2.01958e-14)
(0.114869 -8.41587e-08 2.01143e-14)
(0.114869 -7.70433e-08 2.00933e-14)
(0.114869 -6.81618e-08 1.98528e-14)
(0.114869 -5.73241e-08 1.9846e-14)
(0.114869 -4.81664e-08 1.97462e-14)
(0.114869 -4.03702e-08 1.95594e-14)
(0.114869 -3.33881e-08 1.9638e-14)
(0.114869 -2.68369e-08 1.94571e-14)
(0.114869 -2.08856e-08 1.95115e-14)
(0.114869 -1.52691e-08 1.94255e-14)
(0.114869 -9.6813e-09 1.92109e-14)
(0.114869 -4.38082e-09 1.9397e-14)
(0.114869 4.54636e-10 1.92741e-14)
(0.114869 5.20773e-09 1.93412e-14)
(0.114869 9.84161e-09 1.92958e-14)
(0.114869 1.42725e-08 1.91293e-14)
(0.114869 1.86226e-08 1.92629e-14)
(0.114869 2.26776e-08 1.91083e-14)
(0.114869 2.63705e-08 1.92213e-14)
(0.114869 2.98502e-08 1.92805e-14)
(0.114869 3.32175e-08 1.94868e-14)
(0.114869 3.66982e-08 1.96071e-14)
(0.114869 3.98385e-08 1.96664e-14)
(0.114869 4.25467e-08 1.97109e-14)
(0.114869 4.51976e-08 1.97193e-14)
(0.114869 4.76816e-08 1.98667e-14)
(0.114869 5.00803e-08 1.99276e-14)
(0.114869 5.22893e-08 1.99401e-14)
(0.114869 5.42453e-08 1.99461e-14)
(0.114869 5.614e-08 1.99277e-14)
(0.114869 5.79331e-08 2.0069e-14)
(0.114869 5.94456e-08 2.00916e-14)
(0.114869 6.08004e-08 2.02008e-14)
(0.114869 6.19884e-08 2.02248e-14)
(0.114869 6.3062e-08 2.01961e-14)
(0.114869 6.40612e-08 2.03005e-14)
(0.114869 6.50562e-08 2.03032e-14)
(0.114869 6.59863e-08 2.04057e-14)
(0.114869 6.65973e-08 2.0422e-14)
(0.114869 6.71015e-08 2.03928e-14)
(0.114869 6.75875e-08 2.05083e-14)
(0.114869 6.8014e-08 2.05089e-14)
(0.114869 6.84982e-08 2.05975e-14)
(0.114869 6.90127e-08 2.06037e-14)
(0.114869 6.9448e-08 2.05552e-14)
(0.114869 6.98042e-08 2.06459e-14)
(0.114869 6.99203e-08 2.06328e-14)
(0.114869 6.99403e-08 2.07197e-14)
(0.114869 7.00085e-08 2.07202e-14)
(0.114869 7.01745e-08 2.06687e-14)
(0.114869 7.02665e-08 2.07687e-14)
(0.114869 7.02119e-08 2.07533e-14)
(0.114869 7.01608e-08 2.08219e-14)
(0.114869 7.01374e-08 2.08033e-14)
(0.114869 7.01372e-08 2.0738e-14)
(0.114869 6.99321e-08 2.08182e-14)
(0.114869 6.962e-08 2.07942e-14)
(0.114869 6.92958e-08 2.08715e-14)
(0.114869 6.88983e-08 2.0871e-14)
(0.114869 6.85878e-08 2.08333e-14)
(0.114869 6.83633e-08 2.07998e-14)
(0.114869 6.78643e-08 2.0765e-14)
(0.114869 6.71989e-08 2.07195e-14)
(0.114869 6.65688e-08 2.06935e-14)
(0.114869 6.58782e-08 2.0679e-14)
(0.114869 6.51186e-08 2.06791e-14)
(0.114869 6.43862e-08 2.06807e-14)
(0.114869 6.37366e-08 2.06681e-14)
(0.114869 6.31589e-08 2.0661e-14)
(0.114869 6.23804e-08 2.06576e-14)
(0.114869 6.15427e-08 2.06689e-14)
(0.114869 6.08779e-08 2.06756e-14)
(0.114869 6.00896e-08 2.06687e-14)
(0.114869 5.91591e-08 2.06679e-14)
(0.114869 5.81138e-08 2.06712e-14)
(0.114869 5.67301e-08 2.06866e-14)
(0.114869 5.50248e-08 2.06995e-14)
(0.114869 5.25846e-08 2.06946e-14)
(0.114869 4.99667e-08 2.06989e-14)
(0.114869 4.48288e-08 2.07014e-14)
(0.114869 3.65786e-08 2.07081e-14)
(0.114869 2.9817e-08 2.07171e-14)
(0.114869 2.53481e-08 2.07154e-14)
(0.114869 2.23365e-08 2.07207e-14)
(0.114869 2.0179e-08 2.0717e-14)
(0.114869 1.82999e-08 2.07263e-14)
(0.114869 1.68429e-08 2.07323e-14)
(0.114869 1.57562e-08 2.07227e-14)
(0.114869 1.46724e-08 2.07192e-14)
(0.114869 1.36386e-08 2.07153e-14)
(0.114869 1.25967e-08 2.07082e-14)
(0.114869 1.13986e-08 2.06981e-14)
(0.114869 9.42574e-09 2.06777e-14)
(0.114869 7.04819e-09 2.06721e-14)
(0.114869 2.21987e-09 2.06788e-14)
(0.114869 -3.11465e-09 2.06836e-14)
(0.114869 -1.58521e-08 2.06782e-14)
(0.114869 -3.28935e-08 2.0659e-14)
(0.114869 -6.11378e-08 2.06376e-14)
(0.113713 -1.00545e-07 2.04439e-14)
(0.113713 -1.35051e-07 2.02387e-14)
(0.113713 -1.64679e-07 2.03172e-14)
(0.113713 -1.87327e-07 2.04191e-14)
(0.113713 -2.03014e-07 2.03029e-14)
(0.113713 -2.12949e-07 2.03864e-14)
(0.113713 -2.1781e-07 2.02855e-14)
(0.113713 -2.18248e-07 2.02881e-14)
(0.113713 -2.14926e-07 2.03106e-14)
(0.113713 -2.08708e-07 2.02056e-14)
(0.113713 -2.00477e-07 2.02124e-14)
(0.113713 -1.90571e-07 2.01638e-14)
(0.113713 -1.79587e-07 2.01666e-14)
(0.113713 -1.6814e-07 2.01061e-14)
(0.113713 -1.56397e-07 2.01962e-14)
(0.113713 -1.44651e-07 2.01214e-14)
(0.113713 -1.33153e-07 2.00654e-14)
(0.113713 -1.21781e-07 2.00805e-14)
(0.113713 -1.10992e-07 2.0019e-14)
(0.113713 -1.00861e-07 2.00926e-14)
(0.113713 -9.17043e-08 1.99932e-14)
(0.113713 -8.32871e-08 1.99267e-14)
(0.113713 -7.59028e-08 1.98937e-14)
(0.113713 -6.74935e-08 1.97332e-14)
(0.113713 -5.73337e-08 1.97122e-14)
(0.113713 -4.80515e-08 1.96422e-14)
(0.113713 -3.98432e-08 1.95176e-14)
(0.113713 -3.2492e-08 1.95143e-14)
(0.113713 -2.57024e-08 1.93936e-14)
(0.113713 -1.95767e-08 1.94216e-14)
(0.113713 -1.37951e-08 1.93559e-14)
(0.113713 -8.05298e-09 1.92622e-14)
(0.113713 -2.68561e-09 1.93106e-14)
(0.113713 2.19671e-09 1.92381e-14)
(0.113713 7.01174e-09 1.92668e-14)
(0.113713 1.17117e-08 1.92466e-14)
(0.113713 1.61551e-08 1.91371e-14)
(0.113713 2.04878e-08 1.91877e-14)
(0.113713 2.45037e-08 1.91302e-14)
(0.113713 2.81268e-08 1.91721e-14)
(0.113713 3.15575e-08 1.91884e-14)
(0.113712 3.48989e-08 1.93875e-14)
(0.113712 3.83238e-08 1.94484e-14)
(0.113712 4.13564e-08 1.94986e-14)
(0.113712 4.39076e-08 1.9531e-14)
(0.113712 4.64044e-08 1.95305e-14)
(0.113712 4.88002e-08 1.97011e-14)
(0.113712 5.11057e-08 1.97231e-14)
(0.113712 5.3145e-08 1.97396e-14)
(0.113712 5.49466e-08 1.97415e-14)
(0.113712 5.67077e-08 1.97198e-14)
(0.113712 5.83171e-08 1.98858e-14)
(0.113712 5.97088e-08 1.98752e-14)
(0.113712 6.09685e-08 2.00141e-14)
(0.113712 6.19893e-08 2.00152e-14)
(0.113712 6.29085e-08 1.99876e-14)
(0.113712 6.38113e-08 2.01245e-14)
(0.113712 6.47091e-08 2.00883e-14)
(0.113712 6.54938e-08 2.02161e-14)
(0.113712 6.60103e-08 2.02051e-14)
(0.113712 6.64168e-08 2.01784e-14)
(0.113712 6.67829e-08 2.03243e-14)
(0.113712 6.71359e-08 2.02898e-14)
(0.113712 6.75316e-08 2.04083e-14)
(0.113712 6.79959e-08 2.03881e-14)
(0.113712 6.83668e-08 2.03409e-14)
(0.113712 6.86527e-08 2.04611e-14)
(0.113712 6.871e-08 2.04093e-14)
(0.113712 6.86304e-08 2.05207e-14)
(0.113713 6.86701e-08 2.04973e-14)
(0.113713 6.88564e-08 2.04481e-14)
(0.113713 6.89135e-08 2.05761e-14)
(0.113713 6.88412e-08 2.0523e-14)
(0.113713 6.87657e-08 2.06207e-14)
(0.113713 6.86839e-08 2.05787e-14)
(0.113713 6.86504e-08 2.05134e-14)
(0.113713 6.84084e-08 2.0625e-14)
(0.113713 6.8114e-08 2.05635e-14)
(0.113713 6.77972e-08 2.06682e-14)
(0.113713 6.7438e-08 2.06449e-14)
(0.113713 6.71898e-08 2.06065e-14)
(0.113713 6.69861e-08 2.05758e-14)
(0.113713 6.64692e-08 2.05332e-14)
(0.113713 6.58024e-08 2.04723e-14)
(0.113713 6.52156e-08 2.04421e-14)
(0.113713 6.45075e-08 2.0423e-14)
(0.113713 6.37526e-08 2.04234e-14)
(0.113713 6.30247e-08 2.04216e-14)
(0.113713 6.23737e-08 2.04005e-14)
(0.113713 6.18138e-08 2.0391e-14)
(0.113713 6.11033e-08 2.0387e-14)
(0.113713 6.03029e-08 2.04071e-14)
(0.113713 5.96423e-08 2.04135e-14)
(0.113713 5.89295e-08 2.03982e-14)
(0.113713 5.80473e-08 2.03974e-14)
(0.113713 5.70302e-08 2.03996e-14)
(0.113713 5.57081e-08 2.04216e-14)
(0.113713 5.4073e-08 2.04356e-14)
(0.113713 5.17211e-08 2.04236e-14)
(0.113713 4.88907e-08 2.04343e-14)
(0.113713 4.51667e-08 2.04374e-14)
(0.113713 3.88748e-08 2.04459e-14)
(0.113713 3.1808e-08 2.04547e-14)
(0.113713 2.6286e-08 2.04482e-14)
(0.113713 2.25267e-08 2.04621e-14)
(0.113713 1.99885e-08 2.04576e-14)
(0.113713 1.79205e-08 2.04743e-14)
(0.113713 1.63796e-08 2.04793e-14)
(0.113713 1.52614e-08 2.04594e-14)
(0.113713 1.41062e-08 2.04589e-14)
(0.113713 1.3031e-08 2.04581e-14)
(0.113713 1.19474e-08 2.04487e-14)
(0.113713 1.06687e-08 2.04352e-14)
(0.113713 8.63679e-09 2.04097e-14)
(0.113713 6.20661e-09 2.04107e-14)
(0.113713 1.3192e-09 2.04211e-14)
(0.113713 -4.03189e-09 2.04252e-14)
(0.113713 -1.66997e-08 2.04182e-14)
(0.113713 -3.37688e-08 2.03935e-14)
(0.113713 -6.10499e-08 2.0381e-14)
(0.112515 -9.85888e-08 2.01379e-14)
(0.112515 -1.32503e-07 2.00957e-14)
(0.112515 -1.62212e-07 2.02118e-14)
(0.112515 -1.8522e-07 2.01244e-14)
(0.112515 -2.01265e-07 2.00026e-14)
(0.112515 -2.11491e-07 2.01353e-14)
(0.112515 -2.16587e-07 1.99083e-14)
(0.112515 -2.17132e-07 1.99843e-14)
(0.112515 -2.13868e-07 2.00177e-14)
(0.112515 -2.07738e-07 1.98156e-14)
(0.112515 -1.99529e-07 1.99041e-14)
(0.112515 -1.89638e-07 1.9902e-14)
(0.112515 -1.78705e-07 1.98914e-14)
(0.112515 -1.67289e-07 1.98563e-14)
(0.112515 -1.5553e-07 1.98916e-14)
(0.112515 -1.43767e-07 1.98749e-14)
(0.112515 -1.32295e-07 1.98477e-14)
(0.112515 -1.20912e-07 1.98301e-14)
(0.112515 -1.10057e-07 1.97832e-14)
(0.112515 -9.9958e-08 1.98032e-14)
(0.112515 -9.08048e-08 1.97533e-14)
(0.112515 -8.22343e-08 1.97252e-14)
(0.112515 -7.45976e-08 1.96819e-14)
(0.112515 -6.65056e-08 1.95995e-14)
(0.112515 -5.71489e-08 1.95753e-14)
(0.112515 -4.82109e-08 1.95251e-14)
(0.112515 -3.99187e-08 1.9453e-14)
(0.112515 -3.23326e-08 1.93952e-14)
(0.112515 -2.5271e-08 1.93236e-14)
(0.112515 -1.8922e-08 1.93394e-14)
(0.112515 -1.29102e-08 1.93077e-14)
(0.112515 -6.95766e-09 1.92618e-14)
(0.112515 -1.49755e-09 1.92385e-14)
(0.112515 3.44985e-09 1.92076e-14)
(0.112515 8.39122e-09 1.9206e-14)
(0.112515 1.31808e-08 1.92162e-14)
(0.112515 1.76448e-08 1.91572e-14)
(0.112515 2.19994e-08 1.9129e-14)
(0.112515 2.59827e-08 1.91214e-14)
(0.112515 2.95486e-08 1.9137e-14)
(0.112515 3.29695e-08 1.91092e-14)
(0.112514 3.63093e-08 1.92246e-14)
(0.112514 3.96773e-08 1.92919e-14)
(0.112514 4.26126e-08 1.93375e-14)
(0.112514 4.5019e-08 1.9353e-14)
(0.112514 4.73953e-08 1.93458e-14)
(0.112514 4.973e-08 1.94645e-14)
(0.112514 5.19385e-08 1.95129e-14)
(0.112514 5.38278e-08 1.9538e-14)
(0.112514 5.54801e-08 1.9533e-14)
(0.112514 5.71082e-08 1.95112e-14)
(0.112514 5.85583e-08 1.96268e-14)
(0.112514 5.98237e-08 1.96505e-14)
(0.112514 6.10018e-08 1.97471e-14)
(0.112514 6.19076e-08 1.97944e-14)
(0.112514 6.26639e-08 1.97775e-14)
(0.112514 6.34291e-08 1.98669e-14)
(0.112514 6.42257e-08 1.98586e-14)
(0.112514 6.48891e-08 1.99429e-14)
(0.112514 6.52984e-08 1.99703e-14)
(0.112514 6.55868e-08 1.99566e-14)
(0.112514 6.58324e-08 2.00565e-14)
(0.112514 6.61314e-08 2.00542e-14)
(0.112514 6.64681e-08 2.01304e-14)
(0.112514 6.68429e-08 2.01517e-14)
(0.112515 6.71196e-08 2.01174e-14)
(0.112515 6.73361e-08 2.01905e-14)
(0.112515 6.73381e-08 2.01672e-14)
(0.112515 6.71921e-08 2.02328e-14)
(0.112515 6.72244e-08 2.0257e-14)
(0.112515 6.74017e-08 2.02188e-14)
(0.112515 6.73987e-08 2.02961e-14)
(0.112515 6.73123e-08 2.0273e-14)
(0.112515 6.72059e-08 2.033e-14)
(0.112515 6.70429e-08 2.03335e-14)
(0.112515 6.69885e-08 2.02785e-14)
(0.112515 6.67028e-08 2.03438e-14)
(0.112515 6.6394e-08 2.03126e-14)
(0.112515 6.61519e-08 2.03752e-14)
(0.112515 6.58412e-08 2.03988e-14)
(0.112515 6.56107e-08 2.0364e-14)
(0.112515 6.54124e-08 2.03391e-14)
(0.112515 6.48827e-08 2.02862e-14)
(0.112515 6.42426e-08 2.02072e-14)
(0.112515 6.36497e-08 2.01785e-14)
(0.112515 6.2934e-08 2.01575e-14)
(0.112515 6.22037e-08 2.01634e-14)
(0.112515 6.14636e-08 2.0154e-14)
(0.112515 6.08091e-08 2.01204e-14)
(0.112515 6.02568e-08 2.01117e-14)
(0.112515 5.96294e-08 2.01086e-14)
(0.112515 5.88833e-08 2.01456e-14)
(0.112515 5.82425e-08 2.01456e-14)
(0.112515 5.76003e-08 2.01175e-14)
(0.112515 5.67532e-08 2.01213e-14)
(0.112515 5.57771e-08 2.01232e-14)
(0.112515 5.45398e-08 2.01545e-14)
(0.112515 5.29428e-08 2.01659e-14)
(0.112515 5.07092e-08 2.01429e-14)
(0.112515 4.77071e-08 2.01665e-14)
(0.112515 4.48559e-08 2.017e-14)
(0.112515 4.04828e-08 2.01822e-14)
(0.112515 3.40608e-08 2.01858e-14)
(0.112515 2.80875e-08 2.01713e-14)
(0.112515 2.36676e-08 2.02039e-14)
(0.112515 2.05747e-08 2.01953e-14)
(0.112515 1.81888e-08 2.02237e-14)
(0.112515 1.65056e-08 2.02217e-14)
(0.112515 1.52153e-08 2.01871e-14)
(0.112515 1.3951e-08 2.01942e-14)
(0.112515 1.28126e-08 2.01974e-14)
(0.112515 1.16285e-08 2.01826e-14)
(0.112515 1.02437e-08 2.01637e-14)
(0.112515 8.12328e-09 2.01312e-14)
(0.112515 5.60233e-09 2.01458e-14)
(0.112515 6.68749e-10 2.01607e-14)
(0.112515 -4.69571e-09 2.01607e-14)
(0.112515 -1.72911e-08 2.01497e-14)
(0.112515 -3.4297e-08 2.01173e-14)
(0.112515 -6.06143e-08 2.01225e-14)
(0.111272 -9.62016e-08 1.98271e-14)
(0.111272 -1.29317e-07 1.98248e-14)
(0.111272 -1.58953e-07 1.98915e-14)
(0.111272 -1.82216e-07 1.98201e-14)
(0.111272 -1.9862e-07 1.96983e-14)
(0.111272 -2.09283e-07 1.97989e-14)
(0.111272 -2.14677e-07 1.96911e-14)
(0.111272 -2.15363e-07 1.96976e-14)
(0.111272 -2.1221e-07 1.97165e-14)
(0.111272 -2.06197e-07 1.96102e-14)
(0.111272 -1.98079e-07 1.96124e-14)
(0.111272 -1.88237e-07 1.96154e-14)
(0.111272 -1.77409e-07 1.96091e-14)
(0.111272 -1.66062e-07 1.95779e-14)
(0.111272 -1.54338e-07 1.95914e-14)
(0.111272 -1.42626e-07 1.96105e-14)
(0.111272 -1.31182e-07 1.96232e-14)
(0.111272 -1.19801e-07 1.95688e-14)
(0.111272 -1.08943e-07 1.95465e-14)
(0.111272 -9.88708e-08 1.95143e-14)
(0.111272 -8.96817e-08 1.9515e-14)
(0.111272 -8.10282e-08 1.95144e-14)
(0.111272 -7.31674e-08 1.94557e-14)
(0.111272 -6.52054e-08 1.94286e-14)
(0.111272 -5.65274e-08 1.94322e-14)
(0.111272 -4.81826e-08 1.94128e-14)
(0.111272 -4.01566e-08 1.93624e-14)
(0.111272 -3.25238e-08 1.92671e-14)
(0.111272 -2.53094e-08 1.92316e-14)
(0.111272 -1.87191e-08 1.92554e-14)
(0.111272 -1.24515e-08 1.92242e-14)
(0.111272 -6.33919e-09 1.92361e-14)
(0.111272 -7.37864e-10 1.91572e-14)
(0.111272 4.33607e-09 1.91894e-14)
(0.111272 9.36762e-09 1.91499e-14)
(0.111272 1.42378e-08 1.91464e-14)
(0.111272 1.87763e-08 1.91525e-14)
(0.111272 2.31565e-08 1.90671e-14)
(0.111272 2.70978e-08 1.91374e-14)
(0.111272 3.06319e-08 1.91027e-14)
(0.111272 3.40681e-08 1.903e-14)
(0.111272 3.74329e-08 1.90914e-14)
(0.111272 4.07625e-08 1.9143e-14)
(0.111272 4.36218e-08 1.91801e-14)
(0.111272 4.58859e-08 1.91723e-14)
(0.111272 4.81271e-08 1.91621e-14)
(0.111272 5.0443e-08 1.92572e-14)
(0.111272 5.25775e-08 1.93071e-14)
(0.111272 5.4329e-08 1.93371e-14)
(0.111272 5.58278e-08 1.93185e-14)
(0.111272 5.73189e-08 1.92997e-14)
(0.111272 5.86395e-08 1.93912e-14)
(0.111272 5.97701e-08 1.94256e-14)
(0.111272 6.08802e-08 1.95008e-14)
(0.111272 6.16807e-08 1.95726e-14)
(0.111272 6.22625e-08 1.95625e-14)
(0.111272 6.2919e-08 1.96285e-14)
(0.111272 6.36193e-08 1.96216e-14)
(0.111272 6.41225e-08 1.96875e-14)
(0.111272 6.44217e-08 1.97345e-14)
(0.111272 6.4614e-08 1.97249e-14)
(0.111272 6.47403e-08 1.98038e-14)
(0.111272 6.49984e-08 1.98089e-14)
(0.111272 6.52934e-08 1.98641e-14)
(0.111272 6.5563e-08 1.99051e-14)
(0.111272 6.5716e-08 1.98817e-14)
(0.111272 6.58233e-08 1.99359e-14)
(0.111272 6.57994e-08 1.99146e-14)
(0.111272 6.56331e-08 1.99555e-14)
(0.111272 6.56303e-08 2.00161e-14)
(0.111272 6.57871e-08 1.99784e-14)
(0.111272 6.57492e-08 2.00278e-14)
(0.111272 6.56254e-08 2.00108e-14)
(0.111272 6.54481e-08 2.00506e-14)
(0.111272 6.51925e-08 2.00836e-14)
(0.111272 6.51262e-08 2.00308e-14)
(0.111272 6.48398e-08 2.00762e-14)
(0.111272 6.45249e-08 2.0049e-14)
(0.111272 6.43351e-08 2.00934e-14)
(0.111272 6.40942e-08 2.01485e-14)
(0.111272 6.38936e-08 2.01034e-14)
(0.111272 6.36473e-08 2.00863e-14)
(0.111272 6.31146e-08 2.00181e-14)
(0.111272 6.2506e-08 1.99191e-14)
(0.111272 6.19038e-08 1.98995e-14)
(0.111272 6.11666e-08 1.98792e-14)
(0.111272 6.04567e-08 1.9899e-14)
(0.111272 5.97075e-08 1.98745e-14)
(0.111272 5.90523e-08 1.98245e-14)
(0.111272 5.85062e-08 1.98223e-14)
(0.111272 5.79567e-08 1.98214e-14)
(0.111272 5.73029e-08 1.98904e-14)
(0.111272 5.67049e-08 1.98688e-14)
(0.111272 5.61189e-08 1.98235e-14)
(0.111272 5.53239e-08 1.98389e-14)
(0.111272 5.43967e-08 1.98408e-14)
(0.111272 5.31866e-08 1.98838e-14)
(0.111272 5.16321e-08 1.98865e-14)
(0.111272 4.95339e-08 1.98501e-14)
(0.111272 4.6448e-08 1.98933e-14)
(0.111272 4.40626e-08 1.98969e-14)
(0.111272 4.12136e-08 1.99229e-14)
(0.111272 3.59271e-08 1.9908e-14)
(0.111272 3.01439e-08 1.98821e-14)
(0.111272 2.53357e-08 1.99518e-14)
(0.111272 2.17265e-08 1.99293e-14)
(0.111272 1.90145e-08 1.99788e-14)
(0.111272 1.70982e-08 1.99562e-14)
(0.111272 1.55968e-08 1.99027e-14)
(0.111272 1.41814e-08 1.99231e-14)
(0.111272 1.29028e-08 1.99314e-14)
(0.111272 1.15836e-08 1.9908e-14)
(0.111272 1.00743e-08 1.98818e-14)
(0.111272 7.88524e-09 1.98407e-14)
(0.111272 5.2919e-09 1.98764e-14)
(0.111272 2.70795e-10 1.9896e-14)
(0.111272 -5.14888e-09 1.98875e-14)
(0.111272 -1.76377e-08 1.98706e-14)
(0.111272 -3.44914e-08 1.98288e-14)
(0.111272 -5.98203e-08 1.98614e-14)
(0.109981 -9.33239e-08 1.95594e-14)
(0.109981 -1.25507e-07 1.95516e-14)
(0.109981 -1.54904e-07 1.96024e-14)
(0.109981 -1.78299e-07 1.95329e-14)
(0.109981 -1.95135e-07 1.94272e-14)
(0.109981 -2.06315e-07 1.94655e-14)
(0.109981 -2.12036e-07 1.93922e-14)
(0.109981 -2.12952e-07 1.94155e-14)
(0.109981 -2.09965e-07 1.93945e-14)
(0.109981 -2.04101e-07 1.9327e-14)
(0.109981 -1.9607e-07 1.93281e-14)
(0.109981 -1.86359e-07 1.93285e-14)
(0.109981 -1.75746e-07 1.93133e-14)
(0.109981 -1.64477e-07 1.92874e-14)
(0.109981 -1.52832e-07 1.92001e-14)
(0.109981 -1.41251e-07 1.93417e-14)
(0.109981 -1.29779e-07 1.93324e-14)
(0.109981 -1.184e-07 1.9287e-14)
(0.109981 -1.07654e-07 1.92357e-14)
(0.109981 -9.76199e-08 1.91318e-14)
(0.109981 -8.83473e-08 1.92092e-14)
(0.109981 -7.95876e-08 1.92423e-14)
(0.109981 -7.1587e-08 1.92102e-14)
(0.109981 -6.3649e-08 1.92372e-14)
(0.109981 -5.54713e-08 1.92223e-14)
(0.109981 -4.77765e-08 1.92247e-14)
(0.109981 -4.02004e-08 1.92358e-14)
(0.109981 -3.27723e-08 1.91174e-14)
(0.109981 -2.55556e-08 1.91716e-14)
(0.109981 -1.8755e-08 1.91076e-14)
(0.109981 -1.22771e-08 1.91353e-14)
(0.109981 -6.06795e-09 1.91651e-14)
(0.109981 -3.19569e-10 1.90517e-14)
(0.109981 4.91107e-09 1.9086e-14)
(0.10998 1.00432e-08 1.90262e-14)
(0.10998 1.49474e-08 1.90815e-14)
(0.10998 1.95565e-08 1.91517e-14)