/*--------------------------------*- C++ -*----------------------------------*\
  =========                 |
  \\      /  F ield         | OpenFOAM: The Open Source CFD Toolbox
   \\    /   O peration     | Website:  https://openfoam.org
    \\  /    A nd           | Version:  7
     \\/     M anipulation  |
\*---------------------------------------------------------------------------*/
FoamFile
{
    version     2.0;
    format      ascii;
    class       surfaceScalarField;
    location    "20000";
    object      phi;
}
// * * * * * * * * * * * * * * * * * * * * * * * * * * * * * * * * * * * * * //

dimensions      [0 3 -1 0 0 0 0];

internalField   nonuniform List<scalar> 
47680
(
2.0155e-06
-2.82775e-14
2.0155e-06
-6.51897e-12
2.01551e-06
-7.62076e-12
2.01552e-06
-4.59386e-12
2.01552e-06
-5.06946e-13
2.01551e-06
3.01254e-12
2.01551e-06
5.63513e-12
2.0155e-06
7.342e-12
2.01549e-06
8.27905e-12
2.01548e-06
8.5172e-12
2.01547e-06
8.12653e-12
2.01547e-06
7.45692e-12
2.01546e-06
6.81222e-12
2.01545e-06
6.02329e-12
2.01545e-06
5.25878e-12
2.01544e-06
4.53388e-12
2.01544e-06
3.60763e-12
2.01544e-06
2.85977e-12
2.01544e-06
2.10023e-12
2.01543e-06
1.24197e-12
2.01543e-06
5.29933e-13
2.01543e-06
-9.93645e-14
2.01544e-06
-7.20564e-13
2.01544e-06
-1.39678e-12
2.01544e-06
-1.95565e-12
2.01544e-06
-2.28938e-12
2.01544e-06
-2.71302e-12
2.01545e-06
-3.18433e-12
2.01545e-06
-3.42705e-12
2.01545e-06
-3.64424e-12
2.01546e-06
-4.01431e-12
2.01546e-06
-4.27683e-12
2.01547e-06
-4.37937e-12
2.01547e-06
-4.49056e-12
2.01548e-06
-4.68644e-12
2.01548e-06
-4.80276e-12
2.01549e-06
-4.78394e-12
2.01549e-06
-4.8604e-12
2.01549e-06
-4.85382e-12
2.0155e-06
-4.89766e-12
2.0155e-06
-4.48974e-12
2.01551e-06
-4.00893e-12
2.01551e-06
-3.16313e-12
2.01551e-06
-2.28729e-12
2.01551e-06
-1.22772e-12
2.01551e-06
4.63648e-13
2.01551e-06
1.00383e-12
2.01551e-06
1.07015e-12
2.01551e-06
7.31738e-13
2.01551e-06
1.06766e-13
2.01551e-06
-2.97018e-13
2.01551e-06
-7.13319e-13
2.01551e-06
-1.04987e-12
2.01551e-06
-1.3151e-12
2.01552e-06
-1.50373e-12
2.01552e-06
-1.65876e-12
2.01552e-06
-1.69183e-12
2.01552e-06
-1.5907e-12
2.01552e-06
-1.36489e-12
2.01552e-06
-1.11894e-12
2.01552e-06
-8.18527e-13
2.01552e-06
-4.09986e-13
2.01552e-06
1.30021e-14
2.01552e-06
4.28784e-13
2.01552e-06
7.9695e-13
2.01552e-06
1.09324e-12
2.01552e-06
1.43418e-12
2.01552e-06
1.75417e-12
2.01552e-06
1.90663e-12
2.01552e-06
2.0616e-12
2.01551e-06
2.11822e-12
2.01551e-06
2.19743e-12
2.01551e-06
2.27266e-12
2.01551e-06
2.2219e-12
2.0155e-06
2.27944e-12
2.0155e-06
2.29763e-12
2.0155e-06
2.14453e-12
2.0155e-06
1.93817e-12
2.0155e-06
1.81142e-12
2.01549e-06
1.67845e-12
2.01549e-06
1.50328e-12
2.01549e-06
1.39949e-12
2.01549e-06
1.32848e-12
2.01549e-06
1.15307e-12
2.01549e-06
9.30121e-13
2.01549e-06
7.12285e-13
2.01549e-06
2.65478e-13
2.01549e-06
-8.38838e-14
2.01549e-06
-1.65303e-13
2.01549e-06
-1.61265e-13
2.01549e-06
-2.70159e-14
2.01549e-06
-5.19805e-15
2.01549e-06
-4.35526e-14
2.01549e-06
-1.39443e-13
2.01549e-06
-3.07112e-13
2.01549e-06
-4.11631e-13
2.01549e-06
-5.73858e-13
2.01549e-06
-6.98938e-13
2.01549e-06
-8.03854e-13
2.01549e-06
-7.07445e-13
2.01549e-06
-6.95907e-13
2.01549e-06
-2.3148e-13
2.01549e-06
1.32276e-13
2.01549e-06
9.0748e-13
2.01549e-06
2.06925e-12
2.01549e-06
2.16249e-12
2.01549e-06
1.94094e-12
2.01548e-06
1.27995e-12
2.01548e-06
4.35915e-13
2.01548e-06
-3.52151e-13
2.01548e-06
-1.0422e-12
2.01549e-06
-1.53443e-12
2.01549e-06
-1.96409e-12
2.01549e-06
-2.24473e-12
2.01549e-06
-2.44316e-12
2.0155e-06
-2.36985e-12
2.0155e-06
-1.76122e-12
2.0155e-06
-2.02719e-12
2.0155e-06
-3.4391e-13
3.21088e-12
6.22745e-06
-5.01913e-12
6.22747e-06
-2.59144e-11
6.22749e-06
-2.81677e-11
6.2275e-06
-1.5788e-11
6.2275e-06
1.55863e-13
6.22749e-06
1.37771e-11
6.22747e-06
2.37963e-11
6.22745e-06
3.02754e-11
6.22742e-06
3.37569e-11
6.2274e-06
3.44278e-11
6.22737e-06
3.27728e-11
6.22735e-06
3.01078e-11
6.22733e-06
2.73857e-11
6.22731e-06
2.42275e-11
6.2273e-06
2.11205e-11
6.22728e-06
1.80816e-11
6.22727e-06
1.44483e-11
6.22726e-06
1.13494e-11
6.22726e-06
8.27193e-12
6.22725e-06
4.91501e-12
6.22725e-06
2.01914e-12
6.22725e-06
-5.60284e-13
6.22725e-06
-3.09379e-12
6.22726e-06
-5.72112e-12
6.22726e-06
-7.89893e-12
6.22727e-06
-9.33363e-12
6.22728e-06
-1.10042e-11
6.22729e-06
-1.28162e-11
6.2273e-06
-1.3889e-11
6.22731e-06
-1.48059e-11
6.22732e-06
-1.61519e-11
6.22734e-06
-1.71538e-11
6.22735e-06
-1.76151e-11
6.22736e-06
-1.8079e-11
6.22738e-06
-1.87996e-11
6.22739e-06
-1.92557e-11
6.22741e-06
-1.92553e-11
6.22742e-06
-1.9498e-11
6.22744e-06
-1.95609e-11
6.22745e-06
-1.96509e-11
6.22746e-06
-1.82174e-11
6.22748e-06
-1.63374e-11
6.22749e-06
-1.33561e-11
6.22749e-06
-1.01405e-11
6.2275e-06
-6.0835e-12
6.2275e-06
-4.01327e-14
6.2275e-06
2.50721e-12
6.2275e-06
3.05512e-12
6.2275e-06
2.04611e-12
6.2275e-06
-6.9776e-15
6.2275e-06
-1.50598e-12
6.2275e-06
-3.00226e-12
6.2275e-06
-4.2575e-12
6.22751e-06
-5.2232e-12
6.22751e-06
-5.90128e-12
6.22752e-06
-6.40798e-12
6.22752e-06
-6.45628e-12
6.22752e-06
-5.98789e-12
6.22753e-06
-5.0739e-12
6.22753e-06
-4.04033e-12
6.22753e-06
-2.78421e-12
6.22753e-06
-1.15551e-12
6.22753e-06
5.34246e-13
6.22753e-06
2.17597e-12
6.22753e-06
3.6414e-12
6.22752e-06
4.85886e-12
6.22752e-06
6.18673e-12
6.22751e-06
7.40137e-12
6.22751e-06
8.04823e-12
6.2275e-06
8.61544e-12
6.22749e-06
8.8652e-12
6.22749e-06
9.16318e-12
6.22748e-06
9.42594e-12
6.22747e-06
9.28112e-12
6.22747e-06
9.41777e-12
6.22746e-06
9.42143e-12
6.22745e-06
8.85243e-12
6.22745e-06
8.0631e-12
6.22744e-06
7.51595e-12
6.22744e-06
7.00042e-12
6.22743e-06
6.35298e-12
6.22743e-06
5.91076e-12
6.22742e-06
5.58251e-12
6.22742e-06
4.89791e-12
6.22742e-06
4.03828e-12
6.22741e-06
3.06305e-12
6.22741e-06
1.38779e-12
6.22741e-06
1.31131e-13
6.22741e-06
-2.38801e-13
6.22741e-06
-2.44525e-13
6.22741e-06
1.73677e-13
6.22741e-06
2.54846e-13
6.22741e-06
9.67756e-14
6.22741e-06
-2.73186e-13
6.22741e-06
-8.85601e-13
6.22741e-06
-1.36002e-12
6.22741e-06
-1.99939e-12
6.22742e-06
-2.5674e-12
6.22742e-06
-3.01532e-12
6.22742e-06
-2.87613e-12
6.22742e-06
-2.87586e-12
6.22742e-06
-1.45158e-12
6.22742e-06
-1.63142e-13
6.22742e-06
2.66169e-12
6.22742e-06
6.74994e-12
6.22741e-06
7.41567e-12
6.22741e-06
6.65098e-12
6.2274e-06
4.35284e-12
6.2274e-06
1.33097e-12
6.2274e-06
-1.56423e-12
6.22741e-06
-4.11862e-12
6.22741e-06
-6.01584e-12
6.22742e-06
-7.6234e-12
6.22742e-06
-8.7368e-12
6.22743e-06
-9.5509e-12
6.22744e-06
-9.32607e-12
6.22744e-06
-7.2675e-12
6.22745e-06
-8.04777e-12
6.22745e-06
-1.30366e-12
8.49615e-12
1.0724e-05
-2.06171e-11
1.07241e-05
-5.90273e-11
1.07241e-05
-5.91791e-11
1.07241e-05
-3.03668e-11
1.07241e-05
4.88021e-12
1.07241e-05
3.4644e-11
1.0724e-05
5.6298e-11
1.0724e-05
7.01916e-11
1.0724e-05
7.74738e-11
1.07239e-05
7.84125e-11
1.07239e-05
7.4455e-11
1.07238e-05
6.8426e-11
1.07238e-05
6.20558e-11
1.07238e-05
5.48894e-11
1.07237e-05
4.77699e-11
1.07237e-05
4.0689e-11
1.07237e-05
3.25497e-11
1.07237e-05
2.54003e-11
1.07237e-05
1.8382e-11
1.07237e-05
1.09055e-11
1.07237e-05
4.30814e-12
1.07237e-05
-1.6305e-12
1.07237e-05
-7.43313e-12
1.07237e-05
-1.32329e-11
1.07237e-05
-1.80446e-11
1.07237e-05
-2.14256e-11
1.07237e-05
-2.51721e-11
1.07237e-05
-2.91547e-11
1.07237e-05
-3.17258e-11
1.07238e-05
-3.38708e-11
1.07238e-05
-3.67006e-11
1.07238e-05
-3.88593e-11
1.07238e-05
-3.99729e-11
1.07239e-05
-4.10583e-11
1.07239e-05
-4.25866e-11
1.07239e-05
-4.36004e-11
1.07239e-05
-4.36929e-11
1.0724e-05
-4.41836e-11
1.0724e-05
-4.44296e-11
1.0724e-05
-4.45443e-11
1.0724e-05
-4.15542e-11
1.0724e-05
-3.74578e-11
1.07241e-05
-3.1409e-11
1.07241e-05
-2.46574e-11
1.07241e-05
-1.59185e-11
1.07241e-05
-3.35222e-12
1.07241e-05
2.84919e-12
1.07241e-05
4.61085e-12
1.07241e-05
2.95642e-12
1.07241e-05
-9.17673e-13
1.07241e-05
-4.01271e-12
1.07241e-05
-7.10425e-12
1.07241e-05
-9.74887e-12
1.07241e-05
-1.17503e-11
1.07241e-05
-1.31237e-11
1.07241e-05
-1.40608e-11
1.07241e-05
-1.39945e-11
1.07241e-05
-1.281e-11
1.07241e-05
-1.0707e-11
1.07241e-05
-8.28284e-12
1.07242e-05
-5.34437e-12
1.07242e-05
-1.6591e-12
1.07242e-05
2.14888e-12
1.07241e-05
5.81582e-12
1.07241e-05
9.11043e-12
1.07241e-05
1.19049e-11
1.07241e-05
1.4841e-11
1.07241e-05
1.74759e-11
1.07241e-05
1.8962e-11
1.07241e-05
2.01674e-11
1.07241e-05
2.07535e-11
1.07241e-05
2.13962e-11
1.07241e-05
2.19352e-11
1.0724e-05
2.16737e-11
1.0724e-05
2.18387e-11
1.0724e-05
2.17171e-11
1.0724e-05
2.04904e-11
1.0724e-05
1.8764e-11
1.0724e-05
1.74747e-11
1.0724e-05
1.634e-11
1.0724e-05
1.4962e-11
1.0724e-05
1.39244e-11
1.0724e-05
1.31067e-11
1.07239e-05
1.1583e-11
1.07239e-05
9.67652e-12
1.07239e-05
7.31255e-12
1.07239e-05
3.7032e-12
1.07239e-05
1.13026e-12
1.07239e-05
2.62196e-13
1.07239e-05
1.8701e-13
1.07239e-05
9.45299e-13
1.07239e-05
1.08804e-12
1.07239e-05
7.17547e-13
1.07239e-05
-8.86071e-14
1.07239e-05
-1.39092e-12
1.07239e-05
-2.53626e-12
1.07239e-05
-3.99379e-12
1.07239e-05
-5.37332e-12
1.07239e-05
-6.48132e-12
1.07239e-05
-6.54281e-12
1.07239e-05
-6.72301e-12
1.0724e-05
-4.18954e-12
1.0724e-05
-1.6388e-12
1.0724e-05
4.22979e-12
1.07239e-05
1.25923e-11
1.07239e-05
1.43893e-11
1.07239e-05
1.2934e-11
1.07239e-05
8.3291e-12
1.07239e-05
2.15068e-12
1.07239e-05
-3.88764e-12
1.07239e-05
-9.27693e-12
1.07239e-05
-1.33881e-11
1.0724e-05
-1.68248e-11
1.0724e-05
-1.93042e-11
1.0724e-05
-2.11699e-11
1.0724e-05
-2.08015e-11
1.0724e-05
-1.67254e-11
1.0724e-05
-1.80274e-11
1.0724e-05
-2.99508e-12
1.15461e-11
1.55009e-05
-5.32058e-11
1.55009e-05
-1.06593e-10
1.5501e-05
-9.70964e-11
1.5501e-05
-4.38943e-11
1.5501e-05
1.73398e-11
1.55009e-05
6.82754e-11
1.55009e-05
1.04926e-10
1.55008e-05
1.28226e-10
1.55007e-05
1.4005e-10
1.55007e-05
1.40623e-10
1.55006e-05
1.33158e-10
1.55006e-05
1.22397e-10
1.55005e-05
1.10782e-10
1.55005e-05
9.79291e-11
1.55004e-05
8.50125e-11
1.55004e-05
7.20712e-11
1.55004e-05
5.76204e-11
1.55004e-05
4.46981e-11
1.55004e-05
3.20946e-11
1.55003e-05
1.89211e-11
1.55003e-05
7.11553e-12
1.55003e-05
-3.64531e-12
1.55004e-05
-1.41063e-11
1.55004e-05
-2.42051e-11
1.55004e-05
-3.25836e-11
1.55004e-05
-3.87909e-11
1.55004e-05
-4.54474e-11
1.55004e-05
-5.239e-11
1.55005e-05
-5.71621e-11
1.55005e-05
-6.10861e-11
1.55005e-05
-6.5815e-11
1.55006e-05
-6.94636e-11
1.55006e-05
-7.15403e-11
1.55006e-05
-7.35994e-11
1.55006e-05
-7.61816e-11
1.55007e-05
-7.79033e-11
1.55007e-05
-7.81837e-11
1.55008e-05
-7.90415e-11
1.55008e-05
-7.95863e-11
1.55008e-05
-7.96867e-11
1.55009e-05
-7.46274e-11
1.55009e-05
-6.7668e-11
1.55009e-05
-5.7994e-11
1.55009e-05
-4.67763e-11
1.5501e-05
-3.19833e-11
1.5501e-05
-1.11257e-11
1.5501e-05
3.47839e-13
1.5501e-05
4.30113e-12
1.5501e-05
2.37861e-12
1.5501e-05
-3.30699e-12
1.5501e-05
-8.24178e-12
1.5501e-05
-1.32801e-11
1.5501e-05
-1.76421e-11
1.5501e-05
-2.08848e-11
1.5501e-05
-2.30374e-11
1.5501e-05
-2.43506e-11
1.5501e-05
-2.38986e-11
1.5501e-05
-2.15536e-11
1.5501e-05
-1.77204e-11
1.5501e-05
-1.32486e-11
1.5501e-05
-7.83453e-12
1.5501e-05
-1.23296e-12
1.5501e-05
5.52297e-12
1.5501e-05
1.1974e-11
1.5501e-05
1.78121e-11
1.5501e-05
2.28416e-11
1.5501e-05
2.79692e-11
1.5501e-05
3.24833e-11
1.5501e-05
3.51122e-11
1.5501e-05
3.71533e-11
1.55009e-05
3.82106e-11
1.55009e-05
3.93116e-11
1.55009e-05
4.01973e-11
1.55009e-05
3.97874e-11
1.55009e-05
3.98659e-11
1.55008e-05
3.94271e-11
1.55008e-05
3.73044e-11
1.55008e-05
3.43114e-11
1.55008e-05
3.19595e-11
1.55008e-05
3.00019e-11
1.55008e-05
2.76659e-11
1.55008e-05
2.57643e-11
1.55008e-05
2.41876e-11
1.55007e-05
2.14869e-11
1.55007e-05
1.81161e-11
1.55007e-05
1.36596e-11
1.55007e-05
7.51507e-12
1.55007e-05
3.41555e-12
1.55007e-05
1.86018e-12
1.55007e-05
1.59738e-12
1.55007e-05
2.66675e-12
1.55007e-05
2.80874e-12
1.55007e-05
2.11304e-12
1.55007e-05
7.30126e-13
1.55007e-05
-1.49228e-12
1.55007e-05
-3.63042e-12
1.55007e-05
-6.28588e-12
1.55007e-05
-8.88147e-12
1.55007e-05
-1.10592e-11
1.55007e-05
-1.1722e-11
1.55007e-05
-1.24468e-11
1.55007e-05
-8.94221e-12
1.55007e-05
-5.05129e-12
1.55007e-05
4.58177e-12
1.55007e-05
1.81775e-11
1.55007e-05
2.15298e-11
1.55007e-05
1.94248e-11
1.55007e-05
1.21531e-11
1.55007e-05
2.22992e-12
1.55007e-05
-7.63914e-12
1.55007e-05
-1.65885e-11
1.55007e-05
-2.35598e-11
1.55008e-05
-2.93584e-11
1.55008e-05
-3.36998e-11
1.55008e-05
-3.70559e-11
1.55008e-05
-3.66179e-11
1.55008e-05
-3.0152e-11
1.55008e-05
-3.18475e-11
1.55008e-05
-5.36135e-12
7.80096e-12
2.0501e-05
-1.07818e-10
2.05011e-05
-1.66896e-10
2.05011e-05
-1.36396e-10
2.05012e-05
-5.10887e-11
2.05011e-05
4.08914e-11
2.05011e-05
1.16276e-10
2.0501e-05
1.6996e-10
2.05009e-05
2.038e-10
2.05009e-05
2.20291e-10
2.05008e-05
2.19448e-10
2.05007e-05
2.07355e-10
2.05006e-05
1.91014e-10
2.05006e-05
1.72651e-10
2.05005e-05
1.52223e-10
2.05005e-05
1.31773e-10
2.05004e-05
1.11221e-10
2.05004e-05
8.87966e-11
2.05004e-05
6.85158e-11
2.05004e-05
4.88029e-11
2.05004e-05
2.85122e-11
2.05004e-05
1.01227e-11
2.05004e-05
-6.87148e-12
2.05004e-05
-2.33065e-11
2.05004e-05
-3.8622e-11
2.05004e-05
-5.1352e-11
2.05004e-05
-6.12558e-11
2.05004e-05
-7.16213e-11
2.05005e-05
-8.22363e-11
2.05005e-05
-8.98884e-11
2.05005e-05
-9.61081e-11
2.05006e-05
-1.03037e-10
2.05006e-05
-1.08415e-10
2.05007e-05
-1.11783e-10
2.05007e-05
-1.15212e-10
2.05007e-05
-1.19045e-10
2.05008e-05
-1.21595e-10
2.05008e-05
-1.22523e-10
2.05009e-05
-1.23946e-10
2.05009e-05
-1.24573e-10
2.0501e-05
-1.24555e-10
2.0501e-05
-1.16952e-10
2.0501e-05
-1.06785e-10
2.05011e-05
-9.33234e-11
2.05011e-05
-7.6918e-11
2.05011e-05
-5.501e-11
2.05011e-05
-2.45045e-11
2.05012e-05
-6.3277e-12
2.05012e-05
8.80677e-13
2.05012e-05
-6.31649e-13
2.05012e-05
-7.7434e-12
2.05012e-05
-1.45073e-11
2.05012e-05
-2.16631e-11
2.05012e-05
-2.79019e-11
2.05012e-05
-3.24277e-11
2.05012e-05
-3.53139e-11
2.05012e-05
-3.68137e-11
2.05012e-05
-3.55663e-11
2.05012e-05
-3.15541e-11
2.05013e-05
-2.54579e-11
2.05013e-05
-1.82745e-11
2.05013e-05
-9.57211e-12
2.05013e-05
7.64906e-13
2.05013e-05
1.11995e-11
2.05012e-05
2.10818e-11
2.05012e-05
3.01038e-11
2.05012e-05
3.79753e-11
2.05012e-05
4.57932e-11
2.05012e-05
5.25355e-11
2.05012e-05
5.65334e-11
2.05011e-05
5.95668e-11
2.05011e-05
6.12252e-11
2.05011e-05
6.28943e-11
2.05011e-05
6.41734e-11
2.0501e-05
6.35577e-11
2.0501e-05
6.33786e-11
2.0501e-05
6.23667e-11
2.0501e-05
5.91251e-11
2.0501e-05
5.45829e-11
2.05009e-05
5.0908e-11
2.05009e-05
4.79986e-11
2.05009e-05
4.4502e-11
2.05009e-05
4.14631e-11
2.05009e-05
3.88408e-11
2.05009e-05
3.46285e-11
2.05008e-05
2.93806e-11
2.05008e-05
2.21307e-11
2.05008e-05
1.31014e-11
2.05008e-05
7.50217e-12
2.05008e-05
5.03237e-12
2.05008e-05
4.38808e-12
2.05008e-05
5.64655e-12
2.05008e-05
5.64348e-12
2.05008e-05
4.49032e-12
2.05008e-05
2.41661e-12
2.05008e-05
-9.46748e-13
2.05008e-05
-4.41535e-12
2.05008e-05
-8.66709e-12
2.05008e-05
-1.28986e-11
2.05008e-05
-1.66183e-11
2.05008e-05
-1.84091e-11
2.05008e-05
-2.02036e-11
2.05008e-05
-1.60881e-11
2.05009e-05
-1.10009e-11
2.05009e-05
2.86639e-12
2.05009e-05
2.21759e-11
2.05008e-05
2.72665e-11
2.05008e-05
2.47689e-11
2.05008e-05
1.48166e-11
2.05008e-05
9.86603e-13
2.05008e-05
-1.30082e-11
2.05009e-05
-2.59581e-11
2.05009e-05
-3.62232e-11
2.05009e-05
-4.47724e-11
2.05009e-05
-5.14292e-11
2.05009e-05
-5.67073e-11
2.05009e-05
-5.62745e-11
2.0501e-05
-4.71998e-11
2.0501e-05
-4.9139e-11
2.0501e-05
-8.03025e-12
-6.97114e-12
2.55805e-05
-1.82741e-10
2.55806e-05
-2.33206e-10
2.55806e-05
-1.70772e-10
2.55806e-05
-4.85938e-11
2.55806e-05
7.63948e-11
2.55805e-05
1.77049e-10
2.55804e-05
2.48166e-10
2.55803e-05
2.92799e-10
2.55802e-05
3.13526e-10
2.55801e-05
3.1131e-10
2.55801e-05
2.94176e-10
2.558e-05
2.70772e-10
2.55799e-05
2.44336e-10
2.55798e-05
2.14899e-10
2.55798e-05
1.85662e-10
2.55797e-05
1.56116e-10
2.55797e-05
1.24498e-10
2.55797e-05
9.56709e-11
2.55797e-05
6.76807e-11
2.55797e-05
3.92257e-11
2.55796e-05
1.31923e-11
2.55797e-05
-1.12264e-11
2.55797e-05
-3.46736e-11
2.55797e-05
-5.57341e-11
2.55797e-05
-7.33999e-11
2.55797e-05
-8.78105e-11
2.55798e-05
-1.0256e-10
2.55798e-05
-1.17417e-10
2.55798e-05
-1.28527e-10
2.55799e-05
-1.3744e-10
2.55799e-05
-1.46726e-10
2.558e-05
-1.54005e-10
2.558e-05
-1.59034e-10
2.55801e-05
-1.64203e-10
2.55801e-05
-1.69407e-10
2.55802e-05
-1.72972e-10
2.55802e-05
-1.75085e-10
2.55803e-05
-1.77251e-10
2.55803e-05
-1.77742e-10
2.55804e-05
-1.77514e-10
2.55804e-05
-1.68162e-10
2.55805e-05
-1.54984e-10
2.55805e-05
-1.36783e-10
2.55806e-05
-1.14518e-10
2.55806e-05
-8.47599e-11
2.55806e-05
-4.36727e-11
2.55806e-05
-1.77037e-11
2.55806e-05
-6.28679e-12
2.55806e-05
-6.49454e-12
2.55806e-05
-1.43765e-11
2.55806e-05
-2.27853e-11
2.55807e-05
-3.20514e-11
2.55807e-05
-4.01375e-11
2.55807e-05
-4.58169e-11
2.55807e-05
-4.92874e-11
2.55807e-05
-5.06829e-11
2.55807e-05
-4.81534e-11
2.55807e-05
-4.20235e-11
2.55807e-05
-3.32548e-11
2.55807e-05
-2.27804e-11
2.55807e-05
-1.00658e-11
2.55807e-05
4.65188e-12
2.55807e-05
1.92524e-11
2.55807e-05
3.29928e-11
2.55807e-05
4.56865e-11
2.55807e-05
5.68683e-11
2.55807e-05
6.77127e-11
2.55806e-05
7.68678e-11
2.55806e-05
8.23591e-11
2.55806e-05
8.65049e-11
2.55806e-05
8.89075e-11
2.55805e-05
9.12648e-11
2.55805e-05
9.29548e-11
2.55805e-05
9.20384e-11
2.55804e-05
9.1398e-11
2.55804e-05
8.95483e-11
2.55804e-05
8.50437e-11
2.55804e-05
7.87706e-11
2.55803e-05
7.36613e-11
2.55803e-05
6.97921e-11
2.55803e-05
6.49357e-11
2.55803e-05
6.04976e-11
2.55803e-05
5.65648e-11
2.55802e-05
5.05457e-11
2.55802e-05
4.30527e-11
2.55802e-05
3.36217e-11
2.55802e-05
2.18756e-11
2.55802e-05
1.38531e-11
2.55802e-05
1.00382e-11
2.55802e-05
8.73477e-12
2.55802e-05
9.96481e-12
2.55802e-05
9.59369e-12
2.55802e-05
7.86052e-12
2.55802e-05
5.0155e-12
2.55802e-05
2.83711e-13
2.55802e-05
-4.8505e-12
2.55802e-05
-1.10699e-11
2.55802e-05
-1.73217e-11
2.55802e-05
-2.30592e-11
2.55802e-05
-2.6556e-11
2.55802e-05
-3.00057e-11
2.55802e-05
-2.57293e-11
2.55802e-05
-1.97026e-11
2.55802e-05
-2.50942e-12
2.55802e-05
2.23785e-11
2.55802e-05
3.03111e-11
2.55802e-05
2.80342e-11
2.55802e-05
1.57471e-11
2.55802e-05
-1.7195e-12
2.55802e-05
-1.97618e-11
2.55803e-05
-3.6866e-11
2.55803e-05
-5.06128e-11
2.55803e-05
-6.21638e-11
2.55803e-05
-7.15721e-11
2.55803e-05
-7.91703e-11
2.55803e-05
-7.87429e-11
2.55804e-05
-6.69841e-11
2.55804e-05
-6.90331e-11
2.55804e-05
-1.06051e-11
-3.38114e-11
3.05436e-05
-2.65768e-10
3.05437e-05
-2.96827e-10
3.05437e-05
-1.95736e-10
3.05437e-05
-3.59207e-11
3.05436e-05
1.20935e-10
3.05436e-05
2.4545e-10
3.05435e-05
3.33198e-10
3.05434e-05
3.88192e-10
3.05433e-05
4.12396e-10
3.05432e-05
4.09004e-10
3.05431e-05
3.87166e-10
3.0543e-05
3.55812e-10
3.05429e-05
3.20983e-10
3.05429e-05
2.82182e-10
3.05428e-05
2.43389e-10
3.05428e-05
2.04339e-10
3.05427e-05
1.6301e-10
3.05427e-05
1.24758e-10
3.05427e-05
8.78585e-11
3.05427e-05
5.10018e-11
3.05427e-05
1.66967e-11
3.05427e-05
-1.62714e-11
3.05427e-05
-4.7297e-11
3.05427e-05
-7.41099e-11
3.05427e-05
-9.71402e-11
3.05428e-05
-1.16779e-10
3.05428e-05
-1.36361e-10
3.05428e-05
-1.5584e-10
3.05429e-05
-1.70824e-10
3.05429e-05
-1.8263e-10
3.0543e-05
-1.94285e-10
3.0543e-05
-2.03638e-10
3.05431e-05
-2.10779e-10
3.05431e-05
-2.18033e-10
3.05432e-05
-2.24904e-10
3.05432e-05
-2.29776e-10
3.05433e-05
-2.33092e-10
3.05433e-05
-2.35993e-10
3.05434e-05
-2.36739e-10
3.05435e-05
-2.36424e-10
3.05435e-05
-2.25814e-10
3.05436e-05
-2.10272e-10
3.05436e-05
-1.86854e-10
3.05437e-05
-1.58384e-10
3.05437e-05
-1.20354e-10
3.05437e-05
-6.81283e-11
3.05437e-05
-3.40029e-11
3.05438e-05
-1.73973e-11
3.05438e-05
-1.50018e-11
3.05438e-05
-2.31801e-11
3.05438e-05
-3.30159e-11
3.05438e-05
-4.39408e-11
3.05438e-05
-5.36536e-11
3.05438e-05
-6.02071e-11
3.05438e-05
-6.40632e-11
3.05439e-05
-6.49994e-11
3.05439e-05
-6.0704e-11
3.05439e-05
-5.22028e-11
3.05439e-05
-4.05652e-11
3.05439e-05
-2.63559e-11
3.05439e-05
-8.81575e-12
3.05439e-05
1.06154e-11
3.05439e-05
2.92342e-11
3.05439e-05
4.69787e-11
3.05438e-05
6.36419e-11
3.05438e-05
7.83914e-11
3.05438e-05
9.23756e-11
3.05438e-05
1.03939e-10
3.05437e-05
1.10953e-10
3.05437e-05
1.16317e-10
3.05437e-05
1.19917e-10
3.05436e-05
1.23096e-10
3.05436e-05
1.24887e-10
3.05436e-05
1.23532e-10
3.05436e-05
1.22229e-10
3.05435e-05
1.19338e-10
3.05435e-05
1.1357e-10
3.05435e-05
1.05808e-10
3.05434e-05
9.93814e-11
3.05434e-05
9.43888e-11
3.05434e-05
8.7919e-11
3.05434e-05
8.18642e-11
3.05434e-05
7.64178e-11
3.05433e-05
6.86484e-11
3.05433e-05
5.87044e-11
3.05433e-05
4.75175e-11
3.05433e-05
3.33884e-11
3.05433e-05
2.23386e-11
3.05433e-05
1.68494e-11
3.05433e-05
1.45415e-11
3.05433e-05
1.54405e-11
3.05433e-05
1.47018e-11
3.05433e-05
1.23253e-11
3.05433e-05
8.37608e-12
3.05433e-05
2.00784e-12
3.05433e-05
-5.0981e-12
3.05433e-05
-1.35802e-11
3.05433e-05
-2.21558e-11
3.05433e-05
-3.03406e-11
3.05433e-05
-3.60916e-11
3.05433e-05
-4.17199e-11
3.05433e-05
-3.79488e-11
3.05433e-05
-3.13e-11
3.05433e-05
-1.13622e-11
3.05433e-05
1.85451e-11
3.05433e-05
3.00582e-11
3.05433e-05
2.89181e-11
3.05433e-05
1.49488e-11
3.05433e-05
-5.79363e-12
3.05433e-05
-2.75402e-11
3.05433e-05
-4.81653e-11
3.05434e-05
-6.53355e-11
3.05434e-05
-8.03395e-11
3.05434e-05
-9.29579e-11
3.05434e-05
-1.03177e-10
3.05434e-05
-1.0259e-10
3.05435e-05
-8.82481e-11
3.05435e-05
-9.02607e-11
3.05435e-05
-1.39066e-11
-6.74935e-11
3.52423e-05
-3.39443e-10
3.52424e-05
-3.49868e-10
3.52424e-05
-2.10144e-10
3.52424e-05
-1.50361e-11
3.52423e-05
1.70015e-10
3.52423e-05
3.1553e-10
3.52422e-05
4.18464e-10
3.52421e-05
4.82828e-10
3.5242e-05
5.09477e-10
3.52419e-05
5.05001e-10
3.52418e-05
4.7919e-10
3.52417e-05
4.40565e-10
3.52416e-05
3.9799e-10
3.52416e-05
3.50119e-10
3.52415e-05
3.01758e-10
3.52415e-05
2.5331e-10
3.52414e-05
2.02334e-10
3.52414e-05
1.54855e-10
3.52414e-05
1.09069e-10
3.52414e-05
6.3515e-11
3.52414e-05
2.05226e-11
3.52414e-05
-2.12304e-11
3.52414e-05
-5.97181e-11
3.52414e-05
-9.22935e-11
3.52414e-05
-1.21157e-10
3.52415e-05
-1.46635e-10
3.52415e-05
-1.71201e-10
3.52415e-05
-1.95037e-10
3.52416e-05
-2.14137e-10
3.52416e-05
-2.29292e-10
3.52417e-05
-2.43234e-10
3.52417e-05
-2.54921e-10
3.52418e-05
-2.64724e-10
3.52418e-05
-2.7433e-10
3.52419e-05
-2.82997e-10
3.52419e-05
-2.89503e-10
3.5242e-05
-2.94087e-10
3.52421e-05
-2.98122e-10
3.52421e-05
-2.99562e-10
3.52422e-05
-2.98888e-10
3.52423e-05
-2.86607e-10
3.52423e-05
-2.69199e-10
3.52424e-05
-2.41682e-10
3.52424e-05
-2.07192e-10
3.52425e-05
-1.60711e-10
3.52425e-05
-9.70998e-11
3.52425e-05
-5.48574e-11
3.52425e-05
-3.2255e-11
3.52425e-05
-2.60804e-11
3.52425e-05
-3.42371e-11
3.52426e-05
-4.47123e-11
3.52426e-05
-5.67306e-11
3.52426e-05
-6.77926e-11
3.52426e-05
-7.48031e-11
3.52426e-05
-7.8835e-11
3.52426e-05
-7.8873e-11
3.52426e-05
-7.2366e-11
3.52426e-05
-6.15133e-11
3.52427e-05
-4.64913e-11
3.52427e-05
-2.81427e-11
3.52427e-05
-5.7124e-12
3.52426e-05
1.82656e-11
3.52426e-05
4.04859e-11
3.52426e-05
6.22835e-11
3.52426e-05
8.30451e-11
3.52426e-05
1.01394e-10
3.52426e-05
1.18406e-10
3.52425e-05
1.32208e-10
3.52425e-05
1.40717e-10
3.52425e-05
1.47437e-10
3.52424e-05
1.5266e-10
3.52424e-05
1.56629e-10
3.52424e-05
1.58203e-10
3.52423e-05
1.56351e-10
3.52423e-05
1.54195e-10
3.52423e-05
1.50149e-10
3.52422e-05
1.43315e-10
3.52422e-05
1.34866e-10
3.52422e-05
1.27348e-10
3.52422e-05
1.20697e-10
3.52421e-05
1.12338e-10
3.52421e-05
1.04531e-10
3.52421e-05
9.7461e-11
3.52421e-05
8.80131e-11
3.5242e-05
7.5502e-11
3.5242e-05
6.22591e-11
3.5242e-05
4.64221e-11
3.5242e-05
3.28506e-11
3.5242e-05
2.52439e-11
3.5242e-05
2.15469e-11
3.5242e-05
2.18044e-11
3.5242e-05
2.06313e-11
3.5242e-05
1.7511e-11
3.5242e-05
1.21779e-11
3.5242e-05
3.93984e-12
3.5242e-05
-5.40781e-12
3.5242e-05
-1.63588e-11
3.5242e-05
-2.74811e-11
3.5242e-05
-3.85048e-11
3.5242e-05
-4.69985e-11
3.5242e-05
-5.52269e-11
3.5242e-05
-5.24221e-11
3.5242e-05
-4.53848e-11
3.52421e-05
-2.2803e-11
3.52421e-05
1.1789e-11
3.52421e-05
2.65656e-11
3.52421e-05
2.71334e-11
3.52421e-05
1.26625e-11
3.52421e-05
-1.06908e-11
3.52421e-05
-3.55288e-11
3.52421e-05
-5.90087e-11
3.52421e-05
-7.95915e-11
3.52421e-05
-9.84213e-11
3.52421e-05
-1.14622e-10
3.52422e-05
-1.27085e-10
3.52422e-05
-1.2592e-10
3.52422e-05
-1.09824e-10
3.52422e-05
-1.11686e-10
3.52422e-05
-1.95899e-11
-9.95813e-11
3.96273e-05
-3.91094e-10
3.96273e-05
-3.85411e-10
3.96273e-05
-2.1353e-10
3.96273e-05
1.12713e-11
3.96272e-05
2.20063e-10
3.96272e-05
3.83646e-10
3.96271e-05
4.99235e-10
3.9627e-05
5.71291e-10
3.96269e-05
5.99658e-10
3.96268e-05
5.94549e-10
3.96267e-05
5.65599e-10
3.96266e-05
5.21205e-10
3.96266e-05
4.71953e-10
3.96265e-05
4.15567e-10
3.96264e-05
3.58324e-10
3.96264e-05
3.00876e-10
3.96264e-05
2.40684e-10
3.96263e-05
1.84661e-10
3.96263e-05
1.30386e-10
3.96263e-05
7.60101e-11
3.96263e-05
2.47939e-11
3.96263e-05
-2.5542e-11
3.96263e-05
-7.15251e-11
3.96263e-05
-1.09464e-10
3.96263e-05
-1.44036e-10
3.96264e-05
-1.75805e-10
3.96264e-05
-2.05823e-10
3.96264e-05
-2.33797e-10
3.96265e-05
-2.56629e-10
3.96265e-05
-2.75214e-10
3.96266e-05
-2.91847e-10
3.96266e-05
-3.06354e-10
3.96267e-05
-3.19447e-10
3.96267e-05
-3.31502e-10
3.96268e-05
-3.41759e-10
3.96269e-05
-3.49558e-10
3.96269e-05
-3.5565e-10
3.9627e-05
-3.61831e-10
3.96271e-05
-3.64098e-10
3.96271e-05
-3.62787e-10
3.96272e-05
-3.49567e-10
3.96272e-05
-3.30749e-10
3.96273e-05
-2.99317e-10
3.96274e-05
-2.59008e-10
3.96274e-05
-2.04034e-10
3.96274e-05
-1.29767e-10
3.96275e-05
-7.96758e-11
3.96275e-05
-5.03837e-11
3.96275e-05
-3.96838e-11
3.96275e-05
-4.69834e-11
3.96275e-05
-5.78892e-11
3.96275e-05
-7.07116e-11
3.96275e-05
-8.21601e-11
3.96276e-05
-8.90337e-11
3.96276e-05
-9.23536e-11
3.96276e-05
-9.088e-11
3.96276e-05
-8.2476e-11
3.96276e-05
-6.95611e-11
3.96276e-05
-5.07196e-11
3.96276e-05
-2.79539e-11
3.96276e-05
-8.72047e-13
3.96276e-05
2.78139e-11
3.96276e-05
5.32571e-11
3.96276e-05
7.85698e-11
3.96275e-05
1.03405e-10
3.96275e-05
1.25177e-10
3.96275e-05
1.44917e-10
3.96275e-05
1.60667e-10
3.96274e-05
1.70644e-10
3.96274e-05
1.78915e-10
3.96274e-05
1.85254e-10
3.96273e-05
1.89648e-10
3.96273e-05
1.9157e-10
3.96273e-05
1.89335e-10
3.96272e-05
1.86098e-10
3.96272e-05
1.80899e-10
3.96272e-05
1.73441e-10
3.96271e-05
1.64846e-10
3.96271e-05
1.56213e-10
3.96271e-05
1.47688e-10
3.96271e-05
1.37346e-10
3.9627e-05
1.27752e-10
3.9627e-05
1.19032e-10
3.9627e-05
1.07795e-10
3.9627e-05
9.32534e-11
3.9627e-05
7.81711e-11
3.9627e-05
6.05321e-11
3.96269e-05
4.46889e-11
3.96269e-05
3.47828e-11
3.96269e-05
2.94631e-11
3.96269e-05
2.88378e-11
3.96269e-05
2.69574e-11
3.96269e-05
2.28894e-11
3.96269e-05
1.60911e-11
3.96269e-05
5.81811e-12
3.96269e-05
-6.01716e-12
3.96269e-05
-1.95626e-11
3.96269e-05
-3.34186e-11
3.96269e-05
-4.76912e-11
3.96269e-05
-5.93684e-11
3.96269e-05
-7.05224e-11
3.9627e-05
-6.87558e-11
3.9627e-05
-6.14075e-11
3.9627e-05
-3.70905e-11
3.9627e-05
2.19e-12
3.9627e-05
2.06765e-11
3.9627e-05
2.25416e-11
3.9627e-05
8.52759e-12
3.9627e-05
-1.58987e-11
3.9627e-05
-4.29516e-11
3.9627e-05
-6.90328e-11
3.96271e-05
-9.32801e-11
3.96271e-05
-1.16058e-10
3.96271e-05
-1.35295e-10
3.96271e-05
-1.49403e-10
3.96271e-05
-1.47895e-10
3.96272e-05
-1.31122e-10
3.96272e-05
-1.3197e-10
3.96272e-05
-2.78371e-11
-1.24425e-10
4.37205e-05
-4.16259e-10
4.37205e-05
-3.9876e-10
4.37205e-05
-2.0446e-10
4.37205e-05
4.23397e-11
4.37205e-05
2.69755e-10
4.37204e-05
4.47933e-10
4.37203e-05
5.73311e-10
4.37202e-05
6.50828e-10
4.37202e-05
6.80509e-10
4.37201e-05
6.75176e-10
4.372e-05
6.43761e-10
4.37199e-05
5.94804e-10
4.37199e-05
5.40042e-10
4.37198e-05
4.76549e-10
4.37197e-05
4.11431e-10
4.37197e-05
3.45628e-10
4.37197e-05
2.76913e-10
4.37196e-05
2.12877e-10
4.37196e-05
1.50577e-10
4.37196e-05
8.77855e-11
4.37196e-05
2.89138e-11
4.37196e-05
-2.92958e-11
4.37196e-05
-8.22206e-11
4.37196e-05
-1.25232e-10
4.37197e-05
-1.64929e-10
4.37197e-05
-2.03463e-10
4.37197e-05
-2.39702e-10
4.37197e-05
-2.70837e-10
4.37198e-05
-2.97349e-10
4.37198e-05
-3.19938e-10
4.37199e-05
-3.39326e-10
4.37199e-05
-3.56364e-10
4.372e-05
-3.73387e-10
4.372e-05
-3.88571e-10
4.37201e-05
-4.00112e-10
4.37202e-05
-4.09137e-10
4.37202e-05
-4.1719e-10
4.37203e-05
-4.25104e-10
4.37203e-05
-4.27852e-10
4.37204e-05
-4.26847e-10
4.37205e-05
-4.13688e-10
4.37205e-05
-3.93841e-10
4.37206e-05
-3.58224e-10
4.37207e-05
-3.1228e-10
4.37207e-05
-2.49739e-10
4.37207e-05
-1.65726e-10
4.37208e-05
-1.0732e-10
4.37208e-05
-7.12533e-11
4.37208e-05
-5.55359e-11
4.37208e-05
-6.0861e-11
4.37208e-05
-7.21808e-11
4.37208e-05
-8.539e-11
4.37209e-05
-9.63268e-11
4.37209e-05
-1.02477e-10
4.37209e-05
-1.0433e-10
4.37209e-05
-1.00767e-10
4.37209e-05
-9.07832e-11
4.37209e-05
-7.60726e-11
4.37209e-05
-5.30998e-11
4.37209e-05
-2.49498e-11
4.37209e-05
6.80109e-12
4.37209e-05
3.91439e-11
4.37209e-05
6.70597e-11
4.37209e-05
9.57221e-11
4.37208e-05
1.24684e-10
4.37208e-05
1.49469e-10
4.37208e-05
1.71478e-10
4.37208e-05
1.88827e-10
4.37207e-05
2.00306e-10
4.37207e-05
2.10328e-10
4.37207e-05
2.17294e-10
4.37206e-05
2.21684e-10
4.37206e-05
2.23556e-10
4.37206e-05
2.2089e-10
4.37205e-05
2.17154e-10
4.37205e-05
2.11005e-10
4.37205e-05
2.03629e-10
4.37204e-05
1.95014e-10
4.37204e-05
1.84827e-10
4.37204e-05
1.74589e-10
4.37204e-05
1.62383e-10
4.37203e-05
1.5106e-10
4.37203e-05
1.4071e-10
4.37203e-05
1.27637e-10
4.37203e-05
1.11472e-10
4.37203e-05
9.47989e-11
4.37203e-05
7.50515e-11
4.37202e-05
5.7022e-11
4.37202e-05
4.50218e-11
4.37202e-05
3.80412e-11
4.37202e-05
3.63765e-11
4.37202e-05
3.35504e-11
4.37202e-05
2.82774e-11
4.37202e-05
1.98998e-11
4.37202e-05
7.42856e-12
4.37202e-05
-7.13863e-12
4.37202e-05
-2.33231e-11
4.37202e-05
-4.01226e-11
4.37202e-05
-5.81385e-11
4.37202e-05
-7.33976e-11
4.37202e-05
-8.77001e-11
4.37203e-05
-8.68785e-11
4.37203e-05
-7.92767e-11
4.37203e-05
-5.36772e-11
4.37203e-05
-1.01435e-11
4.37203e-05
1.22721e-11
4.37203e-05
1.5856e-11
4.37203e-05
3.2276e-12
4.37203e-05
-2.10814e-11
4.37203e-05
-4.95862e-11
4.37204e-05
-7.80803e-11
4.37204e-05
-1.06486e-10
4.37204e-05
-1.33163e-10
4.37204e-05
-1.54738e-10
4.37204e-05
-1.70173e-10
4.37204e-05
-1.68561e-10
4.37205e-05
-1.51082e-10
4.37205e-05
-1.50069e-10
4.37205e-05
-3.84067e-11
-1.40285e-10
4.75726e-05
-4.15689e-10
4.75725e-05
-3.88562e-10
4.75725e-05
-1.81084e-10
4.75725e-05
7.88498e-11
4.75724e-05
3.19306e-10
4.75724e-05
5.07953e-10
4.75723e-05
6.40239e-10
4.75722e-05
7.20534e-10
4.75722e-05
7.51258e-10
4.75721e-05
7.4623e-10
4.7572e-05
7.12721e-10
4.7572e-05