/*--------------------------------*- C++ -*----------------------------------*\
  =========                 |
  \\      /  F ield         | OpenFOAM: The Open Source CFD Toolbox
   \\    /   O peration     | Website:  https://openfoam.org
    \\  /    A nd           | Version:  7
     \\/     M anipulation  |
\*---------------------------------------------------------------------------*/
FoamFile
{
    version     2.0;
    format      ascii;
    class       volSymmTensorField;
    location    "20000";
    object      R;
}
// * * * * * * * * * * * * * * * * * * * * * * * * * * * * * * * * * * * * * //

dimensions      [0 2 -2 0 0 0 0];

internalField   nonuniform List<symmTensor> 
24000
(
(4.58193e-09 -2.16164e-11 -7.33737e-27 4.58193e-09 -4.62083e-24 4.58193e-09)
(4.58215e-09 -2.16175e-11 2.33929e-28 4.58215e-09 -4.59049e-24 4.58215e-09)
(4.58223e-09 -2.1618e-11 4.75612e-27 4.58223e-09 -4.60406e-24 4.58223e-09)
(4.58218e-09 -2.16178e-11 2.70554e-26 4.58218e-09 -4.20913e-24 4.58218e-09)
(4.58207e-09 -2.16173e-11 1.20502e-27 4.58207e-09 -2.88427e-24 4.58207e-09)
(4.58194e-09 -2.16167e-11 -1.48907e-28 4.58194e-09 -4.129e-24 4.58194e-09)
(4.58181e-09 -2.1616e-11 -1.66554e-27 4.58181e-09 -2.97166e-24 4.58181e-09)
(4.58168e-09 -2.16153e-11 -2.48806e-26 4.58168e-09 -4.252e-24 4.58168e-09)
(4.58157e-09 -2.16147e-11 2.07936e-26 4.58157e-09 -4.44212e-24 4.58157e-09)
(4.58146e-09 -2.16141e-11 1.98096e-27 4.58146e-09 -3.02983e-24 4.58146e-09)
(4.58138e-09 -2.16137e-11 -2.21014e-26 4.58138e-09 -4.29377e-24 4.58138e-09)
(4.58132e-09 -2.16132e-11 -1.00686e-27 4.58132e-09 -4.34589e-24 4.58132e-09)
(4.58128e-09 -2.1613e-11 1.40077e-27 4.58128e-09 -4.36263e-24 4.58128e-09)
(4.58125e-09 -2.16129e-11 3.33186e-27 4.58125e-09 -4.23641e-24 4.58125e-09)
(4.58122e-09 -2.16126e-11 -8.39252e-28 4.58122e-09 -4.09854e-24 4.58122e-09)
(4.5812e-09 -2.16125e-11 -1.57981e-27 4.5812e-09 -4.31709e-24 4.5812e-09)
(4.58119e-09 -2.16124e-11 5.26007e-28 4.58119e-09 -4.22319e-24 4.58119e-09)
(4.58118e-09 -2.16124e-11 1.06343e-27 4.58118e-09 -4.26048e-24 4.58118e-09)
(4.58119e-09 -2.16123e-11 4.95144e-27 4.58119e-09 -4.13797e-24 4.58119e-09)
(4.58119e-09 -2.16123e-11 -1.8608e-27 4.58119e-09 -3.86322e-24 4.58119e-09)
(4.58121e-09 -2.16124e-11 -2.35106e-27 4.58121e-09 -4.28695e-24 4.58121e-09)
(4.58123e-09 -2.16125e-11 1.82024e-27 4.58123e-09 -4.06041e-24 4.58123e-09)
(4.58126e-09 -2.16126e-11 1.56443e-27 4.58126e-09 -4.14736e-24 4.58126e-09)
(4.58129e-09 -2.16127e-11 5.24698e-27 4.58129e-09 -3.93788e-24 4.58129e-09)
(4.58132e-09 -2.16129e-11 -4.35418e-27 4.58132e-09 -3.73152e-24 4.58132e-09)
(4.58135e-09 -2.16132e-11 -5.03717e-27 4.58135e-09 -4.28268e-24 4.58135e-09)
(4.58139e-09 -2.16133e-11 1.22529e-27 4.58139e-09 -4.12375e-24 4.58139e-09)
(4.58142e-09 -2.16135e-11 2.21438e-27 4.58142e-09 -4.1823e-24 4.58142e-09)
(4.58145e-09 -2.16137e-11 7.34005e-27 4.58145e-09 -3.95268e-24 4.58145e-09)
(4.58149e-09 -2.16139e-11 -2.16214e-27 4.58149e-09 -3.5996e-24 4.58149e-09)
(4.58153e-09 -2.16142e-11 -5.23214e-27 4.58153e-09 -4.1251e-24 4.58153e-09)
(4.58157e-09 -2.16144e-11 -5.46065e-29 4.58157e-09 -4.00215e-24 4.58157e-09)
(4.58161e-09 -2.16146e-11 3.60378e-29 4.58161e-09 -4.1251e-24 4.58161e-09)
(4.58165e-09 -2.16148e-11 4.62216e-27 4.58165e-09 -4.00285e-24 4.58165e-09)
(4.58167e-09 -2.1615e-11 -1.62654e-27 4.58167e-09 -3.76816e-24 4.58167e-09)
(4.58171e-09 -2.16152e-11 -3.40537e-27 4.58171e-09 -4.15083e-24 4.58171e-09)
(4.58174e-09 -2.16154e-11 4.06262e-28 4.58174e-09 -4.03132e-24 4.58174e-09)
(4.58177e-09 -2.16155e-11 1.0355e-27 4.58177e-09 -4.10881e-24 4.58177e-09)
(4.58179e-09 -2.16158e-11 5.24715e-27 4.58179e-09 -3.95198e-24 4.58179e-09)
(4.58183e-09 -2.1616e-11 7.48576e-28 4.58183e-09 -3.6817e-24 4.58183e-09)
(4.58186e-09 -2.16161e-11 -2.13018e-26 4.58186e-09 -3.89311e-24 4.58186e-09)
(4.58187e-09 -2.16162e-11 -3.76068e-27 4.58187e-09 -4.49476e-24 4.58187e-09)
(4.58189e-09 -2.16165e-11 1.48856e-26 4.58189e-09 -4.18233e-24 4.58189e-09)
(4.58191e-09 -2.16166e-11 -9.43923e-28 4.58191e-09 -4.20193e-24 4.58191e-09)
(4.58193e-09 -2.16167e-11 -1.36417e-27 4.58193e-09 -4.2674e-24 4.58193e-09)
(4.58195e-09 -2.16167e-11 -1.51242e-26 4.58195e-09 -4.3102e-24 4.58195e-09)
(4.58197e-09 -2.16168e-11 -1.01624e-27 4.58197e-09 -4.68345e-24 4.58197e-09)
(4.58199e-09 -2.16169e-11 1.43261e-26 4.58199e-09 -4.38545e-24 4.58199e-09)
(4.582e-09 -2.1617e-11 4.41363e-28 4.582e-09 -4.33132e-24 4.582e-09)
(4.58201e-09 -2.1617e-11 -7.94484e-28 4.58201e-09 -4.3588e-24 4.58201e-09)
(4.58203e-09 -2.16171e-11 -1.06705e-26 4.58203e-09 -4.39274e-24 4.58203e-09)
(4.58204e-09 -2.16172e-11 -9.10264e-28 4.58204e-09 -4.70061e-24 4.58204e-09)
(4.58205e-09 -2.16172e-11 -1.34708e-27 4.58205e-09 -4.46471e-24 4.58205e-09)
(4.58207e-09 -2.16173e-11 6.0678e-27 4.58207e-09 -4.76807e-24 4.58207e-09)
(4.58208e-09 -2.16174e-11 1.03022e-26 4.58208e-09 -4.13334e-24 4.58208e-09)
(4.58209e-09 -2.16174e-11 -1.94816e-26 4.58209e-09 -4.49746e-24 4.58209e-09)
(4.58209e-09 -2.16174e-11 -9.69221e-28 4.58209e-09 -4.91801e-24 4.58209e-09)
(4.58209e-09 -2.16174e-11 -2.36128e-27 4.58209e-09 -4.56635e-24 4.58209e-09)
(4.58209e-09 -2.16176e-11 2.6846e-27 4.58209e-09 -4.93257e-24 4.58209e-09)
(4.58209e-09 -2.16175e-11 1.32244e-26 4.58209e-09 -3.97181e-24 4.58209e-09)
(4.58207e-09 -2.16175e-11 -1.42871e-26 4.58207e-09 -4.67702e-24 4.58207e-09)
(4.58205e-09 -2.16174e-11 7.50913e-29 4.58205e-09 -4.96237e-24 4.58205e-09)
(4.58203e-09 -2.16173e-11 -7.03766e-27 4.58203e-09 -4.66637e-24 4.58203e-09)
(4.58201e-09 -2.16172e-11 2.89599e-27 4.58201e-09 -5.16448e-24 4.58201e-09)
(4.58199e-09 -2.16171e-11 1.71192e-26 4.58199e-09 -4.26843e-24 4.58199e-09)
(4.58196e-09 -2.16169e-11 -1.87879e-26 4.58196e-09 -4.70493e-24 4.58196e-09)
(4.58193e-09 -2.16167e-11 -3.0487e-29 4.58193e-09 -5.10031e-24 4.58193e-09)
(4.5819e-09 -2.16165e-11 2.85088e-27 4.5819e-09 -4.70004e-24 4.5819e-09)
(4.58187e-09 -2.16164e-11 1.68627e-28 4.58187e-09 -5.10342e-24 4.58187e-09)
(4.58184e-09 -2.16162e-11 1.18152e-26 4.58184e-09 -4.68565e-24 4.58184e-09)
(4.58181e-09 -2.16161e-11 -1.20314e-26 4.58181e-09 -4.78595e-24 4.58181e-09)
(4.58178e-09 -2.16159e-11 5.57626e-28 4.58178e-09 -5.05716e-24 4.58178e-09)
(4.58175e-09 -2.16158e-11 -3.37418e-27 4.58175e-09 -4.72462e-24 4.58175e-09)
(4.58173e-09 -2.16157e-11 1.86595e-27 4.58173e-09 -5.13078e-24 4.58173e-09)
(4.5817e-09 -2.16154e-11 1.49314e-26 4.5817e-09 -4.39966e-24 4.5817e-09)
(4.58167e-09 -2.16153e-11 -1.38234e-26 4.58167e-09 -4.74446e-24 4.58167e-09)
(4.58165e-09 -2.16152e-11 -3.28969e-28 4.58165e-09 -5.08632e-24 4.58165e-09)
(4.58164e-09 -2.16151e-11 -3.5144e-27 4.58164e-09 -4.75644e-24 4.58164e-09)
(4.58162e-09 -2.1615e-11 2.55661e-27 4.58162e-09 -5.16225e-24 4.58162e-09)
(4.58161e-09 -2.16149e-11 3.31235e-26 4.58161e-09 -4.59244e-24 4.58161e-09)
(4.58159e-09 -2.16148e-11 3.38845e-27 4.58159e-09 -4.18788e-24 4.58159e-09)
(4.58157e-09 -2.16148e-11 -1.82401e-26 4.58157e-09 -4.55799e-24 4.58157e-09)
(4.58156e-09 -2.16147e-11 8.02555e-27 4.58156e-09 -4.78893e-24 4.58156e-09)
(4.58155e-09 -2.16146e-11 8.95625e-27 4.58155e-09 -4.18196e-24 4.58155e-09)
(4.58153e-09 -2.16144e-11 6.20287e-27 4.58153e-09 -4.03363e-24 4.58153e-09)
(4.58153e-09 -2.16144e-11 -6.17703e-28 4.58153e-09 -3.96718e-24 4.58153e-09)
(4.58153e-09 -2.16144e-11 -1.85515e-26 4.58153e-09 -4.24263e-24 4.58153e-09)
(4.58153e-09 -2.16144e-11 7.89029e-27 4.58153e-09 -4.63866e-24 4.58153e-09)
(4.58153e-09 -2.16144e-11 8.03088e-27 4.58153e-09 -4.04806e-24 4.58153e-09)
(4.58153e-09 -2.16144e-11 -3.23578e-28 4.58153e-09 -3.69833e-24 4.58153e-09)
(4.58152e-09 -2.16144e-11 -4.82668e-27 4.58152e-09 -4.01086e-24 4.58152e-09)
(4.58151e-09 -2.16143e-11 -1.36194e-26 4.58151e-09 -4.40651e-24 4.58151e-09)
(4.58151e-09 -2.16143e-11 1.16977e-26 4.58151e-09 -4.59874e-24 4.58151e-09)
(4.5815e-09 -2.16143e-11 7.68937e-27 4.5815e-09 -3.99995e-24 4.5815e-09)
(4.58149e-09 -2.16142e-11 2.41413e-27 4.58149e-09 -4.02517e-24 4.58149e-09)
(4.58149e-09 -2.16142e-11 -1.19566e-27 4.58149e-09 -4.01391e-24 4.58149e-09)
(4.58149e-09 -2.16142e-11 -1.67961e-26 4.58149e-09 -4.03513e-24 4.58149e-09)
(4.58149e-09 -2.16142e-11 8.56184e-27 4.58149e-09 -4.58843e-24 4.58149e-09)
(4.58149e-09 -2.16142e-11 6.81236e-27 4.58149e-09 -4.00179e-24 4.58149e-09)
(4.58149e-09 -2.16142e-11 3.333e-27 4.58149e-09 -3.96781e-24 4.58149e-09)
(4.58149e-09 -2.16144e-11 1.23662e-27 4.58149e-09 -3.97594e-24 4.58149e-09)
(4.5815e-09 -2.16144e-11 -1.83668e-26 4.5815e-09 -4.12188e-24 4.5815e-09)
(4.58151e-09 -2.16145e-11 4.06847e-27 4.58151e-09 -4.58615e-24 4.58151e-09)
(4.58153e-09 -2.16145e-11 5.05168e-27 4.58153e-09 -4.1046e-24 4.58153e-09)
(4.58153e-09 -2.16145e-11 7.38555e-28 4.58153e-09 -4.21912e-24 4.58153e-09)
(4.58153e-09 -2.16144e-11 1.4012e-27 4.58153e-09 -4.05163e-24 4.58153e-09)
(4.58155e-09 -2.16145e-11 -1.30075e-26 4.58155e-09 -4.15625e-24 4.58155e-09)
(4.58156e-09 -2.16145e-11 6.10174e-27 4.58156e-09 -4.58966e-24 4.58156e-09)
(4.58158e-09 -2.16146e-11 5.60159e-27 4.58158e-09 -4.07482e-24 4.58158e-09)
(4.5816e-09 -2.16147e-11 -4.06662e-28 4.5816e-09 -4.22644e-24 4.5816e-09)
(4.58162e-09 -2.16148e-11 8.43392e-27 4.58162e-09 -4.08911e-24 4.58162e-09)
(4.58164e-09 -2.16149e-11 -1.20376e-26 4.58164e-09 -3.97994e-24 4.58164e-09)
(4.58165e-09 -2.1615e-11 -1.81126e-27 4.58165e-09 -4.57296e-24 4.58165e-09)
(4.58167e-09 -2.16152e-11 5.23417e-27 4.58167e-09 -4.10759e-24 4.58167e-09)
(4.58169e-09 -2.16153e-11 4.54414e-27 4.58169e-09 -4.21463e-24 4.58169e-09)
(4.58171e-09 -2.16154e-11 7.36502e-27 4.58171e-09 -4.01805e-24 4.58171e-09)
(4.58172e-09 -2.16155e-11 -1.65917e-26 4.58172e-09 -4.02982e-24 4.58172e-09)
(4.58173e-09 -2.16155e-11 -1.68165e-27 4.58173e-09 -4.56921e-24 4.58173e-09)
(4.58175e-09 -2.16156e-11 6.94115e-27 4.58175e-09 -4.1611e-24 4.58175e-09)
(4.58168e-09 -2.16153e-11 -1.17556e-26 4.58168e-09 -4.19934e-24 4.58168e-09)
(1.38084e-07 -3.74853e-09 -2.17368e-24 1.38084e-07 -8.10315e-22 1.38084e-07)
(1.38091e-07 -3.74872e-09 1.10412e-25 1.38091e-07 -7.96463e-22 1.38091e-07)
(1.38093e-07 -3.7488e-09 2.55029e-24 1.38093e-07 -8.00754e-22 1.38093e-07)
(1.38091e-07 -3.74873e-09 1.05e-23 1.38091e-07 -7.22771e-22 1.38091e-07)
(1.38089e-07 -3.74867e-09 4.62787e-25 1.38089e-07 -7.23754e-22 1.38089e-07)
(1.38085e-07 -3.74855e-09 -7.53348e-25 1.38085e-07 -7.32708e-22 1.38085e-07)
(1.38081e-07 -3.74846e-09 -8.35531e-25 1.38081e-07 -7.37952e-22 1.38081e-07)
(1.38077e-07 -3.74831e-09 -8.66921e-24 1.38077e-07 -7.54884e-22 1.38077e-07)
(1.38073e-07 -3.74819e-09 7.18204e-24 1.38073e-07 -7.68989e-22 1.38073e-07)
(1.3807e-07 -3.74811e-09 9.42429e-25 1.3807e-07 -7.48079e-22 1.3807e-07)
(1.38067e-07 -3.74803e-09 -7.78807e-24 1.38067e-07 -7.6235e-22 1.38067e-07)
(1.38066e-07 -3.74797e-09 -4.34989e-25 1.38066e-07 -7.52659e-22 1.38066e-07)
(1.38065e-07 -3.74792e-09 7.25135e-25 1.38065e-07 -7.58473e-22 1.38065e-07)
(1.38063e-07 -3.74787e-09 1.75858e-24 1.38063e-07 -7.34625e-22 1.38063e-07)
(1.38063e-07 -3.74784e-09 -5.69645e-25 1.38063e-07 -7.09142e-22 1.38063e-07)
(1.38062e-07 -3.74782e-09 -8.29293e-25 1.38062e-07 -7.61497e-22 1.38062e-07)
(1.38062e-07 -3.74779e-09 4.10457e-25 1.38062e-07 -7.33225e-22 1.38062e-07)
(1.38061e-07 -3.74779e-09 5.6976e-25 1.38061e-07 -7.39982e-22 1.38061e-07)
(1.38062e-07 -3.74777e-09 2.65685e-24 1.38062e-07 -7.16867e-22 1.38062e-07)
(1.38062e-07 -3.7478e-09 -9.95414e-25 1.38062e-07 -6.66416e-22 1.38062e-07)
(1.38063e-07 -3.7478e-09 -1.33746e-24 1.38063e-07 -7.46475e-22 1.38063e-07)
(1.38063e-07 -3.74783e-09 9.19597e-25 1.38063e-07 -7.05894e-22 1.38063e-07)
(1.38064e-07 -3.74783e-09 8.13273e-25 1.38064e-07 -7.24112e-22 1.38064e-07)
(1.38065e-07 -3.74786e-09 2.77006e-24 1.38065e-07 -6.83888e-22 1.38065e-07)
(1.38065e-07 -3.74792e-09 -2.29538e-24 1.38065e-07 -6.51231e-22 1.38065e-07)
(1.38067e-07 -3.74795e-09 -2.5962e-24 1.38067e-07 -7.53543e-22 1.38067e-07)
(1.38067e-07 -3.74798e-09 6.76475e-25 1.38067e-07 -7.11955e-22 1.38067e-07)
(1.38069e-07 -3.74801e-09 1.13002e-24 1.38069e-07 -7.28361e-22 1.38069e-07)
(1.3807e-07 -3.74803e-09 3.88378e-24 1.3807e-07 -6.83444e-22 1.3807e-07)
(1.38071e-07 -3.74806e-09 -1.15012e-24 1.38071e-07 -6.26773e-22 1.38071e-07)
(1.38072e-07 -3.74809e-09 -2.65334e-24 1.38072e-07 -7.25432e-22 1.38072e-07)
(1.38073e-07 -3.74814e-09 1.02862e-26 1.38073e-07 -6.87543e-22 1.38073e-07)
(1.38075e-07 -3.74817e-09 -1.20804e-26 1.38075e-07 -7.17058e-22 1.38075e-07)
(1.38075e-07 -3.74822e-09 2.35678e-24 1.38075e-07 -6.88259e-22 1.38075e-07)
(1.38077e-07 -3.74825e-09 -1.02793e-24 1.38077e-07 -6.57141e-22 1.38077e-07)
(1.38077e-07 -3.74828e-09 -1.73711e-24 1.38077e-07 -7.32665e-22 1.38077e-07)
(1.38079e-07 -3.74833e-09 3.02379e-25 1.38079e-07 -7.0048e-22 1.38079e-07)
(1.38079e-07 -3.74836e-09 5.22709e-25 1.38079e-07 -7.15316e-22 1.38079e-07)
(1.3808e-07 -3.74838e-09 2.87047e-24 1.3808e-07 -6.88436e-22 1.3808e-07)
(1.38081e-07 -3.74841e-09 3.91616e-25 1.38081e-07 -6.28735e-22 1.38081e-07)
(1.38082e-07 -3.74847e-09 -3.4491e-24 1.38082e-07 -6.80436e-22 1.38082e-07)
(1.38083e-07 -3.74846e-09 -1.89602e-24 1.38083e-07 -6.36997e-22 1.38083e-07)
(1.38083e-07 -3.74852e-09 -4.15068e-26 1.38083e-07 -7.24876e-22 1.38083e-07)
(1.38083e-07 -3.74852e-09 -5.89348e-25 1.38083e-07 -7.31061e-22 1.38083e-07)
(1.38084e-07 -3.74855e-09 -7.21171e-25 1.38084e-07 -7.42971e-22 1.38084e-07)
(1.38085e-07 -3.74855e-09 -1.0128e-24 1.38085e-07 -7.50592e-22 1.38085e-07)
(1.38085e-07 -3.74858e-09 -4.78711e-25 1.38085e-07 -6.91019e-22 1.38085e-07)
(1.38086e-07 -3.74858e-09 5.86128e-25 1.38086e-07 -7.59984e-22 1.38086e-07)
(1.38086e-07 -3.74861e-09 1.58974e-25 1.38086e-07 -7.5343e-22 1.38086e-07)
(1.38087e-07 -3.74861e-09 -4.05389e-25 1.38087e-07 -7.5855e-22 1.38087e-07)
(1.38087e-07 -3.74861e-09 -1.14451e-24 1.38087e-07 -7.64147e-22 1.38087e-07)
(1.38087e-07 -3.74864e-09 -4.68432e-25 1.38087e-07 -7.26781e-22 1.38087e-07)
(1.38088e-07 -3.74864e-09 -3.60774e-25 1.38088e-07 -7.75266e-22 1.38088e-07)
(1.38088e-07 -3.74864e-09 1.88162e-24 1.38088e-07 -7.30664e-22 1.38088e-07)
(1.38089e-07 -3.74869e-09 5.47e-25 1.38089e-07 -8.86892e-22 1.38089e-07)
(1.38089e-07 -3.74869e-09 -3.52045e-24 1.38089e-07 -7.88638e-22 1.38089e-07)
(1.38089e-07 -3.74869e-09 -4.30755e-25 1.38089e-07 -7.36293e-22 1.38089e-07)
(1.38089e-07 -3.74869e-09 2.90679e-25 1.38089e-07 -7.9105e-22 1.38089e-07)
(1.38089e-07 -3.74869e-09 4.82766e-24 1.38089e-07 -7.32773e-22 1.38089e-07)
(1.38089e-07 -3.74869e-09 -1.07686e-25 1.38089e-07 -8.7863e-22 1.38089e-07)
(1.38089e-07 -3.74869e-09 -6.27938e-24 1.38089e-07 -8.16319e-22 1.38089e-07)
(1.38088e-07 -3.74866e-09 9.13897e-26 1.38088e-07 -7.62043e-22 1.38088e-07)
(1.38087e-07 -3.74866e-09 -5.4774e-25 1.38087e-07 -8.08629e-22 1.38087e-07)
(1.38087e-07 -3.74863e-09 3.03856e-24 1.38087e-07 -7.49791e-22 1.38087e-07)
(1.38086e-07 -3.7486e-09 1.01565e-24 1.38086e-07 -8.90752e-22 1.38086e-07)
(1.38085e-07 -3.7486e-09 -4.0651e-24 1.38085e-07 -8.22351e-22 1.38085e-07)
(1.38084e-07 -3.74856e-09 5.86123e-26 1.38084e-07 -7.51188e-22 1.38084e-07)
(1.38083e-07 -3.74854e-09 -5.3588e-25 1.38083e-07 -8.15381e-22 1.38083e-07)
(1.38082e-07 -3.7485e-09 1.07893e-25 1.38082e-07 -7.72447e-22 1.38082e-07)
(1.38081e-07 -3.74845e-09 6.94332e-25 1.38081e-07 -9.17929e-22 1.38081e-07)
(1.38081e-07 -3.74845e-09 -1.16767e-24 1.38081e-07 -8.37756e-22 1.38081e-07)
(1.38079e-07 -3.74842e-09 4.56682e-25 1.38079e-07 -7.67811e-22 1.38079e-07)
(1.38079e-07 -3.74839e-09 -5.55e-26 1.38079e-07 -8.17983e-22 1.38079e-07)
(1.38078e-07 -3.74837e-09 2.5719e-24 1.38078e-07 -7.66321e-22 1.38078e-07)
(1.38077e-07 -3.74834e-09 7.62582e-25 1.38077e-07 -8.67518e-22 1.38077e-07)
(1.38077e-07 -3.74831e-09 -3.6554e-24 1.38077e-07 -8.31133e-22 1.38077e-07)
(1.38076e-07 -3.74831e-09 -3.81556e-26 1.38076e-07 -7.70668e-22 1.38076e-07)
(1.38075e-07 -3.74828e-09 -5.09534e-26 1.38075e-07 -8.24124e-22 1.38075e-07)
(1.38075e-07 -3.74826e-09 1.01548e-24 1.38075e-07 -7.69138e-22 1.38075e-07)
(1.38074e-07 -3.74823e-09 2.76181e-24 1.38074e-07 -8.7499e-22 1.38074e-07)
(1.38074e-07 -3.74823e-09 -3.06914e-25 1.38074e-07 -8.66505e-22 1.38074e-07)
(1.38073e-07 -3.74823e-09 -2.12597e-24 1.38073e-07 -8.69071e-22 1.38073e-07)
(1.38073e-07 -3.7482e-09 1.92017e-24 1.38073e-07 -8.39609e-22 1.38073e-07)
(1.38073e-07 -3.7482e-09 5.12229e-24 1.38073e-07 -8.1805e-22 1.38073e-07)
(1.38072e-07 -3.74818e-09 7.98766e-25 1.38072e-07 -8.27455e-22 1.38072e-07)
(1.38072e-07 -3.74814e-09 -1.7618e-24 1.38072e-07 -8.20073e-22 1.38072e-07)
(1.38072e-07 -3.74814e-09 -2.68776e-24 1.38072e-07 -8.25341e-22 1.38072e-07)
(1.38072e-07 -3.74814e-09 3.28318e-25 1.38072e-07 -8.11425e-22 1.38072e-07)
(1.38072e-07 -3.74814e-09 6.93523e-24 1.38072e-07 -8.03527e-22 1.38072e-07)
(1.38072e-07 -3.74814e-09 3.79062e-25 1.38072e-07 -8.48652e-22 1.38072e-07)
(1.38072e-07 -3.74814e-09 -5.45858e-24 1.38072e-07 -7.90517e-22 1.38072e-07)
(1.38071e-07 -3.74814e-09 -2.82136e-24 1.38071e-07 -8.60414e-22 1.38071e-07)
(1.38071e-07 -3.74814e-09 1.53849e-24 1.38071e-07 -8.01384e-22 1.38071e-07)
(1.38071e-07 -3.74814e-09 3.72932e-24 1.38071e-07 -7.91603e-22 1.38071e-07)
(1.38071e-07 -3.74811e-09 -5.64026e-25 1.38071e-07 -8.18461e-22 1.38071e-07)
(1.38071e-07 -3.74811e-09 1.13864e-25 1.38071e-07 -8.18821e-22 1.38071e-07)
(1.38071e-07 -3.74811e-09 -2.13671e-24 1.38071e-07 -8.602e-22 1.38071e-07)
(1.38071e-07 -3.74811e-09 -1.22727e-24 1.38071e-07 -8.03691e-22 1.38071e-07)
(1.38071e-07 -3.74811e-09 4.3047e-24 1.38071e-07 -8.05349e-22 1.38071e-07)
(1.38071e-07 -3.74811e-09 -3.72778e-25 1.38071e-07 -8.60671e-22 1.38071e-07)
(1.38071e-07 -3.74811e-09 -1.60259e-24 1.38071e-07 -8.30502e-22 1.38071e-07)
(1.38071e-07 -3.74817e-09 -2.18466e-24 1.38071e-07 -8.20651e-22 1.38071e-07)
(1.38071e-07 -3.74817e-09 -5.70162e-25 1.38071e-07 -8.03719e-22 1.38071e-07)
(1.38072e-07 -3.74817e-09 2.35959e-24 1.38072e-07 -7.95019e-22 1.38072e-07)
(1.38072e-07 -3.74817e-09 3.20845e-25 1.38072e-07 -8.23611e-22 1.38072e-07)
(1.38072e-07 -3.74814e-09 3.0045e-25 1.38072e-07 -7.94457e-22 1.38072e-07)
(1.38073e-07 -3.74818e-09 -2.486e-24 1.38073e-07 -8.15342e-22 1.38073e-07)
(1.38073e-07 -3.74818e-09 -3.60735e-25 1.38073e-07 -8.01477e-22 1.38073e-07)
(1.38073e-07 -3.74821e-09 2.22794e-24 1.38073e-07 -7.91436e-22 1.38073e-07)
(1.38074e-07 -3.74821e-09 -6.43183e-26 1.38074e-07 -8.20206e-22 1.38074e-07)
(1.38075e-07 -3.74824e-09 6.84163e-25 1.38075e-07 -7.96443e-22 1.38075e-07)
(1.38075e-07 -3.74824e-09 -2.17652e-24 1.38075e-07 -7.84286e-22 1.38075e-07)
(1.38076e-07 -3.74827e-09 -8.14185e-25 1.38076e-07 -8.01572e-22 1.38076e-07)
(1.38076e-07 -3.74829e-09 2.24974e-24 1.38076e-07 -8.00795e-22 1.38076e-07)
(1.38077e-07 -3.74832e-09 -3.0798e-26 1.38077e-07 -8.60859e-22 1.38077e-07)
(1.38077e-07 -3.74832e-09 3.24983e-25 1.38077e-07 -8.17683e-22 1.38077e-07)
(1.38078e-07 -3.74832e-09 -1.96533e-24 1.38078e-07 -7.83074e-22 1.38078e-07)
(1.38078e-07 -3.74835e-09 -8.69699e-25 1.38078e-07 -7.99458e-22 1.38078e-07)
(1.38079e-07 -3.74837e-09 2.048e-24 1.38079e-07 -8.02418e-22 1.38079e-07)
(1.38077e-07 -3.74829e-09 -2.01979e-24 1.38077e-07 -8.59074e-22 1.38077e-07)
(1.00241e-06 -7.97638e-08 4.34743e-23 1.00241e-06 -1.73452e-20 1.00241e-06)
(1.00246e-06 -7.97683e-08 1.16183e-23 1.00246e-06 -1.691e-20 1.00246e-06)
(1.00247e-06 -7.97696e-08 9.94712e-23 1.00247e-06 -1.70681e-20 1.00247e-06)
(1.00247e-06 -7.97686e-08 1.84059e-22 1.00247e-06 -1.54166e-20 1.00247e-06)
(1.00244e-06 -7.97668e-08 -6.73542e-24 1.00244e-06 -1.83707e-20 1.00244e-06)
(1.00241e-06 -7.97643e-08 -1.61573e-23 1.00241e-06 -1.62129e-20 1.00241e-06)
(1.00239e-06 -7.97616e-08 -3.07452e-23 1.00239e-06 -1.85369e-20 1.00239e-06)
(1.00235e-06 -7.97594e-08 -1.25232e-22 1.00235e-06 -1.66672e-20 1.00235e-06)
(1.00233e-06 -7.97571e-08 8.31575e-23 1.00233e-06 -1.62713e-20 1.00233e-06)
(1.00231e-06 -7.97552e-08 1.45846e-23 1.00231e-06 -1.87357e-20 1.00231e-06)
(1.00229e-06 -7.9753e-08 -8.54007e-23 1.00229e-06 -1.68439e-20 1.00229e-06)
(1.00228e-06 -7.97518e-08 7.11299e-25 1.00228e-06 -1.59173e-20 1.00228e-06)
(1.00227e-06 -7.97506e-08 2.51793e-23 1.00227e-06 -1.61924e-20 1.00227e-06)
(1.00226e-06 -7.975e-08 6.71118e-23 1.00226e-06 -1.55323e-20 1.00226e-06)
(1.00225e-06 -7.97497e-08 -3.30517e-23 1.00225e-06 -1.46337e-20 1.00225e-06)
(1.00225e-06 -7.97486e-08 -3.2614e-23 1.00225e-06 -1.69047e-20 1.00225e-06)
(1.00225e-06 -7.97486e-08 2.59182e-23 1.00225e-06 -1.55519e-20 1.00225e-06)
(1.00225e-06 -7.97481e-08 2.21085e-23 1.00225e-06 -1.57745e-20 1.00225e-06)
(1.00225e-06 -7.97486e-08 1.00024e-22 1.00225e-06 -1.51085e-20 1.00225e-06)
(1.00225e-06 -7.97486e-08 -3.9783e-23 1.00225e-06 -1.32028e-20 1.00225e-06)
(1.00225e-06 -7.97489e-08 -5.25454e-23 1.00225e-06 -1.74028e-20 1.00225e-06)
(1.00226e-06 -7.97492e-08 3.1555e-23 1.00226e-06 -1.49655e-20 1.00226e-06)
(1.00227e-06 -7.97498e-08 3.02324e-23 1.00227e-06 -1.56309e-20 1.00227e-06)
(1.00227e-06 -7.97502e-08 1.00331e-22 1.00227e-06 -1.49845e-20 1.00227e-06)
(1.00228e-06 -7.97508e-08 -9.35256e-23 1.00228e-06 -1.40759e-20 1.00228e-06)
(1.00229e-06 -7.97509e-08 -8.59604e-23 1.00229e-06 -1.67952e-20 1.00229e-06)
(1.00229e-06 -7.9752e-08 3.25795e-23 1.00229e-06 -1.45895e-20 1.00229e-06)
(1.0023e-06 -7.97527e-08 3.98439e-23 1.0023e-06 -1.56122e-20 1.0023e-06)
(1.00231e-06 -7.97538e-08 1.39928e-22 1.00231e-06 -1.40289e-20 1.00231e-06)
(1.00231e-06 -7.97544e-08 -5.47287e-23 1.00231e-06 -1.36897e-20 1.00231e-06)
(1.00233e-06 -7.9755e-08 -8.67263e-23 1.00233e-06 -1.63476e-20 1.00233e-06)
(1.00233e-06 -7.97556e-08 9.1911e-24 1.00233e-06 -1.50066e-20 1.00233e-06)
(1.00234e-06 -7.97567e-08 -6.47374e-25 1.00234e-06 -1.5366e-20 1.00234e-06)
(1.00235e-06 -7.97574e-08 8.36219e-23 1.00235e-06 -1.4045e-20 1.00235e-06)
(1.00235e-06 -7.9758e-08 -5.54626e-23 1.00235e-06 -1.326e-20 1.00235e-06)
(1.00236e-06 -7.97591e-08 -6.06831e-23 1.00236e-06 -1.57508e-20 1.00236e-06)
(1.00237e-06 -7.97597e-08 2.0865e-23 1.00237e-06 -1.50436e-20 1.00237e-06)
(1.00237e-06 -7.97605e-08 1.71931e-23 1.00237e-06 -1.53353e-20 1.00237e-06)
(1.00238e-06 -7.97611e-08 1.15639e-22 1.00238e-06 -1.3976e-20 1.00238e-06)
(1.00239e-06 -7.97614e-08 1.16379e-23 1.00239e-06 -1.38988e-20 1.00239e-06)
(1.00239e-06 -7.97626e-08 -8.86439e-23 1.00239e-06 -1.47544e-20 1.00239e-06)
(1.0024e-06 -7.97629e-08 -6.34157e-23 1.0024e-06 -1.39037e-20 1.0024e-06)
(1.0024e-06 -7.97632e-08 -4.87736e-23 1.0024e-06 -1.55566e-20 1.0024e-06)
(1.00241e-06 -7.97635e-08 -2.35834e-23 1.00241e-06 -1.56027e-20 1.00241e-06)
(1.00241e-06 -7.97643e-08 -2.67284e-23 1.00241e-06 -1.59221e-20 1.00241e-06)
(1.00241e-06 -7.97646e-08 1.18225e-24 1.00241e-06 -1.6054e-20 1.00241e-06)
(1.00242e-06 -7.97649e-08 -1.43738e-23 1.00242e-06 -1.49453e-20 1.00242e-06)
(1.00242e-06 -7.97652e-08 -1.57225e-23 1.00242e-06 -1.626e-20 1.00242e-06)
(1.00243e-06 -7.97655e-08 3.21668e-24 1.00243e-06 -1.60615e-20 1.00243e-06)
(1.00243e-06 -7.97658e-08 -1.48398e-23 1.00243e-06 -1.62394e-20 1.00243e-06)
(1.00243e-06 -7.97658e-08 -4.42455e-24 1.00243e-06 -1.63166e-20 1.00243e-06)
(1.00243e-06 -7.97661e-08 -1.5912e-23 1.00243e-06 -1.53979e-20 1.00243e-06)
(1.00244e-06 -7.97665e-08 -9.30211e-24 1.00244e-06 -1.66129e-20 1.00244e-06)
(1.00244e-06 -7.97669e-08 -1.03242e-22 1.00244e-06 -1.55308e-20 1.00244e-06)
(1.00244e-06 -7.97673e-08 -2.56578e-23 1.00244e-06 -1.75657e-20 1.00244e-06)
(1.00245e-06 -7.97676e-08 9.64817e-23 1.00245e-06 -1.68463e-20 1.00245e-06)
(1.00245e-06 -7.97676e-08 -6.39765e-24 1.00245e-06 -1.54708e-20 1.00245e-06)
(1.00245e-06 -7.97676e-08 -5.19233e-24 1.00245e-06 -1.69033e-20 1.00245e-06)
(1.00245e-06 -7.97671e-08 -9.06573e-23 1.00245e-06 -1.58858e-20 1.00245e-06)
(1.00245e-06 -7.97672e-08 -4.28827e-23 1.00245e-06 -1.96321e-20 1.00245e-06)
(1.00244e-06 -7.97672e-08 7.95071e-23 1.00244e-06 -1.72877e-20 1.00244e-06)
(1.00244e-06 -7.97669e-08 8.63676e-24 1.00244e-06 -1.59983e-20 1.00244e-06)
(1.00243e-06 -7.97666e-08 -1.27926e-23 1.00243e-06 -1.72631e-20 1.00243e-06)
(1.00243e-06 -7.9766e-08 -8.28428e-23 1.00243e-06 -1.62251e-20 1.00243e-06)
(1.00243e-06 -7.97652e-08 -1.63041e-23 1.00243e-06 -1.90699e-20 1.00243e-06)
(1.00242e-06 -7.97646e-08 8.70156e-23 1.00242e-06 -1.74521e-20 1.00242e-06)
(1.00241e-06 -7.97648e-08 7.43637e-24 1.00241e-06 -1.62336e-20 1.00241e-06)
(1.00241e-06 -7.97641e-08 -1.27282e-23 1.00241e-06 -1.74486e-20 1.00241e-06)
(1.0024e-06 -7.9763e-08 -1.14655e-22 1.0024e-06 -1.63319e-20 1.0024e-06)
(1.00239e-06 -7.97627e-08 -2.78016e-23 1.00239e-06 -1.86656e-20 1.00239e-06)
(1.00239e-06 -7.97621e-08 1.23119e-22 1.00239e-06 -1.77899e-20 1.00239e-06)
(1.00238e-06 -7.9761e-08 2.38334e-23 1.00238e-06 -1.62409e-20 1.00238e-06)
(1.00237e-06 -7.97607e-08 -1.11592e-23 1.00237e-06 -1.74678e-20 1.00237e-06)
(1.00237e-06 -7.976e-08 -4.99743e-23 1.00237e-06 -1.65301e-20 1.00237e-06)
(1.00236e-06 -7.97597e-08 -1.5822e-23 1.00236e-06 -1.93281e-20 1.00236e-06)
(1.00235e-06 -7.97594e-08 5.78116e-23 1.00235e-06 -1.7661e-20 1.00235e-06)
(1.00235e-06 -7.97588e-08 6.39958e-24 1.00235e-06 -1.62584e-20 1.00235e-06)
(1.00235e-06 -7.97588e-08 -1.16503e-23 1.00235e-06 -1.76093e-20 1.00235e-06)
(1.00234e-06 -7.9758e-08 -4.80491e-23 1.00234e-06 -1.66358e-20 1.00234e-06)
(1.00234e-06 -7.97577e-08 1.67655e-23 1.00234e-06 -1.8713e-20 1.00234e-06)
(1.00233e-06 -7.97574e-08 1.99175e-23 1.00233e-06 -1.81714e-20 1.00233e-06)
(1.00233e-06 -7.97571e-08 -3.702e-23 1.00233e-06 -1.85548e-20 1.00233e-06)
(1.00233e-06 -7.97566e-08 8.68063e-23 1.00233e-06 -1.78063e-20 1.00233e-06)
(1.00233e-06 -7.97563e-08 4.53694e-23 1.00233e-06 -1.74073e-20 1.00233e-06)
(1.00233e-06 -7.97565e-08 2.17556e-23 1.00233e-06 -1.87694e-20 1.00233e-06)
(1.00232e-06 -7.97565e-08 1.12073e-24 1.00232e-06 -1.71205e-20 1.00232e-06)
(1.00232e-06 -7.97565e-08 -5.87836e-23 1.00232e-06 -1.79752e-20 1.00232e-06)
(1.00233e-06 -7.97565e-08 5.43478e-23 1.00233e-06 -1.72817e-20 1.00233e-06)
(1.00233e-06 -7.97565e-08 -1.44518e-23 1.00233e-06 -1.71203e-20 1.00233e-06)
(1.00232e-06 -7.97565e-08 1.39795e-23 1.00232e-06 -1.92129e-20 1.00232e-06)
(1.00232e-06 -7.97561e-08 -2.85939e-23 1.00232e-06 -1.69687e-20 1.00232e-06)
(1.00232e-06 -7.97561e-08 -6.18181e-23 1.00232e-06 -1.72688e-20 1.00232e-06)
(1.00232e-06 -7.97558e-08 1.20943e-22 1.00232e-06 -1.68749e-20 1.00232e-06)
(1.00231e-06 -7.97554e-08 8.45916e-24 1.00231e-06 -1.67906e-20 1.00231e-06)
(1.00231e-06 -7.97554e-08 -2.0241e-23 1.00231e-06 -1.84317e-20 1.00231e-06)
(1.00231e-06 -7.97554e-08 -5.12027e-23 1.00231e-06 -1.69886e-20 1.00231e-06)
(1.00231e-06 -7.97555e-08 -4.51066e-23 1.00231e-06 -1.87152e-20 1.00231e-06)
(1.00231e-06 -7.97555e-08 9.47443e-23 1.00231e-06 -1.71124e-20 1.00231e-06)
(1.00231e-06 -7.97555e-08 -3.9916e-23 1.00231e-06 -1.71192e-20 1.00231e-06)
(1.00231e-06 -7.97555e-08 -1.45145e-23 1.00231e-06 -1.8619e-20 1.00231e-06)
(1.00231e-06 -7.97553e-08 5.06296e-23 1.00231e-06 -1.73306e-20 1.00231e-06)
(1.00232e-06 -7.97554e-08 -3.75849e-23 1.00232e-06 -1.79931e-20 1.00232e-06)
(1.00232e-06 -7.97557e-08 4.45298e-23 1.00232e-06 -1.72241e-20 1.00232e-06)
(1.00232e-06 -7.9756e-08 -4.04282e-24 1.00232e-06 -1.67754e-20 1.00232e-06)
(1.00232e-06 -7.9756e-08 4.49606e-24 1.00232e-06 -1.79382e-20 1.00232e-06)
(1.00233e-06 -7.97565e-08 1.46847e-23 1.00233e-06 -1.69804e-20 1.00233e-06)
(1.00233e-06 -7.97568e-08 -5.53347e-23 1.00233e-06 -1.76876e-20 1.00233e-06)
(1.00233e-06 -7.97571e-08 5.02389e-23 1.00233e-06 -1.70785e-20 1.00233e-06)
(1.00233e-06 -7.97574e-08 -5.70608e-25 1.00233e-06 -1.67086e-20 1.00233e-06)
(1.00234e-06 -7.97577e-08 -6.31146e-24 1.00234e-06 -1.78471e-20 1.00234e-06)
(1.00234e-06 -7.9758e-08 7.22861e-23 1.00234e-06 -1.68343e-20 1.00234e-06)
(1.00235e-06 -7.97583e-08 -5.02704e-23 1.00235e-06 -1.68612e-20 1.00235e-06)
(1.00235e-06 -7.97586e-08 -2.49946e-23 1.00235e-06 -1.74014e-20 1.00235e-06)
(1.00235e-06 -7.97585e-08 -4.74663e-23 1.00235e-06 -1.70541e-20 1.00235e-06)
(1.00236e-06 -7.97593e-08 -3.93729e-25 1.00236e-06 -1.78787e-20 1.00236e-06)
(1.00236e-06 -7.97596e-08 1.1534e-22 1.00236e-06 -1.69353e-20 1.00236e-06)
(1.00237e-06 -7.97596e-08 -4.15301e-23 1.00237e-06 -1.67419e-20 1.00237e-06)
(1.00237e-06 -7.97599e-08 -2.7651e-23 1.00237e-06 -1.73176e-20 1.00237e-06)
(1.00237e-06 -7.97607e-08 -4.12567e-23 1.00237e-06 -1.69838e-20 1.00237e-06)
(1.00235e-06 -7.97594e-08 -5.13528e-23 1.00235e-06 -1.79196e-20 1.00235e-06)
(3.70692e-06 -6.02613e-07 4.33514e-23 3.70692e-06 -1.31112e-19 3.70692e-06)
(3.70709e-06 -6.02641e-07 1.30962e-22 3.70709e-06 -1.26153e-19 3.70709e-06)
(3.70715e-06 -6.02651e-07 1.02487e-21 3.70715e-06 -1.28603e-19 3.70715e-06)
(3.70711e-06 -6.02645e-07 1.18143e-21 3.70711e-06 -1.24467e-19 3.70711e-06)
(3.70702e-06 -6.02629e-07 -2.44178e-22 3.70702e-06 -1.38607e-19 3.70702e-06)
(3.70692e-06 -6.02611e-07 -1.9242e-22 3.70692e-06 -1.22842e-19 3.70692e-06)
(3.70681e-06 -6.02588e-07 -3.17166e-22 3.70681e-06 -1.37896e-19 3.70681e-06)
(3.70671e-06 -6.0257e-07 -5.01206e-22 3.70671e-06 -1.29755e-19 3.70671e-06)
(3.70661e-06 -6.02554e-07 3.39499e-22 3.70661e-06 -1.21357e-19 3.70661e-06)
(3.70653e-06 -6.02539e-07 -7.69995e-23 3.70653e-06 -1.37633e-19 3.70653e-06)
(3.70647e-06 -6.02529e-07 -1.32824e-22 3.70647e-06 -1.3133e-19 3.70647e-06)
(3.70642e-06 -6.02516e-07 1.94789e-22 3.70642e-06 -1.18148e-19 3.70642e-06)
(3.70639e-06 -6.02507e-07 2.7557e-22 3.70639e-06 -1.23248e-19 3.70639e-06)
(3.70636e-06 -6.02507e-07 9.24545e-22 3.70636e-06 -1.14959e-19 3.70636e-06)
(3.70634e-06 -6.02497e-07 -6.5456e-22 3.70634e-06 -1.18933e-19 3.70634e-06)
(3.70632e-06 -6.02501e-07 -5.0514e-22 3.70632e-06 -1.24205e-19 3.70632e-06)
(3.70631e-06 -6.02494e-07 5.29352e-22 3.70631e-06 -1.1466e-19 3.70631e-06)
(3.70631e-06 -6.02494e-07 2.74153e-22 3.70631e-06 -1.19929e-19 3.70631e-06)
(3.70631e-06 -6.02494e-07 1.48643e-21 3.70631e-06 -1.11095e-19 3.70631e-06)
(3.70632e-06 -6.02497e-07 -1.10413e-21 3.70632e-06 -1.15761e-19 3.70632e-06)
(3.70633e-06 -6.02497e-07 -9.40488e-22 3.70633e-06 -1.22958e-19 3.70633e-06)
(3.70635e-06 -6.025e-07 8.71894e-22 3.70635e-06 -1.22623e-19 3.70635e-06)
(3.70637e-06 -6.02503e-07 1.23383e-22 3.70637e-06 -1.21505e-19 3.70637e-06)
(3.70639e-06 -6.02509e-07 1.08088e-21 3.70639e-06 -1.2758e-19 3.70639e-06)
(3.70642e-06 -6.02509e-07 -1.11976e-21 3.70642e-06 -1.22245e-19 3.70642e-06)