/*--------------------------------*- C++ -*----------------------------------*\
  =========                 |
  \\      /  F ield         | OpenFOAM: The Open Source CFD Toolbox
   \\    /   O peration     | Website:  https://openfoam.org
    \\  /    A nd           | Version:  7
     \\/     M anipulation  |
\*---------------------------------------------------------------------------*/
FoamFile
{
    version     2.0;
    format      ascii;
    class       volVectorField;
    location    "20000";
    object      wallShearStress;
}
// * * * * * * * * * * * * * * * * * * * * * * * * * * * * * * * * * * * * * //

dimensions      [0 2 -2 0 0 0 0];

internalField   uniform (0 0 0);

boundaryField
{
    bottomWall
    {
        type            calculated;
        value           nonuniform List<vector> 
120
(
(-6.29381e-05 -1.25633e-12 -1.34363e-17)
(-6.29382e-05 5.91711e-12 -1.33456e-17)
(-6.29386e-05 6.49278e-12 -1.33825e-17)
(-6.29387e-05 4.40712e-12 -1.22527e-17)
(-6.29389e-05 5.90605e-13 -7.16549e-18)
(-6.29387e-05 -3.05376e-12 -1.19692e-17)
(-6.29386e-05 -3.82126e-12 -7.19971e-18)
(-6.29384e-05 -4.32202e-12 -1.23453e-17)
(-6.29382e-05 -5.94257e-12 -1.29176e-17)
(-6.29379e-05 -7.40075e-12 -7.56652e-18)
(-6.29376e-05 -5.9812e-12 -1.24557e-17)
(-6.29374e-05 -5.79911e-12 -1.26461e-17)
(-6.29371e-05 -5.68711e-12 -1.26872e-17)
(-6.2937e-05 -4.14211e-12 -1.23241e-17)
(-6.29368e-05 -3.95848e-12 -1.19214e-17)
(-6.29367e-05 -3.82316e-12 -1.2517e-17)
(-6.29365e-05 -3.55032e-12 -1.22845e-17)
(-6.29363e-05 -2.07038e-12 -1.23961e-17)
(-6.29363e-05 -5.53308e-13 -1.20401e-17)
(-6.29363e-05 -1.6415e-12 -1.12581e-17)
(-6.29362e-05 -1.4827e-12 -1.24677e-17)
(-6.29362e-05 1.3293e-12 -1.17985e-17)
(-6.29363e-05 1.47029e-12 -1.20494e-17)
(-6.29363e-05 3.31294e-13 -1.14389e-17)
(-6.29363e-05 4.89453e-13 -1.08435e-17)
(-6.29363e-05 1.86929e-12 -1.24396e-17)
(-6.29365e-05 3.32141e-12 -1.20011e-17)
(-6.29367e-05 2.13261e-12 -1.2158e-17)
(-6.29367e-05 2.1571e-12 -1.14922e-17)
(-6.29368e-05 3.53073e-12 -1.04711e-17)
(-6.2937e-05 3.66884e-12 -1.19891e-17)
(-6.29371e-05 2.40944e-12 -1.16735e-17)
(-6.29371e-05 2.41754e-12 -1.20017e-17)
(-6.29373e-05 3.77508e-12 -1.16653e-17)
(-6.29374e-05 3.84467e-12 -1.09394e-17)
(-6.29376e-05 3.87655e-12 -1.20391e-17)
(-6.29378e-05 3.8421e-12 -1.1722e-17)
(-6.29379e-05 3.8969e-12 -1.19457e-17)
(-6.29381e-05 3.84763e-12 -1.14841e-17)
(-6.29382e-05 3.9055e-12 -1.07399e-17)
(-6.29384e-05 3.71738e-12 -1.1312e-17)
(-6.29386e-05 2.27658e-12 -1.56351e-17)
(-6.29386e-05 1.9385e-12 -1.21895e-17)
(-6.29387e-05 1.63894e-12 -1.22144e-17)
(-6.29387e-05 2.7082e-14 -1.24064e-17)
(-6.29387e-05 -6.59463e-13 -1.25279e-17)
(-6.29387e-05 -6.15938e-13 -1.58819e-17)
(-6.29387e-05 -5.77663e-13 -1.27746e-17)
(-6.29387e-05 -3.9972e-13 -1.25898e-17)
(-6.29387e-05 -1.11358e-13 -1.26732e-17)
(-6.29387e-05 -3.62115e-15 -1.27724e-17)
(-6.29387e-05 1.54869e-13 -1.51252e-17)
(-6.29387e-05 2.5497e-13 -1.29948e-17)
(-6.29387e-05 1.6812e-12 -1.54348e-17)
(-6.29389e-05 1.7433e-12 -1.16137e-17)
(-6.29389e-05 4.80063e-13 -1.30674e-17)
(-6.29389e-05 1.83815e-12 -1.60904e-17)
(-6.2939e-05 1.82839e-12 -1.33034e-17)
(-6.2939e-05 4.35465e-13 -1.6633e-17)
(-6.2939e-05 3.86571e-13 -1.26997e-17)
(-6.2939e-05 3.25216e-13 -1.35941e-17)
(-6.2939e-05 2.15723e-13 -1.59828e-17)
(-6.2939e-05 1.10096e-13 -1.35901e-17)
(-6.2939e-05 -1.02745e-15 -1.76e-17)
(-6.2939e-05 -9.61729e-14 -1.29378e-17)
(-6.2939e-05 -1.58788e-13 -1.3666e-17)
(-6.2939e-05 -1.5886e-12 -1.72553e-17)
(-6.29389e-05 -1.69098e-12 -1.36863e-17)
(-6.29389e-05 -3.74652e-13 -1.66002e-17)
(-6.29389e-05 -1.76945e-12 -1.36608e-17)
(-6.29387e-05 -1.7704e-12 -1.38849e-17)
(-6.29387e-05 -1.7963e-12 -1.64257e-17)
(-6.29386e-05 -1.83056e-12 -1.377e-17)
(-6.29386e-05 -4.57623e-13 -1.72011e-17)
(-6.29386e-05 -1.83822e-12 -1.33544e-17)
(-6.29384e-05 -1.85944e-12 -1.37697e-17)
(-6.29384e-05 -1.80355e-12 -1.65312e-17)
(-6.29382e-05 -1.74028e-12 -1.38585e-17)
(-6.29382e-05 -3.90681e-13 -1.73389e-17)
(-6.29382e-05 -1.6858e-12 -1.32842e-17)
(-6.29381e-05 -1.62376e-12 -9.72652e-18)
(-6.29381e-05 -2.75062e-13 -1.24922e-17)
(-6.29381e-05 -1.60257e-12 -1.39185e-17)
(-6.29379e-05 -1.55199e-12 -1.06478e-17)
(-6.29379e-05 -1.45826e-13 -1.18469e-17)
(-6.29379e-05 -1.29696e-13 -9.22221e-18)
(-6.29379e-05 2.22102e-14 -1.19756e-17)
(-6.29379e-05 1.47653e-13 -1.34858e-17)
(-6.29379e-05 1.42613e-13 -1.01623e-17)
(-6.29379e-05 1.44173e-13 -1.16269e-17)
(-6.29379e-05 6.95149e-14 -1.02366e-17)
(-6.29379e-05 7.16308e-14 -1.27229e-17)
(-6.29379e-05 7.9675e-14 -1.33667e-17)
(-6.29379e-05 1.05756e-13 -1.00345e-17)
(-6.29379e-05 1.71282e-13 -1.15863e-17)
(-6.29379e-05 1.72539e-13 -9.47968e-18)
(-6.29379e-05 2.27268e-13 -1.18478e-17)
(-6.29379e-05 1.56329e-12 -1.33398e-17)
(-6.29381e-05 1.59902e-12 -9.88012e-18)
(-6.29381e-05 1.51322e-13 -1.1761e-17)
(-6.29381e-05 1.6974e-13 -9.11411e-18)
(-6.29381e-05 -9.50834e-14 -1.14635e-17)
(-6.29381e-05 -2.11557e-13 -1.33352e-17)
(-6.29381e-05 -4.71233e-13 -1.05285e-17)
(-6.29381e-05 -2.28797e-12 -1.2161e-17)
(-6.29379e-05 -2.16611e-12 -1.03588e-17)
(-6.29379e-05 -2.10548e-12 -1.18258e-17)
(-6.29378e-05 -1.83112e-12 -1.33482e-17)
(-6.29378e-05 -1.95327e-13 -1.04235e-17)
(-6.29378e-05 6.28745e-14 -1.20476e-17)
(-6.29378e-05 1.62542e-12 -1.05169e-17)
(-6.29379e-05 1.75608e-12 -1.00961e-17)
(-6.29379e-05 5.65076e-13 -1.32701e-17)
(-6.29379e-05 1.96601e-12 -1.05124e-17)
(-6.29381e-05 2.00606e-12 -1.2054e-17)
(-6.29381e-05 1.97966e-12 -9.46805e-18)
(-6.29382e-05 1.70055e-12 -1.03482e-17)
(-6.29382e-05 1.83191e-12 -1.32678e-17)
(-6.29384e-05 2.07073e-13 -1.07347e-17)
(-6.29382e-05 -4.71569e-12 -1.16594e-17)
)
;
    }
    topWall
    {
        type            calculated;
        value           nonuniform List<vector> 
120
(
(-6.31641e-05 3.09593e-12 -1.36883e-17)
(-6.31641e-05 -2.58697e-12 -9.68931e-18)
(-6.31643e-05 -4.15574e-12 -1.03226e-17)
(-6.31644e-05 -6.35816e-13 -1.19646e-17)
(-6.31643e-05 3.12052e-12 -9.23252e-18)
(-6.31641e-05 5.44174e-12 -1.13883e-17)
(-6.31638e-05 7.50925e-12 -8.88711e-18)
(-6.31635e-05 7.96004e-12 -1.33515e-17)
(-6.31632e-05 8.16053e-12 -1.15242e-17)
(-6.31628e-05 9.48404e-12 -9.32117e-18)
(-6.31624e-05 9.42715e-12 -1.32393e-17)
(-6.31621e-05 7.92494e-12 -1.01501e-17)
(-6.31617e-05 7.72523e-12 -1.40044e-17)
(-6.31614e-05 7.56338e-12 -1.07047e-17)
(-6.31611e-05 5.98847e-12 -1.49618e-17)
(-6.3161e-05 4.45547e-12 -1.47594e-17)
(-6.31608e-05 5.5788e-12 -1.08678e-17)
(-6.31605e-05 5.34961e-12 -1.45672e-17)
(-6.31603e-05 2.48717e-12 -1.11456e-17)
(-6.31603e-05 2.28407e-12 -1.52184e-17)
(-6.31602e-05 3.47878e-12 -1.31806e-17)
(-6.316e-05 1.95809e-12 -1.49231e-17)
(-6.316e-05 1.84879e-12 -8.22603e-18)
(-6.31599e-05 1.72186e-12 -1.14111e-17)
(-6.31599e-05 2.34846e-13 -1.37693e-17)
(-6.31599e-05 2.08975e-13 -1.1898e-17)
(-6.31599e-05 1.10941e-13 -1.1747e-17)
(-6.31599e-05 5.2504e-14 -6.14424e-18)
(-6.31599e-05 -1.74999e-14 -1.11385e-17)
(-6.31599e-05 -5.32919e-14 -1.34147e-17)
(-6.31599e-05 -5.17126e-14 -1.17609e-17)
(-6.31599e-05 -1.42485e-13 -1.17466e-17)
(-6.31599e-05 -1.95127e-13 -7.46465e-18)
(-6.31599e-05 -1.52524e-12 -1.11831e-17)
(-6.316e-05 -1.55861e-12 -1.36294e-17)
(-6.316e-05 -2.65821e-13 -1.20712e-17)
(-6.316e-05 -3.04174e-13 -1.19534e-17)
(-6.316e-05 -1.69217e-12 -7.52787e-18)
(-6.31602e-05 -1.73232e-12 -1.12415e-17)
(-6.31602e-05 -4.17008e-13 -1.34639e-17)
(-6.31602e-05 -1.78451e-12 -7.34913e-18)
(-6.31603e-05 -1.82872e-12 -1.2119e-17)
(-6.31603e-05 -1.90562e-12 -7.39292e-18)
(-6.31605e-05 -1.93266e-12 -1.37676e-17)
(-6.31605e-05 -1.87261e-12 -7.73571e-18)
(-6.31606e-05 -1.89775e-12 -7.22627e-18)
(-6.31606e-05 -1.96173e-12 -1.19132e-17)
(-6.31608e-05 -2.01028e-12 -7.07765e-18)
(-6.31608e-05 -1.97211e-12 -1.32072e-17)
(-6.3161e-05 -1.87552e-12 -6.90346e-18)
(-6.3161e-05 -1.92496e-12 -6.00534e-18)
(-6.31611e-05 -1.99711e-12 -1.19162e-17)
(-6.31611e-05 -1.97544e-12 -6.65318e-18)
(-6.31613e-05 -1.97349e-12 -1.26848e-17)
(-6.31613e-05 -1.92093e-12 -5.71814e-18)
(-6.31614e-05 -1.89922e-12 -6.32346e-18)
(-6.31614e-05 -1.91332e-12 -1.22381e-17)
(-6.31616e-05 -1.92438e-12 -7.36058e-18)
(-6.31616e-05 -1.93739e-12 -1.1514e-17)
(-6.31617e-05 -1.89797e-12 -6.3131e-18)
(-6.31617e-05 -5.33285e-13 -4.91726e-18)
(-6.31617e-05 -1.81097e-12 -1.22083e-17)
(-6.31619e-05 -1.81648e-12 -6.10057e-18)
(-6.31619e-05 -1.81248e-12 -1.21512e-17)
(-6.31621e-05 -1.7987e-12 -5.35362e-18)
(-6.31621e-05 -4.53273e-13 -5.84714e-18)
(-6.31621e-05 -1.81041e-12 -1.17045e-17)
(-6.31622e-05 -1.8034e-12 -5.7964e-18)
(-6.31622e-05 -1.73203e-12 -1.11048e-17)
(-6.31624e-05 -1.7361e-12 -5.44842e-18)
(-6.31624e-05 -4.18226e-13 -6.02879e-18)
(-6.31624e-05 -1.76283e-12 -1.08862e-17)
(-6.31625e-05 -1.75636e-12 -5.73527e-18)
(-6.31625e-05 -3.69758e-13 -1.10537e-17)
(-6.31625e-05 -1.67791e-12 -5.41603e-18)
(-6.31627e-05 -1.73103e-12 -5.05669e-18)
(-6.31627e-05 -3.86263e-13 -1.10821e-17)
(-6.31627e-05 -1.71227e-12 -6.67103e-18)
(-6.31628e-05 -1.70491e-12 -1.13677e-17)
(-6.31628e-05 -3.39675e-13 -4.57284e-18)
(-6.31628e-05 -1.67974e-12 -1.06254e-17)
(-6.3163e-05 -1.71358e-12 -6.62108e-18)
(-6.3163e-05 -3.98607e-13 -1.02773e-17)
(-6.3163e-05 -1.73056e-12 -1.12311e-17)
(-6.31632e-05 -1.7349e-12 -5.24485e-18)
(-6.31632e-05 -3.90944e-13 -1.05815e-17)
(-6.31632e-05 -3.71741e-13 -5.62905e-18)
(-6.31632e-05 -1.66139e-12 -1.02984e-17)
(-6.31633e-05 -1.60908e-12 -1.14371e-17)
(-6.31633e-05 -3.12754e-13 -5.77486e-18)
(-6.31633e-05 -1.68962e-12 -1.10111e-17)
(-6.31635e-05 -1.66902e-12 -5.69056e-18)
(-6.31635e-05 -3.48276e-13 -1.07366e-17)
(-6.31635e-05 -3.52004e-13 -1.16454e-17)
(-6.31635e-05 -1.68783e-12 -5.48082e-18)
(-6.31636e-05 -1.67554e-12 -1.10152e-17)
(-6.31636e-05 -3.33661e-13 -7.13329e-18)
(-6.31636e-05 -1.63025e-12 -1.07719e-17)
(-6.31638e-05 -1.65508e-12 -1.18437e-17)
(-6.31638e-05 -2.39597e-13 -5.89254e-18)
(-6.31638e-05 -2.30176e-13 -1.1441e-17)
(-6.31638e-05 -3.3445e-13 -6.86537e-18)
(-6.31638e-05 -1.66645e-12 -1.08785e-17)
(-6.31639e-05 -1.69922e-12 -1.21379e-17)
(-6.31639e-05 -3.90207e-13 -5.93095e-18)
(-6.31639e-05 -1.73903e-12 -1.12877e-17)
(-6.31641e-05 -1.73878e-12 -6.07366e-18)
(-6.31641e-05 -4.41875e-13 -1.10267e-17)
(-6.31641e-05 -1.79997e-12 -1.21857e-17)
(-6.31643e-05 -1.80788e-12 -6.81917e-18)
(-6.31643e-05 -5.02226e-13 -1.12378e-17)
(-6.31643e-05 -1.83187e-12 -1.24958e-17)
(-6.31644e-05 -1.844e-12 -1.23904e-17)
(-6.31644e-05 -4.20215e-13 -1.27032e-17)
(-6.31644e-05 -3.40037e-13 -7.60876e-18)
(-6.31644e-05 -2.07058e-13 -1.13584e-17)
(-6.31644e-05 1.71143e-13 -1.26147e-17)
(-6.31644e-05 9.18525e-14 -1.24912e-17)
(-6.31644e-05 1.90344e-12 -1.2644e-17)
(-6.31643e-05 5.44913e-12 -8.04248e-18)
)
;
    }
    sides1_half0
    {
        type            cyclic;
    }
    sides1_half1
    {
        type            cyclic;
    }
    sides2_half0
    {
        type            cyclic;
    }
    sides2_half1
    {
        type            cyclic;
    }
    inout1_half0
    {
        type            cyclic;
    }
    inout1_half1
    {
        type            cyclic;
    }
    inout2_half0
    {
        type            cyclic;
    }
    inout2_half1
    {
        type            cyclic;
    }
}


// ************************************************************************* //
