/*--------------------------------*- C++ -*----------------------------------*\
  =========                 |
  \\      /  F ield         | OpenFOAM: The Open Source CFD Toolbox
   \\    /   O peration     | Website:  https://openfoam.org
    \\  /    A nd           | Version:  7
     \\/     M anipulation  |
\*---------------------------------------------------------------------------*/
FoamFile
{
    version     2.0;
    format      ascii;
    class       volScalarField;
    location    "15500";
    object      nut;
}
// * * * * * * * * * * * * * * * * * * * * * * * * * * * * * * * * * * * * * //

dimensions      [0 2 -1 0 0 0 0];

internalField   nonuniform List<scalar> 
3963
(
0.00131097
0.00131128
0.00131134
0.00131135
0.00131135
0.00131135
0.00131134
0.00131133
0.00131132
0.00131131
0.0013113
0.00131129
0.00131127
0.00131125
0.00131124
0.00131122
0.0013112
0.00131117
0.00131115
0.00131113
0.00131112
0.00131019
0.00131008
0.00130998
0.00130993
0.00130989
0.00130986
0.00130984
0.00130981
0.00130979
0.00130977
0.00130975
0.00130973
0.00130971
0.00130968
0.00130967
0.00130959
0.00125195
0.00125224
0.0012523
0.00125232
0.00125232
0.00125231
0.0012523
0.00125229
0.00125228
0.00125226
0.00125225
0.00125223
0.00125221
0.0012522
0.00125218
0.00125215
0.00125213
0.00125211
0.00125209
0.00125207
0.00125198
0.00125295
0.0012533
0.00125269
0.00125258
0.00125248
0.00125245
0.00125195
0.00125166
0.00125148
0.00125136
0.00125127
0.00125121
0.00125115
0.0012511
0.00125105
0.00125101
0.00125098
0.00125094
0.00125091
0.00125087
0.00125085
0.00125075
0.00119551
0.00119576
0.00119583
0.00119584
0.00119584
0.00119583
0.00119582
0.0011958
0.00119579
0.00119577
0.00119576
0.00119574
0.00119572
0.0011957
0.00119568
0.00119566
0.00119563
0.00119561
0.00119559
0.00119557
0.0011955
0.00119588
0.00119615
0.00119722
0.00119763
0.00119774
0.00119777
0.0011978
0.00119781
0.00119783
0.00119783
0.00119784
0.00119783
0.00119783
0.00119782
0.00119782
0.00119781
0.0011978
0.00119779
0.00119778
0.00119777
0.00119776
0.00119775
0.00119774
0.00119773
0.00119772
0.00119771
0.0011977
0.00119769
0.00119768
0.00119767
0.00119766
0.00119764
0.00119763
0.00119762
0.00119761
0.0011976
0.00119757
0.00119756
0.00119755
0.00119754
0.00119753
0.0011975
0.00119749
0.00119748
0.00119746
0.00119744
0.00119743
0.00119742
0.0011974
0.00119738
0.00119737
0.00119736
0.00119734
0.00119732
0.00119731
0.0011973
0.00119727
0.00119726
0.00119725
0.00119724
0.00119722
0.00119721
0.0011972
0.00119717
0.00119716
0.00119715
0.00119714
0.00119712
0.00119711
0.0011971
0.00119708
0.00119707
0.00119706
0.00119705
0.00119704
0.00119703
0.00119702
0.001197
0.00119702
0.00119658
0.00119633
0.00119619
0.00119611
0.00119585
0.0011956
0.0011954
0.00119526
0.00119513
0.00119505
0.00119496
0.0011949
0.00119483
0.00119478
0.00119473
0.00119468
0.00119464
0.0011946
0.00119457
0.00119446
0.00114159
0.0011418
0.00114186
0.00114187
0.00114187
0.00114186
0.00114185
0.00114184
0.00114182
0.0011418
0.00114178
0.00114176
0.00114174
0.00114172
0.0011417
0.00114169
0.00114167
0.00114164
0.00114162
0.0011416
0.00114154
0.00114167
0.00114182
0.00114236
0.00114277
0.001143
0.00114312
0.0011432
0.00114326
0.0011433
0.00114333
0.00114336
0.00114337
0.00114339
0.0011434
0.0011434
0.00114341
0.00114341
0.00114341
0.00114341
0.00114342
0.00114341
0.00114341
0.0011434
0.0011434
0.00114339
0.00114338
0.00114338
0.00114338
0.00114337
0.00114336
0.00114335
0.00114335
0.00114334
0.00114333
0.00114332
0.00114331
0.0011433
0.00114329
0.00114328
0.00114327
0.00114325
0.00114324
0.00114322
0.00114321
0.0011432
0.00114319
0.00114318
0.00114316
0.00114315
0.00114314
0.00114313
0.00114312
0.0011431
0.00114308
0.00114307
0.00114306
0.00114305
0.00114304
0.00114303
0.00114302
0.001143
0.00114299
0.00114298
0.00114296
0.00114295
0.00114294
0.00114292
0.00114292
0.00114291
0.0011429
0.00114289
0.00114288
0.00114287
0.00114285
0.00114284
0.00114283
0.00114283
0.00114282
0.00114283
0.00114265
0.00114245
0.0011423
0.0011422
0.00114205
0.00114187
0.00114169
0.00114155
0.00114142
0.00114132
0.00114122
0.00114114
0.00114108
0.00114101
0.00114095
0.0011409
0.00114085
0.0011408
0.00114076
0.00114065
0.00109012
0.00109031
0.00109034
0.00109036
0.00109035
0.00109034
0.00109033
0.00109031
0.00109029
0.00109028
0.00109026
0.00109024
0.00109023
0.0010902
0.00109018
0.00109016
0.00109014
0.00109011
0.00109009
0.00109007
0.00109003
0.00109007
0.00109013
0.00109038
0.00109068
0.0010909
0.00109107
0.00109117
0.00109125
0.00109131
0.00109135
0.00109139
0.00109143
0.00109145
0.00109147
0.00109149
0.0010915
0.00109151
0.00109152
0.00109153
0.00109153
0.00109153
0.00109153
0.00109154
0.00109154
0.00109154
0.00109154
0.00109153
0.00109153
0.00109153
0.00109152
0.00109152
0.00109152
0.00109151
0.00109151
0.0010915
0.00109149
0.00109148
0.00109147
0.00109147
0.00109146
0.00109145
0.00109144
0.00109143
0.00109142
0.00109141
0.0010914
0.00109139
0.00109138
0.00109137
0.00109136
0.00109134
0.00109133
0.00109132
0.00109131
0.0010913
0.00109129
0.00109128
0.00109127
0.00109126
0.00109125
0.00109124
0.00109123
0.00109122
0.00109121
0.0010912
0.00109119
0.00109118
0.00109117
0.00109116
0.00109116
0.00109115
0.00109114
0.00109113
0.00109112
0.00109111
0.0010911
0.00109109
0.00109108
0.00109108
0.00109102
0.00109089
0.00109078
0.00109068
0.00109058
0.00109045
0.00109031
0.00109018
0.00109007
0.00108996
0.00108987
0.00108979
0.00108972
0.00108965
0.00108959
0.00108953
0.00108948
0.00108943
0.00108939
0.00108928
0.00104101
0.00104117
0.0010412
0.0010412
0.0010412
0.00104119
0.00104118
0.00104116
0.00104115
0.00104113
0.00104111
0.0010411
0.00104107
0.00104106
0.00104103
0.00104102
0.00104099
0.00104097
0.00104095
0.00104093
0.0010409
0.0010409
0.00104091
0.00104102
0.0010412
0.00104137
0.00104151
0.00104163
0.00104171
0.00104178
0.00104184
0.00104188
0.00104192
0.00104195
0.00104198
0.001042
0.00104202
0.00104204
0.00104205
0.00104206
0.00104207
0.00104208
0.00104209
0.00104209
0.00104209
0.0010421
0.0010421
0.0010421
0.0010421
0.0010421
0.0010421
0.0010421
0.0010421
0.00104209
0.00104209
0.00104208
0.00104208
0.00104207
0.00104206
0.00104206
0.00104206
0.00104205
0.00104204
0.00104204
0.00104203
0.00104202
0.00104201
0.001042
0.00104199
0.00104199
0.00104198
0.00104197
0.00104196
0.00104195
0.00104194
0.00104193
0.00104192
0.00104191
0.0010419
0.00104189
0.00104189
0.00104188
0.00104187
0.00104187
0.00104186
0.00104185
0.00104184
0.00104183
0.00104182
0.00104182
0.00104181
0.0010418
0.00104179
0.00104178
0.00104178
0.00104177
0.00104176
0.00104175
0.00104175
0.00104175
0.00104171
0.00104165
0.00104158
0.0010415
0.00104142
0.00104133
0.00104122
0.00104112
0.00104102
0.00104093
0.00104085
0.00104077
0.0010407
0.00104063
0.00104057
0.00104051
0.00104046
0.00104041
0.00104037
0.00104026
0.000994183
0.000994329
0.000994355
0.000994357
0.000994344
0.000994339
0.000994326
0.000994314
0.000994293
0.00099428
0.00099426
0.000994246
0.000994225
0.000994204
0.000994183
0.00099417
0.000994148
0.000994126
0.000994105
0.000994083
0.000994061
0.000994046
0.000994039
0.000994084
0.000994168
0.000994282
0.000994389
0.000994489
0.000994566
0.000994636
0.000994692
0.000994739
0.000994779
0.000994811
0.000994843
0.000994868
0.000994885
0.000994909
0.000994926
0.000994935
0.000994951
0.00099496
0.000994968
0.000994977
0.000994986
0.000994986
0.000994995
0.000994995
0.000994996
0.000994996
0.000995005
0.000995005
0.000994998
0.000994998
0.000994998
0.000994998
0.000994991
0.000994991
0.000994983
0.000994983
0.000994975
0.000994975
0.000994968
0.00099496
0.000994959
0.000994951
0.000994944
0.000994936
0.000994935
0.000994927
0.000994919
0.000994911
0.000994903
0.000994894
0.000994886
0.000994878
0.000994877
0.000994869
0.000994861
0.000994852
0.000994844
0.000994835
0.000994827
0.000994826
0.000994818
0.000994809
0.000994801
0.000994792
0.000994791
0.000994783
0.000994774
0.000994766
0.000994765
0.000994756
0.000994747
0.000994746
0.000994738
0.000994729
0.00099472
0.000994719
0.000994703
0.000994672
0.000994625
0.000994571
0.000994517
0.000994447
0.000994377
0.000994292
0.000994214
0.000994136
0.000994065
0.000993995
0.000993931
0.000993867
0.000993811
0.000993763
0.000993706
0.000993657
0.000993623
0.000993513
0.000949555
0.000949688
0.000949711
0.000949706
0.000949695
0.000949684
0.000949673
0.000949661
0.00094965
0.000949632
0.000949613
0.000949595
0.000949583
0.000949564
0.000949545
0.000949526
0.000949507
0.000949488
0.000949468
0.000949449
0.000949429
0.000949409
0.000949396
0.000949403
0.000949444
0.000949506
0.000949574
0.00094965
0.000949713
0.000949769
0.000949818
0.000949867
0.000949903
0.000949938
0.000949967
0.000949996
0.000950018
0.000950032
0.000950054
0.000950069
0.000950083
0.000950091
0.000950106
0.000950113
0.000950121
0.000950128
0.000950136
0.000950136
0.000950144
0.000950144
0.000950144
0.000950151
0.000950152
0.000950152
0.000950152
0.000950152
0.000950145
0.000950145
0.000950145
0.000950145
0.000950138
0.000950138
0.000950131
0.000950131
0.000950124
0.000950116
0.000950116
0.000950109
0.000950102
0.000950101
0.000950094
0.000950086
0.000950079
0.000950079
0.000950071
0.000950064
0.000950056
0.000950049
0.000950048
0.00095004
0.000950033
0.000950025
0.000950018
0.000950017
0.000950009
0.000950002
0.000949994
0.000949993
0.000949985
0.000949978
0.000949977
0.000949969
0.000949961
0.00094996
0.000949952
0.000949945
0.000949944
0.000949936
0.000949935
0.000949927
0.000949919
0.000949905
0.000949877
0.000949842
0.000949799
0.00094975
0.000949701
0.000949638
0.000949582
0.000949519
0.000949455
0.000949399
0.000949341
0.000949291
0.000949234
0.00094919
0.000949139
0.000949095
0.000949058
0.000948958
0.000907037
0.00090715
0.000907171
0.000907167
0.000907157
0.000907147
0.000907138
0.000907128
0.000907111
0.000907095
0.000907085
0.000907068
0.000907052
0.000907035
0.000907018
0.000907001
0.000906984
0.000906966
0.000906949
0.000906931
0.000906907
0.000906889
0.000906871
0.000906866
0.000906878
0.000906909
0.000906953
0.000906997
0.000907047
0.000907091
0.000907135
0.000907173
0.000907204
0.000907236
0.000907262
0.000907288
0.000907307
0.000907327
0.000907346
0.000907359
0.000907372
0.000907385
0.000907398
0.000907405
0.000907412
0.000907418
0.000907425
0.000907431
0.000907438
0.000907438
0.000907445
0.000907445
0.000907451
0.000907451
0.000907451
0.000907451
0.000907451
0.000907451
0.000907451
0.000907445
0.000907445
0.000907445
0.000907438
0.000907438
0.000907438
0.000907431
0.000907431
0.000907425
0.000907418
0.000907418
0.000907411
0.000907404
0.000907404
0.000907397
0.000907391
0.00090739
0.000907383
0.000907376
0.000907376
0.000907369
0.000907362
0.000907355
0.000907355
0.000907348
0.000907341
0.00090734
0.000907333
0.000907326
0.000907325
0.000907318
0.000907318
0.000907311
0.000907304
0.000907303
0.000907296
0.000907295
0.000907288
0.000907281
0.00090728
0.000907273
0.000907272
0.000907259
0.000907246
0.00090722
0.000907194
0.000907163
0.000907125
0.000907086
0.000907036
0.000906991
0.00090694
0.000906895
0.000906844
0.000906798
0.000906753
0.000906714
0.000906668
0.000906628
0.000906595
0.000906505
0.000866535
0.000866632
0.000866651
0.000866648
0.000866639
0.00086663
0.000866622
0.000866607
0.000866598
0.000866584
0.000866569
0.000866554
0.000866539
0.000866524
0.000866509
0.000866494
0.000866478
0.000866463
0.000866447
0.000866431
0.000866415
0.000866394
0.000866377
0.000866367
0.000866367
0.000866373
0.000866396
0.000866424
0.000866452
0.000866486
0.000866515
0.000866544
0.000866572
0.000866601
0.000866624
0.000866641
0.000866664
0.000866682
0.000866693
0.000866711
0.000866723
0.000866734
0.000866746
0.000866752
0.000866763
0.000866769
0.000866775
0.000866781
0.000866787
0.000866793
0.000866793
0.000866799
0.000866799
0.000866804
0.000866804
0.000866804
0.000866804
0.000866804
0.000866804
0.000866804
0.000866804
0.000866804
0.000866798
0.000866798
0.000866798
0.000866792
0.000866792
0.000866786
0.000866786
0.00086678
0.000866779
0.000866773
0.000866773
0.000866767
0.000866767
0.00086676
0.000866754
0.000866754
0.000866748
0.000866742
0.000866741
0.000866735
0.000866729
0.000866728
0.000866722
0.000866721
0.000866715
0.000866709
0.000866708
0.000866702
0.000866701
0.000866694
0.000866694
0.000866687
0.000866687
0.00086668
0.000866679
0.000866673
0.000866672
0.000866666
0.000866665
0.000866659
0.000866647
0.000866635
0.000866617
0.000866594
0.000866571
0.000866536
0.000866507
0.000866467
0.000866432
0.000866391
0.000866356
0.000866315
0.00086628
0.000866239
0.000866203
0.000866167
0.000866143
0.000866056
0.000827951
0.000828038
0.000828056
0.000828053
0.000828045
0.000828038
0.00082803
0.000828022
0.000828009
0.000827996
0.000827983
0.000827974
0.000827961
0.000827948
0.000827934
0.00082792
0.000827906
0.000827887
0.000827873
0.000827859
0.000827844
0.00082783
0.00082781
0.0008278
0.000827791
0.000827786
0.000827792
0.000827807
0.000827823
0.000827844
0.000827864
0.00082789
0.000827911
0.000827927
0.000827947
0.000827963
0.000827984
0.000827994
0.00082801
0.000828026
0.000828036
0.000828047
0.000828052
0.000828062
0.000828073
0.000828078
0.000828083
0.000828089
0.000828094
0.000828099
0.000828104
0.000828104
0.00082811
0.00082811
0.00082811
0.000828115
0.000828115
0.000828115
0.000828115
0.000828115
0.000828115
0.000828115
0.000828115
0.000828114
0.000828109
0.000828109
0.000828109
0.000828104
0.000828103
0.000828098
0.000828098
0.000828092
0.000828092
0.000828087
0.000828086
0.000828081
0.00082808
0.000828075
0.000828074
0.000828069
0.000828063
0.000828063
0.000828057
0.000828057
0.000828051
0.000828051
0.000828045
0.000828044
0.000828039
0.000828038
0.000828032
0.000828032
0.000828026
0.000828025
0.000828019
0.000828019
0.000828013
0.000828012
0.000828011
0.000828006
0.000828005
0.000827999
0.000827993
0.000827982
0.000827971
0.00082796
0.000827939
0.000827918
0.000827897
0.00082787
0.000827839
0.000827812
0.000827781
0.000827749
0.000827717
0.000827689
0.000827657
0.000827625
0.000827603
0.000827524
0.000791195
0.000791274
0.000791289
0.000791287
0.000791285
0.000791278
0.000791271
0.000791264
0.000791252
0.00079124
0.000791233
0.000791221
0.000791209
0.000791196
0.000791184
0.000791172
0.000791159
0.000791146
0.000791134
0.000791121
0.000791108
0.00079109
0.000791077
0.000791064
0.000791055
0.000791046
0.000791042
0.000791047
0.000791057
0.000791066
0.00079108
0.000791095
0.000791109
0.000791123
0.000791137
0.000791152
0.000791161
0.000791175
0.000791185
0.000791199
0.000791208
0.000791218
0.000791223
0.000791232
0.000791237
0.000791246
0.000791251
0.000791256
0.000791261
0.000791266
0.000791266
0.00079127
0.000791275
0.000791275
0.00079128
0.00079128
0.00079128
0.00079128
0.00079128
0.00079128
0.00079128
0.00079128
0.00079128
0.00079128
0.00079128
0.00079128
0.000791275
0.000791275
0.000791275
0.00079127
0.00079127
0.00079127
0.000791265
0.000791265
0.00079126
0.000791259
0.000791254
0.000791254
0.000791249
0.000791249
0.000791244
0.000791243
0.000791238
0.000791238
0.000791233
0.000791232
0.000791227
0.000791227
0.000791226
0.000791221
0.00079122
0.000791215
0.000791215
0.000791209
0.000791209
0.000791208
0.000791203
0.000791202
0.000791197
0.000791196
0.000791196
0.00079119
0.000791185
0.00079118
0.000791174
0.000791164
0.00079115
0.000791135
0.00079112
0.000791101
0.000791081
0.000791057
0.000791033
0.000791009
0.000790984
0.00079096
0.000790935
0.000790906
0.00079089
0.000790819
0.000756176
0.000756251
0.000756265
0.000756263
0.000756261
0.000756255
0.000756248
0.000756242
0.000756235
0.000756225
0.000756218
0.000756207
0.000756196
0.000756185
0.000756178
0.000756167
0.000756155
0.000756144
0.000756132
0.00075612
0.000756109
0.000756093
0.000756081
0.000756069
0.000756056
0.000756049
0.000756041
0.000756041
0.000756042
0.000756046
0.000756051
0.00075606
0.000756068
0.000756077
0.00075609
0.000756099
0.000756108
0.000756116
0.000756125
0.000756134
0.000756142
0.000756151
0.000756155
0.000756164
0.000756168
0.000756173
0.000756177
0.000756182
0.000756186
0.00075619
0.000756195
0.000756195
0.000756199
0.000756203
0.000756204
0.000756204
0.000756208
0.000756208
0.000756208
0.000756208
0.000756208
0.000756208
0.000756209
0.000756209
0.000756209
0.000756209
0.000756208
0.000756204
0.000756204
0.000756204
0.0007562
0.0007562
0.0007562
0.000756195
0.000756195
0.000756191
0.00075619
0.00075619
0.000756186
0.000756185
0.000756181
0.000756181
0.000756176
0.000756176
0.000756175
0.000756171
0.00075617
0.000756166
0.000756165
0.000756165
0.00075616
0.00075616
0.000756159
0.000756154
0.000756154
0.000756149
0.000756149
0.000756148
0.000756143
0.000756143
0.000756142
0.000756137
0.000756136
0.000756132
0.000756127
0.000756118
0.000756113
0.000756099
0.00075609
0.000756076
0.000756059
0.000756045
0.000756023
0.000756005
0.000755987
0.000755964
0.000755946
0.000755923
0.000755909
0.000755845
0.000722809
0.000722873
0.000722886
0.000722887
0.000722885
0.000722883
0.000722877
0.000722871
0.000722865
0.000722859
0.000722849
0.000722843
0.000722833
0.000722823
0.000722817
0.000722806
0.000722796
0.000722786
0.000722775
0.000722768
0.000722754
0.000722743
0.000722732
0.000722721
0.00072271
0.000722702
0.000722692
0.000722688
0.000722685
0.000722685
0.000722686
0.00072269
0.000722694
0.000722699
0.000722706
0.000722711
0.000722719
0.000722727
0.000722731
0.000722739
0.000722743
0.000722751
0.000722755
0.000722759
0.000722767
0.000722771
0.000722775
0.000722779
0.000722779
0.000722783
0.000722787
0.000722788
0.000722792
0.000722796
0.000722796
0.000722796
0.0007228
0.0007228
0.0007228
0.000722801
0.000722801
0.000722801
0.000722801
0.000722801
0.000722801
0.000722801
0.000722801
0.000722798
0.000722798
0.000722798
0.000722798
0.000722794
0.000722794
0.000722794
0.00072279
0.00072279
0.00072279
0.000722786
0.000722786
0.000722785
0.000722781
0.000722781
0.000722777
0.000722777
0.000722776
0.000722772
0.000722772
0.000722772
0.000722768
0.000722767
0.000722767
0.000722763
0.000722762
0.000722762
0.000722757
0.000722757
0.000722756
0.000722756
0.000722752
0.000722751
0.00072275
0.000722746
0.000722745
0.000722741
0.000722737
0.000722732
0.000722727
0.000722719
0.000722711
0.000722702
0.00072269
0.000722677
0.000722664
0.000722652
0.000722635
0.000722618
0.000722602
0.000722585
0.000722572
0.000722517
0.000690999
0.000691056
0.000691071
0.000691072
0.00069107
0.000691068
0.000691063
0.000691061
0.000691055
0.00069105
0.000691044
0.000691035
0.000691029
0.00069102
0.000691014
0.000691005
0.000690998
0.000690989
0.000690979
0.000690973
0.000690963
0.000690953
0.000690943
0.000690933
0.000690923
0.000690913
0.000690903
0.000690896
0.000690893
0.00069089
0.000690887
0.000690888
0.000690888
0.000690892
0.000690896
0.0006909
0.000690903
0.000690907
0.000690911
0.000690915
0.000690919
0.000690923
0.000690927
0.00069093
0.000690934
0.000690938
0.000690942
0.000690946
0.000690949
0.00069095
0.000690953
0.000690957
0.000690958
0.000690958
0.000690962
0.000690962
0.000690962
0.000690966
0.000690966
0.000690967
0.000690967
0.000690967
0.000690968
0.000690968
0.000690968
0.000690968
0.000690968
0.000690965
0.000690965
0.000690965
0.000690965
0.000690962
0.000690962
0.000690962
0.000690962
0.000690959
0.000690959
0.000690959
0.000690955
0.000690955
0.000690955
0.000690951
0.000690951
0.000690951
0.000690947
0.000690947
0.000690947
0.000690946
0.000690943
0.000690942
0.000690942
0.000690938
0.000690938
0.000690938
0.000690937
0.000690933
0.000690933
0.000690932
0.000690932
0.000690928
0.000690927
0.000690927
0.000690923
0.000690922
0.000690918
0.000690917
0.000690913
0.000690906
0.000690901
0.000690893
0.000690886
0.000690878
0.000690866
0.000690854
0.000690843
0.000690831
0.000690816
0.0006908
0.000690795
0.000690742
0.000660666
0.000660715
0.000660728
0.000660729
0.00066073
0.000660728
0.000660726
0.000660721
0.000660719
0.000660714
0.000660709
0.000660703
0.000660698
0.000660689
0.000660684
0.000660678
0.000660669
0.000660664
0.000660655
0.000660649
0.00066064
0.000660631
0.000660622
0.000660616
0.000660606
0.000660597
0.000660588
0.000660582
0.000660576
0.00066057
0.000660567
0.000660567
0.000660565
0.000660565
0.000660566
0.000660566
0.00066057
0.000660573
0.000660574
0.000660577
0.000660581
0.000660581
0.000660585
0.000660588
0.000660592
0.000660592
0.000660596
0.0006606
0.0006606
0.000660604
0.000660604
0.000660608
0.000660608
0.000660609
0.000660612
0.000660613
0.000660613
0.000660614
0.000660617
0.000660617
0.000660618
0.000660618
0.000660619
0.000660619
0.000660619
0.00066062
0.000660617
0.000660617
0.000660617
0.000660617
0.000660618
0.000660615
0.000660615
0.000660615
0.000660615
0.000660612
0.000660612
0.000660612
0.000660609
0.000660609
0.000660609
0.000660609
0.000660606
0.000660606
0.000660606
0.000660605
0.000660602
0.000660602
0.000660602
0.000660601
0.000660598
0.000660598
0.000660597
0.000660597
0.000660597
0.000660593
0.000660593
0.000660593
0.000660592
0.000660589
0.000660588
0.000660588
0.000660584
0.000660583
0.000660583
0.000660579
0.000660575
0.000660571
0.000660567
0.000660563
0.000660556
0.000660549
0.000660541
0.000660534
0.000660523
0.000660515
0.000660504
0.00066049
0.000660485
0.00066044
0.000631721
0.000631765
0.000631777
0.000631777
0.000631778
0.000631779
0.000631777
0.000631775
0.000631773
0.000631768
0.000631766
0.000631761
0.000631756
0.000631751
0.000631745
0.00063174
0.000631735
0.000631727
0.000631721
0.000631716
0.000631708
0.000631699
0.000631694
0.000631685
0.000631677
0.000631671
0.000631662
0.000631657
0.000631648
0.000631643
0.00063164
0.000631638
0.000631635
0.000631633
0.000631633
0.000631631
0.000631631
0.000631634
0.000631635
0.000631635
0.000631636
0.000631639
0.00063164
0.000631643
0.000631644
0.000631647
0.000631648
0.000631651
0.000631652
0.000631652
0.000631656
0.000631656
0.000631657
0.00063166
0.000631661
0.000631662
0.000631662
0.000631663
0.000631666
0.000631667
0.000631667
0.000631668
0.000631668
0.000631668
0.000631666
0.000631667
0.000631667
0.000631667
0.000631668
0.000631668
0.000631665
0.000631666
0.000631666
0.000631666
0.000631666
0.000631664
0.000631664
0.000631664
0.000631664
0.000631661
0.000631661
0.000631661
0.000631661
0.000631659
0.000631659
0.000631658
0.000631658
0.000631658
0.000631655
0.000631655
0.000631655
0.000631655
0.000631655
0.000631651
0.000631651
0.000631651
0.000631651
0.00063165
0.000631647
0.000631647
0.000631646
0.000631646
0.000631643
0.000631642
0.000631641
0.000631638
0.000631637
0.000631634
0.00063163
0.000631626
0.000631623
0.000631616
0.000631612
0.000631605
0.000631598
0.000631588
0.000631581
0.00063157
0.000631566
0.000631528
0.000604089
0.000604128
0.000604136
0.000604139
0.000604142
0.00060414
0.000604141
0.000604139
0.000604136
0.000604134
0.000604132
0.000604127
0.000604123
0.00060412
0.000604115
0.00060411
0.000604106
0.0006041
0.000604095
0.00060409
0.000604083
0.000604078
0.000604072
0.000604065
0.000604059
0.000604051
0.000604044
0.000604038
0.000604033
0.000604028
0.000604023
0.000604018
0.000604015
0.000604013
0.000604011
0.000604009
0.000604009
0.00060401
0.000604008
0.000604008
0.000604009
0.000604012
0.000604012
0.000604013
0.000604014
0.000604014
0.000604018
0.000604018
0.000604019
0.00060402
0.000604023
0.000604024
0.000604024
0.000604025
0.000604026
0.000604027
0.00060403
0.00060403
0.000604031
0.000604032
0.000604032
0.000604033
0.000604034
0.000604034
0.000604032
0.000604033
0.000604033
0.000604034
0.000604034
0.000604035
0.000604032
0.000604033
0.000604033
0.000604033
0.000604034
0.000604031
0.000604032
0.000604032
0.000604032
0.000604032
0.00060403
0.00060403
0.00060403
0.00060403
0.00060403
0.000604028
0.000604028
0.000604028
0.000604027
0.000604027
0.000604027
0.000604027
0.000604024
0.000604024
0.000604024
0.000604024
0.000604023
0.000604023
0.00060402
0.00060402
0.00060402
0.000604019
0.000604016
0.000604016
0.000604015
0.000604012
0.000604012
0.000604008
0.000604008
0.000604004
0.000604001
0.000603997
0.000603991
0.000603987
0.000603981
0.000603974
0.000603967
0.00060396
0.000603956
0.000603924
0.00057769
0.000577724
0.000577733
0.000577735
0.000577738
0.000577738
0.000577738
0.000577739
0.000577736
0.000577734
0.000577732
0.00057773
0.000577725
0.000577723
0.000577718
0.000577714
0.000577711
0.000577707
0.000577702
0.000577697
0.000577692
0.000577688
0.000577683
0.000577676
0.000577671
0.000577666
0.000577658
0.000577653
0.000577649
0.000577644
0.000577639
0.000577634
0.00057763
0.000577628
0.000577625
0.000577623
0.000577621
0.00057762
0.00057762
0.000577618
0.000577619
0.000577619
0.00057762
0.000577621
0.000577622
0.000577622
0.000577623
0.000577624
0.000577625
0.000577626
0.000577626
0.000577627
0.000577628
0.000577631
0.000577632
0.000577633
0.000577633
0.000577634
0.000577635
0.000577636
0.000577637
0.000577637
0.000577636
0.000577636
0.000577637
0.000577638
0.000577638
0.000577639
0.000577639
0.000577638
0.000577638
0.000577639
0.000577639
0.000577639
0.000577638
0.000577638
0.000577638
0.000577639
0.000577639
0.000577637
0.000577637
0.000577637
0.000577637
0.000577637
0.000577638
0.000577638
0.000577635
0.000577635
0.000577635
0.000577635
0.000577635
0.000577635
0.000577635
0.000577635
0.000577635
0.000577632
0.000577632
0.000577632
0.000577632
0.000577631
0.000577629
0.000577628
0.000577628
0.000577628
0.000577625
0.000577624
0.000577624
0.000577621
0.00057762
0.000577617
0.000577614
0.000577611
0.000577607
0.000577604
0.0005776
0.000577594
0.00057759
0.000577581
0.00057758
0.00057755
0.000552455
0.000552483
0.000552491
0.000552493
0.000552495
0.000552495
0.000552497
0.000552497
0.000552495
0.000552495
0.000552493
0.000552491
0.000552488
0.000552484
0.000552482
0.000552479
0.000552475
0.000552473
0.000552468
0.000552466
0.000552461
0.000552457
0.000552452
0.000552448
0.000552441
0.000552436
0.000552432
0.000552427
0.000552423
0.000552418
0.000552414
0.000552409
0.000552405
0.000552401
0.000552399
0.000552397
0.000552395
0.000552393
0.000552392
0.000552392
0.000552391
0.000552391
0.00055239
0.000552391
0.000552391
0.000552392
0.000552393
0.000552394
0.000552393
0.000552394
0.000552395
0.000552395
0.000552396
0.000552397
0.000552398
0.000552399
0.0005524
0.000552401
0.000552402
0.000552403
0.000552403
0.000552404
0.000552405
0.000552406
0.000552405
0.000552405
0.000552406
0.000552407
0.000552407
0.000552408
0.000552406
0.000552407
0.000552407
0.000552408
0.000552408
0.000552409
0.000552407
0.000552408
0.000552408
0.000552408
0.000552409
0.000552409
0.000552407
0.000552407
0.000552407
0.000552408
0.000552408
0.000552408
0.000552408
0.000552408
0.000552408
0.000552408
0.000552408
0.000552406
0.000552406
0.000552405
0.000552405
0.000552405
0.000552405
0.000552405
0.000552402
0.000552402
0.000552402
0.000552401
0.000552399
0.000552398
0.000552398
0.000552395
0.000552394
0.000552392
0.000552391
0.000552388
0.000552385
0.000552381
0.000552378
0.000552374
0.000552369
0.000552365
0.000552363
0.000552338
0.00052831
0.000528333
0.00052834
0.000528342
0.000528344
0.000528345
0.000528347
0.000528346
0.000528346
0.000528346
0.000528344
0.000528341
0.000528339
0.000528337
0.000528335
0.000528332
0.00052833
0.000528328
0.000528325
0.000528321
0.000528319
0.000528315
0.00052831
0.000528306
0.000528302
0.000528298
0.000528293
0.000528289
0.000528285
0.00052828
0.000528276
0.000528272
0.000528268
0.000528266
0.000528262
0.00052826
0.000528259
0.000528257
0.000528256
0.000528254
0.000528253
0.000528254
0.000528252
0.000528253
0.000528252
0.000528253
0.000528254
0.000528255
0.000528256
0.000528255
0.000528256
0.000528257
0.000528258
0.000528259
0.00052826
0.000528261
0.000528262
0.000528261
0.000528262
0.000528263
0.000528264
0.000528265
0.000528265
0.000528266
0.000528265
0.000528266
0.000528267
0.000528268
0.000528268
0.000528269
0.000528268
0.000528268
0.000528269
0.00052827
0.00052827
0.000528271
0.000528269
0.00052827
0.00052827
0.000528271
0.000528271
0.000528271
0.000528272
0.000528272
0.00052827
0.00052827
0.000528271
0.000528271
0.000528271
0.000528271
0.000528271
0.000528271
0.000528271
0.000528271
0.000528271
0.000528271
0.000528271
0.000528271
0.000528269
0.000528268
0.000528268
0.000528268
0.000528268
0.000528265
0.000528265
0.000528265
0.000528262
0.000528262
0.000528261
0.000528259
0.000528258
0.000528255
0.000528254
0.000528251
0.000528248
0.000528245
0.000528241
0.000528236
0.000528234
0.000528213
0.00050519
0.000505208
0.000505214
0.000505217
0.000505218
0.00050522
0.000505221
0.00050522
0.000505222
0.000505221
0.000505219
0.000505218
0.000505216
0.000505214
0.000505213
0.000505211
0.000505209
0.000505207
0.000505204
0.000505202
0.000505198
0.000505196
0.000505192
0.00050519
0.000505186
0.000505182
0.000505178
0.000505175
0.000505171
0.000505167
0.000505163
0.00050516
0.000505156
0.000505152
0.00050515
0.000505147
0.000505145
0.000505144
0.000505143
0.000505141
0.00050514
0.000505141
0.00050514
0.000505139
0.00050514
0.000505141
0.00050514
0.000505141
0.000505142
0.000505141
0.000505142
0.000505143
0.000505144
0.000505145
0.000505145
0.000505146
0.000505147
0.000505148
0.000505149
0.00050515
0.000505149
0.00050515
0.000505151
0.000505152
0.000505153
0.000505152
0.000505153
0.000505154
0.000505154
0.000505155
0.000505156
0.000505155
0.000505156
0.000505156
0.000505157
0.000505158
0.000505158
0.000505159
0.000505157
0.000505158
0.000505158
0.000505159
0.000505159
0.000505159
0.00050516
0.00050516
0.00050516
0.00050516
0.000505161
0.000505161
0.000505161
0.000505161
0.000505161
0.000505161
0.000505161
0.000505159
0.000505159
0.000505159
0.000505159
0.000505159
0.000505159
0.000505158
0.000505156
0.000505156
0.000505156
0.000505155
0.000505153
0.000505153
0.000505152
0.000505152
0.000505149
0.000505148
0.000505146
0.000505143
0.00050514
0.000505139
0.000505135
0.00050513
0.000505129
0.000505112
0.000483032
0.000483046
0.00048305
0.000483052
0.000483055
0.000483056
0.000483057
0.000483057
0.000483057
0.000483058
0.000483055
0.000483055
0.000483054
0.000483052
0.000483051
0.000483049
0.000483048
0.000483046
0.000483044
0.000483042
0.00048304
0.000483037
0.000483034
0.000483032
0.00048303
0.000483026
0.000483022
0.00048302
0.000483016
0.000483012
0.000483009