/*--------------------------------*- C++ -*----------------------------------*\
  =========                 |
  \\      /  F ield         | OpenFOAM: The Open Source CFD Toolbox
   \\    /   O peration     | Website:  https://openfoam.org
    \\  /    A nd           | Version:  7
     \\/     M anipulation  |
\*---------------------------------------------------------------------------*/
FoamFile
{
    version     2.0;
    format      ascii;
    class       surfaceScalarField;
    location    "15500";
    object      phi;
}
// * * * * * * * * * * * * * * * * * * * * * * * * * * * * * * * * * * * * * //

dimensions      [0 3 -1 0 0 0 0];

internalField   nonuniform List<scalar> 
7768
(
0.000338881
-5.91379e-10
0.000338881
-7.73353e-10
0.000338882
-6.66394e-10
0.000338882
-5.02364e-10
0.000338882
-3.54395e-10
0.000338882
-2.3238e-10
0.000338882
-1.32989e-10
0.000338883
-5.1395e-11
0.000338883
1.82298e-11
0.000338883
7.86497e-11
0.000338883
1.30989e-10
0.000338883
1.77056e-10
0.000338883
2.19485e-10
0.000338884
2.58207e-10
0.000338884
2.92902e-10
0.000338884
3.2561e-10
0.000338884
3.60805e-10
0.000338884
3.95265e-10
0.000338884
4.48014e-10
0.000338884
5.12538e-10
6.79942e-10
0.000338877
-5.01189e-10
0.000338877
-5.64901e-10
0.000338878
-5.78366e-10
0.000338878
-5.72394e-10
0.000338878
-5.5666e-10
0.000338879
-5.29842e-10
0.000338879
-4.92906e-10
0.000338879
-4.43764e-10
0.000338879
-3.78252e-10
0.00033888
-2.93189e-10
0.00033888
-1.876e-10
0.00033888
-4.65819e-11
0.00033888
1.29045e-10
0.000338881
3.66278e-10
0.000338881
7.50172e-10
3.01829e-10
0.000330273
-8.05727e-10
0.000330273
-9.72211e-10
0.000330273
-8.57543e-10
0.000330274
-6.93171e-10
0.000330274
-5.46789e-10
0.000330274
-4.2615e-10
0.000330274
-3.27177e-10
0.000330274
-2.43724e-10
0.000330274
-1.71064e-10
0.000330275
-1.06885e-10
0.000330275
-5.02506e-11
0.000330275
-2.8211e-13
0.000330275
4.70919e-11
0.000330275
9.12272e-11
0.000330276
1.31473e-10
0.000330276
1.6991e-10
0.000330276
2.11273e-10
0.000330276
2.52251e-10
0.000330276
3.17181e-10
0.000330276
3.94815e-10
0.000330276
6.12124e-10
0.000330276
8.60745e-10
1.02859e-09
0.000330268
-6.15187e-10
0.000330268
-6.4179e-10
0.000330268
-6.05337e-10
0.000330269
-7.21593e-10
0.000330269
-8.99664e-10
0.000330269
-9.24428e-10
0.00033027
-9.02761e-10
0.00033027
-8.71931e-10
0.00033027
-8.36288e-10
0.00033027
-7.93482e-10
0.000330271
-7.43632e-10
0.000330271
-6.82931e-10
0.000330271
-6.08745e-10
0.000330271
-5.17287e-10
0.000330272
-4.07919e-10
0.000330272
-2.64543e-10
0.000330272
-8.9314e-11
0.000330272
1.4169e-10
0.000330272
5.23188e-10
7.80459e-11
0.000321847
-1.00541e-09
0.000321848
-1.16709e-09
0.000321848
-1.04687e-09
0.000321848
-8.80087e-10
0.000321848
-7.3382e-10
0.000321848
-6.1461e-10
0.000321848
-5.15445e-10
0.000321849
-4.30166e-10
0.000321849
-3.5518e-10
0.000321849
-2.87628e-10
0.000321849
-2.27177e-10
0.000321849
-1.72674e-10
0.00032185
-1.20505e-10
0.00032185
-7.13718e-11
0.00032185
-2.58569e-11
0.00032185
1.80807e-11
0.00032185
6.4436e-11
0.00032185
1.11428e-10
0.00032185
1.83486e-10
0.000321851
2.73251e-10
0.000321851
4.40367e-10
0.000321851
6.93529e-10
0.000321851
1.01389e-09
0.000321851
1.2475e-09
0.00032185
1.25728e-09
0.00032185
1.19272e-09
0.00032185
1.13003e-09
0.00032185
1.0798e-09
0.00032185
1.0396e-09
0.000321849
1.00635e-09
0.000321849
9.76127e-10
0.000321849
9.47725e-10
0.000321849
9.23241e-10
0.000321849
9.00564e-10
0.000321849
8.78822e-10
0.000321848
8.59536e-10
0.000321848
8.41745e-10
0.000321848
8.25969e-10
0.000321848
8.11576e-10
0.000321848
7.97891e-10
0.000321848
7.84955e-10
0.000321848
7.73365e-10
0.000321847
7.63253e-10
0.000321847
7.53481e-10
0.000321847
7.43079e-10
0.000321847
7.31516e-10
0.000321847
7.2091e-10
0.000321847
7.08612e-10
0.000321847
6.94507e-10
0.000321847
6.7906e-10
0.000321847
6.60382e-10
0.000321847
6.4084e-10
0.000321846
6.19877e-10
0.000321846
5.96004e-10
0.000321846
5.70215e-10
0.000321846
5.43265e-10
0.000321846
5.13746e-10
0.000321846
4.82983e-10
0.000321846
4.51081e-10
0.000321846
4.18248e-10
0.000321846
3.83172e-10
0.000321846
3.47024e-10
0.000321846
3.11388e-10
0.000321846
2.74697e-10
0.000321845
2.38347e-10
0.000321845
2.01157e-10
0.000321845
1.64841e-10
0.000321845
1.27421e-10
0.000321845
8.76608e-11
0.000321845
4.992e-11
0.000321845
1.42415e-11
0.000321845
-2.27796e-11
0.000321845
-6.17231e-11
0.000321845
-9.9763e-11
0.000321845
-1.35446e-10
0.000321845
-1.70212e-10
0.000321845
-2.06111e-10
0.000321845
-2.41261e-10
0.000321844
-2.74695e-10
0.000321844
-3.07909e-10
0.000321844
-3.40708e-10
0.000321844
-3.72842e-10
0.000321844
-4.06637e-10
0.000321844
-4.40605e-10
0.000321844
-4.70988e-10
0.000321844
-4.97797e-10
0.000321844
-5.23275e-10
0.000321844
-5.47982e-10
0.000321844
-5.71297e-10
0.000321844
-5.9318e-10
0.000321844
-6.11121e-10
0.000321843
-6.25835e-10
0.000321843
-6.38108e-10
0.000321843
-6.45271e-10
0.000321843
-6.46155e-10
0.000321843
-6.39806e-10
0.000321843
-6.2445e-10
0.000321843
-5.95936e-10
0.000321843
-5.42417e-10
0.000321843
-6.44973e-10
0.000321843
-8.08619e-10
0.000321844
-8.22437e-10
0.000321844
-7.78635e-10
0.000321844
-8.94059e-10
0.000321844
-1.08797e-09
0.000321844
-1.13796e-09
0.000321844
-1.126e-09
0.000321845
-1.0952e-09
0.000321845
-1.05613e-09
0.000321845
-1.00829e-09
0.000321845
-9.52986e-10
0.000321846
-8.85981e-10
0.000321846
-8.07759e-10
0.000321846
-7.13678e-10
0.000321846
-6.02251e-10
0.000321846
-4.59748e-10
0.000321847
-2.88081e-10
0.000321847
-6.58214e-11
0.000321847
3.096e-10
-1.29003e-10
0.000313601
-1.17899e-09
0.000313601
-1.34512e-09
0.000313601
-1.22692e-09
0.000313601
-1.05974e-09
0.000313601
-9.13328e-10
0.000313602
-7.94006e-10
0.000313602
-6.94346e-10
0.000313602
-6.07737e-10
0.000313602
-5.30356e-10
0.000313602
-4.60153e-10
0.000313602
-3.96594e-10
0.000313603
-3.37192e-10
0.000313603
-2.81041e-10
0.000313603
-2.27538e-10
0.000313603
-1.77285e-10
0.000313603
-1.28272e-10
0.000313603
-7.71174e-11
0.000313604
-2.46721e-11
0.000313604
5.0225e-11
0.000313604
1.49195e-10
0.000313604
2.6259e-10
0.000313604
4.64367e-10
0.000313604
7.77167e-10
0.000313605
1.08692e-09
0.000313605
1.26337e-09
0.000313604
1.29862e-09
0.000313604
1.27121e-09
0.000313604
1.22896e-09
0.000313604
1.18861e-09
0.000313604
1.15134e-09
0.000313604
1.11763e-09
0.000313604
1.08677e-09
0.000313603
1.05852e-09
0.000313603
1.03214e-09
0.000313603
1.00823e-09
0.000313603
9.85462e-10
0.000313603
9.64014e-10
0.000313603
9.44606e-10
0.000313603
9.27025e-10
0.000313603
9.1061e-10
0.000313603
8.9452e-10
0.000313602
8.80491e-10
0.000313602
8.67933e-10
0.000313602
8.55403e-10
0.000313602
8.427e-10
0.000313602
8.29137e-10
0.000313602
8.15393e-10
0.000313602
8.00554e-10
0.000313602
7.84988e-10
0.000313602
7.67216e-10
0.000313602
7.47349e-10
0.000313601
7.27581e-10
0.000313601
7.04368e-10
0.000313601
6.78803e-10
0.000313601
6.51975e-10
0.000313601
6.23119e-10
0.000313601
5.93259e-10
0.000313601
5.6155e-10
0.000313601
5.29176e-10
0.000313601
4.96051e-10
0.000313601
4.59278e-10
0.000313601
4.23332e-10
0.000313601
3.87814e-10
0.000313601
3.50117e-10
0.0003136
3.14086e-10
0.0003136
2.76554e-10
0.0003136
2.39032e-10
0.0003136
2.01231e-10
0.0003136
1.62119e-10
0.0003136
1.24473e-10
0.0003136
8.70534e-11
0.0003136
4.92641e-11
0.0003136
1.17604e-11
0.0003136
-2.56264e-11
0.0003136
-6.19404e-11
0.0003136
-9.6649e-11
0.0003136
-1.31449e-10
0.000313599
-1.66262e-10
0.000313599
-2.00465e-10
0.000313599
-2.335e-10
0.000313599
-2.66153e-10
0.000313599
-2.98536e-10
0.000313599
-3.32387e-10
0.000313599
-3.6522e-10
0.000313599
-3.95185e-10
0.000313599
-4.22841e-10
0.000313599
-4.4857e-10
0.000313599
-4.73214e-10
0.000313599
-4.95944e-10
0.000313599
-5.168e-10
0.000313599
-5.34792e-10
0.000313598
-5.50601e-10
0.000313598
-5.6358e-10
0.000313598
-5.71187e-10
0.000313598
-5.73779e-10
0.000313598
-5.69127e-10
0.000313598
-5.55877e-10
0.000313598
-5.38487e-10
0.000313598
-5.01829e-10
0.000313598
-6.22213e-10
0.000313598
-8.19846e-10
0.000313598
-8.75587e-10
0.000313598
-8.6413e-10
0.000313598
-9.72522e-10
0.000313598
-1.15277e-09
0.000313598
-1.22538e-09
0.000313598
-1.23949e-09
0.000313599
-1.22617e-09
0.000313599
-1.19893e-09
0.000313599
-1.15706e-09
0.000313599
-1.10421e-09
0.000313599
-1.03924e-09
0.000313599
-9.62936e-10
0.000313599
-8.70828e-10
0.0003136
-7.61282e-10
0.0003136
-6.23072e-10
0.0003136
-4.57844e-10
0.0003136
-2.47846e-10
0.0003136
1.18e-10
-3.11496e-10
0.000305529
-1.32159e-09
0.000305529
-1.49764e-09
0.00030553
-1.38906e-09
0.00030553
-1.22625e-09
0.00030553
-1.08102e-09
0.00030553
-9.60872e-10
0.00030553
-8.61142e-10
0.00030553
-7.73864e-10
0.000305531
-6.94058e-10
0.000305531
-6.22278e-10
0.000305531
-5.56282e-10
0.000305531
-4.92992e-10
0.000305531
-4.32769e-10
0.000305531
-3.75319e-10
0.000305532
-3.20662e-10
0.000305532
-2.66992e-10
0.000305532
-2.11481e-10
0.000305532
-1.54075e-10
0.000305532
-7.87441e-11
0.000305532
2.58039e-11
0.000305532
1.03525e-10
0.000305533
2.44153e-10
0.000305533
4.89349e-10
0.000305533
7.87573e-10
0.000305533
1.06963e-09
0.000305533
1.22368e-09
0.000305533
1.2745e-09
0.000305533
1.27341e-09
0.000305533
1.25511e-09
0.000305533
1.22931e-09
0.000305533
1.20174e-09
0.000305533
1.17601e-09
0.000305533
1.15118e-09
0.000305533
1.12597e-09
0.000305533
1.10268e-09
0.000305533
1.0802e-09
0.000305533
1.05864e-09
0.000305532
1.03844e-09
0.000305532
1.01902e-09
0.000305532
1.00142e-09
0.000305532
9.85318e-10
0.000305532
9.70489e-10
0.000305532
9.56242e-10
0.000305532
9.41414e-10
0.000305532
9.27594e-10
0.000305532
9.13872e-10
0.000305532
8.97527e-10
0.000305532
8.80742e-10
0.000305532
8.64061e-10
0.000305531
8.45621e-10
0.000305531
8.26111e-10
0.000305531
8.0493e-10
0.000305531
7.7983e-10
0.000305531
7.54106e-10
0.000305531
7.26955e-10
0.000305531
6.97176e-10
0.000305531
6.66939e-10
0.000305531
6.34374e-10
0.000305531
6.022e-10
0.000305531
5.68835e-10
0.000305531
5.31863e-10
0.000305531
4.96435e-10
0.000305531
4.60757e-10
0.00030553
4.22891e-10
0.00030553
3.86358e-10
0.00030553
3.48444e-10
0.00030553
3.10594e-10
0.00030553
2.73672e-10
0.00030553
2.35281e-10
0.00030553
1.96969e-10
0.00030553
1.58953e-10
0.00030553
1.20827e-10
0.00030553
8.37761e-11
0.00030553
4.78897e-11
0.00030553
1.18639e-11
0.00030553
-2.32841e-11
0.000305529
-5.77494e-11
0.000305529
-9.23533e-11
0.000305529
-1.26609e-10
0.000305529
-1.58954e-10
0.000305529
-1.91496e-10
0.000305529
-2.24515e-10
0.000305529
-2.5788e-10
0.000305529
-2.88829e-10
0.000305529
-3.18224e-10
0.000305529
-3.46985e-10
0.000305529
-3.73104e-10
0.000305529
-3.98366e-10
0.000305529
-4.2031e-10
0.000305529
-4.40257e-10
0.000305528
-4.58784e-10
0.000305528
-4.74728e-10
0.000305528
-4.87879e-10
0.000305528
-4.95442e-10
0.000305528
-4.99102e-10
0.000305528
-4.97291e-10
0.000305528
-4.88284e-10
0.000305528
-4.78836e-10
0.000305528
-4.55862e-10
0.000305528
-5.66174e-10
0.000305528
-7.5276e-10
0.000305528
-8.36019e-10
0.000305528
-8.6506e-10
0.000305528
-9.76906e-10
0.000305528
-1.14078e-09
0.000305528
-1.22308e-09
0.000305528
-1.26008e-09
0.000305528
-1.26984e-09
0.000305528
-1.26176e-09
0.000305528
-1.23401e-09
0.000305528
-1.19141e-09
0.000305528
-1.13637e-09
0.000305528
-1.06741e-09
0.000305528
-9.81217e-10
0.000305528
-8.78587e-10
0.000305529
-7.48294e-10
0.000305529
-5.91787e-10
0.000305529
-3.96823e-10
0.000305529
-4.58382e-11
-4.65822e-10
0.000297629
-1.43165e-09
0.00029763
-1.61966e-09
0.00029763
-1.52611e-09
0.00029763
-1.37344e-09
0.00029763
-1.23272e-09
0.00029763
-1.1132e-09
0.00029763
-1.01329e-09
0.00029763
-9.26276e-10
0.000297631
-8.45672e-10
0.000297631
-7.72582e-10
0.000297631
-7.04506e-10
0.000297631
-6.3793e-10
0.000297631
-5.73798e-10
0.000297631
-5.1294e-10
0.000297631
-4.53959e-10
0.000297632
-3.9609e-10
0.000297632
-3.37035e-10
0.000297632
-2.75162e-10
0.000297632
-2.00461e-10
0.000297632
-9.39317e-11
0.000297632
-3.58807e-11
0.000297632
5.45701e-11
0.000297633
2.24405e-10
0.000297633
4.64174e-10
0.000297633
7.75422e-10
0.000297634
1.0143e-09
0.000297634
1.14911e-09
0.000297634
1.20914e-09
0.000297634
1.23054e-09
0.000297634
1.23161e-09
0.000297634
1.2216e-09
0.000297634
1.20819e-09
0.000297634
1.19306e-09
0.000297634
1.17485e-09
0.000297634
1.15634e-09
0.000297633
1.13755e-09
0.000297633
1.11941e-09
0.000297633
1.1027e-09
0.000297633
1.08399e-09
0.000297633
1.06713e-09
0.000297633
1.05278e-09
0.000297633
1.03835e-09
0.000297633
1.02448e-09
0.000297633
1.00929e-09
0.000297633
9.94477e-10
0.000297633
9.80898e-10
0.000297633
9.64872e-10
0.000297633
9.47199e-10
0.000297633
9.29691e-10
0.000297633
9.12405e-10
0.000297633
8.93593e-10
0.000297632
8.70846e-10
0.000297632
8.45825e-10
0.000297632
8.20249e-10
0.000297632
7.93186e-10
0.000297632
7.63224e-10
0.000297632
7.32971e-10
0.000297632
7.01021e-10
0.000297632
6.68355e-10
0.000297632
6.34471e-10
0.000297632
5.98779e-10
0.000297632
5.64394e-10
0.000297632
5.28157e-10
0.000297632
4.91094e-10
0.000297632
4.54708e-10
0.000297631
4.16473e-10
0.000297631
3.78949e-10
0.000297631
3.42882e-10
0.000297631
3.0536e-10
0.000297631
2.66782e-10
0.000297631
2.29314e-10
0.000297631
1.9147e-10
0.000297631
1.54288e-10
0.000297631
1.19163e-10
0.000297631
8.36086e-11
0.000297631
4.92113e-11
0.000297631
1.48943e-11
0.000297631
-1.97257e-11
0.000297631
-5.35949e-11
0.000297631
-8.61149e-11
0.00029763
-1.18824e-10
0.00029763
-1.51538e-10
0.00029763
-1.83245e-10
0.00029763
-2.12848e-10
0.00029763
-2.42268e-10
0.00029763
-2.71212e-10
0.00029763
-2.97344e-10
0.00029763
-3.22086e-10
0.00029763
-3.44145e-10
0.00029763
-3.65211e-10
0.00029763
-3.83762e-10
0.00029763
-3.98536e-10
0.00029763
-4.11256e-10
0.000297629
-4.19769e-10
0.000297629
-4.24218e-10
0.000297629
-4.24969e-10
0.000297629
-4.20443e-10
0.000297629
-4.16977e-10
0.000297629
-4.05181e-10
0.000297629
-5.01082e-10
0.000297629
-6.6078e-10
0.000297629
-7.49767e-10
0.000297629
-8.06564e-10
0.000297629
-9.24671e-10
0.000297629
-1.07705e-09
0.000297629
-1.16112e-09
0.000297629
-1.2123e-09
0.000297629
-1.24281e-09
0.000297629
-1.25383e-09
0.000297629
-1.2442e-09
0.000297629
-1.21763e-09
0.000297629
-1.17646e-09
0.000297629
-1.11866e-09
0.000297629
-1.04286e-09
0.000297629
-9.49956e-10
0.000297629
-8.31e-10
0.000297629
-6.88106e-10
0.000297629
-5.10264e-10
0.000297629
-1.77907e-10
-5.89219e-10
0.000289898
-1.50913e-09
0.000289898
-1.70963e-09
0.000289898
-1.63491e-09
0.000289898
-1.49734e-09
0.000289898
-1.3654e-09
0.000289898
-1.24924e-09
0.000289899
-1.14988e-09
0.000289899
-1.06335e-09
0.000289899
-9.83551e-10
0.000289899
-9.09558e-10
0.000289899
-8.39657e-10
0.000289899
-7.70123e-10
0.000289899
-7.02543e-10
0.0002899
-6.39139e-10
0.0002899
-5.77068e-10
0.0002899
-5.15671e-10
0.0002899
-4.52325e-10
0.0002899
-3.86298e-10
0.0002899
-3.12988e-10
0.0002899
-2.08014e-10
0.0002899
-1.5858e-10
0.0002899
-1.02121e-10
0.000289901
4.80704e-12
0.000289901
1.73973e-10
0.000289901
4.60886e-10
0.000289902
7.35498e-10
0.000289902
9.32906e-10
0.000289902
1.05347e-09
0.000289902
1.122e-09
0.000289902
1.15913e-09
0.000289902
1.17651e-09
0.000289902
1.18263e-09
0.000289902
1.18228e-09
0.000289902
1.17586e-09
0.000289902
1.16726e-09
0.000289902
1.15662e-09
0.000289902
1.14362e-09
0.000289902
1.13291e-09
0.000289902
1.1195e-09
0.000289902
1.10547e-09
0.000289902
1.09336e-09
0.000289902
1.08141e-09
0.000289902
1.07008e-09
0.000289902
1.05629e-09
0.000289902
1.04194e-09
0.000289902
1.02933e-09
0.000289902
1.01469e-09
0.000289902
9.98214e-10
0.000289902
9.82079e-10
0.000289902
9.65217e-10
0.000289902
9.47035e-10
0.000289901
9.24801e-10
0.000289901
9.00933e-10
0.000289901
8.75821e-10
0.000289901
8.49162e-10
0.000289901
8.19385e-10
0.000289901
7.89683e-10
0.000289901
7.60137e-10
0.000289901
7.273e-10
0.000289901
6.92702e-10
0.000289901
6.5895e-10
0.000289901
6.25775e-10
0.000289901
5.89398e-10
0.000289901
5.53219e-10
0.000289901
5.17289e-10
0.000289901
4.80279e-10
0.000289901
4.43789e-10
0.000289901
4.07289e-10
0.0002899
3.70956e-10
0.0002899
3.33389e-10
0.0002899
2.96089e-10
0.0002899
2.59069e-10
0.0002899
2.22969e-10
0.0002899
1.88278e-10
0.0002899
1.53018e-10
0.0002899
1.19027e-10
0.0002899
8.46111e-11
0.0002899
5.13749e-11
0.0002899
1.83667e-11
0.0002899
-1.5573e-11
0.0002899
-4.862e-11
0.0002899
-7.9923e-11
0.000289899
-1.09784e-10
0.000289899
-1.38646e-10
0.000289899
-1.67718e-10
0.000289899
-1.96044e-10
0.000289899
-2.21701e-10
0.000289899
-2.46108e-10
0.000289899
-2.6954e-10
0.000289899
-2.90582e-10
0.000289899
-3.08143e-10
0.000289899
-3.23394e-10
0.000289899
-3.35347e-10
0.000289899
-3.44733e-10
0.000289899
-3.50942e-10
0.000289899
-3.52498e-10
0.000289898
-3.51317e-10
0.000289898
-3.5328e-10
0.000289898
-3.51113e-10
0.000289898
-4.34235e-10
0.000289898
-5.65932e-10
0.000289898
-6.48332e-10
0.000289898
-7.16369e-10
0.000289898
-8.36565e-10
0.000289898
-9.79443e-10
0.000289898
-1.06171e-09
0.000289898
-1.11955e-09
0.000289898
-1.16396e-09
0.000289897
-1.19093e-09
0.000289897
-1.19938e-09
0.000289897
-1.18973e-09
0.000289897
-1.16345e-09
0.000289897
-1.11917e-09
0.000289897
-1.05753e-09
0.000289897
-9.77696e-10
0.000289897
-8.71659e-10
0.000289898
-7.45431e-10
0.000289898
-5.88379e-10
0.000289898
-2.76925e-10
-6.80134e-10
0.000282331
-1.55584e-09
0.000282331
-1.77029e-09
0.000282331
-1.71598e-09
0.000282331
-1.59579e-09
0.000282331
-1.47572e-09
0.000282331
-1.36642e-09
0.000282331
-1.26994e-09
0.000282332
-1.18496e-09
0.000282332
-1.10668e-09
0.000282332
-1.03195e-09
0.000282332
-9.60505e-10
0.000282332
-8.89665e-10
0.000282332
-8.19072e-10
0.000282332
-7.52877e-10
0.000282332
-6.88729e-10
0.000282333
-6.24451e-10
0.000282333
-5.57245e-10
0.000282333
-4.87665e-10
0.000282333
-4.15011e-10
0.000282333
-3.14126e-10
0.000282333
-2.67773e-10
0.000282333
-2.30814e-10
0.000282333
-1.69316e-10
0.000282334
-6.29466e-11
0.000282334
1.73329e-10
0.000282334
4.42561e-10
0.000282334
6.70811e-10
0.000282335
8.36688e-10
0.000282335
9.49838e-10
0.000282335
1.02468e-09
0.000282335
1.0729e-09
0.000282335
1.10291e-09
0.000282335
1.12238e-09
0.000282335
1.13145e-09
0.000282335
1.13546e-09
0.000282335
1.13675e-09
0.000282335
1.13251e-09
0.000282335
1.12912e-09
0.000282335
1.1236e-09
0.000282335
1.11504e-09
0.000282335
1.10723e-09
0.000282335
1.09993e-09
0.000282335
1.09152e-09
0.000282335
1.08033e-09
0.000282335
1.06927e-09
0.000282335
1.05875e-09
0.000282335
1.04647e-09
0.000282335
1.03313e-09
0.000282335
1.01887e-09
0.000282335
1.0028e-09
0.000282335
9.85463e-10
0.000282335
9.65904e-10
0.000282335
9.4436e-10
0.000282335
9.19453e-10
0.000282335
8.93522e-10
0.000282335
8.65795e-10
0.000282335
8.37457e-10
0.000282335
8.09565e-10
0.000282335
7.77098e-10
0.000282335
7.43147e-10
0.000282335
7.11612e-10
0.000282334
6.79214e-10
0.000282334
6.44358e-10
0.000282334
6.09552e-10
0.000282334
5.73939e-10
0.000282334
5.38626e-10
0.000282334
5.03474e-10
0.000282334
4.6627e-10
0.000282334
4.30895e-10
0.000282334
3.95277e-10
0.000282334
3.58885e-10
0.000282334
3.23617e-10
0.000282334
2.88384e-10
0.000282334
2.53565e-10
0.000282334
2.19816e-10
0.000282334
1.85785e-10
0.000282334
1.51015e-10
0.000282333
1.19785e-10
0.000282333
8.76569e-11
0.000282333
5.33474e-11
0.000282333
2.0485e-11
0.000282333
-9.45205e-12
0.000282333
-3.88116e-11
0.000282333
-6.78325e-11
0.000282333
-9.47349e-11
0.000282333
-1.21711e-10
0.000282333
-1.47916e-10
0.000282333
-1.72194e-10
0.000282333
-1.95764e-10
0.000282333
-2.16321e-10
0.000282333
-2.33369e-10
0.000282332
-2.49849e-10
0.000282332
-2.61438e-10
0.000282332
-2.70553e-10
0.000282332
-2.78182e-10
0.000282332
-2.81323e-10
0.000282332
-2.82928e-10
0.000282332
-2.88205e-10
0.000282332
-2.93592e-10
0.000282332
-3.67277e-10
0.000282332
-4.76109e-10
0.000282332
-5.476e-10
0.000282332
-6.15105e-10
0.000282332
-7.30644e-10
0.000282331
-8.62653e-10
0.000282331
-9.41902e-10
0.000282331
-1.0007e-09
0.000282331
-1.05178e-09
0.000282331
-1.09023e-09
0.000282331
-1.11258e-09
0.000282331
-1.11799e-09
0.000282331
-1.10662e-09
0.000282331
-1.07722e-09
0.000282331
-1.03001e-09
0.000282331
-9.65338e-10
0.000282331
-8.74503e-10
0.000282331
-7.65224e-10
0.000282331
-6.31164e-10
0.000282331
-3.43485e-10
-7.39549e-10
0.000274925
-1.5739e-09
0.000274925
-1.80374e-09
0.000274926
-1.77028e-09
0.000274926
-1.66904e-09
0.000274926
-1.56303e-09
0.000274926
-1.46331e-09
0.000274926
-1.3731e-09
0.000274926
-1.29143e-09
0.000274926
-1.21446e-09
0.000274926
-1.13992e-09
0.000274926
-1.06733e-09
0.000274926
-9.9582e-10
0.000274927
-9.23687e-10
0.000274927
-8.54622e-10
0.000274927
-7.881e-10
0.000274927
-7.21303e-10
0.000274927
-6.51699e-10
0.000274927
-5.79456e-10
0.000274927
-5.06861e-10
0.000274927
-4.09922e-10
0.000274927
-3.63914e-10
0.000274927
-3.37612e-10
0.000274928
-3.04777e-10
0.000274928
-2.46759e-10
0.000274928
-6.80237e-11
0.000274928
1.70728e-10
0.000274929
4.02018e-10
0.000274929
5.92017e-10
0.000274929
7.38731e-10
0.000274929
8.4644e-10
0.000274929
9.23194e-10
0.000274929
9.78804e-10
0.00027493
1.02016e-09
0.00027493
1.04678e-09
0.00027493
1.06515e-09
0.00027493
1.08032e-09
0.00027493
1.0887e-09
0.00027493
1.09356e-09
0.00027493
1.0971e-09
0.00027493
1.09699e-09
0.00027493
1.09537e-09
0.00027493
1.09335e-09
0.00027493
1.08905e-09
0.00027493
1.08327e-09
0.00027493
1.07679e-09
0.00027493
1.06891e-09
0.00027493
1.06025e-09
0.00027493
1.05056e-09
0.00027493
1.03959e-09
0.00027493
1.026e-09
0.00027493
1.00961e-09
0.00027493
9.92404e-10
0.00027493
9.74208e-10
0.00027493
9.51311e-10
0.00027493
9.26753e-10
0.00027493
9.01856e-10
0.00027493
8.7539e-10
0.00027493
8.48536e-10
0.000274929
8.17612e-10
0.000274929
7.85965e-10
0.000274929
7.56272e-10
0.000274929
7.249e-10
0.000274929
6.91877e-10
0.000274929
6.58895e-10
0.000274929
6.24665e-10
0.000274929
5.90514e-10
0.000274929
5.56546e-10
0.000274929
5.20842e-10
0.000274929
4.85649e-10
0.000274929
4.51374e-10
0.000274929
4.17555e-10
0.000274929
3.83974e-10
0.000274929
3.4895e-10
0.000274929
3.14653e-10
0.000274929
2.82828e-10
0.000274929
2.49106e-10
0.000274929
2.15399e-10
0.000274928
1.84605e-10
0.000274928
1.52621e-10
0.000274928
1.19985e-10
0.000274928
8.82098e-11
0.000274928
5.86068e-11
0.000274928
2.95512e-11
0.000274928
9.15215e-13
0.000274928
-2.40993e-11
0.000274928
-4.96913e-11
0.000274928
-7.66563e-11
0.000274928
-1.00391e-10
0.000274928
-1.23084e-10
0.000274928
-1.44016e-10
0.000274928
-1.61018e-10
0.000274927
-1.76924e-10
0.000274927
-1.89205e-10
0.000274927
-1.9868e-10
0.000274927
-2.06301e-10
0.000274927
-2.11523e-10
0.000274927
-2.15543e-10
0.000274927
-2.23493e-10
0.000274927
-2.343e-10
0.000274927
-3.00658e-10
0.000274927
-3.92726e-10
0.000274927
-4.53752e-10
0.000274927
-5.14563e-10
0.000274927
-6.19446e-10
0.000274926
-7.38974e-10
0.000274926
-8.13715e-10
0.000274926
-8.7075e-10
0.000274926
-9.22513e-10
0.000274926
-9.66537e-10
0.000274926
-9.97704e-10
0.000274926
-1.01482e-09
0.000274926
-1.01643e-09
0.000274926
-1.00125e-09
0.000274925
-9.67967e-10
0.000274925
-9.18543e-10
0.000274925
-8.44279e-10
0.000274925
-7.52167e-10
0.000274925
-6.41276e-10
0.000274925
-3.80096e-10
-7.70765e-10
0.000267678
-1.56645e-09
0.000267678
-1.8116e-09
0.000267678
-1.80045e-09
0.000267678
-1.71941e-09
0.000267678
-1.62896e-09
0.000267678
-1.54095e-09
0.000267679
-1.45862e-09
0.000267679
-1.38172e-09
0.000267679
-1.30737e-09
0.000267679
-1.23412e-09
0.000267679
-1.16063e-09
0.000267679
-1.08804e-09
0.000267679
-1.01549e-09
0.000267679
-9.44585e-10
0.000267679
-8.75823e-10
0.000267679
-8.06878e-10
0.000267679
-7.3607e-10
0.00026768
-6.61944e-10
0.00026768
-5.88775e-10
0.00026768
-4.949e-10
0.00026768
-4.47619e-10
0.00026768
-4.267e-10
0.00026768
-4.10399e-10
0.00026768
-3.85794e-10
0.00026768
-2.59324e-10
0.000267681
-6.25225e-11
0.000267681
1.52529e-10
0.000267681
3.47649e-10
0.000267681
5.12308e-10
0.000267681
6.43626e-10
0.000267682
7.44709e-10
0.000267682
8.23691e-10
0.000267682
8.84508e-10
0.000267682
9.29123e-10
0.000267682
9.63916e-10
0.000267682
9.93503e-10
0.000267682
1.0147e-09
0.000267682
1.02981e-09
0.000267682
1.04437e-09
0.000267682
1.05378e-09
0.000267683
1.05925e-09
0.000267683
1.06282e-09
0.000267683
1.06486e-09
0.000267683
1.06654e-09
0.000267683
1.06533e-09
0.000267683
1.06125e-09
0.000267683
1.05648e-09
0.000267683
1.05087e-09
0.000267683
1.04449e-09
0.000267683
1.03453e-09
0.000267683
1.0201e-09
0.000267683
1.00573e-09
0.000267683
9.90692e-10
0.000267683
9.70776e-10
0.000267683
9.49392e-10
0.000267682
9.27282e-10
0.000267682
9.02737e-10
0.000267682
8.77607e-10
0.000267682
8.49469e-10
0.000267682
8.20461e-10
0.000267682
7.92105e-10
0.000267682
7.63179e-10
0.000267682
7.32566e-10
0.000267682
7.00188e-10
0.000267682
6.68264e-10
0.000267682
6.36286e-10
0.000267682
6.03199e-10
0.000267682
5.69853e-10
0.000267682
5.35128e-10
0.000267682
5.02074e-10
0.000267682
4.71311e-10
0.000267682
4.38885e-10
0.000267682
4.04509e-10
0.000267682
3.71742e-10
0.000267682
3.40996e-10
0.000267682
3.08471e-10
0.000267682
2.76531e-10
0.000267681
2.45824e-10
0.000267681
2.14502e-10
0.000267681
1.83215e-10
0.000267681
1.53132e-10
0.000267681
1.2393e-10
0.000267681
9.51323e-11
0.000267681
6.76934e-11
0.000267681
4.3269e-11
0.000267681
1.86754e-11
0.000267681
-7.00192e-12
0.000267681
-3.0613e-11
0.000267681
-5.29854e-11
0.000267681
-7.4e-11
0.000267681
-9.10994e-11
0.000267681
-1.05923e-10
0.00026768
-1.18943e-10
0.00026768
-1.29049e-10
0.00026768
-1.36707e-10
0.00026768
-1.43551e-10
0.00026768
-1.49023e-10
0.00026768
-1.59225e-10
0.00026768
-1.74466e-10
0.00026768
-2.35308e-10
0.00026768
-3.15267e-10
0.00026768
-3.67569e-10
0.00026768
-4.20194e-10
0.00026768
-5.11904e-10
0.000267679
-6.17381e-10
0.000267679
-6.85997e-10
0.000267679
-7.39449e-10
0.000267679
-7.87224e-10
0.000267679
-8.31438e-10
0.000267679
-8.67652e-10
0.000267679
-8.92324e-10
0.000267679
-9.036e-10
0.000267679
-9.00399e-10
0.000267678
-8.79976e-10
0.000267678
-8.44473e-10
0.000267678
-7.86031e-10
0.000267678
-7.12092e-10
0.000267678
-6.24421e-10
0.000267678
-3.91235e-10
-7.77869e-10
0.000260586
-1.53866e-09
0.000260586
-1.79743e-09
0.000260586
-1.80968e-09
0.000260586
-1.74935e-09
0.000260586
-1.67543e-09
0.000260586
-1.60098e-09
0.000260586
-1.52755e-09
0.000260586
-1.45675e-09
0.000260586
-1.38635e-09
0.000260587
-1.31387e-09
0.000260587
-1.24065e-09
0.000260587
-1.16847e-09
0.000260587
-1.09562e-09
0.000260587
-1.02319e-09
0.000260587
-9.52394e-10
0.000260587
-8.81821e-10
0.000260587
-8.09719e-10
0.000260587
-7.34135e-10
0.000260587
-6.60838e-10
0.000260587
-5.7026e-10
0.000260587
-5.21517e-10
0.000260587
-5.01434e-10
0.000260588
-4.93385e-10
0.000260588
-4.89914e-10
0.000260588
-4.04088e-10
0.000260588
-2.50162e-10
0.000260588
-6.36301e-11
0.000260588
1.22549e-10
0.000260589
2.91155e-10
0.000260589
4.34942e-10
0.000260589
5.53097e-10
0.000260589
6.49735e-10
0.000260589
7.27269e-10
0.00026059
7.88573e-10
0.00026059
8.39822e-10
0.00026059
8.82299e-10
0.00026059
9.15847e-10
0.00026059
9.43607e-10
0.00026059
9.68871e-10
0.00026059
9.88011e-10
0.00026059
1.00208e-09
0.00026059
1.01238e-09
0.00026059
1.02193e-09
0.00026059
1.03075e-09
0.00026059
1.0357e-09
0.00026059
1.03757e-09
0.00026059
1.03721e-09
0.00026059
1.03608e-09
0.00026059
1.03427e-09
0.00026059
1.02871e-09
0.00026059
1.01778e-09
0.00026059
1.00734e-09
0.00026059
9.95434e-10
0.00026059
9.78969e-10
0.00026059
9.61244e-10
0.00026059
9.41876e-10
0.00026059
9.20329e-10
0.00026059
8.97512e-10
0.00026059
8.72154e-10
0.00026059
8.45968e-10
0.00026059
8.19593e-10
0.00026059
7.93655e-10
0.00026059
7.65791e-10
0.00026059
7.34776e-10
0.00026059
7.05607e-10
0.00026059
6.75211e-10
0.00026059
6.43429e-10
0.00026059
6.12573e-10
0.00026059
5.79236e-10
0.00026059
5.47682e-10
0.00026059
5.19607e-10
0.00026059
4.88445e-10
0.00026059
4.55113e-10
0.00026059
4.23803e-10
0.00026059
3.94426e-10
0.00026059
3.64072e-10
0.00026059
3.33409e-10
0.000260589
3.03174e-10
0.000260589
2.73398e-10
0.000260589
2.43137e-10
0.000260589
2.14157e-10
0.000260589
1.86402e-10
0.000260589
1.57726e-10
0.000260589
1.31355e-10
0.000260589
1.07448e-10
0.000260589
8.36099e-11
0.000260589
5.98888e-11
0.000260589
3.68823e-11
0.000260589
1.44928e-11
0.000260589
-6.46404e-12
0.000260589
-2.36993e-11
0.000260589
-3.78696e-11
0.000260588
-5.10146e-11
0.000260588
-6.16893e-11
0.000260588
-6.92148e-11
0.000260588
-7.77064e-11
0.000260588
-8.45559e-11
0.000260588
-9.69441e-11
0.000260588
-1.15181e-10
0.000260588
-1.70959e-10
0.000260588
-2.42935e-10
0.000260588
-2.88539e-10
0.000260588
-3.33334e-10
0.000260588
-4.11937e-10
0.000260588
-5.03373e-10
0.000260587
-5.64824e-10
0.000260587
-6.12033e-10
0.000260587
-6.54152e-10
0.000260587
-6.95171e-10
0.000260587
-7.31714e-10
0.000260587
-7.60388e-10
0.000260587
-7.7857e-10
0.000260587
-7.84146e-10
0.000260586
-7.738e-10
0.000260586
-7.507e-10
0.000260586
-7.07049e-10
0.000260586
-6.51017e-10
0.000260586
-5.86075e-10
0.000260586
-3.81245e-10
-7.656e-10
0.000253646
-1.49477e-09
0.000253646
-1.76581e-09
0.000253646
-1.80163e-09
0.000253646
-1.76255e-09
0.000253646
-1.7058e-09
0.000253646
-1.64562e-09
0.000253646
-1.58253e-09
0.000253646
-1.51773e-09
0.000253646
-1.45111e-09
0.000253646
-1.3809e-09
0.000253647
-1.30953e-09
0.000253647
-1.23832e-09
0.000253647
-1.16497e-09
0.000253647
-1.09086e-09
0.000253647
-1.01827e-09
0.000253647
-9.46871e-10
0.000253647
-8.73167e-10
0.000253647
-7.9641e-10
0.000253647
-7.23361e-10
0.000253647
-6.36055e-10
0.000253647
-5.86505e-10
0.000253647
-5.64487e-10
0.000253647
-5.58987e-10
0.000253647
-5.67567e-10
0.000253647
-5.10568e-10
0.000253648
-3.93977e-10
0.000253648
-2.40267e-10
0.000253648
-7.31082e-11
0.000253648
8.87652e-11
0.000253648
2.34691e-10
0.000253649
3.60961e-10
0.000253649
4.69412e-10
0.000253649
5.60573e-10
0.000253649
6.35886e-10
0.000253649
7.00577e-10
0.000253649
7.54438e-10
0.000253649
8.00064e-10
0.00025365
8.3994e-10
0.00025365
8.74822e-10
0.00025365
9.03789e-10
0.00025365
9.27503e-10
0.00025365
9.46211e-10
0.00025365
9.63453e-10
0.00025365
9.78986e-10
0.00025365
9.90564e-10
0.00025365
9.99077e-10
0.00025365
1.00439e-09
0.00025365
1.00822e-09
0.00025365
1.01098e-09
0.00025365
1.01038e-09
0.00025365
1.00404e-09
0.00025365
9.97545e-10
0.00025365
9.89847e-10
0.00025365
9.77373e-10
0.00025365
9.62242e-10
0.00025365
9.46652e-10
0.00025365
9.29359e-10
0.00025365