/*--------------------------------*- C++ -*----------------------------------*\
  =========                 |
  \\      /  F ield         | OpenFOAM: The Open Source CFD Toolbox
   \\    /   O peration     | Website:  https://openfoam.org
    \\  /    A nd           | Version:  7
     \\/     M anipulation  |
\*---------------------------------------------------------------------------*/
FoamFile
{
    version     2.0;
    format      ascii;
    class       volVectorField;
    location    "15500";
    object      U;
}
// * * * * * * * * * * * * * * * * * * * * * * * * * * * * * * * * * * * * * //

dimensions      [0 1 -1 0 0 0 0];

internalField   nonuniform List<vector> 
3963
(
(0.139978 -4.81186e-08 2.65343e-14)
(0.139978 -6.752e-08 2.6497e-14)
(0.139978 -5.69905e-08 2.6455e-14)
(0.139978 -4.04734e-08 2.64517e-14)
(0.139979 -2.55742e-08 2.64351e-14)
(0.139979 -1.33112e-08 2.64398e-14)
(0.139979 -3.37836e-09 2.64875e-14)
(0.139979 4.69207e-09 2.6462e-14)
(0.139979 1.15084e-08 2.64063e-14)
(0.139979 1.73468e-08 2.63708e-14)
(0.139979 2.23541e-08 2.64022e-14)
(0.139979 2.67507e-08 2.63445e-14)
(0.139979 3.07461e-08 2.63363e-14)
(0.139979 3.43397e-08 2.63071e-14)
(0.139979 3.75295e-08 2.63064e-14)
(0.139979 4.05102e-08 2.63427e-14)
(0.139979 4.36954e-08 2.63244e-14)
(0.139979 4.68093e-08 2.63284e-14)
(0.13998 5.13028e-08 2.63023e-14)
(0.13998 5.68315e-08 2.63025e-14)
(0.13998 6.46204e-08 2.63158e-14)
(0.139976 -2.49003e-08 2.64806e-14)
(0.139977 -3.31137e-08 2.66496e-14)
(0.139977 -3.84579e-08 2.65019e-14)
(0.139977 -4.02996e-08 2.6485e-14)
(0.139977 -4.02505e-08 2.65949e-14)
(0.139977 -3.86608e-08 2.64755e-14)
(0.139977 -3.57828e-08 2.66483e-14)
(0.139977 -3.15508e-08 2.67146e-14)
(0.139977 -2.55323e-08 2.66692e-14)
(0.139978 -1.74183e-08 2.6731e-14)
(0.139978 -7.12682e-09 2.65712e-14)
(0.139978 6.81616e-09 2.67145e-14)
(0.139978 2.43563e-08 2.67548e-14)
(0.139978 4.83227e-08 2.67056e-14)
(0.139978 8.6647e-08 2.6743e-14)
(0.139978 4.18619e-08 2.65786e-14)
(0.139633 -6.98562e-08 2.62512e-14)
(0.139633 -8.72409e-08 2.62426e-14)
(0.139633 -7.61167e-08 2.62357e-14)
(0.139633 -5.97308e-08 2.62232e-14)
(0.139633 -4.50316e-08 2.62434e-14)
(0.139633 -3.29073e-08 2.62275e-14)
(0.139633 -2.29991e-08 2.61991e-14)
(0.139633 -1.47415e-08 2.6181e-14)
(0.139633 -7.61558e-09 2.61209e-14)
(0.139633 -1.37266e-09 2.60771e-14)
(0.139633 4.08112e-09 2.61016e-14)
(0.139634 8.85851e-09 2.60613e-14)
(0.139634 1.33514e-08 2.60749e-14)
(0.139634 1.74965e-08 2.60519e-14)
(0.139634 2.12484e-08 2.60613e-14)
(0.139634 2.4808e-08 2.61189e-14)
(0.139634 2.86523e-08 2.6093e-14)
(0.139634 3.24368e-08 2.61109e-14)
(0.139634 3.84075e-08 2.60743e-14)
(0.139634 4.57493e-08 2.60798e-14)
(0.139634 6.50529e-08 2.61749e-14)
(0.139634 8.44326e-08 2.62368e-14)
(0.139634 8.96351e-08 2.62158e-14)
(0.13963 -4.71299e-08 2.63695e-14)
(0.139631 -5.01199e-08 2.62414e-14)
(0.139631 -4.89375e-08 2.6215e-14)
(0.139631 -5.5001e-08 2.63383e-14)
(0.139631 -6.9567e-08 2.62118e-14)
(0.139631 -7.63934e-08 2.6344e-14)
(0.139631 -7.57547e-08 2.62099e-14)
(0.139631 -7.34244e-08 2.61936e-14)
(0.139631 -7.05405e-08 2.63266e-14)
(0.139632 -6.68761e-08 2.62014e-14)
(0.139632 -6.24203e-08 2.63407e-14)
(0.139632 -5.68329e-08 2.64392e-14)
(0.139632 -4.97809e-08 2.63888e-14)
(0.139632 -4.08921e-08 2.64688e-14)
(0.139632 -3.01196e-08 2.62918e-14)
(0.139632 -1.58468e-08 2.63956e-14)
(0.139632 1.76462e-09 2.64788e-14)
(0.139632 2.52416e-08 2.6423e-14)
(0.139632 6.36035e-08 2.64797e-14)
(0.139633 1.90062e-08 2.63067e-14)
(0.139272 -9.09255e-08 2.59601e-14)
(0.139272 -1.07156e-07 2.59835e-14)
(0.139273 -9.52989e-08 2.60114e-14)
(0.139273 -7.87017e-08 2.59879e-14)
(0.139273 -6.40809e-08 2.60563e-14)
(0.139273 -5.21192e-08 2.59873e-14)
(0.139273 -4.21819e-08 2.58986e-14)
(0.139273 -3.37451e-08 2.58867e-14)
(0.139273 -2.63903e-08 2.58361e-14)
(0.139273 -1.97988e-08 2.57175e-14)
(0.139273 -1.39344e-08 2.57902e-14)
(0.139273 -8.67649e-09 2.57535e-14)
(0.139273 -3.69714e-09 2.58031e-14)
(0.139273 9.73597e-10 2.57848e-14)
(0.139273 5.26323e-09 2.58157e-14)
(0.139274 9.38413e-09 2.5888e-14)
(0.139274 1.3758e-08 2.5854e-14)
(0.139274 1.8158e-08 2.58773e-14)
(0.139274 2.51445e-08 2.58345e-14)
(0.139274 3.35664e-08 2.58872e-14)
(0.139274 5.4715e-08 2.60656e-14)
(0.139274 8.18153e-08 2.60758e-14)
(0.139274 1.05795e-07 2.60438e-14)
(0.139274 1.19895e-07 2.61884e-14)
(0.139274 1.15598e-07 2.61006e-14)
(0.139274 1.08349e-07 2.63253e-14)
(0.139274 1.02428e-07 2.64019e-14)
(0.139273 9.79711e-08 2.63173e-14)
(0.139273 9.44949e-08 2.63841e-14)
(0.139273 9.16481e-08 2.6307e-14)
(0.139273 8.90838e-08 2.6447e-14)
(0.139273 8.66274e-08 2.65522e-14)
(0.139273 8.44899e-08 2.64448e-14)
(0.139273 8.2502e-08 2.65122e-14)
(0.139273 8.06112e-08 2.64158e-14)
(0.139273 7.89286e-08 2.65039e-14)
(0.139273 7.73822e-08 2.6627e-14)
(0.139273 7.60238e-08 2.65099e-14)
(0.139273 7.47861e-08 2.65951e-14)
(0.139273 7.36027e-08 2.64785e-14)
(0.139273 7.24995e-08 2.63757e-14)
(0.139273 7.15072e-08 2.62633e-14)
(0.139272 7.065e-08 2.6211e-14)
(0.139272 6.98287e-08 2.62238e-14)
(0.139272 6.89336e-08 2.61616e-14)
(0.139272 6.7916e-08 2.61361e-14)
(0.139272 6.70084e-08 2.60875e-14)
(0.139272 6.59174e-08 2.60782e-14)
(0.139272 6.46233e-08 2.61198e-14)
(0.139272 6.32067e-08 2.60763e-14)
(0.139272 6.14229e-08 2.60601e-14)
(0.139272 5.95561e-08 2.60084e-14)
(0.139272 5.75635e-08 2.59991e-14)
(0.139272 5.5229e-08 2.59636e-14)
(0.139272 5.2715e-08 2.58063e-14)
(0.139272 5.01057e-08 2.58733e-14)
(0.139272 4.72585e-08 2.58663e-14)
(0.139272 4.42516e-08 2.58905e-14)
(0.139272 4.1042e-08 2.58839e-14)
(0.139272 3.77658e-08 2.57943e-14)
(0.139272 3.43393e-08 2.58353e-14)
(0.139272 3.08103e-08 2.58358e-14)
(0.139272 2.72493e-08 2.58601e-14)
(0.139272 2.35557e-08 2.58514e-14)
(0.139272 1.99724e-08 2.57176e-14)
(0.139272 1.62851e-08 2.58138e-14)
(0.139272 1.26436e-08 2.58322e-14)
(0.139271 8.92757e-09 2.58665e-14)
(0.139271 5.0186e-09 2.58656e-14)
(0.139271 1.24135e-09 2.57494e-14)
(0.139271 -2.34937e-09 2.57977e-14)
(0.139271 -6.01334e-09 2.58257e-14)
(0.139271 -9.86703e-09 2.58576e-14)
(0.139271 -1.36739e-08 2.58511e-14)
(0.139271 -1.72776e-08 2.57056e-14)
(0.139271 -2.07735e-08 2.57947e-14)
(0.139271 -2.43459e-08 2.58124e-14)
(0.139271 -2.78705e-08 2.58459e-14)
(0.139271 -3.12466e-08 2.58427e-14)
(0.139271 -3.45784e-08 2.57019e-14)
(0.139271 -3.7865e-08 2.58778e-14)
(0.139271 -4.10649e-08 2.57663e-14)
(0.139271 -4.44253e-08 2.58378e-14)
(0.139271 -4.77741e-08 2.59492e-14)
(0.139271 -5.08147e-08 2.58025e-14)
(0.139271 -5.35401e-08 2.59554e-14)
(0.139271 -5.6092e-08 2.58008e-14)
(0.139271 -5.85786e-08 2.59197e-14)
(0.139271 -6.09347e-08 2.60263e-14)
(0.139271 -6.31427e-08 2.59146e-14)
(0.139271 -6.49344e-08 2.60214e-14)
(0.139271 -6.63621e-08 2.59537e-14)
(0.139271 -6.75477e-08 2.59743e-14)
(0.139271 -6.82288e-08 2.60523e-14)
(0.139271 -6.8307e-08 2.58941e-14)
(0.139271 -6.75817e-08 2.60327e-14)
(0.139271 -6.58829e-08 2.58854e-14)
(0.139271 -6.23994e-08 2.59361e-14)
(0.139271 -5.61597e-08 2.60312e-14)
(0.139271 -5.88661e-08 2.59197e-14)
(0.139271 -7.06084e-08 2.60166e-14)
(0.139271 -7.50832e-08 2.5922e-14)
(0.139271 -7.08665e-08 2.5929e-14)
(0.139271 -8.37033e-08 2.60142e-14)
(0.139271 -1.03652e-07 2.58543e-14)
(0.139271 -1.06525e-07 2.59923e-14)
(0.139271 -1.03901e-07 2.58903e-14)
(0.139271 -1.00278e-07 2.59033e-14)
(0.139271 -9.61867e-08 2.59982e-14)
(0.139271 -9.1385e-08 2.58492e-14)
(0.139271 -8.59442e-08 2.59849e-14)
(0.139272 -7.93947e-08 2.60795e-14)
(0.139272 -7.16476e-08 2.60806e-14)
(0.139272 -6.22807e-08 2.61278e-14)
(0.139272 -5.11079e-08 2.5929e-14)
(0.139272 -3.67682e-08 2.60326e-14)
(0.139272 -1.93995e-08 2.61157e-14)
(0.139272 3.35776e-09 2.61081e-14)
(0.139272 4.13471e-08 2.61353e-14)
(0.139272 -2.88432e-09 2.59806e-14)
(0.138897 -1.09808e-07 2.56775e-14)
(0.138897 -1.26019e-07 2.57302e-14)
(0.138897 -1.13931e-07 2.57899e-14)
(0.138897 -9.71652e-08 2.57398e-14)
(0.138897 -8.25171e-08 2.57879e-14)
(0.138897 -7.05682e-08 2.57104e-14)
(0.138898 -6.06763e-08 2.5565e-14)
(0.138898 -5.20724e-08 2.55914e-14)
(0.138898 -4.44041e-08 2.55177e-14)
(0.138898 -3.74969e-08 2.54211e-14)
(0.138898 -3.12796e-08 2.54953e-14)
(0.138898 -2.56037e-08 2.54526e-14)
(0.138898 -2.02061e-08 2.55449e-14)
(0.138898 -1.50655e-08 2.54597e-14)
(0.138898 -1.02704e-08 2.55817e-14)
(0.138898 -5.61572e-09 2.56816e-14)
(0.138898 -6.85032e-10 2.56029e-14)
(0.138898 4.30022e-09 2.56623e-14)
(0.138898 1.16789e-08 2.55731e-14)
(0.138898 2.11797e-08 2.56313e-14)
(0.138898 3.56349e-08 2.59017e-14)
(0.138899 5.92808e-08 2.59048e-14)
(0.138899 9.366e-08 2.58516e-14)
(0.138899 1.22864e-07 2.60497e-14)
(0.138899 1.31331e-07 2.5913e-14)
(0.138899 1.28594e-07 2.60959e-14)
(0.138899 1.23e-07 2.63094e-14)
(0.138899 1.1758e-07 2.6156e-14)
(0.138899 1.13094e-07 2.62808e-14)
(0.138899 1.09248e-07 2.61353e-14)
(0.138898 1.05809e-07 2.63345e-14)
(0.138898 1.02709e-07 2.6477e-14)
(0.138898 9.99332e-08 2.63009e-14)
(0.138898 9.73554e-08 2.63772e-14)
(0.138898 9.50072e-08 2.62355e-14)
(0.138898 9.28551e-08 2.64287e-14)
(0.138898 9.08074e-08 2.65193e-14)
(0.138898 8.89698e-08 2.63832e-14)
(0.138898 8.73392e-08 2.65095e-14)
(0.138898 8.58025e-08 2.63097e-14)
(0.138898 8.43228e-08 2.62067e-14)
(0.138898 8.30069e-08 2.61253e-14)
(0.138898 8.18501e-08 2.6066e-14)
(0.138898 8.07215e-08 2.60008e-14)
(0.138898 7.95485e-08 2.59753e-14)
(0.138898 7.83003e-08 2.59619e-14)
(0.138898 7.7007e-08 2.59298e-14)
(0.138898 7.5638e-08 2.59082e-14)
(0.138898 7.42044e-08 2.58715e-14)
(0.138898 7.25005e-08 2.58641e-14)
(0.138897 7.05418e-08 2.58589e-14)
(0.138897 6.8508e-08 2.58256e-14)
(0.138897 6.62697e-08 2.58036e-14)
(0.138897 6.38685e-08 2.57788e-14)
(0.138897 6.12298e-08 2.56743e-14)
(0.138897 5.84077e-08 2.56782e-14)
(0.138897 5.53982e-08 2.5683e-14)
(0.138897 5.22622e-08 2.5696e-14)
(0.138897 4.90906e-08 2.56986e-14)
(0.138897 4.57951e-08 2.56239e-14)
(0.138897 4.22061e-08 2.56379e-14)
(0.138897 3.85561e-08 2.56525e-14)
(0.138897 3.4951e-08 2.56678e-14)
(0.138897 3.12511e-08 2.56695e-14)
(0.138897 2.76099e-08 2.55868e-14)
(0.138897 2.38707e-08 2.5621e-14)
(0.138897 2.02018e-08 2.56487e-14)
(0.138897 1.64692e-08 2.56726e-14)
(0.138897 1.24833e-08 2.56808e-14)
(0.138897 8.67234e-09 2.55697e-14)
(0.138897 5.02341e-09 2.56123e-14)
(0.138897 1.28249e-09 2.56439e-14)
(0.138897 -2.55017e-09 2.56631e-14)
(0.138897 -6.29865e-09 2.56663e-14)
(0.138897 -9.87807e-09 2.55762e-14)
(0.138897 -1.33867e-08 2.55962e-14)
(0.138897 -1.69488e-08 2.56263e-14)
(0.138897 -2.04496e-08 2.56508e-14)
(0.138897 -2.38046e-08 2.56589e-14)
(0.138896 -2.71183e-08 2.55687e-14)
(0.138896 -3.03926e-08 2.56337e-14)
(0.138896 -3.3614e-08 2.55945e-14)
(0.138896 -3.70065e-08 2.56148e-14)
(0.138896 -4.03562e-08 2.56777e-14)
(0.138896 -4.33841e-08 2.5619e-14)
(0.138896 -4.61113e-08 2.56717e-14)
(0.138896 -4.86627e-08 2.56396e-14)
(0.138896 -5.11642e-08 2.56735e-14)
(0.138896 -5.34688e-08 2.57323e-14)
(0.138896 -5.55454e-08 2.56701e-14)
(0.138896 -5.73347e-08 2.57185e-14)
(0.138896 -5.88911e-08 2.56991e-14)
(0.138896 -6.0164e-08 2.57075e-14)
(0.138896 -6.0907e-08 2.57468e-14)
(0.138896 -6.10559e-08 2.56769e-14)
(0.138896 -6.04682e-08 2.57249e-14)
(0.138896 -5.90765e-08 2.56695e-14)
(0.138896 -5.68525e-08 2.56733e-14)
(0.138896 -5.23404e-08 2.57284e-14)
(0.138896 -6.52129e-08 2.56671e-14)
(0.138896 -8.48753e-08 2.57093e-14)
(0.138896 -8.77182e-08 2.56617e-14)
(0.138896 -8.42008e-08 2.56657e-14)
(0.138896 -9.5739e-08 2.57093e-14)
(0.138896 -1.14951e-07 2.56446e-14)
(0.138896 -1.20858e-07 2.56837e-14)
(0.138896 -1.20719e-07 2.56277e-14)
(0.138896 -1.18209e-07 2.56392e-14)
(0.138896 -1.14618e-07 2.56915e-14)
(0.138896 -1.09879e-07 2.5634e-14)
(0.138896 -1.04241e-07 2.56788e-14)
(0.138896 -9.74873e-08 2.57405e-14)
(0.138896 -8.96126e-08 2.57629e-14)
(0.138897 -8.01888e-08 2.57943e-14)
(0.138897 -6.91051e-08 2.56962e-14)
(0.138897 -5.4933e-08 2.57169e-14)
(0.138897 -3.79583e-08 2.57684e-14)
(0.138897 -1.63087e-08 2.57797e-14)
(0.138897 2.08631e-08 2.57942e-14)
(0.138897 -2.2579e-08 2.57031e-14)
(0.138506 -1.25739e-07 2.53921e-14)
(0.138506 -1.42781e-07 2.54956e-14)
(0.138507 -1.31275e-07 2.56212e-14)
(0.138507 -1.14614e-07 2.54647e-14)
(0.138507 -9.99415e-08 2.55368e-14)
(0.138507 -8.79794e-08 2.54102e-14)
(0.138507 -7.79902e-08 2.52129e-14)
(0.138507 -6.92771e-08 2.53002e-14)
(0.138507 -6.14196e-08 2.51611e-14)
(0.138507 -5.43277e-08 2.5041e-14)
(0.138507 -4.78399e-08 2.521e-14)
(0.138507 -4.16926e-08 2.51959e-14)
(0.138507 -3.58267e-08 2.532e-14)
(0.138507 -3.02645e-08 2.53123e-14)
(0.138507 -2.50129e-08 2.53786e-14)
(0.138507 -1.98714e-08 2.54754e-14)
(0.138508 -1.4574e-08 2.53865e-14)
(0.138508 -9.07578e-09 2.54544e-14)
(0.138508 -1.47693e-09 2.54018e-14)
(0.138508 8.79117e-09 2.54368e-14)
(0.138508 1.79752e-08 2.5713e-14)
(0.138508 3.51706e-08 2.56766e-14)
(0.138508 6.4342e-08 2.56518e-14)
(0.138508 9.6392e-08 2.5774e-14)
(0.138508 1.20421e-07 2.56196e-14)
(0.138508 1.29915e-07 2.59258e-14)
(0.138508 1.30517e-07 2.60107e-14)
(0.138508 1.27753e-07 2.59358e-14)
(0.138508 1.24314e-07 2.59802e-14)
(0.138508 1.20806e-07 2.58376e-14)
(0.138508 1.1746e-07 2.61156e-14)
(0.138508 1.14387e-07 2.61994e-14)
(0.138508 1.11607e-07 2.6094e-14)
(0.138508 1.08918e-07 2.61337e-14)
(0.138508 1.06394e-07 2.6014e-14)
(0.138508 1.04035e-07 2.61946e-14)
(0.138508 1.01848e-07 2.63039e-14)
(0.138508 9.98091e-08 2.61887e-14)
(0.138508 9.78801e-08 2.62446e-14)
(0.138508 9.61373e-08 2.60909e-14)
(0.138508 9.44944e-08 2.60139e-14)
(0.138508 9.30124e-08 2.5964e-14)
(0.138508 9.16159e-08 2.59042e-14)
(0.138508 9.01953e-08 2.57804e-14)
(0.138508 8.88707e-08 2.57853e-14)
(0.138508 8.74601e-08 2.57791e-14)
(0.138508 8.59633e-08 2.57572e-14)
(0.138507 8.4362e-08 2.57291e-14)
(0.138507 8.26474e-08 2.56299e-14)
(0.138507 8.0841e-08 2.56518e-14)
(0.138507 7.88704e-08 2.56535e-14)
(0.138507 7.68542e-08 2.5633e-14)
(0.138507 7.44468e-08 2.56048e-14)
(0.138507 7.17936e-08 2.55859e-14)
(0.138507 6.90725e-08 2.54932e-14)
(0.138507 6.61684e-08 2.54928e-14)
(0.138507 6.31589e-08 2.55044e-14)
(0.138507 5.99033e-08 2.55049e-14)
(0.138507 5.66496e-08 2.55087e-14)
(0.138507 5.3329e-08 2.54371e-14)
(0.138507 4.96104e-08 2.54533e-14)
(0.138507 4.60225e-08 2.54752e-14)
(0.138507 4.25146e-08 2.5479e-14)
(0.138507 3.87284e-08 2.54831e-14)
(0.138507 3.50739e-08 2.54117e-14)
(0.138507 3.12962e-08 2.54412e-14)
(0.138507 2.75148e-08 2.54735e-14)
(0.138507 2.37424e-08 2.54842e-14)
(0.138507 1.98539e-08 2.5494e-14)
(0.138507 1.60823e-08 2.54114e-14)
(0.138507 1.23429e-08 2.54405e-14)
(0.138507 8.5347e-09 2.54722e-14)
(0.138507 4.76919e-09 2.54763e-14)
(0.138507 1.07905e-09 2.54791e-14)
(0.138507 -2.54819e-09 2.53964e-14)
(0.138507 -6.02402e-09 2.54166e-14)
(0.138507 -9.47895e-09 2.54505e-14)
(0.138506 -1.29484e-08 2.54627e-14)
(0.138506 -1.63805e-08 2.54731e-14)
(0.138506 -1.96233e-08 2.54028e-14)
(0.138506 -2.28763e-08 2.54106e-14)
(0.138506 -2.61752e-08 2.53944e-14)
(0.138506 -2.95583e-08 2.54015e-14)
(0.138506 -3.27811e-08 2.54231e-14)
(0.138506 -3.57477e-08 2.53895e-14)
(0.138506 -3.85464e-08 2.54126e-14)
(0.138506 -4.11414e-08 2.54132e-14)
(0.138506 -4.36165e-08 2.54311e-14)
(0.138506 -4.58171e-08 2.54499e-14)
(0.138506 -4.79062e-08 2.54152e-14)
(0.138506 -4.97579e-08 2.54384e-14)
(0.138506 -5.13208e-08 2.544e-14)
(0.138506 -5.26419e-08 2.54473e-14)
(0.138506 -5.3376e-08 2.54525e-14)
(0.138506 -5.3687e-08 2.54149e-14)
(0.138506 -5.3428e-08 2.54348e-14)
(0.138506 -5.22726e-08 2.54153e-14)
(0.138506 -5.09077e-08 2.54185e-14)
(0.138506 -4.79801e-08 2.54381e-14)
(0.138506 -6.03494e-08 2.54043e-14)
(0.138506 -8.04138e-08 2.54213e-14)
(0.138506 -8.73956e-08 2.54064e-14)
(0.138506 -8.82244e-08 2.54065e-14)
(0.138506 -9.91128e-08 2.54139e-14)
(0.138506 -1.16363e-07 2.53761e-14)
(0.138506 -1.24307e-07 2.53945e-14)
(0.138506 -1.26958e-07 2.5377e-14)
(0.138506 -1.26735e-07 2.538e-14)
(0.138506 -1.24835e-07 2.53964e-14)
(0.138506 -1.21216e-07 2.53703e-14)
(0.138506 -1.16315e-07 2.53897e-14)
(0.138506 -1.10158e-07 2.54176e-14)
(0.138506 -1.02769e-07 2.54441e-14)
(0.138506 -9.37196e-08 2.54633e-14)
(0.138506 -8.29815e-08 2.54135e-14)
(0.138506 -6.95075e-08 2.54151e-14)
(0.138506 -5.33302e-08 2.54337e-14)
(0.138506 -3.2959e-08 2.54474e-14)
(0.138506 2.9539e-09 2.54518e-14)
(0.138506 -3.95177e-08 2.54044e-14)
(0.1381 -1.38412e-07 2.51057e-14)
(0.1381 -1.56535e-07 2.51889e-14)
(0.1381 -1.46307e-07 2.52648e-14)
(0.1381 -1.30437e-07 2.52479e-14)
(0.1381 -1.16064e-07 2.51726e-14)
(0.1381 -1.04007e-07 2.51615e-14)
(0.1381 -9.40078e-08 2.49399e-14)
(0.138101 -8.5302e-08 2.50587e-14)
(0.138101 -7.72505e-08 2.49732e-14)
(0.138101 -6.99518e-08 2.48341e-14)
(0.138101 -6.32384e-08 2.49751e-14)
(0.138101 -5.67297e-08 2.50367e-14)
(0.138101 -5.05509e-08 2.51214e-14)
(0.138101 -4.46281e-08 2.51191e-14)
(0.138101 -3.89093e-08 2.52034e-14)
(0.138101 -3.33182e-08 2.52985e-14)
(0.138101 -2.7569e-08 2.52424e-14)
(0.138101 -2.15971e-08 2.52619e-14)
(0.138101 -1.41169e-08 2.52208e-14)
(0.138101 -3.4798e-09 2.52767e-14)
(0.138101 3.05826e-09 2.54843e-14)
(0.138101 1.43085e-08 2.55275e-14)
(0.138102 3.51382e-08 2.54506e-14)
(0.138102 6.27465e-08 2.55303e-14)
(0.138102 9.38663e-08 2.54986e-14)
(0.138102 1.14492e-07 2.56371e-14)
(0.138102 1.23937e-07 2.5747e-14)
(0.138102 1.26635e-07 2.56824e-14)
(0.138102 1.26457e-07 2.57333e-14)
(0.138102 1.24911e-07 2.57171e-14)
(0.138102 1.22776e-07 2.58733e-14)
(0.138102 1.20644e-07 2.59353e-14)
(0.138102 1.18448e-07 2.58439e-14)
(0.138102 1.16137e-07 2.58959e-14)
(0.138102 1.13996e-07 2.58497e-14)
(0.138102 1.11812e-07 2.59665e-14)
(0.138102 1.09727e-07 2.60454e-14)
(0.138102 1.07821e-07 2.59516e-14)
(0.138102 1.0583e-07 2.59994e-14)
(0.138102 1.0405e-07 2.59276e-14)
(0.138102 1.02469e-07 2.58304e-14)
(0.138102 1.00943e-07 2.57817e-14)
(0.138102 9.95311e-08 2.57209e-14)
(0.138102 9.80331e-08 2.56367e-14)
(0.138102 9.65149e-08 2.56136e-14)
(0.138102 9.51266e-08 2.55875e-14)
(0.138102 9.34871e-08 2.55726e-14)
(0.138102 9.1703e-08 2.55351e-14)
(0.138102 9.0027e-08 2.54707e-14)
(0.138102 8.82283e-08 2.54619e-14)
(0.138102 8.62638e-08 2.54441e-14)
(0.138102 8.40046e-08 2.54327e-14)
(0.138101 8.14782e-08 2.53977e-14)
(0.138101 7.89444e-08 2.53864e-14)
(0.138101 7.62304e-08 2.52787e-14)
(0.138101 7.31827e-08 2.53155e-14)
(0.138101 7.01445e-08 2.53314e-14)
(0.138101 6.69296e-08 2.53117e-14)
(0.138101 6.36662e-08 2.53157e-14)
(0.138101 6.0307e-08 2.52238e-14)
(0.138101 5.66686e-08 2.52832e-14)
(0.138101 5.31717e-08 2.5307e-14)
(0.138101 4.95111e-08 2.52897e-14)
(0.138101 4.57641e-08 2.52942e-14)
(0.138101 4.21563e-08 2.52045e-14)
(0.138101 3.83146e-08 2.5276e-14)
(0.138101 3.45225e-08 2.53087e-14)
(0.138101 3.09032e-08 2.52968e-14)
(0.138101 2.71104e-08 2.53066e-14)
(0.138101 2.32275e-08 2.52131e-14)
(0.138101 1.94137e-08 2.52827e-14)
(0.138101 1.55977e-08 2.53119e-14)
(0.138101 1.19047e-08 2.52911e-14)
(0.138101 8.36538e-09 2.52914e-14)
(0.138101 4.78192e-09 2.51918e-14)
(0.138101 1.31986e-09 2.52529e-14)
(0.138101 -2.10993e-09 2.52866e-14)
(0.138101 -5.60425e-09 2.52764e-14)
(0.138101 -9.02795e-09 2.52866e-14)
(0.138101 -1.2296e-08 2.52032e-14)
(0.138101 -1.55526e-08 2.51923e-14)
(0.138101 -1.88167e-08 2.51865e-14)
(0.138101 -2.20629e-08 2.51906e-14)
(0.1381 -2.50784e-08 2.51718e-14)
(0.1381 -2.80397e-08 2.51498e-14)
(0.1381 -3.09446e-08 2.5163e-14)
(0.1381 -3.35656e-08 2.5174e-14)
(0.1381 -3.60547e-08 2.51901e-14)
(0.1381 -3.82786e-08 2.51665e-14)
(0.1381 -4.03186e-08 2.51489e-14)
(0.1381 -4.21422e-08 2.51675e-14)
(0.1381 -4.36755e-08 2.51794e-14)
(0.1381 -4.49783e-08 2.51894e-14)
(0.1381 -4.58418e-08 2.51585e-14)
(0.1381 -4.62256e-08 2.51365e-14)
(0.1381 -4.61188e-08 2.51534e-14)
(0.1381 -4.54616e-08 2.51563e-14)
(0.1381 -4.49166e-08 2.51642e-14)
(0.1381 -4.32329e-08 2.51495e-14)
(0.1381 -5.35568e-08 2.513e-14)
(0.1381 -7.11386e-08 2.51409e-14)
(0.1381 -8.01568e-08 2.51424e-14)
(0.1381 -8.47353e-08 2.51481e-14)
(0.1381 -9.62372e-08 2.51165e-14)
(0.1381 -1.11979e-07 2.50951e-14)
(0.1381 -1.20449e-07 2.51128e-14)
(0.1381 -1.25066e-07 2.51153e-14)
(0.1381 -1.27193e-07 2.51201e-14)
(0.1381 -1.27349e-07 2.50999e-14)
(0.1381 -1.25428e-07 2.50892e-14)
(0.1381 -1.21874e-07 2.51084e-14)
(0.1381 -1.1696e-07 2.5099e-14)
(0.1381 -1.10536e-07 2.51265e-14)
(0.1381 -1.02378e-07 2.51314e-14)
(0.1381 -9.24908e-08 2.51105e-14)
(0.1381 -7.9933e-08 2.51173e-14)
(0.1381 -6.49305e-08 2.5103e-14)
(0.1381 -4.62087e-08 2.51152e-14)
(0.1381 -1.19053e-08 2.51052e-14)
(0.1381 -5.34695e-08 2.50875e-14)
(0.137678 -1.47787e-07 2.48258e-14)
(0.137678 -1.67182e-07 2.49044e-14)
(0.137678 -1.58716e-07 2.49637e-14)
(0.137678 -1.44086e-07 2.50189e-14)
(0.137678 -1.30354e-07 2.48972e-14)
(0.137678 -1.18509e-07 2.49523e-14)
(0.137678 -1.08484e-07 2.47238e-14)
(0.137678 -9.97452e-08 2.48736e-14)
(0.137678 -9.17148e-08 2.48217e-14)
(0.137678 -8.43923e-08 2.4711e-14)
(0.137678 -7.74932e-08 2.47959e-14)
(0.137678 -7.06472e-08 2.48505e-14)
(0.137679 -6.4007e-08 2.49358e-14)
(0.137679 -5.78051e-08 2.49314e-14)
(0.137679 -5.17752e-08 2.50603e-14)
(0.137679 -4.57989e-08 2.50327e-14)
(0.137679 -3.96582e-08 2.50282e-14)
(0.137679 -3.32548e-08 2.5075e-14)
(0.137679 -2.58336e-08 2.50414e-14)
(0.137679 -1.52081e-08 2.51463e-14)
(0.137679 -1.00202e-08 2.52092e-14)
(0.137679 -2.97461e-09 2.52641e-14)
(0.137679 1.05065e-08 2.52233e-14)
(0.137679 3.10805e-08 2.52145e-14)
(0.137679 6.19381e-08 2.52231e-14)
(0.13768 8.86233e-08 2.53179e-14)
(0.13768 1.05872e-07 2.5396e-14)
(0.13768 1.15088e-07 2.53991e-14)
(0.13768 1.19504e-07 2.5391e-14)
(0.13768 1.21248e-07 2.54443e-14)
(0.13768 1.21474e-07 2.55342e-14)
(0.13768 1.20953e-07 2.55692e-14)
(0.13768 1.20059e-07 2.5557e-14)
(0.13768 1.18712e-07 2.55669e-14)
(0.13768 1.17235e-07 2.55931e-14)
(0.13768 1.15697e-07 2.56476e-14)
(0.13768 1.14022e-07 2.56824e-14)
(0.13768 1.12572e-07 2.56768e-14)
(0.13768 1.10941e-07 2.56693e-14)
(0.13768 1.09314e-07 2.56924e-14)
(0.13768 1.07934e-07 2.56135e-14)
(0.13768 1.06606e-07 2.55872e-14)
(0.13768 1.0529e-07 2.55158e-14)
(0.13768 1.03758e-07 2.54908e-14)
(0.13768 1.02309e-07 2.54396e-14)
(0.13768 1.00982e-07 2.53833e-14)
(0.13768 9.93747e-08 2.53802e-14)
(0.13768 9.76587e-08 2.53236e-14)
(0.13768 9.59249e-08 2.53122e-14)
(0.13768 9.41486e-08 2.52739e-14)
(0.13768 9.23364e-08 2.52263e-14)
(0.13768 9.01312e-08 2.52289e-14)
(0.13768 8.76143e-08 2.51786e-14)
(0.13768 8.50303e-08 2.51822e-14)
(0.13768 8.23359e-08 2.50276e-14)
(0.137679 7.93436e-08 2.51596e-14)
(0.137679 7.63291e-08 2.51614e-14)
(0.137679 7.32383e-08 2.5109e-14)
(0.137679 6.99746e-08 2.51203e-14)
(0.137679 6.65186e-08 2.49773e-14)
(0.137679 6.30099e-08 2.51474e-14)
(0.137679 5.96308e-08 2.51464e-14)
(0.137679 5.60423e-08 2.50926e-14)
(0.137679 5.23317e-08 2.5104e-14)
(0.137679 4.86659e-08 2.49629e-14)
(0.137679 4.49415e-08 2.51447e-14)
(0.137679 4.12313e-08 2.51518e-14)
(0.137679 3.75539e-08 2.51025e-14)
(0.137679 3.3881e-08 2.51192e-14)
(0.137679 3.00919e-08 2.49779e-14)
(0.137679 2.63222e-08 2.51599e-14)
(0.137679 2.25625e-08 2.51604e-14)
(0.137679 1.89088e-08 2.50996e-14)
(0.137679 1.54285e-08 2.51041e-14)
(0.137679 1.18587e-08 2.49546e-14)
(0.137679 8.39877e-09 2.5122e-14)
(0.137679 4.96284e-09 2.51314e-14)
(0.137679 1.6151e-09 2.50842e-14)
(0.137679 -1.73202e-09 2.51004e-14)
(0.137679 -5.0552e-09 2.49702e-14)
(0.137679 -8.34594e-09 2.49743e-14)
(0.137679 -1.15783e-08 2.49758e-14)
(0.137679 -1.46739e-08 2.49787e-14)
(0.137679 -1.75793e-08 2.49118e-14)
(0.137679 -2.05002e-08 2.49037e-14)
(0.137679 -2.33869e-08 2.49186e-14)
(0.137678 -2.59526e-08 2.49336e-14)
(0.137678 -2.84478e-08 2.495e-14)
(0.137678 -3.0724e-08 2.48712e-14)
(0.137678 -3.27761e-08 2.48751e-14)
(0.137678 -3.46074e-08 2.49023e-14)
(0.137678 -3.61555e-08 2.49202e-14)
(0.137678 -3.73668e-08 2.49329e-14)
(0.137678 -3.82068e-08 2.48555e-14)
(0.137678 -3.87935e-08 2.48523e-14)
(0.137678 -3.89217e-08 2.48788e-14)
(0.137678 -3.86147e-08 2.48964e-14)
(0.137678 -3.85459e-08 2.49089e-14)
(0.137678 -3.7907e-08 2.48474e-14)
(0.137678 -4.68455e-08 2.48495e-14)
(0.137678 -6.13727e-08 2.48654e-14)
(0.137678 -7.01633e-08 2.48776e-14)
(0.137678 -7.67404e-08 2.48894e-14)
(0.137678 -8.88091e-08 2.48082e-14)
(0.137678 -1.03567e-07 2.48068e-14)
(0.137678 -1.11946e-07 2.48356e-14)
(0.137678 -1.17531e-07 2.48507e-14)
(0.137678 -1.21405e-07 2.48587e-14)
(0.137678 -1.23422e-07 2.4786e-14)
(0.137678 -1.23426e-07 2.48004e-14)
(0.137678 -1.21596e-07 2.48325e-14)
(0.137678 -1.18203e-07 2.47696e-14)
(0.137678 -1.13048e-07 2.48109e-14)
(0.137678 -1.06113e-07 2.47949e-14)
(0.137678 -9.74466e-08 2.47999e-14)
(0.137678 -8.61183e-08 2.48223e-14)
(0.137678 -7.25632e-08 2.47678e-14)
(0.137678 -5.57797e-08 2.47858e-14)
(0.137678 -2.35084e-08 2.4752e-14)
(0.137678 -6.41928e-08 2.47624e-14)
(0.137239 -1.53986e-07 2.46134e-14)
(0.137239 -1.747e-07 2.46448e-14)
(0.137239 -1.68166e-07 2.46733e-14)
(0.137239 -1.55215e-07 2.4777e-14)
(0.137239 -1.42541e-07 2.4662e-14)
(0.13724 -1.31188e-07 2.46555e-14)
(0.13724 -1.21345e-07 2.45805e-14)
(0.13724 -1.12771e-07 2.47151e-14)
(0.13724 -1.04837e-07 2.46586e-14)
(0.13724 -9.73305e-08 2.45581e-14)
(0.13724 -9.02506e-08 2.46621e-14)
(0.13724 -8.3269e-08 2.4646e-14)
(0.13724 -7.63602e-08 2.48129e-14)
(0.13724 -6.98419e-08 2.47372e-14)
(0.13724 -6.35008e-08 2.48463e-14)
(0.13724 -5.72045e-08 2.4897e-14)
(0.13724 -5.06791e-08 2.48034e-14)
(0.13724 -4.38829e-08 2.48989e-14)
(0.13724 -3.65968e-08 2.48488e-14)
(0.13724 -2.62945e-08 2.4942e-14)
(0.13724 -2.15837e-08 2.49453e-14)
(0.13724 -1.71627e-08 2.50375e-14)
(0.13724 -9.10798e-09 2.4976e-14)
(0.137241 4.43005e-09 2.49247e-14)
(0.137241 3.09789e-08 2.49509e-14)
(0.137241 5.90007e-08 2.50237e-14)
(0.137241 8.09558e-08 2.50145e-14)
(0.137241 9.57031e-08 2.51119e-14)
(0.137241 1.04991e-07 2.5079e-14)
(0.137241 1.10612e-07 2.51908e-14)
(0.137241 1.13811e-07 2.52255e-14)
(0.137241 1.15527e-07 2.51783e-14)
(0.137241 1.16408e-07 2.52639e-14)
(0.137241 1.16456e-07 2.5199e-14)
(0.137241 1.16153e-07 2.52918e-14)
(0.137241 1.15589e-07 2.53481e-14)
(0.137241 1.14696e-07 2.53516e-14)
(0.137241 1.13952e-07 2.53898e-14)
(0.137241 1.12891e-07 2.53636e-14)
(0.137241 1.11707e-07 2.54101e-14)
(0.137241 1.10704e-07 2.53699e-14)
(0.137241 1.09687e-07 2.53869e-14)
(0.137241 1.08649e-07 2.52853e-14)
(0.137241 1.07369e-07 2.53431e-14)
(0.137241 1.06029e-07 2.52455e-14)
(0.137241 1.04845e-07 2.51591e-14)
(0.137241 1.03513e-07 2.5186e-14)
(0.137241 1.01972e-07 2.5089e-14)
(0.137241 1.00399e-07 2.51548e-14)
(0.137241 9.8788e-08 2.50694e-14)
(0.137241 9.69744e-08 2.49926e-14)
(0.137241 9.4816e-08 2.50273e-14)
(0.137241 9.25542e-08 2.49407e-14)
(0.137241 9.00376e-08 2.49771e-14)
(0.137241 8.73913e-08 2.48395e-14)
(0.137241 8.4508e-08 2.49901e-14)
(0.137241 8.15891e-08 2.49791e-14)
(0.137241 7.86847e-08 2.48868e-14)
(0.137241 7.53807e-08 2.49258e-14)
(0.137241 7.19562e-08 2.47958e-14)
(0.137241 6.87101e-08 2.49781e-14)
(0.137241 6.54143e-08 2.49778e-14)
(0.137241 6.18095e-08 2.48775e-14)
(0.137241 5.82882e-08 2.4916e-14)
(0.137241 5.47207e-08 2.47867e-14)
(0.137241 5.104e-08 2.49303e-14)
(0.137241 4.74515e-08 2.49852e-14)
(0.137241 4.37887e-08 2.48903e-14)
(0.137241 4.01927e-08 2.49351e-14)
(0.137241 3.65077e-08 2.48075e-14)
(0.137241 3.28168e-08 2.49996e-14)
(0.137241 2.92102e-08 2.50007e-14)
(0.137241 2.56095e-08 2.48906e-14)
(0.137241 2.21112e-08 2.49204e-14)
(0.137241 1.87018e-08 2.47836e-14)
(0.137241 1.53234e-08 2.49637e-14)
(0.137241 1.1836e-08 2.49685e-14)
(0.137241 8.57434e-09 2.48751e-14)
(0.137241 5.32187e-09 2.49181e-14)
(0.137241 1.90577e-09 2.48019e-14)
(0.13724 -1.41157e-09 2.47657e-14)
(0.13724 -4.44964e-09 2.47631e-14)
(0.13724 -7.40832e-09 2.47628e-14)
(0.13724 -1.03172e-08 2.46408e-14)
(0.13724 -1.30948e-08 2.46604e-14)
(0.13724 -1.58691e-08 2.46787e-14)
(0.13724 -1.85138e-08 2.46953e-14)
(0.13724 -2.09106e-08 2.47089e-14)
(0.13724 -2.3236e-08 2.45781e-14)
(0.13724 -2.53776e-08 2.46071e-14)
(0.13724 -2.7106e-08 2.46428e-14)
(0.13724 -2.86563e-08 2.46645e-14)
(0.13724 -2.98373e-08 2.46762e-14)
(0.13724 -3.07853e-08 2.4548e-14)
(0.13724 -3.14367e-08 2.45756e-14)
(0.13724 -3.17004e-08 2.46121e-14)
(0.13724 -3.17732e-08 2.4639e-14)
(0.13724 -3.21464e-08 2.46524e-14)
(0.13724 -3.233e-08 2.45431e-14)
(0.13724 -4.00918e-08 2.45711e-14)
(0.13724 -5.20469e-08 2.4596e-14)
(0.13724 -5.97887e-08 2.46153e-14)
(0.13724 -6.6767e-08 2.46292e-14)
(0.13724 -7.87044e-08 2.44481e-14)
(0.13724 -9.24826e-08 2.45248e-14)
(0.13724 -1.0063e-07 2.45636e-14)
(0.137239 -1.06544e-07 2.45868e-14)
(0.137239 -1.11498e-07 2.45953e-14)
(0.137239 -1.14902e-07 2.44285e-14)
(0.137239 -1.16485e-07 2.45134e-14)
(0.137239 -1.1635e-07 2.45625e-14)
(0.137239 -1.14512e-07 2.44078e-14)
(0.137239 -1.10833e-07 2.45035e-14)
(0.137239 -1.05339e-07 2.43995e-14)
(0.137239 -9.80585e-08 2.44938e-14)
(0.137239 -8.82031e-08 2.45317e-14)
(0.137239 -7.64027e-08 2.44305e-14)
(0.137239 -6.17853e-08 2.44665e-14)
(0.137239 -3.17489e-08 2.43437e-14)
(0.137239 -7.16967e-08 2.44433e-14)
(0.136784 -1.57129e-07 2.42238e-14)
(0.136784 -1.79344e-07 2.4371e-14)
(0.136784 -1.7492e-07 2.43947e-14)
(0.136784 -1.63807e-07 2.44554e-14)
(0.136784 -1.52449e-07 2.43773e-14)
(0.136784 -1.41929e-07 2.44074e-14)
(0.136784 -1.32548e-07 2.43956e-14)
(0.136784 -1.24137e-07 2.44729e-14)
(0.136785 -1.16333e-07 2.4448e-14)
(0.136785 -1.08923e-07 2.44073e-14)
(0.136785 -1.01717e-07 2.4444e-14)
(0.136785 -9.45352e-08 2.44339e-14)
(0.136785 -8.73696e-08 2.45154e-14)
(0.136785 -8.0614e-08 2.4518e-14)
(0.136785 -7.40817e-08 2.45544e-14)
(0.136785 -6.75219e-08 2.45334e-14)
(0.136785 -6.06552e-08 2.45622e-14)
(0.136785 -5.35418e-08 2.46382e-14)
(0.136785 -4.62917e-08 2.463e-14)
(0.136785 -3.63688e-08 2.46549e-14)
(0.136785 -3.1817e-08 2.46741e-14)
(0.136785 -2.88464e-08 2.47196e-14)
(0.136785 -2.44278e-08 2.47086e-14)
(0.136785 -1.65382e-08 2.47321e-14)
(0.136785 4.21683e-09 2.47001e-14)
(0.136786 3.0037e-08 2.47415e-14)
(0.136786 5.3648e-08 2.48546e-14)
(0.136786 7.19088e-08 2.48387e-14)
(0.136786 8.51858e-08 2.48654e-14)
(0.136786 9.44795e-08 2.4878e-14)
(0.136786 1.00798e-07 2.49172e-14)
(0.136786 1.05113e-07 2.50058e-14)
(0.136786 1.08139e-07 2.49891e-14)
(0.136786 1.09886e-07 2.50394e-14)