/*--------------------------------*- C++ -*----------------------------------*\
  =========                 |
  \\      /  F ield         | OpenFOAM: The Open Source CFD Toolbox
   \\    /   O peration     | Website:  https://openfoam.org
    \\  /    A nd           | Version:  7
     \\/     M anipulation  |
\*---------------------------------------------------------------------------*/
FoamFile
{
    version     2.0;
    format      ascii;
    class       volScalarField;
    location    "19000";
    object      nut;
}
// * * * * * * * * * * * * * * * * * * * * * * * * * * * * * * * * * * * * * //

dimensions      [0 2 -1 0 0 0 0];

internalField   nonuniform List<scalar> 
4026
(
0.000284816
0.000284811
0.000284812
0.000284814
0.000284816
0.000284818
0.000284821
0.000284823
0.000284825
0.000284827
0.00028483
0.000284832
0.000284834
0.000284836
0.000284838
0.000284841
0.000284843
0.000284845
0.000284847
0.000284849
0.000284851
0.000284852
0.000284854
0.000284855
0.000284856
0.000284858
0.000284859
0.00028486
0.000284861
0.000284862
0.000284863
0.000284864
0.000284865
0.000284866
0.000284866
0.000284867
0.000284867
0.000284868
0.000284868
0.000284869
0.000284869
0.00028487
0.00028487
0.00028487
0.000284872
0.000284808
0.000284809
0.000284812
0.000284815
0.000284818
0.00028482
0.000284823
0.000284825
0.000284827
0.000284829
0.00028483
0.000284832
0.000284833
0.000284835
0.000284835
0.000284841
0.000299506
0.000299501
0.000299501
0.000299504
0.000299506
0.000299509
0.000299511
0.000299514
0.000299516
0.000299519
0.000299521
0.000299523
0.000299525
0.000299528
0.00029953
0.000299533
0.000299535
0.000299537
0.000299539
0.000299541
0.000299543
0.000299544
0.000299546
0.000299547
0.000299548
0.00029955
0.000299551
0.000299552
0.000299553
0.000299554
0.000299555
0.000299556
0.000299556
0.000299557
0.000299558
0.000299559
0.000299559
0.000299559
0.00029956
0.00029956
0.00029956
0.000299561
0.000299561
0.000299561
0.000299563
0.00029949
0.000299491
0.000299495
0.000299498
0.000299502
0.000299505
0.000299508
0.00029951
0.000299512
0.000299514
0.000299516
0.000299518
0.00029952
0.000299521
0.000299522
0.000299527
0.00031465
0.000314646
0.000314647
0.000314649
0.000314652
0.000314655
0.000314658
0.00031466
0.000314663
0.000314665
0.000314668
0.00031467
0.000314673
0.000314675
0.000314677
0.00031468
0.000314682
0.000314684
0.000314686
0.000314688
0.00031469
0.000314692
0.000314693
0.000314695
0.000314696
0.000314697
0.000314698
0.000314699
0.000314701
0.000314701
0.000314702
0.000314702
0.000314703
0.000314704
0.000314705
0.000314705
0.000314705
0.000314705
0.000314706
0.000314706
0.000314706
0.000314706
0.000314706
0.000314706
0.000314708
0.00031463
0.000314629
0.000314633
0.000314637
0.000314641
0.000314645
0.000314647
0.00031465
0.000314653
0.000314655
0.000314657
0.000314659
0.000314661
0.000314662
0.000314663
0.000314668
0.000330278
0.000330276
0.000330277
0.00033028
0.000330282
0.000330286
0.000330289
0.000330292
0.000330295
0.000330297
0.000330299
0.000330302
0.000330304
0.000330306
0.000330309
0.000330312
0.000330314
0.000330317
0.000330319
0.00033032
0.000330322
0.000330324
0.000330325
0.000330327
0.000330328
0.000330329
0.00033033
0.000330331
0.000330332
0.000330333
0.000330333
0.000330334
0.000330335
0.000330335
0.000330335
0.000330336
0.000330336
0.000330336
0.000330336
0.000330336
0.000330336
0.000330336
0.000330335
0.000330335
0.000330337
0.000330255
0.000330254
0.000330257
0.000330261
0.000330265
0.000330268
0.000330272
0.000330275
0.000330278
0.00033028
0.000330282
0.000330284
0.000330285
0.000330287
0.000330289
0.000330292
0.000346423
0.000346422
0.000346424
0.000346426
0.000346429
0.000346432
0.000346436
0.000346439
0.000346443
0.000346445
0.000346448
0.00034645
0.000346452
0.000346455
0.000346457
0.00034646
0.000346463
0.000346465
0.000346467
0.000346469
0.000346471
0.000346472
0.000346473
0.000346474
0.000346476
0.000346477
0.000346478
0.000346479
0.00034648
0.00034648
0.000346481
0.000346481
0.000346481
0.000346482
0.000346482
0.000346482
0.000346482
0.000346482
0.000346482
0.000346481
0.000346481
0.000346481
0.000346481
0.00034648
0.000346481
0.000346396
0.000346395
0.000346398
0.000346401
0.000346405
0.000346409
0.000346412
0.000346415
0.000346418
0.00034642
0.000346422
0.000346424
0.000346426
0.000346428
0.000346428
0.000346432
0.000363117
0.000363118
0.00036312
0.000363123
0.000363126
0.00036313
0.000363133
0.000363136
0.00036314
0.000363143
0.000363145
0.000363148
0.00036315
0.000363153
0.000363155
0.000363157
0.00036316
0.000363162
0.000363164
0.000363167
0.000363168
0.000363169
0.000363171
0.000363172
0.000363173
0.000363174
0.000363175
0.000363175
0.000363176
0.000363177
0.000363177
0.000363177
0.000363177
0.000363178
0.000363178
0.000363177
0.000363177
0.000363177
0.000363177
0.000363175
0.000363175
0.000363175
0.000363174
0.000363173
0.000363173
0.000363087
0.000363086
0.000363088
0.000363091
0.000363094
0.000363098
0.000363101
0.000363105
0.000363107
0.000363109
0.000363112
0.000363113
0.000363115
0.000363117
0.000363118
0.00036312
0.000380396
0.000380399
0.000380402
0.000380405
0.000380409
0.000380412
0.000380416
0.00038042
0.000380423
0.000380426
0.000380428
0.000380431
0.000380433
0.000380436
0.000380438
0.000380441
0.000380444
0.000380446
0.000380447
0.00038045
0.000380451
0.000380452
0.000380454
0.000380454
0.000380456
0.000380456
0.000380457
0.000380458
0.000380458
0.000380458
0.000380458
0.000380458
0.000380459
0.000380458
0.000380458
0.000380458
0.000380456
0.000380456
0.000380455
0.000380455
0.000380453
0.000380453
0.000380452
0.000380451
0.00038045
0.000380362
0.000380362
0.000380364
0.000380366
0.000380369
0.000380372
0.000380375
0.000380379
0.000380381
0.000380383
0.000380386
0.000380387
0.000380388
0.00038039
0.000380391
0.000380393
0.000398299
0.000398303
0.000398308
0.000398311
0.000398315
0.000398319
0.000398323
0.000398327
0.00039833
0.000398333
0.000398336
0.000398338
0.000398341
0.000398344
0.000398346
0.000398348
0.000398351
0.000398352
0.000398354
0.000398356
0.000398357
0.000398359
0.00039836
0.000398361
0.000398361
0.000398362
0.000398363
0.000398363
0.000398363
0.000398362
0.000398362
0.000398362
0.000398362
0.000398361
0.000398361
0.00039836
0.00039836
0.000398358
0.000398357
0.000398356
0.000398355
0.000398353
0.000398352
0.000398351
0.000398348
0.000398259
0.000398261
0.000398263
0.000398265
0.000398267
0.00039827
0.000398273
0.000398275
0.000398278
0.00039828
0.000398282
0.000398284
0.000398285
0.000398286
0.000398288
0.000398287
0.000416865
0.000416873
0.000416878
0.000416882
0.000416886
0.00041689
0.000416894
0.000416898
0.000416902
0.000416905
0.000416907
0.00041691
0.000416912
0.000416915
0.000416917
0.000416919
0.000416921
0.000416924
0.000416925
0.000416927
0.000416928
0.000416929
0.00041693
0.000416931
0.000416931
0.000416931
0.000416931
0.000416932
0.000416931
0.000416931
0.000416931
0.000416929
0.000416929
0.000416928
0.000416927
0.000416926
0.000416925
0.000416923
0.000416922
0.000416921
0.000416919
0.000416917
0.000416915
0.000416915
0.000416909
0.00041682
0.000416824
0.000416825
0.000416827
0.000416829
0.000416831
0.000416834
0.000416837
0.000416839
0.000416841
0.000416842
0.000416844
0.000416845
0.000416846
0.000416847
0.000416845
0.000436139
0.000436149
0.000436155
0.000436159
0.000436164
0.000436169
0.000436172
0.000436176
0.00043618
0.000436183
0.000436186
0.000436188
0.000436191
0.000436193
0.000436195
0.000436198
0.000436199
0.000436201
0.000436202
0.000436204
0.000436205
0.000436206
0.000436206
0.000436206
0.000436207
0.000436207
0.000436207
0.000436207
0.000436206
0.000436206
0.000436204
0.000436203
0.000436203
0.000436201
0.0004362
0.000436198
0.000436196
0.000436194
0.000436192
0.00043619
0.000436188
0.000436186
0.000436184
0.000436183
0.000436176
0.000436087
0.000436092
0.000436094
0.000436095
0.000436097
0.0004361
0.000436101
0.000436103
0.000436105
0.000436106
0.000436109
0.00043611
0.00043611
0.000436111
0.000436112
0.000436109
0.000456165
0.000456178
0.000456185
0.00045619
0.000456194
0.000456199
0.000456204
0.000456208
0.000456211
0.000456215
0.000456218
0.000456219
0.000456222
0.000456224
0.000456226
0.000456227
0.00045623
0.000456232
0.000456232
0.000456234
0.000456234
0.000456236
0.000456236
0.000456235
0.000456235
0.000456235
0.000456233
0.000456233
0.000456232
0.000456232
0.00045623
0.000456229
0.000456227
0.000456225
0.000456223
0.000456221
0.000456219
0.000456217
0.000456215
0.000456213
0.000456209
0.000456206
0.000456204
0.000456203
0.000456192
0.000456104
0.000456112
0.000456114
0.000456116
0.000456118
0.000456118
0.00045612
0.000456122
0.000456123
0.000456124
0.000456125
0.000456126
0.000456126
0.000456127
0.000456129
0.000456122
0.000476991
0.000477009
0.000477016
0.000477022
0.000477026
0.000477031
0.000477035
0.00047704
0.000477043
0.000477046
0.000477048
0.000477051
0.000477053
0.000477055
0.000477056
0.000477058
0.00047706
0.000477062
0.000477062
0.000477063
0.000477064
0.000477064
0.000477064
0.000477064
0.000477062
0.000477062
0.000477061
0.000477059
0.000477057
0.000477057
0.000477055
0.000477053
0.000477051
0.000477049
0.000477046
0.000477043
0.000477041
0.000477039
0.000477035
0.000477032
0.000477029
0.000477025
0.000477022
0.000477021
0.000477007
0.000476921
0.000476931
0.000476934
0.000476934
0.000476936
0.000476937
0.000476939
0.00047694
0.000476941
0.000476942
0.000476941
0.000476941
0.000476942
0.000476942
0.000476944
0.000476935
0.000498669
0.000498688
0.000498698
0.000498703
0.000498708
0.000498713
0.000498718
0.000498721
0.000498725
0.000498728
0.00049873
0.000498732
0.000498734
0.000498736
0.000498738
0.000498739
0.000498741
0.000498741
0.000498743
0.000498743
0.000498743
0.000498742
0.000498742
0.000498742
0.00049874
0.000498738
0.000498738
0.000498736
0.000498734
0.000498732
0.00049873
0.000498726
0.000498724
0.000498721
0.000498719
0.000498714
0.000498712
0.000498707
0.000498704
0.000498701
0.000498697
0.000498693
0.000498689
0.000498687
0.00049867
0.000498585
0.0004986
0.000498602
0.000498604
0.000498604
0.000498605
0.000498605
0.000498606
0.000498607
0.000498607
0.000498606
0.000498606
0.000498606
0.000498606
0.000498607
0.000498595
0.000521249
0.000521272
0.000521283
0.000521288
0.000521294
0.000521299
0.000521303
0.000521307
0.00052131
0.000521314
0.000521316
0.000521318
0.00052132
0.00052132
0.000521322
0.000521324
0.000521324
0.000521325
0.000521325
0.000521325
0.000521325
0.000521325
0.000521323
0.000521322
0.00052132
0.000521318
0.000521316
0.000521314
0.000521311
0.000521309
0.000521305
0.000521302
0.000521299
0.000521295
0.000521292
0.000521287
0.000521284
0.000521279
0.000521276
0.000521271
0.000521265
0.000521262
0.000521256
0.000521254
0.000521234
0.000521151
0.000521169
0.000521173
0.000521174
0.000521174
0.000521175
0.000521174
0.000521175
0.000521174
0.000521174
0.000521173
0.000521173
0.000521172
0.00052117
0.000521172
0.000521157
0.000544786
0.000544816
0.000544827
0.000544833
0.000544839
0.000544843
0.000544848
0.000544852
0.000544856
0.000544858
0.00054486
0.000544862
0.000544862
0.000544865
0.000544865
0.000544867
0.000544867
0.000544867
0.000544867
0.000544866
0.000544864
0.000544864
0.000544862
0.000544859
0.000544857
0.000544855
0.000544852
0.000544849
0.000544847
0.000544842
0.000544839
0.000544836
0.000544831
0.000544828
0.000544822
0.000544817
0.000544813
0.000544808
0.000544802
0.000544796
0.000544792
0.000544787
0.00054478
0.000544776
0.000544754
0.000544672
0.000544694
0.000544699
0.000544699
0.0005447
0.000544701
0.0005447
0.000544699
0.000544698
0.000544698
0.000544697
0.000544695
0.000544694
0.000544692
0.000544693
0.000544675
0.00056934
0.000569377
0.000569387
0.000569394
0.0005694
0.000569405
0.000569409
0.000569414
0.000569416
0.000569419
0.000569421
0.000569421
0.000569423
0.000569423
0.000569423
0.000569425
0.000569425
0.000569425
0.000569423
0.000569422
0.00056942
0.000569419
0.000569417
0.000569414
0.000569411
0.000569408
0.000569403
0.0005694
0.000569397
0.000569392
0.000569388
0.000569383
0.000569377
0.000569373
0.000569367
0.000569361
0.000569355
0.000569351
0.000569345
0.000569338
0.000569332
0.000569325
0.000569318
0.000569314
0.000569289
0.000569207
0.000569236
0.000569241
0.000569242
0.000569241
0.000569242
0.000569241
0.00056924
0.000569239
0.000569236
0.000569235
0.000569233
0.00056923
0.000569227
0.000569229
0.000569206
0.000594972
0.000595012
0.000595026
0.000595033
0.000595038
0.000595043
0.000595048
0.00059505
0.000595055
0.000595055
0.000595058
0.000595058
0.00059506
0.00059506
0.00059506
0.00059506
0.000595059
0.000595059
0.000595056
0.000595056
0.000595053
0.00059505
0.000595047
0.000595044
0.00059504
0.000595035
0.000595031
0.000595025
0.000595022
0.000595016
0.000595012
0.000595005
0.000594999
0.000594992
0.000594986
0.000594981
0.000594975
0.000594968
0.00059496
0.000594953
0.000594946
0.000594938
0.000594929
0.000594926
0.000594894
0.000594817
0.000594849
0.000594858
0.000594859
0.000594857
0.000594856
0.000594855
0.000594854
0.000594851
0.00059485
0.000594847
0.000594844
0.000594841
0.000594835
0.000594837
0.000594812
0.000621742
0.000621789
0.000621802
0.00062181
0.000621818
0.00062182
0.000621825
0.000621828
0.000621831
0.000621833
0.000621833
0.000621833
0.000621833
0.000621833
0.000621832
0.000621832
0.000621831
0.000621831
0.000621828
0.000621824
0.000621821
0.000621818
0.000621814
0.00062181
0.000621807
0.0006218
0.000621796
0.00062179
0.000621785
0.000621779
0.000621772
0.000621764
0.000621757
0.00062175
0.000621742
0.000621735
0.000621727
0.000621719
0.000621711
0.000621703
0.000621695
0.000621687
0.000621676
0.000621673
0.000621637
0.000621563
0.000621601
0.00062161
0.000621609
0.00062161
0.000621609
0.000621606
0.000621605
0.000621601
0.000621597
0.000621594
0.00062159
0.000621587
0.000621581
0.000621583
0.000621553
0.000649715
0.000649766
0.000649784
0.000649792
0.000649798
0.000649804
0.000649806
0.000649809
0.000649812
0.000649812
0.000649814
0.000649814
0.000649814
0.00064981
0.00064981
0.000649809
0.000649809
0.000649805
0.000649801
0.000649797
0.000649794
0.00064979
0.000649785
0.000649781
0.000649774
0.00064977
0.000649762
0.000649755
0.00064975
0.000649742
0.000649734
0.000649726
0.000649718
0.00064971
0.000649702
0.000649693
0.000649685
0.000649673
0.000649664
0.000649655
0.000649646
0.000649634
0.000649625
0.000649618
0.000649579
0.000649507
0.000649553
0.000649563
0.000649565
0.000649564
0.000649562
0.000649558
0.000649554
0.000649553
0.00064955
0.000649543
0.000649539
0.000649535
0.000649528
0.000649528
0.000649494
0.000678955
0.000679018
0.000679037
0.000679046
0.000679049
0.000679055
0.000679058
0.000679061
0.000679064
0.000679064
0.000679063
0.000679063
0.000679062
0.000679058
0.000679058
0.000679057
0.000679053
0.000679048
0.000679047
0.000679043
0.000679035
0.000679031
0.000679026
0.000679018
0.000679013
0.000679005
0.000678997
0.000678991
0.000678983
0.000678974
0.000678965
0.000678956
0.000678947
0.000678938
0.000678926
0.000678916
0.000678907
0.000678897
0.000678884
0.000678874
0.000678864
0.00067885
0.00067884
0.000678833
0.00067879
0.000678721
0.000678775
0.000678783
0.000678785
0.000678784
0.000678783
0.000678779
0.000678774
0.00067877
0.000678766
0.000678762
0.000678754
0.00067875
0.000678743
0.000678742
0.000678702
0.000709538
0.000709608
0.000709629
0.000709636
0.000709642
0.000709645
0.000709648
0.000709651
0.000709654
0.000709654
0.000709653
0.000709652
0.000709648
0.000709647
0.000709642
0.000709641
0.000709637
0.000709632
0.000709627
0.000709622
0.000709617
0.000709612
0.000709603
0.000709597
0.000709588
0.000709579
0.000709569
0.00070956
0.00070955
0.000709541
0.000709531
0.000709521
0.000709511
0.0007095
0.00070949
0.000709476
0.000709465
0.000709454
0.00070944
0.000709429
0.000709418
0.000709403
0.000709388
0.000709384
0.000709332
0.000709268
0.000709331
0.000709341
0.000709343
0.000709342
0.000709337
0.000709336
0.000709332
0.000709324
0.000709319
0.000709314
0.000709306
0.000709298
0.00070929
0.000709289
0.000709244
0.000741526
0.000741608
0.00074163
0.000741637
0.000741645
0.000741648
0.000741651
0.00074165
0.000741653
0.000741652
0.000741651
0.000741647
0.000741645
0.00074164
0.000741639
0.000741634
0.000741628
0.000741623
0.000741617
0.000741611
0.000741606
0.000741596
0.00074159
0.000741579
0.000741569
0.000741559
0.000741552
0.000741542
0.000741531
0.000741516
0.000741505
0.000741494
0.000741482
0.000741471
0.000741455
0.000741444
0.000741432
0.000741416
0.000741404
0.000741388
0.000741375
0.000741359
0.000741346
0.000741337
0.00074128
0.000741223
0.000741292
0.000741307
0.000741306
0.000741305
0.0007413
0.000741295
0.00074129
0.000741285
0.00074128
0.000741271
0.000741262
0.000741253
0.000741244
0.000741243
0.000741194
0.000774997
0.000775086
0.000775111
0.000775119
0.000775127
0.00077513
0.000775134
0.000775132
0.000775131
0.00077513
0.000775129
0.000775123
0.000775122
0.000775116
0.00077511
0.000775108
0.000775102
0.000775096
0.000775085
0.000775078
0.000775072
0.000775061
0.000775054
0.000775042
0.000775031
0.000775019
0.000775007
0.000774995
0.000774983
0.000774971
0.000774959
0.000774946
0.000774929
0.000774917
0.000774904
0.000774886
0.000774873
0.000774856
0.000774842
0.000774824
0.00077481
0.000774792
0.000774774
0.000774768
0.000774706
0.000774651
0.000774732
0.000774749
0.000774748
0.000774747
0.000774741
0.000774736
0.000774731
0.000774721
0.000774716
0.000774706
0.000774696
0.000774686
0.000774676
0.000774675
0.000774621
0.000810018
0.000810117
0.000810144
0.000810158
0.000810161
0.000810165
0.000810168
0.000810167
0.000810165
0.000810164
0.000810157
0.000810155
0.000810149
0.000810142
0.000810135
0.000810133
0.000810126
0.000810114
0.000810107
0.000810099
0.000810087
0.000810079
0.000810067
0.000810054
0.000810041
0.000810028
0.000810015
0.000810001
0.000809988
0.000809974
0.000809961
0.000809947
0.000809928
0.000809914
0.000809899
0.00080988
0.000809865
0.000809846
0.000809831
0.000809811
0.000809796
0.000809775
0.000809755
0.000809744
0.00080968
0.000809629
0.000809719
0.000809737
0.000809741
0.000809736
0.00080973
0.000809724
0.000809718
0.000809708
0.000809697
0.000809691
0.00080968
0.000809669
0.000809654
0.000809652
0.000809593
0.000846662
0.000846777
0.000846807
0.000846816
0.000846825
0.000846824
0.000846827
0.000846826
0.000846824
0.000846816
0.000846814
0.000846807
0.000846805
0.000846797
0.000846789
0.000846781
0.000846773
0.00084676
0.000846751
0.000846743
0.000846729
0.000846715
0.000846706
0.000846692
0.000846677
0.000846663
0.000846648
0.000846633
0.000846618
0.000846603
0.000846582
0.000846567
0.000846551
0.00084653
0.000846514
0.000846493
0.000846476
0.000846455
0.000846438
0.000846416
0.000846399
0.000846377
0.000846354
0.000846343
0.000846271
0.000846225
0.00084633
0.00084635
0.00084635
0.000846349
0.000846343
0.000846337
0.000846325
0.000846313
0.000846307
0.000846295
0.000846283
0.000846272
0.000846254
0.000846253
0.000846187
0.000885008
0.000885135
0.000885168
0.000885178
0.000885182
0.000885185
0.000885183
0.000885181
0.000885179
0.00088517
0.000885168
0.000885159
0.000885151
0.000885142
0.000885133
0.000885124
0.000885115
0.000885106
0.00088509
0.000885081
0.000885065
0.000885055
0.00088504
0.000885024
0.000885007
0.000884991
0.000884975
0.000884958
0.000884941
0.000884918
0.000884901
0.000884884
0.000884867
0.000884843
0.000884825
0.000884802
0.000884784
0.00088476
0.000884741
0.000884717
0.000884698
0.000884673
0.000884649
0.000884635
0.000884557
0.000884522
0.000884633
0.000884655
0.000884661
0.000884654
0.000884647
0.000884641
0.000884628
0.000884615
0.000884608
0.000884595
0.000884577
0.000884563
0.00088455
0.000884543
0.000884476
0.000925119
0.000925259
0.000925296
0.000925306
0.00092531
0.000925314
0.000925311
0.000925309
0.000925306
0.000925296
0.000925287
0.000925283
0.000925274
0.000925264
0.000925254
0.000925243
0.000925227
0.000925216
0.000925199
0.000925188
0.000925171
0.000925153
0.000925142
0.000925124
0.000925106
0.000925088
0.000925069
0.000925051
0.000925025
0.000925007
0.000924988
0.000924968
0.000924943
0.000924923
0.000924903
0.000924877
0.000924857
0.00092483
0.00092481
0.000924783
0.000924756
0.000924735
0.000924707
0.000924693
0.000924606
0.000924579
0.000924708
0.000924733
0.000924733
0.000924726
0.000924718
0.000924711
0.000924697
0.000924683
0.000924669
0.000924655
0.000924641
0.000924626
0.000924605
0.000924597
0.000924523
0.000967073
0.000967228
0.000967268
0.000967279
0.000967283
0.00096728
0.000967277
0.000967274
0.00096727
0.00096726
0.000967249
0.000967245
0.000967234
0.000967222
0.000967204
0.000967192
0.00096718
0.000967161
0.000967149
0.00096713
0.000967118
0.000967098
0.000967078
0.000967058
0.000967038
0.000967018
0.000966997
0.000966977
0.000966956
0.000966935
0.000966906
0.000966885
0.000966864
0.000966835
0.000966813
0.000966784
0.000966762
0.000966739
0.000966709
0.00096668
0.000966657
0.000966626
0.000966603
0.00096658
0.000966491
0.000966473
0.000966609
0.000966637
0.000966644
0.000966636
0.000966628
0.000966613
0.000966605
0.00096659
0.000966574
0.000966559
0.000966536
0.00096652
0.000966504
0.000966495
0.000966414
0.00101094
0.00101111
0.00101114
0.00101116
0.00101116
0.00101116
0.00101115
0.00101115
0.00101115
0.00101113
0.00101112
0.00101111
0.0010111
0.00101108
0.00101107
0.00101106
0.00101104
0.00101102
0.001011
0.00101099
0.00101097
0.00101094
0.00101092
0.0010109
0.00101088
0.00101085
0.00101083
0.00101081
0.00101078
0.00101076
0.00101074
0.00101071
0.00101068
0.00101066
0.00101063
0.0010106
0.00101057
0.00101054
0.00101051
0.00101049
0.00101045
0.00101043
0.00101039
0.00101038
0.00101028
0.00101026
0.00101042
0.00101045
0.00101046
0.00101045
0.00101044
0.00101043
0.00101041
0.00101039
0.00101038
0.00101036
0.00101034
0.00101032
0.0010103
0.00101029
0.00101021
0.00105677
0.00105696
0.001057
0.00105701
0.00105702
0.00105701
0.00105701
0.001057
0.00105699
0.00105697
0.00105696
0.00105695
0.00105693
0.00105692
0.0010569
0.00105689
0.00105686
0.00105685
0.00105682
0.00105681
0.00105679
0.00105676
0.00105674
0.00105671
0.00105669
0.00105666
0.00105664
0.00105661
0.00105658
0.00105656
0.00105653
0.0010565
0.00105647
0.00105644
0.00105641
0.00105638
0.00105635
0.00105632
0.00105629
0.00105625
0.00105623
0.00105619
0.00105616
0.00105613
0.00105604
0.00105603
0.0010562
0.00105624
0.00105624
0.00105623
0.00105622
0.0010562
0.00105619
0.00105617
0.00105616
0.00105613
0.00105611
0.00105609
0.00105606
0.00105605
0.00105596
0.00110464
0.00110484
0.00110488
0.0011049
0.0011049
0.0011049
0.00110489
0.00110488
0.00110487
0.00110485
0.00110484
0.00110482
0.00110481
0.00110479
0.00110476
0.00110475
0.00110473
0.0011047
0.00110469
0.00110466
0.00110463
0.00110461
0.00110458
0.00110455
0.00110453
0.0011045
0.00110447
0.00110444
0.00110441
0.00110438
0.00110435
0.00110432
0.00110429
0.00110425
0.00110422
0.00110419
0.00110415
0.00110412
0.00110409
0.00110405
0.00110402
0.00110398
0.00110395
0.00110392
0.00110382
0.00110383
0.00110401
0.00110405
0.00110405
0.00110404
0.00110403
0.00110401
0.001104
0.00110398
0.00110396
0.00110393
0.00110391
0.00110389
0.00110386
0.00110385
0.00110375
0.00115459
0.00115482
0.00115486
0.00115488
0.00115487
0.00115487
0.00115486
0.00115485
0.00115484
0.00115482
0.0011548
0.00115478
0.00115477
0.00115475
0.00115472
0.0011547
0.00115468
0.00115465
0.00115462
0.0011546
0.00115457
0.00115454
0.00115451
0.00115448
0.00115446
0.00115443
0.0011544
0.00115436
0.00115432
0.00115429
0.00115426
0.00115423
0.00115419
0.00115416
0.00115413
0.00115408
0.00115405
0.00115402
0.00115397
0.00115394
0.0011539
0.00115386
0.00115382
0.00115379
0.00115369
0.00115371
0.00115391
0.00115395
0.00115395
0.00115394
0.00115393
0.00115391
0.00115389
0.00115386
0.00115384
0.00115382
0.0011538
0.00115376
0.00115374
0.00115372
0.00115363
0.00120669
0.00120692
0.00120699
0.00120699
0.00120699
0.00120698
0.00120697
0.00120697
0.00120695
0.00120693
0.00120691
0.00120689
0.00120687
0.00120683
0.00120681
0.00120679
0.00120676
0.00120674
0.0012067
0.00120667
0.00120665
0.00120661
0.00120658
0.00120655
0.00120651
0.00120648
0.00120644
0.00120641
0.00120637
0.00120634
0.0012063
0.00120626
0.00120623
0.00120619
0.00120615
0.00120612
0.00120607
0.00120603
0.001206
0.00120596
0.00120591
0.00120587
0.00120583
0.00120579
0.00120568
0.00120572
0.00120595
0.00120599
0.00120599
0.00120598
0.00120597
0.00120594
0.00120592
0.00120589
0.00120587
0.00120584
0.00120581
0.00120578
0.00120574
0.00120573
0.00120563
0.00126096
0.00126123
0.00126128
0.00126129
0.00126129
0.00126128
0.00126127
0.00126125
0.00126123
0.00126121
0.00126119
0.00126116
0.00126114
0.00126111
0.00126108
0.00126106
0.00126103
0.001261
0.00126096
0.00126093
0.00126089
0.00126086
0.00126082
0.00126079
0.00126075
0.00126071
0.00126068
0.00126064
0.0012606
0.00126056
0.00126052
0.00126048
0.00126044
0.0012604
0.00126036
0.00126032
0.00126027
0.00126023
0.00126019
0.00126014
0.0012601
0.00126005
0.00126001
0.00125997
0.00125986
0.00125991
0.00126016
0.0012602
0.0012602
0.00126019
0.00126017
0.00126015
0.00126013
0.0012601
0.00126007
0.00126004
0.00126001
0.00125997
0.00125994
0.00125991
0.00125981
0.00131745
0.00131773
0.0013178
0.00131781
0.0013178
0.00131779
0.00131777
0.00131775
0.00131773
0.00131771
0.00131768
0.00131765
0.00131763
0.00131759
0.00131756
0.00131753
0.0013175
0.00131746
0.00131743
0.00131739
0.00131735
0.00131732
0.00131728
0.00131724
0.0013172
0.00131716
0.00131711
0.00131707
0.00131703
0.00131699
0.00131695
0.0013169
0.00131686
0.00131681
0.00131677
0.00131672
0.00131668
0.00131663
0.00131659
0.00131654
0.00131649
0.00131644
0.00131639
0.00131635
0.00131624
0.00131631
0.00131658
0.00131663
0.00131663
0.00131661
0.00131659
0.00131657
0.00131654
0.00131651
0.00131648
0.00131644
0.00131641
0.00131637
0.00131633
0.0013163
0.00131621
0.00137618
0.00137648
0.00137654
0.00137655
0.00137654
0.00137653
0.00137651
0.00137649
0.00137646
0.00137644
0.00137641
0.00137638
0.00137634
0.00137631
0.00137628
0.00137624
0.0013762
0.00137617
0.00137613
0.00137608
0.00137604
0.001376
0.00137596
0.00137592
0.00137587
0.00137583
0.00137578
0.00137574
0.00137569
0.00137565
0.0013756
0.00137555
0.00137551
0.00137546
0.00137541
0.00137536
0.00137531
0.00137526
0.00137521
0.00137516
0.00137511
0.00137506
0.00137501
0.00137496
0.00137485
0.00137494
0.00137523
0.00137528
0.00137528
0.00137527
0.00137524
0.00137522
0.00137518
0.00137515
0.00137512
0.00137508
0.00137504
0.001375
0.00137496
0.00137492
0.00137483
0.00143715
0.00143747
0.00143754
0.00143755
0.00143753
0.00143752
0.00143749
0.00143747
0.00143744
0.00143741
0.00143737
0.00143734
0.00143731
0.00143727
0.00143723
0.00143719
0.00143715
0.00143711
0.00143706
0.00143702
0.00143697
0.00143693
0.00143688
0.00143683
0.00143678
0.00143674
0.00143669
0.00143664
0.00143659
0.00143654
0.00143649
0.00143644
0.00143639
0.00143634
0.00143629
0.00143624
0.00143618
0.00143613
0.00143608
0.00143602
0.00143597
0.00143591
0.00143586
0.00143581
0.0014357
0.00143581
0.00143612
0.00143618
0.00143618
0.00143616
0.00143613
0.0014361
0.00143607
0.00143603
0.001436
0.00143596
0.00143591
0.00143587
0.00143582
0.00143579
0.00143569
0.00150035
0.0015007
0.00150077
0.00150078
0.00150076
0.00150074
0.00150072
0.00150069
0.00150065
0.00150062
0.00150058
0.00150054
0.0015005
0.00150046
0.00150042
0.00150038
0.00150033
0.00150028
0.00150024
0.00150019
0.00150014
0.00150009
0.00150004
0.00149999
0.00149993
0.00149988
0.00149983
0.00149978
0.00149972
0.00149967
0.00149962
0.00149956
0.00149951
0.00149945
0.0014994
0.00149934
0.00149929
0.00149923
0.00149917
0.00149912
0.00149906
0.001499
0.00149894
0.00149888
0.00149879
0.00149892
0.00149926
0.00149932
0.00149931
0.00149929
0.00149926
0.00149923
0.00149919
0.00149915
0.00149911
0.00149907
0.00149902
0.00149897
0.00149892
0.00149888
0.00149879
0.00156578
0.00156615
0.00156622
0.00156623
0.00156621
0.00156619
0.00156616
0.00156612
0.00156609
0.00156605
0.00156601
0.00156596
0.00156592
0.00156587
0.00156583
0.00156578
0.00156573
0.00156568
0.00156562
0.00156557
0.00156552
0.00156546
0.00156541
0.00156535
0.0015653
0.00156524
0.00156518
0.00156513
0.00156507
0.00156501
0.00156495
0.0015649
0.00156484
0.00156478
0.00156472
0.00156466
0.0015646
0.00156454
0.00156448
0.00156442
0.00156436
0.0015643
0.00156423
0.00156417
0.00156409
0.00156425
0.00156461
0.00156467
0.00156466
0.00156464
0.00156461
0.00156457
0.00156453
0.00156449
0.00156444
0.00156439
0.00156434
0.00156429
0.00156424
0.00156419
0.00156411
0.00163339
0.00163378
0.00163386
0.00163386
0.00163384
0.00163381
0.00163378
0.00163374
0.0016337
0.00163365
0.00163361
0.00163356
0.00163351
0.00163346
0.00163341
0.00163336
0.0016333
0.00163325
0.00163319
0.00163313
0.00163307
0.00163301
0.00163295
0.00163289
0.00163283
0.00163277
0.00163271
0.00163265
0.00163259
0.00163253
0.00163247
0.0016324
0.00163234
0.00163228
0.00163222
0.00163216
0.00163209
0.00163203
0.00163197
0.0016319
0.00163184
0.00163177
0.0016317
0.00163164
0.00163156
0.00163176
0.00163214
0.0016322
0.0016322
0.00163217
0.00163213
0.00163209
0.00163205
0.001632
0.00163195
0.0016319
0.00163185
0.00163179
0.00163173
0.00163168
0.00163161
0.00170313
0.00170354
0.00170362
0.00170362
0.00170359
0.00170356
0.00170352
0.00170348
0.00170343
0.00170338
0.00170333
0.00170328
0.00170323
0.00170317
0.00170311
0.00170306
0.001703
0.00170294
0.00170288
0.00170281
0.00170275
0.00170268
0.00170262
0.00170255
0.00170249
0.00170242
0.00170236
0.00170229
0.00170223
0.00170216
0.0017021
0.00170203
0.00170197
0.0017019
0.00170183
0.00170177
0.0017017
0.00170163
0.00170156
0.0017015
0.00170143
0.00170136
0.00170129
0.00170122
0.00170115
0.00170139
0.00170179
0.00170186
0.00170185
0.00170182
0.00170178
0.00170174
0.00170169
0.00170164
0.00170158
0.00170153
0.00170147
0.00170141
0.00170135
0.00170129
0.00170122
0.00177491
0.00177534
0.00177542
0.00177542
0.00177539
0.00177535
0.00177531
0.00177526
0.00177521
0.00177516
0.0017751
0.00177504
0.00177498
0.00177493
0.00177486
0.0017748
0.00177474
0.00177467
0.0017746
0.00177453
0.00177446
0.0017744
0.00177432
0.00177426
0.00177418
0.00177412
0.00177405
0.00177398
0.00177391
0.00177384
0.00177377