/*--------------------------------*- C++ -*----------------------------------*\
  =========                 |
  \\      /  F ield         | OpenFOAM: The Open Source CFD Toolbox
   \\    /   O peration     | Website:  https://openfoam.org
    \\  /    A nd           | Version:  7
     \\/     M anipulation  |
\*---------------------------------------------------------------------------*/
FoamFile
{
    version     2.0;
    format      ascii;
    class       surfaceScalarField;
    location    "19000";
    object      phi;
}
// * * * * * * * * * * * * * * * * * * * * * * * * * * * * * * * * * * * * * //

dimensions      [0 3 -1 0 0 0 0];

internalField   nonuniform List<scalar> 
7859
(
0.000133047
5.20262e-10
0.000133047
7.96871e-10
0.000133047
1.00752e-09
0.000133047
1.15114e-09
0.000133047
1.23626e-09
0.000133047
1.27218e-09
0.000133047
1.26779e-09
0.000133047
1.22853e-09
0.000133047
1.15842e-09
0.000133047
1.06464e-09
0.000133047
9.5196e-10
0.000133047
8.25858e-10
0.000133047
6.94509e-10
0.000133047
5.59016e-10
0.000133047
4.22987e-10
0.000133047
2.89682e-10
0.000133048
1.576e-10
0.000133048
2.85023e-11
0.000133048
-9.44372e-11
0.000133048
-2.12316e-10
0.000133048
-3.24842e-10
0.000133048
-4.29936e-10
0.000133048
-5.28242e-10
0.000133048
-6.19667e-10
0.000133048
-7.04923e-10
0.000133048
-7.83951e-10
0.000133048
-8.56878e-10
0.000133048
-9.2357e-10
0.000133048
-9.84579e-10
0.000133048
-1.04102e-09
0.000133048
-1.09378e-09
0.000133048
-1.14211e-09
0.000133048
-1.18821e-09
0.000133048
-1.23172e-09
0.000133048
-1.27334e-09
0.000133048
-1.31173e-09
0.000133048
-1.3457e-09
0.000133048
-1.378e-09
0.000133048
-1.40313e-09
0.000133048
-1.42119e-09
0.000133048
-1.41779e-09
0.000133048
-1.4048e-09
0.000133048
-1.3197e-09
0.000133048
-1.23172e-09
-9.49786e-10
0.000133048
1.78763e-10
0.000133048
3.83178e-10
0.000133048
4.82258e-10
0.000133048
5.01447e-10
0.000133048
4.66165e-10
0.000133048
3.98229e-10
0.000133047
3.11693e-10
0.000133047
2.1692e-10
0.000133047
1.17768e-10
0.000133047
2.38153e-11
0.000133047
-6.24422e-11
0.000133047
-1.22304e-10
0.000133047
-1.68654e-10
0.000133047
-1.3617e-10
0.000133047
-6.16926e-11
1.58763e-10
0.000137324
5.30265e-10
0.000137324
8.07644e-10
0.000137324
1.01283e-09
0.000137324
1.14836e-09
0.000137324
1.22596e-09
0.000137324
1.25595e-09
0.000137324
1.24703e-09
0.000137324
1.20432e-09
0.000137324
1.13197e-09
0.000137324
1.0375e-09
0.000137324
9.2426e-10
0.000137324
7.97775e-10
0.000137324
6.66773e-10
0.000137324
5.31221e-10
0.000137324
3.95262e-10
0.000137324
2.62801e-10
0.000137324
1.31185e-10
0.000137324
2.30659e-12
0.000137324
-1.20095e-10
0.000137324
-2.37291e-10
0.000137324
-3.49081e-10
0.000137324
-4.53262e-10
0.000137324
-5.5119e-10
0.000137324
-6.42192e-10
0.000137324
-7.26505e-10
0.000137324
-8.0471e-10
0.000137324
-8.76984e-10
0.000137324
-9.42918e-10
0.000137324
-1.00276e-09
0.000137324
-1.05828e-09
0.000137324
-1.11023e-09
0.000137324
-1.15805e-09
0.000137324
-1.2034e-09
0.000137324
-1.2462e-09
0.000137324
-1.28708e-09
0.000137324
-1.32455e-09
0.000137324
-1.35786e-09
0.000137324
-1.38996e-09
0.000137324
-1.41509e-09
0.000137325
-1.43294e-09
0.000137325
-1.42982e-09
0.000137325
-1.41771e-09
0.000137325
-1.33203e-09
0.000137325
-1.24756e-09
-9.50965e-10
0.000137324
2.67838e-10
0.000137324
4.74638e-10
0.000137324
5.66564e-10
0.000137324
5.77316e-10
0.000137324
5.33238e-10
0.000137324
4.57741e-10
0.000137324
3.64947e-10
0.000137324
2.63685e-10
0.000137324
1.58885e-10
0.000137324
6.01704e-11
0.000137324
-3.14736e-11
0.000137324
-9.69305e-11
0.000137324
-1.47663e-10
0.000137324
-1.20801e-10
0.000137324
-5.46388e-11
1.64051e-10
0.000141694
5.39476e-10
0.000141694
8.1566e-10
0.000141694
1.01508e-09
0.000141694
1.14301e-09
0.000141694
1.21284e-09
0.000141694
1.23663e-09
0.000141694
1.22315e-09
0.000141694
1.17668e-09
0.000141694
1.1022e-09
0.000141694
1.00709e-09
0.000141694
8.9327e-10
0.000141694
7.66955e-10
0.000141694
6.36609e-10
0.000141694
5.01101e-10
0.000141694
3.6564e-10
0.000141694
2.34022e-10
0.000141694
1.03038e-10
0.000141694
-2.48074e-11
0.000141694
-1.46462e-10
0.000141694
-2.62931e-10
0.000141694
-3.73656e-10
0.000141694
-4.76985e-10
0.000141694
-5.73919e-10
0.000141694
-6.64125e-10
0.000141694
-7.47776e-10
0.000141694
-8.24849e-10
0.000141694
-8.9603e-10
0.000141694
-9.61209e-10
0.000141695
-1.02012e-09
0.000141695
-1.07419e-09
0.000141695
-1.12479e-09
0.000141695
-1.17229e-09
0.000141695
-1.21701e-09
0.000141695
-1.25878e-09
0.000141695
-1.29864e-09
0.000141695
-1.33512e-09
0.000141695
-1.36808e-09
0.000141695
-1.39967e-09
0.000141695
-1.42453e-09
0.000141695
-1.44261e-09
0.000141695
-1.43985e-09
0.000141695
-1.42853e-09
0.000141695
-1.34288e-09
0.000141695
-1.26185e-09
-9.56652e-10
0.000141695
3.5077e-10
0.000141695
5.65204e-10
0.000141694
6.53209e-10
0.000141694
6.5605e-10
0.000141694
6.03208e-10
0.000141694
5.20005e-10
0.000141694
4.20809e-10
0.000141694
3.1303e-10
0.000141694
2.02391e-10
0.000141694
9.86004e-11
0.000141694
1.35616e-12
0.000141694
-6.95321e-11
0.000141694
-1.24949e-10
0.000141694
-1.04632e-10
0.000141694
-4.75621e-11
1.69457e-10
0.00014616
5.48277e-10
0.00014616
8.21895e-10
0.00014616
1.01468e-09
0.00014616
1.13467e-09
0.00014616
1.19693e-09
0.00014616
1.21446e-09
0.000146161
1.19593e-09
0.000146161
1.14573e-09
0.000146161
1.06937e-09
0.000146161
9.73234e-10
0.000146161
8.59054e-10
0.000146161
7.33576e-10
0.000146161
6.03692e-10
0.000146161
4.68616e-10
0.000146161
3.34202e-10
0.000146161
2.03378e-10
0.000146161
7.35811e-11
0.000146161
-5.27761e-11
0.000146161
-1.73693e-10
0.000146161
-2.89369e-10
0.000146161
-3.98631e-10
0.000146161
-5.00797e-10
0.000146161
-5.96492e-10
0.000146161
-6.85645e-10
0.000146161
-7.68478e-10
0.000146161
-8.44424e-10
0.000146161
-9.14115e-10
0.000146161
-9.78227e-10
0.000146161
-1.0363e-09
0.000146161
-1.08871e-09
0.000146161
-1.13804e-09
0.000146161
-1.18472e-09
0.000146161
-1.22871e-09
0.000146161
-1.26953e-09
0.000146161
-1.3081e-09
0.000146161
-1.34351e-09
0.000146161
-1.37609e-09
0.000146161
-1.40721e-09
0.000146161
-1.43159e-09
0.000146161
-1.44998e-09
0.000146161
-1.44799e-09
0.000146161
-1.4374e-09
0.000146161
-1.35212e-09
0.000146161
-1.27465e-09
-9.65502e-10
0.000146161
4.27323e-10
0.000146161
6.51579e-10
0.000146161
7.38842e-10
0.000146161
7.35418e-10
0.000146161
6.75039e-10
0.000146161
5.84481e-10
0.000146161
4.78527e-10
0.000146161
3.64581e-10
0.000146161
2.48164e-10
0.000146161
1.38588e-10
0.000146161
3.58292e-11
0.00014616
-4.04667e-11
0.00014616
-1.0093e-10
0.00014616
-8.7511e-11
0.00014616
-4.06017e-11
1.74557e-10
0.000150726
5.57544e-10
0.000150726
8.27161e-10
0.000150726
1.01151e-09
0.000150726
1.12292e-09
0.000150726
1.17783e-09
0.000150726
1.18911e-09
0.000150726
1.16552e-09
0.000150726
1.11214e-09
0.000150726
1.03376e-09
0.000150726
9.36091e-10
0.000150726
8.21805e-10
0.000150726
6.9743e-10
0.000150726
5.68061e-10
0.000150727
4.33793e-10
0.000150727
3.01069e-10
0.000150727
1.71329e-10
0.000150727
4.28605e-11
0.000150727
-8.2018e-11
0.000150727
-2.01997e-10
0.000150727
-3.16249e-10
0.000150727
-4.23974e-10
0.000150727
-5.24885e-10
0.000150727
-6.19018e-10
0.000150727
-7.06892e-10
0.000150727
-7.88331e-10
0.000150727
-8.63019e-10
0.000150727
-9.31309e-10
0.000150727
-9.94181e-10
0.000150727
-1.05101e-09
0.000150727
-1.10182e-09
0.000150727
-1.15017e-09
0.000150727
-1.19559e-09
0.000150727
-1.23817e-09
0.000150727
-1.27797e-09
0.000150727
-1.31543e-09
0.000150727
-1.34988e-09
0.000150727
-1.3822e-09
0.000150727
-1.41263e-09
0.000150727
-1.43635e-09
0.000150727
-1.45485e-09
0.000150727
-1.45392e-09
0.000150727
-1.44394e-09
0.000150727
-1.36002e-09
0.000150727
-1.28682e-09
-9.75939e-10
0.000150727
4.9863e-10
0.000150727
7.32032e-10
0.000150727
8.20451e-10
0.000150727
8.12932e-10
0.000150727
7.4697e-10
0.000150726
6.50105e-10
0.000150726
5.3715e-10
0.000150726
4.17063e-10
0.000150726
2.9551e-10
0.000150726
1.79894e-10
0.000150726
7.18383e-11
0.000150726
-1.00502e-11
0.000150726
-7.60762e-11
0.000150726
-6.97605e-11
0.000150726
-3.44011e-11
1.79071e-10
0.000155394
5.67446e-10
0.000155394
8.31455e-10
0.000155394
1.00574e-09
0.000155394
1.10787e-09
0.000155394
1.15525e-09
0.000155394
1.16078e-09
0.000155394
1.13203e-09
0.000155394
1.07562e-09
0.000155394
9.95555e-10
0.000155394
8.96226e-10
0.000155394
7.81761e-10
0.000155394
6.58266e-10
0.000155394
5.29672e-10
0.000155394
3.9678e-10
0.000155394
2.65931e-10
0.000155394
1.37798e-10
0.000155394
1.09348e-11
0.000155394
-1.12485e-10
0.000155394
-2.3102e-10
0.000155394
-3.43628e-10
0.000155394
-4.49779e-10
0.000155394
-5.49433e-10
0.000155394
-6.41532e-10
0.000155394
-7.27465e-10
0.000155395
-8.07493e-10
0.000155395
-8.80813e-10
0.000155395
-9.47734e-10
0.000155395
-1.00873e-09
0.000155395
-1.06383e-09
0.000155395
-1.11359e-09
0.000155395
-1.1609e-09
0.000155395
-1.20503e-09
0.000155395
-1.24546e-09
0.000155395
-1.28375e-09
0.000155395
-1.32077e-09
0.000155395
-1.35444e-09
0.000155395
-1.38611e-09
0.000155395
-1.41544e-09
0.000155395
-1.43888e-09
0.000155395
-1.45753e-09
0.000155395
-1.4573e-09
0.000155395
-1.44822e-09
0.000155395
-1.36694e-09
0.000155395
-1.29906e-09
-9.86824e-10
0.000155395
5.65777e-10
0.000155394
8.06088e-10
0.000155394
8.96222e-10
0.000155394
8.86675e-10
0.000155394
8.17056e-10
0.000155394
7.14815e-10
0.000155394
5.95578e-10
0.000155394
4.69727e-10
0.000155394
3.43307e-10
0.000155394
2.22189e-10
0.000155394
1.08801e-10
0.000155394
2.1285e-11
0.000155394
-5.04243e-11
0.000155394
-5.21049e-11
0.000155394
-2.97687e-11
1.82885e-10
0.000160166
5.77351e-10
0.000160166
8.34992e-10
0.000160166
9.97865e-10
0.000160166
1.09018e-09
0.000160166
1.12945e-09
0.000160166
1.12916e-09
0.000160166
1.09555e-09
0.000160166
1.03595e-09
0.000160166
9.54325e-10
0.000160166
8.53539e-10
0.000160166
7.39152e-10
0.000160166
6.16282e-10
0.000160167
4.8858e-10
0.000160167
3.578e-10
0.000160167
2.29011e-10
0.000160167
1.02838e-10
0.000160167
-2.2191e-11
0.000160167
-1.44241e-10
0.000160167
-2.60875e-10
0.000160167
-3.71553e-10
0.000160167
-4.76169e-10
0.000160167
-5.74115e-10
0.000160167
-6.64018e-10
0.000160167
-7.47421e-10
0.000160167
-8.26185e-10
0.000160167
-8.97979e-10
0.000160167
-9.62994e-10
0.000160167
-1.02194e-09
0.000160167
-1.07488e-09
0.000160167
-1.12377e-09
0.000160167
-1.16993e-09
0.000160167
-1.21261e-09
0.000160167
-1.25108e-09
0.000160167
-1.28755e-09
0.000160167
-1.32387e-09
0.000160167
-1.35688e-09
0.000160167
-1.3875e-09
0.000160167
-1.4156e-09
0.000160167
-1.43942e-09
0.000160167
-1.4583e-09
0.000160167
-1.45827e-09
0.000160167
-1.45042e-09
0.000160167
-1.37284e-09
0.000160167
-1.31136e-09
-9.97856e-10
0.000160167
6.29846e-10
0.000160167
8.74156e-10
0.000160167
9.65416e-10
0.000160167
9.55315e-10
0.000160167
8.83132e-10
0.000160166
7.76603e-10
0.000160166
6.52781e-10
0.000160166
5.21802e-10
0.000160166
3.90387e-10
0.000160166
2.64679e-10
0.000160166
1.46101e-10
0.000160166
5.252e-11
0.000160166
-2.45933e-11
0.000160166
-3.48848e-11
0.000160166
-2.70523e-11
1.85244e-10
0.000165046
5.86449e-10
0.000165046
8.3785e-10
0.000165046
9.88269e-10
0.000165046
1.06993e-09
0.000165046
1.10055e-09
0.000165046
1.09402e-09
0.000165046
1.05619e-09
0.000165046
9.93295e-10
0.000165046
9.09675e-10
0.000165046
8.07991e-10
0.000165046
6.94177e-10
0.000165046
5.72145e-10
0.000165046
4.45466e-10
0.000165046
3.16644e-10
0.000165046
1.90449e-10
0.000165046
6.64927e-11
0.000165046
-5.71412e-11
0.000165046
-1.774e-10
0.000165046
-2.91539e-10
0.000165046
-4.00129e-10
0.000165046
-5.02744e-10
0.000165047
-5.9847e-10
0.000165047
-6.86447e-10
0.000165047
-7.6733e-10
0.000165047
-8.44173e-10
0.000165047
-9.14077e-10
0.000165047
-9.7719e-10
0.000165047
-1.03388e-09
0.000165047
-1.08486e-09
0.000165047
-1.13283e-09
0.000165047
-1.17691e-09
0.000165047
-1.21786e-09
0.000165047
-1.25503e-09
0.000165047
-1.28947e-09
0.000165047
-1.32454e-09
0.000165047
-1.35692e-09
0.000165047
-1.38643e-09
0.000165047
-1.41375e-09
0.000165047
-1.43781e-09
0.000165047
-1.4568e-09
0.000165047
-1.45736e-09
0.000165047
-1.45092e-09
0.000165047
-1.37777e-09
0.000165047
-1.32349e-09
-1.00889e-09
0.000165046
6.91233e-10
0.000165046
9.37233e-10
0.000165046
1.02813e-09
0.000165046
1.01746e-09
0.000165046
9.43785e-10
0.000165046
8.34215e-10
0.000165046
7.06883e-10
0.000165046
5.71928e-10
0.000165046
4.36045e-10
0.000165046
3.06204e-10
0.000165046
1.83013e-10
0.000165046
8.3079e-11
0.000165046
3.18688e-13
0.000165046
-1.85069e-11
0.000165046
-2.6144e-11
1.85687e-10
0.000170035
5.94323e-10
0.000170035
8.39701e-10
0.000170035
9.77167e-10
0.000170036
1.0471e-09
0.000170036
1.06863e-09
0.000170036
1.05552e-09
0.000170036
1.01363e-09
0.000170036
9.47745e-10
0.000170036
8.62253e-10
0.000170036
7.59657e-10
0.000170036
6.46464e-10
0.000170036
5.2588e-10
0.000170036
4.00369e-10
0.000170036
2.73618e-10
0.000170036
1.49858e-10
0.000170036
2.81339e-11
0.000170036
-9.34446e-11
0.000170036
-2.11329e-10
0.000170036
-3.22952e-10
0.000170036
-4.2947e-10
0.000170036
-5.29647e-10
0.000170036
-6.22598e-10
0.000170036
-7.08348e-10
0.000170036
-7.87197e-10
0.000170036
-8.61697e-10
0.000170036
-9.29285e-10
0.000170036
-9.90465e-10
0.000170036
-1.04469e-09
0.000170036
-1.09402e-09
0.000170036
-1.14056e-09
0.000170036
-1.18186e-09
0.000170036
-1.22099e-09
0.000170036
-1.25698e-09
0.000170036
-1.28954e-09
0.000170036
-1.32298e-09
0.000170036
-1.35432e-09
0.000170036
-1.38307e-09
0.000170036
-1.4101e-09
0.000170036
-1.4338e-09
0.000170036
-1.45264e-09
0.000170036
-1.45464e-09
0.000170036
-1.45007e-09
0.000170036
-1.38176e-09
0.000170036
-1.33566e-09
-1.01989e-09
0.000170036
7.50152e-10
0.000170036
9.95842e-10
0.000170036
1.08438e-09
0.000170036
1.07248e-09
0.000170036
9.97848e-10
0.000170036
8.86675e-10
0.000170036
7.56847e-10
0.000170036
6.1892e-10
0.000170036
4.79564e-10
0.000170036
3.45605e-10
0.000170036
2.18288e-10
0.000170036
1.12878e-10
0.000170036
2.38068e-11
0.000170035
-3.86426e-12
0.000170035
-2.76423e-11
1.83854e-10
0.000175138
6.00289e-10
0.000175138
8.39725e-10
0.000175138
9.64113e-10
0.000175138
1.02212e-09
0.000175138
1.03435e-09
0.000175138
1.01385e-09
0.000175138
9.6754e-10
0.000175138
8.99389e-10
0.000175138
8.12037e-10
0.000175138
7.08595e-10
0.000175138
5.96247e-10
0.000175138
4.76969e-10
0.000175138
3.53318e-10
0.000175138
2.28948e-10
0.000175138
1.07363e-10
0.000175138
-1.227e-11
0.000175138
-1.31215e-10
0.000175138
-2.45971e-10
0.000175139
-3.55105e-10
0.000175139
-4.59087e-10
0.000175139
-5.56901e-10
0.000175139
-6.472e-10
0.000175139
-7.2994e-10
0.000175139
-8.06598e-10
0.000175139
-8.78842e-10
0.000175139
-9.43691e-10
0.000175139
-1.00238e-09
0.000175139
-1.05447e-09
0.000175139
-1.10212e-09
0.000175139
-1.14662e-09
0.000175139
-1.18536e-09
0.000175139
-1.22226e-09
0.000175139
-1.25663e-09
0.000175139
-1.28789e-09
0.000175139
-1.3194e-09
0.000175139
-1.34947e-09
0.000175139
-1.37776e-09
0.000175139
-1.40436e-09
0.000175139
-1.42757e-09
0.000175139
-1.44601e-09
0.000175139
-1.44977e-09
0.000175139
-1.44763e-09
0.000175139
-1.38468e-09
0.000175139
-1.34796e-09
-1.03083e-09
0.000175138
8.06224e-10
0.000175138
1.05001e-09
0.000175138
1.13461e-09
0.000175138
1.12042e-09
0.000175138
1.04512e-09
0.000175138
9.33402e-10
0.000175138
8.01693e-10
0.000175138
6.61747e-10
0.000175138
5.19736e-10
0.000175138
3.82273e-10
0.000175138
2.51468e-10
0.000175138
1.40677e-10
0.000175138
4.50765e-11
0.000175138
8.24624e-12
0.000175138
-3.21031e-11
1.79572e-10
0.000180355
6.03999e-10
0.000180355
8.37332e-10
0.000180355
9.48731e-10
0.000180355
9.94681e-10
0.000180356
9.97643e-10
0.000180356
9.69591e-10
0.000180356
9.18206e-10
0.000180356
8.47815e-10
0.000180356
7.58958e-10
0.000180356
6.55548e-10
0.000180356
5.43706e-10
0.000180356
4.25456e-10
0.000180356
3.04461e-10
0.000180356
1.82131e-10
0.000180356
6.28445e-11
0.000180356
-5.41318e-11
0.000180356
-1.70264e-10
0.000180356
-2.81856e-10
0.000180356
-3.88173e-10
0.000180356
-4.89092e-10
0.000180356
-5.83958e-10
0.000180356
-6.71644e-10
0.000180356
-7.51984e-10
0.000180356
-8.25876e-10
0.000180356
-8.95096e-10
0.000180356
-9.57354e-10
0.000180356
-1.0131e-09
0.000180356
-1.06288e-09
0.000180356
-1.10887e-09
0.000180356
-1.15117e-09
0.000180356
-1.1875e-09
0.000180356
-1.22187e-09
0.000180356
-1.25438e-09
0.000180356
-1.28418e-09
0.000180356
-1.31384e-09
0.000180356
-1.34272e-09
0.000180356
-1.37031e-09
0.000180356
-1.39615e-09
0.000180356
-1.41925e-09
0.000180356
-1.43784e-09
0.000180356
-1.44321e-09
0.000180356
-1.44338e-09
0.000180356
-1.38637e-09
0.000180356
-1.3605e-09
-1.04149e-09
0.000180356
8.58463e-10
0.000180356
1.10012e-09
0.000180356
1.1798e-09
0.000180356
1.162e-09
0.000180356
1.08553e-09
0.000180356
9.73361e-10
0.000180356
8.40615e-10
0.000180356
6.99555e-10
0.000180356
5.55424e-10
0.000180356
4.15659e-10
0.000180355
2.82193e-10
0.000180355
1.65223e-10
0.000180355
6.33367e-11
0.000180355
1.77555e-11
0.000180355
-4.00856e-11
1.72241e-10
0.000185691
6.05525e-10
0.000185691
8.32786e-10
0.000185691
9.30818e-10
0.000185691
9.64539e-10
0.000185691
9.57725e-10
0.000185691
9.22551e-10
0.000185691
8.66422e-10
0.000185691
7.93331e-10
0.000185691
7.0297e-10
0.000185691
5.99946e-10
0.000185691
4.88812e-10
0.000185692
3.72e-10
0.000185692
2.53411e-10
0.000185692
1.33124e-10
0.000185692
1.6213e-11
0.000185692
-9.74621e-11
0.000185692
-2.09815e-10
0.000185692
-3.18885e-10
0.000185692
-4.22247e-10
0.000185692
-5.19463e-10
0.000185692
-6.1091e-10
0.000185692
-6.95468e-10
0.000185692
-7.74016e-10
0.000185692
-8.4517e-10
0.000185692
-9.10529e-10
0.000185692
-9.70449e-10
0.000185692
-1.02347e-09
0.000185692
-1.07037e-09
0.000185692
-1.11397e-09
0.000185692
-1.15364e-09
0.000185692
-1.18777e-09
0.000185692
-1.21997e-09
0.000185692
-1.25057e-09
0.000185692
-1.27889e-09
0.000185692
-1.30651e-09
0.000185692
-1.33378e-09
0.000185692
-1.36044e-09
0.000185692
-1.38578e-09
0.000185692
-1.40918e-09
0.000185692
-1.42771e-09
0.000185692
-1.43532e-09
0.000185692
-1.43778e-09
0.000185692
-1.3866e-09
0.000185692
-1.37354e-09
-1.05208e-09
0.000185691
9.07371e-10
0.000185691
1.14673e-09
0.000185691
1.22013e-09
0.000185691
1.19767e-09
0.000185691
1.11909e-09
0.000185691
1.00635e-09
0.000185691
8.73715e-10
0.000185691
7.31642e-10
0.000185691
5.86286e-10
0.000185691
4.44806e-10
0.000185691
3.0872e-10
0.000185691
1.86339e-10
0.000185691
7.87232e-11
0.000185691
2.41005e-11
0.000185691
-5.2301e-11
1.60848e-10
0.000191147
6.04311e-10
0.000191147
8.25731e-10
0.000191147
9.10169e-10
0.000191147
9.31346e-10
0.000191147
9.144e-10
0.000191147
8.7273e-10
0.000191147
8.12258e-10
0.000191148
7.3596e-10
0.000191148
6.44062e-10
0.000191148
5.41297e-10
0.000191148
4.31437e-10
0.000191148
3.16555e-10
0.000191148
2.00348e-10
0.000191148
8.25921e-11
0.000191148
-3.19012e-11
0.000191148
-1.42062e-10
0.000191148
-2.5037e-10
0.000191148
-3.56543e-10
0.000191148
-4.56622e-10
0.000191148
-5.50113e-10
0.000191148
-6.38597e-10
0.000191148
-7.19647e-10
0.000191148
-7.95104e-10
0.000191148
-8.63885e-10
0.000191148
-9.25793e-10
0.000191148
-9.82602e-10
0.000191148
-1.03292e-09
0.000191148
-1.0772e-09
0.000191148
-1.11777e-09
0.000191148
-1.15421e-09
0.000191148
-1.18661e-09
0.000191148
-1.2169e-09
0.000191148
-1.24484e-09
0.000191148
-1.27168e-09
0.000191148
-1.2976e-09
0.000191148
-1.32304e-09
0.000191148
-1.34864e-09
0.000191148
-1.37368e-09
0.000191148
-1.397e-09
0.000191148
-1.41518e-09
0.000191148
-1.42586e-09
0.000191148
-1.43109e-09
0.000191148
-1.38577e-09
0.000191148
-1.38697e-09
-1.06315e-09
0.000191148
9.53821e-10
0.000191147
1.18976e-09
0.000191147
1.25557e-09
0.000191147
1.22788e-09
0.000191147
1.14631e-09
0.000191147
1.03296e-09
0.000191147
9.00741e-10
0.000191147
7.58029e-10
0.000191147
6.12198e-10
0.000191147
4.6876e-10
0.000191147
3.29984e-10
0.000191147
2.03351e-10
0.000191147
9.08074e-11
0.000191147
2.67428e-11
0.000191147
-6.89457e-11
1.45453e-10
0.000196727
5.99726e-10
0.000196727
8.15247e-10
0.000196727
8.86603e-10
0.000196727
8.94725e-10
0.000196727
8.68194e-10
0.000196727
8.20288e-10
0.000196727
7.5499e-10
0.000196727
6.75529e-10
0.000196727
5.83008e-10
0.000196727
4.80555e-10
0.000196727
3.71635e-10
0.000196727
2.59155e-10
0.000196727
1.45274e-10
0.000196727
3.04934e-11
0.000196727
-8.08926e-11
0.000196727
-1.87802e-10
0.000196727
-2.92528e-10
0.000196728
-3.95086e-10
0.000196728
-4.91378e-10
0.000196728
-5.81006e-10
0.000196728
-6.66456e-10
0.000196728
-7.44284e-10
0.000196728
-8.15522e-10
0.000196728
-8.8166e-10
0.000196728
-9.40939e-10
0.000196728
-9.94025e-10
0.000196728
-1.04104e-09
0.000196728
-1.08302e-09
0.000196728
-1.12036e-09
0.000196728
-1.15382e-09
0.000196728
-1.18477e-09
0.000196728
-1.21221e-09
0.000196728
-1.23739e-09
0.000196728
-1.26238e-09
0.000196728
-1.28665e-09
0.000196728
-1.31083e-09
0.000196728
-1.33542e-09
0.000196728
-1.35962e-09
0.000196728
-1.38227e-09
0.000196728
-1.40136e-09
0.000196728
-1.41486e-09
0.000196728
-1.42278e-09
0.000196728
-1.38411e-09
0.000196728
-1.40098e-09
-1.07508e-09
0.000196727
9.98058e-10
0.000196727
1.22965e-09
0.000196727
1.2867e-09
0.000196727
1.25306e-09
0.000196727
1.16763e-09
0.000196727
1.05308e-09
0.000196727
9.21507e-10
0.000196727
7.78806e-10
0.000196727
6.32424e-10
0.000196727
4.87181e-10
0.000196727
3.46471e-10
0.000196727
2.16063e-10
0.000196727
9.85782e-11
0.000196727
2.49956e-11
0.000196727
-9.03098e-11
1.26506e-10
0.000202432
5.91518e-10
0.000202432
8.0152e-10
0.000202432
8.6023e-10
0.000202432
8.54954e-10
0.000202432
8.19023e-10
0.000202432
7.64536e-10
0.000202432
6.94459e-10
0.000202432
6.12715e-10
0.000202433
5.20007e-10
0.000202433
4.1773e-10
0.000202433
3.10119e-10
0.000202433
1.99856e-10
0.000202433
8.81126e-11
0.000202433
-2.30786e-11
0.000202433
-1.3088e-10
0.000202433
-2.34737e-10
0.000202433
-3.3628e-10
0.000202433
-4.34522e-10
0.000202433
-5.26512e-10
0.000202433
-6.12242e-10
0.000202433
-6.9405e-10
0.000202433
-7.68809e-10
0.000202433
-8.36092e-10
0.000202433
-8.99085e-10
0.000202433
-9.55547e-10
0.000202433
-1.00469e-09
0.000202433
-1.04809e-09
0.000202433
-1.08763e-09
0.000202433
-1.12192e-09
0.000202433
-1.1528e-09
0.000202433
-1.18133e-09
0.000202433
-1.20525e-09
0.000202433
-1.22851e-09
0.000202433
-1.25154e-09
0.000202433
-1.27416e-09
0.000202433
-1.29689e-09
0.000202433
-1.32046e-09
0.000202433
-1.34405e-09
0.000202433
-1.36608e-09
0.000202433
-1.38611e-09
0.000202433
-1.40207e-09
0.000202433
-1.41312e-09
0.000202433
-1.38206e-09
0.000202433
-1.41601e-09
-1.08712e-09
0.000202432
1.03963e-09
0.000202432
1.26664e-09
0.000202432
1.31399e-09
0.000202432
1.27367e-09
0.000202432
1.18417e-09
0.000202432
1.06736e-09
0.000202432
9.35908e-10
0.000202432
7.93435e-10
0.000202432
6.46965e-10
0.000202432
5.00621e-10
0.000202432
3.58107e-10
0.000202432
2.24344e-10
0.000202432
1.01866e-10
0.000202432
1.83107e-11
0.000202432
-1.16703e-10
1.03422e-10
0.000208266
5.80127e-10
0.000208266
7.85106e-10
0.000208266
8.30425e-10
0.000208266
8.12263e-10
0.000208266
7.66934e-10
0.000208266
7.05468e-10
0.000208267
6.31395e-10
0.000208267
5.47564e-10
0.000208267
4.54367e-10
0.000208267
3.52739e-10
0.000208267
2.46769e-10
0.000208267
1.38584e-10
0.000208267
2.95385e-11
0.000208267
-7.79534e-11
0.000208267
-1.81893e-10
0.000208267
-2.82238e-10
0.000208267
-3.80917e-10
0.000208267
-4.74739e-10
0.000208267
-5.62077e-10
0.000208267
-6.43977e-10
0.000208267
-7.21571e-10
0.000208267
-7.92757e-10
0.000208267
-8.56945e-10
0.000208267
-9.1661e-10
0.000208267
-9.69183e-10
0.000208267
-1.01465e-09
0.000208267
-1.05439e-09
0.000208267
-1.09078e-09
0.000208267
-1.12277e-09
0.000208267
-1.15078e-09
0.000208267
-1.176e-09
0.000208267
-1.19701e-09
0.000208267
-1.21798e-09
0.000208267
-1.2388e-09
0.000208267
-1.26074e-09
0.000208267
-1.28181e-09
0.000208267
-1.30347e-09
0.000208267
-1.32656e-09
0.000208267
-1.34875e-09
0.000208267
-1.36939e-09
0.000208267
-1.38799e-09
0.000208267
-1.40242e-09
0.000208267
-1.38022e-09
0.000208267
-1.43187e-09
-1.09875e-09
0.000208266
1.07881e-09
0.000208266
1.30114e-09
0.000208266
1.3378e-09
0.000208266
1.29008e-09
0.000208266
1.19627e-09
0.000208266
1.07708e-09
0.000208266
9.44648e-10
0.000208266
8.02377e-10
0.000208266
6.55906e-10
0.000208266
5.0896e-10
0.000208266
3.64877e-10
0.000208266
2.2732e-10
0.000208266
1.0044e-10
0.000208266
6.99834e-12
0.000208266
-1.48408e-10
7.52441e-11
0.000214232
5.65405e-10
0.000214232
7.65992e-10
0.000214232
7.97357e-10
0.000214232
7.66205e-10
0.000214232
7.11825e-10
0.000214232
6.43841e-10
0.000214232
5.65871e-10
0.000214232
4.80118e-10
0.000214232
3.86114e-10
0.000214232
2.85535e-10
0.000214232
1.81508e-10
0.000214232
7.60483e-11
0.000214232
-2.95678e-11
0.000214232
-1.33995e-10
0.000214232
-2.34035e-10
0.000214233
-3.30553e-10
0.000214233
-4.25874e-10
0.000214233
-5.15592e-10
0.000214233
-5.98053e-10
0.000214233
-6.75581e-10
0.000214233
-7.49165e-10
0.000214233
-8.16576e-10
0.000214233
-8.77713e-10
0.000214233
-9.33704e-10
0.000214233
-9.82086e-10
0.000214233
-1.02421e-09
0.000214233
-1.0603e-09
0.000214233
-1.09306e-09
0.000214233
-1.12267e-09
0.000214233
-1.14724e-09
0.000214233
-1.16908e-09
0.000214233
-1.18799e-09
0.000214233
-1.20642e-09
0.000214233
-1.22479e-09
0.000214233
-1.24548e-09
0.000214233
-1.26509e-09
0.000214233
-1.28482e-09
0.000214233
-1.30698e-09
0.000214233
-1.32997e-09
0.000214233
-1.35184e-09
0.000214233
-1.37316e-09
0.000214233
-1.39117e-09
0.000214233
-1.37859e-09
0.000214233
-1.44846e-09
-1.11053e-09
0.000214232
1.11603e-09
0.000214232
1.33376e-09
0.000214232
1.35936e-09
0.000214232
1.30259e-09
0.000214232
1.2034e-09
0.000214232
1.08258e-09
0.000214232
9.49034e-10
0.000214232
8.06118e-10
0.000214232
6.59437e-10
0.000214232
5.12303e-10
0.000214232
3.66733e-10
0.000214232
2.24858e-10
0.000214232
9.34227e-11
0.000214232
-9.44196e-12
0.000214232
-1.84988e-10
4.23828e-11
0.000220331
5.47524e-10
0.000220331
7.43479e-10
0.000220331
7.60906e-10
0.000220331
7.1745e-10
0.000220331
6.53755e-10
0.000220331
5.79541e-10
0.000220332
4.97972e-10
0.000220332
4.10318e-10
0.000220332
3.16061e-10
0.000220332
2.16214e-10
0.000220332
1.1414e-10
0.000220332
1.21192e-11
0.000220332
-8.9182e-11
0.000220332
-1.90479e-10
0.000220332
-2.87383e-10
0.000220332
-3.7984e-10
0.000220332
-4.70432e-10
0.000220332
-5.56205e-10
0.000220332
-6.34502e-10
0.000220332
-7.0733e-10
0.000220332
-7.77123e-10
0.000220332
-8.40683e-10
0.000220332
-8.98066e-10
0.000220332
-9.4969e-10
0.000220332
-9.94472e-10
0.000220332
-1.03295e-09
0.000220332
-1.06522e-09
0.000220332
-1.0949e-09
0.000220332
-1.12144e-09
0.000220332
-1.14247e-09
0.000220332
-1.16109e-09
0.000220332
-1.17813e-09
0.000220332
-1.19434e-09
0.000220332
-1.21008e-09
0.000220332
-1.22832e-09
0.000220332
-1.24644e-09
0.000220332
-1.26486e-09
0.000220332
-1.28592e-09
0.000220332
-1.30972e-09
0.000220332
-1.33329e-09
0.000220332
-1.35715e-09
0.000220332
-1.37982e-09
0.000220332
-1.37726e-09
0.000220332
-1.46561e-09
-1.12252e-09
0.000220331
1.15087e-09
0.000220331
1.36441e-09
0.000220331
1.37883e-09
0.000220331
1.31205e-09
0.000220331
1.20684e-09
0.000220331
1.0836e-09
0.000220331
9.49306e-10
0.000220331
8.04936e-10
0.000220331
6.57662e-10
0.000220331
5.10842e-10
0.000220331
3.63698e-10
0.000220331
2.17624e-10
0.000220331
8.09268e-11
0.000220331
-3.11397e-11
0.000220331
-2.26028e-10
5.66954e-12
0.000226568
5.26531e-10
0.000226568
7.16962e-10
0.000226568
7.21228e-10
0.000226568
6.66865e-10
0.000226568
5.93637e-10
0.000226568
5.12596e-10
0.000226568
4.2771e-10
0.000226568
3.38082e-10
0.000226568
2.44136e-10
0.000226568
1.45662e-10
0.000226568
4.55803e-11
0.000226568
-5.31077e-11
0.000226568
-1.50177e-10
0.000226569
-2.47864e-10
0.000226569
-3.41371e-10
0.000226569
-4.29156e-10
0.000226569
-5.14504e-10
0.000226569
-5.97007e-10
0.000226569
-6.71781e-10
0.000226569
-7.39383e-10
0.000226569
-8.04914e-10
0.000226569
-8.64532e-10
0.000226569
-9.17417e-10
0.000226569
-9.64802e-10
0.000226569
-1.00591e-09
0.000226569
-1.04033e-09
0.000226569
-1.06969e-09
0.000226569
-1.09598e-09
0.000226569
-1.1186e-09
0.000226569
-1.13687e-09
0.000226569
-1.15267e-09
0.000226569
-1.16747e-09
0.000226569
-1.18147e-09
0.000226569
-1.19423e-09
0.000226569
-1.2098e-09
0.000226569
-1.22666e-09
0.000226569
-1.24438e-09
0.000226569
-1.26403e-09
0.000226569
-1.28796e-09
0.000226569
-1.3137e-09
0.000226569
-1.34047e-09
0.000226569
-1.36821e-09
0.000226569
-1.37622e-09
0.000226569
-1.48335e-09
-1.1343e-09
0.000226568
1.18344e-09
0.000226568
1.39349e-09
0.000226568
1.39659e-09
0.000226568
1.31911e-09
0.000226568
1.20775e-09
0.000226568
1.08067e-09
0.000226568
9.44847e-10
0.000226568
7.9983e-10
0.000226568
6.51784e-10
0.000226568
5.03912e-10
0.000226568
3.55654e-10
0.000226568
2.06439e-10
0.000226568
6.38764e-11
0.000226568
-5.80573e-11
0.000226568
-2.71943e-10
-3.43827e-11
0.000232944
5.02384e-10
0.000232944
6.87948e-10
0.000232944
6.79925e-10
0.000232944
6.13674e-10
0.000232944
5.31088e-10
0.000232944
4.43853e-10
0.000232944
3.55246e-10
0.000232944
2.64281e-10
0.000232944
1.70467e-10
0.000232944
7.38114e-11
0.000232945
-2.34256e-11
0.000232945
-1.18606e-10
0.000232945
-2.12522e-10
0.000232945
-3.06485e-10
0.000232945
-3.95377e-10
0.000232945
-4.78501e-10
0.000232945
-5.59057e-10
0.000232945
-6.37605e-10
0.000232945
-7.08311e-10
0.000232945
-7.71874e-10
0.000232945
-8.33051e-10
0.000232945
-8.87573e-10
0.000232945
-9.36091e-10
0.000232945
-9.79425e-10
0.000232945
-1.01597e-09
0.000232945
-1.04685e-09
0.000232945
-1.0735e-09
0.000232945
-1.09579e-09
0.000232945
-1.11455e-09
0.000232945
-1.13026e-09
0.000232945
-1.14358e-09
0.000232945
-1.15592e-09
0.000232945
-1.16754e-09
0.000232945
-1.17786e-09
0.000232945
-1.19053e-09
0.000232945
-1.20569e-09
0.000232945
-1.22323e-09
0.000232945
-1.24187e-09
0.000232945
-1.26559e-09
0.000232945
-1.29321e-09
0.000232945
-1.32371e-09
0.000232945
-1.35621e-09
0.000232945
-1.37543e-09
0.000232945
-1.50182e-09
-1.14582e-09
0.000232944
1.21467e-09
0.000232944
1.42085e-09
0.000232944
1.41287e-09
0.000232944
1.32432e-09
0.000232944
1.20645e-09
0.000232944
1.07484e-09
0.000232944
9.35891e-10
0.000232944
7.91115e-10
0.000232944
6.42815e-10
0.000232944
4.9254e-10
0.000232944
3.4285e-10
0.000232944
1.9142e-10
0.000232944
4.30248e-11
0.000232944
-9.01961e-11
0.000232944
-3.23233e-10
-7.85022e-11