# y+ ()       
# Time        	patch         	min           	max           	average       
47000         	bottomWall	9.910458e-01	9.910458e-01	9.910458e-01
47000         	topWall	9.978922e-01	9.978922e-01	9.978922e-01
