# y+ ()       
# Time        	patch         	min           	max           	average       
46000         	bottomWall	9.910458e-01	9.910458e-01	9.910458e-01
46000         	topWall	9.978922e-01	9.978922e-01	9.978922e-01
