# y+ ()       
# Time        	patch         	min           	max           	average       
50000         	bottomWall	9.910458e-01	9.910458e-01	9.910458e-01
50000         	topWall	9.978922e-01	9.978922e-01	9.978922e-01
