# y+ ()       
# Time        	patch         	min           	max           	average       
48500         	bottomWall	9.910458e-01	9.910458e-01	9.910458e-01
48500         	topWall	9.978922e-01	9.978922e-01	9.978922e-01
