# y+ ()       
# Time        	patch         	min           	max           	average       
49500         	bottomWall	9.910458e-01	9.910458e-01	9.910458e-01
49500         	topWall	9.978922e-01	9.978922e-01	9.978922e-01
