# y+ ()       
# Time        	patch         	min           	max           	average       
45500         	bottomWall	9.910458e-01	9.910458e-01	9.910458e-01
45500         	topWall	9.978922e-01	9.978922e-01	9.978922e-01
