# y+ ()       
# Time        	patch         	min           	max           	average       
0             	bottomWall	4.218647e+00	4.218647e+00	4.218647e+00
0             	topWall	4.233023e+00	4.233023e+00	4.233023e+00
