# y+ ()       
# Time        	patch         	min           	max           	average       
47500         	bottomWall	9.910458e-01	9.910458e-01	9.910458e-01
47500         	topWall	9.978922e-01	9.978922e-01	9.978922e-01
