# y+ ()       
# Time        	patch         	min           	max           	average       
49000         	bottomWall	9.910458e-01	9.910458e-01	9.910458e-01
49000         	topWall	9.978922e-01	9.978922e-01	9.978922e-01
