# Wall shear stress
# Time        	patch         	min           	max           
5.000000e+02	bottomWall	(-5.002823e-04 3.468905e-15 0.000000e+00)	(-5.002823e-04 3.468905e-15 0.000000e+00)
5.000000e+02	topWall	(-5.002823e-04 8.774888e-17 0.000000e+00)	(-5.002823e-04 8.774888e-17 0.000000e+00)
1.000000e+03	bottomWall	(-3.215378e-04 2.030662e-15 0.000000e+00)	(-3.215378e-04 2.030662e-15 0.000000e+00)
1.000000e+03	topWall	(-3.215378e-04 3.320669e-17 0.000000e+00)	(-3.215378e-04 3.320669e-17 0.000000e+00)
1.500000e+03	bottomWall	(-2.443305e-04 2.494651e-15 0.000000e+00)	(-2.443305e-04 2.494651e-15 0.000000e+00)
1.500000e+03	topWall	(-2.443305e-04 -1.435718e-16 0.000000e+00)	(-2.443305e-04 -1.435718e-16 0.000000e+00)
2.000000e+03	bottomWall	(-1.994284e-04 -2.043964e-15 0.000000e+00)	(-1.994284e-04 -2.043964e-15 0.000000e+00)
2.000000e+03	topWall	(-1.994284e-04 -6.863198e-17 0.000000e+00)	(-1.994284e-04 -6.863198e-17 0.000000e+00)
2.500000e+03	bottomWall	(-1.695294e-04 -6.694276e-15 0.000000e+00)	(-1.695294e-04 -6.694276e-15 0.000000e+00)
2.500000e+03	topWall	(-1.695294e-04 5.664515e-17 0.000000e+00)	(-1.695294e-04 5.664515e-17 0.000000e+00)
3.000000e+03	bottomWall	(-1.479996e-04 7.536183e-15 0.000000e+00)	(-1.479996e-04 7.536183e-15 0.000000e+00)
3.000000e+03	topWall	(-1.479996e-04 -1.096941e-17 0.000000e+00)	(-1.479996e-04 -1.096941e-17 0.000000e+00)
3.500000e+03	bottomWall	(-1.316790e-04 4.323859e-15 0.000000e+00)	(-1.316790e-04 4.323859e-15 0.000000e+00)
3.500000e+03	topWall	(-1.316790e-04 4.535701e-18 0.000000e+00)	(-1.316790e-04 4.535701e-18 0.000000e+00)
4.000000e+03	bottomWall	(-1.188508e-04 1.712118e-15 0.000000e+00)	(-1.188508e-04 1.712118e-15 0.000000e+00)
4.000000e+03	topWall	(-1.188508e-04 -5.007556e-17 0.000000e+00)	(-1.188508e-04 -5.007556e-17 0.000000e+00)
4.500000e+03	bottomWall	(-1.085063e-04 2.626585e-15 0.000000e+00)	(-1.085063e-04 2.626585e-15 0.000000e+00)
4.500000e+03	topWall	(-1.085063e-04 2.733882e-17 0.000000e+00)	(-1.085063e-04 2.733882e-17 0.000000e+00)
5.000000e+03	bottomWall	(-1.000152e-04 1.245815e-15 0.000000e+00)	(-1.000152e-04 1.245815e-15 0.000000e+00)
5.000000e+03	topWall	(-1.000152e-04 -4.095343e-18 0.000000e+00)	(-1.000152e-04 -4.095343e-18 0.000000e+00)
5.500000e+03	bottomWall	(-9.296311e-05 3.501345e-15 0.000000e+00)	(-9.296311e-05 3.501345e-15 0.000000e+00)
5.500000e+03	topWall	(-9.296311e-05 -8.110077e-17 0.000000e+00)	(-9.296311e-05 -8.110077e-17 0.000000e+00)
6.000000e+03	bottomWall	(-8.706718e-05 -4.972143e-15 0.000000e+00)	(-8.706718e-05 -4.972143e-15 0.000000e+00)
6.000000e+03	topWall	(-8.706718e-05 -1.008466e-16 0.000000e+00)	(-8.706718e-05 -1.008466e-16 0.000000e+00)
6.500000e+03	bottomWall	(-8.212604e-05 -4.924600e-15 0.000000e+00)	(-8.212604e-05 -4.924600e-15 0.000000e+00)
6.500000e+03	topWall	(-8.212604e-05 3.561753e-17 0.000000e+00)	(-8.212604e-05 3.561753e-17 0.000000e+00)
7.000000e+03	bottomWall	(-7.798935e-05 1.978700e-15 0.000000e+00)	(-7.798935e-05 1.978700e-15 0.000000e+00)
7.000000e+03	topWall	(-7.798935e-05 -4.903053e-17 0.000000e+00)	(-7.798935e-05 -4.903053e-17 0.000000e+00)
7.500000e+03	bottomWall	(-7.453702e-05 -1.811471e-15 0.000000e+00)	(-7.453702e-05 -1.811471e-15 0.000000e+00)
7.500000e+03	topWall	(-7.453702e-05 -1.565506e-16 0.000000e+00)	(-7.453702e-05 -1.565506e-16 0.000000e+00)
8.000000e+03	bottomWall	(-7.166445e-05 9.945698e-15 0.000000e+00)	(-7.166445e-05 9.945698e-15 0.000000e+00)
8.000000e+03	topWall	(-7.166445e-05 -1.192241e-16 0.000000e+00)	(-7.166445e-05 -1.192241e-16 0.000000e+00)
8.500000e+03	bottomWall	(-6.927451e-05 -1.844057e-15 0.000000e+00)	(-6.927451e-05 -1.844057e-15 0.000000e+00)
8.500000e+03	topWall	(-6.927451e-05 -4.462746e-17 0.000000e+00)	(-6.927451e-05 -4.462746e-17 0.000000e+00)
9.000000e+03	bottomWall	(-6.727785e-05 3.670250e-15 0.000000e+00)	(-6.727785e-05 3.670250e-15 0.000000e+00)
9.000000e+03	topWall	(-6.727785e-05 -6.810735e-18 0.000000e+00)	(-6.727785e-05 -6.810735e-18 0.000000e+00)
9.500000e+03	bottomWall	(-6.559680e-05 1.145483e-14 0.000000e+00)	(-6.559680e-05 1.145483e-14 0.000000e+00)
9.500000e+03	topWall	(-6.559680e-05 7.197352e-17 0.000000e+00)	(-6.559680e-05 7.197352e-17 0.000000e+00)
1.000000e+04	bottomWall	(-6.416785e-05 1.557149e-15 0.000000e+00)	(-6.416785e-05 1.557149e-15 0.000000e+00)
1.000000e+04	topWall	(-6.416785e-05 1.032883e-17 0.000000e+00)	(-6.416785e-05 1.032883e-17 0.000000e+00)
1.050000e+04	bottomWall	(-6.294167e-05 -8.089352e-15 0.000000e+00)	(-6.294167e-05 -8.089352e-15 0.000000e+00)
1.050000e+04	topWall	(-6.294167e-05 1.046396e-16 0.000000e+00)	(-6.294167e-05 1.046396e-16 0.000000e+00)
1.100000e+04	bottomWall	(-6.188230e-05 8.000190e-16 0.000000e+00)	(-6.188230e-05 8.000190e-16 0.000000e+00)
1.100000e+04	topWall	(-6.188230e-05 -6.605567e-17 0.000000e+00)	(-6.188230e-05 -6.605567e-17 0.000000e+00)
1.150000e+04	bottomWall	(-6.096556e-05 2.340153e-14 0.000000e+00)	(-6.096556e-05 2.340153e-14 0.000000e+00)
1.150000e+04	topWall	(-6.096556e-05 1.562046e-17 0.000000e+00)	(-6.096556e-05 1.562046e-17 0.000000e+00)
1.200000e+04	bottomWall	(-6.017483e-05 -1.115210e-15 0.000000e+00)	(-6.017483e-05 -1.115210e-15 0.000000e+00)
1.200000e+04	topWall	(-6.017483e-05 -9.008216e-17 0.000000e+00)	(-6.017483e-05 -9.008216e-17 0.000000e+00)
1.250000e+04	bottomWall	(-5.948624e-05 -4.752789e-15 0.000000e+00)	(-5.948624e-05 -4.752789e-15 0.000000e+00)
1.250000e+04	topWall	(-5.948624e-05 -5.015495e-17 0.000000e+00)	(-5.948624e-05 -5.015495e-17 0.000000e+00)
1.300000e+04	bottomWall	(-5.888537e-05 -2.637315e-15 0.000000e+00)	(-5.888537e-05 -2.637315e-15 0.000000e+00)
1.300000e+04	topWall	(-5.888537e-05 -4.765837e-17 0.000000e+00)	(-5.888537e-05 -4.765837e-17 0.000000e+00)
1.350000e+04	bottomWall	(-5.836660e-05 3.035672e-15 0.000000e+00)	(-5.836660e-05 3.035672e-15 0.000000e+00)
1.350000e+04	topWall	(-5.836660e-05 1.464921e-16 0.000000e+00)	(-5.836660e-05 1.464921e-16 0.000000e+00)
1.400000e+04	bottomWall	(-5.792590e-05 5.171870e-16 0.000000e+00)	(-5.792590e-05 5.171870e-16 0.000000e+00)
1.400000e+04	topWall	(-5.792590e-05 -4.045530e-17 0.000000e+00)	(-5.792590e-05 -4.045530e-17 0.000000e+00)
1.450000e+04	bottomWall	(-5.755955e-05 -2.244912e-15 0.000000e+00)	(-5.755955e-05 -2.244912e-15 0.000000e+00)
1.450000e+04	topWall	(-5.755955e-05 -2.678402e-17 0.000000e+00)	(-5.755955e-05 -2.678402e-17 0.000000e+00)
1.500000e+04	bottomWall	(-5.726344e-05 -4.662768e-15 0.000000e+00)	(-5.726344e-05 -4.662768e-15 0.000000e+00)
1.500000e+04	topWall	(-5.726344e-05 1.019677e-17 0.000000e+00)	(-5.726344e-05 1.019677e-17 0.000000e+00)
1.550000e+04	bottomWall	(-5.703314e-05 1.030099e-14 0.000000e+00)	(-5.703314e-05 1.030099e-14 0.000000e+00)
1.550000e+04	topWall	(-5.703314e-05 -8.450955e-17 0.000000e+00)	(-5.703314e-05 -8.450955e-17 0.000000e+00)
1.600000e+04	bottomWall	(-5.686375e-05 -5.443794e-15 0.000000e+00)	(-5.686375e-05 -5.443794e-15 0.000000e+00)
1.600000e+04	topWall	(-5.686375e-05 -1.904280e-17 0.000000e+00)	(-5.686375e-05 -1.904280e-17 0.000000e+00)
1.650000e+04	bottomWall	(-5.674998e-05 -4.309969e-15 0.000000e+00)	(-5.674998e-05 -4.309969e-15 0.000000e+00)
1.650000e+04	topWall	(-5.674998e-05 -1.440359e-16 0.000000e+00)	(-5.674998e-05 -1.440359e-16 0.000000e+00)
1.700000e+04	bottomWall	(-5.668647e-05 -1.953703e-15 0.000000e+00)	(-5.668647e-05 -1.953703e-15 0.000000e+00)
1.700000e+04	topWall	(-5.668647e-05 3.477100e-17 0.000000e+00)	(-5.668647e-05 3.477100e-17 0.000000e+00)
1.750000e+04	bottomWall	(-5.666778e-05 -9.420074e-16 0.000000e+00)	(-5.666778e-05 -9.420074e-16 0.000000e+00)
1.750000e+04	topWall	(-5.666778e-05 -6.406392e-18 0.000000e+00)	(-5.666778e-05 -6.406392e-18 0.000000e+00)
1.800000e+04	bottomWall	(-5.668838e-05 -3.326173e-15 0.000000e+00)	(-5.668838e-05 -3.326173e-15 0.000000e+00)
1.800000e+04	topWall	(-5.668838e-05 5.253187e-17 0.000000e+00)	(-5.668838e-05 5.253187e-17 0.000000e+00)
1.850000e+04	bottomWall	(-5.674281e-05 -3.574029e-15 0.000000e+00)	(-5.674281e-05 -3.574029e-15 0.000000e+00)
1.850000e+04	topWall	(-5.674281e-05 -9.710312e-17 0.000000e+00)	(-5.674281e-05 -9.710312e-17 0.000000e+00)
1.900000e+04	bottomWall	(-5.682583e-05 4.499394e-15 0.000000e+00)	(-5.682583e-05 4.499394e-15 0.000000e+00)
1.900000e+04	topWall	(-5.682583e-05 8.534204e-17 0.000000e+00)	(-5.682583e-05 8.534204e-17 0.000000e+00)
1.950000e+04	bottomWall	(-5.693238e-05 1.530841e-15 0.000000e+00)	(-5.693238e-05 1.530841e-15 0.000000e+00)
1.950000e+04	topWall	(-5.693238e-05 -1.098400e-17 0.000000e+00)	(-5.693238e-05 -1.098400e-17 0.000000e+00)
2.000000e+04	bottomWall	(-5.705769e-05 3.777169e-15 0.000000e+00)	(-5.705769e-05 3.777169e-15 0.000000e+00)
2.000000e+04	topWall	(-5.705769e-05 -6.576577e-18 0.000000e+00)	(-5.705769e-05 -6.576577e-18 0.000000e+00)
2.050000e+04	bottomWall	(-5.719735e-05 3.477024e-15 0.000000e+00)	(-5.719735e-05 3.477024e-15 0.000000e+00)
2.050000e+04	topWall	(-5.719735e-05 -1.323047e-18 0.000000e+00)	(-5.719735e-05 -1.323047e-18 0.000000e+00)
2.100000e+04	bottomWall	(-5.734748e-05 2.544368e-15 0.000000e+00)	(-5.734748e-05 2.544368e-15 0.000000e+00)
2.100000e+04	topWall	(-5.734748e-05 1.194607e-16 0.000000e+00)	(-5.734748e-05 1.194607e-16 0.000000e+00)
2.150000e+04	bottomWall	(-5.750467e-05 3.647034e-15 0.000000e+00)	(-5.750467e-05 3.647034e-15 0.000000e+00)
2.150000e+04	topWall	(-5.750467e-05 -2.928639e-17 0.000000e+00)	(-5.750467e-05 -2.928639e-17 0.000000e+00)
2.200000e+04	bottomWall	(-5.766596e-05 4.097812e-15 0.000000e+00)	(-5.766596e-05 4.097812e-15 0.000000e+00)
2.200000e+04	topWall	(-5.766596e-05 -4.110847e-17 0.000000e+00)	(-5.766596e-05 -4.110847e-17 0.000000e+00)
2.250000e+04	bottomWall	(-5.782883e-05 2.463698e-15 0.000000e+00)	(-5.782883e-05 2.463698e-15 0.000000e+00)
2.250000e+04	topWall	(-5.782883e-05 5.106382e-17 0.000000e+00)	(-5.782883e-05 5.106382e-17 0.000000e+00)
2.300000e+04	bottomWall	(-5.799110e-05 -4.412111e-15 0.000000e+00)	(-5.799110e-05 -4.412111e-15 0.000000e+00)
2.300000e+04	topWall	(-5.799110e-05 4.206818e-17 0.000000e+00)	(-5.799110e-05 4.206818e-17 0.000000e+00)
2.350000e+04	bottomWall	(-5.815097e-05 5.714998e-15 0.000000e+00)	(-5.815097e-05 5.714998e-15 0.000000e+00)
2.350000e+04	topWall	(-5.815097e-05 1.262097e-17 0.000000e+00)	(-5.815097e-05 1.262097e-17 0.000000e+00)
2.400000e+04	bottomWall	(-5.830698e-05 3.221077e-15 0.000000e+00)	(-5.830698e-05 3.221077e-15 0.000000e+00)
2.400000e+04	topWall	(-5.830698e-05 -8.571015e-17 0.000000e+00)	(-5.830698e-05 -8.571015e-17 0.000000e+00)
2.450000e+04	bottomWall	(-5.845795e-05 -1.066222e-15 0.000000e+00)	(-5.845795e-05 -1.066222e-15 0.000000e+00)
2.450000e+04	topWall	(-5.845795e-05 -4.240968e-18 0.000000e+00)	(-5.845795e-05 -4.240968e-18 0.000000e+00)
2.500000e+04	bottomWall	(-5.860294e-05 2.542598e-15 0.000000e+00)	(-5.860294e-05 2.542598e-15 0.000000e+00)
2.500000e+04	topWall	(-5.860294e-05 -1.796212e-17 0.000000e+00)	(-5.860294e-05 -1.796212e-17 0.000000e+00)
2.550000e+04	bottomWall	(-5.874124e-05 -2.835613e-15 0.000000e+00)	(-5.874124e-05 -2.835613e-15 0.000000e+00)
2.550000e+04	topWall	(-5.874124e-05 5.986981e-17 0.000000e+00)	(-5.874124e-05 5.986981e-17 0.000000e+00)
2.600000e+04	bottomWall	(-5.887232e-05 1.267857e-15 0.000000e+00)	(-5.887232e-05 1.267857e-15 0.000000e+00)
2.600000e+04	topWall	(-5.887232e-05 -3.101126e-17 0.000000e+00)	(-5.887232e-05 -3.101126e-17 0.000000e+00)
2.650000e+04	bottomWall	(-5.899581e-05 8.038786e-16 0.000000e+00)	(-5.899581e-05 8.038786e-16 0.000000e+00)
2.650000e+04	topWall	(-5.899581e-05 8.266646e-17 0.000000e+00)	(-5.899581e-05 8.266646e-17 0.000000e+00)
2.700000e+04	bottomWall	(-5.911150e-05 5.978511e-15 0.000000e+00)	(-5.911150e-05 5.978511e-15 0.000000e+00)
2.700000e+04	topWall	(-5.911150e-05 4.784413e-17 0.000000e+00)	(-5.911150e-05 4.784413e-17 0.000000e+00)
2.750000e+04	bottomWall	(-5.921928e-05 2.820995e-15 0.000000e+00)	(-5.921928e-05 2.820995e-15 0.000000e+00)
2.750000e+04	topWall	(-5.921928e-05 8.259521e-17 0.000000e+00)	(-5.921928e-05 8.259521e-17 0.000000e+00)
2.800000e+04	bottomWall	(-5.931911e-05 -2.541912e-15 0.000000e+00)	(-5.931911e-05 -2.541912e-15 0.000000e+00)
2.800000e+04	topWall	(-5.931911e-05 -1.074072e-16 0.000000e+00)	(-5.931911e-05 -1.074072e-16 0.000000e+00)
2.850000e+04	bottomWall	(-5.941101e-05 1.723837e-15 0.000000e+00)	(-5.941101e-05 1.723837e-15 0.000000e+00)
2.850000e+04	topWall	(-5.941101e-05 9.817578e-18 0.000000e+00)	(-5.941101e-05 9.817578e-18 0.000000e+00)
2.900000e+04	bottomWall	(-5.949514e-05 -3.696937e-15 0.000000e+00)	(-5.949514e-05 -3.696937e-15 0.000000e+00)
2.900000e+04	topWall	(-5.949514e-05 1.838422e-17 0.000000e+00)	(-5.949514e-05 1.838422e-17 0.000000e+00)
2.950000e+04	bottomWall	(-5.957181e-05 -4.904427e-15 0.000000e+00)	(-5.957181e-05 -4.904427e-15 0.000000e+00)
2.950000e+04	topWall	(-5.957181e-05 8.523901e-17 0.000000e+00)	(-5.957181e-05 8.523901e-17 0.000000e+00)
3.000000e+04	bottomWall	(-5.964138e-05 5.719377e-15 0.000000e+00)	(-5.964138e-05 5.719377e-15 0.000000e+00)
3.000000e+04	topWall	(-5.964138e-05 -3.588661e-17 0.000000e+00)	(-5.964138e-05 -3.588661e-17 0.000000e+00)
3.050000e+04	bottomWall	(-5.970418e-05 -3.492244e-15 0.000000e+00)	(-5.970418e-05 -3.492244e-15 0.000000e+00)
3.050000e+04	topWall	(-5.970418e-05 -7.408837e-17 0.000000e+00)	(-5.970418e-05 -7.408837e-17 0.000000e+00)
3.100000e+04	bottomWall	(-5.976051e-05 1.257509e-16 0.000000e+00)	(-5.976051e-05 1.257509e-16 0.000000e+00)
3.100000e+04	topWall	(-5.976051e-05 1.000533e-16 0.000000e+00)	(-5.976051e-05 1.000533e-16 0.000000e+00)
3.150000e+04	bottomWall	(-5.981067e-05 2.360982e-15 0.000000e+00)	(-5.981067e-05 2.360982e-15 0.000000e+00)
3.150000e+04	topWall	(-5.981067e-05 -2.584105e-17 0.000000e+00)	(-5.981067e-05 -2.584105e-17 0.000000e+00)
3.200000e+04	bottomWall	(-5.985498e-05 4.996179e-15 0.000000e+00)	(-5.985498e-05 4.996179e-15 0.000000e+00)
3.200000e+04	topWall	(-5.985498e-05 3.384251e-17 0.000000e+00)	(-5.985498e-05 3.384251e-17 0.000000e+00)
3.250000e+04	bottomWall	(-5.989380e-05 -5.571205e-16 0.000000e+00)	(-5.989380e-05 -5.571205e-16 0.000000e+00)
3.250000e+04	topWall	(-5.989380e-05 8.779668e-18 0.000000e+00)	(-5.989380e-05 8.779668e-18 0.000000e+00)
3.300000e+04	bottomWall	(-5.992746e-05 1.916480e-15 0.000000e+00)	(-5.992746e-05 1.916480e-15 0.000000e+00)
3.300000e+04	topWall	(-5.992746e-05 1.564903e-17 0.000000e+00)	(-5.992746e-05 1.564903e-17 0.000000e+00)
3.350000e+04	bottomWall	(-5.995633e-05 1.300687e-15 0.000000e+00)	(-5.995633e-05 1.300687e-15 0.000000e+00)
3.350000e+04	topWall	(-5.995633e-05 4.939497e-17 0.000000e+00)	(-5.995633e-05 4.939497e-17 0.000000e+00)
3.400000e+04	bottomWall	(-5.998076e-05 -2.799064e-15 0.000000e+00)	(-5.998076e-05 -2.799064e-15 0.000000e+00)
3.400000e+04	topWall	(-5.998076e-05 3.923348e-17 0.000000e+00)	(-5.998076e-05 3.923348e-17 0.000000e+00)
3.450000e+04	bottomWall	(-6.000109e-05 6.001802e-16 0.000000e+00)	(-6.000109e-05 6.001802e-16 0.000000e+00)
3.450000e+04	topWall	(-6.000109e-05 -3.915661e-17 0.000000e+00)	(-6.000109e-05 -3.915661e-17 0.000000e+00)
3.500000e+04	bottomWall	(-6.001768e-05 -1.865333e-16 0.000000e+00)	(-6.001768e-05 -1.865333e-16 0.000000e+00)
3.500000e+04	topWall	(-6.001768e-05 -1.480468e-17 0.000000e+00)	(-6.001768e-05 -1.480468e-17 0.000000e+00)
3.550000e+04	bottomWall	(-6.003085e-05 -3.187900e-15 0.000000e+00)	(-6.003085e-05 -3.187900e-15 0.000000e+00)
3.550000e+04	topWall	(-6.003085e-05 -2.965567e-17 0.000000e+00)	(-6.003085e-05 -2.965567e-17 0.000000e+00)
3.600000e+04	bottomWall	(-6.004092e-05 1.785448e-15 0.000000e+00)	(-6.004092e-05 1.785448e-15 0.000000e+00)
3.600000e+04	topWall	(-6.004092e-05 -5.224365e-17 0.000000e+00)	(-6.004092e-05 -5.224365e-17 0.000000e+00)
3.650000e+04	bottomWall	(-6.004820e-05 -7.770269e-15 0.000000e+00)	(-6.004820e-05 -7.770269e-15 0.000000e+00)
3.650000e+04	topWall	(-6.004820e-05 -1.631991e-17 0.000000e+00)	(-6.004820e-05 -1.631991e-17 0.000000e+00)
3.700000e+04	bottomWall	(-6.005298e-05 -1.039682e-15 0.000000e+00)	(-6.005298e-05 -1.039682e-15 0.000000e+00)
3.700000e+04	topWall	(-6.005298e-05 3.799763e-17 0.000000e+00)	(-6.005298e-05 3.799763e-17 0.000000e+00)
3.750000e+04	bottomWall	(-6.005553e-05 -4.328023e-17 0.000000e+00)	(-6.005553e-05 -4.328023e-17 0.000000e+00)
3.750000e+04	topWall	(-6.005553e-05 -1.763947e-17 0.000000e+00)	(-6.005553e-05 -1.763947e-17 0.000000e+00)
3.800000e+04	bottomWall	(-6.005612e-05 5.109482e-15 0.000000e+00)	(-6.005612e-05 5.109482e-15 0.000000e+00)
3.800000e+04	topWall	(-6.005612e-05 7.268414e-17 0.000000e+00)	(-6.005612e-05 7.268414e-17 0.000000e+00)
3.850000e+04	bottomWall	(-6.005498e-05 -6.106666e-15 0.000000e+00)	(-6.005498e-05 -6.106666e-15 0.000000e+00)
3.850000e+04	topWall	(-6.005498e-05 5.228424e-18 0.000000e+00)	(-6.005498e-05 5.228424e-18 0.000000e+00)
3.900000e+04	bottomWall	(-6.005235e-05 5.351285e-15 0.000000e+00)	(-6.005235e-05 5.351285e-15 0.000000e+00)
3.900000e+04	topWall	(-6.005235e-05 5.855968e-18 0.000000e+00)	(-6.005235e-05 5.855968e-18 0.000000e+00)
3.950000e+04	bottomWall	(-6.004843e-05 2.339639e-15 0.000000e+00)	(-6.004843e-05 2.339639e-15 0.000000e+00)
3.950000e+04	topWall	(-6.004843e-05 9.837896e-17 0.000000e+00)	(-6.004843e-05 9.837896e-17 0.000000e+00)
4.000000e+04	bottomWall	(-6.004343e-05 -1.441088e-15 0.000000e+00)	(-6.004343e-05 -1.441088e-15 0.000000e+00)
4.000000e+04	topWall	(-6.004343e-05 3.938932e-17 0.000000e+00)	(-6.004343e-05 3.938932e-17 0.000000e+00)
4.050000e+04	bottomWall	(-6.003753e-05 -9.184016e-15 0.000000e+00)	(-6.003753e-05 -9.184016e-15 0.000000e+00)
4.050000e+04	topWall	(-6.003753e-05 6.610133e-18 0.000000e+00)	(-6.003753e-05 6.610133e-18 0.000000e+00)
4.100000e+04	bottomWall	(-6.003088e-05 1.409184e-15 0.000000e+00)	(-6.003088e-05 1.409184e-15 0.000000e+00)
4.100000e+04	topWall	(-6.003088e-05 6.314722e-17 0.000000e+00)	(-6.003088e-05 6.314722e-17 0.000000e+00)
4.150000e+04	bottomWall	(-6.002366e-05 -2.647507e-16 0.000000e+00)	(-6.002366e-05 -2.647507e-16 0.000000e+00)
4.150000e+04	topWall	(-6.002366e-05 -2.704069e-17 0.000000e+00)	(-6.002366e-05 -2.704069e-17 0.000000e+00)
4.200000e+04	bottomWall	(-6.001598e-05 -2.442207e-15 0.000000e+00)	(-6.001598e-05 -2.442207e-15 0.000000e+00)
4.200000e+04	topWall	(-6.001598e-05 8.869081e-17 0.000000e+00)	(-6.001598e-05 8.869081e-17 0.000000e+00)
4.250000e+04	bottomWall	(-6.000799e-05 9.428975e-17 0.000000e+00)	(-6.000799e-05 9.428975e-17 0.000000e+00)
4.250000e+04	topWall	(-6.000799e-05 -2.202053e-17 0.000000e+00)	(-6.000799e-05 -2.202053e-17 0.000000e+00)
4.300000e+04	bottomWall	(-5.999978e-05 2.387841e-15 0.000000e+00)	(-5.999978e-05 2.387841e-15 0.000000e+00)
4.300000e+04	topWall	(-5.999978e-05 8.055348e-18 0.000000e+00)	(-5.999978e-05 8.055348e-18 0.000000e+00)
4.350000e+04	bottomWall	(-5.999147e-05 -4.543634e-15 0.000000e+00)	(-5.999147e-05 -4.543634e-15 0.000000e+00)
4.350000e+04	topWall	(-5.999147e-05 -2.406126e-17 0.000000e+00)	(-5.999147e-05 -2.406126e-17 0.000000e+00)
4.400000e+04	bottomWall	(-5.998314e-05 5.952867e-15 0.000000e+00)	(-5.998314e-05 5.952867e-15 0.000000e+00)
4.400000e+04	topWall	(-5.998314e-05 2.294540e-17 0.000000e+00)	(-5.998314e-05 2.294540e-17 0.000000e+00)
4.450000e+04	bottomWall	(-5.997486e-05 5.698719e-15 0.000000e+00)	(-5.997486e-05 5.698719e-15 0.000000e+00)
4.450000e+04	topWall	(-5.997486e-05 1.443606e-17 0.000000e+00)	(-5.997486e-05 1.443606e-17 0.000000e+00)
4.500000e+04	bottomWall	(-5.996670e-05 -4.234180e-16 0.000000e+00)	(-5.996670e-05 -4.234180e-16 0.000000e+00)
4.500000e+04	topWall	(-5.996670e-05 5.529091e-17 0.000000e+00)	(-5.996670e-05 5.529091e-17 0.000000e+00)
4.550000e+04	bottomWall	(-5.995872e-05 5.432766e-15 0.000000e+00)	(-5.995872e-05 5.432766e-15 0.000000e+00)
4.550000e+04	topWall	(-5.995872e-05 5.346794e-17 0.000000e+00)	(-5.995872e-05 5.346794e-17 0.000000e+00)
4.600000e+04	bottomWall	(-5.995096e-05 4.282412e-15 0.000000e+00)	(-5.995096e-05 4.282412e-15 0.000000e+00)
4.600000e+04	topWall	(-5.995096e-05 -7.677496e-17 0.000000e+00)	(-5.995096e-05 -7.677496e-17 0.000000e+00)
4.650000e+04	bottomWall	(-5.994346e-05 4.441857e-16 0.000000e+00)	(-5.994346e-05 4.441857e-16 0.000000e+00)
4.650000e+04	topWall	(-5.994346e-05 2.967136e-17 0.000000e+00)	(-5.994346e-05 2.967136e-17 0.000000e+00)
4.700000e+04	bottomWall	(-5.993626e-05 -1.086574e-15 0.000000e+00)	(-5.993626e-05 -1.086574e-15 0.000000e+00)
4.700000e+04	topWall	(-5.993626e-05 2.288025e-17 0.000000e+00)	(-5.993626e-05 2.288025e-17 0.000000e+00)
4.750000e+04	bottomWall	(-5.992938e-05 7.067010e-15 0.000000e+00)	(-5.992938e-05 7.067010e-15 0.000000e+00)
4.750000e+04	topWall	(-5.992938e-05 3.516988e-17 0.000000e+00)	(-5.992938e-05 3.516988e-17 0.000000e+00)
4.800000e+04	bottomWall	(-5.992285e-05 -5.739085e-15 0.000000e+00)	(-5.992285e-05 -5.739085e-15 0.000000e+00)
4.800000e+04	topWall	(-5.992285e-05 -4.071803e-17 0.000000e+00)	(-5.992285e-05 -4.071803e-17 0.000000e+00)
4.850000e+04	bottomWall	(-5.991668e-05 2.245143e-15 0.000000e+00)	(-5.991668e-05 2.245143e-15 0.000000e+00)
4.850000e+04	topWall	(-5.991668e-05 -3.922709e-17 0.000000e+00)	(-5.991668e-05 -3.922709e-17 0.000000e+00)
4.900000e+04	bottomWall	(-5.991089e-05 -4.658052e-15 0.000000e+00)	(-5.991089e-05 -4.658052e-15 0.000000e+00)
4.900000e+04	topWall	(-5.991089e-05 -6.380354e-17 0.000000e+00)	(-5.991089e-05 -6.380354e-17 0.000000e+00)
4.950000e+04	bottomWall	(-5.990548e-05 -6.362993e-16 0.000000e+00)	(-5.990548e-05 -6.362993e-16 0.000000e+00)
4.950000e+04	topWall	(-5.990548e-05 1.600425e-17 0.000000e+00)	(-5.990548e-05 1.600425e-17 0.000000e+00)
5.000000e+04	bottomWall	(-5.990045e-05 -2.539714e-15 0.000000e+00)	(-5.990045e-05 -2.539714e-15 0.000000e+00)
5.000000e+04	topWall	(-5.990045e-05 -7.187018e-17 0.000000e+00)	(-5.990045e-05 -7.187018e-17 0.000000e+00)
5.050000e+04	bottomWall	(-5.989581e-05 3.725058e-15 0.000000e+00)	(-5.989581e-05 3.725058e-15 0.000000e+00)
5.050000e+04	topWall	(-5.989581e-05 1.107874e-16 0.000000e+00)	(-5.989581e-05 1.107874e-16 0.000000e+00)
5.100000e+04	bottomWall	(-5.989155e-05 9.001541e-16 0.000000e+00)	(-5.989155e-05 9.001541e-16 0.000000e+00)
5.100000e+04	topWall	(-5.989155e-05 2.912991e-17 0.000000e+00)	(-5.989155e-05 2.912991e-17 0.000000e+00)
5.150000e+04	bottomWall	(-5.988766e-05 7.862036e-15 0.000000e+00)	(-5.988766e-05 7.862036e-15 0.000000e+00)
5.150000e+04	topWall	(-5.988766e-05 1.053043e-17 0.000000e+00)	(-5.988766e-05 1.053043e-17 0.000000e+00)
5.200000e+04	bottomWall	(-5.988412e-05 -9.310427e-16 0.000000e+00)	(-5.988412e-05 -9.310427e-16 0.000000e+00)
5.200000e+04	topWall	(-5.988412e-05 5.724745e-17 0.000000e+00)	(-5.988412e-05 5.724745e-17 0.000000e+00)
5.250000e+04	bottomWall	(-5.988092e-05 4.777662e-15 0.000000e+00)	(-5.988092e-05 4.777662e-15 0.000000e+00)
5.250000e+04	topWall	(-5.988092e-05 -9.367790e-17 0.000000e+00)	(-5.988092e-05 -9.367790e-17 0.000000e+00)
5.300000e+04	bottomWall	(-5.987804e-05 2.515472e-15 0.000000e+00)	(-5.987804e-05 2.515472e-15 0.000000e+00)
5.300000e+04	topWall	(-5.987804e-05 -4.758873e-17 0.000000e+00)	(-5.987804e-05 -4.758873e-17 0.000000e+00)
5.350000e+04	bottomWall	(-5.987548e-05 -2.218649e-15 0.000000e+00)	(-5.987548e-05 -2.218649e-15 0.000000e+00)
5.350000e+04	topWall	(-5.987548e-05 4.921223e-18 0.000000e+00)	(-5.987548e-05 4.921223e-18 0.000000e+00)
5.400000e+04	bottomWall	(-5.987321e-05 -2.023554e-15 0.000000e+00)	(-5.987321e-05 -2.023554e-15 0.000000e+00)
5.400000e+04	topWall	(-5.987321e-05 -3.894707e-17 0.000000e+00)	(-5.987321e-05 -3.894707e-17 0.000000e+00)
5.450000e+04	bottomWall	(-5.987123e-05 -2.064506e-15 0.000000e+00)	(-5.987123e-05 -2.064506e-15 0.000000e+00)
5.450000e+04	topWall	(-5.987123e-05 -5.839783e-17 0.000000e+00)	(-5.987123e-05 -5.839783e-17 0.000000e+00)
5.500000e+04	bottomWall	(-5.986952e-05 1.088101e-15 0.000000e+00)	(-5.986952e-05 1.088101e-15 0.000000e+00)
5.500000e+04	topWall	(-5.986952e-05 -1.135048e-16 0.000000e+00)	(-5.986952e-05 -1.135048e-16 0.000000e+00)
5.550000e+04	bottomWall	(-5.986806e-05 3.148044e-15 0.000000e+00)	(-5.986806e-05 3.148044e-15 0.000000e+00)
5.550000e+04	topWall	(-5.986805e-05 -1.611764e-17 0.000000e+00)	(-5.986805e-05 -1.611764e-17 0.000000e+00)
5.600000e+04	bottomWall	(-5.986683e-05 8.869936e-15 0.000000e+00)	(-5.986683e-05 8.869936e-15 0.000000e+00)
5.600000e+04	topWall	(-5.986683e-05 -2.070923e-17 0.000000e+00)	(-5.986683e-05 -2.070923e-17 0.000000e+00)
5.650000e+04	bottomWall	(-5.986582e-05 -3.212742e-15 0.000000e+00)	(-5.986582e-05 -3.212742e-15 0.000000e+00)
5.650000e+04	topWall	(-5.986582e-05 6.476608e-18 0.000000e+00)	(-5.986582e-05 6.476608e-18 0.000000e+00)
5.700000e+04	bottomWall	(-5.986501e-05 -4.619029e-15 0.000000e+00)	(-5.986501e-05 -4.619029e-15 0.000000e+00)
5.700000e+04	topWall	(-5.986501e-05 6.086342e-17 0.000000e+00)	(-5.986501e-05 6.086342e-17 0.000000e+00)
5.750000e+04	bottomWall	(-5.986438e-05 -3.012136e-15 0.000000e+00)	(-5.986438e-05 -3.012136e-15 0.000000e+00)
5.750000e+04	topWall	(-5.986438e-05 9.078714e-17 0.000000e+00)	(-5.986438e-05 9.078714e-17 0.000000e+00)
5.800000e+04	bottomWall	(-5.986392e-05 -1.750157e-15 0.000000e+00)	(-5.986392e-05 -1.750157e-15 0.000000e+00)
5.800000e+04	topWall	(-5.986392e-05 8.259399e-20 0.000000e+00)	(-5.986392e-05 8.259399e-20 0.000000e+00)
5.850000e+04	bottomWall	(-5.986360e-05 6.918773e-15 0.000000e+00)	(-5.986360e-05 6.918773e-15 0.000000e+00)
5.850000e+04	topWall	(-5.986360e-05 9.227844e-18 0.000000e+00)	(-5.986360e-05 9.227844e-18 0.000000e+00)
5.900000e+04	bottomWall	(-5.986343e-05 -2.589484e-15 0.000000e+00)	(-5.986343e-05 -2.589484e-15 0.000000e+00)
5.900000e+04	topWall	(-5.986343e-05 4.589181e-17 0.000000e+00)	(-5.986343e-05 4.589181e-17 0.000000e+00)
5.950000e+04	bottomWall	(-5.986337e-05 8.452248e-15 0.000000e+00)	(-5.986337e-05 8.452248e-15 0.000000e+00)
5.950000e+04	topWall	(-5.986337e-05 9.205981e-17 0.000000e+00)	(-5.986337e-05 9.205981e-17 0.000000e+00)
6.000000e+04	bottomWall	(-5.986341e-05 7.286818e-15 0.000000e+00)	(-5.986341e-05 7.286818e-15 0.000000e+00)
6.000000e+04	topWall	(-5.986341e-05 -9.245115e-18 0.000000e+00)	(-5.986341e-05 -9.245115e-18 0.000000e+00)
6.050000e+04	bottomWall	(-5.986355e-05 -6.985000e-15 0.000000e+00)	(-5.986355e-05 -6.985000e-15 0.000000e+00)
6.050000e+04	topWall	(-5.986355e-05 5.531403e-17 0.000000e+00)	(-5.986355e-05 5.531403e-17 0.000000e+00)
6.100000e+04	bottomWall	(-5.986377e-05 -4.189465e-15 0.000000e+00)	(-5.986377e-05 -4.189465e-15 0.000000e+00)
6.100000e+04	topWall	(-5.986377e-05 5.479747e-17 0.000000e+00)	(-5.986377e-05 5.479747e-17 0.000000e+00)
6.150000e+04	bottomWall	(-5.986406e-05 3.980504e-15 0.000000e+00)	(-5.986406e-05 3.980504e-15 0.000000e+00)
6.150000e+04	topWall	(-5.986406e-05 -6.712369e-18 0.000000e+00)	(-5.986406e-05 -6.712369e-18 0.000000e+00)
6.200000e+04	bottomWall	(-5.986442e-05 -3.493382e-15 0.000000e+00)	(-5.986442e-05 -3.493382e-15 0.000000e+00)
6.200000e+04	topWall	(-5.986442e-05 2.499998e-17 0.000000e+00)	(-5.986442e-05 2.499998e-17 0.000000e+00)
6.250000e+04	bottomWall	(-5.986482e-05 2.589042e-15 0.000000e+00)	(-5.986482e-05 2.589042e-15 0.000000e+00)
6.250000e+04	topWall	(-5.986482e-05 7.518789e-17 0.000000e+00)	(-5.986482e-05 7.518789e-17 0.000000e+00)
6.300000e+04	bottomWall	(-5.986527e-05 4.385237e-15 0.000000e+00)	(-5.986527e-05 4.385237e-15 0.000000e+00)
6.300000e+04	topWall	(-5.986527e-05 1.019800e-16 0.000000e+00)	(-5.986527e-05 1.019800e-16 0.000000e+00)
6.350000e+04	bottomWall	(-5.986575e-05 2.947490e-16 0.000000e+00)	(-5.986575e-05 2.947490e-16 0.000000e+00)
6.350000e+04	topWall	(-5.986575e-05 1.404699e-17 0.000000e+00)	(-5.986575e-05 1.404699e-17 0.000000e+00)
6.400000e+04	bottomWall	(-5.986625e-05 2.816450e-15 0.000000e+00)	(-5.986625e-05 2.816450e-15 0.000000e+00)
6.400000e+04	topWall	(-5.986625e-05 4.742235e-17 0.000000e+00)	(-5.986625e-05 4.742235e-17 0.000000e+00)
6.450000e+04	bottomWall	(-5.986675e-05 6.590305e-15 0.000000e+00)	(-5.986675e-05 6.590305e-15 0.000000e+00)
6.450000e+04	topWall	(-5.986675e-05 1.162217e-18 0.000000e+00)	(-5.986675e-05 1.162217e-18 0.000000e+00)
6.500000e+04	bottomWall	(-5.986725e-05 -4.091251e-15 0.000000e+00)	(-5.986725e-05 -4.091251e-15 0.000000e+00)
6.500000e+04	topWall	(-5.986725e-05 -2.298493e-17 0.000000e+00)	(-5.986725e-05 -2.298493e-17 0.000000e+00)
6.550000e+04	bottomWall	(-5.986773e-05 -7.702062e-16 0.000000e+00)	(-5.986773e-05 -7.702062e-16 0.000000e+00)
6.550000e+04	topWall	(-5.986773e-05 2.761307e-17 0.000000e+00)	(-5.986773e-05 2.761307e-17 0.000000e+00)
6.600000e+04	bottomWall	(-5.986819e-05 2.633825e-15 0.000000e+00)	(-5.986819e-05 2.633825e-15 0.000000e+00)
6.600000e+04	topWall	(-5.986819e-05 -5.338681e-17 0.000000e+00)	(-5.986819e-05 -5.338681e-17 0.000000e+00)
6.650000e+04	bottomWall	(-5.986862e-05 3.766513e-15 0.000000e+00)	(-5.986862e-05 3.766513e-15 0.000000e+00)
6.650000e+04	topWall	(-5.986862e-05 1.576872e-17 0.000000e+00)	(-5.986862e-05 1.576872e-17 0.000000e+00)
6.700000e+04	bottomWall	(-5.986901e-05 3.733720e-15 0.000000e+00)	(-5.986901e-05 3.733720e-15 0.000000e+00)
6.700000e+04	topWall	(-5.986901e-05 -1.392460e-17 0.000000e+00)	(-5.986901e-05 -1.392460e-17 0.000000e+00)
6.750000e+04	bottomWall	(-5.986937e-05 -5.922959e-16 0.000000e+00)	(-5.986937e-05 -5.922959e-16 0.000000e+00)
6.750000e+04	topWall	(-5.986937e-05 -3.627606e-20 0.000000e+00)	(-5.986937e-05 -3.627606e-20 0.000000e+00)
6.800000e+04	bottomWall	(-5.986968e-05 7.364381e-15 0.000000e+00)	(-5.986968e-05 7.364381e-15 0.000000e+00)
6.800000e+04	topWall	(-5.986968e-05 -3.616685e-18 0.000000e+00)	(-5.986968e-05 -3.616685e-18 0.000000e+00)
6.850000e+04	bottomWall	(-5.986995e-05 4.669190e-15 0.000000e+00)	(-5.986995e-05 4.669190e-15 0.000000e+00)
6.850000e+04	topWall	(-5.986995e-05 4.070567e-18 0.000000e+00)	(-5.986995e-05 4.070567e-18 0.000000e+00)
6.900000e+04	bottomWall	(-5.987018e-05 1.051946e-14 0.000000e+00)	(-5.987018e-05 1.051946e-14 0.000000e+00)
6.900000e+04	topWall	(-5.987018e-05 -3.163787e-17 0.000000e+00)	(-5.987018e-05 -3.163787e-17 0.000000e+00)
6.950000e+04	bottomWall	(-5.987037e-05 1.082961e-15 0.000000e+00)	(-5.987037e-05 1.082961e-15 0.000000e+00)
6.950000e+04	topWall	(-5.987037e-05 9.661667e-19 0.000000e+00)	(-5.987037e-05 9.661667e-19 0.000000e+00)