# y+ ()       
# Time        	patch         	min           	max           	average       
3500          	bottomWall	5.228251e-01	5.228378e-01	5.228329e-01
3500          	topWall	5.267568e-01	5.267773e-01	5.267672e-01
