/*--------------------------------*- C++ -*----------------------------------*\
  =========                 |
  \\      /  F ield         | OpenFOAM: The Open Source CFD Toolbox
   \\    /   O peration     | Website:  https://openfoam.org
    \\  /    A nd           | Version:  7
     \\/     M anipulation  |
\*---------------------------------------------------------------------------*/
FoamFile
{
    version     2.0;
    format      ascii;
    class       volVectorField;
    location    "17000";
    object      U;
}
// * * * * * * * * * * * * * * * * * * * * * * * * * * * * * * * * * * * * * //

dimensions      [0 1 -1 0 0 0 0];

internalField   nonuniform List<vector> 
24000
(
(0.00398206 5.91318e-11 7.46496e-16)
(0.00398207 -9.06322e-11 7.30149e-16)
(0.00398209 -1.17874e-10 7.37724e-16)
(0.0039821 -8.23081e-11 6.67375e-16)
(0.00398211 -2.78843e-11 3.68783e-16)
(0.0039821 1.8385e-11 6.46749e-16)
(0.0039821 5.47425e-11 3.79661e-16)
(0.00398208 7.84922e-11 6.70182e-16)
(0.00398207 9.21e-11 7.12026e-16)
(0.00398205 9.80194e-11 4.12825e-16)
(0.00398203 9.39347e-11 6.8237e-16)
(0.00398202 8.53039e-11 6.88075e-16)
(0.003982 7.99988e-11 6.9189e-16)
(0.00398199 6.99691e-11 6.67361e-16)
(0.00398198 6.12675e-11 6.44189e-16)
(0.00398197 5.486e-11 6.89254e-16)
(0.00398196 4.19133e-11 6.74551e-16)
(0.00398196 3.49521e-11 6.73033e-16)
(0.00398195 2.6246e-11 6.48804e-16)
(0.00398195 1.46059e-11 6.08356e-16)
(0.00398195 7.06736e-12 6.8668e-16)
(0.00398194 1.80397e-13 6.24083e-16)
(0.00398195 -6.51325e-12 6.46651e-16)
(0.00398195 -1.57396e-11 6.30988e-16)
(0.00398195 -2.32329e-11 5.72723e-16)
(0.00398196 -2.54392e-11 6.61732e-16)
(0.00398196 -3.10819e-11 6.25649e-16)
(0.00398197 -3.79508e-11 6.46494e-16)
(0.00398197 -3.91121e-11 6.15712e-16)
(0.00398198 -4.10175e-11 5.54851e-16)
(0.00398199 -4.75796e-11 6.45101e-16)
(0.003982 -5.10867e-11 6.2524e-16)
(0.003982 -5.14791e-11 6.44489e-16)
(0.00398201 -5.26279e-11 6.17126e-16)
(0.00398202 -5.59225e-11 5.5866e-16)
(0.00398203 -5.74364e-11 6.43759e-16)
(0.00398204 -5.57911e-11 6.24318e-16)
(0.00398205 -5.8385e-11 6.44141e-16)
(0.00398206 -5.6033e-11 6.13207e-16)
(0.00398207 -5.87713e-11 5.64716e-16)
(0.00398208 -4.98522e-11 6.0031e-16)
(0.00398209 -4.47626e-11 7.7197e-16)
(0.00398209 -2.874e-11 6.60454e-16)
(0.0039821 -1.45266e-11 6.60429e-16)
(0.0039821 -1.32277e-12 6.70835e-16)
(0.0039821 3.12623e-11 6.78214e-16)
(0.0039821 2.92007e-11 8.31185e-16)
(0.0039821 2.73901e-11 6.89741e-16)
(0.0039821 1.8957e-11 6.8048e-16)
(0.0039821 5.28828e-12 6.89473e-16)
(0.0039821 1.87772e-13 6.95704e-16)
(0.0039821 -7.33106e-12 9.49245e-16)
(0.0039821 -1.20754e-11 7.10146e-16)
(0.0039821 -1.64722e-11 9.52139e-16)
(0.00398211 -1.94225e-11 6.48439e-16)
(0.00398211 -2.27621e-11 7.3085e-16)
(0.00398211 -2.39399e-11 9.40819e-16)
(0.00398212 -2.34899e-11 7.31294e-16)
(0.00398212 -2.06473e-11 9.72986e-16)
(0.00398212 -1.8345e-11 6.63983e-16)
(0.00398212 -1.54252e-11 7.41842e-16)
(0.00398212 -1.02362e-11 9.60744e-16)
(0.00398212 -5.21926e-12 7.46922e-16)
(0.00398212 6.77003e-14 9.07472e-16)
(0.00398212 4.57749e-12 6.64076e-16)
(0.00398212 7.55665e-12 7.52405e-16)
(0.00398212 1.21297e-11 8.92958e-16)
(0.00398212 1.69904e-11 7.50674e-16)
(0.00398211 1.77825e-11 9.82909e-16)
(0.00398211 2.0708e-11 7.3732e-16)
(0.0039821 2.07549e-11 7.72535e-16)
(0.0039821 2.19793e-11 9.41879e-16)
(0.0039821 2.36056e-11 7.62143e-16)
(0.00398209 2.17218e-11 9.4914e-16)
(0.00398209 2.39653e-11 7.19499e-16)
(0.00398208 2.49729e-11 7.68632e-16)
(0.00398208 2.23185e-11 9.05344e-16)
(0.00398207 1.93064e-11 7.67742e-16)
(0.00398207 1.85372e-11 9.29564e-16)
(0.00398207 1.67288e-11 6.94333e-16)
(0.00398206 1.37788e-11 5.035e-16)
(0.00398206 1.30443e-11 7.24413e-16)
(0.00398206 1.27739e-11 7.61051e-16)
(0.00398205 1.03783e-11 4.7196e-16)
(0.00398205 6.92307e-12 6.06523e-16)
(0.00398205 6.1504e-12 5.10827e-16)
(0.00398205 -1.05523e-12 6.44012e-16)
(0.00398205 -7.01794e-12 7.51507e-16)
(0.00398205 -6.77502e-12 4.89614e-16)
(0.00398205 -6.85603e-12 6.556e-16)
(0.00398205 -3.31339e-12 4.68044e-16)
(0.00398205 -3.41405e-12 5.98377e-16)
(0.00398205 -3.79148e-12 7.1941e-16)
(0.00398205 -5.02406e-12 5.38293e-16)
(0.00398205 -8.13293e-12 6.64651e-16)
(0.00398205 -8.20074e-12 5.48024e-16)
(0.00398205 -1.0773e-11 6.77247e-16)
(0.00398205 -1.09149e-11 7.48064e-16)
(0.00398206 -1.26042e-11 5.27822e-16)
(0.00398206 -7.17276e-12 6.89451e-16)
(0.00398206 -8.04226e-12 5.16158e-16)
(0.00398206 4.51968e-12 6.27282e-16)
(0.00398206 1.00417e-11 7.26833e-16)
(0.00398206 2.23701e-11 5.50117e-16)
(0.00398206 4.53224e-11 6.19822e-16)
(0.00398205 3.95244e-11 5.20586e-16)
(0.00398205 3.66432e-11 6.6095e-16)
(0.00398204 2.36227e-11 7.42256e-16)
(0.00398204 9.26646e-12 5.54394e-16)
(0.00398204 -2.98434e-12 6.5243e-16)
(0.00398204 -1.38626e-11 5.38469e-16)
(0.00398205 -2.00668e-11 5.33646e-16)
(0.00398205 -2.68138e-11 7.20025e-16)
(0.00398205 -3.00175e-11 4.99215e-16)
(0.00398206 -3.19101e-11 6.51148e-16)
(0.00398206 -3.0656e-11 4.76254e-16)
(0.00398207 -1.73835e-11 5.14532e-16)
(0.00398207 -2.36543e-11 7.34717e-16)
(0.00398208 -9.54794e-12 5.56427e-16)
(0.00398207 9.69472e-11 6.93397e-16)
(0.0120197 -7.21173e-11 2.26104e-15)
(0.0120197 -1.32879e-09 2.20556e-15)
(0.0120197 -1.52828e-09 2.2286e-15)
(0.0120198 -9.04223e-10 2.01952e-15)
(0.0120198 -7.43078e-11 1.53232e-15)
(0.0120198 6.38995e-10 1.96484e-15)
(0.0120197 1.1684e-09 1.605e-15)
(0.0120197 1.51264e-09 2.03312e-15)
(0.0120196 1.70079e-09 2.15204e-15)
(0.0120196 1.74569e-09 1.50701e-15)
(0.0120195 1.66428e-09 2.07255e-15)
(0.0120195 1.52783e-09 2.07882e-15)
(0.0120194 1.39374e-09 2.09179e-15)
(0.0120194 1.23232e-09 2.01731e-15)
(0.0120194 1.07582e-09 1.95125e-15)
(0.0120194 9.25268e-10 2.07868e-15)
(0.0120193 7.3727e-10 2.03734e-15)
(0.0120193 5.82758e-10 2.03525e-15)
(0.0120193 4.26796e-10 1.95946e-15)
(0.0120193 2.52293e-10 1.84232e-15)
(0.0120193 1.05935e-10 2.07864e-15)
(0.0120193 -2.33445e-11 1.87529e-15)
(0.0120193 -1.5125e-10 1.9543e-15)
(0.0120193 -2.88633e-10 1.91512e-15)
(0.0120193 -4.0189e-10 1.72959e-15)
(0.0120193 -4.71618e-10 1.99944e-15)
(0.0120193 -5.58096e-10 1.88722e-15)
(0.0120193 -6.53375e-10 1.95284e-15)
(0.0120194 -7.04206e-10 1.85607e-15)
(0.0120194 -7.49429e-10 1.66557e-15)
(0.0120194 -8.23414e-10 1.94929e-15)
(0.0120194 -8.76511e-10 1.88295e-15)
(0.0120195 -8.98046e-10 1.94795e-15)
(0.0120195 -9.2103e-10 1.8706e-15)
(0.0120195 -9.60318e-10 1.69494e-15)
(0.0120195 -9.83852e-10 1.94969e-15)
(0.0120196 -9.81623e-10 1.87868e-15)
(0.0120196 -9.95792e-10 1.94861e-15)
(0.0120196 -9.96024e-10 1.85086e-15)
(0.0120196 -1.00255e-09 1.70501e-15)
(0.0120197 -9.22231e-10 1.81624e-15)
(0.0120197 -8.22768e-10 1.96528e-15)
(0.0120197 -6.53801e-10 1.9913e-15)
(0.0120197 -4.77643e-10 1.99711e-15)
(0.0120198 -2.5987e-10 2.02913e-15)
(0.0120198 7.53464e-11 2.05275e-15)
(0.0120198 1.91499e-10 2.11614e-15)
(0.0120198 2.06506e-10 2.079e-15)
(0.0120197 1.40195e-10 2.05755e-15)
(0.0120197 1.76632e-11 2.08427e-15)
(0.0120198 -6.44832e-11 2.10455e-15)
(0.0120198 -1.47466e-10 2.20734e-15)
(0.0120198 -2.15596e-10 2.14056e-15)
(0.0120198 -2.68733e-10 2.24669e-15)
(0.0120198 -3.06711e-10 2.0822e-15)
(0.0120198 -3.371e-10 2.21308e-15)
(0.0120198 -3.42978e-10 2.26282e-15)
(0.0120198 -3.21367e-10 2.20497e-15)
(0.0120198 -2.75092e-10 2.30249e-15)
(0.0120198 -2.24118e-10 2.14626e-15)
(0.0120198 -1.61827e-10 2.24863e-15)
(0.0120198 -7.82463e-11 2.31002e-15)
(0.0120198 8.42189e-12 2.25204e-15)
(0.0120198 9.32992e-11 2.32975e-15)
(0.0120198 1.68452e-10 2.20375e-15)
(0.0120198 2.29574e-10 2.27784e-15)
(0.0120198 2.99041e-10 2.31906e-15)
(0.0120198 3.63414e-10 2.26372e-15)
(0.0120198 3.95315e-10 2.3476e-15)
(0.0120198 4.26052e-10 2.2586e-15)
(0.0120198 4.38032e-10 2.34061e-15)
(0.0120197 4.53981e-10 2.39233e-15)
(0.0120197 4.68584e-10 2.29835e-15)
(0.0120197 4.59254e-10 2.40894e-15)
(0.0120197 4.69747e-10 2.21902e-15)
(0.0120197 4.72519e-10 2.32986e-15)
(0.0120197 4.4147e-10 2.36489e-15)
(0.0120197 3.99695e-10 2.31554e-15)
(0.0120196 3.7322e-10 2.40236e-15)
(0.0120196 3.46179e-10 2.193e-15)
(0.0120196 3.10998e-10 2.14042e-15)
(0.0120196 2.89422e-10 2.08991e-15)
(0.0120196 2.74299e-10 2.30679e-15)
(0.0120196 2.38371e-10 2.06379e-15)
(0.0120196 1.93415e-10 1.80444e-15)
(0.0120196 1.47229e-10 1.98514e-15)
(0.0120196 5.71224e-11 2.09802e-15)
(0.0120196 -1.26541e-11 2.27083e-15)
(0.0120196 -3.00331e-11 2.05503e-15)
(0.0120196 -2.88271e-11 1.87691e-15)
(0.0120196 -2.99592e-12 2.03476e-15)
(0.0120196 1.58298e-12 1.78845e-15)
(0.0120196 -6.42242e-12 2.17629e-15)
(0.0120196 -2.60852e-11 2.00923e-15)
(0.0120196 -5.94002e-11 2.08248e-15)
(0.0120196 -8.17622e-11 2.0392e-15)
(0.0120196 -1.14399e-10 1.95207e-15)
(0.0120196 -1.41135e-10 2.26293e-15)
(0.0120196 -1.61876e-10 2.00394e-15)
(0.0120196 -1.4574e-10 2.12866e-15)
(0.0120196 -1.42072e-10 1.98832e-15)
(0.0120196 -5.25142e-11 1.97322e-15)
(0.0120196 2.11472e-11 2.19777e-15)
(0.0120196 1.78205e-10 2.0275e-15)
(0.0120196 4.07474e-10 1.82745e-15)
(0.0120196 4.31092e-10 1.98015e-15)
(0.0120196 3.85054e-10 2.08172e-15)
(0.0120196 2.53278e-10 2.24482e-15)
(0.0120196 8.40101e-11 2.02793e-15)
(0.0120196 -7.48145e-11 1.84112e-15)
(0.0120196 -2.1355e-10 2.00262e-15)
(0.0120196 -3.13784e-10 1.96564e-15)
(0.0120196 -4.00121e-10 2.18223e-15)
(0.0120196 -4.57386e-10 2.05892e-15)
(0.0120196 -4.98105e-10 2.0312e-15)
(0.0120196 -4.82252e-10 2.02326e-15)
(0.0120196 -3.62868e-10 1.97268e-15)
(0.0120197 -4.14198e-10 2.22821e-15)
(0.0120197 -5.65596e-11 2.0677e-15)
(0.0120197 6.0719e-10 2.09915e-15)
(0.0202206 -9.71278e-10 3.82801e-15)
(0.0202207 -3.90414e-09 3.70511e-15)
(0.0202207 -4.13288e-09 3.74814e-15)
(0.0202208 -2.25075e-09 3.39046e-15)
(0.0202208 1.31764e-10 3.073e-15)
(0.0202208 2.15774e-09 3.35537e-15)
(0.0202207 3.64186e-09 3.14777e-15)
(0.0202206 4.5988e-09 3.48218e-15)
(0.0202206 5.10848e-09 3.61136e-15)
(0.0202205 5.19621e-09 3.26838e-15)
(0.0202204 4.94131e-09 3.55015e-15)
(0.0202203 4.53759e-09 3.49161e-15)
(0.0202203 4.12088e-09 3.52312e-15)
(0.0202202 3.64619e-09 3.3911e-15)
(0.0202201 3.17786e-09 3.29692e-15)
(0.0202201 2.71527e-09 3.49771e-15)
(0.0202201 2.17044e-09 3.42067e-15)
(0.02022 1.70019e-09 3.42911e-15)
(0.02022 1.23528e-09 3.28883e-15)
(0.02022 7.32612e-10 3.11244e-15)
(0.02022 2.95229e-10 3.5262e-15)
(0.02022 -9.55202e-11 3.10023e-15)
(0.02022 -4.78843e-10 3.29521e-15)
(0.02022 -8.71199e-10 3.23864e-15)
(0.02022 -1.19618e-09 2.8974e-15)
(0.02022 -1.41552e-09 3.3767e-15)
(0.0202201 -1.66629e-09 3.17031e-15)
(0.0202201 -1.9362e-09 3.29051e-15)
(0.0202201 -2.10103e-09 3.10002e-15)
(0.0202202 -2.24078e-09 2.77249e-15)
(0.0202202 -2.43835e-09 3.29509e-15)
(0.0202202 -2.5867e-09 3.14338e-15)
(0.0202203 -2.65769e-09 3.28275e-15)
(0.0202203 -2.72702e-09 3.15815e-15)
(0.0202204 -2.83303e-09 2.87183e-15)
(0.0202204 -2.90244e-09 3.32408e-15)
(0.0202204 -2.90355e-09 3.13449e-15)
(0.0202205 -2.93786e-09 3.28765e-15)
(0.0202205 -2.95168e-09 3.09083e-15)
(0.0202206 -2.96209e-09 2.85312e-15)
(0.0202206 -2.75293e-09 3.07344e-15)
(0.0202207 -2.47167e-09 3.17764e-15)
(0.0202207 -2.03662e-09 3.35033e-15)
(0.0202207 -1.56325e-09 3.36376e-15)
(0.0202208 -9.58755e-10 3.42227e-15)
(0.0202208 -7.51266e-11 3.46402e-15)
(0.0202208 3.1956e-10 3.40424e-15)
(0.0202208 4.122e-10 3.49428e-15)
(0.0202208 2.72916e-10 3.46466e-15)
(0.0202208 -1.93486e-11 3.51261e-15)
(0.0202208 -2.39625e-10 3.54851e-15)
(0.0202208 -4.58277e-10 3.52075e-15)
(0.0202208 -6.43359e-10 3.59865e-15)
(0.0202208 -7.84917e-10 3.60614e-15)
(0.0202208 -8.83782e-10 3.97139e-15)
(0.0202208 -9.55499e-10 3.75633e-15)
(0.0202208 -9.58976e-10 3.65585e-15)
(0.0202209 -8.85452e-10 3.70473e-15)
(0.0202209 -7.46971e-10 3.69523e-15)
(0.0202209 -5.89188e-10 4.04006e-15)
(0.0202209 -3.97428e-10 3.82238e-15)
(0.0202209 -1.52009e-10 3.72462e-15)
(0.0202209 1.02357e-10 3.78327e-15)
(0.0202209 3.48838e-10 3.75367e-15)
(0.0202209 5.69059e-10 4.06975e-15)
(0.0202209 7.53495e-10 3.87203e-15)
(0.0202209 9.52059e-10 3.74513e-15)
(0.0202208 1.1321e-09 3.80389e-15)
(0.0202208 1.23028e-09 3.78373e-15)
(0.0202208 1.31353e-09 4.06561e-15)
(0.0202208 1.35172e-09 3.96123e-15)
(0.0202207 1.39575e-09 3.82819e-15)
(0.0202207 1.43353e-09 3.86497e-15)
(0.0202207 1.41344e-09 3.85407e-15)
(0.0202207 1.43052e-09 4.20488e-15)
(0.0202207 1.42793e-09 3.94568e-15)
(0.0202206 1.34344e-09 3.83527e-15)
(0.0202206 1.22585e-09 3.89237e-15)
(0.0202206 1.14189e-09 3.87491e-15)
(0.0202206 1.06467e-09 3.98644e-15)
(0.0202206 9.69151e-10 3.77837e-15)
(0.0202205 9.01639e-10 4.01375e-15)
(0.0202205 8.50373e-10 3.90647e-15)
(0.0202205 7.47687e-10 3.63579e-15)
(0.0202205 6.19213e-10 3.84913e-15)
(0.0202205 4.68777e-10 3.54404e-15)
(0.0202205 2.20354e-10 3.96304e-15)
(0.0202205 3.63029e-11 3.84656e-15)
(0.0202205 -2.02327e-11 3.58538e-15)
(0.0202205 -2.16092e-11 3.96789e-15)
(0.0202205 3.71905e-11 3.60403e-15)
(0.0202205 4.89849e-11 3.65003e-15)
(0.0202205 2.49307e-11 3.69574e-15)
(0.0202205 -3.02985e-11 3.51213e-15)
(0.0202205 -1.20242e-10 3.80021e-15)
(0.0202205 -1.93515e-10 3.59529e-15)
(0.0202205 -2.89514e-10 4.00266e-15)
(0.0202205 -3.77407e-10 3.82403e-15)
(0.0202205 -4.45998e-10 3.53077e-15)
(0.0202205 -4.3401e-10 4.00501e-15)
(0.0202205 -4.36204e-10 3.54407e-15)
(0.0202205 -2.37382e-10 3.65791e-15)
(0.0202205 -5.01067e-11 3.7171e-15)
(0.0202205 3.64855e-10 3.53059e-15)
(0.0202205 9.59064e-10 3.70396e-15)
(0.0202205 1.0677e-09 3.50757e-15)
(0.0202205 9.56364e-10 3.80061e-15)
(0.0202205 6.22162e-10 3.79952e-15)
(0.0202205 1.80525e-10 3.52339e-15)
(0.0202205 -2.45015e-10 3.73412e-15)
(0.0202205 -6.20955e-10 3.5214e-15)
(0.0202205 -9.03016e-10 3.43618e-15)
(0.0202205 -1.14045e-09 3.69584e-15)
(0.0202205 -1.30702e-09 3.56966e-15)
(0.0202205 -1.42975e-09 3.91543e-15)
(0.0202206 -1.39716e-09 3.55718e-15)
(0.0202206 -1.10086e-09 3.48788e-15)
(0.0202206 -1.20566e-09 3.77468e-15)
(0.0202206 -1.84158e-10 3.62004e-15)
(0.0202206 1.1064e-09 3.87623e-15)
(0.0285528 -3.25324e-09 5.41041e-15)
(0.0285528 -7.93112e-09 5.2123e-15)
(0.0285529 -7.67283e-09 5.28412e-15)
(0.028553 -3.76017e-09 4.77219e-15)
(0.028553 9.15206e-10 4.70951e-15)
(0.0285529 4.83991e-09 4.81118e-15)
(0.0285529 7.68105e-09 4.79902e-15)
(0.0285528 9.49592e-09 5.0107e-15)
(0.0285526 1.0435e-08 5.08029e-15)
(0.0285525 1.05219e-08 4.93633e-15)
(0.0285524 9.97647e-09 5.10873e-15)
(0.0285523 9.16253e-09 4.91395e-15)
(0.0285522 8.30096e-09 4.98261e-15)
(0.0285521 7.34716e-09 4.76813e-15)
(0.0285521 6.38698e-09 4.68535e-15)
(0.028552 5.42911e-09 4.95329e-15)
(0.0285519 4.34119e-09 4.80201e-15)
(0.0285519 3.37797e-09 4.85058e-15)
(0.0285519 2.43507e-09 4.61126e-15)
(0.0285518 1.43868e-09 4.4579e-15)
(0.0285518 5.53641e-10 4.94496e-15)
(0.0285518 -2.46571e-10 4.48421e-15)
(0.0285518 -1.02699e-09 4.68094e-15)
(0.0285519 -1.79667e-09 4.59225e-15)
(0.0285519 -2.43472e-09 4.0334e-15)
(0.0285519 -2.89247e-09 4.97156e-15)
(0.0285519 -3.39292e-09 4.37768e-15)
(0.028552 -3.92067e-09 4.67216e-15)
(0.028552 -4.27035e-09 4.45318e-15)
(0.0285521 -4.56044e-09 4.04756e-15)
(0.0285521 -4.9295e-09 4.7093e-15)
(0.0285522 -5.21231e-09 4.36008e-15)
(0.0285522 -5.3636e-09 4.6554e-15)
(0.0285523 -5.51311e-09 4.30484e-15)
(0.0285524 -5.71332e-09 4.10812e-15)
(0.0285524 -5.84538e-09 4.88529e-15)
(0.0285525 -5.85255e-09 4.52037e-15)
(0.0285526 -5.9156e-09 4.66914e-15)
(0.0285526 -5.96069e-09 4.4307e-15)
(0.0285527 -5.97322e-09 3.76762e-15)
(0.0285527 -5.57611e-09 4.39328e-15)
(0.0285528 -5.03454e-09 4.41731e-15)
(0.0285529 -4.25985e-09 4.75551e-15)
(0.0285529 -3.37932e-09 4.74997e-15)
(0.0285529 -2.22941e-09 4.85102e-15)
(0.028553 -5.93182e-10 4.90765e-15)
(0.028553 2.50848e-10 4.70857e-15)
(0.028553 5.09581e-10 4.9505e-15)
(0.028553 3.16214e-10 4.89173e-15)
(0.028553 -1.68035e-10 4.97458e-15)
(0.028553 -5.66904e-10 5.02213e-15)
(0.028553 -9.67115e-10 4.8627e-15)
(0.028553 -1.31157e-09 5.09445e-15)
(0.028553 -1.5707e-09 5.00052e-15)
(0.028553 -1.74652e-09 5.3516e-15)
(0.0285531 -1.86179e-09 5.2976e-15)
(0.0285531 -1.84339e-09 5.05073e-15)
(0.0285531 -1.67762e-09 5.23974e-15)
(0.0285531 -1.3931e-09 5.12548e-15)
(0.0285531 -1.06372e-09 5.44742e-15)
(0.0285531 -6.64516e-10 5.3876e-15)
(0.0285531 -1.69794e-10 5.14595e-15)
(0.0285531 3.39491e-10 5.34967e-15)
(0.0285531 8.28553e-10 5.2153e-15)
(0.0285531 1.26888e-09 5.54486e-15)
(0.0285531 1.64465e-09 5.44393e-15)
(0.0285531 2.03476e-09 5.17525e-15)
(0.028553 2.38194e-09 5.3794e-15)
(0.028553 2.58048e-09 5.25215e-15)
(0.028553 2.73816e-09 5.64411e-15)
(0.0285529 2.81692e-09 5.5663e-15)
(0.0285529 2.90117e-09 5.28862e-15)
(0.0285529 2.97023e-09 5.47074e-15)
(0.0285528 2.93695e-09 5.33761e-15)
(0.0285528 2.95233e-09 5.59421e-15)
(0.0285528 2.92919e-09 5.5588e-15)
(0.0285527 2.76645e-09 5.31266e-15)
(0.0285527 2.53776e-09 5.50622e-15)
(0.0285527 2.36268e-09 5.36895e-15)
(0.0285527 2.21166e-09 5.56951e-15)
(0.0285526 2.0307e-09 5.39583e-15)
(0.0285526 1.89024e-09 5.58134e-15)
(0.0285526 1.77709e-09 5.48144e-15)
(0.0285526 1.57357e-09 5.20902e-15)
(0.0285526 1.31918e-09 5.19432e-15)
(0.0285525 9.89791e-10 5.09712e-15)
(0.0285525 5.13278e-10 5.36264e-15)
(0.0285525 1.86837e-10 5.40897e-15)
(0.0285525 7.12036e-11 5.13394e-15)
(0.0285525 5.89496e-11 5.31765e-15)
(0.0285525 1.52979e-10 5.16356e-15)
(0.0285525 1.70027e-10 5.19556e-15)
(0.0285525 1.19795e-10 5.22748e-15)
(0.0285525 1.33362e-11 5.02475e-15)
(0.0285525 -1.5753e-10 5.30211e-15)
(0.0285525 -3.13521e-10 5.1477e-15)
(0.0285525 -5.09673e-10 5.33085e-15)
(0.0285525 -6.98291e-10 5.36815e-15)
(0.0285525 -8.51694e-10 5.07152e-15)
(0.0285525 -8.76374e-10 5.31153e-15)
(0.0285525 -9.1065e-10 5.08287e-15)
(0.0285526 -6.01409e-10 5.10799e-15)
(0.0285526 -2.77856e-10 5.24037e-15)
(0.0285526 4.89824e-10 5.04152e-15)
(0.0285526 1.57102e-09 5.21616e-15)
(0.0285526 1.81299e-09 5.02005e-15)
(0.0285525 1.62912e-09 5.29357e-15)
(0.0285525 1.03726e-09 5.35106e-15)
(0.0285525 2.39529e-10 5.02854e-15)
(0.0285525 -5.44433e-10 5.20585e-15)
(0.0285525 -1.24672e-09 5.02816e-15)
(0.0285526 -1.78707e-09 4.94326e-15)
(0.0285526 -2.23746e-09 5.27636e-15)
(0.0285526 -2.56643e-09 5.09171e-15)
(0.0285526 -2.8159e-09 5.24879e-15)
(0.0285527 -2.77107e-09 5.06971e-15)
(0.0285527 -2.24938e-09 5.026e-15)
(0.0285527 -2.40021e-09 5.38798e-15)
(0.0285527 -3.90031e-10 5.17947e-15)
(0.0285527 1.15682e-09 5.36322e-15)
(0.0368912 -7.59737e-09 7.00452e-15)
(0.0368914 -1.33913e-08 6.6638e-15)
(0.0368915 -1.16533e-08 6.80463e-15)
(0.0368915 -4.88706e-09 6.51368e-15)
(0.0368915 2.66907e-09 6.41132e-15)
(0.0368914 8.9279e-09 6.27323e-15)
(0.0368913 1.34093e-08 6.42684e-15)
(0.0368912 1.62448e-08 6.59114e-15)
(0.036891 1.76599e-08 6.6598e-15)
(0.0368909 1.7639e-08 6.56909e-15)
(0.0368908 1.66734e-08 6.71604e-15)
(0.0368906 1.53682e-08 6.29612e-15)
(0.0368905 1.39024e-08 6.46005e-15)
(0.0368904 1.22672e-08 6.10047e-15)
(0.0368903 1.06348e-08 6.10799e-15)
(0.0368902 8.99556e-09 6.44715e-15)
(0.0368902 7.18486e-09 6.13273e-15)
(0.0368901 5.55854e-09 6.28717e-15)
(0.0368901 3.97392e-09 5.87166e-15)
(0.0368901 2.32755e-09 5.8372e-15)
(0.03689 8.46122e-10 6.46258e-15)
(0.03689 -5.09946e-10 6.04062e-15)
(0.0368901 -1.82719e-09 6.18022e-15)
(0.0368901 -3.08088e-09 6.27201e-15)
(0.0368901 -4.12002e-09 5.82136e-15)
(0.0368902 -4.90556e-09 6.38199e-15)
(0.0368902 -5.73938e-09 6.20462e-15)
(0.0368902 -6.60144e-09 6.10674e-15)
(0.0368903 -7.20684e-09 6.07535e-15)
(0.0368904 -7.70292e-09 5.65962e-15)
(0.0368904 -8.28034e-09 6.28434e-15)
(0.0368905 -8.72634e-09 6.16739e-15)
(0.0368906 -8.98989e-09 6.09233e-15)
(0.0368906 -9.2544e-09 6.09865e-15)
(0.0368907 -9.57005e-09 5.72927e-15)
(0.0368908 -9.78037e-09 6.29168e-15)
(0.0368909 -9.83924e-09 6.15124e-15)
(0.036891 -9.94969e-09 6.11775e-15)
(0.036891 -1.00034e-08 6.03112e-15)
(0.0368911 -1.00095e-08 5.68225e-15)
(0.0368912 -9.35621e-09 5.816e-15)
(0.0368913 -8.4957e-09 6.01051e-15)
(0.0368913 -7.36455e-09 6.2349e-15)
(0.0368914 -5.99875e-09 6.11328e-15)
(0.0368914 -4.18022e-09 6.30715e-15)
(0.0368915 -1.63415e-09 6.35785e-15)
(0.0368915 -1.80934e-10 6.36422e-15)
(0.0368915 3.50388e-10 6.47294e-15)
(0.0368915 1.56674e-10 6.30888e-15)
(0.0368915 -4.97001e-10 6.46238e-15)
(0.0368915 -1.08578e-09 6.49939e-15)
(0.0368915 -1.6956e-09 6.5518e-15)
(0.0368916 -2.2247e-09 6.64088e-15)
(0.0368916 -2.61477e-09 6.73789e-15)
(0.0368916 -2.86933e-09 6.75597e-15)
(0.0368916 -3.01572e-09 6.80543e-15)
(0.0368916 -2.94111e-09 6.76388e-15)
(0.0368917 -2.63393e-09 6.82499e-15)
(0.0368917 -2.14727e-09 6.89236e-15)
(0.0368917 -1.57799e-09 6.8837e-15)
(0.0368917 -8.90532e-10 6.92486e-15)
(0.0368917 -5.97668e-11 6.90021e-15)
(0.0368917 7.86956e-10 6.96552e-15)
(0.0368917 1.59146e-09 7.02434e-15)
(0.0368917 2.32176e-09 7.10492e-15)
(0.0368916 2.95429e-09 6.9955e-15)
(0.0368916 3.59186e-09 6.91436e-15)
(0.0368916 4.14806e-09 7.00239e-15)
(0.0368915 4.47473e-09 7.04725e-15)
(0.0368915 4.72477e-09 7.07693e-15)
(0.0368914 4.85559e-09 7.14135e-15)
(0.0368914 4.99092e-09 7.05947e-15)
(0.0368914 5.09883e-09 7.1233e-15)
(0.0368913 5.04841e-09 7.16312e-15)
(0.0368913 5.04738e-09 7.25759e-15)
(0.0368912 4.98037e-09 7.13838e-15)
(0.0368912 4.71564e-09 7.12207e-15)
(0.0368912 4.34296e-09 7.16875e-15)
(0.0368911 4.04565e-09 7.18854e-15)
(0.0368911 3.80392e-09 7.21946e-15)
(0.0368911 3.5161e-09 7.33013e-15)
(0.036891 3.27512e-09 6.93252e-15)
(0.036891 3.07135e-09 7.04558e-15)
(0.036891 2.73139e-09 7.09952e-15)
(0.036891 2.3095e-09 6.83779e-15)
(0.0368909 1.70967e-09 7.0008e-15)
(0.0368909 9.4938e-10 6.93243e-15)
(0.0368909 4.90421e-10 6.96322e-15)
(0.0368909 2.99508e-10 7.00637e-15)
(0.0368909 2.60853e-10 6.89856e-15)
(0.0368909 3.8265e-10 7.03166e-15)
(0.0368909 3.93735e-10 6.79231e-15)
(0.0368909 3.04898e-10 6.76825e-15)
(0.0368909 1.3571e-10 6.85728e-15)
(0.0368909 -1.38221e-10 6.81893e-15)
(0.0368909 -4.10321e-10 7.0525e-15)
(0.0368909 -7.46414e-10 6.88005e-15)
(0.0368909 -1.07811e-09 6.89514e-15)
(0.0368909 -1.36172e-09 6.92917e-15)
(0.0368909 -1.471e-09 6.65152e-15)
(0.0368909 -1.58352e-09 6.94695e-15)
(0.0368909 -1.19018e-09 6.6979e-15)
(0.0368909 -7.35793e-10 6.76338e-15)
(0.036891 4.61383e-10 6.87653e-15)
(0.036891 2.10874e-09 6.75856e-15)
(0.0368909 2.49802e-09 6.85469e-15)
(0.0368909 2.25084e-09 6.85131e-15)
(0.0368909 1.38234e-09 6.88526e-15)
(0.0368909 1.91748e-10 6.85439e-15)
(0.0368909 -1.00082e-09 6.72195e-15)
(0.0368909 -2.09166e-09 6.86463e-15)
(0.036891 -2.94622e-09 6.82994e-15)
(0.036891 -3.65505e-09 6.92947e-15)
(0.036891 -4.19377e-09 6.93347e-15)
(0.0368911 -4.61408e-09 6.64545e-15)
(0.0368911 -4.56653e-09 6.92561e-15)
(0.0368911 -3.79101e-09 6.9406e-15)
(0.0368912 -3.97166e-09 7.07222e-15)
(0.0368912 -6.4854e-10 7.05198e-15)
(0.0368912 2.48585e-10 6.93097e-15)
(0.0449688 -1.42553e-08 8.59629e-15)
(0.0449689 -1.98625e-08 8.19201e-15)
(0.044969 -1.54743e-08 8.2861e-15)
(0.0449691 -5.20345e-09 8.17446e-15)
(0.044969 5.64522e-09 8.09758e-15)
(0.0449689 1.44519e-08 8.00619e-15)
(0.0449688 2.06945e-08 8.05021e-15)
(0.0449687 2.46217e-08 8.15635e-15)
(0.0449685 2.64971e-08 8.17402e-15)
(0.0449683 2.63721e-08 8.17631e-15)
(0.0449682 2.49109e-08 8.29556e-15)
(0.044968 2.29116e-08 7.8896e-15)
(0.0449679 2.06826e-08 7.94388e-15)
(0.0449678 1.82105e-08 7.64861e-15)
(0.0449677 1.57509e-08 7.56364e-15)
(0.0449676 1.32621e-08 7.94728e-15)
(0.0449675 1.05762e-08 7.67235e-15)
(0.0449675 8.14391e-09 7.72551e-15)
(0.0449674 5.77772e-09 7.32298e-15)
(0.0449674 3.35026e-09 7.28631e-15)
(0.0449674 1.14556e-09 7.62253e-15)
(0.0449674 -8.98173e-10 7.61062e-15)
(0.0449674 -2.8753e-09 7.68046e-15)
(0.0449674 -4.68827e-09 7.55676e-15)
(0.0449675 -6.19749e-09 7.44574e-15)
(0.0449675 -7.3964e-09 7.68693e-15)
(0.0449676 -8.64075e-09 7.47978e-15)
(0.0449676 -9.90547e-09 7.48591e-15)
(0.0449677 -1.08315e-08 7.40372e-15)
(0.0449678 -1.15795e-08 7.31698e-15)
(0.0449678 -1.23893e-08 7.60578e-15)
(0.0449679 -1.30183e-08 7.45507e-15)
(0.044968 -1.34285e-08 7.46715e-15)
(0.0449681 -1.38501e-08 7.31907e-15)
(0.0449682 -1.42936e-08 7.29059e-15)
(0.0449683 -1.45932e-08 7.56521e-15)
(0.0449683 -1.47397e-08 7.41333e-15)
(0.0449684 -1.4917e-08 7.49888e-15)
(0.0449685 -1.49718e-08 7.30318e-15)
(0.0449686 -1.49607e-08 7.2388e-15)
(0.0449687 -1.41337e-08 7.26913e-15)
(0.0449688 -1.2952e-08 7.69247e-15)
(0.0449689 -1.13436e-08 7.70664e-15)
(0.044969 -9.41435e-09 7.83036e-15)
(0.044969 -6.83748e-09 7.77452e-15)
(0.0449691 -3.2671e-09 7.77215e-15)
(0.0449691 -1.06841e-09 7.91053e-15)
(0.0449691 -1.61488e-10 7.9818e-15)
(0.0449691 -2.78834e-10 7.89768e-15)
(0.0449691 -1.04125e-09 7.96458e-15)
(0.0449691 -1.80917e-09 7.93593e-15)
(0.0449691 -2.6419e-09 8.41352e-15)
(0.0449692 -3.36327e-09 8.1665e-15)
(0.0449692 -3.88005e-09 8.49947e-15)
(0.0449692 -4.20277e-09 8.46526e-15)
(0.0449692 -4.35558e-09 8.24366e-15)
(0.0449693 -4.17898e-09 8.51587e-15)
(0.0449693 -3.67987e-09 8.38464e-15)
(0.0449693 -2.94384e-09 8.55307e-15)
(0.0449693 -2.07027e-09 8.61564e-15)
(0.0449693 -1.01742e-09 8.40427e-15)
(0.0449693 2.25361e-10 8.67129e-15)
(0.0449693 1.47893e-09 8.55794e-15)
(0.0449693 2.65559e-09 8.69843e-15)
(0.0449693 3.734e-09 8.71381e-15)
(0.0449692 4.67945e-09 8.48875e-15)
(0.0449692 5.60831e-09 8.72523e-15)
(0.0449692 6.4017e-09 8.60095e-15)
(0.0449691 6.87473e-09 8.9026e-15)
(0.0449691 7.23131e-09 8.84295e-15)
(0.044969 7.42262e-09 8.64437e-15)
(0.044969 7.61934e-09 8.88478e-15)
(0.0449689 7.77458e-09 8.74118e-15)
(0.0449689 7.70078e-09 9.17273e-15)
(0.0449688 7.66413e-09 8.87603e-15)
(0.0449688 7.52584e-09 8.67014e-15)
(0.0449687 7.13942e-09 8.79431e-15)
(0.0449687 6.59132e-09 8.80404e-15)
(0.0449686 6.15005e-09 9.0715e-15)
(0.0449686 5.81707e-09 8.83498e-15)
(0.0449686 5.4039e-09 9.39055e-15)
(0.0449685 5.03485e-09 8.51773e-15)
(0.0449685 4.71189e-09 8.60503e-15)
(0.0449685 4.19825e-09 8.9447e-15)
(0.0449684 3.5662e-09 8.40248e-15)
(0.0449684 2.75542e-09 9.02022e-15)
(0.0449684 1.70846e-09 8.47701e-15)
(0.0449684 1.00989e-09 8.51244e-15)
(0.0449684 7.04709e-10 8.82966e-15)
(0.0449684 6.16007e-10 8.31008e-15)
(0.0449684 7.4857e-10 8.98199e-15)
(0.0449683 7.30378e-10 8.19903e-15)
(0.0449683 5.88591e-10 8.32002e-15)
(0.0449683 3.51766e-10 8.62715e-15)
(0.0449683 -4.63178e-11 8.33629e-15)
(0.0449683 -4.68694e-10 8.99863e-15)
(0.0449683 -9.84517e-10 8.26324e-15)
(0.0449683 -1.50094e-09 8.43553e-15)
(0.0449684 -1.96376e-09 8.70597e-15)
(0.0449684 -2.21512e-09 8.29652e-15)
(0.0449684 -2.46445e-09 8.77429e-15)
(0.0449684 -2.0268e-09 7.93661e-15)
(0.0449684 -1.46186e-09 8.32734e-15)
(0.0449684 7.58641e-11 8.66201e-15)
(0.0449684 2.29904e-09 8.16406e-15)
(0.0449684 2.96428e-09 8.79969e-15)
(0.0449684 2.70281e-09 8.33446e-15)
(0.0449684 1.57187e-09 8.42022e-15)
(0.0449684 -3.73111e-13 8.62334e-15)
(0.0449684 -1.61006e-09 8.2431e-15)
(0.0449684 -3.12853e-09 8.76342e-15)
(0.0449685 -4.33106e-09 8.65696e-15)
(0.0449685 -5.32558e-09 8.56463e-15)
(0.0449685 -6.11726e-09 8.70129e-15)
(0.0449686 -6.75365e-09 8.18275e-15)
(0.0449686 -6.71047e-09 8.72381e-15)
(0.0449686 -5.6644e-09 8.81204e-15)
(0.0449687 -5.86011e-09 8.73391e-15)
(0.0449687 -8.93456e-10 8.83396e-15)
(0.0449687 -1.90278e-09 8.473e-15)
(0.0524539 -2.24614e-08 1.01303e-14)
(0.0524541 -2.66364e-08 9.81278e-15)
(0.0524541 -1.8521e-08 9.78042e-15)
(0.0524542 -4.41654e-09 9.73174e-15)
(0.0524541 9.71916e-09 9.66842e-15)
(0.052454 2.10374e-08 9.5819e-15)
(0.0524539 2.90216e-08 9.57902e-15)
(0.0524537 3.40277e-08 9.64381e-15)
(0.0524535 3.63001e-08 9.67811e-15)
(0.0524534 3.60016e-08 9.67254e-15)
(0.0524532 3.40372e-08 9.77673e-15)
(0.0524531 3.13079e-08 9.30101e-15)
(0.0524529 2.82466e-08 9.35531e-15)
(0.0524528 2.48325e-08 8.99935e-15)
(0.0524527 2.14267e-08 8.96495e-15)
(0.0524526 1.80035e-08 9.41595e-15)
(0.0524525 1.43563e-08 8.99267e-15)
(0.0524525 1.09906e-08 9.08208e-15)
(0.0524524 7.74605e-09 8.64823e-15)
(0.0524524 4.49483e-09 8.67974e-15)
(0.0524524 1.48393e-09 8.80602e-15)
(0.0524524 -1.38679e-09 9.02632e-15)
(0.0524524 -4.10844e-09 9.08203e-15)
(0.0524524 -6.50132e-09 8.67997e-15)
(0.0524525 -8.53041e-09 8.92872e-15)
(0.0524525 -1.02192e-08 8.96441e-15)
(0.0524526 -1.19293e-08 8.53958e-15)
(0.0524526 -1.36528e-08 8.76714e-15)
(0.0524527 -1.49546e-08 8.62217e-15)
(0.0524528 -1.59781e-08 8.82427e-15)
(0.0524528 -1.70241e-08 8.89437e-15)
(0.0524529 -1.78509e-08 8.51547e-15)
(0.052453 -1.84475e-08 8.74522e-15)
(0.0524531 -1.90625e-08 8.41575e-15)
(0.0524532 -1.96704e-08 8.7447e-15)
(0.0524533 -2.00892e-08 8.84294e-15)
(0.0524534 -2.03529e-08 8.50631e-15)
(0.0524535 -2.05942e-08 8.76884e-15)
(0.0524536 -2.06557e-08 8.37885e-15)
(0.0524537 -2.06388e-08 8.67063e-15)
(0.0524538 -1.9618e-08 8.66441e-15)
(0.0524539 -1.81715e-08 9.04554e-15)
(0.052454 -1.60851e-08 9.08057e-15)
(0.0524541 -1.35413e-08 9.10858e-15)
(0.0524541 -1.01488e-08 9.13772e-15)
(0.0524542 -5.47776e-09 9.10237e-15)
(0.0524542 -2.47377e-09 9.42097e-15)
(0.0524542 -1.08107e-09 9.3738e-15)
(0.0524543 -9.92193e-10 9.35987e-15)
(0.0524543 -1.81586e-09 9.34451e-15)
(0.0524543 -2.74709e-09 9.28679e-15)
(0.0524543 -3.76581e-09 9.64161e-15)
(0.0524543 -4.66711e-09 9.55969e-15)
(0.0524544 -5.28994e-09 9.89578e-15)
(0.0524544 -5.66581e-09 9.8933e-15)
(0.0524544 -5.79276e-09 9.53526e-15)
(0.0524544 -5.46099e-09 9.90824e-15)
(0.0524545 -4.73142e-09 9.82281e-15)
(0.0524545 -3.72346e-09 1.0125e-14)
(0.0524545 -2.49711e-09 1.01074e-14)
(0.0524545 -9.7773e-10 9.73162e-15)
(0.0524545 7.29019e-10 1.01047e-14)
(0.0524545 2.39272e-09 1.002e-14)
(0.0524544 3.97056e-09 1.03107e-14)
(0.0524544 5.4362e-09 1.02155e-14)
(0.0524544 6.73172e-09 9.83737e-15)
(0.0524543 7.97522e-09 1.01596e-14)
(0.0524543 9.01493e-09 1.00887e-14)
(0.0524542 9.6411e-09 1.03627e-14)
(0.0524542 1.01145e-08 1.03457e-14)
(0.0524541 1.04144e-08 9.9879e-15)
(0.0524541 1.06894e-08 1.03215e-14)
(0.052454 1.08595e-08 1.02339e-14)
(0.052454 1.07472e-08 1.05028e-14)
(0.0524539 1.06548e-08 1.04301e-14)
(0.0524539 1.0421e-08 1.00466e-14)
(0.0524538 9.90388e-09 1.04135e-14)
(0.0524538 9.18945e-09 1.02953e-14)
(0.0524537 8.60577e-09 1.05501e-14)
(0.0524537 8.16746e-09 1.04166e-14)
(0.0524536 7.60652e-09 1.06321e-14)
(0.0524536 7.08474e-09 1.03227e-14)
(0.0524536 6.61787e-09 1.01586e-14)
(0.0524535 5.93277e-09 1.07256e-14)
(0.0524535 5.06094e-09 1.02066e-14)
(0.0524535 4.00684e-09 1.04805e-14)