/*--------------------------------*- C++ -*----------------------------------*\
  =========                 |
  \\      /  F ield         | OpenFOAM: The Open Source CFD Toolbox
   \\    /   O peration     | Website:  https://openfoam.org
    \\  /    A nd           | Version:  7
     \\/     M anipulation  |
\*---------------------------------------------------------------------------*/
FoamFile
{
    version     2.0;
    format      ascii;
    class       volScalarField;
    location    "3000";
    object      k;
}
// * * * * * * * * * * * * * * * * * * * * * * * * * * * * * * * * * * * * * //

dimensions      [0 2 -2 0 0 0 0];

internalField   nonuniform List<scalar> 
4037
(
0.00016425
0.000164251
0.000164251
0.000164252
0.000164252
0.000164253
0.000164253
0.000164253
0.000164254
0.000164254
0.000164255
0.000164255
0.000164256
0.000164256
0.000164257
0.000164257
0.000164258
0.000164258
0.000164259
0.000164259
0.00016426
0.00016426
0.000164261
0.000164261
0.000164262
0.000164262
0.000164263
0.000164263
0.000164264
0.000164264
0.000164265
0.000164265
0.000164266
0.000164266
0.000164267
0.000164267
0.000164268
0.000164268
0.000164269
0.000164269
0.00016427
0.00016427
0.00016427
0.000164271
0.000164271
0.000164272
0.000164272
0.000164272
0.000164273
0.000164273
0.000164273
0.000164274
0.000164274
0.000164274
0.000164275
0.000164275
0.000164275
0.000164275
0.000164276
0.000164276
0.000164276
0.000164276
0.000164276
0.000164276
0.000164277
0.000164277
0.000164277
0.000164277
0.000164277
0.000164277
0.000164277
0.000164277
0.000164277
0.000164277
0.000164277
0.000164277
0.000164277
0.000164859
0.000164856
0.000164855
0.000164854
0.000164853
0.000164852
0.000164851
0.00016485
0.00016485
0.000164849
0.000164849
0.000164848
0.000164848
0.000164848
0.000164847
0.000164847
0.000164847
0.000164847
0.000164847
0.000164847
0.000164847
0.000164847
0.000164848
0.000164848
0.000164851
0.000164853
0.000164854
0.000164855
0.000164855
0.000164856
0.000164857
0.000164857
0.000164858
0.000164858
0.000164859
0.000164859
0.00016486
0.00016486
0.000164861
0.000164861
0.000164862
0.000164863
0.000164863
0.000164864
0.000164864
0.000164865
0.000164865
0.000164866
0.000164866
0.000164867
0.000164867
0.000164868
0.000164868
0.000164869
0.000164869
0.00016487
0.00016487
0.000164871
0.000164871
0.000164872
0.000164872
0.000164873
0.000164873
0.000164874
0.000164874
0.000164875
0.000164875
0.000164875
0.000164876
0.000164876
0.000164876
0.000164877
0.000164877
0.000164878
0.000164878
0.000164878
0.000164879
0.000164879
0.000164879
0.000164879
0.00016488
0.00016488
0.00016488
0.00016488
0.00016488
0.000164881
0.000164881
0.000164881
0.000164881
0.000164881
0.000164881
0.000164881
0.000164881
0.000164881
0.000164881
0.000164881
0.000164881
0.000164881
0.000164881
0.000164881
0.000164881
0.000164875
0.000164873
0.000164872
0.000164872
0.000164872
0.000164872
0.000164871
0.000164871
0.00016487
0.00016487
0.000164869
0.000164869
0.000164868
0.000164868
0.000164867
0.000164867
0.000164866
0.000164866
0.000164867
0.000165361
0.000165358
0.000165356
0.000165355
0.000165354
0.000165353
0.000165352
0.000165351
0.000165351
0.00016535
0.000165349
0.000165349
0.000165349
0.000165348
0.000165348
0.000165348
0.000165348
0.000165348
0.000165348
0.000165348
0.000165348
0.000165348
0.000165349
0.000165349
0.000165351
0.000165352
0.000165354
0.000165355
0.000165356
0.000165356
0.000165357
0.000165358
0.000165358
0.000165359
0.000165359
0.00016536
0.000165361
0.000165361
0.000165362
0.000165363
0.000165363
0.000165364
0.000165364
0.000165365
0.000165365
0.000165366
0.000165366
0.000165367
0.000165368
0.000165368
0.000165369
0.000165369
0.00016537
0.00016537
0.000165371
0.000165371
0.000165372
0.000165372
0.000165373
0.000165373
0.000165374
0.000165374
0.000165375
0.000165375
0.000165375
0.000165376
0.000165376
0.000165377
0.000165377
0.000165377
0.000165378
0.000165378
0.000165378
0.000165379
0.000165379
0.000165379
0.00016538
0.00016538
0.00016538
0.00016538
0.000165381
0.000165381
0.000165381
0.000165381
0.000165381
0.000165382
0.000165382
0.000165382
0.000165382
0.000165382
0.000165382
0.000165382
0.000165382
0.000165382
0.000165382
0.000165382
0.000165382
0.000165382
0.000165382
0.000165382
0.000165382
0.000165379
0.000165377
0.000165375
0.000165375
0.000165374
0.000165374
0.000165373
0.000165373
0.000165372
0.000165372
0.000165371
0.000165371
0.00016537
0.000165369
0.000165369
0.000165368
0.000165368
0.000165367
0.000165368
0.000165753
0.00016575
0.000165748
0.000165747
0.000165746
0.000165745
0.000165744
0.000165743
0.000165742
0.000165741
0.000165741
0.00016574
0.00016574
0.00016574
0.00016574
0.00016574
0.00016574
0.00016574
0.00016574
0.00016574
0.00016574
0.00016574
0.00016574
0.000165741
0.000165742
0.000165743
0.000165744
0.000165746
0.000165747
0.000165747
0.000165748
0.000165749
0.00016575
0.00016575
0.000165751
0.000165752
0.000165752
0.000165753
0.000165754
0.000165754
0.000165755
0.000165756
0.000165756
0.000165757
0.000165757
0.000165758
0.000165758
0.000165759
0.00016576
0.00016576
0.000165761
0.000165761
0.000165762
0.000165762
0.000165763
0.000165763
0.000165764
0.000165764
0.000165765
0.000165765
0.000165766
0.000165766
0.000165767
0.000165767
0.000165767
0.000165768
0.000165768
0.000165769
0.000165769
0.000165769
0.00016577
0.00016577
0.00016577
0.000165771
0.000165771
0.000165771
0.000165772
0.000165772
0.000165772
0.000165772
0.000165773
0.000165773
0.000165773
0.000165773
0.000165773
0.000165773
0.000165774
0.000165774
0.000165774
0.000165774
0.000165774
0.000165774
0.000165774
0.000165774
0.000165774
0.000165774
0.000165774
0.000165774
0.000165774
0.000165774
0.000165774
0.000165772
0.00016577
0.000165769
0.000165768
0.000165767
0.000165766
0.000165766
0.000165765
0.000165765
0.000165764
0.000165763
0.000165763
0.000165762
0.000165762
0.000165761
0.000165761
0.00016576
0.000165759
0.00016576
0.000166029
0.000166026
0.000166024
0.000166023
0.000166021
0.00016602
0.000166019
0.000166018
0.000166017
0.000166016
0.000166016
0.000166015
0.000166015
0.000166015
0.000166015
0.000166015
0.000166015
0.000166015
0.000166015
0.000166015
0.000166015
0.000166015
0.000166016
0.000166016
0.000166017
0.000166018
0.000166019
0.00016602
0.000166021
0.000166022
0.000166023
0.000166024
0.000166025
0.000166025
0.000166026
0.000166027
0.000166028
0.000166028
0.000166029
0.00016603
0.000166031
0.000166031
0.000166032
0.000166032
0.000166033
0.000166034
0.000166034
0.000166035
0.000166035
0.000166036
0.000166036
0.000166037
0.000166038
0.000166038
0.000166039
0.000166039
0.000166039
0.00016604
0.00016604
0.000166041
0.000166041
0.000166042
0.000166042
0.000166043
0.000166043
0.000166043
0.000166044
0.000166044
0.000166045
0.000166045
0.000166045
0.000166045
0.000166046
0.000166046
0.000166046
0.000166047
0.000166047
0.000166047
0.000166047
0.000166048
0.000166048
0.000166048
0.000166048
0.000166048
0.000166049
0.000166049
0.000166049
0.000166049
0.000166049
0.000166049
0.000166049
0.000166049
0.000166049
0.000166049
0.000166049
0.000166049
0.000166049
0.000166049
0.000166049
0.000166049
0.000166049
0.000166048
0.000166047
0.000166045
0.000166044
0.000166043
0.000166043
0.000166042
0.000166041
0.000166041
0.00016604
0.000166039
0.000166039
0.000166038
0.000166038
0.000166037
0.000166036
0.000166036
0.000166035
0.000166036
0.00016618
0.000166177
0.000166175
0.000166173
0.000166172
0.00016617
0.000166169
0.000166168
0.000166167
0.000166167
0.000166166
0.000166166
0.000166165
0.000166165
0.000166165
0.000166165
0.000166165
0.000166165
0.000166165
0.000166166
0.000166166
0.000166166
0.000166166
0.000166167
0.000166167
0.000166168
0.000166169
0.00016617
0.000166171
0.000166172
0.000166173
0.000166174
0.000166175
0.000166176
0.000166177
0.000166177
0.000166178
0.000166179
0.00016618
0.000166181
0.000166181
0.000166182
0.000166183
0.000166183
0.000166184
0.000166184
0.000166185
0.000166186
0.000166186
0.000166187
0.000166187
0.000166188
0.000166188
0.000166189
0.000166189
0.00016619
0.00016619
0.000166191
0.000166191
0.000166192
0.000166192
0.000166193
0.000166193
0.000166193
0.000166194
0.000166194
0.000166195
0.000166195
0.000166195
0.000166196
0.000166196
0.000166196
0.000166196
0.000166197
0.000166197
0.000166197
0.000166198
0.000166198
0.000166198
0.000166198
0.000166198
0.000166199
0.000166199
0.000166199
0.000166199
0.000166199
0.000166199
0.000166199
0.000166199
0.0001662
0.0001662
0.0001662
0.0001662
0.0001662
0.0001662
0.0001662
0.000166199
0.000166199
0.000166199
0.000166199
0.000166199
0.000166199
0.000166198
0.000166197
0.000166196
0.000166195
0.000166194
0.000166193
0.000166192
0.000166192
0.000166191
0.00016619
0.00016619
0.000166189
0.000166188
0.000166188
0.000166187
0.000166187
0.000166186
0.000166187
0.000166197
0.000166193
0.000166191
0.000166189
0.000166187
0.000166186
0.000166185
0.000166184
0.000166183
0.000166182
0.000166181
0.000166181
0.000166181
0.00016618
0.00016618
0.00016618
0.000166181
0.000166181
0.000166181
0.000166181
0.000166182
0.000166182
0.000166182
0.000166183
0.000166183
0.000166184
0.000166185
0.000166186
0.000166187
0.000166188
0.000166189
0.00016619
0.000166191
0.000166192
0.000166192
0.000166193
0.000166194
0.000166195
0.000166196
0.000166197
0.000166197
0.000166198
0.000166199
0.000166199
0.0001662
0.000166201
0.000166201
0.000166202
0.000166202
0.000166203
0.000166203
0.000166204
0.000166205
0.000166205
0.000166206
0.000166206
0.000166206
0.000166207
0.000166207
0.000166208
0.000166208
0.000166209
0.000166209
0.000166209
0.00016621
0.00016621
0.000166211
0.000166211
0.000166211
0.000166211
0.000166212
0.000166212
0.000166212
0.000166213
0.000166213
0.000166213
0.000166213
0.000166214
0.000166214
0.000166214
0.000166214
0.000166214
0.000166215
0.000166215
0.000166215
0.000166215
0.000166215
0.000166215
0.000166215
0.000166215
0.000166215
0.000166215
0.000166215
0.000166215
0.000166215
0.000166215
0.000166215
0.000166215
0.000166215
0.000166215
0.000166215
0.000166215
0.000166214
0.000166213
0.000166212
0.000166211
0.00016621
0.00016621
0.000166209
0.000166208
0.000166207
0.000166207
0.000166206
0.000166205
0.000166205
0.000166204
0.000166203
0.000166203
0.000166202
0.000166203
0.000166066
0.000166063
0.00016606
0.000166058
0.000166057
0.000166055
0.000166054
0.000166053
0.000166052
0.000166051
0.00016605
0.00016605
0.000166049
0.000166049
0.000166049
0.000166049
0.00016605
0.00016605
0.00016605
0.000166051
0.000166051
0.000166051
0.000166052
0.000166052
0.000166052
0.000166053
0.000166054
0.000166055
0.000166056
0.000166057
0.000166058
0.000166059
0.00016606
0.000166061
0.000166062
0.000166063
0.000166064
0.000166064
0.000166065
0.000166066
0.000166067
0.000166068
0.000166068
0.000166069
0.00016607
0.00016607
0.000166071
0.000166071
0.000166072
0.000166073
0.000166073
0.000166074
0.000166074
0.000166075
0.000166075
0.000166076
0.000166076
0.000166076
0.000166077
0.000166077
0.000166078
0.000166078
0.000166079
0.000166079
0.000166079
0.00016608
0.00016608
0.00016608
0.000166081
0.000166081
0.000166081
0.000166081
0.000166082
0.000166082
0.000166082
0.000166082
0.000166083
0.000166083
0.000166083
0.000166083
0.000166083
0.000166084
0.000166084
0.000166084
0.000166084
0.000166084
0.000166084
0.000166084
0.000166084
0.000166084
0.000166084
0.000166084
0.000166084
0.000166084
0.000166084
0.000166084
0.000166084
0.000166084
0.000166084
0.000166084
0.000166084
0.000166084
0.000166083
0.000166083
0.000166082
0.000166081
0.00016608
0.000166079
0.000166079
0.000166078
0.000166077
0.000166076
0.000166076
0.000166075
0.000166074
0.000166074
0.000166073
0.000166072
0.000166072
0.000166072
0.000165775
0.000165772
0.000165769
0.000165767
0.000165765
0.000165764
0.000165762
0.000165761
0.00016576
0.000165759
0.000165759
0.000165758
0.000165758
0.000165758
0.000165758
0.000165758
0.000165758
0.000165758
0.000165759
0.000165759
0.00016576
0.00016576
0.00016576
0.000165761
0.000165761
0.000165762
0.000165763
0.000165764
0.000165765
0.000165766
0.000165767
0.000165768
0.000165769
0.00016577
0.00016577
0.000165771
0.000165772
0.000165773
0.000165774
0.000165775
0.000165776
0.000165776
0.000165777
0.000165778
0.000165778
0.000165779
0.00016578
0.00016578
0.000165781
0.000165781
0.000165782
0.000165783
0.000165783
0.000165784
0.000165784
0.000165784
0.000165785
0.000165785
0.000165786
0.000165786
0.000165786
0.000165787
0.000165787
0.000165788
0.000165788
0.000165788
0.000165789
0.000165789
0.000165789
0.000165789
0.00016579
0.00016579
0.00016579
0.00016579
0.000165791
0.000165791
0.000165791
0.000165791
0.000165792
0.000165792
0.000165792
0.000165792
0.000165792
0.000165792
0.000165792
0.000165792
0.000165793
0.000165793
0.000165793
0.000165793
0.000165793
0.000165793
0.000165793
0.000165793
0.000165793
0.000165793
0.000165793
0.000165792
0.000165792
0.000165792
0.000165792
0.000165792
0.000165792
0.000165791
0.000165791
0.00016579
0.000165789
0.000165788
0.000165787
0.000165787
0.000165786
0.000165785
0.000165785
0.000165784
0.000165783
0.000165782
0.000165782
0.000165781
0.00016578
0.000165781
0.000165306
0.000165303
0.0001653
0.000165298
0.000165296
0.000165294
0.000165293
0.000165291
0.00016529
0.00016529
0.000165289
0.000165289
0.000165288
0.000165288
0.000165288
0.000165288
0.000165289
0.000165289
0.00016529
0.00016529
0.000165291
0.000165291
0.000165291
0.000165292
0.000165292
0.000165293
0.000165294
0.000165295
0.000165296
0.000165297
0.000165298
0.000165299
0.0001653
0.0001653
0.000165301
0.000165302
0.000165303
0.000165304
0.000165305
0.000165306
0.000165307
0.000165307
0.000165308
0.000165309
0.000165309
0.00016531
0.000165311
0.000165311
0.000165312
0.000165312
0.000165313
0.000165314
0.000165314
0.000165315
0.000165315
0.000165316
0.000165316
0.000165316
0.000165317
0.000165317
0.000165317
0.000165318
0.000165318
0.000165319
0.000165319
0.000165319
0.00016532
0.00016532
0.00016532
0.00016532
0.000165321
0.000165321
0.000165321
0.000165321
0.000165321
0.000165322
0.000165322
0.000165322
0.000165322
0.000165322
0.000165323
0.000165323
0.000165323
0.000165323
0.000165323
0.000165323
0.000165323
0.000165323
0.000165323
0.000165323
0.000165323
0.000165323
0.000165323
0.000165323
0.000165323
0.000165323
0.000165323
0.000165323
0.000165323
0.000165323
0.000165323
0.000165323
0.000165322
0.000165322
0.000165321
0.000165321
0.00016532
0.000165319
0.000165319
0.000165318
0.000165317
0.000165316
0.000165316
0.000165315
0.000165314
0.000165314
0.000165313
0.000165312
0.000165311
0.000165312
0.000164639
0.000164635
0.000164632
0.00016463
0.000164628
0.000164626
0.000164625
0.000164624
0.000164623
0.000164622
0.000164621
0.000164621
0.00016462
0.00016462
0.000164621
0.000164621
0.000164621
0.000164622
0.000164622
0.000164623
0.000164623
0.000164624
0.000164624
0.000164625
0.000164625
0.000164626
0.000164627
0.000164627
0.000164628
0.000164629
0.00016463
0.000164631
0.000164632
0.000164633
0.000164634
0.000164635
0.000164636
0.000164637
0.000164638
0.000164638
0.000164639
0.00016464
0.000164641
0.000164642
0.000164642
0.000164643
0.000164643
0.000164644
0.000164645
0.000164645
0.000164646
0.000164646
0.000164647
0.000164647
0.000164648
0.000164648
0.000164649
0.000164649
0.000164649
0.00016465
0.00016465
0.00016465
0.000164651
0.000164651
0.000164651
0.000164652
0.000164652
0.000164652
0.000164652
0.000164653
0.000164653
0.000164653
0.000164653
0.000164654
0.000164654
0.000164654
0.000164654
0.000164654
0.000164655
0.000164655
0.000164655
0.000164655
0.000164655
0.000164655
0.000164655
0.000164655
0.000164655
0.000164655
0.000164655
0.000164655
0.000164655
0.000164655
0.000164655
0.000164655
0.000164655
0.000164655
0.000164655
0.000164655
0.000164655
0.000164655
0.000164655
0.000164655
0.000164654
0.000164654
0.000164654
0.000164653
0.000164653
0.000164652
0.000164651
0.00016465
0.00016465
0.000164649
0.000164648
0.000164648
0.000164647
0.000164646
0.000164645
0.000164645
0.000164644
0.000164645
0.000163748
0.000163744
0.000163741
0.000163739
0.000163737
0.000163735
0.000163734
0.000163732
0.000163731
0.000163731
0.00016373
0.00016373
0.000163729
0.000163729
0.000163729
0.00016373
0.00016373
0.000163731
0.000163731
0.000163732
0.000163732
0.000163733
0.000163733
0.000163734
0.000163735
0.000163735
0.000163736
0.000163737
0.000163738
0.000163739
0.00016374
0.00016374
0.000163741
0.000163742
0.000163743
0.000163744
0.000163745
0.000163746
0.000163747
0.000163748
0.000163748
0.000163749
0.00016375
0.000163751
0.000163751
0.000163752
0.000163753
0.000163753
0.000163754
0.000163754
0.000163755
0.000163755
0.000163756
0.000163756
0.000163757
0.000163757
0.000163758
0.000163758
0.000163758
0.000163759
0.000163759
0.000163759
0.00016376
0.00016376
0.00016376
0.000163761
0.000163761
0.000163761
0.000163761
0.000163761
0.000163762
0.000163762
0.000163762
0.000163762
0.000163763
0.000163763
0.000163763
0.000163763
0.000163763
0.000163763
0.000163763
0.000163764
0.000163764
0.000163764
0.000163764
0.000163764
0.000163764
0.000163764
0.000163764
0.000163764
0.000163764
0.000163764
0.000163764
0.000163764
0.000163764
0.000163764
0.000163764
0.000163764
0.000163764
0.000163764
0.000163763
0.000163763
0.000163763
0.000163763
0.000163763
0.000163762
0.000163762
0.000163761
0.00016376
0.00016376
0.000163759
0.000163758
0.000163757
0.000163757
0.000163756
0.000163755
0.000163755
0.000163754
0.000163753
0.000163754
0.000162603
0.000162599
0.000162596
0.000162593
0.000162591
0.00016259
0.000162588
0.000162587
0.000162586
0.000162585
0.000162585
0.000162584
0.000162584
0.000162584
0.000162584
0.000162585
0.000162585
0.000162586
0.000162586
0.000162587
0.000162588
0.000162588
0.000162589
0.000162589
0.00016259
0.00016259
0.000162591
0.000162592
0.000162593
0.000162594
0.000162595
0.000162596
0.000162596
0.000162597
0.000162598
0.000162599
0.0001626
0.000162601
0.000162602
0.000162603
0.000162603
0.000162604
0.000162605
0.000162606
0.000162606
0.000162607
0.000162607
0.000162608
0.000162609
0.000162609
0.00016261
0.00016261
0.000162611
0.000162611
0.000162612
0.000162612
0.000162612
0.000162613
0.000162613
0.000162613
0.000162614
0.000162614
0.000162614
0.000162615
0.000162615
0.000162615
0.000162615
0.000162616
0.000162616
0.000162616
0.000162616
0.000162616
0.000162617
0.000162617
0.000162617
0.000162617
0.000162617
0.000162618
0.000162618
0.000162618
0.000162618
0.000162618
0.000162618
0.000162618
0.000162618
0.000162618
0.000162618
0.000162618
0.000162618
0.000162618
0.000162618
0.000162618
0.000162618
0.000162618
0.000162618
0.000162618
0.000162618
0.000162618
0.000162618
0.000162618
0.000162618
0.000162618
0.000162618
0.000162617
0.000162617
0.000162617
0.000162616
0.000162616
0.000162615
0.000162614
0.000162614
0.000162613
0.000162612
0.000162612
0.000162611
0.00016261
0.00016261
0.000162609
0.000162608
0.000162609
0.000161166
0.000161162
0.000161159
0.000161156
0.000161154
0.000161152
0.000161151
0.000161149
0.000161148
0.000161148
0.000161147
0.000161147
0.000161147
0.000161147
0.000161147
0.000161148
0.000161148
0.000161149
0.00016115
0.00016115
0.000161151
0.000161151
0.000161152
0.000161152
0.000161153
0.000161154
0.000161154
0.000161155
0.000161156
0.000161157
0.000161158
0.000161159
0.000161159
0.00016116
0.000161161
0.000161162
0.000161163
0.000161164
0.000161165
0.000161165
0.000161166
0.000161167
0.000161168
0.000161168
0.000161169
0.00016117
0.00016117
0.000161171
0.000161171
0.000161172
0.000161173
0.000161173
0.000161174
0.000161174
0.000161174
0.000161175
0.000161175
0.000161175
0.000161176
0.000161176
0.000161176
0.000161177
0.000161177
0.000161177
0.000161178
0.000161178
0.000161178
0.000161178
0.000161178
0.000161179
0.000161179
0.000161179
0.000161179
0.000161179
0.000161179
0.00016118
0.00016118
0.00016118
0.00016118
0.00016118
0.00016118
0.00016118
0.00016118
0.00016118
0.000161181
0.000161181
0.000161181
0.000161181
0.000161181
0.000161181
0.000161181
0.000161181
0.000161181
0.000161181
0.000161181
0.000161181
0.000161181
0.00016118
0.00016118
0.00016118
0.00016118
0.00016118
0.00016118
0.00016118
0.00016118
0.000161179
0.000161179
0.000161178
0.000161178
0.000161177
0.000161176
0.000161176
0.000161175
0.000161174
0.000161174
0.000161173
0.000161172
0.000161172
0.000161171
0.000161172
0.00015939
0.000159386
0.000159382
0.00015938
0.000159377
0.000159376
0.000159374
0.000159373
0.000159372
0.000159372
0.000159371
0.000159371
0.000159371
0.000159371
0.000159371
0.000159372
0.000159372
0.000159373
0.000159374
0.000159374
0.000159375
0.000159376
0.000159376
0.000159377
0.000159377
0.000159378
0.000159379
0.000159379
0.00015938
0.000159381
0.000159382
0.000159383
0.000159383
0.000159384
0.000159385
0.000159386
0.000159387
0.000159388
0.000159388
0.000159389
0.00015939
0.000159391
0.000159392
0.000159392
0.000159393
0.000159393
0.000159394
0.000159395
0.000159395
0.000159396
0.000159396
0.000159397
0.000159397
0.000159398
0.000159398
0.000159398
0.000159399
0.000159399
0.000159399
0.0001594
0.0001594
0.0001594
0.000159401
0.000159401
0.000159401
0.000159401
0.000159402
0.000159402
0.000159402
0.000159402
0.000159402
0.000159402
0.000159403
0.000159403
0.000159403
0.000159403
0.000159403
0.000159403
0.000159403
0.000159404
0.000159404
0.000159404
0.000159404
0.000159404
0.000159404
0.000159404
0.000159404
0.000159404
0.000159404
0.000159404
0.000159404
0.000159404
0.000159404
0.000159404
0.000159404
0.000159404
0.000159404
0.000159404
0.000159404
0.000159404
0.000159403
0.000159403
0.000159403
0.000159403
0.000159403
0.000159403
0.000159402
0.000159402
0.000159401
0.000159401
0.0001594
0.0001594
0.000159399
0.000159398
0.000159398
0.000159397
0.000159396
0.000159396
0.000159395
0.000159396
0.000157217
0.000157212
0.000157209
0.000157206
0.000157204
0.000157202
0.000157201
0.000157199
0.000157198
0.000157198
0.000157197
0.000157197
0.000157197
0.000157197
0.000157198
0.000157198
0.000157199
0.0001572
0.0001572
0.000157201
0.000157202
0.000157202
0.000157203
0.000157203
0.000157204
0.000157205
0.000157205
0.000157206
0.000157207
0.000157208
0.000157208
0.000157209
0.00015721
0.000157211
0.000157211
0.000157212
0.000157213
0.000157214
0.000157215
0.000157216
0.000157216
0.000157217
0.000157218
0.000157218
0.000157219
0.00015722
0.00015722
0.000157221
0.000157221
0.000157222
0.000157222
0.000157223
0.000157223
0.000157224
0.000157224
0.000157224
0.000157225
0.000157225
0.000157225
0.000157226
0.000157226
0.000157226
0.000157226
0.000157227
0.000157227
0.000157227
0.000157227
0.000157228
0.000157228
0.000157228
0.000157228
0.000157228
0.000157228
0.000157228
0.000157229
0.000157229
0.000157229
0.000157229
0.000157229
0.000157229
0.000157229
0.000157229
0.000157229
0.00015723
0.00015723
0.00015723
0.00015723
0.00015723
0.00015723
0.00015723
0.00015723
0.00015723
0.00015723
0.00015723
0.00015723
0.00015723
0.00015723
0.00015723
0.000157229
0.000157229
0.000157229
0.000157229
0.000157229
0.000157229
0.000157229
0.000157229
0.000157228
0.000157228
0.000157227
0.000157227
0.000157226
0.000157226
0.000157225
0.000157224
0.000157224
0.000157223
0.000157223
0.000157222
0.000157221
0.000157222
0.000154572
0.000154567
0.000154564
0.000154561
0.000154558
0.000154557
0.000154555
0.000154554
0.000154554
0.000154553
0.000154553
0.000154552
0.000154552
0.000154553
0.000154553
0.000154554
0.000154555
0.000154555
0.000154556
0.000154557
0.000154557
0.000154558
0.000154558
0.000154559
0.00015456
0.00015456
0.000154561
0.000154562
0.000154562
0.000154563
0.000154564
0.000154565
0.000154565
0.000154566
0.000154567
0.000154567
0.000154568
0.000154569
0.00015457
0.00015457
0.000154571
0.000154572
0.000154573
0.000154573
0.000154574
0.000154574
0.000154575
0.000154576
0.000154576
0.000154577
0.000154577
0.000154578
0.000154578
0.000154578
0.000154579
0.000154579
0.000154579
0.00015458
0.00015458
0.00015458
0.000154581
0.000154581
0.000154581
0.000154581
0.000154582
0.000154582
0.000154582
0.000154582
0.000154582
0.000154582
0.000154582
0.000154583
0.000154583
0.000154583
0.000154583
0.000154583
0.000154583
0.000154584
0.000154584
0.000154584
0.000154584
0.000154584
0.000154584
0.000154584
0.000154584
0.000154584
0.000154584
0.000154584
0.000154584
0.000154584
0.000154584
0.000154584
0.000154584
0.000154584
0.000154584
0.000154584
0.000154584
0.000154584
0.000154584
0.000154584
0.000154584
0.000154584
0.000154583
0.000154583
0.000154583
0.000154583
0.000154583
0.000154582
0.000154582
0.000154582
0.000154581
0.000154581
0.00015458
0.000154579
0.000154579
0.000154578
0.000154578
0.000154577
0.000154576
0.000154577
0.000151362
0.000151358
0.000151354
0.000151351
0.000151349
0.000151347
0.000151346
0.000151345
0.000151344
0.000151344
0.000151343
0.000151343
0.000151343
0.000151344
0.000151344
0.000151345
0.000151345
0.000151346
0.000151347
0.000151348
0.000151348
0.000151349
0.000151349
0.00015135
0.000151351
0.000151351
0.000151352
0.000151353
0.000151353
0.000151354
0.000151355
0.000151355
0.000151356
0.000151357
0.000151357
0.000151358
0.000151359
0.000151359
0.00015136
0.000151361
0.000151362
0.000151362
0.000151363
0.000151364
0.000151364
0.000151365
0.000151365
0.000151366
0.000151366
0.000151367
0.000151367
0.000151368
0.000151368
0.000151369
0.000151369
0.000151369
0.00015137
0.00015137
0.00015137
0.00015137
0.000151371
0.000151371
0.000151371
0.000151371
0.000151372
0.000151372
0.000151372
0.000151372
0.000151372
0.000151372
0.000151372
0.000151373
0.000151373
0.000151373
0.000151373
0.000151373
0.000151373
0.000151373
0.000151373
0.000151374
0.000151374
0.000151374
0.000151374
0.000151374
0.000151374
0.000151374
0.000151374
0.000151374
0.000151374
0.000151374
0.000151374
0.000151374
0.000151374
0.000151374
0.000151374
0.000151374
0.000151374
0.000151374
0.000151374
0.000151374
0.000151374
0.000151373
0.000151373
0.000151373
0.000151373
0.000151373
0.000151373
0.000151373
0.000151372
0.000151372
0.000151371
0.000151371
0.00015137
0.00015137
0.000151369
0.000151369
0.000151368
0.000151368
0.000151367
0.000151368
0.00014747
0.000147465
0.000147461
0.000147458
0.000147456
0.000147455
0.000147453
0.000147452
0.000147452
0.000147451
0.000147451
0.000147451
0.000147451
0.000147451
0.000147452
0.000147453
0.000147453
0.000147454
0.000147455
0.000147455
0.000147456
0.000147457
0.000147457
0.000147458
0.000147458
0.000147459
0.00014746
0.00014746
0.000147461
0.000147462
0.000147462
0.000147463
0.000147463
0.000147464
0.000147464
0.000147465
0.000147466
0.000147466
0.000147467
0.000147468
0.000147469
0.000147469
0.00014747
0.000147471
0.000147471
0.000147472
0.000147472
0.000147473
0.000147473
0.000147474
0.000147474
0.000147475
0.000147475
0.000147475
0.000147476
0.000147476
0.000147476
0.000147477
0.000147477
0.000147477
0.000147477
0.000147478
0.000147478
0.000147478
0.000147478
0.000147478
0.000147479
0.000147479
0.000147479
0.000147479
0.000147479
0.000147479
0.000147479
0.000147479
0.00014748
0.00014748
0.00014748
0.00014748
0.00014748
0.00014748
0.00014748
0.00014748
0.00014748
0.00014748
0.00014748
0.00014748
0.000147481
0.000147481
0.000147481
0.000147481
0.000147481
0.000147481
0.000147481
0.000147481
0.000147481
0.000147481
0.000147481
0.00014748
0.00014748
0.00014748
0.00014748
0.00014748
0.00014748
0.00014748
0.00014748
0.00014748
0.00014748
0.000147479
0.000147479
0.000147479
0.000147478
0.000147478
0.000147477
0.000147477
0.000147476
0.000147476
0.000147475
0.000147475
0.000147474
0.000147475
0.000142742
0.000142737
0.000142734
0.000142731
0.000142729
0.000142727
0.000142726
0.000142725
0.000142725
0.000142724
0.000142724
0.000142724
0.000142724
0.000142724
0.000142725
0.000142726
0.000142726
0.000142727
0.000142728
0.000142728
0.000142729
0.000142729
0.00014273
0.00014273
0.000142731
0.000142732
0.000142732
0.000142733
0.000142734
0.000142734
0.000142735
0.000142735
0.000142736
0.000142736
0.000142737
0.000142737
0.000142738
0.000142739
0.000142739
0.00014274
0.000142741
0.000142741
0.000142742
0.000142743
0.000142743
0.000142744
0.000142744
0.000142745
0.000142745
0.000142746
0.000142746
0.000142747
0.000142747
0.000142747
0.000142748
0.000142748
0.000142748
0.000142748
0.000142749
0.000142749
0.000142749
0.000142749
0.00014275
0.00014275
0.00014275
0.00014275
0.00014275
0.00014275
0.000142751
0.000142751
0.000142751
0.000142751
0.000142751
0.000142751
0.000142751
0.000142751
0.000142752
0.000142752
0.000142752
0.000142752
0.000142752
0.000142752
0.000142752
0.000142752
0.000142752
0.000142752
0.000142752
0.000142752
0.000142752
0.000142752
0.000142752
0.000142752
0.000142752
0.000142752
0.000142752
0.000142752
0.000142752
0.000142752
0.000142752
0.000142752
0.000142752
0.000142752
0.000142752
0.000142752
0.000142752
0.000142752
0.000142751
0.000142751
0.000142751
0.000142751
0.00014275
0.00014275
0.000142749
0.000142749
0.000142748
0.000142748
0.000142747
0.000142747
0.000142746
0.000142747
0.000136986
0.000136981
0.000136978
0.000136975
0.000136973
0.000136971
0.00013697
0.000136969
0.000136969
0.000136968
0.000136968
0.000136968
0.000136968
0.000136969
0.000136969
0.00013697
0.000136971
0.000136971
0.000136972
0.000136973
0.000136973
0.000136974
0.000136974
0.000136975
0.000136975
0.000136976
0.000136976
0.000136977
0.000136978
0.000136978
0.000136979
0.000136979
0.00013698
0.00013698
0.000136981
0.000136981
0.000136982
0.000136982
0.000136983
0.000136984
0.000136984
0.000136985
0.000136986
0.000136986
0.000136987
0.000136987
0.000136988
0.000136988
0.000136988
0.000136989
0.000136989
0.00013699
0.00013699
0.000136991
0.000136991
0.000136991
0.000136991
0.000136992
0.000136992
0.000136992
0.000136992
0.000136992
0.000136993
0.000136993
0.000136993
0.000136993
0.000136993
0.000136994
0.000136994
0.000136994
0.000136994
0.000136994
0.000136994
0.000136994
0.000136994
0.000136994
0.000136995
0.000136995
0.000136995
0.000136995
0.000136995
0.000136995
0.000136995
0.000136995
0.000136995
0.000136995
0.000136995
0.000136995
0.000136995
0.000136995
0.000136995
0.000136995
0.000136995
0.000136995
0.000136995
0.000136995
0.000136995
0.000136995
0.000136995
0.000136995
0.000136995
0.000136995
0.000136995
0.000136995
0.000136995
0.000136995
0.000136995
0.000136994
0.000136994