/*--------------------------------*- C++ -*----------------------------------*\
  =========                 |
  \\      /  F ield         | OpenFOAM: The Open Source CFD Toolbox
   \\    /   O peration     | Website:  https://openfoam.org
    \\  /    A nd           | Version:  7
     \\/     M anipulation  |
\*---------------------------------------------------------------------------*/
FoamFile
{
    version     2.0;
    format      ascii;
    class       volScalarField;
    location    "3000";
    object      nut;
}
// * * * * * * * * * * * * * * * * * * * * * * * * * * * * * * * * * * * * * //

dimensions      [0 2 -1 0 0 0 0];

internalField   nonuniform List<scalar> 
4037
(
0.000268422
0.00026843
0.000268437
0.000268441
0.000268445
0.000268448
0.000268451
0.000268453
0.000268455
0.000268457
0.000268459
0.000268461
0.000268462
0.000268464
0.000268466
0.000268467
0.000268469
0.00026847
0.000268471
0.000268473
0.000268474
0.000268475
0.000268476
0.000268478
0.000268479
0.00026848
0.000268481
0.000268483
0.000268484
0.000268485
0.000268486
0.000268487
0.000268488
0.000268489
0.00026849
0.000268491
0.000268492
0.000268493
0.000268494
0.000268495
0.000268496
0.000268497
0.000268498
0.000268499
0.0002685
0.000268501
0.000268502
0.000268503
0.000268503
0.000268504
0.000268505
0.000268505
0.000268506
0.000268507
0.000268507
0.000268508
0.000268508
0.000268508
0.000268509
0.000268509
0.000268509
0.00026851
0.00026851
0.00026851
0.00026851
0.00026851
0.00026851
0.00026851
0.00026851
0.000268509
0.000268509
0.000268509
0.000268508
0.000268508
0.000268508
0.000268507
0.000268508
0.00025472
0.000254712
0.000254711
0.000254711
0.000254711
0.000254712
0.000254712
0.000254712
0.000254712
0.000254712
0.000254712
0.000254713
0.000254713
0.000254713
0.000254714
0.000254714
0.000254714
0.000254715
0.000254715
0.000254716
0.000254716
0.000254716
0.000254717
0.000254716
0.000254734
0.000254745
0.000254752
0.000254757
0.000254761
0.000254765
0.000254768
0.00025477
0.000254772
0.000254774
0.000254776
0.000254778
0.00025478
0.000254782
0.000254783
0.000254785
0.000254786
0.000254788
0.000254789
0.00025479
0.000254792
0.000254793
0.000254794
0.000254795
0.000254797
0.000254798
0.000254799
0.0002548
0.000254801
0.000254802
0.000254804
0.000254805
0.000254806
0.000254807
0.000254808
0.000254809
0.00025481
0.000254811
0.000254812
0.000254813
0.000254814
0.000254815
0.000254815
0.000254816
0.000254817
0.000254818
0.000254819
0.00025482
0.00025482
0.000254821
0.000254822
0.000254822
0.000254823
0.000254824
0.000254824
0.000254824
0.000254825
0.000254825
0.000254826
0.000254826
0.000254826
0.000254826
0.000254826
0.000254827
0.000254827
0.000254827
0.000254827
0.000254827
0.000254826
0.000254826
0.000254826
0.000254826
0.000254825
0.000254825
0.000254825
0.000254824
0.000254827
0.000254797
0.000254785
0.00025478
0.000254777
0.000254774
0.000254771
0.000254769
0.000254766
0.000254764
0.000254762
0.00025476
0.000254758
0.000254757
0.000254755
0.000254753
0.000254752
0.00025475
0.000254748
0.000254752
0.00024142
0.000241412
0.000241409
0.000241409
0.000241409
0.00024141
0.00024141
0.00024141
0.000241411
0.000241411
0.000241411
0.000241411
0.000241411
0.000241412
0.000241412
0.000241413
0.000241413
0.000241414
0.000241414
0.000241415
0.000241415
0.000241415
0.000241416
0.000241415
0.000241424
0.000241432
0.000241439
0.000241444
0.000241448
0.000241452
0.000241455
0.000241457
0.00024146
0.000241462
0.000241464
0.000241466
0.000241467
0.000241469
0.000241471
0.000241472
0.000241474
0.000241475
0.000241477
0.000241478
0.000241479
0.00024148
0.000241482
0.000241483
0.000241484
0.000241485
0.000241486
0.000241488
0.000241489
0.00024149
0.000241491
0.000241492
0.000241493
0.000241494
0.000241495
0.000241496
0.000241497
0.000241498
0.000241499
0.0002415
0.000241501
0.000241501
0.000241502
0.000241503
0.000241504
0.000241505
0.000241505
0.000241506
0.000241507
0.000241508
0.000241508
0.000241509
0.000241509
0.00024151
0.00024151
0.000241511
0.000241511
0.000241512
0.000241512
0.000241512
0.000241512
0.000241513
0.000241513
0.000241513
0.000241513
0.000241513
0.000241513
0.000241513
0.000241513
0.000241513
0.000241512
0.000241512
0.000241512
0.000241512
0.000241511
0.000241511
0.000241513
0.000241499
0.000241488
0.000241481
0.000241477
0.000241474
0.000241471
0.000241468
0.000241466
0.000241464
0.000241462
0.00024146
0.000241458
0.000241457
0.000241455
0.000241453
0.000241452
0.000241451
0.000241448
0.000241452
0.000228467
0.000228459
0.000228456
0.000228455
0.000228455
0.000228456
0.000228456
0.000228456
0.000228457
0.000228457
0.000228457
0.000228457
0.000228458
0.000228458
0.000228458
0.000228459
0.000228459
0.00022846
0.00022846
0.000228461
0.000228461
0.000228462
0.000228462
0.000228462
0.000228466
0.000228472
0.000228477
0.000228482
0.000228486
0.000228489
0.000228492
0.000228495
0.000228497
0.000228499
0.000228501
0.000228503
0.000228505
0.000228506
0.000228508
0.00022851
0.000228511
0.000228513
0.000228514
0.000228515
0.000228516
0.000228518
0.000228519
0.00022852
0.000228521
0.000228522
0.000228523
0.000228525
0.000228526
0.000228527
0.000228528
0.000228529
0.00022853
0.000228531
0.000228531
0.000228532
0.000228533
0.000228534
0.000228535
0.000228536
0.000228537
0.000228538
0.000228539
0.000228539
0.00022854
0.000228541
0.000228541
0.000228542
0.000228543
0.000228543
0.000228544
0.000228545
0.000228545
0.000228546
0.000228546
0.000228547
0.000228547
0.000228547
0.000228548
0.000228548
0.000228548
0.000228548
0.000228548
0.000228548
0.000228549
0.000228549
0.000228549
0.000228549
0.000228549
0.000228548
0.000228548
0.000228548
0.000228548
0.000228548
0.000228547
0.000228547
0.000228548
0.000228542
0.000228534
0.000228528
0.000228523
0.00022852
0.000228517
0.000228515
0.000228513
0.00022851
0.000228509
0.000228507
0.000228505
0.000228503
0.000228502
0.0002285
0.000228499
0.000228498
0.000228495
0.0002285
0.000215843
0.000215834
0.000215831
0.000215831
0.000215831
0.000215831
0.000215831
0.000215832
0.000215832
0.000215832
0.000215832
0.000215833
0.000215833
0.000215833
0.000215834
0.000215834
0.000215835
0.000215836
0.000215836
0.000215837
0.000215837
0.000215838
0.000215838
0.000215838
0.00021584
0.000215844
0.000215848
0.000215852
0.000215855
0.000215858
0.000215861
0.000215863
0.000215866
0.000215868
0.000215869
0.000215871
0.000215873
0.000215875
0.000215876
0.000215878
0.000215879
0.000215881
0.000215882
0.000215883
0.000215884
0.000215885
0.000215887
0.000215888
0.000215889
0.00021589
0.000215891
0.000215892
0.000215893
0.000215894
0.000215895
0.000215896
0.000215897
0.000215898
0.000215899
0.0002159
0.000215901
0.000215901
0.000215902
0.000215903
0.000215904
0.000215905
0.000215905
0.000215906
0.000215907
0.000215907
0.000215908
0.000215909
0.000215909
0.00021591
0.000215911
0.000215911
0.000215912
0.000215912
0.000215912
0.000215913
0.000215913
0.000215914
0.000215914
0.000215914
0.000215914
0.000215914
0.000215915
0.000215915
0.000215915
0.000215915
0.000215915
0.000215915
0.000215915
0.000215915
0.000215915
0.000215914
0.000215914
0.000215914
0.000215914
0.000215913
0.000215914
0.000215911
0.000215907
0.000215902
0.000215898
0.000215894
0.000215892
0.000215889
0.000215887
0.000215885
0.000215884
0.000215882
0.00021588
0.000215879
0.000215877
0.000215876
0.000215874
0.000215873
0.000215871
0.000215876
0.000203531
0.000203522
0.000203519
0.000203518
0.000203518
0.000203519
0.000203519
0.000203519
0.000203519
0.00020352
0.00020352
0.00020352
0.000203521
0.000203521
0.000203522
0.000203522
0.000203523
0.000203523
0.000203524
0.000203524
0.000203525
0.000203526
0.000203526
0.000203526
0.000203527
0.00020353
0.000203532
0.000203536
0.000203538
0.000203541
0.000203544
0.000203546
0.000203548
0.00020355
0.000203552
0.000203553
0.000203555
0.000203557
0.000203558
0.00020356
0.000203561
0.000203562
0.000203564
0.000203565
0.000203566
0.000203567
0.000203568
0.000203569
0.00020357
0.000203571
0.000203572
0.000203573
0.000203574
0.000203575
0.000203576
0.000203577
0.000203578
0.000203579
0.00020358
0.00020358
0.000203581
0.000203582
0.000203583
0.000203584
0.000203584
0.000203585
0.000203586
0.000203586
0.000203587
0.000203588
0.000203588
0.000203589
0.000203589
0.00020359
0.000203591
0.000203591
0.000203591
0.000203592
0.000203592
0.000203593
0.000203593
0.000203593
0.000203594
0.000203594
0.000203594
0.000203594
0.000203594
0.000203594
0.000203595
0.000203595
0.000203595
0.000203595
0.000203595
0.000203594
0.000203594
0.000203594
0.000203594
0.000203594
0.000203594
0.000203593
0.000203593
0.000203592
0.00020359
0.000203586
0.000203583
0.00020358
0.000203578
0.000203576
0.000203574
0.000203572
0.00020357
0.000203569
0.000203567
0.000203566
0.000203564
0.000203563
0.000203562
0.000203561
0.000203558
0.000203563
0.000191516
0.000191507
0.000191504
0.000191503
0.000191503
0.000191503
0.000191504
0.000191504
0.000191504
0.000191504
0.000191505
0.000191505
0.000191505
0.000191506
0.000191506
0.000191507
0.000191507
0.000191508
0.000191509
0.000191509
0.00019151
0.00019151
0.000191511
0.000191511
0.000191512
0.000191513
0.000191515
0.000191518
0.00019152
0.000191523
0.000191525
0.000191527
0.000191529
0.00019153
0.000191532
0.000191534
0.000191535
0.000191537
0.000191538
0.000191539
0.000191541
0.000191542
0.000191543
0.000191544
0.000191546
0.000191547
0.000191548
0.000191549
0.00019155
0.000191551
0.000191552
0.000191553
0.000191554
0.000191554
0.000191555
0.000191556
0.000191557
0.000191558
0.000191558
0.000191559
0.00019156
0.000191561
0.000191561
0.000191562
0.000191563
0.000191564
0.000191564
0.000191565
0.000191565
0.000191566
0.000191566
0.000191567
0.000191567
0.000191568
0.000191568
0.000191569
0.000191569
0.00019157
0.00019157
0.00019157
0.000191571
0.000191571
0.000191571
0.000191571
0.000191572
0.000191572
0.000191572
0.000191572
0.000191572
0.000191572
0.000191572
0.000191572
0.000191572
0.000191572
0.000191572
0.000191572
0.000191572
0.000191572
0.000191571
0.000191571
0.000191571
0.000191571
0.000191569
0.000191567
0.000191565
0.000191562
0.00019156
0.000191558
0.000191557
0.000191555
0.000191553
0.000191552
0.00019155
0.000191549
0.000191548
0.000191547
0.000191546
0.000191545
0.000191542
0.000191547
0.000179783
0.000179775
0.000179772
0.000179771
0.000179771
0.000179771
0.000179772
0.000179772
0.000179772
0.000179772
0.000179772
0.000179773
0.000179773
0.000179774
0.000179774
0.000179775
0.000179775
0.000179776
0.000179777
0.000179777
0.000179778
0.000179778
0.000179779
0.000179779
0.00017978
0.000179781
0.000179782
0.000179784
0.000179786
0.000179788
0.00017979
0.000179792
0.000179793
0.000179795
0.000179796
0.000179798
0.000179799
0.000179801
0.000179802
0.000179803
0.000179805
0.000179806
0.000179807
0.000179808
0.000179809
0.00017981
0.000179811
0.000179812
0.000179813
0.000179814
0.000179815
0.000179816
0.000179817
0.000179818
0.000179818
0.000179819
0.00017982
0.000179821
0.000179821
0.000179822
0.000179823
0.000179823
0.000179824
0.000179825
0.000179825
0.000179826
0.000179826
0.000179827
0.000179828
0.000179828
0.000179829
0.000179829
0.000179829
0.00017983
0.00017983
0.000179831
0.000179831
0.000179832
0.000179832
0.000179832
0.000179832
0.000179833
0.000179833
0.000179833
0.000179833
0.000179833
0.000179834
0.000179834
0.000179834
0.000179834
0.000179834
0.000179834
0.000179834
0.000179834
0.000179834
0.000179834
0.000179833
0.000179833
0.000179833
0.000179833
0.000179833
0.000179833
0.000179832
0.00017983
0.000179829
0.000179827
0.000179825
0.000179824
0.000179822
0.000179821
0.000179819
0.000179818
0.000179817
0.000179815
0.000179814
0.000179813
0.000179812
0.000179811
0.000179809
0.000179814
0.000168322
0.000168314
0.000168311
0.00016831
0.00016831
0.00016831
0.000168311
0.000168311
0.000168311
0.000168311
0.000168311
0.000168312
0.000168312
0.000168313
0.000168313
0.000168314
0.000168314
0.000168315
0.000168316
0.000168316
0.000168317
0.000168317
0.000168318
0.000168318
0.000168319
0.00016832
0.000168321
0.000168322
0.000168324
0.000168325
0.000168327
0.000168328
0.00016833
0.000168331
0.000168333
0.000168334
0.000168335
0.000168337
0.000168338
0.000168339
0.00016834
0.000168341
0.000168343
0.000168344
0.000168345
0.000168345
0.000168346
0.000168347
0.000168348
0.000168349
0.00016835
0.000168351
0.000168352
0.000168352
0.000168353
0.000168354
0.000168354
0.000168355
0.000168356
0.000168356
0.000168357
0.000168358
0.000168358
0.000168359
0.000168359
0.00016836
0.000168361
0.000168361
0.000168361
0.000168362
0.000168362
0.000168363
0.000168363
0.000168364
0.000168364
0.000168364
0.000168365
0.000168365
0.000168365
0.000168366
0.000168366
0.000168366
0.000168366
0.000168366
0.000168367
0.000168367
0.000168367
0.000168367
0.000168367
0.000168367
0.000168367
0.000168367
0.000168367
0.000168367
0.000168367
0.000168367
0.000168367
0.000168367
0.000168367
0.000168366
0.000168366
0.000168366
0.000168366
0.000168365
0.000168364
0.000168362
0.000168361
0.00016836
0.000168358
0.000168357
0.000168356
0.000168355
0.000168354
0.000168352
0.000168351
0.00016835
0.000168349
0.000168349
0.000168347
0.000168351
0.000157121
0.000157113
0.000157111
0.00015711
0.00015711
0.00015711
0.00015711
0.00015711
0.000157111
0.000157111
0.000157111
0.000157111
0.000157112
0.000157112
0.000157113
0.000157113
0.000157114
0.000157115
0.000157115
0.000157116
0.000157116
0.000157117
0.000157117
0.000157118
0.000157119
0.000157119
0.00015712
0.000157121
0.000157122
0.000157124
0.000157125
0.000157126
0.000157128
0.000157129
0.00015713
0.000157131
0.000157132
0.000157134
0.000157135
0.000157136
0.000157137
0.000157138
0.000157139
0.00015714
0.000157141
0.000157142
0.000157143
0.000157144
0.000157144
0.000157145
0.000157146
0.000157147
0.000157148
0.000157148
0.000157149
0.00015715
0.00015715
0.000157151
0.000157151
0.000157152
0.000157152
0.000157153
0.000157154
0.000157154
0.000157155
0.000157155
0.000157156
0.000157156
0.000157156
0.000157157
0.000157157
0.000157158
0.000157158
0.000157158
0.000157159
0.000157159
0.000157159
0.00015716
0.00015716
0.00015716
0.00015716
0.000157161
0.000157161
0.000157161
0.000157161
0.000157161
0.000157161
0.000157161
0.000157162
0.000157162
0.000157162
0.000157162
0.000157162
0.000157162
0.000157162
0.000157161
0.000157161
0.000157161
0.000157161
0.000157161
0.000157161
0.000157161
0.00015716
0.00015716
0.000157159
0.000157158
0.000157157
0.000157156
0.000157155
0.000157154
0.000157153
0.000157152
0.000157151
0.00015715
0.000157149
0.000157148
0.000157147
0.000157147
0.000157145
0.000157149
0.000146172
0.000146165
0.000146162
0.000146161
0.000146161
0.000146162
0.000146162
0.000146162
0.000146162
0.000146162
0.000146163
0.000146163
0.000146163
0.000146164
0.000146164
0.000146165
0.000146165
0.000146166
0.000146167
0.000146167
0.000146168
0.000146168
0.000146169
0.000146169
0.00014617
0.000146171
0.000146171
0.000146172
0.000146173
0.000146174
0.000146175
0.000146177
0.000146178
0.000146179
0.00014618
0.000146181
0.000146182
0.000146183
0.000146184
0.000146185
0.000146186
0.000146187
0.000146188
0.000146189
0.00014619
0.000146191
0.000146191
0.000146192
0.000146193
0.000146194
0.000146194
0.000146195
0.000146196
0.000146196
0.000146197
0.000146198
0.000146198
0.000146199
0.000146199
0.0001462
0.0001462
0.000146201
0.000146201
0.000146202
0.000146202
0.000146203
0.000146203
0.000146203
0.000146204
0.000146204
0.000146204
0.000146205
0.000146205
0.000146205
0.000146206
0.000146206
0.000146206
0.000146207
0.000146207
0.000146207
0.000146207
0.000146207
0.000146208
0.000146208
0.000146208
0.000146208
0.000146208
0.000146208
0.000146208
0.000146208
0.000146208
0.000146208
0.000146208
0.000146208
0.000146208
0.000146208
0.000146208
0.000146208
0.000146208
0.000146208
0.000146208
0.000146208
0.000146207
0.000146207
0.000146207
0.000146206
0.000146205
0.000146204
0.000146203
0.000146202
0.000146202
0.000146201
0.0001462
0.000146199
0.000146198
0.000146197
0.000146197
0.000146196
0.000146194
0.000146199
0.000135468
0.000135462
0.000135459
0.000135458
0.000135458
0.000135458
0.000135458
0.000135459
0.000135459
0.000135459
0.000135459
0.000135459
0.00013546
0.00013546
0.000135461
0.000135461
0.000135462
0.000135463
0.000135463
0.000135464
0.000135464
0.000135465
0.000135465
0.000135466
0.000135466
0.000135467
0.000135468
0.000135468
0.000135469
0.00013547
0.000135471
0.000135472
0.000135473
0.000135474
0.000135475
0.000135476
0.000135477
0.000135478
0.000135479
0.00013548
0.000135481
0.000135482
0.000135482
0.000135483
0.000135484
0.000135485
0.000135485
0.000135486
0.000135487
0.000135487
0.000135488
0.000135489
0.000135489
0.00013549
0.00013549
0.000135491
0.000135491
0.000135492
0.000135492
0.000135493
0.000135493
0.000135494
0.000135494
0.000135495
0.000135495
0.000135496
0.000135496
0.000135496
0.000135497
0.000135497
0.000135497
0.000135497
0.000135498
0.000135498
0.000135498
0.000135499
0.000135499
0.000135499
0.000135499
0.000135499
0.0001355
0.0001355
0.0001355
0.0001355
0.0001355
0.0001355
0.0001355
0.0001355
0.0001355
0.0001355
0.000135501
0.000135501
0.000135501
0.000135501
0.0001355
0.0001355
0.0001355
0.0001355
0.0001355
0.0001355
0.0001355
0.0001355
0.0001355
0.000135499
0.000135499
0.000135499
0.000135498
0.000135497
0.000135497
0.000135496
0.000135495
0.000135494
0.000135494
0.000135493
0.000135492
0.000135492
0.000135491
0.00013549
0.000135489
0.000135493
0.000125005
0.000124998
0.000124996
0.000124995
0.000124995
0.000124995
0.000124995
0.000124995
0.000124996
0.000124996
0.000124996
0.000124996
0.000124997
0.000124997
0.000124997
0.000124998
0.000124999
0.000124999
0.000125
0.000125
0.000125001
0.000125001
0.000125002
0.000125002
0.000125003
0.000125003
0.000125004
0.000125005
0.000125005
0.000125006
0.000125007
0.000125008
0.000125009
0.000125009
0.00012501
0.000125011
0.000125012
0.000125013
0.000125014
0.000125015
0.000125015
0.000125016
0.000125017
0.000125018
0.000125018
0.000125019
0.00012502
0.00012502
0.000125021
0.000125022
0.000125022
0.000125023
0.000125023
0.000125024
0.000125024
0.000125025
0.000125025
0.000125026
0.000125026
0.000125026
0.000125027
0.000125027
0.000125028
0.000125028
0.000125028
0.000125029
0.000125029
0.000125029
0.00012503
0.00012503
0.00012503
0.00012503
0.000125031
0.000125031
0.000125031
0.000125031
0.000125032
0.000125032
0.000125032
0.000125032
0.000125032
0.000125032
0.000125032
0.000125033
0.000125033
0.000125033
0.000125033
0.000125033
0.000125033
0.000125033
0.000125033
0.000125033
0.000125033
0.000125033
0.000125033
0.000125033
0.000125033
0.000125033
0.000125033
0.000125033
0.000125033
0.000125033
0.000125032
0.000125032
0.000125032
0.000125032
0.000125031
0.000125031
0.00012503
0.00012503
0.000125029
0.000125028
0.000125028
0.000125027
0.000125026
0.000125026
0.000125025
0.000125025
0.000125023
0.000125027
0.000114778
0.000114772
0.00011477
0.000114769
0.000114769
0.000114769
0.000114769
0.00011477
0.00011477
0.00011477
0.00011477
0.00011477
0.000114771
0.000114771
0.000114771
0.000114772
0.000114773
0.000114773
0.000114774
0.000114774
0.000114775
0.000114775
0.000114776
0.000114776
0.000114777
0.000114777
0.000114778
0.000114778
0.000114779
0.00011478
0.00011478
0.000114781
0.000114782
0.000114782
0.000114783
0.000114784
0.000114785
0.000114785
0.000114786
0.000114787
0.000114788
0.000114788
0.000114789
0.00011479
0.00011479
0.000114791
0.000114791
0.000114792
0.000114793
0.000114793
0.000114794
0.000114794
0.000114795
0.000114795
0.000114796
0.000114796
0.000114796
0.000114797
0.000114797
0.000114798
0.000114798
0.000114798
0.000114799
0.000114799
0.000114799
0.0001148
0.0001148
0.0001148
0.0001148
0.000114801
0.000114801
0.000114801
0.000114801
0.000114801
0.000114802
0.000114802
0.000114802
0.000114802
0.000114802
0.000114802
0.000114803
0.000114803
0.000114803
0.000114803
0.000114803
0.000114803
0.000114803
0.000114803
0.000114803
0.000114803
0.000114803
0.000114803
0.000114803
0.000114803
0.000114803
0.000114803
0.000114803
0.000114803
0.000114803
0.000114803
0.000114803
0.000114803
0.000114803
0.000114803
0.000114802
0.000114802
0.000114802
0.000114801
0.000114801
0.000114801
0.0001148
0.000114799
0.000114799
0.000114798
0.000114798
0.000114797
0.000114797
0.000114796
0.000114795
0.000114799
0.000104788
0.000104783
0.000104781
0.00010478
0.00010478
0.00010478
0.000104781
0.000104781
0.000104781
0.000104781
0.000104781
0.000104781
0.000104781
0.000104782
0.000104782
0.000104783
0.000104783
0.000104784
0.000104784
0.000104785
0.000104785
0.000104786
0.000104786
0.000104787
0.000104787
0.000104788
0.000104788
0.000104789
0.000104789
0.00010479
0.00010479
0.000104791
0.000104792
0.000104792
0.000104793
0.000104793
0.000104794
0.000104795
0.000104795
0.000104796
0.000104797
0.000104798
0.000104798
0.000104799
0.000104799
0.0001048
0.0001048
0.000104801
0.000104801
0.000104802
0.000104802
0.000104803
0.000104803
0.000104804
0.000104804
0.000104804
0.000104805
0.000104805
0.000104805
0.000104806
0.000104806
0.000104806
0.000104807
0.000104807
0.000104807
0.000104807
0.000104808
0.000104808
0.000104808
0.000104808
0.000104808
0.000104809
0.000104809
0.000104809
0.000104809
0.000104809
0.000104809
0.00010481
0.00010481
0.00010481
0.00010481
0.00010481
0.00010481
0.00010481
0.00010481
0.00010481
0.00010481
0.00010481
0.00010481
0.000104811
0.000104811
0.000104811
0.000104811
0.000104811
0.000104811
0.00010481
0.00010481
0.00010481
0.00010481
0.00010481
0.00010481
0.00010481
0.00010481
0.00010481
0.00010481
0.00010481
0.000104809
0.000104809
0.000104809
0.000104808
0.000104808
0.000104808
0.000104807
0.000104807
0.000104806
0.000104806
0.000104805
0.000104805
0.000104804
0.000104807
9.50377e-05
9.50329e-05
9.50311e-05
9.50303e-05
9.50302e-05
9.50303e-05
9.50304e-05
9.50305e-05
9.50306e-05
9.50307e-05
9.50308e-05
9.5031e-05
9.50312e-05
9.50315e-05
9.50319e-05
9.50324e-05
9.50329e-05
9.50334e-05
9.50339e-05
9.50344e-05
9.50348e-05
9.50352e-05
9.50356e-05
9.5036e-05
9.50364e-05
9.50369e-05
9.50374e-05
9.50379e-05
9.50384e-05
9.50389e-05
9.50394e-05
9.50399e-05
9.50404e-05
9.50409e-05
9.50415e-05
9.5042e-05
9.50426e-05
9.50432e-05
9.50438e-05
9.50444e-05
9.5045e-05
9.50456e-05
9.50461e-05
9.50466e-05
9.50471e-05
9.50476e-05
9.5048e-05
9.50485e-05
9.50489e-05
9.50494e-05
9.50498e-05
9.50502e-05
9.50506e-05
9.5051e-05
9.50513e-05
9.50516e-05
9.50519e-05
9.50522e-05
9.50525e-05
9.50527e-05
9.5053e-05
9.50533e-05
9.50535e-05
9.50538e-05
9.5054e-05
9.50542e-05
9.50544e-05
9.50546e-05
9.50548e-05
9.50549e-05
9.50551e-05
9.50552e-05
9.50554e-05
9.50555e-05
9.50557e-05
9.50558e-05
9.5056e-05
9.50561e-05
9.50562e-05
9.50563e-05
9.50564e-05
9.50564e-05
9.50565e-05
9.50566e-05
9.50566e-05
9.50567e-05
9.50567e-05
9.50568e-05
9.50568e-05
9.50569e-05
9.50569e-05
9.50569e-05
9.50569e-05
9.50569e-05
9.50569e-05
9.50568e-05
9.50568e-05
9.50567e-05
9.50567e-05
9.50566e-05
9.50566e-05
9.50565e-05
9.50565e-05
9.50564e-05
9.50563e-05
9.50562e-05
9.5056e-05
9.50558e-05
9.50555e-05
9.50552e-05
9.50549e-05
9.50545e-05
9.50541e-05
9.50537e-05
9.50533e-05
9.50529e-05
9.50525e-05
9.50522e-05
9.5051e-05
9.5054e-05
8.55308e-05
8.55266e-05
8.55249e-05
8.55242e-05
8.55241e-05
8.55242e-05
8.55242e-05
8.55242e-05
8.55243e-05
8.55244e-05
8.55245e-05
8.55246e-05
8.55248e-05
8.55251e-05
8.55255e-05
8.55259e-05
8.55264e-05
8.55269e-05
8.55273e-05
8.55278e-05
8.55281e-05
8.55285e-05
8.55289e-05
8.55292e-05
8.55296e-05
8.553e-05
8.55305e-05
8.55309e-05
8.55314e-05
8.55318e-05
8.55323e-05
8.55327e-05
8.55332e-05
8.55336e-05
8.5534e-05
8.55345e-05
8.5535e-05
8.55355e-05
8.55361e-05
8.55366e-05
8.55371e-05
8.55376e-05
8.55381e-05
8.55385e-05
8.5539e-05
8.55394e-05
8.55398e-05
8.55402e-05
8.55405e-05
8.55409e-05
8.55413e-05
8.55417e-05
8.5542e-05
8.55424e-05
8.55426e-05
8.55429e-05
8.55432e-05
8.55434e-05
8.55436e-05
8.55438e-05
8.55441e-05
8.55443e-05
8.55445e-05
8.55447e-05
8.55449e-05
8.55451e-05
8.55453e-05
8.55454e-05
8.55455e-05
8.55457e-05
8.55458e-05
8.55459e-05
8.55461e-05
8.55462e-05
8.55463e-05
8.55464e-05
8.55465e-05
8.55466e-05
8.55467e-05
8.55468e-05
8.55469e-05
8.55469e-05
8.5547e-05
8.5547e-05
8.55471e-05
8.55471e-05
8.55472e-05
8.55472e-05
8.55473e-05
8.55473e-05
8.55473e-05
8.55473e-05
8.55473e-05
8.55473e-05
8.55473e-05
8.55473e-05
8.55472e-05
8.55472e-05
8.55471e-05
8.55471e-05
8.5547e-05
8.5547e-05
8.55469e-05
8.55469e-05
8.55468e-05
8.55467e-05
8.55466e-05
8.55464e-05
8.55462e-05
8.5546e-05
8.55457e-05
8.55454e-05
8.55451e-05
8.55447e-05
8.55444e-05
8.55441e-05
8.55437e-05
8.55435e-05
8.55424e-05
8.5545e-05
7.62762e-05
7.62725e-05
7.6271e-05
7.62704e-05
7.62702e-05
7.62703e-05
7.62703e-05
7.62703e-05
7.62703e-05
7.62703e-05
7.62704e-05
7.62705e-05
7.62707e-05
7.6271e-05
7.62713e-05
7.62717e-05
7.62721e-05
7.62726e-05
7.6273e-05
7.62734e-05
7.62737e-05
7.62741e-05
7.62744e-05
7.62747e-05
7.62751e-05
7.62754e-05
7.62758e-05
7.62762e-05
7.62766e-05
7.6277e-05
7.62774e-05
7.62778e-05
7.62782e-05
7.62785e-05
7.62789e-05
7.62793e-05
7.62797e-05
7.62802e-05
7.62806e-05
7.62811e-05
7.62815e-05
7.6282e-05
7.62824e-05
7.62828e-05
7.62831e-05
7.62835e-05
7.62838e-05
7.62842e-05
7.62845e-05
7.62849e-05
7.62852e-05
7.62855e-05
7.62858e-05
7.62861e-05
7.62863e-05
7.62866e-05
7.62868e-05
7.6287e-05
7.62872e-05
7.62873e-05
7.62875e-05
7.62877e-05
7.62879e-05
7.62881e-05
7.62883e-05
7.62884e-05
7.62885e-05
7.62887e-05
7.62888e-05
7.62889e-05
7.6289e-05
7.62891e-05
7.62892e-05
7.62893e-05
7.62894e-05
7.62895e-05
7.62896e-05
7.62897e-05
7.62897e-05
7.62898e-05
7.62899e-05
7.62899e-05
7.62899e-05
7.629e-05
7.629e-05
7.62901e-05
7.62901e-05
7.62901e-05
7.62902e-05
7.62902e-05
7.62902e-05
7.62902e-05
7.62902e-05
7.62902e-05
7.62902e-05
7.62902e-05
7.62902e-05
7.62901e-05
7.62901e-05
7.629e-05
7.629e-05
7.62899e-05
7.62899e-05
7.62898e-05
7.62898e-05
7.62897e-05
7.62896e-05
7.62895e-05
7.62893e-05
7.62891e-05
7.62889e-05
7.62887e-05
7.62884e-05
7.62881e-05
7.62879e-05
7.62876e-05
7.62872e-05
7.6287e-05
7.62861e-05
7.62883e-05
6.72864e-05
6.72833e-05
6.72819e-05
6.72814e-05
6.72812e-05
6.72812e-05
6.72812e-05
6.72811e-05
6.72811e-05
6.72811e-05
6.72812e-05
6.72813e-05
6.72814e-05
6.72816e-05
6.72819e-05
6.72823e-05
6.72827e-05
6.72831e-05
6.72835e-05
6.72838e-05
6.72841e-05
6.72844e-05
6.72847e-05
6.7285e-05
6.72853e-05
6.72857e-05
6.7286e-05
6.72864e-05
6.72867e-05
6.72871e-05
6.72874e-05
6.72877e-05
6.7288e-05
6.72883e-05
6.72886e-05
6.72889e-05
6.72893e-05
6.72897e-05
6.72901e-05
6.72905e-05
6.72909e-05
6.72912e-05
6.72916e-05
6.72919e-05
6.72922e-05
6.72925e-05
6.72928e-05
6.72931e-05
6.72934e-05
6.72937e-05
6.7294e-05
6.72943e-05
6.72945e-05
6.72948e-05
6.7295e-05
6.72952e-05
6.72953e-05
6.72955e-05
6.72957e-05
6.72958e-05
6.7296e-05
6.72961e-05
6.72963e-05
6.72964e-05
6.72966e-05
6.72967e-05
6.72968e-05
6.72969e-05
6.7297e-05
6.72971e-05
6.72971e-05
6.72972e-05
6.72973e-05
6.72974e-05
6.72975e-05
6.72976e-05
6.72976e-05
6.72977e-05
6.72978e-05
6.72978e-05
6.72979e-05
6.72979e-05
6.72979e-05
6.7298e-05
6.7298e-05
6.7298e-05
6.72981e-05
6.72981e-05
6.72981e-05
6.72982e-05
6.72982e-05
6.72982e-05
6.72982e-05
6.72982e-05
6.72982e-05
6.72981e-05
6.72981e-05
6.72981e-05
6.7298e-05
6.7298e-05
6.7298e-05
6.72979e-05
6.72979e-05
6.72978e-05
6.72978e-05
6.72977e-05
6.72977e-05
6.72976e-05
6.72975e-05
6.72973e-05
6.72971e-05
6.72969e-05
6.72967e-05
6.72965e-05
6.72963e-05
6.7296e-05
6.72957e-05
6.72956e-05
6.72948e-05
6.72966e-05
5.85793e-05
5.85766e-05
5.85755e-05
5.85749e-05
5.85747e-05
5.85747e-05
5.85746e-05
5.85745e-05
5.85745e-05
5.85745e-05
5.85745e-05
5.85746e-05
5.85747e-05
5.85749e-05
5.85752e-05
5.85755e-05
5.85758e-05
5.85762e-05
5.85765e-05
5.85768e-05
5.85771e-05
5.85774e-05
5.85776e-05
5.85779e-05
5.85781e-05
5.85784e-05
5.85787e-05
5.8579e-05
5.85793e-05
5.85796e-05
5.85799e-05
5.85802e-05
5.85804e-05
5.85807e-05
5.85809e-05
5.85812e-05
5.85815e-05
5.85818e-05
5.85822e-05
5.85825e-05
5.85828e-05
5.85831e-05
5.85834e-05
5.85837e-05
5.8584e-05
5.85842e-05
5.85845e-05
5.85847e-05
5.8585e-05
5.85852e-05
5.85855e-05
5.85857e-05
5.85859e-05
5.85861e-05
5.85863e-05
5.85864e-05
5.85866e-05
5.85867e-05
5.85869e-05
5.8587e-05
5.85871e-05
5.85872e-05
5.85874e-05
5.85875e-05
5.85876e-05
5.85877e-05
5.85878e-05
5.85879e-05
5.85879e-05
5.8588e-05
5.85881e-05
5.85881e-05
5.85882e-05
5.85883e-05
5.85883e-05
5.85884e-05
5.85885e-05
5.85885e-05
5.85886e-05
5.85886e-05
5.85887e-05
5.85887e-05
5.85887e-05
5.85887e-05
5.85888e-05
5.85888e-05
5.85888e-05
5.85888e-05
5.85889e-05
5.85889e-05
5.85889e-05
5.85889e-05
5.85889e-05
5.85889e-05
5.85889e-05
5.85889e-05
5.85888e-05
5.85888e-05
5.85888e-05
5.85888e-05
5.85887e-05
5.85887e-05
5.85887e-05
5.85886e-05
5.85886e-05
5.85886e-05
5.85885e-05
5.85884e-05
5.85883e-05
5.85882e-05
5.85881e-05
5.85879e-05
5.85878e-05
5.85876e-05
5.85874e-05
5.85872e-05
5.85869e-05
5.85868e-05
5.85861e-05
5.85876e-05
5.01792e-05
5.0177e-05
5.0176e-05
5.01755e-05
5.01753e-05
5.01752e-05
5.01751e-05
5.01749e-05
5.01749e-05
5.01748e-05
5.01748e-05
5.01749e-05
5.0175e-05
5.01752e-05
5.01754e-05
5.01757e-05
5.0176e-05
5.01763e-05
5.01766e-05
5.01768e-05
5.01771e-05
5.01773e-05
5.01775e-05
5.01777e-05
5.0178e-05
5.01782e-05
5.01785e-05
5.01787e-05
5.0179e-05
5.01793e-05
5.01795e-05
5.01797e-05
5.01799e-05
5.01801e-05
5.01803e-05
5.01805e-05
5.01808e-05
5.0181e-05
5.01813e-05
5.01816e-05
5.01819e-05
5.01821e-05
5.01824e-05
5.01826e-05
5.01828e-05
5.01831e-05
5.01833e-05
5.01835e-05
5.01837e-05
5.01839e-05
5.01841e-05
5.01843e-05
5.01845e-05
5.01846e-05
5.01848e-05
5.01849e-05
5.0185e-05
5.01851e-05
5.01852e-05
5.01853e-05
5.01854e-05
5.01855e-05
5.01857e-05
5.01857e-05
5.01858e-05
5.01859e-05
5.0186e-05
5.0186e-05
5.01861e-05
5.01862e-05
5.01862e-05
5.01863e-05
5.01863e-05
5.01864e-05
5.01864e-05
5.01865e-05
5.01865e-05
5.01866e-05
5.01866e-05
5.01866e-05
5.01867e-05
5.01867e-05
5.01867e-05
5.01867e-05
5.01868e-05
5.01868e-05
5.01868e-05
5.01868e-05
5.01868e-05
5.01869e-05
5.01869e-05
5.01869e-05
5.01869e-05
5.01869e-05
5.01869e-05
5.01869e-05
5.01868e-05
5.01868e-05
5.01868e-05
5.01868e-05
5.01867e-05
5.01867e-05
5.01867e-05
5.01867e-05
5.01866e-05
5.01866e-05
5.01866e-05
5.01865e-05
5.01864e-05
5.01863e-05