/*--------------------------------*- C++ -*----------------------------------*\
  =========                 |
  \\      /  F ield         | OpenFOAM: The Open Source CFD Toolbox
   \\    /   O peration     | Website:  https://openfoam.org
    \\  /    A nd           | Version:  7
     \\/     M anipulation  |
\*---------------------------------------------------------------------------*/
FoamFile
{
    version     2.0;
    format      ascii;
    class       volVectorField;
    location    "2000";
    object      U;
}
// * * * * * * * * * * * * * * * * * * * * * * * * * * * * * * * * * * * * * //

dimensions      [0 1 -1 0 0 0 0];

internalField   nonuniform List<vector> 
4000
(
(0.144638 8.82437e-09 6.01587e-15)
(0.144638 1.21591e-08 6.01292e-15)
(0.144638 8.55045e-09 5.94405e-15)
(0.144638 5.68617e-09 5.91709e-15)
(0.144638 5.95939e-09 5.86376e-15)
(0.144638 7.26295e-09 5.81596e-15)
(0.144638 9.37948e-09 5.83217e-15)
(0.144638 1.24105e-08 5.83837e-15)
(0.144638 1.62297e-08 5.82389e-15)
(0.144638 2.0777e-08 5.86126e-15)
(0.144638 2.60256e-08 5.88548e-15)
(0.144638 3.19295e-08 5.76518e-15)
(0.144638 3.84357e-08 5.79025e-15)
(0.144638 4.54873e-08 5.68898e-15)
(0.144638 5.30199e-08 5.73836e-15)
(0.144638 6.09609e-08 5.75483e-15)
(0.144638 6.92308e-08 5.63233e-15)
(0.144638 7.7743e-08 5.66646e-15)
(0.144638 8.6405e-08 5.57843e-15)
(0.144638 9.51195e-08 5.64483e-15)
(0.144638 1.03786e-07 5.65655e-15)
(0.144638 1.12302e-07 5.70517e-15)
(0.144638 1.20568e-07 5.72841e-15)
(0.144638 1.28484e-07 5.70856e-15)
(0.144638 1.35957e-07 5.74253e-15)
(0.144638 1.42901e-07 5.72217e-15)
(0.144638 1.49237e-07 5.71215e-15)
(0.144638 1.54905e-07 5.715e-15)
(0.144638 1.59858e-07 5.68502e-15)
(0.144638 1.64077e-07 5.75665e-15)
(0.144638 1.67571e-07 5.74938e-15)
(0.144638 1.70385e-07 5.70412e-15)
(0.144638 1.72617e-07 5.69368e-15)
(0.144638 1.74425e-07 5.70737e-15)
(0.144638 1.76049e-07 5.80547e-15)
(0.144638 1.77841e-07 5.77969e-15)
(0.144638 1.80305e-07 5.74113e-15)
(0.144638 1.8415e-07 5.73066e-15)
(0.144638 1.90423e-07 5.72721e-15)
(0.144638 2.00583e-07 5.8002e-15)
(0.144638 2.17062e-07 5.82452e-15)
(0.144638 2.43153e-07 5.83224e-15)
(0.144638 2.86463e-07 5.82869e-15)
(0.144638 3.56725e-07 5.8284e-15)
(0.144638 4.76528e-07 5.83333e-15)
(0.144638 5.2692e-07 5.84188e-15)
(0.144638 3.89546e-07 5.84879e-15)
(0.144638 2.22039e-07 5.853e-15)
(0.144638 1.35846e-07 5.8507e-15)
(0.144638 8.22354e-08 5.84337e-15)
(0.144638 3.89455e-08 5.83193e-15)
(0.144638 3.7893e-09 5.80606e-15)
(0.144638 -2.61868e-08 5.78285e-15)
(0.144638 -5.30429e-08 5.76881e-15)
(0.144638 -7.75921e-08 5.75376e-15)
(0.144638 -1.00352e-07 5.75765e-15)
(0.144638 -1.2168e-07 5.8131e-15)
(0.144638 -1.41774e-07 5.80121e-15)
(0.144638 -1.60737e-07 5.7896e-15)
(0.144638 -1.78615e-07 5.75457e-15)
(0.144638 -1.95414e-07 5.75137e-15)
(0.144638 -2.11113e-07 5.75951e-15)
(0.144638 -2.25677e-07 5.75086e-15)
(0.144638 -2.3906e-07 5.74226e-15)
(0.144638 -2.51215e-07 5.73423e-15)
(0.144638 -2.62096e-07 5.73709e-15)
(0.144638 -2.71659e-07 5.75155e-15)
(0.144638 -2.79867e-07 5.73884e-15)
(0.144638 -2.86692e-07 5.71812e-15)
(0.144638 -2.92112e-07 5.68574e-15)
(0.144638 -2.96118e-07 5.67449e-15)
(0.144638 -2.9871e-07 5.68908e-15)
(0.144638 -2.99897e-07 5.7002e-15)
(0.144638 -2.997e-07 5.72498e-15)
(0.144638 -2.98151e-07 5.69818e-15)
(0.144638 -2.95289e-07 5.68403e-15)
(0.144638 -2.91166e-07 5.69003e-15)
(0.144638 -2.85841e-07 5.6954e-15)
(0.144638 -2.79381e-07 5.71086e-15)
(0.144638 -2.7186e-07 5.71309e-15)
(0.144638 -2.63357e-07 5.6913e-15)
(0.144638 -2.53956e-07 5.70026e-15)
(0.144638 -2.43744e-07 5.70452e-15)
(0.144638 -2.32808e-07 5.7112e-15)
(0.144638 -2.21233e-07 5.73861e-15)
(0.144638 -2.091e-07 5.76001e-15)
(0.144638 -1.96485e-07 5.80028e-15)
(0.144638 -1.8345e-07 5.81112e-15)
(0.144638 -1.70042e-07 5.79903e-15)
(0.144638 -1.56286e-07 5.80592e-15)
(0.144638 -1.42179e-07 5.79296e-15)
(0.144638 -1.27674e-07 5.81792e-15)
(0.144638 -1.1267e-07 5.82521e-15)
(0.144638 -9.69911e-08 5.81647e-15)
(0.144638 -8.0355e-08 5.82985e-15)
(0.144638 -6.23305e-08 5.82338e-15)
(0.144638 -4.22832e-08 5.83634e-15)
(0.144638 -1.92433e-08 5.84127e-15)
(0.144638 8.17462e-09 5.84644e-15)
(0.144638 4.23311e-08 5.86901e-15)
(0.144638 8.64554e-08 5.87402e-15)
(0.144638 1.48094e-07 5.89218e-15)
(0.144638 2.36929e-07 5.89918e-15)
(0.144639 3.75587e-07 5.89749e-15)
(0.144638 4.45566e-07 5.91734e-15)
(0.144639 3.27936e-07 5.91817e-15)
(0.144639 1.80142e-07 5.92541e-15)
(0.144639 1.13572e-07 5.92367e-15)
(0.144638 7.95742e-08 5.9146e-15)
(0.144638 5.58863e-08 5.92673e-15)
(0.144638 4.02958e-08 5.93196e-15)
(0.144638 2.98194e-08 5.93625e-15)
(0.144638 2.23654e-08 5.92905e-15)
(0.144638 1.70817e-08 5.92371e-15)
(0.144638 1.34256e-08 5.94483e-15)
(0.144638 1.09683e-08 5.95598e-15)
(0.144638 9.53199e-09 5.96951e-15)
(0.144638 8.64336e-09 5.9733e-15)
(0.144638 8.69108e-09 5.97479e-15)
(0.144638 6.84846e-09 5.99505e-15)
(0.144621 3.49438e-08 6.01278e-15)
(0.144621 4.34625e-08 6.02529e-15)
(0.144621 3.98306e-08 5.79599e-15)
(0.144621 3.16598e-08 5.89751e-15)
(0.144621 2.67769e-08 5.77039e-15)
(0.144621 2.35967e-08 5.93428e-15)
(0.144621 2.20733e-08 6.03909e-15)
(0.144621 2.23217e-08 5.98299e-15)
(0.144621 2.39393e-08 6.04738e-15)
(0.144621 2.67095e-08 6.10983e-15)
(0.144621 3.05311e-08 6.04729e-15)
(0.144621 3.52888e-08 5.95391e-15)
(0.144621 4.08752e-08 5.90367e-15)
(0.144621 4.71926e-08 5.84334e-15)
(0.144621 5.41435e-08 5.82163e-15)
(0.144621 6.16278e-08 5.81451e-15)
(0.144621 6.95435e-08 5.76871e-15)
(0.144621 7.77856e-08 5.75072e-15)
(0.144621 8.62458e-08 5.71214e-15)
(0.144621 9.48142e-08 5.71048e-15)
(0.144621 1.0338e-07 5.59764e-15)
(0.144621 1.11833e-07 5.76716e-15)
(0.144621 1.20066e-07 5.77498e-15)
(0.144621 1.27976e-07 5.74518e-15)
(0.144621 1.35467e-07 5.84241e-15)
(0.144621 1.42451e-07 5.71605e-15)
(0.144621 1.48851e-07 5.63624e-15)
(0.144621 1.54605e-07 5.74625e-15)
(0.144621 1.59673e-07 5.63625e-15)
(0.144621 1.64037e-07 5.83727e-15)
(0.144621 1.67712e-07 5.76918e-15)
(0.144621 1.70752e-07 5.65507e-15)
(0.144621 1.73262e-07 5.7205e-15)
(0.144621 1.75409e-07 5.74937e-15)
(0.144621 1.77442e-07 6.0244e-15)
(0.144621 1.7972e-07 5.86111e-15)
(0.144621 1.82749e-07 5.62095e-15)
(0.144621 1.87231e-07 5.79324e-15)
(0.144621 1.94181e-07 5.80217e-15)
(0.144621 2.04988e-07 5.95047e-15)
(0.144621 2.21875e-07 5.98659e-15)
(0.144621 2.47698e-07 5.9591e-15)
(0.144621 2.88518e-07 5.95488e-15)
(0.144621 3.4981e-07 5.95764e-15)
(0.144621 4.52052e-07 5.96709e-15)
(0.144621 4.89936e-07 5.97947e-15)
(0.144621 3.81692e-07 5.9922e-15)
(0.144621 2.49099e-07 5.9994e-15)
(0.144621 1.62211e-07 5.9991e-15)
(0.144621 1.00513e-07 5.99332e-15)
(0.144621 5.1195e-08 5.98353e-15)
(0.144621 1.17149e-08 5.96838e-15)
(0.144621 -2.14156e-08 5.95218e-15)
(0.144621 -5.06611e-08 5.93964e-15)
(0.144621 -7.71147e-08 5.92387e-15)
(0.144621 -1.01436e-07 5.91586e-15)
(0.144621 -1.24068e-07 5.93065e-15)
(0.144621 -1.45268e-07 5.93597e-15)
(0.144621 -1.6518e-07 5.93191e-15)
(0.144621 -1.83882e-07 5.91692e-15)
(0.144621 -2.01402e-07 5.91821e-15)
(0.144621 -2.17737e-07 5.92464e-15)
(0.144621 -2.32867e-07 5.92233e-15)
(0.144621 -2.46758e-07 5.9199e-15)
(0.144621 -2.59372e-07 5.91459e-15)
(0.144621 -2.70669e-07 5.91509e-15)
(0.144621 -2.80614e-07 5.92184e-15)
(0.144621 -2.89174e-07 5.91479e-15)
(0.144621 -2.96323e-07 5.89908e-15)
(0.144621 -3.02047e-07 5.87582e-15)
(0.144621 -3.06335e-07 5.86951e-15)
(0.144621 -3.09192e-07 5.87933e-15)
(0.144621 -3.10627e-07 5.88419e-15)
(0.144621 -3.10664e-07 5.88592e-15)
(0.144621 -3.09333e-07 5.87278e-15)
(0.144621 -3.06677e-07 5.86643e-15)
(0.144621 -3.02745e-07 5.87511e-15)
(0.144621 -2.97595e-07 5.88582e-15)
(0.144621 -2.91294e-07 5.89723e-15)
(0.144621 -2.83915e-07 5.89852e-15)
(0.144621 -2.75534e-07 5.83142e-15)
(0.144621 -2.66233e-07 5.84728e-15)
(0.144621 -2.56095e-07 5.84737e-15)
(0.144621 -2.45204e-07 5.82554e-15)
(0.144621 -2.33641e-07 5.84804e-15)
(0.144621 -2.21482e-07 5.8149e-15)
(0.144621 -2.08795e-07 5.88991e-15)
(0.144621 -1.95637e-07 5.9125e-15)
(0.144622 -1.82047e-07 5.88638e-15)
(0.144622 -1.68042e-07 5.91098e-15)
(0.144622 -1.53607e-07 5.84411e-15)
(0.144622 -1.38687e-07 5.91973e-15)
(0.144622 -1.23169e-07 5.92322e-15)
(0.144622 -1.06866e-07 5.88702e-15)
(0.144622 -8.94864e-08 5.92581e-15)
(0.144622 -7.05951e-08 5.88135e-15)
(0.144622 -4.95612e-08 5.9092e-15)
(0.144622 -2.54434e-08 5.91445e-15)
(0.144622 3.07965e-09 5.9005e-15)
(0.144622 3.81655e-08 5.92945e-15)
(0.144622 8.26182e-08 5.90684e-15)
(0.144622 1.42453e-07 5.9427e-15)
(0.144622 2.23116e-07 5.96354e-15)
(0.144622 3.45108e-07 5.94677e-15)
(0.144622 4.03379e-07 5.96672e-15)
(0.144622 3.16027e-07 5.91809e-15)
(0.144622 2.04431e-07 5.94803e-15)
(0.144622 1.38695e-07 5.96557e-15)
(0.144622 9.83738e-08 5.95029e-15)
(0.144622 7.06685e-08 5.9973e-15)
(0.144622 5.30416e-08 5.96873e-15)
(0.144622 4.20049e-08 5.94401e-15)
(0.144622 3.50933e-08 5.93908e-15)
(0.144622 3.11916e-08 5.92616e-15)
(0.144622 2.96429e-08 5.9721e-15)
(0.144622 2.98736e-08 5.94568e-15)
(0.144622 3.16737e-08 5.94187e-15)
(0.144622 3.40607e-08 5.95712e-15)
(0.144622 3.69526e-08 5.95718e-15)
(0.144621 3.33858e-08 5.98704e-15)
(0.144593 6.85241e-08 6.04038e-15)
(0.144593 7.73893e-08 6.05101e-15)
(0.144593 6.61935e-08 6.00541e-15)
(0.144593 5.36953e-08 5.96843e-15)
(0.144593 4.58744e-08 5.93225e-15)
(0.144593 3.95682e-08 5.96269e-15)
(0.144593 3.51311e-08 6.01816e-15)
(0.144593 3.2953e-08 6.02788e-15)
(0.144593 3.25666e-08 6.04718e-15)
(0.144593 3.36929e-08 6.08262e-15)
(0.144593 3.61825e-08 6.07679e-15)
(0.144593 3.98651e-08 6.03205e-15)
(0.144593 4.45862e-08 5.98475e-15)
(0.144593 5.02116e-08 5.93649e-15)
(0.144593 5.66126e-08 5.90008e-15)
(0.144593 6.36633e-08 5.87652e-15)
(0.144593 7.12399e-08 5.84846e-15)
(0.144593 7.92192e-08 5.82652e-15)
(0.144593 8.74778e-08 5.80086e-15)
(0.144593 9.58928e-08 5.78392e-15)
(0.144593 1.04343e-07 5.73378e-15)
(0.144593 1.1271e-07 5.76113e-15)
(0.144593 1.20881e-07 5.78443e-15)
(0.144593 1.28747e-07 5.76995e-15)
(0.144593 1.36211e-07 5.81613e-15)
(0.144593 1.43182e-07 5.80601e-15)
(0.144593 1.49583e-07 5.80328e-15)
(0.144593 1.55354e-07 5.80998e-15)
(0.144593 1.60453e-07 5.78054e-15)
(0.144593 1.64869e-07 5.86338e-15)
(0.144593 1.68621e-07 5.86859e-15)
(0.144593 1.71767e-07 5.83373e-15)
(0.144593 1.74417e-07 5.8309e-15)
(0.144593 1.76744e-07 5.8489e-15)
(0.144593 1.79e-07 5.96118e-15)
(0.144593 1.8154e-07 5.94906e-15)
(0.144593 1.84859e-07 5.92253e-15)
(0.144593 1.8963e-07 5.92104e-15)
(0.144593 1.96799e-07 5.92209e-15)
(0.144593 2.07623e-07 6.00737e-15)
(0.144593 2.24007e-07 6.04859e-15)
(0.144593 2.48177e-07 6.06868e-15)
(0.144593 2.84434e-07 6.08009e-15)
(0.144593 3.34186e-07 6.09406e-15)
(0.144593 4.07515e-07 6.11139e-15)
(0.144593 4.39179e-07 6.12668e-15)
(0.144593 3.6823e-07 6.1398e-15)
(0.144593 2.64019e-07 6.14663e-15)
(0.144593 1.82017e-07 6.15017e-15)
(0.144593 1.18102e-07 6.14851e-15)
(0.144593 6.54269e-08 6.14055e-15)
(0.144593 2.23309e-08 6.12856e-15)
(0.144593 -1.39835e-08 6.11517e-15)
(0.144593 -4.58261e-08 6.10548e-15)
(0.144593 -7.44069e-08 6.08533e-15)
(0.144593 -1.00488e-07 6.07234e-15)
(0.144593 -1.24589e-07 6.08383e-15)
(0.144593 -1.47026e-07 6.09766e-15)
(0.144593 -1.67988e-07 6.10072e-15)
(0.144593 -1.87586e-07 6.08254e-15)
(0.144593 -2.05876e-07 6.09691e-15)
(0.144593 -2.22876e-07 6.11134e-15)
(0.144593 -2.38581e-07 6.10728e-15)
(0.144593 -2.52973e-07 6.10385e-15)
(0.144593 -2.66025e-07 6.09428e-15)
(0.144593 -2.77707e-07 6.10106e-15)
(0.144593 -2.87991e-07 6.11351e-15)
(0.144593 -2.96852e-07 6.10755e-15)
(0.144593 -3.04271e-07 6.09328e-15)
(0.144593 -3.10235e-07 6.06884e-15)
(0.144593 -3.14741e-07 6.0779e-15)
(0.144593 -3.17795e-07 6.09036e-15)
(0.144593 -3.19412e-07 6.08615e-15)
(0.144593 -3.19615e-07 6.07864e-15)
(0.144593 -3.18438e-07 6.06013e-15)
(0.144593 -3.15925e-07 6.06408e-15)
(0.144593 -3.12125e-07 6.082e-15)
(0.144593 -3.07098e-07 6.09435e-15)
(0.144593 -3.00909e-07 6.10081e-15)
(0.144593 -2.93631e-07 6.09392e-15)
(0.144593 -2.8534e-07 5.86602e-15)
(0.144593 -2.76114e-07 6.00951e-15)
(0.144594 -2.66036e-07 5.99398e-15)
(0.144594 -2.55185e-07 5.90873e-15)
(0.144594 -2.4364e-07 5.97871e-15)
(0.144594 -2.31471e-07 5.87657e-15)
(0.144594 -2.18742e-07 5.99073e-15)
(0.144594 -2.05504e-07 6.03946e-15)
(0.144594 -1.91789e-07 5.94938e-15)
(0.144594 -1.77608e-07 6.12355e-15)
(0.144594 -1.62939e-07 5.7415e-15)
(0.144594 -1.47717e-07 6.00736e-15)
(0.144594 -1.31826e-07 6.06172e-15)
(0.144594 -1.15071e-07 5.94597e-15)
(0.144594 -9.71637e-08 6.10749e-15)
(0.144594 -7.76777e-08 5.93654e-15)
(0.144594 -5.60091e-08 6.2116e-15)
(0.144594 -3.12813e-08 6.01298e-15)
(0.144594 -2.30135e-09 5.94757e-15)
(0.144594 3.27781e-08 6.11746e-15)
(0.144594 7.6139e-08 5.75083e-15)
(0.144594 1.32052e-07 6.05995e-15)
(0.144594 2.01917e-07 6.03727e-15)
(0.144594 2.95839e-07 5.97036e-15)
(0.144594 3.48766e-07 6.12132e-15)
(0.144594 2.99643e-07 5.82776e-15)
(0.144594 2.17633e-07 6.11655e-15)
(0.144594 1.58225e-07 6.01527e-15)
(0.144594 1.17351e-07 5.96581e-15)
(0.144594 8.81945e-08 6.08585e-15)
(0.144594 6.91283e-08 5.99475e-15)
(0.144594 5.73825e-08 5.96444e-15)
(0.144594 5.06781e-08 5.96646e-15)
(0.144594 4.78027e-08 5.9182e-15)
(0.144594 4.80287e-08 6.03543e-15)
(0.144594 5.06704e-08 5.9459e-15)
(0.144594 5.55295e-08 5.9297e-15)
(0.144594 6.12615e-08 5.96287e-15)
(0.144594 6.8774e-08 5.96423e-15)
(0.144594 6.50933e-08 6.03269e-15)
(0.144555 1.0676e-07 6.03585e-15)
(0.144555 1.09545e-07 6.08967e-15)
(0.144555 9.08159e-08 6.08538e-15)
(0.144555 7.44994e-08 6.07491e-15)
(0.144555 6.40208e-08 6.05591e-15)
(0.144555 5.50577e-08 6.05554e-15)
(0.144555 4.82126e-08 6.07322e-15)
(0.144555 4.39761e-08 6.07993e-15)
(0.144555 4.18402e-08 6.08204e-15)
(0.144555 4.15062e-08 6.08986e-15)
(0.144555 4.27974e-08 6.08494e-15)
(0.144555 4.5504e-08 6.0595e-15)
(0.144555 4.94352e-08 6.02353e-15)
(0.144555 5.44256e-08 5.9851e-15)
(0.144555 6.03189e-08 5.94983e-15)
(0.144555 6.69656e-08 5.92372e-15)
(0.144555 7.42221e-08 5.90338e-15)
(0.144555 8.1948e-08 5.88532e-15)
(0.144555 9.00053e-08 5.86521e-15)
(0.144555 9.82588e-08 5.84455e-15)
(0.144555 1.06577e-07 5.81429e-15)
(0.144555 1.14833e-07 5.80985e-15)
(0.144555 1.22909e-07 5.82054e-15)
(0.144555 1.30692e-07 5.82464e-15)
(0.144555 1.3808e-07 5.85016e-15)
(0.144555 1.44982e-07 5.86884e-15)
(0.144555 1.51319e-07 5.88397e-15)
(0.144555 1.57032e-07 5.8969e-15)
(0.144555 1.62081e-07 5.89885e-15)
(0.144555 1.66456e-07 5.9302e-15)
(0.144555 1.70179e-07 5.9512e-15)
(0.144555 1.73313e-07 5.95547e-15)
(0.144555 1.75971e-07 5.9653e-15)
(0.144555 1.78326e-07 5.98047e-15)
(0.144555 1.80628e-07 6.02454e-15)
(0.144555 1.83222e-07 6.05196e-15)
(0.144555 1.8658e-07 6.06439e-15)
(0.144555 1.91332e-07 6.07482e-15)
(0.144555 1.98331e-07 6.08351e-15)
(0.144555 2.0867e-07 6.12083e-15)
(0.144555 2.23902e-07 6.16014e-15)
(0.144555 2.45631e-07 6.19678e-15)
(0.144555 2.76648e-07 6.21725e-15)
(0.144555 3.1623e-07 6.24697e-15)
(0.144555 3.68027e-07 6.27267e-15)
(0.144555 3.90986e-07 6.2856e-15)
(0.144555 3.42253e-07 6.29647e-15)
(0.144555 2.61781e-07 6.30026e-15)
(0.144555 1.9002e-07 6.31287e-15)
(0.144555 1.29108e-07 6.31435e-15)
(0.144555 7.6352e-08 6.30316e-15)
(0.144555 3.15755e-08 6.28931e-15)
(0.144555 -6.86771e-09 6.27501e-15)
(0.144555 -4.07537e-08 6.27096e-15)
(0.144555 -7.11665e-08 6.23415e-15)
(0.144555 -9.88453e-08 6.31464e-15)
(0.144555 -1.24319e-07 6.25343e-15)
(0.144555 -1.47931e-07 6.27798e-15)
(0.144555 -1.69897e-07 6.28609e-15)
(0.144555 -1.90352e-07 6.24702e-15)
(0.144555 -2.09371e-07 6.25326e-15)
(0.144555 -2.26993e-07 6.31519e-15)
(0.144555 -2.43227e-07 6.30671e-15)
(0.144555 -2.58069e-07 6.29766e-15)
(0.144555 -2.71502e-07 6.27395e-15)
(0.144555 -2.83508e-07 6.28081e-15)
(0.144555 -2.94066e-07 6.31298e-15)
(0.144555 -3.0316e-07 6.31161e-15)
(0.144555 -3.10776e-07 6.30068e-15)
(0.144555 -3.16909e-07 6.26088e-15)
(0.144555 -3.2156e-07 6.45629e-15)
(0.144555 -3.24739e-07 6.31358e-15)
(0.144555 -3.26465e-07 6.3037e-15)
(0.144555 -3.26766e-07 6.28865e-15)
(0.144555 -3.25678e-07 6.25106e-15)
(0.144555 -3.23245e-07 6.44201e-15)
(0.144555 -3.19521e-07 6.3082e-15)
(0.144555 -3.14565e-07 6.32262e-15)
(0.144555 -3.08444e-07 6.32613e-15)
(0.144555 -3.0123e-07 6.29343e-15)
(0.144555 -2.92998e-07 6.23137e-15)
(0.144555 -2.83827e-07 6.14377e-15)
(0.144555 -2.73796e-07 6.01548e-15)
(0.144555 -2.62982e-07 5.99602e-15)
(0.144555 -2.51461e-07 5.75606e-15)
(0.144555 -2.393e-07 6.21967e-15)
(0.144555 -2.26558e-07 6.02779e-15)
(0.144555 -2.13282e-07 6.03514e-15)
(0.144555 -1.99499e-07 6.0159e-15)
(0.144555 -1.85212e-07 5.98898e-15)
(0.144555 -1.70395e-07 6.15779e-15)
(0.144555 -1.54979e-07 6.04217e-15)
(0.144555 -1.38844e-07 6.0315e-15)
(0.144555 -1.21798e-07 5.99317e-15)
(0.144555 -1.03559e-07 5.89218e-15)
(0.144555 -8.37228e-08 6.03934e-15)
(0.144555 -6.17278e-08 5.89847e-15)
(0.144555 -3.67856e-08 6.02047e-15)
(0.144555 -7.86532e-09 5.89067e-15)
(0.144555 2.65357e-08 5.97005e-15)
(0.144555 6.79853e-08 6.0608e-15)
(0.144555 1.19256e-07 5.92723e-15)
(0.144555 1.79635e-07 6.04203e-15)
(0.144555 2.52798e-07 5.99372e-15)
(0.144556 2.97829e-07 5.8561e-15)
(0.144556 2.71846e-07 6.01376e-15)
(0.144556 2.14704e-07 5.9803e-15)
(0.144556 1.66876e-07 6.01599e-15)
(0.144556 1.30563e-07 5.97821e-15)
(0.144556 1.03125e-07 6.00478e-15)
(0.144556 8.4442e-08 6.12416e-15)
(0.144556 7.2922e-08 6.08107e-15)
(0.144556 6.68514e-08 6.03035e-15)
(0.144556 6.51676e-08 5.98847e-15)
(0.144555 6.72033e-08 5.94777e-15)
(0.144555 7.22491e-08 6.15627e-15)
(0.144555 8.01782e-08 6.0641e-15)
(0.144555 8.94486e-08 6.01966e-15)
(0.144555 1.01895e-07 5.9133e-15)
(0.144555 1.02867e-07 5.97876e-15)
(0.144507 1.45732e-07 6.26928e-15)
(0.144507 1.42342e-07 6.14732e-15)
(0.144507 1.16231e-07 6.17637e-15)
(0.144507 9.55002e-08 6.1866e-15)
(0.144507 8.19455e-08 6.17344e-15)
(0.144507 7.03672e-08 6.16543e-15)
(0.144507 6.13522e-08 6.16155e-15)
(0.144507 5.52989e-08 6.14746e-15)
(0.144507 5.16214e-08 6.13066e-15)
(0.144507 4.99977e-08 6.11461e-15)
(0.144507 5.02241e-08 6.09299e-15)
(0.144507 5.2058e-08 6.06616e-15)
(0.144507 5.52788e-08 6.03237e-15)
(0.144507 5.96941e-08 6.00075e-15)
(0.144507 6.51235e-08 5.9703e-15)
(0.144507 7.13966e-08 5.95281e-15)
(0.144507 7.83513e-08 5.945e-15)
(0.144507 8.58315e-08 5.93136e-15)
(0.144507 9.36858e-08 5.9126e-15)
(0.144506 1.01767e-07 5.88803e-15)
(0.144506 1.09934e-07 5.8678e-15)
(0.144506 1.18053e-07 5.86759e-15)
(0.144506 1.25998e-07 5.87948e-15)
(0.144506 1.33654e-07 5.89577e-15)
(0.144506 1.40916e-07 5.92392e-15)
(0.144506 1.47692e-07 5.95495e-15)
(0.144506 1.53902e-07 5.98552e-15)
(0.144506 1.59485e-07 6.00619e-15)
(0.144506 1.64403e-07 6.01967e-15)
(0.144506 1.68648e-07 6.04165e-15)
(0.144506 1.72244e-07 6.06954e-15)
(0.144506 1.75256e-07 6.09647e-15)
(0.144506 1.77798e-07 6.11568e-15)
(0.144506 1.80041e-07 6.13419e-15)
(0.144506 1.82229e-07 6.16407e-15)
(0.144506 1.84692e-07 6.19991e-15)
(0.144506 1.87873e-07 6.23071e-15)
(0.144506 1.92345e-07 6.24778e-15)
(0.144506 1.98861e-07 6.26041e-15)
(0.144506 2.08338e-07 6.28654e-15)
(0.144506 2.21992e-07 6.31576e-15)
(0.144506 2.40893e-07 6.36553e-15)
(0.144506 2.66659e-07 6.37636e-15)
(0.144506 2.9755e-07 6.43053e-15)
(0.144507 3.33581e-07 6.45345e-15)
(0.144507 3.48202e-07 6.45002e-15)
(0.144507 3.12353e-07 6.45773e-15)
(0.144507 2.49545e-07 6.45685e-15)
(0.144507 1.88102e-07 6.50487e-15)
(0.144507 1.32243e-07 6.49431e-15)
(0.144507 8.16397e-08 6.46637e-15)
(0.144507 3.70682e-08 6.44671e-15)
(0.144507 -2.15283e-09 6.43016e-15)
(0.144507 -3.71753e-08 6.43827e-15)
(0.144507 -6.88105e-08 6.34808e-15)
(0.144507 -9.76681e-08 6.36954e-15)
(0.144507 -1.24218e-07 6.45521e-15)
(0.144507 -1.48784e-07 6.47869e-15)
(0.144507 -1.71581e-07 6.49393e-15)
(0.144507 -1.92752e-07 6.39573e-15)
(0.144507 -2.12381e-07 6.43372e-15)
(0.144507 -2.30518e-07 6.52489e-15)
(0.144507 -2.47183e-07 6.51523e-15)
(0.144507 -2.62381e-07 6.50056e-15)
(0.144507 -2.76107e-07 6.43829e-15)
(0.144507 -2.8835e-07 6.46792e-15)
(0.144507 -2.99098e-07 6.50869e-15)
(0.144507 -3.08341e-07 6.5141e-15)
(0.144507 -3.16073e-07 6.52797e-15)
(0.144507 -3.22295e-07 6.43511e-15)
(0.144507 -3.27015e-07 6.48016e-15)
(0.144507 -3.30246e-07 6.52023e-15)
(0.144507 -3.32011e-07 6.51665e-15)
(0.144507 -3.32344e-07 6.51558e-15)
(0.144507 -3.31282e-07 6.42053e-15)
(0.144507 -3.28873e-07 6.46852e-15)
(0.144507 -3.25174e-07 6.54952e-15)
(0.144507 -3.20244e-07 6.56298e-15)
(0.144507 -3.14153e-07 6.57777e-15)
(0.144507 -3.06971e-07 6.47995e-15)
(0.144507 -2.98775e-07 6.50028e-15)
(0.144507 -2.89643e-07 6.42383e-15)
(0.144507 -2.79651e-07 6.38242e-15)
(0.144507 -2.68876e-07 6.37255e-15)
(0.144507 -2.5739e-07 6.32556e-15)
(0.144507 -2.45258e-07 6.44131e-15)
(0.144507 -2.32534e-07 6.43365e-15)
(0.144507 -2.19262e-07 6.39953e-15)
(0.144507 -2.05463e-07 6.4136e-15)
(0.144507 -1.91137e-07 6.36352e-15)
(0.144507 -1.76254e-07 6.43833e-15)
(0.144507 -1.60744e-07 6.4099e-15)
(0.144507 -1.44484e-07 6.35849e-15)
(0.144507 -1.2729e-07 6.34699e-15)
(0.144507 -1.08893e-07 6.30242e-15)
(0.144507 -8.89179e-08 6.37916e-15)
(0.144507 -6.68562e-08 6.38278e-15)
(0.144507 -4.20194e-08 6.33568e-15)
(0.144507 -1.35481e-08 6.32786e-15)
(0.144507 1.97269e-08 6.2936e-15)
(0.144507 5.88468e-08 6.39674e-15)
(0.144507 1.05426e-07 6.39013e-15)
(0.144507 1.57743e-07 6.33837e-15)
(0.144507 2.15854e-07 6.32359e-15)
(0.144507 2.53318e-07 6.27968e-15)
(0.144507 2.41094e-07 6.38401e-15)
(0.144507 2.02666e-07 6.37459e-15)
(0.144508 1.66403e-07 6.31387e-15)
(0.144508 1.36603e-07 6.32014e-15)
(0.144507 1.1301e-07 6.31472e-15)
(0.144507 9.64817e-08 6.41845e-15)
(0.144507 8.64187e-08 6.45309e-15)
(0.144507 8.1763e-08 6.41452e-15)
(0.144507 8.17523e-08 6.36703e-15)
(0.144507 8.58913e-08 6.31918e-15)
(0.144507 9.35359e-08 6.38391e-15)
(0.144507 1.04682e-07 6.43354e-15)
(0.144507 1.17717e-07 6.40925e-15)
(0.144507 1.3507e-07 6.3876e-15)
(0.144507 1.41185e-07 6.29033e-15)
(0.14445 1.84013e-07 6.49739e-15)
(0.14445 1.74986e-07 6.39967e-15)
(0.14445 1.42081e-07 6.35454e-15)
(0.14445 1.16892e-07 6.32491e-15)
(0.14445 1.00054e-07 6.29034e-15)
(0.144449 8.58186e-08 6.28056e-15)
(0.144449 7.47186e-08 6.2577e-15)
(0.144449 6.69769e-08 6.21226e-15)
(0.144449 6.18985e-08 6.17691e-15)
(0.144449 5.91183e-08 6.13634e-15)
(0.144449 5.83939e-08 6.09113e-15)
(0.144449 5.94481e-08 6.05918e-15)
(0.144449 6.20323e-08 6.01802e-15)
(0.144449 6.59289e-08 5.9928e-15)
(0.144449 7.09354e-08 5.96623e-15)
(0.144449 7.68621e-08 5.97355e-15)
(0.144449 8.35304e-08 5.98692e-15)
(0.144449 9.07696e-08 5.96834e-15)
(0.144449 9.84155e-08 5.94474e-15)
(0.144449 1.0631e-07 5.91102e-15)
(0.144449 1.14303e-07 5.90994e-15)
(0.144449 1.22252e-07 5.93843e-15)
(0.144449 1.30027e-07 5.96254e-15)
(0.144449 1.37511e-07 5.99379e-15)
(0.144449 1.44595e-07 6.03681e-15)
(0.144449 1.51185e-07 6.07933e-15)
(0.144449 1.572e-07 6.12275e-15)
(0.144449 1.6258e-07 6.14151e-15)
(0.144449 1.67288e-07 6.16416e-15)
(0.144449 1.71314e-07 6.19116e-15)
(0.144449 1.74686e-07 6.23186e-15)
(0.144449 1.77469e-07 6.2761e-15)
(0.144449 1.79776e-07 6.28919e-15)
(0.144449 1.81777e-07 6.31179e-15)
(0.144449 1.83704e-07 6.34471e-15)
(0.144449 1.8587e-07 6.39373e-15)
(0.144449 1.88682e-07 6.43591e-15)
(0.144449 1.92655e-07 6.4425e-15)
(0.144449 1.98439e-07 6.45409e-15)
(0.144449 2.06782e-07 6.48454e-15)
(0.144449 2.18598e-07 6.50176e-15)
(0.144449 2.34531e-07 6.52599e-15)
(0.144449 2.55352e-07 6.55114e-15)
(0.144449 2.78907e-07 6.75092e-15)
(0.144449 3.03387e-07 6.63212e-15)
(0.144449 3.11153e-07 6.60084e-15)
(0.144449 2.82682e-07 6.68712e-15)
(0.144449 2.32126e-07 6.6025e-15)
(0.144449 1.79254e-07 6.81194e-15)
(0.144449 1.28689e-07 6.68054e-15)
(0.14445 8.12282e-08 6.61251e-15)
(0.14445 3.80658e-08 6.67737e-15)
(0.14445 -8.46497e-10 6.57393e-15)
(0.14445 -3.6136e-08 6.5811e-15)
(0.14445 -6.83234e-08 6.34278e-15)
(0.14445 -9.78478e-08 6.63749e-15)
(0.14445 -1.25078e-07 6.62621e-15)
(0.14445 -1.50287e-07 6.68717e-15)
(0.14445 -1.73664e-07 6.84555e-15)
(0.14445 -1.95341e-07 6.32734e-15)
(0.14445 -2.15401e-07 6.7081e-15)
(0.14445 -2.33895e-07 6.78227e-15)
(0.14445 -2.5085e-07 6.74627e-15)
(0.14445 -2.66277e-07 6.77987e-15)
(0.14445 -2.80175e-07 6.3623e-15)
(0.14445 -2.92543e-07 6.69372e-15)
(0.14445 -3.03375e-07 6.70726e-15)
(0.14445 -3.12668e-07 6.71296e-15)
(0.14445 -3.20422e-07 6.71886e-15)
(0.14445 -3.26644e-07 6.49125e-15)
(0.14445 -3.31346e-07 6.70022e-15)
(0.14445 -3.34549e-07 6.735e-15)
(0.14445 -3.36279e-07 6.72519e-15)
(0.14445 -3.36574e-07 6.71609e-15)
(0.14445 -3.35475e-07 6.47327e-15)
(0.14445 -3.33033e-07 6.78163e-15)
(0.14445 -3.29307e-07 6.76665e-15)
(0.14445 -3.2436e-07 6.80701e-15)
(0.14445 -3.18261e-07 6.87899e-15)
(0.14445 -3.11082e-07 6.64344e-15)
(0.14445 -3.029e-07 6.73826e-15)
(0.14445 -2.93792e-07 6.73832e-15)
(0.14445 -2.83834e-07 6.67992e-15)
(0.14445 -2.731e-07 6.77845e-15)
(0.14445 -2.61661e-07 6.72225e-15)
(0.14445 -2.49577e-07 6.82067e-15)
(0.14445 -2.36902e-07 6.80376e-15)
(0.14445 -2.23672e-07 6.71645e-15)
(0.14445 -2.09909e-07 6.89872e-15)
(0.14445 -1.95607e-07 6.76176e-15)
(0.14445 -1.80734e-07 6.79675e-15)
(0.14445 -1.65218e-07 6.74032e-15)
(0.14445 -1.48941e-07 6.6457e-15)
(0.14445 -1.31727e-07 6.81694e-15)
(0.14445 -1.13324e-07 6.65993e-15)
(0.14445 -9.33908e-08 6.83749e-15)
(0.14445 -7.14773e-08 6.68976e-15)
(0.14445 -4.69973e-08 6.6171e-15)
(0.14445 -1.92574e-08 6.69624e-15)
(0.14445 1.26139e-08 6.62728e-15)
(0.14445 4.92385e-08 6.73181e-15)
(0.14445 9.13929e-08 6.6884e-15)
(0.14445 1.36957e-07 6.60531e-15)
(0.14445 1.84175e-07 6.69307e-15)
(0.14445 2.15506e-07 6.63602e-15)
(0.14445 2.11485e-07 6.82431e-15)
(0.14445 1.8629e-07 6.68388e-15)
(0.14445 1.59761e-07 6.58029e-15)
(0.14445 1.36618e-07 6.76282e-15)
(0.14445 1.17756e-07 6.63813e-15)
(0.14445 1.04476e-07 6.73834e-15)
(0.14445 9.68365e-08 6.95241e-15)
(0.14445 9.43391e-08 6.73604e-15)
(0.14445 9.65428e-08 6.85669e-15)
(0.14445 1.0317e-07 6.67383e-15)
(0.14445 1.13699e-07 6.72878e-15)
(0.14445 1.28278e-07 6.81288e-15)
(0.14445 1.45309e-07 6.72958e-15)
(0.14445 1.67608e-07 6.74852e-15)
(0.14445 1.78766e-07 6.61858e-15)
(0.144384 2.20907e-07 6.64023e-15)
(0.144384 2.06691e-07 6.55684e-15)
(0.144384 1.67785e-07 6.51734e-15)
(0.144384 1.38479e-07 6.46383e-15)
(0.144384 1.184e-07 6.39622e-15)
(0.144384 1.01542e-07 6.4033e-15)
(0.144384 8.84246e-08 6.33878e-15)
(0.144384 7.90792e-08 6.24508e-15)
(0.144384 7.26973e-08 6.20979e-15)
(0.144384 6.8859e-08 6.13394e-15)
(0.144384 6.72726e-08 6.06047e-15)
(0.144384 6.76221e-08 6.04323e-15)
(0.144384 6.96297e-08 5.97399e-15)
(0.144384 7.3053e-08 5.97016e-15)
(0.144384 7.76684e-08 5.94082e-15)
(0.144384 8.32681e-08 6.01739e-15)
(0.144384 8.9658e-08 6.04854e-15)
(0.144384 9.66539e-08 5.99097e-15)
(0.144383 1.0408e-07 5.96032e-15)
(0.144383 1.11767e-07 5.90766e-15)
(0.144383 1.19556e-07 5.97018e-15)
(0.144383 1.27299e-07 6.0507e-15)
(0.144383 1.34861e-07 6.07667e-15)
(0.144383 1.42122e-07 6.129e-15)
(0.144383 1.48971e-07 6.19768e-15)
(0.144383 1.55314e-07 6.24999e-15)
(0.144383 1.61068e-07 6.30322e-15)
(0.144383 1.66172e-07 6.29518e-15)
(0.144383 1.70588e-07 6.34511e-15)
(0.144383 1.7431e-07 6.38069e-15)
(0.144383 1.77364e-07 6.44276e-15)
(0.144383 1.79817e-07 6.51284e-15)
(0.144383 1.81781e-07 6.48077e-15)
(0.144383 1.83419e-07 6.53067e-15)
(0.144383 1.84953e-07 6.57232e-15)
(0.144383 1.86675e-07 6.64475e-15)
(0.144383 1.88956e-07 6.6878e-15)
(0.144383 1.92251e-07 6.64793e-15)
(0.144383 1.97112e-07 6.66512e-15)
(0.144383 2.04132e-07 6.72446e-15)
(0.144383 2.13972e-07 6.70545e-15)
(0.144383 2.26952e-07 6.70001e-15)
(0.144383 2.43261e-07 6.6746e-15)
(0.144383 2.60662e-07 6.70681e-15)
(0.144383 2.76588e-07 6.71951e-15)
(0.144384 2.78992e-07 6.71718e-15)
(0.144384 2.54698e-07 6.72423e-15)
(0.144384 2.12452e-07 6.72167e-15)
(0.144384 1.66211e-07 6.76545e-15)
(0.144384 1.20349e-07 6.75259e-15)
(0.144384 7.61509e-08 6.72803e-15)
(0.144384 3.49277e-08 6.71057e-15)
(0.144384 -3.01261e-09 6.69965e-15)
(0.144384 -3.79297e-08 6.71369e-15)
(0.144384 -7.01071e-08 6.63703e-15)
(0.144384 -9.98231e-08 6.68289e-15)
(0.144384 -1.27338e-07 6.78225e-15)
(0.144384 -1.52859e-07 6.80702e-15)
(0.144384 -1.76537e-07 6.8225e-15)
(0.144384 -1.98482e-07 6.7322e-15)
(0.144384 -2.18765e-07 6.75895e-15)
(0.144384 -2.37434e-07 6.8512e-15)
(0.144384 -2.54515e-07 6.85574e-15)
(0.144384 -2.70021e-07 6.84982e-15)
(0.144384 -2.83957e-07 6.79837e-15)
(0.144384 -2.96324e-07 6.8341e-15)
(0.144384 -3.07123e-07 6.87814e-15)
(0.144384 -3.16357e-07 6.89419e-15)
(0.144384 -3.24032e-07 6.91659e-15)
(0.144384 -3.30159e-07 6.83005e-15)
(0.144384 -3.34756e-07 6.86545e-15)
(0.144384 -3.37849e-07 6.90348e-15)
(0.144384 -3.3947e-07 6.91147e-15)
(0.144384 -3.39658e-07 6.9167e-15)
(0.144384 -3.38461e-07 6.82363e-15)
(0.144384 -3.35933e-07 6.86656e-15)
(0.144384 -3.32133e-07 6.94393e-15)
(0.144384 -3.27128e-07 6.96439e-15)
(0.144384 -3.20989e-07 6.98984e-15)
(0.144384 -3.13787e-07 6.90259e-15)
(0.144384 -3.05601e-07 6.93379e-15)
(0.144384 -2.96507e-07 6.94278e-15)
(0.144384 -2.8658e-07 6.93288e-15)
(0.144384 -2.75892e-07 6.97632e-15)
(0.144384 -2.64512e-07 6.95684e-15)
(0.144384 -2.52499e-07 7.0124e-15)
(0.144384 -2.39901e-07 7.0131e-15)
(0.144384 -2.26754e-07 6.97274e-15)
(0.144384 -2.13074e-07 7.0121e-15)
(0.144384 -1.98854e-07 6.95765e-15)
(0.144384 -1.84059e-07 6.96282e-15)
(0.144384 -1.6862e-07 6.92992e-15)
(0.144384 -1.52423e-07 6.88052e-15)
(0.144384 -1.353e-07 6.89491e-15)
(0.144384 -1.17021e-07 6.87739e-15)
(0.144384 -9.72806e-08 6.89878e-15)
(0.144384 -7.56878e-08 6.88594e-15)
(0.144384 -5.17553e-08 6.84548e-15)
(0.144384 -2.49413e-08 6.85519e-15)
(0.144384 5.37336e-09 6.84064e-15)
(0.144384 3.94927e-08 6.88009e-15)
(0.144384 7.7621e-08 6.86652e-15)
(0.144384 1.17571e-07 6.82841e-15)
(0.144384 1.56839e-07 6.84988e-15)
(0.144384 1.8348e-07 6.83617e-15)
(0.144384 1.84405e-07 6.87527e-15)
(0.144384 1.68432e-07 6.84899e-15)
(0.144384 1.49616e-07 6.79964e-15)
(0.144384 1.3245e-07 6.83387e-15)
(0.144384 1.18338e-07 6.8143e-15)
(0.144384 1.08725e-07 6.87716e-15)
(0.144384 1.04053e-07 6.92224e-15)
(0.144384 1.04227e-07 6.88691e-15)
(0.144384 1.09078e-07 6.88538e-15)
(0.144384 1.1854e-07 6.83672e-15)