/*--------------------------------*- C++ -*----------------------------------*\
  =========                 |
  \\      /  F ield         | OpenFOAM: The Open Source CFD Toolbox
   \\    /   O peration     | Website:  https://openfoam.org
    \\  /    A nd           | Version:  7
     \\/     M anipulation  |
\*---------------------------------------------------------------------------*/
FoamFile
{
    version     2.0;
    format      ascii;
    class       volScalarField;
    location    "500";
    object      k;
}
// * * * * * * * * * * * * * * * * * * * * * * * * * * * * * * * * * * * * * //

dimensions      [0 2 -2 0 0 0 0];

internalField   nonuniform List<scalar> 
24000
(
9.36001e-09
9.36214e-09
9.36391e-09
9.36464e-09
9.36477e-09
9.36454e-09
9.36413e-09
9.36366e-09
9.36318e-09
9.36272e-09
9.3623e-09
9.36192e-09
9.36159e-09
9.3613e-09
9.36105e-09
9.36085e-09
9.3607e-09
9.36059e-09
9.36052e-09
9.3605e-09
9.36051e-09
9.36055e-09
9.36063e-09
9.36071e-09
9.36081e-09
9.36091e-09
9.36101e-09
9.36109e-09
9.36115e-09
9.3612e-09
9.36122e-09
9.36123e-09
9.36122e-09
9.36119e-09
9.36115e-09
9.3611e-09
9.36104e-09
9.36096e-09
9.36088e-09
9.36077e-09
9.36065e-09
9.36051e-09
9.36033e-09
9.36014e-09
9.35987e-09
9.35955e-09
9.35918e-09
9.35877e-09
9.35832e-09
9.35784e-09
9.3574e-09
9.357e-09
9.35662e-09
9.35629e-09
9.35598e-09
9.35572e-09
9.35551e-09
9.35534e-09
9.35523e-09
9.35516e-09
9.35516e-09
9.35521e-09
9.3553e-09
9.35545e-09
9.35563e-09
9.35585e-09
9.3561e-09
9.35636e-09
9.35663e-09
9.3569e-09
9.35717e-09
9.35743e-09
9.35768e-09
9.35792e-09
9.35815e-09
9.35837e-09
9.35858e-09
9.35879e-09
9.35899e-09
9.3592e-09
9.3594e-09
9.3596e-09
9.3598e-09
9.35999e-09
9.36018e-09
9.36037e-09
9.36055e-09
9.36074e-09
9.36095e-09
9.36117e-09
9.36138e-09
9.36157e-09
9.36173e-09
9.36188e-09
9.36202e-09
9.36214e-09
9.36225e-09
9.36235e-09
9.36244e-09
9.36252e-09
9.36258e-09
9.36261e-09
9.36264e-09
9.36261e-09
9.36252e-09
9.36244e-09
9.36234e-09
9.36222e-09
9.36207e-09
9.36192e-09
9.36177e-09
9.36163e-09
9.36151e-09
9.36143e-09
9.36136e-09
9.36135e-09
9.36136e-09
9.36125e-09
9.36178e-09
9.35971e-09
2.82007e-07
2.82072e-07
2.82125e-07
2.82147e-07
2.8215e-07
2.82143e-07
2.82131e-07
2.82116e-07
2.82102e-07
2.82088e-07
2.82076e-07
2.82064e-07
2.82054e-07
2.82046e-07
2.82038e-07
2.82032e-07
2.82027e-07
2.82024e-07
2.82022e-07
2.82021e-07
2.82022e-07
2.82023e-07
2.82025e-07
2.82028e-07
2.82031e-07
2.82034e-07
2.82037e-07
2.82039e-07
2.82041e-07
2.82042e-07
2.82043e-07
2.82043e-07
2.82043e-07
2.82042e-07
2.82041e-07
2.8204e-07
2.82038e-07
2.82036e-07
2.82033e-07
2.8203e-07
2.82026e-07
2.82022e-07
2.82017e-07
2.82011e-07
2.82003e-07
2.81993e-07
2.81982e-07
2.8197e-07
2.81956e-07
2.81942e-07
2.81929e-07
2.81917e-07
2.81905e-07
2.81895e-07
2.81886e-07
2.81878e-07
2.81872e-07
2.81866e-07
2.81863e-07
2.81861e-07
2.81861e-07
2.81862e-07
2.81865e-07
2.81869e-07
2.81875e-07
2.81882e-07
2.81889e-07
2.81897e-07
2.81905e-07
2.81913e-07
2.81921e-07
2.81929e-07
2.81936e-07
2.81944e-07
2.8195e-07
2.81957e-07
2.81963e-07
2.8197e-07
2.81976e-07
2.81982e-07
2.81988e-07
2.81994e-07
2.82e-07
2.82006e-07
2.82011e-07
2.82017e-07
2.82022e-07
2.82028e-07
2.82035e-07
2.82041e-07
2.82047e-07
2.82053e-07
2.82058e-07
2.82063e-07
2.82067e-07
2.8207e-07
2.82074e-07
2.82077e-07
2.82079e-07
2.82082e-07
2.82084e-07
2.82085e-07
2.82085e-07
2.82085e-07
2.82082e-07
2.8208e-07
2.82077e-07
2.82073e-07
2.82068e-07
2.82064e-07
2.82059e-07
2.82055e-07
2.82052e-07
2.82049e-07
2.82047e-07
2.82047e-07
2.82047e-07
2.82044e-07
2.8206e-07
2.81998e-07
2.04497e-06
2.04541e-06
2.04579e-06
2.04595e-06
2.04597e-06
2.04592e-06
2.04583e-06
2.04573e-06
2.04562e-06
2.04552e-06
2.04543e-06
2.04535e-06
2.04528e-06
2.04522e-06
2.04516e-06
2.04512e-06
2.04508e-06
2.04506e-06
2.04505e-06
2.04504e-06
2.04504e-06
2.04505e-06
2.04507e-06
2.04509e-06
2.04511e-06
2.04513e-06
2.04515e-06
2.04517e-06
2.04518e-06
2.04519e-06
2.0452e-06
2.0452e-06
2.0452e-06
2.04519e-06
2.04519e-06
2.04517e-06
2.04516e-06
2.04515e-06
2.04513e-06
2.0451e-06
2.04508e-06
2.04505e-06
2.04501e-06
2.04497e-06
2.04491e-06
2.04484e-06
2.04476e-06
2.04467e-06
2.04458e-06
2.04447e-06
2.04438e-06
2.04429e-06
2.04421e-06
2.04413e-06
2.04407e-06
2.04401e-06
2.04396e-06
2.04392e-06
2.0439e-06
2.04388e-06
2.04388e-06
2.04389e-06
2.04391e-06
2.04394e-06
2.04398e-06
2.04403e-06
2.04408e-06
2.04414e-06
2.0442e-06
2.04426e-06
2.04431e-06
2.04437e-06
2.04443e-06
2.04448e-06
2.04453e-06
2.04458e-06
2.04462e-06
2.04467e-06
2.04471e-06
2.04475e-06
2.0448e-06
2.04484e-06
2.04488e-06
2.04493e-06
2.04497e-06
2.04501e-06
2.04505e-06
2.04509e-06
2.04513e-06
2.04518e-06
2.04523e-06
2.04527e-06
2.0453e-06
2.04534e-06
2.04537e-06
2.04539e-06
2.04542e-06
2.04544e-06
2.04546e-06
2.04548e-06
2.04549e-06
2.0455e-06
2.0455e-06
2.0455e-06
2.04548e-06
2.04546e-06
2.04544e-06
2.04541e-06
2.04538e-06
2.04535e-06
2.04531e-06
2.04528e-06
2.04526e-06
2.04524e-06
2.04522e-06
2.04522e-06
2.04523e-06
2.0452e-06
2.04532e-06
2.04489e-06
7.52017e-06
7.52166e-06
7.52298e-06
7.52354e-06
7.52363e-06
7.52345e-06
7.52313e-06
7.52276e-06
7.52238e-06
7.52203e-06
7.5217e-06
7.5214e-06
7.52114e-06
7.52091e-06
7.52072e-06
7.52056e-06
7.52044e-06
7.52035e-06
7.5203e-06
7.52027e-06
7.52028e-06
7.52032e-06
7.52037e-06
7.52044e-06
7.52052e-06
7.5206e-06
7.52067e-06
7.52074e-06
7.52079e-06
7.52083e-06
7.52085e-06
7.52086e-06
7.52086e-06
7.52084e-06
7.52081e-06
7.52077e-06
7.52073e-06
7.52067e-06
7.5206e-06
7.52052e-06
7.52043e-06
7.52032e-06
7.52018e-06
7.52003e-06
7.51982e-06
7.51957e-06
7.51928e-06
7.51896e-06
7.51861e-06
7.51824e-06
7.51789e-06
7.51757e-06
7.51727e-06
7.517e-06
7.51676e-06
7.51655e-06
7.51638e-06
7.51624e-06
7.51615e-06
7.5161e-06
7.51609e-06
7.51612e-06
7.5162e-06
7.51631e-06
7.51646e-06
7.51663e-06
7.51682e-06
7.51703e-06
7.51724e-06
7.51746e-06
7.51767e-06
7.51787e-06
7.51807e-06
7.51826e-06
7.51844e-06
7.51862e-06
7.51879e-06
7.51895e-06
7.51911e-06
7.51927e-06
7.51943e-06
7.51959e-06
7.51974e-06
7.5199e-06
7.52005e-06
7.52019e-06
7.52033e-06
7.52049e-06
7.52065e-06
7.52082e-06
7.52098e-06
7.52113e-06
7.52126e-06
7.52138e-06
7.52149e-06
7.52159e-06
7.52167e-06
7.52175e-06
7.52182e-06
7.52188e-06
7.52193e-06
7.52196e-06
7.52198e-06
7.52195e-06
7.52188e-06
7.52182e-06
7.52174e-06
7.52164e-06
7.52152e-06
7.5214e-06
7.52128e-06
7.52117e-06
7.52107e-06
7.52101e-06
7.52095e-06
7.52094e-06
7.52094e-06
7.52086e-06
7.52125e-06
7.51978e-06
1.89087e-05
1.89119e-05
1.89149e-05
1.89162e-05
1.89164e-05
1.8916e-05
1.89152e-05
1.89143e-05
1.89134e-05
1.89126e-05
1.89118e-05
1.89111e-05
1.89105e-05
1.89099e-05
1.89094e-05
1.89091e-05
1.89088e-05
1.89086e-05
1.89084e-05
1.89084e-05
1.89084e-05
1.89085e-05
1.89086e-05
1.89088e-05
1.89089e-05
1.89091e-05
1.89093e-05
1.89095e-05
1.89096e-05
1.89097e-05
1.89098e-05
1.89098e-05
1.89098e-05
1.89097e-05
1.89097e-05
1.89096e-05
1.89095e-05
1.89094e-05
1.89092e-05
1.8909e-05
1.89088e-05
1.89085e-05
1.89082e-05
1.89078e-05
1.89073e-05
1.89067e-05
1.8906e-05
1.89052e-05
1.89044e-05
1.89035e-05
1.89027e-05
1.89019e-05
1.89012e-05
1.89005e-05
1.88999e-05
1.88994e-05
1.8899e-05
1.88987e-05
1.88985e-05
1.88983e-05
1.88983e-05
1.88984e-05
1.88986e-05
1.88989e-05
1.88992e-05
1.88997e-05
1.89001e-05
1.89006e-05
1.89012e-05
1.89017e-05
1.89022e-05
1.89027e-05
1.89032e-05
1.89037e-05
1.89041e-05
1.89046e-05
1.8905e-05
1.89054e-05
1.89058e-05
1.89062e-05
1.89066e-05
1.89069e-05
1.89073e-05
1.89077e-05
1.89081e-05
1.89084e-05
1.89088e-05
1.89091e-05
1.89095e-05
1.89099e-05
1.89103e-05
1.89107e-05
1.8911e-05
1.89113e-05
1.89116e-05
1.89118e-05
1.8912e-05
1.89122e-05
1.89124e-05
1.89125e-05
1.89126e-05
1.89127e-05
1.89127e-05
1.89126e-05
1.89125e-05
1.89123e-05
1.89121e-05
1.89118e-05
1.89115e-05
1.89112e-05
1.89109e-05
1.89107e-05
1.89104e-05
1.89102e-05
1.89101e-05
1.891e-05
1.891e-05
1.89098e-05
1.89107e-05
1.89074e-05
3.646e-05
3.64648e-05
3.64696e-05
3.64719e-05
3.64723e-05
3.64716e-05
3.64703e-05
3.64687e-05
3.64671e-05
3.64656e-05
3.64642e-05
3.64629e-05
3.64618e-05
3.64608e-05
3.646e-05
3.64593e-05
3.64588e-05
3.64584e-05
3.64582e-05
3.64581e-05
3.64581e-05
3.64582e-05
3.64584e-05
3.64587e-05
3.6459e-05
3.64593e-05
3.64597e-05
3.64599e-05
3.64602e-05
3.64604e-05
3.64605e-05
3.64605e-05
3.64606e-05
3.64605e-05
3.64604e-05
3.64603e-05
3.64601e-05
3.64599e-05
3.64596e-05
3.64593e-05
3.64589e-05
3.64584e-05
3.64578e-05
3.64571e-05
3.64562e-05
3.64551e-05
3.64539e-05
3.64525e-05
3.64511e-05
3.64495e-05
3.6448e-05
3.64466e-05
3.64454e-05
3.64442e-05
3.64432e-05
3.64423e-05
3.64415e-05
3.6441e-05
3.64406e-05
3.64404e-05
3.64403e-05
3.64405e-05
3.64409e-05
3.64414e-05
3.64421e-05
3.64428e-05
3.64437e-05
3.64446e-05
3.64456e-05
3.64466e-05
3.64475e-05
3.64485e-05
3.64494e-05
3.64503e-05
3.64511e-05
3.64519e-05
3.64527e-05
3.64534e-05
3.64542e-05
3.64549e-05
3.64556e-05
3.64563e-05
3.6457e-05
3.64577e-05
3.64584e-05
3.64591e-05
3.64597e-05
3.64604e-05
3.64611e-05
3.64618e-05
3.64625e-05
3.64632e-05
3.64637e-05
3.64643e-05
3.64647e-05
3.64651e-05
3.64655e-05
3.64658e-05
3.64661e-05
3.64663e-05
3.64665e-05
3.64666e-05
3.64666e-05
3.64664e-05
3.64661e-05
3.64658e-05
3.64654e-05
3.64649e-05
3.64644e-05
3.64638e-05
3.64632e-05
3.64627e-05
3.64622e-05
3.64618e-05
3.64615e-05
3.64613e-05
3.64612e-05
3.64608e-05
3.64621e-05
3.6457e-05
5.74464e-05
5.7452e-05
5.74578e-05
5.7461e-05
5.74617e-05
5.74607e-05
5.74589e-05
5.74568e-05
5.74545e-05
5.74524e-05
5.74504e-05
5.74486e-05
5.7447e-05
5.74456e-05
5.74445e-05
5.74435e-05
5.74428e-05
5.74422e-05
5.74419e-05
5.74417e-05
5.74417e-05
5.74418e-05
5.74421e-05
5.74425e-05
5.74429e-05
5.74433e-05
5.74438e-05
5.74442e-05
5.74445e-05
5.74448e-05
5.7445e-05
5.74451e-05
5.74451e-05
5.74451e-05
5.7445e-05
5.74449e-05
5.74446e-05
5.74443e-05
5.7444e-05
5.74435e-05
5.74429e-05
5.74423e-05
5.74414e-05
5.74404e-05
5.74391e-05
5.74376e-05
5.74359e-05
5.74339e-05
5.74319e-05
5.74297e-05
5.74276e-05
5.74257e-05
5.74239e-05
5.74222e-05
5.74208e-05
5.74195e-05
5.74185e-05
5.74177e-05
5.74172e-05
5.74169e-05
5.74169e-05
5.74172e-05
5.74178e-05
5.74186e-05
5.74196e-05
5.74208e-05
5.7422e-05
5.74234e-05
5.74249e-05
5.74263e-05
5.74277e-05
5.74291e-05
5.74305e-05
5.74318e-05
5.74331e-05
5.74343e-05
5.74355e-05
5.74366e-05
5.74377e-05
5.74388e-05
5.74399e-05
5.7441e-05
5.7442e-05
5.74431e-05
5.74441e-05
5.74451e-05
5.7446e-05
5.7447e-05
5.7448e-05
5.7449e-05
5.745e-05
5.7451e-05
5.74518e-05
5.74525e-05
5.74532e-05
5.74538e-05
5.74543e-05
5.74548e-05
5.74551e-05
5.74554e-05
5.74556e-05
5.74556e-05
5.74556e-05
5.74553e-05
5.74548e-05
5.74543e-05
5.74536e-05
5.74529e-05
5.7452e-05
5.74512e-05
5.74503e-05
5.74495e-05
5.74487e-05
5.7448e-05
5.74474e-05
5.74471e-05
5.74467e-05
5.74462e-05
5.74476e-05
5.74416e-05
7.81001e-05
7.81053e-05
7.81112e-05
7.81149e-05
7.81159e-05
7.8115e-05
7.8113e-05
7.81104e-05
7.81078e-05
7.81052e-05
7.81028e-05
7.81006e-05
7.80987e-05
7.8097e-05
7.80956e-05
7.80944e-05
7.80935e-05
7.80928e-05
7.80924e-05
7.80921e-05
7.80921e-05
7.80922e-05
7.80925e-05
7.80929e-05
7.80933e-05
7.80938e-05
7.80943e-05
7.80948e-05
7.80952e-05
7.80956e-05
7.80958e-05
7.8096e-05
7.80961e-05
7.80961e-05
7.8096e-05
7.80959e-05
7.80957e-05
7.80954e-05
7.8095e-05
7.80944e-05
7.80937e-05
7.80929e-05
7.80918e-05
7.80906e-05
7.80891e-05
7.80872e-05
7.80852e-05
7.80828e-05
7.80804e-05
7.80778e-05
7.80752e-05
7.80729e-05
7.80707e-05
7.80688e-05
7.8067e-05
7.80655e-05
7.80643e-05
7.80633e-05
7.80628e-05
7.80625e-05
7.80626e-05
7.80631e-05
7.80638e-05
7.80649e-05
7.80662e-05
7.80677e-05
7.80694e-05
7.80711e-05
7.8073e-05
7.80749e-05
7.80767e-05
7.80785e-05
7.80803e-05
7.8082e-05
7.80837e-05
7.80852e-05
7.80868e-05
7.80883e-05
7.80898e-05
7.80912e-05
7.80926e-05
7.8094e-05
7.80954e-05
7.80968e-05
7.80981e-05
7.80994e-05
7.81006e-05
7.81018e-05
7.81031e-05
7.81044e-05
7.81056e-05
7.81068e-05
7.81078e-05
7.81087e-05
7.81095e-05
7.81103e-05
7.81109e-05
7.81114e-05
7.81118e-05
7.81121e-05
7.81122e-05
7.81122e-05
7.8112e-05
7.81116e-05
7.8111e-05
7.81102e-05
7.81093e-05
7.81083e-05
7.81072e-05
7.8106e-05
7.81048e-05
7.81037e-05
7.81026e-05
7.81016e-05
7.81007e-05
7.81001e-05
7.80995e-05
7.80987e-05
7.81e-05
7.80941e-05
9.59541e-05
9.59581e-05
9.59633e-05
9.5967e-05
9.59683e-05
9.59676e-05
9.59657e-05
9.59631e-05
9.59603e-05
9.59575e-05
9.59548e-05
9.59524e-05
9.59503e-05
9.59485e-05
9.59469e-05
9.59456e-05
9.59445e-05
9.59438e-05
9.59432e-05
9.59429e-05
9.59428e-05
9.59428e-05
9.59431e-05
9.59434e-05
9.59439e-05
9.59443e-05
9.59448e-05
9.59453e-05
9.59458e-05
9.59461e-05
9.59464e-05
9.59466e-05
9.59468e-05
9.59468e-05
9.59468e-05
9.59468e-05
9.59466e-05
9.59463e-05
9.59459e-05
9.59453e-05
9.59446e-05
9.59437e-05
9.59425e-05
9.59412e-05
9.59395e-05
9.59375e-05
9.59352e-05
9.59327e-05
9.593e-05
9.59272e-05
9.59244e-05
9.59218e-05
9.59194e-05
9.59173e-05
9.59153e-05
9.59137e-05
9.59124e-05
9.59114e-05
9.59108e-05
9.59106e-05
9.59109e-05
9.59115e-05
9.59125e-05
9.59138e-05
9.59154e-05
9.59172e-05
9.59192e-05
9.59213e-05
9.59235e-05
9.59257e-05
9.59279e-05
9.593e-05
9.59322e-05
9.59342e-05
9.59362e-05
9.59382e-05
9.594e-05
9.59419e-05
9.59437e-05
9.59454e-05
9.59471e-05
9.59488e-05
9.59505e-05
9.59521e-05
9.59537e-05
9.59552e-05
9.59567e-05
9.59582e-05
9.59596e-05
9.59611e-05
9.59625e-05
9.59638e-05
9.5965e-05
9.59661e-05
9.5967e-05
9.59678e-05
9.59685e-05
9.59691e-05
9.59695e-05
9.59697e-05
9.59698e-05
9.59696e-05
9.59693e-05
9.59687e-05
9.59679e-05
9.59668e-05
9.59657e-05
9.59644e-05
9.59631e-05
9.59616e-05
9.59601e-05
9.59587e-05
9.59573e-05
9.59561e-05
9.59549e-05
9.5954e-05
9.5953e-05
9.5952e-05
9.59528e-05
9.59478e-05
0.000110177
0.000110179
0.000110183
0.000110187
0.000110188
0.000110188
0.000110186
0.000110184
0.000110181
0.000110178
0.000110176
0.000110173
0.000110171
0.000110169
0.000110167
0.000110166
0.000110165
0.000110164
0.000110163
0.000110163
0.000110163
0.000110163
0.000110163
0.000110163
0.000110163
0.000110164
0.000110164
0.000110165
0.000110165
0.000110165
0.000110166
0.000110166
0.000110166
0.000110166
0.000110166
0.000110166
0.000110166
0.000110166
0.000110166
0.000110165
0.000110164
0.000110163
0.000110162
0.000110161
0.000110159
0.000110157
0.000110155
0.000110152
0.000110149
0.000110146
0.000110144
0.000110141
0.000110138
0.000110136
0.000110134
0.000110132
0.000110131
0.00011013
0.00011013
0.00011013
0.00011013
0.000110131
0.000110132
0.000110134
0.000110135
0.000110138
0.00011014
0.000110142
0.000110145
0.000110147
0.00011015
0.000110152
0.000110155
0.000110157
0.000110159
0.000110162
0.000110164
0.000110166
0.000110168
0.00011017
0.000110172
0.000110174
0.000110176
0.000110178
0.00011018
0.000110181
0.000110183
0.000110185
0.000110186
0.000110188
0.000110189
0.000110191
0.000110192
0.000110193
0.000110195
0.000110195
0.000110196
0.000110197
0.000110197
0.000110197
0.000110197
0.000110197
0.000110196
0.000110196
0.000110195
0.000110193
0.000110192
0.00011019
0.000110189
0.000110187
0.000110185
0.000110184
0.000110182
0.00011018
0.000110179
0.000110178
0.000110176
0.000110175
0.000110175
0.000110172
0.000120878
0.000120879
0.000120882
0.000120885
0.000120886
0.000120886
0.000120885
0.000120883
0.00012088
0.000120878
0.000120875
0.000120873
0.00012087
0.000120868
0.000120867
0.000120865
0.000120864
0.000120863
0.000120862
0.000120862
0.000120861
0.000120861
0.000120861
0.000120861
0.000120862
0.000120862
0.000120862
0.000120863
0.000120863
0.000120863
0.000120864
0.000120864
0.000120864
0.000120864
0.000120864
0.000120864
0.000120864
0.000120864
0.000120864
0.000120863
0.000120863
0.000120862
0.000120861
0.000120859
0.000120857
0.000120855
0.000120853
0.00012085
0.000120848
0.000120845
0.000120842
0.000120839
0.000120837
0.000120834
0.000120833
0.000120831
0.00012083
0.000120829
0.000120828
0.000120829
0.000120829
0.00012083
0.000120832
0.000120833
0.000120836
0.000120838
0.00012084
0.000120843
0.000120846
0.000120849
0.000120851
0.000120854
0.000120857
0.000120859
0.000120862
0.000120865
0.000120867
0.00012087
0.000120872
0.000120874
0.000120877
0.000120879
0.000120881
0.000120883
0.000120885
0.000120887
0.000120889
0.000120891
0.000120893
0.000120894
0.000120896
0.000120898
0.000120899
0.000120901
0.000120902
0.000120903
0.000120903
0.000120904
0.000120904
0.000120904
0.000120904
0.000120904
0.000120903
0.000120902
0.000120901
0.000120899
0.000120898
0.000120896
0.000120894
0.000120892
0.00012089
0.000120888
0.000120886
0.000120884
0.000120883
0.000120881
0.00012088
0.000120878
0.000120878
0.000120875
0.000128515
0.000128514
0.000128516
0.000128518
0.00012852
0.00012852
0.000128519
0.000128517
0.000128515
0.000128513
0.00012851
0.000128508
0.000128506
0.000128504
0.000128502
0.0001285
0.000128499
0.000128498
0.000128497
0.000128497
0.000128496
0.000128496
0.000128496
0.000128496
0.000128496
0.000128496
0.000128496
0.000128496
0.000128496
0.000128497
0.000128497
0.000128497
0.000128497
0.000128497
0.000128498
0.000128498
0.000128498
0.000128498
0.000128497
0.000128497
0.000128496
0.000128495
0.000128494
0.000128493
0.000128491
0.000128489
0.000128487
0.000128485
0.000128482
0.000128479
0.000128476
0.000128474
0.000128471
0.000128469
0.000128467
0.000128466
0.000128465
0.000128464
0.000128464
0.000128464
0.000128465
0.000128466
0.000128468
0.00012847
0.000128472
0.000128475
0.000128478
0.000128481
0.000128484
0.000128487
0.00012849
0.000128493
0.000128496
0.000128499
0.000128501
0.000128504
0.000128507
0.00012851
0.000128512
0.000128515
0.000128518
0.00012852
0.000128523
0.000128525
0.000128527
0.00012853
0.000128532
0.000128534
0.000128536
0.000128538
0.000128539
0.000128541
0.000128543
0.000128544
0.000128545
0.000128546
0.000128547
0.000128548
0.000128548
0.000128548
0.000128548
0.000128547
0.000128546
0.000128545
0.000128544
0.000128542
0.00012854
0.000128538
0.000128536
0.000128534
0.000128532
0.00012853
0.000128527
0.000128525
0.000128523
0.000128521
0.000128519
0.000128518
0.000128517
0.000128515
0.0001336
0.000133598
0.000133598
0.0001336
0.000133601
0.000133601
0.000133601
0.000133599
0.000133598
0.000133595
0.000133593
0.000133591
0.000133589
0.000133587
0.000133585
0.000133584
0.000133582
0.000133581
0.00013358
0.000133579
0.000133579
0.000133578
0.000133578
0.000133578
0.000133578
0.000133578
0.000133578
0.000133578
0.000133578
0.000133578
0.000133578
0.000133578
0.000133578
0.000133578
0.000133579
0.000133579
0.000133579
0.000133579
0.000133578
0.000133578
0.000133578
0.000133577
0.000133576
0.000133574
0.000133573
0.000133571
0.000133569
0.000133567
0.000133564
0.000133561
0.000133559
0.000133556
0.000133554
0.000133552
0.00013355
0.000133549
0.000133548
0.000133547
0.000133547
0.000133548
0.000133549
0.000133551
0.000133553
0.000133555
0.000133558
0.00013356
0.000133563
0.000133567
0.00013357
0.000133573
0.000133576
0.00013358
0.000133583
0.000133586
0.000133589
0.000133592
0.000133595
0.000133598
0.000133601
0.000133604
0.000133607
0.00013361
0.000133613
0.000133615
0.000133618
0.00013362
0.000133623
0.000133625
0.000133627
0.000133629
0.000133631
0.000133633
0.000133635
0.000133636
0.000133638
0.000133639
0.00013364
0.00013364
0.00013364
0.00013364
0.00013364
0.000133639
0.000133638
0.000133636
0.000133635
0.000133633
0.000133631
0.000133629
0.000133627
0.000133624
0.000133622
0.00013362
0.000133617
0.000133615
0.000133612
0.00013361
0.000133608
0.000133606
0.000133604
0.000133604
0.000136593
0.00013659
0.000136589
0.00013659
0.000136591
0.000136591
0.000136591
0.00013659
0.000136588
0.000136586
0.000136584
0.000136582
0.00013658
0.000136579
0.000136577
0.000136575
0.000136574
0.000136573
0.000136572
0.000136571
0.00013657
0.00013657
0.000136569
0.000136569
0.000136568
0.000136568
0.000136568
0.000136568
0.000136568
0.000136568
0.000136567
0.000136567
0.000136568
0.000136568
0.000136568
0.000136568
0.000136568
0.000136568
0.000136568
0.000136567
0.000136567
0.000136566
0.000136565
0.000136564
0.000136562
0.000136561
0.000136559
0.000136557
0.000136554
0.000136552
0.000136549
0.000136547
0.000136545
0.000136543
0.000136541
0.00013654
0.000136539
0.000136539
0.00013654
0.000136541
0.000136542
0.000136544
0.000136546
0.000136549
0.000136552
0.000136555
0.000136558
0.000136561
0.000136565
0.000136568
0.000136572
0.000136575
0.000136579
0.000136582
0.000136586
0.000136589
0.000136592
0.000136596
0.000136599
0.000136602
0.000136605
0.000136608
0.000136611
0.000136614
0.000136617
0.00013662
0.000136622
0.000136625
0.000136627
0.00013663
0.000136632
0.000136634
0.000136636
0.000136637
0.000136639
0.00013664
0.000136641
0.000136641
0.000136641
0.000136641
0.00013664
0.000136639
0.000136638
0.000136637
0.000136635
0.000136633
0.000136631
0.000136629
0.000136626
0.000136624
0.000136621
0.000136619
0.000136616
0.000136614
0.000136611
0.000136608
0.000136606
0.000136604
0.000136602
0.000136602
0.000137879
0.000137874
0.000137873
0.000137873
0.000137873
0.000137873
0.000137873
0.000137872
0.000137871
0.00013787
0.000137868
0.000137866
0.000137864
0.000137862
0.000137861
0.000137859
0.000137858
0.000137857
0.000137856
0.000137855
0.000137854
0.000137853
0.000137852
0.000137852
0.000137851
0.000137851
0.00013785
0.00013785
0.00013785
0.000137849
0.000137849
0.000137849
0.000137849
0.000137849
0.000137849
0.000137849
0.000137849
0.000137849
0.000137849
0.000137848
0.000137848
0.000137847
0.000137846
0.000137845
0.000137844
0.000137842
0.00013784
0.000137838
0.000137836
0.000137834
0.000137832
0.00013783
0.000137828
0.000137826
0.000137825
0.000137824
0.000137823
0.000137824
0.000137824
0.000137826
0.000137827
0.00013783
0.000137832
0.000137835
0.000137838
0.000137842
0.000137845
0.000137849
0.000137852
0.000137856
0.000137859
0.000137863
0.000137867
0.00013787
0.000137874
0.000137878
0.000137881
0.000137885
0.000137888
0.000137892
0.000137895
0.000137899
0.000137902
0.000137905
0.000137908
0.000137911
0.000137914
0.000137917
0.00013792
0.000137922
0.000137925
0.000137927
0.000137929
0.000137931
0.000137932
0.000137933
0.000137934
0.000137934
0.000137934
0.000137934
0.000137933
0.000137932
0.000137931
0.000137929
0.000137928
0.000137926
0.000137923
0.000137921
0.000137918
0.000137916
0.000137913
0.00013791
0.000137908
0.000137905
0.000137902
0.0001379
0.000137897
0.000137894
0.000137892
0.000137893
0.000137769
0.000137763
0.000137761
0.00013776
0.00013776
0.00013776
0.00013776
0.000137759
0.000137758
0.000137757
0.000137755
0.000137754
0.000137752
0.000137751
0.000137749
0.000137748
0.000137746
0.000137745
0.000137744
0.000137743
0.000137742
0.000137741
0.00013774
0.000137739
0.000137738
0.000137737
0.000137737
0.000137736
0.000137736
0.000137735
0.000137735
0.000137734
0.000137734
0.000137734
0.000137734
0.000137734
0.000137734
0.000137734
0.000137733
0.000137733
0.000137733
0.000137732
0.000137731
0.00013773
0.000137729
0.000137727
0.000137726
0.000137724
0.000137722
0.00013772
0.000137718
0.000137716
0.000137714
0.000137713
0.000137712
0.000137711
0.000137711
0.000137712
0.000137713
0.000137715
0.000137717
0.00013772
0.000137722
0.000137726
0.000137729
0.000137732
0.000137736
0.00013774
0.000137744
0.000137747
0.000137751
0.000137755
0.000137759
0.000137763
0.000137767
0.00013777
0.000137774
0.000137778
0.000137782
0.000137786
0.000137789
0.000137793
0.000137797
0.0001378
0.000137804
0.000137807
0.00013781
0.000137813
0.000137816
0.000137819
0.000137821
0.000137824
0.000137826
0.000137828
0.000137829
0.00013783
0.000137831
0.000137832
0.000137831
0.000137831
0.00013783
0.000137829
0.000137828
0.000137826
0.000137824
0.000137822
0.00013782
0.000137817
0.000137815
0.000137812
0.000137809
0.000137807
0.000137804
0.000137801
0.000137798
0.000137795
0.000137792
0.00013779
0.000137786
0.000137788
0.000136517
0.000136509
0.000136506
0.000136505
0.000136505
0.000136504
0.000136504
0.000136503
0.000136502
0.000136501
0.0001365
0.000136499
0.000136497
0.000136496
0.000136494
0.000136493
0.000136491
0.00013649
0.000136489
0.000136488
0.000136487
0.000136485
0.000136484
0.000136483
0.000136482
0.000136481
0.00013648
0.00013648
0.000136479
0.000136478
0.000136478
0.000136477
0.000136477
0.000136476
0.000136476
0.000136476
0.000136476
0.000136475
0.000136475
0.000136475
0.000136474
0.000136474
0.000136473
0.000136472
0.000136471
0.000136469
0.000136468
0.000136466
0.000136464
0.000136463
0.000136461
0.000136459
0.000136458
0.000136457
0.000136456
0.000136456
0.000136456
0.000136457
0.000136459
0.000136461
0.000136464
0.000136467
0.00013647
0.000136473
0.000136477
0.00013648
0.000136484
0.000136488
0.000136492
0.000136496
0.0001365
0.000136504
0.000136508
0.000136512
0.000136516
0.00013652
0.000136524
0.000136528
0.000136532
0.000136536
0.00013654
0.000136544
0.000136548
0.000136552
0.000136555
0.000136559
0.000136562
0.000136565
0.000136569
0.000136572
0.000136574
0.000136577
0.000136579
0.000136581
0.000136583
0.000136584
0.000136585
0.000136585
0.000136585
0.000136584
0.000136584
0.000136582
0.000136581
0.000136579
0.000136577
0.000136575
0.000136573
0.00013657
0.000136568
0.000136565
0.000136563
0.00013656
0.000136557
0.000136554
0.000136551
0.000136548
0.000136545
0.000136542
0.000136539
0.000136542
0.000134328
0.000134319
0.000134316
0.000134315
0.000134314
0.000134313
0.000134313
0.000134312
0.000134311
0.00013431
0.000134309
0.000134308
0.000134306
0.000134305
0.000134304
0.000134302
0.000134301
0.000134299
0.000134298
0.000134297
0.000134296
0.000134294
0.000134293
0.000134292
0.000134291
0.000134289
0.000134288
0.000134287
0.000134286
0.000134285
0.000134284
0.000134284
0.000134283
0.000134283
0.000134282
0.000134282
0.000134282
0.000134281
0.000134281
0.00013428
0.00013428
0.000134279
0.000134278
0.000134277
0.000134276
0.000134275
0.000134273
0.000134272
0.000134271
0.000134269
0.000134267
0.000134266
0.000134265
0.000134264
0.000134264
0.000134264
0.000134265
0.000134267
0.000134269
0.000134271
0.000134274
0.000134277
0.000134281
0.000134284
0.000134288
0.000134292
0.000134296
0.0001343
0.000134304
0.000134308
0.000134312
0.000134316
0.00013432
0.000134324
0.000134328
0.000134333
0.000134337
0.000134341
0.000134345
0.000134349
0.000134354
0.000134358
0.000134362
0.000134366
0.00013437
0.000134374
0.000134378
0.000134381
0.000134384
0.000134388
0.000134391
0.000134393
0.000134396
0.000134398
0.0001344
0.000134401
0.000134401
0.000134402
0.000134402
0.000134401
0.0001344
0.000134399
0.000134397
0.000134396
0.000134394
0.000134392
0.00013439
0.000134387
0.000134385
0.000134382
0.000134379
0.000134377
0.000134374
0.000134371
0.000134368
0.000134365
0.000134362
0.000134359
0.000134355
0.000134359
0.000131376
0.000131365
0.000131362
0.00013136
0.000131359
0.000131358
0.000131357
0.000131357
0.000131356
0.000131355
0.000131354
0.000131353
0.000131351
0.00013135
0.000131349
0.000131347
0.000131346
0.000131345
0.000131343
0.000131342
0.000131341
0.000131339
0.000131338
0.000131336
0.000131335
0.000131334
0.000131332
0.000131331
0.00013133
0.000131329
0.000131327
0.000131327
0.000131326
0.000131325
0.000131324
0.000131324
0.000131323
0.000131323
0.000131322
0.000131322
0.000131321
0.00013132
0.000131319
0.000131318
0.000131317
0.000131316
0.000131315
0.000131313
0.000131312
0.000131311
0.00013131
0.000131308
0.000131308
0.000131307
0.000131308
0.000131309
0.00013131
0.000131312
0.000131315
0.000131318
0.000131321
0.000131324
0.000131328
0.000131331
0.000131335
0.000131339
0.000131343
0.000131347
0.000131351
0.000131355
0.000131359
0.000131363
0.000131368
0.000131372
0.000131376
0.00013138
0.000131385
0.000131389
0.000131393
0.000131398
0.000131402
0.000131407
0.000131411
0.000131415
0.00013142
0.000131424
0.000131428
0.000131431
0.000131435
0.000131438
0.000131442
0.000131444
0.000131447
0.000131449
0.000131451
0.000131452
0.000131453
0.000131453
0.000131453
0.000131452
0.000131451
0.00013145
0.000131449
0.000131447
0.000131445
0.000131443
0.000131441
0.000131439
0.000131437
0.000131434
0.000131432
0.000131429
0.000131426
0.000131424
0.000131421
0.000131418
0.000131415
0.000131412
0.000131407
0.000131412
0.000127805
0.000127793
0.000127789
0.000127787
0.000127786
0.000127785
0.000127784
0.000127783
0.000127782
0.000127781
0.00012778
0.000127779
0.000127778
0.000127777
0.000127776
0.000127774
0.000127773
0.000127772
0.00012777
0.000127769
0.000127767
0.000127766
0.000127764
0.000127763
0.000127761
0.000127759
0.000127758
0.000127756
0.000127755
0.000127754
0.000127752
0.000127751
0.00012775
0.000127749
0.000127748
0.000127748
0.000127747
0.000127746
0.000127746
0.000127745
0.000127744
0.000127743
0.000127742
0.000127741
0.00012774
0.000127739
0.000127738
0.000127736
0.000127735
0.000127734
0.000127733
0.000127732
0.000127732
0.000127732
0.000127733
0.000127734
0.000127736
0.000127739
0.000127742
0.000127745
0.000127748
0.000127752
0.000127756
0.000127759
0.000127763
0.000127767
0.000127771
0.000127775
0.000127779
0.000127783
0.000127787
0.000127791
0.000127796
0.0001278
0.000127804
0.000127809
0.000127813
0.000127817
0.000127822
0.000127827
0.000127831
0.000127836
0.00012784
0.000127845
0.000127849
0.000127854
0.000127858
0.000127862
0.000127866
0.000127869
0.000127872
0.000127876
0.000127878
0.00012788
0.000127882
0.000127883
0.000127884
0.000127884
0.000127884
0.000127883
0.000127883
0.000127882
0.00012788
0.000127879
0.000127877
0.000127876
0.000127874
0.000127872
0.00012787
0.000127867
0.000127865
0.000127863
0.00012786
0.000127857
0.000127855
0.000127852
0.000127849
0.000127846
0.000127841
0.000127847
0.000123741
0.000123728
0.000123724
0.000123722
0.000123721
0.000123719
0.000123718
0.000123717
0.000123716
0.000123716
0.000123715
0.000123713
0.000123712
0.000123711
0.00012371
0.000123709
0.000123707
0.000123706
0.000123705
0.000123703
0.000123701
0.0001237
0.000123698
0.000123696
0.000123695
0.000123693
0.000123691
0.000123689
0.000123688
0.000123686
0.000123685
0.000123683
0.000123682
0.000123681
0.00012368
0.000123679
0.000123678
0.000123677
0.000123676
0.000123675
0.000123674
0.000123673
0.000123672
0.000123671
0.00012367
0.000123669
0.000123668
0.000123666
0.000123665
0.000123664
0.000123664
0.000123663
0.000123663
0.000123664
0.000123665
0.000123667
0.00012367
0.000123673
0.000123676
0.000123679
0.000123683
0.000123686
0.00012369
0.000123694