/*--------------------------------*- C++ -*----------------------------------*\
  =========                 |
  \\      /  F ield         | OpenFOAM: The Open Source CFD Toolbox
   \\    /   O peration     | Website:  https://openfoam.org
    \\  /    A nd           | Version:  7
     \\/     M anipulation  |
\*---------------------------------------------------------------------------*/
FoamFile
{
    version     2.0;
    format      ascii;
    class       volScalarField;
    location    "500";
    object      nut;
}
// * * * * * * * * * * * * * * * * * * * * * * * * * * * * * * * * * * * * * //

dimensions      [0 2 -1 0 0 0 0];

internalField   nonuniform List<scalar> 
24000
(
9.36686e-12
9.36899e-12
9.37076e-12
9.3715e-12
9.37162e-12
9.37139e-12
9.37098e-12
9.37051e-12
9.37003e-12
9.36957e-12
9.36915e-12
9.36878e-12
9.36844e-12
9.36815e-12
9.36791e-12
9.36771e-12
9.36755e-12
9.36744e-12
9.36737e-12
9.36735e-12
9.36736e-12
9.36741e-12
9.36748e-12
9.36757e-12
9.36766e-12
9.36776e-12
9.36786e-12
9.36794e-12
9.368e-12
9.36805e-12
9.36807e-12
9.36808e-12
9.36807e-12
9.36804e-12
9.368e-12
9.36795e-12
9.36789e-12
9.36782e-12
9.36773e-12
9.36762e-12
9.3675e-12
9.36736e-12
9.36718e-12
9.36699e-12
9.36672e-12
9.3664e-12
9.36603e-12
9.36562e-12
9.36517e-12
9.36469e-12
9.36425e-12
9.36385e-12
9.36347e-12
9.36313e-12
9.36283e-12
9.36257e-12
9.36236e-12
9.36219e-12
9.36207e-12
9.36201e-12
9.36201e-12
9.36205e-12
9.36215e-12
9.3623e-12
9.36248e-12
9.3627e-12
9.36295e-12
9.36321e-12
9.36348e-12
9.36375e-12
9.36402e-12
9.36428e-12
9.36453e-12
9.36477e-12
9.365e-12
9.36522e-12
9.36543e-12
9.36564e-12
9.36584e-12
9.36605e-12
9.36625e-12
9.36645e-12
9.36665e-12
9.36684e-12
9.36703e-12
9.36722e-12
9.3674e-12
9.36759e-12
9.3678e-12
9.36802e-12
9.36823e-12
9.36842e-12
9.36859e-12
9.36874e-12
9.36887e-12
9.36899e-12
9.3691e-12
9.3692e-12
9.36929e-12
9.36937e-12
9.36943e-12
9.36947e-12
9.36949e-12
9.36946e-12
9.36938e-12
9.36929e-12
9.3692e-12
9.36907e-12
9.36892e-12
9.36877e-12
9.36862e-12
9.36848e-12
9.36836e-12
9.36828e-12
9.36821e-12
9.3682e-12
9.36821e-12
9.3681e-12
9.36863e-12
9.36656e-12
1.62767e-09
1.62806e-09
1.62836e-09
1.62849e-09
1.6285e-09
1.62846e-09
1.62839e-09
1.62831e-09
1.62822e-09
1.62815e-09
1.62807e-09
1.62801e-09
1.62795e-09
1.6279e-09
1.62786e-09
1.62782e-09
1.62779e-09
1.62778e-09
1.62776e-09
1.62776e-09
1.62776e-09
1.62777e-09
1.62778e-09
1.6278e-09
1.62781e-09
1.62783e-09
1.62785e-09
1.62786e-09
1.62787e-09
1.62788e-09
1.62789e-09
1.62789e-09
1.62789e-09
1.62788e-09
1.62787e-09
1.62787e-09
1.62785e-09
1.62784e-09
1.62783e-09
1.62781e-09
1.62779e-09
1.62776e-09
1.62773e-09
1.6277e-09
1.62765e-09
1.6276e-09
1.62753e-09
1.62746e-09
1.62738e-09
1.6273e-09
1.62723e-09
1.62716e-09
1.62709e-09
1.62703e-09
1.62698e-09
1.62693e-09
1.6269e-09
1.62687e-09
1.62685e-09
1.62684e-09
1.62683e-09
1.62684e-09
1.62686e-09
1.62688e-09
1.62692e-09
1.62695e-09
1.627e-09
1.62704e-09
1.62709e-09
1.62714e-09
1.62718e-09
1.62723e-09
1.62727e-09
1.62731e-09
1.62735e-09
1.62739e-09
1.62743e-09
1.62746e-09
1.6275e-09
1.62753e-09
1.62757e-09
1.6276e-09
1.62764e-09
1.62767e-09
1.6277e-09
1.62774e-09
1.62777e-09
1.6278e-09
1.62784e-09
1.62787e-09
1.62791e-09
1.62794e-09
1.62797e-09
1.628e-09
1.62802e-09
1.62804e-09
1.62806e-09
1.62808e-09
1.6281e-09
1.62811e-09
1.62812e-09
1.62813e-09
1.62813e-09
1.62813e-09
1.62811e-09
1.6281e-09
1.62808e-09
1.62806e-09
1.62803e-09
1.62801e-09
1.62798e-09
1.62796e-09
1.62794e-09
1.62792e-09
1.62791e-09
1.62791e-09
1.62791e-09
1.62789e-09
1.62799e-09
1.62761e-09
3.46455e-08
3.46533e-08
3.46599e-08
3.46623e-08
3.46626e-08
3.46617e-08
3.46601e-08
3.46583e-08
3.46565e-08
3.46549e-08
3.46533e-08
3.46519e-08
3.46507e-08
3.46497e-08
3.46488e-08
3.4648e-08
3.46475e-08
3.46471e-08
3.46468e-08
3.46467e-08
3.46467e-08
3.46469e-08
3.46472e-08
3.46475e-08
3.46479e-08
3.46482e-08
3.46486e-08
3.46489e-08
3.46491e-08
3.46493e-08
3.46494e-08
3.46494e-08
3.46494e-08
3.46493e-08
3.46491e-08
3.4649e-08
3.46487e-08
3.46485e-08
3.46482e-08
3.46478e-08
3.46474e-08
3.46469e-08
3.46462e-08
3.46455e-08
3.46445e-08
3.46434e-08
3.4642e-08
3.46405e-08
3.46389e-08
3.46372e-08
3.46356e-08
3.46341e-08
3.46327e-08
3.46315e-08
3.46304e-08
3.46294e-08
3.46286e-08
3.4628e-08
3.46275e-08
3.46273e-08
3.46273e-08
3.46274e-08
3.46278e-08
3.46283e-08
3.4629e-08
3.46298e-08
3.46307e-08
3.46317e-08
3.46326e-08
3.46336e-08
3.46346e-08
3.46356e-08
3.46365e-08
3.46374e-08
3.46382e-08
3.4639e-08
3.46398e-08
3.46406e-08
3.46413e-08
3.46421e-08
3.46428e-08
3.46435e-08
3.46443e-08
3.4645e-08
3.46457e-08
3.46463e-08
3.4647e-08
3.46477e-08
3.46485e-08
3.46493e-08
3.46501e-08
3.46508e-08
3.46514e-08
3.46519e-08
3.46524e-08
3.46529e-08
3.46533e-08
3.46536e-08
3.4654e-08
3.46542e-08
3.46545e-08
3.46546e-08
3.46547e-08
3.46546e-08
3.46542e-08
3.46539e-08
3.46536e-08
3.46531e-08
3.46526e-08
3.4652e-08
3.46514e-08
3.46509e-08
3.46505e-08
3.46502e-08
3.46499e-08
3.46499e-08
3.465e-08
3.46495e-08
3.46515e-08
3.46442e-08
2.6117e-07
2.61228e-07
2.61277e-07
2.61295e-07
2.61297e-07
2.61289e-07
2.61277e-07
2.61263e-07
2.6125e-07
2.61237e-07
2.61226e-07
2.61216e-07
2.61207e-07
2.61199e-07
2.61192e-07
2.61187e-07
2.61183e-07
2.6118e-07
2.61178e-07
2.61177e-07
2.61178e-07
2.61179e-07
2.61181e-07
2.61183e-07
2.61186e-07
2.61188e-07
2.61191e-07
2.61193e-07
2.61194e-07
2.61196e-07
2.61196e-07
2.61197e-07
2.61196e-07
2.61196e-07
2.61195e-07
2.61194e-07
2.61192e-07
2.6119e-07
2.61188e-07
2.61185e-07
2.61182e-07
2.61179e-07
2.61174e-07
2.61169e-07
2.61162e-07
2.61153e-07
2.61143e-07
2.61132e-07
2.61121e-07
2.61108e-07
2.61096e-07
2.61085e-07
2.61076e-07
2.61067e-07
2.61059e-07
2.61052e-07
2.61046e-07
2.61041e-07
2.61038e-07
2.61037e-07
2.61037e-07
2.61038e-07
2.61041e-07
2.61045e-07
2.6105e-07
2.61056e-07
2.61062e-07
2.6107e-07
2.61077e-07
2.61084e-07
2.61092e-07
2.61099e-07
2.61105e-07
2.61112e-07
2.61118e-07
2.61124e-07
2.6113e-07
2.61136e-07
2.61141e-07
2.61147e-07
2.61153e-07
2.61158e-07
2.61163e-07
2.61169e-07
2.61174e-07
2.61179e-07
2.61184e-07
2.61189e-07
2.61195e-07
2.61201e-07
2.61207e-07
2.61212e-07
2.61216e-07
2.6122e-07
2.61224e-07
2.61227e-07
2.6123e-07
2.61233e-07
2.61235e-07
2.61237e-07
2.61239e-07
2.6124e-07
2.6124e-07
2.61239e-07
2.61237e-07
2.61234e-07
2.61232e-07
2.61228e-07
2.61224e-07
2.61219e-07
2.61215e-07
2.61211e-07
2.61208e-07
2.61206e-07
2.61204e-07
2.61203e-07
2.61203e-07
2.612e-07
2.61214e-07
2.6116e-07
1.07614e-06
1.07635e-06
1.07656e-06
1.07664e-06
1.07664e-06
1.07661e-06
1.07656e-06
1.0765e-06
1.07645e-06
1.0764e-06
1.07635e-06
1.07631e-06
1.07628e-06
1.07624e-06
1.07622e-06
1.0762e-06
1.07618e-06
1.07617e-06
1.07616e-06
1.07616e-06
1.07616e-06
1.07617e-06
1.07618e-06
1.07618e-06
1.07619e-06
1.0762e-06
1.07621e-06
1.07622e-06
1.07623e-06
1.07623e-06
1.07623e-06
1.07623e-06
1.07623e-06
1.07623e-06
1.07623e-06
1.07622e-06
1.07622e-06
1.07621e-06
1.0762e-06
1.07619e-06
1.07618e-06
1.07617e-06
1.07615e-06
1.07613e-06
1.0761e-06
1.07607e-06
1.07603e-06
1.07599e-06
1.07594e-06
1.07589e-06
1.07585e-06
1.07581e-06
1.07577e-06
1.07574e-06
1.07571e-06
1.07568e-06
1.07566e-06
1.07564e-06
1.07563e-06
1.07563e-06
1.07563e-06
1.07563e-06
1.07565e-06
1.07566e-06
1.07568e-06
1.07571e-06
1.07573e-06
1.07576e-06
1.07579e-06
1.07582e-06
1.07585e-06
1.07588e-06
1.07591e-06
1.07593e-06
1.07596e-06
1.07598e-06
1.07601e-06
1.07603e-06
1.07605e-06
1.07607e-06
1.0761e-06
1.07612e-06
1.07614e-06
1.07616e-06
1.07618e-06
1.07621e-06
1.07623e-06
1.07625e-06
1.07627e-06
1.07629e-06
1.07632e-06
1.07634e-06
1.07636e-06
1.07637e-06
1.07638e-06
1.0764e-06
1.07641e-06
1.07642e-06
1.07643e-06
1.07644e-06
1.07644e-06
1.07644e-06
1.07645e-06
1.07644e-06
1.07643e-06
1.07642e-06
1.07641e-06
1.07639e-06
1.07637e-06
1.07636e-06
1.07634e-06
1.07632e-06
1.07631e-06
1.0763e-06
1.07629e-06
1.07629e-06
1.07629e-06
1.07627e-06
1.07632e-06
1.07612e-06
2.94658e-06
2.94704e-06
2.94757e-06
2.94781e-06
2.94785e-06
2.94778e-06
2.94765e-06
2.9475e-06
2.94736e-06
2.94722e-06
2.9471e-06
2.94699e-06
2.9469e-06
2.94682e-06
2.94675e-06
2.9467e-06
2.94666e-06
2.94663e-06
2.94661e-06
2.9466e-06
2.94661e-06
2.94662e-06
2.94663e-06
2.94666e-06
2.94668e-06
2.9467e-06
2.94672e-06
2.94674e-06
2.94675e-06
2.94676e-06
2.94676e-06
2.94676e-06
2.94675e-06
2.94675e-06
2.94674e-06
2.94673e-06
2.94671e-06
2.9467e-06
2.94668e-06
2.94666e-06
2.94663e-06
2.9466e-06
2.94656e-06
2.94651e-06
2.94644e-06
2.94636e-06
2.94626e-06
2.94616e-06
2.94605e-06
2.94592e-06
2.94581e-06
2.94571e-06
2.94562e-06
2.94554e-06
2.94547e-06
2.94541e-06
2.94536e-06
2.94533e-06
2.9453e-06
2.94529e-06
2.9453e-06
2.94532e-06
2.94535e-06
2.9454e-06
2.94545e-06
2.94552e-06
2.94559e-06
2.94566e-06
2.94574e-06
2.94582e-06
2.94589e-06
2.94597e-06
2.94604e-06
2.94611e-06
2.94618e-06
2.94624e-06
2.9463e-06
2.94637e-06
2.94643e-06
2.94649e-06
2.94655e-06
2.94661e-06
2.94667e-06
2.94673e-06
2.94679e-06
2.94685e-06
2.9469e-06
2.94696e-06
2.94702e-06
2.94709e-06
2.94715e-06
2.9472e-06
2.94725e-06
2.94729e-06
2.94733e-06
2.94736e-06
2.94739e-06
2.94741e-06
2.94744e-06
2.94745e-06
2.94747e-06
2.94747e-06
2.94747e-06
2.94746e-06
2.94743e-06
2.9474e-06
2.94737e-06
2.94732e-06
2.94728e-06
2.94723e-06
2.94718e-06
2.94714e-06
2.9471e-06
2.94707e-06
2.94704e-06
2.94703e-06
2.94702e-06
2.94698e-06
2.94709e-06
2.94661e-06
6.05803e-06
6.05864e-06
6.05955e-06
6.06009e-06
6.06025e-06
6.06016e-06
6.05994e-06
6.05967e-06
6.05939e-06
6.05913e-06
6.05889e-06
6.05867e-06
6.05849e-06
6.05833e-06
6.0582e-06
6.05809e-06
6.05801e-06
6.05796e-06
6.05792e-06
6.05791e-06
6.05791e-06
6.05793e-06
6.05796e-06
6.05799e-06
6.05803e-06
6.05806e-06
6.0581e-06
6.05812e-06
6.05814e-06
6.05815e-06
6.05815e-06
6.05814e-06
6.05813e-06
6.05811e-06
6.05809e-06
6.05806e-06
6.05804e-06
6.05801e-06
6.05798e-06
6.05794e-06
6.05789e-06
6.05783e-06
6.05776e-06
6.05767e-06
6.05756e-06
6.05741e-06
6.05724e-06
6.05704e-06
6.05684e-06
6.05661e-06
6.05641e-06
6.05622e-06
6.05606e-06
6.05592e-06
6.05579e-06
6.05569e-06
6.05561e-06
6.05555e-06
6.05552e-06
6.05551e-06
6.05553e-06
6.05558e-06
6.05565e-06
6.05575e-06
6.05586e-06
6.05599e-06
6.05613e-06
6.05628e-06
6.05643e-06
6.05658e-06
6.05673e-06
6.05688e-06
6.05702e-06
6.05716e-06
6.05729e-06
6.05742e-06
6.05755e-06
6.05768e-06
6.0578e-06
6.05793e-06
6.05805e-06
6.05818e-06
6.0583e-06
6.05842e-06
6.05854e-06
6.05866e-06
6.05877e-06
6.05889e-06
6.05902e-06
6.05914e-06
6.05927e-06
6.05938e-06
6.05947e-06
6.05956e-06
6.05963e-06
6.0597e-06
6.05976e-06
6.05981e-06
6.05985e-06
6.05988e-06
6.05991e-06
6.05992e-06
6.05991e-06
6.05989e-06
6.05983e-06
6.05976e-06
6.05969e-06
6.05961e-06
6.05951e-06
6.05941e-06
6.05932e-06
6.05922e-06
6.05914e-06
6.05907e-06
6.05901e-06
6.05898e-06
6.05896e-06
6.05888e-06
6.05905e-06
6.05827e-06
1.02436e-05
1.02441e-05
1.02453e-05
1.02461e-05
1.02465e-05
1.02465e-05
1.02462e-05
1.02459e-05
1.02454e-05
1.0245e-05
1.02446e-05
1.02443e-05
1.0244e-05
1.02437e-05
1.02435e-05
1.02433e-05
1.02432e-05
1.02431e-05
1.0243e-05
1.0243e-05
1.0243e-05
1.0243e-05
1.02431e-05
1.02431e-05
1.02431e-05
1.02432e-05
1.02432e-05
1.02433e-05
1.02433e-05
1.02433e-05
1.02433e-05
1.02432e-05
1.02432e-05
1.02432e-05
1.02431e-05
1.02431e-05
1.0243e-05
1.0243e-05
1.02429e-05
1.02429e-05
1.02428e-05
1.02427e-05
1.02426e-05
1.02425e-05
1.02423e-05
1.02421e-05
1.02419e-05
1.02416e-05
1.02413e-05
1.02409e-05
1.02406e-05
1.02403e-05
1.02401e-05
1.02399e-05
1.02397e-05
1.02395e-05
1.02394e-05
1.02393e-05
1.02393e-05
1.02393e-05
1.02394e-05
1.02395e-05
1.02396e-05
1.02397e-05
1.02399e-05
1.02402e-05
1.02404e-05
1.02406e-05
1.02409e-05
1.02411e-05
1.02414e-05
1.02416e-05
1.02419e-05
1.02421e-05
1.02423e-05
1.02425e-05
1.02427e-05
1.0243e-05
1.02432e-05
1.02434e-05
1.02436e-05
1.02438e-05
1.0244e-05
1.02442e-05
1.02444e-05
1.02446e-05
1.02448e-05
1.0245e-05
1.02452e-05
1.02455e-05
1.02457e-05
1.02459e-05
1.0246e-05
1.02462e-05
1.02463e-05
1.02464e-05
1.02465e-05
1.02466e-05
1.02467e-05
1.02467e-05
1.02468e-05
1.02468e-05
1.02468e-05
1.02467e-05
1.02466e-05
1.02465e-05
1.02464e-05
1.02463e-05
1.02461e-05
1.0246e-05
1.02458e-05
1.02456e-05
1.02455e-05
1.02454e-05
1.02453e-05
1.02452e-05
1.02451e-05
1.0245e-05
1.02452e-05
1.02442e-05
1.52e-05
1.52002e-05
1.52014e-05
1.52025e-05
1.52031e-05
1.52032e-05
1.5203e-05
1.52026e-05
1.52021e-05
1.52015e-05
1.5201e-05
1.52005e-05
1.52001e-05
1.51997e-05
1.51994e-05
1.51991e-05
1.51989e-05
1.51987e-05
1.51986e-05
1.51986e-05
1.51985e-05
1.51985e-05
1.51986e-05
1.51986e-05
1.51987e-05
1.51987e-05
1.51988e-05
1.51988e-05
1.51988e-05
1.51988e-05
1.51987e-05
1.51987e-05
1.51986e-05
1.51986e-05
1.51985e-05
1.51984e-05
1.51983e-05
1.51983e-05
1.51982e-05
1.51981e-05
1.5198e-05
1.51979e-05
1.51977e-05
1.51976e-05
1.51974e-05
1.51971e-05
1.51967e-05
1.51964e-05
1.51959e-05
1.51955e-05
1.51951e-05
1.51947e-05
1.51943e-05
1.51941e-05
1.51938e-05
1.51936e-05
1.51935e-05
1.51934e-05
1.51934e-05
1.51934e-05
1.51935e-05
1.51936e-05
1.51938e-05
1.51941e-05
1.51944e-05
1.51947e-05
1.51951e-05
1.51954e-05
1.51958e-05
1.51962e-05
1.51965e-05
1.51969e-05
1.51972e-05
1.51976e-05
1.51979e-05
1.51982e-05
1.51985e-05
1.51989e-05
1.51992e-05
1.51995e-05
1.51998e-05
1.52002e-05
1.52005e-05
1.52008e-05
1.52011e-05
1.52014e-05
1.52017e-05
1.5202e-05
1.52023e-05
1.52027e-05
1.5203e-05
1.52033e-05
1.52036e-05
1.52038e-05
1.5204e-05
1.52042e-05
1.52043e-05
1.52045e-05
1.52046e-05
1.52046e-05
1.52047e-05
1.52047e-05
1.52047e-05
1.52047e-05
1.52045e-05
1.52044e-05
1.52042e-05
1.5204e-05
1.52038e-05
1.52036e-05
1.52033e-05
1.52031e-05
1.52029e-05
1.52027e-05
1.52025e-05
1.52024e-05
1.52023e-05
1.52021e-05
1.52023e-05
1.52013e-05
2.06525e-05
2.06522e-05
2.06533e-05
2.06544e-05
2.06552e-05
2.06555e-05
2.06554e-05
2.0655e-05
2.06544e-05
2.06537e-05
2.06531e-05
2.06525e-05
2.06519e-05
2.06514e-05
2.06509e-05
2.06506e-05
2.06503e-05
2.06501e-05
2.06499e-05
2.06498e-05
2.06497e-05
2.06497e-05
2.06497e-05
2.06498e-05
2.06498e-05
2.06498e-05
2.06499e-05
2.06499e-05
2.06499e-05
2.06498e-05
2.06498e-05
2.06497e-05
2.06496e-05
2.06495e-05
2.06493e-05
2.06492e-05
2.06491e-05
2.0649e-05
2.06489e-05
2.06487e-05
2.06486e-05
2.06484e-05
2.06483e-05
2.06481e-05
2.06478e-05
2.06474e-05
2.0647e-05
2.06466e-05
2.06461e-05
2.06455e-05
2.0645e-05
2.06445e-05
2.0644e-05
2.06437e-05
2.06434e-05
2.06431e-05
2.0643e-05
2.06429e-05
2.06429e-05
2.06429e-05
2.06431e-05
2.06433e-05
2.06436e-05
2.0644e-05
2.06444e-05
2.06448e-05
2.06453e-05
2.06458e-05
2.06463e-05
2.06468e-05
2.06473e-05
2.06478e-05
2.06483e-05
2.06487e-05
2.06492e-05
2.06497e-05
2.06501e-05
2.06506e-05
2.0651e-05
2.06515e-05
2.06519e-05
2.06524e-05
2.06528e-05
2.06533e-05
2.06537e-05
2.06542e-05
2.06546e-05
2.0655e-05
2.06555e-05
2.06559e-05
2.06564e-05
2.06568e-05
2.06572e-05
2.06575e-05
2.06578e-05
2.06581e-05
2.06583e-05
2.06585e-05
2.06587e-05
2.06588e-05
2.06589e-05
2.06589e-05
2.06589e-05
2.06588e-05
2.06587e-05
2.06585e-05
2.06583e-05
2.0658e-05
2.06578e-05
2.06574e-05
2.06571e-05
2.06568e-05
2.06565e-05
2.06562e-05
2.0656e-05
2.06558e-05
2.06556e-05
2.06554e-05
2.06555e-05
2.06546e-05
2.63952e-05
2.63945e-05
2.63952e-05
2.63963e-05
2.63971e-05
2.63975e-05
2.63975e-05
2.63971e-05
2.63965e-05
2.63959e-05
2.63951e-05
2.63944e-05
2.63937e-05
2.63931e-05
2.63925e-05
2.6392e-05
2.63916e-05
2.63913e-05
2.63911e-05
2.63909e-05
2.63908e-05
2.63907e-05
2.63907e-05
2.63907e-05
2.63908e-05
2.63908e-05
2.63908e-05
2.63908e-05
2.63907e-05
2.63906e-05
2.63905e-05
2.63904e-05
2.63902e-05
2.63901e-05
2.63899e-05
2.63897e-05
2.63895e-05
2.63894e-05
2.63892e-05
2.6389e-05
2.63888e-05
2.63886e-05
2.63884e-05
2.63881e-05
2.63878e-05
2.63874e-05
2.63869e-05
2.63864e-05
2.63858e-05
2.63851e-05
2.63845e-05
2.63839e-05
2.63834e-05
2.63829e-05
2.63825e-05
2.63823e-05
2.63821e-05
2.6382e-05
2.6382e-05
2.63821e-05
2.63823e-05
2.63826e-05
2.6383e-05
2.63835e-05
2.63841e-05
2.63846e-05
2.63853e-05
2.63859e-05
2.63866e-05
2.63872e-05
2.63879e-05
2.63885e-05
2.63892e-05
2.63898e-05
2.63904e-05
2.6391e-05
2.63916e-05
2.63922e-05
2.63928e-05
2.63934e-05
2.6394e-05
2.63946e-05
2.63952e-05
2.63958e-05
2.63964e-05
2.6397e-05
2.63976e-05
2.63982e-05
2.63988e-05
2.63994e-05
2.63999e-05
2.64005e-05
2.6401e-05
2.64015e-05
2.64019e-05
2.64023e-05
2.64026e-05
2.64029e-05
2.64031e-05
2.64033e-05
2.64034e-05
2.64035e-05
2.64035e-05
2.64034e-05
2.64033e-05
2.64031e-05
2.64028e-05
2.64025e-05
2.64021e-05
2.64018e-05
2.64014e-05
2.64009e-05
2.64006e-05
2.64002e-05
2.63999e-05
2.63996e-05
2.63994e-05
2.63991e-05
2.63991e-05
2.63985e-05
3.22813e-05
3.228e-05
3.22804e-05
3.22813e-05
3.22821e-05
3.22825e-05
3.22825e-05
3.22822e-05
3.22817e-05
3.2281e-05
3.22802e-05
3.22794e-05
3.22786e-05
3.22779e-05
3.22772e-05
3.22766e-05
3.22761e-05
3.22757e-05
3.22753e-05
3.22751e-05
3.22749e-05
3.22748e-05
3.22747e-05
3.22747e-05
3.22747e-05
3.22746e-05
3.22746e-05
3.22745e-05
3.22745e-05
3.22743e-05
3.22742e-05
3.2274e-05
3.22738e-05
3.22735e-05
3.22733e-05
3.2273e-05
3.22728e-05
3.22725e-05
3.22723e-05
3.2272e-05
3.22718e-05
3.22715e-05
3.22712e-05
3.22709e-05
3.22705e-05
3.227e-05
3.22695e-05
3.22689e-05
3.22682e-05
3.22674e-05
3.22667e-05
3.2266e-05
3.22654e-05
3.22649e-05
3.22644e-05
3.22641e-05
3.22639e-05
3.22638e-05
3.22639e-05
3.22641e-05
3.22644e-05
3.22648e-05
3.22653e-05
3.22659e-05
3.22666e-05
3.22673e-05
3.22681e-05
3.22689e-05
3.22697e-05
3.22706e-05
3.22714e-05
3.22722e-05
3.2273e-05
3.22738e-05
3.22746e-05
3.22753e-05
3.22761e-05
3.22769e-05
3.22776e-05
3.22784e-05
3.22792e-05
3.22799e-05
3.22807e-05
3.22815e-05
3.22823e-05
3.2283e-05
3.22838e-05
3.22845e-05
3.22853e-05
3.22861e-05
3.22868e-05
3.22876e-05
3.22883e-05
3.22889e-05
3.22894e-05
3.229e-05
3.22904e-05
3.22907e-05
3.2291e-05
3.22913e-05
3.22914e-05
3.22915e-05
3.22916e-05
3.22915e-05
3.22913e-05
3.22911e-05
3.22908e-05
3.22905e-05
3.22901e-05
3.22896e-05
3.22891e-05
3.22886e-05
3.22882e-05
3.22877e-05
3.22873e-05
3.2287e-05
3.22867e-05
3.22863e-05
3.22862e-05
3.22859e-05
3.82059e-05
3.82041e-05
3.82042e-05
3.82048e-05
3.82054e-05
3.82058e-05
3.82058e-05
3.82056e-05
3.8205e-05
3.82043e-05
3.82035e-05
3.82027e-05
3.82018e-05
3.8201e-05
3.82002e-05
3.81995e-05
3.81989e-05
3.81984e-05
3.81979e-05
3.81976e-05
3.81973e-05
3.81971e-05
3.8197e-05
3.81969e-05
3.81968e-05
3.81967e-05
3.81966e-05
3.81965e-05
3.81964e-05
3.81962e-05
3.8196e-05
3.81957e-05
3.81954e-05
3.81951e-05
3.81948e-05
3.81944e-05
3.81941e-05
3.81938e-05
3.81934e-05
3.81931e-05
3.81927e-05
3.81924e-05
3.8192e-05
3.81916e-05
3.81911e-05
3.81906e-05
3.819e-05
3.81893e-05
3.81885e-05
3.81877e-05
3.81869e-05
3.81861e-05
3.81854e-05
3.81848e-05
3.81843e-05
3.8184e-05
3.81837e-05
3.81837e-05
3.81838e-05
3.8184e-05
3.81844e-05
3.81849e-05
3.81856e-05
3.81863e-05
3.81872e-05
3.81881e-05
3.8189e-05
3.819e-05
3.8191e-05
3.8192e-05
3.8193e-05
3.8194e-05
3.8195e-05
3.8196e-05
3.8197e-05
3.81979e-05
3.81988e-05
3.81998e-05
3.82007e-05
3.82017e-05
3.82026e-05
3.82036e-05
3.82046e-05
3.82056e-05
3.82065e-05
3.82075e-05
3.82084e-05
3.82094e-05
3.82103e-05
3.82113e-05
3.82122e-05
3.82131e-05
3.8214e-05
3.82148e-05
3.82155e-05
3.82162e-05
3.82167e-05
3.82172e-05
3.82176e-05
3.82179e-05
3.82181e-05
3.82182e-05
3.82183e-05
3.82182e-05
3.82181e-05
3.82178e-05
3.82175e-05
3.82171e-05
3.82167e-05
3.82162e-05
3.82156e-05
3.82151e-05
3.82145e-05
3.8214e-05
3.82135e-05
3.82131e-05
3.82127e-05
3.82123e-05
3.8212e-05
3.82121e-05
4.40936e-05
4.40913e-05
4.4091e-05
4.40914e-05
4.40918e-05
4.40921e-05
4.40921e-05
4.40918e-05
4.40913e-05
4.40906e-05
4.40898e-05
4.40889e-05
4.4088e-05
4.40871e-05
4.40862e-05
4.40854e-05
4.40847e-05
4.40841e-05
4.40835e-05
4.40831e-05
4.40827e-05
4.40824e-05
4.40822e-05
4.4082e-05
4.40819e-05
4.40817e-05
4.40815e-05
4.40814e-05
4.40811e-05
4.40809e-05
4.40806e-05
4.40802e-05
4.40799e-05
4.40795e-05
4.4079e-05
4.40786e-05
4.40782e-05
4.40777e-05
4.40773e-05
4.40768e-05
4.40764e-05
4.40759e-05
4.40754e-05
4.40749e-05
4.40744e-05
4.40737e-05
4.4073e-05
4.40723e-05
4.40714e-05
4.40705e-05
4.40696e-05
4.40687e-05
4.4068e-05
4.40673e-05
4.40668e-05
4.40664e-05
4.40662e-05
4.40662e-05
4.40663e-05
4.40666e-05
4.40671e-05
4.40678e-05
4.40686e-05
4.40695e-05
4.40705e-05
4.40716e-05
4.40727e-05
4.40739e-05
4.40751e-05
4.40763e-05
4.40775e-05
4.40787e-05
4.40798e-05
4.4081e-05
4.40822e-05
4.40833e-05
4.40845e-05
4.40856e-05
4.40867e-05
4.40879e-05
4.40891e-05
4.40902e-05
4.40914e-05
4.40926e-05
4.40938e-05
4.40949e-05
4.40961e-05
4.40972e-05
4.40984e-05
4.40995e-05
4.41007e-05
4.41018e-05
4.41028e-05
4.41038e-05
4.41047e-05
4.41055e-05
4.41062e-05
4.41068e-05
4.41073e-05
4.41077e-05
4.41079e-05
4.41081e-05
4.41082e-05
4.41082e-05
4.4108e-05
4.41078e-05
4.41075e-05
4.41071e-05
4.41066e-05
4.4106e-05
4.41054e-05
4.41048e-05
4.41042e-05
4.41036e-05
4.4103e-05
4.41025e-05
4.41021e-05
4.41016e-05
4.41012e-05
4.41017e-05
4.98902e-05
4.98872e-05
4.98867e-05
4.98868e-05
4.98871e-05
4.98872e-05
4.98871e-05
4.98867e-05
4.98862e-05
4.98855e-05
4.98847e-05
4.98838e-05
4.98828e-05
4.98818e-05
4.98809e-05
4.988e-05
4.98792e-05
4.98785e-05
4.98778e-05
4.98773e-05
4.98768e-05
4.98764e-05
4.98761e-05
4.98758e-05
4.98755e-05
4.98753e-05
4.9875e-05
4.98747e-05
4.98744e-05
4.98741e-05
4.98737e-05
4.98733e-05
4.98728e-05
4.98723e-05
4.98718e-05
4.98712e-05
4.98707e-05
4.98701e-05
4.98696e-05
4.9869e-05
4.98684e-05
4.98678e-05
4.98672e-05
4.98666e-05
4.98659e-05
4.98652e-05
4.98644e-05
4.98635e-05
4.98626e-05
4.98616e-05
4.98606e-05
4.98596e-05
4.98588e-05
4.98581e-05
4.98575e-05
4.98571e-05
4.98569e-05
4.9857e-05
4.98572e-05
4.98576e-05
4.98583e-05
4.98591e-05
4.986e-05
4.98611e-05
4.98623e-05
4.98635e-05
4.98648e-05
4.98662e-05
4.98676e-05
4.9869e-05
4.98704e-05
4.98718e-05
4.98732e-05
4.98745e-05
4.98759e-05
4.98773e-05
4.98786e-05
4.988e-05
4.98813e-05
4.98827e-05
4.98841e-05
4.98855e-05
4.98869e-05
4.98883e-05
4.98897e-05
4.98911e-05
4.98924e-05
4.98938e-05
4.98952e-05
4.98965e-05
4.98979e-05
4.98992e-05
4.99005e-05
4.99017e-05
4.99027e-05
4.99037e-05
4.99045e-05
4.99052e-05
4.99058e-05
4.99063e-05
4.99066e-05
4.99068e-05
4.99069e-05
4.99069e-05
4.99068e-05
4.99066e-05
4.99063e-05
4.99058e-05
4.99054e-05
4.99048e-05
4.99042e-05
4.99035e-05
4.99028e-05
4.99022e-05
4.99016e-05
4.9901e-05
4.99004e-05
4.99e-05
4.98993e-05
4.99003e-05
5.55569e-05
5.55534e-05
5.55526e-05
5.55525e-05
5.55525e-05
5.55525e-05
5.55523e-05
5.55519e-05
5.55513e-05
5.55506e-05
5.55497e-05
5.55488e-05
5.55478e-05
5.55468e-05
5.55458e-05
5.55448e-05
5.55439e-05
5.55431e-05
5.55423e-05
5.55416e-05
5.5541e-05
5.55405e-05
5.55401e-05
5.55397e-05
5.55393e-05
5.5539e-05
5.55386e-05
5.55382e-05
5.55378e-05
5.55374e-05
5.55369e-05
5.55363e-05
5.55357e-05
5.55351e-05
5.55345e-05
5.55338e-05
5.55332e-05
5.55325e-05
5.55318e-05
5.55311e-05
5.55303e-05
5.55296e-05
5.55289e-05
5.55281e-05
5.55273e-05
5.55264e-05
5.55255e-05
5.55245e-05
5.55235e-05
5.55224e-05
5.55213e-05
5.55203e-05
5.55194e-05
5.55186e-05
5.5518e-05
5.55177e-05
5.55175e-05
5.55176e-05
5.5518e-05
5.55185e-05
5.55193e-05
5.55202e-05
5.55214e-05
5.55226e-05
5.55239e-05
5.55254e-05
5.55269e-05
5.55285e-05
5.553e-05
5.55316e-05
5.55332e-05
5.55348e-05
5.55364e-05
5.5538e-05
5.55396e-05
5.55412e-05
5.55428e-05
5.55443e-05
5.55459e-05
5.55475e-05
5.55491e-05
5.55508e-05
5.55524e-05
5.5554e-05
5.55557e-05
5.55573e-05
5.55589e-05
5.55605e-05
5.55621e-05
5.55637e-05
5.55653e-05
5.55668e-05
5.55683e-05
5.55697e-05
5.55709e-05
5.55721e-05
5.5573e-05
5.55738e-05
5.55745e-05
5.5575e-05
5.55754e-05
5.55757e-05
5.55759e-05
5.55759e-05
5.55758e-05
5.55756e-05
5.55753e-05
5.55749e-05
5.55744e-05
5.55738e-05
5.55732e-05
5.55725e-05
5.55718e-05
5.55711e-05
5.55704e-05
5.55698e-05
5.55692e-05
5.55687e-05
5.55678e-05
5.55694e-05
6.10677e-05
6.10635e-05
6.10625e-05
6.10623e-05
6.10622e-05
6.1062e-05
6.10617e-05
6.10612e-05
6.10605e-05
6.10598e-05
6.10589e-05
6.10579e-05
6.10569e-05
6.10558e-05
6.10547e-05
6.10537e-05
6.10527e-05
6.10518e-05
6.10509e-05
6.10501e-05
6.10494e-05
6.10488e-05
6.10482e-05
6.10477e-05
6.10472e-05
6.10467e-05
6.10462e-05
6.10457e-05
6.10452e-05
6.10446e-05
6.1044e-05
6.10434e-05
6.10427e-05
6.10419e-05
6.10412e-05
6.10404e-05
6.10395e-05
6.10387e-05
6.10379e-05
6.1037e-05
6.10361e-05
6.10352e-05
6.10343e-05
6.10334e-05
6.10324e-05
6.10314e-05
6.10303e-05
6.10292e-05
6.10281e-05
6.10269e-05
6.10257e-05
6.10246e-05
6.10236e-05
6.10228e-05
6.10223e-05
6.10219e-05
6.10219e-05
6.10221e-05
6.10225e-05
6.10232e-05
6.10242e-05
6.10253e-05
6.10266e-05
6.1028e-05
6.10295e-05
6.10312e-05
6.10329e-05
6.10346e-05
6.10364e-05
6.10382e-05
6.104e-05
6.10418e-05
6.10436e-05
6.10454e-05
6.10472e-05
6.1049e-05
6.10509e-05
6.10527e-05
6.10545e-05
6.10563e-05
6.10582e-05
6.10601e-05
6.10619e-05
6.10638e-05
6.10657e-05
6.10676e-05
6.10694e-05
6.10713e-05
6.10731e-05
6.10749e-05
6.10768e-05
6.10785e-05
6.10802e-05
6.10818e-05
6.10832e-05
6.10845e-05
6.10856e-05
6.10865e-05
6.10873e-05
6.10879e-05
6.10883e-05
6.10887e-05
6.10889e-05
6.1089e-05
6.10889e-05
6.10887e-05
6.10884e-05
6.1088e-05
6.10876e-05
6.1087e-05
6.10864e-05
6.10857e-05
6.1085e-05
6.10842e-05
6.10835e-05
6.10829e-05
6.10822e-05
6.10817e-05
6.10806e-05
6.10828e-05
6.64068e-05
6.64021e-05
6.64008e-05
6.64005e-05
6.64003e-05
6.64e-05
6.63995e-05
6.63989e-05
6.63982e-05
6.63974e-05
6.63964e-05
6.63954e-05
6.63943e-05
6.63932e-05
6.63921e-05
6.6391e-05
6.63899e-05
6.63889e-05
6.63879e-05
6.6387e-05
6.63862e-05
6.63854e-05
6.63847e-05
6.63841e-05
6.63834e-05
6.63828e-05
6.63822e-05
6.63815e-05
6.63809e-05
6.63802e-05
6.63794e-05
6.63787e-05
6.63778e-05
6.6377e-05
6.6376e-05
6.63751e-05
6.63741e-05
6.63731e-05
6.63721e-05
6.63711e-05
6.637e-05
6.63689e-05
6.63678e-05
6.63667e-05
6.63656e-05
6.63644e-05
6.63632e-05
6.6362e-05
6.63607e-05
6.63594e-05
6.63581e-05
6.63569e-05
6.63559e-05
6.63551e-05
6.63545e-05
6.63543e-05
6.63543e-05
6.63546e-05
6.63553e-05
6.63561e-05
6.63572e-05
6.63585e-05
6.636e-05
6.63616e-05
6.63633e-05
6.63651e-05
6.6367e-05
6.63689e-05
6.63709e-05
6.63729e-05
6.63749e-05
6.63769e-05
6.6379e-05
6.6381e-05
6.6383e-05
6.63851e-05
6.63871e-05
6.63892e-05
6.63912e-05
6.63933e-05
6.63954e-05
6.63976e-05
6.63997e-05
6.64018e-05
6.6404e-05
6.64061e-05
6.64082e-05
6.64103e-05
6.64124e-05
6.64144e-05
6.64165e-05
6.64185e-05
6.64204e-05
6.64221e-05
6.64237e-05
6.64251e-05
6.64263e-05
6.64274e-05
6.64282e-05
6.64289e-05
6.64294e-05
6.64298e-05
6.64301e-05
6.64302e-05
6.64302e-05
6.643e-05
6.64298e-05
6.64294e-05
6.6429e-05
6.64284e-05
6.64278e-05
6.64272e-05
6.64264e-05
6.64257e-05
6.6425e-05
6.64243e-05
6.64236e-05
6.64231e-05
6.64219e-05
6.64247e-05
7.15675e-05
7.15622e-05
7.15608e-05
7.15604e-05
7.15601e-05
7.15597e-05
7.15592e-05
7.15585e-05
7.15577e-05
7.15568e-05
7.15558e-05
7.15547e-05
7.15536e-05
7.15524e-05
7.15512e-05
7.15501e-05
7.15489e-05
7.15478e-05
7.15467e-05
7.15457e-05
7.15447e-05
7.15438e-05
7.1543e-05
7.15422e-05
7.15414e-05
7.15406e-05
7.15399e-05
7.15391e-05
7.15383e-05
7.15374e-05
7.15365e-05
7.15356e-05
7.15346e-05
7.15336e-05
7.15325e-05
7.15314e-05
7.15303e-05
7.15291e-05
7.15279e-05
7.15267e-05
7.15254e-05
7.15241e-05
7.15228e-05
7.15215e-05
7.15202e-05
7.15188e-05
7.15174e-05
7.1516e-05
7.15146e-05
7.15131e-05
7.15117e-05
7.15105e-05
7.15094e-05
7.15086e-05
7.15082e-05
7.1508e-05
7.15082e-05
7.15087e-05
7.15095e-05
7.15105e-05
7.15118e-05
7.15133e-05
7.15149e-05
7.15167e-05
7.15186e-05
7.15206e-05
7.15226e-05
7.15247e-05
7.15269e-05
7.15291e-05
7.15313e-05
7.15335e-05
7.15358e-05
7.1538e-05
7.15403e-05
7.15426e-05
7.15449e-05
7.15472e-05
7.15495e-05
7.15518e-05
7.15542e-05
7.15566e-05
7.1559e-05
7.15614e-05
7.15638e-05
7.15661e-05
7.15685e-05
7.15709e-05
7.15732e-05
7.15755e-05
7.15778e-05
7.158e-05
7.15821e-05
7.1584e-05
7.15857e-05
7.15873e-05
7.15886e-05
7.15897e-05
7.15906e-05
7.15913e-05
7.15919e-05
7.15923e-05
7.15927e-05
7.15928e-05
7.15929e-05
7.15928e-05
7.15926e-05
7.15923e-05
7.15919e-05
7.15914e-05
7.15908e-05
7.15902e-05
7.15895e-05
7.15888e-05
7.15881e-05
7.15875e-05
7.15867e-05
7.15863e-05
7.15848e-05
7.15883e-05
7.65516e-05
7.65456e-05
7.65441e-05
7.65436e-05
7.65433e-05
7.65428e-05
7.65423e-05
7.65415e-05
7.65407e-05
7.65397e-05
7.65386e-05
7.65375e-05
7.65363e-05
7.65351e-05
7.65339e-05
7.65326e-05
7.65314e-05
7.65302e-05
7.6529e-05
7.65279e-05
7.65268e-05
7.65257e-05
7.65247e-05
7.65238e-05
7.65228e-05
7.65219e-05
7.6521e-05
7.652e-05
7.6519e-05
7.6518e-05
7.6517e-05
7.65159e-05
7.65147e-05
7.65135e-05
7.65123e-05
7.6511e-05
7.65097e-05
7.65083e-05
7.65069e-05
7.65055e-05
7.6504e-05
7.65025e-05
7.65009e-05
7.64994e-05
7.64979e-05
7.64963e-05
7.64947e-05
7.64931e-05
7.64915e-05
7.64899e-05
7.64884e-05
7.64871e-05
7.6486e-05
7.64853e-05
7.64849e-05
7.64849e-05
7.64853e-05
7.6486e-05
7.6487e-05
7.64882e-05
7.64896e-05
7.64913e-05
7.64931e-05
7.6495e-05
7.64971e-05
7.64992e-05
7.65015e-05
7.65038e-05
7.65061e-05
7.65085e-05
7.65109e-05
7.65133e-05
7.65158e-05
7.65182e-05
7.65207e-05
7.65232e-05
7.65257e-05
7.65283e-05
7.65309e-05
7.65335e-05
7.65361e-05
7.65387e-05
7.65414e-05
7.65441e-05
7.65467e-05
7.65494e-05
7.6552e-05
7.65546e-05
7.65572e-05
7.65598e-05
7.65623e-05
7.65647e-05
7.65669e-05
7.6569e-05
7.65708e-05
7.65724e-05
7.65738e-05
7.6575e-05
7.65759e-05
7.65767e-05
7.65774e-05
7.65779e-05
7.65782e-05
7.65785e-05
7.65786e-05
7.65786e-05
7.65785e-05
7.65782e-05
7.65779e-05
7.65775e-05
7.6577e-05
7.65764e-05
7.65758e-05
7.65751e-05
7.65745e-05
7.65738e-05
7.65731e-05
7.65727e-05
7.65711e-05
7.65752e-05
8.13686e-05
8.13622e-05
8.13605e-05
8.136e-05
8.13597e-05
8.13592e-05
8.13586e-05
8.13578e-05
8.13569e-05
8.13559e-05
8.13548e-05
8.13536e-05
8.13524e-05
8.13511e-05
8.13498e-05
8.13485e-05
8.13472e-05
8.13458e-05
8.13446e-05
8.13433e-05
8.13421e-05
8.13409e-05
8.13398e-05
8.13386e-05
8.13375e-05
8.13364e-05
8.13353e-05
8.13342e-05
8.1333e-05
8.13319e-05
8.13306e-05
8.13294e-05
8.1328e-05
8.13267e-05
8.13252e-05
8.13237e-05
8.13222e-05
8.13206e-05
8.1319e-05
8.13173e-05
8.13156e-05
8.13138e-05
8.1312e-05
8.13103e-05
8.13085e-05
8.13067e-05
8.13049e-05
8.13031e-05
8.13013e-05
8.12995e-05
8.12979e-05
8.12965e-05
8.12955e-05
8.12949e-05
8.12947e-05
8.12949e-05
8.12954e-05
8.12963e-05
8.12975e-05
8.12989e-05
8.13006e-05
8.13024e-05
8.13043e-05
8.13064e-05
8.13086e-05