/*--------------------------------*- C++ -*----------------------------------*\
  =========                 |
  \\      /  F ield         | OpenFOAM: The Open Source CFD Toolbox
   \\    /   O peration     | Website:  https://openfoam.org
    \\  /    A nd           | Version:  7
     \\/     M anipulation  |
\*---------------------------------------------------------------------------*/
FoamFile
{
    version     2.0;
    format      ascii;
    class       surfaceScalarField;
    location    "500";
    object      phi;
}
// * * * * * * * * * * * * * * * * * * * * * * * * * * * * * * * * * * * * * //

dimensions      [0 3 -1 0 0 0 0];

internalField   nonuniform List<scalar> 
47680
(
2.4422e-06
7.73133e-10
2.44277e-06
-5.68079e-10
2.44324e-06
-4.63435e-10
2.44345e-06
-2.17659e-10
2.4436e-06
-1.49327e-10
2.44368e-06
-7.75032e-11
2.44371e-06
-3.37753e-11
2.44372e-06
-8.09888e-12
2.44371e-06
8.93839e-12
2.44369e-06
1.9152e-11
2.44367e-06
2.49705e-11
2.44364e-06
2.77508e-11
2.44361e-06
2.82686e-11
2.44359e-06
2.70652e-11
2.44356e-06
2.45039e-11
2.44354e-06
2.08668e-11
2.44352e-06
1.64241e-11
2.44351e-06
1.14607e-11
2.44351e-06
6.2757e-12
2.4435e-06
1.14149e-12
2.44351e-06
-3.68319e-12
2.44352e-06
-7.90054e-12
2.44353e-06
-1.12056e-11
2.44354e-06
-1.33664e-11
2.44356e-06
-1.42495e-11
2.44357e-06
-1.38326e-11
2.44358e-06
-1.22047e-11
2.44359e-06
-9.54997e-12
2.4436e-06
-6.1366e-12
2.4436e-06
-2.28385e-12
2.4436e-06
1.67263e-12
2.44359e-06
5.43021e-12
2.44358e-06
8.69436e-12
2.44357e-06
1.1262e-11
2.44356e-06
1.29341e-11
2.44355e-06
1.37124e-11
2.44353e-06
1.34701e-11
2.44352e-06
1.24206e-11
2.44351e-06
1.0447e-11
2.4435e-06
7.89229e-12
2.4435e-06
5.24369e-12
2.44349e-06
1.53455e-12
2.44349e-06
2.60959e-12
2.44349e-06
-1.13197e-12
2.44348e-06
1.43638e-11
2.44346e-06
2.26758e-11
2.44343e-06
2.95837e-11
2.44338e-06
4.14625e-11
2.44334e-06
4.99005e-11
2.44327e-06
6.08114e-11
2.44323e-06
4.83613e-11
2.44318e-06
4.24842e-11
2.44314e-06
4.00415e-11
2.44311e-06
3.62077e-11
2.44307e-06
3.26924e-11
2.44305e-06
2.90066e-11
2.44302e-06
2.50584e-11
2.443e-06
2.10047e-11
2.44298e-06
1.68869e-11
2.44297e-06
1.27782e-11
2.44296e-06
8.76542e-12
2.44296e-06
4.94251e-12
2.44295e-06
1.43051e-12
2.44296e-06
-1.6502e-12
2.44296e-06
-4.21609e-12
2.44297e-06
-6.1829e-12
2.44297e-06
-7.47053e-12
2.44298e-06
-8.04299e-12
2.44299e-06
-7.91217e-12
2.443e-06
-7.13888e-12
2.443e-06
-5.82571e-12
2.44301e-06
-4.11583e-12
2.44301e-06
-2.19227e-12
2.44301e-06
-2.50767e-13
2.44301e-06
1.54008e-12
2.443e-06
3.04459e-12
2.443e-06
4.17671e-12
2.443e-06
4.88173e-12
2.44299e-06
5.1772e-12
2.44299e-06
5.07917e-12
2.44298e-06
4.74043e-12
2.44298e-06
4.155e-12
2.44297e-06
3.6657e-12
2.44297e-06
2.99692e-12
2.44297e-06
2.64738e-12
2.44297e-06
1.68557e-12
2.44297e-06
-4.3919e-13
2.44297e-06
-7.74972e-12
2.44299e-06
-1.53022e-11
2.44301e-06
-1.97637e-11
2.44303e-06
-2.22512e-11
2.44305e-06
-1.9637e-11
2.44307e-06
-1.68825e-11
2.44308e-06
-1.53463e-11
2.4431e-06
-1.44795e-11
2.44311e-06
-1.45775e-11
2.44313e-06
-1.53279e-11
2.44314e-06
-1.69071e-11
2.44316e-06
-1.88981e-11
2.44318e-06
-2.12027e-11
2.44321e-06
-2.42946e-11
2.44323e-06
-2.37796e-11
2.44326e-06
-2.67074e-11
2.44327e-06
-1.56007e-11
2.44328e-06
-5.97466e-12
2.4433e-06
-1.43822e-11
2.44331e-06
-1.21198e-11
2.44331e-06
-6.23002e-12
2.44332e-06
-4.20587e-12
2.44332e-06
-3.86872e-12
2.44333e-06
-6.32477e-12
2.44334e-06
-9.94131e-12
2.44336e-06
-1.75624e-11
2.44338e-06
-2.28559e-11
2.44342e-06
-3.76597e-11
2.44345e-06
-3.65191e-11
2.44353e-06
-7.32741e-11
2.44352e-06
5.72795e-12
2.44371e-06
-1.93494e-10
7.36729e-10
7.53534e-06
2.53998e-09
7.53628e-06
-1.50901e-09
7.53746e-06
-1.64631e-09
7.53811e-06
-8.67476e-10
7.53853e-06
-5.68309e-10
7.53876e-06
-3.10987e-10
7.53887e-06
-1.41701e-10
7.5389e-06
-3.94724e-11
7.53888e-06
2.78885e-11
7.53883e-06
6.94107e-11
7.53876e-06
9.3582e-11
7.53869e-06
1.05638e-10
7.53861e-06
1.08626e-10
7.53853e-06
1.04641e-10
7.53846e-06
9.51262e-11
7.5384e-06
8.12168e-11
7.53835e-06
6.39921e-11
7.53832e-06
4.45873e-11
7.5383e-06
2.41813e-11
7.5383e-06
3.862e-12
7.53831e-06
-1.52942e-11
7.53833e-06
-3.20792e-11
7.53837e-06
-4.52913e-11
7.53841e-06
-5.40068e-11
7.53845e-06
-5.76871e-11
7.53849e-06
-5.62282e-11
7.53853e-06
-4.99622e-11
7.53856e-06
-3.96024e-11
7.53858e-06
-2.61857e-11
7.53859e-06
-1.09596e-11
7.53859e-06
4.76954e-12
7.53857e-06
1.98119e-11
7.53855e-06
3.3052e-11
7.53851e-06
4.36663e-11
7.53848e-06
5.09581e-11
7.53844e-06
5.4847e-11
7.53839e-06
5.49689e-11
7.53835e-06
5.20466e-11
7.53832e-06
4.56267e-11
7.53829e-06
3.73504e-11
7.53827e-06
2.76739e-11
7.53825e-06
1.62098e-11
7.53824e-06
1.72915e-11
7.53823e-06
8.20057e-12
7.53819e-06
5.7578e-11
7.53812e-06
9.04905e-11
7.53803e-06
1.18539e-10
7.53791e-06
1.60607e-10
7.53776e-06
1.95354e-10
7.53759e-06
2.32439e-10
7.53744e-06
1.9659e-10
7.53731e-06
1.73019e-10
7.53719e-06
1.61541e-10
7.53708e-06
1.46689e-10
7.53698e-06
1.32217e-10
7.53689e-06
1.17154e-10
7.53682e-06
1.01112e-10
7.53675e-06
8.45889e-11
7.5367e-06
6.78125e-11
7.53667e-06
5.10857e-11
7.53664e-06
3.47664e-11
7.53663e-06
1.9248e-11
7.53662e-06
5.00549e-12
7.53663e-06
-7.48319e-12
7.53664e-06
-1.78633e-11
7.53666e-06
-2.58059e-11
7.53668e-06
-3.10174e-11
7.53671e-06
-3.33675e-11
7.53673e-06
-3.29148e-11
7.53676e-06
-2.99087e-11
7.53678e-06
-2.47663e-11
7.53679e-06
-1.80659e-11
7.5368e-06
-1.05276e-11
7.5368e-06
-2.91441e-12
7.5368e-06
4.10971e-12
7.53679e-06
1.00203e-11
7.53678e-06
1.44663e-11
7.53677e-06
1.72511e-11
7.53676e-06
1.84096e-11
7.53674e-06
1.80717e-11
7.53673e-06
1.67177e-11
7.53672e-06
1.45267e-11
7.53671e-06
1.24924e-11
7.5367e-06
1.00736e-11
7.5367e-06
8.50229e-12
7.5367e-06
5.23815e-12
7.5367e-06
-2.70953e-12
7.53672e-06
-2.79201e-11
7.53676e-06
-5.54838e-11
7.53681e-06
-7.35445e-11
7.53687e-06
-8.34398e-11
7.53693e-06
-7.61407e-11
7.53698e-06
-6.64753e-11
7.53702e-06
-6.04087e-11
7.53707e-06
-5.69076e-11
7.53711e-06
-5.67452e-11
7.53715e-06
-5.90818e-11
7.5372e-06
-6.44506e-11
7.53725e-06
-7.13013e-11
7.53731e-06
-7.99327e-11
7.53738e-06
-9.01926e-11
7.53744e-06
-9.06327e-11
7.53752e-06
-9.89625e-11
7.53756e-06
-6.2815e-11
7.53759e-06
-2.95605e-11
7.53762e-06
-5.20219e-11
7.53766e-06
-4.62009e-11
7.53768e-06
-2.62634e-11
7.53769e-06
-1.70985e-11
7.5377e-06
-1.56834e-11
7.53772e-06
-2.29712e-11
7.53775e-06
-3.80586e-11
7.53779e-06
-6.16975e-11
7.53786e-06
-8.99036e-11
7.53795e-06
-1.28113e-10
7.53807e-06
-1.58164e-10
7.53823e-06
-2.27849e-10
7.53831e-06
-7.59994e-11
7.53866e-06
-5.47604e-10
2.2946e-09
1.29568e-05
4.84301e-09
1.29577e-05
-2.38014e-09
1.29593e-05
-3.24683e-09
1.29603e-05
-1.90282e-09
1.2961e-05
-1.23227e-09
1.29614e-05
-6.95492e-10
1.29616e-05
-3.29092e-10
1.29616e-05
-1.01151e-10
1.29616e-05
4.9071e-11
1.29615e-05
1.43434e-10
1.29614e-05
1.9944e-10
1.29613e-05
2.28324e-10
1.29612e-05
2.36799e-10
1.2961e-05
2.29441e-10
1.29609e-05
2.09459e-10
1.29608e-05
1.79399e-10
1.29608e-05
1.41676e-10
1.29607e-05
9.88274e-11
1.29607e-05
5.34746e-11
1.29607e-05
8.06426e-12
1.29607e-05
-3.49239e-11
1.29607e-05
-7.27343e-11
1.29608e-05
-1.0268e-10
1.29609e-05
-1.2267e-10
1.29609e-05
-1.31463e-10
1.2961e-05
-1.28784e-10
1.29611e-05
-1.15319e-10
1.29611e-05
-9.26132e-11
1.29612e-05
-6.29291e-11
1.29612e-05
-2.90174e-11
1.29612e-05
6.2386e-12
1.29611e-05
4.01972e-11
1.29611e-05
7.0432e-11
1.29611e-05
9.50859e-11
1.2961e-05
1.12697e-10
1.29609e-05
1.22988e-10
1.29609e-05
1.2531e-10
1.29608e-05
1.21079e-10
1.29607e-05
1.0942e-10
1.29607e-05
9.39785e-11
1.29606e-05
7.46216e-11
1.29606e-05
5.33457e-11
1.29606e-05
5.29523e-11
1.29605e-05
3.92024e-11
1.29604e-05
1.33231e-10
1.29603e-05
2.04729e-10
1.29602e-05
2.67742e-10
1.296e-05
3.54936e-10
1.29597e-05
4.32385e-10
1.29595e-05
5.08129e-10
1.29592e-05
4.46576e-10
1.2959e-05
3.9612e-10
1.29588e-05
3.67876e-10
1.29586e-05
3.3486e-10
1.29584e-05
3.01734e-10
1.29583e-05
2.67203e-10
1.29582e-05
2.30542e-10
1.2958e-05
1.92682e-10
1.2958e-05
1.54215e-10
1.29579e-05
1.15853e-10
1.29579e-05
7.84299e-11
1.29578e-05
4.28683e-11
1.29578e-05
1.02349e-11
1.29578e-05
-1.83948e-11
1.29579e-05
-4.2182e-11
1.29579e-05
-6.03944e-11
1.29579e-05
-7.24076e-11
1.2958e-05
-7.79496e-11
1.2958e-05
-7.7166e-11
1.29581e-05
-7.06264e-11
1.29581e-05
-5.92794e-11
1.29581e-05
-4.44282e-11
1.29581e-05
-2.76802e-11
1.29582e-05
-1.0726e-11
1.29582e-05
4.95167e-12
1.29581e-05
1.81911e-11
1.29581e-05
2.8193e-11
1.29581e-05
3.45262e-11
1.29581e-05
3.72301e-11
1.29581e-05
3.66471e-11
1.29581e-05
3.37233e-11
1.2958e-05
2.9051e-11
1.2958e-05
2.44688e-11
1.2958e-05
1.93564e-11
1.2958e-05
1.57009e-11
1.2958e-05
9.11233e-12
1.2958e-05
-7.52379e-12
1.2958e-05
-5.79995e-11
1.29581e-05
-1.1547e-10
1.29582e-05
-1.55858e-10
1.29583e-05
-1.78435e-10
1.29584e-05
-1.66792e-10
1.29585e-05
-1.47687e-10
1.29585e-05
-1.34452e-10
1.29586e-05
-1.26519e-10
1.29587e-05
-1.25296e-10
1.29587e-05
-1.29397e-10
1.29588e-05
-1.39816e-10
1.29589e-05
-1.53427e-10
1.2959e-05
-1.71369e-10
1.29591e-05
-1.91639e-10
1.29592e-05
-1.95225e-10
1.29593e-05
-2.10019e-10
1.29594e-05
-1.40873e-10
1.29594e-05
-7.39269e-11
1.29595e-05
-1.09462e-10
1.29595e-05
-9.94791e-11
1.29596e-05
-6.03695e-11
1.29596e-05
-3.89728e-11
1.29596e-05
-3.49719e-11
1.29596e-05
-4.82123e-11
1.29597e-05
-8.09289e-11
1.29597e-05
-1.26942e-10
1.29598e-05
-1.93539e-10
1.296e-05
-2.61174e-10
1.29602e-05
-3.53772e-10
1.29604e-05
-4.44307e-10
1.29606e-05
-2.62407e-10
1.2961e-05
-9.65377e-10
4.17433e-09
1.86873e-05
7.27054e-09
1.86879e-05
-3.01768e-09
1.86896e-05
-4.94052e-09
1.86909e-05
-3.20303e-09
1.86918e-05
-2.09736e-09
1.86923e-05
-1.21379e-09
1.86926e-05
-5.95143e-10
1.86927e-05
-1.98547e-10
1.86927e-05
6.44638e-11
1.86926e-05
2.32422e-10
1.86924e-05
3.34081e-10
1.86923e-05
3.882e-10
1.86921e-05
4.06289e-10
1.86919e-05
3.96185e-10
1.86918e-05
3.63445e-10
1.86917e-05
3.12526e-10
1.86916e-05
2.47658e-10
1.86915e-05
1.73283e-10
1.86914e-05
9.39847e-11
1.86914e-05
1.40907e-11
1.86915e-05
-6.19398e-11
1.86915e-05
-1.29173e-10
1.86916e-05
-1.82853e-10
1.86917e-05
-2.19236e-10
1.86918e-05
-2.3605e-10
1.86919e-05
-2.32694e-10
1.8692e-05
-2.10257e-10
1.86921e-05
-1.71344e-10
1.86921e-05
-1.19829e-10
1.86922e-05
-6.04619e-11
1.86922e-05
1.7329e-12
1.86921e-05
6.21332e-11
1.86921e-05
1.16542e-10
1.8692e-05
1.61677e-10
1.86919e-05
1.95049e-10
1.86919e-05
2.1605e-10
1.86918e-05
2.23718e-10
1.86917e-05
2.20239e-10
1.86916e-05
2.04391e-10
1.86915e-05
1.82069e-10
1.86914e-05
1.52568e-10
1.86913e-05
1.20915e-10
1.86913e-05
1.18727e-10
1.86912e-05
1.01589e-10
1.86911e-05
2.4669e-10
1.86909e-05
3.67125e-10
1.86907e-05
4.77001e-10
1.86905e-05
6.21586e-10
1.86901e-05
7.55018e-10
1.86898e-05
8.80325e-10
1.86894e-05
7.9557e-10
1.86891e-05
7.13296e-10
1.86888e-05
6.6086e-10
1.86885e-05
6.02679e-10
1.86883e-05
5.43331e-10
1.86881e-05
4.81153e-10
1.86879e-05
4.15204e-10
1.86877e-05
3.46908e-10
1.86876e-05
2.77409e-10
1.86875e-05
2.08037e-10
1.86875e-05
1.40333e-10
1.86874e-05
7.60005e-11
1.86874e-05
1.6943e-11
1.86874e-05
-3.49204e-11
1.86875e-05
-7.80426e-11
1.86875e-05
-1.11129e-10
1.86876e-05
-1.33117e-10
1.86876e-05
-1.43556e-10
1.86877e-05
-1.42719e-10
1.86878e-05
-1.31621e-10
1.86878e-05
-1.11949e-10
1.86879e-05
-8.60082e-11
1.86879e-05
-5.6622e-11
1.86879e-05
-2.67503e-11
1.86879e-05
9.87939e-13
1.86879e-05
2.45419e-11
1.86879e-05
4.24838e-11
1.86879e-05
5.40354e-11
1.86879e-05
5.92158e-11
1.86878e-05
5.86462e-11
1.86878e-05
5.38668e-11
1.86878e-05
4.60686e-11
1.86878e-05
3.81277e-11
1.86878e-05
2.9509e-11
1.86878e-05
2.30401e-11
1.86878e-05
1.23005e-11
1.86878e-05
-1.49807e-11
1.86878e-05
-9.54318e-11
1.86879e-05
-1.89985e-10
1.8688e-05
-2.60197e-10
1.86881e-05
-3.00908e-10
1.86882e-05
-2.87012e-10
1.86883e-05
-2.57763e-10
1.86884e-05
-2.35535e-10
1.86885e-05
-2.21558e-10
1.86886e-05
-2.18225e-10
1.86887e-05
-2.23706e-10
1.86888e-05
-2.39518e-10
1.86889e-05
-2.60859e-10
1.8689e-05
-2.89786e-10
1.86892e-05
-3.21985e-10
1.86893e-05
-3.30491e-10
1.86895e-05
-3.52393e-10
1.86896e-05
-2.46326e-10
1.86896e-05
-1.39109e-10
1.86897e-05
-1.84e-10
1.86898e-05
-1.68472e-10
1.86898e-05
-1.07345e-10
1.86898e-05
-6.96073e-11
1.86899e-05
-6.07833e-11
1.86899e-05
-8.0405e-11
1.869e-05
-1.34286e-10
1.869e-05
-2.08668e-10
1.86902e-05
-3.23224e-10
1.86903e-05
-4.30449e-10
1.86906e-05
-6.01777e-10
1.86909e-05
-7.1984e-10
1.86911e-05
-5.32395e-10
1.86916e-05
-1.41342e-09
6.02393e-09
2.46291e-05
9.47387e-09
2.46295e-05
-3.41515e-09
2.46311e-05
-6.48473e-09
2.46325e-05
-4.59829e-09
2.46335e-05
-3.08921e-09
2.46341e-05
-1.8353e-09
2.46344e-05
-9.3248e-10
2.46346e-05
-3.36059e-10
2.46346e-05
6.42198e-11
2.46345e-05
3.2419e-10
2.46343e-05
4.8479e-10
2.46341e-05
5.73082e-10
2.46339e-05
6.06063e-10
2.46337e-05
5.95345e-10
2.46335e-05
5.4926e-10
2.46334e-05
4.74555e-10
2.46333e-05
3.77659e-10
2.46332e-05
2.65327e-10
2.46331e-05
1.44554e-10
2.46331e-05
2.20269e-11
2.46331e-05
-9.53005e-11
2.46332e-05
-1.99758e-10
2.46333e-05
-2.83968e-10
2.46334e-05
-3.42045e-10
2.46336e-05
-3.70324e-10
2.46337e-05
-3.67674e-10
2.46338e-05
-3.35542e-10
2.46339e-05
-2.77717e-10
2.4634e-05
-1.99954e-10
2.46341e-05
-1.09382e-10
2.46341e-05
-1.36352e-11
2.46341e-05
8.02028e-11
2.4634e-05
1.65742e-10
2.46339e-05
2.3793e-10
2.46338e-05
2.9299e-10
2.46337e-05
3.29834e-10
2.46336e-05
3.47145e-10
2.46335e-05
3.47869e-10
2.46333e-05
3.30563e-10
2.46332e-05
3.03352e-10
2.46331e-05
2.6519e-10
2.4633e-05
2.24167e-10
2.46329e-05
2.2094e-10
2.46328e-05
2.02169e-10
2.46326e-05
4.01451e-10
2.46324e-05
5.77284e-10
2.46322e-05
7.42819e-10
2.46318e-05
9.53791e-10
2.46314e-05
1.15298e-09
2.4631e-05
1.33643e-09
2.46305e-05
1.23386e-09
2.46301e-05
1.11891e-09
2.46298e-05
1.03677e-09
2.46294e-05
9.47311e-10
2.46291e-05
8.54919e-10
2.46288e-05
7.57496e-10
2.46286e-05
6.54069e-10
2.46284e-05
5.46644e-10
2.46282e-05
4.37102e-10
2.46281e-05
3.27621e-10
2.4628e-05
2.20698e-10
2.4628e-05
1.19076e-10
2.4628e-05
2.57517e-11
2.4628e-05
-5.62866e-11
2.46281e-05
-1.24585e-10
2.46281e-05
-1.77133e-10
2.46282e-05
-2.12343e-10
2.46283e-05
-2.29545e-10
2.46284e-05
-2.29179e-10
2.46285e-05
-2.12812e-10
2.46285e-05
-1.83049e-10
2.46286e-05
-1.43438e-10
2.46286e-05
-9.83001e-11
2.46286e-05
-5.21639e-11
2.46287e-05
-9.07793e-12
2.46287e-05
2.77711e-11
2.46286e-05
5.61426e-11
2.46286e-05
7.47923e-11
2.46286e-05
8.36725e-11
2.46286e-05
8.37113e-11
2.46285e-05
7.7141e-11
2.46285e-05
6.58893e-11
2.46285e-05
5.40328e-11
2.46285e-05
4.12749e-11
2.46285e-05
3.13934e-11
2.46285e-05
1.58688e-11
2.46285e-05
-2.32387e-11
2.46285e-05
-1.36134e-10
2.46286e-05
-2.72239e-10
2.46287e-05
-3.78029e-10
2.46289e-05
-4.41992e-10
2.4629e-05
-4.29203e-10
2.46292e-05
-3.90903e-10
2.46293e-05
-3.59094e-10
2.46294e-05
-3.38032e-10
2.46295e-05
-3.31598e-10
2.46296e-05
-3.37745e-10
2.46297e-05
-3.58589e-10
2.46299e-05
-3.87785e-10
2.463e-05
-4.28244e-10
2.46302e-05
-4.73326e-10
2.46303e-05
-4.88032e-10
2.46305e-05
-5.17448e-10
2.46306e-05
-3.73557e-10
2.46307e-05
-2.22949e-10
2.46308e-05
-2.72847e-10
2.46309e-05
-2.49909e-10
2.46309e-05
-1.65521e-10
2.4631e-05
-1.08744e-10
2.4631e-05
-9.2819e-11
2.4631e-05
-1.18564e-10
2.46311e-05
-1.95075e-10
2.46312e-05
-3.02417e-10
2.46313e-05
-4.7017e-10
2.46315e-05
-6.27375e-10
2.46318e-05
-8.84508e-10
2.46321e-05
-1.04429e-09
2.46325e-05
-8.68669e-10
2.46329e-05
-1.86875e-09
7.61251e-09
3.05778e-05
1.12301e-08
3.0578e-05
-3.63788e-09
3.05793e-05
-7.74952e-09
3.05806e-05
-5.92604e-09
3.05816e-05
-4.1146e-09
3.05823e-05
-2.5183e-09
3.05827e-05
-1.32897e-09
3.05829e-05
-5.18213e-10
3.05829e-05
3.53691e-11
3.05828e-05
4.01797e-10
3.05827e-05
6.33235e-10
3.05825e-05
7.64833e-10
3.05823e-05
8.19179e-10
3.0582e-05
8.11818e-10
3.05818e-05
7.54036e-10
3.05817e-05
6.55086e-10
3.05815e-05
5.2384e-10
3.05814e-05
3.69651e-10
3.05814e-05
2.02251e-10
3.05813e-05
3.10908e-11
3.05814e-05
-1.33966e-10
3.05815e-05
-2.82085e-10
3.05816e-05
-4.02779e-10
3.05817e-05
-4.87578e-10
3.05819e-05
-5.31047e-10
3.05821e-05
-5.31261e-10
3.05822e-05
-4.89884e-10
3.05823e-05
-4.11884e-10
3.05824e-05
-3.05021e-10
3.05825e-05
-1.79026e-10
3.05825e-05
-4.44533e-11
3.05825e-05
8.87564e-11
3.05825e-05
2.11647e-10
3.05824e-05
3.17101e-10
3.05823e-05
3.99824e-10
3.05822e-05
4.58071e-10
3.0582e-05
4.90093e-10
3.05819e-05
4.99515e-10
3.05817e-05
4.84749e-10
3.05816e-05
4.56002e-10
3.05814e-05
4.12088e-10
3.05813e-05
3.63929e-10
3.05812e-05
3.61096e-10
3.0581e-05
3.42389e-10
3.05808e-05
5.96135e-10
3.05806e-05
8.29967e-10
3.05802e-05
1.05597e-09
3.05799e-05
1.3384e-09
3.05794e-05
1.60926e-09
3.05789e-05
1.85676e-09
3.05784e-05
1.74311e-09
3.05779e-05
1.5979e-09
3.05775e-05
1.48347e-09
3.0577e-05
1.35855e-09
3.05767e-05
1.22789e-09
3.05763e-05
1.08912e-09
3.05761e-05
9.41442e-10
3.05758e-05
7.8758e-10
3.05756e-05
6.3034e-10
3.05755e-05
4.7298e-10
3.05754e-05
3.19194e-10
3.05753e-05
1.73006e-10
3.05753e-05
3.87374e-11
3.05753e-05
-7.93685e-11
3.05754e-05
-1.77817e-10
3.05755e-05
-2.53769e-10
3.05756e-05
-3.05032e-10
3.05757e-05
-3.30698e-10
3.05758e-05
-3.31393e-10
3.05759e-05
-3.09315e-10
3.05759e-05
-2.68112e-10
3.0576e-05
-2.12748e-10
3.05761e-05
-1.49248e-10
3.05761e-05
-8.39406e-11
3.05761e-05
-2.25338e-11
3.05761e-05
3.0423e-11
3.05761e-05
7.16966e-11
3.05761e-05
9.94525e-11
3.0576e-05
1.1351e-10
3.0576e-05
1.15091e-10
3.0576e-05
1.07164e-10
3.05759e-05
9.24823e-11
3.05759e-05
7.64299e-11
3.05759e-05
5.90873e-11
3.05759e-05
4.52888e-11
3.05759e-05
2.44995e-11
3.05759e-05
-2.69668e-11
3.05759e-05
-1.72986e-10
3.0576e-05
-3.52712e-10
3.05761e-05
-4.97922e-10
3.05763e-05
-5.89571e-10
3.05764e-05
-5.82084e-10
3.05766e-05
-5.37425e-10
3.05767e-05
-4.96961e-10
3.05768e-05
-4.68753e-10
3.0577e-05
-4.58685e-10
3.05771e-05
-4.64823e-10
3.05772e-05
-4.90027e-10
3.05774e-05
-5.26665e-10
3.05775e-05
-5.78476e-10
3.05777e-05
-6.36714e-10
3.05778e-05
-6.58606e-10
3.0578e-05
-6.96163e-10
3.05782e-05
-5.16049e-10
3.05783e-05
-3.22033e-10
3.05784e-05
-3.7353e-10
3.05785e-05
-3.41734e-10
3.05785e-05
-2.34141e-10
3.05786e-05
-1.57193e-10
3.05786e-05
-1.32488e-10
3.05787e-05
-1.63603e-10
3.05787e-05
-2.62725e-10
3.05788e-05
-4.05488e-10
3.0579e-05
-6.28676e-10
3.05792e-05
-8.43394e-10
3.05795e-05
-1.18897e-09
3.05799e-05
-1.40413e-09
3.05803e-05
-1.25593e-09
3.05807e-05
-2.32734e-09
8.80695e-09
3.63032e-05
1.24423e-08
3.63033e-05
-3.76584e-09
3.63043e-05
-8.71028e-09
3.63054e-05
-7.07952e-09
3.63064e-05
-5.08788e-09
3.63071e-05
-3.21596e-09
3.63075e-05
-1.76675e-09
3.63078e-05
-7.45843e-10
3.63078e-05
-3.35649e-11
3.63078e-05
4.48171e-10
3.63077e-05
7.59858e-10
3.63075e-05
9.43392e-10
3.63073e-05
1.02635e-09
3.63071e-05
1.02794e-09
3.63068e-05
9.62316e-10
3.63067e-05
8.41242e-10
3.63065e-05
6.76111e-10
3.63064e-05
4.79008e-10
3.63063e-05
2.62592e-10
3.63063e-05
3.9352e-11
3.63064e-05
-1.77625e-10
3.63065e-05
-3.74016e-10
3.63066e-05
-5.35863e-10
3.63068e-05
-6.51733e-10
3.63069e-05
-7.14068e-10
3.63071e-05
-7.19843e-10
3.63073e-05
-6.70712e-10
3.63075e-05
-5.72691e-10
3.63076e-05
-4.35519e-10
3.63077e-05
-2.71593e-10
3.63077e-05
-9.45383e-11
3.63078e-05
8.25893e-11
3.63077e-05
2.47983e-10
3.63076e-05
3.92216e-10
3.63075e-05
5.08265e-10
3.63074e-05
5.93536e-10
3.63072e-05
6.45725e-10
3.63071e-05
6.68991e-10
3.63069e-05
6.61589e-10
3.63067e-05
6.35597e-10
3.63065e-05
5.89746e-10
3.63064e-05
5.37476e-10
3.63062e-05
5.36827e-10
3.6306e-05
5.19458e-10
3.63058e-05
8.25832e-10
3.63055e-05
1.11707e-09
3.63051e-05
1.4045e-09
3.63047e-05
1.75961e-09
3.63042e-05
2.1044e-09
3.63037e-05
2.41926e-09
3.63031e-05
2.3013e-09
3.63026e-05
2.13023e-09
3.63021e-05
1.98383e-09
3.63016e-05
1.82164e-09
3.63012e-05
1.64959e-09
3.63008e-05
1.46536e-09
3.63005e-05
1.26863e-09
3.63002e-05
1.06299e-09
3.63e-05
8.52382e-10
3.62998e-05
6.41365e-10
3.62997e-05
4.3505e-10
3.62996e-05
2.38942e-10
3.62996e-05
5.8859e-11
3.62996e-05
-9.95734e-11
3.62997e-05
-2.31742e-10
3.62998e-05
-3.33916e-10
3.62999e-05
-4.03266e-10
3.63e-05
-4.38634e-10
3.63001e-05
-4.40841e-10
3.63002e-05
-4.12752e-10
3.63003e-05
-3.59125e-10
3.63004e-05
-2.86436e-10
3.63004e-05
-2.02537e-10
3.63004e-05
-1.15694e-10
3.63005e-05
-3.34348e-11
3.63004e-05
3.81512e-11
3.63004e-05
9.46778e-11
3.63004e-05
1.33594e-10
3.63004e-05
1.54497e-10
3.63003e-05
1.58852e-10
3.63003e-05
1.50352e-10
3.63002e-05
1.32607e-10
3.63002e-05
1.12356e-10
3.63002e-05
9.01682e-11
3.63001e-05
7.20307e-11
3.63001e-05
4.56007e-11
3.63001e-05
-1.83156e-11
3.63001e-05
-1.96962e-10
3.63002e-05
-4.20638e-10
3.63003e-05
-6.07432e-10
3.63004e-05
-7.30347e-10
3.63006e-05
-7.32662e-10
3.63007e-05
-6.8547e-10
3.63009e-05
-6.38676e-10
3.6301e-05
-6.04409e-10
3.63012e-05
-5.90925e-10
3.63013e-05
-5.96766e-10
3.63014e-05
-6.2575e-10
3.63016e-05
-6.69278e-10
3.63017e-05
-7.31997e-10
3.63019e-05
-8.03387e-10
3.63021e-05
-8.33396e-10
3.63022e-05
-8.80247e-10
3.63024e-05
-6.67366e-10
3.63025e-05
-4.32336e-10
3.63026e-05
-4.83799e-10
3.63027e-05
-4.4284e-10
3.63028e-05
-3.13238e-10
3.63029e-05
-2.16449e-10
3.63029e-05
-1.82271e-10
3.6303e-05
-2.17922e-10
3.6303e-05
-3.38831e-10
3.63031e-05
-5.17478e-10
3.63033e-05
-7.96401e-10
3.63035e-05
-1.0724e-09
3.63039e-05
-1.50714e-09
3.63042e-05
-1.78743e-09
3.63047e-05
-1.68188e-09
3.63051e-05
-2.79681e-09
9.55062e-09
4.16724e-05
1.30962e-08
4.16725e-05
-3.8804e-09
4.16732e-05
-9.41708e-09
4.16741e-05
-8.02299e-09
4.1675e-05
-5.95249e-09
4.16757e-05
-3.88471e-09
4.16761e-05
-2.22135e-09
4.16764e-05
-1.01056e-09
4.16765e-05
-1.45224e-10
4.16765e-05
4.53801e-10
4.16764e-05
8.5128e-10
4.16763e-05
1.09357e-09
4.16761e-05
1.21198e-09
4.16759e-05
1.22872e-09
4.16757e-05
1.16042e-09
4.16755e-05
1.02114e-09
4.16754e-05
8.2471e-10
4.16752e-05
5.85934e-10
4.16752e-05
3.20442e-10
4.16752e-05
4.38872e-11
4.16752e-05
-2.27195e-10
4.16753e-05
-4.74743e-10
4.16755e-05
-6.81085e-10
4.16757e-05
-8.31541e-10
4.16759e-05
-9.16115e-10
4.16761e-05
-9.3037e-10
4.16763e-05
-8.75668e-10
4.16765e-05
-7.58854e-10
4.16766e-05
-5.915e-10
4.16767e-05
-3.88604e-10
4.16768e-05
-1.66888e-10
4.16768e-05
5.73558e-11
4.16768e-05
2.69302e-10
4.16767e-05
4.5703e-10
4.16766e-05
6.11595e-10
4.16765e-05
7.29364e-10
4.16763e-05
8.07313e-10
4.16762e-05
8.4995e-10
4.1676e-05
8.55266e-10
4.16758e-05
8.3698e-10
4.16756e-05
7.93653e-10
4.16754e-05
7.40905e-10
4.16752e-05
7.44611e-10
4.16749e-05
7.29671e-10
4.16747e-05
1.08602e-09
4.16744e-05
1.43226e-09
4.1674e-05
1.77936e-09
4.16735e-05
2.20553e-09
4.1673e-05
2.6237e-09
4.16724e-05
3.00701e-09
4.16719e-05
2.89034e-09
4.16713e-05
2.69826e-09
4.16707e-05
2.52206e-09
4.16702e-05
2.32276e-09
4.16698e-05
2.10799e-09
4.16694e-05
1.87597e-09
4.1669e-05
1.62711e-09
4.16687e-05
1.36611e-09
4.16685e-05
1.09825e-09
4.16683e-05
8.29632e-10
4.16681e-05
5.66963e-10
4.16681e-05
3.17389e-10
4.1668e-05
8.83302e-11
4.16681e-05
-1.13133e-10
4.16681e-05
-2.81221e-10
4.16682e-05
-4.11306e-10
4.16683e-05
-4.99928e-10
4.16684e-05
-5.45681e-10
4.16685e-05
-5.49591e-10
4.16686e-05
-5.152e-10
4.16687e-05
-4.4839e-10
4.16688e-05
-3.57182e-10
4.16688e-05
-2.51305e-10
4.16688e-05
-1.41031e-10
4.16688e-05
-3.58027e-11
4.16688e-05
5.66374e-11
4.16688e-05
1.30622e-10
4.16687e-05
1.82758e-10
4.16687e-05
2.12315e-10
4.16686e-05
2.20922e-10
4.16685e-05
2.12945e-10
4.16685e-05
1.92832e-10
4.16684e-05
1.6867e-10
4.16684e-05
1.41596e-10
4.16683e-05
1.18829e-10
4.16683e-05
8.64908e-11
4.16683e-05
1.02573e-11
4.16683e-05
-2.00015e-10
4.16683e-05
-4.67013e-10
4.16684e-05
-6.96347e-10
4.16685e-05
-8.53189e-10
4.16687e-05
-8.69507e-10
4.16688e-05
-8.24009e-10
4.16689e-05
-7.74092e-10
4.16691e-05
-7.35776e-10
4.16692e-05
-7.19848e-10
4.16693e-05
-7.25625e-10
4.16695e-05
-7.58124e-10
4.16696e-05
-8.08118e-10
4.16697e-05
-8.81334e-10
4.16699e-05
-9.65841e-10
4.16701e-05
-1.00493e-09
4.16703e-05
-1.06264e-09
4.16704e-05
-8.21266e-10
4.16705e-05
-5.49018e-10
4.16706e-05
-6.00695e-10
4.16708e-05
-5.51564e-10
4.16708e-05
-4.02035e-10
4.16709e-05
-2.86877e-10
4.1671e-05
-2.43593e-10
4.1671e-05
-2.8335e-10
4.16711e-05
-4.25121e-10
4.16712e-05
-6.38989e-10
4.16714e-05
-9.72928e-10
4.16717e-05
-1.31116e-09
4.1672e-05
-1.83497e-09
4.16724e-05
-2.18609e-09
4.16728e-05
-2.13875e-09
4.16733e-05
-3.28306e-09
9.84799e-09
4.66707e-05
1.32212e-08
4.66709e-05
-4.05227e-09
4.66714e-05
-9.95284e-09
4.66722e-05
-8.77596e-09
4.66729e-05
-6.68794e-09
4.66735e-05
-4.49379e-09
4.6674e-05
-2.66705e-09
4.66742e-05
-1.29623e-09
4.66744e-05
-2.9234e-10
4.66744e-05
4.19126e-10
4.66744e-05
9.03189e-10
4.66743e-05
1.20802e-09
4.66741e-05
1.36706e-09
4.66739e-05
1.40445e-09
4.66737e-05
1.3387e-09
4.66736e-05
1.1858e-09
4.66734e-05
9.61743e-10
4.66734e-05
6.83906e-10
4.66733e-05
3.70807e-10
4.66733e-05
4.12644e-11
4.66734e-05
-2.84612e-10
4.66735e-05
-5.84844e-10
4.66736e-05
-8.37891e-10
4.66738e-05
-1.02563e-09
4.6674e-05
-1.13537e-09
4.66743e-05
-1.16096e-09
4.66745e-05
-1.1032e-09
4.66747e-05
-9.69475e-10
4.66749e-05
-7.72979e-10
4.6675e-05
-5.31154e-10
4.66751e-05
-2.63748e-10
4.66752e-05
9.68997e-12
4.66752e-05
2.71251e-10
4.66751e-05
5.0641e-10
4.6675e-05
7.04151e-10
4.66749e-05
8.59615e-10
4.66747e-05
9.68883e-10
4.66746e-05
1.0366e-09
4.66743e-05
1.06034e-09
4.66741e-05
1.05519e-09
4.66739e-05
1.01936e-09
4.66737e-05
9.70332e-10
4.66734e-05
9.81085e-10
4.66732e-05
9.69914e-10
4.66729e-05
1.37398e-09
4.66726e-05
1.77234e-09
4.66722e-05
2.17611e-09
4.66717e-05
2.67018e-09
4.66712e-05
3.15949e-09
4.66706e-05
3.61061e-09
4.667e-05
3.4989e-09
4.66694e-05
3.28987e-09
4.66688e-05
3.08659e-09
4.66683e-05
2.85137e-09
4.66678e-05
2.59371e-09
4.66674e-05
2.3127e-09
4.6667e-05
2.00978e-09
4.66666e-05
1.69101e-09
4.66664e-05
1.36328e-09
4.66662e-05
1.03439e-09
4.6666e-05
7.12875e-10
4.66659e-05
4.07624e-10
4.66659e-05
1.27717e-10
4.66659e-05
-1.1829e-10
4.66659e-05
-3.23436e-10
4.6666e-05
-4.82214e-10
4.66661e-05
-5.90574e-10
4.66662e-05
-6.46889e-10
4.66663e-05
-6.524e-10
4.66664e-05
-6.11319e-10
4.66665e-05
-5.30647e-10
4.66666e-05
-4.19939e-10
4.66666e-05
-2.90803e-10
4.66666e-05
-1.55535e-10
4.66666e-05
-2.55335e-11
4.66666e-05
8.97451e-11
4.66665e-05
1.83258e-10
4.66664e-05
2.50656e-10
4.66664e-05
2.90775e-10
4.66663e-05
3.05312e-10
4.66662e-05
2.99222e-10
4.66661e-05
2.7774e-10
4.6666e-05
2.50259e-10
4.6666e-05
2.18524e-10
4.66659e-05
1.91048e-10
4.66658e-05
1.52698e-10
4.66658e-05
6.43945e-11
4.66657e-05
-1.76446e-10
4.66658e-05
-4.8581e-10
4.66658e-05
-7.57923e-10
4.66659e-05
-9.50509e-10
4.6666e-05
-9.84302e-10
4.66662e-05
-9.44442e-10
4.66663e-05
-8.94826e-10
4.66664e-05
-8.54943e-10
4.66665e-05
-8.38053e-10
4.66666e-05
-8.44435e-10
4.66667e-05
-8.80527e-10
4.66669e-05
-9.36782e-10
4.6667e-05
-1.02024e-09
4.66672e-05
-1.1179e-09
4.66673e-05
-1.16704e-09
4.66675e-05
-1.23737e-09
4.66677e-05
-9.71684e-10
4.66678e-05
-6.66451e-10
4.66679e-05
-7.20072e-10
4.6668e-05
-6.64837e-10
4.66681e-05
-4.98054e-10
4.66682e-05
-3.66772e-10
4.66683e-05
-3.15672e-10
4.66683e-05
-3.59793e-10
4.66684e-05
-5.21927e-10
4.66686e-05
-7.70136e-10
4.66687e-05
-1.1581e-09
4.6669e-05
-1.5581e-09
4.66693e-05
-2.17061e-09
4.66697e-05
-2.5953e-09
4.66702e-05
-2.62248e-09
4.66707e-05
-3.78703e-09
9.74021e-09
5.13473e-05
1.28661e-08
5.13476e-05
-4.32948e-09
5.13481e-05
-1.03983e-08
5.13487e-05
-9.38539e-09
5.13493e-05
-7.30316e-09
5.13498e-05
-5.03048e-09
5.13502e-05
-3.08457e-09
5.13505e-05
-1.58549e-09
5.13507e-05
-4.62483e-10
5.13508e-05
3.51374e-10
5.13508e-05
9.18334e-10
5.13507e-05
1.28606e-09
5.13506e-05
1.48842e-09
5.13504e-05
1.5504e-09
5.13503e-05
1.49158e-09
5.13501e-05
1.32935e-09
5.135e-05
1.08153e-09
5.13499e-05
7.67791e-10
5.13499e-05
4.09354e-10
5.13499e-05
2.80975e-11
5.13499e-05
-3.52251e-10
5.13501e-05
-7.057e-10
5.13502e-05
-1.00677e-09
5.13504e-05
-1.23375e-09
5.13507e-05
-1.37108e-09
5.13509e-05
-1.41066e-09
5.13512e-05
-1.3524e-09
5.13514e-05
-1.20398e-09
5.13516e-05
-9.79946e-10
5.13518e-05
-6.99981e-10
5.13519e-05
-3.86711e-10
5.1352e-05
-6.28912e-11
5.1352e-05
2.50494e-10
5.1352e-05
5.36289e-10
5.13519e-05
7.813e-10
5.13518e-05
9.79289e-10
5.13516e-05
1.12526e-09
5.13514e-05
1.2238e-09
5.13512e-05
1.27182e-09
5.1351e-05
1.28557e-09
5.13508e-05
1.26261e-09
5.13505e-05
1.22197e-09
5.13502e-05
1.24302e-09
5.135e-05
1.23742e-09
5.13497e-05
1.68798e-09
5.13493e-05
2.13605e-09
5.13489e-05
2.59328e-09
5.13484e-05
3.15159e-09
5.13478e-05
3.70903e-09
5.13472e-05
4.22627e-09
5.13466e-05
4.12118e-09
5.1346e-05
3.89784e-09
5.13454e-05
3.66979e-09
5.13449e-05
3.39999e-09
5.13444e-05
3.0997e-09
5.13439e-05
2.76902e-09
5.13435e-05
2.41068e-09
5.13432e-05
2.0324e-09
5.13429e-05
1.64289e-09
5.13427e-05
1.25192e-09
5.13425e-05
8.69964e-10
5.13424e-05
5.07763e-10
5.13424e-05
1.7607e-10
5.13424e-05
-1.15107e-10
5.13424e-05
-3.57646e-10
5.13425e-05
-5.45201e-10
5.13425e-05
-6.73187e-10
5.13426e-05
-7.39801e-10
5.13427e-05
-7.46516e-10
5.13428e-05
-6.98211e-10
5.13429e-05
-6.02981e-10
5.13429e-05
-4.71887e-10
5.1343e-05
-3.18384e-10
5.1343e-05
-1.56779e-10
5.13429e-05
-4.24072e-13
5.13429e-05
1.39492e-10
5.13428e-05
2.54485e-10
5.13427e-05
3.39153e-10
5.13426e-05
3.91799e-10
5.13425e-05
4.14091e-10
5.13424e-05
4.11475e-10
5.13423e-05
3.89899e-10
5.13422e-05
3.59992e-10
5.13421e-05
3.24114e-10
5.1342e-05
2.92122e-10
5.13419e-05
2.47878e-10
5.13418e-05
1.47863e-10
5.13417e-05
-1.22606e-10
5.13417e-05
-4.73408e-10
5.13418e-05
-7.88197e-10
5.13418e-05
-1.01769e-09
5.13419e-05
-1.07156e-09
5.1342e-05
-1.0406e-09
5.13421e-05
-9.94405e-10
5.13422e-05
-9.55437e-10
5.13423e-05
-9.3924e-10
5.13424e-05
-9.47134e-10
5.13425e-05
-9.8714e-10
5.13426e-05
-1.04966e-09
5.13428e-05
-1.14331e-09
5.13429e-05
-1.25427e-09
5.1343e-05
-1.31447e-09
5.13432e-05
-1.39924e-09
5.13433e-05
-1.11289e-09
5.13435e-05
-7.78722e-10
5.13436e-05
-8.3696e-10
5.13437e-05
-7.78419e-10
5.13438e-05
-5.97414e-10
5.13439e-05
-4.52731e-10
5.1344e-05
-3.95794e-10
5.1344e-05
-4.4527e-10
5.13441e-05
-6.27924e-10
5.13443e-05
-9.09952e-10
5.13445e-05
-1.35116e-09
5.13447e-05
-1.81207e-09
5.13451e-05
-2.51301e-09
5.13455e-05
-3.01224e-09
5.1346e-05
-3.13097e-09
5.13465e-05
-4.30766e-09
9.28005e-09
5.57676e-05
1.2085e-08
5.57681e-05
-4.73662e-09
5.57685e-05
-1.08149e-08
5.5769e-05
-9.90254e-09
5.57695e-05
-7.82352e-09
5.577e-05
-5.49811e-09
5.57704e-05
-3.46502e-09
5.57706e-05
-1.86542e-09
5.57708e-05
-6.43358e-10
5.57709e-05
2.60157e-10
5.57709e-05
9.0311e-10
5.57709e-05