/*--------------------------------*- C++ -*----------------------------------*\
  =========                 |
  \\      /  F ield         | OpenFOAM: The Open Source CFD Toolbox
   \\    /   O peration     | Website:  https://openfoam.org
    \\  /    A nd           | Version:  7
     \\/     M anipulation  |
\*---------------------------------------------------------------------------*/
FoamFile
{
    version     2.0;
    format      ascii;
    class       volVectorField;
    location    "500";
    object      U;
}
// * * * * * * * * * * * * * * * * * * * * * * * * * * * * * * * * * * * * * //

dimensions      [0 1 -1 0 0 0 0];

internalField   nonuniform List<vector> 
24000
(
(0.0048254 1.7359e-08 3.18548e-17)
(0.00482518 -2.05268e-08 2.10256e-17)
(0.00482687 -6.04016e-09 2.63076e-17)
(0.00482734 -2.48535e-09 -4.25954e-17)
(0.0048277 -2.15597e-09 -3.35942e-16)
(0.00482792 -8.09964e-10 -5.41174e-17)
(0.00482801 -3.14309e-10 -3.17518e-16)
(0.00482805 -6.88506e-12 -4.70385e-17)
(0.00482805 2.00493e-10 3.97641e-19)
(0.00482802 3.08964e-10 -3.23948e-16)
(0.00482797 3.67412e-10 -3.62014e-17)
(0.00482792 3.9057e-10 -2.09706e-17)
(0.00482786 3.88244e-10 -1.70823e-17)
(0.00482781 3.67317e-10 -3.59516e-17)
(0.00482775 3.31787e-10 -6.88386e-17)
(0.00482771 2.84523e-10 -1.40511e-17)
(0.00482767 2.28388e-10 -2.66715e-17)
(0.00482764 1.66412e-10 -3.06655e-17)
(0.00482763 1.02324e-10 -5.26313e-17)
(0.00482762 3.92866e-11 -1.00724e-16)
(0.00482762 -2.05035e-11 -3.3515e-17)
(0.00482763 -7.39542e-11 -7.12563e-17)
(0.00482765 -1.16977e-10 -5.97318e-17)
(0.00482768 -1.46507e-10 -8.44899e-17)
(0.00482771 -1.60596e-10 -1.43599e-16)
(0.00482773 -1.58667e-10 -6.63509e-17)
(0.00482776 -1.41664e-10 -8.33238e-17)
(0.00482778 -1.11577e-10 -7.05931e-17)
(0.0048278 -7.174e-11 -8.66154e-17)
(0.00482781 -2.59641e-11 -1.43785e-16)
(0.00482781 2.11275e-11 -6.32448e-17)
(0.0048278 6.58765e-11 -6.57134e-17)
(0.00482779 1.03493e-10 -6.23162e-17)
(0.00482777 1.32032e-10 -7.99798e-17)
(0.00482774 1.46636e-10 -1.32701e-16)
(0.00482771 1.49133e-10 -6.91045e-17)
(0.00482769 1.35048e-10 -7.68672e-17)
(0.00482766 1.08217e-10 -6.73242e-17)
(0.00482764 7.03238e-11 -9.28724e-17)
(0.00482762 1.0395e-11 -1.3125e-16)
(0.00482761 -1.6848e-11 -1.06264e-16)
(0.0048276 -1.30567e-10 4.8587e-17)
(0.0048276 -2.57181e-11 -6.3537e-17)
(0.0048276 -2.09299e-10 -6.9156e-17)
(0.00482759 2.16172e-10 -6.27761e-17)
(0.00482755 2.79713e-10 -5.3022e-17)
(0.0048275 3.41389e-10 1.06345e-16)
(0.00482743 5.82306e-10 -4.01715e-17)
(0.00482734 6.22466e-10 -4.94246e-17)
(0.00482723 9.00682e-10 -4.37426e-17)
(0.00482711 4.93006e-10 -3.6231e-17)
(0.00482703 4.78277e-10 8.86844e-17)
(0.00482694 4.70109e-10 -3.15995e-17)
(0.00482687 4.16586e-10 1.1016e-16)
(0.0048268 3.85108e-10 -7.24859e-17)
(0.00482674 3.45854e-10 -1.88835e-17)
(0.00482669 3.02644e-10 1.79228e-16)
(0.00482664 2.58412e-10 -1.95959e-17)
(0.0048266 2.12565e-10 1.97913e-16)
(0.00482657 1.66113e-10 -1.12528e-16)
(0.00482655 1.19969e-10 -1.35123e-17)
(0.00482654 7.505e-11 1.36854e-16)
(0.00482653 3.29937e-11 -6.45864e-18)
(0.00482653 -4.51195e-12 1.20648e-16)
(0.00482654 -3.67529e-11 -7.64552e-17)
(0.00482655 -6.25215e-11 1.27983e-18)
(0.00482656 -8.03688e-11 2.16949e-16)
(0.00482658 -8.95603e-11 -1.5141e-18)
(0.0048266 -8.9915e-11 1.51081e-16)
(0.00482661 -8.1949e-11 -6.48425e-17)
(0.00482662 -6.66386e-11 8.62282e-18)
(0.00482663 -4.54099e-11 1.58945e-16)
(0.00482664 -2.04727e-11 6.61525e-18)
(0.00482664 5.46867e-12 1.33529e-16)
(0.00482664 3.01525e-11 -5.1388e-17)
(0.00482664 5.15182e-11 1.53292e-17)
(0.00482663 6.86289e-11 2.34885e-16)
(0.00482662 8.00473e-11 1.40428e-17)
(0.00482661 8.67635e-11 1.35442e-16)
(0.0048266 8.69084e-11 -2.1141e-17)
(0.00482659 8.55666e-11 -2.28728e-16)
(0.00482658 7.70434e-11 -7.65726e-17)
(0.00482657 7.49067e-11 1.81318e-17)
(0.00482657 6.16704e-11 -2.09957e-16)
(0.00482656 6.32195e-11 -8.87494e-17)
(0.00482656 3.91627e-11 -2.22252e-16)
(0.00482655 1.28308e-11 -4.93563e-17)
(0.00482656 -1.35519e-10 9.26338e-18)
(0.00482658 -2.57872e-10 -2.22141e-16)
(0.00482662 -2.98445e-10 -6.7692e-17)
(0.00482666 -3.36766e-10 -2.99954e-16)
(0.00482671 -2.54459e-10 -6.68647e-17)
(0.00482674 -2.10614e-10 4.73375e-18)
(0.00482677 -1.94235e-10 -2.2594e-16)
(0.0048268 -1.84395e-10 -1.09719e-16)
(0.00482683 -1.94403e-10 -2.28537e-16)
(0.00482686 -2.11965e-10 -7.2581e-17)
(0.00482689 -2.42133e-10 5.88033e-18)
(0.00482693 -2.83036e-10 -2.33563e-16)
(0.00482697 -3.08129e-10 -1.3311e-16)
(0.00482701 -3.88177e-10 -1.8318e-16)
(0.00482706 -3.16988e-10 -1.02139e-16)
(0.00482711 -4.28833e-10 8.37866e-18)
(0.00482716 -1.56484e-10 -2.72329e-16)
(0.00482717 4.24359e-11 -1.25809e-16)
(0.00482719 -2.71262e-10 -1.92238e-16)
(0.00482722 -1.59074e-10 -5.56045e-17)
(0.00482724 -4.36748e-11 1.3748e-17)
(0.00482725 -4.76197e-11 -2.84542e-16)
(0.00482725 -2.89162e-11 -4.32441e-17)
(0.00482727 -1.13686e-10 -1.67894e-16)
(0.00482728 -1.02209e-10 -1.91012e-16)
(0.00482731 -3.68883e-10 1.36628e-18)
(0.00482733 -1.64915e-10 -2.36115e-16)
(0.00482743 -9.54963e-10 -5.09758e-17)
(0.00482743 1.77257e-10 -1.5155e-16)
(0.00482768 -2.5336e-09 -2.42864e-16)
(0.00482751 2.83317e-09 1.07978e-17)
(0.00482801 -7.28724e-09 -1.39856e-16)
(0.00482774 1.87544e-08 -3.38127e-17)
(0.0145447 1.49235e-07 9.95009e-17)
(0.0145436 -1.05583e-07 6.17156e-17)
(0.0145472 -9.38351e-08 7.79231e-17)
(0.0145487 -4.43149e-08 -1.36665e-16)
(0.0145497 -3.00032e-08 -7.69718e-16)
(0.0145503 -1.58196e-08 -1.50738e-16)
(0.0145506 -6.90469e-09 -7.04483e-16)
(0.0145507 -1.68232e-09 -1.29785e-16)
(0.0145507 1.77887e-09 1.27348e-19)
(0.0145506 3.86704e-09 -6.64143e-16)
(0.0145505 5.05853e-09 -9.99234e-17)
(0.0145504 5.63043e-09 -6.47369e-17)
(0.0145502 5.74e-09 -5.17894e-17)
(0.0145501 5.497e-09 -1.09377e-16)
(0.0145499 4.97562e-09 -2.13429e-16)
(0.0145498 4.23381e-09 -3.72071e-17)
(0.0145497 3.32702e-09 -8.02619e-17)
(0.0145496 2.31366e-09 -9.31005e-17)
(0.0145495 1.25485e-09 -1.6016e-16)
(0.0145495 2.0628e-10 -3.14149e-16)
(0.0145495 -7.78317e-10 -9.91976e-17)
(0.0145496 -1.63774e-09 -2.168e-16)
(0.0145496 -2.30997e-09 -1.78721e-16)
(0.0145497 -2.74795e-09 -2.51246e-16)
(0.0145498 -2.92474e-09 -4.30835e-16)
(0.0145499 -2.83607e-09 -1.90837e-16)
(0.01455 -2.50033e-09 -2.49205e-16)
(0.01455 -1.95544e-09 -2.13048e-16)
(0.0145501 -1.25616e-09 -2.63085e-16)
(0.0145501 -4.6776e-10 -4.40426e-16)
(0.0145501 3.41528e-10 -1.95721e-16)
(0.0145501 1.10993e-09 -1.98871e-16)
(0.01455 1.77831e-09 -1.87534e-16)
(0.01455 2.30468e-09 -2.40305e-16)
(0.0145499 2.65061e-09 -4.0638e-16)
(0.0145498 2.81466e-09 -2.08442e-16)
(0.0145498 2.77366e-09 -2.3134e-16)
(0.0145497 2.57024e-09 -2.04073e-16)
(0.0145496 2.17709e-09 -2.8348e-16)
(0.0145495 1.68012e-09 -3.97394e-16)
(0.0145495 1.13135e-09 -3.20273e-16)
(0.0145495 4.39314e-10 -2.12085e-16)
(0.0145494 5.78385e-10 -1.98861e-16)
(0.0145494 -4.87978e-11 -2.07743e-16)
(0.0145494 2.93977e-09 -1.88971e-16)
(0.0145493 4.65553e-09 -1.58804e-16)
(0.0145491 6.08947e-09 -8.87406e-17)
(0.0145489 8.43424e-09 -1.29384e-16)
(0.0145487 1.02171e-08 -1.48606e-16)
(0.0145483 1.22939e-08 -1.32102e-16)
(0.014548 9.94234e-09 -1.08204e-16)
(0.0145478 8.71117e-09 -7.818e-17)
(0.0145475 8.19498e-09 -1.00016e-16)
(0.0145473 7.41799e-09 -4.8302e-17)
(0.0145471 6.69054e-09 -2.13322e-16)
(0.0145469 5.93219e-09 -5.21072e-17)
(0.0145467 5.12084e-09 -2.30361e-17)
(0.0145466 4.28759e-09 -6.52934e-17)
(0.0145465 3.44185e-09 1.27439e-17)
(0.0145464 2.5986e-09 -3.57347e-16)
(0.0145464 1.7757e-09 -3.71272e-17)
(0.0145463 9.92598e-10 3.387e-17)
(0.0145463 2.73951e-10 -2.48244e-17)
(0.0145463 -3.55776e-10 9.85875e-18)
(0.0145463 -8.79301e-10 -3.42861e-16)
(0.0145464 -1.27952e-09 8.42031e-18)
(0.0145464 -1.54049e-09 4.82168e-17)
(0.0145464 -1.65514e-09 -1.02605e-17)
(0.0145465 -1.62622e-09 4.78291e-17)
(0.0145465 -1.46643e-09 -1.28674e-16)
(0.0145466 -1.19697e-09 2.82757e-17)
(0.0145466 -8.47448e-10 7.57772e-17)
(0.0145466 -4.55221e-10 1.33781e-17)
(0.0145466 -6.00385e-11 4.86796e-17)
(0.0145466 3.03803e-10 -1.21282e-16)
(0.0145466 6.08925e-10 4.83583e-17)
(0.0145466 8.37659e-10 1.07465e-16)
(0.0145466 9.79577e-10 3.72329e-17)
(0.0145466 1.0375e-09 6.27094e-17)
(0.0145465 1.01672e-09 -1.76736e-17)
(0.0145465 9.45342e-10 -1.01932e-16)
(0.0145465 8.27511e-10 -1.39154e-16)
(0.0145465 7.2448e-10 5.41057e-17)
(0.0145465 5.92677e-10 -1.86229e-16)
(0.0145465 5.1584e-10 -3.29091e-16)
(0.0145464 3.27782e-10 -2.24225e-16)
(0.0145464 -1.14927e-10 -1.14294e-16)
(0.0145465 -1.56765e-09 2.87594e-17)
(0.0145465 -3.08176e-09 -2.2942e-16)
(0.0145466 -3.99992e-09 -3.56234e-16)
(0.0145467 -4.49244e-09 -2.39665e-16)
(0.0145468 -3.99357e-09 -3.4939e-16)
(0.0145469 -3.4414e-09 1.25301e-17)
(0.014547 -3.12778e-09 -2.21017e-16)
(0.0145471 -2.95252e-09 -3.34877e-16)
(0.0145472 -2.96731e-09 -2.33059e-16)
(0.0145473 -3.11566e-09 -1.3834e-16)
(0.0145474 -3.43113e-09 1.79171e-17)
(0.0145475 -3.82443e-09 -2.23726e-16)
(0.0145476 -4.30041e-09 -4.07721e-16)
(0.0145477 -4.89114e-09 -2.03059e-16)
(0.0145478 -4.8406e-09 -1.20107e-16)
(0.014548 -5.36181e-09 2.97518e-17)
(0.0145481 -3.18114e-09 -1.88616e-16)
(0.0145481 -1.31307e-09 -3.8637e-16)
(0.0145482 -2.86944e-09 -2.18442e-16)
(0.0145483 -2.45587e-09 -8.89518e-17)
(0.0145483 -1.29133e-09 4.47957e-17)
(0.0145484 -8.57947e-10 -2.01037e-16)
(0.0145484 -8.08707e-10 -2.66615e-16)
(0.0145484 -1.26459e-09 -1.5198e-16)
(0.0145484 -2.06553e-09 -2.16485e-16)
(0.0145485 -3.46128e-09 9.32684e-18)
(0.0145486 -4.81309e-09 -1.24231e-16)
(0.0145488 -7.25012e-09 -1.07576e-16)
(0.0145489 -8.1161e-09 -1.08535e-16)
(0.0145495 -1.33936e-08 -1.73546e-16)
(0.0145491 -1.51678e-09 3.67948e-17)
(0.0145503 -3.44056e-08 -7.92766e-17)
(0.0145497 1.43342e-07 -2.60573e-16)
(0.0244318 3.60308e-07 1.9167e-16)
(0.0244297 -2.01392e-07 9.34038e-17)
(0.0244339 -2.38839e-07 1.25091e-16)
(0.0244362 -1.29739e-07 -2.776e-16)
(0.0244377 -8.41177e-08 -5.38019e-16)
(0.0244387 -4.65481e-08 -1.90889e-16)
(0.0244392 -2.1401e-08 -4.21291e-16)
(0.0244394 -6.09582e-09 -1.52242e-16)
(0.0244394 3.97318e-09 -1.20872e-17)
(0.0244393 1.02182e-08 -3.85646e-16)
(0.0244391 1.38707e-08 -9.6238e-17)
(0.0244389 1.57069e-08 -1.1881e-16)
(0.0244387 1.61814e-08 -8.83063e-17)
(0.0244384 1.56059e-08 -1.91971e-16)
(0.0244382 1.41963e-08 -3.84945e-16)
(0.024438 1.21235e-08 -4.9267e-17)
(0.0244378 9.54956e-09 -1.40151e-16)
(0.0244377 6.64517e-09 -1.59327e-16)
(0.0244376 3.58684e-09 -2.79879e-16)
(0.0244376 5.37992e-10 -5.69855e-16)
(0.0244376 -2.33788e-09 -1.39837e-16)
(0.0244377 -4.85799e-09 -3.89782e-16)
(0.0244378 -6.84256e-09 -2.93391e-16)
(0.0244379 -8.15289e-09 -4.13887e-16)
(0.024438 -8.70819e-09 -7.17143e-16)
(0.0244382 -8.49274e-09 -2.72765e-16)
(0.0244383 -7.55589e-09 -4.28469e-16)
(0.0244384 -6.00431e-09 -3.53823e-16)
(0.0244385 -3.99289e-09 -4.52151e-16)
(0.0244386 -1.70845e-09 -7.69463e-16)
(0.0244386 6.53901e-10 -3.29368e-16)
(0.0244385 2.91618e-09 -3.39845e-16)
(0.0244385 4.91319e-09 -3.13172e-16)
(0.0244384 6.52086e-09 -4.08443e-16)
(0.0244383 7.63804e-09 -7.14561e-16)
(0.0244382 8.2502e-09 -3.42938e-16)
(0.024438 8.30756e-09 -3.91745e-16)
(0.0244379 7.91454e-09 -3.43099e-16)
(0.0244378 7.00383e-09 -4.88475e-16)
(0.0244377 5.83094e-09 -6.72833e-16)
(0.0244376 4.41444e-09 -5.27198e-16)
(0.0244375 2.81453e-09 -4.87157e-16)
(0.0244374 2.87661e-09 -3.42656e-16)
(0.0244374 1.72531e-09 -3.49452e-16)
(0.0244373 8.73343e-09 -3.13955e-16)
(0.0244371 1.36459e-08 -2.62489e-16)
(0.0244369 1.78836e-08 -3.12558e-16)
(0.0244365 2.40205e-08 -2.2684e-16)
(0.0244361 2.92653e-08 -2.5114e-16)
(0.0244356 3.45946e-08 -2.2012e-16)
(0.0244351 2.96603e-08 -1.78385e-16)
(0.0244347 2.61409e-08 -2.48683e-16)
(0.0244343 2.43539e-08 -1.71538e-16)
(0.0244339 2.21338e-08 -2.28838e-16)
(0.0244336 1.99412e-08 -1.40508e-17)
(0.0244333 1.76609e-08 -6.3563e-17)
(0.024433 1.52359e-08 -1.7436e-16)
(0.0244328 1.27363e-08 -1.17819e-16)
(0.0244326 1.01988e-08 -1.31622e-16)
(0.0244324 7.66941e-09 -2.55053e-17)
(0.0244323 5.20241e-09 -1.74072e-17)
(0.0244323 2.85786e-09 -1.00068e-16)
(0.0244323 7.07012e-10 -4.96965e-17)
(0.0244323 -1.17842e-09 -1.11734e-16)
(0.0244323 -2.74411e-09 6.16459e-17)
(0.0244324 -3.94097e-09 4.4228e-17)
(0.0244324 -4.72588e-09 -7.6702e-17)
(0.0244325 -5.07997e-09 -2.32143e-17)
(0.0244326 -5.01264e-09 -8.03949e-17)
(0.0244327 -4.56181e-09 1.08887e-16)
(0.0244327 -3.7908e-09 7.69199e-17)
(0.0244328 -2.78678e-09 -3.46326e-17)
(0.0244328 -1.65792e-09 1.5223e-17)
(0.0244329 -5.18306e-10 -4.76032e-17)
(0.0244329 5.32669e-10 1.38035e-16)
(0.0244329 1.417e-09 1.03658e-16)
(0.0244328 2.08181e-09 2.02607e-17)
(0.0244328 2.49834e-09 5.65558e-17)
(0.0244328 2.67091e-09 -1.69658e-17)
(0.0244327 2.62126e-09 2.31419e-16)
(0.0244327 2.41746e-09 -1.94206e-17)
(0.0244327 2.09318e-09 1.20955e-16)
(0.0244327 1.78514e-09 1.16731e-16)
(0.0244326 1.43068e-09 -1.5022e-16)
(0.0244326 1.18906e-09 2.01357e-17)
(0.0244326 7.16468e-10 -1.74853e-16)
(0.0244326 -4.64363e-10 2.62269e-16)
(0.0244326 -4.11845e-09 6.19755e-17)
(0.0244327 -8.16151e-09 -2.16793e-16)
(0.0244329 -1.0874e-08 1.31088e-17)
(0.024433 -1.23514e-08 -1.93428e-16)
(0.0244332 -1.13571e-08 1.92334e-16)
(0.0244334 -9.95553e-09 3.07918e-17)
(0.0244335 -9.04927e-09 -1.9359e-16)
(0.0244336 -8.5233e-09 -1.15255e-17)
(0.0244338 -8.48066e-09 -1.73878e-16)
(0.0244339 -8.8085e-09 3.18571e-17)
(0.024434 -9.58174e-09 4.73735e-17)
(0.0244342 -1.05711e-08 -1.91731e-16)
(0.0244344 -1.18454e-08 5.65943e-17)
(0.0244345 -1.33099e-08 -2.07548e-16)
(0.0244347 -1.34569e-08 3.14605e-17)
(0.0244349 -1.45816e-08 9.19988e-17)
(0.0244351 -9.41921e-09 -1.65129e-16)
(0.0244352 -4.63057e-09 7.63767e-17)
(0.0244353 -7.63015e-09 -2.11226e-16)
(0.0244354 -6.83987e-09 1.01317e-16)
(0.0244355 -3.97296e-09 9.51048e-17)
(0.0244356 -2.56805e-09 -1.65596e-16)
(0.0244356 -2.35568e-09 8.73153e-17)
(0.0244356 -3.37165e-09 -1.32074e-16)
(0.0244357 -5.65784e-09 -2.33415e-16)
(0.0244358 -8.99014e-09 3.77464e-17)
(0.0244359 -1.34487e-08 -7.8203e-17)
(0.0244363 -1.8516e-08 1.52023e-16)
(0.0244363 -2.41365e-08 -5.78753e-17)
(0.0244372 -3.20626e-08 -1.7014e-16)
(0.0244368 -1.47311e-08 8.03352e-17)
(0.0244384 -7.39714e-08 -3.34559e-17)
(0.0244376 3.22198e-07 2.06992e-16)
(0.0344235 6.07453e-07 2.74951e-16)
(0.0344208 -2.78602e-07 1.09104e-16)
(0.0344247 -4.11428e-07 1.60603e-16)
(0.0344275 -2.50795e-07 -3.6289e-16)
(0.0344294 -1.62047e-07 -4.20128e-16)
(0.0344307 -9.2221e-08 -1.63414e-16)
(0.0344314 -4.41037e-08 -2.57484e-16)
(0.0344317 -1.38497e-08 -1.10177e-16)
(0.0344317 6.09235e-09 -3.51526e-17)
(0.0344316 1.86882e-08 -1.91168e-16)
(0.0344314 2.62076e-08 -3.23183e-17)
(0.0344311 3.01202e-08 -1.87825e-16)
(0.0344308 3.13128e-08 -1.24165e-16)
(0.0344305 3.03891e-08 -2.9931e-16)
(0.0344302 2.77745e-08 -6.25015e-16)
(0.0344299 2.38077e-08 -1.2268e-16)
(0.0344297 1.88106e-08 -2.30452e-16)
(0.0344295 1.31208e-08 -2.29412e-16)
(0.0344294 7.0867e-09 -4.31291e-16)
(0.0344294 1.03452e-09 -6.6942e-16)
(0.0344294 -4.70215e-09 -2.55597e-16)
(0.0344295 -9.75309e-09 -6.90555e-16)
(0.0344296 -1.37603e-08 -3.92153e-16)
(0.0344298 -1.64446e-08 -5.59865e-16)
(0.03443 -1.76394e-08 -9.49028e-16)
(0.0344302 -1.7306e-08 -3.83837e-16)
(0.0344304 -1.55338e-08 -5.44256e-16)
(0.0344305 -1.25268e-08 -4.82748e-16)
(0.0344306 -8.5842e-09 -7.96332e-16)
(0.0344307 -4.07074e-09 -1.00634e-15)
(0.0344308 6.30592e-10 -4.4715e-16)
(0.0344307 5.16923e-09 -5.02255e-16)
(0.0344307 9.22507e-09 -4.32846e-16)
(0.0344306 1.25506e-08 -7.60037e-16)
(0.0344304 1.49548e-08 -9.51943e-16)
(0.0344303 1.63975e-08 -4.59114e-16)
(0.0344301 1.67992e-08 -5.73096e-16)
(0.0344299 1.63399e-08 -4.79165e-16)
(0.0344297 1.49119e-08 -8.48299e-16)
(0.0344296 1.29911e-08 -1.10863e-15)
(0.0344294 1.05316e-08 -7.02272e-16)
(0.0344293 7.87967e-09 -7.76936e-16)
(0.0344291 7.75541e-09 -4.72128e-16)
(0.034429 6.18446e-09 -5.00552e-16)
(0.0344289 1.80872e-08 -4.30313e-16)
(0.0344286 2.74817e-08 -3.61073e-16)
(0.0344283 3.588e-08 -5.45537e-16)
(0.0344279 4.72244e-08 -3.11302e-16)
(0.0344273 5.74873e-08 -3.61168e-16)
(0.0344267 6.72842e-08 -3.01712e-16)
(0.034426 5.97934e-08 -2.46121e-16)
(0.0344254 5.32193e-08 -4.2975e-16)
(0.0344248 4.93481e-08 -2.2709e-16)
(0.0344243 4.4948e-08 -4.17539e-16)
(0.0344238 4.04982e-08 -1.20529e-16)
(0.0344234 3.58532e-08 -9.73625e-17)
(0.034423 3.0926e-08 -3.51346e-16)
(0.0344227 2.5833e-08 -1.60858e-16)
(0.0344225 2.06567e-08 -2.83681e-16)
(0.0344223 1.54938e-08 -1.91798e-17)
(0.0344221 1.04573e-08 -2.36844e-17)
(0.034422 5.67267e-09 -2.55365e-16)
(0.034422 1.28222e-09 -6.42069e-17)
(0.034422 -2.57001e-09 -2.42621e-16)
(0.0344221 -5.76981e-09 3.19499e-17)
(0.0344221 -8.21972e-09 6.28321e-17)
(0.0344222 -9.838e-09 -2.12286e-16)
(0.0344224 -1.05896e-08 -2.43748e-17)
(0.0344225 -1.04949e-08 -2.00927e-16)
(0.0344226 -9.63046e-09 9.56237e-17)
(0.0344227 -8.1238e-09 1.00229e-16)
(0.0344228 -6.14925e-09 -1.50298e-16)
(0.0344229 -3.92106e-09 2.90898e-17)
(0.0344229 -1.66401e-09 -1.56947e-16)
(0.0344229 4.24315e-10 1.135e-16)
(0.0344229 2.18968e-09 1.33649e-16)
(0.0344229 3.52545e-09 -7.66102e-17)
(0.0344229 4.37427e-09 9.109e-17)
(0.0344228 4.74017e-09 -1.05522e-16)
(0.0344228 4.67046e-09 2.04507e-16)
(0.0344228 4.28697e-09 1.39124e-18)
(0.0344227 3.67486e-09 1.43647e-16)
(0.0344227 3.06595e-09 1.56641e-16)
(0.0344227 2.39754e-09 -1.61445e-16)
(0.0344226 1.90848e-09 -7.27221e-17)
(0.0344226 1.05698e-09 -1.80766e-16)
(0.0344226 -1.11203e-09 6.00246e-17)
(0.0344227 -7.59424e-09 5.09181e-17)
(0.0344228 -1.50613e-08 -2.40564e-16)
(0.0344229 -2.04209e-08 -9.9131e-17)
(0.0344232 -2.34397e-08 -1.919e-16)
(0.0344234 -2.20715e-08 -6.47283e-17)
(0.0344236 -1.96389e-08 1.706e-17)
(0.0344238 -1.78947e-08 -2.04435e-16)
(0.034424 -1.68341e-08 -3.05296e-17)
(0.0344241 -1.66352e-08 -1.79618e-16)
(0.0344243 -1.71317e-08 -4.97667e-17)
(0.0344245 -1.84478e-08 2.74564e-17)
(0.0344247 -2.01851e-08 -2.07626e-16)
(0.0344249 -2.25045e-08 -1.81727e-16)
(0.0344251 -2.50922e-08 -2.65452e-16)
(0.0344254 -2.56504e-08 5.26888e-17)
(0.0344256 -2.7463e-08 1.08073e-16)
(0.0344259 -1.87092e-08 -1.67461e-16)
(0.034426 -1.01208e-08 -1.52656e-16)
(0.0344261 -1.4287e-08 -2.43926e-16)
(0.0344263 -1.30315e-08 6.81326e-17)
(0.0344264 -8.05329e-09 9.65308e-17)
(0.0344265 -5.18537e-09 -1.64931e-16)
(0.0344265 -4.61233e-09 -9.91325e-18)
(0.0344266 -6.26909e-09 -1.96741e-16)
(0.0344266 -1.0554e-08 -2.42093e-16)
(0.0344268 -1.6461e-08 1.1083e-16)
(0.0344269 -2.53527e-08 -5.54418e-17)
(0.0344273 -3.38594e-08 1.30896e-16)
(0.0344274 -4.67813e-08 -6.47362e-17)
(0.0344284 -5.69411e-08 -1.65965e-16)
(0.0344281 -3.78856e-08 1.62749e-16)
(0.0344299 -1.18249e-07 -1.07643e-17)
(0.034429 5.15906e-07 1.99188e-16)
(0.044321 8.47516e-07 3.60716e-16)
(0.044318 -3.27804e-07 8.52592e-17)
(0.0443212 -5.78638e-07 1.69376e-16)
(0.0443241 -3.90871e-07 -1.57295e-16)
(0.0443262 -2.5755e-07 -2.21937e-16)
(0.0443277 -1.50363e-07 -2.34412e-16)
(0.0443285 -7.46136e-08 -1.06003e-16)
(0.0443289 -2.5495e-08 -2.21317e-17)
(0.044329 7.16758e-09 3.43341e-17)
(0.0443289 2.8146e-08 -5.39439e-17)
(0.0443286 4.09302e-08 7.21896e-17)
(0.0443283 4.78072e-08 -2.9969e-16)
(0.044328 5.01942e-08 -1.46824e-16)
(0.0443276 4.90558e-08 -4.65377e-16)
(0.0443273 4.50793e-08 -5.72444e-16)
(0.0443269 3.88182e-08 -9.57588e-17)
(0.0443267 3.07981e-08 -4.03111e-16)
(0.0443265 2.1571e-08 -2.9723e-16)
(0.0443263 1.1707e-08 -6.5561e-16)
(0.0443263 1.7463e-09 -8.19897e-16)
(0.0443263 -7.75135e-09 -2.14051e-16)
(0.0443264 -1.61673e-08 -4.65954e-16)
(0.0443266 -2.2907e-08 -4.10856e-16)
(0.0443268 -2.75007e-08 -3.94801e-16)
(0.044327 -2.96608e-08 -8.14032e-16)
(0.0443273 -2.93076e-08 -3.01003e-16)
(0.0443275 -2.65709e-08 -4.07514e-16)
(0.0443277 -2.17702e-08 -5.51054e-16)
(0.0443279 -1.53831e-08 -5.34951e-16)
(0.044328 -7.99739e-09 -9.3375e-16)
(0.044328 -2.37272e-10 -4.17428e-16)
(0.044328 7.32212e-09 -3.71453e-16)
(0.044328 1.4161e-08 -5.3124e-16)
(0.0443279 1.98705e-08 -4.94609e-16)
(0.0443277 2.41434e-08 -8.98211e-16)
(0.0443275 2.68996e-08 -4.34805e-16)
(0.0443273 2.80265e-08 -4.5985e-16)
(0.0443271 2.77828e-08 -5.96838e-16)
(0.0443268 2.60327e-08 -6.00534e-16)
(0.0443266 2.34811e-08 -8.77917e-16)
(0.0443264 2.00345e-08 -8.00201e-16)
(0.0443262 1.63551e-08 -7.37633e-16)
(0.044326 1.60621e-08 -5.318e-16)
(0.0443259 1.42327e-08 -6.82581e-16)
(0.0443256 3.14741e-08 -5.21172e-16)
(0.0443253 4.62077e-08 -4.54533e-16)
(0.0443249 5.98392e-08 -4.64197e-16)
(0.0443243 7.74772e-08 -3.31675e-16)
(0.0443237 9.39398e-08 -4.8644e-16)
(0.0443229 1.09204e-07 -3.60958e-16)
(0.0443221 9.96214e-08 -3.15259e-16)
(0.0443213 8.97072e-08 -2.73345e-16)
(0.0443206 8.30619e-08 -2.21735e-16)
(0.04432 7.57964e-08 -2.86111e-16)
(0.0443194 6.83462e-08 -2.91704e-16)
(0.0443188 6.05226e-08 -1.58344e-16)
(0.0443184 5.22254e-08 -2.30477e-16)
(0.044318 4.36235e-08 -1.53185e-16)
(0.0443177 3.48642e-08 -1.1435e-16)
(0.0443174 2.61172e-08 -1.48758e-16)
(0.0443172 1.75788e-08 -4.67176e-17)
(0.0443171 9.46573e-09 -1.09837e-16)
(0.0443171 2.01717e-09 -2.87917e-17)
(0.0443171 -4.52622e-09 -5.0594e-17)
(0.0443172 -9.96833e-09 8.19837e-17)
(0.0443173 -1.4147e-08 5.27602e-17)
(0.0443174 -1.69319e-08 -4.88319e-17)
(0.0443175 -1.82677e-08 2.4671e-17)
(0.0443177 -1.81898e-08 1.09407e-18)
(0.0443179 -1.68255e-08 1.44754e-16)
(0.044318 -1.43862e-08 9.18697e-17)
(0.0443181 -1.11601e-08 5.31764e-17)
(0.0443182 -7.49897e-09 9.49769e-17)
(0.0443183 -3.77123e-09 4.59096e-17)
(0.0443183 -3.04105e-10 1.70496e-16)
(0.0443183 2.64626e-09 1.32832e-16)
(0.0443183 4.901e-09 1.53519e-16)
(0.0443182 6.36223e-09 1.81239e-16)
(0.0443182 7.03022e-09 1.19787e-16)
(0.0443182 6.98264e-09 2.25223e-16)
(0.0443181 6.40686e-09 3.18049e-16)
(0.0443181 5.45629e-09 1.83667e-16)
(0.044318 4.47584e-09 1.71665e-16)
(0.044318 3.41975e-09 1.13723e-16)
(0.044318 2.61598e-09 -1.95568e-16)
(0.044318 1.3136e-09 1.45634e-16)
(0.044318 -1.99674e-09 -2.45691e-16)
(0.044318 -1.16543e-08 2.67554e-17)
(0.0443181 -2.31302e-08 2.38023e-17)
(0.0443183 -3.18199e-08 -1.44581e-16)
(0.0443186 -3.69291e-08 1.47584e-16)
(0.0443188 -3.54791e-08 -1.66074e-16)
(0.0443191 -3.20369e-08 -6.99789e-18)
(0.0443193 -2.93214e-08 8.07795e-17)
(0.0443195 -2.75798e-08 -5.58148e-17)
(0.0443197 -2.7111e-08 1.28079e-16)
(0.0443199 -2.77124e-08 -3.6868e-17)
(0.0443201 -2.95629e-08 -1.49793e-17)
(0.0443204 -3.20986e-08 7.18797e-17)
(0.0443206 -3.55698e-08 -4.69399e-16)
(0.0443209 -3.94225e-08 -1.5218e-17)
(0.0443211 -4.05505e-08 -8.10487e-17)
(0.0443214 -4.30965e-08 1.08551e-16)
(0.0443217 -3.0537e-08 1.25242e-16)
(0.0443219 -1.76608e-08 -1.07721e-16)
(0.044322 -2.25246e-08 6.57962e-17)
(0.0443222 -2.06332e-08 -7.01104e-17)
(0.0443223 -1.33527e-08 7.82359e-17)
(0.0443224 -8.66683e-09 1.36257e-16)
(0.0443225 -7.48519e-09 -1.42369e-17)
(0.0443225 -9.78178e-09 3.05112e-17)
(0.0443226 -1.63066e-08 1.14776e-16)
(0.0443228 -2.53313e-08 2.59535e-16)
(0.0443229 -3.9388e-08 2.71429e-16)
(0.0443233 -5.24146e-08 1.61931e-16)
(0.0443235 -7.37613e-08 2.32597e-16)
(0.0443245 -8.73054e-08 2.00222e-16)
(0.0443244 -6.86945e-08 3.14682e-16)
(0.0443262 -1.64004e-07 3.14024e-16)
(0.0443253 6.91843e-07 2.44958e-16)
(0.0537548 1.05024e-06 4.61693e-16)
(0.0537521 -3.54665e-07 1.06086e-16)
(0.0537545 -7.20657e-07 1.88126e-16)
(0.053757 -5.31161e-07 6.59303e-17)
(0.0537591 -3.61446e-07 -4.01198e-20)
(0.0537606 -2.17237e-07 3.78526e-17)
(0.0537615 -1.12008e-07 3.17611e-17)
(0.053762 -4.15921e-08 8.56467e-17)
(0.0537621 5.93611e-09 9.48752e-17)
(0.0537621 3.70231e-08 8.64515e-17)
(0.0537619 5.63875e-08 1.86468e-16)
(0.0537616 6.71695e-08 -1.66586e-16)
(0.0537612 7.13607e-08 -1.18183e-16)
(0.0537608 7.03235e-08 -3.83679e-16)
(0.0537604 6.50402e-08 -5.35222e-16)
(0.0537601 5.63099e-08 -6.27508e-17)
(0.0537598 4.48952e-08 -3.34332e-16)
(0.0537596 3.1598e-08 -3.24662e-16)
(0.0537594 1.725e-08 -6.40484e-16)
(0.0537594 2.65147e-09 -7.59058e-16)
(0.0537594 -1.13644e-08 -4.90041e-16)
(0.0537595 -2.38802e-08 -4.35097e-16)
(0.0537597 -3.40114e-08 -3.94287e-16)
(0.0537599 -4.10494e-08 -5.66237e-16)
(0.0537602 -4.45476e-08 -6.95301e-16)
(0.0537605 -4.43605e-08 -4.8768e-16)
(0.0537608 -4.06489e-08 -6.08007e-16)
(0.053761 -3.38539e-08 -6.46778e-16)
(0.0537612 -2.46514e-08 -7.49189e-16)
(0.0537614 -1.38831e-08 -8.23021e-16)
(0.0537615 -2.45441e-09 -6.04978e-16)
(0.0537615 8.78965e-09 -6.27875e-16)
(0.0537615 1.90884e-08 -6.6715e-16)
(0.0537613 2.78392e-08 -7.32511e-16)
(0.0537612 3.45934e-08 -8.35018e-16)
(0.053761 3.92138e-08 -6.3833e-16)
(0.0537607 4.15496e-08 -7.38587e-16)
(0.0537605 4.19331e-08 -7.49894e-16)
(0.0537602 4.02119e-08 -8.4384e-16)
(0.0537599 3.73088e-08 -8.72959e-16)
(0.0537597 3.31091e-08 -8.42911e-16)
(0.0537594 2.85731e-08 -6.86297e-16)
(0.0537592 2.82267e-08 -5.52688e-16)
(0.0537589 2.63167e-08 -5.95063e-16)
(0.0537587 4.90365e-08 -5.44238e-16)
(0.0537583 6.9549e-08 -5.30608e-16)
(0.0537578 8.91046e-08 -2.65591e-16)
(0.0537571 1.13751e-07 -3.30281e-16)
(0.0537564 1.37205e-07 -2.57562e-16)
(0.0537555 1.5868e-07 -3.5477e-16)
(0.0537546 1.47674e-07 -3.78703e-16)
(0.0537537 1.34537e-07 -2.19814e-16)
(0.0537529 1.24702e-07 -1.88105e-16)
(0.0537522 1.14032e-07 -1.70092e-16)
(0.0537515 1.02958e-07 -1.07333e-16)
(0.0537509 9.12484e-08 -2.36302e-16)
(0.0537503 7.88099e-08 -1.46334e-16)
(0.0537498 6.58748e-08 -1.21596e-16)
(0.0537495 5.26733e-08 1.25001e-17)
(0.0537492 3.94721e-08 7.82825e-17)
(0.0537489 2.65756e-08 -8.05074e-17)
(0.0537488 1.43175e-08 3.25355e-18)
(0.0537488 3.05928e-09 2.63153e-17)
(0.0537488 -6.84055e-09 1.01242e-16)
(0.0537488 -1.50869e-08 1.67901e-16)
(0.053749 -2.14391e-08 1.86844e-17)
(0.0537491 -2.57091e-08 7.73164e-17)
(0.0537493 -2.78184e-08 9.47926e-17)
(0.0537495 -2.782e-08 1.71092e-16)
(0.0537496 -2.59015e-08 2.31221e-16)
(0.0537498 -2.23737e-08 5.94705e-17)
(0.0537499 -1.766e-08 1.59086e-16)
(0.05375 -1.22747e-08 1.80516e-16)
(0.0537501 -6.75709e-09 3.59011e-16)
(0.0537502 -1.59111e-09 2.65281e-16)
(0.0537502 2.84064e-09 1.11514e-16)
(0.0537502 6.26829e-09 2.65641e-16)
(0.0537501 8.54093e-09 2.88196e-16)
(0.0537501 9.64926e-09 3.12066e-16)
(0.05375 9.70197e-09 2.75988e-16)
(0.05375 8.95932e-09 6.28071e-16)
(0.0537499 7.65447e-09 2.34131e-16)
(0.0537499 6.25949e-09 1.90318e-16)
(0.0537498 4.76056e-09 3.3268e-16)
(0.0537498 3.58625e-09 -2.32692e-16)
(0.0537498 1.77806e-09 4.41114e-16)
(0.0537498 -2.75301e-09 1.07706e-16)
(0.0537498 -1.5725e-08 3.84322e-17)
(0.0537499 -3.15238e-08 2.61706e-16)
(0.0537501 -4.40285e-08 -1.2966e-16)
(0.0537503 -5.17233e-08 4.10899e-16)
(0.0537506 -5.05938e-08 -7.9673e-17)
(0.0537509 -4.63477e-08 3.99573e-17)
(0.0537511 -4.26784e-08 3.28082e-16)
(0.0537513 -4.01926e-08 -1.97299e-17)
(0.0537516 -3.93671e-08 4.32432e-16)
(0.0537518 -3.99932e-08 -1.60544e-17)
(0.053752 -4.23152e-08 2.46618e-17)
(0.0537523 -4.56255e-08 3.18417e-16)
(0.0537525 -5.02561e-08 -1.49677e-16)
(0.0537528 -5.54287e-08 3.22196e-16)
(0.0537531 -5.72382e-08 7.95251e-17)
(0.0537534 -6.05659e-08 1.65495e-16)
(0.0537537 -4.42648e-08 3.57943e-16)
(0.0537539 -2.69602e-08 -9.90982e-17)
(0.0537541 -3.2093e-08 3.8263e-16)
(0.0537542 -2.93768e-08 -4.04984e-17)
(0.0537544 -1.97435e-08 1.20689e-16)
(0.0537545 -1.30476e-08 4.26381e-16)
(0.0537545 -1.10407e-08 -1.40675e-16)
(0.0537546 -1.3912e-08 3.372e-16)
(0.0537547 -2.27269e-08 4.46703e-16)
(0.0537549 -3.52268e-08 4.31643e-16)
(0.053755 -5.47888e-08 5.68407e-16)
(0.0537555 -7.3287e-08 6.25036e-17)
(0.0537557 -1.03449e-07 4.9713e-16)
(0.0537567 -1.21943e-07 5.41216e-16)
(0.0537567 -1.05347e-07 4.8571e-16)
(0.0537585 -2.10034e-07 6.14262e-16)
(0.0537576 8.32144e-07 1.93769e-16)
(0.0623459 1.19956e-06 6.15148e-16)
(0.0623436 -3.68941e-07 3.26075e-16)
(0.0623453 -8.3067e-07 3.01052e-16)
(0.0623474 -6.56789e-07 2.60345e-16)
(0.0623492 -4.63446e-07 1.8821e-16)
(0.0623507 -2.87769e-07 1.65675e-16)
(0.0623516 -1.5456e-07 1.59683e-16)
(0.0623522 -6.24017e-08 2.05479e-16)
(0.0623524 1.07173e-09 2.30333e-16)
(0.0623524 4.34621e-08 2.13406e-16)
(0.0623523 7.05057e-08 3.03483e-16)
(0.062352 8.61128e-08 -2.4161e-16)
(0.0623516 9.28225e-08 -6.39554e-17)
(0.0623513 9.23898e-08 -6.39717e-16)
(0.0623509 8.60961e-08 -4.89604e-16)
(0.0623506 7.49973e-08 3.65694e-19)
(0.0623503 6.01094e-08 -3.70666e-16)
(0.06235 4.25051e-08 -3.38332e-16)
(0.0623499 2.33037e-08 -8.21106e-16)
(0.0623498 3.59963e-09 -7.0489e-16)
(0.0623499 -1.54638e-08 -6.43738e-16)
(0.06235 -3.26334e-08 -4.07313e-16)
(0.0623502 -4.6692e-08 -3.72399e-16)
(0.0623504 -5.66505e-08 -7.6803e-16)
(0.0623507 -6.1866e-08 -5.84068e-16)
(0.0623511 -6.20979e-08 -5.67022e-16)
(0.0623514 -5.75186e-08 -7.93762e-16)
(0.0623517 -4.86829e-08 -7.43409e-16)
(0.0623519 -3.64694e-08 -9.08257e-16)
(0.0623521 -2.19872e-08 -7.189e-16)
(0.0623523 -6.44528e-09 -7.12981e-16)
(0.0623523 9.0086e-09 -1.0028e-15)
(0.0623523 2.33395e-08 -8.01454e-16)
(0.0623522 3.57238e-08 -9.65327e-16)
(0.062352 4.55492e-08 -8.08463e-16)
(0.0623518 5.2603e-08 -7.72574e-16)
(0.0623516 5.66859e-08 -9.93811e-16)
(0.0623513 5.81915e-08 -8.86178e-16)
(0.062351 5.69549e-08 -1.03793e-15)
(0.0623507 5.4097e-08 -8.81113e-16)
(0.0623504 4.94961e-08 -8.57867e-16)
(0.0623501 4.43795e-08 -5.89081e-16)
(0.0623498 4.41484e-08 -5.55764e-16)
(0.0623495 4.23089e-08 -5.58989e-16)
(0.0623491 7.03984e-08 -5.53015e-16)
(0.0623487 9.67466e-08 -5.82498e-16)
(0.0623481 1.22484e-07 -3.14027e-16)
(0.0623475 1.54427e-07 -3.23841e-16)
(0.0623467 1.85256e-07 -3.36012e-16)
(0.0623458 2.13385e-07 -3.66893e-16)
(0.0623448 2.01665e-07 -4.18395e-16)
(0.0623439 1.85701e-07 -9.65571e-17)
(0.062343 1.72591e-07 -1.95959e-16)
(0.0623421 1.58223e-07 -3.60371e-17)
(0.0623414 1.43108e-07 -6.3966e-17)
(0.0623407 1.27003e-07 -3.48097e-16)
(0.0623401 1.09844e-07 -3.48159e-17)
(0.0623396 9.19415e-08 -8.86491e-17)
(0.0623391 7.36289e-08 1.60341e-16)
(0.0623388 5.52924e-08 1.49049e-16)
(0.0623386 3.73679e-08 -1.54313e-16)
(0.0623384 2.03284e-08 1.40509e-16)
(0.0623383 4.67822e-09 7.64752e-17)
(0.0623383 -9.09059e-09 2.72311e-16)
(0.0623384 -2.05736e-08 2.40509e-16)
(0.0623385 -2.94425e-08 -5.94857e-17)
(0.0623387 -3.54462e-08 2.21976e-16)
(0.0623389 -3.84809e-08 1.59124e-16)
(0.062339 -3.8619e-08 3.47668e-16)
(0.0623392 -3.61136e-08 3.08339e-16)
(0.0623394 -3.13846e-08 -1.10023e-17)
(0.0623395 -2.50036e-08 3.18111e-16)