/*--------------------------------*- C++ -*----------------------------------*\
  =========                 |
  \\      /  F ield         | OpenFOAM: The Open Source CFD Toolbox
   \\    /   O peration     | Website:  https://openfoam.org
    \\  /    A nd           | Version:  7
     \\/     M anipulation  |
\*---------------------------------------------------------------------------*/
FoamFile
{
    version     2.0;
    format      ascii;
    class       volVectorField;
    location    "18000";
    object      U;
}
// * * * * * * * * * * * * * * * * * * * * * * * * * * * * * * * * * * * * * //

dimensions      [0 1 -1 0 0 0 0];

internalField   nonuniform List<vector> 
4026
(
(0.118798 5.14772e-08 2.45202e-14)
(0.118798 7.90541e-08 2.45416e-14)
(0.118798 1.00415e-07 2.45681e-14)
(0.118798 1.15176e-07 2.44826e-14)
(0.118798 1.24049e-07 2.44426e-14)
(0.118798 1.2791e-07 2.44941e-14)
(0.118798 1.27689e-07 2.4575e-14)
(0.118798 1.23928e-07 2.46266e-14)
(0.118798 1.17029e-07 2.47218e-14)
(0.118798 1.07708e-07 2.47929e-14)
(0.118798 9.64495e-08 2.48442e-14)
(0.118798 8.38831e-08 2.48362e-14)
(0.118798 7.07531e-08 2.48296e-14)
(0.118798 5.71922e-08 2.48163e-14)
(0.118798 4.36081e-08 2.46453e-14)
(0.118798 3.02505e-08 2.47784e-14)
(0.118798 1.70054e-08 2.48201e-14)
(0.118798 4.09176e-09 2.48317e-14)
(0.118798 -8.22252e-09 2.48234e-14)
(0.118798 -2.00176e-08 2.465e-14)
(0.118798 -3.1297e-08 2.47906e-14)
(0.118798 -4.1862e-08 2.46598e-14)
(0.118798 -5.17076e-08 2.47105e-14)
(0.118799 -6.08503e-08 2.47992e-14)
(0.118799 -6.94157e-08 2.45748e-14)
(0.118799 -7.73513e-08 2.47056e-14)
(0.118799 -8.46519e-08 2.47786e-14)
(0.118799 -9.13893e-08 2.47542e-14)
(0.118799 -9.75447e-08 2.47885e-14)
(0.118799 -1.03208e-07 2.45258e-14)
(0.118799 -1.0853e-07 2.47166e-14)
(0.118799 -1.13382e-07 2.47264e-14)
(0.118799 -1.18008e-07 2.4747e-14)
(0.118799 -1.22418e-07 2.48107e-14)
(0.118799 -1.26611e-07 2.44637e-14)
(0.118799 -1.30469e-07 2.46876e-14)
(0.118799 -1.33904e-07 2.47306e-14)
(0.118799 -1.3716e-07 2.46977e-14)
(0.118799 -1.39658e-07 2.46794e-14)
(0.118799 -1.41471e-07 2.44903e-14)
(0.118799 -1.4113e-07 2.45676e-14)
(0.118799 -1.39777e-07 2.45135e-14)
(0.118799 -1.31319e-07 2.4562e-14)
(0.118799 -1.22348e-07 2.45301e-14)
(0.118799 -9.51621e-08 2.45181e-14)
(0.118799 1.32578e-08 2.42735e-14)
(0.118799 3.38944e-08 2.42979e-14)
(0.118799 4.41833e-08 2.42837e-14)
(0.118799 4.64879e-08 2.43002e-14)
(0.118798 4.33443e-08 2.43358e-14)
(0.118798 3.69249e-08 2.43285e-14)
(0.118798 2.85742e-08 2.43435e-14)
(0.118798 1.94044e-08 2.43518e-14)
(0.118798 9.77256e-09 2.43883e-14)
(0.118798 6.16004e-10 2.44166e-14)
(0.118798 -7.75689e-09 2.44063e-14)
(0.118798 -1.34672e-08 2.4421e-14)
(0.118798 -1.78701e-08 2.4428e-14)
(0.118798 -1.43789e-08 2.44583e-14)
(0.118798 -6.55656e-09 2.44904e-14)
(0.118798 1.5607e-08 2.44623e-14)
(0.119786 5.25585e-08 2.49038e-14)
(0.119786 8.02625e-08 2.49277e-14)
(0.119786 1.01055e-07 2.49475e-14)
(0.119786 1.15021e-07 2.48537e-14)
(0.119786 1.23146e-07 2.48026e-14)
(0.119786 1.26443e-07 2.48405e-14)
(0.119786 1.25787e-07 2.49155e-14)
(0.119786 1.21691e-07 2.49717e-14)
(0.119786 1.14565e-07 2.50452e-14)
(0.119786 1.05143e-07 2.51099e-14)
(0.119786 9.38424e-08 2.51652e-14)
(0.119786 8.12007e-08 2.51691e-14)
(0.119786 6.80802e-08 2.51634e-14)
(0.119786 5.45356e-08 2.51575e-14)
(0.119786 4.09303e-08 2.49803e-14)
(0.119786 2.76343e-08 2.51642e-14)
(0.119786 1.44427e-08 2.51807e-14)
(0.119786 1.53898e-09 2.51842e-14)
(0.119786 -1.07306e-08 2.51764e-14)
(0.119786 -2.24831e-08 2.49953e-14)
(0.119786 -3.37174e-08 2.51662e-14)
(0.119786 -4.41816e-08 2.50204e-14)
(0.119786 -5.39822e-08 2.50933e-14)
(0.119786 -6.31215e-08 2.51446e-14)
(0.119786 -7.1605e-08 2.49699e-14)
(0.119786 -7.94589e-08 2.51301e-14)
(0.119786 -8.67278e-08 2.51207e-14)
(0.119786 -9.33725e-08 2.5136e-14)
(0.119786 -9.9405e-08 2.51317e-14)
(0.119786 -1.05e-07 2.49276e-14)
(0.119786 -1.10235e-07 2.5105e-14)
(0.119786 -1.15051e-07 2.51087e-14)
(0.119786 -1.19629e-07 2.51295e-14)
(0.119786 -1.23939e-07 2.5117e-14)
(0.119786 -1.28068e-07 2.49062e-14)
(0.119786 -1.31862e-07 2.50734e-14)
(0.119786 -1.3523e-07 2.50698e-14)
(0.119786 -1.38447e-07 2.50733e-14)
(0.119786 -1.40966e-07 2.50616e-14)
(0.119786 -1.42765e-07 2.48852e-14)
(0.119786 -1.42425e-07 2.49852e-14)
(0.119786 -1.41171e-07 2.49022e-14)
(0.119786 -1.32622e-07 2.49674e-14)
(0.119786 -1.24002e-07 2.49734e-14)
(0.119786 -9.49512e-08 2.49395e-14)
(0.119786 2.24564e-08 2.46806e-14)
(0.119786 4.29261e-08 2.46954e-14)
(0.119786 5.23946e-08 2.46956e-14)
(0.119786 5.38779e-08 2.47005e-14)
(0.119786 4.99043e-08 2.47234e-14)
(0.119786 4.27376e-08 2.47309e-14)
(0.119786 3.37748e-08 2.47417e-14)
(0.119786 2.39548e-08 2.47484e-14)
(0.119786 1.3761e-08 2.47731e-14)
(0.119786 4.13688e-09 2.47949e-14)
(0.119786 -4.75961e-09 2.48019e-14)
(0.119786 -1.10279e-08 2.48162e-14)
(0.119786 -1.5886e-08 2.48268e-14)
(0.119786 -1.28948e-08 2.48378e-14)
(0.119786 -5.83669e-09 2.48638e-14)
(0.119786 1.61378e-08 2.48581e-14)
(0.120744 5.34659e-08 2.52992e-14)
(0.120744 8.11946e-08 2.53119e-14)
(0.120744 1.01447e-07 2.53202e-14)
(0.120744 1.14613e-07 2.5153e-14)
(0.120744 1.21982e-07 2.51554e-14)
(0.120744 1.2467e-07 2.51988e-14)
(0.120744 1.23545e-07 2.52686e-14)
(0.120744 1.19077e-07 2.53243e-14)
(0.120744 1.11732e-07 2.53838e-14)
(0.120744 1.02263e-07 2.54397e-14)
(0.120744 9.09158e-08 2.54943e-14)
(0.120744 7.82634e-08 2.54977e-14)
(0.120744 6.51888e-08 2.54929e-14)
(0.120744 5.16277e-08 2.54839e-14)
(0.120744 3.8046e-08 2.54085e-14)
(0.120744 2.48439e-08 2.55019e-14)
(0.120744 1.17172e-08 2.55267e-14)
(0.120744 -1.12419e-09 2.55306e-14)
(0.120744 -1.33285e-08 2.5515e-14)
(0.120744 -2.50259e-08 2.54309e-14)
(0.120744 -3.61457e-08 2.54675e-14)
(0.120744 -4.65272e-08 2.54406e-14)
(0.120744 -5.62854e-08 2.54997e-14)
(0.120744 -6.53406e-08 2.55037e-14)
(0.120744 -7.3743e-08 2.54455e-14)
(0.120744 -8.15146e-08 2.54873e-14)
(0.120744 -8.86952e-08 2.54609e-14)
(0.120745 -9.52329e-08 2.55155e-14)
(0.120745 -1.01176e-07 2.54807e-14)
(0.120745 -1.06669e-07 2.54035e-14)
(0.120745 -1.11793e-07 2.54545e-14)
(0.120745 -1.16562e-07 2.54424e-14)
(0.120745 -1.21066e-07 2.55097e-14)
(0.120745 -1.25287e-07 2.5471e-14)
(0.120745 -1.29328e-07 2.5383e-14)
(0.120745 -1.3304e-07 2.54194e-14)
(0.120745 -1.36342e-07 2.54058e-14)
(0.120745 -1.39523e-07 2.54397e-14)
(0.120745 -1.42029e-07 2.54152e-14)
(0.120745 -1.43828e-07 2.53547e-14)
(0.120745 -1.43534e-07 2.54276e-14)
(0.120745 -1.42365e-07 2.53579e-14)
(0.120745 -1.33779e-07 2.53966e-14)
(0.120745 -1.25499e-07 2.53801e-14)
(0.120745 -9.52928e-08 2.53475e-14)
(0.120745 3.10823e-08 2.50817e-14)
(0.120745 5.20954e-08 2.50902e-14)
(0.120744 6.10117e-08 2.51003e-14)
(0.120744 6.16421e-08 2.50929e-14)
(0.120744 5.67857e-08 2.51091e-14)
(0.120744 4.88285e-08 2.51269e-14)
(0.120744 3.92244e-08 2.5136e-14)
(0.120744 2.87847e-08 2.5141e-14)
(0.120744 1.79965e-08 2.51606e-14)
(0.120744 7.87305e-09 2.51738e-14)
(0.120744 -1.56583e-09 2.51933e-14)
(0.120744 -8.38046e-09 2.52082e-14)
(0.120744 -1.36814e-08 2.52199e-14)
(0.120744 -1.13213e-08 2.52152e-14)
(0.120744 -5.12548e-09 2.52359e-14)
(0.120744 1.66658e-08 2.52473e-14)
(0.121675 5.43665e-08 2.5682e-14)
(0.121674 8.18983e-08 2.56924e-14)
(0.121674 1.01538e-07 2.5687e-14)
(0.121675 1.13933e-07 2.55904e-14)
(0.121675 1.20527e-07 2.55061e-14)
(0.121675 1.22585e-07 2.55703e-14)
(0.121675 1.20979e-07 2.56338e-14)
(0.121675 1.16143e-07 2.56845e-14)
(0.121675 1.08603e-07 2.57337e-14)
(0.121675 9.90389e-08 2.57802e-14)
(0.121675 8.76363e-08 2.58316e-14)
(0.121675 7.5045e-08 2.5822e-14)
(0.121675 6.20294e-08 2.5818e-14)
(0.121675 4.85068e-08 2.57994e-14)
(0.121675 3.5004e-08 2.58141e-14)
(0.121675 2.1874e-08 2.58622e-14)
(0.121675 8.83616e-09 2.58669e-14)
(0.121675 -3.88371e-09 2.58706e-14)
(0.121675 -1.60204e-08 2.58425e-14)
(0.121675 -2.76263e-08 2.58371e-14)
(0.121675 -3.86349e-08 2.57739e-14)
(0.121675 -4.88992e-08 2.58527e-14)
(0.121675 -5.85366e-08 2.59849e-14)
(0.121675 -6.75225e-08 2.58454e-14)
(0.121675 -7.58456e-08 2.5894e-14)
(0.121675 -8.3497e-08 2.5849e-14)
(0.121675 -9.05347e-08 2.57883e-14)
(0.121675 -9.7016e-08 2.5917e-14)
(0.121675 -1.02862e-07 2.58137e-14)
(0.121675 -1.08177e-07 2.58653e-14)
(0.121675 -1.13182e-07 2.58145e-14)
(0.121675 -1.17885e-07 2.57651e-14)
(0.121675 -1.22334e-07 2.59084e-14)
(0.121675 -1.26478e-07 2.58025e-14)
(0.121675 -1.30391e-07 2.58336e-14)
(0.121675 -1.3397e-07 2.5779e-14)
(0.121675 -1.37244e-07 2.57315e-14)
(0.121675 -1.40396e-07 2.58461e-14)
(0.121675 -1.42863e-07 2.57469e-14)
(0.121675 -1.4468e-07 2.58035e-14)
(0.121675 -1.44438e-07 2.5893e-14)
(0.121675 -1.43343e-07 2.58165e-14)
(0.121675 -1.34772e-07 2.58207e-14)
(0.121675 -1.26838e-07 2.57774e-14)
(0.121675 -9.60573e-08 2.5783e-14)
(0.121675 3.90483e-08 2.54801e-14)
(0.121675 6.09791e-08 2.54809e-14)
(0.121675 6.96842e-08 2.5501e-14)
(0.121675 6.96129e-08 2.54984e-14)
(0.121675 6.38999e-08 2.54905e-14)
(0.121675 5.51931e-08 2.55203e-14)
(0.121675 4.49359e-08 2.55253e-14)
(0.121675 3.38366e-08 2.55293e-14)
(0.121675 2.24776e-08 2.55085e-14)
(0.121675 1.18084e-08 2.55522e-14)
(0.121675 1.80448e-09 2.55846e-14)
(0.121675 -5.56367e-09 2.55968e-14)
(0.121675 -1.13497e-08 2.56068e-14)
(0.121675 -9.63522e-09 2.56043e-14)
(0.121675 -4.4214e-09 2.56091e-14)
(0.121675 1.71698e-08 2.56338e-14)
(0.122578 5.52614e-08 2.60771e-14)
(0.122578 8.24499e-08 2.60586e-14)
(0.122578 1.01331e-07 2.60457e-14)
(0.122578 1.12919e-07 2.5985e-14)
(0.122578 1.18779e-07 2.59315e-14)
(0.122578 1.20201e-07 2.59636e-14)
(0.122578 1.18104e-07 2.60088e-14)
(0.122578 1.12924e-07 2.60512e-14)
(0.122578 1.05162e-07 2.60917e-14)
(0.122578 9.54833e-08 2.61292e-14)
(0.122579 8.40669e-08 2.61763e-14)
(0.122579 7.15702e-08 2.61395e-14)
(0.122579 5.86144e-08 2.61397e-14)
(0.122579 4.51245e-08 2.61063e-14)
(0.122579 3.17667e-08 2.61858e-14)
(0.122579 1.874e-08 2.62289e-14)
(0.122579 5.80991e-09 2.61998e-14)
(0.122579 -6.74946e-09 2.62059e-14)
(0.122579 -1.87921e-08 2.61601e-14)
(0.122579 -3.02886e-08 2.62666e-14)
(0.122579 -4.11372e-08 2.61531e-14)
(0.122579 -5.13043e-08 2.62965e-14)
(0.122579 -6.08024e-08 2.63033e-14)
(0.122579 -6.9657e-08 2.62508e-14)
(0.122579 -7.78671e-08 2.63398e-14)
(0.122579 -8.53985e-08 2.62768e-14)
(0.122579 -9.23096e-08 2.6195e-14)
(0.122579 -9.86593e-08 2.62552e-14)
(0.122579 -1.04413e-07 2.62064e-14)
(0.122579 -1.09572e-07 2.62969e-14)
(0.122579 -1.14443e-07 2.62431e-14)
(0.122579 -1.19058e-07 2.61669e-14)
(0.122579 -1.23385e-07 2.62446e-14)
(0.122579 -1.27415e-07 2.61928e-14)
(0.122579 -1.31214e-07 2.6312e-14)
(0.122579 -1.34713e-07 2.6207e-14)
(0.122579 -1.3797e-07 2.61377e-14)
(0.122579 -1.41041e-07 2.6183e-14)
(0.122579 -1.43435e-07 2.61467e-14)
(0.122579 -1.4528e-07 2.6279e-14)
(0.122579 -1.45144e-07 2.62762e-14)
(0.122579 -1.44107e-07 2.62475e-14)
(0.122579 -1.35634e-07 2.62354e-14)
(0.122579 -1.2808e-07 2.61552e-14)
(0.122579 -9.70315e-08 2.61247e-14)
(0.122579 4.64123e-08 2.58789e-14)
(0.122579 6.93521e-08 2.58664e-14)
(0.122579 7.81092e-08 2.59002e-14)
(0.122579 7.74976e-08 2.58903e-14)
(0.122579 7.11398e-08 2.58708e-14)
(0.122579 6.17384e-08 2.59137e-14)
(0.122579 5.07648e-08 2.59084e-14)
(0.122579 3.90522e-08 2.59142e-14)
(0.122579 2.71491e-08 2.59393e-14)
(0.122578 1.58812e-08 2.59282e-14)
(0.122578 5.34186e-09 2.59803e-14)
(0.122578 -2.56558e-09 2.5981e-14)
(0.122578 -8.89297e-09 2.59879e-14)
(0.122578 -7.90244e-09 2.5992e-14)
(0.122578 -3.751e-09 2.59844e-14)
(0.122578 1.76841e-08 2.60231e-14)
(0.123457 5.62221e-08 2.64593e-14)
(0.123457 8.29136e-08 2.64083e-14)
(0.123457 1.00892e-07 2.63966e-14)
(0.123457 1.11575e-07 2.63533e-14)
(0.123457 1.16684e-07 2.63521e-14)
(0.123457 1.17537e-07 2.63647e-14)
(0.123457 1.14891e-07 2.63908e-14)
(0.123457 1.09389e-07 2.6423e-14)
(0.123457 1.01491e-07 2.64556e-14)
(0.123457 9.16343e-08 2.64847e-14)
(0.123457 8.01795e-08 2.65268e-14)
(0.123457 6.77919e-08 2.64428e-14)
(0.123457 5.48942e-08 2.64605e-14)
(0.123457 4.15402e-08 2.64048e-14)
(0.123457 2.83443e-08 2.64883e-14)
(0.123457 1.54433e-08 2.65827e-14)
(0.123457 2.69035e-09 2.65195e-14)
(0.123457 -9.71946e-09 2.65394e-14)
(0.123457 -2.16533e-08 2.64661e-14)
(0.123457 -3.30156e-08 2.65342e-14)
(0.123457 -4.37091e-08 2.65068e-14)
(0.123457 -5.37331e-08 2.65993e-14)
(0.123457 -6.30396e-08 2.66803e-14)
(0.123457 -7.17401e-08 2.66368e-14)
(0.123457 -7.9829e-08 2.67059e-14)
(0.123457 -8.72303e-08 2.66685e-14)
(0.123457 -9.39854e-08 2.65808e-14)
(0.123457 -1.00178e-07 2.66213e-14)
(0.123457 -1.05782e-07 2.65841e-14)
(0.123457 -1.10808e-07 2.66669e-14)
(0.123457 -1.15591e-07 2.66256e-14)
(0.123457 -1.2007e-07 2.65498e-14)
(0.123457 -1.24222e-07 2.66102e-14)
(0.123457 -1.28133e-07 2.65671e-14)
(0.123457 -1.31868e-07 2.66335e-14)
(0.123457 -1.35255e-07 2.65965e-14)
(0.123457 -1.38446e-07 2.65245e-14)
(0.123457 -1.41445e-07 2.65696e-14)
(0.123457 -1.43808e-07 2.6534e-14)
(0.123457 -1.45664e-07 2.66001e-14)
(0.123457 -1.45599e-07 2.66601e-14)
(0.123457 -1.44656e-07 2.66663e-14)
(0.123457 -1.36363e-07 2.66302e-14)
(0.123457 -1.29283e-07 2.65081e-14)
(0.123457 -9.81189e-08 2.64998e-14)
(0.123457 5.33047e-08 2.62855e-14)
(0.123457 7.70542e-08 2.62439e-14)
(0.123457 8.59947e-08 2.63047e-14)
(0.123457 8.51121e-08 2.62921e-14)
(0.123457 7.82822e-08 2.62398e-14)
(0.123457 6.82876e-08 2.63136e-14)
(0.123457 5.66597e-08 2.62818e-14)
(0.123457 4.43444e-08 2.62995e-14)
(0.123457 3.19314e-08 2.63326e-14)
(0.123457 2.00832e-08 2.62983e-14)
(0.123457 8.98922e-09 2.63858e-14)
(0.123457 5.30012e-10 2.63572e-14)
(0.123457 -6.35093e-09 2.6366e-14)
(0.123457 -6.11584e-09 2.63935e-14)
(0.123457 -3.20599e-09 2.63542e-14)
(0.123457 1.80953e-08 2.64186e-14)
(0.12431 5.72194e-08 2.6848e-14)
(0.12431 8.33161e-08 2.67658e-14)
(0.12431 1.00182e-07 2.67412e-14)
(0.12431 1.09931e-07 2.67349e-14)
(0.12431 1.14271e-07 2.67678e-14)
(0.12431 1.14512e-07 2.67663e-14)
(0.12431 1.114e-07 2.67756e-14)
(0.12431 1.05599e-07 2.67983e-14)
(0.12431 9.74951e-08 2.68232e-14)
(0.12431 8.74882e-08 2.68446e-14)
(0.12431 7.60543e-08 2.68805e-14)
(0.12431 6.37307e-08 2.66806e-14)
(0.12431 5.09158e-08 2.67864e-14)
(0.12431 3.77293e-08 2.67113e-14)
(0.12431 2.47519e-08 2.67838e-14)
(0.12431 1.20331e-08 2.69428e-14)
(0.124311 -5.65621e-10 2.68463e-14)
(0.124311 -1.28468e-08 2.68768e-14)
(0.124311 -2.46142e-08 2.67808e-14)
(0.124311 -3.57657e-08 2.68521e-14)
(0.124311 -4.63126e-08 2.68488e-14)
(0.124311 -5.6202e-08 2.69348e-14)
(0.124311 -6.53079e-08 2.70711e-14)
(0.124311 -7.37688e-08 2.70032e-14)
(0.124311 -8.17119e-08 2.70803e-14)
(0.124311 -8.89717e-08 2.70344e-14)
(0.124311 -9.55628e-08 2.69423e-14)
(0.124311 -1.01578e-07 2.69952e-14)
(0.124311 -1.06973e-07 2.69471e-14)
(0.124311 -1.11894e-07 2.70223e-14)
(0.124311 -1.16584e-07 2.69852e-14)
(0.124311 -1.20928e-07 2.6909e-14)
(0.124311 -1.2487e-07 2.69983e-14)
(0.124311 -1.2861e-07 2.6929e-14)
(0.124311 -1.32262e-07 2.69954e-14)
(0.124311 -1.35607e-07 2.69602e-14)
(0.124311 -1.38734e-07 2.68892e-14)
(0.124311 -1.41594e-07 2.69662e-14)
(0.124311 -1.43951e-07 2.69107e-14)
(0.124311 -1.45827e-07 2.69495e-14)
(0.124311 -1.45814e-07 2.70565e-14)
(0.124311 -1.44954e-07 2.69917e-14)
(0.124311 -1.36998e-07 2.70048e-14)
(0.124311 -1.30508e-07 2.68437e-14)
(0.124311 -9.92196e-08 2.68817e-14)
(0.124311 5.98605e-08 2.67124e-14)
(0.124311 8.41516e-08 2.66942e-14)
(0.124311 9.32518e-08 2.6723e-14)
(0.124311 9.22517e-08 2.66762e-14)
(0.12431 8.51227e-08 2.6683e-14)
(0.12431 7.46572e-08 2.67283e-14)
(0.12431 6.2475e-08 2.67254e-14)
(0.12431 4.95991e-08 2.67845e-14)
(0.12431 3.66881e-08 2.67309e-14)
(0.12431 2.4337e-08 2.6745e-14)
(0.12431 1.27342e-08 2.68113e-14)
(0.12431 3.66601e-09 2.68039e-14)
(0.12431 -3.76768e-09 2.6837e-14)
(0.12431 -4.36162e-09 2.67981e-14)
(0.12431 -2.83014e-09 2.67951e-14)
(0.12431 1.84126e-08 2.68281e-14)
(0.12514 5.81831e-08 2.72012e-14)
(0.12514 8.36309e-08 2.70893e-14)
(0.12514 9.93129e-08 2.71024e-14)
(0.12514 1.08011e-07 2.71067e-14)
(0.12514 1.11511e-07 2.71864e-14)
(0.12514 1.11192e-07 2.71613e-14)
(0.12514 1.07603e-07 2.71594e-14)
(0.12514 1.01461e-07 2.71751e-14)
(0.12514 9.32085e-08 2.71925e-14)
(0.12514 8.30894e-08 2.72069e-14)
(0.12514 7.1667e-08 2.72328e-14)
(0.12514 5.94238e-08 2.71235e-14)
(0.12514 4.67026e-08 2.71318e-14)
(0.12514 3.37092e-08 2.70785e-14)
(0.12514 2.09688e-08 2.71195e-14)
(0.12514 8.46477e-09 2.73273e-14)
(0.12514 -3.98416e-09 2.72172e-14)
(0.12514 -1.6094e-08 2.72337e-14)
(0.12514 -2.76271e-08 2.71546e-14)
(0.12514 -3.86049e-08 2.71988e-14)
(0.12514 -4.89563e-08 2.71875e-14)
(0.12514 -5.86476e-08 2.73155e-14)
(0.12514 -6.75512e-08 2.74978e-14)
(0.12514 -7.5766e-08 2.73439e-14)
(0.12514 -8.35356e-08 2.74601e-14)
(0.12514 -9.06275e-08 2.73761e-14)
(0.12514 -9.70505e-08 2.72788e-14)
(0.12514 -1.02817e-07 2.73673e-14)
(0.12514 -1.0802e-07 2.7291e-14)
(0.12514 -1.12875e-07 2.74033e-14)
(0.12514 -1.17379e-07 2.73245e-14)
(0.12514 -1.21563e-07 2.72474e-14)
(0.12514 -1.25343e-07 2.73566e-14)
(0.12514 -1.28875e-07 2.72735e-14)
(0.12514 -1.32469e-07 2.74054e-14)
(0.12514 -1.35736e-07 2.73025e-14)
(0.12514 -1.3873e-07 2.72327e-14)
(0.12514 -1.41505e-07 2.73401e-14)
(0.12514 -1.43896e-07 2.72699e-14)
(0.12514 -1.45796e-07 2.73426e-14)
(0.12514 -1.45819e-07 2.74961e-14)
(0.12514 -1.45093e-07 2.72971e-14)
(0.12514 -1.37537e-07 2.73826e-14)
(0.12514 -1.31721e-07 2.72268e-14)
(0.12514 -1.00322e-07 2.72704e-14)
(0.12514 6.61079e-08 2.71552e-14)
(0.12514 9.06853e-08 2.71357e-14)
(0.12514 9.98374e-08 2.71684e-14)
(0.12514 9.87988e-08 2.70409e-14)
(0.12514 9.15005e-08 2.71033e-14)
(0.12514 8.06527e-08 2.71734e-14)
(0.12514 6.80473e-08 2.71595e-14)
(0.12514 5.47353e-08 2.73012e-14)
(0.12514 4.13582e-08 2.71132e-14)
(0.12514 2.85618e-08 2.72405e-14)
(0.12514 1.64589e-08 2.72157e-14)
(0.12514 6.77358e-09 2.72401e-14)
(0.12514 -1.2222e-09 2.72809e-14)
(0.12514 -2.66064e-09 2.71887e-14)
(0.12514 -2.63713e-09 2.72262e-14)
(0.12514 1.85588e-08 2.7234e-14)
(0.125946 5.90492e-08 2.76189e-14)
(0.125946 8.38856e-08 2.74835e-14)
(0.125946 9.82713e-08 2.74743e-14)
(0.125946 1.05857e-07 2.74672e-14)
(0.125946 1.08466e-07 2.75332e-14)
(0.125947 1.07484e-07 2.75397e-14)
(0.125947 1.03506e-07 2.75408e-14)
(0.125947 9.70637e-08 2.75526e-14)
(0.125947 8.86052e-08 2.75608e-14)
(0.125947 7.83712e-08 2.75697e-14)
(0.125947 6.70201e-08 2.75818e-14)
(0.125947 5.48966e-08 2.7493e-14)
(0.125947 4.22711e-08 2.74773e-14)
(0.125947 2.95095e-08 2.74486e-14)
(0.125947 1.70033e-08 2.74816e-14)
(0.125947 4.72278e-09 2.75741e-14)
(0.125947 -7.5106e-09 2.75722e-14)
(0.125947 -1.94434e-08 2.75919e-14)
(0.125947 -3.07489e-08 2.75338e-14)
(0.125947 -4.14986e-08 2.75538e-14)
(0.125947 -5.16486e-08 2.75294e-14)
(0.125947 -6.10755e-08 2.75662e-14)
(0.125947 -6.97572e-08 2.77177e-14)
(0.125947 -7.77485e-08 2.76372e-14)
(0.125947 -8.53266e-08 2.7707e-14)
(0.125947 -9.22066e-08 2.76755e-14)
(0.125947 -9.84183e-08 2.75963e-14)
(0.125947 -1.03967e-07 2.76692e-14)
(0.125947 -1.08968e-07 2.76034e-14)
(0.125947 -1.13684e-07 2.76565e-14)
(0.125947 -1.17973e-07 2.76232e-14)
(0.125947 -1.2199e-07 2.75795e-14)
(0.125947 -1.25641e-07 2.76704e-14)
(0.125947 -1.2899e-07 2.75819e-14)
(0.125947 -1.32404e-07 2.76079e-14)
(0.125947 -1.35593e-07 2.76072e-14)
(0.125947 -1.38516e-07 2.75668e-14)
(0.125947 -1.41221e-07 2.7655e-14)
(0.125947 -1.43606e-07 2.75918e-14)
(0.125947 -1.45501e-07 2.75936e-14)
(0.125947 -1.45626e-07 2.77274e-14)
(0.125947 -1.45065e-07 2.75523e-14)
(0.125947 -1.37981e-07 2.76219e-14)
(0.125947 -1.32947e-07 2.75801e-14)
(0.125947 -1.01424e-07 2.76031e-14)
(0.125947 7.21496e-08 2.74363e-14)
(0.125947 9.67578e-08 2.7484e-14)
(0.125947 1.05762e-07 2.7445e-14)
(0.125947 1.04664e-07 2.73758e-14)
(0.125947 9.72235e-08 2.74624e-14)
(0.125947 8.61696e-08 2.74492e-14)
(0.125947 7.33045e-08 2.75091e-14)
(0.125947 5.96182e-08 2.76018e-14)
(0.125947 4.58303e-08 2.74442e-14)
(0.125947 3.26179e-08 2.75221e-14)
(0.125947 2.00749e-08 2.75306e-14)
(0.125947 9.8227e-09 2.75842e-14)
(0.125946 1.23005e-09 2.76477e-14)
(0.125946 -1.11004e-09 2.75414e-14)
(0.125946 -2.6741e-09 2.75832e-14)
(0.125946 1.84918e-08 2.75434e-14)
(0.126731 5.97307e-08 2.80121e-14)
(0.126731 8.39716e-08 2.79081e-14)
(0.126731 9.70682e-08 2.78605e-14)
(0.126731 1.03472e-07 2.7822e-14)
(0.126731 1.05157e-07 2.78894e-14)
(0.126731 1.03471e-07 2.79122e-14)
(0.126731 9.90589e-08 2.79183e-14)
(0.126731 9.23585e-08 2.7938e-14)
(0.126731 8.37024e-08 2.79251e-14)
(0.126731 7.33985e-08 2.79308e-14)
(0.126731 6.2133e-08 2.79088e-14)
(0.126731 5.01294e-08 2.78344e-14)
(0.126731 3.76779e-08 2.78489e-14)
(0.126731 2.51173e-08 2.78016e-14)
(0.126731 1.2865e-08 2.78842e-14)
(0.126731 7.88456e-10 2.79361e-14)
(0.126731 -1.12721e-08 2.79111e-14)
(0.126731 -2.28828e-08 2.79299e-14)
(0.126731 -3.3909e-08 2.78933e-14)
(0.126731 -4.44406e-08 2.79671e-14)
(0.126731 -5.43539e-08 2.79546e-14)
(0.126731 -6.35312e-08 2.79478e-14)
(0.126731 -7.1934e-08 2.79874e-14)
(0.126731 -7.97016e-08 2.79632e-14)
(0.126731 -8.70554e-08 2.80139e-14)
(0.126731 -9.36675e-08 2.80449e-14)
(0.126731 -9.96649e-08 2.79543e-14)
(0.126731 -1.04988e-07 2.79757e-14)
(0.126731 -1.09836e-07 2.79442e-14)
(0.126731 -1.14402e-07 2.79792e-14)
(0.126731 -1.184e-07 2.79655e-14)
(0.126731 -1.22185e-07 2.80007e-14)
(0.126731 -1.25707e-07 2.79606e-14)
(0.126731 -1.289e-07 2.79498e-14)
(0.126731 -1.32157e-07 2.79734e-14)
(0.126731 -1.35231e-07 2.79855e-14)
(0.126731 -1.38071e-07 2.79298e-14)
(0.126731 -1.40753e-07 2.7957e-14)
(0.126731 -1.43105e-07 2.79321e-14)
(0.126731 -1.44958e-07 2.79772e-14)
(0.126731 -1.45231e-07 2.8011e-14)
(0.126731 -1.44899e-07 2.78615e-14)
(0.126731 -1.38329e-07 2.78998e-14)
(0.126731 -1.34148e-07 2.79183e-14)
(0.126731 -1.02519e-07 2.79287e-14)
(0.126731 7.78834e-08 2.78008e-14)
(0.126731 1.02377e-07 2.78445e-14)
(0.126731 1.11073e-07 2.78107e-14)
(0.126731 1.09788e-07 2.76786e-14)
(0.126731 1.0232e-07 2.78214e-14)
(0.126731 9.11528e-08 2.7823e-14)
(0.126731 7.80271e-08 2.78737e-14)
(0.126731 6.41255e-08 2.79389e-14)
(0.126731 5.00368e-08 2.77747e-14)
(0.126731 3.64523e-08 2.78737e-14)
(0.126731 2.35275e-08 2.7892e-14)
(0.126731 1.26902e-08 2.79423e-14)
(0.126731 3.46295e-09 2.79918e-14)
(0.126731 2.43304e-10 2.78639e-14)
(0.126731 -2.94471e-09 2.7948e-14)
(0.126731 1.8204e-08 2.79153e-14)
(0.127493 6.02344e-08 2.83413e-14)
(0.127493 8.38633e-08 2.82857e-14)
(0.127493 9.565e-08 2.82343e-14)
(0.127493 1.00834e-07 2.81524e-14)
(0.127493 1.01601e-07 2.82595e-14)
(0.127493 9.91756e-08 2.82823e-14)
(0.127493 9.42813e-08 2.82904e-14)
(0.127493 8.73481e-08 2.82432e-14)
(0.127493 7.85528e-08 2.82776e-14)
(0.127493 6.82104e-08 2.82864e-14)
(0.127493 5.69739e-08 2.82179e-14)
(0.127493 4.51063e-08 2.81503e-14)
(0.127493 3.28725e-08 2.81386e-14)
(0.127493 2.05336e-08 2.81444e-14)
(0.127493 8.4946e-09 2.81582e-14)
(0.127493 -3.32588e-09 2.82232e-14)
(0.127493 -1.50803e-08 2.82374e-14)
(0.127493 -2.64156e-08 2.82612e-14)
(0.127493 -3.71883e-08 2.82354e-14)
(0.127494 -4.74419e-08 2.82324e-14)
(0.127494 -5.7063e-08 2.82335e-14)
(0.127494 -6.59548e-08 2.82508e-14)
(0.127494 -7.41337e-08 2.82775e-14)
(0.127494 -8.16519e-08 2.82811e-14)
(0.127494 -8.87176e-08 2.83248e-14)
(0.127494 -9.50871e-08 2.83197e-14)
(0.127494 -1.00798e-07 2.82845e-14)
(0.127494 -1.05884e-07 2.82775e-14)
(0.127494 -1.10582e-07 2.82699e-14)
(0.127494 -1.1493e-07 2.83045e-14)
(0.127494 -1.18673e-07 2.82822e-14)
(0.127494 -1.2224e-07 2.82689e-14)
(0.127494 -1.25589e-07 2.82528e-14)
(0.127494 -1.28621e-07 2.82464e-14)
(0.127494 -1.31675e-07 2.82648e-14)
(0.127494 -1.34635e-07 2.82873e-14)
(0.127494 -1.37433e-07 2.82758e-14)
(0.127494 -1.40046e-07 2.82582e-14)
(0.127494 -1.42353e-07 2.82649e-14)
(0.127494 -1.44227e-07 2.8275e-14)
(0.127494 -1.44669e-07 2.83035e-14)
(0.127494 -1.4455e-07 2.82176e-14)
(0.127494 -1.38558e-07 2.82091e-14)
(0.127494 -1.35403e-07 2.82473e-14)
(0.127494 -1.03587e-07 2.82585e-14)
(0.127493 8.32955e-08 2.81591e-14)
(0.127493 1.07597e-07 2.81331e-14)
(0.127493 1.15836e-07 2.8155e-14)
(0.127493 1.14261e-07 2.81102e-14)
(0.127493 1.06662e-07 2.81409e-14)
(0.127493 9.54625e-08 2.81851e-14)
(0.127493 8.22437e-08 2.81689e-14)
(0.127493 6.81709e-08 2.82051e-14)
(0.127493 5.38343e-08 2.814e-14)
(0.127493 3.99604e-08 2.81894e-14)
(0.127493 2.67438e-08 2.82463e-14)
(0.127493 1.53412e-08 2.82303e-14)
(0.127493 5.45408e-09 2.82593e-14)
(0.127493 1.33803e-09 2.82317e-14)
(0.127493 -3.57498e-09 2.82576e-14)
(0.127493 1.76254e-08 2.82721e-14)
(0.128234 6.04996e-08 2.86766e-14)
(0.128234 8.35263e-08 2.86354e-14)
(0.128234 9.39854e-08 2.86208e-14)
(0.128234 9.79772e-08 2.85391e-14)
(0.128234 9.77668e-08 2.86263e-14)
(0.128234 9.45886e-08 2.86425e-14)
(0.128234 8.92223e-08 2.86039e-14)
(0.128234 8.20575e-08 2.85412e-14)
(0.128234 7.30768e-08 2.8686e-14)
(0.128234 6.27416e-08 2.8607e-14)
(0.128234 5.16178e-08 2.84838e-14)
(0.128234 3.98596e-08 2.84515e-14)
(0.128234 2.78659e-08 2.84549e-14)
(0.128234 1.57437e-08 2.84792e-14)
(0.128234 3.93544e-09 2.84634e-14)
(0.128234 -7.60957e-09 2.85347e-14)
(0.128235 -1.90317e-08 2.85593e-14)
(0.128235 -3.00599e-08 2.85739e-14)
(0.128235 -4.05442e-08 2.85675e-14)
(0.128235 -5.04448e-08 2.85495e-14)
(0.128235 -5.97657e-08 2.85231e-14)
(0.128235 -6.8381e-08 2.85754e-14)
(0.128235 -7.63229e-08 2.85778e-14)
(0.128235 -8.3578e-08 2.85753e-14)
(0.128235 -9.03041e-08 2.86078e-14)
(0.128235 -9.64161e-08 2.85846e-14)
(0.128235 -1.01869e-07 2.8578e-14)
(0.128235 -1.06692e-07 2.8574e-14)
(0.128235 -1.11164e-07 2.8565e-14)
(0.128235 -1.15269e-07 2.8602e-14)
(0.128235 -1.1878e-07 2.85639e-14)
(0.128235 -1.22101e-07 2.85492e-14)
(0.128235 -1.2527e-07 2.85461e-14)
(0.128235 -1.28197e-07 2.85425e-14)
(0.128235 -1.31048e-07 2.85977e-14)
(0.128235 -1.33836e-07 2.85899e-14)
(0.128235 -1.36551e-07 2.85739e-14)
(0.128235 -1.39126e-07 2.85604e-14)
(0.128235 -1.4146e-07 2.85599e-14)
(0.128235 -1.43277e-07 2.85795e-14)
(0.128235 -1.43931e-07 2.85981e-14)
(0.128235 -1.44068e-07 2.85655e-14)
(0.128235 -1.3864e-07 2.85273e-14)
(0.128235 -1.36669e-07 2.8585e-14)
(0.128235 -1.04647e-07 2.85845e-14)
(0.128234 8.83583e-08 2.85224e-14)
(0.128234 1.12412e-07 2.84114e-14)
(0.128234 1.20083e-07 2.85028e-14)
(0.128234 1.18086e-07 2.85125e-14)
(0.128234 1.10372e-07 2.84711e-14)
(0.128234 9.91325e-08 2.85522e-14)
(0.128234 8.58347e-08 2.84541e-14)
(0.128234 7.16561e-08 2.84812e-14)
(0.128234 5.7183e-08 2.85227e-14)
(0.128234 4.31034e-08 2.8517e-14)
(0.128234 2.9602e-08 2.86067e-14)
(0.128234 1.76418e-08 2.85085e-14)
(0.128234 7.1495e-09 2.85334e-14)
(0.128234 2.11969e-09 2.85865e-14)
(0.128234 -4.57187e-09 2.85744e-14)
(0.128234 1.66842e-08 2.86317e-14)
(0.128954 6.05121e-08 2.90147e-14)
(0.128954 8.29442e-08 2.8965e-14)
(0.128954 9.20568e-08 2.8919e-14)
(0.128954 9.47932e-08 2.88953e-14)
(0.128954 9.36075e-08 2.88571e-14)
(0.128954 8.97616e-08 2.90614e-14)
(0.128954 8.3918e-08 2.87778e-14)
(0.128954 7.64404e-08 2.88357e-14)
(0.128954 6.73272e-08 2.88869e-14)
(0.128955 5.70406e-08 2.87188e-14)
(0.128955 4.59813e-08 2.8733e-14)
(0.128955 3.4389e-08 2.87507e-14)
(0.128955 2.26754e-08 2.87673e-14)
(0.128955 1.0769e-08 2.88114e-14)
(0.128955 -8.16548e-10 2.87665e-14)
(0.128955 -1.19941e-08 2.88624e-14)
(0.128955 -2.30284e-08 2.88784e-14)
(0.128955 -3.3787e-08 2.88839e-14)
(0.128955 -4.39642e-08 2.8896e-14)
(0.128955 -5.35171e-08 2.88534e-14)
(0.128955 -6.2519e-08 2.87692e-14)
(0.128955 -7.07849e-08 2.88675e-14)
(0.128955 -7.84818e-08 2.88774e-14)
(0.128955 -8.54876e-08 2.88672e-14)
(0.128955 -9.18447e-08 2.89237e-14)
(0.128955 -9.76685e-08 2.88706e-14)
(0.128955 -1.02829e-07 2.88631e-14)
(0.128955 -1.07398e-07 2.88646e-14)
(0.128955 -1.11622e-07 2.88572e-14)
(0.128955 -1.15418e-07 2.89226e-14)
(0.128955 -1.18745e-07 2.88173e-14)
(0.128955 -1.21883e-07 2.88342e-14)
(0.128955 -1.24784e-07 2.8838e-14)
(0.128955 -1.27533e-07 2.88421e-14)
(0.128955 -1.30223e-07 2.88894e-14)
(0.128955 -1.32865e-07 2.88891e-14)
(0.128955 -1.35476e-07 2.88717e-14)
(0.128955 -1.37986e-07 2.88606e-14)
(0.128955 -1.4031e-07 2.88577e-14)
(0.128955 -1.42155e-07 2.88779e-14)
(0.128955 -1.43064e-07 2.88893e-14)
(0.128955 -1.43443e-07 2.89032e-14)
(0.128955 -1.3862e-07 2.88397e-14)
(0.128955 -1.37989e-07 2.89288e-14)
(0.128955 -1.05721e-07 2.89047e-14)
(0.128954 9.31088e-08 2.88218e-14)
(0.128954 1.16872e-07 2.87331e-14)
(0.128954 1.23869e-07 2.88028e-14)
(0.128954 1.21384e-07 2.89153e-14)
(0.128954 1.13374e-07 2.87924e-14)
(0.128954 1.02088e-07 2.88563e-14)
(0.128954 8.8838e-08 2.87809e-14)
(0.128954 7.45959e-08 2.87734e-14)
(0.128954 6.00155e-08 2.89643e-14)
(0.128954 4.57556e-08 2.88352e-14)
(0.128954 3.20155e-08 2.89051e-14)
(0.128954 1.95324e-08 2.88285e-14)
(0.128954 8.52031e-09 2.88208e-14)
(0.128954 2.5993e-09 2.8947e-14)
(0.128954 -6.0106e-09 2.88827e-14)
(0.128954 1.53562e-08 2.89296e-14)
(0.129654 6.02246e-08 2.92935e-14)
(0.129654 8.2059e-08 2.92683e-14)
(0.129654 8.98443e-08 2.92341e-14)
(0.129654 9.1307e-08 2.9235e-14)
(0.129654 8.91324e-08 2.91204e-14)
(0.129654 8.46394e-08 2.92916e-14)
(0.129654 7.83383e-08 2.91267e-14)
(0.129654 7.05515e-08 2.9151e-14)
(0.129654 6.13287e-08 2.91404e-14)
(0.129654 5.10687e-08 2.89858e-14)
(0.129654 4.01202e-08 2.89871e-14)
(0.129654 2.87635e-08 2.90656e-14)
(0.129655 1.72457e-08 2.90788e-14)
(0.129655 5.61048e-09 2.91462e-14)
(0.129655 -5.67176e-09 2.91285e-14)
(0.129655 -1.65366e-08 2.9136e-14)
(0.129655 -2.71722e-08 2.91863e-14)
(0.129655 -3.76172e-08 2.91915e-14)
(0.129655 -4.74448e-08 2.92216e-14)
(0.129655 -5.65758e-08 2.92113e-14)
(0.129655 -6.52622e-08 2.91566e-14)
(0.129655 -7.32196e-08 2.91811e-14)
(0.129655 -8.05585e-08 2.91555e-14)
(0.129655 -8.72978e-08 2.91572e-14)
(0.129655 -9.33579e-08 2.91694e-14)
(0.129655 -9.88661e-08 2.9136e-14)
(0.129655 -1.03739e-07 2.91545e-14)
(0.129655 -1.08039e-07 2.91486e-14)
(0.129655 -1.11916e-07 2.91489e-14)
(0.129655 -1.15422e-07 2.91705e-14)
(0.129655 -1.18595e-07 2.91221e-14)
(0.129655 -1.21461e-07 2.91262e-14)
(0.129655 -1.2414e-07 2.91283e-14)
(0.129655 -1.26734e-07 2.91424e-14)
(0.129655 -1.29216e-07 2.91927e-14)
(0.129655 -1.31701e-07 2.91689e-14)
(0.129655 -1.34211e-07 2.917e-14)
(0.129655 -1.36662e-07 2.91583e-14)
(0.129655 -1.38973e-07 2.91593e-14)