/*--------------------------------*- C++ -*----------------------------------*\
  =========                 |
  \\      /  F ield         | OpenFOAM: The Open Source CFD Toolbox
   \\    /   O peration     | Website:  https://openfoam.org
    \\  /    A nd           | Version:  7
     \\/     M anipulation  |
\*---------------------------------------------------------------------------*/
FoamFile
{
    version     2.0;
    format      ascii;
    class       volVectorField;
    location    "2500";
    object      U;
}
// * * * * * * * * * * * * * * * * * * * * * * * * * * * * * * * * * * * * * //

dimensions      [0 1 -1 0 0 0 0];

internalField   nonuniform List<vector> 
4037
(
(0.124541 -9.41746e-08 5.17909e-16)
(0.124541 -8.53972e-08 4.41973e-16)
(0.124541 -7.15132e-08 1.36964e-16)
(0.124541 -6.22004e-08 3.14716e-16)
(0.12454 -5.55756e-08 1.63594e-16)
(0.12454 -5.03593e-08 4.47803e-17)
(0.12454 -4.59387e-08 6.07268e-17)
(0.12454 -4.20337e-08 -1.49176e-16)
(0.12454 -3.84916e-08 6.79934e-17)
(0.12454 -3.52169e-08 -1.66506e-16)
(0.12454 -3.21478e-08 -2.43712e-16)
(0.12454 -2.92409e-08 -1.83708e-16)
(0.12454 -2.6464e-08 -3.26468e-16)
(0.12454 -2.37919e-08 -1.39458e-16)
(0.12454 -2.12056e-08 -2.79601e-16)
(0.12454 -1.86923e-08 -3.77862e-16)
(0.12454 -1.6247e-08 -1.95799e-16)
(0.12454 -1.38727e-08 1.75051e-16)
(0.12454 -1.15795e-08 2.10435e-16)
(0.12454 -9.38267e-09 3.12819e-16)
(0.12454 -7.29913e-09 3.41381e-16)
(0.12454 -5.34389e-09 3.81488e-16)
(0.12454 -3.52677e-09 6.01864e-16)
(0.12454 -1.85042e-09 5.9706e-16)
(0.12454 -3.0997e-10 6.22432e-16)
(0.12454 1.10601e-09 6.20252e-16)
(0.12454 2.41346e-09 6.17212e-16)
(0.12454 3.63062e-09 8.43425e-16)
(0.12454 4.77595e-09 7.99341e-16)
(0.12454 5.86664e-09 9.72277e-16)
(0.124539 6.91786e-09 9.07e-16)
(0.124539 7.94269e-09 8.86038e-16)
(0.124539 8.95253e-09 1.13675e-15)
(0.124539 9.9579e-09 1.01396e-15)
(0.124539 1.0969e-08 1.22438e-15)
(0.124539 1.19959e-08 1.10769e-15)
(0.124539 1.30485e-08 1.07942e-15)
(0.124539 1.41359e-08 1.27111e-15)
(0.124539 1.52653e-08 1.19169e-15)
(0.124539 1.64414e-08 1.36232e-15)
(0.124539 1.76661e-08 1.28439e-15)
(0.124539 1.89376e-08 1.25338e-15)
(0.124539 2.02515e-08 1.47413e-15)
(0.124539 2.16004e-08 1.35813e-15)
(0.124539 2.29753e-08 1.48583e-15)
(0.124539 2.43664e-08 1.38335e-15)
(0.124539 2.57632e-08 1.36394e-15)
(0.124539 2.7156e-08 1.55618e-15)
(0.124539 2.85355e-08 1.46832e-15)
(0.124539 2.98932e-08 1.61304e-15)
(0.124539 3.12217e-08 1.52269e-15)
(0.124539 3.2514e-08 1.49053e-15)
(0.124539 3.37637e-08 1.65549e-15)
(0.124539 3.49645e-08 1.56822e-15)
(0.124539 3.61103e-08 1.7803e-15)
(0.124539 3.71951e-08 1.65007e-15)
(0.124539 3.82132e-08 1.59549e-15)
(0.124539 3.91592e-08 1.58532e-15)
(0.124539 4.00287e-08 1.58324e-15)
(0.124539 4.08181e-08 1.58119e-15)
(0.124539 4.15256e-08 1.59159e-15)
(0.124539 4.21507e-08 1.60932e-15)
(0.124539 4.26954e-08 1.62046e-15)
(0.124539 4.31631e-08 1.63102e-15)
(0.124539 4.35604e-08 1.63639e-15)
(0.124539 4.38938e-08 1.65946e-15)
(0.124539 4.4175e-08 1.66213e-15)
(0.124539 4.44096e-08 1.66882e-15)
(0.124539 4.46166e-08 1.6671e-15)
(0.124539 4.479e-08 1.66356e-15)
(0.124539 4.49699e-08 1.67742e-15)
(0.124539 4.51105e-08 1.68243e-15)
(0.124539 4.53524e-08 1.69101e-15)
(0.124539 4.54704e-08 1.69609e-15)
(0.124539 4.66335e-08 1.69484e-15)
(0.124539 4.57568e-08 1.71368e-15)
(0.124539 6.73967e-08 1.71332e-15)
(0.123431 -1.49851e-07 1.80735e-15)
(0.123431 -1.30334e-07 1.42843e-15)
(0.123431 -1.1929e-07 1.39589e-15)
(0.123431 -1.14098e-07 1.53379e-15)
(0.123431 -1.09139e-07 1.54868e-15)
(0.123431 -1.05451e-07 1.67341e-15)
(0.123431 -1.0158e-07 1.65091e-15)
(0.123431 -9.72666e-08 1.58638e-15)
(0.123431 -9.25134e-08 1.62875e-15)
(0.123431 -8.73397e-08 1.58444e-15)
(0.123431 -8.18407e-08 1.53038e-15)
(0.123431 -7.61312e-08 1.44222e-15)
(0.123431 -7.03591e-08 1.40044e-15)
(0.123431 -6.46765e-08 1.34263e-15)
(0.123431 -5.92512e-08 1.35753e-15)
(0.123431 -5.41768e-08 1.27941e-15)
(0.123431 -4.95969e-08 1.23967e-15)
(0.123431 -4.55248e-08 1.224e-15)
(0.123431 -4.21787e-08 1.18521e-15)
(0.123431 -3.97096e-08 1.22264e-15)
(0.123431 -3.81101e-08 1.05737e-15)
(0.123431 -3.9165e-08 8.58941e-16)
(0.123431 -3.85163e-08 8.70372e-16)
(0.123431 -6.4063e-08 6.7583e-16)
(0.123431 -8.73824e-08 5.59422e-16)
(0.123431 -7.56694e-08 5.03003e-16)
(0.123431 -6.39734e-08 2.22163e-16)
(0.123431 -5.62236e-08 3.15028e-16)
(0.123431 -5.02827e-08 1.82506e-16)
(0.123431 -4.54013e-08 1.42737e-16)
(0.123431 -4.11649e-08 1.26789e-16)
(0.123431 -3.73665e-08 -5.82485e-17)
(0.123431 -3.38872e-08 5.8532e-17)
(0.123431 -3.06509e-08 -9.46057e-17)
(0.123431 -2.76079e-08 -1.371e-16)
(0.123431 -2.47229e-08 -1.1457e-16)
(0.123431 -2.1969e-08 -2.77927e-16)
(0.123431 -1.93244e-08 -1.39875e-16)
(0.123431 -1.67723e-08 -2.53692e-16)
(0.123431 -1.43011e-08 -3.09263e-16)
(0.123431 -1.19061e-08 -1.96822e-16)
(0.12343 -9.59008e-09 7.16176e-17)
(0.12343 -7.36284e-09 2.09932e-16)
(0.12343 -5.23898e-09 2.96699e-16)
(0.12343 -3.23475e-09 3.3296e-16)
(0.12343 -1.36428e-09 3.60975e-16)
(0.12343 3.6353e-10 5.37005e-16)
(0.12343 1.94696e-09 5.96346e-16)
(0.12343 3.39173e-09 5.5789e-16)
(0.12343 4.70996e-09 6.13223e-16)
(0.12343 5.91811e-09 6.11181e-16)
(0.12343 7.03473e-09 7.84331e-16)
(0.12343 8.07849e-09 7.93808e-16)
(0.12343 9.06667e-09 9.24374e-16)
(0.12343 1.00145e-08 9.23419e-16)
(0.12343 1.0935e-08 8.91627e-16)
(0.12343 1.18398e-08 1.04087e-15)
(0.12343 1.27393e-08 1.02679e-15)
(0.12343 1.3644e-08 1.14174e-15)
(0.12343 1.45639e-08 1.13057e-15)
(0.12343 1.55094e-08 1.09069e-15)
(0.12343 1.64894e-08 1.23723e-15)
(0.12343 1.75114e-08 1.20024e-15)
(0.12343 1.85805e-08 1.32807e-15)
(0.12343 1.96983e-08 1.30898e-15)
(0.12343 2.08633e-08 1.26428e-15)
(0.12343 2.2071e-08 1.38296e-15)
(0.12343 2.33141e-08 1.36193e-15)
(0.12343 2.45838e-08 1.4535e-15)
(0.12343 2.58702e-08 1.40925e-15)
(0.12343 2.71632e-08 1.36828e-15)
(0.12343 2.8453e-08 1.5219e-15)
(0.12343 2.97307e-08 1.47638e-15)
(0.12343 3.0988e-08 1.58396e-15)
(0.12343 3.22176e-08 1.54405e-15)
(0.12343 3.34128e-08 1.49726e-15)
(0.12343 3.45673e-08 1.60798e-15)
(0.12343 3.56751e-08 1.57993e-15)
(0.12343 3.67301e-08 1.70652e-15)
(0.12343 3.77264e-08 1.66957e-15)
(0.12343 3.86583e-08 1.61849e-15)
(0.12343 3.95206e-08 1.5928e-15)
(0.12343 4.03088e-08 1.57873e-15)
(0.12343 4.10195e-08 1.56265e-15)
(0.12343 4.16506e-08 1.5624e-15)
(0.12343 4.22018e-08 1.57145e-15)
(0.12343 4.26748e-08 1.57931e-15)
(0.12343 4.30731e-08 1.58905e-15)
(0.12343 4.34029e-08 1.59368e-15)
(0.12343 4.36707e-08 1.60804e-15)
(0.12343 4.38876e-08 1.61427e-15)
(0.12343 4.40592e-08 1.6196e-15)
(0.12343 4.4204e-08 1.61851e-15)
(0.12343 4.43164e-08 1.61356e-15)
(0.12343 4.44344e-08 1.62252e-15)
(0.12343 4.4517e-08 1.63005e-15)
(0.12343 4.46886e-08 1.63858e-15)
(0.12343 4.47739e-08 1.64702e-15)
(0.12343 4.56807e-08 1.64969e-15)
(0.12343 4.51636e-08 1.66388e-15)
(0.12343 6.1232e-08 1.66822e-15)
(0.12343 8.14961e-08 1.67615e-15)
(0.12343 8.09199e-08 1.69139e-15)
(0.12343 7.44449e-08 1.69606e-15)
(0.12343 6.92861e-08 1.70516e-15)
(0.12343 6.62545e-08 1.70845e-15)
(0.12343 6.46146e-08 1.71395e-15)
(0.12343 6.39161e-08 1.72051e-15)
(0.12343 6.38565e-08 1.72204e-15)
(0.12343 6.43008e-08 1.73189e-15)
(0.12343 6.49958e-08 1.73832e-15)
(0.12343 6.58192e-08 1.72717e-15)
(0.12343 6.63234e-08 1.71166e-15)
(0.12343 6.59081e-08 1.6995e-15)
(0.12343 6.40796e-08 1.70507e-15)
(0.12343 5.75021e-08 1.70656e-15)
(0.12343 4.8377e-08 1.69898e-15)
(0.12343 2.10927e-08 1.69103e-15)
(0.123431 -8.54343e-09 1.68934e-15)
(0.123431 -8.7628e-08 1.67303e-15)
(0.122286 -1.6057e-07 1.79493e-15)
(0.122286 -1.38772e-07 1.34487e-15)
(0.122286 -1.26673e-07 1.3659e-15)
(0.122286 -1.20318e-07 1.50612e-15)
(0.122286 -1.14681e-07 1.51707e-15)
(0.122286 -1.10548e-07 1.59121e-15)
(0.122286 -1.06278e-07 1.56757e-15)
(0.122286 -1.01581e-07 1.58515e-15)
(0.122286 -9.64363e-08 1.56813e-15)
(0.122286 -9.08631e-08 1.50502e-15)
(0.122286 -8.49626e-08 1.5252e-15)
(0.122286 -7.88587e-08 1.29494e-15)
(0.122286 -7.27083e-08 1.41146e-15)
(0.122286 -6.66682e-08 1.25526e-15)
(0.122286 -6.09056e-08 1.39973e-15)
(0.122286 -5.55122e-08 1.32198e-15)
(0.122286 -5.06251e-08 1.16599e-15)
(0.122286 -4.62617e-08 1.25584e-15)
(0.122286 -4.26236e-08 1.06634e-15)
(0.122286 -3.9878e-08 1.2714e-15)
(0.122286 -3.79865e-08 1.07621e-15)
(0.122286 -3.86685e-08 9.16399e-16)
(0.122286 -3.81215e-08 9.00113e-16)
(0.122286 -5.64112e-08 6.543e-16)
(0.122286 -7.16569e-08 6.23521e-16)
(0.122286 -6.27417e-08 5.47803e-16)
(0.122286 -5.58015e-08 2.57393e-16)
(0.122286 -5.00644e-08 3.52773e-16)
(0.122286 -4.4968e-08 1.60711e-16)
(0.122286 -4.05195e-08 2.13517e-16)
(0.122286 -3.65306e-08 1.87963e-16)
(0.122285 -3.28822e-08 -2.89158e-17)
(0.122285 -2.9497e-08 9.63402e-17)
(0.122285 -2.63222e-08 -7.22518e-17)
(0.122285 -2.33221e-08 -4.83646e-17)
(0.122285 -2.04707e-08 -3.64036e-17)
(0.122285 -1.77473e-08 -2.42656e-16)
(0.122285 -1.51344e-08 -9.24348e-17)
(0.122285 -1.26178e-08 -2.44463e-16)
(0.122285 -1.01875e-08 -2.15807e-16)
(0.122285 -7.83968e-09 -1.341e-16)
(0.122285 -5.57756e-09 8.45455e-17)
(0.122285 -3.41086e-09 2.27366e-16)
(0.122285 -1.35396e-09 2.93237e-16)
(0.122285 5.77337e-10 3.48841e-16)
(0.122285 2.36951e-09 3.66554e-16)
(0.122285 4.01442e-09 5.14482e-16)
(0.122285 5.51113e-09 5.92111e-16)
(0.122285 6.86611e-09 5.91374e-16)
(0.122285 8.09206e-09 6.20645e-16)
(0.122285 9.2059e-09 6.17014e-16)
(0.122285 1.02265e-08 7.55485e-16)
(0.122285 1.11726e-08 7.87549e-16)
(0.122285 1.20618e-08 8.9984e-16)
(0.122285 1.29092e-08 9.30152e-16)
(0.122285 1.3728e-08 9.03935e-16)
(0.122285 1.45299e-08 1.01806e-15)
(0.122285 1.53254e-08 1.02818e-15)
(0.122285 1.6125e-08 1.12242e-15)
(0.122285 1.69392e-08 1.14096e-15)
(0.122285 1.77782e-08 1.10337e-15)
(0.122285 1.86515e-08 1.20285e-15)
(0.122284 1.95665e-08 1.19983e-15)
(0.122284 2.05285e-08 1.30228e-15)
(0.122284 2.15393e-08 1.31659e-15)
(0.122284 2.25975e-08 1.27591e-15)
(0.122284 2.36986e-08 1.3653e-15)
(0.122284 2.48356e-08 1.36027e-15)
(0.122284 2.59997e-08 1.42814e-15)
(0.122284 2.71812e-08 1.42098e-15)
(0.122284 2.83702e-08 1.3788e-15)
(0.122284 2.95571e-08 1.4818e-15)
(0.122284 3.07333e-08 1.47059e-15)
(0.122284 3.18907e-08 1.54939e-15)
(0.122284 3.30223e-08 1.54913e-15)
(0.122284 3.41217e-08 1.50376e-15)
(0.122284 3.51826e-08 1.58751e-15)
(0.122284 3.61993e-08 1.57892e-15)
(0.122284 3.71658e-08 1.6702e-15)
(0.122284 3.80764e-08 1.67086e-15)
(0.122284 3.89254e-08 1.62932e-15)
(0.122284 3.97076e-08 1.59655e-15)
(0.122284 4.04186e-08 1.57323e-15)
(0.122284 4.10549e-08 1.54656e-15)
(0.122284 4.16145e-08 1.53535e-15)
(0.122284 4.2097e-08 1.53447e-15)
(0.122284 4.25041e-08 1.54057e-15)
(0.122284 4.28389e-08 1.54886e-15)
(0.122284 4.31075e-08 1.54893e-15)
(0.122284 4.33161e-08 1.55796e-15)
(0.122284 4.34755e-08 1.56468e-15)
(0.122284 4.35911e-08 1.57084e-15)
(0.122284 4.36807e-08 1.57104e-15)
(0.122284 4.3739e-08 1.56416e-15)
(0.122284 4.38023e-08 1.56984e-15)
(0.122284 4.38337e-08 1.57682e-15)
(0.122284 4.39413e-08 1.58722e-15)
(0.122284 4.39975e-08 1.59902e-15)
(0.122284 4.4632e-08 1.60302e-15)
(0.122284 4.4567e-08 1.61533e-15)
(0.122284 5.09289e-08 1.62166e-15)
(0.122285 6.3717e-08 1.63291e-15)
(0.122285 6.94302e-08 1.6499e-15)
(0.122285 6.77997e-08 1.65393e-15)
(0.122285 6.47359e-08 1.66033e-15)
(0.122285 6.2511e-08 1.66372e-15)
(0.122285 6.12299e-08 1.67166e-15)
(0.122285 6.07155e-08 1.68002e-15)
(0.122285 6.0746e-08 1.68013e-15)
(0.122285 6.1213e-08 1.68495e-15)
(0.122285 6.18849e-08 1.69198e-15)
(0.122285 6.26303e-08 1.68684e-15)
(0.122285 6.30304e-08 1.67379e-15)
(0.122285 6.24194e-08 1.65956e-15)
(0.122285 6.04149e-08 1.6585e-15)
(0.122285 5.33786e-08 1.66008e-15)
(0.122285 4.40114e-08 1.65696e-15)
(0.122285 1.54105e-08 1.65075e-15)
(0.122285 -1.50093e-08 1.64523e-15)
(0.122285 -9.68346e-08 1.62252e-15)
(0.121102 -1.70763e-07 1.70991e-15)
(0.121102 -1.46131e-07 1.31494e-15)
(0.121102 -1.33e-07 1.3755e-15)
(0.121102 -1.2576e-07 1.51838e-15)
(0.121102 -1.19575e-07 1.48465e-15)
(0.121102 -1.15042e-07 1.53406e-15)
(0.121103 -1.10404e-07 1.47893e-15)
(0.121103 -1.05348e-07 1.48429e-15)
(0.121103 -9.98354e-08 1.49465e-15)
(0.121103 -9.38858e-08 1.4113e-15)
(0.121103 -8.76076e-08 1.41455e-15)
(0.121103 -8.11351e-08 1.31306e-15)
(0.121103 -7.46345e-08 1.34481e-15)
(0.121103 -6.82672e-08 1.24357e-15)
(0.121103 -6.21986e-08 1.3844e-15)
(0.121103 -5.65174e-08 1.24599e-15)
(0.121103 -5.13533e-08 1.16626e-15)
(0.121103 -4.6727e-08 1.20952e-15)
(0.121103 -4.28257e-08 1.10975e-15)
(0.121103 -3.98289e-08 1.31032e-15)
(0.121103 -3.76757e-08 9.89682e-16)
(0.121103 -3.79768e-08 9.46216e-16)
(0.121103 -3.75727e-08 9.26355e-16)
(0.121103 -4.76447e-08 6.99567e-16)
(0.121103 -5.65635e-08 6.87555e-16)
(0.121103 -5.20095e-08 5.81686e-16)
(0.121102 -4.82357e-08 3.15483e-16)
(0.121102 -4.41268e-08 4.34335e-16)
(0.121102 -3.98837e-08 2.59395e-16)
(0.121102 -3.58963e-08 3.09704e-16)
(0.121102 -3.21728e-08 2.04471e-16)
(0.121102 -2.86877e-08 8.5311e-17)
(0.121102 -2.54072e-08 1.8666e-16)
(0.121102 -2.23023e-08 -1.67738e-17)
(0.121102 -1.93515e-08 7.12914e-17)
(0.121102 -1.6538e-08 -9.61169e-18)
(0.121102 -1.38473e-08 -1.08285e-16)
(0.121102 -1.12663e-08 5.17818e-18)
(0.121102 -8.78358e-09 -1.7468e-16)
(0.121102 -6.39121e-09 -8.7833e-17)
(0.121102 -4.08642e-09 -3.09502e-17)
(0.121102 -1.87293e-09 1.59059e-16)
(0.121102 2.39278e-10 2.73272e-16)
(0.121102 2.23581e-09 3.3691e-16)
(0.121102 4.1011e-09 3.79124e-16)
(0.121102 5.82208e-09 3.88284e-16)
(0.121102 7.39119e-09 5.31476e-16)
(0.121102 8.80815e-09 5.98717e-16)
(0.121102 1.00801e-08 6.12822e-16)
(0.121102 1.12201e-08 6.36715e-16)
(0.121102 1.22456e-08 6.27934e-16)
(0.121102 1.31757e-08 7.60762e-16)
(0.121101 1.40294e-08 7.88376e-16)
(0.121101 1.48241e-08 9.03573e-16)
(0.121101 1.55754e-08 9.38933e-16)
(0.121101 1.62963e-08 9.1684e-16)
(0.121101 1.69986e-08 1.02571e-15)
(0.121101 1.76932e-08 1.03031e-15)
(0.121101 1.83906e-08 1.12737e-15)
(0.121101 1.91015e-08 1.14867e-15)
(0.121101 1.98363e-08 1.11218e-15)
(0.121101 2.06047e-08 1.20595e-15)
(0.121101 2.14144e-08 1.20075e-15)
(0.121101 2.22707e-08 1.29988e-15)
(0.121101 2.31756e-08 1.31959e-15)
(0.121101 2.4128e-08 1.28288e-15)
(0.121101 2.51234e-08 1.37218e-15)
(0.121101 2.6155e-08 1.35787e-15)
(0.121101 2.72142e-08 1.42896e-15)
(0.121101 2.82916e-08 1.42727e-15)
(0.121101 2.93774e-08 1.38478e-15)
(0.121101 3.04624e-08 1.47767e-15)
(0.121101 3.15382e-08 1.46358e-15)
(0.121101 3.25971e-08 1.54234e-15)
(0.121101 3.36323e-08 1.54791e-15)
(0.121101 3.46376e-08 1.5039e-15)
(0.121101 3.56072e-08 1.58941e-15)
(0.121101 3.65352e-08 1.57412e-15)
(0.121101 3.7416e-08 1.6604e-15)
(0.121101 3.82439e-08 1.66552e-15)
(0.121101 3.90134e-08 1.62793e-15)
(0.121101 3.97193e-08 1.59406e-15)
(0.121101 4.03572e-08 1.56392e-15)
(0.121101 4.09236e-08 1.5262e-15)
(0.121101 4.14166e-08 1.50644e-15)
(0.121101 4.18357e-08 1.49766e-15)
(0.121101 4.21823e-08 1.50404e-15)
(0.121101 4.24594e-08 1.50995e-15)
(0.121101 4.2673e-08 1.50246e-15)
(0.121101 4.28288e-08 1.50869e-15)
(0.121101 4.29373e-08 1.51481e-15)
(0.121101 4.30037e-08 1.52357e-15)
(0.121101 4.30449e-08 1.52443e-15)
(0.121101 4.30562e-08 1.51344e-15)
(0.121101 4.30717e-08 1.51861e-15)
(0.121101 4.30584e-08 1.52461e-15)
(0.121101 4.31091e-08 1.53792e-15)
(0.121101 4.31372e-08 1.55226e-15)
(0.121101 4.35199e-08 1.55453e-15)
(0.121101 4.38666e-08 1.5675e-15)
(0.121101 4.21815e-08 1.57552e-15)
(0.121101 4.83612e-08 1.59153e-15)
(0.121101 5.86814e-08 1.61013e-15)
(0.121102 6.09416e-08 1.6106e-15)
(0.121102 5.99262e-08 1.61685e-15)
(0.121102 5.86607e-08 1.62054e-15)
(0.121102 5.78407e-08 1.63153e-15)
(0.121102 5.75636e-08 1.64094e-15)
(0.121102 5.77146e-08 1.63604e-15)
(0.121102 5.82239e-08 1.63878e-15)
(0.121102 5.88871e-08 1.648e-15)
(0.121102 5.95668e-08 1.64653e-15)
(0.121102 5.98759e-08 1.63386e-15)
(0.121102 5.90874e-08 1.6161e-15)
(0.121102 5.69293e-08 1.61171e-15)
(0.121102 4.94803e-08 1.6144e-15)
(0.121102 3.99249e-08 1.61428e-15)
(0.121102 1.01279e-08 1.60923e-15)
(0.121102 -2.08995e-08 1.60025e-15)
(0.121102 -1.05649e-07 1.57979e-15)
(0.119879 -1.80578e-07 1.61013e-15)
(0.119879 -1.52024e-07 1.37676e-15)
(0.119879 -1.38145e-07 1.43192e-15)
(0.119879 -1.30307e-07 1.54713e-15)
(0.119879 -1.23727e-07 1.43703e-15)
(0.119879 -1.18873e-07 1.5008e-15)
(0.119879 -1.13908e-07 1.37234e-15)
(0.119879 -1.08524e-07 1.38787e-15)
(0.119879 -1.0267e-07 1.41906e-15)
(0.119879 -9.63701e-08 1.29534e-15)
(0.119879 -8.97421e-08 1.30715e-15)
(0.119879 -8.29315e-08 1.27835e-15)
(0.119879 -7.61134e-08 1.29122e-15)
(0.119879 -6.94525e-08 1.23037e-15)
(0.119879 -6.31113e-08 1.29307e-15)
(0.119879 -5.71748e-08 1.21733e-15)
(0.119879 -5.17657e-08 1.16683e-15)
(0.119879 -4.69077e-08 1.17464e-15)
(0.119879 -4.27744e-08 1.1094e-15)
(0.119879 -3.95547e-08 1.17228e-15)
(0.119879 -3.71689e-08 1.04896e-15)
(0.119879 -3.71138e-08 9.73126e-16)
(0.119879 -3.67289e-08 9.43812e-16)
(0.119879 -4.2937e-08 7.9368e-16)
(0.119879 -4.76449e-08 7.68041e-16)
(0.119879 -4.37895e-08 6.96992e-16)
(0.119879 -4.15583e-08 5.58962e-16)
(0.119879 -3.86736e-08 5.51592e-16)
(0.119879 -3.51906e-08 4.13008e-16)
(0.119879 -3.16401e-08 4.47364e-16)
(0.119879 -2.81732e-08 4.06625e-16)
(0.119879 -2.48474e-08 3.02053e-16)
(0.119878 -2.16702e-08 3.21749e-16)
(0.119878 -1.86349e-08 2.26153e-16)
(0.119878 -1.57335e-08 2.24059e-16)
(0.119878 -1.29576e-08 2.13208e-16)
(0.119878 -1.02987e-08 1.09284e-16)
(0.119878 -7.74783e-09 1.5186e-16)
(0.119878 -5.29642e-09 6.79812e-17)
(0.119878 -2.93833e-09 8.55822e-17)
(0.119878 -6.71968e-10 9.96449e-17)
(0.119878 1.49824e-09 2.89495e-16)
(0.119878 3.56195e-09 3.42715e-16)
(0.119878 5.5046e-09 3.91356e-16)
(0.119878 7.31075e-09 4.21292e-16)
(0.119878 8.9676e-09 4.21882e-16)
(0.119878 1.04681e-08 5.90213e-16)
(0.119878 1.18125e-08 6.1747e-16)
(0.119878 1.30083e-08 6.38452e-16)
(0.119878 1.40693e-08 6.563e-16)
(0.119878 1.50129e-08 6.43158e-16)
(0.119878 1.58586e-08 8.03663e-16)
(0.119878 1.66255e-08 7.96517e-16)
(0.119878 1.73312e-08 9.40748e-16)
(0.119878 1.79912e-08 9.51872e-16)
(0.119878 1.8619e-08 9.30586e-16)
(0.119878 1.92262e-08 1.06618e-15)
(0.119878 1.98238e-08 1.0335e-15)
(0.119878 2.04228e-08 1.15916e-15)
(0.119878 2.10338e-08 1.15513e-15)
(0.119878 2.16676e-08 1.11772e-15)
(0.119878 2.2334e-08 1.24105e-15)
(0.119878 2.3041e-08 1.20081e-15)
(0.119878 2.3794e-08 1.32431e-15)
(0.119878 2.45953e-08 1.3192e-15)
(0.119878 2.54438e-08 1.28524e-15)
(0.119878 2.63353e-08 1.4056e-15)
(0.119878 2.72632e-08 1.35291e-15)
(0.119878 2.82192e-08 1.45426e-15)
(0.119878 2.91941e-08 1.42855e-15)
(0.119878 3.01784e-08 1.385e-15)
(0.119878 3.11633e-08 1.50437e-15)
(0.119878 3.21407e-08 1.45383e-15)
(0.119878 3.31031e-08 1.56005e-15)
(0.119878 3.40442e-08 1.54059e-15)
(0.119878 3.49579e-08 1.4968e-15)
(0.119878 3.58386e-08 1.61579e-15)
(0.119878 3.66809e-08 1.56448e-15)
(0.119878 3.74791e-08 1.67494e-15)
(0.119878 3.82278e-08 1.65499e-15)
(0.119878 3.89214e-08 1.61581e-15)
(0.119878 3.95549e-08 1.58438e-15)
(0.119878 4.0124e-08 1.54797e-15)
(0.119878 4.06252e-08 1.49781e-15)
(0.119878 4.10565e-08 1.47342e-15)
(0.119878 4.14173e-08 1.45891e-15)
(0.119878 4.1709e-08 1.47027e-15)
(0.119878 4.19344e-08 1.47154e-15)
(0.119878 4.20989e-08 1.45268e-15)
(0.119878 4.22083e-08 1.46008e-15)
(0.119878 4.22724e-08 1.46516e-15)
(0.119878 4.22961e-08 1.47919e-15)
(0.119878 4.22958e-08 1.47852e-15)
(0.119878 4.22668e-08 1.45987e-15)
(0.119878 4.22415e-08 1.46903e-15)
(0.119878 4.219e-08 1.47386e-15)
(0.119878 4.21913e-08 1.49154e-15)
(0.119878 4.21914e-08 1.50656e-15)
(0.119878 4.23627e-08 1.50335e-15)
(0.119878 4.29183e-08 1.52052e-15)
(0.119878 3.81516e-08 1.53046e-15)
(0.119878 4.01204e-08 1.55357e-15)
(0.119878 5.06636e-08 1.57191e-15)
(0.119878 5.48221e-08 1.56535e-15)
(0.119878 5.53589e-08 1.57492e-15)
(0.119878 5.4976e-08 1.57857e-15)
(0.119878 5.46164e-08 1.59436e-15)
(0.119878 5.45802e-08 1.60328e-15)
(0.119878 5.48525e-08 1.58982e-15)
(0.119878 5.54043e-08 1.59395e-15)
(0.119878 5.60593e-08 1.60619e-15)
(0.119878 5.66758e-08 1.60572e-15)
(0.119878 5.68986e-08 1.59086e-15)
(0.119878 5.59444e-08 1.56825e-15)
(0.119878 5.36496e-08 1.56444e-15)
(0.119878 4.583e-08 1.57024e-15)
(0.119878 3.61356e-08 1.57193e-15)
(0.119878 5.25641e-09 1.56655e-15)
(0.119878 -2.61578e-08 1.55355e-15)
(0.119878 -1.14492e-07 1.5402e-15)
(0.118612 -1.89911e-07 1.5232e-15)
(0.118612 -1.56905e-07 1.46397e-15)
(0.118612 -1.42209e-07 1.5015e-15)
(0.118612 -1.33907e-07 1.47697e-15)
(0.118612 -1.27072e-07 1.34749e-15)
(0.118612 -1.21983e-07 1.51993e-15)
(0.118612 -1.16746e-07 1.27581e-15)
(0.118612 -1.1107e-07 1.30045e-15)
(0.118612 -1.04905e-07 1.34481e-15)
(0.118612 -9.82843e-08 1.12784e-15)
(0.118612 -9.13383e-08 1.21122e-15)
(0.118612 -8.42243e-08 1.23641e-15)
(0.118612 -7.7125e-08 1.24086e-15)
(0.118612 -7.02071e-08 1.2101e-15)
(0.118612 -6.36289e-08 1.2187e-15)
(0.118612 -5.74717e-08 1.19157e-15)
(0.118612 -5.18516e-08 1.15389e-15)
(0.118612 -4.6795e-08 1.14265e-15)
(0.118612 -4.24629e-08 1.09497e-15)
(0.118612 -3.90503e-08 1.09607e-15)
(0.118612 -3.64611e-08 1.03502e-15)
(0.118612 -3.60862e-08 9.94391e-16)
(0.118612 -3.56284e-08 9.54908e-16)
(0.118612 -3.97719e-08 8.77329e-16)
(0.118612 -4.16697e-08 8.49821e-16)
(0.118612 -3.74303e-08 8.08326e-16)
(0.118612 -3.58763e-08 7.48448e-16)
(0.118612 -3.38135e-08 6.82658e-16)
(0.118612 -3.09491e-08 6.07081e-16)
(0.118612 -2.77902e-08 5.96387e-16)
(0.118612 -2.45625e-08 5.67933e-16)
(0.118612 -2.1387e-08 5.20184e-16)
(0.118612 -1.83082e-08 4.76081e-16)
(0.118612 -1.53399e-08 4.28293e-16)
(0.118612 -1.24861e-08 3.97215e-16)
(0.118612 -9.74634e-09 3.92654e-16)
(0.118611 -7.1176e-09 3.45701e-16)
(0.118611 -4.59472e-09 3.17352e-16)
(0.118611 -2.17185e-09 2.83095e-16)
(0.118611 1.55384e-10 2.79531e-16)
(0.118611 2.38745e-09 2.5118e-16)
(0.118611 4.51922e-09 3.61126e-16)
(0.118611 6.53986e-09 4.19565e-16)
(0.118611 8.43462e-09 4.59721e-16)
(0.118611 1.0188e-08 4.72708e-16)
(0.118611 1.17875e-08 4.66347e-16)
(0.118611 1.32263e-08 5.82491e-16)
(0.118611 1.45051e-08 6.36673e-16)
(0.118611 1.56319e-08 6.68792e-16)
(0.118611 1.66207e-08 6.78171e-16)
(0.118611 1.74892e-08 6.63793e-16)
(0.118611 1.82569e-08 7.76147e-16)
(0.118611 1.89432e-08 8.02491e-16)
(0.118611 1.95658e-08 9.06442e-16)
(0.118611 2.01403e-08 9.60673e-16)
(0.118611 2.06801e-08 9.48979e-16)
(0.118611 2.11973e-08 1.03038e-15)
(0.118611 2.17029e-08 1.02749e-15)
(0.118611 2.2208e-08 1.11194e-15)
(0.118611 2.27236e-08 1.15236e-15)
(0.118611 2.32605e-08 1.12418e-15)
(0.118611 2.38287e-08 1.19707e-15)
(0.118611 2.44365e-08 1.18877e-15)
(0.118611 2.50895e-08 1.2688e-15)
(0.118611 2.57902e-08 1.30545e-15)
(0.118611 2.65377e-08 1.28591e-15)
(0.118611 2.73281e-08 1.35764e-15)
(0.118611 2.8155e-08 1.33483e-15)
(0.118611 2.90103e-08 1.39688e-15)
(0.118611 2.98852e-08 1.41634e-15)
(0.118611 3.07706e-08 1.38261e-15)
(0.118611 3.16579e-08 1.45021e-15)
(0.118611 3.25394e-08 1.43034e-15)
(0.118611 3.34081e-08 1.49404e-15)
(0.118611 3.42578e-08 1.51836e-15)
(0.118611 3.50828e-08 1.48561e-15)
(0.118611 3.58779e-08 1.55893e-15)
(0.118611 3.66377e-08 1.53983e-15)
(0.118611 3.73568e-08 1.60562e-15)
(0.118611 3.80298e-08 1.63129e-15)
(0.118611 3.86514e-08 1.59487e-15)
(0.118611 3.92167e-08 1.56815e-15)
(0.118611 3.97214e-08 1.52225e-15)
(0.118611 4.0162e-08 1.45774e-15)
(0.118611 4.05366e-08 1.43581e-15)
(0.118611 4.08443e-08 1.41661e-15)
(0.118611 4.10865e-08 1.44174e-15)
(0.118611 4.12657e-08 1.43232e-15)
(0.118611 4.13872e-08 1.39726e-15)
(0.118611 4.14561e-08 1.41341e-15)
(0.118611 4.14821e-08 1.41577e-15)
(0.118611 4.14696e-08 1.44038e-15)
(0.118611 4.14342e-08 1.43248e-15)
(0.118611 4.13716e-08 1.40121e-15)
(0.118611 4.1312e-08 1.42333e-15)
(0.118611 4.12286e-08 1.42488e-15)
(0.118611 4.11878e-08 1.44867e-15)
(0.118611 4.1161e-08 1.46081e-15)
(0.118611 4.11604e-08 1.44791e-15)
(0.118611 4.179e-08 1.47555e-15)
(0.118611 3.58879e-08 1.48669e-15)
(0.118611 3.52853e-08 1.52147e-15)
(0.118611 4.48248e-08 1.53424e-15)
(0.118611 4.97536e-08 1.51618e-15)
(0.118611 5.1318e-08 1.53554e-15)
(0.118611 5.16324e-08 1.53795e-15)
(0.118611 5.16679e-08 1.56097e-15)
(0.118611 5.18421e-08 1.56614e-15)
(0.118611 5.22173e-08 1.53969e-15)
(0.118611 5.27988e-08 1.55242e-15)
(0.118611 5.34372e-08 1.56669e-15)
(0.118611 5.3986e-08 1.56356e-15)
(0.118611 5.41221e-08 1.54355e-15)
(0.118611 5.30097e-08 1.51492e-15)
(0.118611 5.0591e-08 1.51744e-15)
(0.118611 4.244e-08 1.52844e-15)
(0.118611 3.26514e-08 1.53019e-15)
(0.118612 8.02551e-10 1.52235e-15)
(0.118612 -3.07774e-08 1.50407e-15)
(0.118612 -1.22921e-07 1.50252e-15)
(0.117298 -1.98619e-07 1.44061e-15)
(0.117298 -1.60964e-07 1.42932e-15)
(0.117299 -1.45301e-07 1.47526e-15)
(0.117299 -1.36571e-07 1.34687e-15)
(0.117299 -1.29577e-07 1.21409e-15)
(0.117299 -1.24332e-07 1.36009e-15)
(0.117299 -1.18878e-07 1.22988e-15)
(0.117299 -1.12952e-07 1.2473e-15)
(0.117299 -1.0651e-07 1.26255e-15)
(0.117299 -9.96023e-08 1.13871e-15)
(0.117299 -9.23745e-08 1.1505e-15)
(0.117299 -8.49957e-08 1.23638e-15)
(0.117299 -7.76552e-08 1.18644e-15)
(0.117299 -7.05201e-08 1.1874e-15)
(0.117299 -6.37434e-08 1.15167e-15)
(0.117299 -5.74024e-08 1.14985e-15)
(0.117299 -5.16072e-08 1.12786e-15)
(0.117299 -4.63867e-08 1.10613e-15)
(0.117299 -4.189e-08 1.08207e-15)
(0.117299 -3.83159e-08 1.02201e-15)
(0.117299 -3.55534e-08 9.89649e-16)
(0.117299 -3.48979e-08 1.01435e-15)
(0.117299 -3.43109e-08 9.58078e-16)
(0.117299 -3.71648e-08 9.61806e-16)
(0.117299 -3.72221e-08 9.31965e-16)
(0.117299 -3.24515e-08 9.57094e-16)
(0.117298 -3.10894e-08 9.01131e-16)
(0.117298 -2.95239e-08 8.05019e-16)
(0.117298 -2.71421e-08 7.5834e-16)
(0.117298 -2.43296e-08 7.51074e-16)
(0.117298 -2.1327e-08 7.11611e-16)
(0.117298 -1.82972e-08 7.53275e-16)
(0.117298 -1.53151e-08 6.28617e-16)
(0.117298 -1.24133e-08 6.63959e-16)
(0.117298 -9.60722e-09 5.8278e-16)
(0.117298 -6.90376e-09 5.50973e-16)
(0.117298 -4.30494e-09 6.10835e-16)
(0.117298 -1.80931e-09 4.828e-16)
(0.117298 5.8643e-10 4.70463e-16)
(0.117298 2.88497e-09 4.82312e-16)
(0.117298 5.08568e-09 4.1037e-16)
(0.117298 7.18265e-09 4.68184e-16)
(0.117298 9.16459e-09 5.10062e-16)
(0.117298 1.10164e-08 5.39689e-16)
(0.117298 1.27226e-08 5.28894e-16)
(0.117298 1.42706e-08 5.18145e-16)
(0.117298 1.56541e-08 6.10081e-16)
(0.117298 1.68739e-08 6.6667e-16)
(0.117298 1.79384e-08 7.05165e-16)
(0.117298 1.88617e-08 7.00203e-16)
(0.117298 1.96616e-08 6.87878e-16)
(0.117298 2.0358e-08 7.79251e-16)
(0.117298 2.09701e-08 8.14956e-16)
(0.117298 2.15157e-08 9.04505e-16)
(0.117298 2.20107e-08 9.76862e-16)
(0.117298 2.24685e-08 9.69332e-16)
(0.117298 2.29013e-08 1.01732e-15)
(0.117298 2.33203e-08 1.02037e-15)
(0.117298 2.37368e-08 1.0893e-15)
(0.117298 2.41619e-08 1.15203e-15)
(0.117298 2.46067e-08 1.12941e-15)
(0.117298 2.50813e-08 1.17437e-15)
(0.117298 2.55943e-08 1.17267e-15)
(0.117298 2.61514e-08 1.23516e-15)
(0.117298 2.67554e-08 1.28876e-15)
(0.117298 2.74056e-08 1.28147e-15)
(0.117298 2.80983e-08 1.32807e-15)
(0.117298 2.88275e-08 1.31172e-15)
(0.117298 2.95855e-08 1.3582e-15)
(0.117298 3.03636e-08 1.40718e-15)
(0.117298 3.11532e-08 1.37522e-15)
(0.117298 3.19462e-08 1.41386e-15)
(0.117298 3.27351e-08 1.40111e-15)
(0.117298 3.35133e-08 1.44575e-15)
(0.117298 3.4275e-08 1.49799e-15)
(0.117298 3.50148e-08 1.46819e-15)
(0.117298 3.57277e-08 1.51882e-15)
(0.117298 3.64086e-08 1.50853e-15)
(0.117298 3.70523e-08 1.55384e-15)
(0.117298 3.76536e-08 1.61124e-15)
(0.117298 3.82073e-08 1.56388e-15)
(0.117298 3.87086e-08 1.54994e-15)
(0.117298 3.91532e-08 1.48264e-15)
(0.117298 3.95379e-08 1.40224e-15)
(0.117298 3.98605e-08 1.39838e-15)
(0.117298 4.01202e-08 1.36948e-15)
(0.117298 4.03181e-08 1.42448e-15)
(0.117298 4.04566e-08 1.38921e-15)
(0.117298 4.05406e-08 1.33334e-15)
(0.117298 4.0575e-08 1.37367e-15)
(0.117298 4.05687e-08 1.36582e-15)
(0.117298 4.05261e-08 1.41385e-15)
(0.117298 4.04619e-08 1.38406e-15)
(0.117298 4.03719e-08 1.33456e-15)
(0.117298 4.02843e-08 1.38787e-15)
(0.117298 4.0175e-08 1.37747e-15)
(0.117298 4.00989e-08 1.40847e-15)
(0.117298 4.00479e-08 1.41208e-15)
(0.117298 3.99082e-08 1.38591e-15)
(0.117298 4.0533e-08 1.43792e-15)
(0.117298 3.42824e-08 1.44384e-15)
(0.117298 3.21759e-08 1.49941e-15)
(0.117298 4.05573e-08 1.49465e-15)
(0.117298 4.56654e-08 1.46059e-15)
(0.117298 4.78587e-08 1.49925e-15)
(0.117298 4.86871e-08 1.49835e-15)
(0.117298 4.90371e-08 1.53079e-15)
(0.117298 4.93796e-08 1.52681e-15)
(0.117298 4.98314e-08 1.48295e-15)
(0.117298 5.04248e-08 1.52103e-15)
(0.117298 5.10344e-08 1.52927e-15)
(0.117298 5.15081e-08 1.51807e-15)
(0.117298 5.15546e-08 1.49004e-15)
(0.117298 5.02895e-08 1.45505e-15)
(0.117298 4.77576e-08 1.47233e-15)
(0.117298 3.93127e-08 1.48987e-15)
(0.117298 2.94716e-08 1.48862e-15)
(0.117298 -3.23282e-09 1.4756e-15)
(0.117298 -3.47754e-08 1.45078e-15)
(0.117298 -1.30709e-07 1.46612e-15)
(0.115935 -2.06564e-07 1.41082e-15)
(0.115935 -1.64249e-07 1.39728e-15)
(0.115935 -1.47508e-07 1.42529e-15)
(0.115935 -1.38337e-07 1.3471e-15)
(0.115935 -1.31236e-07 1.23163e-15)
(0.115935 -1.25895e-07 1.21595e-15)
(0.115935 -1.20277e-07 1.19337e-15)
(0.115935 -1.14142e-07 1.20459e-15)
(0.115935 -1.07461e-07 1.14848e-15)
(0.115935 -1.00305e-07 1.09938e-15)
(0.115935 -9.28356e-08 1.10791e-15)
(0.115935 -8.52344e-08 1.12972e-15)
(0.115935 -7.76964e-08 1.12591e-15)
(0.115935 -7.0387e-08 1.10669e-15)
(0.115935 -6.3453e-08 9.97943e-16)
(0.115935 -5.69673e-08 1.10959e-15)
(0.115935 -5.10343e-08 1.09109e-15)
(0.115935 -4.56858e-08 1.06111e-15)
(0.115935 -4.10596e-08 1.00792e-15)
(0.115935 -3.73563e-08 8.77213e-16)
(0.115935 -3.4451e-08 9.4583e-16)
(0.115935 -3.35542e-08 9.77478e-16)
(0.115935 -3.2811e-08 9.49438e-16)
(0.115935 -3.48042e-08 1.00534e-15)
(0.115935 -3.36849e-08 9.55713e-16)
(0.115935 -2.84532e-08 9.86714e-16)
(0.115935 -2.7021e-08 1.02844e-15)
(0.115935 -2.57227e-08 9.00676e-16)
(0.115935 -2.37103e-08 9.14992e-16)
(0.115935 -2.12066e-08 8.42801e-16)
(0.115935 -1.8423e-08 8.56579e-16)
(0.115935 -1.55422e-08 9.2701e-16)
(0.115935 -1.26622e-08 7.57335e-16)
(0.115935 -9.83227e-09 8.24475e-16)
(0.115935 -7.07862e-09 7.09212e-16)
(0.115935 -4.41523e-09 7.23094e-16)
(0.115935 -1.84919e-09 7.39672e-16)
(0.115935 6.17311e-10 6.34118e-16)