/*--------------------------------*- C++ -*----------------------------------*\
  =========                 |
  \\      /  F ield         | OpenFOAM: The Open Source CFD Toolbox
   \\    /   O peration     | Website:  https://openfoam.org
    \\  /    A nd           | Version:  7
     \\/     M anipulation  |
\*---------------------------------------------------------------------------*/
FoamFile
{
    version     2.0;
    format      ascii;
    class       volScalarField;
    location    "17500";
    object      k;
}
// * * * * * * * * * * * * * * * * * * * * * * * * * * * * * * * * * * * * * //

dimensions      [0 2 -2 0 0 0 0];

internalField   nonuniform List<scalar> 
4000
(
6.87306e-09
6.87339e-09
6.87351e-09
6.87344e-09
6.87328e-09
6.87308e-09
6.87288e-09
6.87269e-09
6.87252e-09
6.87236e-09
6.87224e-09
6.87215e-09
6.87209e-09
6.87204e-09
6.872e-09
6.87197e-09
6.87195e-09
6.87194e-09
6.87195e-09
6.87197e-09
6.87199e-09
6.87202e-09
6.87206e-09
6.8721e-09
6.87215e-09
6.8722e-09
6.87225e-09
6.8723e-09
6.87236e-09
6.87241e-09
6.87247e-09
6.87253e-09
6.87258e-09
6.87264e-09
6.87268e-09
6.87273e-09
6.87278e-09
6.87282e-09
6.87286e-09
6.87291e-09
6.87296e-09
6.87299e-09
6.87301e-09
6.87304e-09
6.87307e-09
6.8731e-09
6.87312e-09
6.87315e-09
6.87317e-09
6.87319e-09
6.87321e-09
6.87323e-09
6.87325e-09
6.87327e-09
6.87329e-09
6.8733e-09
6.87331e-09
6.87331e-09
6.87331e-09
6.8733e-09
6.87328e-09
6.87326e-09
6.87323e-09
6.87319e-09
6.87315e-09
6.87311e-09
6.87307e-09
6.87302e-09
6.87297e-09
6.87293e-09
6.87289e-09
6.87284e-09
6.8728e-09
6.87276e-09
6.87272e-09
6.87268e-09
6.87265e-09
6.87263e-09
6.8726e-09
6.87258e-09
6.87256e-09
6.87253e-09
6.87251e-09
6.87249e-09
6.87247e-09
6.87246e-09
6.87246e-09
6.87247e-09
6.87247e-09
6.87246e-09
6.87245e-09
6.87244e-09
6.87243e-09
6.87242e-09
6.87241e-09
6.8724e-09
6.8724e-09
6.8724e-09
6.8724e-09
6.8724e-09
6.87241e-09
6.87242e-09
6.87244e-09
6.87246e-09
6.87246e-09
6.87247e-09
6.87249e-09
6.87251e-09
6.87254e-09
6.87257e-09
6.8726e-09
6.87263e-09
6.87265e-09
6.87268e-09
6.8727e-09
6.87273e-09
6.87275e-09
6.87276e-09
6.87279e-09
6.87269e-09
2.07131e-07
2.07141e-07
2.07145e-07
2.07143e-07
2.07138e-07
2.07132e-07
2.07126e-07
2.0712e-07
2.07115e-07
2.0711e-07
2.07107e-07
2.07104e-07
2.07102e-07
2.07101e-07
2.07099e-07
2.07098e-07
2.07098e-07
2.07098e-07
2.07098e-07
2.07098e-07
2.07099e-07
2.071e-07
2.07101e-07
2.07102e-07
2.07104e-07
2.07105e-07
2.07107e-07
2.07108e-07
2.0711e-07
2.07112e-07
2.07113e-07
2.07115e-07
2.07117e-07
2.07118e-07
2.0712e-07
2.07121e-07
2.07123e-07
2.07124e-07
2.07125e-07
2.07127e-07
2.07128e-07
2.07129e-07
2.0713e-07
2.07131e-07
2.07131e-07
2.07132e-07
2.07133e-07
2.07134e-07
2.07134e-07
2.07135e-07
2.07136e-07
2.07136e-07
2.07137e-07
2.07138e-07
2.07138e-07
2.07138e-07
2.07139e-07
2.07139e-07
2.07139e-07
2.07138e-07
2.07138e-07
2.07137e-07
2.07136e-07
2.07135e-07
2.07134e-07
2.07133e-07
2.07131e-07
2.0713e-07
2.07129e-07
2.07127e-07
2.07126e-07
2.07125e-07
2.07123e-07
2.07122e-07
2.07121e-07
2.0712e-07
2.07119e-07
2.07118e-07
2.07117e-07
2.07117e-07
2.07116e-07
2.07115e-07
2.07115e-07
2.07114e-07
2.07114e-07
2.07113e-07
2.07113e-07
2.07113e-07
2.07113e-07
2.07113e-07
2.07113e-07
2.07112e-07
2.07112e-07
2.07112e-07
2.07112e-07
2.07111e-07
2.07111e-07
2.07111e-07
2.07111e-07
2.07111e-07
2.07112e-07
2.07112e-07
2.07112e-07
2.07113e-07
2.07113e-07
2.07113e-07
2.07114e-07
2.07115e-07
2.07116e-07
2.07116e-07
2.07117e-07
2.07118e-07
2.07119e-07
2.0712e-07
2.0712e-07
2.07121e-07
2.07122e-07
2.07122e-07
2.07123e-07
2.0712e-07
1.50365e-06
1.50373e-06
1.50375e-06
1.50374e-06
1.5037e-06
1.50366e-06
1.50361e-06
1.50357e-06
1.50353e-06
1.5035e-06
1.50348e-06
1.50345e-06
1.50344e-06
1.50343e-06
1.50342e-06
1.50341e-06
1.50341e-06
1.50341e-06
1.50341e-06
1.50341e-06
1.50342e-06
1.50343e-06
1.50343e-06
1.50344e-06
1.50345e-06
1.50346e-06
1.50348e-06
1.50349e-06
1.5035e-06
1.50351e-06
1.50352e-06
1.50354e-06
1.50355e-06
1.50356e-06
1.50357e-06
1.50358e-06
1.50359e-06
1.5036e-06
1.50361e-06
1.50362e-06
1.50363e-06
1.50364e-06
1.50364e-06
1.50365e-06
1.50366e-06
1.50366e-06
1.50367e-06
1.50367e-06
1.50368e-06
1.50368e-06
1.50369e-06
1.50369e-06
1.5037e-06
1.5037e-06
1.5037e-06
1.50371e-06
1.50371e-06
1.50371e-06
1.50371e-06
1.50371e-06
1.5037e-06
1.5037e-06
1.50369e-06
1.50368e-06
1.50367e-06
1.50366e-06
1.50365e-06
1.50364e-06
1.50363e-06
1.50362e-06
1.50362e-06
1.50361e-06
1.5036e-06
1.50359e-06
1.50358e-06
1.50357e-06
1.50356e-06
1.50356e-06
1.50355e-06
1.50355e-06
1.50354e-06
1.50354e-06
1.50353e-06
1.50353e-06
1.50353e-06
1.50352e-06
1.50352e-06
1.50352e-06
1.50352e-06
1.50352e-06
1.50352e-06
1.50352e-06
1.50352e-06
1.50351e-06
1.50351e-06
1.50351e-06
1.50351e-06
1.50351e-06
1.50351e-06
1.50351e-06
1.50351e-06
1.50351e-06
1.50352e-06
1.50352e-06
1.50352e-06
1.50352e-06
1.50353e-06
1.50353e-06
1.50354e-06
1.50355e-06
1.50355e-06
1.50356e-06
1.50356e-06
1.50357e-06
1.50358e-06
1.50358e-06
1.50358e-06
1.50359e-06
1.5036e-06
1.50357e-06
5.56052e-06
5.56078e-06
5.56086e-06
5.5608e-06
5.56068e-06
5.56052e-06
5.56036e-06
5.5602e-06
5.56006e-06
5.55993e-06
5.55985e-06
5.55977e-06
5.55972e-06
5.55969e-06
5.55965e-06
5.55963e-06
5.55961e-06
5.55961e-06
5.55961e-06
5.55963e-06
5.55965e-06
5.55967e-06
5.5597e-06
5.55974e-06
5.55977e-06
5.55981e-06
5.55985e-06
5.5599e-06
5.55994e-06
5.55999e-06
5.56003e-06
5.56008e-06
5.56012e-06
5.56017e-06
5.5602e-06
5.56024e-06
5.56028e-06
5.56031e-06
5.56035e-06
5.56038e-06
5.56042e-06
5.56044e-06
5.56046e-06
5.56049e-06
5.56051e-06
5.56054e-06
5.56056e-06
5.56058e-06
5.5606e-06
5.56061e-06
5.56063e-06
5.56065e-06
5.56066e-06
5.56068e-06
5.56069e-06
5.5607e-06
5.56071e-06
5.56071e-06
5.5607e-06
5.56069e-06
5.56068e-06
5.56066e-06
5.56064e-06
5.56061e-06
5.56058e-06
5.56054e-06
5.56051e-06
5.56047e-06
5.56043e-06
5.5604e-06
5.56036e-06
5.56033e-06
5.5603e-06
5.56026e-06
5.56023e-06
5.5602e-06
5.56018e-06
5.56015e-06
5.56013e-06
5.56011e-06
5.5601e-06
5.56008e-06
5.56006e-06
5.56004e-06
5.56003e-06
5.56002e-06
5.56002e-06
5.56003e-06
5.56002e-06
5.56002e-06
5.56001e-06
5.56e-06
5.55999e-06
5.55999e-06
5.55998e-06
5.55997e-06
5.55997e-06
5.55997e-06
5.55997e-06
5.55997e-06
5.55998e-06
5.55999e-06
5.56e-06
5.56002e-06
5.56002e-06
5.56003e-06
5.56004e-06
5.56006e-06
5.56009e-06
5.56011e-06
5.56013e-06
5.56015e-06
5.56018e-06
5.5602e-06
5.56021e-06
5.56023e-06
5.56025e-06
5.56026e-06
5.56029e-06
5.56021e-06
1.42096e-05
1.42102e-05
1.42104e-05
1.42102e-05
1.42099e-05
1.42095e-05
1.42091e-05
1.42087e-05
1.42083e-05
1.4208e-05
1.42078e-05
1.42076e-05
1.42075e-05
1.42074e-05
1.42073e-05
1.42073e-05
1.42072e-05
1.42072e-05
1.42072e-05
1.42073e-05
1.42073e-05
1.42074e-05
1.42075e-05
1.42076e-05
1.42076e-05
1.42077e-05
1.42078e-05
1.4208e-05
1.42081e-05
1.42082e-05
1.42083e-05
1.42084e-05
1.42085e-05
1.42086e-05
1.42087e-05
1.42088e-05
1.42089e-05
1.4209e-05
1.42091e-05
1.42092e-05
1.42093e-05
1.42093e-05
1.42094e-05
1.42094e-05
1.42095e-05
1.42096e-05
1.42096e-05
1.42097e-05
1.42097e-05
1.42097e-05
1.42098e-05
1.42098e-05
1.42099e-05
1.42099e-05
1.42099e-05
1.421e-05
1.421e-05
1.421e-05
1.421e-05
1.42099e-05
1.42099e-05
1.42099e-05
1.42098e-05
1.42097e-05
1.42096e-05
1.42096e-05
1.42095e-05
1.42094e-05
1.42093e-05
1.42092e-05
1.42091e-05
1.4209e-05
1.42089e-05
1.42089e-05
1.42088e-05
1.42087e-05
1.42086e-05
1.42086e-05
1.42085e-05
1.42085e-05
1.42084e-05
1.42084e-05
1.42084e-05
1.42083e-05
1.42083e-05
1.42083e-05
1.42083e-05
1.42083e-05
1.42083e-05
1.42083e-05
1.42082e-05
1.42082e-05
1.42082e-05
1.42082e-05
1.42082e-05
1.42081e-05
1.42081e-05
1.42081e-05
1.42081e-05
1.42081e-05
1.42082e-05
1.42082e-05
1.42082e-05
1.42083e-05
1.42083e-05
1.42083e-05
1.42083e-05
1.42084e-05
1.42084e-05
1.42085e-05
1.42085e-05
1.42086e-05
1.42087e-05
1.42087e-05
1.42087e-05
1.42088e-05
1.42088e-05
1.42089e-05
1.42089e-05
1.42087e-05
2.82282e-05
2.82294e-05
2.82297e-05
2.82293e-05
2.82286e-05
2.82279e-05
2.82271e-05
2.82264e-05
2.82257e-05
2.82252e-05
2.82248e-05
2.82245e-05
2.82242e-05
2.8224e-05
2.82238e-05
2.82237e-05
2.82237e-05
2.82237e-05
2.82237e-05
2.82238e-05
2.82239e-05
2.8224e-05
2.82242e-05
2.82244e-05
2.82245e-05
2.82247e-05
2.82249e-05
2.82251e-05
2.82253e-05
2.82255e-05
2.82257e-05
2.82259e-05
2.82261e-05
2.82263e-05
2.82265e-05
2.82267e-05
2.82269e-05
2.82271e-05
2.82273e-05
2.82274e-05
2.82276e-05
2.82277e-05
2.82278e-05
2.82279e-05
2.8228e-05
2.82281e-05
2.82282e-05
2.82283e-05
2.82284e-05
2.82285e-05
2.82286e-05
2.82286e-05
2.82287e-05
2.82288e-05
2.82288e-05
2.82289e-05
2.82289e-05
2.82289e-05
2.82289e-05
2.82288e-05
2.82287e-05
2.82286e-05
2.82285e-05
2.82284e-05
2.82282e-05
2.82281e-05
2.82279e-05
2.82277e-05
2.82276e-05
2.82274e-05
2.82272e-05
2.82271e-05
2.82269e-05
2.82268e-05
2.82266e-05
2.82265e-05
2.82264e-05
2.82263e-05
2.82262e-05
2.82261e-05
2.8226e-05
2.82259e-05
2.82258e-05
2.82258e-05
2.82257e-05
2.82257e-05
2.82257e-05
2.82257e-05
2.82257e-05
2.82257e-05
2.82256e-05
2.82256e-05
2.82255e-05
2.82255e-05
2.82255e-05
2.82255e-05
2.82254e-05
2.82254e-05
2.82254e-05
2.82254e-05
2.82255e-05
2.82255e-05
2.82256e-05
2.82257e-05
2.82257e-05
2.82257e-05
2.82258e-05
2.82259e-05
2.8226e-05
2.82261e-05
2.82262e-05
2.82263e-05
2.82264e-05
2.82265e-05
2.82266e-05
2.82267e-05
2.82268e-05
2.82268e-05
2.82269e-05
2.82265e-05
4.62225e-05
4.62242e-05
4.62245e-05
4.62239e-05
4.62229e-05
4.62217e-05
4.62206e-05
4.62195e-05
4.62185e-05
4.62177e-05
4.62171e-05
4.62165e-05
4.62161e-05
4.62159e-05
4.62157e-05
4.62155e-05
4.62155e-05
4.62155e-05
4.62156e-05
4.62157e-05
4.62158e-05
4.6216e-05
4.62163e-05
4.62166e-05
4.62168e-05
4.62171e-05
4.62174e-05
4.62177e-05
4.6218e-05
4.62184e-05
4.62187e-05
4.6219e-05
4.62193e-05
4.62196e-05
4.62199e-05
4.62202e-05
4.62204e-05
4.62207e-05
4.6221e-05
4.62212e-05
4.62215e-05
4.62217e-05
4.62218e-05
4.6222e-05
4.62222e-05
4.62223e-05
4.62225e-05
4.62226e-05
4.62227e-05
4.62228e-05
4.6223e-05
4.62231e-05
4.62232e-05
4.62233e-05
4.62233e-05
4.62234e-05
4.62234e-05
4.62234e-05
4.62234e-05
4.62233e-05
4.62232e-05
4.6223e-05
4.62228e-05
4.62226e-05
4.62224e-05
4.62221e-05
4.62219e-05
4.62216e-05
4.62213e-05
4.62211e-05
4.62208e-05
4.62206e-05
4.62204e-05
4.62202e-05
4.62199e-05
4.62197e-05
4.62196e-05
4.62194e-05
4.62193e-05
4.62191e-05
4.6219e-05
4.62189e-05
4.62188e-05
4.62187e-05
4.62186e-05
4.62185e-05
4.62185e-05
4.62185e-05
4.62185e-05
4.62184e-05
4.62183e-05
4.62183e-05
4.62182e-05
4.62182e-05
4.62181e-05
4.62181e-05
4.62181e-05
4.62181e-05
4.62181e-05
4.62181e-05
4.62182e-05
4.62182e-05
4.62183e-05
4.62185e-05
4.62186e-05
4.62187e-05
4.62188e-05
4.62189e-05
4.62191e-05
4.62193e-05
4.62194e-05
4.62196e-05
4.62197e-05
4.62199e-05
4.622e-05
4.62201e-05
4.62202e-05
4.62203e-05
4.62205e-05
4.62198e-05
6.53645e-05
6.53667e-05
6.5367e-05
6.53662e-05
6.53649e-05
6.53634e-05
6.53619e-05
6.53605e-05
6.53593e-05
6.53582e-05
6.53574e-05
6.53568e-05
6.53563e-05
6.53559e-05
6.53557e-05
6.53555e-05
6.53555e-05
6.53555e-05
6.53556e-05
6.53558e-05
6.5356e-05
6.53563e-05
6.53567e-05
6.5357e-05
6.53574e-05
6.53578e-05
6.53582e-05
6.53586e-05
6.5359e-05
6.53594e-05
6.53598e-05
6.53602e-05
6.53606e-05
6.5361e-05
6.53614e-05
6.53617e-05
6.53621e-05
6.53624e-05
6.53628e-05
6.53631e-05
6.53634e-05
6.53637e-05
6.53639e-05
6.53641e-05
6.53644e-05
6.53645e-05
6.53647e-05
6.53649e-05
6.53651e-05
6.53652e-05
6.53654e-05
6.53655e-05
6.53656e-05
6.53657e-05
6.53658e-05
6.53659e-05
6.53659e-05
6.53659e-05
6.53658e-05
6.53657e-05
6.53655e-05
6.53653e-05
6.5365e-05
6.53647e-05
6.53644e-05
6.53641e-05
6.53638e-05
6.53634e-05
6.53631e-05
6.53628e-05
6.53624e-05
6.53621e-05
6.53618e-05
6.53615e-05
6.53613e-05
6.5361e-05
6.53608e-05
6.53606e-05
6.53604e-05
6.53602e-05
6.53601e-05
6.53599e-05
6.53598e-05
6.53597e-05
6.53595e-05
6.53595e-05
6.53594e-05
6.53594e-05
6.53593e-05
6.53593e-05
6.53592e-05
6.53591e-05
6.5359e-05
6.5359e-05
6.53589e-05
6.53588e-05
6.53588e-05
6.53588e-05
6.53588e-05
6.53589e-05
6.53589e-05
6.53591e-05
6.53592e-05
6.53594e-05
6.53596e-05
6.53597e-05
6.53599e-05
6.53601e-05
6.53603e-05
6.53606e-05
6.53608e-05
6.53609e-05
6.53611e-05
6.53613e-05
6.53615e-05
6.53616e-05
6.53618e-05
6.53619e-05
6.53621e-05
6.53613e-05
8.32676e-05
8.327e-05
8.32704e-05
8.32694e-05
8.32679e-05
8.32662e-05
8.32645e-05
8.32629e-05
8.32615e-05
8.32603e-05
8.32593e-05
8.32586e-05
8.3258e-05
8.32576e-05
8.32574e-05
8.32572e-05
8.32572e-05
8.32573e-05
8.32575e-05
8.32577e-05
8.3258e-05
8.32583e-05
8.32588e-05
8.32592e-05
8.32596e-05
8.32601e-05
8.32606e-05
8.32611e-05
8.32615e-05
8.32621e-05
8.32625e-05
8.3263e-05
8.32635e-05
8.32639e-05
8.32644e-05
8.32648e-05
8.32652e-05
8.32656e-05
8.3266e-05
8.32664e-05
8.32667e-05
8.32671e-05
8.32673e-05
8.32676e-05
8.32679e-05
8.32681e-05
8.32683e-05
8.32685e-05
8.32687e-05
8.32689e-05
8.32691e-05
8.32692e-05
8.32694e-05
8.32695e-05
8.32696e-05
8.32697e-05
8.32697e-05
8.32696e-05
8.32695e-05
8.32693e-05
8.32691e-05
8.32688e-05
8.32685e-05
8.32681e-05
8.32678e-05
8.32674e-05
8.32669e-05
8.32665e-05
8.32661e-05
8.32658e-05
8.32654e-05
8.3265e-05
8.32646e-05
8.32643e-05
8.3264e-05
8.32637e-05
8.32635e-05
8.32632e-05
8.3263e-05
8.32628e-05
8.32626e-05
8.32624e-05
8.32623e-05
8.32621e-05
8.3262e-05
8.32619e-05
8.32618e-05
8.32618e-05
8.32617e-05
8.32616e-05
8.32615e-05
8.32614e-05
8.32613e-05
8.32613e-05
8.32612e-05
8.32611e-05
8.32611e-05
8.32611e-05
8.32611e-05
8.32612e-05
8.32613e-05
8.32615e-05
8.32617e-05
8.32619e-05
8.32621e-05
8.32623e-05
8.32626e-05
8.32628e-05
8.32631e-05
8.32633e-05
8.32636e-05
8.32638e-05
8.3264e-05
8.32642e-05
8.32644e-05
8.32646e-05
8.32647e-05
8.32648e-05
8.32651e-05
8.32642e-05
9.87964e-05
9.87987e-05
9.87992e-05
9.87982e-05
9.87966e-05
9.87948e-05
9.8793e-05
9.87913e-05
9.87898e-05
9.87886e-05
9.87875e-05
9.87867e-05
9.87861e-05
9.87857e-05
9.87854e-05
9.87853e-05
9.87853e-05
9.87854e-05
9.87856e-05
9.87859e-05
9.87863e-05
9.87867e-05
9.87872e-05
9.87877e-05
9.87882e-05
9.87887e-05
9.87893e-05
9.87898e-05
9.87904e-05
9.87909e-05
9.87915e-05
9.8792e-05
9.87925e-05
9.8793e-05
9.87935e-05
9.8794e-05
9.87944e-05
9.87949e-05
9.87953e-05
9.87957e-05
9.87961e-05
9.87965e-05
9.87968e-05
9.87971e-05
9.87974e-05
9.87977e-05
9.87979e-05
9.87982e-05
9.87984e-05
9.87985e-05
9.87987e-05
9.87989e-05
9.87991e-05
9.87992e-05
9.87993e-05
9.87993e-05
9.87993e-05
9.87992e-05
9.87991e-05
9.87988e-05
9.87986e-05
9.87982e-05
9.87978e-05
9.87974e-05
9.8797e-05
9.87965e-05
9.87961e-05
9.87956e-05
9.87952e-05
9.87947e-05
9.87943e-05
9.87939e-05
9.87935e-05
9.87931e-05
9.87928e-05
9.87925e-05
9.87922e-05
9.87919e-05
9.87917e-05
9.87915e-05
9.87913e-05
9.87911e-05
9.87909e-05
9.87907e-05
9.87906e-05
9.87905e-05
9.87904e-05
9.87903e-05
9.87902e-05
9.87901e-05
9.879e-05
9.87899e-05
9.87898e-05
9.87898e-05
9.87897e-05
9.87896e-05
9.87896e-05
9.87896e-05
9.87896e-05
9.87897e-05
9.87899e-05
9.87901e-05
9.87903e-05
9.87905e-05
9.87908e-05
9.87911e-05
9.87914e-05
9.87917e-05
9.8792e-05
9.87923e-05
9.87925e-05
9.87928e-05
9.8793e-05
9.87932e-05
9.87934e-05
9.87936e-05
9.87937e-05
9.87939e-05
9.87941e-05
9.87933e-05
0.000111754
0.000111757
0.000111757
0.000111756
0.000111755
0.000111753
0.000111751
0.000111749
0.000111748
0.000111746
0.000111745
0.000111744
0.000111744
0.000111743
0.000111743
0.000111743
0.000111743
0.000111743
0.000111743
0.000111744
0.000111744
0.000111745
0.000111745
0.000111746
0.000111746
0.000111747
0.000111748
0.000111748
0.000111749
0.000111749
0.00011175
0.000111751
0.000111751
0.000111752
0.000111752
0.000111753
0.000111753
0.000111754
0.000111754
0.000111755
0.000111755
0.000111755
0.000111756
0.000111756
0.000111756
0.000111757
0.000111757
0.000111757
0.000111757
0.000111758
0.000111758
0.000111758
0.000111758
0.000111758
0.000111758
0.000111758
0.000111758
0.000111758
0.000111758
0.000111758
0.000111757
0.000111757
0.000111756
0.000111756
0.000111756
0.000111755
0.000111755
0.000111754
0.000111754
0.000111753
0.000111753
0.000111752
0.000111752
0.000111751
0.000111751
0.000111751
0.00011175
0.00011175
0.00011175
0.00011175
0.000111749
0.000111749
0.000111749
0.000111749
0.000111749
0.000111749
0.000111748
0.000111748
0.000111748
0.000111748
0.000111748
0.000111748
0.000111748
0.000111748
0.000111748
0.000111748
0.000111748
0.000111748
0.000111748
0.000111748
0.000111748
0.000111748
0.000111748
0.000111749
0.000111749
0.000111749
0.00011175
0.00011175
0.00011175
0.000111751
0.000111751
0.000111751
0.000111751
0.000111752
0.000111752
0.000111752
0.000111752
0.000111752
0.000111753
0.000111752
0.000122383
0.000122385
0.000122385
0.000122384
0.000122383
0.000122381
0.000122379
0.000122377
0.000122376
0.000122375
0.000122374
0.000122373
0.000122372
0.000122372
0.000122371
0.000122371
0.000122371
0.000122372
0.000122372
0.000122372
0.000122373
0.000122373
0.000122374
0.000122374
0.000122375
0.000122376
0.000122376
0.000122377
0.000122378
0.000122378
0.000122379
0.000122379
0.00012238
0.000122381
0.000122381
0.000122382
0.000122382
0.000122383
0.000122383
0.000122384
0.000122384
0.000122385
0.000122385
0.000122385
0.000122386
0.000122386
0.000122386
0.000122387
0.000122387
0.000122387
0.000122387
0.000122387
0.000122388
0.000122388
0.000122388
0.000122388
0.000122388
0.000122387
0.000122387
0.000122387
0.000122386
0.000122386
0.000122385
0.000122385
0.000122384
0.000122384
0.000122383
0.000122383
0.000122382
0.000122382
0.000122381
0.000122381
0.00012238
0.00012238
0.00012238
0.000122379
0.000122379
0.000122379
0.000122378
0.000122378
0.000122378
0.000122378
0.000122378
0.000122377
0.000122377
0.000122377
0.000122377
0.000122377
0.000122377
0.000122377
0.000122377
0.000122376
0.000122376
0.000122376
0.000122376
0.000122376
0.000122376
0.000122376
0.000122376
0.000122376
0.000122377
0.000122377
0.000122377
0.000122377
0.000122378
0.000122378
0.000122378
0.000122379
0.000122379
0.000122379
0.00012238
0.00012238
0.00012238
0.000122381
0.000122381
0.000122381
0.000122381
0.000122381
0.000122381
0.000122381
0.000131051
0.000131052
0.000131052
0.000131051
0.00013105
0.000131048
0.000131047
0.000131045
0.000131044
0.000131042
0.000131041
0.000131041
0.00013104
0.00013104
0.000131039
0.000131039
0.000131039
0.000131039
0.00013104
0.00013104
0.000131041
0.000131041
0.000131042
0.000131042
0.000131043
0.000131044
0.000131045
0.000131045
0.000131046
0.000131047
0.000131047
0.000131048
0.000131048
0.000131049
0.00013105
0.00013105
0.000131051
0.000131051
0.000131052
0.000131052
0.000131053
0.000131053
0.000131054
0.000131054
0.000131054
0.000131055
0.000131055
0.000131055
0.000131056
0.000131056
0.000131056
0.000131056
0.000131056
0.000131056
0.000131056
0.000131056
0.000131056
0.000131056
0.000131056
0.000131055
0.000131055
0.000131054
0.000131054
0.000131053
0.000131053
0.000131052
0.000131052
0.000131051
0.00013105
0.00013105
0.000131049
0.000131049
0.000131049
0.000131048
0.000131048
0.000131047
0.000131047
0.000131047
0.000131046
0.000131046
0.000131046
0.000131046
0.000131046
0.000131045
0.000131045
0.000131045
0.000131045
0.000131045
0.000131045
0.000131045
0.000131044
0.000131044
0.000131044
0.000131044
0.000131044
0.000131044
0.000131044
0.000131044
0.000131044
0.000131044
0.000131045
0.000131045
0.000131045
0.000131046
0.000131046
0.000131046
0.000131047
0.000131047
0.000131047
0.000131048
0.000131048
0.000131048
0.000131049
0.000131049
0.000131049
0.000131049
0.000131049
0.000131049
0.00013105
0.000131049
0.00013812
0.00013812
0.00013812
0.00013812
0.000138118
0.000138117
0.000138115
0.000138114
0.000138112
0.000138111
0.00013811
0.000138109
0.000138109
0.000138108
0.000138108
0.000138108
0.000138108
0.000138108
0.000138109
0.000138109
0.00013811
0.00013811
0.000138111
0.000138112
0.000138112
0.000138113
0.000138114
0.000138114
0.000138115
0.000138116
0.000138117
0.000138117
0.000138118
0.000138119
0.000138119
0.00013812
0.00013812
0.000138121
0.000138121
0.000138122
0.000138122
0.000138123
0.000138123
0.000138124
0.000138124
0.000138124
0.000138125
0.000138125
0.000138125
0.000138125
0.000138126
0.000138126
0.000138126
0.000138126
0.000138126
0.000138126
0.000138126
0.000138125
0.000138125
0.000138125
0.000138124
0.000138124
0.000138123
0.000138122
0.000138122
0.000138121
0.000138121
0.00013812
0.00013812
0.000138119
0.000138119
0.000138118
0.000138118
0.000138117
0.000138117
0.000138116
0.000138116
0.000138116
0.000138115
0.000138115
0.000138115
0.000138115
0.000138114
0.000138114
0.000138114
0.000138114
0.000138114
0.000138114
0.000138114
0.000138113
0.000138113
0.000138113
0.000138113
0.000138113
0.000138113
0.000138113
0.000138113
0.000138113
0.000138113
0.000138113
0.000138114
0.000138114
0.000138114
0.000138115
0.000138115
0.000138116
0.000138116
0.000138116
0.000138117
0.000138117
0.000138117
0.000138118
0.000138118
0.000138118
0.000138118
0.000138118
0.000138119
0.000138119
0.000138119
0.000138119
0.000143898
0.000143899
0.000143898
0.000143898
0.000143896
0.000143895
0.000143894
0.000143892
0.000143891
0.00014389
0.000143889
0.000143888
0.000143888
0.000143887
0.000143887
0.000143887
0.000143887
0.000143887
0.000143888
0.000143888
0.000143889
0.000143889
0.00014389
0.000143891
0.000143891
0.000143892
0.000143893
0.000143894
0.000143894
0.000143895
0.000143896
0.000143896
0.000143897
0.000143898
0.000143898
0.000143899
0.0001439
0.0001439
0.000143901
0.000143901
0.000143902
0.000143902
0.000143903
0.000143903
0.000143904
0.000143904
0.000143904
0.000143905
0.000143905
0.000143905
0.000143905
0.000143905
0.000143906
0.000143906
0.000143906
0.000143905
0.000143905
0.000143905
0.000143904
0.000143904
0.000143903
0.000143903
0.000143902
0.000143901
0.000143901
0.0001439
0.0001439
0.000143899
0.000143898
0.000143898
0.000143897
0.000143897
0.000143896
0.000143896
0.000143896
0.000143895
0.000143895
0.000143895
0.000143894
0.000143894
0.000143894
0.000143893
0.000143893
0.000143893
0.000143893
0.000143893
0.000143893
0.000143892
0.000143892
0.000143892
0.000143892
0.000143892
0.000143892
0.000143892
0.000143892
0.000143892
0.000143892
0.000143892
0.000143892
0.000143892
0.000143893
0.000143893
0.000143893
0.000143894
0.000143894
0.000143895
0.000143895
0.000143895
0.000143896
0.000143896
0.000143896
0.000143897
0.000143897
0.000143897
0.000143897
0.000143897
0.000143898
0.000143898
0.000143898
0.000143898
0.000148637
0.000148637
0.000148636
0.000148635
0.000148634
0.000148633
0.000148632
0.00014863
0.000148629
0.000148628
0.000148627
0.000148627
0.000148626
0.000148626
0.000148626
0.000148626
0.000148626
0.000148626
0.000148626
0.000148627
0.000148628
0.000148628
0.000148629
0.000148629
0.00014863
0.000148631
0.000148632
0.000148632
0.000148633
0.000148634
0.000148635
0.000148635
0.000148636
0.000148637
0.000148638
0.000148638
0.000148639
0.000148639
0.00014864
0.000148641
0.000148641
0.000148642
0.000148642
0.000148642
0.000148643
0.000148643
0.000148644
0.000148644
0.000148644
0.000148644
0.000148645
0.000148645
0.000148645
0.000148645
0.000148645
0.000148644
0.000148644
0.000148644
0.000148643
0.000148643
0.000148642
0.000148641
0.000148641
0.00014864
0.00014864
0.000148639
0.000148638
0.000148638
0.000148637
0.000148637
0.000148636
0.000148636
0.000148635
0.000148635
0.000148634
0.000148634
0.000148634
0.000148633
0.000148633
0.000148633
0.000148632
0.000148632
0.000148632
0.000148632
0.000148632
0.000148631
0.000148631
0.000148631
0.000148631
0.000148631
0.000148631
0.00014863
0.00014863
0.00014863
0.00014863
0.00014863
0.00014863
0.000148631
0.000148631
0.000148631
0.000148631
0.000148632
0.000148632
0.000148633
0.000148633
0.000148633
0.000148634
0.000148634
0.000148635
0.000148635
0.000148635
0.000148635
0.000148636
0.000148636
0.000148636
0.000148636
0.000148636
0.000148636
0.000148637
0.000148637
0.000152533
0.000152532
0.000152532
0.000152531
0.00015253
0.000152529
0.000152527
0.000152526
0.000152525
0.000152524
0.000152523
0.000152523
0.000152522
0.000152522
0.000152522
0.000152522
0.000152522
0.000152522
0.000152523
0.000152523
0.000152524
0.000152524
0.000152525
0.000152526
0.000152526
0.000152527
0.000152528
0.000152529
0.00015253
0.00015253
0.000152531
0.000152532
0.000152533
0.000152533
0.000152534
0.000152535
0.000152535
0.000152536
0.000152537
0.000152537
0.000152538
0.000152538
0.000152539
0.000152539
0.000152539
0.00015254
0.00015254
0.000152541
0.000152541
0.000152541
0.000152541
0.000152541
0.000152541
0.000152541
0.000152541
0.000152541
0.00015254
0.00015254
0.000152539
0.000152539
0.000152538
0.000152538
0.000152537
0.000152536
0.000152536
0.000152535
0.000152534
0.000152534
0.000152533
0.000152533
0.000152532
0.000152532
0.000152531
0.000152531
0.00015253
0.00015253
0.00015253
0.000152529
0.000152529
0.000152529
0.000152529
0.000152528
0.000152528
0.000152528
0.000152528
0.000152527
0.000152527
0.000152527
0.000152527
0.000152527
0.000152527
0.000152526
0.000152526
0.000152526
0.000152526
0.000152526
0.000152527
0.000152527
0.000152527
0.000152527
0.000152528
0.000152528
0.000152528
0.000152529
0.000152529
0.00015253
0.00015253
0.00015253
0.000152531
0.000152531
0.000152531
0.000152532
0.000152532
0.000152532
0.000152532
0.000152532
0.000152532
0.000152533
0.000152533
0.000152533
0.000155741
0.00015574
0.000155739
0.000155738
0.000155737
0.000155736
0.000155735
0.000155734
0.000155733
0.000155732
0.000155731
0.000155731
0.000155731
0.00015573
0.00015573
0.00015573
0.00015573
0.000155731
0.000155731
0.000155732
0.000155732
0.000155733
0.000155733
0.000155734
0.000155735
0.000155736
0.000155736
0.000155737
0.000155738
0.000155739
0.00015574
0.00015574
0.000155741
0.000155742
0.000155743
0.000155743
0.000155744
0.000155745
0.000155745
0.000155746
0.000155746
0.000155747
0.000155747
0.000155748
0.000155748
0.000155749
0.000155749
0.000155749
0.00015575
0.00015575
0.00015575
0.00015575
0.00015575
0.00015575
0.00015575
0.000155749
0.000155749
0.000155748
0.000155748
0.000155747
0.000155746
0.000155746
0.000155745
0.000155744
0.000155744
0.000155743
0.000155743
0.000155742
0.000155742
0.000155741
0.00015574
0.00015574
0.00015574
0.000155739
0.000155739
0.000155738
0.000155738
0.000155738
0.000155737
0.000155737
0.000155737
0.000155736
0.000155736
0.000155736
0.000155736
0.000155736
0.000155735
0.000155735
0.000155735
0.000155735
0.000155735
0.000155735
0.000155734
0.000155734
0.000155735
0.000155735
0.000155735
0.000155735
0.000155735
0.000155736
0.000155736
0.000155736
0.000155737
0.000155737
0.000155738
0.000155738
0.000155738
0.000155739
0.000155739
0.000155739
0.00015574
0.00015574
0.00015574
0.00015574
0.00015574
0.000155741
0.000155741
0.000155741
0.000155741
0.000155741
0.000158382
0.000158381
0.00015838
0.000158379
0.000158378
0.000158377
0.000158376
0.000158375
0.000158374
0.000158374
0.000158373
0.000158373
0.000158372
0.000158372
0.000158372
0.000158372
0.000158372
0.000158373
0.000158373
0.000158374
0.000158374
0.000158375
0.000158375
0.000158376
0.000158377
0.000158378
0.000158378
0.000158379
0.00015838
0.000158381
0.000158382
0.000158382
0.000158383
0.000158384
0.000158385
0.000158385
0.000158386
0.000158387
0.000158387
0.000158388
0.000158388
0.000158389
0.000158389
0.00015839
0.00015839
0.000158391
0.000158391
0.000158391
0.000158392
0.000158392
0.000158392
0.000158392
0.000158392
0.000158392
0.000158392
0.000158391
0.000158391
0.00015839
0.000158389
0.000158389
0.000158388
0.000158388
0.000158387
0.000158386
0.000158386
0.000158385
0.000158384
0.000158384
0.000158383
0.000158383
0.000158382
0.000158382
0.000158381
0.000158381
0.000158381
0.00015838
0.00015838
0.000158379
0.000158379
0.000158379
0.000158379
0.000158378
0.000158378
0.000158378
0.000158378
0.000158377
0.000158377
0.000158377
0.000158377
0.000158377
0.000158376
0.000158376
0.000158376
0.000158376
0.000158376
0.000158376
0.000158377
0.000158377
0.000158377
0.000158377
0.000158378
0.000158378
0.000158379
0.000158379
0.00015838
0.00015838
0.00015838
0.000158381
0.000158381
0.000158381
0.000158381
0.000158382
0.000158382
0.000158382
0.000158382
0.000158382
0.000158382
0.000158382
0.000158382
0.000158383
0.000160553
0.000160552
0.000160551
0.00016055
0.000160548
0.000160547
0.000160547
0.000160546
0.000160545
0.000160544
0.000160544
0.000160543
0.000160543
0.000160543
0.000160543
0.000160543
0.000160543
0.000160543
0.000160544
0.000160544
0.000160545
0.000160546
0.000160546
0.000160547
0.000160548
0.000160549
0.000160549
0.00016055
0.000160551
0.000160552
0.000160553
0.000160553
0.000160554
0.000160555
0.000160556
0.000160556
0.000160557
0.000160558
0.000160558
0.000160559
0.000160559
0.00016056
0.00016056
0.000160561
0.000160561
0.000160562
0.000160562
0.000160563
0.000160563
0.000160563
0.000160563
0.000160563
0.000160563
0.000160563
0.000160562
0.000160562
0.000160561
0.000160561
0.00016056
0.000160559
0.000160559
0.000160558
0.000160557
0.000160557
0.000160556
0.000160556
0.000160555
0.000160555
0.000160554
0.000160553
0.000160553
0.000160553
0.000160552
0.000160552
0.000160551
0.000160551
0.000160551
0.00016055
0.00016055
0.00016055
0.000160549
0.000160549
0.000160549
0.000160549
0.000160548
0.000160548
0.000160548
0.000160548
0.000160547
0.000160547
0.000160547
0.000160547
0.000160547
0.000160547
0.000160547
0.000160547
0.000160547
0.000160548
0.000160548
0.000160548
0.000160549
0.000160549
0.00016055
0.00016055
0.00016055
0.000160551
0.000160551
0.000160551
0.000160552
0.000160552
0.000160552
0.000160552
0.000160552
0.000160553
0.000160553
0.000160553
0.000160553
0.000160553
0.000160553
0.000160553
0.000162328
0.000162327
0.000162325
0.000162324
0.000162323
0.000162322
0.000162321
0.000162321
0.00016232
0.000162319
0.000162319
0.000162319
0.000162318
0.000162318
0.000162318
0.000162318
0.000162319
0.000162319
0.000162319
0.00016232
0.00016232
0.000162321
0.000162322
0.000162322
0.000162323
0.000162324
0.000162325
0.000162326
0.000162326
0.000162327
0.000162328
0.000162329
0.000162329
0.00016233
0.000162331
0.000162332
0.000162332
0.000162333
0.000162334
0.000162334
0.000162335
0.000162335
0.000162336
0.000162336
0.000162337
0.000162337
0.000162338
0.000162338
0.000162338
0.000162339
0.000162339
0.000162339
0.000162338
0.000162338
0.000162338
0.000162337
0.000162336
0.000162336
0.000162335
0.000162334
0.000162334
0.000162333