/*--------------------------------*- C++ -*----------------------------------*\
  =========                 |
  \\      /  F ield         | OpenFOAM: The Open Source CFD Toolbox
   \\    /   O peration     | Website:  https://openfoam.org
    \\  /    A nd           | Version:  7
     \\/     M anipulation  |
\*---------------------------------------------------------------------------*/
FoamFile
{
    version     2.0;
    format      ascii;
    class       surfaceScalarField;
    location    "18500";
    object      phi;
}
// * * * * * * * * * * * * * * * * * * * * * * * * * * * * * * * * * * * * * //

dimensions      [0 3 -1 0 0 0 0];

internalField   nonuniform List<scalar> 
7844
(
2.01551e-06
-3.27724e-14
2.01551e-06
-6.51121e-12
2.01552e-06
-7.61037e-12
2.01553e-06
-4.58705e-12
2.01553e-06
-5.04046e-13
2.01552e-06
3.01237e-12
2.01552e-06
5.63333e-12
2.01551e-06
7.3396e-12
2.0155e-06
8.27624e-12
2.01549e-06
8.51448e-12
2.01549e-06
8.12412e-12
2.01548e-06
7.45467e-12
2.01547e-06
6.81027e-12
2.01547e-06
6.02176e-12
2.01546e-06
5.2576e-12
2.01546e-06
4.53295e-12
2.01545e-06
3.60686e-12
2.01545e-06
2.85938e-12
2.01545e-06
2.09985e-12
2.01545e-06
1.24162e-12
2.01545e-06
5.29785e-13
2.01545e-06
-9.98332e-14
2.01545e-06
-7.21144e-13
2.01545e-06
-1.39731e-12
2.01545e-06
-1.95608e-12
2.01545e-06
-2.28976e-12
2.01545e-06
-2.71325e-12
2.01546e-06
-3.18457e-12
2.01546e-06
-3.42724e-12
2.01546e-06
-3.6447e-12
2.01547e-06
-4.01472e-12
2.01547e-06
-4.27724e-12
2.01548e-06
-4.37986e-12
2.01548e-06
-4.49112e-12
2.01549e-06
-4.68683e-12
2.01549e-06
-4.80313e-12
2.0155e-06
-4.78446e-12
2.0155e-06
-4.861e-12
2.01551e-06
-4.85448e-12
2.01551e-06
-4.89835e-12
2.01552e-06
-4.4903e-12
2.01552e-06
-4.00931e-12
2.01552e-06
-3.16336e-12
2.01552e-06
-2.28769e-12
2.01553e-06
-1.22802e-12
2.01553e-06
4.63107e-13
2.01552e-06
1.00305e-12
2.01552e-06
1.06933e-12
2.01552e-06
7.3084e-13
2.01552e-06
1.06094e-13
2.01552e-06
-2.97204e-13
2.01552e-06
-7.13202e-13
2.01552e-06
-1.0494e-12
2.01553e-06
-1.31452e-12
2.01553e-06
-1.503e-12
2.01553e-06
-1.65819e-12
2.01553e-06
-1.69151e-12
2.01553e-06
-1.59061e-12
2.01553e-06
-1.36474e-12
2.01553e-06
-1.11891e-12
2.01554e-06
-8.18485e-13
2.01554e-06
-4.09802e-13
2.01554e-06
1.30445e-14
2.01554e-06
4.29215e-13
2.01553e-06
7.97143e-13
2.01553e-06
1.09379e-12
2.01553e-06
1.43466e-12
2.01553e-06
1.75486e-12
2.01553e-06
1.90725e-12
2.01553e-06
2.06224e-12
2.01552e-06
2.11885e-12
2.01552e-06
2.19794e-12
2.01552e-06
2.27325e-12
2.01552e-06
2.22242e-12
2.01552e-06
2.27973e-12
2.01551e-06
2.29795e-12
2.01551e-06
2.14482e-12
2.01551e-06
1.93846e-12
2.01551e-06
1.81167e-12
2.01551e-06
1.67878e-12
2.0155e-06
1.50345e-12
2.0155e-06
1.39962e-12
2.0155e-06
1.32875e-12
2.0155e-06
1.15318e-12
2.0155e-06
9.30095e-13
2.0155e-06
7.12398e-13
2.0155e-06
2.65481e-13
2.0155e-06
-8.3919e-14
2.0155e-06
-1.65434e-13
2.0155e-06
-1.61224e-13
2.0155e-06
-2.72775e-14
2.0155e-06
-5.41407e-15
2.0155e-06
-4.3639e-14
2.0155e-06
-1.39681e-13
2.0155e-06
-3.07155e-13
2.0155e-06
-4.11807e-13
2.0155e-06
-5.73874e-13
2.0155e-06
-6.98763e-13
2.0155e-06
-8.03774e-13
2.0155e-06
-7.07283e-13
2.0155e-06
-6.95719e-13
2.0155e-06
-2.3117e-13
2.0155e-06
1.32427e-13
2.0155e-06
9.07811e-13
2.0155e-06
2.06978e-12
2.0155e-06
2.16268e-12
2.0155e-06
1.94091e-12
2.01549e-06
1.28006e-12
2.01549e-06
4.35732e-13
2.01549e-06
-3.52464e-13
2.0155e-06
-1.04243e-12
2.0155e-06
-1.53464e-12
2.0155e-06
-1.96419e-12
2.0155e-06
-2.24483e-12
2.0155e-06
-2.44305e-12
2.01551e-06
-2.36956e-12
2.01551e-06
-1.76085e-12
2.01551e-06
-2.02591e-12
2.01551e-06
-3.39726e-13
3.20752e-12
6.22748e-06
-5.02504e-12
6.2275e-06
-2.5885e-11
6.22752e-06
-2.81312e-11
6.22754e-06
-1.57644e-11
6.22754e-06
1.64917e-13
6.22752e-06
1.37753e-11
6.22751e-06
2.37887e-11
6.22748e-06
3.02654e-11
6.22746e-06
3.37464e-11
6.22743e-06
3.44171e-11
6.22741e-06
3.27631e-11
6.22738e-06
3.00988e-11
6.22736e-06
2.73781e-11
6.22735e-06
2.42215e-11
6.22733e-06
2.11156e-11
6.22732e-06
1.80779e-11
6.22731e-06
1.44453e-11
6.2273e-06
1.13472e-11
6.22729e-06
8.27035e-12
6.22729e-06
4.91297e-12
6.22729e-06
2.01767e-12
6.22729e-06
-5.62623e-13
6.22729e-06
-3.09601e-12
6.22729e-06
-5.72313e-12
6.2273e-06
-7.90036e-12
6.22731e-06
-9.33518e-12
6.22731e-06
-1.10056e-11
6.22732e-06
-1.28174e-11
6.22733e-06
-1.38906e-11
6.22735e-06
-1.48076e-11
6.22736e-06
-1.61534e-11
6.22737e-06
-1.71554e-11
6.22738e-06
-1.7617e-11
6.2274e-06
-1.8081e-11
6.22741e-06
-1.88011e-11
6.22743e-06
-1.92575e-11
6.22744e-06
-1.92574e-11
6.22746e-06
-1.94998e-11
6.22747e-06
-1.95633e-11
6.22748e-06
-1.96541e-11
6.2275e-06
-1.82197e-11
6.22751e-06
-1.63396e-11
6.22752e-06
-1.33576e-11
6.22753e-06
-1.01429e-11
6.22753e-06
-6.08529e-12
6.22753e-06
-4.20576e-14
6.22753e-06
2.50453e-12
6.22753e-06
3.05252e-12
6.22753e-06
2.04366e-12
6.22753e-06
-8.63843e-15
6.22753e-06
-1.50628e-12
6.22753e-06
-3.00103e-12
6.22754e-06
-4.2552e-12
6.22754e-06
-5.22078e-12
6.22754e-06
-5.89828e-12
6.22755e-06
-6.40539e-12
6.22755e-06
-6.45457e-12
6.22756e-06
-5.98688e-12
6.22756e-06
-5.07317e-12
6.22756e-06
-4.03996e-12
6.22757e-06
-2.78365e-12
6.22757e-06
-1.15487e-12
6.22757e-06
5.35212e-13
6.22757e-06
2.17758e-12
6.22756e-06
3.64299e-12
6.22756e-06
4.86134e-12
6.22755e-06
6.18884e-12
6.22755e-06
7.40324e-12
6.22754e-06
8.05039e-12
6.22754e-06
8.61749e-12
6.22753e-06
8.86703e-12
6.22752e-06
9.16496e-12
6.22751e-06
9.42754e-12
6.22751e-06
9.28253e-12
6.2275e-06
9.41952e-12
6.22749e-06
9.42283e-12
6.22749e-06
8.8538e-12
6.22748e-06
8.06397e-12
6.22747e-06
7.5169e-12
6.22747e-06
7.00113e-12
6.22746e-06
6.35382e-12
6.22746e-06
5.91115e-12
6.22746e-06
5.58265e-12
6.22745e-06
4.89819e-12
6.22745e-06
4.03852e-12
6.22745e-06
3.063e-12
6.22745e-06
1.38754e-12
6.22745e-06
1.30995e-13
6.22745e-06
-2.39192e-13
6.22745e-06
-2.45013e-13
6.22745e-06
1.7273e-13
6.22745e-06
2.53787e-13
6.22744e-06
9.59731e-14
6.22745e-06
-2.74418e-13
6.22745e-06
-8.86164e-13
6.22745e-06
-1.36003e-12
6.22745e-06
-1.99907e-12
6.22745e-06
-2.56664e-12
6.22745e-06
-3.01453e-12
6.22745e-06
-2.87538e-12
6.22746e-06
-2.87518e-12
6.22746e-06
-1.45051e-12
6.22746e-06
-1.62374e-13
6.22746e-06
2.66259e-12
6.22745e-06
6.75141e-12
6.22745e-06
7.41684e-12
6.22744e-06
6.65073e-12
6.22744e-06
4.35237e-12
6.22744e-06
1.33022e-12
6.22744e-06
-1.5651e-12
6.22744e-06
-4.11955e-12
6.22745e-06
-6.01678e-12
6.22745e-06
-7.62399e-12
6.22746e-06
-8.73694e-12
6.22747e-06
-9.55085e-12
6.22747e-06
-9.32479e-12
6.22748e-06
-7.26657e-12
6.22748e-06
-8.04228e-12
6.22749e-06
-1.29084e-12
8.48965e-12
1.07241e-05
-2.06085e-11
1.07241e-05
-5.8962e-11
1.07241e-05
-5.91057e-11
1.07242e-05
-3.03212e-11
1.07242e-05
4.89542e-12
1.07241e-05
3.46376e-11
1.07241e-05
5.62802e-11
1.07241e-05
7.01682e-11
1.0724e-05
7.74498e-11
1.0724e-05
7.83886e-11
1.07239e-05
7.44336e-11
1.07239e-05
6.84068e-11
1.07239e-05
6.20397e-11
1.07238e-05
5.48757e-11
1.07238e-05
4.77593e-11
1.07238e-05
4.06803e-11
1.07238e-05
3.25433e-11
1.07237e-05
2.53956e-11
1.07237e-05
1.8378e-11
1.07237e-05
1.09013e-11
1.07237e-05
4.30422e-12
1.07237e-05
-1.63497e-12
1.07237e-05
-7.43805e-12
1.07237e-05
-1.32378e-11
1.07237e-05
-1.8049e-11
1.07238e-05
-2.14299e-11
1.07238e-05
-2.51758e-11
1.07238e-05
-2.9158e-11
1.07238e-05
-3.17293e-11
1.07238e-05
-3.38746e-11
1.07238e-05
-3.67045e-11
1.07239e-05
-3.88635e-11
1.07239e-05
-3.99776e-11
1.07239e-05
-4.10632e-11
1.07239e-05
-4.25901e-11
1.0724e-05
-4.36043e-11
1.0724e-05
-4.36968e-11
1.0724e-05
-4.4188e-11
1.0724e-05
-4.4435e-11
1.07241e-05
-4.45507e-11
1.07241e-05
-4.15607e-11
1.07241e-05
-3.74643e-11
1.07241e-05
-3.1415e-11
1.07241e-05
-2.46639e-11
1.07241e-05
-1.59243e-11
1.07242e-05
-3.35687e-12
1.07242e-05
2.84475e-12
1.07242e-05
4.6064e-12
1.07241e-05
2.95341e-12
1.07242e-05
-9.19076e-13
1.07242e-05
-4.01139e-12
1.07242e-05
-7.10075e-12
1.07242e-05
-9.7437e-12
1.07242e-05
-1.17453e-11
1.07242e-05
-1.31184e-11
1.07242e-05
-1.40558e-11
1.07242e-05
-1.39913e-11
1.07242e-05
-1.28076e-11
1.07242e-05
-1.07057e-11
1.07242e-05
-8.28189e-12
1.07242e-05
-5.34295e-12
1.07242e-05
-1.65738e-12
1.07242e-05
2.15135e-12
1.07242e-05
5.81909e-12
1.07242e-05
9.11424e-12
1.07242e-05
1.19094e-11
1.07242e-05
1.48459e-11
1.07242e-05
1.74807e-11
1.07242e-05
1.8967e-11
1.07242e-05
2.0173e-11
1.07241e-05
2.07584e-11
1.07241e-05
2.14004e-11
1.07241e-05
2.19391e-11
1.07241e-05
2.16773e-11
1.07241e-05
2.18423e-11
1.07241e-05
2.17201e-11
1.07241e-05
2.04933e-11
1.07241e-05
1.87666e-11
1.0724e-05
1.74769e-11
1.0724e-05
1.63419e-11
1.0724e-05
1.49638e-11
1.0724e-05
1.3926e-11
1.0724e-05
1.31076e-11
1.0724e-05
1.15832e-11
1.0724e-05
9.67649e-12
1.0724e-05
7.31246e-12
1.0724e-05
3.70206e-12
1.0724e-05
1.12992e-12
1.0724e-05
2.60576e-13
1.0724e-05
1.85014e-13
1.0724e-05
9.43033e-13
1.0724e-05
1.08598e-12
1.0724e-05
7.15807e-13
1.0724e-05
-9.00803e-14
1.0724e-05
-1.39212e-12
1.0724e-05
-2.53595e-12
1.0724e-05
-3.99303e-12
1.0724e-05
-5.3717e-12
1.0724e-05
-6.4793e-12
1.0724e-05
-6.54086e-12
1.0724e-05
-6.721e-12
1.0724e-05
-4.18709e-12
1.0724e-05
-1.63676e-12
1.0724e-05
4.23153e-12
1.0724e-05
1.25948e-11
1.0724e-05
1.4391e-11
1.0724e-05
1.29341e-11
1.0724e-05
8.32801e-12
1.0724e-05
2.14917e-12
1.0724e-05
-3.88913e-12
1.0724e-05
-9.27925e-12
1.0724e-05
-1.33896e-11
1.0724e-05
-1.68261e-11
1.0724e-05
-1.9305e-11
1.0724e-05
-2.11693e-11
1.0724e-05
-2.07992e-11
1.07241e-05
-1.67233e-11
1.07241e-05
-1.80156e-11
1.07241e-05
-2.9721e-12
1.15427e-11
1.55009e-05
-5.31552e-11
1.5501e-05
-1.06475e-10
1.5501e-05
-9.69809e-11
1.5501e-05
-4.38272e-11
1.5501e-05
1.73573e-11
1.5501e-05
6.82593e-11
1.5501e-05
1.04891e-10
1.55009e-05
1.28183e-10
1.55008e-05
1.40007e-10
1.55008e-05
1.40581e-10
1.55007e-05
1.33121e-10
1.55007e-05
1.22364e-10
1.55006e-05
1.10754e-10
1.55006e-05
9.79057e-11
1.55005e-05
8.49938e-11
1.55005e-05
7.20557e-11
1.55005e-05
5.76079e-11
1.55005e-05
4.46885e-11
1.55004e-05
3.20868e-11
1.55004e-05
1.89129e-11
1.55004e-05
7.10731e-12
1.55004e-05
-3.65333e-12
1.55004e-05
-1.41152e-11
1.55004e-05
-2.42143e-11
1.55005e-05
-3.2592e-11
1.55005e-05
-3.87991e-11
1.55005e-05
-4.5455e-11
1.55005e-05
-5.2397e-11
1.55005e-05
-5.71691e-11
1.55006e-05
-6.10935e-11
1.55006e-05
-6.58224e-11
1.55006e-05
-6.94707e-11
1.55007e-05
-7.15483e-11
1.55007e-05
-7.36075e-11
1.55007e-05
-7.61878e-11
1.55008e-05
-7.791e-11
1.55008e-05
-7.81905e-11
1.55008e-05
-7.90491e-11
1.55009e-05
-7.9596e-11
1.55009e-05
-7.96986e-11
1.55009e-05
-7.4641e-11
1.5501e-05
-6.76826e-11
1.5501e-05
-5.80086e-11
1.5501e-05
-4.67909e-11
1.5501e-05
-3.19955e-11
1.5501e-05
-1.1134e-11
1.5501e-05
3.4091e-13
1.5501e-05
4.29694e-12
1.5501e-05
2.37718e-12
1.5501e-05
-3.30524e-12
1.55011e-05
-8.23715e-12
1.55011e-05
-1.3273e-11
1.55011e-05
-1.7633e-11
1.55011e-05
-2.08759e-11
1.55011e-05
-2.30291e-11
1.55011e-05
-2.43432e-11
1.55011e-05
-2.38934e-11
1.55011e-05
-2.15496e-11
1.55011e-05
-1.77174e-11
1.55011e-05
-1.3246e-11
1.55011e-05
-7.83163e-12
1.55011e-05
-1.22962e-12
1.55011e-05
5.52748e-12
1.55011e-05
1.19799e-11
1.55011e-05
1.78191e-11
1.55011e-05
2.28497e-11
1.55011e-05
2.79784e-11
1.55011e-05
3.24925e-11
1.55011e-05
3.51217e-11
1.5501e-05
3.71632e-11
1.5501e-05
3.82194e-11
1.5501e-05
3.93197e-11
1.5501e-05
4.02044e-11
1.5501e-05
3.9794e-11
1.55009e-05
3.98721e-11
1.55009e-05
3.94326e-11
1.55009e-05
3.73094e-11
1.55009e-05
3.4316e-11
1.55009e-05
3.19634e-11
1.55009e-05
3.00055e-11
1.55009e-05
2.76689e-11
1.55008e-05
2.57669e-11
1.55008e-05
2.41887e-11
1.55008e-05
2.14874e-11
1.55008e-05
1.81158e-11
1.55008e-05
1.3659e-11
1.55008e-05
7.51319e-12
1.55008e-05
3.41327e-12
1.55008e-05
1.85701e-12
1.55008e-05
1.59381e-12
1.55008e-05
2.66269e-12
1.55008e-05
2.80502e-12
1.55008e-05
2.10973e-12
1.55008e-05
7.27736e-13
1.55008e-05
-1.49356e-12
1.55008e-05
-3.62923e-12
1.55008e-05
-6.28322e-12
1.55008e-05
-8.87791e-12
1.55008e-05
-1.10551e-11
1.55008e-05
-1.17174e-11
1.55008e-05
-1.24423e-11
1.55008e-05
-8.9382e-12
1.55008e-05
-5.0476e-12
1.55008e-05
4.58482e-12
1.55008e-05
1.81809e-11
1.55008e-05
2.15322e-11
1.55008e-05
1.94249e-11
1.55008e-05
1.21513e-11
1.55008e-05
2.22701e-12
1.55008e-05
-7.64192e-12
1.55008e-05
-1.65925e-11
1.55008e-05
-2.35628e-11
1.55008e-05
-2.93609e-11
1.55009e-05
-3.37014e-11
1.55009e-05
-3.70556e-11
1.55009e-05
-3.66142e-11
1.55009e-05
-3.01485e-11
1.55009e-05
-3.18277e-11
1.55009e-05
-5.32934e-12
7.81519e-12
2.05012e-05
-1.07692e-10
2.05012e-05
-1.6671e-10
2.05013e-05
-1.36238e-10
2.05013e-05
-5.1005e-11
2.05012e-05
4.0905e-11
2.05012e-05
1.16243e-10
2.05011e-05
1.69902e-10
2.0501e-05
2.03733e-10
2.0501e-05
2.20224e-10
2.05009e-05
2.19385e-10
2.05008e-05
2.07298e-10
2.05007e-05
1.90963e-10
2.05007e-05
1.72607e-10
2.05006e-05
1.52187e-10
2.05006e-05
1.31745e-10
2.05005e-05
1.11198e-10
2.05005e-05
8.8778e-11
2.05005e-05
6.85008e-11
2.05005e-05
4.87899e-11
2.05005e-05
2.84993e-11
2.05005e-05
1.01093e-11
2.05005e-05
-6.88478e-12
2.05005e-05
-2.33205e-11
2.05005e-05
-3.86363e-11
2.05005e-05
-5.1366e-11
2.05005e-05
-6.12688e-11
2.05006e-05
-7.16338e-11
2.05006e-05
-8.22483e-11
2.05006e-05
-8.99005e-11
2.05007e-05
-9.61202e-11
2.05007e-05
-1.0305e-10
2.05007e-05
-1.08427e-10
2.05008e-05
-1.11795e-10
2.05008e-05
-1.15224e-10
2.05009e-05
-1.19055e-10
2.05009e-05
-1.21605e-10
2.05009e-05
-1.22533e-10
2.0501e-05
-1.23956e-10
2.0501e-05
-1.24588e-10
2.05011e-05
-1.24574e-10
2.05011e-05
-1.16975e-10
2.05012e-05
-1.06811e-10
2.05012e-05
-9.33511e-11
2.05012e-05
-7.6945e-11
2.05012e-05
-5.50321e-11
2.05013e-05
-2.45186e-11
2.05013e-05
-6.33591e-12
2.05013e-05
8.78511e-13
2.05013e-05
-6.28491e-13
2.05013e-05
-7.73616e-12
2.05013e-05
-1.44964e-11
2.05013e-05
-2.16495e-11
2.05013e-05
-2.78871e-11
2.05013e-05
-3.24141e-11
2.05013e-05
-3.53018e-11
2.05013e-05
-3.68036e-11
2.05014e-05
-3.55588e-11
2.05014e-05
-3.15485e-11
2.05014e-05
-2.54533e-11
2.05014e-05
-1.82701e-11
2.05014e-05
-9.56754e-12
2.05014e-05
7.71364e-13
2.05014e-05
1.12075e-11
2.05014e-05
2.10917e-11
2.05013e-05
3.0115e-11
2.05013e-05
3.79884e-11
2.05013e-05
4.58077e-11
2.05013e-05
5.255e-11
2.05013e-05
5.65485e-11
2.05012e-05
5.95818e-11
2.05012e-05
6.12384e-11
2.05012e-05
6.29063e-11
2.05012e-05
6.41841e-11
2.05012e-05
6.35677e-11
2.05011e-05
6.33881e-11
2.05011e-05
6.23749e-11
2.05011e-05
5.91329e-11
2.05011e-05
5.45901e-11
2.0501e-05
5.09143e-11
2.0501e-05
4.80043e-11
2.0501e-05
4.45067e-11
2.0501e-05
4.14671e-11
2.0501e-05
3.88428e-11
2.0501e-05
3.4629e-11
2.0501e-05
2.93798e-11
2.05009e-05
2.21285e-11
2.05009e-05
1.30975e-11
2.05009e-05
7.49695e-12
2.05009e-05
5.02599e-12
2.05009e-05
4.38092e-12
2.05009e-05
5.6395e-12
2.05009e-05
5.63725e-12
2.05009e-05
4.48563e-12
2.05009e-05
2.41349e-12
2.05009e-05
-9.47466e-13
2.05009e-05
-4.41243e-12
2.05009e-05
-8.66218e-12
2.05009e-05
-1.28917e-11
2.05009e-05
-1.66111e-11
2.05009e-05
-1.84014e-11
2.0501e-05
-2.01966e-11
2.0501e-05
-1.60823e-11
2.0501e-05
-1.09956e-11
2.0501e-05
2.87084e-12
2.0501e-05
2.21805e-11
2.0501e-05
2.72696e-11
2.0501e-05
2.47691e-11
2.05009e-05
1.4814e-11
2.05009e-05
9.82353e-13
2.0501e-05
-1.3013e-11
2.0501e-05
-2.59639e-11
2.0501e-05
-3.62279e-11
2.0501e-05
-4.47762e-11
2.0501e-05
-5.14314e-11
2.0501e-05
-5.67077e-11
2.0501e-05
-5.62697e-11
2.05011e-05
-4.71954e-11
2.05011e-05
-4.91097e-11
2.05011e-05
-7.99112e-12
-6.92303e-12
2.55806e-05
-1.82512e-10
2.55807e-05
-2.32942e-10
2.55807e-05
-1.70571e-10
2.55807e-05
-4.84987e-11
2.55807e-05
7.6399e-11
2.55806e-05
1.76995e-10
2.55806e-05
2.48082e-10
2.55805e-05
2.92705e-10
2.55804e-05
3.13432e-10
2.55803e-05
3.11222e-10
2.55802e-05
2.94096e-10
2.55801e-05
2.70703e-10
2.558e-05
2.44277e-10
2.558e-05
2.1485e-10
2.55799e-05
1.85623e-10
2.55799e-05
1.56084e-10
2.55798e-05
1.24472e-10
2.55798e-05
9.56492e-11
2.55798e-05
6.76613e-11
2.55798e-05
3.92063e-11
2.55798e-05
1.31723e-11
2.55798e-05
-1.12465e-11
2.55798e-05
-3.46943e-11
2.55798e-05
-5.57552e-11
2.55798e-05
-7.34206e-11
2.55799e-05
-8.78305e-11
2.55799e-05
-1.02579e-10
2.55799e-05
-1.17436e-10
2.558e-05
-1.28546e-10
2.558e-05
-1.37457e-10
2.55801e-05
-1.46744e-10
2.55801e-05
-1.54023e-10
2.55801e-05
-1.5905e-10
2.55802e-05
-1.6422e-10
2.55802e-05
-1.69422e-10
2.55803e-05
-1.72986e-10
2.55803e-05
-1.75098e-10
2.55804e-05
-1.77265e-10
2.55805e-05
-1.77761e-10
2.55805e-05
-1.7754e-10
2.55806e-05
-1.68197e-10
2.55806e-05
-1.55025e-10
2.55807e-05
-1.36828e-10
2.55807e-05
-1.14562e-10
2.55807e-05
-8.47954e-11
2.55807e-05
-4.36948e-11
2.55807e-05
-1.77138e-11
2.55808e-05
-6.28576e-12
2.55808e-05
-6.48442e-12
2.55808e-05
-1.43601e-11
2.55808e-05
-2.27649e-11
2.55808e-05
-3.20287e-11
2.55808e-05
-4.01155e-11
2.55808e-05
-4.57978e-11
2.55808e-05
-4.92715e-11
2.55808e-05
-5.06695e-11
2.55809e-05
-4.81432e-11
2.55809e-05
-4.20159e-11
2.55809e-05
-3.32482e-11
2.55809e-05
-2.27738e-11
2.55809e-05
-1.00588e-11
2.55809e-05
4.66119e-12
2.55809e-05
1.92644e-11
2.55809e-05
3.30071e-11
2.55808e-05
4.57036e-11
2.55808e-05
5.68873e-11
2.55808e-05
6.77335e-11
2.55808e-05
7.6889e-11
2.55807e-05
8.23805e-11
2.55807e-05
8.6526e-11
2.55807e-05
8.89264e-11
2.55807e-05
9.1282e-11
2.55806e-05
9.29703e-11
2.55806e-05
9.20529e-11
2.55806e-05
9.14114e-11
2.55806e-05
8.95605e-11
2.55805e-05
8.50549e-11
2.55805e-05
7.87807e-11
2.55805e-05
7.36701e-11
2.55805e-05
6.97997e-11
2.55804e-05
6.4942e-11
2.55804e-05
6.05037e-11
2.55804e-05
5.65681e-11
2.55804e-05
5.05466e-11
2.55804e-05
4.30512e-11
2.55804e-05
3.36179e-11
2.55803e-05
2.18694e-11
2.55803e-05
1.38445e-11
2.55803e-05
1.00279e-11
2.55803e-05
8.72348e-12
2.55803e-05
9.95397e-12
2.55803e-05
9.5842e-12
2.55803e-05
7.85349e-12
2.55803e-05
5.01139e-12
2.55803e-05
2.83672e-13
2.55803e-05
-4.84581e-12
2.55803e-05
-1.10618e-11
2.55803e-05
-1.73114e-11
2.55803e-05
-2.30482e-11
2.55803e-05
-2.65449e-11
2.55803e-05
-2.99953e-11
2.55804e-05
-2.57215e-11
2.55804e-05
-1.96959e-11
2.55804e-05
-2.50371e-12
2.55804e-05
2.23846e-11
2.55804e-05
3.03146e-11
2.55804e-05
2.80345e-11
2.55804e-05
1.57432e-11
2.55804e-05
-1.72533e-12
2.55804e-05
-1.97685e-11
2.55804e-05
-3.68736e-11
2.55804e-05
-5.06188e-11
2.55804e-05
-6.21689e-11
2.55804e-05
-7.15753e-11
2.55805e-05
-7.9171e-11
2.55805e-05
-7.87366e-11
2.55805e-05
-6.6978e-11
2.55805e-05
-6.89943e-11
2.55805e-05
-1.0561e-11
-3.37153e-11
3.05438e-05
-2.65433e-10
3.05438e-05
-2.96481e-10
3.05439e-05
-1.95492e-10
3.05438e-05
-3.5814e-11
3.05438e-05
1.2093e-10
3.05437e-05
2.45375e-10
3.05436e-05
3.33088e-10
3.05435e-05
3.88071e-10
3.05434e-05
4.12275e-10
3.05434e-05
4.08891e-10
3.05433e-05
3.87063e-10
3.05432e-05
3.55723e-10
3.05431e-05
3.20907e-10
3.0543e-05
2.82119e-10
3.0543e-05
2.43338e-10
3.05429e-05
2.04298e-10
3.05429e-05
1.62977e-10
3.05429e-05
1.24729e-10
3.05428e-05
8.78315e-11
3.05428e-05
5.0975e-11
3.05428e-05
1.66691e-11
3.05428e-05
-1.62991e-11
3.05428e-05
-4.73253e-11
3.05429e-05
-7.41385e-11
3.05429e-05
-9.71686e-11
3.05429e-05
-1.16806e-10
3.05429e-05
-1.36388e-10
3.0543e-05
-1.55866e-10
3.0543e-05
-1.7085e-10
3.05431e-05
-1.82655e-10
3.05431e-05
-1.9431e-10
3.05432e-05
-2.03662e-10
3.05432e-05
-2.10801e-10
3.05433e-05
-2.18054e-10
3.05433e-05
-2.24924e-10
3.05434e-05
-2.29794e-10
3.05434e-05
-2.33109e-10
3.05435e-05
-2.36011e-10
3.05436e-05
-2.36764e-10
3.05436e-05
-2.36458e-10
3.05437e-05
-2.25861e-10
3.05437e-05
-2.1033e-10
3.05438e-05
-1.86917e-10
3.05438e-05
-1.58447e-10
3.05439e-05
-1.20406e-10
3.05439e-05
-6.81611e-11
3.05439e-05
-3.40169e-11
3.05439e-05
-1.73933e-11
3.05439e-05
-1.49841e-11
3.05439e-05
-2.31534e-11
3.05439e-05
-3.29846e-11
3.0544e-05
-4.3908e-11
3.0544e-05
-5.3623e-11
3.0544e-05
-6.01814e-11
3.0544e-05
-6.40421e-11
3.0544e-05
-6.49825e-11
3.0544e-05
-6.06915e-11
3.0544e-05
-5.21928e-11
3.0544e-05
-4.05562e-11
3.0544e-05
-2.63466e-11
3.0544e-05
-8.80531e-12
3.0544e-05
1.06286e-11
3.0544e-05
2.9251e-11
3.0544e-05
4.69988e-11
3.0544e-05
6.36655e-11
3.0544e-05
7.84172e-11
3.05439e-05
9.24035e-11
3.05439e-05
1.03968e-10
3.05439e-05
1.10981e-10
3.05439e-05
1.16345e-10
3.05438e-05
1.19942e-10
3.05438e-05
1.23119e-10
3.05438e-05
1.24908e-10
3.05437e-05
1.23551e-10
3.05437e-05
1.22247e-10
3.05437e-05
1.19354e-10
3.05436e-05
1.13585e-10
3.05436e-05
1.05822e-10
3.05436e-05
9.93933e-11
3.05436e-05
9.43992e-11
3.05435e-05
8.79278e-11
3.05435e-05
8.1872e-11
3.05435e-05
7.64226e-11
3.05435e-05
6.86499e-11
3.05435e-05
5.8703e-11
3.05435e-05
4.75125e-11
3.05434e-05
3.33796e-11
3.05434e-05
2.23266e-11
3.05434e-05
1.68346e-11
3.05434e-05
1.45253e-11
3.05434e-05
1.54252e-11
3.05434e-05
1.46889e-11
3.05434e-05
1.23158e-11
3.05434e-05
8.37087e-12
3.05434e-05
2.00851e-12
3.05434e-05
-5.09121e-12
3.05434e-05
-1.3569e-11
3.05434e-05
-2.21415e-11
3.05434e-05
-3.03251e-11
3.05434e-05
-3.60764e-11
3.05434e-05
-4.17062e-11
3.05435e-05
-3.79382e-11
3.05435e-05
-3.12911e-11
3.05435e-05
-1.13549e-11
3.05435e-05
1.85526e-11
3.05435e-05
3.00627e-11
3.05435e-05
2.89182e-11
3.05435e-05
1.4944e-11
3.05435e-05
-5.80068e-12
3.05435e-05
-2.75488e-11
3.05435e-05
-4.81747e-11
3.05435e-05
-6.53437e-11
3.05435e-05
-8.03464e-11
3.05436e-05
-9.29618e-11
3.05436e-05
-1.03178e-10
3.05436e-05
-1.02582e-10
3.05436e-05
-8.824e-11
3.05436e-05
-9.02126e-11
3.05436e-05
-1.38585e-11
-6.73475e-11
3.52425e-05
-3.39018e-10
3.52426e-05
-3.49447e-10
3.52426e-05
-2.09857e-10
3.52426e-05
-1.49135e-11
3.52425e-05
1.70007e-10
3.52424e-05
3.1544e-10
3.52424e-05
4.18333e-10
3.52423e-05
4.82684e-10
3.52422e-05
5.09333e-10
3.52421e-05
5.04865e-10
3.5242e-05
4.79066e-10
3.52419e-05
4.40456e-10
3.52418e-05
3.97898e-10
3.52417e-05
3.50042e-10
3.52417e-05
3.01696e-10
3.52416e-05
2.5326e-10
3.52416e-05
2.02292e-10
3.52416e-05
1.54818e-10
3.52415e-05
1.09035e-10
3.52415e-05
6.34807e-11
3.52415e-05
2.0487e-11
3.52415e-05
-2.12662e-11
3.52416e-05
-5.9755e-11
3.52416e-05
-9.23305e-11
3.52416e-05
-1.21193e-10
3.52416e-05
-1.46671e-10
3.52417e-05
-1.71235e-10
3.52417e-05
-1.95071e-10
3.52417e-05
-2.14172e-10
3.52418e-05
-2.29325e-10
3.52418e-05
-2.43266e-10
3.52419e-05
-2.54951e-10
3.52419e-05
-2.64753e-10
3.5242e-05
-2.74358e-10
3.52421e-05
-2.83022e-10
3.52421e-05
-2.89526e-10
3.52422e-05
-2.94108e-10
3.52422e-05
-2.98144e-10
3.52423e-05
-2.99591e-10
3.52424e-05
-2.9893e-10
3.52424e-05
-2.86664e-10
3.52425e-05
-2.69271e-10
3.52425e-05
-2.41764e-10
3.52426e-05
-2.07274e-10
3.52426e-05
-1.6078e-10
3.52427e-05
-9.71453e-11
3.52427e-05
-5.48777e-11
3.52427e-05
-3.22504e-11
3.52427e-05
-2.60564e-11
3.52427e-05
-3.42004e-11
3.52427e-05
-4.46696e-11
3.52427e-05
-5.66871e-11
3.52428e-05
-6.77522e-11
3.52428e-05
-7.47695e-11
3.52428e-05
-7.88079e-11
3.52428e-05
-7.88518e-11
3.52428e-05
-7.23498e-11
3.52428e-05
-6.15003e-11
3.52428e-05
-4.64795e-11
3.52428e-05
-2.81301e-11
3.52428e-05
-5.69818e-12
3.52428e-05
1.82835e-11
3.52428e-05
4.0508e-11
3.52428e-05
6.23095e-11
3.52428e-05
8.30753e-11
3.52427e-05
1.01427e-10
3.52427e-05
1.18442e-10
3.52427e-05
1.32244e-10
3.52427e-05
1.40753e-10
3.52426e-05
1.47472e-10
3.52426e-05
1.52692e-10
3.52426e-05
1.56659e-10
3.52425e-05
1.58229e-10
3.52425e-05
1.56375e-10
3.52425e-05
1.54218e-10
3.52424e-05
1.50169e-10
3.52424e-05
1.43334e-10
3.52424e-05
1.34883e-10
3.52423e-05
1.27363e-10
3.52423e-05
1.2071e-10
3.52423e-05
1.1235e-10
3.52423e-05
1.04541e-10
3.52423e-05
9.74675e-11
3.52422e-05
8.80158e-11
3.52422e-05
7.55009e-11
3.52422e-05
6.22534e-11
3.52422e-05
4.64115e-11
3.52422e-05
3.28353e-11
3.52422e-05
2.52247e-11
3.52422e-05
2.15259e-11
3.52422e-05
2.17841e-11
3.52422e-05
2.06141e-11
3.52421e-05
1.74982e-11
3.52421e-05
1.21711e-11
3.52421e-05
3.94043e-12
3.52421e-05
-5.39924e-12
3.52421e-05
-1.63447e-11
3.52421e-05
-2.74632e-11
3.52422e-05
-3.84852e-11
3.52422e-05
-4.69791e-11
3.52422e-05
-5.52097e-11
3.52422e-05
-5.24087e-11
3.52422e-05
-4.53739e-11
3.52422e-05
-2.2794e-11
3.52422e-05
1.1798e-11
3.52422e-05
2.65708e-11
3.52422e-05
2.71337e-11
3.52422e-05
1.26574e-11
3.52422e-05
-1.06988e-11
3.52422e-05
-3.55388e-11
3.52423e-05
-5.90198e-11
3.52423e-05
-7.96013e-11
3.52423e-05
-9.84293e-11
3.52423e-05
-1.14627e-10
3.52423e-05
-1.27086e-10
3.52424e-05
-1.25911e-10
3.52424e-05
-1.09814e-10
3.52424e-05
-1.1163e-10
3.52424e-05
-1.9536e-11
-9.93924e-11
3.96274e-05
-3.90604e-10
3.96275e-05
-3.84928e-10
3.96275e-05
-2.13201e-10
3.96275e-05
1.1416e-11
3.96274e-05
2.20061e-10
3.96273e-05
3.8355e-10
3.96273e-05
4.99091e-10
3.96272e-05
5.71129e-10
3.96271e-05
5.99494e-10
3.9627e-05
5.94393e-10
3.96269e-05
5.65455e-10
3.96268e-05
5.21078e-10
3.96267e-05
4.71845e-10
3.96267e-05
4.15477e-10
3.96266e-05
3.58251e-10
3.96266e-05
3.00817e-10
3.96265e-05
2.40634e-10
3.96265e-05
1.84617e-10
3.96265e-05
1.30344e-10
3.96265e-05
7.59681e-11
3.96265e-05
2.475e-11
3.96265e-05
-2.55866e-11
3.96265e-05
-7.15705e-11
3.96265e-05
-1.09509e-10
3.96265e-05
-1.44081e-10
3.96266e-05
-1.75849e-10
3.96266e-05
-2.05866e-10
3.96266e-05
-2.3384e-10
3.96267e-05
-2.56671e-10
3.96267e-05
-2.75256e-10
3.96268e-05
-2.91887e-10
3.96268e-05
-3.06392e-10
3.96269e-05
-3.19483e-10
3.96269e-05
-3.31536e-10
3.9627e-05
-3.4179e-10
3.9627e-05
-3.49586e-10
3.96271e-05
-3.55677e-10
3.96272e-05
-3.61859e-10
3.96272e-05
-3.64132e-10
3.96273e-05
-3.62835e-10
3.96274e-05
-3.49633e-10
3.96274e-05
-3.30835e-10
3.96275e-05
-2.99417e-10
3.96275e-05
-2.5911e-10
3.96276e-05
-2.04122e-10
3.96276e-05
-1.29827e-10
3.96276e-05
-7.97048e-11
3.96277e-05
-5.03814e-11
3.96277e-05
-3.96564e-11
3.96277e-05
-4.69392e-11
3.96277e-05
-5.78367e-11
3.96277e-05
-7.06575e-11
3.96277e-05
-8.21101e-11
3.96277e-05
-8.89918e-11
3.96278e-05
-9.23199e-11
3.96278e-05
-9.08535e-11
3.96278e-05
-8.24552e-11
3.96278e-05
-6.95443e-11
3.96278e-05
-5.07039e-11
3.96278e-05
-2.79373e-11
3.96278e-05
-8.53475e-13
3.96278e-05
2.78365e-11
3.96278e-05
5.32849e-11
3.96277e-05
7.86024e-11
3.96277e-05
1.03442e-10
3.96277e-05
1.25218e-10
3.96277e-05
1.4496e-10
3.96276e-05
1.60711e-10
3.96276e-05
1.70687e-10
3.96276e-05
1.78957e-10
3.96275e-05
1.85293e-10
3.96275e-05
1.89683e-10
3.96275e-05
1.91602e-10
3.96274e-05
1.89364e-10
3.96274e-05
1.86125e-10
3.96274e-05
1.80924e-10
3.96274e-05
1.73464e-10
3.96273e-05
1.64867e-10
3.96273e-05
1.56232e-10
3.96273e-05
1.47705e-10
3.96272e-05
1.3736e-10
3.96272e-05
1.27764e-10
3.96272e-05
1.1904e-10
3.96272e-05
1.07799e-10
3.96272e-05
9.32528e-11
3.96271e-05
7.8165e-11
3.96271e-05
6.05195e-11
3.96271e-05
4.46709e-11
3.96271e-05
3.47599e-11
3.96271e-05
2.94379e-11
3.96271e-05
2.8813e-11
3.96271e-05
2.6936e-11
3.96271e-05
2.28735e-11
3.96271e-05
1.60821e-11
3.96271e-05
5.81813e-12
3.96271e-05
-6.00795e-12
3.96271e-05
-1.95465e-11
3.96271e-05
-3.33972e-11
3.96271e-05
-4.76681e-11
3.96271e-05
-5.93453e-11
3.96271e-05
-7.05019e-11
3.96271e-05
-6.87391e-11
3.96272e-05
-6.13942e-11
3.96272e-05
-3.70796e-11
3.96272e-05
2.20032e-12
3.96272e-05
2.0683e-11
3.96272e-05
2.25421e-11
3.96272e-05
8.52239e-12
3.96272e-05
-1.59077e-11
3.96272e-05
-4.29629e-11
3.96272e-05
-6.90451e-11
3.96272e-05
-9.32912e-11
3.96273e-05
-1.16067e-10
3.96273e-05
-1.353e-10
3.96273e-05
-1.49404e-10
3.96273e-05
-1.47885e-10
3.96273e-05
-1.3111e-10
3.96274e-05
-1.31907e-10
3.96274e-05
-2.77755e-11
-1.24204e-10
4.37207e-05
-4.1573e-10
4.37207e-05
-3.98232e-10
4.37207e-05
-2.04092e-10
4.37207e-05
4.25114e-11
4.37206e-05
2.69766e-10
4.37206e-05
4.4784e-10
4.37205e-05
5.73162e-10
4.37204e-05
6.50656e-10
4.37203e-05
6.80333e-10
4.37203e-05
6.75005e-10
4.37202e-05
6.43602e-10
4.37201e-05
5.94662e-10
4.372e-05
5.39919e-10
4.372e-05
4.76446e-10
4.37199e-05
4.11348e-10
4.37199e-05
3.45559e-10
4.37199e-05
2.76855e-10
4.37198e-05
2.12825e-10
4.37198e-05
1.50528e-10
4.37198e-05
8.77355e-11
4.37198e-05
2.88615e-11
4.37198e-05
-2.93492e-11
4.37198e-05
-8.2275e-11
4.37198e-05
-1.25286e-10
4.37198e-05
-1.64982e-10
4.37199e-05
-2.03515e-10
4.37199e-05
-2.39754e-10
4.37199e-05
-2.70888e-10
4.372e-05
-2.974e-10
4.372e-05
-3.19989e-10
4.37201e-05
-3.39374e-10
4.37201e-05
-3.5641e-10
4.37202e-05
-3.73431e-10
4.37202e-05
-3.88613e-10
4.37203e-05
-4.00151e-10
4.37204e-05
-4.09172e-10
4.37204e-05
-4.17223e-10
4.37205e-05
-4.25138e-10
4.37205e-05
-4.27893e-10
4.37206e-05
-4.26901e-10
4.37207e-05
-4.13764e-10
4.37207e-05
-3.93939e-10
4.37208e-05
-3.58339e-10
4.37208e-05
-3.12399e-10
4.37209e-05
-2.49845e-10
4.37209e-05
-1.65802e-10
4.3721e-05
-1.0736e-10
4.3721e-05
-7.1256e-11
4.3721e-05
-5.55078e-11
4.3721e-05
-6.08117e-11
4.3721e-05
-7.21201e-11
4.3721e-05
-8.53263e-11
4.3721e-05
-9.62673e-11
4.37211e-05
-1.02426e-10
4.37211e-05
-1.04289e-10
4.37211e-05
-1.00734e-10
4.37211e-05
-9.07569e-11
4.37211e-05
-7.60508e-11
4.37211e-05
-5.30792e-11
4.37211e-05
-2.49285e-11
4.37211e-05
6.82496e-12
4.37211e-05
3.91722e-11
4.37211e-05
6.70937e-11
4.3721e-05
9.57611e-11
4.3721e-05
1.24729e-10
4.3721e-05
1.49518e-10
4.3721e-05
1.71529e-10
4.37209e-05
1.88879e-10
4.37209e-05
2.00357e-10
4.37209e-05
2.10378e-10
4.37209e-05
2.1734e-10
4.37208e-05
2.21726e-10
4.37208e-05
2.23594e-10
4.37208e-05
2.20925e-10
4.37207e-05
2.17187e-10
4.37207e-05
2.11035e-10
4.37207e-05
2.03657e-10
4.37206e-05
1.95039e-10
4.37206e-05
1.8485e-10
4.37206e-05
1.7461e-10
4.37206e-05
1.62401e-10
4.37205e-05
1.51075e-10
4.37205e-05
1.4072e-10
4.37205e-05
1.27643e-10
4.37205e-05
1.11473e-10
4.37205e-05
9.47926e-11
4.37204e-05
7.5038e-11
4.37204e-05
5.70016e-11
4.37204e-05
4.49956e-11
4.37204e-05
3.80122e-11
4.37204e-05
3.63475e-11
4.37204e-05
3.35248e-11
4.37204e-05
2.82581e-11
4.37204e-05
1.98885e-11
4.37204e-05
7.4274e-12
4.37204e-05
-7.1291e-12
4.37204e-05
-2.33055e-11
4.37204e-05
-4.00989e-11
4.37204e-05
-5.81122e-11
4.37204e-05
-7.33714e-11
4.37204e-05
-8.76764e-11
4.37205e-05
-8.68592e-11
4.37205e-05
-7.92612e-11
4.37205e-05
-5.36645e-11
4.37205e-05
-1.01314e-11
4.37205e-05
1.22798e-11
4.37205e-05
1.58573e-11
4.37205e-05
3.22247e-12
4.37205e-05
-2.10908e-11
4.37205e-05
-4.95981e-11
4.37205e-05
-7.80934e-11
4.37206e-05
-1.06498e-10
4.37206e-05
-1.33173e-10
4.37206e-05
-1.54744e-10
4.37206e-05
-1.70174e-10
4.37206e-05
-1.6855e-10
4.37207e-05
-1.51067e-10
4.37207e-05
-1.49999e-10
4.37207e-05
-3.83352e-11
-1.40043e-10
4.75727e-05
-4.15143e-10
4.75727e-05
-3.88004e-10
4.75727e-05
-1.80683e-10
4.75727e-05
7.90499e-11
4.75726e-05
3.19338e-10
4.75726e-05
5.07871e-10
4.75725e-05
6.40093e-10
4.75724e-05
7.20359e-10
4.75724e-05
7.51073e-10
4.75723e-05
7.46048e-10
4.75722e-05
7.12548e-10
4.75722e-05
6.59475e-10
4.75721e-05
6.00282e-10