/*--------------------------------*- C++ -*----------------------------------*\
  =========                 |
  \\      /  F ield         | OpenFOAM: The Open Source CFD Toolbox
   \\    /   O peration     | Website:  https://openfoam.org
    \\  /    A nd           | Version:  7
     \\/     M anipulation  |
\*---------------------------------------------------------------------------*/
FoamFile
{
    version     2.0;
    format      ascii;
    class       volScalarField;
    location    "20000";
    object      k;
}
// * * * * * * * * * * * * * * * * * * * * * * * * * * * * * * * * * * * * * //

dimensions      [0 2 -2 0 0 0 0];

internalField   nonuniform List<scalar> 
24000
(
8.12949e-09
8.12988e-09
8.13015e-09
8.13021e-09
8.13012e-09
8.12995e-09
8.12976e-09
8.12956e-09
8.12938e-09
8.12922e-09
8.12908e-09
8.12896e-09
8.12887e-09
8.12879e-09
8.12874e-09
8.1287e-09
8.12868e-09
8.12867e-09
8.12867e-09
8.12869e-09
8.12871e-09
8.12874e-09
8.12877e-09
8.12881e-09
8.12885e-09
8.1289e-09
8.12895e-09
8.129e-09
8.12905e-09
8.1291e-09
8.12915e-09
8.12921e-09
8.12926e-09
8.12931e-09
8.12936e-09
8.12941e-09
8.12946e-09
8.12951e-09
8.12955e-09
8.1296e-09
8.12964e-09
8.12968e-09
8.12971e-09
8.12975e-09
8.12978e-09
8.1298e-09
8.12982e-09
8.12984e-09
8.12986e-09
8.12988e-09
8.1299e-09
8.12992e-09
8.12994e-09
8.12996e-09
8.12997e-09
8.12998e-09
8.12999e-09
8.12999e-09
8.12998e-09
8.12997e-09
8.12995e-09
8.12992e-09
8.12989e-09
8.12985e-09
8.1298e-09
8.12976e-09
8.12971e-09
8.12966e-09
8.12961e-09
8.12957e-09
8.12952e-09
8.12947e-09
8.12943e-09
8.12939e-09
8.12935e-09
8.12931e-09
8.12928e-09
8.12925e-09
8.12922e-09
8.12919e-09
8.12917e-09
8.12915e-09
8.12912e-09
8.1291e-09
8.12909e-09
8.12907e-09
8.12906e-09
8.12904e-09
8.12903e-09
8.12903e-09
8.12902e-09
8.12901e-09
8.129e-09
8.12899e-09
8.12898e-09
8.12898e-09
8.12897e-09
8.12897e-09
8.12898e-09
8.12898e-09
8.12899e-09
8.12901e-09
8.12903e-09
8.12905e-09
8.12907e-09
8.12909e-09
8.12912e-09
8.12915e-09
8.12918e-09
8.12922e-09
8.12925e-09
8.12929e-09
8.12932e-09
8.12935e-09
8.12938e-09
8.12941e-09
8.12943e-09
8.12945e-09
8.12949e-09
8.12941e-09
2.61441e-07
2.61453e-07
2.61462e-07
2.61464e-07
2.61461e-07
2.61455e-07
2.61449e-07
2.61443e-07
2.61437e-07
2.61432e-07
2.61427e-07
2.61424e-07
2.61421e-07
2.61418e-07
2.61416e-07
2.61415e-07
2.61415e-07
2.61414e-07
2.61414e-07
2.61415e-07
2.61415e-07
2.61416e-07
2.61417e-07
2.61419e-07
2.6142e-07
2.61422e-07
2.61423e-07
2.61425e-07
2.61426e-07
2.61428e-07
2.6143e-07
2.61431e-07
2.61433e-07
2.61435e-07
2.61436e-07
2.61438e-07
2.6144e-07
2.61441e-07
2.61443e-07
2.61444e-07
2.61445e-07
2.61447e-07
2.61448e-07
2.61449e-07
2.6145e-07
2.61451e-07
2.61451e-07
2.61452e-07
2.61453e-07
2.61453e-07
2.61454e-07
2.61455e-07
2.61455e-07
2.61456e-07
2.61456e-07
2.61456e-07
2.61457e-07
2.61457e-07
2.61456e-07
2.61456e-07
2.61455e-07
2.61454e-07
2.61453e-07
2.61452e-07
2.61451e-07
2.61449e-07
2.61448e-07
2.61446e-07
2.61445e-07
2.61443e-07
2.61442e-07
2.6144e-07
2.61439e-07
2.61437e-07
2.61436e-07
2.61435e-07
2.61434e-07
2.61433e-07
2.61432e-07
2.61431e-07
2.6143e-07
2.61429e-07
2.61429e-07
2.61428e-07
2.61428e-07
2.61427e-07
2.61427e-07
2.61426e-07
2.61426e-07
2.61426e-07
2.61425e-07
2.61425e-07
2.61425e-07
2.61424e-07
2.61424e-07
2.61424e-07
2.61424e-07
2.61424e-07
2.61424e-07
2.61424e-07
2.61425e-07
2.61425e-07
2.61426e-07
2.61426e-07
2.61427e-07
2.61428e-07
2.61429e-07
2.6143e-07
2.61431e-07
2.61432e-07
2.61433e-07
2.61434e-07
2.61435e-07
2.61436e-07
2.61437e-07
2.61438e-07
2.61439e-07
2.61439e-07
2.61441e-07
2.61438e-07
1.89769e-06
1.89778e-06
1.89785e-06
1.89786e-06
1.89784e-06
1.8978e-06
1.89775e-06
1.89771e-06
1.89767e-06
1.89763e-06
1.8976e-06
1.89757e-06
1.89755e-06
1.89753e-06
1.89752e-06
1.89751e-06
1.8975e-06
1.8975e-06
1.8975e-06
1.8975e-06
1.89751e-06
1.89752e-06
1.89752e-06
1.89753e-06
1.89754e-06
1.89755e-06
1.89757e-06
1.89758e-06
1.89759e-06
1.8976e-06
1.89761e-06
1.89763e-06
1.89764e-06
1.89765e-06
1.89766e-06
1.89767e-06
1.89768e-06
1.8977e-06
1.89771e-06
1.89772e-06
1.89773e-06
1.89774e-06
1.89774e-06
1.89775e-06
1.89776e-06
1.89776e-06
1.89777e-06
1.89777e-06
1.89778e-06
1.89778e-06
1.89779e-06
1.89779e-06
1.8978e-06
1.8978e-06
1.8978e-06
1.89781e-06
1.89781e-06
1.89781e-06
1.89781e-06
1.8978e-06
1.8978e-06
1.89779e-06
1.89778e-06
1.89777e-06
1.89776e-06
1.89775e-06
1.89774e-06
1.89773e-06
1.89772e-06
1.89771e-06
1.8977e-06
1.89769e-06
1.89768e-06
1.89767e-06
1.89766e-06
1.89765e-06
1.89764e-06
1.89764e-06
1.89763e-06
1.89762e-06
1.89762e-06
1.89761e-06
1.89761e-06
1.8976e-06
1.8976e-06
1.89759e-06
1.89759e-06
1.89759e-06
1.89759e-06
1.89758e-06
1.89758e-06
1.89758e-06
1.89758e-06
1.89758e-06
1.89757e-06
1.89757e-06
1.89757e-06
1.89757e-06
1.89757e-06
1.89757e-06
1.89758e-06
1.89758e-06
1.89758e-06
1.89759e-06
1.89759e-06
1.8976e-06
1.89761e-06
1.89761e-06
1.89762e-06
1.89763e-06
1.89764e-06
1.89764e-06
1.89765e-06
1.89766e-06
1.89767e-06
1.89767e-06
1.89768e-06
1.89768e-06
1.89769e-06
1.89767e-06
7.0002e-06
7.00054e-06
7.00076e-06
7.0008e-06
7.00072e-06
7.00057e-06
7.00041e-06
7.00024e-06
7.00009e-06
6.99995e-06
6.99983e-06
6.99973e-06
6.99965e-06
6.99959e-06
6.99955e-06
6.99952e-06
6.9995e-06
6.99949e-06
6.99949e-06
6.9995e-06
6.99952e-06
6.99955e-06
6.99958e-06
6.99961e-06
6.99965e-06
6.99969e-06
6.99973e-06
6.99977e-06
6.99981e-06
6.99986e-06
6.9999e-06
6.99995e-06
6.99999e-06
7.00004e-06
7.00008e-06
7.00012e-06
7.00016e-06
7.0002e-06
7.00024e-06
7.00028e-06
7.00031e-06
7.00035e-06
7.00038e-06
7.00041e-06
7.00043e-06
7.00045e-06
7.00047e-06
7.00049e-06
7.00051e-06
7.00052e-06
7.00054e-06
7.00056e-06
7.00057e-06
7.00059e-06
7.0006e-06
7.00061e-06
7.00061e-06
7.00061e-06
7.00061e-06
7.00059e-06
7.00058e-06
7.00055e-06
7.00052e-06
7.00049e-06
7.00045e-06
7.00041e-06
7.00037e-06
7.00033e-06
7.00029e-06
7.00025e-06
7.00021e-06
7.00017e-06
7.00013e-06
7.0001e-06
7.00007e-06
7.00004e-06
7.00001e-06
6.99998e-06
6.99996e-06
6.99993e-06
6.99991e-06
6.99989e-06
6.99987e-06
6.99986e-06
6.99984e-06
6.99983e-06
6.99982e-06
6.99981e-06
6.9998e-06
6.99979e-06
6.99978e-06
6.99977e-06
6.99977e-06
6.99976e-06
6.99975e-06
6.99975e-06
6.99975e-06
6.99975e-06
6.99975e-06
6.99975e-06
6.99976e-06
6.99978e-06
6.99979e-06
6.99981e-06
6.99983e-06
6.99985e-06
6.99987e-06
6.9999e-06
6.99993e-06
6.99995e-06
6.99998e-06
7.00001e-06
7.00004e-06
7.00007e-06
7.0001e-06
7.00012e-06
7.00014e-06
7.00016e-06
7.00019e-06
7.00012e-06
1.77503e-05
1.77512e-05
1.77517e-05
1.77517e-05
1.77515e-05
1.77512e-05
1.77508e-05
1.77503e-05
1.775e-05
1.77496e-05
1.77493e-05
1.77491e-05
1.77489e-05
1.77488e-05
1.77487e-05
1.77486e-05
1.77485e-05
1.77485e-05
1.77485e-05
1.77486e-05
1.77486e-05
1.77487e-05
1.77487e-05
1.77488e-05
1.77489e-05
1.7749e-05
1.77491e-05
1.77492e-05
1.77493e-05
1.77494e-05
1.77495e-05
1.77497e-05
1.77498e-05
1.77499e-05
1.775e-05
1.77501e-05
1.77502e-05
1.77503e-05
1.77504e-05
1.77505e-05
1.77506e-05
1.77506e-05
1.77507e-05
1.77508e-05
1.77508e-05
1.77509e-05
1.77509e-05
1.7751e-05
1.7751e-05
1.77511e-05
1.77511e-05
1.77512e-05
1.77512e-05
1.77512e-05
1.77513e-05
1.77513e-05
1.77513e-05
1.77513e-05
1.77513e-05
1.77512e-05
1.77512e-05
1.77511e-05
1.77511e-05
1.7751e-05
1.77509e-05
1.77508e-05
1.77507e-05
1.77506e-05
1.77505e-05
1.77504e-05
1.77503e-05
1.77502e-05
1.77501e-05
1.775e-05
1.77499e-05
1.77499e-05
1.77498e-05
1.77497e-05
1.77497e-05
1.77496e-05
1.77496e-05
1.77495e-05
1.77495e-05
1.77494e-05
1.77494e-05
1.77493e-05
1.77493e-05
1.77493e-05
1.77493e-05
1.77493e-05
1.77492e-05
1.77492e-05
1.77492e-05
1.77492e-05
1.77492e-05
1.77491e-05
1.77491e-05
1.77491e-05
1.77491e-05
1.77492e-05
1.77492e-05
1.77492e-05
1.77493e-05
1.77493e-05
1.77494e-05
1.77494e-05
1.77495e-05
1.77495e-05
1.77496e-05
1.77497e-05
1.77497e-05
1.77498e-05
1.77499e-05
1.775e-05
1.775e-05
1.77501e-05
1.77501e-05
1.77502e-05
1.77502e-05
1.77501e-05
3.47384e-05
3.47399e-05
3.47407e-05
3.47407e-05
3.47403e-05
3.47396e-05
3.47388e-05
3.47381e-05
3.47374e-05
3.47367e-05
3.47362e-05
3.47358e-05
3.47354e-05
3.47352e-05
3.4735e-05
3.47349e-05
3.47348e-05
3.47348e-05
3.47348e-05
3.47349e-05
3.47349e-05
3.47351e-05
3.47352e-05
3.47354e-05
3.47355e-05
3.47357e-05
3.47359e-05
3.47361e-05
3.47363e-05
3.47365e-05
3.47367e-05
3.47369e-05
3.47371e-05
3.47373e-05
3.47375e-05
3.47377e-05
3.47379e-05
3.47381e-05
3.47382e-05
3.47384e-05
3.47386e-05
3.47387e-05
3.47388e-05
3.4739e-05
3.47391e-05
3.47392e-05
3.47393e-05
3.47394e-05
3.47394e-05
3.47395e-05
3.47396e-05
3.47397e-05
3.47397e-05
3.47398e-05
3.47398e-05
3.47399e-05
3.47399e-05
3.47399e-05
3.47398e-05
3.47398e-05
3.47397e-05
3.47396e-05
3.47394e-05
3.47393e-05
3.47391e-05
3.47389e-05
3.47387e-05
3.47386e-05
3.47384e-05
3.47382e-05
3.4738e-05
3.47378e-05
3.47377e-05
3.47375e-05
3.47373e-05
3.47372e-05
3.47371e-05
3.4737e-05
3.47368e-05
3.47367e-05
3.47367e-05
3.47366e-05
3.47365e-05
3.47364e-05
3.47363e-05
3.47363e-05
3.47362e-05
3.47362e-05
3.47361e-05
3.47361e-05
3.47361e-05
3.4736e-05
3.4736e-05
3.4736e-05
3.47359e-05
3.47359e-05
3.47359e-05
3.47359e-05
3.47359e-05
3.4736e-05
3.4736e-05
3.47361e-05
3.47361e-05
3.47362e-05
3.47363e-05
3.47364e-05
3.47365e-05
3.47367e-05
3.47368e-05
3.47369e-05
3.47371e-05
3.47372e-05
3.47373e-05
3.47374e-05
3.47376e-05
3.47377e-05
3.47377e-05
3.47378e-05
3.4738e-05
3.47376e-05
5.5772e-05
5.57741e-05
5.57751e-05
5.5775e-05
5.57742e-05
5.57731e-05
5.5772e-05
5.57709e-05
5.57699e-05
5.5769e-05
5.57682e-05
5.57676e-05
5.57671e-05
5.57667e-05
5.57665e-05
5.57663e-05
5.57662e-05
5.57662e-05
5.57663e-05
5.57664e-05
5.57665e-05
5.57667e-05
5.57669e-05
5.57671e-05
5.57674e-05
5.57677e-05
5.5768e-05
5.57683e-05
5.57686e-05
5.57689e-05
5.57692e-05
5.57695e-05
5.57698e-05
5.57701e-05
5.57703e-05
5.57706e-05
5.57709e-05
5.57711e-05
5.57714e-05
5.57716e-05
5.57719e-05
5.57721e-05
5.57723e-05
5.57725e-05
5.57726e-05
5.57728e-05
5.57729e-05
5.57731e-05
5.57732e-05
5.57733e-05
5.57734e-05
5.57735e-05
5.57736e-05
5.57737e-05
5.57738e-05
5.57738e-05
5.57738e-05
5.57738e-05
5.57737e-05
5.57736e-05
5.57735e-05
5.57733e-05
5.57731e-05
5.57728e-05
5.57726e-05
5.57723e-05
5.5772e-05
5.57717e-05
5.57715e-05
5.57712e-05
5.57709e-05
5.57707e-05
5.57704e-05
5.57702e-05
5.577e-05
5.57698e-05
5.57696e-05
5.57694e-05
5.57692e-05
5.57691e-05
5.57689e-05
5.57688e-05
5.57687e-05
5.57686e-05
5.57685e-05
5.57684e-05
5.57683e-05
5.57683e-05
5.57682e-05
5.57682e-05
5.57681e-05
5.5768e-05
5.5768e-05
5.57679e-05
5.57679e-05
5.57679e-05
5.57679e-05
5.57679e-05
5.57679e-05
5.57679e-05
5.5768e-05
5.57681e-05
5.57682e-05
5.57684e-05
5.57685e-05
5.57687e-05
5.57688e-05
5.5769e-05
5.57692e-05
5.57694e-05
5.57696e-05
5.57698e-05
5.577e-05
5.57702e-05
5.57704e-05
5.57705e-05
5.57706e-05
5.57707e-05
5.5771e-05
5.57704e-05
7.73355e-05
7.73381e-05
7.73391e-05
7.73388e-05
7.73377e-05
7.73364e-05
7.73349e-05
7.73336e-05
7.73323e-05
7.73312e-05
7.73303e-05
7.73295e-05
7.73289e-05
7.73284e-05
7.73281e-05
7.73279e-05
7.73278e-05
7.73278e-05
7.73279e-05
7.73281e-05
7.73283e-05
7.73285e-05
7.73288e-05
7.73291e-05
7.73295e-05
7.73298e-05
7.73302e-05
7.73306e-05
7.7331e-05
7.73314e-05
7.73317e-05
7.73321e-05
7.73325e-05
7.73329e-05
7.73332e-05
7.73336e-05
7.73339e-05
7.73342e-05
7.73346e-05
7.73349e-05
7.73352e-05
7.73354e-05
7.73357e-05
7.73359e-05
7.73361e-05
7.73363e-05
7.73365e-05
7.73367e-05
7.73368e-05
7.7337e-05
7.73371e-05
7.73372e-05
7.73374e-05
7.73375e-05
7.73375e-05
7.73376e-05
7.73376e-05
7.73375e-05
7.73374e-05
7.73373e-05
7.73371e-05
7.73368e-05
7.73365e-05
7.73362e-05
7.73359e-05
7.73355e-05
7.73352e-05
7.73348e-05
7.73344e-05
7.73341e-05
7.73337e-05
7.73334e-05
7.73331e-05
7.73328e-05
7.73325e-05
7.73323e-05
7.7332e-05
7.73318e-05
7.73316e-05
7.73314e-05
7.73313e-05
7.73311e-05
7.73309e-05
7.73308e-05
7.73307e-05
7.73306e-05
7.73305e-05
7.73304e-05
7.73303e-05
7.73303e-05
7.73302e-05
7.73301e-05
7.73301e-05
7.733e-05
7.73299e-05
7.73299e-05
7.73299e-05
7.73299e-05
7.73299e-05
7.733e-05
7.73301e-05
7.73303e-05
7.73304e-05
7.73306e-05
7.73308e-05
7.7331e-05
7.73313e-05
7.73315e-05
7.73318e-05
7.7332e-05
7.73323e-05
7.73325e-05
7.73328e-05
7.7333e-05
7.73332e-05
7.73334e-05
7.73335e-05
7.73337e-05
7.7334e-05
7.73332e-05
9.69024e-05
9.69051e-05
9.69061e-05
9.69056e-05
9.69044e-05
9.69029e-05
9.69012e-05
9.68997e-05
9.68982e-05
9.6897e-05
9.68959e-05
9.68951e-05
9.68944e-05
9.68939e-05
9.68936e-05
9.68934e-05
9.68933e-05
9.68934e-05
9.68935e-05
9.68937e-05
9.68939e-05
9.68942e-05
9.68946e-05
9.6895e-05
9.68954e-05
9.68958e-05
9.68962e-05
9.68967e-05
9.68971e-05
9.68976e-05
9.6898e-05
9.68985e-05
9.68989e-05
9.68994e-05
9.68998e-05
9.69002e-05
9.69006e-05
9.6901e-05
9.69013e-05
9.69017e-05
9.6902e-05
9.69023e-05
9.69026e-05
9.69029e-05
9.69031e-05
9.69033e-05
9.69036e-05
9.69037e-05
9.69039e-05
9.69041e-05
9.69043e-05
9.69044e-05
9.69045e-05
9.69046e-05
9.69047e-05
9.69047e-05
9.69047e-05
9.69046e-05
9.69045e-05
9.69043e-05
9.69041e-05
9.69037e-05
9.69034e-05
9.6903e-05
9.69026e-05
9.69022e-05
9.69017e-05
9.69013e-05
9.69009e-05
9.69005e-05
9.69001e-05
9.68997e-05
9.68993e-05
9.6899e-05
9.68987e-05
9.68984e-05
9.68981e-05
9.68978e-05
9.68976e-05
9.68974e-05
9.68972e-05
9.6897e-05
9.68969e-05
9.68967e-05
9.68966e-05
9.68964e-05
9.68963e-05
9.68962e-05
9.68962e-05
9.68961e-05
9.6896e-05
9.68959e-05
9.68958e-05
9.68958e-05
9.68957e-05
9.68957e-05
9.68957e-05
9.68957e-05
9.68957e-05
9.68958e-05
9.6896e-05
9.68962e-05
9.68964e-05
9.68966e-05
9.68968e-05
9.68971e-05
9.68974e-05
9.68977e-05
9.6898e-05
9.68983e-05
9.68986e-05
9.68989e-05
9.68992e-05
9.68994e-05
9.68996e-05
9.68999e-05
9.69e-05
9.69002e-05
9.69005e-05
9.68996e-05
0.000113506
0.000113509
0.00011351
0.000113509
0.000113508
0.000113506
0.000113504
0.000113503
0.000113501
0.0001135
0.000113499
0.000113498
0.000113497
0.000113497
0.000113496
0.000113496
0.000113496
0.000113496
0.000113496
0.000113497
0.000113497
0.000113497
0.000113498
0.000113498
0.000113499
0.000113499
0.0001135
0.0001135
0.000113501
0.000113501
0.000113502
0.000113502
0.000113503
0.000113503
0.000113504
0.000113504
0.000113504
0.000113505
0.000113505
0.000113506
0.000113506
0.000113506
0.000113507
0.000113507
0.000113507
0.000113507
0.000113508
0.000113508
0.000113508
0.000113508
0.000113508
0.000113509
0.000113509
0.000113509
0.000113509
0.000113509
0.000113509
0.000113509
0.000113509
0.000113508
0.000113508
0.000113508
0.000113507
0.000113507
0.000113506
0.000113506
0.000113505
0.000113505
0.000113504
0.000113504
0.000113503
0.000113503
0.000113503
0.000113502
0.000113502
0.000113502
0.000113501
0.000113501
0.000113501
0.000113501
0.0001135
0.0001135
0.0001135
0.0001135
0.0001135
0.0001135
0.000113499
0.000113499
0.000113499
0.000113499
0.000113499
0.000113499
0.000113499
0.000113499
0.000113499
0.000113499
0.000113499
0.000113499
0.000113499
0.000113499
0.000113499
0.000113499
0.0001135
0.0001135
0.0001135
0.0001135
0.000113501
0.000113501
0.000113501
0.000113502
0.000113502
0.000113502
0.000113503
0.000113503
0.000113503
0.000113503
0.000113504
0.000113504
0.000113504
0.000113503
0.000127152
0.000127154
0.000127155
0.000127155
0.000127153
0.000127152
0.00012715
0.000127148
0.000127147
0.000127146
0.000127144
0.000127143
0.000127143
0.000127142
0.000127142
0.000127142
0.000127142
0.000127142
0.000127142
0.000127142
0.000127143
0.000127143
0.000127143
0.000127144
0.000127144
0.000127145
0.000127145
0.000127146
0.000127147
0.000127147
0.000127148
0.000127148
0.000127149
0.000127149
0.00012715
0.00012715
0.000127151
0.000127151
0.000127152
0.000127152
0.000127152
0.000127153
0.000127153
0.000127153
0.000127154
0.000127154
0.000127154
0.000127154
0.000127155
0.000127155
0.000127155
0.000127155
0.000127155
0.000127155
0.000127155
0.000127155
0.000127155
0.000127155
0.000127155
0.000127155
0.000127154
0.000127154
0.000127153
0.000127153
0.000127152
0.000127152
0.000127151
0.000127151
0.00012715
0.00012715
0.000127149
0.000127149
0.000127148
0.000127148
0.000127148
0.000127147
0.000127147
0.000127147
0.000127146
0.000127146
0.000127146
0.000127146
0.000127146
0.000127145
0.000127145
0.000127145
0.000127145
0.000127145
0.000127145
0.000127145
0.000127145
0.000127145
0.000127144
0.000127144
0.000127144
0.000127144
0.000127144
0.000127144
0.000127144
0.000127145
0.000127145
0.000127145
0.000127145
0.000127146
0.000127146
0.000127146
0.000127147
0.000127147
0.000127147
0.000127148
0.000127148
0.000127148
0.000127149
0.000127149
0.000127149
0.00012715
0.00012715
0.00012715
0.00012715
0.00012715
0.000138227
0.000138229
0.00013823
0.000138229
0.000138228
0.000138226
0.000138225
0.000138223
0.000138222
0.00013822
0.000138219
0.000138218
0.000138218
0.000138217
0.000138217
0.000138217
0.000138217
0.000138217
0.000138217
0.000138217
0.000138218
0.000138218
0.000138218
0.000138219
0.00013822
0.00013822
0.000138221
0.000138221
0.000138222
0.000138222
0.000138223
0.000138224
0.000138224
0.000138225
0.000138225
0.000138226
0.000138226
0.000138227
0.000138227
0.000138228
0.000138228
0.000138228
0.000138229
0.000138229
0.000138229
0.00013823
0.00013823
0.00013823
0.00013823
0.000138231
0.000138231
0.000138231
0.000138231
0.000138231
0.000138231
0.000138231
0.000138231
0.000138231
0.000138231
0.00013823
0.00013823
0.000138229
0.000138229
0.000138228
0.000138228
0.000138227
0.000138227
0.000138226
0.000138225
0.000138225
0.000138224
0.000138224
0.000138223
0.000138223
0.000138223
0.000138222
0.000138222
0.000138222
0.000138221
0.000138221
0.000138221
0.000138221
0.000138221
0.00013822
0.00013822
0.00013822
0.00013822
0.00013822
0.00013822
0.00013822
0.000138219
0.000138219
0.000138219
0.000138219
0.000138219
0.000138219
0.000138219
0.000138219
0.000138219
0.00013822
0.00013822
0.00013822
0.00013822
0.000138221
0.000138221
0.000138222
0.000138222
0.000138222
0.000138223
0.000138223
0.000138223
0.000138224
0.000138224
0.000138224
0.000138225
0.000138225
0.000138225
0.000138225
0.000138226
0.000138225
0.000147191
0.000147193
0.000147193
0.000147193
0.000147192
0.00014719
0.000147189
0.000147187
0.000147186
0.000147184
0.000147183
0.000147182
0.000147182
0.000147181
0.000147181
0.000147181
0.000147181
0.000147181
0.000147181
0.000147181
0.000147182
0.000147182
0.000147183
0.000147183
0.000147184
0.000147185
0.000147185
0.000147186
0.000147186
0.000147187
0.000147188
0.000147188
0.000147189
0.000147189
0.00014719
0.000147191
0.000147191
0.000147192
0.000147192
0.000147192
0.000147193
0.000147193
0.000147194
0.000147194
0.000147194
0.000147195
0.000147195
0.000147195
0.000147195
0.000147196
0.000147196
0.000147196
0.000147196
0.000147196
0.000147196
0.000147196
0.000147196
0.000147196
0.000147195
0.000147195
0.000147194
0.000147194
0.000147193
0.000147193
0.000147192
0.000147191
0.000147191
0.00014719
0.00014719
0.000147189
0.000147189
0.000147188
0.000147188
0.000147187
0.000147187
0.000147186
0.000147186
0.000147186
0.000147186
0.000147185
0.000147185
0.000147185
0.000147185
0.000147184
0.000147184
0.000147184
0.000147184
0.000147184
0.000147184
0.000147184
0.000147184
0.000147183
0.000147183
0.000147183
0.000147183
0.000147183
0.000147183
0.000147183
0.000147184
0.000147184
0.000147184
0.000147184
0.000147185
0.000147185
0.000147185
0.000147186
0.000147186
0.000147187
0.000147187
0.000147188
0.000147188
0.000147188
0.000147189
0.000147189
0.000147189
0.000147189
0.00014719
0.00014719
0.00014719
0.00014719
0.00015446
0.000154461
0.000154462
0.000154461
0.00015446
0.000154459
0.000154457
0.000154456
0.000154454
0.000154453
0.000154452
0.000154451
0.000154451
0.00015445
0.00015445
0.00015445
0.00015445
0.00015445
0.00015445
0.00015445
0.000154451
0.000154451
0.000154452
0.000154452
0.000154453
0.000154454
0.000154454
0.000154455
0.000154456
0.000154456
0.000154457
0.000154458
0.000154458
0.000154459
0.000154459
0.00015446
0.000154461
0.000154461
0.000154462
0.000154462
0.000154462
0.000154463
0.000154463
0.000154464
0.000154464
0.000154464
0.000154465
0.000154465
0.000154465
0.000154465
0.000154465
0.000154466
0.000154466
0.000154466
0.000154466
0.000154466
0.000154465
0.000154465
0.000154465
0.000154464
0.000154464
0.000154463
0.000154462
0.000154462
0.000154461
0.00015446
0.00015446
0.000154459
0.000154459
0.000154458
0.000154458
0.000154457
0.000154457
0.000154456
0.000154456
0.000154455
0.000154455
0.000154455
0.000154454
0.000154454
0.000154454
0.000154454
0.000154453
0.000154453
0.000154453
0.000154453
0.000154453
0.000154453
0.000154453
0.000154452
0.000154452
0.000154452
0.000154452
0.000154452
0.000154452
0.000154452
0.000154452
0.000154452
0.000154453
0.000154453
0.000154453
0.000154453
0.000154454
0.000154454
0.000154455
0.000154455
0.000154456
0.000154456
0.000154456
0.000154457
0.000154457
0.000154458
0.000154458
0.000154458
0.000154458
0.000154459
0.000154459
0.000154459
0.000154459
0.000154459
0.000160375
0.000160376
0.000160376
0.000160375
0.000160374
0.000160373
0.000160372
0.00016037
0.000160369
0.000160368
0.000160367
0.000160366
0.000160366
0.000160365
0.000160365
0.000160365
0.000160365
0.000160365
0.000160365
0.000160366
0.000160366
0.000160367
0.000160367
0.000160368
0.000160368
0.000160369
0.00016037
0.00016037
0.000160371
0.000160372
0.000160372
0.000160373
0.000160374
0.000160374
0.000160375
0.000160376
0.000160376
0.000160377
0.000160377
0.000160378
0.000160378
0.000160379
0.000160379
0.000160379
0.00016038
0.00016038
0.00016038
0.000160381
0.000160381
0.000160381
0.000160381
0.000160381
0.000160381
0.000160381
0.000160381
0.000160381
0.000160381
0.00016038
0.00016038
0.000160379
0.000160379
0.000160378
0.000160378
0.000160377
0.000160376
0.000160376
0.000160375
0.000160374
0.000160374
0.000160373
0.000160373
0.000160372
0.000160372
0.000160371
0.000160371
0.00016037
0.00016037
0.00016037
0.000160369
0.000160369
0.000160369
0.000160369
0.000160368
0.000160368
0.000160368
0.000160368
0.000160368
0.000160368
0.000160368
0.000160367
0.000160367
0.000160367
0.000160367
0.000160367
0.000160367
0.000160367
0.000160367
0.000160367
0.000160368
0.000160368
0.000160368
0.000160369
0.000160369
0.000160369
0.00016037
0.00016037
0.000160371
0.000160371
0.000160372
0.000160372
0.000160372
0.000160373
0.000160373
0.000160373
0.000160374
0.000160374
0.000160374
0.000160374
0.000160374
0.000160374
0.000165206
0.000165206
0.000165206
0.000165205
0.000165204
0.000165203
0.000165202
0.000165201
0.0001652
0.000165199
0.000165198
0.000165197
0.000165197
0.000165196
0.000165196
0.000165196
0.000165196
0.000165196
0.000165196
0.000165197
0.000165197
0.000165198
0.000165198
0.000165199
0.000165199
0.0001652
0.000165201
0.000165201
0.000165202
0.000165203
0.000165203
0.000165204
0.000165205
0.000165205
0.000165206
0.000165207
0.000165207
0.000165208
0.000165208
0.000165209
0.000165209
0.00016521
0.00016521
0.000165211
0.000165211
0.000165211
0.000165212
0.000165212
0.000165212
0.000165212
0.000165213
0.000165213
0.000165213
0.000165213
0.000165212
0.000165212
0.000165212
0.000165211
0.000165211
0.00016521
0.00016521
0.000165209
0.000165208
0.000165208
0.000165207
0.000165206
0.000165206
0.000165205
0.000165205
0.000165204
0.000165203
0.000165203
0.000165202
0.000165202
0.000165202
0.000165201
0.000165201
0.000165201
0.0001652
0.0001652
0.0001652
0.000165199
0.000165199
0.000165199
0.000165199
0.000165199
0.000165198
0.000165198
0.000165198
0.000165198
0.000165198
0.000165198
0.000165198
0.000165198
0.000165198
0.000165198
0.000165198
0.000165198
0.000165198
0.000165199
0.000165199
0.000165199
0.0001652
0.0001652
0.000165201
0.000165201
0.000165202
0.000165202
0.000165203
0.000165203
0.000165203
0.000165204
0.000165204
0.000165204
0.000165205
0.000165205
0.000165205
0.000165205
0.000165205
0.000165205
0.000169162
0.000169162
0.000169162
0.000169161
0.00016916
0.000169159
0.000169158
0.000169157
0.000169156
0.000169155
0.000169154
0.000169153
0.000169153
0.000169153
0.000169152
0.000169152
0.000169152
0.000169152
0.000169153
0.000169153
0.000169154
0.000169154
0.000169155
0.000169155
0.000169156
0.000169157
0.000169157
0.000169158
0.000169159
0.000169159
0.00016916
0.000169161
0.000169161
0.000169162
0.000169163
0.000169163
0.000169164
0.000169165
0.000169165
0.000169166
0.000169166
0.000169167
0.000169167
0.000169167
0.000169168
0.000169168
0.000169168
0.000169169
0.000169169
0.000169169
0.000169169
0.000169169
0.000169169
0.000169169
0.000169169
0.000169169
0.000169168
0.000169168
0.000169167
0.000169167
0.000169166
0.000169165
0.000169165
0.000169164
0.000169163
0.000169163
0.000169162
0.000169161
0.000169161
0.00016916
0.00016916
0.000169159
0.000169159
0.000169158
0.000169158
0.000169157
0.000169157
0.000169157
0.000169156
0.000169156
0.000169156
0.000169156
0.000169155
0.000169155
0.000169155
0.000169155
0.000169155
0.000169154
0.000169154
0.000169154
0.000169154
0.000169154
0.000169154
0.000169154
0.000169154
0.000169154
0.000169154
0.000169154
0.000169155
0.000169155
0.000169155
0.000169156
0.000169156
0.000169157
0.000169157
0.000169158
0.000169158
0.000169159
0.000169159
0.000169159
0.00016916
0.00016916
0.00016916
0.000169161
0.000169161
0.000169161
0.000169161
0.000169162
0.000169162
0.000169162
0.000172407
0.000172406
0.000172406
0.000172405
0.000172404
0.000172403
0.000172402
0.000172401
0.0001724
0.000172399
0.000172399
0.000172398
0.000172398
0.000172397
0.000172397
0.000172397
0.000172397
0.000172397
0.000172398
0.000172398
0.000172398
0.000172399
0.000172399
0.0001724
0.000172401
0.000172401
0.000172402
0.000172403
0.000172404
0.000172404
0.000172405
0.000172406
0.000172406
0.000172407
0.000172408
0.000172408
0.000172409
0.00017241
0.00017241
0.000172411
0.000172411
0.000172412
0.000172412
0.000172412
0.000172413
0.000172413
0.000172413
0.000172414
0.000172414
0.000172414
0.000172414
0.000172415
0.000172414
0.000172414
0.000172414
0.000172414
0.000172413
0.000172413
0.000172412
0.000172411
0.000172411
0.00017241
0.000172409
0.000172409
0.000172408
0.000172407
0.000172407
0.000172406
0.000172405
0.000172405
0.000172404
0.000172404
0.000172403
0.000172403
0.000172402
0.000172402
0.000172402
0.000172401
0.000172401
0.000172401
0.000172401
0.0001724
0.0001724
0.0001724
0.0001724
0.000172399
0.000172399
0.000172399
0.000172399
0.000172399
0.000172399
0.000172398
0.000172398
0.000172398
0.000172398
0.000172399
0.000172399
0.000172399
0.000172399
0.0001724
0.0001724
0.000172401
0.000172401
0.000172402
0.000172402
0.000172403
0.000172403
0.000172403
0.000172404
0.000172404
0.000172405
0.000172405
0.000172405
0.000172405
0.000172406
0.000172406
0.000172406
0.000172406
0.000172406
0.000172407
0.000175066
0.000175065
0.000175065
0.000175064
0.000175063
0.000175062
0.000175061
0.00017506
0.000175059
0.000175059
0.000175058
0.000175058
0.000175057
0.000175057
0.000175057
0.000175057
0.000175057
0.000175057
0.000175057
0.000175058
0.000175058
0.000175059
0.000175059
0.00017506
0.000175061
0.000175061
0.000175062
0.000175063
0.000175063
0.000175064
0.000175065
0.000175066
0.000175066
0.000175067
0.000175068
0.000175068
0.000175069
0.000175069
0.00017507
0.000175071
0.000175071
0.000175072
0.000175072
0.000175072
0.000175073
0.000175073
0.000175074
0.000175074
0.000175074
0.000175074
0.000175074
0.000175075
0.000175074
0.000175074
0.000175074
0.000175073
0.000175073
0.000175072
0.000175072
0.000175071
0.00017507
0.000175069
0.000175069
0.000175068
0.000175067
0.000175067
0.000175066
0.000175066
0.000175065
0.000175064
0.000175064
0.000175063
0.000175063
0.000175063
0.000175062
0.000175062
0.000175061
0.000175061
0.000175061
0.00017506
0.00017506
0.00017506
0.00017506
0.000175059
0.000175059
0.000175059
0.000175059
0.000175059
0.000175058
0.000175058
0.000175058
0.000175058
0.000175058
0.000175058
0.000175058
0.000175058
0.000175059
0.000175059
0.000175059
0.00017506
0.00017506
0.00017506
0.000175061
0.000175061
0.000175062
0.000175062
0.000175063
0.000175063
0.000175064
0.000175064
0.000175064
0.000175065
0.000175065
0.000175065
0.000175065
0.000175065
0.000175066
0.000175066
0.000175066
0.000175066
0.00017724
0.000177239
0.000177238
0.000177237
0.000177236
0.000177235
0.000177234
0.000177234
0.000177233
0.000177232
0.000177232
0.000177231
0.000177231
0.000177231
0.000177231
0.000177231
0.000177231
0.000177231
0.000177231
0.000177232
0.000177232
0.000177233
0.000177233
0.000177234
0.000177235
0.000177235
0.000177236
0.000177237
0.000177237
0.000177238
0.000177239
0.00017724
0.00017724
0.000177241
0.000177242
0.000177242
0.000177243
0.000177244
0.000177244
0.000177245
0.000177245
0.000177246
0.000177246
0.000177247
0.000177247
0.000177247
0.000177248
0.000177248
0.000177248
0.000177248
0.000177249
0.000177249
0.000177248
0.000177248
0.000177248
0.000177247
0.000177247
0.000177246
0.000177245
0.000177245
0.000177244
0.000177243
0.000177242
0.000177242
0.000177241
0.000177241
0.00017724
0.000177239
0.000177239
0.000177238
0.000177238
0.000177237
0.000177237
0.000177236
0.000177236
0.000177236
0.000177235
0.000177235
0.000177235
0.000177234
0.000177234
0.000177234
0.000177234
0.000177233
0.000177233
0.000177233
0.000177233
0.000177232
0.000177232
0.000177232
0.000177232
0.000177232
0.000177232
0.000177232
0.000177232
0.000177232
0.000177232
0.000177233
0.000177233
0.000177234
0.000177234
0.000177234
0.000177235
0.000177235
0.000177236
0.000177236
0.000177237
0.000177237
0.000177237
0.000177238
0.000177238
0.000177238
0.000177239
0.000177239
0.000177239
0.000177239
0.000177239
0.000177239
0.000177239
0.00017724
0.000179005
0.000179005
0.000179004
0.000179003
0.000179002
0.000179001
0.000179
0.000178999
0.000178999
0.000178998
0.000178998
0.000178997
0.000178997
0.000178997
0.000178997
0.000178997
0.000178997
0.000178997
0.000178998
0.000178998
0.000178999
0.000178999
0.000179
0.000179
0.000179001
0.000179002
0.000179002
0.000179003
0.000179004
0.000179005
0.000179005
0.000179006
0.000179007
0.000179007
0.000179008
0.000179009
0.000179009
0.00017901
0.00017901
0.000179011
0.000179012
0.000179012
0.000179013
0.000179013
0.000179013
0.000179014
0.000179014
0.000179014
0.000179015
0.000179015
0.000179015
0.000179015
0.000179015
0.000179014
0.000179014
0.000179013
0.000179013
0.000179012
0.000179011
0.00017901
0.00017901
0.000179009
0.000179008
0.000179008
0.000179007