/*--------------------------------*- C++ -*----------------------------------*\
  =========                 |
  \\      /  F ield         | OpenFOAM: The Open Source CFD Toolbox
   \\    /   O peration     | Website:  https://openfoam.org
    \\  /    A nd           | Version:  7
     \\/     M anipulation  |
\*---------------------------------------------------------------------------*/
FoamFile
{
    version     2.0;
    format      ascii;
    class       surfaceScalarField;
    location    "20000";
    object      phi;
}
// * * * * * * * * * * * * * * * * * * * * * * * * * * * * * * * * * * * * * //

dimensions      [0 3 -1 0 0 0 0];

internalField   nonuniform List<scalar> 
47680
(
2.19927e-06
1.99779e-12
2.19928e-06
-4.74319e-12
2.19929e-06
-8.49963e-12
2.19929e-06
-7.14801e-12
2.1993e-06
-3.43396e-12
2.1993e-06
4.63253e-13
2.19929e-06
3.60077e-12
2.19929e-06
5.77239e-12
2.19928e-06
7.05381e-12
2.19927e-06
7.61527e-12
2.19926e-06
7.65184e-12
2.19926e-06
7.31938e-12
2.19925e-06
6.73651e-12
2.19924e-06
6.00898e-12
2.19924e-06
5.22327e-12
2.19923e-06
4.42317e-12
2.19923e-06
3.61393e-12
2.19923e-06
2.81801e-12
2.19923e-06
2.06669e-12
2.19922e-06
1.35106e-12
2.19922e-06
6.56354e-13
2.19922e-06
-5.98638e-15
2.19922e-06
-6.18076e-13
2.19923e-06
-1.15974e-12
2.19923e-06
-1.62627e-12
2.19923e-06
-2.03867e-12
2.19923e-06
-2.42354e-12
2.19923e-06
-2.79059e-12
2.19924e-06
-3.12186e-12
2.19924e-06
-3.39915e-12
2.19924e-06
-3.63497e-12
2.19925e-06
-3.85658e-12
2.19925e-06
-4.06525e-12
2.19926e-06
-4.24553e-12
2.19926e-06
-4.36781e-12
2.19927e-06
-4.45392e-12
2.19927e-06
-4.50699e-12
2.19928e-06
-4.57483e-12
2.19928e-06
-4.53128e-12
2.19928e-06
-4.47205e-12
2.19929e-06
-4.14474e-12
2.19929e-06
-3.83768e-12
2.1993e-06
-3.09004e-12
2.1993e-06
-2.18556e-12
2.1993e-06
-1.08947e-12
2.1993e-06
4.15639e-13
2.1993e-06
7.95094e-13
2.1993e-06
8.62866e-13
2.1993e-06
6.55332e-13
2.1993e-06
6.60997e-14
2.1993e-06
-3.00815e-13
2.1993e-06
-6.45306e-13
2.1993e-06
-9.47664e-13
2.1993e-06
-1.17497e-12
2.1993e-06
-1.33226e-12
2.1993e-06
-1.40248e-12
2.1993e-06
-1.37007e-12
2.1993e-06
-1.25712e-12
2.19931e-06
-1.0819e-12
2.19931e-06
-8.30497e-13
2.19931e-06
-4.93943e-13
2.19931e-06
-1.02988e-13
2.19931e-06
2.96271e-13
2.19931e-06
6.90676e-13
2.1993e-06
1.07482e-12
2.1993e-06
1.42286e-12
2.1993e-06
1.71393e-12
2.1993e-06
1.94019e-12
2.1993e-06
2.11208e-12
2.1993e-06
2.2655e-12
2.19929e-06
2.40442e-12
2.19929e-06
2.48502e-12
2.19929e-06
2.49429e-12
2.19929e-06
2.45891e-12
2.19928e-06
2.40115e-12
2.19928e-06
2.3417e-12
2.19928e-06
2.27983e-12
2.19928e-06
2.18792e-12
2.19927e-06
2.06137e-12
2.19927e-06
1.91556e-12
2.19927e-06
1.7536e-12
2.19927e-06
1.5924e-12
2.19927e-06
1.44553e-12
2.19927e-06
1.32777e-12
2.19926e-06
1.16892e-12
2.19926e-06
9.778e-13
2.19926e-06
6.72566e-13
2.19926e-06
4.07701e-13
2.19926e-06
2.52839e-13
2.19926e-06
1.439e-13
2.19926e-06
1.36156e-13
2.19926e-06
8.81665e-14
2.19926e-06
2.07138e-14
2.19926e-06
-4.14858e-14
2.19926e-06
-1.40235e-13
2.19926e-06
-2.52104e-13
2.19926e-06
-4.115e-13
2.19926e-06
-5.25994e-13
2.19926e-06
-6.94181e-13
2.19926e-06
-6.41947e-13
2.19927e-06
-6.68654e-13
2.19927e-06
-3.06517e-13
2.19927e-06
1.05489e-13
2.19926e-06
7.36319e-13
2.19926e-06
1.62728e-12
2.19926e-06
1.66924e-12
2.19926e-06
1.44296e-12
2.19926e-06
8.90563e-13
2.19926e-06
1.81622e-13
2.19926e-06
-5.27918e-13
2.19926e-06
-1.18601e-12
2.19926e-06
-1.71594e-12
2.19926e-06
-2.15085e-12
2.19927e-06
-2.40384e-12
2.19927e-06
-2.5532e-12
2.19927e-06
-2.52302e-12
2.19927e-06
-1.95152e-12
2.19928e-06
-2.03753e-12
2.19928e-06
-1.26102e-12
2.64344e-12
6.79525e-06
2.55221e-12
6.79526e-06
-2.0824e-11
6.79529e-06
-3.24524e-11
6.7953e-06
-2.60206e-11
6.79531e-06
-1.12679e-11
6.79531e-06
3.835e-12
6.7953e-06
1.58709e-11
6.79528e-06
2.41287e-11
6.79526e-06
2.89396e-11
6.79523e-06
3.09721e-11
6.79521e-06
3.09705e-11
6.79519e-06
2.9538e-11
6.79517e-06
2.71362e-11
6.79515e-06
2.41699e-11
6.79513e-06
2.097e-11
6.79512e-06
1.7717e-11
6.79511e-06
1.44489e-11
6.7951e-06
1.12432e-11
6.7951e-06
8.20626e-12
6.79509e-06
5.31953e-12
6.79509e-06
2.53691e-12
6.79509e-06
-1.09378e-13
6.79509e-06
-2.55413e-12
6.79509e-06
-4.72494e-12
6.7951e-06
-6.60387e-12
6.79511e-06
-8.26566e-12
6.79511e-06
-9.80519e-12
6.79512e-06
-1.12612e-11
6.79513e-06
-1.25771e-11
6.79514e-06
-1.36903e-11
6.79515e-06
-1.46377e-11
6.79516e-06
-1.55105e-11
6.79518e-06
-1.63245e-11
6.79519e-06
-1.70251e-11
6.7952e-06
-1.75198e-11
6.79522e-06
-1.78609e-11
6.79523e-06
-1.80934e-11
6.79524e-06
-1.83288e-11
6.79526e-06
-1.82257e-11
6.79527e-06
-1.79681e-11
6.79528e-06
-1.68652e-11
6.79529e-06
-1.56581e-11
6.7953e-06
-1.29914e-11
6.79531e-06
-9.66525e-12
6.79532e-06
-5.50871e-12
6.79532e-06
-1.14628e-13
6.79532e-06
1.81306e-12
6.79531e-06
2.33051e-12
6.79531e-06
1.74922e-12
6.79531e-06
-1.55722e-13
6.79532e-06
-1.5225e-12
6.79532e-06
-2.75487e-12
6.79532e-06
-3.8382e-12
6.79532e-06
-4.65308e-12
6.79533e-06
-5.19526e-12
6.79533e-06
-5.40174e-12
6.79534e-06
-5.2148e-12
6.79534e-06
-4.70488e-12
6.79534e-06
-3.9408e-12
6.79534e-06
-2.88761e-12
6.79534e-06
-1.52029e-12
6.79534e-06
5.11269e-14
6.79534e-06
1.65814e-12
6.79534e-06
3.23562e-12
6.79534e-06
4.75631e-12
6.79533e-06
6.13114e-12
6.79533e-06
7.28165e-12
6.79532e-06
8.17925e-12
6.79531e-06
8.86173e-12
6.79531e-06
9.45338e-12
6.7953e-06
9.97162e-12
6.79529e-06
1.02741e-11
6.79528e-06
1.03112e-11
6.79528e-06
1.01672e-11
6.79527e-06
9.92838e-12
6.79526e-06
9.67346e-12
6.79525e-06
9.40457e-12
6.79525e-06
9.03104e-12
6.79524e-06
8.53036e-12
6.79523e-06
7.95045e-12
6.79523e-06
7.31404e-12
6.79522e-06
6.67511e-12
6.79522e-06
6.09214e-12
6.79521e-06
5.59873e-12
6.79521e-06
4.98202e-12
6.79521e-06
4.22096e-12
6.79521e-06
3.07572e-12
6.7952e-06
2.03551e-12
6.7952e-06
1.37034e-12
6.7952e-06
9.23769e-13
6.7952e-06
8.25463e-13
6.7952e-06
6.3806e-13
6.7952e-06
3.79354e-13
6.7952e-06
1.14089e-13
6.7952e-06
-2.76088e-13
6.7952e-06
-7.57902e-13
6.7952e-06
-1.39337e-12
6.7952e-06
-1.94851e-12
6.7952e-06
-2.6196e-12
6.79521e-06
-2.6496e-12
6.79521e-06
-2.79172e-12
6.79521e-06
-1.69748e-12
6.79521e-06
-2.85276e-13
6.79521e-06
1.96898e-12
6.79521e-06
5.03458e-12
6.7952e-06
5.48577e-12
6.7952e-06
4.74417e-12
6.7952e-06
2.83079e-12
6.7952e-06
2.81153e-13
6.7952e-06
-2.34455e-12
6.7952e-06
-4.79796e-12
6.79521e-06
-6.81496e-12
6.79521e-06
-8.45372e-12
6.79522e-06
-9.45571e-12
6.79523e-06
-1.00563e-11
6.79524e-06
-9.95782e-12
6.79524e-06
-8.01543e-12
6.79525e-06
-8.31106e-12
6.79525e-06
-4.64813e-12
7.63095e-12
1.1701e-05
-4.28227e-12
1.1701e-05
-5.13132e-11
1.17011e-05
-7.06402e-11
1.17011e-05
-5.35687e-11
1.17011e-05
-2.03371e-11
1.17011e-05
1.27676e-11
1.17011e-05
3.88547e-11
1.1701e-05
5.65902e-11
1.1701e-05
6.67786e-11
1.1701e-05
7.09051e-11
1.17009e-05
7.05816e-11
1.17009e-05
6.71256e-11
1.17009e-05
6.1553e-11
1.17008e-05
5.474e-11
1.17008e-05
4.74081e-11
1.17008e-05
3.99682e-11
1.17008e-05
3.25317e-11
1.17007e-05
2.52524e-11
1.17007e-05
1.83423e-11
1.17007e-05
1.17846e-11
1.17007e-05
5.49437e-12
1.17007e-05
-4.71137e-13
1.17007e-05
-5.98076e-12
1.17007e-05
-1.08819e-11
1.17007e-05
-1.51413e-11
1.17008e-05
-1.89112e-11
1.17008e-05
-2.23867e-11
1.17008e-05
-2.56511e-11
1.17008e-05
-2.8604e-11
1.17008e-05
-3.11193e-11
1.17008e-05
-3.32616e-11
1.17009e-05
-3.52082e-11
1.17009e-05
-3.70067e-11
1.17009e-05
-3.85498e-11
1.17009e-05
-3.96657e-11
1.17009e-05
-4.04349e-11
1.1701e-05
-4.09809e-11
1.1701e-05
-4.14741e-11
1.1701e-05
-4.13274e-11
1.1701e-05
-4.07554e-11
1.17011e-05
-3.8562e-11
1.17011e-05
-3.59402e-11
1.17011e-05
-3.04421e-11
1.17011e-05
-2.34395e-11
1.17011e-05
-1.45489e-11
1.17011e-05
-3.32072e-12
1.17011e-05
1.53052e-12
1.17011e-05
3.16652e-12
1.17011e-05
2.32715e-12
1.17011e-05
-1.23378e-12
1.17011e-05
-4.05249e-12
1.17011e-05
-6.57585e-12
1.17011e-05
-8.78321e-12
1.17011e-05
-1.0437e-11
1.17011e-05
-1.14933e-11
1.17011e-05
-1.18124e-11
1.17012e-05
-1.12706e-11
1.17012e-05
-1.00017e-11
1.17012e-05
-8.15454e-12
1.17012e-05
-5.68074e-12
1.17012e-05
-2.54389e-12
1.17012e-05
1.02499e-12
1.17012e-05
4.66923e-12
1.17012e-05
8.22942e-12
1.17011e-05
1.16331e-11
1.17011e-05
1.46989e-11
1.17011e-05
1.7266e-11
1.17011e-05
1.92719e-11
1.17011e-05
2.0798e-11
1.17011e-05
2.20905e-11
1.17011e-05
2.31919e-11
1.17011e-05
2.38323e-11
1.17011e-05
2.39056e-11
1.1701e-05
2.35733e-11
1.1701e-05
2.3018e-11
1.1701e-05
2.24104e-11
1.1701e-05
2.17656e-11
1.1701e-05
2.09073e-11
1.1701e-05
1.97818e-11
1.1701e-05
1.84787e-11
1.1701e-05
1.706e-11
1.1701e-05
1.56318e-11
1.17009e-05
1.43197e-11
1.17009e-05
1.31757e-11
1.17009e-05
1.18037e-11
1.17009e-05
1.00992e-11
1.17009e-05
7.62757e-12
1.17009e-05
5.3204e-12
1.17009e-05
3.7579e-12
1.17009e-05
2.71956e-12
1.17009e-05
2.39756e-12
1.17009e-05
1.96997e-12
1.17009e-05
1.39913e-12
1.17009e-05
7.77155e-13
1.17009e-05
-1.10073e-13
1.17009e-05
-1.24935e-12
1.17009e-05
-2.71101e-12
1.17009e-05
-4.10826e-12
1.17009e-05
-5.67766e-12
1.17009e-05
-6.10224e-12
1.17009e-05
-6.56873e-12
1.17009e-05
-4.66551e-12
1.17009e-05
-1.92112e-12
1.17009e-05
2.64256e-12
1.17009e-05
8.78612e-12
1.17009e-05
1.01274e-11
1.17009e-05
8.78299e-12
1.17009e-05
4.9688e-12
1.17009e-05
-2.70662e-13
1.17009e-05
-5.79407e-12
1.17009e-05
-1.10005e-11
1.17009e-05
-1.5341e-11
1.17009e-05
-1.88559e-11
1.1701e-05
-2.10757e-11
1.1701e-05
-2.24227e-11
1.1701e-05
-2.22584e-11
1.1701e-05
-1.84227e-11
1.1701e-05
-1.89785e-11
1.1701e-05
-9.9372e-12
1.21024e-11
1.69066e-05
-2.53877e-11
1.69067e-05
-9.95394e-11
1.69067e-05
-1.20806e-10
1.69067e-05
-8.52937e-11
1.69068e-05
-2.63726e-11
1.69067e-05
3.04888e-11
1.69067e-05
7.47199e-11
1.69066e-05
1.0448e-10
1.69066e-05
1.2129e-10
1.69065e-05
1.27729e-10
1.69065e-05
1.26544e-10
1.69064e-05
1.19982e-10
1.69064e-05
1.09794e-10
1.69063e-05
9.74747e-11
1.69063e-05
8.42586e-11
1.69063e-05
7.08788e-11
1.69062e-05
5.75597e-11
1.69062e-05
4.45488e-11
1.69062e-05
3.21808e-11
1.69062e-05
2.04551e-11
1.69062e-05
9.25745e-12
1.69062e-05
-1.33343e-12
1.69062e-05
-1.11078e-11
1.69062e-05
-1.98161e-11
1.69062e-05
-2.74112e-11
1.69062e-05
-3.41435e-11
1.69063e-05
-4.03268e-11
1.69063e-05
-4.60992e-11
1.69063e-05
-5.13205e-11
1.69063e-05
-5.57928e-11
1.69064e-05
-5.96033e-11
1.69064e-05
-6.30299e-11
1.69064e-05
-6.61655e-11
1.69064e-05
-6.88482e-11
1.69065e-05
-7.082e-11
1.69065e-05
-7.21918e-11
1.69065e-05
-7.31857e-11
1.69066e-05
-7.40276e-11
1.69066e-05
-7.38648e-11
1.69066e-05
-7.29053e-11
1.69067e-05
-6.94045e-11
1.69067e-05
-6.49721e-11
1.69067e-05
-5.59642e-11
1.69067e-05
-4.43065e-11
1.69068e-05
-2.93666e-11
1.69068e-05
-1.075e-11
1.69068e-05
-1.59888e-12
1.69068e-05
2.06465e-12
1.69068e-05
1.36968e-12
1.69068e-05
-3.83828e-12
1.69068e-05
-8.31177e-12
1.69068e-05
-1.23581e-11
1.69068e-05
-1.5874e-11
1.69068e-05
-1.84831e-11
1.69068e-05
-2.00633e-11
1.69068e-05
-2.03622e-11
1.69068e-05
-1.91716e-11
1.69068e-05
-1.66963e-11
1.69068e-05
-1.31919e-11
1.69068e-05
-8.61464e-12
1.69068e-05
-2.93314e-12
1.69068e-05
3.46122e-12
1.69068e-05
9.96878e-12
1.69068e-05
1.62937e-11
1.69068e-05
2.22944e-11
1.69068e-05
2.7675e-11
1.69068e-05
3.21767e-11
1.69068e-05
3.56995e-11
1.69067e-05
3.83781e-11
1.69067e-05
4.06026e-11
1.69067e-05
4.24466e-11
1.69067e-05
4.35025e-11
1.69067e-05
4.36016e-11
1.69067e-05
4.2991e-11
1.69066e-05
4.19736e-11
1.69066e-05
4.08411e-11
1.69066e-05
3.96328e-11
1.69066e-05
3.8075e-11
1.69066e-05
3.60718e-11
1.69065e-05
3.37638e-11
1.69065e-05
3.12668e-11
1.69065e-05
2.87523e-11
1.69065e-05
2.64243e-11
1.69065e-05
2.43498e-11
1.69065e-05
2.19235e-11
1.69065e-05
1.89142e-11
1.69065e-05
1.4675e-11
1.69065e-05
1.06442e-11
1.69065e-05
7.7995e-12
1.69065e-05
5.89876e-12
1.69065e-05
5.18663e-12
1.69065e-05
4.40165e-12
1.69065e-05
3.39599e-12
1.69064e-05
2.25377e-12
1.69064e-05
6.40842e-13
1.69064e-05
-1.46965e-12
1.69064e-05
-4.15308e-12
1.69065e-05
-6.84772e-12
1.69065e-05
-9.79567e-12
1.69065e-05
-1.10603e-11
1.69065e-05
-1.22139e-11
1.69065e-05
-9.67137e-12
1.69065e-05
-5.53002e-12
1.69065e-05
1.70145e-12
1.69065e-05
1.14881e-11
1.69065e-05
1.4169e-11
1.69065e-05
1.23217e-11
1.69065e-05
6.3334e-12
1.69065e-05
-2.14007e-12
1.69065e-05
-1.12704e-11
1.69065e-05
-1.99645e-11
1.69065e-05
-2.72905e-11
1.69065e-05
-3.3227e-11
1.69065e-05
-3.70729e-11
1.69065e-05
-3.94361e-11
1.69066e-05
-3.92442e-11
1.69066e-05
-3.32143e-11
1.69066e-05
-3.40764e-11
1.69066e-05
-1.67133e-11
1.298e-11
2.2333e-05
-6.73881e-11
2.23331e-05
-1.65473e-10
2.23331e-05
-1.77427e-10
2.23331e-05
-1.14892e-10
2.23331e-05
-2.47691e-11
2.23331e-05
5.94812e-11
2.23331e-05
1.24219e-10
2.2333e-05
1.67351e-10
2.23329e-05
1.91283e-10
2.23329e-05
1.99866e-10
2.23328e-05
1.97127e-10
2.23327e-05
1.86383e-10
2.23327e-05
1.70236e-10
2.23326e-05
1.50905e-10
2.23326e-05
1.30233e-10
2.23325e-05
1.09344e-10
2.23325e-05
8.86121e-11
2.23325e-05
6.83862e-11
2.23324e-05
4.91324e-11
2.23324e-05
3.08916e-11
2.23324e-05
1.35304e-11
2.23324e-05
-2.84857e-12
2.23324e-05
-1.79531e-11
2.23325e-05
-3.14305e-11
2.23325e-05
-4.32299e-11
2.23325e-05
-5.37154e-11
2.23325e-05
-6.33184e-11
2.23325e-05
-7.2236e-11
2.23326e-05
-8.03e-11
2.23326e-05
-8.72391e-11
2.23326e-05
-9.31556e-11
2.23327e-05
-9.84326e-11
2.23327e-05
-1.03221e-10
2.23327e-05
-1.07307e-10
2.23328e-05
-1.1035e-10
2.23328e-05
-1.125e-10
2.23329e-05
-1.14081e-10
2.23329e-05
-1.15369e-10
2.23329e-05
-1.15235e-10
2.2333e-05
-1.13863e-10
2.2333e-05
-1.08944e-10
2.23331e-05
-1.02443e-10
2.23331e-05
-8.94885e-11
2.23331e-05
-7.25113e-11
2.23331e-05
-5.06057e-11
2.23332e-05
-2.348e-11
2.23332e-05
-8.7944e-12
2.23332e-05
-2.07444e-12
2.23332e-05
-1.98545e-12
2.23332e-05
-8.52133e-12
2.23332e-05
-1.45847e-11
2.23332e-05
-2.01848e-11
2.23332e-05
-2.50225e-11
2.23332e-05
-2.85598e-11
2.23332e-05
-3.05515e-11
2.23332e-05
-3.05981e-11
2.23332e-05
-2.83892e-11
2.23332e-05
-2.42104e-11
2.23333e-05
-1.84465e-11
2.23333e-05
-1.10803e-11
2.23333e-05
-2.10901e-12
2.23333e-05
7.8763e-12
2.23332e-05
1.79908e-11
2.23332e-05
2.77705e-11
2.23332e-05
3.6983e-11
2.23332e-05
4.52048e-11
2.23332e-05
5.20748e-11
2.23332e-05
5.74584e-11
2.23331e-05
6.15517e-11
2.23331e-05
6.48952e-11
2.23331e-05
6.75922e-11
2.23331e-05
6.91e-11
2.2333e-05
6.91976e-11
2.2333e-05
6.82211e-11
2.2333e-05
6.6605e-11
2.2333e-05
6.47836e-11
2.23329e-05
6.28302e-11
2.23329e-05
6.03672e-11
2.23329e-05
5.72532e-11
2.23329e-05
5.36891e-11
2.23329e-05
4.98579e-11
2.23328e-05
4.60017e-11
2.23328e-05
4.24004e-11
2.23328e-05
3.91349e-11
2.23328e-05
3.53706e-11
2.23328e-05
3.07226e-11
2.23328e-05
2.43382e-11
2.23328e-05
1.81985e-11
2.23328e-05
1.373e-11
2.23328e-05
1.07109e-11
2.23327e-05
9.43038e-12
2.23327e-05
8.15733e-12
2.23327e-05
6.58767e-12
2.23327e-05
4.74982e-12
2.23327e-05
2.16449e-12
2.23327e-05
-1.25211e-12
2.23327e-05
-5.57551e-12
2.23327e-05
-1.00525e-11
2.23327e-05
-1.49026e-11
2.23328e-05
-1.75405e-11
2.23328e-05
-1.98534e-11
2.23328e-05
-1.70311e-11
2.23328e-05
-1.1658e-11
2.23328e-05
-1.69106e-12
2.23328e-05
1.1992e-11
2.23328e-05
1.6375e-11
2.23328e-05
1.42667e-11
2.23328e-05
6.10339e-12
2.23328e-05
-5.82335e-12
2.23328e-05
-1.89525e-11
2.23328e-05
-3.15934e-11
2.23328e-05
-4.2348e-11
2.23328e-05
-5.10907e-11
2.23329e-05
-5.68877e-11
2.23329e-05
-6.05059e-11
2.23329e-05
-6.03548e-11
2.23329e-05
-5.20221e-11
2.23329e-05
-5.33156e-11
2.23329e-05
-2.42161e-11
6.26813e-12
2.77968e-05
-1.32066e-10
2.77969e-05
-2.4155e-10
2.77969e-05
-2.31182e-10
2.77969e-05
-1.35688e-10
2.77969e-05
-1.26555e-11
2.77969e-05
9.93408e-11
2.77968e-05
1.84666e-10
2.77967e-05
2.41155e-10
2.77967e-05
2.72062e-10
2.77966e-05
2.8247e-10
2.77965e-05
2.77668e-10
2.77964e-05
2.62041e-10
2.77964e-05
2.39081e-10
2.77963e-05
2.11776e-10
2.77962e-05
1.82625e-10
2.77962e-05
1.53188e-10
2.77962e-05
1.24006e-10
2.77961e-05
9.5534e-11
2.77961e-05
6.83775e-11
2.77961e-05
4.26444e-11
2.77961e-05
1.82077e-11
2.77961e-05
-4.80632e-12
2.77961e-05
-2.60241e-11
2.77961e-05
-4.49943e-11
2.77961e-05
-6.16783e-11
2.77962e-05
-7.65583e-11
2.77962e-05
-9.01609e-11
2.77962e-05
-1.02742e-10
2.77963e-05
-1.1412e-10
2.77963e-05
-1.2395e-10
2.77963e-05
-1.32342e-10
2.77964e-05
-1.39789e-10
2.77964e-05
-1.46505e-10
2.77965e-05
-1.52227e-10
2.77965e-05
-1.56542e-10
2.77966e-05
-1.59654e-10
2.77966e-05
-1.6198e-10
2.77967e-05
-1.63834e-10
2.77967e-05
-1.63808e-10
2.77968e-05
-1.62068e-10
2.77968e-05
-1.55743e-10
2.77968e-05
-1.47082e-10
2.77969e-05
-1.30007e-10
2.77969e-05
-1.07401e-10
2.77969e-05
-7.80547e-11
2.7797e-05
-4.17633e-11
2.7797e-05
-2.05684e-11
2.7797e-05
-9.7941e-12
2.7797e-05
-8.14335e-12
2.7797e-05
-1.54545e-11
2.7797e-05
-2.28027e-11
2.7797e-05
-2.97818e-11
2.7797e-05
-3.57956e-11
2.7797e-05
-4.01102e-11
2.7797e-05
-4.23135e-11
2.77971e-05
-4.1822e-11
2.77971e-05
-3.82192e-11
2.77971e-05
-3.1884e-11
2.77971e-05
-2.33439e-11
2.77971e-05
-1.2626e-11
2.77971e-05
2.16415e-13
2.77971e-05
1.43601e-11
2.77971e-05
2.86104e-11
2.77971e-05
4.23264e-11
2.7797e-05
5.51695e-11
2.7797e-05
6.6584e-11
2.7797e-05
7.61163e-11
2.7797e-05
8.36041e-11
2.77969e-05
8.93058e-11
2.77969e-05
9.39022e-11
2.77969e-05
9.75179e-11
2.77968e-05
9.94897e-11
2.77968e-05
9.9566e-11
2.77968e-05
9.81699e-11
2.77968e-05
9.58677e-11
2.77967e-05
9.32459e-11
2.77967e-05
9.04158e-11
2.77967e-05
8.6892e-11
2.77966e-05
8.24964e-11
2.77966e-05
7.75039e-11
2.77966e-05
7.21683e-11
2.77966e-05
6.67932e-11
2.77966e-05
6.17286e-11
2.77965e-05
5.70633e-11
2.77965e-05
5.17271e-11
2.77965e-05
4.5172e-11
2.77965e-05
3.63674e-11
2.77965e-05
2.78515e-11
2.77965e-05
2.1512e-11
2.77965e-05
1.7168e-11
2.77965e-05
1.51499e-11
2.77965e-05
1.3253e-11
2.77965e-05
1.0981e-11
2.77965e-05
8.26357e-12
2.77965e-05
4.45107e-12
2.77965e-05
-5.99778e-13
2.77965e-05
-6.95663e-12
2.77965e-05
-1.36675e-11
2.77965e-05
-2.09148e-11
2.77965e-05
-2.54564e-11
2.77965e-05
-2.94192e-11
2.77965e-05
-2.67613e-11
2.77965e-05
-2.0462e-11
2.77965e-05
-7.90196e-12
2.77965e-05
9.699e-12
2.77965e-05
1.60658e-11
2.77965e-05
1.40548e-11
2.77965e-05
3.98082e-12
2.77965e-05
-1.12884e-11
2.77965e-05
-2.84679e-11
2.77965e-05
-4.52078e-11
2.77966e-05
-5.95879e-11
2.77966e-05
-7.1355e-11
2.77966e-05
-7.93451e-11
2.77966e-05
-8.44368e-11
2.77966e-05
-8.44387e-11
2.77967e-05
-7.38979e-11
2.77967e-05
-7.57638e-11
2.77967e-05
-3.18197e-11
-1.22696e-11
3.30733e-05
-2.11418e-10
3.30734e-05
-3.15449e-10
3.30734e-05
-2.73721e-10
3.30734e-05
-1.44059e-10
3.30734e-05
9.52637e-12
3.30734e-05
1.4651e-10
3.30733e-05
2.50433e-10
3.30732e-05
3.19131e-10
3.30731e-05
3.56464e-10
3.3073e-05
3.68499e-10
3.3073e-05
3.61574e-10
3.30729e-05
3.41014e-10
3.30728e-05
3.11144e-10
3.30727e-05
2.75708e-10
3.30727e-05
2.37861e-10
3.30726e-05
1.99597e-10
3.30726e-05
1.61628e-10
3.30726e-05
1.24518e-10
3.30726e-05
8.90214e-11
3.30725e-05
5.53424e-11
3.30725e-05
2.33873e-11
3.30725e-05
-6.68847e-12
3.30725e-05
-3.44305e-11
3.30726e-05
-5.93005e-11
3.30726e-05
-8.1298e-11
3.30726e-05
-1.01008e-10
3.30726e-05
-1.19014e-10
3.30727e-05
-1.35621e-10
3.30727e-05
-1.50649e-10
3.30727e-05
-1.63683e-10
3.30728e-05
-1.74836e-10
3.30728e-05
-1.84721e-10
3.30729e-05
-1.93605e-10
3.30729e-05
-2.01169e-10
3.3073e-05
-2.0695e-10
3.3073e-05
-2.11226e-10
3.30731e-05
-2.14487e-10
3.30731e-05
-2.17058e-10
3.30732e-05
-2.17271e-10
3.30732e-05
-2.15288e-10
3.30733e-05
-2.0769e-10
3.30733e-05
-1.96943e-10
3.30734e-05
-1.75817e-10
3.30734e-05
-1.47607e-10
3.30735e-05
-1.10758e-10
3.30735e-05
-6.50676e-11
3.30735e-05
-3.67107e-11
3.30735e-05
-2.10526e-11
3.30735e-05
-1.70561e-11
3.30735e-05
-2.44648e-11
3.30735e-05
-3.26162e-11
3.30735e-05
-4.0625e-11
3.30736e-05
-4.75346e-11
3.30736e-05
-5.23806e-11
3.30736e-05
-5.45373e-11
3.30736e-05
-5.32101e-11
3.30736e-05
-4.78869e-11
3.30736e-05
-3.90572e-11
3.30736e-05
-2.73962e-11
3.30736e-05
-1.29839e-11
3.30736e-05
4.04559e-12
3.30736e-05
2.26144e-11
3.30736e-05
4.12258e-11
3.30736e-05
5.90737e-11
3.30736e-05
7.57101e-11
3.30735e-05
9.04515e-11
3.30735e-05
1.02772e-10
3.30735e-05
1.12488e-10
3.30734e-05
1.1991e-10
3.30734e-05
1.25837e-10
3.30734e-05
1.304e-10
3.30733e-05
1.3284e-10
3.30733e-05
1.32904e-10
3.30733e-05
1.31095e-10
3.30732e-05
1.28097e-10
3.30732e-05
1.24649e-10
3.30732e-05
1.20889e-10
3.30732e-05
1.16228e-10
3.30731e-05
1.10475e-10
3.30731e-05
1.03992e-10
3.30731e-05
9.70951e-11
3.30731e-05
9.01286e-11
3.3073e-05
8.34983e-11
3.3073e-05
7.72986e-11
3.3073e-05
7.02297e-11
3.3073e-05
6.15954e-11
3.3073e-05
5.02285e-11
3.3073e-05
3.92145e-11
3.30729e-05
3.08742e-11
3.30729e-05
2.50686e-11
3.30729e-05
2.21689e-11
3.30729e-05
1.95119e-11
3.30729e-05
1.63895e-11
3.30729e-05
1.25981e-11
3.30729e-05
7.30682e-12
3.30729e-05
3.24519e-13
3.30729e-05
-8.39758e-12
3.30729e-05
-1.77143e-11
3.30729e-05
-2.77638e-11
3.30729e-05
-3.46563e-11
3.30729e-05
-4.06908e-11
3.3073e-05
-3.86205e-11
3.3073e-05
-3.17366e-11
3.3073e-05
-1.68302e-11
3.3073e-05
4.58382e-12
3.3073e-05
1.31669e-11
3.3073e-05
1.16885e-11
3.3073e-05
1.78299e-13
3.3073e-05
-1.80461e-11
3.3073e-05
-3.90231e-11
3.3073e-05
-5.97233e-11
3.3073e-05
-7.76928e-11
3.30731e-05
-9.25476e-11
3.30731e-05
-1.02894e-10
3.30731e-05
-1.09659e-10
3.30731e-05
-1.09964e-10
3.30732e-05
-9.75222e-11
3.30732e-05
-9.99159e-11
3.30732e-05
-3.97584e-11
-4.26998e-11
3.80175e-05
-2.90015e-10
3.80176e-05
-3.77208e-10
3.80176e-05
-3.02011e-10
3.80176e-05
-1.40804e-10
3.80176e-05
3.88741e-11
3.80175e-05
1.96569e-10
3.80175e-05
3.15982e-10
3.80174e-05
3.9507e-10
3.80173e-05
4.38048e-10
3.80172e-05
4.51636e-10
3.80171e-05
4.42903e-10
3.80171e-05
4.17895e-10
3.8017e-05
3.81666e-10
3.80169e-05
3.38653e-10
3.80169e-05
2.92607e-10
3.80168e-05
2.45916e-10
3.80168e-05
1.99453e-10
3.80168e-05
1.53902e-10
3.80167e-05
1.10164e-10
3.80167e-05
6.85709e-11
3.80167e-05
2.90885e-11
3.80167e-05
-8.08715e-12
3.80167e-05
-4.24152e-11
3.80168e-05
-7.32965e-11
3.80168e-05
-1.00797e-10
3.80168e-05
-1.25572e-10
3.80168e-05
-1.48208e-10
3.80169e-05
-1.69052e-10
3.80169e-05
-1.87934e-10
3.80169e-05
-2.04368e-10
3.8017e-05
-2.1849e-10
3.8017e-05
-2.31036e-10
3.80171e-05
-2.42292e-10
3.80171e-05
-2.51873e-10
3.80172e-05
-2.59308e-10
3.80172e-05
-2.64966e-10
3.80173e-05
-2.69376e-10
3.80173e-05
-2.72838e-10
3.80174e-05
-2.73459e-10
3.80175e-05
-2.7142e-10
3.80175e-05
-2.6277e-10
3.80176e-05
-2.50126e-10
3.80176e-05
-2.2519e-10
3.80177e-05
-1.91638e-10
3.80177e-05
-1.47507e-10
3.80177e-05
-9.24897e-11
3.80177e-05
-5.66292e-11
3.80178e-05
-3.55074e-11
3.80178e-05
-2.84959e-11
3.80178e-05
-3.53177e-11
3.80178e-05
-4.36953e-11
3.80178e-05
-5.22598e-11
3.80178e-05
-5.96765e-11
3.80178e-05
-6.47184e-11
3.80178e-05
-6.65042e-11
3.80178e-05
-6.40164e-11
3.80179e-05
-5.66785e-11
3.80179e-05
-4.51143e-11
3.80179e-05
-3.01419e-11
3.80179e-05
-1.18975e-11
3.80179e-05
9.38153e-12
3.80178e-05
3.23614e-11
3.80178e-05
5.52783e-11
3.80178e-05
7.71903e-11
3.80178e-05
9.7543e-11
3.80178e-05
1.15543e-10
3.80177e-05
1.3062e-10
3.80177e-05
1.42573e-10
3.80177e-05
1.51742e-10
3.80176e-05
1.59013e-10
3.80176e-05
1.64508e-10
3.80176e-05
1.67407e-10
3.80175e-05
1.6749e-10
3.80175e-05
1.65325e-10
3.80175e-05
1.61693e-10
3.80174e-05
1.57466e-10
3.80174e-05
1.52791e-10
3.80174e-05
1.46987e-10
3.80173e-05
1.39886e-10
3.80173e-05
1.31953e-10
3.80173e-05
1.2354e-10
3.80173e-05
1.15001e-10
3.80172e-05
1.06782e-10
3.80172e-05
9.89824e-11
3.80172e-05
9.00922e-11
3.80172e-05
7.93021e-11
3.80172e-05
6.53558e-11
3.80172e-05
5.18508e-11
3.80171e-05
4.14842e-11
3.80171e-05
3.41444e-11
3.80171e-05
3.02466e-11
3.80171e-05
2.66967e-11
3.80171e-05
2.25633e-11
3.80171e-05
1.74897e-11
3.80171e-05
1.047e-11
3.80171e-05
1.28825e-12
3.80171e-05
-1.00731e-11
3.80171e-05
-2.22933e-11
3.80171e-05
-3.546e-11
3.80171e-05
-4.50481e-11
3.80171e-05
-5.34773e-11
3.80172e-05
-5.23454e-11
3.80172e-05
-4.51879e-11
3.80172e-05
-2.81946e-11
3.80172e-05
-3.10971e-12
3.80172e-05
7.88232e-12
3.80172e-05
7.37931e-12
3.80172e-05
-5.0002e-12
3.80172e-05
-2.56266e-11
3.80172e-05
-4.99293e-11
3.80172e-05
-7.42235e-11
3.80173e-05
-9.5555e-11
3.80173e-05
-1.13426e-10
3.80173e-05
-1.26202e-10
3.80173e-05
-1.3479e-10
3.80174e-05
-1.35543e-10
3.80174e-05
-1.21663e-10
3.80174e-05
-1.24198e-10
3.80174e-05
-4.90016e-11
-7.87531e-11
4.26013e-05
-3.53477e-10
4.26013e-05
-4.21199e-10
4.26013e-05
-3.16442e-10
4.26013e-05
-1.28648e-10
4.26013e-05
7.21898e-11
4.26012e-05
2.46213e-10
4.26012e-05
3.77803e-10
4.26011e-05
4.65207e-10
4.2601e-05
5.12879e-10
4.26009e-05
5.27911e-10
4.26009e-05
5.17779e-10
4.26008e-05
4.89027e-10
4.26007e-05
4.47318e-10
4.26007e-05
3.97681e-10
4.26006e-05
3.44363e-10
4.26006e-05
2.90059e-10
4.26005e-05
2.358e-10
4.26005e-05
1.82398e-10
4.26005e-05
1.30896e-10
4.26005e-05
8.17647e-11
4.26005e-05
3.50608e-11
4.26005e-05
-8.9605e-12
4.26005e-05
-4.96709e-11
4.26005e-05
-8.64506e-11
4.26005e-05
-1.19455e-10
4.26005e-05
-1.4936e-10
4.26006e-05
-1.76707e-10
4.26006e-05
-2.01867e-10
4.26006e-05
-2.24678e-10
4.26007e-05
-2.44609e-10
4.26007e-05
-2.61845e-10
4.26008e-05
-2.77229e-10
4.26008e-05
-2.91013e-10
4.26009e-05
-3.02743e-10
4.26009e-05
-3.12003e-10
4.2601e-05
-3.19267e-10
4.2601e-05
-3.25042e-10
4.26011e-05
-3.29574e-10
4.26011e-05
-3.30789e-10
4.26012e-05
-3.28911e-10
4.26013e-05
-3.19467e-10
4.26013e-05
-3.05178e-10
4.26014e-05
-2.76756e-10
4.26014e-05
-2.38242e-10
4.26014e-05
-1.87188e-10
4.26015e-05
-1.23081e-10
4.26015e-05
-7.96198e-11
4.26015e-05
-5.27115e-11
4.26015e-05
-4.21972e-11
4.26015e-05
-4.7832e-11
4.26016e-05
-5.58482e-11
4.26016e-05
-6.44309e-11
4.26016e-05
-7.18811e-11
4.26016e-05
-7.66883e-11
4.26016e-05
-7.76867e-11
4.26016e-05
-7.36487e-11
4.26016e-05
-6.39851e-11
4.26016e-05
-4.94825e-11
4.26016e-05
-3.1094e-11
4.26016e-05
-9.0128e-12
4.26016e-05
1.64042e-11
4.26016e-05
4.35862e-11
4.26016e-05
7.05582e-11
4.26016e-05
9.6276e-11
4.26015e-05
1.20088e-10
4.26015e-05
1.4112e-10
4.26015e-05
1.58798e-10
4.26015e-05
1.72896e-10
4.26014e-05
1.8375e-10
4.26014e-05
1.923e-10
4.26014e-05
1.98657e-10
4.26013e-05
2.0198e-10
4.26013e-05
2.02108e-10
4.26013e-05
1.99664e-10
4.26012e-05
1.95497e-10
4.26012e-05
1.9058e-10
4.26012e-05
1.85042e-10
4.26011e-05
1.78126e-10
4.26011e-05
1.69743e-10
4.26011e-05
1.60465e-10
4.2601e-05
1.50646e-10
4.2601e-05
1.40616e-10
4.2601e-05
1.30845e-10
4.2601e-05
1.2143e-10
4.26009e-05
1.10683e-10
4.26009e-05
9.77369e-11
4.26009e-05
8.12882e-11
4.26009e-05
6.53927e-11
4.26009e-05
5.30479e-11
4.26009e-05
4.41491e-11
4.26009e-05
3.9161e-11
4.26009e-05
3.45865e-11
4.26009e-05
2.92679e-11
4.26009e-05
2.26872e-11
4.26008e-05
1.36842e-11
4.26008e-05
2.04715e-12
4.26008e-05
-1.22001e-11
4.26009e-05
-2.75805e-11
4.26009e-05
-4.41204e-11
4.26009e-05
-5.66685e-11
4.26009e-05
-6.7734e-11
4.26009e-05
-6.78124e-11
4.26009e-05
-6.06311e-11
4.26009e-05
-4.17636e-11
4.26009e-05
-1.3126e-11
4.2601e-05
4.33161e-13
4.2601e-05
1.29598e-12
4.2601e-05
-1.14e-11
4.2601e-05
-3.38189e-11
4.2601e-05
-6.08527e-11
4.2601e-05
-8.82301e-11
4.2601e-05
-1.12566e-10
4.2601e-05
-1.3327e-10
4.26011e-05
-1.48448e-10
4.26011e-05
-1.58929e-10
4.26011e-05
-1.60217e-10
4.26011e-05
-1.45425e-10
4.26012e-05
-1.47397e-10
4.26012e-05
-6.03201e-11
-1.12501e-10
4.68663e-05
-3.94011e-10
4.68663e-05
-4.44667e-10
4.68663e-05
-3.17519e-10
4.68663e-05
-1.09503e-10
4.68663e-05
1.0746e-10
4.68662e-05
2.93754e-10
4.68662e-05
4.34404e-10
4.68661e-05
5.28036e-10
4.6866e-05
5.79321e-10
4.6866e-05
5.95525e-10
4.68659e-05
5.84271e-10
4.68658e-05
5.52433e-10
4.68658e-05
5.06169e-10
4.68657e-05
4.50979e-10
4.68657e-05
3.91463e-10
4.68656e-05
3.3053e-10
4.68656e-05
2.6936e-10
4.68656e-05
2.08908e-10
4.68656e-05
1.50334e-10
4.68655e-05
9.42473e-11
4.68655e-05
4.08288e-11
4.68655e-05
-9.5837e-12
4.68655e-05
-5.62891e-11
4.68656e-05
-9.87018e-11
4.68656e-05
-1.37075e-10
4.68656e-05
-1.72041e-10
4.68656e-05
-2.04054e-10
4.68657e-05
-2.33493e-10
4.68657e-05
-2.60198e-10
4.68657e-05
-2.83639e-10
4.68658e-05
-3.04087e-10
4.68658e-05
-3.22431e-10
4.68659e-05
-3.38827e-10
4.68659e-05
-3.52787e-10
4.6866e-05
-3.64023e-10
4.6866e-05
-3.73109e-10
4.68661e-05
-3.80454e-10
4.68661e-05
-3.86219e-10
4.68662e-05
-3.88205e-10
4.68662e-05
-3.86703e-10
4.68663e-05
-3.76725e-10
4.68664e-05
-3.61069e-10
4.68664e-05
-3.29517e-10
4.68665e-05
-2.86446e-10
4.68665e-05
-2.28854e-10
4.68665e-05
-1.5596e-10
4.68666e-05
-1.04972e-10
4.68666e-05
-7.21622e-11
4.68666e-05
-5.78396e-11
4.68666e-05
-6.18176e-11
4.68666e-05
-6.89397e-11
4.68666e-05
-7.69941e-11
4.68667e-05
-8.3945e-11
4.68667e-05
-8.79907e-11
4.68667e-05
-8.7681e-11
4.68667e-05
-8.16186e-11
4.68667e-05
-6.92739e-11
4.68667e-05
-5.16268e-11
4.68667e-05
-2.97541e-11
4.68667e-05
-3.90852e-12
4.68667e-05
2.54295e-11
4.68667e-05
5.64895e-11
4.68666e-05
8.71481e-11
4.68666e-05
1.1629e-10
4.68666e-05
1.43181e-10
4.68666e-05
1.66912e-10
4.68665e-05
1.8694e-10
4.68665e-05
2.03005e-10
4.68665e-05
2.15402e-10
4.68665e-05
2.25088e-10
4.68664e-05
2.32172e-10
4.68664e-05
2.3584e-10
4.68663e-05
2.36017e-10
4.68663e-05
2.33364e-10
4.68663e-05
2.28768e-10
4.68662e-05
2.23265e-10
4.68662e-05
2.16923e-10
4.68662e-05
2.08943e-10
4.68662e-05
1.99365e-10
4.68661e-05
1.88872e-10
4.68661e-05
1.77787e-10
4.68661e-05
1.66385e-10
4.68661e-05
1.55136e-10
4.6866e-05
1.44127e-10
4.6866e-05
1.31527e-10
4.6866e-05
1.16479e-10
4.6866e-05
9.76703e-11
4.6866e-05
7.95437e-11
4.68659e-05
6.53156e-11
4.68659e-05
5.4863e-11
4.68659e-05
4.87061e-11
4.68659e-05
4.29729e-11
4.68659e-05
3.62812e-11
4.68659e-05
2.79515e-11
4.68659e-05
1.66969e-11
4.68659e-05
2.34276e-12
4.68659e-05
-1.50355e-11
4.68659e-05
-3.38191e-11
4.68659e-05
-5.39545e-11
4.68659e-05
-6.9673e-11
4.68659e-05
-8.35566e-11
4.6866e-05
-8.50415e-11
4.6866e-05
-7.80094e-11
4.6866e-05
-5.74019e-11
4.6866e-05
-2.52699e-11
4.6866e-05
-9.00311e-12
4.6866e-05
-6.45341e-12
4.6866e-05
-1.8976e-11
4.6866e-05
-4.25865e-11
4.68661e-05
-7.17109e-11
4.68661e-05
-1.01594e-10
4.68661e-05
-1.28511e-10
4.68661e-05
-1.51791e-10
4.68661e-05
-1.69248e-10
4.68661e-05
-1.816e-10
4.68662e-05
-1.83438e-10
4.68662e-05
-1.68237e-10
4.68662e-05
-1.68777e-10
4.68662e-05
-7.37398e-11
-1.39072e-10
5.08755e-05
-4.10401e-10
5.08755e-05
-4.46978e-10
5.08755e-05
-3.05099e-10
5.08755e-05
-8.37703e-11
5.08754e-05
1.44146e-10
5.08754e-05
3.38855e-10
5.08753e-05
4.85669e-10
5.08753e-05
5.83507e-10
5.08752e-05
6.37227e-10
5.08752e-05
6.54127e-10
5.08751e-05
6.41804e-10
5.0875e-05
6.07355e-10
5.0875e-05