/*--------------------------------*- C++ -*----------------------------------*\
  =========                 |
  \\      /  F ield         | OpenFOAM: The Open Source CFD Toolbox
   \\    /   O peration     | Website:  https://openfoam.org
    \\  /    A nd           | Version:  7
     \\/     M anipulation  |
\*---------------------------------------------------------------------------*/
FoamFile
{
    version     2.0;
    format      ascii;
    class       volVectorField;
    location    "20000";
    object      U;
}
// * * * * * * * * * * * * * * * * * * * * * * * * * * * * * * * * * * * * * //

dimensions      [0 1 -1 0 0 0 0];

internalField   nonuniform List<vector> 
24000
(
(0.0043451 9.29815e-11 8.82591e-16)
(0.00434511 -4.38655e-11 8.71131e-16)
(0.00434512 -1.23929e-10 8.70404e-16)
(0.00434514 -1.13659e-10 7.98591e-16)
(0.00434515 -6.64724e-11 5.22709e-16)
(0.00434515 -1.42919e-11 7.85765e-16)
(0.00434515 2.84454e-11 4.944e-16)
(0.00434514 5.86245e-11 7.98311e-16)
(0.00434513 7.69216e-11 8.41242e-16)
(0.00434511 8.55517e-11 5.26151e-16)
(0.0043451 8.73429e-11 8.15242e-16)
(0.00434508 8.43007e-11 8.25546e-16)
(0.00434507 7.79469e-11 8.28168e-16)
(0.00434505 6.98019e-11 8.10298e-16)
(0.00434504 6.10291e-11 7.61507e-16)
(0.00434503 5.20887e-11 8.12142e-16)
(0.00434503 4.27396e-11 8.05679e-16)
(0.00434502 3.34483e-11 8.06302e-16)
(0.00434501 2.48824e-11 7.81795e-16)
(0.00434501 1.66285e-11 7.50681e-16)
(0.00434501 8.3389e-12 8.04956e-16)
(0.00434501 3.85754e-13 7.69174e-16)
(0.00434501 -6.95037e-12 7.86703e-16)
(0.00434501 -1.33555e-11 7.60138e-16)
(0.00434501 -1.87215e-11 7.12899e-16)
(0.00434502 -2.34845e-11 8.08094e-16)
(0.00434502 -2.80792e-11 7.87897e-16)
(0.00434503 -3.26458e-11 7.98495e-16)
(0.00434503 -3.6696e-11 7.74049e-16)
(0.00434504 -3.99198e-11 7.06535e-16)
(0.00434505 -4.26474e-11 7.89616e-16)
(0.00434505 -4.5496e-11 7.62306e-16)
(0.00434506 -4.82087e-11 7.81143e-16)
(0.00434507 -5.06687e-11 7.63059e-16)
(0.00434508 -5.18984e-11 7.11592e-16)
(0.00434509 -5.31111e-11 7.94771e-16)
(0.0043451 -5.32042e-11 7.80649e-16)
(0.0043451 -5.49265e-11 7.90678e-16)
(0.00434511 -5.28039e-11 7.45583e-16)
(0.00434512 -5.31934e-11 7.02642e-16)
(0.00434513 -4.55018e-11 7.38976e-16)
(0.00434514 -4.26568e-11 9.21423e-16)
(0.00434515 -2.87671e-11 7.98121e-16)
(0.00434515 -1.40768e-11 7.94307e-16)
(0.00434515 4.6042e-13 8.04022e-16)
(0.00434516 2.90219e-11 8.12494e-16)
(0.00434515 2.49312e-11 9.56073e-16)
(0.00434515 2.35821e-11 8.31434e-16)
(0.00434515 1.82124e-11 8.22811e-16)
(0.00434515 4.52308e-12 8.29594e-16)
(0.00434515 1.18954e-13 8.37042e-16)
(0.00434515 -6.10516e-12 1.07023e-15)
(0.00434515 -1.10794e-11 8.46403e-16)
(0.00434515 -1.48484e-11 1.08828e-15)
(0.00434516 -1.7695e-11 7.85016e-16)
(0.00434516 -1.93401e-11 8.64197e-16)
(0.00434516 -1.95081e-11 1.07319e-15)
(0.00434517 -1.87749e-11 8.58837e-16)
(0.00434517 -1.73865e-11 1.09003e-15)
(0.00434517 -1.48658e-11 8.19141e-16)
(0.00434517 -1.09944e-11 8.76889e-16)
(0.00434517 -6.33953e-12 1.11515e-15)
(0.00434517 -1.67875e-12 8.74697e-16)
(0.00434517 3.03927e-12 1.09053e-15)
(0.00434517 7.8362e-12 8.19393e-16)
(0.00434517 1.2184e-11 8.81177e-16)
(0.00434516 1.57796e-11 1.09319e-15)
(0.00434516 1.85258e-11 8.83731e-16)
(0.00434516 2.05807e-11 1.05301e-15)
(0.00434515 2.26774e-11 8.29361e-16)
(0.00434515 2.48206e-11 8.88774e-16)
(0.00434514 2.59501e-11 1.11368e-15)
(0.00434514 2.59684e-11 8.88482e-16)
(0.00434513 2.55535e-11 1.10197e-15)
(0.00434513 2.49321e-11 8.3728e-16)
(0.00434512 2.44321e-11 8.94059e-16)
(0.00434512 2.39615e-11 1.12704e-15)
(0.00434511 2.28863e-11 8.99335e-16)
(0.00434511 2.12536e-11 1.08186e-15)
(0.0043451 1.94778e-11 8.66504e-16)
(0.0043451 1.7356e-11 6.466e-16)
(0.0043451 1.53942e-11 8.0798e-16)
(0.00434509 1.3512e-11 8.94229e-16)
(0.00434509 1.25419e-11 6.30304e-16)
(0.00434509 1.01818e-11 7.75828e-16)
(0.00434509 8.02339e-12 6.37061e-16)
(0.00434509 3.15883e-12 7.40181e-16)
(0.00434508 -1.75976e-13 8.66662e-16)
(0.00434508 -1.19902e-12 6.86019e-16)
(0.00434508 -2.5905e-12 7.52925e-16)
(0.00434508 -1.53052e-12 5.81967e-16)
(0.00434508 -2.37947e-12 7.26359e-16)
(0.00434508 -3.3624e-12 8.61669e-16)
(0.00434508 -3.78897e-12 5.91628e-16)
(0.00434508 -5.26163e-12 7.63556e-16)
(0.00434508 -5.9458e-12 6.17534e-16)
(0.00434508 -8.34866e-12 8.01846e-16)
(0.00434509 -7.87691e-12 8.73671e-16)
(0.00434509 -1.09002e-11 6.11966e-16)
(0.00434509 -6.04558e-12 7.73617e-16)
(0.00434509 -7.27278e-12 6.04542e-16)
(0.00434509 2.62814e-12 7.86061e-16)
(0.00434509 1.01247e-11 8.75964e-16)
(0.00434509 2.03334e-11 7.03689e-16)
(0.00434509 3.90106e-11 8.2435e-16)
(0.00434508 3.32425e-11 6.48182e-16)
(0.00434508 2.94905e-11 7.90545e-16)
(0.00434508 1.86122e-11 8.70454e-16)
(0.00434508 6.69285e-12 6.94302e-16)
(0.00434508 -4.2044e-12 7.67096e-16)
(0.00434508 -1.42798e-11 6.98782e-16)
(0.00434508 -2.15219e-11 5.8582e-16)
(0.00434509 -2.80307e-11 8.59992e-16)
(0.00434509 -3.09007e-11 6.8965e-16)
(0.0043451 -3.24429e-11 7.81883e-16)
(0.0043451 -3.21347e-11 5.93087e-16)
(0.00434511 -2.0407e-11 6.62901e-16)
(0.00434511 -2.04599e-11 8.57476e-16)
(0.00434511 -2.37467e-11 6.3216e-16)
(0.00434511 7.01839e-11 7.86636e-16)
(0.0131154 3.38593e-10 2.67046e-15)
(0.0131154 -9.95194e-10 2.63445e-15)
(0.0131155 -1.7218e-09 2.6327e-15)
(0.0131155 -1.43071e-09 2.40229e-15)
(0.0131155 -6.7054e-10 1.8055e-15)
(0.0131155 1.2093e-10 2.38742e-15)
(0.0131155 7.56117e-10 1.98179e-15)
(0.0131155 1.19455e-09 2.42198e-15)
(0.0131154 1.45225e-09 2.5424e-15)
(0.0131154 1.56398e-09 2.05618e-15)
(0.0131154 1.56925e-09 2.47263e-15)
(0.0131153 1.49968e-09 2.49511e-15)
(0.0131153 1.37938e-09 2.5041e-15)
(0.0131152 1.22975e-09 2.44929e-15)
(0.0131152 1.06834e-09 2.30383e-15)
(0.0131152 9.04005e-10 2.45438e-15)
(0.0131151 7.38109e-10 2.43554e-15)
(0.0131151 5.75067e-10 2.43841e-15)
(0.0131151 4.21033e-10 2.36382e-15)
(0.0131151 2.74355e-10 2.271e-15)
(0.0131151 1.3223e-10 2.43447e-15)
(0.0131151 -3.23865e-12 2.31797e-15)
(0.0131151 -1.28349e-10 2.38105e-15)
(0.0131151 -2.39125e-10 2.28845e-15)
(0.0131151 -3.34646e-10 2.14322e-15)
(0.0131151 -4.19095e-10 2.44111e-15)
(0.0131151 -4.97817e-10 2.38083e-15)
(0.0131152 -5.72751e-10 2.41473e-15)
(0.0131152 -6.40372e-10 2.34202e-15)
(0.0131152 -6.97111e-10 2.13937e-15)
(0.0131152 -7.45379e-10 2.39208e-15)
(0.0131152 -7.90556e-10 2.30288e-15)
(0.0131153 -8.33018e-10 2.35947e-15)
(0.0131153 -8.69592e-10 2.29891e-15)
(0.0131153 -8.94712e-10 2.14743e-15)
(0.0131153 -9.12073e-10 2.40054e-15)
(0.0131154 -9.23413e-10 2.35417e-15)
(0.0131154 -9.36383e-10 2.39163e-15)
(0.0131154 -9.28743e-10 2.24684e-15)
(0.0131154 -9.15248e-10 2.12641e-15)
(0.0131155 -8.51236e-10 2.23681e-15)
(0.0131155 -7.87156e-10 2.39762e-15)
(0.0131155 -6.37494e-10 2.40801e-15)
(0.0131155 -4.55412e-10 2.40253e-15)
(0.0131155 -2.31222e-10 2.43124e-15)
(0.0131155 6.68882e-11 2.45813e-15)
(0.0131155 1.50087e-10 2.52312e-15)
(0.0131155 1.65226e-10 2.50747e-15)
(0.0131155 1.2425e-10 2.48881e-15)
(0.0131155 9.18301e-12 2.5083e-15)
(0.0131155 -6.56148e-11 2.53113e-15)
(0.0131155 -1.34285e-10 2.60985e-15)
(0.0131155 -1.94842e-10 2.55436e-15)
(0.0131155 -2.40293e-10 2.65159e-15)
(0.0131156 -2.71462e-10 2.34633e-15)
(0.0131156 -2.84892e-10 2.61672e-15)
(0.0131156 -2.77551e-10 2.65518e-15)
(0.0131156 -2.53735e-10 2.59241e-15)
(0.0131156 -2.17082e-10 2.67683e-15)
(0.0131156 -1.64989e-10 2.37428e-15)
(0.0131156 -9.57923e-11 2.65649e-15)
(0.0131156 -1.56866e-11 2.7226e-15)
(0.0131156 6.61421e-11 2.6386e-15)
(0.0131156 1.46851e-10 2.70446e-15)
(0.0131156 2.25243e-10 2.55063e-15)
(0.0131156 2.96245e-10 2.66916e-15)
(0.0131156 3.55548e-10 2.7157e-15)
(0.0131156 4.01657e-10 2.6665e-15)
(0.0131155 4.36749e-10 2.77021e-15)
(0.0131155 4.67908e-10 2.52854e-15)
(0.0131155 4.95833e-10 2.69094e-15)
(0.0131155 5.12018e-10 2.75132e-15)
(0.0131155 5.13882e-10 2.68113e-15)
(0.0131155 5.06533e-10 2.82628e-15)
(0.0131155 4.94597e-10 2.5826e-15)
(0.0131154 4.82269e-10 2.70963e-15)
(0.0131154 4.69333e-10 2.77917e-15)
(0.0131154 4.50431e-10 2.71194e-15)
(0.0131154 4.24552e-10 2.82176e-15)
(0.0131154 3.94665e-10 2.44318e-15)
(0.0131154 3.61664e-10 2.55245e-15)
(0.0131154 3.28705e-10 2.35869e-15)
(0.0131154 2.98822e-10 2.70274e-15)
(0.0131153 2.74329e-10 2.486e-15)
(0.0131153 2.42112e-10 2.44392e-15)
(0.0131153 2.02679e-10 2.4052e-15)
(0.0131153 1.41127e-10 2.24577e-15)
(0.0131153 8.72336e-11 2.62021e-15)
(0.0131153 5.50223e-11 2.44851e-15)
(0.0131153 3.30027e-11 2.38597e-15)
(0.0131153 3.05072e-11 2.37697e-15)
(0.0131153 2.08262e-11 2.36461e-15)
(0.0131153 7.19943e-12 2.60256e-15)
(0.0131153 -5.90303e-12 2.41851e-15)
(0.0131153 -2.58931e-11 2.22345e-15)
(0.0131153 -4.95259e-11 2.43953e-15)
(0.0131153 -8.16749e-11 2.31778e-15)
(0.0131153 -1.06747e-10 2.6427e-15)
(0.0131153 -1.40073e-10 2.43809e-15)
(0.0131153 -1.32893e-10 2.40758e-15)
(0.0131153 -1.37176e-10 2.41641e-15)
(0.0131153 -6.7205e-11 2.43253e-15)
(0.0131153 1.51303e-11 2.65104e-15)
(0.0131153 1.42828e-10 2.47024e-15)
(0.0131153 3.17542e-10 2.33017e-15)
(0.0131153 3.30102e-10 2.40763e-15)
(0.0131153 2.83986e-10 2.42325e-15)
(0.0131153 1.73923e-10 2.63397e-15)
(0.0131153 3.16037e-11 2.45467e-15)
(0.0131153 -1.11543e-10 2.41943e-15)
(0.0131153 -2.44153e-10 2.4599e-15)
(0.0131153 -3.51579e-10 2.38516e-15)
(0.0131153 -4.39139e-10 2.60728e-15)
(0.0131153 -4.90692e-10 2.45962e-15)
(0.0131154 -5.21206e-10 2.30199e-15)
(0.0131154 -5.14048e-10 2.41607e-15)
(0.0131154 -4.01053e-10 2.37373e-15)
(0.0131154 -4.20317e-10 2.59737e-15)
(0.0131154 -2.44736e-10 2.46908e-15)
(0.0131154 5.1226e-10 2.44248e-15)
(0.0220625 1.54608e-10 4.52401e-15)
(0.0220625 -3.23994e-09 4.43141e-15)
(0.0220626 -4.83234e-09 4.43479e-15)
(0.0220627 -3.80258e-09 3.99428e-15)
(0.0220627 -1.5784e-09 3.79584e-15)
(0.0220627 6.7493e-10 4.07057e-15)
(0.0220627 2.46236e-09 3.80179e-15)
(0.0220626 3.68402e-09 4.14674e-15)
(0.0220626 4.39166e-09 4.26902e-15)
(0.0220625 4.68584e-09 3.91071e-15)
(0.0220624 4.67713e-09 4.22812e-15)
(0.0220623 4.45542e-09 4.19362e-15)
(0.0220623 4.08974e-09 4.21826e-15)
(0.0220622 3.6401e-09 4.11726e-15)
(0.0220621 3.15566e-09 3.8756e-15)
(0.0220621 2.66363e-09 4.13934e-15)
(0.0220621 2.1703e-09 4.09674e-15)
(0.022062 1.68681e-09 4.10836e-15)
(0.022062 1.2285e-09 3.97519e-15)
(0.022062 7.93158e-10 3.83105e-15)
(0.022062 3.7421e-10 4.11277e-15)
(0.022062 -2.38203e-11 3.86598e-15)
(0.022062 -3.91459e-10 4.01949e-15)
(0.022062 -7.17975e-10 3.8258e-15)
(0.022062 -1.00094e-09 3.56019e-15)
(0.022062 -1.25127e-09 4.11977e-15)
(0.022062 -1.48283e-09 4.00503e-15)
(0.0220621 -1.70131e-09 4.0711e-15)
(0.0220621 -1.89879e-09 3.94134e-15)
(0.0220621 -2.06621e-09 3.61144e-15)
(0.0220622 -2.20874e-09 4.05284e-15)
(0.0220622 -2.33942e-09 3.87816e-15)
(0.0220622 -2.46095e-09 3.97478e-15)
(0.0220623 -2.56531e-09 3.83637e-15)
(0.0220623 -2.63965e-09 3.6048e-15)
(0.0220624 -2.69068e-09 4.04839e-15)
(0.0220624 -2.72622e-09 3.94724e-15)
(0.0220625 -2.76025e-09 4.03107e-15)
(0.0220625 -2.7469e-09 3.75332e-15)
(0.0220625 -2.70723e-09 3.59045e-15)
(0.0220626 -2.54817e-09 3.78734e-15)
(0.0220626 -2.36719e-09 3.895e-15)
(0.0220627 -1.97687e-09 4.0534e-15)
(0.0220627 -1.48688e-09 4.04795e-15)
(0.0220627 -8.6981e-10 4.09848e-15)
(0.0220627 -8.15718e-11 4.1458e-15)
(0.0220627 2.20344e-10 4.10823e-15)
(0.0220627 3.06848e-10 4.21538e-15)
(0.0220627 2.27964e-10 4.19337e-15)
(0.0220627 -4.23292e-11 4.22761e-15)
(0.0220627 -2.43222e-10 4.26522e-15)
(0.0220627 -4.22968e-10 4.22896e-15)
(0.0220627 -5.808e-10 4.29996e-15)
(0.0220627 -6.99362e-10 4.28206e-15)
(0.0220628 -7.7715e-10 4.64914e-15)
(0.0220628 -8.04783e-10 4.44031e-15)
(0.0220628 -7.73824e-10 4.31989e-15)
(0.0220628 -6.94303e-10 4.36262e-15)
(0.0220628 -5.76419e-10 4.34731e-15)
(0.0220628 -4.15548e-10 4.72917e-15)
(0.0220628 -2.08495e-10 4.50091e-15)
(0.0220628 2.85891e-11 4.39413e-15)
(0.0220628 2.70868e-10 4.43788e-15)
(0.0220628 5.08281e-10 4.40304e-15)
(0.0220628 7.36455e-10 4.90566e-15)
(0.0220628 9.42443e-10 4.52193e-15)
(0.0220628 1.11482e-09 4.42425e-15)
(0.0220627 1.24927e-09 4.48555e-15)
(0.0220627 1.35157e-09 4.50154e-15)
(0.0220627 1.43956e-09 4.60822e-15)
(0.0220627 1.5159e-09 4.55328e-15)
(0.0220626 1.56033e-09 4.46805e-15)
(0.0220626 1.56552e-09 4.51162e-15)
(0.0220626 1.54353e-09 4.52239e-15)
(0.0220626 1.50715e-09 4.66904e-15)
(0.0220625 1.46802e-09 4.59162e-15)
(0.0220625 1.42662e-09 4.5046e-15)
(0.0220625 1.36999e-09 4.55918e-15)
(0.0220625 1.29468e-09 4.55892e-15)
(0.0220625 1.2074e-09 4.89609e-15)
(0.0220624 1.112e-09 4.46044e-15)
(0.0220624 1.01611e-09 4.60031e-15)
(0.0220624 9.28529e-10 4.57336e-15)
(0.0220624 8.53477e-10 4.31171e-15)
(0.0220624 7.61179e-10 4.45431e-15)
(0.0220624 6.46608e-10 4.28484e-15)
(0.0220624 4.76792e-10 4.55577e-15)
(0.0220623 3.21248e-10 4.44797e-15)
(0.0220623 2.19752e-10 4.24559e-15)
(0.0220623 1.52317e-10 4.5392e-15)
(0.0220623 1.3528e-10 4.18059e-15)
(0.0220623 1.07129e-10 4.4641e-15)
(0.0220623 6.85364e-11 4.41414e-15)
(0.0220623 2.79722e-11 4.22453e-15)
(0.0220623 -3.07788e-11 4.52553e-15)
(0.0220623 -1.04682e-10 4.2581e-15)
(0.0220623 -2.00574e-10 4.64974e-15)
(0.0220623 -2.87797e-10 4.47035e-15)
(0.0220623 -3.88986e-10 4.23334e-15)
(0.0220623 -4.02034e-10 4.39809e-15)
(0.0220623 -4.25124e-10 4.22603e-15)
(0.0220624 -2.72966e-10 4.46742e-15)
(0.0220624 -6.93759e-11 4.4887e-15)
(0.0220624 2.59847e-10 4.25807e-15)
(0.0220624 7.02204e-10 4.68803e-15)
(0.0220623 7.7793e-10 4.24391e-15)
(0.0220623 6.71861e-10 4.44401e-15)
(0.0220623 3.9419e-10 4.45702e-15)
(0.0220623 2.11647e-11 4.24315e-15)
(0.0220623 -3.65651e-10 4.42912e-15)
(0.0220623 -7.27594e-10 4.27907e-15)
(0.0220624 -1.02654e-09 4.17388e-15)
(0.0220624 -1.26872e-09 4.4138e-15)
(0.0220624 -1.41832e-09 4.26578e-15)
(0.0220624 -1.50818e-09 4.46326e-15)
(0.0220624 -1.49326e-09 4.25092e-15)
(0.0220625 -1.21326e-09 4.13522e-15)
(0.0220625 -1.25578e-09 4.39514e-15)
(0.0220625 -6.78852e-10 4.26517e-15)
(0.0220625 1.04293e-09 4.48698e-15)
(0.0311418 -1.09514e-09 6.39908e-15)
(0.0311418 -7.14627e-09 6.24294e-15)
(0.0311419 -9.34191e-09 6.26305e-15)
(0.031142 -6.89511e-09 5.51681e-15)
(0.0311421 -2.43585e-09 5.68913e-15)
(0.0311421 1.94697e-09 5.82419e-15)
(0.031142 5.3794e-09 5.75741e-15)
(0.0311419 7.70087e-09 5.96279e-15)
(0.0311418 9.02375e-09 6.01665e-15)
(0.0311417 9.54642e-09 5.87029e-15)
(0.0311416 9.48184e-09 6.06844e-15)
(0.0311415 9.00403e-09 5.90737e-15)
(0.0311414 8.24746e-09 5.96586e-15)
(0.0311413 7.32763e-09 5.78739e-15)
(0.0311413 6.33961e-09 5.57982e-15)
(0.0311412 5.33837e-09 5.8671e-15)
(0.0311411 4.33962e-09 5.76642e-15)
(0.0311411 3.36311e-09 5.80965e-15)
(0.0311411 2.43584e-09 5.59091e-15)
(0.0311411 1.55632e-09 5.46709e-15)
(0.031141 7.14339e-10 5.82436e-15)
(0.031141 -8.32536e-11 5.49461e-15)
(0.031141 -8.19514e-10 5.70793e-15)
(0.0311411 -1.47469e-09 5.34246e-15)
(0.0311411 -2.04471e-09 4.98412e-15)
(0.0311411 -2.54938e-09 5.82196e-15)
(0.0311411 -3.01393e-09 5.68176e-15)
(0.0311412 -3.44917e-09 5.77178e-15)
(0.0311412 -3.84282e-09 5.5794e-15)
(0.0311413 -4.17877e-09 4.84306e-15)
(0.0311413 -4.46488e-09 5.76019e-15)
(0.0311414 -4.72377e-09 5.20245e-15)
(0.0311414 -4.96204e-09 5.63764e-15)
(0.0311415 -5.16612e-09 5.46532e-15)
(0.0311415 -5.31458e-09 4.97542e-15)
(0.0311416 -5.41695e-09 5.7506e-15)
(0.0311416 -5.49033e-09 5.43516e-15)
(0.0311417 -5.55447e-09 5.70938e-15)
(0.0311418 -5.53754e-09 5.39773e-15)
(0.0311418 -5.46146e-09 5.1074e-15)
(0.0311419 -5.17953e-09 5.41644e-15)
(0.0311419 -4.83378e-09 5.43396e-15)
(0.031142 -4.11991e-09 5.75165e-15)
(0.031142 -3.20521e-09 5.72073e-15)
(0.0311421 -2.03899e-09 5.80456e-15)
(0.0311421 -5.78371e-10 5.86905e-15)
(0.0311421 8.64681e-11 5.69976e-15)
(0.0311421 3.25117e-10 5.96572e-15)
(0.0311421 2.33174e-10 5.92685e-15)
(0.0311421 -2.1131e-10 5.98542e-15)
(0.0311421 -5.74472e-10 6.03051e-15)
(0.0311421 -8.99762e-10 5.87705e-15)
(0.0311421 -1.18332e-09 6.09159e-15)
(0.0311421 -1.39495e-09 5.95134e-15)
(0.0311421 -1.52742e-09 6.30558e-15)
(0.0311422 -1.56201e-09 6.25226e-15)
(0.0311422 -1.48258e-09 6.00771e-15)
(0.0311422 -1.30609e-09 6.17939e-15)
(0.0311422 -1.05211e-09 6.06711e-15)
(0.0311422 -7.15539e-10 6.36252e-15)
(0.0311422 -2.92464e-10 6.33837e-15)
(0.0311422 1.86721e-10 6.09342e-15)
(0.0311422 6.75313e-10 6.27989e-15)
(0.0311422 1.15162e-09 6.13031e-15)
(0.0311422 1.60549e-09 6.38133e-15)
(0.0311422 2.01348e-09 6.36686e-15)
(0.0311421 2.35488e-09 6.15636e-15)
(0.0311421 2.62166e-09 6.34976e-15)
(0.0311421 2.8245e-09 6.27595e-15)
(0.031142 2.99493e-09 6.40108e-15)
(0.031142 3.13858e-09 6.42451e-15)
(0.031142 3.2215e-09 6.20651e-15)
(0.0311419 3.23005e-09 6.38662e-15)
(0.0311419 3.18462e-09 6.26681e-15)
(0.0311419 3.10912e-09 6.52599e-15)
(0.0311418 3.02606e-09 6.48152e-15)
(0.0311418 2.93772e-09 6.25544e-15)
(0.0311418 2.82177e-09 6.44853e-15)
(0.0311417 2.67097e-09 6.33845e-15)
(0.0311417 2.49669e-09 6.55752e-15)
(0.0311417 2.30748e-09 6.36445e-15)
(0.0311416 2.11703e-09 6.44867e-15)
(0.0311416 1.94168e-09 6.4512e-15)
(0.0311416 1.78733e-09 6.15332e-15)
(0.0311416 1.60426e-09 6.22026e-15)
(0.0311416 1.37665e-09 6.15938e-15)
(0.0311415 1.05059e-09 6.24072e-15)
(0.0311415 7.44074e-10 6.28397e-15)
(0.0311415 5.33086e-10 6.05617e-15)
(0.0311415 3.93093e-10 6.17614e-15)
(0.0311415 3.46083e-10 5.98407e-15)
(0.0311415 2.88501e-10 6.10466e-15)
(0.0311415 2.12684e-10 6.22859e-15)
(0.0311415 1.28456e-10 6.03371e-15)
(0.0311415 8.9467e-12 6.04911e-15)
(0.0311415 -1.45951e-10 6.08104e-15)
(0.0311415 -3.43638e-10 6.27425e-15)
(0.0311415 -5.36889e-10 6.2951e-15)
(0.0311415 -7.50582e-10 6.03557e-15)
(0.0311415 -8.2255e-10 6.16156e-15)
(0.0311415 -8.92981e-10 6.03301e-15)
(0.0311415 -6.62704e-10 6.27599e-15)
(0.0311415 -3.16098e-10 6.34558e-15)
(0.0311416 2.70008e-10 6.05519e-15)
(0.0311416 1.05713e-09 6.24701e-15)
(0.0311415 1.24566e-09 6.04758e-15)
(0.0311415 1.07967e-09 6.22684e-15)
(0.0311415 5.90728e-10 6.29709e-15)
(0.0311415 -8.70009e-11 6.04192e-15)
(0.0311415 -8.0688e-10 6.23117e-15)
(0.0311416 -1.48731e-09 6.09062e-15)
(0.0311416 -2.05664e-09 5.98901e-15)
(0.0311416 -2.51717e-09 6.29245e-15)
(0.0311416 -2.81058e-09 6.07849e-15)
(0.0311417 -2.98894e-09 6.28025e-15)
(0.0311417 -2.96818e-09 6.05355e-15)
(0.0311417 -2.47801e-09 5.93744e-15)
(0.0311417 -2.54732e-09 6.2643e-15)
(0.0311418 -1.29371e-09 6.06698e-15)
(0.0311418 1.39485e-09 6.29175e-15)
(0.0401873 -4.17978e-09 8.27026e-15)
(0.0401874 -1.29295e-08 7.98849e-15)
(0.0401875 -1.48551e-08 8.06651e-15)
(0.0401876 -1.01279e-08 7.51381e-15)
(0.0401876 -2.75536e-09 7.66255e-15)
(0.0401876 4.25968e-09 7.4127e-15)
(0.0401875 9.68184e-09 7.68053e-15)
(0.0401874 1.33096e-08 7.82626e-15)
(0.0401873 1.53393e-08 7.7096e-15)
(0.0401872 1.60919e-08 7.77947e-15)
(0.040187 1.59055e-08 7.94709e-15)
(0.0401869 1.50571e-08 7.57824e-15)
(0.0401868 1.37626e-08 7.72876e-15)
(0.0401867 1.22061e-08 7.38948e-15)
(0.0401866 1.05399e-08 7.27276e-15)
(0.0401865 8.85534e-09 7.67444e-15)
(0.0401865 7.1815e-09 7.38296e-15)
(0.0401864 5.54807e-09 7.51962e-15)
(0.0401864 3.99491e-09 7.14875e-15)
(0.0401864 2.52338e-09 7.12853e-15)
(0.0401863 1.12052e-09 7.60937e-15)
(0.0401863 -2.04595e-10 7.34554e-15)
(0.0401864 -1.4269e-09 7.47317e-15)
(0.0401864 -2.51621e-09 7.43835e-15)
(0.0401864 -3.46742e-09 7.04578e-15)
(0.0401864 -4.31117e-09 7.68276e-15)
(0.0401865 -5.08497e-09 7.63739e-15)
(0.0401865 -5.8056e-09 7.5103e-15)
(0.0401866 -6.45723e-09 7.51375e-15)
(0.0401866 -7.01638e-09 7.08432e-15)
(0.0401867 -7.49277e-09 7.61535e-15)
(0.0401867 -7.91939e-09 7.46186e-15)
(0.0401868 -8.30825e-09 7.34364e-15)
(0.0401869 -8.64043e-09 7.34248e-15)
(0.0401869 -8.88576e-09 7.02528e-15)
(0.040187 -9.05714e-09 7.57257e-15)
(0.0401871 -9.18184e-09 7.51842e-15)
(0.0401872 -9.28532e-09 7.41579e-15)
(0.0401872 -9.26825e-09 7.29299e-15)
(0.0401873 -9.15055e-09 7.02909e-15)
(0.0401874 -8.7292e-09 7.1378e-15)
(0.0401874 -8.18506e-09 7.35741e-15)
(0.0401875 -7.09136e-09 7.52322e-15)
(0.0401876 -5.66831e-09 7.38669e-15)
(0.0401876 -3.83926e-09 7.53526e-15)
(0.0401876 -1.5704e-09 7.59393e-15)
(0.0401877 -4.06407e-10 7.60446e-15)
(0.0401877 8.59324e-11 7.77253e-15)
(0.0401877 3.53884e-11 7.65458e-15)
(0.0401877 -5.65514e-10 7.76508e-15)
(0.0401877 -1.09843e-09 7.7903e-15)
(0.0401877 -1.58343e-09 7.84196e-15)
(0.0401877 -2.00311e-09 7.93172e-15)
(0.0401877 -2.31262e-09 7.96114e-15)
(0.0401878 -2.49471e-09 7.96463e-15)
(0.0401878 -2.51755e-09 8.02665e-15)
(0.0401878 -2.35562e-09 8.02539e-15)
(0.0401878 -2.03334e-09 8.04879e-15)
(0.0401878 -1.58236e-09 8.13904e-15)
(0.0401878 -9.99073e-10 8.08619e-15)
(0.0401878 -2.81233e-10 8.1383e-15)
(0.0401878 5.22771e-10 8.10221e-15)
(0.0401878 1.33937e-09 8.16735e-15)
(0.0401878 2.13111e-09 8.1779e-15)
(0.0401878 2.87975e-09 8.26353e-15)
(0.0401877 3.54948e-09 8.17707e-15)
(0.0401877 4.10931e-09 8.20529e-15)
(0.0401877 4.54739e-09 8.26308e-15)
(0.0401876 4.88025e-09 8.39626e-15)
(0.0401876 5.15453e-09 8.22197e-15)
(0.0401875 5.37922e-09 8.26745e-15)
(0.0401875 5.50638e-09 8.25003e-15)
(0.0401875 5.51621e-09 8.30842e-15)
(0.0401874 5.43798e-09 8.36536e-15)
(0.0401874 5.30849e-09 8.2912e-15)
(0.0401873 5.16373e-09 8.34183e-15)
(0.0401873 5.00907e-09 8.31693e-15)
(0.0401872 4.81192e-09 8.38265e-15)
(0.0401872 4.5604e-09 8.46287e-15)
(0.0401872 4.27141e-09 8.47369e-15)
(0.0401871 3.95971e-09 8.56429e-15)
(0.0401871 3.64605e-09 8.31411e-15)
(0.0401871 3.35472e-09 8.3076e-15)
(0.040187 3.09315e-09 8.31088e-15)
(0.040187 2.78943e-09 8.05558e-15)
(0.040187 2.41315e-09 8.3593e-15)
(0.040187 1.88899e-09 8.00033e-15)
(0.0401869 1.388e-09 8.11294e-15)
(0.0401869 1.02962e-09 8.17652e-15)
(0.0401869 7.89586e-10 8.01687e-15)
(0.0401869 6.94642e-10 8.12945e-15)
(0.0401869 5.95099e-10 7.92818e-15)
(0.0401869 4.69462e-10 8.03475e-15)
(0.0401869 3.24589e-10 8.15755e-15)
(0.0401869 1.20345e-10 7.72127e-15)
(0.0401869 -1.48514e-10 8.23385e-15)
(0.0401869 -4.89583e-10 8.09489e-15)
(0.0401869 -8.37252e-10 8.11243e-15)
(0.0401869 -1.21512e-09 8.13996e-15)
(0.0401869 -1.39705e-09 7.62794e-15)
(0.0401869 -1.55829e-09 8.16412e-15)
(0.0401869 -1.27862e-09 8.14813e-15)
(0.040187 -7.95464e-10 8.19318e-15)
(0.040187 6.77878e-11 8.16409e-15)
(0.040187 1.23985e-09 8.05431e-15)
(0.040187 1.58391e-09 8.15811e-15)
(0.040187 1.37652e-09 7.93257e-15)
(0.040187 6.62693e-10 8.13723e-15)
(0.040187 -3.58767e-10 8.14634e-15)
(0.040187 -1.4685e-09 8.04289e-15)
(0.040187 -2.52914e-09 8.20185e-15)
(0.040187 -3.42595e-09 8.17403e-15)
(0.040187 -4.15271e-09 8.24057e-15)
(0.0401871 -4.62756e-09 8.18952e-15)
(0.0401871 -4.92033e-09 7.89167e-15)
(0.0401872 -4.89931e-09 8.16033e-15)
(0.0401872 -4.17872e-09 8.11096e-15)
(0.0401872 -4.28339e-09 8.20308e-15)
(0.0401873 -2.02322e-09 8.16851e-15)
(0.0401872 1.16803e-09 8.14086e-15)
(0.0488643 -9.61829e-09 1.00949e-14)
(0.0488645 -2.02243e-08 9.74665e-15)
(0.0488646 -2.05867e-08 9.7961e-15)
(0.0488646 -1.27886e-08 9.61429e-15)
(0.0488646 -2.11522e-09 9.59476e-15)
(0.0488646 7.7441e-09 9.54684e-15)
(0.0488645 1.52859e-08 9.56515e-15)
(0.0488644 2.02903e-08 9.64771e-15)
(0.0488642 2.30446e-08 9.63502e-15)
(0.0488641 2.4e-08 9.6329e-15)
(0.048864 2.36266e-08 9.77185e-15)
(0.0488638 2.23124e-08 9.43558e-15)
(0.0488637 2.03627e-08 9.48023e-15)
(0.0488636 1.80383e-08 9.14972e-15)
(0.0488635 1.55561e-08 9.03848e-15)
(0.0488634 1.30501e-08 9.4675e-15)
(0.0488633 1.05656e-08 9.18546e-15)
(0.0488633 8.14286e-09 9.21103e-15)
(0.0488632 5.83536e-09 8.87607e-15)
(0.0488632 3.64989e-09 8.83937e-15)
(0.0488632 1.57271e-09 9.07194e-15)
(0.0488632 -3.84907e-10 9.11365e-15)
(0.0488632 -2.1896e-09 9.21081e-15)
(0.0488632 -3.80092e-09 9.07398e-15)
(0.0488632 -5.21387e-09 8.95745e-15)
(0.0488633 -6.47093e-09 9.22818e-15)
(0.0488633 -7.62084e-09 9.17384e-15)
(0.0488634 -8.68655e-09 9.1589e-15)
(0.0488634 -9.6501e-09 9.04979e-15)
(0.0488635 -1.04807e-08 8.92902e-15)
(0.0488636 -1.11889e-08 9.17232e-15)
(0.0488636 -1.18186e-08 8.9712e-15)
(0.0488637 -1.2388e-08 8.96795e-15)
(0.0488638 -1.28735e-08 8.8811e-15)
(0.0488639 -1.32368e-08 8.84065e-15)
(0.0488639 -1.34953e-08 9.10788e-15)
(0.048864 -1.36862e-08 9.01122e-15)
(0.0488641 -1.38398e-08 9.02548e-15)
(0.0488642 -1.38288e-08 8.87786e-15)
(0.0488643 -1.36704e-08 8.85142e-15)
(0.0488644 -1.31048e-08 8.86851e-15)
(0.0488644 -1.23447e-08 9.26959e-15)
(0.0488645 -1.0841e-08 9.26996e-15)
(0.0488646 -8.86078e-09 9.33501e-15)
(0.0488646 -6.29904e-09 9.2674e-15)
(0.0488647 -3.13242e-09 9.26282e-15)
(0.0488647 -1.35457e-09 9.42236e-15)
(0.0488647 -5.01463e-10 9.53166e-15)
(0.0488647 -4.35069e-10 9.4959e-15)
(0.0488647 -1.14533e-09 9.53527e-15)
(0.0488648 -1.82809e-09 9.48549e-15)
(0.0488648 -2.46535e-09 9.67948e-15)
(0.0488648 -3.01446e-09 9.71359e-15)
(0.0488648 -3.41275e-09 9.83008e-15)
(0.0488648 -3.62838e-09 9.91544e-15)
(0.0488649 -3.61297e-09 9.71793e-15)
(0.0488649 -3.33013e-09 9.86697e-15)
(0.0488649 -2.81282e-09 9.87318e-15)
(0.0488649 -2.1065e-09 1.00247e-14)
(0.0488649 -1.21134e-09 1.00674e-14)
(0.0488649 -1.2931e-10 9.86841e-15)
(0.0488649 1.06937e-09 9.98178e-15)
(0.0488649 2.28075e-09 1.00008e-14)
(0.0488649 3.44947e-09 1.01062e-14)
(0.0488648 4.5471e-09 1.00941e-14)
(0.0488648 5.52463e-09 9.92631e-15)
(0.0488648 6.34093e-09 1.00937e-14)
(0.0488647 6.98097e-09 1.01191e-14)
(0.0488647 7.46761e-09 1.03163e-14)
(0.0488646 7.86243e-09 1.02621e-14)
(0.0488646 8.17713e-09 1.00562e-14)
(0.0488645 8.35091e-09 1.03186e-14)
(0.0488645 8.35949e-09 1.01746e-14)
(0.0488644 8.24087e-09 1.03018e-14)
(0.0488644 8.04545e-09 1.03397e-14)
(0.0488643 7.8243e-09 1.01142e-14)
(0.0488643 7.58674e-09 1.03846e-14)
(0.0488642 7.28947e-09 1.02564e-14)
(0.0488642 6.91612e-09 1.05528e-14)
(0.0488641 6.49023e-09 1.03606e-14)
(0.0488641 6.03368e-09 1.06547e-14)
(0.048864 5.57418e-09 1.00319e-14)
(0.048864 5.14359e-09 1.01096e-14)
(0.048864 4.75043e-09 1.0409e-14)
(0.0488639 4.29927e-09 9.7506e-15)
(0.0488639 3.74328e-09 1.05822e-14)
(0.0488639 2.98744e-09 9.8496e-15)
(0.0488639 2.25813e-09 9.93312e-15)
(0.0488639 1.72154e-09 1.02044e-14)
(0.0488638 1.35718e-09 9.6849e-15)
(0.0488638 1.19606e-09 1.03188e-14)
(0.0488638 1.0408e-09 9.75624e-15)
(0.0488638 8.51975e-10 9.81525e-15)
(0.0488638 6.28374e-10 1.02072e-14)
(0.0488638 3.13983e-10 9.68335e-15)
(0.0488638 -1.02661e-10 1.04399e-14)
(0.0488638 -6.28865e-10 9.78799e-15)
(0.0488638 -1.17926e-09 9.90429e-15)
(0.0488638 -1.77419e-09 1.01637e-14)
(0.0488638 -2.12176e-09 9.6097e-15)
(0.0488638 -2.42459e-09 1.03702e-14)
(0.0488639 -2.13893e-09 9.96405e-15)
(0.0488639 -1.54557e-09 9.99681e-15)
(0.0488639 -4.11588e-10 1.01907e-14)
(0.0488639 1.15705e-09 9.80634e-15)
(0.0488639 1.68952e-09 1.01721e-14)
(0.0488639 1.4729e-09 9.87691e-15)
(0.0488639 5.49172e-10 9.94224e-15)
(0.0488639 -8.2047e-10 1.01654e-14)
(0.0488639 -2.34216e-09 9.70517e-15)
(0.0488639 -3.8143e-09 1.02101e-14)
(0.048864 -5.07161e-09 1.02782e-14)
(0.048864 -6.09555e-09 1.01476e-14)
(0.048864 -6.78108e-09 1.01871e-14)
(0.0488641 -7.21179e-09 9.8309e-15)
(0.0488641 -7.20031e-09 1.01874e-14)
(0.0488642 -6.24909e-09 1.01976e-14)
(0.0488642 -6.40589e-09 1.01019e-14)
(0.0488642 -2.78918e-09 1.01581e-14)
(0.0488642 -1.12229e-10 9.91497e-15)
(0.0567976 -1.70812e-08 1.18144e-14)
(0.0567978 -2.80028e-08 1.15151e-14)
(0.0567979 -2.55704e-08 1.14808e-14)
(0.0567979 -1.42982e-08 1.13908e-14)
(0.0567979 -3.70558e-10 1.13562e-14)
(0.0567978 1.21859e-08 1.13168e-14)
(0.0567977 2.17317e-08 1.13063e-14)
(0.0567976 2.80431e-08 1.1347e-14)
(0.0567975 3.14809e-08 1.13474e-14)
(0.0567973 3.26104e-08 1.13381e-14)
(0.0567972 3.20205e-08 1.14615e-14)
(0.056797 3.02024e-08 1.09267e-14)
(0.0567969 2.75497e-08 1.11229e-14)
(0.0567968 2.4401e-08 1.06207e-14)
(0.0567967 2.10402e-08 1.06731e-14)
(0.0567966 1.76463e-08 1.11801e-14)
(0.0567965 1.42819e-08 1.07532e-14)
(0.0567965 1.0998e-08 1.07906e-14)
(0.0567964 7.86254e-09 1.01737e-14)
(0.0567964 4.8908e-09 1.04511e-14)
(0.0567964 2.0709e-09 1.0502e-14)
(0.0567964 -5.83416e-10 1.07163e-14)
(0.0567964 -3.03071e-09 1.08101e-14)
(0.0567964 -5.22098e-09 1.0603e-14)
(0.0567964 -7.15161e-09 1.06849e-14)
(0.0567965 -8.87648e-09 1.07104e-14)
(0.0567965 -1.04522e-08 1.04401e-14)
(0.0567966 -1.19074e-08 1.0674e-14)
(0.0567966 -1.32237e-08 1.05049e-14)
(0.0567967 -1.43629e-08 1.06153e-14)
(0.0567968 -1.53359e-08 1.06735e-14)
(0.0567968 -1.61981e-08 1.04045e-14)
(0.0567969 -1.69741e-08 1.04599e-14)
(0.056797 -1.76348e-08 1.01752e-14)
(0.0567971 -1.81358e-08 1.05037e-14)
(0.0567972 -1.85008e-08 1.05796e-14)
(0.0567973 -1.87756e-08 1.02836e-14)
(0.0567974 -1.89931e-08 1.05004e-14)
(0.0567975 -1.89987e-08 1.03493e-14)
(0.0567975 -1.88083e-08 1.0539e-14)
(0.0567976 -1.81067e-08 1.05025e-14)
(0.0567977 -1.7131e-08 1.08732e-14)
(0.0567978 -1.52139e-08 1.08469e-14)
(0.0567979 -1.26648e-08 1.08526e-14)
(0.0567979 -9.34673e-09 1.08448e-14)
(0.056798 -5.24132e-09 1.08132e-14)
(0.056798 -2.76874e-09 1.11294e-14)
(0.056798 -1.46052e-09 1.1156e-14)
(0.0567981 -1.19484e-09 1.11817e-14)
(0.0567981 -1.9487e-09 1.11256e-14)
(0.0567981 -2.73881e-09 1.10523e-14)
(0.0567981 -3.5003e-09 1.13979e-14)
(0.0567981 -4.15637e-09 1.13284e-14)
(0.0567982 -4.62285e-09 1.15943e-14)
(0.0567982 -4.84871e-09 1.15779e-14)
(0.0567982 -4.76551e-09 1.12383e-14)
(0.0567982 -4.32627e-09 1.1634e-14)
(0.0567982 -3.57392e-09 1.15221e-14)
(0.0567982 -2.56858e-09 1.18244e-14)
(0.0567982 -1.31558e-09 1.17649e-14)
(0.0567982 1.76229e-10 1.14092e-14)
(0.0567982 1.81191e-09 1.17469e-14)
(0.0567982 3.45622e-09 1.16693e-14)
(0.0567982 5.03612e-09 1.18938e-14)
(0.0567982 6.51211e-09 1.18312e-14)
(0.0567981 7.82185e-09 1.14897e-14)
(0.0567981 8.9157e-09 1.18767e-14)
(0.056798 9.77617e-09 1.18004e-14)
(0.056798 1.04321e-08 1.21375e-14)
(0.0567979 1.09582e-08 1.20258e-14)
(0.0567979 1.13678e-08 1.16525e-14)
(0.0567978 1.15889e-08 1.1981e-14)
(0.0567977 1.15956e-08 1.18851e-14)
(0.0567977 1.14343e-08 1.21376e-14)
(0.0567976 1.1168e-08 1.20612e-14)
(0.0567976 1.08635e-08 1.16996e-14)
(0.0567975 1.05337e-08 1.20473e-14)
(0.0567975 1.01246e-08 1.19608e-14)
(0.0567974 9.61703e-09 1.22528e-14)
(0.0567974 9.04243e-09 1.20894e-14)
(0.0567973 8.42964e-09 1.23677e-14)
(0.0567973 7.81184e-09 1.19865e-14)
(0.0567973 7.22728e-09 1.18662e-14)
(0.0567972 6.68524e-09 1.22355e-14)
(0.0567972 6.06675e-09 1.18415e-14)