/*--------------------------------*- C++ -*----------------------------------*\
  =========                 |
  \\      /  F ield         | OpenFOAM: The Open Source CFD Toolbox
   \\    /   O peration     | Website:  https://openfoam.org
    \\  /    A nd           | Version:  7
     \\/     M anipulation  |
\*---------------------------------------------------------------------------*/
FoamFile
{
    version     2.0;
    format      ascii;
    class       volVectorField;
    location    "20000";
    object      wallShearStress;
}
// * * * * * * * * * * * * * * * * * * * * * * * * * * * * * * * * * * * * * //

dimensions      [0 2 -2 0 0 0 0];

internalField   uniform (0 0 0);

boundaryField
{
    bottomWall
    {
        type            calculated;
        value           nonuniform List<vector> 
120
(
(-6.86769e-05 -1.95951e-12 -1.39499e-17)
(-6.86771e-05 3.59109e-12 -1.37688e-17)
(-6.86773e-05 6.6117e-12 -1.37573e-17)
(-6.86776e-05 6.39527e-12 -1.26222e-17)
(-6.86777e-05 2.73418e-12 -8.26173e-18)
(-6.86777e-05 3.0119e-13 -1.24195e-17)
(-6.86777e-05 -1.9328e-12 -7.81429e-18)
(-6.86776e-05 -3.90213e-12 -1.26178e-17)
(-6.86774e-05 -5.62106e-12 -1.32963e-17)
(-6.86771e-05 -5.80293e-12 -8.31613e-18)
(-6.86769e-05 -5.84068e-12 -1.28854e-17)
(-6.86766e-05 -5.77656e-12 -1.30483e-17)
(-6.86765e-05 -5.64266e-12 -1.30897e-17)
(-6.86761e-05 -5.47102e-12 -1.28073e-17)
(-6.8676e-05 -3.9528e-12 -1.20361e-17)
(-6.86758e-05 -2.43106e-12 -1.28364e-17)
(-6.86758e-05 -2.23403e-12 -1.27342e-17)
(-6.86757e-05 -3.37156e-12 -1.27441e-17)
(-6.86755e-05 -1.85771e-12 -1.23567e-17)
(-6.86755e-05 -3.50431e-13 -1.1865e-17)
(-6.86755e-05 -1.75735e-13 -1.27228e-17)
(-6.86755e-05 -8.12943e-15 -1.21573e-17)
(-6.86755e-05 1.46473e-13 -1.24343e-17)
(-6.86755e-05 2.81456e-13 -1.20144e-17)
(-6.86755e-05 1.72787e-12 -1.12678e-17)
(-6.86757e-05 1.82825e-12 -1.27724e-17)
(-6.86757e-05 1.92508e-12 -1.24532e-17)
(-6.86758e-05 2.02132e-12 -1.26207e-17)
(-6.86758e-05 2.10667e-12 -1.22343e-17)
(-6.8676e-05 3.50794e-12 -1.11672e-17)
(-6.86761e-05 2.23209e-12 -1.24804e-17)
(-6.86761e-05 2.29212e-12 -1.20487e-17)
(-6.86763e-05 3.68262e-12 -1.23464e-17)
(-6.86765e-05 3.73447e-12 -1.20606e-17)
(-6.86766e-05 3.76038e-12 -1.12471e-17)
(-6.86768e-05 3.78594e-12 -1.25618e-17)
(-6.86769e-05 2.45457e-12 -1.23386e-17)
(-6.86769e-05 2.49086e-12 -1.24971e-17)
(-6.86771e-05 3.77946e-12 -1.17844e-17)
(-6.86773e-05 3.78767e-12 -1.11057e-17)
(-6.86774e-05 3.62558e-12 -1.168e-17)
(-6.86776e-05 3.56562e-12 -1.45636e-17)
(-6.86777e-05 1.93958e-12 -1.26148e-17)
(-6.86777e-05 2.96656e-13 -1.25545e-17)
(-6.86777e-05 1.32363e-12 -1.27081e-17)
(-6.86779e-05 -6.11612e-13 -1.2842e-17)
(-6.86777e-05 -1.85874e-12 -1.51113e-17)
(-6.86777e-05 -4.96972e-13 -1.31413e-17)
(-6.86777e-05 -3.83811e-13 -1.3005e-17)
(-6.86777e-05 -9.532e-14 -1.31122e-17)
(-6.86777e-05 -2.50685e-15 -1.323e-17)
(-6.86777e-05 1.28661e-13 -1.69156e-17)
(-6.86777e-05 2.33489e-13 -1.33779e-17)
(-6.86777e-05 1.64625e-12 -1.72009e-17)
(-6.86779e-05 1.70624e-12 -1.24077e-17)
(-6.86779e-05 4.07576e-13 -1.36592e-17)
(-6.86779e-05 1.74445e-12 -1.69624e-17)
(-6.8678e-05 1.729e-12 -1.35744e-17)
(-6.8678e-05 3.66406e-13 -1.72286e-17)
(-6.8678e-05 3.13284e-13 -1.2947e-17)
(-6.8678e-05 2.31698e-13 -1.38598e-17)
(-6.8678e-05 1.336e-13 -1.76256e-17)
(-6.8678e-05 3.53782e-14 -1.38251e-17)
(-6.8678e-05 -6.405e-14 -1.72365e-17)
(-6.8678e-05 -1.65141e-13 -1.2951e-17)
(-6.8678e-05 -1.5901e-12 -1.39275e-17)
(-6.86779e-05 -1.66587e-12 -1.72785e-17)
(-6.86779e-05 -3.90415e-13 -1.39679e-17)
(-6.86779e-05 -1.76705e-12 -1.66435e-17)
(-6.86777e-05 -1.81124e-12 -1.31086e-17)
(-6.86777e-05 -1.85641e-12 -1.40476e-17)
(-6.86776e-05 -1.88021e-12 -1.76024e-17)
(-6.86776e-05 -1.8806e-12 -1.4043e-17)
(-6.86774e-05 -1.87185e-12 -1.74173e-17)
(-6.86774e-05 -1.85876e-12 -1.32337e-17)
(-6.86773e-05 -1.84822e-12 -1.41311e-17)
(-6.86773e-05 -1.8383e-12 -1.78135e-17)
(-6.86771e-05 -1.81564e-12 -1.42145e-17)
(-6.86771e-05 -1.78123e-12 -1.70995e-17)
(-6.86769e-05 -1.74381e-12 -1.36956e-17)
(-6.86769e-05 -3.65763e-13 -1.02199e-17)
(-6.86769e-05 -1.65775e-12 -1.27706e-17)
(-6.86768e-05 -1.61809e-12 -1.41338e-17)
(-6.86768e-05 -2.6431e-13 -9.96234e-18)
(-6.86768e-05 -2.14573e-13 -1.22624e-17)
(-6.86768e-05 -1.69086e-13 -1.00691e-17)
(-6.86768e-05 -1.3999e-12 -1.1699e-17)
(-6.86766e-05 -1.32962e-12 -1.36981e-17)
(-6.86766e-05 2.52683e-14 -1.08429e-17)
(-6.86766e-05 5.45926e-14 -1.19004e-17)
(-6.86766e-05 3.22544e-14 -9.19834e-18)
(-6.86766e-05 5.01453e-14 -1.14805e-17)
(-6.86766e-05 7.08597e-14 -1.36192e-17)
(-6.86766e-05 7.98493e-14 -9.35104e-18)
(-6.86766e-05 1.10884e-13 -1.20685e-17)
(-6.86766e-05 1.25303e-13 -9.7605e-18)
(-6.86766e-05 1.50927e-12 -1.26737e-17)
(-6.86768e-05 1.49933e-12 -1.38089e-17)
(-6.86768e-05 2.29712e-13 -9.67249e-18)
(-6.86768e-05 1.27405e-13 -1.22275e-17)
(-6.86768e-05 1.53268e-13 -9.55515e-18)
(-6.86768e-05 -5.53858e-14 -1.24242e-17)
(-6.86768e-05 -2.13369e-13 -1.38451e-17)
(-6.86768e-05 -4.28509e-13 -1.11222e-17)
(-6.86768e-05 -2.15545e-12 -1.30294e-17)
(-6.86766e-05 -2.03389e-12 -1.02449e-17)
(-6.86766e-05 -6.21487e-13 -1.2495e-17)
(-6.86766e-05 -3.92236e-13 -1.37581e-17)
(-6.86766e-05 -1.41046e-13 -1.09739e-17)
(-6.86766e-05 8.86041e-14 -1.21244e-17)
(-6.86766e-05 3.00935e-13 -1.10447e-17)
(-6.86766e-05 1.78689e-12 -9.25924e-18)
(-6.86768e-05 1.92406e-12 -1.35927e-17)
(-6.86768e-05 1.98454e-12 -1.09003e-17)
(-6.86769e-05 2.01704e-12 -1.23581e-17)
(-6.86769e-05 2.01054e-12 -9.3741e-18)
(-6.86771e-05 1.76339e-12 -1.04776e-17)
(-6.86771e-05 4.31175e-13 -1.35529e-17)
(-6.86771e-05 5.00441e-13 -9.99167e-18)
(-6.86771e-05 -2.8124e-12 -1.24333e-17)
)
;
    }
    topWall
    {
        type            calculated;
        value           nonuniform List<vector> 
120
(
(-6.88989e-05 3.84276e-12 -1.38697e-17)
(-6.88989e-05 -2.25961e-12 -9.8807e-18)
(-6.88991e-05 -4.66245e-12 -1.05548e-17)
(-6.88992e-05 -2.67667e-12 -1.22433e-17)
(-6.88992e-05 1.14466e-12 -1.00045e-17)
(-6.88991e-05 3.5692e-12 -1.16918e-17)
(-6.88989e-05 5.73168e-12 -9.37631e-18)
(-6.88986e-05 7.6065e-12 -1.36551e-17)
(-6.88983e-05 7.90057e-12 -1.18748e-17)
(-6.8898e-05 8.01656e-12 -9.52325e-18)
(-6.88977e-05 9.33193e-12 -1.35272e-17)
(-6.88972e-05 9.21521e-12 -1.04328e-17)
(-6.88969e-05 6.38203e-12 -1.43091e-17)
(-6.88967e-05 6.19501e-12 -1.1076e-17)
(-6.88964e-05 7.33488e-12 -1.52575e-17)
(-6.88961e-05 5.79823e-12 -1.5077e-17)
(-6.88959e-05 4.26806e-12 -1.12535e-17)
(-6.88958e-05 4.0617e-12 -1.49538e-17)
(-6.88956e-05 3.87514e-12 -1.14655e-17)
(-6.88955e-05 3.69598e-12 -1.54655e-17)
(-6.88953e-05 3.54698e-12 -1.34848e-17)
(-6.88952e-05 2.05619e-12 -1.52409e-17)
(-6.88952e-05 1.92802e-12 -7.66622e-18)
(-6.8895e-05 1.79281e-12 -1.17541e-17)
(-6.8895e-05 3.32648e-13 -1.4146e-17)
(-6.8895e-05 2.85759e-13 -1.23791e-17)
(-6.8895e-05 2.02524e-13 -1.21747e-17)
(-6.8895e-05 1.35165e-13 -7.69618e-18)
(-6.8895e-05 1.40446e-12 -1.1507e-17)
(-6.88948e-05 6.95746e-15 -1.36959e-17)
(-6.8895e-05 -1.37884e-12 -1.22619e-17)
(-6.8895e-05 -9.19806e-14 -1.22093e-17)
(-6.8895e-05 -1.44104e-13 -7.60631e-18)
(-6.8895e-05 -1.92542e-13 -1.14708e-17)
(-6.8895e-05 -2.27409e-13 -1.3826e-17)
(-6.8895e-05 -2.55698e-13 -1.20119e-17)
(-6.8895e-05 -1.6195e-12 -1.20156e-17)
(-6.88952e-05 -1.6559e-12 -7.78844e-18)
(-6.88952e-05 -3.67575e-13 -1.149e-17)
(-6.88952e-05 -1.74839e-12 -1.38833e-17)
(-6.88953e-05 -1.78506e-12 -7.08804e-18)
(-6.88953e-05 -4.76689e-13 -1.19082e-17)
(-6.88953e-05 -1.83803e-12 -7.47148e-18)
(-6.88955e-05 -1.87166e-12 -1.44881e-17)
(-6.88955e-05 -1.90555e-12 -8.07857e-18)
(-6.88956e-05 -1.93475e-12 -6.71017e-18)
(-6.88956e-05 -1.95144e-12 -1.25439e-17)
(-6.88958e-05 -1.95772e-12 -6.49915e-18)
(-6.88958e-05 -1.96948e-12 -1.42366e-17)
(-6.88959e-05 -1.98761e-12 -7.98467e-18)
(-6.88959e-05 -1.99175e-12 -6.80193e-18)
(-6.88961e-05 -1.98067e-12 -1.18637e-17)
(-6.88961e-05 -1.96844e-12 -7.4633e-18)
(-6.88963e-05 -1.9584e-12 -1.20184e-17)
(-6.88963e-05 -1.94936e-12 -5.82853e-18)
(-6.88964e-05 -1.94211e-12 -5.67368e-18)
(-6.88964e-05 -1.93061e-12 -1.19896e-17)
(-6.88966e-05 -1.91278e-12 -7.58349e-18)
(-6.88966e-05 -1.88864e-12 -1.209e-17)
(-6.88967e-05 -1.85814e-12 -7.09903e-18)
(-6.88967e-05 -1.83439e-12 -6.52886e-18)
(-6.88969e-05 -1.82526e-12 -1.16173e-17)
(-6.88969e-05 -1.81766e-12 -6.05662e-18)
(-6.8897e-05 -1.80671e-12 -1.18751e-17)
(-6.8897e-05 -4.59795e-13 -7.02112e-18)
(-6.8897e-05 -1.77269e-12 -5.95408e-18)
(-6.88972e-05 -1.75075e-12 -1.23157e-17)
(-6.88972e-05 -4.03139e-13 -4.69928e-18)
(-6.88972e-05 -1.72914e-12 -1.20846e-17)
(-6.88974e-05 -1.72424e-12 -5.82282e-18)
(-6.88974e-05 -3.82152e-13 -4.9006e-18)
(-6.88974e-05 -1.70186e-12 -1.19101e-17)
(-6.88975e-05 -1.69055e-12 -6.69692e-18)
(-6.88975e-05 -3.47378e-13 -1.24298e-17)
(-6.88975e-05 -1.66566e-12 -7.03894e-18)
(-6.88977e-05 -1.64875e-12 -4.85129e-18)
(-6.88977e-05 -3.03222e-13 -1.23073e-17)
(-6.88977e-05 -2.9851e-13 -5.77048e-18)
(-6.88977e-05 -1.63037e-12 -1.21629e-17)
(-6.88978e-05 -1.62598e-12 -6.76243e-18)
(-6.88978e-05 -2.88291e-13 -1.08538e-17)
(-6.88978e-05 -2.87791e-13 -6.03819e-18)
(-6.88978e-05 -1.62189e-12 -1.05307e-17)
(-6.8898e-05 -1.6252e-12 -1.14992e-17)
(-6.8898e-05 -3.0003e-13 -7.01822e-18)
(-6.8898e-05 -3.0726e-13 -1.06643e-17)
(-6.8898e-05 -1.64211e-12 -6.12279e-18)
(-6.88981e-05 -1.64007e-12 -1.07567e-17)
(-6.88981e-05 -3.04206e-13 -1.18682e-17)
(-6.88981e-05 -3.01435e-13 -7.13607e-18)
(-6.88981e-05 -1.63159e-12 -1.13462e-17)
(-6.88983e-05 -1.62584e-12 -6.18859e-18)
(-6.88983e-05 -2.92754e-13 -1.09614e-17)
(-6.88983e-05 -2.93357e-13 -1.18874e-17)
(-6.88983e-05 -1.63441e-12 -5.91334e-18)
(-6.88985e-05 -1.63187e-12 -1.12544e-17)
(-6.88985e-05 -3.02732e-13 -6.09575e-18)
(-6.88985e-05 -2.6001e-13 -1.10053e-17)
(-6.88985e-05 -2.63472e-13 -1.20731e-17)
(-6.88985e-05 -1.53243e-12 -7.80166e-18)
(-6.88986e-05 -1.54415e-12 -1.15768e-17)
(-6.88986e-05 -3.27966e-13 -6.60097e-18)
(-6.88986e-05 -3.20884e-13 -1.12263e-17)
(-6.88986e-05 -1.66592e-12 -1.23621e-17)
(-6.88988e-05 -1.6743e-12 -6.23938e-18)
(-6.88988e-05 -3.69363e-13 -1.17241e-17)
(-6.88988e-05 -4.01979e-13 -8.19911e-18)
(-6.88988e-05 -1.76334e-12 -1.14585e-17)
(-6.88989e-05 -1.79683e-12 -1.24957e-17)
(-6.88989e-05 -4.82023e-13 -7.56988e-18)
(-6.88989e-05 -1.83322e-12 -1.1466e-17)
(-6.88991e-05 -1.82237e-12 -1.27203e-17)
(-6.88991e-05 -4.93041e-13 -1.27499e-17)
(-6.88991e-05 -1.75854e-12 -1.29644e-17)
(-6.88992e-05 -1.68415e-12 -7.16375e-18)
(-6.88992e-05 -2.24966e-13 -1.16929e-17)
(-6.88992e-05 1.08784e-13 -1.28136e-17)
(-6.88992e-05 1.45587e-13 -1.27962e-17)
(-6.88992e-05 1.53718e-12 -1.30734e-17)
(-6.88991e-05 5.25519e-12 -7.79781e-18)
)
;
    }
    sides1_half0
    {
        type            cyclic;
    }
    sides1_half1
    {
        type            cyclic;
    }
    sides2_half0
    {
        type            cyclic;
    }
    sides2_half1
    {
        type            cyclic;
    }
    inout1_half0
    {
        type            cyclic;
    }
    inout1_half1
    {
        type            cyclic;
    }
    inout2_half0
    {
        type            cyclic;
    }
    inout2_half1
    {
        type            cyclic;
    }
}


// ************************************************************************* //
