/*--------------------------------*- C++ -*----------------------------------*\
  =========                 |
  \\      /  F ield         | OpenFOAM: The Open Source CFD Toolbox
   \\    /   O peration     | Website:  https://openfoam.org
    \\  /    A nd           | Version:  7
     \\/     M anipulation  |
\*---------------------------------------------------------------------------*/
FoamFile
{
    version     2.0;
    format      ascii;
    class       volScalarField;
    location    "19000";
    object      nut;
}
// * * * * * * * * * * * * * * * * * * * * * * * * * * * * * * * * * * * * * //

dimensions      [0 2 -1 0 0 0 0];

internalField   nonuniform List<scalar> 
3963
(
0.00131091
0.00131122
0.00131128
0.00131129
0.00131129
0.00131129
0.00131128
0.00131128
0.00131126
0.00131125
0.00131124
0.00131123
0.00131121
0.00131119
0.00131118
0.00131116
0.00131114
0.00131111
0.00131109
0.00131107
0.00131106
0.00131013
0.00131003
0.00130992
0.00130987
0.00130983
0.0013098
0.00130978
0.00130975
0.00130973
0.00130971
0.00130969
0.00130967
0.00130965
0.00130963
0.00130961
0.00130953
0.00125189
0.00125218
0.00125225
0.00125226
0.00125226
0.00125225
0.00125225
0.00125224
0.00125222
0.00125221
0.00125219
0.00125218
0.00125216
0.00125214
0.00125212
0.0012521
0.00125208
0.00125206
0.00125203
0.00125201
0.00125193
0.00125289
0.00125324
0.00125263
0.00125253
0.00125243
0.0012524
0.00125189
0.0012516
0.00125143
0.00125131
0.00125122
0.00125115
0.00125109
0.00125104
0.001251
0.00125096
0.00125092
0.00125088
0.00125085
0.00125082
0.00125079
0.0012507
0.00119546
0.0011957
0.00119578
0.00119579
0.00119579
0.00119578
0.00119577
0.00119575
0.00119574
0.00119572
0.00119571
0.00119569
0.00119567
0.00119565
0.00119563
0.0011956
0.00119558
0.00119556
0.00119554
0.00119552
0.00119545
0.00119583
0.0011961
0.00119717
0.00119758
0.00119769
0.00119772
0.00119775
0.00119776
0.00119777
0.00119778
0.00119778
0.00119778
0.00119778
0.00119777
0.00119776
0.00119776
0.00119775
0.00119774
0.00119773
0.00119772
0.00119771
0.0011977
0.00119769
0.00119768
0.00119767
0.00119766
0.00119765
0.00119764
0.00119763
0.00119762
0.00119761
0.00119759
0.00119758
0.00119757
0.00119755
0.00119754
0.00119752
0.00119751
0.0011975
0.00119749
0.00119747
0.00119745
0.00119744
0.00119743
0.0011974
0.00119739
0.00119738
0.00119737
0.00119734
0.00119733
0.00119732
0.00119731
0.00119728
0.00119727
0.00119726
0.00119725
0.00119722
0.00119721
0.0011972
0.00119718
0.00119717
0.00119716
0.00119715
0.00119712
0.00119711
0.0011971
0.00119708
0.00119707
0.00119706
0.00119705
0.00119703
0.00119702
0.00119701
0.00119699
0.00119699
0.00119698
0.00119697
0.00119695
0.00119696
0.00119653
0.00119628
0.00119613
0.00119606
0.0011958
0.00119555
0.00119535
0.0011952
0.00119508
0.00119499
0.00119491
0.00119484
0.00119478
0.00119473
0.00119468
0.00119463
0.00119458
0.00119454
0.00119452
0.00119441
0.00114155
0.00114176
0.00114181
0.00114182
0.00114182
0.00114182
0.0011418
0.00114179
0.00114177
0.00114175
0.00114173
0.00114171
0.00114169
0.00114168
0.00114166
0.00114164
0.00114162
0.00114159
0.00114157
0.00114155
0.0011415
0.00114162
0.00114178
0.00114231
0.00114272
0.00114296
0.00114308
0.00114315
0.00114321
0.00114325
0.00114328
0.00114331
0.00114332
0.00114334
0.00114335
0.00114335
0.00114336
0.00114336
0.00114336
0.00114336
0.00114337
0.00114336
0.00114336
0.00114335
0.00114335
0.00114334
0.00114334
0.00114334
0.00114333
0.00114332
0.00114331
0.0011433
0.0011433
0.00114329
0.00114328
0.00114327
0.00114326
0.00114325
0.00114324
0.00114323
0.00114322
0.0011432
0.00114319
0.00114318
0.00114317
0.00114315
0.00114314
0.00114313
0.00114311
0.0011431
0.00114309
0.00114308
0.00114307
0.00114306
0.00114304
0.00114302
0.00114301
0.001143
0.00114299
0.00114298
0.00114297
0.00114296
0.00114294
0.00114293
0.00114291
0.0011429
0.00114289
0.00114288
0.00114288
0.00114286
0.00114285
0.00114284
0.00114283
0.00114282
0.00114281
0.00114279
0.00114278
0.00114278
0.00114277
0.00114278
0.0011426
0.0011424
0.00114225
0.00114215
0.001142
0.00114182
0.00114164
0.0011415
0.00114137
0.00114127
0.00114117
0.0011411
0.00114103
0.00114096
0.0011409
0.00114086
0.0011408
0.00114075
0.00114072
0.00114061
0.00109007
0.00109026
0.0010903
0.00109031
0.0010903
0.0010903
0.00109028
0.00109026
0.00109025
0.00109023
0.00109021
0.0010902
0.00109018
0.00109015
0.00109014
0.00109011
0.00109009
0.00109007
0.00109005
0.00109002
0.00108998
0.00109002
0.00109009
0.00109034
0.00109063
0.00109086
0.00109102
0.00109113
0.00109121
0.00109127
0.00109131
0.00109135
0.00109138
0.0010914
0.00109142
0.00109145
0.00109146
0.00109147
0.00109147
0.00109148
0.00109149
0.00109149
0.00109149
0.00109149
0.00109149
0.00109149
0.00109149
0.00109149
0.00109149
0.00109149
0.00109148
0.00109148
0.00109147
0.00109146
0.00109146
0.00109145
0.00109144
0.00109144
0.00109143
0.00109143
0.00109142
0.00109141
0.0010914
0.00109139
0.00109138
0.00109137
0.00109136
0.00109135
0.00109134
0.00109133
0.00109132
0.0010913
0.00109129
0.00109128
0.00109127
0.00109126
0.00109125
0.00109124
0.00109123
0.00109122
0.00109121
0.0010912
0.00109119
0.00109118
0.00109117
0.00109116
0.00109115
0.00109114
0.00109113
0.00109112
0.00109111
0.0010911
0.00109109
0.00109108
0.00109107
0.00109106
0.00109106
0.00109105
0.00109104
0.00109104
0.00109097
0.00109085
0.00109073
0.00109064
0.00109053
0.00109041
0.00109026
0.00109014
0.00109002
0.00108992
0.00108983
0.00108975
0.00108968
0.00108961
0.00108955
0.00108949
0.00108944
0.00108939
0.00108934
0.00108924
0.00104097
0.00104113
0.00104116
0.00104116
0.00104116
0.00104115
0.00104114
0.00104112
0.00104111
0.00104109
0.00104107
0.00104105
0.00104103
0.00104102
0.00104099
0.00104098
0.00104095
0.00104093
0.0010409
0.00104089
0.00104085
0.00104086
0.00104087
0.00104098
0.00104116
0.00104133
0.00104147
0.00104158
0.00104167
0.00104174
0.0010418
0.00104184
0.00104188
0.00104191
0.00104194
0.00104196
0.00104198
0.001042
0.00104201
0.00104202
0.00104203
0.00104204
0.00104205
0.00104205
0.00104205
0.00104206
0.00104206
0.00104206
0.00104206
0.00104205
0.00104205
0.00104206
0.00104206
0.00104205
0.00104205
0.00104204
0.00104204
0.00104203
0.00104202
0.00104202
0.00104201
0.00104201
0.001042
0.001042
0.00104199
0.00104198
0.00104197
0.00104196
0.00104195
0.00104194
0.00104194
0.00104193
0.00104192
0.00104191
0.0010419
0.00104189
0.00104188
0.00104187
0.00104186
0.00104185
0.00104185
0.00104184
0.00104183
0.00104182
0.00104181
0.00104181
0.0010418
0.00104179
0.00104178
0.00104178
0.00104177
0.00104176
0.00104175
0.00104174
0.00104174
0.00104173
0.00104172
0.00104171
0.00104171
0.00104171
0.00104167
0.00104161
0.00104153
0.00104146
0.00104138
0.00104128
0.00104118
0.00104108
0.00104098
0.00104089
0.00104081
0.00104073
0.00104066
0.00104059
0.00104053
0.00104047
0.00104042
0.00104037
0.00104033
0.00104022
0.000994145
0.000994291
0.000994316
0.000994319
0.000994306
0.000994301
0.000994288
0.000994275
0.000994255
0.000994242
0.000994221
0.000994208
0.000994187
0.000994166
0.000994145
0.000994131
0.00099411
0.000994088
0.000994067
0.000994045
0.000994023
0.000994008
0.000994
0.000994046
0.000994129
0.000994244
0.000994351
0.000994451
0.000994528
0.000994598
0.000994653
0.000994701
0.000994741
0.000994773
0.000994805
0.00099483
0.000994846
0.000994871
0.000994887
0.000994896
0.000994913
0.000994922
0.00099493
0.000994939
0.000994947
0.000994948
0.000994957
0.000994957
0.000994958
0.000994958
0.000994966
0.000994967
0.000994959
0.00099496
0.00099496
0.00099496
0.000994952
0.000994953
0.000994945
0.000994945
0.000994937
0.000994937
0.000994929
0.000994921
0.000994921
0.000994913
0.000994905
0.000994897
0.000994897
0.000994889
0.000994881
0.000994873
0.000994864
0.000994856
0.000994848
0.00099484
0.000994839
0.000994831
0.000994822
0.000994814
0.000994806
0.000994797
0.000994789
0.000994788
0.000994779
0.000994771
0.000994762
0.000994754
0.000994753
0.000994744
0.000994736
0.000994727
0.000994726
0.000994718
0.000994709
0.000994708
0.000994699
0.000994691
0.000994682
0.000994681
0.000994665
0.000994634
0.000994587
0.000994533
0.000994479
0.000994409
0.000994339
0.000994254
0.000994176
0.000994098
0.000994027
0.000993956
0.000993893
0.000993829
0.000993773
0.000993724
0.000993668
0.000993619
0.000993585
0.000993474
0.00094952
0.000949652
0.000949675
0.000949671
0.00094966
0.000949649
0.000949637
0.000949626
0.000949615
0.000949597
0.000949578
0.00094956
0.000949548
0.000949529
0.00094951
0.000949491
0.000949472
0.000949453
0.000949433
0.000949413
0.000949394
0.000949374
0.00094936
0.000949367
0.000949409
0.00094947
0.000949539
0.000949615
0.000949678
0.000949734
0.000949783
0.000949832
0.000949868
0.000949903
0.000949932
0.000949961
0.000949982
0.000949997
0.000950019
0.000950034
0.000950048
0.000950056
0.000950071
0.000950078
0.000950086
0.000950093
0.000950101
0.000950101
0.000950108
0.000950109
0.000950109
0.000950116
0.000950116
0.000950117
0.000950117
0.000950117
0.00095011
0.00095011
0.00095011
0.00095011
0.000950103
0.000950103
0.000950096
0.000950095
0.000950088
0.000950081
0.000950081
0.000950074
0.000950066
0.000950066
0.000950059
0.000950051
0.000950044
0.000950043
0.000950036
0.000950028
0.000950021
0.000950013
0.000950013
0.000950005
0.000949998
0.00094999
0.000949982
0.000949982
0.000949974
0.000949966
0.000949959
0.000949958
0.00094995
0.000949942
0.000949942
0.000949934
0.000949926
0.000949925
0.000949917
0.000949909
0.000949909
0.000949901
0.0009499
0.000949892
0.000949884
0.00094987
0.000949841
0.000949806
0.000949764
0.000949715
0.000949666
0.000949603
0.000949547
0.000949484
0.00094942
0.000949363
0.000949306
0.000949256
0.000949199
0.000949155
0.000949104
0.00094906
0.000949023
0.000948923
0.000907004
0.000907117
0.000907138
0.000907135
0.000907125
0.000907115
0.000907105
0.000907095
0.000907079
0.000907063
0.000907052
0.000907036
0.000907019
0.000907002
0.000906986
0.000906968
0.000906951
0.000906934
0.000906916
0.000906899
0.000906875
0.000906857
0.000906839
0.000906833
0.000906846
0.000906877
0.000906921
0.000906964
0.000907014
0.000907058
0.000907102
0.00090714
0.000907172
0.000907204
0.00090723
0.000907255
0.000907275
0.000907294
0.000907314
0.000907327
0.00090734
0.000907353
0.000907366
0.000907373
0.000907379
0.000907386
0.000907392
0.000907399
0.000907405
0.000907406
0.000907412
0.000907412
0.000907419
0.000907419
0.000907419
0.000907419
0.000907419
0.000907419
0.000907419
0.000907413
0.000907412
0.000907412
0.000907406
0.000907406
0.000907405
0.000907399
0.000907399
0.000907392
0.000907386
0.000907385
0.000907379
0.000907372
0.000907372
0.000907365
0.000907358
0.000907358
0.000907351
0.000907344
0.000907344
0.000907337
0.00090733
0.000907323
0.000907322
0.000907315
0.000907308
0.000907308
0.000907301
0.000907294
0.000907293
0.000907286
0.000907285
0.000907278
0.000907271
0.00090727
0.000907263
0.000907263
0.000907255
0.000907248
0.000907247
0.00090724
0.00090724
0.000907226
0.000907213
0.000907188
0.000907162
0.00090713
0.000907092
0.000907054
0.000907003
0.000906959
0.000906908
0.000906863
0.000906811
0.000906766
0.000906721
0.000906681
0.000906636
0.000906596
0.000906562
0.000906473
0.000866506
0.000866602
0.000866621
0.000866618
0.000866609
0.000866601
0.000866592
0.000866578
0.000866569
0.000866554
0.000866539
0.000866525
0.00086651
0.000866495
0.00086648
0.000866464
0.000866449
0.000866433
0.000866417
0.000866402
0.000866386
0.000866364
0.000866348
0.000866337
0.000866337
0.000866343
0.000866366
0.000866394
0.000866423
0.000866457
0.000866485
0.000866514
0.000866543
0.000866571
0.000866594
0.000866612
0.000866635
0.000866652
0.000866664
0.000866681
0.000866693
0.000866705
0.000866716
0.000866722
0.000866734
0.00086674
0.000866746
0.000866751
0.000866757
0.000866763
0.000866763
0.000866769
0.000866769
0.000866775
0.000866775
0.000866775
0.000866775
0.000866775
0.000866775
0.000866775
0.000866775
0.000866774
0.000866769
0.000866768
0.000866768
0.000866762
0.000866762
0.000866756
0.000866756
0.00086675
0.00086675
0.000866744
0.000866743
0.000866737
0.000866737
0.000866731
0.000866725
0.000866724
0.000866718
0.000866712
0.000866711
0.000866705
0.000866699
0.000866698
0.000866692
0.000866691
0.000866685
0.000866679
0.000866678
0.000866672
0.000866671
0.000866665
0.000866664
0.000866658
0.000866657
0.000866651
0.00086665
0.000866643
0.000866643
0.000866636
0.000866635
0.000866629
0.000866617
0.000866605
0.000866587
0.000866564
0.000866541
0.000866506
0.000866477
0.000866437
0.000866402
0.000866362
0.000866327
0.000866286
0.00086625
0.000866209
0.000866174
0.000866138
0.000866113
0.000866026
0.000827924
0.000828011
0.000828029
0.000828026
0.000828018
0.000828011
0.000828003
0.000827995
0.000827982
0.000827969
0.000827956
0.000827947
0.000827934
0.00082792
0.000827907
0.000827893
0.000827879
0.00082786
0.000827846
0.000827832
0.000827817
0.000827803
0.000827783
0.000827773
0.000827764
0.000827759
0.000827765
0.00082778
0.000827796
0.000827817
0.000827837
0.000827863
0.000827884
0.0008279
0.00082792
0.000827936
0.000827957
0.000827967
0.000827983
0.000827998
0.000828009
0.00082802
0.000828025
0.000828035
0.000828046
0.000828051
0.000828056
0.000828062
0.000828067
0.000828072
0.000828077
0.000828077
0.000828083
0.000828083
0.000828083
0.000828088
0.000828088
0.000828088
0.000828088
0.000828088
0.000828088
0.000828088
0.000828087
0.000828087
0.000828082
0.000828082
0.000828082
0.000828077
0.000828076
0.000828071
0.000828071
0.000828065
0.000828065
0.00082806
0.000828059
0.000828054
0.000828053
0.000828048
0.000828047
0.000828042
0.000828036
0.000828036
0.00082803
0.00082803
0.000828024
0.000828023
0.000828018
0.000828017
0.000828012
0.000828011
0.000828005
0.000828005
0.000827999
0.000827998
0.000827992
0.000827992
0.000827986
0.000827985
0.000827984
0.000827979
0.000827978
0.000827972
0.000827966
0.000827955
0.000827944
0.000827933
0.000827912
0.000827891
0.00082787
0.000827843
0.000827812
0.000827785
0.000827753
0.000827722
0.00082769
0.000827662
0.00082763
0.000827598
0.000827576
0.000827497
0.000791171
0.000791249
0.000791265
0.000791262
0.00079126
0.000791253
0.000791246
0.000791239
0.000791227
0.000791215
0.000791208
0.000791196
0.000791184
0.000791172
0.000791159
0.000791147
0.000791134
0.000791122
0.000791109
0.000791096
0.000791083
0.000791065
0.000791052
0.000791039
0.00079103
0.000791021
0.000791017
0.000791022
0.000791032
0.000791042
0.000791056
0.00079107
0.000791084
0.000791098
0.000791113
0.000791127
0.000791136
0.000791151
0.00079116
0.000791174
0.000791184
0.000791193
0.000791198
0.000791208
0.000791212
0.000791222
0.000791227
0.000791231
0.000791236
0.000791241
0.000791241
0.000791246
0.00079125
0.000791251
0.000791255
0.000791255
0.000791255
0.000791255
0.000791255
0.000791256
0.000791256
0.000791255
0.000791255
0.000791255
0.000791255
0.000791255
0.000791251
0.00079125
0.00079125
0.000791245
0.000791245
0.000791245
0.00079124
0.00079124
0.000791235
0.000791235
0.00079123
0.000791229
0.000791225
0.000791224
0.000791219
0.000791219
0.000791214
0.000791213
0.000791208
0.000791208
0.000791203
0.000791202
0.000791202
0.000791196
0.000791196
0.000791191
0.00079119
0.000791185
0.000791184
0.000791184
0.000791178
0.000791178
0.000791172
0.000791172
0.000791171
0.000791166
0.00079116
0.000791155
0.00079115
0.00079114
0.000791125
0.000791111
0.000791096
0.000791076
0.000791057
0.000791033
0.000791008
0.000790984
0.00079096
0.000790935
0.00079091
0.000790881
0.000790865
0.000790794
0.000756154
0.000756229
0.000756243
0.000756241
0.000756239
0.000756232
0.000756226
0.000756219
0.000756213
0.000756202
0.000756196
0.000756185
0.000756174
0.000756163
0.000756156
0.000756144
0.000756133
0.000756121
0.00075611
0.000756098
0.000756086
0.00075607
0.000756058
0.000756046
0.000756034
0.000756026
0.000756018
0.000756019
0.000756019
0.000756024
0.000756028
0.000756037
0.000756046
0.000756055
0.000756068
0.000756076
0.000756085
0.000756094
0.000756103
0.000756111
0.00075612
0.000756128
0.000756133
0.000756141
0.000756146
0.00075615
0.000756155
0.000756159
0.000756163
0.000756168
0.000756172
0.000756172
0.000756177
0.000756181
0.000756181
0.000756181
0.000756186
0.000756186
0.000756186
0.000756186
0.000756186
0.000756186
0.000756186
0.000756186
0.000756186
0.000756186
0.000756186
0.000756182
0.000756182
0.000756182
0.000756177
0.000756177
0.000756177
0.000756173
0.000756173
0.000756168
0.000756168
0.000756168
0.000756163
0.000756163
0.000756159
0.000756158
0.000756154
0.000756153
0.000756153
0.000756148
0.000756148
0.000756143
0.000756143
0.000756142
0.000756138
0.000756137
0.000756137
0.000756132
0.000756132
0.000756127
0.000756126
0.000756126
0.000756121
0.00075612
0.00075612
0.000756115
0.000756114
0.000756109
0.000756104
0.000756095
0.00075609
0.000756077
0.000756068
0.000756054
0.000756036
0.000756023
0.000756001
0.000755983
0.000755964
0.000755942
0.000755924
0.000755901
0.000755887
0.000755823
0.000722789
0.000722853
0.000722865
0.000722867
0.000722865
0.000722863
0.000722857
0.000722851
0.000722845
0.000722839
0.000722829
0.000722823
0.000722813
0.000722803
0.000722796
0.000722786
0.000722776
0.000722765
0.000722755
0.000722748
0.000722733
0.000722722
0.000722712
0.000722701
0.00072269
0.000722682
0.000722671
0.000722668
0.000722665
0.000722665
0.000722665
0.00072267
0.000722674
0.000722678
0.000722686
0.00072269
0.000722698
0.000722706
0.00072271
0.000722718
0.000722722
0.00072273
0.000722734
0.000722739
0.000722746
0.00072275
0.000722754
0.000722759
0.000722759
0.000722763
0.000722767
0.000722767
0.000722771
0.000722775
0.000722776
0.000722776
0.00072278
0.00072278
0.00072278
0.00072278
0.000722781
0.000722781
0.000722781
0.000722781
0.000722781
0.000722781
0.000722781
0.000722778
0.000722778
0.000722778
0.000722777
0.000722774
0.000722774
0.000722774
0.00072277
0.00072277
0.000722769
0.000722766
0.000722765
0.000722765
0.000722761
0.000722761
0.000722757
0.000722757
0.000722756
0.000722752
0.000722752
0.000722751
0.000722747
0.000722747
0.000722746
0.000722742
0.000722742
0.000722741
0.000722737
0.000722737
0.000722736
0.000722736
0.000722731
0.000722731
0.00072273
0.000722726
0.000722725
0.000722721
0.000722716
0.000722712
0.000722707
0.000722699
0.00072269
0.000722682
0.000722669
0.000722657
0.000722644
0.000722631
0.000722615
0.000722598
0.000722581
0.000722565
0.000722552
0.000722497
0.00069098
0.000691038
0.000691053
0.000691054
0.000691052
0.00069105
0.000691045
0.000691042
0.000691037
0.000691031
0.000691026
0.000691017
0.000691011
0.000691002
0.000690996
0.000690986
0.00069098
0.00069097
0.000690961
0.000690954
0.000690945
0.000690935
0.000690925
0.000690915
0.000690905
0.000690895
0.000690885
0.000690878
0.000690875
0.000690872
0.000690869
0.000690869
0.00069087
0.000690874
0.000690877
0.000690881
0.000690885
0.000690889
0.000690893
0.000690897
0.000690901
0.000690904
0.000690908
0.000690912
0.000690916
0.00069092
0.000690923
0.000690927
0.000690931
0.000690931
0.000690935
0.000690939
0.000690939
0.00069094
0.000690943
0.000690944
0.000690944
0.000690948
0.000690948
0.000690948
0.000690949
0.000690949
0.000690949
0.00069095
0.00069095
0.00069095
0.00069095
0.000690947
0.000690947
0.000690947
0.000690947
0.000690944
0.000690944
0.000690944
0.000690944
0.00069094
0.00069094
0.00069094
0.000690937
0.000690937
0.000690937
0.000690933
0.000690933
0.000690933
0.000690929
0.000690929
0.000690928
0.000690928
0.000690924
0.000690924
0.000690924
0.00069092
0.00069092
0.000690919
0.000690919
0.000690915
0.000690915
0.000690914
0.000690914
0.00069091
0.000690909
0.000690909
0.000690905
0.000690904
0.0006909
0.000690899
0.000690895
0.000690887
0.000690883
0.000690875
0.000690867
0.000690859
0.000690848
0.000690836
0.000690824
0.000690813
0.000690797
0.000690782
0.000690776
0.000690724
0.00066065
0.000660699
0.000660712
0.000660713
0.000660714
0.000660712
0.00066071
0.000660705
0.000660703
0.000660697
0.000660692
0.000660687
0.000660681
0.000660673
0.000660667
0.000660662
0.000660653
0.000660647
0.000660638
0.000660632
0.000660623
0.000660614
0.000660605
0.000660599
0.00066059
0.000660581
0.000660571
0.000660565
0.000660559
0.000660553
0.000660551
0.000660551
0.000660548
0.000660549
0.000660549
0.00066055
0.000660553
0.000660557
0.000660557
0.000660561
0.000660564
0.000660565
0.000660568
0.000660572
0.000660575
0.000660576
0.00066058
0.000660583
0.000660584
0.000660587
0.000660588
0.000660591
0.000660592
0.000660592
0.000660596
0.000660596
0.000660597
0.000660597
0.000660601
0.000660601
0.000660601
0.000660602
0.000660602
0.000660603
0.000660603
0.000660603
0.0006606
0.000660601
0.000660601
0.000660601
0.000660601
0.000660598
0.000660598
0.000660599
0.000660599
0.000660596
0.000660596
0.000660596
0.000660593
0.000660593
0.000660593
0.000660593
0.000660589
0.000660589
0.000660589
0.000660589
0.000660586
0.000660585
0.000660585
0.000660585
0.000660582
0.000660581
0.000660581
0.000660581
0.00066058
0.000660577
0.000660577
0.000660576
0.000660576
0.000660572
0.000660572
0.000660571
0.000660568
0.000660567
0.000660566
0.000660563
0.000660559
0.000660555
0.000660551
0.000660547
0.00066054
0.000660532
0.000660525
0.000660517
0.000660507
0.000660499
0.000660488
0.000660474
0.000660469
0.000660424
0.000631706
0.00063175
0.000631762
0.000631763
0.000631764
0.000631764
0.000631762
0.00063176
0.000631758
0.000631753
0.000631751
0.000631746
0.000631741
0.000631736
0.000631731
0.000631725
0.00063172
0.000631712
0.000631707
0.000631701
0.000631693
0.000631684
0.000631679
0.00063167
0.000631662
0.000631656
0.000631648
0.000631642
0.000631634
0.000631628
0.000631625
0.000631623
0.00063162
0.000631618
0.000631618
0.000631616
0.000631616
0.00063162
0.00063162
0.000631621
0.000631621
0.000631624
0.000631625
0.000631628
0.000631629
0.000631632
0.000631633
0.000631636
0.000631637
0.000631638
0.000631641
0.000631642
0.000631642
0.000631646
0.000631646
0.000631647
0.000631647
0.000631648
0.000631651
0.000631652
0.000631652
0.000631653
0.000631653
0.000631654
0.000631651
0.000631652
0.000631652
0.000631653
0.000631653
0.000631653
0.000631651
0.000631651
0.000631651
0.000631651
0.000631652
0.000631649
0.000631649
0.000631649
0.000631649
0.000631647
0.000631647
0.000631647
0.000631647
0.000631644
0.000631644
0.000631644
0.000631644
0.000631644
0.000631641
0.00063164
0.00063164
0.00063164
0.00063164
0.000631637
0.000631636
0.000631636
0.000631636
0.000631635
0.000631632
0.000631632
0.000631631
0.000631631
0.000631628
0.000631627
0.000631627
0.000631623
0.000631623
0.000631619
0.000631615
0.000631612
0.000631608
0.000631601
0.000631597
0.00063159
0.000631583
0.000631573
0.000631566
0.000631556
0.000631551
0.000631513
0.000604076
0.000604115
0.000604123
0.000604126
0.000604129
0.000604127
0.000604127
0.000604125
0.000604123
0.000604121
0.000604119
0.000604114
0.000604109
0.000604107
0.000604102
0.000604097
0.000604092
0.000604087
0.000604082
0.000604077
0.00060407
0.000604064
0.000604059
0.000604051
0.000604046
0.000604038
0.00060403
0.000604025
0.00060402
0.000604015
0.00060401
0.000604005
0.000604002
0.000604
0.000603998
0.000603996
0.000603996
0.000603996
0.000603994
0.000603995
0.000603995
0.000603999
0.000603999
0.000604
0.000604001
0.000604001
0.000604004
0.000604005
0.000604006
0.000604007
0.00060401
0.000604011
0.000604011
0.000604012
0.000604013
0.000604013
0.000604017
0.000604017
0.000604018
0.000604019
0.000604019
0.00060402
0.00060402
0.000604021
0.000604019
0.00060402
0.00060402
0.000604021
0.000604021
0.000604021
0.000604019
0.00060402
0.00060402
0.00060402
0.000604021
0.000604018
0.000604019
0.000604019
0.000604019
0.000604019
0.000604017
0.000604017
0.000604017
0.000604017
0.000604017
0.000604015
0.000604014
0.000604014
0.000604014
0.000604014
0.000604014
0.000604014
0.000604011
0.000604011
0.000604011
0.000604011
0.00060401
0.00060401
0.000604007
0.000604007
0.000604006
0.000604006
0.000604003
0.000604003
0.000604002
0.000603999
0.000603998
0.000603995
0.000603994
0.000603991
0.000603988
0.000603984
0.000603978
0.000603974
0.000603967
0.000603961
0.000603954
0.000603947
0.000603943
0.000603911
0.000577679
0.000577712
0.000577721
0.000577724
0.000577726
0.000577727
0.000577727
0.000577727
0.000577725
0.000577723
0.00057772
0.000577718
0.000577714
0.000577711
0.000577707
0.000577702
0.0005777
0.000577695
0.00057769
0.000577685
0.000577681
0.000577676
0.000577671
0.000577664
0.000577659
0.000577654
0.000577647
0.000577642
0.000577637
0.000577632
0.000577627
0.000577623
0.000577618
0.000577616
0.000577614
0.000577612
0.00057761
0.000577608
0.000577608
0.000577607
0.000577607
0.000577608
0.000577608
0.000577609
0.00057761
0.000577611
0.000577611
0.000577612
0.000577613
0.000577614
0.000577615
0.000577616
0.000577616
0.000577619
0.00057762
0.000577621
0.000577622
0.000577623
0.000577623
0.000577624
0.000577625
0.000577626
0.000577624
0.000577625
0.000577625
0.000577626
0.000577627
0.000577627
0.000577628
0.000577626
0.000577626
0.000577627
0.000577627
0.000577628
0.000577626
0.000577626
0.000577627
0.000577627
0.000577627
0.000577625
0.000577625
0.000577626
0.000577626
0.000577626
0.000577626
0.000577626
0.000577624
0.000577624
0.000577624
0.000577624
0.000577624
0.000577624
0.000577623
0.000577623
0.000577623
0.000577621
0.00057762
0.00057762
0.00057762
0.00057762
0.000577617
0.000577617
0.000577616
0.000577616
0.000577613
0.000577613
0.000577612
0.000577609
0.000577608
0.000577605
0.000577602
0.000577599
0.000577596
0.000577592
0.000577588
0.000577582
0.000577578
0.00057757
0.000577568
0.000577539
0.000552445
0.000552473
0.000552481
0.000552483
0.000552485
0.000552485
0.000552487
0.000552487
0.000552485
0.000552485
0.000552482
0.00055248
0.000552478
0.000552474
0.000552471
0.000552469
0.000552465
0.000552462
0.000552458
0.000552455
0.000552451
0.000552446
0.000552442
0.000552437
0.000552431
0.000552426
0.000552421
0.000552417
0.000552412
0.000552408
0.000552403
0.000552399
0.000552395
0.00055239
0.000552388
0.000552386
0.000552385
0.000552383
0.000552381
0.000552382
0.00055238
0.000552381
0.00055238
0.00055238
0.000552381
0.000552382
0.000552383
0.000552384
0.000552382
0.000552383
0.000552384
0.000552385
0.000552386
0.000552387
0.000552388
0.000552389
0.00055239
0.000552391
0.000552391
0.000552392
0.000552393
0.000552394
0.000552395
0.000552396
0.000552394
0.000552395
0.000552396
0.000552396
0.000552397
0.000552398
0.000552396
0.000552397
0.000552397
0.000552398
0.000552398
0.000552399
0.000552397
0.000552397
0.000552398
0.000552398
0.000552398
0.000552399
0.000552397
0.000552397
0.000552397
0.000552397
0.000552397
0.000552397
0.000552398
0.000552398
0.000552398
0.000552398
0.000552397
0.000552395
0.000552395
0.000552395
0.000552395
0.000552395
0.000552394
0.000552394
0.000552392
0.000552392
0.000552391
0.000552391
0.000552388
0.000552388
0.000552387
0.000552385
0.000552384
0.000552381
0.000552381
0.000552378
0.000552374
0.000552371
0.000552368
0.000552364
0.000552358
0.000552355
0.000552353
0.000552328
0.000528301
0.000528324
0.000528331
0.000528333
0.000528335
0.000528336
0.000528338
0.000528337
0.000528337
0.000528337
0.000528334
0.000528332
0.00052833
0.000528328
0.000528325
0.000528323
0.000528321
0.000528319
0.000528316
0.000528312
0.00052831
0.000528306
0.000528301
0.000528297
0.000528293
0.000528289
0.000528284
0.00052828
0.000528276
0.000528271
0.000528267
0.000528263
0.000528259
0.000528257
0.000528253
0.000528251
0.00052825
0.000528248
0.000528247
0.000528245
0.000528244
0.000528245
0.000528243
0.000528244
0.000528243
0.000528244
0.000528245
0.000528246
0.000528247
0.000528246
0.000528247
0.000528248
0.000528249
0.00052825
0.000528251
0.000528252
0.000528253
0.000528252
0.000528253
0.000528254
0.000528255
0.000528256
0.000528256
0.000528257
0.000528256
0.000528257
0.000528258
0.000528259
0.000528259
0.00052826
0.000528259
0.000528259
0.00052826
0.000528261
0.000528261
0.000528262
0.00052826
0.000528261
0.000528261
0.000528262
0.000528262
0.000528262
0.000528263
0.000528263
0.000528261
0.000528261
0.000528262
0.000528262
0.000528262
0.000528262
0.000528262
0.000528262
0.000528262
0.000528262
0.000528262
0.000528262
0.000528262
0.000528262
0.00052826
0.000528259
0.000528259
0.000528259
0.000528259
0.000528256
0.000528256
0.000528256
0.000528253
0.000528253
0.000528252
0.00052825
0.000528249
0.000528246
0.000528245
0.000528242
0.000528239
0.000528236
0.000528232
0.000528227
0.000528225
0.000528204
0.000505183
0.0005052
0.000505206
0.000505209
0.000505211
0.000505212
0.000505213
0.000505212
0.000505214
0.000505213
0.000505211
0.00050521
0.000505208
0.000505206
0.000505205
0.000505203
0.000505201
0.000505199
0.000505196
0.000505194
0.00050519
0.000505188
0.000505184
0.000505182
0.000505178
0.000505174
0.00050517
0.000505167
0.000505163
0.000505159
0.000505156
0.000505152
0.000505148
0.000505144
0.000505142
0.000505139
0.000505137
0.000505136
0.000505135
0.000505133
0.000505132
0.000505133
0.000505132
0.000505131
0.000505132
0.000505133
0.000505132
0.000505133
0.000505134
0.000505133
0.000505134
0.000505135
0.000505136
0.000505137
0.000505137
0.000505138
0.000505139
0.00050514
0.000505141
0.000505142
0.000505141
0.000505142
0.000505143
0.000505144
0.000505145
0.000505144
0.000505145
0.000505146
0.000505147
0.000505147
0.000505148
0.000505147
0.000505148
0.000505148
0.000505149
0.00050515
0.00050515
0.000505151
0.00050515
0.00050515
0.00050515
0.000505151
0.000505151
0.000505152
0.000505152
0.000505152
0.000505152
0.000505153
0.000505153
0.000505153
0.000505153
0.000505153
0.000505153
0.000505153
0.000505153
0.000505151
0.000505151
0.000505151
0.000505151
0.000505151
0.000505151
0.00050515
0.000505148
0.000505148
0.000505148
0.000505147
0.000505145
0.000505145
0.000505144
0.000505144
0.000505141
0.00050514
0.000505138
0.000505135
0.000505132
0.000505131
0.000505127
0.000505122
0.000505121
0.000505104
0.000483025
0.000483039
0.000483043
0.000483046
0.000483048
0.000483049
0.00048305
0.000483051
0.00048305
0.000483051
0.000483049
0.000483048
0.000483047
0.000483045
0.000483044
0.000483042
0.000483041
0.000483039
0.000483037
0.000483035
0.000483033
0.000483031
0.000483027
0.000483025
0.000483023
0.000483019
0.000483015
0.000483013
0.000483009