/*--------------------------------*- C++ -*----------------------------------*\
  =========                 |
  \\      /  F ield         | OpenFOAM: The Open Source CFD Toolbox
   \\    /   O peration     | Website:  https://openfoam.org
    \\  /    A nd           | Version:  7
     \\/     M anipulation  |
\*---------------------------------------------------------------------------*/
FoamFile
{
    version     2.0;
    format      ascii;
    class       surfaceScalarField;
    location    "19000";
    object      phi;
}
// * * * * * * * * * * * * * * * * * * * * * * * * * * * * * * * * * * * * * //

dimensions      [0 3 -1 0 0 0 0];

internalField   nonuniform List<scalar> 
7768
(
0.000338883
-5.92541e-10
0.000338884
-7.74513e-10
0.000338884
-6.67574e-10
0.000338884
-5.03567e-10
0.000338884
-3.55622e-10
0.000338884
-2.33628e-10
0.000338885
-1.34258e-10
0.000338885
-5.26854e-11
0.000338885
1.69182e-11
0.000338885
7.73171e-11
0.000338885
1.29636e-10
0.000338885
1.75685e-10
0.000338886
2.18097e-10
0.000338886
2.56808e-10
0.000338886
2.91495e-10
0.000338886
3.242e-10
0.000338886
3.59398e-10
0.000338886
3.93868e-10
0.000338887
4.46633e-10
0.000338887
5.11181e-10
6.78612e-10
0.000338879
-5.01853e-10
0.000338879
-5.65586e-10
0.00033888
-5.79076e-10
0.00033888
-5.73133e-10
0.00033888
-5.57431e-10
0.000338881
-5.30647e-10
0.000338881
-4.93749e-10
0.000338881
-4.44648e-10
0.000338882
-3.79179e-10
0.000338882
-2.94162e-10
0.000338882
-1.88622e-10
0.000338882
-4.7654e-11
0.000338882
1.27921e-10
0.000338883
3.65099e-10
0.000338883
7.4894e-10
3.00615e-10
0.000330275
-8.06845e-10
0.000330275
-9.73327e-10
0.000330275
-8.58676e-10
0.000330276
-6.94325e-10
0.000330276
-5.47963e-10
0.000330276
-4.27342e-10
0.000330276
-3.28388e-10
0.000330276
-2.44954e-10
0.000330277
-1.72314e-10
0.000330277
-1.08154e-10
0.000330277
-5.15392e-11
0.000330277
-1.58876e-12
0.000330277
4.57693e-11
0.000330277
8.98918e-11
0.000330278
1.30129e-10
0.000330278
1.68562e-10
0.000330278
2.09927e-10
0.000330278
2.50914e-10
0.000330278
3.15857e-10
0.000330278
3.93511e-10
0.000330278
6.10842e-10
0.000330278
8.59494e-10
1.02739e-09
0.00033027
-6.15737e-10
0.00033027
-6.42361e-10
0.00033027
-6.05932e-10
0.000330271
-7.22204e-10
0.000330271
-9.00289e-10
0.000330271
-9.25075e-10
0.000330272
-9.03435e-10
0.000330272
-8.72634e-10
0.000330272
-8.37022e-10
0.000330273
-7.94251e-10
0.000330273
-7.44437e-10
0.000330273
-6.83776e-10
0.000330273
-6.09633e-10
0.000330274
-5.1822e-10
0.000330274
-4.08899e-10
0.000330274
-2.65572e-10
0.000330274
-9.03932e-11
0.000330274
1.40558e-10
0.000330275
5.22004e-10
7.6879e-11
0.000321849
-1.00648e-09
0.00032185
-1.16816e-09
0.00032185
-1.04796e-09
0.00032185
-8.81192e-10
0.00032185
-7.34941e-10
0.00032185
-6.15747e-10
0.000321851
-5.16598e-10
0.000321851
-4.31336e-10
0.000321851
-3.56368e-10
0.000321851
-2.88835e-10
0.000321851
-2.28403e-10
0.000321852
-1.73917e-10
0.000321852
-1.21764e-10
0.000321852
-7.26446e-11
0.000321852
-2.71389e-11
0.000321852
1.67939e-11
0.000321852
6.31496e-11
0.000321852
1.10148e-10
0.000321853
1.82218e-10
0.000321853
2.72e-10
0.000321853
4.39136e-10
0.000321853
6.92324e-10
0.000321853
1.01272e-09
0.000321853
1.24637e-09
0.000321853
1.25622e-09
0.000321852
1.19173e-09
0.000321852
1.12913e-09
0.000321852
1.07899e-09
0.000321852
1.0389e-09
0.000321851
1.00575e-09
0.000321851
9.75655e-10
0.000321851
9.47384e-10
0.000321851
9.23036e-10
0.000321851
9.00501e-10
0.000321851
8.78902e-10
0.00032185
8.5976e-10
0.00032185
8.42111e-10
0.00032185
8.26475e-10
0.00032185
8.12218e-10
0.00032185
7.98665e-10
0.00032185
7.85855e-10
0.00032185
7.74387e-10
0.00032185
7.64389e-10
0.000321849
7.54724e-10
0.000321849
7.44421e-10
0.000321849
7.32948e-10
0.000321849
7.22423e-10
0.000321849
7.10196e-10
0.000321849
6.96152e-10
0.000321849
6.80757e-10
0.000321849
6.62121e-10
0.000321849
6.42612e-10
0.000321849
6.21673e-10
0.000321848
5.97815e-10
0.000321848
5.72034e-10
0.000321848
5.45084e-10
0.000321848
5.15557e-10
0.000321848
4.84778e-10
0.000321848
4.52854e-10
0.000321848
4.19992e-10
0.000321848
3.8488e-10
0.000321848
3.48688e-10
0.000321848
3.13002e-10
0.000321848
2.76254e-10
0.000321848
2.39841e-10
0.000321848
2.02583e-10
0.000321847
1.66194e-10
0.000321847
1.28696e-10
0.000321847
8.8856e-11
0.000321847
5.10321e-11
0.000321847
1.52688e-11
0.000321847
-2.1838e-11
0.000321847
-6.08673e-11
0.000321847
-9.89926e-11
0.000321847
-1.34759e-10
0.000321847
-1.69609e-10
0.000321847
-2.05588e-10
0.000321847
-2.40817e-10
0.000321847
-2.74326e-10
0.000321846
-3.07613e-10
0.000321846
-3.4048e-10
0.000321846
-3.7268e-10
0.000321846
-4.06538e-10
0.000321846
-4.40565e-10
0.000321846
-4.71003e-10
0.000321846
-4.97864e-10
0.000321846
-5.23389e-10
0.000321846
-5.48141e-10
0.000321846
-5.71498e-10
0.000321846
-5.9342e-10
0.000321846
-6.11395e-10
0.000321846
-6.26142e-10
0.000321846
-6.38446e-10
0.000321845
-6.45637e-10
0.000321845
-6.46548e-10
0.000321845
-6.40224e-10
0.000321845
-6.24893e-10
0.000321845
-5.96403e-10
0.000321845
-5.4291e-10
0.000321845
-6.45482e-10
0.000321845
-8.09142e-10
0.000321846
-8.2298e-10
0.000321846
-7.79201e-10
0.000321846
-8.94639e-10
0.000321846
-1.08856e-09
0.000321846
-1.13857e-09
0.000321847
-1.12664e-09
0.000321847
-1.09587e-09
0.000321847
-1.05683e-09
0.000321847
-1.00902e-09
0.000321847
-9.53755e-10
0.000321848
-8.86789e-10
0.000321848
-8.08609e-10
0.000321848
-7.14572e-10
0.000321848
-6.0319e-10
0.000321848
-4.60735e-10
0.000321849
-2.89116e-10
0.000321849
-6.69073e-11
0.000321849
3.08464e-10
-1.30124e-10
0.000313603
-1.18003e-09
0.000313603
-1.34615e-09
0.000313603
-1.22797e-09
0.000313603
-1.06079e-09
0.000313604
-9.14398e-10
0.000313604
-7.95089e-10
0.000313604
-6.95442e-10
0.000313604
-6.08848e-10
0.000313604
-5.31483e-10
0.000313604
-4.61298e-10
0.000313605
-3.97757e-10
0.000313605
-3.38374e-10
0.000313605
-2.82238e-10
0.000313605
-2.28749e-10
0.000313605
-1.78507e-10
0.000313605
-1.295e-10
0.000313605
-7.83462e-11
0.000313606
-2.58963e-11
0.000313606
4.90102e-11
0.000313606
1.47996e-10
0.000313606
2.6141e-10
0.000313606
4.63211e-10
0.000313607
7.76039e-10
0.000313607
1.08583e-09
0.000313607
1.26234e-09
0.000313607
1.29765e-09
0.000313606
1.27032e-09
0.000313606
1.22816e-09
0.000313606
1.1879e-09
0.000313606
1.15074e-09
0.000313606
1.11715e-09
0.000313606
1.08642e-09
0.000313606
1.05831e-09
0.000313605
1.03206e-09
0.000313605
1.00829e-09
0.000313605
9.85663e-10
0.000313605
9.64353e-10
0.000313605
9.4508e-10
0.000313605
9.27631e-10
0.000313605
9.11344e-10
0.000313605
8.95377e-10
0.000313604
8.81465e-10
0.000313604
8.69019e-10
0.000313604
8.56593e-10
0.000313604
8.43987e-10
0.000313604
8.30511e-10
0.000313604
8.16846e-10
0.000313604
8.02075e-10
0.000313604
7.86569e-10
0.000313604
7.68848e-10
0.000313604
7.49022e-10
0.000313604
7.29287e-10
0.000313603
7.06098e-10
0.000313603
6.80548e-10
0.000313603
6.53728e-10
0.000313603
6.24872e-10
0.000313603
5.95006e-10
0.000313603
5.63283e-10
0.000313603
5.30888e-10
0.000313603
4.97736e-10
0.000313603
4.60927e-10
0.000313603
4.2494e-10
0.000313603
3.89374e-10
0.000313603
3.51622e-10
0.000313603
3.1553e-10
0.000313602
2.77932e-10
0.000313602
2.40339e-10
0.000313602
2.02463e-10
0.000313602
1.63273e-10
0.000313602
1.25546e-10
0.000313602
8.8044e-11
0.000313602
5.01715e-11
0.000313602
1.25845e-11
0.000313602
-2.48851e-11
0.000313602
-6.12808e-11
0.000313602
-9.60695e-11
0.000313602
-1.30948e-10
0.000313602
-1.65837e-10
0.000313601
-2.00112e-10
0.000313601
-2.33217e-10
0.000313601
-2.65937e-10
0.000313601
-2.98384e-10
0.000313601
-3.32295e-10
0.000313601
-3.65184e-10
0.000313601
-3.95203e-10
0.000313601
-4.22908e-10
0.000313601
-4.48684e-10
0.000313601
-4.73371e-10
0.000313601
-4.96141e-10
0.000313601
-5.17033e-10
0.000313601
-5.35059e-10
0.000313601
-5.509e-10
0.0003136
-5.63908e-10
0.0003136
-5.71542e-10
0.0003136
-5.7416e-10
0.0003136
-5.69532e-10
0.0003136
-5.56306e-10
0.0003136
-5.38939e-10
0.0003136
-5.02305e-10
0.0003136
-6.22702e-10
0.0003136
-8.20346e-10
0.0003136
-8.76106e-10
0.0003136
-8.6467e-10
0.0003136
-9.73076e-10
0.0003136
-1.15333e-09
0.0003136
-1.22597e-09
0.000313601
-1.2401e-09
0.000313601
-1.2268e-09
0.000313601
-1.19959e-09
0.000313601
-1.15775e-09
0.000313601
-1.10494e-09
0.000313601
-1.04002e-09
0.000313601
-9.63749e-10
0.000313602
-8.71684e-10
0.000313602
-7.62182e-10
0.000313602
-6.24018e-10
0.000313602
-4.58837e-10
0.000313602
-2.48886e-10
0.000313602
1.16911e-10
-3.12571e-10
0.000305531
-1.32258e-09
0.000305532
-1.49863e-09
0.000305532
-1.39006e-09
0.000305532
-1.22726e-09
0.000305532
-1.08204e-09
0.000305532
-9.619e-10
0.000305532
-8.62182e-10
0.000305533
-7.74917e-10
0.000305533
-6.95125e-10
0.000305533
-6.23362e-10
0.000305533
-5.57385e-10
0.000305533
-4.94112e-10
0.000305533
-4.33906e-10
0.000305533
-3.7647e-10
0.000305534
-3.21825e-10
0.000305534
-2.68162e-10
0.000305534
-2.12654e-10
0.000305534
-1.55245e-10
0.000305534
-7.9907e-11
0.000305534
2.46534e-11
0.000305534
1.02394e-10
0.000305535
2.43045e-10
0.000305535
4.88265e-10
0.000305535
7.86522e-10
0.000305535
1.06862e-09
0.000305535
1.22273e-09
0.000305535
1.27363e-09
0.000305535
1.27262e-09
0.000305535
1.25441e-09
0.000305535
1.22871e-09
0.000305535
1.20126e-09
0.000305535
1.17565e-09
0.000305535
1.15095e-09
0.000305535
1.12588e-09
0.000305535
1.10272e-09
0.000305535
1.08038e-09
0.000305535
1.05895e-09
0.000305535
1.03888e-09
0.000305534
1.01958e-09
0.000305534
1.00211e-09
0.000305534
9.8613e-10
0.000305534
9.71416e-10
0.000305534
9.57278e-10
0.000305534
9.42552e-10
0.000305534
9.28825e-10
0.000305534
9.15188e-10
0.000305534
8.98919e-10
0.000305534
8.82201e-10
0.000305534
8.65579e-10
0.000305534
8.47188e-10
0.000305533
8.27719e-10
0.000305533
8.0657e-10
0.000305533
7.81494e-10
0.000305533
7.55786e-10
0.000305533
7.28644e-10
0.000305533
6.98867e-10
0.000305533
6.68625e-10
0.000305533
6.36047e-10
0.000305533
6.03853e-10
0.000305533
5.70462e-10
0.000305533
5.33457e-10
0.000305533
4.97989e-10
0.000305533
4.62265e-10
0.000305532
4.24346e-10
0.000305532
3.87754e-10
0.000305532
3.49776e-10
0.000305532
3.11857e-10
0.000305532
2.74862e-10
0.000305532
2.36395e-10
0.000305532
1.98005e-10
0.000305532
1.59909e-10
0.000305532
1.21702e-10
0.000305532
8.45699e-11
0.000305532
4.86032e-11
0.000305532
1.24983e-11
0.000305532
-2.27273e-11
0.000305532
-5.72681e-11
0.000305531
-9.19452e-11
0.000305531
-1.26272e-10
0.000305531
-1.58684e-10
0.000305531
-1.91291e-10
0.000305531
-2.2437e-10
0.000305531
-2.57794e-10
0.000305531
-2.88797e-10
0.000305531
-3.18243e-10
0.000305531
-3.47052e-10
0.000305531
-3.73216e-10
0.000305531
-3.98519e-10
0.000305531
-4.20501e-10
0.000305531
-4.40484e-10
0.00030553
-4.59043e-10
0.00030553
-4.75018e-10
0.00030553
-4.88197e-10
0.00030553
-4.95786e-10
0.00030553
-4.9947e-10
0.00030553
-4.97682e-10
0.00030553
-4.88698e-10
0.00030553
-4.79272e-10
0.00030553
-4.5632e-10
0.00030553
-5.66645e-10
0.00030553
-7.5324e-10
0.00030553
-8.36515e-10
0.00030553
-8.65576e-10
0.00030553
-9.77435e-10
0.00030553
-1.14132e-09
0.00030553
-1.22364e-09
0.00030553
-1.26066e-09
0.00030553
-1.27045e-09
0.00030553
-1.26239e-09
0.00030553
-1.23468e-09
0.00030553
-1.19211e-09
0.00030553
-1.13711e-09
0.00030553
-1.06819e-09
0.00030553
-9.82035e-10
0.00030553
-8.79448e-10
0.000305531
-7.492e-10
0.000305531
-5.92738e-10
0.000305531
-3.97821e-10
0.000305531
-4.68818e-11
-4.66853e-10
0.000297632
-1.4326e-09
0.000297632
-1.62061e-09
0.000297632
-1.52706e-09
0.000297632
-1.3744e-09
0.000297632
-1.23369e-09
0.000297632
-1.11417e-09
0.000297632
-1.01427e-09
0.000297633
-9.2727e-10
0.000297633
-8.46681e-10
0.000297633
-7.73606e-10
0.000297633
-7.05548e-10
0.000297633
-6.3899e-10
0.000297633
-5.74876e-10
0.000297633
-5.14033e-10
0.000297634
-4.55065e-10
0.000297634
-3.97205e-10
0.000297634
-3.38153e-10
0.000297634
-2.7628e-10
0.000297634
-2.01573e-10
0.000297634
-9.50346e-11
0.000297634
-3.69653e-11
0.000297634
5.35073e-11
0.000297635
2.23366e-10
0.000297635
4.63163e-10
0.000297635
7.74447e-10
0.000297636
1.01337e-09
0.000297636
1.14825e-09
0.000297636
1.20836e-09
0.000297636
1.22984e-09
0.000297636
1.23101e-09
0.000297636
1.22111e-09
0.000297636
1.20782e-09
0.000297636
1.19281e-09
0.000297636
1.17474e-09
0.000297636
1.15636e-09
0.000297636
1.1377e-09
0.000297635
1.11969e-09
0.000297635
1.10311e-09
0.000297635
1.08452e-09
0.000297635
1.06778e-09
0.000297635
1.05355e-09
0.000297635
1.03923e-09
0.000297635
1.02546e-09
0.000297635
1.01038e-09
0.000297635
9.95652e-10
0.000297635
9.82156e-10
0.000297635
9.66204e-10
0.000297635
9.48597e-10
0.000297635
9.31147e-10
0.000297635
9.13909e-10
0.000297635
8.95138e-10
0.000297634
8.72423e-10
0.000297634
8.47427e-10
0.000297634
8.21867e-10
0.000297634
7.94814e-10
0.000297634
7.64855e-10
0.000297634
7.34597e-10
0.000297634
7.02636e-10
0.000297634
6.69952e-10
0.000297634
6.36044e-10
0.000297634
6.0032e-10
0.000297634
5.65897e-10
0.000297634
5.29615e-10
0.000297634
4.92501e-10
0.000297634
4.56058e-10
0.000297634
4.17761e-10
0.000297633
3.8017e-10
0.000297633
3.44032e-10
0.000297633
3.06436e-10
0.000297633
2.67782e-10
0.000297633
2.30236e-10
0.000297633
1.92314e-10
0.000297633
1.55053e-10
0.000297633
1.1985e-10
0.000297633
8.42189e-11
0.000297633
4.97465e-11
0.000297633
1.53565e-11
0.000297633
-1.93342e-11
0.000297633
-5.32715e-11
0.000297633
-8.58567e-11
0.000297632
-1.18628e-10
0.000297632
-1.51401e-10
0.000297632
-1.83164e-10
0.000297632
-2.12819e-10
0.000297632
-2.42288e-10
0.000297632
-2.71278e-10
0.000297632
-2.97453e-10
0.000297632
-3.22235e-10
0.000297632
-3.4433e-10
0.000297632
-3.6543e-10
0.000297632
-3.84013e-10
0.000297632
-3.98816e-10
0.000297632
-4.11563e-10
0.000297631
-4.20101e-10
0.000297631
-4.24574e-10
0.000297631
-4.25347e-10
0.000297631
-4.20842e-10
0.000297631
-4.17397e-10
0.000297631
-4.05621e-10
0.000297631
-5.01535e-10
0.000297631
-6.61241e-10
0.000297631
-7.50244e-10
0.000297631
-8.07058e-10
0.000297631
-9.25177e-10
0.000297631
-1.07757e-09
0.000297631
-1.16166e-09
0.000297631
-1.21285e-09
0.000297631
-1.24339e-09
0.000297631
-1.25443e-09
0.000297631
-1.24484e-09
0.000297631
-1.2183e-09
0.000297631
-1.17716e-09
0.000297631
-1.11941e-09
0.000297631
-1.04364e-09
0.000297631
-9.50781e-10
0.000297631
-8.31868e-10
0.000297631
-6.89017e-10
0.000297631
-5.11219e-10
0.000297631
-1.78906e-10
-5.90207e-10
0.0002899
-1.51004e-09
0.0002899
-1.71054e-09
0.0002899
-1.63582e-09
0.0002899
-1.49825e-09
0.0002899
-1.36632e-09
0.0002899
-1.25016e-09
0.000289901
-1.1508e-09
0.000289901
-1.06428e-09
0.000289901
-9.84501e-10
0.000289901
-9.10523e-10
0.000289901
-8.4064e-10
0.000289901
-7.71124e-10
0.000289901
-7.03563e-10
0.000289902
-6.40174e-10
0.000289902
-5.78117e-10
0.000289902
-5.16732e-10
0.000289902
-4.53392e-10
0.000289902
-3.87366e-10
0.000289902
-3.14053e-10
0.000289902
-2.0907e-10
0.000289902
-1.5962e-10
0.000289902
-1.03141e-10
0.000289903
3.81032e-12
0.000289903
1.73003e-10
0.000289903
4.59946e-10
0.000289904
7.34599e-10
0.000289904
9.32064e-10
0.000289904
1.0527e-09
0.000289904
1.12131e-09
0.000289904
1.15854e-09
0.000289904
1.17602e-09
0.000289904
1.18225e-09
0.000289904
1.18202e-09
0.000289904
1.17573e-09
0.000289904
1.16725e-09
0.000289904
1.15674e-09
0.000289904
1.14387e-09
0.000289904
1.13328e-09
0.000289904
1.11999e-09
0.000289904
1.10608e-09
0.000289904
1.09408e-09
0.000289904
1.08224e-09
0.000289904
1.07101e-09
0.000289904
1.05732e-09
0.000289904
1.04305e-09
0.000289904
1.03053e-09
0.000289904
1.01597e-09
0.000289904
9.99553e-10
0.000289904
9.83474e-10
0.000289904
9.6666e-10
0.000289904
9.48519e-10
0.000289903
9.26317e-10
0.000289903
9.02475e-10
0.000289903
8.77381e-10
0.000289903
8.50732e-10
0.000289903
8.20959e-10
0.000289903
7.91254e-10
0.000289903
7.61698e-10
0.000289903
7.28844e-10
0.000289903
6.94223e-10
0.000289903
6.60441e-10
0.000289903
6.27229e-10
0.000289903
5.90809e-10
0.000289903
5.5458e-10
0.000289903
5.18595e-10
0.000289903
4.81525e-10
0.000289903
4.44969e-10
0.000289903
4.084e-10
0.000289902
3.71995e-10
0.000289902
3.34354e-10
0.000289902
2.96979e-10
0.000289902
2.59882e-10
0.000289902
2.23706e-10
0.000289902
1.8894e-10
0.000289902
1.53605e-10
0.000289902
1.19542e-10
0.000289902
8.50553e-11
0.000289902
5.17507e-11
0.000289902
1.86769e-11
0.000289902
-1.53258e-11
0.000289902
-4.84327e-11
0.000289902
-7.97926e-11
0.000289901
-1.09708e-10
0.000289901
-1.38619e-10
0.000289901
-1.67739e-10
0.000289901
-1.96109e-10
0.000289901
-2.21807e-10
0.000289901
-2.46253e-10
0.000289901
-2.6972e-10
0.000289901
-2.90795e-10
0.000289901
-3.08386e-10
0.000289901
-3.23664e-10
0.000289901
-3.35643e-10
0.000289901
-3.45053e-10
0.000289901
-3.51285e-10
0.000289901
-3.52862e-10
0.0002899
-3.51701e-10
0.0002899
-3.53684e-10
0.0002899
-3.51536e-10
0.0002899
-4.3467e-10
0.0002899
-5.66377e-10
0.0002899
-6.48791e-10
0.0002899
-7.16842e-10
0.0002899
-8.3705e-10
0.0002899
-9.79938e-10
0.0002899
-1.06222e-09
0.0002899
-1.12008e-09
0.0002899
-1.16452e-09
0.000289899
-1.19151e-09
0.000289899
-1.19998e-09
0.000289899
-1.19037e-09
0.000289899
-1.16413e-09
0.000289899
-1.11988e-09
0.000289899
-1.05828e-09
0.000289899
-9.78486e-10
0.000289899
-8.7249e-10
0.0002899
-7.46304e-10
0.0002899
-5.89294e-10
0.0002899
-2.77881e-10
-6.81081e-10
0.000282333
-1.55671e-09
0.000282333
-1.77116e-09
0.000282333
-1.71685e-09
0.000282333
-1.59666e-09
0.000282333
-1.47659e-09
0.000282333
-1.36729e-09
0.000282333
-1.27081e-09
0.000282334
-1.18585e-09
0.000282334
-1.10757e-09
0.000282334
-1.03286e-09
0.000282334
-9.61429e-10
0.000282334
-8.90608e-10
0.000282334
-8.20034e-10
0.000282334
-7.53856e-10
0.000282334
-6.89724e-10
0.000282335
-6.25459e-10
0.000282335
-5.58261e-10
0.000282335
-4.88684e-10
0.000282335
-4.16029e-10
0.000282335
-3.15139e-10
0.000282335
-2.68772e-10
0.000282335
-2.31793e-10
0.000282335
-1.70273e-10
0.000282336
-6.38793e-11
0.000282336
1.72422e-10
0.000282336
4.41689e-10
0.000282336
6.69988e-10
0.000282337
8.35927e-10
0.000282337
9.49154e-10
0.000282337
1.02409e-09
0.000282337
1.07241e-09
0.000282337
1.10252e-09
0.000282337
1.12211e-09
0.000282337
1.1313e-09
0.000282337
1.13543e-09
0.000282337
1.13684e-09
0.000282337
1.13273e-09
0.000282337
1.12945e-09
0.000282337
1.12405e-09
0.000282337
1.1156e-09
0.000282337
1.1079e-09
0.000282337
1.10071e-09
0.000282337
1.09241e-09
0.000282337
1.0813e-09
0.000282337
1.07033e-09
0.000282337
1.0599e-09
0.000282337
1.04769e-09
0.000282337
1.03441e-09
0.000282337
1.02021e-09
0.000282337
1.00418e-09
0.000282337
9.86888e-10
0.000282337
9.67362e-10
0.000282337
9.45844e-10
0.000282337
9.20956e-10
0.000282337
8.95037e-10
0.000282337
8.67314e-10
0.000282337
8.38975e-10
0.000282337
8.11074e-10
0.000282337
7.78592e-10
0.000282337
7.44619e-10
0.000282337
7.13055e-10
0.000282336
6.80622e-10
0.000282336
6.45723e-10
0.000282336
6.1087e-10
0.000282336
5.75203e-10
0.000282336
5.39832e-10
0.000282336
5.04616e-10
0.000282336
4.67345e-10
0.000282336
4.31899e-10
0.000282336
3.96209e-10
0.000282336
3.59744e-10
0.000282336
3.24401e-10
0.000282336
2.89095e-10
0.000282336
2.54203e-10
0.000282336
2.20381e-10
0.000282336
1.8628e-10
0.000282336
1.51443e-10
0.000282335
1.20146e-10
0.000282335
8.79545e-11
0.000282335
5.35844e-11
0.000282335
2.06642e-11
0.000282335
-9.32768e-12
0.000282335
-3.87389e-11
0.000282335
-6.78084e-11
0.000282335
-9.47562e-11
0.000282335
-1.21775e-10
0.000282335
-1.48019e-10
0.000282335
-1.72334e-10
0.000282335
-1.95938e-10
0.000282335
-2.16526e-10
0.000282335
-2.33603e-10
0.000282334
-2.50109e-10
0.000282334
-2.61723e-10
0.000282334
-2.70861e-10
0.000282334
-2.78511e-10
0.000282334
-2.81673e-10
0.000282334
-2.83297e-10
0.000282334
-2.88593e-10
0.000282334
-2.93998e-10
0.000282334
-3.67695e-10
0.000282334
-4.76537e-10
0.000282334
-5.48041e-10
0.000282334
-6.15559e-10
0.000282334
-7.3111e-10
0.000282333
-8.63129e-10
0.000282333
-9.42393e-10
0.000282333
-1.00121e-09
0.000282333
-1.05231e-09
0.000282333
-1.09079e-09
0.000282333
-1.11317e-09
0.000282333
-1.11861e-09
0.000282333
-1.10727e-09
0.000282333
-1.0779e-09
0.000282333
-1.03073e-09
0.000282333
-9.66094e-10
0.000282333
-8.753e-10
0.000282333
-7.6606e-10
0.000282333
-6.32039e-10
0.000282333
-3.444e-10
-7.40455e-10
0.000274927
-1.57474e-09
0.000274927
-1.80457e-09
0.000274927
-1.7711e-09
0.000274928
-1.66987e-09
0.000274928
-1.56385e-09
0.000274928
-1.46413e-09
0.000274928
-1.37392e-09
0.000274928
-1.29226e-09
0.000274928
-1.2153e-09
0.000274928
-1.14077e-09
0.000274928
-1.06819e-09
0.000274928
-9.96706e-10
0.000274928
-9.24593e-10
0.000274929
-8.55548e-10
0.000274929
-7.89042e-10
0.000274929
-7.2226e-10
0.000274929
-6.52666e-10
0.000274929
-5.80428e-10
0.000274929
-5.07834e-10
0.000274929
-4.10892e-10
0.000274929
-3.64873e-10
0.000274929
-3.38554e-10
0.000274929
-3.05698e-10
0.00027493
-2.47658e-10
0.00027493
-6.88991e-11
0.00027493
1.69882e-10
0.00027493
4.01214e-10
0.000274931
5.9127e-10
0.000274931
7.38053e-10
0.000274931
8.45846e-10
0.000274931
9.22694e-10
0.000274931
9.78408e-10
0.000274931
1.01987e-09
0.000274932
1.0466e-09
0.000274932
1.0651e-09
0.000274932
1.08038e-09
0.000274932
1.08888e-09
0.000274932
1.09386e-09
0.000274932
1.0975e-09
0.000274932
1.09751e-09
0.000274932
1.096e-09
0.000274932
1.09408e-09
0.000274932
1.08988e-09
0.000274932
1.08419e-09
0.000274932
1.07781e-09
0.000274932
1.07e-09
0.000274932
1.06141e-09
0.000274932
1.05178e-09
0.000274932
1.04087e-09
0.000274932
1.02732e-09
0.000274932
1.01098e-09
0.000274932
9.93807e-10
0.000274932
9.75637e-10
0.000274932
9.5276e-10
0.000274932
9.28215e-10
0.000274932
9.03325e-10
0.000274932
8.76857e-10
0.000274931
8.49996e-10
0.000274931
8.19058e-10
0.000274931
7.87391e-10
0.000274931
7.57669e-10
0.000274931
7.26263e-10
0.000274931
6.932e-10
0.000274931
6.60171e-10
0.000274931
6.25889e-10
0.000274931
5.91681e-10
0.000274931
5.57651e-10
0.000274931
5.21881e-10
0.000274931
4.86621e-10
0.000274931
4.52275e-10
0.000274931
4.18385e-10
0.000274931
3.84731e-10
0.000274931
3.49636e-10
0.000274931
3.15268e-10
0.000274931
2.83374e-10
0.000274931
2.49584e-10
0.00027493
2.1581e-10
0.00027493
1.84952e-10
0.00027493
1.52907e-10
0.00027493
1.20213e-10
0.00027493
8.83815e-11
0.00027493
5.87257e-11
0.00027493
2.96203e-11
0.00027493
9.37648e-13
0.00027493
-2.41207e-11
0.00027493
-4.97535e-11
0.00027493
-7.67562e-11
0.00027493
-1.00526e-10
0.00027493
-1.23251e-10
0.00027493
-1.44214e-10
0.000274929
-1.61243e-10
0.000274929
-1.77174e-10
0.000274929
-1.8948e-10
0.000274929
-1.98976e-10
0.000274929
-2.06618e-10
0.000274929
-2.11859e-10
0.000274929
-2.15898e-10
0.000274929
-2.23865e-10
0.000274929
-2.34688e-10
0.000274929
-3.01059e-10
0.000274929
-3.93136e-10
0.000274929
-4.54175e-10
0.000274929
-5.15e-10
0.000274928
-6.19893e-10
0.000274928
-7.39431e-10
0.000274928
-8.14188e-10
0.000274928
-8.7124e-10
0.000274928
-9.23023e-10
0.000274928
-9.67071e-10
0.000274928
-9.98263e-10
0.000274928
-1.01541e-09
0.000274928
-1.01705e-09
0.000274927
-1.0019e-09
0.000274927
-9.68655e-10
0.000274927
-9.19269e-10
0.000274927
-8.45042e-10
0.000274927
-7.52967e-10
0.000274927
-6.42113e-10
0.000274927
-3.8097e-10
-7.71633e-10
0.00026768
-1.56725e-09
0.00026768
-1.81239e-09
0.00026768
-1.80123e-09
0.00026768
-1.72019e-09
0.00026768
-1.62974e-09
0.00026768
-1.54171e-09
0.00026768
-1.45939e-09
0.000267681
-1.38249e-09
0.000267681
-1.30815e-09
0.000267681
-1.23491e-09
0.000267681
-1.16144e-09
0.000267681
-1.08887e-09
0.000267681
-1.01634e-09
0.000267681
-9.45457e-10
0.000267681
-8.76714e-10
0.000267681
-8.07784e-10
0.000267681
-7.36989e-10
0.000267681
-6.62871e-10
0.000267682
-5.89705e-10
0.000267682
-4.9583e-10
0.000267682
-4.48541e-10
0.000267682
-4.27608e-10
0.000267682
-4.11288e-10
0.000267682
-3.86661e-10
0.000267682
-2.60171e-10
0.000267682
-6.33436e-11
0.000267683
1.51744e-10
0.000267683
3.46914e-10
0.000267683
5.11637e-10
0.000267683
6.43032e-10
0.000267684
7.44204e-10
0.000267684
8.23284e-10
0.000267684
8.84205e-10
0.000267684
9.28929e-10
0.000267684
9.63833e-10
0.000267684
9.93532e-10
0.000267684
1.01484e-09
0.000267684
1.03007e-09
0.000267684
1.04474e-09
0.000267684
1.05425e-09
0.000267684
1.05983e-09
0.000267684
1.06351e-09
0.000267684
1.06564e-09
0.000267684
1.06741e-09
0.000267684
1.06629e-09
0.000267685
1.06228e-09
0.000267685
1.05759e-09
0.000267685
1.05204e-09
0.000267685
1.04572e-09
0.000267684
1.03581e-09
0.000267684
1.02141e-09
0.000267684
1.00708e-09
0.000267684
9.9207e-10
0.000267684
9.72175e-10
0.000267684
9.50805e-10
0.000267684
9.28702e-10
0.000267684
9.04157e-10
0.000267684
8.79021e-10
0.000267684
8.5087e-10
0.000267684
8.21842e-10
0.000267684
7.9346e-10
0.000267684
7.645e-10
0.000267684
7.33848e-10
0.000267684
7.01425e-10
0.000267684
6.6945e-10
0.000267684
6.37416e-10
0.000267684
6.04269e-10
0.000267684
5.70859e-10
0.000267684
5.36068e-10
0.000267684
5.02945e-10
0.000267684
4.72112e-10
0.000267684
4.39617e-10
0.000267684
4.05171e-10
0.000267684
3.72336e-10
0.000267684
3.41522e-10
0.000267683
3.08931e-10
0.000267683
2.76927e-10
0.000267683
2.46159e-10
0.000267683
2.14777e-10
0.000267683
1.83434e-10
0.000267683
1.53297e-10
0.000267683
1.24044e-10
0.000267683
9.51984e-11
0.000267683
6.77144e-11
0.000267683
4.32479e-11
0.000267683
1.86151e-11
0.000267683
-7.09855e-12
0.000267683
-3.07432e-11
0.000267683
-5.31467e-11
0.000267683
-7.41899e-11
0.000267682
-9.13158e-11
0.000267682
-1.06164e-10
0.000267682
-1.19206e-10
0.000267682
-1.29334e-10
0.000267682
-1.37011e-10
0.000267682
-1.43874e-10
0.000267682
-1.49363e-10
0.000267682
-1.59581e-10
0.000267682
-1.74839e-10
0.000267682
-2.35692e-10
0.000267682
-3.15661e-10
0.000267682
-3.67975e-10
0.000267682
-4.20613e-10
0.000267682
-5.12334e-10
0.000267681
-6.1782e-10
0.000267681
-6.86451e-10
0.000267681
-7.3992e-10
0.000267681
-7.87714e-10
0.000267681
-8.3195e-10
0.000267681
-8.68189e-10
0.000267681
-8.92888e-10
0.000267681
-9.04193e-10
0.00026768
-9.01025e-10
0.00026768
-8.80636e-10
0.00026768
-8.45168e-10
0.00026768
-7.86763e-10
0.00026768
-7.1286e-10
0.00026768
-6.25223e-10
0.00026768
-3.92071e-10
-7.787e-10
0.000260588
-1.53943e-09
0.000260588
-1.79818e-09
0.000260588
-1.81042e-09
0.000260588
-1.75008e-09
0.000260588
-1.67615e-09
0.000260588
-1.6017e-09
0.000260588
-1.52826e-09
0.000260588
-1.45746e-09
0.000260588
-1.38707e-09
0.000260588
-1.31461e-09
0.000260588
-1.24141e-09
0.000260589
-1.16925e-09
0.000260589
-1.09642e-09
0.000260589
-1.02401e-09
0.000260589
-9.53234e-10
0.000260589
-8.82679e-10
0.000260589
-8.10592e-10
0.000260589
-7.35019e-10
0.000260589
-6.61727e-10
0.000260589
-5.71151e-10
0.000260589
-5.22403e-10
0.000260589
-5.02309e-10
0.000260589
-4.94244e-10
0.00026059
-4.90755e-10
0.00026059
-4.0491e-10
0.00026059
-2.50961e-10
0.00026059
-6.43977e-11
0.00026059
1.21826e-10
0.000260591
2.9049e-10
0.000260591
4.34348e-10
0.000260591
5.52586e-10
0.000260591
6.49316e-10
0.000260591
7.2695e-10
0.000260591
7.88357e-10
0.000260592
8.39711e-10
0.000260592
8.82296e-10
0.000260592
9.15951e-10
0.000260592
9.43818e-10
0.000260592
9.6919e-10
0.000260592
9.88436e-10
0.000260592
1.00261e-09
0.000260592
1.01302e-09
0.000260592
1.02266e-09
0.000260592
1.03157e-09
0.000260592
1.03661e-09
0.000260592
1.03855e-09
0.000260592
1.03827e-09
0.000260592
1.0372e-09
0.000260592
1.03544e-09
0.000260592
1.02994e-09
0.000260592
1.01905e-09
0.000260592
1.00864e-09
0.000260592
9.96764e-10
0.000260592
9.80321e-10
0.000260592
9.6261e-10
0.000260592
9.43251e-10
0.000260592
9.21705e-10
0.000260592
8.98883e-10
0.000260592
8.73513e-10
0.000260592
8.47308e-10
0.000260592
8.20907e-10
0.000260592
7.94937e-10
0.000260592
7.67035e-10
0.000260592
7.35975e-10
0.000260592
7.06756e-10
0.000260592
6.76305e-10
0.000260592
6.44465e-10
0.000260592
6.13546e-10
0.000260592
5.80145e-10
0.000260592
5.48524e-10
0.000260592
5.20381e-10
0.000260592
4.89152e-10
0.000260592
4.55752e-10
0.000260592
4.24376e-10
0.000260591
3.94933e-10
0.000260591
3.64515e-10
0.000260591
3.33791e-10
0.000260591
3.03496e-10
0.000260591
2.73663e-10
0.000260591
2.43347e-10
0.000260591
2.14316e-10
0.000260591
1.86511e-10
0.000260591
1.57789e-10
0.000260591
1.31375e-10
0.000260591
1.07427e-10
0.000260591
8.35516e-11
0.000260591
5.97956e-11
0.000260591
3.67568e-11
0.000260591
1.43375e-11
0.000260591
-6.64665e-12
0.00026059
-2.39073e-11
0.00026059
-3.81009e-11
0.00026059
-5.12674e-11
0.00026059
-6.19621e-11
0.00026059
-6.95062e-11
0.00026059
-7.80154e-11
0.00026059
-8.48815e-11
0.00026059
-9.72853e-11
0.00026059
-1.15537e-10
0.00026059
-1.71326e-10
0.00026059
-2.43313e-10
0.00026059
-2.88928e-10
0.00026059
-3.33736e-10
0.00026059
-4.12349e-10
0.000260589
-5.03795e-10
0.000260589
-5.6526e-10
0.000260589
-6.12485e-10
0.000260589
-6.54623e-10
0.000260589
-6.95663e-10
0.000260589
-7.3223e-10
0.000260589
-7.60929e-10
0.000260589
-7.7914e-10
0.000260588
-7.84746e-10
0.000260588
-7.74433e-10
0.000260588
-7.51366e-10
0.000260588
-7.0775e-10
0.000260588
-6.51753e-10
0.000260588
-5.86844e-10
0.000260588
-3.82044e-10
-7.66395e-10
0.000253648
-1.49551e-09
0.000253648
-1.76653e-09
0.000253648
-1.80234e-09
0.000253648
-1.76324e-09
0.000253648
-1.70648e-09
0.000253648
-1.64628e-09
0.000253648
-1.58319e-09
0.000253648
-1.51839e-09
0.000253648
-1.45178e-09
0.000253648
-1.38158e-09
0.000253648
-1.31023e-09
0.000253648
-1.23904e-09
0.000253648
-1.16572e-09
0.000253649
-1.09163e-09
0.000253649
-1.01906e-09
0.000253649
-9.47682e-10
0.000253649
-8.73996e-10
0.000253649
-7.97251e-10
0.000253649
-7.24211e-10
0.000253649
-6.36909e-10
0.000253649
-5.87357e-10
0.000253649
-5.65331e-10
0.000253649
-5.59819e-10
0.000253649
-5.68382e-10
0.000253649
-5.11369e-10
0.000253649
-3.94758e-10
0.00025365
-2.4102e-10
0.00025365
-7.38218e-11
0.00025365
8.81044e-11
0.00025365
2.34096e-10
0.00025365
3.60443e-10
0.000253651
4.68982e-10
0.000253651
5.60236e-10
0.000253651
6.35647e-10
0.000253651
7.00438e-10
0.000253651
7.544e-10
0.000253651
8.00129e-10
0.000253651
8.4011e-10
0.000253651
8.75097e-10
0.000253652
9.04168e-10
0.000253652
9.27986e-10
0.000253652
9.46795e-10
0.000253652
9.64134e-10
0.000253652
9.79759e-10
0.000253652
9.91421e-10
0.000253652
1.00001e-09
0.000253652
1.00539e-09
0.000253652
1.00929e-09
0.000253652
1.01211e-09
0.000253652
1.01156e-09
0.000253652
1.00526e-09
0.000253652
9.988e-10
0.000253652
9.91132e-10
0.000253652