/*--------------------------------*- C++ -*----------------------------------*\
  =========                 |
  \\      /  F ield         | OpenFOAM: The Open Source CFD Toolbox
   \\    /   O peration     | Website:  https://openfoam.org
    \\  /    A nd           | Version:  7
     \\/     M anipulation  |
\*---------------------------------------------------------------------------*/
FoamFile
{
    version     2.0;
    format      ascii;
    class       volVectorField;
    location    "19000";
    object      U;
}
// * * * * * * * * * * * * * * * * * * * * * * * * * * * * * * * * * * * * * //

dimensions      [0 1 -1 0 0 0 0];

internalField   nonuniform List<vector> 
3963
(
(0.139979 -4.82371e-08 3.14242e-14)
(0.139979 -6.76384e-08 3.1385e-14)
(0.139979 -5.71109e-08 3.13385e-14)
(0.139979 -4.05962e-08 3.13355e-14)
(0.139979 -2.56995e-08 3.13109e-14)
(0.139979 -1.34388e-08 3.13387e-14)
(0.13998 -3.50825e-09 3.13743e-14)
(0.13998 4.55995e-09 3.13663e-14)
(0.13998 1.13741e-08 3.13229e-14)
(0.13998 1.72103e-08 3.13249e-14)
(0.13998 2.22156e-08 3.12958e-14)
(0.13998 2.66103e-08 3.12331e-14)
(0.13998 3.06041e-08 3.12162e-14)
(0.13998 3.41964e-08 3.1179e-14)
(0.13998 3.73855e-08 3.11756e-14)
(0.13998 4.0366e-08 3.12131e-14)
(0.13998 4.35516e-08 3.1195e-14)
(0.13998 4.66665e-08 3.12001e-14)
(0.13998 5.11618e-08 3.11651e-14)
(0.13998 5.66929e-08 3.11555e-14)
(0.139981 6.44852e-08 3.11803e-14)
(0.139977 -2.4969e-08 3.13476e-14)
(0.139977 -3.31843e-08 3.15425e-14)
(0.139978 -3.85309e-08 3.1379e-14)
(0.139978 -4.03754e-08 3.13476e-14)
(0.139978 -4.03295e-08 3.14571e-14)
(0.139978 -3.87432e-08 3.13392e-14)
(0.139978 -3.58691e-08 3.14988e-14)
(0.139978 -3.16411e-08 3.15533e-14)
(0.139978 -2.5627e-08 3.15015e-14)
(0.139978 -1.75177e-08 3.15903e-14)
(0.139979 -7.23109e-09 3.14281e-14)
(0.139979 6.70676e-09 3.15626e-14)
(0.139979 2.42416e-08 3.16267e-14)
(0.139979 4.82025e-08 3.1569e-14)
(0.139979 8.65213e-08 3.16121e-14)
(0.139979 4.17381e-08 3.14592e-14)
(0.139634 -6.99702e-08 3.11382e-14)
(0.139634 -8.73548e-08 3.11183e-14)
(0.139634 -7.62324e-08 3.11062e-14)
(0.139634 -5.98487e-08 3.10916e-14)
(0.139634 -4.51516e-08 3.11086e-14)
(0.139634 -3.30293e-08 3.11048e-14)
(0.139634 -2.31231e-08 3.10699e-14)
(0.139634 -1.48675e-08 3.10777e-14)
(0.139634 -7.74365e-09 3.10243e-14)
(0.139634 -1.50277e-09 3.09806e-14)
(0.139634 3.94905e-09 3.09856e-14)
(0.139634 8.72461e-09 3.09328e-14)
(0.139634 1.32159e-08 3.09352e-14)
(0.139635 1.73598e-08 3.09026e-14)
(0.139635 2.11108e-08 3.09191e-14)
(0.139635 2.46702e-08 3.09662e-14)
(0.139635 2.85147e-08 3.095e-14)
(0.139635 3.23001e-08 3.09633e-14)
(0.139635 3.82723e-08 3.09325e-14)
(0.139635 4.56162e-08 3.09277e-14)
(0.139635 6.49222e-08 3.10356e-14)
(0.139635 8.43055e-08 3.10828e-14)
(0.139635 8.95131e-08 3.10706e-14)
(0.139631 -4.71866e-08 3.12262e-14)
(0.139631 -5.01785e-08 3.1102e-14)
(0.139632 -4.89985e-08 3.10604e-14)
(0.139632 -5.50639e-08 3.11879e-14)
(0.139632 -6.96315e-08 3.10565e-14)
(0.139632 -7.64599e-08 3.12135e-14)
(0.139632 -7.58239e-08 3.10819e-14)
(0.139632 -7.34965e-08 3.1048e-14)
(0.139632 -7.06157e-08 3.11801e-14)
(0.139632 -6.69549e-08 3.10574e-14)
(0.139633 -6.25027e-08 3.11758e-14)
(0.139633 -5.69194e-08 3.1264e-14)
(0.139633 -4.98717e-08 3.12092e-14)
(0.139633 -4.09874e-08 3.12965e-14)
(0.139633 -3.02196e-08 3.11436e-14)
(0.139633 -1.59519e-08 3.12489e-14)
(0.139633 1.65445e-09 3.13346e-14)
(0.139633 2.5126e-08 3.12753e-14)
(0.139633 6.34826e-08 3.1336e-14)
(0.139633 1.88872e-08 3.11821e-14)
(0.139273 -9.10351e-08 3.08765e-14)
(0.139273 -1.07265e-07 3.08487e-14)
(0.139273 -9.541e-08 3.08706e-14)
(0.139274 -7.88147e-08 3.08436e-14)
(0.139274 -6.41956e-08 3.09145e-14)
(0.139274 -5.22357e-08 3.08505e-14)
(0.139274 -4.23001e-08 3.07678e-14)
(0.139274 -3.38651e-08 3.07763e-14)
(0.139274 -2.65122e-08 3.07263e-14)
(0.139274 -1.99227e-08 3.06493e-14)
(0.139274 -1.40601e-08 3.06608e-14)
(0.139274 -8.80399e-09 3.06193e-14)
(0.139274 -3.82625e-09 3.0649e-14)
(0.139274 8.43194e-10 3.06035e-14)
(0.139274 5.13194e-09 3.06483e-14)
(0.139274 9.25242e-09 3.07276e-14)
(0.139274 1.36265e-08 3.06826e-14)
(0.139275 1.80271e-08 3.0763e-14)
(0.139275 2.50148e-08 3.06867e-14)
(0.139275 3.34387e-08 3.06955e-14)
(0.139275 5.45893e-08 3.09134e-14)
(0.139275 8.16924e-08 3.09115e-14)
(0.139275 1.05676e-07 3.08779e-14)
(0.139275 1.19781e-07 3.10677e-14)
(0.139275 1.15491e-07 3.09689e-14)
(0.139275 1.08249e-07 3.1165e-14)
(0.139274 1.02337e-07 3.12854e-14)
(0.139274 9.78895e-08 3.11611e-14)
(0.139274 9.44238e-08 3.13244e-14)
(0.139274 9.15886e-08 3.12302e-14)
(0.139274 8.90368e-08 3.12997e-14)
(0.139274 8.65936e-08 3.14082e-14)
(0.139274 8.447e-08 3.13039e-14)
(0.139274 8.24964e-08 3.14072e-14)
(0.139274 8.06202e-08 3.1375e-14)
(0.139274 7.89521e-08 3.14189e-14)
(0.139274 7.74202e-08 3.1513e-14)
(0.139274 7.6076e-08 3.13497e-14)
(0.139274 7.48521e-08 3.14468e-14)
(0.139274 7.3682e-08 3.13653e-14)
(0.139273 7.25916e-08 3.12557e-14)
(0.139273 7.16116e-08 3.11307e-14)
(0.139273 7.07661e-08 3.10588e-14)
(0.139273 6.99557e-08 3.10626e-14)
(0.139273 6.90707e-08 3.1004e-14)
(0.139273 6.80622e-08 3.09759e-14)
(0.139273 6.71628e-08 3.09178e-14)
(0.139273 6.60791e-08 3.08975e-14)
(0.139273 6.47911e-08 3.09352e-14)
(0.139273 6.33798e-08 3.08848e-14)
(0.139273 6.16002e-08 3.08613e-14)
(0.139273 5.97367e-08 3.08103e-14)
(0.139273 5.77466e-08 3.08036e-14)
(0.139273 5.54136e-08 3.07736e-14)
(0.139273 5.29004e-08 3.06433e-14)
(0.139273 5.02909e-08 3.06699e-14)
(0.139273 4.74429e-08 3.06762e-14)
(0.139273 4.44344e-08 3.07048e-14)
(0.139273 4.12225e-08 3.06957e-14)
(0.139273 3.79433e-08 3.05859e-14)
(0.139273 3.45131e-08 3.06194e-14)
(0.139273 3.09796e-08 3.06329e-14)
(0.139273 2.74135e-08 3.06659e-14)
(0.139273 2.37141e-08 3.06578e-14)
(0.139273 2.01245e-08 3.05436e-14)
(0.139272 1.64302e-08 3.05881e-14)
(0.139272 1.27812e-08 3.06163e-14)
(0.139272 9.05739e-09 3.06615e-14)
(0.139272 5.14026e-09 3.06667e-14)
(0.139272 1.35457e-09 3.05408e-14)
(0.139272 -2.24476e-09 3.06301e-14)
(0.139272 -5.91742e-09 3.06428e-14)
(0.139272 -9.77982e-09 3.06845e-14)
(0.139272 -1.35954e-08 3.06893e-14)
(0.139272 -1.72076e-08 3.06039e-14)
(0.139272 -2.07119e-08 3.06551e-14)
(0.139272 -2.42925e-08 3.06707e-14)
(0.139272 -2.78251e-08 3.07079e-14)
(0.139272 -3.12088e-08 3.07024e-14)
(0.139272 -3.45481e-08 3.05524e-14)
(0.139272 -3.78416e-08 3.07171e-14)
(0.139272 -4.10483e-08 3.0644e-14)
(0.139272 -4.4415e-08 3.06795e-14)
(0.139272 -4.77698e-08 3.0792e-14)
(0.139272 -5.0816e-08 3.07047e-14)
(0.139272 -5.35467e-08 3.08199e-14)
(0.139272 -5.61035e-08 3.07311e-14)
(0.139272 -5.85947e-08 3.07537e-14)
(0.139272 -6.0955e-08 3.08633e-14)
(0.139272 -6.31669e-08 3.07636e-14)
(0.139272 -6.49622e-08 3.08705e-14)
(0.139272 -6.63933e-08 3.07071e-14)
(0.139272 -6.7582e-08 3.08036e-14)
(0.139272 -6.82659e-08 3.08877e-14)
(0.139272 -6.83469e-08 3.07763e-14)
(0.139272 -6.76241e-08 3.08705e-14)
(0.139271 -6.59279e-08 3.074e-14)
(0.139271 -6.24468e-08 3.07888e-14)
(0.139271 -5.62098e-08 3.08674e-14)
(0.139271 -5.89182e-08 3.07117e-14)
(0.139272 -7.0662e-08 3.08582e-14)
(0.139272 -7.51388e-08 3.07642e-14)
(0.139272 -7.09245e-08 3.07636e-14)
(0.139272 -8.37627e-08 3.0846e-14)
(0.139272 -1.03713e-07 3.07363e-14)
(0.139272 -1.06588e-07 3.0843e-14)
(0.139272 -1.03967e-07 3.07029e-14)
(0.139272 -1.00347e-07 3.07512e-14)
(0.139272 -9.62583e-08 3.08405e-14)
(0.139272 -9.14601e-08 3.06433e-14)
(0.139272 -8.60229e-08 3.08114e-14)
(0.139272 -7.94774e-08 3.08945e-14)
(0.139273 -7.17345e-08 3.08906e-14)
(0.139273 -6.23721e-08 3.09387e-14)
(0.139273 -5.12039e-08 3.08056e-14)
(0.139273 -3.6869e-08 3.08788e-14)
(0.139273 -1.95052e-08 3.09576e-14)
(0.139273 3.24686e-09 3.09494e-14)
(0.139273 4.1231e-08 3.09801e-14)
(0.139273 -2.99869e-09 3.08421e-14)
(0.138898 -1.09913e-07 3.05369e-14)
(0.138898 -1.26124e-07 3.05806e-14)
(0.138898 -1.14037e-07 3.06384e-14)
(0.138898 -9.72732e-08 3.05841e-14)
(0.138898 -8.26266e-08 3.0647e-14)
(0.138898 -7.06792e-08 3.05629e-14)
(0.138898 -6.07888e-08 3.04365e-14)
(0.138899 -5.21864e-08 3.04755e-14)
(0.138899 -4.45199e-08 3.03927e-14)
(0.138899 -3.76145e-08 3.03003e-14)
(0.138899 -3.13991e-08 3.0351e-14)
(0.138899 -2.57249e-08 3.02918e-14)
(0.138899 -2.0329e-08 3.0375e-14)
(0.138899 -1.51897e-08 3.03102e-14)
(0.138899 -1.03956e-08 3.03965e-14)
(0.138899 -5.74144e-09 3.04965e-14)
(0.138899 -8.10775e-10 3.04194e-14)
(0.138899 4.17503e-09 3.04804e-14)
(0.138899 1.15548e-08 3.03784e-14)
(0.138899 2.10571e-08 3.04716e-14)
(0.138899 3.55143e-08 3.07886e-14)
(0.1389 5.91627e-08 3.07099e-14)
(0.1389 9.35448e-08 3.067e-14)
(0.1389 1.22753e-07 3.08868e-14)
(0.1389 1.31226e-07 3.07391e-14)
(0.1389 1.28496e-07 3.09613e-14)
(0.1389 1.2291e-07 3.10953e-14)
(0.1389 1.175e-07 3.09885e-14)
(0.1389 1.13023e-07 3.11261e-14)
(0.138899 1.09188e-07 3.09832e-14)
(0.138899 1.05761e-07 3.12108e-14)
(0.138899 1.02675e-07 3.13629e-14)
(0.138899 9.99122e-08 3.11505e-14)
(0.138899 9.73484e-08 3.12493e-14)
(0.138899 9.50144e-08 3.10904e-14)
(0.138899 9.28765e-08 3.12337e-14)
(0.138899 9.08427e-08 3.13382e-14)
(0.138899 8.90189e-08 3.12073e-14)
(0.138899 8.74017e-08 3.13083e-14)
(0.138899 8.5878e-08 3.11979e-14)
(0.138899 8.44108e-08 3.10861e-14)
(0.138899 8.31068e-08 3.0981e-14)
(0.138899 8.19613e-08 3.09045e-14)
(0.138899 8.08432e-08 3.08166e-14)
(0.138899 7.96799e-08 3.08019e-14)
(0.138899 7.84407e-08 3.07856e-14)
(0.138899 7.71554e-08 3.07435e-14)
(0.138899 7.57933e-08 3.07119e-14)
(0.138898 7.43658e-08 3.06741e-14)
(0.138898 7.2667e-08 3.06619e-14)
(0.138898 7.07125e-08 3.06505e-14)
(0.138898 6.86819e-08 3.06171e-14)
(0.138898 6.6446e-08 3.05967e-14)
(0.138898 6.40463e-08 3.05747e-14)
(0.138898 6.14084e-08 3.04573e-14)
(0.138898 5.85863e-08 3.04624e-14)
(0.138898 5.55761e-08 3.04823e-14)
(0.138898 5.24386e-08 3.04989e-14)
(0.138898 4.92649e-08 3.04996e-14)
(0.138898 4.59665e-08 3.04014e-14)
(0.138898 4.23739e-08 3.04135e-14)
(0.138898 3.87197e-08 3.04373e-14)
(0.138898 3.51096e-08 3.04588e-14)
(0.138898 3.14042e-08 3.04606e-14)
(0.138898 2.77568e-08 3.03583e-14)
(0.138898 2.40109e-08 3.03842e-14)
(0.138898 2.03348e-08 3.04197e-14)
(0.138898 1.65946e-08 3.04524e-14)
(0.138898 1.26008e-08 3.04675e-14)
(0.138898 8.78158e-09 3.03983e-14)
(0.138898 5.12428e-09 3.0416e-14)
(0.138898 1.37492e-09 3.04431e-14)
(0.138898 -2.4662e-09 3.04731e-14)
(0.138898 -6.22308e-09 3.04875e-14)
(0.138898 -9.81081e-09 3.04206e-14)
(0.138898 -1.33276e-08 3.0442e-14)
(0.138898 -1.68976e-08 3.04719e-14)
(0.138897 -2.04061e-08 3.04989e-14)
(0.138897 -2.37686e-08 3.05029e-14)
(0.138897 -2.70894e-08 3.04091e-14)
(0.138897 -3.03704e-08 3.04601e-14)
(0.138897 -3.35984e-08 3.04158e-14)
(0.138897 -3.69969e-08 3.04421e-14)
(0.138897 -4.03524e-08 3.05057e-14)
(0.138897 -4.33857e-08 3.04606e-14)
(0.138897 -4.6118e-08 3.0522e-14)
(0.138897 -4.86741e-08 3.04733e-14)
(0.138897 -5.118e-08 3.04939e-14)
(0.138897 -5.34886e-08 3.05554e-14)
(0.138897 -5.5569e-08 3.05028e-14)
(0.138897 -5.73618e-08 3.05546e-14)
(0.138897 -5.89214e-08 3.05289e-14)
(0.138897 -6.01973e-08 3.05286e-14)
(0.138897 -6.09431e-08 3.05737e-14)
(0.138897 -6.10946e-08 3.05143e-14)
(0.138897 -6.05093e-08 3.05494e-14)
(0.138897 -5.91201e-08 3.05143e-14)
(0.138897 -5.68984e-08 3.05092e-14)
(0.138897 -5.23888e-08 3.05479e-14)
(0.138897 -6.52628e-08 3.04808e-14)
(0.138897 -8.49262e-08 3.05361e-14)
(0.138897 -8.77712e-08 3.04943e-14)
(0.138897 -8.42561e-08 3.04839e-14)
(0.138897 -9.57956e-08 3.05295e-14)
(0.138897 -1.15008e-07 3.04675e-14)
(0.138897 -1.20918e-07 3.05238e-14)
(0.138897 -1.20781e-07 3.04753e-14)
(0.138897 -1.18274e-07 3.04741e-14)
(0.138897 -1.14686e-07 3.05227e-14)
(0.138897 -1.09951e-07 3.04627e-14)
(0.138897 -1.04316e-07 3.04919e-14)
(0.138897 -9.75663e-08 3.0547e-14)
(0.138897 -8.96957e-08 3.05623e-14)
(0.138897 -8.02762e-08 3.05916e-14)
(0.138897 -6.9197e-08 3.05209e-14)
(0.138898 -5.50296e-08 3.05448e-14)
(0.138898 -3.80597e-08 3.05966e-14)
(0.138898 -1.64151e-08 3.06093e-14)
(0.138898 2.07519e-08 3.06271e-14)
(0.138898 -2.26887e-08 3.05521e-14)
(0.138507 -1.2584e-07 3.02273e-14)
(0.138507 -1.42882e-07 3.03311e-14)
(0.138507 -1.31377e-07 3.04124e-14)
(0.138508 -1.14717e-07 3.02974e-14)
(0.138508 -1.00046e-07 3.03838e-14)
(0.138508 -8.80849e-08 3.02621e-14)
(0.138508 -7.8097e-08 3.00895e-14)
(0.138508 -6.93853e-08 3.01767e-14)
(0.138508 -6.15293e-08 3.00642e-14)
(0.138508 -5.44392e-08 2.99391e-14)
(0.138508 -4.79532e-08 3.00441e-14)
(0.138508 -4.18076e-08 3.006e-14)
(0.138508 -3.59435e-08 3.01269e-14)
(0.138508 -3.03827e-08 3.00934e-14)
(0.138508 -2.51321e-08 3.01731e-14)
(0.138508 -1.99913e-08 3.0281e-14)
(0.138508 -1.4694e-08 3.02228e-14)
(0.138509 -9.19549e-09 3.02671e-14)
(0.138509 -1.5958e-09 3.01972e-14)
(0.138509 8.67366e-09 3.02717e-14)
(0.138509 1.78597e-08 3.05371e-14)
(0.138509 3.50573e-08 3.04323e-14)
(0.138509 6.42313e-08 3.04499e-14)
(0.138509 9.62848e-08 3.05672e-14)
(0.138509 1.20319e-07 3.03894e-14)
(0.138509 1.29819e-07 3.07738e-14)
(0.138509 1.30428e-07 3.08363e-14)
(0.138509 1.27673e-07 3.07599e-14)
(0.138509 1.24243e-07 3.08473e-14)
(0.138509 1.20746e-07 3.06834e-14)
(0.138509 1.17413e-07 3.09905e-14)
(0.138509 1.14352e-07 3.10393e-14)
(0.138509 1.11585e-07 3.09311e-14)
(0.138509 1.0891e-07 3.09945e-14)
(0.138509 1.06399e-07 3.08453e-14)
(0.138509 1.04054e-07 3.10697e-14)
(0.138509 1.01881e-07 3.11095e-14)
(0.138509 9.98549e-08 3.09934e-14)
(0.138509 9.79389e-08 3.10564e-14)
(0.138509 9.62087e-08 3.09125e-14)
(0.138509 9.4578e-08 3.08845e-14)
(0.138509 9.31075e-08 3.08044e-14)
(0.138509 9.1722e-08 3.07302e-14)
(0.138509 9.03117e-08 3.05898e-14)
(0.138509 8.89966e-08 3.05917e-14)
(0.138509 8.75946e-08 3.05865e-14)
(0.138508 8.61056e-08 3.05551e-14)
(0.138508 8.45111e-08 3.05181e-14)
(0.138508 8.28023e-08 3.03751e-14)
(0.138508 8.10009e-08 3.04375e-14)
(0.138508 7.90344e-08 3.04333e-14)
(0.138508 7.70215e-08 3.04114e-14)
(0.138508 7.46164e-08 3.03832e-14)
(0.138508 7.19649e-08 3.03653e-14)
(0.138508 6.92446e-08 3.02621e-14)
(0.138508 6.63406e-08 3.02696e-14)
(0.138508 6.33305e-08 3.0294e-14)
(0.138508 6.00736e-08 3.02972e-14)
(0.138508 5.68179e-08 3.0299e-14)
(0.138508 5.34945e-08 3.0212e-14)
(0.138508 4.97725e-08 3.02217e-14)
(0.138508 4.61806e-08 3.02496e-14)
(0.138508 4.2668e-08 3.02568e-14)
(0.138508 3.88764e-08 3.02598e-14)
(0.138508 3.52159e-08 3.01734e-14)
(0.138508 3.14317e-08 3.01943e-14)
(0.138508 2.76433e-08 3.02321e-14)
(0.138508 2.38635e-08 3.02496e-14)
(0.138508 1.99673e-08 3.02647e-14)
(0.138508 1.61877e-08 3.01972e-14)
(0.138508 1.24402e-08 3.02186e-14)
(0.138508 8.62381e-09 3.02517e-14)
(0.138508 4.85008e-09 3.02683e-14)
(0.138508 1.15179e-09 3.02837e-14)
(0.138508 -2.4835e-09 3.02181e-14)
(0.138507 -5.96721e-09 3.02453e-14)
(0.138507 -9.42982e-09 3.0282e-14)
(0.138507 -1.29067e-08 3.02959e-14)
(0.138507 -1.6346e-08 3.03014e-14)
(0.138507 -1.95957e-08 3.02235e-14)
(0.138507 -2.28553e-08 3.02226e-14)
(0.138507 -2.61604e-08 3.02024e-14)
(0.138507 -2.95493e-08 3.02126e-14)
(0.138507 -3.27777e-08 3.02325e-14)
(0.138507 -3.57495e-08 3.02124e-14)
(0.138507 -3.85531e-08 3.02425e-14)
(0.138507 -4.11527e-08 3.02309e-14)
(0.138507 -4.36319e-08 3.02403e-14)
(0.138507 -4.58364e-08 3.02631e-14)
(0.138507 -4.79292e-08 3.02357e-14)
(0.138507 -4.97842e-08 3.02595e-14)
(0.138507 -5.13502e-08 3.02562e-14)
(0.138507 -5.26742e-08 3.02588e-14)
(0.138507 -5.3411e-08 3.02715e-14)
(0.138507 -5.37245e-08 3.02366e-14)
(0.138507 -5.34678e-08 3.02488e-14)
(0.138507 -5.23147e-08 3.02371e-14)
(0.138507 -5.09521e-08 3.0235e-14)
(0.138507 -4.80268e-08 3.02398e-14)
(0.138507 -6.03973e-08 3.0204e-14)
(0.138507 -8.04627e-08 3.02296e-14)
(0.138507 -8.74462e-08 3.02157e-14)
(0.138507 -8.82772e-08 3.02104e-14)
(0.138507 -9.91669e-08 3.02239e-14)
(0.138507 -1.16418e-07 3.01954e-14)
(0.138507 -1.24364e-07 3.02212e-14)
(0.138507 -1.27017e-07 3.02039e-14)
(0.138507 -1.26798e-07 3.0203e-14)
(0.138507 -1.249e-07 3.02151e-14)
(0.138507 -1.21284e-07 3.01794e-14)
(0.138507 -1.16387e-07 3.01918e-14)
(0.138507 -1.10234e-07 3.02159e-14)
(0.138507 -1.02849e-07 3.02327e-14)
(0.138507 -9.38033e-08 3.02467e-14)
(0.138507 -8.30695e-08 3.02126e-14)
(0.138507 -6.96001e-08 3.02235e-14)
(0.138507 -5.34273e-08 3.02468e-14)
(0.138507 -3.30609e-08 3.02646e-14)
(0.138507 2.84726e-09 3.02724e-14)
(0.138507 -3.9623e-08 3.02327e-14)
(0.138101 -1.38508e-07 2.99209e-14)
(0.138101 -1.56631e-07 3.00106e-14)
(0.138101 -1.46404e-07 3.00881e-14)
(0.138101 -1.30535e-07 3.00686e-14)
(0.138101 -1.16164e-07 3.0055e-14)
(0.138101 -1.04107e-07 2.99946e-14)
(0.138101 -9.4109e-08 2.97698e-14)
(0.138101 -8.54044e-08 2.9925e-14)
(0.138102 -7.73543e-08 2.97669e-14)
(0.138102 -7.00573e-08 2.96516e-14)
(0.138102 -6.33456e-08 2.97954e-14)
(0.138102 -5.68388e-08 2.98356e-14)
(0.138102 -5.06616e-08 2.9901e-14)
(0.138102 -4.47404e-08 2.99384e-14)
(0.138102 -3.90228e-08 2.99827e-14)
(0.138102 -3.34324e-08 3.00917e-14)
(0.138102 -2.76836e-08 3.00279e-14)
(0.138102 -2.17115e-08 3.00639e-14)
(0.138102 -1.42307e-08 3.0047e-14)
(0.138102 -3.59245e-09 3.00957e-14)
(0.138102 2.94751e-09 3.02933e-14)
(0.138102 1.42e-08 3.03063e-14)
(0.138102 3.50321e-08 3.023e-14)
(0.138103 6.26434e-08 3.03183e-14)
(0.138103 9.37671e-08 3.02897e-14)
(0.138103 1.14398e-07 3.04704e-14)
(0.138103 1.2385e-07 3.05593e-14)
(0.138103 1.26556e-07 3.04927e-14)
(0.138103 1.26387e-07 3.05742e-14)
(0.138103 1.24851e-07 3.05399e-14)
(0.138103 1.22728e-07 3.06936e-14)
(0.138103 1.20608e-07 3.07547e-14)
(0.138103 1.18425e-07 3.06699e-14)
(0.138103 1.16127e-07 3.07171e-14)
(0.138103 1.13999e-07 3.06505e-14)
(0.138103 1.11828e-07 3.07717e-14)
(0.138103 1.09757e-07 3.08323e-14)
(0.138103 1.07863e-07 3.07383e-14)
(0.138103 1.05885e-07 3.07998e-14)
(0.138103 1.04117e-07 3.07785e-14)
(0.138103 1.02548e-07 3.06672e-14)
(0.138103 1.01034e-07 3.06049e-14)
(0.138103 9.96321e-08 3.05316e-14)
(0.138103 9.81442e-08 3.0423e-14)
(0.138103 9.66352e-08 3.04073e-14)
(0.138103 9.52553e-08 3.03776e-14)
(0.138103 9.36234e-08 3.03549e-14)
(0.138103 9.18459e-08 3.03103e-14)
(0.138103 9.01757e-08 3.02468e-14)
(0.138103 8.83819e-08 3.02337e-14)
(0.138102 8.64214e-08 3.02102e-14)
(0.138102 8.41654e-08 3.01965e-14)
(0.138102 8.16415e-08 3.01597e-14)
(0.138102 7.91094e-08 3.01482e-14)
(0.138102 7.63962e-08 3.00355e-14)
(0.138102 7.33488e-08 3.00875e-14)
(0.138102 7.03101e-08 3.01129e-14)
(0.138102 6.7094e-08 3.0094e-14)
(0.138102 6.38288e-08 3.0095e-14)
(0.138102 6.04669e-08 2.99923e-14)
(0.138102 5.68253e-08 3.0043e-14)
(0.138102 5.33246e-08 3.00704e-14)
(0.138102 4.96594e-08 3.00546e-14)
(0.138102 4.59072e-08 3.00565e-14)
(0.138102 4.22936e-08 2.99554e-14)
(0.138102 3.84456e-08 3.0018e-14)
(0.138102 3.46466e-08 3.00546e-14)
(0.138102 3.10202e-08 3.00471e-14)
(0.138102 2.72199e-08 3.00599e-14)
(0.138102 2.33292e-08 2.99727e-14)
(0.138102 1.95076e-08 3.00375e-14)
(0.138102 1.56836e-08 3.00709e-14)
(0.138102 1.19826e-08 3.00645e-14)
(0.138102 8.43539e-09 3.0079e-14)
(0.138102 4.84413e-09 2.99934e-14)
(0.138102 1.37445e-09 3.0067e-14)
(0.138102 -2.06278e-09 3.01036e-14)
(0.138102 -5.56429e-09 3.00941e-14)
(0.138102 -8.99491e-09 3.00989e-14)
(0.138102 -1.22696e-08 3.00074e-14)
(0.138102 -1.55325e-08 2.99885e-14)
(0.138101 -1.88027e-08 2.99788e-14)
(0.138101 -2.20546e-08 2.99842e-14)
(0.138101 -2.50754e-08 2.99588e-14)
(0.138101 -2.80417e-08 2.9948e-14)
(0.138101 -3.09513e-08 2.99712e-14)
(0.138101 -3.35767e-08 2.99778e-14)
(0.138101 -3.60698e-08 2.9987e-14)
(0.138101 -3.82975e-08 2.99744e-14)
(0.138101 -4.03409e-08 2.99578e-14)
(0.138101 -4.21677e-08 2.99731e-14)
(0.138101 -4.37039e-08 2.99818e-14)
(0.138101 -4.50095e-08 2.99907e-14)
(0.138101 -4.58756e-08 2.99697e-14)
(0.138101 -4.62618e-08 2.99486e-14)
(0.138101 -4.61572e-08 2.99568e-14)
(0.138101 -4.55023e-08 2.9958e-14)
(0.138101 -4.49595e-08 2.99624e-14)
(0.138101 -4.32778e-08 2.99305e-14)
(0.138101 -5.3603e-08 2.9909e-14)
(0.138101 -7.11856e-08 2.99295e-14)
(0.138101 -8.02054e-08 2.99343e-14)
(0.138101 -8.47858e-08 2.99379e-14)
(0.138101 -9.62889e-08 2.99174e-14)
(0.138101 -1.12032e-07 2.99044e-14)
(0.138101 -1.20504e-07 2.99246e-14)
(0.138101 -1.25123e-07 2.99266e-14)
(0.138101 -1.27252e-07 2.99312e-14)
(0.138101 -1.27412e-07 2.9907e-14)
(0.138101 -1.25493e-07 2.98847e-14)
(0.138101 -1.21943e-07 2.98993e-14)
(0.138101 -1.17032e-07 2.98924e-14)
(0.138101 -1.10612e-07 2.99049e-14)
(0.138101 -1.02458e-07 2.98991e-14)
(0.138101 -9.25751e-08 2.98889e-14)
(0.138101 -8.00217e-08 2.99059e-14)
(0.138101 -6.50236e-08 2.98989e-14)
(0.138101 -4.63063e-08 2.9919e-14)
(0.138101 -1.20075e-08 2.99134e-14)
(0.138101 -5.35705e-08 2.98969e-14)
(0.137679 -1.4788e-07 2.96246e-14)
(0.137679 -1.67274e-07 2.97546e-14)
(0.137679 -1.58809e-07 2.97685e-14)
(0.137679 -1.4418e-07 2.98214e-14)
(0.137679 -1.30448e-07 2.96703e-14)
(0.137679 -1.18604e-07 2.97243e-14)
(0.137679 -1.08579e-07 2.95805e-14)
(0.137679 -9.98419e-08 2.9728e-14)
(0.137679 -9.18127e-08 2.96421e-14)
(0.137679 -8.44918e-08 2.95163e-14)
(0.137679 -7.75945e-08 2.96076e-14)
(0.137679 -7.07503e-08 2.96241e-14)
(0.137679 -6.41118e-08 2.9694e-14)
(0.13768 -5.79116e-08 2.96877e-14)
(0.13768 -5.18829e-08 2.98232e-14)
(0.13768 -4.59077e-08 2.9821e-14)
(0.13768 -3.97674e-08 2.98031e-14)
(0.13768 -3.33641e-08 2.98697e-14)
(0.13768 -2.59425e-08 2.98504e-14)
(0.13768 -1.53161e-08 2.99455e-14)
(0.13768 -1.01265e-08 2.99975e-14)
(0.13768 -3.0787e-09 3.00263e-14)
(0.13768 1.04048e-08 2.9983e-14)
(0.13768 3.09815e-08 2.99809e-14)
(0.13768 6.18423e-08 3.00051e-14)
(0.137681 8.85321e-08 3.01227e-14)
(0.137681 1.05787e-07 3.01787e-14)
(0.137681 1.1501e-07 3.01892e-14)
(0.137681 1.19435e-07 3.02166e-14)
(0.137681 1.21188e-07 3.02414e-14)
(0.137681 1.21426e-07 3.03342e-14)
(0.137681 1.20916e-07 3.03692e-14)
(0.137681 1.20035e-07 3.03699e-14)
(0.137681 1.187e-07 3.03512e-14)
(0.137681 1.17236e-07 3.03692e-14)
(0.137681 1.1571e-07 3.0434e-14)
(0.137681 1.14048e-07 3.04536e-14)
(0.137681 1.12611e-07 3.04439e-14)
(0.137681 1.10992e-07 3.04415e-14)
(0.137681 1.09377e-07 3.04796e-14)
(0.137681 1.08008e-07 3.04136e-14)
(0.137681 1.06691e-07 3.03903e-14)
(0.137681 1.05386e-07 3.03097e-14)
(0.137681 1.03864e-07 3.02722e-14)
(0.137681 1.02424e-07 3.02179e-14)
(0.137681 1.01105e-07 3.01565e-14)
(0.137681 9.95051e-08 3.01476e-14)
(0.137681 9.77956e-08 3.00857e-14)
(0.137681 9.60674e-08 3.00739e-14)
(0.137681 9.42959e-08 3.00305e-14)
(0.137681 9.24878e-08 2.99775e-14)
(0.137681 9.02858e-08 2.99764e-14)
(0.137681 8.77714e-08 2.9923e-14)
(0.13768 8.51891e-08 2.99256e-14)
(0.13768 8.24958e-08 2.97698e-14)
(0.13768 7.95038e-08 2.99345e-14)
(0.13768 7.64889e-08 2.99361e-14)
(0.13768 7.3397e-08 2.9881e-14)
(0.13768 7.01317e-08 2.98888e-14)
(0.13768 6.66732e-08 2.97378e-14)
(0.13768 6.31615e-08 2.98955e-14)
(0.13768 5.97786e-08 2.9897e-14)
(0.13768 5.61857e-08 2.98441e-14)
(0.13768 5.24701e-08 2.98517e-14)
(0.13768 4.87986e-08 2.97016e-14)
(0.13768 4.50682e-08 2.98736e-14)
(0.13768 4.13513e-08 2.9884e-14)
(0.13768 3.7667e-08 2.98367e-14)
(0.13768 3.39868e-08 2.98539e-14)
(0.13768 3.01902e-08 2.97159e-14)
(0.13768 2.64127e-08 2.98912e-14)
(0.13768 2.26453e-08 2.98985e-14)
(0.13768 1.89839e-08 2.98541e-14)
(0.13768 1.54959e-08 2.98746e-14)
(0.13768 1.19186e-08 2.9738e-14)
(0.13768 8.45126e-09 2.99295e-14)
(0.13768 5.00815e-09 2.99343e-14)
(0.13768 1.65345e-09 2.98856e-14)
(0.13768 -1.70036e-09 2.98962e-14)
(0.13768 -5.02994e-09 2.97577e-14)
(0.13768 -8.32679e-09 2.9754e-14)
(0.13768 -1.15649e-08 2.97513e-14)
(0.13768 -1.4666e-08 2.97542e-14)
(0.13768 -1.75765e-08 2.9669e-14)
(0.13768 -2.05023e-08 2.96763e-14)
(0.137679 -2.33935e-08 2.97053e-14)
(0.137679 -2.59634e-08 2.97218e-14)
(0.137679 -2.84624e-08 2.97324e-14)
(0.137679 -3.07423e-08 2.9679e-14)
(0.137679 -3.27977e-08 2.96749e-14)
(0.137679 -3.4632e-08 2.96924e-14)
(0.137679 -3.6183e-08 2.97092e-14)
(0.137679 -3.7397e-08 2.97232e-14)
(0.137679 -3.82394e-08 2.96579e-14)
(0.137679 -3.88284e-08 2.96545e-14)
(0.137679 -3.89588e-08 2.96699e-14)
(0.137679 -3.86538e-08 2.96801e-14)
(0.137679 -3.85871e-08 2.96901e-14)
(0.137679 -3.79502e-08 2.96049e-14)
(0.137679 -4.68899e-08 2.96062e-14)
(0.137679 -6.1418e-08 2.96342e-14)
(0.137679 -7.021e-08 2.96524e-14)
(0.137679 -7.67887e-08 2.96639e-14)
(0.137679 -8.88586e-08 2.95994e-14)
(0.137679 -1.03617e-07 2.96044e-14)
(0.137679 -1.11998e-07 2.96315e-14)
(0.137679 -1.17586e-07 2.96463e-14)
(0.137679 -1.21462e-07 2.96567e-14)
(0.137679 -1.23481e-07 2.95897e-14)
(0.137679 -1.23488e-07 2.95838e-14)
(0.137679 -1.21661e-07 2.96111e-14)
(0.137679 -1.18272e-07 2.95684e-14)
(0.137679 -1.13121e-07 2.95811e-14)
(0.137679 -1.0619e-07 2.95437e-14)
(0.137679 -9.75273e-08 2.95583e-14)
(0.137679 -8.62033e-08 2.95913e-14)
(0.137679 -7.26523e-08 2.9539e-14)
(0.137679 -5.58732e-08 2.95744e-14)
(0.137679 -2.36062e-08 2.95473e-14)
(0.137679 -6.42896e-08 2.95545e-14)
(0.13724 -1.54075e-07 2.93936e-14)
(0.13724 -1.74788e-07 2.94158e-14)
(0.13724 -1.68254e-07 2.94549e-14)
(0.13724 -1.55304e-07 2.95661e-14)
(0.13724 -1.4263e-07 2.9457e-14)
(0.13724 -1.31277e-07 2.94581e-14)
(0.137241 -1.21435e-07 2.94141e-14)
(0.137241 -1.12861e-07 2.95837e-14)
(0.137241 -1.04929e-07 2.94611e-14)
(0.137241 -9.74241e-08 2.93383e-14)
(0.137241 -9.0346e-08 2.94514e-14)
(0.137241 -8.33662e-08 2.94162e-14)
(0.137241 -7.64593e-08 2.95069e-14)
(0.137241 -6.99427e-08 2.94741e-14)
(0.137241 -6.3603e-08 2.95919e-14)
(0.137241 -5.73079e-08 2.96618e-14)
(0.137241 -5.07832e-08 2.95743e-14)
(0.137241 -4.39872e-08 2.96793e-14)
(0.137241 -3.67009e-08 2.96388e-14)
(0.137241 -2.63979e-08 2.97201e-14)
(0.137241 -2.16856e-08 2.97128e-14)
(0.137241 -1.72627e-08 2.9734e-14)
(0.137241 -9.20564e-09 2.97162e-14)
(0.137242 4.33495e-09 2.96758e-14)
(0.137242 3.08866e-08 2.9718e-14)
(0.137242 5.89121e-08 2.98058e-14)
(0.137242 8.08725e-08 2.97792e-14)
(0.137242 9.56264e-08 2.98802e-14)
(0.137242 1.04922e-07 2.98283e-14)
(0.137242 1.10553e-07 2.99809e-14)
(0.137242 1.13762e-07 3.00062e-14)
(0.137242 1.15489e-07 3.0017e-14)
(0.137242 1.16382e-07 3.00599e-14)
(0.137242 1.16442e-07 3.00225e-14)
(0.137242 1.16151e-07 3.00552e-14)
(0.137242 1.156e-07 3.01136e-14)
(0.137242 1.14719e-07 3.00555e-14)
(0.137242 1.13987e-07 3.01386e-14)
(0.137242 1.12938e-07 3.012e-14)
(0.137242 1.11766e-07 3.02579e-14)
(0.137242 1.10774e-07 3.01389e-14)
(0.137242 1.09767e-07 3.01686e-14)
(0.137242 1.0874e-07 3.00604e-14)
(0.137242 1.07469e-07 3.01089e-14)
(0.137242 1.06138e-07 3.00063e-14)
(0.137242 1.04963e-07 2.99166e-14)
(0.137242 1.03638e-07 2.99395e-14)
(0.137242 1.02103e-07 2.98386e-14)
(0.137242 1.00536e-07 2.99022e-14)
(0.137242 9.89294e-08 2.98104e-14)
(0.137242 9.71198e-08 2.97282e-14)
(0.137242 9.49647e-08 2.97574e-14)
(0.137242 9.27054e-08 2.96669e-14)
(0.137242 9.01906e-08 2.97018e-14)
(0.137242 8.75455e-08 2.95649e-14)
(0.137242 8.46626e-08 2.96959e-14)
(0.137242 8.17435e-08 2.97472e-14)
(0.137242 7.88382e-08 2.96471e-14)
(0.137242 7.55326e-08 2.96834e-14)
(0.137242 7.21058e-08 2.95472e-14)
(0.137242 6.88568e-08 2.96677e-14)
(0.137242 6.55573e-08 2.97139e-14)
(0.137242 6.19483e-08 2.96143e-14)
(0.137242 5.84221e-08 2.96485e-14)
(0.137242 5.48492e-08 2.95117e-14)
(0.137242 5.11625e-08 2.96957e-14)
(0.137242 4.75675e-08 2.97034e-14)
(0.137242 4.3898e-08 2.96069e-14)
(0.137242 4.02949e-08 2.96495e-14)
(0.137242 3.66025e-08 2.95245e-14)
(0.137242 3.29043e-08 2.96632e-14)
(0.137242 2.92901e-08 2.97182e-14)
(0.137242 2.56819e-08 2.9626e-14)
(0.137242 2.21762e-08 2.96734e-14)
(0.137242 1.87594e-08 2.95491e-14)
(0.137242 1.53739e-08 2.97469e-14)
(0.137242 1.18795e-08 2.97578e-14)
(0.137242 8.61117e-09 2.96584e-14)
(0.137242 5.35225e-09 2.96961e-14)
(0.137241 1.92996e-09 2.95721e-14)
(0.137241 -1.39325e-09 2.95285e-14)
(0.137241 -4.43691e-09 2.9522e-14)
(0.137241 -7.40086e-09 2.95202e-14)
(0.137241 -1.03147e-08 2.93344e-14)
(0.137241 -1.30969e-08 2.94083e-14)
(0.137241 -1.58756e-08 2.94453e-14)
(0.137241 -1.85243e-08 2.94665e-14)
(0.137241 -2.09248e-08 2.94756e-14)
(0.137241 -2.32536e-08 2.93682e-14)
(0.137241 -2.53984e-08 2.9396e-14)
(0.137241 -2.71298e-08 2.94181e-14)
(0.137241 -2.86829e-08 2.94404e-14)
(0.137241 -2.98664e-08 2.94547e-14)
(0.137241 -3.08167e-08 2.9338e-14)
(0.137241 -3.14704e-08 2.93648e-14)
(0.137241 -3.17361e-08 2.93882e-14)
(0.137241 -3.18109e-08 2.94047e-14)
(0.137241 -3.2186e-08 2.94168e-14)
(0.137241 -3.23714e-08 2.92858e-14)
(0.137241 -4.01345e-08 2.93067e-14)
(0.137241 -5.20905e-08 2.93458e-14)
(0.137241 -5.98336e-08 2.9372e-14)
(0.137241 -6.68134e-08 2.93867e-14)
(0.137241 -7.8752e-08 2.92239e-14)
(0.137241 -9.25312e-08 2.93078e-14)
(0.13724 -1.0068e-07 2.93428e-14)
(0.13724 -1.06596e-07 2.93657e-14)
(0.13724 -1.11553e-07 2.93784e-14)
(0.13724 -1.14958e-07 2.92589e-14)
(0.13724 -1.16545e-07 2.9288e-14)
(0.13724 -1.16413e-07 2.93278e-14)
(0.13724 -1.14578e-07 2.91376e-14)
(0.13724 -1.10903e-07 2.92658e-14)
(0.13724 -1.05412e-07 2.91826e-14)
(0.13724 -9.81358e-08 2.92327e-14)
(0.13724 -8.82845e-08 2.92817e-14)
(0.13724 -7.64881e-08 2.91896e-14)
(0.13724 -6.18748e-08 2.9236e-14)
(0.13724 -3.18424e-08 2.9124e-14)
(0.13724 -7.17894e-08 2.92184e-14)
(0.136785 -1.57215e-07 2.89872e-14)
(0.136785 -1.79429e-07 2.91096e-14)
(0.136785 -1.75005e-07 2.91462e-14)
(0.136785 -1.63892e-07 2.92214e-14)
(0.136785 -1.52534e-07 2.91577e-14)
(0.136785 -1.42014e-07 2.91907e-14)
(0.136785 -1.32633e-07 2.91968e-14)
(0.136785 -1.24222e-07 2.92773e-14)
(0.136786 -1.16419e-07 2.92307e-14)
(0.136786 -1.09011e-07 2.91867e-14)
(0.136786 -1.01807e-07 2.92258e-14)
(0.136786 -9.46267e-08 2.9184e-14)
(0.136786 -8.74631e-08 2.92385e-14)
(0.136786 -8.07092e-08 2.92388e-14)
(0.136786 -7.41786e-08 2.92841e-14)
(0.136786 -6.76201e-08 2.92903e-14)
(0.136786 -6.07543e-08 2.93169e-14)
(0.136786 -5.36414e-08 2.94061e-14)
(0.136786 -4.63912e-08 2.93982e-14)
(0.136786 -3.64679e-08 2.94117e-14)
(0.136786 -3.19149e-08 2.94213e-14)
(0.136786 -2.89425e-08 2.94456e-14)
(0.136786 -2.45217e-08 2.94308e-14)
(0.136786 -1.66297e-08 2.94634e-14)
(0.136786 4.12776e-09 2.94546e-14)
(0.136787 2.99512e-08 2.95034e-14)
(0.136787 5.35666e-08 2.95951e-14)
(0.136787 7.18334e-08 2.95927e-14)
(0.136787 8.51177e-08 2.96499e-14)
(0.136787 9.44201e-08 2.96415e-14)
(0.136787 1.00748e-07 2.96834e-14)
(0.136787 1.05074e-07 2.97729e-14)