/*--------------------------------*- C++ -*----------------------------------*\
  =========                 |
  \\      /  F ield         | OpenFOAM: The Open Source CFD Toolbox
   \\    /   O peration     | Website:  https://openfoam.org
    \\  /    A nd           | Version:  7
     \\/     M anipulation  |
\*---------------------------------------------------------------------------*/
FoamFile
{
    version     2.0;
    format      ascii;
    class       volScalarField;
    location    "17000";
    object      k;
}
// * * * * * * * * * * * * * * * * * * * * * * * * * * * * * * * * * * * * * //

dimensions      [0 2 -2 0 0 0 0];

internalField   nonuniform List<scalar> 
3974
(
0.000182599
0.000182599
0.000182599
0.000182599
0.000182598
0.000182598
0.000182598
0.000182598
0.000182598
0.000182597
0.000182597
0.000182597
0.000182597
0.000182597
0.000182597
0.000182596
0.000182596
0.000182596
0.000182596
0.000182595
0.000182595
0.000182595
0.000182595
0.000182594
0.000182594
0.000182594
0.000182594
0.000182593
0.000182593
0.000182593
0.000182592
0.000182592
0.000182592
0.000182591
0.000182591
0.00018259
0.00018259
0.00018259
0.000182022
0.000182022
0.000182022
0.000182022
0.000182022
0.000182022
0.000182022
0.000182022
0.000182021
0.000182021
0.000182021
0.000182021
0.000182021
0.000182021
0.000182021
0.00018202
0.00018202
0.00018202
0.00018202
0.00018202
0.00018202
0.000182019
0.000182019
0.000182019
0.000182019
0.000182018
0.000182018
0.000182018
0.000182018
0.000182017
0.000182017
0.000182017
0.000182016
0.000182016
0.000182015
0.000182015
0.000182015
0.000182014
0.000182014
0.000182013
0.000182013
0.000182012
0.000181356
0.000181356
0.000181356
0.000181356
0.000181356
0.000181356
0.000181356
0.000181356
0.000181356
0.000181356
0.000181356
0.000181356
0.000181356
0.000181355
0.000181355
0.000181355
0.000181355
0.000181355
0.000181355
0.000181355
0.000181355
0.000181354
0.000181354
0.000181354
0.000181354
0.000181354
0.000181353
0.000181353
0.000181353
0.000181353
0.000181352
0.000181352
0.000181352
0.000181351
0.000181351
0.000181351
0.00018135
0.00018135
0.000181349
0.000181349
0.000181349
0.000181348
0.000181347
0.000181347
0.000181346
0.000181346
0.000181345
0.000181345
0.000181345
0.000181344
0.000181344
0.000181344
0.000181344
0.000181343
0.000181343
0.000181343
0.000181343
0.000181343
0.000181343
0.000180605
0.000180605
0.000180605
0.000180605
0.000180605
0.000180605
0.000180606
0.000180606
0.000180606
0.000180606
0.000180606
0.000180606
0.000180606
0.000180606
0.000180606
0.000180606
0.000180605
0.000180605
0.000180605
0.000180605
0.000180605
0.000180605
0.000180605
0.000180605
0.000180604
0.000180604
0.000180604
0.000180604
0.000180603
0.000180603
0.000180603
0.000180603
0.000180602
0.000180602
0.000180602
0.000180601
0.000180601
0.0001806
0.0001806
0.000180599
0.000180599
0.000180599
0.000180598
0.000180597
0.000180597
0.000180596
0.000180595
0.000180595
0.000180595
0.000180594
0.000180594
0.000180594
0.000180593
0.000180593
0.000180593
0.000180593
0.000180592
0.000180592
0.000180592
0.000179775
0.000179775
0.000179775
0.000179775
0.000179775
0.000179775
0.000179775
0.000179775
0.000179776
0.000179776
0.000179776
0.000179776
0.000179776
0.000179776
0.000179776
0.000179776
0.000179776
0.000179776
0.000179776
0.000179776
0.000179776
0.000179775
0.000179775
0.000179775
0.000179775
0.000179775
0.000179775
0.000179774
0.000179774
0.000179774
0.000179774
0.000179773
0.000179773
0.000179773
0.000179772
0.000179772
0.000179771
0.000179771
0.000179771
0.00017977
0.00017977
0.000179769
0.000179769
0.000179768
0.000179767
0.000179766
0.000179766
0.000179765
0.000179765
0.000179764
0.000179764
0.000179764
0.000179763
0.000179763
0.000179762
0.000179762
0.000179762
0.000179762
0.000179761
0.000178868
0.000178868
0.000178868
0.000178868
0.000178868
0.000178869
0.000178869
0.000178869
0.000178869
0.000178869
0.00017887
0.00017887
0.00017887
0.00017887
0.00017887
0.00017887
0.00017887
0.00017887
0.00017887
0.00017887
0.00017887
0.00017887
0.00017887
0.00017887
0.000178869
0.000178869
0.000178869
0.000178869
0.000178869
0.000178868
0.000178868
0.000178868
0.000178867
0.000178867
0.000178867
0.000178866
0.000178866
0.000178865
0.000178865
0.000178865
0.000178864
0.000178864
0.000178863
0.000178862
0.000178862
0.000178861
0.00017886
0.000178859
0.000178859
0.000178858
0.000178858
0.000178857
0.000178857
0.000178857
0.000178856
0.000178856
0.000178855
0.000178855
0.000178855
0.000177889
0.000177889
0.000177889
0.000177889
0.000177889
0.000177889
0.00017789
0.00017789
0.00017789
0.00017789
0.000177891
0.000177891
0.000177891
0.000177891
0.000177891
0.000177891
0.000177891
0.000177891
0.000177892
0.000177891
0.000177891
0.000177891
0.000177891
0.000177891
0.000177891
0.000177891
0.000177891
0.000177891
0.00017789
0.00017789
0.00017789
0.000177889
0.000177889
0.000177889
0.000177888
0.000177888
0.000177888
0.000177887
0.000177887
0.000177886
0.000177886
0.000177885
0.000177885
0.000177884
0.000177883
0.000177883
0.000177882
0.000177881
0.00017788
0.00017788
0.000177879
0.000177879
0.000177878
0.000177878
0.000177877
0.000177877
0.000177876
0.000177876
0.000177876
0.00017684
0.00017684
0.00017684
0.00017684
0.00017684
0.000176841
0.000176841
0.000176841
0.000176842
0.000176842
0.000176842
0.000176842
0.000176843
0.000176843
0.000176843
0.000176843
0.000176843
0.000176843
0.000176843
0.000176843
0.000176843
0.000176843
0.000176843
0.000176843
0.000176843
0.000176843
0.000176843
0.000176843
0.000176842
0.000176842
0.000176842
0.000176842
0.000176841
0.000176841
0.000176841
0.00017684
0.00017684
0.000176839
0.000176839
0.000176838
0.000176838
0.000176837
0.000176837
0.000176836
0.000176835
0.000176835
0.000176834
0.000176833
0.000176832
0.000176832
0.000176831
0.00017683
0.00017683
0.000176829
0.000176829
0.000176828
0.000176828
0.000176827
0.000176827
0.000175724
0.000175724
0.000175724
0.000175724
0.000175725
0.000175725
0.000175725
0.000175726
0.000175726
0.000175726
0.000175727
0.000175727
0.000175727
0.000175728
0.000175728
0.000175728
0.000175728
0.000175728
0.000175728
0.000175728
0.000175728
0.000175728
0.000175728
0.000175728
0.000175728
0.000175728
0.000175728
0.000175728
0.000175728
0.000175727
0.000175727
0.000175727
0.000175726
0.000175726
0.000175726
0.000175725
0.000175725
0.000175724
0.000175724
0.000175724
0.000175723
0.000175722
0.000175722
0.000175721
0.000175721
0.00017572
0.000175719
0.000175718
0.000175717
0.000175717
0.000175716
0.000175715
0.000175715
0.000175714
0.000175713
0.000175713
0.000175712
0.000175712
0.000175711
0.000174544
0.000174544
0.000174544
0.000174545
0.000174545
0.000174545
0.000174545
0.000174546
0.000174546
0.000174547
0.000174547
0.000174547
0.000174548
0.000174548
0.000174548
0.000174548
0.000174549
0.000174549
0.000174549
0.000174549
0.000174549
0.000174549
0.000174549
0.000174549
0.000174549
0.000174549
0.000174549
0.000174549
0.000174548
0.000174548
0.000174548
0.000174548
0.000174547
0.000174547
0.000174547
0.000174546
0.000174546
0.000174545
0.000174545
0.000174544
0.000174544
0.000174543
0.000174543
0.000174542
0.000174542
0.000174541
0.00017454
0.000174539
0.000174538
0.000174538
0.000174537
0.000174536
0.000174535
0.000174535
0.000174534
0.000174533
0.000174533
0.000174532
0.000174531
0.000173302
0.000173303
0.000173303
0.000173303
0.000173303
0.000173304
0.000173304
0.000173304
0.000173305
0.000173305
0.000173306
0.000173306
0.000173306
0.000173307
0.000173307
0.000173307
0.000173307
0.000173308
0.000173308
0.000173308
0.000173308
0.000173308
0.000173308
0.000173308
0.000173308
0.000173308
0.000173308
0.000173308
0.000173308
0.000173307
0.000173307
0.000173307
0.000173307
0.000173306
0.000173306
0.000173305
0.000173305
0.000173305
0.000173304
0.000173304
0.000173303
0.000173303
0.000173302
0.000173301
0.000173301
0.0001733
0.000173299
0.000173299
0.000173298
0.000173297
0.000173296
0.000173295
0.000173294
0.000173294
0.000173293
0.000173292
0.000173292
0.000173291
0.00017329
0.000172002
0.000172002
0.000172002
0.000172002
0.000172002
0.000172003
0.000172003
0.000172003
0.000172004
0.000172004
0.000172005
0.000172005
0.000172006
0.000172006
0.000172006
0.000172007
0.000172007
0.000172007
0.000172007
0.000172007
0.000172008
0.000172008
0.000172008
0.000172008
0.000172008
0.000172008
0.000172008
0.000172007
0.000172007
0.000172007
0.000172007
0.000172007
0.000172006
0.000172006
0.000172006
0.000172005
0.000172005
0.000172004
0.000172004
0.000172003
0.000172003
0.000172002
0.000172002
0.000172001
0.000172001
0.000172
0.000171999
0.000171998
0.000171998
0.000171997
0.000171996
0.000171995
0.000171994
0.000171993
0.000171993
0.000171992
0.000171991
0.00017199
0.00017199
0.000170644
0.000170644
0.000170644
0.000170644
0.000170645
0.000170645
0.000170645
0.000170646
0.000170646
0.000170646
0.000170647
0.000170647
0.000170648
0.000170648
0.000170648
0.000170649
0.000170649
0.000170649
0.00017065
0.00017065
0.00017065
0.00017065
0.00017065
0.00017065
0.00017065
0.00017065
0.00017065
0.00017065
0.00017065
0.00017065
0.000170649
0.000170649
0.000170649
0.000170649
0.000170648
0.000170648
0.000170648
0.000170647
0.000170647
0.000170646
0.000170646
0.000170645
0.000170645
0.000170644
0.000170643
0.000170643
0.000170642
0.000170641
0.00017064
0.00017064
0.000170639
0.000170638
0.000170637
0.000170636
0.000170635
0.000170634
0.000170634
0.000170633
0.000170632
0.000169231
0.000169231
0.000169231
0.000169232
0.000169232
0.000169232
0.000169233
0.000169233
0.000169234
0.000169234
0.000169234
0.000169235
0.000169235
0.000169236
0.000169236
0.000169236
0.000169237
0.000169237
0.000169237
0.000169237
0.000169238
0.000169238
0.000169238
0.000169238
0.000169238
0.000169238
0.000169238
0.000169238
0.000169238
0.000169238
0.000169237
0.000169237
0.000169237
0.000169237
0.000169236
0.000169236
0.000169236
0.000169235
0.000169235
0.000169234
0.000169234
0.000169233
0.000169233
0.000169232
0.000169231
0.000169231
0.00016923
0.000169229
0.000169228
0.000169228
0.000169227
0.000169226
0.000169225
0.000169224
0.000169223
0.000169222
0.000169222
0.000169221
0.00016922
0.000167766
0.000167766
0.000167766
0.000167767
0.000167767
0.000167767
0.000167768
0.000167768
0.000167769
0.000167769
0.00016777
0.00016777
0.00016777
0.000167771
0.000167771
0.000167772
0.000167772
0.000167772
0.000167772
0.000167773
0.000167773
0.000167773
0.000167773
0.000167773
0.000167773
0.000167773
0.000167773
0.000167773
0.000167773
0.000167773
0.000167773
0.000167773
0.000167772
0.000167772
0.000167772
0.000167771
0.000167771
0.000167771
0.00016777
0.00016777
0.000167769
0.000167769
0.000167768
0.000167768
0.000167767
0.000167766
0.000167766
0.000167765
0.000167764
0.000167763
0.000167762
0.000167762
0.000167761
0.00016776
0.000167759
0.000167758
0.000167757
0.000167756
0.000167755
0.000166251
0.000166251
0.000166251
0.000166252
0.000166252
0.000166253
0.000166253
0.000166253
0.000166254
0.000166254
0.000166255
0.000166255
0.000166255
0.000166256
0.000166256
0.000166257
0.000166257
0.000166257
0.000166258
0.000166258
0.000166258
0.000166258
0.000166258
0.000166259
0.000166259
0.000166259
0.000166259
0.000166259
0.000166258
0.000166258
0.000166258
0.000166258
0.000166258
0.000166257
0.000166257
0.000166257
0.000166256
0.000166256
0.000166256
0.000166255
0.000166255
0.000166254
0.000166254
0.000166253
0.000166252
0.000166252
0.000166251
0.00016625
0.00016625
0.000166249
0.000166248
0.000166247
0.000166246
0.000166245
0.000166245
0.000166244
0.000166243
0.000166242
0.000166241
0.000164688
0.000164689
0.000164689
0.000164689
0.00016469
0.00016469
0.00016469
0.000164691
0.000164691
0.000164692
0.000164692
0.000164693
0.000164693
0.000164693
0.000164694
0.000164694
0.000164695
0.000164695
0.000164695
0.000164695
0.000164696
0.000164696
0.000164696
0.000164696
0.000164696
0.000164696
0.000164696
0.000164696
0.000164696
0.000164696
0.000164696
0.000164696
0.000164696
0.000164695
0.000164695
0.000164695
0.000164694
0.000164694
0.000164693
0.000164693
0.000164693
0.000164692
0.000164692
0.000164691
0.00016469
0.00016469
0.000164689
0.000164688
0.000164688
0.000164687
0.000164686
0.000164685
0.000164684
0.000164683
0.000164683
0.000164682
0.000164681
0.00016468
0.000164679
0.000163081
0.000163081
0.000163081
0.000163082
0.000163082
0.000163083
0.000163083
0.000163083
0.000163084
0.000163084
0.000163085
0.000163085
0.000163085
0.000163086
0.000163086
0.000163087
0.000163087
0.000163087
0.000163088
0.000163088
0.000163088
0.000163088
0.000163088
0.000163089
0.000163089
0.000163089
0.000163089
0.000163089
0.000163089
0.000163089
0.000163088
0.000163088
0.000163088
0.000163088
0.000163088
0.000163087
0.000163087
0.000163087
0.000163086
0.000163086
0.000163085
0.000163085
0.000163084
0.000163084
0.000163083
0.000163083
0.000163082
0.000163081
0.00016308
0.00016308
0.000163079
0.000163078
0.000163077
0.000163076
0.000163075
0.000163075
0.000163074
0.000163073
0.000163072
0.00016143
0.000161431
0.000161431
0.000161432
0.000161432
0.000161433
0.000161433
0.000161433
0.000161434
0.000161434
0.000161435
0.000161435
0.000161435
0.000161436
0.000161436
0.000161437
0.000161437
0.000161437
0.000161438
0.000161438
0.000161438
0.000161438
0.000161438
0.000161439
0.000161439
0.000161439
0.000161439
0.000161439
0.000161439
0.000161439
0.000161439
0.000161438
0.000161438
0.000161438
0.000161438
0.000161437
0.000161437
0.000161437
0.000161436
0.000161436
0.000161435
0.000161435
0.000161434
0.000161434
0.000161433
0.000161433
0.000161432
0.000161431
0.000161431
0.00016143
0.000161429
0.000161428
0.000161428
0.000161427
0.000161426
0.000161425
0.000161424
0.000161423
0.000161422
0.000159741
0.000159741
0.000159741
0.000159742
0.000159742
0.000159743
0.000159743
0.000159744
0.000159744
0.000159744
0.000159745
0.000159745
0.000159746
0.000159746
0.000159746
0.000159747
0.000159747
0.000159747
0.000159748
0.000159748
0.000159748
0.000159748
0.000159749
0.000159749
0.000159749
0.000159749
0.000159749
0.000159749
0.000159749
0.000159749
0.000159749
0.000159749
0.000159748
0.000159748
0.000159748
0.000159748
0.000159747
0.000159747
0.000159747
0.000159746
0.000159746
0.000159745
0.000159745
0.000159744
0.000159744
0.000159743
0.000159743
0.000159742
0.000159741
0.000159741
0.00015974
0.000159739
0.000159738
0.000159737
0.000159737
0.000159736
0.000159735
0.000159734
0.000159733
0.000158014
0.000158014
0.000158015
0.000158015
0.000158016
0.000158016
0.000158016
0.000158017
0.000158017
0.000158018
0.000158018
0.000158019
0.000158019
0.000158019
0.00015802
0.00015802
0.00015802
0.000158021
0.000158021
0.000158021
0.000158021
0.000158022
0.000158022
0.000158022
0.000158022
0.000158022
0.000158022
0.000158022
0.000158022
0.000158022
0.000158022
0.000158022
0.000158022
0.000158022
0.000158021
0.000158021
0.000158021
0.00015802
0.00015802
0.00015802
0.000158019
0.000158019
0.000158018
0.000158018
0.000158017
0.000158017
0.000158016
0.000158015
0.000158015
0.000158014
0.000158013
0.000158013
0.000158012
0.000158011
0.00015801
0.000158009
0.000158008
0.000158008
0.000158007
0.000156253
0.000156254
0.000156254
0.000156254
0.000156255
0.000156255
0.000156256
0.000156256
0.000156257
0.000156257
0.000156258
0.000156258
0.000156258
0.000156259
0.000156259
0.000156259
0.00015626
0.00015626
0.00015626
0.000156261
0.000156261
0.000156261
0.000156261
0.000156261
0.000156261
0.000156261
0.000156262
0.000156262
0.000156262
0.000156261
0.000156261
0.000156261
0.000156261
0.000156261
0.000156261
0.00015626
0.00015626
0.00015626
0.00015626
0.000156259
0.000156259
0.000156258
0.000156258
0.000156257
0.000156257
0.000156256
0.000156256
0.000156255
0.000156254
0.000156254
0.000156253
0.000156252
0.000156251
0.000156251
0.00015625
0.000156249
0.000156248
0.000156247
0.000156246
0.000154462
0.000154462
0.000154462
0.000154463
0.000154463
0.000154464
0.000154464
0.000154465
0.000154465
0.000154466
0.000154466
0.000154466
0.000154467
0.000154467
0.000154467
0.000154468
0.000154468
0.000154468
0.000154469
0.000154469
0.000154469
0.000154469
0.00015447
0.00015447
0.00015447
0.00015447
0.00015447
0.00015447
0.00015447
0.00015447
0.00015447
0.00015447
0.00015447
0.000154469
0.000154469
0.000154469
0.000154469
0.000154468
0.000154468
0.000154468
0.000154467
0.000154467
0.000154466
0.000154466
0.000154465
0.000154465
0.000154464
0.000154464
0.000154463
0.000154462
0.000154462
0.000154461
0.00015446
0.000154459
0.000154459
0.000154458
0.000154457
0.000154456
0.000154455
0.000152642
0.000152643
0.000152643
0.000152644
0.000152644
0.000152645
0.000152645
0.000152646
0.000152646
0.000152646
0.000152647
0.000152647
0.000152648
0.000152648
0.000152648
0.000152649
0.000152649
0.000152649
0.000152649
0.00015265
0.00015265
0.00015265
0.00015265
0.00015265
0.00015265
0.000152651
0.000152651
0.000152651
0.000152651
0.000152651
0.00015265
0.00015265
0.00015265
0.00015265
0.00015265
0.00015265
0.000152649
0.000152649
0.000152649
0.000152648
0.000152648
0.000152648
0.000152647
0.000152647
0.000152646
0.000152646
0.000152645
0.000152644
0.000152644
0.000152643
0.000152643
0.000152642
0.000152641
0.00015264
0.00015264
0.000152639
0.000152638
0.000152637
0.000152636
0.000150799
0.000150799
0.0001508
0.0001508
0.000150801
0.000150801
0.000150802
0.000150802
0.000150802
0.000150803
0.000150803
0.000150804
0.000150804
0.000150804
0.000150805
0.000150805
0.000150805
0.000150805
0.000150806
0.000150806
0.000150806
0.000150806
0.000150806
0.000150807
0.000150807
0.000150807
0.000150807
0.000150807
0.000150807
0.000150807
0.000150807
0.000150807
0.000150807
0.000150806
0.000150806
0.000150806
0.000150806
0.000150805
0.000150805
0.000150805
0.000150804
0.000150804
0.000150804
0.000150803
0.000150803
0.000150802
0.000150802
0.000150801
0.0001508
0.0001508
0.000150799
0.000150798
0.000150798
0.000150797
0.000150796
0.000150795
0.000150795
0.000150794
0.000150793
0.000148934
0.000148935
0.000148935
0.000148936
0.000148936
0.000148937
0.000148937
0.000148937
0.000148938
0.000148938
0.000148939
0.000148939
0.000148939
0.00014894
0.00014894
0.00014894
0.000148941
0.000148941
0.000148941
0.000148941
0.000148942
0.000148942
0.000148942
0.000148942
0.000148942
0.000148942
0.000148942
0.000148942
0.000148942
0.000148942
0.000148942
0.000148942
0.000148942
0.000148942
0.000148942
0.000148941
0.000148941
0.000148941
0.000148941
0.00014894
0.00014894
0.000148939
0.000148939
0.000148939
0.000148938
0.000148938
0.000148937
0.000148937
0.000148936
0.000148935
0.000148935
0.000148934
0.000148933
0.000148933
0.000148932
0.000148931
0.00014893
0.00014893
0.000148929
0.000147053
0.000147053
0.000147053
0.000147054
0.000147054
0.000147055
0.000147055
0.000147056
0.000147056
0.000147056
0.000147057
0.000147057
0.000147057
0.000147058
0.000147058
0.000147058
0.000147059
0.000147059
0.000147059
0.000147059
0.00014706
0.00014706
0.00014706
0.00014706
0.00014706
0.00014706
0.00014706
0.00014706
0.00014706
0.00014706
0.00014706
0.00014706
0.00014706
0.00014706
0.00014706
0.000147059
0.000147059
0.000147059
0.000147059
0.000147058
0.000147058
0.000147058
0.000147057
0.000147057
0.000147056
0.000147056
0.000147055
0.000147055
0.000147054
0.000147054
0.000147053
0.000147052
0.000147052
0.000147051
0.00014705
0.00014705
0.000147049
0.000147048
0.000147047
0.000145157
0.000145157
0.000145158
0.000145158
0.000145159
0.000145159
0.00014516
0.00014516
0.00014516
0.000145161
0.000145161
0.000145161
0.000145162
0.000145162
0.000145162
0.000145163
0.000145163
0.000145163
0.000145163
0.000145164
0.000145164
0.000145164
0.000145164
0.000145164
0.000145164
0.000145164
0.000145164
0.000145164
0.000145164
0.000145164
0.000145164
0.000145164
0.000145164
0.000145164
0.000145164
0.000145164
0.000145163
0.000145163
0.000145163
0.000145162
0.000145162
0.000145162
0.000145161
0.000145161
0.000145161
0.00014516
0.00014516
0.000145159
0.000145159
0.000145158
0.000145157
0.000145157
0.000145156
0.000145155
0.000145155
0.000145154
0.000145153
0.000145153
0.000145152
0.000143251
0.000143252
0.000143252
0.000143253
0.000143253
0.000143253
0.000143254
0.000143254
0.000143255
0.000143255
0.000143255
0.000143256
0.000143256
0.000143256
0.000143257
0.000143257
0.000143257
0.000143257
0.000143258
0.000143258
0.000143258
0.000143258
0.000143258
0.000143258
0.000143258
0.000143259
0.000143259
0.000143259
0.000143259
0.000143258
0.000143258
0.000143258
0.000143258
0.000143258
0.000143258
0.000143258
0.000143257
0.000143257
0.000143257
0.000143257
0.000143256
0.000143256
0.000143256
0.000143255
0.000143255
0.000143254
0.000143254
0.000143253
0.000143253
0.000143252
0.000143252
0.000143251
0.000143251
0.00014325
0.000143249
0.000143249
0.000143248
0.000143247
0.000143246
0.000141339
0.00014134
0.00014134
0.000141341
0.000141341
0.000141341
0.000141342
0.000141342
0.000141343
0.000141343
0.000141343
0.000141344
0.000141344
0.000141344
0.000141345
0.000141345
0.000141345
0.000141345
0.000141346
0.000141346
0.000141346
0.000141346
0.000141346
0.000141346
0.000141346
0.000141346
0.000141346
0.000141346
0.000141346
0.000141346
0.000141346
0.000141346
0.000141346
0.000141346
0.000141346
0.000141346
0.000141345
0.000141345
0.000141345
0.000141345
0.000141344
0.000141344
0.000141344
0.000141343
0.000141343
0.000141342
0.000141342
0.000141341
0.000141341
0.00014134
0.00014134
0.000141339
0.000141339
0.000141338
0.000141337
0.000141337
0.000141336
0.000141335
0.000141334
0.000139425
0.000139425
0.000139426
0.000139426
0.000139427
0.000139427
0.000139427
0.000139428
0.000139428
0.000139428
0.000139429
0.000139429
0.000139429
0.00013943
0.00013943
0.00013943
0.00013943
0.000139431
0.000139431
0.000139431
0.000139431
0.000139431
0.000139431
0.000139431
0.000139432
0.000139432
0.000139432
0.000139432
0.000139432
0.000139432
0.000139432
0.000139431
0.000139431
0.000139431
0.000139431
0.000139431
0.000139431
0.00013943
0.00013943
0.00013943
0.00013943
0.000139429
0.000139429
0.000139428
0.000139428
0.000139428
0.000139427
0.000139427
0.000139426
0.000139426
0.000139425
0.000139425
0.000139424
0.000139424
0.000139423
0.000139422
0.000139422
0.000139421
0.00013942
0.000137512
0.000137512
0.000137512
0.000137513
0.000137513
0.000137514
0.000137514
0.000137514
0.000137515
0.000137515
0.000137515
0.000137516
0.000137516
0.000137516
0.000137517
0.000137517
0.000137517
0.000137517
0.000137517
0.000137518
0.000137518
0.000137518
0.000137518
0.000137518
0.000137518
0.000137518
0.000137518
0.000137518
0.000137518
0.000137518
0.000137518
0.000137518
0.000137518
0.000137518
0.000137518
0.000137517
0.000137517
0.000137517
0.000137517
0.000137516
0.000137516
0.000137516
0.000137515
0.000137515
0.000137515
0.000137514
0.000137514
0.000137513
0.000137513
0.000137512
0.000137512
0.000137511
0.000137511
0.00013751
0.00013751
0.000137509
0.000137508
0.000137508
0.000137507
0.000135604
0.000135604
0.000135604
0.000135605
0.000135605
0.000135605
0.000135606
0.000135606
0.000135607
0.000135607
0.000135607
0.000135608
0.000135608
0.000135608
0.000135608
0.000135609
0.000135609
0.000135609
0.000135609
0.000135609
0.000135609
0.00013561
0.00013561
0.00013561
0.00013561
0.00013561
0.00013561
0.00013561
0.00013561
0.00013561
0.00013561
0.00013561
0.000135609
0.000135609
0.000135609
0.000135609
0.000135609
0.000135609
0.000135608
0.000135608
0.000135608
0.000135607
0.000135607
0.000135607
0.000135606
0.000135606
0.000135606
0.000135605
0.000135605
0.000135604
0.000135604
0.000135603
0.000135603
0.000135602
0.000135602
0.000135601
0.0001356
0.0001356
0.000135599
0.000133704
0.000133705
0.000133705
0.000133705
0.000133706
0.000133706
0.000133706
0.000133707
0.000133707
0.000133707
0.000133708
0.000133708
0.000133708
0.000133709
0.000133709
0.000133709
0.000133709
0.000133709
0.00013371
0.00013371
0.00013371
0.00013371
0.00013371
0.00013371
0.00013371
0.00013371
0.00013371
0.00013371
0.00013371
0.00013371
0.00013371
0.00013371
0.00013371
0.00013371
0.00013371
0.000133709
0.000133709
0.000133709
0.000133709
0.000133709
0.000133708
0.000133708
0.000133708
0.000133707
0.000133707
0.000133707
0.000133706
0.000133706
0.000133705
0.000133705
0.000133704
0.000133704
0.000133703
0.000133703
0.000133702
0.000133702
0.000133701
0.0001337
0.0001337
0.000131818
0.000131818
0.000131818
0.000131819
0.000131819
0.000131819
0.00013182
0.00013182
0.00013182
0.000131821
0.000131821
0.000131821
0.000131821
0.000131822
0.000131822
0.000131822
0.000131822
0.000131823
0.000131823
0.000131823
0.000131823
0.000131823
0.000131823
0.000131823
0.000131823
0.000131823
0.000131823
0.000131823
0.000131823
0.000131823
0.000131823
0.000131823
0.000131823
0.000131823
0.000131823
0.000131822
0.000131822
0.000131822
0.000131822
0.000131822
0.000131821
0.000131821
0.000131821
0.00013182
0.00013182
0.00013182
0.000131819
0.000131819
0.000131818
0.000131818
0.000131818
0.000131817
0.000131817
0.000131816
0.000131815
0.000131815
0.000131814
0.000131814
0.000131813
0.000129947
0.000129947
0.000129948
0.000129948
0.000129948
0.000129949
0.000129949
0.000129949
0.00012995
0.00012995
0.00012995
0.000129951
0.000129951
0.000129951
0.000129951
0.000129951
0.000129952
0.000129952
0.000129952
0.000129952
0.000129952
0.000129952
0.000129952
0.000129952
0.000129953
0.000129953
0.000129953
0.000129953
0.000129952
0.000129952
0.000129952
0.000129952
0.000129952
0.000129952
0.000129952
0.000129952
0.000129952
0.000129951
0.000129951
0.000129951
0.000129951
0.00012995
0.00012995
0.00012995
0.000129949
0.000129949
0.000129949
0.000129948
0.000129948
0.000129947
0.000129947
0.000129946
0.000129946
0.000129945
0.000129945
0.000129944
0.000129944
0.000129943
0.000129943
0.000128096
0.000128097
0.000128097
0.000128097
0.000128098
0.000128098
0.000128098
0.000128099
0.000128099
0.000128099
0.000128099
0.0001281
0.0001281
0.0001281
0.0001281
0.000128101
0.000128101
0.000128101
0.000128101
0.000128101
0.000128101
0.000128101
0.000128101
0.000128102
0.000128102
0.000128102
0.000128102
0.000128102
0.000128102
0.000128101
0.000128101
0.000128101
0.000128101
0.000128101
0.000128101
0.000128101
0.000128101
0.0001281
0.0001281
0.0001281
0.0001281
0.000128099
0.000128099
0.000128099
0.000128098
0.000128098
0.000128098
0.000128097
0.000128097
0.000128097
0.000128096
0.000128096
0.000128095
0.000128095
0.000128094
0.000128094
0.000128093
0.000128093
0.000128092
0.000126269
0.000126269
0.00012627
0.00012627
0.00012627
0.000126271
0.000126271
0.000126271
0.000126271
0.000126272
0.000126272
0.000126272
0.000126272
0.000126273
0.000126273
0.000126273
0.000126273
0.000126273
0.000126273
0.000126274
0.000126274
0.000126274
0.000126274
0.000126274
0.000126274
0.000126274
0.000126274
0.000126274
0.000126274
0.000126274
0.000126274
0.000126274
0.000126274
0.000126273
0.000126273
0.000126273
0.000126273
0.000126273
0.000126273
0.000126272
0.000126272
0.000126272
0.000126271
0.000126271
0.000126271
0.000126271
0.00012627
0.00012627
0.000126269
0.000126269
0.000126269
0.000126268
0.000126268
0.000126267
0.000126267
0.000126266
0.000126266
0.000126265
0.000126265
0.000124468
0.000124468
0.000124469
0.000124469
0.000124469
0.00012447
0.00012447
0.00012447
0.000124471
0.000124471
0.000124471
0.000124471
0.000124471
0.000124472
0.000124472
0.000124472
0.000124472
0.000124472
0.000124472
0.000124473
0.000124473
0.000124473
0.000124473
0.000124473
0.000124473
0.000124473
0.000124473
0.000124473
0.000124473
0.000124473
0.000124473
0.000124473
0.000124472
0.000124472
0.000124472
0.000124472
0.000124472
0.000124472
0.000124471
0.000124471
0.000124471
0.000124471
0.00012447
0.00012447
0.00012447
0.00012447
0.000124469
0.000124469
0.000124468
0.000124468
0.000124468
0.000124467
0.000124467
0.000124466
0.000124466
0.000124465
0.000124465
0.000124464
0.000124464
0.000122697
0.000122698
0.000122698
0.000122698
0.000122698
0.000122699
0.000122699
0.000122699
0.000122699
0.0001227
0.0001227
0.0001227
0.0001227
0.000122701
0.000122701
0.000122701
0.000122701
0.000122701
0.000122701
0.000122701
0.000122702
0.000122702
0.000122702
0.000122702
0.000122702
0.000122702
0.000122702
0.000122702
0.000122702
0.000122702
0.000122702
0.000122701
0.000122701
0.000122701
0.000122701
0.000122701
0.000122701
0.000122701
0.0001227
0.0001227
0.0001227
0.0001227
0.000122699
0.000122699
0.000122699
0.000122698
0.000122698
0.000122698
0.000122697
0.000122697
0.000122697
0.000122696
0.000122696
0.000122695
0.000122695
0.000122694
0.000122694
0.000122693
0.000122693
0.000120959
0.000120959
0.00012096
0.00012096
0.00012096
0.000120961
0.000120961
0.000120961
0.000120961
0.000120962
0.000120962
0.000120962
0.000120962
0.000120962
0.000120963
0.000120963
0.000120963
0.000120963
0.000120963
0.000120963
0.000120963
0.000120963
0.000120963
0.000120963
0.000120963
0.000120963
0.000120963
0.000120963
0.000120963
0.000120963
0.000120963
0.000120963
0.000120963
0.000120963
0.000120963
0.000120963
0.000120962
0.000120962
0.000120962
0.000120962
0.000120962
0.000120961
0.000120961
0.000120961
0.000120961
0.00012096
0.00012096
0.00012096
0.000120959
0.000120959
0.000120959
0.000120958
0.000120958
0.000120957
0.000120957
0.000120956
0.000120956
0.000120955
0.000120955
0.000119257
0.000119257
0.000119258
0.000119258
0.000119258
0.000119258
0.000119259
0.000119259
0.000119259
0.000119259
0.00011926
0.00011926
0.00011926
0.00011926
0.00011926
0.00011926
0.000119261
0.000119261
0.000119261
0.000119261
0.000119261
0.000119261
0.000119261
0.000119261
0.000119261
0.000119261
0.000119261
0.000119261
0.000119261
0.000119261
0.000119261
0.000119261
0.000119261
0.000119261
0.00011926
0.00011926
0.00011926
0.00011926
0.00011926
0.00011926
0.000119259
0.000119259
0.000119259
0.000119259
0.000119258
0.000119258
0.000119258
0.000119257
0.000119257
0.000119257
0.000119256
0.000119256
0.000119255
0.000119255
0.000119255
0.000119254
0.000119254
0.000119253
0.000119253
0.000117594
0.000117594
0.000117594
0.000117594
0.000117595
0.000117595
0.000117595
0.000117595
0.000117596
0.000117596
0.000117596
0.000117596
0.000117596
0.000117596
0.000117597
0.000117597
0.000117597
0.000117597
0.000117597
0.000117597
0.000117597
0.000117597
0.000117597
0.000117597
0.000117597
0.000117597
0.000117597