/*--------------------------------*- C++ -*----------------------------------*\
  =========                 |
  \\      /  F ield         | OpenFOAM: The Open Source CFD Toolbox
   \\    /   O peration     | Website:  https://openfoam.org
    \\  /    A nd           | Version:  7
     \\/     M anipulation  |
\*---------------------------------------------------------------------------*/
FoamFile
{
    version     2.0;
    format      ascii;
    class       surfaceScalarField;
    location    "16500";
    object      phi;
}
// * * * * * * * * * * * * * * * * * * * * * * * * * * * * * * * * * * * * * //

dimensions      [0 3 -1 0 0 0 0];

internalField   nonuniform List<scalar> 
47680
(
2.01553e-06
-3.9499e-14
2.01553e-06
-6.49887e-12
2.01554e-06
-7.59357e-12
2.01555e-06
-4.57554e-12
2.01555e-06
-4.9883e-13
2.01554e-06
3.01275e-12
2.01554e-06
5.6304e-12
2.01553e-06
7.33524e-12
2.01552e-06
8.27163e-12
2.01551e-06
8.50994e-12
2.01551e-06
8.11999e-12
2.0155e-06
7.45123e-12
2.01549e-06
6.80734e-12
2.01549e-06
6.01917e-12
2.01548e-06
5.25531e-12
2.01548e-06
4.53076e-12
2.01547e-06
3.60486e-12
2.01547e-06
2.85731e-12
2.01547e-06
2.09787e-12
2.01547e-06
1.23971e-12
2.01547e-06
5.27711e-13
2.01547e-06
-1.01723e-13
2.01547e-06
-7.23025e-13
2.01547e-06
-1.39931e-12
2.01547e-06
-1.9582e-12
2.01547e-06
-2.29193e-12
2.01547e-06
-2.71561e-12
2.01548e-06
-3.18704e-12
2.01548e-06
-3.42944e-12
2.01548e-06
-3.64686e-12
2.01549e-06
-4.01691e-12
2.01549e-06
-4.2794e-12
2.0155e-06
-4.38198e-12
2.0155e-06
-4.49331e-12
2.01551e-06
-4.68876e-12
2.01551e-06
-4.80488e-12
2.01552e-06
-4.78612e-12
2.01552e-06
-4.86272e-12
2.01553e-06
-4.85648e-12
2.01553e-06
-4.90078e-12
2.01554e-06
-4.49302e-12
2.01554e-06
-4.01205e-12
2.01554e-06
-3.16587e-12
2.01554e-06
-2.28926e-12
2.01555e-06
-1.22883e-12
2.01555e-06
4.63768e-13
2.01554e-06
1.00465e-12
2.01554e-06
1.07163e-12
2.01554e-06
7.33713e-13
2.01554e-06
1.09016e-13
2.01554e-06
-2.94428e-13
2.01554e-06
-7.10772e-13
2.01554e-06
-1.04744e-12
2.01555e-06
-1.31308e-12
2.01555e-06
-1.5019e-12
2.01555e-06
-1.65722e-12
2.01555e-06
-1.69072e-12
2.01555e-06
-1.58984e-12
2.01555e-06
-1.36398e-12
2.01556e-06
-1.11782e-12
2.01556e-06
-8.1723e-13
2.01556e-06
-4.08382e-13
2.01556e-06
1.47343e-14
2.01556e-06
4.3111e-13
2.01556e-06
7.99313e-13
2.01555e-06
1.0957e-12
2.01555e-06
1.4368e-12
2.01555e-06
1.75673e-12
2.01555e-06
1.90926e-12
2.01555e-06
2.06417e-12
2.01554e-06
2.12069e-12
2.01554e-06
2.19963e-12
2.01554e-06
2.27463e-12
2.01554e-06
2.22357e-12
2.01554e-06
2.28093e-12
2.01553e-06
2.29878e-12
2.01553e-06
2.14556e-12
2.01553e-06
1.93895e-12
2.01553e-06
1.81184e-12
2.01553e-06
1.67901e-12
2.01552e-06
1.50331e-12
2.01552e-06
1.39937e-12
2.01552e-06
1.32831e-12
2.01552e-06
1.15264e-12
2.01552e-06
9.29489e-13
2.01552e-06
7.11495e-13
2.01552e-06
2.64486e-13
2.01552e-06
-8.50404e-14
2.01552e-06
-1.66508e-13
2.01552e-06
-1.62316e-13
2.01552e-06
-2.79494e-14
2.01552e-06
-5.82786e-15
2.01552e-06
-4.38796e-14
2.01552e-06
-1.39471e-13
2.01552e-06
-3.06666e-13
2.01552e-06
-4.10958e-13
2.01552e-06
-5.73013e-13
2.01552e-06
-6.97854e-13
2.01552e-06
-8.0291e-13
2.01552e-06
-7.0639e-13
2.01552e-06
-6.94993e-13
2.01552e-06
-2.30661e-13
2.01552e-06
1.32849e-13
2.01552e-06
9.08025e-13
2.01552e-06
2.06983e-12
2.01552e-06
2.16265e-12
2.01552e-06
1.94085e-12
2.01552e-06
1.27976e-12
2.01551e-06
4.35306e-13
2.01552e-06
-3.52719e-13
2.01552e-06
-1.04291e-12
2.01552e-06
-1.53513e-12
2.01552e-06
-1.96462e-12
2.01552e-06
-2.24515e-12
2.01552e-06
-2.44315e-12
2.01553e-06
-2.36922e-12
2.01553e-06
-1.76031e-12
2.01553e-06
-2.02402e-12
2.01553e-06
-3.33145e-13
3.20253e-12
6.22755e-06
-5.03325e-12
6.22757e-06
-2.58382e-11
6.22759e-06
-2.80712e-11
6.2276e-06
-1.57238e-11
6.2276e-06
1.82314e-13
6.22759e-06
1.37747e-11
6.22757e-06
2.37769e-11
6.22755e-06
3.02479e-11
6.22752e-06
3.37277e-11
6.22749e-06
3.43996e-11
6.22747e-06
3.27469e-11
6.22745e-06
3.00853e-11
6.22743e-06
2.73664e-11
6.22741e-06
2.42111e-11
6.22739e-06
2.11063e-11
6.22738e-06
1.80691e-11
6.22737e-06
1.44369e-11
6.22736e-06
1.13392e-11
6.22735e-06
8.26224e-12
6.22735e-06
4.90518e-12
6.22735e-06
2.00952e-12
6.22735e-06
-5.70213e-13
6.22735e-06
-3.10415e-12
6.22736e-06
-5.73155e-12
6.22736e-06
-7.90917e-12
6.22737e-06
-9.34419e-12
6.22738e-06
-1.10144e-11
6.22739e-06
-1.2826e-11
6.2274e-06
-1.38989e-11
6.22741e-06
-1.48158e-11
6.22742e-06
-1.61615e-11
6.22743e-06
-1.71643e-11
6.22745e-06
-1.76251e-11
6.22746e-06
-1.80895e-11
6.22747e-06
-1.88092e-11
6.22749e-06
-1.92655e-11
6.2275e-06
-1.92658e-11
6.22752e-06
-1.95091e-11
6.22753e-06
-1.95732e-11
6.22755e-06
-1.96645e-11
6.22756e-06
-1.82304e-11
6.22757e-06
-1.63494e-11
6.22758e-06
-1.33658e-11
6.22759e-06
-1.01473e-11
6.2276e-06
-6.08604e-12
6.2276e-06
-3.79356e-14
6.2276e-06
2.51213e-12
6.22759e-06
3.06286e-12
6.22759e-06
2.05562e-12
6.22759e-06
3.37211e-15
6.22759e-06
-1.49554e-12
6.2276e-06
-2.99256e-12
6.2276e-06
-4.24814e-12
6.2276e-06
-5.21522e-12
6.22761e-06
-5.8944e-12
6.22761e-06
-6.40217e-12
6.22762e-06
-6.45189e-12
6.22762e-06
-5.98396e-12
6.22762e-06
-5.0695e-12
6.22763e-06
-4.0356e-12
6.22763e-06
-2.77851e-12
6.22763e-06
-1.14902e-12
6.22763e-06
5.4203e-13
6.22763e-06
2.18513e-12
6.22763e-06
3.65117e-12
6.22762e-06
4.86925e-12
6.22762e-06
6.19693e-12
6.22761e-06
7.41174e-12
6.2276e-06
8.05846e-12
6.2276e-06
8.62532e-12
6.22759e-06
8.87447e-12
6.22758e-06
9.17157e-12
6.22758e-06
9.43349e-12
6.22757e-06
9.28729e-12
6.22756e-06
9.4237e-12
6.22756e-06
9.42576e-12
6.22755e-06
8.85592e-12
6.22754e-06
8.06566e-12
6.22754e-06
7.51816e-12
6.22753e-06
7.00143e-12
6.22753e-06
6.35329e-12
6.22752e-06
5.91016e-12
6.22752e-06
5.58118e-12
6.22751e-06
4.89578e-12
6.22751e-06
4.03555e-12
6.22751e-06
3.05966e-12
6.22751e-06
1.3835e-12
6.22751e-06
1.26794e-13
6.22751e-06
-2.4347e-13
6.22751e-06
-2.48651e-13
6.22751e-06
1.70384e-13
6.22751e-06
2.53304e-13
6.22751e-06
9.60944e-14
6.22751e-06
-2.72426e-13
6.22751e-06
-8.83232e-13
6.22751e-06
-1.35654e-12
6.22751e-06
-1.99542e-12
6.22751e-06
-2.56286e-12
6.22751e-06
-3.01098e-12
6.22752e-06
-2.87223e-12
6.22752e-06
-2.87242e-12
6.22752e-06
-1.44843e-12
6.22752e-06
-1.60921e-13
6.22752e-06
2.66347e-12
6.22751e-06
6.75175e-12
6.22751e-06
7.41657e-12
6.2275e-06
6.65032e-12
6.2275e-06
4.35117e-12
6.2275e-06
1.32846e-12
6.2275e-06
-1.56666e-12
6.2275e-06
-4.12156e-12
6.22751e-06
-6.01829e-12
6.22751e-06
-7.62579e-12
6.22752e-06
-8.7379e-12
6.22753e-06
-9.55133e-12
6.22754e-06
-9.32336e-12
6.22754e-06
-7.26506e-12
6.22755e-06
-8.03428e-12
6.22755e-06
-1.27125e-12
8.47982e-12
1.07242e-05
-2.05955e-11
1.07242e-05
-5.88582e-11
1.07242e-05
-5.89846e-11
1.07243e-05
-3.02412e-11
1.07243e-05
4.92749e-12
1.07242e-05
3.46324e-11
1.07242e-05
5.62519e-11
1.07242e-05
7.0129e-11
1.07241e-05
7.74076e-11
1.07241e-05
7.83492e-11
1.0724e-05
7.4398e-11
1.0724e-05
6.83764e-11
1.0724e-05
6.20131e-11
1.07239e-05
5.48523e-11
1.07239e-05
4.77378e-11
1.07239e-05
4.06608e-11
1.07239e-05
3.25244e-11
1.07239e-05
2.53767e-11
1.07238e-05
1.83591e-11
1.07238e-05
1.08829e-11
1.07238e-05
4.28548e-12
1.07238e-05
-1.65337e-12
1.07238e-05
-7.45717e-12
1.07238e-05
-1.32567e-11
1.07239e-05
-1.80685e-11
1.07239e-05
-2.14503e-11
1.07239e-05
-2.51957e-11
1.07239e-05
-2.91769e-11
1.07239e-05
-3.17479e-11
1.07239e-05
-3.38923e-11
1.0724e-05
-3.67216e-11
1.0724e-05
-3.88813e-11
1.0724e-05
-3.99949e-11
1.0724e-05
-4.10813e-11
1.0724e-05
-4.26094e-11
1.07241e-05
-4.36244e-11
1.07241e-05
-4.37191e-11
1.07241e-05
-4.42117e-11
1.07241e-05
-4.44602e-11
1.07242e-05
-4.45759e-11
1.07242e-05
-4.15846e-11
1.07242e-05
-3.74846e-11
1.07242e-05
-3.14293e-11
1.07242e-05
-2.46696e-11
1.07243e-05
-1.59205e-11
1.07243e-05
-3.34395e-12
1.07243e-05
2.86497e-12
1.07243e-05
4.63179e-12
1.07243e-05
2.98066e-12
1.07243e-05
-8.92712e-13
1.07243e-05
-3.98836e-12
1.07243e-05
-7.08121e-12
1.07243e-05
-9.72817e-12
1.07243e-05
-1.17329e-11
1.07243e-05
-1.31092e-11
1.07243e-05
-1.40486e-11
1.07243e-05
-1.39847e-11
1.07243e-05
-1.28004e-11
1.07243e-05
-1.06973e-11
1.07243e-05
-8.27183e-12
1.07243e-05
-5.33091e-12
1.07243e-05
-1.64344e-12
1.07243e-05
2.16745e-12
1.07243e-05
5.83626e-12
1.07243e-05
9.1327e-12
1.07243e-05
1.19278e-11
1.07243e-05
1.48643e-11
1.07243e-05
1.74995e-11
1.07243e-05
1.89847e-11
1.07243e-05
2.01897e-11
1.07242e-05
2.07738e-11
1.07242e-05
2.14149e-11
1.07242e-05
2.19523e-11
1.07242e-05
2.16881e-11
1.07242e-05
2.18513e-11
1.07242e-05
2.17273e-11
1.07242e-05
2.04982e-11
1.07242e-05
1.87701e-11
1.07242e-05
1.74785e-11
1.07241e-05
1.63417e-11
1.07241e-05
1.49618e-11
1.07241e-05
1.39224e-11
1.07241e-05
1.31027e-11
1.07241e-05
1.15765e-11
1.07241e-05
9.66832e-12
1.07241e-05
7.30271e-12
1.07241e-05
3.69217e-12
1.07241e-05
1.11903e-12
1.07241e-05
2.51486e-13
1.07241e-05
1.78028e-13
1.07241e-05
9.39046e-13
1.07241e-05
1.08527e-12
1.07241e-05
7.17475e-13
1.07241e-05
-8.51032e-14
1.07241e-05
-1.38453e-12
1.07241e-05
-2.52742e-12
1.07241e-05
-3.98406e-12
1.07241e-05
-5.36308e-12
1.07241e-05
-6.47138e-12
1.07241e-05
-6.53375e-12
1.07241e-05
-6.71532e-12
1.07241e-05
-4.18299e-12
1.07241e-05
-1.63382e-12
1.07241e-05
4.23314e-12
1.07241e-05
1.25955e-11
1.07241e-05
1.43905e-11
1.07241e-05
1.29325e-11
1.07241e-05
8.32515e-12
1.07241e-05
2.14514e-12
1.07241e-05
-3.89342e-12
1.07241e-05
-9.28354e-12
1.07241e-05
-1.33939e-11
1.07241e-05
-1.683e-11
1.07241e-05
-1.93077e-11
1.07241e-05
-2.1171e-11
1.07242e-05
-2.07971e-11
1.07242e-05
-1.6721e-11
1.07242e-05
-1.79979e-11
1.07242e-05
-2.9367e-12
1.15383e-11
1.55011e-05
-5.30801e-11
1.55012e-05
-1.06291e-10
1.55012e-05
-9.67881e-11
1.55012e-05
-4.37053e-11
1.55012e-05
1.74009e-11
1.55012e-05
6.82425e-11
1.55011e-05
1.04838e-10
1.55011e-05
1.28113e-10
1.5501e-05
1.39933e-10
1.55009e-05
1.40512e-10
1.55009e-05
1.33059e-10
1.55008e-05
1.2231e-10
1.55008e-05
1.10707e-10
1.55007e-05
9.78641e-11
1.55007e-05
8.49553e-11
1.55007e-05
7.20202e-11
1.55006e-05
5.75737e-11
1.55006e-05
4.46543e-11
1.55006e-05
3.20526e-11
1.55006e-05
1.88791e-11
1.55006e-05
7.07326e-12
1.55006e-05
-3.68761e-12
1.55006e-05
-1.41501e-11
1.55006e-05
-2.42494e-11
1.55006e-05
-3.26279e-11
1.55006e-05
-3.88348e-11
1.55007e-05
-4.54901e-11
1.55007e-05
-5.24305e-11
1.55007e-05
-5.72008e-11
1.55007e-05
-6.11231e-11
1.55008e-05
-6.58509e-11
1.55008e-05
-6.94997e-11
1.55008e-05
-7.15776e-11
1.55009e-05
-7.36395e-11
1.55009e-05
-7.62239e-11
1.55009e-05
-7.795e-11
1.5501e-05
-7.82356e-11
1.5501e-05
-7.90973e-11
1.5501e-05
-7.96459e-11
1.55011e-05
-7.97468e-11
1.55011e-05
-7.46834e-11
1.55011e-05
-6.77155e-11
1.55012e-05
-5.80277e-11
1.55012e-05
-4.67935e-11
1.55012e-05
-3.19811e-11
1.55012e-05
-1.11043e-11
1.55012e-05
3.82225e-13
1.55012e-05
4.34469e-12
1.55012e-05
2.42601e-12
1.55012e-05
-3.25947e-12
1.55012e-05
-8.1972e-12
1.55012e-05
-1.32394e-11
1.55012e-05
-1.76064e-11
1.55012e-05
-2.08551e-11
1.55012e-05
-2.3013e-11
1.55013e-05
-2.43307e-11
1.55013e-05
-2.3881e-11
1.55013e-05
-2.15361e-11
1.55013e-05
-1.7702e-11
1.55013e-05
-1.32277e-11
1.55013e-05
-7.80933e-12
1.55013e-05
-1.20421e-12
1.55013e-05
5.55653e-12
1.55013e-05
1.20106e-11
1.55013e-05
1.78516e-11
1.55013e-05
2.28831e-11
1.55012e-05
2.80111e-11
1.55012e-05
3.25253e-11
1.55012e-05
3.51531e-11
1.55012e-05
3.71922e-11
1.55012e-05
3.82467e-11
1.55012e-05
3.93446e-11
1.55011e-05
4.02268e-11
1.55011e-05
3.98129e-11
1.55011e-05
3.9888e-11
1.55011e-05
3.94448e-11
1.55011e-05
3.73182e-11
1.55011e-05
3.43215e-11
1.5501e-05
3.19655e-11
1.5501e-05
3.0004e-11
1.5501e-05
2.76642e-11
1.5501e-05
2.57588e-11
1.5501e-05
2.41783e-11
1.5501e-05
2.14736e-11
1.5501e-05
1.80993e-11
1.5501e-05
1.36405e-11
1.5501e-05
7.49414e-12
1.5501e-05
3.39465e-12
1.5501e-05
1.84077e-12
1.5501e-05
1.58186e-12
1.5501e-05
2.65691e-12
1.5501e-05
2.80498e-12
1.5501e-05
2.1151e-12
1.5501e-05
7.38535e-13
1.5501e-05
-1.47909e-12
1.5501e-05
-3.6131e-12
1.5501e-05
-6.26657e-12
1.5501e-05
-8.86175e-12
1.5501e-05
-1.10404e-11
1.5501e-05
-1.1706e-11
1.5501e-05
-1.24331e-11
1.5501e-05
-8.93162e-12
1.5501e-05
-5.04369e-12
1.5501e-05
4.58703e-12
1.5501e-05
1.81817e-11
1.5501e-05
2.15308e-11
1.5501e-05
1.94211e-11
1.5501e-05
1.21462e-11
1.5501e-05
2.22023e-12
1.5501e-05
-7.64972e-12
1.5501e-05
-1.66004e-11
1.5501e-05
-2.35706e-11
1.5501e-05
-2.93685e-11
1.5501e-05
-3.37067e-11
1.5501e-05
-3.70592e-11
1.5501e-05
-3.66112e-11
1.55011e-05
-3.01455e-11
1.55011e-05
-3.17987e-11
1.55011e-05
-5.27961e-12
7.83523e-12
2.05014e-05
-1.07506e-10
2.05014e-05
-1.6642e-10
2.05015e-05
-1.3597e-10
2.05015e-05
-5.08456e-11
2.05014e-05
4.09526e-11
2.05014e-05
1.16208e-10
2.05013e-05
1.69816e-10
2.05013e-05
2.03625e-10
2.05012e-05
2.20112e-10
2.05011e-05
2.1928e-10
2.0501e-05
2.07204e-10
2.0501e-05
1.90881e-10
2.05009e-05
1.72535e-10
2.05008e-05
1.52122e-10
2.05008e-05
1.31685e-10
2.05007e-05
1.11141e-10
2.05007e-05
8.87237e-11
2.05007e-05
6.84466e-11
2.05007e-05
4.87352e-11
2.05007e-05
2.84449e-11
2.05007e-05
1.00548e-11
2.05007e-05
-6.94039e-12
2.05007e-05
-2.33768e-11
2.05007e-05
-3.86929e-11
2.05007e-05
-5.14227e-11
2.05007e-05
-6.13251e-11
2.05008e-05
-7.16882e-11
2.05008e-05
-8.22998e-11
2.05008e-05
-8.99484e-11
2.05009e-05
-9.61648e-11
2.05009e-05
-1.03091e-10
2.05009e-05
-1.08469e-10
2.0501e-05
-1.11838e-10
2.0501e-05
-1.15272e-10
2.05011e-05
-1.19113e-10
2.05011e-05
-1.21672e-10
2.05011e-05
-1.2261e-10
2.05012e-05
-1.2404e-10
2.05012e-05
-1.24673e-10
2.05013e-05
-1.24654e-10
2.05013e-05
-1.17041e-10
2.05014e-05
-1.06858e-10
2.05014e-05
-9.3373e-11
2.05014e-05
-7.6939e-11
2.05015e-05
-5.49991e-11
2.05015e-05
-2.44629e-11
2.05015e-05
-6.2652e-12
2.05015e-05
9.56195e-13
2.05015e-05
-5.51249e-13
2.05015e-05
-7.666e-12
2.05015e-05
-1.44358e-11
2.05015e-05
-2.15992e-11
2.05015e-05
-2.78473e-11
2.05015e-05
-3.23836e-11
2.05015e-05
-3.52772e-11
2.05015e-05
-3.67837e-11
2.05016e-05
-3.55388e-11
2.05016e-05
-3.15269e-11
2.05016e-05
-2.54281e-11
2.05016e-05
-1.82402e-11
2.05016e-05
-9.53212e-12
2.05016e-05
8.11897e-13
2.05016e-05
1.1253e-11
2.05016e-05
2.11396e-11
2.05015e-05
3.01663e-11
2.05015e-05
3.80403e-11
2.05015e-05
4.58588e-11
2.05015e-05
5.26006e-11
2.05015e-05
5.65961e-11
2.05015e-05
5.96267e-11
2.05014e-05
6.12806e-11
2.05014e-05
6.29447e-11
2.05014e-05
6.42183e-11
2.05014e-05
6.35968e-11
2.05013e-05
6.34126e-11
2.05013e-05
6.23937e-11
2.05013e-05
5.91462e-11
2.05013e-05
5.45979e-11
2.05013e-05
5.09168e-11
2.05012e-05
4.80011e-11
2.05012e-05
4.44979e-11
2.05012e-05
4.14525e-11
2.05012e-05
3.88236e-11
2.05012e-05
3.46044e-11
2.05012e-05
2.93511e-11
2.05012e-05
2.20976e-11
2.05011e-05
1.30664e-11
2.05011e-05
7.46789e-12
2.05011e-05
5.00151e-12
2.05011e-05
4.36423e-12
2.05011e-05
5.63235e-12
2.05011e-05
5.6399e-12
2.05011e-05
4.49682e-12
2.05011e-05
2.43246e-12
2.05011e-05
-9.22896e-13
2.05011e-05
-4.38618e-12
2.05011e-05
-8.63478e-12
2.05011e-05
-1.28663e-11
2.05011e-05
-1.65886e-11
2.05011e-05
-1.83838e-11
2.05012e-05
-2.01829e-11
2.05012e-05
-1.60726e-11
2.05012e-05
-1.09905e-11
2.05012e-05
2.87293e-12
2.05012e-05
2.21806e-11
2.05012e-05
2.72664e-11
2.05012e-05
2.47625e-11
2.05012e-05
1.48052e-11
2.05012e-05
9.71056e-13
2.05012e-05
-1.30258e-11
2.05012e-05
-2.5977e-11
2.05012e-05
-3.62407e-11
2.05012e-05
-4.4788e-11
2.05012e-05
-5.14409e-11
2.05012e-05
-5.67141e-11
2.05013e-05
-5.6267e-11
2.05013e-05
-4.71917e-11
2.05013e-05
-4.90692e-11
2.05013e-05
-7.93125e-12
-6.85242e-12
2.55809e-05
-1.82179e-10
2.55809e-05
-2.32531e-10
2.5581e-05
-1.70229e-10
2.5581e-05
-4.83081e-11
2.55809e-05
7.6445e-11
2.55809e-05
1.76935e-10
2.55808e-05
2.47959e-10
2.55807e-05
2.92554e-10
2.55806e-05
3.13277e-10
2.55805e-05
3.11077e-10
2.55804e-05
2.93967e-10
2.55804e-05
2.70589e-10
2.55803e-05
2.44176e-10
2.55802e-05
2.14759e-10
2.55802e-05
1.85537e-10
2.55801e-05
1.56003e-10
2.55801e-05
1.24393e-10
2.55801e-05
9.55712e-11
2.558e-05
6.75826e-11
2.558e-05
3.91273e-11
2.558e-05
1.30926e-11
2.558e-05
-1.13277e-11
2.558e-05
-3.47764e-11
2.55801e-05
-5.58374e-11
2.55801e-05
-7.35023e-11
2.55801e-05
-8.79107e-11
2.55801e-05
-1.02656e-10
2.55802e-05
-1.17508e-10
2.55802e-05
-1.28612e-10
2.55803e-05
-1.37518e-10
2.55803e-05
-1.468e-10
2.55803e-05
-1.54078e-10
2.55804e-05
-1.59108e-10
2.55804e-05
-1.64286e-10
2.55805e-05
-1.69504e-10
2.55805e-05
-1.73084e-10
2.55806e-05
-1.75214e-10
2.55806e-05
-1.77393e-10
2.55807e-05
-1.77891e-10
2.55808e-05
-1.7766e-10
2.55808e-05
-1.68294e-10
2.55809e-05
-1.55089e-10
2.55809e-05
-1.36851e-10
2.55809e-05
-1.14542e-10
2.5581e-05
-8.4737e-11
2.5581e-05
-4.36049e-11
2.5581e-05
-1.76049e-11
2.5581e-05
-6.17017e-12
2.5581e-05
-6.37257e-12
2.5581e-05
-1.42605e-11
2.5581e-05
-2.26799e-11
2.5581e-05
-3.19597e-11
2.5581e-05
-4.00607e-11
2.55811e-05
-4.57555e-11
2.55811e-05
-4.92363e-11
2.55811e-05
-5.06405e-11
2.55811e-05
-4.81141e-11
2.55811e-05
-4.19834e-11
2.55811e-05
-3.32107e-11
2.55811e-05
-2.27293e-11
2.55811e-05
-1.00068e-11
2.55811e-05
4.72054e-12
2.55811e-05
1.933e-11
2.55811e-05
3.30766e-11
2.55811e-05
4.57763e-11
2.55811e-05
5.69613e-11
2.5581e-05
6.78065e-11
2.5581e-05
7.696e-11
2.5581e-05
8.24475e-11
2.5581e-05
8.65893e-11
2.55809e-05
8.89857e-11
2.55809e-05
9.13356e-11
2.55809e-05
9.30175e-11
2.55809e-05
9.20933e-11
2.55808e-05
9.14451e-11
2.55808e-05
8.95864e-11
2.55808e-05
8.50732e-11
2.55807e-05
7.87914e-11
2.55807e-05
7.36731e-11
2.55807e-05
6.97945e-11
2.55807e-05
6.4928e-11
2.55807e-05
6.04806e-11
2.55806e-05
5.65374e-11
2.55806e-05
5.05086e-11
2.55806e-05
4.30073e-11
2.55806e-05
3.35714e-11
2.55806e-05
2.18235e-11
2.55806e-05
1.38026e-11
2.55806e-05
9.99371e-12
2.55806e-05
8.70166e-12
2.55806e-05
9.94642e-12
2.55806e-05
9.59085e-12
2.55806e-05
7.87279e-12
2.55806e-05
5.04132e-12
2.55806e-05
3.20736e-13
2.55806e-05
-4.80585e-12
2.55806e-05
-1.10226e-11
2.55806e-05
-1.72747e-11
2.55806e-05
-2.30168e-11
2.55806e-05
-2.65202e-11
2.55806e-05
-2.99773e-11
2.55806e-05
-2.57093e-11
2.55806e-05
-1.96897e-11
2.55806e-05
-2.50215e-12
2.55806e-05
2.23829e-11
2.55806e-05
3.03089e-11
2.55806e-05
2.80243e-11
2.55806e-05
1.573e-11
2.55806e-05
-1.74155e-12
2.55806e-05
-1.97872e-11
2.55806e-05
-3.68928e-11
2.55806e-05
-5.06375e-11
2.55807e-05
-6.21861e-11
2.55807e-05
-7.15897e-11
2.55807e-05
-7.91817e-11
2.55807e-05
-7.87355e-11
2.55807e-05
-6.6975e-11
2.55808e-05
-6.89416e-11
2.55808e-05
-1.04948e-11
-3.3576e-11
3.0544e-05
-2.64945e-10
3.05441e-05
-2.95946e-10
3.05441e-05
-1.95078e-10
3.05441e-05
-3.55934e-11
3.05441e-05
1.20974e-10
3.0544e-05
2.45292e-10
3.05439e-05
3.32929e-10
3.05438e-05
3.87878e-10
3.05437e-05
4.12078e-10
3.05436e-05
4.08707e-10
3.05435e-05
3.86899e-10
3.05435e-05
3.55576e-10
3.05434e-05
3.20776e-10
3.05433e-05
2.81998e-10
3.05433e-05
2.43225e-10
3.05432e-05
2.0419e-10
3.05432e-05
1.62871e-10
3.05431e-05
1.24624e-10
3.05431e-05
8.77261e-11
3.05431e-05
5.08686e-11
3.05431e-05
1.65617e-11
3.05431e-05
-1.6409e-11
3.05431e-05
-4.74363e-11
3.05431e-05
-7.42496e-11
3.05432e-05
-9.72784e-11
3.05432e-05
-1.16913e-10
3.05432e-05
-1.3649e-10
3.05433e-05
-1.55962e-10
3.05433e-05
-1.70937e-10
3.05433e-05
-1.82734e-10
3.05434e-05
-1.94381e-10
3.05434e-05
-2.0373e-10
3.05435e-05
-2.10873e-10
3.05436e-05
-2.1814e-10
3.05436e-05
-2.2503e-10
3.05437e-05
-2.29926e-10
3.05437e-05
-2.33267e-10
3.05438e-05
-2.36188e-10
3.05438e-05
-2.36944e-10
3.05439e-05
-2.36624e-10
3.0544e-05
-2.25993e-10
3.0544e-05
-2.10414e-10
3.05441e-05
-1.86944e-10
3.05441e-05
-1.58414e-10
3.05441e-05
-1.2032e-10
3.05442e-05
-6.80329e-11
3.05442e-05
-3.38649e-11
3.05442e-05
-1.72349e-11
3.05442e-05
-1.48327e-11
3.05442e-05
-2.302e-11
3.05442e-05
-3.28719e-11
3.05442e-05
-4.38166e-11
3.05442e-05
-5.35508e-11
3.05443e-05
-6.01247e-11
3.05443e-05
-6.3995e-11
3.05443e-05
-6.49421e-11
3.05443e-05
-6.06504e-11
3.05443e-05
-5.2147e-11
3.05443e-05
-4.05036e-11
3.05443e-05
-2.62851e-11
3.05443e-05
-8.7338e-12
3.05443e-05
1.07094e-11
3.05443e-05
2.93394e-11
3.05443e-05
4.70921e-11
3.05443e-05
6.37622e-11
3.05443e-05
7.85152e-11
3.05442e-05
9.25003e-11
3.05442e-05
1.04061e-10
3.05442e-05
1.1107e-10
3.05441e-05
1.16429e-10
3.05441e-05
1.2002e-10
3.05441e-05
1.23189e-10
3.0544e-05
1.2497e-10
3.0544e-05
1.23604e-10
3.0544e-05
1.22291e-10
3.0544e-05
1.19388e-10
3.05439e-05
1.13609e-10
3.05439e-05
1.05836e-10
3.05439e-05
9.93971e-11
3.05438e-05
9.43918e-11
3.05438e-05
8.79083e-11
3.05438e-05
8.18405e-11
3.05438e-05
7.63799e-11
3.05438e-05
6.85972e-11
3.05438e-05
5.86423e-11
3.05437e-05
4.74483e-11
3.05437e-05
3.33165e-11
3.05437e-05
2.22696e-11
3.05437e-05
1.67892e-11
3.05437e-05
1.44973e-11
3.05437e-05
1.54166e-11
3.05437e-05
1.46991e-11
3.05437e-05
1.23433e-11
3.05437e-05
8.41211e-12
3.05437e-05
2.05862e-12
3.05437e-05
-5.03756e-12
3.05437e-05
-1.35161e-11
3.05437e-05
-2.20928e-11
3.05437e-05
-3.02839e-11
3.05437e-05
-3.60444e-11
3.05437e-05
-4.16835e-11
3.05437e-05
-3.79235e-11
3.05437e-05
-3.12846e-11
3.05438e-05
-1.1354e-11
3.05438e-05
1.85488e-11
3.05438e-05
3.00536e-11
3.05438e-05
2.89038e-11
3.05438e-05
1.49258e-11
3.05438e-05
-5.82311e-12
3.05438e-05
-2.75736e-11
3.05438e-05
-4.82005e-11
3.05438e-05
-6.53687e-11
3.05438e-05
-8.03698e-11
3.05438e-05
-9.29814e-11
3.05439e-05
-1.03193e-10
3.05439e-05
-1.02583e-10
3.05439e-05
-8.8238e-11
3.05439e-05
-9.01492e-11
3.05439e-05
-1.37869e-11
-6.71356e-11
3.52428e-05
-3.38398e-10
3.52429e-05
-3.48797e-10
3.52429e-05
-2.09371e-10
3.52429e-05
-1.46586e-11
3.52428e-05
1.70056e-10
3.52427e-05
3.1534e-10
3.52427e-05
4.18145e-10
3.52426e-05
4.82454e-10
3.52425e-05
5.09098e-10
3.52424e-05
5.04645e-10
3.52423e-05
4.78867e-10
3.52422e-05
4.40278e-10
3.52421e-05
3.97736e-10
3.52421e-05
3.49893e-10
3.5242e-05
3.01555e-10
3.52419e-05
2.53123e-10
3.52419e-05
2.02158e-10
3.52419e-05
1.54685e-10
3.52419e-05
1.08901e-10
3.52418e-05
6.33453e-11
3.52418e-05
2.035e-11
3.52418e-05
-2.1406e-11
3.52419e-05
-5.98963e-11
3.52419e-05
-9.2472e-11
3.52419e-05
-1.21333e-10
3.52419e-05
-1.46806e-10
3.5242e-05
-1.71364e-10
3.5242e-05
-1.95191e-10
3.5242e-05
-2.14281e-10
3.52421e-05
-2.29424e-10
3.52421e-05
-2.43354e-10
3.52422e-05
-2.55035e-10
3.52422e-05
-2.64841e-10
3.52423e-05
-2.74461e-10
3.52424e-05
-2.83153e-10
3.52424e-05
-2.89691e-10
3.52425e-05
-2.94307e-10
3.52425e-05
-2.9837e-10
3.52426e-05
-2.99823e-10
3.52427e-05
-2.99145e-10
3.52427e-05
-2.86836e-10
3.52428e-05
-2.69382e-10
3.52428e-05
-2.41799e-10
3.52429e-05
-2.07232e-10
3.52429e-05
-1.60668e-10
3.5243e-05
-9.69799e-11
3.5243e-05
-5.46818e-11
3.5243e-05
-3.20469e-11
3.5243e-05
-2.58626e-11
3.5243e-05
-3.40298e-11
3.5243e-05
-4.45257e-11
3.5243e-05
-5.65703e-11
3.52431e-05
-6.76598e-11
3.52431e-05
-7.46961e-11
3.52431e-05
-7.87462e-11
3.52431e-05
-7.87972e-11
3.52431e-05
-7.22945e-11
3.52431e-05
-6.14393e-11
3.52431e-05
-4.64096e-11
3.52431e-05
-2.80491e-11
3.52431e-05
-5.60536e-12
3.52431e-05
1.83873e-11
3.52431e-05
4.0621e-11
3.52431e-05
6.24287e-11
3.52431e-05
8.31981e-11
3.52431e-05
1.01551e-10
3.5243e-05
1.18564e-10
3.5243e-05
1.32362e-10
3.5243e-05
1.40865e-10
3.52429e-05
1.47577e-10
3.52429e-05
1.52789e-10
3.52429e-05
1.56746e-10
3.52428e-05
1.58307e-10
3.52428e-05
1.56441e-10
3.52428e-05
1.54273e-10
3.52427e-05
1.50212e-10
3.52427e-05
1.43365e-10
3.52427e-05
1.34901e-10
3.52427e-05
1.27369e-10
3.52426e-05
1.20701e-10
3.52426e-05
1.12326e-10
3.52426e-05
1.04501e-10
3.52426e-05
9.74131e-11
3.52425e-05
8.79484e-11
3.52425e-05
7.54232e-11
3.52425e-05
6.21709e-11
3.52425e-05
4.63302e-11
3.52425e-05
3.27624e-11
3.52425e-05
2.51671e-11
3.52425e-05
2.14899e-11
3.52425e-05
2.1773e-11
3.52425e-05
2.06268e-11
3.52425e-05
1.7533e-11
3.52424e-05
1.22229e-11
3.52424e-05
4.00314e-12
3.52424e-05
-5.33208e-12
3.52425e-05
-1.62785e-11
3.52425e-05
-2.74029e-11
3.52425e-05
-3.84345e-11
3.52425e-05
-4.69399e-11
3.52425e-05
-5.5182e-11
3.52425e-05
-5.23914e-11
3.52425e-05
-4.53667e-11
3.52425e-05
-2.2794e-11
3.52425e-05
1.17921e-11
3.52425e-05
2.65583e-11
3.52425e-05
2.71151e-11
3.52425e-05
1.26339e-11
3.52425e-05
-1.07273e-11
3.52426e-05
-3.55702e-11
3.52426e-05
-5.90523e-11
3.52426e-05
-7.96332e-11
3.52426e-05
-9.84592e-11
3.52426e-05
-1.14652e-10
3.52426e-05
-1.27105e-10
3.52427e-05
-1.25915e-10
3.52427e-05
-1.09813e-10
3.52427e-05
-1.11558e-10
3.52427e-05
-1.94582e-11
-9.91193e-11
3.96278e-05
-3.89889e-10
3.96278e-05
-3.84184e-10
3.96278e-05
-2.12646e-10
3.96278e-05
1.17114e-11
3.96277e-05
2.20124e-10
3.96277e-05
3.83445e-10
3.96276e-05
4.98884e-10
3.96275e-05
5.70872e-10
3.96274e-05
5.99229e-10
3.96273e-05
5.94142e-10
3.96272e-05
5.65227e-10
3.96271e-05
5.20872e-10
3.96271e-05
4.71656e-10
3.9627e-05
4.153e-10
3.9627e-05
3.58082e-10
3.96269e-05
3.00652e-10
3.96269e-05
2.40472e-10
3.96268e-05
1.84455e-10
3.96268e-05
1.30181e-10
3.96268e-05
7.58032e-11
3.96268e-05
2.45829e-11
3.96268e-05
-2.57569e-11
3.96268e-05
-7.17431e-11
3.96268e-05
-1.09682e-10
3.96269e-05
-1.44252e-10
3.96269e-05
-1.76014e-10
3.96269e-05
-2.06023e-10
3.9627e-05
-2.33986e-10
3.9627e-05
-2.56804e-10
3.9627e-05
-2.75375e-10
3.96271e-05
-2.91994e-10
3.96271e-05
-3.06492e-10
3.96272e-05
-3.19586e-10
3.96273e-05
-3.31656e-10
3.96273e-05
-3.41942e-10
3.96274e-05
-3.49779e-10
3.96274e-05
-3.55913e-10
3.96275e-05
-3.62129e-10
3.96276e-05
-3.64414e-10
3.96276e-05
-3.631e-10
3.96277e-05
-3.49849e-10
3.96278e-05
-3.30975e-10
3.96278e-05
-2.99466e-10
3.96279e-05
-2.59063e-10
3.96279e-05
-2.0399e-10
3.96279e-05
-1.29628e-10
3.9628e-05
-7.94673e-11
3.9628e-05
-5.01328e-11
3.9628e-05
-3.94184e-11
3.9628e-05
-4.67286e-11
3.9628e-05
-5.76584e-11
3.9628e-05
-7.05121e-11
3.96281e-05
-8.19938e-11
3.96281e-05
-8.88983e-11
3.96281e-05
-9.22407e-11
3.96281e-05
-9.07824e-11
3.96281e-05
-8.23833e-11
3.96281e-05
-6.94654e-11
3.96281e-05
-5.06147e-11
3.96281e-05
-2.78353e-11
3.96281e-05
-7.3752e-13
3.96281e-05
2.79653e-11
3.96281e-05
5.34237e-11
3.96281e-05
7.87482e-11
3.9628e-05
1.03592e-10
3.9628e-05
1.25368e-10
3.9628e-05
1.45108e-10
3.9628e-05
1.60854e-10
3.96279e-05
1.70823e-10
3.96279e-05
1.79085e-10
3.96279e-05
1.85411e-10
3.96278e-05
1.8979e-10
3.96278e-05
1.91697e-10
3.96278e-05
1.89445e-10
3.96277e-05
1.86192e-10
3.96277e-05
1.80977e-10
3.96277e-05
1.73502e-10
3.96277e-05
1.6489e-10
3.96276e-05
1.5624e-10
3.96276e-05
1.47695e-10
3.96276e-05
1.37333e-10
3.96275e-05
1.27718e-10
3.96275e-05
1.18975e-10
3.96275e-05
1.07718e-10
3.96275e-05
9.31589e-11
3.96275e-05
7.80646e-11
3.96275e-05
6.04204e-11
3.96274e-05
4.45814e-11
3.96274e-05
3.46888e-11
3.96274e-05
2.93924e-11
3.96274e-05
2.87974e-11
3.96274e-05
2.69494e-11
3.96274e-05
2.29133e-11
3.96274e-05
1.61425e-11
3.96274e-05
5.89207e-12
3.96274e-05
-5.92835e-12
3.96274e-05
-1.94683e-11
3.96274e-05
-3.33262e-11
3.96274e-05
-4.76083e-11
3.96274e-05
-5.92992e-11
3.96275e-05
-7.04699e-11
3.96275e-05
-6.87197e-11
3.96275e-05
-6.13864e-11
3.96275e-05
-3.70805e-11
3.96275e-05
2.19253e-12
3.96275e-05
2.06671e-11
3.96275e-05
2.25197e-11
3.96275e-05
8.49358e-12
3.96275e-05
-1.59421e-11
3.96275e-05
-4.30004e-11
3.96275e-05
-6.90842e-11
3.96276e-05
-9.33297e-11
3.96276e-05
-1.16103e-10
3.96276e-05
-1.35331e-10
3.96276e-05
-1.49429e-10
3.96276e-05
-1.47891e-10
3.96277e-05
-1.3111e-10
3.96277e-05
-1.31829e-10
3.96277e-05
-2.76886e-11
-1.23887e-10
4.37211e-05
-4.14959e-10
4.37211e-05
-3.97419e-10
4.37211e-05
-2.03475e-10
4.3721e-05
4.28501e-11
4.3721e-05
2.69853e-10
4.37209e-05
4.4774e-10
4.37209e-05
5.72945e-10
4.37208e-05
6.50382e-10
4.37207e-05
6.80045e-10
4.37206e-05
6.74729e-10
4.37205e-05
6.43349e-10
4.37205e-05
5.94431e-10
4.37204e-05
5.39706e-10
4.37203e-05
4.76244e-10
4.37203e-05
4.11153e-10
4.37202e-05
3.45367e-10
4.37202e-05
2.76665e-10
4.37202e-05
2.12635e-10
4.37202e-05
1.50336e-10
4.37201e-05
8.75411e-11
4.37201e-05
2.86643e-11
4.37201e-05
-2.95503e-11
4.37201e-05
-8.24789e-11
4.37202e-05
-1.2549e-10
4.37202e-05
-1.65184e-10
4.37202e-05
-2.03711e-10
4.37202e-05
-2.3994e-10
4.37203e-05
-2.71061e-10
4.37203e-05
-2.97557e-10
4.37204e-05
-3.2013e-10
4.37204e-05
-3.395e-10
4.37205e-05
-3.56527e-10
4.37205e-05
-3.7355e-10
4.37206e-05
-3.88749e-10
4.37206e-05
-4.00322e-10
4.37207e-05
-4.0939e-10
4.37208e-05
-4.17492e-10
4.37208e-05
-4.25448e-10
4.37209e-05
-4.2822e-10
4.37209e-05
-4.27213e-10
4.3721e-05
-4.14022e-10
4.37211e-05
-3.94113e-10
4.37211e-05
-3.58406e-10
4.37212e-05
-3.12355e-10
4.37212e-05
-2.49698e-10
4.37213e-05
-1.65574e-10
4.37213e-05
-1.07085e-10
4.37213e-05
-7.09646e-11
4.37213e-05
-5.52263e-11
4.37213e-05
-6.05601e-11
4.37214e-05
-7.19054e-11
4.37214e-05
-8.51492e-11
4.37214e-05
-9.61241e-11
4.37214e-05
-1.02309e-10
4.37214e-05
-1.04189e-10
4.37214e-05
-1.00643e-10
4.37214e-05
-9.06656e-11
4.37214e-05
-7.5952e-11
4.37214e-05
-5.29685e-11
4.37214e-05
-2.48032e-11
4.37214e-05
6.96566e-12
4.37214e-05
3.93269e-11
4.37214e-05
6.72594e-11
4.37214e-05
9.59346e-11
4.37214e-05
1.24906e-10
4.37213e-05
1.49695e-10
4.37213e-05
1.71704e-10
4.37213e-05
1.89048e-10
4.37213e-05
2.00518e-10
4.37212e-05
2.10528e-10
4.37212e-05
2.17478e-10
4.37212e-05
2.21852e-10
4.37211e-05
2.23706e-10
4.37211e-05
2.21021e-10
4.37211e-05
2.17267e-10
4.3721e-05
2.11098e-10
4.3721e-05
2.03703e-10
4.3721e-05
1.95068e-10
4.3721e-05
1.84861e-10
4.37209e-05
1.74601e-10
4.37209e-05
1.6237e-10
4.37209e-05
1.51022e-10
4.37209e-05
1.40646e-10
4.37208e-05
1.27549e-10
4.37208e-05
1.11364e-10
4.37208e-05
9.46755e-11
4.37208e-05
7.49215e-11
4.37208e-05
5.68958e-11
4.37208e-05
4.49105e-11
4.37208e-05
3.79561e-11
4.37207e-05
3.63256e-11
4.37207e-05
3.3537e-11
4.37207e-05
2.83009e-11
4.37207e-05
1.99555e-11
4.37207e-05
7.51045e-12
4.37207e-05
-7.03939e-12
4.37207e-05
-2.32166e-11
4.37207e-05
-4.00182e-11
4.37208e-05
-5.80445e-11
4.37208e-05
-7.33192e-11
4.37208e-05
-8.76404e-11
4.37208e-05
-8.68377e-11
4.37208e-05
-7.9253e-11
4.37208e-05
-5.36662e-11
4.37208e-05
-1.01412e-11
4.37209e-05
1.2261e-11
4.37209e-05
1.58307e-11
4.37209e-05
3.18894e-12
4.37209e-05
-2.11306e-11
4.37209e-05
-4.96419e-11
4.37209e-05
-7.81388e-11
4.37209e-05
-1.06543e-10
4.37209e-05
-1.33215e-10
4.37209e-05
-1.54781e-10
4.3721e-05
-1.70203e-10
4.3721e-05
-1.68559e-10
4.3721e-05
-1.51068e-10
4.3721e-05
-1.49917e-10
4.3721e-05
-3.82372e-11
-1.39697e-10
4.75731e-05
-4.14346e-10
4.75731e-05
-3.87149e-10
4.75731e-05
-1.80017e-10
4.7573e-05
7.94315e-11
4.7573e-05
3.19453e-10
4.75729e-05
5.07785e-10
4.75729e-05
6.39877e-10
4.75728e-05
7.20076e-10
4.75727e-05
7.50771e-10
4.75727e-05
7.45754e-10
4.75726e-05