/*--------------------------------*- C++ -*----------------------------------*\
  =========                 |
  \\      /  F ield         | OpenFOAM: The Open Source CFD Toolbox
   \\    /   O peration     | Website:  https://openfoam.org
    \\  /    A nd           | Version:  7
     \\/     M anipulation  |
\*---------------------------------------------------------------------------*/
FoamFile
{
    version     2.0;
    format      ascii;
    class       volScalarField;
    location    "19000";
    object      nut;
}
// * * * * * * * * * * * * * * * * * * * * * * * * * * * * * * * * * * * * * //

dimensions      [0 2 -1 0 0 0 0];

internalField   nonuniform List<scalar> 
4000
(
0.0032197
0.00322048
0.0032205
0.00322037
0.0032202
0.00322004
0.00321989
0.00321974
0.0032196
0.00321946
0.00321932
0.00321919
0.00321906
0.00321894
0.00321882
0.0032187
0.00321858
0.00321847
0.00321835
0.00321824
0.00321813
0.00321801
0.0032179
0.00321779
0.00321767
0.00321756
0.00321745
0.00321734
0.00321723
0.00321713
0.00321702
0.00321692
0.00321682
0.00321672
0.00321662
0.00321653
0.00321644
0.00321634
0.00321625
0.00321616
0.00321607
0.00321599
0.0032159
0.00321581
0.00321585
0.003217
0.00321767
0.00321789
0.0032179
0.00321784
0.00321775
0.00321766
0.00321756
0.00321746
0.00321736
0.00321726
0.00321716
0.00321705
0.00321695
0.00321685
0.00321675
0.00321665
0.00321655
0.00321646
0.00321636
0.00321626
0.00321616
0.00321606
0.00321596
0.00321586
0.00321576
0.00321566
0.00321557
0.00321547
0.00321537
0.00321528
0.00321519
0.0032151
0.00321501
0.00321492
0.00321484
0.00321475
0.00321467
0.00321459
0.0032145
0.00321443
0.00321435
0.00321427
0.00321419
0.00321412
0.00321405
0.00321398
0.00321391
0.00321384
0.00321377
0.0032137
0.00321364
0.00321357
0.00321351
0.00321345
0.00321339
0.00321333
0.00321326
0.00321334
0.00321451
0.00321522
0.00321547
0.00321551
0.00321548
0.00321542
0.00321536
0.00321529
0.00321522
0.00321516
0.00321509
0.00321502
0.00321495
0.00321488
0.0032148
0.00321542
0.00320806
0.00320888
0.00320897
0.00320889
0.00320876
0.00320863
0.0032085
0.00320837
0.00320824
0.00320811
0.00320799
0.00320787
0.00320776
0.00320764
0.00320753
0.00320742
0.00320732
0.00320721
0.00320711
0.003207
0.0032069
0.00320679
0.00320669
0.00320658
0.00320648
0.00320637
0.00320627
0.00320616
0.00320606
0.00320596
0.00320586
0.00320577
0.00320567
0.00320558
0.00320549
0.0032054
0.00320532
0.00320523
0.00320515
0.00320506
0.00320498
0.0032049
0.00320481
0.00320473
0.00320469
0.00320502
0.00320544
0.00320573
0.00320589
0.00320595
0.00320596
0.00320594
0.0032059
0.00320585
0.00320579
0.00320572
0.00320565
0.00320557
0.0032055
0.00320542
0.00320534
0.00320526
0.00320517
0.00320509
0.00320501
0.00320492
0.00320484
0.00320475
0.00320466
0.00320458
0.00320449
0.0032044
0.00320431
0.00320423
0.00320414
0.00320405
0.00320397
0.00320389
0.0032038
0.00320372
0.00320364
0.00320357
0.00320349
0.00320341
0.00320334
0.00320326
0.00320319
0.00320312
0.00320305
0.00320298
0.00320291
0.00320284
0.00320278
0.00320271
0.00320265
0.00320259
0.00320253
0.00320246
0.00320241
0.00320235
0.00320229
0.00320223
0.00320218
0.00320216
0.00320252
0.00320296
0.00320329
0.00320347
0.00320357
0.00320361
0.00320361
0.0032036
0.00320358
0.00320355
0.00320351
0.00320347
0.00320343
0.00320339
0.00320332
0.00320389
0.0031878
0.00318862
0.00318873
0.00318868
0.00318859
0.00318849
0.00318838
0.00318827
0.00318815
0.00318805
0.00318794
0.00318783
0.00318773
0.00318763
0.00318753
0.00318743
0.00318733
0.00318724
0.00318714
0.00318705
0.00318695
0.00318685
0.00318676
0.00318666
0.00318656
0.00318647
0.00318637
0.00318627
0.00318618
0.00318608
0.00318599
0.0031859
0.00318582
0.00318573
0.00318565
0.00318556
0.00318548
0.0031854
0.00318532
0.00318524
0.00318517
0.00318509
0.00318501
0.00318494
0.00318487
0.00318494
0.00318511
0.00318529
0.00318544
0.00318554
0.00318559
0.00318561
0.00318561
0.00318559
0.00318555
0.00318551
0.00318547
0.00318542
0.00318536
0.0031853
0.00318524
0.00318517
0.0031851
0.00318504
0.00318496
0.00318489
0.00318482
0.00318474
0.00318467
0.00318459
0.00318451
0.00318444
0.00318436
0.00318428
0.0031842
0.00318412
0.00318405
0.00318397
0.00318389
0.00318382
0.00318375
0.00318367
0.0031836
0.00318353
0.00318346
0.00318339
0.00318333
0.00318326
0.00318319
0.00318313
0.00318306
0.003183
0.00318294
0.00318288
0.00318282
0.00318276
0.0031827
0.00318265
0.00318259
0.00318253
0.00318248
0.00318243
0.00318238
0.00318233
0.00318242
0.00318262
0.00318283
0.003183
0.00318313
0.00318321
0.00318325
0.00318328
0.00318329
0.00318329
0.00318327
0.00318326
0.00318324
0.00318321
0.00318316
0.00318371
0.00315949
0.00316029
0.00316041
0.00316038
0.00316031
0.00316023
0.00316014
0.00316004
0.00315995
0.00315985
0.00315976
0.00315967
0.00315958
0.00315949
0.0031594
0.00315931
0.00315922
0.00315914
0.00315905
0.00315897
0.00315888
0.00315879
0.0031587
0.00315861
0.00315852
0.00315843
0.00315835
0.00315826
0.00315817
0.00315808
0.003158
0.00315791
0.00315783
0.00315775
0.00315767
0.0031576
0.00315752
0.00315745
0.00315738
0.0031573
0.00315723
0.00315716
0.00315709
0.00315702
0.00315695
0.00315693
0.00315697
0.00315705
0.00315713
0.0031572
0.00315725
0.00315728
0.0031573
0.00315729
0.00315728
0.00315726
0.00315723
0.00315719
0.00315715
0.0031571
0.00315705
0.003157
0.00315694
0.00315689
0.00315683
0.00315677
0.0031567
0.00315664
0.00315657
0.0031565
0.00315643
0.00315636
0.00315629
0.00315622
0.00315615
0.00315608
0.00315601
0.00315594
0.00315587
0.0031558
0.00315574
0.00315567
0.0031556
0.00315554
0.00315547
0.00315541
0.00315534
0.00315528
0.00315522
0.00315516
0.0031551
0.00315504
0.00315498
0.00315492
0.00315487
0.00315481
0.00315476
0.0031547
0.00315465
0.0031546
0.00315455
0.0031545
0.00315445
0.00315441
0.0031544
0.00315446
0.00315456
0.00315467
0.00315477
0.00315485
0.0031549
0.00315494
0.00315497
0.00315498
0.00315498
0.00315498
0.00315497
0.00315496
0.00315492
0.00315546
0.00312373
0.00312452
0.00312465
0.00312463
0.00312457
0.0031245
0.00312442
0.00312434
0.00312427
0.00312418
0.0031241
0.00312402
0.00312394
0.00312387
0.00312379
0.00312371
0.00312364
0.00312356
0.00312348
0.0031234
0.00312332
0.00312325
0.00312317
0.00312308
0.003123
0.00312292
0.00312284
0.00312276
0.00312268
0.0031226
0.00312252
0.00312244
0.00312237
0.00312229
0.00312222
0.00312215
0.00312208
0.00312201
0.00312195
0.00312188
0.00312181
0.00312175
0.00312168
0.00312162
0.00312155
0.00312151
0.00312149
0.0031215
0.00312152
0.00312156
0.00312158
0.0031216
0.00312161
0.00312161
0.00312161
0.00312159
0.00312157
0.00312154
0.00312151
0.00312147
0.00312143
0.00312138
0.00312134
0.00312129
0.00312124
0.00312118
0.00312113
0.00312107
0.00312101
0.00312095
0.00312089
0.00312083
0.00312076
0.0031207
0.00312063
0.00312057
0.0031205
0.00312044
0.00312038
0.00312031
0.00312025
0.00312019
0.00312012
0.00312006
0.00312
0.00311994
0.00311988
0.00311982
0.00311977
0.00311971
0.00311965
0.0031196
0.00311954
0.00311949
0.00311943
0.00311938
0.00311933
0.00311928
0.00311923
0.00311918
0.00311913
0.00311909
0.00311904
0.003119
0.00311897
0.00311897
0.003119
0.00311905
0.0031191
0.00311915
0.0031192
0.00311923
0.00311925
0.00311927
0.00311928
0.00311928
0.00311928
0.00311928
0.00311925
0.00311977
0.00308119
0.00308197
0.0030821
0.00308209
0.00308204
0.00308198
0.00308192
0.00308185
0.00308178
0.00308172
0.00308165
0.00308158
0.00308151
0.00308144
0.00308137
0.00308131
0.00308124
0.00308117
0.0030811
0.00308103
0.00308096
0.00308089
0.00308082
0.00308074
0.00308067
0.00308059
0.00308052
0.00308045
0.00308037
0.0030803
0.00308023
0.00308016
0.00308009
0.00308002
0.00307996
0.00307989
0.00307983
0.00307976
0.0030797
0.00307964
0.00307958
0.00307952
0.00307946
0.0030794
0.00307934
0.00307929
0.00307925
0.00307922
0.00307921
0.00307921
0.00307921
0.00307922
0.00307921
0.00307921
0.0030792
0.00307918
0.00307916
0.00307914
0.00307911
0.00307907
0.00307904
0.003079
0.00307896
0.00307891
0.00307887
0.00307882
0.00307877
0.00307872
0.00307866
0.00307861
0.00307855
0.00307849
0.00307844
0.00307838
0.00307832
0.00307826
0.0030782
0.00307814
0.00307808
0.00307802
0.00307796
0.0030779
0.00307784
0.00307778
0.00307773
0.00307767
0.00307761
0.00307756
0.0030775
0.00307745
0.00307739
0.00307734
0.00307729
0.00307724
0.00307719
0.00307714
0.00307709
0.00307704
0.00307699
0.00307695
0.0030769
0.00307686
0.00307681
0.00307677
0.00307673
0.00307671
0.0030767
0.00307671
0.00307673
0.00307675
0.00307678
0.0030768
0.00307682
0.00307683
0.00307684
0.00307684
0.00307684
0.00307684
0.00307681
0.00307731
0.00303255
0.00303332
0.00303346
0.00303345
0.00303341
0.00303336
0.00303331
0.00303325
0.00303319
0.00303313
0.00303308
0.00303302
0.00303296
0.0030329
0.00303284
0.00303278
0.00303272
0.00303266
0.0030326
0.00303254
0.00303248
0.00303241
0.00303235
0.00303228
0.00303221
0.00303215
0.00303208
0.00303201
0.00303194
0.00303188
0.00303181
0.00303175
0.00303169
0.00303163
0.00303157
0.00303151
0.00303145
0.00303139
0.00303134
0.00303128
0.00303122
0.00303117
0.00303111
0.00303106
0.003031
0.00303095
0.0030309
0.00303086
0.00303083
0.00303081
0.00303079
0.00303078
0.00303076
0.00303075
0.00303073
0.00303071
0.00303069
0.00303066
0.00303063
0.0030306
0.00303056
0.00303053
0.00303049
0.00303045
0.0030304
0.00303036
0.00303031
0.00303026
0.00303021
0.00303016
0.00303011
0.00303005
0.00303
0.00302994
0.00302989
0.00302983
0.00302977
0.00302972
0.00302966
0.0030296
0.00302955
0.00302949
0.00302944
0.00302938
0.00302933
0.00302927
0.00302922
0.00302917
0.00302911
0.00302906
0.00302901
0.00302896
0.00302891
0.00302886
0.00302881
0.00302877
0.00302872
0.00302867
0.00302863
0.00302858
0.00302854
0.0030285
0.00302845
0.00302841
0.00302837
0.00302834
0.00302832
0.0030283
0.0030283
0.0030283
0.0030283
0.00302831
0.00302832
0.00302832
0.00302832
0.00302832
0.00302832
0.00302831
0.00302829
0.00302876
0.0029785
0.00297926
0.0029794
0.0029794
0.00297937
0.00297933
0.00297928
0.00297923
0.00297918
0.00297913
0.00297908
0.00297903
0.00297898
0.00297893
0.00297888
0.00297883
0.00297878
0.00297873
0.00297868
0.00297862
0.00297857
0.00297851
0.00297845
0.00297839
0.00297833
0.00297827
0.00297821
0.00297815
0.00297809
0.00297803
0.00297797
0.00297791
0.00297786
0.0029778
0.00297775
0.00297769
0.00297764
0.00297759
0.00297754
0.00297748
0.00297743
0.00297738
0.00297733
0.00297728
0.00297723
0.00297718
0.00297713
0.00297708
0.00297704
0.00297701
0.00297698
0.00297695
0.00297692
0.0029769
0.00297687
0.00297685
0.00297682
0.00297679
0.00297676
0.00297672
0.00297669
0.00297665
0.00297661
0.00297657
0.00297653
0.00297649
0.00297644
0.00297639
0.00297634
0.00297629
0.00297624
0.00297619
0.00297614
0.00297609
0.00297603
0.00297598
0.00297593
0.00297587
0.00297582
0.00297576
0.00297571
0.00297565
0.0029756
0.00297555
0.0029755
0.00297544
0.00297539
0.00297534
0.00297529
0.00297524
0.00297519
0.00297514
0.00297509
0.00297505
0.002975
0.00297495
0.00297491
0.00297486
0.00297482
0.00297478
0.00297473
0.00297469
0.00297465
0.00297461
0.00297457
0.00297454
0.00297451
0.00297448
0.00297446
0.00297445
0.00297444
0.00297443
0.00297442
0.00297442
0.00297441
0.00297441
0.0029744
0.00297439
0.00297437
0.00297481
0.00291972
0.00292047
0.00292061
0.00292061
0.00292059
0.00292055
0.00292052
0.00292048
0.00292044
0.00292039
0.00292035
0.00292031
0.00292027
0.00292022
0.00292018
0.00292014
0.0029201
0.00292005
0.00292
0.00291996
0.00291991
0.00291986
0.00291981
0.00291975
0.0029197
0.00291965
0.00291959
0.00291954
0.00291948
0.00291943
0.00291938
0.00291933
0.00291928
0.00291923
0.00291918
0.00291913
0.00291908
0.00291903
0.00291898
0.00291894
0.00291889
0.00291884
0.00291879
0.00291875
0.0029187
0.00291865
0.0029186
0.00291856
0.00291851
0.00291847
0.00291843
0.0029184
0.00291836
0.00291833
0.0029183
0.00291826
0.00291823
0.0029182
0.00291816
0.00291813
0.00291809
0.00291805
0.00291801
0.00291797
0.00291792
0.00291788
0.00291783
0.00291779
0.00291774
0.00291769
0.00291764
0.00291759
0.00291754
0.00291749
0.00291743
0.00291738
0.00291733
0.00291728
0.00291722
0.00291717
0.00291712
0.00291707
0.00291701
0.00291696
0.00291691
0.00291686
0.00291681
0.00291676
0.00291671
0.00291666
0.00291661
0.00291657
0.00291652
0.00291647
0.00291643
0.00291638
0.00291634
0.0029163
0.00291625
0.00291621
0.00291617
0.00291613
0.00291609
0.00291605
0.00291601
0.00291597
0.00291594
0.00291591
0.00291588
0.00291586
0.00291584
0.00291582
0.00291581
0.0029158
0.00291578
0.00291577
0.00291576
0.00291575
0.00291572
0.00291612
0.00285687
0.0028576
0.00285774
0.00285775
0.00285773
0.00285771
0.00285768
0.00285764
0.00285761
0.00285758
0.00285754
0.00285751
0.00285747
0.00285744
0.0028574
0.00285737
0.00285733
0.00285729
0.00285725
0.00285721
0.00285717
0.00285713
0.00285708
0.00285703
0.00285699
0.00285694
0.00285689
0.00285684
0.0028568
0.00285675
0.0028567
0.00285665
0.00285661
0.00285657
0.00285652
0.00285648
0.00285643
0.00285639
0.00285635
0.0028563
0.00285626
0.00285621
0.00285617
0.00285612
0.00285608
0.00285603
0.00285599
0.00285594
0.00285589
0.00285585
0.00285581
0.00285577
0.00285573
0.00285569
0.00285565
0.00285561
0.00285557
0.00285553
0.00285549
0.00285545
0.00285541
0.00285537
0.00285533
0.00285529
0.00285524
0.0028552
0.00285515
0.0028551
0.00285505
0.002855
0.00285495
0.0028549
0.00285485
0.0028548
0.00285475
0.0028547
0.00285464
0.00285459
0.00285454
0.00285449
0.00285444
0.00285439
0.00285433
0.00285428
0.00285423
0.00285418
0.00285413
0.00285409
0.00285404
0.00285399
0.00285394
0.0028539
0.00285385
0.0028538
0.00285376
0.00285372
0.00285367
0.00285363
0.00285359
0.00285355
0.00285351
0.00285347
0.00285343
0.00285339
0.00285335
0.00285331
0.00285328
0.00285325
0.00285321
0.00285319
0.00285316
0.00285314
0.00285312
0.0028531
0.00285308
0.00285306
0.00285305
0.00285303
0.002853
0.00285337
0.00279057
0.00279128
0.00279143
0.00279145
0.00279144
0.00279142
0.0027914
0.00279137
0.00279135
0.00279132
0.00279129
0.00279126
0.00279124
0.00279121
0.00279118
0.00279115
0.00279112
0.00279109
0.00279106
0.00279102
0.00279099
0.00279095
0.00279091
0.00279087
0.00279083
0.00279079
0.00279075
0.0027907
0.00279066
0.00279062
0.00279058
0.00279054
0.0027905
0.00279046
0.00279042
0.00279038
0.00279034
0.0027903
0.00279026
0.00279022
0.00279018
0.00279013
0.00279009
0.00279005
0.00279
0.00278996
0.00278991
0.00278987
0.00278982
0.00278978
0.00278973
0.00278969
0.00278964
0.0027896
0.00278955
0.00278951
0.00278947
0.00278943
0.00278938
0.00278934
0.00278929
0.00278925
0.0027892
0.00278916
0.00278911
0.00278906
0.00278902
0.00278897
0.00278892
0.00278887
0.00278882
0.00278877
0.00278871
0.00278866
0.00278861
0.00278856
0.00278851
0.00278846
0.0027884
0.00278835
0.0027883
0.00278825
0.0027882
0.00278815
0.0027881
0.00278805
0.002788
0.00278795
0.0027879
0.00278786
0.00278781
0.00278776
0.00278772
0.00278768
0.00278763
0.00278759
0.00278755
0.0027875
0.00278746
0.00278742
0.00278738
0.00278734
0.0027873
0.00278727
0.00278723
0.00278719
0.00278716
0.00278712
0.00278709
0.00278706
0.00278703
0.002787
0.00278698
0.00278695
0.00278693
0.00278691
0.00278689
0.00278687
0.00278684
0.00278717
0.00272143
0.00272213
0.00272228
0.0027223
0.0027223
0.00272229
0.00272228
0.00272226
0.00272224
0.00272222
0.0027222
0.00272218
0.00272216
0.00272214
0.00272212
0.0027221
0.00272207
0.00272205
0.00272202
0.002722
0.00272197
0.00272193
0.0027219
0.00272187
0.00272183
0.0027218
0.00272176
0.00272172
0.00272169
0.00272165
0.00272161
0.00272158
0.00272154
0.00272151
0.00272147
0.00272143
0.0027214
0.00272136
0.00272132
0.00272128
0.00272125
0.0027212
0.00272116
0.00272112
0.00272108
0.00272103
0.00272099
0.00272094
0.0027209
0.00272085
0.0027208
0.00272075
0.00272071
0.00272066
0.00272061
0.00272057
0.00272052
0.00272047
0.00272042
0.00272038
0.00272033
0.00272028
0.00272023
0.00272018
0.00272014
0.00272009
0.00272004
0.00271998
0.00271993
0.00271988
0.00271983
0.00271978
0.00271973
0.00271967
0.00271962
0.00271957
0.00271952
0.00271946
0.00271941
0.00271936
0.00271931
0.00271926
0.00271921
0.00271916
0.00271911
0.00271906
0.00271901
0.00271896
0.00271892
0.00271887
0.00271882
0.00271878
0.00271873
0.00271869
0.00271865
0.0027186
0.00271856
0.00271852
0.00271848
0.00271844
0.0027184
0.00271836
0.00271832
0.00271828
0.00271825
0.00271821
0.00271817
0.00271814
0.00271811
0.00271807
0.00271804
0.00271801
0.00271798
0.00271796
0.00271793
0.00271791
0.00271789
0.00271787
0.00271783
0.00271814
0.00265001
0.0026507
0.00265085
0.00265089
0.00265089
0.00265089
0.00265088
0.00265087
0.00265086
0.00265085
0.00265084
0.00265083
0.00265081
0.0026508
0.00265079
0.00265077
0.00265075
0.00265074
0.00265072
0.0026507
0.00265067
0.00265065
0.00265062
0.00265059
0.00265056
0.00265053
0.0026505
0.00265047
0.00265044
0.00265041
0.00265037
0.00265034
0.00265031
0.00265028
0.00265025
0.00265021
0.00265018
0.00265014
0.00265011
0.00265007
0.00265003
0.00264999
0.00264995
0.00264991
0.00264986
0.00264982
0.00264977
0.00264973
0.00264968
0.00264963
0.00264958
0.00264953
0.00264948
0.00264943
0.00264938
0.00264933
0.00264928
0.00264923
0.00264918
0.00264913
0.00264908
0.00264903
0.00264898
0.00264892
0.00264887
0.00264882
0.00264877
0.00264871
0.00264866
0.00264861
0.00264856
0.0026485
0.00264845
0.0026484
0.00264834
0.00264829
0.00264824
0.00264818
0.00264813
0.00264808
0.00264803
0.00264798
0.00264793
0.00264788
0.00264783
0.00264778
0.00264773
0.00264768
0.00264764
0.00264759
0.00264754
0.0026475
0.00264745
0.00264741
0.00264737
0.00264733
0.00264728
0.00264724
0.0026472
0.00264716
0.00264712
0.00264708
0.00264705
0.00264701
0.00264697
0.00264694
0.0026469
0.00264686
0.00264683
0.0026468
0.00264677
0.00264674
0.00264671
0.00264668
0.00264665
0.00264663
0.00264661
0.00264659
0.00264656
0.00264683
0.00257685
0.00257752
0.00257768
0.00257772
0.00257774
0.00257774
0.00257775
0.00257775
0.00257774
0.00257774
0.00257774
0.00257773
0.00257773
0.00257772
0.00257771
0.0025777
0.00257769
0.00257768
0.00257767
0.00257765
0.00257763
0.00257761
0.00257759
0.00257757
0.00257755
0.00257752
0.00257749
0.00257747
0.00257744
0.00257741
0.00257739
0.00257736
0.00257733
0.0025773
0.00257727
0.00257724
0.00257721
0.00257717
0.00257714
0.0025771
0.00257706
0.00257702
0.00257698
0.00257693
0.00257689
0.00257684
0.00257679
0.00257675
0.0025767
0.00257665
0.00257659
0.00257654
0.00257649
0.00257644
0.00257638
0.00257633
0.00257628
0.00257622
0.00257617
0.00257612
0.00257606
0.00257601
0.00257595
0.0025759
0.00257585
0.00257579
0.00257574
0.00257568
0.00257563
0.00257557
0.00257552
0.00257546
0.00257541
0.00257536
0.0025753
0.00257525
0.0025752
0.00257514
0.00257509
0.00257504
0.00257499
0.00257494
0.00257489
0.00257483
0.00257479
0.00257474
0.00257469
0.00257464
0.00257459
0.00257455
0.0025745
0.00257446
0.00257441
0.00257437
0.00257433
0.00257429
0.00257424
0.0025742
0.00257416
0.00257412
0.00257408
0.00257405
0.00257401
0.00257397
0.00257393
0.0025739
0.00257386
0.00257383
0.00257379
0.00257376
0.00257373
0.0025737
0.00257367
0.00257364
0.00257362
0.0025736
0.00257358
0.00257356
0.00257353
0.00257377
0.00250243
0.00250308
0.00250325
0.0025033
0.00250333
0.00250334
0.00250335
0.00250336
0.00250337
0.00250338
0.00250338
0.00250338
0.00250338
0.00250338
0.00250338
0.00250338
0.00250338
0.00250337
0.00250336
0.00250335
0.00250334
0.00250333
0.00250331
0.00250329
0.00250327
0.00250325
0.00250323
0.00250321
0.00250319
0.00250316
0.00250314
0.00250311
0.00250309
0.00250306
0.00250303
0.002503
0.00250297
0.00250293
0.00250289
0.00250286
0.00250282
0.00250277
0.00250273
0.00250268
0.00250264
0.00250259
0.00250254
0.00250249
0.00250243
0.00250238
0.00250233
0.00250227
0.00250222
0.00250216
0.00250211
0.00250205
0.00250199
0.00250194
0.00250188
0.00250182
0.00250177
0.00250171
0.00250165
0.0025016
0.00250154
0.00250149
0.00250143
0.00250137
0.00250132
0.00250126
0.0025012
0.00250115
0.00250109
0.00250104
0.00250098
0.00250093
0.00250088
0.00250082
0.00250077
0.00250072
0.00250067
0.00250062
0.00250057
0.00250052
0.00250047
0.00250042
0.00250037
0.00250032
0.00250028
0.00250023
0.00250018
0.00250014
0.0025001
0.00250005
0.00250001
0.00249997
0.00249993
0.00249989
0.00249985
0.00249981
0.00249977
0.00249973
0.00249969
0.00249966
0.00249962
0.00249958
0.00249955
0.00249952
0.00249948
0.00249945
0.00249942
0.00249939
0.00249936
0.00249934
0.00249932
0.0024993
0.00249928
0.00249927
0.00249924
0.00249945
0.0024272
0.00242784
0.00242801
0.00242808
0.00242811
0.00242814
0.00242816
0.00242817
0.00242819
0.0024282
0.00242821
0.00242822
0.00242823
0.00242824
0.00242825
0.00242825
0.00242825
0.00242825
0.00242825
0.00242824
0.00242824
0.00242823
0.00242822
0.0024282
0.00242819
0.00242817
0.00242815
0.00242814
0.00242812
0.0024281
0.00242808
0.00242805
0.00242803
0.002428
0.00242797
0.00242794
0.0024279
0.00242787
0.00242783
0.00242779
0.00242774
0.0024277
0.00242765
0.0024276
0.00242755
0.0024275
0.00242745
0.00242739
0.00242734
0.00242728
0.00242722
0.00242717
0.00242711
0.00242705
0.00242699
0.00242693
0.00242687
0.00242681
0.00242675
0.0024267
0.00242664
0.00242658
0.00242652
0.00242646
0.0024264
0.00242634
0.00242629
0.00242623
0.00242617
0.00242611
0.00242606
0.002426
0.00242594
0.00242589
0.00242583
0.00242578
0.00242573
0.00242567
0.00242562
0.00242557
0.00242552
0.00242546
0.00242541
0.00242536
0.00242532
0.00242527
0.00242522
0.00242517
0.00242513
0.00242508
0.00242504
0.00242499
0.00242495
0.00242491
0.00242486
0.00242482
0.00242478
0.00242474
0.0024247
0.00242466
0.00242463
0.00242459
0.00242455
0.00242451
0.00242448
0.00242444
0.00242441
0.00242437
0.00242434
0.00242431
0.00242428
0.00242426
0.00242423
0.00242421
0.00242419
0.00242418
0.00242417
0.00242416
0.00242414
0.00242433
0.00235157
0.0023522
0.00235238
0.00235245
0.00235249
0.00235253
0.00235256
0.00235259
0.00235261
0.00235263
0.00235265
0.00235267
0.00235268
0.0023527
0.00235271
0.00235272
0.00235272
0.00235273
0.00235273
0.00235273
0.00235273
0.00235272
0.00235272
0.00235271
0.0023527
0.00235268
0.00235267
0.00235266
0.00235264
0.00235262
0.0023526
0.00235258
0.00235255
0.00235252
0.00235249
0.00235245
0.00235242
0.00235238
0.00235233
0.00235229
0.00235224
0.00235219
0.00235214
0.00235209
0.00235203
0.00235198
0.00235192
0.00235186
0.0023518
0.00235174
0.00235168
0.00235162
0.00235156
0.0023515
0.00235144
0.00235138
0.00235132
0.00235126
0.00235119
0.00235113
0.00235107
0.00235101
0.00235095
0.00235089
0.00235083
0.00235077
0.00235071
0.00235065
0.0023506
0.00235054
0.00235048
0.00235042
0.00235037
0.00235031
0.00235026
0.0023502
0.00235015
0.00235009
0.00235004
0.00234999
0.00234994
0.00234989
0.00234984
0.00234979
0.00234974
0.00234969
0.00234964
0.0023496
0.00234955
0.00234951
0.00234946
0.00234942
0.00234938
0.00234934
0.00234929
0.00234925
0.00234921
0.00234917
0.00234914
0.0023491
0.00234906
0.00234902
0.00234899
0.00234895
0.00234891
0.00234888
0.00234885
0.00234881
0.00234878
0.00234876
0.00234873
0.00234871
0.00234869
0.00234867
0.00234866
0.00234865
0.00234865
0.00234865
0.00234864
0.0023488
0.00227591
0.00227653
0.00227671
0.00227679
0.00227685
0.00227689
0.00227693
0.00227697
0.002277
0.00227703
0.00227705
0.00227708
0.0022771
0.00227712
0.00227713
0.00227715
0.00227716
0.00227717
0.00227718
0.00227718
0.00227718
0.00227718
0.00227718
0.00227717
0.00227716
0.00227715
0.00227714
0.00227713
0.00227711
0.0022771
0.00227707
0.00227705
0.00227702
0.00227699
0.00227695
0.00227691
0.00227687
0.00227683
0.00227678
0.00227673
0.00227667
0.00227662
0.00227656
0.00227651
0.00227645
0.00227639
0.00227632
0.00227626
0.0022762
0.00227614
0.00227607
0.00227601
0.00227595
0.00227588
0.00227582
0.00227576
0.00227569
0.00227563
0.00227557
0.0022755
0.00227544
0.00227538
0.00227532
0.00227526
0.00227519
0.00227513
0.00227507
0.00227501
0.00227496
0.0022749
0.00227484
0.00227478
0.00227473
0.00227467
0.00227462
0.00227456
0.00227451
0.00227446
0.0022744
0.00227435
0.0022743
0.00227425
0.0022742
0.00227415
0.00227411
0.00227406
0.00227401
0.00227397
0.00227392
0.00227388
0.00227383
0.00227379
0.00227375
0.00227371
0.00227367
0.00227363
0.00227359
0.00227355
0.00227351
0.00227347
0.00227344
0.0022734
0.00227337
0.00227333
0.0022733
0.00227326
0.00227323
0.0022732
0.00227317
0.00227315
0.00227313
0.00227311
0.0022731
0.00227309
0.00227309
0.00227309
0.00227309
0.0022731
0.0022731
0.00227325
0.00220055
0.00220116
0.00220135
0.00220144
0.0022015
0.00220155
0.0022016
0.00220164
0.00220168
0.00220172
0.00220175
0.00220178
0.00220181
0.00220183
0.00220185
0.00220187
0.00220189
0.0022019
0.00220191
0.00220192
0.00220192
0.00220192
0.00220192
0.00220192
0.00220191
0.00220191
0.0022019
0.00220188
0.00220187
0.00220185
0.00220182
0.00220179
0.00220176
0.00220172
0.00220168
0.00220164
0.00220159
0.00220154
0.00220148
0.00220142
0.00220137
0.00220131
0.00220124
0.00220118
0.00220112
0.00220105
0.00220099
0.00220092
0.00220085
0.00220079
0.00220072
0.00220065
0.00220059
0.00220052
0.00220046
0.00220039
0.00220033
0.00220026
0.0022002
0.00220013
0.00220007
0.00220001
0.00219994
0.00219988
0.00219982
0.00219976
0.0021997
0.00219964
0.00219958
0.00219952
0.00219947
0.00219941
0.00219935
0.0021993
0.00219924
0.00219919
0.00219914
0.00219909
0.00219903
0.00219898
0.00219893
0.00219889
0.00219884
0.00219879
0.00219874
0.0021987
0.00219865
0.00219861
0.00219856
0.00219852
0.00219848
0.00219844
0.0021984
0.00219836
0.00219832
0.00219828
0.00219824
0.0021982
0.00219816
0.00219813
0.00219809
0.00219806
0.00219802
0.00219799
0.00219795
0.00219792
0.00219789
0.00219786
0.00219784
0.00219782
0.00219781
0.0021978
0.0021978
0.0021978
0.00219781
0.00219782
0.00219783
0.00219785
0.00219786
0.00219799
0.00212579
0.00212638
0.00212658
0.00212668
0.00212675
0.00212681
0.00212686
0.00212691
0.00212696
0.002127
0.00212704
0.00212707
0.0021271
0.00212713
0.00212715
0.00212718
0.0021272
0.00212721
0.00212722
0.00212723
0.00212724
0.00212724
0.00212724
0.00212724
0.00212724
0.00212723
0.00212722
0.00212721
0.00212719
0.00212716
0.00212713
0.0021271
0.00212706
0.00212701
0.00212696
0.00212691
0.00212685
0.00212679
0.00212673
0.00212667
0.0021266
0.00212654
0.00212647
0.0021264
0.00212633
0.00212626
0.00212619
0.00212612
0.00212605
0.00212598
0.00212591
0.00212585
0.00212578
0.00212571
0.00212564
0.00212558
0.00212551
0.00212544
0.00212538
0.00212531
0.00212525
0.00212519
0.00212512
0.00212506
0.002125
0.00212494
0.00212488
0.00212482
0.00212476
0.00212471
0.00212465
0.00212459
0.00212454
0.00212448
0.00212443
0.00212438
0.00212433
0.00212428
0.00212423
0.00212418
0.00212413
0.00212408
0.00212403
0.00212399
0.00212394
0.0021239
0.00212385
0.00212381
0.00212377
0.00212373
0.00212369
0.00212365
0.00212361
0.00212357
0.00212353
0.00212349
0.00212345
0.00212342
0.00212338
0.00212335
0.00212331
0.00212328
0.00212324
0.00212321
0.00212318
0.00212315
0.00212312
0.0021231
0.00212309
0.00212308
0.00212307
0.00212308
0.00212309
0.0021231
0.00212312
0.00212314
0.00212317
0.0021232
0.00212322
0.00212334
0.00205189
0.00205247
0.00205266
0.00205277
0.00205284
0.00205291
0.00205297
0.00205303
0.00205308
0.00205312
0.00205316
0.0020532
0.00205323
0.00205327
0.00205329
0.00205332
0.00205334
0.00205336
0.00205337
0.00205338
0.00205339
0.00205339
0.0020534
0.0020534
0.00205339
0.00205338
0.00205337
0.00205335
0.00205333
0.0020533
0.00205326
0.00205321
0.00205316
0.00205311
0.00205305
0.00205299
0.00205292
0.00205285
0.00205278
0.00205271
0.00205264
0.00205257
0.00205249
0.00205242
0.00205235
0.00205227
0.0020522
0.00205213
0.00205205
0.00205198
0.00205191
0.00205184
0.00205177
0.0020517
0.00205163
0.00205157
0.0020515
0.00205143
0.00205137
0.0020513
0.00205124
0.00205118
0.00205112
0.00205105
0.00205099
0.00205093
0.00205088
0.00205082
0.00205076
0.0020507
0.00205065
0.0020506
0.00205054
0.00205049
0.00205044
0.00205039
0.00205034
0.00205029
0.00205024
0.00205019
0.00205014
0.0020501
0.00205005
0.00205001
0.00204996
0.00204992
0.00204988
0.00204984
0.0020498
0.00204976
0.00204972
0.00204968
0.00204964
0.0020496
0.00204957
0.00204953
0.00204949
0.00204946
0.00204942
0.00204939
0.00204936
0.00204932
0.00204929
0.00204926
0.00204923
0.00204921
0.00204919
0.00204917
0.00204917
0.00204917
0.00204918
0.0020492
0.00204922
0.00204925
0.00204928
0.00204932
0.00204936
0.0020494
0.00204943
0.00204954
0.00197907
0.00197963
0.00197982
0.00197993
0.00198002
0.00198009
0.00198015
0.00198021
0.00198027
0.00198031
0.00198036
0.0019804
0.00198043
0.00198046
0.00198049
0.00198052
0.00198054
0.00198056
0.00198057
0.00198058
0.00198059
0.0019806
0.0019806
0.0019806
0.00198059
0.00198058
0.00198056
0.00198054
0.0019805
0.00198046
0.00198041
0.00198035
0.00198029
0.00198023
0.00198016
0.00198008
0.00198001
0.00197993
0.00197985
0.00197978
0.0019797
0.00197962
0.00197954
0.00197946
0.00197938
0.00197931
0.00197923
0.00197916
0.00197908
0.00197901
0.00197894
0.00197887
0.0019788
0.00197873
0.00197866
0.00197859
0.00197853
0.00197846
0.0019784
0.00197833
0.00197827
0.00197821
0.00197815
0.00197809
0.00197803
0.00197797
0.00197791
0.00197786
0.0019778
0.00197775
0.00197769
0.00197764
0.00197759
0.00197754
0.00197749
0.00197744
0.00197739
0.00197734
0.0019773
0.00197725
0.00197721
0.00197716
0.00197712
0.00197708
0.00197703
0.00197699
0.00197695
0.00197691
0.00197687
0.00197684
0.0019768
0.00197676
0.00197672
0.00197669
0.00197665
0.00197662
0.00197658
0.00197655
0.00197652
0.00197648
0.00197645
0.00197642
0.00197639
0.00197636
0.00197634
0.00197632
0.00197631
0.00197631
0.00197631
0.00197633
0.00197636
0.0019764
0.00197644
0.00197648
0.00197653
0.00197658
0.00197663
0.00197668
0.00197672
0.00197682
0.00190752
0.00190806
0.00190826
0.00190837
0.00190845
0.00190853
0.0019086
0.00190866
0.00190871
0.00190876
0.00190881
0.00190885
0.00190888
0.00190891
0.00190894
0.00190897
0.00190899
0.00190901
0.00190902
0.00190903
0.00190904
0.00190904
0.00190904
0.00190904
0.00190903
0.00190901
0.00190899
0.00190895
0.0019089
0.00190885
0.00190878
0.00190871
0.00190864
0.00190856
0.00190848
0.00190839
0.00190831
0.00190822
0.00190814
0.00190805
0.00190797
0.00190789
0.0019078
0.00190772
0.00190764
0.00190756
0.00190749
0.00190741
0.00190734
0.00190726
0.00190719
0.00190712