/*--------------------------------*- C++ -*----------------------------------*\
  =========                 |
  \\      /  F ield         | OpenFOAM: The Open Source CFD Toolbox
   \\    /   O peration     | Website:  https://openfoam.org
    \\  /    A nd           | Version:  7
     \\/     M anipulation  |
\*---------------------------------------------------------------------------*/
FoamFile
{
    version     2.0;
    format      ascii;
    class       volScalarField;
    location    "4000";
    object      omega;
}
// * * * * * * * * * * * * * * * * * * * * * * * * * * * * * * * * * * * * * //

dimensions      [0 0 -1 0 0 0 0];

internalField   nonuniform List<scalar> 
4026
(
0.581417
0.581424
0.58142
0.581414
0.581408
0.581403
0.581398
0.581394
0.58139
0.581386
0.581383
0.581379
0.581375
0.581372
0.581369
0.581367
0.581364
0.581363
0.581361
0.58136
0.581359
0.581358
0.581357
0.581357
0.581356
0.581356
0.581356
0.581356
0.581356
0.581356
0.581357
0.581357
0.581357
0.581358
0.581358
0.581359
0.581359
0.58136
0.58136
0.581361
0.581361
0.581362
0.581362
0.581363
0.581361
0.581438
0.581432
0.581424
0.581416
0.58141
0.581404
0.581399
0.581395
0.581391
0.581388
0.581385
0.581382
0.581379
0.581376
0.581376
0.581366
0.550638
0.550644
0.550641
0.550636
0.55063
0.550625
0.55062
0.550616
0.550613
0.55061
0.550606
0.550603
0.5506
0.550597
0.550594
0.550592
0.55059
0.550588
0.550587
0.550586
0.550585
0.550584
0.550584
0.550584
0.550583
0.550583
0.550583
0.550583
0.550584
0.550584
0.550584
0.550585
0.550585
0.550586
0.550587
0.550587
0.550588
0.550589
0.550589
0.55059
0.550591
0.550591
0.550592
0.550593
0.55059
0.550671
0.550666
0.550657
0.550649
0.550642
0.550635
0.55063
0.550626
0.550622
0.550619
0.550616
0.550613
0.55061
0.550608
0.550607
0.550599
0.521734
0.521738
0.521735
0.521731
0.521725
0.521721
0.521716
0.521713
0.52171
0.521707
0.521704
0.521701
0.521698
0.521695
0.521693
0.521691
0.521689
0.521688
0.521687
0.521686
0.521685
0.521684
0.521684
0.521684
0.521684
0.521684
0.521684
0.521684
0.521685
0.521685
0.521686
0.521686
0.521687
0.521688
0.521689
0.521689
0.52169
0.521691
0.521692
0.521693
0.521694
0.521695
0.521695
0.521697
0.521694
0.521772
0.52177
0.521761
0.521753
0.521746
0.521739
0.521734
0.52173
0.521726
0.521723
0.52172
0.521717
0.521715
0.521713
0.521712
0.521705
0.494534
0.494535
0.494532
0.494528
0.494523
0.494519
0.494515
0.494512
0.494509
0.494506
0.494504
0.494501
0.494499
0.494496
0.494494
0.494492
0.494491
0.49449
0.494489
0.494488
0.494487
0.494487
0.494487
0.494487
0.494487
0.494487
0.494488
0.494488
0.494489
0.494489
0.49449
0.494491
0.494492
0.494493
0.494493
0.494494
0.494495
0.494496
0.494497
0.494498
0.494499
0.494501
0.494502
0.494503
0.494502
0.494574
0.494572
0.494565
0.494558
0.494551
0.494545
0.49454
0.494536
0.494532
0.494529
0.494527
0.494524
0.494522
0.49452
0.494518
0.494514
0.468886
0.468886
0.468883
0.468879
0.468874
0.46887
0.468867
0.468864
0.468861
0.468859
0.468857
0.468855
0.468853
0.468851
0.468849
0.468847
0.468846
0.468845
0.468844
0.468844
0.468844
0.468843
0.468844
0.468844
0.468844
0.468844
0.468845
0.468846
0.468846
0.468847
0.468848
0.468849
0.46885
0.468851
0.468852
0.468853
0.468854
0.468855
0.468857
0.468858
0.468859
0.46886
0.468862
0.468863
0.468863
0.468929
0.468927
0.468921
0.468915
0.468909
0.468903
0.468899
0.468895
0.468892
0.468889
0.468886
0.468884
0.468882
0.46888
0.468879
0.468876
0.444663
0.44466
0.444657
0.444653
0.444649
0.444645
0.444642
0.444639
0.444637
0.444635
0.444633
0.444632
0.44463
0.444628
0.444627
0.444625
0.444624
0.444624
0.444623
0.444623
0.444623
0.444623
0.444623
0.444624
0.444624
0.444625
0.444625
0.444626
0.444627
0.444628
0.444629
0.44463
0.444631
0.444633
0.444634
0.444635
0.444636
0.444638
0.444639
0.444641
0.444642
0.444643
0.444645
0.444646
0.444647
0.444707
0.444704
0.444699
0.444694
0.444689
0.444684
0.44468
0.444676
0.444674
0.444671
0.444669
0.444667
0.444665
0.444663
0.444662
0.44466
0.421747
0.421743
0.421739
0.421736
0.421732
0.421729
0.421726
0.421724
0.421722
0.42172
0.421719
0.421717
0.421716
0.421714
0.421713
0.421712
0.421711
0.421711
0.42171
0.42171
0.421711
0.421711
0.421711
0.421712
0.421713
0.421713
0.421714
0.421715
0.421716
0.421718
0.421719
0.42172
0.421721
0.421723
0.421724
0.421726
0.421727
0.421729
0.42173
0.421732
0.421733
0.421735
0.421737
0.421738
0.421741
0.421793
0.42179
0.421786
0.421781
0.421777
0.421773
0.421769
0.421766
0.421764
0.421761
0.42176
0.421758
0.421756
0.421755
0.421753
0.421753
0.40004
0.400034
0.40003
0.400027
0.400023
0.40002
0.400018
0.400016
0.400014
0.400013
0.400012
0.40001
0.400009
0.400008
0.400007
0.400006
0.400006
0.400006
0.400006
0.400006
0.400006
0.400007
0.400008
0.400008
0.400009
0.40001
0.400011
0.400013
0.400014
0.400015
0.400017
0.400018
0.400019
0.400021
0.400023
0.400024
0.400026
0.400028
0.400029
0.400031
0.400033
0.400035
0.400037
0.400038
0.400042
0.400088
0.400083
0.400079
0.400076
0.400072
0.400069
0.400066
0.400063
0.400061
0.400059
0.400058
0.400056
0.400055
0.400054
0.400052
0.400054
0.379452
0.379444
0.37944
0.379437
0.379434
0.379431
0.379429
0.379427
0.379426
0.379425
0.379424
0.379423
0.379422
0.379421
0.379421
0.37942
0.37942
0.37942
0.37942
0.379421
0.379421
0.379422
0.379423
0.379424
0.379425
0.379426
0.379427
0.379429
0.37943
0.379432
0.379433
0.379435
0.379437
0.379438
0.37944
0.379442
0.379444
0.379446
0.379448
0.37945
0.379451
0.379453
0.379455
0.379457
0.379462
0.379503
0.379496
0.379492
0.379489
0.379486
0.379484
0.379481
0.379479
0.379478
0.379476
0.379475
0.379474
0.379473
0.379472
0.379471
0.379474
0.359904
0.359895
0.359891
0.359888
0.359885
0.359883
0.359881
0.35988
0.359878
0.359878
0.359877
0.359876
0.359876
0.359875
0.359875
0.359875
0.359875
0.359875
0.359875
0.359876
0.359877
0.359878
0.359879
0.35988
0.359881
0.359883
0.359884
0.359886
0.359887
0.359889
0.359891
0.359893
0.359895
0.359897
0.359898
0.3599
0.359902
0.359905
0.359907
0.359909
0.359911
0.359913
0.359915
0.359916
0.359923
0.359958
0.35995
0.359947
0.359944
0.359942
0.359939
0.359937
0.359936
0.359935
0.359934
0.359933
0.359932
0.359931
0.359931
0.359929
0.359934
0.341328
0.341318
0.341313
0.341311
0.341308
0.341306
0.341305
0.341303
0.341303
0.341302
0.341302
0.341301
0.341301
0.341301
0.341301
0.341301
0.341301
0.341301
0.341302
0.341303
0.341304
0.341305
0.341306
0.341308
0.341309
0.341311
0.341313
0.341314
0.341316
0.341318
0.34132
0.341322
0.341324
0.341326
0.341328
0.34133
0.341333
0.341335
0.341337
0.341339
0.341342
0.341344
0.341346
0.341347
0.341356
0.341385
0.341376
0.341372
0.34137
0.341368
0.341366
0.341365
0.341364
0.341363
0.341363
0.341362
0.341362
0.341361
0.341361
0.34136
0.341366
0.323663
0.323651
0.323646
0.323643
0.323641
0.32364
0.323638
0.323637
0.323637
0.323637
0.323636
0.323636
0.323636
0.323636
0.323636
0.323637
0.323637
0.323638
0.323639
0.32364
0.323641
0.323642
0.323644
0.323645
0.323647
0.323649
0.323651
0.323653
0.323655
0.323657
0.323659
0.323661
0.323663
0.323665
0.323668
0.32367
0.323672
0.323675
0.323677
0.32368
0.323682
0.323685
0.323687
0.323688
0.323698
0.323722
0.323712
0.323708
0.323706
0.323705
0.323704
0.323703
0.323702
0.323701
0.323701
0.323701
0.323701
0.323701
0.323701
0.3237
0.323707
0.306852
0.306839
0.306834
0.306832
0.30683
0.306828
0.306827
0.306827
0.306826
0.306826
0.306826
0.306827
0.306827
0.306827
0.306827
0.306828
0.306829
0.306829
0.306831
0.306832
0.306833
0.306835
0.306837
0.306838
0.30684
0.306842
0.306844
0.306846
0.306848
0.306851
0.306853
0.306855
0.306858
0.30686
0.306862
0.306865
0.306868
0.30687
0.306873
0.306875
0.306878
0.30688
0.306883
0.306884
0.306895
0.306915
0.306903
0.3069
0.306898
0.306897
0.306896
0.306895
0.306895
0.306895
0.306895
0.306895
0.306895
0.306895
0.306896
0.306895
0.306903
0.290848
0.290834
0.290829
0.290827
0.290825
0.290824
0.290823
0.290823
0.290823
0.290823
0.290823
0.290823
0.290824
0.290824
0.290825
0.290826
0.290827
0.290828
0.290829
0.29083
0.290832
0.290834
0.290836
0.290838
0.29084
0.290842
0.290844
0.290846
0.290848
0.290851
0.290853
0.290856
0.290858
0.290861
0.290864
0.290866
0.290869
0.290872
0.290874
0.290877
0.29088
0.290883
0.290886
0.290887
0.290898
0.290914
0.290901
0.290898
0.290896
0.290895
0.290895
0.290894
0.290894
0.290895
0.290895
0.290895
0.290896
0.290896
0.290897
0.290896
0.290905
0.275607
0.275592
0.275587
0.275585
0.275583
0.275583
0.275582
0.275582
0.275582
0.275582
0.275583
0.275583
0.275584
0.275585
0.275585
0.275586
0.275587
0.275589
0.27559
0.275592
0.275594
0.275596
0.275598
0.2756
0.275602
0.275604
0.275606
0.275609
0.275611
0.275614
0.275617
0.275619
0.275622
0.275625
0.275627
0.27563
0.275633
0.275636
0.275639
0.275642
0.275645
0.275647
0.275651
0.275652
0.275664
0.275677
0.275662
0.275659
0.275657
0.275657
0.275657
0.275657
0.275657
0.275657
0.275658
0.275659
0.275659
0.27566
0.275661
0.27566
0.27567
0.26109
0.261074
0.261069
0.261067
0.261066
0.261065
0.261065
0.261065
0.261065
0.261066
0.261066
0.261067
0.261068
0.261069
0.26107
0.261071
0.261072
0.261074
0.261075
0.261077
0.261079
0.261081
0.261083
0.261085
0.261088
0.26109
0.261093
0.261095
0.261098
0.261101
0.261103
0.261106
0.261109
0.261112
0.261115
0.261118
0.261121
0.261124
0.261127
0.26113
0.261133
0.261136
0.261139
0.26114
0.261153
0.261163
0.261147
0.261143
0.261142
0.261142
0.261142
0.261142
0.261143
0.261144
0.261144
0.261145
0.261146
0.261147
0.261148
0.261148
0.261158
0.247262
0.247244
0.247239
0.247237
0.247236
0.247236
0.247236
0.247236
0.247237
0.247237
0.247238
0.247239
0.24724
0.247241
0.247242
0.247244
0.247245
0.247247
0.247249
0.247251
0.247253
0.247255
0.247257
0.24726
0.247262
0.247265
0.247267
0.24727
0.247273
0.247276
0.247278
0.247281
0.247284
0.247287
0.24729
0.247293
0.247297
0.2473
0.247303
0.247306
0.247309
0.247312
0.247316
0.247317
0.247331
0.247337
0.247321
0.247317
0.247316
0.247316
0.247316
0.247317
0.247317
0.247318
0.247319
0.24732
0.247322
0.247323
0.247324
0.247323
0.247335
0.23409
0.234071
0.234066
0.234065
0.234064
0.234064
0.234064
0.234065
0.234065
0.234066
0.234067
0.234068
0.234069
0.234071
0.234072
0.234073
0.234075
0.234077
0.234079
0.234081
0.234083
0.234085
0.234088
0.23409
0.234093
0.234096
0.234098
0.234101
0.234104
0.234107
0.23411
0.234113
0.234116
0.234119
0.234122
0.234126
0.234129
0.234132
0.234135
0.234139
0.234142
0.234145
0.234149
0.23415
0.234164
0.234168
0.234151
0.234147
0.234146
0.234146
0.234147
0.234147
0.234148
0.234149
0.234151
0.234152
0.234153
0.234155
0.234156
0.234156
0.234168
0.221546
0.221526
0.221521
0.22152
0.221519
0.221519
0.22152
0.22152
0.221521
0.221522
0.221523
0.221525
0.221526
0.221527
0.221529
0.22153
0.221532
0.221534
0.221536
0.221539
0.221541
0.221543
0.221546
0.221549
0.221551
0.221554
0.221557
0.22156
0.221563
0.221566
0.221569
0.221572
0.221575
0.221579
0.221582
0.221585
0.221588
0.221592
0.221595
0.221598
0.221602
0.221605
0.221609
0.22161
0.221625
0.221626
0.221608
0.221604
0.221604
0.221604
0.221605
0.221606
0.221607
0.221608
0.221609
0.221611
0.221612
0.221614
0.221616
0.221615
0.221628
0.209603
0.209582
0.209577
0.209576
0.209576
0.209576
0.209577
0.209577
0.209578
0.20958
0.209581
0.209582
0.209584
0.209585
0.209587
0.209589
0.20959
0.209593
0.209595
0.209597
0.2096
0.209602
0.209605
0.209608
0.20961
0.209613
0.209616
0.209619
0.209622
0.209625
0.209629
0.209632
0.209635
0.209638
0.209642
0.209645
0.209649
0.209652
0.209655
0.209659
0.209662
0.209666
0.20967
0.209671
0.209686
0.209685
0.209666
0.209662
0.209662
0.209662
0.209663
0.209664
0.209666
0.209667
0.209669
0.20967
0.209672
0.209674
0.209676
0.209675
0.209688
0.198236
0.198215
0.19821
0.198209
0.198209
0.198209
0.19821
0.198211
0.198212
0.198213
0.198215
0.198216
0.198218
0.198219
0.198221
0.198223
0.198225
0.198227
0.19823
0.198232
0.198235
0.198237
0.19824
0.198243
0.198246
0.198249
0.198252
0.198255
0.198258
0.198261
0.198265
0.198268
0.198271
0.198275
0.198278
0.198281
0.198285
0.198288
0.198292
0.198296
0.198299
0.198303
0.198307
0.198308
0.198323
0.19832
0.198301
0.198297
0.198297
0.198297
0.198298
0.1983
0.198301
0.198303
0.198304
0.198306
0.198308
0.19831
0.198312
0.198312
0.198324
0.187423
0.187402
0.187397
0.187396
0.187396
0.187396
0.187397
0.187398
0.187399
0.187401
0.187402
0.187404
0.187406
0.187407
0.187409
0.187411
0.187413
0.187416
0.187418
0.187421
0.187423
0.187426
0.187429
0.187432
0.187435
0.187438
0.187441
0.187444
0.187447
0.187451
0.187454
0.187457
0.187461
0.187464
0.187468
0.187471
0.187475
0.187478
0.187482
0.187486
0.187489
0.187493
0.187497
0.187498
0.187513
0.187509
0.187489
0.187485
0.187485
0.187486
0.187487
0.187488
0.18749
0.187491
0.187493
0.187495
0.187497
0.187499
0.187501
0.187501
0.187514
0.177142
0.177121
0.177116
0.177115
0.177115
0.177116
0.177117
0.177118
0.177119
0.177121
0.177122
0.177124
0.177126
0.177128
0.17713
0.177132
0.177134
0.177137
0.177139
0.177142
0.177144
0.177147
0.17715
0.177153
0.177156
0.177159
0.177162
0.177166
0.177169
0.177172
0.177176
0.177179
0.177182
0.177186
0.177189
0.177193
0.177197
0.1772
0.177204
0.177208
0.177211
0.177215
0.177219
0.177221
0.177235
0.17723
0.177209
0.177205
0.177205
0.177206
0.177207
0.177209
0.177211
0.177212
0.177214
0.177216
0.177218
0.17722
0.177223
0.177223
0.177236
0.167374
0.167352
0.167347
0.167346
0.167347
0.167348
0.167349
0.16735
0.167351
0.167353
0.167355
0.167357
0.167359
0.167361
0.167363
0.167365
0.167367
0.16737
0.167372
0.167375
0.167378
0.167381
0.167384
0.167387
0.16739
0.167393
0.167396
0.167399
0.167403
0.167406
0.167409
0.167413
0.167416
0.16742
0.167423
0.167427
0.167431
0.167434
0.167438
0.167442
0.167445
0.167449
0.167453
0.167455
0.167469
0.167462
0.167442
0.167438
0.167438
0.167439
0.16744
0.167442
0.167444
0.167446
0.167448
0.16745
0.167452
0.167454
0.167456
0.167457
0.16747
0.158099
0.158077
0.158072
0.158072
0.158072
0.158073
0.158074
0.158076
0.158077
0.158079
0.158081
0.158083
0.158085
0.158087
0.158089
0.158091
0.158094
0.158096
0.158099
0.158102
0.158104
0.158107
0.15811
0.158113
0.158117
0.15812
0.158123
0.158126
0.15813
0.158133
0.158136
0.15814
0.158143
0.158147
0.15815
0.158154
0.158158
0.158161
0.158165
0.158169
0.158173
0.158176
0.15818
0.158182
0.158196
0.158188
0.158167
0.158163
0.158163
0.158165
0.158166
0.158168
0.15817
0.158172
0.158174
0.158176
0.158178
0.15818
0.158183
0.158184
0.158196
0.149299
0.149277
0.149273
0.149272
0.149273
0.149274
0.149275
0.149276
0.149278
0.14928
0.149282
0.149284
0.149286
0.149288
0.14929
0.149293
0.149295
0.149298
0.149301
0.149303
0.149306
0.149309
0.149312
0.149315
0.149318
0.149322
0.149325
0.149328
0.149332
0.149335
0.149338
0.149342
0.149345
0.149349
0.149352
0.149356
0.14936
0.149363
0.149367
0.149371
0.149375
0.149378
0.149382
0.149384
0.149398
0.149389
0.149368
0.149364
0.149364
0.149365
0.149367
0.149369
0.149371
0.149373
0.149375
0.149377
0.14938
0.149382
0.149384
0.149385
0.149397
0.140957
0.140935
0.140931
0.14093
0.140931
0.140932
0.140933
0.140935
0.140937
0.140939
0.140941
0.140943
0.140945
0.140947
0.140949
0.140952
0.140954
0.140957
0.14096
0.140963
0.140966
0.140969
0.140972
0.140975
0.140978
0.140981
0.140984
0.140988
0.140991
0.140994
0.140998
0.141001
0.141005
0.141008
0.141012
0.141016
0.141019
0.141023
0.141027
0.14103
0.141034
0.141038
0.141042
0.141044
0.141057
0.141047
0.141026
0.141022
0.141022
0.141023
0.141025
0.141027
0.141029
0.141031
0.141034
0.141036
0.141038
0.141041
0.141043
0.141044
0.141056
0.133056
0.133034
0.13303
0.133029
0.13303
0.133031
0.133033
0.133034
0.133036
0.133038
0.13304
0.133042
0.133045
0.133047
0.133049
0.133052
0.133054
0.133057
0.13306
0.133063
0.133066
0.133069
0.133072
0.133075
0.133078
0.133081
0.133084
0.133088
0.133091
0.133094
0.133098
0.133101
0.133105
0.133108
0.133112
0.133115
0.133119
0.133123
0.133126
0.13313
0.133134
0.133137
0.133141
0.133144
0.133156
0.133145
0.133124
0.133121
0.133121
0.133122
0.133124
0.133126
0.133128
0.13313
0.133133
0.133135
0.133137
0.13314
0.133142
0.133143
0.133155
0.125579
0.125557
0.125553
0.125553
0.125553
0.125555
0.125556
0.125558
0.12556
0.125562
0.125564
0.125566
0.125569
0.125571
0.125573
0.125576
0.125579
0.125581
0.125584
0.125587
0.12559
0.125593
0.125596
0.125599
0.125602
0.125605
0.125609
0.125612
0.125615
0.125619
0.125622
0.125625
0.125629
0.125632
0.125636
0.125639
0.125643
0.125647
0.12565
0.125654
0.125657
0.125661
0.125665
0.125667
0.125679
0.125668
0.125647
0.125643
0.125643
0.125645
0.125647
0.125649
0.125651
0.125653
0.125655
0.125658
0.12566
0.125663
0.125665
0.125667
0.125678
0.11851
0.118488
0.118484
0.118484
0.118485
0.118486
0.118488
0.11849
0.118492
0.118494
0.118496
0.118498
0.118501
0.118503
0.118505
0.118508
0.118511
0.118513
0.118516
0.118519
0.118522
0.118525
0.118528
0.118531
0.118534
0.118538
0.118541
0.118544
0.118547
0.118551
0.118554
0.118557
0.118561
0.118564
0.118568
0.118571
0.118575
0.118578
0.118582
0.118585
0.118589
0.118593
0.118596
0.118599
0.11861
0.118598
0.118577
0.118574
0.118574
0.118575
0.118577
0.118579
0.118582
0.118584
0.118586
0.118589
0.118591
0.118594
0.118596
0.118598
0.118608
0.111833
0.111812
0.111808
0.111808
0.111809
0.11181
0.111812
0.111814
0.111816
0.111818
0.11182
0.111823
0.111825
0.111827
0.11183
0.111832
0.111835
0.111838
0.111841
0.111844
0.111847
0.11185
0.111853
0.111856
0.111859
0.111862
0.111865
0.111868
0.111871
0.111875
0.111878
0.111881
0.111885
0.111888
0.111892
0.111895
0.111898
0.111902
0.111905
0.111909
0.111913
0.111916
0.11192
0.111922
0.111933
0.11192
0.1119
0.111896
0.111897
0.111898
0.1119
0.111902
0.111904
0.111907
0.111909
0.111911
0.111914
0.111916
0.111919
0.111921
0.11193
0.105533
0.105512
0.105508
0.105509
0.10551
0.105511
0.105513
0.105515
0.105517
0.105519
0.105521
0.105524
0.105526
0.105528
0.105531
0.105534
0.105536
0.105539
0.105542
0.105545
0.105548
0.105551
0.105554
0.105557
0.10556
0.105563
0.105566
0.105569
0.105572
0.105576
0.105579
0.105582
0.105585
0.105589
0.105592
0.105595
0.105599
0.105602
0.105606
0.105609
0.105613
0.105616
0.10562
0.105622
0.105632
0.105619
0.105599
0.105595
0.105596
0.105597
0.105599
0.105601
0.105604
0.105606
0.105608
0.105611
0.105613
0.105616
0.105619
0.10562
0.105629
0.0995945
0.0995742
0.0995704
0.0995706
0.0995718
0.0995734
0.0995753
0.0995772
0.0995793
0.0995815
0.0995837
0.099586
0.0995884
0.0995909
0.0995934
0.099596
0.0995987
0.0996015
0.0996043
0.0996072
0.0996101
0.099613
0.099616
0.099619
0.099622
0.099625
0.0996281
0.0996312
0.0996343
0.0996375
0.0996407
0.0996439
0.0996471
0.0996504
0.0996536
0.0996569
0.0996603
0.0996636
0.099667
0.0996704
0.0996738
0.0996772
0.0996807
0.0996833
0.0996923
0.0996788
0.099659
0.0996557
0.0996562
0.0996577
0.0996597
0.0996618
0.099664
0.0996664
0.0996688
0.0996712
0.0996737
0.0996763
0.099679
0.0996808
0.0996891
0.0940022
0.0939823
0.0939788
0.093979
0.0939803
0.093982
0.0939838
0.0939858
0.093988
0.0939901
0.0939924
0.0939947
0.0939971
0.0939996
0.0940021
0.0940047
0.0940074
0.0940102
0.094013
0.0940158
0.0940187
0.0940216
0.0940245
0.0940275
0.0940305
0.0940335
0.0940365
0.0940395
0.0940426
0.0940457
0.0940488
0.0940519
0.0940551
0.0940582
0.0940614
0.0940646
0.0940679
0.0940711
0.0940744
0.0940777
0.094081
0.0940843
0.0940878
0.0940904
0.0940986
0.0940848
0.0940654
0.0940622
0.0940627
0.0940643
0.0940662
0.0940683
0.0940706
0.0940729
0.0940753
0.0940778
0.0940803
0.0940828
0.0940855
0.0940875
0.094095
0.0887412
0.0887219
0.0887186
0.0887189
0.0887203
0.088722
0.0887239
0.0887259
0.088728
0.0887302
0.0887325
0.0887348
0.0887372
0.0887397
0.0887422
0.0887449
0.0887475
0.0887503
0.088753
0.0887559
0.0887587
0.0887616
0.0887644
0.0887673
0.0887703
0.0887732
0.0887762
0.0887791
0.0887821
0.0887851
0.0887882
0.0887912
0.0887943
0.0887974
0.0888005
0.0888036
0.0888068
0.0888099
0.0888131
0.0888163
0.0888195
0.0888227
0.088826
0.0888287
0.0888361
0.0888219
0.088803
0.0887999
0.0888005
0.0888021
0.0888041
0.0888062
0.0888084
0.0888107
0.0888131
0.0888156
0.0888181
0.0888206
0.0888232
0.0888253
0.0888321
0.0837971
0.0837784
0.0837752
0.0837756
0.083777
0.0837787
0.0837807
0.0837827
0.0837849
0.0837871
0.0837894
0.0837917
0.0837941
0.0837966
0.0837991
0.0838017
0.0838044
0.0838071
0.0838098
0.0838126
0.0838154
0.0838182
0.0838211
0.0838239
0.0838268
0.0838296
0.0838325
0.0838354
0.0838383
0.0838413
0.0838442
0.0838472
0.0838502
0.0838531
0.0838562
0.0838592
0.0838623
0.0838653
0.0838684
0.0838715
0.0838746
0.0838777
0.0838809
0.0838836
0.0838901
0.0838757
0.0838573
0.0838544
0.083855
0.0838566
0.0838586
0.0838607
0.0838629
0.0838652
0.0838676
0.08387
0.0838724
0.0838749
0.0838776
0.0838797
0.0838857
0.0791553
0.0791372
0.0791342
0.0791347
0.0791362
0.0791379
0.0791399
0.079142
0.0791441
0.0791463
0.0791486
0.0791509
0.0791533
0.0791558
0.0791583
0.0791609
0.0791635
0.0791662
0.0791689
0.0791717
0.0791744
0.0791772
0.07918
0.0791828
0.0791855
0.0791884
0.0791912
0.079194
0.0791968
0.0791997
0.0792025
0.0792054
0.0792083
0.0792112
0.0792141
0.079217
0.07922
0.079223
0.0792259
0.0792289
0.0792319
0.0792349
0.079238
0.0792407
0.0792464
0.0792317
0.0792139
0.0792111
0.0792118
0.0792134
0.0792153
0.0792174
0.0792196
0.0792219
0.0792242
0.0792266
0.079229
0.0792315
0.0792341
0.0792363
0.0792416
0.0748018
0.0747843
0.0747815
0.0747821
0.0747836
0.0747854
0.0747874
0.0747895
0.0747916
0.0747938
0.0747961
0.0747984
0.0748008
0.0748032
0.0748057
0.0748083
0.0748109
0.0748136
0.0748162
0.0748189
0.0748216
0.0748243
0.0748271
0.0748298
0.0748325
0.0748352
0.074838
0.0748407
0.0748435
0.0748462
0.074849
0.0748518
0.0748546
0.0748574
0.0748602
0.074863
0.0748659
0.0748687
0.0748716
0.0748745
0.0748774
0.0748803
0.0748832
0.0748859
0.0748908
0.0748759
0.0748587
0.074856
0.0748567
0.0748583
0.0748602
0.0748623
0.0748645
0.0748667
0.074869
0.0748714
0.0748738
0.0748762
0.0748788
0.0748811
0.0748856
0.0707227
0.0707059
0.0707033
0.070704
0.0707055
0.0707073
0.0707093
0.0707114
0.0707135
0.0707157
0.070718
0.0707203
0.0707227
0.0707251
0.0707276
0.0707301
0.0707327
0.0707353
0.0707379
0.0707406
0.0707432
0.0707459
0.0707485
0.0707512
0.0707539
0.0707565
0.0707592
0.0707618
0.0707645
0.0707672
0.0707698
0.0707725
0.0707752
0.0707779
0.0707806
0.0707834
0.0707861
0.0707889
0.0707916
0.0707944
0.0707972
0.0707999
0.0708027
0.0708054
0.0708095
0.0707944
0.0707778
0.0707753
0.070776
0.0707776
0.0707795
0.0707816
0.0707837
0.0707859
0.0707882
0.0707905
0.0707929
0.0707953
0.0707978
0.0708001
0.0708039
0.0669045
0.0668884
0.066886
0.0668868
0.0668884
0.0668902
0.0668922
0.0668943
0.0668964
0.0668986
0.0669008
0.0669031
0.0669055
0.0669078
0.0669103
0.0669128
0.0669153
0.0669179
0.0669205
0.0669231
0.0669257
0.0669283
0.0669309
0.0669335
0.0669361
0.0669386
0.0669412
0.0669438
0.0669464
0.0669489
0.0669515
0.0669541
0.0669567
0.0669593
0.0669619
0.0669645
0.0669672
0.0669698
0.0669725
0.0669751
0.0669778
0.0669804
0.0669831
0.0669857
0.066989
0.0669738
0.0669578
0.0669554
0.0669562
0.0669578
0.0669597
0.0669617
0.0669638
0.066966
0.0669682
0.0669705
0.0669728
0.0669752
0.0669776
0.06698
0.0669831
0.0633341
0.0633188
0.0633166
0.0633174
0.063319
0.0633209
0.0633228
0.0633249
0.063327
0.0633292
0.0633314
0.0633337
0.063336
0.0633384
0.0633408
0.0633432
0.0633457
0.0633483
0.0633508
0.0633533
0.0633559
0.0633584
0.063361
0.0633635
0.063366
0.0633685
0.063371
0.0633735
0.063376
0.0633785
0.0633809
0.0633834
0.0633859
0.0633884
0.0633909
0.0633935
0.063396
0.0633985
0.063401
0.0634036
0.0634061
0.0634086
0.0634112
0.0634137
0.0634163
0.0634009
0.0633856
0.0633834
0.0633842
0.0633858
0.0633876
0.0633896
0.0633916
0.0633938
0.063396
0.0633982
0.0634005
0.0634028
0.0634052
0.0634075
0.06341
0.0599988
0.0599841
0.0599822
0.0599831
0.0599847
0.0599865
0.0599885
0.0599906
0.0599927
0.0599949
0.0599971
0.0599993
0.0600016
0.0600039
0.0600063
0.0600087
0.0600112
0.0600136
0.0600161
0.0600186
0.0600211
0.0600236
0.060026
0.0600285
0.0600309
0.0600333
0.0600357
0.0600382
0.0600406
0.060043
0.0600454
0.0600477
0.0600501
0.0600525
0.0600549
0.0600573
0.0600597
0.0600622
0.0600646
0.060067
0.0600694
0.0600718
0.0600743
0.0600768
0.0600786
0.060063
0.0600483
0.0600463
0.0600471
0.0600487
0.0600505
0.0600525
0.0600545
0.0600566
0.0600587
0.0600609
0.0600631
0.0600654
0.0600677
0.0600701
0.0600719
0.0568862
0.0568723
0.0568705
0.0568714
0.0568731
0.0568749
0.0568769
0.056879
0.0568811
0.0568832
0.0568854
0.0568876
0.0568898
0.0568921
0.0568945
0.0568968
0.0568992
0.0569017
0.0569041
0.0569065
0.056909
0.0569114
0.0569138
0.0569161
0.0569185
0.0569208
0.0569232
0.0569255
0.0569278
0.0569301
0.0569324
0.0569347
0.056937
0.0569393
0.0569416
0.0569439
0.0569462
0.0569485
0.0569508
0.0569531
0.0569554
0.0569577
0.05696
0.0569624
0.0569636
0.0569479
0.0569338
0.056932
0.0569328
0.0569344
0.0569362
0.0569381
0.0569401
0.0569421
0.0569442
0.0569463
0.0569485
0.0569507
0.0569529
0.0569553
0.0569565
0.0539845
0.0539712
0.0539696
0.0539706
0.0539723
0.0539742
0.0539761
0.0539782
0.0539803
0.0539824
0.0539845
0.0539867
0.0539889
0.0539912
0.0539934
0.0539958
0.0539981
0.0540005
0.0540029
0.0540052
0.0540076
0.0540099
0.0540123
0.0540146
0.0540169
0.0540191
0.0540214
0.0540236
0.0540258
0.0540281
0.0540303
0.0540325
0.0540347
0.0540369
0.0540391
0.0540413
0.0540434
0.0540456
0.0540478
0.05405
0.0540522
0.0540544
0.0540566
0.0540589
0.0540595
0.0540436
0.0540302
0.0540284
0.0540293
0.0540309
0.0540326
0.0540345
0.0540364
0.0540384
0.0540405
0.0540425
0.0540446
0.0540468
0.054049
0.0540514
0.054052
0.0512822
0.0512695
0.0512681
0.0512692
0.0512709
0.0512728
0.0512748
0.0512768
0.0512788
0.0512809
0.051283
0.0512852
0.0512874
0.0512896
0.0512918
0.0512941
0.0512964
0.0512987
0.051301
0.0513033
0.0513056
0.0513079
0.0513102
0.0513124
0.0513146
0.0513168
0.051319
0.0513211
0.0513233
0.0513254
0.0513275
0.0513296
0.0513317
0.0513338
0.0513359
0.051338
0.0513401
0.0513422
0.0513443
0.0513464
0.0513484
0.0513505
0.0513526
0.0513548
0.0513548
0.0513387
0.0513259
0.0513244
0.0513253
0.0513268
0.0513285
0.0513304
0.0513322
0.0513342
0.0513362
0.0513382
0.0513402
0.0513423
0.0513445
0.0513468
0.0513469
0.0487684
0.0487564
0.0487552
0.0487563
0.048758
0.0487599
0.0487619
0.0487639
0.0487659
0.048768
0.0487701
0.0487722
0.0487743
0.0487765
0.0487787
0.0487809
0.0487831
0.0487854
0.0487877
0.0487899
0.0487921
0.0487944
0.0487965
0.0487987
0.0488008
0.048803
0.0488051
0.0488071
0.0488092
0.0488112
0.0488133
0.0488153
0.0488173
0.0488193
0.0488213
0.0488233
0.0488253
0.0488272
0.0488292
0.0488312
0.0488332
0.0488351
0.0488371
0.0488393
0.0488387
0.0488224
0.0488103
0.0488088
0.0488097
0.0488113
0.048813
0.0488148
0.0488166
0.0488185
0.0488204
0.0488224
0.0488244
0.0488264
0.0488285
0.0488308
0.0488304
0.0464327
0.0464214
0.0464203
0.0464215
0.0464232
0.0464251
0.0464271
0.0464291
0.0464311
0.0464331
0.0464352
0.0464372
0.0464393
0.0464414
0.0464436
0.0464458
0.046448
0.0464502
0.0464524
0.0464546
0.0464568
0.0464589
0.046461
0.0464631
0.0464652
0.0464672
0.0464692
0.0464712
0.0464732
0.0464752
0.0464771
0.0464791
0.046481
0.0464829
0.0464848
0.0464867
0.0464886
0.0464904
0.0464923
0.0464942
0.0464961
0.0464979
0.0464998
0.0465018
0.0465007
0.0464843
0.0464727
0.0464714
0.0464724
0.0464739
0.0464756
0.0464773
0.0464791
0.046481
0.0464828
0.0464847
0.0464867
0.0464887
0.0464907
0.0464929
0.0464921
0.0442653
0.0442546
0.0442537
0.044255
0.0442567
0.0442586
0.0442605
0.0442625
0.0442645
0.0442665
0.0442685
0.0442706
0.0442726
0.0442747
0.0442768
0.0442789
0.0442811
0.0442832
0.0442854
0.0442875
0.0442896
0.0442917
0.0442937
0.0442958
0.0442978
0.0442997
0.0443017
0.0443036
0.0443055
0.0443074
0.0443093
0.0443111
0.0443129
0.0443148
0.0443166
0.0443184
0.0443202
0.0443219
0.0443237
0.0443255
0.0443272
0.044329
0.0443307
0.0443327
0.0443311
0.0443145
0.0443035
0.0443024
0.0443033
0.0443048
0.0443065
0.0443082
0.0443099
0.0443117
0.0443136
0.0443154
0.0443173
0.0443192
0.0443212
0.0443234
0.0443221
0.0422569
0.0422468
0.0422461
0.0422474
0.0422491
0.042251
0.042253
0.0422549
0.0422569
0.0422589
0.0422608
0.0422628
0.0422648
0.0422669
0.0422689
0.042271
0.0422731
0.0422752
0.0422773
0.0422794
0.0422814
0.0422834
0.0422854
0.0422874
0.0422893
0.0422912
0.0422931
0.042295
0.0422968
0.0422986
0.0423004
0.0423021
0.0423039
0.0423056
0.0423073
0.0423091
0.0423108
0.0423124
0.0423141
0.0423158
0.0423175
0.0423191
0.0423208
0.0423226
0.0423206
0.0423037
0.0422934
0.0422923
0.0422933
0.0422948
0.0422964
0.0422981
0.0422998
0.0423016
0.0423033
0.0423051
0.042307
0.0423088
0.0423107
0.0423129
0.0423112
0.0403987
0.0403892
0.0403886
0.04039
0.0403918
0.0403937
0.0403956
0.0403975
0.0403995
0.0404014
0.0404034
0.0404053
0.0404073
0.0404093
0.0404113
0.0404133
0.0404154
0.0404174
0.0404195
0.0404215
0.0404235
0.0404254
0.0404274
0.0404293
0.0404311
0.040433
0.0404348
0.0404366
0.0404383
0.04044
0.0404418
0.0404434
0.0404451
0.0404468
0.0404484
0.04045
0.0404516
0.0404532
0.0404548
0.0404564
0.040458
0.0404595
0.0404611
0.0404629
0.0404605
0.0404434
0.0404335
0.0404326
0.0404336
0.0404351
0.0404367
0.0404383
0.04044
0.0404417
0.0404434
0.0404452
0.0404469
0.0404487
0.0404506
0.0404527
0.0404507
0.0386827
0.0386737
0.0386733
0.0386747
0.0386765
0.0386784
0.0386803
0.0386822
0.0386842
0.0386861
0.038688
0.0386899
0.0386919
0.0386938
0.0386958
0.0386977
0.0386997
0.0387017
0.0387037
0.0387057
0.0387076
0.0387095
0.0387114
0.0387132
0.038715
0.0387168
0.0387186
0.0387203
0.038722
0.0387236
0.0387253
0.0387269
0.0387285
0.03873
0.0387316
0.0387331
0.0387347
0.0387362
0.0387377
0.0387392
0.0387407
0.0387421
0.0387436
0.0387453
0.0387426
0.0387252
0.0387159
0.0387151
0.0387161
0.0387175
0.0387191
0.0387207
0.0387223
0.038724
0.0387257
0.0387274
0.0387291
0.0387308
0.0387326
0.0387347
0.0387323
0.0371012
0.0370928
0.0370925
0.0370939
0.0370957
0.0370976
0.0370995
0.0371014
0.0371034
0.0371052
0.0371071
0.037109
0.0371109
0.0371128
0.0371148
0.0371167
0.0371186
0.0371206
0.0371225
0.0371244
0.0371263
0.0371281
0.03713
0.0371317
0.0371335
0.0371352
0.0371369
0.0371385
0.0371402
0.0371417
0.0371433
0.0371449
0.0371464
0.0371479
0.0371494
0.0371508
0.0371523
0.0371537
0.0371551
0.0371566
0.0371579
0.0371593
0.0371607
0.0371623