/*--------------------------------*- C++ -*----------------------------------*\
  =========                 |
  \\      /  F ield         | OpenFOAM: The Open Source CFD Toolbox
   \\    /   O peration     | Website:  https://openfoam.org
    \\  /    A nd           | Version:  7
     \\/     M anipulation  |
\*---------------------------------------------------------------------------*/
FoamFile
{
    version     2.0;
    format      ascii;
    class       volScalarField;
    location    "16000";
    object      nut;
}
// * * * * * * * * * * * * * * * * * * * * * * * * * * * * * * * * * * * * * //

dimensions      [0 2 -1 0 0 0 0];

internalField   nonuniform List<scalar> 
4026
(
0.000299217
0.000299211
0.000299211
0.000299213
0.000299215
0.000299217
0.000299219
0.000299222
0.000299224
0.000299226
0.000299228
0.00029923
0.000299232
0.000299234
0.000299236
0.000299238
0.00029924
0.000299242
0.000299244
0.000299246
0.000299248
0.000299249
0.000299251
0.000299252
0.000299254
0.000299255
0.000299256
0.000299258
0.000299259
0.00029926
0.000299261
0.000299262
0.000299263
0.000299264
0.000299264
0.000299265
0.000299266
0.000299266
0.000299267
0.000299267
0.000299268
0.000299268
0.000299269
0.000299268
0.000299271
0.000299209
0.00029921
0.000299213
0.000299215
0.000299218
0.000299221
0.000299223
0.000299225
0.000299227
0.000299229
0.00029923
0.000299232
0.000299233
0.000299235
0.000299235
0.000299241
0.000314287
0.000314282
0.000314282
0.000314283
0.000314285
0.000314288
0.00031429
0.000314293
0.000314295
0.000314297
0.000314299
0.000314301
0.000314303
0.000314305
0.000314308
0.00031431
0.000314312
0.000314314
0.000314316
0.000314318
0.00031432
0.000314321
0.000314323
0.000314324
0.000314326
0.000314327
0.000314329
0.00031433
0.000314331
0.000314332
0.000314333
0.000314334
0.000314335
0.000314336
0.000314336
0.000314337
0.000314337
0.000314338
0.000314338
0.000314339
0.000314339
0.000314339
0.00031434
0.00031434
0.000314342
0.000314274
0.000314274
0.000314277
0.000314281
0.000314284
0.000314287
0.000314289
0.000314292
0.000314294
0.000314296
0.000314298
0.000314299
0.000314301
0.000314303
0.000314303
0.000314309
0.000329787
0.000329782
0.000329782
0.000329784
0.000329786
0.000329789
0.000329791
0.000329794
0.000329796
0.000329799
0.000329801
0.000329803
0.000329805
0.000329807
0.000329809
0.000329812
0.000329814
0.000329816
0.000329818
0.00032982
0.000329822
0.000329823
0.000329825
0.000329826
0.000329828
0.000329829
0.00032983
0.000329832
0.000329833
0.000329834
0.000329835
0.000329836
0.000329836
0.000329837
0.000329838
0.000329838
0.000329839
0.000329839
0.00032984
0.00032984
0.00032984
0.00032984
0.000329841
0.00032984
0.000329843
0.000329771
0.000329769
0.000329772
0.000329776
0.000329779
0.000329782
0.000329785
0.000329788
0.000329791
0.000329793
0.000329795
0.000329796
0.000329798
0.0003298
0.0003298
0.000329805
0.000345742
0.000345738
0.000345738
0.00034574
0.000345743
0.000345745
0.000345748
0.000345751
0.000345753
0.000345756
0.000345758
0.00034576
0.000345762
0.000345765
0.000345767
0.000345769
0.000345771
0.000345773
0.000345775
0.000345777
0.000345779
0.000345781
0.000345782
0.000345784
0.000345785
0.000345786
0.000345787
0.000345789
0.00034579
0.000345791
0.000345791
0.000345792
0.000345793
0.000345794
0.000345794
0.000345795
0.000345795
0.000345795
0.000345796
0.000345796
0.000345796
0.000345796
0.000345796
0.000345796
0.000345798
0.000345724
0.000345721
0.000345723
0.000345727
0.00034573
0.000345734
0.000345737
0.00034574
0.000345742
0.000345745
0.000345747
0.000345748
0.00034575
0.000345752
0.000345752
0.000345757
0.00036218
0.000362177
0.000362177
0.000362179
0.000362182
0.000362185
0.000362188
0.000362191
0.000362193
0.000362196
0.000362198
0.000362201
0.000362203
0.000362205
0.000362207
0.000362209
0.000362211
0.000362213
0.000362215
0.000362217
0.000362219
0.00036222
0.000362222
0.000362223
0.000362225
0.000362226
0.000362227
0.000362228
0.000362229
0.00036223
0.000362231
0.000362231
0.000362232
0.000362232
0.000362233
0.000362233
0.000362233
0.000362234
0.000362234
0.000362234
0.000362234
0.000362234
0.000362233
0.000362233
0.000362235
0.000362159
0.000362156
0.000362158
0.000362161
0.000362164
0.000362167
0.000362171
0.000362174
0.000362176
0.000362179
0.000362181
0.000362183
0.000362184
0.000362186
0.000362187
0.00036219
0.000379129
0.000379128
0.000379129
0.000379131
0.000379134
0.000379137
0.00037914
0.000379143
0.000379145
0.000379148
0.000379151
0.000379153
0.000379155
0.000379157
0.000379159
0.000379161
0.000379163
0.000379165
0.000379167
0.000379169
0.00037917
0.000379172
0.000379173
0.000379175
0.000379176
0.000379177
0.000379178
0.000379179
0.00037918
0.00037918
0.000379181
0.000379182
0.000379182
0.000379183
0.000379183
0.000379183
0.000379183
0.000379183
0.000379183
0.000379183
0.000379183
0.000379182
0.000379182
0.000379182
0.000379182
0.000379107
0.000379104
0.000379105
0.000379107
0.00037911
0.000379113
0.000379117
0.00037912
0.000379122
0.000379125
0.000379127
0.000379128
0.00037913
0.000379131
0.000379132
0.000379135
0.000396622
0.000396622
0.000396624
0.000396626
0.000396629
0.000396632
0.000396635
0.000396638
0.000396641
0.000396644
0.000396646
0.000396649
0.000396651
0.000396653
0.000396654
0.000396656
0.000396658
0.00039666
0.000396662
0.000396664
0.000396665
0.000396667
0.000396668
0.000396669
0.00039667
0.000396671
0.000396672
0.000396673
0.000396674
0.000396674
0.000396674
0.000396675
0.000396675
0.000396675
0.000396675
0.000396675
0.000396675
0.000396675
0.000396675
0.000396675
0.000396674
0.000396674
0.000396673
0.000396672
0.000396672
0.000396597
0.000396595
0.000396596
0.000396598
0.0003966
0.000396603
0.000396606
0.000396609
0.000396611
0.000396613
0.000396615
0.000396617
0.000396618
0.000396619
0.00039662
0.000396622
0.000414692
0.000414693
0.000414695
0.000414698
0.000414701
0.000414705
0.000414708
0.000414711
0.000414714
0.000414717
0.000414719
0.000414721
0.000414723
0.000414725
0.000414727
0.000414728
0.00041473
0.000414732
0.000414734
0.000414735
0.000414737
0.000414738
0.000414739
0.00041474
0.000414741
0.000414742
0.000414742
0.000414743
0.000414743
0.000414744
0.000414744
0.000414744
0.000414744
0.000414744
0.000414744
0.000414744
0.000414743
0.000414743
0.000414742
0.000414742
0.000414741
0.00041474
0.00041474
0.000414739
0.000414737
0.000414664
0.000414663
0.000414663
0.000414664
0.000414666
0.000414669
0.000414671
0.000414674
0.000414676
0.000414678
0.00041468
0.000414681
0.000414683
0.000414684
0.000414685
0.000414685
0.000433373
0.000433377
0.00043338
0.000433383
0.000433386
0.000433389
0.000433392
0.000433396
0.000433399
0.000433401
0.000433404
0.000433406
0.000433408
0.000433409
0.000433411
0.000433412
0.000433414
0.000433416
0.000433417
0.000433418
0.00043342
0.000433421
0.000433422
0.000433422
0.000433423
0.000433423
0.000433424
0.000433424
0.000433424
0.000433424
0.000433424
0.000433424
0.000433424
0.000433424
0.000433423
0.000433423
0.000433422
0.000433422
0.000433421
0.00043342
0.000433419
0.000433418
0.000433417
0.000433416
0.000433413
0.000433342
0.000433342
0.000433342
0.000433343
0.000433345
0.000433347
0.000433349
0.000433351
0.000433353
0.000433355
0.000433356
0.000433357
0.000433358
0.000433359
0.00043336
0.000433358
0.000452704
0.00045271
0.000452713
0.000452717
0.00045272
0.000452723
0.000452727
0.00045273
0.000452733
0.000452735
0.000452738
0.00045274
0.000452741
0.000452743
0.000452744
0.000452745
0.000452747
0.000452748
0.000452749
0.000452751
0.000452752
0.000452752
0.000452753
0.000452753
0.000452754
0.000452754
0.000452754
0.000452754
0.000452754
0.000452754
0.000452753
0.000452753
0.000452752
0.000452752
0.000452751
0.00045275
0.000452749
0.000452748
0.000452747
0.000452746
0.000452745
0.000452743
0.000452742
0.000452741
0.000452736
0.000452668
0.00045267
0.00045267
0.000452671
0.000452672
0.000452673
0.000452675
0.000452677
0.000452678
0.00045268
0.000452681
0.000452682
0.000452682
0.000452682
0.000452683
0.00045268
0.000472724
0.000472732
0.000472736
0.00047274
0.000472743
0.000472747
0.00047275
0.000472753
0.000472756
0.000472758
0.00047276
0.000472762
0.000472764
0.000472765
0.000472766
0.000472767
0.000472768
0.000472769
0.00047277
0.000472771
0.000472772
0.000472772
0.000472772
0.000472772
0.000472772
0.000472772
0.000472772
0.000472772
0.000472771
0.00047277
0.00047277
0.000472769
0.000472768
0.000472767
0.000472766
0.000472765
0.000472763
0.000472762
0.00047276
0.000472759
0.000472757
0.000472755
0.000472753
0.000472753
0.000472745
0.000472681
0.000472685
0.000472686
0.000472686
0.000472687
0.000472688
0.000472689
0.00047269
0.000472692
0.000472693
0.000472693
0.000472694
0.000472694
0.000472693
0.000472694
0.000472689
0.000493474
0.000493484
0.000493489
0.000493493
0.000493497
0.0004935
0.000493503
0.000493506
0.000493509
0.000493511
0.000493513
0.000493515
0.000493516
0.000493517
0.000493518
0.000493518
0.000493519
0.00049352
0.00049352
0.000493521
0.000493521
0.000493521
0.000493521
0.000493521
0.00049352
0.00049352
0.000493519
0.000493518
0.000493517
0.000493516
0.000493515
0.000493514
0.000493512
0.000493511
0.000493509
0.000493508
0.000493506
0.000493504
0.000493502
0.0004935
0.000493498
0.000493496
0.000493493
0.000493492
0.000493483
0.000493423
0.00049343
0.000493431
0.000493431
0.000493431
0.000493432
0.000493432
0.000493433
0.000493434
0.000493435
0.000493435
0.000493435
0.000493434
0.000493433
0.000493434
0.000493427
0.000514997
0.000515011
0.000515016
0.00051502
0.000515024
0.000515027
0.00051503
0.000515033
0.000515036
0.000515038
0.00051504
0.000515041
0.000515042
0.000515042
0.000515043
0.000515043
0.000515044
0.000515044
0.000515044
0.000515044
0.000515044
0.000515043
0.000515043
0.000515042
0.000515041
0.00051504
0.000515039
0.000515037
0.000515036
0.000515034
0.000515033
0.000515031
0.000515029
0.000515027
0.000515025
0.000515023
0.00051502
0.000515018
0.000515016
0.000515013
0.00051501
0.000515008
0.000515005
0.000515004
0.000514992
0.000514938
0.000514947
0.000514948
0.000514948
0.000514948
0.000514948
0.000514948
0.000514949
0.000514949
0.000514949
0.000514949
0.000514948
0.000514947
0.000514946
0.000514946
0.000514936
0.00053734
0.000537356
0.000537363
0.000537367
0.000537371
0.000537374
0.000537377
0.00053738
0.000537382
0.000537384
0.000537385
0.000537386
0.000537387
0.000537387
0.000537387
0.000537387
0.000537387
0.000537386
0.000537386
0.000537385
0.000537385
0.000537384
0.000537383
0.000537381
0.00053738
0.000537378
0.000537376
0.000537374
0.000537372
0.00053737
0.000537368
0.000537365
0.000537363
0.00053736
0.000537358
0.000537355
0.000537352
0.000537349
0.000537346
0.000537343
0.00053734
0.000537337
0.000537333
0.000537332
0.000537317
0.000537269
0.000537281
0.000537283
0.000537283
0.000537282
0.000537282
0.000537282
0.000537282
0.000537282
0.000537281
0.00053728
0.000537279
0.000537278
0.000537276
0.000537276
0.000537263
0.000560549
0.000560569
0.000560577
0.000560581
0.000560585
0.000560588
0.000560591
0.000560593
0.000560595
0.000560597
0.000560598
0.000560598
0.000560598
0.000560598
0.000560597
0.000560597
0.000560596
0.000560595
0.000560594
0.000560593
0.000560592
0.00056059
0.000560589
0.000560587
0.000560584
0.000560582
0.00056058
0.000560577
0.000560574
0.000560571
0.000560568
0.000560565
0.000560562
0.000560559
0.000560555
0.000560552
0.000560548
0.000560545
0.000560541
0.000560537
0.000560533
0.00056053
0.000560525
0.000560524
0.000560506
0.000560465
0.000560481
0.000560484
0.000560483
0.000560483
0.000560482
0.000560481
0.000560481
0.00056048
0.000560479
0.000560477
0.000560475
0.000560473
0.00056047
0.000560471
0.000560454
0.000584674
0.000584699
0.000584707
0.000584712
0.000584715
0.000584718
0.000584721
0.000584723
0.000584725
0.000584726
0.000584726
0.000584726
0.000584726
0.000584725
0.000584724
0.000584723
0.000584721
0.00058472
0.000584718
0.000584717
0.000584715
0.000584712
0.00058471
0.000584707
0.000584704
0.000584701
0.000584698
0.000584694
0.000584691
0.000584687
0.000584683
0.00058468
0.000584676
0.000584672
0.000584667
0.000584663
0.000584659
0.000584655
0.00058465
0.000584646
0.000584641
0.000584636
0.000584631
0.000584629
0.000584608
0.000584576
0.000584595
0.000584599
0.000584599
0.000584598
0.000584596
0.000584595
0.000584594
0.000584593
0.000584591
0.000584589
0.000584586
0.000584584
0.00058458
0.00058458
0.00058456
0.000609768
0.000609797
0.000609807
0.000609811
0.000609815
0.000609817
0.00060982
0.000609822
0.000609823
0.000609823
0.000609823
0.000609823
0.000609822
0.00060982
0.000609818
0.000609816
0.000609814
0.000609812
0.00060981
0.000609807
0.000609805
0.000609802
0.000609798
0.000609795
0.000609791
0.000609787
0.000609783
0.000609778
0.000609774
0.00060977
0.000609765
0.00060976
0.000609755
0.00060975
0.000609745
0.00060974
0.000609735
0.00060973
0.000609725
0.000609719
0.000609714
0.000609708
0.000609702
0.0006097
0.000609675
0.000609652
0.000609676
0.00060968
0.00060968
0.000609679
0.000609677
0.000609676
0.000609674
0.000609672
0.00060967
0.000609667
0.000609664
0.00060966
0.000609656
0.000609655
0.000609632
0.000635883
0.000635918
0.000635928
0.000635933
0.000635936
0.000635939
0.000635941
0.000635942
0.000635943
0.000635943
0.000635942
0.000635941
0.000635939
0.000635937
0.000635934
0.000635932
0.000635929
0.000635926
0.000635923
0.000635919
0.000635915
0.000635911
0.000635907
0.000635903
0.000635898
0.000635893
0.000635888
0.000635882
0.000635877
0.000635872
0.000635866
0.00063586
0.000635854
0.000635849
0.000635843
0.000635837
0.00063583
0.000635824
0.000635818
0.000635812
0.000635805
0.000635799
0.000635792
0.000635789
0.000635761
0.000635748
0.000635777
0.000635782
0.000635782
0.00063578
0.000635778
0.000635776
0.000635774
0.000635771
0.000635768
0.000635765
0.00063576
0.000635756
0.000635751
0.00063575
0.000635723
0.000663075
0.000663115
0.000663127
0.000663132
0.000663135
0.000663137
0.000663139
0.00066314
0.00066314
0.000663139
0.000663138
0.000663136
0.000663133
0.00066313
0.000663127
0.000663123
0.00066312
0.000663116
0.000663112
0.000663107
0.000663102
0.000663097
0.000663092
0.000663087
0.000663081
0.000663075
0.000663068
0.000663062
0.000663056
0.000663049
0.000663042
0.000663035
0.000663028
0.000663021
0.000663014
0.000663007
0.000663
0.000662993
0.000662986
0.000662978
0.000662971
0.000662963
0.000662955
0.000662952
0.000662919
0.000662917
0.000662952
0.000662958
0.000662958
0.000662956
0.000662954
0.000662952
0.000662949
0.000662945
0.000662941
0.000662937
0.000662932
0.000662927
0.00066292
0.000662919
0.000662888
0.000691401
0.000691448
0.000691461
0.000691466
0.000691469
0.000691471
0.000691472
0.000691472
0.000691472
0.00069147
0.000691468
0.000691465
0.000691462
0.000691458
0.000691454
0.000691449
0.000691445
0.00069144
0.000691434
0.000691429
0.000691423
0.000691417
0.00069141
0.000691404
0.000691397
0.000691389
0.000691382
0.000691374
0.000691366
0.000691359
0.000691351
0.000691343
0.000691334
0.000691326
0.000691318
0.00069131
0.000691301
0.000691293
0.000691285
0.000691276
0.000691267
0.000691259
0.000691249
0.000691246
0.000691208
0.000691219
0.000691259
0.000691267
0.000691267
0.000691265
0.000691262
0.000691259
0.000691255
0.000691251
0.000691247
0.000691241
0.000691236
0.00069123
0.000691222
0.00069122
0.000691185
0.00072092
0.000720974
0.000720989
0.000720994
0.000720997
0.000720998
0.000720998
0.000720998
0.000720997
0.000720995
0.000720992
0.000720988
0.000720984
0.000720979
0.000720973
0.000720968
0.000720962
0.000720956
0.000720949
0.000720942
0.000720935
0.000720928
0.00072092
0.000720912
0.000720904
0.000720895
0.000720886
0.000720877
0.000720868
0.000720859
0.00072085
0.00072084
0.000720831
0.000720821
0.000720812
0.000720802
0.000720792
0.000720783
0.000720773
0.000720763
0.000720753
0.000720743
0.000720732
0.000720728
0.000720686
0.00072071
0.000720757
0.000720766
0.000720766
0.000720764
0.000720761
0.000720757
0.000720753
0.000720748
0.000720743
0.000720736
0.00072073
0.000720723
0.000720714
0.000720712
0.000720671
0.000751693
0.000751754
0.00075177
0.000751776
0.000751778
0.000751779
0.000751779
0.000751778
0.000751776
0.000751773
0.000751768
0.000751764
0.000751758
0.000751752
0.000751746
0.000751739
0.000751732
0.000751724
0.000751716
0.000751708
0.0007517
0.000751691
0.000751682
0.000751672
0.000751662
0.000751652
0.000751642
0.000751631
0.000751621
0.00075161
0.000751599
0.000751588
0.000751577
0.000751566
0.000751555
0.000751544
0.000751533
0.000751522
0.000751511
0.0007515
0.000751488
0.000751477
0.000751465
0.00075146
0.000751413
0.000751451
0.000751506
0.000751516
0.000751516
0.000751514
0.00075151
0.000751506
0.000751501
0.000751495
0.000751489
0.000751482
0.000751474
0.000751466
0.000751456
0.000751453
0.000751408
0.000783779
0.000783849
0.000783867
0.000783872
0.000783874
0.000783874
0.000783874
0.000783872
0.000783869
0.000783865
0.00078386
0.000783854
0.000783847
0.00078384
0.000783832
0.000783824
0.000783816
0.000783807
0.000783797
0.000783787
0.000783777
0.000783767
0.000783756
0.000783745
0.000783734
0.000783722
0.00078371
0.000783698
0.000783686
0.000783673
0.000783661
0.000783648
0.000783636
0.000783623
0.00078361
0.000783598
0.000783585
0.000783572
0.00078356
0.000783547
0.000783534
0.000783521
0.000783507
0.000783501
0.000783449
0.000783503
0.000783566
0.000783578
0.000783579
0.000783576
0.000783572
0.000783567
0.000783561
0.000783554
0.000783547
0.000783539
0.00078353
0.00078352
0.000783509
0.000783506
0.000783456
0.000817242
0.000817321
0.000817341
0.000817346
0.000817348
0.000817347
0.000817346
0.000817343
0.000817339
0.000817334
0.000817328
0.00081732
0.000817312
0.000817304
0.000817295
0.000817285
0.000817275
0.000817265
0.000817254
0.000817242
0.000817231
0.000817218
0.000817206
0.000817193
0.00081718
0.000817166
0.000817153
0.000817139
0.000817124
0.000817111
0.000817096
0.000817082
0.000817067
0.000817053
0.000817038
0.000817024
0.00081701
0.000816995
0.000816981
0.000816966
0.000816951
0.000816937
0.000816921
0.000816914
0.000816857
0.000816928
0.000817001
0.000817014
0.000817014
0.000817011
0.000817007
0.000817001
0.000816994
0.000816986
0.000816978
0.000816969
0.000816959
0.000816948
0.000816936
0.000816932
0.000816877
0.000852144
0.000852233
0.000852254
0.00085226
0.000852261
0.00085226
0.000852258
0.000852254
0.000852249
0.000852243
0.000852235
0.000852226
0.000852217
0.000852207
0.000852196
0.000852185
0.000852174
0.000852161
0.000852148
0.000852135
0.000852122
0.000852108
0.000852093
0.000852078
0.000852063
0.000852048
0.000852032
0.000852016
0.000852
0.000851984
0.000851968
0.000851951
0.000851935
0.000851918
0.000851902
0.000851886
0.00085187
0.000851853
0.000851837
0.00085182
0.000851804
0.000851788
0.00085177
0.000851762
0.000851699
0.000851789
0.000851871
0.000851886
0.000851887
0.000851883
0.000851878
0.000851871
0.000851864
0.000851855
0.000851845
0.000851835
0.000851824
0.000851812
0.000851798
0.000851793
0.000851733
0.000888548
0.000888647
0.000888671
0.000888677
0.000888677
0.000888675
0.000888672
0.000888667
0.000888661
0.000888653
0.000888644
0.000888634
0.000888623
0.000888611
0.000888599
0.000888586
0.000888573
0.000888559
0.000888544
0.000888529
0.000888513
0.000888497
0.000888481
0.000888464
0.000888446
0.000888429
0.000888411
0.000888393
0.000888375
0.000888357
0.000888338
0.00088832
0.000888301
0.000888282
0.000888264
0.000888246
0.000888227
0.000888209
0.00088819
0.000888171
0.000888153
0.000888135
0.000888115
0.000888106
0.000888037
0.000888148
0.00088824
0.000888258
0.000888258
0.000888254
0.000888248
0.000888241
0.000888232
0.000888222
0.000888211
0.0008882
0.000888187
0.000888174
0.000888158
0.000888152
0.000888087
0.000926516
0.000926626
0.000926652
0.000926658
0.000926658
0.000926656
0.000926651
0.000926645
0.000926638
0.000926628
0.000926618
0.000926606
0.000926593
0.00092658
0.000926566
0.000926551
0.000926536
0.00092652
0.000926503
0.000926486
0.000926468
0.00092645
0.000926431
0.000926412
0.000926392
0.000926372
0.000926352
0.000926332
0.000926311
0.000926291
0.00092627
0.000926249
0.000926228
0.000926207
0.000926187
0.000926166
0.000926145
0.000926124
0.000926103
0.000926082
0.000926062
0.000926042
0.00092602
0.000926008
0.000925935
0.000926067
0.00092617
0.00092619
0.000926191
0.000926186
0.000926179
0.000926171
0.000926161
0.00092615
0.000926138
0.000926125
0.000926111
0.000926096
0.000926079
0.000926072
0.000926002
0.000966109
0.000966232
0.00096626
0.000966266
0.000966266
0.000966262
0.000966257
0.000966249
0.00096624
0.00096623
0.000966217
0.000966204
0.000966189
0.000966174
0.000966158
0.000966141
0.000966124
0.000966105
0.000966086
0.000966067
0.000966047
0.000966026
0.000966005
0.000965983
0.000965961
0.000965939
0.000965916
0.000965893
0.00096587
0.000965847
0.000965824
0.0009658
0.000965777
0.000965754
0.000965731
0.000965708
0.000965685
0.000965661
0.000965638
0.000965614
0.000965591
0.000965569
0.000965545
0.000965531
0.000965452
0.000965607
0.000965723
0.000965745
0.000965746
0.000965741
0.000965733
0.000965724
0.000965713
0.000965701
0.000965687
0.000965673
0.000965657
0.00096564
0.000965622
0.000965613
0.000965539
0.00100739
0.00100752
0.00100756
0.00100756
0.00100756
0.00100756
0.00100755
0.00100754
0.00100753
0.00100752
0.0010075
0.00100749
0.00100747
0.00100745
0.00100744
0.00100742
0.0010074
0.00100738
0.00100735
0.00100733
0.00100731
0.00100729
0.00100726
0.00100724
0.00100721
0.00100719
0.00100716
0.00100714
0.00100711
0.00100709
0.00100706
0.00100703
0.00100701
0.00100698
0.00100696
0.00100693
0.00100691
0.00100688
0.00100685
0.00100683
0.0010068
0.00100678
0.00100675
0.00100673
0.00100665
0.00100683
0.00100696
0.00100698
0.00100698
0.00100698
0.00100697
0.00100696
0.00100695
0.00100693
0.00100692
0.0010069
0.00100688
0.00100687
0.00100685
0.00100684
0.00100676
0.00105041
0.00105056
0.00105059
0.0010506
0.0010506
0.00105059
0.00105059
0.00105057
0.00105056
0.00105055
0.00105053
0.00105051
0.0010505
0.00105048
0.00105046
0.00105043
0.00105041
0.00105039
0.00105037
0.00105034
0.00105032
0.00105029
0.00105026
0.00105024
0.00105021
0.00105018
0.00105015
0.00105012
0.00105009
0.00105007
0.00105004
0.00105001
0.00104998
0.00104995
0.00104992
0.00104989
0.00104986
0.00104984
0.00104981
0.00104978
0.00104975
0.00104972
0.00104969
0.00104967
0.00104959
0.00104979
0.00104993
0.00104996
0.00104996
0.00104996
0.00104995
0.00104994
0.00104992
0.00104991
0.00104989
0.00104987
0.00104985
0.00104983
0.00104981
0.0010498
0.00104971
0.00109523
0.0010954
0.00109543
0.00109544
0.00109544
0.00109543
0.00109542
0.00109541
0.00109539
0.00109538
0.00109536
0.00109534
0.00109532
0.0010953
0.00109527
0.00109525
0.00109523
0.0010952
0.00109517
0.00109515
0.00109512
0.00109509
0.00109506
0.00109503
0.001095
0.00109497
0.00109494
0.0010949
0.00109487
0.00109484
0.00109481
0.00109478
0.00109475
0.00109471
0.00109468
0.00109465
0.00109462
0.00109459
0.00109456
0.00109452
0.00109449
0.00109446
0.00109443
0.00109441
0.00109431
0.00109455
0.0010947
0.00109474
0.00109474
0.00109473
0.00109472
0.00109471
0.00109469
0.00109467
0.00109466
0.00109464
0.00109461
0.00109459
0.00109457
0.00109456
0.00109447
0.0011419
0.00114208
0.00114212
0.00114213
0.00114213
0.00114212
0.00114211
0.00114209
0.00114208
0.00114206
0.00114204
0.00114202
0.00114199
0.00114197
0.00114194
0.00114192
0.00114189
0.00114186
0.00114183
0.0011418
0.00114177
0.00114174
0.0011417
0.00114167
0.00114164
0.0011416
0.00114157
0.00114153
0.0011415
0.00114146
0.00114143
0.00114139
0.00114136
0.00114132
0.00114129
0.00114125
0.00114122
0.00114118
0.00114115
0.00114111
0.00114108
0.00114104
0.00114101
0.00114099
0.00114089
0.00114115
0.00114132
0.00114136
0.00114136
0.00114135
0.00114134
0.00114132
0.00114131
0.00114129
0.00114127
0.00114125
0.00114122
0.0011412
0.00114117
0.00114116
0.00114107
0.00119047
0.00119067
0.00119071
0.00119072
0.00119071
0.0011907
0.00119069
0.00119067
0.00119066
0.00119064
0.00119061
0.00119059
0.00119056
0.00119054
0.00119051
0.00119048
0.00119045
0.00119042
0.00119038
0.00119035
0.00119032
0.00119028
0.00119024
0.00119021
0.00119017
0.00119013
0.00119009
0.00119005
0.00119002
0.00118998
0.00118994
0.0011899
0.00118986
0.00118982
0.00118979
0.00118975
0.00118971
0.00118967
0.00118963
0.00118959
0.00118956
0.00118952
0.00118948
0.00118945
0.00118935
0.00118964
0.00118983
0.00118987
0.00118987
0.00118986
0.00118985
0.00118983
0.00118982
0.0011898
0.00118977
0.00118975
0.00118972
0.0011897
0.00118967
0.00118965
0.00118956
0.00124098
0.00124119
0.00124124
0.00124124
0.00124124
0.00124123
0.00124121
0.00124119
0.00124117
0.00124115
0.00124112
0.0012411
0.00124107
0.00124104
0.00124101
0.00124097
0.00124094
0.00124091
0.00124087
0.00124083
0.0012408
0.00124076
0.00124072
0.00124068
0.00124064
0.00124059
0.00124055
0.00124051
0.00124047
0.00124043
0.00124038
0.00124034
0.0012403
0.00124026
0.00124022
0.00124017
0.00124013
0.00124009
0.00124005
0.00124001
0.00123997
0.00123992
0.00123988
0.00123985
0.00123975
0.00124007
0.00124027
0.00124032
0.00124032
0.00124031
0.00124029
0.00124028
0.00124026
0.00124024
0.00124021
0.00124019
0.00124016
0.00124013
0.0012401
0.00124008
0.00123998
0.00129345
0.00129368
0.00129373
0.00129374
0.00129373
0.00129372
0.0012937
0.00129368
0.00129366
0.00129364
0.00129361
0.00129358
0.00129355
0.00129351
0.00129348
0.00129344
0.00129341
0.00129337
0.00129333
0.00129329
0.00129325
0.0012932
0.00129316
0.00129312
0.00129307
0.00129303
0.00129298
0.00129293
0.00129289
0.00129284
0.0012928
0.00129275
0.0012927
0.00129266
0.00129261
0.00129257
0.00129252
0.00129248
0.00129243
0.00129238
0.00129234
0.0012923
0.00129225
0.00129221
0.00129211
0.00129246
0.00129269
0.00129273
0.00129273
0.00129272
0.00129271
0.00129269
0.00129267
0.00129264
0.00129262
0.00129259
0.00129256
0.00129253
0.00129249
0.00129247
0.00129237
0.00134792
0.00134817
0.00134823
0.00134824
0.00134823
0.00134821
0.00134819
0.00134817
0.00134815
0.00134812
0.00134809
0.00134805
0.00134802
0.00134798
0.00134794
0.00134791
0.00134787
0.00134782
0.00134778
0.00134774
0.00134769
0.00134765
0.0013476
0.00134755
0.0013475
0.00134745
0.0013474
0.00134735
0.0013473
0.00134725
0.0013472
0.00134715
0.0013471
0.00134705
0.001347
0.00134695
0.0013469
0.00134685
0.0013468
0.00134675
0.00134671
0.00134666
0.00134661
0.00134657
0.00134646
0.00134685
0.00134709
0.00134714
0.00134714
0.00134713
0.00134711
0.00134709
0.00134707
0.00134704
0.00134701
0.00134698
0.00134695
0.00134692
0.00134688
0.00134686
0.00134676
0.00140441
0.00140468
0.00140474
0.00140474
0.00140473
0.00140472
0.0014047
0.00140467
0.00140464
0.00140461
0.00140458
0.00140454
0.0014045
0.00140446
0.00140442
0.00140438
0.00140434
0.00140429
0.00140424
0.0014042
0.00140415
0.0014041
0.00140405
0.00140399
0.00140394
0.00140389
0.00140383
0.00140378
0.00140373
0.00140367
0.00140362
0.00140356
0.00140351
0.00140345
0.0014034
0.00140335
0.00140329
0.00140324
0.00140319
0.00140313
0.00140308
0.00140303
0.00140297
0.00140293
0.00140282
0.00140324
0.00140351
0.00140356
0.00140356
0.00140355
0.00140353
0.00140351
0.00140348
0.00140345
0.00140342
0.00140339
0.00140335
0.00140332
0.00140328
0.00140325
0.00140315
0.00146292
0.0014632
0.00146327
0.00146327
0.00146326
0.00146324
0.00146322
0.00146319
0.00146316
0.00146312
0.00146309
0.00146305
0.00146301
0.00146296
0.00146292
0.00146287
0.00146282
0.00146278
0.00146273
0.00146267
0.00146262
0.00146257
0.00146251
0.00146245
0.0014624
0.00146234
0.00146228
0.00146222
0.00146216
0.00146211
0.00146205
0.00146199
0.00146193
0.00146187
0.00146181
0.00146175
0.0014617
0.00146164
0.00146158
0.00146152
0.00146147
0.00146141
0.00146135
0.0014613
0.00146119
0.00146165
0.00146193
0.00146199
0.00146199
0.00146198
0.00146196
0.00146193
0.00146191
0.00146188
0.00146184
0.00146181
0.00146177
0.00146173
0.00146169
0.00146166
0.00146156
0.00152343
0.00152374
0.00152381
0.00152381
0.0015238
0.00152378
0.00152375
0.00152372
0.00152369
0.00152365
0.00152361
0.00152356
0.00152352
0.00152347
0.00152342
0.00152337
0.00152332
0.00152327
0.00152321
0.00152316
0.0015231
0.00152304
0.00152298
0.00152292
0.00152286
0.0015228
0.00152274
0.00152267
0.00152261
0.00152255
0.00152248
0.00152242
0.00152236
0.00152229
0.00152223
0.00152217
0.00152211
0.00152204
0.00152198
0.00152192
0.00152186
0.0015218
0.00152174
0.00152168
0.00152157
0.00152207
0.00152237
0.00152243
0.00152243
0.00152242
0.0015224
0.00152237
0.00152234
0.00152231
0.00152227
0.00152223
0.00152219
0.00152215
0.00152211
0.00152207
0.00152198
0.00158594
0.00158627
0.00158634
0.00158634
0.00158633
0.0015863
0.00158627
0.00158624
0.0015862
0.00158616
0.00158611
0.00158607
0.00158602
0.00158597
0.00158592
0.00158586
0.00158581
0.00158575
0.00158569
0.00158563
0.00158557
0.00158551
0.00158544
0.00158538
0.00158531
0.00158524
0.00158518
0.00158511
0.00158504
0.00158497
0.00158491
0.00158484
0.00158477
0.0015847
0.00158464
0.00158457
0.0015845
0.00158444
0.00158437
0.0015843
0.00158424
0.00158417
0.00158411
0.00158405
0.00158394
0.00158448
0.0015848
0.00158486
0.00158486
0.00158485
0.00158482
0.00158479
0.00158476
0.00158473
0.00158469
0.00158465
0.0015846
0.00158456
0.00158451
0.00158447
0.00158438
0.0016504
0.00165075
0.00165082
0.00165082
0.0016508
0.00165078
0.00165075
0.00165071
0.00165067
0.00165062
0.00165057
0.00165052
0.00165047
0.00165042
0.00165036
0.0016503
0.00165024
0.00165018
0.00165012
0.00165005
0.00164999
0.00164992
0.00164985
0.00164978
0.00164971
0.00164964
0.00164957
0.0016495
0.00164942
0.00164935
0.00164928
0.00164921
0.00164913
0.00164906
0.00164899
0.00164892
0.00164885
0.00164878
0.0016487
0.00164863
0.00164856
0.00164849
0.00164842
0.00164836
0.00164826
0.00164883
0.00164917
0.00164924
0.00164924
0.00164922
0.0016492
0.00164917
0.00164913
0.00164909
0.00164905
0.00164901
0.00164896
0.00164892
0.00164887
0.00164882
0.00164873
0.00171675
0.00171712
0.0017172
0.0017172
0.00171718
0.00171715
0.00171711
0.00171707
0.00171703
0.00171698
0.00171693
0.00171687
0.00171682
0.00171676
0.0017167
0.00171664
0.00171657
0.00171651
0.00171644
0.00171637
0.0017163
0.00171623
0.00171615
0.00171608
0.001716
0.00171593
0.00171585
0.00171577
0.0017157
0.00171562
0.00171554
0.00171547