/*--------------------------------*- C++ -*----------------------------------*\
  =========                 |
  \\      /  F ield         | OpenFOAM: The Open Source CFD Toolbox
   \\    /   O peration     | Website:  https://openfoam.org
    \\  /    A nd           | Version:  7
     \\/     M anipulation  |
\*---------------------------------------------------------------------------*/
FoamFile
{
    version     2.0;
    format      ascii;
    class       volScalarField;
    location    "16000";
    object      omega;
}
// * * * * * * * * * * * * * * * * * * * * * * * * * * * * * * * * * * * * * //

dimensions      [0 0 -1 0 0 0 0];

internalField   nonuniform List<scalar> 
4026
(
0.606056
0.606066
0.606064
0.60606
0.606055
0.60605
0.606045
0.60604
0.606036
0.606032
0.606028
0.606025
0.606022
0.606019
0.606016
0.606013
0.606011
0.606008
0.606006
0.606004
0.606002
0.606001
0.605999
0.605998
0.605997
0.605997
0.605996
0.605995
0.605995
0.605995
0.605994
0.605994
0.605994
0.605994
0.605994
0.605994
0.605994
0.605994
0.605995
0.605995
0.605995
0.605996
0.605996
0.605997
0.605993
0.606073
0.60607
0.606064
0.606057
0.606051
0.606046
0.606041
0.606036
0.606032
0.606029
0.606026
0.606023
0.60602
0.606018
0.606018
0.606007
0.574605
0.574615
0.574614
0.57461
0.574606
0.574601
0.574596
0.574591
0.574587
0.574584
0.57458
0.574578
0.574575
0.574572
0.57457
0.574567
0.574565
0.574562
0.57456
0.574559
0.574557
0.574556
0.574555
0.574554
0.574553
0.574552
0.574552
0.574551
0.574551
0.574551
0.57455
0.57455
0.57455
0.57455
0.57455
0.574551
0.574551
0.574551
0.574551
0.574552
0.574552
0.574553
0.574553
0.574554
0.57455
0.574632
0.574631
0.574624
0.574617
0.57461
0.574605
0.574599
0.574595
0.57459
0.574587
0.574584
0.574581
0.574579
0.574576
0.574576
0.574567
0.54508
0.545087
0.545087
0.545084
0.545079
0.545075
0.545071
0.545066
0.545063
0.545059
0.545056
0.545054
0.545051
0.545049
0.545047
0.545044
0.545042
0.54504
0.545038
0.545037
0.545035
0.545034
0.545033
0.545033
0.545032
0.545031
0.545031
0.545031
0.54503
0.54503
0.54503
0.54503
0.54503
0.545031
0.545031
0.545031
0.545032
0.545032
0.545032
0.545033
0.545033
0.545034
0.545034
0.545036
0.545032
0.54511
0.545111
0.545105
0.545098
0.545092
0.545086
0.545081
0.545076
0.545072
0.545068
0.545065
0.545063
0.54506
0.545058
0.545057
0.54505
0.517303
0.517309
0.517308
0.517305
0.517301
0.517297
0.517293
0.51729
0.517286
0.517283
0.51728
0.517278
0.517276
0.517274
0.517272
0.51727
0.517268
0.517266
0.517265
0.517263
0.517262
0.517261
0.517261
0.51726
0.517259
0.517259
0.517259
0.517259
0.517259
0.517259
0.517259
0.517259
0.517259
0.517259
0.51726
0.51726
0.517261
0.517261
0.517262
0.517262
0.517263
0.517263
0.517264
0.517265
0.517262
0.517334
0.517337
0.517332
0.517326
0.51732
0.517315
0.517309
0.517305
0.517301
0.517298
0.517295
0.517292
0.51729
0.517288
0.517287
0.517281
0.491121
0.491125
0.491124
0.491121
0.491118
0.491114
0.49111
0.491107
0.491104
0.491101
0.491099
0.491096
0.491095
0.491093
0.491091
0.49109
0.491088
0.491087
0.491085
0.491084
0.491083
0.491083
0.491082
0.491082
0.491081
0.491081
0.491081
0.491081
0.491081
0.491081
0.491081
0.491082
0.491082
0.491082
0.491083
0.491083
0.491084
0.491085
0.491085
0.491086
0.491087
0.491087
0.491088
0.491089
0.491088
0.491152
0.491155
0.491152
0.491147
0.491141
0.491136
0.491132
0.491127
0.491124
0.491121
0.491118
0.491116
0.491114
0.491112
0.491111
0.491107
0.466398
0.4664
0.466398
0.466396
0.466393
0.466389
0.466386
0.466383
0.46638
0.466378
0.466376
0.466374
0.466372
0.466371
0.46637
0.466368
0.466367
0.466366
0.466365
0.466364
0.466363
0.466363
0.466362
0.466362
0.466362
0.466362
0.466362
0.466362
0.466362
0.466363
0.466363
0.466364
0.466364
0.466365
0.466365
0.466366
0.466367
0.466367
0.466368
0.466369
0.46637
0.466371
0.466371
0.466373
0.466372
0.466429
0.466431
0.466429
0.466425
0.466421
0.466416
0.466412
0.466408
0.466405
0.466402
0.4664
0.466398
0.466396
0.466394
0.466393
0.466391
0.443014
0.443015
0.443013
0.44301
0.443007
0.443005
0.443002
0.442999
0.442996
0.442994
0.442992
0.442991
0.44299
0.442989
0.442988
0.442987
0.442986
0.442985
0.442984
0.442983
0.442983
0.442982
0.442982
0.442982
0.442982
0.442983
0.442983
0.442983
0.442983
0.442984
0.442985
0.442985
0.442986
0.442986
0.442987
0.442988
0.442989
0.44299
0.442991
0.442992
0.442992
0.442993
0.442995
0.442996
0.442996
0.443046
0.443047
0.443046
0.443043
0.443039
0.443035
0.443032
0.443028
0.443025
0.443023
0.443021
0.443019
0.443017
0.443016
0.443015
0.443014
0.420865
0.420864
0.420862
0.42086
0.420857
0.420854
0.420852
0.420849
0.420847
0.420845
0.420844
0.420842
0.420841
0.420841
0.42084
0.420839
0.420839
0.420838
0.420838
0.420837
0.420837
0.420837
0.420837
0.420837
0.420837
0.420838
0.420838
0.420839
0.420839
0.42084
0.420841
0.420841
0.420842
0.420843
0.420844
0.420845
0.420846
0.420847
0.420848
0.420849
0.42085
0.420851
0.420852
0.420853
0.420855
0.420898
0.420898
0.420897
0.420894
0.420891
0.420888
0.420885
0.420882
0.42088
0.420878
0.420876
0.420875
0.420873
0.420873
0.420872
0.420872
0.399858
0.399855
0.399853
0.399851
0.399848
0.399846
0.399844
0.399841
0.39984
0.399838
0.399837
0.399836
0.399835
0.399835
0.399834
0.399834
0.399834
0.399833
0.399833
0.399833
0.399833
0.399833
0.399833
0.399834
0.399834
0.399835
0.399835
0.399836
0.399837
0.399838
0.399839
0.39984
0.39984
0.399841
0.399842
0.399844
0.399845
0.399846
0.399847
0.399848
0.399849
0.399851
0.399852
0.399853
0.399856
0.399892
0.399891
0.399889
0.399888
0.399886
0.399883
0.399881
0.399878
0.399876
0.399874
0.399873
0.399872
0.399871
0.399871
0.39987
0.399871
0.37991
0.379906
0.379903
0.379901
0.379899
0.379897
0.379895
0.379893
0.379892
0.37989
0.379889
0.379889
0.379888
0.379888
0.379888
0.379888
0.379888
0.379888
0.379888
0.379888
0.379888
0.379889
0.379889
0.37989
0.37989
0.379891
0.379892
0.379893
0.379894
0.379895
0.379896
0.379897
0.379898
0.379899
0.379901
0.379902
0.379903
0.379904
0.379906
0.379907
0.379908
0.37991
0.379911
0.379912
0.379916
0.379946
0.379943
0.379942
0.379941
0.379939
0.379937
0.379935
0.379933
0.379932
0.37993
0.379929
0.379928
0.379928
0.379928
0.379927
0.37993
0.360948
0.360943
0.360941
0.360939
0.360937
0.360935
0.360933
0.360932
0.36093
0.360929
0.360929
0.360928
0.360928
0.360928
0.360929
0.360929
0.360929
0.360929
0.360929
0.36093
0.36093
0.360931
0.360931
0.360932
0.360933
0.360934
0.360935
0.360936
0.360938
0.360939
0.36094
0.360941
0.360943
0.360944
0.360945
0.360947
0.360948
0.36095
0.360951
0.360952
0.360954
0.360955
0.360957
0.360958
0.360963
0.360987
0.360983
0.360982
0.360981
0.360979
0.360978
0.360976
0.360975
0.360974
0.360973
0.360972
0.360971
0.360971
0.360971
0.360971
0.360975
0.342909
0.342902
0.3429
0.342898
0.342896
0.342895
0.342893
0.342892
0.342891
0.34289
0.34289
0.34289
0.34289
0.34289
0.342891
0.342891
0.342892
0.342892
0.342893
0.342893
0.342894
0.342895
0.342896
0.342897
0.342898
0.342899
0.3429
0.342902
0.342903
0.342904
0.342906
0.342907
0.342909
0.34291
0.342912
0.342913
0.342915
0.342916
0.342918
0.34292
0.342921
0.342923
0.342925
0.342925
0.342932
0.34295
0.342945
0.342943
0.342942
0.342942
0.34294
0.342939
0.342938
0.342937
0.342937
0.342936
0.342936
0.342936
0.342937
0.342936
0.342941
0.325734
0.325726
0.325723
0.325721
0.32572
0.325719
0.325718
0.325717
0.325716
0.325715
0.325715
0.325716
0.325716
0.325717
0.325717
0.325718
0.325719
0.325719
0.32572
0.325721
0.325722
0.325723
0.325724
0.325725
0.325727
0.325728
0.32573
0.325731
0.325733
0.325734
0.325736
0.325737
0.325739
0.325741
0.325742
0.325744
0.325746
0.325748
0.325749
0.325751
0.325753
0.325754
0.325756
0.325757
0.325765
0.325778
0.325771
0.325769
0.325769
0.325768
0.325767
0.325767
0.325766
0.325765
0.325765
0.325765
0.325765
0.325765
0.325766
0.325766
0.325772
0.309371
0.309362
0.309359
0.309358
0.309356
0.309355
0.309354
0.309354
0.309353
0.309353
0.309353
0.309354
0.309354
0.309355
0.309356
0.309357
0.309358
0.309359
0.30936
0.309361
0.309362
0.309363
0.309365
0.309366
0.309368
0.30937
0.309371
0.309373
0.309375
0.309376
0.309378
0.30938
0.309382
0.309384
0.309385
0.309387
0.309389
0.309391
0.309393
0.309395
0.309397
0.309399
0.309401
0.309401
0.30941
0.309418
0.30941
0.309408
0.309408
0.309407
0.309407
0.309406
0.309406
0.309406
0.309406
0.309406
0.309406
0.309407
0.309408
0.309408
0.309415
0.293775
0.293765
0.293762
0.29376
0.293759
0.293759
0.293758
0.293758
0.293757
0.293757
0.293758
0.293759
0.293759
0.29376
0.293762
0.293763
0.293764
0.293765
0.293766
0.293768
0.293769
0.293771
0.293772
0.293774
0.293776
0.293777
0.293779
0.293781
0.293783
0.293785
0.293787
0.293789
0.293791
0.293793
0.293795
0.293797
0.293799
0.293801
0.293803
0.293805
0.293807
0.293809
0.293811
0.293812
0.293821
0.293825
0.293816
0.293814
0.293813
0.293813
0.293813
0.293813
0.293813
0.293813
0.293813
0.293813
0.293814
0.293815
0.293816
0.293816
0.293824
0.278904
0.278893
0.27889
0.278889
0.278888
0.278887
0.278887
0.278887
0.278887
0.278887
0.278888
0.278889
0.27889
0.278891
0.278892
0.278894
0.278895
0.278896
0.278898
0.278899
0.278901
0.278903
0.278904
0.278906
0.278908
0.27891
0.278912
0.278914
0.278917
0.278919
0.278921
0.278923
0.278925
0.278927
0.278929
0.278932
0.278934
0.278936
0.278938
0.27894
0.278942
0.278944
0.278947
0.278948
0.278957
0.278957
0.278947
0.278945
0.278944
0.278944
0.278944
0.278944
0.278944
0.278945
0.278945
0.278946
0.278947
0.278948
0.278949
0.278949
0.278958
0.264721
0.264709
0.264706
0.264705
0.264704
0.264704
0.264704
0.264704
0.264704
0.264704
0.264705
0.264706
0.264708
0.264709
0.264711
0.264712
0.264714
0.264715
0.264717
0.264719
0.264721
0.264723
0.264725
0.264727
0.264729
0.264731
0.264733
0.264736
0.264738
0.26474
0.264742
0.264745
0.264747
0.264749
0.264752
0.264754
0.264756
0.264759
0.264761
0.264763
0.264765
0.264768
0.26477
0.264771
0.264781
0.264777
0.264766
0.264764
0.264763
0.264763
0.264764
0.264764
0.264764
0.264765
0.264765
0.264766
0.264767
0.264769
0.26477
0.26477
0.26478
0.251193
0.25118
0.251176
0.251175
0.251175
0.251175
0.251175
0.251175
0.251176
0.251176
0.251177
0.251179
0.25118
0.251182
0.251184
0.251185
0.251187
0.251189
0.251191
0.251193
0.251195
0.251197
0.251199
0.251201
0.251204
0.251206
0.251208
0.251211
0.251213
0.251216
0.251218
0.251221
0.251223
0.251226
0.251228
0.25123
0.251233
0.251235
0.251238
0.25124
0.251243
0.251245
0.251248
0.251248
0.251259
0.251252
0.25124
0.251237
0.251237
0.251237
0.251237
0.251238
0.251238
0.251239
0.25124
0.251241
0.251242
0.251244
0.251246
0.251246
0.251256
0.238289
0.238275
0.238271
0.23827
0.23827
0.23827
0.23827
0.238271
0.238271
0.238272
0.238274
0.238275
0.238277
0.238278
0.23828
0.238282
0.238284
0.238286
0.238288
0.23829
0.238293
0.238295
0.238297
0.2383
0.238302
0.238305
0.238307
0.23831
0.238312
0.238315
0.238318
0.23832
0.238323
0.238326
0.238328
0.238331
0.238333
0.238336
0.238338
0.238341
0.238343
0.238346
0.238349
0.23835
0.238361
0.23835
0.238337
0.238334
0.238334
0.238334
0.238335
0.238335
0.238336
0.238337
0.238338
0.238339
0.238341
0.238342
0.238344
0.238345
0.238355
0.22598
0.225966
0.225962
0.225961
0.225961
0.225961
0.225962
0.225962
0.225963
0.225964
0.225966
0.225967
0.225969
0.225971
0.225973
0.225975
0.225977
0.22598
0.225982
0.225984
0.225987
0.225989
0.225991
0.225994
0.225997
0.225999
0.226002
0.226005
0.226008
0.22601
0.226013
0.226016
0.226019
0.226021
0.226024
0.226027
0.226029
0.226032
0.226035
0.226037
0.22604
0.226043
0.226046
0.226047
0.226058
0.226045
0.226031
0.226028
0.226028
0.226028
0.226029
0.226029
0.22603
0.226031
0.226032
0.226034
0.226035
0.226037
0.226039
0.22604
0.226051
0.214243
0.214228
0.214224
0.214223
0.214223
0.214223
0.214224
0.214225
0.214226
0.214227
0.214229
0.214231
0.214233
0.214235
0.214237
0.214239
0.214241
0.214244
0.214246
0.214249
0.214251
0.214254
0.214256
0.214259
0.214262
0.214265
0.214268
0.214271
0.214273
0.214276
0.214279
0.214282
0.214285
0.214288
0.214291
0.214293
0.214296
0.214299
0.214302
0.214305
0.214307
0.21431
0.214313
0.214314
0.214326
0.21431
0.214295
0.214292
0.214292
0.214292
0.214293
0.214294
0.214295
0.214296
0.214297
0.214299
0.214301
0.214302
0.214305
0.214305
0.214317
0.203053
0.203037
0.203033
0.203033
0.203033
0.203033
0.203034
0.203035
0.203036
0.203038
0.203039
0.203041
0.203043
0.203046
0.203048
0.20305
0.203053
0.203055
0.203058
0.20306
0.203063
0.203066
0.203069
0.203071
0.203074
0.203077
0.20308
0.203083
0.203086
0.203089
0.203092
0.203095
0.203098
0.203101
0.203104
0.203107
0.20311
0.203113
0.203116
0.203119
0.203122
0.203125
0.203128
0.203129
0.203141
0.203122
0.203107
0.203104
0.203104
0.203104
0.203105
0.203106
0.203107
0.203108
0.20311
0.203111
0.203113
0.203115
0.203117
0.203118
0.20313
0.192389
0.192372
0.192369
0.192368
0.192368
0.192369
0.19237
0.192371
0.192372
0.192374
0.192376
0.192378
0.19238
0.192382
0.192385
0.192387
0.19239
0.192392
0.192395
0.192398
0.192401
0.192404
0.192406
0.192409
0.192412
0.192416
0.192419
0.192422
0.192425
0.192428
0.192431
0.192434
0.192437
0.192441
0.192444
0.192447
0.19245
0.192453
0.192456
0.192459
0.192462
0.192464
0.192468
0.192469
0.192481
0.19246
0.192444
0.192441
0.192441
0.192441
0.192442
0.192443
0.192444
0.192446
0.192447
0.192449
0.192451
0.192453
0.192456
0.192456
0.192468
0.182231
0.182214
0.18221
0.182209
0.18221
0.18221
0.182211
0.182213
0.182214
0.182216
0.182218
0.18222
0.182222
0.182225
0.182227
0.18223
0.182232
0.182235
0.182238
0.182241
0.182244
0.182247
0.18225
0.182253
0.182256
0.182259
0.182263
0.182266
0.182269
0.182272
0.182275
0.182279
0.182282
0.182285
0.182288
0.182291
0.182294
0.182298
0.182301
0.182304
0.182307
0.18231
0.182313
0.182314
0.182327
0.182303
0.182287
0.182284
0.182284
0.182284
0.182285
0.182286
0.182288
0.182289
0.182291
0.182293
0.182295
0.182297
0.182299
0.1823
0.182312
0.172559
0.172542
0.172538
0.172537
0.172538
0.172539
0.17254
0.172541
0.172543
0.172545
0.172547
0.172549
0.172551
0.172554
0.172556
0.172559
0.172562
0.172565
0.172568
0.172571
0.172574
0.172577
0.17258
0.172583
0.172586
0.17259
0.172593
0.172596
0.1726
0.172603
0.172606
0.17261
0.172613
0.172616
0.172619
0.172623
0.172626
0.172629
0.172632
0.172635
0.172638
0.172641
0.172645
0.172646
0.172658
0.172633
0.172617
0.172613
0.172613
0.172614
0.172615
0.172616
0.172617
0.172619
0.172621
0.172623
0.172625
0.172627
0.17263
0.17263
0.172642
0.163357
0.163339
0.163335
0.163335
0.163335
0.163336
0.163337
0.163339
0.16334
0.163342
0.163345
0.163347
0.163349
0.163352
0.163355
0.163357
0.16336
0.163363
0.163366
0.163369
0.163372
0.163376
0.163379
0.163382
0.163385
0.163389
0.163392
0.163396
0.163399
0.163402
0.163406
0.163409
0.163413
0.163416
0.163419
0.163422
0.163426
0.163429
0.163432
0.163435
0.163439
0.163442
0.163445
0.163447
0.163459
0.163432
0.163415
0.163412
0.163412
0.163412
0.163413
0.163415
0.163416
0.163418
0.16342
0.163422
0.163424
0.163426
0.163429
0.163429
0.163441
0.154606
0.154588
0.154584
0.154584
0.154585
0.154586
0.154587
0.154588
0.15459
0.154592
0.154594
0.154597
0.154599
0.154602
0.154605
0.154608
0.15461
0.154614
0.154617
0.15462
0.154623
0.154626
0.15463
0.154633
0.154636
0.15464
0.154643
0.154647
0.15465
0.154654
0.154657
0.15466
0.154664
0.154667
0.154671
0.154674
0.154677
0.154681
0.154684
0.154687
0.15469
0.154694
0.154697
0.154699
0.15471
0.154683
0.154665
0.154662
0.154662
0.154663
0.154664
0.154665
0.154666
0.154668
0.15467
0.154672
0.154674
0.154677
0.154679
0.15468
0.154692
0.146291
0.146273
0.14627
0.146269
0.14627
0.146271
0.146272
0.146274
0.146276
0.146278
0.14628
0.146283
0.146285
0.146288
0.146291
0.146293
0.146296
0.1463
0.146303
0.146306
0.146309
0.146312
0.146316
0.146319
0.146323
0.146326
0.14633
0.146333
0.146337
0.14634
0.146344
0.146347
0.146351
0.146354
0.146358
0.146361
0.146364
0.146368
0.146371
0.146374
0.146378
0.146381
0.146384
0.146386
0.146398
0.146369
0.146351
0.146348
0.146348
0.146348
0.146349
0.146351
0.146352
0.146354
0.146356
0.146358
0.146361
0.146363
0.146366
0.146367
0.146378
0.138397
0.138379
0.138375
0.138375
0.138375
0.138376
0.138378
0.13838
0.138381
0.138384
0.138386
0.138388
0.138391
0.138394
0.138397
0.1384
0.138403
0.138406
0.138409
0.138412
0.138415
0.138419
0.138422
0.138426
0.138429
0.138433
0.138436
0.13844
0.138443
0.138447
0.13845
0.138454
0.138458
0.138461
0.138464
0.138468
0.138471
0.138475
0.138478
0.138481
0.138485
0.138488
0.138491
0.138493
0.138504
0.138475
0.138457
0.138454
0.138453
0.138454
0.138455
0.138457
0.138458
0.13846
0.138462
0.138464
0.138467
0.138469
0.138472
0.138473
0.138483
0.130907
0.130889
0.130885
0.130885
0.130886
0.130887
0.130888
0.13089
0.130892
0.130894
0.130897
0.130899
0.130902
0.130905
0.130908
0.130911
0.130914
0.130917
0.13092
0.130923
0.130927
0.13093
0.130933
0.130937
0.130941
0.130944
0.130948
0.130951
0.130955
0.130958
0.130962
0.130966
0.130969
0.130973
0.130976
0.130979
0.130983
0.130986
0.13099
0.130993
0.130996
0.131
0.131003
0.131005
0.131016
0.130986
0.130968
0.130964
0.130964
0.130965
0.130966
0.130967
0.130969
0.130971
0.130973
0.130975
0.130977
0.13098
0.130982
0.130984
0.130994
0.123808
0.12379
0.123786
0.123786
0.123787
0.123788
0.12379
0.123791
0.123793
0.123796
0.123798
0.123801
0.123803
0.123806
0.123809
0.123812
0.123815
0.123818
0.123821
0.123825
0.123828
0.123831
0.123835
0.123838
0.123842
0.123846
0.123849
0.123853
0.123856
0.12386
0.123863
0.123867
0.123871
0.123874
0.123878
0.123881
0.123884
0.123888
0.123891
0.123895
0.123898
0.123901
0.123905
0.123907
0.123917
0.123886
0.123869
0.123865
0.123865
0.123866
0.123867
0.123868
0.12387
0.123872
0.123874
0.123876
0.123878
0.123881
0.123883
0.123885
0.123894
0.117085
0.117067
0.117063
0.117063
0.117064
0.117065
0.117067
0.117068
0.11707
0.117073
0.117075
0.117078
0.11708
0.117083
0.117086
0.117089
0.117092
0.117095
0.117099
0.117102
0.117105
0.117109
0.117112
0.117116
0.117119
0.117123
0.117126
0.11713
0.117134
0.117137
0.117141
0.117144
0.117148
0.117151
0.117155
0.117158
0.117162
0.117165
0.117169
0.117172
0.117175
0.117178
0.117182
0.117184
0.117194
0.117163
0.117145
0.117142
0.117142
0.117142
0.117144
0.117145
0.117147
0.117148
0.117151
0.117153
0.117155
0.117157
0.11716
0.117161
0.117171
0.110724
0.110706
0.110702
0.110702
0.110703
0.110704
0.110706
0.110707
0.110709
0.110712
0.110714
0.110717
0.11072
0.110722
0.110725
0.110728
0.110731
0.110734
0.110738
0.110741
0.110744
0.110748
0.110751
0.110755
0.110758
0.110762
0.110765
0.110769
0.110772
0.110776
0.11078
0.110783
0.110787
0.11079
0.110794
0.110797
0.1108
0.110804
0.110807
0.110811
0.110814
0.110817
0.110821
0.110823
0.110832
0.110801
0.110783
0.11078
0.11078
0.110781
0.110782
0.110783
0.110785
0.110787
0.110789
0.110791
0.110793
0.110796
0.110798
0.1108
0.110808
0.10471
0.104693
0.104689
0.104689
0.10469
0.104691
0.104693
0.104695
0.104697
0.104699
0.104701
0.104704
0.104707
0.104709
0.104712
0.104715
0.104718
0.104721
0.104725
0.104728
0.104731
0.104735
0.104738
0.104742
0.104745
0.104749
0.104752
0.104756
0.104759
0.104763
0.104766
0.10477
0.104773
0.104777
0.10478
0.104784
0.104787
0.104791
0.104794
0.104797
0.104801
0.104804
0.104807
0.104809
0.104818
0.104787
0.10477
0.104766
0.104766
0.104767
0.104768
0.10477
0.104771
0.104773
0.104775
0.104777
0.10478
0.104782
0.104784
0.104786
0.104794
0.0990314
0.099014
0.0990105
0.0990104
0.0990113
0.0990126
0.0990143
0.0990161
0.0990182
0.0990205
0.0990229
0.0990255
0.0990282
0.099031
0.0990339
0.0990368
0.0990398
0.0990429
0.0990461
0.0990493
0.0990525
0.0990559
0.0990593
0.0990628
0.0990663
0.0990698
0.0990733
0.0990769
0.0990804
0.0990839
0.0990874
0.0990909
0.0990944
0.0990978
0.0991012
0.0991046
0.099108
0.0991113
0.0991147
0.099118
0.0991212
0.0991244
0.0991277
0.0991302
0.0991382
0.0991074
0.0990902
0.0990868
0.0990867
0.0990876
0.0990888
0.0990902
0.0990919
0.0990937
0.0990957
0.0990978
0.0991
0.0991023
0.0991048
0.0991065
0.099114
0.0936737
0.0936566
0.0936532
0.0936531
0.093654
0.0936554
0.093657
0.0936589
0.093661
0.0936633
0.0936657
0.0936683
0.0936709
0.0936737
0.0936765
0.0936794
0.0936824
0.0936855
0.0936886
0.0936917
0.093695
0.0936983
0.0937017
0.0937051
0.0937086
0.093712
0.0937155
0.093719
0.0937225
0.0937259
0.0937294
0.0937328
0.0937362
0.0937396
0.093743
0.0937464
0.0937497
0.093753
0.0937563
0.0937596
0.0937628
0.093766
0.0937692
0.0937717
0.0937791
0.0937486
0.0937318
0.0937284
0.0937283
0.0937292
0.0937304
0.0937318
0.0937335
0.0937353
0.0937372
0.0937393
0.0937415
0.0937438
0.0937462
0.093748
0.0937548
0.0886239
0.0886072
0.0886039
0.0886039
0.0886048
0.0886062
0.0886078
0.0886097
0.0886118
0.088614
0.0886164
0.088619
0.0886216
0.0886243
0.0886271
0.08863
0.0886329
0.0886359
0.088639
0.0886421
0.0886453
0.0886486
0.0886519
0.0886553
0.0886587
0.0886621
0.0886655
0.088669
0.0886724
0.0886758
0.0886792
0.0886826
0.0886859
0.0886893
0.0886926
0.0886959
0.0886992
0.0887025
0.0887057
0.0887089
0.0887121
0.0887152
0.0887184
0.088721
0.0887277
0.0886977
0.0886812
0.0886779
0.0886778
0.0886786
0.0886798
0.0886813
0.0886829
0.0886847
0.0886866
0.0886886
0.0886908
0.088693
0.0886954
0.0886972
0.0887034
0.0838692
0.0838529
0.0838497
0.0838497
0.0838506
0.083852
0.0838537
0.0838555
0.0838576
0.0838599
0.0838622
0.0838647
0.0838673
0.08387
0.0838728
0.0838756
0.0838785
0.0838814
0.0838844
0.0838875
0.0838907
0.0838939
0.0838971
0.0839005
0.0839038
0.0839071
0.0839105
0.0839138
0.0839172
0.0839206
0.0839239
0.0839272
0.0839305
0.0839338
0.0839371
0.0839403
0.0839435
0.0839468
0.0839499
0.0839531
0.0839562
0.0839593
0.0839624
0.083965
0.0839711
0.0839416
0.0839255
0.0839223
0.0839222
0.083923
0.0839242
0.0839256
0.0839272
0.083929
0.0839309
0.0839329
0.083935
0.0839372
0.0839395
0.0839414
0.0839469
0.0793969
0.079381
0.0793779
0.0793779
0.0793789
0.0793803
0.0793819
0.0793838
0.0793858
0.0793881
0.0793904
0.0793929
0.0793954
0.0793981
0.0794008
0.0794035
0.0794063
0.0794092
0.0794122
0.0794152
0.0794183
0.0794215
0.0794247
0.0794279
0.0794311
0.0794344
0.0794377
0.079441
0.0794443
0.0794476
0.0794508
0.0794541
0.0794573
0.0794605
0.0794637
0.0794669
0.0794701
0.0794732
0.0794763
0.0794794
0.0794825
0.0794855
0.0794885
0.0794912
0.0794966
0.0794678
0.079452
0.0794489
0.0794489
0.0794497
0.0794509
0.0794523
0.0794538
0.0794556
0.0794574
0.0794594
0.0794614
0.0794636
0.0794658
0.0794677
0.0794726
0.0751944
0.075179
0.075176
0.0751761
0.0751771
0.0751784
0.0751801
0.0751819
0.075184
0.0751862
0.0751885
0.0751909
0.0751934
0.075196
0.0751986
0.0752014
0.0752041
0.075207
0.0752098
0.0752128
0.0752158
0.0752189
0.075222
0.0752252
0.0752284
0.0752316
0.0752348
0.075238
0.0752412
0.0752444
0.0752476
0.0752507
0.0752539
0.0752571
0.0752602
0.0752633
0.0752664
0.0752694
0.0752725
0.0752755
0.0752785
0.0752814
0.0752844
0.0752871
0.0752919
0.0752637
0.0752484
0.0752454
0.0752454
0.0752462
0.0752474
0.0752487
0.0752503
0.075252
0.0752538
0.0752557
0.0752577
0.0752598
0.0752619
0.0752639
0.0752681
0.0712497
0.0712347
0.0712319
0.071232
0.071233
0.0712344
0.071236
0.0712379
0.0712399
0.0712421
0.0712443
0.0712467
0.0712492
0.0712517
0.0712543
0.0712569
0.0712596
0.0712624
0.0712652
0.0712681
0.071271
0.071274
0.0712771
0.0712802
0.0712833
0.0712864
0.0712895
0.0712926
0.0712957
0.0712989
0.071302
0.0713051
0.0713081
0.0713112
0.0713142
0.0713173
0.0713203
0.0713233
0.0713262
0.0713292
0.0713321
0.0713349
0.0713378
0.0713405
0.0713447
0.0713173
0.0713024
0.0712995
0.0712995
0.0713004
0.0713015
0.0713029
0.0713044
0.071306
0.0713078
0.0713097
0.0713116
0.0713136
0.0713157
0.0713177
0.0713213
0.0675508
0.0675364
0.0675336
0.0675338
0.0675348
0.0675362
0.0675379
0.0675397
0.0675417
0.0675438
0.0675461
0.0675484
0.0675508
0.0675533
0.0675558
0.0675584
0.067561
0.0675637
0.0675664
0.0675692
0.0675721
0.067575
0.067578
0.067581
0.067584
0.067587
0.06759
0.0675931
0.0675961
0.0675991
0.0676022
0.0676052
0.0676082
0.0676111
0.0676141
0.067617
0.06762
0.0676229
0.0676257
0.0676286
0.0676314
0.0676342
0.067637
0.0676397
0.0676432
0.0676166
0.0676022
0.0675995
0.0675995
0.0676003
0.0676015
0.0676028
0.0676043
0.0676059
0.0676076
0.0676095
0.0676113
0.0676133
0.0676153
0.0676173
0.0676203
0.0640862
0.0640723
0.0640698
0.06407
0.064071
0.0640724
0.064074
0.0640759
0.0640778
0.0640799
0.0640821
0.0640844
0.0640867
0.0640891
0.0640916
0.0640941
0.0640967
0.0640993
0.0641019
0.0641047
0.0641075
0.0641103
0.0641132
0.0641161
0.064119
0.0641219
0.0641249
0.0641278
0.0641308
0.0641337
0.0641366
0.0641395
0.0641424
0.0641453
0.0641482
0.064151
0.0641539
0.0641567
0.0641595
0.0641622
0.064165
0.0641677
0.0641704
0.0641731
0.064176
0.0641502
0.0641363
0.0641337
0.0641337
0.0641346
0.0641357
0.064137
0.0641385
0.0641401
0.0641417
0.0641435
0.0641454
0.0641473
0.0641492
0.0641512
0.0641535
0.0608448
0.0608314
0.060829
0.0608292
0.0608303
0.0608317
0.0608333
0.0608351
0.0608371
0.0608391
0.0608413
0.0608435
0.0608458
0.0608481
0.0608505
0.060853
0.0608555
0.060858
0.0608606
0.0608632
0.0608659
0.0608687
0.0608715
0.0608743
0.0608771
0.0608799
0.0608828
0.0608856
0.0608885
0.0608913
0.0608942
0.060897
0.0608998
0.0609026
0.0609053
0.0609081
0.0609108
0.0609136
0.0609163
0.0609189
0.0609216
0.0609242
0.0609268
0.0609295
0.0609318
0.0609069
0.0608935
0.060891
0.0608911
0.0608919
0.060893
0.0608943
0.0608958
0.0608973
0.0608989
0.0609007
0.0609024
0.0609043
0.0609062
0.0609082
0.0609099
0.0578156
0.0578027
0.0578005
0.0578008
0.0578019
0.0578033
0.0578049
0.0578067
0.0578086
0.0578106
0.0578127
0.0578149
0.0578171
0.0578194
0.0578218
0.0578241
0.0578265
0.057829
0.0578315
0.0578341
0.0578367
0.0578393
0.057842
0.0578447
0.0578475
0.0578502
0.057853
0.0578557
0.0578585
0.0578612
0.057864
0.0578667
0.0578694
0.0578721
0.0578747
0.0578774
0.0578801
0.0578827
0.0578853
0.0578879
0.0578904
0.057893
0.0578955
0.0578981
0.0578998
0.0578758
0.0578629
0.0578605
0.0578606
0.0578615
0.0578626
0.0578639
0.0578653
0.0578668
0.0578684
0.0578701
0.0578718
0.0578736
0.0578754
0.0578774
0.0578786
0.0549884
0.054976
0.0549739
0.0549743
0.0549754
0.0549768
0.0549784
0.0549802
0.054982
0.054984
0.0549861
0.0549882
0.0549904
0.0549926
0.0549949
0.0549972
0.0549995
0.0550019
0.0550043
0.0550068
0.0550093
0.0550119
0.0550145
0.0550171
0.0550197
0.0550224
0.0550251
0.0550277
0.0550304
0.055033
0.0550356
0.0550383
0.0550409
0.0550434
0.055046
0.0550486
0.0550511
0.0550537
0.0550562
0.0550587
0.0550611
0.0550636
0.055066
0.0550686
0.0550698
0.0550466
0.0550341
0.0550319
0.0550321
0.0550329
0.0550341
0.0550353
0.0550367
0.0550382
0.0550397
0.0550414
0.055043
0.0550448
0.0550465
0.0550485
0.0550491
0.0523529
0.0523411
0.0523391
0.0523396
0.0523407
0.0523421
0.0523437
0.0523455
0.0523474
0.0523493
0.0523513
0.0523534
0.0523555
0.0523577
0.0523599
0.0523621
0.0523644
0.0523667
0.052369
0.0523714
0.0523738
0.0523763
0.0523788
0.0523813
0.0523839
0.0523865
0.052389
0.0523916
0.0523941
0.0523967
0.0523992
0.0524017
0.0524042
0.0524067
0.0524092
0.0524116
0.0524141
0.0524165
0.0524189
0.0524213
0.0524237
0.0524261
0.0524284
0.0524309
0.0524316
0.0524093
0.0523973
0.0523952
0.0523954
0.0523963
0.0523974
0.0523986
0.0524
0.0524014
0.0524029
0.0524045
0.0524061
0.0524078
0.0524095
0.0524114
0.0524116
0.0498999
0.0498885
0.0498867
0.0498872
0.0498884
0.0498898
0.0498914
0.0498932
0.049895
0.0498969
0.0498989
0.0499009
0.049903
0.0499051
0.0499072
0.0499094
0.0499116
0.0499138
0.0499161
0.0499184
0.0499207
0.0499231
0.0499255
0.049928
0.0499304
0.0499329
0.0499353
0.0499378
0.0499402
0.0499427
0.0499451
0.0499475
0.0499499
0.0499523
0.0499547
0.0499571
0.0499594
0.0499618
0.0499641
0.0499664
0.0499687
0.0499709
0.0499731
0.0499756
0.0499758
0.0499543
0.0499428
0.0499408
0.0499411
0.0499419
0.0499431
0.0499443
0.0499456
0.049947
0.0499485
0.04995
0.0499516
0.0499532
0.0499549
0.0499568
0.0499564
0.0476201
0.0476092
0.0476076
0.0476081
0.0476093
0.0476108
0.0476124
0.0476141
0.0476159
0.0476178
0.0476198
0.0476217
0.0476238
0.0476258
0.0476279
0.04763
0.0476321
0.0476342
0.0476364
0.0476387
0.0476409
0.0476432
0.0476455
0.0476479
0.0476502
0.0476526
0.047655
0.0476573
0.0476597
0.047662
0.0476644
0.0476667
0.047669
0.0476713
0.0476736
0.0476758
0.0476781
0.0476803
0.0476825
0.0476847
0.0476869
0.0476891
0.0476912
0.0476936
0.0476933
0.0476726
0.0476615
0.0476597
0.04766
0.0476609
0.047662
0.0476633
0.0476646
0.047666
0.0476674
0.0476689
0.0476704
0.047672
0.0476736
0.0476754
0.0476747
0.045505
0.0454946
0.0454931
0.0454938
0.045495
0.0454965
0.0454981
0.0454998
0.0455016
0.0455034
0.0455053
0.0455073
0.0455093
0.0455113
0.0455133
0.0455153
0.0455174
0.0455194
0.0455215
0.0455237
0.0455259
0.0455281
0.0455303
0.0455326
0.0455348
0.0455371
0.0455394
0.0455416
0.0455439
0.0455461
0.0455484
0.0455506
0.0455528
0.045555
0.0455572
0.0455594
0.0455615
0.0455636
0.0455658
0.0455679
0.04557
0.045572
0.0455741
0.0455764
0.0455756
0.0455557
0.0455451
0.0455434
0.0455437
0.0455446
0.0455458
0.045547
0.0455483
0.0455496
0.0455511
0.0455525
0.045554
0.0455555
0.045557
0.0455588
0.0455577
0.0435466
0.0435367
0.0435353
0.0435361
0.0435373
0.0435388
0.0435404
0.0435421
0.0435439
0.0435458
0.0435476
0.0435495
0.0435515
0.0435534
0.0435554
0.0435573
0.0435593
0.0435613
0.0435634
0.0435654
0.0435675
0.0435696
0.0435718
0.043574
0.0435761
0.0435783
0.0435805
0.0435827
0.0435848
0.043587
0.0435891
0.0435913
0.0435934
0.0435955
0.0435976
0.0435996
0.0436017
0.0436037
0.0436058
0.0436078
0.0436098
0.0436117
0.0436137
0.0436159
0.0436148
0.0435955
0.0435853
0.0435837
0.0435841
0.0435851
0.0435862
0.0435874
0.0435887
0.04359
0.0435914
0.0435928
0.0435943
0.0435958
0.0435972
0.043599
0.0435975
0.0417374
0.0417279
0.0417267
0.0417275
0.0417288
0.0417303
0.0417319
0.0417337
0.0417354
0.0417372
0.0417391
0.041741
0.0417428
0.0417447
0.0417466
0.0417486
0.0417505
0.0417524
0.0417544
0.0417564
0.0417584
0.0417604
0.0417625
0.0417646
0.0417667
0.0417688
0.0417709
0.041773
0.041775
0.0417771
0.0417791
0.0417812
0.0417832
0.0417852
0.0417872
0.0417892
0.0417911
0.0417931
0.041795
0.0417969
0.0417988
0.0418007
0.0418026
0.0418047
0.0418032
0.0417845
0.0417747
0.0417733
0.0417738
0.0417747
0.0417758
0.0417771
0.0417783
0.0417797
0.041781
0.0417824
0.0417838
0.0417853
0.0417867
0.0417884
0.0417865