/*--------------------------------*- C++ -*----------------------------------*\
  =========                 |
  \\      /  F ield         | OpenFOAM: The Open Source CFD Toolbox
   \\    /   O peration     | Website:  https://openfoam.org
    \\  /    A nd           | Version:  7
     \\/     M anipulation  |
\*---------------------------------------------------------------------------*/
FoamFile
{
    version     2.0;
    format      ascii;
    class       volVectorField;
    location    "16000";
    object      U;
}
// * * * * * * * * * * * * * * * * * * * * * * * * * * * * * * * * * * * * * //

dimensions      [0 1 -1 0 0 0 0];

internalField   nonuniform List<vector> 
4026
(
(0.125389 4.04369e-08 2.20081e-14)
(0.125389 6.33075e-08 2.20321e-14)
(0.125389 8.13912e-08 2.20607e-14)
(0.125389 9.45494e-08 2.19533e-14)
(0.125389 1.03204e-07 2.19078e-14)
(0.125389 1.08043e-07 2.19629e-14)
(0.125389 1.09436e-07 2.20413e-14)
(0.125389 1.07738e-07 2.20952e-14)
(0.125389 1.03282e-07 2.21958e-14)
(0.125389 9.645e-08 2.22777e-14)
(0.125389 8.7702e-08 2.23407e-14)
(0.125389 7.75057e-08 2.23493e-14)
(0.125389 6.62866e-08 2.23556e-14)
(0.125389 5.44456e-08 2.2343e-14)
(0.125389 4.2355e-08 2.2181e-14)
(0.125389 3.02958e-08 2.23003e-14)
(0.125389 1.84349e-08 2.23345e-14)
(0.125389 6.87285e-09 2.2348e-14)
(0.125389 -4.30581e-09 2.23444e-14)
(0.125389 -1.50166e-08 2.22036e-14)
(0.125389 -2.52056e-08 2.23895e-14)
(0.125389 -3.48577e-08 2.21506e-14)
(0.125389 -4.39547e-08 2.22299e-14)
(0.125389 -5.24766e-08 2.22976e-14)
(0.125389 -6.0433e-08 2.20932e-14)
(0.125389 -6.78483e-08 2.2229e-14)
(0.125389 -7.47554e-08 2.23005e-14)
(0.125389 -8.1185e-08 2.22724e-14)
(0.125389 -8.71573e-08 2.23177e-14)
(0.125389 -9.27042e-08 2.20709e-14)
(0.125389 -9.78668e-08 2.22078e-14)
(0.125389 -1.02679e-07 2.22454e-14)
(0.125389 -1.07157e-07 2.22597e-14)
(0.125389 -1.11325e-07 2.23262e-14)
(0.125389 -1.15218e-07 2.1987e-14)
(0.125389 -1.18853e-07 2.21489e-14)
(0.125389 -1.22175e-07 2.21987e-14)
(0.125389 -1.25153e-07 2.22257e-14)
(0.125389 -1.27421e-07 2.22138e-14)
(0.12539 -1.29042e-07 2.20614e-14)
(0.12539 -1.28653e-07 2.2122e-14)
(0.12539 -1.27398e-07 2.20625e-14)
(0.12539 -1.19755e-07 2.21025e-14)
(0.12539 -1.11158e-07 2.20861e-14)
(0.12539 -8.62879e-08 2.2071e-14)
(0.12539 7.22216e-09 2.18128e-14)
(0.12539 2.47238e-08 2.18327e-14)
(0.12539 3.35038e-08 2.18117e-14)
(0.125389 3.55083e-08 2.18299e-14)
(0.125389 3.26999e-08 2.18546e-14)
(0.125389 2.69912e-08 2.18426e-14)
(0.125389 1.96128e-08 2.18567e-14)
(0.125389 1.14738e-08 2.1863e-14)
(0.125389 3.06198e-09 2.18902e-14)
(0.125389 -4.90502e-09 2.19124e-14)
(0.125389 -1.23652e-08 2.18899e-14)
(0.125389 -1.7431e-08 2.18983e-14)
(0.125389 -2.14064e-08 2.19065e-14)
(0.125389 -1.83087e-08 2.19392e-14)
(0.125389 -1.12846e-08 2.19673e-14)
(0.125389 8.9006e-09 2.19455e-14)
(0.126419 4.18278e-08 2.23619e-14)
(0.126419 6.49739e-08 2.23903e-14)
(0.126419 8.2707e-08 2.24081e-14)
(0.126419 9.5272e-08 2.22837e-14)
(0.126419 1.03306e-07 2.22282e-14)
(0.126419 1.07593e-07 2.22723e-14)
(0.126419 1.08539e-07 2.23507e-14)
(0.126419 1.06504e-07 2.24124e-14)
(0.126419 1.01814e-07 2.24932e-14)
(0.126419 9.48341e-08 2.25681e-14)
(0.126419 8.60041e-08 2.26336e-14)
(0.126419 7.57759e-08 2.26545e-14)
(0.126419 6.45584e-08 2.2663e-14)
(0.126419 5.2734e-08 2.26566e-14)
(0.126419 4.06644e-08 2.24898e-14)
(0.126419 2.86301e-08 2.26543e-14)
(0.126419 1.67988e-08 2.26639e-14)
(0.126419 5.26753e-09 2.26714e-14)
(0.126419 -5.88188e-09 2.26707e-14)
(0.126419 -1.65632e-08 2.25296e-14)
(0.126419 -2.67211e-08 2.26981e-14)
(0.126419 -3.63447e-08 2.25254e-14)
(0.126419 -4.54191e-08 2.25894e-14)
(0.126419 -5.39205e-08 2.26181e-14)
(0.126419 -6.18539e-08 2.24656e-14)
(0.126419 -6.92428e-08 2.26309e-14)
(0.126419 -7.61195e-08 2.26176e-14)
(0.126419 -8.25181e-08 2.26345e-14)
(0.126419 -8.846e-08 2.26372e-14)
(0.126419 -9.39752e-08 2.24436e-14)
(0.126419 -9.91053e-08 2.26053e-14)
(0.126419 -1.03882e-07 2.25964e-14)
(0.126419 -1.08325e-07 2.26065e-14)
(0.126419 -1.12466e-07 2.2602e-14)
(0.126419 -1.16339e-07 2.23955e-14)
(0.126419 -1.19957e-07 2.25447e-14)
(0.126419 -1.23269e-07 2.25591e-14)
(0.126419 -1.26246e-07 2.25755e-14)
(0.126419 -1.28535e-07 2.25811e-14)
(0.126419 -1.30187e-07 2.243e-14)
(0.126419 -1.29836e-07 2.25018e-14)
(0.126419 -1.28661e-07 2.24168e-14)
(0.126419 -1.20889e-07 2.24816e-14)
(0.126419 -1.12623e-07 2.24914e-14)
(0.126419 -8.60934e-08 2.24619e-14)
(0.126419 1.55856e-08 2.21864e-14)
(0.126419 3.30503e-08 2.21985e-14)
(0.126419 4.11069e-08 2.21927e-14)
(0.126419 4.23289e-08 2.22032e-14)
(0.126419 3.88005e-08 2.22163e-14)
(0.126419 3.24435e-08 2.22179e-14)
(0.126419 2.44734e-08 2.2227e-14)
(0.126419 1.57861e-08 2.22317e-14)
(0.126419 6.87052e-09 2.22445e-14)
(0.126419 -1.57426e-09 2.22587e-14)
(0.126419 -9.47069e-09 2.22563e-14)
(0.126419 -1.49915e-08 2.22655e-14)
(0.126419 -1.93533e-08 2.22749e-14)
(0.126419 -1.66837e-08 2.22937e-14)
(0.126419 -1.02324e-08 2.23172e-14)
(0.126419 9.80918e-09 2.2314e-14)
(0.127419 4.30697e-08 2.2721e-14)
(0.127419 6.64093e-08 2.27467e-14)
(0.127419 8.37909e-08 2.27467e-14)
(0.127419 9.57627e-08 2.26152e-14)
(0.127419 1.03167e-07 2.25293e-14)
(0.127419 1.06891e-07 2.25967e-14)
(0.127419 1.0738e-07 2.26767e-14)
(0.127419 1.05003e-07 2.27395e-14)
(0.127419 1.0008e-07 2.28064e-14)
(0.127419 9.29574e-08 2.28713e-14)
(0.127419 8.40588e-08 2.29347e-14)
(0.127419 7.38202e-08 2.29562e-14)
(0.127419 6.26337e-08 2.29674e-14)
(0.127419 5.08608e-08 2.29585e-14)
(0.127419 3.88476e-08 2.28881e-14)
(0.127419 2.687e-08 2.29624e-14)
(0.127419 1.50949e-08 2.29796e-14)
(0.127419 3.618e-09 2.29904e-14)
(0.127419 -7.4777e-09 2.29856e-14)
(0.127419 -1.81048e-08 2.29215e-14)
(0.127419 -2.82092e-08 2.29577e-14)
(0.127419 -3.77835e-08 2.29162e-14)
(0.127419 -4.68147e-08 2.29766e-14)
(0.127419 -5.52751e-08 2.29602e-14)
(0.127419 -6.31659e-08 2.29137e-14)
(0.127419 -7.05112e-08 2.29598e-14)
(0.127419 -7.7343e-08 2.29382e-14)
(0.127419 -8.36972e-08 2.30031e-14)
(0.127419 -8.95944e-08 2.29556e-14)
(0.127419 -9.50621e-08 2.28762e-14)
(0.127419 -1.00146e-07 2.29193e-14)
(0.127419 -1.04879e-07 2.28992e-14)
(0.127419 -1.09282e-07 2.29505e-14)
(0.127419 -1.13392e-07 2.29229e-14)
(0.127419 -1.1724e-07 2.28428e-14)
(0.127419 -1.20835e-07 2.28731e-14)
(0.127419 -1.2413e-07 2.28565e-14)
(0.127419 -1.27102e-07 2.29271e-14)
(0.127419 -1.2941e-07 2.29042e-14)
(0.127419 -1.31095e-07 2.28553e-14)
(0.127419 -1.30795e-07 2.28988e-14)
(0.127419 -1.29701e-07 2.28414e-14)
(0.127419 -1.21875e-07 2.28825e-14)
(0.127419 -1.1392e-07 2.2868e-14)
(0.127419 -8.63949e-08 2.28411e-14)
(0.127419 2.33709e-08 2.2555e-14)
(0.127419 4.14571e-08 2.25621e-14)
(0.127419 4.90193e-08 2.25662e-14)
(0.127419 4.94672e-08 2.25754e-14)
(0.127419 4.5188e-08 2.25776e-14)
(0.127419 3.81574e-08 2.25873e-14)
(0.127419 2.95798e-08 2.25937e-14)
(0.127419 2.03314e-08 2.25962e-14)
(0.127419 1.08993e-08 2.25956e-14)
(0.127419 1.96444e-09 2.26074e-14)
(0.127419 -6.37755e-09 2.26199e-14)
(0.127419 -1.23713e-08 2.26303e-14)
(0.127419 -1.71373e-08 2.26392e-14)
(0.127419 -1.49507e-08 2.26503e-14)
(0.127419 -9.17742e-09 2.26662e-14)
(0.127419 1.06566e-08 2.2676e-14)
(0.128391 4.42984e-08 2.30819e-14)
(0.128391 6.76291e-08 2.30998e-14)
(0.128391 8.45908e-08 2.30924e-14)
(0.128391 9.59694e-08 2.29857e-14)
(0.128391 1.02753e-07 2.28344e-14)
(0.128391 1.05919e-07 2.29365e-14)
(0.128391 1.05956e-07 2.30187e-14)
(0.128391 1.03241e-07 2.30761e-14)
(0.128391 9.80869e-08 2.31315e-14)
(0.128391 9.08301e-08 2.31856e-14)
(0.128391 8.18749e-08 2.32444e-14)
(0.128391 7.16421e-08 2.32546e-14)
(0.128391 6.05089e-08 2.32688e-14)
(0.128391 4.88175e-08 2.32513e-14)
(0.128391 3.68951e-08 2.32674e-14)
(0.128391 2.50074e-08 2.3292e-14)
(0.128391 1.33175e-08 2.32899e-14)
(0.128391 1.9207e-09 2.33047e-14)
(0.128391 -9.09626e-09 2.32922e-14)
(0.128391 -1.96441e-08 2.33006e-14)
(0.128391 -2.96717e-08 2.32327e-14)
(0.128391 -3.91749e-08 2.32947e-14)
(0.128391 -4.81415e-08 2.33502e-14)
(0.128391 -5.65395e-08 2.32823e-14)
(0.128391 -6.43667e-08 2.33424e-14)
(0.128391 -7.16494e-08 2.32982e-14)
(0.128391 -7.84212e-08 2.32431e-14)
(0.128391 -8.47163e-08 2.33317e-14)
(0.128391 -9.05527e-08 2.32631e-14)
(0.128391 -9.59569e-08 2.32952e-14)
(0.128391 -1.00981e-07 2.32453e-14)
(0.128391 -1.05661e-07 2.31922e-14)
(0.128391 -1.10018e-07 2.33179e-14)
(0.128391 -1.14091e-07 2.32261e-14)
(0.128391 -1.17908e-07 2.32678e-14)
(0.128391 -1.21475e-07 2.32071e-14)
(0.128391 -1.24749e-07 2.31524e-14)
(0.128391 -1.27711e-07 2.33357e-14)
(0.128391 -1.30037e-07 2.3213e-14)
(0.128391 -1.31757e-07 2.32679e-14)
(0.128391 -1.31522e-07 2.32956e-14)
(0.128391 -1.30517e-07 2.32577e-14)
(0.128391 -1.22719e-07 2.3274e-14)
(0.128391 -1.15064e-07 2.32365e-14)
(0.128391 -8.70326e-08 2.32457e-14)
(0.128391 3.04505e-08 2.29215e-14)
(0.128391 4.95181e-08 2.29225e-14)
(0.128391 5.6945e-08 2.29358e-14)
(0.128391 5.67696e-08 2.29457e-14)
(0.128391 5.17772e-08 2.29352e-14)
(0.128391 4.40764e-08 2.29539e-14)
(0.128391 3.48893e-08 2.2956e-14)
(0.128391 2.50773e-08 2.29567e-14)
(0.128391 1.51244e-08 2.29619e-14)
(0.128391 5.69155e-09 2.2956e-14)
(0.128391 -3.10476e-09 2.29847e-14)
(0.128391 -9.58954e-09 2.29926e-14)
(0.128391 -1.47789e-08 2.29991e-14)
(0.128391 -1.31255e-08 2.30116e-14)
(0.128391 -8.14883e-09 2.30155e-14)
(0.128391 1.15171e-08 2.30358e-14)
(0.129336 4.55605e-08 2.3444e-14)
(0.129336 6.87045e-08 2.34463e-14)
(0.129336 8.51232e-08 2.34244e-14)
(0.129336 9.58739e-08 2.33686e-14)
(0.129336 1.0204e-07 2.3271e-14)
(0.129336 1.04662e-07 2.33142e-14)
(0.129336 1.04258e-07 2.33726e-14)
(0.129336 1.01213e-07 2.34211e-14)
(0.129336 9.58384e-08 2.34658e-14)
(0.129336 8.84572e-08 2.35091e-14)
(0.129336 7.94577e-08 2.35619e-14)
(0.129336 6.92454e-08 2.35468e-14)
(0.129336 5.81842e-08 2.35673e-14)
(0.129336 4.65999e-08 2.35358e-14)
(0.129336 3.47997e-08 2.36123e-14)
(0.129336 2.30339e-08 2.36266e-14)
(0.129336 1.1459e-08 2.35933e-14)
(0.129336 1.69752e-10 2.36154e-14)
(0.129336 -1.07425e-08 2.35927e-14)
(0.129336 -2.11863e-08 2.36977e-14)
(0.129336 -3.11138e-08 2.35843e-14)
(0.129336 -4.05233e-08 2.36779e-14)
(0.129336 -4.94021e-08 2.37245e-14)
(0.129336 -5.77146e-08 2.36583e-14)
(0.129336 -6.5456e-08 2.37499e-14)
(0.129336 -7.26568e-08 2.37006e-14)
(0.129336 -7.93524e-08 2.36248e-14)
(0.129336 -8.55719e-08 2.36947e-14)
(0.129336 -9.13299e-08 2.36238e-14)
(0.129336 -9.66543e-08 2.36986e-14)
(0.129336 -1.01604e-07 2.36389e-14)
(0.129336 -1.06221e-07 2.35631e-14)
(0.129336 -1.10526e-07 2.3626e-14)
(0.129336 -1.14553e-07 2.3588e-14)
(0.129336 -1.18332e-07 2.36729e-14)
(0.129336 -1.21866e-07 2.36064e-14)
(0.129336 -1.25117e-07 2.35285e-14)
(0.129336 -1.28065e-07 2.36111e-14)
(0.129336 -1.30408e-07 2.3579e-14)
(0.129336 -1.32164e-07 2.37084e-14)
(0.129336 -1.32015e-07 2.36844e-14)
(0.129336 -1.31105e-07 2.36599e-14)
(0.129336 -1.23421e-07 2.366e-14)
(0.129336 -1.1609e-07 2.3586e-14)
(0.129336 -8.78331e-08 2.35613e-14)
(0.129336 3.689e-08 2.32893e-14)
(0.129336 5.69642e-08 2.32785e-14)
(0.129336 6.45586e-08 2.3305e-14)
(0.129336 6.39986e-08 2.33134e-14)
(0.129336 5.84135e-08 2.32861e-14)
(0.129336 5.00952e-08 2.33209e-14)
(0.129336 4.03238e-08 2.33126e-14)
(0.129336 2.99622e-08 2.33121e-14)
(0.129336 1.94964e-08 2.33203e-14)
(0.129336 9.5667e-09 2.33084e-14)
(0.129336 3.12467e-10 2.33538e-14)
(0.129336 -6.6781e-09 2.33517e-14)
(0.129336 -1.23096e-08 2.33549e-14)
(0.129336 -1.12354e-08 2.33751e-14)
(0.129336 -7.17866e-09 2.33644e-14)
(0.129336 1.23674e-08 2.33976e-14)
(0.130255 4.68502e-08 2.38065e-14)
(0.130255 6.96859e-08 2.37845e-14)
(0.130255 8.54257e-08 2.37662e-14)
(0.130255 9.54833e-08 2.37292e-14)
(0.130255 1.01019e-07 2.36909e-14)
(0.130255 1.03105e-07 2.37027e-14)
(0.130255 1.02275e-07 2.37366e-14)
(0.130255 9.89149e-08 2.37733e-14)
(0.130255 9.33317e-08 2.38071e-14)
(0.130255 8.58392e-08 2.38395e-14)
(0.130255 7.68097e-08 2.38852e-14)
(0.130255 6.66329e-08 2.38292e-14)
(0.130255 5.56605e-08 2.3865e-14)
(0.130255 4.42055e-08 2.38104e-14)
(0.130255 3.25553e-08 2.38916e-14)
(0.130255 2.09415e-08 2.39483e-14)
(0.130255 9.51086e-09 2.38836e-14)
(0.130255 -1.64209e-09 2.39248e-14)
(0.130255 -1.24227e-08 2.389e-14)
(0.130255 -2.2738e-08 2.39533e-14)
(0.130255 -3.25419e-08 2.39098e-14)
(0.130255 -4.18342e-08 2.39986e-14)
(0.130255 -5.06006e-08 2.40665e-14)
(0.130255 -5.88029e-08 2.40149e-14)
(0.130255 -6.64357e-08 2.40913e-14)
(0.130255 -7.35347e-08 2.40602e-14)
(0.130255 -8.01364e-08 2.39866e-14)
(0.130255 -8.62623e-08 2.40231e-14)
(0.130255 -9.19232e-08 2.39736e-14)
(0.130255 -9.71514e-08 2.40374e-14)
(0.130255 -1.02014e-07 2.39933e-14)
(0.130255 -1.06557e-07 2.39162e-14)
(0.130255 -1.108e-07 2.39645e-14)
(0.130255 -1.14772e-07 2.39362e-14)
(0.130255 -1.18503e-07 2.40135e-14)
(0.130255 -1.21999e-07 2.39659e-14)
(0.130255 -1.25224e-07 2.38871e-14)
(0.130255 -1.28158e-07 2.39494e-14)
(0.130255 -1.30517e-07 2.39321e-14)
(0.130255 -1.32314e-07 2.40064e-14)
(0.130255 -1.32269e-07 2.40521e-14)
(0.130255 -1.31466e-07 2.40542e-14)
(0.130255 -1.23976e-07 2.40193e-14)
(0.130255 -1.17035e-07 2.39139e-14)
(0.130255 -8.86877e-08 2.39082e-14)
(0.130256 4.28065e-08 2.36627e-14)
(0.130256 6.3709e-08 2.36274e-14)
(0.130256 7.16178e-08 2.36794e-14)
(0.130255 7.0905e-08 2.36766e-14)
(0.130255 6.49008e-08 2.36262e-14)
(0.130255 5.60681e-08 2.36931e-14)
(0.130255 4.57721e-08 2.36601e-14)
(0.130255 3.48981e-08 2.36649e-14)
(0.130255 2.39436e-08 2.3695e-14)
(0.130255 1.353e-08 2.36561e-14)
(0.130255 3.82269e-09 2.3733e-14)
(0.130255 -3.68186e-09 2.37041e-14)
(0.130255 -9.77153e-09 2.37068e-14)
(0.130255 -9.31911e-09 2.3745e-14)
(0.130255 -6.30344e-09 2.37085e-14)
(0.130255 1.31597e-08 2.37658e-14)
(0.13115 4.81337e-08 2.4169e-14)
(0.13115 7.05893e-08 2.4074e-14)
(0.13115 8.55297e-08 2.41004e-14)
(0.13115 9.48151e-08 2.40846e-14)
(0.13115 9.96926e-08 2.40957e-14)
(0.13115 1.01242e-07 2.40906e-14)
(0.13115 9.99979e-08 2.41049e-14)
(0.13115 9.63378e-08 2.41315e-14)
(0.13115 9.05621e-08 2.41536e-14)
(0.13115 8.29741e-08 2.41748e-14)
(0.13115 7.39312e-08 2.42105e-14)
(0.13115 6.38064e-08 2.40422e-14)
(0.13115 5.29391e-08 2.41697e-14)
(0.13115 4.16325e-08 2.40967e-14)
(0.13115 3.01568e-08 2.41611e-14)
(0.13115 1.87222e-08 2.42856e-14)
(0.13115 7.46443e-09 2.41461e-14)
(0.13115 -3.52314e-09 2.42378e-14)
(0.13115 -1.41445e-08 2.41436e-14)
(0.13115 -2.43062e-08 2.425e-14)
(0.13115 -3.39631e-08 2.42257e-14)
(0.13115 -4.31138e-08 2.43334e-14)
(0.13115 -5.17417e-08 2.44151e-14)
(0.13115 -5.98081e-08 2.43526e-14)
(0.13115 -6.73093e-08 2.44191e-14)
(0.13115 -7.42864e-08 2.43948e-14)
(0.13115 -8.07749e-08 2.43252e-14)
(0.13115 -8.67871e-08 2.43672e-14)
(0.13115 -9.23322e-08 2.43124e-14)
(0.13115 -9.74484e-08 2.43615e-14)
(0.13115 -1.02209e-07 2.4325e-14)
(0.13115 -1.06667e-07 2.42473e-14)
(0.13115 -1.10837e-07 2.43155e-14)
(0.13115 -1.14743e-07 2.42709e-14)
(0.13115 -1.18416e-07 2.43452e-14)
(0.13115 -1.21867e-07 2.43028e-14)
(0.13115 -1.25064e-07 2.42237e-14)
(0.13115 -1.27982e-07 2.42983e-14)
(0.13115 -1.30361e-07 2.42743e-14)
(0.13115 -1.32202e-07 2.43354e-14)
(0.13115 -1.32281e-07 2.44258e-14)
(0.13115 -1.316e-07 2.43604e-14)
(0.13115 -1.24381e-07 2.43555e-14)
(0.13115 -1.17926e-07 2.4185e-14)
(0.13115 -8.95375e-08 2.42599e-14)
(0.13115 4.83002e-08 2.40487e-14)
(0.13115 6.97742e-08 2.40463e-14)
(0.13115 7.79901e-08 2.4071e-14)
(0.13115 7.72853e-08 2.403e-14)
(0.13115 7.10412e-08 2.40349e-14)
(0.13115 6.18298e-08 2.40779e-14)
(0.13115 5.1101e-08 2.40752e-14)
(0.13115 3.97763e-08 2.41056e-14)
(0.13115 2.83755e-08 2.40693e-14)
(0.13115 1.75048e-08 2.4085e-14)
(0.13115 7.35963e-09 2.41271e-14)
(0.13115 -6.58402e-10 2.41245e-14)
(0.13115 -7.21786e-09 2.41413e-14)
(0.13115 -7.4254e-09 2.41198e-14)
(0.13115 -5.56525e-09 2.41239e-14)
(0.13115 1.38423e-08 2.41482e-14)
(0.13202 4.93641e-08 2.45401e-14)
(0.13202 7.14035e-08 2.44192e-14)
(0.13202 8.54494e-08 2.44364e-14)
(0.13202 9.38853e-08 2.44365e-14)
(0.13202 9.80664e-08 2.4499e-14)
(0.13202 9.90713e-08 2.44699e-14)
(0.13202 9.74204e-08 2.44723e-14)
(0.132021 9.34755e-08 2.44945e-14)
(0.132021 8.75242e-08 2.45033e-14)
(0.132021 7.98582e-08 2.45129e-14)
(0.132021 7.08204e-08 2.45329e-14)
(0.132021 6.07655e-08 2.44578e-14)
(0.132021 5.002e-08 2.44937e-14)
(0.132021 3.88794e-08 2.44384e-14)
(0.132021 2.75991e-08 2.44702e-14)
(0.132021 1.63685e-08 2.46329e-14)
(0.132021 5.31082e-09 2.45283e-14)
(0.132021 -5.48241e-09 2.45719e-14)
(0.132021 -1.59162e-08 2.45375e-14)
(0.132021 -2.58986e-08 2.45767e-14)
(0.132021 -3.53841e-08 2.45372e-14)
(0.132021 -4.43679e-08 2.47147e-14)
(0.132021 -5.28309e-08 2.47934e-14)
(0.132021 -6.07354e-08 2.46661e-14)
(0.132021 -6.80822e-08 2.47759e-14)
(0.132021 -7.49168e-08 2.47063e-14)
(0.132021 -8.1271e-08 2.46431e-14)
(0.132021 -8.71478e-08 2.4718e-14)
(0.132021 -9.25585e-08 2.46347e-14)
(0.132021 -9.75479e-08 2.47225e-14)
(0.132021 -1.02194e-07 2.46336e-14)
(0.132021 -1.06552e-07 2.45572e-14)
(0.132021 -1.10635e-07 2.46579e-14)
(0.132021 -1.14463e-07 2.45877e-14)
(0.132021 -1.18068e-07 2.47355e-14)
(0.132021 -1.21467e-07 2.46168e-14)
(0.132021 -1.24632e-07 2.45387e-14)
(0.132021 -1.27534e-07 2.46479e-14)
(0.132021 -1.29936e-07 2.45995e-14)
(0.132021 -1.31827e-07 2.46644e-14)
(0.132021 -1.3205e-07 2.47727e-14)
(0.132021 -1.31508e-07 2.46471e-14)
(0.132021 -1.2463e-07 2.46806e-14)
(0.132021 -1.18783e-07 2.45789e-14)
(0.132021 -9.03548e-08 2.46261e-14)
(0.132021 5.34326e-08 2.44328e-14)
(0.132021 7.52254e-08 2.44562e-14)
(0.132021 8.36349e-08 2.44497e-14)
(0.132021 8.30063e-08 2.43708e-14)
(0.132021 7.66681e-08 2.44683e-14)
(0.132021 6.72196e-08 2.44957e-14)
(0.132021 5.61699e-08 2.44815e-14)
(0.132021 4.44764e-08 2.45619e-14)
(0.132021 3.26888e-08 2.44293e-14)
(0.132021 2.14017e-08 2.45145e-14)
(0.132021 1.08453e-08 2.45163e-14)
(0.13202 2.3238e-09 2.45339e-14)
(0.13202 -4.71112e-09 2.45671e-14)
(0.13202 -5.61148e-09 2.44809e-14)
(0.13202 -5.01193e-09 2.45276e-14)
(0.13202 1.43626e-08 2.45306e-14)
(0.132868 5.04904e-08 2.49086e-14)
(0.132868 7.20992e-08 2.47812e-14)
(0.132868 8.51809e-08 2.47871e-14)
(0.132868 9.27014e-08 2.47788e-14)
(0.132868 9.61469e-08 2.48297e-14)
(0.132868 9.65926e-08 2.48305e-14)
(0.132868 9.4539e-08 2.48365e-14)
(0.132868 9.0323e-08 2.48615e-14)
(0.132868 8.42131e-08 2.48533e-14)
(0.132868 7.64874e-08 2.48512e-14)
(0.132868 6.7474e-08 2.48497e-14)
(0.132868 5.75085e-08 2.47963e-14)
(0.132868 4.69022e-08 2.48244e-14)
(0.132868 3.59439e-08 2.47886e-14)
(0.132868 2.48777e-08 2.47991e-14)
(0.132868 1.38734e-08 2.48638e-14)
(0.132868 3.04162e-09 2.48569e-14)
(0.132868 -7.52898e-09 2.49172e-14)
(0.132868 -1.77466e-08 2.48865e-14)
(0.132868 -2.75231e-08 2.49159e-14)
(0.132868 -3.68115e-08 2.48503e-14)
(0.132868 -4.56023e-08 2.49104e-14)
(0.132868 -5.38738e-08 2.50163e-14)
(0.132868 -6.15912e-08 2.4943e-14)
(0.132868 -6.87611e-08 2.49996e-14)
(0.132868 -7.5432e-08 2.49803e-14)
(0.132868 -8.16288e-08 2.49493e-14)
(0.132868 -8.73481e-08 2.50012e-14)
(0.132868 -9.26065e-08 2.49301e-14)
(0.132868 -9.74547e-08 2.4939e-14)
(0.132868 -1.01971e-07 2.49128e-14)
(0.132868 -1.06215e-07 2.48519e-14)
(0.132868 -1.10197e-07 2.49424e-14)
(0.132868 -1.13932e-07 2.48728e-14)
(0.132868 -1.17458e-07 2.49246e-14)
(0.132868 -1.20798e-07 2.48954e-14)
(0.132868 -1.23928e-07 2.48344e-14)
(0.132868 -1.26813e-07 2.49318e-14)
(0.132868 -1.29242e-07 2.48954e-14)
(0.132868 -1.3119e-07 2.49303e-14)
(0.132868 -1.31575e-07 2.50532e-14)
(0.132868 -1.31194e-07 2.48787e-14)
(0.132868 -1.24721e-07 2.49327e-14)
(0.132868 -1.19616e-07 2.49115e-14)
(0.132868 -9.11294e-08 2.49343e-14)
(0.132868 5.82302e-08 2.47242e-14)
(0.132868 8.01348e-08 2.47841e-14)
(0.132868 8.85711e-08 2.4744e-14)
(0.132868 8.80044e-08 2.46875e-14)
(0.132868 8.16635e-08 2.47657e-14)
(0.132868 7.21021e-08 2.47516e-14)
(0.132868 6.0847e-08 2.4807e-14)
(0.132868 4.88782e-08 2.48695e-14)
(0.132868 3.67757e-08 2.47481e-14)
(0.132868 2.51249e-08 2.4823e-14)
(0.132868 1.41944e-08 2.48047e-14)
(0.132868 5.18852e-09 2.48594e-14)
(0.132868 -2.32123e-09 2.49059e-14)
(0.132868 -3.94104e-09 2.48076e-14)
(0.132868 -4.69615e-09 2.4862e-14)
(0.132868 1.46692e-08 2.48189e-14)
(0.133693 5.14619e-08 2.52776e-14)
(0.133693 7.26372e-08 2.51832e-14)
(0.133693 8.4706e-08 2.51492e-14)
(0.133693 9.12596e-08 2.51143e-14)
(0.133693 9.39352e-08 2.51687e-14)
(0.133693 9.38063e-08 2.5183e-14)
(0.133693 9.13512e-08 2.51962e-14)
(0.133693 8.68761e-08 2.51952e-14)
(0.133693 8.06243e-08 2.51978e-14)
(0.133693 7.28574e-08 2.51881e-14)
(0.133693 6.38882e-08 2.52244e-14)
(0.133693 5.40319e-08 2.51133e-14)
(0.133693 4.35832e-08 2.51678e-14)
(0.133693 3.28236e-08 2.51214e-14)
(0.133693 2.19883e-08 2.51844e-14)
(0.133693 1.12307e-08 2.52339e-14)
(0.133693 6.49427e-10 2.51765e-14)
(0.133694 -9.67132e-09 2.523e-14)
(0.133694 -1.96445e-08 2.52261e-14)
(0.133694 -2.91875e-08 2.52378e-14)
(0.133694 -3.82519e-08 2.52237e-14)
(0.133694 -4.68228e-08 2.52151e-14)
(0.133694 -5.48769e-08 2.5279e-14)
(0.133694 -6.23833e-08 2.53275e-14)
(0.133694 -6.93543e-08 2.53372e-14)
(0.133694 -7.58387e-08 2.53035e-14)
(0.133694 -8.1854e-08 2.52801e-14)
(0.133694 -8.7394e-08 2.52944e-14)
(0.133694 -9.2483e-08 2.52504e-14)
(0.133694 -9.71756e-08 2.53234e-14)
(0.133694 -1.01548e-07 2.52316e-14)
(0.133694 -1.05661e-07 2.51921e-14)
(0.133694 -1.09526e-07 2.52261e-14)
(0.133694 -1.13155e-07 2.52268e-14)
(0.133694 -1.16591e-07 2.52643e-14)
(0.133694 -1.19863e-07 2.52192e-14)
(0.133694 -1.22952e-07 2.52165e-14)
(0.133694 -1.25821e-07 2.5221e-14)
(0.133694 -1.28282e-07 2.52174e-14)
(0.133694 -1.30292e-07 2.5318e-14)
(0.133694 -1.30857e-07 2.53165e-14)
(0.133694 -1.3066e-07 2.51062e-14)
(0.133694 -1.24654e-07 2.52008e-14)
(0.133694 -1.20428e-07 2.5236e-14)
(0.133694 -9.18584e-08 2.52441e-14)
(0.133694 6.26973e-08 2.50784e-14)
(0.133693 8.45635e-08 2.51237e-14)
(0.133693 9.28482e-08 2.50848e-14)
(0.133693 9.22705e-08 2.49669e-14)
(0.133693 8.5962e-08 2.51099e-14)
(0.133693 7.63791e-08 2.51046e-14)
(0.133693 6.50226e-08 2.51477e-14)
(0.133693 5.28725e-08 2.51974e-14)
(0.133693 4.05329e-08 2.50636e-14)
(0.133693 2.85793e-08 2.51494e-14)
(0.133693 1.73197e-08 2.51534e-14)
(0.133693 7.85594e-09 2.51979e-14)
(0.133693 -1.22299e-10 2.52402e-14)
(0.133693 -2.48164e-09 2.5116e-14)
(0.133693 -4.67366e-09 2.52e-14)
(0.133693 1.47118e-08 2.51705e-14)
(0.134497 5.22304e-08 2.55955e-14)
(0.134497 7.29749e-08 2.55374e-14)
(0.134497 8.39968e-08 2.55095e-14)
(0.134497 8.95467e-08 2.54337e-14)
(0.134497 9.14266e-08 2.55252e-14)
(0.134497 9.07102e-08 2.55331e-14)
(0.134497 8.78544e-08 2.55514e-14)
(0.134497 8.31311e-08 2.55224e-14)
(0.134497 7.67539e-08 2.55265e-14)
(0.134497 6.89642e-08 2.55239e-14)
(0.134497 6.00583e-08 2.54456e-14)
(0.134497 5.03311e-08 2.54122e-14)
(0.134497 4.00594e-08 2.54404e-14)
(0.134497 2.95153e-08 2.54394e-14)
(0.134497 1.89269e-08 2.54338e-14)
(0.134497 8.43566e-09 2.54742e-14)
(0.134497 -1.87168e-09 2.54907e-14)
(0.134497 -1.19168e-08 2.55525e-14)
(0.134497 -2.16184e-08 2.5548e-14)
(0.134497 -3.08997e-08 2.55598e-14)
(0.134497 -3.97117e-08 2.55192e-14)
(0.134497 -4.80355e-08 2.55223e-14)
(0.134497 -5.58476e-08 2.55528e-14)
(0.134497 -6.31205e-08 2.55574e-14)
(0.134497 -6.98703e-08 2.56065e-14)
(0.134497 -7.61442e-08 2.56022e-14)
(0.134497 -8.19539e-08 2.56007e-14)
(0.134497 -8.72941e-08 2.55761e-14)
(0.134497 -9.2197e-08 2.55602e-14)
(0.134497 -9.67183e-08 2.55607e-14)
(0.134497 -1.00931e-07 2.554e-14)
(0.134497 -1.04897e-07 2.5511e-14)
(0.134497 -1.08628e-07 2.55125e-14)
(0.134497 -1.12137e-07 2.55026e-14)
(0.134497 -1.15472e-07 2.55408e-14)
(0.134497 -1.18667e-07 2.5527e-14)
(0.134497 -1.2171e-07 2.55026e-14)
(0.134497 -1.24562e-07 2.55121e-14)
(0.134497 -1.27058e-07 2.55285e-14)
(0.134497 -1.29138e-07 2.55583e-14)
(0.134497 -1.299e-07 2.55866e-14)
(0.134497 -1.29913e-07 2.55007e-14)
(0.134497 -1.2443e-07 2.54963e-14)
(0.134497 -1.21222e-07 2.55732e-14)
(0.134497 -9.25414e-08 2.55555e-14)
(0.134497 6.68307e-08 2.54203e-14)
(0.134497 8.85591e-08 2.53944e-14)
(0.134497 9.65259e-08 2.54095e-14)
(0.134497 9.58315e-08 2.53785e-14)
(0.134497 8.95431e-08 2.54086e-14)
(0.134497 7.99922e-08 2.54445e-14)
(0.134497 6.86163e-08 2.54215e-14)
(0.134497 5.63694e-08 2.54488e-14)
(0.134497 4.38689e-08 2.54101e-14)
(0.134497 3.16766e-08 2.54478e-14)
(0.134497 2.01378e-08 2.54906e-14)
(0.134497 1.02474e-08 2.54703e-14)
(0.134497 1.81132e-09 2.54937e-14)
(0.134497 -1.30169e-09 2.5459e-14)
(0.134497 -5.00109e-09 2.54917e-14)
(0.134497 1.44421e-08 2.55081e-14)
(0.135279 5.27513e-08 2.59032e-14)
(0.135279 7.30708e-08 2.58673e-14)
(0.135279 8.30216e-08 2.58378e-14)
(0.135279 8.75431e-08 2.58137e-14)
(0.135279 8.86108e-08 2.5868e-14)
(0.135279 8.72994e-08 2.58765e-14)
(0.135279 8.40448e-08 2.58198e-14)
(0.135279 7.90839e-08 2.57995e-14)
(0.135279 7.25975e-08 2.58501e-14)
(0.135279 6.48034e-08 2.57826e-14)
(0.135279 5.59793e-08 2.57082e-14)
(0.135279 4.64008e-08 2.57003e-14)
(0.135279 3.63265e-08 2.57279e-14)
(0.135279 2.6016e-08 2.57521e-14)
(0.135279 1.56907e-08 2.57329e-14)
(0.135279 5.48471e-09 2.5781e-14)
(0.135279 -4.52608e-09 2.58019e-14)
(0.135279 -1.42715e-08 2.58465e-14)
(0.135279 -2.36757e-08 2.58651e-14)
(0.135279 -3.2667e-08 2.58582e-14)
(0.135279 -4.11976e-08 2.58075e-14)
(0.135279 -4.92476e-08 2.58275e-14)
(0.135279 -5.67942e-08 2.58329e-14)
(0.135279 -6.3812e-08 2.58407e-14)
(0.135279 -7.03181e-08 2.58876e-14)
(0.135279 -7.6357e-08 2.58781e-14)
(0.135279 -8.19374e-08 2.58712e-14)
(0.135279 -8.70588e-08 2.58539e-14)
(0.135279 -9.17586e-08 2.58376e-14)
(0.135279 -9.60914e-08 2.58579e-14)
(0.135279 -1.00129e-07 2.58183e-14)
(0.135279 -1.03931e-07 2.57984e-14)
(0.135279 -1.07513e-07 2.57973e-14)
(0.135279 -1.10888e-07 2.57889e-14)
(0.135279 -1.1411e-07 2.58379e-14)
(0.135279 -1.17219e-07 2.57978e-14)
(0.135279 -1.20209e-07 2.5797e-14)
(0.135279 -1.23042e-07 2.58008e-14)
(0.135279 -1.2558e-07 2.58106e-14)
(0.135279 -1.27735e-07 2.58517e-14)
(0.135279 -1.28708e-07 2.58603e-14)
(0.135279 -1.28958e-07 2.58327e-14)
(0.135279 -1.24055e-07 2.5795e-14)
(0.135279 -1.21996e-07 2.58576e-14)
(0.135279 -9.31776e-08 2.58586e-14)
(0.135279 7.06295e-08 2.57663e-14)
(0.135279 9.21586e-08 2.56564e-14)
(0.135279 9.96641e-08 2.57379e-14)
(0.135279 9.87351e-08 2.57481e-14)
(0.135279 9.24211e-08 2.57173e-14)
(0.135279 8.29198e-08 2.57877e-14)
(0.135279 7.15792e-08 2.56857e-14)
(0.135279 5.93037e-08 2.57067e-14)
(0.135279 4.67107e-08 2.57797e-14)
(0.135279 3.43417e-08 2.5758e-14)
(0.135279 2.25739e-08 2.58348e-14)
(0.135279 1.22901e-08 2.57349e-14)
(0.135279 3.4092e-09 2.57528e-14)
(0.135279 -4.6716e-10 2.58019e-14)
(0.135279 -5.73335e-09 2.5791e-14)
(0.135279 1.38143e-08 2.58486e-14)
(0.13604 5.29845e-08 2.62211e-14)
(0.13604 7.28865e-08 2.61825e-14)
(0.13604 8.17489e-08 2.61579e-14)
(0.13604 8.52262e-08 2.61403e-14)
(0.13604 8.54744e-08 2.6088e-14)
(0.13604 8.35665e-08 2.62684e-14)
(0.13604 7.99177e-08 2.60066e-14)
(0.13604 7.47302e-08 2.60733e-14)
(0.13604 6.81507e-08 2.61034e-14)
(0.13604 6.03704e-08 2.59308e-14)
(0.13604 5.16461e-08 2.59537e-14)
(0.13604 4.22357e-08 2.59872e-14)
(0.13604 3.23799e-08 2.60184e-14)
(0.13604 2.23225e-08 2.60677e-14)
(0.13604 1.22777e-08 2.60269e-14)
(0.13604 2.37604e-09 2.61013e-14)
(0.13604 -7.31681e-09 2.61102e-14)
(0.13604 -1.67402e-08 2.61499e-14)
(0.13604 -2.58226e-08 2.61828e-14)
(0.13604 -3.44964e-08 2.61493e-14)
(0.13604 -4.2717e-08 2.61117e-14)
(0.13604 -5.04672e-08 2.61083e-14)
(0.13604 -5.77258e-08 2.6115e-14)
(0.13604 -6.44674e-08 2.61197e-14)
(0.13604 -7.07073e-08 2.62251e-14)
(0.13604 -7.64864e-08 2.61181e-14)
(0.13604 -8.18152e-08 2.61424e-14)
(0.13604 -8.66997e-08 2.61285e-14)
(0.13604 -9.11786e-08 2.61151e-14)
(0.13604 -9.53046e-08 2.61984e-14)
(0.13604 -9.91493e-08 2.60999e-14)
(0.13604 -1.02774e-07 2.60811e-14)
(0.13604 -1.06191e-07 2.60781e-14)
(0.13604 -1.09419e-07 2.60739e-14)
(0.13604 -1.12517e-07 2.61183e-14)
(0.13604 -1.15529e-07 2.60607e-14)
(0.13604 -1.18459e-07 2.60803e-14)
(0.13604 -1.21273e-07 2.60876e-14)
(0.13604 -1.23854e-07 2.60935e-14)
(0.13604 -1.26091e-07 2.61236e-14)
(0.13604 -1.27291e-07 2.61343e-14)
(0.13604 -1.27807e-07 2.61479e-14)
(0.13604 -1.23535e-07 2.60878e-14)
(0.13604 -1.2275e-07 2.617e-14)
(0.13604 -9.37649e-08 2.61555e-14)
(0.13604 7.41016e-08 2.60518e-14)
(0.13604 9.53948e-08 2.59617e-14)
(0.13604 1.02319e-07 2.60215e-14)
(0.13604 1.01039e-07 2.61331e-14)
(0.13604 9.46331e-08 2.60155e-14)
(0.13604 8.51697e-08 2.60701e-14)
(0.13604 7.38918e-08 2.59902e-14)
(0.13604 6.16363e-08 2.59782e-14)
(0.13604 4.90065e-08 2.61835e-14)
(0.13604 3.65161e-08 2.60623e-14)
(0.13604 2.4566e-08 2.61195e-14)
(0.13604 1.39211e-08 2.60412e-14)
(0.13604 4.60858e-09 2.60263e-14)
(0.13604 -3.83218e-11 2.61772e-14)
(0.13604 -6.92077e-09 2.60823e-14)
(0.13604 1.27871e-08 2.61299e-14)
(0.136781 5.2895e-08 2.64847e-14)
(0.136781 7.23888e-08 2.64804e-14)
(0.136781 8.01503e-08 2.64516e-14)
(0.136781 8.25743e-08 2.64609e-14)
(0.136781 8.20032e-08 2.63204e-14)
(0.136781 7.95036e-08 2.64845e-14)
(0.136781 7.54681e-08 2.63365e-14)
(0.136781 7.00656e-08 2.6356e-14)
(0.136781 6.34092e-08 2.63475e-14)
(0.136781 5.56605e-08 2.61816e-14)
(0.136781 4.70536e-08 2.62117e-14)
(0.136781 3.78308e-08 2.62789e-14)
(0.136781 2.82154e-08 2.63108e-14)
(0.136781 1.84322e-08 2.63949e-14)
(0.136781 8.68725e-09 2.63841e-14)
(0.136781 -8.91057e-10 2.63712e-14)
(0.136781 -1.0246e-08 2.64061e-14)
(0.136781 -1.93265e-08 2.6462e-14)
(0.136781 -2.80642e-08 2.65016e-14)
(0.136781 -3.63941e-08 2.65046e-14)
(0.136781 -4.42776e-08 2.64254e-14)
(0.136781 -5.1703e-08 2.64081e-14)
(0.136781 -5.86513e-08 2.63835e-14)
(0.136781 -6.5096e-08 2.63994e-14)
(0.136781 -7.10475e-08 2.64303e-14)
(0.136781 -7.65429e-08 2.64108e-14)
(0.136781 -8.15989e-08 2.64159e-14)
(0.136781 -8.62288e-08 2.64007e-14)
(0.136781 -9.04684e-08 2.63935e-14)
(0.136781 -9.43688e-08 2.64091e-14)
(0.136781 -9.80049e-08 2.63644e-14)
(0.136781 -1.01436e-07 2.63638e-14)
(0.136781 -1.04676e-07 2.63555e-14)
(0.136781 -1.07744e-07 2.63574e-14)
(0.136781 -1.10707e-07 2.63949e-14)
(0.136781 -1.13611e-07 2.63517e-14)
(0.136781 -1.16475e-07 2.63728e-14)
(0.136781 -1.19268e-07 2.63709e-14)
(0.136781 -1.21894e-07 2.63784e-14)
(0.136781 -1.24217e-07 2.64039e-14)
(0.136781 -1.2566e-07 2.64e-14)