/*--------------------------------*- C++ -*----------------------------------*\
  =========                 |
  \\      /  F ield         | OpenFOAM: The Open Source CFD Toolbox
   \\    /   O peration     | Website:  https://openfoam.org
    \\  /    A nd           | Version:  7
     \\/     M anipulation  |
\*---------------------------------------------------------------------------*/
FoamFile
{
    version     2.0;
    format      ascii;
    class       volScalarField;
    location    "2000";
    object      nut;
}
// * * * * * * * * * * * * * * * * * * * * * * * * * * * * * * * * * * * * * //

dimensions      [0 2 -1 0 0 0 0];

internalField   nonuniform List<scalar> 
3974
(
0.000228465
0.00022846
0.000228457
0.000228455
0.000228452
0.00022845
0.000228447
0.000228445
0.000228443
0.000228442
0.00022844
0.000228438
0.000228436
0.000228434
0.000228433
0.000228431
0.000228429
0.000228427
0.000228426
0.000228424
0.000228422
0.00022842
0.000228418
0.000228416
0.000228414
0.000228412
0.00022841
0.000228408
0.000228406
0.000228404
0.000228402
0.0002284
0.000228398
0.000228395
0.000228393
0.000228391
0.000228389
0.000228387
0.000239537
0.000239536
0.000239542
0.000239542
0.00023954
0.000239539
0.000239537
0.000239535
0.000239533
0.000239531
0.00023953
0.000239528
0.000239526
0.000239525
0.000239523
0.000239521
0.00023952
0.000239518
0.000239516
0.000239514
0.000239513
0.000239511
0.000239509
0.000239507
0.000239505
0.000239503
0.000239501
0.000239499
0.000239497
0.000239494
0.000239492
0.00023949
0.000239488
0.000239486
0.000239483
0.000239481
0.000239479
0.000239477
0.000239474
0.000239473
0.000239456
0.000239451
0.000250819
0.000250823
0.00025083
0.000250832
0.000250836
0.000250838
0.000250839
0.000250838
0.000250837
0.000250836
0.000250835
0.000250833
0.000250832
0.00025083
0.000250829
0.000250827
0.000250826
0.000250824
0.000250823
0.000250821
0.000250819
0.000250818
0.000250816
0.000250814
0.000250812
0.00025081
0.000250808
0.000250806
0.000250804
0.000250802
0.0002508
0.000250797
0.000250795
0.000250793
0.00025079
0.000250788
0.000250786
0.000250783
0.000250781
0.000250779
0.000250776
0.000250775
0.000250765
0.000250759
0.000250745
0.000250743
0.000250745
0.000250748
0.00025075
0.000250751
0.000250753
0.000250754
0.000250756
0.000250757
0.000250758
0.000250758
0.000250759
0.00025076
0.000250761
0.000262348
0.000262351
0.000262356
0.00026236
0.000262364
0.000262367
0.000262369
0.00026237
0.00026237
0.000262369
0.000262369
0.000262368
0.000262367
0.000262365
0.000262364
0.000262363
0.000262362
0.00026236
0.000262359
0.000262357
0.000262355
0.000262354
0.000262352
0.00026235
0.000262348
0.000262346
0.000262344
0.000262342
0.00026234
0.000262338
0.000262336
0.000262333
0.000262331
0.000262329
0.000262326
0.000262324
0.000262321
0.000262319
0.000262316
0.000262314
0.000262311
0.000262309
0.000262303
0.000262297
0.000262287
0.000262282
0.00026228
0.000262281
0.000262281
0.000262282
0.000262283
0.000262284
0.000262284
0.000262285
0.000262285
0.000262286
0.000262286
0.000262286
0.000262287
0.000274128
0.000274131
0.000274135
0.00027414
0.000274144
0.000274147
0.00027415
0.000274151
0.000274152
0.000274152
0.000274152
0.000274152
0.000274151
0.00027415
0.000274149
0.000274148
0.000274147
0.000274146
0.000274145
0.000274143
0.000274142
0.00027414
0.000274138
0.000274136
0.000274135
0.000274133
0.000274131
0.000274128
0.000274126
0.000274124
0.000274122
0.000274119
0.000274117
0.000274114
0.000274112
0.000274109
0.000274107
0.000274104
0.000274101
0.000274099
0.000274096
0.000274094
0.000274089
0.000274084
0.000274077
0.00027407
0.000274066
0.000274064
0.000274064
0.000274063
0.000274063
0.000274063
0.000274063
0.000274063
0.000274063
0.000274063
0.000274063
0.000274063
0.000274063
0.000286178
0.000286181
0.000286185
0.000286189
0.000286193
0.000286196
0.000286199
0.000286201
0.000286203
0.000286204
0.000286204
0.000286204
0.000286204
0.000286204
0.000286203
0.000286202
0.000286201
0.0002862
0.000286199
0.000286197
0.000286196
0.000286194
0.000286193
0.000286191
0.000286189
0.000286187
0.000286185
0.000286183
0.000286181
0.000286179
0.000286176
0.000286174
0.000286171
0.000286169
0.000286166
0.000286163
0.000286161
0.000286158
0.000286155
0.000286152
0.000286149
0.000286147
0.000286143
0.000286139
0.000286133
0.000286126
0.000286121
0.000286118
0.000286116
0.000286114
0.000286113
0.000286112
0.000286111
0.00028611
0.00028611
0.000286109
0.000286108
0.000286108
0.000286107
0.000298518
0.000298522
0.000298525
0.000298528
0.000298532
0.000298535
0.000298538
0.00029854
0.000298542
0.000298544
0.000298545
0.000298545
0.000298545
0.000298545
0.000298545
0.000298544
0.000298543
0.000298542
0.000298541
0.00029854
0.000298539
0.000298537
0.000298536
0.000298534
0.000298532
0.00029853
0.000298528
0.000298526
0.000298524
0.000298521
0.000298519
0.000298516
0.000298514
0.000298511
0.000298508
0.000298506
0.000298503
0.0002985
0.000298497
0.000298494
0.000298491
0.000298488
0.000298485
0.000298481
0.000298476
0.00029847
0.000298464
0.00029846
0.000298457
0.000298454
0.000298452
0.00029845
0.000298448
0.000298447
0.000298445
0.000298444
0.000298443
0.000298442
0.000298439
0.000311168
0.000311173
0.000311176
0.000311179
0.000311182
0.000311185
0.000311187
0.00031119
0.000311192
0.000311193
0.000311195
0.000311195
0.000311196
0.000311196
0.000311196
0.000311195
0.000311195
0.000311194
0.000311193
0.000311192
0.00031119
0.000311189
0.000311187
0.000311186
0.000311184
0.000311182
0.00031118
0.000311178
0.000311175
0.000311173
0.000311171
0.000311168
0.000311165
0.000311163
0.00031116
0.000311157
0.000311154
0.000311151
0.000311148
0.000311145
0.000311141
0.000311138
0.000311135
0.000311131
0.000311127
0.000311121
0.000311116
0.000311111
0.000311107
0.000311103
0.0003111
0.000311097
0.000311095
0.000311093
0.000311091
0.000311089
0.000311087
0.000311086
0.000311081
0.000324151
0.000324158
0.000324161
0.000324163
0.000324165
0.000324168
0.00032417
0.000324172
0.000324174
0.000324176
0.000324177
0.000324178
0.000324178
0.000324179
0.000324178
0.000324178
0.000324178
0.000324177
0.000324176
0.000324175
0.000324174
0.000324172
0.000324171
0.000324169
0.000324167
0.000324165
0.000324163
0.000324161
0.000324159
0.000324156
0.000324154
0.000324151
0.000324148
0.000324146
0.000324143
0.00032414
0.000324137
0.000324133
0.00032413
0.000324127
0.000324123
0.00032412
0.000324116
0.000324113
0.000324108
0.000324104
0.000324098
0.000324093
0.000324089
0.000324084
0.00032408
0.000324077
0.000324074
0.000324071
0.000324068
0.000324065
0.000324063
0.000324061
0.000324054
0.00033749
0.000337499
0.000337502
0.000337504
0.000337505
0.000337507
0.000337509
0.000337511
0.000337513
0.000337514
0.000337515
0.000337516
0.000337517
0.000337517
0.000337517
0.000337517
0.000337516
0.000337516
0.000337515
0.000337514
0.000337512
0.000337511
0.000337509
0.000337508
0.000337506
0.000337504
0.000337502
0.000337499
0.000337497
0.000337495
0.000337492
0.000337489
0.000337486
0.000337483
0.00033748
0.000337477
0.000337474
0.000337471
0.000337467
0.000337464
0.00033746
0.000337457
0.000337453
0.000337449
0.000337445
0.00033744
0.000337435
0.00033743
0.000337425
0.00033742
0.000337416
0.000337411
0.000337408
0.000337404
0.0003374
0.000337397
0.000337394
0.000337392
0.000337382
0.000351211
0.000351222
0.000351225
0.000351226
0.000351227
0.000351229
0.00035123
0.000351231
0.000351233
0.000351234
0.000351235
0.000351235
0.000351236
0.000351236
0.000351236
0.000351236
0.000351235
0.000351234
0.000351233
0.000351232
0.000351231
0.00035123
0.000351228
0.000351226
0.000351224
0.000351222
0.00035122
0.000351218
0.000351215
0.000351212
0.00035121
0.000351207
0.000351204
0.000351201
0.000351198
0.000351194
0.000351191
0.000351187
0.000351184
0.00035118
0.000351176
0.000351173
0.000351169
0.000351165
0.00035116
0.000351156
0.000351151
0.000351146
0.00035114
0.000351135
0.00035113
0.000351126
0.000351121
0.000351117
0.000351113
0.000351109
0.000351104
0.000351102
0.00035109
0.000365338
0.000365352
0.000365356
0.000365356
0.000365357
0.000365358
0.000365358
0.000365359
0.00036536
0.00036536
0.000365361
0.000365361
0.000365362
0.000365362
0.000365361
0.000365361
0.00036536
0.000365359
0.000365358
0.000365357
0.000365356
0.000365354
0.000365352
0.00036535
0.000365348
0.000365346
0.000365344
0.000365341
0.000365339
0.000365336
0.000365333
0.00036533
0.000365327
0.000365324
0.00036532
0.000365317
0.000365313
0.000365309
0.000365306
0.000365302
0.000365298
0.000365294
0.00036529
0.000365285
0.000365281
0.000365276
0.000365271
0.000365266
0.000365261
0.000365255
0.00036525
0.000365245
0.00036524
0.000365235
0.00036523
0.000365225
0.00036522
0.000365218
0.000365203
0.000379899
0.000379917
0.00037992
0.000379921
0.000379921
0.000379921
0.000379921
0.000379921
0.000379921
0.000379921
0.000379921
0.000379921
0.000379921
0.000379921
0.00037992
0.000379919
0.000379918
0.000379917
0.000379916
0.000379914
0.000379913
0.000379911
0.000379909
0.000379907
0.000379905
0.000379902
0.0003799
0.000379897
0.000379894
0.000379891
0.000379888
0.000379885
0.000379882
0.000379878
0.000379875
0.000379871
0.000379867
0.000379864
0.00037986
0.000379855
0.000379851
0.000379847
0.000379843
0.000379838
0.000379834
0.000379829
0.000379824
0.000379818
0.000379813
0.000379807
0.000379801
0.000379796
0.00037979
0.000379785
0.000379779
0.000379774
0.000379768
0.000379766
0.000379747
0.000394922
0.000394943
0.000394947
0.000394947
0.000394947
0.000394946
0.000394945
0.000394945
0.000394944
0.000394944
0.000394943
0.000394942
0.000394942
0.000394941
0.00039494
0.000394939
0.000394937
0.000394936
0.000394934
0.000394932
0.00039493
0.000394928
0.000394926
0.000394924
0.000394921
0.000394919
0.000394916
0.000394913
0.00039491
0.000394907
0.000394904
0.0003949
0.000394897
0.000394893
0.000394889
0.000394885
0.000394881
0.000394877
0.000394873
0.000394869
0.000394864
0.00039486
0.000394855
0.00039485
0.000394845
0.00039484
0.000394835
0.00039483
0.000394824
0.000394818
0.000394812
0.000394806
0.0003948
0.000394794
0.000394788
0.000394782
0.000394776
0.000394773
0.000394751
0.000410435
0.000410461
0.000410465
0.000410464
0.000410463
0.000410462
0.00041046
0.000410459
0.000410458
0.000410456
0.000410455
0.000410454
0.000410452
0.000410451
0.000410449
0.000410447
0.000410446
0.000410444
0.000410442
0.000410439
0.000410437
0.000410435
0.000410432
0.000410429
0.000410426
0.000410423
0.00041042
0.000410417
0.000410414
0.00041041
0.000410407
0.000410403
0.000410399
0.000410395
0.000410391
0.000410387
0.000410383
0.000410379
0.000410374
0.00041037
0.000410365
0.00041036
0.000410355
0.00041035
0.000410345
0.00041034
0.000410334
0.000410328
0.000410323
0.000410316
0.00041031
0.000410304
0.000410297
0.000410291
0.000410284
0.000410278
0.000410271
0.000410268
0.000410242
0.000426468
0.000426497
0.000426502
0.000426501
0.000426499
0.000426497
0.000426495
0.000426492
0.00042649
0.000426488
0.000426486
0.000426484
0.000426482
0.000426479
0.000426477
0.000426475
0.000426472
0.00042647
0.000426467
0.000426464
0.000426462
0.000426459
0.000426456
0.000426452
0.000426449
0.000426446
0.000426442
0.000426439
0.000426435
0.000426431
0.000426427
0.000426423
0.000426419
0.000426415
0.000426411
0.000426406
0.000426401
0.000426397
0.000426392
0.000426387
0.000426382
0.000426377
0.000426372
0.000426366
0.000426361
0.000426355
0.00042635
0.000426344
0.000426337
0.000426331
0.000426324
0.000426318
0.000426311
0.000426304
0.000426297
0.00042629
0.000426282
0.00042628
0.00042625
0.000443049
0.000443083
0.000443088
0.000443087
0.000443084
0.000443081
0.000443078
0.000443074
0.000443071
0.000443068
0.000443065
0.000443062
0.000443059
0.000443056
0.000443053
0.00044305
0.000443047
0.000443043
0.00044304
0.000443037
0.000443033
0.00044303
0.000443026
0.000443022
0.000443018
0.000443015
0.000443011
0.000443007
0.000443002
0.000442998
0.000442994
0.000442989
0.000442985
0.00044298
0.000442976
0.000442971
0.000442966
0.000442961
0.000442956
0.00044295
0.000442945
0.00044294
0.000442934
0.000442928
0.000442923
0.000442917
0.000442911
0.000442904
0.000442898
0.000442891
0.000442884
0.000442877
0.00044287
0.000442862
0.000442855
0.000442848
0.000442839
0.000442837
0.000442802
0.000460207
0.000460247
0.000460252
0.00046025
0.000460247
0.000460243
0.000460239
0.000460234
0.00046023
0.000460226
0.000460222
0.000460218
0.000460214
0.00046021
0.000460206
0.000460202
0.000460198
0.000460194
0.00046019
0.000460186
0.000460181
0.000460177
0.000460173
0.000460168
0.000460164
0.000460159
0.000460155
0.00046015
0.000460145
0.000460141
0.000460136
0.000460131
0.000460126
0.000460121
0.000460116
0.000460111
0.000460105
0.0004601
0.000460094
0.000460089
0.000460083
0.000460077
0.000460071
0.000460065
0.000460059
0.000460053
0.000460046
0.000460039
0.000460033
0.000460026
0.000460018
0.000460011
0.000460003
0.000459995
0.000459987
0.000459979
0.00045997
0.000459968
0.000459929
0.000477973
0.000478018
0.000478024
0.000478021
0.000478017
0.000478012
0.000478007
0.000478001
0.000477996
0.000477991
0.000477986
0.000477981
0.000477975
0.00047797
0.000477965
0.00047796
0.000477955
0.00047795
0.000477945
0.00047794
0.000477935
0.00047793
0.000477924
0.000477919
0.000477914
0.000477909
0.000477904
0.000477898
0.000477893
0.000477888
0.000477882
0.000477877
0.000477871
0.000477866
0.00047786
0.000477854
0.000477849
0.000477843
0.000477837
0.000477831
0.000477824
0.000477818
0.000477812
0.000477805
0.000477799
0.000477792
0.000477785
0.000477778
0.000477771
0.000477764
0.000477756
0.000477748
0.00047774
0.000477732
0.000477723
0.000477715
0.000477705
0.000477703
0.000477659
0.000496374
0.000496425
0.000496432
0.000496428
0.000496422
0.000496416
0.00049641
0.000496403
0.000496397
0.00049639
0.000496384
0.000496378
0.000496371
0.000496365
0.000496359
0.000496353
0.000496346
0.00049634
0.000496334
0.000496328
0.000496322
0.000496316
0.00049631
0.000496304
0.000496298
0.000496292
0.000496286
0.00049628
0.000496274
0.000496267
0.000496261
0.000496255
0.000496249
0.000496243
0.000496237
0.00049623
0.000496224
0.000496218
0.000496211
0.000496205
0.000496198
0.000496191
0.000496184
0.000496177
0.00049617
0.000496163
0.000496156
0.000496149
0.000496141
0.000496133
0.000496125
0.000496117
0.000496108
0.000496099
0.00049609
0.000496081
0.000496071
0.000496069
0.00049602
0.000515437
0.000515496
0.000515503
0.000515498
0.000515491
0.000515484
0.000515476
0.000515468
0.00051546
0.000515453
0.000515445
0.000515437
0.00051543
0.000515422
0.000515414
0.000515407
0.0005154
0.000515392
0.000515385
0.000515378
0.00051537
0.000515363
0.000515356
0.000515349
0.000515342
0.000515335
0.000515328
0.000515321
0.000515314
0.000515307
0.000515301
0.000515294
0.000515287
0.00051528
0.000515273
0.000515266
0.000515259
0.000515252
0.000515245
0.000515238
0.000515231
0.000515223
0.000515216
0.000515209
0.000515201
0.000515194
0.000515186
0.000515178
0.00051517
0.000515162
0.000515153
0.000515144
0.000515135
0.000515126
0.000515116
0.000515107
0.000515095
0.000515094
0.00051504
0.000535189
0.000535255
0.000535263
0.000535257
0.000535249
0.00053524
0.000535231
0.000535222
0.000535212
0.000535203
0.000535194
0.000535185
0.000535176
0.000535167
0.000535158
0.000535149
0.00053514
0.000535131
0.000535123
0.000535114
0.000535106
0.000535097
0.000535089
0.000535081
0.000535073
0.000535065
0.000535057
0.000535049
0.000535041
0.000535033
0.000535025
0.000535018
0.00053501
0.000535002
0.000534995
0.000534987
0.000534979
0.000534972
0.000534964
0.000534956
0.000534948
0.000534941
0.000534933
0.000534925
0.000534917
0.000534909
0.0005349
0.000534892
0.000534883
0.000534875
0.000534866
0.000534856
0.000534847
0.000534837
0.000534827
0.000534817
0.000534805
0.000534803
0.000534744
0.000555654
0.000555727
0.000555736
0.000555729
0.000555719
0.000555709
0.000555699
0.000555688
0.000555677
0.000555666
0.000555655
0.000555645
0.000555634
0.000555623
0.000555613
0.000555602
0.000555592
0.000555582
0.000555572
0.000555562
0.000555552
0.000555542
0.000555533
0.000555523
0.000555514
0.000555505
0.000555495
0.000555486
0.000555478
0.000555469
0.00055546
0.000555451
0.000555443
0.000555434
0.000555426
0.000555417
0.000555409
0.0005554
0.000555392
0.000555384
0.000555375
0.000555367
0.000555358
0.00055535
0.000555341
0.000555332
0.000555323
0.000555315
0.000555305
0.000555296
0.000555286
0.000555277
0.000555267
0.000555256
0.000555246
0.000555235
0.000555222
0.000555221
0.000555156
0.000576852
0.000576934
0.000576943
0.000576935
0.000576924
0.000576912
0.0005769
0.000576887
0.000576874
0.000576862
0.00057685
0.000576837
0.000576825
0.000576813
0.000576801
0.000576789
0.000576777
0.000576765
0.000576753
0.000576742
0.000576731
0.000576719
0.000576708
0.000576697
0.000576687
0.000576676
0.000576666
0.000576655
0.000576645
0.000576635
0.000576625
0.000576616
0.000576606
0.000576597
0.000576587
0.000576578
0.000576569
0.000576559
0.00057655
0.000576541
0.000576532
0.000576523
0.000576513
0.000576504
0.000576495
0.000576486
0.000576476
0.000576467
0.000576457
0.000576447
0.000576437
0.000576427
0.000576416
0.000576405
0.000576394
0.000576383
0.000576369
0.000576368
0.000576297
0.000598803
0.000598893
0.000598902
0.000598893
0.000598881
0.000598867
0.000598853
0.000598839
0.000598824
0.00059881
0.000598796
0.000598782
0.000598768
0.000598753
0.000598739
0.000598726
0.000598712
0.000598699
0.000598685
0.000598672
0.000598659
0.000598646
0.000598634
0.000598621
0.000598609
0.000598597
0.000598585
0.000598574
0.000598562
0.000598551
0.00059854
0.000598529
0.000598518
0.000598508
0.000598497
0.000598487
0.000598477
0.000598467
0.000598457
0.000598447
0.000598437
0.000598427
0.000598417
0.000598407
0.000598397
0.000598387
0.000598377
0.000598367
0.000598356
0.000598346
0.000598335
0.000598324
0.000598313
0.000598302
0.00059829
0.000598278
0.000598264
0.000598263
0.000598186
0.000621519
0.000621619
0.000621629
0.000621618
0.000621604
0.000621588
0.000621572
0.000621556
0.000621539
0.000621523
0.000621507
0.000621491
0.000621475
0.000621459
0.000621443
0.000621428
0.000621412
0.000621397
0.000621382
0.000621367
0.000621352
0.000621338
0.000621323
0.000621309
0.000621295
0.000621282
0.000621269
0.000621255
0.000621243
0.00062123
0.000621218
0.000621206
0.000621194
0.000621182
0.00062117
0.000621159
0.000621148
0.000621137
0.000621126
0.000621115
0.000621104
0.000621093
0.000621082
0.000621072
0.000621061
0.00062105
0.000621039
0.000621029
0.000621018
0.000621007
0.000620995
0.000620984
0.000620972
0.00062096
0.000620948
0.000620935
0.00062092
0.00062092
0.000620837
0.000645012
0.000645121
0.000645131
0.000645119
0.000645103
0.000645085
0.000645067
0.000645049
0.000645031
0.000645012
0.000644994
0.000644976
0.000644958
0.00064494
0.000644922
0.000644905
0.000644887
0.00064487
0.000644853
0.000644836
0.00064482
0.000644803
0.000644787
0.000644771
0.000644756
0.00064474
0.000644725
0.000644711
0.000644696
0.000644682
0.000644669
0.000644655
0.000644642
0.000644629
0.000644616
0.000644604
0.000644591
0.000644579
0.000644567
0.000644555
0.000644543
0.000644531
0.00064452
0.000644508
0.000644497
0.000644485
0.000644474
0.000644462
0.000644451
0.000644439
0.000644427
0.000644415
0.000644402
0.00064439
0.000644377
0.000644364
0.000644348
0.000644348
0.000644259
0.000669284
0.000669403
0.000669414
0.000669401
0.000669382
0.000669363
0.000669343
0.000669322
0.000669302
0.000669281
0.000669261
0.000669241
0.000669221
0.000669201
0.000669181
0.000669161
0.000669141
0.000669122
0.000669103
0.000669084
0.000669066
0.000669047
0.000669029
0.000669011
0.000668994
0.000668977
0.00066896
0.000668944
0.000668928
0.000668912
0.000668897
0.000668882
0.000668868
0.000668853
0.000668839
0.000668825
0.000668812
0.000668798
0.000668785
0.000668772
0.000668759
0.000668747
0.000668734
0.000668722
0.000668709
0.000668697
0.000668685
0.000668672
0.00066866
0.000668648
0.000668635
0.000668622
0.000668609
0.000668596
0.000668582
0.000668569
0.000668552
0.000668552
0.000668457
0.000694335
0.000694465
0.000694476
0.000694461
0.000694441
0.000694419
0.000694397
0.000694374
0.000694351
0.000694328
0.000694306
0.000694283
0.000694261
0.000694239
0.000694217
0.000694195
0.000694173
0.000694151
0.00069413
0.000694109
0.000694089
0.000694068
0.000694048
0.000694029
0.000694009
0.00069399
0.000693972
0.000693954
0.000693936
0.000693919
0.000693902
0.000693885
0.000693869
0.000693853
0.000693838
0.000693823
0.000693808
0.000693793
0.000693779
0.000693765
0.000693751
0.000693737
0.000693723
0.00069371
0.000693697
0.000693684
0.000693671
0.000693658
0.000693645
0.000693631
0.000693618
0.000693605
0.000693591
0.000693577
0.000693563
0.000693549
0.000693531
0.000693531
0.00069343
0.000720157
0.000720297
0.000720309
0.000720292
0.000720269
0.000720245
0.000720221
0.000720196
0.00072017
0.000720145
0.00072012
0.000720096
0.000720071
0.000720046
0.000720022
0.000719998
0.000719974
0.00071995
0.000719927
0.000719904
0.000719881
0.000719858
0.000719836
0.000719814
0.000719793
0.000719772
0.000719752
0.000719732
0.000719712
0.000719693
0.000719674
0.000719656
0.000719639
0.000719621
0.000719604
0.000719588
0.000719571
0.000719555
0.00071954
0.000719524
0.000719509
0.000719495
0.00071948
0.000719466
0.000719452
0.000719437
0.000719424
0.00071941
0.000719396
0.000719382
0.000719368
0.000719354
0.000719339
0.000719325
0.00071931
0.000719295
0.000719277
0.000719277
0.00071917
0.000746733
0.000746884
0.000746896
0.000746878
0.000746853
0.000746826
0.000746799
0.000746772
0.000746744
0.000746716
0.000746689
0.000746662
0.000746635
0.000746608
0.000746581
0.000746555
0.000746528
0.000746502
0.000746477
0.000746451
0.000746426
0.000746401
0.000746377
0.000746353
0.00074633
0.000746307
0.000746284
0.000746262
0.000746241
0.00074622
0.0007462
0.00074618
0.00074616
0.000746141
0.000746123
0.000746105
0.000746087
0.00074607
0.000746053
0.000746036
0.00074602
0.000746004
0.000745988
0.000745973
0.000745958
0.000745943
0.000745928
0.000745913
0.000745899
0.000745884
0.000745869
0.000745854
0.000745839
0.000745824
0.000745808
0.000745793
0.000745774
0.000745774
0.000745662
0.00077404
0.000774201
0.000774215
0.000774194
0.000774166
0.000774138
0.000774108
0.000774078
0.000774048
0.000774018
0.000773988
0.000773959
0.000773929
0.0007739
0.000773871
0.000773841
0.000773813
0.000773784
0.000773756
0.000773729
0.000773701
0.000773674
0.000773648
0.000773622
0.000773596
0.000773571
0.000773546
0.000773522
0.000773499
0.000773476
0.000773454
0.000773432
0.000773411
0.000773391
0.00077337
0.000773351
0.000773332
0.000773313
0.000773295
0.000773277
0.000773259
0.000773242
0.000773225
0.000773209
0.000773193
0.000773177
0.000773161
0.000773145
0.00077313
0.000773114
0.000773099
0.000773083
0.000773067
0.000773052
0.000773035
0.000773019
0.000772999
0.000773
0.000772883
0.000802044
0.000802217
0.000802231
0.000802208
0.000802178
0.000802147
0.000802115
0.000802083
0.00080205
0.000802017
0.000801985
0.000801953
0.000801921
0.000801889
0.000801857
0.000801826
0.000801795
0.000801764
0.000801734
0.000801703
0.000801674
0.000801645
0.000801616
0.000801587
0.00080156
0.000801532
0.000801506
0.00080148
0.000801454
0.000801429
0.000801405
0.000801382
0.000801359
0.000801336
0.000801315
0.000801293
0.000801273
0.000801253
0.000801233
0.000801214
0.000801195
0.000801176
0.000801158
0.000801141
0.000801124
0.000801107
0.00080109
0.000801073
0.000801057
0.000801041
0.000801025
0.000801008
0.000800992
0.000800975
0.000800958
0.000800942
0.000800921
0.000800921
0.0008008
0.000830706
0.000830889
0.000830903
0.000830879
0.000830847
0.000830813
0.000830778
0.000830743
0.000830708
0.000830673
0.000830638
0.000830604
0.000830569
0.000830535
0.000830501
0.000830467
0.000830433
0.0008304
0.000830367
0.000830334
0.000830302
0.000830271
0.00083024
0.000830209
0.000830179
0.000830149
0.000830121
0.000830092
0.000830065
0.000830038
0.000830012
0.000829987
0.000829962
0.000829938
0.000829914
0.000829892
0.000829869
0.000829848
0.000829827
0.000829806
0.000829786
0.000829766
0.000829747
0.000829728
0.00082971
0.000829692
0.000829674
0.000829657
0.00082964
0.000829623
0.000829606
0.000829589
0.000829572
0.000829554
0.000829537
0.00082952
0.000829498
0.000829498
0.000829373
0.000859973
0.000860167
0.000860181
0.000860155
0.00086012
0.000860084
0.000860047
0.000860009
0.000859971
0.000859934
0.000859896
0.000859859
0.000859823
0.000859786
0.000859749
0.000859712
0.000859676
0.000859641
0.000859605
0.00085957
0.000859536
0.000859502
0.000859469
0.000859436
0.000859404
0.000859372
0.000859341
0.000859311
0.000859281
0.000859252
0.000859224
0.000859197
0.00085917
0.000859144
0.000859119
0.000859095
0.000859071
0.000859048
0.000859025
0.000859003
0.000858982
0.000858961
0.00085894
0.000858921
0.000858901
0.000858882
0.000858864
0.000858845
0.000858827
0.000858809
0.000858792
0.000858774
0.000858756
0.000858738
0.00085872
0.000858702
0.000858681
0.00085868
0.000858551
0.000889784
0.000889989
0.000890003
0.000889975
0.000889938
0.000889899
0.00088986
0.00088982
0.000889779
0.000889739
0.000889699
0.00088966
0.00088962
0.000889581
0.000889542
0.000889503
0.000889464
0.000889426
0.000889389
0.000889351
0.000889315
0.000889278
0.000889243
0.000889208
0.000889173
0.000889139
0.000889106
0.000889073
0.000889042
0.000889011
0.000888981
0.000888952
0.000888923
0.000888896
0.000888869
0.000888843
0.000888817
0.000888793
0.000888769
0.000888745
0.000888723
0.0008887
0.000888679
0.000888658
0.000888637
0.000888617
0.000888598
0.000888578
0.00088856
0.000888541
0.000888522
0.000888504
0.000888486
0.000888467
0.000888449
0.00088843
0.000888408
0.000888407
0.000888276
0.00092007
0.000920285
0.000920299
0.000920269
0.00092023
0.000920188
0.000920146
0.000920104
0.000920061
0.000920019
0.000919976
0.000919934
0.000919893
0.000919851
0.000919809
0.000919768
0.000919727
0.000919686
0.000919646
0.000919607
0.000919568
0.000919529
0.000919491
0.000919454
0.000919417
0.000919381
0.000919346
0.000919311
0.000919278
0.000919245
0.000919213
0.000919182
0.000919152
0.000919122
0.000919094
0.000919066
0.000919039
0.000919013
0.000918987
0.000918963
0.000918939
0.000918915
0.000918892
0.00091887
0.000918849
0.000918828
0.000918807
0.000918787
0.000918767
0.000918748
0.000918729
0.00091871
0.000918691
0.000918672
0.000918653
0.000918634
0.000918611
0.00091861
0.000918476
0.000950751
0.000950974
0.000950989
0.000950957
0.000950915
0.000950871
0.000950827
0.000950782
0.000950737
0.000950692
0.000950648
0.000950603
0.000950559
0.000950515
0.000950471
0.000950428
0.000950384
0.000950342
0.000950299
0.000950258
0.000950216
0.000950176
0.000950135
0.000950096
0.000950057
0.000950019
0.000949982
0.000949945
0.000949909
0.000949875
0.000949841
0.000949808
0.000949776
0.000949745
0.000949714
0.000949685
0.000949657
0.000949629
0.000949602
0.000949576
0.000949551
0.000949526
0.000949502
0.000949479
0.000949456
0.000949434
0.000949413
0.000949392
0.000949371
0.000949351
0.000949331
0.000949312
0.000949292
0.000949273
0.000949253
0.000949234
0.000949211
0.000949209
0.000949074
0.000981736
0.000981968
0.000981983
0.000981949
0.000981905
0.000981859
0.000981813
0.000981766
0.000981719
0.000981671
0.000981625
0.000981578
0.000981532
0.000981485
0.000981439
0.000981394
0.000981348
0.000981303
0.000981259
0.000981215
0.000981171
0.000981129
0.000981086
0.000981045
0.000981004
0.000980964
0.000980924
0.000980886
0.000980848
0.000980812
0.000980776
0.000980741
0.000980707
0.000980675
0.000980643
0.000980612
0.000980582
0.000980553
0.000980525
0.000980497
0.000980471
0.000980445
0.00098042
0.000980395
0.000980372
0.000980349
0.000980327
0.000980305
0.000980284
0.000980263
0.000980242
0.000980222
0.000980202
0.000980182
0.000980162
0.000980143
0.000980119
0.000980117
0.000979982
0.00101293
0.00101317
0.00101318
0.00101315
0.0010131
0.00101306
0.00101301
0.00101296
0.00101291
0.00101286
0.00101281
0.00101276
0.00101271
0.00101266
0.00101262
0.00101257
0.00101252
0.00101247
0.00101243
0.00101238
0.00101234
0.00101229
0.00101225
0.0010122
0.00101216
0.00101212
0.00101208
0.00101204
0.001012
0.00101196
0.00101192
0.00101189
0.00101185
0.00101182
0.00101178
0.00101175
0.00101172
0.00101169
0.00101166
0.00101163
0.0010116
0.00101158
0.00101155
0.00101152
0.0010115
0.00101148
0.00101145
0.00101143
0.00101141
0.00101139
0.00101137
0.00101134
0.00101132
0.0010113
0.00101128
0.00101126
0.00101124
0.00101124
0.0010111
0.00104423
0.00104447
0.00104449
0.00104445
0.0010444
0.00104435
0.0010443
0.00104425
0.0010442
0.00104415
0.0010441
0.00104405
0.001044
0.00104395
0.0010439
0.00104385
0.0010438
0.00104375
0.0010437
0.00104365
0.00104361
0.00104356
0.00104351
0.00104347
0.00104342
0.00104338
0.00104334
0.0010433
0.00104325
0.00104321
0.00104317
0.00104314
0.0010431
0.00104306
0.00104303
0.001043
0.00104296
0.00104293
0.0010429
0.00104287
0.00104284
0.00104281
0.00104279
0.00104276
0.00104273
0.00104271
0.00104269
0.00104266
0.00104264
0.00104262
0.0010426
0.00104258
0.00104255
0.00104253
0.00104251
0.00104249
0.00104247
0.00104247
0.00104233
0.00107552
0.00107577
0.00107578
0.00107574
0.0010757
0.00107564
0.00107559
0.00107554
0.00107549
0.00107543
0.00107538
0.00107533
0.00107528
0.00107522
0.00107517
0.00107512
0.00107507
0.00107502
0.00107497
0.00107492
0.00107487
0.00107482
0.00107478
0.00107473
0.00107468
0.00107464
0.00107459
0.00107455
0.00107451
0.00107446
0.00107442
0.00107438
0.00107435
0.00107431
0.00107427
0.00107424
0.0010742
0.00107417
0.00107414
0.00107411
0.00107408
0.00107405
0.00107402
0.00107399
0.00107397
0.00107394
0.00107392
0.00107389
0.00107387
0.00107385
0.00107383
0.0010738
0.00107378
0.00107376
0.00107374
0.00107372
0.0010737
0.00107369
0.00107356
0.00110668
0.00110694
0.00110695
0.00110691
0.00110686
0.00110681
0.00110675
0.0011067
0.00110665
0.00110659
0.00110654
0.00110648
0.00110643
0.00110638
0.00110632
0.00110627
0.00110622
0.00110617
0.00110612
0.00110606
0.00110601
0.00110596
0.00110592
0.00110587
0.00110582
0.00110577
0.00110573
0.00110568
0.00110564
0.00110559
0.00110555
0.00110551
0.00110547
0.00110543
0.0011054
0.00110536
0.00110532
0.00110529
0.00110526
0.00110522
0.00110519
0.00110516
0.00110514