/*--------------------------------*- C++ -*----------------------------------*\
  =========                 |
  \\      /  F ield         | OpenFOAM: The Open Source CFD Toolbox
   \\    /   O peration     | Website:  https://openfoam.org
    \\  /    A nd           | Version:  7
     \\/     M anipulation  |
\*---------------------------------------------------------------------------*/
FoamFile
{
    version     2.0;
    format      ascii;
    class       volScalarField;
    location    "2000";
    object      omega;
}
// * * * * * * * * * * * * * * * * * * * * * * * * * * * * * * * * * * * * * //

dimensions      [0 0 -1 0 0 0 0];

internalField   nonuniform List<scalar> 
3974
(
0.654563
0.654575
0.654583
0.654589
0.654594
0.654598
0.654602
0.654605
0.654609
0.654612
0.654614
0.654617
0.65462
0.654622
0.654625
0.654627
0.65463
0.654632
0.654634
0.654637
0.654639
0.654641
0.654643
0.654646
0.654648
0.65465
0.654652
0.654654
0.654657
0.654659
0.65466
0.654662
0.654664
0.654666
0.654668
0.654669
0.654671
0.654674
0.617762
0.617769
0.617776
0.617784
0.617791
0.617796
0.617801
0.617805
0.617809
0.617813
0.617816
0.617819
0.617822
0.617824
0.617827
0.61783
0.617832
0.617834
0.617837
0.617839
0.617842
0.617844
0.617846
0.617849
0.617851
0.617853
0.617856
0.617858
0.61786
0.617862
0.617864
0.617867
0.617869
0.617871
0.617873
0.617874
0.617876
0.617878
0.61788
0.617882
0.617886
0.617885
0.583313
0.583306
0.583312
0.583317
0.583323
0.583329
0.583335
0.58334
0.583345
0.583349
0.583353
0.583357
0.58336
0.583363
0.583366
0.583369
0.583371
0.583374
0.583377
0.583379
0.583382
0.583384
0.583386
0.583389
0.583391
0.583394
0.583396
0.583398
0.583401
0.583403
0.583405
0.583408
0.58341
0.583412
0.583414
0.583416
0.583419
0.583421
0.583423
0.583425
0.583426
0.583429
0.583431
0.583432
0.58342
0.583409
0.583401
0.583395
0.58339
0.583386
0.583383
0.58338
0.583377
0.583375
0.583373
0.583372
0.583371
0.583369
0.583372
0.550981
0.550974
0.550975
0.550979
0.550984
0.550989
0.550995
0.551
0.551005
0.551009
0.551013
0.551016
0.55102
0.551023
0.551026
0.551029
0.551032
0.551034
0.551037
0.55104
0.551042
0.551045
0.551047
0.55105
0.551052
0.551055
0.551057
0.55106
0.551062
0.551064
0.551067
0.551069
0.551072
0.551074
0.551076
0.551078
0.551081
0.551083
0.551085
0.551087
0.551089
0.551091
0.551093
0.551094
0.551089
0.551081
0.551075
0.551069
0.551065
0.551062
0.551059
0.551057
0.551054
0.551053
0.551051
0.55105
0.551049
0.551048
0.551052
0.520568
0.520559
0.520559
0.520562
0.520566
0.520571
0.520576
0.520581
0.520586
0.52059
0.520594
0.520598
0.520602
0.520605
0.520608
0.520611
0.520614
0.520617
0.52062
0.520623
0.520625
0.520628
0.520631
0.520633
0.520636
0.520638
0.520641
0.520643
0.520646
0.520648
0.520651
0.520653
0.520656
0.520658
0.520661
0.520663
0.520665
0.520668
0.52067
0.520672
0.520674
0.520677
0.520678
0.52068
0.520677
0.520672
0.520667
0.520663
0.52066
0.520657
0.520654
0.520652
0.520651
0.520649
0.520648
0.520647
0.520647
0.520645
0.520652
0.491908
0.491898
0.491897
0.491899
0.491902
0.491907
0.491912
0.491916
0.491921
0.491926
0.49193
0.491934
0.491937
0.491941
0.491944
0.491948
0.491951
0.491954
0.491957
0.49196
0.491962
0.491965
0.491968
0.491971
0.491973
0.491976
0.491979
0.491981
0.491984
0.491987
0.491989
0.491992
0.491995
0.491997
0.492
0.492002
0.492005
0.492007
0.492009
0.492012
0.492014
0.492017
0.492018
0.49202
0.49202
0.492017
0.492013
0.49201
0.492007
0.492005
0.492003
0.492002
0.492
0.491999
0.491999
0.491998
0.491998
0.491996
0.492005
0.464855
0.464843
0.464841
0.464843
0.464846
0.46485
0.464855
0.464859
0.464864
0.464868
0.464873
0.464877
0.464881
0.464885
0.464888
0.464892
0.464895
0.464898
0.464901
0.464904
0.464907
0.46491
0.464913
0.464916
0.464919
0.464922
0.464925
0.464927
0.46493
0.464933
0.464936
0.464938
0.464941
0.464944
0.464946
0.464949
0.464952
0.464954
0.464957
0.464959
0.464962
0.464964
0.464966
0.464968
0.464969
0.464968
0.464966
0.464964
0.464962
0.46496
0.464959
0.464958
0.464957
0.464956
0.464956
0.464956
0.464956
0.464954
0.464965
0.439282
0.439267
0.439266
0.439267
0.43927
0.439274
0.439278
0.439282
0.439287
0.439291
0.439296
0.4393
0.439304
0.439308
0.439312
0.439315
0.439319
0.439322
0.439326
0.439329
0.439332
0.439335
0.439339
0.439342
0.439345
0.439348
0.43935
0.439353
0.439356
0.439359
0.439362
0.439365
0.439368
0.439371
0.439373
0.439376
0.439379
0.439381
0.439384
0.439387
0.439389
0.439392
0.439394
0.439397
0.439398
0.439399
0.439398
0.439397
0.439396
0.439395
0.439394
0.439393
0.439393
0.439393
0.439393
0.439393
0.439393
0.439392
0.439404
0.415076
0.41506
0.415058
0.41506
0.415062
0.415066
0.41507
0.415074
0.415079
0.415083
0.415087
0.415092
0.415096
0.4151
0.415104
0.415108
0.415112
0.415115
0.415119
0.415122
0.415126
0.415129
0.415132
0.415135
0.415139
0.415142
0.415145
0.415148
0.415151
0.415154
0.415157
0.41516
0.415163
0.415166
0.415169
0.415172
0.415174
0.415177
0.41518
0.415183
0.415186
0.415188
0.415191
0.415193
0.415196
0.415197
0.415197
0.415197
0.415197
0.415197
0.415196
0.415196
0.415196
0.415196
0.415197
0.415197
0.415198
0.415196
0.415211
0.392141
0.392123
0.392121
0.392122
0.392125
0.392129
0.392132
0.392137
0.392141
0.392145
0.39215
0.392154
0.392158
0.392163
0.392167
0.392171
0.392175
0.392179
0.392182
0.392186
0.392189
0.392193
0.392196
0.3922
0.392203
0.392206
0.39221
0.392213
0.392216
0.392219
0.392222
0.392225
0.392229
0.392232
0.392235
0.392238
0.392241
0.392244
0.392246
0.392249
0.392252
0.392255
0.392258
0.392261
0.392263
0.392265
0.392266
0.392267
0.392268
0.392268
0.392268
0.392269
0.392269
0.39227
0.392271
0.392271
0.392273
0.392271
0.392287
0.37039
0.370371
0.370368
0.37037
0.370373
0.370376
0.37038
0.370384
0.370388
0.370392
0.370397
0.370401
0.370406
0.37041
0.370414
0.370418
0.370423
0.370426
0.37043
0.370434
0.370438
0.370442
0.370445
0.370449
0.370452
0.370456
0.370459
0.370463
0.370466
0.370469
0.370472
0.370476
0.370479
0.370482
0.370485
0.370488
0.370491
0.370495
0.370498
0.370501
0.370504
0.370507
0.370509
0.370512
0.370515
0.370518
0.37052
0.370521
0.370522
0.370523
0.370524
0.370525
0.370526
0.370527
0.370528
0.370529
0.370531
0.370529
0.370547
0.349748
0.349727
0.349724
0.349726
0.349729
0.349733
0.349736
0.34974
0.349745
0.349749
0.349753
0.349758
0.349762
0.349767
0.349771
0.349775
0.349779
0.349784
0.349788
0.349792
0.349796
0.349799
0.349803
0.349807
0.349811
0.349814
0.349818
0.349821
0.349825
0.349828
0.349831
0.349835
0.349838
0.349841
0.349845
0.349848
0.349851
0.349854
0.349858
0.349861
0.349864
0.349867
0.34987
0.349873
0.349876
0.349879
0.349881
0.349883
0.349885
0.349887
0.349888
0.34989
0.349891
0.349892
0.349894
0.349895
0.349898
0.349896
0.349915
0.330148
0.330125
0.330122
0.330124
0.330128
0.330131
0.330135
0.330139
0.330143
0.330148
0.330152
0.330157
0.330161
0.330166
0.33017
0.330174
0.330179
0.330183
0.330187
0.330191
0.330195
0.330199
0.330203
0.330207
0.330211
0.330215
0.330218
0.330222
0.330226
0.330229
0.330233
0.330236
0.33024
0.330243
0.330246
0.33025
0.330253
0.330256
0.33026
0.330263
0.330266
0.330269
0.330273
0.330276
0.330279
0.330282
0.330285
0.330287
0.330289
0.330292
0.330294
0.330295
0.330297
0.330299
0.330301
0.330303
0.330305
0.330303
0.330324
0.311531
0.311507
0.311504
0.311506
0.311509
0.311513
0.311517
0.311521
0.311526
0.31153
0.311534
0.311539
0.311543
0.311548
0.311552
0.311557
0.311561
0.311566
0.31157
0.311574
0.311578
0.311583
0.311587
0.311591
0.311595
0.311599
0.311602
0.311606
0.31161
0.311614
0.311617
0.311621
0.311624
0.311628
0.311631
0.311635
0.311638
0.311642
0.311645
0.311648
0.311652
0.311655
0.311658
0.311661
0.311665
0.311668
0.311671
0.311674
0.311676
0.311679
0.311681
0.311684
0.311686
0.311688
0.31169
0.311692
0.311695
0.311694
0.311716
0.293844
0.293819
0.293816
0.293818
0.293822
0.293826
0.29383
0.293834
0.293839
0.293843
0.293847
0.293852
0.293857
0.293861
0.293866
0.29387
0.293875
0.293879
0.293884
0.293888
0.293892
0.293897
0.293901
0.293905
0.293909
0.293913
0.293917
0.293921
0.293925
0.293929
0.293932
0.293936
0.29394
0.293943
0.293947
0.29395
0.293954
0.293957
0.293961
0.293964
0.293968
0.293971
0.293974
0.293978
0.293981
0.293984
0.293988
0.293991
0.293994
0.293997
0.293999
0.294002
0.294004
0.294007
0.294009
0.294012
0.294015
0.294013
0.294037
0.277042
0.277015
0.277012
0.277014
0.277018
0.277023
0.277027
0.277031
0.277036
0.27704
0.277045
0.277049
0.277054
0.277059
0.277063
0.277068
0.277073
0.277077
0.277082
0.277086
0.27709
0.277095
0.277099
0.277103
0.277108
0.277112
0.277116
0.27712
0.277124
0.277128
0.277131
0.277135
0.277139
0.277143
0.277146
0.27715
0.277154
0.277157
0.277161
0.277164
0.277168
0.277171
0.277175
0.277178
0.277181
0.277185
0.277188
0.277191
0.277194
0.277198
0.277201
0.277203
0.277206
0.277209
0.277212
0.277214
0.277218
0.277217
0.277241
0.261081
0.261053
0.26105
0.261053
0.261057
0.261061
0.261066
0.26107
0.261075
0.261079
0.261084
0.261089
0.261094
0.261098
0.261103
0.261108
0.261112
0.261117
0.261122
0.261126
0.261131
0.261135
0.26114
0.261144
0.261148
0.261152
0.261157
0.261161
0.261165
0.261169
0.261173
0.261176
0.26118
0.261184
0.261188
0.261191
0.261195
0.261199
0.261202
0.261206
0.261209
0.261213
0.261216
0.26122
0.261223
0.261227
0.26123
0.261234
0.261237
0.26124
0.261243
0.261246
0.261249
0.261253
0.261256
0.261258
0.261262
0.261261
0.261286
0.245924
0.245895
0.245892
0.245895
0.2459
0.245904
0.245909
0.245914
0.245918
0.245923
0.245928
0.245933
0.245937
0.245942
0.245947
0.245952
0.245956
0.245961
0.245966
0.24597
0.245975
0.24598
0.245984
0.245989
0.245993
0.245997
0.246001
0.246006
0.24601
0.246014
0.246018
0.246022
0.246026
0.246029
0.246033
0.246037
0.246041
0.246044
0.246048
0.246052
0.246055
0.246059
0.246062
0.246066
0.246069
0.246073
0.246076
0.24608
0.246083
0.246086
0.24609
0.246093
0.246096
0.2461
0.246103
0.246106
0.24611
0.246108
0.246134
0.231537
0.231508
0.231505
0.231508
0.231512
0.231517
0.231522
0.231527
0.231532
0.231537
0.231541
0.231546
0.231551
0.231556
0.231561
0.231566
0.231571
0.231575
0.23158
0.231585
0.231589
0.231594
0.231599
0.231603
0.231608
0.231612
0.231616
0.23162
0.231625
0.231629
0.231633
0.231637
0.231641
0.231645
0.231649
0.231652
0.231656
0.23166
0.231664
0.231667
0.231671
0.231674
0.231678
0.231681
0.231685
0.231688
0.231692
0.231695
0.231699
0.231702
0.231706
0.231709
0.231712
0.231716
0.231719
0.231722
0.231726
0.231725
0.231751
0.217889
0.217858
0.217856
0.217859
0.217863
0.217868
0.217874
0.217879
0.217884
0.217889
0.217894
0.217899
0.217904
0.217909
0.217913
0.217918
0.217923
0.217928
0.217933
0.217938
0.217942
0.217947
0.217952
0.217956
0.217961
0.217965
0.217969
0.217974
0.217978
0.217982
0.217986
0.21799
0.217994
0.217998
0.218002
0.218006
0.21801
0.218013
0.218017
0.218021
0.218024
0.218028
0.218032
0.218035
0.218039
0.218042
0.218046
0.218049
0.218053
0.218056
0.21806
0.218063
0.218067
0.21807
0.218073
0.218077
0.218081
0.21808
0.218106
0.20495
0.204919
0.204916
0.204919
0.204924
0.204929
0.204935
0.20494
0.204945
0.20495
0.204955
0.20496
0.204965
0.20497
0.204975
0.20498
0.204985
0.20499
0.204995
0.205
0.205005
0.205009
0.205014
0.205019
0.205023
0.205028
0.205032
0.205036
0.205041
0.205045
0.205049
0.205053
0.205057
0.205061
0.205065
0.205069
0.205073
0.205076
0.20508
0.205084
0.205087
0.205091
0.205094
0.205098
0.205102
0.205105
0.205109
0.205112
0.205116
0.205119
0.205122
0.205126
0.205129
0.205133
0.205136
0.20514
0.205144
0.205143
0.20517
0.192693
0.192662
0.192659
0.192663
0.192667
0.192673
0.192678
0.192683
0.192689
0.192694
0.192699
0.192704
0.192709
0.192714
0.192719
0.192725
0.192729
0.192734
0.192739
0.192744
0.192749
0.192754
0.192758
0.192763
0.192768
0.192772
0.192777
0.192781
0.192785
0.192789
0.192794
0.192798
0.192802
0.192806
0.19281
0.192814
0.192817
0.192821
0.192825
0.192829
0.192832
0.192836
0.192839
0.192843
0.192846
0.19285
0.192853
0.192857
0.19286
0.192864
0.192867
0.192871
0.192874
0.192878
0.192881
0.192884
0.192889
0.192888
0.192914
0.181093
0.181062
0.181059
0.181063
0.181068
0.181073
0.181078
0.181084
0.181089
0.181094
0.1811
0.181105
0.18111
0.181115
0.18112
0.181125
0.18113
0.181135
0.18114
0.181145
0.18115
0.181155
0.18116
0.181164
0.181169
0.181173
0.181178
0.181182
0.181187
0.181191
0.181195
0.181199
0.181203
0.181207
0.181211
0.181215
0.181219
0.181222
0.181226
0.18123
0.181233
0.181237
0.181241
0.181244
0.181248
0.181251
0.181254
0.181258
0.181261
0.181265
0.181268
0.181272
0.181275
0.181278
0.181282
0.181285
0.18129
0.181289
0.181315
0.170125
0.170094
0.170092
0.170095
0.1701
0.170106
0.170111
0.170117
0.170122
0.170127
0.170133
0.170138
0.170143
0.170148
0.170154
0.170159
0.170164
0.170169
0.170174
0.170179
0.170183
0.170188
0.170193
0.170198
0.170202
0.170207
0.170211
0.170216
0.17022
0.170224
0.170228
0.170232
0.170237
0.17024
0.170244
0.170248
0.170252
0.170256
0.170259
0.170263
0.170267
0.17027
0.170274
0.170277
0.170281
0.170284
0.170287
0.170291
0.170294
0.170298
0.170301
0.170304
0.170308
0.170311
0.170315
0.170318
0.170322
0.170321
0.170347
0.159767
0.159736
0.159733
0.159737
0.159742
0.159747
0.159753
0.159758
0.159764
0.159769
0.159775
0.15978
0.159785
0.159791
0.159796
0.159801
0.159806
0.159811
0.159816
0.159821
0.159826
0.159831
0.159835
0.15984
0.159845
0.159849
0.159854
0.159858
0.159862
0.159866
0.159871
0.159875
0.159879
0.159883
0.159887
0.15989
0.159894
0.159898
0.159902
0.159905
0.159909
0.159912
0.159916
0.159919
0.159922
0.159926
0.159929
0.159932
0.159936
0.159939
0.159942
0.159946
0.159949
0.159952
0.159956
0.159959
0.159963
0.159963
0.159988
0.149995
0.149964
0.149962
0.149965
0.14997
0.149976
0.149981
0.149987
0.149992
0.149998
0.150003
0.150008
0.150014
0.150019
0.150024
0.150029
0.150034
0.150039
0.150044
0.150049
0.150054
0.150059
0.150064
0.150068
0.150073
0.150077
0.150082
0.150086
0.150091
0.150095
0.150099
0.150103
0.150107
0.150111
0.150115
0.150118
0.150122
0.150126
0.150129
0.150133
0.150137
0.15014
0.150143
0.150147
0.15015
0.150153
0.150157
0.15016
0.150163
0.150166
0.15017
0.150173
0.150176
0.150179
0.150183
0.150186
0.15019
0.150189
0.150214
0.140787
0.140757
0.140754
0.140758
0.140763
0.140768
0.140774
0.140779
0.140785
0.14079
0.140796
0.140801
0.140806
0.140811
0.140817
0.140822
0.140827
0.140832
0.140837
0.140842
0.140847
0.140851
0.140856
0.140861
0.140865
0.14087
0.140874
0.140878
0.140883
0.140887
0.140891
0.140895
0.140899
0.140903
0.140907
0.14091
0.140914
0.140918
0.140921
0.140925
0.140928
0.140932
0.140935
0.140938
0.140941
0.140945
0.140948
0.140951
0.140954
0.140957
0.140961
0.140964
0.140967
0.14097
0.140973
0.140976
0.14098
0.14098
0.141004
0.132122
0.132092
0.132089
0.132093
0.132098
0.132103
0.132109
0.132114
0.13212
0.132125
0.13213
0.132136
0.132141
0.132146
0.132151
0.132156
0.132161
0.132166
0.132171
0.132176
0.132181
0.132186
0.13219
0.132195
0.1322
0.132204
0.132208
0.132213
0.132217
0.132221
0.132225
0.132229
0.132233
0.132237
0.132241
0.132244
0.132248
0.132251
0.132255
0.132258
0.132262
0.132265
0.132268
0.132272
0.132275
0.132278
0.132281
0.132284
0.132287
0.13229
0.132293
0.132296
0.132299
0.132303
0.132306
0.132309
0.132312
0.132312
0.132335
0.123977
0.123948
0.123945
0.123949
0.123954
0.123959
0.123965
0.12397
0.123975
0.123981
0.123986
0.123991
0.123996
0.124002
0.124007
0.124012
0.124017
0.124022
0.124027
0.124031
0.124036
0.124041
0.124045
0.12405
0.124054
0.124059
0.124063
0.124067
0.124072
0.124076
0.12408
0.124083
0.124087
0.124091
0.124095
0.124098
0.124102
0.124105
0.124109
0.124112
0.124116
0.124119
0.124122
0.124125
0.124128
0.124131
0.124134
0.124137
0.12414
0.124143
0.124146
0.124149
0.124152
0.124155
0.124158
0.124161
0.124165
0.124164
0.124187
0.116332
0.116303
0.116301
0.116304
0.116309
0.116315
0.11632
0.116325
0.11633
0.116336
0.116341
0.116346
0.116351
0.116356
0.116361
0.116366
0.116371
0.116376
0.116381
0.116386
0.11639
0.116395
0.1164
0.116404
0.116408
0.116413
0.116417
0.116421
0.116425
0.116429
0.116433
0.116437
0.116441
0.116444
0.116448
0.116452
0.116455
0.116458
0.116462
0.116465
0.116468
0.116472
0.116475
0.116478
0.116481
0.116484
0.116487
0.11649
0.116492
0.116495
0.116498
0.116501
0.116504
0.116507
0.11651
0.116512
0.116516
0.116515
0.116537
0.109164
0.109137
0.109134
0.109138
0.109143
0.109148
0.109153
0.109158
0.109164
0.109169
0.109174
0.109179
0.109184
0.109189
0.109194
0.109199
0.109204
0.109208
0.109213
0.109218
0.109222
0.109227
0.109231
0.109236
0.10924
0.109244
0.109249
0.109253
0.109257
0.109261
0.109264
0.109268
0.109272
0.109276
0.109279
0.109283
0.109286
0.109289
0.109293
0.109296
0.109299
0.109302
0.109305
0.109308
0.109311
0.109314
0.109317
0.109319
0.109322
0.109325
0.109328
0.10933
0.109333
0.109336
0.109339
0.109341
0.109345
0.109344
0.109364
0.102454
0.102427
0.102425
0.102429
0.102433
0.102438
0.102444
0.102449
0.102454
0.102459
0.102464
0.102469
0.102474
0.102479
0.102483
0.102488
0.102493
0.102498
0.102502
0.102507
0.102511
0.102516
0.10252
0.102524
0.102529
0.102533
0.102537
0.102541
0.102545
0.102549
0.102552
0.102556
0.10256
0.102563
0.102567
0.10257
0.102573
0.102577
0.10258
0.102583
0.102586
0.102589
0.102592
0.102595
0.102598
0.1026
0.102603
0.102606
0.102608
0.102611
0.102614
0.102616
0.102619
0.102622
0.102624
0.102627
0.10263
0.10263
0.102649
0.0961798
0.0961538
0.0961519
0.0961553
0.09616
0.0961649
0.0961698
0.0961748
0.0961797
0.0961846
0.0961895
0.0961943
0.0961992
0.0962039
0.0962087
0.0962133
0.096218
0.0962225
0.096227
0.0962315
0.0962359
0.0962402
0.0962445
0.0962487
0.0962528
0.0962569
0.0962609
0.0962648
0.0962686
0.0962723
0.096276
0.0962796
0.0962831
0.0962865
0.0962898
0.0962931
0.0962963
0.0962995
0.0963025
0.0963055
0.0963085
0.0963114
0.0963142
0.096317
0.0963197
0.0963224
0.096325
0.0963276
0.0963302
0.0963327
0.0963352
0.0963377
0.0963402
0.0963427
0.0963452
0.0963476
0.0963506
0.0963504
0.0963684
0.0903205
0.0902955
0.0902937
0.090297
0.0903016
0.0903064
0.0903112
0.090316
0.0903208
0.0903255
0.0903303
0.090335
0.0903396
0.0903443
0.0903489
0.0903534
0.0903579
0.0903624
0.0903668
0.0903711
0.0903754
0.0903796
0.0903837
0.0903878
0.0903918
0.0903958
0.0903996
0.0904034
0.0904072
0.0904108
0.0904143
0.0904178
0.0904212
0.0904245
0.0904278
0.090431
0.0904341
0.0904371
0.0904401
0.090443
0.0904458
0.0904486
0.0904513
0.090454
0.0904566
0.0904592
0.0904617
0.0904642
0.0904667
0.0904691
0.0904715
0.0904739
0.0904762
0.0904786
0.090481
0.0904833
0.090486
0.0904859
0.0905028
0.0848557
0.0848317
0.0848299
0.0848332
0.0848376
0.0848422
0.0848469
0.0848515
0.0848562
0.0848608
0.0848654
0.0848699
0.0848744
0.0848789
0.0848834
0.0848878
0.0848922
0.0848965
0.0849007
0.0849049
0.084909
0.0849131
0.0849171
0.0849211
0.084925
0.0849288
0.0849326
0.0849363
0.0849399
0.0849434
0.0849468
0.0849502
0.0849535
0.0849567
0.0849598
0.0849629
0.0849659
0.0849688
0.0849717
0.0849745
0.0849772
0.0849799
0.0849825
0.0849851
0.0849876
0.0849901
0.0849925
0.0849949
0.0849972
0.0849995
0.0850018
0.0850041
0.0850063
0.0850086
0.0850108
0.085013
0.0850156
0.0850155
0.0850313
0.0797647
0.0797418
0.0797402
0.0797434
0.0797476
0.0797521
0.0797566
0.0797611
0.0797655
0.07977
0.0797744
0.0797788
0.0797832
0.0797875
0.0797918
0.0797961
0.0798003
0.0798044
0.0798085
0.0798126
0.0798166
0.0798205
0.0798244
0.0798282
0.079832
0.0798357
0.0798393
0.0798429
0.0798464
0.0798498
0.0798531
0.0798563
0.0798595
0.0798626
0.0798656
0.0798686
0.0798715
0.0798743
0.0798771
0.0798798
0.0798824
0.079885
0.0798875
0.0798899
0.0798923
0.0798947
0.079897
0.0798993
0.0799015
0.0799037
0.0799058
0.079908
0.0799101
0.0799122
0.0799143
0.0799164
0.0799188
0.0799189
0.0799335
0.0750277
0.0750059
0.0750044
0.0750074
0.0750115
0.0750158
0.0750201
0.0750245
0.0750288
0.075033
0.0750373
0.0750415
0.0750457
0.0750499
0.075054
0.0750581
0.0750622
0.0750662
0.0750701
0.075074
0.0750779
0.0750817
0.0750854
0.0750891
0.0750927
0.0750963
0.0750998
0.0751032
0.0751066
0.0751099
0.0751131
0.0751162
0.0751192
0.0751222
0.0751251
0.075128
0.0751308
0.0751335
0.0751361
0.0751387
0.0751412
0.0751437
0.0751461
0.0751484
0.0751507
0.075153
0.0751552
0.0751573
0.0751594
0.0751615
0.0751636
0.0751656
0.0751676
0.0751696
0.0751716
0.0751735
0.0751758
0.0751759
0.0751894
0.0706249
0.0706041
0.0706027
0.0706057
0.0706096
0.0706137
0.0706179
0.070622
0.0706262
0.0706303
0.0706343
0.0706384
0.0706424
0.0706464
0.0706504
0.0706543
0.0706582
0.0706621
0.0706658
0.0706696
0.0706733
0.0706769
0.0706805
0.0706841
0.0706876
0.070691
0.0706943
0.0706976
0.0707009
0.070704
0.0707071
0.0707101
0.070713
0.0707159
0.0707187
0.0707214
0.0707241
0.0707267
0.0707292
0.0707317
0.0707341
0.0707364
0.0707387
0.070741
0.0707431
0.0707453
0.0707474
0.0707494
0.0707514
0.0707534
0.0707553
0.0707572
0.0707591
0.070761
0.0707629
0.0707647
0.0707668
0.0707669
0.0707794
0.0665371
0.0665174
0.0665161
0.0665189
0.0665227
0.0665266
0.0665306
0.0665346
0.0665385
0.0665424
0.0665463
0.0665502
0.0665541
0.0665579
0.0665617
0.0665654
0.0665692
0.0665728
0.0665765
0.0665801
0.0665836
0.0665871
0.0665905
0.0665939
0.0665973
0.0666005
0.0666038
0.0666069
0.06661
0.066613
0.066616
0.0666189
0.0666217
0.0666244
0.0666271
0.0666297
0.0666322
0.0666347
0.0666371
0.0666395
0.0666418
0.066644
0.0666462
0.0666483
0.0666504
0.0666524
0.0666544
0.0666564
0.0666583
0.0666601
0.066662
0.0666638
0.0666655
0.0666673
0.066669
0.0666707
0.0666727
0.0666729
0.0666843
0.0627455
0.0627269
0.0627257
0.0627284
0.062732
0.0627358
0.0627396
0.0627434
0.0627471
0.0627509
0.0627546
0.0627583
0.0627619
0.0627656
0.0627692
0.0627728
0.0627763
0.0627798
0.0627833
0.0627867
0.0627901
0.0627934
0.0627967
0.0628
0.0628032
0.0628063
0.0628094
0.0628124
0.0628153
0.0628182
0.0628211
0.0628238
0.0628265
0.0628291
0.0628317
0.0628342
0.0628366
0.0628389
0.0628413
0.0628435
0.0628457
0.0628478
0.0628499
0.0628519
0.0628539
0.0628558
0.0628577
0.0628595
0.0628613
0.0628631
0.0628648
0.0628665
0.0628682
0.0628698
0.0628714
0.062873
0.0628749
0.0628751
0.0628855
0.0592321
0.0592146
0.0592135
0.0592161
0.0592195
0.0592231
0.0592267
0.0592303
0.0592339
0.0592374
0.059241
0.0592445
0.059248
0.0592514
0.0592549
0.0592583
0.0592617
0.059265
0.0592683
0.0592716
0.0592748
0.0592779
0.0592811
0.0592842
0.0592872
0.0592902
0.0592931
0.059296
0.0592988
0.0593016
0.0593043
0.0593069
0.0593094
0.0593119
0.0593144
0.0593168
0.0593191
0.0593213
0.0593235
0.0593256
0.0593277
0.0593297
0.0593317
0.0593336
0.0593355
0.0593373
0.0593391
0.0593408
0.0593425
0.0593442
0.0593458
0.0593474
0.0593489
0.0593505
0.059352
0.0593535
0.0593552
0.0593554
0.0593649
0.0559794
0.055963
0.055962
0.0559645
0.0559677
0.0559711
0.0559745
0.0559779
0.0559813
0.0559847
0.055988
0.0559914
0.0559947
0.055998
0.0560012
0.0560045
0.0560077
0.0560108
0.056014
0.0560171
0.0560201
0.0560231
0.0560261
0.056029
0.0560319
0.0560348
0.0560376
0.0560403
0.056043
0.0560456
0.0560482
0.0560507
0.0560531
0.0560555
0.0560578
0.05606
0.0560622
0.0560644
0.0560665
0.0560685
0.0560705
0.0560724
0.0560742
0.0560761
0.0560778
0.0560796
0.0560812
0.0560829
0.0560845
0.056086
0.0560875
0.056089
0.0560905
0.0560919
0.0560933
0.0560947
0.0560963
0.0560966
0.0561051
0.0529707
0.0529553
0.0529544
0.0529568
0.0529598
0.052963
0.0529663
0.0529695
0.0529727
0.0529759
0.0529791
0.0529822
0.0529853
0.0529885
0.0529915
0.0529946
0.0529976
0.0530006
0.0530036
0.0530065
0.0530094
0.0530123
0.0530151
0.0530179
0.0530206
0.0530233
0.053026
0.0530286
0.0530311
0.0530336
0.053036
0.0530384
0.0530407
0.053043
0.0530452
0.0530473
0.0530494
0.0530514
0.0530534
0.0530553
0.0530572
0.053059
0.0530608
0.0530625
0.0530642
0.0530658
0.0530674
0.0530689
0.0530704
0.0530719
0.0530733
0.0530747
0.0530761
0.0530774
0.0530787
0.05308
0.0530814
0.0530817
0.0530895
0.05019
0.0501755
0.0501747
0.050177
0.0501799
0.0501829
0.050186
0.050189
0.050192
0.050195
0.050198
0.050201
0.050204
0.0502069
0.0502098
0.0502127
0.0502156
0.0502184
0.0502212
0.050224
0.0502267
0.0502294
0.0502321
0.0502347
0.0502373
0.0502398
0.0502423
0.0502448
0.0502472
0.0502496
0.0502519
0.0502541
0.0502563
0.0502585
0.0502606
0.0502626
0.0502646
0.0502665
0.0502684
0.0502702
0.0502719
0.0502737
0.0502753
0.0502769
0.0502785
0.05028
0.0502815
0.050283
0.0502844
0.0502858
0.0502871
0.0502884
0.0502897
0.0502909
0.0502922
0.0502934
0.0502947
0.050295
0.0503019
0.047622
0.0476085
0.0476078
0.0476099
0.0476126
0.0476155
0.0476183
0.0476212
0.0476241
0.0476269
0.0476297
0.0476325
0.0476353
0.047638
0.0476408
0.0476435
0.0476462
0.0476489
0.0476515
0.0476541
0.0476567
0.0476593
0.0476618
0.0476643
0.0476667
0.0476691
0.0476715
0.0476738
0.0476761
0.0476783
0.0476805
0.0476826
0.0476847
0.0476867
0.0476887
0.0476906
0.0476925
0.0476943
0.0476961
0.0476978
0.0476995
0.0477011
0.0477027
0.0477042
0.0477057
0.0477071
0.0477085
0.0477099
0.0477112
0.0477125
0.0477137
0.047715
0.0477161
0.0477173
0.0477185
0.0477196
0.0477208
0.0477211
0.0477273
0.0452522
0.0452397
0.045239
0.045241
0.0452436
0.0452463
0.045249
0.0452516
0.0452543
0.045257
0.0452596
0.0452622
0.0452649
0.0452674
0.04527
0.0452726
0.0452751
0.0452776
0.0452801
0.0452826
0.045285
0.0452874
0.0452898
0.0452921
0.0452944
0.0452967
0.0452989
0.0453011
0.0453033
0.0453054
0.0453074
0.0453094
0.0453114
0.0453133
0.0453152
0.045317
0.0453188
0.0453205
0.0453222
0.0453238
0.0453254
0.0453269
0.0453284
0.0453298
0.0453312
0.0453326
0.0453339
0.0453352
0.0453364
0.0453376
0.0453388
0.0453399
0.045341
0.0453421
0.0453432
0.0453442
0.0453453
0.0453457
0.0453512
0.0430671
0.0430554
0.0430549
0.0430567
0.0430591
0.0430617
0.0430642
0.0430667
0.0430692
0.0430717
0.0430742
0.0430766
0.0430791
0.0430815
0.0430839
0.0430863
0.0430887
0.0430911
0.0430934
0.0430957
0.043098
0.0431002
0.0431025
0.0431047
0.0431068
0.043109
0.0431111
0.0431131
0.0431151
0.0431171
0.0431191
0.043121
0.0431228
0.0431246
0.0431264
0.0431281
0.0431298
0.0431314
0.043133
0.0431345
0.043136
0.0431375
0.0431389
0.0431402
0.0431415
0.0431428
0.0431441
0.0431453
0.0431464
0.0431475
0.0431486
0.0431497
0.0431507
0.0431517
0.0431527
0.0431537
0.0431547
0.0431551
0.04316
0.0410538
0.041043
0.0410425
0.0410442
0.0410465
0.0410488
0.0410512
0.0410536
0.0410559
0.0410582
0.0410605
0.0410628
0.0410651
0.0410674
0.0410697
0.0410719
0.0410741
0.0410763
0.0410785
0.0410807
0.0410828
0.0410849
0.041087
0.0410891
0.0410911
0.0410931
0.0410951
0.041097
0.0410989
0.0411008
0.0411026
0.0411044
0.0411062
0.0411079
0.0411096
0.0411112
0.0411128
0.0411143
0.0411158
0.0411172
0.0411186
0.04112
0.0411213
0.0411226
0.0411238
0.041125
0.0411262
0.0411273
0.0411284
0.0411295
0.0411305
0.0411315
0.0411325
0.0411334
0.0411343
0.0411352
0.0411361
0.0411365
0.0411409
0.0392004
0.0391904
0.0391899
0.0391915
0.0391936
0.0391958
0.039198
0.0392002
0.0392024
0.0392046
0.0392067
0.0392089
0.039211
0.0392131
0.0392152
0.0392173
0.0392194
0.0392215
0.0392235
0.0392255
0.0392275
0.0392295
0.0392315
0.0392334
0.0392353
0.0392372
0.039239
0.0392409
0.0392427
0.0392444
0.0392461
0.0392478
0.0392495
0.0392511
0.0392526
0.0392542
0.0392557
0.0392571
0.0392585
0.0392599
0.0392612
0.0392625
0.0392637
0.0392649
0.0392661
0.0392672
0.0392683
0.0392694
0.0392704
0.0392714
0.0392724
0.0392733
0.0392742
0.0392751
0.0392759
0.0392767
0.0392776
0.039278
0.0392819
0.0374956
0.0374863
0.0374859
0.0374874
0.0374894
0.0374914
0.0374935
0.0374955
0.0374976
0.0374996
0.0375016
0.0375036
0.0375056
0.0375075
0.0375095
0.0375114
0.0375134
0.0375153
0.0375172
0.0375191
0.037521
0.0375228
0.0375246
0.0375264
0.0375282
0.03753
0.0375317
0.0375334
0.0375351
0.0375368
0.0375384
0.03754
0.0375415
0.037543
0.0375445
0.037546
0.0375474
0.0375487
0.03755
0.0375513
0.0375526
0.0375538
0.037555
0.0375561
0.0375572
0.0375583
0.0375593
0.0375603
0.0375613
0.0375622
0.0375631
0.037564
0.0375648
0.0375656
0.0375664
0.0375672
0.037568
0.0375683
0.0375718
0.035929
0.0359205
0.0359201
0.0359216
0.0359234
0.0359253
0.0359272
0.0359291
0.035931
0.0359328
0.0359347
0.0359365
0.0359384
0.0359402
0.035942
0.0359439
0.0359457
0.0359474
0.0359492
0.035951
0.0359527
0.0359544
0.0359561
0.0359578
0.0359595
0.0359611
0.0359628
0.0359644
0.0359659
0.0359675
0.035969
0.0359705
0.035972
0.0359734
0.0359748
0.0359761
0.0359775
0.0359787
0.03598
0.0359812
0.0359824
0.0359835
0.0359846
0.0359857
0.0359867
0.0359877
0.0359887
0.0359897
0.0359906
0.0359914
0.0359923
0.0359931
0.0359939
0.0359947
0.0359954
0.0359961
0.0359969
0.0359972
0.0360003
0.0344912
0.0344833
0.034483
0.0344843
0.034486
0.0344878
0.0344895
0.0344913
0.034493
0.0344948
0.0344965
0.0344982
0.0344999
0.0345016
0.0345033
0.034505
0.0345067
0.0345083
0.03451
0.0345116
0.0345132
0.0345148
0.0345164
0.034518
0.0345195
0.0345211
0.0345226
0.0345241
0.0345256
0.034527
0.0345284
0.0345298
0.0345312
0.0345326
0.0345339
0.0345351
0.0345364
0.0345376
0.0345388
0.0345399
0.034541
0.0345421
0.0345432
0.0345442
0.0345452
0.0345461
0.034547
0.0345479
0.0345488
0.0345496
0.0345504
0.0345511
0.0345519
0.0345526
0.0345533
0.034554
0.0345547
0.034555
0.0345577
0.0331732
0.033166
0.0331657
0.0331669
0.0331685
0.0331701
0.0331717
0.0331733
0.0331749
0.0331765
0.0331781
0.0331797
0.0331813
0.0331829
0.0331844
0.033186
0.0331876
0.0331891
0.0331906
0.0331921
0.0331936
0.0331951
0.0331966
0.0331981
0.0331995
0.033201
0.0332024
0.0332038
0.0332052
0.0332065
0.0332079
0.0332092
0.0332105
0.0332117
0.033213
0.0332142
0.0332153
0.0332165
0.0332176
0.0332187
0.0332197
0.0332207
0.0332217
0.0332227
0.0332236
0.0332245
0.0332254
0.0332262
0.033227
0.0332278
0.0332286
0.0332293
0.03323
0.0332306
0.0332313
0.0332319
0.0332326
0.0332329
0.0332353
0.031967
0.0319604
0.0319601
0.0319613
0.0319627
0.0319642
0.0319657
0.0319672
0.0319686
0.0319701
0.0319716
0.0319731
0.0319745
0.031976
0.0319774
0.0319789
0.0319803
0.0319817
0.0319831
0.0319846
0.0319859
0.0319873
0.0319887
0.0319901
0.0319914
0.0319928
0.0319941
0.0319954
0.0319967
0.031998
0.0319992
0.0320004
0.0320016
0.0320028
0.032004
0.0320051
0.0320062
0.0320073
0.0320084
0.0320094
0.0320104
0.0320113
0.0320123
0.0320132
0.0320141
0.0320149
0.0320157
0.0320165
0.0320173
0.032018
0.0320187
0.0320194
0.0320201
0.0320207
0.0320213
0.0320219
0.0320225
0.0320229
0.032025
0.0308653