/*--------------------------------*- C++ -*----------------------------------*\
  =========                 |
  \\      /  F ield         | OpenFOAM: The Open Source CFD Toolbox
   \\    /   O peration     | Website:  https://openfoam.org
    \\  /    A nd           | Version:  7
     \\/     M anipulation  |
\*---------------------------------------------------------------------------*/
FoamFile
{
    version     2.0;
    format      ascii;
    class       volVectorField;
    location    "2000";
    object      U;
}
// * * * * * * * * * * * * * * * * * * * * * * * * * * * * * * * * * * * * * //

dimensions      [0 1 -1 0 0 0 0];

internalField   nonuniform List<vector> 
3974
(
(0.117773 -2.72951e-07 2.27063e-16)
(0.117773 -2.74056e-07 2.47869e-16)
(0.117773 -2.56017e-07 1.21545e-16)
(0.117773 -2.41557e-07 2.31888e-16)
(0.117773 -2.29534e-07 1.49938e-16)
(0.117773 -2.18667e-07 2.23578e-16)
(0.117773 -2.08578e-07 1.89117e-16)
(0.117773 -1.9918e-07 1.47457e-16)
(0.117773 -1.90405e-07 2.18978e-16)
(0.117773 -1.82146e-07 1.19635e-16)
(0.117773 -1.74252e-07 1.54118e-16)
(0.117773 -1.66551e-07 1.22239e-16)
(0.117773 -1.58878e-07 3.28417e-17)
(0.117773 -1.51096e-07 9.28081e-17)
(0.117773 -1.43101e-07 3.72738e-17)
(0.117773 -1.34829e-07 1.07067e-16)
(0.117773 -1.26245e-07 7.87901e-17)
(0.117773 -1.1734e-07 8.21074e-18)
(0.117773 -1.08125e-07 7.39044e-17)
(0.117773 -9.86244e-08 3.91687e-17)
(0.117773 -8.88739e-08 5.068e-17)
(0.117773 -7.89187e-08 5.00435e-17)
(0.117773 -6.88101e-08 -4.58874e-17)
(0.117773 -5.86037e-08 8.21293e-17)
(0.117773 -4.83561e-08 1.17093e-17)
(0.117773 -3.81261e-08 8.35853e-17)
(0.117773 -2.79696e-08 9.08142e-17)
(0.117773 -1.79458e-08 -3.18621e-17)
(0.117773 -8.10446e-09 1.32232e-16)
(0.117773 1.50287e-09 4.55807e-17)
(0.117773 1.08415e-08 9.55917e-17)
(0.117773 1.9912e-08 1.51262e-16)
(0.117773 2.86719e-08 4.70372e-17)
(0.117773 3.7454e-08 1.20594e-16)
(0.117773 4.56742e-08 1.63924e-16)
(0.117773 5.70267e-08 7.27478e-17)
(0.117773 6.25067e-08 1.57595e-16)
(0.117773 1.25302e-07 5.76975e-17)
(0.118847 -1.02881e-07 5.37465e-16)
(0.118847 -2.06982e-07 4.62758e-16)
(0.118847 -2.77862e-07 4.52638e-16)
(0.118847 -2.70228e-07 4.86323e-16)
(0.118847 -2.54503e-07 3.84046e-16)
(0.118847 -2.42143e-07 4.40787e-16)
(0.118847 -2.30873e-07 3.89495e-16)
(0.118847 -2.20256e-07 4.34079e-16)
(0.118847 -2.10224e-07 4.4709e-16)
(0.118847 -2.00791e-07 3.70582e-16)
(0.118847 -1.91929e-07 4.25544e-16)
(0.118847 -1.83553e-07 3.63645e-16)
(0.118847 -1.75525e-07 3.78194e-16)
(0.118847 -1.67684e-07 3.74589e-16)
(0.118847 -1.5987e-07 2.43945e-16)
(0.118847 -1.51949e-07 2.93324e-16)
(0.118847 -1.43822e-07 2.79526e-16)
(0.118847 -1.35423e-07 3.06942e-16)
(0.118847 -1.26718e-07 3.19614e-16)
(0.118847 -1.17696e-07 2.11177e-16)
(0.118847 -1.08367e-07 2.57795e-16)
(0.118847 -9.87534e-08 2.06657e-16)
(0.118847 -8.8889e-08 2.55434e-16)
(0.118847 -7.88176e-08 2.92951e-16)
(0.118847 -6.85893e-08 2.01017e-16)
(0.118847 -5.8259e-08 2.67077e-16)
(0.118847 -4.78826e-08 2.36812e-16)
(0.118847 -3.75188e-08 2.82659e-16)
(0.118847 -2.72239e-08 3.2203e-16)
(0.118847 -1.7057e-08 2.71099e-16)
(0.118847 -7.06874e-09 3.14763e-16)
(0.118847 2.68783e-09 2.69989e-16)
(0.118847 1.21784e-08 2.91814e-16)
(0.118847 2.13966e-08 3.53222e-16)
(0.118847 3.03078e-08 3.05697e-16)
(0.118847 3.9205e-08 3.24549e-16)
(0.118847 4.75794e-08 3.55497e-16)
(0.118847 5.8741e-08 3.15101e-16)
(0.118847 6.46847e-08 3.59148e-16)
(0.118847 1.19552e-07 3.20285e-16)
(0.118847 1.7865e-07 3.53452e-16)
(0.118847 2.31993e-07 3.97254e-16)
(0.119886 3.39094e-07 7.91275e-16)
(0.119886 6.72788e-08 6.91008e-16)
(0.119886 -1.04701e-07 7.34757e-16)
(0.119886 -1.89779e-07 7.09086e-16)
(0.119886 -2.49582e-07 6.9392e-16)
(0.119885 -2.49644e-07 7.27117e-16)
(0.119885 -2.45296e-07 6.09164e-16)
(0.119885 -2.37928e-07 6.62529e-16)
(0.119885 -2.28777e-07 5.94824e-16)
(0.119885 -2.19232e-07 6.61479e-16)
(0.119885 -2.09793e-07 7.00155e-16)
(0.119885 -2.00694e-07 6.01004e-16)
(0.119885 -1.92012e-07 6.45332e-16)
(0.119885 -1.83717e-07 5.80566e-16)
(0.119885 -1.75708e-07 6.10463e-16)
(0.119885 -1.67845e-07 6.21786e-16)
(0.119885 -1.59986e-07 4.77449e-16)
(0.119885 -1.52005e-07 5.12634e-16)
(0.119885 -1.4381e-07 4.75506e-16)
(0.119885 -1.35339e-07 5.22307e-16)
(0.119885 -1.2656e-07 5.55647e-16)
(0.119885 -1.17463e-07 4.26467e-16)
(0.119885 -1.08057e-07 4.61608e-16)
(0.119885 -9.83628e-08 3.96583e-16)
(0.119885 -8.84149e-08 4.71956e-16)
(0.119885 -7.82556e-08 5.30556e-16)
(0.119885 -6.7934e-08 4.06292e-16)
(0.119885 -5.75042e-08 4.7207e-16)
(0.119885 -4.70223e-08 4.0303e-16)
(0.119885 -3.65469e-08 4.90897e-16)
(0.119885 -2.61344e-08 5.51096e-16)
(0.119885 -1.58446e-08 4.64597e-16)
(0.119885 -5.72838e-09 5.12413e-16)
(0.119885 4.15909e-09 4.41504e-16)
(0.119885 1.37839e-08 4.99809e-16)
(0.119885 2.31322e-08 5.65411e-16)
(0.119885 3.21778e-08 5.50114e-16)
(0.119885 4.11653e-08 5.4104e-16)
(0.119885 4.96937e-08 5.54914e-16)
(0.119885 6.04255e-08 5.40884e-16)
(0.119885 6.76593e-08 5.68174e-16)
(0.119885 1.00273e-07 5.5939e-16)
(0.119885 1.45558e-07 5.6811e-16)
(0.119886 2.08728e-07 5.93187e-16)
(0.119886 2.60173e-07 5.76879e-16)
(0.119886 2.473e-07 5.82616e-16)
(0.119886 2.19994e-07 5.47227e-16)
(0.119886 1.97357e-07 5.47507e-16)
(0.119886 1.80151e-07 5.71816e-16)
(0.119886 1.66212e-07 5.62181e-16)
(0.119886 1.5422e-07 5.75955e-16)
(0.119886 1.43614e-07 5.5175e-16)
(0.119886 1.35526e-07 5.5509e-16)
(0.119886 1.28944e-07 5.85256e-16)
(0.119886 1.32082e-07 5.74392e-16)
(0.119886 1.33893e-07 5.88157e-16)
(0.119886 1.80422e-07 5.66414e-16)
(0.119886 1.94019e-07 5.8087e-16)
(0.119886 4.36312e-07 6.11195e-16)
(0.120892 3.28525e-07 1.01227e-15)
(0.120892 7.85935e-08 8.43655e-16)
(0.120891 -7.85978e-08 9.46646e-16)
(0.120891 -1.51143e-07 9.54296e-16)
(0.120891 -2.08408e-07 9.33568e-16)
(0.120891 -2.24723e-07 9.71394e-16)
(0.12089 -2.30891e-07 8.29123e-16)
(0.12089 -2.29209e-07 8.97997e-16)
(0.12089 -2.23224e-07 8.06331e-16)
(0.12089 -2.15506e-07 9.12528e-16)
(0.12089 -2.07175e-07 9.51478e-16)
(0.12089 -1.98775e-07 8.12658e-16)
(0.12089 -1.9054e-07 8.81534e-16)
(0.12089 -1.8253e-07 7.37834e-16)
(0.12089 -1.74697e-07 8.62345e-16)
(0.12089 -1.66938e-07 8.66892e-16)
(0.12089 -1.59133e-07 6.87973e-16)
(0.12089 -1.51175e-07 7.50255e-16)
(0.12089 -1.42979e-07 6.70531e-16)
(0.12089 -1.34494e-07 7.6157e-16)
(0.12089 -1.2569e-07 7.90199e-16)
(0.12089 -1.16561e-07 6.2873e-16)
(0.12089 -1.07116e-07 6.82946e-16)
(0.12089 -9.73767e-08 5.88353e-16)
(0.12089 -8.73772e-08 7.12353e-16)
(0.12089 -7.71592e-08 7.6769e-16)
(0.12089 -6.67716e-08 6.12465e-16)
(0.12089 -5.62684e-08 6.94472e-16)
(0.12089 -4.57055e-08 6.09095e-16)
(0.12089 -3.51418e-08 7.21725e-16)
(0.12089 -2.4634e-08 7.81848e-16)
(0.12089 -1.42428e-08 6.06739e-16)
(0.12089 -4.01959e-09 7.27971e-16)
(0.12089 5.97846e-09 6.32736e-16)
(0.12089 1.57177e-08 7.32268e-16)
(0.12089 2.51763e-08 7.91083e-16)
(0.12089 3.4337e-08 7.85711e-16)
(0.12089 4.33888e-08 7.56416e-16)
(0.12089 5.2062e-08 7.57827e-16)
(0.12089 6.22136e-08 7.59233e-16)
(0.12089 7.11309e-08 7.79106e-16)
(0.12089 8.14185e-08 7.87898e-16)
(0.12089 1.10274e-07 7.86364e-16)
(0.12089 1.6591e-07 7.9613e-16)
(0.120891 2.15293e-07 7.94809e-16)
(0.120891 2.26754e-07 7.95486e-16)
(0.120891 2.14297e-07 7.80725e-16)
(0.120891 1.974e-07 7.66209e-16)
(0.120891 1.82168e-07 7.80187e-16)
(0.120891 1.69e-07 7.85704e-16)
(0.120891 1.57333e-07 7.95028e-16)
(0.120891 1.46829e-07 7.89526e-16)
(0.120891 1.38601e-07 7.72895e-16)
(0.120891 1.31812e-07 7.90497e-16)
(0.120891 1.34303e-07 7.97255e-16)
(0.120891 1.35717e-07 8.05426e-16)
(0.120891 1.80457e-07 7.99674e-16)
(0.120891 1.93733e-07 8.01498e-16)
(0.120891 4.28601e-07 8.17636e-16)
(0.121865 3.08349e-07 1.23696e-15)
(0.121865 9.72564e-08 1.1565e-15)
(0.121864 -4.39661e-08 1.19967e-15)
(0.121864 -1.1989e-07 1.18518e-15)
(0.121864 -1.76013e-07 1.17326e-15)
(0.121864 -1.99207e-07 1.22049e-15)
(0.121863 -2.12768e-07 1.11955e-15)
(0.121863 -2.1673e-07 1.16142e-15)
(0.121863 -2.1447e-07 1.09432e-15)
(0.121863 -2.09123e-07 1.21275e-15)
(0.121863 -2.02328e-07 1.19144e-15)
(0.121863 -1.94953e-07 1.09629e-15)
(0.121863 -1.87416e-07 1.15366e-15)
(0.121863 -1.79887e-07 1.07863e-15)
(0.121863 -1.72386e-07 1.14892e-15)
(0.121863 -1.64856e-07 1.10189e-15)
(0.121863 -1.57208e-07 9.73399e-16)
(0.121863 -1.49357e-07 1.0146e-15)
(0.121863 -1.41233e-07 9.61174e-16)
(0.121863 -1.32795e-07 1.03881e-15)
(0.121863 -1.2402e-07 1.01607e-15)
(0.121863 -1.14906e-07 9.07e-16)
(0.121863 -1.05464e-07 9.30948e-16)
(0.121863 -9.57187e-08 8.67621e-16)
(0.121863 -8.5703e-08 9.95429e-16)
(0.121863 -7.54596e-08 9.9595e-16)
(0.121863 -6.50373e-08 8.8121e-16)
(0.121863 -5.44902e-08 9.47453e-16)
(0.121863 -4.38745e-08 8.81072e-16)
(0.121863 -3.32496e-08 1.00815e-15)
(0.121863 -2.26727e-08 1.00481e-15)
(0.121863 -1.22053e-08 9.21998e-16)
(0.121863 -1.89942e-09 9.69409e-16)
(0.121863 8.18558e-09 9.0381e-16)
(0.121863 1.80163e-08 1.02075e-15)
(0.121863 2.75622e-08 1.02533e-15)
(0.121863 3.68156e-08 1.01469e-15)
(0.121862 4.59048e-08 9.61474e-16)
(0.121862 5.47003e-08 9.60962e-16)
(0.121862 6.42423e-08 9.75829e-16)
(0.121862 7.43477e-08 9.90915e-16)
(0.121862 7.45042e-08 1.01197e-15)
(0.121862 9.10524e-08 1.00678e-15)
(0.121863 1.26018e-07 1.00322e-15)
(0.121863 1.65209e-07 1.01341e-15)
(0.121863 1.97467e-07 1.0117e-15)
(0.121863 2.01184e-07 1.0123e-15)
(0.121864 1.92469e-07 9.78498e-16)
(0.121864 1.8097e-07 9.91397e-16)
(0.121864 1.69589e-07 1.0105e-15)
(0.121864 1.58843e-07 1.01784e-15)
(0.121864 1.48826e-07 1.02554e-15)
(0.121864 1.40713e-07 9.83511e-16)
(0.121864 1.33891e-07 1.00096e-15)
(0.121864 1.35791e-07 1.02229e-15)
(0.121864 1.36877e-07 1.02726e-15)
(0.121864 1.79337e-07 1.03241e-15)
(0.121864 1.92591e-07 1.02605e-15)
(0.121864 4.11623e-07 1.03109e-15)
(0.122807 2.81554e-07 1.4443e-15)
(0.122807 1.04026e-07 1.42854e-15)
(0.122807 -2.17839e-08 1.53457e-15)
(0.122806 -9.47169e-08 1.41264e-15)
(0.122806 -1.48488e-07 1.48112e-15)
(0.122806 -1.74563e-07 1.44472e-15)
(0.122806 -1.92955e-07 1.41227e-15)
(0.122806 -2.01654e-07 1.51864e-15)
(0.122805 -2.03082e-07 1.39151e-15)
(0.122805 -2.00352e-07 1.51146e-15)
(0.122805 -1.95373e-07 1.40745e-15)
(0.122805 -1.8927e-07 1.36814e-15)
(0.122805 -1.82637e-07 1.39951e-15)
(0.122805 -1.75757e-07 1.36548e-15)
(0.122805 -1.68727e-07 1.49248e-15)
(0.122805 -1.61541e-07 1.31326e-15)
(0.122805 -1.54148e-07 1.24671e-15)
(0.122805 -1.46485e-07 1.27142e-15)
(0.122805 -1.38504e-07 1.24104e-15)
(0.122805 -1.30173e-07 1.37679e-15)
(0.122805 -1.21481e-07 1.22083e-15)
(0.122805 -1.12429e-07 1.18048e-15)
(0.122805 -1.03033e-07 1.18835e-15)
(0.122805 -9.33203e-08 1.15168e-15)
(0.122805 -8.33249e-08 1.29086e-15)
(0.122805 -7.30902e-08 1.2016e-15)
(0.122805 -6.26656e-08 1.16056e-15)
(0.122805 -5.21057e-08 1.2027e-15)
(0.122805 -4.1467e-08 1.18376e-15)
(0.122805 -3.08096e-08 1.35189e-15)
(0.122805 -2.01914e-08 1.20899e-15)
(0.122805 -9.6748e-09 1.18722e-15)
(0.122805 6.87302e-10 1.21778e-15)
(0.122805 1.08335e-08 1.18726e-15)
(0.122805 2.07303e-08 1.35067e-15)
(0.122805 3.03384e-08 1.25709e-15)
(0.122805 3.96594e-08 1.23807e-15)
(0.122805 4.87588e-08 1.19435e-15)
(0.122805 5.76431e-08 1.16484e-15)
(0.122805 6.66119e-08 1.19516e-15)
(0.122804 7.73425e-08 1.20339e-15)
(0.122804 7.30453e-08 1.23595e-15)
(0.122804 8.08564e-08 1.23456e-15)
(0.122805 1.02364e-07 1.21413e-15)
(0.122805 1.30999e-07 1.23624e-15)
(0.122805 1.68995e-07 1.22998e-15)
(0.122805 1.83724e-07 1.24578e-15)
(0.122805 1.83351e-07 1.17738e-15)
(0.122805 1.76678e-07 1.20527e-15)
(0.122805 1.67937e-07 1.24036e-15)
(0.122805 1.5867e-07 1.24368e-15)
(0.122805 1.49511e-07 1.26302e-15)
(0.122805 1.41761e-07 1.23047e-15)
(0.122805 1.3508e-07 1.21617e-15)
(0.122805 1.36446e-07 1.25242e-15)
(0.122805 1.37268e-07 1.25161e-15)
(0.122805 1.76993e-07 1.26755e-15)
(0.122806 1.90441e-07 1.26403e-15)
(0.122805 3.89395e-07 1.24939e-15)
(0.123719 2.50544e-07 1.6647e-15)
(0.123719 1.03026e-07 1.67914e-15)
(0.123719 -7.66713e-09 1.69617e-15)
(0.123719 -7.47478e-08 1.62343e-15)
(0.123719 -1.25304e-07 1.61533e-15)
(0.123719 -1.52124e-07 1.68073e-15)
(0.123718 -1.73099e-07 1.68242e-15)
(0.123718 -1.85199e-07 1.69083e-15)
(0.123718 -1.89814e-07 1.67646e-15)
(0.123718 -1.89631e-07 1.73137e-15)
(0.123718 -1.86561e-07 1.66988e-15)
(0.123718 -1.81867e-07 1.6421e-15)
(0.123718 -1.76274e-07 1.66454e-15)
(0.123718 -1.70168e-07 1.63369e-15)
(0.123718 -1.6372e-07 1.66006e-15)
(0.123718 -1.56975e-07 1.57916e-15)
(0.123718 -1.49918e-07 1.52393e-15)
(0.123718 -1.42518e-07 1.5293e-15)
(0.123718 -1.34742e-07 1.51001e-15)
(0.123718 -1.26576e-07 1.53881e-15)
(0.123718 -1.18016e-07 1.48253e-15)
(0.123717 -1.09072e-07 1.45573e-15)
(0.123717 -9.97639e-08 1.44486e-15)
(0.123717 -9.0122e-08 1.43033e-15)
(0.123717 -8.01831e-08 1.50188e-15)
(0.123717 -6.99915e-08 1.46107e-15)
(0.123717 -5.95975e-08 1.43544e-15)
(0.123717 -4.90563e-08 1.45531e-15)
(0.123717 -3.84254e-08 1.46327e-15)
(0.123717 -2.77654e-08 1.51801e-15)
(0.123717 -1.71351e-08 1.47012e-15)
(0.123717 -6.59793e-09 1.4557e-15)
(0.123717 3.79227e-09 1.46456e-15)
(0.123717 1.3972e-08 1.45876e-15)
(0.123717 2.39078e-08 1.52277e-15)
(0.123717 3.35509e-08 1.45205e-15)
(0.123717 4.29119e-08 1.45956e-15)
(0.123717 5.1994e-08 1.41248e-15)
(0.123717 6.09259e-08 1.37748e-15)
(0.123717 6.93845e-08 1.42068e-15)
(0.123717 8.02593e-08 1.41527e-15)
(0.123717 7.42644e-08 1.46461e-15)
(0.123717 7.63929e-08 1.46582e-15)
(0.123717 8.86949e-08 1.42596e-15)
(0.123717 1.07787e-07 1.46747e-15)
(0.123717 1.44396e-07 1.44875e-15)
(0.123717 1.65114e-07 1.48443e-15)
(0.123718 1.71563e-07 1.45562e-15)
(0.123718 1.6984e-07 1.43083e-15)
(0.123718 1.64215e-07 1.47818e-15)
(0.123718 1.56845e-07 1.47072e-15)
(0.123718 1.48855e-07 1.50414e-15)
(0.123718 1.41684e-07 1.46379e-15)
(0.123718 1.35297e-07 1.44645e-15)
(0.123718 1.36176e-07 1.48999e-15)
(0.123718 1.36779e-07 1.47589e-15)
(0.123718 1.73373e-07 1.50877e-15)
(0.123718 1.87004e-07 1.50422e-15)
(0.123718 3.64402e-07 1.47149e-15)
(0.124603 2.1721e-07 1.8767e-15)
(0.124603 9.66307e-08 1.93058e-15)
(0.124603 2.00196e-10 1.92462e-15)
(0.124603 -5.99767e-08 1.81665e-15)
(0.124603 -1.06567e-07 1.82823e-15)
(0.124603 -1.32654e-07 1.90755e-15)
(0.124602 -1.54385e-07 1.95287e-15)
(0.124602 -1.6848e-07 1.94168e-15)
(0.124602 -1.75493e-07 1.95393e-15)
(0.124602 -1.77514e-07 1.92901e-15)
(0.124602 -1.76253e-07 1.90395e-15)
(0.124602 -1.72975e-07 1.90974e-15)
(0.124602 -1.68476e-07 1.88947e-15)
(0.124602 -1.63213e-07 1.90124e-15)
(0.124602 -1.57416e-07 1.86685e-15)
(0.124602 -1.51179e-07 1.8189e-15)
(0.124602 -1.44524e-07 1.79848e-15)
(0.124602 -1.37443e-07 1.76249e-15)
(0.124602 -1.29927e-07 1.77389e-15)
(0.124601 -1.21972e-07 1.73923e-15)
(0.124601 -1.13589e-07 1.71911e-15)
(0.124601 -1.04793e-07 1.72632e-15)
(0.124601 -9.56119e-08 1.69538e-15)
(0.124601 -8.60772e-08 1.70587e-15)
(0.124601 -7.6229e-08 1.70511e-15)
(0.124601 -6.61136e-08 1.69474e-15)
(0.124601 -5.57823e-08 1.7064e-15)
(0.124601 -4.52912e-08 1.69329e-15)
(0.124601 -3.46987e-08 1.73355e-15)
(0.124601 -2.40663e-08 1.71948e-15)
(0.124601 -1.34537e-08 1.70625e-15)
(0.124601 -2.92553e-09 1.72215e-15)
(0.124601 7.46357e-09 1.70224e-15)
(0.124601 1.76479e-08 1.72342e-15)
(0.124601 2.75939e-08 1.71404e-15)
(0.124601 3.72433e-08 1.62637e-15)
(0.124601 4.66148e-08 1.68876e-15)
(0.124601 5.56519e-08 1.65652e-15)
(0.124601 6.4586e-08 1.57993e-15)
(0.124601 7.26001e-08 1.65846e-15)
(0.124601 8.32683e-08 1.62314e-15)
(0.124601 7.70041e-08 1.70478e-15)
(0.124601 7.57615e-08 1.70221e-15)
(0.124601 8.17448e-08 1.63041e-15)
(0.124601 9.30485e-08 1.71235e-15)
(0.124601 1.25177e-07 1.66379e-15)
(0.124601 1.4783e-07 1.7376e-15)
(0.124601 1.58829e-07 1.71632e-15)
(0.124601 1.61365e-07 1.65249e-15)
(0.124601 1.58864e-07 1.72998e-15)
(0.124601 1.53581e-07 1.69439e-15)
(0.124601 1.46953e-07 1.75822e-15)
(0.124601 1.40513e-07 1.72926e-15)
(0.124601 1.34533e-07 1.67363e-15)
(0.124601 1.34948e-07 1.74073e-15)
(0.124601 1.35349e-07 1.69574e-15)
(0.124601 1.68474e-07 1.76328e-15)
(0.124602 1.8206e-07 1.75462e-15)
(0.124601 3.3782e-07 1.68932e-15)
(0.125459 1.82884e-07 2.1114e-15)
(0.125459 8.63203e-08 2.09072e-15)
(0.125459 2.93412e-09 2.14442e-15)
(0.125459 -5.00578e-08 1.90999e-15)
(0.125459 -9.21308e-08 2.07499e-15)
(0.125459 -1.1646e-07 2.17079e-15)
(0.125459 -1.37588e-07 2.1311e-15)
(0.125459 -1.52406e-07 2.1735e-15)
(0.125458 -1.60913e-07 2.12835e-15)
(0.125458 -1.64608e-07 2.11835e-15)
(0.125458 -1.64884e-07 2.12928e-15)
(0.125458 -1.62904e-07 2.07514e-15)
(0.125458 -1.5946e-07 2.10899e-15)
(0.125458 -1.55042e-07 2.07175e-15)
(0.125458 -1.4992e-07 2.06428e-15)
(0.125458 -1.44225e-07 2.05187e-15)
(0.125458 -1.38007e-07 1.97223e-15)
(0.125458 -1.31284e-07 1.97927e-15)
(0.125458 -1.24064e-07 1.94023e-15)
(0.125458 -1.16359e-07 1.92338e-15)
(0.125458 -1.08187e-07 1.94866e-15)
(0.125458 -9.95741e-08 1.89486e-15)
(0.125458 -9.05509e-08 1.93065e-15)
(0.125458 -8.11548e-08 1.88359e-15)
(0.125457 -7.14282e-08 1.9066e-15)
(0.125457 -6.14192e-08 1.92422e-15)
(0.125457 -5.11804e-08 1.87812e-15)
(0.125457 -4.07692e-08 1.9127e-15)
(0.125457 -3.02446e-08 1.90378e-15)
(0.125457 -1.96694e-08 1.90508e-15)
(0.125457 -9.10398e-09 1.93588e-15)
(0.125457 1.38572e-09 1.88879e-15)
(0.125457 1.17442e-08 1.92377e-15)
(0.125457 2.19038e-08 1.88833e-15)
(0.125457 3.18302e-08 1.89524e-15)
(0.125457 4.14563e-08 1.8805e-15)
(0.125457 5.08074e-08 1.9502e-15)
(0.125457 5.97714e-08 1.88165e-15)
(0.125457 6.86613e-08 1.86065e-15)
(0.125457 7.62873e-08 1.91607e-15)
(0.125457 8.65238e-08 1.91895e-15)
(0.125457 8.06785e-08 1.96768e-15)
(0.125457 7.76397e-08 1.93067e-15)
(0.125457 7.95061e-08 1.91711e-15)
(0.125457 8.49616e-08 1.98294e-15)
(0.125457 1.11583e-07 1.96665e-15)
(0.125457 1.33396e-07 2.01983e-15)
(0.125457 1.46666e-07 1.95627e-15)
(0.125457 1.5229e-07 1.96933e-15)
(0.125457 1.52499e-07 2.00377e-15)
(0.125457 1.49228e-07 2.00464e-15)
(0.125457 1.44006e-07 2.04516e-15)
(0.125457 1.38358e-07 1.97587e-15)
(0.125457 1.32837e-07 1.99164e-15)
(0.125457 1.32779e-07 2.01357e-15)
(0.125457 1.32953e-07 2.00286e-15)
(0.125457 1.62324e-07 2.04615e-15)
(0.125458 1.75477e-07 1.99725e-15)
(0.125457 3.10239e-07 1.99915e-15)
(0.126288 1.48432e-07 2.36292e-15)
(0.126288 7.32551e-08 2.24169e-15)
(0.126288 1.63285e-09 2.33738e-15)
(0.126288 -4.43287e-08 2.24007e-15)
(0.126288 -8.16215e-08 2.31737e-15)
(0.126288 -1.03552e-07 2.43354e-15)
(0.126288 -1.23132e-07 2.29707e-15)
(0.126288 -1.37633e-07 2.38743e-15)
(0.126288 -1.46751e-07 2.27963e-15)
(0.126288 -1.51497e-07 2.28719e-15)
(0.126288 -1.52921e-07 2.35594e-15)
(0.126288 -1.52011e-07 2.22236e-15)
(0.126287 -1.49496e-07 2.36009e-15)
(0.126287 -1.45858e-07 2.22674e-15)
(0.126287 -1.41383e-07 2.28285e-15)
(0.126287 -1.36223e-07 2.28616e-15)
(0.126287 -1.3045e-07 2.1303e-15)
(0.126287 -1.24099e-07 2.19524e-15)
(0.126287 -1.17194e-07 2.09328e-15)
(0.126287 -1.09759e-07 2.14678e-15)
(0.126287 -1.01822e-07 2.17974e-15)
(0.126287 -9.34152e-08 2.04743e-15)
(0.126287 -8.45749e-08 2.1843e-15)
(0.126287 -7.53423e-08 2.04407e-15)
(0.126287 -6.57626e-08 2.07714e-15)
(0.126287 -5.58858e-08 2.15949e-15)
(0.126287 -4.57658e-08 2.03675e-15)
(0.126287 -3.54612e-08 2.13032e-15)
(0.126287 -2.50318e-08 2.05875e-15)
(0.126287 -1.45414e-08 2.08777e-15)
(0.126286 -4.05139e-09 2.16743e-15)
(0.126286 6.37125e-09 2.03854e-15)
(0.126286 1.66702e-08 2.17648e-15)
(0.126286 2.67757e-08 2.03751e-15)
(0.126286 3.66529e-08 2.07033e-15)
(0.126286 4.62256e-08 2.12678e-15)
(0.126286 5.55248e-08 2.21918e-15)
(0.126286 6.43878e-08 2.08668e-15)
(0.126286 7.31881e-08 2.21638e-15)
(0.126286 8.04684e-08 2.1715e-15)
(0.126286 9.01456e-08 2.20852e-15)
(0.126286 8.4987e-08 2.22571e-15)
(0.126286 8.11414e-08 2.14252e-15)
(0.126286 8.0509e-08 2.23877e-15)
(0.126286 8.18721e-08 2.32425e-15)
(0.126286 1.03098e-07 2.2637e-15)
(0.126286 1.22501e-07 2.32246e-15)
(0.126286 1.36182e-07 2.16902e-15)
(0.126286 1.43585e-07 2.27881e-15)
(0.126286 1.45807e-07 2.32171e-15)
(0.126286 1.44241e-07 2.30467e-15)
(0.126286 1.40305e-07 2.34851e-15)
(0.126286 1.35404e-07 2.20549e-15)
(0.126286 1.30324e-07 2.27586e-15)
(0.126286 1.29734e-07 2.29102e-15)
(0.126286 1.29609e-07 2.30477e-15)
(0.126286 1.54982e-07 2.31448e-15)
(0.126287 1.67212e-07 2.22535e-15)
(0.126287 2.81961e-07 2.28487e-15)
(0.127091 1.14381e-07 2.51764e-15)
(0.127091 5.8339e-08 2.35842e-15)
(0.127091 -2.6977e-09 2.46343e-15)
(0.127091 -4.20421e-08 2.45824e-15)
(0.127091 -7.45468e-08 2.52142e-15)
(0.127091 -9.37374e-08 2.60127e-15)
(0.127091 -1.11168e-07 2.41854e-15)
(0.127091 -1.24571e-07 2.52288e-15)
(0.127091 -1.33526e-07 2.38608e-15)
(0.127091 -1.38694e-07 2.37855e-15)
(0.127091 -1.40813e-07 2.48737e-15)
(0.127091 -1.40668e-07 2.32263e-15)
(0.127091 -1.38884e-07 2.44721e-15)
(0.12709 -1.359e-07 2.34291e-15)
(0.12709 -1.31994e-07 2.34154e-15)
(0.12709 -1.27322e-07 2.42304e-15)
(0.12709 -1.21968e-07 2.2518e-15)
(0.12709 -1.15977e-07 2.33286e-15)
(0.12709 -1.09385e-07 2.21186e-15)
(0.12709 -1.02225e-07 2.20015e-15)
(0.12709 -9.45311e-08 2.32238e-15)
(0.12709 -8.63422e-08 2.16056e-15)
(0.12709 -7.76994e-08 2.2805e-15)
(0.12709 -6.86469e-08 2.16307e-15)
(0.12709 -5.92325e-08 2.18622e-15)
(0.12709 -4.95077e-08 2.29524e-15)
(0.12709 -3.95278e-08 2.16382e-15)
(0.12709 -2.93523e-08 2.27006e-15)
(0.12709 -1.90419e-08 2.1728e-15)
(0.12709 -8.66109e-09 2.18511e-15)
(0.12709 1.72781e-09 2.31061e-15)
(0.127089 1.20568e-08 2.13911e-15)
(0.127089 2.22688e-08 2.26755e-15)
(0.127089 3.22921e-08 2.14865e-15)
(0.127089 4.20911e-08 2.16001e-15)
(0.127089 5.15808e-08 2.28761e-15)
(0.127089 6.07966e-08 2.31832e-15)
(0.127089 6.9531e-08 2.24749e-15)
(0.127089 7.81986e-08 2.32294e-15)
(0.127089 8.51622e-08 2.32139e-15)
(0.127089 9.42191e-08 2.40063e-15)
(0.127089 8.98022e-08 2.37485e-15)
(0.127089 8.57274e-08 2.32567e-15)
(0.127089 8.36988e-08 2.39706e-15)
(0.127089 8.23866e-08 2.3977e-15)
(0.127089 9.88877e-08 2.45778e-15)
(0.127089 1.15226e-07 2.44e-15)
(0.127089 1.28025e-07 2.33406e-15)
(0.127089 1.36017e-07 2.44713e-15)
(0.127089 1.39441e-07 2.42897e-15)
(0.127089 1.39106e-07 2.50773e-15)
(0.127089 1.36198e-07 2.47499e-15)
(0.127089 1.31895e-07 2.39805e-15)
(0.127089 1.27157e-07 2.49728e-15)
(0.127089 1.25928e-07 2.45122e-15)
(0.127089 1.25381e-07 2.51359e-15)
(0.127089 1.46539e-07 2.48375e-15)
(0.127089 1.57297e-07 2.42239e-15)
(0.127089 2.53149e-07 2.50719e-15)
(0.127868 8.10298e-08 2.68187e-15)
(0.127868 4.22175e-08 2.54327e-15)
(0.127869 -9.24058e-09 2.60183e-15)
(0.127869 -4.24824e-08 2.67959e-15)
(0.127869 -7.03632e-08 2.70115e-15)
(0.127869 -8.66918e-08 2.75711e-15)
(0.127869 -1.01641e-07 2.60083e-15)
(0.127868 -1.13409e-07 2.67485e-15)
(0.127868 -1.21585e-07 2.55529e-15)
(0.127868 -1.26604e-07 2.57043e-15)
(0.127868 -1.28955e-07 2.64884e-15)
(0.127868 -1.2923e-07 2.51248e-15)
(0.127868 -1.27929e-07 2.59478e-15)
(0.127868 -1.25425e-07 2.47522e-15)
(0.127868 -1.21966e-07 2.53723e-15)
(0.127868 -1.17699e-07 2.58782e-15)
(0.127868 -1.12705e-07 2.4376e-15)
(0.127868 -1.07037e-07 2.49975e-15)
(0.127868 -1.00734e-07 2.35272e-15)
(0.127868 -9.38333e-08 2.41126e-15)
(0.127867 -8.6376e-08 2.49368e-15)
(0.127867 -7.84041e-08 2.35213e-15)
(0.127867 -6.9962e-08 2.43191e-15)
(0.127867 -6.10966e-08 2.30201e-15)
(0.127867 -5.18573e-08 2.38141e-15)
(0.127867 -4.22972e-08 2.46327e-15)
(0.127867 -3.24725e-08 2.30942e-15)
(0.127867 -2.24432e-08 2.4399e-15)
(0.127867 -1.22708e-08 2.35959e-15)
(0.127867 -2.02038e-09 2.39416e-15)
(0.127867 8.24503e-09 2.48287e-15)
(0.127867 1.84567e-08 2.33746e-15)
(0.127867 2.85568e-08 2.42047e-15)
(0.127867 3.84717e-08 2.3284e-15)
(0.127867 4.81649e-08 2.36449e-15)
(0.127867 5.75434e-08 2.48468e-15)
(0.127867 6.66453e-08 2.50146e-15)
(0.127867 7.52245e-08 2.37254e-15)
(0.127867 8.37197e-08 2.53823e-15)
(0.127867 9.0384e-08 2.54798e-15)
(0.127866 9.88013e-08 2.61378e-15)
(0.127866 9.50851e-08 2.58883e-15)
(0.127866 9.10893e-08 2.4204e-15)
(0.127866 8.83708e-08 2.61906e-15)
(0.127866 8.54411e-08 2.61963e-15)
(0.127866 9.80646e-08 2.67281e-15)
(0.127866 1.1128e-07 2.64731e-15)
(0.127866 1.22442e-07 2.47915e-15)
(0.127866 1.30092e-07 2.6415e-15)
(0.127866 1.33937e-07 2.6585e-15)
(0.127866 1.34284e-07 2.72703e-15)
(0.127866 1.32046e-07 2.68717e-15)
(0.127867 1.28104e-07 2.58909e-15)
(0.127867 1.23539e-07 2.7148e-15)
(0.127867 1.21513e-07 2.6928e-15)
(0.127867 1.2037e-07 2.74366e-15)
(0.127867 1.37113e-07 2.70789e-15)
(0.127867 1.45826e-07 2.57318e-15)
(0.127867 2.23914e-07 2.73272e-15)
(0.128621 4.85372e-08 2.85267e-15)
(0.128621 2.53295e-08 2.78111e-15)
(0.128621 -1.73707e-08 2.78415e-15)
(0.128621 -4.50202e-08 2.90693e-15)
(0.128621 -6.85315e-08 2.90348e-15)
(0.128621 -8.20238e-08 2.92632e-15)
(0.128621 -9.436e-08 2.84235e-15)
(0.128621 -1.0417e-07 2.859e-15)
(0.128621 -1.11117e-07 2.79089e-15)
(0.128621 -1.15511e-07 2.79637e-15)
(0.128621 -1.17668e-07 2.82487e-15)
(0.128621 -1.1801e-07 2.7421e-15)
(0.128621 -1.1692e-07 2.78772e-15)
(0.12862 -1.1469e-07 2.75604e-15)
(0.12862 -1.11524e-07 2.76225e-15)
(0.12862 -1.07546e-07 2.76797e-15)
(0.12862 -1.02829e-07 2.68276e-15)
(0.12862 -9.74199e-08 2.69818e-15)
(0.12862 -9.1359e-08 2.64336e-15)
(0.12862 -8.46857e-08 2.64853e-15)
(0.12862 -7.74419e-08 2.67946e-15)
(0.12862 -6.96718e-08 2.59711e-15)
(0.12862 -6.14215e-08 2.62984e-15)
(0.12862 -5.27394e-08 2.59381e-15)
(0.12862 -4.36761e-08 2.61556e-15)
(0.12862 -3.42852e-08 2.64969e-15)
(0.12862 -2.46234e-08 2.60113e-15)
(0.12862 -1.47511e-08 2.63851e-15)
(0.12862 -4.73009e-09 2.60366e-15)
(0.128619 5.37409e-09 2.63235e-15)
(0.128619 1.54981e-08 2.6661e-15)
(0.128619 2.55725e-08 2.57223e-15)
(0.128619 3.55391e-08 2.62336e-15)
(0.128619 4.53222e-08 2.57677e-15)
(0.128619 5.48846e-08 2.60124e-15)
(0.128619 6.41258e-08 2.62076e-15)
(0.128619 7.30851e-08 2.6825e-15)
(0.128619 8.14838e-08 2.66539e-15)
(0.128619 8.97709e-08 2.70894e-15)
(0.128619 9.61449e-08 2.76424e-15)
(0.128619 1.03927e-07 2.74918e-15)
(0.128619 1.00833e-07 2.78077e-15)
(0.128619 9.70601e-08 2.76181e-15)
(0.128619 9.40758e-08 2.79053e-15)
(0.128619 9.02667e-08 2.83473e-15)
(0.128619 9.98283e-08 2.80917e-15)
(0.128619 1.10187e-07 2.83563e-15)
(0.128619 1.19385e-07 2.77416e-15)
(0.128619 1.2606e-07 2.81638e-15)
(0.128619 1.29671e-07 2.8773e-15)
(0.128619 1.30158e-07 2.86527e-15)
(0.128619 1.28186e-07 2.88554e-15)
(0.128619 1.24309e-07 2.86089e-15)
(0.128619 1.19688e-07 2.89192e-15)
(0.128619 1.16664e-07 2.92283e-15)
(0.128619 1.14705e-07 2.89382e-15)
(0.128619 1.26845e-07 2.91411e-15)
(0.128619 1.3294e-07 2.88746e-15)
(0.128619 1.94362e-07 2.91496e-15)
(0.129349 1.69792e-08 3.02871e-15)
(0.129349 7.96548e-09 3.01315e-15)
(0.129349 -2.66281e-08 2.98195e-15)
(0.129349 -4.91369e-08 3.08864e-15)
(0.129349 -6.85585e-08 3.09691e-15)
(0.129349 -7.93262e-08 3.10439e-15)
(0.129349 -8.90554e-08 3.07395e-15)
(0.129349 -9.67484e-08 3.05587e-15)
(0.129349 -1.02173e-07 3.02502e-15)
(0.129349 -1.05581e-07 3.03805e-15)
(0.129349 -1.0718e-07 3.00642e-15)
(0.129349 -1.07265e-07 2.9894e-15)
(0.129349 -1.06112e-07 2.99326e-15)
(0.129349 -1.03935e-07 2.9891e-15)
(0.129348 -1.00888e-07 3.00263e-15)
(0.129348 -9.70619e-08 2.95386e-15)
(0.129348 -9.25137e-08 2.92164e-15)
(0.129348 -8.7281e-08 2.90941e-15)
(0.129348 -8.13981e-08 2.88803e-15)
(0.129348 -7.49018e-08 2.89991e-15)
(0.129348 -6.78332e-08 2.87054e-15)
(0.129348 -6.0236e-08 2.84788e-15)
(0.129348 -5.21566e-08 2.84665e-15)
(0.129348 -4.36432e-08 2.84153e-15)
(0.129348 -3.47467e-08 2.86742e-15)
(0.129348 -2.55206e-08 2.84285e-15)
(0.129348 -1.60217e-08 2.84036e-15)
(0.129348 -6.31005e-09 2.85093e-15)
(0.129348 3.5525e-09 2.85315e-15)
(0.129347 1.35004e-08 2.88147e-15)
(0.129347 2.34703e-08 2.85442e-15)
(0.129347 3.33923e-08 2.83186e-15)
(0.129347 4.32077e-08 2.83893e-15)
(0.129347 5.28394e-08 2.82646e-15)
(0.129347 6.22491e-08 2.85565e-15)
(0.129347 7.13297e-08 2.76505e-15)
(0.129347 8.01203e-08 2.88497e-15)
(0.129347 8.83156e-08 2.93205e-15)
(0.129347 9.63632e-08 2.90074e-15)
(0.129347 1.0245e-07 2.99302e-15)
(0.129347 1.09615e-07 2.87872e-15)
(0.129347 1.07054e-07 2.98298e-15)
(0.129347 1.03553e-07 3.01941e-15)
(0.129347 1.00537e-07 2.97947e-15)
(0.129347 9.63298e-08 3.06147e-15)
(0.129347 1.0352e-07 2.9383e-15)
(0.129347 1.11423e-07 3.03528e-15)
(0.129347 1.1862e-07 3.0637e-15)
(0.129347 1.23961e-07 3.0158e-15)
(0.129347 1.2685e-07 3.10781e-15)
(0.129347 1.27005e-07 2.99574e-15)
(0.129347 1.24897e-07 3.09326e-15)
(0.129347 1.20762e-07 3.13577e-15)
(0.129347 1.15818e-07 3.09022e-15)
(0.129347 1.11565e-07 3.16241e-15)
(0.129347 1.08533e-07 3.03537e-15)
(0.129347 1.15893e-07 3.12982e-15)
(0.129347 1.18809e-07 3.15783e-15)
(0.129347 1.64606e-07 3.11572e-15)
(0.130053 -1.3614e-08 3.20735e-15)
(0.130053 -9.68364e-09 3.23838e-15)
(0.130053 -3.66848e-08 3.17619e-15)
(0.130053 -5.44269e-08 3.29241e-15)
(0.130053 -7.00219e-08 3.29191e-15)
(0.130053 -7.82124e-08 3.28467e-15)
(0.130053 -8.5425e-08 3.30098e-15)
(0.130053 -9.0965e-08 3.24995e-15)
(0.130053 -9.47026e-08 3.25756e-15)
(0.130053 -9.68763e-08 3.28561e-15)
(0.130053 -9.76331e-08 3.17581e-15)
(0.130053 -9.71825e-08 3.22699e-15)
(0.130053 -9.57132e-08 3.20078e-15)
(0.130053 -9.33728e-08 3.22761e-15)
(0.130053 -9.0262e-08 3.25403e-15)
(0.130053 -8.64397e-08 3.12951e-15)
(0.130052 -8.19391e-08 3.16231e-15)
(0.130052 -7.67837e-08 3.1226e-15)
(0.130052 -7.09986e-08 3.13509e-15)
(0.130052 -6.4615e-08 3.15935e-15)
(0.130052 -5.76697e-08 3.05039e-15)
(0.130052 -5.02041e-08 3.09545e-15)
(0.130052 -4.22628e-08 3.06664e-15)
(0.130052 -3.3893e-08 3.09302e-15)
(0.130052 -2.51443e-08 3.12922e-15)
(0.130052 -1.60699e-08 3.02543e-15)
(0.130052 -6.72554e-09 3.08359e-15)
(0.130052 2.82926e-09 3.06636e-15)
(0.130052 1.25332e-08 3.1007e-15)
(0.130052 2.23213e-08 3.13841e-15)
(0.130052 3.213e-08 3.03063e-15)
(0.130051 4.18897e-08 3.07913e-15)
(0.130051 5.15412e-08 3.05615e-15)
(0.130051 6.10061e-08 3.0794e-15)
(0.130051 7.02452e-08 3.11653e-15)
(0.130051 7.91454e-08 2.97769e-15)
(0.130051 8.77447e-08 3.04636e-15)
(0.130051 9.57165e-08 3.1667e-15)
(0.130051 1.03498e-07 3.08799e-15)
(0.130051 1.09298e-07 3.15356e-15)
(0.130051 1.15869e-07 3.064e-15)
(0.130051 1.13755e-07 3.13912e-15)
(0.130051 1.10523e-07 3.33099e-15)
(0.130051 1.07587e-07 3.16045e-15)