/*--------------------------------*- C++ -*----------------------------------*\
  =========                 |
  \\      /  F ield         | OpenFOAM: The Open Source CFD Toolbox
   \\    /   O peration     | Website:  https://openfoam.org
    \\  /    A nd           | Version:  7
     \\/     M anipulation  |
\*---------------------------------------------------------------------------*/
FoamFile
{
    version     2.0;
    format      ascii;
    class       surfaceScalarField;
    location    "19500";
    object      phi;
}
// * * * * * * * * * * * * * * * * * * * * * * * * * * * * * * * * * * * * * //

dimensions      [0 3 -1 0 0 0 0];

internalField   nonuniform List<scalar> 
7768
(
0.000338884
-5.93533e-10
0.000338884
-7.755e-10
0.000338884
-6.68553e-10
0.000338884
-5.04534e-10
0.000338884
-3.56574e-10
0.000338885
-2.34563e-10
0.000338885
-1.35173e-10
0.000338885
-5.35777e-11
0.000338885
1.60513e-11
0.000338885
7.64782e-11
0.000338885
1.28827e-10
0.000338886
1.74909e-10
0.000338886
2.17357e-10
0.000338886
2.56104e-10
0.000338886
2.90831e-10
0.000338886
3.23578e-10
0.000338886
3.5882e-10
0.000338887
3.93335e-10
0.000338887
4.46148e-10
0.000338887
5.10745e-10
6.78226e-10
0.000338879
-5.02501e-10
0.00033888
-5.6627e-10
0.00033888
-5.79797e-10
0.00033888
-5.73888e-10
0.000338881
-5.58218e-10
0.000338881
-5.31465e-10
0.000338881
-4.94596e-10
0.000338881
-4.45523e-10
0.000338882
-3.80078e-10
0.000338882
-2.95084e-10
0.000338882
-1.89564e-10
0.000338882
-4.86134e-11
0.000338883
1.26947e-10
0.000338883
3.64114e-10
0.000338883
7.47947e-10
2.9962e-10
0.000330275
-8.07804e-10
0.000330275
-9.7428e-10
0.000330276
-8.5962e-10
0.000330276
-6.95258e-10
0.000330276
-5.4888e-10
0.000330276
-4.28242e-10
0.000330276
-3.29267e-10
0.000330277
-2.4581e-10
0.000330277
-1.73145e-10
0.000330277
-1.08958e-10
0.000330277
-5.23126e-11
0.000330277
-2.32991e-12
0.000330278
4.50625e-11
0.000330278
8.92216e-11
0.000330278
1.29497e-10
0.000330278
1.67971e-10
0.000330278
2.09379e-10
0.000330278
2.5041e-10
0.000330278
3.154e-10
0.000330279
3.93101e-10
0.000330279
6.10481e-10
0.000330279
8.59184e-10
1.02713e-09
0.00033027
-6.16221e-10
0.00033027
-6.42883e-10
0.000330271
-6.06494e-10
0.000330271
-7.22803e-10
0.000330271
-9.00924e-10
0.000330272
-9.25746e-10
0.000330272
-9.04139e-10
0.000330272
-8.73371e-10
0.000330273
-8.37791e-10
0.000330273
-7.95048e-10
0.000330273
-7.45263e-10
0.000330273
-6.84627e-10
0.000330273
-6.10508e-10
0.000330274
-5.19116e-10
0.000330274
-4.09814e-10
0.000330274
-2.66503e-10
0.000330274
-9.13371e-11
0.000330275
1.39604e-10
0.000330275
5.21043e-10
7.59168e-11
0.00032185
-1.00741e-09
0.00032185
-1.16908e-09
0.00032185
-1.04887e-09
0.00032185
-8.82089e-10
0.00032185
-7.35823e-10
0.000321851
-6.16612e-10
0.000321851
-5.17442e-10
0.000321851
-4.32157e-10
0.000321851
-3.57164e-10
0.000321851
-2.89604e-10
0.000321852
-2.29142e-10
0.000321852
-1.74625e-10
0.000321852
-1.22438e-10
0.000321852
-7.32824e-11
0.000321852
-2.77392e-11
0.000321852
1.62333e-11
0.000321852
6.26305e-11
0.000321853
1.09672e-10
0.000321853
1.81787e-10
0.000321853
2.71616e-10
0.000321853
4.38799e-10
0.000321853
6.92036e-10
0.000321853
1.01248e-09
0.000321853
1.24619e-09
0.000321853
1.25608e-09
0.000321853
1.19165e-09
0.000321852
1.12909e-09
0.000321852
1.07901e-09
0.000321852
1.03897e-09
0.000321852
1.00587e-09
0.000321851
9.75827e-10
0.000321851
9.47606e-10
0.000321851
9.23306e-10
0.000321851
9.00818e-10
0.000321851
8.79265e-10
0.000321851
8.60167e-10
0.000321851
8.4256e-10
0.00032185
8.26965e-10
0.00032185
8.12747e-10
0.00032185
7.99232e-10
0.00032185
7.86458e-10
0.00032185
7.75024e-10
0.00032185
7.65059e-10
0.00032185
7.55425e-10
0.00032185
7.45151e-10
0.000321849
7.33704e-10
0.000321849
7.23203e-10
0.000321849
7.10997e-10
0.000321849
6.96971e-10
0.000321849
6.8159e-10
0.000321849
6.62966e-10
0.000321849
6.43466e-10
0.000321849
6.22532e-10
0.000321849
5.98677e-10
0.000321849
5.72895e-10
0.000321849
5.45943e-10
0.000321848
5.16411e-10
0.000321848
4.85626e-10
0.000321848
4.53693e-10
0.000321848
4.2082e-10
0.000321848
3.85696e-10
0.000321848
3.49492e-10
0.000321848
3.13791e-10
0.000321848
2.77026e-10
0.000321848
2.40596e-10
0.000321848
2.03318e-10
0.000321848
1.66909e-10
0.000321848
1.29389e-10
0.000321847
8.95258e-11
0.000321847
5.16772e-11
0.000321847
1.58879e-11
0.000321847
-2.12462e-11
0.000321847
-6.03039e-11
0.000321847
-9.84586e-11
0.000321847
-1.34256e-10
0.000321847
-1.69137e-10
0.000321847
-2.05148e-10
0.000321847
-2.4041e-10
0.000321847
-2.73953e-10
0.000321847
-3.07274e-10
0.000321847
-3.40177e-10
0.000321847
-3.72413e-10
0.000321846
-4.06307e-10
0.000321846
-4.40371e-10
0.000321846
-4.70846e-10
0.000321846
-4.97746e-10
0.000321846
-5.23309e-10
0.000321846
-5.481e-10
0.000321846
-5.71496e-10
0.000321846
-5.93457e-10
0.000321846
-6.11472e-10
0.000321846
-6.26259e-10
0.000321846
-6.38604e-10
0.000321846
-6.45835e-10
0.000321846
-6.46786e-10
0.000321846
-6.40503e-10
0.000321845
-6.25212e-10
0.000321845
-5.96762e-10
0.000321845
-5.4331e-10
0.000321845
-6.45921e-10
0.000321846
-8.09619e-10
0.000321846
-8.23495e-10
0.000321846
-7.79754e-10
0.000321846
-8.95227e-10
0.000321846
-1.08918e-09
0.000321847
-1.13923e-09
0.000321847
-1.12733e-09
0.000321847
-1.09659e-09
0.000321847
-1.05758e-09
0.000321847
-1.0098e-09
0.000321848
-9.54558e-10
0.000321848
-8.87616e-10
0.000321848
-8.09458e-10
0.000321848
-7.15441e-10
0.000321848
-6.04077e-10
0.000321849
-4.61637e-10
0.000321849
-2.9003e-10
0.000321849
-6.7831e-11
0.000321849
3.07534e-10
-1.31054e-10
0.000313603
-1.18092e-09
0.000313603
-1.34704e-09
0.000313603
-1.22884e-09
0.000313604
-1.06166e-09
0.000313604
-9.15246e-10
0.000313604
-7.95919e-10
0.000313604
-6.96252e-10
0.000313604
-6.09635e-10
0.000313604
-5.32245e-10
0.000313605
-4.62033e-10
0.000313605
-3.98463e-10
0.000313605
-3.39048e-10
0.000313605
-2.8288e-10
0.000313605
-2.29356e-10
0.000313605
-1.79076e-10
0.000313606
-1.30031e-10
0.000313606
-7.8837e-11
0.000313606
-2.63451e-11
0.000313606
4.8605e-11
0.000313606
1.47635e-10
0.000313606
2.61096e-10
0.000313606
4.62944e-10
0.000313607
7.7582e-10
0.000313607
1.08566e-09
0.000313607
1.26222e-09
0.000313607
1.29758e-09
0.000313607
1.2703e-09
0.000313606
1.22819e-09
0.000313606
1.18798e-09
0.000313606
1.15087e-09
0.000313606
1.11733e-09
0.000313606
1.08665e-09
0.000313606
1.05858e-09
0.000313606
1.03238e-09
0.000313605
1.00865e-09
0.000313605
9.86066e-10
0.000313605
9.64796e-10
0.000313605
9.45563e-10
0.000313605
9.28151e-10
0.000313605
9.11901e-10
0.000313605
8.95968e-10
0.000313605
8.82089e-10
0.000313605
8.69675e-10
0.000313604
8.57278e-10
0.000313604
8.44699e-10
0.000313604
8.31249e-10
0.000313604
8.17606e-10
0.000313604
8.02855e-10
0.000313604
7.87366e-10
0.000313604
7.69658e-10
0.000313604
7.49843e-10
0.000313604
7.30115e-10
0.000313604
7.06931e-10
0.000313604
6.81383e-10
0.000313603
6.54562e-10
0.000313603
6.25704e-10
0.000313603
5.95832e-10
0.000313603
5.64102e-10
0.000313603
5.31698e-10
0.000313603
4.98535e-10
0.000313603
4.61715e-10
0.000313603
4.25714e-10
0.000313603
3.90133e-10
0.000313603
3.52365e-10
0.000313603
3.16256e-10
0.000313603
2.78639e-10
0.000313603
2.41025e-10
0.000313602
2.03128e-10
0.000313602
1.63915e-10
0.000313602
1.26163e-10
0.000313602
8.86355e-11
0.000313602
5.07362e-11
0.000313602
1.31213e-11
0.000313602
-2.43773e-11
0.000313602
-6.08029e-11
0.000313602
-9.56224e-11
0.000313602
-1.30532e-10
0.000313602
-1.65454e-10
0.000313602
-1.99762e-10
0.000313602
-2.32901e-10
0.000313602
-2.65655e-10
0.000313601
-2.98137e-10
0.000313601
-3.32083e-10
0.000313601
-3.65009e-10
0.000313601
-3.95063e-10
0.000313601
-4.22805e-10
0.000313601
-4.48618e-10
0.000313601
-4.73342e-10
0.000313601
-4.9615e-10
0.000313601
-5.17081e-10
0.000313601
-5.35145e-10
0.000313601
-5.51025e-10
0.000313601
-5.64072e-10
0.000313601
-5.71745e-10
0.0003136
-5.74402e-10
0.0003136
-5.69813e-10
0.0003136
-5.56626e-10
0.0003136
-5.39297e-10
0.0003136
-5.02701e-10
0.0003136
-6.23136e-10
0.0003136
-8.20816e-10
0.0003136
-8.76612e-10
0.0003136
-8.65212e-10
0.0003136
-9.73652e-10
0.000313601
-1.15394e-09
0.000313601
-1.22661e-09
0.000313601
-1.24077e-09
0.000313601
-1.2275e-09
0.000313601
-1.20032e-09
0.000313601
-1.15851e-09
0.000313601
-1.10572e-09
0.000313601
-1.04082e-09
0.000313602
-9.64573e-10
0.000313602
-8.72527e-10
0.000313602
-7.63042e-10
0.000313602
-6.24892e-10
0.000313602
-4.59722e-10
0.000313602
-2.4978e-10
0.000313603
1.16013e-10
-3.13469e-10
0.000305532
-1.32344e-09
0.000305532
-1.49948e-09
0.000305532
-1.3909e-09
0.000305532
-1.22809e-09
0.000305532
-1.08285e-09
0.000305532
-9.62697e-10
0.000305533
-8.62958e-10
0.000305533
-7.7567e-10
0.000305533
-6.95853e-10
0.000305533
-6.24064e-10
0.000305533
-5.58057e-10
0.000305533
-4.94755e-10
0.000305533
-4.34516e-10
0.000305534
-3.77046e-10
0.000305534
-3.22366e-10
0.000305534
-2.68665e-10
0.000305534
-2.13118e-10
0.000305534
-1.55668e-10
0.000305534
-8.02874e-11
0.000305534
2.43167e-11
0.000305535
1.02102e-10
0.000305535
2.42798e-10
0.000305535
4.88065e-10
0.000305535
7.8637e-10
0.000305536
1.06852e-09
0.000305536
1.22267e-09
0.000305536
1.27362e-09
0.000305536
1.27266e-09
0.000305536
1.2545e-09
0.000305535
1.22885e-09
0.000305535
1.20144e-09
0.000305535
1.17588e-09
0.000305535
1.15123e-09
0.000305535
1.12619e-09
0.000305535
1.10308e-09
0.000305535
1.08078e-09
0.000305535
1.05938e-09
0.000305535
1.03936e-09
0.000305535
1.0201e-09
0.000305535
1.00266e-09
0.000305534
9.86709e-10
0.000305534
9.72026e-10
0.000305534
9.57918e-10
0.000305534
9.4322e-10
0.000305534
9.2952e-10
0.000305534
9.15907e-10
0.000305534
8.9966e-10
0.000305534
8.8296e-10
0.000305534
8.66354e-10
0.000305534
8.47975e-10
0.000305534
8.28516e-10
0.000305534
8.07373e-10
0.000305533
7.82301e-10
0.000305533
7.56595e-10
0.000305533
7.29451e-10
0.000305533
6.99671e-10
0.000305533
6.69423e-10
0.000305533
6.36838e-10
0.000305533
6.04635e-10
0.000305533
5.71233e-10
0.000305533
5.34216e-10
0.000305533
4.98735e-10
0.000305533
4.62996e-10
0.000305533
4.25061e-10
0.000305533
3.88451e-10
0.000305533
3.50454e-10
0.000305532
3.12515e-10
0.000305532
2.75499e-10
0.000305532
2.37009e-10
0.000305532
1.98594e-10
0.000305532
1.60473e-10
0.000305532
1.2224e-10
0.000305532
8.50807e-11
0.000305532
4.90857e-11
0.000305532
1.29514e-11
0.000305532
-2.23043e-11
0.000305532
-5.68761e-11
0.000305532
-9.15848e-11
0.000305532
-1.25944e-10
0.000305532
-1.58389e-10
0.000305531
-1.91029e-10
0.000305531
-2.24143e-10
0.000305531
-2.576e-10
0.000305531
-2.88639e-10
0.000305531
-3.1812e-10
0.000305531
-3.46964e-10
0.000305531
-3.73164e-10
0.000305531
-3.98503e-10
0.000305531
-4.20522e-10
0.000305531
-4.40541e-10
0.000305531
-4.59138e-10
0.000305531
-4.7515e-10
0.000305531
-4.88366e-10
0.00030553
-4.95993e-10
0.00030553
-4.99715e-10
0.00030553
-4.97965e-10
0.00030553
-4.89018e-10
0.00030553
-4.79629e-10
0.00030553
-4.56713e-10
0.00030553
-5.67073e-10
0.00030553
-7.53704e-10
0.00030553
-8.37013e-10
0.00030553
-8.66108e-10
0.00030553
-9.77999e-10
0.00030553
-1.14192e-09
0.00030553
-1.22426e-09
0.00030553
-1.26132e-09
0.00030553
-1.27113e-09
0.00030553
-1.2631e-09
0.00030553
-1.23541e-09
0.00030553
-1.19287e-09
0.00030553
-1.13789e-09
0.00030553
-1.06899e-09
0.000305531
-9.82852e-10
0.000305531
-8.80281e-10
0.000305531
-7.50046e-10
0.000305531
-5.93594e-10
0.000305531
-3.98684e-10
0.000305531
-4.77494e-11
-4.6772e-10
0.000297632
-1.43343e-09
0.000297632
-1.62143e-09
0.000297632
-1.52787e-09
0.000297632
-1.3752e-09
0.000297632
-1.23447e-09
0.000297632
-1.11494e-09
0.000297633
-1.01502e-09
0.000297633
-9.2799e-10
0.000297633
-8.47376e-10
0.000297633
-7.74276e-10
0.000297633
-7.06189e-10
0.000297633
-6.39601e-10
0.000297633
-5.75456e-10
0.000297634
-5.1458e-10
0.000297634
-4.55576e-10
0.000297634
-3.9768e-10
0.000297634
-3.38591e-10
0.000297634
-2.76677e-10
0.000297634
-2.0193e-10
0.000297634
-9.53488e-11
0.000297634
-3.72362e-11
0.000297635
5.32806e-11
0.000297635
2.23185e-10
0.000297635
4.63027e-10
0.000297636
7.74357e-10
0.000297636
1.01333e-09
0.000297636
1.14825e-09
0.000297636
1.20841e-09
0.000297636
1.22994e-09
0.000297636
1.23115e-09
0.000297636
1.2213e-09
0.000297636
1.20805e-09
0.000297636
1.19309e-09
0.000297636
1.17505e-09
0.000297636
1.15672e-09
0.000297636
1.1381e-09
0.000297636
1.12012e-09
0.000297636
1.10358e-09
0.000297636
1.08503e-09
0.000297635
1.06831e-09
0.000297635
1.05412e-09
0.000297635
1.03983e-09
0.000297635
1.02609e-09
0.000297635
1.01103e-09
0.000297635
9.9633e-10
0.000297635
9.82856e-10
0.000297635
9.66925e-10
0.000297635
9.49335e-10
0.000297635
9.319e-10
0.000297635
9.14673e-10
0.000297635
8.95911e-10
0.000297635
8.73202e-10
0.000297635
8.48208e-10
0.000297635
8.2265e-10
0.000297634
7.95595e-10
0.000297634
7.65631e-10
0.000297634
7.35368e-10
0.000297634
7.03399e-10
0.000297634
6.70706e-10
0.000297634
6.36787e-10
0.000297634
6.01051e-10
0.000297634
5.66614e-10
0.000297634
5.30318e-10
0.000297634
4.93187e-10
0.000297634
4.56727e-10
0.000297634
4.18411e-10
0.000297634
3.80801e-10
0.000297634
3.44641e-10
0.000297634
3.07023e-10
0.000297633
2.68345e-10
0.000297633
2.30774e-10
0.000297633
1.92827e-10
0.000297633
1.55539e-10
0.000297633
1.20308e-10
0.000297633
8.46481e-11
0.000297633
5.01462e-11
0.000297633
1.57259e-11
0.000297633
-1.89957e-11
0.000297633
-5.29645e-11
0.000297633
-8.55818e-11
0.000297633
-1.18386e-10
0.000297633
-1.51192e-10
0.000297632
-1.82988e-10
0.000297632
-2.12677e-10
0.000297632
-2.4218e-10
0.000297632
-2.71204e-10
0.000297632
-2.97414e-10
0.000297632
-3.22231e-10
0.000297632
-3.44361e-10
0.000297632
-3.65497e-10
0.000297632
-3.84115e-10
0.000297632
-3.98954e-10
0.000297632
-4.11738e-10
0.000297632
-4.20312e-10
0.000297632
-4.2482e-10
0.000297632
-4.25629e-10
0.000297631
-4.2116e-10
0.000297631
-4.1775e-10
0.000297631
-4.0601e-10
0.000297631
-5.01958e-10
0.000297631
-6.61698e-10
0.000297631
-7.50733e-10
0.000297631
-8.07579e-10
0.000297631
-9.25729e-10
0.000297631
-1.07815e-09
0.000297631
-1.16227e-09
0.000297631
-1.21349e-09
0.000297631
-1.24405e-09
0.000297631
-1.25512e-09
0.000297631
-1.24555e-09
0.000297631
-1.21904e-09
0.000297631
-1.17792e-09
0.000297631
-1.12018e-09
0.000297631
-1.04443e-09
0.000297631
-9.51586e-10
0.000297631
-8.32686e-10
0.000297631
-6.89844e-10
0.000297631
-5.12053e-10
0.000297631
-1.79744e-10
-5.91043e-10
0.0002899
-1.51085e-09
0.0002899
-1.71133e-09
0.0002899
-1.6366e-09
0.0002899
-1.49902e-09
0.0002899
-1.36707e-09
0.000289901
-1.25089e-09
0.000289901
-1.15151e-09
0.000289901
-1.06497e-09
0.000289901
-9.85165e-10
0.000289901
-9.1116e-10
0.000289901
-8.4125e-10
0.000289901
-7.71705e-10
0.000289902
-7.04113e-10
0.000289902
-6.40692e-10
0.000289902
-5.78602e-10
0.000289902
-5.1718e-10
0.000289902
-4.53803e-10
0.000289902
-3.87739e-10
0.000289902
-3.14386e-10
0.000289902
-2.09363e-10
0.000289903
-1.59871e-10
0.000289903
-1.03349e-10
0.000289903
3.64564e-12
0.000289903
1.72882e-10
0.000289903
4.59869e-10
0.000289904
7.34567e-10
0.000289904
9.32077e-10
0.000289904
1.05276e-09
0.000289904
1.12141e-09
0.000289904
1.15868e-09
0.000289904
1.17621e-09
0.000289904
1.18249e-09
0.000289904
1.1823e-09
0.000289904
1.17604e-09
0.000289904
1.1676e-09
0.000289904
1.15713e-09
0.000289904
1.14429e-09
0.000289904
1.13373e-09
0.000289904
1.12048e-09
0.000289904
1.1066e-09
0.000289904
1.09464e-09
0.000289904
1.08283e-09
0.000289904
1.07162e-09
0.000289904
1.05796e-09
0.000289904
1.04371e-09
0.000289904
1.03121e-09
0.000289904
1.01667e-09
0.000289904
1.00027e-09
0.000289904
9.84205e-10
0.000289904
9.67401e-10
0.000289904
9.49268e-10
0.000289904
9.27071e-10
0.000289904
9.03231e-10
0.000289904
8.78137e-10
0.000289903
8.51486e-10
0.000289903
8.21709e-10
0.000289903
7.91997e-10
0.000289903
7.62433e-10
0.000289903
7.2957e-10
0.000289903
6.94938e-10
0.000289903
6.61144e-10
0.000289903
6.27919e-10
0.000289903
5.91484e-10
0.000289903
5.5524e-10
0.000289903
5.19238e-10
0.000289903
4.82149e-10
0.000289903
4.45573e-10
0.000289903
4.08983e-10
0.000289903
3.72556e-10
0.000289903
3.34892e-10
0.000289903
2.97492e-10
0.000289902
2.6037e-10
0.000289902
2.24168e-10
0.000289902
1.89374e-10
0.000289902
1.54011e-10
0.000289902
1.19919e-10
0.000289902
8.5403e-11
0.000289902
5.20683e-11
0.000289902
1.89637e-11
0.000289902
-1.507e-11
0.000289902
-4.82086e-11
0.000289902
-7.96005e-11
0.000289902
-1.09548e-10
0.000289902
-1.38492e-10
0.000289902
-1.67645e-10
0.000289901
-1.96048e-10
0.000289901
-2.2178e-10
0.000289901
-2.46259e-10
0.000289901
-2.6976e-10
0.000289901
-2.9087e-10
0.000289901
-3.08495e-10
0.000289901
-3.23808e-10
0.000289901
-3.35822e-10
0.000289901
-3.45266e-10
0.000289901
-3.51533e-10
0.000289901
-3.53144e-10
0.000289901
-3.52017e-10
0.000289901
-3.54034e-10
0.000289901
-3.5192e-10
0.0002899
-4.35087e-10
0.0002899
-5.66825e-10
0.0002899
-6.4927e-10
0.0002899
-7.17352e-10
0.0002899
-8.37589e-10
0.0002899
-9.80506e-10
0.0002899
-1.06282e-09
0.0002899
-1.1207e-09
0.0002899
-1.16516e-09
0.0002899
-1.19218e-09
0.0002899
-1.20068e-09
0.0002899
-1.19108e-09
0.0002899
-1.16486e-09
0.0002899
-1.12063e-09
0.0002899
-1.05905e-09
0.0002899
-9.79265e-10
0.0002899
-8.73281e-10
0.0002899
-7.47103e-10
0.0002899
-5.90099e-10
0.0002899
-2.78689e-10
-6.81887e-10
0.000282333
-1.55748e-09
0.000282333
-1.77192e-09
0.000282333
-1.7176e-09
0.000282333
-1.5974e-09
0.000282333
-1.47731e-09
0.000282334
-1.36799e-09
0.000282334
-1.27149e-09
0.000282334
-1.1865e-09
0.000282334
-1.10821e-09
0.000282334
-1.03347e-09
0.000282334
-9.62009e-10
0.000282334
-8.91159e-10
0.000282334
-8.20556e-10
0.000282334
-7.54347e-10
0.000282335
-6.90182e-10
0.000282335
-6.25882e-10
0.000282335
-5.58648e-10
0.000282335
-4.89034e-10
0.000282335
-4.16341e-10
0.000282335
-3.15411e-10
0.000282335
-2.69004e-10
0.000282335
-2.31984e-10
0.000282336
-1.70422e-10
0.000282336
-6.39856e-11
0.000282336
1.72358e-10
0.000282336
4.41668e-10
0.000282337
6.7001e-10
0.000282337
8.35993e-10
0.000282337
9.49263e-10
0.000282337
1.02424e-09
0.000282337
1.0726e-09
0.000282337
1.10275e-09
0.000282337
1.12238e-09
0.000282337
1.13161e-09
0.000282337
1.13578e-09
0.000282337
1.13723e-09
0.000282337
1.13314e-09
0.000282337
1.1299e-09
0.000282337
1.12453e-09
0.000282337
1.11611e-09
0.000282337
1.10844e-09
0.000282337
1.10128e-09
0.000282337
1.093e-09
0.000282337
1.08192e-09
0.000282337
1.07097e-09
0.000282337
1.06056e-09
0.000282337
1.04837e-09
0.000282337
1.03511e-09
0.000282337
1.02091e-09
0.000282337
1.0049e-09
0.000282337
9.87613e-10
0.000282337
9.68091e-10
0.000282337
9.46575e-10
0.000282337
9.21686e-10
0.000282337
8.95764e-10
0.000282337
8.68037e-10
0.000282337
8.39691e-10
0.000282337
8.11782e-10
0.000282337
7.79291e-10
0.000282337
7.45307e-10
0.000282337
7.13732e-10
0.000282337
6.81285e-10
0.000282337
6.46372e-10
0.000282337
6.11503e-10
0.000282336
5.75819e-10
0.000282336
5.40429e-10
0.000282336
5.05194e-10
0.000282336
4.67902e-10
0.000282336
4.32435e-10
0.000282336
3.96722e-10
0.000282336
3.60233e-10
0.000282336
3.24865e-10
0.000282336
2.89533e-10
0.000282336
2.54614e-10
0.000282336
2.20765e-10
0.000282336
1.86636e-10
0.000282336
1.5177e-10
0.000282336
1.20443e-10
0.000282336
8.82222e-11
0.000282336
5.38218e-11
0.000282335
2.08709e-11
0.000282335
-9.152e-12
0.000282335
-3.85946e-11
0.000282335
-6.76958e-11
0.000282335
-9.46755e-11
0.000282335
-1.21727e-10
0.000282335
-1.48003e-10
0.000282335
-1.7235e-10
0.000282335
-1.95987e-10
0.000282335
-2.16608e-10
0.000282335
-2.33718e-10
0.000282335
-2.50258e-10
0.000282335
-2.61905e-10
0.000282334
-2.71076e-10
0.000282334
-2.7876e-10
0.000282334
-2.81954e-10
0.000282334
-2.83611e-10
0.000282334
-2.88939e-10
0.000282334
-2.94377e-10
0.000282334
-3.68105e-10
0.000282334
-4.76977e-10
0.000282334
-5.4851e-10
0.000282334
-6.16058e-10
0.000282334
-7.31637e-10
0.000282334
-8.63682e-10
0.000282333
-9.42973e-10
0.000282333
-1.00181e-09
0.000282333
-1.05294e-09
0.000282333
-1.09144e-09
0.000282333
-1.11384e-09
0.000282333
-1.1193e-09
0.000282333
-1.10798e-09
0.000282333
-1.07862e-09
0.000282333
-1.03147e-09
0.000282333
-9.66847e-10
0.000282333
-8.76063e-10
0.000282333
-7.66831e-10
0.000282333
-6.32816e-10
0.000282333
-3.45178e-10
-7.41232e-10
0.000274928
-1.57548e-09
0.000274928
-1.8053e-09
0.000274928
-1.77182e-09
0.000274928
-1.67057e-09
0.000274928
-1.56454e-09
0.000274928
-1.4648e-09
0.000274928
-1.37457e-09
0.000274928
-1.29288e-09
0.000274928
-1.2159e-09
0.000274928
-1.14134e-09
0.000274928
-1.06874e-09
0.000274929
-9.9723e-10
0.000274929
-9.25087e-10
0.000274929
-8.56011e-10
0.000274929
-7.89474e-10
0.000274929
-7.22658e-10
0.000274929
-6.5303e-10
0.000274929
-5.80756e-10
0.000274929
-5.08125e-10
0.000274929
-4.11145e-10
0.000274929
-3.65087e-10
0.00027493
-3.38728e-10
0.00027493
-3.05832e-10
0.00027493
-2.4775e-10
0.00027493
-6.89506e-11
0.00027493
1.69872e-10
0.000274931
4.01246e-10
0.000274931
5.91342e-10
0.000274931
7.38167e-10
0.000274931
8.46e-10
0.000274931
9.22888e-10
0.000274932
9.78641e-10
0.000274932
1.02014e-09
0.000274932
1.04691e-09
0.000274932
1.06544e-09
0.000274932
1.08076e-09
0.000274932
1.08929e-09
0.000274932
1.0943e-09
0.000274932
1.09797e-09
0.000274932
1.09801e-09
0.000274932
1.09653e-09
0.000274932
1.09463e-09
0.000274932
1.09045e-09
0.000274932
1.08479e-09
0.000274932
1.07843e-09
0.000274932
1.07064e-09
0.000274932
1.06207e-09
0.000274932
1.05245e-09
0.000274932
1.04155e-09
0.000274932
1.02802e-09
0.000274932
1.01168e-09
0.000274932
9.94511e-10
0.000274932
9.76342e-10
0.000274932
9.53465e-10
0.000274932
9.28916e-10
0.000274932
9.04021e-10
0.000274932
8.77547e-10
0.000274932
8.50679e-10
0.000274932
8.19731e-10
0.000274932
7.88053e-10
0.000274932
7.58319e-10
0.000274931
7.269e-10
0.000274931
6.93823e-10
0.000274931
6.60778e-10
0.000274931
6.26479e-10
0.000274931
5.92253e-10
0.000274931
5.58204e-10
0.000274931
5.22414e-10
0.000274931
4.87132e-10
0.000274931
4.52763e-10
0.000274931
4.1885e-10
0.000274931
3.85172e-10
0.000274931
3.50051e-10
0.000274931
3.15657e-10
0.000274931
2.83736e-10
0.000274931
2.49919e-10
0.000274931
2.16117e-10
0.000274931
1.85231e-10
0.00027493
1.53157e-10
0.00027493
1.20433e-10
0.00027493
8.85717e-11
0.00027493
5.88859e-11
0.00027493
2.97501e-11
0.00027493
1.03685e-12
0.00027493
-2.40523e-11
0.00027493
-4.9716e-11
0.00027493
-7.675e-11
0.00027493
-1.00551e-10
0.00027493
-1.23308e-10
0.00027493
-1.44302e-10
0.00027493
-1.61363e-10
0.00027493
-1.77327e-10
0.00027493
-1.89664e-10
0.000274929
-1.99193e-10
0.000274929
-2.06866e-10
0.000274929
-2.12139e-10
0.000274929
-2.16209e-10
0.000274929
-2.24207e-10
0.000274929
-2.35061e-10
0.000274929
-3.01461e-10
0.000274929
-3.93567e-10
0.000274929
-4.54635e-10
0.000274929
-5.15486e-10
0.000274929
-6.20407e-10
0.000274929
-7.3997e-10
0.000274928
-8.14751e-10
0.000274928
-8.71827e-10
0.000274928
-9.23633e-10
0.000274928
-9.67702e-10
0.000274928
-9.98914e-10
0.000274928
-1.01608e-09
0.000274928
-1.01773e-09
0.000274928
-1.0026e-09
0.000274928
-9.6937e-10
0.000274928
-9.19996e-10
0.000274927
-8.45779e-10
0.000274927
-7.53712e-10
0.000274927
-6.42862e-10
0.000274928
-3.8172e-10
-7.72381e-10
0.00026768
-1.56796e-09
0.00026768
-1.8131e-09
0.00026768
-1.80192e-09
0.00026768
-1.72086e-09
0.00026768
-1.63039e-09
0.000267681
-1.54235e-09
0.000267681
-1.46001e-09
0.000267681
-1.38309e-09
0.000267681
-1.30872e-09
0.000267681
-1.23546e-09
0.000267681
-1.16197e-09
0.000267681
-1.08937e-09
0.000267681
-1.01681e-09
0.000267681
-9.45895e-10
0.000267681
-8.77121e-10
0.000267681
-8.08159e-10
0.000267682
-7.3733e-10
0.000267682
-6.63178e-10
0.000267682
-5.89976e-10
0.000267682
-4.96064e-10
0.000267682
-4.48737e-10
0.000267682
-4.27765e-10
0.000267682
-4.11407e-10
0.000267682
-3.86741e-10
0.000267682
-2.60211e-10
0.000267683
-6.3344e-11
0.000267683
1.51783e-10
0.000267683
3.46993e-10
0.000267683
5.11755e-10
0.000267684
6.43189e-10
0.000267684
7.44399e-10
0.000267684
8.23517e-10
0.000267684
8.84474e-10
0.000267684
9.29233e-10
0.000267684
9.64171e-10
0.000267684
9.93903e-10
0.000267684
1.01524e-09
0.000267684
1.0305e-09
0.000267685
1.0452e-09
0.000267685
1.05474e-09
0.000267685
1.06034e-09
0.000267685
1.06404e-09
0.000267685
1.0662e-09
0.000267685
1.06799e-09
0.000267685
1.06689e-09
0.000267685
1.06291e-09
0.000267685
1.05823e-09
0.000267685
1.05269e-09
0.000267685
1.04638e-09
0.000267685
1.03648e-09
0.000267685
1.02209e-09
0.000267685
1.00776e-09
0.000267685
9.9275e-10
0.000267685
9.72854e-10
0.000267685
9.51481e-10
0.000267685
9.29372e-10
0.000267685
9.04821e-10
0.000267685
8.79677e-10
0.000267684
8.51517e-10
0.000267684
8.22478e-10
0.000267684
7.94084e-10
0.000267684
7.65112e-10
0.000267684
7.34445e-10
0.000267684
7.02007e-10
0.000267684
6.70015e-10
0.000267684
6.37963e-10
0.000267684
6.04797e-10
0.000267684
5.71368e-10
0.000267684
5.36555e-10
0.000267684
5.0341e-10
0.000267684
4.72554e-10
0.000267684
4.40035e-10
0.000267684
4.05565e-10
0.000267684
3.72704e-10
0.000267684
3.41864e-10
0.000267684
3.09246e-10
0.000267684
2.77215e-10
0.000267684
2.46419e-10
0.000267683
2.15009e-10
0.000267683
1.83637e-10
0.000267683
1.53471e-10
0.000267683
1.24189e-10
0.000267683
9.53146e-11
0.000267683
6.78011e-11
0.000267683
4.33049e-11
0.000267683
1.86423e-11
0.000267683
-7.10151e-12
0.000267683
-3.07764e-11
0.000267683
-5.32103e-11
0.000267683
-7.4284e-11
0.000267683
-9.14406e-11
0.000267683
-1.0632e-10
0.000267683
-1.19393e-10
0.000267682
-1.29551e-10
0.000267682
-1.37258e-10
0.000267682
-1.44151e-10
0.000267682
-1.49671e-10
0.000267682
-1.59919e-10
0.000267682
-1.75205e-10
0.000267682
-2.36087e-10
0.000267682
-3.16083e-10
0.000267682
-3.68424e-10
0.000267682
-4.21088e-10
0.000267682
-5.12834e-10
0.000267682
-6.18345e-10
0.000267681
-6.86999e-10
0.000267681
-7.4049e-10
0.000267681
-7.88306e-10
0.000267681
-8.32562e-10
0.000267681
-8.68819e-10
0.000267681
-8.93536e-10
0.000267681
-9.04857e-10
0.000267681
-9.01703e-10
0.00026768
-8.81327e-10
0.00026768
-8.4587e-10
0.00026768
-7.87473e-10
0.00026768
-7.13577e-10
0.00026768
-6.25945e-10
0.00026768
-3.92794e-10
-7.7942e-10
0.000260588
-1.54011e-09
0.000260588
-1.79886e-09
0.000260588
-1.81108e-09
0.000260588
-1.75073e-09
0.000260588
-1.67678e-09
0.000260588
-1.60231e-09
0.000260588
-1.52885e-09
0.000260588
-1.45803e-09
0.000260589
-1.38761e-09
0.000260589
-1.31513e-09
0.000260589
-1.2419e-09
0.000260589
-1.16972e-09
0.000260589
-1.09686e-09
0.000260589
-1.02442e-09
0.000260589
-9.53618e-10
0.000260589
-8.83032e-10
0.000260589
-8.10912e-10
0.000260589
-7.35305e-10
0.000260589
-6.61979e-10
0.000260589
-5.71368e-10
0.000260589
-5.22583e-10
0.000260589
-5.02452e-10
0.00026059
-4.94349e-10
0.00026059
-4.90822e-10
0.00026059
-4.0494e-10
0.00026059
-2.50953e-10
0.00026059
-6.43511e-11
0.00026059
1.2191e-10
0.000260591
2.90612e-10
0.000260591
4.34508e-10
0.000260591
5.52782e-10
0.000260591
6.49548e-10
0.000260591
7.27216e-10
0.000260592
7.88657e-10
0.000260592
8.40044e-10
0.000260592
8.82659e-10
0.000260592
9.16343e-10
0.000260592
9.44239e-10
0.000260592
9.69637e-10
0.000260592
9.88909e-10
0.000260592
1.00311e-09
0.000260592
1.01354e-09
0.000260592
1.0232e-09
0.000260592
1.03214e-09
0.000260592
1.0372e-09
0.000260592
1.03916e-09
0.000260592
1.03889e-09
0.000260592
1.03783e-09
0.000260592
1.03608e-09
0.000260592
1.03058e-09
0.000260592
1.0197e-09
0.000260592
1.00929e-09
0.000260592
9.9742e-10
0.000260592
9.80975e-10
0.000260592
9.63261e-10
0.000260592
9.43897e-10
0.000260592
9.22344e-10
0.000260592
8.99514e-10
0.000260592
8.74135e-10
0.000260592
8.47919e-10
0.000260592
8.21507e-10
0.000260592
7.95523e-10
0.000260592
7.67607e-10
0.000260592
7.36532e-10
0.000260592
7.07297e-10
0.000260592
6.76829e-10
0.000260592
6.4497e-10
0.000260592
6.14032e-10
0.000260592
5.80609e-10
0.000260592
5.48967e-10
0.000260592
5.20802e-10
0.000260592
4.89549e-10
0.000260592
4.56125e-10
0.000260592
4.24723e-10
0.000260592
3.95256e-10
0.000260592
3.64812e-10
0.000260592
3.3406e-10
0.000260591
3.03739e-10
0.000260591
2.73878e-10
0.000260591
2.43535e-10
0.000260591
2.14476e-10
0.000260591
1.86643e-10
0.000260591
1.57893e-10
0.000260591
1.3145e-10
0.000260591
1.07473e-10
0.000260591
8.35693e-11
0.000260591
5.97843e-11
0.000260591
3.67164e-11
0.000260591
1.42679e-11
0.000260591
-6.74562e-12
0.000260591
-2.40357e-11
0.000260591
-3.82588e-11
0.000260591
-5.14548e-11
0.00026059
-6.2179e-11
0.00026059
-6.97523e-11
0.00026059
-7.82904e-11
0.00026059
-8.51852e-11
0.00026059
-9.76172e-11
0.00026059
-1.15897e-10
0.00026059
-1.71713e-10
0.00026059
-2.43725e-10
0.00026059
-2.89366e-10
0.00026059
-3.34198e-10
0.00026059
-4.12835e-10
0.00026059
-5.04304e-10
0.000260589
-5.65792e-10
0.000260589
-6.13038e-10
0.000260589
-6.55196e-10
0.000260589
-6.96256e-10
0.000260589
-7.3284e-10
0.000260589
-7.61555e-10
0.000260589
-7.79781e-10
0.000260589
-7.85401e-10
0.000260588
-7.75099e-10
0.000260588
-7.52043e-10
0.000260588
-7.08435e-10
0.000260588
-6.52444e-10
0.000260588
-5.87538e-10
0.000260588
-3.8274e-10
-7.67088e-10
0.000253648
-1.49617e-09
0.000253648
-1.76718e-09
0.000253648
-1.80297e-09
0.000253648
-1.76386e-09
0.000253648
-1.70708e-09
0.000253648
-1.64687e-09
0.000253648
-1.58375e-09
0.000253648
-1.51893e-09
0.000253648
-1.4523e-09
0.000253648
-1.38207e-09
0.000253648
-1.31069e-09
0.000253649
-1.23949e-09
0.000253649
-1.16613e-09
0.000253649
-1.09202e-09
0.000253649
-1.01942e-09
0.000253649
-9.48013e-10
0.000253649
-8.74296e-10
0.000253649
-7.97519e-10
0.000253649
-7.24446e-10
0.000253649
-6.3711e-10
0.000253649
-5.87522e-10
0.000253649
-5.65461e-10
0.000253649
-5.59912e-10
0.000253649
-5.68439e-10
0.000253649
-5.11389e-10
0.00025365
-3.94741e-10
0.00025365
-2.40967e-10
0.00025365
-7.37322e-11
0.00025365
8.82301e-11
0.00025365
2.34257e-10
0.000253651
3.6064e-10
0.000253651
4.69212e-10
0.000253651
5.605e-10
0.000253651
6.35942e-10
0.000253651
7.00764e-10
0.000253651
7.54756e-10
0.000253651
8.00513e-10
0.000253652
8.4052e-10
0.000253652
8.75533e-10
0.000253652
9.04628e-10
0.000253652
9.28469e-10
0.000253652
9.47301e-10
0.000253652
9.64662e-10
0.000253652
9.80307e-10
0.000253652
9.91988e-10
0.000253652
1.0006e-09
0.000253652
1.00599e-09
0.000253652
1.0099e-09
0.000253652
1.01273e-09
0.000253652
1.01218e-09
0.000253652
1.00589e-09
0.000253652
9.99431e-10
0.000253652
9.91763e-10
0.000253652
9.7931e-10