/*--------------------------------*- C++ -*----------------------------------*\
  =========                 |
  \\      /  F ield         | OpenFOAM: The Open Source CFD Toolbox
   \\    /   O peration     | Website:  https://openfoam.org
    \\  /    A nd           | Version:  7
     \\/     M anipulation  |
\*---------------------------------------------------------------------------*/
FoamFile
{
    version     2.0;
    format      ascii;
    class       volScalarField;
    location    "3000";
    object      k;
}
// * * * * * * * * * * * * * * * * * * * * * * * * * * * * * * * * * * * * * //

dimensions      [0 2 -2 0 0 0 0];

internalField   nonuniform List<scalar> 
4037
(
0.000179447
0.000179448
0.000179448
0.000179449
0.000179449
0.00017945
0.00017945
0.00017945
0.000179451
0.000179451
0.000179452
0.000179452
0.000179452
0.000179453
0.000179453
0.000179454
0.000179454
0.000179454
0.000179455
0.000179455
0.000179455
0.000179456
0.000179456
0.000179457
0.000179457
0.000179458
0.000179458
0.000179458
0.000179459
0.000179459
0.000179459
0.00017946
0.00017946
0.000179461
0.000179461
0.000179461
0.000179462
0.000179462
0.000179462
0.000179463
0.000179463
0.000179464
0.000179464
0.000179464
0.000179465
0.000179465
0.000179465
0.000179465
0.000179466
0.000179466
0.000179466
0.000179467
0.000179467
0.000179467
0.000179467
0.000179468
0.000179468
0.000179468
0.000179468
0.000179469
0.000179469
0.000179469
0.000179469
0.000179469
0.000179469
0.00017947
0.00017947
0.00017947
0.00017947
0.00017947
0.00017947
0.00017947
0.000179471
0.000179471
0.000179471
0.000179471
0.000179471
0.000180175
0.000180172
0.000180171
0.00018017
0.00018017
0.000180169
0.000180168
0.000180167
0.000180167
0.000180166
0.000180166
0.000180165
0.000180165
0.000180165
0.000180165
0.000180165
0.000180165
0.000180165
0.000180165
0.000180165
0.000180165
0.000180165
0.000180165
0.000180165
0.000180169
0.000180171
0.000180172
0.000180173
0.000180174
0.000180174
0.000180175
0.000180175
0.000180176
0.000180176
0.000180177
0.000180177
0.000180178
0.000180178
0.000180179
0.000180179
0.000180179
0.00018018
0.00018018
0.000180181
0.000180181
0.000180182
0.000180182
0.000180182
0.000180183
0.000180183
0.000180184
0.000180184
0.000180184
0.000180185
0.000180185
0.000180186
0.000180186
0.000180186
0.000180187
0.000180187
0.000180188
0.000180188
0.000180188
0.000180189
0.000180189
0.000180189
0.00018019
0.00018019
0.00018019
0.000180191
0.000180191
0.000180191
0.000180192
0.000180192
0.000180192
0.000180192
0.000180193
0.000180193
0.000180193
0.000180193
0.000180193
0.000180194
0.000180194
0.000180194
0.000180194
0.000180195
0.000180195
0.000180195
0.000180195
0.000180195
0.000180195
0.000180196
0.000180196
0.000180196
0.000180196
0.000180196
0.000180196
0.000180196
0.000180196
0.000180196
0.000180197
0.00018019
0.000180187
0.000180187
0.000180187
0.000180187
0.000180187
0.000180186
0.000180186
0.000180186
0.000180186
0.000180185
0.000180185
0.000180185
0.000180184
0.000180184
0.000180184
0.000180183
0.000180183
0.000180184
0.000180794
0.000180792
0.00018079
0.000180789
0.000180788
0.000180787
0.000180786
0.000180786
0.000180785
0.000180784
0.000180784
0.000180783
0.000180783
0.000180783
0.000180783
0.000180783
0.000180783
0.000180783
0.000180783
0.000180783
0.000180783
0.000180783
0.000180783
0.000180783
0.000180785
0.000180787
0.000180789
0.00018079
0.000180791
0.000180791
0.000180792
0.000180792
0.000180793
0.000180794
0.000180794
0.000180795
0.000180795
0.000180796
0.000180796
0.000180797
0.000180797
0.000180798
0.000180798
0.000180799
0.000180799
0.0001808
0.0001808
0.000180801
0.000180801
0.000180802
0.000180802
0.000180802
0.000180803
0.000180803
0.000180804
0.000180804
0.000180804
0.000180805
0.000180805
0.000180806
0.000180806
0.000180806
0.000180807
0.000180807
0.000180807
0.000180808
0.000180808
0.000180808
0.000180808
0.000180809
0.000180809
0.000180809
0.00018081
0.00018081
0.00018081
0.00018081
0.000180811
0.000180811
0.000180811
0.000180811
0.000180812
0.000180812
0.000180812
0.000180812
0.000180812
0.000180813
0.000180813
0.000180813
0.000180813
0.000180813
0.000180813
0.000180814
0.000180814
0.000180814
0.000180814
0.000180814
0.000180814
0.000180814
0.000180814
0.000180814
0.000180815
0.000180811
0.000180809
0.000180807
0.000180807
0.000180806
0.000180806
0.000180806
0.000180805
0.000180805
0.000180805
0.000180804
0.000180804
0.000180804
0.000180803
0.000180803
0.000180802
0.000180802
0.000180801
0.000180803
0.0001813
0.000181297
0.000181295
0.000181293
0.000181292
0.000181291
0.000181291
0.00018129
0.000181289
0.000181288
0.000181288
0.000181287
0.000181287
0.000181287
0.000181287
0.000181287
0.000181287
0.000181287
0.000181287
0.000181287
0.000181287
0.000181287
0.000181287
0.000181287
0.000181289
0.00018129
0.000181292
0.000181293
0.000181294
0.000181295
0.000181295
0.000181296
0.000181297
0.000181297
0.000181298
0.000181299
0.000181299
0.0001813
0.000181301
0.000181301
0.000181302
0.000181302
0.000181303
0.000181303
0.000181304
0.000181304
0.000181305
0.000181305
0.000181306
0.000181306
0.000181306
0.000181307
0.000181307
0.000181308
0.000181308
0.000181308
0.000181309
0.000181309
0.00018131
0.00018131
0.00018131
0.000181311
0.000181311
0.000181311
0.000181312
0.000181312
0.000181312
0.000181313
0.000181313
0.000181313
0.000181313
0.000181314
0.000181314
0.000181314
0.000181315
0.000181315
0.000181315
0.000181315
0.000181315
0.000181316
0.000181316
0.000181316
0.000181316
0.000181316
0.000181317
0.000181317
0.000181317
0.000181317
0.000181317
0.000181317
0.000181318
0.000181318
0.000181318
0.000181318
0.000181318
0.000181318
0.000181318
0.000181318
0.000181318
0.000181318
0.000181319
0.000181317
0.000181315
0.000181314
0.000181313
0.000181312
0.000181311
0.000181311
0.000181311
0.00018131
0.00018131
0.000181309
0.000181309
0.000181309
0.000181308
0.000181308
0.000181307
0.000181307
0.000181306
0.000181307
0.000181683
0.00018168
0.000181678
0.000181677
0.000181676
0.000181675
0.000181674
0.000181673
0.000181672
0.000181671
0.000181671
0.00018167
0.00018167
0.00018167
0.000181669
0.000181669
0.00018167
0.00018167
0.00018167
0.00018167
0.00018167
0.00018167
0.00018167
0.00018167
0.000181671
0.000181672
0.000181674
0.000181675
0.000181676
0.000181677
0.000181678
0.000181678
0.000181679
0.00018168
0.000181681
0.000181681
0.000181682
0.000181683
0.000181684
0.000181684
0.000181685
0.000181685
0.000181686
0.000181686
0.000181687
0.000181687
0.000181688
0.000181688
0.000181689
0.000181689
0.00018169
0.00018169
0.00018169
0.000181691
0.000181691
0.000181692
0.000181692
0.000181692
0.000181693
0.000181693
0.000181694
0.000181694
0.000181694
0.000181695
0.000181695
0.000181695
0.000181695
0.000181696
0.000181696
0.000181696
0.000181697
0.000181697
0.000181697
0.000181697
0.000181698
0.000181698
0.000181698
0.000181698
0.000181698
0.000181699
0.000181699
0.000181699
0.000181699
0.000181699
0.0001817
0.0001817
0.0001817
0.0001817
0.0001817
0.0001817
0.000181701
0.000181701
0.000181701
0.000181701
0.000181701
0.000181701
0.000181701
0.000181701
0.000181701
0.000181701
0.000181702
0.000181701
0.0001817
0.000181698
0.000181697
0.000181696
0.000181696
0.000181695
0.000181695
0.000181694
0.000181694
0.000181693
0.000181693
0.000181692
0.000181692
0.000181691
0.000181691
0.000181691
0.00018169
0.000181691
0.000181937
0.000181934
0.000181932
0.00018193
0.000181929
0.000181928
0.000181927
0.000181926
0.000181925
0.000181924
0.000181923
0.000181923
0.000181923
0.000181922
0.000181922
0.000181922
0.000181922
0.000181923
0.000181923
0.000181923
0.000181923
0.000181923
0.000181923
0.000181924
0.000181924
0.000181925
0.000181926
0.000181927
0.000181929
0.000181929
0.00018193
0.000181931
0.000181932
0.000181933
0.000181934
0.000181934
0.000181935
0.000181936
0.000181937
0.000181937
0.000181938
0.000181938
0.000181939
0.00018194
0.00018194
0.000181941
0.000181941
0.000181942
0.000181942
0.000181943
0.000181943
0.000181944
0.000181944
0.000181944
0.000181945
0.000181945
0.000181945
0.000181946
0.000181946
0.000181947
0.000181947
0.000181947
0.000181948
0.000181948
0.000181948
0.000181948
0.000181949
0.000181949
0.000181949
0.00018195
0.00018195
0.00018195
0.00018195
0.000181951
0.000181951
0.000181951
0.000181951
0.000181951
0.000181952
0.000181952
0.000181952
0.000181952
0.000181952
0.000181953
0.000181953
0.000181953
0.000181953
0.000181953
0.000181953
0.000181954
0.000181954
0.000181954
0.000181954
0.000181954
0.000181954
0.000181954
0.000181954
0.000181954
0.000181954
0.000181954
0.000181955
0.000181954
0.000181953
0.000181952
0.000181951
0.00018195
0.00018195
0.000181949
0.000181948
0.000181948
0.000181947
0.000181947
0.000181946
0.000181946
0.000181945
0.000181945
0.000181945
0.000181944
0.000181943
0.000181944
0.000182051
0.000182048
0.000182045
0.000182043
0.000182042
0.000182041
0.00018204
0.000182038
0.000182038
0.000182037
0.000182036
0.000182036
0.000182035
0.000182035
0.000182035
0.000182035
0.000182035
0.000182036
0.000182036
0.000182036
0.000182036
0.000182036
0.000182037
0.000182037
0.000182037
0.000182038
0.000182039
0.00018204
0.000182041
0.000182042
0.000182043
0.000182044
0.000182045
0.000182046
0.000182047
0.000182047
0.000182048
0.000182049
0.00018205
0.00018205
0.000182051
0.000182052
0.000182052
0.000182053
0.000182053
0.000182054
0.000182054
0.000182055
0.000182056
0.000182056
0.000182057
0.000182057
0.000182057
0.000182058
0.000182058
0.000182058
0.000182059
0.000182059
0.00018206
0.00018206
0.00018206
0.000182061
0.000182061
0.000182061
0.000182061
0.000182062
0.000182062
0.000182062
0.000182063
0.000182063
0.000182063
0.000182063
0.000182064
0.000182064
0.000182064
0.000182064
0.000182064
0.000182065
0.000182065
0.000182065
0.000182065
0.000182065
0.000182065
0.000182066
0.000182066
0.000182066
0.000182066
0.000182066
0.000182066
0.000182067
0.000182067
0.000182067
0.000182067
0.000182067
0.000182067
0.000182067
0.000182067
0.000182067
0.000182067
0.000182067
0.000182067
0.000182067
0.000182067
0.000182066
0.000182065
0.000182064
0.000182064
0.000182063
0.000182062
0.000182062
0.000182061
0.000182061
0.00018206
0.00018206
0.000182059
0.000182059
0.000182058
0.000182058
0.000182057
0.000182058
0.000182012
0.000182009
0.000182006
0.000182004
0.000182003
0.000182001
0.000182
0.000181999
0.000181998
0.000181997
0.000181997
0.000181996
0.000181996
0.000181996
0.000181996
0.000181996
0.000181996
0.000181996
0.000181996
0.000181997
0.000181997
0.000181997
0.000181998
0.000181998
0.000181998
0.000181999
0.000182
0.000182001
0.000182002
0.000182003
0.000182004
0.000182005
0.000182006
0.000182006
0.000182007
0.000182008
0.000182009
0.00018201
0.000182011
0.000182011
0.000182012
0.000182013
0.000182013
0.000182014
0.000182014
0.000182015
0.000182016
0.000182016
0.000182017
0.000182017
0.000182018
0.000182018
0.000182018
0.000182019
0.000182019
0.00018202
0.00018202
0.00018202
0.000182021
0.000182021
0.000182021
0.000182022
0.000182022
0.000182022
0.000182022
0.000182023
0.000182023
0.000182023
0.000182023
0.000182024
0.000182024
0.000182024
0.000182024
0.000182025
0.000182025
0.000182025
0.000182025
0.000182025
0.000182026
0.000182026
0.000182026
0.000182026
0.000182026
0.000182026
0.000182027
0.000182027
0.000182027
0.000182027
0.000182027
0.000182027
0.000182027
0.000182027
0.000182028
0.000182028
0.000182028
0.000182028
0.000182028
0.000182028
0.000182028
0.000182028
0.000182028
0.000182028
0.000182028
0.000182027
0.000182027
0.000182026
0.000182025
0.000182024
0.000182024
0.000182023
0.000182022
0.000182022
0.000182021
0.000182021
0.00018202
0.00018202
0.000182019
0.000182019
0.000182018
0.000182019
0.000181807
0.000181803
0.0001818
0.000181798
0.000181797
0.000181795
0.000181794
0.000181793
0.000181792
0.000181791
0.00018179
0.00018179
0.000181789
0.000181789
0.00018179
0.00018179
0.00018179
0.00018179
0.00018179
0.000181791
0.000181791
0.000181791
0.000181792
0.000181792
0.000181793
0.000181793
0.000181794
0.000181795
0.000181796
0.000181797
0.000181798
0.000181799
0.000181799
0.0001818
0.000181801
0.000181802
0.000181803
0.000181804
0.000181805
0.000181806
0.000181806
0.000181807
0.000181807
0.000181808
0.000181809
0.000181809
0.00018181
0.00018181
0.000181811
0.000181811
0.000181812
0.000181812
0.000181813
0.000181813
0.000181813
0.000181814
0.000181814
0.000181815
0.000181815
0.000181815
0.000181816
0.000181816
0.000181816
0.000181816
0.000181817
0.000181817
0.000181817
0.000181817
0.000181818
0.000181818
0.000181818
0.000181818
0.000181818
0.000181819
0.000181819
0.000181819
0.000181819
0.000181819
0.000181819
0.00018182
0.00018182
0.00018182
0.00018182
0.00018182
0.00018182
0.000181821
0.000181821
0.000181821
0.000181821
0.000181821
0.000181821
0.000181821
0.000181821
0.000181821
0.000181821
0.000181822
0.000181822
0.000181822
0.000181822
0.000181822
0.000181822
0.000181822
0.000181822
0.000181821
0.000181821
0.00018182
0.000181819
0.000181819
0.000181818
0.000181817
0.000181817
0.000181816
0.000181816
0.000181815
0.000181815
0.000181814
0.000181814
0.000181813
0.000181812
0.000181813
0.000181417
0.000181413
0.00018141
0.000181408
0.000181406
0.000181405
0.000181403
0.000181402
0.000181401
0.0001814
0.0001814
0.000181399
0.000181399
0.000181399
0.000181399
0.000181399
0.000181399
0.0001814
0.0001814
0.0001814
0.000181401
0.000181401
0.000181401
0.000181402
0.000181403
0.000181403
0.000181404
0.000181405
0.000181406
0.000181406
0.000181407
0.000181408
0.000181409
0.00018141
0.000181411
0.000181412
0.000181413
0.000181414
0.000181414
0.000181415
0.000181416
0.000181417
0.000181417
0.000181418
0.000181418
0.000181419
0.00018142
0.00018142
0.000181421
0.000181421
0.000181422
0.000181422
0.000181423
0.000181423
0.000181423
0.000181424
0.000181424
0.000181424
0.000181425
0.000181425
0.000181425
0.000181426
0.000181426
0.000181426
0.000181426
0.000181427
0.000181427
0.000181427
0.000181427
0.000181427
0.000181428
0.000181428
0.000181428
0.000181428
0.000181428
0.000181429
0.000181429
0.000181429
0.000181429
0.000181429
0.000181429
0.000181429
0.00018143
0.00018143
0.00018143
0.00018143
0.00018143
0.00018143
0.00018143
0.000181431
0.000181431
0.000181431
0.000181431
0.000181431
0.000181431
0.000181431
0.000181431
0.000181431
0.000181431
0.000181431
0.000181431
0.000181431
0.000181431
0.000181431
0.00018143
0.00018143
0.000181429
0.000181429
0.000181428
0.000181427
0.000181427
0.000181426
0.000181426
0.000181425
0.000181425
0.000181424
0.000181423
0.000181423
0.000181422
0.000181423
0.000180821
0.000180817
0.000180814
0.000180812
0.00018081
0.000180808
0.000180807
0.000180806
0.000180805
0.000180804
0.000180803
0.000180803
0.000180803
0.000180803
0.000180803
0.000180803
0.000180803
0.000180804
0.000180804
0.000180804
0.000180805
0.000180805
0.000180806
0.000180806
0.000180807
0.000180807
0.000180808
0.000180809
0.00018081
0.000180811
0.000180811
0.000180812
0.000180813
0.000180814
0.000180815
0.000180816
0.000180817
0.000180818
0.000180819
0.000180819
0.00018082
0.000180821
0.000180821
0.000180822
0.000180823
0.000180823
0.000180824
0.000180824
0.000180825
0.000180825
0.000180826
0.000180826
0.000180827
0.000180827
0.000180827
0.000180828
0.000180828
0.000180828
0.000180829
0.000180829
0.000180829
0.00018083
0.00018083
0.00018083
0.00018083
0.000180831
0.000180831
0.000180831
0.000180831
0.000180831
0.000180832
0.000180832
0.000180832
0.000180832
0.000180832
0.000180832
0.000180833
0.000180833
0.000180833
0.000180833
0.000180833
0.000180833
0.000180833
0.000180834
0.000180834
0.000180834
0.000180834
0.000180834
0.000180834
0.000180834
0.000180834
0.000180834
0.000180834
0.000180835
0.000180835
0.000180835
0.000180835
0.000180835
0.000180835
0.000180835
0.000180835
0.000180835
0.000180835
0.000180835
0.000180834
0.000180834
0.000180833
0.000180833
0.000180832
0.000180832
0.000180831
0.00018083
0.00018083
0.000180829
0.000180829
0.000180828
0.000180828
0.000180827
0.000180826
0.000180827
0.000179994
0.00017999
0.000179987
0.000179984
0.000179982
0.000179981
0.000179979
0.000179978
0.000179977
0.000179976
0.000179975
0.000179975
0.000179975
0.000179975
0.000179975
0.000179976
0.000179976
0.000179976
0.000179977
0.000179977
0.000179977
0.000179978
0.000179978
0.000179979
0.00017998
0.00017998
0.000179981
0.000179982
0.000179983
0.000179983
0.000179984
0.000179985
0.000179986
0.000179987
0.000179988
0.000179989
0.000179989
0.00017999
0.000179991
0.000179992
0.000179993
0.000179993
0.000179994
0.000179995
0.000179995
0.000179996
0.000179996
0.000179997
0.000179998
0.000179998
0.000179999
0.000179999
0.000179999
0.00018
0.00018
0.00018
0.000180001
0.000180001
0.000180001
0.000180002
0.000180002
0.000180002
0.000180003
0.000180003
0.000180003
0.000180003
0.000180003
0.000180003
0.000180004
0.000180004
0.000180004
0.000180004
0.000180004
0.000180005
0.000180005
0.000180005
0.000180005
0.000180005
0.000180005
0.000180005
0.000180005
0.000180006
0.000180006
0.000180006
0.000180006
0.000180006
0.000180006
0.000180006
0.000180006
0.000180006
0.000180007
0.000180007
0.000180007
0.000180007
0.000180007
0.000180007
0.000180007
0.000180007
0.000180007
0.000180007
0.000180007
0.000180007
0.000180007
0.000180007
0.000180007
0.000180006
0.000180006
0.000180005
0.000180005
0.000180004
0.000180004
0.000180003
0.000180003
0.000180002
0.000180001
0.000180001
0.00018
0.00018
0.000179999
0.00018
0.000178903
0.000178899
0.000178896
0.000178894
0.000178892
0.00017889
0.000178888
0.000178887
0.000178886
0.000178885
0.000178885
0.000178884
0.000178884
0.000178884
0.000178885
0.000178885
0.000178885
0.000178886
0.000178886
0.000178887
0.000178887
0.000178888
0.000178888
0.000178889
0.000178889
0.00017889
0.000178891
0.000178892
0.000178892
0.000178893
0.000178894
0.000178895
0.000178895
0.000178896
0.000178897
0.000178898
0.000178899
0.0001789
0.000178901
0.000178901
0.000178902
0.000178903
0.000178904
0.000178904
0.000178905
0.000178905
0.000178906
0.000178907
0.000178907
0.000178908
0.000178908
0.000178909
0.000178909
0.000178909
0.00017891
0.00017891
0.00017891
0.000178911
0.000178911
0.000178911
0.000178911
0.000178912
0.000178912
0.000178912
0.000178912
0.000178912
0.000178913
0.000178913
0.000178913
0.000178913
0.000178913
0.000178913
0.000178914
0.000178914
0.000178914
0.000178914
0.000178914
0.000178914
0.000178914
0.000178914
0.000178915
0.000178915
0.000178915
0.000178915
0.000178915
0.000178915
0.000178915
0.000178915
0.000178916
0.000178916
0.000178916
0.000178916
0.000178916
0.000178916
0.000178916
0.000178916
0.000178916
0.000178916
0.000178916
0.000178916
0.000178916
0.000178916
0.000178916
0.000178916
0.000178916
0.000178916
0.000178915
0.000178915
0.000178914
0.000178914
0.000178913
0.000178913
0.000178912
0.000178912
0.000178911
0.00017891
0.00017891
0.000178909
0.000178908
0.00017891
0.000177511
0.000177507
0.000177503
0.000177501
0.000177499
0.000177497
0.000177495
0.000177494
0.000177493
0.000177492
0.000177492
0.000177492
0.000177491
0.000177492
0.000177492
0.000177492
0.000177493
0.000177493
0.000177494
0.000177494
0.000177495
0.000177495
0.000177496
0.000177496
0.000177497
0.000177498
0.000177499
0.000177499
0.0001775
0.000177501
0.000177501
0.000177502
0.000177503
0.000177504
0.000177505
0.000177506
0.000177506
0.000177507
0.000177508
0.000177509
0.00017751
0.00017751
0.000177511
0.000177512
0.000177512
0.000177513
0.000177513
0.000177514
0.000177515
0.000177515
0.000177515
0.000177516
0.000177516
0.000177517
0.000177517
0.000177517
0.000177517
0.000177518
0.000177518
0.000177518
0.000177519
0.000177519
0.000177519
0.000177519
0.000177519
0.00017752
0.00017752
0.00017752
0.00017752
0.00017752
0.00017752
0.000177521
0.000177521
0.000177521
0.000177521
0.000177521
0.000177521
0.000177521
0.000177521
0.000177521
0.000177522
0.000177522
0.000177522
0.000177522
0.000177522
0.000177522
0.000177522
0.000177522
0.000177522
0.000177523
0.000177523
0.000177523
0.000177523
0.000177523
0.000177523
0.000177523
0.000177523
0.000177523
0.000177523
0.000177523
0.000177523
0.000177523
0.000177523
0.000177523
0.000177523
0.000177523
0.000177522
0.000177522
0.000177522
0.000177521
0.000177521
0.00017752
0.000177519
0.000177519
0.000177518
0.000177518
0.000177517
0.000177517
0.000177516
0.000177517
0.000175768
0.000175764
0.00017576
0.000175757
0.000175755
0.000175754
0.000175752
0.000175751
0.00017575
0.000175749
0.000175749
0.000175748
0.000175748
0.000175749
0.000175749
0.000175749
0.00017575
0.000175751
0.000175751
0.000175751
0.000175752
0.000175752
0.000175753
0.000175754
0.000175754
0.000175755
0.000175756
0.000175757
0.000175757
0.000175758
0.000175758
0.000175759
0.00017576
0.000175761
0.000175762
0.000175762
0.000175763
0.000175764
0.000175765
0.000175766
0.000175766
0.000175767
0.000175768
0.000175768
0.000175769
0.00017577
0.00017577
0.000175771
0.000175771
0.000175772
0.000175772
0.000175773
0.000175773
0.000175773
0.000175774
0.000175774
0.000175774
0.000175774
0.000175775
0.000175775
0.000175775
0.000175776
0.000175776
0.000175776
0.000175776
0.000175776
0.000175776
0.000175776
0.000175777
0.000175777
0.000175777
0.000175777
0.000175777
0.000175777
0.000175778
0.000175778
0.000175778
0.000175778
0.000175778
0.000175778
0.000175778
0.000175778
0.000175778
0.000175778
0.000175778
0.000175779
0.000175779
0.000175779
0.000175779
0.000175779
0.000175779
0.000175779
0.000175779
0.000175779
0.000175779
0.000175779
0.000175779
0.000175779
0.000175779
0.000175779
0.000175779
0.00017578
0.00017578
0.000175779
0.000175779
0.000175779
0.000175779
0.000175779
0.000175778
0.000175778
0.000175777
0.000175777
0.000175776
0.000175776
0.000175775
0.000175775
0.000175774
0.000175774
0.000175773
0.000175774
0.000173614
0.000173609
0.000173606
0.000173603
0.000173601
0.000173599
0.000173598
0.000173596
0.000173596
0.000173595
0.000173594
0.000173594
0.000173594
0.000173595
0.000173595
0.000173596
0.000173596
0.000173597
0.000173597
0.000173598
0.000173598
0.000173599
0.000173599
0.0001736
0.000173601
0.000173601
0.000173602
0.000173603
0.000173603
0.000173604
0.000173605
0.000173605
0.000173606
0.000173607
0.000173607
0.000173608
0.000173609
0.00017361
0.000173611
0.000173612
0.000173612
0.000173613
0.000173613
0.000173614
0.000173615
0.000173615
0.000173616
0.000173616
0.000173617
0.000173617
0.000173618
0.000173618
0.000173619
0.000173619
0.000173619
0.000173619
0.00017362
0.00017362
0.00017362
0.000173621
0.000173621
0.000173621
0.000173621
0.000173621
0.000173622
0.000173622
0.000173622
0.000173622
0.000173622
0.000173622
0.000173622
0.000173623
0.000173623
0.000173623
0.000173623
0.000173623
0.000173623
0.000173623
0.000173623
0.000173623
0.000173623
0.000173623
0.000173624
0.000173624
0.000173624
0.000173624
0.000173624
0.000173624
0.000173624
0.000173624
0.000173624
0.000173624
0.000173624
0.000173624
0.000173625
0.000173625
0.000173625
0.000173625
0.000173625
0.000173625
0.000173625
0.000173625
0.000173625
0.000173625
0.000173625
0.000173625
0.000173624
0.000173624
0.000173624
0.000173623
0.000173623
0.000173622
0.000173622
0.000173621
0.000173621
0.00017362
0.00017362
0.000173619
0.000173618
0.00017362
0.000170972
0.000170968
0.000170964
0.000170961
0.000170959
0.000170957
0.000170956
0.000170955
0.000170954
0.000170953
0.000170953
0.000170953
0.000170953
0.000170953
0.000170954
0.000170954
0.000170955
0.000170955
0.000170956
0.000170956
0.000170957
0.000170957
0.000170958
0.000170959
0.000170959
0.00017096
0.000170961
0.000170962
0.000170962
0.000170963
0.000170963
0.000170964
0.000170964
0.000170965
0.000170966
0.000170967
0.000170968
0.000170968
0.000170969
0.00017097
0.000170971
0.000170971
0.000170972
0.000170972
0.000170973
0.000170973
0.000170974
0.000170975
0.000170975
0.000170976
0.000170976
0.000170976
0.000170977
0.000170977
0.000170977
0.000170978
0.000170978
0.000170978
0.000170978
0.000170979
0.000170979
0.000170979
0.000170979
0.000170979
0.00017098
0.00017098
0.00017098
0.00017098
0.00017098
0.00017098
0.00017098
0.00017098
0.000170981
0.000170981
0.000170981
0.000170981
0.000170981
0.000170981
0.000170981
0.000170981
0.000170981
0.000170981
0.000170982
0.000170982
0.000170982
0.000170982
0.000170982
0.000170982
0.000170982
0.000170982
0.000170982
0.000170982
0.000170982
0.000170982
0.000170982
0.000170982
0.000170982
0.000170983
0.000170983
0.000170983
0.000170983
0.000170983
0.000170983
0.000170983
0.000170983
0.000170983
0.000170982
0.000170982
0.000170982
0.000170981
0.000170981
0.000170981
0.00017098
0.00017098
0.000170979
0.000170979
0.000170978
0.000170978
0.000170977
0.000170978
0.000167746
0.000167742
0.000167738
0.000167735
0.000167733
0.000167731
0.00016773
0.000167729
0.000167728
0.000167728
0.000167727
0.000167727
0.000167727
0.000167728
0.000167728
0.000167729
0.000167729
0.00016773
0.00016773
0.000167731
0.000167731
0.000167732
0.000167733
0.000167733
0.000167734
0.000167735
0.000167735
0.000167736
0.000167737
0.000167737
0.000167738
0.000167738
0.000167739
0.000167739
0.00016774
0.000167741
0.000167742
0.000167742
0.000167743
0.000167744
0.000167744
0.000167745
0.000167746
0.000167746
0.000167747
0.000167747
0.000167748
0.000167748
0.000167749
0.000167749
0.00016775
0.00016775
0.000167751
0.000167751
0.000167751
0.000167751
0.000167752
0.000167752
0.000167752
0.000167752
0.000167753
0.000167753
0.000167753
0.000167753
0.000167753
0.000167753
0.000167753
0.000167754
0.000167754
0.000167754
0.000167754
0.000167754
0.000167754
0.000167754
0.000167754
0.000167755
0.000167755
0.000167755
0.000167755
0.000167755
0.000167755
0.000167755
0.000167755
0.000167755
0.000167755
0.000167755
0.000167755
0.000167756
0.000167756
0.000167756
0.000167756
0.000167756
0.000167756
0.000167756
0.000167756
0.000167756
0.000167756
0.000167756
0.000167756
0.000167756
0.000167756
0.000167756
0.000167756
0.000167756
0.000167756
0.000167756
0.000167756
0.000167756
0.000167756
0.000167755
0.000167755
0.000167754
0.000167754
0.000167754
0.000167753
0.000167753
0.000167752
0.000167752
0.000167751
0.000167752
0.000163812
0.000163807
0.000163803
0.000163801
0.000163799
0.000163797
0.000163796
0.000163795
0.000163794
0.000163794
0.000163793
0.000163793
0.000163793
0.000163794
0.000163794
0.000163795
0.000163796
0.000163796
0.000163797
0.000163797
0.000163798
0.000163798
0.000163799
0.000163799
0.0001638
0.000163801
0.000163801
0.000163802
0.000163803
0.000163803
0.000163804
0.000163804
0.000163805
0.000163805
0.000163806
0.000163807
0.000163807
0.000163808
0.000163809
0.000163809
0.00016381
0.000163811
0.000163811
0.000163812
0.000163812
0.000163813
0.000163813
0.000163814
0.000163814
0.000163815
0.000163815
0.000163816
0.000163816
0.000163816
0.000163816
0.000163817
0.000163817
0.000163817
0.000163817
0.000163818
0.000163818
0.000163818
0.000163818
0.000163818
0.000163818
0.000163819
0.000163819
0.000163819
0.000163819
0.000163819
0.000163819
0.000163819
0.000163819
0.000163819
0.00016382
0.00016382
0.00016382
0.00016382
0.00016382
0.00016382
0.00016382
0.00016382
0.00016382
0.00016382
0.00016382
0.00016382
0.000163821
0.000163821
0.000163821
0.000163821
0.000163821
0.000163821
0.000163821
0.000163821
0.000163821
0.000163821
0.000163821
0.000163821
0.000163821
0.000163821
0.000163821
0.000163821
0.000163821
0.000163821
0.000163821
0.000163821
0.000163821
0.000163821
0.000163821
0.000163821
0.00016382
0.00016382
0.000163819
0.000163819
0.000163819
0.000163818
0.000163818
0.000163817
0.000163816
0.000163817
0.00015901
0.000159005
0.000159001
0.000158998
0.000158996
0.000158995
0.000158994
0.000158993
0.000158992
0.000158992
0.000158991
0.000158991
0.000158992
0.000158992
0.000158993
0.000158993
0.000158994
0.000158994
0.000158995
0.000158995
0.000158996
0.000158996
0.000158997
0.000158998
0.000158998
0.000158999
0.000159
0.000159
0.000159001
0.000159001
0.000159002
0.000159002
0.000159002
0.000159003
0.000159004
0.000159004
0.000159005
0.000159006
0.000159006
0.000159007
0.000159008
0.000159008
0.000159009
0.000159009
0.00015901
0.00015901
0.000159011
0.000159011
0.000159012
0.000159012
0.000159013
0.000159013
0.000159013
0.000159013
0.000159014
0.000159014
0.000159014
0.000159014
0.000159015
0.000159015
0.000159015
0.000159015
0.000159015
0.000159016
0.000159016
0.000159016
0.000159016
0.000159016
0.000159016
0.000159016
0.000159016
0.000159016
0.000159017
0.000159017
0.000159017
0.000159017
0.000159017
0.000159017
0.000159017
0.000159017
0.000159017
0.000159017
0.000159017
0.000159017
0.000159018
0.000159018
0.000159018
0.000159018
0.000159018
0.000159018
0.000159018
0.000159018
0.000159018
0.000159018
0.000159018
0.000159018
0.000159018
0.000159018
0.000159018
0.000159018
0.000159018
0.000159018
0.000159018
0.000159018
0.000159018
0.000159018
0.000159018
0.000159018
0.000159018
0.000159018
0.000159018
0.000159017
0.000159017
0.000159017
0.000159016
0.000159016
0.000159015
0.000159015
0.000159014
0.000159015
0.000153134
0.000153129
0.000153125
0.000153122
0.000153121
0.000153119
0.000153118
0.000153117
0.000153117
0.000153116
0.000153116
0.000153116
0.000153116
0.000153117
0.000153117
0.000153118
0.000153119
0.000153119
0.00015312
0.00015312
0.00015312
0.000153121
0.000153121
0.000153122
0.000153123
0.000153123
0.000153124
0.000153124
0.000153125
0.000153125
0.000153126
0.000153126
0.000153127
0.000153127
0.000153128
0.000153128
0.000153129
0.00015313
0.00015313
0.000153131
0.000153131
0.000153132
0.000153132
0.000153133
0.000153133
0.000153134
0.000153134
0.000153135
0.000153135
0.000153136
0.000153136
0.000153136
0.000153137
0.000153137
0.000153137
0.000153137
0.000153138
0.000153138
0.000153138
0.000153138
0.000153139
0.000153139
0.000153139
0.000153139
0.000153139
0.000153139
0.000153139
0.000153139
0.00015314
0.00015314
0.00015314
0.00015314
0.00015314
0.00015314
0.00015314
0.00015314
0.00015314
0.00015314
0.00015314
0.000153141
0.000153141
0.000153141
0.000153141
0.000153141
0.000153141
0.000153141
0.000153141
0.000153141
0.000153141
0.000153141
0.000153141
0.000153141
0.000153142
0.000153142
0.000153142
0.000153142
0.000153142
0.000153142
0.000153142
0.000153142
0.000153142
0.000153142
0.000153142
0.000153142
0.000153142
0.000153142
0.000153142
0.000153142
0.000153142