/*--------------------------------*- C++ -*----------------------------------*\
  =========                 |
  \\      /  F ield         | OpenFOAM: The Open Source CFD Toolbox
   \\    /   O peration     | Website:  https://openfoam.org
    \\  /    A nd           | Version:  7
     \\/     M anipulation  |
\*---------------------------------------------------------------------------*/
FoamFile
{
    version     2.0;
    format      ascii;
    class       volScalarField;
    location    "17500";
    object      nut;
}
// * * * * * * * * * * * * * * * * * * * * * * * * * * * * * * * * * * * * * //

dimensions      [0 2 -1 0 0 0 0];

internalField   nonuniform List<scalar> 
24000
(
6.87809e-12
6.87842e-12
6.87854e-12
6.87847e-12
6.87831e-12
6.87811e-12
6.87791e-12
6.87772e-12
6.87755e-12
6.87739e-12
6.87727e-12
6.87718e-12
6.87712e-12
6.87707e-12
6.87703e-12
6.877e-12
6.87698e-12
6.87697e-12
6.87698e-12
6.87699e-12
6.87702e-12
6.87705e-12
6.87709e-12
6.87713e-12
6.87718e-12
6.87723e-12
6.87728e-12
6.87733e-12
6.87739e-12
6.87744e-12
6.8775e-12
6.87756e-12
6.87761e-12
6.87767e-12
6.87771e-12
6.87776e-12
6.87781e-12
6.87785e-12
6.87789e-12
6.87794e-12
6.87799e-12
6.87802e-12
6.87804e-12
6.87807e-12
6.8781e-12
6.87813e-12
6.87815e-12
6.87818e-12
6.8782e-12
6.87822e-12
6.87824e-12
6.87826e-12
6.87828e-12
6.8783e-12
6.87832e-12
6.87833e-12
6.87834e-12
6.87834e-12
6.87834e-12
6.87833e-12
6.87831e-12
6.87829e-12
6.87826e-12
6.87822e-12
6.87818e-12
6.87814e-12
6.8781e-12
6.87805e-12
6.878e-12
6.87796e-12
6.87792e-12
6.87787e-12
6.87783e-12
6.87779e-12
6.87775e-12
6.87772e-12
6.87768e-12
6.87766e-12
6.87763e-12
6.87761e-12
6.87759e-12
6.87756e-12
6.87754e-12
6.87752e-12
6.8775e-12
6.87749e-12
6.8775e-12
6.8775e-12
6.8775e-12
6.87749e-12
6.87748e-12
6.87747e-12
6.87746e-12
6.87745e-12
6.87744e-12
6.87743e-12
6.87743e-12
6.87743e-12
6.87743e-12
6.87743e-12
6.87744e-12
6.87745e-12
6.87747e-12
6.87749e-12
6.87749e-12
6.8775e-12
6.87752e-12
6.87754e-12
6.87757e-12
6.8776e-12
6.87763e-12
6.87766e-12
6.87768e-12
6.87771e-12
6.87773e-12
6.87776e-12
6.87778e-12
6.87779e-12
6.87782e-12
6.87772e-12
1.1962e-09
1.19626e-09
1.19628e-09
1.19626e-09
1.19624e-09
1.1962e-09
1.19617e-09
1.19613e-09
1.1961e-09
1.19608e-09
1.19606e-09
1.19604e-09
1.19603e-09
1.19602e-09
1.19601e-09
1.19601e-09
1.196e-09
1.196e-09
1.196e-09
1.19601e-09
1.19601e-09
1.19602e-09
1.19602e-09
1.19603e-09
1.19604e-09
1.19605e-09
1.19606e-09
1.19607e-09
1.19607e-09
1.19608e-09
1.19609e-09
1.1961e-09
1.19611e-09
1.19612e-09
1.19613e-09
1.19614e-09
1.19615e-09
1.19616e-09
1.19616e-09
1.19617e-09
1.19618e-09
1.19618e-09
1.19619e-09
1.19619e-09
1.1962e-09
1.1962e-09
1.19621e-09
1.19621e-09
1.19622e-09
1.19622e-09
1.19622e-09
1.19623e-09
1.19623e-09
1.19623e-09
1.19624e-09
1.19624e-09
1.19624e-09
1.19624e-09
1.19624e-09
1.19624e-09
1.19624e-09
1.19623e-09
1.19623e-09
1.19622e-09
1.19621e-09
1.19621e-09
1.1962e-09
1.19619e-09
1.19618e-09
1.19617e-09
1.19617e-09
1.19616e-09
1.19615e-09
1.19615e-09
1.19614e-09
1.19613e-09
1.19613e-09
1.19612e-09
1.19612e-09
1.19611e-09
1.19611e-09
1.19611e-09
1.1961e-09
1.1961e-09
1.1961e-09
1.19609e-09
1.19609e-09
1.19609e-09
1.19609e-09
1.19609e-09
1.19609e-09
1.19609e-09
1.19609e-09
1.19609e-09
1.19608e-09
1.19608e-09
1.19608e-09
1.19608e-09
1.19608e-09
1.19608e-09
1.19608e-09
1.19609e-09
1.19609e-09
1.19609e-09
1.19609e-09
1.19609e-09
1.1961e-09
1.1961e-09
1.19611e-09
1.19611e-09
1.19612e-09
1.19612e-09
1.19613e-09
1.19613e-09
1.19614e-09
1.19614e-09
1.19614e-09
1.19615e-09
1.19615e-09
1.19613e-09
2.55904e-08
2.55916e-08
2.5592e-08
2.55917e-08
2.55911e-08
2.55904e-08
2.55896e-08
2.5589e-08
2.55883e-08
2.55877e-08
2.55873e-08
2.5587e-08
2.55867e-08
2.55866e-08
2.55864e-08
2.55863e-08
2.55862e-08
2.55862e-08
2.55862e-08
2.55863e-08
2.55864e-08
2.55865e-08
2.55866e-08
2.55868e-08
2.5587e-08
2.55871e-08
2.55873e-08
2.55875e-08
2.55877e-08
2.55879e-08
2.55882e-08
2.55884e-08
2.55886e-08
2.55888e-08
2.55889e-08
2.55891e-08
2.55893e-08
2.55895e-08
2.55896e-08
2.55898e-08
2.559e-08
2.55901e-08
2.55902e-08
2.55902e-08
2.55903e-08
2.55905e-08
2.55905e-08
2.55906e-08
2.55907e-08
2.55908e-08
2.55909e-08
2.5591e-08
2.5591e-08
2.55911e-08
2.55912e-08
2.55912e-08
2.55912e-08
2.55912e-08
2.55912e-08
2.55912e-08
2.55911e-08
2.5591e-08
2.55909e-08
2.55908e-08
2.55907e-08
2.55905e-08
2.55903e-08
2.55902e-08
2.559e-08
2.55898e-08
2.55897e-08
2.55895e-08
2.55893e-08
2.55892e-08
2.55891e-08
2.55889e-08
2.55888e-08
2.55887e-08
2.55887e-08
2.55886e-08
2.55885e-08
2.55884e-08
2.55883e-08
2.55882e-08
2.55882e-08
2.55881e-08
2.55881e-08
2.55882e-08
2.55881e-08
2.55881e-08
2.55881e-08
2.5588e-08
2.5588e-08
2.5588e-08
2.55879e-08
2.55879e-08
2.55879e-08
2.55879e-08
2.55879e-08
2.55879e-08
2.55879e-08
2.5588e-08
2.5588e-08
2.55881e-08
2.55881e-08
2.55882e-08
2.55882e-08
2.55883e-08
2.55884e-08
2.55885e-08
2.55886e-08
2.55887e-08
2.55888e-08
2.55889e-08
2.5589e-08
2.55891e-08
2.55892e-08
2.55892e-08
2.55894e-08
2.55889e-08
1.96254e-07
1.96262e-07
1.96265e-07
1.96263e-07
1.96258e-07
1.96252e-07
1.96247e-07
1.96241e-07
1.96236e-07
1.96232e-07
1.96229e-07
1.96226e-07
1.96224e-07
1.96224e-07
1.96223e-07
1.96222e-07
1.96221e-07
1.96221e-07
1.96221e-07
1.96222e-07
1.96222e-07
1.96223e-07
1.96224e-07
1.96226e-07
1.96227e-07
1.96228e-07
1.9623e-07
1.96231e-07
1.96233e-07
1.96234e-07
1.96236e-07
1.96238e-07
1.96239e-07
1.96241e-07
1.96241e-07
1.96243e-07
1.96244e-07
1.96245e-07
1.96246e-07
1.96248e-07
1.96249e-07
1.9625e-07
1.96251e-07
1.96251e-07
1.96252e-07
1.96253e-07
1.96254e-07
1.96254e-07
1.96255e-07
1.96256e-07
1.96256e-07
1.96257e-07
1.96257e-07
1.96258e-07
1.96258e-07
1.96259e-07
1.96259e-07
1.96259e-07
1.96259e-07
1.96259e-07
1.96258e-07
1.96257e-07
1.96257e-07
1.96256e-07
1.96255e-07
1.96253e-07
1.96252e-07
1.96251e-07
1.96249e-07
1.96248e-07
1.96247e-07
1.96246e-07
1.96245e-07
1.96243e-07
1.96242e-07
1.96241e-07
1.9624e-07
1.9624e-07
1.96239e-07
1.96238e-07
1.96237e-07
1.96237e-07
1.96236e-07
1.96236e-07
1.96235e-07
1.96235e-07
1.96235e-07
1.96235e-07
1.96235e-07
1.96235e-07
1.96234e-07
1.96234e-07
1.96234e-07
1.96234e-07
1.96233e-07
1.96233e-07
1.96233e-07
1.96233e-07
1.96233e-07
1.96233e-07
1.96233e-07
1.96234e-07
1.96234e-07
1.96235e-07
1.96235e-07
1.96235e-07
1.96236e-07
1.96236e-07
1.96237e-07
1.96238e-07
1.96239e-07
1.9624e-07
1.9624e-07
1.96241e-07
1.96242e-07
1.96242e-07
1.96243e-07
1.96243e-07
1.96244e-07
1.96241e-07
8.3765e-07
8.37677e-07
8.37683e-07
8.37673e-07
8.37653e-07
8.3763e-07
8.37606e-07
8.37584e-07
8.37563e-07
8.37545e-07
8.37532e-07
8.37521e-07
8.37519e-07
8.37513e-07
8.37508e-07
8.37505e-07
8.37503e-07
8.37503e-07
8.37503e-07
8.37505e-07
8.37508e-07
8.37512e-07
8.37517e-07
8.37522e-07
8.37527e-07
8.37533e-07
8.37539e-07
8.37545e-07
8.37552e-07
8.37559e-07
8.37565e-07
8.37572e-07
8.37578e-07
8.37585e-07
8.37591e-07
8.37597e-07
8.37603e-07
8.37602e-07
8.37607e-07
8.37613e-07
8.37618e-07
8.37621e-07
8.37624e-07
8.37628e-07
8.37631e-07
8.37635e-07
8.37638e-07
8.37641e-07
8.37643e-07
8.37646e-07
8.37648e-07
8.37651e-07
8.37653e-07
8.37655e-07
8.37657e-07
8.37659e-07
8.37659e-07
8.3766e-07
8.37659e-07
8.37657e-07
8.37655e-07
8.37652e-07
8.37649e-07
8.37645e-07
8.3764e-07
8.37635e-07
8.3763e-07
8.37624e-07
8.37619e-07
8.37614e-07
8.37608e-07
8.37604e-07
8.37599e-07
8.37594e-07
8.37589e-07
8.37585e-07
8.37581e-07
8.37578e-07
8.37575e-07
8.37572e-07
8.37569e-07
8.37567e-07
8.37564e-07
8.37562e-07
8.3756e-07
8.37558e-07
8.37559e-07
8.3756e-07
8.37559e-07
8.37558e-07
8.37557e-07
8.37556e-07
8.37555e-07
8.37554e-07
8.37553e-07
8.37552e-07
8.37551e-07
8.37551e-07
8.37551e-07
8.37551e-07
8.37552e-07
8.37554e-07
8.37556e-07
8.37559e-07
8.37559e-07
8.3756e-07
8.37562e-07
8.37565e-07
8.37569e-07
8.37572e-07
8.37575e-07
8.37579e-07
8.37582e-07
8.37585e-07
8.37587e-07
8.3759e-07
8.37593e-07
8.37594e-07
8.37598e-07
8.37586e-07
2.41153e-06
2.41159e-06
2.4116e-06
2.41154e-06
2.41149e-06
2.41142e-06
2.41136e-06
2.4113e-06
2.41124e-06
2.41119e-06
2.41118e-06
2.41115e-06
2.41113e-06
2.41111e-06
2.4111e-06
2.41109e-06
2.41109e-06
2.41109e-06
2.41109e-06
2.4111e-06
2.4111e-06
2.41111e-06
2.41113e-06
2.41114e-06
2.41116e-06
2.41117e-06
2.41119e-06
2.41121e-06
2.41122e-06
2.41124e-06
2.41126e-06
2.41128e-06
2.4113e-06
2.41131e-06
2.41133e-06
2.41135e-06
2.41136e-06
2.41138e-06
2.41139e-06
2.41141e-06
2.41142e-06
2.41141e-06
2.41142e-06
2.41143e-06
2.41144e-06
2.41144e-06
2.41145e-06
2.41146e-06
2.41147e-06
2.41147e-06
2.41148e-06
2.41149e-06
2.41149e-06
2.4115e-06
2.4115e-06
2.41151e-06
2.41151e-06
2.41151e-06
2.41151e-06
2.4115e-06
2.4115e-06
2.41149e-06
2.41148e-06
2.41147e-06
2.41145e-06
2.41144e-06
2.41143e-06
2.41141e-06
2.4114e-06
2.41138e-06
2.41137e-06
2.41135e-06
2.41134e-06
2.41133e-06
2.41132e-06
2.4113e-06
2.41129e-06
2.41129e-06
2.41128e-06
2.41127e-06
2.41126e-06
2.41126e-06
2.41125e-06
2.41124e-06
2.41124e-06
2.41123e-06
2.41126e-06
2.41126e-06
2.41126e-06
2.41125e-06
2.41125e-06
2.41125e-06
2.41124e-06
2.41124e-06
2.41124e-06
2.41124e-06
2.41123e-06
2.41123e-06
2.41123e-06
2.41124e-06
2.41124e-06
2.41124e-06
2.41125e-06
2.41126e-06
2.41124e-06
2.41124e-06
2.41125e-06
2.41125e-06
2.41126e-06
2.41127e-06
2.41128e-06
2.41129e-06
2.4113e-06
2.41131e-06
2.41131e-06
2.41132e-06
2.41133e-06
2.41133e-06
2.41134e-06
2.41131e-06
5.23899e-06
5.23905e-06
5.239e-06
5.23889e-06
5.23877e-06
5.23863e-06
5.2385e-06
5.23838e-06
5.23827e-06
5.23817e-06
5.2381e-06
5.23804e-06
5.238e-06
5.23797e-06
5.23795e-06
5.23793e-06
5.23793e-06
5.23793e-06
5.23794e-06
5.23795e-06
5.23798e-06
5.238e-06
5.23803e-06
5.23806e-06
5.23809e-06
5.23812e-06
5.23816e-06
5.23819e-06
5.23823e-06
5.23826e-06
5.2383e-06
5.23834e-06
5.23837e-06
5.2384e-06
5.23844e-06
5.23846e-06
5.23849e-06
5.23852e-06
5.23855e-06
5.23858e-06
5.2386e-06
5.23863e-06
5.23864e-06
5.23866e-06
5.23867e-06
5.23869e-06
5.2387e-06
5.23871e-06
5.23872e-06
5.23874e-06
5.23874e-06
5.23876e-06
5.23877e-06
5.23878e-06
5.23879e-06
5.2388e-06
5.2388e-06
5.2388e-06
5.23879e-06
5.23878e-06
5.23877e-06
5.23876e-06
5.23873e-06
5.23871e-06
5.23868e-06
5.23866e-06
5.23863e-06
5.2386e-06
5.23857e-06
5.23854e-06
5.23851e-06
5.23849e-06
5.23846e-06
5.23844e-06
5.23841e-06
5.23839e-06
5.23837e-06
5.23835e-06
5.23835e-06
5.23833e-06
5.23832e-06
5.2383e-06
5.23829e-06
5.23828e-06
5.23827e-06
5.23827e-06
5.23826e-06
5.23826e-06
5.23826e-06
5.23825e-06
5.23825e-06
5.23824e-06
5.23824e-06
5.23823e-06
5.23823e-06
5.23822e-06
5.23822e-06
5.23822e-06
5.23822e-06
5.23822e-06
5.23823e-06
5.23824e-06
5.23824e-06
5.23826e-06
5.23827e-06
5.23828e-06
5.23829e-06
5.23831e-06
5.23833e-06
5.23834e-06
5.23836e-06
5.23838e-06
5.2384e-06
5.23841e-06
5.23843e-06
5.23844e-06
5.23845e-06
5.23846e-06
5.23848e-06
5.23839e-06
9.3307e-06
9.33078e-06
9.33062e-06
9.33041e-06
9.33018e-06
9.32995e-06
9.32972e-06
9.32953e-06
9.32934e-06
9.32919e-06
9.32907e-06
9.32898e-06
9.32891e-06
9.32885e-06
9.32882e-06
9.3288e-06
9.32879e-06
9.3288e-06
9.32883e-06
9.32885e-06
9.32889e-06
9.32893e-06
9.32899e-06
9.32904e-06
9.32909e-06
9.32915e-06
9.3292e-06
9.32926e-06
9.32933e-06
9.32939e-06
9.32945e-06
9.32951e-06
9.32956e-06
9.32962e-06
9.32967e-06
9.32972e-06
9.32978e-06
9.32983e-06
9.32986e-06
9.32991e-06
9.32995e-06
9.32999e-06
9.33002e-06
9.33004e-06
9.33007e-06
9.33009e-06
9.33011e-06
9.33013e-06
9.33015e-06
9.33016e-06
9.33018e-06
9.3302e-06
9.33022e-06
9.33023e-06
9.33025e-06
9.33026e-06
9.33026e-06
9.33025e-06
9.33024e-06
9.33024e-06
9.33021e-06
9.33018e-06
9.33014e-06
9.3301e-06
9.33006e-06
9.33001e-06
9.32996e-06
9.32991e-06
9.32987e-06
9.32982e-06
9.32977e-06
9.32973e-06
9.32969e-06
9.32964e-06
9.32961e-06
9.32957e-06
9.32954e-06
9.32951e-06
9.3295e-06
9.32947e-06
9.32945e-06
9.32943e-06
9.32941e-06
9.32939e-06
9.32937e-06
9.32936e-06
9.32935e-06
9.32936e-06
9.32936e-06
9.32935e-06
9.32934e-06
9.32932e-06
9.32931e-06
9.3293e-06
9.32929e-06
9.32929e-06
9.32928e-06
9.32928e-06
9.32928e-06
9.32929e-06
9.3293e-06
9.32932e-06
9.32934e-06
9.32937e-06
9.32938e-06
9.3294e-06
9.32941e-06
9.32944e-06
9.32947e-06
9.32951e-06
9.32953e-06
9.32956e-06
9.32959e-06
9.32961e-06
9.32964e-06
9.32967e-06
9.32969e-06
9.3297e-06
9.32974e-06
9.32955e-06
1.44984e-05
1.44986e-05
1.44983e-05
1.44979e-05
1.44976e-05
1.44972e-05
1.44969e-05
1.44966e-05
1.44963e-05
1.44961e-05
1.44959e-05
1.44958e-05
1.44957e-05
1.44956e-05
1.44956e-05
1.44956e-05
1.44956e-05
1.44956e-05
1.44956e-05
1.44957e-05
1.44957e-05
1.44958e-05
1.44959e-05
1.44959e-05
1.4496e-05
1.44961e-05
1.44962e-05
1.44963e-05
1.44964e-05
1.44965e-05
1.44966e-05
1.44967e-05
1.44967e-05
1.44968e-05
1.44969e-05
1.4497e-05
1.44971e-05
1.44971e-05
1.44972e-05
1.44973e-05
1.44973e-05
1.44974e-05
1.44974e-05
1.44975e-05
1.44975e-05
1.44975e-05
1.44976e-05
1.44976e-05
1.44976e-05
1.44976e-05
1.44977e-05
1.44977e-05
1.44977e-05
1.44977e-05
1.44977e-05
1.44978e-05
1.44978e-05
1.44978e-05
1.44977e-05
1.44977e-05
1.44977e-05
1.44976e-05
1.44976e-05
1.44975e-05
1.44975e-05
1.44974e-05
1.44973e-05
1.44972e-05
1.44972e-05
1.44971e-05
1.4497e-05
1.4497e-05
1.44969e-05
1.44968e-05
1.44968e-05
1.44967e-05
1.44967e-05
1.44966e-05
1.44966e-05
1.44966e-05
1.44965e-05
1.44965e-05
1.44965e-05
1.44965e-05
1.44964e-05
1.44964e-05
1.44964e-05
1.44964e-05
1.44964e-05
1.44964e-05
1.44964e-05
1.44964e-05
1.44963e-05
1.44963e-05
1.44963e-05
1.44963e-05
1.44963e-05
1.44963e-05
1.44963e-05
1.44963e-05
1.44963e-05
1.44964e-05
1.44964e-05
1.44964e-05
1.44965e-05
1.44965e-05
1.44965e-05
1.44965e-05
1.44966e-05
1.44966e-05
1.44967e-05
1.44967e-05
1.44968e-05
1.44968e-05
1.44969e-05
1.44969e-05
1.44969e-05
1.44969e-05
1.4497e-05
1.44967e-05
2.05228e-05
2.05229e-05
2.05225e-05
2.0522e-05
2.05216e-05
2.05211e-05
2.05207e-05
2.05203e-05
2.05199e-05
2.05197e-05
2.05194e-05
2.05193e-05
2.05191e-05
2.0519e-05
2.0519e-05
2.05189e-05
2.05189e-05
2.0519e-05
2.0519e-05
2.05191e-05
2.05191e-05
2.05192e-05
2.05194e-05
2.05195e-05
2.05196e-05
2.05197e-05
2.05198e-05
2.052e-05
2.05201e-05
2.05202e-05
2.05203e-05
2.05204e-05
2.05206e-05
2.05207e-05
2.05208e-05
2.05209e-05
2.0521e-05
2.05211e-05
2.05212e-05
2.05213e-05
2.05214e-05
2.05215e-05
2.05215e-05
2.05216e-05
2.05217e-05
2.05217e-05
2.05217e-05
2.05218e-05
2.05218e-05
2.05218e-05
2.05218e-05
2.05219e-05
2.05219e-05
2.05219e-05
2.0522e-05
2.0522e-05
2.0522e-05
2.05219e-05
2.05219e-05
2.05219e-05
2.05219e-05
2.05218e-05
2.05217e-05
2.05216e-05
2.05215e-05
2.05214e-05
2.05213e-05
2.05212e-05
2.05211e-05
2.05211e-05
2.0521e-05
2.05209e-05
2.05208e-05
2.05207e-05
2.05206e-05
2.05205e-05
2.05205e-05
2.05204e-05
2.05204e-05
2.05203e-05
2.05203e-05
2.05203e-05
2.05202e-05
2.05202e-05
2.05202e-05
2.05201e-05
2.05201e-05
2.05201e-05
2.05201e-05
2.05201e-05
2.052e-05
2.052e-05
2.052e-05
2.052e-05
2.052e-05
2.052e-05
2.052e-05
2.05199e-05
2.052e-05
2.052e-05
2.052e-05
2.052e-05
2.05201e-05
2.05201e-05
2.05202e-05
2.05202e-05
2.05203e-05
2.05203e-05
2.05204e-05
2.05205e-05
2.05205e-05
2.05206e-05
2.05206e-05
2.05207e-05
2.05207e-05
2.05207e-05
2.05208e-05
2.05208e-05
2.05209e-05
2.05205e-05
2.72262e-05
2.72263e-05
2.72259e-05
2.72253e-05
2.72247e-05
2.72242e-05
2.72236e-05
2.72232e-05
2.72227e-05
2.72224e-05
2.72221e-05
2.72219e-05
2.72217e-05
2.72216e-05
2.72215e-05
2.72215e-05
2.72215e-05
2.72215e-05
2.72216e-05
2.72217e-05
2.72218e-05
2.72219e-05
2.72221e-05
2.72222e-05
2.72223e-05
2.72225e-05
2.72227e-05
2.72228e-05
2.7223e-05
2.72232e-05
2.72234e-05
2.72235e-05
2.72236e-05
2.72238e-05
2.7224e-05
2.72241e-05
2.72242e-05
2.72244e-05
2.72245e-05
2.72246e-05
2.72247e-05
2.72248e-05
2.72249e-05
2.7225e-05
2.7225e-05
2.72251e-05
2.72252e-05
2.72252e-05
2.72253e-05
2.72253e-05
2.72253e-05
2.72254e-05
2.72254e-05
2.72254e-05
2.72255e-05
2.72255e-05
2.72255e-05
2.72254e-05
2.72254e-05
2.72254e-05
2.72253e-05
2.72252e-05
2.72251e-05
2.7225e-05
2.72249e-05
2.72248e-05
2.72247e-05
2.72245e-05
2.72244e-05
2.72243e-05
2.72241e-05
2.7224e-05
2.72239e-05
2.72238e-05
2.72237e-05
2.72237e-05
2.72236e-05
2.72235e-05
2.72234e-05
2.72233e-05
2.72233e-05
2.72232e-05
2.72232e-05
2.72231e-05
2.72231e-05
2.72231e-05
2.72231e-05
2.7223e-05
2.7223e-05
2.7223e-05
2.7223e-05
2.72229e-05
2.72229e-05
2.72229e-05
2.72229e-05
2.72229e-05
2.72229e-05
2.72229e-05
2.72229e-05
2.72229e-05
2.72229e-05
2.7223e-05
2.72231e-05
2.72231e-05
2.72232e-05
2.72232e-05
2.72233e-05
2.72234e-05
2.72235e-05
2.72235e-05
2.72235e-05
2.72236e-05
2.72237e-05
2.72238e-05
2.72238e-05
2.72239e-05
2.72239e-05
2.72239e-05
2.72241e-05
2.72236e-05
3.44805e-05
3.44806e-05
3.44801e-05
3.44794e-05
3.44787e-05
3.4478e-05
3.44774e-05
3.44769e-05
3.44764e-05
3.44761e-05
3.44757e-05
3.44755e-05
3.44753e-05
3.44751e-05
3.4475e-05
3.4475e-05
3.4475e-05
3.4475e-05
3.44751e-05
3.44752e-05
3.44754e-05
3.44755e-05
3.44758e-05
3.44759e-05
3.44761e-05
3.44763e-05
3.44766e-05
3.44767e-05
3.44769e-05
3.44772e-05
3.44774e-05
3.44775e-05
3.44777e-05
3.4478e-05
3.44781e-05
3.44783e-05
3.44785e-05
3.44787e-05
3.44788e-05
3.4479e-05
3.44791e-05
3.44793e-05
3.44794e-05
3.44795e-05
3.44796e-05
3.44797e-05
3.44798e-05
3.44798e-05
3.44798e-05
3.44799e-05
3.44799e-05
3.448e-05
3.448e-05
3.44801e-05
3.44801e-05
3.44801e-05
3.448e-05
3.44801e-05
3.448e-05
3.44799e-05
3.44798e-05
3.44797e-05
3.44796e-05
3.44795e-05
3.44793e-05
3.44792e-05
3.4479e-05
3.44789e-05
3.44787e-05
3.44786e-05
3.44784e-05
3.44782e-05
3.44781e-05
3.4478e-05
3.44779e-05
3.44778e-05
3.44777e-05
3.44775e-05
3.44775e-05
3.44774e-05
3.44773e-05
3.44773e-05
3.44772e-05
3.44772e-05
3.44771e-05
3.44771e-05
3.4477e-05
3.4477e-05
3.4477e-05
3.4477e-05
3.44769e-05
3.44769e-05
3.44769e-05
3.44768e-05
3.44768e-05
3.44768e-05
3.44768e-05
3.44768e-05
3.44768e-05
3.44769e-05
3.44769e-05
3.4477e-05
3.4477e-05
3.44771e-05
3.44772e-05
3.44773e-05
3.44774e-05
3.44775e-05
3.44775e-05
3.44776e-05
3.44776e-05
3.44777e-05
3.44778e-05
3.4478e-05
3.4478e-05
3.44781e-05
3.44781e-05
3.44781e-05
3.44783e-05
3.44778e-05
4.21951e-05
4.21951e-05
4.21944e-05
4.21938e-05
4.21931e-05
4.21923e-05
4.21916e-05
4.21911e-05
4.21906e-05
4.21901e-05
4.21897e-05
4.21895e-05
4.21893e-05
4.21892e-05
4.21889e-05
4.21889e-05
4.21889e-05
4.2189e-05
4.21891e-05
4.21892e-05
4.21895e-05
4.21897e-05
4.21899e-05
4.21901e-05
4.21903e-05
4.21907e-05
4.21909e-05
4.21911e-05
4.21913e-05
4.21917e-05
4.21919e-05
4.21921e-05
4.21925e-05
4.21927e-05
4.21929e-05
4.21932e-05
4.21933e-05
4.21935e-05
4.21937e-05
4.2194e-05
4.21941e-05
4.21943e-05
4.21944e-05
4.21945e-05
4.21946e-05
4.21947e-05
4.21948e-05
4.21949e-05
4.2195e-05
4.21951e-05
4.21951e-05
4.21952e-05
4.21952e-05
4.21953e-05
4.21953e-05
4.21953e-05
4.21952e-05
4.21953e-05
4.21952e-05
4.21951e-05
4.21949e-05
4.21947e-05
4.21947e-05
4.21945e-05
4.21943e-05
4.21942e-05
4.2194e-05
4.21938e-05
4.21936e-05
4.21935e-05
4.21932e-05
4.2193e-05
4.21929e-05
4.21927e-05
4.21926e-05
4.21925e-05
4.21924e-05
4.21922e-05
4.21921e-05
4.2192e-05
4.21919e-05
4.21918e-05
4.21918e-05
4.21917e-05
4.21917e-05
4.21916e-05
4.21916e-05
4.21915e-05
4.21915e-05
4.21915e-05
4.21914e-05
4.21914e-05
4.21913e-05
4.21913e-05
4.21913e-05
4.21913e-05
4.21913e-05
4.21912e-05
4.21912e-05
4.21913e-05
4.21913e-05
4.21914e-05
4.21915e-05
4.21916e-05
4.21918e-05
4.21919e-05
4.2192e-05
4.21921e-05
4.21921e-05
4.21922e-05
4.21923e-05
4.21924e-05
4.21925e-05
4.21926e-05
4.21928e-05
4.21928e-05
4.21929e-05
4.21929e-05
4.2193e-05
4.21927e-05
5.03058e-05
5.03055e-05
5.03048e-05
5.03039e-05
5.03033e-05
5.03026e-05
5.03018e-05
5.03012e-05
5.03008e-05
5.03003e-05
5.03e-05
5.02995e-05
5.02993e-05
5.02991e-05
5.02991e-05
5.0299e-05
5.02991e-05
5.02992e-05
5.02993e-05
5.02994e-05
5.02996e-05
5.03e-05
5.03002e-05
5.03005e-05
5.03007e-05
5.0301e-05
5.03015e-05
5.03017e-05
5.0302e-05
5.03022e-05
5.03027e-05
5.03029e-05
5.03032e-05
5.03036e-05
5.03038e-05
5.0304e-05
5.03042e-05
5.03046e-05
5.03048e-05
5.0305e-05
5.03054e-05
5.03055e-05
5.03057e-05
5.03058e-05
5.0306e-05
5.03061e-05
5.03062e-05
5.03063e-05
5.03064e-05
5.03065e-05
5.03065e-05
5.03066e-05
5.03067e-05
5.03067e-05
5.03067e-05
5.03066e-05
5.03068e-05
5.03067e-05
5.03065e-05
5.03064e-05
5.03062e-05
5.03061e-05
5.03059e-05
5.03057e-05
5.03055e-05
5.03053e-05
5.03051e-05
5.03049e-05
5.03047e-05
5.03045e-05
5.03043e-05
5.03039e-05
5.03038e-05
5.03036e-05
5.03035e-05
5.03033e-05
5.03032e-05
5.03031e-05
5.03028e-05
5.03027e-05
5.03026e-05
5.03025e-05
5.03025e-05
5.03024e-05
5.03023e-05
5.03023e-05
5.03022e-05
5.03022e-05
5.03021e-05
5.03021e-05
5.0302e-05
5.0302e-05
5.0302e-05
5.03019e-05
5.03017e-05
5.03017e-05
5.03017e-05
5.03018e-05
5.03018e-05
5.03019e-05
5.0302e-05
5.03021e-05
5.03022e-05
5.03024e-05
5.03025e-05
5.03027e-05
5.03028e-05
5.03029e-05
5.03031e-05
5.03032e-05
5.03031e-05
5.03034e-05
5.03035e-05
5.03036e-05
5.03037e-05
5.03037e-05
5.03038e-05
5.03038e-05
5.03038e-05
5.03038e-05
5.87657e-05
5.87651e-05
5.87642e-05
5.87634e-05
5.87627e-05
5.87619e-05
5.87613e-05
5.87607e-05
5.87602e-05
5.87598e-05
5.87594e-05
5.87591e-05
5.87589e-05
5.87587e-05
5.87586e-05
5.87586e-05
5.87587e-05
5.87588e-05
5.87592e-05
5.87594e-05
5.87596e-05
5.87598e-05
5.87601e-05
5.87603e-05
5.87606e-05
5.87612e-05
5.87615e-05
5.87618e-05
5.87621e-05
5.87626e-05
5.87629e-05
5.87632e-05
5.87635e-05
5.8764e-05
5.87643e-05
5.87645e-05
5.87648e-05
5.87653e-05
5.87655e-05
5.87657e-05
5.87659e-05
5.87664e-05
5.87665e-05
5.87667e-05
5.87669e-05
5.8767e-05
5.87671e-05
5.87673e-05
5.87674e-05
5.87675e-05
5.87675e-05
5.87676e-05
5.87676e-05
5.87677e-05
5.87679e-05
5.87678e-05
5.87677e-05
5.87676e-05
5.87674e-05
5.87674e-05
5.87672e-05
5.8767e-05
5.87667e-05
5.87664e-05
5.87662e-05
5.87659e-05
5.87657e-05
5.87655e-05
5.87652e-05
5.8765e-05
5.87648e-05
5.87646e-05
5.87644e-05
5.8764e-05
5.87638e-05
5.87637e-05
5.87636e-05
5.87634e-05
5.87633e-05
5.87629e-05
5.87628e-05
5.87627e-05
5.87626e-05
5.87626e-05
5.87625e-05
5.87624e-05
5.87624e-05
5.87623e-05
5.87623e-05
5.87622e-05
5.87621e-05
5.87621e-05
5.87621e-05
5.8762e-05
5.8762e-05
5.8762e-05
5.87618e-05
5.87618e-05
5.87619e-05
5.8762e-05
5.87621e-05
5.87623e-05
5.87624e-05
5.87626e-05
5.87628e-05
5.87629e-05
5.87631e-05
5.87633e-05
5.87634e-05
5.87635e-05
5.87637e-05
5.87638e-05
5.87639e-05
5.8764e-05
5.8764e-05
5.87641e-05
5.87644e-05
5.87645e-05
5.87645e-05
5.87645e-05
6.75407e-05
6.75398e-05
6.75389e-05
6.75382e-05
6.75374e-05
6.75366e-05
6.75359e-05
6.75354e-05
6.75351e-05
6.75347e-05
6.75343e-05
6.7534e-05
6.75337e-05
6.75336e-05
6.75335e-05
6.75338e-05
6.75339e-05
6.7534e-05
6.75342e-05
6.75344e-05
6.75346e-05
6.75349e-05
6.75352e-05
6.75358e-05
6.75361e-05
6.75365e-05
6.75368e-05
6.75372e-05
6.75378e-05
6.75382e-05
6.75385e-05
6.75389e-05
6.75395e-05
6.75398e-05
6.75401e-05
6.75404e-05
6.7541e-05
6.75413e-05
6.75415e-05
6.75418e-05
6.75423e-05
6.75426e-05
6.75428e-05
6.7543e-05
6.75432e-05
6.75436e-05
6.75438e-05
6.75439e-05
6.7544e-05
6.75441e-05
6.75442e-05
6.75443e-05
6.75443e-05
6.75443e-05
6.75443e-05
6.75442e-05
6.7544e-05
6.75441e-05
6.75439e-05
6.75437e-05
6.75434e-05
6.75431e-05
6.75428e-05
6.75425e-05
6.75422e-05
6.7542e-05
6.75417e-05
6.75414e-05
6.75412e-05
6.75409e-05
6.75407e-05
6.75405e-05
6.75403e-05
6.75398e-05
6.75396e-05
6.75394e-05
6.75393e-05
6.75391e-05
6.7539e-05
6.75388e-05
6.75384e-05
6.75383e-05
6.75382e-05
6.75381e-05
6.7538e-05
6.75379e-05
6.75378e-05
6.75378e-05
6.75377e-05
6.75376e-05
6.75376e-05
6.75375e-05
6.75375e-05
6.75375e-05
6.75375e-05
6.75375e-05
6.75372e-05
6.75373e-05
6.75374e-05
6.75375e-05
6.75376e-05
6.75378e-05
6.7538e-05
6.75385e-05
6.75387e-05
6.75389e-05
6.75387e-05
6.75389e-05
6.75391e-05
6.75392e-05
6.75394e-05
6.75395e-05
6.75399e-05
6.754e-05
6.75401e-05
6.75401e-05
6.75402e-05
6.75402e-05
6.75403e-05
6.75406e-05
7.66057e-05
7.66044e-05
7.66033e-05
7.66024e-05
7.66019e-05
7.66013e-05
7.66007e-05
7.66001e-05
7.65996e-05
7.65995e-05
7.65991e-05
7.65988e-05
7.65986e-05
7.65988e-05
7.65987e-05
7.65987e-05
7.65988e-05
7.65989e-05
7.65995e-05
7.65998e-05
7.66e-05
7.66003e-05
7.66007e-05
7.6601e-05
7.66014e-05
7.66022e-05
7.66026e-05
7.6603e-05
7.66033e-05
7.66037e-05
7.66045e-05
7.66049e-05
7.66053e-05
7.66056e-05
7.66064e-05
7.66067e-05
7.6607e-05
7.66073e-05
7.66076e-05
7.66083e-05
7.66086e-05
7.66088e-05
7.66091e-05
7.66097e-05
7.66099e-05
7.66101e-05
7.66102e-05
7.66104e-05
7.66105e-05
7.66107e-05
7.66108e-05
7.66108e-05
7.66108e-05
7.66108e-05
7.66111e-05
7.6611e-05
7.66108e-05
7.66105e-05
7.66102e-05
7.66099e-05
7.66096e-05
7.66093e-05
7.6609e-05
7.66086e-05
7.66083e-05
7.6608e-05
7.66077e-05
7.66074e-05
7.66072e-05
7.66069e-05
7.66066e-05
7.66064e-05
7.66062e-05
7.66059e-05
7.66053e-05
7.66052e-05
7.6605e-05
7.66048e-05
7.66047e-05
7.66045e-05
7.66044e-05
7.66039e-05
7.66037e-05
7.66036e-05
7.66035e-05
7.66034e-05
7.66033e-05
7.66032e-05
7.66032e-05
7.66031e-05
7.6603e-05
7.66029e-05
7.66029e-05
7.66029e-05
7.66029e-05
7.66029e-05
7.6603e-05
7.66031e-05
7.66032e-05
7.66034e-05
7.66035e-05
7.66037e-05
7.66039e-05
7.66042e-05
7.66044e-05
7.66046e-05
7.66048e-05
7.6605e-05
7.66051e-05
7.66053e-05
7.66054e-05
7.66056e-05
7.66057e-05
7.66058e-05
7.66058e-05
7.66063e-05
7.66064e-05
7.66064e-05
7.66064e-05
7.66069e-05
8.59421e-05
8.59403e-05
8.59393e-05
8.59383e-05
8.59377e-05
8.59371e-05
8.59365e-05
8.59359e-05
8.59359e-05
8.59354e-05
8.59355e-05
8.59352e-05
8.5935e-05
8.59353e-05
8.59353e-05
8.59353e-05
8.59354e-05
8.5936e-05
8.59362e-05
8.59365e-05
8.59368e-05
8.59371e-05
8.59375e-05
8.59384e-05
8.59388e-05
8.59392e-05
8.59397e-05
8.59401e-05
8.59405e-05
8.59414e-05
8.59419e-05
8.59423e-05
8.59427e-05
8.59431e-05
8.5944e-05
8.59444e-05
8.59447e-05
8.59451e-05
8.59459e-05
8.59462e-05
8.59465e-05
8.59468e-05
8.59471e-05
8.59478e-05
8.59481e-05
8.59483e-05
8.59485e-05
8.59486e-05
8.59488e-05
8.59489e-05
8.5949e-05
8.59491e-05
8.59491e-05
8.59495e-05
8.59493e-05
8.59492e-05
8.59489e-05
8.59486e-05
8.59483e-05
8.59479e-05
8.59476e-05
8.59472e-05
8.59468e-05
8.59465e-05
8.59461e-05
8.59458e-05
8.59455e-05
8.59451e-05
8.59449e-05
8.59446e-05
8.59443e-05
8.59435e-05
8.59433e-05
8.59431e-05
8.59428e-05
8.59426e-05
8.59424e-05
8.59422e-05
8.59416e-05
8.59414e-05
8.59413e-05
8.59411e-05
8.5941e-05
8.59409e-05
8.59407e-05
8.59406e-05
8.59405e-05
8.59399e-05
8.59398e-05
8.59397e-05
8.59396e-05
8.59396e-05
8.59395e-05
8.59395e-05
8.59396e-05
8.59396e-05
8.59397e-05
8.59398e-05
8.594e-05
8.59402e-05
8.59404e-05
8.59411e-05
8.59413e-05
8.59415e-05
8.59418e-05
8.5942e-05
8.59422e-05
8.59424e-05
8.59426e-05
8.59428e-05
8.59429e-05
8.5943e-05
8.59431e-05
8.59437e-05
8.59438e-05
8.59438e-05
8.59439e-05
8.5944e-05
8.5944e-05
8.59451e-05
9.55365e-05
9.55343e-05
9.55331e-05
9.55319e-05
9.55312e-05
9.55312e-05
9.55305e-05
9.553e-05
9.553e-05
9.55296e-05
9.55298e-05
9.55295e-05
9.55299e-05
9.55298e-05
9.55297e-05
9.55303e-05
9.55305e-05
9.55306e-05
9.55315e-05
9.55318e-05
9.55321e-05
9.55325e-05
9.55329e-05
9.55333e-05
9.55343e-05
9.55348e-05
9.55353e-05
9.55358e-05
9.55362e-05
9.55367e-05
9.55372e-05
9.55383e-05
9.55387e-05
9.55392e-05
9.55396e-05
9.554e-05
9.5541e-05
9.55414e-05
9.55418e-05
9.55421e-05
9.55424e-05
9.55433e-05
9.55437e-05
9.5544e-05
9.55442e-05
9.55445e-05
9.55453e-05
9.55455e-05
9.55456e-05
9.55458e-05
9.55459e-05
9.55459e-05
9.55459e-05
9.55458e-05
9.55456e-05
9.55453e-05
9.5545e-05
9.55446e-05
9.55443e-05
9.55439e-05
9.55435e-05
9.55431e-05
9.55427e-05
9.55423e-05
9.55419e-05
9.55415e-05
9.55412e-05
9.55409e-05
9.55405e-05
9.55396e-05
9.55393e-05
9.55391e-05
9.55388e-05
9.55386e-05
9.55383e-05
9.55381e-05
9.55373e-05
9.55371e-05
9.55369e-05
9.55367e-05
9.55366e-05
9.55364e-05
9.55362e-05
9.55361e-05
9.55353e-05
9.55352e-05
9.55351e-05
9.5535e-05
9.55348e-05
9.55347e-05
9.55346e-05
9.55346e-05
9.55345e-05
9.55345e-05
9.55346e-05
9.55347e-05
9.55348e-05
9.55349e-05
9.55351e-05
9.55353e-05
9.55361e-05
9.55364e-05
9.55366e-05
9.55369e-05
9.55371e-05
9.55374e-05
9.55376e-05
9.55378e-05
9.55386e-05
9.55387e-05
9.55389e-05
9.5539e-05
9.55391e-05
9.55392e-05
9.55392e-05
9.55399e-05
9.55399e-05
9.554e-05
9.554e-05
9.55414e-05
0.00010538
0.000105377
0.000105376
0.000105375
0.000105374
0.000105374
0.000105373
0.000105373
0.000105373
0.000105373
0.000105373
0.000105373
0.000105374
0.000105374
0.000105374
0.000105374
0.000105374
0.000105375
0.000105376
0.000105376
0.000105376
0.000105377
0.000105377
0.000105378
0.000105379
0.000105379
0.00010538
0.00010538
0.000105381
0.000105381
0.000105383
0.000105383
0.000105384
0.000105384
0.000105385
0.000105385
0.000105386
0.000105387
0.000105387
0.000105387
0.000105388
0.000105389
0.000105389
0.00010539
0.00010539
0.00010539
0.00010539
0.000105391
0.000105391
0.000105392
0.000105392
0.000105392
0.000105392
0.000105391
0.000105391
0.000105391
0.000105391
0.00010539
0.00010539
0.000105389
0.000105389
0.000105388
0.000105387
0.000105387
0.000105386
0.000105386
0.000105386
0.000105385
0.000105385
0.000105384
0.000105384
0.000105383
0.000105383
0.000105383
0.000105383
0.000105382
0.000105381
0.000105381
0.000105381
0.000105381
0.000105381
0.00010538
0.00010538
0.00010538
0.000105379
0.000105379
0.000105379
0.000105379
0.000105379
0.000105378
0.000105378
0.000105378
0.000105378
0.000105378
0.000105378
0.000105378
0.000105379
0.000105379
0.00010538
0.00010538
0.00010538
0.00010538
0.000105381
0.000105382
0.000105382
0.000105382
0.000105382
0.000105383
0.000105383
0.000105384
0.000105384
0.000105384
0.000105384
0.000105384
0.000105384
0.000105384
0.000105385
0.000105385
0.000105385
0.000105387
0.000115467
0.000115463
0.000115462
0.000115461
0.00011546
0.00011546
0.00011546
0.00011546
0.000115459
0.00011546
0.00011546
0.00011546
0.00011546
0.000115461
0.000115461
0.000115462
0.000115462
0.000115462
0.000115463
0.000115464
0.000115464
0.000115464
0.000115466
0.000115466
0.000115467
0.000115467
0.000115468
0.000115468
0.000115469
0.00011547
0.000115471
0.000115472
0.000115472
0.000115473
0.000115473
0.000115474
0.000115475
0.000115475
0.000115476
0.000115476
0.000115477
0.000115478
0.000115478
0.000115479
0.000115479
0.000115479
0.00011548
0.00011548
0.00011548
0.000115481
0.000115481
0.000115481
0.000115481
0.000115481
0.00011548
0.00011548
0.000115479
0.000115478
0.000115478
0.000115477
0.000115477
0.000115476
0.000115475
0.000115475
0.000115474
0.000115474
0.000115473