/*--------------------------------*- C++ -*----------------------------------*\
  =========                 |
  \\      /  F ield         | OpenFOAM: The Open Source CFD Toolbox
   \\    /   O peration     | Website:  https://openfoam.org
    \\  /    A nd           | Version:  7
     \\/     M anipulation  |
\*---------------------------------------------------------------------------*/
FoamFile
{
    version     2.0;
    format      ascii;
    class       surfaceScalarField;
    location    "17500";
    object      phi;
}
// * * * * * * * * * * * * * * * * * * * * * * * * * * * * * * * * * * * * * //

dimensions      [0 3 -1 0 0 0 0];

internalField   nonuniform List<scalar> 
47680
(
2.01552e-06
-3.61185e-14
2.01552e-06
-6.50513e-12
2.01553e-06
-7.60211e-12
2.01554e-06
-4.58135e-12
2.01554e-06
-5.01692e-13
2.01553e-06
3.01227e-12
2.01553e-06
5.63131e-12
2.01552e-06
7.33682e-12
2.01551e-06
8.27336e-12
2.0155e-06
8.51164e-12
2.01549e-06
8.1217e-12
2.01549e-06
7.4526e-12
2.01548e-06
6.80867e-12
2.01547e-06
6.02045e-12
2.01547e-06
5.25639e-12
2.01546e-06
4.53181e-12
2.01546e-06
3.6061e-12
2.01546e-06
2.85858e-12
2.01546e-06
2.09907e-12
2.01545e-06
1.24093e-12
2.01545e-06
5.29014e-13
2.01545e-06
-1.00585e-13
2.01546e-06
-7.21712e-13
2.01546e-06
-1.39774e-12
2.01546e-06
-1.95662e-12
2.01546e-06
-2.29012e-12
2.01546e-06
-2.71359e-12
2.01547e-06
-3.18512e-12
2.01547e-06
-3.42779e-12
2.01547e-06
-3.64501e-12
2.01548e-06
-4.01514e-12
2.01548e-06
-4.27746e-12
2.01549e-06
-4.37995e-12
2.01549e-06
-4.49129e-12
2.0155e-06
-4.6869e-12
2.0155e-06
-4.80336e-12
2.01551e-06
-4.78461e-12
2.01551e-06
-4.86099e-12
2.01552e-06
-4.85444e-12
2.01552e-06
-4.89828e-12
2.01552e-06
-4.48994e-12
2.01553e-06
-4.00921e-12
2.01553e-06
-3.16355e-12
2.01553e-06
-2.28797e-12
2.01554e-06
-1.22867e-12
2.01553e-06
4.62887e-13
2.01553e-06
1.00307e-12
2.01553e-06
1.06985e-12
2.01553e-06
7.31966e-13
2.01553e-06
1.07772e-13
2.01553e-06
-2.95495e-13
2.01553e-06
-7.11459e-13
2.01553e-06
-1.04787e-12
2.01554e-06
-1.31327e-12
2.01554e-06
-1.50206e-12
2.01554e-06
-1.65744e-12
2.01554e-06
-1.69104e-12
2.01554e-06
-1.59023e-12
2.01554e-06
-1.36449e-12
2.01554e-06
-1.11854e-12
2.01554e-06
-8.18054e-13
2.01555e-06
-4.09472e-13
2.01555e-06
1.36309e-14
2.01554e-06
4.29553e-13
2.01554e-06
7.97837e-13
2.01554e-06
1.09428e-12
2.01554e-06
1.4351e-12
2.01554e-06
1.75519e-12
2.01554e-06
1.90761e-12
2.01554e-06
2.06259e-12
2.01553e-06
2.11915e-12
2.01553e-06
2.19816e-12
2.01553e-06
2.27328e-12
2.01553e-06
2.22224e-12
2.01552e-06
2.27972e-12
2.01552e-06
2.29787e-12
2.01552e-06
2.14468e-12
2.01552e-06
1.93825e-12
2.01552e-06
1.81122e-12
2.01551e-06
1.67844e-12
2.01551e-06
1.50292e-12
2.01551e-06
1.39906e-12
2.01551e-06
1.32809e-12
2.01551e-06
1.15251e-12
2.01551e-06
9.29609e-13
2.01551e-06
7.11774e-13
2.01551e-06
2.64816e-13
2.01551e-06
-8.45343e-14
2.01551e-06
-1.66231e-13
2.01551e-06
-1.62032e-13
2.01551e-06
-2.77936e-14
2.01551e-06
-5.81848e-15
2.01551e-06
-4.41203e-14
2.01551e-06
-1.39938e-13
2.01551e-06
-3.0739e-13
2.01551e-06
-4.11885e-13
2.01551e-06
-5.73636e-13
2.01551e-06
-6.98463e-13
2.01551e-06
-8.03412e-13
2.01551e-06
-7.06798e-13
2.01551e-06
-6.95377e-13
2.01551e-06
-2.30903e-13
2.01551e-06
1.32669e-13
2.01551e-06
9.08045e-13
2.01551e-06
2.06997e-12
2.01551e-06
2.16283e-12
2.01551e-06
1.94108e-12
2.0155e-06
1.28001e-12
2.0155e-06
4.35668e-13
2.0155e-06
-3.52539e-13
2.01551e-06
-1.04257e-12
2.01551e-06
-1.53479e-12
2.01551e-06
-1.96432e-12
2.01551e-06
-2.24477e-12
2.01551e-06
-2.44308e-12
2.01552e-06
-2.36936e-12
2.01552e-06
-1.76063e-12
2.01552e-06
-2.02511e-12
2.01552e-06
-3.36646e-13
3.20491e-12
6.22751e-06
-5.02896e-12
6.22753e-06
-2.58621e-11
6.22755e-06
-2.81017e-11
6.22756e-06
-1.5745e-11
6.22756e-06
1.72661e-13
6.22755e-06
1.37741e-11
6.22753e-06
2.37814e-11
6.22751e-06
3.02544e-11
6.22749e-06
3.37347e-11
6.22746e-06
3.44064e-11
6.22744e-06
3.27539e-11
6.22741e-06
3.00914e-11
6.22739e-06
2.73721e-11
6.22737e-06
2.42165e-11
6.22736e-06
2.11115e-11
6.22735e-06
1.80738e-11
6.22733e-06
1.4442e-11
6.22733e-06
1.13441e-11
6.22732e-06
8.26726e-12
6.22732e-06
4.91035e-12
6.22731e-06
2.01452e-12
6.22732e-06
-5.6489e-13
6.22732e-06
-3.09813e-12
6.22732e-06
-5.72527e-12
6.22733e-06
-7.90219e-12
6.22733e-06
-9.33696e-12
6.22734e-06
-1.10074e-11
6.22735e-06
-1.28191e-11
6.22736e-06
-1.38926e-11
6.22737e-06
-1.48091e-11
6.22739e-06
-1.61548e-11
6.2274e-06
-1.71569e-11
6.22741e-06
-1.76174e-11
6.22743e-06
-1.80815e-11
6.22744e-06
-1.88011e-11
6.22745e-06
-1.92579e-11
6.22747e-06
-1.9258e-11
6.22748e-06
-1.95006e-11
6.2275e-06
-1.95639e-11
6.22751e-06
-1.96544e-11
6.22753e-06
-1.82198e-11
6.22754e-06
-1.63404e-11
6.22755e-06
-1.3359e-11
6.22756e-06
-1.01442e-11
6.22756e-06
-6.08695e-12
6.22756e-06
-4.20679e-14
6.22756e-06
2.50579e-12
6.22756e-06
3.0555e-12
6.22756e-06
2.04887e-12
6.22756e-06
-2.02404e-15
6.22756e-06
-1.49963e-12
6.22756e-06
-2.9952e-12
6.22756e-06
-4.24991e-12
6.22757e-06
-5.21615e-12
6.22757e-06
-5.89517e-12
6.22758e-06
-6.40331e-12
6.22758e-06
-6.45316e-12
6.22759e-06
-5.98547e-12
6.22759e-06
-5.07177e-12
6.22759e-06
-4.03882e-12
6.2276e-06
-2.78215e-12
6.2276e-06
-1.15373e-12
6.2276e-06
5.37019e-13
6.22759e-06
2.1796e-12
6.22759e-06
3.64498e-12
6.22759e-06
4.86251e-12
6.22758e-06
6.1903e-12
6.22758e-06
7.40478e-12
6.22757e-06
8.05191e-12
6.22756e-06
8.61864e-12
6.22756e-06
8.86842e-12
6.22755e-06
9.16578e-12
6.22754e-06
9.42797e-12
6.22754e-06
9.28264e-12
6.22753e-06
9.41892e-12
6.22752e-06
9.42221e-12
6.22752e-06
8.85275e-12
6.22751e-06
8.06279e-12
6.2275e-06
7.51571e-12
6.2275e-06
6.99955e-12
6.22749e-06
6.35183e-12
6.22749e-06
5.90901e-12
6.22748e-06
5.58021e-12
6.22748e-06
4.8955e-12
6.22748e-06
4.03648e-12
6.22748e-06
3.0604e-12
6.22747e-06
1.38496e-12
6.22747e-06
1.28366e-13
6.22747e-06
-2.42292e-13
6.22747e-06
-2.48239e-13
6.22747e-06
1.70272e-13
6.22747e-06
2.51881e-13
6.22747e-06
9.42162e-14
6.22747e-06
-2.75035e-13
6.22747e-06
-8.86155e-13
6.22748e-06
-1.35977e-12
6.22748e-06
-1.99836e-12
6.22748e-06
-2.56551e-12
6.22748e-06
-3.01324e-12
6.22748e-06
-2.87369e-12
6.22749e-06
-2.87411e-12
6.22749e-06
-1.44939e-12
6.22749e-06
-1.61485e-13
6.22748e-06
2.66347e-12
6.22748e-06
6.75205e-12
6.22748e-06
7.4172e-12
6.22747e-06
6.65125e-12
6.22747e-06
4.35227e-12
6.22747e-06
1.32977e-12
6.22747e-06
-1.56554e-12
6.22747e-06
-4.12012e-12
6.22748e-06
-6.01721e-12
6.22748e-06
-7.62434e-12
6.22749e-06
-8.73675e-12
6.22749e-06
-9.55131e-12
6.2275e-06
-9.32405e-12
6.22751e-06
-7.266e-12
6.22751e-06
-8.0387e-12
6.22751e-06
-1.28215e-12
8.48392e-12
1.07241e-05
-2.06019e-11
1.07242e-05
-5.8911e-11
1.07242e-05
-5.90465e-11
1.07242e-05
-3.02831e-11
1.07242e-05
4.90966e-12
1.07242e-05
3.46327e-11
1.07241e-05
5.6262e-11
1.07241e-05
7.01437e-11
1.07241e-05
7.74242e-11
1.0724e-05
7.83653e-11
1.0724e-05
7.44139e-11
1.07239e-05
6.83903e-11
1.07239e-05
6.20266e-11
1.07239e-05
5.4865e-11
1.07238e-05
4.77497e-11
1.07238e-05
4.06718e-11
1.07238e-05
3.25359e-11
1.07238e-05
2.53885e-11
1.07238e-05
1.83708e-11
1.07238e-05
1.08954e-11
1.07238e-05
4.29778e-12
1.07238e-05
-1.64084e-12
1.07238e-05
-7.4434e-12
1.07238e-05
-1.32427e-11
1.07238e-05
-1.80529e-11
1.07238e-05
-2.14335e-11
1.07238e-05
-2.51801e-11
1.07238e-05
-2.91626e-11
1.07239e-05
-3.17337e-11
1.07239e-05
-3.38783e-11
1.07239e-05
-3.67075e-11
1.07239e-05
-3.88658e-11
1.07239e-05
-3.99781e-11
1.0724e-05
-4.10631e-11
1.0724e-05
-4.25899e-11
1.0724e-05
-4.36047e-11
1.0724e-05
-4.36986e-11
1.07241e-05
-4.41902e-11
1.07241e-05
-4.44378e-11
1.07241e-05
-4.45531e-11
1.07241e-05
-4.15634e-11
1.07242e-05
-3.74676e-11
1.07242e-05
-3.14187e-11
1.07242e-05
-2.4667e-11
1.07242e-05
-1.59259e-11
1.07242e-05
-3.35539e-12
1.07242e-05
2.84945e-12
1.07242e-05
4.61524e-12
1.07242e-05
2.96567e-12
1.07242e-05
-9.04502e-13
1.07242e-05
-3.99743e-12
1.07242e-05
-7.08765e-12
1.07242e-05
-9.73234e-12
1.07242e-05
-1.17356e-11
1.07242e-05
-1.31115e-11
1.07242e-05
-1.40515e-11
1.07242e-05
-1.39879e-11
1.07242e-05
-1.28051e-11
1.07243e-05
-1.07033e-11
1.07243e-05
-8.27933e-12
1.07243e-05
-5.33993e-12
1.07243e-05
-1.65456e-12
1.07243e-05
2.15479e-12
1.07243e-05
5.82303e-12
1.07243e-05
9.11827e-12
1.07242e-05
1.19128e-11
1.07242e-05
1.48494e-11
1.07242e-05
1.74838e-11
1.07242e-05
1.89701e-11
1.07242e-05
2.01747e-11
1.07242e-05
2.07602e-11
1.07242e-05
2.1402e-11
1.07242e-05
2.19399e-11
1.07242e-05
2.16774e-11
1.07241e-05
2.18413e-11
1.07241e-05
2.17187e-11
1.07241e-05
2.04911e-11
1.07241e-05
1.87641e-11
1.07241e-05
1.7474e-11
1.07241e-05
1.63384e-11
1.07241e-05
1.49593e-11
1.07241e-05
1.39213e-11
1.07241e-05
1.31023e-11
1.07241e-05
1.15781e-11
1.07241e-05
9.67128e-12
1.0724e-05
7.30608e-12
1.0724e-05
3.69578e-12
1.0724e-05
1.12312e-12
1.0724e-05
2.53696e-13
1.0724e-05
1.78358e-13
1.0724e-05
9.37576e-13
1.0724e-05
1.08171e-12
1.0724e-05
7.12266e-13
1.0724e-05
-9.19113e-14
1.0724e-05
-1.39185e-12
1.0724e-05
-2.53506e-12
1.0724e-05
-3.99063e-12
1.0724e-05
-5.36846e-12
1.0724e-05
-6.47615e-12
1.07241e-05
-6.5377e-12
1.07241e-05
-6.71861e-12
1.07241e-05
-4.18461e-12
1.07241e-05
-1.63521e-12
1.07241e-05
4.23301e-12
1.07241e-05
1.25964e-11
1.0724e-05
1.43917e-11
1.0724e-05
1.2935e-11
1.0724e-05
8.32782e-12
1.0724e-05
2.14832e-12
1.0724e-05
-3.89036e-12
1.0724e-05
-9.28014e-12
1.07241e-05
-1.33907e-11
1.07241e-05
-1.68269e-11
1.07241e-05
-1.93054e-11
1.07241e-05
-2.11699e-11
1.07241e-05
-2.0798e-11
1.07241e-05
-1.67221e-11
1.07241e-05
-1.80072e-11
1.07241e-05
-2.95591e-12
1.15397e-11
1.5501e-05
-5.31177e-11
1.55011e-05
-1.06385e-10
1.55011e-05
-9.68872e-11
1.55011e-05
-4.37691e-11
1.55011e-05
1.73761e-11
1.55011e-05
6.82465e-11
1.5501e-05
1.04858e-10
1.5501e-05
1.2814e-10
1.55009e-05
1.39963e-10
1.55008e-05
1.40541e-10
1.55008e-05
1.33086e-10
1.55007e-05
1.22336e-10
1.55007e-05
1.10732e-10
1.55006e-05
9.78871e-11
1.55006e-05
8.49772e-11
1.55006e-05
7.2041e-11
1.55005e-05
5.7595e-11
1.55005e-05
4.46765e-11
1.55005e-05
3.20746e-11
1.55005e-05
1.89021e-11
1.55005e-05
7.09656e-12
1.55005e-05
-3.66345e-12
1.55005e-05
-1.41246e-11
1.55005e-05
-2.42227e-11
1.55005e-05
-3.25998e-11
1.55006e-05
-3.88063e-11
1.55006e-05
-4.5463e-11
1.55006e-05
-5.24049e-11
1.55006e-05
-5.71767e-11
1.55006e-05
-6.10994e-11
1.55007e-05
-6.58271e-11
1.55007e-05
-6.9474e-11
1.55007e-05
-7.15492e-11
1.55008e-05
-7.36069e-11
1.55008e-05
-7.61868e-11
1.55008e-05
-7.79099e-11
1.55009e-05
-7.81934e-11
1.55009e-05
-7.90536e-11
1.55009e-05
-7.96024e-11
1.5501e-05
-7.97061e-11
1.5501e-05
-7.46495e-11
1.5501e-05
-6.76918e-11
1.55011e-05
-5.80165e-11
1.55011e-05
-4.67959e-11
1.55011e-05
-3.19964e-11
1.55011e-05
-1.11282e-11
1.55011e-05
3.53453e-13
1.55011e-05
4.31541e-12
1.55011e-05
2.40054e-12
1.55011e-05
-3.27993e-12
1.55011e-05
-8.2126e-12
1.55011e-05
-1.32504e-11
1.55011e-05
-1.76142e-11
1.55011e-05
-2.08606e-11
1.55012e-05
-2.30182e-11
1.55012e-05
-2.43358e-11
1.55012e-05
-2.38878e-11
1.55012e-05
-2.15457e-11
1.55012e-05
-1.77136e-11
1.55012e-05
-1.32421e-11
1.55012e-05
-7.8269e-12
1.55012e-05
-1.22443e-12
1.55012e-05
5.5338e-12
1.55012e-05
1.1987e-11
1.55012e-05
1.7826e-11
1.55012e-05
2.28557e-11
1.55012e-05
2.79842e-11
1.55011e-05
3.24976e-11
1.55011e-05
3.51265e-11
1.55011e-05
3.71664e-11
1.55011e-05
3.82222e-11
1.55011e-05
3.93217e-11
1.55011e-05
4.02051e-11
1.5501e-05
3.97937e-11
1.5501e-05
3.98702e-11
1.5501e-05
3.94297e-11
1.5501e-05
3.73054e-11
1.5501e-05
3.43113e-11
1.5501e-05
3.19578e-11
1.55009e-05
2.99985e-11
1.55009e-05
2.7661e-11
1.55009e-05
2.57584e-11
1.55009e-05
2.41796e-11
1.55009e-05
2.1478e-11
1.55009e-05
1.81058e-11
1.55009e-05
1.3647e-11
1.55009e-05
7.50119e-12
1.55009e-05
3.4009e-12
1.55009e-05
1.8445e-12
1.55009e-05
1.58195e-12
1.55009e-05
2.65334e-12
1.55009e-05
2.79761e-12
1.55009e-05
2.10459e-12
1.55009e-05
7.26215e-13
1.55009e-05
-1.49215e-12
1.55009e-05
-3.62655e-12
1.55009e-05
-6.27868e-12
1.55009e-05
-8.87166e-12
1.55009e-05
-1.10491e-11
1.55009e-05
-1.17117e-11
1.55009e-05
-1.24379e-11
1.55009e-05
-8.93389e-12
1.55009e-05
-5.04498e-12
1.55009e-05
4.58738e-12
1.55009e-05
1.81835e-11
1.55009e-05
2.15337e-11
1.55009e-05
1.94259e-11
1.55009e-05
1.21509e-11
1.55009e-05
2.22563e-12
1.55009e-05
-7.64402e-12
1.55009e-05
-1.65939e-11
1.55009e-05
-2.3565e-11
1.55009e-05
-2.93625e-11
1.55009e-05
-3.3702e-11
1.55009e-05
-3.7056e-11
1.5501e-05
-3.66123e-11
1.5501e-05
-3.01467e-11
1.5501e-05
-3.18137e-11
1.5501e-05
-5.30632e-12
7.82368e-12
2.05012e-05
-1.076e-10
2.05013e-05
-1.66568e-10
2.05013e-05
-1.36108e-10
2.05014e-05
-5.09295e-11
2.05013e-05
4.09245e-11
2.05013e-05
1.16219e-10
2.05012e-05
1.6985e-10
2.05011e-05
2.03668e-10
2.05011e-05
2.20157e-10
2.0501e-05
2.19324e-10
2.05009e-05
2.07246e-10
2.05008e-05
1.90922e-10
2.05008e-05
1.72574e-10
2.05007e-05
1.52159e-10
2.05007e-05
1.3172e-10
2.05006e-05
1.11175e-10
2.05006e-05
8.87579e-11
2.05006e-05
6.84812e-11
2.05006e-05
4.87708e-11
2.05006e-05
2.84818e-11
2.05006e-05
1.00927e-11
2.05006e-05
-6.90051e-12
2.05006e-05
-2.33352e-11
2.05006e-05
-3.86501e-11
2.05006e-05
-5.13785e-11
2.05006e-05
-6.12815e-11
2.05006e-05
-7.16466e-11
2.05007e-05
-8.22604e-11
2.05007e-05
-8.99111e-11
2.05007e-05
-9.61289e-11
2.05008e-05
-1.03056e-10
2.05008e-05
-1.08431e-10
2.05009e-05
-1.11795e-10
2.05009e-05
-1.15222e-10
2.05009e-05
-1.19052e-10
2.0501e-05
-1.21604e-10
2.0501e-05
-1.22536e-10
2.05011e-05
-1.23964e-10
2.05011e-05
-1.24601e-10
2.05012e-05
-1.24591e-10
2.05012e-05
-1.16994e-10
2.05013e-05
-1.0683e-10
2.05013e-05
-9.33667e-11
2.05013e-05
-7.69532e-11
2.05013e-05
-5.50306e-11
2.05014e-05
-2.45057e-11
2.05014e-05
-6.31195e-12
2.05014e-05
9.10953e-13
2.05014e-05
-5.90405e-13
2.05014e-05
-7.69646e-12
2.05014e-05
-1.44585e-11
2.05014e-05
-2.16161e-11
2.05014e-05
-2.78595e-11
2.05014e-05
-3.23927e-11
2.05014e-05
-3.52866e-11
2.05014e-05
-3.6793e-11
2.05014e-05
-3.55514e-11
2.05015e-05
-3.15428e-11
2.05015e-05
-2.54477e-11
2.05015e-05
-1.82642e-11
2.05015e-05
-9.56044e-12
2.05015e-05
7.79026e-13
2.05015e-05
1.12167e-11
2.05015e-05
2.11018e-11
2.05014e-05
3.01254e-11
2.05014e-05
3.79977e-11
2.05014e-05
4.58164e-11
2.05014e-05
5.25574e-11
2.05014e-05
5.65553e-11
2.05013e-05
5.95866e-11
2.05013e-05
6.12426e-11
2.05013e-05
6.29087e-11
2.05013e-05
6.41849e-11
2.05012e-05
6.3567e-11
2.05012e-05
6.33851e-11
2.05012e-05
6.23701e-11
2.05012e-05
5.91267e-11
2.05012e-05
5.45821e-11
2.05011e-05
5.09051e-11
2.05011e-05
4.79933e-11
2.05011e-05
4.44942e-11
2.05011e-05
4.14534e-11
2.05011e-05
3.88284e-11
2.05011e-05
3.46133e-11
2.05011e-05
2.9363e-11
2.0501e-05
2.21095e-11
2.0501e-05
1.30783e-11
2.0501e-05
7.47713e-12
2.0501e-05
5.00663e-12
2.0501e-05
4.36316e-12
2.0501e-05
5.62543e-12
2.0501e-05
5.62683e-12
2.0501e-05
4.47909e-12
2.0501e-05
2.41179e-12
2.0501e-05
-9.43952e-13
2.0501e-05
-4.40618e-12
2.0501e-05
-8.65389e-12
2.0501e-05
-1.28821e-11
2.0501e-05
-1.66016e-11
2.0501e-05
-1.83925e-11
2.0501e-05
-2.01895e-11
2.05011e-05
-1.60754e-11
2.05011e-05
-1.09914e-11
2.05011e-05
2.87441e-12
2.05011e-05
2.21843e-11
2.0501e-05
2.72719e-11
2.0501e-05
2.477e-11
2.0501e-05
1.48132e-11
2.0501e-05
9.8007e-13
2.0501e-05
-1.30155e-11
2.05011e-05
-2.59663e-11
2.05011e-05
-3.62311e-11
2.05011e-05
-4.47785e-11
2.05011e-05
-5.14328e-11
2.05011e-05
-5.67083e-11
2.05011e-05
-5.6267e-11
2.05012e-05
-4.71929e-11
2.05012e-05
-4.90895e-11
2.05012e-05
-7.96315e-12
-6.88939e-12
2.55807e-05
-1.82347e-10
2.55808e-05
-2.3274e-10
2.55808e-05
-1.70405e-10
2.55808e-05
-4.84084e-11
2.55808e-05
7.6416e-11
2.55807e-05
1.76956e-10
2.55807e-05
2.48008e-10
2.55806e-05
2.92614e-10
2.55805e-05
3.13341e-10
2.55804e-05
3.11139e-10
2.55803e-05
2.94028e-10
2.55802e-05
2.70648e-10
2.55802e-05
2.44233e-10
2.55801e-05
2.14813e-10
2.558e-05
1.85589e-10
2.558e-05
1.56053e-10
2.558e-05
1.24443e-10
2.55799e-05
9.56219e-11
2.55799e-05
6.76347e-11
2.55799e-05
3.91818e-11
2.55799e-05
1.31492e-11
2.55799e-05
-1.12683e-11
2.55799e-05
-3.47144e-11
2.55799e-05
-5.57744e-11
2.55799e-05
-7.34389e-11
2.558e-05
-8.78488e-11
2.558e-05
-1.02597e-10
2.558e-05
-1.17453e-10
2.55801e-05
-1.28559e-10
2.55801e-05
-1.37469e-10
2.55802e-05
-1.46752e-10
2.55802e-05
-1.54027e-10
2.55803e-05
-1.5905e-10
2.55803e-05
-1.64216e-10
2.55804e-05
-1.69416e-10
2.55804e-05
-1.72982e-10
2.55805e-05
-1.75101e-10
2.55805e-05
-1.77276e-10
2.55806e-05
-1.77782e-10
2.55806e-05
-1.77568e-10
2.55807e-05
-1.6823e-10
2.55807e-05
-1.55057e-10
2.55808e-05
-1.36853e-10
2.55808e-05
-1.14574e-10
2.55808e-05
-8.47913e-11
2.55809e-05
-4.3672e-11
2.55809e-05
-1.76746e-11
2.55809e-05
-6.2355e-12
2.55809e-05
-6.42728e-12
2.55809e-05
-1.4303e-11
2.55809e-05
-2.27119e-11
2.55809e-05
-3.19834e-11
2.55809e-05
-4.0079e-11
2.55809e-05
-4.57696e-11
2.55809e-05
-4.92512e-11
2.5581e-05
-5.0656e-11
2.5581e-05
-4.81343e-11
2.5581e-05
-4.20084e-11
2.5581e-05
-3.3241e-11
2.5581e-05
-2.27659e-11
2.5581e-05
-1.00489e-11
2.5581e-05
4.67241e-12
2.5581e-05
1.92771e-11
2.5581e-05
3.30208e-11
2.5581e-05
4.57175e-11
2.55809e-05
5.69001e-11
2.55809e-05
6.77451e-11
2.55809e-05
7.68991e-11
2.55809e-05
8.23891e-11
2.55808e-05
8.65324e-11
2.55808e-05
8.89314e-11
2.55808e-05
9.12846e-11
2.55807e-05
9.29707e-11
2.55807e-05
9.20508e-11
2.55807e-05
9.14067e-11
2.55807e-05
8.95534e-11
2.55806e-05
8.50454e-11
2.55806e-05
7.87693e-11
2.55806e-05
7.36566e-11
2.55806e-05
6.97842e-11
2.55805e-05
6.49248e-11
2.55805e-05
6.04845e-11
2.55805e-05
5.65474e-11
2.55805e-05
5.05239e-11
2.55805e-05
4.3026e-11
2.55805e-05
3.359e-11
2.55805e-05
2.1841e-11
2.55805e-05
1.38155e-11
2.55805e-05
9.99966e-12
2.55804e-05
8.69851e-12
2.55804e-05
9.93412e-12
2.55804e-05
9.5701e-12
2.55804e-05
7.84566e-12
2.55804e-05
5.0109e-12
2.55804e-05
2.89531e-13
2.55804e-05
-4.83539e-12
2.55804e-05
-1.1049e-11
2.55804e-05
-1.72966e-11
2.55804e-05
-2.3034e-11
2.55805e-05
-2.65325e-11
2.55805e-05
-2.99848e-11
2.55805e-05
-2.57122e-11
2.55805e-05
-1.96896e-11
2.55805e-05
-2.49849e-12
2.55805e-05
2.23891e-11
2.55805e-05
3.03175e-11
2.55805e-05
2.80352e-11
2.55805e-05
1.57422e-11
2.55805e-05
-1.72823e-12
2.55805e-05
-1.9772e-11
2.55805e-05
-3.68776e-11
2.55805e-05
-5.06232e-11
2.55805e-05
-6.21725e-11
2.55806e-05
-7.15774e-11
2.55806e-05
-7.91719e-11
2.55806e-05
-7.87336e-11
2.55806e-05
-6.69753e-11
2.55806e-05
-6.89678e-11
2.55806e-05
-1.053e-11
-3.36471e-11
3.05439e-05
-2.6519e-10
3.0544e-05
-2.96218e-10
3.0544e-05
-1.95291e-10
3.0544e-05
-3.57094e-11
3.05439e-05
1.20945e-10
3.05439e-05
2.45323e-10
3.05438e-05
3.32993e-10
3.05437e-05
3.87956e-10
3.05436e-05
4.1216e-10
3.05435e-05
4.08787e-10
3.05434e-05
3.86977e-10
3.05433e-05
3.55654e-10
3.05432e-05
3.20851e-10
3.05432e-05
2.82072e-10
3.05431e-05
2.43296e-10
3.05431e-05
2.04259e-10
3.0543e-05
1.62939e-10
3.0543e-05
1.24694e-10
3.0543e-05
8.77975e-11
3.0543e-05
5.09434e-11
3.05429e-05
1.66395e-11
3.0543e-05
-1.6327e-11
3.0543e-05
-4.73513e-11
3.0543e-05
-7.41637e-11
3.0543e-05
-9.71927e-11
3.0543e-05
-1.1683e-10
3.05431e-05
-1.36411e-10
3.05431e-05
-1.55888e-10
3.05432e-05
-1.70868e-10
3.05432e-05
-1.82669e-10
3.05432e-05
-1.94319e-10
3.05433e-05
-2.03665e-10
3.05433e-05
-2.108e-10
3.05434e-05
-2.18048e-10
3.05435e-05
-2.24915e-10
3.05435e-05
-2.29787e-10
3.05436e-05
-2.33111e-10
3.05436e-05
-2.36024e-10
3.05437e-05
-2.36792e-10
3.05437e-05
-2.36499e-10
3.05438e-05
-2.25909e-10
3.05439e-05
-2.10378e-10
3.05439e-05
-1.86955e-10
3.0544e-05
-1.58466e-10
3.0544e-05
-1.204e-10
3.0544e-05
-6.81282e-11
3.0544e-05
-3.39614e-11
3.0544e-05
-1.73232e-11
3.0544e-05
-1.49061e-11
3.05441e-05
-2.30769e-11
3.05441e-05
-3.29147e-11
3.05441e-05
-4.38492e-11
3.05441e-05
-5.35764e-11
3.05441e-05
-6.0146e-11
3.05441e-05
-6.40172e-11
3.05441e-05
-6.49661e-11
3.05442e-05
-6.06801e-11
3.05442e-05
-5.21835e-11
3.05442e-05
-4.05472e-11
3.05442e-05
-2.63366e-11
3.05442e-05
-8.79291e-12
3.05442e-05
1.06433e-11
3.05442e-05
2.92671e-11
3.05441e-05
4.70157e-11
3.05441e-05
6.36826e-11
3.05441e-05
7.84332e-11
3.05441e-05
9.24178e-11
3.0544e-05
1.0398e-10
3.0544e-05
1.10991e-10
3.0544e-05
1.16353e-10
3.0544e-05
1.19948e-10
3.05439e-05
1.23121e-10
3.05439e-05
1.24907e-10
3.05439e-05
1.23547e-10
3.05438e-05
1.2224e-10
3.05438e-05
1.19343e-10
3.05438e-05
1.13572e-10
3.05437e-05
1.05806e-10
3.05437e-05
9.93749e-11
3.05437e-05
9.43784e-11
3.05437e-05
8.79047e-11
3.05437e-05
8.18467e-11
3.05436e-05
7.63946e-11
3.05436e-05
6.86193e-11
3.05436e-05
5.86689e-11
3.05436e-05
4.7475e-11
3.05436e-05
3.33407e-11
3.05436e-05
2.22869e-11
3.05436e-05
1.67963e-11
3.05436e-05
1.44918e-11
3.05435e-05
1.53984e-11
3.05435e-05
1.46702e-11
3.05435e-05
1.23065e-11
3.05435e-05
8.37124e-12
3.05435e-05
2.0169e-12
3.05435e-05
-5.07665e-12
3.05435e-05
-1.3551e-11
3.05435e-05
-2.21215e-11
3.05435e-05
-3.0306e-11
3.05436e-05
-3.60596e-11
3.05436e-05
-4.16921e-11
3.05436e-05
-3.79263e-11
3.05436e-05
-3.12829e-11
3.05436e-05
-1.13481e-11
3.05436e-05
1.85579e-11
3.05436e-05
3.00662e-11
3.05436e-05
2.89191e-11
3.05436e-05
1.49426e-11
3.05436e-05
-5.8042e-12
3.05436e-05
-2.75532e-11
3.05436e-05
-4.81798e-11
3.05436e-05
-6.53487e-11
3.05437e-05
-8.03505e-11
3.05437e-05
-9.29643e-11
3.05437e-05
-1.0318e-10
3.05437e-05
-1.02578e-10
3.05438e-05
-8.82362e-11
3.05438e-05
-9.01796e-11
3.05438e-05
-1.38238e-11
-6.72422e-11
3.52427e-05
-3.38708e-10
3.52427e-05
-3.49125e-10
3.52427e-05
-2.09619e-10
3.52427e-05
-1.47915e-11
3.52427e-05
1.70024e-10
3.52426e-05
3.15379e-10
3.52425e-05
4.18222e-10
3.52424e-05
4.82548e-10
3.52423e-05
5.09196e-10
3.52422e-05
5.04743e-10
3.52421e-05
4.78964e-10
3.5242e-05
4.40374e-10
3.5242e-05
3.97831e-10
3.52419e-05
3.49986e-10
3.52418e-05
3.01646e-10
3.52418e-05
2.53212e-10
3.52417e-05
2.02247e-10
3.52417e-05
1.54775e-10
3.52417e-05
1.08993e-10
3.52417e-05
6.34422e-11
3.52417e-05
2.04512e-11
3.52417e-05
-2.12995e-11
3.52417e-05
-5.97862e-11
3.52417e-05
-9.2361e-11
3.52417e-05
-1.21223e-10
3.52418e-05
-1.467e-10
3.52418e-05
-1.71264e-10
3.52418e-05
-1.95098e-10
3.52419e-05
-2.14193e-10
3.52419e-05
-2.29342e-10
3.5242e-05
-2.43276e-10
3.5242e-05
-2.54955e-10
3.52421e-05
-2.6475e-10
3.52421e-05
-2.74349e-10
3.52422e-05
-2.83011e-10
3.52423e-05
-2.89517e-10
3.52423e-05
-2.94108e-10
3.52424e-05
-2.98159e-10
3.52424e-05
-2.99625e-10
3.52425e-05
-2.98982e-10
3.52426e-05
-2.86728e-10
3.52426e-05
-2.69336e-10
3.52427e-05
-2.41817e-10
3.52427e-05
-2.07302e-10
3.52428e-05
-1.60775e-10
3.52428e-05
-9.71044e-11
3.52428e-05
-5.4807e-11
3.52428e-05
-3.21606e-11
3.52428e-05
-2.5957e-11
3.52429e-05
-3.41037e-11
3.52429e-05
-4.4582e-11
3.52429e-05
-5.6614e-11
3.52429e-05
-6.76947e-11
3.52429e-05
-7.47268e-11
3.52429e-05
-7.87781e-11
3.52429e-05
-7.8832e-11
3.52429e-05
-7.23362e-11
3.5243e-05
-6.14892e-11
3.5243e-05
-4.64687e-11
3.5243e-05
-2.81181e-11
3.5243e-05
-5.68331e-12
3.5243e-05
1.83008e-11
3.52429e-05
4.0527e-11
3.52429e-05
6.23296e-11
3.52429e-05
8.30953e-11
3.52429e-05
1.01445e-10
3.52429e-05
1.18458e-10
3.52428e-05
1.32257e-10
3.52428e-05
1.40763e-10
3.52428e-05
1.4748e-10
3.52427e-05
1.52697e-10
3.52427e-05
1.5666e-10
3.52427e-05
1.58227e-10
3.52426e-05
1.56369e-10
3.52426e-05
1.54207e-10
3.52426e-05
1.50155e-10
3.52425e-05
1.43316e-10
3.52425e-05
1.34862e-10
3.52425e-05
1.2734e-10
3.52425e-05
1.20684e-10
3.52424e-05
1.1232e-10
3.52424e-05
1.04509e-10
3.52424e-05
9.7432e-11
3.52424e-05
8.79768e-11
3.52424e-05
7.54575e-11
3.52423e-05
6.22056e-11
3.52423e-05
4.63615e-11
3.52423e-05
3.27844e-11
3.52423e-05
2.51757e-11
3.52423e-05
2.14828e-11
3.52423e-05
2.175e-11
3.52423e-05
2.05905e-11
3.52423e-05
1.74867e-11
3.52423e-05
1.21716e-11
3.52423e-05
3.95118e-12
3.52423e-05
-5.381e-12
3.52423e-05
-1.63216e-11
3.52423e-05
-2.74381e-11
3.52423e-05
-3.84613e-11
3.52423e-05
-4.69579e-11
3.52423e-05
-5.51919e-11
3.52423e-05
-5.2394e-11
3.52424e-05
-4.53637e-11
3.52424e-05
-2.27859e-11
3.52424e-05
1.18045e-11
3.52424e-05
2.6575e-11
3.52424e-05
2.71351e-11
3.52424e-05
1.26559e-11
3.52424e-05
-1.07029e-11
3.52424e-05
-3.55438e-11
3.52424e-05
-5.90257e-11
3.52424e-05
-7.96071e-11
3.52424e-05
-9.84339e-11
3.52425e-05
-1.1463e-10
3.52425e-05
-1.27087e-10
3.52425e-05
-1.25906e-10
3.52425e-05
-1.09808e-10
3.52425e-05
-1.1159e-10
3.52426e-05
-1.94968e-11
-9.92556e-11
3.96276e-05
-3.90246e-10
3.96276e-05
-3.84558e-10
3.96276e-05
-2.12927e-10
3.96276e-05
1.15593e-11
3.96276e-05
2.20086e-10
3.96275e-05
3.83486e-10
3.96274e-05
4.98969e-10
3.96273e-05
5.70978e-10
3.96272e-05
5.99341e-10
3.96271e-05
5.94255e-10
3.96271e-05
5.6534e-10
3.9627e-05
5.20986e-10
3.96269e-05
4.7177e-10
3.96268e-05
4.15413e-10
3.96268e-05
3.58194e-10
3.96267e-05
3.00762e-10
3.96267e-05
2.40581e-10
3.96267e-05
1.84566e-10
3.96266e-05
1.30296e-10
3.96266e-05
7.59236e-11
3.96266e-05
2.4709e-11
3.96266e-05
-2.56247e-11
3.96266e-05
-7.16065e-11
3.96267e-05
-1.09545e-10
3.96267e-05
-1.44116e-10
3.96267e-05
-1.75883e-10
3.96267e-05
-2.059e-10
3.96268e-05
-2.3387e-10
3.96268e-05
-2.56696e-10
3.96269e-05
-2.75275e-10
3.96269e-05
-2.91898e-10
3.9627e-05
-3.06396e-10
3.9627e-05
-3.19478e-10
3.96271e-05
-3.31525e-10
3.96271e-05
-3.41775e-10
3.96272e-05
-3.49573e-10
3.96273e-05
-3.55674e-10
3.96273e-05
-3.61872e-10
3.96274e-05
-3.64169e-10
3.96275e-05
-3.62896e-10
3.96275e-05
-3.49711e-10
3.96276e-05
-3.30916e-10
3.96276e-05
-2.99485e-10
3.96277e-05
-2.59149e-10
3.96277e-05
-2.04121e-10
3.96278e-05
-1.29781e-10
3.96278e-05
-7.96219e-11
3.96278e-05
-5.0274e-11
3.96278e-05
-3.95369e-11
3.96278e-05
-4.68221e-11
3.96278e-05
-5.77311e-11
3.96279e-05
-7.05696e-11
3.96279e-05
-8.20412e-11
3.96279e-05
-8.89407e-11
3.96279e-05
-9.22844e-11
3.96279e-05
-9.08299e-11
3.96279e-05
-8.24392e-11
3.96279e-05
-6.95311e-11
3.96279e-05
-5.06914e-11
3.96279e-05
-2.79233e-11
3.96279e-05
-8.36485e-13
3.96279e-05
2.78561e-11
3.96279e-05
5.33063e-11
3.96279e-05
7.86248e-11
3.96279e-05
1.03464e-10
3.96278e-05
1.25238e-10
3.96278e-05
1.44978e-10
3.96278e-05
1.60726e-10
3.96278e-05
1.70698e-10
3.96277e-05
1.78965e-10
3.96277e-05
1.85297e-10
3.96277e-05
1.89683e-10
3.96276e-05
1.91598e-10
3.96276e-05
1.89355e-10
3.96276e-05
1.86111e-10
3.96275e-05
1.80906e-10
3.96275e-05
1.73441e-10
3.96275e-05
1.64841e-10
3.96274e-05
1.56202e-10
3.96274e-05
1.47672e-10
3.96274e-05
1.37324e-10
3.96274e-05
1.27725e-10
3.96274e-05
1.18997e-10
3.96273e-05
1.07752e-10
3.96273e-05
9.32e-11
3.96273e-05
7.81067e-11
3.96273e-05
6.04584e-11
3.96273e-05
4.46083e-11
3.96273e-05
3.46998e-11
3.96273e-05
2.93845e-11
3.96272e-05
2.87706e-11
3.96272e-05
2.69061e-11
3.96272e-05
2.28583e-11
3.96272e-05
1.60816e-11
3.96272e-05
5.83007e-12
3.96272e-05
-5.98634e-12
3.96272e-05
-1.95194e-11
3.96272e-05
-3.3368e-11
3.96272e-05
-4.76398e-11
3.96273e-05
-5.93202e-11
3.96273e-05
-7.04807e-11
3.96273e-05
-6.87219e-11
3.96273e-05
-6.13816e-11
3.96273e-05
-3.70695e-11
3.96273e-05
2.20836e-12
3.96273e-05
2.06881e-11
3.96273e-05
2.25441e-11
3.96273e-05
8.52113e-12
3.96274e-05
-1.59116e-11
3.96274e-05
-4.2968e-11
3.96274e-05
-6.90511e-11
3.96274e-05
-9.32971e-11
3.96274e-05
-1.16071e-10
3.96274e-05
-1.35303e-10
3.96274e-05
-1.49405e-10
3.96275e-05
-1.47879e-10
3.96275e-05
-1.31102e-10
3.96275e-05
-1.31862e-10
3.96275e-05
-2.77298e-11
-1.24044e-10
4.37209e-05
-4.15341e-10
4.37209e-05
-3.97825e-10
4.37209e-05
-2.03786e-10
4.37209e-05
4.26788e-11
4.37208e-05
2.69805e-10
4.37207e-05
4.47779e-10
4.37207e-05
5.73035e-10
4.37206e-05
6.50495e-10
4.37205e-05
6.80168e-10
4.37204e-05
6.74856e-10
4.37203e-05
6.43477e-10
4.37203e-05
5.94561e-10
4.37202e-05
5.39838e-10
4.37201e-05
4.76377e-10
4.37201e-05
4.11284e-10
4.372e-05
3.45499e-10
4.372e-05
2.76796e-10
4.372e-05
2.12769e-10
4.372e-05
1.50474e-10
4.372e-05
8.76861e-11
4.37199e-05
2.88161e-11
4.372e-05
-2.93912e-11
4.372e-05
-8.23145e-11
4.372e-05
-1.25324e-10
4.372e-05
-1.6502e-10
4.372e-05
-2.03554e-10
4.37201e-05
-2.39792e-10
4.37201e-05
-2.70922e-10
4.37201e-05
-2.97428e-10
4.37202e-05
-3.20009e-10
4.37202e-05
-3.39386e-10
4.37203e-05
-3.56413e-10
4.37203e-05
-3.73425e-10
4.37204e-05
-3.88599e-10
4.37205e-05
-4.00132e-10
4.37205e-05
-4.09155e-10
4.37206e-05
-4.17216e-10
4.37206e-05
-4.2515e-10
4.37207e-05
-4.27932e-10
4.37208e-05
-4.26969e-10
4.37208e-05
-4.13853e-10
4.37209e-05
-3.94034e-10
4.37209e-05
-3.58421e-10
4.3721e-05
-3.1245e-10
4.3721e-05
-2.4985e-10
4.37211e-05
-1.65755e-10
4.37211e-05
-1.07268e-10
4.37211e-05
-7.11336e-11
4.37211e-05
-5.53704e-11
4.37212e-05
-6.06758e-11
4.37212e-05
-7.19968e-11
4.37212e-05
-8.52233e-11
4.37212e-05
-9.61865e-11
4.37212e-05
-1.02366e-10
4.37212e-05
-1.04247e-10
4.37212e-05
-1.00706e-10
4.37212e-05
-9.07382e-11
4.37213e-05
-7.60356e-11
4.37213e-05
-5.3065e-11
4.37213e-05
-2.49129e-11
4.37212e-05
6.84369e-12
4.37212e-05
3.91937e-11
4.37212e-05
6.71169e-11
4.37212e-05
9.57855e-11
4.37212e-05
1.24752e-10
4.37212e-05
1.49538e-10
4.37211e-05
1.71547e-10
4.37211e-05
1.88893e-10
4.37211e-05
2.00368e-10
4.3721e-05
2.10384e-10
4.3721e-05
2.17341e-10
4.3721e-05
2.21724e-10
4.37209e-05
2.23587e-10
4.37209e-05
2.20912e-10
4.37209e-05
2.17169e-10
4.37209e-05
2.11012e-10
4.37208e-05
2.03629e-10
4.37208e-05
1.95007e-10
4.37208e-05
1.84814e-10
4.37207e-05
1.7457e-10
4.37207e-05
1.62357e-10
4.37207e-05
1.51027e-10
4.37207e-05
1.40669e-10
4.37206e-05
1.27586e-10
4.37206e-05
1.1141e-10
4.37206e-05
9.47242e-11
4.37206e-05
7.49657e-11
4.37206e-05
5.69276e-11
4.37206e-05
4.49245e-11
4.37206e-05
3.79485e-11
4.37206e-05
3.62961e-11
4.37206e-05
3.34881e-11
4.37205e-05
2.82383e-11
4.37205e-05
1.98862e-11
4.37205e-05
7.43974e-12
4.37205e-05
-7.10563e-12
4.37205e-05
-2.32754e-11
4.37206e-05
-4.00658e-11
4.37206e-05
-5.80802e-11
4.37206e-05
-7.33428e-11
4.37206e-05
-8.76521e-11
4.37206e-05
-8.68391e-11
4.37206e-05
-7.92465e-11
4.37206e-05
-5.36527e-11
4.37207e-05
-1.01218e-11
4.37207e-05
1.22862e-11
4.37207e-05
1.58601e-11
4.37207e-05
3.22206e-12
4.37207e-05
-2.10941e-11
4.37207e-05
-4.96032e-11
4.37207e-05
-7.80993e-11
4.37207e-05
-1.06503e-10
4.37207e-05
-1.33177e-10
4.37208e-05
-1.54746e-10
4.37208e-05
-1.70174e-10
4.37208e-05
-1.68542e-10
4.37208e-05
-1.51057e-10
4.37208e-05
-1.4995e-10
4.37208e-05
-3.82814e-11
-1.39866e-10
4.75729e-05
-4.14738e-10
4.75729e-05
-3.87574e-10
4.75729e-05
-1.80348e-10
4.75728e-05
7.92418e-11
4.75728e-05
3.19393e-10
4.75727e-05
5.07819e-10
4.75727e-05
6.39968e-10
4.75726e-05
7.20195e-10
4.75725e-05
7.50903e-10
4.75725e-05
7.45892e-10
4.75724e-05
7.12417e-10
4.75723e-05