/*--------------------------------*- C++ -*----------------------------------*\
  =========                 |
  \\      /  F ield         | OpenFOAM: The Open Source CFD Toolbox
   \\    /   O peration     | Website:  https://openfoam.org
    \\  /    A nd           | Version:  7
     \\/     M anipulation  |
\*---------------------------------------------------------------------------*/
FoamFile
{
    version     2.0;
    format      ascii;
    class       volVectorField;
    location    "17500";
    object      U;
}
// * * * * * * * * * * * * * * * * * * * * * * * * * * * * * * * * * * * * * //

dimensions      [0 1 -1 0 0 0 0];

internalField   nonuniform List<vector> 
24000
(
(0.00398205 5.92206e-11 7.57286e-16)
(0.00398206 -9.07041e-11 7.51052e-16)
(0.00398208 -1.17956e-10 7.57772e-16)
(0.00398209 -8.23624e-11 6.79565e-16)
(0.0039821 -2.79222e-11 3.69169e-16)
(0.00398209 1.83849e-11 6.66259e-16)
(0.00398208 5.47394e-11 3.70841e-16)
(0.00398207 7.84961e-11 6.78868e-16)
(0.00398206 9.21056e-11 7.24387e-16)
(0.00398204 9.80254e-11 3.89823e-16)
(0.00398202 9.39477e-11 6.94737e-16)
(0.00398201 8.53087e-11 7.05167e-16)
(0.00398199 8.00055e-11 7.10116e-16)
(0.00398198 6.99736e-11 6.88988e-16)
(0.00398197 6.12665e-11 6.66161e-16)
(0.00398196 5.48491e-11 7.00772e-16)
(0.00398195 4.19147e-11 6.8779e-16)
(0.00398194 3.49546e-11 6.92618e-16)
(0.00398194 2.62545e-11 6.70133e-16)
(0.00398194 1.46137e-11 6.28828e-16)
(0.00398193 7.07558e-12 7.04467e-16)
(0.00398193 1.78311e-13 6.44083e-16)
(0.00398194 -6.51815e-12 6.65198e-16)
(0.00398194 -1.57322e-11 6.45181e-16)
(0.00398194 -2.32271e-11 5.88676e-16)
(0.00398194 -2.54418e-11 6.80586e-16)
(0.00398195 -3.10681e-11 6.64425e-16)
(0.00398196 -3.7938e-11 6.78733e-16)
(0.00398196 -3.90939e-11 6.44579e-16)
(0.00398197 -4.10128e-11 5.78848e-16)
(0.00398198 -4.75691e-11 6.70715e-16)
(0.00398199 -5.10731e-11 6.51641e-16)
(0.00398199 -5.14607e-11 6.67695e-16)
(0.003982 -5.26084e-11 6.29176e-16)
(0.00398201 -5.59066e-11 5.76074e-16)
(0.00398202 -5.74286e-11 6.83934e-16)
(0.00398203 -5.57911e-11 6.37495e-16)
(0.00398204 -5.83796e-11 6.53813e-16)
(0.00398205 -5.60418e-11 6.24547e-16)
(0.00398206 -5.87728e-11 5.80108e-16)
(0.00398207 -4.98296e-11 6.13315e-16)
(0.00398208 -4.47416e-11 8.08455e-16)
(0.00398208 -2.87054e-11 6.78238e-16)
(0.00398209 -1.45018e-11 6.75204e-16)
(0.00398209 -1.29546e-12 6.86468e-16)
(0.00398209 3.12732e-11 6.97469e-16)
(0.00398209 2.91965e-11 9.21191e-16)
(0.00398209 2.73874e-11 7.16173e-16)
(0.00398209 1.89473e-11 7.07005e-16)
(0.00398209 5.29001e-12 7.15649e-16)
(0.00398209 1.78973e-13 7.22339e-16)
(0.00398209 -7.33341e-12 9.64166e-16)
(0.00398209 -1.2078e-11 7.2898e-16)
(0.00398209 -1.64757e-11 9.1644e-16)
(0.0039821 -1.94222e-11 6.87558e-16)
(0.0039821 -2.27532e-11 7.33148e-16)
(0.0039821 -2.39388e-11 8.99697e-16)
(0.00398211 -2.34848e-11 7.45596e-16)
(0.00398211 -2.06572e-11 9.06865e-16)
(0.00398211 -1.83443e-11 6.79509e-16)
(0.00398211 -1.54282e-11 7.5974e-16)
(0.00398211 -1.02272e-11 9.38321e-16)
(0.00398211 -5.21632e-12 7.61466e-16)
(0.00398211 5.49225e-14 9.78717e-16)
(0.00398211 4.56975e-12 7.08969e-16)
(0.00398211 7.55726e-12 7.6949e-16)
(0.00398211 1.21256e-11 1.02913e-15)
(0.0039821 1.69826e-11 7.77444e-16)
(0.0039821 1.77865e-11 9.6695e-16)
(0.0039821 2.0711e-11 6.9072e-16)
(0.00398209 2.075e-11 7.76396e-16)
(0.00398209 2.19755e-11 1.00903e-15)
(0.00398208 2.36062e-11 7.79412e-16)
(0.00398208 2.17137e-11 9.14717e-16)
(0.00398208 2.39613e-11 7.43688e-16)
(0.00398207 2.49657e-11 7.93478e-16)
(0.00398207 2.23148e-11 9.67873e-16)
(0.00398206 1.9301e-11 7.90322e-16)
(0.00398206 1.85374e-11 9.97572e-16)
(0.00398206 1.6723e-11 7.54944e-16)
(0.00398205 1.3773e-11 5.91833e-16)
(0.00398205 1.30405e-11 7.30827e-16)
(0.00398205 1.27717e-11 7.85949e-16)
(0.00398204 1.03744e-11 5.31007e-16)
(0.00398204 6.91731e-12 6.89231e-16)
(0.00398204 6.14192e-12 5.81403e-16)
(0.00398204 -1.06244e-12 6.99062e-16)
(0.00398204 -7.01534e-12 7.66346e-16)
(0.00398204 -6.78228e-12 4.93516e-16)
(0.00398204 -6.85388e-12 6.5043e-16)
(0.00398204 -3.30571e-12 4.76681e-16)
(0.00398204 -3.41104e-12 6.10129e-16)
(0.00398204 -3.78536e-12 7.5226e-16)
(0.00398204 -5.02239e-12 4.65144e-16)
(0.00398204 -8.1354e-12 6.73338e-16)
(0.00398204 -8.21208e-12 4.92134e-16)
(0.00398204 -1.07777e-11 6.90001e-16)
(0.00398204 -1.09128e-11 7.51719e-16)
(0.00398205 -1.26058e-11 4.79377e-16)
(0.00398205 -7.17876e-12 6.59771e-16)
(0.00398205 -8.0466e-12 5.4786e-16)
(0.00398205 4.51621e-12 6.49154e-16)
(0.00398205 1.00388e-11 7.57251e-16)
(0.00398205 2.2373e-11 5.64772e-16)
(0.00398205 4.53169e-11 6.87712e-16)
(0.00398204 3.95255e-11 4.83467e-16)
(0.00398204 3.66349e-11 6.96456e-16)
(0.00398203 2.36199e-11 7.5085e-16)
(0.00398203 9.26225e-12 5.78692e-16)
(0.00398203 -2.98764e-12 6.85368e-16)
(0.00398203 -1.38661e-11 4.91495e-16)
(0.00398204 -2.00668e-11 5.30205e-16)
(0.00398204 -2.68144e-11 7.42156e-16)
(0.00398204 -3.0022e-11 5.68789e-16)
(0.00398205 -3.1915e-11 6.99374e-16)
(0.00398205 -3.06683e-11 5.70932e-16)
(0.00398206 -1.73952e-11 5.55024e-16)
(0.00398206 -2.36577e-11 7.41367e-16)
(0.00398207 -9.61347e-12 5.16174e-16)
(0.00398206 9.69923e-11 6.38794e-16)
(0.0120196 -7.19152e-11 2.28959e-15)
(0.0120196 -1.32955e-09 2.26897e-15)
(0.0120197 -1.52924e-09 2.29074e-15)
(0.0120197 -9.04901e-10 2.05289e-15)
(0.0120197 -7.45753e-11 1.44404e-15)
(0.0120197 6.38927e-10 2.02262e-15)
(0.0120197 1.16848e-09 1.29169e-15)
(0.0120197 1.51275e-09 2.05821e-15)
(0.0120196 1.70094e-09 2.18725e-15)
(0.0120196 1.74583e-09 1.49678e-15)
(0.0120195 1.66443e-09 2.10955e-15)
(0.0120195 1.52795e-09 2.13022e-15)
(0.0120194 1.39384e-09 2.14664e-15)
(0.0120194 1.23242e-09 2.08264e-15)
(0.0120193 1.0759e-09 2.01154e-15)
(0.0120193 9.25331e-10 2.11771e-15)
(0.0120193 7.37375e-10 2.07806e-15)
(0.0120193 5.82867e-10 2.09371e-15)
(0.0120193 4.26857e-10 2.02437e-15)
(0.0120193 2.52422e-10 1.90338e-15)
(0.0120192 1.06075e-10 2.14485e-15)
(0.0120192 -2.32461e-11 1.94835e-15)
(0.0120192 -1.51096e-10 2.01255e-15)
(0.0120193 -2.88494e-10 1.95377e-15)
(0.0120193 -4.01747e-10 1.77796e-15)
(0.0120193 -4.71422e-10 2.06046e-15)
(0.0120193 -5.57917e-10 2.00813e-15)
(0.0120193 -6.5316e-10 2.05216e-15)
(0.0120193 -7.04033e-10 1.95025e-15)
(0.0120194 -7.49252e-10 1.75561e-15)
(0.0120194 -8.23249e-10 2.03148e-15)
(0.0120194 -8.76353e-10 1.96632e-15)
(0.0120194 -8.97872e-10 2.01936e-15)
(0.0120194 -9.2083e-10 1.90778e-15)
(0.0120195 -9.60092e-10 1.73648e-15)
(0.0120195 -9.83638e-10 2.06835e-15)
(0.0120195 -9.81442e-10 1.92608e-15)
(0.0120196 -9.95647e-10 1.97773e-15)
(0.0120196 -9.95875e-10 1.88543e-15)
(0.0120196 -1.0024e-09 1.75662e-15)
(0.0120196 -9.22012e-10 1.85821e-15)
(0.0120197 -8.22482e-10 2.02744e-15)
(0.0120197 -6.53499e-10 2.04401e-15)
(0.0120197 -4.77366e-10 2.04285e-15)
(0.0120197 -2.59699e-10 2.07557e-15)
(0.0120197 7.5432e-11 2.10933e-15)
(0.0120197 1.91472e-10 2.18993e-15)
(0.0120197 2.06422e-10 2.15915e-15)
(0.0120197 1.40052e-10 2.13829e-15)
(0.0120197 1.75607e-11 2.16333e-15)
(0.0120197 -6.45659e-11 2.18519e-15)
(0.0120197 -1.47538e-10 2.26706e-15)
(0.0120197 -2.1563e-10 2.19628e-15)
(0.0120197 -2.68731e-10 2.30536e-15)
(0.0120197 -3.06657e-10 2.09226e-15)
(0.0120198 -3.37071e-10 2.22241e-15)
(0.0120198 -3.4296e-10 2.29402e-15)
(0.0120198 -3.2136e-10 2.24703e-15)
(0.0120198 -2.75088e-10 2.3388e-15)
(0.0120198 -2.24145e-10 1.81435e-15)
(0.0120198 -1.61827e-10 2.2949e-15)
(0.0120198 -7.8304e-11 2.38829e-15)
(0.0120198 8.38913e-12 2.29604e-15)
(0.0120198 9.32366e-11 2.37775e-15)
(0.0120198 1.68388e-10 2.03298e-15)
(0.0120198 2.29492e-10 2.3316e-15)
(0.0120198 2.98932e-10 2.44245e-15)
(0.0120198 3.63308e-10 2.34557e-15)
(0.0120197 3.9522e-10 2.46085e-15)
(0.0120197 4.25917e-10 2.20408e-15)
(0.0120197 4.37946e-10 2.34999e-15)
(0.0120197 4.53926e-10 2.42599e-15)
(0.0120197 4.68523e-10 2.35176e-15)
(0.0120197 4.59191e-10 2.40524e-15)
(0.0120197 4.6969e-10 2.27635e-15)
(0.0120197 4.72476e-10 2.40277e-15)
(0.0120196 4.41436e-10 2.47793e-15)
(0.0120196 3.99648e-10 2.38408e-15)
(0.0120196 3.73203e-10 2.43654e-15)
(0.0120196 3.46179e-10 2.16664e-15)
(0.0120196 3.11013e-10 2.22726e-15)
(0.0120196 2.8942e-10 2.23253e-15)
(0.0120196 2.74306e-10 2.3778e-15)
(0.0120196 2.38374e-10 2.0827e-15)
(0.0120196 1.9342e-10 2.14834e-15)
(0.0120196 1.47263e-10 2.12002e-15)
(0.0120196 5.71763e-11 2.12291e-15)
(0.0120196 -1.26184e-11 2.31821e-15)
(0.0120196 -2.99916e-11 2.09547e-15)
(0.0120196 -2.87887e-11 1.87602e-15)
(0.0120196 -2.97677e-12 2.06235e-15)
(0.0120196 1.60395e-12 1.89796e-15)
(0.0120196 -6.44927e-12 2.27589e-15)
(0.0120196 -2.61514e-11 2.05744e-15)
(0.0120196 -5.94514e-11 1.91222e-15)
(0.0120196 -8.18783e-11 2.05378e-15)
(0.0120196 -1.14507e-10 1.97863e-15)
(0.0120196 -1.41191e-10 2.27512e-15)
(0.0120196 -1.61969e-10 2.06719e-15)
(0.0120196 -1.45808e-10 1.90826e-15)
(0.0120196 -1.42161e-10 2.05354e-15)
(0.0120196 -5.2575e-11 2.15237e-15)
(0.0120196 2.10693e-11 2.29212e-15)
(0.0120196 1.78143e-10 2.08326e-15)
(0.0120196 4.07422e-10 2.10225e-15)
(0.0120196 4.31042e-10 2.07199e-15)
(0.0120196 3.84997e-10 1.97966e-15)
(0.0120195 2.53241e-10 2.27462e-15)
(0.0120195 8.39323e-11 2.09263e-15)
(0.0120195 -7.48554e-11 2.07522e-15)
(0.0120195 -2.13602e-10 2.06862e-15)
(0.0120196 -3.13844e-10 2.00147e-15)
(0.0120196 -4.00179e-10 2.25032e-15)
(0.0120196 -4.57448e-10 2.09964e-15)
(0.0120196 -4.982e-10 2.00093e-15)
(0.0120196 -4.82351e-10 2.09709e-15)
(0.0120196 -3.62976e-10 2.03588e-15)
(0.0120196 -4.14436e-10 2.24846e-15)
(0.0120196 -5.70015e-11 2.11314e-15)
(0.0120196 6.0737e-10 1.91642e-15)
(0.0202206 -9.71408e-10 3.88747e-15)
(0.0202206 -3.90626e-09 3.80998e-15)
(0.0202207 -4.13538e-09 3.85536e-15)
(0.0202207 -2.25245e-09 3.42574e-15)
(0.0202207 1.31067e-10 3.15198e-15)
(0.0202207 2.15773e-09 3.46237e-15)
(0.0202207 3.64212e-09 3.17865e-15)
(0.0202206 4.59919e-09 3.53105e-15)
(0.0202205 5.10897e-09 3.66388e-15)
(0.0202204 5.19666e-09 3.2701e-15)
(0.0202203 4.94179e-09 3.6188e-15)
(0.0202203 4.53796e-09 3.57694e-15)
(0.0202202 4.12124e-09 3.61482e-15)
(0.0202201 3.6465e-09 3.50178e-15)
(0.0202201 3.17816e-09 3.38681e-15)
(0.02022 2.71551e-09 3.57035e-15)
(0.02022 2.17076e-09 3.49279e-15)
(0.02022 1.70053e-09 3.52685e-15)
(0.0202199 1.23561e-09 3.39872e-15)
(0.0202199 7.32975e-10 3.21474e-15)
(0.0202199 2.95598e-10 3.68227e-15)
(0.0202199 -9.51358e-11 3.26598e-15)
(0.0202199 -4.78417e-10 3.39921e-15)
(0.0202199 -8.70766e-10 3.3005e-15)
(0.02022 -1.19571e-09 2.99823e-15)
(0.02022 -1.415e-09 3.50573e-15)
(0.02022 -1.66577e-09 3.37874e-15)
(0.02022 -1.93566e-09 3.45949e-15)
(0.0202201 -2.10051e-09 3.28072e-15)
(0.0202201 -2.24027e-09 2.97048e-15)
(0.0202201 -2.43785e-09 3.44243e-15)
(0.0202202 -2.58625e-09 3.28575e-15)
(0.0202202 -2.65716e-09 3.40467e-15)
(0.0202203 -2.72648e-09 3.22462e-15)
(0.0202203 -2.83237e-09 2.90273e-15)
(0.0202203 -2.90175e-09 3.49265e-15)
(0.0202204 -2.90292e-09 3.22734e-15)
(0.0202204 -2.93726e-09 3.33908e-15)
(0.0202205 -2.95106e-09 3.16805e-15)
(0.0202205 -2.96141e-09 2.96696e-15)
(0.0202206 -2.7522e-09 3.15021e-15)
(0.0202206 -2.47088e-09 3.25333e-15)
(0.0202207 -2.03592e-09 3.43832e-15)
(0.0202207 -1.56268e-09 3.44323e-15)
(0.0202207 -9.58439e-10 3.49962e-15)
(0.0202207 -7.50548e-11 3.55655e-15)
(0.0202207 3.19397e-10 3.52961e-15)
(0.0202207 4.11872e-10 3.62882e-15)
(0.0202207 2.7253e-10 3.60283e-15)
(0.0202207 -1.96633e-11 3.64569e-15)
(0.0202207 -2.39845e-10 3.68451e-15)
(0.0202207 -4.58442e-10 3.62724e-15)
(0.0202207 -6.43404e-10 3.68889e-15)
(0.0202208 -7.84873e-10 3.68477e-15)
(0.0202208 -8.83732e-10 3.8486e-15)
(0.0202208 -9.5543e-10 3.76361e-15)
(0.0202208 -9.58953e-10 3.68595e-15)
(0.0202208 -8.85443e-10 3.7769e-15)
(0.0202208 -7.47e-10 3.77629e-15)
(0.0202208 -5.89263e-10 4.07141e-15)
(0.0202208 -3.97516e-10 3.88324e-15)
(0.0202208 -1.52212e-10 3.8207e-15)
(0.0202208 1.02193e-10 3.86009e-15)
(0.0202208 3.48599e-10 3.85949e-15)
(0.0202208 5.68777e-10 4.03244e-15)
(0.0202208 7.53209e-10 3.95101e-15)
(0.0202208 9.51715e-10 3.91325e-15)
(0.0202208 1.1318e-09 3.94739e-15)
(0.0202208 1.23002e-09 3.94073e-15)
(0.0202207 1.3132e-09 4.0248e-15)
(0.0202207 1.35143e-09 3.98775e-15)
(0.0202207 1.39551e-09 3.91377e-15)
(0.0202207 1.43329e-09 3.95774e-15)
(0.0202206 1.41324e-09 3.91759e-15)
(0.0202206 1.43036e-09 4.15368e-15)
(0.0202206 1.42777e-09 4.06437e-15)
(0.0202206 1.34336e-09 3.98126e-15)
(0.0202206 1.22574e-09 4.01127e-15)
(0.0202205 1.14185e-09 3.95969e-15)
(0.0202205 1.06467e-09 4.18698e-15)
(0.0202205 9.69148e-10 3.93795e-15)
(0.0202205 9.01635e-10 4.26671e-15)
(0.0202205 8.5037e-10 4.01585e-15)
(0.0202205 7.47728e-10 3.70795e-15)
(0.0202204 6.19282e-10 4.0784e-15)
(0.0202204 4.6886e-10 3.71622e-15)
(0.0202204 2.20475e-10 3.94393e-15)
(0.0202204 3.64781e-11 3.9196e-15)
(0.0202204 -2.01206e-11 3.67189e-15)
(0.0202204 -2.15618e-11 3.97873e-15)
(0.0202204 3.72222e-11 3.64464e-15)
(0.0202204 4.89303e-11 3.79454e-15)
(0.0202204 2.47981e-11 3.87142e-15)
(0.0202204 -3.0502e-11 3.63522e-15)
(0.0202204 -1.20461e-10 3.97738e-15)
(0.0202204 -1.93768e-10 3.59639e-15)
(0.0202204 -2.8981e-10 4.04774e-15)
(0.0202204 -3.77651e-10 3.84915e-15)
(0.0202204 -4.46273e-10 3.62759e-15)
(0.0202204 -4.34244e-10 3.82978e-15)
(0.0202205 -4.36463e-10 3.62777e-15)
(0.0202205 -2.37608e-10 4.01785e-15)
(0.0202205 -5.02925e-11 3.89441e-15)
(0.0202205 3.64662e-10 3.62773e-15)
(0.0202205 9.58888e-10 3.87991e-15)
(0.0202204 1.06752e-09 3.64797e-15)
(0.0202204 9.562e-10 3.90205e-15)
(0.0202204 6.22002e-10 3.85241e-15)
(0.0202204 1.80358e-10 3.62358e-15)
(0.0202204 -2.45153e-10 3.83959e-15)
(0.0202204 -6.21113e-10 3.62388e-15)
(0.0202204 -9.03184e-10 3.53253e-15)
(0.0202205 -1.14059e-09 3.81339e-15)
(0.0202205 -1.30719e-09 3.66661e-15)
(0.0202205 -1.43e-09 3.94612e-15)
(0.0202205 -1.39741e-09 3.68471e-15)
(0.0202205 -1.10116e-09 3.56256e-15)
(0.0202205 -1.20626e-09 3.81127e-15)
(0.0202206 -1.85149e-10 3.66272e-15)
(0.0202206 1.10644e-09 3.80585e-15)
(0.0285527 -3.25463e-09 5.49284e-15)
(0.0285528 -7.93536e-09 5.36883e-15)
(0.0285528 -7.67735e-09 5.44053e-15)
(0.0285529 -3.76305e-09 4.70634e-15)
(0.0285529 9.14144e-10 4.85817e-15)
(0.0285529 4.84003e-09 4.96378e-15)
(0.0285528 7.68169e-09 4.88748e-15)
(0.0285527 9.49678e-09 5.08707e-15)
(0.0285526 1.04361e-08 5.14766e-15)
(0.0285524 1.05229e-08 4.99526e-15)
(0.0285523 9.9774e-09 5.21512e-15)
(0.0285522 9.16332e-09 5.0323e-15)
(0.0285521 8.30174e-09 5.11094e-15)
(0.028552 7.34784e-09 4.92575e-15)
(0.028552 6.38759e-09 4.83818e-15)
(0.0285519 5.42966e-09 5.06892e-15)
(0.0285519 4.34189e-09 4.91111e-15)
(0.0285518 3.37868e-09 4.98898e-15)
(0.0285518 2.43577e-09 4.7658e-15)
(0.0285518 1.43949e-09 4.44174e-15)
(0.0285518 5.5447e-10 5.26764e-15)
(0.0285518 -2.45758e-10 4.67083e-15)
(0.0285518 -1.02609e-09 4.83661e-15)
(0.0285518 -1.79575e-09 4.6937e-15)
(0.0285518 -2.43371e-09 4.31219e-15)
(0.0285518 -2.89144e-09 4.9583e-15)
(0.0285519 -3.39185e-09 4.79242e-15)
(0.0285519 -3.91962e-09 4.90347e-15)
(0.028552 -4.26933e-09 4.31904e-15)
(0.028552 -4.55945e-09 4.23796e-15)
(0.0285521 -4.92855e-09 5.05164e-15)
(0.0285521 -5.21139e-09 4.7039e-15)
(0.0285522 -5.3626e-09 4.82596e-15)
(0.0285522 -5.512e-09 4.58248e-15)
(0.0285523 -5.71198e-09 4.03308e-15)
(0.0285524 -5.84394e-09 4.92901e-15)
(0.0285524 -5.85114e-09 4.4938e-15)
(0.0285525 -5.91415e-09 4.75076e-15)
(0.0285525 -5.95922e-09 4.36262e-15)
(0.0285526 -5.97169e-09 4.06542e-15)
(0.0285527 -5.57458e-09 4.51385e-15)
(0.0285527 -5.03313e-09 4.51949e-15)
(0.0285528 -4.25867e-09 4.87909e-15)
(0.0285528 -3.3785e-09 4.87051e-15)
(0.0285529 -2.22903e-09 4.96103e-15)
(0.0285529 -5.93238e-10 5.03467e-15)
(0.0285529 2.50387e-10 4.87706e-15)
(0.0285529 5.08911e-10 5.13871e-15)
(0.0285529 3.15526e-10 5.09538e-15)
(0.0285529 -1.68689e-10 5.16327e-15)
(0.0285529 -5.67368e-10 5.21396e-15)
(0.0285529 -9.67418e-10 5.00853e-15)
(0.0285529 -1.31166e-09 5.21694e-15)
(0.0285529 -1.57065e-09 5.1052e-15)
(0.028553 -1.74641e-09 5.30615e-15)
(0.028553 -1.86165e-09 5.30969e-15)
(0.028553 -1.84332e-09 5.10282e-15)
(0.028553 -1.67768e-09 5.3456e-15)
(0.028553 -1.39317e-09 5.25457e-15)
(0.028553 -1.06386e-09 5.45973e-15)
(0.0285531 -6.64771e-10 5.46327e-15)
(0.0285531 -1.70187e-10 5.27461e-15)
(0.028553 3.39075e-10 5.46411e-15)
(0.028553 8.28055e-10 5.36206e-15)
(0.028553 1.26832e-09 5.6123e-15)
(0.028553 1.64402e-09 5.5732e-15)
(0.028553 2.03412e-09 5.42829e-15)
(0.028553 2.38129e-09 5.5963e-15)
(0.0285529 2.57989e-09 5.4601e-15)
(0.0285529 2.73753e-09 5.66115e-15)
(0.0285529 2.81632e-09 5.62924e-15)
(0.0285528 2.90065e-09 5.43108e-15)
(0.0285528 2.96976e-09 5.6084e-15)
(0.0285528 2.93653e-09 5.44934e-15)
(0.0285527 2.95195e-09 5.75899e-15)
(0.0285527 2.92885e-09 5.72328e-15)
(0.0285527 2.7662e-09 5.51884e-15)
(0.0285526 2.53751e-09 5.68331e-15)
(0.0285526 2.36257e-09 5.50888e-15)
(0.0285526 2.21158e-09 5.79025e-15)
(0.0285526 2.03068e-09 5.60883e-15)
(0.0285525 1.89028e-09 5.67159e-15)
(0.0285525 1.77713e-09 5.65412e-15)
(0.0285525 1.57372e-09 5.32603e-15)
(0.0285525 1.31935e-09 5.4367e-15)
(0.0285525 9.89979e-10 5.30507e-15)
(0.0285525 5.13542e-10 5.49384e-15)
(0.0285525 1.87125e-10 5.53435e-15)
(0.0285525 7.13781e-11 5.25401e-15)
(0.0285524 5.90227e-11 5.31811e-15)
(0.0285524 1.5299e-10 5.21372e-15)
(0.0285524 1.6984e-10 5.44711e-15)
(0.0285524 1.19428e-10 5.47506e-15)
(0.0285524 1.28589e-11 5.21055e-15)
(0.0285524 -1.58071e-10 5.25781e-15)
(0.0285524 -3.14091e-10 5.13975e-15)
(0.0285524 -5.10296e-10 5.3953e-15)
(0.0285524 -6.98851e-10 5.41278e-15)
(0.0285525 -8.52292e-10 5.18828e-15)
(0.0285525 -8.76848e-10 5.37207e-15)
(0.0285525 -9.11148e-10 5.20703e-15)
(0.0285525 -6.01818e-10 5.46112e-15)
(0.0285525 -2.78262e-10 5.48338e-15)
(0.0285525 4.89438e-10 5.17621e-15)
(0.0285525 1.57067e-09 5.3997e-15)
(0.0285525 1.81265e-09 5.2095e-15)
(0.0285525 1.62882e-09 5.44382e-15)
(0.0285525 1.03694e-09 5.42864e-15)
(0.0285524 2.39177e-10 5.16509e-15)
(0.0285525 -5.44732e-10 5.28788e-15)
(0.0285525 -1.24701e-09 5.15541e-15)
(0.0285525 -1.78737e-09 5.09699e-15)
(0.0285525 -2.23774e-09 5.44582e-15)
(0.0285525 -2.56677e-09 5.24196e-15)
(0.0285526 -2.81628e-09 5.50866e-15)
(0.0285526 -2.77159e-09 5.25579e-15)
(0.0285526 -2.24994e-09 5.13623e-15)
(0.0285526 -2.40134e-09 5.4467e-15)
(0.0285527 -3.91668e-10 5.22578e-15)
(0.0285526 1.15624e-09 5.36617e-15)
(0.0368911 -7.60142e-09 7.10782e-15)
(0.0368913 -1.33983e-08 6.91005e-15)
(0.0368914 -1.166e-08 7.01318e-15)
(0.0368914 -4.89103e-09 6.65439e-15)
(0.0368914 2.6678e-09 6.59628e-15)
(0.0368913 8.92831e-09 6.45753e-15)
(0.0368912 1.34105e-08 6.55802e-15)
(0.0368911 1.62464e-08 6.70003e-15)
(0.0368909 1.76616e-08 6.59782e-15)
(0.0368908 1.76406e-08 6.67559e-15)
(0.0368907 1.66749e-08 6.8596e-15)
(0.0368905 1.53696e-08 6.44635e-15)
(0.0368904 1.39037e-08 6.62434e-15)
(0.0368903 1.22684e-08 6.3051e-15)
(0.0368902 1.06359e-08 6.30672e-15)
(0.0368901 8.99661e-09 6.62291e-15)
(0.0368901 7.1861e-09 6.28036e-15)
(0.03689 5.55977e-09 6.46745e-15)
(0.03689 3.97517e-09 6.06487e-15)
(0.03689 2.32893e-09 6.03292e-15)
(0.03689 8.47556e-10 6.70222e-15)
(0.03689 -5.08457e-10 6.28664e-15)
(0.03689 -1.82561e-09 6.37015e-15)
(0.03689 -3.07923e-09 6.42205e-15)
(0.03689 -4.11827e-09 6.00082e-15)
(0.0368901 -4.90378e-09 6.59348e-15)
(0.0368901 -5.73757e-09 6.48991e-15)
(0.0368901 -6.59972e-09 6.38586e-15)
(0.0368902 -7.20515e-09 6.31303e-15)
(0.0368903 -7.70128e-09 5.88557e-15)
(0.0368903 -8.27875e-09 6.4693e-15)
(0.0368904 -8.72484e-09 6.37483e-15)
(0.0368905 -8.98832e-09 6.30419e-15)
(0.0368905 -9.25261e-09 6.262e-15)
(0.0368906 -9.56789e-09 5.82325e-15)
(0.0368907 -9.77794e-09 6.50605e-15)
(0.0368908 -9.83662e-09 6.34497e-15)
(0.0368909 -9.94688e-09 6.24027e-15)
(0.0368909 -1.00005e-08 6.19544e-15)
(0.036891 -1.00067e-08 5.87402e-15)
(0.0368911 -9.3536e-09 5.97213e-15)
(0.0368912 -8.49353e-09 6.14749e-15)
(0.0368912 -7.36297e-09 6.39434e-15)
(0.0368913 -5.99783e-09 6.30009e-15)
(0.0368914 -4.1801e-09 6.45522e-15)
(0.0368914 -1.63466e-09 6.51887e-15)
(0.0368914 -1.81884e-10 6.55701e-15)
(0.0368914 3.49209e-10 6.71145e-15)
(0.0368914 1.55511e-10 6.60423e-15)
(0.0368914 -4.98009e-10 6.70916e-15)
(0.0368914 -1.08651e-09 6.74466e-15)
(0.0368914 -1.69604e-09 6.7235e-15)
(0.0368915 -2.22484e-09 6.79712e-15)
(0.0368915 -2.61468e-09 6.85538e-15)
(0.0368915 -2.86917e-09 6.77656e-15)
(0.0368915 -3.01561e-09 6.83776e-15)
(0.0368915 -2.94102e-09 6.85016e-15)
(0.0368916 -2.63402e-09 6.96689e-15)
(0.0368916 -2.14742e-09 7.12017e-15)
(0.0368916 -1.5783e-09 6.94925e-15)
(0.0368916 -8.91047e-10 7.02195e-15)
(0.0368916 -6.04504e-11 7.05163e-15)
(0.0368916 7.8621e-10 7.11963e-15)
(0.0368916 1.59061e-09 7.19744e-15)
(0.0368916 2.32077e-09 7.1443e-15)
(0.0368915 2.95322e-09 7.16389e-15)
(0.0368915 3.59075e-09 7.30037e-15)
(0.0368915 4.14695e-09 7.30368e-15)
(0.0368914 4.47366e-09 7.30928e-15)
(0.0368914 4.7237e-09 7.05777e-15)
(0.0368914 4.85459e-09 7.24887e-15)
(0.0368913 4.98999e-09 7.27254e-15)
(0.0368913 5.09798e-09 7.31376e-15)
(0.0368912 5.04771e-09 7.3115e-15)
(0.0368912 5.04672e-09 7.29788e-15)
(0.0368911 4.97975e-09 7.3475e-15)
(0.0368911 4.71514e-09 7.38469e-15)
(0.0368911 4.34257e-09 7.40915e-15)
(0.036891 4.0454e-09 7.4111e-15)
(0.036891 3.80377e-09 7.29145e-15)
(0.036891 3.51602e-09 7.58246e-15)
(0.0368909 3.27515e-09 7.22617e-15)
(0.0368909 3.07152e-09 7.27398e-15)
(0.0368909 2.73166e-09 7.24428e-15)
(0.0368909 2.30985e-09 6.96911e-15)
(0.0368908 1.71008e-09 7.2343e-15)
(0.0368908 9.49848e-10 6.95239e-15)
(0.0368908 4.9084e-10 7.14701e-15)
(0.0368908 2.99781e-10 7.156e-15)
(0.0368908 2.60919e-10 6.78389e-15)
(0.0368908 3.82528e-10 7.1009e-15)
(0.0368908 3.93287e-10 6.89848e-15)
(0.0368908 3.04191e-10 7.07361e-15)
(0.0368908 1.3481e-10 7.10066e-15)
(0.0368908 -1.39215e-10 6.6417e-15)
(0.0368908 -4.11358e-10 7.03111e-15)
(0.0368908 -7.47471e-10 6.95924e-15)
(0.0368908 -1.07911e-09 6.96756e-15)
(0.0368908 -1.36268e-09 7.07115e-15)
(0.0368908 -1.47184e-09 6.80775e-15)
(0.0368908 -1.58434e-09 7.13983e-15)
(0.0368908 -1.19087e-09 6.74559e-15)
(0.0368909 -7.36445e-10 7.06854e-15)
(0.0368909 4.60753e-10 7.03408e-15)
(0.0368909 2.10819e-09 6.96485e-15)
(0.0368908 2.49745e-09 7.11104e-15)
(0.0368908 2.25036e-09 6.83375e-15)
(0.0368908 1.38184e-09 7.00784e-15)
(0.0368908 1.91213e-10 7.02747e-15)
(0.0368908 -1.00125e-09 6.71906e-15)
(0.0368908 -2.09212e-09 6.99386e-15)
(0.0368909 -2.9467e-09 7.042e-15)
(0.0368909 -3.65551e-09 7.15266e-15)
(0.0368909 -4.19427e-09 7.13355e-15)
(0.036891 -4.61468e-09 6.89109e-15)
(0.036891 -4.56732e-09 7.15641e-15)
(0.036891 -3.79185e-09 7.09703e-15)
(0.0368911 -3.97342e-09 7.16077e-15)
(0.0368911 -6.50839e-10 7.11072e-15)
(0.0368911 2.46704e-10 6.99028e-15)
(0.0449687 -1.42633e-08 8.73826e-15)
(0.0449688 -1.98729e-08 8.40249e-15)
(0.0449689 -1.54831e-08 8.54922e-15)
(0.044969 -5.20832e-09 8.38853e-15)
(0.0449689 5.64391e-09 8.31662e-15)
(0.0449688 1.44528e-08 8.21629e-15)
(0.0449687 2.06965e-08 8.21951e-15)
(0.0449686 2.4624e-08 8.30059e-15)
(0.0449684 2.64995e-08 8.29717e-15)
(0.0449682 2.63745e-08 8.32243e-15)
(0.0449681 2.49132e-08 8.47327e-15)
(0.0449679 2.29138e-08 8.06999e-15)
(0.0449678 2.06847e-08 8.14341e-15)
(0.0449677 1.82124e-08 7.89888e-15)
(0.0449676 1.57528e-08 7.83424e-15)
(0.0449675 1.32638e-08 8.18767e-15)
(0.0449674 1.05781e-08 7.8391e-15)
(0.0449674 8.14586e-09 7.94692e-15)
(0.0449673 5.77973e-09 7.53958e-15)
(0.0449673 3.35238e-09 7.52566e-15)
(0.0449673 1.1478e-09 7.85869e-15)
(0.0449673 -8.95796e-10 7.84871e-15)
(0.0449673 -2.87276e-09 7.90563e-15)
(0.0449673 -4.68567e-09 7.78483e-15)
(0.0449674 -6.19479e-09 7.65686e-15)
(0.0449674 -7.39371e-09 7.9155e-15)
(0.0449674 -8.63802e-09 7.75404e-15)
(0.0449675 -9.90287e-09 7.79493e-15)
(0.0449676 -1.0829e-08 7.59422e-15)
(0.0449676 -1.15771e-08 7.46523e-15)
(0.0449677 -1.23869e-08 7.76561e-15)
(0.0449678 -1.30161e-08 7.66318e-15)
(0.0449679 -1.34262e-08 7.71132e-15)
(0.044968 -1.38475e-08 7.55741e-15)
(0.044968 -1.42905e-08 7.45668e-15)
(0.0449681 -1.45896e-08 7.78034e-15)
(0.0449682 -1.47354e-08 7.69532e-15)
(0.0449683 -1.49123e-08 7.67902e-15)
(0.0449684 -1.4967e-08 7.54048e-15)
(0.0449685 -1.4956e-08 7.44503e-15)
(0.0449686 -1.41296e-08 7.46075e-15)
(0.0449687 -1.29489e-08 7.86842e-15)
(0.0449688 -1.13417e-08 7.90206e-15)
(0.0449688 -9.41357e-09 7.89217e-15)
(0.0449689 -6.83787e-09 7.97111e-15)
(0.0449689 -3.26833e-09 7.96828e-15)
(0.044969 -1.07007e-09 8.30109e-15)
(0.044969 -1.63337e-10 8.2585e-15)
(0.044969 -2.80498e-10 8.36564e-15)
(0.044969 -1.04263e-09 8.27204e-15)
(0.044969 -1.8101e-09 8.22858e-15)
(0.044969 -2.64241e-09 8.49961e-15)
(0.0449691 -3.36343e-09 8.35658e-15)
(0.0449691 -3.87997e-09 8.66745e-15)
(0.0449691 -4.20258e-09 8.50829e-15)
(0.0449691 -4.35545e-09 8.34565e-15)
(0.0449692 -4.17895e-09 8.50726e-15)
(0.0449692 -3.68004e-09 8.56215e-15)
(0.0449692 -2.94414e-09 8.91963e-15)
(0.0449692 -2.07085e-09 8.75127e-15)
(0.0449692 -1.01826e-09 8.53823e-15)
(0.0449692 2.24299e-10 9.02175e-15)
(0.0449692 1.47775e-09 8.74543e-15)
(0.0449692 2.65423e-09 9.06296e-15)
(0.0449691 3.7325e-09 8.93725e-15)
(0.0449691 4.67779e-09 8.70654e-15)
(0.0449691 5.60661e-09 8.96972e-15)
(0.044969 6.40002e-09 8.97409e-15)
(0.044969 6.87311e-09 9.2011e-15)
(0.0449689 7.2297e-09 9.04367e-15)
(0.0449689 7.42112e-09 8.81327e-15)
(0.0449689 7.61792e-09 9.13004e-15)
(0.0449688 7.77331e-09 8.98021e-15)
(0.0449688 7.69964e-09 9.21961e-15)
(0.0449687 7.66309e-09 9.12212e-15)
(0.0449687 7.5249e-09 8.90623e-15)
(0.0449686 7.13865e-09 9.38993e-15)
(0.0449686 6.59072e-09 9.08869e-15)
(0.0449685 6.14959e-09 9.16206e-15)
(0.0449685 5.81679e-09 9.08554e-15)
(0.0449684 5.40374e-09 9.80054e-15)
(0.0449684 5.03493e-09 8.96672e-15)
(0.0449684 4.71218e-09 8.89513e-15)
(0.0449683 4.19871e-09 9.06436e-15)
(0.0449683 3.5668e-09 8.43834e-15)
(0.0449683 2.75607e-09 9.08671e-15)
(0.0449683 1.70917e-09 8.74745e-15)
(0.0449683 1.01047e-09 8.73719e-15)
(0.0449683 7.0506e-10 8.99552e-15)
(0.0449683 6.16005e-10 8.53496e-15)
(0.0449682 7.48162e-10 8.98429e-15)
(0.0449682 7.29527e-10 8.64933e-15)
(0.0449682 5.87405e-10 8.65409e-15)
(0.0449682 3.50256e-10 8.90465e-15)
(0.0449682 -4.79286e-11 8.07834e-15)
(0.0449682 -4.7036e-10 8.86639e-15)
(0.0449682 -9.8618e-10 8.37384e-15)
(0.0449682 -1.50247e-09 8.53878e-15)
(0.0449682 -1.96522e-09 8.91338e-15)
(0.0449683 -2.21643e-09 8.54605e-15)
(0.0449683 -2.46567e-09 9.01436e-15)
(0.0449683 -2.02785e-09 8.47221e-15)
(0.0449683 -1.46285e-09 8.66748e-15)
(0.0449683 7.49315e-11 8.81486e-15)
(0.0449683 2.29817e-09 8.51307e-15)
(0.0449683 2.96349e-09 8.9187e-15)
(0.0449683 2.70206e-09 8.55297e-15)
(0.0449683 1.57114e-09 8.58099e-15)
(0.0449683 -1.13405e-12 8.82085e-15)
(0.0449683 -1.6107e-09 8.43237e-15)
(0.0449683 -3.12922e-09 8.81702e-15)
(0.0449684 -4.33173e-09 8.94091e-15)
(0.0449684 -5.32626e-09 8.84309e-15)
(0.0449684 -6.11803e-09 8.94692e-15)
(0.0449685 -6.7545e-09 8.60372e-15)
(0.0449685 -6.71159e-09 8.9602e-15)
(0.0449685 -5.66564e-09 9.01591e-15)
(0.0449686 -5.86253e-09 8.86119e-15)
(0.0449686 -8.96307e-10 8.93075e-15)
(0.0449686 -1.90665e-09 8.538e-15)
(0.0524538 -2.24742e-08 1.03098e-14)
(0.0524539 -2.66506e-08 1.00244e-14)
(0.052454 -1.8532e-08 1.00412e-14)
(0.052454 -4.42221e-09 1.001e-14)
(0.052454 9.71798e-09 9.90363e-15)
(0.0524539 2.1039e-08 9.8043e-15)
(0.0524537 2.90244e-08 9.78187e-15)
(0.0524536 3.4031e-08 9.8244e-15)
(0.0524534 3.63034e-08 9.83979e-15)
(0.0524532 3.60048e-08 9.85294e-15)
(0.0524531 3.40403e-08 9.98548e-15)
(0.0524529 3.13109e-08 9.38162e-15)
(0.0524528 2.82495e-08 9.5915e-15)
(0.0524527 2.48353e-08 9.15918e-15)
(0.0524526 2.14294e-08 9.28575e-15)
(0.0524525 1.80061e-08 9.84793e-15)
(0.0524524 1.4359e-08 9.2414e-15)
(0.0524523 1.09934e-08 9.33943e-15)
(0.0524523 7.74892e-09 8.78794e-15)
(0.0524523 4.49788e-09 8.95419e-15)
(0.0524523 1.48714e-09 9.07327e-15)
(0.0524523 -1.38337e-09 9.29749e-15)
(0.0524523 -4.10476e-09 9.34425e-15)
(0.0524523 -6.49756e-09 9.0576e-15)
(0.0524523 -8.52651e-09 9.19383e-15)
(0.0524524 -1.02153e-08 9.22892e-15)
(0.0524524 -1.19254e-08 8.98144e-15)
(0.0524525 -1.36491e-08 9.10129e-15)
(0.0524526 -1.4951e-08 8.86275e-15)
(0.0524526 -1.59748e-08 8.94677e-15)
(0.0524527 -1.70208e-08 9.05363e-15)
(0.0524528 -1.78478e-08 8.8538e-15)
(0.0524529 -1.84445e-08 9.01453e-15)
(0.052453 -1.90591e-08 8.79885e-15)
(0.0524531 -1.96662e-08 8.95172e-15)
(0.0524532 -2.00842e-08 9.03912e-15)
(0.0524533 -2.03469e-08 8.81527e-15)
(0.0524534 -2.05873e-08 9.02192e-15)
(0.0524535 -2.06485e-08 8.80018e-15)
(0.0524536 -2.06319e-08 8.91129e-15)
(0.0524537 -1.96121e-08 8.88394e-15)
(0.0524538 -1.81672e-08 9.26127e-15)
(0.0524539 -1.60827e-08 9.31744e-15)
(0.0524539 -1.35407e-08 9.37486e-15)
(0.052454 -1.01499e-08 9.36586e-15)
(0.0524541 -5.4799e-09 9.33503e-15)
(0.0524541 -2.47637e-09 9.68996e-15)
(0.0524541 -1.08376e-09 9.70028e-15)
(0.0524541 -9.94462e-10 9.74413e-15)
(0.0524541 -1.81762e-09 9.68072e-15)
(0.0524542 -2.74821e-09 9.61867e-15)
(0.0524542 -3.76642e-09 9.91126e-15)
(0.0524542 -4.66732e-09 9.79931e-15)
(0.0524542 -5.2898e-09 1.00947e-14)
(0.0524543 -5.66556e-09 1.00616e-14)
(0.0524543 -5.79262e-09 9.71341e-15)
(0.0524543 -5.46103e-09 1.01021e-14)
(0.0524543 -4.73171e-09 1.00509e-14)
(0.0524543 -3.724e-09 1.04185e-14)
(0.0524544 -2.49802e-09 1.02804e-14)
(0.0524544 -9.78956e-10 9.92429e-15)
(0.0524543 7.27507e-10 1.03343e-14)
(0.0524543 2.39098e-09 1.0245e-14)
(0.0524543 3.9686e-09 1.05427e-14)
(0.0524543 5.43405e-09 1.04917e-14)
(0.0524542 6.72942e-09 1.00969e-14)
(0.0524542 7.97282e-09 1.06063e-14)
(0.0524542 9.01258e-09 1.04644e-14)
(0.0524541 9.63879e-09 1.06871e-14)
(0.0524541 1.01123e-08 1.06164e-14)
(0.052454 1.04123e-08 1.02193e-14)
(0.052454 1.06874e-08 1.06126e-14)
(0.0524539 1.08576e-08 1.04996e-14)
(0.0524539 1.07456e-08 1.07329e-14)
(0.0524538 1.06533e-08 1.06911e-14)
(0.0524537 1.04196e-08 1.03082e-14)
(0.0524537 9.90273e-09 1.07341e-14)
(0.0524536 9.18855e-09 1.06117e-14)
(0.0524536 8.60504e-09 1.08388e-14)
(0.0524536 8.16699e-09 1.06658e-14)
(0.0524535 7.60626e-09 1.10691e-14)
(0.0524535 7.0848e-09 1.06927e-14)
(0.0524534 6.61823e-09 1.04611e-14)
(0.0524534 5.93341e-09 1.10145e-14)
(0.0524534 5.06176e-09 1.03336e-14)
(0.0524534 4.00773e-09 1.07477e-14)