/*--------------------------------*- C++ -*----------------------------------*\
  =========                 |
  \\      /  F ield         | OpenFOAM: The Open Source CFD Toolbox
   \\    /   O peration     | Website:  https://openfoam.org
    \\  /    A nd           | Version:  7
     \\/     M anipulation  |
\*---------------------------------------------------------------------------*/
FoamFile
{
    version     2.0;
    format      ascii;
    class       volScalarField;
    location    "2500";
    object      nut;
}
// * * * * * * * * * * * * * * * * * * * * * * * * * * * * * * * * * * * * * //

dimensions      [0 2 -1 0 0 0 0];

internalField   nonuniform List<scalar> 
3963
(
0.00108049
0.00108075
0.00108077
0.00108075
0.00108071
0.00108068
0.00108065
0.00108062
0.00108059
0.00108056
0.00108053
0.0010805
0.00108048
0.00108045
0.00108043
0.0010804
0.00108037
0.00108035
0.00108032
0.0010803
0.00108027
0.00108012
0.00107998
0.00107984
0.00107975
0.00107969
0.00107963
0.00107959
0.00107955
0.00107951
0.00107948
0.00107944
0.00107941
0.00107938
0.00107935
0.00107934
0.00107921
0.00103895
0.0010392
0.00103923
0.00103921
0.00103918
0.00103915
0.00103911
0.00103908
0.00103905
0.00103902
0.00103899
0.00103896
0.00103893
0.0010389
0.00103888
0.00103885
0.00103882
0.0010388
0.00103877
0.00103875
0.00103865
0.00103952
0.00103986
0.00103998
0.00103985
0.00103972
0.00103967
0.00103921
0.00103892
0.00103872
0.00103858
0.00103848
0.00103839
0.00103832
0.00103826
0.0010382
0.00103815
0.0010381
0.00103806
0.00103802
0.00103797
0.00103795
0.00103782
0.000998683
0.000998898
0.000998926
0.000998908
0.000998879
0.000998847
0.000998814
0.000998782
0.00099875
0.000998719
0.000998688
0.000998658
0.000998629
0.000998601
0.000998574
0.000998546
0.00099852
0.000998493
0.000998466
0.000998446
0.000998371
0.000998673
0.00099889
0.000999892
0.00100032
0.00100045
0.00100051
0.00100055
0.00100057
0.00100059
0.00100061
0.00100062
0.00100063
0.00100064
0.00100064
0.00100064
0.00100064
0.00100064
0.00100064
0.00100064
0.00100064
0.00100063
0.00100063
0.00100062
0.00100061
0.00100061
0.0010006
0.00100059
0.00100058
0.00100057
0.00100057
0.00100056
0.00100055
0.00100054
0.00100053
0.00100052
0.00100051
0.0010005
0.00100049
0.00100048
0.00100047
0.00100046
0.00100046
0.00100045
0.00100044
0.00100043
0.00100042
0.00100041
0.00100041
0.0010004
0.00100039
0.00100038
0.00100038
0.00100037
0.00100036
0.00100035
0.00100035
0.00100034
0.00100033
0.00100033
0.00100032
0.00100032
0.00100031
0.0010003
0.0010003
0.00100029
0.00100028
0.00100028
0.00100027
0.00100027
0.00100026
0.00100025
0.00100025
0.00100024
0.00100023
0.00100023
0.00100022
0.00100021
0.0010002
0.00100022
0.000999829
0.00099959
0.000999433
0.000999344
0.000999119
0.000998888
0.000998696
0.000998543
0.000998419
0.000998317
0.000998229
0.000998153
0.000998085
0.000998023
0.000997967
0.000997914
0.000997866
0.000997817
0.000997789
0.000997654
0.000959675
0.000959865
0.000959886
0.000959867
0.000959839
0.000959808
0.000959776
0.000959745
0.000959713
0.000959682
0.000959652
0.000959622
0.000959593
0.000959566
0.000959538
0.000959511
0.000959485
0.000959459
0.000959433
0.000959411
0.00095936
0.000959448
0.000959552
0.000959987
0.000960367
0.000960597
0.00096073
0.000960814
0.000960874
0.00096092
0.000960955
0.000960984
0.000961007
0.000961025
0.00096104
0.000961052
0.000961062
0.000961069
0.000961074
0.000961078
0.00096108
0.000961081
0.000961081
0.00096108
0.000961078
0.000961076
0.000961072
0.000961068
0.000961064
0.000961059
0.000961054
0.000961048
0.000961042
0.000961036
0.00096103
0.000961023
0.000961016
0.000961009
0.000961003
0.000960996
0.000960989
0.000960982
0.000960975
0.000960968
0.000960962
0.000960955
0.000960949
0.000960943
0.000960937
0.000960931
0.000960925
0.000960919
0.000960913
0.000960908
0.000960903
0.000960897
0.000960892
0.000960887
0.000960882
0.000960876
0.000960871
0.000960866
0.000960861
0.000960856
0.000960851
0.000960846
0.000960841
0.000960836
0.000960831
0.000960825
0.00096082
0.000960815
0.000960809
0.000960804
0.000960798
0.000960792
0.000960786
0.000960781
0.000960773
0.000960784
0.00096064
0.000960475
0.000960335
0.000960237
0.000960103
0.000959945
0.00095979
0.000959652
0.000959533
0.000959429
0.000959338
0.000959258
0.000959186
0.00095912
0.00095906
0.000959004
0.000958952
0.0009589
0.000958869
0.000958734
0.000921937
0.000922106
0.00092212
0.000922101
0.000922073
0.000922043
0.000922013
0.000921983
0.000921952
0.000921923
0.000921893
0.000921865
0.000921837
0.00092181
0.000921783
0.000921758
0.000921732
0.000921707
0.000921682
0.000921659
0.000921623
0.000921635
0.00092167
0.000921849
0.000922082
0.000922281
0.000922425
0.000922528
0.000922604
0.000922662
0.000922709
0.000922747
0.000922779
0.000922805
0.000922826
0.000922844
0.00092286
0.000922872
0.000922883
0.000922891
0.000922897
0.000922902
0.000922906
0.000922908
0.00092291
0.00092291
0.00092291
0.000922909
0.000922908
0.000922906
0.000922903
0.0009229
0.000922896
0.000922892
0.000922888
0.000922884
0.000922879
0.000922874
0.00092287
0.000922865
0.00092286
0.000922855
0.00092285
0.000922845
0.00092284
0.000922835
0.00092283
0.000922826
0.000922821
0.000922817
0.000922812
0.000922808
0.000922804
0.000922799
0.000922795
0.000922791
0.000922787
0.000922783
0.000922779
0.000922775
0.000922771
0.000922767
0.000922763
0.000922759
0.000922755
0.000922751
0.000922747
0.000922743
0.000922739
0.000922734
0.00092273
0.000922725
0.000922721
0.000922716
0.000922711
0.000922706
0.000922701
0.000922696
0.000922689
0.000922694
0.000922642
0.000922552
0.000922454
0.000922371
0.000922279
0.000922173
0.00092206
0.000921949
0.000921846
0.000921753
0.000921668
0.000921591
0.000921521
0.000921457
0.000921397
0.000921341
0.000921289
0.000921238
0.000921206
0.000921074
0.000885472
0.000885624
0.000885635
0.000885614
0.000885587
0.000885559
0.00088553
0.000885502
0.000885474
0.000885445
0.000885418
0.000885391
0.000885364
0.000885339
0.000885314
0.000885289
0.000885265
0.000885241
0.000885217
0.000885195
0.000885167
0.000885155
0.000885156
0.000885221
0.000885339
0.00088547
0.000885587
0.000885681
0.000885756
0.000885816
0.000885865
0.000885906
0.00088594
0.000885969
0.000885994
0.000886015
0.000886033
0.000886049
0.000886062
0.000886073
0.000886082
0.000886089
0.000886095
0.0008861
0.000886104
0.000886106
0.000886108
0.000886109
0.00088611
0.000886109
0.000886109
0.000886107
0.000886106
0.000886104
0.000886101
0.000886098
0.000886096
0.000886092
0.000886089
0.000886086
0.000886082
0.000886079
0.000886075
0.000886072
0.000886068
0.000886065
0.000886061
0.000886058
0.000886055
0.000886051
0.000886048
0.000886045
0.000886042
0.000886039
0.000886036
0.000886033
0.00088603
0.000886027
0.000886024
0.000886021
0.000886018
0.000886015
0.000886012
0.000886009
0.000886005
0.000886002
0.000885999
0.000885995
0.000885992
0.000885988
0.000885985
0.000885981
0.000885977
0.000885973
0.000885969
0.000885964
0.00088596
0.000885955
0.00088595
0.00088595
0.00088593
0.000885886
0.000885827
0.000885767
0.000885703
0.000885631
0.000885551
0.000885468
0.000885387
0.000885309
0.000885236
0.000885168
0.000885104
0.000885044
0.000884989
0.000884936
0.000884887
0.000884838
0.000884808
0.00088468
0.000850277
0.000850417
0.000850425
0.000850405
0.000850379
0.000850353
0.000850327
0.0008503
0.000850274
0.000850248
0.000850222
0.000850197
0.000850172
0.000850149
0.000850125
0.000850103
0.00085008
0.000850058
0.000850036
0.000850015
0.000849991
0.000849972
0.00084996
0.000849975
0.000850025
0.000850098
0.000850175
0.000850246
0.000850308
0.000850361
0.000850406
0.000850444
0.000850477
0.000850505
0.00085053
0.000850551
0.00085057
0.000850586
0.000850599
0.000850611
0.000850621
0.00085063
0.000850637
0.000850643
0.000850648
0.000850652
0.000850655
0.000850657
0.000850659
0.00085066
0.000850661
0.000850661
0.00085066
0.000850659
0.000850658
0.000850657
0.000850655
0.000850653
0.000850651
0.000850649
0.000850646
0.000850644
0.000850642
0.000850639
0.000850637
0.000850634
0.000850632
0.00085063
0.000850627
0.000850625
0.000850623
0.00085062
0.000850618
0.000850616
0.000850614
0.000850612
0.00085061
0.000850607
0.000850605
0.000850603
0.000850601
0.000850599
0.000850596
0.000850594
0.000850591
0.000850589
0.000850586
0.000850584
0.000850581
0.000850578
0.000850575
0.000850571
0.000850568
0.000850564
0.000850561
0.000850557
0.000850553
0.000850549
0.000850544
0.000850542
0.000850534
0.000850513
0.00085048
0.00085044
0.000850397
0.000850348
0.000850293
0.000850233
0.000850172
0.000850111
0.000850051
0.000849994
0.000849939
0.000849887
0.000849838
0.000849791
0.000849746
0.000849701
0.000849674
0.000849553
0.000816346
0.000816474
0.000816482
0.000816464
0.00081644
0.000816416
0.000816392
0.000816368
0.000816344
0.00081632
0.000816297
0.000816274
0.000816251
0.00081623
0.000816208
0.000816188
0.000816167
0.000816147
0.000816127
0.000816107
0.000816086
0.000816067
0.00081605
0.000816045
0.00081606
0.000816092
0.000816135
0.000816182
0.000816226
0.000816267
0.000816303
0.000816335
0.000816363
0.000816388
0.00081641
0.000816429
0.000816447
0.000816462
0.000816475
0.000816486
0.000816496
0.000816505
0.000816512
0.000816518
0.000816524
0.000816528
0.000816532
0.000816535
0.000816537
0.000816539
0.00081654
0.000816541
0.000816541
0.000816541
0.000816541
0.00081654
0.000816539
0.000816538
0.000816537
0.000816535
0.000816534
0.000816533
0.000816531
0.000816529
0.000816528
0.000816526
0.000816525
0.000816523
0.000816521
0.00081652
0.000816518
0.000816517
0.000816515
0.000816514
0.000816513
0.000816511
0.00081651
0.000816508
0.000816507
0.000816505
0.000816503
0.000816502
0.0008165
0.000816498
0.000816496
0.000816494
0.000816492
0.00081649
0.000816488
0.000816485
0.000816483
0.00081648
0.000816477
0.000816474
0.000816471
0.000816467
0.000816464
0.00081646
0.000816456
0.000816453
0.000816448
0.000816438
0.000816419
0.000816395
0.000816367
0.000816334
0.000816296
0.000816255
0.000816211
0.000816164
0.000816118
0.000816072
0.000816027
0.000815983
0.000815941
0.0008159
0.000815861
0.000815821
0.000815798
0.000815685
0.000783664
0.000783782
0.00078379
0.000783774
0.000783753
0.000783731
0.00078371
0.000783688
0.000783667
0.000783646
0.000783625
0.000783604
0.000783584
0.000783564
0.000783545
0.000783527
0.000783508
0.00078349
0.000783471
0.000783453
0.000783435
0.000783417
0.0007834
0.000783388
0.000783386
0.000783395
0.000783414
0.00078344
0.000783467
0.000783495
0.000783521
0.000783545
0.000783567
0.000783587
0.000783605
0.000783621
0.000783636
0.000783649
0.00078366
0.00078367
0.000783679
0.000783687
0.000783694
0.0007837
0.000783705
0.000783709
0.000783713
0.000783716
0.000783718
0.00078372
0.000783722
0.000783723
0.000783723
0.000783724
0.000783724
0.000783724
0.000783724
0.000783723
0.000783722
0.000783722
0.000783721
0.00078372
0.000783719
0.000783718
0.000783717
0.000783716
0.000783715
0.000783714
0.000783713
0.000783712
0.000783711
0.00078371
0.00078371
0.000783709
0.000783708
0.000783707
0.000783706
0.000783705
0.000783704
0.000783703
0.000783702
0.0007837
0.000783699
0.000783698
0.000783696
0.000783695
0.000783693
0.000783691
0.000783689
0.000783687
0.000783685
0.000783683
0.00078368
0.000783678
0.000783675
0.000783672
0.000783669
0.000783665
0.000783662
0.000783658
0.000783655
0.000783649
0.000783638
0.000783624
0.000783605
0.000783584
0.000783558
0.00078353
0.000783498
0.000783464
0.000783429
0.000783393
0.000783358
0.000783322
0.000783287
0.000783253
0.00078322
0.000783185
0.000783166
0.000783062
0.000752211
0.000752319
0.000752328
0.000752314
0.000752296
0.000752277
0.000752259
0.00075224
0.000752221
0.000752202
0.000752184
0.000752166
0.000752148
0.000752131
0.000752114
0.000752097
0.000752081
0.000752064
0.000752048
0.000752032
0.000752015
0.000751999
0.000751983
0.000751969
0.00075196
0.000751958
0.000751962
0.000751973
0.000751987
0.000752003
0.00075202
0.000752036
0.000752051
0.000752066
0.000752079
0.000752092
0.000752103
0.000752113
0.000752123
0.000752131
0.000752138
0.000752145
0.00075215
0.000752155
0.00075216
0.000752163
0.000752167
0.000752169
0.000752172
0.000752174
0.000752175
0.000752176
0.000752177
0.000752178
0.000752178
0.000752178
0.000752178
0.000752178
0.000752178
0.000752178
0.000752177
0.000752177
0.000752176
0.000752176
0.000752175
0.000752174
0.000752174
0.000752173
0.000752173
0.000752172
0.000752172
0.000752172
0.000752171
0.000752171
0.00075217
0.00075217
0.000752169
0.000752168
0.000752168
0.000752167
0.000752166
0.000752166
0.000752165
0.000752164
0.000752163
0.000752161
0.00075216
0.000752158
0.000752157
0.000752155
0.000752153
0.000752151
0.000752149
0.000752146
0.000752144
0.000752141
0.000752138
0.000752135
0.000752132
0.000752129
0.000752126
0.000752121
0.000752115
0.000752106
0.000752094
0.000752079
0.000752062
0.000752043
0.00075202
0.000751996
0.00075197
0.000751943
0.000751915
0.000751887
0.000751859
0.000751831
0.000751803
0.000751774
0.000751759
0.000751664
0.000721961
0.00072206
0.000722069
0.000722059
0.000722044
0.000722028
0.000722012
0.000721996
0.000721979
0.000721963
0.000721947
0.000721931
0.000721916
0.000721901
0.000721886
0.000721871
0.000721857
0.000721842
0.000721828
0.000721814
0.000721799
0.000721785
0.00072177
0.000721757
0.000721745
0.000721738
0.000721735
0.000721736
0.000721741
0.000721748
0.000721756
0.000721766
0.000721775
0.000721784
0.000721794
0.000721802
0.00072181
0.000721818
0.000721825
0.000721831
0.000721836
0.000721841
0.000721846
0.00072185
0.000721853
0.000721856
0.000721859
0.000721861
0.000721863
0.000721864
0.000721866
0.000721867
0.000721868
0.000721868
0.000721869
0.000721869
0.000721869
0.000721869
0.000721869
0.000721869
0.000721869
0.000721868
0.000721868
0.000721868
0.000721868
0.000721867
0.000721867
0.000721867
0.000721867
0.000721867
0.000721867
0.000721866
0.000721866
0.000721866
0.000721866
0.000721866
0.000721865
0.000721865
0.000721865
0.000721864
0.000721864
0.000721863
0.000721863
0.000721862
0.000721861
0.00072186
0.000721859
0.000721858
0.000721857
0.000721855
0.000721853
0.000721852
0.00072185
0.000721847
0.000721845
0.000721843
0.00072184
0.000721837
0.000721834
0.000721831
0.000721828
0.000721824
0.00072182
0.000721814
0.000721806
0.000721796
0.000721784
0.000721771
0.000721755
0.000721738
0.000721719
0.000721698
0.000721677
0.000721655
0.000721633
0.00072161
0.000721588
0.000721563
0.000721553
0.000721466
0.000692884
0.000692974
0.000692985
0.000692976
0.000692964
0.000692951
0.000692938
0.000692924
0.00069291
0.000692896
0.000692883
0.000692869
0.000692856
0.000692843
0.00069283
0.000692817
0.000692805
0.000692792
0.00069278
0.000692767
0.000692754
0.000692742
0.000692729
0.000692717
0.000692705
0.000692696
0.000692689
0.000692685
0.000692684
0.000692685
0.000692688
0.000692692
0.000692696
0.000692701
0.000692707
0.000692712
0.000692717
0.000692722
0.000692726
0.00069273
0.000692734
0.000692738
0.000692741
0.000692743
0.000692746
0.000692748
0.00069275
0.000692751
0.000692753
0.000692754
0.000692755
0.000692756
0.000692756
0.000692757
0.000692757
0.000692757
0.000692758
0.000692758
0.000692758
0.000692758
0.000692758
0.000692758
0.000692758
0.000692757
0.000692757
0.000692757
0.000692757
0.000692757
0.000692758
0.000692758
0.000692758
0.000692758
0.000692758
0.000692758
0.000692758
0.000692758
0.000692758
0.000692758
0.000692758
0.000692758
0.000692757
0.000692757
0.000692757
0.000692756
0.000692755
0.000692755
0.000692754
0.000692753
0.000692751
0.00069275
0.000692749
0.000692747
0.000692745
0.000692743
0.000692741
0.000692739
0.000692736
0.000692734
0.000692731
0.000692728
0.000692725
0.000692722
0.000692718
0.000692713
0.000692708
0.000692701
0.000692693
0.000692683
0.000692672
0.000692659
0.000692645
0.00069263
0.000692614
0.000692597
0.00069258
0.000692562
0.000692544
0.000692524
0.000692516
0.000692438
0.000664946
0.000665028
0.000665039
0.000665033
0.000665023
0.000665013
0.000665002
0.000664991
0.000664979
0.000664967
0.000664956
0.000664944
0.000664933
0.000664922
0.000664911
0.0006649
0.00066489
0.000664879
0.000664868
0.000664857
0.000664846
0.000664835
0.000664824
0.000664813
0.000664803
0.000664793
0.000664785
0.000664779
0.000664774
0.000664772
0.000664771
0.000664771
0.000664771
0.000664773
0.000664775
0.000664777
0.00066478
0.000664783
0.000664785
0.000664787
0.000664789
0.000664791
0.000664793
0.000664795
0.000664796
0.000664797
0.000664799
0.0006648
0.000664801
0.000664801
0.000664802
0.000664802
0.000664803
0.000664803
0.000664803
0.000664803
0.000664803
0.000664804
0.000664804
0.000664804
0.000664804
0.000664804
0.000664804
0.000664804
0.000664804
0.000664804
0.000664804
0.000664804
0.000664805
0.000664805
0.000664805
0.000664805
0.000664806
0.000664806
0.000664806
0.000664806
0.000664806
0.000664806
0.000664806
0.000664806
0.000664806
0.000664806
0.000664806
0.000664805
0.000664805
0.000664804
0.000664803
0.000664803
0.000664802
0.0006648
0.000664799
0.000664797
0.000664796
0.000664794
0.000664792
0.00066479
0.000664788
0.000664785
0.000664782
0.00066478
0.000664777
0.000664774
0.000664771
0.000664767
0.000664762
0.000664757
0.000664751
0.000664744
0.000664736
0.000664726
0.000664716
0.000664705
0.000664693
0.00066468
0.000664666
0.000664652
0.000664638
0.000664621
0.000664617
0.000664547
0.000638109
0.000638184
0.000638195
0.000638191
0.000638184
0.000638175
0.000638166
0.000638157
0.000638148
0.000638138
0.000638128
0.000638119
0.000638109
0.0006381
0.000638091
0.000638082
0.000638073
0.000638064
0.000638054
0.000638045
0.000638035
0.000638026
0.000638016
0.000638007
0.000637998
0.000637989
0.000637981
0.000637974
0.000637968
0.000637963
0.00063796
0.000637957
0.000637956
0.000637955
0.000637955
0.000637955
0.000637955
0.000637956
0.000637957
0.000637958
0.000637958
0.000637959
0.00063796
0.00063796
0.000637961
0.000637962
0.000637962
0.000637963
0.000637963
0.000637963
0.000637963
0.000637964
0.000637964
0.000637964
0.000637964
0.000637964
0.000637964
0.000637964
0.000637964
0.000637964
0.000637964
0.000637964
0.000637964
0.000637965
0.000637965
0.000637965
0.000637965
0.000637966
0.000637966
0.000637966
0.000637967
0.000637967
0.000637967
0.000637968
0.000637968
0.000637968
0.000637968
0.000637969
0.000637969
0.000637969
0.000637969
0.000637969
0.000637969
0.000637968
0.000637968
0.000637967
0.000637967
0.000637966
0.000637965
0.000637964
0.000637962
0.000637961
0.000637959
0.000637958
0.000637956
0.000637954
0.000637952
0.000637949
0.000637947
0.000637944
0.000637942
0.000637939
0.000637936
0.000637932
0.000637929
0.000637924
0.00063792
0.000637914
0.000637908
0.000637901
0.000637893
0.000637885
0.000637875
0.000637865
0.000637855
0.000637844
0.000637832
0.000637819
0.000637816
0.000637754
0.000612335
0.000612402
0.000612413
0.000612411
0.000612405
0.000612398
0.000612392
0.000612384
0.000612377
0.000612369
0.000612361
0.000612353
0.000612345
0.000612337
0.00061233
0.000612322
0.000612315
0.000612307
0.000612299
0.000612291
0.000612283
0.000612275
0.000612266
0.000612258
0.00061225
0.000612243
0.000612235
0.000612228
0.000612222
0.000612217
0.000612212
0.000612208
0.000612205
0.000612203
0.000612201
0.000612199
0.000612198
0.000612198
0.000612197
0.000612197
0.000612196
0.000612196
0.000612196
0.000612196
0.000612196
0.000612196
0.000612196
0.000612196
0.000612195
0.000612195
0.000612195
0.000612195
0.000612195
0.000612195
0.000612195
0.000612195
0.000612195
0.000612195
0.000612195
0.000612195
0.000612195
0.000612195
0.000612195
0.000612196
0.000612196
0.000612196
0.000612197
0.000612197
0.000612197
0.000612198
0.000612198
0.000612199
0.000612199
0.000612199
0.0006122
0.0006122
0.0006122
0.000612201
0.000612201
0.000612201
0.000612201
0.000612201
0.000612201
0.000612201
0.0006122
0.0006122
0.000612199
0.000612199
0.000612198
0.000612197
0.000612195
0.000612194
0.000612193
0.000612191
0.000612189
0.000612187
0.000612185
0.000612183
0.000612181
0.000612178
0.000612176
0.000612173
0.00061217
0.000612167
0.000612164
0.00061216
0.000612156
0.000612152
0.000612147
0.000612141
0.000612135
0.000612128
0.000612121
0.000612113
0.000612105
0.000612096
0.000612087
0.000612076
0.000612075
0.000612019
0.00058758
0.000587641
0.000587651
0.00058765
0.000587646
0.000587641
0.000587635
0.00058763
0.000587623
0.000587617
0.000587611
0.000587604
0.000587598
0.000587591
0.000587585
0.000587579
0.000587573
0.000587566
0.00058756
0.000587553
0.000587546
0.000587539
0.000587532
0.000587525
0.000587518
0.000587512
0.000587505
0.000587499
0.000587493
0.000587487
0.000587482
0.000587478
0.000587474
0.000587471
0.000587468
0.000587465
0.000587464
0.000587462
0.00058746
0.000587459
0.000587458
0.000587457
0.000587456
0.000587455
0.000587455
0.000587454
0.000587454
0.000587453
0.000587453
0.000587453
0.000587452
0.000587452
0.000587452
0.000587452
0.000587452
0.000587451
0.000587451
0.000587451
0.000587451
0.000587451
0.000587451
0.000587452
0.000587452
0.000587452
0.000587452
0.000587453
0.000587453
0.000587454
0.000587454
0.000587455
0.000587455
0.000587456
0.000587456
0.000587456
0.000587457
0.000587457
0.000587458
0.000587458
0.000587458
0.000587458
0.000587459
0.000587459
0.000587458
0.000587458
0.000587458
0.000587458
0.000587457
0.000587456
0.000587455
0.000587454
0.000587453
0.000587452
0.000587451
0.000587449
0.000587447
0.000587445
0.000587444
0.000587441
0.000587439
0.000587437
0.000587434
0.000587432
0.000587429
0.000587426
0.000587423
0.00058742
0.000587416
0.000587413
0.000587409
0.000587404
0.000587399
0.000587394
0.000587388
0.000587382
0.000587375
0.000587368
0.000587361
0.000587352
0.000587352
0.000587302
0.000563803
0.000563856
0.000563866
0.000563866
0.000563863
0.000563859
0.000563855
0.000563851
0.000563846
0.000563841
0.000563835
0.00056383
0.000563825
0.00056382
0.000563815
0.00056381
0.000563805
0.000563799
0.000563794
0.000563788
0.000563782
0.000563777
0.000563771
0.000563765
0.000563759
0.000563753
0.000563748
0.000563742
0.000563737
0.000563731
0.000563726
0.000563722
0.000563718
0.000563714
0.000563711
0.000563708
0.000563705
0.000563703
0.000563701
0.000563699
0.000563698
0.000563696
0.000563695
0.000563694
0.000563693
0.000563692
0.000563691
0.000563691
0.00056369
0.00056369
0.000563689
0.000563689
0.000563688
0.000563688
0.000563688
0.000563688
0.000563688
0.000563688
0.000563688
0.000563688
0.000563688
0.000563688
0.000563688
0.000563689
0.000563689
0.000563689
0.00056369
0.00056369
0.000563691
0.000563691
0.000563692
0.000563692
0.000563693
0.000563693
0.000563694
0.000563694
0.000563695
0.000563695
0.000563695
0.000563696
0.000563696
0.000563696
0.000563696
0.000563696
0.000563695
0.000563695
0.000563694
0.000563694
0.000563693
0.000563692
0.000563691
0.00056369
0.000563688
0.000563687
0.000563685
0.000563683
0.000563681
0.000563679
0.000563677
0.000563675
0.000563673
0.00056367
0.000563667
0.000563665
0.000563662
0.000563659
0.000563656
0.000563653
0.000563649
0.000563645
0.000563641
0.000563637
0.000563632
0.000563627
0.000563622
0.000563616
0.00056361
0.000563602
0.000563603
0.000563559
0.000540958
0.000541005
0.000541014
0.000541014
0.000541012
0.00054101
0.000541007
0.000541003
0.000541
0.000540996
0.000540991
0.000540987
0.000540983
0.000540979
0.000540975
0.000540971
0.000540967
0.000540962
0.000540958
0.000540953
0.000540948
0.000540944
0.000540939
0.000540934
0.000540929
0.000540924
0.000540919
0.000540914
0.000540909
0.000540905
0.0005409
0.000540896
0.000540892
0.000540888
0.000540885
0.000540882
0.000540879
0.000540876
0.000540874
0.000540872
0.00054087
0.000540869
0.000540867
0.000540866
0.000540865
0.000540864
0.000540863
0.000540862
0.000540861
0.000540861
0.00054086
0.00054086
0.000540859
0.000540859
0.000540859
0.000540859
0.000540859
0.000540858
0.000540859
0.000540859
0.000540859
0.000540859
0.000540859
0.00054086
0.00054086
0.000540861
0.000540861
0.000540862
0.000540862
0.000540863
0.000540863
0.000540864
0.000540864
0.000540865
0.000540865
0.000540866
0.000540866
0.000540867
0.000540867
0.000540867
0.000540867
0.000540867
0.000540867
0.000540867
0.000540867
0.000540867
0.000540866
0.000540865
0.000540865
0.000540864
0.000540863
0.000540861
0.00054086
0.000540859
0.000540857
0.000540855
0.000540853
0.000540852
0.000540849
0.000540847
0.000540845
0.000540843
0.00054084
0.000540838
0.000540835
0.000540832
0.000540829
0.000540827
0.000540823
0.00054082
0.000540817
0.000540813
0.000540809
0.000540805
0.0005408
0.000540795
0.00054079
0.000540784
0.000540785
0.000540747
0.000519002
0.000519043
0.000519052
0.000519052
0.000519051
0.000519049
0.000519047
0.000519044
0.000519042
0.000519038
0.000519035
0.000519032
0.000519029
0.000519025
0.000519022
0.000519019
0.000519016
0.000519012
0.000519008
0.000519004
0.000519
0.000518996
0.000518992
0.000518988
0.000518984
0.00051898
0.000518976
0.000518972
0.000518968
0.000518964
0.000518959
0.000518955
0.000518952
0.000518948
0.000518945
0.000518942
0.000518939
0.000518937
0.000518934
0.000518932
0.00051893
0.000518929
0.000518927
0.000518926
0.000518924
0.000518923
0.000518922
0.000518922
0.000518921
0.00051892
0.00051892
0.000518919
0.000518919
0.000518919
0.000518919
0.000518919
0.000518918
0.000518918
0.000518919
0.000518919
0.000518919
0.000518919
0.00051892
0.00051892
0.000518921
0.000518921
0.000518922
0.000518922
0.000518923
0.000518923
0.000518924
0.000518925
0.000518925
0.000518926
0.000518926
0.000518927
0.000518927
0.000518927
0.000518928
0.000518928
0.000518928
0.000518928
0.000518928
0.000518928
0.000518928
0.000518927
0.000518927
0.000518926
0.000518925
0.000518925
0.000518924
0.000518922
0.000518921
0.00051892
0.000518918
0.000518916
0.000518915
0.000518913
0.000518911
0.000518909
0.000518907
0.000518904
0.000518902
0.0005189
0.000518897
0.000518895
0.000518892
0.000518889
0.000518887
0.000518884
0.000518881
0.000518877
0.000518874
0.00051887
0.000518866
0.000518862
0.000518858
0.000518853
0.000518854
0.00051882
0.000497892
0.000497927
0.000497934
0.000497935
0.000497935
0.000497933
0.000497932
0.00049793
0.000497928
0.000497925
0.000497923
0.00049792
0.000497918
0.000497915
0.000497913
0.00049791
0.000497907
0.000497905
0.000497902
0.000497898
0.000497895
0.000497892
0.000497889
0.000497885
0.000497882
0.000497879
0.000497875
0.000497872
0.000497868
0.000497864
0.000497861
0.000497857
0.000497854
0.000497851
0.000497848
0.000497845
0.000497842
0.00049784
0.000497838
0.000497836
0.000497834
0.000497832
0.000497831
0.000497829
0.000497828
0.000497827
0.000497826
0.000497826
0.000497825
0.000497824
0.000497824
0.000497824
0.000497823
0.000497823
0.000497823
0.000497823
0.000497823
0.000497823
0.000497823
0.000497823
0.000497824
0.000497824
0.000497825
0.000497825
0.000497826
0.000497826
0.000497827
0.000497827
0.000497828
0.000497829
0.000497829
0.00049783
0.00049783
0.000497831
0.000497832
0.000497832
0.000497833
0.000497833
0.000497833
0.000497833
0.000497834
0.000497834
0.000497834
0.000497833
0.000497833
0.000497833
0.000497832
0.000497832
0.000497831
0.00049783
0.000497829
0.000497828
0.000497827
0.000497825
0.000497824
0.000497822
0.000497821
0.000497819
0.000497817
0.000497815
0.000497813
0.000497811
0.000497808
0.000497806
0.000497804
0.000497802
0.000497799
0.000497797
0.000497794
0.000497791
0.000497789
0.000497786
0.000497783
0.00049778
0.000497776
0.000497773
0.000497769
0.000497764
0.000497765
0.000497736
0.000477583
0.000477613
0.000477619
0.00047762
0.00047762
0.000477619
0.000477618
0.000477617
0.000477615
0.000477613
0.000477611
0.000477609
0.000477607
0.000477605
0.000477603
0.000477601
0.000477599
0.000477597
0.000477595
0.000477592
0.000477589
0.000477587
0.000477584
0.000477581
0.000477579
0.000477576
0.000477573
0.00047757
0.000477567
0.000477564
0.000477561
0.000477558
0.000477555
0.000477552
0.000477549
0.000477547
0.000477544
0.000477542
0.00047754
0.000477539
0.000477537
0.000477535
0.000477534
0.000477533
0.000477532
0.000477531
0.00047753
0.00047753
0.000477529
0.000477529
0.000477528
0.000477528
0.000477528
0.000477528
0.000477528
0.000477528
0.000477528
0.000477528
0.000477529
0.000477529
0.000477529
0.00047753
0.00047753
0.000477531
0.000477531
0.000477532
0.000477533
0.000477533
0.000477534
0.000477535
0.000477535
0.000477536
0.000477537
0.000477537
0.000477538
0.000477538
0.000477539
0.000477539
0.000477539
0.00047754
0.00047754
0.00047754
0.00047754
0.00047754
0.000477539
0.000477539
0.000477538
0.000477538
0.000477537
0.000477536
0.000477535
0.000477534
0.000477533
0.000477532
0.00047753
0.000477529
0.000477527
0.000477525
0.000477524
0.000477522
0.00047752
0.000477518
0.000477516
0.000477514
0.000477511
0.000477509
0.000477507
0.000477505
0.000477502
0.0004775
0.000477497
0.000477495
0.000477492
0.000477489
0.000477486
0.000477483
0.00047748
0.000477476
0.000477477
0.000477451
0.000458033
0.000458058
0.000458064
0.000458065
0.000458065
0.000458064
0.000458064
0.000458063
0.000458061
0.00045806
0.000458058
0.000458057
0.000458055
0.000458054
0.000458052
0.000458051
0.000458049
0.000458047
0.000458046
0.000458043
0.000458041
0.000458039
0.000458037
0.000458035
0.000458033
0.00045803
0.000458028
0.000458026
0.000458023
0.00045802
0.000458018
0.000458015
0.000458013
0.00045801
0.000458008
0.000458006
0.000458004
0.000458002
0.000458
0.000457999
0.000457997
0.000457996
0.000457995
0.000457994
0.000457993
0.000457993
0.000457992
0.000457991
0.000457991
0.000457991
0.000457991
0.000457991
0.00045799
0.000457991
0.000457991
0.000457991
0.000457991
0.000457991
0.000457992
0.000457992
0.000457993
0.000457993
0.000457994
0.000457994
0.000457995
0.000457996
0.000457996
0.000457997
0.000457998
0.000457999
0.000457999
0.000458
0.000458001
0.000458001
0.000458002
0.000458002
0.000458003
0.000458003
0.000458003
0.000458004
0.000458004
0.000458004
0.000458004
0.000458004
0.000458003
0.000458003
0.000458002
0.000458002
0.000458001
0.000458
0.000457999
0.000457998
0.000457997
0.000457996
0.000457994
0.000457993
0.000457991
0.00045799
0.000457988
0.000457986
0.000457985
0.000457983
0.000457981
0.000457979
0.000457977
0.000457975
0.000457973
0.000457971
0.000457968
0.000457966
0.000457964
0.000457962
0.000457959
0.000457957
0.000457954
0.000457951