/*--------------------------------*- C++ -*----------------------------------*\
  =========                 |
  \\      /  F ield         | OpenFOAM: The Open Source CFD Toolbox
   \\    /   O peration     | Website:  https://openfoam.org
    \\  /    A nd           | Version:  7
     \\/     M anipulation  |
\*---------------------------------------------------------------------------*/
FoamFile
{
    version     2.0;
    format      ascii;
    class       surfaceScalarField;
    location    "2500";
    object      phi;
}
// * * * * * * * * * * * * * * * * * * * * * * * * * * * * * * * * * * * * * //

dimensions      [0 3 -1 0 0 0 0];

internalField   nonuniform List<scalar> 
7768
(
0.000338532
1.45663e-09
0.000338532
8.9207e-10
0.000338532
6.61817e-10
0.000338532
5.47632e-10
0.000338533
4.47895e-10
0.000338533
3.59594e-10
0.000338533
2.7517e-10
0.000338533
1.94379e-10
0.000338533
1.18049e-10
0.000338533
4.63187e-11
0.000338533
-2.06875e-11
0.000338534
-8.29981e-11
0.000338534
-1.40639e-10
0.000338534
-1.9369e-10
0.000338534
-2.41694e-10
0.000338534
-2.84605e-10
0.000338534
-3.19254e-10
0.000338534
-3.47141e-10
0.000338534
-3.45141e-10
0.000338534
-3.21068e-10
-1.42044e-10
0.000338528
-3.08526e-10
0.000338528
-3.8389e-10
0.000338528
-3.95996e-10
0.000338529
-3.89682e-10
0.000338529
-3.71334e-10
0.000338529
-3.37778e-10
0.00033853
-2.86077e-10
0.00033853
-2.10121e-10
0.00033853
-1.06533e-10
0.00033853
3.77454e-11
0.000338531
2.22955e-10
0.000338531
4.83593e-10
0.000338531
8.02927e-10
0.000338531
1.26713e-09
0.000338531
1.92833e-09
2.06688e-09
0.000329934
1.24492e-09
0.000329934
6.93152e-10
0.000329934
4.83138e-10
0.000329934
3.8062e-10
0.000329934
2.89708e-10
0.000329935
2.09368e-10
0.000329935
1.32366e-10
0.000329935
5.88015e-11
0.000329935
-1.0503e-11
0.000329935
-7.54156e-11
0.000329935
-1.35815e-10
0.000329935
-1.9175e-10
0.000329935
-2.43265e-10
0.000329936
-2.90453e-10
0.000329936
-3.32846e-10
0.000329936
-3.70425e-10
0.000329936
-3.99773e-10
0.000329936
-4.22888e-10
0.000329936
-4.13795e-10
0.000329936
-3.85432e-10
0.000329936
-2.1131e-10
0.000329936
2.51125e-11
2.51051e-10
0.000329929
-3.05213e-10
0.000329929
-3.58615e-10
0.000329929
-3.32963e-10
0.00032993
-4.73728e-10
0.00032993
-6.64342e-10
0.00032993
-6.88674e-10
0.000329931
-6.79126e-10
0.000329931
-6.57411e-10
0.000329931
-6.24836e-10
0.000329931
-5.78638e-10
0.000329932
-5.1617e-10
0.000329932
-4.31292e-10
0.000329932
-3.20897e-10
0.000329932
-1.7157e-10
0.000329932
1.59802e-11
0.000329933
2.77623e-10
0.000329933
5.93839e-10
0.000329933
1.05348e-09
0.000329933
1.70872e-09
1.84867e-09
0.000321519
1.04962e-09
0.00032152
5.0321e-10
0.00032152
3.09906e-10
0.00032152
2.2013e-10
0.00032152
1.39523e-10
0.00032152
6.78339e-11
0.00032152
-1.57305e-12
0.000321521
-6.796e-11
0.000321521
-1.30371e-10
0.000321521
-1.88623e-10
0.000321521
-2.42579e-10
0.000321521
-2.92301e-10
0.000321521
-3.37852e-10
0.000321521
-3.79342e-10
0.000321521
-4.16318e-10
0.000321521
-4.48765e-10
0.000321521
-4.73319e-10
0.000321521
-4.91823e-10
0.000321522
-4.8133e-10
0.000321522
-4.45659e-10
0.000321522
-3.69987e-10
0.000321522
-1.87584e-10
0.000321522
1.403e-10
0.000321522
4.09321e-10
0.000321522
4.4197e-10
0.000321522
3.63204e-10
0.000321521
2.74192e-10
0.000321521
1.99656e-10
0.000321521
1.40517e-10
0.000321521
9.35259e-11
0.000321521
5.62043e-11
0.00032152
2.70787e-11
0.00032152
5.17997e-12
0.00032152
-1.01874e-11
0.00032152
-1.95715e-11
0.00032152
-2.34511e-11
0.00032152
-2.22876e-11
0.00032152
-1.65648e-11
0.000321519
-6.81772e-12
0.000321519
6.34511e-12
0.000321519
2.22321e-11
0.000321519
4.00695e-11
0.000321519
5.90223e-11
0.000321519
7.82325e-11
0.000321519
9.68794e-11
0.000321519
1.14252e-10
0.000321519
1.29815e-10
0.000321519
1.43259e-10
0.000321518
1.54502e-10
0.000321518
1.63649e-10
0.000321518
1.70933e-10
0.000321518
1.76664e-10
0.000321518
1.81174e-10
0.000321518
1.84779e-10
0.000321518
1.87759e-10
0.000321518
1.90341e-10
0.000321518
1.92694e-10
0.000321518
1.94936e-10
0.000321518
1.97134e-10
0.000321518
1.99315e-10
0.000321517
2.01469e-10
0.000321517
2.03556e-10
0.000321517
2.05516e-10
0.000321517
2.07267e-10
0.000321517
2.08716e-10
0.000321517
2.09756e-10
0.000321517
2.10275e-10
0.000321517
2.10156e-10
0.000321517
2.0928e-10
0.000321517
2.0753e-10
0.000321517
2.04793e-10
0.000321517
2.00961e-10
0.000321517
1.9594e-10
0.000321517
1.89643e-10
0.000321517
1.82001e-10
0.000321517
1.72958e-10
0.000321517
1.62479e-10
0.000321517
1.50548e-10
0.000321516
1.37168e-10
0.000321516
1.22365e-10
0.000321516
1.06193e-10
0.000321516
8.87289e-11
0.000321516
7.00797e-11
0.000321516
5.03838e-11
0.000321516
2.98125e-11
0.000321516
8.57252e-12
0.000321516
-1.30924e-11
0.000321516
-3.48997e-11
0.000321516
-5.65275e-11
0.000321516
-7.76076e-11
0.000321516
-9.77344e-11
0.000321516
-1.16423e-10
0.000321516
-1.33181e-10
0.000321516
-1.47253e-10
0.000321516
-1.58118e-10
0.000321516
-1.64048e-10
0.000321516
-1.64634e-10
0.000321516
-1.58345e-10
0.000321516
-1.28918e-10
0.000321516
-2.81891e-10
0.000321516
-4.81709e-10
0.000321516
-5.05012e-10
0.000321516
-4.84087e-10
0.000321517
-6.01497e-10
0.000321517
-7.83479e-10
0.000321517
-8.36445e-10
0.000321517
-8.43819e-10
0.000321517
-8.30619e-10
0.000321517
-8.0111e-10
0.000321517
-7.54957e-10
0.000321518
-6.9112e-10
0.000321518
-6.04463e-10
0.000321518
-4.92883e-10
0.000321518
-3.43139e-10
0.000321518
-1.57238e-10
0.000321519
1.01656e-10
0.000321519
4.11075e-10
0.000321519
8.61983e-10
0.000321519
1.50536e-09
1.64693e-09
0.000313285
8.78696e-10
0.000313285
3.3201e-10
0.000313286
1.49445e-10
0.000313286
7.02425e-11
0.000313286
-1.12247e-14
0.000313286
-6.26562e-11
0.000313286
-1.24259e-10
0.000313286
-1.83474e-10
0.000313286
-2.39131e-10
0.000313286
-2.9093e-10
0.000313287
-3.38684e-10
0.000313287
-3.82451e-10
0.000313287
-4.22304e-10
0.000313287
-4.58366e-10
0.000313287
-4.90218e-10
0.000313287
-5.17828e-10
0.000313287
-5.38139e-10
0.000313287
-5.52319e-10
0.000313287
-5.43693e-10
0.000313287
-5.02641e-10
0.000313287
-4.98109e-10
0.000313288
-4.03192e-10
0.000313288
-1.60036e-10
0.000313288
1.27482e-10
0.000313288
3.47006e-10
0.000313288
4.01161e-10
0.000313288
3.70754e-10
0.000313288
3.17578e-10
0.000313288
2.65399e-10
0.000313288
2.20162e-10
0.000313288
1.82485e-10
0.000313287
1.51984e-10
0.000313287
1.28151e-10
0.000313287
1.10514e-10
0.000313287
9.86403e-11
0.000313287
9.21137e-11
0.000313287
9.05073e-11
0.000313287
9.33612e-11
0.000313287
1.00161e-10
0.000313287
1.10322e-10
0.000313286
1.23179e-10
0.000313286
1.37995e-10
0.000313286
1.53973e-10
0.000313286
1.70301e-10
0.000313286
1.86201e-10
0.000313286
2.00999e-10
0.000313286
2.14185e-10
0.000313286
2.25457e-10
0.000313286
2.34722e-10
0.000313286
2.42063e-10
0.000313286
2.47688e-10
0.000313286
2.51876e-10
0.000313285
2.54933e-10
0.000313285
2.57153e-10
0.000313285
2.58796e-10
0.000313285
2.60078e-10
0.000313285
2.6116e-10
0.000313285
2.62155e-10
0.000313285
2.6313e-10
0.000313285
2.64111e-10
0.000313285
2.65088e-10
0.000313285
2.66025e-10
0.000313285
2.6686e-10
0.000313285
2.67513e-10
0.000313285
2.67892e-10
0.000313285
2.6789e-10
0.000313285
2.67394e-10
0.000313284
2.66286e-10
0.000313284
2.64446e-10
0.000313284
2.61755e-10
0.000313284
2.58098e-10
0.000313284
2.53367e-10
0.000313284
2.47463e-10
0.000313284
2.40298e-10
0.000313284
2.318e-10
0.000313284
2.21913e-10
0.000313284
2.10598e-10
0.000313284
1.97835e-10
0.000313284
1.83625e-10
0.000313284
1.67993e-10
0.000313284
1.50985e-10
0.000313284
1.32677e-10
0.000313284
1.13171e-10
0.000313284
9.25999e-11
0.000313284
7.11311e-11
0.000313284
4.89657e-11
0.000313284
2.6341e-11
0.000313284
3.53284e-12
0.000313284
-1.9145e-11
0.000313283
-4.13352e-11
0.000313283
-6.26435e-11
0.000313283
-8.2607e-11
0.000313283
-1.0075e-10
0.000313283
-1.16402e-10
0.000313283
-1.29032e-10
0.000313283
-1.37515e-10
0.000313283
-1.40848e-10
0.000313283
-1.43135e-10
0.000313283
-1.26252e-10
0.000313283
-2.57784e-10
0.000313283
-4.55644e-10
0.000313283
-5.23798e-10
0.000313283
-5.39878e-10
0.000313283
-6.45149e-10
0.000313283
-8.00746e-10
0.000313283
-8.68042e-10
0.000313283
-8.98775e-10
0.000313283
-9.059e-10
0.000313284
-8.91636e-10
0.000313284
-8.56369e-10
0.000313284
-8.00294e-10
0.000313284
-7.19406e-10
0.000313284
-6.12898e-10
0.000313284
-4.68046e-10
0.000313284
-2.88415e-10
0.000313284
-3.65835e-11
0.000313285
2.61908e-10
0.000313285
6.99725e-10
0.000313285
1.32559e-09
1.46837e-09
0.000305227
7.34902e-10
0.000305227
1.85462e-10
0.000305227
8.22724e-12
0.000305227
-6.42986e-11
0.000305228
-1.2583e-10
0.000305228
-1.79945e-10
0.000305228
-2.33901e-10
0.000305228
-2.86081e-10
0.000305228
-3.35188e-10
0.000305228
-3.80793e-10
0.000305228
-4.22641e-10
0.000305228
-4.60769e-10
0.000305228
-4.95252e-10
0.000305228
-5.26217e-10
0.000305228
-5.53294e-10
0.000305229
-5.76419e-10
0.000305229
-5.9301e-10
0.000305229
-6.03325e-10
0.000305229
-5.97619e-10
0.000305229
-5.55353e-10
0.000305229
-5.89214e-10
0.000305229
-5.69791e-10
0.000305229
-4.36079e-10
0.00030523
-2.15955e-10
0.00030523
8.06586e-11
0.00030523
2.5771e-10
0.00030523
3.19837e-10
0.00030523
3.21561e-10
0.00030523
3.00096e-10
0.00030523
2.72773e-10
0.00030523
2.46253e-10
0.00030523
2.23024e-10
0.00030523
2.04007e-10
0.00030523
1.89517e-10
0.00030523
1.79594e-10
0.00030523
1.74122e-10
0.000305229
1.72883e-10
0.000305229
1.75563e-10
0.000305229
1.8176e-10
0.000305229
1.90982e-10
0.000305229
2.02646e-10
0.000305229
2.16084e-10
0.000305229
2.30573e-10
0.000305229
2.45363e-10
0.000305229
2.59738e-10
0.000305229
2.73074e-10
0.000305229
2.84896e-10
0.000305229
2.9492e-10
0.000305229
3.03053e-10
0.000305228
3.09369e-10
0.000305228
3.14055e-10
0.000305228
3.1737e-10
0.000305228
3.19599e-10
0.000305228
3.21018e-10
0.000305228
3.21876e-10
0.000305228
3.22376e-10
0.000305228
3.22678e-10
0.000305228
3.2289e-10
0.000305228
3.2308e-10
0.000305228
3.23274e-10
0.000305228
3.23467e-10
0.000305228
3.23623e-10
0.000305228
3.23683e-10
0.000305228
3.2357e-10
0.000305228
3.2319e-10
0.000305228
3.2244e-10
0.000305227
3.21205e-10
0.000305227
3.19368e-10
0.000305227
3.16809e-10
0.000305227
3.13407e-10
0.000305227
3.09046e-10
0.000305227
3.03616e-10
0.000305227
2.97016e-10
0.000305227
2.89159e-10
0.000305227
2.79969e-10
0.000305227
2.69388e-10
0.000305227
2.57376e-10
0.000305227
2.4391e-10
0.000305227
2.2899e-10
0.000305227
2.12637e-10
0.000305227
1.94894e-10
0.000305227
1.75833e-10
0.000305227
1.55553e-10
0.000305227
1.34183e-10
0.000305227
1.11886e-10
0.000305227
8.88575e-11
0.000305227
6.53301e-11
0.000305227
4.15729e-11
0.000305226
1.78924e-11
0.000305226
-5.36397e-12
0.000305226
-2.78132e-11
0.000305226
-4.9014e-11
0.000305226
-6.85081e-11
0.000305226
-8.57051e-11
0.000305226
-1.00077e-10
0.000305226
-1.11008e-10
0.000305226
-1.17194e-10
0.000305226
-1.25542e-10
0.000305226
-1.20815e-10
0.000305226
-2.23998e-10
0.000305226
-3.87473e-10
0.000305226
-4.71508e-10
0.000305226
-5.20504e-10
0.000305226
-6.26031e-10
0.000305226
-7.59626e-10
0.000305226
-8.28583e-10
0.000305226
-8.74241e-10
0.000305226
-9.00629e-10
0.000305226
-9.05164e-10
0.000305226
-8.86318e-10
0.000305226
-8.44017e-10
0.000305226
-7.74663e-10
0.000305226
-6.78478e-10
0.000305226
-5.43272e-10
0.000305226
-3.74216e-10
0.000305226
-1.33587e-10
0.000305226
1.49986e-10
0.000305227
5.70498e-10
0.000305227
1.17351e-09
1.31559e-09
0.000297341
6.17782e-10
0.000297341
6.53438e-11
0.000297341
-1.10166e-10
0.000297341
-1.7993e-10
0.000297341
-2.3528e-10
0.000297342
-2.82235e-10
0.000297342
-3.2923e-10
0.000297342
-3.74789e-10
0.000297342
-4.17685e-10
0.000297342
-4.57428e-10
0.000297342
-4.93712e-10
0.000297342
-5.2655e-10
0.000297342
-5.56021e-10
0.000297342
-5.82249e-10
0.000297342
-6.04925e-10
0.000297342
-6.23938e-10
0.000297342
-6.37275e-10
0.000297342
-6.44279e-10
0.000297342
-6.41351e-10
0.000297342
-6.01621e-10
0.000297342
-6.51674e-10
0.000297343
-6.83247e-10
0.000297343
-6.41664e-10
0.000297343
-5.15115e-10
0.000297343
-2.30976e-10
0.000297344
1.04367e-11
0.000297344
1.53923e-10
0.000297344
2.21502e-10
0.000297344
2.45828e-10
0.000297344
2.49488e-10
0.000297344
2.44455e-10
0.000297344
2.36656e-10
0.000297344
2.29029e-10
0.000297344
2.23087e-10
0.000297344
2.19626e-10
0.000297344
2.19035e-10
0.000297344
2.21447e-10
0.000297344
2.26808e-10
0.000297344
2.34913e-10
0.000297344
2.45424e-10
0.000297344
2.57886e-10
0.000297343
2.71744e-10
0.000297343
2.8637e-10
0.000297343
3.01103e-10
0.000297343
3.15303e-10
0.000297343
3.28411e-10
0.000297343
3.39997e-10
0.000297343
3.49806e-10
0.000297343
3.57758e-10
0.000297343
3.63924e-10
0.000297343
3.68481e-10
0.000297343
3.71675e-10
0.000297343
3.73778e-10
0.000297343
3.75054e-10
0.000297343
3.75742e-10
0.000297343
3.76042e-10
0.000297343
3.76109e-10
0.000297343
3.76053e-10
0.000297343
3.75944e-10
0.000297343
3.75811e-10
0.000297342
3.75652e-10
0.000297342
3.75434e-10
0.000297342
3.75103e-10
0.000297342
3.74584e-10
0.000297342
3.73785e-10
0.000297342
3.72605e-10
0.000297342
3.70931e-10
0.000297342
3.68646e-10
0.000297342
3.6563e-10
0.000297342
3.61762e-10
0.000297342
3.56926e-10
0.000297342
3.51011e-10
0.000297342
3.43916e-10
0.000297342
3.35551e-10
0.000297342
3.25841e-10
0.000297342
3.14727e-10
0.000297342
3.02165e-10
0.000297342
2.88135e-10
0.000297342
2.72631e-10
0.000297342
2.55672e-10
0.000297342
2.37302e-10
0.000297341
2.17587e-10
0.000297341
1.96623e-10
0.000297341
1.74538e-10
0.000297341
1.51489e-10
0.000297341
1.27668e-10
0.000297341
1.03304e-10
0.000297341
7.86582e-11
0.000297341
5.40322e-11
0.000297341
2.97637e-11
0.000297341
6.22543e-12
0.000297341
-1.61626e-11
0.000297341
-3.6958e-11
0.000297341
-5.5649e-11
0.000297341
-7.17128e-11
0.000297341
-8.49469e-11
0.000297341
-9.39646e-11
0.000297341
-1.0669e-10
0.000297341
-1.11927e-10
0.000297341
-1.93966e-10
0.000297341
-3.19554e-10
0.000297341
-3.96875e-10
0.000297341
-4.60537e-10
0.000297341
-5.66919e-10
0.000297341
-6.85348e-10
0.00029734
-7.5043e-10
0.00029734
-8.01381e-10
0.00029734
-8.39894e-10
0.00029734
-8.60082e-10
0.00029734
-8.57638e-10
0.00029734
-8.30997e-10
0.00029734
-7.76023e-10
0.00029734
-6.93368e-10
0.00029734
-5.71119e-10
0.00029734
-4.15899e-10
0.00029734
-1.89838e-10
0.00029734
7.5459e-11
0.000297341
4.74948e-10
0.000297341
1.05036e-09
1.18878e-09
0.000289623
5.2497e-10
0.000289623
-2.95418e-11
0.000289623
-2.05171e-10
0.000289624
-2.75166e-10
0.000289624
-3.269e-10
0.000289624
-3.68489e-10
0.000289624
-4.0962e-10
0.000289624
-4.49249e-10
0.000289624
-4.86433e-10
0.000289624
-5.20728e-10
0.000289624
-5.5183e-10
0.000289624
-5.79751e-10
0.000289624
-6.04575e-10
0.000289624
-6.26428e-10
0.000289624
-6.45069e-10
0.000289624
-6.60343e-10
0.000289624
-6.70822e-10
0.000289624
-6.75077e-10
0.000289624
-6.74333e-10
0.000289624
-6.39442e-10
0.000289624
-6.93732e-10
0.000289625
-7.54339e-10
0.000289625
-7.76954e-10
0.000289625
-7.35567e-10
0.000289625
-5.10103e-10
0.000289625
-2.62492e-10
0.000289626
-7.24964e-11
0.000289626
4.96661e-11
0.000289626
1.20981e-10
0.000289626
1.61088e-10
0.000289626
1.83662e-10
0.000289626
1.96947e-10
0.000289626
2.0568e-10
0.000289626
2.12615e-10
0.000289626
2.19392e-10
0.000289626
2.26993e-10
0.000289626
2.35983e-10
0.000289626
2.4663e-10
0.000289626
2.58978e-10
0.000289626
2.72887e-10
0.000289626
2.88062e-10
0.000289626
3.04085e-10
0.000289626
3.20448e-10
0.000289626
3.36592e-10
0.000289626
3.51968e-10
0.000289626
3.66089e-10
0.000289626
3.78583e-10
0.000289626
3.89233e-10
0.000289626
3.97977e-10
0.000289626
4.04892e-10
0.000289626
4.10156e-10
0.000289626
4.14009e-10
0.000289626
4.16712e-10
0.000289626
4.18526e-10
0.000289626
4.19684e-10
0.000289625
4.20385e-10
0.000289625
4.20784e-10
0.000289625
4.20995e-10
0.000289625
4.21091e-10
0.000289625
4.21106e-10
0.000289625
4.21042e-10
0.000289625
4.20872e-10
0.000289625
4.20546e-10
0.000289625
4.19992e-10
0.000289625
4.19123e-10
0.000289625
4.1784e-10
0.000289625
4.16033e-10
0.000289625
4.13586e-10
0.000289625
4.1038e-10
0.000289625
4.06297e-10
0.000289625
4.01219e-10
0.000289625
3.95036e-10
0.000289625
3.87647e-10
0.000289625
3.78962e-10
0.000289625
3.68907e-10
0.000289625
3.5742e-10
0.000289625
3.44461e-10
0.000289624
3.30003e-10
0.000289624
3.14043e-10
0.000289624
2.96599e-10
0.000289624
2.7771e-10
0.000289624
2.57443e-10
0.000289624
2.3589e-10
0.000289624
2.13176e-10
0.000289624
1.89456e-10
0.000289624
1.64918e-10
0.000289624
1.39787e-10
0.000289624
1.1432e-10
0.000289624
8.88125e-11
0.000289624
6.35935e-11
0.000289624
3.90267e-11
0.000289624
1.55115e-11
0.000289624
-6.52438e-12
0.000289624
-2.66419e-11
0.000289624
-4.43298e-11
0.000289624
-5.97016e-11
0.000289624
-7.14215e-11
0.000289624
-8.74961e-11
0.000289624
-1.00118e-10
0.000289624
-1.68682e-10
0.000289624
-2.64135e-10
0.000289624
-3.25781e-10
0.000289624
-3.88476e-10
0.000289624
-4.89788e-10
0.000289623
-5.95876e-10
0.000289623
-6.55095e-10
0.000289623
-7.0465e-10
0.000289623
-7.47506e-10
0.000289623
-7.77159e-10
0.000289623
-7.87328e-10
0.000289623
-7.74699e-10
0.000289623
-7.33997e-10
0.000289623
-6.65737e-10
0.000289623
-5.57935e-10
0.000289623
-4.18374e-10
0.000289623
-2.09111e-10
0.000289623
3.55176e-11
0.000289623
4.11026e-10
0.000289623
9.5488e-10
1.08629e-09
0.00028207
4.52906e-10
0.00028207
-1.0223e-10
0.00028207
-2.78545e-10
0.00028207
-3.50609e-10
0.000282071
-4.00754e-10
0.000282071
-4.38715e-10
0.000282071
-4.75228e-10
0.000282071
-5.09784e-10
0.000282071
-5.4187e-10
0.000282071
-5.71196e-10
0.000282071
-5.97525e-10
0.000282071
-6.20901e-10
0.000282071
-6.41433e-10
0.000282071
-6.59255e-10
0.000282071
-6.74203e-10
0.000282071
-6.86082e-10
0.000282071
-6.94027e-10
0.000282071
-6.96034e-10
0.000282071
-6.96811e-10
0.000282071
-6.67688e-10
0.000282071
-7.20798e-10
0.000282071
-7.95011e-10
0.000282071
-8.56663e-10
0.000282071
-8.78951e-10
0.000282072
-7.24298e-10
0.000282072
-5.08448e-10
0.000282072
-3.08597e-10
0.000282072
-1.54714e-10
0.000282073
-4.67219e-11
0.000282073
2.69256e-11
0.000282073
7.76729e-11
0.000282073
1.14001e-10
0.000282073
1.41522e-10
0.000282073
1.63842e-10
0.000282073
1.83294e-10
0.000282073
2.01396e-10
0.000282073
2.19127e-10
0.000282073
2.37077e-10
0.000282073
2.55546e-10
0.000282073
2.74601e-10
0.000282073
2.94121e-10
0.000282073
3.13831e-10
0.000282073
3.33349e-10
0.000282073
3.52228e-10
0.000282073
3.70013e-10
0.000282073
3.86295e-10
0.000282073
4.00765e-10
0.000282073
4.13246e-10
0.000282073
4.23704e-10
0.000282073
4.32228e-10
0.000282073
4.39001e-10
0.000282073
4.44259e-10
0.000282073
4.48266e-10
0.000282073
4.51277e-10
0.000282073
4.53526e-10
0.000282073
4.55214e-10
0.000282073
4.56498e-10
0.000282073
4.57498e-10
0.000282073
4.58291e-10
0.000282073
4.58918e-10
0.000282072
4.59387e-10
0.000282072
4.59677e-10
0.000282072
4.59742e-10
0.000282072
4.59516e-10
0.000282072
4.58918e-10
0.000282072
4.5785e-10
0.000282072
4.56208e-10
0.000282072
4.53877e-10
0.000282072
4.50743e-10
0.000282072
4.46686e-10
0.000282072
4.41592e-10
0.000282072
4.35351e-10
0.000282072
4.27864e-10
0.000282072
4.19042e-10
0.000282072
4.0881e-10
0.000282072
3.97108e-10
0.000282072
3.83894e-10
0.000282072
3.69145e-10
0.000282072
3.52854e-10
0.000282072
3.3504e-10
0.000282072
3.1574e-10
0.000282072
2.95019e-10
0.000282072
2.7297e-10
0.000282072
2.49714e-10
0.000282072
2.25404e-10
0.000282072
2.00227e-10
0.000282071
1.74402e-10
0.000282071
1.48184e-10
0.000282071
1.21863e-10
0.000282071
9.576e-11
0.000282071
7.02313e-11
0.000282071
4.56566e-11
0.000282071
2.245e-11
0.000282071
9.84729e-13
0.000282071
-1.82425e-11
0.000282071
-3.5582e-11
0.000282071
-4.98046e-11
0.000282071
-6.85778e-11
0.000282071
-8.64125e-11
0.000282071
-1.46654e-10
0.000282071
-2.21352e-10
0.000282071
-2.67465e-10
0.000282071
-3.21002e-10
0.000282071
-4.11197e-10
0.000282071
-5.04604e-10
0.000282071
-5.56776e-10
0.000282071
-6.01007e-10
0.00028207
-6.42142e-10
0.00028207
-6.74875e-10
0.00028207
-6.92309e-10
0.00028207
-6.89885e-10
0.00028207
-6.61131e-10
0.00028207
-6.06109e-10
0.00028207
-5.12501e-10
0.00028207
-3.88944e-10
0.00028207
-1.97467e-10
0.00028207
2.51895e-11
0.00028207
3.74649e-10
0.00028207
8.83902e-10
1.00505e-09
0.000274679
3.97296e-10
0.000274679
-1.5676e-10
0.000274679
-3.33526e-10
0.000274679
-4.08482e-10
0.000274679
-4.58313e-10
0.000274679
-4.94014e-10
0.000274679
-5.2704e-10
0.000274679
-5.57381e-10
0.000274679
-5.85011e-10
0.000274679
-6.09862e-10
0.000274679
-6.31825e-10
0.000274679
-6.51012e-10
0.000274679
-6.67578e-10
0.000274679
-6.81675e-10
0.000274679
-6.93228e-10
0.000274679
-7.02013e-10
0.000274679
-7.07675e-10
0.000274679
-7.07838e-10
0.000274679
-7.09552e-10
0.000274679
-6.86172e-10
0.000274679
-7.36113e-10
0.000274679
-8.14488e-10
0.000274679
-8.96641e-10
0.000274679
-9.60172e-10
0.000274679
-8.69517e-10
0.00027468
-7.02199e-10
0.00027468
-5.19383e-10
0.00027468
-3.57569e-10
0.00027468
-2.28809e-10
0.00027468
-1.30578e-10
0.000274681
-5.60651e-11
0.000274681
1.50732e-12
0.000274681
4.74345e-11
0.000274681
8.55289e-11
0.000274681
1.18466e-10
0.000274681
1.48109e-10
0.000274681
1.7574e-10
0.000274681
2.0221e-10
0.000274681
2.28033e-10
0.000274681
2.5346e-10
0.000274681
2.78524e-10
0.000274681
3.03086e-10
0.000274681
3.26881e-10
0.000274681
3.49568e-10
0.000274681
3.70784e-10
0.000274681
3.90196e-10
0.000274681
4.07555e-10
0.000274681
4.22728e-10
0.000274681
4.35709e-10
0.000274681
4.46601e-10
0.000274681
4.55596e-10
0.000274681
4.62933e-10
0.000274681
4.68875e-10
0.000274681
4.73682e-10
0.000274681
4.77588e-10
0.000274681
4.80797e-10
0.000274681
4.83474e-10
0.000274681
4.85742e-10
0.000274681
4.87686e-10
0.000274681
4.89355e-10
0.000274681
4.90762e-10
0.000274681
4.91893e-10
0.000274681
4.92708e-10
0.000274681
4.93148e-10
0.000274681
4.93135e-10
0.000274681
4.92579e-10
0.000274681
4.91378e-10
0.000274681
4.89423e-10
0.000274681
4.866e-10
0.00027468
4.82794e-10
0.00027468
4.77893e-10
0.00027468
4.71789e-10
0.00027468
4.64385e-10
0.00027468
4.55593e-10
0.00027468
4.4534e-10
0.00027468
4.33567e-10
0.00027468
4.20235e-10
0.00027468
4.05318e-10
0.00027468
3.88813e-10
0.00027468
3.70736e-10
0.00027468
3.51125e-10
0.00027468
3.30046e-10
0.00027468
3.07589e-10
0.00027468
2.83874e-10
0.00027468
2.59053e-10
0.00027468
2.33311e-10
0.00027468
2.06865e-10
0.00027468
1.79966e-10
0.00027468
1.52901e-10
0.00027468
1.25985e-10
0.00027468
9.95643e-11
0.00027468
7.40026e-11
0.00027468
4.97017e-11
0.00027468
2.6976e-11
0.00027468
6.30647e-12
0.00027468
-1.2831e-11
0.00027468
-2.93225e-11
0.00027468
-5.03425e-11
0.00027468
-7.18095e-11
0.00027468
-1.26681e-10
0.00027468
-1.88118e-10
0.000274679
-2.22602e-10
0.000274679
-2.6498e-10
0.000274679
-3.40824e-10
0.000274679
-4.20444e-10
0.000274679
-4.6449e-10
0.000274679
-5.01252e-10
0.000274679
-5.36711e-10
0.000274679
-5.67392e-10
0.000274679
-5.86857e-10
0.000274679
-5.90091e-10
0.000274679
-5.6976e-10
0.000274678
-5.25464e-10
0.000274678
-4.44463e-10
0.000274678
-3.36009e-10
0.000274678
-1.62188e-10
0.000274678
3.82314e-11
0.000274678
3.60459e-10
0.000274678
8.32975e-10
9.4096e-10
0.000267445
3.53505e-10
0.000267445
-1.97603e-10
0.000267445
-3.7411e-10
0.000267445
-4.52027e-10
0.000267445
-5.02102e-10
0.000267445
-5.36402e-10
0.000267445
-5.66784e-10
0.000267445
-5.93627e-10
0.000267445
-6.17371e-10
0.000267445
-6.38199e-10
0.000267445
-6.56162e-10
0.000267445
-6.71471e-10
0.000267445
-6.84349e-10
0.000267445
-6.9498e-10
0.000267445
-7.0338e-10
0.000267445
-7.09313e-10
0.000267445
-7.12872e-10
0.000267445
-7.1148e-10
0.000267445
-7.13656e-10
0.000267445
-6.95456e-10
0.000267445
-7.41776e-10
0.000267445
-8.19097e-10
0.000267445
-9.09596e-10
0.000267445
-9.96027e-10
0.000267445
-9.5515e-10
0.000267445
-8.38195e-10
0.000267445
-6.87006e-10
0.000267446
-5.35665e-10
0.000267446
-4.02079e-10
0.000267446
-2.90782e-10
0.000267446
-2.00048e-10
0.000267446
-1.25917e-10
0.000267446
-6.43796e-11
0.000267446
-1.20879e-11
0.000267447
3.35522e-11
0.000267447
7.44815e-11
0.000267447
1.12115e-10
0.000267447
1.4745e-10
0.000267447
1.81139e-10
0.000267447
2.13559e-10
0.000267447
2.44859e-10
0.000267447
2.75006e-10
0.000267447
3.03833e-10
0.000267447
3.31086e-10
0.000267447
3.56481e-10
0.000267447
3.79754e-10
0.000267447
4.0071e-10
0.000267447
4.19253e-10
0.000267447
4.35403e-10
0.000267447
4.49281e-10
0.000267447
4.61083e-10
0.000267447
4.71056e-10
0.000267447
4.79465e-10
0.000267447
4.86571e-10
0.000267447
4.92614e-10
0.000267447
4.97802e-10
0.000267447
5.02307e-10
0.000267447
5.06259e-10
0.000267447
5.09749e-10
0.000267447
5.12833e-10
0.000267447
5.15531e-10
0.000267447
5.17836e-10
0.000267447
5.19716e-10
0.000267447
5.21116e-10
0.000267447
5.21967e-10
0.000267447
5.22182e-10
0.000267447
5.21665e-10
0.000267447
5.20312e-10
0.000267447
5.18012e-10
0.000267446
5.14655e-10
0.000267446
5.1013e-10
0.000267446
5.04334e-10
0.000267446
4.97171e-10
0.000267446
4.88557e-10
0.000267446
4.7842e-10
0.000267446
4.66705e-10
0.000267446
4.53371e-10
0.000267446
4.38398e-10
0.000267446
4.21781e-10
0.000267446
4.03537e-10
0.000267446
3.83707e-10
0.000267446
3.62354e-10
0.000267446
3.39569e-10
0.000267446
3.15472e-10
0.000267446
2.90214e-10
0.000267446
2.63978e-10
0.000267446
2.3698e-10
0.000267446
2.09471e-10
0.000267446
1.81731e-10
0.000267446
1.5407e-10
0.000267446
1.2683e-10
0.000267446
1.00357e-10
0.000267446
7.50427e-11
0.000267446
5.11495e-11
0.000267446
2.91434e-11
0.000267446
8.37526e-12
0.000267446
-1.01418e-11
0.000267446
-3.30585e-11
0.000267446
-5.70761e-11
0.000267446
-1.08175e-10
0.000267446
-1.61418e-10
0.000267446
-1.88691e-10
0.000267446
-2.21377e-10
0.000267445
-2.82609e-10
0.000267445
-3.48092e-10
0.000267445
-3.83284e-10
0.000267445
-4.11556e-10
0.000267445
-4.39149e-10
0.000267445
-4.64294e-10
0.000267445
-4.81577e-10
0.000267445
-4.8622e-10
0.000267445
-4.70522e-10
0.000267445
-4.33823e-10
0.000267445
-3.63052e-10
0.000267444
-2.67945e-10
0.000267444
-1.10799e-10
0.000267444
6.79723e-11
0.000267444
3.62557e-10
0.000267444
7.97032e-10
8.89398e-10
0.000260365
3.16893e-10
0.000260365
-2.29244e-10
0.000260365
-4.04515e-10
0.000260365
-4.84953e-10
0.000260365
-5.35257e-10
0.000260365
-5.68516e-10
0.000260365
-5.96737e-10
0.000260365
-6.20566e-10
0.000260365
-6.40851e-10
0.000260365
-6.58006e-10
0.000260365
-6.7226e-10
0.000260365
-6.83936e-10
0.000260365
-6.93341e-10
0.000260365
-7.00698e-10
0.000260365
-7.06122e-10
0.000260365
-7.09379e-10
0.000260365
-7.10946e-10
0.000260365
-7.0818e-10
0.000260365
-7.10425e-10
0.000260365
-6.96596e-10
0.000260365
-7.39414e-10
0.000260365
-8.13066e-10
0.000260365
-9.04616e-10
0.000260365
-1.00076e-09
0.000260365
-9.94669e-10
0.000260365
-9.21844e-10
0.000260366
-8.06803e-10
0.000260366
-6.77019e-10
0.000260366
-5.51165e-10
0.000260366
-4.37828e-10
0.000260366
-3.39425e-10
0.000260366
-2.54964e-10
0.000260366
-1.82213e-10
0.000260366
-1.18772e-10
0.000260367
-6.24998e-11
0.000260367
-1.16469e-11
0.000260367
3.5146e-11
0.000260367
7.88824e-11
0.000260367
1.20256e-10
0.000260367
1.59696e-10
0.000260367
1.9741e-10
0.000260367
2.33429e-10
0.000260367
2.67651e-10
0.000260367
2.99886e-10
0.000260367
3.29909e-10
0.000260367
3.57507e-10
0.000260367
3.82527e-10
0.000260367
4.04907e-10
0.000260367
4.24685e-10
0.000260367
4.41993e-10
0.000260367
4.57036e-10
0.000260367
4.70062e-10
0.000260367
4.8134e-10
0.000260367
4.91134e-10
0.000260367
4.99689e-10
0.000260367
5.07217e-10
0.000260367
5.13896e-10
0.000260367
5.19862e-10
0.000260367
5.25215e-10
0.000260367
5.30015e-10
0.000260367
5.34292e-10
0.000260367
5.38044e-10
0.000260367
5.41246e-10
0.000260367
5.4385e-10
0.000260367
5.45792e-10
0.000260367
5.46992e-10
0.000260367
5.4736e-10
0.000260367
5.46795e-10
0.000260367
5.45193e-10
0.000260367
5.42447e-10
0.000260367
5.3845e-10
0.000260367
5.33103e-10
0.000260367
5.26313e-10
0.000260367
5.17998e-10
0.000260367
5.08091e-10
0.000260367
4.96538e-10
0.000260367
4.83302e-10
0.000260367
4.68364e-10
0.000260367
4.51721e-10
0.000260367
4.33393e-10
0.000260367
4.13419e-10
0.000260367
3.91866e-10
0.000260366
3.68823e-10
0.000260366
3.44411e-10
0.000260366
3.18782e-10
0.000260366
2.92117e-10
0.000260366
2.64634e-10
0.000260366
2.36578e-10
0.000260366
2.0823e-10
0.000260366
1.79894e-10
0.000260366
1.51907e-10
0.000260366
1.246e-10
0.000260366
9.83547e-11
0.000260366
7.33902e-11
0.000260366
5.01586e-11
0.000260366
2.79229e-11
0.000260366
7.61915e-12
0.000260366
-1.68985e-11
0.000260366
-4.2737e-11
0.000260366
-9.09407e-11
0.000260366
-1.39111e-10
0.000260366
-1.62746e-10
0.000260366
-1.88479e-10
0.000260366
-2.36804e-10
0.000260366
-2.88947e-10
0.000260366
-3.15194e-10
0.000260366
-3.34752e-10
0.000260366
-3.53583e-10
0.000260366
-3.71215e-10
0.000260365
-3.83413e-10
0.000260365
-3.86084e-10
0.000260365
-3.71624e-10
0.000260365
-3.39401e-10
0.000260365
-2.76226e-10
0.000260365
-1.92276e-10
0.000260365
-5.0302e-11
0.000260365
1.08008e-10
0.000260365
3.75128e-10
0.000260365
7.70948e-10
8.45648e-10
0.000253437
2.83119e-10
0.000253437
-2.55888e-10
0.000253437
-4.28799e-10
0.000253437
-5.11006e-10
0.000253437
-5.61118e-10
0.000253437
-5.93285e-10
0.000253437
-6.19482e-10
0.000253437
-6.40524e-10
0.000253437
-6.57588e-10
0.000253437
-6.71289e-10
0.000253437
-6.8202e-10
0.000253437
-6.90224e-10
0.000253437
-6.96292e-10
0.000253437
-7.00498e-10
0.000253437
-7.03054e-10
0.000253437
-7.03738e-10
0.000253437
-7.03355e-10
0.000253437
-6.99293e-10
0.000253437
-7.01274e-10
0.000253437
-6.90934e-10
0.000253437
-7.30495e-10
0.000253437
-7.99318e-10
0.000253437
-8.87891e-10
0.000253437
-9.8508e-10
0.000253437
-1.00096e-09
0.000253437
-9.63028e-10
0.000253437
-8.82201e-10
0.000253437
-7.78522e-10
0.000253437
-6.68382e-10
0.000253437
-5.61682e-10
0.000253438
-4.63443e-10
0.000253438
-3.75093e-10
0.000253438
-2.96179e-10
0.000253438
-2.25444e-10
0.000253438
-1.61437e-10
0.000253438
-1.02805e-10
0.000253438
-4.84132e-11
0.000253438
2.61731e-12
0.000253438
5.09164e-11
0.000253438
9.6886e-11
0.000253438
1.40732e-10
0.000253439
1.82499e-10
0.000253439
2.22111e-10
0.000253439
2.59411e-10
0.000253439
2.9421e-10
0.000253439
3.26329e-10
0.000253439
3.55641e-10
0.000253439
3.82103e-10
0.000253439
4.05767e-10
0.000253439
4.26769e-10
0.000253439
4.45318e-10
0.000253439
4.61663e-10
0.000253439
4.76074e-10
0.000253439
4.88816e-10
0.000253439