/*--------------------------------*- C++ -*----------------------------------*\
  =========                 |
  \\      /  F ield         | OpenFOAM: The Open Source CFD Toolbox
   \\    /   O peration     | Website:  https://openfoam.org
    \\  /    A nd           | Version:  7
     \\/     M anipulation  |
\*---------------------------------------------------------------------------*/
FoamFile
{
    version     2.0;
    format      ascii;
    class       volVectorField;
    location    "1500";
    object      U;
}
// * * * * * * * * * * * * * * * * * * * * * * * * * * * * * * * * * * * * * //

dimensions      [0 1 -1 0 0 0 0];

internalField   nonuniform List<vector> 
3963
(
(0.148297 1.20522e-06 2.52396e-15)
(0.148297 1.02199e-06 2.49084e-15)
(0.148297 8.40553e-07 2.4398e-15)
(0.148297 7.05329e-07 2.42376e-15)
(0.148297 5.86722e-07 2.37642e-15)
(0.148297 4.8659e-07 2.41994e-15)
(0.148297 4.02176e-07 2.40938e-15)
(0.148297 3.29856e-07 2.44681e-15)
(0.148297 2.67983e-07 2.42412e-15)
(0.148297 2.15195e-07 2.42449e-15)
(0.148297 1.70422e-07 2.40177e-15)
(0.148297 1.32852e-07 2.33556e-15)
(0.148297 1.01812e-07 2.3039e-15)
(0.148297 7.67187e-08 2.25215e-15)
(0.148297 5.70764e-08 2.21317e-15)
(0.148297 4.24249e-08 2.22629e-15)
(0.148297 3.2458e-08 2.20976e-15)
(0.148297 2.67261e-08 2.20343e-15)
(0.148296 2.55435e-08 2.15905e-15)
(0.148296 2.88602e-08 2.13683e-15)
(0.148296 3.40279e-08 2.10894e-15)
(0.148297 4.17199e-08 2.36458e-15)
(0.148297 6.90422e-08 2.56964e-15)
(0.148297 9.51598e-08 2.44157e-15)
(0.148297 1.23955e-07 2.40382e-15)
(0.148297 1.5514e-07 2.49877e-15)
(0.148297 1.89196e-07 2.35787e-15)
(0.148297 2.2686e-07 2.53774e-15)
(0.148297 2.69797e-07 2.62462e-15)
(0.148297 3.18927e-07 2.57847e-15)
(0.148297 3.77721e-07 2.65021e-15)
(0.148297 4.45943e-07 2.49452e-15)
(0.148297 5.32528e-07 2.65734e-15)
(0.148297 6.30755e-07 2.72968e-15)
(0.148297 7.67311e-07 2.67465e-15)
(0.148297 9.13348e-07 2.71835e-15)
(0.148297 1.12413e-06 2.55635e-15)
(0.148084 1.21408e-06 2.33518e-15)
(0.148084 1.02779e-06 2.32245e-15)
(0.148084 8.46683e-07 2.31235e-15)
(0.148084 7.12026e-07 2.29539e-15)
(0.148084 5.93997e-07 2.31137e-15)
(0.148084 4.94886e-07 2.32174e-15)
(0.148084 4.11516e-07 2.27432e-15)
(0.148084 3.4019e-07 2.27332e-15)
(0.148084 2.79257e-07 2.23994e-15)
(0.148084 2.27335e-07 2.18565e-15)
(0.148084 1.83353e-07 2.19168e-15)
(0.148084 1.46502e-07 2.13769e-15)
(0.148083 1.16105e-07 2.14024e-15)
(0.148083 9.15706e-08 2.09224e-15)
(0.148083 7.23903e-08 2.05815e-15)
(0.148083 5.80869e-08 2.09596e-15)
(0.148083 4.83303e-08 2.07238e-15)
(0.148083 4.26112e-08 2.08094e-15)
(0.148083 4.12873e-08 2.0291e-15)
(0.148083 4.39593e-08 2.01155e-15)
(0.148083 5.02711e-08 2.09165e-15)
(0.148083 5.792e-08 2.15709e-15)
(0.148083 7.00132e-08 2.16904e-15)
(0.148084 -9.78538e-08 2.31971e-15)
(0.148084 -6.68879e-08 2.22484e-15)
(0.148084 -3.41342e-08 2.16955e-15)
(0.148084 4.30987e-09 2.32259e-15)
(0.148084 3.90253e-08 2.17384e-15)
(0.148084 6.40068e-08 2.34069e-15)
(0.148084 8.98914e-08 2.2432e-15)
(0.148084 1.18724e-07 2.19447e-15)
(0.148084 1.49739e-07 2.32983e-15)
(0.148084 1.83605e-07 2.18997e-15)
(0.148084 2.21108e-07 2.31671e-15)
(0.148084 2.63952e-07 2.43827e-15)
(0.148084 3.12963e-07 2.38889e-15)
(0.148084 3.71781e-07 2.49332e-15)
(0.148084 4.39878e-07 2.33944e-15)
(0.148084 5.2691e-07 2.44445e-15)
(0.148084 6.251e-07 2.54917e-15)
(0.148084 7.63767e-07 2.48498e-15)
(0.148084 9.10742e-07 2.56868e-15)
(0.148084 1.12773e-06 2.39244e-15)
(0.147856 1.22141e-06 2.12717e-15)
(0.147856 1.0317e-06 2.15439e-15)
(0.147856 8.51115e-07 2.18808e-15)
(0.147856 7.17699e-07 2.16484e-15)
(0.147856 6.00788e-07 2.26343e-15)
(0.147856 5.03018e-07 2.19621e-15)
(0.147856 4.20869e-07 2.09645e-15)
(0.147856 3.50647e-07 2.14081e-15)
(0.147856 2.90719e-07 2.04696e-15)
(0.147856 2.39698e-07 1.95226e-15)
(0.147856 1.96525e-07 1.95369e-15)
(0.147856 1.60398e-07 1.92018e-15)
(0.147856 1.30636e-07 1.9463e-15)
(0.147856 1.06647e-07 1.91274e-15)
(0.147856 8.79079e-08 1.89934e-15)
(0.147855 7.39283e-08 2.02037e-15)
(0.147855 6.43415e-08 1.92952e-15)
(0.147855 5.86283e-08 1.94225e-15)
(0.147855 5.69044e-08 1.88218e-15)
(0.147855 5.90789e-08 1.86951e-15)
(0.147855 6.1616e-08 2.17666e-15)
(0.147855 6.72308e-08 2.13892e-15)
(0.147855 8.26085e-08 2.10393e-15)
(0.147855 9.96537e-08 2.2445e-15)
(0.147855 1.12662e-07 2.16975e-15)
(0.147855 1.24095e-07 2.29505e-15)
(0.147855 1.33726e-07 2.44757e-15)
(0.147855 1.43111e-07 2.33944e-15)
(0.147855 1.52594e-07 2.44336e-15)
(0.147855 1.62079e-07 2.36186e-15)
(0.147855 1.7134e-07 2.56386e-15)
(0.147855 1.80168e-07 2.70545e-15)
(0.147855 1.88373e-07 2.53632e-15)
(0.147855 1.95774e-07 2.62608e-15)
(0.147855 2.02205e-07 2.51395e-15)
(0.147855 2.07515e-07 2.65682e-15)
(0.147855 2.11562e-07 2.77151e-15)
(0.147855 2.14208e-07 2.64375e-15)
(0.147855 2.15316e-07 2.80499e-15)
(0.147855 2.14744e-07 2.73841e-15)
(0.147855 2.12344e-07 2.58684e-15)
(0.147855 2.07961e-07 2.43569e-15)
(0.147855 2.01441e-07 2.36106e-15)
(0.147855 1.92647e-07 2.37383e-15)
(0.147855 1.81473e-07 2.28389e-15)
(0.147855 1.67876e-07 2.2286e-15)
(0.147855 1.51885e-07 2.14249e-15)
(0.147855 1.33619e-07 2.10215e-15)
(0.147855 1.13275e-07 2.16284e-15)
(0.147855 9.11058e-08 2.09744e-15)
(0.147856 6.73876e-08 2.04997e-15)
(0.147856 4.23965e-08 1.97802e-15)
(0.147856 1.63868e-08 1.96501e-15)
(0.147856 -1.04223e-08 1.93621e-15)
(0.147856 -3.78521e-08 1.70321e-15)
(0.147856 -6.57648e-08 1.76847e-15)
(0.147856 -9.40585e-08 1.78426e-15)
(0.147856 -1.2266e-07 1.8149e-15)
(0.147856 -1.51517e-07 1.80739e-15)
(0.147856 -1.80586e-07 1.60765e-15)
(0.147856 -2.09825e-07 1.6958e-15)
(0.147857 -2.39183e-07 1.70844e-15)
(0.147857 -2.68595e-07 1.7401e-15)
(0.147857 -2.97974e-07 1.74789e-15)
(0.147857 -3.27207e-07 1.65991e-15)
(0.147857 -3.56156e-07 1.71717e-15)
(0.147857 -3.84652e-07 1.7285e-15)
(0.147857 -4.12501e-07 1.7672e-15)
(0.147857 -4.39484e-07 1.76928e-15)
(0.147857 -4.65365e-07 1.65741e-15)
(0.147857 -4.89891e-07 1.70179e-15)
(0.147857 -5.12802e-07 1.71747e-15)
(0.147857 -5.33838e-07 1.75718e-15)
(0.147857 -5.52745e-07 1.76344e-15)
(0.147857 -5.69282e-07 1.51375e-15)
(0.147857 -5.83228e-07 1.67328e-15)
(0.147857 -5.94391e-07 1.70381e-15)
(0.147857 -6.02606e-07 1.74487e-15)
(0.147857 -6.07749e-07 1.75157e-15)
(0.147857 -6.09729e-07 1.64754e-15)
(0.147857 -6.085e-07 1.78311e-15)
(0.147857 -6.04055e-07 1.71221e-15)
(0.147857 -5.96426e-07 1.74063e-15)
(0.147857 -5.85684e-07 1.86236e-15)
(0.147857 -5.71934e-07 1.75167e-15)
(0.147857 -5.55311e-07 1.8687e-15)
(0.147857 -5.35979e-07 1.79727e-15)
(0.147857 -5.14119e-07 1.8157e-15)
(0.147857 -4.89931e-07 1.9419e-15)
(0.147857 -4.63625e-07 1.76886e-15)
(0.147857 -4.35415e-07 1.93981e-15)
(0.147856 -4.05518e-07 1.81825e-15)
(0.147856 -3.74148e-07 1.90332e-15)
(0.147856 -3.41509e-07 2.01851e-15)
(0.147856 -3.07808e-07 1.90629e-15)
(0.147856 -2.73174e-07 2.00932e-15)
(0.147856 -2.37868e-07 1.90639e-15)
(0.147856 -2.0161e-07 1.91292e-15)
(0.147856 -1.64246e-07 2.03526e-15)
(0.147856 -1.2662e-07 1.91871e-15)
(0.147856 -9.35505e-08 2.03231e-15)
(0.147856 -6.40175e-08 1.90376e-15)
(0.147856 -3.20259e-08 1.9726e-15)
(0.147856 2.85331e-09 2.0674e-15)
(0.147856 3.54261e-08 1.88137e-15)
(0.147856 6.26484e-08 2.04746e-15)
(0.147856 8.9141e-08 1.91646e-15)
(0.147856 1.17188e-07 1.99004e-15)
(0.147856 1.47277e-07 2.0819e-15)
(0.147856 1.80417e-07 1.9598e-15)
(0.147856 2.17355e-07 2.04018e-15)
(0.147856 2.59778e-07 2.14934e-15)
(0.147856 3.08381e-07 2.16716e-15)
(0.147856 3.66947e-07 2.23165e-15)
(0.147856 4.34623e-07 2.096e-15)
(0.147856 5.21775e-07 2.16257e-15)
(0.147856 6.19509e-07 2.2517e-15)
(0.147856 7.59795e-07 2.25548e-15)
(0.147856 9.06977e-07 2.30528e-15)
(0.147856 1.12988e-06 2.08319e-15)
(0.147613 1.22762e-06 1.94682e-15)
(0.147613 1.03387e-06 1.99831e-15)
(0.147613 8.54178e-07 2.08738e-15)
(0.147613 7.22429e-07 2.03074e-15)
(0.147613 6.07065e-07 2.11591e-15)
(0.147613 5.10955e-07 2.02315e-15)
(0.147613 4.30227e-07 1.87524e-15)
(0.147613 3.61235e-07 1.88079e-15)
(0.147613 3.02389e-07 1.82805e-15)
(0.147613 2.52315e-07 1.69944e-15)
(0.147613 2.09978e-07 1.73953e-15)
(0.147613 1.74588e-07 1.60546e-15)
(0.147613 1.45468e-07 1.78001e-15)
(0.147613 1.22021e-07 1.70651e-15)
(0.147612 1.03713e-07 1.75761e-15)
(0.147612 9.00463e-08 1.86272e-15)
(0.147612 8.06044e-08 1.70408e-15)
(0.147612 7.49008e-08 1.8284e-15)
(0.147612 7.26276e-08 1.65368e-15)
(0.147612 7.44927e-08 1.74964e-15)
(0.147612 7.24235e-08 2.07087e-15)
(0.147612 7.25067e-08 2.0898e-15)
(0.147612 8.21472e-08 2.03452e-15)
(0.147612 9.80934e-08 2.25621e-15)
(0.147612 1.17987e-07 2.07289e-15)
(0.147612 1.336e-07 2.26369e-15)
(0.147612 1.4474e-07 2.42605e-15)
(0.147612 1.54089e-07 2.3162e-15)
(0.147612 1.62761e-07 2.47865e-15)
(0.147612 1.71064e-07 2.28032e-15)
(0.147612 1.7894e-07 2.54238e-15)
(0.147612 1.86236e-07 2.70873e-15)
(0.147612 1.92793e-07 2.51605e-15)
(0.147612 1.98451e-07 2.66454e-15)
(0.147612 2.03063e-07 2.46231e-15)
(0.147612 2.06495e-07 2.65352e-15)
(0.147612 2.08623e-07 2.81013e-15)
(0.147612 2.09331e-07 2.63704e-15)
(0.147612 2.08502e-07 2.73086e-15)
(0.147612 2.06019e-07 2.65486e-15)
(0.147612 2.01757e-07 2.52678e-15)
(0.147612 1.9559e-07 2.41754e-15)
(0.147612 1.87391e-07 2.34171e-15)
(0.147612 1.77049e-07 2.23931e-15)
(0.147612 1.64485e-07 2.19098e-15)
(0.147612 1.49673e-07 2.16304e-15)
(0.147612 1.32655e-07 2.10763e-15)
(0.147612 1.13549e-07 2.06026e-15)
(0.147613 9.25472e-08 2.0231e-15)
(0.147613 6.98881e-08 1.99711e-15)
(0.147613 4.58328e-08 1.97019e-15)
(0.147613 2.06412e-08 1.92638e-15)
(0.147613 -5.44715e-09 1.8992e-15)
(0.147613 -3.22254e-08 1.88026e-15)
(0.147613 -5.95248e-08 1.73511e-15)
(0.147613 -8.72145e-08 1.71114e-15)
(0.147613 -1.15198e-07 1.72949e-15)
(0.147613 -1.43405e-07 1.74652e-15)
(0.147614 -1.71783e-07 1.7519e-15)
(0.147614 -2.0029e-07 1.64458e-15)
(0.147614 -2.28882e-07 1.64133e-15)
(0.147614 -2.57507e-07 1.6602e-15)
(0.147614 -2.86098e-07 1.68236e-15)
(0.147614 -3.14566e-07 1.70403e-15)
(0.147614 -3.42797e-07 1.64847e-15)
(0.147614 -3.70652e-07 1.66019e-15)
(0.147614 -3.97963e-07 1.68422e-15)
(0.147614 -4.24538e-07 1.71159e-15)
(0.147614 -4.50163e-07 1.72704e-15)
(0.147614 -4.74606e-07 1.64772e-15)
(0.147614 -4.97624e-07 1.6528e-15)
(0.147614 -5.18966e-07 1.67643e-15)
(0.147614 -5.38384e-07 1.70297e-15)
(0.147614 -5.55639e-07 1.7195e-15)
(0.147614 -5.70506e-07 1.61614e-15)
(0.147614 -5.82783e-07 1.62882e-15)
(0.147614 -5.92294e-07 1.65867e-15)
(0.147614 -5.98898e-07 1.6886e-15)
(0.147614 -6.02486e-07 1.70841e-15)
(0.147614 -6.02992e-07 1.64469e-15)
(0.147614 -6.00386e-07 1.67695e-15)
(0.147614 -5.94681e-07 1.64661e-15)
(0.147614 -5.85925e-07 1.65691e-15)
(0.147614 -5.74202e-07 1.72318e-15)
(0.147614 -5.59632e-07 1.66464e-15)
(0.147614 -5.42357e-07 1.7167e-15)
(0.147614 -5.22548e-07 1.68798e-15)
(0.147614 -5.00389e-07 1.69718e-15)
(0.147614 -4.76079e-07 1.7697e-15)
(0.147614 -4.49826e-07 1.71027e-15)
(0.147614 -4.21835e-07 1.76595e-15)
(0.147614 -3.92314e-07 1.74925e-15)
(0.147614 -3.61462e-07 1.76485e-15)
(0.147614 -3.29466e-07 1.82904e-15)
(0.147613 -2.96505e-07 1.78213e-15)
(0.147613 -2.62693e-07 1.8135e-15)
(0.147613 -2.28206e-07 1.75995e-15)
(0.147613 -1.92919e-07 1.77318e-15)
(0.147613 -1.56334e-07 1.8408e-15)
(0.147613 -1.21222e-07 1.78708e-15)
(0.147613 -8.81738e-08 1.8377e-15)
(0.147613 -5.62452e-08 1.82062e-15)
(0.147613 -2.56563e-08 1.81257e-15)
(0.147613 7.58048e-09 1.86186e-15)
(0.147613 3.99064e-08 1.79889e-15)
(0.147613 6.70333e-08 1.84656e-15)
(0.147613 9.27877e-08 1.82436e-15)
(0.147613 1.19638e-07 1.82564e-15)
(0.147613 1.48463e-07 1.87758e-15)
(0.147613 1.80466e-07 1.82397e-15)
(0.147613 2.16421e-07 1.84744e-15)
(0.147613 2.58039e-07 1.9122e-15)
(0.147613 3.05877e-07 1.94639e-15)
(0.147613 3.63853e-07 1.99195e-15)
(0.147613 4.30756e-07 1.93696e-15)
(0.147613 5.17644e-07 1.94577e-15)
(0.147613 6.14455e-07 1.99668e-15)
(0.147613 7.55823e-07 2.02134e-15)
(0.147613 9.02459e-07 2.05624e-15)
(0.147613 1.13122e-06 1.97066e-15)
(0.147354 1.23254e-06 1.76013e-15)
(0.147354 1.03501e-06 1.8792e-15)
(0.147354 8.56523e-07 1.99509e-15)
(0.147354 7.26598e-07 1.87025e-15)
(0.147354 6.13038e-07 2.02422e-15)
(0.147354 5.18824e-07 1.77315e-15)
(0.147354 4.39683e-07 1.60522e-15)
(0.147354 3.72032e-07 1.68046e-15)
(0.147354 3.14334e-07 1.58449e-15)
(0.147354 2.65242e-07 1.40799e-15)
(0.147354 2.23756e-07 1.52168e-15)
(0.147354 1.89102e-07 1.58183e-15)
(0.147353 1.60611e-07 1.64798e-15)
(0.147353 1.37688e-07 1.58118e-15)
(0.147353 1.19788e-07 1.67771e-15)
(0.147353 1.06405e-07 1.77738e-15)
(0.147353 9.70724e-08 1.72375e-15)
(0.147353 9.1352e-08 1.73996e-15)
(0.147353 8.85103e-08 1.61102e-15)
(0.147353 8.98653e-08 1.68835e-15)
(0.147353 8.54304e-08 2.00768e-15)
(0.147353 8.13604e-08 1.98177e-15)
(0.147353 8.18014e-08 1.95205e-15)
(0.147353 9.02198e-08 2.04117e-15)
(0.147353 1.12741e-07 1.93084e-15)
(0.147353 1.33359e-07 2.2244e-15)
(0.147353 1.48167e-07 2.28838e-15)
(0.147353 1.59256e-07 2.212e-15)
(0.147353 1.68311e-07 2.26608e-15)
(0.147353 1.76227e-07 2.12415e-15)
(0.147353 1.83271e-07 2.35996e-15)
(0.147353 1.89451e-07 2.4949e-15)
(0.147353 1.94688e-07 2.39153e-15)
(0.147353 1.98873e-07 2.45917e-15)
(0.147353 2.01893e-07 2.24886e-15)
(0.147353 2.03647e-07 2.56238e-15)
(0.147353 2.04035e-07 2.66645e-15)
(0.147353 2.02967e-07 2.53133e-15)
(0.147353 2.00353e-07 2.59967e-15)
(0.147353 1.96101e-07 2.35848e-15)
(0.147353 1.90114e-07 2.41664e-15)
(0.147353 1.82291e-07 2.3576e-15)
(0.147353 1.72535e-07 2.29357e-15)
(0.147353 1.60762e-07 2.11383e-15)
(0.147353 1.46915e-07 2.09223e-15)
(0.147353 1.30986e-07 2.08727e-15)
(0.147353 1.13028e-07 2.05202e-15)
(0.147353 9.3161e-08 2.00635e-15)
(0.147354 7.1571e-08 1.82091e-15)
(0.147354 4.84853e-08 1.89826e-15)
(0.147354 2.41511e-08 1.88699e-15)
(0.147354 -1.18636e-09 1.85963e-15)
(0.147354 -2.73008e-08 1.82777e-15)
(0.147354 -5.39964e-08 1.81206e-15)
(0.147354 -8.11135e-08 1.69841e-15)
(0.147354 -1.08528e-07 1.67136e-15)
(0.147354 -1.36147e-07 1.68569e-15)
(0.147354 -1.63903e-07 1.6882e-15)
(0.147355 -1.91746e-07 1.69354e-15)
(0.147355 -2.19632e-07 1.61015e-15)
(0.147355 -2.47516e-07 1.60203e-15)
(0.147355 -2.75346e-07 1.62312e-15)
(0.147355 -3.03051e-07 1.63574e-15)
(0.147355 -3.30543e-07 1.6589e-15)
(0.147355 -3.57708e-07 1.60916e-15)
(0.147355 -3.84404e-07 1.62288e-15)
(0.147355 -4.10468e-07 1.65494e-15)
(0.147355 -4.3571e-07 1.67164e-15)
(0.147355 -4.59921e-07 1.68788e-15)
(0.147355 -4.82877e-07 1.62075e-15)
(0.147355 -5.04342e-07 1.62423e-15)
(0.147355 -5.24078e-07 1.65077e-15)
(0.147355 -5.4185e-07 1.66339e-15)
(0.147355 -5.57434e-07 1.67863e-15)
(0.147355 -5.70622e-07 1.60292e-15)
(0.147355 -5.8123e-07 1.60329e-15)
(0.147355 -5.89102e-07 1.63179e-15)
(0.147355 -5.94115e-07 1.64902e-15)
(0.147355 -5.96183e-07 1.66918e-15)
(0.147355 -5.95257e-07 1.61668e-15)
(0.147355 -5.91326e-07 1.60482e-15)
(0.147355 -5.8442e-07 1.58847e-15)
(0.147355 -5.74604e-07 1.59143e-15)
(0.147355 -5.61974e-07 1.61495e-15)
(0.147355 -5.46659e-07 1.58619e-15)
(0.147355 -5.28812e-07 1.5983e-15)
(0.147355 -5.08605e-07 1.59047e-15)
(0.147355 -4.86227e-07 1.5992e-15)
(0.147355 -4.61874e-07 1.6261e-15)
(0.147355 -4.35747e-07 1.6023e-15)
(0.147355 -4.08045e-07 1.62361e-15)
(0.147355 -3.78964e-07 1.62892e-15)
(0.147355 -3.48686e-07 1.6433e-15)
(0.147354 -3.17382e-07 1.66802e-15)
(0.147354 -2.85204e-07 1.64321e-15)
(0.147354 -2.52248e-07 1.6517e-15)
(0.147354 -2.18627e-07 1.63973e-15)
(0.147354 -1.84254e-07 1.64734e-15)
(0.147354 -1.48772e-07 1.675e-15)
(0.147354 -1.1219e-07 1.65568e-15)
(0.147354 -7.68774e-08 1.67603e-15)
(0.147354 -4.55639e-08 1.67322e-15)
(0.147354 -1.67369e-08 1.66916e-15)
(0.147354 1.48078e-08 1.68481e-15)
(0.147354 4.65234e-08 1.65864e-15)
(0.147354 7.36435e-08 1.67442e-15)
(0.147354 9.90378e-08 1.67337e-15)
(0.147354 1.25011e-07 1.67849e-15)
(0.147354 1.52679e-07 1.70011e-15)
(0.147354 1.83469e-07 1.67763e-15)
(0.147354 2.18253e-07 1.68337e-15)
(0.147354 2.58826e-07 1.70984e-15)
(0.147354 3.05633e-07 1.73942e-15)
(0.147354 3.62737e-07 1.76745e-15)
(0.147354 4.28552e-07 1.7473e-15)
(0.147354 5.14815e-07 1.74858e-15)
(0.147354 6.10256e-07 1.77048e-15)
(0.147354 7.52159e-07 1.79581e-15)
(0.147354 8.97502e-07 1.81749e-15)
(0.147354 1.13149e-06 1.77757e-15)
(0.147078 1.2359e-06 1.57727e-15)
(0.147078 1.03518e-06 1.68114e-15)
(0.147078 8.58401e-07 1.78573e-15)
(0.147078 7.30445e-07 1.78311e-15)
(0.147078 6.18859e-07 1.69694e-15)
(0.147078 5.26693e-07 1.68541e-15)
(0.147078 4.49253e-07 1.39898e-15)
(0.147078 3.83027e-07 1.54574e-15)
(0.147078 3.26531e-07 1.46318e-15)
(0.147077 2.78451e-07 1.27394e-15)
(0.147077 2.37827e-07 1.39224e-15)
(0.147077 2.0391e-07 1.4876e-15)
(0.147077 1.7604e-07 1.577e-15)
(0.147077 1.53624e-07 1.63448e-15)
(0.147077 1.36109e-07 1.64796e-15)
(0.147077 1.22985e-07 1.74652e-15)
(0.147077 1.13734e-07 1.66975e-15)
(0.147077 1.07964e-07 1.67512e-15)
(0.147077 1.04607e-07 1.63524e-15)
(0.147077 1.05244e-07 1.67654e-15)
(0.147077 9.98971e-08 1.91226e-15)
(0.147077 9.34622e-08 1.97427e-15)
(0.147077 8.80397e-08 1.87433e-15)
(0.147077 8.89287e-08 1.94423e-15)
(0.147077 1.07514e-07 1.91832e-15)
(0.147077 1.28728e-07 2.03792e-15)
(0.147077 1.45984e-07 2.14371e-15)
(0.147077 1.59138e-07 2.06857e-15)
(0.147077 1.69279e-07 2.12819e-15)
(0.147077 1.77457e-07 2.07547e-15)
(0.147077 1.84187e-07 2.21803e-15)
(0.147077 1.8966e-07 2.29863e-15)
(0.147077 1.93909e-07 2.22038e-15)
(0.147077 1.96896e-07 2.30442e-15)
(0.147077 1.98562e-07 2.26765e-15)
(0.147077 1.98841e-07 2.41919e-15)
(0.147077 1.97672e-07 2.48431e-15)
(0.147077 1.94993e-07 2.36945e-15)
(0.147077 1.90744e-07 2.43049e-15)
(0.147077 1.84863e-07 2.4145e-15)
(0.147077 1.7728e-07 2.31449e-15)
(0.147077 1.67926e-07 2.26606e-15)
(0.147077 1.56729e-07 2.20859e-15)
(0.147077 1.43632e-07 2.08399e-15)
(0.147077 1.28601e-07 2.04043e-15)
(0.147077 1.11646e-07 2.00808e-15)
(0.147077 9.28279e-08 1.98148e-15)
(0.147077 7.22724e-08 1.93184e-15)
(0.147078 5.01587e-08 1.86209e-15)
(0.147078 2.67047e-08 1.83622e-15)
(0.147078 2.14504e-09 1.80281e-15)
(0.147078 -2.32877e-08 1.78373e-15)
(0.147078 -4.93792e-08 1.74589e-15)
(0.147078 -7.59441e-08 1.7363e-15)
(0.147078 -1.0283e-07 1.61302e-15)
(0.147078 -1.2992e-07 1.63289e-15)
(0.147078 -1.57124e-07 1.6529e-15)
(0.147078 -1.84378e-07 1.63242e-15)
(0.147079 -2.11631e-07 1.63525e-15)
(0.147079 -2.38839e-07 1.53361e-15)
(0.147079 -2.65957e-07 1.56835e-15)
(0.147079 -2.92931e-07 1.599e-15)
(0.147079 -3.19689e-07 1.59353e-15)
(0.147079 -3.46142e-07 1.61569e-15)
(0.147079 -3.72175e-07 1.53889e-15)
(0.147079 -3.9765e-07 1.60419e-15)
(0.147079 -4.22404e-07 1.64442e-15)
(0.147079 -4.46252e-07 1.63928e-15)
(0.147079 -4.68991e-07 1.65329e-15)
(0.147079 -4.90405e-07 1.56092e-15)
(0.147079 -5.10268e-07 1.6127e-15)
(0.147079 -5.28355e-07 1.64466e-15)
(0.147079 -5.44445e-07 1.63237e-15)
(0.147079 -5.58329e-07 1.64325e-15)
(0.147079 -5.69817e-07 1.54751e-15)
(0.147079 -5.78745e-07 1.58915e-15)
(0.147079 -5.84974e-07 1.62423e-15)
(0.147079 -5.88404e-07 1.61928e-15)
(0.147079 -5.88965e-07 1.63623e-15)
(0.147079 -5.8663e-07 1.56242e-15)
(0.147079 -5.81407e-07 1.53733e-15)
(0.147079 -5.73339e-07 1.52792e-15)
(0.147079 -5.62506e-07 1.53152e-15)
(0.147079 -5.4902e-07 1.51876e-15)
(0.147079 -5.33015e-07 1.49314e-15)
(0.147079 -5.14653e-07 1.49272e-15)
(0.147079 -4.94108e-07 1.49445e-15)
(0.147079 -4.7157e-07 1.50906e-15)
(0.147079 -4.47231e-07 1.49038e-15)
(0.147079 -4.21287e-07 1.47448e-15)
(0.147079 -3.93927e-07 1.4925e-15)
(0.147078 -3.65335e-07 1.50959e-15)
(0.147078 -3.35676e-07 1.52907e-15)
(0.147078 -3.05104e-07 1.51792e-15)
(0.147078 -2.73743e-07 1.49801e-15)
(0.147078 -2.41673e-07 1.50454e-15)
(0.147078 -2.0896e-07 1.51123e-15)
(0.147078 -1.75493e-07 1.5264e-15)
(0.147078 -1.41138e-07 1.51893e-15)
(0.147078 -1.04525e-07 1.51078e-15)
(0.147078 -6.80035e-08 1.52561e-15)
(0.147078 -3.6037e-08 1.53076e-15)
(0.147078 -7.5871e-09 1.53536e-15)
(0.147078 2.26535e-08 1.51787e-15)
(0.147078 5.35154e-08 1.502e-15)
(0.147078 8.0753e-08 1.51459e-15)
(0.147078 1.06231e-07 1.52653e-15)
(0.147078 1.31833e-07 1.53957e-15)
(0.147078 1.58741e-07 1.53459e-15)
(0.147078 1.88547e-07 1.52147e-15)
(0.147078 2.22234e-07 1.52911e-15)
(0.147078 2.61722e-07 1.52174e-15)
(0.147078 3.07383e-07 1.54546e-15)
(0.147078 3.63439e-07 1.55252e-15)
(0.147078 4.27937e-07 1.54666e-15)
(0.147078 5.13269e-07 1.55899e-15)
(0.147078 6.06945e-07 1.55752e-15)
(0.147078 7.48846e-07 1.58043e-15)
(0.147078 8.92182e-07 1.58592e-15)
(0.147078 1.13051e-06 1.56614e-15)
(0.146784 1.23734e-06 1.41078e-15)
(0.146784 1.03418e-06 1.50426e-15)
(0.146784 8.59797e-07 1.58934e-15)
(0.146784 7.34043e-07 1.68564e-15)
(0.146784 6.24602e-07 1.46685e-15)
(0.146784 5.34594e-07 1.60749e-15)
(0.146784 4.58926e-07 1.43912e-15)
(0.146784 3.9418e-07 1.4932e-15)
(0.146783 3.38921e-07 1.44886e-15)
(0.146783 2.91872e-07 1.29739e-15)
(0.146783 2.52119e-07 1.37899e-15)
(0.146783 2.18937e-07 1.45681e-15)
(0.146783 1.91676e-07 1.53535e-15)
(0.146783 1.69751e-07 1.52546e-15)
(0.146783 1.526e-07 1.65655e-15)
(0.146783 1.39712e-07 1.60087e-15)
(0.146783 1.30519e-07 1.57621e-15)
(0.146783 1.24666e-07 1.62396e-15)
(0.146783 1.20858e-07 1.59409e-15)
(0.146783 1.20676e-07 1.71185e-15)
(0.146783 1.14998e-07 1.76434e-15)
(0.146783 1.07472e-07 1.79765e-15)
(0.146782 9.89862e-08 1.75202e-15)
(0.146782 9.44497e-08 1.73878e-15)
(0.146782 1.06932e-07 1.75449e-15)
(0.146782 1.24931e-07 1.81944e-15)
(0.146782 1.41874e-07 1.85843e-15)
(0.146782 1.55843e-07 1.87902e-15)
(0.146782 1.66765e-07 1.86727e-15)
(0.146782 1.75304e-07 1.88709e-15)
(0.146782 1.81944e-07 1.95812e-15)
(0.146782 1.86953e-07 1.97648e-15)
(0.146782 1.90446e-07 1.99959e-15)
(0.146783 1.92452e-07 2.03514e-15)
(0.146783 1.92962e-07 2.06826e-15)
(0.146783 1.91952e-07 2.14681e-15)
(0.146783 1.89397e-07 2.16933e-15)
(0.146783 1.8527e-07 2.1522e-15)
(0.146783 1.79541e-07 2.14702e-15)
(0.146783 1.72177e-07 2.21546e-15)
(0.146783 1.63141e-07 2.1618e-15)
(0.146783 1.52391e-07 2.15844e-15)
(0.146783 1.39883e-07 2.09435e-15)
(0.146783 1.25586e-07 2.05227e-15)
(0.146783 1.09487e-07 1.98737e-15)
(0.146783 9.1612e-08 1.91627e-15)
(0.146783 7.20342e-08 1.90493e-15)
(0.146783 5.08803e-08 1.83699e-15)
(0.146784 2.8326e-08 1.82366e-15)
(0.146784 4.58063e-09 1.7763e-15)
(0.146784 -2.01319e-08 1.71029e-15)
(0.146784 -4.55907e-08 1.70565e-15)
(0.146784 -7.1592e-08 1.64977e-15)
(0.146784 -9.79595e-08 1.65538e-15)
(0.146784 -1.24549e-07 1.46806e-15)
(0.146784 -1.51246e-07 1.61979e-15)
(0.146784 -1.77967e-07 1.62785e-15)
(0.146785 -2.04648e-07 1.56598e-15)
(0.146785 -2.31239e-07 1.57579e-15)
(0.146785 -2.57696e-07 1.40445e-15)
(0.146785 -2.83973e-07 1.57184e-15)
(0.146785 -3.10015e-07 1.58627e-15)
(0.146785 -3.3575e-07 1.54314e-15)
(0.146785 -3.61088e-07 1.57327e-15)
(0.146785 -3.85916e-07 1.42276e-15)
(0.146785 -4.10097e-07 1.64299e-15)
(0.146785 -4.33473e-07 1.6532e-15)
(0.146785 -4.55863e-07 1.60145e-15)
(0.146785 -4.77073e-07 1.62155e-15)
(0.146785 -4.96894e-07 1.45514e-15)
(0.146785 -5.15113e-07 1.6557e-15)
(0.146785 -5.31519e-07 1.65794e-15)
(0.146785 -5.45904e-07 1.59706e-15)
(0.146785 -5.58077e-07 1.6115e-15)
(0.146785 -5.67867e-07 1.44324e-15)
(0.146785 -5.75125e-07 1.61007e-15)
(0.146785 -5.79736e-07 1.63315e-15)
(0.146785 -5.81616e-07 1.58637e-15)
(0.146785 -5.80717e-07 1.60847e-15)
(0.146785 -5.77028e-07 1.46681e-15)
(0.146785 -5.70574e-07 1.46701e-15)
(0.146785 -5.61416e-07 1.46656e-15)
(0.146785 -5.49644e-07 1.4727e-15)
(0.146785 -5.3538e-07 1.41615e-15)
(0.146785 -5.1877e-07 1.39448e-15)
(0.146785 -4.99976e-07 1.39526e-15)
(0.146785 -4.79177e-07 1.40254e-15)
(0.146785 -4.56559e-07 1.42377e-15)
(0.146785 -4.32312e-07 1.33903e-15)
(0.146785 -4.06623e-07 1.33733e-15)
(0.146784 -3.79671e-07 1.36923e-15)
(0.146784 -3.51627e-07 1.3956e-15)
(0.146784 -3.22639e-07 1.42074e-15)
(0.146784 -2.92842e-07 1.36292e-15)
(0.146784 -2.62335e-07 1.35042e-15)
(0.146784 -2.3118e-07 1.36742e-15)
(0.146784 -1.99406e-07 1.38587e-15)
(0.146784 -1.66866e-07 1.41019e-15)
(0.146784 -1.33579e-07 1.35471e-15)
(0.146784 -9.7852e-08 1.35873e-15)
(0.146784 -6.12342e-08 1.38366e-15)
(0.146784 -2.85049e-08 1.39642e-15)
(0.146784 3.09097e-10 1.40917e-15)
(0.146784 2.9919e-08 1.33843e-15)
(0.146784 6.00725e-08 1.33997e-15)
(0.146784 8.74016e-08 1.3645e-15)
(0.146784 1.13154e-07 1.38694e-15)
(0.146784 1.3879e-07 1.40735e-15)
(0.146784 1.6539e-07 1.36565e-15)
(0.146784 1.94592e-07 1.36204e-15)
(0.146784 2.27444e-07 1.38268e-15)
(0.146784 2.65991e-07 1.32257e-15)
(0.146784 3.10548e-07 1.35983e-15)
(0.146784 3.65515e-07 1.33918e-15)
(0.146784 4.28574e-07 1.34712e-15)
(0.146784 5.1276e-07 1.37906e-15)
(0.146784 6.04352e-07 1.34527e-15)
(0.146784 7.45752e-07 1.37464e-15)
(0.146784 8.8642e-07 1.35467e-15)
(0.146784 1.12809e-06 1.35056e-15)
(0.146471 1.23652e-06 1.2846e-15)
(0.146471 1.03172e-06 1.37125e-15)
(0.146471 8.60528e-07 1.41165e-15)
(0.146471 7.37298e-07 1.57855e-15)
(0.146471 6.30216e-07 1.45469e-15)
(0.146471 5.42478e-07 1.44028e-15)
(0.146471 4.68638e-07 1.36605e-15)
(0.146471 4.05407e-07 1.54559e-15)
(0.146471 3.51406e-07 1.42682e-15)
(0.146471 3.05399e-07 1.30769e-15)
(0.146471 2.66518e-07 1.42641e-15)
(0.146471 2.34065e-07 1.40485e-15)
(0.14647 2.07403e-07 1.57994e-15)
(0.14647 1.85953e-07 1.464e-15)
(0.14647 1.69147e-07 1.57491e-15)
(0.14647 1.56471e-07 1.56898e-15)
(0.14647 1.47318e-07 1.48927e-15)
(0.14647 1.41353e-07 1.59317e-15)
(0.14647 1.37147e-07 1.54072e-15)
(0.14647 1.3614e-07 1.64837e-15)
(0.14647 1.30308e-07 1.63036e-15)
(0.14647 1.22402e-07 1.63329e-15)
(0.14647 1.12556e-07 1.61006e-15)
(0.14647 1.04862e-07 1.54411e-15)
(0.14647 1.11756e-07 1.65486e-15)
(0.14647 1.24801e-07 1.6442e-15)
(0.14647 1.39089e-07 1.6262e-15)
(0.14647 1.52081e-07 1.68659e-15)
(0.14647 1.62753e-07 1.64878e-15)
(0.14647 1.71173e-07 1.75081e-15)
(0.14647 1.77547e-07 1.7491e-15)
(0.14647 1.82068e-07 1.71807e-15)
(0.14647 1.84854e-07 1.77872e-15)
(0.14647 1.85963e-07 1.78595e-15)
(0.14647 1.85418e-07 1.85574e-15)
(0.14647 1.8323e-07 1.91852e-15)
(0.14647 1.79405e-07 1.82448e-15)
(0.14647 1.73946e-07 1.93398e-15)
(0.14647 1.66854e-07 1.89282e-15)
(0.14647 1.58128e-07 2.04282e-15)
(0.14647 1.47757e-07 1.99269e-15)
(0.14647 1.35728e-07 2.05038e-15)
(0.14647 1.22024e-07 1.9483e-15)
(0.14647 1.06638e-07 2.01387e-15)
(0.14647 8.9577e-08 1.90349e-15)
(0.146471 7.08832e-08 1.79833e-15)
(0.146471 5.0639e-08 1.83336e-15)
(0.146471 2.89741e-08 1.71389e-15)
(0.146471 6.06065e-09 1.79107e-15)
(0.146471 -1.78994e-08 1.69487e-15)
(0.146471 -4.26917e-08 1.59545e-15)
(0.146471 -6.81056e-08 1.63517e-15)
(0.146471 -9.39471e-08 1.52904e-15)
(0.146471 -1.20048e-07 1.57354e-15)
(0.146472 -1.4627e-07 1.40797e-15)
(0.146472 -1.72505e-07 1.5183e-15)
(0.146472 -1.98671e-07 1.58214e-15)
(0.146472 -2.24705e-07 1.46954e-15)
(0.146472 -2.50559e-07 1.51702e-15)
(0.146472 -2.76188e-07 1.36435e-15)
(0.146472 -3.01547e-07 1.55046e-15)
(0.146472 -3.26578e-07 1.56205e-15)
(0.146472 -3.51211e-07 1.46429e-15)
(0.146472 -3.75357e-07 1.53321e-15)
(0.146472 -3.98904e-07 1.39858e-15)
(0.146472 -4.21719e-07 1.628e-15)
(0.146472 -4.43648e-07 1.65594e-15)
(0.146473 -4.64518e-07 1.53653e-15)
(0.146473 -4.84142e-07 1.59401e-15)
(0.146473 -5.02323e-07 1.44244e-15)
(0.146473 -5.1886e-07 1.65208e-15)
(0.146473 -5.33555e-07 1.66515e-15)
(0.146473 -5.46218e-07 1.53519e-15)
(0.146473 -5.56674e-07 1.5843e-15)
(0.146473 -5.6477e-07 1.4322e-15)
(0.146473 -5.70377e-07 1.62149e-15)
(0.146473 -5.73397e-07 1.6292e-15)
(0.146473 -5.73767e-07 1.53073e-15)
(0.146472 -5.71457e-07 1.58776e-15)
(0.146472 -5.66472e-07 1.46364e-15)
(0.146472 -5.58854e-07 1.41402e-15)
(0.146472 -5.48677e-07 1.40476e-15)
(0.146472 -5.36045e-07 1.41075e-15)
(0.146472 -5.21086e-07 1.21734e-15)
(0.146472 -5.03952e-07 1.30007e-15)
(0.146472 -4.8481e-07 1.30796e-15)
(0.146472 -4.63838e-07 1.31726e-15)
(0.146472 -4.41221e-07 1.3405e-15)
(0.146472 -4.1714e-07 1.12418e-15)
(0.146472 -3.91776e-07 1.20743e-15)
(0.146472 -3.65294e-07 1.25926e-15)
(0.146472 -3.37854e-07 1.29031e-15)
(0.146472 -3.09583e-07 1.31608e-15)
(0.146471 -2.80601e-07 1.12209e-15)
(0.146471 -2.50981e-07 1.21357e-15)
(0.146471 -2.20767e-07 1.24346e-15)
(0.146471 -1.89953e-07 1.26881e-15)
(0.146471 -1.58373e-07 1.29717e-15)
(0.146471 -1.26102e-07 1.17697e-15)
(0.146471 -9.15787e-08 1.215e-15)
(0.146471 -5.5665e-08 1.25412e-15)
(0.146471 -2.27588e-08 1.27267e-15)
(0.146471 6.43689e-09 1.2893e-15)
(0.146471 3.5852e-08 1.08957e-15)
(0.146471 6.55649e-08 1.18357e-15)
(0.146471 9.29885e-08 1.22923e-15)
(0.146471 1.19076e-07 1.25781e-15)
(0.146471 1.44984e-07 1.28078e-15)
(0.146471 1.71635e-07 1.17298e-15)
(0.146471 2.00613e-07 1.21e-15)
(0.146471 2.3296e-07 1.24779e-15)
(0.146471 2.70816e-07 1.13423e-15)
(0.146471 3.14429e-07 1.18442e-15)
(0.146471 3.68377e-07 1.11417e-15)
(0.146471 4.29981e-07 1.16374e-15)
(0.146471 5.1289e-07 1.2151e-15)
(0.146471 6.02168e-07 1.05622e-15)
(0.146471 7.42612e-07 1.18567e-15)
(0.146471 8.80017e-07 1.11039e-15)
(0.146471 1.12399e-06 1.14932e-15)
(0.146139 1.23308e-06 1.05842e-15)
(0.146139 1.02747e-06 1.20878e-15)
(0.146139 8.60325e-07 1.26088e-15)
(0.146139 7.40004e-07 1.36922e-15)
(0.146139 6.35548e-07 1.30567e-15)
(0.146139 5.50213e-07 1.31458e-15)
(0.146139 4.78258e-07 1.30884e-15)
(0.146138 4.16574e-07 1.36567e-15)
(0.146138 3.63844e-07 1.3395e-15)
(0.146138 3.18884e-07 1.30698e-15)
(0.146138 2.80874e-07 1.34775e-15)
(0.146138 2.49143e-07 1.33076e-15)
(0.146138 2.2307e-07 1.39073e-15)
(0.146138 2.0208e-07 1.3702e-15)
(0.146138 1.85603e-07 1.39952e-15)
(0.146138 1.7312e-07 1.34786e-15)
(0.146138 1.63992e-07 1.36788e-15)
(0.146138 1.57893e-07 1.44959e-15)
(0.146138 1.53328e-07 1.45024e-15)
(0.146138 1.51539e-07 1.47495e-15)
(0.146137 1.45575e-07 1.47726e-15)
(0.146137 1.37627e-07 1.47681e-15)
(0.146137 1.27356e-07 1.45829e-15)
(0.146137 1.18223e-07 1.50841e-15)
(0.146137 1.20936e-07 1.47288e-15)
(0.146137 1.2888e-07 1.47193e-15)
(0.146137 1.39275e-07 1.55353e-15)
(0.146137 1.49821e-07 1.54628e-15)
(0.146137 1.59057e-07 1.58282e-15)
(0.146137 1.66562e-07 1.53894e-15)
(0.146137 1.72191e-07 1.54282e-15)
(0.146137 1.75953e-07 1.61922e-15)
(0.146137 1.7789e-07 1.61957e-15)
(0.146137 1.78038e-07 1.70651e-15)