# y+ ()       
# Time        	patch         	min           	max           	average       
7000          	bottomWall	5.244900e-01	5.244996e-01	5.244955e-01
7000          	topWall	5.287814e-01	5.287983e-01	5.287900e-01
