/*--------------------------------*- C++ -*----------------------------------*\
  =========                 |
  \\      /  F ield         | OpenFOAM: The Open Source CFD Toolbox
   \\    /   O peration     | Website:  https://openfoam.org
    \\  /    A nd           | Version:  7
     \\/     M anipulation  |
\*---------------------------------------------------------------------------*/
FoamFile
{
    version     2.0;
    format      ascii;
    class       volScalarField;
    location    "1500";
    object      omega;
}
// * * * * * * * * * * * * * * * * * * * * * * * * * * * * * * * * * * * * * //

dimensions      [0 0 -1 0 0 0 0];

internalField   nonuniform List<scalar> 
3974
(
0.653318
0.653336
0.653348
0.653356
0.653364
0.65337
0.653376
0.653381
0.653385
0.653389
0.653393
0.653397
0.6534
0.653404
0.653407
0.65341
0.653413
0.653416
0.653419
0.653421
0.653424
0.653427
0.653429
0.653432
0.653435
0.653437
0.65344
0.653442
0.653444
0.653447
0.653449
0.653451
0.653453
0.653455
0.653457
0.653458
0.65346
0.653465
0.614695
0.614708
0.614743
0.614766
0.614781
0.614793
0.614802
0.61481
0.614817
0.614824
0.614829
0.614835
0.61484
0.614844
0.614848
0.614852
0.614856
0.61486
0.614863
0.614867
0.61487
0.614873
0.614876
0.61488
0.614883
0.614886
0.614889
0.614892
0.614894
0.614897
0.6149
0.614902
0.614905
0.614907
0.61491
0.614912
0.614914
0.614916
0.614918
0.614925
0.614887
0.614875
0.578497
0.578491
0.578525
0.578544
0.578569
0.578591
0.578609
0.578623
0.578635
0.578644
0.578653
0.578661
0.578667
0.578674
0.57868
0.578685
0.57869
0.578695
0.578699
0.578704
0.578708
0.578712
0.578716
0.57872
0.578723
0.578727
0.57873
0.578734
0.578737
0.578741
0.578744
0.578747
0.57875
0.578753
0.578756
0.578759
0.578761
0.578764
0.578767
0.578769
0.578771
0.578777
0.578761
0.578753
0.578691
0.578664
0.578653
0.578647
0.578642
0.578639
0.578636
0.578633
0.578631
0.578629
0.578628
0.578626
0.578626
0.578623
0.578632
0.544531
0.544523
0.544539
0.544558
0.544578
0.544599
0.544617
0.544633
0.544646
0.544657
0.544667
0.544676
0.544684
0.544691
0.544698
0.544704
0.54471
0.544716
0.544721
0.544726
0.544731
0.544736
0.54474
0.544744
0.544749
0.544753
0.544757
0.544761
0.544765
0.544768
0.544772
0.544775
0.544779
0.544782
0.544786
0.544789
0.544792
0.544795
0.544798
0.544801
0.544803
0.544808
0.544802
0.544797
0.544767
0.54474
0.544724
0.544714
0.544708
0.544703
0.5447
0.544697
0.544694
0.544692
0.544691
0.544689
0.544689
0.544686
0.544698
0.512552
0.512539
0.512549
0.512563
0.512581
0.512599
0.512616
0.512632
0.512646
0.512658
0.512669
0.512679
0.512688
0.512697
0.512704
0.512712
0.512718
0.512725
0.512731
0.512737
0.512742
0.512747
0.512752
0.512757
0.512762
0.512767
0.512771
0.512776
0.51278
0.512784
0.512788
0.512792
0.512796
0.5128
0.512804
0.512807
0.512811
0.512814
0.512818
0.512821
0.512824
0.512828
0.512827
0.512825
0.51281
0.51279
0.512774
0.512764
0.512756
0.512751
0.512746
0.512743
0.51274
0.512738
0.512737
0.512735
0.512735
0.512731
0.512747
0.482397
0.482381
0.482386
0.482397
0.482411
0.482427
0.482443
0.482458
0.482472
0.482485
0.482497
0.482507
0.482517
0.482526
0.482535
0.482543
0.48255
0.482557
0.482564
0.482571
0.482577
0.482583
0.482589
0.482594
0.482599
0.482605
0.48261
0.482614
0.482619
0.482624
0.482628
0.482633
0.482637
0.482641
0.482646
0.48265
0.482653
0.482657
0.482661
0.482665
0.482668
0.482672
0.482674
0.482674
0.482668
0.482655
0.482643
0.482633
0.482625
0.482619
0.482615
0.482611
0.482609
0.482607
0.482605
0.482603
0.482603
0.482599
0.482617
0.453925
0.453904
0.453907
0.453915
0.453927
0.45394
0.453954
0.453968
0.453982
0.453995
0.454007
0.454018
0.454028
0.454038
0.454047
0.454056
0.454064
0.454072
0.454079
0.454087
0.454093
0.4541
0.454106
0.454112
0.454118
0.454124
0.454129
0.454135
0.45414
0.454145
0.45415
0.454155
0.45416
0.454164
0.454169
0.454173
0.454178
0.454182
0.454186
0.45419
0.454194
0.454198
0.454201
0.454203
0.454201
0.454195
0.454187
0.454179
0.454172
0.454167
0.454163
0.454159
0.454157
0.454154
0.454153
0.454151
0.454151
0.454147
0.454167
0.42701
0.426987
0.426987
0.426994
0.427004
0.427015
0.427027
0.42704
0.427053
0.427065
0.427077
0.427088
0.427099
0.427109
0.427118
0.427128
0.427136
0.427145
0.427153
0.42716
0.427168
0.427175
0.427182
0.427188
0.427195
0.427201
0.427207
0.427213
0.427219
0.427224
0.42723
0.427235
0.42724
0.427245
0.42725
0.427255
0.427259
0.427264
0.427269
0.427273
0.427277
0.427281
0.427285
0.427288
0.427289
0.427287
0.427283
0.427278
0.427273
0.427269
0.427265
0.427262
0.42726
0.427258
0.427257
0.427256
0.427256
0.427251
0.427274
0.401547
0.401521
0.40152
0.401525
0.401533
0.401543
0.401553
0.401565
0.401576
0.401588
0.401599
0.401611
0.401621
0.401632
0.401641
0.401651
0.40166
0.401669
0.401677
0.401686
0.401693
0.401701
0.401708
0.401715
0.401722
0.401729
0.401735
0.401742
0.401748
0.401754
0.40176
0.401765
0.401771
0.401776
0.401782
0.401787
0.401792
0.401797
0.401802
0.401806
0.401811
0.401816
0.40182
0.401824
0.401826
0.401827
0.401826
0.401824
0.401821
0.401818
0.401815
0.401813
0.401811
0.40181
0.401809
0.401808
0.401809
0.401804
0.401828
0.377441
0.377412
0.37741
0.377415
0.377422
0.37743
0.377439
0.377449
0.37746
0.377471
0.377481
0.377492
0.377503
0.377513
0.377523
0.377532
0.377542
0.377551
0.37756
0.377568
0.377576
0.377584
0.377592
0.3776
0.377607
0.377614
0.377621
0.377628
0.377634
0.377641
0.377647
0.377653
0.377659
0.377665
0.37767
0.377676
0.377681
0.377687
0.377692
0.377697
0.377702
0.377707
0.377711
0.377716
0.377719
0.377722
0.377723
0.377723
0.377722
0.377721
0.377719
0.377718
0.377717
0.377717
0.377716
0.377716
0.377717
0.377712
0.377738
0.35461
0.354579
0.354576
0.35458
0.354586
0.354594
0.354602
0.354611
0.354621
0.354631
0.354641
0.354651
0.354661
0.354671
0.354681
0.354691
0.3547
0.354709
0.354718
0.354727
0.354736
0.354744
0.354752
0.35476
0.354767
0.354775
0.354782
0.354789
0.354796
0.354803
0.354809
0.354816
0.354822
0.354828
0.354834
0.35484
0.354846
0.354851
0.354857
0.354862
0.354868
0.354873
0.354878
0.354882
0.354887
0.354891
0.354893
0.354895
0.354896
0.354896
0.354896
0.354896
0.354896
0.354896
0.354896
0.354896
0.354898
0.354893
0.354921
0.332983
0.33295
0.332947
0.33295
0.332956
0.332963
0.33297
0.332978
0.332987
0.332996
0.333006
0.333015
0.333025
0.333035
0.333044
0.333054
0.333063
0.333073
0.333082
0.33309
0.333099
0.333108
0.333116
0.333124
0.333132
0.33314
0.333147
0.333155
0.333162
0.333169
0.333176
0.333182
0.333189
0.333195
0.333202
0.333208
0.333214
0.33322
0.333226
0.333231
0.333237
0.333242
0.333248
0.333253
0.333258
0.333262
0.333266
0.333269
0.333271
0.333273
0.333274
0.333275
0.333276
0.333277
0.333278
0.333278
0.33328
0.333276
0.333305
0.312497
0.312462
0.312459
0.312462
0.312467
0.312474
0.312481
0.312488
0.312496
0.312504
0.312513
0.312522
0.312531
0.312541
0.31255
0.312559
0.312569
0.312578
0.312587
0.312596
0.312604
0.312613
0.312621
0.31263
0.312638
0.312646
0.312653
0.312661
0.312669
0.312676
0.312683
0.31269
0.312697
0.312703
0.31271
0.312717
0.312723
0.312729
0.312735
0.312741
0.312747
0.312752
0.312758
0.312763
0.312769
0.312773
0.312778
0.312782
0.312785
0.312788
0.31279
0.312792
0.312794
0.312796
0.312798
0.312799
0.312802
0.312797
0.312828
0.293097
0.29306
0.293056
0.293059
0.293064
0.29307
0.293077
0.293084
0.293091
0.293099
0.293107
0.293116
0.293124
0.293133
0.293142
0.293151
0.29316
0.293169
0.293178
0.293187
0.293196
0.293204
0.293213
0.293221
0.293229
0.293237
0.293245
0.293253
0.293261
0.293268
0.293275
0.293283
0.29329
0.293297
0.293303
0.29331
0.293317
0.293323
0.293329
0.293335
0.293341
0.293347
0.293353
0.293359
0.293364
0.293369
0.293374
0.293379
0.293383
0.293387
0.29339
0.293393
0.293396
0.293398
0.2934
0.293402
0.293406
0.293402
0.293434
0.274732
0.274694
0.274689
0.274692
0.274698
0.274703
0.274709
0.274716
0.274723
0.27473
0.274738
0.274746
0.274754
0.274762
0.274771
0.27478
0.274788
0.274797
0.274806
0.274815
0.274823
0.274832
0.27484
0.274849
0.274857
0.274865
0.274873
0.274881
0.274889
0.274896
0.274904
0.274911
0.274918
0.274925
0.274932
0.274939
0.274946
0.274952
0.274959
0.274965
0.274971
0.274977
0.274983
0.274989
0.274995
0.275
0.275006
0.275011
0.275015
0.27502
0.275024
0.275027
0.275031
0.275034
0.275037
0.275039
0.275043
0.275039
0.275073
0.257358
0.257319
0.257314
0.257317
0.257322
0.257328
0.257333
0.25734
0.257346
0.257353
0.25736
0.257368
0.257376
0.257384
0.257392
0.2574
0.257409
0.257417
0.257426
0.257434
0.257443
0.257451
0.257459
0.257468
0.257476
0.257484
0.257492
0.2575
0.257508
0.257515
0.257523
0.25753
0.257538
0.257545
0.257552
0.257559
0.257566
0.257573
0.257579
0.257586
0.257592
0.257598
0.257604
0.25761
0.257616
0.257622
0.257627
0.257633
0.257638
0.257643
0.257647
0.257651
0.257655
0.257659
0.257662
0.257665
0.25767
0.257666
0.257701
0.240935
0.240895
0.24089
0.240893
0.240897
0.240903
0.240909
0.240915
0.240921
0.240927
0.240934
0.240941
0.240949
0.240956
0.240964
0.240972
0.24098
0.240988
0.240997
0.241005
0.241013
0.241021
0.24103
0.241038
0.241046
0.241054
0.241062
0.24107
0.241078
0.241085
0.241093
0.241101
0.241108
0.241115
0.241122
0.241129
0.241136
0.241143
0.24115
0.241156
0.241163
0.241169
0.241175
0.241181
0.241187
0.241193
0.241199
0.241204
0.24121
0.241215
0.24122
0.241224
0.241229
0.241233
0.241237
0.24124
0.241245
0.241242
0.241277
0.225425
0.225384
0.225379
0.225382
0.225387
0.225392
0.225397
0.225403
0.225409
0.225416
0.225422
0.225429
0.225436
0.225443
0.225451
0.225458
0.225466
0.225474
0.225482
0.22549
0.225498
0.225506
0.225514
0.225522
0.22553
0.225538
0.225546
0.225554
0.225561
0.225569
0.225577
0.225584
0.225591
0.225599
0.225606
0.225613
0.22562
0.225627
0.225634
0.22564
0.225647
0.225653
0.225659
0.225665
0.225671
0.225677
0.225683
0.225689
0.225694
0.2257
0.225705
0.22571
0.225714
0.225719
0.225723
0.225727
0.225732
0.22573
0.225765
0.210794
0.210753
0.210748
0.21075
0.210755
0.21076
0.210765
0.210771
0.210777
0.210783
0.210789
0.210796
0.210803
0.210809
0.210817
0.210824
0.210831
0.210839
0.210847
0.210854
0.210862
0.21087
0.210878
0.210886
0.210893
0.210901
0.210909
0.210917
0.210924
0.210932
0.210939
0.210947
0.210954
0.210961
0.210968
0.210975
0.210982
0.210989
0.210996
0.211003
0.211009
0.211015
0.211022
0.211028
0.211034
0.21104
0.211046
0.211052
0.211057
0.211063
0.211068
0.211073
0.211078
0.211083
0.211087
0.211091
0.211097
0.211095
0.21113
0.197009
0.196968
0.196963
0.196965
0.19697
0.196975
0.19698
0.196986
0.196991
0.196997
0.197003
0.197009
0.197016
0.197023
0.197029
0.197036
0.197043
0.197051
0.197058
0.197065
0.197073
0.197081
0.197088
0.197096
0.197103
0.197111
0.197119
0.197126
0.197134
0.197141
0.197148
0.197156
0.197163
0.19717
0.197177
0.197184
0.197191
0.197198
0.197204
0.197211
0.197218
0.197224
0.19723
0.197236
0.197242
0.197248
0.197254
0.19726
0.197266
0.197271
0.197276
0.197282
0.197287
0.197292
0.197296
0.197301
0.197306
0.197304
0.19734
0.184039
0.183999
0.183993
0.183995
0.184
0.184005
0.18401
0.184015
0.184021
0.184027
0.184032
0.184038
0.184045
0.184051
0.184057
0.184064
0.184071
0.184078
0.184085
0.184092
0.184099
0.184107
0.184114
0.184121
0.184129
0.184136
0.184144
0.184151
0.184158
0.184165
0.184173
0.18418
0.184187
0.184194
0.184201
0.184208
0.184215
0.184221
0.184228
0.184234
0.184241
0.184247
0.184253
0.184259
0.184265
0.184271
0.184277
0.184283
0.184288
0.184294
0.184299
0.184305
0.18431
0.184315
0.18432
0.184324
0.18433
0.184328
0.184363
0.171854
0.171814
0.171808
0.171811
0.171815
0.17182
0.171825
0.17183
0.171835
0.171841
0.171847
0.171852
0.171858
0.171864
0.171871
0.171877
0.171884
0.17189
0.171897
0.171904
0.171911
0.171918
0.171925
0.171932
0.171939
0.171946
0.171953
0.171961
0.171968
0.171975
0.171982
0.171989
0.171996
0.172002
0.172009
0.172016
0.172023
0.172029
0.172036
0.172042
0.172048
0.172055
0.172061
0.172067
0.172073
0.172079
0.172084
0.17209
0.172096
0.172101
0.172106
0.172112
0.172117
0.172122
0.172127
0.172131
0.172137
0.172136
0.17217
0.160424
0.160384
0.160379
0.160381
0.160385
0.16039
0.160395
0.1604
0.160405
0.160411
0.160416
0.160422
0.160427
0.160433
0.160439
0.160445
0.160451
0.160458
0.160464
0.160471
0.160478
0.160484
0.160491
0.160498
0.160505
0.160512
0.160519
0.160525
0.160532
0.160539
0.160546
0.160553
0.160559
0.160566
0.160573
0.160579
0.160586
0.160592
0.160599
0.160605
0.160611
0.160617
0.160623
0.160629
0.160635
0.160641
0.160646
0.160652
0.160657
0.160663
0.160668
0.160673
0.160678
0.160683
0.160688
0.160693
0.160698
0.160697
0.160731
0.149719
0.149681
0.149675
0.149677
0.149682
0.149686
0.149691
0.149696
0.149701
0.149706
0.149711
0.149716
0.149722
0.149728
0.149733
0.149739
0.149745
0.149751
0.149757
0.149764
0.14977
0.149777
0.149783
0.14979
0.149796
0.149803
0.149809
0.149816
0.149823
0.149829
0.149836
0.149842
0.149849
0.149855
0.149862
0.149868
0.149874
0.149881
0.149887
0.149893
0.149899
0.149905
0.149911
0.149917
0.149922
0.149928
0.149933
0.149939
0.149944
0.149949
0.149955
0.14996
0.149965
0.14997
0.149974
0.149979
0.149985
0.149983
0.150016
0.139711
0.139673
0.139668
0.13967
0.139674
0.139679
0.139683
0.139688
0.139693
0.139697
0.139702
0.139708
0.139713
0.139718
0.139724
0.139729
0.139735
0.139741
0.139747
0.139753
0.139759
0.139765
0.139771
0.139778
0.139784
0.13979
0.139797
0.139803
0.139809
0.139816
0.139822
0.139828
0.139834
0.139841
0.139847
0.139853
0.139859
0.139865
0.139871
0.139877
0.139883
0.139889
0.139894
0.1399
0.139905
0.139911
0.139916
0.139922
0.139927
0.139932
0.139937
0.139942
0.139947
0.139952
0.139956
0.139961
0.139966
0.139965
0.139997
0.130369
0.130332
0.130327
0.130329
0.130333
0.130338
0.130342
0.130347
0.130351
0.130356
0.130361
0.130366
0.130371
0.130376
0.130381
0.130386
0.130392
0.130397
0.130403
0.130409
0.130414
0.13042
0.130426
0.130432
0.130438
0.130444
0.13045
0.130456
0.130463
0.130469
0.130475
0.130481
0.130487
0.130493
0.130499
0.130505
0.13051
0.130516
0.130522
0.130528
0.130533
0.130539
0.130544
0.13055
0.130555
0.13056
0.130566
0.130571
0.130576
0.130581
0.130586
0.13059
0.130595
0.1306
0.130604
0.130609
0.130614
0.130613
0.130644
0.121664
0.121629
0.121624
0.121626
0.12163
0.121634
0.121638
0.121642
0.121647
0.121651
0.121656
0.121661
0.121665
0.12167
0.121675
0.12168
0.121685
0.121691
0.121696
0.121702
0.121707
0.121713
0.121718
0.121724
0.12173
0.121735
0.121741
0.121747
0.121753
0.121759
0.121764
0.12177
0.121776
0.121782
0.121787
0.121793
0.121799
0.121804
0.12181
0.121815
0.121821
0.121826
0.121831
0.121837
0.121842
0.121847
0.121852
0.121857
0.121862
0.121866
0.121871
0.121876
0.12188
0.121885
0.121889
0.121893
0.121899
0.121898
0.121927
0.113566
0.113532
0.113528
0.11353
0.113533
0.113537
0.113541
0.113545
0.11355
0.113554
0.113558
0.113563
0.113567
0.113572
0.113577
0.113581
0.113586
0.113591
0.113596
0.113602
0.113607
0.113612
0.113618
0.113623
0.113628
0.113634
0.113639
0.113645
0.11365
0.113656
0.113661
0.113667
0.113672
0.113678
0.113683
0.113689
0.113694
0.113699
0.113705
0.11371
0.113715
0.11372
0.113725
0.11373
0.113735
0.11374
0.113745
0.11375
0.113754
0.113759
0.113763
0.113768
0.113772
0.113777
0.113781
0.113785
0.11379
0.11379
0.113817
0.106046
0.106013
0.106008
0.10601
0.106014
0.106018
0.106022
0.106025
0.106029
0.106034
0.106038
0.106042
0.106046
0.106051
0.106055
0.10606
0.106064
0.106069
0.106074
0.106079
0.106084
0.106089
0.106094
0.106099
0.106104
0.106109
0.106115
0.10612
0.106125
0.10613
0.106135
0.106141
0.106146
0.106151
0.106156
0.106161
0.106167
0.106172
0.106177
0.106182
0.106187
0.106191
0.106196
0.106201
0.106206
0.10621
0.106215
0.10622
0.106224
0.106228
0.106233
0.106237
0.106241
0.106245
0.106249
0.106253
0.106258
0.106258
0.106283
0.0990717
0.0990407
0.0990365
0.0990383
0.0990416
0.0990452
0.0990489
0.0990526
0.0990564
0.0990603
0.0990642
0.0990682
0.0990723
0.0990764
0.0990806
0.0990849
0.0990893
0.0990938
0.0990983
0.099103
0.0991076
0.0991124
0.0991172
0.099122
0.0991269
0.0991318
0.0991367
0.0991416
0.0991466
0.0991516
0.0991565
0.0991615
0.0991664
0.0991714
0.0991763
0.0991812
0.099186
0.0991908
0.0991956
0.0992004
0.0992051
0.0992097
0.0992143
0.0992189
0.0992233
0.0992277
0.0992321
0.0992364
0.0992407
0.0992449
0.099249
0.0992531
0.0992571
0.0992611
0.099265
0.0992687
0.0992731
0.0992731
0.099297
0.0926148
0.0925854
0.0925814
0.0925832
0.0925863
0.0925897
0.0925932
0.0925967
0.0926003
0.0926039
0.0926076
0.0926114
0.0926152
0.0926191
0.0926231
0.0926272
0.0926313
0.0926355
0.0926398
0.0926441
0.0926485
0.092653
0.0926575
0.092662
0.0926666
0.0926712
0.0926759
0.0926805
0.0926852
0.0926899
0.0926946
0.0926993
0.0927039
0.0927086
0.0927133
0.0927179
0.0927225
0.0927271
0.0927316
0.0927361
0.0927405
0.0927449
0.0927493
0.0927536
0.0927578
0.092762
0.0927662
0.0927703
0.0927743
0.0927783
0.0927822
0.0927861
0.0927899
0.0927937
0.0927974
0.0928009
0.0928051
0.0928052
0.0928275
0.086645
0.0866172
0.0866135
0.0866152
0.0866181
0.0866213
0.0866246
0.0866279
0.0866313
0.0866347
0.0866381
0.0866417
0.0866453
0.0866489
0.0866527
0.0866565
0.0866603
0.0866643
0.0866683
0.0866723
0.0866765
0.0866807
0.0866849
0.0866892
0.0866935
0.0866978
0.0867022
0.0867066
0.086711
0.0867154
0.0867198
0.0867242
0.0867286
0.086733
0.0867374
0.0867418
0.0867461
0.0867504
0.0867547
0.086759
0.0867632
0.0867673
0.0867715
0.0867755
0.0867795
0.0867835
0.0867874
0.0867913
0.0867951
0.0867989
0.0868026
0.0868063
0.0868099
0.0868135
0.086817
0.0868204
0.0868243
0.0868245
0.0868451
0.0811328
0.0811067
0.0811032
0.0811048
0.0811075
0.0811105
0.0811136
0.0811167
0.0811198
0.081123
0.0811262
0.0811295
0.0811329
0.0811363
0.0811398
0.0811434
0.081147
0.0811507
0.0811544
0.0811582
0.0811621
0.081166
0.0811699
0.0811739
0.081178
0.0811821
0.0811862
0.0811903
0.0811944
0.0811986
0.0812027
0.0812069
0.081211
0.0812151
0.0812193
0.0812234
0.0812275
0.0812315
0.0812356
0.0812396
0.0812435
0.0812475
0.0812513
0.0812552
0.081259
0.0812627
0.0812664
0.0812701
0.0812737
0.0812773
0.0812808
0.0812842
0.0812877
0.081291
0.0812944
0.0812975
0.0813012
0.0813016
0.0813206
0.0760492
0.0760247
0.0760214
0.0760229
0.0760255
0.0760283
0.0760311
0.076034
0.076037
0.0760399
0.0760429
0.076046
0.0760491
0.0760523
0.0760556
0.0760589
0.0760622
0.0760657
0.0760691
0.0760727
0.0760763
0.0760799
0.0760836
0.0760874
0.0760912
0.076095
0.0760988
0.0761027
0.0761065
0.0761104
0.0761143
0.0761182
0.0761221
0.076126
0.0761298
0.0761337
0.0761375
0.0761413
0.0761451
0.0761489
0.0761526
0.0761563
0.07616
0.0761636
0.0761672
0.0761707
0.0761742
0.0761776
0.076181
0.0761844
0.0761877
0.076191
0.0761942
0.0761974
0.0762005
0.0762035
0.076207
0.0762074
0.0762248
0.0713659
0.071343
0.07134
0.0713413
0.0713437
0.0713463
0.071349
0.0713517
0.0713544
0.0713571
0.0713599
0.0713628
0.0713657
0.0713686
0.0713716
0.0713747
0.0713778
0.071381
0.0713842
0.0713875
0.0713909
0.0713943
0.0713977
0.0714012
0.0714047
0.0714083
0.0714118
0.0714154
0.0714191
0.0714227
0.0714263
0.07143
0.0714336
0.0714372
0.0714409
0.0714445
0.0714481
0.0714516
0.0714552
0.0714587
0.0714622
0.0714657
0.0714691
0.0714725
0.0714759
0.0714792
0.0714825
0.0714857
0.0714889
0.0714921
0.0714952
0.0714983
0.0715013
0.0715043
0.0715072
0.0715101
0.0715133
0.0715138
0.0715297
0.0670555
0.0670341
0.0670313
0.0670326
0.0670348
0.0670372
0.0670396
0.0670421
0.0670446
0.0670471
0.0670497
0.0670523
0.067055
0.0670577
0.0670605
0.0670633
0.0670662
0.0670691
0.0670721
0.0670752
0.0670783
0.0670815
0.0670847
0.0670879
0.0670912
0.0670945
0.0670978
0.0671012
0.0671045
0.0671079
0.0671113
0.0671147
0.0671181
0.0671215
0.0671249
0.0671283
0.0671316
0.067135
0.0671383
0.0671416
0.0671449
0.0671481
0.0671514
0.0671545
0.0671577
0.0671608
0.0671639
0.0671669
0.0671699
0.0671729
0.0671758
0.0671787
0.0671815
0.0671843
0.0671871
0.0671898
0.0671928
0.0671934
0.0672078
0.0630914
0.0630716
0.0630689
0.0630701
0.0630721
0.0630743
0.0630765
0.0630788
0.0630811
0.0630834
0.0630858
0.0630882
0.0630907
0.0630932
0.0630957
0.0630983
0.063101
0.0631037
0.0631065
0.0631093
0.0631121
0.0631151
0.063118
0.063121
0.063124
0.0631271
0.0631302
0.0631333
0.0631365
0.0631396
0.0631428
0.0631459
0.0631491
0.0631523
0.0631554
0.0631586
0.0631617
0.0631648
0.063168
0.063171
0.0631741
0.0631771
0.0631802
0.0631831
0.0631861
0.063189
0.0631919
0.0631947
0.0631975
0.0632003
0.063203
0.0632057
0.0632084
0.063211
0.0632136
0.0632161
0.0632189
0.0632196
0.0632327
0.0594482
0.0594298
0.0594273
0.0594284
0.0594303
0.0594323
0.0594343
0.0594364
0.0594385
0.0594406
0.0594428
0.059445
0.0594473
0.0594495
0.0594519
0.0594543
0.0594567
0.0594592
0.0594617
0.0594643
0.059467
0.0594697
0.0594724
0.0594752
0.059478
0.0594808
0.0594837
0.0594866
0.0594895
0.0594924
0.0594953
0.0594983
0.0595012
0.0595042
0.0595071
0.05951
0.059513
0.0595159
0.0595188
0.0595217
0.0595245
0.0595274
0.0595302
0.059533
0.0595357
0.0595384
0.0595411
0.0595438
0.0595464
0.059549
0.0595516
0.0595541
0.0595566
0.059559
0.0595615
0.0595638
0.0595664
0.0595672
0.059579
0.0561018
0.0560848
0.0560825
0.0560834
0.0560851
0.0560869
0.0560888
0.0560907
0.0560926
0.0560945
0.0560965
0.0560985
0.0561006
0.0561027
0.0561048
0.056107
0.0561092
0.0561115
0.0561138
0.0561162
0.0561186
0.0561211
0.0561236
0.0561262
0.0561287
0.0561314
0.056134
0.0561367
0.0561394
0.0561421
0.0561448
0.0561475
0.0561503
0.056153
0.0561557
0.0561585
0.0561612
0.0561639
0.0561666
0.0561693
0.0561719
0.0561746
0.0561772
0.0561798
0.0561824
0.0561849
0.0561874
0.0561899
0.0561924
0.0561948
0.0561972
0.0561995
0.0562019
0.0562042
0.0562065
0.0562087
0.0562111
0.0562119
0.0562225
0.0530291
0.0530135
0.0530113
0.0530122
0.0530137
0.0530153
0.053017
0.0530187
0.0530205
0.0530222
0.053024
0.0530258
0.0530277
0.0530296
0.0530315
0.0530335
0.0530355
0.0530376
0.0530397
0.0530419
0.0530441
0.0530464
0.0530487
0.053051
0.0530534
0.0530558
0.0530583
0.0530607
0.0530632
0.0530657
0.0530682
0.0530708
0.0530733
0.0530758
0.0530784
0.0530809
0.0530834
0.053086
0.0530885
0.053091
0.0530935
0.0530959
0.0530984
0.0531008
0.0531032
0.0531055
0.0531079
0.0531102
0.0531125
0.0531148
0.053117
0.0531192
0.0531214
0.0531235
0.0531256
0.0531277
0.05313
0.0531308
0.0531403
0.0502086
0.0501942
0.0501922
0.050193
0.0501944
0.0501959
0.0501974
0.0501989
0.0502005
0.050202
0.0502037
0.0502053
0.050207
0.0502087
0.0502104
0.0502122
0.0502141
0.050216
0.0502179
0.0502199
0.0502219
0.050224
0.0502261
0.0502282
0.0502304
0.0502326
0.0502349
0.0502372
0.0502394
0.0502418
0.0502441
0.0502464
0.0502488
0.0502511
0.0502534
0.0502558
0.0502581
0.0502605
0.0502628
0.0502651
0.0502674
0.0502697
0.050272
0.0502743
0.0502765
0.0502787
0.0502809
0.050283
0.0502852
0.0502873
0.0502894
0.0502914
0.0502935
0.0502955
0.0502974
0.0502994
0.0503015
0.0503023
0.0503108
0.0476201
0.0476069
0.047605
0.0476057
0.0476069
0.0476082
0.0476096
0.047611
0.0476124
0.0476138
0.0476152
0.0476167
0.0476182
0.0476197
0.0476213
0.0476229
0.0476246
0.0476263
0.0476281
0.0476299
0.0476317
0.0476336
0.0476355
0.0476375
0.0476395
0.0476415
0.0476436
0.0476457
0.0476478
0.0476499
0.047652
0.0476542
0.0476563
0.0476585
0.0476607
0.0476629
0.047665
0.0476672
0.0476694
0.0476715
0.0476737
0.0476758
0.0476779
0.04768
0.0476821
0.0476841
0.0476862
0.0476882
0.0476902
0.0476921
0.0476941
0.047696
0.0476979
0.0476998
0.0477016
0.0477034
0.0477054
0.0477062
0.0477137
0.0452446
0.0452324
0.0452307
0.0452313
0.0452324
0.0452336
0.0452348
0.045236
0.0452372
0.0452385
0.0452398
0.0452411
0.0452425
0.0452438
0.0452453
0.0452467
0.0452482
0.0452498
0.0452513
0.045253
0.0452546
0.0452564
0.0452581
0.0452599
0.0452617
0.0452636
0.0452655
0.0452674
0.0452693
0.0452713
0.0452732
0.0452752
0.0452772
0.0452792
0.0452812
0.0452832
0.0452852
0.0452872
0.0452892
0.0452912
0.0452932
0.0452952
0.0452972
0.0452991
0.045301
0.0453029
0.0453048
0.0453067
0.0453086
0.0453104
0.0453122
0.045314
0.0453158
0.0453175
0.0453192
0.0453209
0.0453227
0.0453236
0.0453303
0.0430646
0.0430534
0.0430518
0.0430523
0.0430533
0.0430543
0.0430554
0.0430565
0.0430576
0.0430587
0.0430598
0.043061
0.0430622
0.0430635
0.0430647
0.043066
0.0430674
0.0430688
0.0430702
0.0430717
0.0430732
0.0430747
0.0430763
0.0430779
0.0430796
0.0430813
0.043083
0.0430848
0.0430865
0.0430883
0.0430901
0.0430919
0.0430938
0.0430956
0.0430975
0.0430993
0.0431012
0.043103
0.0431049
0.0431067
0.0431086
0.0431104
0.0431122
0.043114
0.0431158
0.0431176
0.0431194
0.0431211
0.0431228
0.0431245
0.0431262
0.0431279
0.0431295
0.0431312
0.0431328
0.0431344
0.043136
0.0431369
0.0431428
0.0410638
0.0410536
0.0410521
0.0410526
0.0410534
0.0410543
0.0410553
0.0410562
0.0410572
0.0410582
0.0410592
0.0410602
0.0410613
0.0410624
0.0410635
0.0410647
0.0410659
0.0410671
0.0410684
0.0410697
0.0410711
0.0410725
0.0410739
0.0410754
0.0410769
0.0410784
0.04108
0.0410816
0.0410832
0.0410848
0.0410865
0.0410882
0.0410899
0.0410916
0.0410933
0.041095
0.0410967
0.0410984
0.0411001
0.0411018
0.0411035
0.0411052
0.0411069
0.0411086
0.0411102
0.0411119
0.0411135
0.0411152
0.0411168
0.0411183
0.0411199
0.0411215
0.041123
0.0411245
0.041126
0.0411275
0.041129
0.0411299
0.0411351
0.0392274
0.0392181
0.0392167
0.0392171
0.0392178
0.0392186
0.0392194
0.0392203
0.0392211
0.039222
0.0392229
0.0392238
0.0392247
0.0392257
0.0392267
0.0392277
0.0392288
0.0392299
0.039231
0.0392322
0.0392334
0.0392347
0.039236
0.0392373
0.0392387
0.0392401
0.0392415
0.039243
0.0392444
0.0392459
0.0392474
0.039249
0.0392505
0.0392521
0.0392537
0.0392552
0.0392568
0.0392584
0.03926
0.0392616
0.0392631
0.0392647
0.0392663
0.0392678
0.0392694
0.0392709
0.0392724
0.0392739
0.0392754
0.0392769
0.0392783
0.0392798
0.0392812
0.0392826
0.0392841
0.0392854
0.0392869
0.0392877
0.0392923
0.0375417
0.0375332
0.0375319
0.0375322
0.0375328
0.0375335
0.0375343
0.037535
0.0375357
0.0375365
0.0375373
0.037538
0.0375389
0.0375397
0.0375406
0.0375415
0.0375425
0.0375434
0.0375445
0.0375455
0.0375466
0.0375477
0.0375489
0.0375501
0.0375513
0.0375526
0.0375539
0.0375552
0.0375565
0.0375579
0.0375593
0.0375607
0.0375621
0.0375635
0.037565
0.0375664
0.0375679
0.0375693
0.0375708
0.0375723
0.0375737
0.0375752
0.0375766
0.0375781
0.0375795
0.0375809
0.0375823
0.0375837
0.0375851
0.0375865
0.0375878
0.0375892
0.0375905
0.0375919
0.0375932
0.0375945
0.0375958
0.0375967
0.0376007
0.0359942
0.0359864
0.0359852
0.0359855
0.035986
0.0359866
0.0359872
0.0359879
0.0359885
0.0359892
0.0359898
0.0359905
0.0359912
0.035992
0.0359928
0.0359936
0.0359944
0.0359953
0.0359962
0.0359971
0.0359981
0.0359991
0.0360001
0.0360012
0.0360023
0.0360034
0.0360046
0.0360058
0.036007
0.0360083
0.0360095
0.0360108
0.0360121
0.0360134
0.0360147
0.0360161
0.0360174
0.0360187
0.0360201
0.0360214
0.0360228
0.0360241
0.0360255
0.0360268
0.0360281
0.0360295
0.0360308
0.0360321
0.0360334
0.0360346
0.0360359
0.0360372
0.0360384
0.0360396
0.0360409
0.0360421
0.0360433
0.0360442
0.0360477
0.0345736
0.0345664
0.0345653
0.0345655
0.034566
0.0345665
0.034567
0.0345676
0.0345681
0.0345687
0.0345693
0.0345699
0.0345705
0.0345711
0.0345718
0.0345725
0.0345732
0.034574
0.0345748
0.0345756
0.0345765
0.0345774
0.0345783
0.0345793
0.0345803
0.0345813
0.0345823
0.0345834
0.0345845
0.0345857
0.0345868
0.034588
0.0345892
0.0345904
0.0345916
0.0345928
0.034594
0.0345953
0.0345965
0.0345977
0.034599
0.0346002
0.0346015
0.0346027
0.0346039
0.0346052
0.0346064
0.0346076
0.0346088
0.03461
0.0346112
0.0346123
0.0346135
0.0346146
0.0346158
0.0346169
0.0346181
0.0346189
0.034622
0.0332695
0.0332629
0.0332619
0.033262
0.0332624
0.0332629
0.0332633
0.0332638
0.0332643
0.0332648
0.0332653
0.0332658
0.0332663
0.0332669
0.0332675
0.0332681
0.0332687
0.0332694
0.0332701
0.0332708
0.0332716
0.0332723
0.0332732
0.033274
0.0332749
0.0332758
0.0332768
0.0332778
0.0332788
0.0332798
0.0332808
0.0332819
0.033283
0.0332841
0.0332852
0.0332863
0.0332874
0.0332886
0.0332897
0.0332908
0.033292
0.0332931
0.0332943
0.0332954
0.0332966
0.0332977
0.0332988
0.0333
0.0333011
0.0333022
0.0333033
0.0333044
0.0333055
0.0333066
0.0333076
0.0333087
0.0333098
0.0333106
0.0333133
0.0320726
0.0320667
0.0320657
0.0320658
0.0320661
0.0320665
0.0320669
0.0320673
0.0320677
0.0320681
0.0320685
0.032069
0.0320694
0.0320699
0.0320704
0.0320709
0.0320715
0.0320721
0.0320727
0.0320733
0.032074
0.0320747
0.0320754
0.0320762
0.032077
0.0320778
0.0320786
0.0320795
0.0320804
0.0320813
0.0320823
0.0320833
0.0320842
0.0320852
0.0320862
0.0320873
0.0320883
0.0320894
0.0320904
0.0320915
0.0320925
0.0320936
0.0320946
0.0320957
0.0320968
0.0320978
0.0320989
0.0320999
0.032101
0.032102
0.032103
0.032104
0.032105
0.032106
0.032107
0.032108
0.032109
0.0321098
0.0321122
0.0309747
0.0309692
0.0309683
0.0309684
0.0309687
0.030969
0.0309693
0.0309697
0.03097
0.0309703
0.0309707
0.0309711
0.0309715
0.0309719
0.0309723
0.0309727
0.0309732
0.0309737
0.0309742
0.0309748
0.0309754
0.030976
0.0309767
0.0309773
0.030978
0.0309788
0.0309795
0.0309803
0.0309811
0.030982
0.0309828
0.0309837
0.0309846
0.0309855
0.0309864
0.0309874
0.0309883
0.0309893
0.0309902
0.0309912
0.0309922
0.0309932
0.0309941
0.0309951
0.0309961
0.0309971
0.0309981
0.030999
0.031
0.031001
0.0310019
0.0310029
0.0310038
0.0310048
0.0310057
0.0310066
0.0310076
0.0310083
0.0310104
0.0299682
0.0299631
0.0299623
0.0299623
0.0299626
0.0299628
0.0299631
0.0299634
0.0299637
0.029964
0.0299643
0.0299646
0.0299649
0.0299653
0.0299656
0.029966
0.0299664
0.0299668
0.0299673
0.0299678
0.0299683
0.0299688
0.0299694
0.02997
0.0299706
0.0299713
0.029972
0.0299727
0.0299734
0.0299741
0.0299749
0.0299757
0.0299765
0.0299774
0.0299782
0.0299791
0.0299799
0.0299808
0.0299817
0.0299826
0.0299835
0.0299844
0.0299853
0.0299862
0.0299871
0.029988
0.0299889
0.0299898
0.0299907
0.0299916
0.0299925
0.0299934
0.0299943
0.0299952
0.0299961
0.0299969
0.0299978
0.0299985
0.0300004
0.0290464
0.0290417
0.0290409
0.029041
0.0290412
0.0290414
0.0290416
0.0290419
0.0290421
0.0290424
0.0290426
0.0290429
0.0290431
0.0290434
0.0290437
0.0290441
0.0290444
0.0290448
0.0290452
0.0290456
0.029046
0.0290465
0.029047
0.0290475
0.0290481
0.0290487
0.0290493
0.0290499
0.0290506
0.0290512
0.0290519
0.0290526
0.0290534
0.0290541
0.0290549
0.0290557
0.0290565
0.0290573
0.0290581
0.0290589
0.0290598
0.0290606
0.0290614