/*--------------------------------*- C++ -*----------------------------------*\
  =========                 |
  \\      /  F ield         | OpenFOAM: The Open Source CFD Toolbox
   \\    /   O peration     | Website:  https://openfoam.org
    \\  /    A nd           | Version:  7
     \\/     M anipulation  |
\*---------------------------------------------------------------------------*/
FoamFile
{
    version     2.0;
    format      ascii;
    class       surfaceScalarField;
    location    "17500";
    object      phi;
}
// * * * * * * * * * * * * * * * * * * * * * * * * * * * * * * * * * * * * * //

dimensions      [0 3 -1 0 0 0 0];

internalField   nonuniform List<scalar> 
7846
(
0.000784091
-1.7517e-10
0.000784091
-2.21163e-10
0.000784091
-2.48578e-10
0.000784091
-2.70422e-10
0.000784091
-2.90669e-10
0.000784091
-3.10259e-10
0.000784091
-3.29186e-10
0.000784091
-3.47313e-10
0.000784091
-3.64511e-10
0.000784091
-3.80686e-10
0.000784091
-3.95792e-10
0.000784091
-4.09805e-10
0.000784091
-4.22715e-10
0.000784091
-4.34545e-10
0.000784091
-4.45343e-10
0.00078409
-4.55169e-10
0.00078409
-4.64082e-10
0.00078409
-4.72123e-10
0.00078409
-4.79307e-10
0.00078409
-4.85614e-10
0.00078409
-4.91001e-10
0.00078409
-4.95407e-10
0.00078409
-4.98759e-10
0.00078409
-5.01016e-10
0.00078409
-5.02189e-10
0.00078409
-5.02346e-10
0.00078409
-5.01598e-10
0.00078409
-5.00084e-10
0.00078409
-4.97944e-10
0.00078409
-4.95295e-10
0.00078409
-4.92207e-10
0.000784089
-4.88684e-10
0.000784089
-4.84643e-10
0.000784089
-4.79891e-10
0.000784089
-4.74077e-10
0.000784089
-4.66637e-10
0.000784089
-4.56711e-10
0.000784089
-4.43043e-10
0.000784089
-4.23797e-10
0.000784089
-3.96374e-10
0.000784089
-3.56793e-10
0.000784089
-2.99481e-10
0.000784089
-2.13954e-10
0.000784089
-8.53445e-11
0.000784089
1.22208e-10
0.000784088
3.46088e-10
0.000784088
4.96658e-10
0.000784088
5.90653e-10
0.000784088
6.49748e-10
0.000784088
6.8481e-10
0.000784088
7.03611e-10
0.000784088
7.11313e-10
0.000784088
7.11217e-10
0.000784088
7.05606e-10
0.000784088
6.96093e-10
0.000784088
6.83836e-10
0.000784088
6.6966e-10
0.000784088
6.54143e-10
0.000784088
6.37694e-10
0.000784088
6.20586e-10
0.000784088
6.02985e-10
0.000784088
5.84978e-10
0.000784088
5.66616e-10
0.000784088
5.47923e-10
0.000784088
5.289e-10
0.000784088
5.09546e-10
0.000784088
4.89862e-10
0.000784088
4.69852e-10
0.000784088
4.49505e-10
0.000784088
4.28818e-10
0.000784088
4.07812e-10
0.000784088
3.8651e-10
0.000784088
3.64915e-10
0.000784088
3.43012e-10
0.000784088
3.20783e-10
0.000784088
2.98211e-10
0.000784088
2.75268e-10
0.000784088
2.51896e-10
0.000784089
2.28021e-10
0.000784089
2.03579e-10
0.000784089
1.78523e-10
0.000784089
1.52812e-10
0.000784089
1.26393e-10
0.000784089
9.92118e-11
0.000784089
7.12292e-11
0.000784089
4.2428e-11
0.000784089
1.28142e-11
0.000784089
-1.75968e-11
0.000784089
-4.87797e-11
0.000784089
-8.06738e-11
0.000784089
-1.13161e-10
0.000784089
-1.46052e-10
0.00078409
-1.79063e-10
0.00078409
-2.11785e-10
0.00078409
-2.43624e-10
0.00078409
-2.73708e-10
0.00078409
-3.00779e-10
0.00078409
-3.23015e-10
0.00078409
-3.37836e-10
0.00078409
-3.41241e-10
0.00078409
-3.27569e-10
0.00078409
-2.86163e-10
0.00078409
-2.01905e-10
0.00078409
-3.84705e-11
0.00078409
1.41771e-10
0.00078409
2.49207e-10
0.000784091
3.00972e-10
0.000784091
3.19198e-10
0.000784091
3.15159e-10
0.000784091
2.96986e-10
0.000784091
2.70148e-10
0.000784091
2.38235e-10
0.000784091
2.03832e-10
0.000784091
1.68853e-10
0.000784091
1.34781e-10
0.000784091
1.02714e-10
0.000784091
7.36207e-11
0.000784091
4.69225e-11
0.000784091
1.09514e-11
-7.85256e-11
0.000765992
-2.13708e-10
0.000765992
-2.65463e-10
0.000765992
-2.82679e-10
0.000765992
-2.91248e-10
0.000765992
-2.98822e-10
0.000765992
-3.07152e-10
0.000765992
-3.16234e-10
0.000765992
-3.25796e-10
0.000765992
-3.35557e-10
0.000765992
-3.45282e-10
0.000765992
-3.548e-10
0.000765992
-3.63977e-10
0.000765992
-3.72714e-10
0.000765992
-3.80956e-10
0.000765992
-3.88685e-10
0.000765992
-3.95906e-10
0.000765992
-4.02621e-10
0.000765992
-4.08822e-10
0.000765991
-4.14472e-10
0.000765991
-4.19506e-10
0.000765991
-4.23839e-10
0.000765991
-4.27355e-10
0.000765991
-4.2993e-10
0.000765991
-4.31482e-10
0.000765991
-4.31998e-10
0.000765991
-4.31533e-10
0.000765991
-4.30192e-10
0.000765991
-4.28114e-10
0.000765991
-4.25436e-10
0.000765991
-4.22268e-10
0.000765991
-4.18668e-10
0.000765991
-4.14619e-10
0.00076599
-4.10001e-10
0.00076599
-4.04576e-10
0.00076599
-3.97952e-10
0.00076599
-3.89525e-10
0.00076599
-3.78393e-10
0.00076599
-3.63266e-10
0.00076599
-3.423e-10
0.00076599
-3.12935e-10
0.00076599
-2.71384e-10
0.00076599
-2.12528e-10
0.00076599
-1.27497e-10
0.00076599
-6.1932e-12
0.00076599
1.72479e-10
0.00076599
3.6668e-10
0.00076599
5.11137e-10
0.000765989
6.08215e-10
0.000765989
6.71467e-10
0.000765989
7.09909e-10
0.000765989
7.30919e-10
0.000765989
7.39733e-10
0.000765989
7.39829e-10
0.000765989
7.33634e-10
0.000765989
7.22886e-10
0.000765989
7.08843e-10
0.000765989
6.92418e-10
0.000765989
6.74265e-10
0.000765989
6.54857e-10
0.000765989
6.34529e-10
0.000765989
6.13495e-10
0.000765989
5.91887e-10
0.000765989
5.69796e-10
0.000765989
5.47285e-10
0.000765989
5.24389e-10
0.000765989
5.01125e-10
0.000765989
4.77517e-10
0.000765989
4.53585e-10
0.000765989
4.29332e-10
0.000765989
4.04765e-10
0.000765989
3.79912e-10
0.000765989
3.54808e-10
0.000765989
3.29464e-10
0.000765989
3.03878e-10
0.000765989
2.78042e-10
0.000765989
2.51952e-10
0.00076599
2.25592e-10
0.00076599
1.98915e-10
0.00076599
1.71862e-10
0.00076599
1.4438e-10
0.00076599
1.16437e-10
0.00076599
8.8007e-11
0.00076599
5.90514e-11
0.00076599
2.95307e-11
0.00076599
-5.79284e-13
0.00076599
-3.12721e-11
0.00076599
-6.25139e-11
0.00076599
-9.42639e-11
0.00076599
-1.26471e-10
0.00076599
-1.59044e-10
0.000765991
-1.91823e-10
0.000765991
-2.24582e-10
0.000765991
-2.56996e-10
0.000765991
-2.88612e-10
0.000765991
-3.18792e-10
0.000765991
-3.4663e-10
0.000765991
-3.70843e-10
0.000765991
-3.8962e-10
0.000765991
-4.00433e-10
0.000765991
-3.99481e-10
0.000765991
-3.8155e-10
0.000765991
-3.37578e-10
0.000765991
-2.57185e-10
0.000765991
-1.18819e-10
0.000765991
3.60352e-11
0.000765992
1.42316e-10
0.000765992
2.02846e-10
0.000765992
2.31716e-10
0.000765992
2.38462e-10
0.000765992
2.30938e-10
0.000765992
2.14826e-10
0.000765992
1.94043e-10
0.000765992
1.7151e-10
0.000765992
1.49467e-10
0.000765992
1.29748e-10
0.000765992
1.13725e-10
0.000765992
1.0268e-10
0.000765992
9.50341e-11
0.000765992
6.80913e-11
-6.47687e-11
0.000748249
-2.53381e-10
0.000748249
-3.10288e-10
0.000748249
-3.16522e-10
0.000748249
-3.10989e-10
0.000748249
-3.05138e-10
0.000748249
-3.01542e-10
0.000748249
-3.00195e-10
0.000748249
-3.00665e-10
0.000748249
-3.02503e-10
0.000748249
-3.05323e-10
0.000748248
-3.08825e-10
0.000748248
-3.12766e-10
0.000748248
-3.16955e-10
0.000748248
-3.21262e-10
0.000748248
-3.25608e-10
0.000748248
-3.29937e-10
0.000748248
-3.34203e-10
0.000748248
-3.38345e-10
0.000748248
-3.42279e-10
0.000748248
-3.45893e-10
0.000748248
-3.4905e-10
0.000748248
-3.51577e-10
0.000748248
-3.53288e-10
0.000748248
-3.54056e-10
0.000748248
-3.53837e-10
0.000748247
-3.52679e-10
0.000748247
-3.50686e-10
0.000748247
-3.47997e-10
0.000748247
-3.44751e-10
0.000748247
-3.4106e-10
0.000748247
-3.3698e-10
0.000748247
-3.32481e-10
0.000748247
-3.27417e-10
0.000748247
-3.21517e-10
0.000748247
-3.14364e-10
0.000748247
-3.05329e-10
0.000748247
-2.93498e-10
0.000748246
-2.77583e-10
0.000748246
-2.55782e-10
0.000748246
-2.25657e-10
0.000748246
-1.83735e-10
0.000748246
-1.25535e-10
0.000748246
-4.39443e-11
0.000748246
6.75987e-11
0.000748246
2.2039e-10
0.000748246
3.86446e-10
0.000748246
5.20196e-10
0.000748246
6.17162e-10
0.000748246
6.83732e-10
0.000748246
7.25905e-10
0.000748246
7.49836e-10
0.000748246
7.60483e-10
0.000748246
7.614e-10
0.000748246
7.5516e-10
0.000748246
7.43641e-10
0.000748246
7.28221e-10
0.000748246
7.09914e-10
0.000748246
6.8946e-10
0.000748246
6.67411e-10
0.000748246
6.44164e-10
0.000748246
6.19985e-10
0.000748246
5.95052e-10
0.000748246
5.695e-10
0.000748246
5.43438e-10
0.000748246
5.16933e-10
0.000748246
4.90024e-10
0.000748246
4.62752e-10
0.000748246
4.35154e-10
0.000748246
4.07252e-10
0.000748246
3.7906e-10
0.000748246
3.50615e-10
0.000748246
3.21961e-10
0.000748246
2.9312e-10
0.000748246
2.64099e-10
0.000748246
2.34901e-10
0.000748246
2.05535e-10
0.000748246
1.75995e-10
0.000748246
1.46246e-10
0.000748246
1.1624e-10
0.000748246
8.59377e-11
0.000748246
5.53215e-11
0.000748246
2.43782e-11
0.000748246
-6.9142e-12
0.000748246
-3.85817e-11
0.000748247
-7.06337e-11
0.000748247
-1.03042e-10
0.000748247
-1.35749e-10
0.000748247
-1.68691e-10
0.000748247
-2.01793e-10
0.000748247
-2.34933e-10
0.000748247
-2.67918e-10
0.000748247
-3.0049e-10
0.000748247
-3.32296e-10
0.000748247
-3.62851e-10
0.000748247
-3.91492e-10
0.000748247
-4.17305e-10
0.000748247
-4.39026e-10
0.000748247
-4.54914e-10
0.000748248
-4.62584e-10
0.000748248
-4.58563e-10
0.000748248
-4.38279e-10
0.000748248
-3.94409e-10
0.000748248
-3.20081e-10
0.000748248
-2.03535e-10
0.000748248
-7.23141e-11
0.000748248
2.83945e-11
0.000748248
9.46576e-11
0.000748248
1.33491e-10
0.000748248
1.51515e-10
0.000748248
1.55478e-10
0.000748249
1.50908e-10
0.000748249
1.41954e-10
0.000748249
1.31864e-10
0.000748249
1.23221e-10
0.000748249
1.18222e-10
0.000748249
1.18513e-10
0.000748249
1.25681e-10
0.000748249
1.37247e-10
0.000748249
1.20048e-10
-5.39973e-11
0.000730858
-2.93351e-10
0.000730858
-3.54918e-10
0.000730858
-3.49726e-10
0.000730858
-3.29453e-10
0.000730858
-3.09439e-10
0.000730858
-2.93178e-10
0.000730858
-2.80724e-10
0.000730858
-2.715e-10
0.000730858
-2.6488e-10
0.000730858
-2.60318e-10
0.000730858
-2.57376e-10
0.000730858
-2.55693e-10
0.000730858
-2.54986e-10
0.000730858
-2.55053e-10
0.000730858
-2.55745e-10
0.000730858
-2.56949e-10
0.000730858
-2.58569e-10
0.000730858
-2.60497e-10
0.000730858
-2.62601e-10
0.000730858
-2.64717e-10
0.000730857
-2.66653e-10
0.000730857
-2.68168e-10
0.000730857
-2.69002e-10
0.000730857
-2.68974e-10
0.000730857
-2.68011e-10
0.000730857
-2.66151e-10
0.000730857
-2.63505e-10
0.000730857
-2.60219e-10
0.000730857
-2.56438e-10
0.000730857
-2.52285e-10
0.000730857
-2.47823e-10
0.000730856
-2.43019e-10
0.000730856
-2.37711e-10
0.000730856
-2.31609e-10
0.000730856
-2.24278e-10
0.000730856
-2.15084e-10
0.000730856
-2.03116e-10
0.000730856
-1.87115e-10
0.000730856
-1.65363e-10
0.000730856
-1.35592e-10
0.000730856
-9.46978e-11
0.000730856
-3.88836e-11
0.000730855
3.73468e-11
0.000730855
1.38087e-10
0.000730855
2.68632e-10
0.000730855
4.09565e-10
0.000730855
5.29401e-10
0.000730855
6.21735e-10
0.000730855
6.88555e-10
0.000730855
7.33009e-10
0.000730855
7.59479e-10
0.000730855
7.72115e-10
0.000730855
7.74229e-10
0.000730855
7.68389e-10
0.000730855
7.56549e-10
0.000730855
7.40187e-10
0.000730855
7.2041e-10
0.000730855
6.98048e-10
0.000730855
6.73734e-10
0.000730855
6.4793e-10
0.000730855
6.20954e-10
0.000730855
5.93032e-10
0.000730855
5.64347e-10
0.000730855
5.35054e-10
0.000730855
5.05256e-10
0.000730855
4.75013e-10
0.000730855
4.44383e-10
0.000730855
4.13426e-10
0.000730855
3.82176e-10
0.000730855
3.50657e-10
0.000730855
3.18914e-10
0.000730855
2.87001e-10
0.000730855
2.54953e-10
0.000730856
2.22783e-10
0.000730856
1.90507e-10
0.000730856
1.58143e-10
0.000730856
1.25695e-10
0.000730856
9.31387e-11
0.000730856
6.04368e-11
0.000730856
2.75633e-11
0.000730856
-5.48671e-12
0.000730856
-3.87105e-11
0.000730856
-7.2114e-11
0.000730856
-1.0571e-10
0.000730856
-1.39495e-10
0.000730856
-1.73421e-10
0.000730856
-2.07411e-10
0.000730856
-2.41381e-10
0.000730856
-2.75234e-10
0.000730857
-3.08816e-10
0.000730857
-3.41908e-10
0.000730857
-3.74226e-10
0.000730857
-4.05396e-10
0.000730857
-4.34916e-10
0.000730857
-4.62111e-10
0.000730857
-4.86085e-10
0.000730857
-5.05623e-10
0.000730857
-5.19101e-10
0.000730857
-5.24337e-10
0.000730857
-5.1826e-10
0.000730857
-4.96993e-10
0.000730857
-4.54815e-10
0.000730857
-3.87291e-10
0.000730857
-2.88645e-10
0.000730858
-1.77785e-10
0.000730858
-8.56568e-11
0.000730858
-1.80125e-11
0.000730858
2.78629e-11
0.000730858
5.58464e-11
0.000730858
7.1021e-11
0.000730858
7.82334e-11
0.000730858
8.15383e-11
0.000730858
8.4358e-11
0.000730858
8.95504e-11
0.000730858
9.9647e-11
0.000730858
1.16561e-10
0.000730858
1.42176e-10
0.000730858
1.73263e-10
0.000730858
1.66985e-10
-4.55642e-11
0.000713818
-3.32747e-10
0.000713818
-3.98336e-10
0.000713818
-3.8137e-10
0.000713818
-3.45907e-10
0.000713818
-3.11154e-10
0.000713818
-2.81593e-10
0.000713818
-2.57404e-10
0.000713818
-2.37904e-10
0.000713818
-2.22307e-10
0.000713818
-2.09905e-10
0.000713818
-2.00115e-10
0.000713818
-1.92456e-10
0.000713818
-1.86552e-10
0.000713818
-1.8212e-10
0.000713818
-1.78941e-10
0.000713818
-1.76842e-10
0.000713817
-1.75682e-10
0.000713817
-1.75307e-10
0.000713817
-1.75534e-10
0.000713817
-1.76145e-10
0.000713817
-1.76889e-10
0.000713817
-1.77443e-10
0.000713817
-1.77458e-10
0.000713817
-1.76692e-10
0.000713817
-1.75034e-10
0.000713817
-1.72521e-10
0.000713817
-1.69277e-10
0.000713816
-1.6546e-10
0.000713816
-1.61236e-10
0.000713816
-1.56743e-10
0.000713816
-1.52061e-10
0.000713816
-1.47165e-10
0.000713816
-1.41886e-10
0.000713816
-1.35923e-10
0.000713816
-1.28837e-10
0.000713816
-1.19996e-10
0.000713816
-1.08507e-10
0.000713815
-9.31561e-11
0.000713815
-7.23279e-11
0.000713815
-4.39493e-11
0.000713815
-5.29831e-12
0.000713815
4.67788e-11
0.000713815
1.1642e-10
0.000713815
2.06043e-10
0.000713815
3.17481e-10
0.000713815
4.36642e-10
0.000713815
5.41461e-10
0.000713815
6.25706e-10
0.000713815
6.89263e-10
0.000713815
7.33394e-10
0.000713815
7.60846e-10
0.000713815
7.74716e-10
0.000713815
7.77784e-10
0.000713815
7.72395e-10
0.000713815
7.60445e-10
0.000713815
7.43436e-10
0.000713815
7.22529e-10
0.000713815
6.98623e-10
0.000713815
6.72416e-10
0.000713815
6.4443e-10
0.000713815
6.1503e-10
0.000713815
5.84488e-10
0.000713815
5.53037e-10
0.000713815
5.20875e-10
0.000713815
4.8814e-10
0.000713815
4.54915e-10
0.000713815
4.21279e-10
0.000713815
3.87308e-10
0.000713815
3.53052e-10
0.000713815
3.18544e-10
0.000713815
2.83837e-10
0.000713815
2.48996e-10
0.000713815
2.14068e-10
0.000713815
1.79076e-10
0.000713815
1.44042e-10
0.000713815
1.08992e-10
0.000713815
7.39405e-11
0.000713815
3.88748e-11
0.000713815
3.76647e-12
0.000713816
-3.13997e-11
0.000713816
-6.66145e-11
0.000713816
-1.01858e-10
0.000713816
-1.3712e-10
0.000713816
-1.72403e-10
0.000713816
-2.07688e-10
0.000713816
-2.42913e-10
0.000713816
-2.77984e-10
0.000713816
-3.12802e-10
0.000713816
-3.47244e-10
0.000713816
-3.81128e-10
0.000713816
-4.1421e-10
0.000713816
-4.46191e-10
0.000713816
-4.76681e-10
0.000713816
-5.05167e-10
0.000713817
-5.3098e-10
0.000713817
-5.53257e-10
0.000713817
-5.70858e-10
0.000713817
-5.82311e-10
0.000713817
-5.85668e-10
0.000713817
-5.78291e-10
0.000713817
-5.56972e-10
0.000713817
-5.17335e-10
0.000713817
-4.56587e-10
0.000713817
-3.72395e-10
0.000713817
-2.78283e-10
0.000713817
-1.9563e-10
0.000713817
-1.29893e-10
0.000713818
-8.035e-11
0.000713818
-4.48974e-11
0.000713818
-1.99754e-11
0.000713818
-1.66428e-12
0.000713818
1.37012e-11
0.000713818
2.94956e-11
0.000713818
4.87141e-11
0.000713818
7.4144e-11
0.000713818
1.07917e-10
0.000713818
1.52204e-10
0.000713818
2.03189e-10
0.000713818
2.09294e-10
-3.87972e-11
0.000697124
-3.70486e-10
0.000697124
-4.39315e-10
0.000697124
-4.10193e-10
0.000697124
-3.59184e-10
0.000697124
-3.09281e-10
0.000697124
-2.65957e-10
0.000697124
-2.29556e-10
0.000697124
-1.99323e-10
0.000697124
-1.74328e-10
0.000697124
-1.53712e-10
0.000697124
-1.3675e-10
0.000697124
-1.22839e-10
0.000697124
-1.11507e-10
0.000697124
-1.02388e-10
0.000697124
-9.51917e-11
0.000697124
-8.96844e-11
0.000697124
-8.56815e-11
0.000697124
-8.29824e-11
0.000697123
-8.13594e-11
0.000697123
-8.05368e-11
0.000697123
-8.01946e-11
0.000697123
-7.99136e-11
0.000697123
-7.92408e-11
0.000697123
-7.78577e-11
0.000697123
-7.56144e-11
0.000697123
-7.25502e-11
0.000697123
-6.88105e-11
0.000697123
-6.45821e-11
0.000697122
-6.00586e-11
0.000697122
-5.54076e-11
0.000697122
-5.07344e-11
0.000697122
-4.60271e-11
0.000697122
-4.11218e-11
0.000697122
-3.57154e-11
0.000697122
-2.93686e-11
0.000697122
-2.14582e-11
0.000697122
-1.11136e-11
0.000697122
2.82461e-12
0.000697121
2.1862e-11
0.000697121
4.78746e-11
0.000697121
8.32238e-11
0.000697121
1.30496e-10
0.000697121
1.92751e-10
0.000697121
2.71289e-10
0.000697121
3.66046e-10
0.000697121
4.66392e-10
0.000697121
5.56441e-10
0.000697121
6.30713e-10
0.000697121
6.88275e-10
0.000697121
7.29422e-10
0.000697121
7.55758e-10
0.000697121
7.69431e-10
0.000697121
7.72592e-10
0.000697121
7.67212e-10
0.000697121
7.55e-10
0.000697121
7.37381e-10
0.000697121
7.15506e-10
0.000697121
6.90299e-10
0.000697121
6.62497e-10
0.000697121
6.32658e-10
0.000697121
6.01184e-10
0.000697121
5.68388e-10
0.000697121
5.34545e-10
0.000697121
4.99892e-10
0.000697121
4.64595e-10
0.000697121
4.28765e-10
0.000697121
3.925e-10
0.000697121
3.55891e-10
0.000697121
3.19002e-10
0.000697121
2.81874e-10
0.000697121
2.44567e-10
0.000697121
2.07159e-10
0.000697121
1.69711e-10
0.000697121
1.32253e-10
0.000697121
9.48121e-11
0.000697122
5.74194e-11
0.000697122
2.00996e-11
0.000697122
-1.71501e-11
0.000697122
-5.43491e-11
0.000697122
-9.15023e-11
0.000697122
-1.28586e-10
0.000697122
-1.65562e-10
0.000697122
-2.02407e-10
0.000697122
-2.39112e-10
0.000697122
-2.75646e-10
0.000697122
-3.11932e-10
0.000697122
-3.47866e-10
0.000697122
-3.83333e-10
0.000697122
-4.18187e-10
0.000697122
-4.52217e-10
0.000697122
-4.85159e-10
0.000697123
-5.16703e-10
0.000697123
-5.46449e-10
0.000697123
-5.7388e-10
0.000697123
-5.98342e-10
0.000697123
-6.19024e-10
0.000697123
-6.34873e-10
0.000697123
-6.44589e-10
0.000697123
-6.46482e-10
0.000697123
-6.38343e-10
0.000697123
-6.17571e-10
0.000697123
-5.80856e-10
0.000697123
-5.26485e-10
0.000697123
-4.54009e-10
0.000697123
-3.73434e-10
0.000697124
-2.99806e-10
0.000697124
-2.37704e-10
0.000697124
-1.87102e-10
0.000697124
-1.46743e-10
0.000697124
-1.14092e-10
0.000697124
-8.60506e-11
0.000697124
-5.94441e-11
0.000697124
-3.11002e-11
0.000697124
1.97532e-12
0.000697124
4.27225e-11
0.000697124
9.34208e-11
0.000697124
1.56506e-10
0.000697124
2.27745e-10
0.000697124
2.47844e-10
-3.26992e-11
0.000680773
-4.05127e-10
0.000680773
-4.76365e-10
0.000680773
-4.34688e-10
0.000680773
-3.67837e-10
0.000680773
-3.02508e-10
0.000680773
-2.45139e-10
0.000680773
-1.96244e-10
0.000680773
-1.55003e-10
0.000680773
-1.20355e-10
0.000680773
-9.12975e-11
0.000680772
-6.69686e-11
0.000680772
-4.66488e-11
0.000680772
-2.97678e-11
0.000680772
-1.58762e-11
0.000680772
-4.60883e-12
0.000680772
4.32364e-12
0.000680772
1.11477e-11
0.000680772
1.61072e-11
0.000680772
1.94725e-11
0.000680772
2.15784e-11
0.000680772
2.28194e-11
0.000680771
2.37297e-11
0.000680771
2.48894e-11
0.000680771
2.67028e-11
0.000680771
2.93671e-11
0.000680771
3.28318e-11
0.000680771
3.69145e-11
0.000680771
4.13853e-11
0.000680771
4.60075e-11
0.000680771
5.05733e-11
0.00068077
5.49429e-11
0.00068077
5.91051e-11
0.00068077
6.3214e-11
0.00068077
6.75702e-11
0.00068077
7.26105e-11
0.00068077
7.8949e-11
0.00068077
8.74329e-11
0.00068077
9.91697e-11
0.00068077
1.1556e-10
0.00068077
1.38293e-10
0.000680769
1.69409e-10
0.000680769
2.11018e-10
0.000680769
2.65354e-10
0.000680769
3.32988e-10
0.000680769
4.12872e-10
0.000680769
4.96762e-10
0.000680769
5.72873e-10
0.000680769
6.36484e-10
0.000680769
6.864e-10
0.000680769
7.22509e-10
0.000680769
7.45756e-10
0.000680769
7.57611e-10
0.000680769
7.59668e-10
0.000680769
7.53497e-10
0.000680769
7.40545e-10
0.000680769
7.22085e-10
0.000680769
6.99192e-10
0.000680769
6.72767e-10
0.000680769
6.43545e-10
0.000680769
6.12095e-10
0.000680769
5.78838e-10
0.000680769
5.44115e-10
0.000680769
5.08231e-10
0.000680769
4.71451e-10
0.000680769
4.33968e-10
0.00068077
3.95915e-10
0.00068077
3.57405e-10
0.00068077
3.18545e-10
0.00068077
2.7941e-10
0.00068077
2.40049e-10
0.00068077
2.00528e-10
0.00068077
1.60935e-10
0.00068077
1.21347e-10
0.00068077
8.1802e-11
0.00068077
4.23255e-11
0.00068077
2.95411e-12
0.00068077
-3.62785e-11
0.00068077
-7.5366e-11
0.00068077
-1.14319e-10
0.00068077
-1.53132e-10
0.00068077
-1.91766e-10
0.00068077
-2.30168e-10
0.00068077
-2.68302e-10
0.00068077
-3.06149e-10
0.000680771
-3.43666e-10
0.000680771
-3.80765e-10
0.000680771
-4.1733e-10
0.000680771
-4.53234e-10
0.000680771
-4.88307e-10
0.000680771
-5.22315e-10
0.000680771
-5.54975e-10
0.000680771
-5.85969e-10
0.000680771
-6.14889e-10
0.000680771
-6.41222e-10
0.000680771
-6.64336e-10
0.000680771
-6.83482e-10
0.000680771
-6.97704e-10
0.000680771
-7.0589e-10
0.000680771
-7.06609e-10
0.000680772
-6.98069e-10
0.000680772
-6.78205e-10
0.000680772
-6.4451e-10
0.000680772
-5.95965e-10
0.000680772
-5.33095e-10
0.000680772
-4.63474e-10
0.000680772
-3.9787e-10
0.000680772
-3.39957e-10
0.000680772
-2.89846e-10
0.000680772
-2.46551e-10
0.000680772
-2.08074e-10
0.000680772
-1.71866e-10
0.000680773
-1.3517e-10
0.000680773
-9.50522e-11
0.000680773
-4.86008e-11
0.000680773
7.19211e-12
0.000680773
7.46846e-11
0.000680773
1.56548e-10
0.000680773
2.48305e-10
0.000680773
2.84053e-10
-2.58143e-11
0.000664759
-4.34853e-10
0.000664759
-5.07712e-10
0.000664759
-4.53138e-10
0.000664759
-3.70236e-10
0.000664759
-2.89343e-10
0.000664759
-2.17834e-10
0.000664759
-1.56371e-10
0.000664759
-1.04061e-10
0.000664759
-5.9707e-11
0.000664759
-2.21666e-11
0.000664758
9.55102e-12
0.000664758
3.62807e-11
0.000664758
5.86907e-11
0.000664758
7.73152e-11
0.000664758
9.25891e-11
0.000664758
1.04856e-10
0.000664758
1.14379e-10
0.000664758
1.21444e-10
0.000664758
1.26354e-10
0.000664758
1.29505e-10
0.000664757
1.31373e-10
0.000664757
1.32629e-10
0.000664757
1.34003e-10
0.000664757
1.35998e-10
0.000664757
1.38864e-10
0.000664757
1.4253e-10
0.000664757
1.46757e-10
0.000664757
1.5125e-10
0.000664757
1.55713e-10
0.000664756
1.59885e-10
0.000664756
1.63581e-10
0.000664756
1.66761e-10
0.000664756
1.69566e-10
0.000664756
1.72294e-10
0.000664756
1.75384e-10
0.000664756
1.79445e-10
0.000664756
1.85307e-10
0.000664756
1.94034e-10
0.000664756
2.06934e-10
0.000664755
2.25533e-10
0.000664755
2.51594e-10
0.000664755
2.86842e-10
0.000664755
3.32895e-10
0.000664755
3.89859e-10
0.000664755
4.56229e-10
0.000664755
5.25477e-10
0.000664755
5.88626e-10
0.000664755
6.4159e-10
0.000664755
6.83099e-10
0.000664755
7.12893e-10
0.000664755
7.31579e-10
0.000664755
7.40205e-10
0.000664755
7.39965e-10
0.000664755
7.32084e-10
0.000664755
7.17742e-10
0.000664755
6.98027e-10
0.000664755
6.73901e-10
0.000664755
6.46194e-10
0.000664755
6.15606e-10
0.000664755
5.82691e-10
0.000664755
5.47869e-10
0.000664755
5.11489e-10
0.000664755
4.73872e-10
0.000664755
4.35301e-10
0.000664755
3.95988e-10
0.000664756
3.56081e-10
0.000664756
3.15703e-10
0.000664756
2.74975e-10
0.000664756
2.33983e-10
0.000664756
1.92781e-10
0.000664756
1.51438e-10
0.000664756
1.10052e-10
0.000664756
6.87143e-11
0.000664756
2.74673e-11
0.000664756
-1.36634e-11
0.000664756
-5.46383e-11
0.000664756
-9.54165e-11
0.000664756
-1.35984e-10
0.000664756
-1.76341e-10
0.000664756
-2.16473e-10
0.000664756
-2.56326e-10
0.000664756
-2.95835e-10
0.000664756
-3.34954e-10
0.000664757
-3.73654e-10
0.000664757
-4.11883e-10
0.000664757
-4.49538e-10
0.000664757
-4.86495e-10
0.000664757
-5.22613e-10
0.000664757
-5.57703e-10
0.000664757
-5.91511e-10
0.000664757
-6.2374e-10
0.000664757
-6.5406e-10
0.000664757
-6.8206e-10
0.000664757
-7.07234e-10
0.000664757
-7.2898e-10
0.000664757
-7.46614e-10
0.000664757
-7.5928e-10
0.000664757
-7.66068e-10
0.000664758
-7.65798e-10
0.000664758
-7.57085e-10
0.000664758
-7.38323e-10
0.000664758
-7.07588e-10
0.000664758
-6.64279e-10
0.000664758
-6.09389e-10
0.000664758
-5.48734e-10
0.000664758
-4.90059e-10
0.000664758
-4.36236e-10
0.000664758
-3.87302e-10
0.000664758
-3.42283e-10
0.000664758
-2.9939e-10
0.000664759
-2.56364e-10
0.000664759
-2.10715e-10
0.000664759
-1.59698e-10
0.000664759
-1.00501e-10
0.000664759
-3.0095e-11
0.000664759
5.39076e-11
0.000664759
1.54392e-10
0.000664759
2.66816e-10
0.000664759
3.19842e-10
-1.62491e-11
0.000649077
-4.57557e-10
0.000649077
-5.31366e-10
0.000649077
-4.63684e-10
0.000649077
-3.64669e-10
0.000649077
-2.68248e-10
0.000649077
-1.82699e-10
0.000649077
-1.08811e-10
0.000649077
-4.55941e-11
0.000649077
8.29737e-12
0.000649077
5.41502e-11
0.000649077
9.30831e-11
0.000649077
1.26045e-10
0.000649077
1.53802e-10
0.000649077
1.76971e-10
0.000649077
1.96052e-10
0.000649077
2.1144e-10
0.000649076
2.23433e-10
0.000649076
2.32346e-10
0.000649076
2.38511e-10
0.000649076
2.4238e-10
0.000649076
2.44517e-10
0.000649076
2.45755e-10
0.000649076
2.47001e-10
0.000649076
2.48867e-10
0.000649076
2.51669e-10
0.000649075
2.55293e-10
0.000649075
2.59418e-10
0.000649075
2.63663e-10
0.000649075
2.67647e-10
0.000649075
2.71039e-10
0.000649075
2.73607e-10
0.000649075
2.75276e-10
0.000649075
2.76177e-10
0.000649075
2.76613e-10
0.000649074
2.77029e-10
0.000649074
2.78045e-10
0.000649074
2.80487e-10
0.000649074
2.85388e-10
0.000649074
2.9398e-10
0.000649074
3.07653e-10
0.000649074
3.27943e-10
0.000649074
3.56269e-10
0.000649074
3.938e-10
0.000649074
4.40356e-10
0.000649074
4.94266e-10
0.000649074
5.50282e-10
0.000649074
6.01415e-10
0.000649074
6.44099e-10
0.000649074
6.77039e-10
0.000649074
6.99913e-10
0.000649074
7.1315e-10
0.000649074
7.17558e-10
0.000649074
7.14073e-10
0.000649074
7.03665e-10
0.000649074
6.87292e-10
0.000649074
6.65863e-10
0.000649074
6.40212e-10
0.000649074
6.11075e-10
0.000649074
5.79093e-10
0.000649074
5.44785e-10
0.000649074
5.08552e-10
0.000649074
4.70731e-10
0.000649074
4.31643e-10
0.000649074
3.9158e-10
0.000649074
3.50765e-10
0.000649074
3.0935e-10
0.000649074
2.67464e-10
0.000649074
2.25237e-10
0.000649074
1.82767e-10
0.000649074
1.40109e-10
0.000649074
9.73332e-11
0.000649075
5.45449e-11
0.000649075
1.18442e-11
0.000649075
-3.07212e-11
0.000649075
-7.31268e-11
0.000649075
-1.1533e-10
0.000649075
-1.57285e-10
0.000649075
-1.9897e-10
0.000649075
-2.40377e-10
0.000649075
-2.81482e-10
0.000649075
-3.22221e-10
0.000649075
-3.62515e-10
0.000649075
-4.02312e-10
0.000649075
-4.41576e-10
0.000649075
-4.80242e-10
0.000649075
-5.18196e-10
0.000649075
-5.55304e-10
0.000649076
-5.91412e-10
0.000649076
-6.26315e-10
0.000649076
-6.59743e-10
0.000649076
-6.91386e-10
0.000649076
-7.20907e-10
0.000649076
-7.47886e-10
0.000649076
-7.71831e-10
0.000649076
-7.92165e-10
0.000649076
-8.08279e-10
0.000649076
-8.19416e-10
0.000649076
-8.24876e-10
0.000649076
-8.23718e-10
0.000649076
-8.14956e-10
0.000649076
-7.97381e-10
0.000649076
-7.69459e-10
0.000649076
-7.30817e-10
0.000649077
-6.82646e-10
0.000649077
-6.2945e-10
0.000649077
-5.7671e-10
0.000649077
-5.26578e-10
0.000649077
-4.78947e-10
0.000649077
-4.3276e-10
0.000649077
-3.86275e-10
0.000649077
-3.37343e-10
0.000649077
-2.83604e-10
0.000649077
-2.22427e-10
0.000649077
-1.51077e-10
0.000649077
-6.65158e-11
0.000649077
3.36473e-11
0.000649077
1.52501e-10
0.000649077
2.85623e-10
0.000649077
3.57486e-10
-1.79198e-12
0.000633723
-4.71003e-10
0.000633723
-5.45249e-10
0.000633723
-4.64438e-10
0.000633723
-3.49458e-10
0.000633723
-2.3776e-10
0.000633723
-1.38499e-10
0.000633723
-5.25572e-11
0.000633723
2.11756e-11
0.000633723
8.42113e-11
0.000633723
1.3799e-10
0.000633723
1.83761e-10
0.000633723
2.22589e-10
0.000633723
2.55338e-10
0.000633723
2.82705e-10
0.000633723
3.05252e-10
0.000633722
3.23421e-10
0.000633722
3.37538e-10
0.000633722
3.47943e-10
0.000633722
3.54978e-10
0.000633722
3.59152e-10
0.000633722
3.61118e-10
0.000633722
3.61896e-10
0.000633722
3.62606e-10
0.000633722
3.6398e-10
0.000633721
3.66406e-10
0.000633721
3.69706e-10
0.000633721
3.73444e-10
0.000633721
3.77114e-10
0.000633721
3.80225e-10
0.000633721
3.82369e-10
0.000633721
3.83257e-10
0.000633721
3.82785e-10
0.000633721
3.81083e-10
0.00063372
3.78468e-10
0.00063372
3.75414e-10
0.00063372
3.72567e-10
0.00063372
3.70766e-10
0.00063372
3.71034e-10
0.00063372
3.74547e-10
0.00063372
3.82584e-10
0.00063372
3.96499e-10
0.00063372
4.17477e-10
0.00063372
4.46363e-10
0.00063372
4.82805e-10
0.00063372
5.2513e-10
0.00063372
5.69064e-10
0.00063372
6.09068e-10
0.00063372
6.42009e-10
0.00063372
6.66585e-10
0.00063372
6.82424e-10
0.00063372
6.89843e-10
0.00063372
6.89504e-10
0.00063372
6.82184e-10
0.00063372
6.6868e-10
0.00063372
6.49783e-10
0.00063372
6.26259e-10
0.00063372
5.98817e-10
0.00063372
5.68097e-10
0.00063372
5.34669e-10
0.00063372
4.99008e-10
0.00063372
4.61479e-10
0.00063372
4.22394e-10
0.00063372
3.82063e-10
0.00063372
3.40776e-10
0.00063372
2.98757e-10
0.00063372
2.56157e-10
0.00063372
2.13101e-10
0.00063372
1.69727e-10
0.000633721
1.26139e-10
0.000633721
8.23967e-11
0.000633721
3.85637e-11
0.000633721
-5.24909e-12
0.000633721
-4.89362e-11
0.000633721
-9.24486e-11
0.000633721
-1.35761e-10
0.000633721
-1.78828e-10
0.000633721
-2.21597e-10
0.000633721
-2.64041e-10
0.000633721
-3.06148e-10
0.000633721
-3.47887e-10
0.000633721
-3.89183e-10
0.000633721
-4.29949e-10
0.000633721
-4.70123e-10
0.000633721
-5.09666e-10
0.000633722
-5.48502e-10
0.000633722
-5.86505e-10
0.000633722
-6.23527e-10
0.000633722
-6.59404e-10
0.000633722
-6.9392e-10
0.000633722
-7.26792e-10
0.000633722
-7.57701e-10
0.000633722
-7.86296e-10
0.000633722
-8.12155e-10
0.000633722
-8.34792e-10
0.000633722
-8.53659e-10
0.000633722
-8.68221e-10
0.000633722
-8.77816e-10
0.000633722
-8.81966e-10
0.000633722
-8.79954e-10
0.000633722
-8.71194e-10
0.000633723
-8.54822e-10
0.000633723
-8.29528e-10
0.000633723
-7.95024e-10
0.000633723
-7.52579e-10
0.000633723
-7.05701e-10
0.000633723
-6.58052e-10
0.000633723
-6.11106e-10
0.000633723
-5.64573e-10
0.000633723
-5.1729e-10
0.000633723
-4.67499e-10
0.000633723
-4.13077e-10
0.000633723
-3.51708e-10
0.000633723
-2.80818e-10
0.000633723
-1.97721e-10
0.000633724
-9.93713e-11
0.000633724
1.66205e-11
0.000633724
1.53546e-10
0.000633724
3.07291e-10
0.000633723
3.99441e-10
1.99185e-11
0.000618691
-4.73e-10
0.000618691
-5.47367e-10
0.000618691
-4.53644e-10
0.000618691
-3.23101e-10
0.000618691
-1.96635e-10
0.000618691
-8.42375e-11
0.000618691
1.31454e-11
0.000618691
9.67708e-11
0.000618691
1.68334e-10
0.000618691