/*--------------------------------*- C++ -*----------------------------------*\
  =========                 |
  \\      /  F ield         | OpenFOAM: The Open Source CFD Toolbox
   \\    /   O peration     | Website:  https://openfoam.org
    \\  /    A nd           | Version:  7
     \\/     M anipulation  |
\*---------------------------------------------------------------------------*/
FoamFile
{
    version     2.0;
    format      ascii;
    class       volScalarField;
    location    "500";
    object      nut;
}
// * * * * * * * * * * * * * * * * * * * * * * * * * * * * * * * * * * * * * //

dimensions      [0 2 -1 0 0 0 0];

internalField   nonuniform List<scalar> 
4037
(
0.000154551
0.00015456
0.000154564
0.000154568
0.000154573
0.000154576
0.000154579
0.000154581
0.000154582
0.000154582
0.000154582
0.00015458
0.000154578
0.000154576
0.000154573
0.000154569
0.000154565
0.00015456
0.000154556
0.00015455
0.000154545
0.00015454
0.000154534
0.000154529
0.000154523
0.000154518
0.000154512
0.000154507
0.000154502
0.000154497
0.000154492
0.000154487
0.000154483
0.000154479
0.000154474
0.00015447
0.000154466
0.000154462
0.000154458
0.000154454
0.00015445
0.000154447
0.000154443
0.000154439
0.000154435
0.000154432
0.000154428
0.000154425
0.000154421
0.000154418
0.000154415
0.000154412
0.000154409
0.000154406
0.000154403
0.0001544
0.000154398
0.000154395
0.000154393
0.000154391
0.000154389
0.000154387
0.000154385
0.000154384
0.000154383
0.000154382
0.000154381
0.000154381
0.000154381
0.000154381
0.000154381
0.000154382
0.000154383
0.000154384
0.000154386
0.000154388
0.000154389
0.00014538
0.000145395
0.000145403
0.000145409
0.000145414
0.000145418
0.000145423
0.000145427
0.00014543
0.000145434
0.000145437
0.00014544
0.000145443
0.000145445
0.000145448
0.00014545
0.000145452
0.000145453
0.000145455
0.000145456
0.000145457
0.000145458
0.000145459
0.000145458
0.00014545
0.000145449
0.000145451
0.000145454
0.000145457
0.000145459
0.000145461
0.000145463
0.000145464
0.000145464
0.000145464
0.000145463
0.000145461
0.000145459
0.000145457
0.000145454
0.00014545
0.000145446
0.000145442
0.000145438
0.000145433
0.000145428
0.000145423
0.000145418
0.000145414
0.000145409
0.000145404
0.000145399
0.000145395
0.00014539
0.000145386
0.000145382
0.000145378
0.000145374
0.000145371
0.000145367
0.000145363
0.00014536
0.000145356
0.000145353
0.00014535
0.000145346
0.000145343
0.00014534
0.000145337
0.000145333
0.00014533
0.000145327
0.000145324
0.000145321
0.000145318
0.000145316
0.000145313
0.00014531
0.000145308
0.000145306
0.000145303
0.000145301
0.000145299
0.000145297
0.000145295
0.000145294
0.000145292
0.000145291
0.00014529
0.000145289
0.000145288
0.000145287
0.000145287
0.000145287
0.000145287
0.000145287
0.000145288
0.000145289
0.00014529
0.000145292
0.00014529
0.000145321
0.000145331
0.000145331
0.000145328
0.000145326
0.000145324
0.000145323
0.000145323
0.000145323
0.000145323
0.000145324
0.000145325
0.000145327
0.000145328
0.000145331
0.000145333
0.000145336
0.000145341
0.000145336
0.000137491
0.000137501
0.000137508
0.000137513
0.000137518
0.000137523
0.000137528
0.000137532
0.000137536
0.000137539
0.000137543
0.000137546
0.000137549
0.000137552
0.000137555
0.000137557
0.00013756
0.000137562
0.000137564
0.000137566
0.000137568
0.000137569
0.000137571
0.000137572
0.00013757
0.000137569
0.00013757
0.000137571
0.000137573
0.000137574
0.000137576
0.000137577
0.000137578
0.000137578
0.000137578
0.000137577
0.000137576
0.000137574
0.000137572
0.000137569
0.000137566
0.000137563
0.000137559
0.000137555
0.000137551
0.000137547
0.000137542
0.000137538
0.000137534
0.000137529
0.000137525
0.000137521
0.000137517
0.000137513
0.000137509
0.000137506
0.000137502
0.000137499
0.000137495
0.000137492
0.000137489
0.000137486
0.000137483
0.00013748
0.000137477
0.000137474
0.000137471
0.000137468
0.000137465
0.000137463
0.00013746
0.000137457
0.000137455
0.000137452
0.00013745
0.000137447
0.000137445
0.000137443
0.00013744
0.000137438
0.000137436
0.000137435
0.000137433
0.000137431
0.000137429
0.000137428
0.000137426
0.000137425
0.000137424
0.000137423
0.000137422
0.000137422
0.000137421
0.000137421
0.000137421
0.000137421
0.000137421
0.000137422
0.000137422
0.000137424
0.000137423
0.000137433
0.000137443
0.000137447
0.000137449
0.00013745
0.00013745
0.00013745
0.000137451
0.000137452
0.000137453
0.000137454
0.000137455
0.000137457
0.000137459
0.000137461
0.000137464
0.000137466
0.00013747
0.00013747
0.000130599
0.000130605
0.000130611
0.000130616
0.000130621
0.000130626
0.00013063
0.000130634
0.000130638
0.000130642
0.000130646
0.000130649
0.000130653
0.000130656
0.000130659
0.000130662
0.000130664
0.000130667
0.000130669
0.000130671
0.000130674
0.000130675
0.000130677
0.000130679
0.000130679
0.000130679
0.000130679
0.00013068
0.000130681
0.000130682
0.000130683
0.000130684
0.000130684
0.000130684
0.000130684
0.000130683
0.000130682
0.000130681
0.000130679
0.000130676
0.000130674
0.000130671
0.000130668
0.000130664
0.00013066
0.000130657
0.000130653
0.000130649
0.000130645
0.000130641
0.000130637
0.000130633
0.00013063
0.000130626
0.000130623
0.00013062
0.000130617
0.000130614
0.000130611
0.000130608
0.000130605
0.000130602
0.0001306
0.000130597
0.000130594
0.000130592
0.000130589
0.000130587
0.000130584
0.000130582
0.000130579
0.000130577
0.000130575
0.000130573
0.00013057
0.000130568
0.000130566
0.000130564
0.000130563
0.000130561
0.000130559
0.000130557
0.000130556
0.000130554
0.000130553
0.000130552
0.00013055
0.000130549
0.000130548
0.000130547
0.000130546
0.000130546
0.000130545
0.000130545
0.000130545
0.000130545
0.000130545
0.000130545
0.000130546
0.000130546
0.000130546
0.00013055
0.000130556
0.000130561
0.000130565
0.000130567
0.000130569
0.00013057
0.000130571
0.000130573
0.000130574
0.000130576
0.000130578
0.00013058
0.000130582
0.000130584
0.000130587
0.000130589
0.000130592
0.000130595
0.00012449
0.000124493
0.000124497
0.000124502
0.000124507
0.000124512
0.000124516
0.00012452
0.000124524
0.000124528
0.000124532
0.000124535
0.000124539
0.000124542
0.000124545
0.000124548
0.000124551
0.000124554
0.000124556
0.000124559
0.000124561
0.000124564
0.000124566
0.000124568
0.000124569
0.00012457
0.00012457
0.000124571
0.000124571
0.000124572
0.000124572
0.000124573
0.000124573
0.000124573
0.000124573
0.000124572
0.000124571
0.00012457
0.000124568
0.000124566
0.000124563
0.000124561
0.000124558
0.000124554
0.000124551
0.000124548
0.000124544
0.000124541
0.000124537
0.000124533
0.00012453
0.000124527
0.000124523
0.00012452
0.000124517
0.000124514
0.000124511
0.000124509
0.000124506
0.000124504
0.000124501
0.000124499
0.000124496
0.000124494
0.000124492
0.000124489
0.000124487
0.000124485
0.000124483
0.000124481
0.000124479
0.000124477
0.000124475
0.000124473
0.000124471
0.000124469
0.000124467
0.000124466
0.000124464
0.000124462
0.000124461
0.000124459
0.000124458
0.000124457
0.000124456
0.000124454
0.000124453
0.000124452
0.000124451
0.000124451
0.00012445
0.000124449
0.000124449
0.000124448
0.000124448
0.000124448
0.000124448
0.000124448
0.000124448
0.000124449
0.000124449
0.000124451
0.000124454
0.000124458
0.000124462
0.000124465
0.000124467
0.000124469
0.000124471
0.000124473
0.000124475
0.000124477
0.000124479
0.000124481
0.000124483
0.000124486
0.000124488
0.000124491
0.000124493
0.000124499
0.00011898
0.00011898
0.000118983
0.000118988
0.000118993
0.000118997
0.000119001
0.000119005
0.000119009
0.000119013
0.000119017
0.00011902
0.000119024
0.000119027
0.00011903
0.000119033
0.000119036
0.000119039
0.000119042
0.000119044
0.000119047
0.000119049
0.000119052
0.000119054
0.000119056
0.000119057
0.000119058
0.000119058
0.000119059
0.000119059
0.00011906
0.00011906
0.00011906
0.00011906
0.000119059
0.000119059
0.000119058
0.000119056
0.000119055
0.000119053
0.00011905
0.000119048
0.000119045
0.000119042
0.000119039
0.000119036
0.000119033
0.00011903
0.000119026
0.000119023
0.00011902
0.000119017
0.000119014
0.000119011
0.000119008
0.000119006
0.000119003
0.000119001
0.000118998
0.000118996
0.000118994
0.000118992
0.00011899
0.000118988
0.000118986
0.000118984
0.000118982
0.00011898
0.000118978
0.000118976
0.000118974
0.000118972
0.00011897
0.000118969
0.000118967
0.000118966
0.000118964
0.000118963
0.000118961
0.00011896
0.000118959
0.000118957
0.000118956
0.000118955
0.000118954
0.000118953
0.000118952
0.000118951
0.000118951
0.00011895
0.000118949
0.000118949
0.000118948
0.000118948
0.000118947
0.000118947
0.000118947
0.000118947
0.000118947
0.000118948
0.000118948
0.000118949
0.000118951
0.000118954
0.000118957
0.00011896
0.000118962
0.000118965
0.000118967
0.000118969
0.000118971
0.000118973
0.000118976
0.000118978
0.00011898
0.000118983
0.000118985
0.000118988
0.00011899
0.000118997
0.000113909
0.000113907
0.000113911
0.000113915
0.000113919
0.000113923
0.000113927
0.000113931
0.000113935
0.000113939
0.000113942
0.000113946
0.000113949
0.000113952
0.000113955
0.000113958
0.000113961
0.000113964
0.000113967
0.00011397
0.000113972
0.000113975
0.000113977
0.000113979
0.000113981
0.000113983
0.000113984
0.000113985
0.000113986
0.000113986
0.000113986
0.000113987
0.000113986
0.000113986
0.000113986
0.000113985
0.000113984
0.000113983
0.000113981
0.000113979
0.000113977
0.000113975
0.000113973
0.00011397
0.000113967
0.000113964
0.000113961
0.000113958
0.000113955
0.000113952
0.000113949
0.000113946
0.000113944
0.000113941
0.000113939
0.000113936
0.000113934
0.000113932
0.00011393
0.000113928
0.000113926
0.000113924
0.000113922
0.00011392
0.000113918
0.000113916
0.000113915
0.000113913
0.000113911
0.00011391
0.000113908
0.000113906
0.000113905
0.000113903
0.000113902
0.000113901
0.000113899
0.000113898
0.000113897
0.000113896
0.000113895
0.000113894
0.000113893
0.000113892
0.000113891
0.00011389
0.000113889
0.000113889
0.000113888
0.000113887
0.000113887
0.000113886
0.000113886
0.000113885
0.000113885
0.000113885
0.000113885
0.000113885
0.000113885
0.000113885
0.000113886
0.000113886
0.000113887
0.000113889
0.000113892
0.000113894
0.000113897
0.000113899
0.000113901
0.000113903
0.000113906
0.000113908
0.00011391
0.000113912
0.000113915
0.000113917
0.00011392
0.000113923
0.000113924
0.000113932
0.000109145
0.000109142
0.000109145
0.000109149
0.000109153
0.000109157
0.00010916
0.000109164
0.000109168
0.000109171
0.000109175
0.000109178
0.000109181
0.000109184
0.000109187
0.00010919
0.000109193
0.000109196
0.000109199
0.000109201
0.000109204
0.000109206
0.000109209
0.000109211
0.000109213
0.000109215
0.000109216
0.000109218
0.000109218
0.000109219
0.000109219
0.000109219
0.000109219
0.000109219
0.000109219
0.000109218
0.000109217
0.000109216
0.000109214
0.000109213
0.000109211
0.000109208
0.000109206
0.000109204
0.000109201
0.000109198
0.000109196
0.000109193
0.00010919
0.000109187
0.000109185
0.000109182
0.000109179
0.000109177
0.000109175
0.000109172
0.00010917
0.000109168
0.000109166
0.000109165
0.000109163
0.000109161
0.00010916
0.000109158
0.000109156
0.000109155
0.000109153
0.000109152
0.00010915
0.000109149
0.000109147
0.000109146
0.000109145
0.000109143
0.000109142
0.000109141
0.00010914
0.000109139
0.000109138
0.000109137
0.000109136
0.000109135
0.000109134
0.000109133
0.000109133
0.000109132
0.000109131
0.000109131
0.00010913
0.00010913
0.000109129
0.000109129
0.000109128
0.000109128
0.000109128
0.000109128
0.000109127
0.000109127
0.000109128
0.000109128
0.000109128
0.000109128
0.000109129
0.00010913
0.000109132
0.000109134
0.000109136
0.000109139
0.000109141
0.000109143
0.000109145
0.000109147
0.00010915
0.000109152
0.000109154
0.000109157
0.000109159
0.000109162
0.000109163
0.000109172
0.000104575
0.000104572
0.000104574
0.000104578
0.000104582
0.000104585
0.000104589
0.000104592
0.000104596
0.000104599
0.000104602
0.000104605
0.000104608
0.000104611
0.000104614
0.000104617
0.00010462
0.000104623
0.000104625
0.000104628
0.00010463
0.000104633
0.000104635
0.000104637
0.000104639
0.000104641
0.000104643
0.000104644
0.000104645
0.000104646
0.000104646
0.000104646
0.000104646
0.000104646
0.000104646
0.000104645
0.000104644
0.000104643
0.000104642
0.00010464
0.000104638
0.000104636
0.000104634
0.000104632
0.000104629
0.000104627
0.000104624
0.000104622
0.000104619
0.000104617
0.000104614
0.000104612
0.000104609
0.000104607
0.000104605
0.000104603
0.000104601
0.000104599
0.000104597
0.000104596
0.000104594
0.000104593
0.000104591
0.00010459
0.000104588
0.000104587
0.000104586
0.000104584
0.000104583
0.000104582
0.00010458
0.000104579
0.000104578
0.000104577
0.000104576
0.000104575
0.000104574
0.000104573
0.000104572
0.000104571
0.000104571
0.00010457
0.000104569
0.000104568
0.000104568
0.000104567
0.000104567
0.000104566
0.000104566
0.000104565
0.000104565
0.000104564
0.000104564
0.000104564
0.000104564
0.000104564
0.000104563
0.000104563
0.000104563
0.000104564
0.000104564
0.000104564
0.000104565
0.000104565
0.000104567
0.000104568
0.00010457
0.000104572
0.000104574
0.000104576
0.000104578
0.00010458
0.000104582
0.000104585
0.000104587
0.000104589
0.000104592
0.000104594
0.000104595
0.000104605
0.000100108
0.000100104
0.000100106
0.00010011
0.000100113
0.000100117
0.00010012
0.000100123
0.000100126
0.000100129
0.000100132
0.000100135
0.000100138
0.000100141
0.000100144
0.000100146
0.000100149
0.000100152
0.000100154
0.000100157
0.000100159
0.000100161
0.000100164
0.000100166
0.000100168
0.00010017
0.000100171
0.000100173
0.000100174
0.000100175
0.000100175
0.000100175
0.000100175
0.000100175
0.000100175
0.000100174
0.000100173
0.000100172
0.000100171
0.00010017
0.000100168
0.000100166
0.000100164
0.000100162
0.00010016
0.000100157
0.000100155
0.000100152
0.00010015
0.000100148
0.000100145
0.000100143
0.000100141
0.000100139
0.000100137
0.000100135
0.000100133
0.000100132
0.00010013
0.000100129
0.000100127
0.000100126
0.000100124
0.000100123
0.000100122
0.000100121
0.00010012
0.000100118
0.000100117
0.000100116
0.000100115
0.000100114
0.000100113
0.000100112
0.000100111
0.00010011
0.000100109
0.000100109
0.000100108
0.000100107
0.000100106
0.000100106
0.000100105
0.000100105
0.000100104
0.000100104
0.000100103
0.000100103
0.000100102
0.000100102
0.000100102
0.000100101
0.000100101
0.000100101
0.000100101
0.000100101
0.000100101
0.000100101
0.000100101
0.000100101
0.000100101
0.000100101
0.000100101
0.000100102
0.000100103
0.000100104
0.000100106
0.000100107
0.000100109
0.000100111
0.000100113
0.000100115
0.000100117
0.000100119
0.000100121
0.000100123
0.000100125
0.000100128
0.000100129
0.000100138
9.56676e-05
9.56633e-05
9.56651e-05
9.56682e-05
9.56715e-05
9.56747e-05
9.56779e-05
9.56809e-05
9.56838e-05
9.56866e-05
9.56894e-05
9.56921e-05
9.56947e-05
9.56973e-05
9.56999e-05
9.57024e-05
9.57049e-05
9.57073e-05
9.57097e-05
9.5712e-05
9.57142e-05
9.57165e-05
9.57186e-05
9.57206e-05
9.57226e-05
9.57244e-05
9.57261e-05
9.57276e-05
9.57287e-05
9.57296e-05
9.57302e-05
9.57306e-05
9.57307e-05
9.57305e-05
9.57302e-05
9.57296e-05
9.57288e-05
9.57279e-05
9.57267e-05
9.57253e-05
9.57238e-05
9.5722e-05
9.57202e-05
9.57182e-05
9.57161e-05
9.57139e-05
9.57117e-05
9.57094e-05
9.57072e-05
9.5705e-05
9.57028e-05
9.57008e-05
9.56988e-05
9.56969e-05
9.56951e-05
9.56933e-05
9.56917e-05
9.56902e-05
9.56888e-05
9.56875e-05
9.56862e-05
9.5685e-05
9.56838e-05
9.56827e-05
9.56816e-05
9.56805e-05
9.56794e-05
9.56784e-05
9.56774e-05
9.56764e-05
9.56755e-05
9.56745e-05
9.56736e-05
9.56728e-05
9.5672e-05
9.56712e-05
9.56705e-05
9.56698e-05
9.56692e-05
9.56686e-05
9.5668e-05
9.56675e-05
9.5667e-05
9.56666e-05
9.56661e-05
9.56657e-05
9.56654e-05
9.5665e-05
9.56647e-05
9.56644e-05
9.56641e-05
9.56639e-05
9.56636e-05
9.56635e-05
9.56633e-05
9.56632e-05
9.56632e-05
9.56631e-05
9.56632e-05
9.56633e-05
9.56634e-05
9.56636e-05
9.56638e-05
9.56642e-05
9.56648e-05
9.56657e-05
9.56669e-05
9.56682e-05
9.56697e-05
9.56713e-05
9.5673e-05
9.56748e-05
9.56766e-05
9.56785e-05
9.56805e-05
9.56826e-05
9.56846e-05
9.56872e-05
9.5688e-05
9.56971e-05
9.11922e-05
9.1188e-05
9.11895e-05
9.11924e-05
9.11955e-05
9.11985e-05
9.12014e-05
9.12041e-05
9.12068e-05
9.12094e-05
9.1212e-05
9.12144e-05
9.12169e-05
9.12193e-05
9.12216e-05
9.12239e-05
9.12262e-05
9.12285e-05
9.12307e-05
9.12328e-05
9.12349e-05
9.1237e-05
9.1239e-05
9.12409e-05
9.12428e-05
9.12445e-05
9.12462e-05
9.12476e-05
9.12488e-05
9.12497e-05
9.12504e-05
9.12508e-05
9.1251e-05
9.12509e-05
9.12506e-05
9.12502e-05
9.12495e-05
9.12486e-05
9.12475e-05
9.12462e-05
9.12448e-05
9.12432e-05
9.12415e-05
9.12396e-05
9.12377e-05
9.12357e-05
9.12336e-05
9.12315e-05
9.12295e-05
9.12274e-05
9.12254e-05
9.12235e-05
9.12216e-05
9.12199e-05
9.12182e-05
9.12166e-05
9.12152e-05
9.12138e-05
9.12125e-05
9.12113e-05
9.12102e-05
9.12091e-05
9.1208e-05
9.1207e-05
9.12061e-05
9.12051e-05
9.12042e-05
9.12033e-05
9.12024e-05
9.12015e-05
9.12007e-05
9.11998e-05
9.11991e-05
9.11983e-05
9.11976e-05
9.11969e-05
9.11963e-05
9.11957e-05
9.11952e-05
9.11947e-05
9.11942e-05
9.11938e-05
9.11934e-05
9.1193e-05
9.11926e-05
9.11923e-05
9.1192e-05
9.11917e-05
9.11915e-05
9.11912e-05
9.1191e-05
9.11908e-05
9.11906e-05
9.11905e-05
9.11904e-05
9.11903e-05
9.11902e-05
9.11902e-05
9.11902e-05
9.11903e-05
9.11905e-05
9.11906e-05
9.11908e-05
9.1191e-05
9.11915e-05
9.11921e-05
9.1193e-05
9.11941e-05
9.11953e-05
9.11966e-05
9.11981e-05
9.11997e-05
9.12014e-05
9.12031e-05
9.12049e-05
9.12068e-05
9.12087e-05
9.12112e-05
9.12119e-05
9.12206e-05
8.66335e-05
8.66294e-05
8.66308e-05
8.66335e-05
8.66363e-05
8.66391e-05
8.66417e-05
8.66443e-05
8.66467e-05
8.66491e-05
8.66514e-05
8.66537e-05
8.66559e-05
8.66581e-05
8.66602e-05
8.66623e-05
8.66644e-05
8.66664e-05
8.66684e-05
8.66704e-05
8.66724e-05
8.66743e-05
8.66762e-05
8.6678e-05
8.66797e-05
8.66813e-05
8.66829e-05
8.66843e-05
8.66855e-05
8.66864e-05
8.66871e-05
8.66876e-05
8.66878e-05
8.66878e-05
8.66876e-05
8.66872e-05
8.66866e-05
8.66858e-05
8.66848e-05
8.66836e-05
8.66823e-05
8.66809e-05
8.66793e-05
8.66776e-05
8.66758e-05
8.66739e-05
8.6672e-05
8.66701e-05
8.66682e-05
8.66663e-05
8.66644e-05
8.66626e-05
8.66609e-05
8.66593e-05
8.66578e-05
8.66564e-05
8.6655e-05
8.66538e-05
8.66526e-05
8.66515e-05
8.66505e-05
8.66495e-05
8.66486e-05
8.66477e-05
8.66468e-05
8.6646e-05
8.66452e-05
8.66444e-05
8.66436e-05
8.66428e-05
8.66421e-05
8.66414e-05
8.66407e-05
8.664e-05
8.66394e-05
8.66388e-05
8.66382e-05
8.66377e-05
8.66373e-05
8.66368e-05
8.66364e-05
8.66361e-05
8.66358e-05
8.66354e-05
8.66352e-05
8.66349e-05
8.66347e-05
8.66344e-05
8.66342e-05
8.6634e-05
8.66339e-05
8.66337e-05
8.66336e-05
8.66334e-05
8.66333e-05
8.66333e-05
8.66332e-05
8.66332e-05
8.66333e-05
8.66333e-05
8.66334e-05
8.66335e-05
8.66336e-05
8.66338e-05
8.66341e-05
8.66346e-05
8.66353e-05
8.66361e-05
8.66371e-05
8.66382e-05
8.66395e-05
8.66409e-05
8.66423e-05
8.66439e-05
8.66455e-05
8.66473e-05
8.6649e-05
8.66513e-05
8.6652e-05
8.66601e-05
8.19538e-05
8.195e-05
8.19512e-05
8.19536e-05
8.19563e-05
8.19588e-05
8.19612e-05
8.19636e-05
8.19658e-05
8.19679e-05
8.197e-05
8.19721e-05
8.19741e-05
8.1976e-05
8.19779e-05
8.19798e-05
8.19817e-05
8.19835e-05
8.19854e-05
8.19872e-05
8.1989e-05
8.19907e-05
8.19924e-05
8.19941e-05
8.19957e-05
8.19972e-05
8.19987e-05
8.2e-05
8.20011e-05
8.20021e-05
8.20028e-05
8.20033e-05
8.20036e-05
8.20036e-05
8.20035e-05
8.20031e-05
8.20026e-05
8.20019e-05
8.2001e-05
8.19999e-05
8.19987e-05
8.19974e-05
8.19959e-05
8.19944e-05
8.19927e-05
8.1991e-05
8.19893e-05
8.19875e-05
8.19857e-05
8.1984e-05
8.19823e-05
8.19806e-05
8.19791e-05
8.19776e-05
8.19762e-05
8.19749e-05
8.19737e-05
8.19725e-05
8.19715e-05
8.19705e-05
8.19696e-05
8.19687e-05
8.19679e-05
8.19671e-05
8.19663e-05
8.19656e-05
8.19649e-05
8.19642e-05
8.19635e-05
8.19628e-05
8.19621e-05
8.19615e-05
8.19609e-05
8.19603e-05
8.19597e-05
8.19592e-05
8.19587e-05
8.19583e-05
8.19579e-05
8.19575e-05
8.19572e-05
8.19569e-05
8.19566e-05
8.19564e-05
8.19562e-05
8.19559e-05
8.19558e-05
8.19556e-05
8.19554e-05
8.19553e-05
8.19551e-05
8.1955e-05
8.19549e-05
8.19548e-05
8.19547e-05
8.19547e-05
8.19546e-05
8.19546e-05
8.19546e-05
8.19547e-05
8.19548e-05
8.19548e-05
8.19549e-05
8.19551e-05
8.19553e-05
8.19556e-05
8.19561e-05
8.19567e-05
8.19575e-05
8.19585e-05
8.19595e-05
8.19607e-05
8.1962e-05
8.19634e-05
8.19648e-05
8.19664e-05
8.1968e-05
8.197e-05
8.19707e-05
8.19782e-05
7.71251e-05
7.71216e-05
7.71227e-05
7.7125e-05
7.71274e-05
7.71297e-05
7.7132e-05
7.71341e-05
7.71361e-05
7.7138e-05
7.71399e-05
7.71417e-05
7.71435e-05
7.71452e-05
7.71469e-05
7.71486e-05
7.71502e-05
7.71519e-05
7.71535e-05
7.71551e-05
7.71567e-05
7.71583e-05
7.71599e-05
7.71614e-05
7.71629e-05
7.71643e-05
7.71656e-05
7.71669e-05
7.7168e-05
7.71689e-05
7.71696e-05
7.71701e-05
7.71704e-05
7.71705e-05
7.71704e-05
7.71701e-05
7.71696e-05
7.7169e-05
7.71682e-05
7.71672e-05
7.71662e-05
7.7165e-05
7.71636e-05
7.71622e-05
7.71607e-05
7.71592e-05
7.71575e-05
7.71559e-05
7.71543e-05
7.71527e-05
7.71511e-05
7.71496e-05
7.71482e-05
7.71468e-05
7.71455e-05
7.71443e-05
7.71432e-05
7.71422e-05
7.71413e-05
7.71404e-05
7.71396e-05
7.71388e-05
7.71381e-05
7.71374e-05
7.71367e-05
7.7136e-05
7.71354e-05
7.71348e-05
7.71342e-05
7.71336e-05
7.7133e-05
7.71324e-05
7.71319e-05
7.71314e-05
7.71309e-05
7.71304e-05
7.713e-05
7.71296e-05
7.71293e-05
7.7129e-05
7.71287e-05
7.71284e-05
7.71282e-05
7.7128e-05
7.71278e-05
7.71276e-05
7.71275e-05
7.71273e-05
7.71272e-05
7.71271e-05
7.7127e-05
7.71269e-05
7.71268e-05
7.71267e-05
7.71267e-05
7.71266e-05
7.71266e-05
7.71266e-05
7.71266e-05
7.71266e-05
7.71267e-05
7.71267e-05
7.71268e-05
7.71269e-05
7.7127e-05
7.71273e-05
7.71276e-05
7.71281e-05
7.71287e-05
7.71295e-05
7.71304e-05
7.71314e-05
7.71325e-05
7.71337e-05
7.7135e-05
7.71364e-05
7.71378e-05
7.71397e-05
7.71403e-05
7.71471e-05
7.21284e-05
7.21253e-05
7.21264e-05
7.21285e-05
7.21307e-05
7.21329e-05
7.21349e-05
7.21368e-05
7.21386e-05
7.21403e-05
7.2142e-05
7.21436e-05
7.21451e-05
7.21466e-05
7.21481e-05
7.21496e-05
7.2151e-05
7.21524e-05
7.21539e-05
7.21553e-05
7.21568e-05
7.21582e-05
7.21596e-05
7.2161e-05
7.21624e-05
7.21636e-05
7.21649e-05
7.2166e-05
7.2167e-05
7.21679e-05
7.21686e-05
7.21691e-05
7.21694e-05
7.21695e-05
7.21694e-05
7.21692e-05
7.21688e-05
7.21682e-05
7.21675e-05
7.21667e-05
7.21657e-05
7.21646e-05
7.21634e-05
7.21622e-05
7.21608e-05
7.21594e-05
7.21579e-05
7.21564e-05
7.21549e-05
7.21535e-05
7.2152e-05
7.21507e-05
7.21493e-05
7.21481e-05
7.21469e-05
7.21459e-05
7.21449e-05
7.21439e-05
7.21431e-05
7.21423e-05
7.21416e-05
7.21409e-05
7.21402e-05
7.21396e-05
7.2139e-05
7.21384e-05
7.21379e-05
7.21373e-05
7.21368e-05
7.21362e-05
7.21357e-05
7.21352e-05
7.21347e-05
7.21343e-05
7.21339e-05
7.21335e-05
7.21331e-05
7.21328e-05
7.21325e-05
7.21322e-05
7.21319e-05
7.21317e-05
7.21316e-05
7.21314e-05
7.21312e-05
7.21311e-05
7.2131e-05
7.21309e-05
7.21308e-05
7.21307e-05
7.21306e-05
7.21305e-05
7.21304e-05
7.21304e-05
7.21303e-05
7.21303e-05
7.21302e-05
7.21302e-05
7.21303e-05
7.21303e-05
7.21303e-05
7.21304e-05
7.21304e-05
7.21304e-05
7.21305e-05
7.21307e-05
7.21309e-05
7.21313e-05
7.21318e-05
7.21324e-05
7.21331e-05
7.21339e-05
7.21349e-05
7.21359e-05
7.2137e-05
7.21383e-05
7.21396e-05
7.21413e-05
7.21419e-05
7.21479e-05
6.69533e-05
6.69506e-05
6.69516e-05
6.69535e-05
6.69556e-05
6.69576e-05
6.69594e-05
6.69612e-05
6.69628e-05
6.69643e-05
6.69657e-05
6.69671e-05
6.69684e-05
6.69697e-05
6.69709e-05
6.69722e-05
6.69734e-05
6.69747e-05
6.69759e-05
6.69772e-05
6.69785e-05
6.69798e-05
6.6981e-05
6.69823e-05
6.69835e-05
6.69847e-05
6.69858e-05
6.69869e-05
6.69878e-05
6.69886e-05
6.69892e-05
6.69897e-05
6.699e-05
6.69901e-05
6.69901e-05
6.69899e-05
6.69895e-05
6.6989e-05
6.69884e-05
6.69877e-05
6.69868e-05
6.69859e-05
6.69848e-05
6.69837e-05
6.69824e-05
6.69812e-05
6.69798e-05
6.69785e-05
6.69771e-05
6.69758e-05
6.69745e-05
6.69732e-05
6.6972e-05
6.69709e-05
6.69699e-05
6.69689e-05
6.6968e-05
6.69672e-05
6.69664e-05
6.69657e-05
6.6965e-05
6.69644e-05
6.69639e-05
6.69633e-05
6.69628e-05
6.69623e-05
6.69618e-05
6.69613e-05
6.69608e-05
6.69603e-05
6.69599e-05
6.69594e-05
6.6959e-05
6.69586e-05
6.69582e-05
6.69578e-05
6.69575e-05
6.69572e-05
6.6957e-05
6.69567e-05
6.69565e-05
6.69564e-05
6.69562e-05
6.69561e-05
6.6956e-05
6.69558e-05
6.69558e-05
6.69557e-05
6.69556e-05
6.69555e-05
6.69554e-05
6.69554e-05
6.69553e-05
6.69552e-05
6.69552e-05
6.69552e-05
6.69551e-05
6.69551e-05
6.69551e-05
6.69552e-05
6.69552e-05
6.69552e-05
6.69552e-05
6.69552e-05
6.69553e-05
6.69554e-05
6.69555e-05
6.69558e-05
6.69562e-05
6.69566e-05
6.69572e-05
6.69579e-05
6.69587e-05
6.69596e-05
6.69606e-05
6.69617e-05
6.69629e-05
6.69643e-05
6.6965e-05
6.69701e-05
6.15973e-05
6.1595e-05
6.1596e-05
6.15978e-05
6.15997e-05
6.16015e-05
6.16033e-05
6.16048e-05
6.16063e-05
6.16076e-05
6.16088e-05
6.16099e-05
6.1611e-05
6.1612e-05
6.16131e-05
6.16141e-05
6.16151e-05
6.16162e-05
6.16173e-05
6.16184e-05
6.16196e-05
6.16207e-05
6.16218e-05
6.1623e-05
6.16241e-05
6.16251e-05
6.16262e-05
6.16271e-05
6.16279e-05
6.16287e-05
6.16292e-05
6.16297e-05
6.163e-05
6.16301e-05
6.16301e-05
6.16299e-05
6.16296e-05
6.16292e-05
6.16287e-05
6.1628e-05
6.16273e-05
6.16264e-05
6.16255e-05
6.16245e-05
6.16234e-05
6.16222e-05
6.16211e-05
6.16198e-05
6.16186e-05
6.16174e-05
6.16162e-05
6.16151e-05
6.1614e-05
6.1613e-05
6.1612e-05
6.16111e-05
6.16103e-05
6.16096e-05
6.16089e-05
6.16083e-05
6.16077e-05
6.16072e-05
6.16067e-05
6.16062e-05
6.16057e-05
6.16053e-05
6.16048e-05
6.16044e-05
6.1604e-05
6.16035e-05
6.16031e-05
6.16027e-05
6.16023e-05
6.1602e-05
6.16016e-05
6.16013e-05
6.1601e-05
6.16008e-05
6.16006e-05
6.16004e-05
6.16002e-05
6.16e-05
6.15999e-05
6.15998e-05
6.15997e-05
6.15996e-05
6.15995e-05
6.15995e-05
6.15994e-05
6.15993e-05
6.15993e-05
6.15992e-05
6.15992e-05
6.15991e-05
6.15991e-05
6.1599e-05
6.1599e-05
6.1599e-05
6.1599e-05
6.1599e-05
6.1599e-05
6.1599e-05
6.1599e-05
6.1599e-05
6.1599e-05
6.15991e-05
6.15992e-05
6.15994e-05
6.15997e-05
6.16e-05
6.16005e-05
6.1601e-05
6.16017e-05
6.16025e-05
6.16033e-05
6.16043e-05
6.16053e-05
6.16066e-05
6.16073e-05
6.16116e-05
5.60667e-05
5.60647e-05
5.60657e-05
5.60674e-05
5.60692e-05
5.6071e-05
5.60725e-05
5.60739e-05
5.60752e-05
5.60763e-05
5.60773e-05
5.60782e-05
5.6079e-05
5.60798e-05
5.60807e-05
5.60815e-05
5.60824e-05
5.60832e-05
5.60842e-05
5.60852e-05
5.60861e-05
5.60872e-05
5.60882e-05
5.60892e-05
5.60902e-05
5.60911e-05
5.60921e-05
5.60929e-05
5.60937e-05
5.60943e-05
5.60948e-05
5.60952e-05
5.60955e-05
5.60956e-05
5.60956e-05
5.60955e-05
5.60952e-05
5.60949e-05
5.60944e-05
5.60939e-05
5.60932e-05
5.60925e-05
5.60917e-05
5.60908e-05
5.60898e-05
5.60888e-05
5.60878e-05
5.60867e-05
5.60856e-05
5.60845e-05
5.60834e-05
5.60824e-05
5.60814e-05
5.60805e-05
5.60796e-05
5.60789e-05
5.60781e-05
5.60775e-05
5.60769e-05
5.60763e-05
5.60758e-05
5.60753e-05
5.60749e-05
5.60744e-05
5.6074e-05
5.60736e-05
5.60732e-05
5.60729e-05
5.60725e-05
5.60721e-05
5.60717e-05
5.60714e-05
5.6071e-05
5.60707e-05
5.60704e-05
5.60701e-05
5.60699e-05
5.60697e-05
5.60695e-05
5.60693e-05
5.60691e-05
5.6069e-05
5.60689e-05
5.60688e-05
5.60687e-05
5.60687e-05
5.60686e-05
5.60685e-05
5.60685e-05
5.60684e-05
5.60684e-05
5.60683e-05
5.60683e-05
5.60682e-05
5.60682e-05
5.60681e-05
5.60681e-05
5.60681e-05
5.60681e-05
5.60681e-05
5.60681e-05
5.6068e-05
5.6068e-05
5.6068e-05
5.6068e-05
5.6068e-05
5.60681e-05
5.60682e-05
5.60684e-05
5.60687e-05
5.60691e-05
5.60695e-05
5.60701e-05
5.60707e-05
5.60715e-05
5.60723e-05
5.60732e-05
5.60743e-05
5.6075e-05
5.60785e-05
5.03766e-05
5.03751e-05
5.03761e-05
5.03777e-05
5.03795e-05
5.03811e-05
5.03825e-05
5.03838e-05
5.03848e-05
5.03857e-05
5.03864e-05
5.03871e-05
5.03877e-05
5.03884e-05
5.0389e-05
5.03897e-05
5.03903e-05
5.03911e-05
5.03919e-05
5.03927e-05
5.03936e-05
5.03945e-05
5.03954e-05
5.03963e-05
5.03972e-05
5.0398e-05
5.03989e-05
5.03996e-05
5.04003e-05
5.04009e-05
5.04013e-05
5.04017e-05
5.04019e-05
5.0402e-05
5.0402e-05
5.04019e-05
5.04017e-05
5.04014e-05
5.04011e-05
5.04006e-05
5.04001e-05
5.03994e-05
5.03987e-05
5.0398e-05
5.03971e-05
5.03962e-05
5.03953e-05
5.03943e-05
5.03934e-05
5.03924e-05
5.03914e-05
5.03905e-05
5.03896e-05
5.03888e-05
5.0388e-05
5.03873e-05
5.03867e-05
5.03861e-05
5.03855e-05
5.03851e-05
5.03846e-05
5.03842e-05
5.03838e-05
5.03834e-05
5.03831e-05
5.03827e-05
5.03824e-05
5.0382e-05
5.03817e-05
5.03813e-05
5.0381e-05
5.03807e-05
5.03804e-05
5.03801e-05
5.03798e-05
5.03796e-05
5.03794e-05
5.03792e-05
5.0379e-05
5.03789e-05
5.03787e-05
5.03786e-05
5.03785e-05
5.03784e-05
5.03784e-05
5.03783e-05
5.03783e-05
5.03782e-05
5.03782e-05
5.03781e-05
5.03781e-05
5.0378e-05
5.0378e-05
5.03779e-05
5.03779e-05
5.03778e-05
5.03778e-05
5.03778e-05
5.03778e-05
5.03778e-05
5.03777e-05
5.03777e-05
5.03776e-05
5.03776e-05
5.03776e-05
5.03776e-05
5.03776e-05
5.03777e-05
5.03779e-05
5.03781e-05
5.03784e-05
5.03787e-05
5.03792e-05
5.03797e-05
5.03803e-05
5.03811e-05
5.03819e-05
5.03828e-05
5.03835e-05
5.03863e-05
4.4553e-05
4.45518e-05
4.45528e-05
4.45545e-05
4.45562e-05
4.45577e-05
4.4559e-05
4.456e-05
4.45608e-05
4.45615e-05
4.4562e-05
4.45625e-05
4.45629e-05
4.45633e-05
4.45638e-05
4.45643e-05
4.45649e-05
4.45655e-05
4.45661e-05
4.45669e-05
4.45676e-05
4.45684e-05
4.45692e-05
4.457e-05
4.45708e-05
4.45715e-05
4.45723e-05
4.45729e-05
4.45735e-05
4.4574e-05
4.45744e-05
4.45747e-05
4.45749e-05
4.4575e-05
4.4575e-05
4.4575e-05
4.45748e-05
4.45746e-05
4.45743e-05
4.45739e-05
4.45735e-05
4.4573e-05
4.45724e-05
4.45717e-05
4.4571e-05
4.45702e-05
4.45694e-05
4.45685e-05
4.45677e-05
4.45668e-05
4.4566e-05
4.45651e-05
4.45644e-05
4.45636e-05
4.45629e-05
4.45623e-05
4.45617e-05
4.45612e-05
4.45607e-05
4.45603e-05
4.45599e-05
4.45595e-05
4.45592e-05
4.45589e-05
4.45585e-05
4.45582e-05
4.45579e-05
4.45576e-05
4.45573e-05
4.4557e-05
4.45568e-05
4.45565e-05
4.45562e-05
4.45559e-05
4.45557e-05
4.45555e-05
4.45553e-05
4.45551e-05
4.4555e-05
4.45548e-05
4.45547e-05
4.45546e-05
4.45545e-05
4.45545e-05
4.45544e-05
4.45544e-05
4.45543e-05
4.45543e-05
4.45542e-05
4.45542e-05
4.45541e-05
4.45541e-05
4.4554e-05
4.4554e-05
4.45539e-05
4.45539e-05
4.45539e-05
4.45538e-05
4.45538e-05
4.45538e-05
4.45538e-05
4.45537e-05
4.45536e-05
4.45536e-05
4.45535e-05
4.45535e-05
4.45535e-05