/*--------------------------------*- C++ -*----------------------------------*\
  =========                 |
  \\      /  F ield         | OpenFOAM: The Open Source CFD Toolbox
   \\    /   O peration     | Website:  https://openfoam.org
    \\  /    A nd           | Version:  7
     \\/     M anipulation  |
\*---------------------------------------------------------------------------*/
FoamFile
{
    version     2.0;
    format      ascii;
    class       volScalarField;
    location    "500";
    object      omega;
}
// * * * * * * * * * * * * * * * * * * * * * * * * * * * * * * * * * * * * * //

dimensions      [0 0 -1 0 0 0 0];

internalField   nonuniform List<scalar> 
4037
(
0.422634
0.42268
0.422735
0.422771
0.422797
0.422818
0.422836
0.422852
0.422867
0.422881
0.422894
0.422907
0.42292
0.422933
0.422946
0.422958
0.422971
0.422984
0.422997
0.42301
0.423023
0.423036
0.423049
0.423062
0.423074
0.423086
0.423098
0.423109
0.423119
0.42313
0.423139
0.423148
0.423156
0.423164
0.423171
0.423178
0.423184
0.423191
0.423197
0.423202
0.423208
0.423213
0.423219
0.423224
0.423229
0.423235
0.42324
0.423245
0.42325
0.423255
0.42326
0.423265
0.423269
0.423273
0.423278
0.423282
0.423285
0.423289
0.423292
0.423295
0.423298
0.423301
0.423303
0.423305
0.423307
0.423308
0.423309
0.42331
0.42331
0.42331
0.42331
0.42331
0.423309
0.423307
0.423306
0.4233
0.423323
0.470338
0.470219
0.470196
0.470196
0.4702
0.470207
0.470214
0.470222
0.470231
0.470241
0.470251
0.470262
0.470273
0.470284
0.470295
0.470306
0.470318
0.470328
0.470339
0.470349
0.470359
0.470368
0.470375
0.470381
0.470554
0.47066
0.47073
0.470779
0.470815
0.470844
0.470867
0.470887
0.470905
0.470922
0.470937
0.470952
0.470966
0.47098
0.470994
0.471007
0.471021
0.471034
0.471048
0.471061
0.471075
0.471088
0.471102
0.471115
0.471128
0.471141
0.471153
0.471165
0.471176
0.471187
0.471197
0.471207
0.471216
0.471224
0.471232
0.471239
0.471246
0.471253
0.471259
0.471265
0.471271
0.471277
0.471283
0.471288
0.471294
0.471299
0.471305
0.471311
0.471316
0.471321
0.471327
0.471332
0.471337
0.471342
0.471347
0.471351
0.471355
0.471359
0.471363
0.471367
0.47137
0.471373
0.471376
0.471379
0.471381
0.471383
0.471385
0.471386
0.471387
0.471388
0.471388
0.471388
0.471388
0.471387
0.471387
0.471379
0.471422
0.471061
0.470905
0.470861
0.470847
0.470838
0.470831
0.470825
0.470819
0.470814
0.470809
0.470805
0.4708
0.470796
0.470791
0.470786
0.47078
0.470778
0.47075
0.470837
0.523118
0.522994
0.522964
0.522959
0.522961
0.522966
0.522973
0.522981
0.52299
0.522999
0.523009
0.52302
0.523031
0.523042
0.523053
0.523064
0.523075
0.523086
0.523096
0.523105
0.523114
0.523123
0.523131
0.523131
0.523201
0.523279
0.523343
0.523392
0.523431
0.523463
0.523489
0.523511
0.523531
0.523548
0.523565
0.52358
0.523595
0.523609
0.523623
0.523637
0.523651
0.523664
0.523678
0.523692
0.523706
0.52372
0.523734
0.523748
0.523761
0.523775
0.523787
0.5238
0.523812
0.523823
0.523833
0.523843
0.523853
0.523861
0.52387
0.523877
0.523885
0.523892
0.523898
0.523905
0.523911
0.523917
0.523923
0.523929
0.523935
0.523941
0.523947
0.523953
0.523959
0.523964
0.52397
0.523976
0.523981
0.523986
0.523992
0.523997
0.524001
0.524006
0.52401
0.524014
0.524018
0.524022
0.524025
0.524028
0.524031
0.524034
0.524036
0.524038
0.524039
0.524041
0.524041
0.524042
0.524042
0.524042
0.524042
0.524035
0.524064
0.523933
0.523799
0.523718
0.523675
0.52365
0.523632
0.523619
0.523608
0.523599
0.523591
0.523584
0.523577
0.523571
0.523565
0.523558
0.52355
0.523547
0.523517
0.523601
0.580661
0.580541
0.580509
0.580501
0.580501
0.580505
0.580511
0.580518
0.580526
0.580535
0.580545
0.580556
0.580567
0.580578
0.580589
0.580599
0.58061
0.58062
0.580629
0.580638
0.580646
0.580654
0.580661
0.580663
0.580688
0.58073
0.580774
0.580814
0.580849
0.580878
0.580903
0.580924
0.580943
0.580961
0.580977
0.580992
0.581007
0.581021
0.581035
0.581049
0.581062
0.581076
0.58109
0.581104
0.581118
0.581132
0.581146
0.58116
0.581174
0.581188
0.581201
0.581214
0.581226
0.581237
0.581248
0.581259
0.581268
0.581278
0.581286
0.581294
0.581302
0.581309
0.581316
0.581322
0.581329
0.581335
0.581341
0.581347
0.581354
0.58136
0.581366
0.581372
0.581378
0.581384
0.58139
0.581396
0.581402
0.581408
0.581413
0.581419
0.581424
0.581429
0.581434
0.581438
0.581442
0.581446
0.58145
0.581454
0.581457
0.58146
0.581463
0.581465
0.581467
0.581469
0.58147
0.581471
0.581472
0.581472
0.581473
0.581468
0.581483
0.581443
0.581369
0.581301
0.581252
0.581218
0.581194
0.581176
0.581162
0.58115
0.581139
0.58113
0.581122
0.581114
0.581106
0.581098
0.581089
0.581084
0.581053
0.581133
0.643194
0.643079
0.643047
0.643038
0.643037
0.643039
0.643044
0.643051
0.643059
0.643068
0.643078
0.643088
0.643099
0.64311
0.64312
0.643131
0.64314
0.64315
0.643158
0.643166
0.643173
0.64318
0.643186
0.643188
0.643197
0.643216
0.643241
0.643268
0.643293
0.643316
0.643337
0.643356
0.643373
0.643389
0.643403
0.643418
0.643431
0.643445
0.643458
0.643471
0.643484
0.643498
0.643511
0.643525
0.643539
0.643553
0.643567
0.643582
0.643596
0.64361
0.643623
0.643636
0.643649
0.64366
0.643672
0.643682
0.643692
0.643701
0.64371
0.643718
0.643726
0.643733
0.64374
0.643747
0.643753
0.643759
0.643766
0.643772
0.643778
0.643785
0.643791
0.643798
0.643804
0.64381
0.643817
0.643823
0.643829
0.643835
0.643841
0.643846
0.643852
0.643857
0.643862
0.643867
0.643872
0.643876
0.64388
0.643884
0.643888
0.643891
0.643894
0.643897
0.6439
0.643902
0.643904
0.643905
0.643906
0.643906
0.643907
0.643905
0.643911
0.643901
0.643869
0.643827
0.643788
0.643756
0.643732
0.643712
0.643696
0.643683
0.643671
0.643661
0.643651
0.643642
0.643633
0.643624
0.643614
0.643608
0.643577
0.643653
0.710988
0.710879
0.710849
0.710839
0.710838
0.71084
0.710844
0.710851
0.710858
0.710867
0.710877
0.710887
0.710897
0.710908
0.710918
0.710928
0.710937
0.710946
0.710953
0.71096
0.710966
0.710971
0.710975
0.710978
0.710981
0.710987
0.710998
0.711013
0.711028
0.711044
0.711059
0.711073
0.711086
0.7111
0.711112
0.711125
0.711137
0.711149
0.711161
0.711174
0.711186
0.711199
0.711212
0.711226
0.71124
0.711254
0.711268
0.711282
0.711296
0.71131
0.711324
0.711337
0.711349
0.711361
0.711373
0.711383
0.711393
0.711402
0.711411
0.711419
0.711427
0.711434
0.711441
0.711447
0.711454
0.71146
0.711467
0.711473
0.71148
0.711486
0.711492
0.711499
0.711505
0.711512
0.711518
0.711525
0.711531
0.711537
0.711543
0.711549
0.711555
0.711561
0.711566
0.711571
0.711576
0.711581
0.711585
0.711589
0.711593
0.711597
0.7116
0.711603
0.711606
0.711608
0.71161
0.711612
0.711613
0.711614
0.711615
0.711614
0.711616
0.711616
0.711604
0.711583
0.711559
0.711535
0.711514
0.711496
0.711481
0.711468
0.711456
0.711445
0.711436
0.711426
0.711417
0.711407
0.711396
0.711389
0.711358
0.711429
0.784379
0.784275
0.784247
0.784238
0.784237
0.784238
0.784243
0.784249
0.784256
0.784265
0.784274
0.784284
0.784295
0.784305
0.784314
0.784324
0.784332
0.78434
0.784347
0.784352
0.784357
0.78436
0.784362
0.784364
0.784364
0.784365
0.784368
0.784373
0.784379
0.784388
0.784396
0.784406
0.784415
0.784425
0.784435
0.784445
0.784456
0.784466
0.784477
0.784489
0.784501
0.784513
0.784526
0.784539
0.784553
0.784566
0.78458
0.784595
0.784609
0.784623
0.784636
0.784649
0.784662
0.784673
0.784685
0.784695
0.784705
0.784714
0.784722
0.78473
0.784738
0.784745
0.784751
0.784758
0.784764
0.784771
0.784777
0.784783
0.78479
0.784796
0.784802
0.784809
0.784816
0.784822
0.784829
0.784835
0.784842
0.784848
0.784854
0.78486
0.784866
0.784872
0.784877
0.784882
0.784888
0.784892
0.784897
0.784901
0.784905
0.784909
0.784913
0.784916
0.784919
0.784922
0.784924
0.784926
0.784927
0.784928
0.784929
0.784929
0.78493
0.784931
0.784928
0.78492
0.784907
0.784892
0.784877
0.784863
0.78485
0.784839
0.784828
0.784818
0.784808
0.784799
0.784789
0.78478
0.784768
0.78476
0.784729
0.784795
0.863786
0.86369
0.863663
0.863655
0.863654
0.863656
0.86366
0.863666
0.863673
0.863682
0.863692
0.863701
0.863711
0.863721
0.86373
0.863739
0.863747
0.863754
0.863759
0.863763
0.863766
0.863768
0.863768
0.863768
0.863766
0.863764
0.863762
0.863761
0.863761
0.863763
0.863766
0.863771
0.863776
0.863783
0.86379
0.863798
0.863806
0.863815
0.863825
0.863836
0.863847
0.863859
0.863871
0.863884
0.863897
0.863911
0.863925
0.863939
0.863952
0.863966
0.86398
0.863992
0.864005
0.864016
0.864027
0.864037
0.864047
0.864055
0.864063
0.864071
0.864078
0.864085
0.864091
0.864098
0.864104
0.86411
0.864116
0.864122
0.864128
0.864135
0.864141
0.864148
0.864154
0.864161
0.864167
0.864174
0.86418
0.864187
0.864193
0.864199
0.864205
0.864211
0.864216
0.864221
0.864226
0.864231
0.864236
0.86424
0.864245
0.864248
0.864252
0.864255
0.864258
0.864261
0.864263
0.864265
0.864267
0.864268
0.864269
0.864269
0.864269
0.864271
0.864271
0.864268
0.864263
0.864255
0.864246
0.864236
0.864227
0.864218
0.864209
0.8642
0.864191
0.864182
0.864173
0.864163
0.864152
0.864143
0.864113
0.864172
0.949745
0.949657
0.949632
0.949625
0.949623
0.949625
0.94963
0.949636
0.949644
0.949652
0.949662
0.949672
0.949681
0.949691
0.9497
0.949708
0.949714
0.94972
0.949724
0.949727
0.949728
0.949728
0.949726
0.949724
0.949721
0.949716
0.949711
0.949706
0.949702
0.949699
0.949698
0.949698
0.9497
0.949704
0.949708
0.949714
0.949721
0.949729
0.949738
0.949747
0.949758
0.949769
0.949781
0.949793
0.949806
0.94982
0.949834
0.949847
0.949861
0.949875
0.949888
0.9499
0.949912
0.949923
0.949934
0.949943
0.949952
0.94996
0.949968
0.949975
0.949982
0.949988
0.949994
0.95
0.950006
0.950011
0.950017
0.950023
0.950029
0.950035
0.950042
0.950048
0.950055
0.950061
0.950068
0.950074
0.950081
0.950087
0.950093
0.950099
0.950105
0.950111
0.950116
0.950121
0.950126
0.950131
0.950136
0.95014
0.950144
0.950148
0.950151
0.950155
0.950158
0.95016
0.950162
0.950164
0.950166
0.950167
0.950167
0.950168
0.950168
0.950169
0.95017
0.95017
0.950168
0.950165
0.95016
0.950155
0.950148
0.950142
0.950135
0.950127
0.95012
0.950112
0.950103
0.950093
0.950082
0.950073
0.950044
0.950096
1.04293
1.04285
1.04283
1.04282
1.04282
1.04283
1.04283
1.04284
1.04284
1.04285
1.04286
1.04287
1.04288
1.04289
1.0429
1.04291
1.04291
1.04292
1.04292
1.04292
1.04292
1.04292
1.04291
1.04291
1.0429
1.0429
1.04289
1.04288
1.04288
1.04287
1.04287
1.04286
1.04286
1.04286
1.04287
1.04287
1.04288
1.04288
1.04289
1.0429
1.04291
1.04292
1.04293
1.04295
1.04296
1.04297
1.04298
1.043
1.04301
1.04302
1.04304
1.04305
1.04306
1.04307
1.04308
1.04309
1.0431
1.04311
1.04311
1.04312
1.04313
1.04313
1.04314
1.04314
1.04315
1.04315
1.04316
1.04316
1.04317
1.04318
1.04318
1.04319
1.04319
1.0432
1.04321
1.04321
1.04322
1.04323
1.04323
1.04324
1.04324
1.04325
1.04325
1.04326
1.04326
1.04327
1.04327
1.04328
1.04328
1.04328
1.04329
1.04329
1.04329
1.0433
1.0433
1.0433
1.0433
1.0433
1.0433
1.0433
1.0433
1.0433
1.0433
1.0433
1.0433
1.0433
1.0433
1.0433
1.0433
1.04329
1.04329
1.04328
1.04327
1.04327
1.04326
1.04325
1.04324
1.04323
1.0432
1.04325
1.14421
1.14414
1.14412
1.14411
1.14411
1.14411
1.14412
1.14413
1.14413
1.14414
1.14415
1.14416
1.14417
1.14418
1.14419
1.14419
1.1442
1.1442
1.1442
1.1442
1.1442
1.1442
1.14419
1.14418
1.14418
1.14417
1.14416
1.14415
1.14414
1.14413
1.14413
1.14412
1.14412
1.14412
1.14412
1.14412
1.14413
1.14413
1.14414
1.14415
1.14416
1.14417
1.14418
1.1442
1.14421
1.14422
1.14424
1.14425
1.14426
1.14427
1.14429
1.1443
1.14431
1.14432
1.14433
1.14434
1.14434
1.14435
1.14436
1.14436
1.14437
1.14437
1.14438
1.14438
1.14439
1.14439
1.1444
1.1444
1.14441
1.14441
1.14442
1.14442
1.14443
1.14444
1.14444
1.14445
1.14445
1.14446
1.14447
1.14447
1.14448
1.14448
1.14449
1.14449
1.1445
1.1445
1.1445
1.14451
1.14451
1.14452
1.14452
1.14452
1.14452
1.14453
1.14453
1.14453
1.14453
1.14453
1.14453
1.14453
1.14453
1.14453
1.14453
1.14453
1.14453
1.14453
1.14453
1.14453
1.14453
1.14452
1.14452
1.14452
1.14451
1.1445
1.1445
1.14449
1.14448
1.14447
1.14444
1.14448
1.25466
1.2546
1.25458
1.25457
1.25457
1.25457
1.25458
1.25459
1.2546
1.25461
1.25461
1.25462
1.25463
1.25464
1.25465
1.25465
1.25466
1.25466
1.25466
1.25465
1.25465
1.25464
1.25464
1.25463
1.25462
1.25461
1.2546
1.25459
1.25458
1.25457
1.25456
1.25456
1.25455
1.25455
1.25455
1.25455
1.25456
1.25456
1.25457
1.25458
1.25459
1.2546
1.25461
1.25463
1.25464
1.25465
1.25467
1.25468
1.25469
1.2547
1.25472
1.25473
1.25474
1.25474
1.25475
1.25476
1.25477
1.25477
1.25478
1.25478
1.25479
1.25479
1.25479
1.2548
1.2548
1.25481
1.25481
1.25482
1.25482
1.25483
1.25483
1.25484
1.25484
1.25485
1.25486
1.25486
1.25487
1.25487
1.25488
1.25488
1.25489
1.25489
1.2549
1.2549
1.25491
1.25491
1.25491
1.25492
1.25492
1.25492
1.25493
1.25493
1.25493
1.25493
1.25493
1.25493
1.25493
1.25493
1.25493
1.25493
1.25493
1.25493
1.25493
1.25493
1.25493
1.25493
1.25493
1.25493
1.25493
1.25493
1.25493
1.25492
1.25492
1.25491
1.2549
1.2549
1.25488
1.25487
1.25485
1.25488
1.37564
1.37559
1.37557
1.37557
1.37557
1.37557
1.37557
1.37558
1.37559
1.3756
1.37561
1.37562
1.37563
1.37563
1.37564
1.37564
1.37564
1.37564
1.37564
1.37564
1.37563
1.37562
1.37561
1.3756
1.37559
1.37558
1.37557
1.37556
1.37555
1.37554
1.37553
1.37553
1.37552
1.37552
1.37552
1.37552
1.37553
1.37554
1.37554
1.37555
1.37556
1.37558
1.37559
1.3756
1.37561
1.37563
1.37564
1.37565
1.37566
1.37568
1.37569
1.3757
1.3757
1.37571
1.37572
1.37572
1.37573
1.37573
1.37574
1.37574
1.37575
1.37575
1.37575
1.37576
1.37576
1.37576
1.37577
1.37577
1.37578
1.37578
1.37579
1.37579
1.3758
1.3758
1.37581
1.37581
1.37582
1.37582
1.37583
1.37583
1.37584
1.37584
1.37585
1.37585
1.37585
1.37586
1.37586
1.37586
1.37587
1.37587
1.37587
1.37587
1.37587
1.37588
1.37588
1.37588
1.37588
1.37588
1.37588
1.37587
1.37587
1.37587
1.37587
1.37587
1.37587
1.37587
1.37587
1.37587
1.37587
1.37587
1.37586
1.37586
1.37586
1.37585
1.37584
1.37583
1.37582
1.37581
1.37579
1.37581
1.50887
1.50884
1.50882
1.50881
1.50881
1.50882
1.50882
1.50883
1.50884
1.50885
1.50886
1.50887
1.50887
1.50888
1.50888
1.50889
1.50889
1.50888
1.50888
1.50887
1.50886
1.50886
1.50884
1.50883
1.50882
1.50881
1.50879
1.50878
1.50877
1.50876
1.50876
1.50875
1.50875
1.50875
1.50875
1.50875
1.50876
1.50877
1.50878
1.50879
1.5088
1.50881
1.50882
1.50884
1.50885
1.50886
1.50888
1.50889
1.5089
1.50891
1.50892
1.50893
1.50893
1.50894
1.50895
1.50895
1.50895
1.50896
1.50896
1.50896
1.50896
1.50897
1.50897
1.50897
1.50897
1.50898
1.50898
1.50899
1.50899
1.50899
1.509
1.509
1.50901
1.50901
1.50902
1.50902
1.50903
1.50903
1.50904
1.50904
1.50905
1.50905
1.50905
1.50906
1.50906
1.50906
1.50906
1.50907
1.50907
1.50907
1.50907
1.50907
1.50907
1.50908
1.50908
1.50908
1.50907
1.50907
1.50907
1.50907
1.50907
1.50907
1.50907
1.50907
1.50906
1.50906
1.50906
1.50906
1.50906
1.50906
1.50905
1.50905
1.50905
1.50904
1.50903
1.50902
1.50901
1.509
1.50898
1.50899
1.65653
1.65651
1.6565
1.65649
1.65649
1.65649
1.6565
1.65651
1.65652
1.65652
1.65653
1.65654
1.65655
1.65655
1.65655
1.65655
1.65655
1.65655
1.65654
1.65653
1.65652
1.65651
1.6565
1.65649
1.65647
1.65646
1.65645
1.65643
1.65642
1.65641
1.65641
1.6564
1.6564
1.6564
1.65641
1.65641
1.65642
1.65643
1.65644
1.65645
1.65647
1.65648
1.65649
1.65651
1.65652
1.65653
1.65654
1.65655
1.65657
1.65657
1.65658
1.65659
1.6566
1.6566
1.6566
1.65661
1.65661
1.65661
1.65661
1.65661
1.65661
1.65662
1.65662
1.65662
1.65662
1.65662
1.65663
1.65663
1.65663
1.65664
1.65664
1.65665
1.65665
1.65666
1.65666
1.65666
1.65667
1.65667
1.65668
1.65668
1.65668
1.65669
1.65669
1.65669
1.65669
1.6567
1.6567
1.6567
1.6567
1.6567
1.6567
1.6567
1.6567
1.6567
1.6567
1.6567
1.6567
1.6567
1.6567
1.6567
1.65669
1.65669
1.65669
1.65669
1.65669
1.65668
1.65668
1.65668
1.65668
1.65668
1.65667
1.65667
1.65666
1.65666
1.65665
1.65664
1.65663
1.65662
1.6566
1.6566
1.82138
1.82137
1.82136
1.82136
1.82136
1.82136
1.82136
1.82137
1.82138
1.82139
1.82139
1.8214
1.8214
1.82141
1.82141
1.82141
1.8214
1.8214
1.82139
1.82138
1.82137
1.82136
1.82134
1.82133
1.82132
1.8213
1.82129
1.82127
1.82126
1.82126
1.82125
1.82125
1.82125
1.82126
1.82126
1.82127
1.82128
1.82129
1.8213
1.82132
1.82133
1.82134
1.82136
1.82137
1.82138
1.8214
1.82141
1.82142
1.82143
1.82144
1.82144
1.82145
1.82145
1.82145
1.82146
1.82146
1.82146
1.82146
1.82146
1.82146
1.82146
1.82146
1.82146
1.82146
1.82146
1.82146
1.82147
1.82147
1.82147
1.82148
1.82148
1.82148
1.82149
1.82149
1.82149
1.8215
1.8215
1.82151
1.82151
1.82151
1.82151
1.82152
1.82152
1.82152
1.82152
1.82152
1.82152
1.82153
1.82153
1.82153
1.82153
1.82153
1.82153
1.82153
1.82152
1.82152
1.82152
1.82152
1.82152
1.82151
1.82151
1.82151
1.82151
1.8215
1.8215
1.8215
1.82149
1.82149
1.82149
1.82148
1.82148
1.82148
1.82147
1.82146
1.82146
1.82145
1.82143
1.82142
1.8214
1.8214
2.00696
2.00697
2.00696
2.00695
2.00695
2.00695
2.00696
2.00697
2.00697
2.00698
2.00698
2.00698
2.00699
2.00699
2.00699
2.00698
2.00698
2.00697
2.00696
2.00695
2.00694
2.00693
2.00691
2.0069
2.00688
2.00687
2.00686
2.00684
2.00684
2.00683
2.00683
2.00683
2.00683
2.00684
2.00685
2.00686
2.00687
2.00688
2.0069
2.00691
2.00693
2.00694
2.00696
2.00697
2.00698
2.00699
2.00701
2.00701
2.00702
2.00703
2.00703
2.00704
2.00704
2.00704
2.00704
2.00704
2.00704
2.00704
2.00703
2.00703
2.00703
2.00703
2.00703
2.00703
2.00703
2.00703
2.00704
2.00704
2.00704
2.00704
2.00705
2.00705
2.00705
2.00706
2.00706
2.00706
2.00706
2.00707
2.00707
2.00707
2.00707
2.00707
2.00708
2.00708
2.00708
2.00708
2.00708
2.00708
2.00708
2.00708
2.00708
2.00708
2.00708
2.00707
2.00707
2.00707
2.00707
2.00706
2.00706
2.00706
2.00705
2.00705
2.00705
2.00705
2.00704
2.00704
2.00703
2.00703
2.00703
2.00702
2.00702
2.00701
2.00701
2.007
2.00699
2.00698
2.00696
2.00695
2.00693
2.00692
2.21784
2.21786
2.21785
2.21785
2.21785
2.21785
2.21785
2.21785
2.21786
2.21786
2.21786
2.21786
2.21786
2.21786
2.21786
2.21785
2.21785
2.21784
2.21783
2.21782
2.21781
2.2178
2.21778
2.21777
2.21775
2.21774
2.21772
2.21771
2.21771
2.2177
2.2177
2.21771
2.21771
2.21772
2.21773
2.21775
2.21776
2.21778
2.2178
2.21781
2.21783
2.21785
2.21786
2.21787
2.21788
2.2179
2.2179
2.21791
2.21792
2.21792
2.21792
2.21793
2.21793
2.21792
2.21792
2.21792
2.21792
2.21791
2.21791
2.21791
2.21791
2.2179
2.2179
2.2179
2.2179
2.2179
2.2179
2.21791
2.21791
2.21791
2.21791
2.21792
2.21792
2.21792
2.21792
2.21792
2.21793
2.21793
2.21793
2.21793
2.21793
2.21793
2.21793
2.21793
2.21793
2.21793
2.21793
2.21793
2.21793
2.21793
2.21793
2.21793
2.21792
2.21792
2.21792
2.21791
2.21791
2.21791
2.2179
2.2179
2.21789
2.21789
2.21789
2.21789
2.21788
2.21788
2.21787
2.21787
2.21786
2.21786
2.21785
2.21784
2.21784
2.21783
2.21782
2.2178
2.21779
2.21777
2.21775
2.21774
2.46
2.46003
2.46003
2.46002
2.46001
2.46001
2.46001
2.46001
2.46001
2.46001
2.46001
2.46001
2.46
2.46
2.46
2.45999
2.45999
2.45998
2.45997
2.45996
2.45995
2.45993
2.45992
2.4599
2.45989
2.45988
2.45986
2.45986
2.45985
2.45985
2.45985
2.45986
2.45987
2.45988
2.4599
2.45992
2.45993
2.45995
2.45997
2.45999
2.46001
2.46002
2.46004
2.46005
2.46006
2.46007
2.46008
2.46008
2.46009
2.46009
2.46009
2.46009
2.46008
2.46008
2.46008
2.46007
2.46007
2.46006
2.46006
2.46005
2.46005
2.46005
2.46005
2.46004
2.46004
2.46004
2.46004
2.46005
2.46005
2.46005
2.46005
2.46005
2.46005
2.46006
2.46006
2.46006
2.46006
2.46006
2.46006
2.46006
2.46006
2.46006
2.46006
2.46006
2.46006
2.46006
2.46005
2.46005
2.46005
2.46005
2.46005
2.46004
2.46004
2.46004
2.46003
2.46003
2.46002
2.46002
2.46002
2.46001
2.46001
2.46
2.46
2.46
2.45999
2.45999
2.45998
2.45997
2.45997
2.45996
2.45996
2.45995
2.45994
2.45993
2.45992
2.4599
2.45988
2.45986
2.45985
2.45982
2.74133
2.74138
2.74137
2.74137
2.74136
2.74135
2.74134
2.74134
2.74133
2.74132
2.74132
2.74132
2.74131
2.74131
2.74131
2.7413
2.7413
2.74129
2.74128
2.74127
2.74126
2.74124
2.74123
2.74122
2.7412
2.74119
2.74118
2.74117
2.74117
2.74117
2.74118
2.74119
2.7412
2.74122
2.74124
2.74126
2.74128
2.74131
2.74133
2.74135
2.74136
2.74138
2.74139
2.7414
2.74141
2.74142
2.74143
2.74143
2.74143
2.74143
2.74143
2.74142
2.74142
2.74141
2.74141
2.7414
2.74139
2.74139
2.74138
2.74137
2.74137
2.74137
2.74136
2.74136
2.74136
2.74136
2.74136
2.74136
2.74136
2.74136
2.74136
2.74136
2.74136
2.74136
2.74136
2.74136
2.74136
2.74136
2.74136
2.74136
2.74136
2.74136
2.74136
2.74135
2.74135
2.74135
2.74135
2.74134
2.74134
2.74134
2.74134
2.74133
2.74133
2.74132
2.74132
2.74131
2.74131
2.7413
2.7413
2.74129
2.74129
2.74128
2.74128
2.74128
2.74127
2.74127
2.74126
2.74125
2.74125
2.74124
2.74123
2.74122
2.74121
2.7412
2.74119
2.74117
2.74115
2.74113
2.74111
2.74108
3.07245
3.07252
3.07252
3.0725
3.07249
3.07247
3.07245
3.07244
3.07242
3.07241
3.07241
3.0724
3.0724
3.0724
3.0724
3.07239
3.07239
3.07238
3.07237
3.07236
3.07235
3.07234
3.07232
3.07231
3.0723
3.07229
3.07228
3.07228
3.07228
3.07229
3.0723
3.07231
3.07233
3.07235
3.07238
3.0724
3.07242
3.07245
3.07247
3.07249
3.07251
3.07252
3.07254
3.07255
3.07255
3.07256
3.07256
3.07256
3.07256
3.07255
3.07255
3.07254
3.07253
3.07253
3.07252
3.07251
3.0725
3.07249
3.07248
3.07248
3.07247
3.07247
3.07246
3.07246
3.07246
3.07245
3.07245
3.07245
3.07245
3.07245
3.07245
3.07245
3.07245
3.07245
3.07245
3.07245
3.07245
3.07245
3.07244
3.07244
3.07244
3.07244
3.07243
3.07243
3.07243
3.07242
3.07242
3.07242
3.07241
3.07241
3.0724
3.0724
3.0724
3.07239
3.07239
3.07238
3.07237
3.07237
3.07236
3.07235
3.07235
3.07235
3.07234
3.07234
3.07233
3.07233
3.07232
3.07231
3.07231
3.0723
3.07229
3.07228
3.07227
3.07225
3.07224
3.07222
3.0722
3.07217
3.07216
3.07213
3.46784
3.46794
3.46793
3.46791
3.46788
3.46784
3.46782
3.46779
3.46777
3.46776
3.46776
3.46775
3.46775
3.46775
3.46775
3.46775
3.46775
3.46774
3.46774
3.46773
3.46771
3.4677
3.46769
3.46768
3.46767
3.46766
3.46766
3.46766
3.46766
3.46767
3.46769
3.46771
3.46773
3.46776
3.46779
3.46781
3.46784
3.46787
3.46789
3.46791
3.46793
3.46794
3.46795
3.46796
3.46796
3.46796
3.46796
3.46796
3.46795
3.46795
3.46794
3.46793
3.46792
3.46791
3.46789
3.46788
3.46787
3.46786
3.46785
3.46784
3.46784
3.46783
3.46783
3.46782
3.46782
3.46782
3.46782
3.46781
3.46781
3.46781
3.46781
3.46781
3.46781
3.4678
3.4678
3.4678
3.4678
3.46779
3.46779
3.46779
3.46778
3.46778
3.46777
3.46777
3.46776
3.46776
3.46776
3.46775
3.46775
3.46774
3.46774
3.46773
3.46773
3.46772
3.46771
3.46771
3.4677
3.46769
3.46769
3.46768
3.46767
3.46767
3.46767
3.46766
3.46766
3.46765
3.46765
3.46764
3.46763
3.46762
3.46761
3.4676
3.46758
3.46757
3.46755
3.46753
3.46751
3.46748
3.46746
3.46744
3.94768
3.9478
3.94779
3.94775
3.94769
3.94764
3.94759
3.94756
3.94754
3.94753
3.94753
3.94753
3.94753
3.94754
3.94754
3.94754
3.94754
3.94753
3.94753
3.94752
3.94751
3.9475
3.94749
3.94748
3.94748
3.94747
3.94747
3.94747
3.94748
3.9475
3.94752
3.94755
3.94757
3.94761
3.94764
3.94767
3.94769
3.94772
3.94774
3.94776
3.94778
3.94779
3.9478
3.9478
3.9478
3.9478
3.9478
3.94779
3.94778
3.94777
3.94776
3.94774
3.94773
3.94771
3.9477
3.94769
3.94767
3.94766
3.94765
3.94764
3.94763
3.94762
3.94762
3.94761
3.94761
3.94761
3.9476
3.9476
3.9476
3.94759
3.94759
3.94759
3.94758
3.94758
3.94758
3.94757
3.94757
3.94756
3.94756
3.94755
3.94755
3.94754
3.94754
3.94753
3.94752
3.94752
3.94751
3.94751
3.9475
3.9475
3.94749
3.94748
3.94748
3.94747
3.94746
3.94746
3.94745
3.94744
3.94743
3.94743
3.94742
3.94742
3.94742
3.94741
3.94741
3.9474
3.94739
3.94739
3.94738
3.94737
3.94735
3.94734
3.94733
3.94731
3.94729
3.94727
3.94724
3.94722
3.94719
3.94718
4.5407
4.54084
4.54081
4.54073
4.54064
4.54056
4.54051
4.54047
4.54045
4.54045
4.54046
4.54046
4.54047
4.54048
4.54049
4.54049
4.54049
4.54049
4.54049
4.54048
4.54047
4.54046
4.54046
4.54045
4.54045
4.54045
4.54045
4.54046
4.54048
4.5405
4.54053
4.54056
4.54059
4.54063
4.54066
4.54069
4.54072
4.54075
4.54077
4.54079
4.5408
4.54081
4.54081
4.54081
4.54081
4.5408
4.54079
4.54078
4.54077
4.54075
4.54074
4.54072
4.5407
4.54068
4.54066
4.54065
4.54063
4.54062
4.5406
4.54059
4.54058
4.54057
4.54057
4.54056
4.54055
4.54055
4.54054
4.54054
4.54053
4.54053
4.54052
4.54052
4.54051
4.54051
4.5405
4.5405
4.54049
4.54048
4.54048
4.54047
4.54046
4.54046
4.54045
4.54044
4.54044
4.54043
4.54042
4.54041
4.54041
4.5404
4.54039
4.54039
4.54038
4.54037
4.54036
4.54036
4.54035
4.54034
4.54033
4.54032
4.54032
4.54032
4.54032
4.54031
4.54031
4.5403
4.54029
4.54028
4.54027
4.54026
4.54025
4.54024
4.54022
4.5402
4.54018
4.54016
4.54013
4.54011
4.54008
4.54008
5.28917
5.28934
5.28926
5.28912
5.28899
5.28889
5.28883
5.2888
5.2888
5.28881
5.28882
5.28884
5.28885
5.28887
5.28888
5.28889
5.28889
5.28889
5.28888
5.28888
5.28887
5.28887
5.28887
5.28887
5.28887
5.28888
5.28888
5.2889
5.28892
5.28895
5.28898
5.28902
5.28906
5.2891
5.28913
5.28917
5.28919
5.28922
5.28924
5.28925
5.28926
5.28927
5.28927
5.28926
5.28925
5.28924
5.28923
5.28921
5.28919
5.28917
5.28915
5.28912
5.2891
5.28908
5.28906
5.28904
5.28902
5.289
5.28899
5.28897
5.28896
5.28895
5.28894
5.28893
5.28892
5.28892
5.28891
5.2889
5.2889
5.28889
5.28888
5.28888
5.28887
5.28886
5.28885
5.28884
5.28883
5.28883
5.28882
5.28881
5.2888
5.28879
5.28878
5.28877
5.28877
5.28876
5.28875
5.28874
5.28873
5.28873
5.28872
5.28871
5.2887
5.28869
5.28868
5.28868
5.28867
5.28866
5.28865
5.28864
5.28864
5.28864
5.28864
5.28863
5.28863
5.28862
5.28861
5.28861
5.28859
5.28858
5.28857
5.28855
5.28854
5.28852
5.2885
5.28848
5.28845
5.28843
5.2884
5.28842
6.25842
6.25858
6.25842
6.2582
6.25803
6.25792
6.25788
6.25787
6.25788
6.25791
6.25793
6.25796
6.25799
6.258
6.25802
6.25803
6.25803
6.25803
6.25803
6.25803
6.25803
6.25803
6.25803
6.25804
6.25805
6.25806
6.25807
6.2581
6.25813
6.25816
6.2582
6.25825
6.25829
6.25833
6.25836
6.2584
6.25842
6.25845
6.25846
6.25847
6.25847
6.25847
6.25847
6.25846
6.25844
6.25842
6.2584
6.25838
6.25835
6.25833
6.2583
6.25827
6.25824
6.25821
6.25819
6.25816
6.25814
6.25812
6.2581
6.25808
6.25807
6.25806
6.25804
6.25803
6.25802
6.25801
6.258
6.25799
6.25799
6.25798
6.25797
6.25796
6.25794
6.25793
6.25792
6.25791
6.2579
6.25789
6.25788
6.25787
6.25786
6.25785
6.25784
6.25783
6.25782
6.25781
6.2578
6.25779
6.25778
6.25777
6.25776
6.25775
6.25774
6.25773
6.25773
6.25772
6.25771
6.2577
6.25769
6.25768
6.25768
6.25768
6.25768
6.25768
6.25767
6.25767
6.25766
6.25765
6.25764
6.25762
6.25761
6.2576
6.25758
6.25756
6.25754
6.25752
6.25749
6.25748
6.25744
6.25751
7.55798
7.55808
7.55779
7.5575
7.55732
7.55724
7.55723
7.55725
7.55729
7.55733
7.55737
7.5574
7.55743
7.55745
7.55747
7.55748
7.55748
7.55749
7.55749
7.55749
7.55749
7.5575
7.55751
7.55752
7.55754
7.55756
7.55759
7.55762
7.55766
7.5577
7.55775
7.5578
7.55784
7.55788
7.55792
7.55795
7.55797
7.55799
7.558
7.558
7.558
7.55799
7.55798
7.55796
7.55794
7.55791
7.55788
7.55785
7.55782
7.55778
7.55775
7.55771
7.55768
7.55764
7.55761
7.55758
7.55756
7.55753
7.55751
7.55749
7.55747
7.55745
7.55744
7.55742
7.55741
7.5574
7.55738
7.55737
7.55736
7.55735
7.55733
7.55732
7.5573
7.55729
7.55728
7.55726
7.55725
7.55723
7.55722
7.55721
7.55719
7.55718
7.55717
7.55716
7.55714
7.55713
7.55712
7.55711
7.5571
7.55709
7.55708
7.55707
7.55707
7.55706
7.55705
7.55704
7.55703
7.55702
7.55701
7.557
7.557
7.55701
7.55701
7.557
7.557
7.55699
7.55698
7.55697
7.55696
7.55695
7.55694
7.55692
7.55691
7.55689
7.55688
7.55686
7.55683
7.55684
7.55679
7.55693
9.39791
9.39788
9.39742
9.39711
9.39697
9.39695
9.39699
9.39705
9.39711
9.39717
9.39721
9.39725
9.39728
9.3973
9.39731
9.39732
9.39733
9.39733
9.39734
9.39735
9.39736
9.39737
9.39739
9.39742
9.39744
9.39747
9.39751
9.39755
9.3976
9.39765
9.3977
9.39775
9.3978
9.39783
9.39787
9.39789
9.39791
9.39792
9.39792
9.39792
9.39791
9.3979
9.39788
9.39785
9.39782
9.39779
9.39775
9.39771
9.39767
9.39763
9.39758
9.39754
9.3975
9.39746
9.39742
9.39738
9.39735
9.39732
9.39729
9.39727
9.39725
9.39723
9.39721
9.39719
9.39717
9.39715
9.39714
9.39712
9.3971
9.39709
9.39707
9.39705
9.39703
9.39702
9.397
9.39698
9.39696
9.39695
9.39693
9.39691
9.3969
9.39688
9.39687
9.39686
9.39684
9.39683
9.39682
9.39681
9.3968
9.39679
9.39678
9.39677
9.39676
9.39675
9.39674
9.39673
9.39672
9.39671
9.39671
9.3967
9.3967
9.39671
9.39671
9.3967
9.39669
9.39669
9.39668
9.39667
9.39666
9.39665
9.39664
9.39663
9.39662
9.39661
9.39659
9.39659
9.39656
9.39659
9.39654
9.39676
12.2555
12.2552
12.2546
12.2544
12.2543
12.2544
12.2545
12.2546
12.2547
12.2547
12.2548
12.2548
12.2548
12.2548
12.2548
12.2549
12.2549
12.2549
12.2549
12.2549
12.2549
12.2549
12.255
12.255
12.255
12.2551
12.2551
12.2552
12.2552
12.2553
12.2553
12.2554
12.2554
12.2555
12.2555
12.2555
12.2555
12.2555
12.2555
12.2555
12.2555
12.2555
12.2554
12.2554
12.2554
12.2553
12.2553
12.2552
12.2552
12.2551
12.2551
12.255
12.255
12.255
12.2549
12.2549
12.2548
12.2548
12.2548
12.2547
12.2547
12.2547
12.2547
12.2546
12.2546
12.2546
12.2546
12.2546
12.2545
12.2545
12.2545
12.2545
12.2545
12.2544
12.2544
12.2544
12.2544
12.2544
12.2543
12.2543
12.2543
12.2543
12.2543
12.2543
12.2543
12.2542
12.2542
12.2542
12.2542
12.2542
12.2542
12.2542
12.2542
12.2542
12.2541
12.2541
12.2541
12.2541
12.2541
12.2541
12.2541
12.2541
12.2541
12.2541
12.2541
12.2541
12.2541
12.2541
12.2541
12.2541
12.2541
12.2541
12.254
12.254
12.254
12.254
12.254
12.2541
12.254
12.2543
17.3834
17.3828
17.3823
17.3822
17.3823
17.3825
17.3826
17.3827
17.3828
17.3828
17.3828
17.3829
17.3829
17.3829
17.3829
17.3829
17.3829
17.3829
17.3829
17.3829
17.383
17.383
17.383
17.3831
17.3831
17.3831
17.3832
17.3832
17.3833
17.3833
17.3834
17.3834
17.3835
17.3835
17.3835
17.3835
17.3835
17.3835
17.3835
17.3835
17.3835
17.3835
17.3834
17.3834
17.3834
17.3833
17.3833
17.3832
17.3832
17.3831
17.3831
17.383
17.383
17.3829
17.3829
17.3829
17.3828
17.3828
17.3828
17.3827
17.3827
17.3827
17.3827
17.3826
17.3826
17.3826
17.3826
17.3826
17.3825
17.3825
17.3825
17.3825
17.3825
17.3824
17.3824
17.3824
17.3824
17.3824
17.3823
17.3823
17.3823
17.3823
17.3823
17.3823
17.3822
17.3822
17.3822
17.3822
17.3822
17.3822
17.3822
17.3822
17.3822
17.3822
17.3822
17.3821
17.3821
17.3821
17.3821
17.3821
17.3821
17.3821
17.3821
17.3821
17.3821
17.3821
17.3821
17.3821
17.3821
17.3821
17.3821
17.3821
17.3821
17.3821
17.3821
17.3821
17.3821
17.3822
17.3821
17.3825
28.4487
28.448
28.4476
28.4478
28.448
28.4482
28.4483
28.4484
28.4484
28.4485
28.4485
28.4485
28.4485
28.4485
28.4485
28.4485
28.4485
28.4485
28.4485
28.4486
28.4486
28.4486
28.4486
28.4487
28.4487
28.4487
28.4488