/*--------------------------------*- C++ -*----------------------------------*\
  =========                 |
  \\      /  F ield         | OpenFOAM: The Open Source CFD Toolbox
   \\    /   O peration     | Website:  https://openfoam.org
    \\  /    A nd           | Version:  7
     \\/     M anipulation  |
\*---------------------------------------------------------------------------*/
FoamFile
{
    version     2.0;
    format      ascii;
    class       volScalarField;
    location    "1000";
    object      k;
}
// * * * * * * * * * * * * * * * * * * * * * * * * * * * * * * * * * * * * * //

dimensions      [0 2 -2 0 0 0 0];

internalField   nonuniform List<scalar> 
24000
(
9.38276e-09
9.38348e-09
9.3841e-09
9.3844e-09
9.38453e-09
9.38456e-09
9.38453e-09
9.38449e-09
9.38445e-09
9.38442e-09
9.3844e-09
9.3844e-09
9.3844e-09
9.38441e-09
9.38442e-09
9.38444e-09
9.38446e-09
9.38449e-09
9.38452e-09
9.38454e-09
9.38457e-09
9.3846e-09
9.38463e-09
9.38466e-09
9.38469e-09
9.38472e-09
9.38475e-09
9.38478e-09
9.38481e-09
9.38484e-09
9.38487e-09
9.3849e-09
9.38492e-09
9.38495e-09
9.38498e-09
9.38501e-09
9.38503e-09
9.38506e-09
9.38508e-09
9.38511e-09
9.38512e-09
9.38514e-09
9.38512e-09
9.38511e-09
9.38501e-09
9.38486e-09
9.38484e-09
9.38487e-09
9.3849e-09
9.38492e-09
9.38496e-09
9.38499e-09
9.385e-09
9.38501e-09
9.38501e-09
9.38502e-09
9.38504e-09
9.38507e-09
9.38513e-09
9.38521e-09
9.38533e-09
9.38547e-09
9.38564e-09
9.38582e-09
9.38602e-09
9.38623e-09
9.38643e-09
9.38664e-09
9.38684e-09
9.38703e-09
9.38721e-09
9.38738e-09
9.38753e-09
9.38767e-09
9.3878e-09
9.38792e-09
9.38802e-09
9.38811e-09
9.3882e-09
9.38827e-09
9.38834e-09
9.3884e-09
9.38845e-09
9.3885e-09
9.38854e-09
9.38857e-09
9.38859e-09
9.38861e-09
9.38864e-09
9.38867e-09
9.3887e-09
9.38871e-09
9.38871e-09
9.38869e-09
9.38865e-09
9.3886e-09
9.38853e-09
9.38843e-09
9.38832e-09
9.38816e-09
9.38798e-09
9.38773e-09
9.38747e-09
9.38711e-09
9.38668e-09
9.3864e-09
9.38616e-09
9.38593e-09
9.3857e-09
9.38546e-09
9.38522e-09
9.38498e-09
9.38475e-09
9.38454e-09
9.38436e-09
9.3842e-09
9.38407e-09
9.38386e-09
9.38394e-09
9.38291e-09
3.01711e-07
3.01735e-07
3.01754e-07
3.01764e-07
3.01768e-07
3.01769e-07
3.01768e-07
3.01766e-07
3.01765e-07
3.01764e-07
3.01764e-07
3.01763e-07
3.01763e-07
3.01764e-07
3.01764e-07
3.01765e-07
3.01766e-07
3.01766e-07
3.01767e-07
3.01768e-07
3.01769e-07
3.0177e-07
3.01771e-07
3.01772e-07
3.01773e-07
3.01774e-07
3.01775e-07
3.01776e-07
3.01777e-07
3.01778e-07
3.01779e-07
3.0178e-07
3.0178e-07
3.01781e-07
3.01782e-07
3.01783e-07
3.01784e-07
3.01785e-07
3.01786e-07
3.01786e-07
3.01787e-07
3.01788e-07
3.01787e-07
3.01786e-07
3.01783e-07
3.01778e-07
3.01778e-07
3.01779e-07
3.0178e-07
3.01781e-07
3.01782e-07
3.01783e-07
3.01783e-07
3.01783e-07
3.01783e-07
3.01784e-07
3.01784e-07
3.01785e-07
3.01787e-07
3.0179e-07
3.01794e-07
3.01798e-07
3.01803e-07
3.01809e-07
3.01816e-07
3.01822e-07
3.01829e-07
3.01836e-07
3.01842e-07
3.01848e-07
3.01854e-07
3.01859e-07
3.01864e-07
3.01869e-07
3.01873e-07
3.01877e-07
3.0188e-07
3.01883e-07
3.01886e-07
3.01888e-07
3.0189e-07
3.01892e-07
3.01894e-07
3.01895e-07
3.01897e-07
3.01898e-07
3.01898e-07
3.01899e-07
3.019e-07
3.01901e-07
3.01902e-07
3.01902e-07
3.01902e-07
3.01901e-07
3.019e-07
3.01899e-07
3.01896e-07
3.01893e-07
3.01889e-07
3.01884e-07
3.01879e-07
3.01871e-07
3.01862e-07
3.01851e-07
3.01837e-07
3.01828e-07
3.0182e-07
3.01813e-07
3.01806e-07
3.01798e-07
3.0179e-07
3.01782e-07
3.01775e-07
3.01768e-07
3.01762e-07
3.01757e-07
3.01753e-07
3.01746e-07
3.01749e-07
3.01716e-07
2.18893e-06
2.18908e-06
2.18922e-06
2.18929e-06
2.18932e-06
2.18933e-06
2.18932e-06
2.18931e-06
2.1893e-06
2.18929e-06
2.18929e-06
2.18929e-06
2.18929e-06
2.18929e-06
2.1893e-06
2.1893e-06
2.18931e-06
2.18931e-06
2.18932e-06
2.18932e-06
2.18933e-06
2.18934e-06
2.18934e-06
2.18935e-06
2.18936e-06
2.18937e-06
2.18937e-06
2.18938e-06
2.18939e-06
2.18939e-06
2.1894e-06
2.18941e-06
2.18941e-06
2.18942e-06
2.18943e-06
2.18943e-06
2.18944e-06
2.18945e-06
2.18945e-06
2.18946e-06
2.18946e-06
2.18947e-06
2.18946e-06
2.18946e-06
2.18944e-06
2.1894e-06
2.1894e-06
2.1894e-06
2.18941e-06
2.18942e-06
2.18942e-06
2.18943e-06
2.18943e-06
2.18944e-06
2.18944e-06
2.18944e-06
2.18944e-06
2.18945e-06
2.18946e-06
2.18948e-06
2.18951e-06
2.18954e-06
2.18958e-06
2.18962e-06
2.18967e-06
2.18972e-06
2.18977e-06
2.18982e-06
2.18986e-06
2.18991e-06
2.18995e-06
2.18999e-06
2.19002e-06
2.19006e-06
2.19008e-06
2.19011e-06
2.19013e-06
2.19016e-06
2.19018e-06
2.19019e-06
2.19021e-06
2.19022e-06
2.19023e-06
2.19025e-06
2.19025e-06
2.19026e-06
2.19027e-06
2.19027e-06
2.19028e-06
2.19028e-06
2.19029e-06
2.19029e-06
2.19029e-06
2.19029e-06
2.19028e-06
2.19027e-06
2.19025e-06
2.19023e-06
2.1902e-06
2.19017e-06
2.19012e-06
2.19007e-06
2.19001e-06
2.18992e-06
2.18982e-06
2.18976e-06
2.1897e-06
2.18965e-06
2.18959e-06
2.18954e-06
2.18948e-06
2.18943e-06
2.18937e-06
2.18932e-06
2.18928e-06
2.18924e-06
2.18921e-06
2.18917e-06
2.18918e-06
2.18896e-06
8.05399e-06
8.0545e-06
8.05499e-06
8.05524e-06
8.05535e-06
8.05537e-06
8.05534e-06
8.05531e-06
8.05528e-06
8.05526e-06
8.05524e-06
8.05524e-06
8.05525e-06
8.05526e-06
8.05527e-06
8.05529e-06
8.05531e-06
8.05533e-06
8.05536e-06
8.05538e-06
8.0554e-06
8.05543e-06
8.05545e-06
8.05548e-06
8.05551e-06
8.05553e-06
8.05556e-06
8.05559e-06
8.05561e-06
8.05564e-06
8.05566e-06
8.05569e-06
8.05571e-06
8.05574e-06
8.05576e-06
8.05578e-06
8.05581e-06
8.05583e-06
8.05585e-06
8.05587e-06
8.05588e-06
8.0559e-06
8.05588e-06
8.05587e-06
8.05579e-06
8.05568e-06
8.05565e-06
8.05567e-06
8.0557e-06
8.05572e-06
8.05575e-06
8.05577e-06
8.05579e-06
8.05579e-06
8.0558e-06
8.0558e-06
8.05581e-06
8.05585e-06
8.0559e-06
8.05597e-06
8.05607e-06
8.05619e-06
8.05633e-06
8.05649e-06
8.05666e-06
8.05683e-06
8.05701e-06
8.05718e-06
8.05735e-06
8.05751e-06
8.05767e-06
8.05781e-06
8.05793e-06
8.05805e-06
8.05816e-06
8.05825e-06
8.05834e-06
8.05842e-06
8.05848e-06
8.05855e-06
8.0586e-06
8.05865e-06
8.0587e-06
8.05873e-06
8.05876e-06
8.05879e-06
8.05881e-06
8.05882e-06
8.05885e-06
8.05887e-06
8.05889e-06
8.0589e-06
8.05889e-06
8.05888e-06
8.05885e-06
8.0588e-06
8.05874e-06
8.05866e-06
8.05856e-06
8.05842e-06
8.05827e-06
8.05806e-06
8.05785e-06
8.05755e-06
8.05719e-06
8.05694e-06
8.05674e-06
8.05654e-06
8.05634e-06
8.05614e-06
8.05593e-06
8.05573e-06
8.05554e-06
8.05536e-06
8.0552e-06
8.05506e-06
8.05496e-06
8.05479e-06
8.05484e-06
8.05407e-06
2.02715e-05
2.02725e-05
2.02736e-05
2.02742e-05
2.02745e-05
2.02745e-05
2.02745e-05
2.02744e-05
2.02744e-05
2.02743e-05
2.02743e-05
2.02743e-05
2.02743e-05
2.02743e-05
2.02744e-05
2.02744e-05
2.02745e-05
2.02745e-05
2.02746e-05
2.02747e-05
2.02747e-05
2.02748e-05
2.02749e-05
2.02749e-05
2.0275e-05
2.02751e-05
2.02751e-05
2.02752e-05
2.02753e-05
2.02753e-05
2.02754e-05
2.02754e-05
2.02755e-05
2.02756e-05
2.02756e-05
2.02757e-05
2.02757e-05
2.02758e-05
2.02758e-05
2.02759e-05
2.02759e-05
2.0276e-05
2.02759e-05
2.02759e-05
2.02757e-05
2.02755e-05
2.02754e-05
2.02754e-05
2.02755e-05
2.02756e-05
2.02756e-05
2.02757e-05
2.02757e-05
2.02757e-05
2.02757e-05
2.02757e-05
2.02758e-05
2.02759e-05
2.0276e-05
2.02762e-05
2.02764e-05
2.02767e-05
2.02771e-05
2.02775e-05
2.02779e-05
2.02783e-05
2.02787e-05
2.02792e-05
2.02796e-05
2.028e-05
2.02803e-05
2.02807e-05
2.0281e-05
2.02812e-05
2.02815e-05
2.02817e-05
2.02819e-05
2.02821e-05
2.02823e-05
2.02824e-05
2.02825e-05
2.02827e-05
2.02828e-05
2.02828e-05
2.02829e-05
2.0283e-05
2.0283e-05
2.0283e-05
2.02831e-05
2.02831e-05
2.02832e-05
2.02832e-05
2.02832e-05
2.02831e-05
2.02831e-05
2.02829e-05
2.02828e-05
2.02826e-05
2.02823e-05
2.0282e-05
2.02816e-05
2.02811e-05
2.02806e-05
2.02799e-05
2.0279e-05
2.02784e-05
2.02779e-05
2.02774e-05
2.02769e-05
2.02764e-05
2.02759e-05
2.02754e-05
2.02749e-05
2.02745e-05
2.02741e-05
2.02738e-05
2.02735e-05
2.02731e-05
2.02732e-05
2.02715e-05
3.91391e-05
3.91405e-05
3.91422e-05
3.91433e-05
3.91438e-05
3.9144e-05
3.91439e-05
3.91438e-05
3.91437e-05
3.91437e-05
3.91436e-05
3.91437e-05
3.91437e-05
3.91438e-05
3.91439e-05
3.9144e-05
3.91441e-05
3.91442e-05
3.91443e-05
3.91445e-05
3.91446e-05
3.91447e-05
3.91448e-05
3.9145e-05
3.91451e-05
3.91452e-05
3.91454e-05
3.91455e-05
3.91456e-05
3.91457e-05
3.91459e-05
3.9146e-05
3.91461e-05
3.91462e-05
3.91463e-05
3.91464e-05
3.91465e-05
3.91466e-05
3.91467e-05
3.91468e-05
3.91468e-05
3.91469e-05
3.91468e-05
3.91468e-05
3.91465e-05
3.91461e-05
3.9146e-05
3.91461e-05
3.91462e-05
3.91463e-05
3.91464e-05
3.91465e-05
3.91465e-05
3.91465e-05
3.91466e-05
3.91466e-05
3.91467e-05
3.91468e-05
3.91471e-05
3.91474e-05
3.91479e-05
3.91485e-05
3.91491e-05
3.91498e-05
3.91506e-05
3.91513e-05
3.91521e-05
3.91529e-05
3.91536e-05
3.91543e-05
3.9155e-05
3.91555e-05
3.91561e-05
3.91566e-05
3.9157e-05
3.91574e-05
3.91578e-05
3.91581e-05
3.91583e-05
3.91586e-05
3.91588e-05
3.9159e-05
3.91592e-05
3.91593e-05
3.91594e-05
3.91595e-05
3.91595e-05
3.91596e-05
3.91597e-05
3.91597e-05
3.91598e-05
3.91598e-05
3.91597e-05
3.91596e-05
3.91595e-05
3.91592e-05
3.91589e-05
3.91585e-05
3.9158e-05
3.91574e-05
3.91567e-05
3.91558e-05
3.91548e-05
3.91536e-05
3.91521e-05
3.91509e-05
3.915e-05
3.91491e-05
3.91482e-05
3.91473e-05
3.91464e-05
3.91455e-05
3.91446e-05
3.91438e-05
3.91431e-05
3.91426e-05
3.91421e-05
3.91414e-05
3.91416e-05
3.91389e-05
6.1774e-05
6.17754e-05
6.17774e-05
6.17789e-05
6.17797e-05
6.178e-05
6.178e-05
6.17799e-05
6.17798e-05
6.17798e-05
6.17798e-05
6.17799e-05
6.178e-05
6.17801e-05
6.17802e-05
6.17804e-05
6.17806e-05
6.17808e-05
6.1781e-05
6.17812e-05
6.17815e-05
6.17817e-05
6.17819e-05
6.17821e-05
6.17823e-05
6.17825e-05
6.17827e-05
6.17829e-05
6.17831e-05
6.17833e-05
6.17835e-05
6.17837e-05
6.17838e-05
6.1784e-05
6.17842e-05
6.17843e-05
6.17844e-05
6.17846e-05
6.17847e-05
6.17848e-05
6.17849e-05
6.1785e-05
6.17849e-05
6.17849e-05
6.17846e-05
6.1784e-05
6.17839e-05
6.1784e-05
6.17841e-05
6.17842e-05
6.17844e-05
6.17845e-05
6.17846e-05
6.17846e-05
6.17846e-05
6.17847e-05
6.17848e-05
6.17851e-05
6.17855e-05
6.17861e-05
6.17868e-05
6.17876e-05
6.17886e-05
6.17896e-05
6.17907e-05
6.17918e-05
6.1793e-05
6.17941e-05
6.17951e-05
6.17961e-05
6.1797e-05
6.17978e-05
6.17986e-05
6.17993e-05
6.17999e-05
6.18004e-05
6.18009e-05
6.18013e-05
6.18017e-05
6.1802e-05
6.18022e-05
6.18025e-05
6.18027e-05
6.18028e-05
6.1803e-05
6.1803e-05
6.18031e-05
6.18031e-05
6.18032e-05
6.18032e-05
6.18032e-05
6.18032e-05
6.18031e-05
6.18029e-05
6.18026e-05
6.18023e-05
6.18018e-05
6.18012e-05
6.18004e-05
6.17995e-05
6.17984e-05
6.17971e-05
6.17956e-05
6.17939e-05
6.17918e-05
6.17901e-05
6.17887e-05
6.17873e-05
6.1786e-05
6.17847e-05
6.17834e-05
6.17821e-05
6.17809e-05
6.17797e-05
6.17787e-05
6.17779e-05
6.17772e-05
6.17763e-05
6.17765e-05
6.17734e-05
8.4221e-05
8.42218e-05
8.42237e-05
8.42254e-05
8.42265e-05
8.4227e-05
8.42272e-05
8.42272e-05
8.42272e-05
8.42272e-05
8.42273e-05
8.42274e-05
8.42276e-05
8.42278e-05
8.4228e-05
8.42283e-05
8.42286e-05
8.42289e-05
8.42292e-05
8.42295e-05
8.42298e-05
8.42301e-05
8.42304e-05
8.42307e-05
8.4231e-05
8.42313e-05
8.42316e-05
8.42319e-05
8.42321e-05
8.42324e-05
8.42326e-05
8.42329e-05
8.42331e-05
8.42333e-05
8.42335e-05
8.42337e-05
8.42339e-05
8.4234e-05
8.42342e-05
8.42343e-05
8.42344e-05
8.42345e-05
8.42345e-05
8.42345e-05
8.42342e-05
8.42336e-05
8.42334e-05
8.42335e-05
8.42336e-05
8.42338e-05
8.42339e-05
8.4234e-05
8.42341e-05
8.42342e-05
8.42343e-05
8.42344e-05
8.42346e-05
8.4235e-05
8.42356e-05
8.42363e-05
8.42372e-05
8.42383e-05
8.42396e-05
8.42409e-05
8.42423e-05
8.42437e-05
8.42451e-05
8.42465e-05
8.42478e-05
8.4249e-05
8.42501e-05
8.42511e-05
8.4252e-05
8.42528e-05
8.42535e-05
8.42541e-05
8.42546e-05
8.42551e-05
8.42555e-05
8.42558e-05
8.42561e-05
8.42563e-05
8.42565e-05
8.42566e-05
8.42567e-05
8.42568e-05
8.42568e-05
8.42568e-05
8.42568e-05
8.42568e-05
8.42567e-05
8.42566e-05
8.42564e-05
8.42562e-05
8.42558e-05
8.42552e-05
8.42545e-05
8.42537e-05
8.42527e-05
8.42515e-05
8.42501e-05
8.42484e-05
8.42466e-05
8.42444e-05
8.42418e-05
8.42397e-05
8.42379e-05
8.42362e-05
8.42345e-05
8.42329e-05
8.42312e-05
8.42296e-05
8.42281e-05
8.42267e-05
8.42255e-05
8.42245e-05
8.42236e-05
8.42227e-05
8.42227e-05
8.42198e-05
0.00010395
0.00010395
0.000103951
0.000103953
0.000103954
0.000103955
0.000103955
0.000103956
0.000103956
0.000103956
0.000103956
0.000103956
0.000103956
0.000103957
0.000103957
0.000103957
0.000103958
0.000103958
0.000103959
0.000103959
0.000103959
0.00010396
0.00010396
0.000103961
0.000103961
0.000103961
0.000103962
0.000103962
0.000103962
0.000103963
0.000103963
0.000103963
0.000103964
0.000103964
0.000103964
0.000103964
0.000103964
0.000103965
0.000103965
0.000103965
0.000103965
0.000103965
0.000103965
0.000103965
0.000103965
0.000103964
0.000103964
0.000103964
0.000103964
0.000103965
0.000103965
0.000103965
0.000103965
0.000103965
0.000103965
0.000103965
0.000103966
0.000103966
0.000103967
0.000103968
0.000103969
0.00010397
0.000103972
0.000103973
0.000103975
0.000103977
0.000103978
0.00010398
0.000103981
0.000103982
0.000103984
0.000103985
0.000103986
0.000103987
0.000103987
0.000103988
0.000103989
0.000103989
0.000103989
0.00010399
0.00010399
0.00010399
0.00010399
0.00010399
0.00010399
0.00010399
0.00010399
0.00010399
0.00010399
0.00010399
0.00010399
0.00010399
0.000103989
0.000103989
0.000103988
0.000103988
0.000103987
0.000103986
0.000103985
0.000103983
0.000103981
0.000103979
0.000103977
0.000103975
0.000103972
0.00010397
0.000103967
0.000103965
0.000103963
0.000103962
0.00010396
0.000103958
0.000103956
0.000103955
0.000103953
0.000103952
0.000103951
0.00010395
0.00010395
0.000103948
0.000120152
0.000120152
0.000120152
0.000120154
0.000120155
0.000120157
0.000120157
0.000120158
0.000120158
0.000120158
0.000120159
0.000120159
0.000120159
0.00012016
0.00012016
0.00012016
0.000120161
0.000120161
0.000120162
0.000120162
0.000120163
0.000120163
0.000120164
0.000120164
0.000120165
0.000120165
0.000120166
0.000120166
0.000120167
0.000120167
0.000120167
0.000120168
0.000120168
0.000120168
0.000120169
0.000120169
0.000120169
0.000120169
0.00012017
0.00012017
0.00012017
0.00012017
0.00012017
0.00012017
0.00012017
0.000120169
0.000120169
0.000120169
0.000120169
0.000120169
0.000120169
0.00012017
0.00012017
0.00012017
0.00012017
0.00012017
0.000120171
0.000120171
0.000120172
0.000120174
0.000120175
0.000120176
0.000120178
0.00012018
0.000120182
0.000120183
0.000120185
0.000120187
0.000120188
0.00012019
0.000120191
0.000120192
0.000120193
0.000120194
0.000120195
0.000120195
0.000120196
0.000120196
0.000120196
0.000120197
0.000120197
0.000120197
0.000120197
0.000120197
0.000120197
0.000120197
0.000120197
0.000120197
0.000120196
0.000120196
0.000120196
0.000120196
0.000120195
0.000120195
0.000120194
0.000120193
0.000120192
0.000120191
0.000120189
0.000120188
0.000120186
0.000120183
0.000120181
0.000120179
0.000120176
0.000120173
0.00012017
0.000120168
0.000120166
0.000120164
0.000120162
0.00012016
0.000120158
0.000120157
0.000120155
0.000120154
0.000120153
0.000120152
0.000120152
0.00012015
0.000132976
0.000132975
0.000132975
0.000132977
0.000132978
0.000132979
0.00013298
0.000132981
0.000132982
0.000132982
0.000132983
0.000132983
0.000132984
0.000132984
0.000132985
0.000132985
0.000132986
0.000132986
0.000132987
0.000132987
0.000132988
0.000132989
0.000132989
0.00013299
0.00013299
0.000132991
0.000132991
0.000132992
0.000132992
0.000132993
0.000132993
0.000132994
0.000132994
0.000132994
0.000132995
0.000132995
0.000132995
0.000132995
0.000132996
0.000132996
0.000132996
0.000132996
0.000132996
0.000132996
0.000132996
0.000132996
0.000132995
0.000132995
0.000132996
0.000132996
0.000132996
0.000132996
0.000132996
0.000132996
0.000132996
0.000132997
0.000132998
0.000132998
0.000132999
0.000133001
0.000133002
0.000133004
0.000133006
0.000133008
0.00013301
0.000133012
0.000133013
0.000133015
0.000133017
0.000133018
0.000133019
0.000133021
0.000133022
0.000133022
0.000133023
0.000133024
0.000133024
0.000133024
0.000133025
0.000133025
0.000133025
0.000133025
0.000133025
0.000133025
0.000133025
0.000133024
0.000133024
0.000133024
0.000133023
0.000133023
0.000133023
0.000133022
0.000133022
0.000133021
0.00013302
0.000133019
0.000133018
0.000133017
0.000133015
0.000133013
0.000133011
0.000133008
0.000133006
0.000133003
0.000133
0.000132997
0.000132994
0.000132992
0.00013299
0.000132988
0.000132985
0.000132984
0.000132982
0.00013298
0.000132979
0.000132977
0.000132976
0.000132975
0.000132975
0.000132974
0.0001429
0.000142899
0.000142899
0.0001429
0.000142901
0.000142903
0.000142904
0.000142905
0.000142906
0.000142906
0.000142907
0.000142908
0.000142908
0.000142909
0.000142909
0.00014291
0.000142911
0.000142911
0.000142912
0.000142913
0.000142913
0.000142914
0.000142915
0.000142915
0.000142916
0.000142917
0.000142917
0.000142918
0.000142918
0.000142919
0.000142919
0.00014292
0.00014292
0.000142921
0.000142921
0.000142921
0.000142922
0.000142922
0.000142922
0.000142922
0.000142923
0.000142923
0.000142923
0.000142923
0.000142923
0.000142923
0.000142922
0.000142922
0.000142922
0.000142922
0.000142922
0.000142923
0.000142923
0.000142923
0.000142923
0.000142924
0.000142925
0.000142926
0.000142927
0.000142929
0.00014293
0.000142932
0.000142934
0.000142936
0.000142938
0.00014294
0.000142942
0.000142944
0.000142945
0.000142947
0.000142948
0.000142949
0.00014295
0.000142951
0.000142952
0.000142952
0.000142952
0.000142953
0.000142953
0.000142953
0.000142953
0.000142953
0.000142952
0.000142952
0.000142952
0.000142952
0.000142951
0.000142951
0.00014295
0.00014295
0.000142949
0.000142949
0.000142948
0.000142947
0.000142946
0.000142945
0.000142944
0.000142942
0.00014294
0.000142938
0.000142936
0.000142933
0.00014293
0.000142927
0.000142924
0.000142921
0.000142918
0.000142916
0.000142914
0.000142911
0.000142909
0.000142907
0.000142905
0.000142904
0.000142902
0.000142901
0.0001429
0.000142899
0.000142899
0.000142899
0.00015044
0.000150439
0.000150438
0.000150439
0.00015044
0.000150441
0.000150443
0.000150444
0.000150445
0.000150446
0.000150447
0.000150448
0.000150449
0.000150449
0.00015045
0.000150451
0.000150452
0.000150452
0.000150453
0.000150454
0.000150455
0.000150455
0.000150456
0.000150457
0.000150458
0.000150458
0.000150459
0.00015046
0.00015046
0.000150461
0.000150461
0.000150462
0.000150462
0.000150463
0.000150463
0.000150464
0.000150464
0.000150464
0.000150465
0.000150465
0.000150465
0.000150465
0.000150465
0.000150465
0.000150466
0.000150465
0.000150465
0.000150465
0.000150465
0.000150465
0.000150465
0.000150465
0.000150465
0.000150466
0.000150466
0.000150467
0.000150468
0.000150469
0.000150471
0.000150473
0.000150475
0.000150477
0.000150479
0.000150481
0.000150483
0.000150485
0.000150487
0.000150488
0.00015049
0.000150491
0.000150493
0.000150494
0.000150495
0.000150495
0.000150496
0.000150496
0.000150496
0.000150497
0.000150497
0.000150497
0.000150496
0.000150496
0.000150496
0.000150496
0.000150495
0.000150495
0.000150494
0.000150494
0.000150493
0.000150492
0.000150492
0.000150491
0.00015049
0.000150489
0.000150488
0.000150487
0.000150485
0.000150483
0.000150481
0.000150479
0.000150476
0.000150473
0.00015047
0.000150468
0.000150464
0.000150461
0.000150458
0.000150456
0.000150453
0.000150451
0.000150449
0.000150447
0.000150445
0.000150444
0.000150442
0.000150441
0.00015044
0.000150439
0.000150439
0.000150439
0.000156047
0.000156045
0.000156044
0.000156044
0.000156045
0.000156047
0.000156048
0.00015605
0.000156051
0.000156052
0.000156053
0.000156054
0.000156055
0.000156056
0.000156057
0.000156058
0.000156059
0.00015606
0.00015606
0.000156061
0.000156062
0.000156063
0.000156064
0.000156065
0.000156066
0.000156066
0.000156067
0.000156068
0.000156068
0.000156069
0.00015607
0.00015607
0.000156071
0.000156071
0.000156072
0.000156072
0.000156073
0.000156073
0.000156073
0.000156074
0.000156074
0.000156074
0.000156074
0.000156074
0.000156074
0.000156074
0.000156074
0.000156074
0.000156074
0.000156074
0.000156074
0.000156074
0.000156074
0.000156075
0.000156076
0.000156076
0.000156078
0.000156079
0.000156081
0.000156083
0.000156085
0.000156087
0.00015609
0.000156092
0.000156094
0.000156096
0.000156098
0.000156099
0.000156101
0.000156102
0.000156103
0.000156104
0.000156105
0.000156106
0.000156106
0.000156106
0.000156107
0.000156107
0.000156106
0.000156106
0.000156106
0.000156106
0.000156105
0.000156105
0.000156104
0.000156104
0.000156103
0.000156102
0.000156102
0.000156101
0.0001561
0.000156099
0.000156098
0.000156097
0.000156096
0.000156094
0.000156092
0.00015609
0.000156088
0.000156085
0.000156082
0.000156079
0.000156077
0.000156074
0.00015607
0.000156067
0.000156064
0.000156062
0.000156059
0.000156057
0.000156055
0.000156053
0.000156051
0.00015605
0.000156048
0.000156047
0.000156047
0.000156046
0.000156046
0.000156046
0.000160084
0.000160081
0.00016008
0.00016008
0.000160082
0.000160083
0.000160085
0.000160086
0.000160088
0.000160089
0.00016009
0.000160091
0.000160093
0.000160094
0.000160095
0.000160096
0.000160097
0.000160098
0.000160099
0.0001601
0.000160101
0.000160101
0.000160102
0.000160103
0.000160104
0.000160105
0.000160106
0.000160107
0.000160108
0.000160108
0.000160109
0.00016011
0.00016011
0.000160111
0.000160111
0.000160112
0.000160112
0.000160113
0.000160113
0.000160113
0.000160113
0.000160114
0.000160114
0.000160114
0.000160114
0.000160114
0.000160114
0.000160114
0.000160114
0.000160114
0.000160114
0.000160114
0.000160114
0.000160115
0.000160116
0.000160117
0.000160119
0.00016012
0.000160122
0.000160125
0.000160127
0.000160129
0.000160131
0.000160134
0.000160136
0.000160138
0.000160139
0.000160141
0.000160142
0.000160144
0.000160145
0.000160146
0.000160146
0.000160147
0.000160147
0.000160147
0.000160147
0.000160147
0.000160147
0.000160147
0.000160146
0.000160146
0.000160145
0.000160145
0.000160144
0.000160143
0.000160142
0.000160142
0.000160141
0.00016014
0.000160139
0.000160138
0.000160137
0.000160135
0.000160134
0.000160132
0.00016013
0.000160127
0.000160125
0.000160122
0.000160119
0.000160116
0.000160113
0.00016011
0.000160107
0.000160104
0.000160101
0.000160098
0.000160096
0.000160094
0.000160092
0.00016009
0.000160088
0.000160087
0.000160086
0.000160085
0.000160084
0.000160084
0.000160083
0.000160084
0.000162839
0.000162836
0.000162835
0.000162835
0.000162836
0.000162837
0.000162839
0.000162841
0.000162842
0.000162844
0.000162845
0.000162847
0.000162848
0.000162849
0.00016285
0.000162851
0.000162852
0.000162853
0.000162855
0.000162856
0.000162857
0.000162858
0.000162859
0.00016286
0.000162861
0.000162862
0.000162863
0.000162864
0.000162864
0.000162865
0.000162866
0.000162867
0.000162867
0.000162868
0.000162869
0.000162869
0.00016287
0.00016287
0.00016287
0.000162871
0.000162871
0.000162871
0.000162871
0.000162872
0.000162872
0.000162872
0.000162872
0.000162872
0.000162872
0.000162872
0.000162872
0.000162872
0.000162872
0.000162873
0.000162874
0.000162876
0.000162878
0.00016288
0.000162882
0.000162884
0.000162887
0.000162889
0.000162891
0.000162894
0.000162896
0.000162897
0.000162899
0.000162901
0.000162902
0.000162903
0.000162904
0.000162905
0.000162905
0.000162906
0.000162906
0.000162906
0.000162906
0.000162905
0.000162905
0.000162905
0.000162904
0.000162903
0.000162903
0.000162902
0.000162901
0.0001629
0.000162899
0.000162898
0.000162897
0.000162896
0.000162895
0.000162894
0.000162893
0.000162891
0.00016289
0.000162887
0.000162885
0.000162882
0.00016288
0.000162877
0.000162874
0.00016287
0.000162867
0.000162865
0.000162862
0.000162858
0.000162855
0.000162853
0.00016285
0.000162848
0.000162846
0.000162845
0.000162843
0.000162842
0.000162841
0.00016284
0.00016284
0.000162839
0.000162839
0.000162841
0.000164536
0.000164533
0.000164532
0.000164532
0.000164533
0.000164534
0.000164536
0.000164537
0.000164539
0.000164541
0.000164542
0.000164544
0.000164545
0.000164546
0.000164548
0.000164549
0.00016455
0.000164552
0.000164553
0.000164554
0.000164555
0.000164556
0.000164557
0.000164559
0.00016456
0.000164561
0.000164562
0.000164563
0.000164563
0.000164564
0.000164565
0.000164566
0.000164567
0.000164567
0.000164568
0.000164569
0.000164569
0.00016457
0.00016457
0.00016457
0.000164571
0.000164571
0.000164571
0.000164571
0.000164572
0.000164572
0.000164572
0.000164572
0.000164572
0.000164572
0.000164572
0.000164572
0.000164573
0.000164574
0.000164575
0.000164577
0.000164579
0.000164581
0.000164584
0.000164586
0.000164589
0.000164591
0.000164593
0.000164596
0.000164598
0.000164599
0.000164601
0.000164602
0.000164603
0.000164604
0.000164605
0.000164606
0.000164606
0.000164606
0.000164606
0.000164606
0.000164606
0.000164606
0.000164605
0.000164605
0.000164604
0.000164603
0.000164602
0.000164601
0.0001646
0.000164599
0.000164598
0.000164597
0.000164596
0.000164595
0.000164594
0.000164592
0.000164591
0.000164589
0.000164587
0.000164584
0.000164582
0.000164579
0.000164576
0.000164573
0.00016457
0.000164567
0.000164564
0.000164561
0.000164558
0.000164555
0.000164552
0.000164549
0.000164547
0.000164545
0.000164543
0.000164542
0.000164541
0.000164539
0.000164539
0.000164538
0.000164538
0.000164537
0.000164537
0.000164539
0.000165351
0.000165348
0.000165347
0.000165347
0.000165348
0.000165349
0.00016535
0.000165352
0.000165354
0.000165355
0.000165357
0.000165359
0.00016536
0.000165362
0.000165363
0.000165365
0.000165366
0.000165367
0.000165369
0.00016537
0.000165371
0.000165372
0.000165374
0.000165375
0.000165376
0.000165377
0.000165378
0.000165379
0.00016538
0.000165381
0.000165382
0.000165383
0.000165384
0.000165384
0.000165385
0.000165386
0.000165386
0.000165387
0.000165387
0.000165388
0.000165388
0.000165388
0.000165389
0.000165389
0.000165389
0.00016539
0.000165389
0.000165389
0.000165389
0.000165389
0.000165389
0.00016539
0.000165391
0.000165392
0.000165394
0.000165396
0.000165398
0.000165401
0.000165404
0.000165406
0.000165409
0.000165411
0.000165413
0.000165415
0.000165417
0.000165419
0.00016542
0.000165421
0.000165422
0.000165423
0.000165424
0.000165424
0.000165424
0.000165424
0.000165424
0.000165424
0.000165424
0.000165423
0.000165422
0.000165422
0.000165421
0.00016542
0.000165419
0.000165418
0.000165417
0.000165416
0.000165414
0.000165413
0.000165412
0.000165411
0.000165409
0.000165408
0.000165406
0.000165404
0.000165401
0.000165399
0.000165396
0.000165393
0.000165389
0.000165386
0.000165383
0.00016538
0.000165377
0.000165374
0.000165372
0.000165369
0.000165366
0.000165364
0.000165361
0.00016536
0.000165358
0.000165357
0.000165356
0.000165355
0.000165354
0.000165354
0.000165353
0.000165353
0.000165353
0.000165356
0.000165422
0.000165419
0.000165418
0.000165418
0.000165419
0.00016542
0.000165421
0.000165423
0.000165425
0.000165426
0.000165428
0.00016543
0.000165432
0.000165433
0.000165435
0.000165436
0.000165438
0.000165439
0.000165441
0.000165442
0.000165444
0.000165445
0.000165446
0.000165447
0.000165449
0.00016545
0.000165451
0.000165452
0.000165453
0.000165454
0.000165455
0.000165456
0.000165457
0.000165458
0.000165458
0.000165459
0.00016546
0.00016546
0.000165461
0.000165461
0.000165462
0.000165462
0.000165462
0.000165463
0.000165463
0.000165463
0.000165463
0.000165463
0.000165463
0.000165463
0.000165464
0.000165464
0.000165465
0.000165467
0.000165469
0.000165472
0.000165474
0.000165477
0.00016548
0.000165482
0.000165485
0.000165487
0.000165489
0.000165491
0.000165493
0.000165494
0.000165495
0.000165496
0.000165497
0.000165498
0.000165498
0.000165498
0.000165498
0.000165498
0.000165498
0.000165497
0.000165497
0.000165496
0.000165495
0.000165494
0.000165493
0.000165492
0.000165491
0.00016549
0.000165489
0.000165488
0.000165486
0.000165485
0.000165483
0.000165482
0.00016548
0.000165479
0.000165477
0.000165474
0.000165471
0.000165468
0.000165465
0.000165462
0.000165459
0.000165456
0.000165452
0.000165449
0.000165447
0.000165444
0.000165442
0.000165439
0.000165436
0.000165434
0.000165432
0.00016543
0.000165429
0.000165428
0.000165427
0.000165426
0.000165426
0.000165426
0.000165426
0.000165426
0.000165426
0.000165429
0.00016486
0.000164857
0.000164856
0.000164856
0.000164857
0.000164858
0.00016486
0.000164861
0.000164863
0.000164865
0.000164866
0.000164868
0.00016487
0.000164872
0.000164873
0.000164875
0.000164877
0.000164878
0.00016488
0.000164881
0.000164883
0.000164884
0.000164886
0.000164887
0.000164888
0.00016489
0.000164891
0.000164892
0.000164893
0.000164894
0.000164895
0.000164896
0.000164897
0.000164898
0.000164899
0.000164899
0.0001649
0.000164901
0.000164901
0.000164902
0.000164902
0.000164903
0.000164903
0.000164904
0.000164904
0.000164904
0.000164904
0.000164904
0.000164904
0.000164905
0.000164905
0.000164906
0.000164907
0.000164909
0.000164912
0.000164915
0.000164917
0.00016492
0.000164923
0.000164926
0.000164928
0.00016493
0.000164932
0.000164934
0.000164935
0.000164936
0.000164937
0.000164938
0.000164938
0.000164939
0.000164939
0.000164939
0.000164939
0.000164938
0.000164938
0.000164937
0.000164937
0.000164936
0.000164935
0.000164934
0.000164933
0.000164931
0.00016493
0.000164929
0.000164927
0.000164926
0.000164924
0.000164923
0.000164921
0.00016492
0.000164918
0.000164916
0.000164913
0.000164911
0.000164908
0.000164905
0.000164901
0.000164898
0.000164895
0.000164891
0.000164888
0.000164885
0.000164883
0.00016488
0.000164878
0.000164876
0.000164873
0.000164871
0.00016487
0.000164868
0.000164867
0.000164866
0.000164866
0.000164865
0.000164865
0.000164865
0.000164865
0.000164865
0.000164865
0.000164869
0.000163755
0.000163752
0.000163751
0.000163751
0.000163752
0.000163753
0.000163755
0.000163756
0.000163758
0.00016376
0.000163762
0.000163763
0.000163765
0.000163767
0.000163769
0.000163771
0.000163772
0.000163774
0.000163776
0.000163777
0.000163779
0.00016378
0.000163782
0.000163783
0.000163785
0.000163786
0.000163787
0.000163788
0.00016379
0.000163791
0.000163792
0.000163793
0.000163794
0.000163795
0.000163796
0.000163796
0.000163797
0.000163798
0.000163798
0.000163799
0.000163799
0.0001638
0.0001638
0.000163801
0.000163802
0.000163802
0.000163802
0.000163802
0.000163802
0.000163802
0.000163803
0.000163804
0.000163806
0.000163809
0.000163811
0.000163814
0.000163817
0.00016382
0.000163823
0.000163825
0.000163827
0.000163829
0.000163831
0.000163832