/*--------------------------------*- C++ -*----------------------------------*\
  =========                 |
  \\      /  F ield         | OpenFOAM: The Open Source CFD Toolbox
   \\    /   O peration     | Website:  https://openfoam.org
    \\  /    A nd           | Version:  7
     \\/     M anipulation  |
\*---------------------------------------------------------------------------*/
FoamFile
{
    version     2.0;
    format      ascii;
    class       volScalarField;
    location    "1000";
    object      nut;
}
// * * * * * * * * * * * * * * * * * * * * * * * * * * * * * * * * * * * * * //

dimensions      [0 2 -1 0 0 0 0];

internalField   nonuniform List<scalar> 
24000
(
9.38963e-12
9.39035e-12
9.39097e-12
9.39127e-12
9.3914e-12
9.39143e-12
9.3914e-12
9.39136e-12
9.39132e-12
9.39129e-12
9.39127e-12
9.39126e-12
9.39127e-12
9.39127e-12
9.39129e-12
9.39131e-12
9.39133e-12
9.39136e-12
9.39138e-12
9.39141e-12
9.39144e-12
9.39147e-12
9.39149e-12
9.39152e-12
9.39155e-12
9.39159e-12
9.39162e-12
9.39165e-12
9.39168e-12
9.39171e-12
9.39174e-12
9.39176e-12
9.39179e-12
9.39182e-12
9.39185e-12
9.39188e-12
9.3919e-12
9.39193e-12
9.39195e-12
9.39198e-12
9.39199e-12
9.39201e-12
9.39199e-12
9.39198e-12
9.39188e-12
9.39173e-12
9.39171e-12
9.39174e-12
9.39177e-12
9.39179e-12
9.39183e-12
9.39186e-12
9.39187e-12
9.39188e-12
9.39188e-12
9.39189e-12
9.39191e-12
9.39194e-12
9.392e-12
9.39208e-12
9.3922e-12
9.39234e-12
9.39251e-12
9.39269e-12
9.39289e-12
9.3931e-12
9.39331e-12
9.39351e-12
9.39371e-12
9.3939e-12
9.39408e-12
9.39425e-12
9.39441e-12
9.39455e-12
9.39467e-12
9.39479e-12
9.39489e-12
9.39498e-12
9.39507e-12
9.39514e-12
9.39521e-12
9.39527e-12
9.39533e-12
9.39537e-12
9.39541e-12
9.39544e-12
9.39546e-12
9.39549e-12
9.39552e-12
9.39554e-12
9.39557e-12
9.39558e-12
9.39558e-12
9.39556e-12
9.39552e-12
9.39547e-12
9.3954e-12
9.39531e-12
9.39519e-12
9.39503e-12
9.39485e-12
9.3946e-12
9.39435e-12
9.39398e-12
9.39355e-12
9.39327e-12
9.39303e-12
9.3928e-12
9.39257e-12
9.39233e-12
9.39209e-12
9.39185e-12
9.39162e-12
9.39141e-12
9.39123e-12
9.39106e-12
9.39094e-12
9.39073e-12
9.39081e-12
9.38978e-12
1.74155e-09
1.74169e-09
1.7418e-09
1.74186e-09
1.74188e-09
1.74188e-09
1.74188e-09
1.74187e-09
1.74186e-09
1.74186e-09
1.74185e-09
1.74185e-09
1.74185e-09
1.74186e-09
1.74186e-09
1.74186e-09
1.74187e-09
1.74187e-09
1.74188e-09
1.74188e-09
1.74189e-09
1.74189e-09
1.7419e-09
1.7419e-09
1.74191e-09
1.74191e-09
1.74192e-09
1.74193e-09
1.74193e-09
1.74194e-09
1.74194e-09
1.74195e-09
1.74195e-09
1.74196e-09
1.74196e-09
1.74197e-09
1.74197e-09
1.74198e-09
1.74198e-09
1.74199e-09
1.74199e-09
1.74199e-09
1.74199e-09
1.74199e-09
1.74197e-09
1.74194e-09
1.74194e-09
1.74194e-09
1.74195e-09
1.74195e-09
1.74196e-09
1.74196e-09
1.74197e-09
1.74197e-09
1.74197e-09
1.74197e-09
1.74197e-09
1.74198e-09
1.74199e-09
1.74201e-09
1.74203e-09
1.74205e-09
1.74209e-09
1.74212e-09
1.74216e-09
1.74219e-09
1.74223e-09
1.74227e-09
1.74231e-09
1.74234e-09
1.74238e-09
1.74241e-09
1.74244e-09
1.74246e-09
1.74249e-09
1.74251e-09
1.74253e-09
1.74254e-09
1.74256e-09
1.74257e-09
1.74259e-09
1.7426e-09
1.74261e-09
1.74262e-09
1.74262e-09
1.74263e-09
1.74263e-09
1.74264e-09
1.74264e-09
1.74265e-09
1.74265e-09
1.74265e-09
1.74265e-09
1.74265e-09
1.74264e-09
1.74263e-09
1.74262e-09
1.7426e-09
1.74258e-09
1.74255e-09
1.74252e-09
1.74247e-09
1.74242e-09
1.74236e-09
1.74228e-09
1.74223e-09
1.74218e-09
1.74214e-09
1.7421e-09
1.74205e-09
1.74201e-09
1.74196e-09
1.74192e-09
1.74188e-09
1.74185e-09
1.74182e-09
1.74179e-09
1.74175e-09
1.74177e-09
1.74157e-09
3.71081e-08
3.71109e-08
3.71133e-08
3.71144e-08
3.71149e-08
3.7115e-08
3.71148e-08
3.71146e-08
3.71145e-08
3.71144e-08
3.71143e-08
3.71143e-08
3.71143e-08
3.71143e-08
3.71144e-08
3.71145e-08
3.71146e-08
3.71147e-08
3.71148e-08
3.71149e-08
3.7115e-08
3.71151e-08
3.71152e-08
3.71153e-08
3.71155e-08
3.71156e-08
3.71157e-08
3.71158e-08
3.7116e-08
3.71161e-08
3.71162e-08
3.71163e-08
3.71164e-08
3.71165e-08
3.71166e-08
3.71167e-08
3.71169e-08
3.7117e-08
3.71171e-08
3.71172e-08
3.71172e-08
3.71173e-08
3.71172e-08
3.71171e-08
3.71168e-08
3.71162e-08
3.71161e-08
3.71162e-08
3.71164e-08
3.71165e-08
3.71166e-08
3.71167e-08
3.71168e-08
3.71168e-08
3.71168e-08
3.71168e-08
3.71169e-08
3.7117e-08
3.71173e-08
3.71176e-08
3.7118e-08
3.71186e-08
3.71193e-08
3.712e-08
3.71208e-08
3.71216e-08
3.71224e-08
3.71232e-08
3.7124e-08
3.71247e-08
3.71255e-08
3.71261e-08
3.71267e-08
3.71272e-08
3.71277e-08
3.71282e-08
3.71286e-08
3.71289e-08
3.71293e-08
3.71296e-08
3.71298e-08
3.713e-08
3.71302e-08
3.71304e-08
3.71306e-08
3.71307e-08
3.71308e-08
3.71309e-08
3.7131e-08
3.71311e-08
3.71312e-08
3.71312e-08
3.71312e-08
3.71311e-08
3.7131e-08
3.71308e-08
3.71305e-08
3.71301e-08
3.71296e-08
3.7129e-08
3.71283e-08
3.71273e-08
3.71263e-08
3.71249e-08
3.71233e-08
3.71221e-08
3.71212e-08
3.71203e-08
3.71194e-08
3.71184e-08
3.71175e-08
3.71165e-08
3.71156e-08
3.71148e-08
3.71141e-08
3.71135e-08
3.7113e-08
3.71122e-08
3.71125e-08
3.71087e-08
2.80346e-07
2.80368e-07
2.80387e-07
2.80395e-07
2.80399e-07
2.80399e-07
2.80398e-07
2.80396e-07
2.80395e-07
2.80394e-07
2.80393e-07
2.80393e-07
2.80393e-07
2.80394e-07
2.80394e-07
2.80395e-07
2.80396e-07
2.80396e-07
2.80397e-07
2.80398e-07
2.80399e-07
2.804e-07
2.80401e-07
2.80402e-07
2.80403e-07
2.80404e-07
2.80405e-07
2.80406e-07
2.80407e-07
2.80407e-07
2.80408e-07
2.80409e-07
2.8041e-07
2.80411e-07
2.80412e-07
2.80413e-07
2.80413e-07
2.80414e-07
2.80415e-07
2.80416e-07
2.80416e-07
2.80417e-07
2.80416e-07
2.80415e-07
2.80413e-07
2.80409e-07
2.80408e-07
2.80409e-07
2.8041e-07
2.80411e-07
2.80412e-07
2.80413e-07
2.80413e-07
2.80413e-07
2.80413e-07
2.80414e-07
2.80414e-07
2.80415e-07
2.80417e-07
2.80419e-07
2.80423e-07
2.80427e-07
2.80432e-07
2.80437e-07
2.80443e-07
2.80449e-07
2.80455e-07
2.80461e-07
2.80467e-07
2.80472e-07
2.80477e-07
2.80482e-07
2.80487e-07
2.80491e-07
2.80494e-07
2.80497e-07
2.805e-07
2.80503e-07
2.80505e-07
2.80507e-07
2.80509e-07
2.8051e-07
2.80512e-07
2.80513e-07
2.80514e-07
2.80515e-07
2.80515e-07
2.80516e-07
2.80517e-07
2.80517e-07
2.80518e-07
2.80518e-07
2.80518e-07
2.80517e-07
2.80516e-07
2.80514e-07
2.80512e-07
2.80509e-07
2.80506e-07
2.80501e-07
2.80496e-07
2.80489e-07
2.80481e-07
2.80471e-07
2.80458e-07
2.8045e-07
2.80443e-07
2.80437e-07
2.8043e-07
2.80423e-07
2.80416e-07
2.80409e-07
2.80402e-07
2.80396e-07
2.80391e-07
2.80386e-07
2.80383e-07
2.80377e-07
2.80379e-07
2.80351e-07
1.15985e-06
1.15994e-06
1.16002e-06
1.16006e-06
1.16007e-06
1.16008e-06
1.16007e-06
1.16006e-06
1.16006e-06
1.16005e-06
1.16005e-06
1.16005e-06
1.16005e-06
1.16005e-06
1.16006e-06
1.16006e-06
1.16006e-06
1.16007e-06
1.16007e-06
1.16007e-06
1.16008e-06
1.16008e-06
1.16009e-06
1.16009e-06
1.16009e-06
1.1601e-06
1.1601e-06
1.16011e-06
1.16011e-06
1.16011e-06
1.16012e-06
1.16012e-06
1.16013e-06
1.16013e-06
1.16013e-06
1.16014e-06
1.16014e-06
1.16014e-06
1.16015e-06
1.16015e-06
1.16015e-06
1.16015e-06
1.16015e-06
1.16015e-06
1.16014e-06
1.16012e-06
1.16012e-06
1.16012e-06
1.16013e-06
1.16013e-06
1.16014e-06
1.16014e-06
1.16014e-06
1.16014e-06
1.16014e-06
1.16014e-06
1.16014e-06
1.16015e-06
1.16016e-06
1.16017e-06
1.16018e-06
1.1602e-06
1.16022e-06
1.16024e-06
1.16026e-06
1.16028e-06
1.16031e-06
1.16033e-06
1.16035e-06
1.16038e-06
1.1604e-06
1.16041e-06
1.16043e-06
1.16045e-06
1.16046e-06
1.16047e-06
1.16048e-06
1.16049e-06
1.1605e-06
1.16051e-06
1.16051e-06
1.16052e-06
1.16052e-06
1.16053e-06
1.16053e-06
1.16053e-06
1.16053e-06
1.16054e-06
1.16054e-06
1.16054e-06
1.16054e-06
1.16054e-06
1.16054e-06
1.16054e-06
1.16053e-06
1.16053e-06
1.16052e-06
1.1605e-06
1.16049e-06
1.16047e-06
1.16045e-06
1.16042e-06
1.16039e-06
1.16035e-06
1.1603e-06
1.16027e-06
1.16024e-06
1.16022e-06
1.16019e-06
1.16016e-06
1.16014e-06
1.16011e-06
1.16008e-06
1.16006e-06
1.16004e-06
1.16002e-06
1.16e-06
1.15998e-06
1.15999e-06
1.15988e-06
3.19365e-06
3.19384e-06
3.19407e-06
3.19421e-06
3.19426e-06
3.19428e-06
3.19427e-06
3.19425e-06
3.19424e-06
3.19423e-06
3.19422e-06
3.19422e-06
3.19422e-06
3.19423e-06
3.19423e-06
3.19424e-06
3.19425e-06
3.19426e-06
3.19427e-06
3.19428e-06
3.1943e-06
3.19431e-06
3.19432e-06
3.19433e-06
3.19434e-06
3.19436e-06
3.19437e-06
3.19438e-06
3.19439e-06
3.19441e-06
3.19442e-06
3.19443e-06
3.19444e-06
3.19445e-06
3.19446e-06
3.19447e-06
3.19448e-06
3.19449e-06
3.19449e-06
3.1945e-06
3.19451e-06
3.19451e-06
3.1945e-06
3.1945e-06
3.19447e-06
3.19443e-06
3.19442e-06
3.19444e-06
3.19445e-06
3.19446e-06
3.19448e-06
3.19449e-06
3.19449e-06
3.19449e-06
3.1945e-06
3.1945e-06
3.1945e-06
3.19451e-06
3.19453e-06
3.19456e-06
3.1946e-06
3.19464e-06
3.19469e-06
3.19475e-06
3.19481e-06
3.19487e-06
3.19493e-06
3.19499e-06
3.19505e-06
3.1951e-06
3.19515e-06
3.1952e-06
3.19524e-06
3.19527e-06
3.19531e-06
3.19533e-06
3.19536e-06
3.19538e-06
3.1954e-06
3.19542e-06
3.19543e-06
3.19544e-06
3.19545e-06
3.19546e-06
3.19547e-06
3.19547e-06
3.19547e-06
3.19547e-06
3.19547e-06
3.19548e-06
3.19548e-06
3.19548e-06
3.19547e-06
3.19546e-06
3.19544e-06
3.19542e-06
3.1954e-06
3.19536e-06
3.19532e-06
3.19527e-06
3.19521e-06
3.19514e-06
3.19505e-06
3.19495e-06
3.19482e-06
3.19474e-06
3.19467e-06
3.19461e-06
3.19455e-06
3.19448e-06
3.19441e-06
3.19434e-06
3.19428e-06
3.19422e-06
3.19417e-06
3.19412e-06
3.19408e-06
3.19403e-06
3.19404e-06
3.19379e-06
6.61033e-06
6.61057e-06
6.61102e-06
6.61133e-06
6.6115e-06
6.61157e-06
6.61158e-06
6.61157e-06
6.61155e-06
6.61153e-06
6.61152e-06
6.61152e-06
6.61152e-06
6.61153e-06
6.61154e-06
6.61156e-06
6.61158e-06
6.6116e-06
6.61163e-06
6.61165e-06
6.61168e-06
6.6117e-06
6.61173e-06
6.61176e-06
6.61178e-06
6.61181e-06
6.61184e-06
6.61187e-06
6.61189e-06
6.61192e-06
6.61194e-06
6.61197e-06
6.61199e-06
6.61201e-06
6.61203e-06
6.61206e-06
6.61208e-06
6.61209e-06
6.61211e-06
6.61213e-06
6.61214e-06
6.61215e-06
6.61213e-06
6.61213e-06
6.61208e-06
6.61199e-06
6.61198e-06
6.612e-06
6.61204e-06
6.61206e-06
6.61209e-06
6.61211e-06
6.61212e-06
6.61213e-06
6.61214e-06
6.61214e-06
6.61216e-06
6.61218e-06
6.61222e-06
6.61227e-06
6.61235e-06
6.61243e-06
6.61253e-06
6.61264e-06
6.61275e-06
6.61287e-06
6.61298e-06
6.6131e-06
6.6132e-06
6.61331e-06
6.6134e-06
6.61348e-06
6.61356e-06
6.61363e-06
6.61368e-06
6.61374e-06
6.61378e-06
6.61382e-06
6.61385e-06
6.61387e-06
6.6139e-06
6.61391e-06
6.61393e-06
6.61393e-06
6.61394e-06
6.61394e-06
6.61393e-06
6.61393e-06
6.61393e-06
6.61393e-06
6.61393e-06
6.61392e-06
6.6139e-06
6.61388e-06
6.61384e-06
6.61379e-06
6.61374e-06
6.61367e-06
6.61358e-06
6.61348e-06
6.61336e-06
6.61321e-06
6.61306e-06
6.61285e-06
6.61261e-06
6.61244e-06
6.61231e-06
6.6122e-06
6.61209e-06
6.61197e-06
6.61184e-06
6.61171e-06
6.61159e-06
6.61148e-06
6.61138e-06
6.6113e-06
6.61124e-06
6.61113e-06
6.61115e-06
6.61075e-06
1.12652e-05
1.12653e-05
1.1266e-05
1.12665e-05
1.12669e-05
1.1267e-05
1.12671e-05
1.12672e-05
1.12671e-05
1.12671e-05
1.12671e-05
1.12671e-05
1.12672e-05
1.12672e-05
1.12672e-05
1.12672e-05
1.12672e-05
1.12673e-05
1.12673e-05
1.12674e-05
1.12674e-05
1.12675e-05
1.12675e-05
1.12676e-05
1.12676e-05
1.12677e-05
1.12677e-05
1.12678e-05
1.12678e-05
1.12679e-05
1.12679e-05
1.12679e-05
1.1268e-05
1.1268e-05
1.12681e-05
1.12681e-05
1.12681e-05
1.12682e-05
1.12682e-05
1.12682e-05
1.12683e-05
1.12683e-05
1.12683e-05
1.12682e-05
1.12682e-05
1.1268e-05
1.1268e-05
1.1268e-05
1.12681e-05
1.12681e-05
1.12682e-05
1.12682e-05
1.12682e-05
1.12683e-05
1.12683e-05
1.12683e-05
1.12683e-05
1.12684e-05
1.12684e-05
1.12685e-05
1.12686e-05
1.12688e-05
1.12689e-05
1.12691e-05
1.12693e-05
1.12695e-05
1.12697e-05
1.12698e-05
1.127e-05
1.12702e-05
1.12703e-05
1.12704e-05
1.12706e-05
1.12707e-05
1.12707e-05
1.12708e-05
1.12709e-05
1.12709e-05
1.1271e-05
1.1271e-05
1.1271e-05
1.12711e-05
1.12711e-05
1.12711e-05
1.12711e-05
1.12711e-05
1.1271e-05
1.1271e-05
1.1271e-05
1.1271e-05
1.1271e-05
1.1271e-05
1.12709e-05
1.12709e-05
1.12708e-05
1.12707e-05
1.12706e-05
1.12705e-05
1.12704e-05
1.12702e-05
1.127e-05
1.12698e-05
1.12695e-05
1.12692e-05
1.12688e-05
1.12685e-05
1.12683e-05
1.12681e-05
1.1268e-05
1.12678e-05
1.12676e-05
1.12674e-05
1.12672e-05
1.1267e-05
1.12669e-05
1.12668e-05
1.12667e-05
1.12665e-05
1.12665e-05
1.12661e-05
1.68663e-05
1.68662e-05
1.68669e-05
1.68677e-05
1.68682e-05
1.68686e-05
1.68688e-05
1.68689e-05
1.6869e-05
1.6869e-05
1.6869e-05
1.68691e-05
1.68691e-05
1.68691e-05
1.68692e-05
1.68692e-05
1.68693e-05
1.68693e-05
1.68694e-05
1.68695e-05
1.68695e-05
1.68696e-05
1.68697e-05
1.68697e-05
1.68698e-05
1.68699e-05
1.687e-05
1.68701e-05
1.68701e-05
1.68702e-05
1.68703e-05
1.68703e-05
1.68704e-05
1.68705e-05
1.68705e-05
1.68706e-05
1.68707e-05
1.68707e-05
1.68708e-05
1.68708e-05
1.68708e-05
1.68709e-05
1.68709e-05
1.68709e-05
1.68708e-05
1.68706e-05
1.68705e-05
1.68706e-05
1.68706e-05
1.68707e-05
1.68707e-05
1.68708e-05
1.68709e-05
1.68709e-05
1.68709e-05
1.6871e-05
1.6871e-05
1.68711e-05
1.68712e-05
1.68713e-05
1.68715e-05
1.68717e-05
1.68719e-05
1.68722e-05
1.68724e-05
1.68727e-05
1.6873e-05
1.68732e-05
1.68734e-05
1.68737e-05
1.68738e-05
1.6874e-05
1.68742e-05
1.68743e-05
1.68744e-05
1.68745e-05
1.68746e-05
1.68747e-05
1.68747e-05
1.68748e-05
1.68748e-05
1.68748e-05
1.68748e-05
1.68748e-05
1.68748e-05
1.68748e-05
1.68747e-05
1.68747e-05
1.68747e-05
1.68746e-05
1.68746e-05
1.68746e-05
1.68745e-05
1.68744e-05
1.68743e-05
1.68742e-05
1.6874e-05
1.68739e-05
1.68737e-05
1.68734e-05
1.68731e-05
1.68728e-05
1.68724e-05
1.6872e-05
1.68714e-05
1.6871e-05
1.68707e-05
1.68704e-05
1.68702e-05
1.68699e-05
1.68697e-05
1.68694e-05
1.68692e-05
1.68689e-05
1.68687e-05
1.68686e-05
1.68684e-05
1.68683e-05
1.68683e-05
1.68678e-05
2.31477e-05
2.31474e-05
2.3148e-05
2.31489e-05
2.31497e-05
2.31503e-05
2.31507e-05
2.31509e-05
2.31511e-05
2.31512e-05
2.31513e-05
2.31513e-05
2.31514e-05
2.31515e-05
2.31515e-05
2.31516e-05
2.31517e-05
2.31517e-05
2.31518e-05
2.31519e-05
2.3152e-05
2.31521e-05
2.31523e-05
2.31524e-05
2.31525e-05
2.31526e-05
2.31527e-05
2.31528e-05
2.31529e-05
2.3153e-05
2.31531e-05
2.31532e-05
2.31533e-05
2.31534e-05
2.31535e-05
2.31536e-05
2.31537e-05
2.31538e-05
2.31538e-05
2.31539e-05
2.3154e-05
2.3154e-05
2.3154e-05
2.3154e-05
2.31539e-05
2.31537e-05
2.31536e-05
2.31536e-05
2.31537e-05
2.31538e-05
2.31539e-05
2.31539e-05
2.3154e-05
2.31541e-05
2.31541e-05
2.31542e-05
2.31543e-05
2.31544e-05
2.31546e-05
2.31548e-05
2.3155e-05
2.31553e-05
2.31556e-05
2.31559e-05
2.31562e-05
2.31566e-05
2.31569e-05
2.31572e-05
2.31575e-05
2.31578e-05
2.31581e-05
2.31583e-05
2.31585e-05
2.31587e-05
2.31588e-05
2.31589e-05
2.3159e-05
2.31591e-05
2.31592e-05
2.31592e-05
2.31592e-05
2.31592e-05
2.31592e-05
2.31592e-05
2.31592e-05
2.31591e-05
2.31591e-05
2.3159e-05
2.31589e-05
2.31589e-05
2.31588e-05
2.31588e-05
2.31587e-05
2.31585e-05
2.31584e-05
2.31582e-05
2.3158e-05
2.31577e-05
2.31574e-05
2.31571e-05
2.31567e-05
2.31562e-05
2.31558e-05
2.31552e-05
2.31545e-05
2.31539e-05
2.31534e-05
2.31531e-05
2.31527e-05
2.31524e-05
2.31521e-05
2.31518e-05
2.31515e-05
2.31512e-05
2.3151e-05
2.31508e-05
2.31506e-05
2.31504e-05
2.31504e-05
2.315e-05
2.99113e-05
2.99106e-05
2.99112e-05
2.99121e-05
2.99131e-05
2.99139e-05
2.99144e-05
2.99149e-05
2.99152e-05
2.99154e-05
2.99156e-05
2.99157e-05
2.99158e-05
2.99159e-05
2.9916e-05
2.99161e-05
2.99162e-05
2.99163e-05
2.99165e-05
2.99166e-05
2.99167e-05
2.99169e-05
2.9917e-05
2.99172e-05
2.99173e-05
2.99175e-05
2.99176e-05
2.99178e-05
2.99179e-05
2.99181e-05
2.99182e-05
2.99184e-05
2.99185e-05
2.99186e-05
2.99187e-05
2.99189e-05
2.9919e-05
2.99191e-05
2.99192e-05
2.99193e-05
2.99194e-05
2.99195e-05
2.99195e-05
2.99195e-05
2.99194e-05
2.99192e-05
2.99191e-05
2.9919e-05
2.99191e-05
2.99192e-05
2.99193e-05
2.99194e-05
2.99195e-05
2.99196e-05
2.99197e-05
2.99198e-05
2.99199e-05
2.99201e-05
2.99203e-05
2.99206e-05
2.99209e-05
2.99213e-05
2.99217e-05
2.99221e-05
2.99225e-05
2.99229e-05
2.99233e-05
2.99237e-05
2.99241e-05
2.99244e-05
2.99247e-05
2.9925e-05
2.99252e-05
2.99254e-05
2.99256e-05
2.99257e-05
2.99258e-05
2.99259e-05
2.9926e-05
2.9926e-05
2.9926e-05
2.9926e-05
2.9926e-05
2.9926e-05
2.99259e-05
2.99259e-05
2.99258e-05
2.99257e-05
2.99256e-05
2.99255e-05
2.99254e-05
2.99253e-05
2.99251e-05
2.9925e-05
2.99248e-05
2.99245e-05
2.99242e-05
2.99239e-05
2.99235e-05
2.9923e-05
2.99225e-05
2.99219e-05
2.99213e-05
2.99206e-05
2.99198e-05
2.9919e-05
2.99184e-05
2.99179e-05
2.99175e-05
2.99171e-05
2.99167e-05
2.99163e-05
2.9916e-05
2.99157e-05
2.99154e-05
2.99152e-05
2.9915e-05
2.99148e-05
2.99147e-05
2.99145e-05
3.70157e-05
3.70147e-05
3.7015e-05
3.7016e-05
3.7017e-05
3.7018e-05
3.70188e-05
3.70194e-05
3.70198e-05
3.70202e-05
3.70205e-05
3.70207e-05
3.70209e-05
3.70211e-05
3.70212e-05
3.70214e-05
3.70215e-05
3.70217e-05
3.70219e-05
3.70221e-05
3.70222e-05
3.70224e-05
3.70226e-05
3.70228e-05
3.7023e-05
3.70232e-05
3.70234e-05
3.70236e-05
3.70238e-05
3.7024e-05
3.70241e-05
3.70243e-05
3.70245e-05
3.70247e-05
3.70248e-05
3.7025e-05
3.70252e-05
3.70253e-05
3.70255e-05
3.70256e-05
3.70257e-05
3.70258e-05
3.70259e-05
3.70259e-05
3.70258e-05
3.70256e-05
3.70255e-05
3.70254e-05
3.70255e-05
3.70255e-05
3.70256e-05
3.70258e-05
3.70259e-05
3.7026e-05
3.70262e-05
3.70264e-05
3.70266e-05
3.70268e-05
3.70271e-05
3.70275e-05
3.70279e-05
3.70284e-05
3.70288e-05
3.70293e-05
3.70298e-05
3.70303e-05
3.70308e-05
3.70312e-05
3.70316e-05
3.7032e-05
3.70324e-05
3.70327e-05
3.7033e-05
3.70332e-05
3.70334e-05
3.70335e-05
3.70337e-05
3.70338e-05
3.70338e-05
3.70339e-05
3.70339e-05
3.70338e-05
3.70338e-05
3.70338e-05
3.70337e-05
3.70336e-05
3.70334e-05
3.70333e-05
3.70331e-05
3.7033e-05
3.70329e-05
3.70327e-05
3.70325e-05
3.70323e-05
3.7032e-05
3.70317e-05
3.70313e-05
3.70309e-05
3.70304e-05
3.70298e-05
3.70292e-05
3.70285e-05
3.70277e-05
3.70269e-05
3.70259e-05
3.70249e-05
3.70242e-05
3.70236e-05
3.70231e-05
3.70226e-05
3.70221e-05
3.70217e-05
3.70213e-05
3.70209e-05
3.70206e-05
3.70204e-05
3.70202e-05
3.702e-05
3.70199e-05
3.70199e-05
4.4359e-05
4.43576e-05
4.43578e-05
4.43587e-05
4.43598e-05
4.43609e-05
4.43618e-05
4.43626e-05
4.43632e-05
4.43637e-05
4.43642e-05
4.43645e-05
4.43648e-05
4.43651e-05
4.43653e-05
4.43655e-05
4.43658e-05
4.4366e-05
4.43662e-05
4.43664e-05
4.43667e-05
4.43669e-05
4.43671e-05
4.43674e-05
4.43676e-05
4.43678e-05
4.43681e-05
4.43683e-05
4.43686e-05
4.43688e-05
4.43691e-05
4.43693e-05
4.43695e-05
4.43697e-05
4.43699e-05
4.43701e-05
4.43703e-05
4.43705e-05
4.43707e-05
4.43709e-05
4.4371e-05
4.43712e-05
4.43713e-05
4.43713e-05
4.43713e-05
4.43711e-05
4.43709e-05
4.43709e-05
4.43709e-05
4.4371e-05
4.43711e-05
4.43712e-05
4.43714e-05
4.43716e-05
4.43718e-05
4.4372e-05
4.43723e-05
4.43727e-05
4.43731e-05
4.43736e-05
4.43741e-05
4.43746e-05
4.43752e-05
4.43757e-05
4.43763e-05
4.43769e-05
4.43774e-05
4.43779e-05
4.43784e-05
4.43788e-05
4.43792e-05
4.43795e-05
4.43798e-05
4.43801e-05
4.43803e-05
4.43805e-05
4.43806e-05
4.43807e-05
4.43807e-05
4.43808e-05
4.43808e-05
4.43807e-05
4.43807e-05
4.43806e-05
4.43805e-05
4.43803e-05
4.43802e-05
4.438e-05
4.43798e-05
4.43796e-05
4.43794e-05
4.43792e-05
4.43789e-05
4.43786e-05
4.43783e-05
4.43779e-05
4.43774e-05
4.43768e-05
4.43762e-05
4.43755e-05
4.43747e-05
4.43739e-05
4.4373e-05
4.4372e-05
4.43709e-05
4.43698e-05
4.43689e-05
4.43682e-05
4.43675e-05
4.43669e-05
4.43664e-05
4.43659e-05
4.43655e-05
4.43651e-05
4.43648e-05
4.43645e-05
4.43644e-05
4.43642e-05
4.4364e-05
4.43644e-05
5.18659e-05
5.18642e-05
5.18642e-05
5.18651e-05
5.18662e-05
5.18673e-05
5.18684e-05
5.18693e-05
5.18701e-05
5.18708e-05
5.18714e-05
5.18718e-05
5.18723e-05
5.18726e-05
5.1873e-05
5.18733e-05
5.18736e-05
5.18738e-05
5.18741e-05
5.18744e-05
5.18747e-05
5.1875e-05
5.18753e-05
5.18756e-05
5.18759e-05
5.18762e-05
5.18765e-05
5.18768e-05
5.18771e-05
5.18774e-05
5.18777e-05
5.18779e-05
5.18782e-05
5.18785e-05
5.18787e-05
5.1879e-05
5.18792e-05
5.18795e-05
5.18797e-05
5.18799e-05
5.18801e-05
5.18803e-05
5.18804e-05
5.18805e-05
5.18805e-05
5.18803e-05
5.18802e-05
5.18801e-05
5.18801e-05
5.18802e-05
5.18803e-05
5.18805e-05
5.18807e-05
5.18809e-05
5.18812e-05
5.18815e-05
5.18819e-05
5.18824e-05
5.18829e-05
5.18835e-05
5.18841e-05
5.18848e-05
5.18854e-05
5.18861e-05
5.18867e-05
5.18873e-05
5.18879e-05
5.18885e-05
5.1889e-05
5.18895e-05
5.18899e-05
5.18902e-05
5.18905e-05
5.18908e-05
5.1891e-05
5.18912e-05
5.18913e-05
5.18914e-05
5.18914e-05
5.18914e-05
5.18914e-05
5.18913e-05
5.18912e-05
5.18911e-05
5.1891e-05
5.18908e-05
5.18906e-05
5.18903e-05
5.18901e-05
5.18898e-05
5.18896e-05
5.18893e-05
5.1889e-05
5.18886e-05
5.18882e-05
5.18876e-05
5.1887e-05
5.18863e-05
5.18855e-05
5.18847e-05
5.18838e-05
5.18828e-05
5.18818e-05
5.18807e-05
5.18794e-05
5.18782e-05
5.18772e-05
5.18763e-05
5.18756e-05
5.18749e-05
5.18743e-05
5.18738e-05
5.18733e-05
5.18729e-05
5.18726e-05
5.18723e-05
5.18721e-05
5.1872e-05
5.18718e-05
5.18725e-05
5.94793e-05
5.94772e-05
5.94772e-05
5.94779e-05
5.9479e-05
5.94802e-05
5.94814e-05
5.94824e-05
5.94834e-05
5.94842e-05
5.94849e-05
5.94856e-05
5.94861e-05
5.94866e-05
5.9487e-05
5.94874e-05
5.94878e-05
5.94882e-05
5.94886e-05
5.94889e-05
5.94893e-05
5.94896e-05
5.949e-05
5.94903e-05
5.94907e-05
5.9491e-05
5.94914e-05
5.94918e-05
5.94921e-05
5.94925e-05
5.94928e-05
5.94932e-05
5.94935e-05
5.94938e-05
5.94941e-05
5.94944e-05
5.94947e-05
5.9495e-05
5.94953e-05
5.94955e-05
5.94958e-05
5.9496e-05
5.94962e-05
5.94963e-05
5.94963e-05
5.94962e-05
5.9496e-05
5.9496e-05
5.9496e-05
5.94961e-05
5.94962e-05
5.94964e-05
5.94966e-05
5.94969e-05
5.94973e-05
5.94978e-05
5.94983e-05
5.94989e-05
5.94996e-05
5.95003e-05
5.9501e-05
5.95017e-05
5.95025e-05
5.95032e-05
5.95039e-05
5.95046e-05
5.95052e-05
5.95058e-05
5.95063e-05
5.95068e-05
5.95072e-05
5.95076e-05
5.95079e-05
5.95082e-05
5.95084e-05
5.95085e-05
5.95086e-05
5.95087e-05
5.95087e-05
5.95087e-05
5.95086e-05
5.95085e-05
5.95084e-05
5.95082e-05
5.9508e-05
5.95078e-05
5.95075e-05
5.95072e-05
5.95069e-05
5.95066e-05
5.95063e-05
5.95059e-05
5.95055e-05
5.95051e-05
5.95045e-05
5.95038e-05
5.95031e-05
5.95022e-05
5.95013e-05
5.95003e-05
5.94993e-05
5.94982e-05
5.9497e-05
5.94958e-05
5.94944e-05
5.9493e-05
5.94919e-05
5.94909e-05
5.94901e-05
5.94893e-05
5.94886e-05
5.94881e-05
5.94876e-05
5.94872e-05
5.94868e-05
5.94866e-05
5.94864e-05
5.94863e-05
5.94861e-05
5.94872e-05
6.71549e-05
6.71526e-05
6.71524e-05
6.71532e-05
6.71543e-05
6.71555e-05
6.71567e-05
6.71579e-05
6.71589e-05
6.71599e-05
6.71608e-05
6.71615e-05
6.71622e-05
6.71628e-05
6.71634e-05
6.71639e-05
6.71644e-05
6.71649e-05
6.71653e-05
6.71657e-05
6.71662e-05
6.71666e-05
6.7167e-05
6.71674e-05
6.71679e-05
6.71683e-05
6.71687e-05
6.71691e-05
6.71695e-05
6.717e-05
6.71704e-05
6.71708e-05
6.71711e-05
6.71715e-05
6.71719e-05
6.71723e-05
6.71726e-05
6.71729e-05
6.71733e-05
6.71736e-05
6.71739e-05
6.71741e-05
6.71744e-05
6.71746e-05
6.71746e-05
6.71745e-05
6.71744e-05
6.71743e-05
6.71744e-05
6.71745e-05
6.71746e-05
6.71748e-05
6.71751e-05
6.71755e-05
6.7176e-05
6.71766e-05
6.71772e-05
6.7178e-05
6.71788e-05
6.71796e-05
6.71805e-05
6.71813e-05
6.71821e-05
6.71829e-05
6.71837e-05
6.71844e-05
6.7185e-05
6.71856e-05
6.71862e-05
6.71866e-05
6.7187e-05
6.71874e-05
6.71877e-05
6.71879e-05
6.71881e-05
6.71882e-05
6.71883e-05
6.71883e-05
6.71883e-05
6.71882e-05
6.71881e-05
6.7188e-05
6.71878e-05
6.71876e-05
6.71874e-05
6.71871e-05
6.71868e-05
6.71864e-05
6.7186e-05
6.71856e-05
6.71852e-05
6.71848e-05
6.71843e-05
6.71837e-05
6.7183e-05
6.71822e-05
6.71813e-05
6.71803e-05
6.71792e-05
6.7178e-05
6.71769e-05
6.71756e-05
6.71744e-05
6.7173e-05
6.71715e-05
6.717e-05
6.71688e-05
6.71677e-05
6.71667e-05
6.71659e-05
6.71652e-05
6.71646e-05
6.71641e-05
6.71637e-05
6.71634e-05
6.71632e-05
6.7163e-05
6.7163e-05
6.71627e-05
6.71643e-05
7.48582e-05
7.48555e-05
7.48553e-05
7.48561e-05
7.48572e-05
7.48584e-05
7.48597e-05
7.4861e-05
7.48621e-05
7.48632e-05
7.48642e-05
7.48651e-05
7.48659e-05
7.48667e-05
7.48674e-05
7.4868e-05
7.48686e-05
7.48691e-05
7.48697e-05
7.48702e-05
7.48707e-05
7.48712e-05
7.48717e-05
7.48722e-05
7.48727e-05
7.48732e-05
7.48737e-05
7.48742e-05
7.48747e-05
7.48751e-05
7.48756e-05
7.48761e-05
7.48765e-05
7.4877e-05
7.48774e-05
7.48778e-05
7.48782e-05
7.48786e-05
7.4879e-05
7.48794e-05
7.48797e-05
7.488e-05
7.48803e-05
7.48805e-05
7.48806e-05
7.48805e-05
7.48804e-05
7.48804e-05
7.48805e-05
7.48806e-05
7.48808e-05
7.4881e-05
7.48814e-05
7.48819e-05
7.48825e-05
7.48832e-05
7.48841e-05
7.4885e-05
7.48859e-05
7.48869e-05
7.48878e-05
7.48887e-05
7.48896e-05
7.48905e-05
7.48912e-05
7.4892e-05
7.48926e-05
7.48932e-05
7.48937e-05
7.48942e-05
7.48946e-05
7.48949e-05
7.48951e-05
7.48953e-05
7.48954e-05
7.48955e-05
7.48955e-05
7.48955e-05
7.48955e-05
7.48953e-05
7.48952e-05
7.4895e-05
7.48948e-05
7.48945e-05
7.48942e-05
7.48939e-05
7.48935e-05
7.48931e-05
7.48926e-05
7.48921e-05
7.48917e-05
7.48911e-05
7.48905e-05
7.48897e-05
7.48889e-05
7.48879e-05
7.48868e-05
7.48856e-05
7.48844e-05
7.48831e-05
7.48818e-05
7.48804e-05
7.4879e-05
7.48776e-05
7.4876e-05
7.48744e-05
7.48731e-05
7.48719e-05
7.48709e-05
7.487e-05
7.48693e-05
7.48687e-05
7.48682e-05
7.48678e-05
7.48675e-05
7.48673e-05
7.48672e-05
7.48673e-05
7.4867e-05
7.4869e-05
8.25616e-05
8.25587e-05
8.25585e-05
8.25592e-05
8.25604e-05
8.25617e-05
8.2563e-05
8.25643e-05
8.25656e-05
8.25668e-05
8.25679e-05
8.25689e-05
8.25699e-05
8.25708e-05
8.25716e-05
8.25723e-05
8.2573e-05
8.25737e-05
8.25743e-05
8.2575e-05
8.25756e-05
8.25761e-05
8.25767e-05
8.25773e-05
8.25779e-05
8.25784e-05
8.2579e-05
8.25795e-05
8.25801e-05
8.25806e-05
8.25812e-05
8.25817e-05
8.25822e-05
8.25827e-05
8.25832e-05
8.25837e-05
8.25841e-05
8.25846e-05
8.2585e-05
8.25854e-05
8.25858e-05
8.25862e-05
8.25865e-05
8.25868e-05
8.2587e-05
8.25869e-05
8.25869e-05
8.25869e-05
8.2587e-05
8.25871e-05
8.25873e-05
8.25876e-05
8.25881e-05
8.25888e-05
8.25895e-05
8.25904e-05
8.25914e-05
8.25925e-05
8.25936e-05
8.25946e-05
8.25957e-05
8.25966e-05
8.25976e-05
8.25984e-05
8.25992e-05
8.25999e-05
8.26005e-05
8.26011e-05
8.26016e-05
8.2602e-05
8.26023e-05
8.26026e-05
8.26028e-05
8.26029e-05
8.2603e-05
8.2603e-05
8.26029e-05
8.26028e-05
8.26027e-05
8.26025e-05
8.26023e-05
8.2602e-05
8.26018e-05
8.26014e-05
8.26011e-05
8.26006e-05
8.26002e-05
8.25997e-05
8.25992e-05
8.25986e-05
8.2598e-05
8.25974e-05
8.25966e-05
8.25957e-05
8.25946e-05
8.25935e-05
8.25922e-05
8.25908e-05
8.25894e-05
8.2588e-05
8.25866e-05
8.25851e-05
8.25836e-05
8.25821e-05
8.25804e-05
8.25788e-05
8.25773e-05
8.25761e-05
8.25751e-05
8.25742e-05
8.25734e-05
8.25728e-05
8.25723e-05
8.2572e-05
8.25717e-05
8.25716e-05
8.25716e-05
8.25718e-05
8.25715e-05
8.2574e-05
9.02436e-05
9.02404e-05
9.02402e-05
9.0241e-05
9.02422e-05
9.02436e-05
9.0245e-05
9.02463e-05
9.02477e-05
9.0249e-05
9.02502e-05
9.02514e-05
9.02524e-05
9.02534e-05
9.02544e-05
9.02552e-05
9.02561e-05
9.02569e-05
9.02576e-05
9.02583e-05
9.0259e-05
9.02597e-05
9.02604e-05
9.0261e-05
9.02617e-05
9.02623e-05
9.0263e-05
9.02636e-05
9.02642e-05
9.02648e-05
9.02654e-05
9.0266e-05
9.02666e-05
9.02671e-05
9.02677e-05
9.02682e-05
9.02688e-05
9.02693e-05
9.02698e-05
9.02702e-05
9.02707e-05
9.02711e-05
9.02715e-05
9.02718e-05
9.02721e-05
9.02721e-05
9.0272e-05
9.02721e-05
9.02722e-05
9.02723e-05
9.02726e-05
9.0273e-05
9.02737e-05
9.02745e-05
9.02754e-05
9.02765e-05
9.02777e-05
9.02789e-05
9.02801e-05
9.02812e-05
9.02823e-05
9.02833e-05
9.02842e-05
9.02851e-05
9.02858e-05
9.02865e-05
9.02871e-05
9.02876e-05
9.0288e-05
9.02883e-05
9.02885e-05
9.02887e-05
9.02888e-05
9.02889e-05
9.02889e-05
9.02888e-05
9.02887e-05
9.02885e-05
9.02883e-05
9.0288e-05
9.02877e-05
9.02874e-05
9.0287e-05
9.02866e-05
9.02861e-05
9.02857e-05
9.02851e-05
9.02845e-05
9.02839e-05
9.02833e-05
9.02826e-05
9.02818e-05
9.02808e-05
9.02797e-05
9.02785e-05
9.02771e-05
9.02757e-05
9.02741e-05
9.02726e-05
9.0271e-05
9.02695e-05
9.02679e-05
9.02664e-05
9.02648e-05
9.0263e-05
9.02614e-05
9.02599e-05
9.02587e-05
9.02576e-05
9.02567e-05
9.0256e-05
9.02554e-05
9.0255e-05
9.02547e-05
9.02545e-05
9.02545e-05
9.02545e-05
9.02548e-05
9.02545e-05
9.02575e-05
9.78872e-05
9.78838e-05
9.78836e-05
9.78845e-05
9.78858e-05
9.78872e-05
9.78887e-05
9.78901e-05
9.78916e-05
9.78929e-05
9.78943e-05
9.78956e-05
9.78968e-05
9.78979e-05
9.78989e-05
9.78999e-05
9.79009e-05
9.79018e-05
9.79026e-05
9.79035e-05
9.79043e-05
9.7905e-05
9.79058e-05
9.79065e-05
9.79073e-05
9.7908e-05
9.79087e-05
9.79094e-05
9.79101e-05
9.79108e-05
9.79114e-05
9.79121e-05
9.79127e-05
9.79134e-05
9.7914e-05
9.79146e-05
9.79152e-05
9.79157e-05
9.79163e-05
9.79168e-05
9.79173e-05
9.79178e-05
9.79182e-05
9.79186e-05
9.79189e-05
9.79189e-05
9.79189e-05
9.7919e-05
9.79192e-05
9.79194e-05
9.79197e-05
9.79203e-05
9.79211e-05
9.79221e-05
9.79233e-05
9.79245e-05
9.79259e-05
9.79272e-05
9.79284e-05
9.79296e-05
9.79307e-05
9.79317e-05
9.79326e-05
9.79334e-05
9.79341e-05
9.79346e-05
9.79351e-05
9.79355e-05
9.79358e-05
9.79361e-05
9.79362e-05
9.79363e-05
9.79363e-05
9.79362e-05
9.79361e-05
9.79359e-05
9.79357e-05
9.79354e-05
9.79351e-05
9.79347e-05
9.79343e-05
9.79339e-05
9.79335e-05
9.7933e-05
9.79324e-05
9.79318e-05
9.79312e-05
9.79305e-05
9.79298e-05
9.79291e-05
9.79282e-05
9.79273e-05
9.79261e-05
9.79248e-05
9.79234e-05
9.79218e-05
9.79202e-05
9.79185e-05
9.79168e-05
9.79152e-05
9.79135e-05
9.79119e-05
9.79103e-05
9.79087e-05
9.7907e-05
9.79053e-05
9.79038e-05
9.79026e-05
9.79015e-05
9.79007e-05
9.79e-05
9.78995e-05
9.78991e-05
9.78989e-05
9.78988e-05
9.78988e-05
9.7899e-05
9.78994e-05
9.78992e-05
9.79026e-05
0.00010548
0.000105476
0.000105476
0.000105477
0.000105478
0.00010548
0.000105481
0.000105483
0.000105484
0.000105486
0.000105487
0.000105489
0.00010549
0.000105491
0.000105492
0.000105493
0.000105495
0.000105496
0.000105497
0.000105497
0.000105498
0.000105499
0.0001055
0.000105501
0.000105502
0.000105503
0.000105503
0.000105504
0.000105505
0.000105506
0.000105506
0.000105507
0.000105508
0.000105508
0.000105509
0.00010551
0.00010551
0.000105511
0.000105512
0.000105512
0.000105513
0.000105513
0.000105514
0.000105514
0.000105515
0.000105515
0.000105515
0.000105515
0.000105515
0.000105515
0.000105516
0.000105517
0.000105518
0.000105519
0.00010552
0.000105522
0.000105523
0.000105524
0.000105526
0.000105527
0.000105528
0.000105529
0.00010553
0.00010553
0.000105531