/*--------------------------------*- C++ -*----------------------------------*\
  =========                 |
  \\      /  F ield         | OpenFOAM: The Open Source CFD Toolbox
   \\    /   O peration     | Website:  https://openfoam.org
    \\  /    A nd           | Version:  7
     \\/     M anipulation  |
\*---------------------------------------------------------------------------*/
FoamFile
{
    version     2.0;
    format      ascii;
    class       volScalarField;
    location    "1000";
    object      omega;
}
// * * * * * * * * * * * * * * * * * * * * * * * * * * * * * * * * * * * * * //

dimensions      [0 0 -1 0 0 0 0];

internalField   nonuniform List<scalar> 
24000
(
999.269
999.269
999.269
999.269
999.269
999.269
999.269
999.269
999.269
999.269
999.269
999.269
999.269
999.269
999.269
999.269
999.269
999.269
999.269
999.269
999.269
999.269
999.269
999.269
999.269
999.269
999.269
999.269
999.269
999.269
999.269
999.269
999.269
999.269
999.269
999.269
999.269
999.269
999.269
999.269
999.269
999.269
999.269
999.269
999.269
999.269
999.269
999.269
999.269
999.269
999.269
999.269
999.269
999.269
999.269
999.269
999.269
999.269
999.269
999.269
999.269
999.269
999.269
999.269
999.269
999.269
999.269
999.269
999.269
999.269
999.269
999.269
999.269
999.269
999.269
999.269
999.269
999.269
999.269
999.269
999.269
999.269
999.269
999.269
999.269
999.269
999.269
999.269
999.269
999.269
999.269
999.269
999.269
999.269
999.269
999.269
999.269
999.269
999.269
999.269
999.269
999.269
999.269
999.269
999.269
999.269
999.269
999.269
999.269
999.269
999.269
999.269
999.269
999.269
999.269
999.269
999.269
999.269
999.269
999.269
173.243
173.242
173.242
173.243
173.243
173.243
173.243
173.243
173.243
173.243
173.243
173.243
173.243
173.243
173.243
173.243
173.243
173.243
173.243
173.243
173.243
173.243
173.243
173.243
173.243
173.243
173.243
173.243
173.243
173.243
173.243
173.243
173.243
173.243
173.243
173.243
173.243
173.243
173.243
173.243
173.243
173.243
173.243
173.243
173.243
173.243
173.243
173.243
173.243
173.243
173.243
173.243
173.243
173.243
173.243
173.243
173.243
173.243
173.243
173.243
173.243
173.243
173.243
173.243
173.243
173.243
173.243
173.243
173.243
173.243
173.243
173.243
173.243
173.243
173.243
173.243
173.243
173.243
173.243
173.243
173.243
173.243
173.243
173.243
173.243
173.243
173.243
173.243
173.243
173.243
173.243
173.243
173.243
173.243
173.243
173.243
173.243
173.243
173.243
173.243
173.243
173.243
173.243
173.243
173.243
173.243
173.243
173.243
173.243
173.243
173.243
173.243
173.243
173.243
173.243
173.243
173.243
173.243
173.243
173.243
58.9878
58.9876
58.9875
58.9876
58.9876
58.9877
58.9877
58.9878
58.9878
58.9878
58.9878
58.9878
58.9878
58.9878
58.9878
58.9878
58.9878
58.9878
58.9878
58.9878
58.9878
58.9878
58.9878
58.9878
58.9878
58.9878
58.9878
58.9878
58.9878
58.9878
58.9878
58.9878
58.9878
58.9878
58.9878
58.9878
58.9878
58.9878
58.9878
58.9878
58.9878
58.9878
58.9878
58.9878
58.9878
58.9878
58.9877
58.9877
58.9877
58.9877
58.9877
58.9877
58.9877
58.9877
58.9877
58.9877
58.9877
58.9877
58.9877
58.9877
58.9877
58.9877
58.9877
58.9877
58.9878
58.9878
58.9878
58.9878
58.9878
58.9878
58.9878
58.9878
58.9878
58.9878
58.9878
58.9878
58.9878
58.9878
58.9879
58.9879
58.9879
58.9879
58.9879
58.9879
58.9879
58.9879
58.9879
58.9879
58.9879
58.9879
58.9879
58.9879
58.9879
58.9879
58.988
58.988
58.988
58.988
58.988
58.988
58.988
58.988
58.988
58.988
58.9879
58.9879
58.9879
58.9879
58.9879
58.9879
58.9879
58.9879
58.9879
58.9879
58.9878
58.9878
58.9878
58.9878
58.9878
58.9878
28.7287
28.7283
28.7281
28.7281
28.7282
28.7282
28.7283
28.7283
28.7283
28.7284
28.7284
28.7284
28.7284
28.7284
28.7284
28.7284
28.7284
28.7284
28.7284
28.7284
28.7284
28.7284
28.7284
28.7284
28.7283
28.7283
28.7283
28.7283
28.7283
28.7283
28.7283
28.7283
28.7283
28.7283
28.7283
28.7283
28.7283
28.7283
28.7283
28.7283
28.7283
28.7283
28.7283
28.7283
28.7283
28.7284
28.7283
28.7283
28.7283
28.7283
28.7283
28.7283
28.7283
28.7283
28.7283
28.7283
28.7283
28.7283
28.7283
28.7283
28.7283
28.7283
28.7283
28.7283
28.7283
28.7283
28.7283
28.7284
28.7284
28.7284
28.7284
28.7284
28.7284
28.7284
28.7284
28.7285
28.7285
28.7285
28.7285
28.7285
28.7285
28.7285
28.7285
28.7285
28.7286
28.7286
28.7286
28.7286
28.7286
28.7286
28.7286
28.7286
28.7286
28.7286
28.7286
28.7286
28.7287
28.7287
28.7287
28.7287
28.7287
28.7287
28.7287
28.7287
28.7287
28.7286
28.7286
28.7285
28.7285
28.7285
28.7285
28.7285
28.7285
28.7285
28.7285
28.7284
28.7284
28.7284
28.7284
28.7285
17.4777
17.4773
17.477
17.4769
17.4769
17.4769
17.477
17.477
17.477
17.477
17.477
17.4771
17.4771
17.4771
17.4771
17.4771
17.4771
17.4771
17.4771
17.4771
17.4771
17.477
17.477
17.477
17.477
17.477
17.477
17.477
17.477
17.477
17.477
17.477
17.477
17.477
17.477
17.477
17.477
17.477
17.477
17.477
17.477
17.477
17.477
17.477
17.477
17.477
17.477
17.477
17.477
17.4769
17.4769
17.4769
17.4769
17.4769
17.4769
17.4769
17.4769
17.4769
17.477
17.477
17.477
17.477
17.477
17.477
17.477
17.477
17.477
17.477
17.477
17.477
17.4771
17.4771
17.4771
17.4771
17.4771
17.4771
17.4771
17.4772
17.4772
17.4772
17.4772
17.4772
17.4772
17.4772
17.4773
17.4773
17.4773
17.4773
17.4773
17.4773
17.4773
17.4773
17.4773
17.4774
17.4774
17.4774
17.4774
17.4774
17.4774
17.4774
17.4774
17.4774
17.4774
17.4774
17.4774
17.4774
17.4773
17.4773
17.4772
17.4772
17.4772
17.4772
17.4772
17.4771
17.4771
17.4771
17.4771
17.4771
17.4771
17.4772
12.2553
12.255
12.2547
12.2545
12.2544
12.2544
12.2544
12.2544
12.2545
12.2545
12.2545
12.2545
12.2545
12.2545
12.2545
12.2545
12.2545
12.2545
12.2545
12.2545
12.2545
12.2545
12.2545
12.2545
12.2545
12.2545
12.2545
12.2545
12.2545
12.2545
12.2545
12.2545
12.2545
12.2544
12.2544
12.2544
12.2544
12.2544
12.2544
12.2544
12.2544
12.2544
12.2544
12.2544
12.2545
12.2545
12.2545
12.2545
12.2544
12.2544
12.2544
12.2544
12.2544
12.2544
12.2544
12.2544
12.2544
12.2544
12.2544
12.2544
12.2544
12.2544
12.2544
12.2544
12.2544
12.2544
12.2545
12.2545
12.2545
12.2545
12.2545
12.2545
12.2545
12.2545
12.2545
12.2546
12.2546
12.2546
12.2546
12.2546
12.2546
12.2546
12.2547
12.2547
12.2547
12.2547
12.2547
12.2547
12.2547
12.2547
12.2547
12.2547
12.2548
12.2548
12.2548
12.2548
12.2548
12.2548
12.2548
12.2548
12.2548
12.2548
12.2548
12.2548
12.2549
12.2548
12.2548
12.2547
12.2547
12.2547
12.2546
12.2546
12.2546
12.2546
12.2546
12.2546
12.2545
12.2546
12.2545
12.2547
9.34507
9.34493
9.34461
9.34439
9.34427
9.34422
9.34421
9.34422
9.34423
9.34425
9.34426
9.34427
9.34428
9.34429
9.3443
9.3443
9.3443
9.3443
9.3443
9.3443
9.34429
9.34429
9.34428
9.34428
9.34427
9.34426
9.34425
9.34425
9.34424
9.34423
9.34422
9.34422
9.34421
9.3442
9.3442
9.34419
9.34418
9.34418
9.34417
9.34417
9.34417
9.34416
9.34417
9.34418
9.3442
9.34424
9.34423
9.34421
9.34419
9.34417
9.34415
9.34414
9.34413
9.34413
9.34413
9.34413
9.34413
9.34413
9.34414
9.34415
9.34415
9.34416
9.34416
9.34417
9.34418
9.34418
9.34419
9.34419
9.3442
9.34421
9.34421
9.34422
9.34423
9.34424
9.34424
9.34425
9.34426
9.34427
9.34428
9.34429
9.3443
9.34431
9.34433
9.34434
9.34435
9.34436
9.34438
9.34439
9.3444
9.3444
9.34441
9.34441
9.34442
9.34443
9.34444
9.34445
9.34446
9.34446
9.34447
9.34447
9.34447
9.34448
9.34449
9.34451
9.34454
9.34452
9.34448
9.34444
9.34441
9.34438
9.34436
9.34434
9.34433
9.34431
9.3443
9.34429
9.34428
9.34429
9.34428
9.34437
7.47623
7.47619
7.47595
7.47574
7.4756
7.47552
7.47548
7.47547
7.47547
7.47547
7.47548
7.47549
7.4755
7.47551
7.47552
7.47552
7.47552
7.47552
7.47552
7.47552
7.47552
7.47551
7.47551
7.4755
7.4755
7.47549
7.47548
7.47547
7.47547
7.47546
7.47545
7.47544
7.47543
7.47543
7.47542
7.47541
7.4754
7.4754
7.47539
7.47538
7.47538
7.47537
7.47538
7.47539
7.47541
7.47544
7.47545
7.47543
7.47541
7.4754
7.47538
7.47537
7.47535
7.47535
7.47534
7.47534
7.47534
7.47535
7.47535
7.47536
7.47536
7.47537
7.47537
7.47538
7.47538
7.47539
7.47539
7.47539
7.47539
7.4754
7.4754
7.4754
7.47541
7.47541
7.47541
7.47542
7.47542
7.47543
7.47543
7.47544
7.47545
7.47546
7.47547
7.47548
7.47549
7.4755
7.47551
7.47552
7.47553
7.47553
7.47554
7.47554
7.47555
7.47556
7.47556
7.47557
7.47558
7.47558
7.47559
7.47559
7.47559
7.4756
7.47561
7.47563
7.47567
7.47567
7.47564
7.47561
7.47558
7.47556
7.47554
7.47552
7.47551
7.47549
7.47548
7.47547
7.47546
7.47548
7.47547
7.47553
6.16317
6.16319
6.16302
6.16285
6.16271
6.16262
6.16257
6.16254
6.16253
6.16252
6.16253
6.16253
6.16254
6.16254
6.16255
6.16255
6.16256
6.16256
6.16256
6.16256
6.16255
6.16255
6.16255
6.16254
6.16254
6.16253
6.16252
6.16251
6.16251
6.1625
6.16249
6.16248
6.16248
6.16247
6.16246
6.16245
6.16244
6.16243
6.16243
6.16242
6.16241
6.16241
6.16241
6.16241
6.16243
6.16246
6.16247
6.16246
6.16245
6.16244
6.16242
6.16241
6.1624
6.16239
6.16238
6.16238
6.16238
6.16238
6.16239
6.16239
6.1624
6.1624
6.16241
6.16241
6.16241
6.16242
6.16242
6.16242
6.16242
6.16242
6.16242
6.16242
6.16242
6.16242
6.16242
6.16242
6.16242
6.16242
6.16243
6.16243
6.16244
6.16244
6.16245
6.16245
6.16246
6.16247
6.16248
6.16249
6.1625
6.1625
6.1625
6.16251
6.16251
6.16252
6.16252
6.16253
6.16253
6.16254
6.16254
6.16254
6.16255
6.16256
6.16257
6.16259
6.16262
6.16263
6.16262
6.16259
6.16257
6.16255
6.16253
6.16252
6.1625
6.16249
6.16248
6.16248
6.16247
6.16247
6.16248
6.16251
5.19067
5.19072
5.19062
5.19048
5.19037
5.19028
5.19022
5.19019
5.19016
5.19015
5.19015
5.19015
5.19015
5.19016
5.19016
5.19016
5.19017
5.19017
5.19017
5.19017
5.19017
5.19016
5.19016
5.19016
5.19015
5.19015
5.19014
5.19013
5.19013
5.19012
5.19011
5.1901
5.1901
5.19009
5.19008
5.19007
5.19006
5.19005
5.19005
5.19004
5.19003
5.19002
5.19002
5.19003
5.19004
5.19006
5.19007
5.19007
5.19006
5.19005
5.19004
5.19003
5.19002
5.19001
5.19
5.19
5.19
5.19
5.19
5.19001
5.19001
5.19002
5.19002
5.19003
5.19003
5.19003
5.19003
5.19003
5.19003
5.19003
5.19003
5.19003
5.19002
5.19002
5.19002
5.19002
5.19002
5.19002
5.19002
5.19002
5.19002
5.19002
5.19003
5.19003
5.19004
5.19004
5.19005
5.19006
5.19006
5.19007
5.19007
5.19007
5.19008
5.19008
5.19008
5.19009
5.19009
5.1901
5.1901
5.1901
5.1901
5.19011
5.19012
5.19014
5.19017
5.19018
5.19017
5.19016
5.19014
5.19013
5.19011
5.1901
5.19009
5.19008
5.19007
5.19006
5.19005
5.19006
5.19007
5.19007
4.44568
4.44575
4.44568
4.44558
4.44549
4.44541
4.44536
4.44532
4.44529
4.44528
4.44527
4.44526
4.44526
4.44526
4.44526
4.44527
4.44527
4.44527
4.44527
4.44527
4.44527
4.44527
4.44527
4.44526
4.44526
4.44526
4.44525
4.44524
4.44524
4.44523
4.44522
4.44522
4.44521
4.4452
4.44519
4.44519
4.44518
4.44517
4.44516
4.44515
4.44514
4.44514
4.44514
4.44514
4.44515
4.44516
4.44517
4.44518
4.44517
4.44516
4.44515
4.44514
4.44513
4.44512
4.44512
4.44511
4.44511
4.44511
4.44512
4.44512
4.44513
4.44513
4.44514
4.44514
4.44514
4.44514
4.44514
4.44514
4.44514
4.44514
4.44514
4.44514
4.44513
4.44513
4.44513
4.44513
4.44512
4.44512
4.44512
4.44512
4.44512
4.44512
4.44512
4.44512
4.44513
4.44513
4.44513
4.44514
4.44514
4.44515
4.44515
4.44515
4.44515
4.44516
4.44516
4.44516
4.44516
4.44517
4.44517
4.44517
4.44517
4.44517
4.44518
4.4452
4.44522
4.44523
4.44523
4.44523
4.44521
4.4452
4.44519
4.44518
4.44517
4.44516
4.44515
4.44515
4.44514
4.44514
4.44515
4.44514
3.86053
3.8606
3.86055
3.86049
3.86042
3.86035
3.86031
3.86027
3.86024
3.86022
3.86021
3.8602
3.8602
3.8602
3.8602
3.8602
3.8602
3.8602
3.8602
3.8602
3.8602
3.8602
3.8602
3.8602
3.8602
3.86019
3.86019
3.86018
3.86018
3.86017
3.86017
3.86016
3.86015
3.86015
3.86014
3.86013
3.86012
3.86011
3.86011
3.8601
3.86009
3.86008
3.86008
3.86008
3.86009
3.8601
3.86011
3.86011
3.86011
3.8601
3.86009
3.86008
3.86007
3.86007
3.86006
3.86006
3.86006
3.86006
3.86006
3.86007
3.86007
3.86008
3.86008
3.86009
3.86009
3.86009
3.86009
3.86009
3.86009
3.86009
3.86009
3.86008
3.86008
3.86008
3.86007
3.86007
3.86007
3.86006
3.86006
3.86006
3.86006
3.86005
3.86005
3.86005
3.86006
3.86006
3.86006
3.86006
3.86007
3.86007
3.86007
3.86007
3.86007
3.86007
3.86008
3.86008
3.86008
3.86008
3.86008
3.86008
3.86008
3.86008
3.86009
3.8601
3.86012
3.86013
3.86014
3.86013
3.86012
3.86011
3.8601
3.8601
3.86009
3.86008
3.86007
3.86007
3.86006
3.86006
3.86007
3.86005
3.39143
3.39149
3.39146
3.39141
3.39136
3.39131
3.39127
3.39124
3.39121
3.3912
3.39118
3.39117
3.39117
3.39116
3.39116
3.39116
3.39116
3.39116
3.39117
3.39117
3.39117
3.39117
3.39116
3.39116
3.39116
3.39116
3.39115
3.39115
3.39115
3.39114
3.39113
3.39113
3.39112
3.39112
3.39111
3.3911
3.39109
3.39109
3.39108
3.39107
3.39106
3.39106
3.39105
3.39105
3.39106
3.39107
3.39107
3.39107
3.39107
3.39107
3.39106
3.39105
3.39105
3.39104
3.39104
3.39103
3.39103
3.39103
3.39104
3.39104
3.39105
3.39105
3.39106
3.39106
3.39106
3.39107
3.39107
3.39107
3.39107
3.39106
3.39106
3.39106
3.39106
3.39105
3.39105
3.39105
3.39104
3.39104
3.39103
3.39103
3.39103
3.39102
3.39102
3.39102
3.39102
3.39102
3.39102
3.39103
3.39103
3.39103
3.39103
3.39103
3.39103
3.39103
3.39103
3.39103
3.39103
3.39103
3.39103
3.39103
3.39103
3.39103
3.39104
3.39105
3.39106
3.39107
3.39107
3.39107
3.39107
3.39106
3.39105
3.39105
3.39104
3.39103
3.39103
3.39102
3.39101
3.39101
3.39102
3.391
3.00865
3.00872
3.00869
3.00865
3.00861
3.00858
3.00854
3.00852
3.0085
3.00848
3.00847
3.00846
3.00845
3.00845
3.00844
3.00844
3.00844
3.00844
3.00844
3.00844
3.00845
3.00844
3.00844
3.00844
3.00844
3.00844
3.00844
3.00843
3.00843
3.00842
3.00842
3.00841
3.00841
3.0084
3.0084
3.00839
3.00838
3.00838
3.00837
3.00836
3.00835
3.00835
3.00834
3.00834
3.00834
3.00835
3.00836
3.00836
3.00835
3.00835
3.00835
3.00834
3.00833
3.00833
3.00833
3.00832
3.00833
3.00833
3.00833
3.00834
3.00834
3.00835
3.00835
3.00835
3.00836
3.00836
3.00836
3.00836
3.00836
3.00836
3.00836
3.00836
3.00835
3.00835
3.00835
3.00834
3.00834
3.00833
3.00833
3.00832
3.00832
3.00832
3.00831
3.00831
3.00831
3.00831
3.00831
3.00831
3.00831
3.00831
3.00831
3.00831
3.00831
3.00831
3.00831
3.00831
3.00831
3.00831
3.00831
3.00831
3.0083
3.0083
3.00831
3.00832
3.00833
3.00834
3.00834
3.00834
3.00834
3.00833
3.00833
3.00832
3.00831
3.00831
3.0083
3.0083
3.00829
3.00829
3.0083
3.00827
2.69142
2.69148
2.69146
2.69143
2.69139
2.69136
2.69134
2.69132
2.6913
2.69129
2.69127
2.69126
2.69126
2.69125
2.69125
2.69125
2.69125
2.69125
2.69125
2.69125
2.69125
2.69125
2.69125
2.69125
2.69125
2.69125
2.69124
2.69124
2.69124
2.69124
2.69123
2.69123
2.69122
2.69122
2.69121
2.69121
2.6912
2.69119
2.69119
2.69118
2.69117
2.69117
2.69116
2.69116
2.69116
2.69117
2.69117
2.69117
2.69117
2.69116
2.69116
2.69115
2.69115
2.69115
2.69114
2.69114
2.69115
2.69115
2.69115
2.69116
2.69116
2.69117
2.69117
2.69118
2.69118
2.69118
2.69118
2.69118
2.69118
2.69118
2.69118
2.69118
2.69118
2.69117
2.69117
2.69117
2.69116
2.69116
2.69115
2.69115
2.69114
2.69114
2.69114
2.69113
2.69113
2.69113
2.69113
2.69113
2.69113
2.69113
2.69113
2.69112
2.69112
2.69112
2.69112
2.69112
2.69112
2.69112
2.69111
2.69111
2.69111
2.69111
2.69111
2.69112
2.69113
2.69114
2.69114
2.69114
2.69114
2.69113
2.69113
2.69112
2.69112
2.69112
2.69111
2.69111
2.6911
2.6911
2.69111
2.69107
2.42482
2.42487
2.42486
2.42483
2.4248
2.42478
2.42476
2.42474
2.42473
2.42472
2.42471
2.4247
2.42469
2.42469
2.42469
2.42468
2.42468
2.42468
2.42468
2.42468
2.42468
2.42469
2.42469
2.42468
2.42468
2.42468
2.42468
2.42468
2.42468
2.42467
2.42467
2.42467
2.42466
2.42466
2.42465
2.42465
2.42464
2.42464
2.42463
2.42462
2.42462
2.42461
2.42461
2.4246
2.42461
2.42461
2.42461
2.42461
2.42461
2.42461
2.4246
2.4246
2.42459
2.42459
2.42459
2.42459
2.42459
2.4246
2.4246
2.42461
2.42461
2.42462
2.42462
2.42463
2.42463
2.42463
2.42463
2.42464
2.42464
2.42464
2.42463
2.42463
2.42463
2.42463
2.42462
2.42462
2.42462
2.42461
2.42461
2.4246
2.4246
2.42459
2.42459
2.42458
2.42458
2.42458
2.42458
2.42458
2.42457
2.42457
2.42457
2.42457
2.42457
2.42457
2.42456
2.42456
2.42456
2.42456
2.42455
2.42455
2.42455
2.42455
2.42455
2.42455
2.42456
2.42457
2.42457
2.42457
2.42457
2.42457
2.42456
2.42456
2.42456
2.42455
2.42455
2.42455
2.42454
2.42454
2.42455
2.42451
2.19797
2.19801
2.198
2.19798
2.19796
2.19794
2.19792
2.19791
2.19789
2.19788
2.19788
2.19787
2.19786
2.19786
2.19786
2.19786
2.19785
2.19785
2.19786
2.19786
2.19786
2.19786
2.19786
2.19786
2.19786
2.19786
2.19786
2.19785
2.19785
2.19785
2.19785
2.19784
2.19784
2.19784
2.19783
2.19783
2.19782
2.19782
2.19781
2.19781
2.1978
2.19779
2.19779
2.19779
2.19779
2.19779
2.19779
2.19779
2.19779
2.19779
2.19778
2.19778
2.19778
2.19778
2.19778
2.19778
2.19778
2.19779
2.19779
2.1978
2.1978
2.19781
2.19781
2.19782
2.19782
2.19782
2.19782
2.19783
2.19783
2.19783
2.19782
2.19782
2.19782
2.19782
2.19781
2.19781
2.19781
2.1978
2.1978
2.19779
2.19779
2.19778
2.19778
2.19778
2.19777
2.19777
2.19777
2.19776
2.19776
2.19776
2.19776
2.19775
2.19775
2.19775
2.19775
2.19774
2.19774
2.19774
2.19773
2.19773
2.19773
2.19773
2.19773
2.19773
2.19774
2.19774
2.19775
2.19775
2.19774
2.19774
2.19774
2.19774
2.19774
2.19773
2.19773
2.19773
2.19772
2.19772
2.19773
2.19769
2.00276
2.0028
2.00279
2.00277
2.00275
2.00273
2.00272
2.0027
2.00269
2.00269
2.00268
2.00267
2.00267
2.00267
2.00266
2.00266
2.00266
2.00266
2.00266
2.00266
2.00267
2.00267
2.00267
2.00267
2.00267
2.00267
2.00267
2.00267
2.00266
2.00266
2.00266
2.00266
2.00265
2.00265
2.00265
2.00264
2.00264
2.00263
2.00263
2.00262
2.00262
2.00261
2.00261
2.00261
2.00261
2.00261
2.00261
2.00261
2.00261
2.0026
2.0026
2.0026
2.0026
2.0026
2.0026
2.0026
2.00261
2.00261
2.00262
2.00263
2.00263
2.00264
2.00264
2.00264
2.00265
2.00265
2.00265
2.00265
2.00265
2.00265
2.00265
2.00265
2.00265
2.00265
2.00264
2.00264
2.00264
2.00263
2.00263
2.00262
2.00262
2.00261
2.00261
2.0026
2.0026
2.00259
2.00259
2.00259
2.00259
2.00258
2.00258
2.00258
2.00257
2.00257
2.00257
2.00256
2.00256
2.00255
2.00255
2.00255
2.00254
2.00254
2.00254
2.00255
2.00255
2.00256
2.00256
2.00256
2.00256
2.00256
2.00256
2.00256
2.00255
2.00255
2.00255
2.00255
2.00254
2.00254
2.00255
2.00252
1.83306
1.8331
1.83309
1.83307
1.83305
1.83304
1.83303
1.83302
1.83301
1.833
1.833
1.83299
1.83299
1.83298
1.83298
1.83298
1.83298
1.83298
1.83298
1.83298
1.83299
1.83299
1.83299
1.83299
1.83299
1.83299
1.83299
1.83299
1.83299
1.83299
1.83298
1.83298
1.83298
1.83298
1.83297
1.83297
1.83297
1.83296
1.83296
1.83295
1.83295
1.83295
1.83294
1.83294
1.83294
1.83294
1.83294
1.83294
1.83294
1.83294
1.83293
1.83293
1.83293
1.83293
1.83294
1.83294
1.83295
1.83295
1.83296
1.83297
1.83297
1.83298
1.83298
1.83298
1.83299
1.83299
1.83299
1.83299
1.83299
1.83299
1.83299
1.83299
1.83299
1.83298
1.83298
1.83298
1.83298
1.83297
1.83297
1.83296
1.83296
1.83295
1.83295
1.83294
1.83294
1.83293
1.83293
1.83293
1.83292
1.83292
1.83292
1.83291
1.83291
1.8329
1.8329
1.83289
1.83289
1.83288
1.83288
1.83288
1.83287
1.83287
1.83287
1.83288
1.83288
1.83289
1.83289
1.83289
1.83289
1.83289
1.83289
1.83289
1.83289
1.83289
1.83288
1.83288
1.83288
1.83288
1.83288
1.83285
1.68419
1.68422
1.68421
1.68419
1.68418
1.68416
1.68415
1.68414
1.68414
1.68413
1.68413
1.68412
1.68412
1.68412
1.68412
1.68412
1.68412
1.68412
1.68412
1.68412
1.68412
1.68412
1.68413
1.68413
1.68413
1.68413
1.68413
1.68413
1.68413
1.68413
1.68413
1.68412
1.68412
1.68412
1.68412
1.68412
1.68411
1.68411
1.68411
1.6841
1.6841
1.68409
1.68409
1.68409
1.68409
1.68409
1.68409
1.68409
1.68409
1.68408
1.68408
1.68408
1.68408
1.68409
1.68409
1.6841
1.68411
1.68411
1.68412
1.68412
1.68413
1.68413
1.68414
1.68414
1.68414
1.68415
1.68415
1.68415
1.68415
1.68415
1.68415
1.68414
1.68414
1.68414
1.68414
1.68413
1.68413
1.68413
1.68412
1.68412
1.68411
1.68411
1.6841
1.6841
1.68409
1.68409
1.68408
1.68408
1.68408
1.68407
1.68407
1.68406
1.68406
1.68405
1.68405
1.68404
1.68404
1.68403
1.68403
1.68402
1.68402
1.68402
1.68402
1.68402
1.68403
1.68403
1.68403
1.68403
1.68404
1.68404
1.68404
1.68404
1.68404
1.68404
1.68404
1.68403
1.68403
1.68403
1.68403
1.68401
1.55248
1.55251
1.5525
1.55249
1.55247
1.55246
1.55245
1.55244
1.55244
1.55243
1.55243
1.55243
1.55242
1.55242
1.55242
1.55242
1.55242
1.55242
1.55243
1.55243
1.55243
1.55243
1.55243
1.55243
1.55244
1.55244
1.55244
1.55244
1.55244
1.55244
1.55244
1.55244
1.55243
1.55243
1.55243
1.55243
1.55243
1.55242
1.55242
1.55242
1.55241
1.55241
1.55241
1.55241
1.55241
1.55241
1.55241
1.55241
1.55241
1.5524
1.5524
1.5524
1.55241
1.55241
1.55242
1.55242
1.55243
1.55244
1.55244
1.55245
1.55246
1.55246
1.55246
1.55247
1.55247
1.55247
1.55247
1.55247
1.55247
1.55247
1.55247
1.55247
1.55247
1.55246
1.55246
1.55246
1.55245
1.55245
1.55245
1.55244
1.55244
1.55243
1.55243
1.55242
1.55242
1.55241
1.55241
1.5524
1.5524
1.5524
1.55239
1.55238
1.55238
1.55237
1.55237
1.55236
1.55235
1.55235
1.55234
1.55234
1.55233
1.55233
1.55233
1.55234
1.55234
1.55235
1.55235
1.55235
1.55235
1.55235
1.55236
1.55236
1.55236
1.55236
1.55236
1.55236
1.55236
1.55235
1.55236
1.55233
1.43508
1.4351
1.4351
1.43508
1.43507
1.43506
1.43505
1.43505
1.43504
1.43504
1.43503
1.43503
1.43503
1.43503
1.43503
1.43503
1.43503
1.43503
1.43503
1.43503
1.43504
1.43504
1.43504
1.43504
1.43504
1.43505
1.43505
1.43505
1.43505
1.43505
1.43505
1.43505
1.43505
1.43505
1.43504
1.43504
1.43504
1.43504
1.43504
1.43503
1.43503
1.43503
1.43503
1.43502
1.43502
1.43503
1.43503
1.43503
1.43502
1.43502
1.43502
1.43503
1.43503
1.43504
1.43504
1.43505
1.43506
1.43507
1.43507
1.43508
1.43508
1.43508
1.43509
1.43509
1.43509
1.43509
1.43509
1.43509
1.43509
1.43509
1.43509
1.43509
1.43509
1.43508
1.43508
1.43508
1.43508
1.43507
1.43507
1.43506
1.43506
1.43505
1.43505
1.43504
1.43504
1.43503
1.43503
1.43502
1.43502
1.43502
1.43501
1.435
1.435
1.43499
1.43498
1.43497
1.43497
1.43496
1.43496
1.43495
1.43495
1.43495
1.43495
1.43495
1.43496
1.43496
1.43497
1.43497
1.43497
1.43497
1.43498
1.43498
1.43498
1.43498
1.43498
1.43498
1.43498
1.43498
1.43498
1.43496
1.3297
1.32972
1.32971
1.3297
1.32969
1.32968
1.32967
1.32967
1.32966
1.32966
1.32966
1.32965
1.32965
1.32965
1.32965
1.32965
1.32965
1.32966
1.32966
1.32966
1.32966
1.32967
1.32967
1.32967
1.32967
1.32967
1.32968
1.32968
1.32968
1.32968
1.32968
1.32968
1.32968
1.32968
1.32968
1.32968
1.32968
1.32967
1.32967
1.32967
1.32967
1.32967
1.32966
1.32966
1.32966
1.32967
1.32967
1.32967
1.32966
1.32966
1.32967
1.32967
1.32968
1.32968
1.32969
1.3297
1.3297
1.32971
1.32972
1.32972
1.32972
1.32973
1.32973
1.32973
1.32973
1.32973
1.32973
1.32973
1.32973
1.32973
1.32973
1.32973
1.32972
1.32972
1.32972
1.32972
1.32971
1.32971
1.32971
1.3297
1.3297
1.32969
1.32969
1.32968
1.32968
1.32967
1.32967
1.32966
1.32966
1.32965
1.32965
1.32964
1.32963
1.32962
1.32961
1.32961
1.3296
1.32959
1.32959
1.32959
1.32958
1.32958
1.32959
1.32959
1.3296
1.3296
1.3296
1.32961
1.32961
1.32961
1.32962
1.32962
1.32962
1.32962
1.32962
1.32962
1.32962
1.32962
1.32962
1.32961
1.23451
1.23452
1.23452
1.23451
1.2345
1.23449
1.23448
1.23448
1.23447
1.23447
1.23447
1.23447
1.23447
1.23447
1.23447
1.23447
1.23447
1.23447
1.23447
1.23448
1.23448
1.23448
1.23448
1.23449
1.23449
1.23449
1.23449
1.23449
1.2345
1.2345
1.2345
1.2345
1.2345
1.2345
1.2345
1.2345
1.2345
1.2345
1.2345
1.23449
1.23449
1.23449
1.23449
1.23449
1.23449
1.23449
1.23449
1.23449
1.23449
1.23449
1.2345
1.2345
1.23451
1.23452
1.23452
1.23453
1.23454
1.23454
1.23455
1.23455
1.23455
1.23455
1.23456
1.23456
1.23456
1.23456
1.23456
1.23456
1.23455
1.23455
1.23455
1.23455
1.23455
1.23454
1.23454
1.23454
1.23454
1.23453
1.23453
1.23452
1.23452
1.23451
1.23451
1.2345
1.2345
1.23449
1.23449
1.23449
1.23448
1.23447
1.23447
1.23446
1.23445
1.23444
1.23443
1.23443
1.23442
1.23441
1.23441
1.23441
1.23441
1.23441
1.23441
1.23441
1.23442
1.23443
1.23443
1.23443
1.23444
1.23444
1.23445
1.23445
1.23445
1.23445
1.23446
1.23446
1.23446
1.23445
1.23446
1.23445
1.14803
1.14803
1.14803
1.14802
1.14801
1.14801
1.148
1.14799
1.14799
1.14799
1.14799
1.14798
1.14798
1.14798
1.14798
1.14799
1.14799
1.14799
1.14799
1.14799
1.148
1.148
1.148
1.14801
1.14801
1.14801
1.14801
1.14802
1.14802
1.14802
1.14802
1.14802
1.14802
1.14803
1.14803
1.14803
1.14803
1.14803
1.14802
1.14802
1.14802
1.14802
1.14802
1.14802
1.14802
1.14803
1.14803
1.14803
1.14803
1.14803
1.14803
1.14804
1.14805
1.14805
1.14806
1.14806
1.14807
1.14807
1.14807
1.14808
1.14808
1.14808
1.14808
1.14808
1.14808
1.14808
1.14808
1.14808
1.14808
1.14807
1.14807
1.14807
1.14807
1.14807
1.14806
1.14806
1.14806
1.14805
1.14805
1.14805
1.14804
1.14804
1.14803
1.14803
1.14802
1.14802
1.14801
1.14801
1.148
1.148
1.14799
1.14798
1.14797
1.14796
1.14795
1.14795
1.14794
1.14794
1.14794
1.14793
1.14793
1.14794
1.14794
1.14794
1.14795
1.14796
1.14796
1.14797
1.14797
1.14797
1.14798
1.14798
1.14799
1.14799
1.14799
1.14799
1.14799
1.14799
1.14799
1.14799
1.06904
1.06904
1.06903
1.06902
1.06902
1.06901
1.06901
1.069
1.069
1.069
1.06899
1.06899
1.06899
1.06899
1.06899
1.069
1.069
1.069
1.069
1.06901
1.06901
1.06901
1.06902
1.06902
1.06902
1.06903
1.06903
1.06903
1.06903
1.06904
1.06904
1.06904
1.06904
1.06904
1.06904
1.06904
1.06904
1.06904
1.06904
1.06904
1.06904
1.06904
1.06904
1.06904
1.06905
1.06905
1.06905
1.06905
1.06905
1.06906
1.06906
1.06907
1.06907
1.06907
1.06908
1.06908
1.06908
1.06909
1.06909
1.06909
1.06909
1.06909
1.06909
1.06909
1.06909
1.06909
1.06909
1.06908
1.06908
1.06908
1.06908
1.06908
1.06907
1.06907
1.06907
1.06907
1.06906
1.06906
1.06906
1.06905
1.06905
1.06904
1.06904
1.06903
1.06903
1.06902
1.06902
1.06901
1.06901
1.069
1.06899
1.06899
1.06898
1.06897
1.06896
1.06896
1.06896
1.06895
1.06895
1.06895
1.06895
1.06895
1.06896
1.06896
1.06897
1.06898
1.06898
1.06899
1.06899
1.069
1.069
1.06901
1.06901
1.06902
1.06902
1.06902
1.06902
1.06902
1.06902
1.06902
0.996536
0.996531
0.996526
0.99652
0.996514
0.996509
0.996505
0.996501
0.996499
0.996497
0.996495
0.996495
0.996495
0.996495
0.996497
0.996499
0.996501
0.996504
0.996507
0.99651
0.996513
0.996517
0.99652
0.996524
0.996528
0.996531
0.996534
0.996538
0.996541
0.996543
0.996546
0.996548
0.99655
0.996552
0.996554
0.996555
0.996557
0.996557
0.996558
0.996558
0.996559
0.996559
0.996559
0.99656
0.996563
0.996566
0.996568
0.99657
0.996572
0.996575
0.996578
0.99658
0.996581
0.996581
0.996582
0.996582
0.996583
0.996583
0.996583
0.996583
0.996583
0.996583
0.996582
0.996581
0.99658
0.996579
0.996577
0.996575
0.996574
0.996572
0.996569
0.996567
0.996565
0.996562
0.996559
0.996557
0.996553
0.99655
0.996547
0.996543
0.996539
0.996534
0.99653
0.996525
0.99652
0.996516
0.996511
0.996506
0.9965
0.996494
0.996487
0.99648
0.996475
0.99647
0.996466
0.996463
0.996461
0.99646
0.99646
0.996461
0.996463
0.996466
0.99647
0.996477
0.996486
0.996493
0.996499
0.996505
0.99651
0.996516
0.996521
0.996526
0.99653
0.996533
0.996536
0.996538
0.996539
0.99654
0.996539
0.996542
0.929699
0.92969
0.929684
0.92968
0.929675
0.929671
0.929668
0.929665
0.929663
0.929662
0.929661
0.929661
0.929662
0.929663
0.929664
0.929666
0.929669
0.929672
0.929675
0.929679
0.929682
0.929686
0.92969
0.929694
0.929698
0.929702
0.929706
0.929709
0.929713
0.929716
0.929719
0.929722
0.929725
0.929727
0.92973
0.929732
0.929733
0.929735
0.929736
0.929737
0.929738
0.929739
0.92974
0.929741
0.929744
0.929748
0.929751
0.929753
0.929755
0.929755
0.929752
0.929748
0.929743
0.92974
0.929737
0.929735
0.929734
0.929733
0.929732
0.929731
0.92973
0.929729
0.929728
0.929727
0.929725
0.929724
0.929722
0.92972
0.929718
0.929716
0.929714
0.929712
0.929709
0.929707
0.929704
0.929702
0.929699
0.929695
0.929692
0.929688
0.929684
0.92968
0.929676
0.929671
0.929667
0.929662
0.929658
0.929653
0.929649
0.929645
0.929641
0.929637
0.929635
0.929633
0.929632
0.929632
0.929633
0.929634
0.929635
0.929638
0.929641
0.929645
0.929649
0.929657
0.929666
0.929673
0.92968
0.929686
0.929691
0.929697
0.929702
0.929707
0.929711
0.929715
0.929718
0.92972
0.929722
0.929723
0.929722
0.929729
0.867837
0.867822
0.867816
0.867812
0.867809
0.867807
0.867805
0.867803
0.867802
0.867801
0.867801
0.867802
0.867803
0.867804
0.867806
0.867809
0.867811
0.867815
0.867818
0.867822
0.867826
0.86783
0.867834
0.867839
0.867843
0.867847
0.867851
0.867855
0.867859
0.867863
0.867867
0.86787
0.867874
0.867877
0.867879
0.867882
0.867884
0.867886
0.867888
0.86789
0.867891
0.867893
0.867894
0.867896
0.8679
0.867904
0.867908
0.867908
0.867908
0.8679
0.867886
0.867872
0.867861
0.867854
0.867849
0.867845
0.867843
0.867841
0.867839
0.867838
0.867837
0.867836
0.867834
0.867833
0.867831
0.86783
0.867828
0.867826
0.867825
0.867823
0.86782
0.867818
0.867816
0.867814
0.867811
0.867809
0.867806
0.867803
0.8678
0.867796
0.867793
0.867789
0.867785
0.86778
0.867776
0.867772
0.867767
0.867764
0.867764
0.867764
0.867766
0.867768
0.86777
0.867773
0.867775
0.867778
0.867781
0.867783
0.867786
0.86779
0.867794
0.867799
0.867804
0.867812
0.867822
0.867829
0.867835
0.867841
0.867846
0.867851
0.867856
0.867861
0.867865
0.867869
0.867872
0.867875
0.867877
0.867879
0.867877
0.867889
0.810368
0.810349
0.810342
0.810339
0.810337
0.810336
0.810336
0.810335
0.810335
0.810335
0.810336
0.810337
0.810339
0.810341
0.810343
0.810346
0.810349
0.810353
0.810356
0.81036
0.810365
0.810369
0.810374
0.810378
0.810383
0.810388
0.810392
0.810397
0.810401
0.810406
0.81041
0.810414
0.810417
0.810421
0.810424
0.810428
0.810431
0.810433
0.810436
0.810438
0.81044
0.810442
0.810444
0.810446
0.810451
0.810456
0.81046
0.810455
0.810448
0.810419
0.810387
0.810364
0.810349
0.81034
0.810335
0.810331
0.810328
0.810326
0.810324
0.810323
0.810322
0.810321
0.810319
0.810318
0.810317
0.810315
0.810314
0.810312
0.810311
0.810309
0.810307
0.810305
0.810303
0.810301
0.810299
0.810297
0.810294
0.810291
0.810289
0.810285
0.810282
0.810278
0.810275
0.810271
0.810267
0.810263
0.810257
0.810262
0.810269
0.810278
0.810288
0.810297
0.810305
0.810312
0.810318
0.810323
0.810327
0.810331
0.810336
0.81034
0.810345
0.81035
0.810356
0.810365
0.810375
0.810381
0.810386
0.81039
0.810394
0.810399
0.810403
0.810408
0.810412
0.810417
0.81042
0.810423
0.810426
0.810428
0.810426
0.810443
0.756805
0.756781
0.756774
0.756772
0.756772
0.756773
0.756773
0.756774
0.756775
0.756776
0.756778
0.75678
0.756782
0.756784
0.756787
0.75679
0.756794
0.756798
0.756802
0.756806
0.756811
0.756816
0.756821
0.756826
0.756831
0.756836
0.756841
0.756846
0.756851
0.756855
0.75686
0.756864
0.756869
0.756873
0.756877
0.756881
0.756884
0.756887