/*--------------------------------*- C++ -*----------------------------------*\
  =========                 |
  \\      /  F ield         | OpenFOAM: The Open Source CFD Toolbox
   \\    /   O peration     | Website:  https://openfoam.org
    \\  /    A nd           | Version:  7
     \\/     M anipulation  |
\*---------------------------------------------------------------------------*/
FoamFile
{
    version     2.0;
    format      ascii;
    class       volVectorField;
    location    "1000";
    object      U;
}
// * * * * * * * * * * * * * * * * * * * * * * * * * * * * * * * * * * * * * //

dimensions      [0 1 -1 0 0 0 0];

internalField   nonuniform List<vector> 
24000
(
(0.00470087 8.15808e-09 -1.39974e-17)
(0.00470074 -9.04952e-09 -1.3456e-17)
(0.00470144 -2.12125e-09 -1.02187e-17)
(0.00470161 -1.29322e-09 -7.78098e-17)
(0.00470178 -1.06833e-09 -3.60905e-16)
(0.00470189 -4.55884e-10 -9.42284e-17)
(0.00470195 -2.57164e-10 -3.75981e-16)
(0.00470198 -1.03799e-10 -8.95088e-17)
(0.00470199 -8.15467e-12 -4.86629e-17)
(0.004702 4.18684e-11 -3.54571e-16)
(0.00470199 6.97133e-11 -7.40502e-17)
(0.00470199 8.26794e-11 -6.23317e-17)
(0.00470198 8.77109e-11 -6.22157e-17)
(0.00470197 8.88176e-11 -8.04609e-17)
(0.00470195 8.79488e-11 -1.19384e-16)
(0.00470194 8.59547e-11 -6.91018e-17)
(0.00470193 8.31553e-11 -7.62169e-17)
(0.00470192 7.96905e-11 -7.56439e-17)
(0.00470191 7.56828e-11 -9.70277e-17)
(0.00470189 7.1231e-11 -1.2989e-16)
(0.00470188 6.63392e-11 -7.95175e-17)
(0.00470187 6.10313e-11 -1.10542e-16)
(0.00470186 5.53227e-11 -9.92653e-17)
(0.00470186 4.92089e-11 -1.11801e-16)
(0.00470185 4.27588e-11 -1.49087e-16)
(0.00470184 3.59565e-11 -9.12046e-17)
(0.00470184 2.89601e-11 -1.06553e-16)
(0.00470183 2.16017e-11 -9.77158e-17)
(0.00470183 1.42075e-11 -1.12668e-16)
(0.00470183 6.10642e-12 -1.54683e-16)
(0.00470182 -1.74161e-12 -1.00164e-16)
(0.00470182 -1.15113e-11 -1.08498e-16)
(0.00470183 -1.96173e-11 -9.52726e-17)
(0.00470183 -3.32619e-11 -1.10135e-16)
(0.00470183 -3.93224e-11 -1.56104e-16)
(0.00470184 -6.17543e-11 -8.7529e-17)
(0.00470184 -5.52133e-11 -1.13607e-16)
(0.00470186 -9.9742e-11 -1.07352e-16)
(0.00470186 -4.48904e-11 -1.21144e-16)
(0.00470188 -1.48489e-10 -1.62408e-16)
(0.00470188 5.64597e-11 -1.41694e-16)
(0.0047019 -1.83276e-10 1.6864e-17)
(0.00470189 3.69567e-10 -9.4713e-17)
(0.00470187 -1.41071e-13 -1.01552e-16)
(0.00470185 7.61721e-10 -9.34908e-17)
(0.00470172 9.80774e-10 -8.07477e-17)
(0.00470167 -3.44397e-10 1.5712e-16)
(0.00470168 -6.82885e-11 -6.2112e-17)
(0.00470169 -1.52415e-10 -7.51218e-17)
(0.0047017 8.41278e-12 -7.07184e-17)
(0.00470171 -2.31976e-10 -6.24617e-17)
(0.00470173 -1.32648e-10 6.73281e-17)
(0.00470175 -8.59512e-11 -5.39286e-17)
(0.00470176 -5.44047e-11 7.49104e-17)
(0.00470176 -1.83311e-11 -1.05624e-16)
(0.00470177 2.67161e-12 -3.56222e-17)
(0.00470177 1.55371e-11 1.23486e-16)
(0.00470177 2.04812e-11 -3.92814e-17)
(0.00470177 1.8003e-11 9.39348e-17)
(0.00470177 9.36841e-12 -1.04318e-16)
(0.00470177 -4.1964e-12 -2.53221e-17)
(0.00470178 -2.1232e-11 1.01989e-16)
(0.00470178 -4.01858e-11 -2.65471e-17)
(0.0047018 -5.9601e-11 1.17191e-16)
(0.00470181 -7.82088e-11 -4.13858e-17)
(0.00470183 -9.50313e-11 -4.53313e-18)
(0.00470185 -1.09421e-10 1.36487e-16)
(0.00470187 -1.20994e-10 -1.48434e-17)
(0.00470189 -1.29629e-10 1.25334e-16)
(0.00470192 -1.35439e-10 -5.9679e-17)
(0.00470194 -1.38617e-10 1.02118e-17)
(0.00470197 -1.39528e-10 2.40598e-16)
(0.00470199 -1.38497e-10 7.63956e-18)
(0.00470202 -1.36027e-10 1.74643e-16)
(0.00470204 -1.32301e-10 -3.66538e-17)
(0.00470207 -1.28091e-10 5.09386e-18)
(0.00470209 -1.22976e-10 1.79161e-16)
(0.00470211 -1.1852e-10 8.79215e-18)
(0.00470213 -1.12425e-10 2.05917e-16)
(0.00470215 -1.09111e-10 -3.92826e-17)
(0.00470217 -1.00416e-10 -2.47857e-16)
(0.00470219 -9.99875e-11 -5.07127e-17)
(0.00470221 -8.30582e-11 1.35413e-17)
(0.00470223 -8.78228e-11 -1.93366e-16)
(0.00470224 -5.45003e-11 -3.82631e-17)
(0.00470226 -6.59058e-11 -2.31687e-16)
(0.00470227 -3.73768e-11 -2.86858e-17)
(0.00470228 -1.10674e-10 1.19745e-17)
(0.0047023 -1.85591e-10 -2.98611e-16)
(0.00470233 -1.86058e-10 -9.29161e-17)
(0.00470236 -2.46392e-10 -2.53445e-16)
(0.00470239 -1.81387e-10 -1.39415e-16)
(0.00470241 -1.62177e-10 -1.96081e-17)
(0.00470243 -1.4578e-10 -3.01835e-16)
(0.00470245 -1.45438e-10 -1.14184e-16)
(0.00470247 -1.23847e-10 -2.87171e-16)
(0.00470249 -1.52268e-10 -7.08658e-17)
(0.0047025 -8.56056e-11 -1.46328e-18)
(0.00470252 -1.68043e-10 -1.89917e-16)
(0.00470252 4.43569e-11 -1.05369e-16)
(0.00470253 -1.57672e-10 -3.24914e-16)
(0.00470251 3.79467e-10 -1.327e-16)
(0.00470248 8.99406e-11 -2.43272e-17)
(0.00470244 7.51062e-10 -2.1427e-16)
(0.00470229 1.12702e-09 -1.51802e-16)
(0.00470222 -4.62582e-10 -2.74634e-16)
(0.00470224 -2.00514e-10 -9.99994e-17)
(0.00470224 -1.65641e-10 -1.12357e-17)
(0.00470225 -1.84067e-10 -2.92164e-16)
(0.00470226 -6.89377e-11 -6.88225e-17)
(0.00470226 -6.14809e-11 -2.1185e-16)
(0.00470225 3.55374e-11 -2.10464e-16)
(0.00470225 -7.75811e-11 -2.46879e-17)
(0.00470223 1.61339e-10 -1.86372e-16)
(0.00470224 -2.84734e-10 -6.65008e-17)
(0.00470219 5.53629e-10 -1.8617e-16)
(0.00470226 -9.21946e-10 -2.03766e-16)
(0.00470212 2.13349e-09 -2.18828e-17)
(0.00470223 -2.53082e-09 -2.21562e-16)
(0.00470203 8.84029e-09 -1.13027e-16)
(0.0141875 7.46107e-08 -4.29685e-17)
(0.0141868 -4.28748e-08 -4.26649e-17)
(0.0141883 -3.61039e-08 -3.15775e-17)
(0.0141888 -1.89356e-08 -2.41237e-16)
(0.0141893 -1.42863e-08 -8.62418e-16)
(0.0141896 -8.26973e-09 -2.71214e-16)
(0.0141898 -4.70188e-09 -8.26243e-16)
(0.0141899 -2.46777e-09 -2.59708e-16)
(0.0141899 -9.61666e-10 -1.49505e-16)
(0.0141899 -4.79346e-11 -9.50359e-16)
(0.0141899 5.09842e-10 -2.16479e-16)
(0.0141899 8.44541e-10 -1.89369e-16)
(0.0141899 1.04344e-09 -1.87566e-16)
(0.0141898 1.16084e-09 -2.44033e-16)
(0.0141898 1.22597e-09 -3.60106e-16)
(0.0141898 1.25455e-09 -2.09563e-16)
(0.0141898 1.25528e-09 -2.32732e-16)
(0.0141897 1.23409e-09 -2.303e-16)
(0.0141897 1.19527e-09 -2.94148e-16)
(0.0141897 1.14202e-09 -3.90489e-16)
(0.0141896 1.07659e-09 -2.38582e-16)
(0.0141896 1.00058e-09 -3.33478e-16)
(0.0141896 9.15773e-10 -2.99136e-16)
(0.0141895 8.2396e-10 -3.45713e-16)
(0.0141895 7.27158e-10 -4.56977e-16)
(0.0141895 6.26994e-10 -2.64853e-16)
(0.0141895 5.2477e-10 -3.16395e-16)
(0.0141895 4.20622e-10 -2.948e-16)
(0.0141895 3.14189e-10 -3.45754e-16)
(0.0141895 2.03108e-10 -4.65844e-16)
(0.0141894 8.65904e-11 -2.92261e-16)
(0.0141894 -4.09362e-11 -3.298e-16)
(0.0141894 -1.76661e-10 -2.89027e-16)
(0.0141895 -3.32593e-10 -3.31469e-16)
(0.0141895 -4.88766e-10 -4.74428e-16)
(0.0141895 -6.808e-10 -2.64667e-16)
(0.0141895 -8.24692e-10 -3.44576e-16)
(0.0141895 -1.05359e-09 -3.24938e-16)
(0.0141895 -1.03376e-09 -3.65941e-16)
(0.0141896 -1.30998e-09 -4.87203e-16)
(0.0141896 -5.61203e-10 -4.2537e-16)
(0.0141896 -9.89066e-10 -3.08437e-16)
(0.0141896 2.11571e-09 -2.91895e-16)
(0.0141896 1.53219e-09 -3.0582e-16)
(0.0141895 7.77229e-09 -2.82953e-16)
(0.0141892 9.98329e-09 -2.43859e-16)
(0.0141891 9.31514e-10 -1.49742e-16)
(0.0141891 -7.55209e-10 -1.95849e-16)
(0.0141891 -1.01445e-09 -2.26217e-16)
(0.0141891 -4.71277e-10 -2.13789e-16)
(0.0141891 -1.93135e-09 -1.87762e-16)
(0.0141892 -1.8045e-09 -1.48097e-16)
(0.0141892 -1.27375e-09 -1.68225e-16)
(0.0141892 -8.71434e-10 -1.21719e-16)
(0.0141893 -4.70071e-10 -2.56405e-16)
(0.0141893 -1.92904e-10 -1.05749e-16)
(0.0141893 -4.21833e-11 -5.83637e-17)
(0.0141893 -8.1965e-12 -1.26101e-16)
(0.0141893 -8.39361e-11 -7.70737e-17)
(0.0141893 -2.52182e-10 -4.12377e-16)
(0.0141893 -4.9193e-10 -7.5077e-17)
(0.0141893 -7.79398e-10 -4.31886e-17)
(0.0141894 -1.09007e-09 -8.47363e-17)
(0.0141894 -1.40141e-09 -2.67384e-17)
(0.0141894 -1.69455e-09 -3.00541e-16)
(0.0141895 -1.95541e-09 -9.01926e-18)
(0.0141896 -2.17482e-09 1.01566e-17)
(0.0141896 -2.34825e-09 -5.1715e-17)
(0.0141897 -2.47501e-09 2.18366e-17)
(0.0141898 -2.55747e-09 -1.15303e-16)
(0.0141898 -2.60002e-09 3.11771e-17)
(0.0141899 -2.60856e-09 1.00296e-16)
(0.01419 -2.5894e-09 1.70333e-17)
(0.0141901 -2.54927e-09 9.88544e-17)
(0.0141901 -2.49401e-09 -2.21019e-16)
(0.0141902 -2.4295e-09 2.62226e-17)
(0.0141903 -2.35884e-09 9.378e-17)
(0.0141904 -2.28698e-09 1.69051e-17)
(0.0141904 -2.21077e-09 1.33166e-16)
(0.0141905 -2.13783e-09 -2.23313e-16)
(0.0141905 -2.04772e-09 -1.291e-16)
(0.0141906 -1.96871e-09 -3.1432e-17)
(0.0141907 -1.8236e-09 4.08824e-17)
(0.0141907 -1.72428e-09 -1.91301e-16)
(0.0141908 -1.45197e-09 -9.35209e-17)
(0.0141908 -1.33459e-09 -2.39072e-16)
(0.0141908 -1.13025e-09 -2.28256e-16)
(0.0141909 -1.68736e-09 3.8656e-17)
(0.0141909 -2.42062e-09 -2.40852e-16)
(0.014191 -2.75605e-09 -3.65295e-16)
(0.0141911 -3.1868e-09 -1.98495e-16)
(0.0141912 -2.80925e-09 -4.65461e-16)
(0.0141912 -2.42239e-09 -5.93493e-17)
(0.0141913 -2.15553e-09 -2.62558e-16)
(0.0141913 -1.94899e-09 -2.14478e-16)
(0.0141914 -1.74349e-09 -2.52103e-16)
(0.0141914 -1.63885e-09 -9.08187e-17)
(0.0141915 -1.28675e-09 7.62829e-19)
(0.0141915 -1.20285e-09 -2.18967e-16)
(0.0141915 -9.67341e-11 -2.30223e-16)
(0.0141915 -1.02977e-10 -3.20702e-16)
(0.0141915 3.31091e-09 -4.29755e-16)
(0.0141914 3.26066e-09 -7.23054e-17)
(0.0141913 9.35194e-09 -2.63556e-16)
(0.0141909 1.23322e-08 -4.83171e-16)
(0.0141907 1.54185e-09 -3.41598e-16)
(0.0141907 -7.04718e-10 -1.61895e-16)
(0.0141907 -5.98512e-10 -3.30053e-17)
(0.0141907 -7.23965e-10 -2.5564e-16)
(0.0141907 -3.68729e-11 -1.81277e-16)
(0.0141907 4.58179e-10 -2.39904e-16)
(0.0141906 8.68423e-10 -2.82232e-16)
(0.0141906 8.19684e-10 -6.87707e-17)
(0.0141906 1.1106e-09 -2.04306e-16)
(0.0141906 2.92673e-10 -1.96851e-16)
(0.0141905 1.70289e-09 -1.9997e-16)
(0.0141906 -9.65688e-10 -2.59454e-16)
(0.0141903 8.98911e-09 -6.01372e-17)
(0.0141905 -5.56707e-09 -2.32946e-16)
(0.01419 7.35125e-08 -4.51137e-16)
(0.0238599 1.8553e-07 -4.7031e-17)
(0.0238587 -7.64099e-08 -8.15813e-17)
(0.0238604 -9.11264e-08 -5.72538e-17)
(0.0238613 -5.38014e-08 -4.49726e-16)
(0.0238619 -3.9078e-08 -6.96262e-16)
(0.0238624 -2.39127e-08 -3.98528e-16)
(0.0238627 -1.39819e-08 -6.53249e-16)
(0.0238628 -7.65259e-09 -3.64059e-16)
(0.0238629 -3.38379e-09 -2.69541e-16)
(0.0238629 -7.02839e-10 -6.01337e-16)
(0.0238629 9.73464e-10 -3.00794e-16)
(0.0238629 2.01659e-09 -3.28325e-16)
(0.0238629 2.66708e-09 -3.1551e-16)
(0.0238629 3.07435e-09 -4.193e-16)
(0.0238628 3.32109e-09 -6.01419e-16)
(0.0238628 3.45273e-09 -3.4911e-16)
(0.0238627 3.49574e-09 -4.03462e-16)
(0.0238627 3.46828e-09 -3.92546e-16)
(0.0238626 3.38368e-09 -5.04683e-16)
(0.0238626 3.25192e-09 -6.47172e-16)
(0.0238625 3.08019e-09 -3.73981e-16)
(0.0238625 2.8744e-09 -5.68243e-16)
(0.0238624 2.64057e-09 -4.9671e-16)
(0.0238624 2.38516e-09 -5.96856e-16)
(0.0238624 2.11493e-09 -8.00644e-16)
(0.0238623 1.83546e-09 -3.99156e-16)
(0.0238623 1.55068e-09 -5.23724e-16)
(0.0238623 1.26128e-09 -4.92091e-16)
(0.0238623 9.65447e-10 -6.1297e-16)
(0.0238622 6.57783e-10 -7.85821e-16)
(0.0238622 3.33117e-10 -4.41837e-16)
(0.0238622 -1.86299e-11 -5.60929e-16)
(0.0238622 -3.99554e-10 -4.87362e-16)
(0.0238622 -8.24391e-10 -5.62252e-16)
(0.0238623 -1.27265e-09 -8.23312e-16)
(0.0238623 -1.77983e-09 -4.39865e-16)
(0.0238623 -2.23406e-09 -5.88333e-16)
(0.0238623 -2.78756e-09 -5.4601e-16)
(0.0238624 -2.92453e-09 -6.21267e-16)
(0.0238624 -3.43133e-09 -8.17009e-16)
(0.0238625 -1.96804e-09 -7.00251e-16)
(0.0238625 -2.40803e-09 -6.45063e-16)
(0.0238625 4.58422e-09 -4.95757e-16)
(0.0238624 4.44428e-09 -5.14331e-16)
(0.0238623 1.96035e-08 -4.74283e-16)
(0.0238619 2.57946e-08 -4.07359e-16)
(0.0238617 5.39766e-09 -4.32842e-16)
(0.0238617 -9.79014e-10 -3.41706e-16)
(0.0238617 -2.23972e-09 -3.81911e-16)
(0.0238617 -1.30286e-09 -3.57955e-16)
(0.0238617 -4.66339e-09 -3.12401e-16)
(0.0238618 -4.7704e-09 -3.73564e-16)
(0.0238619 -3.56682e-09 -2.88594e-16)
(0.0238619 -2.49713e-09 -3.27028e-16)
(0.0238619 -1.45795e-09 -1.12816e-16)
(0.023862 -7.22647e-10 -1.50941e-16)
(0.023862 -3.35113e-10 -2.78175e-16)
(0.023862 -2.79224e-10 -2.19968e-16)
(0.023862 -5.33332e-10 -2.64045e-16)
(0.023862 -1.04912e-09 -7.90627e-17)
(0.023862 -1.765e-09 -9.60286e-17)
(0.0238621 -2.61129e-09 -2.02781e-16)
(0.0238621 -3.51739e-09 -1.47739e-16)
(0.0238622 -4.41869e-09 -1.89676e-16)
(0.0238623 -5.26182e-09 8.19965e-17)
(0.0238624 -6.00737e-09 6.30568e-19)
(0.0238625 -6.63009e-09 -1.4234e-16)
(0.0238626 -7.11827e-09 -9.46002e-17)
(0.0238627 -7.47098e-09 -9.96078e-17)
(0.0238628 -7.69593e-09 1.03643e-16)
(0.0238629 -7.80675e-09 7.36761e-17)
(0.0238631 -7.82083e-09 -8.31711e-18)
(0.0238632 -7.75705e-09 2.18345e-17)
(0.0238633 -7.63468e-09 -1.65096e-17)
(0.0238634 -7.47116e-09 1.61965e-16)
(0.0238636 -7.28229e-09 7.66521e-17)
(0.0238637 -7.0787e-09 -3.80635e-17)
(0.0238638 -6.87038e-09 1.41315e-17)
(0.0238639 -6.65474e-09 1.06274e-17)
(0.023864 -6.44048e-09 3.71972e-16)
(0.0238641 -6.19256e-09 -4.46698e-17)
(0.0238642 -5.94936e-09 2.90816e-16)
(0.0238643 -5.56632e-09 8.96049e-17)
(0.0238644 -5.23844e-09 -1.89122e-16)
(0.0238645 -4.53659e-09 8.45154e-17)
(0.0238645 -4.11413e-09 -1.97441e-16)
(0.0238646 -3.57342e-09 3.03697e-16)
(0.0238647 -4.83611e-09 7.53971e-17)
(0.0238648 -6.66721e-09 -2.30292e-16)
(0.0238649 -7.68715e-09 1.48589e-16)
(0.023865 -8.75752e-09 -1.91135e-16)
(0.0238651 -7.94599e-09 -1.21234e-16)
(0.0238652 -6.88714e-09 -6.62796e-17)
(0.0238653 -6.08162e-09 -2.78689e-16)
(0.0238654 -5.41017e-09 -8.22517e-17)
(0.0238655 -4.79275e-09 -2.365e-16)
(0.0238655 -4.3159e-09 7.66991e-17)
(0.0238656 -3.41034e-09 3.12956e-17)
(0.0238656 -2.81646e-09 -2.59254e-16)
(0.0238657 -2.2077e-10 7.74592e-17)
(0.0238657 5.68522e-10 -3.28951e-16)
(0.0238656 8.62248e-09 1.96717e-16)
(0.0238654 9.88499e-09 -8.82939e-17)
(0.0238653 2.50767e-08 -3.12689e-16)
(0.0238647 3.30052e-08 -3.32758e-17)
(0.0238644 8.69997e-09 -3.45682e-16)
(0.0238643 6.69922e-10 1.08894e-16)
(0.0238643 -1.13213e-10 -2.6479e-17)
(0.0238642 -5.09235e-10 -2.81316e-16)
(0.0238642 9.34694e-10 1.69182e-16)
(0.0238642 2.2558e-09 -2.43779e-16)
(0.0238641 3.15249e-09 -3.47014e-16)
(0.0238641 3.29037e-09 -9.31563e-17)
(0.023864 3.41927e-09 -2.25133e-16)
(0.023864 2.24191e-09 1.10417e-17)
(0.0238638 3.78784e-09 -2.06365e-16)
(0.023864 3.57652e-10 -3.10345e-16)
(0.0238635 1.90638e-08 -7.9275e-17)
(0.0238638 -6.11182e-09 -2.28169e-16)
(0.0238631 1.72353e-07 -9.37355e-17)
(0.0336593 3.22597e-07 -5.69131e-17)
(0.0336577 -9.56575e-08 -1.32214e-16)
(0.0336591 -1.5433e-07 -9.17703e-17)
(0.0336602 -1.01925e-07 -9.61061e-16)
(0.033661 -7.37064e-08 -6.58694e-16)
(0.0336615 -4.66895e-08 -4.62863e-16)
(0.0336619 -2.80356e-08 -5.50405e-16)
(0.0336621 -1.58444e-08 -4.0548e-16)
(0.0336623 -7.58478e-09 -4.05118e-16)
(0.0336623 -2.27181e-09 -5.26769e-16)
(0.0336623 1.11993e-09 -3.34285e-16)
(0.0336623 3.28684e-09 -4.83266e-16)
(0.0336623 4.68381e-09 -4.42318e-16)
(0.0336623 5.59253e-09 -6.23406e-16)
(0.0336622 6.17211e-09 -7.88724e-16)
(0.0336621 6.51173e-09 -5.05434e-16)
(0.0336621 6.66466e-09 -6.12311e-16)
(0.033662 6.66779e-09 -5.63631e-16)
(0.0336619 6.54869e-09 -7.47456e-16)
(0.0336619 6.32769e-09 -1.03467e-15)
(0.0336618 6.02004e-09 -3.82018e-16)
(0.0336618 5.63879e-09 -9.94275e-16)
(0.0336617 5.19739e-09 -6.78799e-16)
(0.0336617 4.71049e-09 -8.24486e-16)
(0.0336616 4.19315e-09 -1.09909e-15)
(0.0336616 3.65781e-09 -5.79755e-16)
(0.0336615 3.1127e-09 -8.97113e-16)
(0.0336615 2.55958e-09 -6.80157e-16)
(0.0336615 1.99407e-09 -8.48018e-16)
(0.0336615 1.40655e-09 -1.12193e-15)
(0.0336614 7.84987e-10 -6.22694e-16)
(0.0336614 1.14022e-10 -7.79461e-16)
(0.0336614 -6.17434e-10 -6.82238e-16)
(0.0336614 -1.42359e-09 -8.1828e-16)
(0.0336614 -2.29179e-09 -1.12841e-15)
(0.0336615 -3.24234e-09 -6.06083e-16)
(0.0336615 -4.15719e-09 -8.20538e-16)
(0.0336616 -5.15602e-09 -7.58458e-16)
(0.0336616 -5.5942e-09 -9.01352e-16)
(0.0336617 -6.35983e-09 -1.15669e-15)
(0.0336617 -4.17547e-09 -9.41816e-16)
(0.0336618 -4.35303e-09 -9.85223e-16)
(0.0336618 7.23107e-09 -6.80352e-16)
(0.0336617 8.45295e-09 -7.29542e-16)
(0.0336616 3.48136e-08 -6.59151e-16)
(0.0336611 4.66729e-08 -5.68434e-16)
(0.0336608 1.35739e-08 -7.3608e-16)
(0.0336607 1.21039e-10 -4.7756e-16)
(0.0336607 -3.31073e-09 -5.4881e-16)
(0.0336607 -2.28307e-09 -4.96811e-16)
(0.0336608 -7.9761e-09 -4.34515e-16)
(0.0336608 -8.65677e-09 -6.16447e-16)
(0.0336609 -6.78985e-09 -3.97e-16)
(0.033661 -4.86941e-09 -5.36713e-16)
(0.033661 -3.00515e-09 -2.25864e-16)
(0.033661 -1.6743e-09 -2.24221e-16)
(0.0336611 -9.99645e-10 -5.01335e-16)
(0.0336611 -9.69375e-10 -3.02131e-16)
(0.0336611 -1.5404e-09 -4.61558e-16)
(0.0336611 -2.61777e-09 -1.62157e-16)
(0.0336612 -4.07782e-09 -1.38374e-16)
(0.0336612 -5.78136e-09 -3.81694e-16)
(0.0336613 -7.5887e-09 -1.98916e-16)
(0.0336614 -9.37335e-09 -3.5409e-16)
(0.0336615 -1.10319e-08 -2.56792e-17)
(0.0336617 -1.2489e-08 -2.63329e-17)
(0.0336618 -1.36974e-08 -3.08633e-16)
(0.033662 -1.46364e-08 -1.27836e-16)
(0.0336622 -1.53062e-08 -2.37987e-16)
(0.0336623 -1.5724e-08 4.05551e-17)
(0.0336625 -1.59179e-08 7.68519e-17)
(0.0336627 -1.59235e-08 -1.22074e-16)
(0.0336628 -1.57788e-08 4.01583e-17)
(0.033663 -1.55222e-08 -1.31411e-16)
(0.0336632 -1.51885e-08 1.15982e-16)
(0.0336634 -1.4808e-08 8.41031e-17)
(0.0336635 -1.44025e-08 -1.70166e-16)
(0.0336637 -1.39884e-08 1.85345e-17)
(0.0336638 -1.35652e-08 -8.75342e-17)
(0.033664 -1.3139e-08 2.10792e-16)
(0.0336641 -1.26606e-08 -9.95942e-18)
(0.0336642 -1.21682e-08 9.97741e-17)
(0.0336644 -1.14483e-08 6.68257e-17)
(0.0336645 -1.07647e-08 -2.04108e-16)
(0.0336646 -9.47013e-09 -1.49226e-17)
(0.0336647 -8.55425e-09 -2.18299e-16)
(0.0336648 -7.5217e-09 8.73223e-17)
(0.0336649 -9.55774e-09 5.54981e-17)
(0.033665 -1.27522e-08 -2.58031e-16)
(0.0336651 -1.47537e-08 -7.8696e-17)
(0.0336653 -1.66649e-08 -2.25016e-16)
(0.0336655 -1.53864e-08 -1.65337e-16)
(0.0336656 -1.34194e-08 -8.03582e-17)
(0.0336657 -1.1786e-08 -3.30124e-16)
(0.0336659 -1.03626e-08 -1.34775e-16)
(0.0336659 -9.06733e-09 -2.67671e-16)
(0.033666 -7.91927e-09 7.7564e-17)
(0.0336661 -6.16898e-09 1.20926e-17)
(0.0336661 -4.64545e-09 -3.08877e-16)
(0.0336661 -8.17296e-11 -1.56526e-16)
(0.0336661 2.23758e-09 -3.89162e-16)
(0.033666 1.61143e-08 -1.62114e-16)
(0.0336659 2.00246e-08 -1.32313e-16)
(0.0336656 4.69608e-08 -3.77658e-16)
(0.033665 6.17841e-08 -2.98411e-16)
(0.0336645 2.23305e-08 -4.10157e-16)
(0.0336643 5.70071e-09 -9.97727e-17)
(0.0336642 2.56129e-09 -7.47947e-17)
(0.0336641 1.50942e-09 -3.36765e-16)
(0.0336641 3.65835e-09 -1.2113e-16)
(0.033664 5.96787e-09 -3.15863e-16)
(0.0336639 7.41886e-09 -4.01221e-16)
(0.0336638 7.81755e-09 -7.18624e-17)
(0.0336637 7.49719e-09 -2.61275e-16)
(0.0336636 6.00207e-09 -1.00687e-16)
(0.0336634 6.97723e-09 -2.73833e-16)
(0.0336636 3.56673e-09 -3.59058e-16)
(0.0336631 3.07432e-08 -5.72211e-17)
(0.0336634 -1.79564e-09 -2.62328e-16)
(0.0336625 2.87697e-07 -1.72869e-16)
(0.0433824 4.6687e-07 -5.31237e-17)
(0.0433806 -9.57107e-08 -2.05044e-16)
(0.0433816 -2.11213e-07 -1.4541e-16)
(0.0433826 -1.55818e-07 -6.45121e-16)
(0.0433834 -1.14781e-07 -5.50975e-16)
(0.0433841 -7.49616e-08 -5.94538e-16)
(0.0433845 -4.6286e-08 -4.77597e-16)
(0.0433848 -2.6992e-08 -3.98467e-16)
(0.043385 -1.37892e-08 -4.16391e-16)
(0.0433851 -5.11148e-09 -5.03002e-16)
(0.0433851 5.48301e-10 -3.31167e-16)
(0.0433851 4.25473e-09 -6.7845e-16)
(0.0433851 6.71501e-09 -5.52433e-16)
(0.043385 8.36827e-09 -8.83208e-16)
(0.043385 9.46686e-09 -9.58849e-16)
(0.0433849 1.01548e-08 -5.88675e-16)
(0.0433848 1.05198e-08 -8.98521e-16)
(0.0433848 1.06232e-08 -7.36467e-16)
(0.0433847 1.05113e-08 -1.05366e-15)
(0.0433846 1.02184e-08 -1.06707e-15)
(0.0433845 9.77073e-09 -6.05278e-16)
(0.0433845 9.19139e-09 -8.3772e-16)
(0.0433844 8.50465e-09 -8.03686e-16)
(0.0433843 7.73747e-09 -7.53046e-16)
(0.0433843 6.9171e-09 -1.07756e-15)
(0.0433842 6.06643e-09 -5.77008e-16)
(0.0433842 5.19991e-09 -6.66111e-16)
(0.0433841 4.32104e-09 -8.38718e-16)
(0.0433841 3.42217e-09 -8.1683e-16)
(0.0433841 2.48807e-09 -1.08986e-15)
(0.0433841 1.4984e-09 -6.36484e-16)
(0.043384 4.31105e-10 -7.26284e-16)
(0.043384 -7.34875e-10 -8.41502e-16)
(0.043384 -2.01446e-09 -7.77571e-16)
(0.0433841 -3.40266e-09 -1.1324e-15)
(0.0433841 -4.90572e-09 -6.50753e-16)
(0.0433841 -6.39655e-09 -7.80828e-16)
(0.0433842 -7.95877e-09 -9.33997e-16)
(0.0433842 -8.80935e-09 -8.74721e-16)
(0.0433843 -9.90956e-09 -1.15577e-15)
(0.0433843 -7.03199e-09 -1.10717e-15)
(0.0433844 -6.80065e-09 -9.81999e-16)
(0.0433844 9.68974e-09 -7.88617e-16)
(0.0433844 1.30344e-08 -9.5415e-16)
(0.0433842 5.18383e-08 -8.16182e-16)
(0.0433837 7.06644e-08 -7.24716e-16)
(0.0433834 2.5155e-08 -7.20441e-16)
(0.0433833 3.29846e-09 -5.51044e-16)
(0.0433832 -3.61338e-09 -7.44517e-16)
(0.0433832 -3.02654e-09 -6.12148e-16)
(0.0433833 -1.13788e-08 -5.54964e-16)
(0.0433833 -1.29565e-08 -5.39848e-16)
(0.0433834 -1.06237e-08 -4.49008e-16)
(0.0433835 -7.8318e-09 -4.07501e-16)
(0.0433835 -5.07786e-09 -4.24817e-16)
(0.0433836 -3.10978e-09 -3.26484e-16)
(0.0433836 -2.16663e-09 -4.18476e-16)
(0.0433836 -2.25847e-09 -3.30798e-16)
(0.0433836 -3.31601e-09 -3.41671e-16)
(0.0433837 -5.18298e-09 -3.30905e-16)
(0.0433838 -7.65344e-09 -2.05782e-16)
(0.0433838 -1.04972e-08 -2.41829e-16)
(0.043384 -1.34855e-08 -1.97202e-16)
(0.0433841 -1.64136e-08 -1.91814e-16)
(0.0433842 -1.9116e-08 -1.912e-16)
(0.0433844 -2.14738e-08 -8.95802e-17)
(0.0433846 -2.34146e-08 -1.79084e-16)
(0.0433848 -2.49081e-08 -1.13591e-16)
(0.043385 -2.59588e-08 -6.52186e-17)
(0.0433852 -2.65973e-08 -6.4191e-17)
(0.0433855 -2.68722e-08 3.59936e-17)
(0.0433857 -2.68432e-08 7.70815e-17)
(0.0433859 -2.65741e-08 1.11274e-16)
(0.0433861 -2.6128e-08 6.8481e-17)
(0.0433863 -2.55624e-08 -1.78763e-18)
(0.0433865 -2.4926e-08 6.07747e-17)
(0.0433867 -2.42547e-08 2.52728e-17)
(0.0433869 -2.35727e-08 7.3002e-17)
(0.0433871 -2.28815e-08 1.41021e-16)
(0.0433873 -2.21832e-08 2.51149e-16)
(0.0433875 -2.14112e-08 3.11882e-16)
(0.0433876 -2.05986e-08 -6.73928e-17)
(0.0433878 -1.94582e-08 2.52766e-17)
(0.043388 -1.83122e-08 8.27396e-17)
(0.0433881 -1.62908e-08 -1.21857e-16)
(0.0433882 -1.47152e-08 1.20385e-16)
(0.0433884 -1.30373e-08 -2.49688e-16)
(0.0433885 -1.57816e-08 1.48864e-17)
(0.0433886 -2.04194e-08 7.93873e-18)
(0.0433888 -2.35811e-08 -1.04316e-16)
(0.0433889 -2.64706e-08 4.90623e-17)
(0.0433891 -2.47472e-08 -8.89401e-17)
(0.0433893 -2.17342e-08 -9.78312e-17)
(0.0433895 -1.90186e-08 -7.95487e-17)
(0.0433896 -1.65612e-08 -2.51818e-16)
(0.0433897 -1.42893e-08 1.35175e-17)
(0.0433898 -1.21532e-08 3.87491e-17)
(0.0433899 -9.21511e-09 -2.53837e-17)
(0.0433899 -6.36499e-09 -4.92393e-17)
(0.0433899 6.22512e-10 -2.61856e-16)
(0.0433899 5.10252e-09 -1.26807e-16)
(0.0433898 2.55898e-08 -1.98942e-16)
(0.0433895 3.33427e-08 -1.81539e-16)
(0.0433892 7.36592e-08 -1.33249e-16)
(0.0433885 9.69286e-08 -3.68311e-16)
(0.0433879 4.26566e-08 -1.71851e-16)
(0.0433876 1.5865e-08 -3.56446e-16)
(0.0433875 8.74187e-09 -1.32395e-16)
(0.0433873 6.37771e-09 -9.22348e-17)
(0.0433872 8.94664e-09 -3.33848e-16)
(0.0433871 1.21562e-08 -1.04277e-16)
(0.043387 1.41402e-08 -7.44081e-17)
(0.0433868 1.47049e-08 2.9173e-17)
(0.0433867 1.37705e-08 7.04494e-18)
(0.0433866 1.16803e-08 -1.67385e-16)
(0.0433864 1.17906e-08 -5.72894e-17)
(0.0433865 8.31885e-09 -4.76795e-17)
(0.043386 4.36381e-08 3.56059e-17)
(0.0433862 7.17555e-09 3.66007e-18)
(0.0433853 4.03958e-07 -1.53795e-16)
(0.0526438 6.04209e-07 -5.20532e-18)
(0.0526419 -7.88235e-08 -4.14755e-16)
(0.0526425 -2.53008e-07 -1.88463e-16)
(0.0526433 -2.07093e-07 -3.70779e-16)
(0.0526441 -1.57787e-07 -4.01997e-16)
(0.0526448 -1.06437e-07 -3.90364e-16)
(0.0526452 -6.77152e-08 -3.9907e-16)
(0.0526456 -4.07926e-08 -3.66151e-16)
(0.0526458 -2.20705e-08 -4.43342e-16)
(0.0526459 -9.48913e-09 -4.53019e-16)
(0.0526459 -1.09083e-09 -3.15246e-16)
(0.052646 4.55075e-09 -6.20837e-16)
(0.0526459 8.40165e-09 -6.0326e-16)
(0.0526459 1.10679e-08 -8.92775e-16)
(0.0526459 1.29035e-08 -1.01899e-15)
(0.0526458 1.41141e-08 -6.00313e-16)
(0.0526457 1.48274e-08 -9.65298e-16)
(0.0526456 1.51339e-08 -8.69679e-16)
(0.0526456 1.51025e-08 -1.13764e-15)
(0.0526455 1.47848e-08 -1.16023e-15)
(0.0526454 1.42211e-08 -9.49737e-16)
(0.0526453 1.34476e-08 -9.27591e-16)
(0.0526452 1.25026e-08 -8.88071e-16)
(0.0526451 1.14292e-08 -9.71111e-16)
(0.0526451 1.02709e-08 -1.0593e-15)
(0.052645 9.06448e-09 -8.65259e-16)
(0.052645 7.83332e-09 -9.73168e-16)
(0.0526449 6.58349e-09 -1.02122e-15)
(0.0526449 5.30396e-09 -1.06686e-15)
(0.0526448 3.9728e-09 -1.11682e-15)
(0.0526448 2.56057e-09 -9.25295e-16)
(0.0526448 1.0374e-09 -1.03746e-15)
(0.0526448 -6.2722e-10 -1.0314e-15)
(0.0526448 -2.45163e-09 -1.07486e-15)
(0.0526448 -4.43566e-09 -1.14532e-15)
(0.0526448 -6.57786e-09 -9.2675e-16)
(0.0526448 -8.73231e-09 -1.12114e-15)
(0.0526449 -1.09605e-08 -1.13545e-15)
(0.052645 -1.23155e-08 -1.17966e-15)
(0.052645 -1.38458e-08 -1.22214e-15)
(0.0526451 -1.03476e-08 -1.21082e-15)
(0.0526452 -9.67224e-09 -9.95471e-16)
(0.0526452 1.17384e-08 -8.61244e-16)
(0.0526451 1.76969e-08 -8.05126e-16)
(0.052645 6.94259e-08 -8.92949e-16)
(0.0526445 9.60874e-08 -8.61675e-16)
(0.0526441 3.93373e-08 -5.75572e-16)
(0.052644 8.7824e-09 -5.97613e-16)
(0.0526439 -2.60703e-09 -6.83867e-16)
(0.0526439 -3.09381e-09 -6.59358e-16)
(0.0526439 -1.44014e-08 -6.60162e-16)
(0.052644 -1.7183e-08 -5.1145e-16)
(0.052644 -1.46885e-08 -4.74871e-16)
(0.0526441 -1.11643e-08 -2.14124e-16)
(0.0526442 -7.59027e-09 -2.6997e-16)
(0.0526442 -5.04556e-09 -4.43604e-16)
(0.0526442 -3.92106e-09 -3.66951e-16)
(0.0526443 -4.26724e-09 -3.32472e-16)
(0.0526443 -5.98694e-09 -9.9923e-17)
(0.0526444 -8.85138e-09 -1.51995e-16)
(0.0526445 -1.25569e-08 -2.91632e-16)
(0.0526446 -1.67667e-08 -4.81418e-17)
(0.0526447 -2.11497e-08 -1.67338e-16)
(0.0526449 -2.54129e-08 -7.71017e-17)
(0.0526451 -2.9322e-08 -1.48305e-17)
(0.0526453 -3.27113e-08 -1.62313e-16)
(0.0526455 -3.54822e-08 -8.79145e-17)
(0.0526457 -3.75965e-08 -7.99883e-17)
(0.052646 -3.90653e-08 6.45752e-17)
(0.0526462 -3.99368e-08 1.25331e-16)
(0.0526465 -4.02846e-08 -2.18926e-18)
(0.0526467 -4.01971e-08 1.70795e-16)
(0.052647 -3.97688e-08 1.8826e-16)
(0.0526472 -3.90918e-08 3.71914e-16)
(0.0526474 -3.82498e-08 2.02725e-16)
(0.0526477 -3.73131e-08 5.43195e-17)
(0.0526479 -3.63334e-08 1.39504e-16)
(0.0526481 -3.53434e-08 1.54411e-16)
(0.0526483 -3.4346e-08 4.45339e-16)
(0.0526486 -3.33381e-08 3.21067e-16)
(0.0526488 -3.22325e-08 7.26318e-16)
(0.052649 -3.10542e-08 5.8974e-17)
(0.0526492 -2.94372e-08 6.28604e-17)
(0.0526493 -2.77547e-08 3.51382e-16)
(0.0526495 -2.49129e-08 -1.15698e-16)
(0.0526497 -2.25485e-08 5.08042e-16)
(0.0526498 -2.00888e-08 6.47555e-17)
(0.0526499 -2.33992e-08 1.18751e-17)
(0.0526501 -2.94191e-08 2.56162e-16)
(0.0526503 -3.37985e-08 -1.03959e-16)
(0.0526505 -3.77369e-08 2.8346e-16)
(0.0526507 -3.56207e-08 -6.66691e-17)
(0.0526509 -3.15104e-08 -6.15579e-17)
(0.0526511 -2.7529e-08 1.56963e-16)
(0.0526512 -2.37926e-08 -2.36238e-16)
(0.0526513 -2.0255e-08 3.03228e-16)
(0.0526514 -1.68224e-08 4.59156e-17)
(0.0526515 -1.23551e-08 -2.42909e-17)
(0.0526515 -7.82232e-09 1.9023e-16)
(0.0526515 1.97022e-09 -2.17151e-16)
(0.0526515 9.102e-09 1.38101e-16)
(0.0526514 3.66456e-08 -3.26206e-16)
(0.0526511 4.91314e-08 -1.93477e-16)
(0.0526508 1.03689e-07 1.08681e-16)
(0.05265 1.36515e-07 -6.21646e-16)
(0.0526494 6.88191e-08 2.38352e-16)
(0.052649 3.15218e-08 -3.37156e-16)
(0.0526487 1.9159e-08 -1.43034e-16)
(0.0526486 1.46936e-08 1.14911e-16)
(0.0526484 1.72017e-08 -3.45601e-16)
(0.0526482 2.10176e-08 2.74045e-16)
(0.052648 2.33882e-08 2.512e-16)
(0.0526479 2.39216e-08 1.62396e-16)
(0.0526477 2.22361e-08 2.30212e-16)
(0.0526476 1.91785e-08 -1.552e-16)
(0.0526473 1.82717e-08 1.72045e-16)
(0.0526474 1.43e-08 2.3383e-16)
(0.052647 5.71876e-08 1.50295e-16)
(0.0526472 1.96201e-08 2.44489e-16)
(0.0526462 5.11468e-07 -2.79457e-16)
(0.0610477 7.25694e-07 9.45753e-17)
(0.0610459 -4.99663e-08 -1.22347e-16)
(0.0610462 -2.76933e-07 -1.53263e-16)
(0.0610467 -2.49137e-07 -2.27124e-16)
(0.0610474 -1.97826e-07 -2.87638e-16)
(0.061048 -1.38192e-07 -3.03514e-16)
(0.0610484 -9.07573e-08 -3.1757e-16)
(0.0610488 -5.6536e-08 -3.16293e-16)
(0.061049 -3.22074e-08 -3.67294e-16)
(0.0610491 -1.54577e-08 -4.03172e-16)
(0.0610492 -3.9932e-09 -2.8827e-16)
(0.0610493 3.91606e-09 -7.85749e-16)
(0.0610493 9.46642e-09 -6.20002e-16)
(0.0610492 1.34194e-08 -9.76822e-16)
(0.0610492 1.62275e-08 -1.04638e-15)
(0.0610491 1.81589e-08 -4.73994e-16)
(0.061049 1.93833e-08 -1.15472e-15)
(0.061049 2.00234e-08 -9.76385e-16)
(0.0610489 2.01735e-08 -1.37019e-15)
(0.0610488 1.9906e-08 -1.21308e-15)
(0.0610487 1.92781e-08 -1.17072e-15)
(0.0610486 1.83418e-08 -1.00983e-15)
(0.0610485 1.71528e-08 -9.56518e-16)
(0.0610484 1.57731e-08 -1.1731e-15)
(0.0610484 1.42659e-08 -1.0503e-15)
(0.0610483 1.26851e-08 -1.04836e-15)
(0.0610482 1.10652e-08 -1.39258e-15)
(0.0610482 9.41634e-09 -1.18408e-15)
(0.0610481 7.725e-09 -1.32897e-15)
(0.0610481 5.96221e-09 -1.13828e-15)
(0.061048 4.08927e-09 -1.10492e-15)
(0.061048 2.06791e-09 -1.33148e-15)
(0.061048 -1.41006e-10 -1.20814e-15)
(0.061048 -2.56096e-09 -1.43839e-15)
(0.061048 -5.19503e-09 -1.17258e-15)
(0.061048 -8.03856e-09 -1.12277e-15)
(0.061048 -1.09215e-08 -1.39254e-15)
(0.0610481 -1.38938e-08 -1.31898e-15)
(0.0610481 -1.58345e-08 -1.43161e-15)
(0.0610482 -1.78878e-08 -1.2802e-15)
(0.0610482 -1.38901e-08 -1.27508e-15)
(0.0610483 -1.28261e-08 -9.42097e-16)
(0.0610483 1.32778e-08 -9.24899e-16)
(0.0610483 2.20282e-08 -9.46465e-16)
(0.0610482 8.65641e-08 -9.61896e-16)
(0.0610477 1.2154e-07 -9.62696e-16)
(0.0610473 5.50977e-08 -6.67321e-16)
(0.0610472 1.63183e-08 -6.34538e-16)
(0.0610471 -6.51566e-13 -6.70991e-16)
(0.061047 -2.10069e-09 -6.96129e-16)
(0.061047 -1.66149e-08 -7.39402e-16)
(0.0610471 -2.08939e-08 -4.41096e-16)
(0.0610471 -1.85883e-08 -5.0504e-16)
(0.0610472 -1.45966e-08 -2.4541e-16)
(0.0610473 -1.03995e-08 -2.80328e-16)
(0.0610473 -7.43774e-09 -5.85649e-16)
(0.0610473 -6.27831e-09 -2.84438e-16)
(0.0610474 -7.02641e-09 -3.30779e-16)
(0.0610475 -9.55786e-09 -1.20114e-16)
(0.0610475 -1.35663e-08 -1.20651e-16)
(0.0610476 -1.86438e-08 -4.07955e-16)
(0.0610478 -2.43416e-08 -7.49009e-17)
(0.0610479 -3.02234e-08 -1.61844e-16)
(0.0610481 -3.59073e-08 5.9048e-17)
(0.0610483 -4.10911e-08 2.85133e-17)
(0.0610485 -4.55633e-08 -2.68777e-16)