/*--------------------------------*- C++ -*----------------------------------*\
  =========                 |
  \\      /  F ield         | OpenFOAM: The Open Source CFD Toolbox
   \\    /   O peration     | Website:  https://openfoam.org
    \\  /    A nd           | Version:  7
     \\/     M anipulation  |
\*---------------------------------------------------------------------------*/
FoamFile
{
    version     2.0;
    format      ascii;
    class       volScalarField;
    location    "17000";
    object      nut;
}
// * * * * * * * * * * * * * * * * * * * * * * * * * * * * * * * * * * * * * //

dimensions      [0 2 -1 0 0 0 0];

internalField   nonuniform List<scalar> 
4000
(
0.00337401
0.00337472
0.00337466
0.00337446
0.00337423
0.00337402
0.00337381
0.00337361
0.00337342
0.00337324
0.00337306
0.00337289
0.00337272
0.00337256
0.0033724
0.00337225
0.0033721
0.00337194
0.00337178
0.00337163
0.00337148
0.00337133
0.00337119
0.00337106
0.00337092
0.00337078
0.00337065
0.00337053
0.00337041
0.0033703
0.00337018
0.00337007
0.00336997
0.00336987
0.00336977
0.00336968
0.00336959
0.0033695
0.00336941
0.00336933
0.00336924
0.00336917
0.00336909
0.00336901
0.00336914
0.00337042
0.00337112
0.00337134
0.00337136
0.0033713
0.00337123
0.00337115
0.00337107
0.00337099
0.00337091
0.00337083
0.00337076
0.00337069
0.00337061
0.00337054
0.00337046
0.00337039
0.00337031
0.00337024
0.00337016
0.00337009
0.00337001
0.00336994
0.00336986
0.00336979
0.00336971
0.00336965
0.00336957
0.00336951
0.00336945
0.00336937
0.00336931
0.00336924
0.00336918
0.00336911
0.00336905
0.00336898
0.0033689
0.00336884
0.00336877
0.00336871
0.00336864
0.00336858
0.00336851
0.00336844
0.00336838
0.00336831
0.00336825
0.00336818
0.00336811
0.00336803
0.00336796
0.0033679
0.00336783
0.00336776
0.00336768
0.00336761
0.00336754
0.00336766
0.00336894
0.00336964
0.00336985
0.00336985
0.00336978
0.00336971
0.0033696
0.00336951
0.00336941
0.00336931
0.00336921
0.0033691
0.003369
0.00336891
0.0033688
0.00336959
0.00336218
0.00336293
0.00336294
0.0033628
0.00336261
0.00336242
0.00336223
0.00336206
0.00336187
0.00336171
0.00336154
0.00336139
0.00336123
0.00336108
0.00336093
0.00336078
0.00336064
0.0033605
0.00336035
0.00336021
0.00336006
0.00335993
0.00335979
0.00335965
0.00335953
0.0033594
0.00335928
0.00335916
0.00335904
0.00335893
0.00335883
0.00335872
0.00335863
0.00335853
0.00335844
0.00335834
0.00335826
0.00335818
0.00335809
0.00335802
0.00335794
0.00335787
0.00335779
0.00335773
0.00335771
0.00335814
0.00335862
0.00335894
0.00335912
0.00335919
0.00335921
0.0033592
0.00335918
0.00335915
0.00335911
0.00335906
0.00335901
0.00335897
0.00335892
0.00335886
0.00335881
0.00335875
0.0033587
0.00335864
0.00335858
0.00335851
0.00335845
0.00335839
0.00335833
0.00335826
0.00335821
0.00335815
0.00335809
0.00335803
0.00335798
0.00335791
0.00335785
0.0033578
0.00335773
0.00335768
0.00335762
0.00335757
0.0033575
0.00335745
0.00335738
0.00335732
0.00335727
0.0033572
0.00335715
0.00335708
0.00335702
0.00335696
0.0033569
0.00335683
0.00335676
0.0033567
0.00335664
0.00335658
0.00335651
0.00335644
0.00335637
0.00335631
0.00335624
0.00335623
0.00335666
0.00335712
0.00335744
0.0033576
0.00335766
0.00335767
0.00335764
0.0033576
0.00335755
0.0033575
0.00335743
0.00335735
0.00335728
0.0033572
0.00335712
0.00335785
0.00334145
0.0033422
0.00334224
0.00334212
0.00334198
0.00334181
0.00334165
0.0033415
0.00334134
0.00334118
0.00334103
0.00334089
0.00334074
0.00334061
0.00334047
0.00334033
0.00334019
0.00334006
0.00333993
0.00333979
0.00333966
0.00333954
0.0033394
0.00333928
0.00333916
0.00333904
0.00333891
0.0033388
0.00333869
0.0033386
0.0033385
0.0033384
0.0033383
0.00333822
0.00333813
0.00333804
0.00333796
0.00333789
0.00333781
0.00333774
0.00333766
0.00333759
0.00333753
0.00333746
0.00333742
0.00333753
0.00333776
0.00333798
0.00333816
0.00333827
0.00333835
0.00333837
0.00333839
0.00333839
0.00333838
0.00333837
0.00333834
0.00333831
0.00333828
0.00333824
0.00333821
0.00333817
0.00333812
0.00333809
0.00333804
0.00333799
0.00333794
0.00333789
0.00333784
0.00333779
0.00333774
0.00333768
0.00333763
0.00333758
0.00333753
0.00333748
0.00333743
0.00333738
0.00333733
0.00333728
0.00333723
0.00333718
0.00333713
0.00333706
0.00333701
0.00333696
0.00333691
0.00333686
0.00333679
0.00333674
0.00333669
0.00333662
0.00333657
0.0033365
0.00333645
0.00333638
0.00333633
0.00333626
0.0033362
0.00333614
0.00333608
0.00333601
0.00333596
0.0033359
0.00333602
0.00333624
0.00333646
0.00333661
0.00333672
0.00333678
0.0033368
0.0033368
0.00333677
0.00333674
0.0033367
0.00333666
0.0033366
0.00333654
0.00333647
0.00333719
0.00331234
0.00331309
0.00331314
0.00331305
0.00331292
0.00331278
0.00331264
0.00331251
0.00331236
0.00331222
0.00331209
0.00331196
0.00331183
0.0033117
0.00331158
0.00331145
0.00331133
0.0033112
0.00331108
0.00331095
0.00331083
0.00331072
0.0033106
0.00331048
0.00331036
0.00331024
0.00331013
0.00331004
0.00330993
0.00330983
0.00330974
0.00330964
0.00330956
0.00330948
0.0033094
0.00330932
0.00330924
0.00330917
0.0033091
0.00330903
0.00330897
0.00330891
0.00330884
0.00330878
0.00330873
0.00330873
0.00330882
0.00330893
0.00330904
0.00330914
0.00330921
0.00330926
0.0033093
0.00330931
0.00330933
0.00330932
0.00330931
0.0033093
0.00330929
0.00330926
0.00330924
0.00330921
0.00330918
0.00330915
0.00330911
0.00330908
0.00330904
0.00330899
0.00330896
0.00330891
0.00330887
0.00330882
0.00330879
0.00330874
0.0033087
0.00330865
0.0033086
0.00330856
0.00330851
0.00330846
0.00330843
0.00330838
0.00330833
0.00330828
0.00330822
0.00330817
0.00330812
0.00330807
0.00330802
0.00330797
0.00330792
0.00330787
0.00330781
0.00330775
0.0033077
0.00330764
0.00330759
0.00330753
0.00330747
0.00330741
0.00330735
0.00330729
0.00330724
0.00330717
0.00330718
0.00330724
0.00330735
0.00330745
0.00330755
0.0033076
0.00330763
0.00330765
0.00330765
0.00330763
0.0033076
0.00330757
0.00330753
0.00330749
0.00330744
0.00330814
0.00327546
0.00327621
0.00327627
0.00327619
0.00327609
0.00327596
0.00327584
0.00327571
0.00327559
0.00327547
0.00327535
0.00327523
0.00327511
0.003275
0.00327488
0.00327478
0.00327466
0.00327455
0.00327443
0.00327432
0.0032742
0.00327409
0.00327397
0.00327387
0.00327377
0.00327366
0.00327356
0.00327346
0.00327336
0.00327327
0.00327319
0.00327311
0.00327303
0.00327295
0.00327287
0.0032728
0.00327273
0.00327266
0.0032726
0.00327254
0.00327247
0.00327241
0.00327235
0.0032723
0.00327225
0.00327222
0.00327223
0.00327227
0.00327233
0.00327239
0.00327244
0.00327249
0.00327251
0.00327254
0.00327255
0.00327255
0.00327255
0.00327255
0.00327254
0.00327253
0.00327251
0.0032725
0.00327248
0.00327244
0.00327242
0.0032724
0.00327236
0.00327233
0.00327229
0.00327226
0.00327222
0.00327218
0.00327215
0.00327211
0.00327208
0.00327203
0.00327199
0.00327195
0.0032719
0.00327187
0.00327182
0.00327178
0.00327173
0.00327169
0.00327164
0.00327159
0.00327154
0.00327151
0.00327146
0.00327141
0.00327136
0.0032713
0.00327125
0.0032712
0.00327114
0.00327109
0.00327104
0.00327098
0.00327092
0.00327087
0.00327082
0.00327075
0.0032707
0.00327064
0.00327061
0.0032706
0.00327063
0.00327067
0.00327073
0.00327076
0.00327079
0.00327079
0.0032708
0.0032708
0.00327078
0.00327075
0.00327072
0.00327069
0.00327064
0.00327132
0.00323147
0.00323221
0.00323229
0.00323221
0.00323211
0.00323201
0.0032319
0.00323179
0.00323168
0.00323158
0.00323147
0.00323136
0.00323126
0.00323116
0.00323105
0.00323095
0.00323085
0.00323074
0.00323064
0.00323053
0.00323043
0.00323032
0.00323022
0.00323012
0.00323002
0.00322992
0.00322983
0.00322975
0.00322966
0.00322958
0.00322949
0.00322941
0.00322935
0.00322927
0.00322921
0.00322914
0.00322907
0.00322901
0.00322895
0.0032289
0.00322884
0.00322879
0.00322873
0.00322868
0.00322863
0.00322859
0.00322857
0.00322857
0.00322858
0.00322861
0.00322863
0.00322867
0.00322868
0.00322871
0.00322872
0.00322872
0.00322872
0.00322872
0.00322871
0.00322871
0.0032287
0.00322868
0.00322867
0.00322865
0.00322862
0.0032286
0.00322857
0.00322854
0.00322851
0.00322848
0.00322845
0.00322841
0.00322838
0.00322834
0.00322831
0.00322827
0.00322824
0.0032282
0.00322816
0.00322813
0.00322808
0.00322804
0.00322801
0.00322796
0.00322791
0.00322787
0.00322782
0.00322778
0.00322774
0.00322769
0.00322764
0.00322759
0.00322754
0.00322749
0.00322744
0.00322739
0.00322733
0.00322728
0.00322723
0.00322718
0.00322711
0.00322706
0.003227
0.00322695
0.0032269
0.00322687
0.00322685
0.00322686
0.00322686
0.00322687
0.00322689
0.00322688
0.00322689
0.00322687
0.00322685
0.00322684
0.00322681
0.00322678
0.00322674
0.00322739
0.00318102
0.00318176
0.00318184
0.00318178
0.00318169
0.0031816
0.0031815
0.00318141
0.00318131
0.00318122
0.00318112
0.00318103
0.00318093
0.00318085
0.00318075
0.00318066
0.00318056
0.00318047
0.00318037
0.00318028
0.00318018
0.00318009
0.00317999
0.00317991
0.00317982
0.00317973
0.00317965
0.00317956
0.00317948
0.00317941
0.00317933
0.00317927
0.0031792
0.00317913
0.00317907
0.00317901
0.00317896
0.00317889
0.00317884
0.00317879
0.00317874
0.00317868
0.00317864
0.00317859
0.00317855
0.0031785
0.00317847
0.00317844
0.00317843
0.00317843
0.00317845
0.00317845
0.00317846
0.00317847
0.00317847
0.00317847
0.00317847
0.00317847
0.00317846
0.00317845
0.00317844
0.00317843
0.00317842
0.0031784
0.00317838
0.00317835
0.00317833
0.00317831
0.00317829
0.00317825
0.00317823
0.00317819
0.00317816
0.00317813
0.0031781
0.00317807
0.00317803
0.00317799
0.00317795
0.00317792
0.00317788
0.00317783
0.0031778
0.00317776
0.00317771
0.00317767
0.00317763
0.00317758
0.00317754
0.00317749
0.00317744
0.0031774
0.00317735
0.00317729
0.00317725
0.0031772
0.00317715
0.0031771
0.00317704
0.00317699
0.00317694
0.00317688
0.00317683
0.00317677
0.00317672
0.00317667
0.00317664
0.00317661
0.0031766
0.00317658
0.00317657
0.00317656
0.00317655
0.00317653
0.00317652
0.00317649
0.00317646
0.00317643
0.00317638
0.00317702
0.0031248
0.00312554
0.00312562
0.00312558
0.0031255
0.00312542
0.00312533
0.00312525
0.00312516
0.00312508
0.003125
0.00312491
0.00312483
0.00312475
0.00312467
0.00312459
0.0031245
0.00312442
0.00312433
0.00312425
0.00312416
0.00312407
0.00312399
0.00312391
0.00312382
0.00312374
0.00312367
0.00312359
0.00312352
0.00312345
0.00312339
0.00312332
0.00312326
0.0031232
0.00312315
0.00312309
0.00312304
0.00312298
0.00312293
0.00312288
0.00312285
0.0031228
0.00312276
0.00312271
0.00312267
0.00312263
0.00312258
0.00312255
0.00312253
0.00312251
0.00312251
0.00312251
0.0031225
0.0031225
0.00312249
0.00312249
0.00312248
0.00312248
0.00312247
0.00312246
0.00312245
0.00312242
0.00312241
0.00312239
0.00312237
0.00312235
0.00312233
0.0031223
0.00312228
0.00312225
0.00312223
0.00312219
0.00312216
0.00312212
0.0031221
0.00312207
0.00312202
0.00312199
0.00312195
0.00312192
0.00312189
0.00312184
0.0031218
0.00312176
0.00312172
0.00312168
0.00312163
0.00312159
0.00312154
0.00312149
0.00312145
0.0031214
0.00312135
0.00312131
0.00312126
0.00312121
0.00312115
0.00312111
0.00312105
0.003121
0.00312095
0.0031209
0.00312084
0.00312079
0.00312073
0.00312068
0.00312063
0.00312059
0.00312057
0.00312054
0.00312051
0.00312048
0.00312046
0.00312044
0.00312041
0.00312039
0.00312035
0.00312032
0.00312027
0.00312087
0.00306348
0.0030642
0.0030643
0.00306426
0.0030642
0.00306412
0.00306405
0.00306398
0.0030639
0.00306383
0.00306375
0.00306369
0.00306361
0.00306354
0.00306347
0.0030634
0.00306332
0.00306325
0.00306317
0.0030631
0.00306302
0.00306294
0.00306286
0.00306279
0.00306271
0.00306264
0.00306258
0.00306251
0.00306245
0.00306238
0.00306233
0.00306227
0.00306222
0.00306216
0.00306211
0.00306206
0.00306201
0.00306196
0.00306192
0.00306188
0.00306183
0.00306179
0.00306175
0.00306171
0.00306167
0.00306163
0.0030616
0.00306156
0.00306153
0.00306151
0.00306148
0.00306147
0.00306145
0.00306144
0.00306143
0.00306142
0.0030614
0.00306139
0.00306138
0.00306136
0.00306135
0.00306133
0.00306131
0.00306129
0.00306127
0.00306124
0.00306122
0.0030612
0.00306117
0.00306114
0.00306111
0.00306108
0.00306105
0.00306101
0.00306098
0.00306095
0.00306091
0.00306088
0.00306084
0.0030608
0.00306076
0.00306073
0.00306068
0.00306064
0.0030606
0.00306056
0.00306052
0.00306047
0.00306043
0.00306038
0.00306033
0.00306028
0.00306024
0.00306019
0.00306014
0.00306009
0.00306004
0.00305999
0.00305993
0.00305989
0.00305983
0.00305978
0.00305973
0.00305967
0.00305962
0.00305957
0.00305951
0.00305947
0.00305943
0.00305938
0.00305935
0.00305932
0.00305928
0.00305924
0.00305922
0.00305918
0.00305915
0.00305912
0.00305907
0.00305962
0.0029977
0.00299843
0.00299853
0.0029985
0.00299845
0.00299839
0.00299833
0.00299826
0.00299819
0.00299813
0.00299807
0.00299801
0.00299795
0.00299789
0.00299783
0.00299776
0.0029977
0.00299763
0.00299757
0.0029975
0.00299742
0.00299735
0.00299729
0.00299722
0.00299716
0.00299709
0.00299704
0.00299698
0.00299692
0.00299686
0.00299681
0.00299676
0.00299672
0.00299666
0.00299662
0.00299658
0.00299653
0.00299649
0.00299645
0.00299641
0.00299637
0.00299633
0.00299629
0.00299625
0.00299621
0.00299618
0.00299614
0.0029961
0.00299607
0.00299604
0.00299601
0.00299599
0.00299596
0.00299594
0.00299592
0.0029959
0.00299588
0.00299586
0.00299584
0.00299583
0.00299581
0.00299578
0.00299576
0.00299574
0.00299572
0.00299569
0.00299567
0.00299564
0.00299561
0.00299558
0.00299554
0.00299551
0.00299548
0.00299545
0.00299541
0.00299538
0.00299533
0.0029953
0.00299526
0.00299523
0.00299519
0.00299514
0.0029951
0.00299506
0.00299502
0.00299497
0.00299493
0.00299489
0.00299484
0.00299479
0.00299474
0.0029947
0.00299464
0.0029946
0.00299455
0.0029945
0.00299445
0.0029944
0.00299434
0.0029943
0.00299424
0.00299419
0.00299414
0.00299408
0.00299403
0.00299397
0.00299393
0.00299387
0.00299383
0.00299378
0.00299374
0.00299369
0.00299366
0.00299361
0.00299358
0.00299354
0.00299351
0.00299347
0.00299342
0.00299394
0.00292812
0.00292884
0.00292895
0.00292894
0.00292889
0.00292884
0.00292879
0.00292874
0.00292868
0.00292863
0.00292858
0.00292853
0.00292848
0.00292842
0.00292838
0.00292832
0.00292826
0.00292821
0.00292815
0.00292808
0.00292803
0.00292797
0.0029279
0.00292785
0.00292779
0.00292773
0.00292768
0.00292764
0.00292758
0.00292754
0.00292749
0.00292744
0.0029274
0.00292736
0.00292732
0.00292728
0.00292724
0.0029272
0.00292716
0.00292712
0.00292708
0.00292705
0.00292701
0.00292697
0.00292694
0.00292689
0.00292686
0.00292682
0.00292679
0.00292675
0.00292673
0.0029267
0.00292666
0.00292663
0.00292661
0.00292659
0.00292656
0.00292654
0.00292651
0.00292649
0.00292646
0.00292643
0.00292641
0.00292638
0.00292635
0.00292632
0.00292629
0.00292626
0.00292623
0.00292619
0.00292616
0.00292612
0.00292609
0.00292605
0.00292602
0.00292598
0.00292594
0.0029259
0.00292586
0.00292582
0.00292578
0.00292574
0.00292569
0.00292565
0.00292561
0.00292556
0.00292552
0.00292547
0.00292542
0.00292538
0.00292533
0.00292528
0.00292522
0.00292518
0.00292513
0.00292508
0.00292503
0.00292498
0.00292493
0.00292488
0.00292482
0.00292476
0.00292471
0.00292466
0.00292461
0.00292456
0.00292451
0.00292445
0.0029244
0.00292435
0.00292431
0.00292426
0.00292422
0.00292418
0.00292413
0.00292409
0.00292406
0.00292402
0.00292397
0.00292445
0.00285534
0.00285606
0.00285618
0.00285617
0.00285614
0.0028561
0.00285606
0.00285602
0.00285598
0.00285593
0.0028559
0.00285585
0.00285581
0.00285576
0.00285572
0.00285568
0.00285563
0.00285558
0.00285554
0.00285548
0.00285543
0.00285538
0.00285533
0.00285527
0.00285523
0.00285518
0.00285513
0.00285509
0.00285505
0.00285501
0.00285497
0.00285492
0.00285489
0.00285485
0.00285481
0.00285478
0.00285474
0.0028547
0.00285467
0.00285463
0.00285459
0.00285455
0.00285452
0.00285448
0.00285445
0.00285441
0.00285437
0.00285433
0.0028543
0.00285426
0.00285422
0.00285418
0.00285416
0.00285412
0.00285409
0.00285406
0.00285402
0.002854
0.00285397
0.00285393
0.0028539
0.00285388
0.00285384
0.00285381
0.00285377
0.00285375
0.00285371
0.00285368
0.00285364
0.0028536
0.00285357
0.00285353
0.00285349
0.00285345
0.00285341
0.00285338
0.00285333
0.00285329
0.00285324
0.0028532
0.00285316
0.00285312
0.00285307
0.00285302
0.00285298
0.00285294
0.00285289
0.00285284
0.00285279
0.00285274
0.00285269
0.00285264
0.00285259
0.00285254
0.00285249
0.00285244
0.00285239
0.00285234
0.00285228
0.00285223
0.00285218
0.00285213
0.00285208
0.00285202
0.00285197
0.00285191
0.00285186
0.00285181
0.00285176
0.00285171
0.00285167
0.00285162
0.00285157
0.00285153
0.00285149
0.00285145
0.00285141
0.00285137
0.00285132
0.00285176
0.00277995
0.00278065
0.00278078
0.0027808
0.00278077
0.00278075
0.00278072
0.00278069
0.00278066
0.00278062
0.00278059
0.00278056
0.00278053
0.0027805
0.00278046
0.00278042
0.00278038
0.00278034
0.0027803
0.00278026
0.00278022
0.00278017
0.00278013
0.00278009
0.00278004
0.00278001
0.00277997
0.00277993
0.0027799
0.00277986
0.00277982
0.00277979
0.00277976
0.00277972
0.00277969
0.00277965
0.00277962
0.00277958
0.00277954
0.00277951
0.00277948
0.00277944
0.0027794
0.00277936
0.00277932
0.00277928
0.00277924
0.0027792
0.00277916
0.00277913
0.00277909
0.00277905
0.00277901
0.00277897
0.00277894
0.00277889
0.00277886
0.00277883
0.00277879
0.00277876
0.00277872
0.00277868
0.00277864
0.00277861
0.00277857
0.00277854
0.00277849
0.00277846
0.00277842
0.00277838
0.00277834
0.0027783
0.00277826
0.00277821
0.00277817
0.00277813
0.00277808
0.00277804
0.00277799
0.00277795
0.0027779
0.00277786
0.00277781
0.00277777
0.00277771
0.00277767
0.00277762
0.00277757
0.00277752
0.00277747
0.00277742
0.00277737
0.00277732
0.00277727
0.00277722
0.00277716
0.00277711
0.00277706
0.00277701
0.00277696
0.00277691
0.00277685
0.0027768
0.00277675
0.00277669
0.00277664
0.00277659
0.00277654
0.00277648
0.00277644
0.00277639
0.00277634
0.0027763
0.00277625
0.00277621
0.00277617
0.00277614
0.0027761
0.00277606
0.00277646
0.00270248
0.00270318
0.00270332
0.00270334
0.00270334
0.00270332
0.00270331
0.00270329
0.00270327
0.00270324
0.00270322
0.0027032
0.00270318
0.00270316
0.00270313
0.00270311
0.00270308
0.00270304
0.00270302
0.00270298
0.00270294
0.0027029
0.00270287
0.00270284
0.0027028
0.00270277
0.00270273
0.0027027
0.00270267
0.00270264
0.00270261
0.00270258
0.00270254
0.00270252
0.00270249
0.00270245
0.00270242
0.00270238
0.00270234
0.00270231
0.00270227
0.00270223
0.00270219
0.00270215
0.00270211
0.00270207
0.00270202
0.00270199
0.00270194
0.0027019
0.00270185
0.00270181
0.00270177
0.00270173
0.00270169
0.00270164
0.0027016
0.00270156
0.00270152
0.00270148
0.00270144
0.0027014
0.00270135
0.00270131
0.00270127
0.00270123
0.00270119
0.00270115
0.0027011
0.00270106
0.00270102
0.00270097
0.00270093
0.00270089
0.00270084
0.0027008
0.00270075
0.0027007
0.00270065
0.0027006
0.00270056
0.00270051
0.00270046
0.00270041
0.00270037
0.00270032
0.00270026
0.00270021
0.00270016
0.00270011
0.00270006
0.00270001
0.00269996
0.0026999
0.00269985
0.0026998
0.00269975
0.0026997
0.00269965
0.00269959
0.00269954
0.00269949
0.00269944
0.00269938
0.00269933
0.00269928
0.00269922
0.00269918
0.00269913
0.00269908
0.00269903
0.00269898
0.00269894
0.0026989
0.00269886
0.00269883
0.00269879
0.00269876
0.00269872
0.00269909
0.00262346
0.00262415
0.00262431
0.00262434
0.00262435
0.00262435
0.00262435
0.00262434
0.00262433
0.00262432
0.00262431
0.0026243
0.00262429
0.00262427
0.00262426
0.00262424
0.00262421
0.00262419
0.00262417
0.00262414
0.00262411
0.00262408
0.00262405
0.00262403
0.002624
0.00262397
0.00262394
0.00262391
0.00262389
0.00262386
0.00262384
0.00262381
0.00262378
0.00262375
0.00262371
0.00262368
0.00262364
0.00262361
0.00262357
0.00262353
0.00262349
0.00262345
0.00262341
0.00262336
0.00262331
0.00262327
0.00262323
0.00262318
0.00262313
0.00262309
0.00262304
0.00262299
0.00262294
0.0026229
0.00262285
0.00262281
0.00262276
0.00262271
0.00262267
0.00262262
0.00262258
0.00262253
0.00262248
0.00262244
0.00262239
0.00262235
0.00262231
0.00262226
0.00262221
0.00262217
0.00262212
0.00262207
0.00262203
0.00262197
0.00262193
0.00262188
0.00262183
0.00262178
0.00262173
0.00262168
0.00262164
0.00262158
0.00262153
0.00262148
0.00262143
0.00262138
0.00262133
0.00262127
0.00262123
0.00262117
0.00262112
0.00262107
0.00262102
0.00262097
0.00262091
0.00262086
0.00262081
0.00262076
0.0026207
0.00262066
0.0026206
0.00262055
0.0026205
0.00262045
0.00262039
0.00262034
0.00262029
0.00262025
0.0026202
0.00262015
0.0026201
0.00262006
0.00262002
0.00261998
0.00261995
0.00261992
0.00261989
0.00261987
0.00261983
0.00262017
0.00254336
0.00254406
0.00254422
0.00254427
0.00254429
0.0025443
0.00254431
0.00254431
0.00254432
0.00254432
0.00254432
0.00254432
0.00254431
0.00254431
0.0025443
0.00254429
0.00254427
0.00254426
0.00254424
0.00254422
0.0025442
0.00254418
0.00254416
0.00254413
0.00254411
0.00254409
0.00254406
0.00254404
0.00254402
0.002544
0.00254397
0.00254394
0.00254391
0.00254388
0.00254385
0.00254381
0.00254377
0.00254373
0.00254369
0.00254365
0.0025436
0.00254355
0.00254351
0.00254346
0.00254341
0.00254336
0.00254331
0.00254326
0.00254321
0.00254316
0.00254311
0.00254306
0.002543
0.00254295
0.0025429
0.00254286
0.0025428
0.00254275
0.0025427
0.00254265
0.0025426
0.00254255
0.00254251
0.00254246
0.00254241
0.00254236
0.00254231
0.00254226
0.00254221
0.00254216
0.00254211
0.00254206
0.00254201
0.00254196
0.00254191
0.00254186
0.00254181
0.00254176
0.00254171
0.00254165
0.0025416
0.00254155
0.0025415
0.00254145
0.0025414
0.00254134
0.00254129
0.00254124
0.00254119
0.00254114
0.00254108
0.00254103
0.00254098
0.00254093
0.00254087
0.00254082
0.00254077
0.00254072
0.00254066
0.00254061
0.00254057
0.00254051
0.00254046
0.00254041
0.00254036
0.00254031
0.00254026
0.00254022
0.00254016
0.00254013
0.00254008
0.00254004
0.00254001
0.00253998
0.00253995
0.00253993
0.00253991
0.00253989
0.00253987
0.00254018
0.00246264
0.00246332
0.0024635
0.00246356
0.00246359
0.00246362
0.00246364
0.00246366
0.00246367
0.00246368
0.00246369
0.0024637
0.0024637
0.00246371
0.00246371
0.0024637
0.0024637
0.00246369
0.00246368
0.00246366
0.00246365
0.00246363
0.00246361
0.00246359
0.00246357
0.00246356
0.00246354
0.00246352
0.0024635
0.00246347
0.00246345
0.00246342
0.00246339
0.00246336
0.00246332
0.00246327
0.00246323
0.00246319
0.00246314
0.00246309
0.00246304
0.00246299
0.00246294
0.00246289
0.00246283
0.00246277
0.00246272
0.00246267
0.00246261
0.00246256
0.0024625
0.00246244
0.00246239
0.00246233
0.00246228
0.00246223
0.00246217
0.00246211
0.00246206
0.00246201
0.00246196
0.0024619
0.00246185
0.0024618
0.00246174
0.00246169
0.00246164
0.00246159
0.00246154
0.00246148
0.00246143
0.00246138
0.00246133
0.00246128
0.00246122
0.00246117
0.00246112
0.00246107
0.00246102
0.00246096
0.00246091
0.00246085
0.00246081
0.00246075
0.0024607
0.00246064
0.00246059
0.00246054
0.00246049
0.00246043
0.00246039
0.00246033
0.00246028
0.00246023
0.00246017
0.00246012
0.00246007
0.00246002
0.00245997
0.00245992
0.00245987
0.00245982
0.00245977
0.00245972
0.00245967
0.00245962
0.00245957
0.00245953
0.00245949
0.00245945
0.00245941
0.00245938
0.00245935
0.00245933
0.00245931
0.0024593
0.00245929
0.00245929
0.00245927
0.00245955
0.00238168
0.00238237
0.00238255
0.00238263
0.00238267
0.00238271
0.00238274
0.00238277
0.00238279
0.00238281
0.00238283
0.00238285
0.00238286
0.00238287
0.00238287
0.00238288
0.00238288
0.00238287
0.00238287
0.00238286
0.00238285
0.00238283
0.00238282
0.00238281
0.00238279
0.00238278
0.00238276
0.00238275
0.00238272
0.0023827
0.00238267
0.00238264
0.00238261
0.00238256
0.00238252
0.00238248
0.00238243
0.00238238
0.00238232
0.00238227
0.00238221
0.00238215
0.00238209
0.00238203
0.00238197
0.00238191
0.00238186
0.00238179
0.00238173
0.00238167
0.00238161
0.00238155
0.00238149
0.00238144
0.00238138
0.00238132
0.00238126
0.0023812
0.00238115
0.00238109
0.00238103
0.00238098
0.00238092
0.00238087
0.00238081
0.00238076
0.0023807
0.00238065
0.0023806
0.00238054
0.00238049
0.00238044
0.00238038
0.00238032
0.00238027
0.00238022
0.00238016
0.00238011
0.00238006
0.00238
0.00237995
0.0023799
0.00237985
0.00237979
0.00237974
0.00237968
0.00237963
0.00237958
0.00237953
0.00237948
0.00237943
0.00237937
0.00237932
0.00237927
0.00237922
0.00237917
0.00237912
0.00237907
0.00237902
0.00237897
0.00237892
0.00237887
0.00237882
0.00237877
0.00237872
0.00237868
0.00237863
0.00237859
0.00237856
0.00237852
0.0023785
0.00237847
0.00237846
0.00237845
0.00237844
0.00237844
0.00237845
0.00237845
0.00237845
0.0023787
0.00230088
0.00230155
0.00230174
0.00230183
0.00230189
0.00230194
0.00230198
0.00230201
0.00230205
0.00230207
0.0023021
0.00230212
0.00230214
0.00230216
0.00230217
0.00230218
0.00230218
0.00230219
0.00230218
0.00230218
0.00230217
0.00230216
0.00230215
0.00230214
0.00230213
0.00230212
0.0023021
0.00230209
0.00230206
0.00230204
0.002302
0.00230196
0.00230192
0.00230188
0.00230183
0.00230177
0.00230172
0.00230165
0.00230159
0.00230153
0.00230146
0.0023014
0.00230133
0.00230127
0.0023012
0.00230114
0.00230107
0.002301
0.00230094
0.00230088
0.00230081
0.00230075
0.00230068
0.00230062
0.00230056
0.0023005
0.00230044
0.00230038
0.00230032
0.00230026
0.0023002
0.00230015
0.00230009
0.00230003
0.00229997
0.00229992
0.00229986
0.0022998
0.00229975
0.0022997
0.00229964
0.00229958
0.00229953
0.00229948
0.00229942
0.00229937
0.00229931
0.00229926
0.00229921
0.00229915
0.0022991
0.00229905
0.00229899
0.00229894
0.00229889
0.00229883
0.00229878
0.00229873
0.00229868
0.00229863
0.00229858
0.00229852
0.00229847
0.00229842
0.00229837
0.00229833
0.00229827
0.00229823
0.00229817
0.00229813
0.00229808
0.00229803
0.00229799
0.00229794
0.00229789
0.00229785
0.00229781
0.00229777
0.00229774
0.00229772
0.00229771
0.0022977
0.0022977
0.0022977
0.00229771
0.00229772
0.00229773
0.00229776
0.00229776
0.00229799
0.00222054
0.0022212
0.00222141
0.0022215
0.00222157
0.00222163
0.00222168
0.00222173
0.00222177
0.0022218
0.00222183
0.00222186
0.00222189
0.0022219
0.00222192
0.00222193
0.00222194
0.00222195
0.00222195
0.00222195
0.00222195
0.00222194
0.00222194
0.00222192
0.00222191
0.0022219
0.00222189
0.00222186
0.00222184
0.0022218
0.00222176
0.00222171
0.00222167
0.00222161
0.00222154
0.00222148
0.00222142
0.00222135
0.00222127
0.0022212
0.00222113
0.00222106
0.00222099
0.00222092
0.00222084
0.00222077
0.0022207
0.00222063
0.00222056
0.00222049
0.00222043
0.00222036
0.0022203
0.00222023
0.00222016
0.0022201
0.00222004
0.00221998
0.00221992
0.00221986
0.00221979
0.00221974
0.00221968
0.00221962
0.00221956
0.00221951
0.00221945
0.00221939
0.00221933
0.00221928
0.00221922
0.00221917
0.00221911
0.00221906
0.002219
0.00221895
0.0022189
0.00221884
0.00221879
0.00221874
0.00221868
0.00221863
0.00221858
0.00221852
0.00221847
0.00221842
0.00221837
0.00221832
0.00221827
0.00221822
0.00221817
0.00221812
0.00221807
0.00221802
0.00221797
0.00221792
0.00221787
0.00221783
0.00221778
0.00221773
0.00221769
0.00221764
0.0022176
0.00221755
0.00221751
0.00221747
0.00221744
0.00221741
0.00221739
0.00221738
0.00221738
0.00221739
0.0022174
0.00221742
0.00221744
0.00221747
0.0022175
0.00221754
0.00221755
0.00221776
0.00214098
0.00214163
0.00214184
0.00214195
0.00214202
0.00214209
0.00214215
0.0021422
0.00214224
0.00214228
0.00214232
0.00214235
0.00214238
0.00214241
0.00214242
0.00214244
0.00214245
0.00214246
0.00214246
0.00214246
0.00214246
0.00214246
0.00214245
0.00214245
0.00214243
0.00214242
0.0021424
0.00214237
0.00214233
0.00214229
0.00214224
0.00214218
0.00214212
0.00214205
0.00214198
0.0021419
0.00214182
0.00214174
0.00214166
0.00214158
0.0021415
0.00214143
0.00214135
0.00214127
0.00214119
0.00214111
0.00214104
0.00214097
0.0021409
0.00214083
0.00214076
0.00214069
0.00214062
0.00214055
0.00214048
0.00214042
0.00214036
0.00214029
0.00214023
0.00214017
0.00214011
0.00214005
0.00213999
0.00213993
0.00213987
0.00213982
0.00213976
0.0021397
0.00213965
0.00213959
0.00213953
0.00213948
0.00213942
0.00213937
0.00213932
0.00213926
0.00213921
0.00213916
0.0021391
0.00213905
0.002139
0.00213895
0.0021389
0.00213884
0.0021388
0.00213874
0.00213869
0.00213865
0.0021386
0.00213855
0.0021385
0.00213845
0.0021384
0.00213835
0.00213831
0.00213826
0.00213822
0.00213817
0.00213812
0.00213808
0.00213803
0.00213799
0.00213795
0.00213791
0.00213787
0.00213784
0.00213782
0.0021378
0.0021378
0.0021378
0.00213782
0.00213784
0.00213788
0.00213792
0.00213796
0.002138
0.00213804
0.00213809
0.00213813
0.00213832
0.00206246
0.0020631
0.00206331
0.00206342
0.0020635
0.00206357
0.00206364
0.00206369
0.00206374
0.00206378
0.00206383
0.00206386
0.00206389
0.00206392
0.00206394
0.00206395
0.00206397
0.00206397
0.00206398
0.00206398
0.00206398
0.00206398
0.00206397
0.00206396
0.00206395
0.00206393
0.0020639
0.00206386
0.00206381
0.00206376
0.00206369
0.00206362
0.00206354
0.00206346
0.00206337
0.00206329
0.0020632
0.00206311
0.00206302
0.00206293
0.00206284
0.00206276
0.00206268
0.00206259
0.00206251
0.00206243
0.00206235
0.00206228
0.0020622
0.00206213
0.00206206
0.00206199
0.00206192
0.00206185
0.00206179
0.00206172
0.00206166
0.00206159
0.00206153
0.00206147
0.00206141
0.00206135
0.00206129
0.00206123
0.00206118
0.00206112
0.00206107
0.00206101
0.00206095
0.0020609
0.00206084
0.00206079
0.00206074
0.00206068
0.00206063
0.00206058
0.00206052
0.00206047
0.00206042
0.00206037
0.00206032
0.00206027
0.00206022
0.00206017
0.00206012
0.00206007
0.00206002
0.00205998
0.00205993
0.00205988
0.00205984
0.00205979
0.00205974
0.0020597
0.00205965
0.00205961
0.00205956
0.00205952
0.00205948
0.00205944
0.00205939
0.00205935
0.00205931
0.00205928
0.00205925
0.00205923
0.00205922
0.00205922
0.00205923
0.00205926
0.0020593
0.00205934
0.0020594
0.00205946
0.00205951
0.00205957
0.00205963
0.00205969
0.00205973
0.0020599
0.00198521
0.00198582
0.00198603
0.00198615
0.00198624
0.00198631
0.00198638
0.00198644
0.00198649
0.00198654
0.00198657
0.00198661
0.00198664
0.00198666
0.00198669
0.0019867
0.00198672
0.00198673
0.00198673
0.00198673
0.00198673
0.00198673
0.00198672
0.00198671
0.00198669
0.00198666
0.00198662
0.00198656
0.0019865
0.00198642
0.00198634
0.00198625
0.00198615
0.00198606
0.00198596
0.00198586
0.00198576
0.00198566
0.00198557
0.00198548
0.00198538
0.00198529
0.0019852
0.00198512
0.00198504
0.00198496
0.00198488
0.0019848
0.00198472