/*--------------------------------*- C++ -*----------------------------------*\
  =========                 |
  \\      /  F ield         | OpenFOAM: The Open Source CFD Toolbox
   \\    /   O peration     | Website:  https://openfoam.org
    \\  /    A nd           | Version:  7
     \\/     M anipulation  |
\*---------------------------------------------------------------------------*/
FoamFile
{
    version     2.0;
    format      ascii;
    class       surfaceScalarField;
    location    "17000";
    object      phi;
}
// * * * * * * * * * * * * * * * * * * * * * * * * * * * * * * * * * * * * * //

dimensions      [0 3 -1 0 0 0 0];

internalField   nonuniform List<scalar> 
7846
(
0.000740078
-2.42624e-10
0.000740078
-2.89876e-10
0.000740078
-3.18634e-10
0.000740078
-3.4141e-10
0.000740078
-3.6178e-10
0.000740078
-3.80628e-10
0.000740078
-3.98175e-10
0.000740078
-4.14164e-10
0.000740078
-4.28469e-10
0.000740078
-4.41231e-10
0.000740078
-4.52473e-10
0.000740078
-4.62182e-10
0.000740078
-4.70528e-10
0.000740078
-4.77575e-10
0.000740078
-4.8332e-10
0.000740078
-4.87946e-10
0.000740078
-4.916e-10
0.000740078
-4.94423e-10
0.000740078
-4.96408e-10
0.000740078
-4.97509e-10
0.000740078
-4.97766e-10
0.000740078
-4.97033e-10
0.000740078
-4.95325e-10
0.000740078
-4.92593e-10
0.000740078
-4.88671e-10
0.000740078
-4.83761e-10
0.000740078
-4.78066e-10
0.000740077
-4.71631e-10
0.000740077
-4.64715e-10
0.000740077
-4.5752e-10
0.000740077
-4.50036e-10
0.000740077
-4.42386e-10
0.000740077
-4.34506e-10
0.000740077
-4.26135e-10
0.000740077
-4.16934e-10
0.000740077
-4.06229e-10
0.000740077
-3.9315e-10
0.000740077
-3.76412e-10
0.000740077
-3.53989e-10
0.000740077
-3.23042e-10
0.000740077
-2.79282e-10
0.000740077
-2.16594e-10
0.000740076
-1.23944e-10
0.000740076
1.45032e-11
0.000740076
2.28769e-10
0.000740076
4.52371e-10
0.000740076
6.01467e-10
0.000740076
6.94798e-10
0.000740076
7.52695e-10
0.000740076
7.85778e-10
0.000740076
8.01804e-10
0.000740076
8.05964e-10
0.000740076
8.01607e-10
0.000740076
7.91081e-10
0.000740076
7.76285e-10
0.000740076
7.58429e-10
0.000740076
7.38103e-10
0.000740076
7.16078e-10
0.000740076
6.93063e-10
0.000740076
6.69268e-10
0.000740076
6.44912e-10
0.000740076
6.20094e-10
0.000740076
5.94961e-10
0.000740076
5.69729e-10
0.000740076
5.44371e-10
0.000740076
5.1899e-10
0.000740076
4.93742e-10
0.000740076
4.68621e-10
0.000740076
4.43708e-10
0.000740076
4.19005e-10
0.000740076
3.94615e-10
0.000740076
3.70452e-10
0.000740076
3.46324e-10
0.000740076
3.22174e-10
0.000740076
2.98033e-10
0.000740076
2.73934e-10
0.000740076
2.49602e-10
0.000740076
2.25008e-10
0.000740076
2.00006e-10
0.000740076
1.74503e-10
0.000740076
1.48589e-10
0.000740076
1.22123e-10
0.000740076
9.49884e-11
0.000740076
6.71643e-11
0.000740076
3.85891e-11
0.000740076
9.19058e-12
0.000740076
-2.10716e-11
0.000740076
-5.21339e-11
0.000740077
-8.3956e-11
0.000740077
-1.16484e-10
0.000740077
-1.49572e-10
0.000740077
-1.83133e-10
0.000740077
-2.16777e-10
0.000740077
-2.49991e-10
0.000740077
-2.82273e-10
0.000740077
-3.12673e-10
0.000740077
-3.39737e-10
0.000740077
-3.615e-10
0.000740077
-3.75309e-10
0.000740077
-3.76861e-10
0.000740077
-3.59838e-10
0.000740077
-3.1326e-10
0.000740077
-2.20919e-10
0.000740077
-5.25458e-11
0.000740077
1.25675e-10
0.000740078
2.30333e-10
0.000740078
2.80572e-10
0.000740078
2.97298e-10
0.000740078
2.91568e-10
0.000740078
2.71433e-10
0.000740078
2.42221e-10
0.000740078
2.07648e-10
0.000740078
1.70286e-10
0.000740078
1.32174e-10
0.000740078
9.49154e-11
0.000740078
5.96073e-11
0.000740078
2.70007e-11
0.000740078
-4.42651e-12
0.000740078
-4.86168e-11
-1.44468e-10
0.000723
-2.98138e-10
0.000723
-3.51423e-10
0.000723
-3.70626e-10
0.000723
-3.80608e-10
0.000723
-3.88493e-10
0.000723
-3.95967e-10
0.000723
-4.03335e-10
0.000723
-4.1038e-10
0.000723
-4.16852e-10
0.000723
-4.22761e-10
0.000723
-4.27962e-10
0.000723
-4.32423e-10
0.000723
-4.36255e-10
0.000723
-4.39346e-10
0.000723
-4.41693e-10
0.000723
-4.43378e-10
0.000723
-4.44413e-10
0.000723
-4.45021e-10
0.000723
-4.45164e-10
0.000722999
-4.44705e-10
0.000722999
-4.43593e-10
0.000722999
-4.41689e-10
0.000722999
-4.39026e-10
0.000722999
-4.3536e-10
0.000722999
-4.30539e-10
0.000722999
-4.24837e-10
0.000722999
-4.18329e-10
0.000722999
-4.10994e-10
0.000722999
-4.03181e-10
0.000722999
-3.95091e-10
0.000722999
-3.86696e-10
0.000722999
-3.78091e-10
0.000722999
-3.69133e-10
0.000722999
-3.59575e-10
0.000722999
-3.49094e-10
0.000722998
-3.36918e-10
0.000722998
-3.22057e-10
0.000722998
-3.0328e-10
0.000722998
-2.78682e-10
0.000722998
-2.4538e-10
0.000722998
-1.99275e-10
0.000722998
-1.34877e-10
0.000722998
-4.30049e-11
0.000722998
8.68377e-11
0.000722998
2.72034e-10
0.000722998
4.67453e-10
0.000722998
6.11179e-10
0.000722998
7.07642e-10
0.000722998
7.69768e-10
0.000722998
8.06562e-10
0.000722998
8.25326e-10
0.000722998
8.31342e-10
0.000722998
8.28091e-10
0.000722998
8.1796e-10
0.000722998
8.02989e-10
0.000722998
7.84417e-10
0.000722998
7.62924e-10
0.000722998
7.39398e-10
0.000722998
7.14546e-10
0.000722998
6.88649e-10
0.000722997
6.62023e-10
0.000722997
6.34723e-10
0.000722997
6.06975e-10
0.000722997
5.79003e-10
0.000722997
5.50774e-10
0.000722997
5.22479e-10
0.000722997
4.94223e-10
0.000722997
4.66013e-10
0.000722997
4.3799e-10
0.000722997
4.10135e-10
0.000722997
3.82534e-10
0.000722997
3.55153e-10
0.000722998
3.27829e-10
0.000722998
3.00462e-10
0.000722998
2.73129e-10
0.000722998
2.45882e-10
0.000722998
2.18432e-10
0.000722998
1.90788e-10
0.000722998
1.62788e-10
0.000722998
1.34356e-10
0.000722998
1.05607e-10
0.000722998
7.63986e-11
0.000722998
4.66378e-11
0.000722998
1.63365e-11
0.000722998
-1.4539e-11
0.000722998
-4.60509e-11
0.000722998
-7.82259e-11
0.000722998
-1.10973e-10
0.000722998
-1.44192e-10
0.000722998
-1.7779e-10
0.000722998
-2.11655e-10
0.000722998
-2.45615e-10
0.000722998
-2.79185e-10
0.000722999
-3.11837e-10
0.000722999
-3.43045e-10
0.000722999
-3.71793e-10
0.000722999
-3.96659e-10
0.000722999
-4.15707e-10
0.000722999
-4.26317e-10
0.000722999
-4.24479e-10
0.000722999
-4.04379e-10
0.000722999
-3.56883e-10
0.000722999
-2.71078e-10
0.000722999
-1.29343e-10
0.000722999
2.35605e-11
0.000722999
1.26303e-10
0.000722999
1.83781e-10
0.000722999
2.09652e-10
0.000723
2.13502e-10
0.000723
2.03053e-10
0.000723
1.83805e-10
0.000723
1.59769e-10
0.000723
1.33838e-10
0.000723
1.08357e-10
0.000723
8.51366e-11
0.000723
6.54745e-11
0.000723
5.0135e-11
0.000723
3.57327e-11
0.000723
-4.72924e-12
-1.47761e-10
0.000706261
-3.52047e-10
0.000706261
-4.10608e-10
0.000706261
-4.19348e-10
0.000706261
-4.15645e-10
0.000706261
-4.10266e-10
0.000706261
-4.05727e-10
0.000706261
-4.02391e-10
0.000706261
-3.99991e-10
0.000706261
-3.98239e-10
0.000706261
-3.96929e-10
0.000706261
-3.95762e-10
0.000706261
-3.94714e-10
0.000706261
-3.93771e-10
0.000706261
-3.92673e-10
0.000706261
-3.91403e-10
0.000706261
-3.89962e-10
0.000706261
-3.88321e-10
0.000706261
-3.86686e-10
0.000706261
-3.84962e-10
0.000706261
-3.82944e-10
0.000706261
-3.80466e-10
0.00070626
-3.7746e-10
0.00070626
-3.73905e-10
0.00070626
-3.69387e-10
0.00070626
-3.63754e-10
0.00070626
-3.57291e-10
0.00070626
-3.49963e-10
0.00070626
-3.41818e-10
0.00070626
-3.3326e-10
0.00070626
-3.24437e-10
0.00070626
-3.15307e-10
0.00070626
-3.05971e-10
0.00070626
-2.96243e-10
0.00070626
-2.85904e-10
0.00070626
-2.74581e-10
0.000706259
-2.6149e-10
0.000706259
-2.45625e-10
0.000706259
-2.25701e-10
0.000706259
-2.00021e-10
0.000706259
-1.65749e-10
0.000706259
-1.19079e-10
0.000706259
-5.53824e-11
0.000706259
3.26645e-11
0.000706259
1.51746e-10
0.000706259
3.10805e-10
0.000706259
4.79397e-10
0.000706259
6.1366e-10
0.000706259
7.10512e-10
0.000706259
7.76183e-10
0.000706259
8.16976e-10
0.000706259
8.39016e-10
0.000706259
8.47443e-10
0.000706259
8.45736e-10
0.000706259
8.36364e-10
0.000706259
8.2155e-10
0.000706259
8.02586e-10
0.000706259
7.80273e-10
0.000706259
7.5558e-10
0.000706259
7.29214e-10
0.000706259
7.01494e-10
0.000706259
6.72875e-10
0.000706259
6.43408e-10
0.000706259
6.13356e-10
0.000706259
5.82966e-10
0.000706259
5.52224e-10
0.000706259
5.21355e-10
0.000706259
4.90377e-10
0.000706259
4.59397e-10
0.000706259
4.28611e-10
0.000706259
3.97927e-10
0.000706259
3.67476e-10
0.000706259
3.37263e-10
0.000706259
3.07072e-10
0.000706259
2.76774e-10
0.000706259
2.46536e-10
0.000706259
2.1646e-10
0.000706259
1.8623e-10
0.000706259
1.5583e-10
0.000706259
1.2508e-10
0.000706259
9.40238e-11
0.000706259
6.27412e-11
0.000706259
3.10368e-11
0.000706259
-1.08025e-12
0.000706259
-3.35884e-11
0.000706259
-6.65134e-11
0.000706259
-9.99411e-11
0.000706259
-1.33809e-10
0.000706259
-1.68014e-10
0.000706259
-2.02438e-10
0.000706259
-2.36926e-10
0.000706259
-2.71452e-10
0.00070626
-3.0572e-10
0.00070626
-3.39169e-10
0.00070626
-3.71274e-10
0.00070626
-4.01481e-10
0.00070626
-4.28787e-10
0.00070626
-4.51825e-10
0.00070626
-4.68687e-10
0.00070626
-4.76961e-10
0.00070626
-4.73037e-10
0.00070626
-4.51745e-10
0.00070626
-4.05885e-10
0.00070626
-3.28421e-10
0.00070626
-2.10022e-10
0.00070626
-8.06828e-11
0.00070626
1.63138e-11
0.000706261
7.85964e-11
0.000706261
1.13253e-10
0.000706261
1.27212e-10
0.000706261
1.27175e-10
0.000706261
1.18631e-10
0.000706261
1.05766e-10
0.000706261
9.17679e-11
0.000706261
7.9346e-11
0.000706261
7.05879e-11
0.000706261
6.69327e-11
0.000706261
6.91925e-11
0.000706261
7.22839e-11
0.000706261
3.66388e-11
-1.51268e-10
0.000689859
-4.03388e-10
0.000689859
-4.66524e-10
0.000689859
-4.64101e-10
0.000689859
-4.45944e-10
0.000689859
-4.26531e-10
0.000689859
-4.09307e-10
0.000689859
-3.94702e-10
0.000689859
-3.82308e-10
0.000689859
-3.71829e-10
0.000689859
-3.62953e-10
0.000689859
-3.55178e-10
0.000689859
-3.48366e-10
0.000689859
-3.42413e-10
0.000689859
-3.36983e-10
0.000689859
-3.31905e-10
0.000689859
-3.27214e-10
0.000689859
-3.22915e-10
0.000689859
-3.19077e-10
0.000689859
-3.15538e-10
0.000689859
-3.12045e-10
0.000689859
-3.08363e-10
0.000689858
-3.04382e-10
0.000689858
-3.00005e-10
0.000689858
-2.94696e-10
0.000689858
-2.88341e-10
0.000689858
-2.81262e-10
0.000689858
-2.73314e-10
0.000689858
-2.64504e-10
0.000689858
-2.55344e-10
0.000689858
-2.4598e-10
0.000689858
-2.36325e-10
0.000689858
-2.26536e-10
0.000689858
-2.16461e-10
0.000689858
-2.05867e-10
0.000689857
-1.94228e-10
0.000689857
-1.80812e-10
0.000689857
-1.64696e-10
0.000689857
-1.44583e-10
0.000689857
-1.1889e-10
0.000689857
-8.49447e-11
0.000689857
-3.93059e-11
0.000689857
2.18212e-11
0.000689857
1.0409e-10
0.000689857
2.11547e-10
0.000689857
3.47964e-10
0.000689857
4.92312e-10
0.000689857
6.13886e-10
0.000689857
7.07014e-10
0.000689857
7.73563e-10
0.000689857
8.17094e-10
0.000689857
8.4215e-10
0.000689857
8.53135e-10
0.000689857
8.53234e-10
0.000689857
8.44984e-10
0.000689857
8.3065e-10
0.000689857
8.11693e-10
0.000689857
7.88966e-10
0.000689857
7.6341e-10
0.000689857
7.35853e-10
0.000689857
7.06641e-10
0.000689857
6.7639e-10
0.000689857
6.45135e-10
0.000689857
6.13041e-10
0.000689857
5.80548e-10
0.000689857
5.47719e-10
0.000689857
5.14603e-10
0.000689857
4.81211e-10
0.000689857
4.47815e-10
0.000689857
4.14634e-10
0.000689857
3.8149e-10
0.000689857
3.48567e-10
0.000689857
3.15843e-10
0.000689857
2.83066e-10
0.000689857
2.50165e-10
0.000689857
2.17316e-10
0.000689857
1.84735e-10
0.000689857
1.52079e-10
0.000689857
1.19191e-10
0.000689857
8.59827e-11
0.000689857
5.25727e-11
0.000689857
1.90422e-11
0.000689857
-1.48393e-11
0.000689857
-4.89848e-11
0.000689857
-8.34504e-11
0.000689857
-1.18282e-10
0.000689857
-1.53395e-10
0.000689857
-1.88693e-10
0.000689857
-2.24097e-10
0.000689857
-2.59574e-10
0.000689858
-2.94861e-10
0.000689858
-3.29867e-10
0.000689858
-3.64309e-10
0.000689858
-3.97577e-10
0.000689858
-4.29168e-10
0.000689858
-4.5846e-10
0.000689858
-4.84433e-10
0.000689858
-5.05894e-10
0.000689858
-5.21023e-10
0.000689858
-5.27684e-10
0.000689858
-5.22656e-10
0.000689858
-5.01492e-10
0.000689858
-4.58771e-10
0.000689858
-3.90039e-10
0.000689858
-2.9101e-10
0.000689858
-1.82341e-10
0.000689859
-9.39897e-11
0.000689859
-3.0692e-11
0.000689859
1.03451e-11
0.000689859
3.34032e-11
0.000689859
4.37125e-11
0.000689859
4.62323e-11
0.000689859
4.50842e-11
0.000689859
4.36066e-11
0.000689859
4.47058e-11
0.000689859
5.07985e-11
0.000689859
6.35937e-11
0.000689859
8.39878e-11
0.000689859
1.05228e-10
0.000689859
7.59347e-11
-1.54142e-10
0.000673791
-4.51018e-10
0.000673791
-5.17993e-10
0.000673791
-5.03915e-10
0.000673791
-4.70718e-10
0.000673791
-4.3653e-10
0.000673791
-4.05959e-10
0.000673791
-3.79588e-10
0.000673791
-3.5676e-10
0.000673791
-3.37081e-10
0.000673791
-3.20314e-10
0.000673791
-3.05738e-10
0.000673791
-2.92925e-10
0.000673791
-2.81739e-10
0.000673791
-2.71936e-10
0.000673791
-2.63085e-10
0.000673791
-2.55108e-10
0.00067379
-2.4815e-10
0.00067379
-2.4216e-10
0.00067379
-2.36907e-10
0.00067379
-2.32079e-10
0.00067379
-2.27391e-10
0.00067379
-2.22647e-10
0.00067379
-2.17616e-10
0.00067379
-2.11689e-10
0.00067379
-2.04789e-10
0.00067379
-1.97254e-10
0.00067379
-1.88867e-10
0.00067379
-1.79585e-10
0.000673789
-1.70007e-10
0.000673789
-1.60397e-10
0.000673789
-1.50553e-10
0.000673789
-1.40647e-10
0.000673789
-1.30681e-10
0.000673789
-1.20328e-10
0.000673789
-1.09002e-10
0.000673789
-9.59979e-11
0.000673789
-8.04109e-11
0.000673789
-6.09899e-11
0.000673789
-3.63205e-11
0.000673789
-3.95627e-12
0.000673788
3.92364e-11
0.000673788
9.63639e-11
0.000673788
1.71595e-10
0.000673788
2.67203e-10
0.000673788
3.84098e-10
0.000673788
5.07114e-10
0.000673788
6.14605e-10
0.000673788
7.00653e-10
0.000673788
7.6482e-10
0.000673788
8.08806e-10
0.000673788
8.35577e-10
0.000673788
8.48462e-10
0.000673788
8.50234e-10
0.000673788
8.43206e-10
0.000673788
8.29537e-10
0.000673788
8.10855e-10
0.000673788
7.87975e-10
0.000673788
7.61821e-10
0.000673788
7.33432e-10
0.000673788
7.03155e-10
0.000673788
6.71621e-10
0.000673788
6.38915e-10
0.000673788
6.0516e-10
0.000673788
5.7091e-10
0.000673788
5.36294e-10
0.000673788
5.01258e-10
0.000673788
4.65892e-10
0.000673788
4.30491e-10
0.000673788
3.9527e-10
0.000673788
3.59992e-10
0.000673788
3.24852e-10
0.000673788
2.8991e-10
0.000673788
2.54895e-10
0.000673789
2.19774e-10
0.000673789
1.84711e-10
0.000673789
1.49995e-10
0.000673789
1.15142e-10
0.000673789
8.00654e-11
0.000673789
4.47671e-11
0.000673789
9.23328e-12
0.000673789
-2.62818e-11
0.000673789
-6.19782e-11
0.000673789
-9.79113e-11
0.000673789
-1.34131e-10
0.000673789
-1.70544e-10
0.000673789
-2.07073e-10
0.000673789
-2.43651e-10
0.000673789
-2.80067e-10
0.000673789
-3.16395e-10
0.000673789
-3.5232e-10
0.000673789
-3.87662e-10
0.000673789
-4.22141e-10
0.000673789
-4.55118e-10
0.000673789
-4.86134e-10
0.00067379
-5.14564e-10
0.00067379
-5.39395e-10
0.00067379
-5.59474e-10
0.00067379
-5.73171e-10
0.00067379
-5.78713e-10
0.00067379
-5.73352e-10
0.00067379
-5.53195e-10
0.00067379
-5.1432e-10
0.00067379
-4.54002e-10
0.00067379
-3.70791e-10
0.00067379
-2.79495e-10
0.00067379
-2.00849e-10
0.00067379
-1.39667e-10
0.00067379
-9.52935e-11
0.000673791
-6.51973e-11
0.000673791
-4.55325e-11
0.000673791
-3.23714e-11
0.000673791
-2.17962e-11
0.000673791
-1.04528e-11
0.000673791
4.55328e-12
0.000673791
2.59655e-11
0.000673791
5.56357e-11
0.000673791
9.45913e-11
0.000673791
1.34788e-10
0.000673791
1.13831e-10
-1.55382e-10
0.000658053
-4.93748e-10
0.000658053
-5.63731e-10
0.000658053
-5.37458e-10
0.000658053
-4.8874e-10
0.000658053
-4.39304e-10
0.000658053
-3.94896e-10
0.000658053
-3.56252e-10
0.000658053
-3.22657e-10
0.000658053
-2.93586e-10
0.000658053
-2.68681e-10
0.000658052
-2.47053e-10
0.000658052
-2.28129e-10
0.000658052
-2.11669e-10
0.000658052
-1.97424e-10
0.000658052
-1.84916e-10
0.000658052
-1.73795e-10
0.000658052
-1.64204e-10
0.000658052
-1.56155e-10
0.000658052
-1.49348e-10
0.000658052
-1.43385e-10
0.000658052
-1.37921e-10
0.000658052
-1.32681e-10
0.000658051
-1.27292e-10
0.000658051
-1.2108e-10
0.000658051
-1.13884e-10
0.000658051
-1.06017e-10
0.000658051
-9.73313e-11
0.000658051
-8.78543e-11
0.000658051
-7.81784e-11
0.000658051
-6.86147e-11
0.000658051
-5.89458e-11
0.000658051
-4.94189e-11
0.000658051
-4.00601e-11
0.00065805
-3.04506e-11
0.00065805
-2.01356e-11
0.00065805
-8.33333e-12
0.00065805
5.8686e-12
0.00065805
2.3665e-11
0.00065805
4.62503e-11
0.00065805
7.59642e-11
0.00065805
1.15597e-10
0.00065805
1.67558e-10
0.00065805
2.34923e-10
0.00065805
3.18785e-10
0.00065805
4.18618e-10
0.00065805
5.23006e-10
0.00065805
6.1627e-10
0.00065805
6.93164e-10
0.00065805
7.52336e-10
0.00065805
7.94413e-10
0.00065805
8.20981e-10
0.00065805
8.34544e-10
0.00065805
8.37354e-10
0.00065805
8.31132e-10
0.00065805
8.18044e-10
0.00065805
7.9973e-10
0.00065805
7.76848e-10
0.00065805
7.50334e-10
0.00065805
7.21341e-10
0.00065805
6.90307e-10
0.00065805
6.57866e-10
0.00065805
6.2407e-10
0.00065805
5.89043e-10
0.00065805
5.53351e-10
0.00065805
5.17247e-10
0.00065805
4.80719e-10
0.00065805
4.43796e-10
0.00065805
4.06764e-10
0.00065805
3.69792e-10
0.00065805
3.32704e-10
0.00065805
2.95716e-10
0.00065805
2.58839e-10
0.00065805
2.21921e-10
0.00065805
1.85016e-10
0.00065805
1.48151e-10
0.00065805
1.11519e-10
0.00065805
7.46621e-11
0.00065805
3.77511e-11
0.00065805
7.3517e-13
0.00065805
-3.65369e-11
0.00065805
-7.37934e-11
0.00065805
-1.11108e-10
0.000658051
-1.48491e-10
0.000658051
-1.8619e-10
0.000658051
-2.23935e-10
0.000658051
-2.61604e-10
0.000658051
-2.99265e-10
0.000658051
-3.36589e-10
0.000658051
-3.73562e-10
0.000658051
-4.0988e-10
0.000658051
-4.45316e-10
0.000658051
-4.79687e-10
0.000658051
-5.12413e-10
0.000658051
-5.42766e-10
0.000658051
-5.70203e-10
0.000658051
-5.93967e-10
0.000658051
-6.12881e-10
0.000658051
-6.25461e-10
0.000658051
-6.30268e-10
0.000658051
-6.24994e-10
0.000658052
-6.06346e-10
0.000658052
-5.71593e-10
0.000658052
-5.19075e-10
0.000658052
-4.48854e-10
0.000658052
-3.71876e-10
0.000658052
-3.02659e-10
0.000658052
-2.45349e-10
0.000658052
-2.00095e-10
0.000658052
-1.65153e-10
0.000658052
-1.378e-10
0.000658052
-1.15013e-10
0.000658052
-9.31884e-11
0.000658053
-6.91642e-11
0.000658053
-4.0102e-11
0.000658053
-3.09588e-12
0.000658053
4.37706e-11
0.000658053
1.01731e-10
0.000658053
1.61745e-10
0.000658053
1.51415e-10
-1.5375e-10
0.00064264
-5.30163e-10
0.00064264
-6.02332e-10
0.00064264
-5.63235e-10
0.00064264
-4.98484e-10
0.00064264
-4.3362e-10
0.00064264
-3.75221e-10
0.00064264
-3.24007e-10
0.00064264
-2.79378e-10
0.00064264
-2.40853e-10
0.00064264
-2.077e-10
0.00064264
-1.78942e-10
0.000642639
-1.53951e-10
0.000642639
-1.32295e-10
0.000642639
-1.13619e-10
0.000642639
-9.74445e-11
0.000642639
-8.34216e-11
0.000642639
-7.14e-11
0.000642639
-6.15025e-11
0.000642639
-5.33948e-11
0.000642639
-4.65986e-11
0.000642639
-4.07642e-11
0.000642639
-3.53281e-11
0.000642638
-2.98857e-11
0.000642638
-2.37152e-11
0.000642638
-1.64819e-11
0.000642638
-8.48266e-12
0.000642638
2.261e-13
0.000642638
9.65314e-12
0.000642638
1.90969e-11
0.000642638
2.82949e-11
0.000642638
3.73662e-11
0.000642638
4.58606e-11
0.000642638
5.40257e-11
0.000642637
6.22681e-11
0.000642637
7.08303e-11
0.000642637
8.06143e-11
0.000642637
9.25511e-11
0.000642637
1.07736e-10
0.000642637
1.27247e-10
0.000642637
1.53354e-10
0.000642637
1.88433e-10
0.000642637
2.34333e-10
0.000642637
2.93319e-10
0.000642637
3.65713e-10
0.000642637
4.50367e-10
0.000642637
5.38345e-10
0.000642637
6.18001e-10
0.000642637
6.84917e-10
0.000642637
7.37325e-10
0.000642637
7.75402e-10
0.000642637
7.99967e-10
0.000642637
8.12771e-10
0.000642637
8.15526e-10
0.000642637
8.09432e-10
0.000642637
7.96637e-10
0.000642637
7.78562e-10
0.000642637
7.55664e-10
0.000642637
7.28957e-10
0.000642637
6.99499e-10
0.000642637
6.67876e-10
0.000642637
6.3483e-10
0.000642637
6.00234e-10
0.000642637
5.64228e-10
0.000642637
5.27502e-10
0.000642637
4.90299e-10
0.000642637
4.52624e-10
0.000642637
4.14451e-10
0.000642637
3.76101e-10
0.000642637
3.37704e-10
0.000642637
2.99169e-10
0.000642637
2.60747e-10
0.000642637
2.22291e-10
0.000642637
1.83823e-10
0.000642637
1.45488e-10
0.000642637
1.07091e-10
0.000642637
6.87831e-11
0.000642637
3.03252e-11
0.000642637
-8.06689e-12
0.000642638
-4.65344e-11
0.000642638
-8.5204e-11
0.000642638
-1.23913e-10
0.000642638
-1.62623e-10
0.000642638
-2.0119e-10
0.000642638
-2.39983e-10
0.000642638
-2.78803e-10
0.000642638
-3.1748e-10
0.000642638
-3.55927e-10
0.000642638
-3.93937e-10
0.000642638
-4.31419e-10
0.000642638
-4.67933e-10
0.000642638
-5.03335e-10
0.000642638
-5.37445e-10
0.000642638
-5.69712e-10
0.000642638
-5.99336e-10
0.000642638
-6.25784e-10
0.000642638
-6.48481e-10
0.000642639
-6.66324e-10
0.000642639
-6.78014e-10
0.000642639
-6.82326e-10
0.000642639
-6.77309e-10
0.000642639
-6.60486e-10
0.000642639
-6.29892e-10
0.000642639
-5.84381e-10
0.000642639
-5.2491e-10
0.000642639
-4.59723e-10
0.000642639
-3.99092e-10
0.000642639
-3.46316e-10
0.000642639
-3.01557e-10
0.000642639
-2.63483e-10
0.00064264
-2.30218e-10
0.00064264
-1.99077e-10
0.00064264
-1.66799e-10
0.00064264
-1.30466e-10
0.00064264
-8.74124e-11
0.00064264
-3.48122e-11
0.00064264
2.94548e-11
0.00064264
1.06859e-10
0.00064264
1.87496e-10
0.00064264
1.9008e-10
-1.47826e-10
0.000627548
-5.58562e-10
0.000627548
-6.32135e-10
0.000627548
-5.79773e-10
0.000627548
-4.98712e-10
0.000627548
-4.18215e-10
0.000627548
-3.45761e-10
0.000627548
-2.81966e-10
0.000627548
-2.2633e-10
0.000627548
-1.7842e-10
0.000627548
-1.37148e-10
0.000627548
-1.01327e-10
0.000627547
-7.03593e-11
0.000627547
-4.38107e-11
0.000627547
-2.0929e-11
0.000627547
-1.22982e-12
0.000627547
1.55293e-11
0.000627547
2.96843e-11
0.000627547
4.11054e-11
0.000627547
5.01703e-11
0.000627547
5.74041e-11
0.000627547
6.31774e-11
0.000627546
6.83754e-11
0.000627546
7.34793e-11
0.000627546
7.93193e-11
0.000627546
8.63766e-11
0.000627546
9.4211e-11
0.000627546
1.0271e-10
0.000627546
1.11763e-10
0.000627546
1.20523e-10
0.000627546
1.28858e-10
0.000627546
1.36806e-10
0.000627545
1.43756e-10
0.000627545
1.50012e-10
0.000627545
1.5607e-10
0.000627545
1.62115e-10
0.000627545
1.69004e-10
0.000627545
1.7784e-10
0.000627545
1.89555e-10
0.000627545
2.05081e-10
0.000627545
2.26592e-10
0.000627545
2.56162e-10
0.000627545
2.9529e-10
0.000627545
3.45644e-10
0.000627545
4.07008e-10
0.000627545
4.77887e-10
0.000627545
5.51215e-10
0.000627545
6.18195e-10
0.000627545
6.75005e-10
0.000627545
7.19738e-10
0.000627545
7.52384e-10
0.000627545
7.73542e-10
0.000627545
7.84301e-10
0.000627545
7.85836e-10
0.000627545
7.79204e-10
0.000627545
7.6617e-10
0.000627545
7.47885e-10
0.000627545
7.24786e-10
0.000627545
6.97958e-10
0.000627545
6.68227e-10
0.000627545
6.36198e-10
0.000627545
6.02648e-10
0.000627545
5.67404e-10
0.000627545
5.30826e-10
0.000627545
4.93478e-10
0.000627545
4.55379e-10
0.000627545
4.16774e-10
0.000627545
3.77689e-10
0.000627545
3.38273e-10
0.000627545
2.98887e-10
0.000627545
2.59292e-10
0.000627545
2.19704e-10
0.000627545
1.80119e-10
0.000627545
1.40472e-10
0.000627545
1.009e-10
0.000627545
6.12427e-11
0.000627545
2.17616e-11
0.000627546
-1.78396e-11
0.000627546
-5.74966e-11
0.000627546
-9.72283e-11
0.000627546
-1.37081e-10
0.000627546
-1.76857e-10
0.000627546
-2.16604e-10
0.000627546
-2.56244e-10
0.000627546
-2.95817e-10
0.000627546
-3.3531e-10
0.000627546
-3.74781e-10
0.000627546
-4.13809e-10
0.000627546
-4.52191e-10
0.000627546
-4.8999e-10
0.000627546
-5.26667e-10
0.000627546
-5.61986e-10
0.000627546
-5.95645e-10
0.000627546
-6.27178e-10
0.000627546
-6.55995e-10
0.000627547
-6.81474e-10
0.000627547
-7.0311e-10
0.000627547
-7.19903e-10
0.000627547
-7.30662e-10
0.000627547
-7.34569e-10
0.000627547
-7.30119e-10
0.000627547
-7.15232e-10
0.000627547
-6.88486e-10
0.000627547
-6.49229e-10
0.000627547
-5.9878e-10
0.000627547
-5.43307e-10
0.000627547
-4.90252e-10
0.000627547
-4.42023e-10
0.000627547
-3.98391e-10
0.000627548
-3.58358e-10
0.000627548
-3.20387e-10
0.000627548
-2.81837e-10
0.000627548
-2.399e-10
0.000627548
-1.91956e-10
0.000627548
-1.35214e-10
0.000627548
-6.69487e-11
0.000627548
1.49339e-11
0.000627548
1.12025e-10
0.000627548
2.13933e-10
0.000627548
2.31565e-10
-1.35931e-10
0.000612772
-5.77192e-10
0.000612772
-6.51394e-10
0.000612772
-5.85521e-10
0.000612772
-4.88036e-10
0.000612772
-3.91847e-10
0.000612772
-3.05444e-10
0.000612772
-2.29423e-10
0.000612772
-1.63104e-10
0.000612772
-1.05951e-10
0.000612772
-5.68445e-11
0.000612771
-1.42866e-11
0.000612771
2.23271e-11
0.000612771
5.34883e-11
0.000612771
8.01871e-11
0.000612771
1.02935e-10
0.000612771
1.22202e-10
0.000612771
1.38174e-10
0.000612771
1.5072e-10
0.000612771
1.60304e-10
0.000612771
1.67466e-10
0.00061277
1.72853e-10
0.00061277
1.77385e-10
0.00061277
1.81633e-10
0.00061277
1.86812e-10
0.00061277
1.93312e-10
0.00061277
2.00585e-10
0.00061277
2.08618e-10
0.00061277
2.16873e-10
0.00061277
2.24574e-10
0.000612769
2.31557e-10
0.000612769
2.37746e-10
0.000612769
2.42523e-10
0.000612769
2.4608e-10
0.000612769
2.49055e-10
0.000612769
2.51773e-10
0.000612769
2.54958e-10
0.000612769
2.5974e-10
0.000612769
2.6706e-10
0.000612769
2.77755e-10
0.000612769
2.93795e-10
0.000612769
3.17176e-10
0.000612768
3.49018e-10
0.000612768
3.90501e-10
0.000612768
4.41291e-10
0.000612768
4.99573e-10
0.000612768
5.59726e-10
0.000612768
6.14968e-10
0.000612768
6.61899e-10
0.000612768
6.98721e-10
0.000612768
7.25377e-10
0.000612768
7.4214e-10
0.000612769
7.49786e-10
0.000612769
7.49247e-10
0.000612769
7.41349e-10
0.000612769
7.27472e-10
0.000612769
7.0862e-10
0.000612769
6.85117e-10
0.000612769
6.57975e-10
0.000612769
6.28094e-10
0.000612769
5.95793e-10
0.000612769
5.61789e-10
0.000612769
5.26123e-10
0.000612769
4.89177e-10
0.000612769
4.51441e-10
0.000612769
4.1277e-10
0.000612769
3.73549e-10
0.000612769
3.3378e-10
0.000612769
2.93565e-10
0.000612769
2.53511e-10
0.000612769
2.13192e-10
0.000612769
1.7284e-10
0.000612769
1.32499e-10
0.000612769
9.20036e-11
0.000612769
5.14319e-11
0.000612769
1.0795e-11
0.00061277
-2.94956e-11
0.00061277
-6.99775e-11
0.00061277
-1.1061e-10
0.00061277
-1.51233e-10
0.00061277
-1.91981e-10
0.00061277
-2.32594e-10
0.00061277
-2.73098e-10
0.00061277
-3.13451e-10
0.00061277
-3.53639e-10
0.00061277
-3.93631e-10
0.00061277
-4.33456e-10
0.00061277
-4.72776e-10
0.00061277
-5.11448e-10
0.00061277
-5.49375e-10
0.00061277
-5.85979e-10
0.00061277
-6.21015e-10
0.00061277
-6.54155e-10
0.000612771
-6.84957e-10
0.000612771
-7.1281e-10
0.000612771
-7.37172e-10
0.000612771
-7.57639e-10
0.000612771
-7.73398e-10
0.000612771
-7.83274e-10
0.000612771
-7.86747e-10
0.000612771
-7.82939e-10
0.000612771
-7.69997e-10
0.000612771
-7.46795e-10
0.000612771
-7.13119e-10
0.000612771
-6.70252e-10
0.000612771
-6.22897e-10
0.000612771
-5.76309e-10
0.000612771
-5.32184e-10
0.000612771
-4.89975e-10
0.000612772
-4.48484e-10
0.000612772
-4.06367e-10
0.000612772
-3.61089e-10
0.000612772
-3.09993e-10
0.000612772
-2.50863e-10
0.000612772
-1.80826e-10
0.000612772
-9.69781e-11
0.000612772
2.56458e-12
0.000612772
1.19491e-10
0.000612772
2.43146e-10
0.000612772
2.7803e-10
-1.16014e-10
0.000598307
-5.84068e-10
0.000598307
-6.5847e-10
0.000598307
-5.78997e-10
0.000598307
-4.65218e-10
0.000598307
-3.53594e-10
0.000598307
-2.53533e-10
0.000598307
-1.65782e-10
0.000598306
-8.93822e-11
0.000598306
-2.34326e-11
0.000598306
3.31672e-11
0.000598306
8.17857e-11
0.000598306
1.23481e-10
0.000598306
1.58932e-10
0.000598306
1.88986e-10
0.000598306
2.14366e-10
0.000598306
2.35655e-10
0.000598306
2.52966e-10
0.000598305
2.66147e-10
0.000598305
2.75707e-10
0.000598305
2.82339e-10
0.000598305
2.86912e-10
0.000598305
2.90202e-10
0.000598305
2.93087e-10
0.000598305
2.97204e-10
0.000598305
3.02702e-10
0.000598305
3.09108e-10
0.000598304
3.16336e-10
0.000598304
3.23389e-10
0.000598304
3.29638e-10
0.000598304
3.34668e-10
0.000598304
3.38217e-10
0.000598304
3.40006e-10
0.000598304
3.40176e-10
0.000598304
3.39226e-10
0.000598304
3.37657e-10
0.000598304
3.36216e-10
0.000598303
3.35947e-10
0.000598303
3.37987e-10
0.000598303
3.43117e-10
0.000598303
3.53099e-10
0.000598303
3.69823e-10
0.000598303
3.93986e-10
0.000598303
4.26469e-10
0.000598303
4.67083e-10
0.000598303
5.13763e-10
0.000598303
5.61986e-10
0.000598303
6.06579e-10
0.000598303
6.44262e-10
0.000598303
6.73218e-10
0.000598303
6.93734e-10
0.000598303
7.05704e-10
0.000598303
7.0956e-10
0.000598303
7.0636e-10
0.000598303
6.96629e-10
0.000598303
6.81448e-10
0.000598303
6.6172e-10
0.000598304
6.37686e-10
0.000598304
6.10054e-10
0.000598304
5.79876e-10
0.000598304
5.47317e-10
0.000598304
5.12993e-10
0.000598304
4.77199e-10
0.000598304
4.39936e-10
0.000598304
4.01833e-10
0.000598304
3.63019e-10
0.000598304
3.23534e-10
0.000598304
2.83304e-10
0.000598304
2.42705e-10
0.000598304
2.02159e-10
0.000598304
1.61369e-10
0.000598304
1.20627e-10
0.000598304
7.97716e-11
0.000598304
3.87221e-11
0.000598304
-2.39322e-12
0.000598304
-4.36868e-11
0.000598304
-8.4743e-11
0.000598305
-1.25908e-10
0.000598305
-1.67086e-10
0.000598305
-2.0823e-10
0.000598305
-2.49568e-10
0.000598305
-2.90747e-10
0.000598305
-3.31803e-10
0.000598305
-3.72553e-10
0.000598305
-4.13127e-10
0.000598305
-4.53473e-10
0.000598305
-4.93395e-10
0.000598305
-5.32788e-10
0.000598305
-5.71557e-10
0.000598305
-6.09314e-10
0.000598305
-6.45583e-10
0.000598305
-6.80226e-10
0.000598305
-7.12779e-10
0.000598305
-7.42707e-10
0.000598306
-7.69422e-10
0.000598306
-7.9265e-10
0.000598306
-8.11947e-10
0.000598306
-8.26511e-10
0.000598306
-8.3544e-10
0.000598306
-8.38505e-10
0.000598306
-8.35297e-10
0.000598306
-8.24161e-10
0.000598306
-8.04259e-10
0.000598306
-7.75452e-10
0.000598306
-7.38957e-10
0.000598306
-6.98552e-10
0.000598306
-6.57527e-10
0.000598306
-6.16837e-10
0.000598306
-5.75768e-10
0.000598306
-5.3282e-10
0.000598307
-4.86599e-10
0.000598307
-4.34801e-10
0.000598307
-3.7483e-10
0.000598307
-3.04554e-10
0.000598307
-2.21378e-10
0.000598307
-1.22218e-10
0.000598307
-5.14642e-12
0.000598307
1.31682e-10
0.000598307
2.77526e-10
0.000598307
3.31677e-10
-8.59666e-11
0.000584147
-5.77231e-10
0.000584147
-6.5191e-10
0.000584147
-5.59039e-10
0.000584147
-4.29242e-10
0.000584147
-3.02783e-10
0.000584147
-1.89728e-10
0.000584147
-9.07067e-11
0.000584147
-4.92396e-12
0.000584147
6.8857e-11
0.000584146
1.32193e-10
0.000584146
1.86304e-10
0.000584146
2.32385e-10
0.000584146
2.71463e-10
0.000584146
3.04381e-10
0.000584146