/*--------------------------------*- C++ -*----------------------------------*\
  =========                 |
  \\      /  F ield         | OpenFOAM: The Open Source CFD Toolbox
   \\    /   O peration     | Website:  https://openfoam.org
    \\  /    A nd           | Version:  7
     \\/     M anipulation  |
\*---------------------------------------------------------------------------*/
FoamFile
{
    version     2.0;
    format      ascii;
    class       volScalarField;
    location    "500";
    object      nut;
}
// * * * * * * * * * * * * * * * * * * * * * * * * * * * * * * * * * * * * * //

dimensions      [0 2 -1 0 0 0 0];

internalField   nonuniform List<scalar> 
3974
(
0.000143816
0.000143798
0.000143783
0.00014377
0.000143759
0.00014375
0.000143743
0.000143736
0.000143731
0.000143727
0.000143723
0.00014372
0.000143719
0.000143718
0.000143717
0.000143718
0.000143719
0.00014372
0.000143722
0.000143725
0.000143728
0.000143731
0.000143735
0.000143739
0.000143743
0.000143747
0.000143751
0.000143756
0.00014376
0.000143764
0.000143768
0.000143771
0.000143775
0.000143778
0.000143781
0.000143784
0.000143787
0.000143785
0.000152643
0.000152631
0.000152596
0.000152568
0.000152547
0.000152529
0.000152515
0.000152503
0.000152493
0.000152484
0.000152477
0.000152471
0.000152467
0.000152463
0.00015246
0.000152458
0.000152458
0.000152457
0.000152458
0.000152459
0.000152461
0.000152464
0.000152467
0.00015247
0.000152473
0.000152477
0.000152481
0.000152485
0.00015249
0.000152494
0.000152498
0.000152501
0.000152505
0.000152508
0.000152511
0.000152514
0.000152516
0.000152518
0.00015252
0.000152515
0.000152557
0.000152575
0.000162807
0.000162816
0.000162784
0.000162761
0.000162732
0.000162705
0.00016268
0.00016266
0.000162643
0.000162628
0.000162616
0.000162606
0.000162597
0.00016259
0.000162584
0.00016258
0.000162577
0.000162574
0.000162573
0.000162573
0.000162573
0.000162574
0.000162576
0.000162578
0.000162581
0.000162584
0.000162588
0.000162592
0.000162596
0.0001626
0.000162604
0.000162608
0.000162611
0.000162614
0.000162617
0.00016262
0.000162622
0.000162624
0.000162625
0.000162626
0.000162627
0.000162622
0.000162641
0.000162653
0.00016273
0.000162774
0.000162797
0.000162812
0.000162825
0.000162835
0.000162844
0.000162851
0.000162857
0.000162862
0.000162866
0.00016287
0.000162872
0.000162876
0.000162865
0.000174518
0.000174536
0.000174519
0.000174498
0.000174475
0.00017445
0.000174426
0.000174405
0.000174387
0.000174371
0.000174357
0.000174346
0.000174336
0.000174328
0.000174322
0.000174317
0.000174313
0.000174311
0.000174309
0.000174309
0.000174309
0.00017431
0.000174312
0.000174315
0.000174318
0.000174321
0.000174325
0.000174329
0.000174332
0.000174336
0.00017434
0.000174343
0.000174346
0.000174349
0.000174351
0.000174353
0.000174354
0.000174355
0.000174355
0.000174354
0.000174354
0.000174349
0.000174354
0.000174359
0.000174397
0.000174438
0.000174467
0.000174487
0.000174502
0.000174514
0.000174523
0.00017453
0.000174536
0.000174541
0.000174544
0.000174547
0.000174548
0.000174553
0.000174533
0.00018808
0.000188109
0.000188103
0.000188088
0.00018807
0.000188049
0.000188028
0.000188009
0.00018799
0.000187974
0.000187961
0.000187949
0.000187939
0.000187931
0.000187924
0.000187919
0.000187915
0.000187913
0.000187911
0.000187911
0.000187912
0.000187914
0.000187916
0.000187919
0.000187922
0.000187925
0.000187929
0.000187933
0.000187937
0.00018794
0.000187943
0.000187946
0.000187948
0.00018795
0.000187951
0.000187952
0.000187952
0.000187951
0.000187949
0.000187947
0.000187944
0.000187939
0.000187937
0.000187935
0.000187951
0.000187977
0.000188002
0.000188022
0.000188038
0.000188049
0.000188058
0.000188065
0.00018807
0.000188074
0.000188076
0.000188077
0.000188077
0.000188082
0.000188052
0.000203736
0.000203778
0.00020378
0.000203771
0.000203757
0.000203742
0.000203725
0.000203708
0.000203692
0.000203677
0.000203664
0.000203653
0.000203643
0.000203635
0.000203629
0.000203625
0.000203622
0.00020362
0.000203619
0.000203619
0.000203621
0.000203623
0.000203626
0.000203629
0.000203633
0.000203637
0.00020364
0.000203644
0.000203648
0.000203651
0.000203653
0.000203655
0.000203657
0.000203657
0.000203657
0.000203656
0.000203654
0.000203651
0.000203648
0.000203643
0.000203638
0.000203631
0.000203624
0.000203618
0.00020362
0.000203631
0.000203647
0.000203662
0.000203675
0.000203685
0.000203692
0.000203697
0.0002037
0.000203702
0.000203703
0.000203703
0.0002037
0.000203706
0.000203664
0.000221712
0.000221767
0.000221776
0.000221772
0.000221763
0.000221753
0.00022174
0.000221727
0.000221714
0.000221702
0.000221691
0.000221681
0.000221673
0.000221667
0.000221662
0.000221659
0.000221657
0.000221656
0.000221657
0.000221658
0.00022166
0.000221663
0.000221667
0.000221671
0.000221675
0.000221679
0.000221683
0.000221687
0.00022169
0.000221693
0.000221695
0.000221696
0.000221696
0.000221695
0.000221693
0.00022169
0.000221686
0.00022168
0.000221674
0.000221667
0.000221659
0.000221649
0.000221639
0.000221628
0.000221621
0.00022162
0.000221625
0.000221632
0.00022164
0.000221645
0.000221649
0.000221652
0.000221652
0.000221652
0.00022165
0.000221647
0.000221641
0.000221647
0.000221593
0.00024221
0.00024228
0.000242295
0.000242295
0.000242292
0.000242286
0.000242278
0.00024227
0.000242261
0.000242252
0.000242245
0.000242238
0.000242232
0.000242228
0.000242225
0.000242224
0.000242224
0.000242225
0.000242227
0.00024223
0.000242234
0.000242238
0.000242243
0.000242248
0.000242252
0.000242257
0.000242261
0.000242265
0.000242267
0.000242269
0.00024227
0.00024227
0.000242268
0.000242265
0.000242261
0.000242256
0.000242249
0.000242241
0.000242231
0.000242221
0.000242209
0.000242196
0.000242182
0.000242167
0.000242153
0.000242143
0.000242137
0.000242135
0.000242135
0.000242135
0.000242134
0.000242132
0.000242129
0.000242125
0.000242119
0.000242113
0.000242104
0.000242108
0.000242042
0.000265408
0.000265494
0.000265515
0.00026552
0.00026552
0.000265519
0.000265516
0.000265513
0.000265509
0.000265505
0.000265502
0.000265499
0.000265497
0.000265496
0.000265496
0.000265497
0.0002655
0.000265503
0.000265507
0.000265512
0.000265518
0.000265524
0.00026553
0.000265536
0.000265541
0.000265546
0.00026555
0.000265554
0.000265556
0.000265557
0.000265556
0.000265554
0.00026555
0.000265545
0.000265538
0.00026553
0.00026552
0.000265508
0.000265495
0.000265481
0.000265465
0.000265448
0.00026543
0.000265411
0.000265391
0.000265373
0.000265358
0.000265347
0.000265338
0.00026533
0.000265323
0.000265315
0.000265307
0.000265298
0.000265289
0.000265279
0.000265265
0.000265268
0.000265188
0.000291455
0.000291559
0.000291585
0.000291594
0.000291599
0.000291602
0.000291605
0.000291607
0.000291608
0.00029161
0.000291611
0.000291613
0.000291615
0.000291619
0.000291623
0.000291628
0.000291633
0.00029164
0.000291647
0.000291654
0.000291662
0.00029167
0.000291677
0.000291684
0.000291691
0.000291696
0.0002917
0.000291703
0.000291704
0.000291704
0.000291701
0.000291697
0.000291691
0.000291683
0.000291673
0.000291661
0.000291647
0.000291632
0.000291615
0.000291596
0.000291575
0.000291554
0.000291531
0.000291506
0.000291481
0.000291456
0.000291434
0.000291413
0.000291395
0.000291379
0.000291365
0.00029135
0.000291336
0.000291322
0.000291307
0.000291293
0.000291274
0.000291275
0.000291179
0.000320472
0.000320595
0.000320628
0.000320641
0.00032065
0.000320658
0.000320666
0.000320673
0.000320681
0.000320688
0.000320695
0.000320702
0.00032071
0.000320718
0.000320727
0.000320736
0.000320746
0.000320756
0.000320766
0.000320777
0.000320787
0.000320797
0.000320806
0.000320815
0.000320822
0.000320827
0.000320831
0.000320833
0.000320833
0.000320831
0.000320826
0.00032082
0.00032081
0.000320799
0.000320785
0.000320769
0.000320751
0.000320731
0.000320709
0.000320685
0.00032066
0.000320633
0.000320605
0.000320575
0.000320544
0.000320513
0.000320483
0.000320454
0.000320428
0.000320403
0.00032038
0.000320359
0.000320338
0.000320317
0.000320296
0.000320277
0.000320252
0.00032025
0.000320139
0.000352556
0.000352699
0.00035274
0.000352757
0.00035277
0.000352783
0.000352796
0.000352809
0.000352823
0.000352836
0.000352849
0.000352863
0.000352876
0.00035289
0.000352904
0.000352919
0.000352933
0.000352948
0.000352962
0.000352976
0.000352989
0.000353001
0.000353012
0.000353022
0.00035303
0.000353035
0.000353039
0.00035304
0.000353038
0.000353033
0.000353026
0.000353016
0.000353003
0.000352988
0.00035297
0.000352949
0.000352926
0.000352901
0.000352874
0.000352844
0.000352813
0.000352781
0.000352746
0.000352711
0.000352674
0.000352637
0.0003526
0.000352563
0.000352528
0.000352496
0.000352464
0.000352435
0.000352406
0.000352379
0.000352352
0.000352326
0.000352295
0.00035229
0.000352163
0.00038778
0.000387945
0.000387994
0.000388016
0.000388034
0.000388052
0.00038807
0.000388089
0.000388109
0.000388128
0.000388148
0.000388168
0.000388188
0.000388209
0.000388229
0.000388249
0.000388268
0.000388287
0.000388306
0.000388324
0.00038834
0.000388355
0.000388368
0.000388378
0.000388387
0.000388392
0.000388395
0.000388394
0.00038839
0.000388383
0.000388373
0.000388359
0.000388342
0.000388322
0.000388299
0.000388273
0.000388244
0.000388213
0.00038818
0.000388145
0.000388108
0.000388069
0.000388028
0.000387987
0.000387944
0.0003879
0.000387856
0.000387812
0.00038777
0.000387729
0.000387689
0.000387652
0.000387615
0.000387581
0.000387546
0.000387514
0.000387477
0.000387467
0.000387324
0.000426199
0.000426387
0.000426444
0.000426472
0.000426495
0.000426518
0.000426542
0.000426567
0.000426593
0.000426619
0.000426646
0.000426673
0.0004267
0.000426727
0.000426753
0.000426779
0.000426805
0.000426829
0.000426852
0.000426873
0.000426893
0.00042691
0.000426925
0.000426937
0.000426945
0.00042695
0.000426952
0.000426949
0.000426943
0.000426932
0.000426918
0.0004269
0.000426878
0.000426853
0.000426824
0.000426793
0.000426758
0.000426721
0.000426681
0.000426639
0.000426595
0.00042655
0.000426503
0.000426454
0.000426405
0.000426355
0.000426304
0.000426253
0.000426203
0.000426154
0.000426107
0.000426061
0.000426017
0.000425975
0.000425933
0.000425894
0.00042585
0.000425835
0.000425676
0.00046785
0.000468062
0.000468128
0.000468162
0.00046819
0.000468219
0.000468249
0.00046828
0.000468312
0.000468346
0.00046838
0.000468414
0.000468448
0.000468482
0.000468515
0.000468547
0.000468579
0.000468608
0.000468636
0.000468662
0.000468684
0.000468704
0.00046872
0.000468733
0.000468741
0.000468745
0.000468745
0.00046874
0.00046873
0.000468716
0.000468697
0.000468674
0.000468647
0.000468616
0.000468581
0.000468543
0.000468502
0.000468458
0.000468411
0.000468362
0.000468312
0.000468259
0.000468205
0.00046815
0.000468094
0.000468037
0.000467979
0.000467921
0.000467864
0.000467808
0.000467753
0.0004677
0.000467648
0.000467598
0.000467549
0.000467502
0.000467451
0.00046743
0.000467256
0.000512755
0.000512992
0.000513068
0.000513109
0.000513143
0.000513177
0.000513213
0.000513251
0.00051329
0.000513331
0.000513372
0.000513413
0.000513455
0.000513496
0.000513536
0.000513575
0.000513612
0.000513647
0.00051368
0.000513709
0.000513735
0.000513757
0.000513775
0.000513787
0.000513795
0.000513798
0.000513795
0.000513787
0.000513774
0.000513755
0.000513732
0.000513703
0.00051367
0.000513632
0.000513591
0.000513546
0.000513497
0.000513446
0.000513392
0.000513336
0.000513277
0.000513218
0.000513156
0.000513094
0.000513031
0.000512967
0.000512903
0.000512838
0.000512774
0.000512711
0.000512649
0.000512588
0.000512528
0.000512471
0.000512414
0.00051236
0.000512301
0.000512275
0.000512086
0.000560924
0.000561187
0.000561273
0.000561321
0.000561362
0.000561402
0.000561445
0.00056149
0.000561536
0.000561583
0.000561632
0.000561681
0.00056173
0.000561778
0.000561825
0.000561871
0.000561914
0.000561955
0.000561992
0.000562025
0.000562054
0.000562077
0.000562096
0.000562109
0.000562115
0.000562116
0.000562111
0.000562099
0.000562081
0.000562057
0.000562028
0.000561993
0.000561953
0.000561909
0.00056186
0.000561807
0.000561751
0.000561692
0.00056163
0.000561567
0.000561501
0.000561433
0.000561365
0.000561295
0.000561225
0.000561154
0.000561083
0.000561012
0.000560941
0.000560871
0.000560801
0.000560733
0.000560667
0.000560602
0.000560538
0.000560476
0.00056041
0.000560377
0.000560174
0.000612353
0.000612644
0.000612741
0.000612796
0.000612844
0.000612891
0.000612941
0.000612992
0.000613046
0.000613101
0.000613157
0.000613214
0.00061327
0.000613326
0.00061338
0.000613432
0.000613481
0.000613527
0.000613568
0.000613604
0.000613636
0.000613661
0.00061368
0.000613692
0.000613697
0.000613695
0.000613686
0.00061367
0.000613647
0.000613617
0.000613581
0.00061354
0.000613493
0.000613441
0.000613384
0.000613324
0.00061326
0.000613192
0.000613123
0.000613051
0.000612977
0.000612902
0.000612826
0.000612749
0.000612671
0.000612593
0.000612516
0.000612438
0.00061236
0.000612284
0.000612208
0.000612133
0.000612059
0.000611987
0.000611916
0.000611847
0.000611773
0.000611733
0.000611518
0.000667029
0.000667348
0.000667457
0.00066752
0.000667574
0.000667629
0.000667686
0.000667745
0.000667806
0.000667868
0.000667932
0.000667996
0.00066806
0.000668123
0.000668184
0.000668242
0.000668297
0.000668347
0.000668393
0.000668432
0.000668465
0.000668491
0.00066851
0.00066852
0.000668523
0.000668518
0.000668504
0.000668483
0.000668455
0.000668419
0.000668376
0.000668327
0.000668272
0.000668212
0.000668147
0.000668078
0.000668006
0.00066793
0.000667852
0.000667772
0.00066769
0.000667607
0.000667524
0.000667439
0.000667355
0.00066727
0.000667185
0.000667101
0.000667017
0.000666934
0.000666852
0.00066677
0.00066669
0.000666611
0.000666532
0.000666456
0.000666376
0.000666328
0.000666101
0.000724924
0.000725273
0.000725393
0.000725464
0.000725526
0.000725589
0.000725653
0.000725719
0.000725788
0.000725858
0.00072593
0.000726002
0.000726073
0.000726143
0.00072621
0.000726275
0.000726335
0.000726389
0.000726438
0.00072648
0.000726514
0.00072654
0.000726558
0.000726567
0.000726566
0.000726557
0.000726538
0.000726512
0.000726476
0.000726433
0.000726383
0.000726326
0.000726263
0.000726194
0.000726121
0.000726044
0.000725962
0.000725878
0.000725792
0.000725703
0.000725613
0.000725522
0.000725431
0.000725339
0.000725247
0.000725156
0.000725065
0.000724974
0.000724884
0.000724795
0.000724706
0.000724618
0.000724531
0.000724446
0.000724361
0.000724277
0.00072419
0.000724135
0.000723898
0.000786
0.000786378
0.000786511
0.000786591
0.000786661
0.000786731
0.000786803
0.000786877
0.000786954
0.000787032
0.000787111
0.00078719
0.000787269
0.000787346
0.000787419
0.000787489
0.000787554
0.000787613
0.000787664
0.000787708
0.000787743
0.000787768
0.000787784
0.00078779
0.000787786
0.000787771
0.000787747
0.000787714
0.000787672
0.000787621
0.000787562
0.000787497
0.000787425
0.000787348
0.000787265
0.000787179
0.000787089
0.000786996
0.000786901
0.000786804
0.000786706
0.000786607
0.000786508
0.000786409
0.00078631
0.000786212
0.000786114
0.000786017
0.000785921
0.000785826
0.000785731
0.000785638
0.000785544
0.000785452
0.00078536
0.00078527
0.000785176
0.000785113
0.000784868
0.000850204
0.000850613
0.000850759
0.000850847
0.000850925
0.000851003
0.000851083
0.000851166
0.00085125
0.000851336
0.000851423
0.00085151
0.000851596
0.000851679
0.000851759
0.000851834
0.000851903
0.000851965
0.000852019
0.000852063
0.000852098
0.000852122
0.000852135
0.000852138
0.000852128
0.000852109
0.000852078
0.000852037
0.000851987
0.000851928
0.000851861
0.000851786
0.000851706
0.000851619
0.000851527
0.000851432
0.000851333
0.000851231
0.000851127
0.000851022
0.000850915
0.000850809
0.000850702
0.000850596
0.000850491
0.000850386
0.000850282
0.000850179
0.000850077
0.000849976
0.000849876
0.000849776
0.000849677
0.000849578
0.00084948
0.000849383
0.000849282
0.000849211
0.00084896
0.000917472
0.000917912
0.000918071
0.000918168
0.000918254
0.00091834
0.000918428
0.000918519
0.000918612
0.000918706
0.0009188
0.000918894
0.000918987
0.000919077
0.000919162
0.000919242
0.000919315
0.000919379
0.000919435
0.00091948
0.000919513
0.000919535
0.000919545
0.000919543
0.000919528
0.000919502
0.000919464
0.000919415
0.000919357
0.000919289
0.000919213
0.000919129
0.000919038
0.000918942
0.000918841
0.000918736
0.000918628
0.000918517
0.000918405
0.000918291
0.000918177
0.000918062
0.000917949
0.000917835
0.000917723
0.000917612
0.000917502
0.000917394
0.000917286
0.000917179
0.000917073
0.000916968
0.000916863
0.000916759
0.000916654
0.000916551
0.000916443
0.000916364
0.000916109
0.000987724
0.000988195
0.000988367
0.000988473
0.000988568
0.000988662
0.000988758
0.000988857
0.000988958
0.00098906
0.000989162
0.000989264
0.000989363
0.000989458
0.000989549
0.000989633
0.000989709
0.000989776
0.000989832
0.000989876
0.000989908
0.000989927
0.000989933
0.000989925
0.000989904
0.000989871
0.000989825
0.000989768
0.0009897
0.000989623
0.000989537
0.000989444
0.000989344
0.000989238
0.000989127
0.000989013
0.000988895
0.000988775
0.000988654
0.000988532
0.00098841
0.000988288
0.000988167
0.000988047
0.000987929
0.000987812
0.000987696
0.000987582
0.000987469
0.000987356
0.000987245
0.000987134
0.000987024
0.000986914
0.000986803
0.000986694
0.00098658
0.000986492
0.000986235
0.00106086
0.00106137
0.00106155
0.00106167
0.00106177
0.00106187
0.00106198
0.00106209
0.00106219
0.0010623
0.00106241
0.00106252
0.00106263
0.00106273
0.00106282
0.00106291
0.00106299
0.00106306
0.00106311
0.00106316
0.00106319
0.0010632
0.0010632
0.00106319
0.00106316
0.00106312
0.00106307
0.001063
0.00106292
0.00106284
0.00106274
0.00106264
0.00106253
0.00106241
0.00106229
0.00106217
0.00106204
0.00106191
0.00106178
0.00106165
0.00106152
0.00106139
0.00106126
0.00106114
0.00106101
0.00106089
0.00106077
0.00106065
0.00106053
0.00106041
0.0010603
0.00106018
0.00106007
0.00105995
0.00105983
0.00105972
0.0010596
0.0010595
0.00105925
0.00113679
0.00113732
0.00113752
0.00113764
0.00113776
0.00113787
0.00113798
0.00113809
0.00113821
0.00113833
0.00113845
0.00113856
0.00113867
0.00113878
0.00113888
0.00113897
0.00113905
0.00113912
0.00113917
0.00113922
0.00113924
0.00113925
0.00113925
0.00113923
0.00113919
0.00113914
0.00113908
0.001139
0.00113892
0.00113882
0.00113871
0.0011386
0.00113848
0.00113835
0.00113822
0.00113809
0.00113795
0.00113782
0.00113768
0.00113754
0.0011374
0.00113727
0.00113713
0.001137
0.00113687
0.00113674
0.00113661
0.00113649
0.00113637
0.00113624
0.00113612
0.001136
0.00113588
0.00113576
0.00113564
0.00113552
0.00113539
0.00113528
0.00113503
0.00121536
0.00121593
0.00121614
0.00121627
0.00121639
0.00121651
0.00121663
0.00121676
0.00121688
0.00121701
0.00121713
0.00121725
0.00121737
0.00121748
0.00121759
0.00121768
0.00121776
0.00121783
0.00121788
0.00121792
0.00121794
0.00121795
0.00121794
0.00121791
0.00121787
0.00121781
0.00121774
0.00121765
0.00121755
0.00121745
0.00121733
0.00121721
0.00121707
0.00121694
0.0012168
0.00121666
0.00121651
0.00121637
0.00121622
0.00121607
0.00121593
0.00121579
0.00121565
0.00121551
0.00121537
0.00121524
0.00121511
0.00121498
0.00121485
0.00121472
0.0012146
0.00121447
0.00121434
0.00121422
0.00121409
0.00121396
0.00121383
0.00121372
0.00121347
0.00129646
0.00129706
0.00129728
0.00129742
0.00129755
0.00129767
0.0012978
0.00129793
0.00129807
0.0012982
0.00129833
0.00129846
0.00129858
0.0012987
0.0012988
0.0012989
0.00129898
0.00129905
0.0012991
0.00129914
0.00129915
0.00129915
0.00129914
0.0012991
0.00129905
0.00129898
0.0012989
0.0012988
0.0012987
0.00129858
0.00129845
0.00129832
0.00129818
0.00129803
0.00129788
0.00129773
0.00129757
0.00129742
0.00129727
0.00129711
0.00129696
0.00129681
0.00129667
0.00129652
0.00129638
0.00129624
0.0012961
0.00129597
0.00129584
0.00129571
0.00129558
0.00129545
0.00129532
0.00129518
0.00129505
0.00129492
0.00129478
0.00129466
0.00129442
0.00137991
0.00138054
0.00138077
0.00138092
0.00138106
0.00138119
0.00138133
0.00138147
0.00138161
0.00138175
0.00138188
0.00138202
0.00138215
0.00138227
0.00138237
0.00138247
0.00138256
0.00138262
0.00138267
0.0013827
0.00138272
0.00138271
0.00138268
0.00138264
0.00138258
0.0013825
0.00138241
0.0013823
0.00138219
0.00138206
0.00138192
0.00138178
0.00138163
0.00138147
0.00138131
0.00138115
0.00138099
0.00138083
0.00138066
0.0013805
0.00138034
0.00138019
0.00138004
0.00137989
0.00137974
0.0013796
0.00137946
0.00137932
0.00137918
0.00137905
0.00137891
0.00137878
0.00137864
0.00137851
0.00137837
0.00137823
0.00137809
0.00137795
0.00137773
0.00146555
0.00146621
0.00146645
0.00146661
0.00146676
0.0014669
0.00146704
0.00146719
0.00146733
0.00146748
0.00146762
0.00146776
0.00146789
0.00146802
0.00146813
0.00146823
0.00146831
0.00146838
0.00146842
0.00146845
0.00146846
0.00146845
0.00146841
0.00146836
0.00146829
0.0014682
0.0014681
0.00146799
0.00146786
0.00146772
0.00146757
0.00146742
0.00146726
0.00146709
0.00146692
0.00146675
0.00146658
0.00146641
0.00146624
0.00146607
0.00146591
0.00146575
0.00146559
0.00146544
0.00146528
0.00146514
0.00146499
0.00146485
0.00146471
0.00146457
0.00146443
0.00146429
0.00146415
0.00146401
0.00146387
0.00146372
0.00146358
0.00146344
0.00146323
0.00155319
0.00155388
0.00155414
0.0015543
0.00155445
0.0015546
0.00155475
0.0015549
0.00155506
0.00155521
0.00155536
0.0015555
0.00155564
0.00155576
0.00155588
0.00155598
0.00155606
0.00155612
0.00155617
0.00155619
0.00155619
0.00155617
0.00155613
0.00155607
0.00155599
0.0015559
0.00155578
0.00155566
0.00155552
0.00155537
0.00155521
0.00155505
0.00155488
0.0015547
0.00155453
0.00155435
0.00155417
0.00155399
0.00155382
0.00155364
0.00155347
0.0015533
0.00155314
0.00155298
0.00155283
0.00155267
0.00155252
0.00155238
0.00155223
0.00155209
0.00155195
0.00155181
0.00155166
0.00155152
0.00155137
0.00155122
0.00155107
0.00155092
0.00155073
0.00164264
0.00164335
0.00164362
0.00164379
0.00164395
0.0016441
0.00164426
0.00164442
0.00164458
0.00164473
0.00164489
0.00164504
0.00164518
0.0016453
0.00164542
0.00164552
0.0016456
0.00164566
0.0016457
0.00164572
0.00164572
0.00164569
0.00164565
0.00164558
0.00164549
0.00164538
0.00164526
0.00164513
0.00164498
0.00164482
0.00164465
0.00164448
0.0016443
0.00164411
0.00164393
0.00164374
0.00164355
0.00164337
0.00164319
0.00164301
0.00164283
0.00164266
0.00164249
0.00164232
0.00164217
0.00164201
0.00164186
0.00164171
0.00164156
0.00164141
0.00164127
0.00164112
0.00164097
0.00164082
0.00164067
0.00164052
0.00164036
0.0016402
0.00164004
0.00173367
0.00173441
0.00173468
0.00173486
0.00173502
0.00173519
0.00173535
0.00173551
0.00173568
0.00173584
0.001736
0.00173615
0.00173629
0.00173642
0.00173654
0.00173664
0.00173672
0.00173678
0.00173682
0.00173683
0.00173683
0.00173679
0.00173674
0.00173666
0.00173656
0.00173645
0.00173632
0.00173617
0.00173601
0.00173585
0.00173567
0.00173549
0.0017353
0.00173511
0.00173491
0.00173472
0.00173452
0.00173433
0.00173414
0.00173396
0.00173377
0.0017336
0.00173342
0.00173326
0.00173309
0.00173293
0.00173278
0.00173262
0.00173247
0.00173232
0.00173217
0.00173202
0.00173187
0.00173172
0.00173156
0.00173141
0.00173125
0.00173108
0.00173094
0.00182606
0.00182682
0.00182711
0.00182729
0.00182746
0.00182763
0.00182779
0.00182796
0.00182813
0.0018283
0.00182846
0.00182862
0.00182876
0.0018289
0.00182901
0.00182911
0.00182919
0.00182925
0.00182929
0.0018293
0.00182928
0.00182924
0.00182918
0.0018291
0.00182899
0.00182887
0.00182873
0.00182857
0.00182841
0.00182823
0.00182804
0.00182785
0.00182766
0.00182746
0.00182725
0.00182705
0.00182685
0.00182665
0.00182646
0.00182627
0.00182608
0.0018259
0.00182572
0.00182555
0.00182538
0.00182522
0.00182506
0.0018249
0.00182475
0.0018246
0.00182444
0.00182429
0.00182414
0.00182398
0.00182382
0.00182366
0.00182349
0.00182332
0.00182321
0.00191958
0.00192036
0.00192065
0.00192084
0.00192101
0.00192118
0.00192136
0.00192153
0.0019217
0.00192187
0.00192204
0.0019222
0.00192235
0.00192248
0.0019226
0.0019227
0.00192278
0.00192284
0.00192287
0.00192287
0.00192285
0.00192281
0.00192274
0.00192265
0.00192254
0.00192241
0.00192226
0.0019221
0.00192192
0.00192173
0.00192154
0.00192134
0.00192114
0.00192093
0.00192072
0.00192051
0.0019203
0.0019201
0.0019199
0.0019197
0.00191951
0.00191932
0.00191914
0.00191897
0.0019188
0.00191863
0.00191847
0.00191831
0.00191815
0.001918
0.00191784
0.00191768
0.00191753
0.00191737
0.00191721
0.00191704
0.00191687
0.00191669
0.00191661
0.00201397
0.00201478
0.00201507
0.00201527
0.00201544
0.00201561
0.00201579
0.00201597
0.00201614
0.00201632
0.00201649
0.00201665
0.0020168
0.00201693
0.00201705
0.00201715
0.00201723
0.00201729
0.00201731
0.00201732
0.00201729
0.00201724
0.00201717
0.00201707
0.00201695
0.00201682
0.00201666
0.00201649
0.00201631
0.00201611
0.00201591
0.0020157
0.00201549
0.00201528
0.00201506
0.00201485
0.00201463
0.00201442
0.00201422
0.00201402
0.00201382
0.00201363
0.00201344
0.00201327
0.00201309
0.00201292
0.00201276
0.0020126
0.00201244
0.00201228
0.00201212
0.00201196
0.0020118
0.00201164
0.00201147
0.00201131
0.00201113
0.00201095
0.00201089
0.00210899
0.00210981
0.00211011
0.00211031
0.00211048
0.00211066
0.00211084
0.00211102
0.0021112
0.00211137
0.00211154
0.00211171
0.00211186
0.002112
0.00211212
0.00211222
0.00211229
0.00211235
0.00211237
0.00211237
0.00211235
0.00211229
0.00211221
0.00211211
0.00211199
0.00211184
0.00211168
0.0021115
0.00211131
0.00211111
0.0021109
0.00211069
0.00211047
0.00211025
0.00211003
0.00210981
0.00210959
0.00210937
0.00210916
0.00210896
0.00210876
0.00210856
0.00210837
0.00210819
0.00210802
0.00210784
0.00210768
0.00210751
0.00210735
0.00210719
0.00210703
0.00210687
0.00210671
0.00210654
0.00210637
0.0021062
0.00210603
0.00210584
0.00210582
0.00220436
0.0022052
0.00220551
0.0022057
0.00220588
0.00220606
0.00220624
0.00220642
0.0022066
0.00220678
0.00220695
0.00220712
0.00220727
0.00220741
0.00220753
0.00220763
0.00220771
0.00220776
0.00220778
0.00220778
0.00220775
0.00220769
0.00220761
0.0022075
0.00220737
0.00220722
0.00220706
0.00220687
0.00220668
0.00220647
0.00220626
0.00220604
0.00220581
0.00220559
0.00220536
0.00220513
0.00220491
0.00220469
0.00220448
0.00220427
0.00220406
0.00220386
0.00220367
0.00220349
0.00220331
0.00220313
0.00220296
0.0022028
0.00220263
0.00220247
0.00220231
0.00220215
0.00220198
0.00220181
0.00220164
0.00220147
0.00220129
0.0022011
0.00220111
0.00229984
0.00230068
0.00230099
0.00230119
0.00230137
0.00230155
0.00230173
0.00230191
0.00230209
0.00230227
0.00230244
0.00230261
0.00230276
0.0023029
0.00230302
0.00230312
0.0023032
0.00230325
0.00230327
0.00230327
0.00230324
0.00230318
0.00230309
0.00230298
0.00230285
0.00230269
0.00230252
0.00230233
0.00230213
0.00230192
0.00230171
0.00230148
0.00230125
0.00230102
0.00230079
0.00230056
0.00230033
0.00230011
0.00229989
0.00229967
0.00229947
0.00229927
0.00229907
0.00229888
0.0022987
0.00229852
0.00229835
0.00229818
0.00229802
0.00229785
0.00229769
0.00229753
0.00229736
0.00229719
0.00229702
0.00229684
0.00229666
0.00229647
0.00229652
0.00239513
0.00239599
0.0023963
0.00239649
0.00239667
0.00239685
0.00239703
0.00239721
0.00239739
0.00239757
0.00239775
0.00239791
0.00239807
0.00239821
0.00239833
0.00239843
0.0023985
0.00239855
0.00239858
0.00239857
0.00239854
0.00239848
0.00239839
0.00239828
0.00239814
0.00239798
0.00239781
0.00239762
0.00239742
0.0023972
0.00239698
0.00239675
0.00239652
0.00239628
0.00239605
0.00239582
0.00239558
0.00239536
0.00239513
0.00239492
0.00239471
0.0023945
0.00239431
0.00239411
0.00239393
0.00239375
0.00239358
0.00239341
0.00239324
0.00239307
0.00239291
0.00239274
0.00239257
0.0023924
0.00239223
0.00239205
0.00239187
0.00239167
0.00239176
0.00248998
0.00249084
0.00249115
0.00249135
0.00249152
0.0024917
0.00249188
0.00249206
0.00249224
0.00249242
0.00249259
0.00249276
0.00249291
0.00249305
0.00249317
0.00249327
0.00249335
0.0024934
0.00249342
0.00249342
0.00249339
0.00249332
0.00249324
0.00249312
0.00249298
0.00249283
0.00249265
0.00249246
0.00249225
0.00249204
0.00249181
0.00249158
0.00249134
0.00249111
0.00249087
0.00249063
0.0024904
0.00249017
0.00248994
0.00248972
0.00248951
0.0024893
0.0024891
0.00248891
0.00248872
0.00248854
0.00248837
0.0024882
0.00248803
0.00248786
0.00248769
0.00248752
0.00248736
0.00248718
0.00248701
0.00248683
0.00248665
0.00248645
0.00248657
0.00258411
0.00258498
0.00258529
0.00258548
0.00258565
0.00258583
0.00258601
0.00258619
0.00258636
0.00258654
0.00258671
0.00258688
0.00258703
0.00258717
0.00258729
0.00258739
0.00258747
0.00258752
0.00258754
0.00258754
0.00258751
0.00258745
0.00258736
0.00258724
0.00258711
0.00258695
0.00258677
0.00258658
0.00258637
0.00258616
0.00258593
0.0025857
0.00258546
0.00258522
0.00258498
0.00258474
0.0025845
0.00258427
0.00258404
0.00258382
0.00258361
0.0025834
0.0025832
0.002583
0.00258281
0.00258263
0.00258245
0.00258228
0.00258211
0.00258194
0.00258177
0.00258161
0.00258144
0.00258126
0.00258109
0.00258091
0.00258073
0.00258053
0.00258069
0.00267726
0.00267813
0.00267843
0.00267862
0.0026788
0.00267897
0.00267914
0.00267932
0.00267949
0.00267967
0.00267984
0.00268
0.00268016
0.00268029
0.00268042
0.00268052
0.00268059
0.00268064
0.00268067
0.00268067
0.00268063
0.00268057
0.00268049
0.00268038
0.00268024
0.00268008
0.00267991
0.00267972
0.00267951
0.00267929
0.00267907
0.00267883
0.0026786
0.00267836
0.00267811
0.00267787
0.00267764
0.0026774
0.00267717
0.00267695
0.00267673
0.00267652
0.00267632
0.00267612
0.00267593
0.00267575
0.00267557
0.0026754
0.00267522
0.00267505
0.00267489
0.00267472
0.00267455
0.00267437
0.0026742
0.00267402
0.00267384
0.00267364
0.00267383
0.00276917
0.00277004
0.00277033
0.00277052
0.00277068
0.00277085
0.00277102
0.0027712
0.00277137
0.00277154
0.00277171
0.00277187
0.00277202
0.00277216
0.00277228
0.00277238
0.00277246
0.00277251
0.00277254
0.00277254
0.00277251
0.00277245
0.00277237
0.00277226
0.00277212
0.00277197
0.0027718
0.00277161
0.0027714
0.00277119
0.00277096
0.00277073
0.00277049
0.00277025
0.00277001
0.00276977
0.00276953
0.0027693
0.00276907
0.00276884
0.00276862
0.00276841
0.00276821
0.00276801
0.00276782
0.00276763
0.00276745
0.00276728
0.00276711
0.00276694
0.00276677
0.0027666
0.00276643
0.00276625
0.00276608
0.0027659
0.00276572
0.00276552
0.00276575
0.00285957
0.00286043
0.00286072
0.0028609
0.00286107
0.00286123
0.00286139