/*--------------------------------*- C++ -*----------------------------------*\
  =========                 |
  \\      /  F ield         | OpenFOAM: The Open Source CFD Toolbox
   \\    /   O peration     | Website:  https://openfoam.org
    \\  /    A nd           | Version:  7
     \\/     M anipulation  |
\*---------------------------------------------------------------------------*/
FoamFile
{
    version     2.0;
    format      ascii;
    class       surfaceScalarField;
    location    "500";
    object      phi;
}
// * * * * * * * * * * * * * * * * * * * * * * * * * * * * * * * * * * * * * //

dimensions      [0 3 -1 0 0 0 0];

internalField   nonuniform List<scalar> 
7821
(
0.00014148
4.64017e-09
0.000141481
5.35318e-09
0.000141481
6.43596e-09
0.000141481
6.70082e-09
0.000141481
6.48063e-09
0.000141482
5.95067e-09
0.000141482
5.21974e-09
0.000141482
4.36774e-09
0.000141482
3.45682e-09
0.000141482
2.53695e-09
0.000141482
1.64837e-09
0.000141482
8.23257e-10
0.000141482
8.69388e-11
0.000141483
-5.40966e-10
0.000141483
-1.04494e-09
0.000141483
-1.4123e-09
0.000141483
-1.63318e-09
0.000141483
-1.70057e-09
0.000141483
-1.6106e-09
0.000141483
-1.36327e-09
0.000141483
-9.63462e-10
0.000141483
-4.21953e-10
0.000141483
2.44448e-10
0.000141483
1.01343e-09
0.000141483
1.85759e-09
0.000141483
2.74559e-09
0.000141483
3.64417e-09
0.000141482
4.52086e-09
0.000141482
5.34638e-09
0.000141482
6.09714e-09
0.000141482
6.75611e-09
0.000141482
7.31521e-09
0.000141481
7.77095e-09
0.000141481
8.13727e-09
0.000141481
8.4048e-09
0.00014148
8.69037e-09
0.00014148
8.72906e-09
1.03309e-08
0.00014551
6.11844e-09
0.000145511
5.10217e-09
0.000145511
4.58543e-09
0.000145511
5.89586e-09
0.00014551
6.6189e-09
0.00014551
6.71054e-09
0.00014551
6.42231e-09
0.000145511
5.86342e-09
0.000145511
5.12135e-09
0.000145511
4.26848e-09
0.000145511
3.36321e-09
0.000145511
2.45325e-09
0.000145511
1.5771e-09
0.000145511
7.65337e-10
0.000145511
4.18034e-11
0.000145511
-5.75115e-10
0.000145511
-1.07079e-09
0.000145511
-1.43312e-09
0.000145511
-1.65231e-09
0.000145511
-1.7209e-09
0.000145511
-1.63402e-09
0.000145511
-1.39023e-09
0.000145511
-9.92753e-10
0.000145511
-4.50615e-10
0.000145511
2.20972e-10
0.000145511
1.00088e-09
0.000145511
1.86223e-09
0.000145511
2.77342e-09
0.000145511
3.70038e-09
0.000145511
4.60925e-09
0.000145511
5.46905e-09
0.000145511
6.25431e-09
0.000145511
6.9463e-09
0.00014551
7.5354e-09
0.00014551
8.01734e-09
0.00014551
8.40473e-09
0.00014551
8.69136e-09
0.000145509
8.97841e-09
0.000145509
9.06337e-09
0.000145509
1.02934e-08
0.000145509
1.20379e-08
1.38324e-08
0.000149564
8.90253e-09
0.000149565
7.1684e-09
0.000149565
6.1367e-09
0.000149564
6.33552e-09
0.000149562
5.97513e-09
0.000149562
6.71519e-09
0.000149561
7.05149e-09
0.000149561
6.9199e-09
0.000149561
6.5094e-09
0.000149561
5.8827e-09
0.000149561
5.10327e-09
0.000149561
4.23153e-09
0.000149561
3.31917e-09
0.000149561
2.40978e-09
0.000149561
1.53884e-09
0.000149561
7.34452e-10
0.000149561
1.83776e-11
0.000149561
-5.92634e-10
0.000149561
-1.0851e-09
0.000149561
-1.4476e-09
0.000149561
-1.67043e-09
0.000149561
-1.74554e-09
0.000149561
-1.66688e-09
0.000149561
-1.43142e-09
0.000149561
-1.04046e-09
0.000149561
-5.0117e-10
0.000149561
1.72902e-10
0.000149561
9.61763e-10
0.000149561
1.83888e-09
0.000149561
2.77227e-09
0.000149561
3.72678e-09
0.000149561
4.66693e-09
0.000149561
5.55987e-09
0.000149561
6.37817e-09
0.000149561
7.10133e-09
0.000149561
7.7183e-09
0.000149561
8.22415e-09
0.00014956
8.63012e-09
0.00014956
8.93416e-09
0.00014956
9.21537e-09
0.00014956
9.37667e-09
0.00014956
9.75799e-09
0.000149561
1.08644e-08
0.000149562
1.2952e-08
0.000149563
1.47103e-08
0.000149563
1.48455e-08
0.000149563
1.41299e-08
0.000149562
1.32673e-08
0.000149562
1.24965e-08
0.000149561
1.18036e-08
0.000149561
1.11282e-08
0.00014956
1.04392e-08
0.00014956
9.67044e-09
0.000149559
8.84187e-09
0.000149559
7.8116e-09
0.000149558
6.73479e-09
0.000149558
5.27555e-09
0.000149558
3.79805e-09
2.98863e-09
0.000153645
7.51439e-09
0.000153644
7.46408e-09
0.000153643
7.22755e-09
0.000153642
7.41532e-09
0.000153641
7.12561e-09
0.00015364
7.56999e-09
0.00015364
7.60846e-09
0.000153639
7.26049e-09
0.000153639
6.70723e-09
0.000153639
5.9902e-09
0.000153639
5.15532e-09
0.000153639
4.25113e-09
0.000153639
3.3215e-09
0.000153639
2.40474e-09
0.000153639
1.53247e-09
0.000153639
7.29707e-10
0.000153639
1.56741e-11
0.000153639
-5.94803e-10
0.000153639
-1.08955e-09
0.000153639
-1.45786e-09
0.000153639
-1.69002e-09
0.000153639
-1.77723e-09
0.000153639
-1.71207e-09
0.000153639
-1.48964e-09
0.000153639
-1.10918e-09
0.000153639
-5.7585e-10
0.000153639
9.84668e-11
0.000153639
8.94779e-10
0.000153639
1.78672e-09
0.000153639
2.74162e-09
0.000153639
3.72299e-09
0.000153639
4.69353e-09
0.000153639
5.61829e-09
0.000153639
6.46783e-09
0.000153639
7.21996e-09
0.000153639
7.86224e-09
0.000153639
8.38931e-09
0.000153639
8.81111e-09
0.000153638
9.1301e-09
0.000153638
9.40325e-09
0.000153638
9.62186e-09
0.000153638
9.64512e-09
0.000153639
1.02943e-08
0.00015364
1.16882e-08
0.000153641
1.31703e-08
0.000153642
1.40898e-08
0.000153642
1.39776e-08
0.000153642
1.34198e-08
0.000153642
1.27804e-08
0.000153642
1.2142e-08
0.000153641
1.14892e-08
0.000153641
1.08078e-08
0.00015364
1.0036e-08
0.00015364
9.19898e-09
0.00015364
8.1442e-09
0.000153639
7.05082e-09
0.000153639
5.4801e-09
0.000153639
4.03059e-09
2.21394e-09
0.000157753
6.04071e-09
0.000157753
7.46647e-09
0.000157752
7.97875e-09
0.000157752
8.29562e-09
0.000157751
8.07001e-09
0.00015775
8.34662e-09
0.000157749
8.18498e-09
0.000157749
7.66216e-09
0.000157749
6.97387e-09
0.000157748
6.1613e-09
0.000157748
5.26277e-09
0.000157748
4.31829e-09
0.000157748
3.36459e-09
0.000157748
2.43456e-09
0.000157748
1.55558e-09
0.000157748
7.49234e-10
0.000157748
3.19835e-11
0.000157748
-5.83423e-10
0.000157748
-1.08617e-09
0.000157748
-1.46618e-09
0.000157748
-1.71356e-09
0.000157748
-1.81856e-09
0.000157748
-1.77211e-09
0.000157748
-1.56721e-09
0.000157748
-1.20086e-09
0.000157748
-6.76094e-10
0.000157749
-3.231e-12
0.000157749
7.99557e-10
0.000157749
1.70578e-09
0.000157749
2.68181e-09
0.000157749
3.68947e-09
0.000157749
4.6894e-09
0.000157749
5.64445e-09
0.000157749
6.52312e-09
0.000157749
7.30159e-09
0.000157749
7.96627e-09
0.000157748
8.51154e-09
0.000157748
8.94626e-09
0.000157748
9.2772e-09
0.000157748
9.54277e-09
0.000157748
9.79324e-09
0.000157748
9.68294e-09
0.000157748
1.00482e-08
0.000157749
1.09901e-08
0.00015775
1.21341e-08
0.000157751
1.32772e-08
0.000157751
1.35671e-08
0.000157751
1.33132e-08
0.000157751
1.28512e-08
0.000157751
1.23082e-08
0.000157751
1.1707e-08
0.00015775
1.10542e-08
0.00015775
1.02954e-08
0.00015775
9.46297e-09
0.00015775
8.39474e-09
0.000157749
7.29422e-09
0.000157749
5.61789e-09
0.000157749
4.20761e-09
1.33419e-09
0.000161898
4.65644e-09
0.000161898
7.29051e-09
0.000161898
8.45481e-09
0.000161897
8.95981e-09
0.000161896
8.81763e-09
0.000161896
8.99965e-09
0.000161895
8.71498e-09
0.000161895
8.06829e-09
0.000161894
7.26955e-09
0.000161894
6.3701e-09
0.000161894
5.40903e-09
0.000161894
4.42232e-09
0.000161894
3.44146e-09
0.000161894
2.49453e-09
0.000161894
1.6048e-09
0.000161894
7.90399e-10
0.000161894
6.4994e-11
0.000161894
-5.60736e-10
0.000161894
-1.07725e-09
0.000161894
-1.47492e-09
0.000161894
-1.74346e-09
0.000161894
-1.87184e-09
0.000161894
-1.84908e-09
0.000161894
-1.66582e-09
0.000161894
-1.31663e-09
0.000161894
-8.02465e-10
0.000161894
-1.32153e-10
0.000161894
6.76666e-10
0.000161895
1.59705e-09
0.000161895
2.59402e-09
0.000161895
3.62744e-09
0.000161895
4.65562e-09
0.000161895
5.63914e-09
0.000161895
6.54447e-09
0.000161895
7.34632e-09
0.000161895
8.03017e-09
0.000161894
8.59039e-09
0.000161894
9.03502e-09
0.000161894
9.37477e-09
0.000161894
9.63385e-09
0.000161894
9.89675e-09
0.000161894
9.75297e-09
0.000161894
9.95739e-09
0.000161895
1.0608e-08
0.000161895
1.146e-08
0.000161896
1.25744e-08
0.000161896
1.30669e-08
0.000161897
1.30453e-08
0.000161897
1.27571e-08
0.000161897
1.23265e-08
0.000161897
1.17951e-08
0.000161897
1.11862e-08
0.000161896
1.04534e-08
0.000161896
9.63649e-09
0.000161896
8.56486e-09
0.000161896
7.46523e-09
0.000161896
5.69382e-09
0.000161896
4.32022e-09
5.01209e-10
0.000166085
3.46049e-09
0.000166085
7.02873e-09
0.000166085
8.71932e-09
0.000166084
9.42572e-09
0.000166084
9.38419e-09
0.000166083
9.51748e-09
0.000166083
9.16476e-09
0.000166082
8.44094e-09
0.000166082
7.56262e-09
0.000166082
6.59343e-09
0.000166082
5.57807e-09
0.000166082
4.55228e-09
0.000166081
3.54456e-09
0.000166081
2.57929e-09
0.000166081
1.67613e-09
0.000166081
8.49998e-10
0.000166081
1.11916e-10
0.000166081
-5.29338e-10
0.000166081
-1.06529e-09
0.000166081
-1.48652e-09
0.000166081
-1.78197e-09
0.000166081
-1.93905e-09
0.000166081
-1.94451e-09
0.000166081
-1.78643e-09
0.000166082
-1.45685e-09
0.000166082
-9.54619e-10
0.000166082
-2.87332e-10
0.000166082
5.27579e-10
0.000166082
1.46232e-09
0.000166082
2.48019e-09
0.000166082
3.53876e-09
0.000166082
4.59386e-09
0.000166082
5.60371e-09
0.000166083
6.5329e-09
0.000166082
7.35488e-09
0.000166082
8.05444e-09
0.000166082
8.62624e-09
0.000166082
9.0778e-09
0.000166082
9.42329e-09
0.000166082
9.67676e-09
0.000166082
9.93992e-09
0.000166082
9.80371e-09
0.000166082
9.92369e-09
0.000166082
1.0392e-08
0.000166083
1.10231e-08
0.000166083
1.20139e-08
0.000166084
1.25716e-08
0.000166084
1.26966e-08
0.000166085
1.25501e-08
0.000166085
1.22278e-08
0.000166085
1.17726e-08
0.000166085
1.12164e-08
0.000166085
1.05185e-08
0.000166084
9.72544e-09
0.000166084
8.65909e-09
0.000166084
7.56675e-09
0.000166084
5.71446e-09
0.000166084
4.36591e-09
-2.24568e-10
0.00017032
2.49439e-09
0.00017032
6.7478e-09
0.00017032
8.83345e-09
0.00017032
9.72648e-09
0.000170319
9.7923e-09
0.000170319
9.90608e-09
0.000170318
9.52275e-09
0.000170318
8.75937e-09
0.000170318
7.8316e-09
0.000170318
6.81329e-09
0.000170317
5.75616e-09
0.000170317
4.69809e-09
0.000170317
3.6665e-09
0.000170317
2.68331e-09
0.000170317
1.76524e-09
0.000170317
9.24445e-10
0.000170317
1.69617e-10
0.000170317
-4.92078e-10
0.000170317
-1.05292e-09
0.000170317
-1.50332e-09
0.000170317
-1.83111e-09
0.000170317
-2.02172e-09
0.000170317
-2.05935e-09
0.000170317
-1.92928e-09
0.000170317
-1.62099e-09
0.000170318
-1.13134e-09
0.000170318
-4.66951e-10
0.000170318
3.54552e-10
0.000170318
1.30409e-09
0.000170318
2.34284e-09
0.000170318
3.42581e-09
0.000170318
4.50621e-09
0.000170318
5.53996e-09
0.000170319
6.4899e-09
0.000170319
7.32853e-09
0.000170319
8.04024e-09
0.000170319
8.62026e-09
0.000170319
9.07588e-09
0.000170319
9.42432e-09
0.000170319
9.67266e-09
0.000170319
9.92937e-09
0.000170319
9.81531e-09
0.000170319
9.89453e-09
0.000170319
1.02509e-08
0.000170319
1.07267e-08
0.000170319
1.15744e-08
0.00017032
1.21199e-08
0.00017032
1.23201e-08
0.000170321
1.22738e-08
0.000170321
1.2043e-08
0.000170321
1.16605e-08
0.000170321
1.11595e-08
0.000170321
1.05015e-08
0.000170321
9.73804e-09
0.000170321
8.68406e-09
0.000170321
7.60393e-09
0.000170321
5.68723e-09
0.000170321
4.34892e-09
-8.24234e-10
0.00017461
1.76327e-09
0.00017461
6.48828e-09
0.00017461
8.84762e-09
0.00017461
9.89852e-09
0.00017461
1.00682e-08
0.000174609
1.01803e-08
0.000174609
9.79086e-09
0.000174609
9.01583e-09
0.000174609
8.0645e-09
0.000174608
7.01746e-09
0.000174608
5.93273e-09
0.000174608
4.85123e-09
0.000174608
3.80057e-09
0.000174608
2.80121e-09
0.000174608
1.86771e-09
0.000174608
1.00995e-09
0.000174608
2.34762e-10
0.000174608
-4.51927e-10
0.000174607
-1.04275e-09
0.000174608
-1.52753e-09
0.000174608
-1.89255e-09
0.000174608
-2.12089e-09
0.000174608
-2.19388e-09
0.000174608
-2.09387e-09
0.000174608
-1.80775e-09
0.000174608
-1.33063e-09
0.000174609
-6.6847e-10
0.000174609
1.60457e-10
0.000174609
1.12533e-09
0.000174609
2.18486e-09
0.000174609
3.29125e-09
0.000174609
4.39503e-09
0.000174609
5.44993e-09
0.00017461
6.4173e-09
0.00017461
7.26898e-09
0.00017461
7.98928e-09
0.00017461
8.57428e-09
0.00017461
9.03133e-09
0.00017461
9.38026e-09
0.00017461
9.62367e-09
0.00017461
9.87074e-09
0.00017461
9.78226e-09
0.00017461
9.84426e-09
0.00017461
1.01325e-08
0.00017461
1.05035e-08
0.000174611
1.12204e-08
0.000174611
1.17182e-08
0.000174611
1.19445e-08
0.000174612
1.19601e-08
0.000174612
1.1799e-08
0.000174612
1.14797e-08
0.000174612
1.10313e-08
0.000174612
1.04146e-08
0.000174612
9.68395e-09
0.000174612
8.64789e-09
0.000174612
7.5835e-09
0.000174613
5.61998e-09
0.000174613
4.27784e-09
-1.29737e-09
0.000178962
1.25187e-09
0.000178962
6.2706e-09
0.000178962
8.79952e-09
0.000178962
9.97521e-09
0.000178962
1.02385e-08
0.000178962
1.03584e-08
0.000178962
9.97828e-09
0.000178961
9.21117e-09
0.000178961
8.25675e-09
0.000178961
7.199e-09
0.000178961
6.10052e-09
0.000178961
5.00505e-09
0.000178961
3.94096e-09
0.00017896
2.928e-09
0.00017896
1.97919e-09
0.00017896
1.10271e-09
0.00017896
3.03972e-10
0.00017896
-4.11842e-10
0.00017896
-1.03727e-09
0.00017896
-1.56107e-09
0.00017896
-1.96754e-09
0.00017896
-2.23702e-09
0.00017896
-2.34773e-09
0.000178961
-2.27897e-09
0.000178961
-2.01514e-09
0.000178961
-1.54984e-09
0.000178961
-8.88808e-10
0.000178962
-5.14183e-11
0.000178962
9.29332e-10
0.000178962
2.00935e-09
0.000178962
3.13788e-09
0.000178962
4.2628e-09
0.000178962
5.33584e-09
0.000178962
6.31714e-09
0.000178962
7.17823e-09
0.000178963
7.90369e-09
0.000178963
8.49065e-09
0.000178963
8.9468e-09
0.000178963
9.29419e-09
0.000178963
9.53275e-09
0.000178963
9.76903e-09
0.000178963
9.70534e-09
0.000178963
9.7622e-09
0.000178963
1.00088e-08
0.000178963
1.03108e-08
0.000178964
1.09188e-08
0.000178964
1.13581e-08
0.000178965
1.15815e-08
0.000178965
1.16294e-08
0.000178965
1.15165e-08
0.000178965
1.12481e-08
0.000178966
1.08468e-08
0.000178966
1.02702e-08
0.000178966
9.57341e-09
0.000178966
8.55941e-09
0.000178966
7.51324e-09
0.000178966
5.52062e-09
0.000178966
4.16351e-09
-1.65132e-09
0.000183383
9.35038e-10
0.000183383
6.10197e-09
0.000183383
8.71565e-09
0.000183383
9.98415e-09
0.000183383
1.03274e-08
0.000183383
1.04594e-08
0.000183383
1.00975e-08
0.000183383
9.35125e-09
0.000183383
8.40893e-09
0.000183383
7.35517e-09
0.000183382
6.2552e-09
0.000183382
5.15473e-09
0.000183382
4.08296e-09
0.000183382
3.05926e-09
0.000183382
2.09562e-09
0.000183382
1.19903e-09
0.000183382
3.73978e-10
0.000183382
-3.74618e-10
0.000183382
-1.0387e-09
0.000183382
-1.60548e-09
0.000183382
-2.05684e-09
0.000183382
-2.37002e-09
0.000183382
-2.5199e-09
0.000183382
-2.48272e-09
0.000183382
-2.24055e-09
0.000183383
-1.78584e-09
0.000183383
-1.12454e-09
0.000183383
-2.77588e-10
0.000183383
7.19434e-10
0.000183384
1.81936e-09
0.000183384
2.96842e-09
0.000183384
4.11194e-09
0.000183384
5.19989e-09
0.000183384
6.19156e-09
0.000183384
7.0585e-09
0.000183384
7.7859e-09
0.000183385
8.37212e-09
0.000183385
8.82537e-09
0.000183385
9.16962e-09
0.000183385
9.40339e-09
0.000183385
9.6289e-09
0.000183385
9.58786e-09
0.000183385
9.64553e-09
0.000183385
9.8661e-09
0.000183386
1.01231e-08
0.000183386
1.06442e-08
0.000183386
1.10269e-08
0.000183387
1.12329e-08
0.000183387
1.1293e-08
0.000183387
1.12106e-08
0.000183387
1.09808e-08
0.000183388
1.06193e-08
0.000183388
1.008e-08
0.000183388
9.41657e-09
0.000183388
8.42762e-09
0.000183388
7.40132e-09
0.000183388
5.39685e-09
0.000183389
4.01739e-09
-1.89638e-09
0.00018788
7.84098e-10
0.00018788
5.98193e-09
0.00018788
8.61392e-09
0.00018788
9.94693e-09
0.00018788
1.03556e-08
0.00018788
1.05006e-08
0.00018788
1.01616e-08
0.00018788
9.44433e-09
0.00018788
8.52472e-09
0.00018788
7.48618e-09
0.00018788
6.39477e-09
0.000187879
5.29712e-09
0.000187879
4.22289e-09
0.000187879
3.19121e-09
0.000187879
2.21334e-09
0.000187879
1.29551e-09
0.000187879
4.41767e-10
0.000187879
-3.42751e-10
0.000187879
-1.04889e-09
0.000187879
-1.66185e-09
0.000187879
-2.16066e-09
0.000187879
-2.51917e-09
0.000187879
-2.70879e-09
0.00018788
-2.70272e-09
0.00018788
-2.48097e-09
0.00018788
-2.03522e-09
0.00018788
-1.3721e-09
0.000187881
-5.14569e-10
0.000187881
4.98864e-10
0.000187881
1.61778e-09
0.000187881
2.7854e-09
0.000187881
3.9447e-09
0.000187882
5.04419e-09
0.000187882
6.04268e-09
0.000187882
6.91211e-09
0.000187882
7.6385e-09
0.000187882
8.22163e-09
0.000187882
8.67036e-09
0.000187882
9.01029e-09
0.000187883
9.23939e-09
0.000187883
9.45477e-09
0.000187883
9.43404e-09
0.000187883
9.49528e-09
0.000187883
9.69887e-09
0.000187883
9.92655e-09
0.000187884
1.03793e-08
0.000187884
1.07126e-08
0.000187884
1.08961e-08
0.000187885
1.09562e-08
0.000187885
1.08911e-08
0.000187885
1.06891e-08
0.000187886
1.03602e-08
0.000187886
9.85439e-09
0.000187886
9.22298e-09
0.000187886
8.26121e-09
0.000187886
7.2559e-09
0.000187886
5.25593e-09
0.000187887
3.85052e-09
-2.04373e-09
0.000192459
7.70559e-10
0.000192459
5.90622e-09
0.00019246
8.50625e-09
0.00019246
9.87982e-09
0.00019246
1.03401e-08
0.00019246
1.04975e-08
0.00019246
1.01833e-08
0.00019246
9.49939e-09
0.000192459
8.6094e-09
0.000192459
7.59412e-09
0.000192459
6.51895e-09
0.000192459
5.43038e-09
0.000192459
4.35803e-09
0.000192459
3.32072e-09
0.000192459
2.32917e-09
0.000192459
1.38915e-09
0.000192459
5.0471e-10
0.000192459
-3.18326e-10
0.000192459
-1.06924e-09
0.000192459
-1.73075e-09
0.000192459
-2.27868e-09
0.000192459
-2.68324e-09
0.000192459
-2.9123e-09
0.000192459
-2.93618e-09
0.00019246
-2.73311e-09
0.00019246
-2.29444e-09
0.00019246
-1.62796e-09
0.00019246
-7.59059e-10
0.000192461
2.70578e-10
0.000192461
1.40719e-09
0.000192461
2.59107e-09
0.000192461
3.76309e-09
0.000192461
4.87071e-09
0.000192462
5.87258e-09
0.000192462
6.74137e-09
0.000192462
7.46416e-09
0.000192462
8.04223e-09
0.000192462
8.4852e-09
0.000192462
8.81996e-09
0.000192463
9.04463e-09
0.000192463
9.2508e-09
0.000192463
9.24823e-09
0.000192463
9.31424e-09
0.000192463
9.5061e-09
0.000192464
9.71426e-09
0.000192464
1.01134e-08
0.000192464
1.04057e-08
0.000192465
1.05668e-08
0.000192465
1.06207e-08
0.000192465
1.0564e-08
0.000192465
1.03815e-08
0.000192466
1.00788e-08
0.000192466
9.60261e-09
0.000192466
9.00125e-09
0.000192466
8.06823e-09
0.000192467
7.08474e-09
0.000192467
5.10447e-09
0.000192467
3.67298e-09
-2.10446e-09
0.000197128
8.68043e-10
0.000197128
5.86926e-09
0.000197128
8.40057e-09
0.000197128
9.79496e-09
0.000197128
1.02947e-08
0.000197128
1.04628e-08
0.000197128
1.01736e-08
0.000197128
9.52507e-09
0.000197128
8.66878e-09
0.000197128
7.68206e-09
0.000197128
6.62854e-09
0.000197127
5.55368e-09
0.000197127
4.48653e-09
0.000197127
3.44538e-09
0.000197127
2.44049e-09
0.000197127
1.47745e-09
0.000197127
5.60658e-10
0.000197127
-3.02933e-10
0.000197127
-1.1006e-09
0.000197127
-1.81221e-09
0.000197127
-2.41003e-09
0.000197127
-2.8605e-09
0.000197128
-3.12797e-09
0.000197128
-3.18005e-09
0.000197128
-2.9936e-09
0.000197128
-2.56006e-09
0.000197129
-1.88883e-09
0.000197129
-1.00808e-09
0.000197129
3.71518e-11
0.000197129
1.18976e-09
0.00019713
2.3873e-09
0.00019713
3.56887e-09
0.00019713
4.68121e-09
0.00019713
5.68322e-09
0.00019713
6.54854e-09
0.00019713
7.2655e-09
0.000197131
7.83693e-09
0.000197131
8.27323e-09
0.000197131
8.60233e-09
0.000197131
8.82286e-09
0.000197132
9.02089e-09
0.000197132
9.03456e-09
0.000197132
9.10575e-09
0.000197132
9.28897e-09
0.000197132
9.48372e-09
0.000197133
9.84026e-09
0.000197133
1.00995e-08
0.000197133
1.02408e-08
0.000197134
1.02864e-08
0.000197134
1.02329e-08
0.000197134
1.00638e-08
0.000197135
9.78209e-09
0.000197135
9.3322e-09
0.000197135
8.75888e-09
0.000197135
7.85586e-09
0.000197136
6.89495e-09
0.000197136
4.94829e-09
0.000197136
3.4935e-09
-2.08921e-09
0.00020189
1.0532e-09
0.00020189
5.86537e-09
0.000201891
8.30228e-09
0.000201891
9.70134e-09
0.000201891
1.02299e-08
0.000201891
1.0407e-08
0.000201891
1.01419e-08
0.000201891
9.52917e-09
0.000201891
8.70851e-09
0.000201891
7.75343e-09
0.000201891
6.72499e-09
0.00020189
5.66691e-09
0.00020189
4.60719e-09
0.00020189
3.56336e-09
0.00020189
2.54524e-09
0.00020189
1.55844e-09
0.00020189
6.07994e-10
0.00020189
-2.97623e-10
0.00020189
-1.14331e-09
0.00020189
-1.90573e-09
0.00020189
-2.55339e-09
0.00020189
-3.04886e-09
0.000201891
-3.35306e-09
0.000201891
-3.43119e-09
0.000201891
-3.25911e-09
0.000201891
-2.82882e-09
0.000201892
-2.15173e-09
0.000201892
-1.25905e-09
0.000201892
-1.99281e-10
0.000201892
9.67249e-10
0.000201893
2.17561e-09
0.000201893
3.36349e-09
0.000201893
4.47726e-09
0.000201893
5.4764e-09
0.000201893
6.33576e-09
0.000201894
7.04507e-09
0.000201894
7.60864e-09
0.000201894
8.03767e-09
0.000201894
8.36086e-09
0.000201895
8.5776e-09
0.000201895
8.76856e-09
0.000201895
8.79678e-09
0.000201895
8.8732e-09
0.000201896
9.04961e-09
0.000201896
9.23471e-09
0.000201896
9.55687e-09
0.000201896
9.78974e-09
0.000201897
9.91492e-09
0.000201897
9.9523e-09
0.000201897
9.89956e-09
0.000201898
9.74021e-09
0.000201898
9.47556e-09
0.000201898
9.04922e-09
0.000201899
8.50217e-09
0.000201899
7.63032e-09
0.000201899
6.69284e-09
0.000201899
4.79237e-09
0.000201899
3.31938e-09
-2.00797e-09
0.000206754
1.30597e-09
0.000206754
5.88953e-09
0.000206754
8.21515e-09
0.000206754
9.60567e-09
0.000206754
1.01541e-08
0.000206754
1.03384e-08
0.000206754
1.00962e-08
0.000206754
9.51836e-09
0.000206754
8.73374e-09
0.000206754
7.81164e-09
0.000206754
6.81006e-09
0.000206754
5.77045e-09
0.000206754
4.71939e-09
0.000206754
3.67343e-09
0.000206753
2.64196e-09
0.000206753
1.63071e-09
0.000206753
6.45661e-10
0.000206753
-3.029e-10
0.000206753
-1.19717e-09
0.000206754
-2.01034e-09
0.000206754
-2.70703e-09
0.000206754
-3.24592e-09
0.000206754
-3.5847e-09
0.000206754
-3.68647e-09
0.000206755
-3.5265e-09
0.000206755
-3.09779e-09
0.000206755
-2.41411e-09
0.000206755
-1.50989e-09
0.000206756
-4.37051e-10
0.000206756
7.41008e-10
0.000206756
1.95719e-09
0.000206756
3.14812e-09
0.000206757
4.26021e-09
0.000206757
5.25378e-09
0.000206757
6.10507e-09
0.000206757
6.80525e-09
0.000206757
7.36008e-09
0.000206758
7.7815e-09
0.000206758
8.0987e-09
0.000206758
8.31207e-09
0.000206759
8.49696e-09
0.000206759
8.53823e-09
0.000206759
8.61969e-09
0.000206759
8.79044e-09
0.00020676
8.96817e-09
0.00020676
9.26211e-09
0.00020676
9.47405e-09
0.000206761
9.5867e-09
0.000206761
9.61735e-09
0.000206761
9.56469e-09
0.000206761
9.41311e-09
0.000206762
9.16307e-09
0.000206762
8.7584e-09
0.000206762
8.23627e-09
0.000206763
7.39682e-09
0.000206763
6.48384e-09
0.000206763
4.6408e-09
0.000206763
3.15647e-09
-1.86996e-09
0.000211723
1.60957e-09
0.000211723
5.93754e-09
0.000211723
8.1419e-09
0.000211723
9.513e-09
0.000211723
1.00738e-08
0.000211723
1.02636e-08
0.000211723
1.00425e-08
0.000211723
9.49819e-09
0.000211723
8.7489e-09
0.000211723
7.8598e-09
0.000211723
6.88553e-09
0.000211723
5.86495e-09
0.000211723
4.82291e-09
0.000211723
3.77485e-09
0.000211723
2.72968e-09
0.000211722
1.6934e-09
0.000211722
6.7314e-10
0.000211722
-3.18745e-10
0.000211723
-1.2615e-09
0.000211723
-2.12468e-09
0.000211723
-2.86892e-09
0.000211723
-3.44913e-09
0.000211723
-3.81999e-09
0.000211723
-3.94289e-09
0.000211724
-3.79291e-09
0.000211724
-3.36445e-09
0.000211724
-2.67388e-09
0.000211725
-1.75895e-09
0.000211725
-6.7494e-10
0.000211725
5.11982e-10
0.000211725
1.73288e-09
0.000211725
2.9237e-09
0.000211726
4.03122e-09
0.000211726
5.01685e-09
0.000211726
5.85832e-09
0.000211726
6.54826e-09
0.000211727
7.09376e-09
0.000211727
7.50743e-09
0.000211727
7.81872e-09
0.000211728
8.02909e-09
0.000211728
8.20881e-09
0.000211728
8.26176e-09
0.000211728
8.34798e-09
0.000211729
8.51379e-09
0.000211729
8.68558e-09
0.000211729
8.95595e-09
0.00021173
9.15121e-09
0.00021173
9.25463e-09
0.00021173
9.2806e-09
0.000211731
9.22856e-09
0.000211731
9.08413e-09
0.000211731
8.84738e-09
0.000211731
8.46331e-09
0.000211732
7.96526e-09
0.000211732
7.15959e-09
0.000211732
6.27247e-09
0.000211732
4.4968e-09
0.000211733
3.00923e-09
-1.68364e-09
0.000216803
1.95019e-09
0.000216802
6.00608e-09
0.000216803
8.08449e-09
0.000216803
9.42718e-09
0.000216803
9.99385e-09
0.000216803
1.01876e-08
0.000216803
9.98598e-09
0.000216803
9.47311e-09
0.000216803
8.75768e-09
0.000216803
7.90063e-09
0.000216803
6.95313e-09
0.000216803
5.95121e-09
0.000216803
4.91785e-09
0.000216802
3.86728e-09
0.000216802
2.80792e-09
0.000216802
1.74616e-09
0.000216802
6.90419e-10
0.000216802
-3.44663e-10
0.000216802
-1.3352e-09
0.000216803
-2.24703e-09
0.000216803
-3.03681e-09
0.000216803
-3.65585e-09
0.000216803
-4.05613e-09
0.000216803
-4.19769e-09
0.000216804
-4.05584e-09
0.000216804
-3.62668e-09
0.000216804
-2.9294e-09
0.000216804
-2.00508e-09
0.000216805
-9.12134e-10
0.000216805
2.80783e-10
0.000216805
1.50329e-09
0.000216805
2.69099e-09
0.000216806
3.79133e-09
0.000216806
4.76697e-09
0.000216806
5.59722e-09
0.000216806
6.27611e-09
0.000216807
6.81193e-09
0.000216807
7.21786e-09
0.000216807
7.52341e-09
0.000216808
7.73113e-09
0.000216808
7.90646e-09
0.000216808
7.96981e-09
0.000216808
8.06043e-09
0.000216809
8.2218e-09
0.000216809
8.38853e-09
0.000216809
8.63893e-09
0.00021681
8.82084e-09
0.00021681
8.91785e-09
0.00021681
8.94135e-09
0.000216811
8.89116e-09
0.000216811
8.75419e-09
0.000216811
8.53036e-09
0.000216812
8.16655e-09
0.000216812
7.69228e-09
0.000216812
6.92199e-09
0.000216812
6.06241e-09
0.000216813
4.3628e-09
0.000216813
2.88089e-09
-1.45671e-09
0.000221998
2.31671e-09
0.000221998
6.09258e-09
0.000221998
8.04436e-09
0.000221998
9.35113e-09
0.000221998
9.91818e-09
0.000221998
1.01143e-08
0.000221998
9.93027e-09
0.000221998
9.44662e-09
0.000221998
8.76305e-09
0.000221998
7.93643e-09
0.000221998
7.01438e-09
0.000221998
6.0301e-09
0.000221998
5.00456e-09
0.000221998
3.95075e-09
0.000221998
2.87664e-09
0.000221998
1.78907e-09
0.000221998
6.97925e-10
0.000221998
-3.79758e-10
0.000221998
-1.41686e-09
0.000221998
-2.37545e-09
0.000221998
-3.20836e-09
0.000221999
-3.86349e-09
0.000221999
-4.29047e-09
0.000221999
-4.44838e-09
0.000221999
-4.31315e-09
0.000222
-3.88282e-09
0.000222
-3.17951e-09
0.000222
-2.24751e-09
0.000222
-1.14817e-09
0.000222001
4.7746e-11
0.000222001
1.26878e-09
0.000222001
2.45056e-09
0.000222001
3.5414e-09
0.000222001
4.50536e-09
0.000222002
5.32332e-09
0.000222002
5.99061e-09
0.000222002
6.5166e-09
0.000222003
6.91492e-09
0.000222003
7.21492e-09
0.000222003
7.4203e-09
0.000222004
7.59187e-09
0.000222004
7.66441e-09
0.000222004
7.759e-09
0.000222004
7.91628e-09
0.000222005
8.07853e-09
0.000222005
8.31182e-09
0.000222005
8.48301e-09
0.000222006
8.57596e-09
0.000222006
8.59911e-09
0.000222006
8.55236e-09
0.000222007
8.42379e-09
0.000222007
8.21319e-09
0.000222007
7.86995e-09
0.000222008
7.41967e-09
0.000222008
6.68656e-09
0.000222008
5.85655e-09
0.000222008
4.24047e-09
0.000222008
2.77357e-09
-1.1961e-09
0.000227314
2.70028e-09
0.000227314
6.19507e-09
0.000227314
8.02248e-09
0.000227314
9.28703e-09
0.000227314
9.84969e-09
0.000227314
1.00466e-08
0.000227314
9.87823e-09
0.000227314
9.42137e-09
0.000227314
8.76732e-09
0.000227314
7.96905e-09
0.000227314
7.07064e-09
0.000227314
6.10246e-09
0.000227314
5.08353e-09
0.000227314
4.02556e-09
0.000227314
2.93613e-09
0.000227314
1.82262e-09
0.000227314
6.96458e-10
0.000227314
-4.228e-10
0.000227314
-1.50479e-09
0.000227314
-2.50786e-09
0.000227314
-3.38117e-09
0.000227315
-4.06954e-09
0.000227315
-4.52059e-09
0.000227315
-4.69283e-09
0.000227315
-4.56311e-09
0.000227315
-4.13162e-09
0.000227316
-3.42341e-09
0.000227316
-2.48584e-09
0.000227316
-1.38288e-09
0.000227316
-1.87006e-10
0.000227317
1.02961e-09
0.000227317
2.20287e-09
0.000227317
3.28221e-09
0.000227317
4.23311e-09
0.000227318
5.03799e-09
0.000227318
5.69338e-09
0.000227318
6.20953e-09
0.000227319
6.60041e-09
0.000227319
6.89508e-09
0.000227319
7.09834e-09
0.00022732
7.26666e-09
0.00022732
7.34725e-09
0.00022732
7.44533e-09
0.000227321
7.59876e-09
0.000227321
7.75693e-09
0.000227321
7.97545e-09
0.000227322
8.13801e-09
0.000227322
8.22883e-09
0.000227322
8.25361e-09
0.000227323
8.21201e-09
0.000227323
8.09316e-09
0.000227323
7.89664e-09
0.000227324
7.57475e-09
0.000227324
7.14911e-09
0.000227324
6.45515e-09
0.000227324
5.65704e-09
0.000227324
4.13082e-09
0.000227324
2.68843e-09
-9.08002e-10
0.000232755
3.09402e-09
0.000232755
6.31209e-09
0.000232755
8.0194e-09
0.000232755
9.23648e-09
0.000232755
9.79058e-09
0.000232755
9.98676e-09
0.000232755
9.83195e-09
0.000232755
9.39932e-09
0.000232755
8.77226e-09
0.000232755
7.99994e-09
0.000232755
7.12303e-09
0.000232755
6.16914e-09
0.000232755
5.15536e-09
0.000232755
4.09222e-09
0.000232755
2.98696e-09
0.000232755
1.84757e-09
0.000232755
6.87115e-10
0.000232755
-4.72316e-10
0.000232755
-1.59712e-09
0.000232755
-2.64208e-09
0.000232755
-3.55291e-09
0.000232755
-4.27167e-09
0.000232756
-4.74434e-09
0.000232756
-4.92923e-09
0.000232756
-4.80436e-09
0.000232756
-4.37221e-09
0.000232757
-3.66067e-09
0.000232757
-2.71995e-09
0.000232757
-1.61628e-09
0.000232757
-4.23499e-10
0.000232758
7.85881e-10
0.000232758
1.94832e-09
0.000232758
3.01444e-09
0.000232758
3.95122e-09
0.000232759
4.74247e-09
0.000232759
5.38583e-09
0.000232759
5.89222e-09
0.00023276
6.2759e-09
0.00023276
6.56543e-09
0.00023276
6.7667e-09
0.000232761
6.93215e-09
0.000232761
7.01967e-09
0.000232761
7.12074e-09
0.000232762
7.27051e-09
0.000232762
7.42488e-09
0.000232762
7.63059e-09
0.000232763
7.78625e-09
0.000232763
7.87654e-09
0.000232763
7.90469e-09
0.000232764
7.86995e-09
0.000232764
7.76233e-09
0.000232764
7.58106e-09
0.000232765
7.28169e-09
0.000232765
6.88173e-09
0.000232765
6.22904e-09
0.000232765
5.46542e-09
0.000232765
4.0343e-09
0.000232765
2.62586e-09
-5.97933e-10
0.000238325
3.49265e-09
0.000238325
6.44247e-09
0.000238325
8.03534e-09
0.000238325
9.20056e-09
0.000238325
9.74243e-09
0.000238325
9.93614e-09
0.000238325
9.79288e-09
0.000238325
9.38187e-09
0.000238325
8.77914e-09
0.000238325
8.03022e-09
0.000238325
7.17249e-09
0.000238325
6.23092e-09
0.000238325
5.22075e-09
0.000238325
4.15143e-09
0.000238325
3.02993e-09
0.000238325
1.86495e-09
0.000238325
6.71213e-10
0.000238325
-5.26657e-10
0.000238325
-1.69192e-09
0.000238325
-2.77597e-09
0.000238325
-3.72135e-09
0.000238326
-4.46773e-09
0.000238326
-4.95984e-09
0.000238326
-5.15609e-09
0.000238326
-5.03589e-09
0.000238327
-4.60403e-09
0.000238327
-3.89112e-09
0.000238327
-2.94992e-09
0.000238327
-1.84857e-09
0.000238327
-6.61853e-10
0.000238328
5.37675e-10