/*--------------------------------*- C++ -*----------------------------------*\
  =========                 |
  \\      /  F ield         | OpenFOAM: The Open Source CFD Toolbox
   \\    /   O peration     | Website:  https://openfoam.org
    \\  /    A nd           | Version:  7
     \\/     M anipulation  |
\*---------------------------------------------------------------------------*/
FoamFile
{
    version     2.0;
    format      ascii;
    class       volVectorField;
    location    "500";
    object      U;
}
// * * * * * * * * * * * * * * * * * * * * * * * * * * * * * * * * * * * * * //

dimensions      [0 1 -1 0 0 0 0];

internalField   nonuniform List<vector> 
3974
(
(0.132368 5.04776e-07 -8.78076e-16)
(0.13237 5.49894e-07 -8.28879e-16)
(0.13237 6.43407e-07 -9.2095e-16)
(0.13237 6.74584e-07 -8.67411e-16)
(0.13237 6.54672e-07 -9.01608e-16)
(0.132371 6.02093e-07 -8.74294e-16)
(0.132371 5.2884e-07 -8.96845e-16)
(0.132371 4.43205e-07 -1.0316e-15)
(0.132371 3.51505e-07 -9.00929e-16)
(0.132371 2.58794e-07 -9.52766e-16)
(0.132371 1.69146e-07 -9.10873e-16)
(0.132371 8.58335e-08 -9.42524e-16)
(0.132372 1.14476e-08 -1.08277e-15)
(0.132372 -5.20003e-08 -9.52669e-16)
(0.132372 -1.02922e-07 -1.01544e-15)
(0.132372 -1.40024e-07 -9.84271e-16)
(0.132372 -1.62315e-07 -1.00853e-15)
(0.132372 -1.69116e-07 -1.07583e-15)
(0.132372 -1.60085e-07 -1.0176e-15)
(0.132372 -1.35288e-07 -1.08115e-15)
(0.132372 -9.5293e-08 -1.02715e-15)
(0.132372 -4.12569e-08 -1.06806e-15)
(0.132372 2.50609e-08 -1.14871e-15)
(0.132372 1.01369e-07 -1.06597e-15)
(0.132372 1.84902e-07 -1.10054e-15)
(0.132372 2.7253e-07 -1.0531e-15)
(0.132372 3.60966e-07 -1.08443e-15)
(0.132372 4.47023e-07 -1.22286e-15)
(0.132371 5.27856e-07 -1.07041e-15)
(0.132371 6.01191e-07 -1.205e-15)
(0.132371 6.65415e-07 -1.10024e-15)
(0.132371 7.19791e-07 -1.0508e-15)
(0.132371 7.64016e-07 -1.16473e-15)
(0.13237 7.99544e-07 -1.09486e-15)
(0.13237 8.25312e-07 -1.08297e-15)
(0.13237 8.53572e-07 -1.14336e-15)
(0.132369 8.55236e-07 -1.06719e-15)
(0.132369 1.0263e-06 -1.18601e-15)
(0.132996 6.36784e-07 -6.84221e-16)
(0.132997 5.22528e-07 -7.455e-16)
(0.132998 4.24864e-07 -7.26005e-16)
(0.132997 5.39114e-07 -6.8724e-16)
(0.132997 6.42139e-07 -7.82291e-16)
(0.132997 6.64772e-07 -7.45967e-16)
(0.132997 6.4109e-07 -7.77815e-16)
(0.132997 5.87725e-07 -7.60425e-16)
(0.132997 5.14807e-07 -7.41429e-16)
(0.132997 4.30063e-07 -8.03429e-16)
(0.132997 3.39604e-07 -7.91448e-16)
(0.132997 2.48371e-07 -8.2891e-16)
(0.132997 1.60336e-07 -8.02998e-16)
(0.132997 7.86581e-08 -7.83113e-16)
(0.132997 5.81332e-09 -8.49006e-16)
(0.132997 -5.62884e-08 -8.40167e-16)
(0.132997 -1.06133e-07 -8.89446e-16)
(0.132998 -1.42479e-07 -8.79186e-16)
(0.132998 -1.64342e-07 -8.56184e-16)
(0.132998 -1.71001e-07 -9.19235e-16)
(0.132998 -1.62022e-07 -9.0828e-16)
(0.132998 -1.37339e-07 -9.7479e-16)
(0.132998 -9.73597e-08 -9.35993e-16)
(0.132998 -4.30789e-08 -9.17139e-16)
(0.132998 2.39015e-08 -9.9297e-16)
(0.132998 1.01411e-07 -9.56173e-16)
(0.132998 1.86737e-07 -9.84783e-16)
(0.132998 2.76738e-07 -9.60305e-16)
(0.132998 3.68053e-07 -9.37525e-16)
(0.132998 4.57368e-07 -9.99702e-16)
(0.132997 5.41675e-07 -9.74735e-16)
(0.132997 6.18524e-07 -1.0351e-15)
(0.132997 6.86126e-07 -1.00543e-15)
(0.132997 7.43597e-07 -9.48737e-16)
(0.132997 7.90543e-07 -9.80623e-16)
(0.132997 8.28295e-07 -9.62704e-16)
(0.132996 8.56043e-07 -9.40213e-16)
(0.132996 8.84887e-07 -9.66312e-16)
(0.132996 8.90279e-07 -9.37002e-16)
(0.132995 1.03959e-06 -9.88573e-16)
(0.132996 1.24056e-06 -9.84568e-16)
(0.132996 1.41387e-06 -9.69626e-16)
(0.133546 9.53014e-07 -5.07846e-16)
(0.133546 7.4209e-07 -5.92007e-16)
(0.133547 5.88087e-07 -5.79862e-16)
(0.133546 5.47257e-07 -5.79999e-16)
(0.133545 5.11802e-07 -5.71616e-16)
(0.133544 6.25476e-07 -5.41124e-16)
(0.133543 6.79957e-07 -6.48069e-16)
(0.133543 6.77584e-07 -6.21358e-16)
(0.133543 6.43376e-07 -6.69075e-16)
(0.133543 5.84883e-07 -6.40916e-16)
(0.133543 5.09378e-07 -5.99536e-16)
(0.133543 4.23551e-07 -6.78248e-16)
(0.133543 3.32961e-07 -6.71269e-16)
(0.133543 2.42211e-07 -7.24027e-16)
(0.133543 1.55027e-07 -6.83564e-16)
(0.133543 7.43618e-08 -6.39641e-16)
(0.133543 2.50814e-09 -7.19018e-16)
(0.133543 -5.87684e-08 -7.15498e-16)
(0.133543 -1.08057e-07 -7.78308e-16)
(0.133543 -1.4418e-07 -7.55563e-16)
(0.133543 -1.66162e-07 -7.12475e-16)
(0.133543 -1.73232e-07 -7.92264e-16)
(0.133543 -1.64847e-07 -7.86508e-16)
(0.133543 -1.40788e-07 -8.78302e-16)
(0.133543 -1.01284e-07 -8.31209e-16)
(0.133543 -4.71464e-08 -7.78771e-16)
(0.133543 2.01868e-08 -8.74907e-16)
(0.133543 9.86637e-08 -8.35261e-16)
(0.133543 1.85618e-07 -8.81317e-16)
(0.133543 2.77877e-07 -8.45795e-16)
(0.133543 3.71985e-07 -7.98627e-16)
(0.133543 4.6448e-07 -8.7777e-16)
(0.133543 5.52173e-07 -8.63712e-16)
(0.133543 6.32422e-07 -9.189e-16)
(0.133543 7.0326e-07 -8.92725e-16)
(0.133543 7.63653e-07 -8.35476e-16)
(0.133543 8.13133e-07 -8.28399e-16)
(0.133543 8.52891e-07 -8.23877e-16)
(0.133542 8.82501e-07 -8.11533e-16)
(0.133542 9.11039e-07 -8.19156e-16)
(0.133542 9.23362e-07 -8.06077e-16)
(0.133542 1.00313e-06 -8.26402e-16)
(0.133543 1.14602e-06 -8.38865e-16)
(0.133544 1.35086e-06 -8.34555e-16)
(0.133544 1.52666e-06 -8.48593e-16)
(0.133545 1.51236e-06 -8.42395e-16)
(0.133545 1.41262e-06 -8.61749e-16)
(0.133544 1.312e-06 -8.61387e-16)
(0.133544 1.22993e-06 -8.4297e-16)
(0.133543 1.15921e-06 -8.42946e-16)
(0.133543 1.09139e-06 -8.18493e-16)
(0.133542 1.02268e-06 -8.20075e-16)
(0.133542 9.4637e-07 -8.15936e-16)
(0.133542 8.64264e-07 -8.03099e-16)
(0.133541 7.62724e-07 -8.1096e-16)
(0.133541 6.56105e-07 -7.93502e-16)
(0.13354 5.15756e-07 -8.04856e-16)
(0.13354 3.66949e-07 -8.11921e-16)
(0.13354 3.27732e-07 -8.04965e-16)
(0.134021 8.25713e-07 -3.70058e-16)
(0.134022 7.25555e-07 -5.00251e-16)
(0.134021 6.58688e-07 -4.59857e-16)
(0.13402 6.8898e-07 -4.33807e-16)
(0.134019 6.61566e-07 -4.28377e-16)
(0.134018 7.1722e-07 -3.96859e-16)
(0.134018 7.31933e-07 -5.45991e-16)
(0.134017 7.06813e-07 -4.87746e-16)
(0.134017 6.5867e-07 -6.43843e-16)
(0.134017 5.91771e-07 -4.97637e-16)
(0.134017 5.11353e-07 -4.57278e-16)
(0.134017 4.22811e-07 -5.89691e-16)
(0.134017 3.30919e-07 -5.43058e-16)
(0.134017 2.39785e-07 -6.38995e-16)
(0.134017 1.52776e-07 -5.44965e-16)
(0.134017 7.25595e-08 -4.99283e-16)
(0.134017 1.19165e-09 -6.93685e-16)
(0.134017 -5.97444e-08 -5.83623e-16)
(0.134017 -1.08964e-07 -6.89615e-16)
(0.134017 -1.45362e-07 -6.11304e-16)
(0.134017 -1.67969e-07 -5.70654e-16)
(0.134017 -1.75949e-07 -7.03211e-16)
(0.134017 -1.68633e-07 -6.58356e-16)
(0.134017 -1.45629e-07 -7.82753e-16)
(0.134017 -1.06969e-07 -7.05891e-16)
(0.134017 -5.32693e-08 -6.39673e-16)
(0.134017 1.41996e-08 -7.73496e-16)
(0.134017 9.34933e-08 -7.08872e-16)
(0.134017 1.81973e-07 -7.95891e-16)
(0.134017 2.76413e-07 -7.01966e-16)
(0.134017 3.73237e-07 -6.57455e-16)
(0.134017 4.68812e-07 -7.92623e-16)
(0.134017 5.59751e-07 -7.429e-16)
(0.134017 6.43211e-07 -8.34697e-16)
(0.134017 7.17053e-07 -7.59992e-16)
(0.134017 7.801e-07 -7.0602e-16)
(0.134017 8.31831e-07 -6.90381e-16)
(0.134017 8.733e-07 -6.91729e-16)
(0.134016 9.04531e-07 -6.91044e-16)
(0.134016 9.3225e-07 -6.89836e-16)
(0.134016 9.52054e-07 -6.8185e-16)
(0.134016 9.64864e-07 -6.84928e-16)
(0.134016 1.04659e-06 -7.02799e-16)
(0.134017 1.22694e-06 -7.05136e-16)
(0.134019 1.39649e-06 -7.04286e-16)
(0.134019 1.4545e-06 -6.99468e-16)
(0.13402 1.41455e-06 -7.00739e-16)
(0.13402 1.34218e-06 -7.06917e-16)
(0.13402 1.26991e-06 -6.96793e-16)
(0.134019 1.20205e-06 -6.85616e-16)
(0.134019 1.1348e-06 -6.67483e-16)
(0.134019 1.0657e-06 -6.5617e-16)
(0.134018 9.88232e-07 -6.65429e-16)
(0.134018 9.04601e-07 -6.60308e-16)
(0.134018 8.00045e-07 -6.54952e-16)
(0.134017 6.91271e-07 -6.41904e-16)
(0.134017 5.39608e-07 -6.35108e-16)
(0.134017 3.92787e-07 -6.50411e-16)
(0.134017 2.64616e-07 -6.57585e-16)
(0.134428 6.76422e-07 -2.4059e-16)
(0.134429 7.50085e-07 -3.07945e-16)
(0.134428 7.68067e-07 -2.98301e-16)
(0.134428 7.93269e-07 -2.94483e-16)
(0.134427 7.66472e-07 -3.00306e-16)
(0.134426 7.99347e-07 -2.55664e-16)
(0.134425 7.90577e-07 -3.48182e-16)
(0.134425 7.4569e-07 -3.19416e-16)
(0.134425 6.83044e-07 -3.74099e-16)
(0.134425 6.06418e-07 -3.03026e-16)
(0.134424 5.19782e-07 -3.25313e-16)
(0.134424 4.27442e-07 -4.02833e-16)
(0.134424 3.33384e-07 -3.82857e-16)
(0.134424 2.41156e-07 -4.41247e-16)
(0.134424 1.53709e-07 -3.59432e-16)
(0.134424 7.33737e-08 -3.72436e-16)
(0.134424 1.93707e-09 -4.43356e-16)
(0.134424 -5.92221e-08 -4.27194e-16)
(0.134424 -1.08956e-07 -4.87631e-16)
(0.134424 -1.46228e-07 -4.20295e-16)
(0.134424 -1.70063e-07 -4.42057e-16)
(0.134424 -1.79541e-07 -5.16161e-16)
(0.134424 -1.73843e-07 -5.10578e-16)
(0.134424 -1.52378e-07 -5.94421e-16)
(0.134424 -1.14961e-07 -5.11948e-16)
(0.134424 -6.20033e-08 -5.15173e-16)
(0.134425 5.38926e-09 -5.9791e-16)
(0.134425 8.53648e-08 -5.31609e-16)
(0.134425 1.75288e-07 -5.94387e-16)
(0.134425 2.71853e-07 -4.96766e-16)
(0.134425 3.71333e-07 -5.23979e-16)
(0.134425 4.69899e-07 -6.08175e-16)
(0.134425 5.63949e-07 -5.96969e-16)
(0.134425 6.50434e-07 -6.38565e-16)
(0.134425 7.2705e-07 -5.80695e-16)
(0.134425 7.92489e-07 -5.66935e-16)
(0.134425 8.46196e-07 -5.63575e-16)
(0.134424 8.89105e-07 -5.69409e-16)
(0.134424 9.21687e-07 -5.79988e-16)
(0.134424 9.48593e-07 -5.72558e-16)
(0.134424 9.72676e-07 -5.66304e-16)
(0.134424 9.6412e-07 -5.56379e-16)
(0.134424 1.01078e-06 -5.79049e-16)
(0.134424 1.1235e-06 -5.85569e-16)
(0.134425 1.2537e-06 -5.70642e-16)
(0.134426 1.36543e-06 -5.64089e-16)
(0.134427 1.38074e-06 -5.52621e-16)
(0.134427 1.34184e-06 -5.6935e-16)
(0.134427 1.28646e-06 -5.58515e-16)
(0.134427 1.22671e-06 -5.37705e-16)
(0.134427 1.16343e-06 -5.2332e-16)
(0.134426 1.09626e-06 -5.03392e-16)
(0.134426 1.01937e-06 -5.38915e-16)
(0.134426 9.35599e-07 -5.25945e-16)
(0.134426 8.29176e-07 -5.07532e-16)
(0.134425 7.19259e-07 -4.9556e-16)
(0.134425 5.56642e-07 -4.76138e-16)
(0.134425 4.1361e-07 -4.96409e-16)
(0.134425 1.77959e-07 -5.14311e-16)
(0.134775 5.30264e-07 -1.32419e-16)
(0.134776 7.40595e-07 -1.39927e-16)
(0.134775 8.28734e-07 -8.50552e-17)
(0.134775 8.68857e-07 -1.65283e-16)
(0.134774 8.49651e-07 -1.28429e-16)
(0.134774 8.71078e-07 -9.46351e-17)
(0.134773 8.47111e-07 -1.68841e-16)
(0.134773 7.87296e-07 -1.66454e-16)
(0.134772 7.12111e-07 -1.94271e-16)
(0.134772 6.26088e-07 -9.35749e-17)
(0.134772 5.32929e-07 -2.26462e-16)
(0.134772 4.36317e-07 -2.47571e-16)
(0.134772 3.39601e-07 -2.41433e-16)
(0.134772 2.45803e-07 -2.62913e-16)
(0.134772 1.57443e-07 -1.54936e-16)
(0.134772 7.65028e-08 -2.80568e-16)
(0.134772 4.48387e-09 -2.91097e-16)
(0.134772 -5.74457e-08 -2.81436e-16)
(0.134772 -1.08272e-07 -3.13608e-16)
(0.134772 -1.47018e-07 -1.57481e-16)
(0.134772 -1.72678e-07 -3.47252e-16)
(0.134772 -1.84224e-07 -3.6145e-16)
(0.134772 -1.80658e-07 -3.03141e-16)
(0.134772 -1.61167e-07 -4.00649e-16)
(0.134772 -1.25332e-07 -2.36085e-16)
(0.134772 -7.33506e-08 -4.18984e-16)
(0.134772 -6.17548e-09 -4.28531e-16)
(0.134772 7.44111e-08 -3.90845e-16)
(0.134772 1.65747e-07 -4.15303e-16)
(0.134772 2.6441e-07 -3.00409e-16)
(0.134772 3.66493e-07 -4.22248e-16)
(0.134772 4.67945e-07 -4.55606e-16)
(0.134773 5.64939e-07 -4.50525e-16)
(0.134773 6.54221e-07 -4.67711e-16)
(0.134772 7.3333e-07 -3.17088e-16)
(0.134772 8.00853e-07 -4.3644e-16)
(0.134772 8.56221e-07 -4.50184e-16)
(0.134772 9.0027e-07 -5.13055e-16)
(0.134772 9.3389e-07 -4.78758e-16)
(0.134772 9.60095e-07 -4.62787e-16)
(0.134772 9.86152e-07 -4.59838e-16)
(0.134772 9.71875e-07 -4.36358e-16)
(0.134772 9.97928e-07 -5.64381e-16)
(0.134772 1.0736e-06 -4.72169e-16)
(0.134773 1.17115e-06 -4.42179e-16)
(0.134773 1.28818e-06 -4.35657e-16)
(0.134774 1.33191e-06 -4.11885e-16)
(0.134774 1.32058e-06 -4.12908e-16)
(0.134774 1.28379e-06 -4.28233e-16)
(0.134774 1.23507e-06 -3.93853e-16)
(0.134774 1.17819e-06 -3.86266e-16)
(0.134774 1.11483e-06 -3.55895e-16)
(0.134774 1.03999e-06 -3.72517e-16)
(0.134774 9.57285e-07 -4.01342e-16)
(0.134774 8.50056e-07 -3.62626e-16)
(0.134774 7.39868e-07 -3.55277e-16)
(0.134773 5.67119e-07 -3.24957e-16)
(0.134773 4.28181e-07 -4.5531e-16)
(0.134773 8.9797e-08 -3.71985e-16)
(0.135068 3.9979e-07 -2.14036e-17)
(0.135069 7.16358e-07 6.29284e-18)
(0.135069 8.63232e-07 4.07946e-18)
(0.135068 9.24071e-07 -6.04277e-17)
(0.135068 9.14662e-07 -8.58085e-17)
(0.135067 9.29587e-07 -3.76096e-17)
(0.135067 8.96562e-07 -2.30338e-17)
(0.135067 8.26918e-07 -2.14537e-17)
(0.135066 7.42217e-07 -3.42879e-17)
(0.135066 6.48235e-07 -3.72621e-19)
(0.135066 5.49096e-07 -6.96232e-17)
(0.135066 4.48308e-07 -8.67113e-17)
(0.135066 3.48811e-07 -9.62207e-17)
(0.135066 2.53198e-07 -1.0956e-16)
(0.135066 1.63594e-07 -7.09422e-17)
(0.135066 8.16423e-08 -1.28398e-16)
(0.135066 8.56758e-09 -1.34609e-16)
(0.135065 -5.4664e-08 -1.41749e-16)
(0.135065 -1.07159e-07 -1.57837e-16)
(0.135065 -1.47973e-07 -1.29119e-16)
(0.135065 -1.76048e-07 -1.94034e-16)
(0.135066 -1.90211e-07 -2.02677e-16)
(0.135066 -1.89256e-07 -2.22069e-16)
(0.135066 -1.72124e-07 -2.30951e-16)
(0.135066 -1.38148e-07 -1.9984e-16)
(0.135066 -8.73119e-08 -2.57545e-16)
(0.135066 -2.04317e-08 -2.63211e-16)
(0.135066 6.07489e-08 -2.42622e-16)
(0.135066 1.53503e-07 -2.62816e-16)
(0.135066 2.54257e-07 -2.03015e-16)
(0.135066 3.58886e-07 -2.77127e-16)
(0.135067 4.63103e-07 -2.97914e-16)
(0.135067 5.62844e-07 -3.11813e-16)
(0.135067 6.54658e-07 -3.10059e-16)
(0.135067 7.35948e-07 -2.85976e-16)
(0.135067 8.05216e-07 -3.5121e-16)
(0.135067 8.6191e-07 -3.49369e-16)
(0.135067 9.06797e-07 -3.46371e-16)
(0.135066 9.41138e-07 -3.90424e-16)
(0.135066 9.66749e-07 -3.54398e-16)
(0.135066 9.9327e-07 -3.63062e-16)
(0.135066 9.78748e-07 -3.19143e-16)
(0.135066 9.93552e-07 -3.22544e-16)
(0.135066 1.04713e-06 -3.61631e-16)
(0.135067 1.11931e-06 -3.11612e-16)
(0.135067 1.22558e-06 -3.15267e-16)
(0.135068 1.28066e-06 -2.76252e-16)
(0.135068 1.288e-06 -2.76046e-16)
(0.135068 1.2674e-06 -2.94004e-16)
(0.135068 1.23015e-06 -2.51711e-16)
(0.135068 1.18086e-06 -2.59059e-16)
(0.135068 1.12251e-06 -2.13366e-16)
(0.135068 1.05083e-06 -2.37306e-16)
(0.135068 9.7017e-07 -2.61164e-16)
(0.135068 8.63079e-07 -2.19487e-16)
(0.135068 7.53345e-07 -2.23651e-16)
(0.135068 5.71739e-07 -1.76811e-16)
(0.135068 4.36019e-07 -1.82795e-16)
(0.135068 1.09802e-08 -2.32336e-16)
(0.135314 2.91352e-07 8.17362e-17)
(0.135315 6.87856e-07 1.54963e-16)
(0.135315 8.80543e-07 1.25334e-16)
(0.135315 9.61418e-07 1.39414e-17)
(0.135314 9.62709e-07 5.21012e-18)
(0.135314 9.74532e-07 5.42768e-17)
(0.135314 9.36952e-07 1.25653e-16)
(0.135313 8.61756e-07 9.16437e-17)
(0.135313 7.70709e-07 1.15051e-16)
(0.135313 6.70771e-07 8.28729e-17)
(0.135313 5.66767e-07 4.58118e-17)
(0.135313 4.62344e-07 6.67078e-17)
(0.135313 3.60257e-07 1.31492e-17)
(0.135312 2.6279e-07 3.7387e-17)
(0.135312 1.71741e-07 8.26899e-18)
(0.135312 8.84497e-08 -1.90302e-17)
(0.135312 1.38896e-08 1.60146e-17)
(0.135312 -5.11515e-08 -2.80541e-17)
(0.135312 -1.05874e-07 -1.0584e-17)
(0.135312 -1.49336e-07 -4.94873e-17)
(0.135312 -1.80389e-07 -8.16643e-17)
(0.135312 -1.9768e-07 -4.97059e-17)
(0.135312 -1.99764e-07 -9.87208e-17)
(0.135312 -1.85313e-07 -7.27743e-17)
(0.135313 -1.53402e-07 -1.07062e-16)
(0.135313 -1.03811e-07 -1.36595e-16)
(0.135313 -3.72413e-08 -1.06741e-16)
(0.135313 4.4564e-08 -1.40095e-16)
(0.135313 1.38772e-07 -1.14802e-16)
(0.135313 2.41615e-07 -1.36279e-16)
(0.135313 3.48727e-07 -1.71157e-16)
(0.135313 4.55561e-07 -1.46148e-16)
(0.135313 5.5782e-07 -1.88156e-16)
(0.135314 6.5187e-07 -1.60036e-16)
(0.135314 7.35e-07 -1.95495e-16)
(0.135314 8.05661e-07 -3.00891e-16)
(0.135314 8.63341e-07 -2.52868e-16)
(0.135314 9.08772e-07 -2.4543e-16)
(0.135314 9.43536e-07 -3.22148e-16)
(0.135314 9.68619e-07 -2.37519e-16)
(0.135314 9.9472e-07 -2.79703e-16)
(0.135314 9.82057e-07 -1.9406e-16)
(0.135314 9.91244e-07 -1.89096e-16)
(0.135314 1.03108e-06 -2.67862e-16)
(0.135314 1.08488e-06 -1.69651e-16)
(0.135314 1.17656e-06 -2.06466e-16)
(0.135314 1.23294e-06 -1.34792e-16)
(0.135315 1.25075e-06 -1.23542e-16)
(0.135315 1.24223e-06 -1.78377e-16)
(0.135315 1.21517e-06 -1.03597e-16)
(0.135315 1.17353e-06 -1.47623e-16)
(0.135315 1.12072e-06 -5.785e-17)
(0.135315 1.05288e-06 -6.42974e-17)
(0.135315 9.74968e-07 -1.45277e-16)
(0.135315 8.68806e-07 -6.79546e-17)
(0.135315 7.60087e-07 -1.0586e-16)
(0.135315 5.71191e-07 -2.1236e-17)
(0.135315 4.37241e-07 -2.47309e-17)
(0.135315 -5.54448e-08 -1.10023e-16)
(0.13552 2.06815e-07 2.05645e-16)
(0.13552 6.60245e-07 1.9622e-16)
(0.13552 8.85862e-07 2.14336e-16)
(0.13552 9.84098e-07 6.23839e-17)
(0.13552 9.96146e-07 1.07307e-16)
(0.13552 1.00714e-06 1.72165e-16)
(0.13552 9.68018e-07 1.65337e-16)
(0.135519 8.90513e-07 1.78087e-16)
(0.135519 7.95967e-07 1.43254e-16)
(0.135519 6.92193e-07 1.40915e-16)
(0.135519 5.8472e-07 1.48062e-16)
(0.135519 4.77487e-07 9.67741e-17)
(0.135519 3.73224e-07 9.92823e-17)
(0.135518 2.74027e-07 6.19557e-17)
(0.135518 1.81441e-07 5.88412e-17)
(0.135518 9.6552e-08 7.60802e-17)
(0.135518 2.0123e-08 4.43505e-17)
(0.135518 -4.72026e-08 5.81822e-17)
(0.135518 -1.04682e-07 1.58475e-17)
(0.135518 -1.51338e-07 9.92957e-18)
(0.135518 -1.85887e-07 1.78442e-17)
(0.135518 -2.06762e-07 -1.82821e-17)
(0.135518 -2.12245e-07 -5.80888e-18)
(0.135518 -2.00721e-07 -3.81411e-17)
(0.135519 -1.71003e-07 -4.54632e-17)
(0.135519 -1.22684e-07 -3.10864e-17)
(0.135519 -5.63827e-08 -7.35949e-17)
(0.135519 2.61172e-08 -5.37064e-17)
(0.135519 1.21831e-07 -8.41988e-17)
(0.135519 2.2676e-07 -7.82311e-17)
(0.135519 3.3627e-07 -7.36868e-17)
(0.13552 4.45545e-07 -1.15487e-16)
(0.13552 5.50062e-07 -8.65536e-17)
(0.13552 6.46025e-07 -1.29695e-16)
(0.13552 7.30639e-07 -1.3623e-16)
(0.13552 8.02333e-07 -1.63028e-16)
(0.13552 8.60666e-07 -1.37429e-16)
(0.13552 9.06363e-07 -1.62271e-16)
(0.13552 9.41288e-07 -1.51629e-16)
(0.13552 9.65873e-07 -9.12531e-17)
(0.13552 9.91101e-07 -9.68079e-17)
(0.13552 9.80973e-07 -4.5325e-17)
(0.13552 9.87641e-07 -7.59148e-17)
(0.13552 1.01902e-06 -7.16957e-17)
(0.13552 1.06023e-06 4.49005e-18)
(0.13552 1.13786e-06 2.20125e-18)
(0.135521 1.19044e-06 2.76525e-17)
(0.135521 1.21271e-06 -3.26692e-19)
(0.135521 1.21207e-06 4.15316e-17)
(0.135522 1.1931e-06 6.52175e-17)
(0.135522 1.15835e-06 5.88536e-17)
(0.135522 1.11103e-06 1.38719e-16)
(0.135522 1.04733e-06 7.71114e-17)
(0.135522 9.72597e-07 6.20347e-17)
(0.135522 8.67991e-07 1.09757e-16)
(0.135522 7.60703e-07 1.09662e-16)
(0.135522 5.66245e-07 1.69953e-16)
(0.135522 4.32549e-07 1.16402e-16)
(0.135522 -1.08973e-07 9.8991e-17)
(0.135691 1.45351e-07 3.45009e-16)
(0.135691 6.36215e-07 2.27664e-16)
(0.135691 8.83378e-07 3.37704e-16)
(0.135691 9.957e-07 1.74517e-16)
(0.135691 1.01774e-06 2.29147e-16)
(0.135691 1.02921e-06 3.0792e-16)
(0.135691 9.90446e-07 1.9588e-16)
(0.135691 9.12953e-07 2.58842e-16)
(0.13569 8.17227e-07 1.57169e-16)
(0.13569 7.11571e-07 1.82113e-16)
(0.13569 6.02071e-07 2.44634e-16)
(0.13569 4.92975e-07 1.09329e-16)
(0.13569 3.87082e-07 1.71986e-16)
(0.13569 2.86386e-07 6.92831e-17)
(0.13569 1.9225e-07 9.22206e-17)
(0.13569 1.05565e-07 1.66805e-16)
(0.13569 2.6928e-08 5.64946e-17)
(0.13569 -4.31175e-08 1.79114e-16)
(0.135689 -1.03842e-07 2.53995e-17)
(0.13569 -1.54187e-07 4.4031e-17)
(0.13569 -1.92691e-07 1.14935e-16)
(0.13569 -2.17532e-07 -2.84839e-18)
(0.13569 -2.26694e-07 7.23998e-17)
(0.13569 -2.18257e-07 -2.16265e-17)
(0.13569 -1.90782e-07 1.05273e-18)
(0.13569 -1.43694e-07 6.75186e-17)
(0.13569 -7.75693e-08 -5.77022e-17)
(0.135691 5.72243e-09 2.03738e-17)
(0.135691 1.03e-07 -6.91481e-17)
(0.135691 2.09998e-07 4.59921e-18)
(0.135691 3.21793e-07 2.48195e-17)
(0.135691 4.33301e-07 -9.95149e-17)
(0.135691 5.39788e-07 -1.61273e-17)
(0.135691 6.37319e-07 -1.13367e-16)
(0.135691 7.23052e-07 -9.56172e-17)
(0.135691 7.95428e-07 -4.23317e-17)
(0.135691 8.54099e-07 -2.39005e-17)
(0.135691 8.99813e-07 -1.04326e-16)
(0.135692 9.34673e-07 1.92997e-17)
(0.135692 9.5877e-07 3.3732e-17)
(0.135692 9.82939e-07 6.87793e-17)
(0.135692 9.75383e-07 1.38653e-16)
(0.135692 9.81139e-07 4.81455e-18)
(0.135692 1.00738e-06 1.62869e-16)
(0.135692 1.04026e-06 1.94107e-16)
(0.135692 1.10586e-06 1.89086e-16)
(0.135692 1.1527e-06 2.30327e-16)
(0.135693 1.17568e-06 8.96827e-17)
(0.135693 1.17948e-06 2.40883e-16)
(0.135693 1.16631e-06 2.79812e-16)
(0.135693 1.13728e-06 2.45459e-16)
(0.135694 1.095e-06 3.78997e-16)
(0.135694 1.03543e-06 1.89726e-16)
(0.135694 9.64071e-07 2.2829e-16)
(0.135694 8.61499e-07 3.63345e-16)
(0.135694 7.55935e-07 3.07746e-16)
(0.135694 5.57698e-07 3.24967e-16)
(0.135694 4.22964e-07 2.34697e-16)
(0.135694 -1.50113e-07 2.82007e-16)
(0.135833 1.04732e-07 3.72125e-16)
(0.135833 6.16964e-07 2.10064e-16)
(0.135833 8.76246e-07 2.76941e-16)
(0.135833 9.99326e-07 2.5306e-16)
(0.135833 1.03008e-06 2.81057e-16)
(0.135833 1.04265e-06 3.31372e-16)
(0.135833 1.0054e-06 1.85631e-16)
(0.135833 9.29493e-07 2.51983e-16)
(0.135833 8.34352e-07 1.30562e-16)
(0.135832 7.28458e-07 1.2968e-16)
(0.135832 6.18256e-07 2.31574e-16)
(0.135832 5.08243e-07 7.67052e-17)
(0.135832 4.01305e-07 1.58002e-16)
(0.135832 2.99393e-07 3.18551e-17)
(0.135832 2.03745e-07 3.32391e-17)
(0.135832 1.1511e-07 1.50888e-16)
(0.135832 3.39683e-08 2.11687e-17)
(0.135832 -3.9187e-08 1.19014e-16)
(0.135832 -1.03592e-07 -1.34612e-17)
(0.135832 -1.58058e-07 -7.27436e-18)
(0.135832 -2.00902e-07 9.98409e-17)
(0.135832 -2.3001e-07 -3.35973e-17)
(0.135832 -2.43039e-07 6.31621e-17)
(0.135832 -2.37765e-07 -5.62861e-17)
(0.135832 -2.12504e-07 -5.11169e-17)
(0.135832 -1.66548e-07 5.86996e-17)
(0.135833 -1.0047e-07 -9.04243e-17)
(0.135833 -1.62761e-08 1.01906e-17)
(0.135833 8.26142e-08 -9.93674e-17)
(0.135833 1.91641e-07 -8.93899e-17)
(0.135833 3.05577e-07 1.27101e-17)
(0.135833 4.19078e-07 -1.21415e-16)
(0.135833 5.27219e-07 -1.75699e-17)
(0.135834 6.25964e-07 -1.50338e-16)
(0.135834 7.12456e-07 -1.46725e-16)
(0.135834 7.85177e-07 -2.63296e-17)
(0.135834 8.43899e-07 -3.59762e-17)
(0.135834 8.89413e-07 -7.77999e-17)
(0.135834 9.24027e-07 2.87038e-17)
(0.135834 9.47641e-07 3.40102e-17)
(0.135834 9.70712e-07 1.1062e-16)
(0.135834 9.65539e-07 9.60994e-17)
(0.135834 9.71183e-07 4.5576e-17)
(0.135834 9.94247e-07 1.42969e-16)
(0.135835 1.0217e-06 1.62274e-16)
(0.135835 1.07759e-06 2.43434e-16)
(0.135835 1.11849e-06 2.03864e-16)
(0.135835 1.14015e-06 1.37048e-16)
(0.135835 1.14594e-06 2.79106e-16)
(0.135836 1.13659e-06 2.49762e-16)
(0.135836 1.11199e-06 3.21858e-16)
(0.135836 1.07407e-06 3.2704e-16)
(0.135836 1.01839e-06 2.41004e-16)
(0.135836 9.50425e-07 3.15259e-16)
(0.135837 8.50236e-07 3.05426e-16)
(0.135837 7.46594e-07 3.85266e-16)
(0.135837 5.46339e-07 3.70615e-16)
(0.135837 4.09634e-07 3.01497e-16)
(0.135837 -1.7981e-07 3.74778e-16)
(0.135951 8.21482e-08 4.08288e-16)
(0.135951 6.02714e-07 2.25887e-16)
(0.135951 8.6662e-07 2.95288e-16)
(0.135951 9.97419e-07 3.18755e-16)
(0.135951 1.03542e-06 3.2985e-16)
(0.135951 1.04931e-06 3.63687e-16)
(0.135951 1.0142e-06 2.30876e-16)
(0.135951 9.40894e-07 2.74211e-16)
(0.135951 8.47602e-07 1.23887e-16)
(0.135951 7.42761e-07 1.87699e-16)
(0.13595 6.32979e-07 2.4731e-16)
(0.13595 5.22898e-07 1.11736e-16)
(0.13595 4.15476e-07 1.7059e-16)
(0.13595 3.12637e-07 2.31958e-17)
(0.13595 2.15538e-07 8.96055e-17)
(0.13595 1.24829e-07 1.67671e-16)
(0.13595 4.09269e-08 6.02073e-17)
(0.13595 -3.56787e-08 1.30263e-16)
(0.13595 -1.04139e-07 2.47292e-17)
(0.13595 -1.63084e-07 4.44815e-17)
(0.13595 -2.10569e-07 1.1904e-16)
(0.13595 -2.44152e-07 8.01775e-18)
(0.13595 -2.6115e-07 7.7139e-17)
(0.13595 -2.59028e-07 -1.61129e-17)
(0.13595 -2.35884e-07 9.50022e-18)
(0.135951 -1.90913e-07 7.98461e-17)
(0.135951 -1.24731e-07 -4.68521e-17)
(0.135951 -3.9525e-08 2.26888e-17)
(0.135951 6.10075e-08 -1.0428e-16)
(0.135951 1.71989e-07 -3.31695e-17)
(0.135951 2.87887e-07 3.49916e-17)
(0.135952 4.03111e-07 -8.06643e-17)
(0.135952 5.12575e-07 -8.48854e-18)
(0.135952 6.12175e-07 -1.54027e-16)
(0.135952 6.99077e-07 -8.2613e-17)
(0.135952 7.71835e-07 3.05594e-17)
(0.135952 8.30354e-07 3.4535e-17)
(0.135952 8.75487e-07 -8.9149e-17)
(0.135952 9.09717e-07 8.3094e-17)
(0.135952 9.32855e-07 1.02916e-16)
(0.135953 9.54872e-07 1.75762e-16)
(0.135953 9.51844e-07 1.68002e-16)
(0.135953 9.57759e-07 4.2089e-17)
(0.135953 9.78795e-07 2.07422e-16)
(0.135953 1.00272e-06 2.37018e-16)
(0.135953 1.05096e-06 3.1737e-16)
(0.135953 1.08651e-06 2.96397e-16)
(0.135954 1.106e-06 1.1473e-16)
(0.135954 1.11222e-06 3.42279e-16)
(0.135954 1.10512e-06 3.54434e-16)
(0.135954 1.08379e-06 4.16974e-16)
(0.135955 1.04947e-06 3.99e-16)
(0.135955 9.97328e-07 2.93751e-16)
(0.135955 9.32654e-07 4.0732e-16)
(0.135955 8.35096e-07 4.12959e-16)
(0.135955 7.33506e-07 4.84147e-16)
(0.135955 5.32919e-07 4.59215e-16)
(0.135955 3.93703e-07 3.24476e-16)
(0.135956 -1.99168e-07 4.84738e-16)
(0.136049 7.46788e-08 4.47532e-16)
(0.136049 5.93152e-07 3.6608e-16)
(0.136049 8.55929e-07 3.51896e-16)
(0.136049 9.91839e-07 3.79016e-16)
(0.136049 1.03565e-06 3.87987e-16)
(0.136049 1.05084e-06 3.98867e-16)
(0.136049 1.01816e-06 3.29902e-16)
(0.136049 9.48049e-07 3.20765e-16)
(0.136049 8.57458e-07 2.62007e-16)
(0.136049 7.54622e-07 2.64933e-16)
(0.136049 6.46143e-07 2.75392e-16)
(0.136049 5.36703e-07 2.00902e-16)
(0.136049 4.2928e-07 2.15632e-16)
(0.136049 3.25775e-07 1.60378e-16)
(0.136049 2.27285e-07 1.72075e-16)
(0.136048 1.34401e-07 1.99041e-16)
(0.136048 4.75193e-08 1.46971e-16)
(0.136048 -3.28236e-08 1.75211e-16)
(0.136048 -1.05645e-07 1.154e-16)
(0.136048 -1.69349e-07 1.28791e-16)
(0.136048 -2.21686e-07 1.51175e-16)
(0.136049 -2.59861e-07 9.72216e-17)
(0.136049 -2.80837e-07 1.24179e-16)
(0.136049 -2.81783e-07 7.56452e-17)
(0.136049 -2.60604e-07 9.41673e-17)
(0.136049 -2.16437e-07 1.11966e-16)
(0.136049 -1.49992e-07 4.40123e-17)
(0.13605 -6.36812e-08 7.28286e-17)
(0.13605 3.84918e-08 3.52198e-17)
(0.13605 1.51316e-07 5.17819e-17)
(0.13605 2.68963e-07 7.24953e-17)
(0.13605 3.85615e-07 1.84877e-17)
(0.13605 4.96061e-07 3.92543e-17)
(0.13605 5.96165e-07 -1.0904e-17)
(0.136051 6.8315e-07 1.06072e-17)
(0.136051 7.55667e-07 2.46103e-17)
(0.136051 8.13767e-07 8.27015e-17)
(0.136051 8.58376e-07 5.91428e-17)
(0.136051 8.92123e-07 1.05122e-16)
(0.136051 9.14803e-07 1.66984e-16)
(0.136051 9.35849e-07 1.63493e-16)
(0.136051 9.34738e-07 2.12422e-16)
(0.136052 9.41094e-07 2.01082e-16)
(0.136052 9.60766e-07 2.41506e-16)
(0.136052 9.82362e-07 3.09362e-16)
(0.136052 1.02462e-06 3.13907e-16)
(0.136052 1.05565e-06 3.56889e-16)
(0.136052 1.07281e-06 3.21768e-16)
(0.136053 1.0786e-06 3.83524e-16)
(0.136053 1.07268e-06 4.42925e-16)
(0.136053 1.05364e-06 4.27688e-16)
(0.136053 1.02223e-06 4.58001e-16)
(0.136054 9.7324e-07 4.26933e-16)
(0.136054 9.11672e-07 4.59284e-16)
(0.136054 8.1692e-07 5.10731e-16)
(0.136054 7.17476e-07 5.01036e-16)
(0.136054 5.18137e-07 5.29669e-16)
(0.136054 3.76238e-07 5.13071e-16)
(0.136054 -2.09312e-07 5.43168e-16)
(0.136131 7.95495e-08 4.8994e-16)
(0.136132 5.87741e-07 4.60584e-16)
(0.136132 8.45118e-07 4.12262e-16)
(0.136132 9.83976e-07 4.50245e-16)
(0.136132 1.03229e-06 4.44685e-16)
(0.136132 1.04864e-06 4.34808e-16)
(0.136132 1.01848e-06 4.06186e-16)
(0.136132 9.51859e-07 3.7077e-16)
(0.136132 8.64497e-07 3.4116e-16)
(0.136132 7.64316e-07 3.47751e-16)
(0.136132 6.57788e-07 3.04467e-16)
(0.136132 5.49531e-07 2.79163e-16)
(0.136131 4.42492e-07 2.69104e-16)
(0.136131 3.38531e-07 2.48694e-16)
(0.136131 2.38696e-07 2.6319e-16)
(0.136131 1.4355e-07 2.33494e-16)
(0.136131 5.35053e-08 2.28985e-16)
(0.136131 -3.08065e-08 2.2681e-16)
(0.136131 -1.08223e-07 2.06265e-16)
(0.136131 -1.76882e-07 2.19338e-16)
(0.136131 -2.34191e-07 1.86455e-16)
(0.136131 -2.76985e-07 1.80391e-16)
(0.136131 -3.0187e-07 1.77902e-16)
(0.136132 -3.05735e-07 1.66094e-16)
(0.136132 -2.86325e-07 1.83197e-16)
(0.136132 -2.42767e-07 1.4696e-16)
(0.136132 -1.7591e-07 1.32181e-16)
(0.136132 -8.84279e-08 1.31157e-16)
(0.136133 1.53455e-08 1.24752e-16)
(0.136133 1.29863e-07 1.44831e-16)
(0.136133 2.49011e-07 1.12404e-16)
(0.136133 3.66778e-07 1.02147e-16)
(0.136133 4.77863e-07 9.88822e-17)
(0.136133 5.78135e-07 8.6241e-17)
(0.136133 6.64904e-07 1.12164e-16)
(0.136133 7.36939e-07 2.55582e-17)
(0.136134 7.94444e-07 1.43243e-16)
(0.136134 8.38422e-07 1.63802e-16)
(0.136134 8.71621e-07 1.4689e-16)
(0.136134 8.93869e-07 2.42908e-16)
(0.136134 9.14048e-07 1.48853e-16)
(0.136134 9.1465e-07 2.66921e-16)
(0.136135 9.21516e-07 3.26733e-16)
(0.136135 9.4021e-07 2.9731e-16)
(0.136135 9.60234e-07 3.95134e-16)
(0.136135 9.97765e-07 3.08482e-16)
(0.136135 1.02513e-06 4.2402e-16)
(0.136135 1.04015e-06 4.63775e-16)
(0.136136 1.04514e-06 4.44092e-16)
(0.136136 1.03972e-06 5.37049e-16)
(0.136136 1.02226e-06 4.30558e-16)
(0.136136 9.93162e-07 5.2777e-16)
(0.136137 9.46953e-07 5.64675e-16)
(0.136137 8.88285e-07 5.29715e-16)
(0.136137 7.96476e-07 6.15261e-16)
(0.136137 6.99251e-07 5.11023e-16)
(0.136137 5.02615e-07 6.07296e-16)
(0.136137 3.58184e-07 6.58753e-16)
(0.136137 -2.11336e-07 6.17354e-16)
(0.136202 9.42628e-08 5.32716e-16)
(0.136202 5.85895e-07 5.40542e-16)
(0.136202 8.34826e-07 4.64678e-16)
(0.136202 9.74857e-07 5.26398e-16)
(0.136202 1.02654e-06 4.9578e-16)
(0.136202 1.04387e-06 4.69058e-16)
(0.136202 1.01619e-06 4.75309e-16)
(0.136202 9.53153e-07 4.13718e-16)
(0.136202 8.69303e-07 4.14269e-16)
(0.136202 7.72182e-07 4.31226e-16)
(0.136202 6.68039e-07 3.20049e-16)
(0.136202 5.61345e-07 3.5256e-16)
(0.136202 4.54965e-07 3.19372e-16)
(0.136202 3.50694e-07 3.31722e-16)
(0.136202 2.49537e-07 3.5541e-16)
(0.136201 1.52049e-07 2.5508e-16)
(0.136201 5.8696e-08 3.03689e-16)
(0.136201 -2.97597e-08 2.76004e-16)
(0.136201 -1.11934e-07 2.88326e-16)
(0.136201 -1.85658e-07 3.11058e-16)
(0.136202 -2.47974e-07 2.08798e-16)
(0.136202 -2.9533e-07 2.56469e-16)
(0.136202 -3.23985e-07 2.29657e-16)
(0.136202 -3.3057e-07 2.48321e-16)
(0.136202 -3.12709e-07 2.73962e-16)
(0.136202 -2.69564e-07 1.69594e-16)
(0.136202 -2.02169e-07 2.12435e-16)
(0.136203 -1.13486e-07 1.87175e-16)
(0.136203 -8.19525e-09 2.10104e-16)
(0.136203 1.07826e-07 2.39892e-16)
(0.136203 2.28202e-07 1.39693e-16)
(0.136203 3.4676e-07 1.84143e-16)
(0.136203 4.58147e-07 1.57759e-16)
(0.136204 5.58274e-07 1.7836e-16)
(0.136204 6.44561e-07 2.12634e-16)
(0.136204 7.15911e-07 8.76373e-17)
(0.136204 7.72681e-07 1.61592e-16)
(0.136204 8.15954e-07 2.56076e-16)
(0.136204 8.48569e-07 1.80465e-16)