/*--------------------------------*- C++ -*----------------------------------*\
  =========                 |
  \\      /  F ield         | OpenFOAM: The Open Source CFD Toolbox
   \\    /   O peration     | Website:  https://openfoam.org
    \\  /    A nd           | Version:  7
     \\/     M anipulation  |
\*---------------------------------------------------------------------------*/
FoamFile
{
    version     2.0;
    format      ascii;
    class       volScalarField;
    location    "2000";
    object      k;
}
// * * * * * * * * * * * * * * * * * * * * * * * * * * * * * * * * * * * * * //

dimensions      [0 2 -2 0 0 0 0];

internalField   nonuniform List<scalar> 
3963
(
7.57045e-05
7.56991e-05
7.56985e-05
7.56989e-05
7.56995e-05
7.57001e-05
7.57006e-05
7.57011e-05
7.57016e-05
7.5702e-05
7.57024e-05
7.57028e-05
7.57032e-05
7.57036e-05
7.57039e-05
7.57043e-05
7.57046e-05
7.57049e-05
7.57053e-05
7.57055e-05
7.57061e-05
7.57228e-05
7.57243e-05
7.57263e-05
7.57274e-05
7.57279e-05
7.57282e-05
7.57284e-05
7.57285e-05
7.57285e-05
7.57285e-05
7.57285e-05
7.57284e-05
7.57283e-05
7.57282e-05
7.57276e-05
7.573e-05
7.79144e-05
7.7909e-05
7.79081e-05
7.79084e-05
7.79091e-05
7.79097e-05
7.79104e-05
7.7911e-05
7.79115e-05
7.79121e-05
7.79126e-05
7.79131e-05
7.79136e-05
7.7914e-05
7.79145e-05
7.79149e-05
7.79153e-05
7.79157e-05
7.79161e-05
7.79163e-05
7.79183e-05
7.7901e-05
7.7894e-05
7.79072e-05
7.7909e-05
7.79113e-05
7.79123e-05
7.79201e-05
7.7925e-05
7.79283e-05
7.79306e-05
7.79322e-05
7.79334e-05
7.79343e-05
7.79349e-05
7.79354e-05
7.79359e-05
7.79362e-05
7.79364e-05
7.79366e-05
7.79368e-05
7.79364e-05
7.7939e-05
8.01863e-05
8.01812e-05
8.01805e-05
8.01808e-05
8.01815e-05
8.01822e-05
8.0183e-05
8.01837e-05
8.01843e-05
8.0185e-05
8.01856e-05
8.01862e-05
8.01867e-05
8.01873e-05
8.01878e-05
8.01883e-05
8.01888e-05
8.01892e-05
8.01897e-05
8.019e-05
8.01916e-05
8.01854e-05
8.01807e-05
8.01589e-05
8.01493e-05
8.01464e-05
8.01456e-05
8.01454e-05
8.01453e-05
8.01453e-05
8.01453e-05
8.01455e-05
8.01457e-05
8.01459e-05
8.01461e-05
8.01464e-05
8.01467e-05
8.0147e-05
8.01473e-05
8.01476e-05
8.0148e-05
8.01483e-05
8.01486e-05
8.0149e-05
8.01493e-05
8.01497e-05
8.015e-05
8.01504e-05
8.01507e-05
8.01511e-05
8.01514e-05
8.01518e-05
8.01522e-05
8.01525e-05
8.01529e-05
8.01532e-05
8.01536e-05
8.01539e-05
8.01543e-05
8.01546e-05
8.0155e-05
8.01554e-05
8.01557e-05
8.01561e-05
8.01564e-05
8.01568e-05
8.01571e-05
8.01575e-05
8.01578e-05
8.01581e-05
8.01585e-05
8.01588e-05
8.01592e-05
8.01595e-05
8.01598e-05
8.01601e-05
8.01605e-05
8.01608e-05
8.01611e-05
8.01614e-05
8.01617e-05
8.0162e-05
8.01623e-05
8.01625e-05
8.01628e-05
8.01631e-05
8.01633e-05
8.01636e-05
8.01638e-05
8.01641e-05
8.01643e-05
8.01645e-05
8.01647e-05
8.01649e-05
8.01651e-05
8.01653e-05
8.01655e-05
8.01657e-05
8.01658e-05
8.01657e-05
8.01731e-05
8.01778e-05
8.01809e-05
8.01827e-05
8.01868e-05
8.01912e-05
8.01948e-05
8.01977e-05
8.01999e-05
8.02017e-05
8.02031e-05
8.02043e-05
8.02052e-05
8.0206e-05
8.02066e-05
8.02072e-05
8.02076e-05
8.0208e-05
8.02078e-05
8.02108e-05
8.2519e-05
8.25141e-05
8.25136e-05
8.2514e-05
8.25148e-05
8.25156e-05
8.25164e-05
8.25172e-05
8.2518e-05
8.25187e-05
8.25194e-05
8.25201e-05
8.25207e-05
8.25214e-05
8.2522e-05
8.25225e-05
8.25231e-05
8.25236e-05
8.25242e-05
8.25246e-05
8.25257e-05
8.25239e-05
8.25217e-05
8.25118e-05
8.25026e-05
8.24968e-05
8.24936e-05
8.24917e-05
8.24905e-05
8.24897e-05
8.24891e-05
8.24887e-05
8.24885e-05
8.24883e-05
8.24882e-05
8.24882e-05
8.24882e-05
8.24883e-05
8.24884e-05
8.24886e-05
8.24887e-05
8.24889e-05
8.24891e-05
8.24893e-05
8.24896e-05
8.24898e-05
8.24901e-05
8.24903e-05
8.24906e-05
8.24909e-05
8.24911e-05
8.24914e-05
8.24917e-05
8.2492e-05
8.24923e-05
8.24926e-05
8.24929e-05
8.24932e-05
8.24935e-05
8.24938e-05
8.24942e-05
8.24945e-05
8.24948e-05
8.24951e-05
8.24954e-05
8.24957e-05
8.24961e-05
8.24964e-05
8.24967e-05
8.2497e-05
8.24973e-05
8.24976e-05
8.24979e-05
8.24982e-05
8.24985e-05
8.24988e-05
8.24991e-05
8.24994e-05
8.24997e-05
8.25e-05
8.25003e-05
8.25006e-05
8.25008e-05
8.25011e-05
8.25013e-05
8.25016e-05
8.25018e-05
8.25021e-05
8.25023e-05
8.25025e-05
8.25027e-05
8.25029e-05
8.25031e-05
8.25033e-05
8.25035e-05
8.25036e-05
8.25038e-05
8.25039e-05
8.25041e-05
8.25039e-05
8.25068e-05
8.25102e-05
8.25132e-05
8.25154e-05
8.25181e-05
8.25213e-05
8.25245e-05
8.25273e-05
8.25297e-05
8.25318e-05
8.25335e-05
8.2535e-05
8.25362e-05
8.25373e-05
8.25382e-05
8.25389e-05
8.25396e-05
8.25402e-05
8.25401e-05
8.25433e-05
8.49102e-05
8.49055e-05
8.49052e-05
8.49058e-05
8.49066e-05
8.49076e-05
8.49085e-05
8.49093e-05
8.49102e-05
8.4911e-05
8.49118e-05
8.49125e-05
8.49133e-05
8.4914e-05
8.49146e-05
8.49153e-05
8.49159e-05
8.49165e-05
8.49171e-05
8.49176e-05
8.49184e-05
8.49183e-05
8.49176e-05
8.49135e-05
8.49077e-05
8.49024e-05
8.48985e-05
8.48958e-05
8.48939e-05
8.48924e-05
8.48913e-05
8.48905e-05
8.48899e-05
8.48894e-05
8.4889e-05
8.48888e-05
8.48886e-05
8.48884e-05
8.48883e-05
8.48883e-05
8.48883e-05
8.48884e-05
8.48884e-05
8.48885e-05
8.48887e-05
8.48888e-05
8.4889e-05
8.48891e-05
8.48893e-05
8.48895e-05
8.48897e-05
8.48899e-05
8.48902e-05
8.48904e-05
8.48906e-05
8.48909e-05
8.48911e-05
8.48914e-05
8.48917e-05
8.48919e-05
8.48922e-05
8.48925e-05
8.48927e-05
8.4893e-05
8.48933e-05
8.48936e-05
8.48939e-05
8.48941e-05
8.48944e-05
8.48947e-05
8.4895e-05
8.48953e-05
8.48956e-05
8.48958e-05
8.48961e-05
8.48964e-05
8.48967e-05
8.48969e-05
8.48972e-05
8.48975e-05
8.48977e-05
8.4898e-05
8.48982e-05
8.48984e-05
8.48987e-05
8.48989e-05
8.48991e-05
8.48993e-05
8.48995e-05
8.48997e-05
8.48999e-05
8.49001e-05
8.49003e-05
8.49004e-05
8.49006e-05
8.49007e-05
8.49009e-05
8.4901e-05
8.49012e-05
8.49011e-05
8.49021e-05
8.4904e-05
8.49062e-05
8.49081e-05
8.49102e-05
8.49125e-05
8.49149e-05
8.49174e-05
8.49196e-05
8.49217e-05
8.49235e-05
8.4925e-05
8.49264e-05
8.49276e-05
8.49287e-05
8.49296e-05
8.49303e-05
8.49311e-05
8.49312e-05
8.49346e-05
8.73574e-05
8.73529e-05
8.73527e-05
8.73534e-05
8.73544e-05
8.73554e-05
8.73564e-05
8.73573e-05
8.73582e-05
8.73591e-05
8.736e-05
8.73608e-05
8.73616e-05
8.73624e-05
8.73631e-05
8.73638e-05
8.73645e-05
8.73652e-05
8.73658e-05
8.73664e-05
8.73671e-05
8.73675e-05
8.73676e-05
8.73662e-05
8.73633e-05
8.73598e-05
8.73565e-05
8.73538e-05
8.73516e-05
8.73499e-05
8.73486e-05
8.73475e-05
8.73466e-05
8.73459e-05
8.73453e-05
8.73449e-05
8.73445e-05
8.73442e-05
8.7344e-05
8.73438e-05
8.73437e-05
8.73436e-05
8.73436e-05
8.73436e-05
8.73436e-05
8.73437e-05
8.73437e-05
8.73438e-05
8.73439e-05
8.73441e-05
8.73442e-05
8.73444e-05
8.73445e-05
8.73447e-05
8.73449e-05
8.73451e-05
8.73453e-05
8.73455e-05
8.73457e-05
8.73459e-05
8.73461e-05
8.73464e-05
8.73466e-05
8.73468e-05
8.73471e-05
8.73473e-05
8.73476e-05
8.73478e-05
8.73481e-05
8.73483e-05
8.73486e-05
8.73489e-05
8.73491e-05
8.73494e-05
8.73496e-05
8.73499e-05
8.73501e-05
8.73504e-05
8.73506e-05
8.73508e-05
8.73511e-05
8.73513e-05
8.73515e-05
8.73517e-05
8.73519e-05
8.73521e-05
8.73523e-05
8.73525e-05
8.73527e-05
8.73529e-05
8.7353e-05
8.73532e-05
8.73533e-05
8.73535e-05
8.73536e-05
8.73538e-05
8.73539e-05
8.7354e-05
8.73541e-05
8.73541e-05
8.73544e-05
8.73554e-05
8.73567e-05
8.73581e-05
8.73596e-05
8.73613e-05
8.73631e-05
8.7365e-05
8.73669e-05
8.73687e-05
8.73703e-05
8.73719e-05
8.73732e-05
8.73744e-05
8.73755e-05
8.73765e-05
8.73774e-05
8.73782e-05
8.73783e-05
8.73819e-05
8.98577e-05
8.98532e-05
8.98531e-05
8.98539e-05
8.9855e-05
8.98561e-05
8.98572e-05
8.98582e-05
8.98591e-05
8.98601e-05
8.9861e-05
8.98619e-05
8.98627e-05
8.98635e-05
8.98643e-05
8.98651e-05
8.98658e-05
8.98665e-05
8.98672e-05
8.98679e-05
8.98686e-05
8.98692e-05
8.98696e-05
8.98695e-05
8.98683e-05
8.98664e-05
8.98642e-05
8.98621e-05
8.98602e-05
8.98586e-05
8.98572e-05
8.98561e-05
8.98551e-05
8.98543e-05
8.98537e-05
8.98531e-05
8.98526e-05
8.98522e-05
8.98519e-05
8.98517e-05
8.98515e-05
8.98513e-05
8.98512e-05
8.98511e-05
8.98511e-05
8.9851e-05
8.9851e-05
8.98511e-05
8.98511e-05
8.98512e-05
8.98513e-05
8.98514e-05
8.98515e-05
8.98516e-05
8.98517e-05
8.98519e-05
8.9852e-05
8.98522e-05
8.98524e-05
8.98525e-05
8.98527e-05
8.98529e-05
8.98531e-05
8.98533e-05
8.98535e-05
8.98538e-05
8.9854e-05
8.98542e-05
8.98544e-05
8.98546e-05
8.98549e-05
8.98551e-05
8.98553e-05
8.98556e-05
8.98558e-05
8.9856e-05
8.98562e-05
8.98564e-05
8.98567e-05
8.98569e-05
8.98571e-05
8.98573e-05
8.98575e-05
8.98577e-05
8.98579e-05
8.9858e-05
8.98582e-05
8.98584e-05
8.98585e-05
8.98587e-05
8.98588e-05
8.9859e-05
8.98591e-05
8.98592e-05
8.98593e-05
8.98594e-05
8.98595e-05
8.98596e-05
8.98597e-05
8.98597e-05
8.98599e-05
8.98602e-05
8.9861e-05
8.98619e-05
8.98629e-05
8.9864e-05
8.98653e-05
8.98667e-05
8.98682e-05
8.98696e-05
8.9871e-05
8.98724e-05
8.98736e-05
8.98747e-05
8.98758e-05
8.98767e-05
8.98776e-05
8.98784e-05
8.98785e-05
8.98822e-05
9.24076e-05
9.24031e-05
9.2403e-05
9.24039e-05
9.2405e-05
9.24062e-05
9.24073e-05
9.24084e-05
9.24094e-05
9.24104e-05
9.24113e-05
9.24123e-05
9.24132e-05
9.2414e-05
9.24148e-05
9.24157e-05
9.24164e-05
9.24172e-05
9.24179e-05
9.24186e-05
9.24193e-05
9.242e-05
9.24206e-05
9.24209e-05
9.24208e-05
9.242e-05
9.24189e-05
9.24175e-05
9.24162e-05
9.24149e-05
9.24137e-05
9.24127e-05
9.24118e-05
9.2411e-05
9.24104e-05
9.24098e-05
9.24093e-05
9.24089e-05
9.24085e-05
9.24082e-05
9.2408e-05
9.24078e-05
9.24076e-05
9.24075e-05
9.24074e-05
9.24073e-05
9.24072e-05
9.24072e-05
9.24072e-05
9.24072e-05
9.24073e-05
9.24073e-05
9.24074e-05
9.24075e-05
9.24076e-05
9.24077e-05
9.24078e-05
9.24079e-05
9.24081e-05
9.24082e-05
9.24084e-05
9.24085e-05
9.24087e-05
9.24089e-05
9.24091e-05
9.24093e-05
9.24094e-05
9.24096e-05
9.24098e-05
9.241e-05
9.24102e-05
9.24104e-05
9.24106e-05
9.24108e-05
9.2411e-05
9.24112e-05
9.24114e-05
9.24116e-05
9.24118e-05
9.2412e-05
9.24122e-05
9.24124e-05
9.24126e-05
9.24127e-05
9.24129e-05
9.24131e-05
9.24132e-05
9.24133e-05
9.24135e-05
9.24136e-05
9.24137e-05
9.24139e-05
9.2414e-05
9.24141e-05
9.24141e-05
9.24142e-05
9.24143e-05
9.24144e-05
9.24144e-05
9.24144e-05
9.24145e-05
9.24146e-05
9.2415e-05
9.24155e-05
9.24161e-05
9.24169e-05
9.24177e-05
9.24187e-05
9.24197e-05
9.24208e-05
9.24219e-05
9.2423e-05
9.2424e-05
9.2425e-05
9.24259e-05
9.24268e-05
9.24276e-05
9.24284e-05
9.24284e-05
9.24322e-05
9.50033e-05
9.49988e-05
9.49987e-05
9.49996e-05
9.50008e-05
9.5002e-05
9.50031e-05
9.50042e-05
9.50052e-05
9.50063e-05
9.50073e-05
9.50082e-05
9.50091e-05
9.501e-05
9.50109e-05
9.50117e-05
9.50125e-05
9.50133e-05
9.50141e-05
9.50148e-05
9.50155e-05
9.50162e-05
9.50169e-05
9.50175e-05
9.50178e-05
9.50177e-05
9.50173e-05
9.50167e-05
9.50159e-05
9.50151e-05
9.50142e-05
9.50135e-05
9.50128e-05
9.50121e-05
9.50115e-05
9.5011e-05
9.50106e-05
9.50102e-05
9.50098e-05
9.50095e-05
9.50093e-05
9.5009e-05
9.50089e-05
9.50087e-05
9.50086e-05
9.50085e-05
9.50084e-05
9.50084e-05
9.50083e-05
9.50083e-05
9.50083e-05
9.50084e-05
9.50084e-05
9.50085e-05
9.50085e-05
9.50086e-05
9.50087e-05
9.50088e-05
9.50089e-05
9.5009e-05
9.50091e-05
9.50093e-05
9.50094e-05
9.50096e-05
9.50097e-05
9.50099e-05
9.50101e-05
9.50102e-05
9.50104e-05
9.50106e-05
9.50108e-05
9.50109e-05
9.50111e-05
9.50113e-05
9.50115e-05
9.50117e-05
9.50119e-05
9.5012e-05
9.50122e-05
9.50124e-05
9.50125e-05
9.50127e-05
9.50128e-05
9.5013e-05
9.50131e-05
9.50133e-05
9.50134e-05
9.50135e-05
9.50136e-05
9.50137e-05
9.50138e-05
9.50139e-05
9.5014e-05
9.50141e-05
9.50142e-05
9.50142e-05
9.50143e-05
9.50143e-05
9.50143e-05
9.50144e-05
9.50144e-05
9.50144e-05
9.50145e-05
9.50148e-05
9.50151e-05
9.50156e-05
9.50161e-05
9.50167e-05
9.50174e-05
9.50182e-05
9.5019e-05
9.50198e-05
9.50206e-05
9.50214e-05
9.50221e-05
9.50229e-05
9.50235e-05
9.50242e-05
9.50242e-05
9.50279e-05
9.76407e-05
9.76361e-05
9.7636e-05
9.76369e-05
9.76381e-05
9.76393e-05
9.76405e-05
9.76416e-05
9.76426e-05
9.76437e-05
9.76447e-05
9.76456e-05
9.76466e-05
9.76475e-05
9.76484e-05
9.76492e-05
9.765e-05
9.76508e-05
9.76516e-05
9.76524e-05
9.76531e-05
9.76538e-05
9.76545e-05
9.76552e-05
9.76557e-05
9.7656e-05
9.76561e-05
9.7656e-05
9.76557e-05
9.76553e-05
9.76548e-05
9.76544e-05
9.76539e-05
9.76534e-05
9.7653e-05
9.76526e-05
9.76522e-05
9.76519e-05
9.76516e-05
9.76514e-05
9.76511e-05
9.76509e-05
9.76508e-05
9.76506e-05
9.76505e-05
9.76504e-05
9.76503e-05
9.76503e-05
9.76502e-05
9.76502e-05
9.76502e-05
9.76502e-05
9.76502e-05
9.76502e-05
9.76503e-05
9.76504e-05
9.76504e-05
9.76505e-05
9.76506e-05
9.76507e-05
9.76508e-05
9.76509e-05
9.76511e-05
9.76512e-05
9.76513e-05
9.76515e-05
9.76516e-05
9.76518e-05
9.76519e-05
9.76521e-05
9.76523e-05
9.76524e-05
9.76526e-05
9.76527e-05
9.76529e-05
9.76531e-05
9.76532e-05
9.76534e-05
9.76535e-05
9.76537e-05
9.76538e-05
9.7654e-05
9.76541e-05
9.76542e-05
9.76544e-05
9.76545e-05
9.76546e-05
9.76547e-05
9.76548e-05
9.76549e-05
9.7655e-05
9.7655e-05
9.76551e-05
9.76551e-05
9.76552e-05
9.76552e-05
9.76552e-05
9.76553e-05
9.76553e-05
9.76553e-05
9.76553e-05
9.76552e-05
9.76553e-05
9.76554e-05
9.76555e-05
9.76557e-05
9.7656e-05
9.76564e-05
9.76568e-05
9.76573e-05
9.76578e-05
9.76584e-05
9.7659e-05
9.76595e-05
9.76601e-05
9.76607e-05
9.76612e-05
9.76618e-05
9.76616e-05
9.76654e-05
0.000100315
0.000100311
0.000100311
0.000100311
0.000100313
0.000100314
0.000100315
0.000100316
0.000100317
0.000100318
0.000100319
0.00010032
0.000100321
0.000100322
0.000100323
0.000100324
0.000100325
0.000100325
0.000100326
0.000100327
0.000100328
0.000100328
0.000100329
0.00010033
0.00010033
0.000100331
0.000100331
0.000100331
0.000100332
0.000100331
0.000100331
0.000100331
0.000100331
0.000100331
0.00010033
0.00010033
0.00010033
0.00010033
0.000100329
0.000100329
0.000100329
0.000100329
0.000100329
0.000100329
0.000100329
0.000100329
0.000100328
0.000100328
0.000100328
0.000100328
0.000100328
0.000100328
0.000100328
0.000100328
0.000100328
0.000100328
0.000100329
0.000100329
0.000100329
0.000100329
0.000100329
0.000100329
0.000100329
0.000100329
0.000100329
0.000100329
0.00010033
0.00010033
0.00010033
0.00010033
0.00010033
0.00010033
0.000100331
0.000100331
0.000100331
0.000100331
0.000100331
0.000100331
0.000100331
0.000100332
0.000100332
0.000100332
0.000100332
0.000100332
0.000100332
0.000100332
0.000100332
0.000100332
0.000100332
0.000100333
0.000100333
0.000100333
0.000100333
0.000100333
0.000100333
0.000100333
0.000100333
0.000100333
0.000100333
0.000100333
0.000100333
0.000100333
0.000100333
0.000100333
0.000100333
0.000100333
0.000100333
0.000100333
0.000100333
0.000100333
0.000100334
0.000100334
0.000100335
0.000100335
0.000100335
0.000100336
0.000100336
0.000100337
0.000100336
0.00010034
0.000103022
0.000103018
0.000103018
0.000103018
0.000103019
0.000103021
0.000103022
0.000103023
0.000103024
0.000103025
0.000103026
0.000103027
0.000103028
0.000103029
0.00010303
0.00010303
0.000103031
0.000103032
0.000103033
0.000103034
0.000103034
0.000103035
0.000103036
0.000103036
0.000103037
0.000103038
0.000103038
0.000103039
0.000103039
0.000103039
0.000103039
0.000103039
0.000103039
0.000103039
0.000103039
0.000103039
0.000103039
0.000103039
0.000103039
0.000103039
0.000103039
0.000103038
0.000103038
0.000103038
0.000103038
0.000103038
0.000103038
0.000103038
0.000103038
0.000103038
0.000103038
0.000103038
0.000103038
0.000103038
0.000103038
0.000103038
0.000103038
0.000103038
0.000103038
0.000103039
0.000103039
0.000103039
0.000103039
0.000103039
0.000103039
0.000103039
0.000103039
0.000103039
0.00010304
0.00010304
0.00010304
0.00010304
0.00010304
0.00010304
0.00010304
0.000103041
0.000103041
0.000103041
0.000103041
0.000103041
0.000103041
0.000103041
0.000103041
0.000103042
0.000103042
0.000103042
0.000103042
0.000103042
0.000103042
0.000103042
0.000103042
0.000103042
0.000103042
0.000103042
0.000103042
0.000103042
0.000103042
0.000103042
0.000103042
0.000103042
0.000103042
0.000103042
0.000103042
0.000103042
0.000103042
0.000103042
0.000103042
0.000103042
0.000103042
0.000103042
0.000103042
0.000103042
0.000103042
0.000103043
0.000103043
0.000103043
0.000103043
0.000103044
0.000103043
0.000103047
0.000105757
0.000105752
0.000105752
0.000105753
0.000105754
0.000105755
0.000105756
0.000105757
0.000105758
0.000105759
0.00010576
0.000105761
0.000105762
0.000105763
0.000105764
0.000105765
0.000105765
0.000105766
0.000105767
0.000105768
0.000105768
0.000105769
0.00010577
0.00010577
0.000105771
0.000105772
0.000105772
0.000105773
0.000105773
0.000105774
0.000105774
0.000105774
0.000105774
0.000105774
0.000105774
0.000105775
0.000105775
0.000105775
0.000105775
0.000105775
0.000105774
0.000105774
0.000105774
0.000105774
0.000105774
0.000105774
0.000105774
0.000105774
0.000105774
0.000105774
0.000105774
0.000105774
0.000105774
0.000105774
0.000105775
0.000105775
0.000105775
0.000105775
0.000105775
0.000105775
0.000105775
0.000105775
0.000105775
0.000105775
0.000105775
0.000105776
0.000105776
0.000105776
0.000105776
0.000105776
0.000105776
0.000105776
0.000105777
0.000105777
0.000105777
0.000105777
0.000105777
0.000105777
0.000105777
0.000105777
0.000105778
0.000105778
0.000105778
0.000105778
0.000105778
0.000105778
0.000105778
0.000105778
0.000105778
0.000105778
0.000105778
0.000105778
0.000105778
0.000105778
0.000105778
0.000105778
0.000105778
0.000105778
0.000105778
0.000105778
0.000105778
0.000105778
0.000105778
0.000105778
0.000105778
0.000105778
0.000105777
0.000105777
0.000105777
0.000105777
0.000105777
0.000105777
0.000105778
0.000105778
0.000105778
0.000105778
0.000105778
0.000105778
0.000105778
0.000105781
0.000108514
0.000108509
0.000108509
0.000108509
0.00010851
0.000108511
0.000108513
0.000108514
0.000108514
0.000108515
0.000108516
0.000108517
0.000108518
0.000108519
0.00010852
0.000108521
0.000108522
0.000108522
0.000108523
0.000108524
0.000108524
0.000108525
0.000108526
0.000108526
0.000108527
0.000108528
0.000108528
0.000108529
0.000108529
0.00010853
0.00010853
0.000108531
0.000108531
0.000108531
0.000108531
0.000108531
0.000108532
0.000108532
0.000108532
0.000108532
0.000108532
0.000108532
0.000108532
0.000108532
0.000108532
0.000108532
0.000108532
0.000108532
0.000108532
0.000108532
0.000108532
0.000108532
0.000108532
0.000108532
0.000108532
0.000108533
0.000108533
0.000108533
0.000108533
0.000108533
0.000108533
0.000108533
0.000108533
0.000108533
0.000108534
0.000108534
0.000108534
0.000108534
0.000108534
0.000108534
0.000108534
0.000108534
0.000108535
0.000108535
0.000108535
0.000108535
0.000108535
0.000108535
0.000108535
0.000108535
0.000108536
0.000108536
0.000108536
0.000108536
0.000108536
0.000108536
0.000108536
0.000108536
0.000108536
0.000108536
0.000108536
0.000108536
0.000108536
0.000108536
0.000108536
0.000108536
0.000108536
0.000108536
0.000108536
0.000108536
0.000108536
0.000108536
0.000108536
0.000108535
0.000108535
0.000108535
0.000108535
0.000108535
0.000108535
0.000108535
0.000108535
0.000108535
0.000108535
0.000108535
0.000108535
0.000108535
0.000108535
0.000108535
0.000108534
0.000108538
0.000111287
0.000111282
0.000111282
0.000111283
0.000111284
0.000111285
0.000111286
0.000111287
0.000111288
0.000111289
0.00011129
0.000111291
0.000111291
0.000111292
0.000111293
0.000111294
0.000111295
0.000111295
0.000111296
0.000111297
0.000111297
0.000111298
0.000111299
0.000111299
0.0001113
0.000111301
0.000111301
0.000111302
0.000111302
0.000111303
0.000111303
0.000111304
0.000111304
0.000111304
0.000111305
0.000111305
0.000111305
0.000111305
0.000111305
0.000111305
0.000111305
0.000111306
0.000111306
0.000111306
0.000111306
0.000111306
0.000111306
0.000111306
0.000111306
0.000111306
0.000111306
0.000111306
0.000111306
0.000111306
0.000111307
0.000111307
0.000111307
0.000111307
0.000111307
0.000111307
0.000111307
0.000111307
0.000111307
0.000111308
0.000111308
0.000111308
0.000111308
0.000111308
0.000111308
0.000111309
0.000111309
0.000111309
0.000111309
0.000111309
0.000111309
0.000111309
0.000111309
0.00011131
0.00011131
0.00011131
0.00011131
0.00011131
0.00011131
0.00011131
0.00011131
0.00011131
0.00011131
0.00011131
0.00011131
0.00011131
0.00011131
0.00011131
0.00011131
0.00011131
0.00011131
0.00011131
0.00011131
0.00011131
0.00011131
0.00011131
0.00011131
0.00011131
0.00011131
0.000111309
0.000111309
0.000111309
0.000111309
0.000111309
0.000111309
0.000111309
0.000111309
0.000111308
0.000111308
0.000111308
0.000111308
0.000111308
0.000111308
0.000111308
0.000111308
0.000111311
0.000114072
0.000114067
0.000114067
0.000114068
0.000114069
0.00011407
0.000114071
0.000114071
0.000114072
0.000114073
0.000114074
0.000114075
0.000114076
0.000114077
0.000114077
0.000114078
0.000114079
0.00011408
0.00011408
0.000114081
0.000114082
0.000114082
0.000114083
0.000114084
0.000114084
0.000114085
0.000114085
0.000114086
0.000114086
0.000114087
0.000114087
0.000114088
0.000114088
0.000114088
0.000114089
0.000114089
0.000114089
0.000114089
0.00011409
0.00011409
0.00011409
0.00011409
0.00011409
0.00011409
0.00011409
0.00011409
0.000114091
0.000114091
0.000114091
0.000114091
0.000114091
0.000114091
0.000114091
0.000114091
0.000114091
0.000114092
0.000114092
0.000114092
0.000114092
0.000114092
0.000114092
0.000114092
0.000114093
0.000114093
0.000114093
0.000114093
0.000114093
0.000114093
0.000114094
0.000114094
0.000114094
0.000114094
0.000114094
0.000114094
0.000114094
0.000114095
0.000114095
0.000114095
0.000114095
0.000114095
0.000114095
0.000114095
0.000114095
0.000114095
0.000114095
0.000114095
0.000114095
0.000114095
0.000114095
0.000114095
0.000114095
0.000114095
0.000114095
0.000114095
0.000114095
0.000114095
0.000114095
0.000114095
0.000114095
0.000114095
0.000114095
0.000114095
0.000114095
0.000114094
0.000114094
0.000114094
0.000114094
0.000114094
0.000114094
0.000114094
0.000114093
0.000114093
0.000114093
0.000114093
0.000114093
0.000114093
0.000114093
0.000114093
0.000114092
0.000114096
0.000116862
0.000116858
0.000116858
0.000116858
0.000116859
0.00011686
0.000116861
0.000116862
0.000116863
0.000116864
0.000116865
0.000116865
0.000116866
0.000116867
0.000116868
0.000116868
0.000116869
0.00011687
0.00011687
0.000116871
0.000116872
0.000116872
0.000116873
0.000116873
0.000116874
0.000116874
0.000116875
0.000116875
0.000116876
0.000116876
0.000116877
0.000116877
0.000116878
0.000116878
0.000116878
0.000116879
0.000116879
0.000116879
0.000116879
0.000116879
0.00011688
0.00011688
0.00011688
0.00011688
0.00011688
0.00011688
0.00011688
0.000116881
0.000116881
0.000116881
0.000116881
0.000116881
0.000116881
0.000116881
0.000116882
0.000116882
0.000116882
0.000116882
0.000116882
0.000116882
0.000116883
0.000116883
0.000116883
0.000116883
0.000116883
0.000116883
0.000116884
0.000116884
0.000116884
0.000116884
0.000116884
0.000116884
0.000116885
0.000116885
0.000116885
0.000116885
0.000116885
0.000116885
0.000116885
0.000116886
0.000116886
0.000116886
0.000116886
0.000116886
0.000116886
0.000116886
0.000116886
0.000116886
0.000116886
0.000116886
0.000116886
0.000116886
0.000116886
0.000116886
0.000116886
0.000116886
0.000116886
0.000116885
0.000116885
0.000116885
0.000116885
0.000116885
0.000116885
0.000116885
0.000116885
0.000116884
0.000116884
0.000116884
0.000116884
0.000116884
0.000116884
0.000116884
0.000116884
0.000116883
0.000116883
0.000116883
0.000116883
0.000116883
0.000116882
0.000116886
0.000119653
0.000119648
0.000119648
0.000119649
0.00011965
0.000119651
0.000119651
0.000119652
0.000119653
0.000119654
0.000119655
0.000119656
0.000119656
0.000119657
0.000119658
0.000119659
0.000119659
0.00011966
0.00011966
0.000119661
0.000119662
0.000119662
0.000119663
0.000119663
0.000119664
0.000119664
0.000119665
0.000119665
0.000119666
0.000119666
0.000119666
0.000119667
0.000119667
0.000119668
0.000119668
0.000119668
0.000119668
0.000119668
0.000119669
0.000119669
0.000119669
0.000119669
0.000119669
0.00011967
0.00011967
0.00011967
0.00011967
0.00011967
0.00011967
0.00011967
0.000119671
0.000119671
0.000119671
0.000119671
0.000119671
0.000119672
0.000119672
0.000119672
0.000119672
0.000119672
0.000119672
0.000119673
0.000119673
0.000119673
0.000119673
0.000119673
0.000119674
0.000119674
0.000119674
0.000119674
0.000119674
0.000119675
0.000119675
0.000119675
0.000119675
0.000119675
0.000119675
0.000119675
0.000119676
0.000119676
0.000119676
0.000119676
0.000119676
0.000119676
0.000119676
0.000119676
0.000119676
0.000119676
0.000119676
0.000119676
0.000119676
0.000119676
0.000119676
0.000119676
0.000119676
0.000119676
0.000119676
0.000119676
0.000119675
0.000119675
0.000119675
0.000119675
0.000119675
0.000119675
0.000119675
0.000119674
0.000119674
0.000119674
0.000119674
0.000119674
0.000119674
0.000119674
0.000119674
0.000119674
0.000119673
0.000119673
0.000119673
0.000119673
0.000119672
0.000119676
0.000122438
0.000122433
0.000122433
0.000122434
0.000122434
0.000122435
0.000122436
0.000122437
0.000122438
0.000122439
0.00012244
0.00012244
0.000122441
0.000122442
0.000122442
0.000122443
0.000122444
0.000122444
0.000122445
0.000122445
0.000122446
0.000122446
0.000122447
0.000122447
0.000122448
0.000122448
0.000122449
0.000122449
0.00012245
0.00012245
0.00012245
0.000122451
0.000122451
0.000122451
0.000122451
0.000122452
0.000122452
0.000122452
0.000122452
0.000122452
0.000122453
0.000122453
0.000122453
0.000122453
0.000122453
0.000122453
0.000122454
0.000122454
0.000122454
0.000122454
0.000122454
0.000122455
0.000122455
0.000122455
0.000122455
0.000122455
0.000122456
0.000122456
0.000122456
0.000122456
0.000122456
0.000122457
0.000122457
0.000122457
0.000122457
0.000122458
0.000122458
0.000122458
0.000122458
0.000122458
0.000122459
0.000122459
0.000122459
0.000122459
0.000122459
0.000122459
0.00012246
0.00012246
0.00012246
0.00012246
0.00012246
0.00012246
0.00012246
0.00012246
0.00012246
0.00012246
0.00012246
0.00012246
0.00012246
0.00012246
0.00012246
0.00012246
0.00012246
0.00012246
0.00012246
0.00012246
0.00012246
0.00012246
0.00012246
0.000122459
0.000122459
0.000122459
0.000122459
0.000122459
0.000122459
0.000122459
0.000122458
0.000122458
0.000122458
0.000122458
0.000122458
0.000122458
0.000122458
0.000122458
0.000122458
0.000122458
0.000122458
0.000122458
0.000122457
0.00012246
0.000125211
0.000125207
0.000125206
0.000125207
0.000125208
0.000125209
0.00012521
0.00012521
0.000125211
0.000125212
0.000125213
0.000125213
0.000125214
0.000125215
0.000125215
0.000125216
0.000125217
0.000125217
0.000125218
0.000125218
0.000125219
0.000125219
0.00012522
0.00012522
0.000125221
0.000125221
0.000125221
0.000125222
0.000125222
0.000125222
0.000125223
0.000125223
0.000125223
0.000125223
0.000125224
0.000125224
0.000125224
0.000125224
0.000125224
0.000125224
0.000125224
0.000125225
0.000125225
0.000125225
0.000125225
0.000125225
0.000125225
0.000125226
0.000125226
0.000125226
0.000125226
0.000125227
0.000125227
0.000125227
0.000125227
0.000125227
0.000125228
0.000125228
0.000125228
0.000125228
0.000125229
0.000125229
0.000125229
0.000125229
0.00012523
0.00012523
0.00012523
0.00012523
0.000125231
0.000125231
0.000125231
0.000125231
0.000125231
0.000125232
0.000125232
0.000125232
0.000125232
0.000125232
0.000125232
0.000125232
0.000125233
0.000125233
0.000125233
0.000125233
0.000125233
0.000125233
0.000125233
0.000125233
0.000125233
0.000125233
0.000125233
0.000125233
0.000125233
0.000125233
0.000125232
0.000125232
0.000125232
0.000125232
0.000125232
0.000125232
0.000125232
0.000125232
0.000125231
0.000125231
0.000125231
0.000125231
0.000125231
0.000125231
0.000125231
0.000125231
0.000125231
0.000125231
0.000125231
0.000125231
0.000125231
0.00012523
0.00012523
0.00012523
0.00012523
0.000125233
0.000127967
0.000127963
0.000127963
0.000127963
0.000127964
0.000127965
0.000127966
0.000127967
0.000127967
0.000127968
0.000127969
0.000127969
0.00012797
0.000127971
0.000127971
0.000127972
0.000127972
0.000127973
0.000127973
0.000127974
0.000127974
0.000127975
0.000127975
0.000127976
0.000127976
0.000127976
0.000127977
0.000127977
0.000127977
0.000127978
0.000127978
0.000127978
0.000127978
0.000127978
0.000127978
0.000127978
0.000127978
0.000127979
0.000127979
0.000127979
0.000127979
0.000127979
0.000127979
0.000127979
0.00012798
0.00012798
0.00012798
0.00012798
0.00012798
0.000127981
0.000127981
0.000127981
0.000127981
0.000127982
0.000127982
0.000127982
0.000127983
0.000127983
0.000127983
0.000127983
0.000127984
0.000127984
0.000127984
0.000127984
0.000127985
0.000127985
0.000127985
0.000127985
0.000127986
0.000127986
0.000127986
0.000127986
0.000127987
0.000127987
0.000127987
0.000127987
0.000127987
0.000127987
0.000127988
0.000127988
0.000127988
0.000127988
0.000127988
0.000127988
0.000127988
0.000127988
0.000127988
0.000127988
0.000127988
0.000127988
0.000127988
0.000127988
0.000127988
0.000127988
0.000127988
0.000127988
0.000127987
0.000127987
0.000127987
0.000127987
0.000127987
0.000127987
0.000127987
0.000127986
0.000127986
0.000127986
0.000127986
0.000127986
0.000127986
0.000127986
0.000127986
0.000127986
0.000127986
0.000127986
0.000127986
0.000127986
0.000127986
0.000127986
0.000127985
0.000127988
0.0001307
0.000130696
0.000130696
0.000130696
0.000130697
0.000130698
0.000130699
0.0001307
0.0001307
0.000130701
0.000130702
0.000130702
0.000130703
0.000130704
0.000130704
0.000130705
0.000130705
0.000130706
0.000130706
0.000130707
0.000130707
0.000130707
0.000130708
0.000130708
0.000130709
0.000130709
0.000130709
0.00013071
0.00013071
0.00013071
0.00013071
0.00013071
0.00013071
0.00013071
0.00013071
0.00013071
0.00013071
0.00013071
0.00013071
0.00013071
0.00013071
0.000130711
0.000130711
0.000130711
0.000130711
0.000130711
0.000130712
0.000130712
0.000130712
0.000130712
0.000130713
0.000130713
0.000130713
0.000130713
0.000130714
0.000130714
0.000130714
0.000130715
0.000130715
0.000130715
0.000130716
0.000130716
0.000130716
0.000130716
0.000130717
0.000130717
0.000130717
0.000130718
0.000130718
0.000130718
0.000130718
0.000130719
0.000130719
0.000130719
0.000130719
0.000130719
0.000130719
0.00013072
0.00013072
0.00013072
0.00013072
0.00013072
0.00013072
0.00013072
0.00013072
0.00013072
0.00013072
0.00013072
0.00013072
0.00013072
0.00013072
0.00013072
0.00013072
0.00013072
0.00013072
0.00013072
0.00013072
0.000130719
0.000130719
0.000130719
0.000130719
0.000130719
0.000130719
0.000130719
0.000130718