/*--------------------------------*- C++ -*----------------------------------*\
  =========                 |
  \\      /  F ield         | OpenFOAM: The Open Source CFD Toolbox
   \\    /   O peration     | Website:  https://openfoam.org
    \\  /    A nd           | Version:  7
     \\/     M anipulation  |
\*---------------------------------------------------------------------------*/
FoamFile
{
    version     2.0;
    format      ascii;
    class       volScalarField;
    location    "2000";
    object      nut;
}
// * * * * * * * * * * * * * * * * * * * * * * * * * * * * * * * * * * * * * //

dimensions      [0 2 -1 0 0 0 0];

internalField   nonuniform List<scalar> 
3963
(
0.000901208
0.000901412
0.000901425
0.000901398
0.000901366
0.000901334
0.000901303
0.000901274
0.000901246
0.000901219
0.000901193
0.000901167
0.000901142
0.000901117
0.000901093
0.00090107
0.000901047
0.000901024
0.000901002
0.000900983
0.000900941
0.00090108
0.000900963
0.000900835
0.000900749
0.000900688
0.000900637
0.000900594
0.000900554
0.000900517
0.000900482
0.000900448
0.000900416
0.000900386
0.000900353
0.000900342
0.00090021
0.000870789
0.000870979
0.000870999
0.000870977
0.000870945
0.000870913
0.000870882
0.000870851
0.000870821
0.000870793
0.000870765
0.000870738
0.000870712
0.000870686
0.000870661
0.000870637
0.000870613
0.00087059
0.000870566
0.000870551
0.000870463
0.0008711
0.000871365
0.000871729
0.000871625
0.000871511
0.000871452
0.000871123
0.000870898
0.000870736
0.000870613
0.000870517
0.000870439
0.000870372
0.000870314
0.000870261
0.000870212
0.000870167
0.000870125
0.000870085
0.000870045
0.000870026
0.00086989
0.000841145
0.000841313
0.000841328
0.000841308
0.000841278
0.000841247
0.000841215
0.000841185
0.000841155
0.000841126
0.000841098
0.000841071
0.000841044
0.000841018
0.000840993
0.000840968
0.000840944
0.000840921
0.000840897
0.00084088
0.000840818
0.000841012
0.000841156
0.000841911
0.000842268
0.000842395
0.00084245
0.000842484
0.00084251
0.000842531
0.000842547
0.00084256
0.000842571
0.000842579
0.000842586
0.000842591
0.000842595
0.000842597
0.000842599
0.0008426
0.000842601
0.0008426
0.0008426
0.000842598
0.000842597
0.000842595
0.000842592
0.00084259
0.000842587
0.000842584
0.000842581
0.000842577
0.000842574
0.000842571
0.000842567
0.000842564
0.000842561
0.000842557
0.000842554
0.000842551
0.000842548
0.000842545
0.000842543
0.00084254
0.000842537
0.000842535
0.000842532
0.00084253
0.000842528
0.000842525
0.000842523
0.00084252
0.000842518
0.000842515
0.000842513
0.00084251
0.000842507
0.000842504
0.000842501
0.000842497
0.000842494
0.00084249
0.000842486
0.000842482
0.000842478
0.000842473
0.000842468
0.000842464
0.000842458
0.000842453
0.000842448
0.000842442
0.000842436
0.00084243
0.000842423
0.000842417
0.00084241
0.000842403
0.000842395
0.000842402
0.000842128
0.000841945
0.000841816
0.000841734
0.000841574
0.000841403
0.000841252
0.000841126
0.000841021
0.000840931
0.000840854
0.000840785
0.000840723
0.000840667
0.000840615
0.000840567
0.000840522
0.000840477
0.000840453
0.000840316
0.000812279
0.000812429
0.000812439
0.000812417
0.000812389
0.000812358
0.000812328
0.000812298
0.000812269
0.00081224
0.000812213
0.000812186
0.00081216
0.000812134
0.000812109
0.000812085
0.000812061
0.000812038
0.000812015
0.000811997
0.000811956
0.000812001
0.000812057
0.00081235
0.000812636
0.000812824
0.000812938
0.000813012
0.000813065
0.000813105
0.000813137
0.000813164
0.000813186
0.000813204
0.000813219
0.000813231
0.000813242
0.000813251
0.000813258
0.000813264
0.000813269
0.000813273
0.000813277
0.000813279
0.000813281
0.000813282
0.000813283
0.000813283
0.000813283
0.000813283
0.000813282
0.000813281
0.00081328
0.000813279
0.000813278
0.000813276
0.000813275
0.000813273
0.000813272
0.00081327
0.000813269
0.000813267
0.000813266
0.000813265
0.000813264
0.000813263
0.000813261
0.00081326
0.000813259
0.000813258
0.000813257
0.000813255
0.000813254
0.000813253
0.000813251
0.000813249
0.000813247
0.000813245
0.000813243
0.00081324
0.000813238
0.000813235
0.000813232
0.000813228
0.000813225
0.000813221
0.000813217
0.000813213
0.000813208
0.000813204
0.000813199
0.000813194
0.000813188
0.000813183
0.000813177
0.000813171
0.000813165
0.000813159
0.000813151
0.000813156
0.000813062
0.000812946
0.000812839
0.000812758
0.000812659
0.000812545
0.000812429
0.000812321
0.000812224
0.000812137
0.00081206
0.00081199
0.000811927
0.000811869
0.000811815
0.000811764
0.000811718
0.00081167
0.000811645
0.00081151
0.000784206
0.000784342
0.000784348
0.000784325
0.000784297
0.000784268
0.000784239
0.00078421
0.000784182
0.000784155
0.000784129
0.000784103
0.000784078
0.000784053
0.00078403
0.000784006
0.000783983
0.000783961
0.000783939
0.00078392
0.000783891
0.00078389
0.0007839
0.000784004
0.00078416
0.000784305
0.000784418
0.000784501
0.000784564
0.000784614
0.000784654
0.000784687
0.000784714
0.000784738
0.000784758
0.000784775
0.000784789
0.000784802
0.000784813
0.000784822
0.000784831
0.000784838
0.000784844
0.000784849
0.000784853
0.000784856
0.000784859
0.000784862
0.000784864
0.000784865
0.000784866
0.000784867
0.000784868
0.000784868
0.000784868
0.000784869
0.000784868
0.000784868
0.000784868
0.000784868
0.000784868
0.000784868
0.000784868
0.000784868
0.000784867
0.000784867
0.000784867
0.000784867
0.000784867
0.000784867
0.000784866
0.000784866
0.000784865
0.000784865
0.000784864
0.000784863
0.000784862
0.00078486
0.000784859
0.000784857
0.000784855
0.000784853
0.00078485
0.000784848
0.000784845
0.000784842
0.000784838
0.000784835
0.000784831
0.000784827
0.000784822
0.000784818
0.000784813
0.000784808
0.000784803
0.000784797
0.000784792
0.000784786
0.000784779
0.000784778
0.000784746
0.000784687
0.000784618
0.000784554
0.000784486
0.000784409
0.000784326
0.000784243
0.000784163
0.000784089
0.000784019
0.000783955
0.000783895
0.00078384
0.000783788
0.000783739
0.000783693
0.000783647
0.000783621
0.000783491
0.000756938
0.000757063
0.000757067
0.000757045
0.000757018
0.00075699
0.000756963
0.000756936
0.000756909
0.000756884
0.000756859
0.000756835
0.000756812
0.000756789
0.000756766
0.000756744
0.000756723
0.000756702
0.000756681
0.000756662
0.00075664
0.000756625
0.000756617
0.000756646
0.000756714
0.000756798
0.00075688
0.00075695
0.000757008
0.000757056
0.000757096
0.000757129
0.000757158
0.000757183
0.000757204
0.000757223
0.000757239
0.000757253
0.000757266
0.000757277
0.000757286
0.000757295
0.000757302
0.000757309
0.000757314
0.000757319
0.000757324
0.000757327
0.000757331
0.000757333
0.000757336
0.000757338
0.00075734
0.000757341
0.000757343
0.000757344
0.000757345
0.000757346
0.000757346
0.000757347
0.000757348
0.000757349
0.00075735
0.00075735
0.000757351
0.000757352
0.000757352
0.000757353
0.000757354
0.000757354
0.000757354
0.000757355
0.000757355
0.000757355
0.000757355
0.000757354
0.000757354
0.000757353
0.000757352
0.000757351
0.000757349
0.000757348
0.000757346
0.000757343
0.000757341
0.000757338
0.000757335
0.000757332
0.000757329
0.000757325
0.000757321
0.000757317
0.000757313
0.000757308
0.000757303
0.000757298
0.000757293
0.000757287
0.000757281
0.000757278
0.000757265
0.000757237
0.000757197
0.000757153
0.000757106
0.000757054
0.000756997
0.000756937
0.000756876
0.000756815
0.000756757
0.000756702
0.000756649
0.0007566
0.000756552
0.000756507
0.000756465
0.000756422
0.000756398
0.000756274
0.000730485
0.000730602
0.000730605
0.000730584
0.000730559
0.000730533
0.000730508
0.000730483
0.000730459
0.000730435
0.000730413
0.000730391
0.000730369
0.000730348
0.000730327
0.000730307
0.000730287
0.000730268
0.000730249
0.00073023
0.000730211
0.000730194
0.000730181
0.000730181
0.000730203
0.000730242
0.00073029
0.000730337
0.000730381
0.00073042
0.000730454
0.000730483
0.000730509
0.000730532
0.000730552
0.00073057
0.000730586
0.0007306
0.000730612
0.000730624
0.000730633
0.000730642
0.00073065
0.000730657
0.000730664
0.000730669
0.000730674
0.000730679
0.000730682
0.000730686
0.000730689
0.000730692
0.000730694
0.000730696
0.000730698
0.0007307
0.000730702
0.000730704
0.000730705
0.000730707
0.000730708
0.000730709
0.000730711
0.000730712
0.000730713
0.000730715
0.000730716
0.000730717
0.000730718
0.000730719
0.00073072
0.000730721
0.000730721
0.000730722
0.000730722
0.000730722
0.000730722
0.000730722
0.000730721
0.00073072
0.000730719
0.000730718
0.000730716
0.000730715
0.000730713
0.00073071
0.000730708
0.000730705
0.000730702
0.000730698
0.000730695
0.000730691
0.000730687
0.000730683
0.000730678
0.000730673
0.000730668
0.000730663
0.000730657
0.000730653
0.000730645
0.000730631
0.000730609
0.000730582
0.00073055
0.000730515
0.000730476
0.000730433
0.000730388
0.000730342
0.000730296
0.000730251
0.000730207
0.000730164
0.000730123
0.000730084
0.000730046
0.000730007
0.000729987
0.00072987
0.000704852
0.000704961
0.000704965
0.000704947
0.000704924
0.0007049
0.000704878
0.000704855
0.000704833
0.000704812
0.000704792
0.000704772
0.000704752
0.000704733
0.000704714
0.000704696
0.000704678
0.00070466
0.000704643
0.000704626
0.000704609
0.000704593
0.000704578
0.000704569
0.00070457
0.000704582
0.000704604
0.000704631
0.000704659
0.000704686
0.000704711
0.000704734
0.000704755
0.000704774
0.000704791
0.000704807
0.00070482
0.000704833
0.000704844
0.000704855
0.000704864
0.000704872
0.00070488
0.000704887
0.000704893
0.000704898
0.000704903
0.000704908
0.000704912
0.000704916
0.000704919
0.000704922
0.000704925
0.000704927
0.00070493
0.000704932
0.000704934
0.000704936
0.000704938
0.00070494
0.000704942
0.000704943
0.000704945
0.000704947
0.000704949
0.00070495
0.000704952
0.000704953
0.000704955
0.000704956
0.000704957
0.000704959
0.000704959
0.00070496
0.000704961
0.000704961
0.000704961
0.000704961
0.000704961
0.000704961
0.00070496
0.000704959
0.000704957
0.000704956
0.000704954
0.000704952
0.00070495
0.000704947
0.000704944
0.000704941
0.000704938
0.000704934
0.00070493
0.000704926
0.000704922
0.000704918
0.000704913
0.000704908
0.000704902
0.000704897
0.000704892
0.000704883
0.00070487
0.000704853
0.000704832
0.000704809
0.000704782
0.000704752
0.000704719
0.000704685
0.00070465
0.000704615
0.000704579
0.000704544
0.00070451
0.000704476
0.000704444
0.000704409
0.000704393
0.000704285
0.00068004
0.000680141
0.000680147
0.00068013
0.00068011
0.00068009
0.00068007
0.00068005
0.000680031
0.000680012
0.000679994
0.000679976
0.000679958
0.000679941
0.000679925
0.000679908
0.000679892
0.000679876
0.000679861
0.000679846
0.000679831
0.000679816
0.000679802
0.00067979
0.000679783
0.000679782
0.000679788
0.0006798
0.000679814
0.00067983
0.000679846
0.000679862
0.000679877
0.000679891
0.000679904
0.000679916
0.000679928
0.000679938
0.000679947
0.000679956
0.000679964
0.000679971
0.000679978
0.000679984
0.00067999
0.000679995
0.000679999
0.000680004
0.000680007
0.000680011
0.000680014
0.000680017
0.00068002
0.000680023
0.000680025
0.000680028
0.00068003
0.000680032
0.000680034
0.000680036
0.000680038
0.00068004
0.000680042
0.000680044
0.000680046
0.000680048
0.00068005
0.000680051
0.000680053
0.000680055
0.000680056
0.000680057
0.000680059
0.00068006
0.00068006
0.000680061
0.000680061
0.000680061
0.000680061
0.000680061
0.00068006
0.000680059
0.000680058
0.000680057
0.000680055
0.000680053
0.000680051
0.000680049
0.000680046
0.000680043
0.00068004
0.000680037
0.000680033
0.000680029
0.000680025
0.000680021
0.000680016
0.000680011
0.000680006
0.000680001
0.000679996
0.000679989
0.000679981
0.000679969
0.000679956
0.000679939
0.000679921
0.0006799
0.000679876
0.000679851
0.000679825
0.000679798
0.00067977
0.000679742
0.000679714
0.000679686
0.000679659
0.000679629
0.000679617
0.000679517
0.000656042
0.000656137
0.000656143
0.00065613
0.000656112
0.000656095
0.000656077
0.00065606
0.000656043
0.000656027
0.000656011
0.000655996
0.000655981
0.000655966
0.000655951
0.000655937
0.000655923
0.000655909
0.000655895
0.000655882
0.000655868
0.000655856
0.000655843
0.000655831
0.000655821
0.000655814
0.000655812
0.000655814
0.000655819
0.000655826
0.000655835
0.000655844
0.000655854
0.000655863
0.000655872
0.000655881
0.000655889
0.000655896
0.000655904
0.00065591
0.000655917
0.000655923
0.000655928
0.000655933
0.000655938
0.000655942
0.000655946
0.00065595
0.000655953
0.000655956
0.000655959
0.000655962
0.000655965
0.000655967
0.00065597
0.000655972
0.000655974
0.000655976
0.000655979
0.000655981
0.000655983
0.000655985
0.000655987
0.000655989
0.000655991
0.000655993
0.000655995
0.000655997
0.000655998
0.000656
0.000656002
0.000656003
0.000656004
0.000656005
0.000656006
0.000656007
0.000656007
0.000656008
0.000656007
0.000656007
0.000656007
0.000656006
0.000656005
0.000656004
0.000656002
0.000656
0.000655998
0.000655996
0.000655993
0.000655991
0.000655987
0.000655984
0.000655981
0.000655977
0.000655973
0.000655969
0.000655964
0.00065596
0.000655955
0.00065595
0.000655945
0.000655939
0.000655932
0.000655924
0.000655914
0.000655903
0.000655889
0.000655874
0.000655857
0.000655839
0.000655819
0.000655798
0.000655777
0.000655755
0.000655732
0.00065571
0.000655687
0.000655663
0.000655654
0.000655563
0.000632848
0.000632936
0.000632944
0.000632933
0.000632919
0.000632904
0.000632889
0.000632875
0.00063286
0.000632847
0.000632833
0.00063282
0.000632807
0.000632794
0.000632781
0.000632769
0.000632756
0.000632744
0.000632732
0.000632721
0.000632709
0.000632698
0.000632687
0.000632676
0.000632666
0.000632658
0.000632652
0.000632648
0.000632647
0.000632649
0.000632652
0.000632656
0.00063266
0.000632666
0.000632671
0.000632676
0.000632682
0.000632687
0.000632692
0.000632697
0.000632701
0.000632706
0.00063271
0.000632714
0.000632717
0.000632721
0.000632724
0.000632727
0.00063273
0.000632733
0.000632735
0.000632738
0.00063274
0.000632742
0.000632744
0.000632746
0.000632749
0.000632751
0.000632753
0.000632755
0.000632757
0.000632759
0.000632761
0.000632763
0.000632765
0.000632767
0.000632769
0.000632771
0.000632772
0.000632774
0.000632776
0.000632777
0.000632778
0.000632779
0.00063278
0.000632781
0.000632781
0.000632782
0.000632782
0.000632781
0.000632781
0.00063278
0.000632779
0.000632778
0.000632776
0.000632775
0.000632773
0.00063277
0.000632768
0.000632765
0.000632762
0.000632759
0.000632756
0.000632752
0.000632748
0.000632744
0.00063274
0.000632735
0.00063273
0.000632725
0.00063272
0.000632715
0.000632709
0.000632703
0.000632695
0.000632686
0.000632676
0.000632665
0.000632652
0.000632639
0.000632624
0.000632608
0.000632591
0.000632574
0.000632556
0.000632538
0.00063252
0.0006325
0.000632493
0.000632411
0.000610445
0.000610526
0.000610534
0.000610526
0.000610514
0.000610502
0.00061049
0.000610478
0.000610466
0.000610454
0.000610443
0.000610432
0.000610421
0.00061041
0.000610399
0.000610388
0.000610378
0.000610367
0.000610357
0.000610347
0.000610337
0.000610328
0.000610318
0.000610308
0.000610299
0.000610291
0.000610283
0.000610278
0.000610274
0.000610272
0.000610271
0.000610271
0.000610273
0.000610274
0.000610277
0.00061028
0.000610282
0.000610285
0.000610288
0.000610291
0.000610294
0.000610297
0.0006103
0.000610303
0.000610306
0.000610308
0.000610311
0.000610313
0.000610315
0.000610317
0.000610319
0.000610321
0.000610323
0.000610325
0.000610327
0.000610329
0.000610331
0.000610333
0.000610335
0.000610337
0.000610339
0.000610341
0.000610343
0.000610345
0.000610347
0.000610348
0.00061035
0.000610352
0.000610354
0.000610355
0.000610357
0.000610358
0.00061036
0.000610361
0.000610361
0.000610362
0.000610362
0.000610363
0.000610363
0.000610362
0.000610362
0.000610361
0.00061036
0.000610359
0.000610357
0.000610356
0.000610354
0.000610351
0.000610349
0.000610346
0.000610343
0.00061034
0.000610337
0.000610333
0.000610329
0.000610325
0.000610321
0.000610317
0.000610312
0.000610307
0.000610302
0.000610297
0.000610292
0.000610286
0.00061028
0.000610273
0.000610265
0.000610256
0.000610246
0.000610235
0.000610224
0.000610212
0.000610199
0.000610185
0.000610171
0.000610156
0.000610142
0.000610125
0.000610122
0.000610047
0.000588812
0.000588887
0.000588895
0.000588889
0.00058888
0.00058887
0.00058886
0.00058885
0.000588841
0.000588831
0.000588822
0.000588812
0.000588803
0.000588794
0.000588785
0.000588776
0.000588767
0.000588759
0.00058875
0.000588741
0.000588733
0.000588725
0.000588716
0.000588708
0.0005887
0.000588692
0.000588685
0.000588679
0.000588674
0.00058867
0.000588667
0.000588665
0.000588664
0.000588663
0.000588663
0.000588664
0.000588665
0.000588666
0.000588668
0.000588669
0.000588671
0.000588672
0.000588674
0.000588676
0.000588678
0.000588679
0.000588681
0.000588683
0.000588684
0.000588686
0.000588688
0.000588689
0.000588691
0.000588692
0.000588694
0.000588696
0.000588697
0.000588699
0.000588701
0.000588703
0.000588704
0.000588706
0.000588708
0.00058871
0.000588712
0.000588714
0.000588715
0.000588717
0.000588719
0.00058872
0.000588722
0.000588723
0.000588724
0.000588725
0.000588726
0.000588726
0.000588727
0.000588727
0.000588727
0.000588726
0.000588726
0.000588725
0.000588724
0.000588723
0.000588721
0.000588719
0.000588717
0.000588715
0.000588713
0.00058871
0.000588707
0.000588704
0.0005887
0.000588697
0.000588693
0.000588689
0.000588685
0.000588681
0.000588676
0.000588672
0.000588667
0.000588662
0.000588657
0.000588651
0.000588646
0.00058864
0.000588633
0.000588626
0.000588618
0.000588609
0.0005886
0.00058859
0.00058858
0.000588569
0.000588558
0.000588547
0.000588535
0.000588521
0.000588519
0.000588453
0.000567928
0.000567996
0.000568005
0.000568001
0.000567994
0.000567986
0.000567978
0.00056797
0.000567962
0.000567955
0.000567947
0.000567939
0.000567932
0.000567924
0.000567917
0.00056791
0.000567902
0.000567895
0.000567888
0.000567881
0.000567874
0.000567867
0.00056786
0.000567853
0.000567846
0.000567839
0.000567832
0.000567826
0.000567821
0.000567816
0.000567812
0.000567809
0.000567807
0.000567805
0.000567803
0.000567803
0.000567802
0.000567802
0.000567802
0.000567802
0.000567803
0.000567804
0.000567804
0.000567805
0.000567806
0.000567807
0.000567808
0.000567809
0.000567811
0.000567812
0.000567813
0.000567814
0.000567815
0.000567817
0.000567818
0.00056782
0.000567821
0.000567823
0.000567824
0.000567826
0.000567827
0.000567829
0.000567831
0.000567832
0.000567834
0.000567836
0.000567837
0.000567839
0.000567841
0.000567842
0.000567843
0.000567844
0.000567845
0.000567846
0.000567847
0.000567847
0.000567848
0.000567848
0.000567848
0.000567847
0.000567846
0.000567846
0.000567844
0.000567843
0.000567842
0.00056784
0.000567838
0.000567835
0.000567833
0.00056783
0.000567827
0.000567824
0.000567821
0.000567817
0.000567814
0.00056781
0.000567806
0.000567802
0.000567797
0.000567793
0.000567788
0.000567783
0.000567778
0.000567773
0.000567768
0.000567762
0.000567757
0.00056775
0.000567744
0.000567737
0.000567729
0.000567721
0.000567713
0.000567704
0.000567695
0.000567686
0.000567677
0.000567665
0.000567665
0.000567605
0.000547769
0.000547831
0.00054784
0.000547837
0.000547831
0.000547825
0.000547819
0.000547813
0.000547806
0.0005478
0.000547794
0.000547788
0.000547782
0.000547776
0.00054777
0.000547764
0.000547758
0.000547752
0.000547746
0.00054774
0.000547734
0.000547729
0.000547723
0.000547717
0.000547711
0.000547705
0.0005477
0.000547694
0.000547689
0.000547684
0.00054768
0.000547676
0.000547673
0.000547671
0.000547668
0.000547667
0.000547665
0.000547664
0.000547663
0.000547663
0.000547663
0.000547663
0.000547663
0.000547663
0.000547663
0.000547664
0.000547664
0.000547665
0.000547666
0.000547666
0.000547667
0.000547668
0.000547669
0.00054767
0.000547671
0.000547673
0.000547674
0.000547675
0.000547677
0.000547678
0.00054768
0.000547681
0.000547683
0.000547684
0.000547686
0.000547687
0.000547689
0.00054769
0.000547692
0.000547693
0.000547694
0.000547695
0.000547696
0.000547697
0.000547697
0.000547698
0.000547698
0.000547698
0.000547697
0.000547697
0.000547696
0.000547695
0.000547694
0.000547693
0.000547691
0.000547689
0.000547687
0.000547685
0.000547682
0.00054768
0.000547677
0.000547674
0.00054767
0.000547667
0.000547663
0.000547659
0.000547655
0.000547651
0.000547647
0.000547643
0.000547638
0.000547634
0.000547629
0.000547624
0.000547619
0.000547614
0.000547609
0.000547603
0.000547597
0.000547591
0.000547585
0.000547579
0.000547572
0.000547565
0.000547557
0.000547549
0.000547542
0.000547532
0.000547533
0.00054748
0.000528306
0.000528362
0.000528371
0.000528369
0.000528365
0.000528361
0.000528356
0.000528351
0.000528346
0.000528341
0.000528337
0.000528332
0.000528327
0.000528322
0.000528317
0.000528313
0.000528308
0.000528303
0.000528298
0.000528293
0.000528289
0.000528284
0.000528279
0.000528274
0.000528269
0.000528264
0.00052826
0.000528255
0.00052825
0.000528246
0.000528242
0.000528238
0.000528235
0.000528232
0.000528229
0.000528227
0.000528225
0.000528224
0.000528222
0.000528221
0.00052822
0.00052822
0.000528219
0.000528219
0.000528219
0.000528219
0.000528219
0.00052822
0.00052822
0.000528221
0.000528221
0.000528222
0.000528223
0.000528224
0.000528224
0.000528226
0.000528227
0.000528228
0.000528229
0.00052823
0.000528232
0.000528233
0.000528235
0.000528236
0.000528237
0.000528239
0.00052824
0.000528242
0.000528243
0.000528244
0.000528245
0.000528246
0.000528247
0.000528247
0.000528248
0.000528248
0.000528248
0.000528248
0.000528247
0.000528247
0.000528246
0.000528245
0.000528244
0.000528242
0.00052824
0.000528239
0.000528236
0.000528234
0.000528232
0.000528229
0.000528226
0.000528223
0.00052822
0.000528216
0.000528213
0.000528209
0.000528205
0.000528201
0.000528197
0.000528193
0.000528188
0.000528184
0.000528179
0.000528175
0.00052817
0.000528165
0.000528161
0.000528156
0.00052815
0.000528145
0.00052814
0.000528134
0.000528128
0.000528122
0.000528116
0.00052811
0.000528104
0.000528096
0.000528097
0.00052805
0.000509513
0.000509562
0.000509571
0.00050957
0.000509567
0.000509564
0.00050956
0.000509557
0.000509553
0.000509549
0.000509546
0.000509542
0.000509538
0.000509535
0.000509531
0.000509527
0.000509523
0.000509519
0.000509516
0.000509512
0.000509508
0.000509504
0.0005095
0.000509496
0.000509492
0.000509488
0.000509484
0.00050948
0.000509476
0.000509472
0.000509469
0.000509465
0.000509462
0.000509459
0.000509456
0.000509454
0.000509452
0.00050945
0.000509448
0.000509447
0.000509446
0.000509445
0.000509444
0.000509444
0.000509443
0.000509443
0.000509443
0.000509443
0.000509443
0.000509444
0.000509444
0.000509445
0.000509445
0.000509446
0.000509447
0.000509448
0.000509449
0.00050945
0.000509451
0.000509452
0.000509454
0.000509455
0.000509456
0.000509457
0.000509459
0.00050946
0.000509461
0.000509463
0.000509464
0.000509465
0.000509466
0.000509466
0.000509467
0.000509467
0.000509468
0.000509468
0.000509468
0.000509467
0.000509467
0.000509466
0.000509465
0.000509464
0.000509463
0.000509461
0.00050946
0.000509458
0.000509456
0.000509453
0.000509451
0.000509448
0.000509445
0.000509442
0.000509439
0.000509435
0.000509432
0.000509428
0.000509424
0.000509421
0.000509417
0.000509413
0.000509408
0.000509404
0.0005094
0.000509396
0.000509391
0.000509387
0.000509382
0.000509378
0.000509373
0.000509368
0.000509363
0.000509359
0.000509354
0.000509349
0.000509343
0.000509338
0.000509333
0.000509326
0.000509328
0.000509286
0.000491358
0.000491402
0.00049141
0.00049141
0.000491408
0.000491406
0.000491403
0.0004914
0.000491397
0.000491395
0.000491392
0.000491389
0.000491387
0.000491384
0.000491381
0.000491378
0.000491375
0.000491372
0.000491369
0.000491366
0.000491363
0.00049136
0.000491357
0.000491354
0.00049135
0.000491347
0.000491344
0.00049134
0.000491337
0.000491334
0.00049133
0.000491327
0.000491324
0.000491322
0.000491319
0.000491317
0.000491315
0.000491313
0.000491311
0.00049131
0.000491308
0.000491307
0.000491307
0.000491306
0.000491305
0.000491305
0.000491305
0.000491305
0.000491305
0.000491305
0.000491306
0.000491306
0.000491307
0.000491307
0.000491308
0.000491309
0.00049131
0.000491311
0.000491312
0.000491313
0.000491314
0.000491315
0.000491317
0.000491318
0.000491319
0.00049132
0.000491321
0.000491322
0.000491323
0.000491324
0.000491325
0.000491326
0.000491326
0.000491327
0.000491327
0.000491327
0.000491327
0.000491326
0.000491326
0.000491325
0.000491324
0.000491323
0.000491321
0.00049132
0.000491318
0.000491316
0.000491314
0.000491311
0.000491309
0.000491306
0.000491303
0.0004913
0.000491297
0.000491294
0.00049129
0.000491287
0.000491283
0.000491279
0.000491275
0.000491272
0.000491268
0.000491264
0.00049126
0.000491255
0.000491251
0.000491247
0.000491243
0.000491239
0.000491235
0.00049123
0.000491226
0.000491222
0.000491217
0.000491213
0.000491209
0.000491204
0.0004912
0.000491194
0.000491196
0.000491159
0.000473812
0.00047385
0.000473858
0.000473858
0.000473857
0.000473855
0.000473853
0.000473851
0.00047385
0.000473848
0.000473846
0.000473844
0.000473842
0.00047384
0.000473837
0.000473835
0.000473833
0.000473831
0.000473828
0.000473826
0.000473824
0.000473821
0.000473819
0.000473816
0.000473814
0.000473811
0.000473808
0.000473806
0.000473803
0.0004738
0.000473797
0.000473795
0.000473792
0.000473789
0.000473787
0.000473785
0.000473783
0.000473781
0.00047378
0.000473778
0.000473777
0.000473776
0.000473775
0.000473775
0.000473774
0.000473774
0.000473774
0.000473773
0.000473774
0.000473774
0.000473774
0.000473774
0.000473775
0.000473776
0.000473776
0.000473777
0.000473778
0.000473779
0.00047378
0.000473781
0.000473782
0.000473783
0.000473784
0.000473786
0.000473787
0.000473788
0.000473789
0.00047379
0.000473791
0.000473792
0.000473792
0.000473793
0.000473793
0.000473793
0.000473793
0.000473793
0.000473793
0.000473793
0.000473792
0.000473791
0.00047379
0.000473789
0.000473787
0.000473786
0.000473784
0.000473782
0.000473779
0.000473777
0.000473775
0.000473772
0.000473769
0.000473766
0.000473763
0.00047376
0.000473757
0.000473753
0.00047375
0.000473746
0.000473742
0.000473739
0.000473735
0.000473731
0.000473727
0.000473723
0.000473719
0.000473716
0.000473712
0.000473708
0.000473704
0.0004737
0.000473697
0.000473693
0.000473689
0.000473685
0.000473681
0.000473678
0.000473674
0.000473669
0.000473671
0.000473638
0.000456843
0.000456877
0.000456884
0.000456884
0.000456883
0.000456882
0.000456881
0.00045688
0.000456879
0.000456877
0.000456876
0.000456875
0.000456873
0.000456872
0.00045687
0.000456869
0.000456867
0.000456865
0.000456863
0.000456862
0.00045686
0.000456858
0.000456856
0.000456854
0.000456852
0.00045685
0.000456848
0.000456846
0.000456843
0.000456841
0.000456839
0.000456837
0.000456834
0.000456832
0.00045683
0.000456828
0.000456826
0.000456825
0.000456823
0.000456822
0.000456821
0.00045682
0.000456819
0.000456819
0.000456818
0.000456818
0.000456818
0.000456818
0.000456818
0.000456818
0.000456819
0.000456819
0.00045682
0.00045682
0.000456821
0.000456822
0.000456823
0.000456824
0.000456825
0.000456826
0.000456827
0.000456828
0.000456829
0.00045683
0.000456831
0.000456832
0.000456833
0.000456834
0.000456835
0.000456835
0.000456836
0.000456836
0.000456837
0.000456837
0.000456837
0.000456837
0.000456836
0.000456836
0.000456835
0.000456834
0.000456833
0.000456831
0.00045683
0.000456828
0.000456826
0.000456824
0.000456822
0.00045682
0.000456817
0.000456815
0.000456812
0.000456809
0.000456806
0.000456803
0.0004568
0.000456796
0.000456793
0.00045679
0.000456786
0.000456783
0.000456779
0.000456775
0.000456772
0.000456768
0.000456765
0.000456761
0.000456758
0.000456754
0.000456751
0.000456747
0.000456744
0.000456741
0.000456737
0.000456734
0.000456731
0.000456727
0.000456724
0.00045672
0.000456722
0.000456694
0.000440421
0.000440451
0.000440457
0.000440457
0.000440457
0.000440457
0.000440456
0.000440455
0.000440454
0.000440453
0.000440453
0.000440452
0.000440451
0.00044045
0.000440449
0.000440447
0.000440446
0.000440445
0.000440444
0.000440443
0.000440441
0.00044044
0.000440438
0.000440437
0.000440435
0.000440434
0.000440432
0.00044043
0.000440429
0.000440427
0.000440425
0.000440423
0.000440421
0.000440419
0.000440417
0.000440416
0.000440414
0.000440413
0.000440412
0.000440411
0.00044041
0.000440409
0.000440408
0.000440408
0.000440408
0.000440408
0.000440408
0.000440408
0.000440408
0.000440408
0.000440408
0.000440409
0.00044041
0.00044041
0.000440411
0.000440412
0.000440413
0.000440414
0.000440415
0.000440416
0.000440417
0.000440418
0.000440419
0.00044042
0.000440421
0.000440422
0.000440423
0.000440424
0.000440424
0.000440425
0.000440425
0.000440426
0.000440426
0.000440426
0.000440426
0.000440426
0.000440425
0.000440424
0.000440424
0.000440423
0.000440421
0.00044042
0.000440418
0.000440417
0.000440415
0.000440413
0.000440411
0.000440408
0.000440406
0.000440403
0.000440401
0.000440398
0.000440395
0.000440392
0.000440389
0.000440386
0.000440382
0.000440379
0.000440376
0.000440373
0.000440369
0.000440366
0.000440363
0.000440359
0.000440356
0.000440353
0.00044035
0.000440346
0.000440343
0.00044034
0.000440337
0.000440334
0.000440332
0.000440329
0.000440326
0.000440323
0.00044032
0.000440317
0.000440318
0.000440294
0.000424516
0.000424541
0.000424546
0.000424547
0.000424547
0.000424547
0.000424547
0.000424546
0.000424546
0.000424546
0.000424545
0.000424545
0.000424544
0.000424543
0.000424543
0.000424542
0.000424541
0.00042454
0.000424539
0.000424539
0.000424538
0.000424537
0.000424536
0.000424534
0.000424533
0.000424532
0.000424531
0.000424529
0.000424528
0.000424526
0.000424525
0.000424523
0.000424522
0.00042452
0.000424519
0.000424517
0.000424516
0.000424515
0.000424514
0.000424513
0.000424513
0.000424512
0.000424512
0.000424512
0.000424512
0.000424512
0.000424512
0.000424512
0.000424512
0.000424513
0.000424513
0.000424514
0.000424514
0.000424515
0.000424516
0.000424517
0.000424518
0.000424519
0.00042452
0.000424521
0.000424522
0.000424523
0.000424524
0.000424525
0.000424526
0.000424527
0.000424528
0.000424528
0.000424529
0.000424529
0.00042453
0.00042453
0.00042453
0.00042453
0.00042453
0.00042453
0.000424529
0.000424528
0.000424527
0.000424526
0.000424525
0.000424524
0.000424522
0.00042452
0.000424518
0.000424516
0.000424514
0.000424512
0.00042451
0.000424507
0.000424504
0.000424502
0.000424499
0.000424496
0.000424493
0.00042449
0.000424487
0.000424484
0.000424481
0.000424478
0.000424475
0.000424472
0.000424469
0.000424466
0.000424463
0.00042446