/*--------------------------------*- C++ -*----------------------------------*\
  =========                 |
  \\      /  F ield         | OpenFOAM: The Open Source CFD Toolbox
   \\    /   O peration     | Website:  https://openfoam.org
    \\  /    A nd           | Version:  7
     \\/     M anipulation  |
\*---------------------------------------------------------------------------*/
FoamFile
{
    version     2.0;
    format      ascii;
    class       volScalarField;
    location    "2000";
    object      omega;
}
// * * * * * * * * * * * * * * * * * * * * * * * * * * * * * * * * * * * * * //

dimensions      [0 0 -1 0 0 0 0];

internalField   nonuniform List<scalar> 
3963
(
0.0840033
0.0839784
0.0839764
0.0839794
0.0839831
0.0839867
0.0839902
0.0839934
0.0839966
0.0839996
0.0840025
0.0840053
0.0840081
0.0840108
0.0840134
0.084016
0.0840185
0.084021
0.0840234
0.0840254
0.0840301
0.0840356
0.0840482
0.0840623
0.0840715
0.0840779
0.0840829
0.0840872
0.084091
0.0840945
0.0840978
0.0841008
0.0841038
0.0841065
0.0841095
0.0841098
0.0841248
0.0894756
0.0894499
0.0894469
0.0894495
0.0894534
0.0894575
0.0894615
0.0894653
0.089469
0.0894726
0.089476
0.0894793
0.0894826
0.0894857
0.0894888
0.0894918
0.0894947
0.0894976
0.0895005
0.0895023
0.0895136
0.0894282
0.0893931
0.0893709
0.0893836
0.0893979
0.0894051
0.0894479
0.0894766
0.0894971
0.0895123
0.089524
0.0895334
0.0895413
0.0895481
0.0895541
0.0895596
0.0895646
0.0895692
0.0895735
0.0895779
0.0895793
0.0895964
0.09533
0.0953049
0.0953023
0.095305
0.0953091
0.0953136
0.095318
0.0953223
0.0953265
0.0953305
0.0953344
0.0953382
0.0953419
0.0953455
0.095349
0.0953523
0.0953557
0.0953589
0.0953621
0.0953643
0.0953733
0.0953439
0.0953221
0.0952107
0.0951589
0.0951411
0.095134
0.0951298
0.0951268
0.0951244
0.0951227
0.0951213
0.0951204
0.0951197
0.0951193
0.095119
0.0951189
0.095119
0.0951191
0.0951194
0.0951198
0.0951202
0.0951207
0.0951212
0.0951218
0.0951224
0.0951231
0.0951238
0.0951246
0.0951253
0.0951261
0.0951269
0.0951277
0.0951285
0.0951293
0.0951301
0.0951309
0.0951317
0.0951325
0.0951333
0.095134
0.0951348
0.0951355
0.0951362
0.0951369
0.0951376
0.0951383
0.095139
0.0951397
0.0951403
0.095141
0.0951417
0.0951424
0.0951431
0.0951437
0.0951444
0.0951452
0.0951459
0.0951466
0.0951473
0.0951481
0.0951489
0.0951497
0.0951505
0.0951513
0.0951521
0.0951529
0.0951538
0.0951547
0.0951555
0.0951564
0.0951573
0.0951583
0.0951592
0.0951602
0.0951611
0.0951621
0.0951631
0.0951641
0.0951632
0.095203
0.0952292
0.0952475
0.0952589
0.095282
0.0953065
0.0953279
0.0953456
0.0953603
0.0953725
0.095383
0.0953921
0.0954002
0.0954076
0.0954142
0.0954203
0.0954259
0.0954316
0.095434
0.095453
0.101589
0.101565
0.101563
0.101566
0.101571
0.101575
0.10158
0.101585
0.10159
0.101594
0.101598
0.101602
0.101607
0.10161
0.101614
0.101618
0.101622
0.101625
0.101629
0.101632
0.101638
0.10163
0.101621
0.101572
0.101525
0.101494
0.101476
0.101464
0.101456
0.10145
0.101446
0.101442
0.101439
0.101436
0.101434
0.101433
0.101431
0.10143
0.10143
0.101429
0.101429
0.101428
0.101428
0.101428
0.101428
0.101428
0.101428
0.101429
0.101429
0.101429
0.10143
0.10143
0.101431
0.101431
0.101432
0.101432
0.101433
0.101434
0.101434
0.101435
0.101435
0.101436
0.101436
0.101437
0.101437
0.101438
0.101439
0.101439
0.10144
0.10144
0.101441
0.101441
0.101442
0.101442
0.101443
0.101444
0.101444
0.101445
0.101445
0.101446
0.101447
0.101447
0.101448
0.101449
0.10145
0.10145
0.101451
0.101452
0.101453
0.101454
0.101455
0.101455
0.101456
0.101457
0.101458
0.101459
0.10146
0.101461
0.101462
0.101461
0.101477
0.101495
0.101512
0.101525
0.101541
0.101559
0.101577
0.101594
0.10161
0.101623
0.101635
0.101645
0.101655
0.101663
0.101671
0.101678
0.101685
0.101692
0.101695
0.101716
0.108275
0.108251
0.108249
0.108253
0.108258
0.108263
0.108269
0.108274
0.108279
0.108283
0.108288
0.108293
0.108297
0.108301
0.108305
0.108309
0.108313
0.108317
0.108321
0.108324
0.108329
0.108329
0.108327
0.108307
0.108279
0.108252
0.108231
0.108216
0.108205
0.108196
0.10819
0.108184
0.108179
0.108175
0.108172
0.10817
0.108167
0.108165
0.108164
0.108162
0.108161
0.10816
0.10816
0.108159
0.108159
0.108158
0.108158
0.108158
0.108158
0.108158
0.108158
0.108158
0.108159
0.108159
0.108159
0.108159
0.10816
0.10816
0.10816
0.108161
0.108161
0.108161
0.108162
0.108162
0.108163
0.108163
0.108163
0.108164
0.108164
0.108164
0.108165
0.108165
0.108166
0.108166
0.108167
0.108167
0.108168
0.108168
0.108169
0.108169
0.10817
0.108171
0.108171
0.108172
0.108173
0.108173
0.108174
0.108175
0.108176
0.108176
0.108177
0.108178
0.108179
0.10818
0.108181
0.108182
0.108183
0.108184
0.108185
0.108185
0.108191
0.108201
0.108213
0.108225
0.108237
0.10825
0.108265
0.108279
0.108293
0.108306
0.108318
0.108329
0.108339
0.108348
0.108357
0.108365
0.108372
0.108379
0.108383
0.108405
0.115409
0.115384
0.115383
0.115387
0.115393
0.115398
0.115404
0.115409
0.115414
0.115419
0.115424
0.115429
0.115434
0.115438
0.115443
0.115447
0.115451
0.115455
0.115459
0.115463
0.115467
0.11547
0.115471
0.115465
0.115451
0.115433
0.115417
0.115402
0.115391
0.115381
0.115373
0.115367
0.115361
0.115356
0.115352
0.115349
0.115346
0.115343
0.115341
0.115339
0.115338
0.115336
0.115335
0.115334
0.115333
0.115333
0.115332
0.115332
0.115331
0.115331
0.115331
0.115331
0.115331
0.115331
0.115331
0.115331
0.115331
0.115331
0.115331
0.115331
0.115332
0.115332
0.115332
0.115332
0.115332
0.115333
0.115333
0.115333
0.115333
0.115334
0.115334
0.115334
0.115334
0.115335
0.115335
0.115336
0.115336
0.115336
0.115337
0.115337
0.115338
0.115338
0.115339
0.11534
0.11534
0.115341
0.115342
0.115342
0.115343
0.115344
0.115345
0.115346
0.115346
0.115347
0.115348
0.115349
0.11535
0.115351
0.115352
0.115353
0.115355
0.115361
0.115369
0.115377
0.115386
0.115396
0.115407
0.115419
0.115431
0.115443
0.115454
0.115464
0.115474
0.115483
0.115492
0.1155
0.115507
0.115515
0.115519
0.115543
0.123011
0.122985
0.122984
0.122989
0.122995
0.123001
0.123006
0.123012
0.123017
0.123023
0.123028
0.123033
0.123037
0.123042
0.123047
0.123051
0.123056
0.12306
0.123064
0.123068
0.123072
0.123076
0.123079
0.123078
0.123073
0.123064
0.123053
0.123042
0.123032
0.123023
0.123016
0.123009
0.123003
0.122998
0.122994
0.12299
0.122987
0.122984
0.122982
0.122979
0.122977
0.122976
0.122974
0.122973
0.122972
0.122971
0.12297
0.122969
0.122969
0.122968
0.122968
0.122968
0.122967
0.122967
0.122967
0.122967
0.122967
0.122967
0.122967
0.122967
0.122967
0.122967
0.122967
0.122967
0.122967
0.122967
0.122967
0.122967
0.122967
0.122967
0.122968
0.122968
0.122968
0.122968
0.122968
0.122969
0.122969
0.122969
0.12297
0.12297
0.122971
0.122971
0.122972
0.122972
0.122973
0.122974
0.122974
0.122975
0.122976
0.122976
0.122977
0.122978
0.122979
0.12298
0.122981
0.122982
0.122983
0.122984
0.122985
0.122986
0.122987
0.12299
0.122995
0.123
0.123007
0.123015
0.123023
0.123032
0.123042
0.123051
0.123061
0.123071
0.12308
0.123088
0.123097
0.123105
0.123112
0.12312
0.123123
0.123148
0.131102
0.131075
0.131075
0.131079
0.131085
0.131091
0.131097
0.131103
0.131108
0.131113
0.131119
0.131124
0.131129
0.131133
0.131138
0.131143
0.131147
0.131151
0.131156
0.13116
0.131164
0.131168
0.131172
0.131174
0.131173
0.13117
0.131164
0.131157
0.13115
0.131143
0.131137
0.131131
0.131126
0.131122
0.131117
0.131114
0.13111
0.131107
0.131105
0.131103
0.1311
0.131099
0.131097
0.131096
0.131094
0.131093
0.131092
0.131091
0.13109
0.13109
0.131089
0.131089
0.131088
0.131088
0.131088
0.131087
0.131087
0.131087
0.131087
0.131087
0.131087
0.131086
0.131086
0.131086
0.131086
0.131086
0.131086
0.131086
0.131086
0.131086
0.131086
0.131086
0.131086
0.131087
0.131087
0.131087
0.131087
0.131088
0.131088
0.131088
0.131089
0.131089
0.13109
0.13109
0.131091
0.131091
0.131092
0.131093
0.131093
0.131094
0.131095
0.131096
0.131097
0.131097
0.131098
0.131099
0.1311
0.131101
0.131102
0.131103
0.131105
0.131106
0.131109
0.131113
0.131118
0.131123
0.13113
0.131137
0.131144
0.131152
0.13116
0.131168
0.131176
0.131184
0.131192
0.131199
0.131206
0.131214
0.131217
0.131243
0.139703
0.139675
0.139674
0.139679
0.139684
0.13969
0.139696
0.139702
0.139707
0.139713
0.139718
0.139723
0.139728
0.139733
0.139737
0.139742
0.139746
0.139751
0.139755
0.139759
0.139763
0.139767
0.139771
0.139775
0.139777
0.139777
0.139775
0.139772
0.139767
0.139763
0.139758
0.139754
0.13975
0.139746
0.139742
0.139739
0.139736
0.139734
0.139731
0.139729
0.139727
0.139725
0.139723
0.139722
0.139721
0.139719
0.139718
0.139717
0.139717
0.139716
0.139715
0.139715
0.139714
0.139714
0.139713
0.139713
0.139713
0.139712
0.139712
0.139712
0.139711
0.139711
0.139711
0.139711
0.139711
0.139711
0.13971
0.13971
0.13971
0.13971
0.13971
0.13971
0.13971
0.13971
0.13971
0.139711
0.139711
0.139711
0.139711
0.139712
0.139712
0.139712
0.139713
0.139713
0.139714
0.139714
0.139715
0.139716
0.139716
0.139717
0.139718
0.139719
0.13972
0.139721
0.139722
0.139723
0.139724
0.139725
0.139726
0.139727
0.139728
0.139729
0.139731
0.139734
0.139737
0.139741
0.139746
0.139751
0.139757
0.139763
0.13977
0.139777
0.139783
0.13979
0.139797
0.139804
0.139811
0.139818
0.13982
0.139846
0.148833
0.148805
0.148803
0.148807
0.148813
0.148819
0.148825
0.14883
0.148836
0.148841
0.148846
0.148851
0.148856
0.148861
0.148865
0.14887
0.148874
0.148879
0.148883
0.148887
0.148891
0.148895
0.148899
0.148903
0.148906
0.148908
0.148909
0.148908
0.148906
0.148904
0.148902
0.148899
0.148896
0.148893
0.14889
0.148888
0.148885
0.148883
0.148881
0.148879
0.148877
0.148876
0.148874
0.148873
0.148872
0.14887
0.148869
0.148869
0.148868
0.148867
0.148866
0.148866
0.148865
0.148865
0.148864
0.148864
0.148863
0.148863
0.148862
0.148862
0.148862
0.148862
0.148861
0.148861
0.148861
0.148861
0.14886
0.14886
0.14886
0.14886
0.14886
0.14886
0.14886
0.14886
0.14886
0.14886
0.14886
0.14886
0.14886
0.148861
0.148861
0.148861
0.148862
0.148862
0.148863
0.148863
0.148864
0.148865
0.148866
0.148866
0.148867
0.148868
0.148869
0.14887
0.148871
0.148872
0.148873
0.148874
0.148875
0.148876
0.148877
0.148879
0.14888
0.148882
0.148885
0.148888
0.148891
0.148895
0.148899
0.148904
0.14891
0.148915
0.148921
0.148927
0.148933
0.148939
0.148945
0.148951
0.148953
0.148979
0.158514
0.158485
0.158483
0.158487
0.158492
0.158498
0.158503
0.158508
0.158514
0.158519
0.158524
0.158529
0.158533
0.158538
0.158543
0.158547
0.158552
0.158556
0.15856
0.158564
0.158568
0.158572
0.158576
0.15858
0.158583
0.158586
0.158588
0.15859
0.15859
0.15859
0.158589
0.158587
0.158586
0.158584
0.158582
0.158581
0.158579
0.158577
0.158576
0.158574
0.158573
0.158571
0.15857
0.158569
0.158568
0.158567
0.158566
0.158565
0.158564
0.158564
0.158563
0.158562
0.158562
0.158561
0.158561
0.15856
0.15856
0.158559
0.158559
0.158559
0.158558
0.158558
0.158558
0.158557
0.158557
0.158557
0.158557
0.158556
0.158556
0.158556
0.158556
0.158556
0.158556
0.158556
0.158556
0.158556
0.158556
0.158556
0.158556
0.158556
0.158557
0.158557
0.158558
0.158558
0.158559
0.158559
0.15856
0.15856
0.158561
0.158562
0.158563
0.158564
0.158565
0.158566
0.158567
0.158568
0.158569
0.15857
0.158571
0.158572
0.158573
0.158575
0.158576
0.158578
0.15858
0.158582
0.158585
0.158588
0.158591
0.158595
0.158599
0.158604
0.158609
0.158614
0.158619
0.158624
0.158629
0.158635
0.158636
0.158663
0.168766
0.168736
0.168733
0.168737
0.168742
0.168747
0.168753
0.168758
0.168763
0.168768
0.168772
0.168777
0.168782
0.168786
0.168791
0.168795
0.168799
0.168803
0.168807
0.168811
0.168815
0.168819
0.168823
0.168827
0.16883
0.168834
0.168837
0.168839
0.16884
0.168841
0.168842
0.168842
0.168841
0.168841
0.16884
0.168839
0.168838
0.168837
0.168836
0.168835
0.168834
0.168833
0.168832
0.168831
0.168831
0.16883
0.168829
0.168828
0.168828
0.168827
0.168826
0.168826
0.168825
0.168825
0.168824
0.168824
0.168824
0.168823
0.168823
0.168822
0.168822
0.168822
0.168821
0.168821
0.168821
0.16882
0.16882
0.16882
0.168819
0.168819
0.168819
0.168819
0.168819
0.168819
0.168819
0.168819
0.168819
0.168819
0.168819
0.16882
0.16882
0.16882
0.168821
0.168821
0.168822
0.168822
0.168823
0.168824
0.168825
0.168825
0.168826
0.168827
0.168828
0.168829
0.16883
0.168831
0.168833
0.168834
0.168835
0.168836
0.168837
0.168839
0.16884
0.168842
0.168843
0.168845
0.168848
0.16885
0.168853
0.168856
0.168859
0.168863
0.168867
0.168871
0.168875
0.16888
0.168884
0.168889
0.16889
0.168916
0.179611
0.17958
0.179577
0.17958
0.179585
0.17959
0.179594
0.179599
0.179604
0.179609
0.179613
0.179618
0.179622
0.179626
0.17963
0.179635
0.179639
0.179643
0.179647
0.17965
0.179654
0.179658
0.179662
0.179665
0.179669
0.179672
0.179675
0.179678
0.179681
0.179682
0.179684
0.179685
0.179685
0.179686
0.179686
0.179686
0.179685
0.179685
0.179685
0.179684
0.179684
0.179683
0.179682
0.179682
0.179681
0.179681
0.17968
0.17968
0.179679
0.179679
0.179678
0.179678
0.179677
0.179677
0.179677
0.179676
0.179676
0.179675
0.179675
0.179675
0.179674
0.179674
0.179674
0.179673
0.179673
0.179672
0.179672
0.179672
0.179672
0.179671
0.179671
0.179671
0.179671
0.179671
0.179671
0.179671
0.179671
0.179671
0.179671
0.179672
0.179672
0.179673
0.179673
0.179674
0.179674
0.179675
0.179676
0.179676
0.179677
0.179678
0.179679
0.17968
0.179681
0.179682
0.179683
0.179684
0.179686
0.179687
0.179688
0.179689
0.179691
0.179692
0.179693
0.179695
0.179697
0.179698
0.1797
0.179702
0.179705
0.179707
0.17971
0.179713
0.179716
0.17972
0.179724
0.179727
0.179731
0.179736
0.179735
0.179762
0.191069
0.191038
0.191034
0.191037
0.191041
0.191046
0.19105
0.191055
0.191059
0.191064
0.191068
0.191072
0.191076
0.19108
0.191084
0.191088
0.191092
0.191096
0.191099
0.191103
0.191107
0.19111
0.191114
0.191117
0.191121
0.191124
0.191127
0.19113
0.191133
0.191136
0.191138
0.191139
0.191141
0.191142
0.191142
0.191143
0.191143
0.191144
0.191144
0.191144
0.191144
0.191143
0.191143
0.191143
0.191143
0.191142
0.191142
0.191142
0.191141
0.191141
0.191141
0.19114
0.19114
0.19114
0.191139
0.191139
0.191139
0.191138
0.191138
0.191138
0.191137
0.191137
0.191137
0.191136
0.191136
0.191136
0.191135
0.191135
0.191135
0.191135
0.191134
0.191134
0.191134
0.191134
0.191134
0.191134
0.191134
0.191134
0.191135
0.191135
0.191135
0.191136
0.191136
0.191137
0.191138
0.191138
0.191139
0.19114
0.191141
0.191142
0.191143
0.191144
0.191145
0.191146
0.191147
0.191149
0.19115
0.191151
0.191153
0.191154
0.191155
0.191157
0.191158
0.19116
0.191161
0.191163
0.191165
0.191167
0.191169
0.191171
0.191173
0.191176
0.191179
0.191182
0.191185
0.191188
0.191191
0.191195
0.191194
0.191221
0.203164
0.203133
0.203129
0.203131
0.203135
0.203139
0.203143
0.203148
0.203152
0.203156
0.20316
0.203163
0.203167
0.203171
0.203175
0.203178
0.203182
0.203186
0.203189
0.203193
0.203196
0.203199
0.203203
0.203206
0.203209
0.203212
0.203216
0.203219
0.203222
0.203224
0.203227
0.203229
0.203231
0.203232
0.203233
0.203235
0.203235
0.203236
0.203237
0.203237
0.203237
0.203237
0.203238
0.203238
0.203238
0.203238
0.203237
0.203237
0.203237
0.203237
0.203237
0.203237
0.203236
0.203236
0.203236
0.203236
0.203235
0.203235
0.203235
0.203235
0.203234
0.203234
0.203234
0.203233
0.203233
0.203233
0.203232
0.203232
0.203232
0.203232
0.203231
0.203231
0.203231
0.203231
0.203231
0.203231
0.203232
0.203232
0.203232
0.203232
0.203233
0.203233
0.203234
0.203235
0.203235
0.203236
0.203237
0.203238
0.203239
0.20324
0.203241
0.203242
0.203243
0.203245
0.203246
0.203247
0.203248
0.20325
0.203251
0.203253
0.203254
0.203256
0.203257
0.203259
0.20326
0.203262
0.203264
0.203266
0.203268
0.20327
0.203272
0.203274
0.203276
0.203279
0.203282
0.203284
0.203287
0.203291
0.203289
0.203315
0.21592
0.215889
0.215884
0.215886
0.21589
0.215893
0.215897
0.215901
0.215905
0.215908
0.215912
0.215916
0.215919
0.215923
0.215926
0.215929
0.215933
0.215936
0.215939
0.215943
0.215946
0.215949
0.215952
0.215955
0.215958
0.215961
0.215964
0.215967
0.21597
0.215973
0.215975
0.215978
0.21598
0.215982
0.215983
0.215985
0.215986
0.215987
0.215988
0.215989
0.215989
0.21599
0.21599
0.21599
0.215991
0.215991
0.215991
0.215991
0.215991
0.215991
0.215991
0.215991
0.215991
0.215991
0.21599
0.21599
0.21599
0.21599
0.21599
0.215989
0.215989
0.215989
0.215988
0.215988
0.215988
0.215988
0.215987
0.215987
0.215987
0.215987
0.215987
0.215987
0.215986
0.215987
0.215987
0.215987
0.215987
0.215987
0.215988
0.215988
0.215989
0.215989
0.21599
0.215991
0.215991
0.215992
0.215993
0.215994
0.215995
0.215996
0.215997
0.215999
0.216
0.216001
0.216003
0.216004
0.216005
0.216007
0.216008
0.21601
0.216012
0.216013
0.216015
0.216016
0.216018
0.21602
0.216021
0.216023
0.216025
0.216027
0.216029
0.216031
0.216033
0.216035
0.216038
0.21604
0.216043
0.216046
0.216044
0.21607
0.229361
0.22933
0.229325
0.229327
0.22933
0.229333
0.229337
0.22934
0.229344
0.229347
0.22935
0.229354
0.229357
0.22936
0.229363
0.229366
0.229369
0.229373
0.229376
0.229379
0.229381
0.229384
0.229387
0.22939
0.229393
0.229396
0.229399
0.229401
0.229404
0.229407
0.229409
0.229412
0.229414
0.229416
0.229418
0.229419
0.229421
0.229422
0.229423
0.229424
0.229425
0.229426
0.229426
0.229427
0.229427
0.229428
0.229428
0.229428
0.229428
0.229428
0.229428
0.229428
0.229428
0.229428
0.229428
0.229428
0.229428
0.229428
0.229428
0.229428
0.229427
0.229427
0.229427
0.229427
0.229426
0.229426
0.229426
0.229426
0.229425
0.229425
0.229425
0.229425
0.229425
0.229425
0.229426
0.229426
0.229426
0.229426
0.229427
0.229427
0.229428
0.229429
0.229429
0.22943
0.229431
0.229432
0.229433
0.229434
0.229435
0.229436
0.229438
0.229439
0.22944
0.229442
0.229443
0.229445
0.229446
0.229448
0.229449
0.229451
0.229453
0.229454
0.229456
0.229458
0.229459
0.229461
0.229463
0.229465
0.229466
0.229468
0.22947
0.229472
0.229474
0.229476
0.229478
0.229481
0.229483
0.229486
0.229483
0.229509
0.243515
0.243484
0.243479
0.243481
0.243483
0.243486
0.24349
0.243493
0.243496
0.243499
0.243502
0.243505
0.243508
0.243511
0.243513
0.243516
0.243519
0.243522
0.243525
0.243527
0.24353
0.243533
0.243535
0.243538
0.243541
0.243543
0.243546
0.243549
0.243551
0.243554
0.243556
0.243558
0.24356
0.243562
0.243564
0.243566
0.243568
0.243569
0.24357
0.243571
0.243572
0.243573
0.243574
0.243574
0.243575
0.243575
0.243576
0.243576
0.243576
0.243577
0.243577
0.243577
0.243577
0.243577
0.243577
0.243577
0.243577
0.243577
0.243577
0.243577
0.243576
0.243576
0.243576
0.243576
0.243576
0.243575
0.243575
0.243575
0.243575
0.243575
0.243575
0.243575
0.243575
0.243575
0.243575
0.243576
0.243576
0.243576
0.243577
0.243578
0.243578
0.243579
0.24358
0.243581
0.243582
0.243583
0.243584
0.243585
0.243586
0.243588
0.243589
0.24359
0.243592
0.243593
0.243595
0.243597
0.243598
0.2436
0.243601
0.243603
0.243605
0.243607
0.243608
0.24361
0.243612
0.243614
0.243615
0.243617
0.243619
0.243621
0.243623
0.243625
0.243627
0.243629
0.243631
0.243633
0.243634
0.243637
0.243635
0.24366
0.25841
0.25838
0.258375
0.258376
0.258379
0.258381
0.258384
0.258387
0.25839
0.258393
0.258395
0.258398
0.258401
0.258403
0.258406
0.258408
0.258411
0.258413
0.258416
0.258418
0.258421
0.258423
0.258426
0.258428
0.258431
0.258433
0.258435
0.258438
0.25844
0.258442
0.258445
0.258447
0.258449
0.258451
0.258452
0.258454
0.258456
0.258457
0.258458
0.258459
0.25846
0.258461
0.258462
0.258463
0.258463
0.258464
0.258464
0.258465
0.258465
0.258465
0.258466
0.258466
0.258466
0.258466
0.258466
0.258466
0.258466
0.258466
0.258466
0.258466
0.258466
0.258466
0.258465
0.258465
0.258465
0.258465
0.258465
0.258465
0.258465
0.258465
0.258465
0.258465
0.258465
0.258465
0.258466
0.258466
0.258466
0.258467
0.258468
0.258468
0.258469
0.25847
0.258471
0.258472
0.258473
0.258474
0.258475
0.258477
0.258478
0.258479
0.258481
0.258482
0.258484
0.258486
0.258487
0.258489
0.258491
0.258492
0.258494
0.258496
0.258498
0.258499
0.258501
0.258503
0.258505
0.258507
0.258508
0.25851
0.258512
0.258514
0.258516
0.258518
0.25852
0.258522
0.258523
0.258525
0.258527
0.25853
0.258527
0.258552
0.274079
0.274049
0.274044
0.274045
0.274048
0.27405
0.274053
0.274055
0.274058
0.27406
0.274063
0.274065
0.274068
0.27407
0.274072
0.274075
0.274077
0.274079
0.274081
0.274084
0.274086
0.274088
0.27409
0.274092
0.274094
0.274097
0.274099
0.274101
0.274103
0.274105
0.274107
0.274109
0.274111
0.274112
0.274114
0.274115
0.274117
0.274118
0.274119
0.27412
0.274121
0.274122
0.274123
0.274124
0.274124
0.274125
0.274125
0.274126
0.274126
0.274127
0.274127
0.274127
0.274127
0.274127
0.274128
0.274128
0.274128
0.274128
0.274128
0.274127
0.274127
0.274127
0.274127
0.274127
0.274127
0.274127
0.274127
0.274127
0.274127
0.274127
0.274127
0.274127
0.274127
0.274128
0.274128
0.274129
0.274129
0.27413
0.274131
0.274131
0.274132
0.274133
0.274134
0.274135
0.274137
0.274138
0.274139
0.274141
0.274142
0.274144
0.274145
0.274147
0.274148
0.27415
0.274152
0.274154
0.274155
0.274157
0.274159
0.274161
0.274163
0.274165
0.274166
0.274168
0.27417
0.274172
0.274174
0.274176
0.274178
0.274179
0.274181
0.274183
0.274185
0.274187
0.274189
0.274191
0.274192
0.274195
0.274192
0.274217
0.290556
0.290527
0.290523
0.290524
0.290526
0.290528
0.29053
0.290533
0.290535
0.290537
0.290539
0.290541
0.290543
0.290545
0.290548
0.29055
0.290552
0.290554
0.290556
0.290558
0.290559
0.290561
0.290563
0.290565
0.290567
0.290569
0.290571
0.290573
0.290575
0.290577
0.290578
0.29058
0.290581
0.290583
0.290584
0.290585
0.290587
0.290588
0.290589
0.29059
0.290591
0.290591
0.290592
0.290593
0.290593
0.290594
0.290595
0.290595
0.290595
0.290596
0.290596
0.290596
0.290596
0.290597
0.290597
0.290597
0.290597
0.290597
0.290597
0.290597
0.290597
0.290597
0.290597
0.290596
0.290596
0.290596
0.290596
0.290596
0.290596
0.290597
0.290597
0.290597
0.290597
0.290598
0.290598
0.290599
0.2906
0.2906
0.290601
0.290602
0.290603
0.290604
0.290605
0.290607
0.290608
0.290609
0.290611
0.290612
0.290614
0.290615
0.290617
0.290619
0.290621
0.290622
0.290624
0.290626
0.290628
0.29063
0.290632
0.290634
0.290635
0.290637
0.290639
0.290641
0.290643
0.290645
0.290647
0.290649
0.290651
0.290653
0.290655
0.290657
0.290658
0.29066
0.290662
0.290664
0.290666
0.290668
0.290665
0.290689
0.307881
0.307853
0.307848
0.307849
0.307851
0.307853
0.307855
0.307857
0.307859
0.307861
0.307863
0.307865
0.307867
0.307869
0.30787
0.307872
0.307874
0.307876
0.307877
0.307879
0.307881
0.307883
0.307884
0.307886
0.307888
0.307889
0.307891
0.307893
0.307894
0.307896
0.307897
0.307898
0.3079
0.307901
0.307902
0.307903
0.307904
0.307905
0.307905
0.307906
0.307907
0.307908
0.307908
0.307909
0.307909
0.30791
0.30791
0.307911
0.307911
0.307912
0.307912
0.307912
0.307912
0.307912
0.307912
0.307913
0.307913
0.307913
0.307913
0.307912
0.307912
0.307912
0.307912
0.307912
0.307912
0.307912
0.307912
0.307912
0.307913
0.307913
0.307913
0.307913
0.307914
0.307914
0.307915
0.307916
0.307916
0.307917
0.307918
0.307919
0.30792
0.307922
0.307923
0.307924
0.307926
0.307927
0.307929
0.30793
0.307932
0.307934
0.307936
0.307937
0.307939
0.307941
0.307943
0.307945
0.307947
0.307949
0.307951
0.307953
0.307955
0.307957
0.307958
0.30796
0.307962
0.307964
0.307966
0.307968
0.30797
0.307972
0.307974
0.307976
0.307978
0.30798
0.307982
0.307984
0.307985
0.307988
0.307985
0.308008
0.326095
0.326069
0.326065
0.326065
0.326067
0.326069
0.326071
0.326072
0.326074
0.326076
0.326078
0.326079
0.326081
0.326082
0.326084
0.326086
0.326087
0.326089
0.32609
0.326092
0.326093
0.326094
0.326096
0.326097
0.326099
0.3261
0.326102
0.326103
0.326104
0.326106
0.326107
0.326107
0.326108
0.326109
0.32611
0.32611
0.326111
0.326112
0.326112
0.326113
0.326114
0.326114
0.326115
0.326115
0.326116
0.326116
0.326116
0.326117
0.326117
0.326117
0.326118
0.326118
0.326118
0.326118
0.326118
0.326118
0.326118
0.326118
0.326118
0.326118
0.326118
0.326118
0.326118
0.326118
0.326118
0.326118
0.326118
0.326118
0.326119
0.326119
0.326119
0.32612
0.32612
0.326121
0.326121
0.326122
0.326123
0.326124
0.326125
0.326126
0.326128
0.326129
0.32613
0.326132
0.326133
0.326135
0.326137
0.326138
0.32614
0.326142
0.326144
0.326146
0.326148
0.32615
0.326152
0.326154
0.326156
0.326158
0.32616
0.326161
0.326163
0.326165
0.326167
0.326169
0.326171
0.326173
0.326175
0.326177
0.326179
0.326181
0.326184
0.326186
0.326188
0.32619
0.326191
0.326193
0.326195
0.326197
0.326194
0.326216
0.345249
0.345224
0.345219
0.34522
0.345221
0.345223
0.345225
0.345226
0.345228
0.345229
0.345231
0.345232
0.345234
0.345235
0.345236
0.345238
0.345239
0.34524
0.345242
0.345243
0.345244
0.345245
0.345247
0.345248
0.345249
0.34525
0.345251
0.345252
0.345253
0.345254
0.345255
0.345255
0.345256
0.345256
0.345256
0.345257
0.345257
0.345258
0.345258
0.345258
0.345259
0.345259
0.345259
0.34526
0.34526
0.34526
0.345261
0.345261
0.345261
0.345261
0.345262
0.345262
0.345262
0.345262
0.345262
0.345262
0.345262
0.345262
0.345262
0.345262
0.345262
0.345262
0.345262
0.345262
0.345262
0.345262
0.345262
0.345262
0.345263
0.345263
0.345263
0.345264
0.345265
0.345265
0.345266
0.345267
0.345268
0.345269
0.34527
0.345272
0.345273
0.345274
0.345276
0.345278
0.345279
0.345281
0.345283
0.345285
0.345286
0.345288
0.34529
0.345292
0.345294
0.345296
0.345298
0.3453
0.345302
0.345304
0.345306
0.345308
0.34531
0.345312
0.345314
0.345316
0.345318
0.34532
0.345322
0.345324
0.345327
0.345329
0.345331
0.345333
0.345335
0.345337
0.345339
0.345341
0.345342
0.345344
0.345342
0.345363
0.365395
0.365371
0.365367
0.365368
0.365369
0.36537
0.365372
0.365373
0.365375
0.365376
0.365377
0.365378
0.365379
0.365381
0.365382
0.365383
0.365384
0.365385
0.365386
0.365387
0.365388
0.365389
0.36539
0.365391
0.365392
0.365393
0.365394
0.365395
0.365395
0.365395
0.365396
0.365396
0.365396
0.365396
0.365396
0.365396
0.365396
0.365396
0.365396
0.365396
0.365397
0.365397
0.365397
0.365397
0.365397
0.365398
0.365398
0.365398
0.365398
0.365398
0.365398
0.365398
0.365398
0.365398
0.365398
0.365398
0.365398
0.365398
0.365398
0.365398
0.365398
0.365398
0.365398
0.365398
0.365398
0.365398
0.365398
0.365399
0.365399
0.3654
0.3654
0.365401
0.365401
0.365402
0.365403
0.365404
0.365405
0.365406
0.365408
0.365409
0.365411
0.365412
0.365414
0.365416
0.365417
0.365419
0.365421
0.365423
0.365425
0.365427
0.365429
0.365431
0.365433
0.365435
0.365437
0.365439
0.365441
0.365443
0.365445
0.365447
0.365449
0.365451
0.365453
0.365455
0.365457
0.365459
0.365462
0.365464
0.365466
0.365469
0.365471
0.365473
0.365475
0.365477
0.365479
0.36548
0.365482
0.365484
0.365482
0.365502
0.386594
0.386573
0.386569
0.386569
0.38657
0.386572
0.386573
0.386574
0.386575
0.386576
0.386577
0.386578
0.386579
0.38658
0.386581
0.386582
0.386583
0.386583
0.386584
0.386585
0.386586
0.386587
0.386588
0.386589
0.386589
0.38659
0.386591
0.386591
0.386591
0.38659
0.38659
0.38659
0.386589
0.386589
0.386589
0.386589
0.386589
0.386588
0.386588
0.386588
0.386588
0.386588
0.386588
0.386588
0.386588
0.386588
0.386588
0.386588
0.386588
0.386588
0.386588
0.386588
0.386588
0.386588
0.386588
0.386588
0.386588
0.386588
0.386588
0.386588
0.386588
0.386588
0.386588
0.386588
0.386588
0.386588
0.386588
0.386589
0.386589
0.38659
0.38659
0.386591
0.386592
0.386593
0.386594
0.386595
0.386596
0.386597
0.386599
0.3866
0.386602
0.386604
0.386605
0.386607
0.386609
0.386611
0.386613
0.386615
0.386617
0.386619
0.386621
0.386623
0.386625
0.386628
0.38663
0.386632
0.386634
0.386636
0.386638
0.38664
0.386641
0.386643
0.386645
0.386647
0.386649
0.386652
0.386654
0.386657
0.386659
0.386662
0.386664
0.386666
0.386668
0.38667
0.386672
0.386674
0.386675
0.386677
0.386675
0.386693
0.408917
0.408897
0.408893
0.408894
0.408895
0.408896
0.408897
0.408898
0.408898
0.408899
0.4089
0.408901
0.408902
0.408902
0.408903
0.408904
0.408904
0.408905
0.408906
0.408906
0.408907
0.408907
0.408908
0.408909
0.408909
0.40891
0.40891
0.408909
0.408909
0.408908
0.408907
0.408906
0.408906
0.408905
0.408905
0.408904
0.408904
0.408903
0.408903
0.408903
0.408903
0.408902
0.408902
0.408902
0.408902
0.408902
0.408902
0.408902
0.408902
0.408901
0.408901
0.408901
0.408901
0.408901
0.408901
0.408901
0.4089
0.4089
0.4089
0.4089
0.4089
0.4089
0.4089
0.4089
0.4089
0.408901
0.408901
0.408901
0.408902
0.408902
0.408903
0.408904
0.408905
0.408906
0.408907
0.408908
0.40891
0.408911
0.408913
0.408914
0.408916
0.408918
0.40892
0.408921
0.408923
0.408926
0.408928
0.40893
0.408932
0.408934
0.408936
0.408938
0.40894
0.408942
0.408944
0.408946
0.408948
0.40895
0.408952
0.408954
0.408956
0.408958
0.40896
0.408962
0.408964
0.408967
0.40897
0.408972
0.408975
0.408977
0.40898
0.408982
0.408984
0.408986
0.408987
0.408989
0.40899
0.408992
0.40899
0.409008
0.432441
0.432422
0.432419
0.432419
0.43242
0.432421
0.432421
0.432422
0.432423
0.432423
0.432424
0.432424
0.432425
0.432425
0.432426
0.432426
0.432427
0.432427
0.432428
0.432428
0.432429
0.432429
0.43243
0.43243
0.432431
0.432431
0.43243
0.432429
0.432427
0.432426
0.432425
0.432424
0.432423
0.432422
0.432421
0.43242
0.43242
0.432419
0.432419
0.432418
0.432418
0.432418
0.432417
0.432417
0.432417
0.432416
0.432416
0.432416
0.432416
0.432415
0.432415
0.432415
0.432415
0.432414
0.432414
0.432414
0.432414
0.432414
0.432413
0.432413
0.432413
0.432413
0.432413
0.432413
0.432414
0.432414
0.432414
0.432415
0.432415
0.432416
0.432417
0.432418
0.432419
0.43242
0.432421
0.432422
0.432424
0.432425
0.432427
0.432429
0.432431
0.432432
0.432434
0.432436
0.432439
0.432441
0.432443
0.432445
0.432447
0.432449
0.432451
0.432454
0.432456
0.432458
0.43246
0.432462
0.432464
0.432466
0.432468
0.432469
0.432471
0.432473
0.432475
0.432477
0.43248
0.432483
0.432486
0.432489
0.432491
0.432494
0.432496
0.432498
0.4325
0.432502
0.432504
0.432505
0.432506
0.432508
0.432506
0.432522
0.457254
0.457238
0.457234
0.457234
0.457235
0.457235
0.457236
0.457236
0.457237
0.457237
0.457237
0.457238
0.457238
0.457238
0.457238
0.457239
0.457239
0.457239
0.45724
0.45724
0.45724
0.45724
0.457241
0.457241
0.457241
0.457241
0.457239
0.457237
0.457235
0.457233
0.457232
0.45723
0.457229
0.457228
0.457227
0.457226
0.457225
0.457224
0.457224
0.457223
0.457223
0.457222
0.457222
0.457221
0.457221
0.45722
0.45722
0.457219
0.457219
0.457219
0.457218
0.457218
0.457218
0.457217
0.457217
0.457217
0.457217
0.457216
0.457216
0.457216
0.457216
0.457216
0.457216
0.457216
0.457216
0.457217
0.457217
0.457218
0.457218
0.457219
0.45722
0.457221