/*--------------------------------*- C++ -*----------------------------------*\
  =========                 |
  \\      /  F ield         | OpenFOAM: The Open Source CFD Toolbox
   \\    /   O peration     | Website:  https://openfoam.org
    \\  /    A nd           | Version:  7
     \\/     M anipulation  |
\*---------------------------------------------------------------------------*/
FoamFile
{
    version     2.0;
    format      ascii;
    class       surfaceScalarField;
    location    "2000";
    object      phi;
}
// * * * * * * * * * * * * * * * * * * * * * * * * * * * * * * * * * * * * * //

dimensions      [0 3 -1 0 0 0 0];

internalField   nonuniform List<scalar> 
7768
(
0.000358424
5.40916e-09
0.000358425
4.31042e-09
0.000358425
3.44025e-09
0.000358425
2.82322e-09
0.000358425
2.28134e-09
0.000358425
1.82995e-09
0.000358425
1.4481e-09
0.000358425
1.12085e-09
0.000358425
8.41515e-10
0.000358425
6.0369e-10
0.000358425
4.02461e-10
0.000358425
2.33858e-10
0.000358426
9.45795e-11
0.000358426
-1.82662e-11
0.000358426
-1.06793e-10
0.000358426
-1.73278e-10
0.000358426
-2.16789e-10
0.000358426
-2.4067e-10
0.000358426
-2.2498e-10
0.000358426
-1.78631e-10
5.771e-11
0.000358421
-1.24101e-09
0.000358422
-1.21522e-09
0.000358422
-1.09753e-09
0.000358422
-9.75266e-10
0.000358422
-8.38055e-10
0.000358422
-6.75968e-10
0.000358423
-4.81949e-10
0.000358423
-2.43364e-10
0.000358423
4.53596e-11
0.000358423
4.08742e-10
0.000358423
8.42172e-10
0.000358423
1.41037e-09
0.000358424
2.0621e-09
0.000358424
2.98147e-09
0.000358424
4.04557e-09
5.22829e-09
0.000349425
5.23198e-09
0.000349426
4.12642e-09
0.000349426
3.28728e-09
0.000349426
2.69167e-09
0.000349426
2.16646e-09
0.000349426
1.72949e-09
0.000349426
1.35875e-09
0.000349426
1.04044e-09
0.000349426
7.68314e-10
0.000349426
5.36258e-10
0.000349427
3.39658e-10
0.000349427
1.74759e-10
0.000349427
3.84071e-11
0.000349427
-7.21913e-11
0.000349427
-1.59122e-10
0.000349427
-2.24663e-10
0.000349427
-2.68023e-10
0.000349427
-2.92837e-10
0.000349427
-2.80529e-10
0.000349427
-2.43362e-10
0.000349427
-8.32752e-11
0.000349427
1.67481e-10
5.10352e-10
0.000349422
-1.36103e-09
0.000349423
-1.36719e-09
0.000349423
-1.26102e-09
0.000349423
-1.33182e-09
0.000349423
-1.41822e-09
0.000349423
-1.3278e-09
0.000349423
-1.22814e-09
0.000349423
-1.11742e-09
0.000349424
-9.84248e-10
0.000349424
-8.22851e-10
0.000349424
-6.28526e-10
0.000349424
-3.89613e-10
0.000349424
-1.01851e-10
0.000349424
2.59753e-10
0.000349424
6.88299e-10
0.000349425
1.2519e-09
0.000349425
1.89285e-09
0.000349425
2.80687e-09
0.000349425
3.85635e-09
5.04766e-09
0.000340616
5.05927e-09
0.000340616
3.94965e-09
0.000340616
3.13813e-09
0.000340616
2.56398e-09
0.000340616
2.05693e-09
0.000340617
1.63545e-09
0.000340617
1.27641e-09
0.000340617
9.6731e-10
0.000340617
7.02503e-10
0.000340617
4.76252e-10
0.000340617
2.8429e-10
0.000340617
1.23093e-10
0.000340617
-1.03362e-11
0.000340617
-1.18691e-10
0.000340617
-2.04049e-10
0.000340617
-2.68663e-10
0.000340617
-3.12142e-10
0.000340617
-3.377e-10
0.000340617
-3.32967e-10
0.000340617
-2.97251e-10
0.000340617
-2.80199e-10
0.000340618
-1.51003e-10
0.000340618
2.02508e-10
0.000340618
5.4936e-10
0.000340618
7.00141e-10
0.000340618
7.05261e-10
0.000340618
6.65568e-10
0.000340618
6.30376e-10
0.000340618
6.07421e-10
0.000340618
5.94976e-10
0.000340618
5.90378e-10
0.000340618
5.91719e-10
0.000340618
5.97638e-10
0.000340618
6.07078e-10
0.000340618
6.19178e-10
0.000340618
6.33168e-10
0.000340618
6.48294e-10
0.000340618
6.63745e-10
0.000340618
6.78598e-10
0.000340618
6.91771e-10
0.000340618
7.02004e-10
0.000340618
7.07876e-10
0.000340618
7.07873e-10
0.000340618
7.00493e-10
0.000340618
6.84416e-10
0.000340618
6.58682e-10
0.000340618
6.2286e-10
0.000340617
5.77142e-10
0.000340617
5.22329e-10
0.000340617
4.59687e-10
0.000340617
3.90762e-10
0.000340617
3.17212e-10
0.000340617
2.40664e-10
0.000340617
1.62619e-10
0.000340617
8.4391e-11
0.000340617
7.08172e-12
0.000340617
-6.84218e-11
0.000340617
-1.41435e-10
0.000340617
-2.11455e-10
0.000340617
-2.78136e-10
0.000340617
-3.41266e-10
0.000340617
-4.00744e-10
0.000340617
-4.5656e-10
0.000340617
-5.08779e-10
0.000340616
-5.57523e-10
0.000340616
-6.02964e-10
0.000340616
-6.45312e-10
0.000340616
-6.84803e-10
0.000340616
-7.21695e-10
0.000340616
-7.56259e-10
0.000340616
-7.88776e-10
0.000340616
-8.19523e-10
0.000340616
-8.48775e-10
0.000340616
-8.76793e-10
0.000340615
-9.03823e-10
0.000340615
-9.30082e-10
0.000340615
-9.55761e-10
0.000340615
-9.81013e-10
0.000340615
-1.00595e-09
0.000340615
-1.03063e-09
0.000340615
-1.05507e-09
0.000340615
-1.07922e-09
0.000340615
-1.10299e-09
0.000340615
-1.1262e-09
0.000340615
-1.14863e-09
0.000340614
-1.16998e-09
0.000340614
-1.1899e-09
0.000340614
-1.20795e-09
0.000340614
-1.22367e-09
0.000340614
-1.23651e-09
0.000340614
-1.24591e-09
0.000340614
-1.25124e-09
0.000340614
-1.25191e-09
0.000340614
-1.24728e-09
0.000340614
-1.23688e-09
0.000340614
-1.22007e-09
0.000340614
-1.19674e-09
0.000340614
-1.17127e-09
0.000340614
-1.12612e-09
0.000340614
-1.27104e-09
0.000340614
-1.4226e-09
0.000340614
-1.36824e-09
0.000340614
-1.29925e-09
0.000340614
-1.32733e-09
0.000340614
-1.37709e-09
0.000340614
-1.32693e-09
0.000340614
-1.26006e-09
0.000340614
-1.17367e-09
0.000340614
-1.05765e-09
0.000340614
-9.08077e-10
0.000340614
-7.22306e-10
0.000340615
-4.90092e-10
0.000340615
-2.09012e-10
0.000340615
1.4596e-10
0.000340615
5.65276e-10
0.000340615
1.12004e-09
0.000340615
1.74587e-09
0.000340615
2.64954e-09
0.000340616
3.67748e-09
4.86967e-09
0.000331991
4.89688e-09
0.000331991
3.78461e-09
0.000331992
2.99862e-09
0.000331992
2.44423e-09
0.000331992
1.95549e-09
0.000331992
1.55007e-09
0.000331992
1.20318e-09
0.000331992
9.03548e-10
0.000331992
6.4615e-10
0.000331992
4.25703e-10
0.000331992
2.38335e-10
0.000331992
8.0783e-11
0.000331992
-4.97881e-11
0.000331992
-1.55961e-10
0.000331992
-2.39823e-10
0.000331992
-3.03571e-10
0.000331992
-3.47405e-10
0.000331992
-3.73667e-10
0.000331993
-3.77843e-10
0.000331993
-3.44542e-10
0.000331993
-4.0297e-10
0.000331993
-3.846e-10
0.000331993
-2.02128e-10
0.000331994
7.66122e-11
0.000331994
3.98305e-10
0.000331994
5.5752e-10
0.000331994
6.02279e-10
0.000331994
6.067e-10
0.000331994
6.02324e-10
0.000331994
5.99499e-10
0.000331994
6.00398e-10
0.000331994
6.05004e-10
0.000331994
6.12819e-10
0.000331994
6.23261e-10
0.000331994
6.3575e-10
0.000331994
6.49706e-10
0.000331994
6.64507e-10
0.000331994
6.79449e-10
0.000331994
6.93703e-10
0.000331994
7.06279e-10
0.000331994
7.16013e-10
0.000331994
7.2159e-10
0.000331994
7.21608e-10
0.000331994
7.1468e-10
0.000331994
6.99592e-10
0.000331994
6.75462e-10
0.000331994
6.41896e-10
0.000331994
5.99068e-10
0.000331994
5.47714e-10
0.000331994
4.88996e-10
0.000331994
4.24346e-10
0.000331994
3.55308e-10
0.000331994
2.83405e-10
0.000331994
2.10051e-10
0.000331994
1.36487e-10
0.000331994
6.37593e-11
0.000331994
-7.2878e-12
0.000331994
-7.60028e-11
0.000331994
-1.41909e-10
0.000331993
-2.04681e-10
0.000331993
-2.64125e-10
0.000331993
-3.20158e-10
0.000331993
-3.72784e-10
0.000331993
-4.22082e-10
0.000331993
-4.68193e-10
0.000331993
-5.11301e-10
0.000331993
-5.51629e-10
0.000331993
-5.89428e-10
0.000331993
-6.24967e-10
0.000331993
-6.58528e-10
0.000331992
-6.90397e-10
0.000331992
-7.20859e-10
0.000331992
-7.50192e-10
0.000331992
-7.78656e-10
0.000331992
-8.06495e-10
0.000331992
-8.33922e-10
0.000331992
-8.61117e-10
0.000331992
-8.88224e-10
0.000331992
-9.1534e-10
0.000331992
-9.42514e-10
0.000331992
-9.69741e-10
0.000331991
-9.96957e-10
0.000331991
-1.02404e-09
0.000331991
-1.05081e-09
0.000331991
-1.077e-09
0.000331991
-1.10231e-09
0.000331991
-1.12635e-09
0.000331991
-1.14869e-09
0.000331991
-1.16881e-09
0.000331991
-1.18617e-09
0.000331991
-1.20018e-09
0.000331991
-1.2102e-09
0.000331991
-1.21561e-09
0.000331991
-1.21579e-09
0.000331991
-1.21018e-09
0.000331991
-1.19847e-09
0.000331991
-1.17981e-09
0.000331991
-1.16128e-09
0.000331991
-1.1242e-09
0.000331991
-1.19607e-09
0.000331991
-1.29566e-09
0.00033199
-1.28903e-09
0.00033199
-1.26495e-09
0.00033199
-1.2829e-09
0.00033199
-1.30128e-09
0.00033199
-1.26148e-09
0.00033199
-1.21718e-09
0.00033199
-1.15489e-09
0.00033199
-1.06082e-09
0.00033199
-9.29602e-10
0.00033199
-7.59004e-10
0.00033199
-5.39539e-10
0.00033199
-2.70496e-10
0.00033199
7.3056e-11
0.00033199
4.78741e-10
0.000331991
1.02034e-09
0.000331991
1.62659e-09
0.000331991
2.51481e-09
0.000331991
3.515e-09
4.70239e-09
0.000323548
4.74673e-09
0.000323548
3.63392e-09
0.000323548
2.87275e-09
0.000323548
2.33617e-09
0.000323548
1.86491e-09
0.000323548
1.47529e-09
0.000323548
1.14056e-09
0.000323548
8.50478e-10
0.000323548
6.00497e-10
0.000323548
3.85808e-10
0.000323548
2.02961e-10
0.000323549
4.89643e-11
0.000323549
-7.884e-11
0.000323549
-1.8292e-10
0.000323549
-2.65378e-10
0.000323549
-3.28343e-10
0.000323549
-3.72693e-10
0.000323549
-3.99778e-10
0.000323549
-4.12236e-10
0.000323549
-3.84821e-10
0.000323549
-4.75262e-10
0.000323549
-5.31224e-10
0.000323549
-4.84825e-10
0.00032355
-3.25595e-10
0.00032355
1.84841e-11
0.00032355
2.78158e-10
0.000323551
4.16916e-10
0.000323551
4.84679e-10
0.000323551
5.19036e-10
0.000323551
5.40374e-10
0.000323551
5.57296e-10
0.000323551
5.73135e-10
0.000323551
5.89126e-10
0.000323551
6.05653e-10
0.000323551
6.22738e-10
0.000323551
6.40194e-10
0.000323551
6.57685e-10
0.000323551
6.74723e-10
0.000323551
6.90653e-10
0.000323551
7.04638e-10
0.000323551
7.15656e-10
0.000323551
7.2253e-10
0.000323551
7.23989e-10
0.000323551
7.18778e-10
0.000323551
7.05793e-10
0.000323551
6.84239e-10
0.000323551
6.53764e-10
0.000323551
6.14536e-10
0.000323551
5.67237e-10
0.000323551
5.12945e-10
0.000323551
4.5299e-10
0.000323551
3.88817e-10
0.000323551
3.21855e-10
0.000323551
2.53438e-10
0.000323551
1.84742e-10
0.000323551
1.16762e-10
0.000323551
5.03016e-11
0.00032355
-1.40169e-11
0.00032355
-7.57401e-11
0.00032355
-1.34562e-10
0.00032355
-1.90306e-10
0.00032355
-2.42901e-10
0.00032355
-2.92365e-10
0.00032355
-3.38792e-10
0.00032355
-3.82331e-10
0.00032355
-4.23183e-10
0.00032355
-4.6158e-10
0.00032355
-4.97783e-10
0.00032355
-5.32071e-10
0.000323549
-5.64732e-10
0.000323549
-5.96059e-10
0.000323549
-6.2634e-10
0.000323549
-6.55852e-10
0.000323549
-6.84856e-10
0.000323549
-7.13588e-10
0.000323549
-7.42257e-10
0.000323549
-7.71033e-10
0.000323549
-8.00046e-10
0.000323549
-8.29381e-10
0.000323549
-8.5907e-10
0.000323548
-8.8909e-10
0.000323548
-9.19359e-10
0.000323548
-9.49735e-10
0.000323548
-9.80009e-10
0.000323548
-1.00991e-09
0.000323548
-1.0391e-09
0.000323548
-1.06718e-09
0.000323548
-1.09368e-09
0.000323548
-1.11808e-09
0.000323548
-1.13982e-09
0.000323548
-1.15827e-09
0.000323548
-1.17281e-09
0.000323548
-1.18276e-09
0.000323548
-1.18753e-09
0.000323548
-1.18648e-09
0.000323548
-1.17953e-09
0.000323548
-1.1654e-09
0.000323548
-1.1516e-09
0.000323548
-1.1232e-09
0.000323548
-1.15217e-09
0.000323548
-1.19627e-09
0.000323547
-1.1913e-09
0.000323547
-1.19083e-09
0.000323547
-1.2101e-09
0.000323547
-1.21087e-09
0.000323547
-1.16925e-09
0.000323547
-1.13301e-09
0.000323547
-1.08588e-09
0.000323547
-1.0104e-09
0.000323547
-8.97896e-10
0.000323547
-7.44838e-10
0.000323547
-5.41359e-10
0.000323547
-2.87853e-10
0.000323547
4.07313e-11
0.000323547
4.29261e-10
0.000323547
9.53952e-10
0.000323547
1.53671e-09
0.000323547
2.40472e-09
0.000323547
3.37149e-09
4.54855e-09
0.000315281
4.60803e-09
0.000315281
3.49748e-09
0.000315281
2.76184e-09
0.000315281
2.24182e-09
0.000315281
1.78701e-09
0.000315281
1.41243e-09
0.000315281
1.08947e-09
0.000315281
8.08751e-10
0.000315281
5.66059e-10
0.000315282
3.57018e-10
0.000315282
1.78585e-10
0.000315282
2.80407e-11
0.000315282
-9.70948e-11
0.000315282
-1.99171e-10
0.000315282
-2.80315e-10
0.000315282
-3.42578e-10
0.000315282
-3.87517e-10
0.000315282
-4.15613e-10
0.000315282
-4.3499e-10
0.000315282
-4.1605e-10
0.000315282
-5.15835e-10
0.000315282
-6.12692e-10
0.000315282
-6.56015e-10
0.000315282
-6.08217e-10
0.000315283
-3.22919e-10
0.000315283
-3.86632e-11
0.000315283
1.61595e-10
0.000315283
2.89012e-10
0.000315284
3.6904e-10
0.000315284
4.23168e-10
0.000315284
4.63772e-10
0.000315284
4.97217e-10
0.000315284
5.26679e-10
0.000315284
5.53745e-10
0.000315284
5.79211e-10
0.000315284
6.03424e-10
0.000315284
6.26432e-10
0.000315284
6.48042e-10
0.000315284
6.67838e-10
0.000315284
6.85182e-10
0.000315284
6.99233e-10
0.000315284
7.08974e-10
0.000315284
7.13287e-10
0.000315284
7.11056e-10
0.000315284
7.01298e-10
0.000315284
6.83308e-10
0.000315284
6.56783e-10
0.000315284
6.21896e-10
0.000315284
5.79284e-10
0.000315284
5.29956e-10
0.000315284
4.75157e-10
0.000315284
4.16239e-10
0.000315284
3.54551e-10
0.000315284
2.91354e-10
0.000315284
2.27765e-10
0.000315284
1.64732e-10
0.000315284
1.03022e-10
0.000315284
4.32294e-11
0.000315284
-1.42123e-11
0.000315284
-6.90145e-11
0.000315284
-1.21013e-10
0.000315284
-1.70149e-10
0.000315283
-2.16453e-10
0.000315283
-2.60027e-10
0.000315283
-3.01033e-10
0.000315283
-3.39678e-10
0.000315283
-3.76204e-10
0.000315283
-4.1088e-10
0.000315283
-4.43991e-10
0.000315283
-4.7583e-10
0.000315283
-5.06692e-10
0.000315283
-5.36866e-10
0.000315283
-5.66627e-10
0.000315283
-5.96232e-10
0.000315282
-6.25912e-10
0.000315282
-6.55866e-10
0.000315282
-6.86254e-10
0.000315282
-7.17193e-10
0.000315282
-7.48751e-10
0.000315282
-7.80945e-10
0.000315282
-8.13732e-10
0.000315282
-8.47013e-10
0.000315282
-8.80621e-10
0.000315282
-9.1433e-10
0.000315282
-9.47845e-10
0.000315282
-9.80808e-10
0.000315282
-1.01279e-09
0.000315282
-1.04332e-09
0.000315281
-1.07185e-09
0.000315281
-1.09779e-09
0.000315281
-1.1205e-09
0.000315281
-1.13935e-09
0.000315281
-1.15363e-09
0.000315281
-1.16275e-09
0.000315281
-1.16601e-09
0.000315281
-1.16346e-09
0.000315281
-1.15363e-09
0.000315281
-1.14339e-09
0.000315281
-1.12195e-09
0.000315281
-1.12868e-09
0.000315281
-1.13239e-09
0.000315281
-1.11067e-09
0.000315281
-1.11118e-09
0.000315281
-1.12817e-09
0.000315281
-1.11903e-09
0.000315281
-1.07239e-09
0.000315281
-1.03443e-09
0.000315281
-9.92277e-10
0.00031528
-9.27908e-10
0.00031528
-8.29832e-10
0.00031528
-6.92592e-10
0.00031528
-5.05086e-10
0.00031528
-2.68134e-10
0.00031528
4.38157e-11
0.00031528
4.13123e-10
0.00031528
9.18301e-10
0.00031528
1.4746e-09
0.00031528
2.31835e-09
0.000315281
3.2468e-09
4.408e-09
0.000307187
4.47832e-09
0.000307187
3.37329e-09
0.000307187
2.66487e-09
0.000307187
2.16114e-09
0.000307187
1.72218e-09
0.000307187
1.36185e-09
0.000307188
1.05007e-09
0.000307188
7.78329e-10
0.000307188
5.42678e-10
0.000307188
3.39113e-10
0.000307188
1.64962e-10
0.000307188
1.77642e-11
0.000307188
-1.04792e-10
0.000307188
-2.04939e-10
0.000307188
-2.84834e-10
0.000307188
-3.46453e-10
0.000307188
-3.91981e-10
0.000307188
-4.21245e-10
0.000307188
-4.46121e-10
0.000307188
-4.36616e-10
0.000307188
-5.35839e-10
0.000307188
-6.5078e-10
0.000307188
-7.45007e-10
0.000307188
-7.78288e-10
0.000307188
-5.76721e-10
0.000307189
-3.22092e-10
0.000307189
-1.03822e-10
0.000307189
6.07474e-11
0.000307189
1.7877e-10
0.000307189
2.65175e-10
0.000307189
3.31631e-10
0.00030719
3.85609e-10
0.00030719
4.3153e-10
0.00030719
4.71958e-10
0.00030719
5.08402e-10
0.00030719
5.41734e-10
0.00030719
5.72403e-10
0.00030719
6.00535e-10
0.00030719
6.25972e-10
0.00030719
6.48299e-10
0.00030719
6.66865e-10
0.00030719
6.80831e-10
0.00030719
6.89237e-10
0.00030719
6.91111e-10
0.00030719
6.85591e-10
0.00030719
6.72064e-10
0.00030719
6.50279e-10
0.00030719
6.20418e-10
0.00030719
5.83088e-10
0.00030719
5.39235e-10
0.00030719
4.9003e-10
0.00030719
4.36745e-10
0.00030719
3.80655e-10
0.00030719
3.22955e-10
0.00030719
2.64708e-10
0.00030719
2.06819e-10
0.00030719
1.50023e-10
0.00030719
9.48903e-11
0.00030719
4.1834e-11
0.00030719
-8.87092e-12
0.00030719
-5.70716e-11
0.00030719
-1.02719e-10
0.00030719
-1.45853e-10
0.00030719
-1.86583e-10
0.000307189
-2.25078e-10
0.000307189
-2.61552e-10
0.000307189
-2.96253e-10
0.000307189
-3.29455e-10
0.000307189
-3.61446e-10
0.000307189
-3.92521e-10
0.000307189
-4.22976e-10
0.000307189
-4.53096e-10
0.000307189
-4.83155e-10
0.000307189
-5.13402e-10
0.000307189
-5.44061e-10
0.000307189
-5.7532e-10
0.000307189
-6.07327e-10
0.000307188
-6.40184e-10
0.000307188
-6.73945e-10
0.000307188
-7.08608e-10
0.000307188
-7.44111e-10
0.000307188
-7.80335e-10
0.000307188
-8.17093e-10
0.000307188
-8.54136e-10
0.000307188
-8.91149e-10
0.000307188
-9.27751e-10
0.000307188
-9.63497e-10
0.000307188
-9.97887e-10
0.000307188
-1.03036e-09
0.000307188
-1.0603e-09
0.000307188
-1.08707e-09
0.000307188
-1.10999e-09
0.000307188
-1.12836e-09
0.000307188
-1.14159e-09
0.000307188
-1.14888e-09
0.000307188
-1.15039e-09
0.000307188
-1.14454e-09
0.000307188
-1.13727e-09
0.000307188
-1.12078e-09
0.000307188
-1.11713e-09
0.000307188
-1.09701e-09
0.000307187
-1.05718e-09
0.000307187
-1.04632e-09
0.000307187
-1.05384e-09
0.000307187
-1.03607e-09
0.000307187
-9.83589e-10
0.000307187
-9.389e-10
0.000307187
-8.94023e-10
0.000307187
-8.3295e-10
0.000307187
-7.43012e-10
0.000307187
-6.17261e-10
0.000307187
-4.43143e-10
0.000307187
-2.21483e-10
0.000307187
7.40793e-11
0.000307187
4.23702e-10
0.000307187
9.08077e-10
0.000307187
1.43612e-09
0.000307187
2.25245e-09
0.000307187
3.13861e-09
4.27865e-09
0.000299262
4.35417e-09
0.000299262
3.25822e-09
0.000299262
2.57931e-09
0.000299263
2.09243e-09
0.000299263
1.66935e-09
0.000299263
1.32278e-09
0.000299263
1.02163e-09
0.000299263
7.58471e-10
0.000299263
5.29567e-10
0.000299263
3.3128e-10
0.000299263
1.61278e-10
0.000299263
1.7332e-11
0.000299263
-1.0271e-10
0.000299263
-2.00974e-10
0.000299263
-2.79648e-10
0.000299263
-3.40645e-10
0.000299263
-3.86697e-10
0.000299263
-4.17207e-10
0.000299263
-4.46352e-10
0.000299263
-4.45986e-10
0.000299263
-5.41147e-10
0.000299263
-6.60855e-10
0.000299263
-7.79336e-10
0.000299263
-8.62135e-10
0.000299263
-7.37954e-10
0.000299263
-5.37982e-10
0.000299263
-3.35754e-10
0.000299264
-1.60944e-10
0.000299264
-2.11533e-11
0.000299264
8.93263e-11
0.000299264
1.78092e-10
0.000299264
2.51475e-10
0.000299264
3.13925e-10
0.000299265
3.68374e-10
0.000299265
4.16745e-10
0.000299265
4.6028e-10
0.000299265
4.99746e-10
0.000299265
5.35542e-10
0.000299265
5.67744e-10
0.000299265
5.96142e-10
0.000299265
6.20271e-10
0.000299265
6.39456e-10
0.000299265
6.52893e-10
0.000299265
6.59742e-10
0.000299265
6.59259e-10
0.000299265
6.50915e-10
0.000299265
6.34512e-10
0.000299265
6.10242e-10
0.000299265
5.78683e-10
0.000299265
5.4073e-10
0.000299265
4.97484e-10
0.000299265
4.50147e-10
0.000299265
3.99926e-10
0.000299265
3.47954e-10
0.000299265
2.95246e-10
0.000299265
2.42667e-10
0.000299265
1.90922e-10
0.000299265
1.40558e-10
0.000299265
9.19722e-11
0.000299265
4.54263e-11
0.000299265
1.06384e-12
0.000299265
-4.10745e-11
0.000299265
-8.10341e-11
0.000299265
-1.18931e-10
0.000299265
-1.5494e-10
0.000299264
-1.89278e-10
0.000299264
-2.22197e-10
0.000299264
-2.53973e-10
0.000299264
-2.84895e-10
0.000299264
-3.15256e-10
0.000299264
-3.45351e-10
0.000299264
-3.7546e-10
0.000299264
-4.05852e-10
0.000299264
-4.36768e-10
0.000299264
-4.68421e-10
0.000299264
-5.00988e-10
0.000299264
-5.34603e-10
0.000299264
-5.69355e-10
0.000299263
-6.05279e-10
0.000299263
-6.42355e-10
0.000299263
-6.80503e-10
0.000299263
-7.19582e-10
0.000299263
-7.59385e-10
0.000299263
-7.99642e-10
0.000299263
-8.40015e-10
0.000299263
-8.80104e-10
0.000299263
-9.19442e-10
0.000299263
-9.57508e-10
0.000299263
-9.9372e-10
0.000299263
-1.02746e-09
0.000299263
-1.05805e-09
0.000299263
-1.08481e-09
0.000299263
-1.10701e-09
0.000299263
-1.12406e-09
0.000299263
-1.1351e-09
0.000299263
-1.14032e-09
0.000299263
-1.13808e-09
0.000299263
-1.13343e-09
0.000299263
-1.12036e-09
0.000299263
-1.11224e-09
0.000299263
-1.08043e-09
0.000299263
-1.02815e-09
0.000299263
-1.00308e-09
0.000299263
-9.96613e-10
0.000299263
-9.6894e-10
0.000299263
-9.09867e-10
0.000299262
-8.56258e-10
0.000299262
-8.03974e-10
0.000299262
-7.40067e-10
0.000299262
-6.5214e-10
0.000299262
-5.32663e-10
0.000299262
-3.67948e-10
0.000299262
-1.58772e-10
0.000299262
1.22149e-10
0.000299262
4.53014e-10
0.000299262
9.16513e-10
0.000299262
1.41564e-09
0.000299262
2.20231e-09
0.000299262
3.04318e-09
4.15715e-09
0.000291503
4.23166e-09
0.000291503
3.14866e-09
0.000291503
2.50185e-09
0.000291503
2.03295e-09
0.000291503
1.62637e-09
0.000291503
1.29346e-09
0.000291503
1.00266e-09
0.000291503
7.47787e-10
0.000291503
5.25386e-10
0.000291503
3.32209e-10
0.000291503
1.66248e-10
0.000291503
2.54945e-11
0.000291503
-9.20615e-11
0.000291503
-1.88447e-10
0.000291503
-2.65884e-10
0.000291503
-3.26235e-10
0.000291503
-3.72689e-10
0.000291503
-4.04421e-10
0.000291503
-4.36837e-10
0.000291503
-4.44619e-10
0.000291503
-5.3496e-10
0.000291503
-6.5251e-10
0.000291503
-7.79047e-10
0.000291503
-8.86586e-10
0.000291503
-8.21609e-10
0.000291503
-6.80068e-10
0.000291504
-5.12546e-10
0.000291504
-3.49033e-10
0.000291504
-2.04925e-10
0.000291504
-8.22877e-11
0.000291504
2.13267e-11
0.000291505
1.09634e-10
0.000291505
1.85989e-10
0.000291505
2.5298e-10
0.000291505
3.12516e-10
0.000291505
3.65957e-10
0.000291505
4.14233e-10
0.000291505
4.57913e-10
0.000291505
4.97241e-10
0.000291505
5.32167e-10
0.000291505
5.62372e-10
0.000291505
5.87324e-10
0.000291505
6.06345e-10
0.000291505
6.18716e-10
0.000291505
6.2379e-10
0.000291506
6.21113e-10
0.000291506
6.10529e-10
0.000291506
5.92237e-10
0.000291506
5.66789e-10
0.000291506
5.3503e-10
0.000291506
4.97997e-10
0.000291506
4.56825e-10
0.000291506
4.12656e-10
0.000291506
3.66568e-10
0.000291506
3.19529e-10
0.000291505
2.72366e-10
0.000291505
2.25755e-10
0.000291505
1.80224e-10
0.000291505
1.36153e-10
0.000291505
9.37938e-11
0.000291505
5.32804e-11
0.000291505
1.46473e-11
0.000291505
-2.21559e-11
0.000291505
-5.72494e-11
0.000291505
-9.081e-11
0.000291505
-1.23058e-10
0.000291505
-1.54246e-10
0.000291505
-1.84649e-10
0.000291505
-2.14553e-10
0.000291505
-2.44252e-10
0.000291505
-2.74032e-10
0.000291505
-3.0417e-10
0.000291504
-3.34924e-10
0.000291504
-3.66527e-10
0.000291504
-3.99182e-10
0.000291504
-4.33051e-10
0.000291504
-4.68254e-10
0.000291504
-5.04864e-10
0.000291504
-5.42898e-10
0.000291504
-5.82319e-10
0.000291504
-6.23027e-10
0.000291504
-6.64859e-10
0.000291504
-7.07589e-10
0.000291504
-7.50923e-10
0.000291504
-7.94504e-10
0.000291504
-8.3791e-10
0.000291504
-8.80655e-10
0.000291504
-9.22198e-10
0.000291504
-9.61938e-10
0.000291504
-9.9924e-10
0.000291504
-1.0334e-09
0.000291504
-1.06375e-09
0.000291503
-1.08951e-09
0.000291503
-1.11009e-09
0.000291503
-1.12458e-09
0.000291503
-1.13317e-09
0.000291503
-1.13416e-09
0.000291503
-1.13185e-09
0.000291503
-1.12118e-09
0.000291503
-1.11124e-09
0.000291503
-1.07514e-09
0.000291503
-1.01696e-09
0.000291503
-9.80142e-10
0.000291503
-9.59049e-10
0.000291503
-9.20549e-10
0.000291503
-8.5422e-10
0.000291503
-7.9096e-10
0.000291503
-7.28977e-10
0.000291503
-6.58275e-10
0.000291503
-5.67546e-10
0.000291503
-4.49533e-10
0.000291503
-2.89965e-10
0.000291503
-8.97821e-11
0.000291503
1.79111e-10
0.000291503
4.93093e-10
0.000291503
9.36571e-10
0.000291503
1.40709e-09
0.000291503
2.16265e-09
0.000291503
2.95609e-09
4.03949e-09
0.000283906
4.10682e-09
0.000283906
3.04101e-09
0.000283906
2.42899e-09
0.000283906
1.97954e-09
0.000283906
1.59049e-09
0.000283906
1.27153e-09
0.000283906
9.91082e-10
0.000283906
7.44383e-10
0.000283906
5.2836e-10
0.000283906
3.40204e-10
0.000283906
1.78242e-10
0.000283906
4.06732e-11
0.000283906
-7.43736e-11
0.000283906
-1.68837e-10
0.000283906
-2.44968e-10
0.000283906
-3.04597e-10
0.000283906
-3.51281e-10
0.000283906
-3.84117e-10
0.000283906
-4.18996e-10
0.000283906
-4.33657e-10
0.000283906
-5.19394e-10
0.000283906
-6.31579e-10
0.000283906
-7.57253e-10
0.000283906
-8.72679e-10
0.000283906
-8.47598e-10
0.000283906
-7.57106e-10
0.000283906
-6.29948e-10
0.000283906
-4.905e-10
0.000283906
-3.55903e-10
0.000283906
-2.32822e-10
0.000283907
-1.23209e-10
0.000283907
-2.63219e-11
0.000283907
5.94725e-11
0.000283907
1.35877e-10
0.000283907
2.04394e-10
0.000283907
2.66232e-10
0.000283907
3.22301e-10
0.000283907
3.73214e-10
0.000283907
4.1929e-10
0.000283907
4.60567e-10
0.000283908
4.96822e-10
0.000283908
5.2762e-10
0.000283908
5.5238e-10
0.000283908
5.70468e-10
0.000283908
5.81315e-10
0.000283908
5.84523e-10
0.000283908
5.79964e-10
0.000283908
5.67835e-10
0.000283908
5.4866e-10
0.000283908
5.23232e-10
0.000283908
4.92526e-10
0.000283908
4.57613e-10
0.000283908
4.19571e-10
0.000283908
3.79424e-10
0.000283908
3.38094e-10
0.000283908
2.96374e-10
0.000283908
2.54913e-10
0.000283908
2.14216e-10
0.000283908
1.74649e-10
0.000283908
1.36454e-10
0.000283908
9.97577e-11
0.000283908
6.45879e-11
0.000283907
3.08908e-11
0.000283907
-1.45649e-12
0.000283907
-3.26318e-11
0.000283907
-6.28556e-11
0.000283907
-9.23793e-11
0.000283907
-1.21475e-10
0.000283907
-1.50427e-10
0.000283907
-1.79521e-10
0.000283907
-2.09037e-10
0.000283907
-2.39245e-10
0.000283907
-2.70392e-10
0.000283907
-3.02702e-10
0.000283907
-3.36362e-10
0.000283907
-3.71523e-10
0.000283907
-4.08288e-10
0.000283907
-4.46713e-10
0.000283907
-4.86799e-10
0.000283906
-5.28488e-10
0.000283906
-5.7166e-10
0.000283906
-6.16134e-10
0.000283906
-6.6166e-10
0.000283906
-7.07926e-10
0.000283906
-7.54551e-10
0.000283906
-8.01093e-10
0.000283906
-8.47048e-10
0.000283906
-8.91855e-10
0.000283906
-9.34894e-10
0.000283906
-9.75516e-10
0.000283906
-1.013e-09
0.000283906
-1.04666e-09
0.000283906
-1.07569e-09
0.000283906
-1.0995e-09
0.000283906
-1.11712e-09
0.000283906
-1.12874e-09
0.000283906
-1.13259e-09
0.000283906
-1.13234e-09
0.000283906
-1.12339e-09
0.000283906
-1.11273e-09
0.000283906
-1.07626e-09
0.000283906
-1.01729e-09
0.000283906
-9.7298e-10
0.000283906
-9.39266e-10
0.000283906
-8.9033e-10
0.000283906
-8.16628e-10
0.000283906
-7.43854e-10
0.000283906
-6.71483e-10
0.000283906
-5.91923e-10
0.000283906
-4.95211e-10
0.000283906
-3.7493e-10
0.000283906
-2.16764e-10
0.000283905
-2.21418e-11
0.000283905
2.37585e-10
0.000283905
5.37012e-10
0.000283905
9.61866e-10
0.000283905
1.40473e-09
0.000283905
2.12832e-09
0.000283905
2.87295e-09
3.92158e-09
0.000276467
3.97606e-09
0.000276467
2.93192e-09
0.000276467
2.35742e-09
0.000276467
1.92906e-09
0.000276467
1.55878e-09
0.000276467
1.25436e-09
0.000276467
9.84502e-10
0.000276467
7.46071e-10
0.000276467
5.36447e-10
0.000276467
3.53333e-10
0.000276467
1.95405e-10
0.000276467
6.10832e-11
0.000276467
-5.13717e-11
0.000276467
-1.43812e-10
0.000276467
-2.18519e-10
0.000276467
-2.77296e-10
0.000276467
-3.23995e-10
0.000276467
-3.57735e-10
0.000276467
-3.94405e-10
0.000276467
-4.14641e-10
0.000276467
-4.9622e-10
0.000276467
-6.01777e-10
0.000276467
-7.22183e-10
0.000276467
-8.35091e-10
0.000276467
-8.3384e-10
0.000276467
-7.83229e-10
0.000276467
-6.93978e-10
0.000276467
-5.8342e-10
0.000276467
-4.66789e-10
0.000276467
-3.52332e-10
0.000276467
-2.44816e-10
0.000276467
-1.45978e-10
0.000276468
-5.596e-11
0.000276468
2.5823e-11
0.000276468
1.00224e-10
0.000276468
1.68096e-10
0.000276468
2.30168e-10
0.000276468
2.86972e-10
0.000276468
3.38807e-10
0.000276468
3.85721e-10
0.000276468
4.27526e-10
0.000276468
4.63832e-10
0.000276468
4.9411e-10
0.000276468
5.17782e-10
0.000276469
5.34325e-10
0.000276469
5.43374e-10
0.000276469
5.44813e-10
0.000276469
5.38827e-10
0.000276469
5.25903e-10
0.000276469
5.06777e-10
0.000276469
4.82365e-10
0.000276469
4.53669e-10
0.000276469
4.21707e-10
0.000276469
3.8745e-10
0.000276469
3.51774e-10
0.000276469
3.15435e-10
0.000276469
2.79056e-10
0.000276469
2.43121e-10
0.000276469
2.07984e-10
0.000276468
1.73873e-10
0.000276468
1.40908e-10
0.000276468
1.09113e-10
0.000276468
7.84306e-11
0.000276468
4.87364e-11
0.000276468
1.98524e-11
0.000276468
-8.44025e-12
0.000276468
-3.63902e-11
0.000276468
-6.42653e-11
0.000276468
-9.23434e-11
0.000276468
-1.20904e-10
0.000276468
-1.50218e-10
0.000276468
-1.80546e-10
0.000276468
-2.12123e-10
0.000276468
-2.45161e-10
0.000276468
-2.79833e-10
0.000276468
-3.16275e-10
0.000276468
-3.54575e-10
0.000276468
-3.9477e-10
0.000276467
-4.36844e-10
0.000276467
-4.80719e-10
0.000276467
-5.26257e-10
0.000276467
-5.73253e-10
0.000276467
-6.2144e-10
0.000276467
-6.70481e-10
0.000276467
-7.19978e-10
0.000276467
-7.69467e-10
0.000276467
-8.18424e-10
0.000276467
-8.66272e-10
0.000276467
-9.12373e-10
0.000276467
-9.56062e-10
0.000276467
-9.966e-10
0.000276467
-1.03329e-09
0.000276467
-1.0653e-09
0.000276467
-1.09204e-09
0.000276467
-1.11247e-09
0.000276467
-1.12677e-09
0.000276467
-1.13308e-09
0.000276467
-1.13462e-09
0.000276467
-1.12694e-09
0.000276467
-1.11593e-09
0.000276467
-1.08088e-09
0.000276467
-1.02439e-09
0.000276467
-9.76637e-10
0.000276467
-9.33422e-10
0.000276467
-8.75547e-10
0.000276467
-7.95043e-10
0.000276467
-7.13483e-10
0.000276467
-6.31036e-10
0.000276467
-5.41947e-10
0.000276467
-4.37544e-10
0.000276467
-3.1252e-10
0.000276467
-1.52913e-10
0.000276467
3.90459e-11
0.000276467
2.92238e-10
0.000276467
5.79454e-10
0.000276467
9.87251e-10
0.000276467
1.40375e-09
0.000276467
2.09487e-09
0.000276467
2.78985e-09
3.79974e-09
0.000269184
3.83637e-09
0.000269184
2.81862e-09
0.000269184
2.28428e-09
0.000269184
1.87866e-09
0.000269184
1.52852e-09
0.000269184
1.23931e-09
0.000269184
9.80487e-10
0.000269184
7.50577e-10
0.000269184
5.47511e-10
0.000269184
3.69567e-10
0.000269184
2.158e-10
0.000269184
8.48558e-11
0.000269184
-2.48641e-11
0.000269184
-1.15129e-10
0.000269184
-1.88241e-10
0.000269184
-2.45989e-10
0.000269184
-2.92447e-10
0.000269184
-3.26827e-10
0.000269184
-3.64708e-10
0.000269183
-3.89295e-10
0.000269183
-4.67124e-10
0.000269183
-5.65721e-10
0.000269183
-6.79028e-10
0.000269183
-7.83473e-10
0.000269183
-7.94163e-10
0.000269183
-7.72542e-10
0.000269183
-7.14993e-10
0.000269183
-6.32696e-10
0.000269183
-5.37531e-10
0.000269184
-4.37286e-10
0.000269184
-3.37969e-10
0.000269184
-2.4291e-10
0.000269184
-1.53661e-10
0.000269184
-7.0684e-11
0.000269184
6.16886e-12
0.000269184
7.72977e-11
0.000269184
1.43147e-10
0.000269184
2.04073e-10
0.000269184
2.60268e-10
0.000269184
3.11723e-10
0.000269184
3.58222e-10
0.000269185
3.99369e-10
0.000269185
4.34647e-10
0.000269185
4.63494e-10
0.000269185
4.85405e-10
0.000269185
5.00023e-10
0.000269185
5.07225e-10
0.000269185
5.0717e-10