/*--------------------------------*- C++ -*----------------------------------*\
  =========                 |
  \\      /  F ield         | OpenFOAM: The Open Source CFD Toolbox
   \\    /   O peration     | Website:  https://openfoam.org
    \\  /    A nd           | Version:  7
     \\/     M anipulation  |
\*---------------------------------------------------------------------------*/
FoamFile
{
    version     2.0;
    format      ascii;
    class       volScalarField;
    location    "15500";
    object      k;
}
// * * * * * * * * * * * * * * * * * * * * * * * * * * * * * * * * * * * * * //

dimensions      [0 2 -2 0 0 0 0];

internalField   nonuniform List<scalar> 
4000
(
8.94999e-05
8.95e-05
8.95001e-05
8.95003e-05
8.95004e-05
8.95005e-05
8.95006e-05
8.95007e-05
8.95008e-05
8.95009e-05
8.9501e-05
8.95011e-05
8.95012e-05
8.95012e-05
8.95013e-05
8.95014e-05
8.95014e-05
8.95015e-05
8.95015e-05
8.95016e-05
8.95016e-05
8.95016e-05
8.95017e-05
8.95017e-05
8.95017e-05
8.95018e-05
8.95018e-05
8.95018e-05
8.95018e-05
8.95018e-05
8.95018e-05
8.95018e-05
8.95018e-05
8.95018e-05
8.95018e-05
8.95018e-05
8.95018e-05
8.95018e-05
8.95018e-05
8.95018e-05
8.95018e-05
8.95018e-05
8.95018e-05
8.95017e-05
8.95017e-05
8.95018e-05
8.95019e-05
8.95019e-05
8.9502e-05
8.95021e-05
8.95022e-05
8.95023e-05
8.95024e-05
8.95024e-05
8.95025e-05
8.95026e-05
8.95026e-05
8.95027e-05
8.95027e-05
8.95028e-05
8.95028e-05
8.95029e-05
8.95029e-05
8.9503e-05
8.9503e-05
8.9503e-05
8.95031e-05
8.95031e-05
8.95031e-05
8.95031e-05
8.95031e-05
8.95031e-05
8.95031e-05
8.95031e-05
8.95031e-05
8.95031e-05
8.95031e-05
8.95031e-05
8.95031e-05
8.9503e-05
8.9503e-05
8.9503e-05
8.95029e-05
8.95029e-05
8.95028e-05
8.95028e-05
8.95027e-05
8.95026e-05
8.95026e-05
8.95025e-05
8.95024e-05
8.95023e-05
8.95022e-05
8.95021e-05
8.9502e-05
8.95019e-05
8.95018e-05
8.95017e-05
8.95016e-05
8.95015e-05
8.95013e-05
8.95012e-05
8.9501e-05
8.95009e-05
8.95008e-05
8.95008e-05
8.95007e-05
8.95007e-05
8.95006e-05
8.95006e-05
8.95005e-05
8.95004e-05
8.95004e-05
8.95003e-05
8.95002e-05
8.95001e-05
8.95e-05
8.94999e-05
8.94998e-05
8.94997e-05
8.96063e-05
8.96064e-05
8.96066e-05
8.96067e-05
8.96068e-05
8.9607e-05
8.96071e-05
8.96072e-05
8.96073e-05
8.96074e-05
8.96075e-05
8.96075e-05
8.96076e-05
8.96077e-05
8.96078e-05
8.96078e-05
8.96079e-05
8.9608e-05
8.9608e-05
8.96081e-05
8.96081e-05
8.96082e-05
8.96082e-05
8.96083e-05
8.96083e-05
8.96083e-05
8.96084e-05
8.96084e-05
8.96084e-05
8.96085e-05
8.96085e-05
8.96085e-05
8.96085e-05
8.96086e-05
8.96086e-05
8.96086e-05
8.96086e-05
8.96086e-05
8.96086e-05
8.96086e-05
8.96086e-05
8.96086e-05
8.96086e-05
8.96086e-05
8.96086e-05
8.96086e-05
8.96087e-05
8.96087e-05
8.96088e-05
8.96089e-05
8.9609e-05
8.9609e-05
8.96091e-05
8.96092e-05
8.96092e-05
8.96093e-05
8.96094e-05
8.96094e-05
8.96095e-05
8.96095e-05
8.96096e-05
8.96096e-05
8.96097e-05
8.96097e-05
8.96097e-05
8.96098e-05
8.96098e-05
8.96098e-05
8.96098e-05
8.96098e-05
8.96099e-05
8.96099e-05
8.96099e-05
8.96099e-05
8.96099e-05
8.96098e-05
8.96098e-05
8.96098e-05
8.96098e-05
8.96098e-05
8.96097e-05
8.96097e-05
8.96096e-05
8.96096e-05
8.96095e-05
8.96095e-05
8.96094e-05
8.96094e-05
8.96093e-05
8.96092e-05
8.96091e-05
8.9609e-05
8.9609e-05
8.96089e-05
8.96088e-05
8.96087e-05
8.96086e-05
8.96084e-05
8.96083e-05
8.96082e-05
8.96081e-05
8.96079e-05
8.96078e-05
8.96077e-05
8.96075e-05
8.96074e-05
8.96074e-05
8.96073e-05
8.96072e-05
8.96071e-05
8.96071e-05
8.9607e-05
8.96069e-05
8.96068e-05
8.96067e-05
8.96066e-05
8.96065e-05
8.96064e-05
8.96063e-05
8.96062e-05
8.97878e-05
8.97879e-05
8.97881e-05
8.97882e-05
8.97883e-05
8.97884e-05
8.97885e-05
8.97886e-05
8.97888e-05
8.97889e-05
8.97889e-05
8.9789e-05
8.97891e-05
8.97892e-05
8.97893e-05
8.97894e-05
8.97894e-05
8.97895e-05
8.97896e-05
8.97897e-05
8.97897e-05
8.97898e-05
8.97898e-05
8.97899e-05
8.979e-05
8.979e-05
8.97901e-05
8.97901e-05
8.97901e-05
8.97902e-05
8.97902e-05
8.97903e-05
8.97903e-05
8.97903e-05
8.97904e-05
8.97904e-05
8.97904e-05
8.97905e-05
8.97905e-05
8.97905e-05
8.97905e-05
8.97906e-05
8.97906e-05
8.97906e-05
8.97906e-05
8.97906e-05
8.97906e-05
8.97907e-05
8.97907e-05
8.97908e-05
8.97908e-05
8.97909e-05
8.9791e-05
8.9791e-05
8.97911e-05
8.97912e-05
8.97912e-05
8.97913e-05
8.97913e-05
8.97914e-05
8.97914e-05
8.97915e-05
8.97915e-05
8.97916e-05
8.97916e-05
8.97916e-05
8.97916e-05
8.97917e-05
8.97917e-05
8.97917e-05
8.97917e-05
8.97917e-05
8.97917e-05
8.97917e-05
8.97917e-05
8.97917e-05
8.97916e-05
8.97916e-05
8.97916e-05
8.97916e-05
8.97915e-05
8.97915e-05
8.97914e-05
8.97914e-05
8.97913e-05
8.97913e-05
8.97912e-05
8.97912e-05
8.97911e-05
8.9791e-05
8.97909e-05
8.97908e-05
8.97908e-05
8.97907e-05
8.97906e-05
8.97905e-05
8.97903e-05
8.97902e-05
8.97901e-05
8.979e-05
8.97899e-05
8.97897e-05
8.97896e-05
8.97895e-05
8.97893e-05
8.97892e-05
8.97891e-05
8.9789e-05
8.97889e-05
8.97888e-05
8.97887e-05
8.97886e-05
8.97885e-05
8.97884e-05
8.97883e-05
8.97881e-05
8.9788e-05
8.97879e-05
8.97878e-05
8.97877e-05
9.00402e-05
9.00403e-05
9.00404e-05
9.00405e-05
9.00406e-05
9.00408e-05
9.00409e-05
9.0041e-05
9.00411e-05
9.00412e-05
9.00413e-05
9.00414e-05
9.00415e-05
9.00416e-05
9.00417e-05
9.00418e-05
9.00419e-05
9.0042e-05
9.0042e-05
9.00421e-05
9.00422e-05
9.00423e-05
9.00424e-05
9.00424e-05
9.00425e-05
9.00426e-05
9.00426e-05
9.00427e-05
9.00428e-05
9.00428e-05
9.00429e-05
9.0043e-05
9.0043e-05
9.00431e-05
9.00431e-05
9.00432e-05
9.00432e-05
9.00433e-05
9.00433e-05
9.00433e-05
9.00434e-05
9.00434e-05
9.00434e-05
9.00435e-05
9.00435e-05
9.00435e-05
9.00435e-05
9.00436e-05
9.00436e-05
9.00437e-05
9.00437e-05
9.00438e-05
9.00438e-05
9.00439e-05
9.00439e-05
9.0044e-05
9.00441e-05
9.00441e-05
9.00442e-05
9.00442e-05
9.00442e-05
9.00443e-05
9.00443e-05
9.00443e-05
9.00444e-05
9.00444e-05
9.00444e-05
9.00444e-05
9.00444e-05
9.00444e-05
9.00444e-05
9.00444e-05
9.00444e-05
9.00444e-05
9.00444e-05
9.00444e-05
9.00444e-05
9.00443e-05
9.00443e-05
9.00443e-05
9.00442e-05
9.00442e-05
9.00441e-05
9.00441e-05
9.0044e-05
9.0044e-05
9.00439e-05
9.00438e-05
9.00438e-05
9.00437e-05
9.00436e-05
9.00435e-05
9.00434e-05
9.00433e-05
9.00432e-05
9.00431e-05
9.0043e-05
9.00429e-05
9.00428e-05
9.00426e-05
9.00425e-05
9.00424e-05
9.00422e-05
9.00421e-05
9.0042e-05
9.00418e-05
9.00417e-05
9.00415e-05
9.00414e-05
9.00413e-05
9.00412e-05
9.0041e-05
9.00409e-05
9.00408e-05
9.00407e-05
9.00406e-05
9.00404e-05
9.00403e-05
9.00402e-05
9.00401e-05
9.03598e-05
9.03599e-05
9.036e-05
9.03601e-05
9.03603e-05
9.03604e-05
9.03605e-05
9.03606e-05
9.03607e-05
9.03608e-05
9.0361e-05
9.03611e-05
9.03612e-05
9.03613e-05
9.03614e-05
9.03615e-05
9.03616e-05
9.03617e-05
9.03618e-05
9.03619e-05
9.0362e-05
9.03621e-05
9.03622e-05
9.03623e-05
9.03624e-05
9.03625e-05
9.03625e-05
9.03626e-05
9.03627e-05
9.03628e-05
9.03629e-05
9.0363e-05
9.0363e-05
9.03631e-05
9.03632e-05
9.03632e-05
9.03633e-05
9.03634e-05
9.03634e-05
9.03635e-05
9.03635e-05
9.03636e-05
9.03636e-05
9.03637e-05
9.03637e-05
9.03638e-05
9.03638e-05
9.03638e-05
9.03639e-05
9.03639e-05
9.0364e-05
9.0364e-05
9.0364e-05
9.03641e-05
9.03641e-05
9.03642e-05
9.03642e-05
9.03643e-05
9.03643e-05
9.03644e-05
9.03644e-05
9.03644e-05
9.03644e-05
9.03645e-05
9.03645e-05
9.03645e-05
9.03645e-05
9.03645e-05
9.03645e-05
9.03645e-05
9.03645e-05
9.03645e-05
9.03645e-05
9.03645e-05
9.03645e-05
9.03644e-05
9.03644e-05
9.03644e-05
9.03643e-05
9.03643e-05
9.03642e-05
9.03642e-05
9.03641e-05
9.03641e-05
9.0364e-05
9.03639e-05
9.03639e-05
9.03638e-05
9.03637e-05
9.03636e-05
9.03635e-05
9.03634e-05
9.03633e-05
9.03632e-05
9.03631e-05
9.0363e-05
9.03629e-05
9.03628e-05
9.03627e-05
9.03625e-05
9.03624e-05
9.03623e-05
9.03621e-05
9.0362e-05
9.03618e-05
9.03617e-05
9.03615e-05
9.03614e-05
9.03612e-05
9.03611e-05
9.03609e-05
9.03608e-05
9.03607e-05
9.03605e-05
9.03604e-05
9.03602e-05
9.03601e-05
9.036e-05
9.03598e-05
9.03597e-05
9.07436e-05
9.07437e-05
9.07438e-05
9.07439e-05
9.07441e-05
9.07442e-05
9.07443e-05
9.07444e-05
9.07445e-05
9.07447e-05
9.07448e-05
9.07449e-05
9.0745e-05
9.07452e-05
9.07453e-05
9.07454e-05
9.07455e-05
9.07456e-05
9.07458e-05
9.07459e-05
9.0746e-05
9.07461e-05
9.07462e-05
9.07463e-05
9.07465e-05
9.07466e-05
9.07467e-05
9.07468e-05
9.07469e-05
9.0747e-05
9.07471e-05
9.07472e-05
9.07473e-05
9.07474e-05
9.07475e-05
9.07476e-05
9.07476e-05
9.07477e-05
9.07478e-05
9.07479e-05
9.07479e-05
9.0748e-05
9.07481e-05
9.07481e-05
9.07482e-05
9.07482e-05
9.07483e-05
9.07483e-05
9.07484e-05
9.07484e-05
9.07484e-05
9.07485e-05
9.07485e-05
9.07485e-05
9.07486e-05
9.07486e-05
9.07487e-05
9.07487e-05
9.07487e-05
9.07487e-05
9.07488e-05
9.07488e-05
9.07488e-05
9.07488e-05
9.07488e-05
9.07488e-05
9.07488e-05
9.07488e-05
9.07488e-05
9.07488e-05
9.07488e-05
9.07488e-05
9.07488e-05
9.07487e-05
9.07487e-05
9.07487e-05
9.07486e-05
9.07486e-05
9.07485e-05
9.07485e-05
9.07484e-05
9.07484e-05
9.07483e-05
9.07482e-05
9.07482e-05
9.07481e-05
9.0748e-05
9.07479e-05
9.07478e-05
9.07477e-05
9.07476e-05
9.07475e-05
9.07474e-05
9.07473e-05
9.07472e-05
9.07471e-05
9.0747e-05
9.07469e-05
9.07467e-05
9.07466e-05
9.07465e-05
9.07463e-05
9.07462e-05
9.0746e-05
9.07459e-05
9.07457e-05
9.07455e-05
9.07454e-05
9.07452e-05
9.0745e-05
9.07449e-05
9.07447e-05
9.07446e-05
9.07444e-05
9.07442e-05
9.07441e-05
9.07439e-05
9.07438e-05
9.07436e-05
9.07435e-05
9.11889e-05
9.1189e-05
9.11891e-05
9.11892e-05
9.11894e-05
9.11895e-05
9.11896e-05
9.11898e-05
9.11899e-05
9.119e-05
9.11902e-05
9.11903e-05
9.11904e-05
9.11906e-05
9.11907e-05
9.11909e-05
9.1191e-05
9.11911e-05
9.11913e-05
9.11914e-05
9.11916e-05
9.11917e-05
9.11918e-05
9.1192e-05
9.11921e-05
9.11922e-05
9.11924e-05
9.11925e-05
9.11926e-05
9.11927e-05
9.11929e-05
9.1193e-05
9.11931e-05
9.11932e-05
9.11933e-05
9.11934e-05
9.11935e-05
9.11936e-05
9.11937e-05
9.11938e-05
9.11939e-05
9.1194e-05
9.11941e-05
9.11941e-05
9.11942e-05
9.11943e-05
9.11943e-05
9.11944e-05
9.11944e-05
9.11944e-05
9.11945e-05
9.11945e-05
9.11945e-05
9.11946e-05
9.11946e-05
9.11946e-05
9.11946e-05
9.11947e-05
9.11947e-05
9.11947e-05
9.11947e-05
9.11947e-05
9.11947e-05
9.11947e-05
9.11947e-05
9.11947e-05
9.11947e-05
9.11947e-05
9.11947e-05
9.11947e-05
9.11946e-05
9.11946e-05
9.11946e-05
9.11945e-05
9.11945e-05
9.11944e-05
9.11944e-05
9.11943e-05
9.11943e-05
9.11942e-05
9.11941e-05
9.11941e-05
9.1194e-05
9.11939e-05
9.11938e-05
9.11937e-05
9.11937e-05
9.11936e-05
9.11935e-05
9.11934e-05
9.11932e-05
9.11931e-05
9.1193e-05
9.11929e-05
9.11928e-05
9.11927e-05
9.11925e-05
9.11924e-05
9.11923e-05
9.11921e-05
9.1192e-05
9.11918e-05
9.11917e-05
9.11915e-05
9.11913e-05
9.11912e-05
9.1191e-05
9.11908e-05
9.11907e-05
9.11905e-05
9.11903e-05
9.11901e-05
9.119e-05
9.11898e-05
9.11896e-05
9.11894e-05
9.11893e-05
9.11891e-05
9.11889e-05
9.11888e-05
9.16934e-05
9.16935e-05
9.16936e-05
9.16938e-05
9.16939e-05
9.1694e-05
9.16942e-05
9.16943e-05
9.16945e-05
9.16946e-05
9.16948e-05
9.16949e-05
9.16951e-05
9.16953e-05
9.16954e-05
9.16956e-05
9.16957e-05
9.16959e-05
9.16961e-05
9.16962e-05
9.16964e-05
9.16966e-05
9.16967e-05
9.16969e-05
9.1697e-05
9.16972e-05
9.16973e-05
9.16975e-05
9.16976e-05
9.16978e-05
9.16979e-05
9.16981e-05
9.16982e-05
9.16983e-05
9.16985e-05
9.16986e-05
9.16987e-05
9.16988e-05
9.16989e-05
9.1699e-05
9.16991e-05
9.16992e-05
9.16993e-05
9.16994e-05
9.16995e-05
9.16995e-05
9.16996e-05
9.16997e-05
9.16997e-05
9.16997e-05
9.16998e-05
9.16998e-05
9.16998e-05
9.16998e-05
9.16999e-05
9.16999e-05
9.16999e-05
9.16999e-05
9.16999e-05
9.16999e-05
9.16999e-05
9.16999e-05
9.16999e-05
9.16999e-05
9.16999e-05
9.16998e-05
9.16998e-05
9.16998e-05
9.16997e-05
9.16997e-05
9.16997e-05
9.16996e-05
9.16996e-05
9.16995e-05
9.16995e-05
9.16994e-05
9.16993e-05
9.16993e-05
9.16992e-05
9.16991e-05
9.1699e-05
9.1699e-05
9.16989e-05
9.16988e-05
9.16987e-05
9.16986e-05
9.16985e-05
9.16984e-05
9.16983e-05
9.16982e-05
9.1698e-05
9.16979e-05
9.16978e-05
9.16977e-05
9.16975e-05
9.16974e-05
9.16973e-05
9.16971e-05
9.1697e-05
9.16968e-05
9.16967e-05
9.16965e-05
9.16963e-05
9.16962e-05
9.1696e-05
9.16958e-05
9.16957e-05
9.16955e-05
9.16953e-05
9.16951e-05
9.16949e-05
9.16947e-05
9.16945e-05
9.16944e-05
9.16942e-05
9.1694e-05
9.16938e-05
9.16936e-05
9.16935e-05
9.16933e-05
9.22551e-05
9.22553e-05
9.22554e-05
9.22555e-05
9.22557e-05
9.22558e-05
9.2256e-05
9.22562e-05
9.22563e-05
9.22565e-05
9.22567e-05
9.22569e-05
9.2257e-05
9.22572e-05
9.22574e-05
9.22576e-05
9.22578e-05
9.2258e-05
9.22582e-05
9.22584e-05
9.22585e-05
9.22587e-05
9.22589e-05
9.22591e-05
9.22593e-05
9.22594e-05
9.22596e-05
9.22598e-05
9.226e-05
9.22601e-05
9.22603e-05
9.22605e-05
9.22606e-05
9.22608e-05
9.22609e-05
9.22611e-05
9.22612e-05
9.22613e-05
9.22614e-05
9.22616e-05
9.22617e-05
9.22618e-05
9.22619e-05
9.22619e-05
9.2262e-05
9.22621e-05
9.22622e-05
9.22622e-05
9.22622e-05
9.22623e-05
9.22623e-05
9.22623e-05
9.22624e-05
9.22624e-05
9.22624e-05
9.22624e-05
9.22624e-05
9.22624e-05
9.22624e-05
9.22623e-05
9.22623e-05
9.22623e-05
9.22623e-05
9.22623e-05
9.22622e-05
9.22622e-05
9.22621e-05
9.22621e-05
9.22621e-05
9.2262e-05
9.22619e-05
9.22619e-05
9.22618e-05
9.22618e-05
9.22617e-05
9.22616e-05
9.22615e-05
9.22614e-05
9.22614e-05
9.22613e-05
9.22612e-05
9.22611e-05
9.2261e-05
9.22609e-05
9.22608e-05
9.22607e-05
9.22605e-05
9.22604e-05
9.22603e-05
9.22602e-05
9.226e-05
9.22599e-05
9.22598e-05
9.22596e-05
9.22595e-05
9.22593e-05
9.22592e-05
9.2259e-05
9.22589e-05
9.22587e-05
9.22586e-05
9.22584e-05
9.22582e-05
9.2258e-05
9.22579e-05
9.22577e-05
9.22575e-05
9.22573e-05
9.22571e-05
9.22569e-05
9.22567e-05
9.22565e-05
9.22563e-05
9.22562e-05
9.2256e-05
9.22558e-05
9.22556e-05
9.22554e-05
9.22552e-05
9.22551e-05
9.28724e-05
9.28726e-05
9.28727e-05
9.28729e-05
9.2873e-05
9.28732e-05
9.28734e-05
9.28736e-05
9.28738e-05
9.2874e-05
9.28742e-05
9.28744e-05
9.28746e-05
9.28748e-05
9.2875e-05
9.28752e-05
9.28754e-05
9.28756e-05
9.28759e-05
9.28761e-05
9.28763e-05
9.28765e-05
9.28767e-05
9.28769e-05
9.28771e-05
9.28773e-05
9.28775e-05
9.28777e-05
9.28779e-05
9.28781e-05
9.28783e-05
9.28784e-05
9.28786e-05
9.28788e-05
9.28789e-05
9.28791e-05
9.28793e-05
9.28794e-05
9.28795e-05
9.28796e-05
9.28798e-05
9.28799e-05
9.288e-05
9.288e-05
9.28801e-05
9.28802e-05
9.28803e-05
9.28803e-05
9.28803e-05
9.28804e-05
9.28804e-05
9.28804e-05
9.28804e-05
9.28804e-05
9.28804e-05
9.28804e-05
9.28804e-05
9.28804e-05
9.28803e-05
9.28803e-05
9.28803e-05
9.28802e-05
9.28802e-05
9.28802e-05
9.28801e-05
9.28801e-05
9.288e-05
9.28799e-05
9.28799e-05
9.28798e-05
9.28797e-05
9.28796e-05
9.28796e-05
9.28795e-05
9.28794e-05
9.28793e-05
9.28792e-05
9.28791e-05
9.2879e-05
9.28789e-05
9.28788e-05
9.28787e-05
9.28786e-05
9.28785e-05
9.28783e-05
9.28782e-05
9.28781e-05
9.2878e-05
9.28778e-05
9.28777e-05
9.28775e-05
9.28774e-05
9.28772e-05
9.28771e-05
9.28769e-05
9.28768e-05
9.28766e-05
9.28765e-05
9.28763e-05
9.28761e-05
9.2876e-05
9.28758e-05
9.28756e-05
9.28754e-05
9.28752e-05
9.2875e-05
9.28748e-05
9.28746e-05
9.28745e-05
9.28743e-05
9.2874e-05
9.28738e-05
9.28736e-05
9.28734e-05
9.28732e-05
9.2873e-05
9.28729e-05
9.28727e-05
9.28725e-05
9.28723e-05
9.35438e-05
9.35439e-05
9.35441e-05
9.35443e-05
9.35445e-05
9.35447e-05
9.35449e-05
9.35451e-05
9.35453e-05
9.35455e-05
9.35457e-05
9.3546e-05
9.35462e-05
9.35465e-05
9.35467e-05
9.35469e-05
9.35472e-05
9.35474e-05
9.35477e-05
9.35479e-05
9.35481e-05
9.35484e-05
9.35486e-05
9.35488e-05
9.35491e-05
9.35493e-05
9.35495e-05
9.35497e-05
9.35499e-05
9.35502e-05
9.35504e-05
9.35505e-05
9.35507e-05
9.35509e-05
9.35511e-05
9.35513e-05
9.35514e-05
9.35516e-05
9.35517e-05
9.35518e-05
9.35519e-05
9.3552e-05
9.35521e-05
9.35522e-05
9.35523e-05
9.35523e-05
9.35524e-05
9.35524e-05
9.35525e-05
9.35525e-05
9.35525e-05
9.35525e-05
9.35525e-05
9.35525e-05
9.35525e-05
9.35525e-05
9.35524e-05
9.35524e-05
9.35523e-05
9.35523e-05
9.35523e-05
9.35522e-05
9.35521e-05
9.35521e-05
9.3552e-05
9.35519e-05
9.35519e-05
9.35518e-05
9.35517e-05
9.35516e-05
9.35515e-05
9.35514e-05
9.35513e-05
9.35512e-05
9.35511e-05
9.3551e-05
9.35509e-05
9.35508e-05
9.35507e-05
9.35506e-05
9.35504e-05
9.35503e-05
9.35502e-05
9.35501e-05
9.35499e-05
9.35498e-05
9.35496e-05
9.35495e-05
9.35493e-05
9.35492e-05
9.3549e-05
9.35489e-05
9.35487e-05
9.35486e-05
9.35484e-05
9.35482e-05
9.35481e-05
9.35479e-05
9.35477e-05
9.35475e-05
9.35473e-05
9.35472e-05
9.3547e-05
9.35468e-05
9.35466e-05
9.35464e-05
9.35462e-05
9.3546e-05
9.35458e-05
9.35456e-05
9.35454e-05
9.35452e-05
9.3545e-05
9.35448e-05
9.35446e-05
9.35444e-05
9.35442e-05
9.3544e-05
9.35438e-05
9.35437e-05
9.42679e-05
9.4268e-05
9.42682e-05
9.42685e-05
9.42687e-05
9.42689e-05
9.42691e-05
9.42694e-05
9.42696e-05
9.42699e-05
9.42702e-05
9.42704e-05
9.42707e-05
9.4271e-05
9.42712e-05
9.42715e-05
9.42718e-05
9.4272e-05
9.42723e-05
9.42726e-05
9.42728e-05
9.42731e-05
9.42734e-05
9.42736e-05
9.42739e-05
9.42741e-05
9.42744e-05
9.42746e-05
9.42748e-05
9.4275e-05
9.42753e-05
9.42755e-05
9.42757e-05
9.42759e-05
9.4276e-05
9.42762e-05
9.42764e-05
9.42765e-05
9.42766e-05
9.42768e-05
9.42769e-05
9.4277e-05
9.42771e-05
9.42771e-05
9.42772e-05
9.42772e-05
9.42773e-05
9.42773e-05
9.42773e-05
9.42773e-05
9.42773e-05
9.42773e-05
9.42773e-05
9.42773e-05
9.42773e-05
9.42772e-05
9.42772e-05
9.42771e-05
9.42771e-05
9.4277e-05
9.42769e-05
9.42769e-05
9.42768e-05
9.42767e-05
9.42766e-05
9.42765e-05
9.42764e-05
9.42763e-05
9.42762e-05
9.42761e-05
9.4276e-05
9.42759e-05
9.42758e-05
9.42757e-05
9.42756e-05
9.42754e-05
9.42753e-05
9.42752e-05
9.42751e-05
9.42749e-05
9.42748e-05
9.42746e-05
9.42745e-05
9.42744e-05
9.42742e-05
9.42741e-05
9.42739e-05
9.42738e-05
9.42736e-05
9.42734e-05
9.42733e-05
9.42731e-05
9.42729e-05
9.42728e-05
9.42726e-05
9.42724e-05
9.42722e-05
9.4272e-05
9.42718e-05
9.42717e-05
9.42715e-05
9.42713e-05
9.42711e-05
9.42709e-05
9.42707e-05
9.42705e-05
9.42703e-05
9.427e-05
9.42698e-05
9.42696e-05
9.42694e-05
9.42692e-05
9.4269e-05
9.42688e-05
9.42686e-05
9.42684e-05
9.42682e-05
9.4268e-05
9.42679e-05
9.42678e-05
9.50436e-05
9.50438e-05
9.50441e-05
9.50443e-05
9.50446e-05
9.50448e-05
9.50451e-05
9.50454e-05
9.50457e-05
9.5046e-05
9.50463e-05
9.50465e-05
9.50469e-05
9.50472e-05
9.50475e-05
9.50478e-05
9.50481e-05
9.50484e-05
9.50487e-05
9.50489e-05
9.50492e-05
9.50495e-05
9.50498e-05
9.50501e-05
9.50503e-05
9.50506e-05
9.50509e-05
9.50511e-05
9.50514e-05
9.50516e-05
9.50518e-05
9.5052e-05
9.50522e-05
9.50524e-05
9.50526e-05
9.50528e-05
9.5053e-05
9.50531e-05
9.50532e-05
9.50533e-05
9.50534e-05
9.50535e-05
9.50536e-05
9.50536e-05
9.50537e-05
9.50537e-05
9.50537e-05
9.50538e-05
9.50538e-05
9.50538e-05
9.50537e-05
9.50537e-05
9.50537e-05
9.50536e-05
9.50536e-05
9.50535e-05
9.50535e-05
9.50534e-05
9.50533e-05
9.50532e-05
9.50531e-05
9.50531e-05
9.5053e-05
9.50529e-05
9.50528e-05
9.50527e-05
9.50525e-05
9.50524e-05
9.50523e-05
9.50522e-05
9.50521e-05
9.5052e-05
9.50518e-05
9.50517e-05
9.50516e-05
9.50514e-05
9.50513e-05
9.50511e-05
9.5051e-05
9.50508e-05
9.50507e-05
9.50505e-05
9.50504e-05
9.50502e-05
9.50501e-05
9.50499e-05
9.50497e-05
9.50496e-05
9.50494e-05
9.50492e-05
9.5049e-05
9.50489e-05
9.50487e-05
9.50485e-05
9.50483e-05
9.50481e-05
9.50479e-05
9.50477e-05
9.50475e-05
9.50473e-05
9.50471e-05
9.50469e-05
9.50467e-05
9.50465e-05
9.50463e-05
9.50461e-05
9.50459e-05
9.50457e-05
9.50455e-05
9.50453e-05
9.50451e-05
9.50448e-05
9.50446e-05
9.50444e-05
9.50443e-05
9.50441e-05
9.50439e-05
9.50437e-05
9.50436e-05
9.50435e-05
9.587e-05
9.58703e-05
9.58705e-05
9.58708e-05
9.58711e-05
9.58714e-05
9.58717e-05
9.5872e-05
9.58724e-05
9.58727e-05
9.5873e-05
9.58733e-05
9.58737e-05
9.5874e-05
9.58744e-05
9.58747e-05
9.5875e-05
9.58753e-05
9.58757e-05
9.5876e-05
9.58763e-05
9.58766e-05
9.58769e-05
9.58772e-05
9.58775e-05
9.58777e-05
9.5878e-05
9.58783e-05
9.58785e-05
9.58788e-05
9.5879e-05
9.58792e-05
9.58794e-05
9.58796e-05
9.58798e-05
9.588e-05
9.58801e-05
9.58803e-05
9.58804e-05
9.58805e-05
9.58806e-05
9.58806e-05
9.58807e-05
9.58807e-05
9.58807e-05
9.58807e-05
9.58807e-05
9.58807e-05
9.58807e-05
9.58807e-05
9.58806e-05
9.58806e-05
9.58805e-05
9.58805e-05
9.58804e-05
9.58803e-05
9.58803e-05
9.58802e-05
9.58801e-05
9.588e-05
9.58799e-05
9.58798e-05
9.58797e-05
9.58795e-05
9.58794e-05
9.58793e-05
9.58792e-05
9.58791e-05
9.58789e-05
9.58788e-05
9.58787e-05
9.58785e-05
9.58784e-05
9.58782e-05
9.58781e-05
9.58779e-05
9.58778e-05
9.58776e-05
9.58775e-05
9.58773e-05
9.58771e-05
9.5877e-05
9.58768e-05
9.58766e-05
9.58765e-05
9.58763e-05
9.58761e-05
9.58759e-05
9.58757e-05
9.58756e-05
9.58754e-05
9.58752e-05
9.5875e-05
9.58748e-05
9.58746e-05
9.58744e-05
9.58742e-05
9.5874e-05
9.58738e-05
9.58736e-05
9.58734e-05
9.58732e-05
9.5873e-05
9.58728e-05
9.58725e-05
9.58723e-05
9.58721e-05
9.58719e-05
9.58717e-05
9.58715e-05
9.58713e-05
9.58711e-05
9.58709e-05
9.58707e-05
9.58705e-05
9.58703e-05
9.58702e-05
9.587e-05
9.58699e-05
9.58698e-05
9.67461e-05
9.67464e-05
9.67467e-05
9.6747e-05
9.67474e-05
9.67477e-05
9.67481e-05
9.67484e-05
9.67488e-05
9.67492e-05
9.67495e-05
9.67499e-05
9.67503e-05
9.67506e-05
9.6751e-05
9.67513e-05
9.67517e-05
9.6752e-05
9.67524e-05
9.67527e-05
9.67531e-05
9.67534e-05
9.67537e-05
9.6754e-05
9.67543e-05
9.67546e-05
9.67549e-05
9.67551e-05
9.67554e-05
9.67557e-05
9.67559e-05
9.67561e-05
9.67563e-05
9.67565e-05
9.67567e-05
9.67568e-05
9.67569e-05
9.6757e-05
9.67571e-05
9.67572e-05
9.67573e-05
9.67573e-05
9.67573e-05
9.67574e-05
9.67574e-05
9.67573e-05
9.67573e-05
9.67573e-05
9.67572e-05
9.67572e-05
9.67571e-05
9.67571e-05
9.6757e-05
9.67569e-05
9.67568e-05
9.67567e-05
9.67566e-05
9.67565e-05
9.67564e-05
9.67563e-05
9.67562e-05
9.67561e-05
9.67559e-05
9.67558e-05
9.67557e-05
9.67555e-05
9.67554e-05
9.67552e-05
9.67551e-05
9.6755e-05
9.67548e-05
9.67547e-05
9.67545e-05
9.67543e-05
9.67542e-05
9.6754e-05
9.67539e-05
9.67537e-05
9.67535e-05
9.67534e-05
9.67532e-05
9.6753e-05
9.67528e-05
9.67526e-05
9.67525e-05
9.67523e-05
9.67521e-05
9.67519e-05
9.67517e-05
9.67515e-05
9.67513e-05
9.67511e-05
9.67509e-05
9.67507e-05
9.67505e-05
9.67503e-05
9.67501e-05
9.67499e-05
9.67497e-05
9.67495e-05
9.67493e-05
9.67491e-05
9.67488e-05
9.67486e-05
9.67484e-05
9.67482e-05
9.6748e-05
9.67477e-05
9.67475e-05
9.67473e-05
9.67471e-05
9.67469e-05
9.67467e-05
9.67466e-05
9.67464e-05
9.67463e-05
9.67462e-05
9.6746e-05
9.6746e-05
9.67459e-05
9.76711e-05
9.76714e-05
9.76718e-05
9.76721e-05
9.76725e-05
9.76729e-05
9.76733e-05
9.76737e-05
9.76741e-05
9.76745e-05
9.76749e-05
9.76753e-05
9.76757e-05
9.76761e-05
9.76765e-05
9.76769e-05
9.76772e-05
9.76776e-05
9.7678e-05
9.76783e-05
9.76787e-05
9.7679e-05
9.76793e-05
9.76796e-05
9.768e-05
9.76803e-05
9.76805e-05
9.76808e-05
9.76811e-05
9.76813e-05
9.76815e-05
9.76818e-05
9.76819e-05
9.76821e-05
9.76823e-05
9.76824e-05
9.76825e-05
9.76826e-05
9.76826e-05
9.76827e-05
9.76827e-05
9.76827e-05
9.76827e-05
9.76827e-05
9.76827e-05
9.76826e-05
9.76826e-05
9.76825e-05
9.76825e-05
9.76824e-05
9.76823e-05
9.76822e-05
9.76821e-05
9.7682e-05
9.76819e-05
9.76818e-05
9.76817e-05
9.76816e-05
9.76814e-05
9.76813e-05
9.76812e-05
9.7681e-05
9.76809e-05
9.76807e-05
9.76806e-05
9.76805e-05
9.76803e-05
9.76802e-05
9.768e-05
9.76798e-05
9.76797e-05
9.76795e-05
9.76794e-05
9.76792e-05
9.7679e-05
9.76788e-05
9.76787e-05
9.76785e-05
9.76783e-05
9.76781e-05
9.7678e-05
9.76778e-05
9.76776e-05
9.76774e-05
9.76772e-05
9.7677e-05
9.76768e-05
9.76766e-05
9.76764e-05
9.76762e-05
9.7676e-05
9.76758e-05
9.76756e-05
9.76754e-05
9.76752e-05
9.7675e-05
9.76748e-05
9.76746e-05
9.76744e-05
9.76741e-05
9.76739e-05
9.76737e-05
9.76735e-05
9.76732e-05
9.7673e-05
9.76728e-05
9.76726e-05
9.76724e-05
9.76722e-05
9.7672e-05
9.76718e-05
9.76716e-05
9.76714e-05
9.76713e-05
9.76712e-05
9.76711e-05
9.7671e-05
9.76709e-05
9.76708e-05
9.76708e-05
9.86441e-05
9.86445e-05
9.86449e-05
9.86453e-05
9.86457e-05
9.86461e-05
9.86466e-05
9.8647e-05
9.86474e-05
9.86479e-05
9.86483e-05
9.86487e-05
9.86492e-05
9.86496e-05
9.865e-05
9.86504e-05
9.86508e-05
9.86512e-05
9.86515e-05
9.86519e-05
9.86523e-05
9.86526e-05
9.86529e-05
9.86533e-05
9.86536e-05
9.86539e-05
9.86542e-05
9.86544e-05
9.86547e-05
9.86549e-05
9.86551e-05
9.86553e-05
9.86555e-05
9.86556e-05
9.86557e-05
9.86558e-05
9.86559e-05
9.8656e-05
9.8656e-05
9.8656e-05
9.8656e-05
9.8656e-05
9.86559e-05
9.86559e-05
9.86558e-05
9.86558e-05
9.86557e-05
9.86556e-05
9.86555e-05
9.86554e-05
9.86553e-05
9.86552e-05
9.86551e-05
9.8655e-05
9.86548e-05
9.86547e-05
9.86546e-05
9.86544e-05
9.86543e-05
9.86542e-05
9.8654e-05
9.86539e-05
9.86537e-05
9.86536e-05
9.86534e-05
9.86533e-05
9.86531e-05
9.86529e-05
9.86528e-05
9.86526e-05
9.86524e-05
9.86523e-05
9.86521e-05
9.86519e-05
9.86517e-05
9.86516e-05
9.86514e-05
9.86512e-05
9.8651e-05
9.86508e-05
9.86506e-05
9.86505e-05
9.86503e-05
9.86501e-05
9.86499e-05
9.86497e-05
9.86495e-05
9.86493e-05
9.86491e-05
9.86489e-05
9.86487e-05
9.86485e-05
9.86482e-05
9.8648e-05
9.86478e-05
9.86476e-05
9.86474e-05
9.86472e-05
9.86469e-05
9.86467e-05
9.86465e-05
9.86463e-05
9.86461e-05
9.86458e-05
9.86456e-05
9.86454e-05
9.86452e-05
9.8645e-05
9.86448e-05
9.86446e-05
9.86444e-05
9.86443e-05
9.86441e-05
9.8644e-05
9.8644e-05
9.86439e-05
9.86438e-05
9.86438e-05
9.86438e-05
9.86438e-05
9.96644e-05
9.96648e-05
9.96652e-05
9.96657e-05
9.96661e-05
9.96666e-05
9.96671e-05
9.96675e-05
9.9668e-05
9.96685e-05
9.96689e-05
9.96694e-05
9.96698e-05
9.96702e-05
9.96707e-05
9.96711e-05
9.96715e-05
9.96719e-05
9.96723e-05
9.96726e-05
9.9673e-05
9.96733e-05
9.96737e-05
9.9674e-05
9.96743e-05
9.96746e-05
9.96749e-05
9.96752e-05
9.96754e-05
9.96756e-05
9.96758e-05
9.96759e-05
9.96761e-05
9.96762e-05
9.96763e-05
9.96763e-05
9.96764e-05
9.96764e-05
9.96764e-05
9.96763e-05
9.96763e-05
9.96762e-05
9.96762e-05
9.96761e-05
9.9676e-05
9.96759e-05
9.96758e-05
9.96757e-05
9.96756e-05
9.96755e-05
9.96753e-05
9.96752e-05
9.96751e-05
9.96749e-05
9.96748e-05
9.96747e-05
9.96745e-05
9.96744e-05
9.96742e-05
9.96741e-05
9.96739e-05
9.96738e-05
9.96736e-05
9.96734e-05
9.96733e-05
9.96731e-05
9.96729e-05
9.96728e-05
9.96726e-05
9.96724e-05
9.96723e-05
9.96721e-05
9.96719e-05
9.96717e-05
9.96716e-05
9.96714e-05
9.96712e-05
9.9671e-05
9.96708e-05
9.96706e-05
9.96704e-05
9.96702e-05
9.967e-05
9.96698e-05
9.96696e-05
9.96694e-05
9.96692e-05
9.9669e-05
9.96688e-05
9.96686e-05
9.96684e-05
9.96682e-05
9.9668e-05
9.96678e-05
9.96676e-05
9.96673e-05
9.96671e-05
9.96669e-05
9.96667e-05
9.96665e-05
9.96662e-05
9.9666e-05
9.96658e-05
9.96656e-05
9.96653e-05
9.96651e-05
9.96649e-05
9.96647e-05
9.96645e-05
9.96644e-05
9.96643e-05
9.96641e-05
9.96641e-05
9.9664e-05
9.9664e-05
9.96639e-05
9.96639e-05
9.96639e-05
9.9664e-05
9.9664e-05
0.000100731
0.000100732
0.000100732
0.000100732
0.000100733
0.000100733
0.000100734
0.000100734
0.000100735
0.000100735
0.000100736
0.000100736
0.000100737
0.000100737
0.000100738
0.000100738
0.000100739
0.000100739
0.000100739
0.00010074
0.00010074
0.00010074
0.000100741
0.000100741
0.000100741
0.000100742
0.000100742
0.000100742
0.000100742
0.000100743
0.000100743
0.000100743
0.000100743
0.000100743
0.000100743
0.000100743
0.000100743
0.000100743
0.000100743
0.000100743
0.000100743
0.000100743
0.000100743
0.000100742
0.000100742
0.000100742
0.000100742
0.000100742
0.000100742
0.000100742
0.000100742
0.000100741
0.000100741
0.000100741
0.000100741
0.000100741
0.000100741
0.000100741
0.00010074
0.00010074
0.00010074
0.00010074
0.00010074
0.00010074
0.000100739
0.000100739
0.000100739
0.000100739
0.000100739
0.000100739
0.000100738
0.000100738
0.000100738
0.000100738
0.000100738
0.000100737
0.000100737
0.000100737
0.000100737
0.000100737
0.000100737
0.000100736
0.000100736
0.000100736
0.000100736
0.000100736
0.000100735
0.000100735
0.000100735
0.000100735
0.000100734
0.000100734
0.000100734
0.000100734
0.000100734
0.000100733
0.000100733
0.000100733
0.000100733
0.000100733
0.000100732
0.000100732
0.000100732
0.000100732
0.000100731
0.000100731
0.000100731
0.000100731
0.000100731
0.000100731
0.00010073
0.00010073
0.00010073
0.00010073
0.00010073
0.00010073
0.00010073
0.000100731
0.000100731
0.000100731
0.000101843
0.000101844
0.000101844
0.000101845
0.000101845
0.000101846
0.000101846
0.000101847
0.000101847
0.000101848
0.000101848
0.000101849
0.000101849
0.00010185
0.00010185
0.000101851
0.000101851
0.000101851
0.000101852
0.000101852
0.000101852
0.000101853
0.000101853
0.000101853
0.000101854
0.000101854
0.000101854
0.000101854
0.000101855
0.000101855
0.000101855
0.000101855
0.000101855
0.000101855
0.000101855
0.000101855
0.000101855
0.000101855
0.000101855
0.000101855
0.000101855
0.000101854
0.000101854
0.000101854
0.000101854
0.000101854
0.000101854
0.000101854
0.000101853
0.000101853
0.000101853
0.000101853
0.000101853
0.000101853
0.000101853
0.000101852
0.000101852
0.000101852
0.000101852
0.000101852
0.000101852
0.000101851
0.000101851
0.000101851
0.000101851
0.000101851
0.000101851
0.00010185
0.00010185
0.00010185
0.00010185
0.00010185
0.00010185
0.000101849
0.000101849
0.000101849
0.000101849
0.000101849
0.000101848
0.000101848
0.000101848
0.000101848
0.000101848
0.000101847
0.000101847
0.000101847
0.000101847
0.000101847
0.000101846
0.000101846
0.000101846
0.000101846
0.000101846
0.000101845
0.000101845
0.000101845
0.000101845
0.000101845
0.000101844
0.000101844
0.000101844
0.000101844
0.000101843
0.000101843
0.000101843
0.000101843
0.000101843
0.000101842
0.000101842
0.000101842
0.000101842
0.000101842
0.000101842
0.000101842
0.000101842
0.000101842
0.000101843
0.000101843
0.000101843
0.000101843
0.000103
0.000103001
0.000103001
0.000103002
0.000103002
0.000103003
0.000103003
0.000103004
0.000103004
0.000103005
0.000103005
0.000103006
0.000103006
0.000103007
0.000103007
0.000103008
0.000103008
0.000103008
0.000103009
0.000103009
0.000103009
0.00010301
0.00010301
0.00010301
0.000103011
0.000103011
0.000103011
0.000103011
0.000103011
0.000103011
0.000103011
0.000103011
0.000103011
0.000103011
0.000103011
0.000103011
0.000103011
0.000103011
0.000103011
0.000103011
0.000103011
0.000103011
0.00010301
0.00010301
0.00010301
0.00010301
0.00010301
0.00010301
0.000103009
0.000103009
0.000103009
0.000103009
0.000103009
0.000103009
0.000103009
0.000103008
0.000103008
0.000103008
0.000103008
0.000103008
0.000103008
0.000103007
0.000103007
0.000103007