/*--------------------------------*- C++ -*----------------------------------*\
  =========                 |
  \\      /  F ield         | OpenFOAM: The Open Source CFD Toolbox
   \\    /   O peration     | Website:  https://openfoam.org
    \\  /    A nd           | Version:  7
     \\/     M anipulation  |
\*---------------------------------------------------------------------------*/
FoamFile
{
    version     2.0;
    format      ascii;
    class       surfaceScalarField;
    location    "15500";
    object      phi;
}
// * * * * * * * * * * * * * * * * * * * * * * * * * * * * * * * * * * * * * //

dimensions      [0 3 -1 0 0 0 0];

internalField   nonuniform List<scalar> 
7846
(
0.000740078
-2.42004e-10
0.000740078
-2.89037e-10
0.000740078
-3.17552e-10
0.000740078
-3.40078e-10
0.000740078
-3.602e-10
0.000740078
-3.78805e-10
0.000740078
-3.96115e-10
0.000740078
-4.11875e-10
0.000740078
-4.25959e-10
0.000740078
-4.38512e-10
0.000740078
-4.49556e-10
0.000740078
-4.59081e-10
0.000740078
-4.67258e-10
0.000740078
-4.74151e-10
0.000740078
-4.79759e-10
0.000740078
-4.84266e-10
0.000740078
-4.87821e-10
0.000740078
-4.90565e-10
0.000740078
-4.92492e-10
0.000740078
-4.93556e-10
0.000740078
-4.93797e-10
0.000740078
-4.9307e-10
0.000740078
-4.91391e-10
0.000740078
-4.88709e-10
0.000740078
-4.84858e-10
0.000740077
-4.8004e-10
0.000740077
-4.74457e-10
0.000740077
-4.68152e-10
0.000740077
-4.61384e-10
0.000740077
-4.54354e-10
0.000740077
-4.47049e-10
0.000740077
-4.39592e-10
0.000740077
-4.31916e-10
0.000740077
-4.2376e-10
0.000740077
-4.14782e-10
0.000740077
-4.04307e-10
0.000740077
-3.91463e-10
0.000740077
-3.74962e-10
0.000740077
-3.52779e-10
0.000740077
-3.22071e-10
0.000740077
-2.78549e-10
0.000740076
-2.16095e-10
0.000740076
-1.23677e-10
0.000740076
1.45323e-11
0.000740076
2.2853e-10
0.000740076
4.51871e-10
0.000740076
6.00756e-10
0.000740076
6.93898e-10
0.000740076
7.51621e-10
0.000740076
7.84541e-10
0.000740076
8.00418e-10
0.000740076
8.04442e-10
0.000740076
7.99963e-10
0.000740076
7.8933e-10
0.000740076
7.74441e-10
0.000740076
7.56507e-10
0.000740076
7.36118e-10
0.000740076
7.14044e-10
0.000740076
6.90993e-10
0.000740076
6.67177e-10
0.000740076
6.42812e-10
0.000740076
6.17996e-10
0.000740076
5.92876e-10
0.000740076
5.67667e-10
0.000740076
5.4234e-10
0.000740076
5.16997e-10
0.000740076
4.91793e-10
0.000740076
4.66719e-10
0.000740076
4.41858e-10
0.000740076
4.17208e-10
0.000740076
3.92873e-10
0.000740076
3.68763e-10
0.000740076
3.44688e-10
0.000740076
3.20587e-10
0.000740076
2.96492e-10
0.000740076
2.72436e-10
0.000740076
2.48141e-10
0.000740076
2.23578e-10
0.000740076
1.98602e-10
0.000740076
1.73116e-10
0.000740076
1.47214e-10
0.000740076
1.20752e-10
0.000740076
9.36153e-11
0.000740076
6.57817e-11
0.000740076
3.71905e-11
0.000740076
7.76985e-12
0.000740076
-2.25198e-11
0.000740076
-5.36144e-11
0.000740076
-8.54725e-11
0.000740077
-1.1804e-10
0.000740077
-1.51169e-10
0.000740077
-1.84772e-10
0.000740077
-2.18457e-10
0.000740077
-2.51709e-10
0.000740077
-2.84028e-10
0.000740077
-3.14461e-10
0.000740077
-3.41552e-10
0.000740077
-3.63336e-10
0.000740077
-3.77156e-10
0.000740077
-3.78712e-10
0.000740077
-3.61683e-10
0.000740077
-3.1509e-10
0.000740077
-2.22734e-10
0.000740077
-5.43702e-11
0.000740077
1.23854e-10
0.000740077
2.28567e-10
0.000740078
2.78887e-10
0.000740078
2.95711e-10
0.000740078
2.90092e-10
0.000740078
2.70081e-10
0.000740078
2.41008e-10
0.000740078
2.06588e-10
0.000740078
1.69392e-10
0.000740078
1.31461e-10
0.000740078
9.43965e-11
0.000740078
5.92954e-11
0.000740078
2.69077e-11
0.000740078
-4.29264e-12
0.000740078
-4.82725e-11
-1.43988e-10
0.000723
-2.9753e-10
0.000723
-3.50597e-10
0.000723
-3.69556e-10
0.000723
-3.79288e-10
0.000723
-3.86925e-10
0.000723
-3.94156e-10
0.000723
-4.01286e-10
0.000723
-4.08102e-10
0.000723
-4.14353e-10
0.000723
-4.20053e-10
0.000723
-4.25055e-10
0.000723
-4.29332e-10
0.000723
-4.32994e-10
0.000723
-4.3593e-10
0.000723
-4.38141e-10
0.000722999
-4.39706e-10
0.000722999
-4.40642e-10
0.000722999
-4.4117e-10
0.000722999
-4.41254e-10
0.000722999
-4.40757e-10
0.000722999
-4.39629e-10
0.000722999
-4.37731e-10
0.000722999
-4.35096e-10
0.000722999
-4.31479e-10
0.000722999
-4.26729e-10
0.000722999
-4.21118e-10
0.000722999
-4.14721e-10
0.000722999
-4.07517e-10
0.000722999
-3.99851e-10
0.000722999
-3.91926e-10
0.000722999
-3.8371e-10
0.000722999
-3.75297e-10
0.000722999
-3.66544e-10
0.000722998
-3.57201e-10
0.000722998
-3.46943e-10
0.000722998
-3.34997e-10
0.000722998
-3.20372e-10
0.000722998
-3.01833e-10
0.000722998
-2.77475e-10
0.000722998
-2.44413e-10
0.000722998
-1.98547e-10
0.000722998
-1.34386e-10
0.000722998
-4.27497e-11
0.000722998
8.68516e-11
0.000722998
2.71783e-10
0.000722998
4.66945e-10
0.000722998
6.10458e-10
0.000722998
7.06732e-10
0.000722998
7.68685e-10
0.000722998
8.05318e-10
0.000722998
8.23934e-10
0.000722998
8.29816e-10
0.000722997
8.26444e-10
0.000722997
8.16207e-10
0.000722997
8.01145e-10
0.000722997
7.82495e-10
0.000722997
7.60941e-10
0.000722997
7.37368e-10
0.000722997
7.12482e-10
0.000722997
6.86564e-10
0.000722997
6.5993e-10
0.000722997
6.32634e-10
0.000722997
6.04901e-10
0.000722997
5.76952e-10
0.000722997
5.48755e-10
0.000722997
5.20498e-10
0.000722997
4.92287e-10
0.000722997
4.64125e-10
0.000722997
4.36155e-10
0.000722997
4.08354e-10
0.000722997
3.80807e-10
0.000722997
3.5348e-10
0.000722997
3.26208e-10
0.000722997
2.98891e-10
0.000722997
2.71604e-10
0.000722997
2.44399e-10
0.000722997
2.16987e-10
0.000722997
1.89373e-10
0.000722998
1.61398e-10
0.000722998
1.32985e-10
0.000722998
1.04247e-10
0.000722998
7.50426e-11
0.000722998
4.5279e-11
0.000722998
1.4968e-11
0.000722998
-1.59238e-11
0.000722998
-4.74581e-11
0.000722998
-7.96609e-11
0.000722998
-1.1244e-10
0.000722998
-1.45696e-10
0.000722998
-1.79333e-10
0.000722998
-2.1324e-10
0.000722998
-2.47242e-10
0.000722998
-2.80854e-10
0.000722998
-3.13546e-10
0.000722998
-3.44792e-10
0.000722998
-3.73572e-10
0.000722999
-3.98467e-10
0.000722999
-4.17536e-10
0.000722999
-4.28161e-10
0.000722999
-4.26328e-10
0.000722999
-4.06225e-10
0.000722999
-3.58719e-10
0.000722999
-2.72904e-10
0.000722999
-1.31175e-10
0.000722999
2.17339e-11
0.000722999
1.24528e-10
0.000722999
1.82086e-10
0.000722999
2.08055e-10
0.000722999
2.12016e-10
0.000722999
2.01693e-10
0.000722999
1.82584e-10
0.000723
1.58701e-10
0.000723
1.32938e-10
0.000723
1.07637e-10
0.000723
8.46111e-11
0.000723
6.51558e-11
0.000723
5.00349e-11
0.000723
3.58585e-11
0.000722999
-4.39433e-12
-1.47292e-10
0.000706261
-3.51446e-10
0.000706261
-4.09791e-10
0.000706261
-4.18287e-10
0.000706261
-4.14336e-10
0.000706261
-4.08709e-10
0.000706261
-4.03927e-10
0.000706261
-4.00354e-10
0.000706261
-3.97724e-10
0.000706261
-3.95752e-10
0.000706261
-3.94233e-10
0.000706261
-3.92868e-10
0.000706261
-3.91634e-10
0.000706261
-3.90521e-10
0.000706261
-3.8927e-10
0.000706261
-3.87863e-10
0.000706261
-3.86302e-10
0.00070626
-3.84561e-10
0.00070626
-3.82847e-10
0.00070626
-3.81063e-10
0.00070626
-3.79007e-10
0.00070626
-3.76513e-10
0.00070626
-3.73512e-10
0.00070626
-3.69985e-10
0.00070626
-3.65516e-10
0.00070626
-3.59954e-10
0.00070626
-3.53581e-10
0.00070626
-3.46364e-10
0.00070626
-3.3835e-10
0.00070626
-3.29939e-10
0.00070626
-3.2128e-10
0.00070626
-3.12329e-10
0.000706259
-3.03185e-10
0.000706259
-2.93663e-10
0.000706259
-2.83539e-10
0.000706259
-2.72439e-10
0.000706259
-2.59577e-10
0.000706259
-2.43947e-10
0.000706259
-2.24261e-10
0.000706259
-1.98822e-10
0.000706259
-1.64791e-10
0.000706259
-1.18361e-10
0.000706259
-5.49027e-11
0.000706259
3.29057e-11
0.000706259
1.51745e-10
0.000706259
3.10544e-10
0.000706259
4.78884e-10
0.000706259
6.1293e-10
0.000706259
7.09591e-10
0.000706259
7.75089e-10
0.000706259
8.15723e-10
0.000706259
8.37616e-10
0.000706258
8.45911e-10
0.000706258
8.44086e-10
0.000706258
8.34609e-10
0.000706258
8.19705e-10
0.000706258
8.00667e-10
0.000706258
7.78293e-10
0.000706258
7.53554e-10
0.000706258
7.27156e-10
0.000706258
6.99418e-10
0.000706258
6.70791e-10
0.000706258
6.4133e-10
0.000706258
6.11293e-10
0.000706258
5.80928e-10
0.000706258
5.50218e-10
0.000706258
5.19389e-10
0.000706258
4.88456e-10
0.000706258
4.57524e-10
0.000706258
4.26791e-10
0.000706258
3.96161e-10
0.000706258
3.65765e-10
0.000706258
3.35606e-10
0.000706258
3.05468e-10
0.000706258
2.75219e-10
0.000706258
2.45027e-10
0.000706258
2.14994e-10
0.000706259
1.848e-10
0.000706259
1.54431e-10
0.000706259
1.23706e-10
0.000706259
9.26676e-11
0.000706259
6.1396e-11
0.000706259
2.96956e-11
0.000706259
-2.4245e-12
0.000706259
-3.49426e-11
0.000706259
-6.7884e-11
0.000706259
-1.01334e-10
0.000706259
-1.3523e-10
0.000706259
-1.69468e-10
0.000706259
-2.03929e-10
0.000706259
-2.38456e-10
0.000706259
-2.73023e-10
0.000706259
-3.07334e-10
0.000706259
-3.40826e-10
0.000706259
-3.72971e-10
0.000706259
-4.03216e-10
0.00070626
-4.30556e-10
0.00070626
-4.53623e-10
0.00070626
-4.70508e-10
0.00070626
-4.78797e-10
0.00070626
-4.74881e-10
0.00070626
-4.53588e-10
0.00070626
-4.07721e-10
0.00070626
-3.30248e-10
0.00070626
-2.11852e-10
0.00070626
-8.25045e-11
0.00070626
1.45398e-11
0.00070626
7.68992e-11
0.00070626
1.11652e-10
0.00070626
1.25722e-10
0.000706261
1.25812e-10
0.000706261
1.17407e-10
0.000706261
1.04696e-10
0.000706261
9.0865e-11
0.000706261
7.86239e-11
0.000706261
7.00599e-11
0.000706261
6.66114e-11
0.000706261
6.90891e-11
0.000706261
7.24054e-11
0.000706261
3.69681e-11
-1.50805e-10
0.000689859
-4.02792e-10
0.000689859
-4.65713e-10
0.000689859
-4.63048e-10
0.000689859
-4.44642e-10
0.000689859
-4.24983e-10
0.000689859
-4.07517e-10
0.000689859
-3.92675e-10
0.000689859
-3.80052e-10
0.000689859
-3.69354e-10
0.000689859
-3.60269e-10
0.000689859
-3.52296e-10
0.000689859
-3.453e-10
0.000689859
-3.39178e-10
0.000689859
-3.33594e-10
0.000689859
-3.28379e-10
0.000689859
-3.23569e-10
0.000689858
-3.19171e-10
0.000689858
-3.15254e-10
0.000689858
-3.11655e-10
0.000689858
-3.08125e-10
0.000689858
-3.04427e-10
0.000689858
-3.00451e-10
0.000689858
-2.96101e-10
0.000689858
-2.90842e-10
0.000689858
-2.84557e-10
0.000689858
-2.77569e-10
0.000689858
-2.69731e-10
0.000689858
-2.61051e-10
0.000689858
-2.52039e-10
0.000689857
-2.42838e-10
0.000689857
-2.33362e-10
0.000689857
-2.23766e-10
0.000689857
-2.13895e-10
0.000689857
-2.03515e-10
0.000689857
-1.921e-10
0.000689857
-1.78913e-10
0.000689857
-1.63032e-10
0.000689857
-1.43157e-10
0.000689857
-1.17704e-10
0.000689857
-8.39998e-11
0.000689857
-3.86014e-11
0.000689857
2.2286e-11
0.000689856
1.04315e-10
0.000689856
2.1153e-10
0.000689856
3.47694e-10
0.000689856
4.91795e-10
0.000689856
6.1315e-10
0.000689856
7.06085e-10
0.000689856
7.72459e-10
0.000689856
8.15831e-10
0.000689856
8.40742e-10
0.000689856
8.51597e-10
0.000689856
8.51579e-10
0.000689856
8.43227e-10
0.000689856
8.28806e-10
0.000689856
8.09775e-10
0.000689856
7.8699e-10
0.000689856
7.6139e-10
0.000689856
7.33803e-10
0.000689856
7.04573e-10
0.000689856
6.74317e-10
0.000689856
6.43069e-10
0.000689856
6.1099e-10
0.000689856
5.78524e-10
0.000689856
5.45728e-10
0.000689856
5.12652e-10
0.000689856
4.79305e-10
0.000689856
4.45959e-10
0.000689856
4.12831e-10
0.000689856
3.79741e-10
0.000689856
3.46873e-10
0.000689856
3.14203e-10
0.000689856
2.81478e-10
0.000689856
2.48627e-10
0.000689856
2.15824e-10
0.000689857
1.83285e-10
0.000689857
1.50665e-10
0.000689857
1.17808e-10
0.000689857
8.4624e-11
0.000689857
5.12317e-11
0.000689857
1.77121e-11
0.000689857
-1.61657e-11
0.000689857
-5.03143e-11
0.000689857
-8.479e-11
0.000689857
-1.19638e-10
0.000689857
-1.54774e-10
0.000689857
-1.901e-10
0.000689857
-2.25537e-10
0.000689857
-2.61051e-10
0.000689857
-2.96377e-10
0.000689857
-3.31424e-10
0.000689857
-3.65909e-10
0.000689857
-3.99219e-10
0.000689857
-4.30851e-10
0.000689857
-4.60181e-10
0.000689858
-4.86188e-10
0.000689858
-5.07678e-10
0.000689858
-5.22831e-10
0.000689858
-5.29509e-10
0.000689858
-5.24489e-10
0.000689858
-5.03327e-10
0.000689858
-4.60602e-10
0.000689858
-3.91862e-10
0.000689858
-2.9283e-10
0.000689858
-1.8415e-10
0.000689858
-9.5754e-11
0.000689858
-3.23839e-11
0.000689858
8.74667e-12
0.000689858
3.19154e-11
0.000689859
4.23504e-11
0.000689859
4.501e-11
0.000689859
4.40157e-11
0.000689859
4.27055e-11
0.000689859
4.39855e-11
0.000689859
5.02721e-11
0.000689859
6.32734e-11
0.000689859
8.38847e-11
0.000689859
1.05348e-10
0.000689859
7.62619e-11
-1.53682e-10
0.00067379
-4.50422e-10
0.000673791
-5.17184e-10
0.000673791
-5.02866e-10
0.000673791
-4.69423e-10
0.000673791
-4.34989e-10
0.000673791
-4.04177e-10
0.000673791
-3.77571e-10
0.000673791
-3.54516e-10
0.000673791
-3.34618e-10
0.00067379
-3.17643e-10
0.00067379
-3.02871e-10
0.00067379
-2.89875e-10
0.00067379
-2.7852e-10
0.00067379
-2.68564e-10
0.00067379
-2.59577e-10
0.00067379
-2.51483e-10
0.00067379
-2.44426e-10
0.00067379
-2.38357e-10
0.00067379
-2.33046e-10
0.00067379
-2.2818e-10
0.00067379
-2.23477e-10
0.00067379
-2.18738e-10
0.00067379
-2.13735e-10
0.000673789
-2.07857e-10
0.000673789
-2.01027e-10
0.000673789
-1.93584e-10
0.000673789
-1.85307e-10
0.000673789
-1.76155e-10
0.000673789
-1.66723e-10
0.000673789
-1.57278e-10
0.000673789
-1.47612e-10
0.000673789
-1.37899e-10
0.000673789
-1.28137e-10
0.000673789
-1.17997e-10
0.000673789
-1.06894e-10
0.000673788
-9.4119e-11
0.000673788
-7.87661e-11
0.000673788
-5.95827e-11
0.000673788
-3.5153e-11
0.000673788
-3.02936e-12
0.000673788
3.9923e-11
0.000673788
9.68108e-11
0.000673788
1.71802e-10
0.000673788
2.67169e-10
0.000673788
3.83817e-10
0.000673788
5.06591e-10
0.000673788
6.13863e-10
0.000673788
6.99716e-10
0.000673788
7.63707e-10
0.000673788
8.07534e-10
0.000673788
8.34162e-10
0.000673788
8.46917e-10
0.000673788
8.48575e-10
0.000673788
8.41447e-10
0.000673788
8.27693e-10
0.000673788
8.0894e-10
0.000673788
7.86003e-10
0.000673788
7.59808e-10
0.000673788
7.3139e-10
0.000673788
7.01097e-10
0.000673788
6.6956e-10
0.000673788
6.36861e-10
0.000673788
6.03123e-10
0.000673788
5.68901e-10
0.000673788
5.34318e-10
0.000673788
4.99323e-10
0.000673788
4.64003e-10
0.000673788
4.28652e-10
0.000673788
3.93484e-10
0.000673788
3.58261e-10
0.000673788
3.23175e-10
0.000673788
2.88287e-10
0.000673788
2.53325e-10
0.000673788
2.18253e-10
0.000673788
1.83235e-10
0.000673788
1.48561e-10
0.000673788
1.13744e-10
0.000673788
7.86982e-11
0.000673788
4.3424e-11
0.000673788
7.90758e-12
0.000673788
-2.75969e-11
0.000673788
-6.32897e-11
0.000673788
-9.92262e-11
0.000673788
-1.35456e-10
0.000673789
-1.71886e-10
0.000673789
-2.08438e-10
0.000673789
-2.45043e-10
0.000673789
-2.81492e-10
0.000673789
-3.17857e-10
0.000673789
-3.53821e-10
0.000673789
-3.89205e-10
0.000673789
-4.23726e-10
0.000673789
-4.56745e-10
0.000673789
-4.87802e-10
0.000673789
-5.16269e-10
0.000673789
-5.41135e-10
0.000673789
-5.61244e-10
0.000673789
-5.74964e-10
0.000673789
-5.80524e-10
0.000673789
-5.75172e-10
0.000673789
-5.55018e-10
0.000673789
-5.16139e-10
0.00067379
-4.55814e-10
0.00067379
-3.72596e-10
0.00067379
-2.81284e-10
0.00067379
-2.02596e-10
0.00067379
-1.41346e-10
0.00067379
-9.68817e-11
0.00067379
-6.6677e-11
0.00067379
-4.68876e-11
0.00067379
-3.35872e-11
0.00067379
-2.28585e-11
0.00067379
-1.13479e-11
0.00067379
3.83874e-12
0.00067379
2.54443e-11
0.00067379
5.53201e-11
0.00067379
9.44919e-11
0.00067379
1.34911e-10
0.00067379
1.1416e-10
-1.54922e-10
0.000658052
-4.93149e-10
0.000658052
-5.62922e-10
0.000658052
-5.36412e-10
0.000658052
-4.87449e-10
0.000658052
-4.3777e-10
0.000658052
-3.93122e-10
0.000658052
-3.54245e-10
0.000658052
-3.20423e-10
0.000658052
-2.91135e-10
0.000658052
-2.66024e-10
0.000658052
-2.44201e-10
0.000658052
-2.25096e-10
0.000658052
-2.08469e-10
0.000658052
-1.94072e-10
0.000658052
-1.81429e-10
0.000658052
-1.70192e-10
0.000658052
-1.60504e-10
0.000658051
-1.52376e-10
0.000658051
-1.45512e-10
0.000658051
-1.39513e-10
0.000658051
-1.34034e-10
0.000658051
-1.288e-10
0.000658051
-1.23439e-10
0.000658051
-1.17276e-10
0.000658051
-1.10151e-10
0.000658051
-1.02375e-10
0.000658051
-9.37998e-11
0.000658051
-8.44522e-11
0.00065805
-7.49234e-11
0.00065805
-6.55232e-11
0.00065805
-5.60327e-11
0.00065805
-4.66976e-11
0.00065805
-3.75423e-11
0.00065805
-2.81464e-11
0.00065805
-1.80533e-11
0.00065805
-6.47943e-12
0.00065805
7.4891e-12
0.00065805
2.50486e-11
0.00065805
4.73949e-11
0.000658049
7.6869e-11
0.000658049
1.16262e-10
0.000658049
1.67984e-10
0.000658049
2.3511e-10
0.000658049
3.18733e-10
0.000658049
4.18325e-10
0.000658049
5.22477e-10
0.000658049
6.15524e-10
0.000658049
6.92222e-10
0.000658049
7.51217e-10
0.000658049
7.93135e-10
0.000658049
8.19559e-10
0.000658049
8.32994e-10
0.000658049
8.35692e-10
0.000658049
8.29372e-10
0.000658049
8.16201e-10
0.000658049
7.97818e-10
0.000658049
7.74883e-10
0.000658049
7.48329e-10
0.000658049
7.19309e-10
0.000658049
6.8826e-10
0.000658049
6.55818e-10
0.000658049
6.22031e-10
0.000658049
5.87022e-10
0.000658049
5.51357e-10
0.000658049
5.15288e-10
0.000658049
4.78801e-10
0.000658049
4.41925e-10
0.000658049
4.04943e-10
0.000658049
3.68025e-10
0.00065805
3.30991e-10
0.00065805
2.94057e-10
0.00065805
2.57234e-10
0.00065805
2.20368e-10
0.00065805
1.83512e-10
0.00065805
1.46693e-10
0.00065805
1.10101e-10
0.00065805
7.32806e-11
0.00065805
3.63997e-11
0.00065805
-5.92449e-13
0.00065805
-3.78473e-11
0.00065805
-7.50936e-11
0.00065805
-1.12404e-10
0.00065805
-1.49792e-10
0.00065805
-1.875e-10
0.00065805
-2.25262e-10
0.00065805
-2.62954e-10
0.00065805
-3.00642e-10
0.00065805
-3.37999e-10
0.00065805
-3.75009e-10
0.00065805
-4.11365e-10
0.00065805
-4.46843e-10
0.000658051
-4.81256e-10
0.000658051
-5.14023e-10
0.000658051
-5.44417e-10
0.000658051
-5.71892e-10
0.000658051
-5.9569e-10
0.000658051
-6.14633e-10
0.000658051
-6.27236e-10
0.000658051
-6.32061e-10
0.000658051
-6.26797e-10
0.000658051
-6.08153e-10
0.000658051
-5.73397e-10
0.000658051
-5.20871e-10
0.000658051
-4.50639e-10
0.000658051
-3.73642e-10
0.000658051
-3.04382e-10
0.000658052
-2.47007e-10
0.000658052
-2.01666e-10
0.000658052
-1.66618e-10
0.000658052
-1.39142e-10
0.000658052
-1.16216e-10
0.000658052
-9.42397e-11
0.000658052
-7.00489e-11
0.000658052
-4.08067e-11
0.000658052
-3.60799e-12
0.000658052
4.34631e-11
0.000658052
1.01639e-10
0.000658052
1.61874e-10
0.000658052
1.51748e-10
-1.53286e-10
0.000642639
-5.2956e-10
0.000642639
-6.01521e-10
0.000642639
-5.62189e-10
0.000642639
-4.97196e-10
0.000642639
-4.32091e-10
0.000642639
-3.73454e-10
0.000642639
-3.22008e-10
0.000642639
-2.77155e-10
0.000642639
-2.38416e-10
0.000642639
-2.05057e-10
0.000642639
-1.76107e-10
0.000642639
-1.50936e-10
0.000642639
-1.29115e-10
0.000642639
-1.10289e-10
0.000642639
-9.39823e-11
0.000642639
-7.98444e-11
0.000642638
-6.77267e-11
0.000642638
-5.77526e-11
0.000642638
-4.95888e-11
0.000642638
-4.27573e-11
0.000642638
-3.69088e-11
0.000642638
-3.14799e-11
0.000642638
-2.60663e-11
0.000642638
-1.99456e-11
0.000642638
-1.27831e-11
0.000642638
-4.87488e-12
0.000642638
3.72325e-12
0.000642637
1.3021e-11
0.000642637
2.23179e-11
0.000642637
3.13527e-11
0.000642637
4.0246e-11
0.000642637
4.85491e-11
0.000642637
5.65112e-11
0.000642637
6.45406e-11
0.000642637
7.28818e-11
0.000642637
8.24381e-11
0.000642637
9.41424e-11
0.000642636
1.09092e-10
0.000642636
1.28364e-10
0.000642636
1.54233e-10
0.000642636
1.89073e-10
0.000642636
2.34735e-10
0.000642636
2.93485e-10
0.000642636
3.65643e-10
0.000642636
4.5006e-10
0.000642636
5.37807e-10
0.000642636
6.17249e-10
0.000642636
6.8397e-10
0.000642636
7.36201e-10
0.000642636
7.74118e-10
0.000642636
7.98541e-10
0.000642636
8.11219e-10
0.000642636
8.13862e-10
0.000642636
8.07673e-10
0.000642636
7.94797e-10
0.000642636
7.76656e-10
0.000642636
7.53705e-10
0.000642636
7.26961e-10
0.000642636
6.97478e-10
0.000642636
6.65842e-10
0.000642636
6.32796e-10
0.000642636
5.9821e-10
0.000642636
5.62223e-10
0.000642636
5.25526e-10
0.000642636
4.88359e-10
0.000642636
4.50725e-10
0.000642636
4.12599e-10
0.000642637
3.743e-10
0.000642637
3.35956e-10
0.000642637
2.97474e-10
0.000642637
2.59107e-10
0.000642637
2.20704e-10
0.000642637
1.82288e-10
0.000642637
1.44001e-10
0.000642637
1.05649e-10
0.000642637
6.73825e-11
0.000642637
2.896e-11
0.000642637
-9.40244e-12
0.000642637
-4.78465e-11
0.000642637
-8.64993e-11
0.000642637
-1.25198e-10
0.000642637
-1.63905e-10
0.000642637
-2.02475e-10
0.000642637
-2.41278e-10
0.000642637
-2.80115e-10
0.000642637
-3.18815e-10
0.000642637
-3.57289e-10
0.000642637
-3.95332e-10
0.000642637
-4.3285e-10
0.000642638
-4.69402e-10
0.000642638
-5.04845e-10
0.000642638
-5.38996e-10
0.000642638
-5.71304e-10
0.000642638
-6.00968e-10
0.000642638
-6.27453e-10
0.000642638
-6.50184e-10
0.000642638
-6.68057e-10
0.000642638
-6.7977e-10
0.000642638
-6.84099e-10
0.000642638
-6.79093e-10
0.000642638
-6.62273e-10
0.000642638
-6.31676e-10
0.000642638
-5.86156e-10
0.000642638
-5.26672e-10
0.000642638
-4.61461e-10
0.000642639
-4.00787e-10
0.000642639
-3.47947e-10
0.000642639
-3.03105e-10
0.000642639
-2.64927e-10
0.000642639
-2.31542e-10
0.000642639
-2.00264e-10
0.000642639
-1.67834e-10
0.000642639
-1.31336e-10
0.000642639
-8.81032e-11
0.000642639
-3.53115e-11
0.000642639
2.91589e-11
0.000642639
1.06776e-10
0.000642639
1.87633e-10
0.000642639
1.90421e-10
-1.47355e-10
0.000627547
-5.5795e-10
0.000627547
-6.31319e-10
0.000627547
-5.78725e-10
0.000627547
-4.97425e-10
0.000627547
-4.16689e-10
0.000627547
-3.44e-10
0.000627547
-2.79976e-10
0.000627547
-2.24118e-10
0.000627547
-1.75996e-10
0.000627547
-1.34521e-10
0.000627547
-9.85107e-11
0.000627547
-6.73654e-11
0.000627547
-4.06539e-11
0.000627547
-1.76248e-11
0.000627547
2.20526e-12
0.000627546
1.90774e-11
0.000627546
3.33268e-11
0.000627546
4.48227e-11
0.000627546
5.39422e-11
0.000627546
6.121e-11
0.000627546
6.69963e-11
0.000627546
7.2186e-11
0.000627546
7.72604e-11
0.000627546
8.30499e-11
0.000627546
9.00361e-11
0.000627545
9.77793e-11
0.000627545
1.06168e-10
0.000627545
1.15091e-10
0.000627545
1.23705e-10
0.000627545
1.31877e-10
0.000627545
1.39648e-10
0.000627545
1.46407e-10
0.000627545
1.5246e-10
0.000627545
1.58306e-10
0.000627545
1.64131e-10
0.000627544
1.70793e-10
0.000627544
1.79398e-10
0.000627544
1.90878e-10
0.000627544
2.06167e-10
0.000627544
2.27441e-10
0.000627544
2.56774e-10
0.000627544
2.95666e-10
0.000627544
3.45785e-10
0.000627544
4.06916e-10
0.000627544
4.77564e-10
0.000627544
5.50667e-10
0.000627544
6.17436e-10
0.000627544
6.74052e-10
0.000627544
7.1861e-10
0.000627544
7.51097e-10
0.000627544
7.72114e-10
0.000627544
7.82747e-10
0.000627544
7.84173e-10
0.000627544
7.77448e-10
0.000627544
7.64334e-10
0.000627544
7.45985e-10
0.000627544
7.22837e-10
0.000627544
6.95973e-10
0.000627544
6.66219e-10
0.000627544
6.34179e-10
0.000627544
6.0063e-10
0.000627544
5.65397e-10
0.000627544
5.28839e-10
0.000627544
4.91521e-10
0.000627544
4.53458e-10
0.000627544
4.14895e-10
0.000627544
3.75856e-10
0.000627544
3.36491e-10
0.000627545
2.97158e-10
0.000627545
2.57617e-10
0.000627545
2.18083e-10
0.000627545
1.78552e-10
0.000627545
1.38956e-10
0.000627545
9.94317e-11
0.000627545
5.98188e-11
0.000627545
2.03778e-11
0.000627545
-1.91884e-11
0.000627545
-5.88162e-11
0.000627545
-9.85248e-11
0.000627545
-1.38361e-10
0.000627545
-1.78127e-10
0.000627545
-2.17871e-10
0.000627545
-2.57515e-10
0.000627545
-2.97098e-10
0.000627545
-3.36607e-10
0.000627545
-3.76101e-10
0.000627545
-4.15156e-10
0.000627545
-4.5357e-10
0.000627546
-4.91404e-10
0.000627546
-5.28119e-10
0.000627546
-5.63478e-10
0.000627546
-5.97178e-10
0.000627546
-6.28752e-10
0.000627546
-6.57607e-10
0.000627546
-6.83123e-10
0.000627546
-7.04792e-10
0.000627546
-7.21614e-10
0.000627546
-7.32396e-10
0.000627546
-7.3632e-10
0.000627546
-7.3188e-10
0.000627546
-7.16996e-10
0.000627546
-6.90247e-10
0.000627546
-6.50979e-10
0.000627546
-6.00513e-10
0.000627546
-5.45014e-10
0.000627547
-4.91916e-10
0.000627547
-4.43624e-10
0.000627547
-3.99909e-10
0.000627547
-3.59775e-10
0.000627547
-3.21686e-10
0.000627547
-2.83002e-10
0.000627547
-2.40915e-10
0.000627547
-1.92806e-10
0.000627547
-1.35886e-10
0.000627547
-6.74313e-11
0.000627547
1.46531e-11
0.000627547
1.11956e-10
0.000627547
2.14082e-10
0.000627547
2.31916e-10
-1.3545e-10
0.000612771
-5.7657e-10
0.000612771
-6.5057e-10
0.000612771
-5.84469e-10
0.000612771
-4.86748e-10
0.000612771
-3.90323e-10
0.000612771
-3.03689e-10
0.000612771
-2.27441e-10
0.000612771
-1.60904e-10
0.000612771
-1.03542e-10
0.000612771
-5.42355e-11
0.000612771
-1.149e-11
0.000612771
2.52984e-11
0.000612771
5.66199e-11
0.00061277
8.34637e-11
0.00061277
1.0634e-10
0.00061277
1.25718e-10
0.00061277
1.41782e-10
0.00061277
1.54401e-10
0.00061277
1.64038e-10
0.00061277
1.71232e-10
0.00061277
1.76631e-10
0.00061277
1.81153e-10
0.000612769
1.85371e-10
0.000612769
1.90499e-10
0.000612769
1.96927e-10
0.000612769
2.04109e-10
0.000612769
2.12031e-10
0.000612769
2.20157e-10
0.000612769
2.27711e-10
0.000612769
2.34532e-10
0.000612769
2.40544e-10
0.000612769
2.45131e-10
0.000612768
2.48486e-10
0.000612768
2.5125e-10
0.000612768
2.53749e-10
0.000612768
2.56709e-10
0.000612768
2.6126e-10
0.000612768
2.68347e-10
0.000612768
2.78807e-10
0.000612768
2.94611e-10
0.000612768
3.17757e-10
0.000612768
3.49365e-10
0.000612768
3.90616e-10
0.000612768
4.41176e-10
0.000612768
4.99231e-10
0.000612768
5.59165e-10
0.000612768
6.14201e-10
0.000612768
6.60941e-10
0.000612768
6.97589e-10
0.000612768
7.24088e-10
0.000612768
7.40711e-10
0.000612768
7.48233e-10
0.000612768
7.47587e-10
0.000612768
7.39597e-10
0.000612768
7.25643e-10
0.000612768
7.06729e-10
0.000612768
6.83179e-10
0.000612768
6.56002e-10
0.000612768
6.261e-10
0.000612768
5.9379e-10
0.000612768
5.59789e-10
0.000612768
5.24135e-10
0.000612768
4.8721e-10
0.000612768
4.49504e-10
0.000612768
4.10869e-10
0.000612768
3.71691e-10
0.000612768
3.31969e-10
0.000612768
2.91804e-10
0.000612768
2.51803e-10
0.000612769
2.11537e-10
0.000612769
1.71239e-10
0.000612769
1.30951e-10
0.000612769
9.05057e-11
0.000612769
4.99817e-11
0.000612769
9.38872e-12
0.000612769
-3.08622e-11
0.000612769
-7.13097e-11
0.000612769
-1.11913e-10
0.000612769
-1.52514e-10
0.000612769
-1.93245e-10
0.000612769
-2.33849e-10
0.000612769
-2.7435e-10
0.000612769
-3.14707e-10
0.000612769
-3.54905e-10
0.000612769
-3.94913e-10
0.000612769
-4.3476e-10
0.000612769
-4.74107e-10
0.00061277
-5.1281e-10
0.00061277
-5.50772e-10
0.00061277
-5.87413e-10
0.00061277
-6.22489e-10
0.00061277
-6.55668e-10
0.00061277
-6.8651e-10
0.00061277
-7.14402e-10
0.00061277
-7.38799e-10
0.00061277
-7.59298e-10
0.00061277
-7.75085e-10
0.00061277
-7.84984e-10
0.00061277
-7.88474e-10
0.00061277
-7.84675e-10
0.00061277
-7.71735e-10
0.00061277
-7.48529e-10
0.00061277
-7.14841e-10
0.00061277
-6.71955e-10
0.000612771
-6.24571e-10
0.000612771
-5.77938e-10
0.000612771
-5.33751e-10
0.000612771
-4.91461e-10
0.000612771
-4.4987e-10
0.000612771
-4.07637e-10
0.000612771
-3.62226e-10
0.000612771
-3.10982e-10
0.000612771
-2.5169e-10
0.000612771
-1.81476e-10
0.000612771
-9.74404e-11
0.000612771
2.30237e-12
0.000612771
1.19439e-10
0.000612771
2.43309e-10
0.000612771
2.78394e-10
-1.15521e-10
0.000598306
-5.83434e-10
0.000598306
-6.57637e-10
0.000598306
-5.77939e-10
0.000598306
-4.63928e-10
0.000598306
-3.52072e-10
0.000598306
-2.51782e-10
0.000598306
-1.63809e-10
0.000598306
-8.71939e-11
0.000598306
-2.10379e-11
0.000598306
3.57579e-11
0.000598305
8.45608e-11
0.000598305
1.26428e-10
0.000598305
1.62036e-10
0.000598305
1.92232e-10
0.000598305
2.17738e-10
0.000598305
2.39136e-10
0.000598305
2.56536e-10
0.000598305
2.69788e-10
0.000598305
2.79399e-10
0.000598304
2.86062e-10
0.000598304
2.90645e-10
0.000598304
2.93924e-10
0.000598304
2.96778e-10
0.000598304
3.00843e-10
0.000598304
3.06269e-10
0.000598304
3.12583e-10
0.000598304
3.19701e-10
0.000598304
3.26624e-10
0.000598303
3.32727e-10
0.000598303
3.37595e-10
0.000598303
3.40968e-10
0.000598303
3.42566e-10
0.000598303
3.42536e-10
0.000598303
3.41376e-10
0.000598303
3.39588e-10
0.000598303
3.37923e-10
0.000598303
3.37426e-10
0.000598303
3.39234e-10
0.000598303
3.44131e-10
0.000598303
3.53879e-10
0.000598302
3.70371e-10
0.000598302
3.94301e-10
0.000598302
4.26556e-10
0.000598302
4.66944e-10
0.000598302
5.13402e-10
0.000598302
5.61411e-10
0.000598302
6.05802e-10
0.000598302
6.43297e-10
0.000598302
6.72082e-10
0.000598302
6.92443e-10
0.000598302
7.04276e-10
0.000598303
7.0801e-10
0.000598303
7.04705e-10
0.000598303
6.94884e-10
0.000598303
6.79628e-10
0.000598303
6.5984e-10
0.000598303
6.35761e-10
0.000598303
6.08096e-10
0.000598303
5.77899e-10
0.000598303
5.45332e-10
0.000598303
5.11012e-10
0.000598303
4.75231e-10
0.000598303
4.3799e-10
0.000598303
3.99917e-10
0.000598303
3.6114e-10
0.000598303
3.21697e-10
0.000598303
2.81514e-10
0.000598303
2.40965e-10
0.000598303
2.00471e-10
0.000598303
1.59734e-10
0.000598303
1.19046e-10
0.000598303
7.82427e-11
0.000598304
3.72433e-11
0.000598304
-3.82488e-12
0.000598304
-4.5075e-11
0.000598304
-8.60923e-11
0.000598304
-1.27223e-10
0.000598304
-1.68374e-10
0.000598304
-2.09495e-10
0.000598304
-2.50817e-10
0.000598304
-2.91986e-10
0.000598304
-3.33039e-10
0.000598304
-3.73794e-10
0.000598304
-4.14378e-10
0.000598304
-4.5474e-10
0.000598304
-4.94682e-10
0.000598304
-5.34103e-10
0.000598304
-5.72902e-10
0.000598304
-6.10693e-10
0.000598305
-6.46999e-10
0.000598305
-6.8168e-10
0.000598305
-7.14272e-10
0.000598305
-7.44239e-10
0.000598305
-7.70991e-10
0.000598305
-7.94254e-10
0.000598305
-8.13582e-10
0.000598305
-8.28173e-10
0.000598305
-8.37124e-10
0.000598305
-8.40204e-10
0.000598305
-8.37005e-10
0.000598305
-8.25872e-10
0.000598305
-8.05964e-10
0.000598305
-7.77143e-10
0.000598305
-7.40627e-10
0.000598305
-7.00191e-10
0.000598305
-6.5912e-10
0.000598306
-6.18367e-10
0.000598306
-5.77217e-10
0.000598306
-5.34172e-10
0.000598306
-4.87836e-10
0.000598306
-4.35907e-10
0.000598306
-3.7579e-10
0.000598306
-3.05353e-10
0.000598306
-2.22003e-10
0.000598306
-1.22656e-10
0.000598306
-5.38682e-12
0.000598306
1.31649e-10
0.000598306
2.77707e-10
0.000598306
3.32056e-10
-8.546e-11
0.000584146
-5.76583e-10
0.000584146
-6.51067e-10
0.000584146
-5.57975e-10
0.000584146
-4.27949e-10
0.000584146
-3.01262e-10
0.000584146
-1.87983e-10
0.000584146
-8.87421e-11
0.000584146
-2.74785e-12
0.000584146
7.12358e-11
0.000584146
1.34764e-10
0.000584146
1.89056e-10
0.000584145
2.35305e-10