/*--------------------------------*- C++ -*----------------------------------*\
  =========                 |
  \\      /  F ield         | OpenFOAM: The Open Source CFD Toolbox
   \\    /   O peration     | Website:  https://openfoam.org
    \\  /    A nd           | Version:  7
     \\/     M anipulation  |
\*---------------------------------------------------------------------------*/
FoamFile
{
    version     2.0;
    format      ascii;
    class       volScalarField;
    location    "2500";
    object      k;
}
// * * * * * * * * * * * * * * * * * * * * * * * * * * * * * * * * * * * * * //

dimensions      [0 2 -2 0 0 0 0];

internalField   nonuniform List<scalar> 
4037
(
0.000156935
0.000156936
0.000156937
0.000156937
0.000156938
0.000156939
0.00015694
0.00015694
0.000156941
0.000156941
0.000156942
0.000156943
0.000156943
0.000156944
0.000156944
0.000156945
0.000156946
0.000156946
0.000156947
0.000156947
0.000156948
0.000156948
0.000156949
0.000156949
0.00015695
0.00015695
0.000156951
0.000156952
0.000156952
0.000156953
0.000156953
0.000156954
0.000156954
0.000156955
0.000156955
0.000156955
0.000156956
0.000156956
0.000156957
0.000156957
0.000156958
0.000156958
0.000156958
0.000156959
0.000156959
0.00015696
0.00015696
0.00015696
0.000156961
0.000156961
0.000156961
0.000156961
0.000156962
0.000156962
0.000156962
0.000156962
0.000156963
0.000156963
0.000156963
0.000156963
0.000156963
0.000156963
0.000156963
0.000156963
0.000156963
0.000156963
0.000156963
0.000156963
0.000156963
0.000156963
0.000156963
0.000156963
0.000156963
0.000156963
0.000156963
0.000156963
0.000156963
0.000157933
0.00015793
0.000157929
0.000157928
0.000157927
0.000157927
0.000157926
0.000157926
0.000157925
0.000157925
0.000157925
0.000157924
0.000157924
0.000157924
0.000157924
0.000157924
0.000157924
0.000157924
0.000157924
0.000157924
0.000157924
0.000157924
0.000157925
0.000157925
0.000157929
0.000157932
0.000157933
0.000157934
0.000157935
0.000157936
0.000157937
0.000157938
0.000157939
0.000157939
0.00015794
0.000157941
0.000157941
0.000157942
0.000157943
0.000157943
0.000157944
0.000157944
0.000157945
0.000157946
0.000157946
0.000157947
0.000157947
0.000157948
0.000157948
0.000157949
0.00015795
0.00015795
0.000157951
0.000157951
0.000157952
0.000157952
0.000157953
0.000157953
0.000157954
0.000157954
0.000157955
0.000157955
0.000157955
0.000157956
0.000157956
0.000157957
0.000157957
0.000157957
0.000157958
0.000157958
0.000157958
0.000157959
0.000157959
0.000157959
0.00015796
0.00015796
0.00015796
0.00015796
0.000157961
0.000157961
0.000157961
0.000157961
0.000157961
0.000157961
0.000157961
0.000157962
0.000157962
0.000157962
0.000157962
0.000157962
0.000157962
0.000157962
0.000157962
0.000157962
0.000157962
0.000157962
0.000157961
0.000157961
0.000157961
0.000157961
0.000157962
0.000157953
0.000157951
0.00015795
0.000157949
0.000157949
0.000157948
0.000157948
0.000157947
0.000157947
0.000157946
0.000157945
0.000157945
0.000157944
0.000157944
0.000157943
0.000157943
0.000157942
0.000157941
0.000157942
0.000158823
0.00015882
0.000158819
0.000158818
0.000158817
0.000158816
0.000158816
0.000158815
0.000158815
0.000158814
0.000158814
0.000158813
0.000158813
0.000158813
0.000158813
0.000158813
0.000158813
0.000158813
0.000158813
0.000158813
0.000158814
0.000158814
0.000158814
0.000158814
0.000158816
0.000158819
0.00015882
0.000158822
0.000158823
0.000158824
0.000158825
0.000158825
0.000158826
0.000158827
0.000158828
0.000158829
0.000158829
0.00015883
0.000158831
0.000158831
0.000158832
0.000158833
0.000158833
0.000158834
0.000158835
0.000158835
0.000158836
0.000158836
0.000158837
0.000158837
0.000158838
0.000158839
0.000158839
0.00015884
0.00015884
0.000158841
0.000158841
0.000158842
0.000158842
0.000158843
0.000158843
0.000158843
0.000158844
0.000158844
0.000158845
0.000158845
0.000158846
0.000158846
0.000158846
0.000158847
0.000158847
0.000158847
0.000158848
0.000158848
0.000158848
0.000158848
0.000158849
0.000158849
0.000158849
0.000158849
0.000158849
0.000158849
0.00015885
0.00015885
0.00015885
0.00015885
0.00015885
0.00015885
0.00015885
0.00015885
0.00015885
0.00015885
0.00015885
0.00015885
0.00015885
0.00015885
0.00015885
0.00015885
0.000158849
0.000158849
0.00015885
0.000158846
0.000158843
0.000158841
0.00015884
0.000158839
0.000158839
0.000158838
0.000158837
0.000158837
0.000158836
0.000158835
0.000158835
0.000158834
0.000158834
0.000158833
0.000158832
0.000158832
0.000158831
0.000158832
0.000159597
0.000159594
0.000159592
0.000159591
0.00015959
0.000159589
0.000159588
0.000159587
0.000159587
0.000159586
0.000159586
0.000159586
0.000159585
0.000159585
0.000159585
0.000159585
0.000159585
0.000159585
0.000159586
0.000159586
0.000159586
0.000159586
0.000159586
0.000159587
0.000159588
0.000159589
0.000159591
0.000159592
0.000159593
0.000159594
0.000159595
0.000159596
0.000159597
0.000159598
0.000159599
0.0001596
0.0001596
0.000159601
0.000159602
0.000159603
0.000159603
0.000159604
0.000159605
0.000159605
0.000159606
0.000159606
0.000159607
0.000159608
0.000159608
0.000159609
0.000159609
0.00015961
0.000159611
0.000159611
0.000159612
0.000159612
0.000159613
0.000159613
0.000159614
0.000159614
0.000159614
0.000159615
0.000159615
0.000159616
0.000159616
0.000159616
0.000159617
0.000159617
0.000159618
0.000159618
0.000159618
0.000159619
0.000159619
0.000159619
0.000159619
0.00015962
0.00015962
0.00015962
0.00015962
0.00015962
0.000159621
0.000159621
0.000159621
0.000159621
0.000159621
0.000159621
0.000159621
0.000159621
0.000159621
0.000159621
0.000159621
0.000159621
0.000159621
0.000159621
0.000159621
0.000159621
0.000159621
0.000159621
0.00015962
0.00015962
0.000159621
0.000159619
0.000159617
0.000159615
0.000159614
0.000159613
0.000159612
0.000159611
0.00015961
0.00015961
0.000159609
0.000159608
0.000159608
0.000159607
0.000159606
0.000159606
0.000159605
0.000159605
0.000159604
0.000159605
0.000160245
0.000160242
0.00016024
0.000160239
0.000160237
0.000160236
0.000160235
0.000160235
0.000160234
0.000160234
0.000160233
0.000160233
0.000160233
0.000160232
0.000160232
0.000160232
0.000160232
0.000160233
0.000160233
0.000160233
0.000160233
0.000160233
0.000160234
0.000160234
0.000160235
0.000160236
0.000160237
0.000160238
0.000160239
0.00016024
0.000160241
0.000160242
0.000160243
0.000160244
0.000160245
0.000160246
0.000160247
0.000160247
0.000160248
0.000160249
0.00016025
0.00016025
0.000160251
0.000160252
0.000160252
0.000160253
0.000160254
0.000160254
0.000160255
0.000160255
0.000160256
0.000160256
0.000160257
0.000160258
0.000160258
0.000160259
0.000160259
0.00016026
0.00016026
0.00016026
0.000160261
0.000160261
0.000160262
0.000160262
0.000160263
0.000160263
0.000160263
0.000160264
0.000160264
0.000160264
0.000160265
0.000160265
0.000160265
0.000160265
0.000160266
0.000160266
0.000160266
0.000160266
0.000160267
0.000160267
0.000160267
0.000160267
0.000160267
0.000160267
0.000160267
0.000160267
0.000160267
0.000160267
0.000160267
0.000160267
0.000160267
0.000160267
0.000160267
0.000160267
0.000160267
0.000160267
0.000160267
0.000160267
0.000160267
0.000160266
0.000160266
0.000160266
0.000160264
0.000160263
0.000160262
0.000160261
0.00016026
0.000160259
0.000160258
0.000160257
0.000160257
0.000160256
0.000160255
0.000160255
0.000160254
0.000160253
0.000160253
0.000160252
0.000160251
0.000160252
0.000160759
0.000160756
0.000160754
0.000160752
0.000160751
0.00016075
0.000160749
0.000160748
0.000160747
0.000160747
0.000160746
0.000160746
0.000160746
0.000160745
0.000160745
0.000160745
0.000160746
0.000160746
0.000160746
0.000160746
0.000160746
0.000160747
0.000160747
0.000160747
0.000160748
0.000160749
0.00016075
0.000160751
0.000160752
0.000160753
0.000160754
0.000160755
0.000160756
0.000160756
0.000160757
0.000160758
0.000160759
0.00016076
0.000160761
0.000160761
0.000160762
0.000160763
0.000160764
0.000160764
0.000160765
0.000160766
0.000160766
0.000160767
0.000160767
0.000160768
0.000160769
0.000160769
0.00016077
0.00016077
0.000160771
0.000160771
0.000160772
0.000160772
0.000160773
0.000160773
0.000160774
0.000160774
0.000160774
0.000160775
0.000160775
0.000160776
0.000160776
0.000160776
0.000160777
0.000160777
0.000160777
0.000160777
0.000160778
0.000160778
0.000160778
0.000160778
0.000160779
0.000160779
0.000160779
0.000160779
0.000160779
0.000160779
0.000160779
0.00016078
0.00016078
0.00016078
0.00016078
0.00016078
0.00016078
0.00016078
0.00016078
0.00016078
0.00016078
0.000160779
0.000160779
0.000160779
0.000160779
0.000160779
0.000160779
0.000160779
0.000160779
0.000160778
0.000160777
0.000160776
0.000160775
0.000160774
0.000160773
0.000160773
0.000160772
0.000160771
0.00016077
0.00016077
0.000160769
0.000160768
0.000160768
0.000160767
0.000160766
0.000160766
0.000160765
0.000160766
0.000161128
0.000161125
0.000161123
0.000161121
0.00016112
0.000161119
0.000161117
0.000161117
0.000161116
0.000161115
0.000161115
0.000161115
0.000161114
0.000161114
0.000161114
0.000161114
0.000161114
0.000161115
0.000161115
0.000161115
0.000161115
0.000161116
0.000161116
0.000161116
0.000161117
0.000161117
0.000161118
0.000161119
0.00016112
0.000161121
0.000161122
0.000161123
0.000161124
0.000161125
0.000161126
0.000161126
0.000161127
0.000161128
0.000161129
0.00016113
0.00016113
0.000161131
0.000161132
0.000161133
0.000161133
0.000161134
0.000161135
0.000161135
0.000161136
0.000161136
0.000161137
0.000161137
0.000161138
0.000161139
0.000161139
0.00016114
0.00016114
0.000161141
0.000161141
0.000161141
0.000161142
0.000161142
0.000161143
0.000161143
0.000161143
0.000161144
0.000161144
0.000161144
0.000161145
0.000161145
0.000161145
0.000161146
0.000161146
0.000161146
0.000161146
0.000161146
0.000161147
0.000161147
0.000161147
0.000161147
0.000161147
0.000161147
0.000161147
0.000161148
0.000161148
0.000161148
0.000161148
0.000161148
0.000161148
0.000161148
0.000161148
0.000161148
0.000161147
0.000161147
0.000161147
0.000161147
0.000161147
0.000161147
0.000161147
0.000161147
0.000161146
0.000161146
0.000161146
0.000161145
0.000161144
0.000161143
0.000161143
0.000161142
0.000161141
0.00016114
0.00016114
0.000161139
0.000161138
0.000161137
0.000161137
0.000161136
0.000161136
0.000161135
0.000161134
0.000161135
0.000161341
0.000161338
0.000161336
0.000161334
0.000161332
0.00016133
0.000161329
0.000161328
0.000161328
0.000161327
0.000161327
0.000161326
0.000161326
0.000161326
0.000161326
0.000161326
0.000161326
0.000161326
0.000161327
0.000161327
0.000161327
0.000161328
0.000161328
0.000161328
0.000161329
0.000161329
0.00016133
0.000161331
0.000161332
0.000161332
0.000161333
0.000161334
0.000161335
0.000161336
0.000161337
0.000161338
0.000161339
0.000161339
0.00016134
0.000161341
0.000161342
0.000161343
0.000161343
0.000161344
0.000161345
0.000161345
0.000161346
0.000161347
0.000161347
0.000161348
0.000161348
0.000161349
0.00016135
0.00016135
0.000161351
0.000161351
0.000161352
0.000161352
0.000161352
0.000161353
0.000161353
0.000161354
0.000161354
0.000161354
0.000161355
0.000161355
0.000161355
0.000161356
0.000161356
0.000161356
0.000161357
0.000161357
0.000161357
0.000161357
0.000161358
0.000161358
0.000161358
0.000161358
0.000161358
0.000161358
0.000161359
0.000161359
0.000161359
0.000161359
0.000161359
0.000161359
0.000161359
0.000161359
0.000161359
0.000161359
0.000161359
0.000161359
0.000161359
0.000161358
0.000161358
0.000161358
0.000161358
0.000161358
0.000161358
0.000161358
0.000161358
0.000161357
0.000161357
0.000161357
0.000161356
0.000161355
0.000161354
0.000161354
0.000161353
0.000161352
0.000161352
0.000161351
0.00016135
0.00016135
0.000161349
0.000161348
0.000161348
0.000161347
0.000161346
0.000161347
0.000161382
0.000161379
0.000161376
0.000161374
0.000161372
0.000161371
0.00016137
0.000161369
0.000161368
0.000161367
0.000161367
0.000161366
0.000161366
0.000161366
0.000161366
0.000161366
0.000161366
0.000161367
0.000161367
0.000161367
0.000161368
0.000161368
0.000161369
0.000161369
0.00016137
0.00016137
0.000161371
0.000161371
0.000161372
0.000161373
0.000161374
0.000161374
0.000161375
0.000161376
0.000161377
0.000161378
0.000161379
0.00016138
0.00016138
0.000161381
0.000161382
0.000161383
0.000161383
0.000161384
0.000161385
0.000161385
0.000161386
0.000161387
0.000161387
0.000161388
0.000161388
0.000161389
0.00016139
0.00016139
0.000161391
0.000161391
0.000161392
0.000161392
0.000161392
0.000161393
0.000161393
0.000161394
0.000161394
0.000161394
0.000161395
0.000161395
0.000161395
0.000161396
0.000161396
0.000161396
0.000161396
0.000161397
0.000161397
0.000161397
0.000161397
0.000161398
0.000161398
0.000161398
0.000161398
0.000161398
0.000161398
0.000161398
0.000161398
0.000161398
0.000161398
0.000161398
0.000161398
0.000161398
0.000161398
0.000161398
0.000161398
0.000161398
0.000161398
0.000161398
0.000161398
0.000161398
0.000161398
0.000161398
0.000161397
0.000161397
0.000161397
0.000161397
0.000161397
0.000161396
0.000161396
0.000161395
0.000161395
0.000161394
0.000161393
0.000161393
0.000161392
0.000161391
0.000161391
0.00016139
0.000161389
0.000161389
0.000161388
0.000161388
0.000161387
0.000161388
0.000161233
0.00016123
0.000161228
0.000161225
0.000161224
0.000161222
0.000161221
0.00016122
0.000161219
0.000161218
0.000161218
0.000161218
0.000161217
0.000161217
0.000161217
0.000161217
0.000161218
0.000161218
0.000161218
0.000161219
0.000161219
0.000161219
0.00016122
0.00016122
0.000161221
0.000161222
0.000161222
0.000161223
0.000161223
0.000161224
0.000161225
0.000161226
0.000161226
0.000161227
0.000161228
0.000161229
0.00016123
0.000161231
0.000161231
0.000161232
0.000161233
0.000161234
0.000161234
0.000161235
0.000161236
0.000161236
0.000161237
0.000161238
0.000161238
0.000161239
0.000161239
0.00016124
0.000161241
0.000161241
0.000161242
0.000161242
0.000161242
0.000161243
0.000161243
0.000161244
0.000161244
0.000161245
0.000161245
0.000161245
0.000161246
0.000161246
0.000161246
0.000161246
0.000161247
0.000161247
0.000161247
0.000161247
0.000161248
0.000161248
0.000161248
0.000161248
0.000161248
0.000161249
0.000161249
0.000161249
0.000161249
0.000161249
0.000161249
0.000161249
0.000161249
0.000161249
0.000161249
0.000161249
0.000161249
0.000161249
0.000161249
0.000161249
0.000161249
0.000161249
0.000161249
0.000161248
0.000161248
0.000161248
0.000161248
0.000161248
0.000161248
0.000161248
0.000161247
0.000161247
0.000161247
0.000161246
0.000161246
0.000161245
0.000161245
0.000161244
0.000161243
0.000161243
0.000161242
0.000161241
0.000161241
0.00016124
0.00016124
0.000161239
0.000161238
0.000161239
0.000160875
0.000160872
0.000160869
0.000160867
0.000160864
0.000160863
0.000160861
0.00016086
0.00016086
0.000160859
0.000160859
0.000160858
0.000160858
0.000160858
0.000160858
0.000160858
0.000160859
0.000160859
0.00016086
0.00016086
0.00016086
0.000160861
0.000160861
0.000160862
0.000160862
0.000160863
0.000160863
0.000160864
0.000160864
0.000160865
0.000160866
0.000160867
0.000160867
0.000160868
0.000160869
0.00016087
0.000160871
0.000160871
0.000160872
0.000160873
0.000160874
0.000160874
0.000160875
0.000160876
0.000160877
0.000160877
0.000160878
0.000160878
0.000160879
0.00016088
0.00016088
0.000160881
0.000160881
0.000160882
0.000160882
0.000160883
0.000160883
0.000160884
0.000160884
0.000160884
0.000160885
0.000160885
0.000160886
0.000160886
0.000160886
0.000160886
0.000160887
0.000160887
0.000160887
0.000160888
0.000160888
0.000160888
0.000160888
0.000160888
0.000160889
0.000160889
0.000160889
0.000160889
0.000160889
0.000160889
0.000160889
0.000160889
0.000160889
0.000160889
0.000160889
0.000160889
0.000160889
0.000160889
0.000160889
0.000160889
0.000160889
0.000160889
0.000160889
0.000160889
0.000160889
0.000160889
0.000160889
0.000160889
0.000160888
0.000160888
0.000160888
0.000160888
0.000160888
0.000160887
0.000160887
0.000160887
0.000160886
0.000160886
0.000160885
0.000160885
0.000160884
0.000160884
0.000160883
0.000160882
0.000160882
0.000160881
0.000160881
0.00016088
0.000160879
0.00016088
0.00016028
0.000160277
0.000160274
0.000160272
0.000160269
0.000160268
0.000160266
0.000160265
0.000160265
0.000160264
0.000160264
0.000160263
0.000160263
0.000160263
0.000160263
0.000160264
0.000160264
0.000160264
0.000160265
0.000160265
0.000160266
0.000160266
0.000160267
0.000160267
0.000160268
0.000160268
0.000160269
0.000160269
0.00016027
0.000160271
0.000160271
0.000160272
0.000160273
0.000160273
0.000160274
0.000160275
0.000160276
0.000160277
0.000160277
0.000160278
0.000160279
0.00016028
0.00016028
0.000160281
0.000160282
0.000160282
0.000160283
0.000160283
0.000160284
0.000160285
0.000160285
0.000160286
0.000160286
0.000160287
0.000160287
0.000160288
0.000160288
0.000160288
0.000160289
0.000160289
0.00016029
0.00016029
0.00016029
0.000160291
0.000160291
0.000160291
0.000160292
0.000160292
0.000160292
0.000160292
0.000160292
0.000160293
0.000160293
0.000160293
0.000160293
0.000160293
0.000160294
0.000160294
0.000160294
0.000160294
0.000160294
0.000160294
0.000160294
0.000160294
0.000160294
0.000160294
0.000160294
0.000160294
0.000160294
0.000160294
0.000160294
0.000160294
0.000160294
0.000160294
0.000160293
0.000160293
0.000160293
0.000160293
0.000160293
0.000160293
0.000160293
0.000160292
0.000160292
0.000160292
0.000160292
0.000160292
0.000160291
0.000160291
0.00016029
0.00016029
0.000160289
0.000160289
0.000160288
0.000160288
0.000160287
0.000160286
0.000160286
0.000160285
0.000160284
0.000160285
0.000159419
0.000159415
0.000159412
0.00015941
0.000159407
0.000159406
0.000159404
0.000159403
0.000159403
0.000159402
0.000159402
0.000159402
0.000159401
0.000159401
0.000159402
0.000159402
0.000159402
0.000159403
0.000159403
0.000159404
0.000159404
0.000159405
0.000159405
0.000159406
0.000159406
0.000159407
0.000159407
0.000159408
0.000159408
0.000159409
0.00015941
0.00015941
0.000159411
0.000159412
0.000159412
0.000159413
0.000159414
0.000159415
0.000159415
0.000159416
0.000159417
0.000159418
0.000159418
0.000159419
0.00015942
0.00015942
0.000159421
0.000159421
0.000159422
0.000159423
0.000159423
0.000159424
0.000159424
0.000159425
0.000159425
0.000159425
0.000159426
0.000159426
0.000159427
0.000159427
0.000159427
0.000159428
0.000159428
0.000159428
0.000159429
0.000159429
0.000159429
0.000159429
0.00015943
0.00015943
0.00015943
0.00015943
0.000159431
0.000159431
0.000159431
0.000159431
0.000159431
0.000159431
0.000159431
0.000159431
0.000159432
0.000159432
0.000159432
0.000159432
0.000159432
0.000159432
0.000159432
0.000159432
0.000159432
0.000159432
0.000159431
0.000159431
0.000159431
0.000159431
0.000159431
0.000159431
0.000159431
0.000159431
0.00015943
0.00015943
0.00015943
0.00015943
0.00015943
0.00015943
0.000159429
0.000159429
0.000159429
0.000159429
0.000159428
0.000159428
0.000159427
0.000159427
0.000159426
0.000159426
0.000159425
0.000159424
0.000159424
0.000159423
0.000159423
0.000159423
0.000158252
0.000158248
0.000158245
0.000158243
0.00015824
0.000158238
0.000158237
0.000158236
0.000158236
0.000158235
0.000158235
0.000158234
0.000158234
0.000158234
0.000158235
0.000158235
0.000158235
0.000158236
0.000158236
0.000158237
0.000158237
0.000158238
0.000158238
0.000158239
0.000158239
0.00015824
0.000158241
0.000158241
0.000158242
0.000158242
0.000158243
0.000158243
0.000158244
0.000158245
0.000158245
0.000158246
0.000158247
0.000158247
0.000158248
0.000158249
0.00015825
0.00015825
0.000158251
0.000158252
0.000158252
0.000158253
0.000158253
0.000158254
0.000158255
0.000158255
0.000158256
0.000158256
0.000158257
0.000158257
0.000158258
0.000158258
0.000158258
0.000158259
0.000158259
0.00015826
0.00015826
0.00015826
0.000158261
0.000158261
0.000158261
0.000158261
0.000158262
0.000158262
0.000158262
0.000158262
0.000158263
0.000158263
0.000158263
0.000158263
0.000158263
0.000158263
0.000158263
0.000158264
0.000158264
0.000158264
0.000158264
0.000158264
0.000158264
0.000158264
0.000158264
0.000158264
0.000158264
0.000158264
0.000158264
0.000158264
0.000158264
0.000158264
0.000158264
0.000158263
0.000158263
0.000158263
0.000158263
0.000158263
0.000158263
0.000158263
0.000158262
0.000158262
0.000158262
0.000158262
0.000158262
0.000158262
0.000158261
0.000158261
0.000158261
0.00015826
0.00015826
0.000158259
0.000158259
0.000158258
0.000158258
0.000158257
0.000158257
0.000158256
0.000158256
0.000158256
0.000156732
0.000156729
0.000156725
0.000156723
0.00015672
0.000156718
0.000156717
0.000156716
0.000156716
0.000156715
0.000156715
0.000156715
0.000156715
0.000156715
0.000156715
0.000156715
0.000156716
0.000156716
0.000156717
0.000156717
0.000156718
0.000156718
0.000156719
0.000156719
0.00015672
0.000156721
0.000156721
0.000156722
0.000156722
0.000156723
0.000156723
0.000156724
0.000156725
0.000156725
0.000156726
0.000156726
0.000156727
0.000156728
0.000156728
0.000156729
0.00015673
0.00015673
0.000156731
0.000156732
0.000156732
0.000156733
0.000156733
0.000156734
0.000156735
0.000156735
0.000156736
0.000156736
0.000156737
0.000156737
0.000156737
0.000156738
0.000156738
0.000156739
0.000156739
0.000156739
0.00015674
0.00015674
0.00015674
0.000156741
0.000156741
0.000156741
0.000156741
0.000156742
0.000156742
0.000156742
0.000156742
0.000156742
0.000156743
0.000156743
0.000156743
0.000156743
0.000156743
0.000156743
0.000156743
0.000156743
0.000156743
0.000156743
0.000156744
0.000156744
0.000156744
0.000156744
0.000156744
0.000156743
0.000156743
0.000156743
0.000156743
0.000156743
0.000156743
0.000156743
0.000156743
0.000156743
0.000156743
0.000156743
0.000156742
0.000156742
0.000156742
0.000156742
0.000156742
0.000156742
0.000156741
0.000156741
0.000156741
0.000156741
0.00015674
0.00015674
0.00015674
0.000156739
0.000156739
0.000156738
0.000156738
0.000156737
0.000156737
0.000156736
0.000156736
0.000156736
0.000154801
0.000154797
0.000154794
0.000154791
0.000154789
0.000154787
0.000154785
0.000154785
0.000154784
0.000154784
0.000154784
0.000154784
0.000154783
0.000154783
0.000154784
0.000154784
0.000154785
0.000154785
0.000154786
0.000154786
0.000154787
0.000154787
0.000154788
0.000154788
0.000154789
0.00015479
0.00015479
0.000154791
0.000154791
0.000154792
0.000154792
0.000154793
0.000154793
0.000154794
0.000154794
0.000154795
0.000154796
0.000154796
0.000154797
0.000154798
0.000154798
0.000154799
0.000154799
0.0001548
0.000154801
0.000154801
0.000154802
0.000154802
0.000154803
0.000154803
0.000154804
0.000154804
0.000154805
0.000154805
0.000154806
0.000154806
0.000154806
0.000154807
0.000154807
0.000154807
0.000154808
0.000154808
0.000154808
0.000154809
0.000154809
0.000154809
0.000154809
0.00015481
0.00015481
0.00015481
0.00015481
0.00015481
0.00015481
0.000154811
0.000154811
0.000154811
0.000154811
0.000154811
0.000154811
0.000154811
0.000154811
0.000154811
0.000154811
0.000154811
0.000154811
0.000154811
0.000154811
0.000154811
0.000154811
0.000154811
0.000154811
0.000154811
0.000154811
0.000154811
0.000154811
0.000154811
0.000154811
0.000154811
0.00015481
0.00015481
0.00015481
0.00015481
0.00015481
0.00015481
0.000154809
0.000154809
0.000154809
0.000154809
0.000154809
0.000154808
0.000154808
0.000154807
0.000154807
0.000154807
0.000154806
0.000154806
0.000154805
0.000154805
0.000154804
0.000154805
0.000152384
0.00015238
0.000152377
0.000152374
0.000152371
0.000152369
0.000152368
0.000152368
0.000152367
0.000152367
0.000152367
0.000152367
0.000152366
0.000152367
0.000152367
0.000152367
0.000152368
0.000152369
0.000152369
0.000152369
0.00015237
0.00015237
0.000152371
0.000152372
0.000152372
0.000152373
0.000152373
0.000152374
0.000152374
0.000152375
0.000152375
0.000152376
0.000152376
0.000152377
0.000152377
0.000152378
0.000152378
0.000152379
0.00015238
0.00015238
0.000152381
0.000152381
0.000152382
0.000152383
0.000152383
0.000152384
0.000152384
0.000152385
0.000152385
0.000152386
0.000152386
0.000152387
0.000152387
0.000152388
0.000152388
0.000152388
0.000152389
0.000152389
0.000152389
0.00015239
0.00015239
0.00015239
0.000152391
0.000152391
0.000152391
0.000152391
0.000152392
0.000152392
0.000152392
0.000152392
0.000152392
0.000152393
0.000152393
0.000152393
0.000152393
0.000152393
0.000152393
0.000152393
0.000152393
0.000152393
0.000152394
0.000152394
0.000152394
0.000152394
0.000152394
0.000152394
0.000152394
0.000152394
0.000152394
0.000152394
0.000152393
0.000152393
0.000152393
0.000152393
0.000152393
0.000152393
0.000152393
0.000152393
0.000152393
0.000152393
0.000152392
0.000152392
0.000152392
0.000152392
0.000152392
0.000152392
0.000152391
0.000152391
0.000152391
0.000152391
0.00015239
0.00015239
0.00015239
0.000152389
0.000152389
0.000152388
0.000152388
0.000152388
0.000152387
0.000152388
0.000149388
0.000149384
0.00014938
0.000149377
0.000149375
0.000149373
0.000149372
0.000149371
0.000149371
0.000149371
0.000149371
0.00014937
0.00014937
0.000149371
0.000149371
0.000149371
0.000149372
0.000149373
0.000149373
0.000149373
0.000149374
0.000149374
0.000149375
0.000149375
0.000149376
0.000149377
0.000149377
0.000149378
0.000149378
0.000149379
0.000149379
0.00014938
0.00014938
0.000149381
0.000149381
0.000149382
0.000149382
0.000149383
0.000149383
0.000149384
0.000149384
0.000149385
0.000149385
0.000149386
0.000149386
0.000149387
0.000149388
0.000149388
0.000149389
0.000149389
0.000149389
0.00014939
0.00014939
0.000149391
0.000149391
0.000149391
0.000149392
0.000149392
0.000149392
0.000149393
0.000149393
0.000149393
0.000149394
0.000149394
0.000149394
0.000149394
0.000149395
0.000149395
0.000149395
0.000149395
0.000149395
0.000149395
0.000149396
0.000149396
0.000149396
0.000149396
0.000149396
0.000149396
0.000149396
0.000149396
0.000149396
0.000149397
0.000149397
0.000149397
0.000149397
0.000149397
0.000149397
0.000149397
0.000149397
0.000149396
0.000149396
0.000149396
0.000149396
0.000149396
0.000149396
0.000149396
0.000149396
0.000149396
0.000149396
0.000149396
0.000149395
0.000149395
0.000149395
0.000149395
0.000149395
0.000149395
0.000149394
0.000149394
0.000149394
0.000149394
0.000149394
0.000149393
0.000149393
0.000149393
0.000149392
0.000149392
0.000149391
0.000149391
0.00014939
0.000149391
0.000145693
0.000145689
0.000145685
0.000145682
0.00014568
0.000145678
0.000145677
0.000145677
0.000145677
0.000145677
0.000145676
0.000145676
0.000145676
0.000145676
0.000145677
0.000145677
0.000145678
0.000145678
0.000145679
0.000145679
0.00014568
0.00014568
0.000145681
0.000145681
0.000145682
0.000145682
0.000145683
0.000145683
0.000145684
0.000145684
0.000145685
0.000145685
0.000145686
0.000145686
0.000145686
0.000145687
0.000145687
0.000145688
0.000145688
0.000145689
0.000145689
0.00014569
0.000145691
0.000145691
0.000145692
0.000145692
0.000145693
0.000145693
0.000145693
0.000145694
0.000145694
0.000145695
0.000145695
0.000145696
0.000145696
0.000145696
0.000145697
0.000145697
0.000145697
0.000145698
0.000145698
0.000145698
0.000145698
0.000145699
0.000145699
0.000145699
0.000145699
0.000145699
0.0001457
0.0001457
0.0001457
0.0001457
0.0001457
0.0001457
0.000145701
0.000145701
0.000145701
0.000145701
0.000145701
0.000145701
0.000145701
0.000145701
0.000145701
0.000145701
0.000145701
0.000145701
0.000145701
0.000145701
0.000145701
0.000145701
0.000145701
0.000145701
0.000145701
0.000145701
0.000145701
0.000145701
0.000145701
0.000145701
0.0001457
0.0001457
0.0001457
0.0001457
0.0001457
0.0001457
0.0001457
0.000145699
0.000145699
0.000145699
0.000145699
0.000145699
0.000145699
0.000145698
0.000145698
0.000145698
0.000145697
0.000145697
0.000145697
0.000145696
0.000145696
0.000145696
0.000141148
0.000141144
0.000141141
0.000141138
0.000141135
0.000141134
0.000141133
0.000141133
0.000141133
0.000141132
0.000141132
0.000141132
0.000141132
0.000141132
0.000141133
0.000141133
0.000141134
0.000141134
0.000141135
0.000141135
0.000141136
0.000141136
0.000141137
0.000141137
0.000141138
0.000141138
0.000141139
0.000141139
0.000141139
0.00014114
0.00014114
0.000141141
0.000141141
0.000141142
0.000141142
0.000141142
0.000141143
0.000141143
0.000141144
0.000141144
0.000141145
0.000141145
0.000141146
0.000141146
0.000141147
0.000141147
0.000141148
0.000141148
0.000141149
0.000141149
0.000141149
0.00014115
0.00014115
0.000141151
0.000141151
0.000141151
0.000141152
0.000141152
0.000141152
0.000141152
0.000141153
0.000141153
0.000141153
0.000141154
0.000141154
0.000141154
0.000141154
0.000141154
0.000141155
0.000141155
0.000141155
0.000141155
0.000141155
0.000141155
0.000141155
0.000141156
0.000141156
0.000141156
0.000141156
0.000141156
0.000141156
0.000141156
0.000141156
0.000141156
0.000141156
0.000141156
0.000141156
0.000141156
0.000141156
0.000141156
0.000141156
0.000141156
0.000141156
0.000141156
0.000141156
0.000141156
0.000141156
0.000141155
0.000141155
0.000141155
0.000141155
0.000141155
0.000141155
0.000141155
0.000141155
0.000141154
0.000141154
0.000141154
0.000141154
0.000141154
0.000141154
0.000141153
0.000141153
0.000141153
0.000141153
0.000141152
0.000141152
0.000141152
0.000141151
0.000141152
0.000135561
0.000135557
0.000135553
0.00013555
0.000135548
0.000135546
0.000135546
0.000135545
0.000135545
0.000135545
0.000135545
0.000135545
0.000135545
0.000135545
0.000135545
0.000135546
0.000135547
0.000135547
0.000135548
0.000135548
0.000135548
0.000135549
0.000135549
0.00013555
0.00013555
0.000135551
0.000135551
0.000135552
0.000135552
0.000135552
0.000135553
0.000135553
0.000135554
0.000135554
0.000135554
0.000135555
0.000135555
0.000135555
0.000135556
0.000135556
0.000135557
0.000135557
0.000135558
0.000135558
0.000135559
0.000135559
0.000135559
0.00013556
0.00013556
0.000135561
0.000135561
0.000135562
0.000135562
0.000135562
0.000135563
0.000135563
0.000135563
0.000135564
0.000135564
0.000135564
0.000135564
0.000135565
0.000135565
0.000135565
0.000135565
0.000135565
0.000135566
0.000135566
0.000135566
0.000135566
0.000135566
0.000135567
0.000135567
0.000135567
0.000135567
0.000135567
0.000135567
0.000135567
0.000135567
0.000135567
0.000135567
0.000135568
0.000135568
0.000135568
0.000135568
0.000135568
0.000135568
0.000135568
0.000135568
0.000135568
0.000135568
0.000135568
0.000135568
0.000135567
0.000135567
0.000135567
0.000135567
0.000135567
0.000135567
0.000135567
0.000135567
0.000135567
0.000135567
0.000135566
0.000135566