/*--------------------------------*- C++ -*----------------------------------*\
  =========                 |
  \\      /  F ield         | OpenFOAM: The Open Source CFD Toolbox
   \\    /   O peration     | Website:  https://openfoam.org
    \\  /    A nd           | Version:  7
     \\/     M anipulation  |
\*---------------------------------------------------------------------------*/
FoamFile
{
    version     2.0;
    format      ascii;
    class       volScalarField;
    location    "2500";
    object      nut;
}
// * * * * * * * * * * * * * * * * * * * * * * * * * * * * * * * * * * * * * //

dimensions      [0 2 -1 0 0 0 0];

internalField   nonuniform List<scalar> 
4037
(
0.000256043
0.000256051
0.000256056
0.000256061
0.000256064
0.000256067
0.00025607
0.000256072
0.000256075
0.000256077
0.000256079
0.000256081
0.000256082
0.000256084
0.000256086
0.000256087
0.000256089
0.00025609
0.000256092
0.000256093
0.000256095
0.000256096
0.000256097
0.000256099
0.0002561
0.000256101
0.000256103
0.000256104
0.000256105
0.000256106
0.000256107
0.000256108
0.00025611
0.000256111
0.000256112
0.000256113
0.000256114
0.000256115
0.000256116
0.000256117
0.000256118
0.000256118
0.000256119
0.00025612
0.000256121
0.000256121
0.000256122
0.000256122
0.000256123
0.000256123
0.000256124
0.000256124
0.000256124
0.000256124
0.000256125
0.000256125
0.000256125
0.000256125
0.000256125
0.000256124
0.000256124
0.000256124
0.000256124
0.000256123
0.000256123
0.000256123
0.000256122
0.000256122
0.000256121
0.000256121
0.00025612
0.00025612
0.000256119
0.000256118
0.000256118
0.000256117
0.000256118
0.000243478
0.000243472
0.000243471
0.000243471
0.000243471
0.000243471
0.000243471
0.000243471
0.000243471
0.000243471
0.000243472
0.000243472
0.000243472
0.000243472
0.000243473
0.000243473
0.000243474
0.000243474
0.000243475
0.000243475
0.000243476
0.000243476
0.000243477
0.000243476
0.000243491
0.0002435
0.000243507
0.000243511
0.000243515
0.000243518
0.000243521
0.000243524
0.000243526
0.000243528
0.00024353
0.000243532
0.000243534
0.000243536
0.000243538
0.000243539
0.000243541
0.000243542
0.000243544
0.000243545
0.000243547
0.000243548
0.000243549
0.000243551
0.000243552
0.000243553
0.000243554
0.000243556
0.000243557
0.000243558
0.000243559
0.00024356
0.000243561
0.000243562
0.000243563
0.000243564
0.000243565
0.000243566
0.000243567
0.000243568
0.000243569
0.00024357
0.000243571
0.000243571
0.000243572
0.000243573
0.000243573
0.000243574
0.000243574
0.000243575
0.000243575
0.000243575
0.000243576
0.000243576
0.000243576
0.000243576
0.000243576
0.000243576
0.000243576
0.000243576
0.000243576
0.000243575
0.000243575
0.000243575
0.000243575
0.000243574
0.000243574
0.000243573
0.000243573
0.000243573
0.000243572
0.000243572
0.000243571
0.000243571
0.00024357
0.000243569
0.000243571
0.000243547
0.000243537
0.000243532
0.000243529
0.000243526
0.000243523
0.000243521
0.000243519
0.000243517
0.000243515
0.000243513
0.000243511
0.000243509
0.000243508
0.000243506
0.000243505
0.000243504
0.000243501
0.000243504
0.000231235
0.000231229
0.000231227
0.000231226
0.000231226
0.000231226
0.000231226
0.000231226
0.000231227
0.000231227
0.000231227
0.000231227
0.000231228
0.000231228
0.000231228
0.000231229
0.000231229
0.00023123
0.00023123
0.000231231
0.000231231
0.000231232
0.000231232
0.000231232
0.000231239
0.000231246
0.000231252
0.000231257
0.00023126
0.000231264
0.000231267
0.000231269
0.000231272
0.000231274
0.000231276
0.000231278
0.00023128
0.000231281
0.000231283
0.000231285
0.000231286
0.000231288
0.000231289
0.000231291
0.000231292
0.000231293
0.000231295
0.000231296
0.000231297
0.000231298
0.0002313
0.000231301
0.000231302
0.000231303
0.000231304
0.000231305
0.000231306
0.000231307
0.000231308
0.000231309
0.00023131
0.000231311
0.000231312
0.000231313
0.000231314
0.000231314
0.000231315
0.000231316
0.000231316
0.000231317
0.000231318
0.000231318
0.000231319
0.000231319
0.000231319
0.00023132
0.00023132
0.00023132
0.00023132
0.00023132
0.00023132
0.00023132
0.00023132
0.00023132
0.00023132
0.00023132
0.00023132
0.00023132
0.000231319
0.000231319
0.000231319
0.000231318
0.000231318
0.000231318
0.000231317
0.000231317
0.000231316
0.000231316
0.000231315
0.000231315
0.000231316
0.000231305
0.000231296
0.00023129
0.000231286
0.000231283
0.00023128
0.000231278
0.000231276
0.000231274
0.000231272
0.00023127
0.000231268
0.000231267
0.000231265
0.000231264
0.000231262
0.000231261
0.000231259
0.000231262
0.000219267
0.00021926
0.000219258
0.000219257
0.000219257
0.000219257
0.000219257
0.000219257
0.000219257
0.000219258
0.000219258
0.000219258
0.000219258
0.000219259
0.000219259
0.00021926
0.00021926
0.000219261
0.000219261
0.000219262
0.000219262
0.000219263
0.000219263
0.000219263
0.000219266
0.000219271
0.000219276
0.00021928
0.000219283
0.000219286
0.000219289
0.000219292
0.000219294
0.000219296
0.000219298
0.0002193
0.000219302
0.000219304
0.000219305
0.000219307
0.000219308
0.00021931
0.000219311
0.000219313
0.000219314
0.000219315
0.000219317
0.000219318
0.000219319
0.00021932
0.000219321
0.000219322
0.000219324
0.000219325
0.000219326
0.000219327
0.000219328
0.000219329
0.00021933
0.000219331
0.000219332
0.000219332
0.000219333
0.000219334
0.000219335
0.000219335
0.000219336
0.000219337
0.000219337
0.000219338
0.000219339
0.000219339
0.000219339
0.00021934
0.00021934
0.000219341
0.000219341
0.000219341
0.000219341
0.000219341
0.000219341
0.000219341
0.000219341
0.000219341
0.000219341
0.000219341
0.000219341
0.000219341
0.00021934
0.00021934
0.00021934
0.00021934
0.000219339
0.000219339
0.000219338
0.000219338
0.000219338
0.000219337
0.000219337
0.000219336
0.000219337
0.000219332
0.000219326
0.000219321
0.000219317
0.000219314
0.000219311
0.000219309
0.000219307
0.000219305
0.000219303
0.000219301
0.0002193
0.000219298
0.000219297
0.000219295
0.000219294
0.000219293
0.000219291
0.000219294
0.000207558
0.000207551
0.000207548
0.000207548
0.000207547
0.000207547
0.000207547
0.000207547
0.000207548
0.000207548
0.000207548
0.000207548
0.000207549
0.000207549
0.00020755
0.00020755
0.000207551
0.000207551
0.000207552
0.000207552
0.000207553
0.000207553
0.000207554
0.000207554
0.000207556
0.000207559
0.000207562
0.000207565
0.000207568
0.000207571
0.000207574
0.000207576
0.000207578
0.00020758
0.000207582
0.000207584
0.000207586
0.000207587
0.000207589
0.00020759
0.000207592
0.000207593
0.000207595
0.000207596
0.000207597
0.000207599
0.0002076
0.000207601
0.000207602
0.000207603
0.000207604
0.000207605
0.000207607
0.000207608
0.000207609
0.00020761
0.00020761
0.000207611
0.000207612
0.000207613
0.000207614
0.000207615
0.000207616
0.000207616
0.000207617
0.000207618
0.000207618
0.000207619
0.00020762
0.00020762
0.000207621
0.000207621
0.000207622
0.000207622
0.000207622
0.000207623
0.000207623
0.000207623
0.000207623
0.000207623
0.000207623
0.000207623
0.000207623
0.000207623
0.000207623
0.000207623
0.000207623
0.000207623
0.000207623
0.000207622
0.000207622
0.000207622
0.000207622
0.000207621
0.000207621
0.000207621
0.00020762
0.00020762
0.00020762
0.000207619
0.000207619
0.000207617
0.000207614
0.00020761
0.000207606
0.000207603
0.000207601
0.000207599
0.000207597
0.000207595
0.000207593
0.000207592
0.00020759
0.000207589
0.000207588
0.000207586
0.000207585
0.000207584
0.000207582
0.000207586
0.000196095
0.000196088
0.000196085
0.000196085
0.000196084
0.000196084
0.000196084
0.000196084
0.000196084
0.000196085
0.000196085
0.000196085
0.000196086
0.000196086
0.000196086
0.000196087
0.000196088
0.000196088
0.000196089
0.000196089
0.00019609
0.00019609
0.000196091
0.000196091
0.000196092
0.000196094
0.000196096
0.000196099
0.000196101
0.000196104
0.000196106
0.000196108
0.00019611
0.000196112
0.000196114
0.000196115
0.000196117
0.000196119
0.00019612
0.000196122
0.000196123
0.000196124
0.000196126
0.000196127
0.000196128
0.000196129
0.00019613
0.000196132
0.000196133
0.000196134
0.000196135
0.000196136
0.000196137
0.000196138
0.000196139
0.00019614
0.000196141
0.000196141
0.000196142
0.000196143
0.000196144
0.000196145
0.000196145
0.000196146
0.000196147
0.000196147
0.000196148
0.000196149
0.000196149
0.00019615
0.00019615
0.000196151
0.000196151
0.000196151
0.000196152
0.000196152
0.000196152
0.000196152
0.000196153
0.000196153
0.000196153
0.000196153
0.000196153
0.000196153
0.000196153
0.000196153
0.000196152
0.000196152
0.000196152
0.000196152
0.000196152
0.000196151
0.000196151
0.000196151
0.000196151
0.00019615
0.00019615
0.00019615
0.000196149
0.000196149
0.000196149
0.000196148
0.000196146
0.000196143
0.000196141
0.000196138
0.000196136
0.000196134
0.000196132
0.000196131
0.000196129
0.000196128
0.000196126
0.000196125
0.000196124
0.000196123
0.000196122
0.000196121
0.000196119
0.000196123
0.000184865
0.000184859
0.000184856
0.000184856
0.000184855
0.000184855
0.000184855
0.000184855
0.000184855
0.000184856
0.000184856
0.000184856
0.000184856
0.000184857
0.000184857
0.000184858
0.000184859
0.000184859
0.00018486
0.00018486
0.000184861
0.000184861
0.000184862
0.000184862
0.000184863
0.000184864
0.000184866
0.000184868
0.00018487
0.000184871
0.000184873
0.000184875
0.000184877
0.000184879
0.00018488
0.000184882
0.000184884
0.000184885
0.000184886
0.000184888
0.000184889
0.00018489
0.000184892
0.000184893
0.000184894
0.000184895
0.000184896
0.000184897
0.000184898
0.000184899
0.0001849
0.000184901
0.000184902
0.000184903
0.000184904
0.000184905
0.000184906
0.000184907
0.000184907
0.000184908
0.000184909
0.00018491
0.00018491
0.000184911
0.000184911
0.000184912
0.000184913
0.000184913
0.000184914
0.000184914
0.000184915
0.000184915
0.000184915
0.000184916
0.000184916
0.000184916
0.000184916
0.000184917
0.000184917
0.000184917
0.000184917
0.000184917
0.000184917
0.000184917
0.000184917
0.000184917
0.000184917
0.000184917
0.000184917
0.000184916
0.000184916
0.000184916
0.000184916
0.000184916
0.000184915
0.000184915
0.000184915
0.000184915
0.000184914
0.000184914
0.000184914
0.000184913
0.000184912
0.000184911
0.000184909
0.000184907
0.000184905
0.000184903
0.000184902
0.0001849
0.000184899
0.000184898
0.000184896
0.000184895
0.000184894
0.000184893
0.000184892
0.000184891
0.000184889
0.000184893
0.00017386
0.000173853
0.000173851
0.00017385
0.000173849
0.000173849
0.000173849
0.000173849
0.00017385
0.00017385
0.00017385
0.000173851
0.000173851
0.000173851
0.000173852
0.000173852
0.000173853
0.000173853
0.000173854
0.000173855
0.000173855
0.000173856
0.000173856
0.000173857
0.000173857
0.000173858
0.000173859
0.000173861
0.000173862
0.000173864
0.000173865
0.000173867
0.000173869
0.00017387
0.000173872
0.000173873
0.000173874
0.000173876
0.000173877
0.000173878
0.00017388
0.000173881
0.000173882
0.000173883
0.000173884
0.000173885
0.000173886
0.000173887
0.000173888
0.000173889
0.00017389
0.000173891
0.000173892
0.000173893
0.000173893
0.000173894
0.000173895
0.000173896
0.000173896
0.000173897
0.000173898
0.000173899
0.000173899
0.0001739
0.0001739
0.000173901
0.000173901
0.000173902
0.000173902
0.000173903
0.000173903
0.000173903
0.000173904
0.000173904
0.000173904
0.000173905
0.000173905
0.000173905
0.000173905
0.000173905
0.000173905
0.000173906
0.000173906
0.000173906
0.000173905
0.000173905
0.000173905
0.000173905
0.000173905
0.000173905
0.000173905
0.000173905
0.000173904
0.000173904
0.000173904
0.000173904
0.000173904
0.000173903
0.000173903
0.000173903
0.000173903
0.000173902
0.000173902
0.000173901
0.000173899
0.000173898
0.000173897
0.000173895
0.000173894
0.000173893
0.000173891
0.00017389
0.000173889
0.000173888
0.000173887
0.000173886
0.000173885
0.000173885
0.000173883
0.000173887
0.000163068
0.000163061
0.000163059
0.000163058
0.000163058
0.000163058
0.000163058
0.000163058
0.000163058
0.000163059
0.000163059
0.000163059
0.000163059
0.00016306
0.00016306
0.000163061
0.000163061
0.000163062
0.000163063
0.000163063
0.000163064
0.000163064
0.000163065
0.000163065
0.000163066
0.000163067
0.000163067
0.000163068
0.00016307
0.000163071
0.000163072
0.000163074
0.000163075
0.000163076
0.000163078
0.000163079
0.00016308
0.000163081
0.000163082
0.000163084
0.000163085
0.000163086
0.000163087
0.000163088
0.000163089
0.00016309
0.000163091
0.000163092
0.000163093
0.000163094
0.000163094
0.000163095
0.000163096
0.000163097
0.000163098
0.000163098
0.000163099
0.0001631
0.0001631
0.000163101
0.000163102
0.000163102
0.000163103
0.000163103
0.000163104
0.000163104
0.000163105
0.000163105
0.000163106
0.000163106
0.000163106
0.000163107
0.000163107
0.000163107
0.000163108
0.000163108
0.000163108
0.000163108
0.000163108
0.000163109
0.000163109
0.000163109
0.000163109
0.000163109
0.000163109
0.000163109
0.000163109
0.000163109
0.000163108
0.000163108
0.000163108
0.000163108
0.000163108
0.000163108
0.000163107
0.000163107
0.000163107
0.000163107
0.000163107
0.000163106
0.000163106
0.000163106
0.000163106
0.000163105
0.000163104
0.000163103
0.000163102
0.000163101
0.0001631
0.000163099
0.000163098
0.000163097
0.000163096
0.000163095
0.000163094
0.000163093
0.000163092
0.000163092
0.00016309
0.000163094
0.000152483
0.000152476
0.000152474
0.000152474
0.000152473
0.000152473
0.000152473
0.000152473
0.000152473
0.000152474
0.000152474
0.000152474
0.000152474
0.000152475
0.000152475
0.000152476
0.000152477
0.000152477
0.000152478
0.000152478
0.000152479
0.000152479
0.00015248
0.00015248
0.000152481
0.000152481
0.000152482
0.000152483
0.000152484
0.000152485
0.000152486
0.000152487
0.000152488
0.000152489
0.000152491
0.000152492
0.000152493
0.000152494
0.000152495
0.000152496
0.000152497
0.000152498
0.000152499
0.0001525
0.000152501
0.000152502
0.000152503
0.000152504
0.000152504
0.000152505
0.000152506
0.000152507
0.000152507
0.000152508
0.000152509
0.00015251
0.00015251
0.000152511
0.000152511
0.000152512
0.000152513
0.000152513
0.000152514
0.000152514
0.000152515
0.000152515
0.000152515
0.000152516
0.000152516
0.000152517
0.000152517
0.000152517
0.000152517
0.000152518
0.000152518
0.000152518
0.000152518
0.000152519
0.000152519
0.000152519
0.000152519
0.000152519
0.000152519
0.000152519
0.000152519
0.000152519
0.000152519
0.000152519
0.000152519
0.000152519
0.000152519
0.000152518
0.000152518
0.000152518
0.000152518
0.000152518
0.000152518
0.000152517
0.000152517
0.000152517
0.000152517
0.000152517
0.000152516
0.000152516
0.000152515
0.000152515
0.000152514
0.000152513
0.000152512
0.000152511
0.000152511
0.00015251
0.000152509
0.000152508
0.000152507
0.000152507
0.000152506
0.000152505
0.000152504
0.000152508
0.000142098
0.000142092
0.00014209
0.000142089
0.000142089
0.000142089
0.000142089
0.000142089
0.000142089
0.000142089
0.00014209
0.00014209
0.00014209
0.000142091
0.000142091
0.000142092
0.000142092
0.000142093
0.000142093
0.000142094
0.000142094
0.000142095
0.000142095
0.000142096
0.000142096
0.000142097
0.000142098
0.000142098
0.000142099
0.0001421
0.000142101
0.000142102
0.000142103
0.000142104
0.000142105
0.000142106
0.000142107
0.000142107
0.000142108
0.000142109
0.00014211
0.000142111
0.000142112
0.000142113
0.000142114
0.000142115
0.000142115
0.000142116
0.000142117
0.000142118
0.000142118
0.000142119
0.00014212
0.00014212
0.000142121
0.000142122
0.000142122
0.000142123
0.000142123
0.000142124
0.000142124
0.000142125
0.000142125
0.000142126
0.000142126
0.000142127
0.000142127
0.000142127
0.000142128
0.000142128
0.000142128
0.000142129
0.000142129
0.000142129
0.000142129
0.00014213
0.00014213
0.00014213
0.00014213
0.00014213
0.00014213
0.00014213
0.00014213
0.00014213
0.00014213
0.00014213
0.00014213
0.00014213
0.00014213
0.00014213
0.00014213
0.00014213
0.00014213
0.00014213
0.000142129
0.000142129
0.000142129
0.000142129
0.000142129
0.000142129
0.000142128
0.000142128
0.000142128
0.000142128
0.000142127
0.000142127
0.000142126
0.000142126
0.000142125
0.000142124
0.000142124
0.000142123
0.000142122
0.000142122
0.000142121
0.00014212
0.00014212
0.000142119
0.000142118
0.000142122
0.000131909
0.000131904
0.000131902
0.000131901
0.000131901
0.000131901
0.000131901
0.000131901
0.000131901
0.000131902
0.000131902
0.000131902
0.000131902
0.000131903
0.000131903
0.000131904
0.000131904
0.000131905
0.000131905
0.000131906
0.000131906
0.000131907
0.000131907
0.000131908
0.000131908
0.000131909
0.000131909
0.00013191
0.00013191
0.000131911
0.000131912
0.000131913
0.000131914
0.000131914
0.000131915
0.000131916
0.000131917
0.000131918
0.000131919
0.000131919
0.00013192
0.000131921
0.000131922
0.000131923
0.000131923
0.000131924
0.000131925
0.000131926
0.000131926
0.000131927
0.000131928
0.000131928
0.000131929
0.000131929
0.00013193
0.000131931
0.000131931
0.000131932
0.000131932
0.000131933
0.000131933
0.000131933
0.000131934
0.000131934
0.000131935
0.000131935
0.000131935
0.000131936
0.000131936
0.000131936
0.000131936
0.000131937
0.000131937
0.000131937
0.000131937
0.000131938
0.000131938
0.000131938
0.000131938
0.000131938
0.000131938
0.000131938
0.000131938
0.000131938
0.000131938
0.000131938
0.000131938
0.000131938
0.000131938
0.000131938
0.000131938
0.000131938
0.000131938
0.000131938
0.000131938
0.000131937
0.000131937
0.000131937
0.000131937
0.000131937
0.000131937
0.000131937
0.000131936
0.000131936
0.000131936
0.000131936
0.000131935
0.000131935
0.000131934
0.000131934
0.000131933
0.000131933
0.000131932
0.000131931
0.000131931
0.00013193
0.00013193
0.000131929
0.000131928
0.000131932
0.000121915
0.00012191
0.000121908
0.000121907
0.000121907
0.000121907
0.000121907
0.000121907
0.000121907
0.000121908
0.000121908
0.000121908
0.000121908
0.000121909
0.000121909
0.00012191
0.00012191
0.000121911
0.000121911
0.000121912
0.000121912
0.000121913
0.000121913
0.000121914
0.000121914
0.000121915
0.000121915
0.000121916
0.000121916
0.000121917
0.000121917
0.000121918
0.000121919
0.000121919
0.00012192
0.000121921
0.000121921
0.000121922
0.000121923
0.000121924
0.000121924
0.000121925
0.000121926
0.000121927
0.000121927
0.000121928
0.000121929
0.000121929
0.00012193
0.00012193
0.000121931
0.000121932
0.000121932
0.000121933
0.000121933
0.000121934
0.000121934
0.000121935
0.000121935
0.000121935
0.000121936
0.000121936
0.000121937
0.000121937
0.000121937
0.000121938
0.000121938
0.000121938
0.000121938
0.000121939
0.000121939
0.000121939
0.000121939
0.00012194
0.00012194
0.00012194
0.00012194
0.00012194
0.00012194
0.00012194
0.00012194
0.00012194
0.00012194
0.00012194
0.000121941
0.00012194
0.00012194
0.00012194
0.00012194
0.00012194
0.00012194
0.00012194
0.00012194
0.00012194
0.00012194
0.00012194
0.00012194
0.00012194
0.000121939
0.000121939
0.000121939
0.000121939
0.000121939
0.000121939
0.000121939
0.000121938
0.000121938
0.000121938
0.000121937
0.000121937
0.000121936
0.000121936
0.000121936
0.000121935
0.000121935
0.000121934
0.000121934
0.000121933
0.000121932
0.000121936
0.000112114
0.000112109
0.000112108
0.000112107
0.000112107
0.000112106
0.000112107
0.000112107
0.000112107
0.000112107
0.000112108
0.000112108
0.000112108
0.000112108
0.000112109
0.000112109
0.00011211
0.00011211
0.000112111
0.000112111
0.000112112
0.000112112
0.000112112
0.000112113
0.000112113
0.000112114
0.000112114
0.000112115
0.000112115
0.000112116
0.000112116
0.000112117
0.000112117
0.000112118
0.000112119
0.000112119
0.00011212
0.00011212
0.000112121
0.000112122
0.000112122
0.000112123
0.000112124
0.000112124
0.000112125
0.000112125
0.000112126
0.000112127
0.000112127
0.000112128
0.000112128
0.000112129
0.000112129
0.00011213
0.00011213
0.000112131
0.000112131
0.000112131
0.000112132
0.000112132
0.000112132
0.000112133
0.000112133
0.000112133
0.000112134
0.000112134
0.000112134
0.000112135
0.000112135
0.000112135
0.000112135
0.000112135
0.000112136
0.000112136
0.000112136
0.000112136
0.000112136
0.000112136
0.000112136
0.000112136
0.000112137
0.000112137
0.000112137
0.000112137
0.000112137
0.000112137
0.000112137
0.000112137
0.000112137
0.000112137
0.000112136
0.000112136
0.000112136
0.000112136
0.000112136
0.000112136
0.000112136
0.000112136
0.000112136
0.000112136
0.000112136
0.000112135
0.000112135
0.000112135
0.000112135
0.000112135
0.000112135
0.000112134
0.000112134
0.000112134
0.000112133
0.000112133
0.000112133
0.000112132
0.000112132
0.000112132
0.000112131
0.000112131
0.00011213
0.000112133
0.000102509
0.000102504
0.000102503
0.000102502
0.000102502
0.000102502
0.000102502
0.000102502
0.000102502
0.000102503
0.000102503
0.000102503
0.000102503
0.000102504
0.000102504
0.000102504
0.000102505
0.000102505
0.000102506
0.000102506
0.000102506
0.000102507
0.000102507
0.000102508
0.000102508
0.000102509
0.000102509
0.000102509
0.00010251
0.00010251
0.000102511
0.000102511
0.000102512
0.000102512
0.000102513
0.000102513
0.000102514
0.000102514
0.000102515
0.000102515
0.000102516
0.000102517
0.000102517
0.000102518
0.000102518
0.000102519
0.000102519
0.00010252
0.00010252
0.000102521
0.000102521
0.000102522
0.000102522
0.000102522
0.000102523
0.000102523
0.000102523
0.000102524
0.000102524
0.000102525
0.000102525
0.000102525
0.000102525
0.000102526
0.000102526
0.000102526
0.000102526
0.000102527
0.000102527
0.000102527
0.000102527
0.000102527
0.000102528
0.000102528
0.000102528
0.000102528
0.000102528
0.000102528
0.000102528
0.000102528
0.000102528
0.000102528
0.000102528
0.000102528
0.000102528
0.000102528
0.000102528
0.000102528
0.000102528
0.000102528
0.000102528
0.000102528
0.000102528
0.000102528
0.000102528
0.000102528
0.000102528
0.000102528
0.000102528
0.000102528
0.000102528
0.000102527
0.000102527
0.000102527
0.000102527
0.000102527
0.000102527
0.000102527
0.000102526
0.000102526
0.000102526
0.000102526
0.000102525
0.000102525
0.000102525
0.000102524
0.000102524
0.000102524
0.000102523
0.000102526
9.31032e-05
9.30992e-05
9.30979e-05
9.30972e-05
9.30969e-05
9.30967e-05
9.30968e-05
9.30971e-05
9.30974e-05
9.30977e-05
9.30979e-05
9.3098e-05
9.30982e-05
9.30985e-05
9.30988e-05
9.30992e-05
9.30997e-05
9.31001e-05
9.31005e-05
9.31008e-05
9.31012e-05
9.31015e-05
9.31019e-05
9.31023e-05
9.31027e-05
9.31031e-05
9.31035e-05
9.31038e-05
9.31042e-05
9.31045e-05
9.31049e-05
9.31053e-05
9.31058e-05
9.31062e-05
9.31066e-05
9.31071e-05
9.31075e-05
9.3108e-05
9.31085e-05
9.3109e-05
9.31095e-05
9.311e-05
9.31104e-05
9.31109e-05
9.31114e-05
9.31118e-05
9.31122e-05
9.31127e-05
9.31131e-05
9.31135e-05
9.31139e-05
9.31143e-05
9.31147e-05
9.3115e-05
9.31154e-05
9.31157e-05
9.3116e-05
9.31163e-05
9.31166e-05
9.31169e-05
9.31172e-05
9.31174e-05
9.31177e-05
9.31179e-05
9.31181e-05
9.31183e-05
9.31185e-05
9.31187e-05
9.31189e-05
9.31191e-05
9.31192e-05
9.31194e-05
9.31195e-05
9.31196e-05
9.31198e-05
9.31199e-05
9.312e-05
9.312e-05
9.31201e-05
9.31202e-05
9.31202e-05
9.31203e-05
9.31203e-05
9.31203e-05
9.31204e-05
9.31204e-05
9.31204e-05
9.31203e-05
9.31203e-05
9.31203e-05
9.31202e-05
9.31202e-05
9.31201e-05
9.31201e-05
9.312e-05
9.31199e-05
9.31199e-05
9.31198e-05
9.31197e-05
9.31196e-05
9.31195e-05
9.31194e-05
9.31193e-05
9.31193e-05
9.31192e-05
9.31191e-05
9.3119e-05
9.31188e-05
9.31187e-05
9.31185e-05
9.31183e-05
9.31181e-05
9.31178e-05
9.31176e-05
9.31173e-05
9.31171e-05
9.31168e-05
9.31166e-05
9.31156e-05
9.31182e-05
8.39046e-05
8.39011e-05
8.38998e-05
8.38992e-05
8.38989e-05
8.38988e-05
8.38989e-05
8.38991e-05
8.38994e-05
8.38997e-05
8.38999e-05
8.39e-05
8.39002e-05
8.39004e-05
8.39007e-05
8.39011e-05
8.39015e-05
8.39019e-05
8.39022e-05
8.39025e-05
8.39028e-05
8.39031e-05
8.39035e-05
8.39039e-05
8.39042e-05
8.39046e-05
8.39049e-05
8.39052e-05
8.39055e-05
8.39058e-05
8.39062e-05
8.39065e-05
8.39069e-05
8.39073e-05
8.39077e-05
8.3908e-05
8.39084e-05
8.39088e-05
8.39092e-05
8.39096e-05
8.39101e-05
8.39105e-05
8.39109e-05
8.39113e-05
8.39117e-05
8.39121e-05
8.39124e-05
8.39128e-05
8.39132e-05
8.39135e-05
8.39139e-05
8.39142e-05
8.39145e-05
8.39148e-05
8.39151e-05
8.39154e-05
8.39157e-05
8.3916e-05
8.39162e-05
8.39165e-05
8.39167e-05
8.39169e-05
8.39171e-05
8.39173e-05
8.39175e-05
8.39177e-05
8.39179e-05
8.3918e-05
8.39182e-05
8.39183e-05
8.39184e-05
8.39186e-05
8.39187e-05
8.39188e-05
8.39189e-05
8.3919e-05
8.39191e-05
8.39192e-05
8.39192e-05
8.39193e-05
8.39193e-05
8.39194e-05
8.39194e-05
8.39194e-05
8.39194e-05
8.39194e-05
8.39194e-05
8.39194e-05
8.39194e-05
8.39194e-05
8.39194e-05
8.39193e-05
8.39193e-05
8.39192e-05
8.39192e-05
8.39191e-05
8.3919e-05
8.3919e-05
8.39189e-05
8.39188e-05
8.39187e-05
8.39187e-05
8.39186e-05
8.39185e-05
8.39184e-05
8.39183e-05
8.39183e-05
8.39182e-05
8.3918e-05
8.39179e-05
8.39178e-05
8.39176e-05
8.39174e-05
8.39172e-05
8.3917e-05
8.39168e-05
8.39165e-05
8.39164e-05
8.39155e-05
8.39178e-05
7.49237e-05
7.49205e-05
7.49194e-05
7.49189e-05
7.49186e-05
7.49185e-05
7.49186e-05
7.49188e-05
7.49191e-05
7.49193e-05
7.49194e-05
7.49196e-05
7.49197e-05
7.49199e-05
7.49202e-05
7.49205e-05
7.49209e-05
7.49212e-05
7.49215e-05
7.49218e-05
7.49221e-05
7.49224e-05
7.49227e-05
7.4923e-05
7.49233e-05
7.49237e-05
7.49239e-05
7.49242e-05
7.49245e-05
7.49248e-05
7.4925e-05
7.49254e-05
7.49257e-05
7.4926e-05
7.49263e-05
7.49266e-05
7.49269e-05
7.49273e-05
7.49276e-05
7.4928e-05
7.49283e-05
7.49287e-05
7.4929e-05
7.49293e-05
7.49297e-05
7.493e-05
7.49303e-05
7.49307e-05
7.4931e-05
7.49313e-05
7.49316e-05
7.49319e-05
7.49321e-05
7.49324e-05
7.49327e-05
7.49329e-05
7.49331e-05
7.49334e-05
7.49336e-05
7.49338e-05
7.4934e-05
7.49342e-05
7.49343e-05
7.49345e-05
7.49347e-05
7.49348e-05
7.4935e-05
7.49351e-05
7.49352e-05
7.49354e-05
7.49355e-05
7.49356e-05
7.49357e-05
7.49358e-05
7.49359e-05
7.49359e-05
7.4936e-05
7.49361e-05
7.49361e-05
7.49362e-05
7.49362e-05
7.49363e-05
7.49363e-05
7.49363e-05
7.49363e-05
7.49363e-05
7.49363e-05
7.49363e-05
7.49363e-05
7.49363e-05
7.49363e-05
7.49362e-05
7.49362e-05
7.49362e-05
7.49361e-05
7.49361e-05
7.4936e-05
7.49359e-05
7.49359e-05
7.49358e-05
7.49357e-05
7.49357e-05
7.49356e-05
7.49355e-05
7.49355e-05
7.49354e-05
7.49353e-05
7.49353e-05
7.49352e-05
7.49351e-05
7.4935e-05
7.49348e-05
7.49347e-05
7.49345e-05
7.49344e-05
7.49342e-05
7.4934e-05
7.49338e-05
7.49331e-05
7.49351e-05
6.61751e-05
6.61723e-05
6.61714e-05
6.61709e-05
6.61706e-05
6.61705e-05
6.61706e-05
6.61708e-05
6.6171e-05
6.61712e-05
6.61713e-05
6.61714e-05
6.61715e-05
6.61717e-05
6.61719e-05
6.61722e-05
6.61726e-05
6.61729e-05
6.61732e-05
6.61734e-05
6.61736e-05
6.61739e-05
6.61741e-05
6.61744e-05
6.61747e-05
6.6175e-05
6.61753e-05
6.61755e-05
6.61757e-05
6.6176e-05
6.61762e-05
6.61765e-05
6.61767e-05
6.6177e-05
6.61773e-05
6.61775e-05
6.61778e-05
6.61781e-05
6.61784e-05
6.61787e-05
6.61789e-05
6.61792e-05
6.61795e-05
6.61798e-05
6.61801e-05
6.61804e-05
6.61807e-05
6.61809e-05
6.61812e-05
6.61814e-05
6.61817e-05
6.61819e-05
6.61822e-05
6.61824e-05
6.61826e-05
6.61828e-05
6.6183e-05
6.61832e-05
6.61834e-05
6.61836e-05
6.61837e-05
6.61839e-05
6.6184e-05
6.61842e-05
6.61843e-05
6.61844e-05
6.61846e-05
6.61847e-05
6.61848e-05
6.61849e-05
6.6185e-05
6.61851e-05
6.61852e-05
6.61852e-05
6.61853e-05
6.61854e-05
6.61854e-05
6.61855e-05
6.61856e-05
6.61856e-05
6.61856e-05
6.61857e-05
6.61857e-05
6.61857e-05
6.61857e-05
6.61857e-05
6.61857e-05
6.61857e-05
6.61857e-05
6.61857e-05
6.61857e-05
6.61856e-05
6.61856e-05
6.61856e-05
6.61855e-05
6.61855e-05
6.61855e-05
6.61854e-05
6.61853e-05
6.61853e-05
6.61852e-05
6.61852e-05
6.61851e-05
6.61851e-05
6.6185e-05
6.61849e-05
6.61849e-05
6.61848e-05
6.61848e-05
6.61847e-05
6.61846e-05
6.61845e-05
6.61844e-05
6.61843e-05
6.61841e-05
6.6184e-05
6.61838e-05
6.61837e-05
6.61831e-05
6.61847e-05
5.76786e-05
5.76763e-05
5.76755e-05
5.76751e-05
5.76748e-05
5.76747e-05
5.76748e-05
5.7675e-05
5.76752e-05
5.76753e-05
5.76754e-05
5.76755e-05
5.76755e-05
5.76757e-05
5.76759e-05
5.76762e-05
5.76764e-05
5.76767e-05
5.76769e-05
5.76771e-05
5.76773e-05
5.76775e-05
5.76778e-05
5.7678e-05
5.76783e-05
5.76785e-05
5.76788e-05
5.7679e-05
5.76792e-05
5.76794e-05
5.76796e-05
5.76798e-05
5.768e-05
5.76802e-05
5.76804e-05
5.76807e-05
5.76809e-05
5.76811e-05
5.76813e-05
5.76816e-05
5.76818e-05
5.76821e-05
5.76823e-05
5.76825e-05
5.76828e-05
5.7683e-05
5.76833e-05
5.76835e-05
5.76837e-05
5.76839e-05
5.76841e-05
5.76843e-05
5.76845e-05
5.76847e-05
5.76849e-05
5.76851e-05
5.76852e-05
5.76854e-05
5.76855e-05
5.76857e-05
5.76858e-05
5.7686e-05
5.76861e-05
5.76862e-05
5.76863e-05
5.76864e-05
5.76865e-05
5.76866e-05
5.76867e-05
5.76868e-05
5.76869e-05
5.76869e-05
5.7687e-05
5.76871e-05
5.76871e-05
5.76872e-05
5.76873e-05
5.76873e-05
5.76873e-05
5.76874e-05
5.76874e-05
5.76874e-05
5.76875e-05
5.76875e-05
5.76875e-05
5.76875e-05
5.76875e-05
5.76875e-05
5.76875e-05
5.76875e-05
5.76875e-05
5.76874e-05
5.76874e-05
5.76874e-05
5.76874e-05
5.76873e-05
5.76873e-05
5.76872e-05
5.76872e-05
5.76871e-05
5.76871e-05
5.7687e-05
5.7687e-05
5.76869e-05
5.76869e-05
5.76868e-05
5.76868e-05
5.76868e-05
5.76867e-05
5.76866e-05
5.76866e-05
5.76865e-05
5.76864e-05
5.76863e-05
5.76862e-05
5.76861e-05
5.76859e-05
5.76859e-05
5.76853e-05
5.76867e-05
4.9461e-05
4.94591e-05
4.94584e-05
4.9458e-05
4.94578e-05
4.94577e-05
4.94577e-05
4.94579e-05
4.9458e-05
4.94581e-05
4.94582e-05
4.94582e-05
4.94583e-05
4.94584e-05
4.94586e-05
4.94588e-05
4.94591e-05
4.94593e-05
4.94595e-05
4.94596e-05
4.94598e-05
4.946e-05
4.94602e-05
4.94604e-05
4.94606e-05
4.94608e-05
4.9461e-05
4.94612e-05
4.94614e-05
4.94615e-05
4.94617e-05
4.94619e-05
4.94621e-05
4.94622e-05
4.94624e-05
4.94626e-05
4.94628e-05
4.9463e-05
4.94631e-05
4.94633e-05
4.94635e-05
4.94637e-05
4.94639e-05
4.94641e-05
4.94643e-05
4.94645e-05
4.94647e-05
4.94649e-05
4.94651e-05
4.94653e-05
4.94654e-05
4.94656e-05
4.94658e-05
4.94659e-05
4.94661e-05
4.94662e-05
4.94663e-05
4.94665e-05
4.94666e-05
4.94667e-05
4.94668e-05
4.94669e-05
4.9467e-05
4.94671e-05
4.94672e-05
4.94673e-05
4.94674e-05
4.94675e-05
4.94676e-05
4.94676e-05
4.94677e-05
4.94678e-05
4.94678e-05
4.94679e-05
4.94679e-05
4.9468e-05
4.9468e-05
4.94681e-05
4.94681e-05
4.94681e-05
4.94681e-05
4.94682e-05
4.94682e-05
4.94682e-05
4.94682e-05
4.94682e-05
4.94682e-05
4.94682e-05
4.94682e-05
4.94682e-05
4.94682e-05
4.94682e-05
4.94682e-05
4.94681e-05
4.94681e-05
4.94681e-05
4.9468e-05
4.9468e-05
4.9468e-05
4.94679e-05
4.94679e-05
4.94678e-05
4.94678e-05
4.94678e-05
4.94677e-05
4.94677e-05
4.94676e-05
4.94676e-05